/*--------------------------------*- C++ -*----------------------------------*\
| =========                 |                                                 |
| \\      /  F ield         | OpenFOAM: The Open Source CFD Toolbox           |
|  \\    /   O peration     | Version:  2012                                  |
|   \\  /    A nd           | Website:  www.openfoam.com                      |
|    \\/     M anipulation  |                                                 |
\*---------------------------------------------------------------------------*/
FoamFile
{
    version     2.0;
    format      ascii;
    class       surfaceScalarField;
    location    "13100";
    object      phi;
}
// * * * * * * * * * * * * * * * * * * * * * * * * * * * * * * * * * * * * * //

dimensions      [0 3 -1 0 0 0 0];
oriented        oriented;


internalField   nonuniform List<scalar> 
5116
(
5.82514e-07
4.95991e-11
-2.30984e-11
-6.9409e-11
2.3104e-11
1.78009e-06
1.55873e-10
-3.54459e-11
-1.75967e-10
3.54505e-11
3.02835e-06
2.53422e-10
-3.263e-11
-2.73952e-10
3.26342e-11
4.32886e-06
3.23031e-10
-2.32478e-11
-3.43801e-10
2.32507e-11
5.68323e-06
3.64325e-10
-1.38225e-11
-3.85279e-10
1.38243e-11
7.09309e-06
3.89471e-10
-8.40378e-12
-4.10538e-10
8.40485e-12
8.56018e-06
4.06329e-10
-5.64467e-12
-4.27461e-10
5.64539e-12
1.00864e-05
4.18768e-10
-4.15605e-12
-4.39962e-10
4.15658e-12
1.16736e-05
4.28556e-10
-3.27577e-12
-4.49776e-10
3.27619e-12
1.3324e-05
4.36678e-10
-2.71181e-12
-4.57939e-10
2.71216e-12
1.50398e-05
4.43636e-10
-2.32728e-12
-4.64907e-10
2.32757e-12
1.68234e-05
4.49787e-10
-2.05233e-12
-4.7109e-10
2.05259e-12
1.86773e-05
4.55316e-10
-1.84846e-12
-4.76621e-10
1.8487e-12
2.0604e-05
4.60392e-10
-1.69304e-12
-4.81725e-10
1.69325e-12
2.26063e-05
4.65097e-10
-1.57197e-12
-4.86425e-10
1.57217e-12
2.46871e-05
4.69525e-10
-1.47612e-12
-4.90878e-10
1.47631e-12
2.68493e-05
4.73714e-10
-1.39931e-12
-4.9506e-10
1.39949e-12
2.90961e-05
4.77727e-10
-1.33725e-12
-4.99095e-10
1.33741e-12
3.14306e-05
4.81581e-10
-1.28684e-12
-5.0294e-10
1.287e-12
3.3856e-05
4.8532e-10
-1.24585e-12
-5.067e-10
1.246e-12
3.63756e-05
4.88953e-10
-1.21259e-12
-5.10321e-10
1.21273e-12
3.89929e-05
4.92512e-10
-1.18578e-12
-5.13901e-10
1.18592e-12
4.17113e-05
4.96001e-10
-1.16445e-12
-5.17376e-10
1.16458e-12
4.45341e-05
4.99448e-10
-1.14782e-12
-5.20842e-10
1.14795e-12
4.74648e-05
5.0285e-10
-1.13529e-12
-5.24229e-10
1.13542e-12
5.05067e-05
5.06233e-10
-1.12638e-12
-5.2763e-10
1.12651e-12
5.36632e-05
5.09592e-10
-1.12071e-12
-5.30973e-10
1.12084e-12
5.69376e-05
5.1295e-10
-1.11798e-12
-5.34348e-10
1.1181e-12
6.03328e-05
5.16301e-10
-1.11792e-12
-5.37682e-10
1.11804e-12
6.3852e-05
5.19667e-10
-1.12036e-12
-5.41063e-10
1.12048e-12
6.74978e-05
5.23039e-10
-1.12512e-12
-5.44418e-10
1.12524e-12
7.1273e-05
5.26441e-10
-1.13208e-12
-5.47834e-10
1.1322e-12
7.51797e-05
5.29861e-10
-1.14114e-12
-5.51236e-10
1.14126e-12
7.92201e-05
5.33324e-10
-1.15223e-12
-5.54712e-10
1.15235e-12
8.33959e-05
5.36817e-10
-1.1653e-12
-5.58185e-10
1.16541e-12
8.77085e-05
5.40364e-10
-1.18029e-12
-5.61744e-10
1.18041e-12
9.21587e-05
5.43952e-10
-1.19719e-12
-5.65313e-10
1.19731e-12
9.67472e-05
5.47607e-10
-1.21598e-12
-5.68978e-10
1.2161e-12
0.000101474
5.51313e-10
-1.23667e-12
-5.72664e-10
1.23679e-12
0.000106338
5.55098e-10
-1.25927e-12
-5.76458e-10
1.25938e-12
0.00011134
5.58946e-10
-1.28378e-12
-5.80284e-10
1.2839e-12
0.000116476
5.62884e-10
-1.31024e-12
-5.8423e-10
1.31036e-12
0.000121746
5.66895e-10
-1.33869e-12
-5.8822e-10
1.3388e-12
0.000127145
5.7101e-10
-1.36916e-12
-5.92342e-10
1.36927e-12
0.000132671
5.7521e-10
-1.40169e-12
-5.96519e-10
1.4018e-12
0.000138318
5.79527e-10
-1.43634e-12
-6.00841e-10
1.43645e-12
0.000144083
5.83941e-10
-1.47315e-12
-6.05232e-10
1.47327e-12
0.000149959
5.88485e-10
-1.51219e-12
-6.0978e-10
1.5123e-12
0.000155938
5.9314e-10
-1.5535e-12
-6.1441e-10
1.55362e-12
0.000162015
5.97939e-10
-1.59715e-12
-6.19212e-10
1.59726e-12
0.000168181
6.02861e-10
-1.64318e-12
-6.24109e-10
1.6433e-12
0.000174425
6.07944e-10
-1.69164e-12
-6.29193e-10
1.69176e-12
0.000180739
6.13164e-10
-1.74259e-12
-6.34387e-10
1.74271e-12
0.000187112
6.18559e-10
-1.79605e-12
-6.39782e-10
1.79617e-12
0.000193531
6.24106e-10
-1.85204e-12
-6.45302e-10
1.85217e-12
0.000199984
6.29845e-10
-1.91059e-12
-6.51039e-10
1.91071e-12
0.000206459
6.35751e-10
-1.97168e-12
-6.56916e-10
1.9718e-12
0.00021294
6.41863e-10
-2.03528e-12
-6.63025e-10
2.0354e-12
0.000219414
6.48156e-10
-2.10135e-12
-6.69288e-10
2.10148e-12
0.000225865
6.54672e-10
-2.16982e-12
-6.75799e-10
2.16995e-12
0.000232278
6.61382e-10
-2.24058e-12
-6.82477e-10
2.24071e-12
0.000238635
6.68329e-10
-2.31349e-12
-6.89416e-10
2.31362e-12
0.00024492
6.7548e-10
-2.38841e-12
-6.96535e-10
2.38854e-12
0.000251117
6.82882e-10
-2.46513e-12
-7.03926e-10
2.46526e-12
0.000257208
6.90497e-10
-2.54343e-12
-7.11507e-10
2.54356e-12
0.000263177
6.98372e-10
-2.62307e-12
-7.19369e-10
2.6232e-12
0.000269005
7.06466e-10
-2.70379e-12
-7.27427e-10
2.70393e-12
0.000274677
7.14828e-10
-2.78533e-12
-7.35772e-10
2.78546e-12
0.000280176
7.23411e-10
-2.86741e-12
-7.44318e-10
2.86755e-12
0.000285488
7.32267e-10
-2.94979e-12
-7.53152e-10
2.94993e-12
0.000290596
7.41341e-10
-3.03226e-12
-7.62188e-10
3.0324e-12
0.000295488
7.5069e-10
-3.11462e-12
-7.71512e-10
3.11476e-12
0.00030015
7.60255e-10
-3.19677e-12
-7.81038e-10
3.1969e-12
0.000304572
7.70096e-10
-3.27861e-12
-7.90849e-10
3.27875e-12
0.000308743
7.80147e-10
-3.36018e-12
-8.0086e-10
3.36032e-12
0.000312655
7.90476e-10
-3.44155e-12
-8.11155e-10
3.44169e-12
0.000316301
8.0101e-10
-3.52288e-12
-8.2165e-10
3.52302e-12
0.000319676
8.11827e-10
-3.60439e-12
-8.32427e-10
3.60453e-12
0.000322776
8.22846e-10
-3.68637e-12
-8.43407e-10
3.68651e-12
0.000325599
8.34156e-10
-3.76915e-12
-8.54673e-10
3.7693e-12
0.000328145
8.4567e-10
-3.85313e-12
-8.66147e-10
3.85328e-12
0.000330417
8.57487e-10
-3.93872e-12
-8.77916e-10
3.93888e-12
0.000332416
8.69513e-10
-4.02638e-12
-8.89905e-10
4.02653e-12
0.000334148
8.81862e-10
-4.11653e-12
-9.022e-10
4.1167e-12
0.000335619
8.94431e-10
-4.20967e-12
-9.14732e-10
4.20984e-12
0.000336836
9.07347e-10
-4.30625e-12
-9.2759e-10
4.30642e-12
0.000337809
9.20499e-10
-4.40672e-12
-9.40708e-10
4.4069e-12
0.000338545
9.34028e-10
-4.51154e-12
-9.54174e-10
4.51172e-12
0.000339055
9.47816e-10
-4.62116e-12
-9.67929e-10
4.62135e-12
0.000339351
9.62015e-10
-4.736e-12
-9.82061e-10
4.7362e-12
0.000339445
9.765e-10
-4.85649e-12
-9.96516e-10
4.85669e-12
0.000339347
9.91437e-10
-4.98304e-12
-1.01138e-09
4.98325e-12
0.00033907
1.00669e-09
-5.11606e-12
-1.02661e-09
5.11628e-12
0.000338626
1.02245e-09
-5.25595e-12
-1.04228e-09
5.25618e-12
0.000338029
1.03855e-09
-5.40311e-12
-1.05837e-09
5.40336e-12
0.000337288
1.05521e-09
-5.55793e-12
-1.07494e-09
5.55819e-12
0.000336418
1.07226e-09
-5.72082e-12
-1.09197e-09
5.72109e-12
0.000335428
1.08991e-09
-5.89216e-12
-1.10954e-09
5.89246e-12
0.000334331
1.10801e-09
-6.07239e-12
-1.12762e-09
6.0727e-12
0.000333137
1.12677e-09
-6.26189e-12
-1.14629e-09
6.26222e-12
0.000331856
1.14602e-09
-6.46111e-12
-1.16552e-09
6.46145e-12
0.000330498
1.166e-09
-6.67045e-12
-1.18541e-09
6.67082e-12
0.000329072
1.18653e-09
-6.8904e-12
-1.20593e-09
6.89079e-12
0.000327587
1.20786e-09
-7.12138e-12
-1.22716e-09
7.1218e-12
0.000326049
1.2298e-09
-7.36392e-12
-1.2491e-09
7.36437e-12
0.000324468
1.25262e-09
-7.61846e-12
-1.27181e-09
7.61894e-12
0.000322848
1.27611e-09
-7.88558e-12
-1.2953e-09
7.8861e-12
0.000321197
1.30056e-09
-8.16576e-12
-1.31965e-09
8.16631e-12
0.000319519
1.32577e-09
-8.45963e-12
-1.34486e-09
8.46022e-12
0.000317821
1.35202e-09
-8.7677e-12
-1.37101e-09
8.76833e-12
0.000316105
1.37912e-09
-9.09068e-12
-1.3981e-09
9.09135e-12
0.000314377
1.40735e-09
-9.42911e-12
-1.42623e-09
9.42983e-12
0.000312639
1.43651e-09
-9.7838e-12
-1.45539e-09
9.78456e-12
0.000310895
1.46691e-09
-1.01553e-11
-1.48569e-09
1.01561e-11
0.000309148
1.49835e-09
-1.05445e-11
-1.51713e-09
1.05454e-11
0.000307399
1.53114e-09
-1.0952e-11
-1.54981e-09
1.0953e-11
0.000305651
1.56507e-09
-1.13789e-11
-1.58375e-09
1.13799e-11
0.000303905
1.60047e-09
-1.18257e-11
-1.61904e-09
1.18268e-11
0.000302163
1.63713e-09
-1.22937e-11
-1.65572e-09
1.22949e-11
0.000300426
1.6754e-09
-1.27834e-11
-1.69387e-09
1.27847e-11
0.000298695
1.71506e-09
-1.32964e-11
-1.73355e-09
1.32977e-11
0.00029697
1.75647e-09
-1.38329e-11
-1.77485e-09
1.38343e-11
0.000295253
1.79942e-09
-1.43949e-11
-1.81782e-09
1.43964e-11
0.000293543
1.84428e-09
-1.49827e-11
-1.86256e-09
1.49843e-11
0.00029184
1.89083e-09
-1.55985e-11
-1.90913e-09
1.56002e-11
0.000290146
1.93945e-09
-1.62422e-11
-1.95764e-09
1.6244e-11
0.00028846
1.98995e-09
-1.69169e-11
-2.00817e-09
1.69188e-11
0.000286782
2.0427e-09
-1.76219e-11
-2.06081e-09
1.7624e-11
0.000285113
2.09752e-09
-1.83612e-11
-2.11566e-09
1.83635e-11
0.000283453
2.15481e-09
-1.91334e-11
-2.17283e-09
1.91358e-11
0.000281802
2.21436e-09
-1.99436e-11
-2.23242e-09
1.99462e-11
0.00028016
2.27661e-09
-2.07894e-11
-2.29455e-09
2.07921e-11
0.000278529
2.34135e-09
-2.16776e-11
-2.35933e-09
2.16804e-11
0.000276909
2.40904e-09
-2.26039e-11
-2.4269e-09
2.2607e-11
0.0002753
2.47947e-09
-2.35779e-11
-2.49738e-09
2.35811e-11
0.000273703
2.55311e-09
-2.45926e-11
-2.57091e-09
2.4596e-11
0.000272119
2.62979e-09
-2.5661e-11
-2.64763e-09
2.56647e-11
0.000270548
2.70996e-09
-2.67725e-11
-2.72769e-09
2.67764e-11
0.000268992
2.79348e-09
-2.79452e-11
-2.81126e-09
2.79493e-11
0.000267451
2.88082e-09
-2.91627e-11
-2.89848e-09
2.9167e-11
0.000265926
2.97184e-09
-3.04504e-11
-2.98956e-09
3.04551e-11
0.000264419
3.06703e-09
-3.17839e-11
-3.08463e-09
3.17889e-11
0.000262931
3.16629e-09
-3.31991e-11
-3.18395e-09
3.32043e-11
0.000261463
3.2701e-09
-3.46593e-11
-3.28764e-09
3.46649e-11
0.000260017
3.3784e-09
-3.62158e-11
-3.39601e-09
3.62217e-11
0.000258595
3.49167e-09
-3.78142e-11
-3.50916e-09
3.78204e-11
0.000257199
3.60989e-09
-3.95279e-11
-3.62745e-09
3.95345e-11
0.000255831
3.73354e-09
-4.12764e-11
-3.75098e-09
4.12833e-11
0.000254493
3.86266e-09
-4.31655e-11
-3.88018e-09
4.31728e-11
0.000253188
3.9977e-09
-4.50763e-11
-4.01509e-09
4.5084e-11
0.000251919
4.1388e-09
-4.71621e-11
-4.15627e-09
4.71702e-11
0.000250687
4.28634e-09
-4.92472e-11
-4.30369e-09
4.92558e-11
0.000249497
4.44061e-09
-5.15545e-11
-4.45804e-09
5.15636e-11
0.00024835
4.60187e-09
-5.38251e-11
-4.61919e-09
5.38347e-11
0.00024725
4.77062e-09
-5.63837e-11
-4.78802e-09
5.63939e-11
0.0002462
4.94695e-09
-5.88488e-11
-4.96422e-09
5.88595e-11
0.000245202
5.13161e-09
-6.16951e-11
-5.14898e-09
6.17064e-11
0.000244258
5.32447e-09
-6.43598e-11
-5.3417e-09
6.43717e-11
0.000243371
5.52664e-09
-6.75391e-11
-5.54399e-09
6.75516e-11
0.00024254
5.73762e-09
-7.04021e-11
-5.75482e-09
7.04152e-11
0.000241767
5.95908e-09
-7.39722e-11
-5.9764e-09
7.3986e-11
0.000241049
6.18991e-09
-7.70216e-11
-6.20708e-09
7.70361e-11
0.000240386
6.43261e-09
-8.10584e-11
-6.4499e-09
8.10736e-11
0.000239773
6.68518e-09
-8.42657e-11
-6.7023e-09
8.42818e-11
0.000239207
6.9513e-09
-8.88713e-11
-6.96856e-09
8.88881e-11
0.000238684
7.22761e-09
-9.21822e-11
-7.24469e-09
9.21999e-11
0.000238198
7.51959e-09
-9.74981e-11
-7.53682e-09
9.75167e-11
0.000237745
7.82181e-09
-1.00817e-10
-7.83885e-09
1.00837e-10
0.000237321
8.1424e-09
-1.07042e-10
-8.1596e-09
1.07062e-10
0.000236924
8.47282e-09
-1.10213e-10
-8.4898e-09
1.10235e-10
0.000236553
8.82514e-09
-1.17629e-10
-8.84231e-09
1.17651e-10
0.00023621
9.18613e-09
-1.20401e-10
-9.20306e-09
1.20425e-10
0.000235898
9.5738e-09
-1.29417e-10
-9.59093e-09
1.29442e-10
0.00023562
9.9678e-09
-1.31392e-10
-9.98464e-09
1.31418e-10
0.000235383
1.0395e-08
-1.4261e-10
-1.04121e-08
1.42637e-10
0.00023519
1.08244e-08
-1.43163e-10
-1.08411e-08
1.43192e-10
0.000235048
1.12962e-08
-1.57473e-10
-1.13131e-08
1.57502e-10
0.00023496
1.1763e-08
-1.55631e-10
-1.17795e-08
1.55663e-10
0.000234928
1.22854e-08
-1.74362e-10
-1.23022e-08
1.74393e-10
0.000234955
1.27911e-08
-1.68618e-10
-1.28076e-08
1.68651e-10
0.000235043
1.33717e-08
-1.93773e-10
-1.33885e-08
1.93807e-10
0.000235188
1.39168e-08
-1.81791e-10
-1.39334e-08
1.81828e-10
0.000235391
1.45654e-08
-2.16411e-10
-1.45823e-08
2.16448e-10
0.000235646
1.51698e-08
-2.01555e-10
-1.51865e-08
2.01595e-10
0.000235948
1.58981e-08
-2.43014e-10
-1.59151e-08
2.43056e-10
0.000236295
1.66099e-08
-2.37406e-10
-1.66269e-08
2.3745e-10
0.000236682
1.74311e-08
-2.73938e-10
-1.74483e-08
2.73985e-10
0.000237106
1.82663e-08
-2.78567e-10
-1.82835e-08
2.78616e-10
0.000237566
1.91939e-08
-3.09398e-10
-1.92113e-08
3.09449e-10
0.000238063
2.01699e-08
-3.25441e-10
-2.01872e-08
3.25494e-10
0.000238601
2.11318e-08
-3.20811e-10
-2.11492e-08
3.20866e-10
0.000239187
2.21712e-08
-3.46594e-10
-2.21885e-08
3.46651e-10
0.000239824
2.3163e-08
-3.30817e-10
-2.31805e-08
3.30878e-10
0.000240517
2.4272e-08
-3.69889e-10
-2.42897e-08
3.69953e-10
0.000241268
2.52969e-08
-3.41882e-10
-2.53149e-08
3.4195e-10
0.000242078
2.64847e-08
-3.96286e-10
-2.65033e-08
3.96357e-10
0.000242951
2.75822e-08
-3.66037e-10
-2.76009e-08
3.66114e-10
0.000243882
2.88609e-08
-4.26548e-10
-2.888e-08
4.26626e-10
0.000244872
3.00827e-08
-4.07428e-10
-3.01017e-08
4.07512e-10
0.000245911
3.14643e-08
-4.60848e-10
-3.14836e-08
4.60932e-10
0.000246986
3.28171e-08
-4.51133e-10
-3.28363e-08
4.51223e-10
0.000248079
3.43138e-08
-4.99195e-10
-3.43331e-08
4.99286e-10
0.000249167
3.58055e-08
-4.97475e-10
-3.58247e-08
4.97572e-10
0.000250224
3.74293e-08
-5.41622e-10
-3.74487e-08
5.41721e-10
0.000251223
3.90687e-08
-5.4677e-10
-3.9088e-08
5.46875e-10
0.000252135
4.08322e-08
-5.88189e-10
-4.08515e-08
5.88296e-10
0.000252938
4.26289e-08
-5.99268e-10
-4.26481e-08
5.9938e-10
0.000253615
4.45446e-08
-6.38985e-10
-4.45638e-08
6.39101e-10
0.00025416
4.65091e-08
-6.55267e-10
-4.65283e-08
6.55388e-10
0.000254571
4.859e-08
-6.94134e-10
-4.86092e-08
6.94258e-10
0.00025485
5.07336e-08
-7.15051e-10
-5.07529e-08
7.15182e-10
0.000254993
5.29934e-08
-7.53784e-10
-5.30126e-08
7.53918e-10
0.000254988
5.53284e-08
-7.7891e-10
-5.53476e-08
7.7905e-10
0.000254819
5.7781e-08
-8.1812e-10
-5.78001e-08
8.18264e-10
0.000254467
6.03205e-08
-8.47154e-10
-6.03398e-08
8.47304e-10
0.000253911
6.29808e-08
-8.87384e-10
-6.29999e-08
8.87539e-10
0.000253128
6.57391e-08
-9.20151e-10
-6.57584e-08
9.20312e-10
0.000252099
6.86228e-08
-9.6191e-10
-6.8642e-08
9.62076e-10
0.0002508
7.16156e-08
-9.98362e-10
-7.1635e-08
9.98535e-10
0.000249215
7.474e-08
-1.04216e-09
-7.47592e-08
1.04234e-09
0.000247338
7.79846e-08
-1.08238e-09
-7.80042e-08
1.08257e-09
0.000245179
8.13687e-08
-1.12875e-09
-8.1388e-08
1.12894e-09
0.000242764
8.48849e-08
-1.17294e-09
-8.49046e-08
1.17314e-09
0.000240134
8.85499e-08
-1.22242e-09
-8.85694e-08
1.22262e-09
0.000237327
9.23597e-08
-1.27085e-09
-9.23796e-08
1.27106e-09
0.000234374
9.63292e-08
-1.32395e-09
-9.63489e-08
1.32417e-09
0.000231287
1.00457e-07
-1.37691e-09
-1.00477e-07
1.37714e-09
0.000228054
1.04757e-07
-1.43414e-09
-1.04777e-07
1.43438e-09
0.000224637
1.0923e-07
-1.49199e-09
-1.0925e-07
1.49224e-09
0.000220995
1.13889e-07
-1.55389e-09
-1.13909e-07
1.55414e-09
0.000217099
1.18738e-07
-1.61711e-09
-1.18758e-07
1.61737e-09
0.000212951
1.23788e-07
-1.68433e-09
-1.23808e-07
1.6846e-09
0.000208573
1.29045e-07
-1.75353e-09
-1.29066e-07
1.75381e-09
0.000203993
1.34523e-07
-1.82682e-09
-1.34544e-07
1.82711e-09
0.000199241
1.40228e-07
-1.90268e-09
-1.4025e-07
1.90298e-09
0.00019434
1.46174e-07
-1.98278e-09
-1.46195e-07
1.98309e-09
0.000189324
1.52368e-07
-2.066e-09
-1.5239e-07
2.06632e-09
0.000184241
1.58827e-07
-2.15364e-09
-1.58848e-07
2.15398e-09
0.000179145
1.65558e-07
-2.24487e-09
-1.6558e-07
2.24522e-09
0.000174086
1.72577e-07
-2.34069e-09
-1.72599e-07
2.34105e-09
0.000169077
1.79895e-07
-2.44048e-09
-1.79918e-07
2.44086e-09
0.00016409
1.87527e-07
-2.54503e-09
-1.8755e-07
2.54542e-09
0.000159052
1.95485e-07
-2.65393e-09
-1.95509e-07
2.65434e-09
0.000153858
2.03786e-07
-2.76785e-09
-2.03809e-07
2.76826e-09
0.000148397
2.12442e-07
-2.88663e-09
-2.12466e-07
2.88707e-09
0.000142569
2.21472e-07
-3.01089e-09
-2.21496e-07
3.01134e-09
0.00013628
2.3089e-07
-3.14076e-09
-2.30915e-07
3.14124e-09
0.000129453
2.40718e-07
-3.27686e-09
-2.40742e-07
3.27735e-09
0.000122084
2.50972e-07
-3.41959e-09
-2.50998e-07
3.42011e-09
0.000114282
2.61678e-07
-3.5695e-09
-2.61703e-07
3.57002e-09
0.00010626
2.72855e-07
-3.72708e-09
-2.72881e-07
3.72764e-09
9.82648e-05
2.84529e-07
-3.89257e-09
-2.84555e-07
3.89314e-09
9.05266e-05
2.96724e-07
-4.0664e-09
-2.96751e-07
4.067e-09
8.32543e-05
3.09466e-07
-4.24829e-09
-3.09492e-07
4.24891e-09
7.66034e-05
3.22777e-07
-4.43861e-09
-3.22805e-07
4.43926e-09
7.05737e-05
3.36684e-07
-4.63671e-09
-3.36711e-07
4.63737e-09
6.49572e-05
3.51209e-07
-4.84315e-09
-3.51237e-07
4.84386e-09
5.9437e-05
3.66376e-07
-5.05717e-09
-3.66405e-07
5.0579e-09
5.37729e-05
3.82211e-07
-5.27972e-09
-3.82241e-07
5.28049e-09
4.79754e-05
3.98736e-07
-5.50978e-09
-3.98766e-07
5.51057e-09
4.22881e-05
4.15977e-07
-5.74845e-09
-4.16008e-07
5.74928e-09
3.70442e-05
4.33955e-07
-5.99412e-09
-4.33986e-07
5.99498e-09
3.25161e-05
4.52694e-07
-6.24794e-09
-4.52726e-07
6.24884e-09
2.88695e-05
4.72213e-07
-6.50774e-09
-4.72245e-07
6.50867e-09
2.61993e-05
4.92533e-07
-6.77496e-09
-4.92566e-07
6.77594e-09
2.44508e-05
5.1367e-07
-7.04726e-09
-5.13704e-07
7.04827e-09
2.34134e-05
5.35645e-07
-7.3267e-09
-5.3568e-07
7.32775e-09
2.28382e-05
5.58473e-07
-7.61071e-09
-5.58508e-07
7.61181e-09
2.25055e-05
5.82173e-07
-7.90184e-09
-5.82209e-07
7.90296e-09
2.22049e-05
6.06759e-07
-8.19695e-09
-6.06796e-07
8.19815e-09
2.16838e-05
6.32251e-07
-8.49905e-09
-6.32289e-07
8.50025e-09
2.06312e-05
6.58659e-07
-8.80409e-09
-6.58697e-07
8.80538e-09
1.87405e-05
6.85999e-07
-9.11548e-09
-6.86039e-07
9.11676e-09
1.57528e-05
7.14278e-07
-9.42785e-09
-7.14317e-07
9.42924e-09
1.14825e-05
7.43508e-07
-9.74548e-09
-7.43549e-07
9.74683e-09
5.85862e-06
7.73687e-07
-1.00612e-08
-7.73728e-07
1.00628e-08
-1.16655e-06
8.04822e-07
-1.03806e-08
-8.04865e-07
1.0382e-08
-9.68853e-06
8.36907e-07
-1.06967e-08
-8.3695e-07
1.06983e-08
-1.96795e-05
8.70066e-07
-1.1055e-08
-8.70111e-07
1.10565e-08
-3.09293e-05
9.0433e-07
-1.14232e-08
-9.04375e-07
1.14249e-08
-4.32376e-05
9.39878e-07
-1.18517e-08
-9.39925e-07
1.18533e-08
-5.65878e-05
9.76776e-07
-1.23012e-08
-9.76824e-07
1.23032e-08
-7.11511e-05
1.01527e-06
-1.28347e-08
-1.01532e-06
1.28363e-08
-8.70153e-05
1.05547e-06
-1.34032e-08
-1.05553e-06
1.34053e-08
-0.000103936
1.09774e-06
-1.40914e-08
-1.09779e-06
1.40931e-08
-0.000121373
1.14222e-06
-1.48297e-08
-1.14227e-06
1.4832e-08
-0.000138699
1.18941e-06
-1.57332e-08
-1.18946e-06
1.57349e-08
-0.000155448
1.23947e-06
-1.66893e-08
-1.23952e-06
1.66919e-08
-0.000171149
1.29305e-06
-1.78653e-08
-1.29311e-06
1.78671e-08
-0.000184962
1.35026e-06
-1.90731e-08
-1.35032e-06
1.9076e-08
-0.000195872
1.41194e-06
-2.0568e-08
-1.41201e-06
2.05699e-08
-0.000203333
1.47801e-06
-2.20261e-08
-1.47808e-06
2.20294e-08
-0.000207705
1.54957e-06
-2.38608e-08
-1.54964e-06
2.38627e-08
-0.000210158
1.62616e-06
-2.55354e-08
-1.62624e-06
2.55391e-08
-0.000212154
1.70938e-06
-2.77483e-08
-1.70947e-06
2.77502e-08
-0.000214787
1.79822e-06
-2.96209e-08
-1.79832e-06
2.96251e-08
-0.000218237
1.89515e-06
-3.23207e-08
-1.89526e-06
3.23226e-08
-0.000221872
1.9983e-06
-3.43899e-08
-1.99841e-06
3.43947e-08
-0.000224798
2.11153e-06
-3.77542e-08
-2.11165e-06
3.7756e-08
-0.000226181
2.2314e-06
-3.99659e-08
-2.23153e-06
3.99713e-08
-0.000225435
2.36401e-06
-4.42167e-08
-2.36415e-06
4.42183e-08
-0.000222368
2.50319e-06
-4.64035e-08
-2.50334e-06
4.64096e-08
-0.000217233
2.65867e-06
-5.18384e-08
-2.65882e-06
5.18398e-08
-0.000210286
2.81975e-06
-5.37021e-08
-2.81991e-06
5.37091e-08
-0.000201151
3.00204e-06
-6.07772e-08
-3.0022e-06
6.07783e-08
-0.000189174
3.18757e-06
-6.18588e-08
-3.18777e-06
6.18668e-08
-0.000174568
3.40121e-06
-7.12247e-08
-3.40142e-06
7.12253e-08
-0.000158245
3.61336e-06
-7.08101e-08
-3.61385e-06
7.08194e-08
-0.000141564
3.86335e-06
-8.33267e-08
-3.86391e-06
8.33268e-08
-0.000125931
4.10442e-06
-8.04307e-08
-4.10518e-06
8.04415e-08
-0.000112116
4.39612e-06
-9.7207e-08
-4.39682e-06
9.72064e-08
-9.96741e-05
4.00157e-06
1.31544e-07
-4.00213e-06
-1.31576e-07
-8.8376e-05
3.62642e-06
1.25085e-07
-3.6268e-06
-1.25127e-07
-7.84259e-05
3.18489e-06
1.47199e-07
-3.18513e-06
-1.47233e-07
-7.0709e-05
2.75779e-06
1.42393e-07
-2.75793e-06
-1.42425e-07
-6.50473e-05
2.2604e-06
1.65806e-07
-2.26045e-06
-1.65843e-07
-6.00162e-05
1.76897e-06
1.63829e-07
-1.76897e-06
-1.63853e-07
-5.43706e-05
1.20691e-06
1.87356e-07
-1.20685e-06
-1.87397e-07
-4.90797e-05
6.38048e-07
1.89638e-07
-6.37959e-07
-1.89654e-07
-4.61192e-05
2.10937e-07
5.22428e-09
-2.10982e-07
-5.08931e-09
5.8256e-07
-6.93959e-11
6.92887e-11
1.78016e-06
-1.75875e-10
1.75576e-10
3.02841e-06
-2.73857e-10
2.73453e-10
4.32891e-06
-3.43682e-10
3.43173e-10
5.68326e-06
-3.85176e-10
3.84645e-10
7.09311e-06
-4.10423e-10
4.09844e-10
8.5602e-06
-4.27362e-10
4.26785e-10
1.00864e-05
-4.39852e-10
4.39243e-10
1.16736e-05
-4.49679e-10
4.49076e-10
1.3324e-05
-4.57833e-10
4.57202e-10
1.50398e-05
-4.64812e-10
4.64189e-10
1.68234e-05
-4.70985e-10
4.70336e-10
1.86773e-05
-4.76526e-10
4.75887e-10
2.0604e-05
-4.81621e-10
4.80956e-10
2.26063e-05
-4.86332e-10
4.85677e-10
2.46871e-05
-4.90774e-10
4.90095e-10
2.68493e-05
-4.94967e-10
4.94297e-10
2.90961e-05
-4.98993e-10
4.98298e-10
3.14306e-05
-5.02848e-10
5.02163e-10
3.3856e-05
-5.06599e-10
5.0589e-10
3.63756e-05
-5.1023e-10
5.09531e-10
3.89929e-05
-5.13801e-10
5.13078e-10
4.17113e-05
-5.17288e-10
5.16575e-10
4.45341e-05
-5.20744e-10
5.20007e-10
4.74648e-05
-5.24143e-10
5.23416e-10
5.05067e-05
-5.27535e-10
5.26784e-10
5.36632e-05
-5.3089e-10
5.30149e-10
5.69376e-05
-5.34257e-10
5.33491e-10
6.03328e-05
-5.37603e-10
5.36848e-10
6.3852e-05
-5.40976e-10
5.40196e-10
6.74978e-05
-5.44343e-10
5.43574e-10
7.1273e-05
-5.47752e-10
5.46957e-10
7.51797e-05
-5.51167e-10
5.50383e-10
7.92201e-05
-5.54635e-10
5.53826e-10
8.33959e-05
-5.58122e-10
5.57324e-10
8.77085e-05
-5.61675e-10
5.60851e-10
9.21587e-05
-5.65257e-10
5.64444e-10
9.67472e-05
-5.68916e-10
5.68077e-10
0.000101474
-5.72616e-10
5.71788e-10
0.000106338
-5.76405e-10
5.75551e-10
0.00011134
-5.80246e-10
5.79403e-10
0.000116476
-5.84188e-10
5.83317e-10
0.000121746
-5.88192e-10
5.87333e-10
0.000127145
-5.9231e-10
5.91424e-10
0.000132671
-5.96503e-10
5.95628e-10
0.000138318
-6.00823e-10
5.99919e-10
0.000144083
-6.05229e-10
6.04337e-10
0.000149958
-6.09776e-10
6.08854e-10
0.000155938
-6.14422e-10
6.13512e-10
0.000162015
-6.19223e-10
6.18283e-10
0.000168181
-6.24137e-10
6.2321e-10
0.000174425
-6.29222e-10
6.28263e-10
0.000180739
-6.34432e-10
6.33486e-10
0.000187111
-6.3983e-10
6.38851e-10
0.000193531
-6.45367e-10
6.44402e-10
0.000199984
-6.51108e-10
6.50109e-10
0.000206459
-6.57002e-10
6.56017e-10
0.00021294
-6.63116e-10
6.62097e-10
0.000219414
-6.69397e-10
6.68392e-10
0.000225865
-6.75915e-10
6.74874e-10
0.000232278
-6.82611e-10
6.81585e-10
0.000238635
-6.89558e-10
6.88496e-10
0.00024492
-6.96695e-10
6.9565e-10
0.000251117
-7.04096e-10
7.03013e-10
0.000257208
-7.11694e-10
7.1063e-10
0.000263177
-7.19568e-10
7.18464e-10
0.000269005
-7.27644e-10
7.26561e-10
0.000274677
-7.36002e-10
7.3488e-10
0.000280176
-7.44564e-10
7.43465e-10
0.000285488
-7.53412e-10
7.52274e-10
0.000290596
-7.62464e-10
7.61351e-10
0.000295488
-7.71803e-10
7.70652e-10
0.000300151
-7.81344e-10
7.8022e-10
0.000304572
-7.9117e-10
7.9001e-10
0.000308744
-8.01196e-10
8.00065e-10
0.000312656
-8.11506e-10
8.1034e-10
0.000316301
-8.22014e-10
8.2088e-10
0.000319676
-8.32805e-10
8.31639e-10
0.000322776
-8.43799e-10
8.42666e-10
0.000325599
-8.55077e-10
8.53915e-10
0.000328145
-8.66565e-10
8.65438e-10
0.000330417
-8.78344e-10
8.77191e-10
0.000332416
-8.90347e-10
8.89229e-10
0.000334148
-9.02651e-10
9.01511e-10
0.000335619
-9.15199e-10
9.14094e-10
0.000336837
-9.28062e-10
9.26941e-10
0.000337809
-9.41197e-10
9.4011e-10
0.000338545
-9.54667e-10
9.53567e-10
0.000339055
-9.68439e-10
9.67374e-10
0.000339352
-9.82572e-10
9.81499e-10
0.000339445
-9.97048e-10
9.96006e-10
0.000339347
-1.01191e-09
1.01087e-09
0.00033907
-1.02716e-09
1.02615e-09
0.000338626
-1.04283e-09
1.04182e-09
0.000338029
-1.05894e-09
1.05795e-09
0.000337289
-1.07551e-09
1.07453e-09
0.000336418
-1.09257e-09
1.09161e-09
0.000335428
-1.11013e-09
1.10918e-09
0.000334331
-1.12824e-09
1.12731e-09
0.000333137
-1.1469e-09
1.14599e-09
0.000331857
-1.16617e-09
1.16527e-09
0.000330499
-1.18604e-09
1.18517e-09
0.000329073
-1.2066e-09
1.20574e-09
0.000327587
-1.22782e-09
1.22698e-09
0.00032605
-1.2498e-09
1.24896e-09
0.000324468
-1.2725e-09
1.27169e-09
0.000322848
-1.29603e-09
1.29523e-09
0.000321197
-1.32037e-09
1.3196e-09
0.000319519
-1.34563e-09
1.34485e-09
0.000317821
-1.37176e-09
1.37102e-09
0.000316105
-1.39891e-09
1.39816e-09
0.000314377
-1.42701e-09
1.4263e-09
0.000312639
-1.45624e-09
1.45552e-09
0.000310895
-1.48652e-09
1.48583e-09
0.000309148
-1.51802e-09
1.51733e-09
0.000307399
-1.55068e-09
1.55003e-09
0.000305651
-1.58469e-09
1.58402e-09
0.000303905
-1.61997e-09
1.61933e-09
0.000302163
-1.65672e-09
1.65606e-09
0.000300426
-1.69486e-09
1.69424e-09
0.000298695
-1.73461e-09
1.73397e-09
0.000296971
-1.77589e-09
1.7753e-09
0.000295253
-1.81895e-09
1.81832e-09
0.000293543
-1.86367e-09
1.86309e-09
0.00029184
-1.91033e-09
1.90972e-09
0.000290146
-1.95883e-09
1.95827e-09
0.00028846
-2.00944e-09
2.00884e-09
0.000286782
-2.06207e-09
2.06152e-09
0.000285113
-2.11701e-09
2.11642e-09
0.000283453
-2.17417e-09
2.17364e-09
0.000281802
-2.23386e-09
2.23328e-09
0.00028016
-2.29598e-09
2.29546e-09
0.000278529
-2.36087e-09
2.3603e-09
0.000276909
-2.42843e-09
2.42792e-09
0.0002753
-2.49902e-09
2.49845e-09
0.000273703
-2.57254e-09
2.57203e-09
0.000272119
-2.64938e-09
2.64882e-09
0.000270548
-2.72943e-09
2.72893e-09
0.000268992
-2.81312e-09
2.81257e-09
0.000267451
-2.90034e-09
2.89985e-09
0.000265927
-2.99154e-09
2.99099e-09
0.00026442
-3.08662e-09
3.08614e-09
0.000262931
-3.18606e-09
3.18553e-09
0.000261464
-3.28977e-09
3.2893e-09
0.000260018
-3.39826e-09
3.39773e-09
0.000258596
-3.51142e-09
3.51097e-09
0.000257199
-3.62985e-09
3.62934e-09
0.000255831
-3.75339e-09
3.75296e-09
0.000254494
-3.88273e-09
3.88224e-09
0.000253189
-4.01767e-09
4.01726e-09
0.000251919
-4.159e-09
4.15853e-09
0.000250688
-4.30645e-09
4.30607e-09
0.000249497
-4.46096e-09
4.4605e-09
0.000248351
-4.62214e-09
4.62178e-09
0.000247251
-4.79113e-09
4.79071e-09
0.0002462
-4.96738e-09
4.96706e-09
0.000245202
-5.1523e-09
5.15191e-09
0.000244259
-5.34508e-09
5.34481e-09
0.000243371
-5.54754e-09
5.54719e-09
0.000242541
-5.75844e-09
5.75822e-09
0.000241767
-5.9802e-09
5.9799e-09
0.00024105
-6.21096e-09
6.2108e-09
0.000240387
-6.45398e-09
6.45374e-09
0.000239774
-6.70646e-09
6.70639e-09
0.000239208
-6.97293e-09
6.97276e-09
0.000238684
-7.24916e-09
7.24919e-09
0.000238198
-7.54152e-09
7.54143e-09
0.000237745
-7.84366e-09
7.84379e-09
0.000237321
-8.16465e-09
8.16467e-09
0.000236924
-8.49498e-09
8.49524e-09
0.000236554
-8.84774e-09
8.84787e-09
0.000236211
-9.20864e-09
9.20906e-09
0.000235898
-9.59678e-09
9.59704e-09
0.000235621
-9.99066e-09
9.99125e-09
0.000235383
-1.04184e-08
1.04188e-08
0.000235191
-1.08476e-08
1.08484e-08
0.000235049
-1.13199e-08
1.13206e-08
0.00023496
-1.17866e-08
1.17876e-08
0.000234929
-1.23096e-08
1.23104e-08
0.000234956
-1.28152e-08
1.28163e-08
0.000235043
-1.33965e-08
1.33974e-08
0.000235189
-1.39417e-08
1.39427e-08
0.000235392
-1.45909e-08
1.45917e-08
0.000235646
-1.51954e-08
1.51964e-08
0.000235949
-1.59244e-08
1.59253e-08
0.000236296
-1.66365e-08
1.66375e-08
0.000236683
-1.74584e-08
1.74592e-08
0.000237107
-1.8294e-08
1.8295e-08
0.000237567
-1.92222e-08
1.92232e-08
0.000238064
-2.01985e-08
2.01996e-08
0.000238603
-2.1161e-08
2.11621e-08
0.000239188
-2.22008e-08
2.22021e-08
0.000239825
-2.31934e-08
2.31946e-08
0.000240519
-2.43031e-08
2.43041e-08
0.000241269
-2.53288e-08
2.53299e-08
0.00024208
-2.65177e-08
2.65184e-08
0.000242952
-2.7616e-08
2.76168e-08
0.000243884
-2.88956e-08
2.88962e-08
0.000244873
-3.0118e-08
3.01188e-08
0.000245913
-3.15006e-08
3.15013e-08
0.000246988
-3.2854e-08
3.2855e-08
0.000248081
-3.43515e-08
3.43526e-08
0.000249169
-3.58439e-08
3.58452e-08
0.000250227
-3.74686e-08
3.74701e-08
0.000251225
-3.91088e-08
3.91105e-08
0.000252138
-4.0873e-08
4.0875e-08
0.000252941
-4.26706e-08
4.26729e-08
0.000253618
-4.45872e-08
4.45897e-08
0.000254162
-4.65527e-08
4.65554e-08
0.000254574
-4.86346e-08
4.86377e-08
0.000254853
-5.07793e-08
5.07826e-08
0.000254996
-5.30401e-08
5.30437e-08
0.000254991
-5.53763e-08
5.53802e-08
0.000254822
-5.783e-08
5.78343e-08
0.000254471
-6.03709e-08
6.03753e-08
0.000253914
-6.30324e-08
6.30372e-08
0.000253132
-6.57923e-08
6.57972e-08
0.000252102
-6.86773e-08
6.86828e-08
0.000250804
-7.16718e-08
7.16774e-08
0.000249219
-7.47976e-08
7.48036e-08
0.000247342
-7.80442e-08
7.80503e-08
0.000245182
-8.14298e-08
8.14364e-08
0.000242768
-8.49482e-08
8.49548e-08
0.000240137
-8.86148e-08
8.86221e-08
0.00023733
-9.2427e-08
9.24342e-08
0.000234377
-9.63984e-08
9.64062e-08
0.00023129
-1.00529e-07
1.00537e-07
0.000228057
-1.04831e-07
1.04839e-07
0.00022464
-1.09307e-07
1.09315e-07
0.000220998
-1.13968e-07
1.13977e-07
0.000217103
-1.18819e-07
1.18828e-07
0.000212954
-1.23872e-07
1.23882e-07
0.000208576
-1.29133e-07
1.29143e-07
0.000203996
-1.34614e-07
1.34624e-07
0.000199243
-1.40322e-07
1.40332e-07
0.000194342
-1.46271e-07
1.46281e-07
0.000189327
-1.52469e-07
1.5248e-07
0.000184243
-1.58931e-07
1.58942e-07
0.000179147
-1.65666e-07
1.65677e-07
0.000174088
-1.72689e-07
1.72701e-07
0.000169079
-1.80011e-07
1.80023e-07
0.000164091
-1.87647e-07
1.8766e-07
0.000159053
-1.9561e-07
1.95623e-07
0.000153859
-2.03915e-07
2.03928e-07
0.000148397
-2.12576e-07
2.1259e-07
0.000142568
-2.21611e-07
2.21625e-07
0.000136278
-2.31035e-07
2.31049e-07
0.00012945
-2.40867e-07
2.40882e-07
0.000122079
-2.51128e-07
2.51143e-07
0.000114277
-2.61839e-07
2.61855e-07
0.000106254
-2.73023e-07
2.73039e-07
9.82582e-05
-2.84703e-07
2.8472e-07
9.05196e-05
-2.96905e-07
2.96922e-07
8.3247e-05
-3.09653e-07
3.09671e-07
7.65961e-05
-3.22972e-07
3.2299e-07
7.05665e-05
-3.36886e-07
3.36905e-07
6.49502e-05