/*--------------------------------*- C++ -*----------------------------------*\
| =========                 |                                                 |
| \\      /  F ield         | OpenFOAM: The Open Source CFD Toolbox           |
|  \\    /   O peration     | Version:  2012                                  |
|   \\  /    A nd           | Website:  www.openfoam.com                      |
|    \\/     M anipulation  |                                                 |
\*---------------------------------------------------------------------------*/
FoamFile
{
    version     2.0;
    format      ascii;
    class       volTensorField;
    location    "13000";
    object      grad(U);
}
// * * * * * * * * * * * * * * * * * * * * * * * * * * * * * * * * * * * * * //

dimensions      [0 0 -1 0 0 0 0];


internalField   nonuniform List<tensor> 
2560
(
(0 -1.34868e-14 1.62624e-13 480.418 0 3.10736 0.696278 0 0.00583646)
(0 0 2.28578e-18 479.862 0.0313093 0.000256855 0.696278 -0.000380399 -0.00582331)
(0 1.67216e-19 3.15544e-30 478.861 -0.00435528 -8.76665e-21 2.09386 6.67383e-05 1.73472e-18)
(-2.88386e-16 -1.32013e-19 2.25302e-18 478.321 0.143193 -0.000168637 2.09387 6.5375e-05 -0.00806742)
(-8.95841e-17 -9.97592e-20 2.22073e-18 477.49 -0.0780156 -1.85744 2.86225 2.81187e-05 0.00519178)
(0 2.38555e-19 -3.33109e-18 476.981 0.054581 -6.00836e-05 2.85932 2.6508e-05 -0.00517998)
(8.43825e-16 -2.4866e-16 1.09445e-18 476.119 -0.0366314 -1.27443 2.89557 -2.63456e-06 0.00255293)
(-5.60358e-16 2.03072e-19 -1.09445e-18 475.654 0.0292135 -1.69484e-05 2.89288 1.37934e-07 -0.00254713)
(2.20931e-15 -4.0661e-19 1.07876e-18 474.769 -0.0150203 -0.562302 2.92942 7.30871e-07 0.00134935)
(-1.10465e-15 4.74329e-19 -8.09072e-19 474.353 0.0159619 -4.37652e-06 2.927 -2.41659e-07 -0.00134629)
(1.76704e-15 -1.35509e-19 2.65825e-19 473.327 -0.00968941 -0.247624 2.96231 3.45027e-07 0.000833241)
(4.3393e-15 2.03263e-19 -2.65825e-19 472.961 0.0099748 -7.63441e-07 2.96017 -1.1236e-06 -0.000831353)
(-8.79411e-16 -1.35486e-19 1.96512e-19 471.593 -0.00706712 -0.125148 2.99317 1.70704e-06 0.000580714)
(3.51868e-15 2.71099e-19 -3.27519e-19 471.277 0.0068312 -2.10771e-07 2.99132 -6.62369e-08 -0.000579398)
(-1.08305e-15 2.71123e-19 -6.4565e-20 469.488 -0.00520973 -0.0719628 3.02192 -3.70749e-07 0.000438951)
(4.33308e-15 -2.03279e-19 0 469.221 0.00534251 -1.37789e-07 3.02035 -1.66094e-06 -0.000437956)
(1.28862e-15 -2.03349e-19 1.27279e-19 467.226 -0.00429402 -0.0455255 3.05123 2.20728e-06 0.000350611)
(0 2.7109e-19 -1.27279e-19 467.005 0.00411513 -2.48709e-08 3.04993 6.41067e-07 -0.000349816)
(0 2.71002e-19 -1.25455e-19 465.242 -0.00341933 -0.0308594 3.0841 -9.60274e-07 0.000237542)
(-2.05546e-15 -2.03374e-19 0 465.064 0.00356295 -3.26543e-08 3.08305 -2.1837e-06 -0.000290566)
(-1.70491e-15 -4.7434e-19 1.74369e-19 463.609 -0.00304392 -0.0220154 3.11861 2.75877e-06 0.000168901)
(-2.026e-15 5.41965e-19 -2.164e-19 463.471 0.002907 -7.8165e-09 3.1178 1.22991e-06 -0.000248435)
(1.91622e-15 -2.25413e-17 2.56586e-19 462.188 -0.00244636 -0.0163304 3.15501 -1.45144e-06 0.00012532)
(0 8.81283e-19 -2.13298e-19 462.086 0.00266505 -8.01854e-08 3.15443 -2.67751e-06 -0.000217177)
(0 -3.38826e-19 3.00344e-20 461.092 -0.0022038 -0.0125187 3.19476 2.98773e-06 9.61242e-05)
(0 5.42262e-19 -3.00344e-20 461.022 0.0404683 0.000140178 3.19438 1.44675e-06 -0.0001932)
(-2.3457e-15 4.14455e-19 -4.32047e-20 460.205 -0.00251455 -0.00978125 3.23496 0.000131193 7.61205e-05)
(5.50266e-15 2.52778e-34 0 460.165 -1.388e-17 1.82771e-06 3.23477 0 -0.000173727)
(0 -2.86741e-17 -1.45898e-19 459.089 -0.00022729 -0.00785399 3.2724 -8.05398e-07 6.04179e-05)
(0 -5.83593e-19 1.45898e-19 459.074 0.122592 0.000209487 3.27238 -0.00026288 -0.000159143)
(-2.78747e-15 0 -1.31452e-20 457.402 -0.00317697 -0.00633521 3.30529 0.000571003 5.08349e-05)
(1.11498e-14 -4.81482e-35 0 457.409 -2.19804e-17 6.19678e-06 3.30541 -1.0842e-19 -0.000145222)
(0 -2.20677e-17 -1.41746e-19 455.045 3.4075e-17 -0.00514667 3.33362 0 4.01888e-05)
(-1.20515e-14 1.63013e-15 1.41746e-19 455.07 0.0832078 -0.000240578 3.33386 -0.000303482 -0.000136435)
(0 1.67657e-18 -8.38287e-20 452.428 -0.00244557 -0.00433604 3.36311 0.00093521 3.48582e-05)
(-1.29603e-14 -3.88774e-19 8.38287e-20 452.468 -3.50379e-17 2.16205e-06 3.36346 -1.0842e-19 -0.00012737)
(7.22008e-15 -2.20339e-19 4.13136e-20 450.543 -0.000182133 -0.00364719 3.40276 -0.000128753 2.92804e-05)
(0 1.07159e-29 -5.50848e-20 450.595 3.78107e-17 -4.55935e-06 3.40319 0 -0.000120434)
(3.69674e-15 1.30309e-18 -5.55836e-20 450.178 -0.00267966 -0.00309494 3.45602 0.00106335 2.54601e-05)
(-1.47867e-14 -5.89476e-19 1.08591e-19 450.239 -3.68422e-20 8.87474e-07 3.45652 2.1684e-19 -0.000113728)
(-7.01459e-15 -2.14068e-19 -1.07034e-19 451.204 0.000104574 -0.00264453 3.51841 -0.000551348 2.16635e-05)
(7.01459e-15 3.188e-19 1.07034e-19 451.271 3.8144e-17 -5.60286e-06 3.51895 0 -0.000108682)
(-4.16302e-15 -4.22001e-19 1.44751e-21 452.871 -0.00266601 -0.00227486 3.58359 0.00119052 1.91935e-05)
(0 -1.73334e-33 -2.6375e-20 452.943 -4.50616e-17 -8.38797e-08 3.58417 2.92822e-34 -0.000103553)
(2.41233e-15 -1.65565e-19 1.18389e-19 454.583 0.000645616 -0.00203026 3.64891 -0.000967424 1.64591e-05)
(0 -4.81482e-35 -1.29985e-19 454.658 -7.21562e-36 0.000270569 3.64952 -5.7725e-35 -9.97947e-05)
(0 1.63996e-18 -3.84366e-20 456.212 -0.00306998 -0.00170277 3.71505 0.00158512 1.58361e-05)
(-1.85863e-14 -6.59318e-19 7.68732e-20 456.289 -5.49432e-20 5.13565e-06 3.71568 2.1684e-19 -9.44086e-05)
(-1.72596e-15 -1.21234e-18 -5.18268e-20 457.858 0.000900341 -0.00149724 3.78294 -0.0019349 1.16169e-05)
(6.62101e-15 0 6.31429e-20 457.935 3.64394e-32 0.000113472 3.78358 3.72938e-35 -9.29473e-05)
(-2.33481e-14 3.18658e-18 -8.30811e-20 459.552 -0.00356512 -0.00127888 3.85224 0.00233558 1.29101e-05)
(1.30522e-14 -9.62965e-35 6.22379e-20 459.629 -7.79898e-17 1.05168e-05 3.85288 -1.7981e-34 -8.78021e-05)
(2.9082e-14 1.96307e-18 1.18997e-19 461.203 0.00144405 -0.00103219 3.92178 -0.00279169 8.30316e-06)
(4.32443e-14 0 -8.58842e-20 461.278 8.32667e-17 -0.000293825 3.9224 -4.00618e-30 -8.76405e-05)
(0 -3.09589e-18 4.83733e-20 462.676 -0.00387215 -0.000963651 3.99046 0.00288112 9.10005e-06)
(2.26726e-14 0 -4.83733e-20 462.748 -9.34796e-17 6.44048e-06 3.99107 4.33681e-19 -8.46818e-05)
(5.93573e-15 -1.14432e-18 -2.51659e-20 463.922 0.00213763 -0.000840201 4.05844 -0.00304109 7.36581e-06)
(0 4.22249e-19 2.384e-20 463.991 1.05562e-19 2.35181e-06 4.05902 0 -8.35162e-05)
(-1.24152e-14 0 -8.79031e-21 465.126 -0.004368 -0.000733344 4.12869 0.0031366 7.20937e-06)
(-4.96603e-14 -4.35076e-18 -1.17491e-20 465.191 1.08769e-19 1.75374e-06 4.12924 0 -8.10268e-05)
(-6.48312e-15 -1.11175e-18 -5.67029e-20 466.826 0.00285001 -0.000641319 4.2079 -0.00330158 5.68715e-06)
(-2.59322e-14 2.29201e-18 3.47422e-20 466.886 1.03969e-16 -1.06263e-05 4.20841 -4.33681e-19 -8.03022e-05)
(-5.98463e-15 4.38327e-18 -1.02733e-19 469.853 -0.00501976 -0.000562837 4.30487 0.00339953 5.76533e-06)
(-2.10618e-14 -1.41469e-18 1.02733e-19 469.907 1.17891e-19 -1.66472e-06 4.30534 0 -7.82084e-05)
(0 2.16022e-18 9.00093e-20 475.018 0.00372402 -0.000492698 4.4268 -0.00356459 4.42158e-06)
(2.81736e-14 0 -9.00093e-20 475.067 -1.23726e-19 -1.30736e-05 4.42722 0 -7.7779e-05)
(-7.32994e-15 0 -9.92759e-21 482.741 -0.00583868 -0.000431634 4.57601 0.00366444 4.6357e-06)
(0 -1.92593e-34 -1.10899e-20 482.783 -1.09041e-16 -1.12342e-06 4.57639 0 -7.60005e-05)
(-7.62347e-15 -2.79833e-18 -6.47235e-20 492.845 0.00465825 -0.000453288 4.74903 -0.00382801 3.40416e-06)
(0 0 5.46548e-20 492.883 -1.32865e-19 0.000327242 4.74936 -4.33681e-19 -7.57884e-05)
(-7.92679e-15 3.44777e-18 -4.16588e-20 504.634 -0.00692282 -0.000318076 4.93797 0.00425482 5.18413e-06)
(-3.1707e-14 -2.36102e-18 2.15486e-20 504.667 -4.42692e-19 6.63314e-06 4.93826 0 -7.22897e-05)
(1.93781e-14 1.35934e-18 2.78352e-17 517.12 0.00566797 -0.000182785 5.13306 -0.00475035 8.8982e-07)
(-1.11357e-14 -3.85186e-33 -4.24795e-20 517.15 1.11022e-16 0.00103145 5.13333 -1.88647e-34 -7.42739e-05)
(8.57189e-15 -4.01958e-18 6.00857e-20 529.312 -0.00805328 -0.000206208 5.32521 0.00617703 9.05416e-06)
(0 -7.70372e-34 -5.23383e-20 529.338 0 2.13214e-05 5.32546 8.67362e-19 -6.47174e-05)
(-8.91599e-15 -2.64131e-18 0 540.455 0.00672661 -2.05998e-18 5.50839 -0.00770503 1.05867e-49)
(0 1.06951e-18 2.06353e-20 540.479 1.1129e-16 0.000423165 5.50862 0 -7.3284e-05)
(0 5.20691e-18 -4.0679e-20 550.261 -0.00903084 -9.76935e-05 5.68205 0.00951189 9.99423e-06)
(0 -1.31982e-18 5.08488e-20 550.282 -5.55112e-16 2.70808e-05 5.68226 1.73472e-18 -6.12502e-05)
(-9.6446e-15 0 2.47619e-18 559.106 0.00765494 1.96512e-18 5.85355 -0.01147 0)
(3.85783e-14 0 0 559.125 -7.96e-19 -0.000327038 5.85373 -3.46945e-18 -7.28223e-05)
(1.03603e-14 -1.26468e-17 6.91623e-20 568.139 -0.00977512 -4.61953e-06 6.03895 0.0129222 7.29774e-06)
(2.97398e-14 0 -6.91623e-20 568.155 -6.6703e-16 2.20054e-05 6.03909 1.50266e-29 -6.30248e-05)
(-1.00102e-14 -7.47933e-18 1.71801e-17 579.147 0.0084266 3.82688e-18 6.26045 -0.0145648 0)
(-2.12298e-14 8.086e-18 5.84323e-20 579.158 0 -0.000721364 6.26054 0 -7.28261e-05)
(1.0809e-14 -7.37213e-18 4.7264e-20 594.065 -0.0103612 6.5634e-05 6.53958 0.0152948 4.17425e-06)
(0 0 -3.83965e-20 594.072 -3.88578e-16 1.1351e-05 6.53962 1.02309e-33 -6.79142e-05)
(-1.12143e-14 2.42216e-18 4.37922e-18 614.28 0.00907268 -3.21947e-20 6.88886 -0.0162285 1.35525e-20)
(0 0 -2.83847e-20 614.282 4.12216e-16 -0.000313118 6.88886 6.72284e-34 -7.31929e-05)
(1.16344e-14 7.16232e-18 -2.79221e-20 640.036 -0.0109851 0.000118358 7.30643 0.0166562 3.06943e-06)
(2.69796e-14 -2.77334e-32 1.86519e-20 640.035 -4.16334e-16 6.70051e-06 7.3064 0 -7.05152e-05)
(0 4.70645e-18 5.10712e-18 670.316 0.00975727 1.81604e-18 7.7768 -0.0172881 0)
(4.83044e-14 0 -3.67691e-20 670.313 8.60423e-16 0.000166715 7.77677 -5.27651e-33 -7.38558e-05)
(-1.25464e-14 0 -9.11093e-21 703.18 -0.0116929 0.000166493 8.27601 0.017888 4.61264e-06)
(0 -3.85186e-34 -1.81211e-20 703.18 0 8.99392e-06 8.27603 3.46945e-18 -7.01074e-05)
(-1.30507e-14 0 0 736.444 0.0104846 -1.71057e-49 8.78045 -0.0186974 0)
(0 3.08149e-32 -1.78613e-20 736.449 4.48275e-16 0.00314631 8.78055 6.34562e-34 -7.48153e-05)
(0 -4.50697e-18 1.76053e-20 768.207 -0.0116465 0.000231357 9.27006 0.0223844 2.3651e-05)
(0 4.62223e-32 -1.76053e-20 768.221 -6.6924e-16 5.39597e-05 9.27028 1.25093e-33 -4.83834e-05)
(-3.23688e-14 4.44237e-18 1.18121e-17 796.629 0.0108699 -1.83784e-18 9.71998 -0.0263602 1.35525e-20)
(0 1.54074e-32 -2.60295e-20 796.656 2.22045e-16 -0.000749032 9.7204 -3.46945e-18 -7.62485e-05)
(-1.79352e-14 2.18935e-17 -6.84172e-20 818.934 -0.0107806 0.000352622 10.0849 0.0292208 2.05577e-05)
(-5.91863e-14 -2.02748e-17 6.84172e-20 818.978 -5.57139e-16 9.74376e-05 10.0855 0 -5.55222e-05)
(-1.54693e-14 2.58957e-17 8.87466e-18 830.086 0.00987831 0.000603375 10.2803 -0.0323869 3.70052e-06)
(6.18768e-14 0 -5.05774e-20 830.156 1.4388e-15 -0.00180069 10.2813 -1.22887e-29 -7.81025e-05)
(-1.74247e-14 2.55245e-17 -6.64701e-20 821.632 -0.00972448 0.000631595 10.1683 0.0331966 1.20796e-05)
(1.74247e-14 -1.54074e-33 6.64701e-20 821.735 -8.59814e-31 0.000199465 10.1699 6.93889e-18 -7.24557e-05)
(-3.41641e-14 -1.67724e-17 -4.28554e-20 781.251 0.00676641 0.000808034 9.55439 -0.0342696 8.29654e-06)
(8.51301e-14 -3.08149e-33 3.27587e-20 781.396 7.53419e-16 0.000888586 9.55653 0 -8.08913e-05)
(3.5677e-14 -2.06651e-17 6.22378e-20 693.876 -0.00930529 0.00118829 8.21158 0.0353613 2.22457e-05)
(7.13523e-14 -5.54668e-32 -4.84338e-20 694.073 -7.46947e-16 0.000351634 8.21447 1.11837e-32 -7.1819e-05)
(3.33724e-14 8.14755e-18 3.18264e-20 544.663 0.00229779 0.00146166 5.92796 -0.0367572 1.56961e-05)
(0 -5.23853e-32 -3.18264e-20 544.918 7.77156e-16 0.00113027 5.93171 -2.2614e-33 -8.64185e-05)
(-1.96022e-14 -8.03078e-18 2.59888e-20 323.358 -0.00778979 0.00192331 2.57424 0.038204 3.5159e-05)
(0 1.10934e-31 -3.13702e-20 323.677 -1.61247e-15 0.000362824 2.57891 4.45798e-33 -7.37733e-05)
(-6.18605e-13 -2.3747e-17 -5.15959e-20 0.463758 -0.00092648 0.00216378 0.00310159 -0.0400945 2.26356e-05)
(0 0 7.73015e-20 6.84481e-30 -1.93056e-33 0.000609856 -1.36896e-29 3.86112e-33 -9.69616e-05)
(1.14325e-12 0 -2.10153e-20 -269.28 -0.00261517 0.00239254 1.82711 0.0417607 4.24428e-05)
(0 0 0 -268.453 -2.89761e-18 0.00010466 1.82151 0 -8.39018e-05)
(-1.85417e-14 1.53808e-17 -1.2362e-20 -717.357 -0.00201943 0.00241331 7.06241 -0.0440105 2.38746e-05)
(7.41704e-14 0 -4.50609e-20 -716.853 8.87284e-16 -0.000580468 7.05589 6.59236e-33 -0.000112785)
(-1.68718e-14 1.51604e-17 -3.89966e-20 -1109.57 0.00463699 0.0021675 12.7312 0.0455658 3.67692e-05)
(-1.55242e-14 -6.18491e-32 0 -1109.02 -8.9134e-16 -0.000293727 12.7239 0 -0.000104237)
(-1.43549e-14 -2.98861e-17 -8.96183e-20 -1464.22 -0.00361448 0.00193063 18.3058 -0.0476961 1.78118e-05)
(-7.46193e-14 2.64776e-17 5.83713e-20 -1463.63 3.30971e-18 -0.00155629 18.2976 -6.93889e-18 -0.000130221)
(-4.01495e-14 -3.68222e-17 8.50204e-20 -1746.81 0.00962304 0.00133693 23.2288 0.0488385 2.0651e-05)
(1.00278e-13 0 -8.63021e-20 -1746.18 -9.12545e-16 -0.000530818 23.22 -6.93889e-18 -0.000128742)
(-3.03945e-14 -5.08123e-17 -1.98269e-19 -1933.49 -0.00785945 0.000993513 27.0265 -0.0504017 8.24243e-06)
(-4.05312e-14 1.39898e-17 1.41775e-19 -1932.84 1.92522e-15 -0.00130136 27.0171 0 -0.000143762)
(-2.24166e-14 -5.0084e-17 2.36957e-18 -2014.55 0.0110188 2.71051e-18 29.3949 0.0511257 0)
(4.57125e-14 1.57772e-30 -1.11795e-19 -2013.89 9.50784e-16 0.00143977 29.3852 6.93889e-18 -0.000145377)
(5.54934e-15 1.41046e-17 1.00614e-19 -1994.16 -0.012563 -7.85714e-05 30.2346 -0.0508721 4.62809e-06)
(0 0 -8.26442e-20 -1993.53 7.06017e-18 0.000367123 30.2249 -1.38778e-17 -0.000133936)
(-7.11806e-15 -5.56098e-17 1.97551e-20 -1887.42 0.0107943 -3.4455e-20 29.6395 0.051141 2.71051e-20)
(2.14255e-14 0 -1.35766e-19 -1886.85 8.88178e-16 0.00076406 29.6303 -6.93889e-18 -0.000142167)
(0 1.37032e-17 5.35281e-20 -1715.45 -0.0149682 -0.000368566 27.8447 -0.0507072 1.2433e-05)
(7.57574e-15 -6.16298e-33 -5.35281e-20 -1715.02 -9.4369e-16 0.000129556 27.8368 -6.75903e-33 -0.000125427)
(-6.91548e-15 6.7534e-18 -3.00927e-36 -1500.73 0.0106121 -5.42101e-20 25.1543 0.0507461 0)
(-1.37085e-15 1.2326e-32 5.27609e-20 -1500.49 2.77556e-17 5.856e-05 25.1488 -6.93889e-18 -0.000138524)
(0 -4.65963e-17 -1.30012e-19 -1263.47 -0.0147267 -0.000301706 17.9694 -0.0503932 1.23431e-05)
(0 1.46764e-14 1.30012e-19 -1263.5 -1.7486e-15 -4.37263e-06 17.9694 6.93889e-18 -0.000121968)
(0 0 4.81482e-34 -1019.72 0.0102887 -3.45049e-18 8.82432 0.050416 5.26071e-36)
(0 0 0 -1020.09 8.95175e-16 0.00289533 8.82427 0 -0.000136373)
(0 8.08395e-19 -2.52624e-20 -780.954 -0.011797 -0.0163976 1.52439 -0.00167127 -3.27177e-05)
(0 -5.04871e-29 0 -781.673 0 1.0842e-18 1.52435 -1.1114e-28 -6.77626e-21)
(0 7.96809e-19 0 -554.729 0.0104184 -0.000214187 -3.95407 0.00240536 2.78526e-06)
(0 0 0 -555.72 -4.12998e-17 -0.00382466 -3.95411 -4.33681e-19 -2.78516e-06)
(4.87469e-16 -1.61564e-16 0 -345.654 3.29597e-17 -0.000198332 -4.17264 0 -2.8196e-06)
(0 0 -9.40395e-38 -346.771 -0.079408 -4.64424e-20 -4.1921 -0.000930616 4.23516e-22)
(-6.99757e-13 9.67665e-19 -3.02395e-21 -134.809 0.00910983 -0.000196422 -1.15238 0.0017123 2.17263e-06)
(1.32617e-12 -4.44515e-15 0 -137.09 0 -0.000275172 -1.17187 0 -2.17253e-06)
(-1.43739e-15 -2.68187e-16 0 2.87478e-15 -1.34356e-18 -0.000173184 1.77636e-15 0 -2.21413e-06)
(6.09144e-13 3.81518e-19 -3.07284e-22 1.04396 -0.0569894 -1.38598e-20 -0.00905372 -0.00141128 0)
(0 -3.7605e-19 7.34473e-22 157.808 0.00781798 -0.000168807 -1.57672 0.00118642 1.47668e-06)
(0 1.54074e-33 -7.34473e-22 156.776 -1.40422e-17 -0.000253959 -1.55792 -9.0871e-34 -1.47657e-06)
(9.95363e-16 -1.12508e-16 0 282.115 -1.34625e-19 -0.000146603 -3.99472 -1.0842e-19 -1.51313e-06)
(-1.51823e-15 5.55991e-19 -2.10002e-22 281.188 -0.0369144 2.10002e-22 -3.97719 -0.000972083 2.11758e-22)
(0 4.56685e-19 0 385.276 0.00672529 -0.000140393 -4.53795 0.000820877 8.74092e-07)
(0 -1.72497e-15 0 384.501 -1.02947e-17 -0.000211183 -4.53793 1.0842e-19 -8.73989e-07)
(0 -2.84989e-16 0 468.54 -9.41041e-20 -0.000118407 -0.603093 -1.0842e-19 -9.02088e-07)
(9.21886e-17 9.00279e-20 -5.00815e-22 467.988 -0.0213563 -7.02667e-21 -0.603067 -0.000680137 1.05879e-22)
(7.26938e-16 -2.66213e-19 0 533.688 0.0058951 -0.000107925 4.07224 0.000586885 3.80297e-07)
(0 1.92593e-34 0 533.399 -1.81589e-18 -0.000163385 4.07227 1.0842e-19 -1.60929e-07)
(0 -7.79405e-17 0 582.852 6.93889e-18 -8.49478e-05 9.34823 0 -3.96809e-07)
(0 -5.24794e-19 0 582.799 -0.0101796 0 9.34827 -0.000504829 5.29396e-23)
(3.98353e-16 6.03485e-19 6.73532e-22 618.198 0.00521343 -7.57027e-05 12.229 0.000454175 3.08305e-08)
(1.59129e-15 -6.97352e-19 -4.75984e-22 618.324 6.19702e-18 -1.1172e-05 12.2329 0 7.32476e-07)
(0 -6.76014e-17 0 641.669 -6.07153e-18 -5.26571e-05 12.7594 5.42101e-20 -3.48374e-08)
(0 3.39906e-19 0 641.911 -0.00270672 3.62587e-05 12.765 -0.000411209 1.01053e-06)
(-2.01032e-15 -1.08886e-18 -1.63591e-21 654.809 0.00407016 -7.78927e-06 13.1101 0.000393848 -6.37268e-07)
(2.54858e-15 0 0 655.111 5.4368e-20 -3.11596e-21 13.1165 0 4.23516e-22)
(-8.30596e-15 -8.45693e-17 6.44985e-22 658.666 -4.82326e-18 7.03532e-05 13.2888 0 1.58727e-08)
(-1.15782e-14 -3.30232e-19 -1.07337e-21 658.984 -0.00122691 -5.02731e-06 13.2953 -0.000382463 4.66272e-07)
(3.81701e-15 -4.88249e-19 -6.35741e-22 653.785 0.00297705 8.52331e-05 13.2943 0.000361788 -2.00293e-08)
(1.52647e-14 9.62965e-35 1.23364e-21 654.092 0 9.95707e-06 13.3003 5.42101e-20 1.33768e-07)
(-4.76412e-15 -7.05341e-17 0 640.31 4.86312e-18 0.000109407 13.1182 0 1.30348e-08)
(1.90535e-14 -1.20313e-18 1.05928e-22 640.59 -0.00235664 9.92779e-06 13.1237 -0.000335958 2.76801e-07)
(-5.72573e-15 0 0 618.151 0.00248456 0.000128418 12.7496 0.00031977 -1.95144e-08)
(0 -1.15592e-16 0 618.398 3.85906e-18 8.26809e-05 12.7544 -5.42101e-20 1.88266e-07)
(-6.68985e-15 -3.0413e-17 0 587.192 3.94394e-18 0.000152143 12.1784 0 1.02877e-08)
(0 3.11703e-19 0 587.406 -0.0020945 0.000136046 12.1826 -0.000296328 -1.03253e-08)
(-7.64296e-15 -6.9128e-19 0 547.499 0.00204838 0.000164698 11.4008 0.000281154 -1.92335e-08)
(2.05023e-14 0 0 547.683 -3.87028e-20 0.000164987 11.4045 0 1.90377e-08)
(8.56979e-15 -7.99419e-17 0 499.533 -6.54141e-18 0.000174489 10.4236 0 7.59337e-09)
(0 5.29956e-19 0 499.692 -0.00186537 0.000174445 10.4269 -0.000263117 -7.61147e-09)
(0 -3.35803e-19 2.33197e-21 444.284 0.0017245 0.000169227 9.26726 0.000245598 -1.91576e-08)
(0 -8.66668e-34 0 444.423 3.06952e-18 0.000169495 9.27014 -2.71051e-20 1.89379e-08)
(-1.02774e-14 -2.20113e-17 0 383.298 3.22158e-20 0.000158159 7.9656 0 5.00931e-09)
(0 5.5165e-19 0 383.419 -0.0016197 0.000158129 7.96817 -0.000234511 -5.00118e-09)
(0 -1.34123e-18 0 318.615 0.00148789 0.000132115 6.56526 0.000213806 -1.91876e-08)
(8.81942e-14 0 0 318.721 2.60209e-18 0.000132357 6.56755 1.77315e-32 1.89372e-08)
(0 -1.70775e-17 -2.23313e-21 252.677 2.1684e-19 0.000103277 5.1237 -5.42101e-20 2.59749e-09)
(4.672e-14 1.0719e-19 0 252.77 -0.00132157 0.000103253 5.12571 -0.000209049 -2.55583e-09)
(-3.06974e-14 8.45231e-19 -2.20112e-21 188.112 0.00133788 6.62971e-05 3.7026 0.000187357 -1.92399e-08)
(-4.89314e-14 -1.10273e-16 0 188.193 -5.13039e-20 6.65107e-05 3.70437 2.71051e-20 1.89492e-08)
(-1.26759e-14 -1.30205e-17 3.81612e-19 127.483 -2.1684e-18 0 2.36333 0 -5.16988e-26)
(-5.0703e-14 -6.24837e-19 -1.52132e-18 127.552 -0.00105818 8.57445e-08 2.36483 -0.000185128 -3.2959e-10)
(0 5.4745e-19 0 73.0914 0.00122394 -8.15403e-07 1.16204 0.000165865 -1.92616e-08)
(0 -3.22319e-19 0 73.1484 1.90625e-18 -6.30468e-07 1.16329 0 1.89201e-08)
(3.39063e-13 -2.17081e-17 5.64035e-19 11.8101 1.73472e-18 -5.59389e-07 0.144834 0 -1.51381e-09)
(-6.23631e-13 -2.02352e-19 0 11.8907 -0.000869191 -1.82936e-23 0.145821 -0.000162174 -2.06795e-25)
(1.08604e-13 1.46264e-18 -4.15524e-21 -0.000326887 0.00109195 -4.55791e-05 4.06708e-06 0.000147896 -1.92511e-08)
(0 0 0 2.65175e-14 1.48714e-19 -4.54189e-05 1.42109e-14 2.71051e-20 1.88438e-08)
(0 -1.82168e-17 0 -36.8925 -1.40946e-18 -5.4535e-05 0.653787 0 -3.21556e-09)
(1.04982e-13 1.9004e-18 0 -36.8689 -0.000739115 -5.45567e-05 0.653061 -0.000140868 3.43414e-09)
(0 -4.84437e-19 2.01849e-21 -53.4125 0.000911028 -5.95052e-05 1.21299 0.000132253 -1.92576e-08)
(1.03688e-13 0 0 -53.3993 1.44538e-18 -5.9362e-05 1.21253 1.14059e-34 1.8767e-08)
(-2.56234e-14 3.37038e-34 0 -60.0188 1.33436e-18 -5.62497e-05 1.52533 3.49892e-35 -4.76752e-09)
(0 0 0 -60.0152 -0.000656425 -5.62619e-05 1.52512 -0.000122727 5.08251e-09)
(-1.26915e-14 0 0 -57.4418 0.000745129 -5.18376e-05 1.59435 0.000117932 -1.93736e-08)
(1.01532e-13 -4.33334e-34 0 -57.447 -1.19262e-18 -5.17016e-05 1.59437 -5.69005e-35 1.87751e-08)
(-3.60022e-15 -2.01654e-17 0 -46.6982 -1.05508e-18 -4.32381e-05 1.43316 -1.35525e-20 -6.28151e-09)
(1.62146e-14 5.56686e-19 0 -46.711 -0.00059489 -4.32331e-05 1.4334 -0.00010769 6.72073e-09)
(-1.25922e-14 -1.37177e-19 0 -28.9873 0.000621535 -3.59131e-05 1.06217 0.00010452 -1.97156e-08)
(0 -9.62965e-35 0 -29.0064 1.14223e-34 -3.57736e-05 1.06261 0 1.89794e-08)
(-1.2634e-14 0 0 0 0 -2.65108e-05 0.506971 -1.35525e-20 -7.89138e-09)
(5.05359e-14 -5.40843e-19 0 -0.00964994 -0.000526683 -2.64806e-05 0.507568 -9.49198e-05 8.48863e-09)
(-1.77197e-13 5.33091e-19 0 14.4881 0.00053884 -1.86507e-05 1.03201 9.23157e-05 -2.04172e-08)
(5.03012e-14 0 -1.85101e-21 14.4371 9.21572e-19 -1.84976e-05 1.03123 0 1.95035e-08)
(-2.50403e-14 -1.20371e-35 0 52.4059 0 -2.93771e-06 1.94454 -1.35525e-20 -9.73338e-09)
(0 -7.29792e-20 0 52.378 -0.000440064 -2.34132e-06 1.94374 -8.35169e-05 1.05328e-08)
(-1.25227e-14 6.76173e-19 0 84.1084 0.000461413 2.56286e-06 2.89827 8.19687e-05 -2.16121e-08)
(-1.50855e-14 -1.5316e-17 0 84.0811 -7.58942e-19 2.73817e-06 2.8975 0 2.04724e-08)
(1.48693e-14 -7.47366e-18 0 115.535 0 1.64805e-05 3.84804 0 -1.19343e-08)
(-5.03682e-14 5.38857e-19 0 115.51 -0.000365994 1.65812e-05 3.84736 -7.35144e-05 1.29903e-08)
(1.27345e-14 -5.45111e-19 0 145.091 0.000414 3.20575e-05 4.74505 7.32816e-05 -2.34186e-08)
(5.09382e-14 0 0 145.07 0 3.22603e-05 4.74449 1.35525e-20 2.19897e-08)
(1.29535e-14 -1.05127e-17 0 171.184 -5.42101e-19 5.0172e-05 5.53877 0 -1.45786e-08)
(-5.18144e-14 6.75067e-19 0 171.168 -0.00034894 5.03121e-05 5.53837 -6.41961e-05 1.59611e-08)
(-1.32489e-14 5.43177e-19 0 192.301 0.000337491 6.68935e-05 6.17974 6.46758e-05 -2.59076e-08)
(5.29957e-14 1.68519e-34 -3.39486e-21 192.291 -5.42101e-19 6.71246e-05 6.17952 6.77626e-21 2.41102e-08)
(0 -2.1706e-18 0 207.1 0 8.55552e-05 6.62221 -6.77626e-21 -1.76899e-08)
(-1.4035e-14 -3.41312e-19 0 207.095 -0.000290236 8.57311e-05 6.62218 -5.65512e-05 1.94866e-08)
(-4.15015e-14 5.34315e-19 -3.29824e-21 214.5 0.000275693 0.000102867 6.82812 5.74922e-05 -2.90782e-08)
(5.61888e-14 0 0 214.502 -9.08666e-35 0.000103121 6.82827 -2.27166e-35 2.68094e-08)
(1.4529e-14 -6.58112e-18 0 213.794 -3.79471e-19 0.000121448 6.77099 0 -2.11842e-08)
(0 4.0312e-19 0 213.802 -0.0002449 0.00012165 6.7713 -5.02995e-05 2.35081e-08)
(-1.34401e-14 4.03751e-19 0 204.737 0.000256691 0.000140556 6.43938 5.14429e-05 -3.28272e-08)
(-6.0179e-14 -7.31093e-18 -3.20437e-21 204.749 1.41087e-20 0.00014082 6.43984 6.77626e-21 2.99574e-08)
(-2.6495e-14 -1.46931e-18 -6.31689e-21 187.592 3.52366e-19 0.000163689 5.83865 -6.77626e-21 -2.48651e-08)
(0 1.32655e-19 0 187.608 -0.000189481 0.000163901 5.83923 -4.42039e-05 2.78591e-08)
(0 6.78673e-19 0 163.151 0.000258 0.000191549 4.9927 4.69617e-05 -3.69594e-08)
(0 -7.28026e-18 0 163.17 2.32832e-20 0.000191807 4.99337 6.77626e-21 3.33216e-08)
(1.65898e-14 -1.12974e-18 0 132.698 0 0.000227794 3.94249 0 -2.84331e-08)
(0 -1.08013e-18 0 132.719 -0.000137248 0.000227998 3.94321 -3.7649e-05 3.2278e-08)
(1.70298e-14 5.38375e-19 0 97.9165 0.000244727 0.000272344 2.74357 4.40656e-05 -4.12169e-08)
(0 -6.72238e-18 0 97.9379 -3.25261e-19 0.000272579 2.74431 6.77626e-21 3.66016e-08)
(-3.47962e-14 -3.00927e-36 0 60.7556 4.33681e-19 0.000327172 1.46154 -3.38813e-21 -3.1544e-08)
(6.95919e-14 0 0 60.7769 -0.000113698 0.00032735 1.46228 -3.11532e-05 3.64633e-08)
(9.14321e-14 0 0 9.42445 0.000180371 0.00038857 0.16581 4.18877e-05 -4.53582e-08)
(0 0 0 9.46409 -1.5007e-34 0.000388768 0.166507 0 3.9501e-08)
(2.93761e-13 -2.69373e-18 0 -0.0244989 -1.89735e-19 0.000455029 0.000437292 0 -3.38931e-08)
(-3.15544e-30 -4.05493e-19 -1.15855e-20 -9.92983e-13 -0.000137492 0.000455173 0 -2.65667e-05 4.01631e-08)
(0 5.42425e-19 0 -45.1657 7.14441e-05 0.000519026 1.07573 3.88249e-05 -4.92444e-08)
(0 -1.17096e-18 0 -45.1491 2.52856e-19 0.000519183 1.07509 0 4.18176e-08)
(-2.36051e-14 -2.60227e-18 -1.12558e-20 -73.0776 3.34144e-20 0.000573955 2.20403 -3.38813e-21 -3.5299e-08)
(-2.36051e-14 -4.05209e-19 0 -73.0636 -0.000221427 0.000574064 2.20347 -2.5665e-05 4.32599e-08)
(0 5.4363e-19 0 -95.526 -3.65641e-05 0.000611193 3.17339 3.26608e-05 -5.29054e-08)
(1.34607e-13 0 0 -95.5147 -1.76183e-19 0.000611313 3.17292 4.64654e-34 4.35016e-08)
(-3.2886e-14 0 0 -112.199 0 0.000622791 3.95446 -6.77626e-21 -3.57235e-08)
(6.57722e-14 0 0 -112.19 -0.000307947 0.000622872 3.95409 -2.86566e-05 4.58013e-08)
(1.60474e-14 -4.06897e-19 0 -123.285 -0.000131125 0.000599886 4.5367 2.3152e-05 -5.65333e-08)
(2.26046e-14 0 0 -123.279 0 0.000599979 4.53642 0 4.4652e-08)
(0 -4.03346e-18 0 -129.386 2.26015e-19 0.000539268 4.92726 0 -3.52269e-08)
(-6.26054e-14 -1.32803e-19 0 -129.382 -0.000319205 0.000539331 4.92707 -3.52715e-05 4.79606e-08)
(-3.72248e-14 -1.08418e-18 0 -131.398 -0.000112119 0.000440232 5.14804 1.30922e-05 -6.04129e-08)
(6.1054e-14 0 0 -131.396 9.43833e-22 0.00044031 5.14793 0 4.54416e-08)
(0 -2.4565e-18 0 -130.387 -2.71051e-19 0.000307144 5.23165 0 -3.38562e-08)
(-2.16466e-14 -3.40622e-19 0 -130.386 -0.000235547 0.000307199 5.2316 -4.12563e-05 4.99303e-08)
(2.13363e-14 -4.06958e-19 2.18936e-19 -127.463 1.17734e-06 0.00013149 5.21725 6.30869e-06 -6.48392e-08)
(0 -1.34127e-21 0 -127.463 -6.59883e-20 0.000131244 5.21724 -4.83245e-06 4.60338e-08)
(-1.41818e-14 1.60996e-34 0 -123.65 5.80864e-19 -9.38102e-06 5.14545 -6.77626e-21 -3.15636e-08)
(0 0 -1.00821e-37 -123.65 -5.92624e-05 -3.63247e-22 5.14547 -4.27517e-05 6.61744e-24)
(-2.76878e-14 -1.49254e-18 1.97688e-20 -119.794 0.000172779 -0.000197119 5.05328 6.88007e-06 -7.00613e-08)
(1.10751e-13 -8.37804e-22 0 -119.794 -5.42101e-20 -0.000197058 5.0533 -6.03701e-06 4.65137e-08)
(0 -5.20203e-21 0 -116.516 2.64754e-19 -0.000352429 4.97116 6.77626e-21 -2.81507e-08)
(0 -4.09195e-19 0 -116.515 0.00011422 -0.000352385 4.97116 -3.7075e-05 5.36902e-08)
(0 5.42275e-19 0 -114.19 0.000289988 -0.000479348 4.92092 1.51845e-05 -7.62761e-08)
(-2.01391e-14 -1.44742e-19 -1.92062e-20 -114.189 0 -0.000479298 4.92091 0 4.68731e-08)
(-3.8507e-14 1.08334e-34 1.89309e-20 -112.954 1.9433e-19 -0.00056879 4.91499 3.25107e-36 -2.32889e-08)
(1.02685e-13 1.62569e-18 0 -112.953 0.00019194 -0.000568756 4.91495 -2.61697e-05 5.53905e-08)
(0 -1.62572e-18 0 -112.737 0.000295639 -0.00061742 4.9563 2.75665e-05 -8.36667e-08)
(9.98883e-14 0 0 -112.735 1.68059e-19 -0.000617385 4.95623 1.69407e-21 4.70335e-08)
(-1.21248e-14 0 0 -113.309 1.15482e-19 -0.000626088 5.03959 7.20777e-37 -1.65656e-08)
(-1.92856e-14 -6.7821e-19 -1.83921e-20 -113.307 0.000152562 -0.000626069 5.0395 -1.46923e-05 5.67982e-08)
(1.17514e-14 -1.62704e-18 0 -114.337 0.000208158 -0.000600199 5.15333 3.90864e-05 -9.24657e-08)
(9.40115e-14 0 0 -114.334 2.71051e-20 -0.000600183 5.15322 3.38813e-21 4.69058e-08)
(0 -3.33946e-36 0 -115.438 6.01583e-21 -0.000547183 5.28167 0 -7.52973e-09)
(4.54686e-14 1.08427e-18 0 -115.435 5.13268e-05 -0.000547181 5.28155 -6.8682e-06 5.77891e-08)
(1.09746e-14 -5.41588e-19 0 -116.24 8.02381e-05 -0.000477588 5.40693 4.69373e-05 -1.03027e-07)
(0 0 0 -116.237 -1.28749e-19 -0.000477589 5.40681 -7.51604e-35 4.64547e-08)
(2.11549e-14 -2.21401e-19 0 -116.424 -2.6922e-19 -0.000399975 5.51229 0 4.28821e-09)
(2.41065e-14 -2.71253e-19 0 -116.422 -4.56536e-05 -0.000399988 5.51218 -4.82017e-06 5.82976e-08)
(0 4.08534e-19 0 -115.748 -5.88751e-06 -0.000322449 5.583 5.1246e-05 -1.15865e-07)
(0 0 0 -115.747 -1.16559e-20 -0.000322465 5.5829 3.38813e-21 4.5734e-08)
(0 -9.18111e-19 0 -114.072 -1.3393e-19 -0.000250626 5.60797 0 1.93797e-08)
(3.91507e-14 6.77675e-19 0 -114.071 -9.96769e-05 -0.00025065 5.60789 -6.87056e-06 5.83163e-08)
(1.00924e-14 -4.07297e-19 0 -111.362 -4.03095e-05 -0.000188475 5.58094 5.40681e-05 -1.3169e-07)
(8.71596e-15 4.81482e-35 0 -111.361 -1.0842e-19 -0.000112083 5.5809 5.65238e-35 4.48949e-08)
(4.42607e-16 -1.28685e-18 0 -107.679 -1.79872e-19 -0.000137229 5.50055 6.77626e-21 3.83049e-08)
(4.47256e-14 9.48602e-19 9.17932e-22 -107.679 -0.00010408 -9.11951e-07 5.50054 -1.06791e-05 3.19238e-07)
(0 -1.08415e-18 -4.03781e-21 -103.169 -3.55339e-05 -9.71562e-05 5.3699 5.80065e-05 -1.51387e-07)
(3.47166e-14 0 5.81321e-21 -103.17 -6.00842e-20 5.03016e-06 5.36992 -1.69407e-21 2.84482e-07)
(-8.34267e-15 -3.01525e-19 0 -98.0459 0 -6.43004e-05 5.19639 -6.77626e-21 6.17284e-08)
(-3.33707e-14 4.05954e-19 -2.41819e-21 -98.047 -8.46103e-05 4.95513e-06 5.19643 -1.43277e-05 2.30056e-07)
(-1.62518e-14 -9.80724e-22 -9.80724e-22 -92.5661 -1.5083e-05 -1.71616e-05 4.99094 6.45848e-05 -1.05032e-07)
(0 0 9.80724e-22 -92.5675 -6.77626e-20 4.83193e-06 4.991 3.77005e-35 2.79732e-07)
(-7.72523e-15 -1.76449e-19 0 -87.0072 -2.71051e-19 5.25692e-06 4.76667 0 8.35593e-07)
(-3.09009e-14 2.70667e-19 -2.1844e-21 -87.0087 -6.29365e-05 4.74854e-06 4.76676 -1.69561e-05 2.27811e-07)
(0 -4.06375e-19 0 -81.6509 2.79348e-06 6.20484e-06 4.53821 7.43263e-05 8.08464e-07)
(7.99277e-15 -9.62965e-35 1.90563e-21 -81.6524 5.03107e-21 4.57744e-06 4.5383 1.69407e-21 2.69223e-07)
(0 -1.85596e-19 0 -76.7689 3.38813e-21 6.04319e-06 4.32082 0 1.55826e-06)
(5.7379e-14 5.41893e-19 8.2727e-21 -76.7702 -4.53473e-05 4.49391e-06 4.3209 -1.86072e-05 2.25221e-07)
(-6.91234e-15 5.41995e-19 0 -72.6104 1.47499e-05 6.16296e-06 4.12976 8.64654e-05 1.3352e-06)
(2.76493e-14 7.52316e-37 3.25752e-21 -72.6111 0 4.27855e-06 4.12982 -7.68098e-37 2.5288e-07)
(0 0 3.64971e-21 -69.3935 -3.89635e-19 9.74624e-06 3.97952 -2.86362e-34 1.89231e-06)