/*--------------------------------*- C++ -*----------------------------------*\
| =========                 |                                                 |
| \\      /  F ield         | OpenFOAM: The Open Source CFD Toolbox           |
|  \\    /   O peration     | Version:  2012                                  |
|   \\  /    A nd           | Website:  www.openfoam.com                      |
|    \\/     M anipulation  |                                                 |
\*---------------------------------------------------------------------------*/
FoamFile
{
    version     2.0;
    format      ascii;
    class       volScalarField;
    location    "13000";
    object      k;
}
// * * * * * * * * * * * * * * * * * * * * * * * * * * * * * * * * * * * * * //

dimensions      [0 2 -2 0 0 0 0];


internalField   nonuniform List<scalar> 
2560
(
0.0198783
0.0198633
0.567162
0.566768
3.70629
3.70407
9.68627
9.68191
15.7468
15.7412
21.0392
21.0327
25.6918
25.6845
29.8861
29.8782
33.7485
33.74
37.3627
37.3537
40.7859
40.7764
44.0587
44.0486
47.2107
47.2002
50.2646
50.2537
53.2379
53.2265
56.1447
56.1329
58.9963
58.9841
61.8024
61.7898
64.571
64.5579
67.3089
67.2954
70.0219
70.008
72.7153
72.701
75.3933
75.3785
78.0599
78.0447
80.7187
80.7031
83.373
83.357
86.0257
86.0092
88.6796
88.6627
91.3373
91.3199
94.0012
93.9834
96.6737
96.6554
99.3569
99.3382
102.053
102.034
104.763
104.744
107.49
107.469
110.233
110.212
112.993
112.972
115.772
115.75
118.569
118.547
121.386
121.363
124.223
124.199
127.08
127.055
129.958
129.933
132.858
132.832
135.778
135.752
138.718
138.691
141.674
141.646
144.642
144.614
147.617
147.588
150.592
150.562
153.561
153.53
156.518
156.486
159.457
159.424
162.376
162.342
165.279
165.244
168.179
168.143
171.103
171.066
174.091
174.053
177.187
177.147
180.417
180.375
183.767
183.724
187.139
187.094
190.359
190.314
193.202
193.156
195.427
195.38
196.838
196.791
197.323
197.277
196.873
196.829
195.571
195.528
193.562
193.522
191.023
190.986
188.133
188.098
185.051
185.018
181.906
181.876
178.795
178.766
175.78
175.753
172.899
172.873
170.158
170.133
167.549
167.525
165.051
165.029
162.636
162.615
160.271
160.252
157.926
157.909
155.57
155.555
153.179
153.166
150.73
150.718
148.207
148.197
145.597
145.588
142.894
142.887
140.097
140.09
137.209
137.203
134.241
134.237
131.21
131.205
128.134
128.13
125.039
125.035
121.948
121.945
118.886
118.883
115.874
115.871
112.928
112.926
110.06
110.058
107.276
107.274
104.58
104.578
101.97
101.968
99.4456
99.4439
97.004
97.0025
94.6442
94.6428
92.3658
92.3644
90.169
90.1677
88.0546
88.0535
86.023
86.022
84.0737
84.0727
82.2037
82.2028
80.4083
80.4075
78.6801
78.6793
77.0096
77.009
75.3862
75.3856
73.7989
73.7984
72.2383
72.2379
70.6977
70.6974
69.1743
69.174
67.6698
67.6696
66.1902
66.19
64.7447
64.7446
63.3441
63.344
61.9984
61.9984
60.7159
60.7158
59.5015
59.5014
58.3551
58.355
57.2733
57.2732
56.2501
56.25
55.2783
55.2783
54.3509
54.3508
53.4618
53.4617
52.6066
52.6065
51.7828
51.7828
50.9893
50.9892
50.2259
50.2259
49.4932
49.4931
48.7915
48.7914
48.1212
48.1211
47.482
47.4819
46.8732
46.8731
46.2935
46.2933
45.741
45.7408
45.2137
45.2135
44.7093
44.7091
44.2257
44.2255
43.7611
43.7609
43.3143
43.314
42.8847
42.8844
42.4725
42.4722
42.0786
42.0783
41.7046
41.7042
41.3523
41.3519
41.024
41.0236
40.722
40.7215
40.4485
40.4479
40.2051
40.2045
39.9935
39.9927
39.8144
39.8136
39.6683
39.6674
39.5547
39.5537
39.4727
39.4715
39.4201
39.4189
39.3942
39.3928
39.3907
39.3892
39.4044
39.4028
39.4286
39.4268
39.4552
39.4533
39.4751
39.473
39.4783
39.4761
39.4547
39.4525
39.3949
39.3928
39.291
39.2892
39.138
39.1367
38.9348
38.9341
38.6843
38.6843
38.3935
38.3939
38.0735
38.0741
37.7386
37.7392
37.4048
37.4053
37.088
37.0884
36.8021
36.8023
36.5568
36.5569
36.3576
36.3575
36.204
36.2038
36.0888
36.0885
36.0012
36.0007
35.9268
35.9263
35.8504
35.8499
35.7569
35.7564
35.6329
35.6329
35.4691
35.4696
35.2594
35.2605
35.0013
35.0027
34.6952
34.6967
34.3453
34.3468
33.9581
33.9595
33.5416
33.5429
33.1049
33.106
32.657
32.658
32.2069
32.2077
31.7627
31.7635
31.3319
31.3326
30.9209
30.9214
30.5349
30.5353
30.1783
30.1787
29.8546
29.8548
29.5661
29.5662
29.3143
29.3144
29.0998
29.0999
28.9219
28.9219
28.7787
28.7786
28.6664
28.6662
28.5797
28.5795
28.5112
28.5108
28.4512
28.4508
28.3884
28.388
28.3102
28.3096
28.2033
28.2026
28.0549
28.0541
27.8543
27.8535
27.594
27.5931
27.2706
27.2698
26.8867
26.8861
26.4503
26.4501
25.973
25.9731
25.4689
25.4691
24.9535
24.9538
24.442
24.4422
23.9466
23.9468
23.4752
23.4752
23.0305
23.0305
22.611
22.6109
22.2113
22.2112
21.8247
21.8246
21.4445
21.4443
21.0659
21.0657
20.6865
20.6864
20.3076
20.3075
19.9321
19.9322
19.5643
19.5645
19.2083
19.2085
18.8681
18.8682
18.5466
18.5467
18.2456
18.2456
17.9657
17.9657
17.707
17.707
17.4691
17.4692
17.2519
17.2519
17.0549
17.0549
16.8779
16.8779
16.7207
16.7207
16.583
16.583
16.4641
16.4641
16.3633
16.3633
16.2796
16.2796
16.2118
16.2118
16.1587
16.1588
16.1194
16.1194
16.0929
16.0929
16.0787
16.0787
16.0763
16.0763
16.0859
16.0859
16.1076
16.1076
16.1418
16.1418
16.189
16.1891
16.2499
16.2499
16.3246
16.3246
16.4135
16.4135
16.5165
16.5165
16.6335
16.6335
16.7642
16.7642
16.9083
16.9083
17.0656
17.0656
17.2357
17.2357
17.4185
17.4185
17.6138
17.6138
17.8215
17.8215
18.0416
18.0416
18.2738
18.2738
18.5182
18.5182
18.7745
18.7745
19.0427
19.0427
19.3226
19.3226
19.6142
19.6142
19.9176
19.9176
20.2328
20.2328
20.5602
20.5602
20.9002
20.9002
21.2536
21.2536
21.6208
21.6208
22.0026
22.0026
22.3993
22.3993
22.8114
22.8114
23.239
23.239
23.6822
23.6822
24.1411
24.1411
24.6158
24.6158
25.1066
25.1066
25.6138
25.6138
26.1381
26.1381
26.6805
26.6805
27.242
27.242
27.8238
27.8238
28.4273
28.4273
29.0539
29.0539
29.7049
29.7049
30.3817
30.3817
31.0855
31.0855
31.8176
31.8176
32.5789
32.5789
33.3697
33.3697
34.1887
34.1887
35.031
35.031
35.8844
35.8844
36.72
36.72
37.4756
37.4757
38.0258
38.0259
37.9785
37.9785
0.0198633
0.0198783
0.566767
0.567162
3.70406
3.7063
9.6819
9.68627
15.7412
15.7468
21.0327
21.0392
25.6845
25.6918
29.8782
29.8861
33.74
33.7485
37.3537
37.3627
40.7764
40.7859
44.0486
44.0587
47.2002
47.2107
50.2536
50.2646
53.2265
53.2379
56.1329
56.1447
58.9841
58.9963
61.7897
61.8024
64.5579
64.571
67.2954
67.3089
70.008
70.0219
72.7009
72.7153
75.3785
75.3933
78.0447
78.0599
80.7031
80.7187
83.3569
83.373
86.0092
86.0257
88.6626
88.6796
91.3199
91.3373
93.9833
94.0012
96.6554
96.6737
99.3381
99.357
102.034
102.053
104.744
104.763
107.469
107.49
110.212
110.233
112.972
112.993
115.75
115.772
118.547
118.569
121.363
121.386
124.199
124.223
127.055
127.08
129.933
129.958
132.832
132.858
135.752
135.778
138.691
138.718
141.646
141.674
144.614
144.642
147.588
147.617
150.562
150.592
153.53
153.561
156.486
156.518
159.424
159.457
162.342
162.376
165.244
165.279
168.143
168.179
171.066
171.103
174.053
174.091
177.147
177.187
180.375
180.417
183.724
183.767
187.094
187.139
190.314
190.36
193.156
193.202
195.38
195.427
196.791
196.838
197.277
197.323
196.829
196.873
195.528
195.571
193.522
193.562
190.986
191.023
188.098
188.133
185.018
185.051
181.876
181.906
178.766
178.795
175.753
175.78
172.873
172.899
170.133
170.158
167.525
167.549
165.029
165.051
162.615
162.636
160.252
160.271
157.909
157.926
155.555
155.57
153.165
153.179
150.718
150.73
148.197
148.207
145.588
145.597
142.887
142.894
140.09
140.097
137.203
137.209
134.236
134.241
131.205
131.21
128.13
128.134
125.035
125.039
121.945
121.948
118.883
118.886
115.871
115.874
112.926
112.928
110.058
110.06
107.274
107.276
104.578
104.58
101.968
101.97
99.4438
99.4455
97.0024
97.004
94.6427
94.6442
92.3644
92.3657
90.1677
90.1689
88.0534
88.0545
86.0219
86.023
84.0726
84.0736
82.2028
82.2037
80.4074
80.4082
78.6793
78.68
77.0089
77.0095
75.3855
75.3861
73.7984
73.7988
72.2379
72.2383
70.6973
70.6976
69.1739
69.1742
67.6695
67.6697
66.19
66.1901
64.7445
64.7446
63.3439
63.344
61.9983
61.9984
60.7157
60.7158
59.5013
59.5014
58.3549
58.355
57.2731
57.2732
56.2499
56.25
55.2781
55.2782
54.3507
54.3508
53.4616
53.4616
52.6064
52.6065
51.7826
51.7827
50.9891
50.9891
50.2257
50.2258
49.4929
49.493
48.7913
48.7914
48.121
48.121
47.4818
47.4819
46.8729
46.8731
46.2932
46.2933
45.7407
45.7408
45.2133
45.2135
44.7089
44.7091
44.2253
44.2255
43.7607
43.7609
43.3139
43.3141
42.8842
42.8845
42.472
42.4723
42.0781
42.0785
41.704
41.7044
41.3517
41.3521
41.0234
41.0239
40.7213
40.7219
40.4476
40.4483
40.2042
40.2049
39.9925
39.9933
39.8134
39.8142
39.6671
39.6681
39.5535
39.5545
39.4713
39.4725
39.4186
39.4199
39.3925
39.394
39.389
39.3905
39.4025
39.4042
39.4266
39.4284
39.453
39.455
39.4728
39.4749
39.4759
39.4781
39.4523
39.4545
39.3926
39.3947
39.289
39.2909
39.1365
39.1379
38.934
38.9347
38.6841
38.6842
38.3938
38.3934
38.074
38.0734
37.7391
37.7385
37.4052
37.4046
37.0883
37.0878
36.8021
36.8018
36.5567
36.5566
36.3572
36.3573
36.2035
36.2037
36.0881
36.0885
36.0003
36.0008
35.9259
35.9264
35.8494
35.85
35.756
35.7564
35.6325
35.6325
35.4693
35.4687
35.2602
35.2591
35.0024
35.0009
34.6964
34.6949
34.3465
34.345
33.9593
33.9578
33.5427
33.5414
33.1058
33.1047
32.6578
32.6568
32.2076
32.2067
31.7633
31.7626
31.3324
31.3318
30.9213
30.9207
30.5351
30.5347
30.1785
30.1781
29.8546
29.8543
29.5659
29.5658
29.3141
29.314
29.0995
29.0994
28.9215
28.9215
28.7781
28.7782
28.6657
28.6659
28.5789
28.5792
28.5102
28.5106
28.4501
28.4506
28.3873
28.3879
28.309
28.3097
28.202
28.2028
28.0536
28.0545
27.853
27.854
27.5928
27.5938
27.2695
27.2705
26.8859
26.8867
26.45
26.4503
25.9732
25.9731
25.4692
25.469
24.9538
24.9536
24.4423
24.4421
23.9468
23.9466
23.4752
23.4751
23.0303
23.0304
22.6108
22.6108
22.211
22.2112
21.8243
21.8245
21.4441
21.4443
21.0655
21.0657
20.6862
20.6864
20.3074
20.3075
19.9322
19.9321
19.5645
19.5643
19.2085
19.2083
18.8683
18.8681
18.5467
18.5466
18.2457
18.2456
17.9657
17.9657
17.707
17.7069
17.4692
17.4691
17.2519
17.2518
17.0548
17.0548
16.8778
16.8778
16.7206
16.7206
16.5829
16.5829
16.464
16.464
16.3633
16.3632
16.2795
16.2795
16.2117
16.2117
16.1587
16.1587
16.1194
16.1194
16.0929
16.0929
16.0787
16.0787
16.0763
16.0763
16.0859
16.0859
16.1076
16.1076
16.1418
16.1418
16.1891
16.1891
16.2499
16.2499
16.3247
16.3247
16.4135
16.4135
16.5165
16.5165
16.6335
16.6335
16.7642
16.7642
16.9083
16.9083
17.0656
17.0656
17.2357
17.2357
17.4185
17.4185
17.6138
17.6138
17.8215
17.8215
18.0415
18.0415
18.2738
18.2738
18.5181
18.5181
18.7745
18.7745
19.0427
19.0427
19.3226
19.3226
19.6142
19.6142
19.9175
19.9176
20.2328
20.2328
20.5602
20.5602
20.9002
20.9002
21.2536
21.2536
21.6208
21.6208
22.0025
22.0025
22.3993
22.3993
22.8113
22.8113
23.2389
23.2389
23.6822
23.6822
24.1411
24.1411
24.6158
24.6158
25.1065
25.1065
25.6137
25.6137
26.1381
26.1381
26.6804
26.6805
27.2419
27.2419
27.8238
27.8238
28.4273
28.4273
29.0538
29.0538
29.7048
29.7048
30.3815
30.3815
31.0853
31.0853
31.8173
31.8173
32.5785
32.5785
33.3692
33.3692
34.1879
34.188
35.0301
35.0301
35.8832
35.8832
36.7186
36.7186
37.4742
37.4742
38.0244
38.0244
37.9773
37.9773
37.9786
37.9786
38.026
38.026
37.476
37.476
36.7204
36.7204
35.8848
35.8848
35.0315
35.0315
34.1892
34.1892
33.3703
33.3703
32.5796
32.5796
31.8182
31.8182
31.0861
31.0861
30.3822
30.3822
29.7054
29.7054
29.0544
29.0544
28.4279
28.4279
27.8244
27.8244
27.2426
27.2426
26.6811
26.6811
26.1387
26.1387
25.6144
25.6144
25.1072
25.1072
24.6165
24.6165
24.1418
24.1418
23.6829
23.6829
23.2397
23.2397
22.8121
22.8121
22.4
22.4
22.0033
22.0033
21.6215
21.6215
21.2543
21.2543
20.901
20.901
20.5609
20.5609
20.2335
20.2335
19.9183
19.9183
19.6149
19.6149
19.3232
19.3232
19.0432
19.0432
18.775
18.775
18.5186
18.5186
18.2742
18.2742
18.042
18.042
17.8219
17.8219
17.6141
17.6141
17.4188
17.4188
17.2359
17.2359
17.0658
17.0658
16.9085
16.9085
16.7643
16.7643
16.6336
16.6336
16.5165
16.5165
16.4135
16.4135
16.3246
16.3246
16.2498
16.2498
16.1889
16.1889
16.1416
16.1416
16.1073
16.1073
16.0855
16.0855
16.0759
16.0759
16.0782
16.0782
16.0924
16.0924
16.1188
16.1188
16.158
16.158
16.211
16.211
16.2787
16.2787
16.3624
16.3624
16.4632
16.4632
16.582
16.582
16.7196
16.7197
16.8768
16.8768
17.0537
17.0537
17.2507
17.2507
17.4679
17.4679
17.7056
17.7057
17.9643
17.9643
18.2441
18.2442
18.5451
18.5452
18.8665
18.8667
19.2067
19.2068
19.5627
19.5628
19.9305
19.9306
20.306
20.306
20.6851
20.6849
21.0645
21.0643
21.4433
21.4431
21.8236
21.8235
22.2104
22.2103
22.6101
22.6101
23.0297
23.0297
23.4745
23.4745
23.946
23.9462
24.4415
24.4417
24.9531
24.9534
25.4687
25.4689
25.973
25.9731
26.4505
26.4503
26.8872
26.8865
27.2711
27.2703
27.5945
27.5936
27.8548
27.8539
28.0553
28.0545
28.2037
28.203
28.3106
28.31
28.3889
28.3884
28.4516
28.4512
28.5115
28.5112
28.58
28.5798
28.6666
28.6665
28.7788
28.7787
28.922
28.922
29.0998
29.0999
29.3142
29.3144
29.5659
29.5661
29.8544
29.8546
30.178
30.1784
30.5345
30.535
30.9204
30.921
31.3314
31.3321
31.7621
31.7629
32.2061
32.207
32.6562
32.6572
33.104
33.1051
33.5407
33.542
33.9571
33.9585
34.3442
34.3458
34.694
34.6956
35
35.0015
35.2581
35.2593
35.4678
35.4683
35.6315
35.6315
35.7553
35.7549
35.8487
35.8481
35.925
35.9244
35.9993
35.9988
36.087
36.0866
36.2021
36.2019
36.3557
36.3557
36.555
36.5551
36.8002
36.8004
37.0861
37.0866
37.4029
37.4035
37.7367
37.7373
38.0716
38.0722
38.3916
38.3921
38.6824
38.6824
38.9331
38.9324
39.1364
39.135
39.2894
39.2875
39.3932
39.391
39.453
39.4507
39.4765
39.4743
39.4733
39.4712
39.4534
39.4514
39.4268
39.4249
39.4026
39.4008
39.3888
39.3872
39.3922
39.3908
39.4181
39.4168
39.4706
39.4694
39.5526
39.5515
39.666
39.665
39.8121
39.8112
39.991
39.9902
40.2026
40.2018
40.4458
40.4451
40.7192
40.7186
41.021
41.0205
41.3491
41.3487
41.7012
41.7008
42.0751
42.0747
42.4687
42.4684
42.8806
42.8803
43.3099
43.3097
43.7564
43.7562
44.2207
44.2205
44.704
44.7038
45.2081
45.2079
45.7351
45.735
46.2874
46.2872
46.8669
46.8667
47.4754
47.4753
48.1143
48.1142
48.7843
48.7843
49.4857
49.4857
50.2182
50.2181
50.9812
50.9811
51.7743
51.7742
52.5976
52.5975
53.4522
53.4522
54.3409
54.3408
55.2678
55.2677
56.2391
56.239
57.2618
57.2618
58.3432
58.3431
59.489
59.489
60.703
60.7029
61.985
61.985
63.3301
63.3301
64.7304
64.7303
66.1754
66.1753
67.6545
67.6543
69.1585
69.1583
70.6815
70.6812
72.2217
72.2214
73.7819
73.7815
75.3688
75.3683
76.9919
76.9913
78.6619
78.6612
80.3896
80.3889
82.1845
82.1837
84.0539
84.053
86.0026
86.0016
88.0336
88.0325
90.1474
90.1462
92.3436
92.3423
94.6214
94.62
96.9806
96.9791
99.4215
99.4198
101.945
101.944
104.554
104.553
107.25
107.248
110.033
110.031
112.901
112.898
115.846
115.843
118.857
118.854
121.918
121.915
125.008
125.005
128.103
128.099
131.178
131.173
134.209
134.204
137.177
137.171
140.064
140.058
142.861
142.854
145.563
145.555
148.172
148.162
150.694
150.683
153.142
153.129
155.533
155.517
157.887
157.869
160.231
160.211
162.594
162.573
165.008
164.985
167.505
167.48
170.112
170.087
172.852
172.825
175.733
175.705
178.746
178.716
181.856
181.824
184.999
184.966
188.08
188.044
190.97
190.931
193.508
193.466
195.517
195.473
196.821
196.775
197.272
197.225
196.789
196.74
195.379
195.33
193.155
193.107
190.313
190.265
187.093
187.046
183.723
183.678
180.374
180.331
177.145
177.103
174.049
174.009
171.061
171.022
168.138
168.1
165.239
165.202
162.337
162.302
159.419
159.385
156.482
156.449
153.527
153.494
150.558
150.527
147.584
147.554
144.611
144.581
141.644
141.615
138.689
138.661
135.75
135.723
132.83
132.804
129.931
129.906
127.054
127.029
124.198
124.173
121.362
121.338
118.546
118.523
115.749
115.727
112.971
112.949
110.211
110.19
107.469
107.448
104.743
104.723
102.033
102.013
99.3379
99.3183
96.6551
96.636
93.9831
93.9645
91.3197
91.3016
88.6626
88.645
86.0092
85.9921
83.357
83.3404
80.7033
80.6871
78.045
78.0292
75.3788
75.3635
72.7013
72.6864
70.0085
69.994
67.2958
67.2818
64.5584
64.5448
61.7904
61.7772
58.9848
58.9721
56.1336
56.1213
53.2274
53.2155
50.2546
50.2432
47.2012
47.1903
44.0498
44.0393
40.7776
40.7677
37.355
37.3456
33.7414
33.7326
29.8797
29.8715
25.6861
25.6785
21.0343
21.0275
15.7428
15.737
9.6834
9.67887
3.70495
3.70263
0.566936
0.566527
0.0198708
0.0198552
37.9773
37.9773
38.0245
38.0245
37.4746
37.4745
36.719
36.719
35.8836
35.8836
35.0306
35.0306
34.1885
34.1885
33.3698
33.3698
32.5792
32.5792
31.8179
31.8179
31.0858
31.0859
30.382
30.3821
29.7053
29.7053
29.0544
29.0544
28.4278
28.4278
27.8243
27.8244
27.2426
27.2426
26.6811
26.6811
26.1387
26.1387
25.6144
25.6144
25.1071
25.1072
24.6164
24.6164
24.1418
24.1418
23.6829
23.6829
23.2397
23.2397
22.812
22.8121
22.4
22.4
22.0032
22.0033
21.6215
21.6215
21.2543
21.2543
20.901
20.901
20.5609
20.5609
20.2335
20.2335
19.9183
19.9183
19.6149
19.6149
19.3232
19.3232
19.0432
19.0432
18.775
18.775
18.5186
18.5186
18.2742
18.2742
18.0419
18.0419
17.8219
17.8219
17.6141
17.6141
17.4188
17.4188
17.2359
17.2359
17.0658
17.0658
16.9085
16.9085
16.7643
16.7643
16.6336
16.6336
16.5166
16.5166
16.4135
16.4135
16.3246
16.3246
16.2498
16.2498
16.1889
16.1889
16.1416
16.1416
16.1073
16.1073
16.0855
16.0855
16.0759
16.0759
16.0782
16.0782
16.0924
16.0923
16.1187
16.1187
16.1579
16.1579
16.2109
16.2109
16.2786
16.2786
16.3623
16.3623
16.4631
16.4631
16.5819
16.5819
16.7196
16.7196
16.8768
16.8767
17.0537
17.0537
17.2507
17.2506
17.4679
17.4678
17.7057
17.7056
17.9643
17.9643
18.2442
18.2441
18.5452
18.5451
18.8667
18.8665
19.2068
19.2067
19.5628
19.5626
19.9305
19.9304
20.3059
20.3059
20.6848
20.685
21.0642
21.0644
21.4429
21.4432
21.8233
21.8235
22.2101
22.2102
22.6099
22.61
23.0296
23.0296
23.4745
23.4744
23.9462
23.946
24.4418
24.4416
24.9535
24.9532
25.469
25.4687
25.9732
25.9731
26.4503
26.4506
26.8864
26.8871
27.27
27.271
27.5932
27.5943
27.8535
27.8545
28.054
28.0549
28.2024
28.2032
28.3094
28.3101
28.3877
28.3883
28.4505
28.451
28.5106
28.511
28.5792
28.5795
28.6659
28.6661
28.7782
28.7783
28.9215
28.9216
29.0995
29.0994
29.314
29.3139
29.5658
29.5656
29.8544
29.8541
30.1782
30.1778
30.5348
30.5343
30.9208
30.9203
31.3319
31.3312
31.7627
31.7619
32.2069
32.206
32.6571
32.656
33.105
33.1038
33.5418
33.5405
33.9583
33.9568
34.3455
34.344
34.6953
34.6937
35.0012
34.9997
35.2589
35.2578
35.468
35.4674
35.6311
35.6312
35.7545
35.7549
35.8477
35.8484
35.924
35.9246
35.9984
35.9989
36.0863
36.0867
36.2016
36.2018
36.3554
36.3554
36.5548
36.5547
36.8002
36.8
37.0864
37.086
37.4033
37.4028
37.7372
37.7366
38.0721
38.0715
38.392
38.3915
38.6823
38.6823
38.9323
38.933
39.1348
39.1363
39.2873
39.2893
39.3908
39.3931
39.4505
39.4528
39.4741
39.4764
39.471
39.4732
39.4512
39.4533
39.4247
39.4266
39.4006
39.4024
39.387
39.3887
39.3905
39.392
39.4166
39.4179
39.4692
39.4704
39.5513
39.5524
39.6649
39.6659
39.811
39.8119
39.99
39.9909
40.2017
40.2024
40.4449
40.4456
40.7184
40.719
41.0203
41.0209
41.3485
41.349
41.7006
41.7011
42.0745
42.0749
42.4682
42.4685
42.8802
42.8805
43.3095
43.3098
43.756
43.7563
44.2203
44.2206
44.7037
44.7039
45.2078
45.2079
45.7348
45.735
46.2871
46.2872
46.8666
46.8667
47.4751
47.4752
48.114
48.1141
48.7841
48.7842
49.4855
49.4856
50.218
50.2181
50.981
50.9811
51.7741
51.7742
52.5974
52.5975
53.4521
53.4521
54.3407
54.3408
55.2676
55.2677
56.2389
56.239
57.2617
57.2617
58.343
58.3431
59.4889
59.489
60.7028
60.7029
61.9849
61.985
63.33
63.3301
64.7302
64.7303
66.1752
66.1754
67.6542
67.6544
69.1582
69.1585
70.6812
70.6815
72.2213
72.2217
73.7814
73.7819
75.3682
75.3688
76.9912
76.9918
78.6611
78.6619
80.3888
80.3896
82.1836
82.1845
84.0529
84.0539
86.0015
86.0026
88.0324
88.0336
90.1461
90.1474
92.3422
92.3436
94.6199
94.6214
96.979
96.9806
99.4197
99.4215
101.944
101.945
104.552
104.554
107.248
107.25
110.031
110.033
112.898
112.901
115.843
115.846
118.854
118.857
121.915
121.918
125.005
125.008
128.099
128.103
131.173
131.178
134.204
134.209
137.171
137.177
140.058
140.064
142.854
142.861
145.555
145.563
148.162
148.172
150.682
150.694
153.128
153.142
155.517
155.533
157.869
157.887
160.211
160.231
162.573
162.595
164.985
165.009
167.48
167.505
170.086
170.113
172.825
172.853
175.704
175.733
178.716
178.746
181.824
181.856
184.966
184.999
188.044
188.081
190.931
190.97
193.466
193.508
195.473
195.518
196.775
196.821
197.225
197.273
196.74
196.789
195.33
195.379
193.106
193.155
190.265
190.313
187.046
187.093
183.678
183.723
180.331
180.374
177.103
177.145
174.009
174.049
171.022
171.061
168.1
168.138
165.202
165.239
162.302
162.337
159.385
159.42
156.449
156.482
153.494
153.527
150.527
150.559
147.554
147.585
144.581
144.611
141.615
141.644
138.661
138.689
135.723
135.75
132.804
132.831
129.906
129.932
127.029
127.054
124.173
124.198
121.338
121.362
118.523
118.546
115.727
115.75
112.949
112.971
110.19
110.211
107.448
107.469
104.723
104.743
102.013
102.034
99.3183
99.338
96.6361
96.6552
93.9646
93.9832
91.3017
91.3198
88.645
88.6627
85.9921
86.0094
83.3404
83.3572
80.6871
80.7034
78.0292
78.0451
75.3635
75.379
72.6864
72.7014
69.994
70.0086
67.2818
67.296
64.5449
64.5585
61.7772
61.7905
58.9721
58.9849
56.1213
56.1337
53.2155
53.2275
50.2432
50.2547
47.1903
47.2013
44.0393
44.0498
40.7677
40.7777
37.3456
37.355
33.7326
33.7415
29.8715
29.8798
25.6785
25.6861
21.0275
21.0343
15.737
15.7429
9.67887
9.68343
3.70263
3.70496
0.566527
0.566938
0.0198552
0.0198709
)
;

boundaryField
{
    walls
    {
        type            kqRWallFunction;
        value           nonuniform List<scalar> 8(0.0198783 0.0198633 0.0198633 0.0198783 0.0198708 0.0198552 0.0198552 0.0198709);
    }
    inlet
    {
        type            cyclic;
    }
    outlet
    {
        type            cyclic;
    }
    sides
    {
        type            empty;
    }
}


// ************************************************************************* //
