/*--------------------------------*- C++ -*----------------------------------*\
| =========                 |                                                 |
| \\      /  F ield         | OpenFOAM: The Open Source CFD Toolbox           |
|  \\    /   O peration     | Version:  2012                                  |
|   \\  /    A nd           | Website:  www.openfoam.com                      |
|    \\/     M anipulation  |                                                 |
\*---------------------------------------------------------------------------*/
FoamFile
{
    version     2.0;
    format      ascii;
    class       volScalarField;
    location    "13000";
    object      p;
}
// * * * * * * * * * * * * * * * * * * * * * * * * * * * * * * * * * * * * * //

dimensions      [0 2 -2 0 0 0 0];


internalField   nonuniform List<scalar> 
2560
(
-5.91453e-08
-1.18991
-3.70951e-05
-1.18994
-3.93288e-05
-1.18995
-3.07729e-05
-1.18995
-2.81078e-05
-1.18995
-2.73771e-05
-1.18995
-2.66623e-05
-1.18995
-2.66082e-05
-1.18995
-2.58875e-05
-1.18995
-2.58767e-05
-1.18996
-2.49103e-05
-1.18996
-2.49088e-05
-1.18996
-2.7392e-05
-1.18996
-3.89679e-05
-1.18924
-9.04453e-05
-1.19007
-0.000175256
-1.18811
-0.000362291
-1.19063
-0.00056958
-1.19064
-0.000831529
-1.19151
-0.0010611
-1.19153
-0.00134687
-1.19248
-0.00157695
-1.1925
-0.00187025
-1.19349
-0.00209407
-1.1903
-0.00246974
-1.19476
-0.00283288
-1.19032
-0.00345907
-1.19672
-0.00405062
-1.19677
-0.00491454
-1.19925
-0.00561767
-1.19937
-0.00657425
-1.20204
-0.00722277
-1.20216
-0.00814258
-1.2048
-0.00862383
-1.20485
-0.00949063
-1.20737
-0.00986886
-1.20127
-0.0108891
-1.21024
-0.0114206
-1.18429
-0.0128925
-1.21458
-0.0138137
-1.1808
-0.0158907
-1.22104
-0.0172474
-1.19527
-0.0198531
-1.22933
-0.0214858
-1.22034
-0.0244061
-1.23857
-0.0261124
-1.2371
-0.0292147
-1.24822
-0.0309309
-1.24302
-0.0342866
-1.25839
-0.036196
-1.17693
-0.0401468
-1.2716
-0.0431845
-1.21357
-0.0495502
-1.28977
-0.0572994
-1.2912
-0.0714622
-1.32054
-0.0913413
-1.32683
-0.121472
-1.37988
-0.160655
-1.39488
-0.209932
-1.47836
-0.265312
-1.50204
-0.322629
-1.60185
-0.37623
-1.62695
-0.419397
-1.71
-0.449602
-1.72559
-0.462112
-1.76428
-0.460807
-1.76259
-0.443994
-1.72244
-0.420149
-1.71118
-0.388105
-1.65128
-0.356847
-1.6377
-0.323487
-1.57849
-0.295226
-1.56636
-0.26751
-0.263728
-0.245683
-0.250671
-0.224861
-0.221214
-0.209207
-0.212037
-0.194325
-0.190734
-0.183759
-0.184339
-0.173708
-0.170127
-0.167213
-0.165974
-0.160971
-0.157378
-0.157592
-0.154965
-0.154139
-0.15053
-0.152888
-0.149353
-0.151303
-0.147685
-0.15148
-0.147334
-0.151427
-0.147659
-0.152779
-0.148976
-0.1543
-0.15054
-0.157417
-0.15363
-0.161162
-0.157415
-0.166794
-0.163026
-0.17345
-0.169718
-0.182101
-0.178355
-0.191844
-0.188132
-0.203315
-0.199594
-0.215532
-0.211843
-0.228837
-0.225144
-0.242254
-0.238591
-0.255992
-0.252329
-0.269202
-0.265567
-0.282116
-0.278484
-0.294099
-0.290493
-0.305473
-0.301872
-0.315829
-0.312253
-0.325552
-0.321983
-0.334383
-0.330837
-0.342712
-0.339174
-0.350348
-0.346833
-0.357644
-0.354139
-0.364442
-0.360959
-0.371051
-0.367579
-0.377358
-0.373908
-0.38365
-0.380213
-0.389862
-0.386448
-0.396289
-0.39289
-0.402894
-0.399519
-0.409936
-0.406579
-0.417396
-0.414064
-0.425497
-0.422185
-0.43423
-0.430944
-0.443809
-0.440546
-0.454273
-0.451037
-0.465883
-0.462672
-0.478777
-0.475595
-0.493305
-0.490149
-0.509717
-0.506591
-0.528423
-0.525325
-0.549712
-0.546644
-0.573934
-0.570894
-0.601244
-0.598234
-0.631756
-0.628774
-0.665305
-0.662353
-0.701594
-0.69867
-0.740026
-0.737132
-0.779884
-0.777017
-0.820221
-0.817383
-0.860073
-0.857261
-0.898409
-0.895626
-0.934347
-0.93159
-0.967111
-0.964381
-0.996193
-0.99349
-1.02128
-1.01861
-1.04235
-1.0397
-1.05953
-1.05691
-1.07318
-1.07058
-1.08372
-1.08114
-1.09164
-1.08909
-1.09745
-1.09492
-1.10159
-1.09909
-1.10448
-1.102
-1.10646
-1.104
-1.10778
-1.10534
-1.10865
-1.10623
-1.10921
-1.10681
-1.10957
-1.10719
-1.10979
-1.10744
-1.10993
-1.10759
-1.11
-1.10768
-1.11004
-1.10774
-1.11004
-1.10775
-1.11001
-1.10774
-1.10996
-1.10771
-1.1099
-1.10767
-1.10983
-1.10761
-1.10975
-1.10755
-1.10966
-1.10748
-1.10957
-1.1074
-1.10948
-1.10732
-1.10939
-1.10723
-1.10929
-1.10715
-1.10921
-1.10708
-1.10913
-1.107
-1.10906
-1.10693
-1.10899
-1.10687
-1.10894
-1.10682
-1.10889
-1.10678
-1.10886
-1.10674
-1.10882
-1.10671
-1.10879
-1.10669
-1.10877
-1.10668
-1.10875
-1.10667
-1.10873
-1.10666
-1.10872
-1.10666
-1.1087
-1.10665
-1.10869
-1.10665
-1.10867
-1.10664
-1.10865
-1.10663
-1.10862
-1.10661
-1.10858
-1.10658
-1.10852
-1.10653
-1.10845
-1.10645
-1.10834
-1.10635
-1.10819
-1.1062
-1.10799
-1.106
-1.10772
-1.10574
-1.10736
-1.10539
-1.1069
-1.10494
-1.10631
-1.10436
-1.10556
-1.10363
-1.10463
-1.10272
-1.1035
-1.10161
-1.10213
-1.10026
-1.1005
-1.09866
-1.09859
-1.09678
-1.09639
-1.0946
-1.09387
-1.09211
-1.09105
-1.08932
-1.08792
-1.08622
-1.08451
-1.08284
-1.08083
-1.07919
-1.0769
-1.07529
-1.07276
-1.07118
-1.06843
-1.06689
-1.06395
-1.06243
-1.05933
-1.05784
-1.05459
-1.05313
-1.04973
-1.0483
-1.04475
-1.04335
-1.03966
-1.03827
-1.03443
-1.03306
-1.02905
-1.02769
-1.02351
-1.02216
-1.0178
-1.01646
-1.01192
-1.01059
-1.00587
-1.00455
-0.999678
-0.998352
-0.993351
-0.992031
-0.986924
-0.985613
-0.980424
-0.979124
-0.973891
-0.972602
-0.967347
-0.966072
-0.960828
-0.959567
-0.95435
-0.953101
-0.947929
-0.946692
-0.941569
-0.940343
-0.935274
-0.934057
-0.929038
-0.927826
-0.922855
-0.921648
-0.916711
-0.915506
-0.910604
-0.909399
-0.904512
-0.90331
-0.898438
-0.89724
-0.892368
-0.891175
-0.886307
-0.88512
-0.880238
-0.879058
-0.874173
-0.873001
-0.868093
-0.866927
-0.862009
-0.860851
-0.855897
-0.854746
-0.849769
-0.848625
-0.843593
-0.842455
-0.837385
-0.836255
-0.831107
-0.829983
-0.824781
-0.823666
-0.818363
-0.817255
-0.811888
-0.81079
-0.805304
-0.804214
-0.79866
-0.797584
-0.791894
-0.790826
-0.785071
-0.784022
-0.778119
-0.777079
-0.771116
-0.770099
-0.763978
-0.762971
-0.756799
-0.75582
-0.749479
-0.748511
-0.742138
-0.741202
-0.734651
-0.733726
-0.727169
-0.726282
-0.719542
-0.718663
-0.711957
-0.711122
-0.70423
-0.703399
-0.696586
-0.695805
-0.6888
-0.688015
-0.681142
-0.680415
-0.67333
-0.672592
-0.665688
-0.665017
-0.657866
-0.657174
-0.650248
-0.649633
-0.642405
-0.641756
-0.634799
-0.634241
-0.62691
-0.626303
-0.619298
-0.618798
-0.611343
-0.610775
-0.603724
-0.603282
-0.59571
-0.595177
-0.588121
-0.587736
-0.580094
-0.579592
-0.572612
-0.572285
-0.564654
-0.564179
-0.557388
-0.557118
-0.549598
-0.549145
-0.542657
-0.542447
-0.535122
-0.534689
-0.528596
-0.528451
-0.521379
-0.520962
-0.515323
-0.515251
-0.508443
-0.508042
-0.502873
-0.502887
-0.496319
-0.495932
-0.491218
-0.491335
-0.484951
-0.484576
-0.480278
-0.48052
-0.474248
-0.473878
-0.469947
-0.47034
-0.464097
-0.463725
-0.460112
-0.460701
-0.454406
-0.454036
-0.450697
-0.45153
-0.445133
-0.444711
-0.441716
-0.442455
-0.436414
-0.430906
-0.433414
-0.428939
-0.428655
-0.423031
-0.426237
-0.421343
-0.422343
-0.416493
-0.420721
-0.415229
-0.418087
-0.411871
-0.417397
-0.41119
-0.416461
-0.40961
-1.19294
-0.000343685
-1.19297
-0.000380789
-1.19298
-0.000383085
-1.19298
-0.00037486
-1.19298
-0.000372862
-1.19298
-0.000372509
-1.19298
-0.000371806
-1.19298
-0.000371435
-1.19298
-0.000370592
-1.19298
-0.000370415
-1.19298
-0.000369404
-1.19299
-0.000369346
-1.19298
-0.000371842
-1.19227
-0.00038342
-1.1931
-0.000434532
-1.19114
-0.000519545
-1.19366
-0.000706389
-1.19367
-0.00091379
-1.19454
-0.00117561
-1.19456
-0.00140523
-1.19551
-0.00169091
-1.19552
-0.00192103
-1.19652
-0.00221429
-1.19333
-0.00243812
-1.19779
-0.00281376
-1.19335
-0.00317692
-1.19975
-0.00380309
-1.1998
-0.00439467
-1.20228
-0.00525858
-1.2024
-0.00596173
-1.20507
-0.00691832
-1.20519
-0.00756686
-1.20783
-0.00848667
-1.20788
-0.00896795
-1.2104
-0.00983476
-1.2043
-0.010213
-1.21327
-0.0112333
-1.18732
-0.0117648
-1.21761
-0.0132367
-1.18383
-0.014158
-1.22407
-0.016235
-1.1983
-0.0175917
-1.23236
-0.0201974
-1.22337
-0.0218301
-1.2416
-0.0247505
-1.24013
-0.0264568
-1.25125
-0.0295591
-1.24605
-0.0312754
-1.26142
-0.0346311
-1.17996
-0.0365405
-1.27463
-0.0404914
-1.2166
-0.0435291
-1.2928
-0.0498948
-1.29423
-0.057644
-1.32357
-0.0718069
-1.32986
-0.091686
-1.38291
-0.121817
-1.3979
-0.161
-1.48139
-0.210276
-1.50507
-0.265657
-1.60488
-0.322974
-1.62998
-0.376575
-1.71303
-0.419742
-1.72862
-0.449947
-1.76731
-0.462457
-1.76562
-0.461152
-1.72547
-0.444339
-1.71421
-0.420494
-1.65431
-0.38845
-1.64072
-0.357192
-1.58152
-0.323832
-1.56939
-0.295571
-0.266757
-0.267855
-0.2537
-0.246029
-0.224243
-0.225206
-0.215066
-0.209552
-0.193762
-0.194671
-0.187367
-0.184104
-0.173155
-0.174054
-0.169003
-0.167558
-0.160406
-0.161317
-0.157994
-0.157937
-0.153559
-0.154485
-0.152381
-0.153233
-0.150714
-0.151648
-0.150363
-0.151826
-0.150688
-0.151772
-0.152005
-0.153124
-0.153569
-0.154645
-0.156658
-0.157763
-0.160444
-0.161508
-0.166054
-0.16714
-0.172747
-0.173795
-0.181383
-0.182446
-0.19116
-0.192189
-0.202622
-0.20366
-0.214872
-0.215877
-0.228173
-0.229183
-0.24162
-0.2426
-0.255357
-0.256338
-0.268596
-0.269548
-0.281512
-0.282462
-0.293522
-0.294444
-0.304901
-0.305819
-0.315282
-0.316175
-0.325011
-0.325898
-0.333866
-0.334729
-0.342202
-0.343057
-0.349862
-0.350694
-0.357167
-0.35799
-0.363988
-0.364788
-0.370607
-0.371397
-0.376937
-0.377704
-0.383242
-0.383996
-0.389477
-0.390208
-0.395918
-0.396634
-0.402549
-0.40324
-0.409607
-0.410282
-0.417093
-0.417742
-0.425213
-0.425843
-0.433974
-0.434576
-0.443574
-0.444155
-0.454067
-0.454619
-0.4657
-0.466228
-0.478625
-0.479123
-0.493177
-0.49365
-0.509622
-0.510063
-0.528352
-0.528768
-0.549675
-0.550058
-0.573921
-0.574279
-0.601266
-0.60159
-0.631801
-0.6321
-0.665386
-0.665651
-0.701696
-0.701938
-0.740165
-0.740372
-0.780043
-0.780228
-0.820417
-0.820567
-0.860286
-0.860416
-0.898661
-0.898755
-0.934614
-0.93469
-0.967418
-0.967457
-0.996513
-0.996537
-1.02164
-1.02163
-1.04272
-1.04269
-1.05995
-1.05988
-1.0736
-1.07352
-1.08418
-1.08406
-1.09211
-1.09199
-1.09796
-1.09779
-1.1021
-1.10194
-1.10505
-1.10483
-1.10701
-1.1068
-1.10839
-1.10813
-1.10924
-1.10899
-1.10987
-1.10956
-1.1102
-1.10991
-1.1105
-1.11014
-1.1106
-1.11027
-1.11075
-1.11035
-1.11079
-1.11038
-1.11083
-1.11038
-1.11082
-1.11035
-1.11077
-1.1103
-1.11075
-1.11025
-1.11065
-1.11017
-1.11062
-1.1101
-1.1105
-1.11001
-1.11046
-1.10992
-1.11034
-1.10982
-1.1103
-1.10973
-1.11018
-1.10964
-1.11013
-1.10955
-1.11003
-1.10947
-1.10999
-1.1094
-1.1099
-1.10934
-1.10987
-1.10928
-1.10981
-1.10924
-1.10979
-1.1092
-1.10975
-1.10916
-1.10974
-1.10914
-1.10971
-1.10911
-1.10971
-1.10909
-1.1097
-1.10908
-1.1097
-1.10906
-1.10969
-1.10905
-1.10969
-1.10903
-1.10967
-1.10901
-1.10967
-1.10899
-1.10963
-1.10896
-1.10961
-1.10892
-1.10953
-1.10887
-1.10948
-1.10879
-1.10935
-1.10868
-1.10923
-1.10853
-1.109
-1.10833
-1.10877
-1.10806
-1.10839
-1.1077
-1.10796
-1.10724
-1.10736
-1.10665
-1.10665
-1.1059
-1.10573
-1.10497
-1.10463
-1.10384
-1.10327
-1.10247
-1.10168
-1.10084
-1.09979
-1.09893
-1.09762
-1.09672
-1.09513
-1.09421
-1.09234
-1.09138
-1.08924
-1.08826
-1.08586
-1.08484
-1.08221
-1.08116
-1.07831
-1.07723
-1.07421
-1.0731
-1.06991
-1.06876
-1.06546
-1.06428
-1.06087
-1.05965
-1.05616
-1.05492
-1.05132
-1.05005
-1.04638
-1.04509
-1.04129
-1.03998
-1.03609
-1.03476
-1.03072
-1.02936
-1.0252
-1.02384
-1.01948
-1.01811
-1.01363
-1.01225
-1.00757
-1.00619
-1.00139
-1.00001
-0.99505
-0.99366
-0.988658
-0.987262
-0.982141
-0.980731
-0.975651
-0.974229
-0.969089
-0.967651
-0.962619
-0.961168
-0.956116
-0.954649
-0.949749
-0.94827
-0.943356
-0.941864
-0.937117
-0.935617
-0.930838
-0.929329
-0.924712
-0.923199
-0.918515
-0.916999
-0.912467
-0.910952
-0.906315
-0.904796
-0.900312
-0.89879
-0.894177
-0.892647
-0.888197
-0.886661
-0.882057
-0.880512
-0.876084
-0.874532
-0.869922
-0.868361
-0.86394
-0.862371
-0.857737
-0.856159
-0.851721
-0.850135
-0.845442
-0.843847
-0.839358
-0.837755
-0.832965
-0.831354
-0.826777
-0.825156
-0.820232
-0.818601
-0.81391
-0.812268
-0.807186
-0.805533
-0.800713
-0.799045
-0.793795
-0.792111
-0.787163
-0.785461
-0.780044
-0.778324
-0.773253
-0.771509
-0.765933
-0.764168
-0.758988
-0.757195
-0.751471
-0.749652
-0.744387
-0.742535
-0.736685
-0.734806
-0.729484
-0.727568
-0.721623
-0.719678
-0.714343
-0.712356
-0.70636
-0.704344
-0.699045
-0.696985
-0.69098
-0.688891
-0.683675
-0.681539
-0.675561
-0.673398
-0.668297
-0.666083
-0.660149
-0.65791
-0.652932
-0.650641
-0.644738
-0.642424
-0.637559
-0.635188
-0.629294
-0.626904
-0.622133
-0.619683
-0.613778
-0.611313
-0.606633
-0.604104
-0.598194
-0.595657
-0.5911
-0.588494
-0.582626
-0.580018
-0.575659
-0.572978
-0.567232
-0.564558
-0.560499
-0.557744
-0.552222
-0.549482
-0.545831
-0.543002
-0.537794
-0.534988
-0.531834
-0.528928
-0.524103
-0.521226
-0.51863
-0.515636
-0.511227
-0.508271
-0.506259
-0.503163
-0.499173
-0.496125
-0.494696
-0.491481
-0.487887
-0.484732
-0.483865
-0.480507
-0.477272
-0.473994
-0.47366
-0.470135
-0.467217
-0.4638
-0.463971
-0.460253
-0.457621
-0.454053
-0.454728
-0.45079
-0.448462
-0.444722
-0.445976
-0.441775
-0.439868
-0.435936
-0.437948
-0.433451
-0.405351
-0.428047
-0.403665
-0.426121
-0.398905
-0.421727
-0.397651
-0.420456
-0.394376
-0.417486
-0.393704
-0.416983
-0.392181
-0.415908
-0.416468
-0.409603
-0.417423
-0.411165
-0.418121
-0.411844
-0.420772
-0.415194
-0.422399
-0.416458
-0.426311
-0.421307
-0.428738
-0.423008
-0.433511
-0.428925
-0.436511
-0.430918
-0.441815
-0.443014
-0.445214
-0.445191
-0.450774
-0.451939
-0.454484
-0.454484
-0.4602
-0.461136
-0.464193
-0.464199
-0.470047
-0.470791
-0.474353
-0.474351
-0.480387
-0.480971
-0.485065
-0.485045
-0.491334
-0.491785
-0.496439
-0.496399
-0.502994
-0.503335
-0.508568
-0.508504
-0.515446
-0.515696
-0.521507
-0.52142
-0.528727
-0.528899
-0.535254
-0.535143
-0.542791
-0.542893
-0.549734
-0.549598
-0.55752
-0.557558
-0.564794
-0.56463
-0.572751
-0.572727
-0.580239
-0.580043
-0.588261
-0.588176
-0.595858
-0.595626
-0.603866
-0.603718
-0.611487
-0.611213
-0.619444
-0.619233
-0.627055
-0.626737
-0.634949
-0.634676
-0.642555
-0.642189
-0.6504
-0.650065
-0.65802
-0.657605
-0.665844
-0.665447
-0.673484
-0.673019
-0.681301
-0.680843
-0.688956
-0.688439
-0.696745
-0.696227
-0.704389
-0.70382
-0.712119
-0.711544
-0.719703
-0.719081
-0.727337
-0.726705
-0.734818
-0.734145
-0.7423
-0.741615
-0.749648
-0.748928
-0.756966
-0.756234
-0.764151
-0.763389
-0.771286
-0.770512
-0.778289
-0.777491
-0.785239
-0.78443
-0.792073
-0.791245
-0.798832
-0.797995
-0.805481
-0.804629
-0.812062
-0.811202
-0.818541
-0.817669
-0.824953
-0.824074
-0.831276
-0.830388
-0.837562
-0.836668
-0.843768
-0.842865
-0.849949
-0.84904
-0.85607
-0.855152
-0.862179
-0.861255
-0.868268
-0.867336
-0.874344
-0.873404
-0.88041
-0.879462
-0.88648
-0.885525
-0.892546
-0.891585
-0.898619
-0.897653
-0.904695
-0.903725
-0.910785
-0.909812
-0.916888
-0.915915
-0.923033
-0.922058
-0.929212
-0.928232
-0.935449
-0.934463
-0.941749
-0.940754
-0.948103
-0.947096
-0.95452
-0.953501
-0.96101
-0.959977
-0.967526
-0.966479
-0.97406
-0.972999
-0.980602
-0.979528
-0.987101
-0.986015
-0.993524
-0.99243
-0.999853
-0.998753
-1.00606
-1.00496
-1.0121
-1.011
-1.01797
-1.01686
-1.02369
-1.02257
-1.02923
-1.0281
-1.0346
-1.03346
-1.03983
-1.03867
-1.04494
-1.04376
-1.04991
-1.0487
-1.05477
-1.05354
-1.05952
-1.05825
-1.06414
-1.06284
-1.06861
-1.06728
-1.07295
-1.07159
-1.07708
-1.07569
-1.08101
-1.07958
-1.08469
-1.08323
-1.08811
-1.08662
-1.09124
-1.08971
-1.09407
-1.09251
-1.09658
-1.09499
-1.09878
-1.09717
-1.10069
-1.09905
-1.10232
-1.10065
-1.10369
-1.102
-1.10483
-1.10311
-1.10576
-1.10402
-1.1065
-1.10475
-1.10709
-1.10533
-1.10756
-1.10578
-1.10792
-1.10613
-1.10819
-1.10639
-1.10839
-1.10659
-1.10854
-1.10674
-1.10864
-1.10684
-1.10872
-1.10691
-1.10877
-1.10696
-1.10882
-1.107
-1.10884
-1.10702
-1.10887
-1.10703
-1.10888
-1.10704
-1.1089
-1.10704
-1.10892
-1.10704
-1.10893
-1.10705
-1.10895
-1.10705
-1.10897
-1.10706
-1.10899
-1.10708
-1.10902
-1.1071
-1.10905
-1.10712
-1.10909
-1.10716
-1.10914
-1.1072
-1.10919
-1.10726
-1.10925
-1.10732
-1.10933
-1.10739
-1.1094
-1.10746
-1.1095
-1.10754
-1.10958
-1.10762
-1.10968
-1.1077
-1.10977
-1.10778
-1.10987
-1.10786
-1.10995
-1.10793
-1.11004
-1.108
-1.1101
-1.10805
-1.11017
-1.1081
-1.1102
-1.10812
-1.11024
-1.10814
-1.11023
-1.10811
-1.11021
-1.10807
-1.11013
-1.10797
-1.11
-1.10782
-1.10977
-1.10757
-1.10942
-1.1072
-1.10885
-1.10661
-1.10799
-1.10573
-1.10666
-1.10437
-1.10471
-1.1024
-1.10178
-1.09945
-1.09767
-1.09531
-1.09183
-1.08945
-1.08393
-1.08152
-1.07339
-1.07096
-1.05971
-1.05725
-1.04248
-1.03999
-1.02148
-1.01897
-0.996507
-0.993966
-0.967203
-0.964634
-0.934531
-0.931934
-0.898592
-0.895967
-0.860359
-0.857705
-0.82049
-0.817807
-0.780269
-0.777556
-0.740401
-0.737659
-0.701727
-0.698955
-0.665481
-0.66268
-0.63212
-0.629288
-0.601387
-0.598526
-0.574028
-0.571134
-0.54997
-0.547048
-0.528706
-0.525752
-0.509989
-0.507006
-0.493487
-0.490473
-0.479032
-0.475991
-0.466133
-0.463061
-0.454517
-0.451419
-0.443994
-0.440866
-0.434481
-0.431331
-0.425758
-0.42258
-0.417582
-0.414383
-0.410197
-0.406971
-0.403152
-0.399909
-0.396505
-0.393237
-0.390059
-0.386775
-0.383877
-0.38057
-0.377551
-0.37423
-0.371266
-0.367921
-0.364702
-0.361346
-0.357827
-0.354448
-0.350576
-0.347187
-0.342966
-0.339554
-0.334569
-0.331148
-0.325777
-0.322331
-0.316131
-0.31268
-0.305688
-0.302209
-0.294243
-0.29076
-0.282376
-0.278864
-0.269424
-0.265912
-0.256178
-0.252635
-0.242448
-0.238906
-0.229058
-0.225484
-0.215824
-0.212256
-0.203487
-0.199884
-0.192149
-0.188557
-0.18236
-0.178731
-0.173718
-0.170105
-0.167073
-0.16342
-0.161394
-0.157765
-0.157617
-0.153945
-0.15452
-0.150879
-0.152995
-0.149307
-0.151672
-0.148023
-0.151702
-0.147699
-0.15148
-0.148047
-0.153098
-0.149717
-0.154323
-0.150898
-0.157818
-0.155312
-0.161138
-0.15773
-0.167462
-0.166407
-0.173943
-0.170549
-0.183966
-0.184776
-0.194595
-0.191194
-0.209505
-0.211764
-0.224961
-0.221503
-0.245886
-1.53521
-0.267562
-1.54402
-0.295518
-1.59441
-0.323735
-1.60595
-0.356716
-1.66555
-0.388023
-1.67899
-0.420599
-1.73985
-0.443912
-1.75105
-0.461084
-1.79134
-0.46237
-1.79305
-0.449632
-1.75449
-0.419971
-1.73884
-0.375805
-1.65514
-0.323188
-1.63042
-0.266168
-1.53012
-0.210257
-1.50642
-0.161204
-1.42257
-0.121697
-1.40759
-0.0917127
-1.35428
-0.0717169
-1.34803
-0.0576051
-1.31849
-0.0498394
-1.31706
-0.0433172
-1.22295
-0.0403408
-1.2985
-0.0364075
-1.21235
-0.0345497
-1.28553
-0.0311327
-1.26659
-0.0293916
-1.27522
-0.0263383
-1.26566
-0.0246173
-1.26565
-0.0216841
-1.24678
-0.0200497
-1.25639
-0.0174551
-1.22447
-0.0161087
-1.24815
-0.0139962
-1.20571
-0.0130972
-1.24163
-0.0116145
-1.21252
-0.0111046
-1.23732
-0.0100569
-1.22758
-0.0097023
-1.23444
-0.00882094
-1.23193
-0.00834331
-1.23187
-0.00741757
-1.22925
-0.0067853
-1.22914
-0.00583612
-1.22649
-0.00512555
-1.22636
-0.00424617
-1.22388
-0.00366062
-1.22382
-0.00303347
-1.21764
-0.00266273
-1.22187
-0.00229411
-1.21743
-0.00206987
-1.2206
-0.00177418
-1.2196
-0.00154917
-1.21959
-0.00126687
-1.21864
-0.00103494
-1.21862
-0.000769267
-1.21774
-0.000565392
-1.21774
-0.000379165
-1.21522
-0.000291875
-1.21717
-0.000240084
-1.21632
-0.000228439
-1.21705
-0.000226014
-1.21706
-0.000226013
-1.21705
-0.000227029
-1.21705
-0.000227075
-1.21705
-0.000227925
-1.21705
-0.000228072
-1.21705
-0.000228892
-1.21705
-0.000229509
-1.21705
-0.000232056
-1.21705
-0.000240666
-1.21705
-0.000238395
-1.21704
-0.000201089
-1.21701
-0.392181
-0.415911
-0.393701
-0.416988
-0.394374
-0.417495
-0.397651
-0.420469
-0.398908
-0.421746
-0.403673
-0.426143
-0.405363
-0.428078
-0.437921
-0.433482
-0.439836
-0.435969
-0.44594
-0.441801
-0.448421
-0.44474
-0.454682
-0.4508
-0.457573
-0.454063
-0.463922
-0.460266
-0.467168
-0.463815
-0.47361
-0.47015
-0.47722
-0.47401
-0.483814
-0.480524
-0.487834
-0.484749
-0.494646
-0.491501
-0.499123
-0.496146
-0.506209
-0.503185
-0.511177
-0.508294
-0.518578
-0.515658
-0.524051
-0.521249
-0.531786
-0.528955
-0.537742
-0.535012
-0.545781
-0.54303
-0.552171
-0.549509
-0.560444
-0.557768
-0.567182
-0.564587
-0.575608
-0.573006
-0.582577
-0.580051
-0.591047
-0.588522
-0.598146
-0.59569
-0.606577
-0.604131
-0.613721
-0.61134
-0.622077
-0.619712
-0.629236
-0.626931
-0.637504
-0.63522
-0.64468
-0.642454
-0.652876
-0.650672
-0.660091
-0.657941
-0.66824
-0.666117
-0.6755
-0.673427
-0.683618
-0.681573
-0.690918
-0.688921
-0.698983
-0.697016
-0.706297
-0.704375
-0.714281
-0.71239
-0.721558
-0.719708
-0.729425
-0.727605
-0.736624
-0.734842
-0.744319
-0.742566
-0.751408
-0.749689
-0.758923
-0.75723
-0.765872
-0.764207
-0.773187
-0.771545
-0.779977
-0.778359
-0.787093
-0.785493
-0.793735
-0.792155
-0.800647
-0.799082
-0.807124
-0.805574
-0.813844
-0.812306
-0.82017
-0.818643
-0.826708
-0.825192
-0.832894
-0.831387
-0.839294
-0.837797
-0.845375
-0.843886
-0.851659
-0.850179
-0.857667
-0.856195
-0.863867
-0.862404
-0.869854
-0.868399
-0.87601
-0.874565
-0.881985
-0.880547
-0.888126
-0.886697
-0.894111
-0.892688
-0.900249
-0.898833
-0.906254
-0.904842
-0.912403
-0.910995
-0.918448
-0.917039
-0.924646
-0.92324
-0.930768
-0.929366
-0.937047
-0.935654
-0.943292
-0.941907
-0.949676
-0.948305
-0.956041
-0.954682
-0.962553
-0.961212
-0.96902
-0.967691
-0.975572
-0.974261
-0.982071
-0.98077
-0.988585
-0.9873
-0.994974
-0.993695
-1.00132
-1.00005
-1.0075
-1.00623
-1.01357
-1.0123
-1.01941
-1.01815
-1.02514
-1.02388
-1.03065
-1.0294
-1.03602
-1.0348
-1.04122
-1.04001
-1.04631
-1.04514
-1.05125
-1.05009
-1.05609
-1.05497
-1.0608
-1.0597
-1.06539
-1.06433
-1.06983
-1.0688
-1.07414
-1.07315
-1.07824
-1.07727
-1.08212
-1.0812
-1.08578
-1.08488
-1.08916
-1.08831
-1.09226
-1.09143
-1.09505
-1.09426
-1.09754
-1.09677
-1.0997
-1.09898
-1.1016
-1.10088
-1.10319
-1.10252
-1.10455
-1.10389
-1.10564
-1.10503
-1.10658
-1.10595
-1.10728
-1.1067
-1.10788
-1.10729
-1.10831
-1.10776
-1.10869
-1.10811
-1.10892
-1.10838
-1.10915
-1.10858
-1.10926
-1.10873
-1.1094
-1.10884
-1.10945
-1.10892
-1.10953
-1.10897
-1.10955
-1.10901
-1.10959
-1.10904
-1.10959
-1.10907
-1.10961
-1.10908
-1.10961
-1.1091
-1.10962
-1.10911
-1.10962
-1.10913
-1.10963
-1.10915
-1.10963
-1.10917
-1.10966
-1.10919
-1.10967
-1.10922
-1.10971
-1.10925
-1.10973
-1.10929
-1.10979
-1.10934
-1.10982
-1.10939
-1.10991
-1.10945
-1.10995
-1.10953
-1.11005
-1.1096
-1.11009
-1.10969
-1.11022
-1.10978
-1.11026
-1.10988
-1.11039
-1.10997
-1.11042
-1.11006
-1.11054
-1.11015
-1.11058
-1.11023
-1.11067
-1.1103
-1.11069
-1.11036
-1.11074
-1.1104
-1.11075
-1.11044
-1.11071
-1.11043
-1.11067
-1.11041
-1.11052
-1.11032
-1.11042
-1.1102
-1.11008
-1.10996
-1.10979
-1.10962
-1.10913
-1.10905
-1.10831
-1.10819
-1.1069
-1.10686
-1.10497
-1.10491
-1.10198
-1.10198
-1.09788
-1.09787
-1.09199
-1.09203
-1.08409
-1.08413
-1.07349
-1.07358
-1.05982
-1.05991
-1.04253
-1.04267
-1.02153
-1.02168
-0.996509
-0.996703
-0.967197
-0.967402
-0.934479
-0.934727
-0.898528
-0.898791
-0.860251
-0.860554
-0.820367
-0.820688
-0.780105
-0.780465
-0.740218
-0.740599
-0.701504
-0.701923
-0.665237
-0.665678
-0.631838
-0.632315
-0.601083
-0.601585
-0.573685
-0.574223
-0.549605
-0.550167
-0.528303
-0.528901
-0.509562
-0.510186
-0.493025
-0.493683
-0.478547
-0.479229
-0.465613
-0.466328
-0.453975
-0.454714
-0.443419
-0.444189
-0.433886
-0.434677
-0.425133
-0.425953
-0.416938
-0.417778
-0.409525
-0.410392
-0.402464
-0.403348
-0.395791
-0.3967
-0.389331
-0.390255
-0.383124
-0.384072
-0.376785
-0.377746
-0.370476
-0.37146
-0.363901
-0.364897
-0.357003
-0.358022
-0.349742
-0.350771
-0.342108
-0.343161
-0.333703
-0.334764
-0.324886
-0.325972
-0.315235
-0.316326
-0.304764
-0.305882
-0.293315
-0.294438
-0.281419
-0.28257
-0.268467
-0.269619
-0.25519
-0.256373
-0.241461
-0.242642
-0.228039
-0.229252
-0.214811
-0.216018
-0.202439
-0.203681
-0.191112
-0.192343
-0.181286
-0.182554
-0.172661
-0.173912
-0.165976
-0.167267
-0.160321
-0.161588
-0.1565
-0.15781
-0.153435
-0.154714
-0.151863
-0.153189
-0.150579
-0.151865
-0.150254
-0.151895
-0.150603
-0.151682
-0.152272
-0.153291
-0.153453
-0.154524
-0.157867
-0.15801
-0.160285
-0.161339
-0.168962
-0.167654
-0.173105
-0.174145
-0.187331
-0.184158
-0.193749
-0.194797
-0.214907
-0.209697
-0.224061
-0.225163
-0.253417
-0.246077
-0.266512
-0.267749
-1.60157
-0.295715
-1.61371
-0.323923
-1.67272
-0.356912
-1.68616
-0.388212
-1.74702
-0.420794
-1.75822
-0.4441
-1.79851
-0.461278
-1.80022
-0.462559
-1.76166
-0.449826
-1.74601
-0.420161
-1.66231
-0.375999
-1.63759
-0.323378
-1.53729
-0.266361
-1.51359
-0.210448
-1.42974
-0.161397
-1.41476
-0.121887
-1.36145
-0.0919049
-1.3552
-0.0719074
-1.32566
-0.0577971
-1.32423
-0.0500301
-1.23012
-0.043509
-1.30567
-0.0405316
-1.21952
-0.0365992
-1.2927
-0.0347406
-1.27376
-0.0313242
-1.28239
-0.0295824
-1.27283
-0.0265297
-1.27282
-0.0248082
-1.25395
-0.0218754
-1.26356
-0.0202406
-1.23164
-0.0176463
-1.25531
-0.0162996
-1.21288
-0.0141873
-1.2488
-0.0132881
-1.21969
-0.0118055
-1.24449
-0.0112955
-1.23474
-0.0102479
-1.24161
-0.00989314
-1.2391
-0.00901186
-1.23904
-0.00853413
-1.23642
-0.00760844
-1.23631
-0.00697609
-1.23365
-0.00602694
-1.23352
-0.00531631
-1.23105
-0.00443695
-1.23099
-0.00385135
-1.22481
-0.0032242
-1.22904
-0.00285343
-1.2246
-0.00248481
-1.22777
-0.00226055
-1.22677
-0.00196485
-1.22676
-0.00173982
-1.22581
-0.00145751
-1.22579
-0.00122557
-1.22491
-0.000959889
-1.2249
-0.00075601
-1.22239
-0.000569777
-1.22434
-0.000482478
-1.22349
-0.000430684
-1.22422
-0.000419029
-1.22422
-0.000416604
-1.22422
-0.000416599
-1.22422
-0.000417607
-1.22422
-0.000417652
-1.22422
-0.000418501
-1.22422
-0.000418648
-1.22422
-0.000419469
-1.22422
-0.000420087
-1.22422
-0.000422639
-1.22421
-0.000431261
-1.22421
-0.000428995
-1.22418
-0.000391678
)
;

boundaryField
{
    walls
    {
        type            zeroGradient;
    }
    inlet
    {
        type            cyclic;
    }
    outlet
    {
        type            cyclic;
    }
    sides
    {
        type            empty;
    }
}


// ************************************************************************* //
