/*--------------------------------*- C++ -*----------------------------------*\
| =========                 |                                                 |
| \\      /  F ield         | OpenFOAM: The Open Source CFD Toolbox           |
|  \\    /   O peration     | Version:  2012                                  |
|   \\  /    A nd           | Website:  www.openfoam.com                      |
|    \\/     M anipulation  |                                                 |
\*---------------------------------------------------------------------------*/
FoamFile
{
    version     2.0;
    format      ascii;
    class       volSymmTensorField;
    location    "13000";
    object      turbulenceProperties:R;
}
// * * * * * * * * * * * * * * * * * * * * * * * * * * * * * * * * * * * * * //

dimensions      [0 2 -2 0 0 0 0];


internalField   nonuniform List<symmTensor> 
2560
(
(0.0132522 -6.26561e-06 -9.08085e-09 0.0132522 -4.05261e-08 0.0132522)
(0.0132422 -6.25364e-06 -9.07401e-09 0.0132422 1.61004e-12 0.0132422)
(0.378108 -0.00103 -4.50376e-06 0.378108 -1.4355e-10 0.378108)
(0.377846 -0.00102811 -4.50059e-06 0.377845 2.21953e-10 0.377846)
(2.47086 -0.0202871 -0.000121609 2.47087 7.89158e-05 2.47086)
(2.46938 -0.0202526 -0.000121407 2.46937 1.42562e-09 2.46938)
(6.45751 -0.109966 -0.000668769 6.45753 0.000294347 6.45751)
(6.45461 -0.109807 -0.000667838 6.4546 3.8808e-09 6.45461)
(10.4979 -0.284423 -0.00175494 10.4979 0.000336861 10.4979)
(10.4941 -0.284076 -0.00175289 10.4941 2.76569e-09 10.4941)
(14.0261 -0.518286 -0.00324368 14.0262 0.000271144 14.0261)
(14.0218 -0.517744 -0.00324046 14.0218 2.06572e-09 14.0218)
(17.1278 -0.791973 -0.00502661 17.1279 0.000210165 17.1278)
(17.123 -0.791258 -0.00502233 17.123 4.65087e-10 17.123)
(19.9241 -1.09433 -0.00704378 19.9241 0.000167738 19.9241)
(19.9188 -1.09348 -0.00703865 19.9188 4.19177e-09 19.9188)
(22.499 -1.41912 -0.00926763 22.499 0.00013827 22.499)
(22.4933 -1.41818 -0.00926191 22.4933 -1.87124e-09 22.4934)
(24.9085 -1.7637 -0.0116916 24.9085 0.000116989 24.9085)
(24.9025 -1.76271 -0.0116855 24.9024 8.40051e-09 24.9025)
(27.1906 -2.12624 -0.0143028 27.1906 0.000100956 27.1906)
(27.1843 -2.12524 -0.0142967 27.1842 -5.6039e-09 27.1843)
(29.3724 -2.5048 -0.0170984 29.3725 8.85094e-05 29.3724)
(29.3658 -2.50385 -0.0170925 29.3657 1.49428e-08 29.3658)
(31.4738 -2.89907 -0.0200867 31.4738 7.86913e-05 31.4738)
(31.467 -2.89818 -0.0200813 31.4665 -8.90317e-07 31.467)
(33.5097 -3.30782 -0.0232519 33.5098 6.93618e-05 33.5097)
(33.5024 -3.30703 -0.0232471 33.5024 -1.31351e-08 33.5024)
(35.4919 -3.72703 -0.0265664 35.492 6.37678e-05 35.4919)
(35.485 -3.72636 -0.0265623 35.483 4.33398e-07 35.485)
(37.4298 -4.15209 -0.030004 37.4298 5.23249e-05 37.4298)
(37.4219 -4.15156 -0.0300008 37.4219 -5.62435e-08 37.4219)
(39.3309 -4.57953 -0.0335492 39.3309 5.17957e-05 39.3309)
(39.3233 -4.57914 -0.033547 39.3216 5.47461e-06 39.3233)
(41.2016 -5.01115 -0.0372502 41.2016 3.76679e-05 41.2016)
(41.1932 -5.0109 -0.0372489 41.1932 -2.39438e-08 41.1932)
(43.0473 -5.45742 -0.0412175 43.0473 4.57379e-05 43.0473)
(43.0386 -5.4573 -0.0412171 43.0386 5.52198e-08 43.0386)
(44.8725 -5.9304 -0.0455277 44.8726 2.6763e-05 44.8725)
(44.8636 -5.9304 -0.0455281 44.8636 -1.16895e-08 44.8636)
(46.6813 -6.43259 -0.0501602 46.6813 4.5562e-05 46.6813)
(46.672 -6.4327 -0.0501613 46.672 7.98666e-08 46.672)
(48.4768 -6.95667 -0.0550484 48.4769 1.66568e-05 48.4768)
(48.4673 -6.95686 -0.0550502 48.4673 1.28833e-09 48.4673)
(50.2622 -7.49463 -0.060159 50.2622 4.94224e-05 50.2622)
(50.2524 -7.49489 -0.0601612 50.2524 -4.46024e-06 50.2524)
(52.0399 -8.0441 -0.0655052 52.04 2.07435e-06 52.0399)
(52.0298 -8.04442 -0.0655078 52.0298 -9.05418e-08 52.0298)
(53.8125 -8.60639 -0.0711083 53.8125 6.45142e-05 53.8125)
(53.8021 -8.60674 -0.0711111 53.8021 -2.13266e-06 53.8021)
(55.5819 -9.18196 -0.0769686 55.5821 -2.1113e-05 55.5819)
(55.5713 -9.18231 -0.0769714 55.5713 -2.10101e-07 55.5713)
(57.3505 -9.76875 -0.0830673 57.3504 8.09938e-05 57.3505)
(57.3395 -9.76909 -0.0830699 57.3395 6.22273e-06 57.3395)
(59.1197 -10.3634 -0.0893815 59.1198 -4.29491e-05 59.1197)
(59.1084 -10.3637 -0.0893838 59.1084 -1.44241e-07 59.1085)
(60.8915 -10.9638 -0.0959122 60.8914 9.17258e-05 60.8915)
(60.8799 -10.964 -0.0959139 60.8799 -5.55729e-08 60.8799)
(62.6674 -11.5734 -0.102732 62.6676 -5.97987e-05 62.6674)
(62.6556 -11.5736 -0.102732 62.6556 -4.36317e-08 62.6556)
(64.4492 -12.206 -0.110023 64.449 0.000103094 64.4492)
(64.4369 -12.206 -0.110023 64.4369 2.77808e-07 64.4369)
(66.2379 -12.8859 -0.118063 66.2381 -7.77977e-05 66.2379)
(66.2254 -12.8858 -0.118061 66.2254 4.56498e-08 66.2254)
(68.0354 -13.6414 -0.127127 68.0352 0.000116516 68.0354)
(68.0224 -13.6411 -0.127123 68.0224 3.75396e-07 68.0224)
(69.8421 -14.4931 -0.137384 69.8425 -9.7057e-05 69.8421)
(69.829 -14.4926 -0.137377 69.829 3.37236e-08 69.829)
(71.6598 -15.4455 -0.148832 71.6595 0.000134174 71.6598)
(71.6462 -15.4448 -0.148824 71.6462 -1.02543e-05 71.6462)
(73.4882 -16.4853 -0.161312 73.4887 -0.000128605 73.4882)
(73.4745 -16.4843 -0.161302 73.4745 -2.16663e-07 73.4745)
(75.3289 -17.5854 -0.174557 75.3285 0.000167758 75.3289)
(75.3145 -17.5842 -0.174544 75.3145 -3.50715e-05 75.3145)
(77.1811 -18.7137 -0.188272 77.1817 -0.000211097 77.1811)
(77.1667 -18.7123 -0.188257 77.1667 -7.53718e-07 77.1667)
(79.0464 -19.8412 -0.202224 79.0459 0.000282867 79.0464)
(79.0312 -19.8395 -0.202207 79.0312 -1.55333e-05 79.0312)
(80.9238 -20.9523 -0.216356 80.9245 -0.000358466 80.9238)
(80.9086 -20.9505 -0.216337 80.9086 -1.03103e-06 80.9086)
(82.8152 -22.0565 -0.23092 82.8146 0.000452485 82.8152)
(82.7992 -22.0544 -0.230898 82.7992 1.28999e-05 82.7992)
(84.7195 -23.1962 -0.24656 84.7203 -0.000527405 84.7195)
(84.7036 -23.1939 -0.246535 84.7036 -8.98331e-07 84.7036)
(86.6389 -24.4475 -0.264272 86.6382 0.000614823 86.6389)
(86.622 -24.4449 -0.264242 86.622 3.04471e-05 86.622)
(88.5715 -25.9026 -0.28514 88.5724 -0.000669751 88.5715)
(88.5547 -25.8996 -0.285106 88.5547 -4.94866e-07 88.5547)
(90.5191 -27.6398 -0.309968 90.5183 0.00073021 90.5191)
(90.5013 -27.6364 -0.309929 90.5013 1.40871e-05 90.5013)
(92.4784 -29.6923 -0.338956 92.4794 -0.000778198 92.4784)
(92.4607 -29.6885 -0.338912 92.4607 -3.10808e-07 92.4607)
(94.4498 -32.0337 -0.371646 94.4489 0.000826183 94.4498)
(94.431 -32.0296 -0.371598 94.431 -7.96613e-06 94.431)
(96.4278 -34.587 -0.407068 96.429 -0.000888036 96.4278)
(96.4092 -34.5826 -0.407017 96.4092 -4.42324e-07 96.4093)
(98.4117 -37.2511 -0.444136 98.4107 0.000945761 98.4117)
(98.3919 -37.2466 -0.444085 98.3919 -0.000159128 98.3919)
(100.394 -39.9275 -0.481811 100.396 -0.00117545 100.394)
(100.375 -39.9232 -0.481761 100.375 -2.8042e-06 100.375)
(102.375 -42.5101 -0.518682 102.373 0.00140664 102.375)
(102.354 -42.5061 -0.518638 102.354 3.99651e-05 102.354)
(104.345 -44.8311 -0.552079 104.346 -0.00161895 104.345)
(104.324 -44.8279 -0.552045 104.324 -5.33338e-06 104.324)
(106.305 -46.5812 -0.576891 106.304 0.00178357 106.305)
(106.283 -46.5792 -0.576875 106.283 0.000101035 106.283)
(108.25 -47.2274 -0.584476 108.251 -0.00194444 108.25)
(108.228 -47.2272 -0.584488 108.228 -1.14638e-05 108.228)
(110.186 -45.9649 -0.562132 110.185 0.00196871 110.186)
(110.163 -45.9675 -0.562186 110.163 -5.22732e-05 110.163)
(112.119 -41.7595 -0.494196 112.12 -0.00219966 112.119)
(112.095 -41.7659 -0.494306 112.095 -2.11596e-05 112.095)
(114.069 -33.5118 -0.364733 114.068 0.00217165 114.069)
(114.044 -33.5231 -0.364915 114.044 -6.95333e-05 114.044)
(116.061 -20.331 -0.161855 116.062 -0.002523 116.061)
(116.035 -20.3484 -0.162127 116.035 -2.28094e-05 116.035)
(118.125 -0.0297874 -0.000199217 118.125 0.00243631 118.125)
(118.098 -4.39587e-31 -4.96446e-21 118.098 -3.91661e-05 118.098)
(120.278 17.6642 -0.119855 120.278 -0.00289636 120.278)
(120.25 17.6076 -0.119471 120.25 -6.86457e-06 120.25)
(122.512 48.0432 -0.472988 122.512 0.00278587 122.512)
(122.483 48.0029 -0.472487 122.483 3.88701e-05 122.483)
(124.759 75.8233 -0.869997 124.759 -0.00326189 124.759)
(124.729 75.7751 -0.869375 124.729 2.00693e-05 124.729)
(126.906 101.994 -1.27513 126.907 0.0031879 126.906)
(126.876 101.938 -1.27439 126.876 0.000108392 126.876)
(128.802 123.846 -1.64689 128.801 -0.00355737 128.802)
(128.77 123.785 -1.64604 128.77 3.76292e-05 128.77)
(130.284 139.25 -1.94645 130.286 0.00355838 130.284)
(130.253 139.184 -1.94551 130.253 9.37111e-05 130.253)
(131.226 147.042 -2.14553 131.224 -0.00373166 131.226)
(131.194 146.974 -2.14454 131.194 -0.000105075 131.194)
(131.548 147.151 -2.23104 131.55 0.0037597 131.548)
(131.518 147.086 -2.23004 131.518 -2.70869e-05 131.518)
(131.249 140.466 -2.20584 131.248 -0.00380603 131.249)
(131.219 140.407 -2.20488 131.219 -5.68561e-05 131.219)
(130.38 128.483 -2.0855 130.382 0.00382545 130.38)
(130.352 128.435 -2.08466 130.352 -9.7023e-06 130.352)
(129.042 112.916 -1.89264 129.04 -0.00381819 129.042)
(129.015 112.886 -1.89201 129.015 -4.40562e-06 129.015)
(127.348 95.3699 -1.35638 127.35 0.00382658 127.348)
(127.324 95.3623 -1.35623 127.324 3.30022e-07 127.324)
(125.422 77.1445 -0.667582 125.421 -0.0038141 125.422)
(125.399 77.1643 -0.667511 125.399 -0.000219017 125.399)
(123.366 59.1804 -0.115518 123.368 0.00136925 123.366)
(123.346 59.2292 -0.115504 123.346 -8.21525e-20 123.346)
(121.271 42.097 0.300064 121.27 -0.000166283 121.271)
(121.251 42.1684 0.30004 121.251 0.000290217 121.251)
(119.197 26.268 0.317099 119.197 1.50722e-05 119.197)
(119.174 26.3505 0.31855 119.186 7.07158e-05 119.174)
(117.187 10.261 0.0877129 117.186 -0.000115381 117.187)
(117.169 10.4337 0.0891892 117.169 2.09429e-05 117.169)
(115.266 -1.98767e-16 -1.35457e-16 115.266 1.32062e-05 115.266)
(115.246 -0.0796007 0.000690338 115.254 0.000107609 115.246)
(113.439 -12.0596 0.120491 113.438 -7.77649e-05 113.439)
(113.422 -11.9797 0.119046 113.422 1.94057e-05 113.422)
(111.699 -21.6114 0.306016 111.699 1.12306e-05 111.699)
(111.682 -21.5388 0.30465 111.687 7.44608e-05 111.682)
(110.034 -29.5929 0.348558 110.033 -5.22677e-05 110.034)
(110.019 -29.5312 0.348531 110.019 1.62197e-05 110.019)
(108.424 -36.0901 0.0464543 108.424 9.12052e-06 108.424)
(108.409 -36.045 0.046449 108.412 5.2385e-05 108.409)
(106.848 -41.2271 -0.314578 106.847 -3.69994e-05 106.848)
(106.835 -41.2021 -0.314561 106.835 1.26206e-05 106.835)
(105.284 -45.1539 -0.724214 105.284 6.58096e-06 105.284)
(105.272 -45.1472 -0.724174 105.274 3.91071e-05 105.272)
(103.714 -48.0236 -0.949989 103.713 -2.94009e-05 103.714)
(103.703 -48.0308 -0.950238 103.703 8.67828e-07 103.703)
(102.119 -49.9734 -0.993709 102.119 4.10096e-06 102.119)
(102.11 -49.9899 -0.994096 102.111 2.91999e-05 102.11)
(100.487 -51.1121 -1.02333 100.486 -3.01344e-05 100.487)
(100.479 -51.1335 -1.02378 100.479 2.4321e-22 100.479)
(98.8044 -51.5116 -1.03927 98.8044 -5.50204e-06 98.8044)
(98.7977 -51.5346 -1.03973 98.7979 3.03029e-05 98.7977)
(97.0648 -51.2076 -1.04127 97.0643 -3.50128e-05 97.0648)
(97.0589 -51.2299 -1.04171 97.0589 -7.7986e-07 97.0589)
(95.2627 -50.2066 -1.0286 95.2627 -8.57862e-06 95.2627)
(95.2577 -50.227 -1.029 95.2581 2.55632e-05 95.2577)
(93.3979 -48.4996 -1.00032 93.3975 -3.51644e-05 93.3979)
(93.3935 -48.5176 -1.00067 93.3935 -6.48689e-06 93.3935)
(91.4727 -46.078 -0.955662 91.4727 -1.19389e-05 91.4727)
(91.4689 -46.0937 -0.955971 91.4692 1.25773e-05 91.4689)
(89.4944 -42.951 -0.894384 89.494 -3.49768e-05 89.4944)
(89.491 -42.9645 -0.894655 89.491 -1.29428e-05 89.491)
(87.4731 -39.1605 -0.817152 87.4731 -1.36789e-05 87.4731)
(87.4701 -39.1722 -0.81739 87.4704 6.95121e-06 87.4701)
(85.4229 -34.7923 -0.725726 85.4226 -3.24853e-05 85.4229)
(85.4202 -34.8024 -0.725938 85.4202 -1.3273e-05 85.4202)
(83.3592 -29.9757 -0.622947 83.3592 -1.23688e-05 83.3592)
(83.3568 -29.9846 -0.623136 83.357 5.97324e-06 83.3568)
(81.2989 -24.8781 -0.512629 81.2986 -2.70102e-05 81.2989)
(81.2967 -24.886 -0.512798 81.2967 -1.03345e-05 81.2967)
(79.2575 -19.6961 -0.399391 79.2575 -8.05044e-06 79.2575)
(79.2555 -19.703 -0.399542 79.2558 8.2467e-06 79.2555)
(77.2495 -14.6379 -0.288117 77.2493 -1.9738e-05 77.2495)
(77.2476 -14.6439 -0.288249 77.2476 -5.17542e-06 77.2476)
(75.2854 -9.90313 -0.183588 75.2854 -0 75.2854)
(75.2838 -9.90831 -0.183702 75.2839 1.43742e-05 75.2838)
(73.3734 -5.66868 -0.0901235 73.3732 -1.28006e-05 73.3734)
(73.3718 -5.67301 -0.090219 73.3718 4.88959e-08 73.3718)
(71.5175 -0.914578 -0.0112159 71.5175 4.33192e-08 71.5175)
(71.516 -0.920801 -0.0112923 71.5162 1.25586e-05 71.516)
(69.72 2.52803e-05 -3.14534e-07 69.7198 -7.9128e-06 69.72)
(69.7186 -2.05074e-15 -1.099e-15 69.7186 3.51249e-06 69.7186)
(67.9801 2.84979 -0.0505023 67.9801 4.2126e-06 67.9801)
(67.9789 2.84793 -0.0504456 67.979 1.50955e-05 67.9789)
(66.2971 4.12178 -0.0936051 66.297 -5.61387e-06 66.2971)
(66.2959 4.12071 -0.0935679 66.2959 4.58084e-06 66.2959)
(64.6694 4.62781 -0.117612 64.6694 4.33719e-06 64.6694)
(64.6683 4.62747 -0.117595 64.6684 1.38009e-05 64.6683)
(63.0962 4.42636 -0.122857 63.0961 -5.0931e-06 63.0962)
(63.0952 4.4267 -0.122858 63.0952 3.98398e-06 63.0952)
(61.5772 3.59699 -0.110391 61.5772 3.33046e-06 61.5772)
(61.5763 3.59793 -0.110408 61.5763 1.16249e-05 61.5763)
(60.1127 2.23236 -0.0817997 60.1126 -5.28352e-06 60.1127)
(60.1118 2.23381 -0.0818326 60.1118 2.75496e-06 60.1118)
(58.7031 -0 -0.0390452 58.7031 2.04177e-06 58.7031)
(58.7023 0.000743198 -0.0390908 58.7024 9.34975e-06 58.7023)
(57.3487 -1.1162 -0.0795084 57.3486 -5.67534e-06 57.3487)
(57.348 -1.11226 -0.0794473 57.348 1.42508e-06 57.348)
(56.0491 -4.04 -0.149906 56.0491 2.2647e-07 56.0491)
(56.0484 -4.0378 -0.149843 56.0485 6.61878e-06 56.0484)
(54.8025 -6.48989 -0.223634 54.8024 -6.52255e-06 54.8025)
(54.8019 -6.48772 -0.223572 54.8019 -2.11278e-07 54.8019)
(53.6055 -8.92551 -0.297275 53.6055 -1.27318e-06 53.6055)
(53.605 -8.9235 -0.297219 53.605 4.39825e-06 53.605)
(52.4534 -11.2251 -0.367105 52.4533 -8.14966e-06 52.4534)
(52.4529 -11.2234 -0.367058 52.4529 -2.49582e-06 52.4529)
(51.3397 -13.2659 -0.429228 51.3397 -3.88809e-06 51.3397)
(51.3393 -13.2646 -0.429193 51.3393 1.07593e-06 51.3393)
(50.2575 -14.9297 -0.479777 50.2574 -1.02147e-05 50.2575)
(50.2571 -14.9288 -0.479756 50.2571 -5.21132e-06 50.2571)
(49.1993 -16.1097 -0.515124 49.1993 -6.65511e-06 49.1993)
(49.1989 -16.1093 -0.515117 49.199 -2.26981e-06 49.1989)
(48.1589 -16.7184 -0.532194 48.1588 -1.24986e-05 48.1589)
(48.1586 -16.7184 -0.532201 48.1586 -8.03732e-06 48.1586)
(47.1318 -16.6966 -0.52879 47.1318 -9.48469e-06 47.1318)
(47.1316 -16.697 -0.528812 47.1316 -5.57216e-06 47.1316)
(46.1162 -16.021 -0.50389 46.1162 -1.50242e-05 46.1162)
(46.116 -16.0218 -0.503923 46.116 -1.10193e-05 46.116)
(45.1132 -14.7086 -0.457793 45.1132 -1.28344e-05 45.1132)
(45.113 -14.7098 -0.457836 45.1131 -9.38506e-06 45.113)
(44.1268 -12.8185 -0.392267 44.1268 -1.87393e-05 44.1268)
(44.1267 -12.8199 -0.392317 44.1267 -1.50698e-05 44.1267)
(43.1631 -10.4486 -0.310429 43.1631 -1.79364e-05 43.1631)
(43.1631 -10.4502 -0.310484 43.1631 -1.49878e-05 43.1631)
(42.2294 -7.72841 -0.216546 42.2293 -2.49738e-05 42.2294)
(42.2293 -7.73006 -0.216603 42.2293 -2.15142e-05 42.2293)
(41.3323 -4.8084 -0.115671 41.3323 -2.58935e-05 41.3323)
(41.3322 -4.81006 -0.115729 41.3323 -2.34419e-05 41.3322)
(40.4773 -0.748209 -0.0131637 40.4772 -3.41742e-05 40.4773)
(40.4772 -0.751352 -0.013219 40.4772 -3.08642e-05 40.4772)
(39.6676 0.00195194 -3.48411e-05 39.6676 -3.62542e-05 39.6676)
(39.6676 7.91151e-14 9.23066e-22 39.6676 -3.41488e-05 39.6676)
(38.9034 3.61318 -0.0860569 38.9034 -4.46272e-05 38.9034)
(38.9034 3.61184 -0.0860054 38.9034 -4.15336e-05 38.9034)
(38.1822 5.87265 -0.17712 38.1822 -4.61241e-05 38.1822)
(38.1821 5.87149 -0.177074 38.1822 -4.40701e-05 38.1821)
(37.5001 7.71495 -0.256292 37.5001 -5.19994e-05 37.5001)
(37.5 7.71399 -0.256252 37.5 -4.9371e-05 37.5)
(36.8522 9.11037 -0.321096 36.8522 -5.05696e-05 36.8522)
(36.8522 9.10961 -0.321063 36.8522 -4.8249e-05 36.8522)
(36.2339 10.0681 -0.370489 36.2339 -5.08803e-05 36.2339)
(36.2339 10.0675 -0.370464 36.2339 -4.8997e-05 36.2339)
(35.6412 10.6304 -0.404824 35.6412 -4.43062e-05 35.6412)
(35.6411 10.63 -0.404806 35.6412 -4.14133e-05 35.6411)
(35.0711 10.8642 -0.425649 35.0711 -3.74816e-05 35.0711)
(35.071 10.8639 -0.425637 35.071 -3.64054e-05 35.071)
(34.5219 10.852 -0.435426 34.5219 -2.55634e-05 34.5219)
(34.5218 10.8519 -0.435419 34.5219 -2.2134e-05 34.5218)
(33.9929 10.6818 -0.437221 33.9929 -1.1548e-05 33.9929)
(33.9928 10.6817 -0.437218 33.9928 -1.05936e-05 33.9928)
(33.484 10.4366 -0.434298 33.484 7.91798e-07 33.484)
(33.4839 10.4366 -0.434297 33.4839 3.6084e-06 33.4839)
(32.9955 10.1866 -0.429704 32.9954 1.61769e-05 32.9955)
(32.9954 10.1866 -0.429702 32.9954 1.727e-05 32.9954)
(32.5277 9.98486 -0.426006 32.5277 3.02015e-05 32.5277)
(32.5276 9.98479 -0.426004 32.5276 3.33748e-05 32.5276)
(32.0808 9.86472 -0.425113 32.0808 4.00986e-05 32.0808)
(32.0807 9.8646 -0.425109 32.0807 4.14057e-05 32.0807)
(31.6547 9.84005 -0.428171 31.6547 4.95504e-05 31.6547)
(31.6546 9.83987 -0.428165 31.6546 5.18269e-05 31.6546)
(31.2488 9.90692 -0.435541 31.2488 5.18341e-05 31.2488)
(31.2487 9.90669 -0.435532 31.2487 5.42531e-05 31.2487)
(30.8623 10.0473 -0.446867 30.8623 5.5516e-05 30.8623)
(30.8622 10.047 -0.446855 30.8622 5.68167e-05 30.8622)
(30.494 10.2332 -0.461223 30.494 5.02196e-05 30.494)
(30.4939 10.2328 -0.46121 30.4939 5.37159e-05 30.4939)
(30.1424 10.4311 -0.477261 30.1424 4.94445e-05 30.1424)
(30.1423 10.4308 -0.477246 30.1423 5.00645e-05 30.1423)
(29.8062 10.6075 -0.493413 29.8062 3.92993e-05 29.8062)
(29.8061 10.6072 -0.493398 29.8061 4.35823e-05 29.8061)
(29.4838 10.732 -0.508126 29.4838 3.68699e-05 29.4838)
(29.4836 10.7317 -0.508111 29.4837 3.73151e-05 29.4836)
(29.1741 10.7803 -0.519976 29.1741 2.52587e-05 29.1741)
(29.1739 10.78 -0.519962 29.1739 3.00327e-05 29.1739)
(28.8762 10.7366 -0.527826 28.8762 2.35891e-05 28.8762)
(28.876 10.7363 -0.527814 28.876 2.42378e-05 28.876)
(28.5898 10.5945 -0.530951 28.5898 1.2787e-05 28.5898)
(28.5896 10.5944 -0.530941 28.5896 1.06631e-05 28.5896)
(28.315 10.3569 -0.529062 28.315 1.31991e-05 28.315)
(28.3148 10.3568 -0.529055 28.3148 1.11485e-06 28.3148)
(28.0524 10.0347 -0.522299 28.0524 3.80787e-06 28.0524)
(28.0522 10.0346 -0.522295 28.0522 -4.89249e-07 28.0522)
(27.8031 9.64585 -0.511226 27.8031 6.32593e-06 27.8031)
(27.8028 9.64584 -0.511224 27.8028 9.22072e-07 27.8028)
(27.5682 9.21377 -0.496784 27.5682 -4.72038e-06 27.5682)
(27.5679 9.2138 -0.496784 27.5679 -4.80951e-07 27.5679)
(27.3494 8.76479 -0.480178 27.3494 -5.29563e-07 27.3494)
(27.349 8.76484 -0.48018 27.349 1.22973e-06 27.349)
(27.148 8.32695 -0.462818 27.148 -8.21275e-06 27.148)
(27.1477 8.32699 -0.46282 27.1477 -4.66811e-07 27.1477)
(26.9656 7.92858 -0.446248 26.9656 -6.24131e-07 26.9656)
(26.9652 7.92859 -0.44625 26.9652 1.45758e-06 26.9652)
(26.8034 7.59709 -0.432089 26.8034 -9.69153e-06 26.8034)
(26.803 7.59704 -0.432089 26.803 -4.47649e-07 26.803)
(26.6623 7.35806 -0.421964 26.6623 -1.03343e-06 26.6623)
(26.6618 7.35793 -0.421959 26.6618 1.6219e-06 26.6618)
(26.543 7.23425 -0.417472 26.543 -1.09603e-05 26.543)
(26.5424 7.23401 -0.417461 26.5424 -4.27388e-07 26.5424)
(26.4455 7.24501 -0.420087 26.4455 -8.77962e-07 26.4455)
(26.4449 7.24462 -0.420069 26.4449 1.77948e-06 26.4449)
(26.3698 7.40628 -0.431179 26.3698 -1.15632e-05 26.3698)
(26.3691 7.40571 -0.431151 26.3691 -4.1178e-07 26.3691)
(26.3151 7.72879 -0.451962 26.3151 -5.2857e-07 26.3151)
(26.3143 7.728 -0.451921 26.3143 1.97126e-06 26.3143)
(26.2801 8.21659 -0.483302 26.2801 -1.17732e-05 26.2801)
(26.2792 8.21554 -0.483246 26.2792 -4.08481e-07 26.2792)
(26.2628 8.86634 -0.525688 26.2628 -5.21914e-07 26.2628)
(26.2618 8.86496 -0.525613 26.2619 2.06334e-06 26.2618)
(26.2605 9.66587 -0.579115 26.2605 -1.17384e-05 26.2605)
(26.2595 9.66409 -0.579017 26.2595 -4.26461e-07 26.2595)
(26.2696 10.5928 -0.642947 26.2696 -5.11528e-07 26.2696)
(26.2685 10.5905 -0.64282 26.2685 2.12689e-06 26.2685)
(26.2857 11.614 -0.7158 26.2857 -1.15132e-05 26.2857)
(26.2845 11.611 -0.715633 26.2845 -4.76427e-07 26.2845)
(26.3035 12.6856 -0.795485 26.3035 -4.94763e-07 26.3035)
(26.3022 12.6816 -0.795263 26.3022 2.15411e-06 26.3022)
(26.3167 13.7535 -0.878977 26.3167 -1.12332e-05 26.3167)
(26.3154 13.7479 -0.87867 26.3154 -5.68321e-07 26.3154)
(26.3188 14.7552 -0.96239 26.3188 -4.71984e-07 26.3188)
(26.3174 14.7471 -0.961948 26.3174 2.14055e-06 26.3174)
(26.3031 15.6227 -1.04117 26.3031 -1.09418e-05 26.3031)
(26.3017 15.6106 -1.04051 26.3017 -7.07344e-07 26.3017)
(26.2632 16.2858 -1.1102 26.2632 -4.40837e-07 26.2632)
(26.2618 16.2685 -1.10919 26.2618 2.08962e-06 26.2618)
(26.194 16.6766 -1.10336 26.194 -1.07423e-05 26.194)
(26.1928 16.6548 -1.10331 26.1928 -8.89271e-07 26.1928)
(26.092 16.7328 -0.518781 26.092 -3.96161e-07 26.092)
(26.0911 16.7142 -0.518736 26.0911 2.01923e-06 26.0911)
(25.9565 16.4034 0.0775359 25.9565 -1.06461e-05 25.9565)
(25.9561 16.4054 0.077578 25.9561 -1.07904e-06 25.9561)
(25.7895 15.6682 0.670411 25.7895 -4.49986e-07 25.7895)
(25.7895 15.6899 0.670447 25.7895 2.08161e-06 25.7895)
(25.5957 14.5272 1.03461 25.5957 -1.08441e-05 25.5957)
(25.596 14.5506 1.03619 25.596 -1.06587e-06 25.596)
(25.3823 12.9866 0.918149 25.3823 -5.83318e-07 25.3823)
(25.3827 13.0045 0.919253 25.3827 2.27555e-06 25.3827)
(25.1591 11.0758 0.771122 25.1591 -1.11623e-05 25.1591)
(25.1595 11.0879 0.771858 25.1595 -9.82763e-07 25.1595)
(24.9365 8.84677 0.597126 24.9365 -6.89372e-07 24.9365)
(24.9369 8.85483 0.597638 24.9369 2.53241e-06 24.9369)
(24.7254 6.36651 0.400871 24.7253 -1.15797e-05 24.7254)
(24.7256 6.37226 0.401262 24.7256 -8.19584e-07 24.7256)
(24.5347 3.7137 0.188401 24.5347 -7.53762e-07 24.5347)
(24.5349 3.71822 0.188732 24.5349 2.84211e-06 24.5349)
(24.3712 -7.96977e-20 -0 24.3712 -1.20879e-05 24.3712)
(24.3713 0.00430867 0.000175119 24.3713 -6.46241e-07 24.3713)
(24.2384 -0.825336 0.0340323 24.2384 -7.73515e-07 24.2384)
(24.2384 -0.817757 0.0337198 24.2384 3.17087e-06 24.2384)
(24.136 -4.41294 0.261527 24.136 -1.26159e-05 24.136)
(24.1359 -4.40886 0.261205 24.1359 -4.96143e-07 24.1359)
(24.0592 -6.8931 0.484564 24.0592 -7.54627e-07 24.0592)
(24.059 -6.88822 0.484197 24.059 3.47267e-06 24.059)
(24.0008 -9.13064 0.696058 24.0008 -1.30594e-05 24.0008)
(24.0005 -9.12401 0.695588 24.0005 -4.17638e-07 24.0005)
(23.9512 -11.0655 0.889364 23.9512 -7.0916e-07 23.9512)
(23.9509 -11.0555 0.888681 23.9509 3.71723e-06 23.9509)
(23.9003 -12.6552 1.05889 23.9003 -1.32124e-05 23.9003)
(23.8999 -12.6397 1.05781 23.8999 -4.36349e-07 23.8999)
(23.8379 -13.8719 1.2005 23.8379 -6.4417e-07 23.8379)
(23.8376 -13.8507 1.19882 23.8376 3.89905e-06 23.8376)
(23.7553 -14.7008 0.672571 23.7553 -1.31758e-05 23.7553)
(23.7553 -14.6822 0.672507 23.7553 -5.52167e-07 23.7553)
(23.6461 -15.1451 -0.0133195 23.6461 -5.63081e-07 23.6461)
(23.6464 -15.148 -0.013398 23.6464 4.04938e-06 23.6464)
(23.5063 -15.2389 -0.729597 23.5063 -1.30282e-05 23.5063)
(23.507 -15.2601 -0.72967 23.507 -5.6576e-07 23.507)
(23.3342 -15.0259 -1.41789 23.3342 -7.99186e-07 23.3342)
(23.3351 -15.0457 -1.41946 23.3351 4.54203e-06 23.3351)
(23.1301 -14.5435 -1.38015 23.1301 -1.30328e-05 23.1301)
(23.1311 -14.5568 -1.38113 23.1311 -4.45269e-07 23.1311)
(22.8969 -13.8363 -1.32116 22.8969 -1.05495e-06 22.8969)
(22.8978 -13.8444 -1.32176 22.8979 5.1057e-06 22.8978)
(22.6387 -12.9535 -1.24508 22.6387 -1.31084e-05 22.6387)
(22.6396 -12.9586 -1.24547 22.6396 -3.05671e-07 22.6396)
(22.3611 -11.9441 -1.15592 22.3611 -1.31124e-06 22.3611)
(22.3619 -11.9474 -1.1562 22.3619 5.74312e-06 22.3619)
(22.0699 -10.8513 -1.0573 22.0699 -1.32733e-05 22.0699)
(22.0707 -10.8537 -1.05751 22.0707 -1.50019e-07 22.0707)
(21.7713 -9.71319 -0.952614 21.7713 -1.59315e-06 21.7713)
(21.772 -9.71498 -0.952778 21.772 6.47961e-06 21.772)
(21.4712 -8.56095 -0.844518 21.4712 -1.78062e-05 21.4712)
(21.4718 -8.56235 -0.84465 21.4718 -8.01364e-09 21.4718)
(21.1751 -7.41718 -0.734923 21.1751 -1.0279e-05 21.1751)
(21.1756 -7.41831 -0.735032 21.1757 7.29521e-06 21.1756)
(20.888 -6.29657 -0.625072 20.888 -2.35519e-05 20.888)
(20.8884 -6.29749 -0.625163 20.8884 1.34697e-07 20.8884)
(20.6139 -5.20613 -0.515368 20.6139 -1.259e-05 20.6139)
(20.6143 -5.2069 -0.515447 20.6143 7.10538e-06 20.6143)
(20.3566 -4.14531 -0.405456 20.3566 -2.59269e-05 20.3566)
(20.3569 -4.14597 -0.405525 20.3569 -7.31762e-06 20.3569)
(20.1189 -3.10686 -0.294224 20.1189 -1.41052e-05 20.1189)
(20.1191 -3.10745 -0.294287 20.1191 -4.43213e-06 20.1191)
(19.903 -2.07792 -0.179937 19.903 -2.7448e-05 19.903)
(19.9032 -2.07846 -0.179997 19.9032 -1.36473e-05 19.9032)
(19.7107 -1.03528 -0.0603655 19.7107 -1.43752e-05 19.7107)
(19.7108 -1.03629 -0.0604243 19.7108 -3.86338e-06 19.7108)
(19.5429 0.00300848 -0.00017797 19.5429 -2.77593e-05 19.5429)
(19.543 0.00296372 -0.000175323 19.543 -1.33465e-05 19.543)
(19.3999 1.12471 -0.0675009 19.3999 -1.33654e-05 19.3999)
(19.3999 1.12369 -0.0674397 19.3999 -1.89009e-06 19.3999)
(19.2813 2.28732 -0.206025 19.2813 -2.70676e-05 19.2813)
(19.2813 2.28676 -0.205959 19.2813 -1.18742e-05 19.2813)
(19.1858 3.51316 -0.356347 19.1858 -1.15147e-05 19.1858)
(19.1857 3.51254 -0.356274 19.1857 1.14251e-06 19.1857)
(19.1109 4.80114 -0.519264 19.1109 -2.61546e-05 19.1109)
(19.1108 4.80044 -0.519181 19.1108 -1.00085e-05 19.1108)
(19.0532 6.13847 -0.694312 19.0532 -9.6682e-06 19.0532)
(19.053 6.13767 -0.694217 19.053 4.4209e-06 19.053)
(19.0074 7.50036 -0.879469 19.0074 -2.59344e-05 19.0074)
(19.0072 7.49942 -0.879357 19.0072 -8.66622e-06 19.0072)
(18.9675 8.84945 -1.07095 18.9675 -8.83252e-06 18.9675)
(18.9672 8.84834 -1.07082 18.9672 6.93257e-06 18.9672)
(18.9256 10.1371 -1.26305 18.9256 -2.73357e-05 18.9256)
(18.9253 10.1357 -1.26288 18.9253 -8.78758e-06 18.9253)
(18.8735 11.3055 -1.44838 18.8735 -9.49768e-06 18.8735)
(18.8731 11.3038 -1.44818 18.8731 8.17325e-06 18.8731)
(18.8022 12.2914 -1.61805 18.8022 -3.05432e-05 18.8022)
(18.8017 12.2892 -1.61779 18.8017 -1.04481e-05 18.8017)
(18.7033 13.0316 -1.76234 18.7033 -1.14121e-05 18.7033)
(18.7028 13.0284 -1.76198 18.7028 8.34925e-06 18.7028)
(18.5696 13.4674 -1.87137 18.5696 -3.49454e-05 18.5696)
(18.569 13.4623 -1.87083 18.569 -1.27677e-05 18.569)
(18.396 13.5513 -1.9358 18.396 -1.37377e-05 18.396)
(18.3954 13.5423 -1.93489 18.3954 8.23314e-06 18.3954)
(18.1804 13.2513 -1.56671 18.1804 -3.93768e-05 18.1804)
(18.1799 13.2365 -1.56657 18.1799 -1.48517e-05 18.1799)
(17.9245 12.5521 -0.626883 17.9245 -1.52273e-05 17.9245)
(17.9241 12.5377 -0.626677 17.9241 9.10424e-06 17.9241)
(17.6335 11.4593 0.266827 17.6335 -4.26832e-05 17.6335)
(17.6334 11.4645 0.267089 17.6334 -1.5455e-05 17.6334)
(17.3153 10.0204 1.08291 17.3153 -1.51422e-05 17.3153)
(17.3154 10.04 1.08308 17.3154 1.21571e-05 17.3154)
(16.9793 8.30189 1.13762 16.9793 -4.4408e-05 16.9793)
(16.9794 8.31547 1.13906 16.9794 -1.40542e-05 16.9794)
(16.6357 6.37081 0.838522 16.6357 -1.3016e-05 16.6357)
(16.6358 6.3779 0.83928 16.6358 1.73633e-05 16.6358)
(16.2947 4.31537 0.518394 16.2947 -4.49609e-05 16.2947)
(16.2948 4.3193 0.518875 16.2948 -1.13118e-05 16.2948)
(15.9644 2.23476 0.192881 15.9644 -9.75649e-06 15.9644)
(15.9645 2.23742 0.193248 15.9645 2.42721e-05 15.9645)
(15.6501 1.41966e-14 -4.72371e-21 15.6501 -4.54586e-05 15.6501)
(15.6502 0.000500686 4.06909e-05 15.6502 -8.04877e-06 15.6502)
(15.3536 -1.48692 0.122599 15.3536 -6.56307e-06 15.3536)
(15.3536 -1.48299 0.122276 15.3537 3.17009e-05 15.3536)
(15.074 -3.19169 0.412426 15.074 -4.71452e-05 15.074)
(15.074 -3.18973 0.41211 15.074 -5.47925e-06 15.074)
(14.8076 -4.45775 0.661722 14.8076 -4.72854e-06 14.8076)
(14.8075 -4.45548 0.661379 14.8075 3.83833e-05 14.8075)
(14.5498 -5.3629 0.858955 14.5498 -5.11193e-05 14.5498)
(14.5497 -5.3597 0.858523 14.5497 -4.46986e-06 14.5497)
(14.2963 -5.88836 0.996183 14.2963 -4.39651e-06 14.2963)
(14.2962 -5.88296 0.995507 14.2962 4.42811e-05 14.2962)
(14.0439 -6.04125 1.06959 14.0439 -5.72758e-05 14.0439)
(14.0438 -6.03272 1.06836 14.0438 -4.82834e-06 14.0438)
(13.791 -5.85243 0.707822 13.791 -5.234e-06 13.791)
(13.7909 -5.84439 0.70758 13.7909 4.97908e-05 13.7909)
(13.5384 -5.3732 0.197384 13.5384 -6.50839e-05 13.5384)
(13.5384 -5.37438 0.197074 13.5384 -5.86012e-06 13.5384)
(13.2881 -4.67832 -0.268962 13.2881 -6.40691e-06 13.2881)
(13.2881 -4.68739 -0.269204 13.2882 5.61235e-05 13.2881)
(13.0429 -3.85005 -0.642399 13.0429 -7.41519e-05 13.0429)
(13.043 -3.85825 -0.643638 13.043 -6.75979e-06 13.043)
(12.8056 -2.96337 -0.480104 12.8056 -7.19231e-06 12.8056)
(12.8056 -2.96863 -0.480852 12.8057 6.38879e-05 12.8056)
(12.5788 -2.08979 -0.322265 12.5788 -8.37545e-05 12.5788)
(12.5788 -2.09293 -0.322723 12.5788 -7.26162e-06 12.5788)
(12.3644 -1.29242 -0.180465 12.3644 -7.5196e-06 12.3644)
(12.3645 -1.29435 -0.18076 12.3645 7.34006e-05 12.3645)
(12.1637 -0.620113 -0.0635547 12.1637 -9.46141e-05 12.1637)
(12.1638 -0.621352 -0.0637489 12.1638 -7.46905e-06 12.1638)
(11.9771 -7.87203e-15 2.32153e-16 11.9771 -7.61324e-06 11.9771)
(11.9771 -0.000521565 -5.26361e-05 11.9772 8.4879e-05 11.9771)
(11.8046 0.222454 -0.0227764 11.8046 -0.00010726 11.8046)
(11.8047 0.221254 -0.0226535 11.8047 -7.63507e-06 11.8047)
(11.6461 0.407597 -0.0757755 11.6461 -7.8672e-06 11.6461)
(11.6461 0.407435 -0.0757141 11.6461 9.821e-05 11.6461)
(11.5012 0.418385 -0.0949654 11.5013 -0.000122352 11.5012)
(11.5013 0.418477 -0.0949599 11.5013 -8.13061e-06 11.5013)
(11.3699 0.290908 -0.0824551 11.3699 -8.67421e-06 11.3699)
(11.3699 0.291211 -0.0825001 11.3699 0.000113316 11.3699)
(11.2519 0.00480796 -0.0422868 11.2519 -0.000140449 11.2519)
(11.2519 0.0051334 -0.0423729 11.2519 -9.00354e-06 11.2519)
(11.1471 -0.177168 -0.0949862 11.1471 -9.66069e-06 11.1471)
(11.1471 -0.176145 -0.0948673 11.1471 0.000131092 11.1471)
(11.0553 -0.617283 -0.179732 11.0553 -0.000161786 11.0553)
(11.0553 -0.616767 -0.179622 11.0553 -1.00787e-05 11.0553)
(10.9761 -0.993179 -0.267799 10.9761 -1.08096e-05 10.9761)
(10.9761 -0.992741 -0.267712 10.9761 0.000151947 10.9761)
(10.9089 -1.36148 -0.353848 10.9089 -0.000186531 10.9089)
(10.9089 -1.36116 -0.353791 10.9089 -1.09906e-05 10.9089)
(10.8531 -1.70081 -0.433317 10.8531 -1.15734e-05 10.8531)