/*--------------------------------*- C++ -*----------------------------------*\
| =========                 |                                                 |
| \\      /  F ield         | OpenFOAM: The Open Source CFD Toolbox           |
|  \\    /   O peration     | Version:  2012                                  |
|   \\  /    A nd           | Website:  www.openfoam.com                      |
|    \\/     M anipulation  |                                                 |
\*---------------------------------------------------------------------------*/
FoamFile
{
    version     2.0;
    format      ascii;
    class       volVectorField;
    location    "13000";
    object      U;
}
// * * * * * * * * * * * * * * * * * * * * * * * * * * * * * * * * * * * * * //

dimensions      [0 1 -1 0 0 0 0];


internalField   nonuniform List<vector> 
2560
(
(0.0348342 -2.6778e-05 0.000583701)
(0.0347937 -1.11863e-05 5.48517e-08)
(0.104754 -1.38549e-05 0.0008086)
(0.104633 2.04791e-05 1.9252e-08)
(0.175489 -2.82545e-05 0.000519184)
(0.175289 3.09935e-05 5.47811e-09)
(0.247045 -3.70621e-05 0.000255294)
(0.246772 3.67088e-05 1.4181e-09)
(0.319434 -3.98307e-05 0.000134936)
(0.319094 3.98064e-05 3.76069e-10)
(0.39267 -4.16622e-05 8.33242e-05)
(0.392269 4.1595e-05 8.11463e-11)
(0.466727 -4.2841e-05 5.80716e-05)
(0.466274 4.29069e-05 1.41067e-10)
(0.541557 -4.38924e-05 4.38951e-05)
(0.541057 4.37483e-05 1.3251e-11)
(0.617105 -4.45065e-05 3.50612e-05)
(0.616566 4.46183e-05 9.84721e-11)
(0.693386 -4.5289e-05 2.91226e-05)
(0.692814 4.50825e-05 3.87128e-12)
(0.770488 -4.56306e-05 2.49001e-05)
(0.76989 4.57947e-05 8.90042e-11)
(0.848453 -4.63095e-05 2.17671e-05)
(0.847835 4.60515e-05 -3.2415e-21)
(0.927329 -4.6517e-05 1.9364e-05)
(0.926696 4.67018e-05 6.28913e-11)
(1.0072 -4.70707e-05 1.7461e-05)
(1.00656 6.00751e-05 4.86083e-08)
(1.08807 -4.73936e-05 1.59506e-05)
(1.08742 2.11437e-05 2.37492e-21)
(1.16988 -4.74137e-05 1.46797e-05)
(1.16923 0.000104397 1.24086e-07)
(1.25251 -4.85437e-05 1.3675e-05)
(1.25187 -4.09894e-05 4.39609e-10)
(1.33585 -4.76115e-05 1.28035e-05)
(1.33522 0.000141015 3.75006e-08)
(1.41993 -4.94688e-05 1.20715e-05)
(1.4193 -5.26876e-05 7.06548e-10)
(1.505 -4.76533e-05 1.1435e-05)
(1.50438 0.000153869 3.63116e-08)
(1.5914 -5.05232e-05 1.08934e-05)
(1.5908 -6.43069e-05 5.29287e-10)
(1.67936 -4.75709e-05 1.04136e-05)
(1.67877 0.000166502 3.46511e-08)
(1.76895 -5.16189e-05 1.00021e-05)
(1.76837 -7.58045e-05 5.26297e-36)
(1.86017 -4.72534e-05 9.60618e-06)
(1.85961 0.000205644 1.4355e-07)
(1.95305 -5.29302e-05 9.31576e-06)
(1.9525 -0.000140681 1.37885e-21)
(2.04762 -4.67996e-05 8.99301e-06)
(2.04709 0.000280234 1.92428e-07)
(2.14393 -5.45108e-05 8.78543e-06)
(2.14342 -0.000224782 1.60164e-09)
(2.24197 -4.60746e-05 8.55793e-06)
(2.24148 0.000334063 7.04934e-08)
(2.34174 -5.63008e-05 8.37379e-06)
(2.34125 -0.000247932 3.3732e-09)
(2.4432 -4.4992e-05 8.19355e-06)
(2.44273 0.000358527 7.24968e-08)
(2.54641 -5.84013e-05 8.05137e-06)
(2.54596 -0.000271882 3.14536e-09)
(2.65161 -4.35155e-05 7.90724e-06)
(2.65117 0.000383342 6.8727e-08)
(2.75923 -6.09078e-05 7.7967e-06)
(2.7588 -0.000295677 1.43229e-09)
(2.8699 -4.15389e-05 7.68081e-06)
(2.86948 0.000407855 6.36546e-08)
(2.9843 -6.39311e-05 7.5957e-06)
(2.98389 -0.000318997 3.68723e-21)
(3.10303 -3.89942e-05 7.4661e-06)
(3.10263 0.000464348 2.20477e-07)
(3.22648 -6.76396e-05 7.44385e-06)
(3.22608 -0.000407523 7.83186e-38)
(3.35481 -3.57983e-05 7.2175e-06)
(3.35442 0.000653372 7.29455e-07)
(3.48794 -7.2109e-05 7.34456e-06)
(3.48755 -0.000698523 -3.53459e-21)
(3.62565 -3.18753e-05 7.09471e-06)
(3.62527 0.000982933 9.5364e-07)
(3.7677 -7.73183e-05 7.29817e-06)
(3.76732 -0.00106981 1.04564e-21)
(3.91404 -2.72378e-05 7.11594e-06)
(3.91367 0.00131933 7.9761e-07)
(4.06501 -8.31985e-05 7.29839e-06)
(4.06465 -0.00137341 3.45147e-21)
(4.22152 -2.19182e-05 7.23062e-06)
(4.22116 0.00155127 4.23482e-07)
(4.38501 -8.97105e-05 7.33498e-06)
(4.38465 -0.00153327 -3.98898e-37)
(4.55723 -1.5939e-05 7.32448e-06)
(4.55687 0.00168143 2.57305e-07)
(4.73989 -9.69171e-05 7.40122e-06)
(4.73953 -0.00163203 1.91133e-36)
(4.93431 -9.23397e-06 7.38187e-06)
(4.93395 0.00179789 3.55491e-07)
(5.14121 -0.000104913 7.49719e-06)
(5.14085 -0.00176497 -3.42647e-21)
(5.36072 -1.72915e-06 7.04929e-06)
(5.36036 0.00224003 2.19527e-06)
(5.59247 -0.000113303 7.64057e-06)
(5.59212 -0.00252285 3.44136e-21)
(5.83547 6.41713e-06 7.34563e-06)
(5.83513 0.00291553 1.77764e-06)
(6.0876 -0.000121608 7.85957e-06)
(6.08727 -0.00311722 3.34819e-08)
(6.3446 1.43812e-05 7.95208e-06)
(6.3443 0.00330513 6.90601e-07)
(6.59881 -0.00012968 8.25407e-06)
(6.59855 -0.00329741 1.4894e-07)
(6.83767 2.07784e-05 8.46149e-06)
(6.83746 0.00351521 1.26349e-06)
(7.04296 -0.000137871 9.01763e-06)
(7.04282 -0.00353799 3.59575e-07)
(7.19116 2.45892e-05 9.41003e-06)
(7.19112 0.00379567 2.01638e-06)
(7.25552 -0.000145406 1.0289e-05)
(7.25559 -0.00386418 5.76399e-07)
(7.20984 2.6437e-05 1.08549e-05)
(7.21005 0.00414949 2.44815e-06)
(7.03328 -0.000149692 1.1916e-05)
(7.03366 -0.0042515 6.20712e-07)
(6.715 2.75978e-05 1.25128e-05)
(6.71556 0.00452883 2.07223e-06)
(6.25735 -0.000149008 1.34321e-05)
(6.25812 -0.00462075 3.92977e-07)
(5.67663 2.75862e-05 1.38774e-05)
(5.67762 0.00485612 9.85919e-07)
(5.00097 -0.000144608 1.43936e-05)
(5.00219 -0.0048957 5.35266e-21)
(4.2661 2.43164e-05 1.45997e-05)
(4.26756 0.0050881 4.4269e-08)
(3.51023 -0.000138852 1.4484e-05)
(3.51194 -0.0049485 1.0724e-06)
(2.76925 1.71898e-05 1.4542e-05)
(2.77118 0.00509676 3.06911e-07)
(2.07313 -0.00013284 1.42311e-05)
(2.07526 -0.00493802 1.66966e-06)
(1.44427 7.72201e-06 1.42596e-05)
(1.44654 0.00506674 3.87926e-07)
(0.897308 -0.000126505 1.39511e-05)
(0.899627 -0.00491296 1.73454e-06)
(0.44009 -2.1234e-06 1.40224e-05)
(0.442334 0.00504357 3.64842e-07)
(0.075204 -0.000119952 8.56648e-07)
(0.0772282 -0.000161734 4.10756e-06)
(-0.198534 -1.01372e-05 6.93334e-07)
(-0.196879 0.000250519 4.14809e-07)
(-0.384864 -0.000112833 6.79849e-07)
(-0.383664 -8.96053e-05 9.61809e-07)
(-0.48918 -1.69978e-05 5.25207e-07)
(-0.488466 0.000188072 3.07945e-07)
(-0.517989 -0.000106383 5.12971e-07)
(-0.517763 -3.47071e-05 7.34384e-07)
(-0.478571 -2.30448e-05 3.74098e-07)
(-0.478815 0.000141528 2.26431e-07)
(-0.378703 -0.000100666 3.65383e-07)
(-0.379385 3.49681e-06 5.16697e-07)
(-0.226361 -2.84172e-05 2.42407e-07)
(-0.227432 0.000110343 1.54999e-07)
(-0.0294617 -9.55815e-05 2.39102e-07)
(-0.0308446 2.7608e-05 3.29311e-07)
(0.204403 -3.32576e-05 1.32871e-07)
(0.202825 9.17815e-05 1.16768e-07)
(0.46824 -9.09526e-05 1.39312e-07)
(0.466588 4.0511e-05 1.78993e-07)
(0.755789 -3.75804e-05 5.18566e-08)
(0.754162 8.283e-05 1.60681e-07)
(1.06151 -8.66902e-05 6.74206e-08)
(1.05998 4.5612e-05 1.68462e-07)
(1.3805 -4.15039e-05 1.61622e-21)
(1.37911 8.07172e-05 1.96119e-07)
(1.70825 -8.32984e-05 6.06526e-08)
(1.70702 4.50962e-05 1.84462e-07)
(2.04047 -4.39941e-05 7.01201e-08)
(2.0394 7.9997e-05 1.91215e-07)
(2.37283 -8.08218e-05 1.47785e-07)
(2.37191 4.72711e-05 1.94559e-07)
(2.70079 -4.62292e-05 1.82642e-07)
(2.7 7.80248e-05 2.01479e-07)
(3.01953 -7.87063e-05 2.82616e-07)
(3.01886 4.912e-05 2.81595e-07)
(3.32399 -4.82777e-05 3.43862e-07)
(3.32343 7.62056e-05 3.45777e-07)
(3.60901 -7.69268e-05 4.60384e-07)
(3.60854 5.06631e-05 4.59634e-07)
(3.8696 -5.01584e-05 5.34198e-07)
(3.86921 7.45241e-05 5.36105e-07)
(4.10128 -7.53905e-05 6.4826e-07)
(4.10097 5.19893e-05 6.47769e-07)
(4.30042 -5.1838e-05 7.11699e-07)
(4.30017 7.3017e-05 7.13606e-07)
(4.46455 -7.4023e-05 7.9917e-07)
(4.46436 5.31701e-05 7.98923e-07)
(4.59264 -5.32389e-05 8.30844e-07)
(4.5925 7.17647e-05 8.32754e-07)
(4.68521 -7.27427e-05 8.77133e-07)
(4.68511 5.42844e-05 8.77107e-07)
(4.74429 -5.43817e-05 8.69489e-07)
(4.74423 7.0749e-05 8.71398e-07)
(4.77334 -7.15194e-05 8.76251e-07)
(4.77332 5.53595e-05 8.76422e-07)
(4.77696 -5.53394e-05 8.37916e-07)
(4.77696 6.98991e-05 8.39819e-07)
(4.76062 -7.03862e-05 8.19687e-07)
(4.76064 5.63603e-05 8.20034e-07)
(4.73029 -5.61729e-05 7.68842e-07)
(4.73032 6.91562e-05 7.7074e-07)
(4.69216 -6.94177e-05 7.43668e-07)
(4.69219 5.72099e-05 7.44177e-07)
(4.6523 -5.69335e-05 6.95594e-07)
(4.65233 6.84708e-05 6.97497e-07)
(4.61647 -6.86099e-05 6.75541e-07)
(4.6165 5.79105e-05 6.76211e-07)
(4.58992 -5.76428e-05 6.37642e-07)
(4.58993 6.78231e-05 6.3957e-07)
(4.57724 -6.792e-05 6.27013e-07)
(4.57724 5.8503e-05 6.27854e-07)
(4.5823 -5.82868e-05 6.0104e-07)
(4.58229 6.72283e-05 6.03025e-07)
(4.6081 -6.73021e-05 6.01155e-07)
(4.60807 5.90318e-05 6.02196e-07)
(4.65671 -5.88338e-05 5.89919e-07)
(4.65666 6.67195e-05 5.92007e-07)
(4.72917 -6.67572e-05 6.05029e-07)
(4.7291 5.94946e-05 6.06308e-07)
(4.82537 -5.92947e-05 6.13907e-07)
(4.82528 6.62869e-05 6.16155e-07)
(4.944 -6.62487e-05 6.52675e-07)
(4.94389 5.99268e-05 6.54242e-07)
(5.08247 -5.9749e-05 6.89201e-07)
(5.08235 6.58519e-05 6.91671e-07)
(5.23696 -6.58256e-05 7.54753e-07)
(5.23684 6.02785e-05 7.56662e-07)
(5.40252 -6.01306e-05 8.21392e-07)
(5.40239 6.54812e-05 8.24143e-07)
(5.57322 -6.54731e-05 9.16197e-07)
(5.5731 6.05634e-05 9.18494e-07)
(5.74249 -6.04548e-05 1.01455e-06)
(5.74238 6.51604e-05 1.01763e-06)
(5.90348 -6.51289e-05 1.14319e-06)
(5.90338 6.08432e-05 1.1459e-06)
(6.04944 -6.07008e-05 1.28256e-06)
(6.04936 6.49108e-05 1.286e-06)
(6.17426 -6.47617e-05 1.46157e-06)
(6.1742 6.11483e-05 1.4647e-06)
(6.27282 -6.08689e-05 1.66654e-06)
(6.27278 6.47326e-05 1.67032e-06)
(6.34141 -6.4397e-05 1.92749e-06)
(6.34138 6.14529e-05 1.93102e-06)
(6.37795 -6.10038e-05 2.23423e-06)
(6.37794 6.45817e-05 2.23833e-06)
(6.3821 -6.41267e-05 2.61163e-06)
(6.3821 6.16642e-05 2.61551e-06)
(6.3552 -6.1187e-05 3.04685e-06)
(6.35523 6.43769e-05 3.05121e-06)
(6.3001 -6.40391e-05 3.55204e-06)
(6.30014 6.16936e-05 3.55619e-06)
(6.22077 -6.15311e-05 4.10166e-06)
(6.22082 6.40062e-05 4.10622e-06)
(6.12191 -6.41442e-05 4.69156e-06)
(6.12196 6.15305e-05 4.69594e-06)
(6.00849 -6.20505e-05 5.27937e-06)
(6.00855 6.34556e-05 5.2841e-06)
(5.88531 -6.44281e-05 5.84229e-06)
(5.88538 6.11884e-05 5.84684e-06)
(5.75661 -6.26077e-05 6.32847e-06)
(5.75668 6.28627e-05 6.33332e-06)
(5.62582 -6.46776e-05 6.71089e-06)
(5.62589 6.08802e-05 6.71559e-06)
(5.49538 -6.30144e-05 6.94274e-06)
(5.49546 6.24162e-05 6.9477e-06)
(5.36675 -6.46993e-05 7.00956e-06)
(5.36682 6.07989e-05 7.01439e-06)
(5.24042 -6.307e-05 6.88917e-06)
(5.24049 6.23166e-05 6.89423e-06)
(5.11614 -6.43589e-05 6.59591e-06)
(5.11621 6.10788e-05 6.60087e-06)
(4.99311 -6.276e-05 6.13994e-06)
(4.99319 6.25788e-05 6.1451e-06)
(4.87024 -6.37532e-05 5.56279e-06)
(4.87031 6.16225e-05 5.56786e-06)
(4.74633 -6.22722e-05 4.89665e-06)
(4.74641 6.30151e-05 4.90188e-06)
(4.62034 -6.31147e-05 4.19402e-06)
(4.62042 6.21973e-05 4.19916e-06)
(4.49151 -6.18599e-05 3.48872e-06)
(4.49159 6.33726e-05 3.494e-06)
(4.35947 -6.26545e-05 2.825e-06)
(4.35955 6.25916e-05 2.83018e-06)
(4.22429 -6.16709e-05 2.22265e-06)
(4.22438 6.35036e-05 2.22794e-06)
(4.08649 -6.24791e-05 1.7041e-06)
(4.08657 6.26989e-05 1.70928e-06)
(3.94691 -6.17076e-05 1.27036e-06)
(3.947 6.34057e-05 1.27561e-06)
(3.80671 -6.25046e-05 9.25369e-07)
(3.80681 6.26027e-05 9.30504e-07)
(3.66719 -6.18778e-05 6.56322e-07)
(3.66728 6.31712e-05 6.61521e-07)
(3.52967 -6.26147e-05 4.56973e-07)
(3.52977 6.24191e-05 6.53541e-07)
(3.39543 -6.20641e-05 3.10332e-07)
(3.39552 6.29175e-05 6.59319e-07)
(3.26552 -6.27144e-05 2.08505e-07)
(3.26561 6.22431e-05 6.66431e-07)
(3.14074 -6.22052e-05 1.43548e-07)
(3.14084 6.27059e-05 6.72182e-07)
(3.02158 -6.27619e-05 1.63887e-07)
(3.02167 6.21161e-05 6.79176e-07)
(2.90812 -6.22926e-05 1.57412e-07)
(2.90821 6.2545e-05 6.84871e-07)
(2.8001 -6.2761e-05 1.80937e-07)
(2.80019 6.2034e-05 6.91602e-07)
(2.69686 -6.23343e-05 1.73824e-07)
(2.69694 6.24267e-05 6.97232e-07)
(2.59737 -6.27258e-05 1.98375e-07)
(2.59745 6.19829e-05 7.03554e-07)
(2.50028 -6.23601e-05 2.01279e-07)
(2.50036 6.23213e-05 7.09161e-07)
(2.40395 -6.26883e-05 2.1601e-07)
(2.40403 6.19305e-05 7.14983e-07)
(2.30649 -6.23181e-05 2.24719e-07)
(2.30658 6.22809e-05 7.20639e-07)
(2.20582 -6.26712e-05 2.25918e-07)
(2.20592 6.1854e-05 7.25996e-07)
(2.09977 -6.23076e-05 2.38939e-07)
(2.09988 6.22059e-05 7.31825e-07)
(1.98616 -6.26185e-05 2.36454e-07)
(1.98628 6.1809e-05 7.36908e-07)
(1.86292 -6.22955e-05 2.53015e-07)
(1.86306 6.21297e-05 7.43121e-07)
(1.72818 -6.25666e-05 2.47921e-07)
(1.72835 6.17586e-05 7.48279e-07)
(1.58048 -6.22811e-05 2.66823e-07)
(1.58067 6.20526e-05 7.55206e-07)
(1.41882 -6.25154e-05 2.60349e-07)
(1.41905 6.17027e-05 7.60957e-07)
(1.24287 -6.22645e-05 2.80176e-07)
(1.24316 6.19746e-05 7.69047e-07)
(1.05304 -6.24644e-05 2.75241e-07)
(1.05341 6.16411e-05 7.76061e-07)
(0.850577 -6.22461e-05 2.92884e-07)
(0.85107 6.18949e-05 7.85849e-07)
(0.637633 -6.24131e-05 2.89403e-07)
(0.638312 6.15736e-05 7.9486e-07)
(0.41725 -6.22254e-05 3.04748e-07)
(0.418193 6.18134e-05 8.06868e-07)
(0.193333 -6.23609e-05 3.02419e-07)
(0.194583 6.14997e-05 8.18549e-07)
(-0.0294227 -6.22028e-05 3.15435e-07)
(-0.0279927 6.1731e-05 8.33107e-07)
(-0.245699 -6.23123e-05 3.14315e-07)
(-0.24451 6.14248e-05 8.47431e-07)
(-0.450142 -6.21616e-05 3.27624e-07)
(-0.449297 6.163e-05 8.6172e-07)
(-0.637248 -6.22697e-05 3.30144e-07)
(-0.636688 6.13523e-05 8.7617e-07)
(-0.80161 -6.21163e-05 3.43497e-07)
(-0.801247 6.15249e-05 8.89935e-07)
(-0.938282 -6.2226e-05 3.49619e-07)
(-0.938049 6.12736e-05 9.03943e-07)
(-1.04306 -6.2067e-05 3.62377e-07)
(-1.04292 6.14151e-05 9.16755e-07)
(-1.1127 -6.21817e-05 3.70846e-07)
(-1.11262 6.11885e-05 9.29821e-07)
(-1.14508 -6.20135e-05 3.83165e-07)
(-1.14506 6.13008e-05 9.41459e-07)
(-1.13936 -6.21367e-05 3.92425e-07)
(-1.13939 6.10977e-05 9.53508e-07)
(-1.09595 -6.19581e-05 4.04621e-07)
(-1.09604 6.11794e-05 9.64268e-07)
(-1.01654 -6.20913e-05 4.12619e-07)
(-1.01668 6.10015e-05 9.75925e-07)
(-0.903919 -6.18991e-05 4.25654e-07)
(-0.904139 6.10519e-05 9.8674e-07)
(-0.761882 -6.2047e-05 4.2966e-07)
(-0.76221 6.08985e-05 9.99292e-07)
(-0.594928 -6.18364e-05 4.45531e-07)
(-0.595425 6.09171e-05 1.01147e-06)
(-0.407997 -6.20036e-05 4.41293e-07)
(-0.408755 6.07887e-05 1.02652e-06)
(-0.20632 -6.17702e-05 4.63764e-07)
(-0.207408 6.0773e-05 1.04135e-06)
(0.00479103 -6.19604e-05 4.57323e-07)
(0.00351235 6.06723e-05 1.06042e-06)
(0.220209 -6.17103e-05 4.7983e-07)
(0.219203 6.06304e-05 1.07859e-06)
(0.435542 -6.18939e-05 4.77786e-07)
(0.434858 6.05223e-05 1.09783e-06)
(0.646813 -6.16564e-05 5.02716e-07)
(0.646359 6.04911e-05 1.11526e-06)
(0.850562 -6.18255e-05 5.05588e-07)
(0.850249 6.03626e-05 1.13447e-06)
(1.04393 -6.15992e-05 5.33178e-07)
(1.0437 6.03419e-05 1.15083e-06)
(1.22469 -6.17516e-05 5.4122e-07)
(1.22451 6.0197e-05 1.16949e-06)
(1.39122 -6.15348e-05 5.71477e-07)
(1.39108 6.01868e-05 1.18428e-06)
(1.54243 -6.16775e-05 5.84744e-07)
(1.54232 6.00207e-05 1.20178e-06)
(1.6777 -6.14553e-05 6.18632e-07)
(1.67761 6.00348e-05 1.21437e-06)
(1.79676 -6.15964e-05 7.6271e-07)
(1.79669 5.98411e-05 1.23014e-06)
(1.89963 -6.13681e-05 9.26494e-07)
(1.89957 5.98796e-05 1.23994e-06)
(1.98647 -6.15047e-05 1.10943e-06)
(1.98643 5.96629e-05 1.25353e-06)
(2.05752 -6.12708e-05 1.30872e-06)
(2.05749 5.97251e-05 1.29283e-06)
(2.11297 -6.14073e-05 1.52121e-06)
(2.11294 5.94824e-05 1.50359e-06)
(2.15286 -6.11712e-05 1.74213e-06)
(2.15284 5.95656e-05 1.72419e-06)
(2.17703 -6.1304e-05 1.96687e-06)
(2.17703 5.93013e-05 1.94739e-06)
(2.18507 -6.10873e-05 2.18823e-06)
(2.18507 5.9385e-05 2.16865e-06)
(2.17627 -6.12008e-05 2.4041e-06)
(2.17628 5.9115e-05 2.38321e-06)
(2.14973 -6.10219e-05 2.60616e-06)
(2.14975 5.91827e-05 2.58551e-06)
(2.10438 -6.11169e-05 2.79567e-06)
(2.1044 5.89057e-05 2.774e-06)
(2.0391 -6.0968e-05 2.96818e-06)
(2.03913 5.89676e-05 2.94721e-06)
(1.95291 -6.10543e-05 3.12723e-06)
(1.95296 5.86723e-05 3.10562e-06)
(1.84515 -6.09295e-05 3.27332e-06)
(1.84521 5.87373e-05 3.25299e-06)
(1.71561 -6.10061e-05 3.41377e-06)
(1.71569 5.84217e-05 3.39325e-06)
(1.56478 -6.08885e-05 3.55299e-06)
(1.56487 5.85102e-05 3.53447e-06)
(1.39395 -6.09651e-05 3.69786e-06)
(1.39406 5.81601e-05 3.67965e-06)
(1.20535 -6.08331e-05 3.85493e-06)
(1.20549 5.82967e-05 3.83949e-06)
(1.00219 -6.09187e-05 4.0273e-06)
(1.00237 5.78974e-05 4.01267e-06)
(0.788621 -6.07673e-05 4.21995e-06)
(0.788859 5.80902e-05 4.20886e-06)
(0.569682 -6.08503e-05 4.43271e-06)
(0.57002 5.76458e-05 4.4228e-06)
(0.351092 -6.06966e-05 4.66363e-06)
(0.351614 5.788e-05 4.6579e-06)
(0.13907 -6.07627e-05 4.90995e-06)
(0.139881 5.73967e-05 4.90557e-06)
(-0.0598834 -6.06334e-05 5.16235e-06)
(-0.0588929 5.76587e-05 5.16252e-06)
(-0.239314 -6.06688e-05 5.41837e-06)
(-0.23868 5.71298e-05 5.41605e-06)
(-0.393812 -6.05413e-05 5.66718e-06)
(-0.393476 5.74023e-05 5.66157e-06)
(-0.51866 -6.06237e-05 5.89691e-06)
(-0.518481 5.68183e-05 5.88919e-06)
(-0.610287 -6.04357e-05 6.10982e-06)
(-0.610191 5.71394e-05 6.09953e-06)
(-0.666687 -6.06116e-05 6.28931e-06)
(-0.666643 5.64524e-05 6.27764e-06)
(-0.687574 -6.03364e-05 6.44821e-06)
(-0.68757 5.68537e-05 6.43514e-06)
(-0.674441 -6.06091e-05 6.57272e-06)
(-0.674471 5.60575e-05 6.55929e-06)
(-0.630537 -6.02657e-05 6.67996e-06)
(-0.6306 5.65252e-05 6.66658e-06)
(-0.560565 -6.0598e-05 6.767e-06)
(-0.560665 5.56522e-05 6.75432e-06)
(-0.470375 -6.01945e-05 6.84966e-06)
(-0.47052 5.61833e-05 6.83846e-06)
(-0.366531 -6.05832e-05 6.92559e-06)
(-0.366746 5.52298e-05 6.91591e-06)
(-0.255851 -6.01181e-05 7.00986e-06)
(-0.256192 5.58294e-05 7.00273e-06)
(-0.14492 -6.05608e-05 7.09828e-06)
(-0.145446 5.47897e-05 7.09306e-06)
(-0.0396937 -6.00183e-05 7.20333e-06)
(-0.0403297 5.54758e-05 7.20121e-06)
(0.0548805 -6.05588e-05 7.31143e-06)
(0.0544001 5.43124e-05 7.31106e-06)
(0.135413 -5.98719e-05 7.44345e-06)
(0.135116 5.5115e-05 7.44048e-06)
(0.199887 -6.05615e-05 7.57071e-06)
(0.199715 5.37914e-05 7.56583e-06)
(0.247669 -5.9724e-05 7.71633e-06)
(0.247572 5.47383e-05 7.7097e-06)
(0.279458 -6.05816e-05 7.85078e-06)
(0.279405 5.32201e-05 7.84265e-06)
(0.297089 -5.95548e-05 8.0046e-06)
(0.297066 5.43596e-05 7.9959e-06)
(0.303235 -6.06305e-05 8.13987e-06)
(0.30323 5.25881e-05 8.1299e-06)
(0.301082 -5.93691e-05 8.29872e-06)
(0.301089 5.39782e-05 8.28943e-06)
(0.294009 -6.07045e-05 8.43609e-06)
(0.294021 5.18992e-05 8.42531e-06)
(0.28526 -5.91719e-05 8.60409e-06)
(0.285273 5.35925e-05 8.59517e-06)
(0.277771 -6.08007e-05 8.75211e-06)
(0.277779 5.11546e-05 8.74087e-06)
(0.273986 -5.89339e-05 8.94136e-06)
(0.273987 5.32353e-05 8.93303e-06)
(0.275704 -6.09453e-05 9.10241e-06)
(0.275695 5.03266e-05 9.09025e-06)
(0.284074 -5.86543e-05 9.31647e-06)
(0.284054 5.29114e-05 9.30829e-06)
(0.299654 -6.11315e-05 9.49428e-06)
(0.299626 4.94203e-05 9.48011e-06)
(0.322477 -5.83207e-05 9.73432e-06)
(0.322441 5.26397e-05 9.72547e-06)
(0.352102 -6.13843e-05 9.92024e-06)
(0.352061 4.84099e-05 9.90261e-06)
(0.38772 -5.79318e-05 1.01785e-05)
(0.387677 5.24306e-05 1.01681e-05)
(0.428229 -6.17231e-05 1.03633e-05)
(0.428187 4.72758e-05 1.03407e-05)
(0.472388 -5.74586e-05 1.0638e-05)
(0.472347 5.23261e-05 1.06253e-05)
(0.51879 -6.2179e-05 1.08108e-05)
(0.518751 4.59872e-05 1.07817e-05)
(0.565962 -5.6901e-05 1.1096e-05)
(0.565927 5.23429e-05 1.1081e-05)
(0.612416 -6.27483e-05 1.1253e-05)
(0.612386 4.45479e-05 1.12163e-05)
(0.656636 -5.62694e-05 1.15441e-05)
(0.65661 5.24915e-05 1.15271e-05)
(0.697265 -6.34401e-05 1.16809e-05)
(0.697243 4.29476e-05 1.16356e-05)
(0.733087 -5.55312e-05 1.19773e-05)
(0.733069 5.28294e-05 1.19596e-05)
(0.763074 -6.43227e-05 1.20757e-05)
(0.76306 4.11143e-05 1.20213e-05)
(0.786549 -5.46484e-05 1.2376e-05)
(0.78654 5.34232e-05 1.23595e-05)
(0.803253 -6.54122e-05 1.24263e-05)
(0.803247 3.90242e-05 1.23623e-05)
(0.8133 -5.36144e-05 1.27205e-05)
(0.813297 5.43111e-05 1.27081e-05)
(0.817162 -6.67597e-05 1.27032e-05)
(0.817161 3.66136e-05 1.26291e-05)
(0.815634 -5.23928e-05 1.29906e-05)
(0.815636 5.55642e-05 1.29853e-05)
(0.809764 -6.84006e-05 1.28976e-05)
(0.809767 3.38286e-05 1.28123e-05)
(0.80069 -5.0947e-05 1.31844e-05)
(0.800694 5.7256e-05 1.31896e-05)
(0.789458 -7.03991e-05 1.30091e-05)
(0.789463 3.058e-05 1.29108e-05)
(0.776959 -4.92222e-05 1.33158e-05)
(0.776964 5.94827e-05 1.33349e-05)
(0.763801 -7.27978e-05 1.30668e-05)
(0.763807 2.67936e-05 1.29527e-05)
(0.750216 -4.71838e-05 1.34192e-05)
(0.750221 6.23252e-05 1.34559e-05)
(0.736178 -7.56395e-05 1.31112e-05)
(0.736184 2.23881e-05 1.29776e-05)
(0.721404 -4.47603e-05 1.35436e-05)
(0.721411 6.5908e-05 1.36023e-05)
(0.705412 -7.90148e-05 1.31764e-05)
(0.705419 1.72267e-05 1.30188e-05)
(0.687767 -4.18664e-05 1.37166e-05)
(0.687776 7.03782e-05 1.38025e-05)
(0.668144 -8.29957e-05 1.32799e-05)
(0.668153 1.11826e-05 1.30931e-05)
(0.646423 -3.84427e-05 1.39324e-05)
(0.646434 7.58644e-05 1.4052e-05)
(0.622815 -8.76619e-05 1.33932e-05)
(0.622826 4.11295e-06 1.31715e-05)
(0.597834 -3.44099e-05 1.41489e-05)
(0.597846 8.25213e-05 1.43095e-05)
(0.572319 -9.31185e-05 1.34531e-05)
(0.572331 -4.15856e-06 1.31899e-05)
(0.547324 -2.96756e-05 1.42965e-05)
(0.547335 9.05233e-05 1.4506e-05)
(0.524102 -9.94797e-05 1.33863e-05)
(0.524113 -1.38253e-05 1.30733e-05)
(0.50396 -2.41241e-05 1.43118e-05)
(0.503969 0.000100074 1.45785e-05)
(0.488037 -0.000106886 1.31333e-05)
(0.488043 -2.51164e-05 1.27606e-05)
(0.477339 -1.76264e-05 1.41579e-05)
(0.477343 0.000111405 1.44911e-05)
(0.472659 -0.000115466 1.26838e-05)
(0.472659 -3.82622e-05 1.22387e-05)
(0.474414 -1.0047e-05 1.38513e-05)
(0.474411 0.000124777 1.42624e-05)
(0.482634 -0.000125356 1.2068e-05)
(0.482628 -5.35262e-05 1.15337e-05)
(0.497034 -1.27092e-06 1.34333e-05)
(0.497025 0.000140475 1.39369e-05)
(0.517023 -0.000136685 1.13419e-05)
(0.517012 -7.12032e-05 1.06956e-05)
(0.54173 8.83058e-06 1.29776e-05)
(0.541718 0.000158857 1.35972e-05)
(0.57009 -0.000149591 1.05777e-05)
(0.570078 -9.16589e-05 9.78997e-06)
(0.600927 2.03408e-05 1.25447e-05)
(0.600915 0.000180332 1.33115e-05)
(0.63298 -0.000164181 9.83558e-06)
(0.632969 -0.000115308 8.86315e-06)
(0.665056 3.33236e-05 1.21854e-05)
(0.665046 0.000205402 1.31369e-05)
(0.696126 -0.000180544 9.15898e-06)
(0.696116 -0.000142661 7.94614e-06)
(0.725305 4.77931e-05 1.19232e-05)
(0.725296 0.000234648 1.31266e-05)
(0.75199 -0.000198722 8.56981e-06)
(0.751982 -0.000174313 7.05002e-06)
(0.776001 6.37233e-05 1.17669e-05)
(0.775994 0.000268843 1.32773e-05)
(0.797516 -0.000218668 8.05527e-06)
(0.79751 -0.000210811 6.00189e-06)
(0.817156 8.10066e-05 1.16767e-05)
(0.817151 0.000308887 1.35081e-05)
(0.836038 -0.000240359 8.24203e-06)
(0.836033 -0.000253087 5.03213e-06)
(0.855816 9.93625e-05 1.17614e-05)
(0.855811 0.000354159 1.46386e-05)
(0.878799 -0.00026358 9.09406e-06)
(0.878792 -0.000301406 5.54779e-06)
(0.908131 0.000118754 1.14567e-05)
(0.908122 0.000446672 2.49553e-05)
(0.948174 -0.000282192 9.89963e-06)
(0.948163 -0.000398033 1.00691e-05)
(1.0048 0.000144105 1.03671e-05)
(1.00479 0.00048586 1.27249e-05)
(1.08619 -0.00028464 5.28973e-06)
(1.08618 -0.000452859 1.08604e-05)
(1.20415 0.000185473 8.68018e-06)
(1.20414 0.000520294 1.31175e-05)
(1.37557 -0.000284359 3.64355e-06)
(1.37556 -0.000503182 1.24804e-05)
(1.62224 0.000226832 6.04927e-06)
(1.62223 0.000546974 1.43439e-05)
(1.97044 -0.000278817 1.60491e-06)
(1.97043 -0.000547493 1.45933e-05)
(2.54877 0.000265611 2.232e-06)
(2.54877 0.000563628 1.64324e-05)
(0.0347936 -1.11726e-05 -5.4824e-08)
(0.0348341 -2.68536e-05 -0.000582386)
(0.104633 2.05287e-05 -1.92671e-08)
(0.104754 -1.39416e-05 -0.000806762)
(0.175289 3.10663e-05 -5.50068e-09)
(0.175488 -2.83427e-05 -0.000518004)
(0.246772 3.67986e-05 -1.42334e-09)
(0.247045 -3.6695e-05 -0.000254714)
(0.319093 3.99037e-05 -3.77444e-10)
(0.319434 -3.98306e-05 -0.00013463)
(0.392268 4.16968e-05 -8.15252e-11)
(0.392669 -4.17074e-05 -8.31354e-05)
(0.466272 4.30117e-05 -1.41311e-10)
(0.466727 -4.29135e-05 -5.794e-05)
(0.541055 4.38553e-05 -1.33921e-11)
(0.541556 -4.39143e-05 -4.37956e-05)
(0.616564 4.47272e-05 -9.88623e-11)
(0.617104 -4.45542e-05 -3.49817e-05)
(0.692812 4.51929e-05 -4.1396e-12)
(0.693385 -4.53009e-05 -2.90566e-05)
(0.769888 4.59065e-05 -8.91719e-11)
(0.770487 -4.56717e-05 -2.48436e-05)
(0.847833 4.61643e-05 1.01229e-22)
(0.848453 -4.63193e-05 -2.17177e-05)
(0.926694 4.68158e-05 -6.28274e-11)
(0.927328 -4.65571e-05 -1.93201e-05)
(1.00655 6.019e-05 -4.86086e-08)
(1.0072 -4.708e-05 -1.74213e-05)
(1.08742 2.12592e-05 -6.52459e-19)
(1.08807 -4.74317e-05 -1.59143e-05)
(1.16923 0.000104514 -1.24085e-07)
(1.16988 -4.74321e-05 -1.46463e-05)
(1.25187 -4.08718e-05 -4.4018e-10)
(1.25251 -4.85765e-05 -1.36439e-05)
(1.33521 0.000141132 -3.75028e-08)
(1.33585 -4.76343e-05 -1.27745e-05)
(1.4193 -5.25691e-05 -7.06972e-10)
(1.41993 -4.94993e-05 -1.20441e-05)
(1.50438 0.000153989 -3.63119e-08)
(1.505 -4.76787e-05 -1.14091e-05)
(1.59079 -6.41872e-05 -5.29545e-10)
(1.5914 -5.05527e-05 -1.08687e-05)
(1.67877 0.000166623 -3.46512e-08)
(1.67936 -4.75976e-05 -1.039e-05)
(1.76837 -7.56836e-05 6.34915e-19)
(1.76895 -5.1648e-05 -9.97947e-06)
(1.85961 0.000205766 -1.4355e-07)
(1.86017 -4.72809e-05 -9.58441e-06)
(1.9525 -0.000140559 3.21733e-21)
(1.95305 -5.29591e-05 -9.29473e-06)
(2.04709 0.000280357 -1.92429e-07)
(2.04762 -4.68277e-05 -8.97264e-06)
(2.14341 -0.000224659 -1.60208e-09)
(2.14393 -5.45398e-05 -8.76565e-06)
(2.24147 0.000334187 -7.04939e-08)
(2.24197 -4.61031e-05 -8.53867e-06)
(2.34125 -0.000247808 -3.37372e-09)
(2.34173 -5.633e-05 -8.35499e-06)
(2.44272 0.000358652 -7.24973e-08)
(2.4432 -4.5021e-05 -8.17517e-06)
(2.54596 -0.000271757 -3.14591e-09)
(2.54641 -5.84306e-05 -8.03337e-06)
(2.65117 0.000383469 -6.87275e-08)
(2.65161 -4.35448e-05 -7.88957e-06)
(2.7588 -0.000295551 -1.43273e-09)
(2.75923 -6.09373e-05 -7.77933e-06)
(2.86948 0.000407983 -6.36548e-08)
(2.8699 -4.15685e-05 -7.6637e-06)
(2.98389 -0.00031887 -5.39658e-19)
(2.9843 -6.39608e-05 -7.57884e-06)
(3.10262 0.000464476 -2.20477e-07)
(3.10303 -3.9024e-05 -7.44944e-06)
(3.22608 -0.000407395 -3.60094e-21)
(3.22648 -6.76696e-05 -7.42739e-06)
(3.35441 0.000653502 -7.29455e-07)
(3.3548 -3.58284e-05 -7.20119e-06)
(3.48755 -0.000698394 -3.96593e-19)
(3.48793 -7.21392e-05 -7.3284e-06)
(3.62527 0.000983064 -9.5364e-07)
(3.62564 -3.19056e-05 -7.07866e-06)
(3.76732 -0.00106968 -2.09128e-21)
(3.76769 -7.73488e-05 -7.28223e-06)
(3.91367 0.00131946 -7.97611e-07)
(3.91403 -2.72683e-05 -7.10009e-06)
(4.06464 -0.00137328 -2.91704e-18)
(4.06501 -8.32293e-05 -7.28261e-06)
(4.22116 0.0015514 -4.23482e-07)
(4.22152 -2.1949e-05 -7.2149e-06)
(4.38465 -0.00153314 2.40169e-21)
(4.38501 -8.97416e-05 -7.31929e-06)
(4.55687 0.00168156 -2.57306e-07)
(4.55723 -1.597e-05 -7.30883e-06)
(4.73953 -0.0016319 2.39602e-21)
(4.73989 -9.69484e-05 -7.38558e-06)
(4.93395 0.00179803 -3.55492e-07)
(4.93431 -9.26524e-06 -7.36623e-06)
(5.14085 -0.00176483 -5.1397e-21)
(5.14121 -0.000104944 -7.48153e-06)
(5.36036 0.00224017 -2.19527e-06)
(5.36072 -1.76067e-06 -7.03361e-06)
(5.59212 -0.00252271 3.44136e-22)
(5.59247 -0.000113335 -7.62485e-06)
(5.83513 0.00291567 -1.77764e-06)
(5.83547 6.38535e-06 -7.32986e-06)
(6.08727 -0.00311708 -3.34826e-08)
(6.0876 -0.00012164 -7.84374e-06)
(6.3443 0.00330527 -6.90602e-07)
(6.3446 1.43491e-05 -7.93617e-06)
(6.59855 -0.00329728 -1.48941e-07)
(6.59881 -0.000129713 -8.23807e-06)
(6.83746 0.00351535 -1.26349e-06)
(6.83767 2.07461e-05 -8.44539e-06)
(7.04283 -0.00353785 -3.59575e-07)
(7.04296 -0.000137904 -9.00142e-06)
(7.19112 0.00379581 -2.01638e-06)
(7.19116 2.45567e-05 -9.39371e-06)
(7.25559 -0.00386404 -5.764e-07)
(7.25552 -0.000145439 -1.02726e-05)
(7.21006 0.00414963 -2.44815e-06)
(7.20984 2.64041e-05 -1.08383e-05)
(7.03366 -0.00425136 -6.20713e-07)
(7.03328 -0.000149725 -1.18993e-05)
(6.71556 0.00452898 -2.07223e-06)
(6.715 2.75647e-05 -1.2496e-05)
(6.25812 -0.0046206 -3.92977e-07)
(6.25736 -0.000149042 -1.3415e-05)
(5.67762 0.00485627 -9.8592e-07)
(5.67664 2.75527e-05 -1.38601e-05)
(5.0022 -0.00489556 -2.51277e-18)
(5.00098 -0.000144642 -1.43762e-05)
(4.26757 0.00508825 -4.42688e-08)
(4.2661 2.42827e-05 -1.4582e-05)
(3.51195 -0.00494836 -1.0724e-06)
(3.51024 -0.000138887 -1.4466e-05)
(2.77119 0.00509691 -3.0691e-07)
(2.76925 1.71557e-05 -1.45236e-05)
(2.07527 -0.00493788 -1.66966e-06)
(2.07314 -0.000132876 -1.42123e-05)
(1.44655 0.00506689 -3.87925e-07)
(1.44428 7.68757e-06 -1.42404e-05)
(0.899635 -0.00491281 -1.73454e-06)
(0.897312 -0.000126541 -1.39313e-05)
(0.442342 0.00504373 -3.64841e-07)
(0.440093 -2.1582e-06 -1.40021e-05)
(0.0772354 -0.00016158 -4.12842e-06)
(0.075207 -0.000119988 -8.56641e-07)
(-0.196873 0.000250673 -4.14808e-07)
(-0.198531 -1.01724e-05 -6.93325e-07)
(-0.383659 -8.94491e-05 -9.61809e-07)
(-0.384862 -0.000112871 -6.79841e-07)
(-0.488463 0.000188228 -3.07944e-07)
(-0.489178 -1.70334e-05 -5.25197e-07)
(-0.517761 -3.45484e-05 -7.34384e-07)
(-0.517988 -0.000106421 -5.12962e-07)
(-0.478814 0.000141686 -2.26431e-07)
(-0.47857 -2.30808e-05 -3.74089e-07)
(-0.379386 3.65819e-06 -5.16697e-07)
(-0.378703 -0.000100705 -3.65374e-07)
(-0.227434 0.000110505 -1.54998e-07)
(-0.226361 -2.84535e-05 -2.42398e-07)
(-0.0308477 2.77724e-05 -3.29311e-07)
(-0.029462 -9.56217e-05 -2.39092e-07)
(0.202821 9.19461e-05 -9.48415e-08)
(0.204402 -3.32942e-05 -1.32861e-07)
(0.466583 4.06786e-05 -1.78993e-07)
(0.468239 -9.09939e-05 -1.393e-07)
(0.754157 8.29978e-05 -4.87736e-08)
(0.755787 -3.76173e-05 -5.18461e-08)
(1.05998 4.5783e-05 -7.09044e-08)
(1.06151 -8.67329e-05 -6.74086e-08)
(1.3791 8.08887e-05 -6.37268e-08)
(1.3805 -4.1541e-05 6.6807e-21)
(1.70701 4.52708e-05 -5.90653e-08)
(1.70825 -8.33425e-05 -6.06638e-08)
(2.0394 8.01728e-05 -7.2123e-08)
(2.04047 -4.40321e-05 -7.01297e-08)
(2.3719 4.74486e-05 -1.46481e-07)
(2.37283 -8.08668e-05 -1.47797e-07)
(2.7 7.82062e-05 -1.84593e-07)
(2.70078 -4.62681e-05 -1.82653e-07)
(3.01886 4.93005e-05 -2.81588e-07)
(3.01952 -7.87528e-05 -2.82628e-07)
(3.32342 7.63931e-05 -3.45785e-07)
(3.32398 -4.83173e-05 -3.43873e-07)
(3.60854 5.08469e-05 -4.59625e-07)
(3.609 -7.69748e-05 -4.60395e-07)
(3.86921 7.47183e-05 -5.36114e-07)
(3.86959 -5.01988e-05 -5.34211e-07)
(4.10096 5.21766e-05 -6.47759e-07)
(4.10127 -7.54404e-05 -6.48269e-07)
(4.30017 7.32186e-05 -7.13618e-07)
(4.30041 -5.18791e-05 -7.11712e-07)
(4.46436 5.3361e-05 -7.9891e-07)
(4.46455 -7.40751e-05 -7.99178e-07)
(4.5925 7.19746e-05 -8.32768e-07)