/*--------------------------------*- C++ -*----------------------------------*\
| =========                 |                                                 |
| \\      /  F ield         | OpenFOAM: The Open Source CFD Toolbox           |
|  \\    /   O peration     | Version:  2012                                  |
|   \\  /    A nd           | Website:  www.openfoam.com                      |
|    \\/     M anipulation  |                                                 |
\*---------------------------------------------------------------------------*/
FoamFile
{
    version     2.0;
    format      ascii;
    class       volTensorField;
    location    "19000";
    object      grad(U);
}
// * * * * * * * * * * * * * * * * * * * * * * * * * * * * * * * * * * * * * //

dimensions      [0 0 -1 0 0 0 0];


internalField   nonuniform List<tensor> 
2560
(
(-9.14312e-18 -6.81384e-18 -6.97565e-23 29.0291 -3.0383e-05 -0.000312952 0.0420243 -8.79603e-08 -2.13085e-07)
(0 0 -3.56694e-17 29.0291 -0.000312837 -0.000306258 0.0420243 -1.20077e-06 -2.20543e-07)
(0 1.79723e-17 -2.85184e-17 29.0242 -2.71054e-20 -4.76319e-05 0.126668 0 -1.39902e-07)
(-1.80242e-17 6.51553e-24 -3.75696e-23 29.0242 2.21832e-21 -4.81362e-05 0.126668 2.34747e-08 -1.41383e-07)
(-5.3201e-18 3.38856e-23 1.48453e-22 29.0199 -4.09117e-05 -2.38919e-05 0.174195 1.29892e-07 -1.44912e-07)
(0 -3.38856e-23 0 29.0199 2.88905e-05 -2.41395e-05 0.174195 8.60896e-08 -1.46382e-07)
(1.70595e-17 8.34999e-24 -1.52949e-22 29.0155 -1.27197e-05 -2.42906e-05 0.1767 2.33427e-08 -1.48857e-07)
(0 -8.34999e-24 0 29.0155 -1.58357e-05 -2.45432e-05 0.1767 3.5665e-10 -1.50442e-07)
(6.90408e-17 3.29212e-23 -5.2674e-22 29.0109 5.99242e-06 -2.46084e-05 0.179241 1.80944e-08 -1.53084e-07)
(0 -3.29212e-23 0 29.0109 7.167e-06 -2.48703e-05 0.179241 -8.0203e-09 -1.54711e-07)
(1.091e-16 1.62247e-23 -1.62114e-22 29.0056 7.94122e-06 -2.49528e-05 0.18181 2.7363e-08 -1.57535e-07)
(2.60339e-16 -1.62247e-23 -1.85075e-21 29.0056 8.51451e-06 -2.52197e-05 0.18181 -1.44366e-09 -1.5923e-07)
(1.37716e-17 0 1.66855e-22 28.9988 6.68386e-06 -2.53104e-05 0.184404 2.96693e-08 -1.62117e-07)
(1.46142e-16 0 -6.85108e-22 28.9988 7.18276e-06 -2.55863e-05 0.184404 4.6404e-10 -1.63906e-07)
(-1.97966e-16 -3.15259e-23 1.71731e-22 28.9899 6.54754e-06 -2.56681e-05 0.187021 2.99486e-08 -1.66766e-07)
(2.62947e-16 0 -2.00584e-22 28.9899 6.70026e-06 -2.59605e-05 0.187021 1.02495e-10 -1.68723e-07)
(7.83469e-17 3.1074e-23 -1.76738e-22 28.9792 6.65167e-06 -2.60229e-05 0.189667 3.01204e-08 -1.71511e-07)
(0 -3.1074e-23 -4.97185e-22 28.9792 6.31307e-06 -2.63425e-05 0.189667 -1.34467e-09 -1.7371e-07)
(0 0 0 28.9679 7.98028e-06 -2.63749e-05 0.192349 2.90301e-08 -1.76327e-07)
(0 0 4.90059e-22 28.9679 6.33006e-06 -2.674e-05 0.192349 -5.42472e-09 -1.78945e-07)
(-1.04106e-16 3.01897e-23 1.87146e-22 28.9557 1.36206e-05 -2.67217e-05 0.195059 3.27608e-08 -1.81208e-07)
(0 -3.01897e-23 0 28.9557 1.13902e-05 -2.71646e-05 0.195059 -7.0683e-09 -1.8452e-07)
(1.17261e-16 5.9514e-23 -1.92604e-22 28.942 1.53136e-05 -2.70205e-05 0.197796 6.66245e-08 -1.85577e-07)
(0 0 0 28.942 2.72029e-05 -2.75868e-05 0.197796 2.9725e-08 -1.89959e-07)
(0 0 -4.69288e-22 28.9268 0.000166932 -2.70986e-05 0.200562 1.29118e-07 -1.876e-07)
(0 0 0 28.9268 4.14748e-05 -2.78335e-05 0.200562 1.0885e-07 -1.93349e-07)
(-1.44133e-16 2.32552e-18 2.04062e-22 28.9095 -1.28272e-23 -2.66209e-05 0.203346 1.05879e-22 -1.84291e-07)
(5.76531e-16 0 -8.35567e-22 28.9095 2.00984e-05 -2.74671e-05 0.203346 -3.37533e-07 -1.90366e-07)
(0 0 0 28.8883 -0.000161014 -2.52694e-05 0.206135 2.41814e-07 -1.738e-07)
(0 -2.56108e-18 0 28.8883 -2.10565e-05 -2.60615e-05 0.206135 7.46133e-08 -1.78945e-07)
(-1.71772e-16 0 2.12466e-22 28.8621 -5.88229e-05 -2.31667e-05 0.208922 -1.82142e-08 -1.59233e-07)
(6.87089e-16 0 -8.57055e-22 28.8621 -6.32341e-05 -2.38263e-05 0.208922 -5.68897e-08 -1.63566e-07)
(0 -4.15272e-23 0 28.83 -1.84701e-05 -2.10464e-05 0.211703 -2.52504e-07 -1.47733e-07)
(-7.43533e-16 4.15272e-23 8.58441e-22 28.83 -1.54687e-05 -2.16032e-05 0.211703 -2.95825e-07 -1.51518e-07)
(0 0 0 28.7931 3.86095e-05 -1.96099e-05 0.214491 -1.97539e-07 -1.42481e-07)
(-8.00745e-16 0 8.6233e-22 28.7931 4.04273e-05 -2.01033e-05 0.214491 -2.32502e-07 -1.45996e-07)
(6.76882e-16 3.08153e-19 -8.607e-22 28.7538 2.60909e-05 -1.88561e-05 0.21731 -2.02072e-08 -1.40658e-07)
(-2.25627e-16 -7.79167e-19 0 28.7538 2.94848e-05 -1.93148e-05 0.21731 -5.42768e-08 -1.4403e-07)
(2.29361e-16 4.8766e-19 -2.19084e-22 28.7141 0 -1.83892e-05 0.220166 -1.62508e-09 -1.3949e-07)
(-9.17444e-16 0 8.86169e-22 28.7141 5.11287e-06 -1.88301e-05 0.220166 -3.30075e-08 -1.42835e-07)
(0 0 0 28.6734 1.81587e-05 -1.80535e-05 0.223041 -5.04211e-08 -1.39552e-07)
(0 0 0 28.6734 1.84559e-05 -1.84865e-05 0.223041 -8.06569e-08 -1.429e-07)
(-2.59317e-16 0 2.26824e-22 28.6288 5.98643e-05 -1.78098e-05 0.225912 7.2117e-08 -1.39727e-07)
(0 0 0 28.6288 6.01228e-05 -1.82396e-05 0.225912 4.19968e-08 -1.4312e-07)
(1.51338e-16 1.01551e-22 -5.81349e-22 28.5784 6.7386e-05 -1.71726e-05 0.228766 3.48549e-07 -1.33428e-07)
(0 0 -8.12407e-22 28.5784 6.75964e-05 -1.76018e-05 0.228766 3.18579e-07 -1.36865e-07)
(-4.1983e-16 2.16376e-18 0 28.5213 2.03103e-20 -1.52184e-05 0.231601 0 -1.1205e-07)
(-7.40479e-16 -2.26945e-22 1.74662e-21 28.5213 2.1077e-05 -1.56486e-05 0.231601 9.57822e-08 -1.15557e-07)
(3.05758e-16 9.2648e-19 -1.01723e-21 28.4573 -2.6674e-05 -1.12785e-05 0.234413 1.09198e-07 -1.01008e-07)
(0 -1.85146e-18 7.89286e-22 28.4573 -2.65175e-05 -1.17097e-05 0.234413 1.08557e-07 -7.59043e-08)
(-1.05116e-15 0 4.26444e-22 28.3862 -6.86962e-05 -5.55221e-06 0.237196 1.20773e-07 -1.04561e-07)
(4.07882e-16 0 5.58537e-20 28.3862 -6.85414e-05 -5.56524e-06 0.237196 9.09052e-08 -2.31142e-08)
(1.81722e-15 0 -5.82e-22 28.3073 -5.25784e-05 9.60759e-07 0.239939 -2.14498e-07 -1.08167e-07)
(1.89765e-15 0 0 28.3073 -5.26316e-05 5.05043e-20 0.239939 -2.44618e-07 2.11758e-22)
(0 0 7.55832e-22 28.2196 -1.6656e-05 7.06144e-06 0.242634 -4.07905e-07 -1.11793e-07)
(1.41596e-15 0 -8.79081e-22 28.2196 -1.65931e-05 6.63575e-06 0.242634 -4.38728e-07 -3.24773e-08)
(-4.10728e-16 0 -2.32517e-22 28.1225 1.06477e-05 1.19032e-05 0.245272 -4.46329e-07 -1.15447e-07)
(0 0 0 28.1225 1.09603e-05 1.14821e-05 0.245272 -4.77017e-07 -8.13464e-08)
(-7.74242e-16 0 5.17055e-22 28.0162 2.37542e-05 -1.55876e-06 0.247856 -4.08082e-07 -1.51174e-07)
(-3.09697e-15 0 2.11887e-21 28.0162 2.37849e-05 1.91608e-06 0.247856 -4.38511e-07 -1.18117e-07)
(-4.03967e-16 0 -5.49579e-22 27.9017 3.6154e-05 -6.86924e-05 0.250398 -3.34917e-07 -1.08217e-06)
(-1.61587e-15 0 1.41743e-21 27.9017 3.60505e-05 -6.50941e-05 0.250398 -3.66403e-07 -1.08371e-06)
(-3.74039e-16 0 0 27.781 5.81783e-05 -0.000119447 0.252914 -1.86978e-07 -1.08178e-06)
(-1.30993e-15 0 1.01144e-21 27.781 5.82864e-05 -0.000119615 0.252914 -2.18846e-07 -1.08328e-06)
(0 0 7.03198e-22 27.6559 8.10337e-05 -0.000112553 0.255417 8.80164e-08 -9.86245e-07)
(1.75278e-15 0 -2.08355e-21 27.6559 8.1101e-05 -0.000112718 0.255417 5.59951e-08 -9.87779e-07)
(-4.55572e-16 0 4.4285e-22 27.5272 8.42486e-05 -9.64719e-05 0.257905 4.49717e-07 -8.11418e-07)
(0 0 0 27.5272 8.4325e-05 -9.66259e-05 0.257905 4.17216e-07 -8.12754e-07)
(-4.73127e-16 -5.26736e-23 5.32689e-22 27.3939 5.91636e-05 -7.52547e-05 0.260359 3.80544e-07 -6.10825e-07)
(0 0 0 27.3939 5.92179e-05 -7.53893e-05 0.260359 3.80012e-07 -6.12034e-07)
(-4.90862e-16 5.01475e-19 6.05095e-22 27.2534 -9.29098e-23 -5.5676e-05 0.262743 1.05879e-22 -4.56674e-07)
(-1.96345e-15 -4.28023e-22 3.76368e-21 27.2534 1.73717e-05 -5.58067e-05 0.262743 8.81078e-08 -4.57972e-07)
(5.08778e-16 9.83058e-19 -6.56504e-22 27.1022 -1.01831e-05 -4.43882e-05 0.265021 4.95724e-08 -4.07318e-07)
(0 0 0 27.1022 -1.81234e-05 -4.45184e-05 0.265021 8.82268e-08 -4.08555e-07)
(5.26871e-16 2.51529e-23 -6.91256e-22 26.937 -4.61798e-05 -4.54023e-05 0.267153 3.74872e-07 -4.90233e-07)
(0 0 0 26.937 -4.61562e-05 -4.55146e-05 0.267153 3.7322e-07 -4.91212e-07)
(-5.45137e-16 0 7.19469e-22 26.7551 -5.53908e-05 -5.9346e-05 0.269111 2.2348e-07 -7.00753e-07)
(0 0 1.2897e-21 26.7551 -5.54371e-05 -5.94407e-05 0.269111 1.88219e-07 -7.01671e-07)
(0 0 0 26.5552 -5.21912e-05 -8.40931e-05 0.270884 -1.28234e-07 -1.01147e-06)
(0 0 0 26.5552 -5.21934e-05 -8.41763e-05 0.270884 -1.64026e-07 -1.01224e-06)
(-5.82139e-16 0 -1.52297e-18 26.3381 -3.65492e-05 -1.28196e-05 0.272482 -4.39427e-07 -6.61172e-08)
(2.32856e-15 0 0 26.3381 -3.65651e-05 -4.98018e-22 0.272482 -4.75916e-07 -8.47033e-22)
(6.47517e-16 0 0 26.1067 -7.75e-06 2.58446e-05 0.273942 -6.39047e-07 -1.71336e-07)
(1.75586e-15 0 -4.07821e-21 26.1067 -7.76067e-06 3.42104e-05 0.273942 -6.76226e-07 -3.44706e-07)
(6.19661e-16 0 -8.27594e-22 25.8662 2.6779e-05 2.8793e-05 0.27532 -6.56362e-07 -2.38311e-06)
(-2.47864e-15 0 3.27294e-21 25.8662 2.67429e-05 2.88239e-05 0.27532 -6.94258e-07 -2.40122e-06)
(6.38578e-16 0 -1.66566e-21 25.6222 5.05145e-05 1.82904e-05 0.276671 -4.93087e-07 -5.6998e-06)
(0 0 1.19989e-21 25.6222 5.04618e-05 1.82966e-05 0.276671 -5.31809e-07 -5.71751e-06)
(-6.57588e-16 0 1.03485e-22 25.3785 5.72911e-05 1.30799e-05 0.278022 -2.53127e-07 -9.07784e-06)
(0 0 0 25.3785 5.72097e-05 1.30604e-05 0.278022 -2.9266e-07 -9.0951e-06)
(6.76694e-16 0 1.16574e-21 25.1362 6.8554e-05 1.47843e-05 0.279361 -1.002e-08 -1.01503e-05)
(1.48441e-15 0 0 25.1362 6.86177e-05 1.47422e-05 0.279361 -5.0477e-08 -1.01548e-05)
(1.20485e-15 0 -1.14903e-21 24.8922 5.45879e-05 2.3483e-05 0.280638 3.32156e-07 -1.00533e-05)
(2.78361e-15 0 1.14903e-21 24.8922 5.45584e-05 2.34296e-05 0.280638 3.24056e-07 -1.00574e-05)
(-7.15216e-16 0 0 24.6413 5.52204e-05 3.84e-05 0.281777 4.59246e-07 -9.89348e-06)
(0 0 0 24.6413 5.4924e-05 3.83368e-05 0.281777 4.17137e-07 -9.8972e-06)
(-7.34639e-16 0 0 24.3776 0.000181832 6.97535e-05 0.282707 8.49909e-07 -9.63919e-06)
(0 0 0 24.3776 0.000181793 6.96743e-05 0.282707 8.06311e-07 -9.64256e-06)
(1.15378e-15 0 0 24.0961 0.000367214 0.000142886 0.28337 2.42441e-06 -9.15707e-06)
(-1.15378e-15 0 0 24.0961 0.000367247 0.000142795 0.28337 2.38058e-06 -9.16011e-06)
(-7.73782e-16 -1.08456e-21 -1.08456e-21 23.7924 0.000528481 0.000286962 0.283698 5.02853e-06 -8.1549e-06)
(0 0 1.08456e-21 23.7924 0.00052831 0.000286861 0.283698 4.98363e-06 -8.15759e-06)
(-1.12095e-15 0 5.34509e-22 23.4594 0.000616442 0.000524251 0.283562 7.64558e-06 -6.18544e-06)
(-3.17394e-15 -4.98545e-22 -5.34509e-22 23.4594 0.000616385 0.000524142 0.283562 7.64642e-06 -6.18781e-06)
(2.91603e-16 -9.74683e-22 0 23.0837 0.00052919 0.000691195 0.282724 5.31977e-06 -2.69592e-06)
(2.14823e-15 3.87362e-21 0 23.0837 0.000529144 0.000686879 0.282724 5.31778e-06 -2.69796e-06)
(-1.08905e-15 3.33191e-18 0 22.6419 -2.07585e-21 0.000572447 0.280791 1.69407e-21 9.91809e-08)
(1.08905e-15 -1.20124e-17 0 22.6419 1.5614e-05 0.000568187 0.280791 9.71534e-08 9.89042e-08)
(-1.92658e-15 -1.73065e-21 0 22.0993 -0.000257607 0.0004789 0.277207 1.62619e-06 9.68725e-08)
(4.48602e-15 6.89471e-21 0 22.0993 -0.000257911 0.000478902 0.277207 1.62811e-06 9.66052e-08)
(1.74639e-15 0 0 21.4136 -0.0012673 0.000542188 0.271322 8.47445e-06 8.94151e-08)
(3.49279e-15 0 0 21.4136 -0.00126727 0.000542203 0.271322 8.42521e-06 8.91451e-08)
(1.04289e-15 0 0 20.543 -0.0019008 0.000521978 0.262536 -2.17359e-06 7.23711e-08)
(0 0 0 20.543 -0.00190072 0.000522015 0.262536 -2.22311e-06 7.21211e-08)
(-9.13132e-16 0 0 19.4595 -0.00206549 0.000394872 0.250493 -1.61214e-05 3.79864e-08)
(0 0 0 19.4595 -0.00206534 0.000394945 0.250493 -1.61703e-05 3.77718e-08)
(-2.87845e-15 3.22463e-21 -2.28392e-18 18.1631 -0.00164048 5.52124e-05 0.235291 -1.74635e-05 -2.74527e-08)
(4.7437e-15 -6.48214e-21 0 18.1631 -0.00164002 5.55584e-05 0.235291 -1.7452e-05 -2.76162e-08)
(-9.51405e-16 4.27042e-21 2.70833e-18 16.6913 -0.000723163 -4.77537e-09 0.217595 -6.53934e-06 -1.49052e-07)
(0 0 0 16.6913 -0.000722045 0 0.217595 -6.54648e-06 -1.49163e-07)
(-9.69137e-16 4.78527e-21 0 15.1207 0.000385668 -0.000443365 0.198622 -2.96114e-06 -3.72543e-07)
(3.87655e-15 -1.91545e-20 0 15.1207 0.00038802 -0.000442897 0.198622 -2.97146e-06 -3.72547e-07)
(-9.85507e-16 2.31314e-21 0 13.5572 0.0012404 -0.000712279 0.179973 -1.27791e-05 -7.76873e-07)
(0 0 -1.85063e-21 13.5572 0.00124594 -0.000711356 0.179973 -1.28251e-05 -7.76502e-07)
(-2.95697e-15 0 0 12.1173 0.00176056 -0.000898577 0.163335 -1.50654e-05 -1.51775e-06)
(-3.04486e-15 0 0 12.1173 0.00176613 -0.000896865 0.163335 -1.50426e-05 -1.51615e-06)
(-2.02693e-15 0 0 10.9056 -0.0120521 -0.00088179 0.150153 1.63172e-05 -3.21637e-06)
(8.10774e-15 4.02257e-16 0 10.9056 -0.0121264 -0.000878414 0.150153 1.65205e-05 -3.21683e-06)
(-4.93359e-15 3.85186e-34 8.60746e-22 9.99529 3.48055e-18 0.000293722 0.141369 4.75632e-34 -2.71657e-06)
(-4.10042e-15 5.24757e-16 1.01334e-21 9.99529 -0.000763901 0.000288223 0.141369 -5.57118e-06 -2.95411e-06)
(-1.03548e-15 0 0 9.41732 0.0158177 0.000930792 0.137321 0.000172446 4.92588e-06)
(3.22608e-15 0 -8.73396e-22 9.41732 0.015661 0.000923621 0.137321 0.000175286 4.92445e-06)
(1.04494e-15 0 1.31084e-17 9.16138 0.00901689 1.0842e-19 0.137769 -7.68988e-06 -8.47033e-22)
(0 0 0 9.16138 0.00884468 1.10272e-05 0.137769 -7.36853e-06 8.2778e-08)
(0 1.82756e-17 1.69708e-21 9.18442 0.00313232 5.11091e-05 0.142051 2.38553e-05 1.64428e-06)
(4.21563e-15 3.38057e-17 -1.64669e-21 9.18442 0.00313943 5.33439e-05 0.142051 2.39094e-05 1.66095e-06)
(8.77005e-16 0 1.86948e-18 9.42483 -0.000506209 2.11462e-06 0.149289 7.33218e-06 1.63388e-08)
(4.25104e-15 5.00572e-21 4.78403e-22 9.42483 -0.000509279 3.34945e-06 0.149289 7.39293e-06 2.58798e-08)
(0 -1.64878e-21 -1.17549e-38 9.81646 -0.000542802 -1.83622e-34 0.158581 8.32003e-06 5.29396e-23)
(4.28732e-15 1.04704e-21 -1.4167e-21 9.81646 -0.000544634 -6.8967e-07 0.158581 8.354e-06 5.40628e-09)
(0 0 0 10.2992 -0.000465631 -9.84274e-05 0.169129 4.87457e-06 1.64942e-07)
(0 0 0 10.2992 -0.00046666 -9.81691e-05 0.169129 4.83093e-06 1.64982e-07)
(-2.18311e-15 0 0 10.8245 -0.000305497 -0.000129328 0.180306 1.27846e-06 2.0723e-08)
(0 0 0 10.8245 -0.000305908 -0.000129189 0.180306 1.23001e-06 2.08363e-08)
(0 0 0 11.3573 -0.00016314 -0.0001369 0.191655 -8.75626e-07 -5.96548e-08)
(4.40996e-15 0 0 11.3573 -0.00016331 -0.000136825 0.191655 -9.26238e-07 -5.94984e-08)
(0 0 0 11.8734 -5.37656e-05 -0.000130204 0.202856 -1.78992e-06 -1.04222e-07)
(2.82508e-15 0 -7.78134e-22 11.8734 -5.38022e-05 -0.000130164 0.202856 -1.84131e-06 -1.04048e-07)
(-1.12681e-15 0 0 12.3571 2.62509e-06 -0.000117012 0.213689 -1.93576e-06 -1.28904e-07)
(0 0 0 12.3571 2.71246e-06 -0.000116991 0.213689 -1.98711e-06 -1.28724e-07)
(1.14021e-15 0 0 12.7981 2.23582e-05 -0.000102578 0.22399 -1.78949e-06 -1.42336e-07)
(0 0 0 12.7981 2.24492e-05 -0.000102568 0.22399 -1.84036e-06 -1.42148e-07)
(0 3.25488e-19 0 13.1897 4.69221e-06 -8.93779e-05 0.233632 -1.53006e-06 -1.49607e-07)
(0 -3.03497e-19 0 13.1897 1.02158e-05 -8.93751e-05 0.233632 -1.5803e-06 -1.4942e-07)
(1.5403e-15 0 0 13.5273 9.55216e-06 -7.78156e-05 0.24252 -1.47303e-06 -1.53375e-07)
(-1.5403e-15 0 0 13.5273 9.69688e-06 -7.78178e-05 0.24252 -1.52238e-06 -1.532e-07)
(-8.51968e-16 6.2956e-20 3.61973e-22 13.8086 5.78571e-06 -6.74539e-05 0.250591 -1.28211e-06 -1.55386e-07)
(0 -4.1243e-20 0 13.8086 9.35491e-06 -6.74611e-05 0.250591 -1.33042e-06 -1.55216e-07)
(-1.20148e-15 0 0 14.033 -3.71636e-20 1.57427e-05 0.257813 -1.21126e-06 -1.56479e-07)
(0 0 0 14.033 -7.83725e-07 1.41325e-05 0.257813 -1.25831e-06 -1.56313e-07)
(1.21849e-15 0 0 14.2019 -4.38005e-06 8.91469e-05 0.264185 -1.21072e-06 8.76217e-07)
(-4.87395e-15 0 0 14.2019 -3.43937e-06 8.75559e-05 0.264185 -1.25601e-06 8.72093e-07)
(1.45388e-15 0 6.93262e-22 14.3183 2.89274e-05 7.44468e-05 0.269737 -1.20451e-06 1.21323e-06)
(-4.94419e-15 0 -3.7603e-22 14.3183 2.71874e-05 7.44152e-05 0.269737 -1.2466e-06 1.21153e-06)
(-1.2541e-15 0 -2.44568e-22 14.3863 -9.31736e-21 5.68238e-05 0.274515 -6.38641e-07 9.34332e-07)
(1.00328e-14 0 1.2653e-21 14.3863 6.74379e-07 5.68596e-05 0.274515 -6.80075e-07 9.37422e-07)
(1.27259e-15 0 3.86059e-22 14.4104 0.00029775 3.87547e-05 0.278568 -1.49776e-06 5.50255e-07)
(5.09035e-15 0 1.55248e-21 14.4104 0.00027217 3.83728e-05 0.278568 -1.53472e-06 5.32357e-07)
(0 5.75145e-22 0 14.3946 -2.71051e-20 2.98767e-05 0.281937 0 6.13508e-07)
(0 0 0 14.3946 -8.82752e-05 2.95e-05 0.281937 1.14284e-06 6.16895e-07)
(-1.31064e-15 -2.94002e-18 -1.88079e-37 14.3422 -2.6144e-05 5.78993e-22 0.284643 -2.58192e-07 0)
(5.24255e-15 6.54364e-22 2.27915e-21 14.3422 -0.000213609 -5.08201e-06 0.284643 -1.46305e-06 6.53579e-08)
(-1.33011e-15 6.69843e-18 -3.86038e-22 14.2551 2.72335e-20 -5.75001e-05 0.286682 0 9.08572e-07)
(-5.32042e-15 -6.26997e-18 -2.23439e-21 14.2551 3.50892e-05 -5.58217e-05 0.286682 3.51572e-07 8.2808e-07)
(1.34981e-15 0 2.06491e-22 14.1342 -1.5398e-05 -7.41701e-05 0.28803 1.92144e-07 1.39943e-06)
(5.39925e-15 0 8.176e-22 14.1342 -8.90374e-06 -7.44777e-05 0.28803 1.87627e-07 1.41334e-06)
(-1.36971e-15 4.17171e-19 -4.65918e-23 13.9794 -1.03468e-20 -8.53885e-05 0.288644 -1.05879e-22 1.61792e-06)
(5.47885e-15 2.97643e-22 1.86988e-22 13.9794 9.0649e-06 -8.53948e-05 0.288644 9.34853e-08 1.61641e-06)
(-1.38976e-15 -2.56559e-23 0 13.7899 -1.43665e-05 -7.11179e-05 0.288481 3.56007e-07 8.42443e-07)
(0 0 0 13.7899 -1.3489e-05 -7.12818e-05 0.288481 2.89446e-07 8.41921e-07)
(-1.40992e-15 -2.9522e-23 0 13.5654 -1.99989e-05 -3.71663e-06 0.2875 2.44445e-07 1.43466e-07)
(0 0 0 13.5654 -2.05288e-05 -3.85131e-06 0.2875 2.74983e-07 1.434e-07)
(-1.43012e-15 0 -3.00035e-22 13.3063 -3.17475e-05 4.39184e-05 0.285687 2.0078e-07 1.42309e-07)
(5.72047e-15 0 0 13.3063 -3.1617e-05 4.39002e-05 0.285687 1.66032e-07 1.42213e-07)
(1.45031e-15 0 0 13.0141 -3.51969e-05 4.43565e-05 0.283061 -1.35871e-07 1.41043e-07)
(0 0 0 13.0141 -3.51966e-05 4.43497e-05 0.283061 -1.7036e-07 1.40954e-07)
(2.44524e-15 0 5.82992e-22 12.6923 -3.38068e-05 4.21042e-05 0.279683 -4.79379e-07 1.39732e-07)
(-2.44524e-15 0 0 12.6923 -3.36977e-05 4.21029e-05 0.279683 -5.13101e-07 1.39641e-07)
(-1.49038e-15 0 0 12.346 -3.265e-05 3.71086e-05 0.275659 -7.95977e-07 1.38372e-07)
(0 0 0 12.346 -3.25728e-05 3.71104e-05 0.275659 -8.2874e-07 1.38288e-07)
(2.37565e-15 0 5.664e-22 11.9818 -2.28298e-05 2.97078e-05 0.271134 -1.12579e-06 1.36974e-07)
(9.70544e-15 0 0 11.9818 -2.2718e-05 2.97108e-05 0.271134 -1.1575e-06 1.36891e-07)
(-2.3416e-15 -6.97852e-23 -5.58282e-22 11.6076 -9.86368e-06 2.0817e-05 0.266285 -1.2275e-06 1.35544e-07)
(6.1185e-15 0 0 11.6076 -9.73983e-06 2.08217e-05 0.266285 -1.25799e-06 1.35459e-07)
(-1.54879e-15 0 -5.5028e-22 11.232 -1.26705e-06 1.13615e-05 0.261303 -1.26663e-06 1.34052e-07)
(-6.19517e-15 0 0 11.232 -1.19668e-06 1.13671e-05 0.261303 -1.29602e-06 1.33983e-07)
(7.07356e-16 6.77992e-23 2.67066e-20 10.8632 1.07443e-05 1.27055e-21 0.25638 -1.17069e-06 0)
(-6.27043e-15 0 -8.91815e-20 10.8632 1.08486e-05 3.85048e-07 0.25638 -1.19904e-06 4.58766e-09)
(0 0 3.54606e-20 10.5087 1.62543e-05 -3.97218e-06 0.251691 -9.24259e-07 4.80147e-08)
(0 0 0 10.5087 1.63643e-05 -3.96662e-06 0.251691 -9.51418e-07 4.79475e-08)
(-2.21022e-15 0 0 10.1746 1.88939e-05 -1.1593e-05 0.247382 -6.93254e-07 1.29432e-07)
(6.41644e-15 0 0 10.1746 1.89769e-05 -1.1588e-05 0.247382 -7.1931e-07 1.29372e-07)
(-5.56734e-16 -2.59702e-22 -1.03881e-21 9.86536 2.13192e-05 -1.55797e-05 0.243564 -3.76717e-07 1.27801e-07)
(0 0 0 9.86536 2.14125e-05 -1.55747e-05 0.243564 -4.01706e-07 1.27745e-07)
(0 0 0 9.58374 1.63063e-05 -1.74896e-05 0.240306 -8.00747e-08 1.26179e-07)
(1.31133e-14 0 0 9.58374 1.63892e-05 -1.74847e-05 0.240306 -1.04008e-07 1.26126e-07)
(2.11654e-15 0 5.04622e-22 9.33062 1.11729e-05 -1.77267e-05 0.237638 1.16058e-07 1.24476e-07)
(1.32496e-14 0 0 9.33062 1.12559e-05 -1.77219e-05 0.237638 9.31507e-08 1.24427e-07)
(-3.34596e-15 -5.41824e-23 0 9.1054 6.81372e-06 -1.66943e-05 0.235555 9.17138e-08 1.22794e-07)
(0 0 0 9.1054 6.89328e-06 -1.66896e-05 0.235555 9.36871e-08 1.22747e-07)
(-1.68954e-15 8.04854e-21 0 8.90629 3.91507e-21 -1.4877e-05 0.234025 5.29396e-23 1.2102e-07)
(1.35163e-14 3.65456e-22 0 8.90629 8.41334e-07 -1.48724e-05 0.234025 2.25071e-08 1.2098e-07)
(1.70592e-15 4.63005e-23 0 8.73061 -1.87728e-06 -1.27053e-05 0.23299 5.21862e-08 1.19283e-07)
(0 0 0 8.73061 -1.8027e-06 -1.27009e-05 0.23299 5.03669e-08 1.19244e-07)
(-1.72217e-15 4.55133e-21 0 8.57506 -3.55297e-06 -1.04277e-05 0.232377 4.82052e-08 1.17443e-07)
(0 0 0 8.57506 -3.39284e-06 -1.04231e-05 0.232377 4.60326e-08 1.17407e-07)
(-1.73834e-15 -2.55448e-23 0 8.43593 -4.83129e-06 -8.21199e-06 0.232099 1.69902e-07 1.15651e-07)
(6.95335e-15 9.3004e-23 0 8.43593 -4.77076e-06 -8.20763e-06 0.232099 1.68267e-07 1.15619e-07)
(-1.75445e-15 -3.44844e-23 0 8.30926 -2.48468e-06 -5.984e-06 0.232057 9.55699e-08 1.1375e-07)
(7.01779e-15 1.29271e-22 0 8.30926 -2.42e-06 -5.97976e-06 0.232057 9.38719e-08 1.1372e-07)
(-3.54108e-15 -8.80239e-23 0 8.19085 -1.74846e-06 -3.57714e-06 0.232138 4.28441e-08 1.11913e-07)
(0 0 0 8.19085 -1.68862e-06 -3.57308e-06 0.232138 4.09273e-08 1.11884e-07)
(-1.78663e-15 -4.33332e-23 -6.06989e-24 8.07629 -2.2368e-06 -9.75821e-07 0.23222 5.63424e-08 6.62155e-08)
(0 0 0 8.07629 -2.17994e-06 -9.71816e-07 0.23222 5.48716e-08 6.61736e-08)
(1.85866e-15 0 4.43139e-22 7.96104 1.36346e-06 2.00733e-06 0.232167 1.53546e-07 1.07125e-07)
(-7.21102e-15 -1.10431e-22 -4.93583e-25 7.96104 1.41783e-06 2.01115e-06 0.232167 1.54914e-07 1.07157e-07)
(1.81891e-15 1.66203e-20 0 7.84043 4.5528e-21 5.55452e-06 0.231833 0 1.0606e-07)
(7.27565e-15 2.36036e-21 0 7.84043 5.83032e-07 5.55833e-06 0.231833 8.62606e-09 1.06038e-07)
(1.8351e-15 4.65271e-23 0 7.7098 -5.18062e-06 9.28982e-06 0.231068 1.20712e-07 1.04144e-07)
(-7.34042e-15 -1.7966e-22 0 7.7098 -5.127e-06 9.29363e-06 0.231068 1.19065e-07 1.0412e-07)
(-1.85132e-15 -2.83641e-23 0 7.56476 -3.39516e-06 1.29719e-05 0.229725 1.90845e-07 1.02082e-07)
(5.62542e-15 1.07361e-22 0 7.56476 -3.35565e-06 1.29757e-05 0.229725 1.89273e-07 1.02064e-07)
(0 2.0795e-20 0 7.40145 -9.51269e-07 1.67051e-05 0.22767 1.46971e-08 1.00129e-07)
(0 0 -4.18275e-22 7.40145 -8.97647e-07 1.67083e-05 0.22767 1.38686e-08 1.00109e-07)
(-1.72923e-15 -2.0614e-22 -4.1228e-22 7.21679 -4.93471e-06 2.03828e-05 0.224792 1.88418e-07 9.80291e-08)
(5.80576e-15 9.08351e-23 0 7.21679 -4.88525e-06 2.03863e-05 0.224792 1.86401e-07 9.80069e-08)
(1.89987e-15 2.96067e-23 0 7.00886 -2.20269e-06 2.40598e-05 0.221017 1.20491e-07 9.60501e-08)
(0 0 0 7.00886 -2.17023e-06 2.40633e-05 0.221017 1.19414e-07 9.60314e-08)
(-1.68001e-15 0 0 6.77713 -3.01758e-07 2.80267e-05 0.216314 1.88894e-08 9.39133e-08)
(-7.66343e-15 -1.8259e-22 0 6.77713 -2.61982e-07 2.80299e-05 0.216314 1.79026e-08 9.38954e-08)
(-1.65593e-15 -1.97403e-22 -7.89611e-22 6.5226 2.98674e-06 3.26346e-05 0.210705 1.97433e-07 9.19154e-08)
(0 0 0 6.5226 3.02536e-06 3.26377e-05 0.210705 1.98373e-07 9.18939e-08)
(0 0 0 6.24784 6.76384e-06 3.83891e-05 0.204267 2.52256e-07 8.97474e-08)
(-1.6322e-15 0 -1.55659e-21 6.24784 6.79648e-06 3.83922e-05 0.204267 2.53487e-07 8.97272e-08)
(1.96232e-15 5.09315e-23 0 5.95692 8.30818e-06 4.5714e-05 0.197129 3.08049e-07 8.77328e-08)
(0 0 0 5.95692 8.34222e-06 4.57169e-05 0.197129 3.09111e-07 8.77095e-08)
(1.97707e-15 6.34154e-23 0 5.65507 1.03782e-05 5.49491e-05 0.189462 4.02205e-07 8.55402e-08)
(0 0 0 5.65507 1.04084e-05 5.4952e-05 0.189462 4.03206e-07 8.55168e-08)
(-3.98265e-15 -2.65018e-22 0 5.34831 7.77197e-06 6.61632e-05 0.18147 1.34975e-07 8.35145e-08)
(7.96529e-15 5.25665e-22 0 5.34831 7.80144e-06 6.61659e-05 0.18147 1.36018e-07 8.34869e-08)
(-2.00504e-15 -1.47198e-22 0 5.04293 3.70396e-06 7.89893e-05 0.173365 1.25621e-07 8.1301e-08)
(0 0 0 5.04293 3.7323e-06 7.89922e-05 0.173365 1.26572e-07 8.12716e-08)
(0 3.6417e-20 0 4.74498 -4.09789e-07 9.28019e-05 0.165358 7.3145e-09 7.9265e-08)
(0 0 0 4.74498 -1.01644e-20 9.28046e-05 0.165358 0 7.92321e-08)
(0 0 0 4.45977 -1.32628e-05 0.000106385 0.157634 2.69203e-07 7.70377e-08)
(0 0 -1.42743e-21 4.45977 -1.32371e-05 0.000106387 0.157634 2.68313e-07 7.70016e-08)
(-5.90128e-15 -1.75872e-22 -2.81395e-21 4.1914 -2.23431e-05 0.000118166 0.150337 6.9457e-07 7.50055e-08)
(0 0 -2.81395e-21 4.1914 -2.23193e-05 0.000118168 0.150337 6.93596e-07 7.49628e-08)
(0 0 0 3.94259 -3.21572e-05 0.000126553 0.143565 4.02803e-07 7.27725e-08)
(1.64324e-14 0 0 3.94259 -3.21353e-05 0.000126555 0.143565 3.98598e-07 7.27256e-08)
(-4.12974e-15 0 0 3.71451 -4.29426e-05 0.000129692 0.137363 -2.97024e-07 7.07457e-08)
(8.25948e-15 0 0 3.71451 -4.29207e-05 0.000129694 0.137363 -3.00726e-07 7.06908e-08)
(2.07519e-15 0 2.69468e-21 3.50686 -4.89632e-05 0.000125886 0.131719 -1.17088e-06 6.8513e-08)
(0 0 0 3.50686 -4.89436e-05 0.000125888 0.131719 -1.1741e-06 6.84519e-08)
(0 0 0 3.3181 -4.84776e-05 0.000114201 0.126583 -1.90585e-06 6.65001e-08)
(-8.34015e-15 1.03872e-22 0 3.3181 -4.84585e-05 0.000114204 0.126583 -1.94147e-06 6.64285e-08)
(-4.83964e-15 1.66515e-22 -5.23599e-21 3.14581 -4.33815e-05 9.45434e-05 0.12187 -1.8083e-06 6.42763e-08)
(8.3779e-15 -6.47705e-22 0 3.14581 -4.33652e-05 9.45457e-05 0.12187 -1.84365e-06 6.41965e-08)
(0 0 0 2.98704 -3.38582e-05 6.75711e-05 0.117475 -1.71318e-06 6.22873e-08)
(-2.70582e-15 0 -5.16094e-21 2.98704 -3.38394e-05 6.75731e-05 0.117475 -1.74767e-06 6.21927e-08)
(0 0 0 2.8387 -1.82701e-05 3.4894e-05 0.113292 -1.61988e-06 6.00837e-08)
(0 0 0 2.8387 -1.82522e-05 3.48964e-05 0.113292 -1.6544e-06 5.99756e-08)
(-2.1207e-15 4.10099e-22 -2.17466e-37 2.69791 5.72071e-07 -7.98362e-22 0.109219 -1.52941e-06 6.61744e-24)
(0 0 0 2.69791 5.81635e-07 -2.11407e-08 0.109219 -1.56307e-06 4.35953e-10)
(9.24592e-16 1.60246e-22 4.9422e-21 2.56229 1.95518e-05 -3.68546e-05 0.105178 -1.44166e-06 5.59379e-08)
(1.70307e-14 -3.07632e-21 0 2.56229 1.95675e-05 -3.68526e-05 0.105178 -1.47434e-06 5.58008e-08)
(0 0 0 2.43008 3.56403e-05 -6.97567e-05 0.101112 -1.35535e-06 5.40167e-08)
(-2.554e-15 0 -4.87137e-21 2.43008 3.56554e-05 -6.97549e-05 0.101112 -1.38792e-06 5.38561e-08)
(0 3.00097e-22 0 2.30024 4.66443e-05 -9.69853e-05 0.0969933 -1.82418e-06 5.18779e-08)
(0 0 -4.80155e-21 2.30024 4.66549e-05 -9.69834e-05 0.0969933 -1.8245e-06 5.16961e-08)
(-3.97349e-15 0 4.73273e-21 2.17238 5.17348e-05 -0.000116647 0.0928194 -1.5687e-06 5.00058e-08)
(1.72128e-14 0 0 2.17238 5.17462e-05 -0.000116646 0.0928194 -1.56774e-06 4.97956e-08)
(0 0 0 2.04671 5.03836e-05 -0.000127828 0.088612 -3.86188e-07 4.79154e-08)
(1.7269e-14 0 0 2.04671 5.03933e-05 -0.000127826 0.088612 -3.84771e-07 4.7676e-08)
(-2.16536e-15 0 0 1.92389 4.34563e-05 -0.000130663 0.0844107 7.0294e-07 4.60992e-08)
(0 0 0 1.92389 4.34668e-05 -0.000130662 0.0844107 7.04857e-07 4.58232e-08)
(2.17179e-15 3.62918e-23 0 1.80487 3.41046e-05 -0.000126075 0.0802669 1.34304e-06 4.40672e-08)
(1.73743e-14 2.92758e-22 0 1.80487 3.41125e-05 -0.000126074 0.0802669 1.34328e-06 4.37527e-08)
(-2.34209e-15 0 0 1.69071 2.12182e-05 -0.000115657 0.0762369 6.16181e-07 4.23201e-08)
(1.10538e-14 9.32746e-22 0 1.69071 2.12261e-05 -0.000115655 0.0762369 6.16678e-07 4.19571e-08)
(2.18374e-15 2.97024e-21 0 1.58243 8.59094e-06 -0.00010146 0.0723739 2.01738e-07 4.03579e-08)
(0 0 0 1.58243 8.60169e-06 -0.000101458 0.0723739 2.0199e-07 3.99418e-08)
(6.65398e-15 7.54279e-22 0 1.4809 -7.93706e-07 -8.54024e-05 0.0687246 1.9614e-08 3.86815e-08)
(6.48165e-15 0 0 1.4809 -1.5776e-20 -8.54012e-05 0.0687246 0 3.82083e-08)
(0 0 0 1.38675 -8.73349e-06 -6.91297e-05 0.0653244 2.80859e-07 3.68004e-08)
(-2.24282e-15 0 0 1.38675 -8.72753e-06 -6.91286e-05 0.0653244 2.80698e-07 3.6258e-08)
(0 0 0 1.30027 -1.35137e-05 -5.39524e-05 0.0621943 5.65568e-07 3.52115e-08)
(8.79792e-15 9.9143e-22 0 1.30027 -1.351e-05 -5.39516e-05 0.0621943 5.65151e-07 3.45906e-08)
(4.40838e-15 3.38225e-22 0 1.22149 -1.56035e-05 -4.0696e-05 0.0593404 7.61372e-07 3.34251e-08)
(0 0 0 1.22149 -1.56019e-05 -4.0695e-05 0.0593404 7.61436e-07 3.27179e-08)
(4.35643e-15 1.12109e-22 2.56033e-22 1.15009 -1.53656e-05 -2.97291e-05 0.0567556 7.91617e-07 3.19112e-08)
(8.83467e-15 4.52098e-22 0 1.15009 -1.53633e-05 -2.97286e-05 0.0567556 7.91387e-07 3.11168e-08)
(0 0 0 1.08555 -1.4112e-05 -2.10941e-05 0.0544201 7.59485e-07 3.02444e-08)
(8.85172e-15 2.6658e-22 0 1.08555 -1.4112e-05 -2.10936e-05 0.0544201 7.59483e-07 2.93453e-08)
(-2.217e-15 -3.06059e-23 0 1.02714 -1.16686e-05 -1.45899e-05 0.0523035 6.85463e-07 2.87612e-08)
(-8.868e-15 -1.26431e-22 0 1.02714 -1.16702e-05 -1.45899e-05 0.0523035 6.85464e-07 2.78058e-08)
(-4.27762e-15 -1.39723e-22 -1.22591e-22 0.973983 -9.32582e-06 -9.87341e-06 0.0503694 5.25973e-07 2.729e-08)
(0 0 0 0.973983 -9.32883e-06 -9.87332e-06 0.0503694 5.26143e-07 2.62264e-08)
(-2.22464e-15 0 0 0.925174 -7.21218e-06 -5.9282e-06 0.048577 4.46654e-07 2.56169e-08)
(-8.89856e-15 0 0 0.925174 -7.21631e-06 -5.50747e-06 0.048577 4.52676e-07 2.47037e-08)
(0 0 0 0.879792 -5.09183e-06 1.73751e-06 0.0468843 2.75033e-07 4.2674e-08)
(3.99639e-15 0 0 0.879792 -5.09823e-06 2.2034e-06 0.0468843 2.9201e-07 5.30205e-08)
(0 0 1.17395e-22 0.836958 -3.62339e-06 6.31383e-06 0.0452499 2.22858e-07 1.89356e-07)
(1.78538e-14 0 0 0.836958 -3.63158e-06 6.31755e-06 0.0452498 2.16697e-07 2.0216e-07)
(-2.93765e-16 0 -3.47326e-23 0.795875 -2.03723e-06 1.64e-06 0.0436354 4.06388e-08 4.57957e-08)
(6.99904e-15 0 0 0.795875 -2.04523e-06 0 0.0436354 8.37736e-08 -2.96319e-38)
(-3.827e-15 -2.85134e-23 -1.14054e-22 0.755849 -2.81401e-06 -8.88568e-07 0.0420067 2.53977e-07 6.43872e-08)
(-8.95338e-15 -2.29941e-26 -1.54588e-22 0.755849 -2.8215e-06 -9.7275e-07 0.0420067 1.75473e-07 4.04593e-08)
(-1.88608e-15 5.90089e-24 -1.12419e-22 0.716325 -9.7254e-07 -6.12463e-07 0.0403365 -3.07366e-07 4.15164e-08)
(0 -5.95579e-24 0 0.716325 -9.72231e-07 -1.24991e-06 0.0403365 -2.46828e-07 6.99871e-08)
(3.85487e-16 -1.3851e-23 -1.82349e-22 0.676892 1.21562e-06 -6.29695e-07 0.0386042 4.77389e-07 2.88063e-08)
(7.11908e-15 0 2.19998e-22 0.676892 1.21979e-06 -1.25418e-06 0.0386042 1.313e-07 7.37411e-08)
(0 1.15808e-20 1.09219e-22 0.637282 -6.24531e-07 -7.0927e-07 0.0367967 -4.77033e-08 4.4757e-08)
(0 0 0 0.637282 -1.25326e-07 -1.06263e-06 0.0367967 3.70766e-09 7.25393e-08)
(1.80614e-15 -9.24982e-21 1.07654e-22 0.597409 0 -7.69572e-07 0.0349133 4.33872e-08 3.91352e-08)