/*--------------------------------*- C++ -*----------------------------------*\
| =========                 |                                                 |
| \\      /  F ield         | OpenFOAM: The Open Source CFD Toolbox           |
|  \\    /   O peration     | Version:  2012                                  |
|   \\  /    A nd           | Website:  www.openfoam.com                      |
|    \\/     M anipulation  |                                                 |
\*---------------------------------------------------------------------------*/
FoamFile
{
    version     2.0;
    format      ascii;
    class       volScalarField;
    location    "19000";
    object      k;
}
// * * * * * * * * * * * * * * * * * * * * * * * * * * * * * * * * * * * * * //

dimensions      [0 2 -2 0 0 0 0];


internalField   nonuniform List<scalar> 
2560
(
1.44098e-07
1.44098e-07
3.10822e-08
3.10822e-08
7.78906e-08
7.78906e-08
2.66559e-07
2.66559e-07
6.92474e-07
6.92474e-07
1.47998e-06
1.47998e-06
2.77545e-06
2.77545e-06
4.7466e-06
4.7466e-06
7.58305e-06
7.58305e-06
1.14972e-05
1.14972e-05
1.67253e-05
1.67253e-05
2.3529e-05
2.3529e-05
3.21965e-05
3.21965e-05
4.30439e-05
4.30439e-05
5.64171e-05
5.64171e-05
7.2693e-05
7.2693e-05
9.22814e-05
9.22814e-05
0.000115626
0.000115626
0.000143206
0.000143206
0.000175537
0.000175537
0.000213172
0.000213172
0.000256703
0.000256703
0.000306758
0.000306758
0.000364006
0.000364006
0.000429147
0.000429147
0.000502919
0.000502919
0.000586089
0.000586089
0.000679449
0.000679449
0.000783809
0.000783809
0.000899992
0.000899992
0.00102882
0.00102882
0.0011711
0.0011711
0.00132763
0.00132763
0.00149913
0.00149913
0.0016863
0.0016863
0.00188972
0.00188972
0.00210989
0.00210989
0.00234716
0.00234716
0.00260176
0.00260176
0.00287375
0.00287375
0.00316301
0.00316301
0.00346921
0.00346921
0.00379186
0.00379186
0.00413025
0.00413025
0.00448347
0.00448347
0.00485038
0.00485038
0.00522969
0.00522969
0.00561991
0.00561991
0.00601939
0.00601939
0.00642637
0.00642637
0.00683903
0.00683903
0.00725549
0.00725549
0.00767388
0.00767388
0.00809243
0.00809243
0.00850954
0.00850954
0.00892398
0.00892398
0.00933507
0.00933507
0.00974288
0.00974288
0.0101484
0.0101484
0.0105536
0.0105536
0.0109611
0.0109611
0.0113742
0.0113742
0.011796
0.011796
0.0122293
0.0122293
0.0126762
0.0126762
0.0131381
0.0131381
0.0136155
0.0136155
0.014108
0.014108
0.0146149
0.0146149
0.0151344
0.0151344
0.0156647
0.0156647
0.0162031
0.0162031
0.0167469
0.0167469
0.017293
0.017293
0.0178381
0.0178381
0.0183791
0.0183791
0.0189124
0.0189124
0.019435
0.019435
0.0199434
0.0199434
0.0204349
0.0204349
0.0209064
0.0209064
0.0213556
0.0213556
0.0217802
0.0217802
0.022178
0.022178
0.0225474
0.0225474
0.0228869
0.0228869
0.0231953
0.0231953
0.0234715
0.0234715
0.023715
0.023715
0.0239252
0.0239252
0.0241022
0.0241022
0.0242463
0.0242463
0.0243581
0.0243581
0.0244387
0.0244387
0.0244897
0.0244897
0.0245127
0.0245127
0.0245097
0.0245097
0.0244829
0.0244829
0.0244345
0.0244345
0.0243666
0.0243666
0.0242813
0.0242813
0.0241802
0.0241802
0.0240651
0.0240651
0.023937
0.023937
0.023797
0.023797
0.0236456
0.0236456
0.0234832
0.0234832
0.0233099
0.0233099
0.0231254
0.0231254
0.0229295
0.0229295
0.0227216
0.0227216
0.0225009
0.0225009
0.0222669
0.0222669
0.0220189
0.0220189
0.021756
0.021756
0.0214779
0.0214779
0.0211842
0.0211842
0.0208749
0.0208749
0.0205501
0.0205501
0.0202106
0.0202106
0.0198572
0.0198572
0.0194914
0.0194914
0.0191148
0.0191148
0.0187291
0.0187291
0.0183367
0.0183367
0.0179394
0.0179394
0.0175395
0.0175395
0.017139
0.017139
0.0167397
0.0167397
0.0163433
0.0163433
0.0159511
0.0159511
0.0155644
0.0155644
0.0151841
0.0151841
0.014811
0.014811
0.0144456
0.0144456
0.0140887
0.0140887
0.0137404
0.0137404
0.0134013
0.0134013
0.0130716
0.0130716
0.0127517
0.0127517
0.012442
0.012442
0.0121427
0.0121427
0.0118542
0.0118542
0.0115769
0.0115769
0.011311
0.011311
0.0110567
0.0110567
0.0108145
0.0108145
0.0105843
0.0105843
0.0103665
0.0103665
0.010161
0.010161
0.00996802
0.00996802
0.00978753
0.00978753
0.0096195
0.0096195
0.00946391
0.00946391
0.00932067
0.00932067
0.0091897
0.0091897
0.00907089
0.00907089
0.00896412
0.00896412
0.00886926
0.00886926
0.00878618
0.00878618
0.00871475
0.00871475
0.00865484
0.00865484
0.00860632
0.00860632
0.00856906
0.00856906
0.00854292
0.00854292
0.00852778
0.00852778
0.00852351
0.00852351
0.00852996
0.00852996
0.00854699
0.00854699
0.00857445
0.00857445
0.00861215
0.00861215
0.00865994
0.00865994
0.0087176
0.0087176
0.00878493
0.00878493
0.00886169
0.00886169
0.00894762
0.00894762
0.00904242
0.00904242
0.00914571
0.00914571
0.00925704
0.00925704
0.00937585
0.00937585
0.00950142
0.00950142
0.00963289
0.00963289
0.00976918
0.00976918
0.00990905
0.00990905
0.010051
0.010051
0.0101935
0.0101935
0.0103348
0.0103348
0.0104729
0.0104729
0.0106061
0.0106061
0.0107324
0.0107324
0.0108502
0.0108502
0.0109579
0.0109579
0.0110541
0.0110541
0.0111377
0.0111377
0.0112077
0.0112077
0.0112637
0.0112637
0.0113052
0.0113052
0.0113323
0.0113323
0.0113452
0.0113452
0.0113442
0.0113442
0.01133
0.01133
0.0113033
0.0113033
0.0112651
0.0112651
0.0112164
0.0112164
0.0111583
0.0111583
0.011092
0.011092
0.0110187
0.0110187
0.0109397
0.0109397
0.0108562
0.0108562
0.0107697
0.0107697
0.0106813
0.0106813
0.0105924
0.0105924
0.0105043
0.0105043
0.0104182
0.0104182
0.0103351
0.0103351
0.0102564
0.0102564
0.0101828
0.0101828
0.0101153
0.0101153
0.0100547
0.0100547
0.0100015
0.0100015
0.00995624
0.00995624
0.00991922
0.00991922
0.00989067
0.00989067
0.00987067
0.00987067
0.00985921
0.00985921
0.00985611
0.00985611
0.00986108
0.00986108
0.00987368
0.00987368
0.00989328
0.00989328
0.0099191
0.0099191
0.00995016
0.00995016
0.00998532
0.00998532
0.0100233
0.0100233
0.0100629
0.0100629
0.0101026
0.0101026
0.0101412
0.0101412
0.0101776
0.0101776
0.0102108
0.0102108
0.0102401
0.0102401
0.010265
0.010265
0.0102854
0.0102854
0.0103011
0.0103011
0.0103124
0.0103124
0.0103194
0.0103194
0.0103224
0.0103224
0.0103219
0.0103219
0.010318
0.010318
0.010311
0.010311
0.010301
0.010301
0.0102882
0.0102882
0.0102725
0.0102725
0.0102538
0.0102538
0.0102321
0.0102321
0.010207
0.010207
0.0101785
0.0101785
0.0101463
0.0101463
0.0101101
0.0101101
0.0100699
0.0100699
0.0100255
0.0100255
0.00997675
0.00997675
0.00992371
0.00992371
0.00986641
0.00986641
0.00980501
0.00980501
0.00973972
0.00973972
0.00967086
0.00967086
0.00959881
0.00959881
0.00952403
0.00952403
0.00944702
0.00944702
0.00936834
0.00936834
0.00928855
0.00928855
0.00920823
0.00920823
0.00912794
0.00912794
0.00904822
0.00904822
0.00896957
0.00896957
0.00889247
0.00889247
0.00881735
0.00881735
0.00874462
0.00874462
0.00867465
0.00867465
0.00860781
0.00860781
0.00854442
0.00854442
0.00848482
0.00848482
0.00842932
0.00842932
0.00837821
0.00837821
0.00833176
0.00833176
0.0082902
0.0082902
0.00825371
0.00825371
0.00822241
0.00822241
0.00819638
0.00819638
0.0081756
0.0081756
0.00815998
0.00815998
0.00814936
0.00814936
0.00814348
0.00814348
0.00814199
0.00814199
0.00814449
0.00814449
0.00815049
0.00815049
0.00815946
0.00815946
0.00817083
0.00817083
0.00818401
0.00818401
0.00819842
0.00819842
0.00821353
0.00821353
0.00822883
0.00822883
0.00824387
0.00824387
0.00825829
0.00825829
0.00827178
0.00827178
0.00828409
0.00828409
0.00829503
0.00829503
0.00830444
0.00830444
0.00831215
0.00831215
0.00831799
0.00831799
0.00832176
0.00832176
0.0083232
0.0083232
0.00832206
0.00832206
0.00831801
0.00831801
0.0083108
0.0083108
0.00830025
0.00830025
0.0082864
0.0082864
0.00826966
0.00826966
0.00825103
0.00825103
0.00823236
0.00823236
0.00821426
0.00821426
1.44098e-07
1.44098e-07
3.10822e-08
3.10822e-08
7.78905e-08
7.78905e-08
2.66559e-07
2.66559e-07
6.92474e-07
6.92474e-07
1.47998e-06
1.47998e-06
2.77544e-06
2.77544e-06
4.7466e-06
4.7466e-06
7.58305e-06
7.58305e-06
1.14972e-05
1.14972e-05
1.67253e-05
1.67253e-05
2.3529e-05
2.3529e-05
3.21965e-05
3.21965e-05
4.30438e-05
4.30438e-05
5.6417e-05
5.6417e-05
7.2693e-05
7.2693e-05
9.22814e-05
9.22814e-05
0.000115626
0.000115626
0.000143206
0.000143206
0.000175537
0.000175537
0.000213172
0.000213172
0.000256703
0.000256703
0.000306758
0.000306758
0.000364005
0.000364005
0.000429147
0.000429147
0.000502919
0.000502919
0.000586089
0.000586089
0.000679449
0.000679449
0.000783809
0.000783809
0.000899992
0.000899992
0.00102882
0.00102882
0.0011711
0.0011711
0.00132763
0.00132763
0.00149913
0.00149913
0.0016863
0.0016863
0.00188972
0.00188972
0.00210988
0.00210988
0.00234716
0.00234716
0.00260176
0.00260176
0.00287375
0.00287375
0.00316301
0.00316301
0.00346921
0.00346921
0.00379186
0.00379186
0.00413025
0.00413025
0.00448346
0.00448346
0.00485038
0.00485038
0.00522969
0.00522969
0.0056199
0.0056199
0.00601938
0.00601938
0.00642637
0.00642637
0.00683903
0.00683903
0.00725549
0.00725549
0.00767388
0.00767388
0.00809243
0.00809243
0.00850954
0.00850954
0.00892398
0.00892398
0.00933507
0.00933507
0.00974287
0.00974287
0.0101484
0.0101484
0.0105536
0.0105536
0.0109611
0.0109611
0.0113742
0.0113742
0.011796
0.011796
0.0122293
0.0122293
0.0126762
0.0126762
0.0131381
0.0131381
0.0136155
0.0136155
0.014108
0.014108
0.0146149
0.0146149
0.0151344
0.0151344
0.0156646
0.0156646
0.0162031
0.0162031
0.0167469
0.0167469
0.017293
0.017293
0.0178381
0.0178381
0.0183791
0.0183791
0.0189124
0.0189124
0.019435
0.019435
0.0199434
0.0199434
0.0204348
0.0204348
0.0209064
0.0209064
0.0213556
0.0213556
0.0217802
0.0217802
0.022178
0.022178
0.0225474
0.0225474
0.0228869
0.0228869
0.0231953
0.0231953
0.0234715
0.0234715
0.023715
0.023715
0.0239252
0.0239252
0.0241022
0.0241022
0.0242463
0.0242463
0.0243581
0.0243581
0.0244387
0.0244387
0.0244897
0.0244897
0.0245127
0.0245127
0.0245097
0.0245097
0.0244829
0.0244829
0.0244345
0.0244345
0.0243666
0.0243666
0.0242812
0.0242812
0.0241802
0.0241802
0.024065
0.024065
0.023937
0.023937
0.0237969
0.0237969
0.0236456
0.0236456
0.0234832
0.0234832
0.0233099
0.0233099
0.0231254
0.0231254
0.0229295
0.0229295
0.0227216
0.0227216
0.0225009
0.0225009
0.0222669
0.0222669
0.0220188
0.0220188
0.021756
0.021756
0.0214779
0.0214779
0.0211842
0.0211842
0.0208749
0.0208749
0.0205501
0.0205501
0.0202106
0.0202106
0.0198572
0.0198572
0.0194914
0.0194914
0.0191147
0.0191147
0.0187291
0.0187291
0.0183367
0.0183367
0.0179394
0.0179394
0.0175395
0.0175395
0.017139
0.017139
0.0167397
0.0167397
0.0163433
0.0163433
0.0159511
0.0159511
0.0155644
0.0155644
0.0151841
0.0151841
0.014811
0.014811
0.0144456
0.0144456
0.0140886
0.0140886
0.0137404
0.0137404
0.0134013
0.0134013
0.0130716
0.0130716
0.0127517
0.0127517
0.012442
0.012442
0.0121427
0.0121427
0.0118542
0.0118542
0.0115769
0.0115769
0.011311
0.011311
0.0110567
0.0110567
0.0108145
0.0108145
0.0105843
0.0105843
0.0103665
0.0103665
0.010161
0.010161
0.00996802
0.00996802
0.00978752
0.00978752
0.0096195
0.0096195
0.00946391
0.00946391
0.00932067
0.00932067
0.0091897
0.0091897
0.00907089
0.00907089
0.00896411
0.00896411
0.00886925
0.00886925
0.00878618
0.00878618
0.00871475
0.00871475
0.00865484
0.00865484
0.00860632
0.00860632
0.00856905
0.00856905
0.00854292
0.00854292
0.00852778
0.00852778
0.0085235
0.0085235
0.00852996
0.00852996
0.00854699
0.00854699
0.00857444
0.00857444
0.00861215
0.00861215
0.00865993
0.00865993
0.00871759
0.00871759
0.00878492
0.00878492
0.00886168
0.00886168
0.00894762
0.00894762
0.00904241
0.00904241
0.0091457
0.0091457
0.00925704
0.00925704
0.00937584
0.00937584
0.00950142
0.00950142
0.00963288
0.00963288
0.00976917
0.00976917
0.00990904
0.00990904
0.010051
0.010051
0.0101935
0.0101935
0.0103348
0.0103348
0.0104729
0.0104729
0.0106061
0.0106061
0.0107324
0.0107324
0.0108502
0.0108502
0.0109579
0.0109579
0.0110541
0.0110541
0.0111377
0.0111377
0.0112077
0.0112077
0.0112637
0.0112637
0.0113052
0.0113052
0.0113323
0.0113323
0.0113452
0.0113452
0.0113442
0.0113442
0.01133
0.01133
0.0113033
0.0113033
0.0112651
0.0112651
0.0112164
0.0112164
0.0111583
0.0111583
0.011092
0.011092
0.0110187
0.0110187
0.0109397
0.0109397
0.0108562
0.0108562
0.0107697
0.0107697
0.0106813
0.0106813
0.0105924
0.0105924
0.0105043
0.0105043
0.0104182
0.0104182
0.0103351
0.0103351
0.0102564
0.0102564
0.0101828
0.0101828
0.0101153
0.0101153
0.0100547
0.0100547
0.0100015
0.0100015
0.00995623
0.00995623
0.00991921
0.00991921
0.00989066
0.00989066
0.00987067
0.00987067
0.0098592
0.0098592
0.00985611
0.00985611
0.00986108
0.00986108
0.00987367
0.00987367
0.00989328
0.00989328
0.00991909
0.00991909
0.00995015
0.00995015
0.00998532
0.00998532
0.0100233
0.0100233
0.0100629
0.0100629
0.0101026
0.0101026
0.0101412
0.0101412
0.0101776
0.0101776
0.0102108
0.0102108
0.0102401
0.0102401
0.010265
0.010265
0.0102854
0.0102854
0.0103011
0.0103011
0.0103124
0.0103124
0.0103194
0.0103194
0.0103224
0.0103224
0.0103219
0.0103219
0.010318
0.010318
0.010311
0.010311
0.010301
0.010301
0.0102882
0.0102882
0.0102725
0.0102725
0.0102538
0.0102538
0.010232
0.010232
0.010207
0.010207
0.0101785
0.0101785
0.0101463
0.0101463
0.0101101
0.0101101
0.0100699
0.0100699
0.0100255
0.0100255
0.00997675
0.00997675
0.0099237
0.0099237
0.00986641
0.00986641
0.00980501
0.00980501
0.00973972
0.00973972
0.00967086
0.00967086
0.00959881
0.00959881
0.00952403
0.00952403
0.00944702
0.00944702
0.00936834
0.00936834
0.00928855
0.00928855
0.00920823
0.00920823
0.00912794
0.00912794
0.00904822
0.00904822
0.00896957
0.00896957
0.00889247
0.00889247
0.00881736
0.00881736
0.00874462
0.00874462
0.00867465
0.00867465
0.00860781
0.00860781
0.00854442
0.00854442
0.00848482
0.00848482
0.00842932
0.00842932
0.00837821
0.00837821
0.00833176
0.00833176
0.0082902
0.0082902
0.00825371
0.00825371
0.00822241
0.00822241
0.00819638
0.00819638
0.0081756
0.0081756
0.00815998
0.00815998
0.00814936
0.00814936
0.00814347
0.00814347
0.00814199
0.00814199
0.00814449
0.00814449
0.00815049
0.00815049
0.00815946
0.00815946
0.00817082
0.00817082
0.008184
0.008184
0.00819842
0.00819842
0.00821353
0.00821353
0.00822882
0.00822882
0.00824387
0.00824387
0.00825829
0.00825829
0.00827177
0.00827177
0.00828409
0.00828409
0.00829503
0.00829503
0.00830444
0.00830444
0.00831215
0.00831215
0.00831799
0.00831799
0.00832175
0.00832175
0.0083232
0.0083232
0.00832206
0.00832206
0.00831802
0.00831802
0.0083108
0.0083108
0.00830025
0.00830025
0.00828641
0.00828641
0.00826967
0.00826967
0.00825103
0.00825103
0.00823236
0.00823236
0.00821427
0.00821427
0.00821427
0.00821427
0.00823236
0.00823236
0.00825104
0.00825104
0.00826968
0.00826968
0.00828642
0.00828642
0.00830028
0.00830028
0.00831083
0.00831083
0.00831804
0.00831804
0.00832208
0.00832208
0.00832321
0.00832321
0.00832174
0.00832174
0.00831796
0.00831796
0.00831211
0.00831211
0.00830439
0.00830439
0.008295
0.008295
0.00828407
0.00828407
0.00827177
0.00827177
0.0082583
0.0082583
0.00824389
0.00824389
0.00822885
0.00822885
0.00821356
0.00821356
0.00819847
0.00819847
0.00818406
0.00818406
0.00817089
0.00817089
0.00815952
0.00815952
0.00815055
0.00815055
0.00814454
0.00814454
0.00814203
0.00814203
0.00814351
0.00814351
0.00814939
0.00814939
0.00816
0.00816
0.0081756
0.0081756
0.00819638
0.00819638
0.00822241
0.00822241
0.0082537
0.0082537
0.00829021
0.00829021
0.00833178
0.00833178
0.00837823
0.00837823
0.00842934
0.00842934
0.00848484
0.00848484
0.00854444
0.00854444
0.00860783
0.00860783
0.00867467
0.00867467
0.00874464
0.00874464
0.00881738
0.00881738
0.0088925
0.0088925
0.0089696
0.0089696
0.00904825
0.00904825
0.00912797
0.00912797
0.00920826
0.00920826
0.00928857
0.00928857
0.00936835
0.00936835
0.00944703
0.00944703
0.00952403
0.00952403
0.0095988
0.0095988
0.00967084
0.00967084
0.00973969
0.00973969
0.00980497
0.00980497
0.00986636
0.00986636
0.00992365
0.00992365
0.00997668
0.00997668
0.0100254
0.0100254
0.0100698
0.0100698
0.01011
0.01011
0.0101462
0.0101462
0.0101784
0.0101784
0.0102069
0.0102069
0.010232
0.010232
0.0102537
0.0102537
0.0102724
0.0102724
0.0102881
0.0102881
0.010301
0.010301
0.0103109
0.0103109
0.0103179
0.0103179
0.0103218
0.0103218
0.0103224
0.0103224
0.0103193
0.0103193
0.0103123
0.0103123
0.010301
0.010301
0.0102853
0.0102853
0.0102649
0.0102649
0.01024
0.01024
0.0102107
0.0102107
0.0101775
0.0101775
0.0101411
0.0101411
0.0101025
0.0101025
0.0100628
0.0100628
0.0100233
0.0100233
0.00998526
0.00998526
0.0099501
0.0099501
0.00991904
0.00991904
0.00989322
0.00989322
0.00987361
0.00987361
0.00986101
0.00986101
0.00985603
0.00985603
0.00985912
0.00985912
0.00987059
0.00987059
0.00989057
0.00989057
0.00991912
0.00991912
0.00995614
0.00995614
0.0100014
0.0100014
0.0100546
0.0100546
0.0101152
0.0101152
0.0101827
0.0101827
0.0102563
0.0102563
0.0103351
0.0103351
0.0104181
0.0104181
0.0105042
0.0105042
0.0105924
0.0105924
0.0106812
0.0106812
0.0107696
0.0107696
0.0108562
0.0108562
0.0109396
0.0109396
0.0110186
0.0110186
0.0110919
0.0110919
0.0111582
0.0111582
0.0112163
0.0112163
0.011265
0.011265
0.0113032
0.0113032
0.0113299
0.0113299
0.0113441
0.0113441
0.0113451
0.0113451
0.0113323
0.0113323
0.0113052
0.0113052
0.0112636
0.0112636
0.0112077
0.0112077
0.0111376
0.0111376
0.0110541
0.0110541
0.0109579
0.0109579
0.0108502
0.0108502
0.0107324
0.0107324
0.010606
0.010606
0.0104729
0.0104729
0.0103347
0.0103347
0.0101935
0.0101935
0.010051
0.010051
0.00990906
0.00990906
0.00976921
0.00976921
0.00963293
0.00963293
0.00950147
0.00950147
0.00937591
0.00937591
0.00925711
0.00925711
0.00914579
0.00914579
0.00904251
0.00904251
0.00894773
0.00894773
0.0088618
0.0088618
0.00878505
0.00878505
0.00871774
0.00871774
0.00866009
0.00866009
0.00861232
0.00861232
0.00857463
0.00857463
0.00854719
0.00854719
0.00853018
0.00853018
0.00852374
0.00852374
0.00852803
0.00852803
0.00854319
0.00854319
0.00856934
0.00856934
0.00860663
0.00860663
0.00865517
0.00865517
0.0087151
0.0087151
0.00878655
0.00878655
0.00886964
0.00886964
0.00896453
0.00896453
0.00907132
0.00907132
0.00919015
0.00919015
0.00932115
0.00932115
0.0094644
0.0094644
0.00962002
0.00962002
0.00978807
0.00978807
0.00996859
0.00996859
0.0101616
0.0101616
0.0103671
0.0103671
0.010585
0.010585
0.0108151
0.0108151
0.0110574
0.0110574
0.0113117
0.0113117
0.0115776
0.0115776
0.011855
0.011855
0.0121435
0.0121435
0.0124428
0.0124428
0.0127526
0.0127526
0.0130724
0.0130724
0.0134021
0.0134021
0.0137413
0.0137413
0.0140896
0.0140896
0.0144466
0.0144466
0.0148119
0.0148119
0.0151851
0.0151851
0.0155654
0.0155654
0.0159522
0.0159522
0.0163444
0.0163444
0.0167408
0.0167408
0.0171401
0.0171401
0.0175407
0.0175407
0.0179406
0.0179406
0.0183379
0.0183379
0.0187304
0.0187304
0.0191161
0.0191161
0.0194928
0.0194928
0.0198586
0.0198586
0.020212
0.020212
0.0205516
0.0205516
0.0208764
0.0208764
0.0211858
0.0211858
0.0214796
0.0214796
0.0217577
0.0217577
0.0220206
0.0220206
0.0222687
0.0222687
0.0225028
0.0225028
0.0227234
0.0227234
0.0229314
0.0229314
0.0231274
0.0231274
0.0233118
0.0233118
0.0234852
0.0234852
0.0236476
0.0236476
0.023799
0.023799
0.023939
0.023939
0.0240671
0.0240671
0.0241823
0.0241823
0.0242833
0.0242833
0.0243687
0.0243687
0.0244366
0.0244366
0.024485
0.024485
0.0245117
0.0245117
0.0245147
0.0245147
0.0244916
0.0244916
0.0244407
0.0244407
0.02436
0.02436
0.0242482
0.0242482
0.0241042
0.0241042
0.0239272
0.0239272
0.023717
0.023717
0.0234735
0.0234735
0.0231973
0.0231973
0.0228889
0.0228889
0.0225494
0.0225494
0.0221799
0.0221799
0.021782
0.021782
0.0213574
0.0213574
0.0209082
0.0209082
0.0204366
0.0204366
0.0199451
0.0199451
0.0194366
0.0194366
0.0189141
0.0189141
0.0183807
0.0183807
0.0178397
0.0178397
0.0172945
0.0172945
0.0167484
0.0167484
0.0162045
0.0162045
0.0156661
0.0156661
0.0151358
0.0151358
0.0146161
0.0146161
0.0141092
0.0141092
0.0136166
0.0136166
0.0131391
0.0131391
0.0126772
0.0126772
0.0122301
0.0122301
0.0117968
0.0117968
0.0113749
0.0113749
0.0109617
0.0109617
0.0105541
0.0105541
0.0101488
0.0101488
0.00974325
0.00974325
0.00933541
0.00933541
0.0089243
0.0089243
0.00850984
0.00850984
0.00809272
0.00809272
0.00767416
0.00767416
0.00725577
0.00725577
0.00683931
0.0068393
0.00642663
0.00642663
0.00601963
0.00601963
0.00562014
0.00562014
0.00522991
0.00522991
0.00485059
0.00485059
0.00448366
0.00448366
0.00413044
0.00413044
0.00379204
0.00379204
0.00346938
0.00346938
0.00316316
0.00316316
0.00287389
0.00287389
0.00260189
0.00260189
0.00234728
0.00234728
0.00210999
0.00210999
0.00188982
0.00188982
0.00168639
0.00168639
0.00149921
0.00149921
0.0013277
0.0013277
0.00117116
0.00117116
0.00102887
0.00102887
0.000900039
0.000900038
0.00078385
0.00078385
0.000679484
0.000679484
0.00058612
0.00058612
0.000502946
0.000502946
0.000429169
0.000429169
0.000364024
0.000364024
0.000306774
0.000306774
0.000256716
0.000256716
0.000213183
0.000213183
0.000175546
0.000175546
0.000143213
0.000143213
0.000115632
0.000115632
9.22862e-05
9.22862e-05
7.26968e-05
7.26968e-05
5.642e-05
5.642e-05
4.30461e-05
4.30461e-05
3.21982e-05
3.21982e-05
2.35303e-05
2.35303e-05
1.67262e-05
1.67262e-05
1.14978e-05
1.14978e-05
7.58345e-06
7.58345e-06
4.74685e-06
4.74685e-06
2.77559e-06
2.77559e-06
1.48006e-06
1.48006e-06
6.92511e-07
6.92511e-07
2.66572e-07
2.66572e-07
7.78943e-08
7.78943e-08
3.1083e-08
3.1083e-08
1.44101e-07
1.44101e-07
0.00821427
0.00821427
0.00823237
0.00823237
0.00825105
0.00825105
0.00826969
0.00826969
0.00828643
0.00828643
0.00830028
0.00830028
0.00831083
0.00831083
0.00831804
0.00831804
0.00832208
0.00832208
0.00832321
0.00832321
0.00832174
0.00832174
0.00831795
0.00831795
0.00831211
0.00831211
0.00830439
0.00830439
0.00829499
0.00829499
0.00828407
0.00828407
0.00827177
0.00827177
0.0082583
0.0082583
0.00824389
0.00824389
0.00822885
0.00822885
0.00821356
0.00821356
0.00819846
0.00819846
0.00818405
0.00818405
0.00817088
0.00817088
0.00815952
0.00815952
0.00815054
0.00815054
0.00814454
0.00814454
0.00814203
0.00814203
0.00814351
0.00814351
0.00814939
0.00814939
0.00816
0.00816
0.0081756
0.0081756
0.00819637
0.00819637
0.0082224
0.0082224
0.0082537
0.0082537
0.0082902
0.0082902
0.00833178
0.00833178
0.00837823
0.00837823
0.00842934
0.00842934
0.00848484
0.00848484
0.00854444
0.00854444
0.00860783
0.00860783
0.00867467
0.00867467
0.00874465
0.00874465
0.00881738
0.00881738
0.0088925
0.0088925
0.0089696
0.0089696
0.00904825
0.00904825
0.00912797
0.00912797
0.00920826
0.00920826
0.00928857
0.00928857
0.00936835
0.00936835
0.00944703
0.00944703
0.00952403
0.00952403
0.0095988
0.0095988
0.00967084
0.00967084
0.00973969
0.00973969
0.00980497
0.00980497
0.00986636
0.00986636
0.00992364
0.00992364
0.00997667
0.00997667
0.0100254
0.0100254
0.0100698
0.0100698
0.01011
0.01011
0.0101462
0.0101462
0.0101784
0.0101784
0.0102069
0.0102069
0.010232
0.010232
0.0102537
0.0102537
0.0102724
0.0102724
0.0102881
0.0102881
0.0103009
0.0103009
0.0103109
0.0103109
0.0103179
0.0103179
0.0103218
0.0103218
0.0103224
0.0103224
0.0103193
0.0103193
0.0103123
0.0103123
0.010301
0.010301
0.0102853
0.0102853
0.0102649
0.0102649
0.01024
0.01024
0.0102107
0.0102107
0.0101775
0.0101775
0.0101411
0.0101411
0.0101025
0.0101025
0.0100628
0.0100628
0.0100233
0.0100233
0.00998525
0.00998525
0.00995009
0.00995009
0.00991903
0.00991903
0.00989321
0.00989321
0.00987361
0.00987361
0.009861
0.009861
0.00985602
0.00985602
0.00985912
0.00985912
0.00987058
0.00987058
0.00989057
0.00989057
0.00991912
0.00991912
0.00995614
0.00995614
0.0100014
0.0100014
0.0100546
0.0100546
0.0101152
0.0101152
0.0101827
0.0101827
0.0102563
0.0102563
0.0103351
0.0103351
0.0104181
0.0104181
0.0105042
0.0105042
0.0105924
0.0105924
0.0106812
0.0106812
0.0107696
0.0107696
0.0108562
0.0108562
0.0109396
0.0109396
0.0110186
0.0110186
0.0110919
0.0110919
0.0111582
0.0111582
0.0112163
0.0112163
0.011265
0.011265
0.0113032
0.0113032
0.0113299
0.0113299
0.0113441
0.0113441
0.0113451
0.0113451
0.0113322
0.0113322
0.0113051
0.0113051
0.0112636
0.0112636
0.0112076
0.0112076
0.0111376
0.0111376
0.0110541
0.0110541
0.0109579
0.0109579
0.0108502
0.0108502
0.0107324
0.0107324
0.010606
0.010606
0.0104729
0.0104729
0.0103347
0.0103347
0.0101935
0.0101935
0.010051
0.010051
0.00990906
0.00990906
0.0097692
0.0097692
0.00963292
0.00963292
0.00950146
0.00950146
0.0093759
0.0093759
0.00925711
0.00925711
0.00914579
0.00914579
0.0090425
0.0090425
0.00894772
0.00894772
0.0088618
0.0088618
0.00878505
0.00878505
0.00871773
0.00871773
0.00866009
0.00866009
0.00861232
0.00861232
0.00857463
0.00857463
0.00854719
0.00854719
0.00853017
0.00853017
0.00852374
0.00852374
0.00852803
0.00852803
0.00854318
0.00854318
0.00856934
0.00856934
0.00860662
0.00860662
0.00865516
0.00865516
0.00871509
0.00871509
0.00878654
0.00878654
0.00886964
0.00886964
0.00896452
0.00896452
0.00907131
0.00907131
0.00919015
0.00919015
0.00932114
0.00932114
0.0094644
0.0094644
0.00962002
0.00962002
0.00978806
0.00978806
0.00996858
0.00996858
0.0101616
0.0101616
0.0103671
0.0103671
0.0105849
0.0105849
0.0108151
0.0108151
0.0110574
0.0110574
0.0113117
0.0113117
0.0115776
0.0115776
0.011855
0.011855
0.0121435
0.0121435
0.0124428
0.0124428
0.0127525
0.0127525
0.0130724
0.0130724
0.0134021
0.0134021
0.0137413
0.0137413
0.0140896
0.0140896
0.0144466
0.0144466
0.0148119
0.0148119
0.0151851
0.0151851
0.0155654
0.0155654
0.0159522
0.0159522
0.0163444
0.0163444
0.0167408
0.0167408
0.0171401
0.0171401
0.0175407
0.0175407
0.0179406
0.0179406
0.0183379
0.0183379
0.0187304
0.0187304
0.019116
0.019116
0.0194928
0.0194928
0.0198586
0.0198586
0.020212
0.020212
0.0205516
0.0205516
0.0208764
0.0208764
0.0211858
0.0211858
0.0214796
0.0214796
0.0217577
0.0217577
0.0220206
0.0220206
0.0222687
0.0222687
0.0225028
0.0225028
0.0227234
0.0227234
0.0229314
0.0229314
0.0231274
0.0231274
0.0233118
0.0233118
0.0234852
0.0234852
0.0236476
0.0236476
0.023799
0.023799
0.023939
0.023939
0.0240671
0.0240671
0.0241823
0.0241823
0.0242833
0.0242833
0.0243687
0.0243687
0.0244366
0.0244366
0.0244849
0.0244849
0.0245117
0.0245117
0.0245147
0.0245147
0.0244916
0.0244916
0.0244407
0.0244407
0.02436
0.02436
0.0242482
0.0242482
0.0241042
0.0241042
0.0239272
0.0239272
0.023717
0.023717
0.0234735
0.0234735
0.0231973
0.0231973
0.0228889
0.0228889
0.0225493
0.0225493
0.0221799
0.0221799
0.021782
0.021782
0.0213574
0.0213574
0.0209082
0.0209082
0.0204366
0.0204366
0.0199451
0.0199451
0.0194366
0.0194366
0.0189141
0.0189141
0.0183807
0.0183807
0.0178397
0.0178397
0.0172945
0.0172945
0.0167484
0.0167484
0.0162045
0.0162045
0.0156661
0.0156661
0.0151358
0.0151358
0.0146161
0.0146161
0.0141092
0.0141092
0.0136166
0.0136166
0.0131391
0.0131391
0.0126772
0.0126772
0.0122301
0.0122301
0.0117968
0.0117968
0.0113749
0.0113749
0.0109617
0.0109617
0.0105541
0.0105541
0.0101488
0.0101488
0.00974325
0.00974325
0.00933541
0.00933541
0.0089243
0.0089243
0.00850984
0.00850984
0.00809271
0.00809271
0.00767416
0.00767416
0.00725577
0.00725577
0.0068393
0.0068393
0.00642663
0.00642663
0.00601963
0.00601963
0.00562014
0.00562014
0.00522991
0.00522991
0.00485059
0.00485059
0.00448366
0.00448366
0.00413044
0.00413044
0.00379204
0.00379204
0.00346938
0.00346938
0.00316316
0.00316316
0.00287389
0.00287389
0.00260189
0.00260189
0.00234728
0.00234728
0.00210999
0.00210999
0.00188982
0.00188982
0.00168639
0.00168639
0.00149921
0.00149921
0.0013277
0.0013277
0.00117116
0.00117116
0.00102887
0.00102887
0.000900038
0.000900038
0.00078385
0.00078385
0.000679484
0.000679484
0.00058612
0.00058612
0.000502946
0.000502946
0.000429169
0.000429169
0.000364024
0.000364024
0.000306774
0.000306774
0.000256716
0.000256716
0.000213183
0.000213183
0.000175546
0.000175546
0.000143213
0.000143213
0.000115632
0.000115632
9.22862e-05
9.22862e-05
7.26968e-05
7.26968e-05
5.642e-05
5.642e-05
4.30461e-05
4.30461e-05
3.21982e-05
3.21982e-05
2.35303e-05
2.35303e-05
1.67262e-05
1.67262e-05
1.14978e-05
1.14978e-05
7.58345e-06
7.58345e-06
4.74685e-06
4.74685e-06
2.77559e-06
2.77559e-06
1.48006e-06
1.48006e-06
6.92511e-07
6.92511e-07
2.66572e-07
2.66572e-07
7.78943e-08
7.78943e-08
3.1083e-08
3.1083e-08
1.44101e-07
1.44101e-07
)
;

boundaryField
{
    walls
    {
        type            kqRWallFunction;
        value           nonuniform List<scalar> 8(1.44098e-07 1.44098e-07 1.44098e-07 1.44098e-07 1.44101e-07 1.44101e-07 1.44101e-07 1.44101e-07);
    }
    inlet
    {
        type            cyclic;
    }
    outlet
    {
        type            cyclic;
    }
    sides
    {
        type            empty;
    }
}


// ************************************************************************* //
