/*--------------------------------*- C++ -*----------------------------------*\
| =========                 |                                                 |
| \\      /  F ield         | OpenFOAM: The Open Source CFD Toolbox           |
|  \\    /   O peration     | Version:  2012                                  |
|   \\  /    A nd           | Website:  www.openfoam.com                      |
|    \\/     M anipulation  |                                                 |
\*---------------------------------------------------------------------------*/
FoamFile
{
    version     2.0;
    format      ascii;
    class       volScalarField;
    location    "19000";
    object      p;
}
// * * * * * * * * * * * * * * * * * * * * * * * * * * * * * * * * * * * * * //

dimensions      [0 2 -2 0 0 0 0];


internalField   nonuniform List<scalar> 
2560
(
-2.45494e-09
-7.0984e-08
-9.99067e-08
-1.55863e-07
-1.14821e-07
-1.607e-07
-1.14561e-07
-1.543e-07
-1.19452e-07
-1.53413e-07
-1.27165e-07
-1.56236e-07
-1.35777e-07
-1.60748e-07
-1.45173e-07
-1.66463e-07
-1.55817e-07
-1.73428e-07
-1.67769e-07
-1.81571e-07
-1.80805e-07
-1.90367e-07
-1.94628e-07
-1.9857e-07
-2.16666e-07
-2.10025e-07
-2.73227e-07
-2.51329e-07
-4.25454e-07
-3.88259e-07
-7.48581e-07
-7.00901e-07
-1.27104e-06
-1.21786e-06
-1.94375e-06
-1.88648e-06
-2.68816e-06
-2.62742e-06
-3.4614e-06
-3.39781e-06
-4.25111e-06
-4.18499e-06
-5.04039e-06
-4.97192e-06
-5.82336e-06
-5.75255e-06
-6.65207e-06
-6.57903e-06
-7.64583e-06
-7.57073e-06
-8.93764e-06
-8.86057e-06
-1.06035e-05
-1.05244e-05
-1.26285e-05
-1.25475e-05
-1.49252e-05
-1.48422e-05
-1.73733e-05
-1.72884e-05
-1.98518e-05
-1.97649e-05
-2.22526e-05
-2.21638e-05
-2.44956e-05
-2.44051e-05
-2.6555e-05
-2.64626e-05
-2.84881e-05
-2.83938e-05
-3.04421e-05
-3.0346e-05
-3.26268e-05
-3.25288e-05
-3.52649e-05
-3.51652e-05
-3.85437e-05
-3.84421e-05
-4.25807e-05
-4.24772e-05
-4.74077e-05
-4.73023e-05
-5.29688e-05
-5.28615e-05
-5.91355e-05
-5.90263e-05
-6.57415e-05
-6.56302e-05
-7.2631e-05
-7.25176e-05
-7.96956e-05
-7.95802e-05
-8.68912e-05
-8.67735e-05
-9.42634e-05
-9.41433e-05
-0.000101935
-0.000101813
-0.000110117
-0.000109992
-0.00011936
-0.000119232
-0.000130971
-0.000130841
-0.000147454
-0.000147321
-0.000172857
-0.000172721
-0.000212781
-0.000212642
-0.000273672
-0.000273531
-0.000361266
-0.000361121
-0.000478452
-0.000478304
-0.000623114
-0.000622964
-0.000786964
-0.000786812
-0.000956034
-0.000955883
-0.00111297
-0.00111282
-0.00124054
-0.00124041
-0.00132525
-0.00132514
-0.0013632
-0.00136312
-0.00134517
-0.00134516
-0.00128628
-0.00128634
-0.00121001
-0.0012101
-0.00111795
-0.00111805
-0.00102076
-0.00102086
-0.00092602
-0.00092612
-0.000838489
-0.000838587
-0.000760501
-0.000760595
-0.000692685
-0.000692774
-0.000634669
-0.000634753
-0.000585664
-0.000585743
-0.000544799
-0.000544872
-0.000511265
-0.000511332
-0.000484295
-0.000484357
-0.000463147
-0.000463204
-0.000447114
-0.000447166
-0.000435461
-0.000435508
-0.0004274
-0.000427446
-0.00042233
-0.000422368
-0.00041949
-0.000419554
-0.000418766
-0.000418821
-0.000420068
-0.000420106
-0.000423285
-0.000423348
-0.000428995
-0.000429056
-0.000437617
-0.000437678
-0.000449751
-0.000449809
-0.000465924
-0.000465978
-0.000486531
-0.000486581
-0.000511721
-0.000511766
-0.000541342
-0.000541383
-0.000574944
-0.000574981
-0.000611776
-0.000611809
-0.00065087
-0.000650898
-0.000691163
-0.000691188
-0.00073159
-0.000731611
-0.000771203
-0.000771221
-0.000809242
-0.000809256
-0.000845167
-0.000845178
-0.000878697
-0.000878705
-0.00090976
-0.000909765
-0.000938444
-0.000938446
-0.000964953
-0.000964952
-0.00098954
-0.000989537
-0.00101248
-0.00101247
-0.00103403
-0.00103403
-0.00105445
-0.00105444
-0.001074
-0.00107399
-0.00109294
-0.00109292
-0.00111156
-0.00111154
-0.00113019
-0.00113017
-0.00114921
-0.00114919
-0.00116898
-0.00116896
-0.00118983
-0.00118981
-0.0012121
-0.00121208
-0.00123609
-0.00123607
-0.0012621
-0.00126208
-0.00129046
-0.00129043
-0.00132157
-0.00132154
-0.00135593
-0.0013559
-0.0013942
-0.00139417
-0.00143718
-0.00143715
-0.00148583
-0.0014858
-0.00154116
-0.00154113
-0.0016042
-0.00160416
-0.00167582
-0.00167579
-0.00175663
-0.0017566
-0.00184683
-0.0018468
-0.00194606
-0.00194602
-0.00205332
-0.00205328
-0.00216696
-0.00216692
-0.00228476
-0.00228472
-0.00240401
-0.00240398
-0.00252179
-0.00252175
-0.00263513
-0.00263509
-0.00274134
-0.0027413
-0.00283821
-0.00283818
-0.00292417
-0.00292414
-0.00299837
-0.00299833
-0.00306065
-0.00306061
-0.00311149
-0.00311145
-0.00315185
-0.00315182
-0.00318305
-0.00318301
-0.00320652
-0.00320648
-0.00322372
-0.00322368
-0.00323602
-0.00323598
-0.00324461
-0.00324458
-0.00325049
-0.00325046
-0.00325444
-0.0032544
-0.00325705
-0.00325702
-0.00325875
-0.00325872
-0.00325986
-0.00325982
-0.00326056
-0.00326052
-0.003261
-0.00326096
-0.00326125
-0.00326122
-0.00326139
-0.00326135
-0.00326142
-0.00326139
-0.00326137
-0.00326134
-0.00326127
-0.00326123
-0.00326112
-0.00326109
-0.00326094
-0.00326091
-0.00326074
-0.0032607
-0.0032605
-0.00326047
-0.00326026
-0.00326022
-0.00326
-0.00325997
-0.00325975
-0.00325971
-0.0032595
-0.00325946
-0.00325926
-0.00325922
-0.00325903
-0.003259
-0.00325883
-0.0032588
-0.00325865
-0.00325862
-0.0032585
-0.00325847
-0.00325836
-0.00325833
-0.00325825
-0.00325823
-0.00325817
-0.00325814
-0.0032581
-0.00325807
-0.00325804
-0.00325801
-0.003258
-0.00325797
-0.00325796
-0.00325794
-0.00325794
-0.00325791
-0.00325791
-0.00325789
-0.00325788
-0.00325786
-0.00325785
-0.00325782
-0.0032578
-0.00325777
-0.00325772
-0.0032577
-0.00325762
-0.00325759
-0.00325746
-0.00325744
-0.00325724
-0.00325722
-0.00325692
-0.0032569
-0.00325649
-0.00325647
-0.0032559
-0.00325588
-0.00325511
-0.00325509
-0.00325407
-0.00325405
-0.00325272
-0.0032527
-0.00325098
-0.00325097
-0.0032488
-0.00324879
-0.00324609
-0.00324608
-0.00324277
-0.00324276
-0.00323876
-0.00323875
-0.00323399
-0.00323398
-0.00322839
-0.00322838
-0.00322191
-0.0032219
-0.00321453
-0.00321452
-0.00320624
-0.00320623
-0.00319705
-0.00319704
-0.00318701
-0.003187
-0.00317617
-0.00317616
-0.00316462
-0.00316461
-0.00315244
-0.00315243
-0.0031397
-0.00313969
-0.0031265
-0.00312649
-0.0031129
-0.00311289
-0.00309893
-0.00309892
-0.00308462
-0.00308461
-0.00306996
-0.00306996
-0.00305494
-0.00305493
-0.00303951
-0.0030395
-0.00302364
-0.00302363
-0.00300729
-0.00300729
-0.00299044
-0.00299043
-0.00297308
-0.00297307
-0.00295523
-0.00295523
-0.00293693
-0.00293693
-0.00291825
-0.00291825
-0.00289928
-0.00289927
-0.0028801
-0.00288009
-0.00286081
-0.00286081
-0.00284151
-0.0028415
-0.00282227
-0.00282226
-0.00280315
-0.00280315
-0.0027842
-0.0027842
-0.00276543
-0.00276543
-0.00274685
-0.00274685
-0.00272844
-0.00272844
-0.00271018
-0.00271018
-0.00269204
-0.00269204
-0.00267399
-0.00267399
-0.00265601
-0.00265601
-0.00263807
-0.00263806
-0.00262015
-0.00262015
-0.00260225
-0.00260224
-0.00258434
-0.00258434
-0.00256643
-0.00256642
-0.00254849
-0.00254849
-0.00253051
-0.00253051
-0.00251249
-0.00251248
-0.00249438
-0.00249438
-0.00247616
-0.00247616
-0.00245781
-0.00245781
-0.0024393
-0.0024393
-0.0024206
-0.0024206
-0.00240169
-0.00240169
-0.00238254
-0.00238254
-0.00236314
-0.00236314
-0.00234349
-0.00234349
-0.00232357
-0.00232357
-0.00230339
-0.00230338
-0.00228293
-0.00228293
-0.0022622
-0.0022622
-0.00224121
-0.00224121
-0.00221996
-0.00221996
-0.00219845
-0.00219845
-0.0021767
-0.0021767
-0.00215473
-0.00215473
-0.00213255
-0.00213255
-0.00211018
-0.00211018
-0.00208767
-0.00208767
-0.00206504
-0.00206504
-0.00204232
-0.00204232
-0.00201955
-0.00201955
-0.00199676
-0.00199676
-0.00197396
-0.00197396
-0.00195116
-0.00195116
-0.00192838
-0.00192838
-0.0019056
-0.0019056
-0.00188281
-0.00188281
-0.00186
-0.00186
-0.00183715
-0.00183715
-0.00181425
-0.00181425
-0.00179128
-0.00179128
-0.00176827
-0.00176827
-0.00174522
-0.00174522
-0.00172219
-0.00172219
-0.00169922
-0.00169922
-0.00167638
-0.00167638
-0.00165374
-0.00165374
-0.00163139
-0.00163139
-0.0016094
-0.0016094
-0.00158786
-0.00158786
-0.00156679
-0.00156679
-0.00154629
-0.00154629
-0.00152636
-0.00152636
-0.00150704
-0.00150704
-0.00148832
-0.00148832
-0.00147022
-0.00147022
-0.0014527
-0.0014527
-0.00143576
-0.00143576
-0.00141932
-0.00141932
-0.00140342
-0.00140342
-0.00138792
-0.00138792
-0.00137288
-0.00137288
-0.00135815
-0.00135815
-0.00134383
-0.00134383
-0.00132973
-0.00132973
-0.00131605
-0.00131605
-0.0013026
-0.0013026
-0.00128968
-0.00128968
-0.00127714
-0.00127714
-0.00126538
-0.00126538
-0.0012543
-0.0012543
-0.00124441
-0.00124441
-0.00123561
-0.00123561
-0.00122845
-0.00122845
-0.00122283
-0.00122283
-0.00121918
-0.00121918
-0.00121743
-0.00121743
2.7684e-05
2.79259e-05
2.75983e-05
2.78214e-05
2.75945e-05
2.78029e-05
2.76036e-05
2.78056e-05
2.76085e-05
2.78083e-05
2.76123e-05
2.78112e-05
2.76172e-05
2.78155e-05
2.76232e-05
2.78215e-05
2.76302e-05
2.78289e-05
2.7638e-05
2.78378e-05
2.76474e-05
2.78492e-05
2.76594e-05
2.78643e-05
2.76704e-05
2.78772e-05
2.76538e-05
2.78626e-05
2.75437e-05
2.7755e-05
2.726e-05
2.74738e-05
2.67742e-05
2.69913e-05
2.61389e-05
2.63582e-05
2.54338e-05
2.56543e-05
2.47017e-05
2.4923e-05
2.39553e-05
2.41773e-05
2.32115e-05
2.34341e-05
2.24766e-05
2.26996e-05
2.16984e-05
2.19219e-05
2.0758e-05
2.09819e-05
1.95221e-05
1.97465e-05
1.7915e-05
1.81399e-05
1.59516e-05
1.6177e-05
1.37197e-05
1.39457e-05
1.13395e-05
1.1566e-05
8.93238e-06
9.1595e-06
6.60631e-06
6.83406e-06
4.44176e-06
4.67017e-06
2.46476e-06
2.69384e-06
6.18259e-07
8.48019e-07
-1.24469e-06
-1.01421e-06
-3.33344e-06
-3.10212e-06
-5.87071e-06
-5.63851e-06
-9.04304e-06
-8.80995e-06
-1.29677e-05
-1.27337e-05
-1.76759e-05
-1.74409e-05
-2.31114e-05
-2.28753e-05
-2.9145e-05
-2.89078e-05
-3.56098e-05
-3.53715e-05
-4.23493e-05
-4.21097e-05
-4.92546e-05
-4.90137e-05
-5.62806e-05
-5.60383e-05
-6.34725e-05
-6.32287e-05
-7.09526e-05
-7.07072e-05
-7.89308e-05
-7.86837e-05
-8.79575e-05
-8.77085e-05
-9.93403e-05
-9.90895e-05
-0.000115583
-0.00011533
-0.000140734
-0.000140479
-0.0001804
-0.000180143
-0.000241035
-0.000240775
-0.000328387
-0.000328125
-0.000445375
-0.00044511
-0.000589931
-0.000589665
-0.000753859
-0.000753591
-0.00092336
-0.000923093
-0.00108139
-0.00108113
-0.00121129
-0.00121104
-0.00130063
-0.00130038
-0.00134852
-0.00134834
-0.00134626
-0.00134617
-0.00130013
-0.00130009
-0.00122966
-0.00122965
-0.00114058
-0.00114058
-0.00104483
-0.00104484
-0.00095066
-0.000950667
-0.000863202
-0.000863208
-0.000785003
-0.000785005
-0.000716814
-0.000716812
-0.000658333
-0.000658326
-0.00060881
-0.000608798
-0.000567396
-0.00056738
-0.000533297
-0.000533276
-0.000505753
-0.000505727
-0.000484024
-0.000483993
-0.000467405
-0.00046737
-0.000455161
-0.000455122
-0.000446501
-0.000446457
-0.0004408
-0.000440762
-0.000437278
-0.000437218
-0.000435898
-0.000435891
-0.000436654
-0.00043672
-0.000439354
-0.000439414
-0.000444529
-0.000444595
-0.000452626
-0.00045269
-0.000464242
-0.000464303
-0.000479904
-0.000479962
-0.000500011
-0.000500065
-0.00052471
-0.00052476
-0.00055385
-0.000553896
-0.000586982
-0.000587024
-0.000623354
-0.000623393
-0.000661999
-0.000662034
-0.000701855
-0.000701887
-0.000741856
-0.000741883
-0.000781054
-0.000781078
-0.000818689
-0.000818711
-0.000854223
-0.000854241
-0.000887372
-0.000887387
-0.000918065
-0.000918077
-0.000946391
-0.0009464
-0.000972553
-0.00097256
-0.000996804
-0.000996809
-0.00101942
-0.00101942
-0.00104066
-0.00104066
-0.00106078
-0.00106077
-0.00108003
-0.00108002
-0.00109868
-0.00109868
-0.00111703
-0.00111702
-0.0011354
-0.00113539
-0.00115418
-0.00115416
-0.0011737
-0.00117369
-0.00119432
-0.00119431
-0.00121637
-0.00121636
-0.00124015
-0.00124013
-0.00126595
-0.00126593
-0.00129412
-0.0012941
-0.00132504
-0.00132502
-0.00135922
-0.0013592
-0.00139732
-0.0013973
-0.00144015
-0.00144013
-0.00148864
-0.00148862
-0.00154383
-0.0015438
-0.00160673
-0.0016067
-0.00167822
-0.0016782
-0.00175891
-0.00175888
-0.00184899
-0.00184896
-0.00194811
-0.00194808
-0.00205526
-0.00205524
-0.00216881
-0.00216878
-0.00228651
-0.00228648
-0.00240568
-0.00240565
-0.00252337
-0.00252334
-0.00263663
-0.00263661
-0.00274277
-0.00274275
-0.00283958
-0.00283955
-0.00292547
-0.00292545
-0.00299961
-0.00299958
-0.00306183
-0.0030618
-0.00311262
-0.00311259
-0.00315293
-0.00315291
-0.00318408
-0.00318406
-0.00320751
-0.00320748
-0.00322467
-0.00322464
-0.00323693
-0.00323691
-0.00324549
-0.00324547
-0.00325133
-0.00325131
-0.00325525
-0.00325523
-0.00325783
-0.00325782
-0.00325951
-0.00325949
-0.00326059
-0.00326057
-0.00326126
-0.00326125
-0.00326168
-0.00326167
-0.00326191
-0.0032619
-0.00326205
-0.00326202
-0.00326208
-0.00326204
-0.003262
-0.00326197
-0.0032619
-0.00326185
-0.00326174
-0.00326169
-0.00326155
-0.0032615
-0.00326132
-0.00326128
-0.00326108
-0.00326104
-0.00326083
-0.00326079
-0.00326056
-0.00326053
-0.0032603
-0.00326026
-0.00326004
-0.00326
-0.00325979
-0.00325976
-0.00325956
-0.00325953
-0.00325935
-0.00325932
-0.00325917
-0.00325914
-0.00325901
-0.00325898
-0.00325887
-0.00325884
-0.00325876
-0.00325873
-0.00325867
-0.00325864
-0.00325859
-0.00325857
-0.00325853
-0.00325851
-0.00325849
-0.00325846
-0.00325845
-0.00325843
-0.00325842
-0.0032584
-0.0032584
-0.00325837
-0.00325837
-0.00325834
-0.00325833
-0.00325831
-0.00325828
-0.00325825
-0.0032582
-0.00325818
-0.00325809
-0.00325807
-0.00325794
-0.00325792
-0.00325771
-0.00325769
-0.0032574
-0.00325738
-0.00325696
-0.00325695
-0.00325637
-0.00325635
-0.00325558
-0.00325556
-0.00325454
-0.00325452
-0.00325319
-0.00325317
-0.00325145
-0.00325144
-0.00324927
-0.00324926
-0.00324656
-0.00324655
-0.00324324
-0.00324323
-0.00323923
-0.00323922
-0.00323446
-0.00323445
-0.00322886
-0.00322885
-0.00322238
-0.00322237
-0.003215
-0.00321499
-0.00320671
-0.0032067
-0.00319752
-0.00319751
-0.00318748
-0.00318747
-0.00317664
-0.00317663
-0.00316509
-0.00316508
-0.0031529
-0.00315289
-0.00314017
-0.00314016
-0.00312697
-0.00312696
-0.00311336
-0.00311336
-0.0030994
-0.00309939
-0.00308509
-0.00308508
-0.00307043
-0.00307042
-0.0030554
-0.0030554
-0.00303998
-0.00303997
-0.00302411
-0.0030241
-0.00300776
-0.00300775
-0.00299091
-0.0029909
-0.00297355
-0.00297354
-0.0029557
-0.00295569
-0.0029374
-0.00293739
-0.00291872
-0.00291872
-0.00289974
-0.00289974
-0.00288056
-0.00288056
-0.00286128
-0.00286128
-0.00284197
-0.00284197
-0.00282273
-0.00282273
-0.00280362
-0.00280362
-0.00278467
-0.00278467
-0.0027659
-0.0027659
-0.00274732
-0.00274731
-0.00272891
-0.0027289
-0.00271064
-0.00271064
-0.00269251
-0.0026925
-0.00267446
-0.00267446
-0.00265648
-0.00265647
-0.00263853
-0.00263853
-0.00262062
-0.00262062
-0.00260271
-0.00260271
-0.00258481
-0.00258481
-0.00256689
-0.00256689
-0.00254896
-0.00254895
-0.00253098
-0.00253098
-0.00251295
-0.00251295
-0.00249484
-0.00249484
-0.00247663
-0.00247663
-0.00245828
-0.00245828
-0.00243977
-0.00243977
-0.00242107
-0.00242107
-0.00240215
-0.00240215
-0.00238301
-0.00238301
-0.00236361
-0.00236361
-0.00234396
-0.00234396
-0.00232404
-0.00232404
-0.00230385
-0.00230385
-0.0022834
-0.0022834
-0.00226267
-0.00226267
-0.00224168
-0.00224168
-0.00222043
-0.00222043
-0.00219892
-0.00219892
-0.00217717
-0.00217717
-0.0021552
-0.0021552
-0.00213301
-0.00213301
-0.00211065
-0.00211065
-0.00208814
-0.00208814
-0.00206551
-0.00206551
-0.00204279
-0.00204279
-0.00202002
-0.00202002
-0.00199723
-0.00199723
-0.00197442
-0.00197442
-0.00195163
-0.00195163
-0.00192885
-0.00192885
-0.00190607
-0.00190607
-0.00188328
-0.00188328
-0.00186047
-0.00186047
-0.00183762
-0.00183762
-0.00181472
-0.00181472
-0.00179175
-0.00179175
-0.00176874
-0.00176874
-0.00174569
-0.00174569
-0.00172267
-0.00172267
-0.00169969
-0.00169969
-0.00167686
-0.00167686
-0.0016542
-0.0016542
-0.00163188
-0.00163188
-0.00160986
-0.00160986
-0.00158835
-0.00158835
-0.00156724
-0.00156724
-0.00154679
-0.00154679
-0.00152679
-0.00152679
-0.00150757
-0.00150757
-0.00148873
-0.00148873
-0.00147078
-0.00147078
-0.00145307
-0.00145307
-0.00143636
-0.00143636
-0.00141964
-0.00141964
-0.00140409
-0.00140409
-0.00138815
-0.00138815
-0.00137367
-0.00137367
-0.00135824
-0.00135824
-0.00134479
-0.00134479
-0.00132961
-0.00132961
-0.00131727
-0.00131727
-0.00130216
-0.00130216
-0.0012913
-0.0012913
-0.00127621
-0.00127621
-0.0012676
-0.0012676
-0.00125264
-0.00125264
-0.00124754
-0.00124754
-0.00123284
-0.00123284
-0.00122915
-0.00122915
-0.00121859
-0.00121859
-0.00121666
-0.00121666
-0.00121148
-0.00121148
-0.00121743
-0.00121743
-0.00121918
-0.00121918
-0.00122283
-0.00122283
-0.00122845
-0.00122845
-0.00123561
-0.00123561
-0.00124441
-0.00124441
-0.00125431
-0.00125431
-0.00126538
-0.00126538
-0.00127713
-0.00127713
-0.00128968
-0.00128968
-0.0013026
-0.0013026
-0.00131605
-0.00131605
-0.00132973
-0.00132973
-0.00134383
-0.00134383
-0.00135816
-0.00135816
-0.00137288
-0.00137288
-0.00138792
-0.00138792
-0.00140342
-0.00140342
-0.00141932
-0.00141932
-0.00143576
-0.00143576
-0.0014527
-0.0014527
-0.00147022
-0.00147022
-0.00148832
-0.00148832
-0.00150703
-0.00150703
-0.00152635
-0.00152635
-0.00154629
-0.00154629
-0.00156679
-0.00156679
-0.00158786
-0.00158786
-0.0016094
-0.0016094
-0.00163138
-0.00163138
-0.00165374
-0.00165374
-0.00167638
-0.00167638
-0.00169923
-0.00169923
-0.00172219
-0.00172219
-0.00174524
-0.00174524
-0.00176826
-0.00176826
-0.00179127
-0.00179127
-0.00181424
-0.00181424
-0.00183714
-0.00183714
-0.00186
-0.00186
-0.00188281
-0.00188281
-0.0019056
-0.0019056
-0.00192838
-0.00192838
-0.00195116
-0.00195116
-0.00197395
-0.00197395
-0.00199676
-0.00199676
-0.00201955
-0.00201955
-0.00204232
-0.00204232
-0.00206504
-0.00206503
-0.00208767
-0.00208767
-0.00211017
-0.00211017
-0.00213255
-0.00213255
-0.00215473
-0.00215473
-0.00217669
-0.00217669
-0.00219845
-0.00219845
-0.00221996
-0.00221996
-0.00224122
-0.00224122
-0.0022622
-0.0022622
-0.00228292
-0.00228292
-0.00230338
-0.00230338
-0.00232358
-0.00232358
-0.00234349
-0.00234349
-0.00236315
-0.00236315
-0.00238254
-0.00238254
-0.0024017
-0.00240169
-0.00242059
-0.00242059
-0.00243929
-0.00243929
-0.00245782
-0.00245782
-0.00247616
-0.00247616
-0.00249439
-0.00249439
-0.00251248
-0.00251248
-0.0025305
-0.0025305
-0.00254848
-0.00254848
-0.00256641
-0.00256641
-0.00258433
-0.00258433
-0.00260224
-0.00260224
-0.00262015
-0.00262015
-0.00263808
-0.00263808
-0.00265603
-0.00265603
-0.00267401
-0.002674
-0.00269204
-0.00269204
-0.00271018
-0.00271018
-0.00272843
-0.00272843
-0.00274684
-0.00274684
-0.00276544
-0.00276544
-0.00278419
-0.00278419
-0.00280313
-0.00280313
-0.00282228
-0.00282228
-0.00284151
-0.00284151
-0.00286079
-0.00286078
-0.00288009
-0.00288009
-0.00289927
-0.00289927
-0.00291823
-0.00291823
-0.00293692
-0.00293692
-0.00295525
-0.00295525
-0.0029731
-0.00297309
-0.00299043
-0.00299043
-0.0030073
-0.0030073
-0.00302365
-0.00302365
-0.0030395
-0.0030395
-0.00305493
-0.00305493
-0.00306997
-0.00306997
-0.00308462
-0.00308462
-0.00309894
-0.00309894
-0.00311292
-0.00311292
-0.00312651
-0.0031265
-0.00313969
-0.00313969
-0.00315244
-0.00315244
-0.00316462
-0.00316461
-0.00317615
-0.00317615
-0.003187
-0.00318699
-0.00319704
-0.00319704
-0.00320622
-0.00320622
-0.00321453
-0.00321453
-0.00322191
-0.00322191
-0.00322838
-0.00322838
-0.00323398
-0.00323398
-0.00323876
-0.00323876
-0.00324277
-0.00324277
-0.00324609
-0.00324609
-0.0032488
-0.0032488
-0.00325098
-0.00325098
-0.00325271
-0.0032527
-0.00325406
-0.00325406
-0.00325511
-0.0032551
-0.0032559
-0.00325589
-0.00325649
-0.00325648
-0.00325692
-0.00325692
-0.00325723
-0.00325723
-0.00325746
-0.00325745
-0.00325761
-0.00325761
-0.00325772
-0.00325772
-0.00325779
-0.00325779
-0.00325785
-0.00325784
-0.00325788
-0.00325788
-0.00325791
-0.00325791
-0.00325794
-0.00325793
-0.00325797
-0.00325796
-0.003258
-0.003258
-0.00325804
-0.00325804
-0.0032581
-0.00325809
-0.00325817
-0.00325817
-0.00325826
-0.00325826
-0.00325837
-0.00325837
-0.00325851
-0.0032585
-0.00325867
-0.00325866
-0.00325885
-0.00325884
-0.00325905
-0.00325905
-0.00325928
-0.00325927
-0.00325952
-0.00325952
-0.00325977
-0.00325977
-0.00326004
-0.00326003
-0.0032603
-0.00326029
-0.00326055
-0.00326054
-0.00326078
-0.00326078
-0.003261
-0.00326099
-0.00326118
-0.00326118
-0.00326133
-0.00326133
-0.00326144
-0.00326144
-0.00326151
-0.0032615
-0.00326148
-0.00326147
-0.00326135
-0.00326134
-0.0032611
-0.0032611
-0.00326068
-0.00326067
-0.00325999
-0.00325998
-0.0032589
-0.00325889
-0.00325721
-0.00325721
-0.00325462
-0.00325461
-0.00325069
-0.00325069
-0.00324483
-0.00324482
-0.00323622
-0.00323621
-0.00322397
-0.00322396
-0.00320675
-0.00320674
-0.00318332
-0.00318331
-0.00315217
-0.00315216
-0.00311174
-0.00311173
-0.00306075
-0.00306074
-0.00299878
-0.00299877
-0.00292478
-0.00292477
-0.00283844
-0.00283844
-0.00274163
-0.00274162
-0.00263565
-0.00263565
-0.00252249
-0.00252248
-0.00240483
-0.00240483
-0.00228589
-0.00228588
-0.00216809
-0.00216809
-0.00205384
-0.00205383
-0.00194677
-0.00194676
-0.00184803
-0.00184802
-0.00175737
-0.00175736
-0.00167644
-0.00167643
-0.00160531
-0.0016053
-0.00154249
-0.00154249
-0.00148711
-0.0014871
-0.00143839
-0.00143838
-0.00139558
-0.00139558
-0.00135748
-0.00135747
-0.0013231
-0.0013231
-0.00129199
-0.00129198
-0.00126388
-0.00126387
-0.00123798
-0.00123798
-0.00121395
-0.00121394
-0.00119193
-0.00119192
-0.00117124
-0.00117123
-0.00115144
-0.00115143
-0.00113251
-0.00113251
-0.00111406
-0.00111405
-0.00109551
-0.0010955
-0.00107678
-0.00107677
-0.00105747
-0.00105746
-0.00103704
-0.00103704
-0.00101573
-0.00101572
-0.000993031
-0.000993022
-0.000968443
-0.000968434
-0.000942215
-0.000942207
-0.000913913
-0.000913905
-0.000882786
-0.000882778
-0.0008493
-0.000849292
-0.000813812
-0.000813804
-0.000775942
-0.000775934
-0.000736414
-0.000736406
-0.000696195
-0.000696187
-0.000656286
-0.000656278
-0.000617472
-0.000617464
-0.000580737
-0.000580729
-0.000547548
-0.00054754
-0.000518187
-0.000518179
-0.000493198
-0.00049319
-0.000472892
-0.000472884
-0.000456838
-0.000456829
-0.000444892
-0.000444885
-0.000436548
-0.000436536
-0.000431169
-0.000431175
-0.000428157
-0.000428117
-0.000427193
-0.000427167
-0.000428205
-0.00042823
-0.000431239
-0.000431243
-0.000436704
-0.000436713
-0.000445049
-0.000445057
-0.000456972
-0.000456981
-0.000473424
-0.000473433
-0.000494883
-0.000494891
-0.000522063
-0.000522072
-0.000556097
-0.000556105
-0.000597166
-0.000597175
-0.000646159
-0.000646168
-0.000704301
-0.00070431
-0.000772262
-0.000772271
-0.000850787
-0.000850796
-0.000938152
-0.000938161
-0.0010316
-0.00103161
-0.00112852
-0.00112852
-0.00121976
-0.00121977
-0.00129195
-0.00129201
-0.00135011
-0.00134986
-0.00135691
-0.00135685
-0.00130588
-0.00130627
-0.00121949
-0.00121983
-0.00109015
-0.00109046
-0.00093397
-0.00093429
-0.000765704
-0.000766023
-0.000601088
-0.000601407
-0.000456158
-0.000456477
-0.000338868
-0.000339188
-0.000251295
-0.000251614
-0.000190532
-0.000190851
-0.000150743
-0.000151062
-0.000125352
-0.000125672
-0.000108748
-0.000109067
-9.72467e-05
-9.75663e-05
-8.82597e-05
-8.85794e-05
-8.02361e-05
-8.05559e-05
-7.25664e-05
-7.28863e-05
-6.52304e-05
-6.55501e-05
-5.81802e-05
-5.84999e-05
-5.12068e-05
-5.15264e-05
-4.43538e-05
-4.46736e-05
-3.78145e-05
-3.81347e-05
-3.17446e-05
-3.20648e-05
-2.62451e-05
-2.65652e-05
-2.14461e-05
-2.17661e-05
-1.74643e-05
-1.77843e-05
-1.4259e-05
-1.4579e-05
-1.16776e-05
-1.19978e-05
-9.53539e-06
-9.85558e-06
-7.63258e-06
-7.95275e-06
-5.74133e-06
-6.06145e-06
-3.71275e-06
-4.03275e-06
-1.51684e-06
-1.83683e-06
8.16063e-07
4.9594e-07
3.23853e-06
2.91836e-06
5.67027e-06
5.35014e-06
7.95975e-06
7.63962e-06
9.95707e-06
9.63694e-06
1.15941e-05
1.1274e-05
1.28622e-05
1.2542e-05
1.38235e-05
1.35033e-05
1.46228e-05
1.43026e-05
1.538e-05
1.50599e-05
1.61364e-05
1.58162e-05
1.68954e-05
1.65752e-05
1.76505e-05
1.73303e-05
1.83787e-05
1.80585e-05
1.90276e-05
1.87074e-05
1.95264e-05
1.92062e-05
1.98276e-05
1.95075e-05
1.99538e-05
1.96336e-05
1.9983e-05
1.96628e-05
1.99828e-05
1.96626e-05
1.99807e-05
1.96603e-05
1.99804e-05
1.96598e-05
1.99805e-05
1.96598e-05
1.99806e-05
1.96597e-05
1.99805e-05
1.96597e-05
1.99807e-05
1.96597e-05
1.99812e-05
1.96597e-05
1.99797e-05
1.96597e-05
1.99722e-05
1.96607e-05
1.99778e-05
1.9677e-05
2.00654e-05
1.97728e-05
-0.00121148
-0.00121148
-0.00121665
-0.00121665
-0.00121859
-0.00121859
-0.00122915
-0.00122915
-0.00123284
-0.00123284
-0.00124754
-0.00124754
-0.00125264
-0.00125264
-0.0012676
-0.0012676
-0.0012762
-0.0012762
-0.0012913
-0.0012913
-0.00130216
-0.00130216
-0.00131727
-0.00131727
-0.00132961
-0.00132961
-0.00134479
-0.00134479
-0.00135825
-0.00135825
-0.00137367
-0.00137367
-0.00138815
-0.00138815
-0.00140409
-0.00140409
-0.00141963
-0.00141963
-0.00143637
-0.00143637
-0.00145307
-0.00145307
-0.00147078
-0.00147078
-0.00148873
-0.00148873
-0.00150756
-0.00150756
-0.00152678
-0.00152678
-0.0015468
-0.0015468
-0.00156723
-0.00156723
-0.00158835
-0.00158835
-0.00160986
-0.00160986
-0.00163187
-0.00163187
-0.00165421
-0.00165421
-0.00167686
-0.00167686
-0.0016997
-0.0016997
-0.00172267
-0.00172267
-0.0017457
-0.0017457
-0.00176874
-0.00176874
-0.00179174
-0.00179174
-0.00181472
-0.00181472
-0.00183761
-0.00183761
-0.00186048
-0.00186048
-0.00188328
-0.00188328
-0.00190607
-0.00190607
-0.00192885
-0.00192885
-0.00195163
-0.00195163
-0.00197442
-0.00197442
-0.00199723
-0.00199723
-0.00202002
-0.00202002
-0.00204279
-0.00204279
-0.00206551
-0.00206551
-0.00208814
-0.00208814
-0.00211064
-0.00211064
-0.00213302
-0.00213302
-0.0021552
-0.0021552
-0.00217716
-0.00217716
-0.00219892
-0.00219892
-0.00222043
-0.00222043
-0.00224169
-0.00224169
-0.00226267
-0.00226267
-0.00228339
-0.00228339
-0.00230384
-0.00230384
-0.00232405
-0.00232405
-0.00234396
-0.00234396
-0.00236362
-0.00236362
-0.00238301
-0.00238301
-0.00240216
-0.00240216
-0.00242106
-0.00242106
-0.00243976
-0.00243976
-0.00245829
-0.00245829
-0.00247663
-0.00247663
-0.00249486
-0.00249486
-0.00251295
-0.00251295
-0.00253097
-0.00253097
-0.00254895
-0.00254895
-0.00256688
-0.00256688
-0.00258479
-0.00258479
-0.00260271
-0.00260271
-0.00262062
-0.00262062
-0.00263855
-0.00263855
-0.0026565
-0.0026565
-0.00267447
-0.00267447
-0.00269251
-0.00269251
-0.00271065
-0.00271065
-0.0027289
-0.0027289
-0.00274731
-0.00274731
-0.00276591
-0.00276591
-0.00278466
-0.00278466
-0.0028036
-0.0028036
-0.00282275
-0.00282275
-0.00284197
-0.00284197
-0.00286125
-0.00286125
-0.00288056
-0.00288056
-0.00289974
-0.00289974
-0.0029187
-0.0029187
-0.00293738
-0.00293738
-0.00295572
-0.00295572
-0.00297356
-0.00297356
-0.0029909
-0.0029909
-0.00300777
-0.00300777
-0.00302412
-0.00302412
-0.00303997
-0.00303997
-0.00305539
-0.0030554
-0.00307044
-0.00307044
-0.00308509
-0.00308509
-0.0030994
-0.00309941
-0.00311339
-0.00311339
-0.00312697
-0.00312697
-0.00314016
-0.00314016
-0.00315291
-0.00315291
-0.00316508
-0.00316508
-0.00317661
-0.00317662
-0.00318746
-0.00318746
-0.00319751
-0.00319751
-0.00320669
-0.00320669
-0.003215
-0.003215
-0.00322238
-0.00322238
-0.00322884
-0.00322885
-0.00323445
-0.00323445
-0.00323923
-0.00323923
-0.00324324
-0.00324324
-0.00324656
-0.00324656
-0.00324927
-0.00324927
-0.00325145
-0.00325145
-0.00325317
-0.00325318
-0.00325453
-0.00325453
-0.00325557
-0.00325557
-0.00325636
-0.00325636
-0.00325695
-0.00325695
-0.00325739
-0.00325739
-0.0032577
-0.0032577
-0.00325792
-0.00325792
-0.00325808
-0.00325808
-0.00325819
-0.00325819
-0.00325826
-0.00325826
-0.00325831
-0.00325831
-0.00325835
-0.00325835
-0.00325838
-0.00325838
-0.0032584
-0.0032584
-0.00325843
-0.00325843
-0.00325846
-0.00325847
-0.00325851
-0.00325851
-0.00325856
-0.00325857
-0.00325864
-0.00325864
-0.00325873
-0.00325873
-0.00325884
-0.00325884
-0.00325897
-0.00325897
-0.00325913
-0.00325913
-0.00325931
-0.00325931
-0.00325952
-0.00325952
-0.00325974
-0.00325974
-0.00325998
-0.00325999
-0.00326024
-0.00326024
-0.0032605
-0.0032605
-0.00326076
-0.00326076
-0.00326101
-0.00326101
-0.00326125
-0.00326125
-0.00326146
-0.00326147
-0.00326165
-0.00326165
-0.0032618
-0.00326181
-0.0032619
-0.0032619
-0.00326197
-0.003262
-0.00326193
-0.00326197
-0.0032618
-0.0032618
-0.00326156
-0.00326157
-0.00326113
-0.00326114
-0.00326044
-0.00326045
-0.00325935
-0.00325936
-0.00325766
-0.00325768
-0.00325507
-0.00325508
-0.00325114
-0.00325115
-0.00324527
-0.00324529
-0.00323667
-0.00323668
-0.00322442
-0.00322443
-0.0032072
-0.00320721
-0.00318377
-0.00318378
-0.00315262
-0.00315263
-0.00311219
-0.0031122
-0.0030612
-0.00306121
-0.00299923
-0.00299924
-0.00292523
-0.00292524
-0.00283889
-0.00283891
-0.00274208
-0.00274209
-0.0026361
-0.00263612
-0.00252294
-0.00252295
-0.00240528
-0.0024053
-0.00228634
-0.00228635
-0.00216854
-0.00216856
-0.00205429
-0.0020543
-0.00194722
-0.00194723
-0.00184848
-0.00184849
-0.00175782
-0.00175783
-0.00167688
-0.0016769
-0.00160576
-0.00160577
-0.00154294
-0.00154296
-0.00148756
-0.00148757
-0.00143884
-0.00143885
-0.00139603
-0.00139605
-0.00135792
-0.00135794
-0.00132355
-0.00132357
-0.00129243
-0.00129245
-0.00126432
-0.00126434
-0.00123843
-0.00123845
-0.0012144
-0.00121441
-0.00119238
-0.00119239
-0.00117169
-0.0011717
-0.00115189
-0.0011519
-0.00113296
-0.00113298
-0.00111451
-0.00111452
-0.00109596
-0.00109597
-0.00107723
-0.00107725
-0.00105791
-0.00105793
-0.00103749
-0.00103751
-0.00101618
-0.00101619
-0.000993478
-0.000993492
-0.00096889
-0.000968904
-0.000942663
-0.000942677
-0.000914361
-0.000914375
-0.000883234
-0.000883248
-0.000849748
-0.000849762
-0.00081426
-0.000814274
-0.000776389
-0.000776404
-0.000736861
-0.000736876
-0.000696642
-0.000696656
-0.000656733
-0.000656747
-0.00061792
-0.000617934
-0.000581185
-0.000581199
-0.000547996
-0.00054801
-0.000518634
-0.000518648
-0.000493646
-0.00049366
-0.000473339
-0.000473354
-0.000457285
-0.000457299
-0.000445339
-0.000445354
-0.000436995
-0.00043701
-0.000431617
-0.00043163
-0.000428606
-0.000428619
-0.000427641
-0.000427655
-0.000428654
-0.000428667
-0.000431688
-0.000431701
-0.000437152
-0.000437165
-0.000445498
-0.000445511
-0.000457421
-0.000457434
-0.000473873
-0.000473886
-0.000495332
-0.000495345
-0.000522512
-0.000522525
-0.000556545
-0.000556558
-0.000597615