/*--------------------------------*- C++ -*----------------------------------*\
| =========                 |                                                 |
| \\      /  F ield         | OpenFOAM: The Open Source CFD Toolbox           |
|  \\    /   O peration     | Version:  2106                                  |
|   \\  /    A nd           | Website:  www.openfoam.com                      |
|    \\/     M anipulation  |                                                 |
\*---------------------------------------------------------------------------*/
FoamFile
{
    version     2.0;
    format      ascii;
    arch        "LSB;label=32;scalar=64";
    class       volVectorField;
    location    "5000";
    object      U;
}
// * * * * * * * * * * * * * * * * * * * * * * * * * * * * * * * * * * * * * //

dimensions      [0 1 -1 0 0 0 0];

internalField   nonuniform List<vector> 
2560
(
(0.0037631 -8.56094e-16 2.93657e-18)
(0.0037631 2.98389e-19 2.11822e-19)
(0.0113434 -1.60803e-15 1.27517e-17)
(0.0113434 -3.99695e-19 8.38725e-19)
(0.0190332 -1.59455e-15 1.2985e-17)
(0.0190332 -4.23252e-20 8.65149e-19)
(0.0268338 -1.47441e-15 1.33387e-17)
(0.0268338 -3.71803e-21 8.9367e-19)
(0.0347466 -1.47085e-15 1.35241e-17)
(0.0347466 3.76812e-20 9.22923e-19)
(0.0427729 -1.48206e-15 1.36183e-17)
(0.0427729 9.51785e-20 9.52473e-19)
(0.0509142 -1.4871e-15 1.36854e-17)
(0.0509142 1.68291e-19 9.81875e-19)
(0.0591717 -1.48816e-15 1.37451e-17)
(0.0591717 2.37729e-19 1.01129e-18)
(0.0675468 -1.48849e-15 1.38009e-17)
(0.0675468 2.76927e-19 1.04066e-18)
(0.0760407 -1.4888e-15 1.38537e-17)
(0.0760407 2.91998e-19 1.07005e-18)
(0.0846546 -1.48912e-15 1.39041e-17)
(0.0846546 3.59643e-19 1.09965e-18)
(0.0933895 -1.4895e-15 1.39524e-17)
(0.0933895 4.77522e-19 1.1291e-18)
(0.102246 -1.48986e-15 1.39982e-17)
(0.102246 5.84954e-19 1.15891e-18)
(0.111225 -1.49023e-15 1.40419e-17)
(0.111225 6.86932e-19 1.18779e-18)
(0.120326 -1.49053e-15 1.40828e-17)
(0.120326 7.21032e-19 1.2165e-18)
(0.129548 -1.49089e-15 1.41201e-17)
(0.129548 8.68467e-19 1.24404e-18)
(0.138891 -1.49139e-15 1.41528e-17)
(0.138891 1.12078e-18 1.27186e-18)
(0.148352 -1.49181e-15 1.41794e-17)
(0.148352 1.13073e-18 1.30009e-18)
(0.157929 -1.49223e-15 1.4199e-17)
(0.157929 1.18045e-18 1.32685e-18)
(0.167616 -1.49265e-15 1.47576e-17)
(0.167616 1.20551e-18 1.35409e-18)
(0.177409 -1.49302e-15 1.54797e-17)
(0.177409 1.18837e-18 1.37811e-18)
(0.1873 -1.49361e-15 1.62103e-17)
(0.1873 1.3359e-18 1.39964e-18)
(0.19728 -1.49433e-15 1.69501e-17)
(0.19728 1.53248e-18 1.41815e-18)
(0.207339 -1.49499e-15 1.76845e-17)
(0.207339 1.72447e-18 1.43577e-18)
(0.217463 -1.49556e-15 1.8413e-17)
(0.217463 1.92954e-18 1.45248e-18)
(0.22764 -1.49618e-15 1.91282e-17)
(0.22764 2.09224e-18 1.4684e-18)
(0.237851 -1.49672e-15 1.98352e-17)
(0.237851 2.21314e-18 1.47721e-18)
(0.248081 -1.49735e-15 2.05171e-17)
(0.248081 2.45287e-18 1.48081e-18)
(0.258311 -1.49812e-15 2.11731e-17)
(0.258311 2.82579e-18 1.47896e-18)
(0.268521 -1.4989e-15 2.17996e-17)
(0.268521 3.10848e-18 1.48105e-18)
(0.278692 -1.49985e-15 2.23908e-17)
(0.278692 3.40793e-18 1.48388e-18)
(0.288805 -1.50086e-15 2.29492e-17)
(0.288805 3.72334e-18 1.48463e-18)
(0.29884 -1.5018e-15 2.34704e-17)
(0.29884 4.06718e-18 1.47311e-18)
(0.308779 -1.5027e-15 2.3952e-17)
(0.308779 4.28747e-18 1.46094e-18)
(0.318607 -1.50368e-15 2.43973e-17)
(0.318607 4.47192e-18 1.43867e-18)
(0.328307 -1.50481e-15 2.48043e-17)
(0.328307 4.755e-18 1.41648e-18)
(0.337867 -1.50596e-15 2.51861e-17)
(0.337867 5.28313e-18 1.39748e-18)
(0.347277 -1.50703e-15 2.5542e-17)
(0.347277 5.95143e-18 1.37596e-18)
(0.356525 -1.50837e-15 2.58613e-17)
(0.356525 6.32002e-18 1.35764e-18)
(0.365607 -1.50959e-15 2.61523e-17)
(0.365607 6.52809e-18 1.33312e-18)
(0.374515 -1.51071e-15 2.64314e-17)
(0.374515 6.67838e-18 1.30549e-18)
(0.383246 -1.51209e-15 2.67011e-17)
(0.383246 7.11208e-18 1.27151e-18)
(0.391798 -1.51346e-15 2.69549e-17)
(0.391798 7.46651e-18 1.23288e-18)
(0.40017 -1.5146e-15 2.72016e-17)
(0.40017 7.72089e-18 1.2051e-18)
(0.408364 -1.51596e-15 2.74421e-17)
(0.408364 8.22052e-18 1.17544e-18)
(0.416379 -1.51755e-15 2.76733e-17)
(0.416379 8.65761e-18 1.14594e-18)
(0.424219 -1.51881e-15 2.79211e-17)
(0.424219 8.99518e-18 1.10111e-18)
(0.431886 -1.51986e-15 2.81614e-17)
(0.431886 9.16368e-18 1.05929e-18)
(0.439384 -1.52111e-15 2.84127e-17)
(0.439384 9.34715e-18 1.0218e-18)
(0.446717 -1.52252e-15 2.86858e-17)
(0.446717 9.59498e-18 9.86967e-19)
(0.453889 -1.52364e-15 2.89542e-17)
(0.453889 9.81009e-18 9.47981e-19)
(0.460905 -1.5245e-15 2.92347e-17)
(0.460905 9.87006e-18 9.20823e-19)
(0.467769 -1.52558e-15 2.95336e-17)
(0.467769 1.00875e-17 8.8965e-19)
(0.474487 -1.52664e-15 2.98474e-17)
(0.474487 1.01444e-17 8.81889e-19)
(0.481062 -1.52761e-15 3.01731e-17)
(0.481062 1.00157e-17 9.03995e-19)
(0.4875 -1.52847e-15 3.05231e-17)
(0.4875 1.0358e-17 9.21452e-19)
(0.493806 -1.52975e-15 3.0889e-17)
(0.493806 1.0922e-17 9.70942e-19)
(0.499984 -1.53142e-15 3.12609e-17)
(0.499984 1.1503e-17 1.02142e-18)
(0.506038 -1.5327e-15 3.16522e-17)
(0.506038 1.20901e-17 1.05686e-18)
(0.511974 -1.53396e-15 3.20637e-17)
(0.511974 1.23285e-17 1.08322e-18)
(0.517795 -1.53498e-15 3.25177e-17)
(0.517795 1.25261e-17 1.11307e-18)
(0.523505 -1.536e-15 3.29534e-17)
(0.523505 1.24653e-17 1.14972e-18)
(0.52911 -1.53736e-15 3.34132e-17)
(0.52911 1.22461e-17 1.17486e-18)
(0.534611 -1.53862e-15 3.39134e-17)
(0.534611 1.31338e-17 1.1996e-18)
(0.540014 -1.53992e-15 3.43923e-17)
(0.540014 1.3803e-17 1.21505e-18)
(0.545322 -1.54151e-15 3.49198e-17)
(0.545322 1.37806e-17 1.23474e-18)
(0.550538 -1.54244e-15 3.5211e-17)
(0.550538 1.43531e-17 1.24774e-18)
(0.555666 -1.54313e-15 3.22351e-17)
(0.555666 1.41245e-17 1.26093e-18)
(0.560709 -1.54452e-15 2.9247e-17)
(0.560709 1.40339e-17 1.28782e-18)
(0.565669 -1.54535e-15 2.62437e-17)
(0.565669 1.40423e-17 1.31216e-18)
(0.570551 -1.54512e-15 2.31734e-17)
(0.570551 1.33714e-17 1.32951e-18)
(0.575355 -1.5461e-15 2.00618e-17)
(0.575355 1.31466e-17 1.36241e-18)
(0.580087 -1.54816e-15 1.69634e-17)
(0.580087 1.41554e-17 1.36302e-18)
(0.584746 -1.54965e-15 1.38394e-17)
(0.584746 1.54237e-17 1.39367e-18)
(0.589338 -1.55122e-15 1.071e-17)
(0.589338 1.63487e-17 1.42505e-18)
(0.593862 -1.55317e-15 7.52124e-18)
(0.593862 1.68397e-17 1.45719e-18)
(0.598323 -1.5553e-15 4.31101e-18)
(0.598323 1.78421e-17 1.49011e-18)
(0.602721 -1.55716e-15 1.0636e-18)
(0.602721 1.88866e-17 1.50844e-18)
(0.60706 -1.55901e-15 -9.30564e-21)
(0.60706 1.95768e-17 1.53919e-18)
(0.61134 -1.56103e-15 2.40331e-20)
(0.61134 2.03197e-17 1.56951e-18)
(0.615565 -1.56271e-15 4.7028e-20)
(0.615565 2.17474e-17 1.6167e-18)
(0.619735 -1.56453e-15 4.77907e-20)
(0.619735 2.20605e-17 1.60232e-18)
(0.623852 -1.56686e-15 7.55716e-20)
(0.623852 2.26876e-17 1.61929e-18)
(0.627918 -1.56835e-15 9.23631e-20)
(0.627918 2.39733e-17 1.65611e-18)
(0.631935 -1.56984e-15 7.38488e-20)
(0.631935 2.27129e-17 1.68999e-18)
(0.635904 -1.57173e-15 8.97239e-20)
(0.635904 2.20435e-17 1.73416e-18)
(0.639827 -1.57277e-15 1.4424e-19)
(0.639827 2.13428e-17 1.77146e-18)
(0.643704 -1.5732e-15 1.9205e-19)
(0.643704 2.05094e-17 1.81259e-18)
(0.647538 -1.57476e-15 2.13245e-19)
(0.647538 2.03141e-17 1.87998e-18)
(0.651329 -1.57671e-15 2.72135e-19)
(0.651329 1.87364e-17 1.98614e-18)
(0.655079 -1.57748e-15 3.32879e-19)
(0.655079 1.72331e-17 2.06968e-18)
(0.658789 -1.57855e-15 3.95547e-19)
(0.658789 1.6462e-17 2.13544e-18)
(0.66246 -1.57935e-15 4.51364e-19)
(0.66246 1.56269e-17 2.24167e-18)
(0.666093 -1.58092e-15 4.48787e-19)
(0.666093 1.43281e-17 2.31232e-18)
(0.66969 -1.58314e-15 4.86224e-19)
(0.66969 1.19812e-17 2.37621e-18)
(0.67325 -1.58324e-15 5.46825e-19)
(0.67325 9.9705e-18 1.49008e-18)
(0.676776 -1.58217e-15 6.06521e-19)
(0.676776 9.31746e-18 5.92854e-19)
(0.680267 -1.58239e-15 6.5889e-19)
(0.680267 8.18259e-18 -3.85916e-19)
(0.683726 -1.58286e-15 7.39317e-19)
(0.683726 7.02579e-18 -1.54729e-18)
(0.687152 -1.58315e-15 7.99744e-19)
(0.687152 7.38729e-18 -2.87133e-18)
(0.690547 -1.58282e-15 8.96033e-19)
(0.690547 8.80993e-18 -4.11874e-18)
(0.693911 -1.58202e-15 9.45242e-19)
(0.693911 9.03031e-18 -5.36423e-18)
(0.697246 -1.58207e-15 9.79694e-19)
(0.697246 8.6769e-18 -6.75517e-18)
(0.700551 -1.58234e-15 1.00571e-18)
(0.700551 1.01468e-17 -8.03617e-18)
(0.703828 -1.58399e-15 1.00541e-18)
(0.703828 1.02712e-17 -9.36461e-18)
(0.707077 -1.58599e-15 1.02056e-18)
(0.707077 1.07495e-17 -1.09341e-17)
(0.710299 -1.58698e-15 1.01569e-18)
(0.710299 1.21139e-17 -1.23965e-17)
(0.713495 -1.58867e-15 9.97259e-19)
(0.713495 1.19604e-17 -1.39404e-17)
(0.716665 -1.5903e-15 1.00593e-18)
(0.716665 1.27114e-17 -1.56835e-17)
(0.719809 -1.59074e-15 1.00497e-18)
(0.719809 1.41916e-17 -1.72712e-17)
(0.722929 -1.59119e-15 1.02874e-18)
(0.722929 1.43113e-17 -1.90019e-17)
(0.726024 -1.59174e-15 1.02761e-18)
(0.726024 1.45398e-17 -2.0713e-17)
(0.729096 -1.59244e-15 9.8085e-19)
(0.729096 1.35252e-17 -2.26526e-17)
(0.732144 -1.5932e-15 9.58708e-19)
(0.732144 1.28293e-17 -2.45676e-17)
(0.73517 -1.59314e-15 9.42113e-19)
(0.73517 1.18446e-17 -2.64337e-17)
(0.738174 -1.59268e-15 9.64345e-19)
(0.738174 1.10226e-17 -2.84822e-17)
(0.741155 -1.59165e-15 9.35077e-19)
(0.741155 1.04825e-17 -3.05443e-17)
(0.744116 -1.5909e-15 8.90306e-19)
(0.744116 8.51888e-18 -3.26686e-17)
(0.747055 -1.59064e-15 8.08021e-19)
(0.747055 8.17514e-18 -3.47825e-17)
(0.749974 -1.58949e-15 7.30275e-19)
(0.749974 5.98355e-18 -3.68055e-17)
(0.752873 -1.58827e-15 6.70797e-19)
(0.752873 4.55074e-18 -3.86398e-17)
(0.755752 -1.58708e-15 5.31173e-19)
(0.755752 2.37798e-18 -4.04722e-17)
(0.758612 -1.58399e-15 5.09215e-19)
(0.758612 -3.79263e-18 -4.23479e-17)
(0.761452 -1.58078e-15 3.0419e-19)
(0.761452 -1.06566e-17 -4.43195e-17)
(0.764274 -1.57946e-15 1.90426e-19)
(0.764274 -1.42374e-17 -4.63391e-17)
(0.767077 -1.57804e-15 4.78165e-20)
(0.767077 -1.75697e-17 -4.84062e-17)
(0.769863 -1.57635e-15 -1.63367e-19)
(0.769863 -2.20127e-17 -5.05007e-17)
(0.77263 -1.57503e-15 -4.07067e-19)
(0.77263 -2.37914e-17 -5.26209e-17)
(0.77538 -1.5731e-15 -5.25195e-19)
(0.77538 -2.71177e-17 -5.47303e-17)
(0.778113 -1.56867e-15 -5.73038e-19)
(0.778113 -3.21153e-17 -5.68455e-17)
(0.780829 -1.56464e-15 -5.8811e-19)
(0.780829 -3.76042e-17 -5.90688e-17)
(0.783528 -1.56059e-15 -5.48203e-19)
(0.783528 -4.53571e-17 -6.13731e-17)
(0.786211 -1.55868e-15 -7.24715e-19)
(0.786211 -5.1842e-17 -6.37587e-17)
(0.788878 -1.55956e-15 -7.20722e-19)
(0.788878 -5.24817e-17 -6.61754e-17)
(0.791529 -1.55817e-15 -7.55845e-19)
(0.791529 -5.26665e-17 -6.87105e-17)
(0.794164 -1.55863e-15 -9.97109e-19)
(0.794164 -5.54026e-17 -7.1369e-17)
(0.796783 -1.55992e-15 -9.50325e-19)
(0.796783 -5.86877e-17 -7.40942e-17)
(0.799387 -1.56204e-15 -1.21505e-18)
(0.799387 -5.81637e-17 -7.68772e-17)
(0.801977 -1.56362e-15 -1.27558e-18)
(0.801977 -5.82375e-17 -7.97458e-17)
(0.804551 -1.56114e-15 -1.29814e-18)
(0.804551 -6.35083e-17 -8.26885e-17)
(0.80711 -1.56485e-15 -1.40781e-18)
(0.80711 -6.64901e-17 -8.56726e-17)
(0.809656 -1.56073e-15 -1.3486e-18)
(0.809656 -6.7091e-17 -8.87983e-17)
(0.812186 -1.55784e-15 -1.19338e-18)
(0.812186 -7.16401e-17 -9.20195e-17)
(0.814703 -1.55503e-15 -8.50887e-19)
(0.814703 -7.61806e-17 -9.52905e-17)
(0.817206 -1.55133e-15 -4.87758e-19)
(0.817206 -7.75016e-17 -9.8647e-17)
(0.819695 -1.54776e-15 -3.96897e-19)
(0.819695 -8.27123e-17 -1.02102e-16)
(0.82217 -1.54587e-15 -1.12286e-19)
(0.82217 -8.50281e-17 -1.05672e-16)
(0.824632 -1.54393e-15 3.2214e-19)
(0.824632 -8.90558e-17 -1.09326e-16)
(0.827081 -1.54261e-15 4.74589e-19)
(0.827081 -9.41817e-17 -1.13073e-16)
(0.829516 -1.53991e-15 7.3695e-19)
(0.829516 -9.99245e-17 -1.16824e-16)
(0.831938 -1.53578e-15 1.03189e-18)
(0.831938 -1.08042e-16 -1.20693e-16)
(0.834347 -1.53205e-15 1.60238e-18)
(0.834347 -1.11606e-16 -1.24671e-16)
(0.836744 -1.53155e-15 1.86096e-18)
(0.836744 -1.18936e-16 -1.28735e-16)
(0.839128 -1.52622e-15 2.03028e-18)
(0.839128 -1.25547e-16 -1.32885e-16)
(0.841499 -1.52014e-15 1.70132e-18)
(0.841499 -1.30353e-16 -1.37088e-16)
(0.843858 -1.51464e-15 2.06666e-18)
(0.843858 -1.38309e-16 -1.41311e-16)
(0.846204 -1.51218e-15 2.33342e-18)
(0.846204 -1.45473e-16 -1.45675e-16)
(0.848538 -1.50612e-15 2.55308e-18)
(0.848538 -1.50724e-16 -1.50326e-16)
(0.85086 -1.49758e-15 2.63072e-18)
(0.85086 -1.59845e-16 -1.55152e-16)
(0.85317 -1.48568e-15 2.55888e-18)
(0.85317 -1.68785e-16 -1.60045e-16)
(0.855468 -1.47682e-15 2.67982e-18)
(0.855468 -1.74765e-16 -1.65082e-16)
(0.857754 -1.46853e-15 2.69882e-18)
(0.857754 -1.81829e-16 -1.70262e-16)
(0.860029 -1.45761e-15 2.99541e-18)
(0.860029 -1.93422e-16 -1.75493e-16)
(0.862292 -1.45049e-15 3.05928e-18)
(0.862292 -2.04252e-16 -1.81015e-16)
(0.864543 -1.44715e-15 2.94426e-18)
(0.864543 -2.11374e-16 -1.86676e-16)
(0.866783 -1.44082e-15 3.56021e-18)
(0.866783 -2.19606e-16 -1.9231e-16)
(0.869011 -1.43285e-15 3.62933e-18)
(0.869011 -2.25715e-16 -1.97891e-16)
(0.871228 -1.42926e-15 3.6867e-18)
(0.871228 -2.33504e-16 -2.03555e-16)
(0.873434 -1.42365e-15 4.30119e-18)
(0.873434 -2.45058e-16 -2.09286e-16)
(0.875628 -1.41428e-15 4.3437e-18)
(0.875628 -2.54735e-16 -2.1514e-16)
(0.877811 -1.40621e-15 4.48409e-18)
(0.877811 -2.64848e-16 -2.2126e-16)
(0.879984 -1.39643e-15 4.72505e-18)
(0.879984 -2.73491e-16 -2.27395e-16)
(0.882145 -1.38656e-15 4.73338e-18)
(0.882145 -2.83171e-16 -2.33583e-16)
(0.884295 -1.38098e-15 4.67762e-18)
(0.884295 -2.92683e-16 -2.4012e-16)
(0.886434 -1.36839e-15 5.05409e-18)
(0.886434 -3.0097e-16 -2.46875e-16)
(0.888563 -1.35656e-15 4.67037e-18)
(0.888563 -3.08043e-16 -2.53828e-16)
(0.890681 -1.34633e-15 4.83709e-18)
(0.890681 -3.20968e-16 -2.55615e-16)
(0.892788 -1.33902e-15 5.55353e-18)
(0.892788 -3.32227e-16 -2.46646e-16)
(0.894884 -1.32791e-15 5.37878e-18)
(0.894884 -3.37187e-16 -2.37998e-16)
(0.89697 -1.31463e-15 4.71316e-18)
(0.89697 -3.47626e-16 -2.29371e-16)
(0.899045 -1.30116e-15 4.161e-18)
(0.899045 -3.58026e-16 -2.21823e-16)
(0.90111 -1.28837e-15 4.41574e-18)
(0.90111 -3.68558e-16 -2.13394e-16)
(0.903164 -1.27719e-15 4.51869e-18)
(0.903164 -3.79236e-16 -2.04174e-16)
(0.905208 -1.26361e-15 4.86474e-18)
(0.905208 -3.8634e-16 -1.94762e-16)
(0.907241 -1.2489e-15 4.16294e-18)
(0.907241 -3.94695e-16 -1.85704e-16)
(0.909264 -1.23425e-15 4.00258e-18)
(0.909264 -4.00956e-16 -1.76176e-16)
(0.911276 -1.22084e-15 3.53032e-18)
(0.911276 -4.10279e-16 -1.66407e-16)
(0.913279 -1.20653e-15 4.09244e-18)
(0.913279 -4.21628e-16 -1.55608e-16)
(0.915271 -1.19502e-15 3.3657e-18)
(0.915271 -4.27462e-16 -1.44764e-16)
(0.917253 -1.18645e-15 3.7413e-18)
(0.917253 -4.35343e-16 -1.34345e-16)
(0.919224 -1.17224e-15 3.91325e-18)
(0.919224 -4.44839e-16 -1.23001e-16)
(0.921186 -1.1579e-15 2.58607e-18)
(0.921186 -4.53442e-16 -1.11392e-16)
(0.923137 -1.14253e-15 2.0523e-18)
(0.923137 -4.64509e-16 -1.00853e-16)
(0.925078 -1.12551e-15 3.05217e-18)
(0.925078 -4.7508e-16 -9.12293e-17)
(0.927009 -1.10645e-15 2.77335e-18)
(0.927009 -4.84548e-16 -8.00062e-17)
(0.928931 -1.08989e-15 5.70515e-19)
(0.928931 -4.96009e-16 -6.7697e-17)
(0.930842 -1.07718e-15 4.0527e-19)
(0.930842 -4.97917e-16 -5.56752e-17)
(0.932743 -1.06242e-15 1.16348e-18)
(0.932743 -5.02961e-16 -4.68408e-17)
(0.934634 -1.04831e-15 1.6458e-18)
(0.934634 -5.18355e-16 -3.47332e-17)
(0.936515 -1.03273e-15 2.82729e-19)
(0.936515 -5.22815e-16 -2.0875e-17)
(0.938386 -1.00857e-15 -1.98618e-18)
(0.938386 -5.32403e-16 -8.9993e-18)
(0.940248 -9.81811e-16 -4.62825e-18)
(0.940248 -5.43487e-16 -1.23655e-18)
(0.942099 -9.85612e-16 -2.41945e-18)
(0.942099 -5.44241e-16 9.3625e-18)
(0.94394 -9.77953e-16 -1.36961e-18)
(0.94394 -5.41875e-16 2.21342e-17)
(0.945772 -9.71187e-16 -2.35576e-18)
(0.945772 -5.4342e-16 3.45946e-17)
(0.947594 -9.6834e-16 -1.37326e-18)
(0.947594 -5.45598e-16 4.55477e-17)
(0.949406 -9.62211e-16 -1.27014e-18)
(0.949406 -5.47297e-16 5.80698e-17)
(0.951208 -9.58185e-16 -3.25142e-19)
(0.951208 -5.50388e-16 7.16474e-17)
(0.953 -9.48141e-16 -1.125e-18)
(0.953 -5.58371e-16 8.60004e-17)
(0.954783 -9.38132e-16 -2.75593e-18)
(0.954783 -5.64358e-16 9.65978e-17)
(0.956556 -9.33013e-16 -2.78857e-18)
(0.956556 -5.59668e-16 1.07816e-16)
(0.958319 -9.30747e-16 -1.93646e-18)
(0.958319 -5.59941e-16 1.20881e-16)
(0.960072 -9.22916e-16 -1.04848e-18)
(0.960072 -5.5576e-16 1.37454e-16)
(0.961815 -9.15426e-16 8.45254e-19)
(0.961815 -5.5173e-16 1.53829e-16)
(0.963549 -9.13224e-16 1.29804e-18)
(0.963549 -5.51948e-16 1.61911e-16)
(0.965273 -9.09491e-16 9.15663e-19)
(0.965273 -5.53463e-16 1.56064e-16)
(0.966987 -9.01564e-16 1.97186e-18)
(0.966987 -5.62919e-16 1.49155e-16)
(0.968691 -8.93914e-16 -3.26676e-19)
(0.968691 -5.74136e-16 1.42041e-16)
(0.970386 -8.89663e-16 -4.6672e-20)
(0.970386 -5.72875e-16 1.35349e-16)
(0.972071 -8.76892e-16 1.58692e-18)
(0.972071 -5.71906e-16 1.29162e-16)
(0.973746 -8.63062e-16 3.91026e-19)
(0.973746 -5.64254e-16 1.21458e-16)
(0.975411 -8.60374e-16 1.09409e-18)
(0.975411 -5.61568e-16 1.10663e-16)
(0.977067 -8.53039e-16 1.59507e-18)
(0.977067 -5.58609e-16 1.00601e-16)
(0.978713 -8.37039e-16 -1.56971e-19)
(0.978713 -5.68367e-16 9.20566e-17)
(0.980349 -8.21971e-16 -6.0813e-18)
(0.980349 -5.72478e-16 8.52692e-17)
(0.981975 -8.07606e-16 -6.68205e-18)
(0.981975 -5.67279e-16 7.92364e-17)
(0.983591 -8.05842e-16 -3.95982e-18)
(0.983591 -5.65191e-16 7.50403e-17)
(0.985198 -8.00889e-16 5.76945e-19)
(0.985198 -5.64523e-16 6.8206e-17)
(0.986795 -7.87823e-16 -2.74146e-18)
(0.986795 -5.57728e-16 6.47317e-17)
(0.988382 -7.82191e-16 -7.14005e-18)
(0.988382 -5.51917e-16 5.94077e-17)
(0.989959 -7.77539e-16 -5.69531e-18)
(0.989959 -5.62355e-16 5.27116e-17)
(0.991527 -7.71671e-16 -2.84649e-18)
(0.991527 -5.54925e-16 4.91684e-17)
(0.993084 -7.63526e-16 5.0379e-20)
(0.993084 -5.61606e-16 4.68653e-17)
(0.994631 -7.56486e-16 -3.50373e-18)
(0.994631 -5.70956e-16 4.66736e-17)
(0.996169 -7.48254e-16 -4.91469e-18)
(0.996169 -5.64087e-16 4.79183e-17)
(0.997697 -7.39286e-16 -1.84527e-18)
(0.997697 -5.59023e-16 5.23907e-17)
(0.999214 -7.30895e-16 -3.83775e-19)
(0.999214 -5.62867e-16 5.73539e-17)
(1.00072 -7.23631e-16 -5.23535e-18)
(1.00072 -5.57201e-16 6.37778e-17)
(1.00222 -7.29003e-16 -8.97639e-18)
(1.00222 -5.48109e-16 6.82654e-17)
(1.00371 -7.43243e-16 -2.70517e-18)
(1.00371 -5.18671e-16 6.57766e-17)
(1.00518 -7.56206e-16 2.74529e-18)
(1.00518 -5.12129e-16 5.47019e-17)
(1.00665 -7.58117e-16 4.93859e-18)
(1.00665 -5.16363e-16 4.11969e-17)
(1.00811 -7.48535e-16 4.48619e-18)
(1.00811 -5.12697e-16 2.50748e-17)
(1.00956 -7.26756e-16 -2.376e-18)
(1.00956 -5.26348e-16 1.58789e-17)
(1.01099 -7.07862e-16 -7.16409e-18)
(1.01099 -5.43299e-16 1.72472e-17)
(1.01242 -7.10901e-16 8.25316e-19)
(1.01242 -5.60796e-16 2.00898e-17)
(1.01384 -7.00872e-16 -4.03278e-19)
(1.01384 -5.95322e-16 2.28888e-17)
(1.01524 -6.66368e-16 -4.23856e-18)
(1.01524 -5.4628e-16 1.2852e-17)
(1.01664 -6.2997e-16 -1.98554e-17)
(1.01664 -5.55883e-16 1.32449e-17)
(1.01802 -6.10794e-16 -1.99922e-17)
(1.01802 -5.53426e-16 1.67991e-17)
(1.01939 -6.07624e-16 -1.47662e-17)
(1.01939 -5.38066e-16 1.27316e-17)
(1.02076 -5.96889e-16 -1.56568e-17)
(1.02076 -5.42446e-16 9.95032e-18)
(1.02211 -5.81786e-16 -2.27851e-17)
(1.02211 -5.37314e-16 8.01749e-18)
(1.02345 -5.70942e-16 -2.17899e-17)
(1.02345 -5.28172e-16 6.93319e-18)
(1.02478 -5.69732e-16 -2.01651e-17)
(1.02478 -5.16871e-16 3.55391e-19)
(1.0261 -5.64626e-16 -2.3204e-17)
(1.0261 -5.11337e-16 -1.27785e-17)
(1.02741 -5.52136e-16 -2.03433e-17)
(1.02741 -5.35129e-16 -2.11331e-17)
(1.02871 -5.339e-16 -1.75699e-17)
(1.02871 -5.15232e-16 -2.42129e-17)
(1.03 -5.19411e-16 -1.95073e-17)
(1.03 -5.17418e-16 -2.57029e-17)
(1.03127 -5.23065e-16 -2.02999e-17)
(1.03127 -5.1554e-16 -2.70852e-17)
(1.03254 -5.33869e-16 -1.70108e-17)
(1.03254 -4.97287e-16 -2.98973e-17)
(1.03379 -5.23731e-16 -1.46955e-17)
(1.03379 -5.04384e-16 -3.04826e-17)
(1.03503 -5.14514e-16 -1.10109e-17)
(1.03503 -5.10454e-16 -3.04958e-17)
(1.03626 -5.28406e-16 2.85265e-18)
(1.03626 -4.84822e-16 -2.11134e-17)
(1.03748 -5.1009e-16 9.78061e-18)
(1.03748 -4.86406e-16 -1.58173e-17)
(1.03869 -4.91916e-16 6.03387e-18)
(1.03869 -4.70217e-16 -1.8125e-17)
(1.03988 -4.83107e-16 2.11768e-17)
(1.03988 -4.32713e-16 -1.66324e-17)
(1.04107 -4.66088e-16 4.00618e-17)
(1.04107 -4.2831e-16 -2.26508e-17)
(1.04224 -4.24878e-16 4.3489e-17)
(1.04224 -4.13574e-16 -1.18314e-17)
(1.04339 -4.15429e-16 7.89567e-19)
(1.04339 -4.2209e-16 6.96658e-19)
(1.04454 -4.4031e-16 1.08611e-17)
(1.04454 -3.98861e-16 -5.89219e-18)
(1.04567 -4.06954e-16 3.92548e-17)
(1.04567 -4.32992e-16 -1.58913e-17)
(1.04679 -3.83368e-16 3.14884e-17)
(1.04679 -4.90068e-16 -1.28337e-17)
(1.0479 -4.00272e-16 9.97914e-18)
(1.0479 -4.01183e-16 2.19099e-18)
(1.04899 -4.03689e-16 -1.05099e-17)
(1.04899 -4.36707e-16 4.51042e-18)
(1.05007 -4.03707e-16 -1.3229e-17)
(1.05007 -4.2449e-16 -4.37742e-18)
(1.05114 -4.12607e-16 -7.88019e-18)
(1.05114 -4.31827e-16 -3.69972e-18)
(1.0522 -4.16935e-16 -1.07348e-17)
(1.0522 -4.31179e-16 -1.49071e-17)
(1.05324 -4.22394e-16 -7.55444e-18)
(1.05324 -4.53707e-16 -2.99936e-17)
(1.05426 -4.23091e-16 -8.00228e-18)
(1.05426 -4.42215e-16 -2.99816e-17)
(1.05527 -4.15851e-16 -1.19837e-18)
(1.05527 -4.30135e-16 -1.94721e-17)
(1.05627 -3.98892e-16 4.87457e-18)
(1.05627 -4.31976e-16 -1.8254e-17)
(1.05726 -4.13677e-16 -1.03312e-17)
(1.05726 -4.22224e-16 -7.95474e-18)
(1.05823 -4.21945e-16 -5.74708e-18)
(1.05823 -3.99202e-16 -2.39359e-17)
(1.05918 -3.9494e-16 -8.70527e-18)
(1.05918 -3.94406e-16 -2.01905e-17)
(1.06012 -3.83554e-16 5.18682e-18)
(1.06012 -4.00073e-16 -1.76484e-17)
(1.06104 -3.97599e-16 -8.96365e-18)
(1.06104 -4.14349e-16 -1.40065e-17)
(1.06195 -4.30042e-16 -1.45982e-17)
(1.06195 -3.71422e-16 -1.41219e-17)
(1.06284 -4.08988e-16 -1.5876e-18)
(1.06284 -4.06686e-16 -2.81533e-17)
(1.06371 -4.04652e-16 7.29697e-18)
(1.06371 -4.37809e-16 -3.44719e-17)
(1.06457 -4.20606e-16 3.37614e-18)
(1.06457 -4.60138e-16 2.56426e-18)
(1.06541 -4.60818e-16 0)
(1.06541 -4.41684e-16 1.18722e-17)
(1.06624 -4.8195e-16 6.21417e-18)
(1.06624 -4.3304e-16 -1.76193e-18)
(1.06704 -4.63776e-16 -8.27699e-18)
(1.06704 -4.4987e-16 3.4868e-18)
(1.06783 -4.61467e-16 5.93273e-18)
(1.06783 -4.47652e-16 -3.61425e-19)
(1.0686 -4.57583e-16 -3.22317e-18)
(1.0686 -4.45952e-16 -7.2484e-18)
(1.06935 -4.4836e-16 -1.07572e-17)
(1.06935 -4.73138e-16 -1.41196e-17)
(1.07008 -4.35247e-16 -1.8949e-17)
(1.07008 -4.4239e-16 -3.22878e-17)
(1.07079 -4.1177e-16 -1.59676e-17)
(1.07079 -4.20846e-16 -1.38885e-17)
(1.07148 -4.46784e-16 -3.45748e-17)
(1.07148 -4.56937e-16 -3.36306e-17)
(1.07215 -4.11469e-16 -2.76781e-17)
(1.07215 -4.00026e-16 -3.06504e-17)
(1.0728 -4.21237e-16 -3.44562e-17)
(1.0728 -4.40334e-16 -1.56244e-17)
(1.07343 -4.17766e-16 -2.08277e-17)
(1.07343 -4.5605e-16 8.27874e-19)
(1.07403 -4.24089e-16 -3.65502e-17)
(1.07403 -4.27938e-16 3.10777e-17)
(1.07461 -4.14472e-16 -1.91698e-17)
(1.07461 -4.17128e-16 1.57628e-17)
(1.07516 -4.56273e-16 -9.0211e-18)
(1.07516 -4.11796e-16 -1.4226e-17)
(1.07568 -4.42008e-16 -1.63789e-17)
(1.07568 -4.51644e-16 -4.34208e-17)
(1.07618 -3.93666e-16 -6.31488e-18)
(1.07618 -4.45631e-16 -2.35531e-18)
(1.07666 -3.96377e-16 -1.89173e-17)
(1.07666 -3.97093e-16 2.48677e-17)
(1.0771 -3.94869e-16 -2.68101e-17)
(1.0771 -3.96522e-16 1.37183e-17)
(1.07751 -3.93145e-16 -1.85312e-17)
(1.07751 -4.14682e-16 9.51115e-19)
(1.07789 -4.24781e-16 -3.47226e-17)
(1.07789 -4.24979e-16 1.66974e-17)
(1.07823 -4.41014e-16 -2.23644e-17)
(1.07823 -4.17154e-16 1.43076e-17)
(1.07854 -4.43412e-16 -5.95032e-17)
(1.07854 -3.91615e-16 -9.32811e-18)
(1.07881 -4.54036e-16 -1.00721e-17)
(1.07881 -4.19135e-16 -3.9406e-17)
(1.07904 -4.67258e-16 4.10953e-17)
(1.07904 -4.5967e-16 -4.43564e-17)
(1.07924 -4.19175e-16 3.76141e-17)
(1.07924 -3.99253e-16 -3.05169e-17)
(1.07938 -3.85738e-16 -3.20714e-17)
(1.07938 -4.42945e-16 -4.84037e-18)
(1.07948 -3.8313e-16 -3.80659e-17)
(1.07948 -4.28499e-16 -3.46019e-17)
(1.07953 -3.50723e-16 -4.25002e-17)
(1.07953 -3.8175e-16 -2.87453e-17)
(0.0037631 1.77025e-19 -1.88399e-18)
(0.0037631 1.32271e-19 -1.48445e-18)
(0.0113434 -1.14121e-19 -1.24562e-17)
(0.0113434 -3.53346e-20 -1.76386e-17)
(0.0190332 1.63271e-19 -1.2949e-17)
(0.0190332 9.59577e-20 -1.81521e-17)
(0.0268338 2.6742e-19 -1.25904e-17)
(0.0268338 1.58187e-19 -1.86797e-17)
(0.0347466 3.73778e-19 -1.23098e-17)
(0.0347466 2.13585e-19 -1.92208e-17)
(0.0427729 5.08146e-19 -1.21006e-17)
(0.0427729 2.37312e-19 -1.97762e-17)
(0.0509142 6.59871e-19 -1.18886e-17)
(0.0509142 2.54239e-19 -2.03457e-17)
(0.0591717 8.12644e-19 -1.16584e-17)
(0.0591717 3.22232e-19 -2.09298e-17)
(0.0675468 9.56432e-19 -1.14124e-17)
(0.0675468 3.87455e-19 -2.15277e-17)
(0.0760407 1.06547e-18 -1.1153e-17)
(0.0760407 5.15414e-19 -2.21387e-17)
(0.0846546 1.15495e-18 -1.08782e-17)
(0.0846546 6.58453e-19 -2.27646e-17)
(0.0933895 1.25829e-18 -1.05883e-17)
(0.0933895 7.4581e-19 -2.34035e-17)
(0.102246 1.426e-18 -1.02652e-17)
(0.102246 8.21294e-19 -2.40557e-17)
(0.111225 1.64225e-18 -9.09243e-18)
(0.111225 8.67919e-19 -2.47212e-17)
(0.120326 1.79076e-18 -9.35807e-18)
(0.120326 1.00418e-18 -2.53973e-17)
(0.129548 1.9401e-18 -9.26389e-18)
(0.129548 1.23249e-18 -2.6082e-17)
(0.138891 2.15243e-18 -8.88895e-18)
(0.138891 1.50303e-18 -2.67722e-17)
(0.148352 2.32422e-18 -8.49556e-18)
(0.148352 1.67168e-18 -2.74674e-17)
(0.157929 2.5439e-18 -8.0808e-18)
(0.157929 1.87443e-18 -2.81642e-17)
(0.167616 2.82823e-18 -7.64679e-18)
(0.167616 2.09687e-18 -2.88537e-17)
(0.177409 3.05025e-18 -7.19025e-18)
(0.177409 2.23891e-18 -2.95382e-17)
(0.1873 3.26714e-18 -6.70653e-18)
(0.1873 2.37059e-18 -3.02087e-17)
(0.19728 3.59946e-18 -6.1974e-18)
(0.19728 2.50698e-18 -3.08597e-17)
(0.207339 3.87049e-18 -5.66234e-18)
(0.207339 2.66887e-18 -3.14782e-17)
(0.217463 3.97622e-18 -5.1112e-18)
(0.217463 3.00629e-18 -3.20593e-17)
(0.22764 4.12383e-18 -4.53977e-18)
(0.22764 3.34573e-18 -3.25971e-17)
(0.237851 4.27966e-18 -3.93964e-18)
(0.237851 3.47334e-18 -3.30918e-17)
(0.248081 4.40138e-18 -3.32006e-18)
(0.248081 3.69933e-18 -3.35318e-17)
(0.258311 4.60748e-18 -2.68052e-18)
(0.258311 4.0567e-18 -3.39117e-17)
(0.268521 4.89481e-18 -2.02748e-18)
(0.268521 4.21875e-18 -3.42189e-17)
(0.278692 5.3734e-18 -1.36189e-18)
(0.278692 4.18962e-18 -3.44535e-17)
(0.288805 5.75418e-18 -6.75092e-19)
(0.288805 4.41041e-18 -3.46256e-17)
(0.29884 5.98266e-18 2.15256e-20)
(0.29884 4.62195e-18 -3.47319e-17)
(0.308779 6.45832e-18 7.25085e-19)
(0.308779 4.59588e-18 -3.47644e-17)
(0.318607 6.99721e-18 1.44142e-18)
(0.318607 5.04126e-18 -3.47284e-17)
(0.328307 7.47359e-18 2.16281e-18)
(0.328307 5.63819e-18 -3.46319e-17)
(0.337867 7.80591e-18 2.88596e-18)
(0.337867 6.30294e-18 -3.44773e-17)
(0.347277 7.95746e-18 3.60469e-18)
(0.347277 6.69808e-18 -3.42665e-17)
(0.356525 8.20984e-18 4.30907e-18)
(0.356525 6.86542e-18 -3.40033e-17)
(0.365607 8.75207e-18 5.0104e-18)
(0.365607 7.30341e-18 -3.37065e-17)
(0.374515 9.53112e-18 5.71962e-18)
(0.374515 7.72286e-18 -3.33824e-17)
(0.383246 1.00398e-17 6.44777e-18)
(0.383246 7.92458e-18 -3.30303e-17)
(0.391798 1.01118e-17 7.16719e-18)
(0.391798 8.24677e-18 -3.26476e-17)
(0.40017 1.02302e-17 7.867e-18)
(0.40017 8.76623e-18 -3.22352e-17)
(0.408364 1.05425e-17 8.57769e-18)
(0.408364 8.84164e-18 -3.1825e-17)
(0.416379 1.1109e-17 9.28577e-18)
(0.416379 9.4089e-18 -3.13865e-17)
(0.424219 1.16082e-17 1.00044e-17)
(0.424219 1.00314e-17 -3.09532e-17)
(0.431886 1.18705e-17 1.07273e-17)
(0.431886 1.0403e-17 -3.05114e-17)
(0.439384 1.21651e-17 1.14424e-17)
(0.439384 1.10473e-17 -3.00535e-17)
(0.446717 1.25586e-17 1.21589e-17)
(0.446717 1.18696e-17 -2.95914e-17)
(0.453889 1.30056e-17 1.28725e-17)
(0.453889 1.22463e-17 -2.90724e-17)
(0.460905 1.32731e-17 1.36011e-17)
(0.460905 1.26283e-17 -2.85517e-17)
(0.467769 1.36706e-17 1.43229e-17)
(0.467769 1.29775e-17 -2.80324e-17)
(0.474487 1.39591e-17 1.50523e-17)
(0.474487 1.35322e-17 -2.75134e-17)
(0.481062 1.42172e-17 1.57852e-17)
(0.481062 1.46514e-17 -2.6996e-17)
(0.4875 1.46685e-17 1.65351e-17)
(0.4875 1.51741e-17 -2.64788e-17)
(0.493806 1.48822e-17 1.72846e-17)
(0.493806 1.48813e-17 -2.59625e-17)
(0.499984 1.50388e-17 1.80591e-17)
(0.499984 1.48672e-17 -2.54475e-17)
(0.506038 1.54391e-17 1.88556e-17)
(0.506038 1.48574e-17 -2.49351e-17)
(0.511974 1.54358e-17 1.96442e-17)
(0.511974 1.5009e-17 -2.44239e-17)
(0.517795 1.53668e-17 2.04345e-17)
(0.517795 1.52248e-17 -2.39122e-17)
(0.523505 1.54348e-17 2.12294e-17)
(0.523505 1.55755e-17 -2.33961e-17)
(0.52911 1.55048e-17 2.20997e-17)
(0.52911 1.60691e-17 -2.28751e-17)
(0.534611 1.56291e-17 2.29459e-17)
(0.534611 1.62177e-17 -2.23547e-17)
(0.540014 1.5404e-17 2.38115e-17)
(0.540014 1.68113e-17 -2.18311e-17)
(0.545322 1.55245e-17 2.46939e-17)
(0.545322 1.68855e-17 -2.13063e-17)
(0.550538 1.59375e-17 2.55919e-17)
(0.550538 1.77277e-17 -2.078e-17)
(0.555666 1.64781e-17 2.65469e-17)
(0.555666 1.88751e-17 -2.02503e-17)
(0.560709 1.72596e-17 2.74841e-17)
(0.560709 1.90494e-17 -1.97153e-17)
(0.565669 1.76866e-17 2.84433e-17)
(0.565669 1.93041e-17 -1.91732e-17)
(0.570551 1.78921e-17 2.9443e-17)
(0.570551 1.97496e-17 -1.86229e-17)
(0.575355 1.85343e-17 3.04627e-17)
(0.575355 2.01675e-17 -1.80632e-17)
(0.580087 1.9081e-17 3.1519e-17)
(0.580087 2.06048e-17 -1.75007e-17)
(0.584746 2.02022e-17 3.2607e-17)
(0.584746 2.1301e-17 -1.69272e-17)
(0.589338 2.1443e-17 3.37732e-17)
(0.589338 2.24827e-17 -1.63398e-17)
(0.593862 2.1933e-17 3.49197e-17)
(0.593862 2.36122e-17 -1.57461e-17)
(0.598323 2.24827e-17 3.60709e-17)
(0.598323 2.45715e-17 -1.51385e-17)
(0.602721 2.28651e-17 3.72616e-17)
(0.602721 2.48416e-17 -1.45152e-17)
(0.60706 2.37903e-17 3.84791e-17)
(0.60706 2.48347e-17 -1.38742e-17)
(0.61134 2.41248e-17 3.97747e-17)
(0.61134 2.55763e-17 -1.32167e-17)
(0.615565 2.35588e-17 4.1093e-17)
(0.615565 2.60456e-17 -1.25361e-17)
(0.619735 2.34572e-17 4.24297e-17)
(0.619735 2.61331e-17 -1.18486e-17)
(0.623852 2.37141e-17 4.27855e-17)
(0.623852 2.68982e-17 -1.11471e-17)
(0.627918 2.34947e-17 4.05939e-17)
(0.627918 2.7943e-17 -1.04235e-17)
(0.631935 2.26732e-17 3.83293e-17)
(0.631935 2.77834e-17 -9.68211e-18)
(0.635904 2.27483e-17 3.61093e-17)
(0.635904 2.76776e-17 -8.91856e-18)
(0.639827 2.36368e-17 3.38786e-17)
(0.639827 2.71959e-17 -8.11832e-18)
(0.643704 2.41609e-17 3.15921e-17)
(0.643704 2.81957e-17 -7.29215e-18)