/*--------------------------------*- C++ -*----------------------------------*\
| =========                 |                                                 |
| \\      /  F ield         | OpenFOAM: The Open Source CFD Toolbox           |
|  \\    /   O peration     | Version:  2012                                  |
|   \\  /    A nd           | Website:  www.openfoam.com                      |
|    \\/     M anipulation  |                                                 |
\*---------------------------------------------------------------------------*/
FoamFile
{
    version     2.0;
    format      ascii;
    class       volTensorField;
    location    "8000";
    object      grad(U);
}
// * * * * * * * * * * * * * * * * * * * * * * * * * * * * * * * * * * * * * //

dimensions      [0 0 -1 0 0 0 0];


internalField   nonuniform List<tensor> 
2560
(
(0 5.19726e-31 4.87243e-32 10.7465 -3.89362e-12 -1.69282e-13 0.0155572 -2.81738e-15 -8.70224e-17)
(0 -2.63648e-28 -7.90173e-27 10.7465 0 -2.10483e-14 0.0155572 -6.59119e-29 -1.52325e-17)
(0 -5.16485e-25 -1.04659e-26 10.7444 3.30022e-32 -3.92223e-14 0.0468921 -6.31089e-30 -1.15202e-16)
(-9.01208e-18 0 0 10.7444 -2.78934e-15 -5.33575e-14 0.0468921 -4.88015e-18 -1.66087e-16)
(-1.97032e-18 -4.03948e-30 -7.78118e-32 10.7422 3.68935e-12 -1.8361e-14 0.0644787 -1.85898e-14 -1.03567e-16)
(0 8.07896e-30 2.52467e-31 10.7422 -2.58672e-15 -3.25361e-15 0.0644787 -8.51572e-18 -1.70885e-16)
(6.31647e-18 -3.03644e-26 -1.75704e-31 10.7397 -8.47487e-32 -1.73521e-14 0.0654007 -3.15544e-30 -1.06286e-16)
(0 7.96317e-30 1.24424e-31 10.7397 -3.00001e-15 -3.26639e-15 0.0654007 -1.35703e-17 -1.75773e-16)
(3.45204e-17 -1.17736e-29 -3.67923e-31 10.7371 8.81597e-14 -1.77184e-14 0.0663347 -1.1684e-15 -1.11129e-16)
(0 7.84903e-30 2.45282e-31 10.7371 -2.99892e-15 -3.27717e-15 0.0663347 -1.86867e-17 -1.80749e-16)
(4.92222e-17 -1.81327e-29 -2.98639e-31 10.7342 -1.68026e-14 -1.81667e-14 0.0672808 -1.13335e-16 -1.1502e-16)
(1.21572e-16 1.54731e-29 1.20883e-31 10.7342 -3.01256e-15 -3.28635e-15 0.0672808 -2.39317e-17 -1.85813e-16)
(-1.97321e-17 -2.67812e-28 -5.91818e-32 10.7312 -8.49771e-28 -1.85077e-14 0.0682392 3.15544e-30 -1.18721e-16)
(7.89283e-17 3.81283e-30 2.38302e-31 10.7312 -3.02436e-15 -3.29437e-15 0.0682392 -2.92833e-17 -1.90961e-16)
(-5.73897e-17 1.39481e-29 2.9804e-31 10.728 6.66994e-15 -1.88392e-14 0.06921 -3.67146e-17 -1.22667e-16)
(9.73296e-17 -7.51636e-30 -1.17443e-31 10.728 -3.02418e-15 -3.30137e-15 0.06921 -3.46942e-17 -1.96197e-16)
(2.89983e-17 -6.37488e-30 -2.97962e-31 10.7245 6.44109e-15 -1.91908e-14 0.0701935 -4.88254e-17 -1.26803e-16)
(0 3.70431e-30 2.3152e-31 10.7245 -3.03107e-15 -3.30718e-15 0.0701935 -4.02413e-17 -2.01521e-16)
(-6.4233e-17 3.65122e-30 2.28201e-31 10.721 5.17399e-15 -1.9553e-14 0.0711898 -3.47939e-17 -1.31071e-16)
(0 0 -1.14101e-31 10.721 -3.06039e-15 -3.31191e-15 0.0711898 -4.59343e-17 -2.06927e-16)
(-3.85304e-17 -8.12566e-30 -1.51554e-31 10.7172 5.06358e-15 -1.99208e-14 0.0721991 -3.34251e-17 -1.35473e-16)
(0 1.07967e-29 3.37396e-31 10.7172 -3.07941e-15 -3.31517e-15 0.0721991 -5.17635e-17 -2.1242e-16)
(4.33983e-17 -2.04066e-29 -5.20446e-31 10.7133 5.06311e-15 -2.02936e-14 0.0732216 -3.43252e-17 -1.40008e-16)
(0 1.06419e-29 4.43414e-31 10.7133 -3.07473e-15 -3.31732e-15 0.0732216 -5.78406e-17 -2.17996e-16)
(6.15105e-17 -6.99293e-30 -2.18529e-31 10.7092 4.9824e-15 -2.06713e-14 0.0742575 -3.43977e-17 -1.44681e-16)
(0 6.99293e-30 4.37058e-31 10.7092 -3.01075e-15 -3.31863e-15 0.0742575 -6.39762e-17 -2.23657e-16)
(-5.33423e-17 6.11473e-30 3.00139e-31 10.705 4.9645e-15 -2.10537e-14 0.0753071 -3.42113e-17 -1.49491e-16)
(1.5274e-16 0 0 10.705 -2.96963e-15 -3.31863e-15 0.0753071 -6.99674e-17 -2.29399e-16)
(0 2.03818e-29 6.3693e-31 10.7006 4.99565e-15 -2.14409e-14 0.0763705 -3.51534e-17 -1.54447e-16)
(0 -2.03818e-29 -6.3693e-31 10.7006 -3.00128e-15 -3.31709e-15 0.0763705 -7.61134e-17 -2.35222e-16)
(-6.357e-17 -6.81809e-31 -1.16258e-31 10.6961 4.99896e-15 -2.18332e-14 0.0774481 -3.56582e-17 -1.59552e-16)
(2.5428e-16 3.34827e-30 2.09267e-31 10.6961 -3.02688e-15 -3.31287e-15 0.0774481 -8.22348e-17 -2.41128e-16)
(0 1.65014e-29 8.25071e-31 10.6915 5.01052e-15 -2.22307e-14 0.0785399 -3.62311e-17 -1.64812e-16)
(-2.7517e-16 -1.65014e-29 -8.25071e-31 10.6915 -3.05019e-15 -3.30681e-15 0.0785399 -8.8343e-17 -2.47109e-16)
(0 1.62649e-29 4.06623e-31 10.6868 4.99479e-15 -2.26333e-14 0.0796463 -3.68726e-17 -1.70229e-16)
(-2.96355e-16 -1.62649e-29 -4.06623e-31 10.6868 -3.00628e-15 -3.30005e-15 0.0796463 -9.48646e-17 -2.53164e-16)
(1.12814e-16 -6.41271e-30 -4.00795e-31 10.682 4.98166e-15 -2.30413e-14 0.0807676 -3.7058e-17 -1.75811e-16)
(0 6.41271e-30 4.00795e-31 10.682 -3.02243e-15 -3.29145e-15 0.0807676 -1.01145e-16 -2.59295e-16)
(8.49064e-17 3.65815e-30 4.812e-31 10.6771 5.08155e-15 -2.34548e-14 0.0819039 -3.77542e-17 -1.8156e-16)
(-3.39625e-16 -9.48121e-30 -7.90101e-31 10.6771 -3.15567e-15 -3.60057e-15 0.0819039 -1.07732e-16 -2.65493e-16)
(0 1.24604e-29 5.84082e-31 10.672 5.12783e-15 -2.38731e-14 0.0830556 -3.96764e-17 -1.87473e-16)
(0 -1.24604e-29 -5.84082e-31 10.672 -3.09391e-15 -3.94114e-15 0.0830556 -1.14721e-16 -2.72982e-16)
(1.20012e-17 2.66044e-30 -2.62252e-31 10.667 4.99746e-15 -2.42969e-14 0.0842229 -3.95806e-17 -1.93574e-16)
(-1.08032e-16 6.14092e-30 5.75711e-31 10.667 -2.8791e-15 -3.98777e-15 0.0842229 -1.21326e-16 -2.79822e-16)
(4.77291e-18 -2.76049e-29 -1.76462e-30 10.6618 5.00736e-15 -2.47269e-14 0.0854062 -3.87794e-17 -1.99856e-16)
(0 2.72381e-29 1.32407e-30 10.6618 -2.90462e-15 -4.03091e-15 0.0854062 -1.27751e-16 -2.86335e-16)
(0 8.94922e-30 5.59326e-31 10.6566 5.20855e-15 -2.51623e-14 0.0866056 -4.08987e-17 -2.06323e-16)
(-4.29883e-16 -1.19323e-29 -7.45768e-31 10.6566 -3.09972e-15 -4.07622e-15 0.0866056 -1.34801e-16 -2.92927e-16)
(9.85809e-18 1.49849e-29 9.64428e-31 10.6514 5.23799e-15 -2.5603e-14 0.0878216 -4.31863e-17 -2.12979e-16)
(1.03453e-16 -1.76419e-29 -1.10262e-30 10.6514 -3.15517e-15 -4.11969e-15 0.0878216 -1.4196e-16 -2.99579e-16)
(-2.38468e-16 2.84976e-29 1.75012e-30 10.6461 5.13918e-15 -2.32983e-14 0.0890544 -4.25824e-17 -1.73799e-16)
(0 -2.31854e-29 -1.44909e-30 10.6461 -3.02537e-15 -4.1631e-15 0.0890544 -1.49161e-16 -3.06281e-16)
(3.7572e-16 -2.79616e-29 -1.92876e-30 10.6408 5.10747e-15 -1.60485e-14 0.0903043 -4.27979e-17 -9.61362e-17)
(1.00192e-15 1.99965e-29 1.42832e-30 10.6408 -2.85955e-15 -4.20733e-15 0.0903043 -1.56282e-16 -3.13042e-16)
(0 -1.68942e-29 -7.03924e-31 10.6355 5.10044e-15 -1.14102e-14 0.0915718 -4.32915e-17 -9.89988e-17)
(3.27184e-16 1.68942e-29 1.05589e-30 10.6355 -2.88043e-15 -4.2479e-15 0.0915718 -1.63027e-16 -3.19849e-16)
(1.37506e-16 5.67322e-30 5.22089e-31 10.6302 5.18456e-15 -1.15809e-14 0.092857 -4.39304e-17 -1.01935e-16)
(0 -5.55068e-30 -3.46917e-31 10.6302 -2.98627e-15 -4.28571e-15 0.092857 -1.7018e-16 -3.26686e-16)
(-2.87537e-16 5.30272e-30 6.90621e-31 10.6249 5.31203e-15 -1.17545e-14 0.0941604 -4.60295e-17 -1.04976e-16)
(-1.15015e-15 0 -3.41945e-31 10.6249 -3.05292e-15 -4.32716e-15 0.0941604 -1.78207e-16 -3.33557e-16)
(-1.50119e-16 1.61318e-29 5.14045e-31 10.6197 5.32212e-15 -1.19387e-14 0.0954823 -4.74772e-17 -1.08235e-16)
(-6.00474e-16 -8.08906e-30 0 10.6197 -3.14451e-15 -4.36991e-15 0.0954823 -1.86679e-16 -3.4047e-16)
(0 1.8604e-29 9.9664e-31 10.6144 5.43541e-15 -1.21335e-14 0.0968232 -4.75594e-17 -1.11604e-16)
(-6.26232e-16 -1.8604e-29 -9.9664e-31 10.6144 -3.14771e-15 -4.40898e-15 0.0968232 -1.94942e-16 -3.47407e-16)
(1.84339e-16 -1.57177e-29 -9.82356e-31 10.6092 5.1088e-15 -1.23295e-14 0.0981832 -5.09353e-17 -1.15035e-16)
(4.68011e-16 1.57177e-29 9.82356e-31 10.6092 -3.07624e-15 -4.44962e-15 0.0981832 -2.0329e-16 -3.54357e-16)
(-1.69709e-16 7.81129e-30 -1.37189e-31 10.6041 5.0581e-15 -1.25319e-14 0.099563 -4.29059e-17 -1.18676e-16)
(0 0 6.45518e-31 10.6041 -3.09046e-15 -4.49312e-15 0.099563 -2.12378e-16 -3.61341e-16)
(-1.76423e-16 1.79151e-29 1.14302e-30 10.599 5.34699e-15 -1.27464e-14 0.100963 -5.14751e-17 -1.22492e-16)
(0 -1.52704e-29 -9.54398e-31 10.599 -3.12522e-15 -4.53162e-15 0.100963 -2.21047e-16 -3.68331e-16)
(-1.83232e-16 1.51866e-29 1.1325e-30 10.594 5.29942e-15 -1.29659e-14 0.102383 -4.96679e-17 -1.26397e-16)
(-7.32928e-16 -7.52576e-30 -3.13573e-31 10.594 -3.13397e-15 -4.57123e-15 0.102383 -2.29561e-16 -3.75304e-16)
(1.90136e-16 -7.58733e-30 -8.13216e-31 10.5891 5.4293e-15 -1.31897e-14 0.103824 -5.20632e-17 -1.30468e-16)
(0 4.94526e-30 6.18158e-31 10.5891 -3.07027e-15 -4.61231e-15 0.103824 -2.38266e-16 -3.82293e-16)
(1.97137e-16 -1.72637e-29 -1.1124e-30 10.5843 5.3113e-15 -1.34208e-14 0.105286 -5.36704e-17 -1.34698e-16)
(0 1.46231e-29 9.13947e-31 10.5843 -2.87867e-15 -4.65099e-15 0.105286 -2.4698e-16 -3.89254e-16)
(-5.42325e-16 9.84639e-30 8.02544e-31 10.5796 5.05941e-15 -1.36552e-14 0.10677 -5.12402e-17 -1.39022e-16)
(0 -4.80452e-30 0 10.5796 -2.86661e-15 -4.69484e-15 0.10677 -2.55499e-16 -3.96193e-16)
(0 1.18391e-29 8.87936e-31 10.575 4.94235e-15 -1.38984e-14 0.108276 -5.01571e-17 -1.43626e-16)
(0 -1.4207e-29 -8.87936e-31 10.575 -2.99105e-15 -4.73092e-15 0.108276 -2.6408e-16 -4.03118e-16)
(-2.18738e-16 2.63716e-30 7.92879e-31 10.5705 4.86141e-15 -1.41481e-14 0.109805 -5.03437e-17 -1.48283e-16)
(8.74952e-16 4.66779e-30 0 10.5705 -2.74013e-15 -4.76189e-15 0.109805 -2.73043e-16 -4.09956e-16)
(0 -1.15022e-29 -1.72533e-30 10.5662 4.83626e-15 -1.4403e-14 0.111356 -4.99444e-17 -1.53206e-16)
(9.04567e-16 1.15022e-29 1.72533e-30 10.5662 -2.57213e-15 -4.7971e-15 0.111356 -2.81862e-16 -4.1677e-16)
(2.3365e-16 1.32378e-29 3.49482e-31 10.562 4.83523e-15 -1.46639e-14 0.112931 -5.12882e-17 -1.58207e-16)
(-9.34601e-16 -2.04072e-29 -8.50302e-31 10.562 -2.69798e-15 -4.83209e-15 0.112931 -2.91266e-16 -4.23523e-16)
(2.41265e-16 -1.38082e-29 -5.0144e-31 10.5579 4.79708e-15 -1.47726e-14 0.11453 -5.13855e-17 -1.60054e-16)
(0 1.11749e-29 2.79372e-31 10.5579 -2.66273e-15 -4.86748e-15 0.11453 -2.99986e-16 -4.30215e-16)
(-2.48986e-16 -1.77392e-30 -1.32592e-28 10.554 4.83099e-15 -2.85394e-15 0.116153 -5.19627e-17 -1.55942e-17)
(0 8.81176e-30 5.50735e-31 10.554 -2.66068e-15 -4.90462e-15 0.116153 -3.09256e-16 -4.36843e-16)
(2.56817e-16 8.22644e-30 2.95694e-31 10.5502 4.83671e-15 -1.39561e-15 0.117801 -5.36372e-17 -1.53506e-17)
(1.02727e-15 -8.68546e-30 -5.42841e-31 10.5502 -2.63938e-15 -4.93919e-15 0.117801 -3.1817e-16 -4.43404e-16)
(3.01213e-16 -1.07012e-29 -5.35061e-31 10.5466 4.70844e-15 -1.35365e-15 0.119474 -5.36127e-17 -1.51001e-17)
(1.05904e-15 1.07012e-29 5.35061e-31 10.5466 -2.66958e-15 -4.96996e-15 0.119474 -3.2683e-16 -4.49845e-16)
(-2.72814e-16 6.84709e-30 7.74558e-31 10.5432 4.64349e-15 -1.31627e-15 0.121172 -5.23018e-17 -1.4941e-17)
(0 0 0 10.5432 -2.8164e-15 -5.00101e-15 0.121172 -3.3698e-16 -4.56186e-16)
(-2.80983e-16 2.62643e-30 7.66991e-31 10.5399 4.75025e-15 -1.28526e-15 0.122897 -5.36899e-17 -1.48192e-17)
(0 4.15867e-30 0 10.5399 -2.79864e-15 -5.03266e-15 0.122897 -3.47026e-16 -4.6238e-16)
(2.88446e-16 -4.09906e-30 -1.02477e-30 10.5367 4.82589e-15 -1.25571e-15 0.124648 -5.63239e-17 -1.46794e-17)
(-2.88446e-16 4.09906e-30 1.02477e-30 10.5367 -2.65479e-15 -5.05861e-15 0.124648 -3.56695e-16 -4.68433e-16)
(-5.81981e-16 2.62341e-30 7.52177e-31 10.5338 5.00502e-15 -1.22964e-15 0.126426 -5.70527e-17 -1.46275e-17)
(0 8.08063e-30 5.05039e-31 10.5338 -2.78535e-15 -5.08405e-15 0.126426 -3.66983e-16 -4.74295e-16)
(-2.80237e-16 1.9912e-29 1.4934e-30 10.5309 5.10159e-15 -1.21549e-15 0.128231 -6.22743e-17 -1.47646e-17)
(-1.22477e-15 -1.59296e-29 -1.4934e-30 10.5309 -2.82872e-15 -5.10489e-15 0.128231 -3.78459e-16 -4.80042e-16)
(-3.14835e-16 -9.15626e-30 -7.34232e-31 10.5283 4.88053e-15 -1.20094e-15 0.130063 -6.10759e-17 -1.46966e-17)
(9.83121e-16 1.1776e-29 1.472e-30 10.5283 -2.63237e-15 -5.13651e-15 0.130063 -3.89219e-16 -4.85549e-16)
(-5.44523e-16 1.54763e-29 1.4509e-30 10.5257 4.69607e-15 -1.20116e-15 0.131923 -5.8636e-17 -1.52026e-17)
(5.44523e-16 -1.54763e-29 -1.4509e-30 10.5257 -2.76383e-15 -5.17253e-15 0.131923 -3.99525e-16 -4.90996e-16)
(-3.32494e-16 1.4058e-29 7.23702e-31 10.5233 4.45023e-15 -1.21644e-15 0.133812 -5.82407e-17 -1.55157e-17)
(1.32998e-15 -1.14408e-29 -4.76702e-31 10.5233 -2.48413e-15 -5.19373e-15 0.133812 -4.09325e-16 -4.9615e-16)
(6.83026e-16 -8.99177e-30 -9.63855e-31 10.5211 4.26246e-15 -1.22392e-15 0.135729 -5.4101e-17 -1.58409e-17)
(1.36605e-15 3.75895e-30 4.69869e-31 10.5211 -2.34524e-15 -5.21428e-15 0.135729 -4.17618e-16 -5.01086e-16)
(0 -3.70508e-30 -4.63135e-31 10.5189 4.30511e-15 -1.22765e-15 0.137675 -5.51014e-17 -1.60678e-17)
(0 3.70508e-30 9.2627e-31 10.5189 -2.72931e-15 -5.22447e-15 0.137675 -4.2858e-16 -5.05735e-16)
(-3.5994e-16 -1.03876e-30 -2.09469e-31 10.5168 4.52725e-15 -1.23602e-15 0.139649 -5.68025e-17 -1.65274e-17)
(0 7.30395e-30 9.12994e-31 10.5168 -2.73827e-15 -5.24956e-15 0.139649 -4.40767e-16 -5.10119e-16)
(-7.38704e-16 1.24207e-29 1.39395e-30 10.5147 4.79088e-15 -1.26206e-15 0.141653 -6.26154e-17 -1.72401e-17)
(1.47741e-15 -1.07989e-29 -8.99908e-31 10.5147 -2.8946e-15 -5.28908e-15 0.141653 -4.52456e-16 -5.14272e-16)
(-3.78899e-16 2.60862e-30 2.47071e-31 10.5127 4.87013e-15 -1.29063e-15 0.143686 -6.55703e-17 -1.77924e-17)
(0 3.54804e-30 8.8701e-31 10.5127 -2.88856e-15 -5.31276e-15 0.143686 -4.66234e-16 -5.18091e-16)
(1.03602e-16 2.60675e-30 2.47131e-31 10.5108 4.86803e-15 -1.31614e-15 0.145747 -6.66163e-17 -1.84529e-17)
(1.06215e-15 3.49719e-30 4.37149e-31 10.5108 -2.37747e-15 -5.31663e-15 0.145747 -4.78035e-16 -5.21617e-16)
(-3.98406e-16 1.2946e-29 6.78103e-31 10.5087 4.92273e-15 -1.34452e-15 0.147838 -6.74329e-17 -1.9112e-17)
(-4.85131e-16 -3.44706e-30 0 10.5087 -2.6148e-15 -5.31406e-15 0.147838 -4.87284e-16 -5.24791e-16)
(-8.16741e-16 2.21935e-29 1.34398e-30 10.5067 5.06304e-15 -1.38529e-15 0.149957 -7.01067e-17 -2.01575e-17)
(-1.63348e-15 -1.69883e-29 -8.49415e-31 10.5067 -2.82601e-15 -5.33119e-15 0.149957 -5.01204e-16 -5.27581e-16)
(-8.36956e-16 -8.19548e-30 -3.42558e-31 10.5045 4.90394e-15 -1.45339e-15 0.152105 -7.34138e-17 -2.16441e-17)
(3.34782e-15 1.00469e-29 8.37241e-31 10.5045 -2.4979e-15 -5.34565e-15 0.152105 -5.13704e-16 -5.30061e-16)
(-2.21533e-15 2.76037e-29 2.39301e-30 10.5021 4.41215e-15 -1.5222e-15 0.154281 -6.75524e-17 -2.27701e-17)
(-7.85783e-16 -1.98058e-29 -1.65048e-30 10.5021 -2.32838e-15 -5.32566e-15 0.154281 -5.26309e-16 -5.32105e-16)
(-8.97041e-16 -1.36693e-29 -1.58954e-31 10.4996 4.12042e-15 -1.57199e-15 0.156485 -6.11134e-17 -2.37623e-17)
(1.75652e-15 1.62683e-29 1.22012e-30 10.4996 -1.91728e-15 -5.31061e-15 0.156485 -5.4003e-16 -5.33552e-16)
(4.49679e-16 -5.80469e-30 -6.48918e-31 10.4968 3.8971e-15 -1.61916e-15 0.158716 -6.08343e-17 -2.48637e-17)
(0 3.20702e-30 4.00877e-31 10.4968 -1.84595e-15 -5.29762e-15 0.158716 -5.4913e-16 -5.34711e-16)
(0 -1.89663e-29 -1.1854e-30 10.4936 3.73881e-15 -1.66923e-15 0.160972 -5.61493e-17 -2.5995e-17)
(1.84151e-15 1.89663e-29 1.1854e-30 10.4936 -1.84009e-15 -5.29018e-15 0.160972 -5.59837e-16 -5.35295e-16)
(8.77005e-16 -6.2315e-30 -3.89468e-31 10.4901 3.98273e-15 -1.72347e-15 0.163254 -5.77592e-17 -2.72803e-17)
(1.88493e-15 6.2315e-30 3.89468e-31 10.4901 -1.65016e-15 -5.29708e-15 0.163254 -5.71188e-16 -5.3545e-16)
(-4.32218e-16 1.53555e-29 1.15166e-30 10.486 4.47209e-15 -1.78788e-15 0.16556 -6.53877e-17 -2.8791e-17)
(1.92896e-15 -9.21327e-30 -7.67773e-31 10.486 -1.84264e-15 -5.27589e-15 0.16556 -5.81509e-16 -5.3513e-16)
(0 1.21083e-29 1.13515e-30 10.4814 4.21363e-15 -1.84332e-15 0.167889 -7.49068e-17 -2.98557e-17)
(0 -1.21083e-29 -1.13515e-30 10.4814 -2.17854e-15 -5.24486e-15 0.167889 -5.92564e-16 -5.34198e-16)
(-1.00946e-15 8.16311e-30 5.00676e-31 10.4761 3.24666e-15 -1.87999e-15 0.170239 -5.90213e-17 -3.08266e-17)
(0 -2.98369e-30 0 10.4761 -1.9002e-15 -5.22273e-15 0.170239 -6.05322e-16 -5.32796e-16)
(8.27797e-16 -1.47046e-29 -1.10285e-30 10.4701 3.32557e-15 -1.91844e-15 0.172608 -4.5666e-17 -3.19985e-17)
(1.23705e-15 1.47046e-29 1.10285e-30 10.4701 -1.48687e-15 -5.21918e-15 0.172608 -6.15561e-16 -5.30892e-16)
(-8.15932e-16 8.69632e-30 3.62347e-31 10.4632 3.73282e-15 -2.00008e-15 0.174994 -6.33529e-17 -3.44613e-17)
(2.11143e-15 -2.89877e-30 0 10.4632 -1.81176e-15 -5.20117e-15 0.174994 -6.27518e-16 -5.28629e-16)
(-5.39667e-16 2.58539e-30 2.52295e-31 10.4553 3.50394e-15 -2.09353e-15 0.177396 -6.06306e-17 -3.61085e-17)
(0 2.85723e-30 0 10.4553 -2.07245e-15 -5.15875e-15 0.177396 -6.41375e-16 -5.25605e-16)
(-2.4107e-16 5.86464e-30 4.50974e-31 10.4463 3.22669e-15 -2.16593e-15 0.179809 -5.74389e-17 -3.79642e-17)
(0 -5.63255e-30 -7.04069e-31 10.4463 -2.01901e-15 -5.10888e-15 0.179809 -6.54857e-16 -5.21938e-16)
(0 -1.11036e-29 -6.93978e-31 10.436 3.00493e-15 -2.24054e-15 0.182233 -5.28579e-17 -3.97732e-17)
(0 8.32773e-30 6.93978e-31 10.436 -2.04183e-15 -5.03754e-15 0.182233 -6.66014e-16 -5.17529e-16)
(0 -5.47225e-30 0 10.4243 3.10835e-15 -2.31719e-15 0.184663 -5.13726e-17 -4.17938e-17)
(0 5.47225e-30 0 10.4243 -2.21056e-15 -4.97975e-15 0.184663 -6.78103e-16 -5.12194e-16)
(3.41094e-16 -2.93119e-30 -1.62381e-31 10.4111 3.35409e-15 -2.40881e-15 0.187097 -5.80727e-17 -4.42333e-17)
(-7.59113e-16 8.09073e-30 0 10.4111 -2.1521e-15 -4.93177e-15 0.187097 -6.94426e-16 -5.06164e-16)
(-6.0121e-16 5.23584e-30 2.56186e-31 10.3962 3.74331e-15 -2.67047e-15 0.189529 -6.17156e-17 -5.25657e-17)
(0 -2.65826e-30 0 10.3962 -1.98092e-15 -4.83597e-15 0.189529 -7.09137e-16 -4.99345e-16)
(6.14025e-16 -2.57399e-30 -2.39864e-31 10.3795 4.00605e-15 -6.37443e-15 0.191958 -7.39759e-17 -1.82648e-16)
(-3.19361e-15 0 0 10.3795 -1.9876e-15 -4.70145e-15 0.191958 -7.23426e-16 -4.91405e-16)
(0 -7.74781e-30 -6.45651e-31 10.3607 3.68141e-15 -9.89118e-15 0.194377 -7.32502e-17 -1.86187e-16)
(-2.50803e-15 7.74781e-30 6.45651e-31 10.3607 -1.35269e-15 -4.61833e-15 0.194377 -7.40304e-16 -4.82583e-16)
(-6.40162e-16 1.02083e-29 8.87749e-31 10.3398 3.41387e-15 -9.97687e-15 0.196783 -6.395e-17 -1.91263e-16)
(5.1213e-15 -2.54559e-30 -6.36397e-31 10.3398 -6.22385e-16 -4.56454e-15 0.196783 -7.49993e-16 -4.73608e-16)
(-5.2764e-17 4.95756e-30 9.97204e-31 10.3165 3.47895e-15 -1.00826e-14 0.19917 -6.52017e-17 -1.95726e-16)
(3.32019e-15 -1.25455e-29 -1.25455e-30 10.3165 -1.20874e-15 -6.82461e-15 0.19917 -7.55123e-16 -4.63747e-16)
(0 0 0 10.2907 3.18985e-15 -1.01488e-14 0.201534 -6.83391e-17 -1.99464e-16)
(0 2.47314e-30 6.18285e-31 10.2907 -1.49425e-15 -1.0656e-14 0.201534 -7.75981e-16 -4.75474e-16)
(5.51193e-18 -1.20593e-29 -3.47827e-31 10.2621 2.82996e-15 -1.01792e-14 0.203869 -5.57733e-17 -2.0267e-16)
(2.0364e-15 1.46262e-29 6.09424e-31 10.2621 -1.20777e-15 -1.21352e-14 0.203869 -7.88004e-16 -5.02551e-16)
(-6.94465e-16 9.77351e-30 8.6347e-31 10.2307 3.38243e-15 -1.01833e-14 0.206169 -5.60207e-17 -2.05473e-16)
(-4.13049e-15 -4.80551e-30 0 10.2307 -1.83516e-15 -1.20547e-14 0.206169 -7.95714e-16 -5.29268e-16)
(7.08457e-16 -9.66472e-30 -8.55936e-31 10.1962 4.02913e-15 -1.02072e-14 0.208428 -7.97098e-17 -2.09583e-16)
(2.83383e-15 7.10495e-30 5.9208e-31 10.1962 -1.93569e-15 -1.19822e-14 0.208428 -8.08589e-16 -5.56219e-16)
(-7.22613e-16 1.65631e-29 8.48535e-31 10.1585 3.96757e-15 -1.02719e-14 0.210642 -8.4148e-17 -2.14183e-16)
(2.89045e-15 -1.40062e-29 -5.83594e-31 10.1585 -1.97519e-15 -1.18719e-14 0.210642 -8.1468e-16 -5.8314e-16)
(-7.36929e-16 2.555e-30 2.66301e-31 10.1174 3.6158e-15 -1.03071e-14 0.212802 -7.94868e-17 -2.17204e-16)
(0 0 0 10.1174 -2.47526e-15 -1.17268e-14 0.212802 -8.33704e-16 -6.09421e-16)
(-7.51403e-16 2.5541e-30 2.67984e-31 10.0728 3.45681e-15 -1.02623e-14 0.214904 -7.17836e-17 -2.18543e-16)
(0 2.26794e-30 5.66985e-31 10.0728 -2.04025e-15 -1.16042e-14 0.214904 -8.51049e-16 -6.35438e-16)
(-7.66033e-16 -1.08612e-29 -8.48353e-31 10.0246 4.17884e-15 -1.02192e-14 0.216942 -7.50154e-17 -2.21697e-16)
(3.06413e-15 1.34126e-29 2.23543e-30 10.0246 -2.0611e-15 -1.1481e-14 0.216942 -8.59607e-16 -6.61851e-16)
(2.02121e-15 -9.15441e-30 -2.70944e-31 9.97252 4.74235e-15 -1.01943e-14 0.218908 -1.05216e-16 -2.23848e-16)
(-1.2404e-15 6.61018e-30 0 9.97252 -2.60567e-15 -1.12781e-14 0.218908 -8.76456e-16 -6.87615e-16)
(1.22262e-15 -6.51544e-30 -1.08591e-30 9.91658 3.92048e-15 -1.01147e-14 0.220798 -1.02019e-16 -2.24633e-16)
(-1.22262e-15 6.51544e-30 1.08591e-30 9.91658 -2.6535e-15 -1.10837e-14 0.220798 -8.92134e-16 -7.12639e-16)
(-8.10811e-16 4.04983e-31 2.74713e-31 9.85666 2.89932e-15 -1.00048e-14 0.222606 -7.15919e-17 -2.2543e-16)
(0 6.42206e-30 0 9.85666 -2.41466e-15 -1.09695e-14 0.222606 -9.07683e-16 -7.38159e-16)
(1.18783e-15 -2.321e-29 -1.055e-30 9.79269 2.77112e-15 -9.91613e-15 0.224326 -5.8738e-17 -2.27135e-16)
(6.60815e-15 2.321e-29 1.055e-30 9.79269 -1.45604e-15 -1.08113e-14 0.224326 -9.24201e-16 -7.64143e-16)
(0 0 1.03988e-30 9.72463 2.75733e-15 -9.85266e-15 0.225953 -6.77958e-17 -2.29073e-16)
(3.36543e-15 4.15952e-30 0 9.72463 -1.02585e-15 -1.05424e-14 0.225953 -9.31469e-16 -7.8915e-16)
(-2.01085e-15 1.89433e-29 1.30558e-30 9.65245 2.16913e-15 -9.70289e-15 0.227482 -5.98158e-17 -2.26702e-16)
(-3.4273e-15 -1.63996e-29 0 9.65245 -1.24926e-15 -1.02205e-14 0.227482 -9.40493e-16 -8.12747e-16)
(2.6507e-16 1.06273e-29 2.83211e-31 9.57616 1.63119e-15 -9.44183e-15 0.228909 -4.19499e-17 -2.23252e-16)
(-3.48965e-15 -8.08229e-30 0 9.57616 -1.2463e-15 -9.89317e-15 0.228909 -9.45748e-16 -8.35174e-16)
(0 7.96645e-30 0 9.49577 1.61544e-15 -9.21648e-15 0.23023 -3.57447e-17 -2.22368e-16)
(-1.12118e-15 -3.98323e-30 9.95806e-31 9.49577 -1.03407e-15 -9.54673e-15 0.23023 -9.4809e-16 -8.57587e-16)
(1.10511e-15 7.85227e-30 0 9.41134 2.35607e-15 -9.04975e-15 0.231443 -4.24116e-17 -2.21553e-16)
(2.51057e-15 -3.92614e-30 0 9.41134 -1.1851e-15 -9.17304e-15 0.231443 -9.50583e-16 -8.78798e-16)
(-1.69444e-16 2.06848e-29 2.61245e-30 9.32295 3.35412e-15 -8.86108e-15 0.232544 -7.33867e-17 -2.19424e-16)
(-1.08927e-15 -1.93493e-29 -9.67466e-31 9.32295 -2.02056e-15 -8.87956e-15 0.232544 -9.56866e-16 -8.98779e-16)
(0 -2.67008e-29 -1.9072e-30 9.23069 3.51476e-15 -8.70242e-15 0.233531 -9.36856e-17 -2.19974e-16)
(7.4866e-15 2.67008e-29 1.9072e-30 9.23069 -2.09932e-15 -8.60638e-15 0.233531 -9.73417e-16 -9.18465e-16)
(1.05827e-15 -7.51946e-30 -9.39932e-31 9.1347 2.8966e-15 -8.56907e-15 0.234403 -8.37062e-17 -2.18971e-16)
(7.61527e-15 7.51946e-30 9.39932e-31 9.1347 -2.81746e-15 -8.22717e-15 0.234403 -9.77451e-16 -9.36628e-16)
(-1.93614e-15 5.05364e-30 5.94051e-31 9.03511 2.77715e-15 -8.37568e-15 0.235159 -6.45344e-17 -2.16294e-16)
(0 0 0 9.03511 -3.13142e-15 -7.83044e-15 0.235159 -9.92924e-16 -9.52627e-16)
(-9.84297e-16 2.52112e-30 2.99782e-31 8.93211 3.46474e-15 -8.15303e-15 0.235799 -7.99051e-17 -2.13561e-16)
(7.87438e-15 3.65273e-30 0 8.93211 -1.73659e-15 -7.46522e-15 0.235799 -1.00732e-15 -9.67339e-16)
(-1.28295e-17 -9.71461e-30 -3.02682e-31 8.82587 3.2703e-15 -7.91323e-15 0.236323 -1.02942e-16 -2.0971e-16)
(1.01342e-15 7.20075e-30 0 8.82587 -1.69023e-15 -7.04202e-15 0.236323 -1.00571e-15 -9.81234e-16)
(-1.01693e-15 2.51571e-30 3.06004e-31 8.71661 1.92434e-15 -7.59483e-15 0.236733 -7.17692e-17 -2.02412e-16)
(0 3.54877e-30 0 8.71661 -1.51946e-15 -6.63239e-15 0.236733 -1.01781e-15 -9.90817e-16)
(-1.03331e-15 6.01804e-30 1.18374e-30 8.60454 1.46347e-15 -7.22284e-15 0.23703 -3.23808e-17 -1.95222e-16)
(4.13325e-15 -3.49791e-30 -8.74477e-31 8.60454 -3.28032e-16 -6.31431e-15 0.23703 -1.02687e-15 -9.96194e-16)
(-1.04973e-15 9.41193e-30 1.17388e-30 8.4899 1.98605e-15 -6.92358e-15 0.237217 -4.83122e-17 -1.91503e-16)
(3.22847e-15 -3.44778e-30 8.61944e-31 8.4899 -5.1907e-16 -6.01804e-15 0.237217 -1.02243e-15 -1.00132e-15)
(-2.13237e-15 5.02554e-30 6.29251e-31 8.37292 2.2679e-15 -6.67889e-15 0.237296 -6.27328e-17 -1.86973e-16)
(0 0 0 8.37292 -1.30608e-15 -5.67122e-15 0.237296 -1.03034e-15 -1.00579e-15)
(-1.08265e-15 1.25592e-29 1.99289e-30 8.25387 2.59115e-15 -6.32964e-15 0.237271 -6.58169e-17 -1.76886e-16)
(-9.42844e-16 -6.69931e-30 8.37413e-31 8.25387 -1.74272e-15 -5.29746e-15 0.237271 -1.04679e-15 -1.00824e-15)
(0 -9.90493e-30 -8.25411e-31 8.13298 2.43554e-15 -5.98612e-15 0.237145 -8.32911e-17 -1.72266e-16)
(-4.39654e-15 9.90493e-30 8.25411e-31 8.13298 -1.14059e-15 -4.93706e-15 0.237145 -1.06165e-15 -1.01023e-15)
(1.11562e-15 -9.01453e-30 -3.23518e-31 8.01053 1.17492e-15 -5.69975e-15 0.236922 -5.86016e-17 -1.64997e-16)
(4.46248e-15 6.50865e-30 0 8.01053 -1.57719e-16 -4.58944e-15 0.236922 -1.06015e-15 -1.0114e-15)
(1.1321e-15 -1.21353e-29 -1.12855e-30 7.88676 3.29509e-16 -5.33974e-15 0.236606 -1.05844e-17 -1.55539e-16)
(-4.52842e-15 9.62304e-30 8.0192e-31 7.88676 -2.87224e-16 -4.21575e-15 0.236606 -1.06195e-15 -1.01195e-15)
(6.31304e-16 4.84833e-30 1.12014e-30 7.76193 6.03449e-16 -4.93994e-15 0.236203 -9.18966e-18 -1.45299e-16)
(2.81443e-15 -3.16171e-30 0 7.76193 -5.62701e-16 -3.81642e-15 0.236203 -1.05494e-15 -1.01116e-15)
(0 6.23278e-30 0 7.63628 1.83531e-15 -4.63963e-15 0.235716 -4.11245e-17 -1.41402e-16)
(0 -3.11639e-30 0 7.63628 -3.49665e-16 -3.42158e-15 0.235716 -1.05251e-15 -1.00841e-15)
(0 1.22869e-29 3.07172e-30 7.51007 2.35519e-15 -4.4155e-15 0.235151 -7.25241e-17 -1.35401e-16)
(4.72588e-15 -6.14345e-30 0 7.51007 4.02392e-17 -3.13785e-15 0.235151 -1.05806e-15 -1.00546e-15)
(1.19788e-15 -1.15793e-29 -3.36531e-31 7.38351 2.17538e-15 -4.14025e-15 0.234512 -7.51622e-17 -1.27907e-16)
(0 9.0831e-30 0 7.38351 -1.10636e-15 -2.80818e-15 0.234512 -1.05249e-15 -1.0031e-15)
(0 2.9843e-30 1.49215e-30 7.25683 2.14814e-15 -3.87137e-15 0.233805 -6.31273e-17 -1.2189e-16)
(-4.85698e-15 -2.9843e-30 0 7.25683 -1.97426e-15 -2.40773e-15 0.233805 -1.07919e-15 -9.98331e-16)
(-1.65593e-15 2.94153e-30 0 7.13026 2.75535e-15 -3.6139e-15 0.233034 -7.55938e-17 -1.14674e-16)
(0 2.94153e-30 0 7.13026 -1.16221e-15 -2.12646e-15 0.233034 -1.09803e-15 -9.94179e-16)
(0 8.69812e-30 0 7.00398 2.79031e-15 -3.32398e-15 0.232205 -1.05021e-16 -1.06062e-16)
(-1.6322e-15 -5.79874e-30 0 7.00398 -1.30974e-15 -1.87025e-15 0.232205 -1.10867e-15 -9.8914e-16)
(1.2631e-15 1.46612e-29 1.08382e-30 6.87819 2.30237e-15 -3.05319e-15 0.231321 -8.01475e-17 -9.96515e-17)
(0 -1.71469e-29 -1.42891e-30 6.87819 -2.35873e-15 -1.5927e-15 0.231321 -1.12257e-15 -9.84972e-16)
(1.27928e-15 5.96699e-30 1.06189e-30 6.75306 2.59395e-15 -2.83408e-15 0.230389 -7.49759e-17 -9.40791e-17)
(0 -5.63371e-30 0 6.75306 -2.85125e-15 -1.38859e-15 0.230389 -1.13873e-15 -9.79623e-16)
(-2.5908e-15 4.95256e-30 6.93785e-31 6.62876 2.79816e-15 -2.74038e-15 0.229413 -1.02576e-16 -9.60236e-17)
(5.1816e-15 0 0 6.62876 -2.90452e-15 -1.26656e-15 0.229413 -1.15585e-15 -9.74652e-16)
(-1.31146e-15 2.47534e-30 3.48085e-31 6.50543 2.70575e-15 -2.69632e-15 0.228396 -9.14408e-17 -9.3712e-17)
(0 5.47338e-30 1.36834e-30 6.50543 -2.97122e-15 -1.07357e-15 0.228396 -1.16585e-15 -9.6845e-16)
(0 2.69747e-30 0 6.38322 3.12209e-15 -2.49507e-15 0.227344 -9.90295e-17 -8.4363e-17)
(-1.51854e-15 -2.69747e-30 0 6.38322 -2.72012e-15 -8.46835e-16 0.227344 -1.18645e-15 -9.58691e-16)
(1.49677e-15 7.97641e-30 0 6.26225 3.66828e-15 -2.2961e-15 0.22626 -1.24061e-16 -8.19393e-17)
(-1.49677e-15 -5.31761e-30 1.3294e-30 6.26225 -2.50319e-15 -5.74968e-16 0.22626 -1.20445e-15 -9.48997e-16)
(0 1.04828e-29 2.6207e-30 6.14263 4.20421e-15 -2.09843e-15 0.225149 -1.41782e-16 -7.22021e-17)
(-1.47532e-15 -5.24139e-30 1.31035e-30 6.14263 -2.3312e-15 -5.49119e-16 0.225149 -1.23157e-15 -9.37917e-16)
(0 7.74941e-30 0 6.02446 4.0633e-15 -1.99393e-15 0.224013 -1.67367e-16 -7.64922e-17)
(9.54593e-15 -5.16627e-30 0 6.02446 -2.36762e-15 -6.43164e-16 0.224013 -1.26867e-15 -9.31842e-16)
(-2.78143e-15 4.89084e-30 7.06916e-31 5.90782 3.72751e-15 -2.03218e-15 0.222857 -1.35353e-16 -7.72313e-17)
(5.56287e-15 0 0 5.90782 -3.18749e-15 -5.4593e-16 0.222857 -1.27965e-15 -9.25327e-16)
(1.40634e-15 -9.96851e-30 -1.60926e-30 5.7928 4.23055e-15 -1.94708e-15 0.221684 -1.46686e-16 -7.21548e-17)
(0 7.52886e-30 0 5.7928 -4.65441e-15 -3.23067e-16 0.221684 -1.30565e-15 -9.17387e-16)
(0 4.9473e-30 0 5.67945 4.6448e-15 -1.75433e-15 0.220497 -1.78202e-16 -6.4377e-17)
(-8.47265e-15 0 1.23683e-30 5.67945 -5.02975e-15 -2.69195e-16 0.220497 -1.35609e-15 -9.07838e-16)
(-2.80994e-15 -9.76579e-30 -8.64277e-31 5.56785 4.71971e-15 -1.7322e-15 0.219298 -1.83469e-16 -7.25081e-17)
(7.12201e-15 1.70674e-29 1.2191e-30 5.56785 -3.52331e-15 -2.45482e-16 0.219298 -1.39008e-15 -9.02702e-16)
(0 7.20975e-30 0 5.45802 4.45736e-15 -1.64739e-15 0.218091 -1.89383e-16 -5.94169e-17)
(0 -4.8065e-30 0 5.45802 -3.55882e-15 -1.06898e-16 0.218091 -1.41428e-15 -8.94088e-16)
(0 -2.36881e-30 -1.1844e-30 5.35002 4.342e-15 -1.4999e-15 0.216877 -1.67666e-16 -6.25532e-17)
(0 7.10642e-30 0 5.35002 -5.68411e-15 -2.77459e-17 0.216877 -1.45564e-15 -8.88821e-16)
(-1.48326e-15 2.40526e-30 3.56087e-31 5.24387 4.12533e-15 -1.49497e-15 0.21566 -1.85483e-16 -6.07479e-17)
(0 0 0 5.24387 -5.11263e-15 -1.03483e-16 0.21566 -1.52769e-15 -8.83494e-16)
(-1.70122e-15 -1.82096e-29 -3.89373e-30 5.13959 4.13939e-15 -1.55447e-15 0.21444 -1.54576e-16 -6.9401e-17)
(1.19872e-14 2.30139e-29 2.30139e-30 5.13959 -3.55523e-15 -3.38903e-17 0.21444 -1.56883e-15 -8.812e-16)
(0 4.53681e-30 1.1342e-30 5.0372 5.60552e-15 -1.6013e-15 0.213221 -1.92102e-16 -6.6532e-17)
(0 0 0 5.0372 -4.98796e-15 4.06859e-16 0.213221 -1.60602e-15 -8.71721e-16)
(-1.2587e-15 1.11795e-29 2.23589e-30 4.93671 5.52442e-15 -1.41939e-15 0.212003 -2.84487e-16 -5.5651e-17)
(0 -4.47179e-30 1.11795e-30 4.93671 -4.86302e-15 3.42139e-16 0.212003 -1.68223e-15 -8.61317e-16)
(-4.62986e-15 -1.27189e-29 -1.13894e-30 4.83813 3.7527e-15 -1.3486e-15 0.210789 -1.90693e-16 -6.22501e-17)
(1.23463e-14 2.42423e-29 2.20385e-30 4.83813 -2.88908e-15 -2.21392e-17 0.210789 -1.73097e-15 -8.63065e-16)
(0 -1.95504e-29 -2.17226e-30 4.74144 3.66016e-15 -1.39812e-15 0.209579 -1.36865e-16 -6.17036e-17)
(1.24647e-14 1.95504e-29 2.17226e-30 4.74144 -3.87091e-15 1.89194e-16 0.209579 -1.73826e-15 -8.6163e-16)
(-1.57279e-15 1.30721e-29 3.56461e-31 4.64666 3.82838e-15 -1.22454e-15 0.208376 -1.88015e-16 -4.83465e-17)
(-2.41069e-15 -6.42338e-30 0 4.64666 -4.55513e-15 4.45296e-16 0.208376 -1.77482e-15 -8.5238e-16)
(1.58742e-15 -2.13615e-29 -2.46708e-30 4.55376 4.10762e-15 -1.07065e-15 0.207179 -1.56115e-16 -4.93654e-17)
(1.26993e-14 1.8994e-29 2.11044e-30 4.55376 -4.08321e-15 1.78151e-16 0.207179 -1.80603e-15 -8.48144e-16)