/*--------------------------------*- C++ -*----------------------------------*\
| =========                 |                                                 |
| \\      /  F ield         | OpenFOAM: The Open Source CFD Toolbox           |
|  \\    /   O peration     | Version:  2012                                  |
|   \\  /    A nd           | Website:  www.openfoam.com                      |
|    \\/     M anipulation  |                                                 |
\*---------------------------------------------------------------------------*/
FoamFile
{
    version     2.0;
    format      ascii;
    class       volScalarField;
    location    "8000";
    object      p;
}
// * * * * * * * * * * * * * * * * * * * * * * * * * * * * * * * * * * * * * //

dimensions      [0 2 -2 0 0 0 0];


internalField   nonuniform List<scalar> 
2560
(
6.28168e-15
4.80035e-14
1.41366e-14
4.80048e-14
1.61753e-14
4.80068e-14
1.65886e-14
4.80103e-14
1.71054e-14
4.80153e-14
1.77992e-14
4.80218e-14
1.84973e-14
4.80298e-14
1.91665e-14
4.80393e-14
1.98195e-14
4.80502e-14
2.04609e-14
4.80627e-14
2.10902e-14
4.80766e-14
2.17075e-14
4.8092e-14
2.23133e-14
4.81088e-14
2.29077e-14
4.8127e-14
2.3491e-14
4.81465e-14
2.40631e-14
4.81674e-14
2.46244e-14
4.81897e-14
2.51748e-14
4.82133e-14
2.57146e-14
4.82382e-14
2.62439e-14
4.82643e-14
2.67628e-14
4.82917e-14
2.72713e-14
4.83205e-14
2.77698e-14
4.83505e-14
2.82584e-14
4.83816e-14
2.8737e-14
4.8414e-14
2.92059e-14
4.84475e-14
2.9665e-14
4.84822e-14
3.01149e-14
4.85182e-14
3.05554e-14
4.85554e-14
3.09867e-14
4.85938e-14
3.14088e-14
4.86331e-14
3.18218e-14
4.86735e-14
3.22259e-14
4.87151e-14
3.26213e-14
4.87578e-14
3.30082e-14
4.88017e-14
3.33864e-14
4.88466e-14
3.37562e-14
4.88925e-14
3.41177e-14
4.89395e-14
3.44711e-14
4.89875e-14
3.48165e-14
4.90362e-14
3.51541e-14
4.90861e-14
3.5484e-14
4.91368e-14
3.58063e-14
4.91885e-14
3.61212e-14
4.92409e-14
3.64288e-14
4.9294e-14
3.6729e-14
4.93478e-14
3.7022e-14
4.94026e-14
3.73081e-14
4.94583e-14
3.75872e-14
4.95147e-14
3.78594e-14
4.95718e-14
3.81251e-14
4.96297e-14
3.8384e-14
4.96881e-14
3.86361e-14
4.97472e-14
3.88821e-14
4.98067e-14
3.91215e-14
4.98672e-14
3.93546e-14
4.99284e-14
3.95819e-14
4.99901e-14
3.98036e-14
5.00522e-14
4.00195e-14
5.01146e-14
4.02291e-14
5.01781e-14
4.0433e-14
5.02421e-14
4.06317e-14
5.03065e-14
4.08249e-14
5.0371e-14
4.10124e-14
5.04359e-14
4.11947e-14
5.05014e-14
4.13717e-14
5.05674e-14
4.15437e-14
5.06331e-14
4.17111e-14
5.06989e-14
4.1874e-14
5.07649e-14
4.20328e-14
5.08311e-14
4.21863e-14
5.08974e-14
4.23354e-14
5.09634e-14
4.24806e-14
5.10292e-14
4.26219e-14
5.1095e-14
4.27588e-14
5.11613e-14
4.2892e-14
5.12275e-14
4.30209e-14
5.12938e-14
4.31466e-14
5.13602e-14
4.32687e-14
5.14268e-14
4.33874e-14
5.14938e-14
4.35023e-14
5.15611e-14
4.36136e-14
5.16276e-14
4.37224e-14
5.1693e-14
4.38277e-14
5.17586e-14
4.39299e-14
5.18245e-14
4.40294e-14
5.18899e-14
4.41264e-14
5.19548e-14
4.42204e-14
5.20187e-14
4.43119e-14
5.20826e-14
4.44005e-14
5.21469e-14
4.44863e-14
5.22108e-14
4.45699e-14
5.22737e-14
4.4651e-14
5.23366e-14
4.47295e-14
5.23992e-14
4.48063e-14
5.24604e-14
4.48806e-14
5.25216e-14
4.49539e-14
5.25835e-14
4.5025e-14
5.26456e-14
4.50943e-14
5.27068e-14
4.5163e-14
5.27665e-14
4.52308e-14
5.28262e-14
4.52976e-14
5.28858e-14
4.53623e-14
5.29446e-14
4.54258e-14
5.30046e-14
4.54888e-14
5.30653e-14
4.55507e-14
5.31255e-14
4.56113e-14
5.31855e-14
4.56715e-14
5.32449e-14
4.57317e-14
5.33024e-14
4.57921e-14
5.33593e-14
4.58528e-14
5.34156e-14
4.59125e-14
5.34719e-14
4.59722e-14
5.3526e-14
4.6032e-14
5.35792e-14
4.60916e-14
5.3632e-14
4.61527e-14
5.36837e-14
4.62143e-14
5.37337e-14
4.62771e-14
5.37829e-14
4.63379e-14
5.38314e-14
4.64006e-14
5.388e-14
4.64651e-14
5.39266e-14
4.65282e-14
5.39729e-14
4.65928e-14
5.40173e-14
4.6659e-14
5.40623e-14
4.67266e-14
5.41065e-14
4.67941e-14
5.41524e-14
4.6862e-14
5.41994e-14
4.6931e-14
5.4245e-14
4.7002e-14
5.42894e-14
4.70716e-14
5.43319e-14
4.71428e-14
5.43768e-14
4.72141e-14
5.44241e-14
4.72868e-14
5.44707e-14
4.7361e-14
5.45141e-14
4.74331e-14
5.45612e-14
4.75073e-14
5.46054e-14
4.75825e-14
5.46502e-14
4.76561e-14
5.46957e-14
4.77323e-14
5.47464e-14
4.781e-14
5.47938e-14
4.78839e-14
5.4836e-14
4.79591e-14
5.48831e-14
4.80355e-14
5.49335e-14
4.81147e-14
5.49763e-14
4.81929e-14
5.50208e-14
4.82701e-14
5.5071e-14
4.83459e-14
5.51195e-14
4.84258e-14
5.51646e-14
4.85041e-14
5.52065e-14
4.85823e-14
5.5249e-14
4.86604e-14
5.52904e-14
4.87419e-14
5.53347e-14
4.88248e-14
5.53821e-14
4.89069e-14
5.5427e-14
4.89822e-14
5.54695e-14
4.90641e-14
5.55058e-14
4.91525e-14
5.5542e-14
4.92432e-14
5.55882e-14
4.93422e-14
5.56347e-14
4.94432e-14
5.56675e-14
4.95462e-14
5.56967e-14
4.96488e-14
5.57266e-14
4.97572e-14
5.57573e-14
4.98753e-14
5.57848e-14
4.99885e-14
5.58091e-14
5.01092e-14
5.58304e-14
5.02332e-14
5.58508e-14
5.0352e-14
5.58702e-14
5.04717e-14
5.5891e-14
5.05902e-14
5.59131e-14
5.07116e-14
5.59389e-14
5.08401e-14
5.59662e-14
5.09671e-14
5.59865e-14
5.10924e-14
5.60085e-14
5.1216e-14
5.60322e-14
5.13379e-14
5.6049e-14
5.14536e-14
5.6072e-14
5.1576e-14
5.60924e-14
5.16876e-14
5.61323e-14
5.17971e-14
5.61787e-14
5.19174e-14
5.62097e-14
5.20352e-14
5.62475e-14
5.2146e-14
5.62832e-14
5.2263e-14
5.63305e-14
5.23726e-14
5.63806e-14
5.24837e-14
5.64247e-14
5.25961e-14
5.6463e-14
5.26961e-14
5.6509e-14
5.27971e-14
5.6554e-14
5.28987e-14
5.66073e-14
5.29963e-14
5.666e-14
5.30942e-14
5.67033e-14
5.3192e-14
5.67374e-14
5.32942e-14
5.67807e-14
5.33916e-14
5.68333e-14
5.34929e-14
5.68544e-14
5.35935e-14
5.68852e-14
5.36887e-14
5.69397e-14
5.37965e-14
5.69768e-14
5.39031e-14
5.69966e-14
5.40083e-14
5.70314e-14
5.40983e-14
5.70676e-14
5.41911e-14
5.71006e-14
5.42776e-14
5.71306e-14
5.4362e-14
5.71671e-14
5.44442e-14
5.72103e-14
5.45237e-14
5.72606e-14
5.46001e-14
5.7295e-14
5.46731e-14
5.73325e-14
5.47423e-14
5.73828e-14
5.4807e-14
5.74276e-14
5.48669e-14
5.74581e-14
5.49308e-14
5.74838e-14
5.5017e-14
5.7505e-14
5.50973e-14
5.755e-14
5.51806e-14
5.76096e-14
5.52572e-14
5.76563e-14
5.53268e-14
5.76903e-14
5.53983e-14
5.774e-14
5.54711e-14
5.77964e-14
5.55447e-14
5.78413e-14
5.56279e-14
5.78659e-14
5.5702e-14
5.79074e-14
5.5776e-14
5.7957e-14
5.584e-14
5.79871e-14
5.58934e-14
5.7998e-14
5.59547e-14
5.80178e-14
5.60235e-14
5.8028e-14
5.60998e-14
5.80471e-14
5.61556e-14
5.80473e-14
5.62092e-14
5.80377e-14
5.62606e-14
5.80366e-14
5.63371e-14
5.80533e-14
5.6411e-14
5.80505e-14
5.64734e-14
5.80277e-14
5.65522e-14
5.80208e-14
5.66202e-14
5.8029e-14
5.66866e-14
5.80242e-14
5.67516e-14
5.80056e-14
5.68156e-14
5.79994e-14
5.68972e-14
5.80045e-14
5.69605e-14
5.79925e-14
5.70424e-14
5.79802e-14
5.71167e-14
5.79931e-14
5.72016e-14
5.80029e-14
5.72979e-14
5.8026e-14
5.74061e-14
5.8043e-14
5.75103e-14
5.80339e-14
5.75587e-14
5.80316e-14
5.7623e-14
5.80345e-14
5.76856e-14
5.80581e-14
5.77652e-14
5.81186e-14
5.78085e-14
5.81621e-14
5.78679e-14
5.82059e-14
5.79082e-14
5.82486e-14
5.7928e-14
5.8255e-14
5.79794e-14
5.82596e-14
5.80101e-14
5.83129e-14
5.80707e-14
5.83626e-14
5.81092e-14
5.83735e-14
5.81435e-14
5.84131e-14
5.81892e-14
5.84125e-14
5.82127e-14
5.84045e-14
5.82656e-14
5.84224e-14
5.83313e-14
5.84642e-14
5.84274e-14
5.84945e-14
5.84217e-14
5.8494e-14
5.84641e-14
5.85126e-14
5.85541e-14
5.85484e-14
5.85775e-14
5.86156e-14
5.85979e-14
5.86663e-14
5.86127e-14
5.86689e-14
5.86543e-14
5.86552e-14
5.87404e-14
5.87032e-14
5.8824e-14
5.881e-14
5.88721e-14
5.88793e-14
5.89158e-14
5.88961e-14
5.89397e-14
5.89059e-14
5.89756e-14
5.89384e-14
5.8991e-14
5.90236e-14
5.90763e-14
5.90859e-14
5.91236e-14
5.90787e-14
5.91513e-14
5.9061e-14
5.91609e-14
5.90742e-14
5.91973e-14
5.91166e-14
5.91844e-14
5.91869e-14
5.9117e-14
5.91707e-14
5.9139e-14
5.91303e-14
5.9163e-14
5.91499e-14
5.91617e-14
5.91707e-14
5.91641e-14
5.91656e-14
5.91404e-14
5.91349e-14
5.92048e-14
5.91048e-14
5.91378e-14
5.91221e-14
5.90734e-14
5.91351e-14
5.90879e-14
5.91229e-14
5.90987e-14
5.9112e-14
5.90241e-14
5.90721e-14
5.90479e-14
5.90872e-14
5.90124e-14
5.90488e-14
5.89965e-14
5.90348e-14
5.89681e-14
5.90713e-14
5.89732e-14
5.90888e-14
5.90132e-14
5.90647e-14
5.89673e-14
5.90425e-14
5.8983e-14
5.90261e-14
5.89648e-14
5.90122e-14
5.89376e-14
5.90015e-14
5.89219e-14
5.89974e-14
5.89123e-14
5.89545e-14
5.88686e-14
5.89171e-14
5.87912e-14
5.88615e-14
5.87688e-14
5.88145e-14
5.87371e-14
5.87968e-14
5.8668e-14
5.87641e-14
5.86243e-14
5.87239e-14
5.86023e-14
5.86999e-14
5.86279e-14
5.86956e-14
5.85754e-14
5.86652e-14
5.8577e-14
5.86353e-14
4.61306e-14
4.82605e-14
4.61313e-14
4.82606e-14
4.61323e-14
4.82608e-14
4.61342e-14
4.82612e-14
4.61367e-14
4.82617e-14
4.61401e-14
4.82624e-14
4.61442e-14
4.82633e-14
4.61491e-14
4.82643e-14
4.61548e-14
4.82656e-14
4.61612e-14
4.8267e-14
4.61684e-14
4.82687e-14
4.61763e-14
4.82705e-14
4.6185e-14
4.82725e-14
4.61944e-14
4.82748e-14
4.62044e-14
4.82772e-14
4.62153e-14
4.82799e-14
4.62268e-14
4.82828e-14
4.62391e-14
4.82858e-14
4.62522e-14
4.8289e-14
4.62659e-14
4.82923e-14
4.62804e-14
4.82959e-14
4.62955e-14
4.82997e-14
4.63113e-14
4.83038e-14
4.63278e-14
4.83081e-14
4.63451e-14
4.83124e-14
4.6363e-14
4.83169e-14
4.63814e-14
4.83217e-14
4.64006e-14
4.83267e-14
4.64204e-14
4.83321e-14
4.64409e-14
4.83375e-14
4.64619e-14
4.8343e-14
4.64835e-14
4.83488e-14
4.65057e-14
4.83551e-14
4.65286e-14
4.83616e-14
4.65521e-14
4.83683e-14
4.65761e-14
4.83754e-14
4.66007e-14
4.83826e-14
4.66259e-14
4.83901e-14
4.66518e-14
4.83975e-14
4.66782e-14
4.84052e-14
4.67052e-14
4.84133e-14
4.67326e-14
4.84218e-14
4.67604e-14
4.84306e-14
4.6789e-14
4.84395e-14
4.6818e-14
4.84488e-14
4.68475e-14
4.84583e-14
4.68775e-14
4.84683e-14
4.6908e-14
4.84787e-14
4.69388e-14
4.84891e-14
4.69699e-14
4.84999e-14
4.70017e-14
4.85111e-14
4.70338e-14
4.85227e-14
4.70664e-14
4.85346e-14
4.70994e-14
4.85468e-14
4.71327e-14
4.85594e-14
4.71665e-14
4.85723e-14
4.72007e-14
4.85855e-14
4.72352e-14
4.85993e-14
4.72699e-14
4.86136e-14
4.73051e-14
4.86277e-14
4.73407e-14
4.86423e-14
4.73765e-14
4.86574e-14
4.74126e-14
4.86734e-14
4.7449e-14
4.86893e-14
4.74856e-14
4.87056e-14
4.75229e-14
4.87226e-14
4.75605e-14
4.87396e-14
4.75984e-14
4.87576e-14
4.76365e-14
4.87756e-14
4.76748e-14
4.87937e-14
4.77134e-14
4.88125e-14
4.77525e-14
4.88318e-14
4.77921e-14
4.88515e-14
4.78321e-14
4.8872e-14
4.7872e-14
4.88931e-14
4.79122e-14
4.89145e-14
4.79528e-14
4.89363e-14
4.79935e-14
4.89588e-14
4.80345e-14
4.89814e-14
4.80752e-14
4.90046e-14
4.81166e-14
4.90287e-14
4.81581e-14
4.9053e-14
4.81997e-14
4.90782e-14
4.82414e-14
4.91041e-14
4.82837e-14
4.91302e-14
4.83255e-14
4.91571e-14
4.83673e-14
4.91849e-14
4.84094e-14
4.92121e-14
4.84516e-14
4.92402e-14
4.84937e-14
4.92695e-14
4.85367e-14
4.92985e-14
4.85792e-14
4.93286e-14
4.86217e-14
4.93592e-14
4.86645e-14
4.93894e-14
4.87082e-14
4.94203e-14
4.87522e-14
4.94525e-14
4.87967e-14
4.94862e-14
4.88417e-14
4.95199e-14
4.88872e-14
4.95527e-14
4.89325e-14
4.9586e-14
4.89786e-14
4.96211e-14
4.90235e-14
4.96566e-14
4.90697e-14
4.96929e-14
4.9117e-14
4.97291e-14
4.91635e-14
4.9766e-14
4.92114e-14
4.9803e-14
4.92578e-14
4.98402e-14
4.93047e-14
4.98794e-14
4.93523e-14
4.99182e-14
4.94013e-14
4.99573e-14
4.945e-14
4.99987e-14
4.94989e-14
5.004e-14
4.9548e-14
5.00814e-14
4.95978e-14
5.01238e-14
4.9649e-14
5.01674e-14
4.9701e-14
5.02121e-14
4.97514e-14
5.02572e-14
4.98034e-14
5.03042e-14
4.98554e-14
5.03532e-14
4.99084e-14
5.04025e-14
4.99622e-14
5.04529e-14
5.00162e-14
5.05038e-14
5.00703e-14
5.05558e-14
5.01255e-14
5.06106e-14
5.01809e-14
5.06658e-14
5.02382e-14
5.07214e-14
5.02942e-14
5.07765e-14
5.03505e-14
5.08337e-14
5.04071e-14
5.08912e-14
5.04658e-14
5.09475e-14
5.05215e-14
5.10092e-14
5.05792e-14
5.10704e-14
5.06366e-14
5.1132e-14
5.06953e-14
5.11922e-14
5.07535e-14
5.12572e-14
5.08131e-14
5.13216e-14
5.08749e-14
5.13882e-14
5.09355e-14
5.1456e-14
5.09948e-14
5.15269e-14
5.10547e-14
5.15972e-14
5.11186e-14
5.16653e-14
5.11786e-14
5.17365e-14
5.12437e-14
5.18126e-14
5.13121e-14
5.18845e-14
5.1382e-14
5.19505e-14
5.14517e-14
5.20176e-14
5.15248e-14
5.20898e-14
5.15996e-14
5.21632e-14
5.16742e-14
5.22379e-14
5.17485e-14
5.231e-14
5.18208e-14
5.23815e-14
5.18987e-14
5.24484e-14
5.19765e-14
5.25185e-14
5.20542e-14
5.25916e-14
5.21319e-14
5.26582e-14
5.22056e-14
5.27258e-14
5.22814e-14
5.27965e-14
5.23491e-14
5.28702e-14
5.24209e-14
5.29451e-14
5.24927e-14
5.30211e-14
5.25624e-14
5.30962e-14
5.26301e-14
5.31684e-14
5.2706e-14
5.32355e-14
5.27778e-14
5.33078e-14
5.28538e-14
5.33834e-14
5.29256e-14
5.346e-14
5.29932e-14
5.35421e-14
5.30649e-14
5.36232e-14
5.31365e-14
5.36931e-14
5.32058e-14
5.37642e-14
5.3275e-14
5.38451e-14
5.33461e-14
5.3921e-14
5.34233e-14
5.39833e-14
5.34982e-14
5.40534e-14
5.35577e-14
5.41357e-14
5.36232e-14
5.42087e-14
5.36948e-14
5.4281e-14
5.37594e-14
5.43616e-14
5.38343e-14
5.44329e-14
5.39109e-14
5.44906e-14
5.39847e-14
5.45521e-14
5.40468e-14
5.46218e-14
5.4115e-14
5.46866e-14
5.41757e-14
5.47464e-14
5.42334e-14
5.48056e-14
5.43015e-14
5.48777e-14
5.43754e-14
5.49449e-14
5.44552e-14
5.5007e-14
5.45274e-14
5.50595e-14
5.4601e-14
5.51248e-14
5.46715e-14
5.5185e-14
5.47344e-14
5.52444e-14
5.47987e-14
5.53121e-14
5.48643e-14
5.53791e-14
5.49359e-14
5.54454e-14
5.50134e-14
5.54972e-14
5.51015e-14
5.55436e-14
5.51683e-14
5.56028e-14
5.52412e-14
5.56563e-14
5.53251e-14
5.56948e-14
5.54062e-14
5.57411e-14
5.54802e-14
5.57997e-14
5.55331e-14
5.58659e-14
5.55973e-14
5.59166e-14
5.56682e-14
5.59657e-14
5.57507e-14
5.6013e-14
5.58403e-14
5.60629e-14
5.59141e-14
5.61104e-14
5.59911e-14
5.61646e-14
5.6062e-14
5.62255e-14
5.61178e-14
5.62928e-14
5.61584e-14
5.63573e-14
5.6221e-14
5.64098e-14
5.63151e-14
5.64504e-14
5.63852e-14
5.6516e-14
5.64315e-14
5.65971e-14
5.64722e-14
5.66754e-14
5.65257e-14
5.67419e-14
5.6592e-14
5.68155e-14
5.66523e-14
5.68962e-14
5.67158e-14
5.69562e-14
5.67545e-14
5.70144e-14
5.68056e-14
5.70801e-14
5.68688e-14
5.71351e-14
5.69443e-14
5.71886e-14
5.69857e-14
5.7259e-14
5.70022e-14
5.73096e-14
5.7049e-14
5.73503e-14
5.71169e-14
5.73999e-14
5.71689e-14
5.74582e-14
5.72328e-14
5.74793e-14
5.72907e-14
5.74906e-14
5.73528e-14
5.75473e-14
5.74098e-14
5.7603e-14
5.74617e-14
5.76491e-14
5.75364e-14
5.76858e-14
5.76161e-14
5.77314e-14
5.76739e-14
5.77856e-14
5.77468e-14
5.78487e-14
5.78077e-14
5.79121e-14
5.78658e-14
5.79673e-14
5.79303e-14
5.80237e-14
5.79926e-14
5.80729e-14
5.80799e-14
5.81424e-14
5.81659e-14
5.82143e-14
5.82419e-14
5.82709e-14
5.82725e-14
5.83484e-14
5.83461e-14
5.84304e-14
5.84445e-14
5.85001e-14
5.85331e-14
5.85938e-14
5.85589e-14
5.86769e-14
5.86097e-14
5.87518e-14
5.86847e-14
5.88372e-14
5.87133e-14
5.89519e-14
5.88168e-14
5.9011e-14
5.88565e-14
5.90496e-14
5.89207e-14
5.90862e-14
5.89929e-14
5.91557e-14
5.90046e-14
5.9224e-14
5.90234e-14
5.92934e-14
5.90993e-14
5.93324e-14
5.91481e-14
5.93237e-14
5.9172e-14
5.93006e-14
5.92071e-14
5.93302e-14
5.92366e-14
5.93959e-14
5.92761e-14
5.94151e-14
5.93254e-14
5.94385e-14
5.93701e-14
5.94662e-14
5.94278e-14
5.94818e-14
5.94833e-14
5.95173e-14
5.95386e-14
5.95387e-14
5.95635e-14
5.95614e-14
5.95919e-14
5.95698e-14
5.96412e-14
5.96132e-14
5.96792e-14
5.96914e-14
5.97198e-14
5.97577e-14
5.97623e-14
5.9798e-14
5.97914e-14
5.98298e-14
5.98397e-14
5.98705e-14
5.98296e-14
5.99364e-14
5.98673e-14
5.99378e-14
5.99068e-14
5.99196e-14
5.99518e-14
5.99411e-14
5.99741e-14
5.99718e-14
5.99748e-14
6.00134e-14
5.99665e-14
6.00239e-14
5.99492e-14
6.00341e-14
5.99831e-14
5.99882e-14
5.99262e-14
5.99418e-14
5.98653e-14
5.99238e-14
5.98837e-14
5.98783e-14
5.98705e-14
5.98873e-14
5.98548e-14
5.98969e-14
5.98324e-14
5.99115e-14
5.97749e-14
5.98788e-14
5.97659e-14
5.98291e-14
5.978e-14
5.98145e-14
5.97928e-14
5.97784e-14
5.96775e-14
5.97453e-14
5.96667e-14
5.97486e-14
5.97323e-14
5.97122e-14
5.9676e-14
5.96541e-14
5.9579e-14
5.96232e-14
5.95613e-14
5.96245e-14
5.95659e-14
5.95591e-14
5.95019e-14
5.95216e-14
5.94653e-14
5.94891e-14
5.9455e-14
5.94372e-14
5.94773e-14
5.93849e-14
5.93737e-14
5.93453e-14
5.93035e-14
5.93028e-14
5.9262e-14
5.92377e-14
5.91605e-14
5.91711e-14
5.91556e-14
5.9131e-14
5.90905e-14
5.90646e-14
5.90601e-14
5.90167e-14
5.89773e-14
5.89387e-14
5.89069e-14
5.88737e-14
5.88415e-14
5.88404e-14
5.87756e-14
5.88214e-14
5.85522e-14
5.86222e-14
5.85034e-14
5.85868e-14
5.85183e-14
5.85788e-14
5.84913e-14
5.85296e-14
5.84498e-14
5.84807e-14
5.84653e-14
5.84782e-14
5.84479e-14
5.84746e-14
5.84198e-14
5.84697e-14
5.84502e-14
5.85132e-14
5.8495e-14
5.85884e-14
5.84802e-14
5.85592e-14
5.85013e-14
5.85179e-14
5.85155e-14
5.85284e-14
5.84755e-14
5.8541e-14
5.84481e-14
5.85364e-14
5.84573e-14
5.85158e-14
5.84082e-14
5.85015e-14
5.8398e-14
5.84708e-14
5.83777e-14
5.84218e-14
5.83222e-14
5.83791e-14
5.82803e-14
5.83954e-14
5.82753e-14
5.83957e-14
5.83091e-14
5.83805e-14
5.82527e-14
5.84001e-14
5.82089e-14
5.83788e-14
5.82305e-14
5.83182e-14
5.82143e-14
5.82661e-14
5.81643e-14
5.81899e-14
5.81703e-14
5.81719e-14
5.81197e-14
5.81235e-14
5.80391e-14
5.8044e-14
5.80144e-14
5.79912e-14
5.80491e-14
5.79639e-14
5.7971e-14
5.79883e-14
5.79522e-14
5.79828e-14
5.79323e-14
5.79482e-14
5.78808e-14
5.79139e-14
5.7811e-14
5.78956e-14
5.78121e-14
5.78807e-14
5.78088e-14
5.78525e-14
5.77245e-14
5.78561e-14
5.77092e-14
5.78346e-14
5.77335e-14
5.78349e-14
5.76882e-14
5.78083e-14
5.77616e-14
5.77869e-14
5.77688e-14
5.77805e-14
5.77424e-14
5.77732e-14
5.77457e-14
5.7766e-14
5.77971e-14
5.77747e-14
5.78508e-14
5.77811e-14
5.78591e-14
5.775e-14
5.78073e-14
5.77453e-14
5.78088e-14
5.77356e-14
5.78477e-14
5.77704e-14
5.78074e-14
5.77491e-14
5.77699e-14
5.77565e-14
5.77837e-14
5.77784e-14
5.77814e-14
5.77816e-14
5.77799e-14
5.77663e-14
5.77629e-14
5.7766e-14
5.77811e-14
5.77818e-14
5.78007e-14
5.77618e-14
5.77531e-14
5.77566e-14
5.77574e-14
5.77677e-14
5.77436e-14
5.77783e-14
5.77288e-14
5.77536e-14
5.76957e-14
5.77288e-14
5.76793e-14
5.77043e-14
5.76801e-14
5.76976e-14
5.76447e-14
5.77085e-14
5.76782e-14
5.77024e-14
5.76751e-14
5.76961e-14
5.76713e-14
5.76899e-14
5.76488e-14
5.76835e-14
5.76251e-14
5.76953e-14
5.76353e-14
5.7708e-14
5.76434e-14
5.77217e-14
5.76315e-14
5.76998e-14
5.76357e-14
5.76784e-14
5.76751e-14
5.77024e-14
5.76864e-14
5.77357e-14
5.76877e-14
5.77605e-14
5.76871e-14
5.7768e-14
5.7703e-14
5.77676e-14
5.77171e-14
5.77588e-14
5.77117e-14
5.77597e-14
5.76954e-14
5.77611e-14
5.76862e-14
5.7763e-14
5.77118e-14
5.77656e-14
5.77077e-14
5.77686e-14
5.77202e-14
5.77815e-14
5.77308e-14
5.78044e-14
5.77393e-14
5.78188e-14
5.77456e-14
5.78156e-14
5.775e-14
5.78132e-14
5.77619e-14
5.78392e-14
5.77718e-14
5.78566e-14
5.77798e-14
5.78654e-14
5.77859e-14
5.7875e-14
5.77809e-14
5.78759e-14
5.77928e-14
5.78868e-14
5.78123e-14
5.79075e-14
5.78209e-14
5.791e-14
5.7828e-14
5.79131e-14
5.78339e-14
5.79261e-14
5.78478e-14
5.79396e-14
5.78605e-14
5.79441e-14
5.78626e-14
5.79583e-14
5.78634e-14
5.79728e-14
5.78721e-14
5.79879e-14
5.78794e-14
5.80036e-14
5.78759e-14
5.80198e-14
5.78706e-14
5.80275e-14
5.78824e-14
5.80267e-14
5.79019e-14
5.80451e-14
5.79106e-14
5.80596e-14
5.79085e-14
5.80609e-14
5.79097e-14
5.80582e-14
5.79141e-14
5.80562e-14
5.79124e-14
5.80642e-14
5.79233e-14
5.80728e-14
5.79237e-14
5.8082e-14
5.79227e-14
5.80871e-14
5.79205e-14
5.80883e-14
5.79124e-14
5.80901e-14
5.79031e-14
5.81017e-14
5.79154e-14
5.80957e-14
5.79265e-14
5.8081e-14
5.79183e-14
5.80804e-14
5.79137e-14
5.80893e-14
5.79217e-14
5.80895e-14
5.79106e-14
5.80946e-14
5.78985e-14
5.80955e-14
5.78854e-14
5.81058e-14
5.78757e-14
5.81256e-14
5.78738e-14
5.81234e-14
5.78663e-14
5.81173e-14
5.78532e-14
5.81297e-14
5.78523e-14
5.81426e-14
5.78503e-14
5.81605e-14
5.78469e-14
5.81658e-14
5.78468e-14
5.8163e-14
5.78455e-14
5.81653e-14
5.78475e-14
5.81595e-14
5.7844e-14
5.81631e-14
5.78437e-14
5.81717e-14
5.78467e-14
5.81722e-14
5.7853e-14
5.81691e-14
5.78541e-14
5.81665e-14
5.78584e-14
5.81688e-14
5.7864e-14
5.81631e-14
5.78666e-14
5.81559e-14
5.78727e-14
5.81513e-14
5.78758e-14
5.81534e-14
5.78804e-14
5.81498e-14
5.78905e-14
5.81466e-14
5.78937e-14
5.81437e-14
5.78922e-14
5.81454e-14
5.78922e-14
5.81412e-14
5.78937e-14
5.81353e-14
5.78967e-14
5.81319e-14
5.78992e-14
5.81307e-14
5.79033e-14
5.81258e-14
5.79009e-14
5.81232e-14
5.79021e-14
5.81208e-14
5.79049e-14
5.81245e-14
5.79073e-14
5.81245e-14
5.79152e-14
5.81287e-14
5.79208e-14
5.81272e-14
5.79202e-14
5.81201e-14
5.79213e-14
5.81152e-14
5.7924e-14
5.81104e-14
5.79265e-14
5.81115e-14
5.79249e-14
5.81146e-14
5.7925e-14
5.81122e-14
5.79248e-14
5.81099e-14
5.79281e-14
5.81096e-14
5.79294e-14
5.8104e-14
5.79323e-14
5.80985e-14
5.7935e-14
5.81021e-14
5.79411e-14
5.81058e-14
5.79452e-14
5.81043e-14
5.79465e-14
5.81046e-14
5.7945e-14
5.81102e-14
5.79451e-14
5.81124e-14
5.79433e-14
5.81103e-14
5.79431e-14
5.8111e-14
5.79436e-14
5.81134e-14
5.79431e-14
5.8115e-14
5.79417e-14
5.81168e-14
5.79401e-14
5.81169e-14
5.79401e-14
5.81154e-14
5.79407e-14
5.81133e-14
5.79412e-14
5.8112e-14
5.79408e-14
5.81125e-14
5.79402e-14
5.8113e-14
5.79404e-14
5.8112e-14
5.79396e-14
5.81095e-14
5.79395e-14
5.81086e-14
5.79385e-14
5.81087e-14
5.79381e-14
5.8108e-14
5.79377e-14
5.81065e-14
5.79379e-14
5.81052e-14
5.79381e-14
5.81047e-14
5.79373e-14
5.81051e-14
5.7938e-14
5.81047e-14
5.79386e-14
5.81036e-14
5.79384e-14
5.81018e-14
5.7938e-14
5.81005e-14
5.79376e-14
5.80995e-14
5.79375e-14
5.80983e-14
5.79373e-14
5.80971e-14
5.79362e-14
5.80959e-14
5.79358e-14
5.80941e-14
5.79346e-14
5.80941e-14
5.79337e-14
5.80935e-14
5.79335e-14
5.8091e-14
5.79336e-14
5.80892e-14
5.79341e-14
5.80883e-14
5.79333e-14
5.80882e-14
5.79328e-14
5.80877e-14
5.79323e-14
5.80865e-14
5.79313e-14
5.80853e-14
5.79306e-14
5.80849e-14
5.79303e-14
5.80841e-14
5.79299e-14
5.80822e-14
5.79291e-14
5.80803e-14
5.79294e-14
5.80788e-14
5.79293e-14
5.8079e-14
5.79287e-14
5.80791e-14
5.79283e-14
5.80785e-14
5.79278e-14
5.80766e-14
5.79275e-14
5.8076e-14
5.79269e-14
5.80761e-14
5.79268e-14
5.80759e-14
5.79265e-14
5.8076e-14
5.79269e-14
5.80752e-14
5.79266e-14
5.80743e-14
5.79265e-14
5.80737e-14
5.79268e-14
5.80737e-14
5.79268e-14
5.80736e-14
5.79275e-14
5.80734e-14
5.79275e-14
5.80734e-14
5.79274e-14
5.80731e-14
5.79275e-14
5.80724e-14
5.79279e-14
5.80717e-14
5.79282e-14
5.80715e-14
5.79283e-14
5.80711e-14
5.79283e-14
5.80706e-14
5.79281e-14
5.80702e-14
5.79283e-14
5.80698e-14
5.79287e-14
5.80694e-14
5.7929e-14
5.80684e-14
5.79292e-14
5.8068e-14
5.79291e-14
5.80682e-14
5.7929e-14
5.80685e-14
5.7929e-14
5.80685e-14
5.79288e-14
5.80683e-14
5.79286e-14
5.80677e-14
5.79287e-14
5.80677e-14
5.79287e-14
5.80673e-14
5.79288e-14
5.80671e-14
5.79289e-14
5.80673e-14
5.79289e-14
5.80673e-14
5.79288e-14
5.8067e-14
5.79289e-14
5.80665e-14
5.79292e-14
5.80663e-14
5.7929e-14
5.80661e-14
5.79287e-14
5.80661e-14
5.79286e-14
5.80662e-14
5.79286e-14
5.80662e-14
5.79284e-14
5.80661e-14
5.79282e-14
5.80661e-14
5.7928e-14
5.80661e-14
5.79277e-14
5.80662e-14
5.79274e-14
5.80662e-14
5.79273e-14
5.80663e-14
5.79273e-14
5.80664e-14
5.79274e-14
5.80663e-14
5.79273e-14
5.80662e-14
5.79273e-14
5.80661e-14
5.79272e-14
5.80661e-14
5.79271e-14
5.80661e-14
5.79271e-14
5.80661e-14
5.79271e-14
5.80658e-14
5.79271e-14
5.80659e-14
5.79271e-14
5.80661e-14
5.79271e-14
5.80662e-14
5.79271e-14
5.80663e-14
5.7927e-14
5.80664e-14
5.79269e-14
5.80664e-14
5.79269e-14
5.80664e-14
5.79268e-14
5.80663e-14
5.79268e-14
5.80661e-14
5.79268e-14
5.8066e-14
5.79269e-14
5.8066e-14
5.7927e-14
5.8066e-14
5.79271e-14
5.80661e-14
5.79272e-14
5.8066e-14
5.79272e-14
5.80659e-14
5.79274e-14
5.80658e-14
5.79274e-14
5.80659e-14
5.79275e-14
5.80659e-14
5.79275e-14
5.80659e-14
5.79276e-14
5.80659e-14
5.79277e-14
5.80658e-14
5.79277e-14
5.80659e-14
5.79278e-14
5.80658e-14
5.79278e-14
5.80657e-14
5.79279e-14
5.80657e-14
5.79279e-14
5.80657e-14
5.79279e-14
5.80657e-14
5.79279e-14
5.80657e-14
5.79279e-14
5.80657e-14
5.79279e-14
5.80657e-14
5.79279e-14
5.80657e-14
5.79279e-14
5.80657e-14
5.79279e-14
5.80657e-14
5.79279e-14
5.80657e-14
5.79279e-14
5.80657e-14
5.86963e-14
5.87581e-14
5.86638e-14
5.86941e-14
5.86392e-14
5.86435e-14
5.86006e-14
5.85983e-14
5.85476e-14
5.8535e-14
5.85727e-14
5.85195e-14
5.85438e-14
5.85456e-14
5.84977e-14
5.85538e-14
5.84725e-14
5.85282e-14
5.84889e-14
5.85348e-14
5.85232e-14
5.85197e-14
5.85855e-14
5.85016e-14
5.85653e-14
5.85212e-14
5.8553e-14
5.85354e-14
5.85221e-14
5.85474e-14
5.84667e-14
5.85121e-14
5.84577e-14
5.85069e-14
5.8446e-14
5.84553e-14
5.84618e-14
5.83772e-14
5.84641e-14
5.83669e-14
5.84026e-14
5.83998e-14
5.83736e-14
5.83791e-14
5.83483e-14
5.8358e-14
5.82962e-14
5.8364e-14
5.8295e-14
5.83189e-14
5.82954e-14
5.8273e-14
5.8244e-14
5.82511e-14
5.81359e-14
5.82006e-14
5.81354e-14
5.82124e-14
5.81279e-14
5.81739e-14
5.80881e-14
5.8111e-14
5.80481e-14
5.80517e-14
5.80383e-14
5.80239e-14
5.79396e-14
5.80266e-14
5.79236e-14
5.80063e-14
5.79316e-14
5.79616e-14
5.79073e-14
5.79492e-14
5.78353e-14
5.79403e-14
5.78344e-14
5.79386e-14
5.78284e-14
5.79134e-14
5.78026e-14
5.78788e-14
5.77589e-14
5.78485e-14
5.77749e-14
5.78389e-14
5.78206e-14
5.78325e-14
5.78052e-14
5.78752e-14
5.78035e-14
5.78431e-14
5.78009e-14
5.78303e-14
5.77494e-14
5.78199e-14
5.77437e-14
5.78464e-14
5.77983e-14
5.78625e-14
5.77669e-14
5.78664e-14
5.77461e-14
5.78766e-14
5.77524e-14
5.78944e-14
5.77356e-14
5.79373e-14
5.77598e-14
5.79067e-14
5.77611e-14
5.78839e-14
5.77412e-14
5.78674e-14
5.77333e-14
5.78736e-14
5.77029e-14
5.78687e-14
5.77003e-14
5.78535e-14
5.7692e-14
5.78615e-14
5.77293e-14
5.78584e-14
5.7762e-14
5.78431e-14
5.77752e-14
5.78311e-14
5.77522e-14
5.78566e-14
5.77264e-14
5.78157e-14
5.76983e-14
5.77601e-14
5.76686e-14
5.77417e-14
5.77077e-14
5.77431e-14
5.77109e-14
5.77637e-14
5.77136e-14
5.77683e-14
5.76977e-14
5.77392e-14
5.7699e-14
5.77293e-14
5.76999e-14
5.77384e-14
5.77006e-14
5.77488e-14
5.77011e-14
5.77607e-14
5.7701e-14
5.77925e-14
5.77089e-14
5.77904e-14
5.77069e-14
5.77633e-14
5.76954e-14
5.77561e-14
5.77104e-14
5.77596e-14
5.77615e-14
5.77732e-14
5.77763e-14
5.77871e-14
5.77918e-14
5.7783e-14
5.7808e-14
5.77789e-14
5.78346e-14
5.77837e-14
5.78537e-14
5.78156e-14
5.78744e-14
5.78198e-14
5.78879e-14
5.7805e-14
5.78944e-14
5.77987e-14
5.79034e-14
5.78006e-14
5.79334e-14
5.78106e-14
5.79475e-14
5.78192e-14
5.79458e-14
5.78263e-14
5.79466e-14
5.78414e-14
5.79776e-14
5.78648e-14
5.79737e-14
5.78871e-14
5.79718e-14
5.78901e-14
5.79717e-14
5.7911e-14
5.79637e-14
5.79501e-14
5.79662e-14
5.79709e-14
5.79787e-14
5.79734e-14
5.7964e-14
5.79668e-14
5.79592e-14
5.79604e-14
5.79644e-14
5.79823e-14
5.79793e-14
5.80234e-14
5.79944e-14
5.80464e-14
5.80095e-14
5.80421e-14
5.8025e-14
5.80478e-14
5.80503e-14
5.80633e-14
5.80574e-14
5.80698e-14
5.80744e-14
5.80859e-14
5.80733e-14
5.81023e-14
5.80727e-14
5.81005e-14
5.80818e-14
5.81085e-14
5.8096e-14
5.81214e-14
5.81013e-14
5.81208e-14
5.81024e-14
5.81111e-14
5.81132e-14
5.81109e-14
5.812e-14
5.81202e-14
5.81227e-14
5.81342e-14
5.8112e-14
5.8153e-14
5.81154e-14
5.81676e-14
5.81006e-14
5.8178e-14
5.80905e-14
5.81798e-14
5.80942e-14
5.81867e-14
5.80887e-14
5.82127e-14
5.80831e-14
5.82302e-14
5.80818e-14
5.82304e-14
5.80756e-14
5.82269e-14
5.80737e-14
5.82471e-14
5.80623e-14
5.82727e-14
5.80686e-14
5.82769e-14
5.80563e-14
5.82821e-14
5.80616e-14
5.82974e-14
5.80619e-14
5.83048e-14
5.80527e-14
5.82999e-14
5.8043e-14
5.83007e-14
5.80462e-14
5.83025e-14
5.80489e-14
5.83142e-14
5.80378e-14
5.83225e-14
5.8035e-14
5.83186e-14
5.80316e-14
5.83158e-14
5.80322e-14
5.83052e-14
5.80322e-14
5.83086e-14
5.80274e-14
5.8313e-14
5.80265e-14
5.83183e-14
5.80164e-14
5.83201e-14
5.8023e-14
5.83057e-14
5.80249e-14
5.82878e-14
5.80221e-14
5.82751e-14
5.80189e-14
5.82779e-14
5.80196e-14
5.8275e-14
5.8022e-14
5.82686e-14
5.80198e-14
5.8265e-14
5.80236e-14
5.82661e-14
5.80208e-14
5.82657e-14
5.80156e-14
5.82618e-14
5.80121e-14
5.82543e-14
5.80084e-14
5.82576e-14
5.80063e-14
5.82614e-14
5.8002e-14
5.82617e-14
5.79973e-14
5.82605e-14
5.79923e-14
5.82558e-14
5.7991e-14
5.82596e-14
5.79854e-14
5.82618e-14
5.79815e-14
5.82568e-14
5.79733e-14
5.82561e-14
5.79707e-14
5.82539e-14
5.79716e-14
5.82522e-14
5.79684e-14
5.82529e-14
5.7963e-14
5.82521e-14
5.79629e-14
5.82499e-14
5.79625e-14
5.825e-14
5.79581e-14
5.82542e-14
5.79571e-14
5.82532e-14
5.7954e-14
5.82508e-14
5.79543e-14
5.82451e-14
5.79561e-14
5.82434e-14
5.7954e-14
5.82457e-14
5.79552e-14
5.82412e-14
5.7958e-14
5.82353e-14
5.79622e-14
5.82324e-14
5.79653e-14
5.82333e-14
5.79682e-14
5.82309e-14
5.79717e-14
5.82272e-14
5.79733e-14
5.82254e-14
5.79764e-14
5.82239e-14
5.79785e-14
5.82217e-14
5.79795e-14
5.82156e-14
5.79837e-14
5.82081e-14
5.79902e-14
5.82049e-14
5.79933e-14
5.82045e-14
5.7997e-14
5.82033e-14
5.7999e-14
5.82016e-14
5.80041e-14
5.81991e-14
5.80083e-14
5.81953e-14
5.80123e-14
5.81923e-14
5.80147e-14
5.81919e-14
5.80178e-14
5.81901e-14
5.802e-14
5.81876e-14
5.80229e-14
5.81875e-14
5.80249e-14
5.81876e-14
5.80269e-14
5.8187e-14
5.80288e-14
5.81857e-14
5.80306e-14
5.81845e-14
5.80317e-14
5.81842e-14
5.80334e-14
5.81831e-14
5.8034e-14
5.81826e-14
5.80352e-14
5.81817e-14
5.80349e-14
5.81817e-14
5.8035e-14
5.81806e-14
5.80354e-14
5.81792e-14
5.80357e-14
5.81775e-14
5.80357e-14
5.81774e-14
5.80356e-14
5.81777e-14
5.80347e-14
5.81781e-14
5.80342e-14
5.81778e-14
5.80336e-14
5.81768e-14
5.8033e-14
5.81762e-14
5.80324e-14
5.81764e-14
5.80321e-14
5.81767e-14
5.80318e-14
5.81759e-14
5.80315e-14
5.81756e-14
5.80312e-14
5.81752e-14
5.80312e-14
5.81749e-14
5.80308e-14
5.81751e-14
5.80312e-14
5.81749e-14
5.80311e-14
5.81752e-14
5.80318e-14
5.81755e-14
5.8032e-14
5.81757e-14
5.80319e-14
5.81748e-14
5.80321e-14
5.81734e-14
5.8032e-14
5.8173e-14
5.8032e-14
5.81729e-14
5.80321e-14
5.81724e-14
5.80323e-14
5.81715e-14
5.80327e-14
5.81699e-14
5.80331e-14
5.81691e-14
5.80333e-14
5.81692e-14
5.80333e-14
5.8169e-14
5.80334e-14
5.81685e-14
5.80338e-14
5.81679e-14
5.80342e-14
5.81679e-14
5.80346e-14
5.81678e-14
5.80345e-14
5.81669e-14
5.80348e-14
5.81664e-14
5.80349e-14
5.81665e-14
5.80348e-14
5.81665e-14
5.80349e-14
5.81661e-14
5.80352e-14
5.81661e-14
5.80357e-14
5.81662e-14
5.80361e-14
5.81658e-14
5.80367e-14
5.81656e-14
5.80366e-14
5.81664e-14
5.80368e-14
5.81665e-14
5.80372e-14
5.8166e-14
5.80378e-14
5.81655e-14
5.80389e-14
5.81649e-14
5.80395e-14
5.81648e-14
5.80398e-14
5.81646e-14
5.80402e-14
5.8164e-14
5.80402e-14
5.81635e-14
5.80408e-14
5.81631e-14
5.80411e-14