/*--------------------------------*- C++ -*----------------------------------*\
| =========                 |                                                 |
| \\      /  F ield         | OpenFOAM: The Open Source CFD Toolbox           |
|  \\    /   O peration     | Version:  2012                                  |
|   \\  /    A nd           | Website:  www.openfoam.com                      |
|    \\/     M anipulation  |                                                 |
\*---------------------------------------------------------------------------*/
FoamFile
{
    version     2.0;
    format      ascii;
    class       volScalarField;
    location    "1000";
    object      k;
}
// * * * * * * * * * * * * * * * * * * * * * * * * * * * * * * * * * * * * * //

dimensions      [0 2 -2 0 0 0 0];


internalField   nonuniform List<scalar> 
2560
(
8.89512e-07
8.89512e-07
1.30706e-07
1.30706e-07
3.92545e-08
3.92545e-08
1.75251e-08
1.75251e-08
1.08648e-08
1.08648e-08
9.66793e-09
9.66793e-09
1.1687e-08
1.1687e-08
1.64929e-08
1.64929e-08
2.42662e-08
2.42662e-08
3.54568e-08
3.54568e-08
5.06689e-08
5.06689e-08
7.0618e-08
7.0618e-08
9.61133e-08
9.61133e-08
1.2805e-07
1.2805e-07
1.67409e-07
1.67409e-07
2.15248e-07
2.15248e-07
2.72711e-07
2.72711e-07
3.41017e-07
3.41017e-07
4.21462e-07
4.21462e-07
5.15413e-07
5.15413e-07
6.24306e-07
6.24306e-07
7.49633e-07
7.49633e-07
8.92937e-07
8.92937e-07
1.0558e-06
1.0558e-06
1.23982e-06
1.23982e-06
1.44662e-06
1.44662e-06
1.6778e-06
1.6778e-06
1.93494e-06
1.93494e-06
2.21956e-06
2.21956e-06
2.53311e-06
2.53311e-06
2.87696e-06
2.87696e-06
3.25233e-06
3.25233e-06
3.66033e-06
3.66033e-06
4.10187e-06
4.10187e-06
4.57772e-06
4.57772e-06
5.08839e-06
5.08839e-06
5.63419e-06
5.63419e-06
6.21521e-06
6.21521e-06
6.83126e-06
6.83126e-06
7.48189e-06
7.48189e-06
8.16643e-06
8.16643e-06
8.88389e-06
8.88389e-06
9.63307e-06
9.63307e-06
1.04125e-05
1.04125e-05
1.12204e-05
1.12204e-05
1.20549e-05
1.20549e-05
1.29139e-05
1.29139e-05
1.37949e-05
1.37949e-05
1.46954e-05
1.46954e-05
1.56129e-05
1.56129e-05
1.65445e-05
1.65445e-05
1.74873e-05
1.74873e-05
1.84384e-05
1.84384e-05
1.93949e-05
1.93949e-05
2.03536e-05
2.03536e-05
2.13117e-05
2.13117e-05
2.22661e-05
2.22661e-05
2.3214e-05
2.3214e-05
2.41525e-05
2.41525e-05
2.5079e-05
2.5079e-05
2.59909e-05
2.59909e-05
2.68856e-05
2.68856e-05
2.7761e-05
2.7761e-05
2.86149e-05
2.86149e-05
2.94453e-05
2.94453e-05
3.02505e-05
3.02505e-05
3.1029e-05
3.1029e-05
3.17793e-05
3.17793e-05
3.25002e-05
3.25002e-05
3.31909e-05
3.31909e-05
3.38506e-05
3.38506e-05
3.44786e-05
3.44786e-05
3.50747e-05
3.50747e-05
3.56386e-05
3.56386e-05
3.61704e-05
3.61704e-05
3.66703e-05
3.66703e-05
3.71385e-05
3.71385e-05
3.75757e-05
3.75757e-05
3.79824e-05
3.79824e-05
3.83596e-05
3.83596e-05
3.8708e-05
3.8708e-05
3.90288e-05
3.90288e-05
3.93232e-05
3.93232e-05
3.95922e-05
3.95922e-05
3.98374e-05
3.98374e-05
4.00601e-05
4.00601e-05
4.02617e-05
4.02617e-05
4.04439e-05
4.04439e-05
4.0608e-05
4.0608e-05
4.07558e-05
4.07558e-05
4.08888e-05
4.08888e-05
4.10086e-05
4.10086e-05
4.11169e-05
4.11169e-05
4.12152e-05
4.12152e-05
4.13052e-05
4.13052e-05
4.13885e-05
4.13885e-05
4.14667e-05
4.14667e-05
4.15411e-05
4.15411e-05
4.16134e-05
4.16134e-05
4.1685e-05
4.1685e-05
4.17573e-05
4.17573e-05
4.18316e-05
4.18316e-05
4.19093e-05
4.19093e-05
4.19916e-05
4.19916e-05
4.20797e-05
4.20797e-05
4.21748e-05
4.21748e-05
4.22778e-05
4.22778e-05
4.23899e-05
4.23899e-05
4.2512e-05
4.2512e-05
4.26449e-05
4.26449e-05
4.27894e-05
4.27894e-05
4.29464e-05
4.29464e-05
4.31166e-05
4.31166e-05
4.33004e-05
4.33004e-05
4.34986e-05
4.34986e-05
4.37116e-05
4.37116e-05
4.39398e-05
4.39398e-05
4.41836e-05
4.41836e-05
4.44433e-05
4.44433e-05
4.47192e-05
4.47192e-05
4.50113e-05
4.50113e-05
4.53199e-05
4.53199e-05
4.56449e-05
4.56449e-05
4.59864e-05
4.59864e-05
4.63442e-05
4.63442e-05
4.67183e-05
4.67183e-05
4.71083e-05
4.71083e-05
4.75142e-05
4.75142e-05
4.79354e-05
4.79354e-05
4.83717e-05
4.83717e-05
4.88226e-05
4.88226e-05
4.92875e-05
4.92875e-05
4.97659e-05
4.97659e-05
5.02571e-05
5.02571e-05
5.07605e-05
5.07605e-05
5.12752e-05
5.12752e-05
5.18004e-05
5.18004e-05
5.23353e-05
5.23353e-05
5.28788e-05
5.28788e-05
5.34298e-05
5.34298e-05
5.39873e-05
5.39873e-05
5.455e-05
5.455e-05
5.51166e-05
5.51166e-05
5.56859e-05
5.56859e-05
5.62562e-05
5.62562e-05
5.6826e-05
5.6826e-05
5.73937e-05
5.73937e-05
5.79576e-05
5.79576e-05
5.85159e-05
5.85159e-05
5.90667e-05
5.90667e-05
5.96081e-05
5.96081e-05
6.01382e-05
6.01382e-05
6.0655e-05
6.0655e-05
6.11567e-05
6.11567e-05
6.16415e-05
6.16415e-05
6.21078e-05
6.21078e-05
6.2554e-05
6.2554e-05
6.29791e-05
6.29791e-05
6.3382e-05
6.3382e-05
6.37622e-05
6.37622e-05
6.41193e-05
6.41193e-05
6.44534e-05
6.44534e-05
6.47648e-05
6.47648e-05
6.50542e-05
6.50542e-05
6.53225e-05
6.53225e-05
6.55708e-05
6.55708e-05
6.58004e-05
6.58004e-05
6.60126e-05
6.60126e-05
6.6209e-05
6.6209e-05
6.6391e-05
6.6391e-05
6.65601e-05
6.65601e-05
6.67177e-05
6.67177e-05
6.68651e-05
6.68651e-05
6.70036e-05
6.70036e-05
6.71345e-05
6.71345e-05
6.72589e-05
6.72589e-05
6.73777e-05
6.73777e-05
6.7492e-05
6.7492e-05
6.76027e-05
6.76027e-05
6.77104e-05
6.77104e-05
6.78161e-05
6.78161e-05
6.79202e-05
6.79202e-05
6.80235e-05
6.80235e-05
6.81265e-05
6.81265e-05
6.82298e-05
6.82298e-05
6.83338e-05
6.83338e-05
6.84389e-05
6.84389e-05
6.85456e-05
6.85456e-05
6.86544e-05
6.86544e-05
6.87655e-05
6.87655e-05
6.88793e-05
6.88793e-05
6.89963e-05
6.89963e-05
6.91166e-05
6.91166e-05
6.92406e-05
6.92406e-05
6.93687e-05
6.93687e-05
6.95011e-05
6.95011e-05
6.96382e-05
6.96382e-05
6.97801e-05
6.97801e-05
6.99272e-05
6.99272e-05
7.00798e-05
7.00798e-05
7.0238e-05
7.0238e-05
7.04023e-05
7.04023e-05
7.05728e-05
7.05728e-05
7.07499e-05
7.07499e-05
7.09337e-05
7.09337e-05
7.11245e-05
7.11245e-05
7.13225e-05
7.13225e-05
7.15281e-05
7.15281e-05
7.17414e-05
7.17414e-05
7.19627e-05
7.19627e-05
7.21921e-05
7.21921e-05
7.243e-05
7.243e-05
7.26766e-05
7.26766e-05
7.2932e-05
7.2932e-05
7.31964e-05
7.31964e-05
7.34702e-05
7.34702e-05
7.37534e-05
7.37534e-05
7.40462e-05
7.40462e-05
7.43489e-05
7.43489e-05
7.46616e-05
7.46616e-05
7.49844e-05
7.49844e-05
7.53175e-05
7.53175e-05
7.56611e-05
7.56611e-05
7.60152e-05
7.60152e-05
7.638e-05
7.638e-05
7.67555e-05
7.67555e-05
7.71419e-05
7.71419e-05
7.75392e-05
7.75392e-05
7.79475e-05
7.79475e-05
7.83668e-05
7.83668e-05
7.8797e-05
7.8797e-05
7.92383e-05
7.92383e-05
7.96905e-05
7.96905e-05
8.01536e-05
8.01536e-05
8.06276e-05
8.06276e-05
8.11123e-05
8.11123e-05
8.16077e-05
8.16077e-05
8.21135e-05
8.21135e-05
8.26296e-05
8.26296e-05
8.31558e-05
8.31558e-05
8.36919e-05
8.36919e-05
8.42376e-05
8.42376e-05
8.47926e-05
8.47926e-05
8.53565e-05
8.53565e-05
8.5929e-05
8.5929e-05
8.65098e-05
8.65098e-05
8.70983e-05
8.70983e-05
8.76941e-05
8.76941e-05
8.82966e-05
8.82966e-05
8.89054e-05
8.89054e-05
8.95198e-05
8.95198e-05
9.01391e-05
9.01391e-05
9.07628e-05
9.07628e-05
9.139e-05
9.139e-05
9.20201e-05
9.20201e-05
9.26521e-05
9.26521e-05
9.32852e-05
9.32852e-05
9.39185e-05
9.39185e-05
9.45511e-05
9.45511e-05
9.51819e-05
9.51819e-05
9.58099e-05
9.58099e-05
9.6434e-05
9.6434e-05
9.7053e-05
9.7053e-05
9.76657e-05
9.76657e-05
9.82708e-05
9.82708e-05
9.88671e-05
9.88671e-05
9.94533e-05
9.94533e-05
0.000100028
0.000100028
0.000100589
0.000100589
0.000101136
0.000101136
0.000101667
0.000101667
0.000102181
0.000102181
0.000102675
0.000102675
0.000103149
0.000103149
0.0001036
0.0001036
0.000104026
0.000104026
0.000104427
0.000104427
0.000104801
0.000104801
0.000105145
0.000105145
0.000105458
0.000105458
0.000105738
0.000105738
0.000105984
0.000105984
0.000106194
0.000106194
0.000106366
0.000106366
0.000106499
0.000106499
0.00010659
0.00010659
0.00010664
0.00010664
0.000106646
0.000106646
0.000106606
0.000106606
0.000106521
0.000106521
0.000106389
0.000106389
0.000106209
0.000106209
0.000105981
0.000105981
0.000105704
0.000105704
0.000105379
0.000105379
0.000105005
0.000105005
0.000104584
0.000104584
0.000104115
0.000104115
0.000103601
0.000103601
0.000103043
0.000103043
0.000102444
0.000102444
0.000101806
0.000101806
0.000101133
0.000101133
0.00010043
0.00010043
9.96994e-05
9.96994e-05
9.89483e-05
9.89483e-05
9.81825e-05
9.81825e-05
9.7409e-05
9.7409e-05
9.66355e-05
9.66355e-05
9.58703e-05
9.58703e-05
9.51228e-05
9.51228e-05
9.44027e-05
9.44027e-05
9.37205e-05
9.37205e-05
9.30872e-05
9.30872e-05
9.25138e-05
9.25138e-05
9.20116e-05
9.20116e-05
9.15916e-05
9.15916e-05
9.12642e-05
9.12642e-05
9.10386e-05
9.10386e-05
9.09227e-05
9.09227e-05
8.89512e-07
8.89512e-07
1.30706e-07
1.30706e-07
3.92545e-08
3.92545e-08
1.75251e-08
1.75251e-08
1.08648e-08
1.08648e-08
9.66793e-09
9.66793e-09
1.1687e-08
1.1687e-08
1.64929e-08
1.64929e-08
2.42662e-08
2.42662e-08
3.54568e-08
3.54568e-08
5.06689e-08
5.06689e-08
7.0618e-08
7.0618e-08
9.61133e-08
9.61133e-08
1.2805e-07
1.2805e-07
1.67409e-07
1.67409e-07
2.15248e-07
2.15248e-07
2.72711e-07
2.72711e-07
3.41017e-07
3.41017e-07
4.21462e-07
4.21462e-07
5.15413e-07
5.15413e-07
6.24306e-07
6.24306e-07
7.49633e-07
7.49633e-07
8.92937e-07
8.92937e-07
1.0558e-06
1.0558e-06
1.23982e-06
1.23982e-06
1.44662e-06
1.44662e-06
1.6778e-06
1.6778e-06
1.93494e-06
1.93494e-06
2.21956e-06
2.21956e-06
2.53311e-06
2.53311e-06
2.87696e-06
2.87696e-06
3.25233e-06
3.25233e-06
3.66033e-06
3.66033e-06
4.10187e-06
4.10187e-06
4.57772e-06
4.57772e-06
5.08839e-06
5.08839e-06
5.63419e-06
5.63419e-06
6.21521e-06
6.21521e-06
6.83126e-06
6.83126e-06
7.48189e-06
7.48189e-06
8.16643e-06
8.16643e-06
8.88389e-06
8.88389e-06
9.63307e-06
9.63307e-06
1.04125e-05
1.04125e-05
1.12204e-05
1.12204e-05
1.20549e-05
1.20549e-05
1.29139e-05
1.29139e-05
1.37949e-05
1.37949e-05
1.46954e-05
1.46954e-05
1.56129e-05
1.56129e-05
1.65445e-05
1.65445e-05
1.74873e-05
1.74873e-05
1.84384e-05
1.84384e-05
1.93949e-05
1.93949e-05
2.03536e-05
2.03536e-05
2.13117e-05
2.13117e-05
2.22661e-05
2.22661e-05
2.3214e-05
2.3214e-05
2.41525e-05
2.41525e-05
2.5079e-05
2.5079e-05
2.59909e-05
2.59909e-05
2.68856e-05
2.68856e-05
2.7761e-05
2.7761e-05
2.86149e-05
2.86149e-05
2.94453e-05
2.94453e-05
3.02505e-05
3.02505e-05
3.1029e-05
3.1029e-05
3.17793e-05
3.17793e-05
3.25002e-05
3.25002e-05
3.31909e-05
3.31909e-05
3.38506e-05
3.38506e-05
3.44786e-05
3.44786e-05
3.50747e-05
3.50747e-05
3.56386e-05
3.56386e-05
3.61704e-05
3.61704e-05
3.66703e-05
3.66703e-05
3.71385e-05
3.71385e-05
3.75757e-05
3.75757e-05
3.79824e-05
3.79824e-05
3.83596e-05
3.83596e-05
3.8708e-05
3.8708e-05
3.90288e-05
3.90288e-05
3.93232e-05
3.93232e-05
3.95922e-05
3.95922e-05
3.98374e-05
3.98374e-05
4.00601e-05
4.00601e-05
4.02617e-05
4.02617e-05
4.04439e-05
4.04439e-05
4.0608e-05
4.0608e-05
4.07558e-05
4.07558e-05
4.08888e-05
4.08888e-05
4.10086e-05
4.10086e-05
4.11169e-05
4.11169e-05
4.12152e-05
4.12152e-05
4.13052e-05
4.13052e-05
4.13885e-05
4.13885e-05
4.14667e-05
4.14667e-05
4.15411e-05
4.15411e-05
4.16134e-05
4.16134e-05
4.1685e-05
4.1685e-05
4.17573e-05
4.17573e-05
4.18316e-05
4.18316e-05
4.19093e-05
4.19093e-05
4.19916e-05
4.19916e-05
4.20797e-05
4.20797e-05
4.21748e-05
4.21748e-05
4.22778e-05
4.22778e-05
4.23899e-05
4.23899e-05
4.2512e-05
4.2512e-05
4.26449e-05
4.26449e-05
4.27894e-05
4.27894e-05
4.29464e-05
4.29464e-05
4.31166e-05
4.31166e-05
4.33004e-05
4.33004e-05
4.34986e-05
4.34986e-05
4.37116e-05
4.37116e-05
4.39398e-05
4.39398e-05
4.41836e-05
4.41836e-05
4.44433e-05
4.44433e-05
4.47192e-05
4.47192e-05
4.50113e-05
4.50113e-05
4.53199e-05
4.53199e-05
4.56449e-05
4.56449e-05
4.59864e-05
4.59864e-05
4.63442e-05
4.63442e-05
4.67183e-05
4.67183e-05
4.71083e-05
4.71083e-05
4.75142e-05
4.75142e-05
4.79354e-05
4.79354e-05
4.83717e-05
4.83717e-05
4.88225e-05
4.88225e-05
4.92875e-05
4.92875e-05
4.97659e-05
4.97659e-05
5.02571e-05
5.02571e-05
5.07605e-05
5.07605e-05
5.12752e-05
5.12752e-05
5.18004e-05
5.18004e-05
5.23353e-05
5.23353e-05
5.28788e-05
5.28788e-05
5.34298e-05
5.34298e-05
5.39873e-05
5.39873e-05
5.455e-05
5.455e-05
5.51166e-05
5.51166e-05
5.56858e-05
5.56858e-05
5.62562e-05
5.62562e-05
5.6826e-05
5.6826e-05
5.73937e-05
5.73937e-05
5.79576e-05
5.79576e-05
5.85159e-05
5.85159e-05
5.90667e-05
5.90667e-05
5.96081e-05
5.96081e-05
6.01382e-05
6.01382e-05
6.0655e-05
6.0655e-05
6.11567e-05
6.11567e-05
6.16415e-05
6.16415e-05
6.21078e-05
6.21078e-05
6.2554e-05
6.2554e-05
6.29791e-05
6.29791e-05
6.3382e-05
6.3382e-05
6.37622e-05
6.37622e-05
6.41193e-05
6.41193e-05
6.44534e-05
6.44534e-05
6.47648e-05
6.47648e-05
6.50542e-05
6.50542e-05
6.53225e-05
6.53225e-05
6.55708e-05
6.55708e-05
6.58004e-05
6.58004e-05
6.60126e-05
6.60126e-05
6.6209e-05
6.6209e-05
6.6391e-05
6.6391e-05
6.65601e-05
6.65601e-05
6.67177e-05
6.67177e-05
6.68651e-05
6.68651e-05
6.70036e-05
6.70036e-05
6.71345e-05
6.71345e-05
6.72589e-05
6.72589e-05
6.73777e-05
6.73777e-05
6.7492e-05
6.7492e-05
6.76027e-05
6.76027e-05
6.77104e-05
6.77104e-05
6.78161e-05
6.78161e-05
6.79202e-05
6.79202e-05
6.80235e-05
6.80235e-05
6.81265e-05
6.81265e-05
6.82298e-05
6.82298e-05
6.83338e-05
6.83338e-05
6.84389e-05
6.84389e-05
6.85456e-05
6.85456e-05
6.86544e-05
6.86544e-05
6.87655e-05
6.87655e-05
6.88793e-05
6.88793e-05
6.89963e-05
6.89963e-05
6.91166e-05
6.91166e-05
6.92406e-05
6.92406e-05
6.93687e-05
6.93687e-05
6.95011e-05
6.95011e-05
6.96382e-05
6.96382e-05
6.97801e-05
6.97801e-05
6.99272e-05
6.99272e-05
7.00798e-05
7.00798e-05
7.0238e-05
7.0238e-05
7.04023e-05
7.04023e-05
7.05728e-05
7.05728e-05
7.07499e-05
7.07499e-05
7.09337e-05
7.09337e-05
7.11245e-05
7.11245e-05
7.13225e-05
7.13225e-05
7.15281e-05
7.15281e-05
7.17414e-05
7.17414e-05
7.19627e-05
7.19627e-05
7.21921e-05
7.21921e-05
7.243e-05
7.243e-05
7.26766e-05
7.26766e-05
7.2932e-05
7.2932e-05
7.31964e-05
7.31964e-05
7.34702e-05
7.34702e-05
7.37534e-05
7.37534e-05
7.40462e-05
7.40462e-05
7.43489e-05
7.43489e-05
7.46616e-05
7.46616e-05
7.49844e-05
7.49844e-05
7.53175e-05
7.53175e-05
7.56611e-05
7.56611e-05
7.60152e-05
7.60152e-05
7.638e-05
7.638e-05
7.67555e-05
7.67555e-05
7.71419e-05
7.71419e-05
7.75392e-05
7.75392e-05
7.79475e-05
7.79475e-05
7.83668e-05
7.83668e-05
7.8797e-05
7.8797e-05
7.92383e-05
7.92383e-05
7.96905e-05
7.96905e-05
8.01536e-05
8.01536e-05
8.06276e-05
8.06276e-05
8.11123e-05
8.11123e-05
8.16077e-05
8.16077e-05
8.21135e-05
8.21135e-05
8.26296e-05
8.26296e-05
8.31558e-05
8.31558e-05
8.36919e-05
8.36919e-05
8.42376e-05
8.42376e-05
8.47926e-05
8.47926e-05
8.53565e-05
8.53565e-05
8.5929e-05
8.5929e-05
8.65098e-05
8.65098e-05
8.70983e-05
8.70983e-05
8.76941e-05
8.76941e-05
8.82966e-05
8.82966e-05
8.89054e-05
8.89054e-05
8.95198e-05
8.95198e-05
9.01391e-05
9.01391e-05
9.07628e-05
9.07628e-05
9.139e-05
9.139e-05
9.20201e-05
9.20201e-05
9.26521e-05
9.26521e-05
9.32852e-05
9.32852e-05
9.39185e-05
9.39185e-05
9.45511e-05
9.45511e-05
9.51819e-05
9.51819e-05
9.58099e-05
9.58099e-05
9.6434e-05
9.6434e-05
9.7053e-05
9.7053e-05
9.76657e-05
9.76657e-05
9.82708e-05
9.82708e-05
9.88671e-05
9.88671e-05
9.94533e-05
9.94533e-05
0.000100028
0.000100028
0.000100589
0.000100589
0.000101136
0.000101136
0.000101667
0.000101667
0.000102181
0.000102181
0.000102675
0.000102675
0.000103149
0.000103149
0.0001036
0.0001036
0.000104026
0.000104026
0.000104427
0.000104427
0.000104801
0.000104801
0.000105145
0.000105145
0.000105458
0.000105458
0.000105738
0.000105738
0.000105984
0.000105984
0.000106194
0.000106194
0.000106366
0.000106366
0.000106499
0.000106499
0.00010659
0.00010659
0.00010664
0.00010664
0.000106646
0.000106646
0.000106606
0.000106606
0.000106521
0.000106521
0.000106389
0.000106389
0.000106209
0.000106209
0.000105981
0.000105981
0.000105704
0.000105704
0.000105379
0.000105379
0.000105005
0.000105005
0.000104584
0.000104584
0.000104115
0.000104115
0.000103601
0.000103601
0.000103043
0.000103043
0.000102444
0.000102444
0.000101806
0.000101806
0.000101133
0.000101133
0.00010043
0.00010043
9.96994e-05
9.96994e-05
9.89483e-05
9.89483e-05
9.81825e-05
9.81825e-05
9.7409e-05
9.7409e-05
9.66355e-05
9.66355e-05
9.58703e-05
9.58703e-05
9.51228e-05
9.51228e-05
9.44027e-05
9.44027e-05
9.37205e-05
9.37205e-05
9.30872e-05
9.30872e-05
9.25138e-05
9.25138e-05
9.20116e-05
9.20116e-05
9.15916e-05
9.15916e-05
9.12642e-05
9.12642e-05
9.10386e-05
9.10386e-05
9.09227e-05
9.09227e-05
9.09226e-05
9.09226e-05
9.10385e-05
9.10385e-05
9.12641e-05
9.12641e-05
9.15915e-05
9.15915e-05
9.20114e-05
9.20115e-05
9.25136e-05
9.25136e-05
9.30869e-05
9.30869e-05
9.37202e-05
9.37202e-05
9.44024e-05
9.44024e-05
9.51225e-05
9.51225e-05
9.587e-05
9.587e-05
9.66351e-05
9.66351e-05
9.74087e-05
9.74087e-05
9.81822e-05
9.81822e-05
9.8948e-05
9.8948e-05
9.9699e-05
9.9699e-05
0.000100429
0.000100429
0.000101133
0.000101133
0.000101806
0.000101806
0.000102444
0.000102444
0.000103043
0.000103043
0.000103601
0.000103601
0.000104115
0.000104115
0.000104583
0.000104583
0.000105005
0.000105005
0.000105379
0.000105379
0.000105704
0.000105704
0.000105981
0.000105981
0.000106209
0.000106209
0.000106389
0.000106389
0.000106521
0.000106521
0.000106607
0.000106607
0.000106646
0.000106646
0.00010664
0.00010664
0.000106591
0.000106591
0.000106499
0.000106499
0.000106366
0.000106366
0.000106194
0.000106194
0.000105985
0.000105985
0.000105739
0.000105739
0.000105458
0.000105458
0.000105145
0.000105145
0.000104801
0.000104801
0.000104428
0.000104428
0.000104027
0.000104027
0.0001036
0.0001036
0.000103149
0.000103149
0.000102676
0.000102676
0.000102182
0.000102182
0.000101668
0.000101668
0.000101137
0.000101137
0.00010059
0.00010059
0.000100028
0.000100028
9.94539e-05
9.94539e-05
9.88678e-05
9.88678e-05
9.82715e-05
9.82715e-05
9.76663e-05
9.76663e-05
9.70536e-05
9.70536e-05
9.64346e-05
9.64346e-05
9.58106e-05
9.58106e-05
9.51826e-05
9.51826e-05
9.45518e-05
9.45518e-05
9.39192e-05
9.39192e-05
9.32858e-05
9.32858e-05
9.26527e-05
9.26527e-05
9.20207e-05
9.20207e-05
9.13906e-05
9.13906e-05
9.07634e-05
9.07634e-05
9.01397e-05
9.01397e-05
8.95204e-05
8.95204e-05
8.8906e-05
8.8906e-05
8.82972e-05
8.82972e-05
8.76946e-05
8.76946e-05
8.70988e-05
8.70988e-05
8.65103e-05
8.65103e-05
8.59295e-05
8.59295e-05
8.5357e-05
8.5357e-05
8.4793e-05
8.4793e-05
8.42381e-05
8.42381e-05
8.36924e-05
8.36924e-05
8.31563e-05
8.31563e-05
8.263e-05
8.263e-05
8.21139e-05
8.21139e-05
8.16081e-05
8.16081e-05
8.11127e-05
8.11127e-05
8.0628e-05
8.0628e-05
8.0154e-05
8.0154e-05
7.96908e-05
7.96908e-05
7.92386e-05
7.92386e-05
7.87973e-05
7.87973e-05
7.83671e-05
7.83671e-05
7.79478e-05
7.79478e-05
7.75395e-05
7.75395e-05
7.71422e-05
7.71422e-05
7.67558e-05
7.67558e-05
7.63802e-05
7.63802e-05
7.60155e-05
7.60155e-05
7.56613e-05
7.56613e-05
7.53178e-05
7.53178e-05
7.49846e-05
7.49846e-05
7.46618e-05
7.46618e-05
7.43491e-05
7.43491e-05
7.40464e-05
7.40464e-05
7.37536e-05
7.37536e-05
7.34704e-05
7.34704e-05
7.31966e-05
7.31966e-05
7.29321e-05
7.29321e-05
7.26767e-05
7.26767e-05
7.24302e-05
7.24302e-05
7.21923e-05
7.21923e-05
7.19628e-05
7.19628e-05
7.17415e-05
7.17415e-05
7.15282e-05
7.15282e-05
7.13226e-05
7.13226e-05
7.11246e-05
7.11246e-05
7.09338e-05
7.09338e-05
7.075e-05
7.075e-05
7.05729e-05
7.05729e-05
7.04024e-05
7.04024e-05
7.02381e-05
7.02381e-05
7.00798e-05
7.00798e-05
6.99273e-05
6.99273e-05
6.97802e-05
6.97802e-05
6.96382e-05
6.96382e-05
6.95012e-05
6.95012e-05
6.93688e-05
6.93688e-05
6.92407e-05
6.92407e-05
6.91166e-05
6.91166e-05
6.89963e-05
6.89963e-05
6.88794e-05
6.88794e-05
6.87655e-05
6.87655e-05
6.86544e-05
6.86544e-05
6.85457e-05
6.85457e-05
6.84389e-05
6.84389e-05
6.83338e-05
6.83338e-05
6.82298e-05
6.82298e-05
6.81266e-05
6.81266e-05
6.80236e-05
6.80236e-05
6.79203e-05
6.79203e-05
6.78161e-05
6.78161e-05
6.77105e-05
6.77105e-05
6.76027e-05
6.76027e-05
6.74921e-05
6.74921e-05
6.73778e-05
6.73778e-05
6.72589e-05
6.72589e-05
6.71346e-05
6.71346e-05
6.70037e-05
6.70037e-05
6.68651e-05
6.68651e-05
6.67177e-05
6.67177e-05
6.65602e-05
6.65602e-05
6.63911e-05
6.63911e-05
6.62092e-05
6.62092e-05
6.60128e-05
6.60128e-05
6.58005e-05
6.58005e-05
6.55709e-05
6.55709e-05
6.53226e-05
6.53226e-05
6.50544e-05
6.50544e-05
6.4765e-05
6.4765e-05
6.44536e-05
6.44536e-05
6.41195e-05
6.41195e-05
6.37624e-05
6.37624e-05
6.33823e-05
6.33823e-05
6.29794e-05
6.29794e-05
6.25543e-05
6.25543e-05
6.21081e-05
6.21081e-05
6.16418e-05
6.16418e-05
6.11571e-05
6.11571e-05
6.06554e-05
6.06554e-05
6.01386e-05
6.01386e-05
5.96085e-05
5.96085e-05
5.90671e-05
5.90671e-05
5.85163e-05
5.85163e-05
5.79581e-05
5.79581e-05
5.73942e-05
5.73942e-05
5.68264e-05
5.68264e-05
5.62566e-05
5.62566e-05
5.56863e-05
5.56863e-05
5.51171e-05
5.51171e-05
5.45505e-05
5.45505e-05
5.39878e-05
5.39878e-05
5.34303e-05
5.34303e-05
5.28792e-05
5.28792e-05
5.23358e-05
5.23358e-05
5.18009e-05
5.18009e-05
5.12757e-05
5.12757e-05
5.0761e-05
5.0761e-05
5.02576e-05
5.02576e-05
4.97663e-05
4.97663e-05
4.92879e-05
4.92879e-05
4.8823e-05
4.8823e-05
4.83722e-05
4.83722e-05
4.79359e-05
4.79359e-05
4.75146e-05
4.75146e-05
4.71088e-05
4.71088e-05
4.67187e-05
4.67187e-05
4.63446e-05
4.63446e-05
4.59868e-05
4.59868e-05
4.56453e-05
4.56453e-05
4.53203e-05
4.53203e-05
4.50117e-05
4.50117e-05
4.47196e-05
4.47196e-05
4.44437e-05
4.44437e-05
4.4184e-05
4.4184e-05
4.39402e-05
4.39402e-05
4.3712e-05
4.3712e-05
4.3499e-05
4.3499e-05
4.33008e-05
4.33008e-05
4.31169e-05
4.31169e-05
4.29468e-05
4.29468e-05
4.27898e-05
4.27898e-05
4.26452e-05
4.26452e-05
4.25123e-05
4.25123e-05
4.23902e-05
4.23902e-05
4.22781e-05
4.22781e-05
4.21751e-05
4.21751e-05
4.208e-05
4.208e-05
4.19919e-05
4.19919e-05
4.19096e-05
4.19096e-05
4.18319e-05
4.18319e-05
4.17575e-05
4.17575e-05
4.16852e-05
4.16852e-05
4.16136e-05
4.16136e-05
4.15413e-05
4.15413e-05
4.14669e-05
4.14669e-05
4.13888e-05
4.13888e-05
4.13055e-05
4.13055e-05
4.12154e-05
4.12154e-05
4.11171e-05
4.11171e-05
4.10088e-05
4.10088e-05
4.08889e-05
4.08889e-05
4.0756e-05
4.0756e-05
4.06082e-05
4.06082e-05
4.0444e-05
4.0444e-05
4.02619e-05
4.02619e-05
4.00603e-05
4.00603e-05
3.98376e-05
3.98376e-05
3.95924e-05
3.95924e-05
3.93233e-05
3.93233e-05
3.9029e-05
3.9029e-05
3.87082e-05
3.87082e-05
3.83597e-05
3.83597e-05
3.79826e-05
3.79826e-05
3.75758e-05
3.75758e-05
3.71386e-05
3.71386e-05
3.66704e-05
3.66704e-05
3.61705e-05
3.61705e-05
3.56387e-05
3.56387e-05
3.50748e-05
3.50748e-05
3.44787e-05
3.44787e-05
3.38507e-05
3.38507e-05
3.3191e-05
3.3191e-05
3.25003e-05
3.25003e-05
3.17794e-05
3.17794e-05
3.10291e-05
3.10291e-05
3.02506e-05
3.02506e-05
2.94454e-05
2.94454e-05
2.8615e-05
2.8615e-05
2.77611e-05
2.77611e-05
2.68857e-05
2.68857e-05
2.59909e-05
2.59909e-05
2.50791e-05
2.50791e-05
2.41526e-05
2.41526e-05
2.3214e-05
2.3214e-05
2.22662e-05
2.22662e-05
2.13117e-05
2.13117e-05
2.03537e-05
2.03537e-05
1.93949e-05
1.93949e-05
1.84385e-05
1.84385e-05
1.74874e-05
1.74874e-05
1.65445e-05
1.65445e-05
1.56129e-05
1.56129e-05
1.46955e-05
1.46955e-05
1.37949e-05
1.37949e-05
1.29139e-05
1.29139e-05
1.2055e-05
1.2055e-05
1.12204e-05
1.12204e-05
1.04125e-05
1.04125e-05
9.63309e-06
9.63309e-06
8.88392e-06
8.88392e-06
8.16645e-06
8.16645e-06
7.48192e-06
7.48192e-06
6.83127e-06
6.83127e-06
6.21523e-06
6.21523e-06
5.63421e-06
5.63421e-06
5.0884e-06
5.0884e-06
4.57773e-06
4.57773e-06
4.10189e-06
4.10189e-06
3.66034e-06
3.66034e-06
3.25234e-06
3.25234e-06
2.87696e-06
2.87696e-06
2.53312e-06
2.53312e-06
2.21956e-06
2.21956e-06
1.93495e-06
1.93495e-06
1.67781e-06
1.67781e-06
1.44663e-06
1.44663e-06
1.23983e-06
1.23983e-06
1.0558e-06
1.0558e-06
8.92939e-07
8.92939e-07
7.49634e-07
7.49634e-07
6.24307e-07
6.24307e-07
5.15415e-07
5.15415e-07
4.21463e-07
4.21463e-07
3.41018e-07
3.41018e-07
2.72712e-07
2.72712e-07
2.15249e-07
2.15249e-07
1.67409e-07
1.67409e-07
1.28051e-07
1.28051e-07
9.61136e-08
9.61136e-08
7.06182e-08
7.06182e-08
5.0669e-08
5.0669e-08
3.54569e-08
3.54569e-08
2.42663e-08
2.42663e-08
1.64929e-08
1.64929e-08
1.1687e-08
1.1687e-08
9.66787e-09
9.66787e-09
1.08647e-08
1.08647e-08
1.75249e-08
1.75249e-08
3.92541e-08
3.92541e-08
1.30704e-07
1.30704e-07
8.89506e-07
8.89506e-07
9.09226e-05
9.09226e-05
9.10385e-05
9.10385e-05
9.12641e-05
9.12641e-05
9.15915e-05
9.15915e-05
9.20115e-05
9.20115e-05
9.25136e-05
9.25136e-05
9.30869e-05
9.30869e-05
9.37202e-05
9.37203e-05
9.44024e-05
9.44024e-05
9.51225e-05
9.51225e-05
9.587e-05
9.587e-05
9.66351e-05
9.66351e-05
9.74087e-05
9.74087e-05
9.81822e-05
9.81822e-05
9.8948e-05
9.8948e-05
9.9699e-05
9.96991e-05
0.000100429
0.000100429
0.000101133
0.000101133
0.000101806
0.000101806
0.000102444
0.000102444
0.000103043
0.000103043
0.000103601
0.000103601
0.000104115
0.000104115
0.000104583
0.000104583
0.000105005
0.000105005
0.000105379
0.000105379
0.000105704
0.000105704
0.000105981
0.000105981
0.000106209
0.000106209
0.000106389
0.000106389
0.000106521
0.000106521
0.000106607
0.000106607
0.000106646
0.000106646
0.00010664
0.00010664
0.000106591
0.000106591
0.000106499
0.000106499
0.000106366
0.000106366
0.000106194
0.000106194
0.000105985
0.000105985
0.000105739
0.000105739
0.000105458
0.000105458
0.000105145
0.000105145
0.000104801
0.000104801
0.000104428
0.000104428
0.000104027
0.000104027
0.0001036
0.0001036
0.000103149
0.000103149
0.000102676
0.000102676
0.000102182
0.000102182
0.000101668
0.000101668
0.000101137
0.000101137
0.00010059
0.00010059
0.000100028
0.000100028
9.94539e-05
9.94539e-05
9.88678e-05
9.88678e-05
9.82715e-05
9.82715e-05
9.76663e-05
9.76663e-05
9.70536e-05
9.70536e-05
9.64346e-05
9.64346e-05
9.58106e-05
9.58106e-05
9.51826e-05
9.51826e-05
9.45518e-05
9.45518e-05
9.39192e-05
9.39192e-05
9.32858e-05
9.32858e-05
9.26527e-05
9.26527e-05
9.20207e-05
9.20207e-05
9.13906e-05
9.13906e-05
9.07634e-05
9.07634e-05
9.01397e-05
9.01397e-05
8.95204e-05
8.95204e-05
8.8906e-05
8.8906e-05
8.82972e-05
8.82972e-05
8.76946e-05
8.76946e-05
8.70988e-05
8.70988e-05
8.65103e-05
8.65103e-05
8.59295e-05
8.59295e-05
8.5357e-05
8.5357e-05
8.4793e-05
8.4793e-05
8.42381e-05
8.42381e-05
8.36924e-05
8.36924e-05
8.31563e-05
8.31563e-05
8.263e-05
8.263e-05
8.21139e-05
8.21139e-05
8.16081e-05
8.16081e-05
8.11127e-05
8.11127e-05
8.0628e-05
8.0628e-05
8.0154e-05
8.0154e-05
7.96908e-05
7.96908e-05
7.92386e-05
7.92386e-05
7.87973e-05
7.87973e-05
7.83671e-05
7.83671e-05
7.79478e-05
7.79478e-05
7.75395e-05
7.75395e-05
7.71422e-05
7.71422e-05
7.67558e-05
7.67558e-05
7.63802e-05
7.63802e-05
7.60155e-05
7.60155e-05
7.56613e-05
7.56613e-05
7.53178e-05
7.53178e-05
7.49846e-05
7.49846e-05
7.46618e-05
7.46618e-05
7.43491e-05
7.43491e-05
7.40464e-05
7.40464e-05
7.37536e-05
7.37536e-05
7.34704e-05
7.34704e-05
7.31966e-05
7.31966e-05
7.29321e-05
7.29321e-05
7.26767e-05
7.26767e-05
7.24302e-05
7.24302e-05
7.21923e-05
7.21923e-05
7.19628e-05
7.19628e-05
7.17415e-05
7.17415e-05
7.15282e-05
7.15282e-05
7.13226e-05
7.13226e-05
7.11246e-05
7.11246e-05
7.09338e-05
7.09338e-05
7.075e-05
7.075e-05
7.05729e-05
7.05729e-05
7.04024e-05
7.04024e-05
7.02381e-05
7.02381e-05
7.00798e-05
7.00798e-05
6.99273e-05
6.99273e-05
6.97802e-05
6.97802e-05
6.96382e-05
6.96382e-05
6.95012e-05
6.95012e-05
6.93688e-05
6.93688e-05
6.92407e-05
6.92407e-05
6.91166e-05
6.91166e-05
6.89963e-05
6.89963e-05
6.88794e-05
6.88794e-05
6.87655e-05
6.87655e-05
6.86544e-05
6.86544e-05
6.85457e-05
6.85457e-05
6.84389e-05
6.84389e-05
6.83338e-05
6.83338e-05
6.82298e-05
6.82298e-05
6.81266e-05
6.81266e-05
6.80236e-05
6.80236e-05
6.79203e-05
6.79203e-05
6.78161e-05
6.78161e-05
6.77105e-05
6.77105e-05
6.76027e-05
6.76027e-05
6.74921e-05
6.74921e-05
6.73778e-05
6.73778e-05
6.72589e-05
6.72589e-05
6.71346e-05
6.71346e-05
6.70037e-05
6.70037e-05
6.68651e-05
6.68651e-05
6.67177e-05
6.67177e-05
6.65602e-05
6.65602e-05
6.63911e-05
6.63911e-05
6.62092e-05
6.62092e-05
6.60128e-05
6.60128e-05
6.58005e-05
6.58005e-05
6.55709e-05
6.55709e-05
6.53226e-05
6.53226e-05
6.50544e-05
6.50544e-05
6.4765e-05
6.4765e-05
6.44536e-05
6.44536e-05
6.41195e-05
6.41195e-05
6.37624e-05
6.37624e-05
6.33823e-05
6.33823e-05
6.29794e-05
6.29794e-05
6.25543e-05
6.25543e-05
6.21081e-05
6.21081e-05
6.16418e-05
6.16418e-05
6.11571e-05
6.11571e-05
6.06554e-05
6.06554e-05
6.01386e-05
6.01386e-05
5.96085e-05
5.96085e-05
5.90671e-05
5.90671e-05
5.85163e-05
5.85163e-05
5.79581e-05
5.79581e-05
5.73942e-05
5.73942e-05
5.68264e-05
5.68264e-05
5.62566e-05
5.62566e-05
5.56863e-05
5.56863e-05
5.51171e-05
5.51171e-05
5.45505e-05
5.45505e-05
5.39878e-05
5.39878e-05
5.34303e-05
5.34303e-05
5.28792e-05
5.28792e-05
5.23358e-05
5.23358e-05
5.18009e-05
5.18009e-05
5.12757e-05
5.12757e-05
5.07609e-05
5.07609e-05
5.02576e-05
5.02576e-05
4.97663e-05
4.97663e-05
4.92879e-05
4.92879e-05
4.8823e-05
4.8823e-05
4.83722e-05
4.83722e-05
4.79359e-05
4.79359e-05
4.75146e-05
4.75146e-05
4.71088e-05
4.71088e-05
4.67187e-05
4.67187e-05
4.63446e-05
4.63446e-05
4.59868e-05
4.59868e-05
4.56453e-05
4.56453e-05
4.53203e-05
4.53203e-05
4.50117e-05
4.50117e-05
4.47196e-05
4.47196e-05
4.44437e-05
4.44437e-05
4.4184e-05
4.4184e-05
4.39402e-05
4.39402e-05
4.3712e-05
4.3712e-05
4.3499e-05
4.3499e-05
4.33008e-05
4.33008e-05
4.31169e-05
4.31169e-05
4.29468e-05
4.29468e-05
4.27898e-05
4.27898e-05
4.26452e-05
4.26452e-05
4.25123e-05
4.25123e-05
4.23902e-05
4.23902e-05
4.22781e-05
4.22781e-05
4.21751e-05
4.21751e-05
4.208e-05
4.208e-05
4.19919e-05
4.19919e-05
4.19096e-05
4.19096e-05
4.18319e-05
4.18319e-05
4.17575e-05
4.17575e-05
4.16852e-05
4.16852e-05
4.16136e-05
4.16136e-05
4.15413e-05
4.15413e-05
4.14669e-05
4.14669e-05
4.13888e-05
4.13888e-05
4.13055e-05
4.13055e-05
4.12154e-05
4.12154e-05
4.11171e-05
4.11171e-05
4.10088e-05
4.10088e-05
4.08889e-05
4.08889e-05
4.0756e-05
4.0756e-05
4.06082e-05
4.06082e-05
4.0444e-05
4.0444e-05
4.02619e-05
4.02619e-05
4.00603e-05
4.00603e-05
3.98376e-05
3.98376e-05
3.95924e-05
3.95924e-05
3.93233e-05
3.93233e-05
3.9029e-05
3.9029e-05
3.87082e-05
3.87082e-05
3.83597e-05
3.83597e-05
3.79826e-05
3.79826e-05
3.75758e-05
3.75758e-05
3.71386e-05
3.71386e-05
3.66704e-05
3.66704e-05
3.61705e-05
3.61705e-05
3.56387e-05
3.56387e-05
3.50748e-05
3.50748e-05
3.44787e-05
3.44787e-05
3.38507e-05
3.38507e-05
3.3191e-05
3.3191e-05
3.25003e-05
3.25003e-05
3.17794e-05
3.17794e-05
3.10291e-05
3.10291e-05
3.02506e-05
3.02506e-05
2.94454e-05
2.94454e-05
2.8615e-05
2.8615e-05
2.77611e-05
2.77611e-05
2.68857e-05
2.68857e-05
2.59909e-05
2.59909e-05
2.50791e-05
2.50791e-05
2.41526e-05
2.41526e-05
2.3214e-05
2.3214e-05
2.22662e-05
2.22662e-05
2.13117e-05
2.13117e-05
2.03537e-05
2.03537e-05