/*--------------------------------*- C++ -*----------------------------------*\
| =========                 |                                                 |
| \\      /  F ield         | OpenFOAM: The Open Source CFD Toolbox           |
|  \\    /   O peration     | Version:  2012                                  |
|   \\  /    A nd           | Website:  www.openfoam.com                      |
|    \\/     M anipulation  |                                                 |
\*---------------------------------------------------------------------------*/
FoamFile
{
    version     2.0;
    format      ascii;
    class       volScalarField;
    location    "10200";
    object      nut;
}
// * * * * * * * * * * * * * * * * * * * * * * * * * * * * * * * * * * * * * //

dimensions      [0 2 -1 0 0 0 0];


internalField   nonuniform List<scalar> 
2560
(
9.91899e-10
9.91494e-10
1.55672e-07
1.55613e-07
3.29111e-06
3.2899e-06
2.49597e-05
2.49512e-05
0.000100355
0.000100326
0.000255179
0.000255122
0.000483339
0.000483256
0.000768347
0.000768239
0.00109747
0.00109734
0.00146248
0.00146233
0.00185801
0.00185784
0.0022804
0.00228021
0.00272701
0.00272681
0.00319586
0.00319564
0.00368539
0.00368515
0.00419434
0.00419409
0.00472166
0.00472139
0.00526646
0.00526618
0.00582794
0.00582765
0.00640542
0.00640511
0.00699823
0.00699791
0.00760579
0.00760545
0.00822751
0.00822716
0.00886286
0.0088625
0.00951132
0.00951095
0.0101724
0.010172
0.0108456
0.0108453
0.0115305
0.0115301
0.0122267
0.0122263
0.0129336
0.0129331
0.0136508
0.0136503
0.0143778
0.0143774
0.0151144
0.0151139
0.0158598
0.0158594
0.0166138
0.0166133
0.0173757
0.0173753
0.0181451
0.0181447
0.0189215
0.018921
0.0197043
0.0197039
0.0204932
0.0204927
0.0212875
0.021287
0.0220868
0.0220864
0.0228908
0.0228903
0.0236988
0.0236983
0.0245102
0.0245097
0.0253244
0.0253239
0.0261405
0.02614
0.0269573
0.0269569
0.0277736
0.0277731
0.0285875
0.028587
0.0293971
0.0293966
0.0301998
0.0301993
0.0309929
0.0309924
0.0317732
0.0317728
0.0325383
0.0325378
0.0332869
0.0332864
0.0340206
0.0340201
0.0347448
0.0347443
0.0354675
0.035467
0.0361975
0.036197
0.0369356
0.0369351
0.0376717
0.0376712
0.0383829
0.0383824
0.0390375
0.039037
0.0396029
0.0396024
0.0400548
0.0400544
0.0403832
0.0403828
0.0405927
0.0405923
0.0407002
0.0406999
0.0407294
0.0407291
0.0407054
0.0407052
0.0406512
0.040651
0.0405852
0.040585
0.0405204
0.0405201
0.0404647
0.0404645
0.0404221
0.0404219
0.0403931
0.0403929
0.0403754
0.0403752
0.0403656
0.0403654
0.0403597
0.0403594
0.0403536
0.0403534
0.0403438
0.0403436
0.0403272
0.040327
0.0403012
0.040301
0.0402639
0.0402637
0.0402135
0.0402133
0.0401485
0.0401484
0.0400678
0.0400676
0.03997
0.0399699
0.0398545
0.0398544
0.0397209
0.0397209
0.0395697
0.0395697
0.0394023
0.0394023
0.039221
0.0392209
0.0390289
0.0390289
0.0388301
0.0388301
0.0386285
0.0386285
0.0384276
0.0384276
0.0382303
0.0382303
0.0380383
0.0380383
0.0378521
0.0378521
0.037671
0.037671
0.0374939
0.0374939
0.0373194
0.0373194
0.0371467
0.0371467
0.0369754
0.0369755
0.0368062
0.0368062
0.0366401
0.0366401
0.036479
0.036479
0.036325
0.036325
0.03618
0.03618
0.0360454
0.0360454
0.0359218
0.0359218
0.0358081
0.0358081
0.035702
0.035702
0.0356002
0.0356002
0.0354981
0.0354981
0.0353911
0.0353911
0.0352751
0.0352751
0.0351472
0.0351472
0.0350068
0.0350068
0.0348552
0.0348553
0.0346962
0.0346962
0.0345346
0.0345346
0.0343758
0.0343758
0.0342243
0.0342243
0.0340831
0.0340832
0.0339532
0.0339533
0.0338328
0.0338328
0.0337191
0.0337191
0.0336088
0.0336088
0.0334993
0.0334993
0.0333887
0.0333887
0.0332768
0.0332769
0.0331645
0.0331645
0.0330534
0.0330534
0.0329456
0.0329457
0.0328435
0.0328435
0.0327488
0.0327489
0.0326634
0.0326634
0.0325883
0.0325883
0.0325244
0.0325244
0.032472
0.032472
0.0324311
0.0324311
0.0324012
0.0324012
0.0323814
0.0323813
0.0323705
0.0323705
0.0323676
0.0323675
0.0323717
0.0323716
0.0323824
0.0323824
0.0324002
0.0324001
0.0324258
0.0324258
0.032461
0.0324609
0.0325079
0.0325079
0.0325693
0.0325692
0.0326479
0.0326478
0.0327467
0.0327466
0.0328687
0.0328685
0.0330163
0.0330162
0.033192
0.0331919
0.0333979
0.0333977
0.0336356
0.0336354
0.0339063
0.033906
0.0342107
0.0342104
0.0345488
0.0345485
0.0349199
0.0349196
0.0353219
0.0353216
0.0357518
0.0357514
0.0362047
0.0362043
0.0366747
0.0366743
0.0371543
0.0371539
0.037635
0.0376346
0.0381082
0.0381077
0.0385654
0.038565
0.039
0.0389996
0.0394075
0.0394071
0.0397869
0.0397866
0.0401414
0.0401411
0.040478
0.0404778
0.0408078
0.0408076
0.0411445
0.0411444
0.0415024
0.0415023
0.0418943
0.0418941
0.0423296
0.0423294
0.0428107
0.0428105
0.0433341
0.0433338
0.0438904
0.0438902
0.0444663
0.0444661
0.0450463
0.0450461
0.0456156
0.0456155
0.0461615
0.0461615
0.0466746
0.0466746
0.0471494
0.0471495
0.0475844
0.0475844
0.0479811
0.0479812
0.0483442
0.0483444
0.0486802
0.0486804
0.048997
0.0489971
0.0493034
0.0493035
0.0496082
0.0496083
0.0499205
0.0499206
0.0502488
0.0502488
0.0506008
0.0506009
0.050984
0.050984
0.0514047
0.0514047
0.0518687
0.0518687
0.0523811
0.052381
0.0529461
0.052946
0.0535676
0.0535675
0.0542484
0.0542483
0.0549907
0.0549905
0.0557952
0.0557951
0.0566611
0.0566609
0.0575853
0.0575851
0.0585619
0.0585617
0.059582
0.0595817
0.0606327
0.0606325
0.0616982
0.061698
0.0627595
0.0627592
0.0637959
0.0637957
0.0647868
0.0647866
0.0657132
0.065713
0.0665601
0.0665599
0.0673186
0.0673184
0.0679877
0.0679876
0.0685758
0.0685757
0.069101
0.069101
0.0695899
0.0695899
0.0700744
0.0700744
0.0705871
0.0705871
0.0711552
0.0711552
0.0717965
0.0717965
0.0725145
0.0725144
0.0732965
0.0732964
0.0741232
0.0741231
0.0749729
0.0749729
0.0758282
0.0758281
0.0766804
0.0766803
0.077532
0.077532
0.0783962
0.0783961
0.0792937
0.0792937
0.0802491
0.0802491
0.0812862
0.0812861
0.0824245
0.0824244
0.0836784
0.0836783
0.0850557
0.0850556
0.0865609
0.0865608
0.0881967
0.0881966
0.0899664
0.0899663
0.0918746
0.0918745
0.093928
0.0939278
0.0961339
0.0961338
0.0984996
0.0984995
0.101031
0.10103
0.10373
0.10373
0.106597
0.106597
0.109631
0.109631
0.112828
0.112828
0.116185
0.116184
0.119698
0.119698
0.123365
0.123365
0.127188
0.127188
0.131167
0.131167
0.135306
0.135306
0.13961
0.13961
0.144086
0.144086
0.148739
0.148739
0.153575
0.153575
0.158597
0.158597
0.163806
0.163806
0.169201
0.169201
0.17478
0.17478
0.180538
0.180538
0.18647
0.18647
0.192572
0.192572
0.198838
0.198838
0.205263
0.205263
0.211842
0.211842
0.218569
0.218569
0.225438
0.225438
0.232443
0.232443
0.239577
0.239577
0.246831
0.246831
0.254199
0.254199
0.261671
0.261671
0.26924
0.26924
0.276897
0.276897
0.284635
0.284635
0.292448
0.292448
0.30033
0.30033
0.308275
0.308275
0.316277
0.316277
0.324329
0.324329
0.332423
0.332423
0.34055
0.34055
0.348696
0.348696
0.356853
0.356853
0.365008
0.365008
0.373152
0.373152
0.381276
0.381276
0.389373
0.389373
0.397439
0.397439
0.405469
0.405469
0.413461
0.413461
0.421411
0.421411
0.429318
0.429318
0.437177
0.437177
0.444985
0.444985
0.452737
0.452737
0.46043
0.46043
0.468057
0.468057
0.475612
0.475612
0.48309
0.48309
0.490479
0.490479
0.497766
0.497766
0.504921
0.504921
0.511874
0.511874
0.518427
0.518427
0.523939
0.523939
0.523856
0.523856
9.91496e-10
9.91902e-10
1.55613e-07
1.55673e-07
3.2899e-06
3.29113e-06
2.49512e-05
2.49598e-05
0.000100327
0.000100355
0.000255123
0.000255179
0.000483257
0.000483341
0.00076824
0.000768348
0.00109734
0.00109747
0.00146233
0.00146248
0.00185784
0.00185801
0.00228022
0.0022804
0.00272681
0.00272702
0.00319564
0.00319587
0.00368516
0.00368539
0.00419409
0.00419435
0.0047214
0.00472167
0.00526618
0.00526646
0.00582765
0.00582795
0.00640512
0.00640543
0.00699792
0.00699824
0.00760546
0.00760579
0.00822717
0.00822751
0.00886251
0.00886287
0.00951096
0.00951133
0.010172
0.0101724
0.0108453
0.0108457
0.0115302
0.0115306
0.0122263
0.0122267
0.0129331
0.0129336
0.0136504
0.0136508
0.0143774
0.0143779
0.0151139
0.0151144
0.0158594
0.0158598
0.0166133
0.0166138
0.0173753
0.0173757
0.0181447
0.0181451
0.018921
0.0189215
0.0197039
0.0197044
0.0204927
0.0204932
0.021287
0.0212875
0.0220864
0.0220869
0.0228903
0.0228908
0.0236983
0.0236988
0.0245097
0.0245102
0.025324
0.0253244
0.02614
0.0261405
0.0269569
0.0269574
0.0277731
0.0277736
0.028587
0.0285875
0.0293966
0.0293971
0.0301994
0.0301998
0.0309924
0.0309929
0.0317728
0.0317733
0.0325378
0.0325383
0.0332864
0.0332869
0.0340201
0.0340206
0.0347443
0.0347448
0.035467
0.0354675
0.036197
0.0361975
0.0369351
0.0369356
0.0376712
0.0376717
0.0383824
0.038383
0.039037
0.0390375
0.0396024
0.0396029
0.0400544
0.0400549
0.0403828
0.0403832
0.0405924
0.0405927
0.0406999
0.0407002
0.0407291
0.0407294
0.0407052
0.0407054
0.040651
0.0406512
0.040585
0.0405852
0.0405202
0.0405204
0.0404645
0.0404648
0.0404219
0.0404221
0.0403929
0.0403932
0.0403752
0.0403754
0.0403654
0.0403656
0.0403595
0.0403597
0.0403534
0.0403536
0.0403436
0.0403438
0.040327
0.0403272
0.040301
0.0403012
0.0402637
0.0402639
0.0402133
0.0402135
0.0401484
0.0401486
0.0400677
0.0400678
0.0399699
0.03997
0.0398544
0.0398545
0.0397209
0.039721
0.0395697
0.0395698
0.0394023
0.0394023
0.0392209
0.039221
0.0390289
0.039029
0.0388301
0.0388301
0.0386285
0.0386285
0.0384276
0.0384276
0.0382303
0.0382303
0.0380383
0.0380383
0.0378521
0.0378521
0.037671
0.037671
0.0374939
0.0374939
0.0373194
0.0373194
0.0371467
0.0371467
0.0369755
0.0369755
0.0368062
0.0368062
0.0366401
0.0366401
0.036479
0.036479
0.036325
0.036325
0.03618
0.03618
0.0360455
0.0360455
0.0359218
0.0359218
0.0358081
0.0358081
0.035702
0.0357021
0.0356002
0.0356002
0.0354981
0.0354981
0.0353911
0.0353911
0.0352751
0.0352751
0.0351472
0.0351472
0.0350068
0.0350068
0.0348553
0.0348552
0.0346962
0.0346962
0.0345346
0.0345346
0.0343758
0.0343758
0.0342243
0.0342243
0.0340832
0.0340831
0.0339533
0.0339532
0.0338328
0.0338328
0.0337191
0.0337191
0.0336088
0.0336088
0.0334993
0.0334992
0.0333887
0.0333887
0.0332768
0.0332768
0.0331645
0.0331645
0.0330534
0.0330534
0.0329456
0.0329456
0.0328435
0.0328435
0.0327488
0.0327488
0.0326633
0.0326633
0.0325882
0.0325882
0.0325243
0.0325243
0.032472
0.032472
0.0324311
0.0324311
0.0324012
0.0324012
0.0323813
0.0323813
0.0323704
0.0323705
0.0323675
0.0323675
0.0323716
0.0323716
0.0323823
0.0323824
0.0324001
0.0324001
0.0324257
0.0324258
0.0324609
0.0324609
0.0325078
0.0325079
0.0325691
0.0325692
0.0326477
0.0326478
0.0327466
0.0327467
0.0328685
0.0328686
0.0330161
0.0330162
0.0331918
0.033192
0.0333976
0.0333978
0.0336353
0.0336355
0.0339059
0.0339062
0.0342103
0.0342106
0.0345484
0.0345487
0.0349194
0.0349198
0.0353214
0.0353218
0.0357512
0.0357516
0.0362042
0.0362046
0.0366741
0.0366746
0.0371537
0.0371542
0.0376344
0.0376349
0.0381075
0.038108
0.0385648
0.0385653
0.0389994
0.0389999
0.039407
0.0394074
0.0397865
0.0397868
0.0401409
0.0401412
0.0404776
0.0404779
0.0408075
0.0408077
0.0411442
0.0411444
0.0415021
0.0415023
0.0418939
0.0418941
0.0423291
0.0423294
0.0428102
0.0428105
0.0433335
0.0433338
0.0438898
0.0438901
0.0444657
0.0444659
0.0450458
0.045046
0.0456152
0.0456153
0.0461611
0.0461612
0.0466743
0.0466743
0.0471492
0.0471491
0.0475842
0.0475841
0.047981
0.0479809
0.0483441
0.048344
0.0486801
0.04868
0.0489969
0.0489968
0.0493033
0.0493032
0.0496081
0.049608
0.0499204
0.0499203
0.0502486
0.0502485
0.0506006
0.0506006
0.0509837
0.0509837
0.0514044
0.0514044
0.0518683
0.0518684
0.0523806
0.0523807
0.0529456
0.0529457
0.053567
0.0535671
0.0542477
0.0542479
0.0549899
0.0549901
0.0557943
0.0557946
0.0566601
0.0566604
0.0575842
0.0575845
0.0585608
0.0585611
0.0595807
0.0595811
0.0606314
0.0606318
0.0616969
0.0616973
0.0627582
0.0627586
0.0637947
0.0637951
0.0647857
0.0647861
0.0657122
0.0657126
0.0665592
0.0665596
0.0673179
0.0673182
0.0679872
0.0679875
0.0685755
0.0685758
0.0691009
0.0691011
0.0695899
0.06959
0.0700744
0.0700745
0.070587
0.0705871
0.0711549
0.0711551
0.0717961
0.0717963
0.0725139
0.0725141
0.0732957
0.073296
0.0741224
0.0741226
0.0749723
0.0749724
0.0758277
0.0758278
0.0766801
0.0766802
0.0775319
0.0775319
0.0783962
0.0783963
0.0792938
0.0792939
0.0802493
0.0802494
0.0812862
0.0812864
0.0824244
0.0824246
0.0836782
0.0836784
0.0850554
0.0850557
0.0865605
0.0865608
0.0881963
0.0881966
0.0899658
0.0899661
0.091874
0.0918743
0.0939273
0.0939276
0.0961332
0.0961336
0.0984987
0.0984992
0.101029
0.10103
0.103729
0.103729
0.106596
0.106596
0.10963
0.10963
0.112827
0.112827
0.116183
0.116184
0.119697
0.119697
0.123365
0.123365
0.127187
0.127188
0.131166
0.131167
0.135305
0.135306
0.13961
0.13961
0.144086
0.144086
0.148739
0.148739
0.153574
0.153575
0.158596
0.158597
0.163805
0.163806
0.169201
0.169201
0.174779
0.17478
0.180537
0.180538
0.186469
0.18647
0.192571
0.192571
0.198837
0.198837
0.205262
0.205262
0.211841
0.211841
0.218568
0.218568
0.225437
0.225438
0.232442
0.232443
0.239576
0.239576
0.24683
0.246831
0.254198
0.254199
0.26167
0.261671
0.269239
0.26924
0.276896
0.276897
0.284635
0.284635
0.292447
0.292448
0.300329
0.30033
0.308274
0.308274
0.316276
0.316276
0.324328
0.324329
0.332422
0.332423
0.340548
0.340549
0.348695
0.348696
0.356852
0.356852
0.365007
0.365008
0.373151
0.373151
0.381275
0.381276
0.389372
0.389373
0.397438
0.397439
0.405469
0.405469
0.41346
0.413461
0.421411
0.421411
0.429317
0.429317
0.437176
0.437176
0.444984
0.444984
0.452736
0.452737
0.460428
0.460429
0.468055
0.468056
0.47561
0.475611
0.483087
0.483088
0.490476
0.490477
0.497762
0.497762
0.504916
0.504916
0.511868
0.511869
0.51842
0.51842
0.523931
0.523931
0.523849
0.523849
0.523857
0.523857
0.523941
0.523941
0.518431
0.518431
0.511878
0.511878
0.504925
0.504925
0.49777
0.49777
0.490484
0.490484
0.483096
0.483096
0.475619
0.475619
0.468064
0.468064
0.460437
0.460437
0.452745
0.452745
0.444993
0.444993
0.437185
0.437185
0.429327
0.429327
0.421422
0.421422
0.413472
0.413472
0.405482
0.405482
0.397452
0.397452
0.389386
0.389386
0.381289
0.381289
0.373166
0.373166
0.365023
0.365023
0.356869
0.356869
0.348713
0.348713
0.340567
0.340567
0.332441
0.332441
0.324348
0.324348
0.316296
0.316296
0.308294
0.308294
0.30035
0.30035
0.292469
0.292469
0.284657
0.284657
0.276919
0.276919
0.269262
0.269262
0.261693
0.261693
0.25422
0.25422
0.246852
0.246852
0.239598
0.239598
0.232464
0.232464
0.225459
0.225459
0.218589
0.218589
0.211862
0.211862
0.205282
0.205282
0.198857
0.198857
0.192591
0.192591
0.186489
0.186489
0.180556
0.180556
0.174798
0.174797
0.169218
0.169218
0.163822
0.163822
0.158612
0.158612
0.15359
0.15359
0.148753
0.148753
0.1441
0.144099
0.139623
0.139623
0.135318
0.135318
0.131178
0.131178
0.127198
0.127198
0.123374
0.123374
0.119705
0.119705
0.116191
0.116191
0.112833
0.112833
0.109635
0.109635
0.1066
0.1066
0.103732
0.103732
0.101032
0.101032
0.0985005
0.0985003
0.096134
0.0961339
0.0939272
0.093927
0.0918729
0.0918727
0.0899638
0.0899636
0.0881934
0.0881933
0.086557
0.0865569
0.0850514
0.0850513
0.0836737
0.0836736
0.0824195
0.0824194
0.0812809
0.0812808
0.0802437
0.0802437
0.0792886
0.0792885
0.0783915
0.0783916
0.0775281
0.0775281
0.0766772
0.0766771
0.0758255
0.0758255
0.0749708
0.0749707
0.0741217
0.0741216
0.0732954
0.0732953
0.0725137
0.0725136
0.0717961
0.0717961
0.0711552
0.0711551
0.0705874
0.0705874
0.0700751
0.0700751
0.069591
0.069591
0.0691029
0.0691029
0.0685786
0.0685785
0.0679908
0.0679907
0.0673217
0.0673215
0.0665631
0.0665628
0.065716
0.0657157
0.0647893
0.064789
0.0637984
0.063798
0.062762
0.0627616
0.0617008
0.0617005
0.0606354
0.0606351
0.0595846
0.0595843
0.0585645
0.0585642
0.0575877
0.0575875
0.0566635
0.0566632
0.0557974
0.0557972
0.0549927
0.0549926
0.0542503
0.0542502
0.0535694
0.0535693
0.0529478
0.0529477
0.0523826
0.0523825
0.0518701
0.0518701
0.051406
0.051406
0.0509851
0.0509852
0.0506018
0.0506019
0.0502496
0.0502497
0.0499212
0.0499214
0.0496088
0.049609
0.0493039
0.0493041
0.0489975
0.0489978
0.0486806
0.0486809
0.0483444
0.0483448
0.0479812
0.0479816
0.0475844
0.0475847
0.0471494
0.0471497
0.0466744
0.0466746
0.046161
0.0461611
0.0456147
0.0456147
0.045045
0.045045
0.0444648
0.0444647
0.0438889
0.0438888
0.0433326
0.0433323
0.0428091
0.0428089
0.042328
0.0423278
0.0418926
0.0418924
0.0415007
0.0415006
0.0411428
0.0411426
0.0408061
0.0408059
0.0404763
0.040476
0.0401397
0.0401392
0.0397853
0.0397848
0.039406
0.0394054
0.0389986
0.0389979
0.0385639
0.0385632
0.0381065
0.0381058
0.0376332
0.0376324
0.0371523
0.0371516
0.0366726
0.0366719
0.0362024
0.0362018
0.0357493
0.0357487
0.0353193
0.0353187
0.0349171
0.0349166
0.0345459
0.0345454
0.0342076
0.0342071
0.033903
0.0339026
0.0336321
0.0336318
0.0333942
0.033394
0.0331882
0.0331879
0.0330123
0.0330121
0.0328645
0.0328643
0.0327424
0.0327422
0.0326434
0.0326432
0.0325646
0.0325645
0.0325031
0.032503
0.032456
0.0324559
0.0324206
0.0324205
0.0323948
0.0323947
0.0323768
0.0323768
0.0323658
0.0323658
0.0323615
0.0323615
0.0323643
0.0323643
0.032375
0.0323749
0.0323946
0.0323946
0.0324244
0.0324244
0.0324651
0.0324651
0.0325174
0.0325174
0.0325811
0.0325812
0.0326561
0.0326561
0.0327415
0.0327415
0.032836
0.0328361
0.0329381
0.0329381
0.0330457
0.0330457
0.0331566
0.0331566
0.0332687
0.0332687
0.0333804
0.0333804
0.0334907
0.0334908
0.0336001
0.0336001
0.0337102
0.0337102
0.0338238
0.0338239
0.0339442
0.0339442
0.034074
0.034074
0.034215
0.034215
0.0343664
0.0343664
0.0345251
0.0345252
0.0346866
0.0346867
0.0348456
0.0348457
0.034997
0.0349971
0.0351373
0.0351374
0.0352651
0.0352651
0.0353811
0.0353811
0.035488
0.035488
0.03559
0.03559
0.0356918
0.0356918
0.0357977
0.0357977
0.0359113
0.0359113
0.0360348
0.0360348
0.0361693
0.0361692
0.0363141
0.0363141
0.036468
0.036468
0.0366289
0.0366289
0.0367949
0.0367949
0.0369641
0.0369641
0.0371353
0.0371352
0.0373078
0.0373078
0.0374821
0.0374821
0.0376592
0.0376592
0.0378402
0.0378402
0.0380263
0.0380263
0.0382182
0.0382182
0.0384154
0.0384154
0.0386162
0.0386161
0.0388178
0.0388177
0.0390165
0.0390164
0.0392085
0.0392084
0.0393898
0.0393897
0.0395573
0.0395572
0.0397086
0.0397085
0.0398423
0.0398421
0.0399578
0.0399575
0.0400555
0.0400551
0.0401361
0.0401357
0.0402009
0.0402004
0.0402511
0.0402506
0.0402883
0.0402877
0.040314
0.0403134
0.0403305
0.0403298
0.0403401
0.0403394
0.0403459
0.0403452
0.0403517
0.0403509
0.0403614
0.0403606
0.0403789
0.0403782
0.0404078
0.040407
0.0404503
0.0404496
0.0405058
0.0405051
0.0405705
0.0405698
0.0406365
0.0406357
0.0406906
0.0406898
0.0407145
0.0407137
0.0406855
0.0406846
0.0405783
0.0405772
0.040369
0.0403678
0.0400409
0.0400397
0.0395891
0.0395878
0.0390238
0.0390223
0.0383692
0.0383677
0.0376579
0.0376565
0.036922
0.0369205
0.036184
0.0361826
0.0354541
0.0354527
0.0347315
0.0347302
0.0340076
0.0340063
0.0332741
0.0332729
0.0325259
0.0325246
0.0317612
0.0317599
0.0309812
0.03098
0.0301886
0.0301873
0.0293862
0.029385
0.0285769
0.0285757
0.0277633
0.0277621
0.0269474
0.0269462
0.0261309
0.0261297
0.0253151
0.025314
0.0245012
0.0245001
0.0236901
0.023689
0.0228824
0.0228813
0.0220787
0.0220777
0.0212797
0.0212786
0.0204856
0.0204846
0.0196971
0.0196961
0.0189145
0.0189136
0.0181385
0.0181375
0.0173693
0.0173684
0.0166077
0.0166067
0.015854
0.0158531
0.0151088
0.0151079
0.0143725
0.0143717
0.0136457
0.0136448
0.0129287
0.0129279
0.0122221
0.0122213
0.0115262
0.0115255
0.0108415
0.0108408
0.0101685
0.0101679
0.00950769
0.00950703
0.00885945
0.00885882
0.00822432
0.00822372
0.00760282
0.00760224
0.00699548
0.00699493
0.00640287
0.00640235
0.00582559
0.00582511
0.0052643
0.00526384
0.0047197
0.00471927
0.00419256
0.00419216
0.00368379
0.00368342
0.00319444
0.00319409
0.00272576
0.00272544
0.00227931
0.00227902
0.00185708
0.00185682
0.0014617
0.00146147
0.00109684
0.00109664
0.000767854
0.000767695
0.000482984
0.000482862
0.000254955
0.000254873
0.000100249
0.000100207
2.49295e-05
2.49172e-05
3.28698e-06
3.28523e-06
1.55476e-07
1.55392e-07
9.90733e-10
9.90143e-10
0.52385
0.52385
0.523933
0.523933
0.518424
0.518424
0.511872
0.511872
0.50492
0.504921
0.497767
0.497767
0.490481
0.490482
0.483093
0.483094
0.475617
0.475618
0.468062
0.468063
0.460436
0.460436
0.452744
0.452744
0.444992
0.444992
0.437184
0.437185
0.429326
0.429327
0.421421
0.421422
0.413472
0.413472
0.405481
0.405481
0.397451
0.397452
0.389385
0.389386
0.381288
0.381289
0.373165
0.373166
0.365022
0.365023
0.356868
0.356869
0.348712
0.348713
0.340566
0.340566
0.33244
0.332441
0.324347
0.324347
0.316295
0.316295
0.308293
0.308294
0.300349
0.30035
0.292468
0.292469
0.284656
0.284657
0.276918
0.276919
0.269261
0.269261
0.261692
0.261692
0.254219
0.25422
0.246851
0.246852
0.239597
0.239597
0.232463
0.232464
0.225458
0.225458
0.218588
0.218589
0.211861
0.211861
0.205281
0.205282
0.198856
0.198857
0.19259
0.19259
0.186488
0.186488
0.180555
0.180556
0.174797
0.174797
0.169217
0.169218
0.163821
0.163822
0.158612
0.158612
0.153589
0.15359
0.148753
0.148754
0.144099
0.1441
0.139622
0.139623
0.135317
0.135318
0.131177
0.131178
0.127197
0.127198
0.123374
0.123374
0.119704
0.119705
0.116189
0.11619
0.112832
0.112832
0.109634
0.109634
0.106599
0.1066
0.103731
0.103731
0.101031
0.101032
0.0984995
0.0985
0.0961332
0.0961336
0.0939264
0.0939268
0.0918722
0.0918726
0.0899632
0.0899635
0.0881929
0.0881932
0.0865566
0.0865569
0.085051
0.0850513
0.0836735
0.0836737
0.0824194
0.0824196
0.0812809
0.081281
0.0802438
0.0802439
0.0792886
0.0792887
0.0783915
0.0783916
0.0775279
0.0775279
0.0766768
0.0766769
0.0758249
0.0758251
0.07497
0.0749702
0.0741208
0.074121
0.0732946
0.0732948
0.072513
0.0725132
0.0717956
0.0717958
0.0711547
0.0711549
0.0705871
0.0705873
0.0700749
0.070075
0.0695909
0.069591
0.0691027
0.0691029
0.0685782
0.0685784
0.0679902
0.0679906
0.0673209
0.0673213
0.0665621
0.0665626
0.0657148
0.0657153
0.064788
0.0647885
0.0637969
0.0637975
0.0627605
0.0627611
0.0616994
0.0616999
0.060634
0.0606345
0.0595833
0.0595837
0.0585632
0.0585636
0.0575865
0.0575869
0.0566624
0.0566627
0.0557965
0.0557968
0.0549919
0.0549921
0.0542496
0.0542498
0.0535687
0.0535689
0.0529472
0.0529474
0.0523821
0.0523822
0.0518697
0.0518698
0.0514056
0.0514056
0.0509849
0.0509848
0.0506016
0.0506015
0.0502494
0.0502493
0.0499211
0.049921
0.0496088
0.0496086
0.0493039
0.0493037
0.0489976
0.0489973
0.0486807
0.0486804
0.0483445
0.0483442
0.0479813
0.0479809
0.0475844
0.0475841
0.0471494
0.0471491
0.0466743
0.046674
0.0461608
0.0461606
0.0456144
0.0456143
0.0450446
0.0450446
0.0444643
0.0444645
0.0438884
0.0438886
0.043332
0.0433323
0.0428086
0.0428089
0.0423275
0.0423277
0.0418922
0.0418924
0.0415004
0.0415006
0.0411424
0.0411427
0.0408057
0.040806
0.0404758
0.0404762
0.0401391
0.0401396
0.0397846
0.0397852
0.0394052
0.0394059
0.0389977
0.0389985
0.038563
0.0385638
0.0381055
0.0381064
0.0376322
0.037633
0.0371514
0.0371522
0.0366717
0.0366725
0.0362016
0.0362023
0.0357485
0.0357492
0.0353186
0.0353192
0.0349164
0.034917
0.0345453
0.0345458
0.034207
0.0342075
0.0339025
0.0339029
0.0336317
0.033632
0.0333939
0.0333942
0.0331879
0.0331881
0.033012
0.0330122
0.0328642
0.0328644
0.0327422
0.0327424
0.0326432
0.0326434
0.0325644
0.0325646
0.032503
0.0325031
0.0324559
0.032456
0.0324205
0.0324206
0.0323947
0.0323948
0.0323768
0.0323769
0.0323658
0.0323659
0.0323615
0.0323616
0.0323643
0.0323643
0.032375
0.032375
0.0323946
0.0323947
0.0324244
0.0324244
0.0324652
0.0324652
0.0325174
0.0325174
0.0325812
0.0325812
0.0326562
0.0326562
0.0327416
0.0327416
0.0328361
0.0328361
0.0329382
0.0329382
0.0330458
0.0330457
0.0331567
0.0331567
0.0332688
0.0332688
0.0333805
0.0333805
0.0334908
0.0334908
0.0336002
0.0336002
0.0337103
0.0337103
0.033824
0.0338239
0.0339443
0.0339443
0.0340741
0.0340741
0.0342152
0.0342151
0.0343665
0.0343665
0.0345253
0.0345252
0.0346868
0.0346867
0.0348458
0.0348457
0.0349972
0.0349971
0.0351375
0.0351375
0.0352653
0.0352652
0.0353812
0.0353812
0.0354881
0.0354881
0.0355901
0.0355902
0.0356919
0.0356919
0.0357978
0.0357978
0.0359114
0.0359114
0.0360349
0.036035
0.0361694
0.0361694
0.0363142
0.0363143
0.0364681
0.0364681
0.0366291
0.0366291
0.0367951
0.0367951
0.0369643
0.0369643
0.0371354
0.0371354
0.037308
0.037308
0.0374823
0.0374823
0.0376593
0.0376594
0.0378403
0.0378404
0.0380264
0.0380265
0.0382184
0.0382184
0.0384156
0.0384156
0.0386163
0.0386164
0.0388179
0.038818
0.0390166
0.0390167
0.0392086
0.0392087
0.0393899
0.03939
0.0395574
0.0395575
0.0397087
0.0397089
0.0398423
0.0398425
0.0399577
0.039958
0.0400553
0.0400557
0.0401359
0.0401363
0.0402006
0.0402011
0.0402508
0.0402513
0.0402879
0.0402885
0.0403137
0.0403143
0.0403301
0.0403307
0.0403396
0.0403403
0.0403454
0.0403462
0.0403512
0.0403519
0.0403608
0.0403616
0.0403784
0.0403792
0.0404073
0.0404081
0.0404498
0.0404506
0.0405053
0.0405061
0.04057
0.0405708
0.040636
0.0406368
0.0406901
0.0406909
0.0407139
0.0407148
0.0406848
0.0406858
0.0405775
0.0405785
0.0403681
0.0403693
0.0400399
0.0400412
0.039588
0.0395894
0.0390226
0.0390241
0.0383679
0.0383695
0.0376567
0.0376582
0.0369208
0.0369222
0.0361828
0.0361842
0.0354529
0.0354543
0.0347304
0.0347317
0.0340065
0.0340078
0.0332731
0.0332744
0.0325248
0.0325261
0.0317601
0.0317614
0.0309802
0.0309814
0.0301875
0.0301888
0.0293852
0.0293864
0.0285759
0.0285772
0.0277623
0.0277635
0.0269464
0.0269476
0.0261299
0.0261311
0.0253141
0.0253153
0.0245003
0.0245014
0.0236891
0.0236903
0.0228815
0.0228826
0.0220778
0.0220789
0.0212788
0.0212798
0.0204848
0.0204858
0.0196962
0.0196973
0.0189137
0.0189147
0.0181376
0.0181386
0.0173685
0.0173695
0.0166069
0.0166078
0.0158532
0.0158541
0.015108
0.0151089
0.0143718
0.0143726
0.013645
0.0136458
0.012928
0.0129288
0.0122214
0.0122222
0.0115256
0.0115263
0.0108409
0.0108416
0.0101679
0.0101686
0.00950711
0.00950778
0.0088589
0.00885954
0.00822379
0.00822441
0.00760231
0.0076029
0.006995
0.00699555
0.00640241
0.00640294
0.00582516
0.00582566
0.00526389
0.00526436
0.00471931
0.00471975
0.0041922
0.00419261
0.00368345
0.00368383
0.00319412
0.00319448
0.00272547
0.00272579
0.00227905
0.00227934
0.00185684
0.0018571
0.00146149
0.00146172
0.00109666
0.00109685
0.000767706
0.000767868
0.00048287
0.000482994
0.000254878
0.000254961
0.00010021
0.000100252
2.49179e-05
2.49304e-05
3.28533e-06
3.2871e-06
1.55396e-07
1.55481e-07
9.90168e-10
9.90768e-10
)
;

boundaryField
{
    walls
    {
        type            nutUWallFunction;
        blending        stepwise;
        Cmu             0.09;
        kappa           0.41;
        E               9.8;
        value           uniform 0;
    }
    inlet
    {
        type            cyclic;
    }
    outlet
    {
        type            cyclic;
    }
    sides
    {
        type            empty;
    }
}


// ************************************************************************* //
