/*--------------------------------*- C++ -*----------------------------------*\
| =========                 |                                                 |
| \\      /  F ield         | OpenFOAM: The Open Source CFD Toolbox           |
|  \\    /   O peration     | Version:  2106                                  |
|   \\  /    A nd           | Website:  www.openfoam.com                      |
|    \\/     M anipulation  |                                                 |
\*---------------------------------------------------------------------------*/
FoamFile
{
    version     2.0;
    format      ascii;
    arch        "LSB;label=32;scalar=64";
    class       volScalarField;
    location    "9000";
    object      p;
}
// * * * * * * * * * * * * * * * * * * * * * * * * * * * * * * * * * * * * * //

dimensions      [0 2 -2 0 0 0 0];

internalField   nonuniform List<scalar> 
2560
(
1.57958e-16
3.89699e-15
3.39104e-16
3.8964e-15
3.44344e-16
3.89538e-15
3.0035e-16
3.89383e-15
2.6633e-16
3.89172e-15
2.37448e-16
3.88896e-15
2.07868e-16
3.88555e-15
1.76884e-16
3.88143e-15
1.44386e-16
3.87654e-15
1.09739e-16
3.8708e-15
7.21768e-17
3.86412e-15
3.10125e-17
3.85642e-15
-1.41053e-17
3.84762e-15
-6.34593e-17
3.83762e-15
-1.173e-16
3.8264e-15
-1.75751e-16
3.81393e-15
-2.38852e-16
3.8001e-15
-3.06711e-16
3.78487e-15
-3.79342e-16
3.7682e-15
-4.56405e-16
3.74998e-15
-5.38052e-16
3.73015e-15
-6.24359e-16
3.70881e-15
-7.15243e-16
3.68601e-15
-8.10307e-16
3.66153e-15
-9.09744e-16
3.63539e-15
-1.01352e-15
3.6075e-15
-1.12154e-15
3.57797e-15
-1.23346e-15
3.54692e-15
-1.34917e-15
3.51443e-15
-1.46878e-15
3.48018e-15
-1.5921e-15
3.44398e-15
-1.7191e-15
3.40562e-15
-1.84948e-15
3.3656e-15
-1.98295e-15
3.32384e-15
-2.11956e-15
3.28041e-15
-2.25939e-15
3.23532e-15
-2.40244e-15
3.18797e-15
-2.54786e-15
3.13863e-15
-2.69575e-15
3.0874e-15
-2.84653e-15
3.03428e-15
-2.99977e-15
2.97928e-15
-3.15523e-15
2.92238e-15
-3.31282e-15
2.86383e-15
-3.47291e-15
2.80365e-15
-3.63467e-15
2.74135e-15
-3.79798e-15
2.67693e-15
-3.96404e-15
2.61169e-15
-4.13119e-15
2.54514e-15
-4.3004e-15
2.47706e-15
-4.47106e-15
2.40746e-15
-4.64251e-15
2.33637e-15
-4.81579e-15
2.26382e-15
-4.99054e-15
2.18956e-15
-5.16641e-15
2.11389e-15
-5.34332e-15
2.03714e-15
-5.52149e-15
1.95935e-15
-5.70057e-15
1.88087e-15
-5.87987e-15
1.80053e-15
-6.05995e-15
1.71865e-15
-6.24105e-15
1.6356e-15
-6.42249e-15
1.55109e-15
-6.60423e-15
1.4658e-15
-6.78554e-15
1.37784e-15
-6.96638e-15
1.28787e-15
-7.148e-15
1.19759e-15
-7.32904e-15
1.10471e-15
-7.51045e-15
1.01027e-15
-7.69119e-15
9.14655e-16
-7.87155e-15
8.17564e-16
-8.04977e-15
7.19393e-16
-8.22894e-15
6.19497e-16
-8.40728e-15
5.17922e-16
-8.58512e-15
4.14359e-16
-8.76173e-15
3.09925e-16
-8.93745e-15
2.04321e-16
-9.11262e-15
9.688e-17
-9.28761e-15
-1.3443e-17
-9.46019e-15
-1.25506e-16
-9.63184e-15
-2.39254e-16
-9.80106e-15
-3.53139e-16
-9.97083e-15
-4.67831e-16
-1.01389e-14
-5.86277e-16
-1.03046e-14
-7.07678e-16
-1.04701e-14
-8.28172e-16
-1.06354e-14
-9.47665e-16
-1.07992e-14
-1.06914e-15
-1.09629e-14
-1.19176e-15
-1.11249e-14
-1.31701e-15
-1.12855e-14
-1.44247e-15
-1.14445e-14
-1.56648e-15
-1.16028e-14
-1.69288e-15
-1.17596e-14
-1.82002e-15
-1.19159e-14
-1.94622e-15
-1.20716e-14
-2.07216e-15
-1.22252e-14
-2.19935e-15
-1.23776e-14
-2.3277e-15
-1.25271e-14
-2.45146e-15
-1.26772e-14
-2.57293e-15
-1.28271e-14
-2.69685e-15
-1.29728e-14
-2.82394e-15
-1.31167e-14
-2.95003e-15
-1.32591e-14
-3.07499e-15
-1.34023e-14
-3.2028e-15
-1.35417e-14
-3.33089e-15
-1.36764e-14
-3.46079e-15
-1.38107e-14
-3.59322e-15
-1.39438e-14
-3.72639e-15
-1.40726e-14
-3.86352e-15
-1.41996e-14
-4.00365e-15
-1.43257e-14
-4.14334e-15
-1.44495e-14
-4.28412e-15
-1.45726e-14
-4.42503e-15
-1.46961e-14
-4.56929e-15
-1.48167e-14
-4.71592e-15
-1.49353e-14
-4.86312e-15
-1.50514e-14
-5.01243e-15
-1.51666e-14
-5.16456e-15
-1.52812e-14
-5.3143e-15
-1.53969e-14
-5.46151e-15
-1.55071e-14
-5.60941e-15
-1.56137e-14
-5.75784e-15
-1.57219e-14
-5.90497e-15
-1.58268e-14
-6.05063e-15
-1.59285e-14
-6.19634e-15
-1.60272e-14
-6.34024e-15
-1.61248e-14
-6.48047e-15
-1.62197e-14
-6.61853e-15
-1.63137e-14
-6.75767e-15
-1.64055e-14
-6.89769e-15
-1.64968e-14
-7.04182e-15
-1.65895e-14
-7.18136e-15
-1.66805e-14
-7.3161e-15
-1.67665e-14
-7.45267e-15
-1.68529e-14
-7.59428e-15
-1.69415e-14
-7.73391e-15
-1.70309e-14
-7.87304e-15
-1.71145e-14
-8.02e-15
-1.71975e-14
-8.16776e-15
-1.72717e-14
-8.3144e-15
-1.73475e-14
-8.46825e-15
-1.74252e-14
-8.62739e-15
-1.74981e-14
-8.78481e-15
-1.75715e-14
-8.93858e-15
-1.76457e-14
-9.09704e-15
-1.77192e-14
-9.25486e-15
-1.77939e-14
-9.41182e-15
-1.78649e-14
-9.57111e-15
-1.79392e-14
-9.73081e-15
-1.80155e-14
-9.889e-15
-1.80887e-14
-1.00472e-14
-1.81627e-14
-1.02051e-14
-1.82324e-14
-1.03608e-14
-1.83016e-14
-1.05124e-14
-1.83705e-14
-1.06664e-14
-1.84495e-14
-1.08226e-14
-1.85288e-14
-1.09825e-14
-1.86018e-14
-1.11457e-14
-1.86688e-14
-1.13002e-14
-1.87351e-14
-1.14458e-14
-1.88095e-14
-1.16007e-14
-1.88854e-14
-1.1758e-14
-1.89632e-14
-1.19107e-14
-1.90331e-14
-1.20618e-14
-1.90953e-14
-1.22178e-14
-1.91669e-14
-1.23717e-14
-1.92314e-14
-1.253e-14
-1.92958e-14
-1.26856e-14
-1.93671e-14
-1.28383e-14
-1.94355e-14
-1.29912e-14
-1.95179e-14
-1.31374e-14
-1.95982e-14
-1.32764e-14
-1.96699e-14
-1.34179e-14
-1.97468e-14
-1.35682e-14
-1.98258e-14
-1.37169e-14
-1.99007e-14
-1.38704e-14
-1.99753e-14
-1.40283e-14
-2.0053e-14
-1.41869e-14
-2.01243e-14
-1.43493e-14
-2.01962e-14
-1.45086e-14
-2.0269e-14
-1.46646e-14
-2.0343e-14
-1.48234e-14
-2.04152e-14
-1.49816e-14
-2.04893e-14
-1.51453e-14
-2.05591e-14
-1.53046e-14
-2.0628e-14
-1.54656e-14
-2.06965e-14
-1.56282e-14
-2.07714e-14
-1.5792e-14
-2.08463e-14
-1.59601e-14
-2.09152e-14
-1.6129e-14
-2.09848e-14
-1.62985e-14
-2.1049e-14
-1.64716e-14
-2.11207e-14
-1.66482e-14
-2.11971e-14
-1.68216e-14
-2.12687e-14
-1.69887e-14
-2.13423e-14
-1.71556e-14
-2.1418e-14
-1.73349e-14
-2.14928e-14
-1.75105e-14
-2.15639e-14
-1.76698e-14
-2.16315e-14
-1.78348e-14
-2.17052e-14
-1.80086e-14
-2.17788e-14
-1.81721e-14
-2.18621e-14
-1.8341e-14
-2.19396e-14
-1.85058e-14
-2.20177e-14
-1.86665e-14
-2.20966e-14
-1.88292e-14
-2.21765e-14
-1.89814e-14
-2.22516e-14
-1.91417e-14
-2.23282e-14
-1.92977e-14
-2.24003e-14
-1.94616e-14
-2.24743e-14
-1.96275e-14
-2.25503e-14
-1.9783e-14
-2.26346e-14
-1.99467e-14
-2.27212e-14
-2.01189e-14
-2.27919e-14
-2.02811e-14
-2.28652e-14
-2.04336e-14
-2.29413e-14
-2.05767e-14
-2.30142e-14
-2.07288e-14
-2.309e-14
-2.089e-14
-2.31687e-14
-2.10484e-14
-2.32443e-14
-2.11924e-14
-2.33229e-14
-2.13463e-14
-2.33927e-14
-2.15104e-14
-2.34654e-14
-2.16551e-14
-2.3529e-14
-2.1793e-14
-2.36015e-14
-2.19422e-14
-2.36826e-14
-2.20914e-14
-2.37487e-14
-2.2241e-14
-2.38231e-14
-2.23799e-14
-2.38822e-14
-2.25204e-14
-2.39552e-14
-2.26633e-14
-2.403e-14
-2.2815e-14
-2.41007e-14
-2.29649e-14
-2.41667e-14
-2.30962e-14
-2.42453e-14
-2.32389e-14
-2.43304e-14
-2.33996e-14
-2.44098e-14
-2.35387e-14
-2.45009e-14
-2.36688e-14
-2.45863e-14
-2.38075e-14
-2.46831e-14
-2.395e-14
-2.47742e-14
-2.40856e-14
-2.48652e-14
-2.42098e-14
-2.49617e-14
-2.43457e-14
-2.50468e-14
-2.44886e-14
-2.51372e-14
-2.46228e-14
-2.5227e-14
-2.47608e-14
-2.53048e-14
-2.48758e-14
-2.53816e-14
-2.49913e-14
-2.54569e-14
-2.51414e-14
-2.55626e-14
-2.52837e-14
-2.56544e-14
-2.54084e-14
-2.57543e-14
-2.55058e-14
-2.58296e-14
-2.56092e-14
-2.59124e-14
-2.57087e-14
-2.59919e-14
-2.5794e-14
-2.60898e-14
-2.58874e-14
-2.6185e-14
-2.59886e-14
-2.62562e-14
-2.60875e-14
-2.63351e-14
-2.61637e-14
-2.64223e-14
-2.62281e-14
-2.65077e-14
-2.63119e-14
-2.65709e-14
-2.64255e-14
-2.66527e-14
-2.65287e-14
-2.67426e-14
-2.66328e-14
-2.68093e-14
-2.6717e-14
-2.68735e-14
-2.68031e-14
-2.69446e-14
-2.68711e-14
-2.70328e-14
-2.69831e-14
-2.71272e-14
-2.70582e-14
-2.71983e-14
-2.71267e-14
-2.72974e-14
-2.71779e-14
-2.73764e-14
-2.72702e-14
-2.74552e-14
-2.73936e-14
-2.7542e-14
-2.74999e-14
-2.76162e-14
-2.75699e-14
-2.76986e-14
-2.76035e-14
-2.77614e-14
-2.76675e-14
-2.78243e-14
-2.77708e-14
-2.78946e-14
-2.78661e-14
-2.79614e-14
-2.79351e-14
-2.80338e-14
-2.7988e-14
-2.8103e-14
-2.80129e-14
-2.8181e-14
-2.81011e-14
-2.82672e-14
-2.82045e-14
-2.83419e-14
-2.82963e-14
-2.84039e-14
-2.83685e-14
-2.84619e-14
-2.84399e-14
-2.85515e-14
-2.85388e-14
-2.86346e-14
-2.8629e-14
-2.86834e-14
-2.87115e-14
-2.87498e-14
-2.87602e-14
-2.88245e-14
-2.88002e-14
-2.88913e-14
-2.88823e-14
-2.8931e-14
-2.89186e-14
-2.89969e-14
-2.89797e-14
-2.90544e-14
-2.90467e-14
-2.9086e-14
-2.9084e-14
-2.91252e-14
-2.9109e-14
-2.91893e-14
-2.91732e-14
-2.92271e-14
-2.92086e-14
-2.92726e-14
-2.92999e-14
-2.93057e-14
-2.93513e-14
-2.93594e-14
-2.935e-14
-2.93886e-14
-2.93729e-14
-2.94415e-14
-2.93851e-14
-2.94895e-14
-2.94635e-14
-2.94987e-14
-2.94968e-14
-2.95295e-14
-2.95523e-14
-2.95944e-14
-2.9567e-14
-2.96364e-14
-2.95976e-14
-2.96717e-14
-2.96429e-14
-2.97139e-14
-2.96878e-14
-2.97789e-14
-2.9733e-14
-2.98084e-14
-2.97756e-14
-2.98611e-14
-2.97998e-14
-2.99105e-14
-2.98622e-14
-2.994e-14
-2.99342e-14
-2.99864e-14
-2.99658e-14
-3.00184e-14
-2.99578e-14
-3.00548e-14
-3.00247e-14
-3.00757e-14
-3.0052e-14
-4.75957e-15
-5.59828e-15
-4.75972e-15
-5.59837e-15
-4.75995e-15
-5.59852e-15
-4.76032e-15
-5.5988e-15
-4.76086e-15
-5.5992e-15
-4.76158e-15
-5.59974e-15
-4.76251e-15
-5.60041e-15
-4.76366e-15
-5.60126e-15
-4.76509e-15
-5.6023e-15
-4.76682e-15
-5.60361e-15
-4.76895e-15
-5.60522e-15
-4.77149e-15
-5.6072e-15
-4.77454e-15
-5.60958e-15
-4.77809e-15
-5.61241e-15
-4.78222e-15
-5.61569e-15
-4.78693e-15
-5.61954e-15
-4.79235e-15
-5.62395e-15
-4.79844e-15
-5.62894e-15
-4.80522e-15
-5.63447e-15
-4.8128e-15
-5.64063e-15
-4.82114e-15
-5.64732e-15
-4.83044e-15
-5.6545e-15
-4.84047e-15
-5.66217e-15
-4.85147e-15
-5.67057e-15
-4.86317e-15
-5.67981e-15
-4.8759e-15
-5.6897e-15
-4.88964e-15
-5.7001e-15
-4.90427e-15
-5.71103e-15
-4.91963e-15
-5.72246e-15
-4.93589e-15
-5.73489e-15
-4.95316e-15
-5.74835e-15
-4.97152e-15
-5.76243e-15
-4.99066e-15
-5.77686e-15
-5.01065e-15
-5.79191e-15
-5.03188e-15
-5.80786e-15
-5.05409e-15
-5.82464e-15
-5.07696e-15
-5.84236e-15
-5.10114e-15
-5.86071e-15
-5.12598e-15
-5.88046e-15
-5.1518e-15
-5.90098e-15
-5.17874e-15
-5.92182e-15
-5.20725e-15
-5.94308e-15
-5.23689e-15
-5.96534e-15
-5.2672e-15
-5.98886e-15
-5.29863e-15
-6.01293e-15
-5.33122e-15
-6.03778e-15
-5.36494e-15
-6.06343e-15
-5.40009e-15
-6.08935e-15
-5.43639e-15
-6.1166e-15
-5.47413e-15
-6.14466e-15
-5.51304e-15
-6.17352e-15
-5.55312e-15
-6.20349e-15
-5.5938e-15
-6.23399e-15
-5.63593e-15
-6.26532e-15
-5.67893e-15
-6.29748e-15
-5.72309e-15
-6.32987e-15
-5.76841e-15
-6.3634e-15
-5.81458e-15
-6.39746e-15
-5.86252e-15
-6.43205e-15
-5.91129e-15
-6.4681e-15
-5.96057e-15
-6.50501e-15
-6.01097e-15
-6.54309e-15
-6.0625e-15
-6.58139e-15
-6.11548e-15
-6.62153e-15
-6.16956e-15
-6.66189e-15
-6.22374e-15
-6.70346e-15
-6.27901e-15
-6.74658e-15
-6.33569e-15
-6.78924e-15
-6.39378e-15
-6.83416e-15
-6.45259e-15
-6.88067e-15
-6.51279e-15
-6.92671e-15
-6.57402e-15
-6.97365e-15
-6.63628e-15
-7.0208e-15
-6.69955e-15
-7.06814e-15
-6.76453e-15
-7.11676e-15
-6.83014e-15
-7.16702e-15
-6.89672e-15
-7.21821e-15
-6.96352e-15
-7.27108e-15
-7.03199e-15
-7.32563e-15
-7.10287e-15
-7.38188e-15
-7.17467e-15
-7.43835e-15
-7.24736e-15
-7.49578e-15
-7.32168e-15
-7.55419e-15
-7.39687e-15
-7.61357e-15
-7.47289e-15
-7.67316e-15
-7.55128e-15
-7.73374e-15
-7.63203e-15
-7.79376e-15
-7.7128e-15
-7.85553e-15
-7.79355e-15
-7.91908e-15
-7.87584e-15
-7.98206e-15
-7.95727e-15
-8.04682e-15
-8.04099e-15
-8.1118e-15
-8.12539e-15
-8.17858e-15
-8.21045e-15
-8.24877e-15
-8.29613e-15
-8.31919e-15
-8.38162e-15
-8.38983e-15
-8.46688e-15
-8.46151e-15
-8.5535e-15
-8.53342e-15
-8.63901e-15
-8.60963e-15
-8.72665e-15
-8.6869e-15
-8.81311e-15
-8.76279e-15
-8.90491e-15
-8.83893e-15
-8.99385e-15
-8.91698e-15
-9.08151e-15
-8.99611e-15
-9.17364e-15
-9.07386e-15
-9.26526e-15
-9.15354e-15
-9.36214e-15
-9.2335e-15
-9.45679e-15
-9.3129e-15
-9.55084e-15
-9.39592e-15
-9.64592e-15
-9.4784e-15
-9.74116e-15
-9.56033e-15
-9.83738e-15
-9.64507e-15
-9.93621e-15
-9.73095e-15
-1.00351e-14
-9.81714e-15
-1.01332e-14
-9.90448e-15
-1.02296e-14
-9.99297e-15
-1.03311e-14
-1.00809e-14
-1.04333e-14
-1.01667e-14
-1.05346e-14
-1.02536e-14
-1.06366e-14
-1.03451e-14
-1.07393e-14
-1.04377e-14
-1.08426e-14
-1.05349e-14
-1.09465e-14
-1.06317e-14
-1.1051e-14
-1.07296e-14
-1.11561e-14
-1.08253e-14
-1.126e-14
-1.09222e-14
-1.13677e-14
-1.10186e-14
-1.14759e-14
-1.11146e-14
-1.15844e-14
-1.12101e-14
-1.16883e-14
-1.13103e-14
-1.17907e-14
-1.14117e-14
-1.18952e-14
-1.15109e-14
-1.19982e-14
-1.16115e-14
-1.21031e-14
-1.17133e-14
-1.22065e-14
-1.18148e-14
-1.23083e-14
-1.19176e-14
-1.24068e-14
-1.202e-14
-1.25121e-14
-1.21203e-14
-1.26191e-14
-1.22221e-14
-1.27261e-14
-1.23269e-14
-1.28347e-14
-1.24332e-14
-1.29466e-14
-1.25408e-14
-1.30531e-14
-1.26464e-14
-1.31595e-14
-1.27535e-14
-1.32674e-14
-1.28654e-14
-1.33766e-14
-1.29788e-14
-1.34855e-14
-1.30919e-14
-1.3594e-14
-1.31997e-14
-1.37004e-14
-1.33107e-14
-1.38114e-14
-1.34232e-14
-1.39235e-14
-1.35356e-14
-1.4035e-14
-1.36478e-14
-1.41459e-14
-1.37565e-14
-1.42545e-14
-1.38634e-14
-1.43657e-14
-1.39753e-14
-1.44745e-14
-1.40904e-14
-1.45808e-14
-1.42038e-14
-1.46996e-14
-1.43104e-14
-1.48159e-14
-1.44169e-14
-1.4933e-14
-1.45251e-14
-1.50507e-14
-1.46349e-14
-1.51692e-14
-1.47496e-14
-1.52816e-14
-1.48694e-14
-1.54012e-14
-1.49841e-14
-1.55148e-14
-1.51004e-14
-1.56355e-14
-1.52151e-14
-1.57534e-14
-1.53348e-14
-1.58685e-14
-1.54561e-14
-1.59839e-14
-1.55826e-14
-1.60997e-14
-1.57107e-14
-1.62124e-14
-1.5834e-14
-1.63187e-14
-1.59625e-14
-1.6425e-14
-1.60963e-14
-1.65347e-14
-1.62189e-14
-1.66508e-14
-1.63369e-14
-1.67667e-14
-1.64572e-14
-1.6879e-14
-1.65764e-14
-1.6991e-14
-1.66878e-14
-1.71026e-14
-1.67983e-14
-1.72104e-14
-1.69142e-14
-1.73178e-14
-1.70226e-14
-1.74344e-14
-1.71299e-14
-1.7547e-14
-1.72395e-14
-1.76591e-14
-1.73545e-14
-1.77769e-14
-1.74684e-14
-1.78875e-14
-1.75812e-14
-1.79972e-14
-1.76929e-14
-1.80965e-14
-1.781e-14
-1.82044e-14
-1.79293e-14
-1.83112e-14
-1.80442e-14
-1.84201e-14
-1.81613e-14
-1.85278e-14
-1.82838e-14
-1.86372e-14
-1.83988e-14
-1.87484e-14
-1.85095e-14
-1.88549e-14
-1.86255e-14
-1.8963e-14
-1.87467e-14
-1.90661e-14
-1.88668e-14
-1.91864e-14
-1.89763e-14
-1.93016e-14
-1.90909e-14
-1.94085e-14
-1.92168e-14
-1.95166e-14
-1.9332e-14
-1.96256e-14
-1.9446e-14
-1.9748e-14
-1.95492e-14
-1.98587e-14
-1.96603e-14
-1.99766e-14
-1.97729e-14
-2.00827e-14
-1.98807e-14
-2.01834e-14
-1.99897e-14
-2.02909e-14
-2.01e-14
-2.03927e-14
-2.02052e-14
-2.04825e-14
-2.03114e-14
-2.05848e-14
-2.04123e-14
-2.06934e-14
-2.05079e-14
-2.0796e-14
-2.06163e-14
-2.08739e-14
-2.0731e-14
-2.09575e-14
-2.084e-14
-2.10707e-14
-2.09311e-14
-2.11831e-14
-2.10284e-14
-2.12948e-14
-2.11376e-14
-2.13876e-14
-2.12401e-14
-2.14854e-14
-2.13418e-14
-2.15762e-14
-2.14548e-14
-2.16835e-14
-2.15607e-14
-2.17833e-14
-2.16594e-14
-2.18696e-14
-2.17686e-14
-2.196e-14
-2.18644e-14
-2.20601e-14
-2.19585e-14
-2.21757e-14
-2.20622e-14
-2.22597e-14
-2.21693e-14
-2.23413e-14
-2.22561e-14
-2.24319e-14
-2.23401e-14
-2.25257e-14
-2.24441e-14
-2.26223e-14
-2.25501e-14
-2.27215e-14
-2.26406e-14
-2.28175e-14
-2.2744e-14
-2.29158e-14
-2.28542e-14
-2.30045e-14
-2.2965e-14
-2.30947e-14
-2.30764e-14
-2.3197e-14
-2.31769e-14
-2.32943e-14
-2.32661e-14
-2.33975e-14
-2.33605e-14
-2.3501e-14
-2.34592e-14
-2.35988e-14
-2.35562e-14
-2.36964e-14
-2.36565e-14
-2.37878e-14
-2.37482e-14
-2.38838e-14
-2.38307e-14
-2.39788e-14
-2.39365e-14
-2.41058e-14
-2.40429e-14
-2.42096e-14
-2.41492e-14
-2.43012e-14
-2.42655e-14
-2.44017e-14
-2.43697e-14
-2.45436e-14
-2.44503e-14
-2.46733e-14
-2.45384e-14
-2.47703e-14
-2.46431e-14
-2.48888e-14
-2.47314e-14
-2.49862e-14
-2.48347e-14
-2.51161e-14
-2.49311e-14
-2.52148e-14
-2.50297e-14
-2.5304e-14
-2.51193e-14
-2.54263e-14
-2.52101e-14
-2.55293e-14
-2.53115e-14
-2.56133e-14
-2.54018e-14
-2.56994e-14
-2.55328e-14
-2.57859e-14
-2.56739e-14
-2.5881e-14
-2.57745e-14
-2.59847e-14
-2.58762e-14
-2.60971e-14
-2.59683e-14
-2.62089e-14
-2.60601e-14
-2.63005e-14
-2.61603e-14
-2.63916e-14
-2.62788e-14
-2.64814e-14
-2.63864e-14
-2.65887e-14
-2.64943e-14
-2.67035e-14
-2.66223e-14
-2.67954e-14
-2.67603e-14
-2.68823e-14
-2.68702e-14
-2.69927e-14
-2.69338e-14
-2.7099e-14
-2.70482e-14
-2.72015e-14
-2.71647e-14
-2.72999e-14
-2.72837e-14
-2.74032e-14
-2.73674e-14
-2.75033e-14
-2.74826e-14
-2.75899e-14
-2.76117e-14
-2.76896e-14
-2.77208e-14
-2.77923e-14
-2.78014e-14
-2.78898e-14
-2.78988e-14
-2.79822e-14
-2.80033e-14
-2.80786e-14
-2.80973e-14
-2.81892e-14
-2.81906e-14
-2.82781e-14
-2.82814e-14
-2.83728e-14
-2.84062e-14
-2.84814e-14
-2.85038e-14
-2.85783e-14
-2.85753e-14
-2.8666e-14
-2.8638e-14
-2.87288e-14
-2.8707e-14
-2.87852e-14
-2.87836e-14
-2.88329e-14
-2.88871e-14
-2.89021e-14
-2.89528e-14
-2.89763e-14
-2.89645e-14
-2.90274e-14
-2.90035e-14
-2.90902e-14
-2.9067e-14
-2.91143e-14
-2.91045e-14
-2.91317e-14
-2.91315e-14
-2.91911e-14
-2.91815e-14
-2.92761e-14
-2.92218e-14
-2.93271e-14
-2.92651e-14
-2.93453e-14
-2.93282e-14
-2.94065e-14
-2.93818e-14
-2.94487e-14
-2.94582e-14
-2.94848e-14
-2.95137e-14
-2.95589e-14
-2.9537e-14
-2.96144e-14
-2.95857e-14
-2.96539e-14
-2.96268e-14
-2.96927e-14
-2.9676e-14
-2.9759e-14
-2.97502e-14
-2.98072e-14
-2.979e-14
-2.98538e-14
-2.98419e-14
-2.99285e-14
-2.98442e-14
-3.00146e-14
-2.98426e-14
-3.00832e-14
-2.98509e-14
-3.01173e-14
-2.98901e-14
-3.01631e-14
-2.99118e-14
-3.00933e-14
-3.00567e-14
-3.01234e-14
-3.00789e-14
-3.0139e-14
-3.00575e-14
-3.01641e-14
-3.00592e-14
-3.01582e-14
-3.0095e-14
-3.01464e-14
-3.00929e-14
-3.01419e-14
-3.01148e-14
-3.01558e-14
-3.01352e-14
-3.01562e-14
-3.0138e-14
-3.01566e-14
-3.01069e-14
-3.01792e-14
-3.01603e-14
-3.01897e-14
-3.01946e-14
-3.0202e-14
-3.01826e-14
-3.02023e-14
-3.02013e-14
-3.02193e-14
-3.02055e-14
-3.02391e-14
-3.02103e-14
-3.02453e-14
-3.02468e-14
-3.02682e-14
-3.02533e-14
-3.02937e-14
-3.02776e-14
-3.0306e-14
-3.03194e-14
-3.03196e-14
-3.03323e-14
-3.03163e-14
-3.03328e-14
-3.03284e-14
-3.03037e-14
-3.03424e-14
-3.0308e-14
-3.03595e-14
-3.03107e-14
-3.03813e-14
-3.0293e-14
-3.03934e-14
-3.03042e-14
-3.03951e-14
-3.03447e-14
-3.03998e-14
-3.03117e-14
-3.04102e-14
-3.03098e-14
-3.04089e-14
-3.03573e-14
-3.04102e-14
-3.03675e-14
-3.04138e-14
-3.0349e-14
-3.04304e-14
-3.03645e-14
-3.04321e-14
-3.03679e-14
-3.04372e-14
-3.03871e-14
-3.04365e-14
-3.04427e-14
-3.04633e-14
-3.04733e-14
-3.04707e-14
-3.04882e-14
-3.04961e-14
-3.04878e-14
-3.05128e-14
-3.05271e-14
-3.05386e-14
-3.0531e-14
-3.05552e-14
-3.05163e-14
-3.05835e-14
-3.0549e-14
-3.05844e-14
-3.0552e-14
-3.06062e-14
-3.05645e-14
-3.06191e-14
-3.06159e-14
-3.06415e-14
-3.06488e-14
-3.06327e-14
-3.06731e-14
-3.06406e-14
-3.066e-14
-3.06663e-14
-3.06992e-14
-3.06997e-14
-3.07513e-14
-3.07407e-14
-3.07659e-14
-3.07601e-14
-3.07627e-14
-3.07998e-14
-3.07921e-14
-3.08402e-14
-3.08127e-14
-3.08719e-14
-3.07928e-14
-3.08865e-14
-3.08133e-14
-3.08939e-14
-3.08542e-14
-3.09033e-14
-3.0885e-14
-3.08717e-14
-3.09066e-14
-3.08812e-14
-3.09101e-14
-3.0922e-14
-3.09164e-14
-3.09213e-14
-3.09242e-14
-3.09218e-14
-3.09122e-14
-3.09343e-14
-3.09229e-14
-3.09697e-14
-3.09348e-14
-3.09858e-14
-3.09362e-14
-3.09719e-14
-3.09484e-14
-3.09928e-14
-3.09505e-14
-3.09835e-14
-3.09528e-14
-3.09764e-14
-3.09667e-14
-3.09816e-14
-3.09813e-14
-3.10214e-14
-3.09856e-14
-3.10524e-14
-3.1001e-14
-3.10524e-14
-3.10049e-14
-3.10658e-14
-3.10085e-14
-3.10927e-14
-3.10341e-14
-3.11106e-14
-3.10652e-14
-3.10965e-14
-3.10679e-14
-3.11004e-14
-3.10649e-14
-3.11111e-14
-3.10674e-14
-3.11232e-14
-3.10752e-14
-3.11308e-14
-3.10884e-14
-3.11338e-14
-3.10956e-14
-3.11435e-14
-3.11081e-14
-3.11598e-14
-3.11204e-14
-3.11829e-14
-3.11267e-14
-3.11839e-14
-3.11442e-14
-3.11974e-14
-3.11556e-14
-3.12e-14
-3.11667e-14
-3.12032e-14
-3.11717e-14
-3.12071e-14
-3.11706e-14
-3.12116e-14
-3.1187e-14
-3.12164e-14
-3.12034e-14
-3.12155e-14
-3.12021e-14
-3.12148e-14
-3.12069e-14
-3.12143e-14
-3.12178e-14
-3.12197e-14
-3.1229e-14
-3.12371e-14
-3.12405e-14
-3.12425e-14
-3.12404e-14
-3.12479e-14
-3.12405e-14
-3.12596e-14
-3.12469e-14
-3.12715e-14
-3.12533e-14
-3.12835e-14
-3.12536e-14
-3.1296e-14
-3.12537e-14
-3.12966e-14
-3.12597e-14
-3.13038e-14
-3.12655e-14
-3.13176e-14
-3.12649e-14
-3.13196e-14
-3.12639e-14
-3.13284e-14
-3.12563e-14
-3.13318e-14
-3.12543e-14
-3.13359e-14
-3.12642e-14
-3.13345e-14
-3.12735e-14
-3.13336e-14
-3.12701e-14
-3.13396e-14
-3.12662e-14
-3.13462e-14
-3.12807e-14
-3.13596e-14
-3.12948e-14
-3.13673e-14
-3.13024e-14
-3.13755e-14
-3.13034e-14
-3.13781e-14
-3.13041e-14
-3.13813e-14
-3.13045e-14
-3.13915e-14
-3.13045e-14
-3.13897e-14
-3.13104e-14
-3.1398e-14
-3.13128e-14
-3.14039e-14
-3.13084e-14
-3.14008e-14
-3.13163e-14
-3.13951e-14
-3.13334e-14
-3.14027e-14
-3.13408e-14
-3.14076e-14
-3.13415e-14
-3.14066e-14
-3.13388e-14
-3.14125e-14
-3.13422e-14
-3.14254e-14
-3.13487e-14
-3.14291e-14
-3.13517e-14
-3.14235e-14
-3.13545e-14
-3.1425e-14
-3.13668e-14
-3.14301e-14
-3.13824e-14
-3.1429e-14
-3.13881e-14
-3.14316e-14
-3.13808e-14
-3.14312e-14
-3.13767e-14
-3.14346e-14
-3.1379e-14
-3.14416e-14
-3.13813e-14
-3.14458e-14
-3.13836e-14
-3.14504e-14
-3.1389e-14
-3.1452e-14
-3.13911e-14
-3.14573e-14
-3.13866e-14
-3.14598e-14
-3.13919e-14
-3.14626e-14
-3.13939e-14
-3.14691e-14
-3.13958e-14
-3.14626e-14
-3.14011e-14
-3.14631e-14
-3.14063e-14
-3.14706e-14
-3.14082e-14
-3.14718e-14
-3.14101e-14
-3.14732e-14
-3.1412e-14
-3.14782e-14
-3.14106e-14
-3.14802e-14
-3.14092e-14
-3.14825e-14
-3.14079e-14
-3.14817e-14
-3.14065e-14
-3.14813e-14
-3.14119e-14
-3.14844e-14
-3.1414e-14
-3.14879e-14
-3.14128e-14
-3.14815e-14
-3.14116e-14
-3.14787e-14
-3.14138e-14
-3.14847e-14
-3.14093e-14
-3.14892e-14
-3.14032e-14
-3.14872e-14
-3.13971e-14
-3.1489e-14
-3.13876e-14
-3.14774e-14
-3.13763e-14
-3.14763e-14
-3.13719e-14
-3.14789e-14
-3.13741e-14
-3.14784e-14
-3.1373e-14
-3.14765e-14
-3.13684e-14
-3.14748e-14
-3.13604e-14
-3.14734e-14
-3.13541e-14
-3.14756e-14
-3.13511e-14
-3.14748e-14
-3.13463e-14
-3.14742e-14
-3.13398e-14
-3.14772e-14
-3.13401e-14
-3.14788e-14
-3.13386e-14
-3.14773e-14
-3.13285e-14
-3.14709e-14
-3.132e-14
-3.14699e-14
-3.13166e-14
-3.14674e-14
-3.13131e-14
-3.14652e-14
-3.13061e-14
-3.14631e-14
-3.13024e-14
-3.14665e-14
-3.13021e-14
-3.14683e-14
-3.12983e-14
-3.14653e-14
-3.1291e-14
-3.14625e-14
-3.12854e-14
-3.14616e-14
-3.12813e-14
-3.14609e-14
-3.12789e-14
-3.14621e-14
-3.12765e-14
-3.14618e-14
-3.12756e-14
-3.14618e-14
-3.12713e-14
-3.14636e-14
-3.12652e-14
-3.14639e-14
-3.12624e-14
-3.14627e-14
-3.12629e-14
-3.14633e-14
-3.12634e-14
-3.14625e-14
-3.12621e-14
-3.14618e-14
-3.1259e-14
-3.1463e-14
-3.12576e-14
-3.14627e-14
-3.12578e-14
-3.14591e-14
-3.12579e-14
-3.14591e-14
-3.12546e-14
-3.14592e-14
-3.12512e-14
-3.14595e-14
-3.12487e-14
-3.14591e-14
-3.12486e-14
-3.14579e-14
-3.12492e-14
-3.14561e-14
-3.12499e-14
-3.14552e-14
-3.12496e-14
-3.14537e-14
-3.12485e-14
-3.14506e-14
-3.12481e-14
-3.14493e-14
-3.12486e-14
-3.14472e-14
-3.1249e-14
-3.14445e-14
-3.12477e-14
-3.14427e-14
-3.12472e-14
-3.1441e-14
-3.12483e-14
-3.14385e-14
-3.12494e-14
-3.14346e-14
-3.12496e-14
-3.14331e-14
-3.12465e-14
-3.14326e-14
-3.12426e-14
-3.14322e-14
-3.12412e-14
-3.14302e-14
-3.12405e-14
-3.14284e-14
-3.12382e-14
-3.14274e-14
-3.12366e-14
-3.14257e-14
-3.12375e-14
-3.14232e-14
-3.12375e-14
-3.14193e-14
-3.12367e-14
-3.14162e-14
-3.12336e-14
-3.1414e-14
-3.12296e-14
-3.1411e-14
-3.12279e-14
-3.14082e-14
-3.12294e-14
-3.14054e-14
-3.12294e-14
-3.14019e-14
-3.12293e-14
-3.13984e-14
-3.12292e-14
-3.13951e-14
-3.1229e-14
-3.1391e-14
-3.12304e-14
-3.13893e-14
-3.12326e-14
-3.13868e-14
-3.12339e-14
-3.13837e-14
-3.12338e-14
-3.13829e-14
-3.12329e-14
-3.13813e-14
-3.12327e-14
-3.13806e-14
-3.12325e-14
-3.13799e-14
-3.12316e-14
-3.13785e-14
-3.12329e-14
-3.13771e-14
-3.12334e-14
-3.13747e-14
-3.12339e-14
-3.13734e-14
-3.12333e-14
-3.13725e-14
-3.12328e-14
-3.1372e-14
-3.12329e-14
-3.13712e-14
-3.12327e-14
-3.137e-14
-3.12322e-14
-3.13689e-14
-3.12337e-14
-3.13689e-14
-3.12335e-14
-3.13695e-14
-3.12319e-14
-3.13691e-14
-3.12303e-14
-3.13688e-14
-3.12295e-14
-3.13682e-14
-3.12296e-14
-3.13682e-14
-3.12297e-14
-3.13676e-14
-3.12291e-14
-3.13674e-14
-3.12292e-14
-3.13675e-14
-3.1229e-14
-3.13673e-14
-3.12272e-14
-3.13674e-14
-3.12261e-14
-3.13679e-14
-3.12259e-14
-3.1368e-14
-3.12259e-14
-3.13679e-14
-3.12251e-14
-3.1369e-14
-3.12246e-14
-3.13703e-14
-3.12238e-14
-3.13708e-14
-3.12227e-14
-3.13716e-14
-3.12214e-14
-3.13726e-14
-3.12206e-14
-3.13737e-14
-3.12201e-14
-3.13744e-14
-3.12197e-14
-3.13757e-14
-3.12189e-14
-3.13767e-14
-3.12182e-14
-3.13773e-14
-3.12175e-14
-3.13778e-14
-3.12168e-14
-3.13783e-14
-3.12161e-14
-3.13791e-14
-3.12154e-14
-3.138e-14
-3.12147e-14
-3.13808e-14
-3.12143e-14
-3.13813e-14
-3.12139e-14
-3.13817e-14
-3.12137e-14
-3.13821e-14
-3.1214e-14
-3.13827e-14
-3.12139e-14
-3.13831e-14
-3.12136e-14
-3.13836e-14
-3.12136e-14
-3.13841e-14
-3.12135e-14
-3.13848e-14
-3.12133e-14
-3.13855e-14
-3.12131e-14
-3.13861e-14
-3.12129e-14
-3.13866e-14
-3.12131e-14
-3.13873e-14
-3.12131e-14
-3.1388e-14
-3.12129e-14
-3.13886e-14
-3.12126e-14
-3.13891e-14
-3.12123e-14
-3.13897e-14
-3.1212e-14
-3.13902e-14
-3.12117e-14
-3.13908e-14
-3.12115e-14
-3.13913e-14
-3.12113e-14
-3.13917e-14
-3.12111e-14
-3.13921e-14
-3.12109e-14
-3.13925e-14
-3.12107e-14
-3.13928e-14
-3.12106e-14
-3.1393e-14
-3.12105e-14
-3.13932e-14
-3.12104e-14
-3.13934e-14
-3.12103e-14
-3.13935e-14
-3.12102e-14
-3.13936e-14
-3.12101e-14
-3.13937e-14
-3.12101e-14
-3.13938e-14
-3.121e-14
-3.13939e-14
-3.121e-14
-3.13939e-14
-3.121e-14
-3.1394e-14
-3.12099e-14
-3.1394e-14
-3.12099e-14
-3.13941e-14
-3.12099e-14
-3.13941e-14
-3.12099e-14
-3.13941e-14
-3.12099e-14
-3.13941e-14
-3.12099e-14
-3.01976e-14
-2.99555e-14
-3.02054e-14
-2.99653e-14
-3.01829e-14
-2.99876e-14
-3.01796e-14
-3.00039e-14
-3.01586e-14
-3.00656e-14
-3.01514e-14
-3.00807e-14
-3.01549e-14
-3.00847e-14
-3.01691e-14
-3.01232e-14
-3.01907e-14
-3.01393e-14
-3.01588e-14
-3.01643e-14
-3.01577e-14
-3.01781e-14
-3.01526e-14
-3.01799e-14
-3.01739e-14
-3.0168e-14
-3.01945e-14
-3.01706e-14
-3.02012e-14
-3.01687e-14
-3.02433e-14
-3.01775e-14
-3.02438e-14
-3.01938e-14
-3.02494e-14
-3.02021e-14
-3.0259e-14
-3.02364e-14
-3.02523e-14
-3.02498e-14
-3.0294e-14
-3.02597e-14
-3.03211e-14
-3.02629e-14
-3.03366e-14
-3.02749e-14
-3.03408e-14
-3.02801e-14
-3.03503e-14
-3.0279e-14
-3.03654e-14
-3.02705e-14
-3.03878e-14
-3.02885e-14
-3.04179e-14
-3.02982e-14
-3.04225e-14
-3.02612e-14
-3.04402e-14
-3.02459e-14
-3.04368e-14
-3.02867e-14
-3.04268e-14
-3.03146e-14
-3.04343e-14
-3.03056e-14
-3.0451e-14
-3.03234e-14
-3.04489e-14
-3.03318e-14
-3.04267e-14
-3.03316e-14
-3.04474e-14
-3.03522e-14
-3.04647e-14
-3.03835e-14
-3.04774e-14
-3.03886e-14
-3.04858e-14
-3.04242e-14
-3.05069e-14
-3.04453e-14
-3.0541e-14
-3.04804e-14
-3.05589e-14
-3.04919e-14
-3.05706e-14
-3.04994e-14
-3.06051e-14
-3.05023e-14
-3.06452e-14
-3.0519e-14
-3.06524e-14
-3.05587e-14
-3.06846e-14
-3.06031e-14
-3.07113e-14
-3.06231e-14
-3.07234e-14
-3.06083e-14
-3.07318e-14
-3.06383e-14
-3.07352e-14
-3.0694e-14
-3.07612e-14
-3.06757e-14
-3.07807e-14
-3.0673e-14
-3.07839e-14
-3.06957e-14
-3.08004e-14
-3.07033e-14
-3.08195e-14
-3.07057e-14
-3.08313e-14
-3.07133e-14
-3.0846e-14
-3.07574e-14
-3.08628e-14
-3.07658e-14
-3.0882e-14
-3.07695e-14
-3.0873e-14
-3.07784e-14
-3.08558e-14
-3.07933e-14
-3.08288e-14
-3.08156e-14
-3.08437e-14
-3.08038e-14
-3.08586e-14
-3.08112e-14
-3.08631e-14
-3.08375e-14
-3.08669e-14
-3.08403e-14
-3.0848e-14
-3.08413e-14
-3.08388e-14
-3.0841e-14
-3.08497e-14
-3.08504e-14
-3.08701e-14
-3.08807e-14
-3.08671e-14
-3.09105e-14
-3.08842e-14
-3.09183e-14
-3.08992e-14
-3.09373e-14
-3.09232e-14
-3.09454e-14
-3.09457e-14
-3.0942e-14
-3.09671e-14
-3.09549e-14
-3.09933e-14
-3.09895e-14
-3.10243e-14
-3.10064e-14
-3.10438e-14
-3.10225e-14
-3.10403e-14
-3.10266e-14
-3.10537e-14
-3.10302e-14
-3.10727e-14
-3.10502e-14
-3.10859e-14
-3.10697e-14
-3.1099e-14
-3.10773e-14
-3.11121e-14
-3.10728e-14
-3.11313e-14
-3.10848e-14
-3.11392e-14
-3.11133e-14
-3.1153e-14
-3.11298e-14
-3.11669e-14
-3.11341e-14
-3.11692e-14
-3.11378e-14
-3.11776e-14
-3.11409e-14
-3.11982e-14
-3.11494e-14
-3.12074e-14
-3.11571e-14
-3.11993e-14
-3.1158e-14
-3.12094e-14
-3.11642e-14
-3.12081e-14
-3.11758e-14
-3.1219e-14
-3.11808e-14
-3.12303e-14
-3.11732e-14
-3.12302e-14
-3.11767e-14
-3.12304e-14
-3.11916e-14
-3.12492e-14
-3.12119e-14
-3.12621e-14
-3.12318e-14
-3.12693e-14
-3.12393e-14
-3.12705e-14
-3.12343e-14
-3.1272e-14
-3.1235e-14
-3.12736e-14
-3.12536e-14
-3.12753e-14
-3.1266e-14
-3.12646e-14
-3.12661e-14
-3.1266e-14
-3.12723e-14
-3.12671e-14
-3.12725e-14
-3.12742e-14
-3.12665e-14
-3.12812e-14
-3.1273e-14
-3.12818e-14
-3.12731e-14
-3.12823e-14
-3.1267e-14
-3.1289e-14
-3.12671e-14
-3.13019e-14
-3.12732e-14
-3.13023e-14
-3.12728e-14
-3.12963e-14
-3.12785e-14
-3.12871e-14
-3.12841e-14
-3.12872e-14
-3.12927e-14
-3.12806e-14
-3.13014e-14
-3.12927e-14
-3.1307e-14
-3.13013e-14
-3.13158e-14
-3.12969e-14
-3.13216e-14
-3.12921e-14
-3.13147e-14
-3.12902e-14
-3.13143e-14
-3.12912e-14
-3.13236e-14
-3.12982e-14
-3.1333e-14
-3.13017e-14
-3.13265e-14
-3.13016e-14
-3.13168e-14
-3.12948e-14
-3.132e-14
-3.13071e-14
-3.132e-14
-3.12996e-14
-3.13135e-14
-3.12952e-14
-3.13103e-14
-3.13002e-14
-3.13167e-14
-3.12985e-14
-3.13231e-14
-3.12899e-14
-3.13164e-14
-3.12777e-14
-3.13097e-14
-3.1275e-14
-3.13063e-14
-3.12786e-14
-3.13061e-14
-3.12851e-14
-3.13092e-14
-3.12913e-14
-3.13057e-14
-3.12874e-14
-3.13054e-14
-3.12899e-14
-3.13017e-14
-3.12954e-14
-3.12913e-14
-3.13073e-14
-3.12807e-14
-3.13059e-14
-3.12799e-14
-3.13044e-14
-3.12889e-14
-3.13126e-14
-3.12911e-14
-3.13141e-14
-3.12798e-14
-3.13156e-14
-3.12715e-14
-3.13136e-14
-3.12698e-14
-3.13182e-14
-3.12577e-14
-3.13127e-14
-3.1242e-14
-3.13072e-14
-3.12361e-14
-3.13084e-14
-3.12298e-14
-3.1313e-14
-3.12266e-14
-3.13041e-14
-3.12231e-14
-3.12951e-14
-3.1216e-14
-3.12929e-14
-3.12118e-14
-3.12839e-14
-3.12142e-14
-3.12799e-14
-3.12163e-14
-3.12691e-14
-3.12114e-14
-3.12666e-14
-3.12079e-14
-3.1259e-14
-3.1211e-14
-3.12598e-14
-3.12105e-14
-3.12554e-14
-3.12064e-14
-3.12459e-14
-3.12039e-14
-3.1243e-14
-3.12029e-14
-3.12451e-14
-3.12001e-14