/*--------------------------------*- C++ -*----------------------------------*\
| =========                 |                                                 |
| \\      /  F ield         | OpenFOAM: The Open Source CFD Toolbox           |
|  \\    /   O peration     | Version:  2012                                  |
|   \\  /    A nd           | Website:  www.openfoam.com                      |
|    \\/     M anipulation  |                                                 |
\*---------------------------------------------------------------------------*/
FoamFile
{
    version     2.0;
    format      ascii;
    class       volScalarField;
    location    "10010";
    object      omega;
}
// * * * * * * * * * * * * * * * * * * * * * * * * * * * * * * * * * * * * * //

dimensions      [0 0 -1 0 0 0 0];


internalField   nonuniform List<scalar> 
2560
(
1.52415e+06
1.52415e+06
265165
265166
89862.8
89863.2
42317.7
42318.2
23884.5
23884.9
15038.6
15039.1
10185.3
10185.7
7300.49
7300.83
5506.68
5506.95
4354.25
4354.45
3587.49
3587.63
3057.23
3057.33
2676.35
2676.44
2393.38
2393.44
2177.04
2177.09
2007.72
2007.77
1872.7
1872.74
1763.43
1763.46
1673.98
1674.01
1600.16
1600.18
1538.87
1538.88
1487.8
1487.81
1445.2
1445.21
1409.71
1409.73
1380.28
1380.29
1356.07
1356.08
1336.4
1336.41
1320.74
1320.74
1308.64
1308.64
1299.75
1299.75
1293.78
1293.78
1290.49
1290.49
1289.68
1289.68
1291.18
1291.17
1294.83
1294.82
1300.49
1300.48
1308.05
1308.04
1317.4
1317.39
1328.47
1328.46
1341.18
1341.17
1355.5
1355.49
1371.4
1371.39
1388.86
1388.84
1407.84
1407.83
1428.31
1428.29
1450.19
1450.18
1473.38
1473.37
1497.74
1497.72
1523.06
1523.05
1549.13
1549.11
1575.66
1575.64
1602.35
1602.33
1628.87
1628.86
1654.93
1654.92
1680.35
1680.34
1705.24
1705.22
1730.1
1730.08
1755.92
1755.9
1783.92
1783.91
1815.21
1815.19
1849.82
1849.8
1885.92
1885.9
1920.28
1920.26
1948.7
1948.68
1967.08
1967.07
1972.48
1972.47
1963.69
1963.69
1941.31
1941.31
1907.35
1907.35
1864.61
1864.62
1816.13
1816.14
1764.71
1764.72
1712.65
1712.66
1661.7
1661.71
1613.01
1613.02
1567.31
1567.32
1524.74
1524.75
1485.17
1485.18
1448.25
1448.26
1413.46
1413.47
1380.28
1380.28
1348.15
1348.16
1316.6
1316.61
1285.22
1285.23
1253.68
1253.7
1221.72
1221.73
1189.11
1189.13
1155.69
1155.7
1121.32
1121.34
1085.96
1085.97
1049.58
1049.6
1012.3
1012.32
974.291
974.312
935.866
935.888
897.409
897.431
859.362
859.384
822.175
822.196
786.244
786.264
751.864
751.883
719.222
719.24
688.316
688.333
659.044
659.06
631.235
631.25
604.696
604.711
579.266
579.28
554.85
554.863
531.431
531.444
509.07
509.083
487.884
487.896
468.012
468.023
449.581
449.591
432.667
432.676
417.272
417.28
403.272
403.28
390.445
390.453
378.476
378.483
366.995
367.002
355.639
355.645
344.108
344.114
332.232
332.239
320.009
320.016
307.614
307.621
295.372
295.378
283.683
283.689
272.924
272.929
263.376
263.381
255.066
255.07
247.797
247.801
241.237
241.24
234.998
235.001
228.744
228.747
222.257
222.26
215.46
215.463
208.4
208.403
201.203
201.206
194.034
194.037
187.053
187.056
180.397
180.4
174.162
174.164
168.406
168.408
163.149
163.152
158.379
158.381
154.05
154.052
150.093
150.094
146.418
146.42
142.929
142.931
139.533
139.534
136.151
136.152
132.729
132.73
129.243
129.245
125.698
125.7
122.124
122.126
118.571
118.572
115.099
115.1
111.773
111.775
108.656
108.657
105.801
105.802
103.252
103.253
101.041
101.041
99.1855
99.1861
97.6938
97.6942
96.5617
96.5619
95.7761
95.7761
95.3153
95.3151
95.1491
95.1486
95.2392
95.2385
95.5385
95.5376
95.9909
95.9899
96.5312
96.53
97.0859
97.0847
97.5753
97.574
97.9163
97.915
98.0278
98.0266
97.8366
97.8356
97.2847
97.284
96.3375
96.337
94.991
94.9909
93.2793
93.2797
91.2778
91.2787
89.1018
89.103
86.8968
86.8983
84.8197
84.8212
83.0112
83.0127
81.5749
81.5761
80.5333
80.5342
79.8438
79.8445
79.4073
79.4081
79.0947
79.0956
78.7747
78.7758
78.3357
78.337
77.6963
77.6978
76.8078
76.8094
75.6511
75.6527
74.2305
74.2322
72.5676
72.5692
70.695
70.6966
68.6519
68.6533
66.4799
66.4813
64.2215
64.2228
61.9176
61.9187
59.607
59.608
57.3262
57.3271
55.1088
55.1097
52.9867
52.9875
50.9895
50.9901
49.1448
49.1454
47.4782
47.4787
46.012
46.0124
44.7637
44.764
43.7447
43.7449
42.9577
42.9578
42.3961
42.3962
42.0434
42.0434
41.8731
41.8731
41.8511
41.851
41.9363
41.9363
42.0834
42.0833
42.244
42.2439
42.3691
42.369
42.4106
42.4105
42.3237
42.3237
42.0697
42.0697
41.6187
41.6187
40.9526
40.9527
40.069
40.0692
38.9837
38.9839
37.7324
37.7327
36.3707
36.371
34.9689
34.9693
33.6023
33.6026
32.3357
32.336
31.2129
31.2131
30.2358
30.2361
29.3658
29.366
28.5462
28.5464
27.717
27.7172
26.831
26.8312
25.8628
25.863
24.8109
24.8112
23.6937
23.6939
22.5422
22.5424
21.392
21.3922
20.2753
20.2755
19.2155
19.2156
18.226
18.2261
17.3058
17.3059
16.4471
16.4472
15.6397
15.6398
14.8753
14.8754
14.1506
14.1507
13.4677
13.4678
12.8327
12.8327
12.2526
12.2526
11.7323
11.7323
11.2717
11.2717
10.864
10.8641
10.4989
10.4989
10.1641
10.1641
9.84793
9.84795
9.54135
9.54136
9.23848
9.23849
8.93704
8.93705
8.63792
8.63793
8.34467
8.34468
8.06261
8.06262
7.79774
7.79774
7.55578
7.55578
7.34115
7.34116
7.15629
7.1563
7.00148
7.00148
6.87535
6.87535
6.77543
6.77543
6.69884
6.69884
6.64299
6.64299
6.60575
6.60575
6.58554
6.58554
6.58111
6.58111
6.59147
6.59147
6.61572
6.61572
6.653
6.653
6.7025
6.7025
6.76336
6.76336
6.83473
6.83473
6.91576
6.91576
7.00561
7.00561
7.10357
7.10357
7.20912
7.20912
7.32206
7.32206
7.44249
7.44249
7.57083
7.57083
7.7077
7.7077
7.85376
7.85377
8.00959
8.0096
8.17558
8.17559
8.35176
8.35176
8.53787
8.53787
8.73355
8.73356
8.93844
8.93845
9.1523
9.1523
9.37508
9.37509
9.60702
9.60703
9.84857
9.84857
10.1003
10.1003
10.3631
10.3631
10.6377
10.6377
10.925
10.925
11.2257
11.2257
11.5407
11.5407
11.8707
11.8707
12.2166
12.2166
12.5791
12.5791
12.9589
12.9589
13.3568
13.3568
13.7735
13.7735
14.2095
14.2095
14.6645
14.6645
15.1362
15.1362
15.6139
15.614
16.0514
16.0514
16.0135
16.0135
1.52415e+06
1.52415e+06
265166
265165
89863.2
89862.8
42318.2
42317.7
23884.9
23884.5
15039.1
15038.6
10185.7
10185.3
7300.83
7300.49
5506.95
5506.68
4354.45
4354.25
3587.63
3587.49
3057.33
3057.23
2676.44
2676.35
2393.44
2393.38
2177.09
2177.04
2007.77
2007.72
1872.74
1872.7
1763.46
1763.43
1674.01
1673.98
1600.18
1600.16
1538.88
1538.87
1487.81
1487.8
1445.21
1445.2
1409.73
1409.71
1380.29
1380.28
1356.08
1356.07
1336.41
1336.4
1320.74
1320.74
1308.64
1308.64
1299.75
1299.75
1293.78
1293.78
1290.49
1290.49
1289.68
1289.68
1291.17
1291.18
1294.82
1294.83
1300.48
1300.49
1308.04
1308.05
1317.39
1317.4
1328.46
1328.47
1341.17
1341.18
1355.49
1355.5
1371.39
1371.4
1388.84
1388.86
1407.83
1407.84
1428.29
1428.31
1450.18
1450.19
1473.37
1473.38
1497.72
1497.74
1523.05
1523.06
1549.11
1549.13
1575.64
1575.66
1602.33
1602.35
1628.86
1628.87
1654.92
1654.93
1680.34
1680.35
1705.22
1705.24
1730.08
1730.1
1755.9
1755.92
1783.91
1783.92
1815.19
1815.21
1849.8
1849.82
1885.9
1885.92
1920.26
1920.28
1948.68
1948.7
1967.07
1967.08
1972.47
1972.48
1963.69
1963.69
1941.31
1941.31
1907.35
1907.35
1864.62
1864.61
1816.14
1816.13
1764.72
1764.71
1712.66
1712.65
1661.71
1661.7
1613.02
1613.01
1567.32
1567.31
1524.75
1524.74
1485.18
1485.17
1448.26
1448.25
1413.47
1413.46
1380.28
1380.28
1348.16
1348.15
1316.61
1316.6
1285.23
1285.22
1253.7
1253.68
1221.73
1221.72
1189.13
1189.11
1155.7
1155.69
1121.34
1121.32
1085.97
1085.96
1049.6
1049.58
1012.32
1012.3
974.313
974.291
935.888
935.866
897.431
897.409
859.384
859.363
822.196
822.175
786.264
786.244
751.883
751.864
719.24
719.222
688.333
688.316
659.061
659.044
631.25
631.235
604.711
604.696
579.281
579.266
554.864
554.85
531.444
531.431
509.083
509.071
487.896
487.884
468.023
468.012
449.591
449.581
432.676
432.667
417.28
417.272
403.28
403.272
390.453
390.446
378.483
378.476
367.002
366.996
355.645
355.639
344.114
344.108
332.239
332.232
320.016
320.009
307.621
307.614
295.378
295.372
283.689
283.683
272.929
272.924
263.381
263.376
255.07
255.066
247.801
247.797
241.24
241.237
235.001
234.998
228.747
228.744
222.26
222.257
215.463
215.46
208.403
208.4
201.206
201.203
194.037
194.034
187.056
187.053
180.4
180.397
174.164
174.162
168.408
168.406
163.152
163.149
158.381
158.379
154.052
154.05
150.094
150.093
146.42
146.418
142.931
142.929
139.534
139.533
136.152
136.151
132.73
132.729
129.245
129.243
125.7
125.698
122.126
122.124
118.572
118.571
115.1
115.099
111.775
111.773
108.657
108.656
105.802
105.801
103.253
103.252
101.041
101.04
99.1861
99.1854
97.6941
97.6937
96.5618
96.5616
95.776
95.776
95.3149
95.3152
95.1485
95.1489
95.2383
95.239
95.5374
95.5383
95.9897
95.9907
96.5299
96.531
97.0845
97.0858
97.5738
97.5751
97.9149
97.9162
98.0265
98.0277
97.8355
97.8366
97.284
97.2848
96.337
96.3375
94.991
94.9911
93.2798
93.2795
91.2789
91.278
89.1032
89.102
86.8985
86.897
84.8214
84.8198
83.0128
83.0113
81.5761
81.5749
80.5341
80.5332
79.8443
79.8436
79.4078
79.4071
79.0953
79.0945
78.7755
78.7745
78.3368
78.3355
77.6976
77.6962
76.8093
76.8077
75.6527
75.651
74.2322
74.2305
72.5693
72.5677
70.6967
70.6952
68.6535
68.652
66.4815
66.4801
64.2231
64.2218
61.9191
61.9179
59.6084
59.6073
57.3274
57.3265
55.11
55.1092
52.9878
52.987
50.9904
50.9897
49.1456
49.145
47.4789
47.4784
46.0125
46.0121
44.764
44.7637
43.7448
43.7446
42.9576
42.9575
42.3959
42.3958
42.043
42.043
41.8727
41.8727
41.8505
41.8505
41.9357
41.9357
42.0827
42.0828
42.2434
42.2435
42.3685
42.3686
42.41
42.4101
42.3233
42.3234
42.0695
42.0695
41.6186
41.6186
40.9528
40.9527
40.0694
40.0693
38.9843
38.984
37.7332
37.7329
36.3716
36.3712
34.9699
34.9695
33.6031
33.6028
32.3364
32.336
31.2134
31.2131
30.2362
30.236
29.366
29.3658
28.5464
28.5462
27.7174
27.7171
26.8315
26.8312
25.8635
25.8632
24.8118
24.8115
23.6947
23.6944
22.5433
22.543
21.3931
21.3928
20.2764
20.2761
19.2165
19.2163
18.2269
18.2267
17.3066
17.3065
16.4479
16.4477
15.6404
15.6403
14.8761
14.8759
14.1513
14.1512
13.4684
13.4682
12.8333
12.8331
12.253
12.2529
11.7326
11.7325
11.2719
11.2718
10.8641
10.864
10.4989
10.4988
10.164
10.164
9.84793
9.84787
9.54144
9.54138
9.23869
9.23863
8.93737
8.93731
8.63836
8.6383
8.3452
8.34514
8.06318
8.06313
7.79831
7.79826
7.55632
7.55627
7.34163
7.34159
7.15669
7.15666
7.00179
7.00177
6.87559
6.87556
6.77561
6.77559
6.69897
6.69896
6.64308
6.64307
6.60582
6.60581
6.58558
6.58557
6.58113
6.58113
6.59147
6.59148
6.6157
6.61571
6.65297
6.65298
6.70245
6.70246
6.7633
6.76331
6.83467
6.83468
6.91569
6.91571
7.00554
7.00556
7.1035
7.10352
7.20906
7.20908
7.322
7.32203
7.44244
7.44246
7.57078
7.5708
7.70765
7.70767
7.8537
7.85373
8.00953
8.00956
8.17551
8.17554
8.35167
8.35171
8.53778
8.53782
8.73346
8.7335
8.93835
8.93839
9.15221
9.15225
9.375
9.37504
9.60694
9.60698
9.84848
9.84853
10.1003
10.1003
10.363
10.3631
10.6376
10.6377
10.9249
10.9249
11.2256
11.2256
11.5406
11.5406
11.8706
11.8707
12.2165
12.2165
12.5789
12.579
12.9587
12.9588
13.3566
13.3567
13.7733
13.7734
14.2092
14.2093
14.6642
14.6642
15.1358
15.1358
15.6134
15.6135
16.0509
16.0509
16.0131
16.0131
16.0136
16.0136
16.0517
16.0517
15.6143
15.6143
15.1366
15.1366
14.6649
14.6649
14.2099
14.2099
13.774
13.774
13.3573
13.3573
12.9594
12.9594
12.5796
12.5796
12.2171
12.2171
11.8712
11.8712
11.5412
11.5412
11.2262
11.2262
10.9255
10.9255
10.6383
10.6383
10.3638
10.3638
10.101
10.101
9.84924
9.84924
9.60768
9.60768
9.37575
9.37575
9.15301
9.15301
8.93923
8.93924
8.73442
8.73442
8.53877
8.53877
8.35267
8.35267
8.17651
8.17652
8.01055
8.01055
7.85474
7.85475
7.70872
7.70872
7.57192
7.57193
7.44367
7.44367
7.32327
7.32328
7.2103
7.2103
7.10464
7.10464
7.0065
7.0065
6.9165
6.9165
6.83538
6.83538
6.76394
6.76395
6.70305
6.70305
6.65351
6.65351
6.61617
6.61618
6.59186
6.59186
6.5814
6.58141
6.58571
6.58571
6.60579
6.60579
6.64286
6.64286
6.69855
6.69855
6.77499
6.77499
6.87475
6.87475
7.00072
7.00072
7.15535
7.15534
7.34004
7.34003
7.55451
7.5545
7.79618
7.79617
8.06065
8.06064
8.34237
8.34236
8.63542
8.6354
8.93427
8.93425
9.23492
9.2349
9.53661
9.53659
9.84225
9.84223
10.1578
10.1577
10.4922
10.4922
10.8572
10.8572
11.2649
11.2648
11.7252
11.7251
12.2452
12.2451
12.8249
12.8249
13.4594
13.4593
14.1415
14.1414
14.8654
14.8653
15.6293
15.6292
16.4364
16.4363
17.2951
17.2949
18.2153
18.2152
19.2048
19.2046
20.2644
20.2642
21.3812
21.381
22.5321
22.5319
23.6848
23.6846
24.8034
24.8031
25.8565
25.8563
26.8256
26.8254
27.7124
27.7122
28.5426
28.5423
29.3627
29.3625
30.233
30.2327
31.2103
31.2101
32.3334
32.3331
33.6002
33.5998
34.9672
34.9668
36.3695
36.3692
37.7325
37.7322
38.9854
38.9851
40.0711
40.071
40.954
40.9539
41.6193
41.6193
42.0694
42.0694
42.3225
42.3225
42.4092
42.4092
42.3681
42.3682
42.2436
42.2437
42.0834
42.0835
41.9366
41.9366
41.8512
41.8513
41.8731
41.8731
42.0432
42.0431
42.3957
42.3956
42.957
42.9569
43.7439
43.7437
44.7628
44.7625
46.0109
46.0105
47.4769
47.4764
49.1433
49.1427
50.9878
50.9871
52.9848
52.984
55.1065
55.1057
57.3236
57.3226
59.6043
59.6032
61.9149
61.9137
64.2193
64.218
66.4782
66.4768
68.6501
68.6486
70.6928
70.6913
72.5654
72.5637
74.2288
74.2271
75.6495
75.6478
76.8055
76.804
77.6923
77.6909
78.329
78.3277
78.7657
78.7647
79.0852
79.0843
79.3984
79.3977
79.8353
79.8346
80.5254
80.5244
81.5676
81.5664
83.0046
83.0031
84.8141
84.8126
86.8921
86.8906
89.0976
89.0964
91.2739
91.2731
93.2753
93.2748
94.9878
94.9878
96.3364
96.3368
97.2852
97.2859
97.8367
97.8376
98.0266
98.0277
97.9143
97.9155
97.5731
97.5744
97.084
97.0852
96.5298
96.5309
95.99
95.991
95.5382
95.539
95.2395
95.2402
95.1501
95.1506
95.317
95.3172
95.7786
95.7786
96.565
96.5648
97.6981
97.6976
99.1909
99.1902
101.047
101.046
103.259
103.258
105.809
105.808
108.666
108.664
111.784
111.783
115.111
115.11
118.584
118.582
122.137
122.136
125.71
125.709
129.254
129.252
132.738
132.737
136.159
136.157
139.54
139.538
142.935
142.934
146.423
146.421
150.098
150.096
154.057
154.056
158.389
158.387
163.161
163.159
168.421
168.418
174.18
174.178
180.419
180.416
187.079
187.076
194.06
194.056
201.226
201.223
208.416
208.413
215.472
215.469
222.263
222.26
228.742
228.739
234.992
234.989
241.232
241.229
247.794
247.791
255.06
255.057
263.367
263.363
272.911
272.906
283.667
283.661
295.354
295.348
307.595
307.588
319.984
319.977
332.203
332.196
344.076
344.069
355.601
355.595
366.954
366.947
378.433
378.426
390.399
390.392
403.22
403.212
417.211
417.203
432.598
432.588
449.503
449.493
467.926
467.915
487.791
487.779
508.97
508.957
531.322
531.309
554.734
554.72
579.142
579.127
604.561
604.546
631.09
631.074
658.892
658.875
688.155
688.138
719.054
719.035
751.687
751.668
786.057
786.036
821.978
821.957
859.156
859.134
897.192
897.169
935.642
935.619
974.064
974.041
1012.07
1012.05
1049.37
1049.34
1085.74
1085.72
1121.11
1121.09
1155.45
1155.44
1188.86
1188.84
1221.44
1221.43
1253.38
1253.37
1284.9
1284.88
1316.25
1316.24
1347.77
1347.76
1379.87
1379.86
1413.03
1413.02
1447.78
1447.77
1484.68
1484.68
1524.23
1524.22
1566.77
1566.76
1612.46
1612.44
1661.12
1661.11
1712.05
1712.04
1764.09
1764.08
1815.5
1815.49
1863.96
1863.95
1906.69
1906.69
1940.68
1940.68
1963.07
1963.08
1971.88
1971.89
1966.49
1966.51
1948.1
1948.12
1919.67
1919.69
1885.31
1885.34
1849.24
1849.26
1814.63
1814.65
1783.36
1783.38
1755.36
1755.38
1729.56
1729.57
1704.72
1704.73
1679.85
1679.87
1654.46
1654.47
1628.43
1628.45
1601.95
1601.96
1575.28
1575.3
1548.77
1548.78
1522.72
1522.73
1497.41
1497.43
1473.08
1473.09
1449.9
1449.92
1428.03
1428.05
1407.58
1407.59
1388.61
1388.62
1371.17
1371.18
1355.28
1355.29
1340.97
1340.98
1328.27
1328.27
1317.21
1317.22
1307.86
1307.87
1300.31
1300.32
1294.65
1294.66
1291.01
1291.01
1289.51
1289.52
1290.32
1290.33
1293.61
1293.61
1299.58
1299.58
1308.48
1308.48
1320.58
1320.58
1336.26
1336.25
1355.93
1355.92
1380.15
1380.14
1409.58
1409.57
1445.06
1445.05
1487.66
1487.65
1538.73
1538.71
1600.02
1600
1673.84
1673.82
1763.29
1763.26
1872.56
1872.53
2007.59
2007.55
2176.91
2176.86
2393.27
2393.2
2676.27
2676.19
3057.18
3057.08
3587.51
3587.38
4354.38
4354.19
5506.95
5506.69
7300.9
7300.57
10185.8
10185.4
15039.2
15038.8
23885
23884.6
42318.2
42317.8
89863.4
89863
265166
265166
1.52416e+06
1.52416e+06
16.0131
16.0131
16.0511
16.0511
15.6138
15.6139
15.1362
15.1362
14.6646
14.6646
14.2097
14.2097
13.7738
13.7738
13.3571
13.3572
12.9592
12.9593
12.5794
12.5795
12.217
12.217
11.8711
11.8712
11.5411
11.5411
11.2261
11.2261
10.9254
10.9254
10.6382
10.6383
10.3637
10.3637
10.1009
10.101
9.84916
9.8492
9.6076
9.60764
9.37566
9.3757
9.15292
9.15296
8.93914
8.93918
8.73433
8.73437
8.53868
8.53872
8.35259
8.35262
8.17644
8.17647
8.01049
8.01052
7.85469
7.85472
7.70867
7.70869
7.57188
7.5719
7.44362
7.44365
7.32322
7.32324
7.21024
7.21027
7.10457
7.10459
7.00644
7.00645
6.91643
6.91645
6.83532
6.83533
6.76389
6.7639
6.703
6.70302
6.65348
6.65349
6.61616
6.61616
6.59186
6.59186
6.58142
6.58142
6.58575
6.58574
6.60585
6.60584
6.64294
6.64294
6.69867
6.69866
6.77516
6.77514
6.87497
6.87496
7.00101
7.00099
7.15571
7.15568
7.34048
7.34045
7.555
7.55497
7.7967
7.79667
8.06117
8.06113
8.34284
8.3428
8.63581
8.63577
8.93455
8.93451
9.23508
9.23505
9.53666
9.53663
9.84221
9.84219
10.1577
10.1577
10.4922
10.4921
10.8572
10.8572
11.265
11.2649
11.7254
11.7254
12.2455
12.2455
12.8254
12.8254
13.4599
13.4599
14.142
14.142
14.8659
14.8659
15.6298
15.6298
16.437
16.437
17.2957
17.2957
18.216
18.216
19.2055
19.2055
20.2652
20.2652
21.3819
21.382
22.5328
22.5329
23.6854
23.6855
24.8038
24.8039
25.8568
25.8569
26.8257
26.8259
27.7124
27.7125
28.5425
28.5426
29.3627
29.3628
30.233
30.2331
31.2104
31.2106
32.3336
32.3338
33.6005
33.6007
34.9675
34.9678
36.3698
36.3701
37.7328
37.733
38.9856
38.9858
40.0713
40.0714
40.9541
40.9541
41.6192
41.6193
42.0693
42.0693
42.3222
42.3222
42.4088
42.4088
42.3678
42.3677
42.2432
42.2431
42.083
42.0829
41.9361
41.9361
41.8508
41.8508
41.8727
41.8727
42.0428
42.0428
42.3954
42.3954
42.9567
42.9569
43.7436
43.7438
44.7625
44.7628
46.0106
46.011
47.4766
47.477
49.143
49.1435
50.9874
50.988
52.9844
52.985
55.1061
55.1068
57.323
57.3239
59.6036
59.6045
61.9141
61.9151
64.2183
64.2195
66.4771
66.4784
68.6489
68.6502
70.6915
70.6929
72.5639
72.5654
74.2272
74.2287
75.6478
75.6494
76.8039
76.8054
77.6908
77.6921
78.3276
78.3288
78.7645
78.7655
79.0842
79.0849
79.3975
79.3982
79.8345
79.8351
80.5244
80.5253
81.5665
81.5676
83.0033
83.0047
84.8128
84.8143
86.8908
86.8922
89.0966
89.0978
91.2733
91.2741
93.275
93.2754
94.988
94.9879
96.3369
96.3365
97.2859
97.2852
97.8376
97.8366
98.0277
98.0265
97.9154
97.9142
97.5742
97.573
97.0851
97.0839
96.5307
96.5296
95.9908
95.9899
95.5389
95.5381
95.24
95.2394
95.1504
95.15
95.3171
95.3169
95.7785
95.7785
96.5647
96.5649
97.6975
97.698
99.1902
99.1908
101.046
101.047
103.258
103.259
105.808
105.809
108.664
108.666
111.783
111.784
115.11
115.111
118.582
118.584
122.136
122.137
125.709
125.71
129.252
129.254
132.737
132.738
136.157
136.159
139.538
139.54
142.933
142.935
146.421
146.423
150.096
150.098
154.056
154.057
158.387
158.389
163.159
163.161
168.418
168.42
174.178
174.18
180.416
180.419
187.075
187.079
194.056
194.06
201.223
201.226
208.413
208.416
215.468
215.471
222.26
222.263
228.739
228.742
234.989
234.992
241.229
241.232
247.791
247.794
255.057
255.06
263.363
263.367
272.906
272.912
283.661
283.667
295.348
295.354
307.588
307.595
319.977
319.984
332.196
332.203
344.069
344.076
355.595
355.601
366.948
366.954
378.426
378.433
390.392
390.399
403.212
403.22
417.203
417.211
432.589
432.598
449.493
449.504
467.915
467.927
487.779
487.791
508.957
508.97
531.309
531.322
554.72
554.734
579.128
579.142
604.546
604.561
631.074
631.09
658.875
658.892
688.138
688.156
719.035
719.054
751.668
751.688
786.037
786.058
821.957
821.979
859.134
859.156
897.17
897.192
935.619
935.642
974.042
974.064
1012.05
1012.07
1049.34
1049.37
1085.72
1085.74
1121.09
1121.11
1155.44
1155.45
1188.84
1188.86
1221.43
1221.44
1253.37
1253.39
1284.88
1284.9
1316.24
1316.25
1347.76
1347.77
1379.86
1379.87
1413.02
1413.03
1447.77
1447.78
1484.68
1484.68
1524.22
1524.23
1566.76
1566.77
1612.45
1612.46
1661.11
1661.12
1712.04
1712.05
1764.08
1764.09
1815.49
1815.5
1863.95
1863.96
1906.69
1906.69
1940.68
1940.68
1963.08
1963.08
1971.9
1971.88
1966.51
1966.49
1948.12
1948.1
1919.69
1919.67
1885.34
1885.31
1849.26
1849.24
1814.65
1814.63
1783.38
1783.36
1755.38
1755.36
1729.57
1729.56
1704.73
1704.72
1679.87
1679.86
1654.48
1654.46
1628.45
1628.44
1601.96
1601.95
1575.3
1575.28
1548.78
1548.77
1522.73
1522.72
1497.43
1497.41
1473.09
1473.08
1449.92
1449.9
1428.05
1428.03
1407.59
1407.58
1388.62
1388.61
1371.18
1371.17
1355.29
1355.28
1340.98
1340.97
1328.28
1328.27
1317.22
1317.21
1307.87
1307.86
1300.32
1300.31
1294.66
1294.65
1291.01
1291.01
1289.52
1289.51
1290.33
1290.32
1293.61
1293.61
1299.58
1299.59
1308.48
1308.48
1320.58
1320.58
1336.25
1336.26
1355.92
1355.93
1380.14
1380.15
1409.57
1409.58
1445.05
1445.06
1487.65
1487.66
1538.71
1538.73
1600
1600.02
1673.82
1673.84
1763.26
1763.29
1872.53
1872.56
2007.55
2007.59
2176.86
2176.91
2393.21
2393.27
2676.19
2676.27
3057.08
3057.18
3587.38
3587.51
4354.19
4354.38
5506.69
5506.95
7300.57
7300.9
10185.4
10185.8
15038.8
15039.2
23884.6
23885
42317.8
42318.2
89863
89863.4
265166
265166
1.52416e+06
1.52416e+06
)
;

boundaryField
{
    walls
    {
        blending        binomial2;
        n               2;
        beta1           0.075;
        type            omegaWallFunction;
        value           nonuniform List<scalar> 8(1.52415e+06 1.52415e+06 1.52415e+06 1.52415e+06 1.52416e+06 1.52416e+06 1.52416e+06 1.52416e+06);
    }
    inlet
    {
        type            cyclic;
    }
    outlet
    {
        type            cyclic;
    }
    sides
    {
        type            empty;
    }
}


// ************************************************************************* //
