/*--------------------------------*- C++ -*----------------------------------*\
| =========                 |                                                 |
| \\      /  F ield         | OpenFOAM: The Open Source CFD Toolbox           |
|  \\    /   O peration     | Version:  2012                                  |
|   \\  /    A nd           | Website:  www.openfoam.com                      |
|    \\/     M anipulation  |                                                 |
\*---------------------------------------------------------------------------*/
FoamFile
{
    version     2.0;
    format      ascii;
    class       volScalarField;
    location    "10010";
    object      p;
}
// * * * * * * * * * * * * * * * * * * * * * * * * * * * * * * * * * * * * * //

dimensions      [0 2 -2 0 0 0 0];


internalField   nonuniform List<scalar> 
2560
(
-2.94331e-09
-0.203552
-4.12482e-05
-0.203591
-4.26004e-05
-0.203596
-3.94229e-05
-0.203596
-3.87873e-05
-0.203596
-3.87252e-05
-0.203596
-3.85503e-05
-0.203596
-3.82388e-05
-0.203597
-3.78869e-05
-0.203597
-3.76244e-05
-0.203597
-3.70833e-05
-0.203597
-3.71343e-05
-0.203598
-3.96573e-05
-0.203599
-5.13669e-05
-0.203608
-9.10356e-05
-0.203647
-0.000189218
-0.203746
-0.000361722
-0.203919
-0.000585205
-0.204143
-0.000828908
-0.204389
-0.00108056
-0.204638
-0.00134064
-0.204906
-0.00160172
-0.205153
-0.00185838
-0.20544
-0.00212664
-0.205652
-0.00245033
-0.206087
-0.00287521
-0.206302
-0.00343007
-0.207252
-0.00410473
-0.207489
-0.00487329
-0.209091
-0.00568744
-0.209367
-0.00651674
-0.211346
-0.0073129
-0.211578
-0.00806386
-0.213738
-0.00874003
-0.213863
-0.00938473
-0.216149
-0.0100181
-0.216175
-0.0107498
-0.218862
-0.011609
-0.218898
-0.0127167
-0.222459
-0.0140413
-0.222632
-0.0156808
-0.227372
-0.0175098
-0.22772
-0.0196136
-0.233604
-0.021779
-0.234062
-0.0241397
-0.240803
-0.0264366
-0.241263
-0.0289214
-0.248641
-0.0312871
-0.249053
-0.0339679
-0.257132
-0.0365813
-0.257558
-0.039827
-0.266835
-0.0435513
-0.267578
-0.0492786
-0.280565
-0.0575981
-0.282961
-0.0712783
-0.307412
-0.091548
-0.31462
-0.121402
-0.363277
-0.160748
-0.379048
-0.209992
-0.458986
-0.265283
-0.48324
-0.322823
-0.580656
-0.376086
-0.606081
-0.419711
-0.687937
-0.44936
-0.703652
-0.462529
-0.742027
-0.460479
-0.74034
-0.444496
-0.70043
-0.419748
-0.689075
-0.388671
-0.630418
-0.356394
-0.616185
-0.324089
-0.319932
-0.29476
-0.303666
-0.268084
-0.265163
-0.245275
-0.252493
-0.225374
-0.223289
-0.208851
-0.213984
-0.194784
-0.193225
-0.18345
-0.186752
-0.174121
-0.172862
-0.166943
-0.168666
-0.161344
-0.160236
-0.157355
-0.157805
-0.154478
-0.153439
-0.15268
-0.152256
-0.151613
-0.150606
-0.151298
-0.150254
-0.151588
-0.150579
-0.15262
-0.15174
-0.154441
-0.153459
-0.157282
-0.156392
-0.161288
-0.160329
-0.166682
-0.165787
-0.173563
-0.172623
-0.18201
-0.181116
-0.191948
-0.191026
-0.203245
-0.202354
-0.21563
-0.214724
-0.228788
-0.227903
-0.24235
-0.241458
-0.255962
-0.255085
-0.269297
-0.268418
-0.282104
-0.281237
-0.294196
-0.293329
-0.305479
-0.304621
-0.315929
-0.315073
-0.325575
-0.324727
-0.334487
-0.333642
-0.342751
-0.341912
-0.350458
-0.349623
-0.3577
-0.35687
-0.364559
-0.363734
-0.371122
-0.370302
-0.377483
-0.376668
-0.383737
-0.382927
-0.389997
-0.389192
-0.396393
-0.395593
-0.403041
-0.402246
-0.410058
-0.409269
-0.417556
-0.416773
-0.425637
-0.424861
-0.434405
-0.433634
-0.443969
-0.443206
-0.454464
-0.453708
-0.466064
-0.465314
-0.478986
-0.478244
-0.493507
-0.492772
-0.509946
-0.509219
-0.528648
-0.527928
-0.549961
-0.549249
-0.574182
-0.573477
-0.601514
-0.600816
-0.632026
-0.631336
-0.665597
-0.664913
-0.701887
-0.70121
-0.74034
-0.73967
-0.7802
-0.779536
-0.820556
-0.819899
-0.860411
-0.85976
-0.898764
-0.89812
-0.934706
-0.934069
-0.967487
-0.966855
-0.996574
-0.995949
-1.02168
-1.02106
-1.04275
-1.04214
-1.05995
-1.05934
-1.0736
-1.073
-1.08415
-1.08356
-1.09208
-1.0915
-1.0979
-1.09731
-1.10205
-1.10148
-1.10495
-1.10438
-1.10694
-1.10637
-1.10826
-1.1077
-1.10914
-1.10859
-1.10971
-1.10916
-1.11008
-1.10953
-1.11031
-1.10977
-1.11045
-1.10991
-1.11053
-1.11
-1.11057
-1.11005
-1.11058
-1.11006
-1.11056
-1.11004
-1.11052
-1.11
-1.11046
-1.10996
-1.1104
-1.10989
-1.11032
-1.10982
-1.11024
-1.10975
-1.11015
-1.10966
-1.11006
-1.10958
-1.10997
-1.10949
-1.10989
-1.10941
-1.1098
-1.10933
-1.10973
-1.10925
-1.10965
-1.10918
-1.10959
-1.10912
-1.10954
-1.10907
-1.10949
-1.10903
-1.10945
-1.10899
-1.10942
-1.10896
-1.1094
-1.10894
-1.10938
-1.10892
-1.10936
-1.1089
-1.10935
-1.10889
-1.10934
-1.10888
-1.10933
-1.10887
-1.10932
-1.10886
-1.10931
-1.10885
-1.10929
-1.10883
-1.10927
-1.10881
-1.10923
-1.10877
-1.10917
-1.10872
-1.1091
-1.10865
-1.10899
-1.10854
-1.10884
-1.1084
-1.10864
-1.1082
-1.10837
-1.10793
-1.10802
-1.10758
-1.10756
-1.10713
-1.10697
-1.10654
-1.10623
-1.10581
-1.10531
-1.10489
-1.10418
-1.10377
-1.10282
-1.10242
-1.1012
-1.10081
-1.0993
-1.09891
-1.0971
-1.09672
-1.0946
-1.09423
-1.09179
-1.09142
-1.08868
-1.08832
-1.08527
-1.08492
-1.0816
-1.08126
-1.07769
-1.07735
-1.07356
-1.07323
-1.06924
-1.06892
-1.06477
-1.06446
-1.06016
-1.05985
-1.05543
-1.05513
-1.05058
-1.05029
-1.04562
-1.04533
-1.04053
-1.04024
-1.0353
-1.03503
-1.02993
-1.02966
-1.02439
-1.02412
-1.01868
-1.01842
-1.0128
-1.01254
-1.00676
-1.0065
-1.00056
-1.00031
-0.994238
-0.993988
-0.987814
-0.987566
-0.981319
-0.981074
-0.974789
-0.974547
-0.968252
-0.968012
-0.961738
-0.9615
-0.955266
-0.95503
-0.948848
-0.948615
-0.942493
-0.942263
-0.9362
-0.935973
-0.929966
-0.929742
-0.923782
-0.923562
-0.917639
-0.917423
-0.911528
-0.911316
-0.905437
-0.905229
-0.899361
-0.899157
-0.893294
-0.893094
-0.88723
-0.887035
-0.881166
-0.880975
-0.875099
-0.874912
-0.869025
-0.868842
-0.862938
-0.862758
-0.856833
-0.856657
-0.850701
-0.850528
-0.844532
-0.844363
-0.838319
-0.838153
-0.832051
-0.831888
-0.825719
-0.825558
-0.819314
-0.819156
-0.81283
-0.812675
-0.806262
-0.80611
-0.799608
-0.799458
-0.792863
-0.792715
-0.786028
-0.785883
-0.779101
-0.778958
-0.772084
-0.771944
-0.764977
-0.764839
-0.75778
-0.757644
-0.750498
-0.750364
-0.743135
-0.743003
-0.735694
-0.735563
-0.728183
-0.728055
-0.720611
-0.720484
-0.71299
-0.712865
-0.705326
-0.705203
-0.697637
-0.697515
-0.689925
-0.689805
-0.682209
-0.682091
-0.674485
-0.674368
-0.666771
-0.666656
-0.659052
-0.658939
-0.651344
-0.651233
-0.643622
-0.643513
-0.635907
-0.6358
-0.62816
-0.628056
-0.620415
-0.620313
-0.612627
-0.612527
-0.604848
-0.604751
-0.597029
-0.596935
-0.589246
-0.589156
-0.581448
-0.581361
-0.573735
-0.573652
-0.566045
-0.565966
-0.558503
-0.558429
-0.551026
-0.550957
-0.543759
-0.543696
-0.536591
-0.536534
-0.529682
-0.529631
-0.52289
-0.522847
-0.516388
-0.516352
-0.510001
-0.509975
-0.503914
-0.503898
-0.497927
-0.497923
-0.492234
-0.492241
-0.486613
-0.486636
-0.481269
-0.481305
-0.475964
-0.47602
-0.470911
-0.470983
-0.465864
-0.465963
-0.461048
-0.461163
-0.456216
-0.456367
-0.451611
-0.45178
-0.446999
-0.447216
-0.442644
-0.442879
-0.438345
-0.438636
-0.434373
-0.434682
-0.430589
-0.43094
-0.427237
-0.427606
-0.424241
-0.424642
-0.421806
-0.422222
-0.419897
-0.420334
-0.418651
-0.419098
-0.418058
-0.418515
-0.204265
-0.000579511
-0.204304
-0.000620748
-0.204309
-0.000622085
-0.204309
-0.000618887
-0.204309
-0.000618227
-0.204309
-0.000618146
-0.204309
-0.000617956
-0.20431
-0.000617631
-0.20431
-0.000617264
-0.20431
-0.000616988
-0.204311
-0.000616416
-0.204311
-0.000616442
-0.204312
-0.0006189
-0.204322
-0.000630518
-0.204361
-0.000670106
-0.20446
-0.000768211
-0.204633
-0.000940646
-0.204856
-0.00116407
-0.205102
-0.00140769
-0.205351
-0.00165926
-0.205619
-0.00191925
-0.205866
-0.00218024
-0.206153
-0.00243679
-0.206365
-0.00270496
-0.2068
-0.00302852
-0.207016
-0.00345329
-0.207966
-0.00400801
-0.208203
-0.00468254
-0.209804
-0.00545095
-0.210081
-0.00626497
-0.212059
-0.0070941
-0.212292
-0.00789012
-0.214452
-0.0086409
-0.214576
-0.00931692
-0.216863
-0.00996143
-0.216888
-0.0105946
-0.219575
-0.0113261
-0.219612
-0.0121851
-0.223172
-0.0132926
-0.223345
-0.014617
-0.228085
-0.0162563
-0.228433
-0.0180851
-0.234317
-0.0201887
-0.234775
-0.0223539
-0.241516
-0.0247143
-0.241976
-0.027011
-0.249353
-0.0294956
-0.249765
-0.0318611
-0.257844
-0.0345416
-0.25827
-0.0371548
-0.267547
-0.0404002
-0.26829
-0.0441243
-0.281277
-0.0498513
-0.283672
-0.0581706
-0.308124
-0.0718505
-0.315332
-0.09212
-0.363989
-0.121974
-0.37976
-0.16132
-0.459698
-0.210564
-0.483952
-0.265854
-0.581368
-0.323394
-0.606793
-0.376657
-0.688649
-0.420282
-0.704364
-0.44993
-0.742739
-0.463099
-0.741052
-0.461049
-0.701142
-0.445065
-0.689787
-0.420317
-0.63113
-0.38924
-0.616897
-0.356962
-0.320646
-0.324657
-0.30438
-0.295328
-0.265877
-0.268651
-0.253207
-0.245843
-0.224003
-0.225941
-0.214697
-0.209418
-0.193939
-0.195351
-0.187466
-0.184016
-0.173575
-0.174687
-0.16938
-0.167509
-0.160949
-0.16191
-0.158518
-0.157921
-0.154153
-0.155044
-0.152969
-0.153245
-0.151319
-0.152178
-0.150967
-0.151863
-0.151292
-0.152153
-0.152453
-0.153186
-0.154172
-0.155006
-0.157105
-0.157847
-0.161042
-0.161853
-0.1665
-0.167246
-0.173337
-0.174127
-0.181829
-0.182574
-0.191739
-0.192512
-0.203067
-0.203809
-0.215437
-0.216194
-0.228617
-0.229351
-0.242171
-0.242914
-0.255799
-0.256525
-0.269132
-0.269861
-0.281951
-0.282668
-0.294042
-0.294759
-0.305335
-0.306043
-0.315787
-0.316492
-0.32544
-0.326138
-0.334356
-0.335051
-0.342626
-0.343314
-0.350337
-0.351021
-0.357584
-0.358263
-0.364447
-0.365122
-0.371016
-0.371685
-0.377382
-0.378046
-0.383641
-0.3843
-0.389906
-0.39056
-0.396307
-0.396955
-0.40296
-0.403603
-0.409983
-0.41062
-0.417487
-0.418118
-0.425575
-0.426199
-0.434349
-0.434967
-0.44392
-0.444531
-0.454422
-0.455026
-0.466029
-0.466626
-0.478958
-0.479548
-0.493487
-0.494069
-0.509933
-0.510508
-0.528643
-0.52921
-0.549964
-0.550523
-0.574191
-0.574743
-0.601531
-0.602076
-0.63205
-0.632588
-0.665628
-0.666158
-0.701925
-0.702448
-0.740385
-0.740901
-0.780252
-0.780761
-0.820614
-0.821117
-0.860476
-0.860971
-0.898836
-0.899325
-0.934784
-0.935266
-0.967571
-0.968047
-0.996665
-0.997134
-1.02178
-1.02224
-1.04285
-1.04331
-1.06006
-1.06051
-1.07372
-1.07416
-1.08427
-1.08471
-1.09221
-1.09264
-1.09803
-1.09845
-1.10219
-1.10261
-1.1051
-1.10551
-1.10709
-1.1075
-1.10842
-1.10882
-1.1093
-1.1097
-1.10988
-1.11026
-1.11025
-1.11065
-1.11049
-1.11085
-1.11063
-1.11103
-1.11072
-1.11108
-1.11077
-1.11116
-1.11078
-1.11117
-1.11076
-1.11111
-1.11072
-1.11109
-1.11068
-1.111
-1.11062
-1.11096
-1.11054
-1.11086
-1.11047
-1.1108
-1.11038
-1.11069
-1.1103
-1.11062
-1.11021
-1.11052
-1.11013
-1.11044
-1.11005
-1.11035
-1.10998
-1.11027
-1.10991
-1.1102
-1.10985
-1.11014
-1.1098
-1.11008
-1.10975
-1.11003
-1.10972
-1.10999
-1.10969
-1.10996
-1.10966
-1.10994
-1.10965
-1.10992
-1.10963
-1.1099
-1.10962
-1.10989
-1.10961
-1.10988
-1.1096
-1.10987
-1.1096
-1.10986
-1.10958
-1.10985
-1.10957
-1.10983
-1.10954
-1.1098
-1.10951
-1.10977
-1.10946
-1.10971
-1.10938
-1.10963
-1.10928
-1.10953
-1.10914
-1.10938
-1.10894
-1.10917
-1.10867
-1.1089
-1.10832
-1.10855
-1.10787
-1.10809
-1.10729
-1.1075
-1.10655
-1.10676
-1.10564
-1.10584
-1.10452
-1.10471
-1.10316
-1.10335
-1.10155
-1.10173
-1.09966
-1.09983
-1.09747
-1.09763
-1.09498
-1.09513
-1.09217
-1.09232
-1.08907
-1.0892
-1.08567
-1.0858
-1.08201
-1.08212
-1.0781
-1.07821
-1.07398
-1.07408
-1.06968
-1.06977
-1.06521
-1.06529
-1.06061
-1.06068
-1.05589
-1.05595
-1.05105
-1.0511
-1.04609
-1.04613
-1.04101
-1.04104
-1.03579
-1.03582
-1.03042
-1.03044
-1.02489
-1.0249
-1.01919
-1.0192
-1.01331
-1.01332
-1.00727
-1.00727
-1.00108
-1.00107
-0.994758
-0.994748
-0.988336
-0.988323
-0.981845
-0.981827
-0.975318
-0.975297
-0.968784
-0.96876
-0.962273
-0.962245
-0.955804
-0.955772
-0.94939
-0.949354
-0.943039
-0.942998
-0.93675
-0.936704
-0.930521
-0.93047
-0.924341
-0.924284
-0.918204
-0.918141
-0.912098
-0.912028
-0.906014
-0.905936
-0.899943
-0.899859
-0.893882
-0.89379
-0.887825
-0.887725
-0.881767
-0.881659
-0.875707
-0.87559
-0.869638
-0.869514
-0.863557
-0.863425
-0.857459
-0.857318
-0.851332
-0.851183
-0.84517
-0.845012
-0.838963
-0.838797
-0.832701
-0.832526
-0.826375
-0.826191
-0.819976
-0.819782
-0.813499
-0.813295
-0.806938
-0.806723
-0.800292
-0.800065
-0.793553
-0.793315
-0.786728
-0.786476
-0.779808
-0.779542
-0.772802
-0.77252
-0.765703
-0.765404
-0.758518
-0.758202
-0.751244
-0.750909
-0.743896
-0.743541
-0.736462
-0.736085
-0.728971
-0.728571
-0.721404
-0.72098
-0.713807
-0.713357
-0.706145
-0.705669
-0.698487
-0.697983
-0.690771
-0.690237
-0.683098
-0.682533
-0.67536
-0.674762
-0.667703
-0.667071
-0.659956
-0.659289
-0.652326
-0.651622
-0.644556
-0.643812
-0.636947
-0.636163
-0.629123
-0.628295
-0.621523
-0.62065
-0.613617
-0.612698
-0.606034
-0.605065
-0.598044
-0.597024
-0.590525
-0.589451
-0.582485
-0.581357
-0.575119
-0.573932
-0.567098
-0.565853
-0.56001
-0.5587
-0.552092
-0.550718
-0.545408
-0.543962
-0.537664
-0.53615
-0.531493
-0.529897
-0.523968
-0.522296
-0.518385
-0.51662
-0.511083
-0.509232
-0.506125
-0.504166
-0.499018
-0.496961
-0.494686
-0.492505
-0.487724
-0.485427
-0.483989
-0.481553
-0.477112
-0.474536
-0.473925
-0.471198
-0.467077
-0.464174
-0.464377
-0.461322
-0.457532
-0.454242
-0.455272
-0.451854
-0.446256
-0.444719
-0.444119
-0.442444
-0.428486
-0.435801
-0.426573
-0.433861
-0.420587
-0.428016
-0.418947
-0.426398
-0.414049
-0.421723
-0.412825
-0.42062
-0.409453
-0.417531
-0.40879
-0.417089
-0.407245
-0.415983
-0.418058
-0.418516
-0.418651
-0.419099
-0.419897
-0.420337
-0.421806
-0.422226
-0.424242
-0.424648
-0.427236
-0.427612
-0.430591
-0.430951
-0.434372
-0.43469
-0.438346
-0.438645
-0.442645
-0.442891
-0.447002
-0.447231
-0.451612
-0.451795
-0.456218
-0.456384
-0.46105
-0.461182
-0.465867
-0.465983
-0.470912
-0.471002
-0.475964
-0.47604
-0.481269
-0.481326
-0.486612
-0.486658
-0.492236
-0.492266
-0.497927
-0.497948
-0.503914
-0.503924
-0.51
-0.510002
-0.516384
-0.516379
-0.522887
-0.522875
-0.529681
-0.529664
-0.536586
-0.536564
-0.543757
-0.54373
-0.551023
-0.550992
-0.558495
-0.558461
-0.566042
-0.566005
-0.57373
-0.573691
-0.581446
-0.581406
-0.589239
-0.589197
-0.597026
-0.596983
-0.604836
-0.604793
-0.612615
-0.612571
-0.620404
-0.62036
-0.628145
-0.628101
-0.635895
-0.635852
-0.643606
-0.643564
-0.651329
-0.651288
-0.659034
-0.658994
-0.666753
-0.666715
-0.674461
-0.674425
-0.682188
-0.682154
-0.689898
-0.689865
-0.697609
-0.697579
-0.705295
-0.705268
-0.712959
-0.712935
-0.720574
-0.720552
-0.728152
-0.728133
-0.735656
-0.735641
-0.743091
-0.743079
-0.750455
-0.750446
-0.757735
-0.757729
-0.764931
-0.764929
-0.772033
-0.772034
-0.779045
-0.77905
-0.785968
-0.785977
-0.792808
-0.792821
-0.799546
-0.799562
-0.8062
-0.806219
-0.812763
-0.812786
-0.819246
-0.819272
-0.825642
-0.825672
-0.831968
-0.832002
-0.838241
-0.838279
-0.844448
-0.84449
-0.850618
-0.850663
-0.856738
-0.856788
-0.862837
-0.862891
-0.868924
-0.868982
-0.87499
-0.875053
-0.881054
-0.881121
-0.887115
-0.887187
-0.893178
-0.893255
-0.899244
-0.899326
-0.905318
-0.905405
-0.911402
-0.911493
-0.917505
-0.917601
-0.923645
-0.923746
-0.929821
-0.929926
-0.936051
-0.93616
-0.942347
-0.942459
-0.948692
-0.948807
-0.955103
-0.955221
-0.961584
-0.961705
-0.968092
-0.968216
-0.974617
-0.974744
-0.981152
-0.981281
-0.987643
-0.987775
-0.994062
-0.994197
-1.00038
-1.00052
-1.00659
-1.00673
-1.01263
-1.01278
-1.0185
-1.01865
-1.02421
-1.02436
-1.02974
-1.0299
-1.0351
-1.03527
-1.04032
-1.04049
-1.04541
-1.04559
-1.05037
-1.05055
-1.05521
-1.0554
-1.05994
-1.06014
-1.06453
-1.06474
-1.06899
-1.06921
-1.07331
-1.07353
-1.07742
-1.07766
-1.08132
-1.08157
-1.08499
-1.08524
-1.08839
-1.08865
-1.09149
-1.09176
-1.0943
-1.09458
-1.0968
-1.09708
-1.09898
-1.09927
-1.10088
-1.10117
-1.10249
-1.10279
-1.10384
-1.10415
-1.10496
-1.10528
-1.10588
-1.1062
-1.10661
-1.10694
-1.1072
-1.10753
-1.10765
-1.10799
-1.108
-1.10835
-1.10827
-1.10862
-1.10846
-1.10882
-1.10861
-1.10897
-1.10871
-1.10908
-1.10879
-1.10915
-1.10884
-1.10921
-1.10888
-1.10925
-1.1089
-1.10927
-1.10892
-1.10929
-1.10893
-1.1093
-1.10894
-1.10931
-1.10894
-1.10932
-1.10895
-1.10933
-1.10897
-1.10934
-1.10898
-1.10936
-1.109
-1.10938
-1.10902
-1.10941
-1.10905
-1.10944
-1.10909
-1.10948
-1.10913
-1.10952
-1.10918
-1.10958
-1.10924
-1.10964
-1.10931
-1.10971
-1.10938
-1.10979
-1.10947
-1.10988
-1.10955
-1.10996
-1.10964
-1.11006
-1.10972
-1.11014
-1.1098
-1.11024
-1.10988
-1.1103
-1.10995
-1.11041
-1.11001
-1.11044
-1.11006
-1.11054
-1.11009
-1.11056
-1.11011
-1.11062
-1.1101
-1.11061
-1.11005
-1.11052
-1.10997
-1.11047
-1.10982
-1.11029
-1.10958
-1.11009
-1.10921
-1.1097
-1.10864
-1.10915
-1.10776
-1.10827
-1.10642
-1.10694
-1.10444
-1.10496
-1.10151
-1.10204
-1.09738
-1.09791
-1.09153
-1.09207
-1.08361
-1.08415
-1.07305
-1.0736
-1.05937
-1.05993
-1.0421
-1.04266
-1.02111
-1.02168
-0.996082
-0.996663
-0.966808
-0.967395
-0.93407
-0.934664
-0.89816
-0.898761
-0.859866
-0.860473
-0.820017
-0.820632
-0.779746
-0.780368
-0.739884
-0.740512
-0.701172
-0.701808
-0.664928
-0.665571
-0.631524
-0.632174
-0.600795
-0.601453
-0.5734
-0.574066
-0.549332
-0.550006
-0.528045
-0.528726
-0.50931
-0.509999
-0.49279
-0.493487
-0.478317
-0.479022
-0.465396
-0.466109
-0.45377
-0.45449
-0.443218
-0.443945
-0.433706
-0.43444
-0.424944
-0.425685
-0.416782
-0.41753
-0.409348
-0.410102
-0.402326
-0.403087
-0.395627
-0.396394
-0.38921
-0.389982
-0.382972
-0.383749
-0.376679
-0.377462
-0.370335
-0.371123
-0.363809
-0.364602
-0.356872
-0.35767
-0.349666
-0.35047
-0.341983
-0.342791
-0.333643
-0.334458
-0.324767
-0.325586
-0.315189
-0.316016
-0.30465
-0.305479
-0.293287
-0.294126
-0.281309
-0.282149
-0.268452
-0.269304
-0.255087
-0.255937
-0.241459
-0.242324
-0.227941
-0.228801
-0.214819
-0.2157
-0.202345
-0.203212
-0.191134
-0.19203
-0.181191
-0.182064
-0.172695
-0.173609
-0.16588
-0.166755
-0.160366
-0.161299
-0.156404
-0.157277
-0.153485
-0.154441
-0.151767
-0.152634
-0.15063
-0.151612
-0.150306
-0.151319
-0.150656
-0.151636
-0.152309
-0.152693
-0.153496
-0.154506
-0.15784
-0.157386
-0.160277
-0.161354
-0.168788
-0.166999
-0.172973
-0.1742
-0.186877
-0.183466
-0.193373
-0.194901
-0.213988
-0.208958
-0.223268
-0.225324
-0.251962
-0.245287
-0.265085
-0.26797
-0.538646
-0.294871
-0.550943
-0.324189
-0.608675
-0.35608
-0.622342
-0.38844
-0.682366
-0.420018
-0.693658
-0.444259
-0.733713
-0.460589
-0.735422
-0.46262
-0.697166
-0.449237
-0.6814
-0.420108
-0.598892
-0.375515
-0.57385
-0.32321
-0.475962
-0.265981
-0.451692
-0.210159
-0.371409
-0.161133
-0.35565
-0.12147
-0.306772
-0.091757
-0.299599
-0.0713733
-0.274972
-0.0577477
-0.272581
-0.0494025
-0.259246
-0.0435346
-0.258564
-0.0398561
-0.249137
-0.0366393
-0.248749
-0.0340692
-0.240367
-0.0313353
-0.239997
-0.0289387
-0.232463
-0.0265076
-0.232031
-0.0241926
-0.225087
-0.0218235
-0.224665
-0.0196521
-0.218634
-0.0175649
-0.218312
-0.0157401
-0.213394
-0.0140733
-0.213255
-0.0127624
-0.209558
-0.0116533
-0.20955
-0.0108067
-0.206722
-0.0100572
-0.206736
-0.00943897
-0.204328
-0.00878781
-0.20423
-0.00810888
-0.201971
-0.00735784
-0.201769
-0.00657369
-0.199709
-0.00575552
-0.199449
-0.00493139
-0.19776
-0.00414988
-0.197544
-0.00347981
-0.196458
-0.00292487
-0.196314
-0.00249258
-0.195826
-0.00217582
-0.195642
-0.00190737
-0.195339
-0.00164865
-0.195104
-0.00139246
-0.194836
-0.00113618
-0.194587
-0.000881966
-0.194337
-0.000635114
-0.194116
-0.00041468
-0.193944
-0.000243073
-0.193843
-0.000142719
-0.193803
-0.000102591
-0.193794
-9.08081e-05
-0.193793
-8.8404e-05
-0.193792
-8.83855e-05
-0.193792
-8.89371e-05
-0.193792
-8.92347e-05
-0.193791
-8.96171e-05
-0.193791
-8.99376e-05
-0.193791
-9.01397e-05
-0.193791
-9.0209e-05
-0.193791
-9.0874e-05
-0.193791
-9.4075e-05
-0.193786
-9.27126e-05
-0.193747
-5.14158e-05
-0.407245
-0.415979
-0.40879
-0.41709
-0.409452
-0.417522
-0.412826
-0.42062
-0.41405
-0.421712
-0.41895
-0.426394
-0.420589
-0.428003
-0.426573
-0.433856
-0.428486
-0.435793
-0.44414
-0.442437
-0.446278
-0.444711
-0.455267
-0.451838
-0.457527
-0.454232
-0.464373
-0.461304
-0.467073
-0.464161
-0.473919
-0.471177
-0.477107
-0.474518
-0.483984
-0.48153
-0.487719
-0.485406
-0.494684
-0.492482
-0.499016
-0.496938
-0.506123
-0.50414
-0.511081
-0.509205
-0.518382
-0.51659
-0.523965
-0.522265
-0.531494
-0.529868
-0.537662
-0.536116
-0.545409
-0.54393
-0.552093
-0.550684
-0.560008
-0.55866
-0.567103
-0.565817
-0.575123
-0.573894
-0.582493
-0.581321
-0.59053
-0.589409
-0.598055
-0.596987
-0.606039
-0.605019
-0.613624
-0.61265
-0.621532
-0.620603
-0.62913
-0.628243
-0.636961
-0.636114
-0.644568
-0.643759
-0.652342
-0.651569
-0.659972
-0.659233
-0.667722
-0.667015
-0.675377
-0.6747
-0.683121
-0.682473
-0.690791
-0.690171
-0.698511
-0.697916
-0.706169
-0.705598
-0.713836
-0.713287
-0.721431
-0.720903
-0.729008
-0.7285
-0.736498
-0.736008
-0.74393
-0.743457
-0.751285
-0.750826
-0.758561
-0.758116
-0.765751
-0.765318
-0.77285
-0.772428
-0.779858
-0.779445
-0.786779
-0.786375
-0.793616
-0.79322
-0.800353
-0.799963
-0.807005
-0.80662
-0.813567
-0.813187
-0.820049
-0.819673
-0.826446
-0.826073
-0.832772
-0.832402
-0.839046
-0.838678
-0.845254
-0.844888
-0.851424
-0.85106
-0.857546
-0.857182
-0.863646
-0.863283
-0.869735
-0.869372
-0.875804
-0.87544
-0.881869
-0.881506
-0.887933
-0.887568
-0.893999
-0.893633
-0.900068
-0.899701
-0.906145
-0.905776
-0.912232
-0.911861
-0.918338
-0.917965
-0.924481
-0.924106
-0.93066
-0.930283
-0.936893
-0.936515
-0.943191
-0.942811
-0.949538
-0.949156
-0.955951
-0.955568
-0.962434
-0.962049
-0.968945
-0.968558
-0.975472
-0.975083
-0.982009
-0.981619
-0.988501
-0.98811
-0.994922
-0.994529
-1.00125
-1.00085
-1.00746
-1.00706
-1.0135
-1.0131
-1.01937
-1.01897
-1.02508
-1.02467
-1.03062
-1.03021
-1.03599
-1.03557
-1.04121
-1.04079
-1.04631
-1.04588
-1.05127
-1.05084
-1.05612
-1.05568
-1.06086
-1.06041
-1.06546
-1.06501
-1.06992
-1.06947
-1.07425
-1.07378
-1.07837
-1.0779
-1.08228
-1.0818
-1.08595
-1.08547
-1.08936
-1.08887
-1.09247
-1.09197
-1.09529
-1.09478
-1.09779
-1.09727
-1.09998
-1.09946
-1.10188
-1.10135
-1.1035
-1.10297
-1.10486
-1.10432
-1.10599
-1.10544
-1.10691
-1.10636
-1.10765
-1.10709
-1.10824
-1.10767
-1.1087
-1.10813
-1.10905
-1.10848
-1.10932
-1.10875
-1.10952
-1.10894
-1.10967
-1.10909
-1.10978
-1.10919
-1.10986
-1.10927
-1.10991
-1.10932
-1.10995
-1.10936
-1.10998
-1.10938
-1.10999
-1.1094
-1.11001
-1.10941
-1.11002
-1.10942
-1.11003
-1.10942
-1.11004
-1.10943
-1.11005
-1.10945
-1.11006
-1.10946
-1.11008
-1.10948
-1.11011
-1.1095
-1.11014
-1.10953
-1.11018
-1.10957
-1.11022
-1.10961
-1.11028
-1.10966
-1.11034
-1.10972
-1.11042
-1.10979
-1.11049
-1.10986
-1.11058
-1.10995
-1.11066
-1.11003
-1.11076
-1.11012
-1.11084
-1.1102
-1.11094
-1.11028
-1.111
-1.11036
-1.11111
-1.11043
-1.11114
-1.11049
-1.11124
-1.11054
-1.11126
-1.11057
-1.11132
-1.11059
-1.11131
-1.11058
-1.11122
-1.11053
-1.11117
-1.11045
-1.11099
-1.1103
-1.11079
-1.11007
-1.1104
-1.10969
-1.10985
-1.10912
-1.10897
-1.10824
-1.10764
-1.1069
-1.10566
-1.10492
-1.10274
-1.10199
-1.09861
-1.09786
-1.09277
-1.09201
-1.08485
-1.08409
-1.0743
-1.07353
-1.06063
-1.05985
-1.04336
-1.04258
-1.02238
-1.02159
-0.997362
-0.996564
-0.968094
-0.967289
-0.935363
-0.934552
-0.89946
-0.898642
-0.861172
-0.860347
-0.821331
-0.820499
-0.781067
-0.780228
-0.741211
-0.740365
-0.702507
-0.701654
-0.66627
-0.665409
-0.632873
-0.632005
-0.602152
-0.601277
-0.574765
-0.573882
-0.550705
-0.549814
-0.529425
-0.528526
-0.510698
-0.509792
-0.494185
-0.493271
-0.479721
-0.478799
-0.466808
-0.465878
-0.455188
-0.454252
-0.444644
-0.4437
-0.435139
-0.434188
-0.426384
-0.425426
-0.418229
-0.417264
-0.410801
-0.40983
-0.403785
-0.402808
-0.397092
-0.39611
-0.39068
-0.389692
-0.384447
-0.383454
-0.378161
-0.377162
-0.371822
-0.370817
-0.365301
-0.364291
-0.358368
-0.357354
-0.351169
-0.350148
-0.34349
-0.342465
-0.335157
-0.334125
-0.326284
-0.325249
-0.316714
-0.315671
-0.306177
-0.305132
-0.294824
-0.293769
-0.282848
-0.281791
-0.270002
-0.268934
-0.256635
-0.255569
-0.243023
-0.241941
-0.229499
-0.228424
-0.216398
-0.215302
-0.203911
-0.202827
-0.192729
-0.191616
-0.182763
-0.181673
-0.174308
-0.173178
-0.167453
-0.166362
-0.161998
-0.160848
-0.157976
-0.156886
-0.155139
-0.153967
-0.153333
-0.152249
-0.15231
-0.151113
-0.152017
-0.150789
-0.152334
-0.151138
-0.153391
-0.152791
-0.155204
-0.153978
-0.158084
-0.158323
-0.162053
-0.160759
-0.167697
-0.16927
-0.174898
-0.173455
-0.184164
-0.187359
-0.195599
-0.193855
-0.209657
-0.21447
-0.226022
-0.223751
-0.245985
-0.252444
-0.268668
-0.265568
-0.295569
-0.539139
-0.324887
-0.551436
-0.356778
-0.609169
-0.389139
-0.622836
-0.420716
-0.68286
-0.444957
-0.694152
-0.461287
-0.734207
-0.463318
-0.735916
-0.449936
-0.69766
-0.420806
-0.681894
-0.376213
-0.599386
-0.323909
-0.574344
-0.266679
-0.476456
-0.210857
-0.452187
-0.161831
-0.371903
-0.122168
-0.356144
-0.092455
-0.307266
-0.0720713
-0.300093
-0.0584457
-0.275466
-0.0501004
-0.273075
-0.0442325
-0.25974
-0.040554
-0.259058
-0.0373372
-0.249631
-0.0347672
-0.249243
-0.0320332
-0.24086
-0.0296366
-0.240491
-0.0272054
-0.232957
-0.0248905
-0.232524
-0.0225213
-0.22558
-0.0203499
-0.225157
-0.0182627
-0.219126
-0.0164378
-0.218804
-0.0147711
-0.213885
-0.0134601
-0.213746
-0.012351
-0.210049
-0.0115044
-0.210041
-0.0107549
-0.207212
-0.0101367
-0.207227
-0.00948548
-0.204819
-0.00880655
-0.204721
-0.00805549
-0.202462
-0.00727133
-0.20226
-0.00645315
-0.2002
-0.00562901
-0.19994
-0.00484749
-0.198252
-0.00417741
-0.198036
-0.00362246
-0.19695
-0.00319016
-0.196806
-0.00287339
-0.196318
-0.00260493
-0.196135
-0.0023462
-0.195832
-0.00209001
-0.195597
-0.00183371
-0.195329
-0.0015795
-0.195079
-0.00133264
-0.194829
-0.0011122
-0.194609
-0.000940587
-0.194437
-0.000840229
-0.194335
-0.000800091
-0.194296
-0.000788304
-0.194286
-0.000785897
-0.194285
-0.000785876
-0.194285
-0.000786428
-0.194285
-0.000786723
-0.194284
-0.000787104
-0.194284
-0.000787423
-0.194284
-0.000787624
-0.194283
-0.000787693
-0.194283
-0.000788358
-0.194283
-0.000791559
-0.194283
-0.000790198
-0.194278
-0.000748903
-0.19424
)
;

boundaryField
{
    walls
    {
        type            zeroGradient;
    }
    inlet
    {
        type            cyclic;
    }
    outlet
    {
        type            cyclic;
    }
    sides
    {
        type            empty;
    }
}


// ************************************************************************* //
