/*--------------------------------*- C++ -*----------------------------------*\
| =========                 |                                                 |
| \\      /  F ield         | OpenFOAM: The Open Source CFD Toolbox           |
|  \\    /   O peration     | Version:  2106                                  |
|   \\  /    A nd           | Website:  www.openfoam.com                      |
|    \\/     M anipulation  |                                                 |
\*---------------------------------------------------------------------------*/
FoamFile
{
    version     2.0;
    format      ascii;
    arch        "LSB;label=32;scalar=64";
    class       surfaceScalarField;
    location    "1000";
    object      phi;
}
// * * * * * * * * * * * * * * * * * * * * * * * * * * * * * * * * * * * * * //

dimensions      [0 3 -1 0 0 0 0];

oriented        oriented;

internalField   nonuniform List<scalar> 
5116
(
6.97718e-08
-7.52903e-18
-6.49434e-22
-1.79132e-21
1.40647e-22
2.13387e-07
-7.52518e-18
-9.44923e-22
-5.21246e-21
5.68015e-22
3.63268e-07
-7.5212e-18
-9.90279e-22
-8.76048e-21
5.92893e-22
5.19632e-07
-7.51719e-18
-1.0455e-21
-1.24141e-20
6.18749e-22
6.82692e-07
-7.51298e-18
-1.10246e-21
-1.62374e-20
6.45556e-22
8.52651e-07
-7.50841e-18
-1.16058e-21
-2.03567e-20
6.73218e-22
1.02968e-06
-7.50347e-18
-1.22047e-21
-2.46079e-20
7.01524e-22
1.21387e-06
-7.49864e-18
-1.28156e-21
-2.88625e-20
7.30088e-22
1.40522e-06
-7.49306e-18
-1.34268e-21
-3.36663e-20
7.58305e-22
1.60356e-06
-7.48777e-18
-1.40227e-21
-3.84327e-20
7.85323e-22
1.80849e-06
-7.48189e-18
-1.45838e-21
-4.34273e-20
8.1006e-22
2.01938e-06
-7.47625e-18
-1.5088e-21
-4.89437e-20
8.31332e-22
2.23534e-06
-7.47034e-18
-1.55138e-21
-5.42225e-20
8.48016e-22
2.45528e-06
-7.46389e-18
-1.58441e-21
-5.99465e-20
8.59255e-22
2.67801e-06
-7.45775e-18
-1.607e-21
-6.5236e-20
8.64644e-22
2.9023e-06
-7.45166e-18
-1.61917e-21
-7.07937e-20
8.64289e-22
3.12705e-06
-7.44519e-18
-1.62184e-21
-7.6146e-20
8.5878e-22
3.35134e-06
-7.43953e-18
-1.61659e-21
-8.14683e-20
8.49023e-22
3.5745e-06
-7.43429e-18
-1.60528e-21
-8.6669e-20
8.3607e-22
3.79606e-06
-7.42736e-18
-1.58981e-21
-9.24249e-20
8.20977e-22
4.01579e-06
-7.42134e-18
-1.57197e-21
-9.79139e-20
8.04675e-22
4.23362e-06
-7.41534e-18
-1.55323e-21
-1.03359e-19
7.87959e-22
4.44964e-06
-7.41033e-18
-1.53473e-21
-1.08551e-19
7.71409e-22
4.66399e-06
-7.40534e-18
-1.51728e-21
-1.12167e-19
7.55447e-22
4.87693e-06
-7.39906e-18
-1.50149e-21
-1.167e-19
7.40315e-22
5.08871e-06
-7.39411e-18
-1.48775e-21
-1.21292e-19
7.2618e-22
5.29962e-06
-7.38942e-18
-1.47628e-21
-1.25545e-19
7.13155e-22
5.50996e-06
-7.38364e-18
-1.46723e-21
-1.30731e-19
7.01286e-22
5.72001e-06
-7.37732e-18
-1.46069e-21
-1.36303e-19
6.90601e-22
5.93006e-06
-7.37185e-18
-1.45669e-21
-1.41913e-19
6.81135e-22
6.14038e-06
-7.36515e-18
-1.45518e-21
-1.4705e-19
6.728e-22
6.35123e-06
-7.36141e-18
-1.45609e-21
-1.50449e-19
6.65476e-22
6.56284e-06
-7.35413e-18
-1.45937e-21
-1.56578e-19
6.591e-22
6.77545e-06
-7.34829e-18
-1.465e-21
-1.61865e-19
6.53671e-22
6.98928e-06
-7.34274e-18
-1.47287e-21
-1.66934e-19
6.49193e-22
7.20451e-06
-7.33731e-18
-1.48293e-21
-1.70879e-19
6.45509e-22
7.42134e-06
-7.3313e-18
-1.49515e-21
-1.75903e-19
6.42582e-22
7.63995e-06
-7.32623e-18
-1.50947e-21
-1.80197e-19
6.40363e-22
7.86049e-06
-7.32399e-18
-1.52584e-21
-1.82364e-19
6.38786e-22
8.08312e-06
-7.31864e-18
-1.54411e-21
-1.8556e-19
6.37749e-22
8.308e-06
-7.31323e-18
-1.56434e-21
-1.89289e-19
6.37211e-22
8.53525e-06
-7.3065e-18
-1.58654e-21
-1.93988e-19
6.3712e-22
8.765e-06
-7.30182e-18
-1.61076e-21
-1.97881e-19
6.37522e-22
8.99738e-06
-7.29613e-18
-1.63687e-21
-2.01036e-19
6.38305e-22
9.23251e-06
-7.29092e-18
-1.66485e-21
-2.05055e-19
6.39419e-22
9.47048e-06
-7.28622e-18
-1.69468e-21
-2.08098e-19
6.40836e-22
9.71141e-06
-7.27963e-18
-1.72634e-21
-2.11053e-19
6.42558e-22
9.95539e-06
-7.27359e-18
-1.75982e-21
-2.16481e-19
6.4448e-22
1.02025e-05
-7.26904e-18
-1.79517e-21
-2.2057e-19
6.46711e-22
1.04529e-05
-7.26269e-18
-1.83233e-21
-2.2655e-19
6.49094e-22
1.07066e-05
-7.25493e-18
-1.87139e-21
-2.30227e-19
6.51791e-22
1.09637e-05
-7.24737e-18
-1.91229e-21
-2.36189e-19
6.54586e-22
1.12243e-05
-7.24079e-18
-1.95508e-21
-2.40289e-19
6.57427e-22
1.14885e-05
-7.2344e-18
-1.99972e-21
-2.46374e-19
6.6031e-22
1.17562e-05
-7.22692e-18
-2.04623e-21
-2.51317e-19
6.63318e-22
1.20278e-05
-7.21957e-18
-2.09476e-21
-2.55909e-19
6.66267e-22
1.2303e-05
-7.21235e-18
-2.14525e-21
-2.61737e-19
6.69255e-22
1.25822e-05
-7.20427e-18
-2.19769e-21
-2.68804e-19
6.72189e-22
1.28652e-05
-7.19634e-18
-2.25218e-21
-2.74351e-19
6.75044e-22
1.31522e-05
-7.18659e-18
-2.3087e-21
-2.80275e-19
6.77796e-22
1.34432e-05
-7.17888e-18
-2.36745e-21
-2.86629e-19
6.80444e-22
1.37383e-05
-7.17022e-18
-2.4284e-21
-2.91957e-19
6.83179e-22
1.40376e-05
-7.16344e-18
-2.49167e-21
-2.98392e-19
6.85744e-22
1.43411e-05
-7.15158e-18
-2.55712e-21
-3.05624e-19
6.88271e-22
1.46488e-05
-7.14188e-18
-2.62504e-21
-3.1214e-19
6.90744e-22
1.49609e-05
-7.13173e-18
-2.69555e-21
-3.22735e-19
6.93011e-22
1.52773e-05
-7.12083e-18
-2.76831e-21
-3.32014e-19
6.95216e-22
1.55981e-05
-7.11079e-18
-2.84343e-21
-3.41707e-19
6.96881e-22
1.59234e-05
-7.10013e-18
-2.92066e-21
-3.51926e-19
6.9827e-22
1.62533e-05
-7.08725e-18
-3.00018e-21
-3.58521e-19
6.99417e-22
1.65876e-05
-7.07476e-18
-3.08224e-21
-3.70865e-19
6.99972e-22
1.69267e-05
-7.06444e-18
-3.16692e-21
-3.81577e-19
7.00099e-22
1.72703e-05
-7.04774e-18
-3.25422e-21
-3.96343e-19
7.0001e-22
1.76187e-05
-7.03516e-18
-3.34489e-21
-4.04433e-19
7.00112e-22
1.79719e-05
-7.02299e-18
-3.43846e-21
-4.13534e-19
6.99828e-22
1.83299e-05
-7.01224e-18
-3.53543e-21
-4.22847e-19
6.99253e-22
1.86927e-05
-6.99492e-18
-3.63609e-21
-4.36005e-19
6.98677e-22
1.90604e-05
-6.98184e-18
-3.7406e-21
-4.54571e-19
6.9793e-22
1.94331e-05
-6.96834e-18
-3.84886e-21
-4.65931e-19
6.97419e-22
1.98108e-05
-6.95187e-18
-3.96077e-21
-4.8271e-19
6.96655e-22
2.01935e-05
-6.94152e-18
-4.0766e-21
-4.89409e-19
6.95835e-22
2.05813e-05
-6.92802e-18
-4.19594e-21
-5.0115e-19
6.93731e-22
2.09743e-05
-6.91767e-18
-4.319e-21
-5.10589e-19
6.90909e-22
2.13724e-05
-6.90465e-18
-4.44558e-21
-5.22396e-19
6.87234e-22
2.17758e-05
-6.89126e-18
-4.57545e-21
-5.34011e-19
6.83266e-22
2.21845e-05
-6.86992e-18
-4.70824e-21
-5.44417e-19
6.78047e-22
2.25985e-05
-6.85917e-18
-4.84497e-21
-5.53453e-19
6.71492e-22
2.30179e-05
-6.84137e-18
-4.9846e-21
-5.69181e-19
6.63436e-22
2.34427e-05
-6.82484e-18
-5.12749e-21
-5.82972e-19
6.54177e-22
2.3873e-05
-6.80479e-18
-5.27332e-21
-5.95537e-19
6.43424e-22
2.43088e-05
-6.78513e-18
-5.42334e-21
-6.07555e-19
6.312e-22
2.47502e-05
-6.76114e-18
-5.57697e-21
-6.21277e-19
6.17139e-22
2.51972e-05
-6.73891e-18
-5.73503e-21
-6.35601e-19
6.0174e-22
2.56499e-05
-6.71826e-18
-5.89724e-21
-6.49568e-19
5.85323e-22
2.61083e-05
-6.69617e-18
-6.06373e-21
-6.68623e-19
5.66529e-22
2.65725e-05
-6.67526e-18
-6.23518e-21
-6.81576e-19
5.46135e-22
2.70425e-05
-6.65057e-18
-6.41042e-21
-6.94866e-19
5.23529e-22
2.75185e-05
-6.63048e-18
-6.59085e-21
-7.09096e-19
4.99627e-22
2.80004e-05
-6.61544e-18
-6.77575e-21
-7.20871e-19
4.73975e-22
2.84883e-05
-6.59482e-18
-6.96485e-21
-7.3245e-19
4.45463e-22
2.89822e-05
-6.57344e-18
-7.15902e-21
-7.50846e-19
4.13971e-22
2.94823e-05
-6.53955e-18
-7.35724e-21
-7.66731e-19
3.81555e-22
2.99885e-05
-6.51554e-18
-7.56204e-21
-7.88032e-19
3.47237e-22
3.0501e-05
-6.48616e-18
-7.7726e-21
-8.08685e-19
3.13281e-22
3.10198e-05
-6.46185e-18
-7.98744e-21
-8.24019e-19
2.79206e-22
3.1545e-05
-6.44006e-18
-8.2087e-21
-8.40839e-19
2.42735e-22
3.20766e-05
-6.40973e-18
-8.433e-21
-8.54395e-19
2.04533e-22
3.26146e-05
-6.38426e-18
-8.66431e-21
-8.75015e-19
1.63471e-22
3.31592e-05
-6.35433e-18
-8.90106e-21
-8.91076e-19
1.20619e-22
3.37105e-05
-6.32845e-18
-9.14326e-21
-9.07402e-19
7.50706e-23
3.42684e-05
-6.28743e-18
-9.38929e-21
-9.30806e-19
2.70325e-23
3.48331e-05
-6.25139e-18
-9.64164e-21
-9.56636e-19
-2.28065e-23
3.54047e-05
-6.21269e-18
-9.9014e-21
-9.84835e-19
-7.13367e-23
3.59831e-05
-6.18406e-18
-1.01687e-20
-1.00052e-18
-1.20102e-22
3.65686e-05
-6.14644e-18
-1.04402e-20
-1.02947e-18
-1.71471e-22
3.71611e-05
-6.11208e-18
-1.07172e-20
-1.04985e-18
-2.24337e-22
3.77607e-05
-6.07325e-18
-1.09958e-20
-1.07743e-18
-2.80194e-22
3.83676e-05
-6.03559e-18
-1.1281e-20
-1.09479e-18
-3.36706e-22
3.89818e-05
-6.00018e-18
-1.15687e-20
-1.126e-18
-3.97074e-22
3.96033e-05
-5.96318e-18
-1.18571e-20
-1.14544e-18
-4.55501e-22
4.02323e-05
-5.91319e-18
-1.21454e-20
-1.1836e-18
-5.1619e-22
4.08689e-05
-5.88547e-18
-1.24371e-20
-1.2089e-18
-5.73376e-22
4.15132e-05
-5.84316e-18
-1.27259e-20
-1.2327e-18
-6.31362e-22
4.21652e-05
-5.80681e-18
-1.30123e-20
-1.25716e-18
-6.91058e-22
4.2825e-05
-5.7623e-18
-1.32923e-20
-1.27907e-18
-7.52249e-22
4.34927e-05
-5.71805e-18
-1.35717e-20
-1.30857e-18
-8.14883e-22
4.41685e-05
-5.67274e-18
-1.38435e-20
-1.34086e-18
-8.76295e-22
4.48525e-05
-5.61738e-18
-1.41078e-20
-1.37388e-18
-9.36589e-22
4.55447e-05
-5.55688e-18
-1.43662e-20
-1.41034e-18
-9.96573e-22
4.62452e-05
-5.51579e-18
-1.46199e-20
-1.433e-18
-1.05196e-21
4.69542e-05
-5.46898e-18
-1.48593e-20
-1.46214e-18
-1.10519e-21
4.76718e-05
-5.4317e-18
-1.50794e-20
-1.49435e-18
-1.15707e-21
4.8398e-05
-5.37666e-18
-1.5273e-20
-1.52187e-18
-1.2067e-21
4.91331e-05
-5.32885e-18
-1.54399e-20
-1.55875e-18
-1.25226e-21
4.98771e-05
-5.26983e-18
-1.55767e-20
-1.59494e-18
-1.2885e-21
5.06302e-05
-5.22202e-18
-1.56798e-20
-1.63707e-18
-1.3169e-21
5.13924e-05
-5.15887e-18
-1.57412e-20
-1.67884e-18
-1.33313e-21
5.2164e-05
-5.11338e-18
-1.57587e-20
-1.71267e-18
-1.3373e-21
5.29451e-05
-5.07189e-18
-1.57172e-20
-1.73786e-18
-1.32938e-21
5.37358e-05
-5.03029e-18
-1.56054e-20
-1.77325e-18
-1.31611e-21
5.45363e-05
-4.99407e-18
-1.54206e-20
-1.79784e-18
-1.29295e-21
5.53467e-05
-4.94636e-18
-1.51512e-20
-1.83818e-18
-1.26245e-21
5.61674e-05
-4.8808e-18
-1.48076e-20
-1.8782e-18
-1.21481e-21
5.69984e-05
-4.83114e-18
-1.43951e-20
-1.9083e-18
-1.15477e-21
5.784e-05
-4.78267e-18
-1.39108e-20
-1.94238e-18
-1.07862e-21
5.86925e-05
-4.73936e-18
-1.33623e-20
-1.96641e-18
-9.89382e-22
5.9556e-05
-4.6969e-18
-1.27602e-20
-1.99453e-18
-8.98086e-22
6.04308e-05
-4.66073e-18
-1.21077e-20
-2.00577e-18
-8.14287e-22
6.13172e-05
-4.61527e-18
-1.1418e-20
-2.03402e-18
-7.37493e-22
6.22156e-05
-4.57177e-18
-1.07171e-20
-2.06114e-18
-6.53588e-22
6.3126e-05
-4.53986e-18
-1.00072e-20
-2.07595e-18
-5.68283e-22
6.4049e-05
-4.50196e-18
-9.31637e-21
-2.11671e-18
-4.82659e-22
6.49847e-05
-4.47575e-18
-8.65187e-21
-2.13347e-18
-3.79595e-22
6.59334e-05
-4.44174e-18
-8.01863e-21
-2.1303e-18
-2.74463e-22
6.68954e-05
-4.44009e-18
-7.43548e-21
-2.13598e-18
-1.82212e-22
6.78709e-05
-4.43334e-18
-6.88568e-21
-2.13964e-18
-9.16414e-23
6.88603e-05
-4.41479e-18
-6.37196e-21
-2.16933e-18
-2.67884e-23
6.98639e-05
-4.40569e-18
-5.89185e-21
-2.16061e-18
8.05927e-23
7.08817e-05
-4.37087e-18
-5.44538e-21
-2.1717e-18
1.69515e-22
7.19142e-05
-4.3547e-18
-5.04259e-21
-2.17237e-18
2.33631e-22
7.29616e-05
-4.33979e-18
-4.6595e-21
-2.17914e-18
2.7795e-22
7.4024e-05
-4.32119e-18
-4.29706e-21
-2.20143e-18
3.14782e-22
7.51019e-05
-4.32378e-18
-3.97223e-21
-2.22749e-18
3.6468e-22
7.61953e-05
-4.31323e-18
-3.66144e-21
-2.24484e-18
4.06291e-22
7.73046e-05
-4.32798e-18
-3.40819e-21
-2.25652e-18
4.44371e-22
7.843e-05
-4.32177e-18
-3.16924e-21
-2.27978e-18
4.71922e-22
7.95717e-05
-4.2975e-18
-2.96969e-21
-2.28899e-18
5.04681e-22
8.07301e-05
-4.28455e-18
-2.83078e-21
-2.31343e-18
5.39569e-22
8.19053e-05
-4.26552e-18
-2.70996e-21
-2.32621e-18
5.95013e-22
8.30976e-05
-4.24691e-18
-2.5973e-21
-2.35255e-18
6.34128e-22
8.43073e-05
-4.25048e-18
-2.48842e-21
-2.35583e-18
6.71241e-22
8.55347e-05
-4.25789e-18
-2.40475e-21
-2.35215e-18
7.20038e-22
8.67799e-05
-4.24517e-18
-2.35561e-21
-2.36018e-18
7.82968e-22
8.80433e-05
-4.23193e-18
-2.33206e-21
-2.38057e-18
8.23148e-22
8.93252e-05
-4.21915e-18
-2.32141e-21
-2.37715e-18
8.61456e-22
9.06257e-05
-4.21669e-18
-2.34985e-21
-2.37327e-18
8.85556e-22
9.19453e-05
-4.20034e-18
-2.39069e-21
-2.38209e-18
8.78489e-22
9.32841e-05
-4.19702e-18
-2.45002e-21
-2.39458e-18
8.64194e-22
9.46425e-05
-4.19698e-18
-2.55389e-21
-2.41138e-18
8.9345e-22
9.60207e-05
-4.19068e-18
-2.67215e-21
-2.41716e-18
9.6966e-22
9.74191e-05
-4.18906e-18
-2.80863e-21
-2.43309e-18
1.03019e-21
9.88379e-05
-4.19648e-18
-2.93192e-21
-2.41681e-18
1.08489e-21
0.000100277
-4.21193e-18
-3.05226e-21
-2.42175e-18
1.11232e-21
0.000101738
-4.20855e-18
-3.14999e-21
-2.42858e-18
1.1573e-21
0.00010322
-4.22391e-18
-3.24663e-21
-2.43252e-18
1.21282e-21
0.000104724
-4.21342e-18
-3.33301e-21
-2.44719e-18
1.25914e-21
0.000106249
-4.19892e-18
-3.44277e-21
-2.4522e-18
1.3105e-21
0.000107797
-4.19318e-18
-3.57583e-21
-2.47098e-18
1.29761e-21
0.000109368
-4.15986e-18
-3.68572e-21
-2.51061e-18
1.29773e-21
0.000110962
-4.15844e-18
-3.82924e-21
-2.54128e-18
1.29913e-21
0.000112579
-4.16948e-18
-3.96628e-21
-2.53289e-18
1.35966e-21
0.000114219
-4.15856e-18
-4.07477e-21
-2.52614e-18
1.38431e-21
0.000115884
-4.14724e-18
-4.18744e-21
-2.54461e-18
1.34999e-21
0.000117573
-4.13736e-18
-4.29609e-21
-2.56795e-18
1.3529e-21
0.000119287
-4.11443e-18
-4.38539e-21
-2.57392e-18
1.37844e-21
0.000121026
-4.09925e-18
-4.49223e-21
-2.59261e-18
1.37555e-21
0.000122791
-4.1078e-18
-4.60885e-21
-2.57512e-18
1.42655e-21
0.000124581
-4.09618e-18
-4.59624e-21
-2.56995e-18
1.51735e-21
0.000126398
-4.07853e-18
-4.5943e-21
-2.57147e-18
1.54171e-21
0.000128241
-4.06374e-18
-4.69654e-21
-2.55647e-18
1.60732e-21
0.000130111
-4.02821e-18
-4.82615e-21
-2.54343e-18
1.60193e-21
0.000132009
-4.0404e-18
-5.032e-21
-2.53594e-18
1.51926e-21
0.000133934
-4.04376e-18
-5.22175e-21
-2.47598e-18
1.38327e-21
0.000135888
-4.04388e-18
-5.49874e-21
-2.45065e-18
1.12436e-21
0.000137871
-4.05644e-18
-5.79014e-21
-2.44982e-18
8.11921e-22
0.000139883
-4.07384e-18
-6.04742e-21
-2.43808e-18
5.15842e-22
0.000141924
-4.1042e-18
-6.28525e-21
-2.41768e-18
3.32176e-22
0.000143995
-4.12306e-18
-6.44904e-21
-2.39128e-18
2.4475e-22
0.000146097
-4.125e-18
-6.75474e-21
-2.4073e-18
2.35566e-22
0.000148229
-4.12461e-18
-7.05794e-21
-2.38927e-18
1.62072e-22
0.000150393
-4.13573e-18
-7.4202e-21
-2.41904e-18
3.868e-23
0.000152589
-4.11317e-18
-7.5986e-21
-2.39496e-18
-1.58558e-22
0.000154817
-4.09957e-18
-7.83509e-21
-2.42658e-18
-3.44701e-22
0.000157078
-4.08697e-18
-8.09435e-21
-2.4131e-18
-4.55001e-22
0.000159372
-4.07878e-18
-8.32629e-21
-2.42159e-18
-6.1326e-22
0.0001617
-4.08207e-18
-8.46209e-21
-2.39617e-18
-6.09225e-22
0.000164062
-4.06969e-18
-8.63403e-21
-2.40696e-18
-4.95204e-22
0.000166459
-4.05765e-18
-8.64523e-21
-2.41405e-18
-5.69122e-22
0.000168891
-4.01849e-18
-8.72626e-21
-2.42221e-18
-6.5332e-22
0.000171359
-3.99848e-18
-8.85941e-21
-2.45583e-18
-8.00336e-22
0.000173864
-3.98879e-18
-8.95919e-21
-2.46326e-18
-8.73566e-22
0.000176405
-3.96157e-18
-9.03679e-21
-2.46329e-18
-1.00059e-21
0.000178984
-3.95244e-18
-9.34001e-21
-2.50217e-18
-1.29936e-21
0.000181601
-3.92574e-18
-9.58005e-21
-2.52083e-18
-1.31813e-21
0.000184256
-3.95146e-18
-1.02402e-20
-2.48387e-18
-1.23196e-21
0.000186951
-3.92634e-18
-1.03782e-20
-2.50085e-18
-1.52066e-21
0.000189685
-3.87881e-18
-1.02987e-20
-2.50904e-18
-1.66576e-21
0.00019246
-3.86186e-18
-1.05377e-20
-2.51025e-18
-1.80087e-21
0.000195276
-3.8232e-18
-1.06032e-20
-2.4984e-18
-2.33763e-21
0.000198133
-3.86079e-18
-1.11521e-20
-2.52708e-18
-2.86932e-21
0.000201032
-3.80535e-18
-1.12079e-20
-2.53591e-18
-3.29546e-21
0.000203975
-3.77666e-18
-1.1472e-20
-2.5411e-18
-3.3985e-21
0.00020696
-3.74963e-18
-1.16192e-20
-2.50529e-18
-3.47794e-21
0.00020999
-3.704e-18
-1.1564e-20
-2.49205e-18
-3.39794e-21
0.000213065
-3.67563e-18
-1.17962e-20
-2.51691e-18
-3.02328e-21
0.000216185
-3.69199e-18
-1.19735e-20
-2.47096e-18
-2.55294e-21
0.000219351
-3.6468e-18
-1.19779e-20
-2.46915e-18
-2.56469e-21
0.000222565
-3.60713e-18
-1.19848e-20
-2.43018e-18
-3.04383e-21
0.000225825
-3.58506e-18
-1.23397e-20
-2.42404e-18
-4.14027e-21
0.000229134
-3.56851e-18
-1.2504e-20
-2.40849e-18
-5.19568e-21
0.000232492
-3.53479e-18
-1.25156e-20
-2.40735e-18
-6.1195e-21
0.0002359
-3.44268e-18
-1.23434e-20
-2.47557e-18
-7.0482e-21
0.000239358
-3.38576e-18
-1.2812e-20
-2.54038e-18
-7.24986e-21
0.000242867
-3.35199e-18
-1.38464e-20
-2.49868e-18
-6.97969e-21
0.000246428
-3.30985e-18
-1.46822e-20
-2.53231e-18
-6.60565e-21
0.000250042
-3.26018e-18
-1.51489e-20
-2.57086e-18
-5.68263e-21
0.00025371
-3.20695e-18
-1.47464e-20
-2.54976e-18
-4.777e-21
0.000257432
-3.13428e-18
-1.4076e-20
-2.51575e-18
-5.17783e-21
0.000261209
-3.05972e-18
-1.3252e-20
-2.44606e-18
-6.28419e-21
0.000265042
-3.10328e-18
-1.26844e-20
-2.43547e-18
-7.86881e-21
0.000268932
-3.03174e-18
-1.13423e-20
-2.43486e-18
-8.8154e-21
0.00027288
-3.0373e-18
-1.06693e-20
-2.38402e-18
-9.58163e-21
0.000276886
-2.96456e-18
-9.62845e-21
-2.492e-18
-1.16527e-20
0.000280951
-2.92495e-18
-9.64448e-21
-2.44354e-18
-1.22276e-20
0.000285077
-2.89789e-18
-1.01117e-20
-2.46231e-18
-1.36993e-20
0.000289265
-2.88531e-18
-9.69287e-21
-2.47327e-18
-1.47093e-20
0.000293514
-2.86331e-18
-9.58337e-21
-2.48841e-18
-1.58667e-20
0.000297826
-2.82426e-18
-9.54767e-21
-2.54689e-18
-1.72515e-20
0.000302203
-2.77835e-18
-9.39419e-21
-2.57178e-18
-1.70019e-20
0.000306644
-2.76238e-18
-1.01601e-20
-2.59739e-18
-1.66406e-20
0.000311152
-2.766e-18
-1.19114e-20
-2.63619e-18
-1.6195e-20
0.000315726
-2.76261e-18
-1.3156e-20
-2.61311e-18
-1.45482e-20
0.000320368
-2.69527e-18
-1.38845e-20
-2.66871e-18
-1.38162e-20
0.000325079
-2.72837e-18
-1.49322e-20
-2.63137e-18
-1.32047e-20
0.00032986
-2.75934e-18
-1.5396e-20
-2.60767e-18
-1.30231e-20
0.000334712
-2.66988e-18
-1.49669e-20
-2.60226e-18
-1.39585e-20
0.000339637
-2.63105e-18
-1.57648e-20
-2.56174e-18
-1.54151e-20
0.000344634
-2.66746e-18
-1.78154e-20
-2.52842e-18
-1.56884e-20
0.000349705
-2.61612e-18
-1.77214e-20
-2.52104e-18
-1.59622e-20
0.000354852
-2.59161e-18
-1.7728e-20
-2.56182e-18
-1.61543e-20
0.000360075
-2.55859e-18
-1.63964e-20
-2.57169e-18
-1.54957e-20
0.000365376
-2.52186e-18
-1.53392e-20
-2.52695e-18
-1.47028e-20
0.000370755
-2.52308e-18
-1.48837e-20
-2.52223e-18
-1.4212e-20
0.000376215
-2.4991e-18
-1.36212e-20
-2.52009e-18
-1.36693e-20
0.000381755
-2.48882e-18
-1.30028e-20
-2.49882e-18
-1.34536e-20
0.000387377
-2.47838e-18
-1.50986e-20
-2.41433e-18
-1.10446e-20
0.000393083
-2.42723e-18
-1.62751e-20
-2.38208e-18
-1.16987e-20
0.000398873
-2.38536e-18
-1.85595e-20
-2.37463e-18
-1.30119e-20
0.00040475
-2.37023e-18
-2.01271e-20
-2.39436e-18
-1.53451e-20
0.000410713
-2.32933e-18
-2.12326e-20
-2.35111e-18
-1.44977e-20
0.000416765
-2.304e-18
-2.25853e-20
-2.29237e-18
-1.42937e-20
0.000422906
-2.26114e-18
-2.48277e-20
-2.27161e-18
-1.53116e-20
0.000429138
-2.19258e-18
-2.62043e-20
-2.28773e-18
-2.01704e-20
0.000435462
-2.24191e-18
-2.92434e-20
-2.20064e-18
-2.10187e-20
0.00044188
-2.22218e-18
-3.11009e-20
-2.22478e-18
-2.08567e-20
0.000448393
-2.16159e-18
-3.24107e-20
-2.19635e-18
-1.97892e-20
0.000455002
-2.20973e-18
-3.56431e-20
-2.21038e-18
-2.13797e-20
0.000461708
-2.22281e-18
-3.69601e-20
-2.12403e-18
-2.49813e-20
0.000468513
-2.21699e-18
-3.46045e-20
-2.11827e-18
-2.5595e-20
0.000475419
-2.29749e-18
-3.14858e-20
-2.10296e-18
-2.62445e-20
0.000482426
-2.2379e-18
-2.62459e-20
-2.08465e-18
-3.1207e-20
0.000489536
-2.20932e-18
-2.24108e-20
-2.21092e-18
-3.63466e-20
0.000496751
-2.04699e-18
-1.64236e-20
-2.07468e-18
-3.39577e-20
0.000504071
-1.93522e-18
-1.42224e-20
-1.98696e-18
-3.24407e-20
0.000511499
-1.85065e-18
-1.32977e-20
-1.93618e-18
-2.78267e-20
0.000519036
-1.81663e-18
-1.72105e-20
-1.91428e-18
-2.6427e-20
0.000526682
-1.62455e-18
-1.92474e-20
-1.69103e-18
-2.79893e-20
0.000534441
-1.56786e-18
-2.33113e-20
-1.60902e-18
-3.19351e-20
0.000542312
-1.45524e-18
-2.49918e-20
-1.62681e-18
-3.38651e-20
0.000550297
-1.52183e-18
-2.98217e-20
-1.51137e-18
-3.37838e-20
0.000558399
-1.4306e-18
-2.85007e-20
-1.41213e-18
-3.5746e-20
0.000566618
-1.50705e-18
-2.42935e-20
-1.41831e-18
-3.77591e-20
0.000574956
-1.38411e-18
-1.08175e-20
-1.36812e-18
-3.78806e-20
0.000583414
-1.26412e-18
-1.13538e-20
-1.17366e-18
-3.33509e-20
0.000591994
-1.32838e-18
-1.90371e-20
-1.34987e-18
-3.56979e-20
0.000600696
-1.34449e-18
-1.28641e-20
-1.32429e-18
-3.00319e-20
0.000609523
-1.2139e-18
-9.51599e-21
-1.2093e-18
-2.12442e-20
0.000618476
-1.232e-18
-9.53625e-21
-1.27977e-18
-1.83309e-20
0.000627557
-1.24171e-18
-6.31067e-21
-1.12704e-18
-1.12133e-20
0.000636766
-1.10737e-18
5.17335e-21
-1.10207e-18
-6.30811e-21
0.000646104
-1.10731e-18
2.70915e-21
-1.09741e-18
-5.56784e-22
0.000655574
-1.13295e-18
8.72278e-22
-1.12716e-18
6.73468e-24
0.000665177
-1.11023e-18
6.43166e-22
-1.03152e-18
4.22082e-21
0.000674913
-1.06974e-18
7.46722e-22
-1.02709e-18
2.14606e-21
0.000684784
-1.01744e-18
3.12979e-21
-1.05557e-18
-4.29155e-21
0.000694792
-1.02104e-18
7.5361e-22
-9.55146e-19
-9.65848e-21
0.000704936
-8.40783e-19
-5.89458e-23
-1.08118e-18
-1.67844e-20
0.00071522
-7.718e-19
2.57685e-21
-7.76855e-19
-1.41812e-20
0.000725642
-8.55568e-19
3.22451e-21
-8.6828e-19
-1.55573e-20
0.000736206
8.50069e-21
-8.90651e-19
-7.24776e-21
-8.6433e-19
6.97718e-08
-5.86957e-22
7.51335e-23
2.13387e-07
-1.70407e-21
8.23062e-22
3.63268e-07
-2.88279e-21
1.58003e-21
5.19632e-07
-4.12132e-21
2.33901e-21
6.82692e-07
-5.18066e-21
3.10627e-21
8.52651e-07
-6.45959e-21
3.87907e-21
1.02968e-06
-8.01747e-21
4.80918e-21
1.21387e-06
-9.52979e-21
5.9572e-21
1.40522e-06
-1.11268e-20
7.13964e-21
1.60356e-06
-1.25763e-20
8.14858e-21
1.80849e-06
-1.41443e-20
9.22962e-21
2.01938e-06
-1.57962e-20
1.01821e-20
2.23534e-06
-1.74184e-20
1.10514e-20
2.45528e-06
-1.84942e-20
1.18281e-20
2.67801e-06
-2.01487e-20
1.27244e-20
2.9023e-06
-2.19996e-20
1.40788e-20
3.12705e-06
-2.41208e-20
1.57505e-20
3.35134e-06
-2.56486e-20
1.65563e-20
3.5745e-06
-2.64246e-20
1.76551e-20
3.79606e-06
-2.77203e-20
1.80402e-20
4.01579e-06
-3.00991e-20
2.04102e-20
4.23362e-06
-3.31312e-20
2.20461e-20
4.44964e-06
-3.51212e-20
2.36e-20
4.66399e-06
-3.65346e-20
2.41261e-20
4.87693e-06
-3.71386e-20
2.39006e-20
5.08871e-06
-3.83886e-20
2.42065e-20
5.29962e-06
-4.03698e-20
2.4069e-20
5.50996e-06
-4.19558e-20
2.40197e-20
5.72001e-06
-4.4219e-20
2.62163e-20
5.93006e-06
-4.55391e-20
2.60815e-20
6.14038e-06
-4.47087e-20
2.44688e-20
6.35123e-06
-4.65644e-20
2.46077e-20
6.56284e-06
-4.73607e-20
2.30462e-20
6.77545e-06
-4.82223e-20
2.53272e-20
6.98928e-06
-4.90857e-20
2.50679e-20
7.20451e-06
-5.16844e-20
2.70239e-20
7.42134e-06
-5.28458e-20
2.6687e-20
7.63995e-06
-5.52566e-20
2.57783e-20
7.86049e-06
-5.52759e-20
2.70447e-20
8.08312e-06
-5.59725e-20
2.87006e-20
8.308e-06
-5.76765e-20
2.78616e-20
8.53525e-06
-6.1054e-20
2.84741e-20
8.765e-06
-6.26851e-20
2.92656e-20
8.99738e-06
-6.32535e-20
3.03435e-20
9.23251e-06
-6.3501e-20
2.9888e-20
9.47048e-06
-6.42712e-20
3.19121e-20
9.71141e-06
-6.41541e-20
3.11104e-20
9.95539e-06
-6.55989e-20
3.23853e-20
1.02025e-05
-6.72727e-20
3.19216e-20
1.04529e-05
-7.08999e-20
3.41546e-20
1.07066e-05
-7.13659e-20
3.30638e-20
1.09637e-05
-7.31065e-20
2.97275e-20
1.12243e-05
-7.38113e-20
2.87532e-20
1.14885e-05
-7.5112e-20
3.11279e-20
1.17562e-05
-7.7867e-20
3.14609e-20
1.20278e-05
-7.98445e-20
3.35293e-20
1.2303e-05
-8.13569e-20
3.40183e-20
1.25822e-05
-8.29101e-20
3.32852e-20
1.28652e-05
-8.40857e-20
3.26839e-20
1.31522e-05
-8.65752e-20
3.19898e-20
1.34432e-05
-8.871e-20
3.48231e-20
1.37383e-05
-9.11086e-20
3.45047e-20
1.40376e-05
-9.20227e-20
3.43679e-20
1.43411e-05
-9.38397e-20
3.24029e-20
1.46488e-05
-1.00263e-19
3.20615e-20
1.49609e-05
-1.01623e-19
3.37799e-20
1.52773e-05
-1.04774e-19
3.28956e-20
1.55981e-05
-1.04304e-19
3.61336e-20
1.59234e-05
-1.05466e-19
3.66764e-20
1.62533e-05
-1.0777e-19
3.63412e-20
1.65876e-05
-1.09722e-19
3.36521e-20
1.69267e-05
-1.11162e-19
3.32561e-20
1.72703e-05
-1.16038e-19
3.22783e-20
1.76187e-05
-1.15616e-19
3.0002e-20
1.79719e-05
-1.19119e-19
2.84937e-20
1.83299e-05
-1.26296e-19
3.18609e-20
1.86927e-05
-1.27364e-19
3.01259e-20
1.90604e-05
-1.29917e-19
2.79488e-20
1.94331e-05
-1.29405e-19
2.81847e-20
1.98108e-05
-1.29035e-19
2.68226e-20
2.01935e-05
-1.32162e-19
2.3361e-20
2.05813e-05
-1.35029e-19
2.25651e-20
2.09743e-05
-1.38808e-19
2.00325e-20
2.13724e-05
-1.40229e-19
2.11088e-20
2.17758e-05
-1.39256e-19
1.49243e-20
2.21845e-05
-1.412e-19
1.33042e-20
2.25985e-05
-1.46167e-19
1.57447e-20
2.30179e-05
-1.50718e-19
1.70167e-20
2.34427e-05
-1.52013e-19
1.66628e-20
2.3873e-05
-1.59688e-19
1.79271e-20
2.43088e-05
-1.61545e-19
1.66241e-20
2.47502e-05
-1.64824e-19
1.36851e-20
2.51972e-05
-1.67062e-19
1.36533e-20
2.56499e-05
-1.71189e-19
9.43554e-21
2.61083e-05
-1.77286e-19
6.62606e-21
2.65725e-05
-1.74958e-19
4.7587e-22
2.70425e-05
-1.79698e-19
3.93822e-22
2.75185e-05
-1.83624e-19
4.04067e-22
2.80004e-05
-1.88224e-19
4.04104e-22
2.84883e-05
-1.91989e-19
-2.25533e-21
2.89822e-05
-1.90326e-19
-1.80811e-21
2.94823e-05
-1.92212e-19
-6.16954e-21
2.99885e-05
-1.9972e-19
-5.83955e-21
3.0501e-05
-1.93348e-19
-6.346e-21
3.10198e-05
-2.01113e-19
-1.40677e-20
3.1545e-05
-1.91303e-19
-1.98193e-20
3.20766e-05
-1.97306e-19
-2.23917e-20
3.26146e-05
-2.01121e-19
-2.62593e-20
3.31592e-05
-2.02945e-19
-3.2559e-20
3.37105e-05
-2.04764e-19
-3.70347e-20
3.42684e-05
-2.08527e-19
-4.67759e-20
3.48331e-05
-2.22764e-19
-4.12362e-20
3.54047e-05
-2.33961e-19
-4.47822e-20
3.59831e-05
-2.4017e-19
-4.94794e-20
3.65686e-05
-2.46093e-19
-6.01651e-20
3.71611e-05
-2.41797e-19
-6.71426e-20
3.77607e-05
-2.55251e-19
-7.27506e-20
3.83676e-05
-2.58438e-19
-8.54232e-20
3.89818e-05
-2.631e-19
-8.94083e-20
3.96033e-05
-2.63379e-19
-9.55576e-20
4.02323e-05
-2.64589e-19
-1.02894e-19
4.08689e-05
-2.69561e-19
-1.1272e-19
4.15132e-05
-2.67552e-19
-1.19095e-19
4.21652e-05
-2.6209e-19
-1.29197e-19
4.2825e-05
-2.70205e-19
-1.38793e-19
4.34927e-05
-2.63009e-19
-1.4425e-19
4.41685e-05
-2.66626e-19
-1.52181e-19
4.48525e-05
-2.72907e-19
-1.6559e-19
4.55447e-05
-2.84583e-19
-1.76215e-19
4.62452e-05
-2.95936e-19
-1.82012e-19
4.69542e-05
-2.9634e-19
-1.94168e-19
4.76718e-05
-3.00307e-19
-2.08205e-19
4.8398e-05
-3.00187e-19
-2.17452e-19
4.91331e-05
-3.10932e-19
-2.28644e-19
4.98771e-05
-3.17748e-19
-2.39399e-19
5.06302e-05
-3.33047e-19
-2.40376e-19
5.13924e-05
-3.43128e-19
-2.46764e-19
5.2164e-05
-3.5355e-19
-2.48837e-19
5.29451e-05
-3.60445e-19
-2.50617e-19
5.37358e-05
-3.76458e-19
-2.52105e-19
5.45363e-05
-3.84145e-19
-2.53132e-19
5.53467e-05
-4.05215e-19
-2.43932e-19
5.61674e-05
-4.14177e-19
-2.48188e-19
5.69984e-05
-4.24886e-19
-2.47337e-19
5.784e-05
-4.35216e-19
-2.47144e-19
5.86925e-05
-4.51476e-19
-2.46609e-19
5.9556e-05
-4.52332e-19
-2.61513e-19
6.04308e-05
-4.54993e-19
-2.59989e-19
6.13172e-05
-4.67494e-19
-2.58488e-19
6.22156e-05
-4.6273e-19
-2.63511e-19
6.3126e-05
-4.86413e-19
-2.65054e-19
6.4049e-05
-4.91e-19
-2.67194e-19
6.49847e-05
-4.94553e-19
-2.70729e-19
6.59334e-05
-4.98201e-19
-2.88354e-19
6.68954e-05
-4.98005e-19
-2.9424e-19
6.78709e-05
-4.95405e-19
-3.27885e-19
6.88603e-05
-4.80521e-19
-3.0257e-19
6.98639e-05
-4.79316e-19
-3.07949e-19
7.08817e-05
-4.74492e-19
-3.19396e-19
7.19142e-05
-4.67805e-19
-3.16409e-19
7.29616e-05
-4.64034e-19
-3.21711e-19
7.4024e-05
-4.67018e-19
-3.15709e-19
7.51019e-05
-4.47945e-19
-3.25063e-19
7.61953e-05
-4.49144e-19
-3.2062e-19
7.73046e-05
-4.32061e-19
-3.26667e-19
7.843e-05
-4.30768e-19
-3.3244e-19
7.95717e-05
-4.4216e-19
-3.23997e-19
8.07301e-05
-4.35251e-19
-3.13319e-19
8.19053e-05
-4.24019e-19
-3.18095e-19
8.30976e-05
-4.15419e-19
-3.16153e-19
8.43073e-05
-4.47433e-19
-2.91585e-19
8.55347e-05
-4.83789e-19
-2.59083e-19
8.67799e-05
-4.8472e-19
-2.62358e-19
8.80433e-05
-4.68665e-19
-2.63825e-19
8.93252e-05
-4.67315e-19
-2.64639e-19
9.06257e-05
-4.58961e-19
-2.76146e-19
9.19453e-05
-4.45554e-19
-2.73736e-19
9.32841e-05
-4.60783e-19
-2.62424e-19
9.46425e-05
-4.56685e-19
-2.57103e-19
9.60207e-05
-4.5389e-19
-2.56659e-19
9.74191e-05
-4.36516e-19
-2.56937e-19
9.88379e-05
-4.33509e-19
-2.55484e-19
0.000100277
-4.31568e-19
-2.63341e-19
0.000101738
-4.24509e-19
-2.69595e-19
0.00010322
-4.33945e-19
-2.67129e-19
0.000104724
-4.45822e-19
-2.68743e-19
0.000106249
-4.61364e-19
-2.94803e-19
0.000107797
-4.66854e-19
-2.76351e-19
0.000109368
-4.68306e-19
-2.81012e-19
0.000110962
-4.72676e-19
-2.54383e-19
0.000112579
-4.76822e-19
-2.32187e-19
0.000114219
-4.74477e-19
-2.28786e-19
0.000115884
-4.67845e-19
-2.29665e-19
0.000117573
-4.59645e-19
-2.38603e-19
0.000119287
-4.59374e-19
-2.33821e-19
0.000121026
-4.60188e-19
-2.17183e-19
0.000122791
-4.27727e-19
-1.76886e-19
0.000124581
-4.21433e-19
-1.73724e-19
0.000126398
-4.20115e-19
-1.38844e-19
0.000128241
-3.85216e-19
-1.40225e-19
0.000130111
-3.54035e-19
-1.40927e-19
0.000132009
-3.37236e-19
-1.43328e-19
0.000133934
-3.43664e-19
-1.38847e-19
0.000135888
-3.27102e-19
-1.61231e-19
0.000137871
-3.12253e-19
-1.71197e-19
0.000139883
-3.07946e-19
-1.29978e-19
0.000141924
-3.04131e-19
-8.9929e-20
0.000143995
-3.51925e-19
-3.6242e-20
0.000146097
-3.35726e-19
-6.84739e-20
0.000148229
-3.40578e-19
-7.27865e-20
0.000150393
-3.07291e-19
-1.0036e-19
0.000152589
-3.27663e-19
-5.88774e-20
0.000154817
-3.53823e-19
-9.5883e-20
0.000157078
-3.62716e-19
-1.13614e-19
0.000159372
-3.59981e-19
-9.43063e-20
0.0001617
-4.10575e-19
-4.57037e-20
0.000164062
-3.96006e-19
-9.08982e-20
0.000166459
-4.26654e-19
-1.01947e-19
0.000168891
-4.1975e-19
-1.32284e-19
0.000171359
-4.0167e-19
-1.24384e-19
0.000173864
-3.84241e-19
-9.3357e-20
0.000176405
-3.91213e-19
-1.07715e-19
0.000178984
-3.69584e-19
-7.27982e-20
0.000181601
-4.34977e-19
-2.20454e-20
0.000184256
-3.84563e-19
-3.69672e-20
0.000186951
-3.51554e-19
-4.93882e-20
0.000189685
-3.84706e-19
-4.20214e-20
0.00019246
-3.62656e-19
-6.67388e-20
0.000195276
-4.27347e-19
-3.67437e-20
0.000198133
-3.98682e-19
-6.9843e-20
0.000201032
-3.91458e-19
-6.1953e-20
0.000203975
-3.75787e-19
-8.74737e-20
0.00020696
-3.49818e-19
-5.11467e-20
0.00020999
-3.65153e-19
-2.77236e-20
0.000213065
-3.5035e-19
-6.6072e-20
0.000216185
-3.60311e-19
-8.65256e-20
0.000219351
-3.22742e-19
-1.16003e-19
0.000222565
-3.42374e-19
-1.22548e-19
0.000225825
-3.2595e-19
-1.33514e-19
0.000229134
-3.27199e-19
-1.46495e-19
0.000232492