/*--------------------------------*- C++ -*----------------------------------*\
| =========                 |                                                 |
| \\      /  F ield         | OpenFOAM: The Open Source CFD Toolbox           |
|  \\    /   O peration     | Version:  2106                                  |
|   \\  /    A nd           | Website:  www.openfoam.com                      |
|    \\/     M anipulation  |                                                 |
\*---------------------------------------------------------------------------*/
FoamFile
{
    version     2.0;
    format      ascii;
    arch        "LSB;label=32;scalar=64";
    class       volVectorField;
    location    "1000";
    object      U;
}
// * * * * * * * * * * * * * * * * * * * * * * * * * * * * * * * * * * * * * //

dimensions      [0 1 -1 0 0 0 0];

internalField   nonuniform List<vector> 
2560
(
(0.00964015 -1.00677e-15 -4.76755e-17)
(0.00964015 -1.92901e-18 1.98814e-19)
(0.0290604 -3.38166e-15 -7.29546e-17)
(0.0290604 -1.59701e-19 2.32635e-18)
(0.0487632 -3.17431e-15 -7.4816e-17)
(0.0487632 -2.712e-18 2.38329e-18)
(0.0687529 -2.97083e-15 -7.62009e-17)
(0.0687529 -4.16128e-18 2.42092e-18)
(0.0890329 -2.98701e-15 -7.76553e-17)
(0.0890329 -5.70226e-18 2.4466e-18)
(0.109604 -3.00169e-15 -7.91924e-17)
(0.109604 -7.31954e-18 2.46022e-18)
(0.130463 -3.00341e-15 -8.07235e-17)
(0.130463 -8.97982e-18 2.46202e-18)
(0.151597 -3.00067e-15 -8.22015e-17)
(0.151597 -1.06733e-17 2.45038e-18)
(0.172979 -2.99795e-15 -8.35675e-17)
(0.172979 -1.24697e-17 2.41966e-18)
(0.194564 -2.99559e-15 -8.47368e-17)
(0.194564 -1.43828e-17 2.37035e-18)
(0.216284 -2.99335e-15 -8.56066e-17)
(0.216284 -1.63169e-17 2.29648e-18)
(0.238043 -2.99103e-15 -8.60697e-17)
(0.238043 -1.84068e-17 2.19547e-18)
(0.259724 -2.98869e-15 -8.60345e-17)
(0.259724 -2.0593e-17 2.0673e-18)
(0.281191 -2.98625e-15 -8.54432e-17)
(0.281191 -2.27493e-17 1.90922e-18)
(0.302302 -2.98376e-15 -8.42858e-17)
(0.302302 -2.50012e-17 1.72328e-18)
(0.322925 -2.9814e-15 -8.26046e-17)
(0.322925 -2.71282e-17 1.51056e-18)
(0.342945 -2.97896e-15 -8.04833e-17)
(0.342945 -2.92944e-17 1.2742e-18)
(0.362276 -2.97659e-15 -7.80298e-17)
(0.362276 -3.16188e-17 1.01247e-18)
(0.380861 -2.97451e-15 -7.53584e-17)
(0.380861 -3.3636e-17 7.36042e-19)
(0.398671 -2.97213e-15 -7.25746e-17)
(0.398671 -3.58527e-17 4.47174e-19)
(0.415703 -2.96958e-15 -6.97656e-17)
(0.415703 -3.82039e-17 1.48847e-19)
(0.431971 -2.96731e-15 -6.70005e-17)
(0.431971 -4.03228e-17 -1.53335e-19)
(0.447505 -2.96516e-15 -6.43278e-17)
(0.447505 -4.23778e-17 -1.61907e-19)
(0.46234 -2.96317e-15 -6.17791e-17)
(0.46234 -4.42354e-17 -1.55198e-19)
(0.476519 -2.96089e-15 -5.93723e-17)
(0.476519 -4.58548e-17 -1.59809e-19)
(0.490085 -2.95874e-15 -5.71136e-17)
(0.490085 -4.7772e-17 -1.63118e-19)
(0.503083 -2.9568e-15 -5.50057e-17)
(0.503083 -4.95633e-17 -1.50646e-19)
(0.515553 -2.95468e-15 -5.30465e-17)
(0.515553 -5.12927e-17 -1.23953e-19)
(0.527536 -2.95224e-15 -5.12292e-17)
(0.527536 -5.34198e-17 -1.09206e-19)
(0.53907 -2.94986e-15 -4.95462e-17)
(0.53907 -5.57082e-17 -1.05252e-19)
(0.550188 -2.94753e-15 -4.79883e-17)
(0.550188 -5.78938e-17 -1.09701e-19)
(0.560924 -2.94542e-15 -4.6544e-17)
(0.560924 -5.97014e-17 -1.139e-19)
(0.571306 -2.94316e-15 -4.52108e-17)
(0.571306 -6.15291e-17 -1.00729e-19)
(0.581361 -2.94054e-15 -4.39761e-17)
(0.581361 -6.36778e-17 -6.80911e-20)
(0.591113 -2.93826e-15 -4.28332e-17)
(0.591113 -6.57227e-17 -5.24965e-20)
(0.600583 -2.93605e-15 -4.1775e-17)
(0.600583 -6.76671e-17 -5.9651e-20)
(0.609791 -2.93379e-15 -4.07968e-17)
(0.609791 -6.95545e-17 -6.38658e-20)
(0.618756 -2.93157e-15 -3.98911e-17)
(0.618756 -7.11429e-17 -3.80695e-20)
(0.627493 -2.93003e-15 -3.90552e-17)
(0.627493 -7.25323e-17 -2.25517e-20)
(0.636018 -2.92844e-15 -3.82848e-17)
(0.636018 -7.37597e-17 -3.86588e-20)
(0.644343 -2.92638e-15 -3.7572e-17)
(0.644343 -7.51545e-17 -4.02874e-20)
(0.65248 -2.92403e-15 -3.69128e-17)
(0.65248 -7.65378e-17 -1.56714e-20)
(0.66044 -2.92172e-15 -3.63039e-17)
(0.66044 -7.84078e-17 -3.15275e-21)
(0.668233 -2.91953e-15 -3.57433e-17)
(0.668233 -8.00612e-17 -1.88572e-20)
(0.675868 -2.91746e-15 -3.52258e-17)
(0.675868 -8.13644e-17 -2.93305e-20)
(0.683352 -2.91549e-15 -3.47492e-17)
(0.683352 -8.28331e-17 -2.46412e-20)
(0.690693 -2.91307e-15 -3.43132e-17)
(0.690693 -8.37917e-17 -1.91568e-20)
(0.697898 -2.91062e-15 -3.39114e-17)
(0.697898 -8.54364e-17 -1.82339e-20)
(0.704971 -2.90863e-15 -3.35436e-17)
(0.704971 -8.7559e-17 -1.6453e-20)
(0.711919 -2.9063e-15 -3.32105e-17)
(0.711919 -8.9585e-17 -1.0488e-20)
(0.718747 -2.90358e-15 -3.29111e-17)
(0.718747 -9.11507e-17 3.79421e-21)
(0.725458 -2.90049e-15 -3.2639e-17)
(0.725458 -9.34171e-17 -1.88452e-20)
(0.732056 -2.89758e-15 -3.23958e-17)
(0.732056 -9.54078e-17 -1.76538e-20)
(0.738545 -2.89502e-15 -3.21819e-17)
(0.738545 -9.72026e-17 -4.26455e-21)
(0.744929 -2.89229e-15 -3.19981e-17)
(0.744929 -9.97034e-17 1.0906e-20)
(0.751209 -2.88937e-15 -3.1845e-17)
(0.751209 -1.0136e-16 3.14617e-20)
(0.757389 -2.88626e-15 -3.17231e-17)
(0.757389 -1.03413e-16 5.68414e-20)
(0.763471 -2.88328e-15 -3.16317e-17)
(0.763471 -1.06265e-16 6.32085e-20)
(0.769456 -2.8801e-15 -3.15695e-17)
(0.769456 -1.0869e-16 6.88647e-20)
(0.775347 -2.87649e-15 -3.15366e-17)
(0.775347 -1.11143e-16 8.94518e-20)
(0.781146 -2.87297e-15 -3.15322e-17)
(0.781146 -1.13654e-16 1.37901e-19)
(0.786853 -2.86972e-15 -3.15586e-17)
(0.786853 -1.15438e-16 1.42782e-19)
(0.79247 -2.86665e-15 -3.16143e-17)
(0.79247 -1.18671e-16 1.00107e-19)
(0.797998 -2.863e-15 -3.16982e-17)
(0.797998 -1.20663e-16 1.31677e-19)
(0.803439 -2.85872e-15 -3.18037e-17)
(0.803439 -1.23137e-16 1.61164e-19)
(0.808793 -2.85489e-15 -3.19404e-17)
(0.808793 -1.27013e-16 1.34943e-19)
(0.814062 -2.85062e-15 -3.2102e-17)
(0.814062 -1.30566e-16 1.84127e-19)
(0.819245 -2.84633e-15 -3.22944e-17)
(0.819245 -1.34999e-16 2.442e-19)
(0.824344 -2.8421e-15 -3.25179e-17)
(0.824344 -1.38921e-16 3.17611e-19)
(0.829359 -2.83739e-15 -3.27768e-17)
(0.829359 -1.42153e-16 3.94921e-19)
(0.83429 -2.83215e-15 -3.30702e-17)
(0.83429 -1.4595e-16 3.98413e-19)
(0.839139 -2.82747e-15 -3.33982e-17)
(0.839139 -1.5113e-16 3.97504e-19)
(0.843906 -2.82236e-15 -3.376e-17)
(0.843906 -1.55903e-16 4.55854e-19)
(0.848591 -2.81629e-15 -3.41467e-17)
(0.848591 -1.60008e-16 5.62016e-19)
(0.853194 -2.81149e-15 -3.45544e-17)
(0.853194 -1.63547e-16 5.86236e-19)
(0.857716 -2.80716e-15 -3.49891e-17)
(0.857716 -1.67221e-16 5.98311e-19)
(0.862157 -2.80139e-15 -3.54623e-17)
(0.862157 -1.7174e-16 5.94407e-19)
(0.866518 -2.79527e-15 -3.59558e-17)
(0.866518 -1.78e-16 6.84595e-19)
(0.870799 -2.79004e-15 -3.64792e-17)
(0.870799 -1.84161e-16 8.15377e-19)
(0.875 -2.78427e-15 -3.70275e-17)
(0.875 -1.89535e-16 8.99486e-19)
(0.879121 -2.77879e-15 -3.76002e-17)
(0.879121 -1.93948e-16 9.21871e-19)
(0.883162 -2.7738e-15 -3.82184e-17)
(0.883162 -1.98732e-16 8.11293e-19)
(0.887125 -2.76928e-15 -3.88775e-17)
(0.887125 -2.0269e-16 8.69735e-19)
(0.891009 -2.76463e-15 -4.20241e-17)
(0.891009 -2.0586e-16 9.90365e-19)
(0.894815 -2.75905e-15 -5.02796e-17)
(0.894815 -2.11551e-16 1.06825e-18)
(0.898542 -2.75224e-15 -5.88365e-17)
(0.898542 -2.15296e-16 1.09537e-18)
(0.902191 -2.74609e-15 -6.75697e-17)
(0.902191 -2.1936e-16 1.03877e-18)
(0.905763 -2.74008e-15 -7.66856e-17)
(0.905763 -2.25174e-16 1.00517e-18)
(0.909258 -2.73294e-15 -8.59932e-17)
(0.909258 -2.30065e-16 1.18732e-18)
(0.912676 -2.72579e-15 -9.55343e-17)
(0.912676 -2.35619e-16 1.27914e-18)
(0.916018 -2.71774e-15 -1.05366e-16)
(0.916018 -2.4121e-16 1.23024e-18)
(0.919283 -2.70927e-15 -1.15574e-16)
(0.919283 -2.45811e-16 1.18385e-18)
(0.922472 -2.7001e-15 -1.26118e-16)
(0.922472 -2.50822e-16 1.23025e-18)
(0.925587 -2.6912e-15 -1.36984e-16)
(0.925587 -2.56696e-16 1.25109e-18)
(0.928626 -2.68297e-15 -1.48268e-16)
(0.928626 -2.64237e-16 1.17497e-18)
(0.931591 -2.67434e-15 -1.5997e-16)
(0.931591 -2.70625e-16 1.27302e-18)
(0.934482 -2.66482e-15 -1.7203e-16)
(0.934482 -2.7451e-16 1.49629e-18)
(0.937299 -2.65609e-15 -1.8435e-16)
(0.937299 -2.80545e-16 1.53609e-18)
(0.940043 -2.64906e-15 -1.97121e-16)
(0.940043 -2.86665e-16 1.34672e-18)
(0.942715 -2.6419e-15 -2.105e-16)
(0.942715 -2.91421e-16 1.20791e-18)
(0.945315 -2.63373e-15 -2.24451e-16)
(0.945315 -2.96191e-16 1.17523e-18)
(0.947843 -2.62266e-15 -2.3896e-16)
(0.947843 -3.0343e-16 1.15226e-18)
(0.950301 -2.61096e-15 -2.53979e-16)
(0.950301 -3.11672e-16 1.16854e-18)
(0.952688 -2.59991e-15 -2.69545e-16)
(0.952688 -3.18258e-16 1.44564e-18)
(0.955005 -2.58925e-15 -2.8552e-16)
(0.955005 -3.26693e-16 1.51478e-18)
(0.957254 -2.58047e-15 -3.02265e-16)
(0.957254 -3.33396e-16 1.35421e-18)
(0.959434 -2.57007e-15 -3.19668e-16)
(0.959434 -3.37967e-16 1.36635e-18)
(0.961546 -2.55892e-15 -3.37751e-16)
(0.961546 -3.46176e-16 1.23556e-18)
(0.963591 -2.54791e-15 -3.56639e-16)
(0.963591 -3.53773e-16 1.21551e-18)
(0.96557 -2.53659e-15 -3.76065e-16)
(0.96557 -3.59267e-16 1.22672e-18)
(0.967483 -2.52342e-15 -3.96357e-16)
(0.967483 -3.67109e-16 1.17519e-18)
(0.969331 -2.50813e-15 -4.17199e-16)
(0.969331 -3.76786e-16 1.13322e-18)
(0.971115 -2.4928e-15 -4.38791e-16)
(0.971115 -3.89018e-16 1.02827e-18)
(0.972835 -2.47931e-15 -4.6104e-16)
(0.972835 -3.97042e-16 1.15735e-18)
(0.974493 -2.46595e-15 -4.83959e-16)
(0.974493 -4.05878e-16 1.11212e-18)
(0.976089 -2.45182e-15 -5.07604e-16)
(0.976089 -4.16392e-16 1.03205e-18)
(0.977624 -2.43723e-15 -5.32016e-16)
(0.977624 -4.25273e-16 9.75541e-19)
(0.979098 -2.4221e-15 -5.57096e-16)
(0.979098 -4.34931e-16 1.08426e-18)
(0.980513 -2.40734e-15 -5.82704e-16)
(0.980513 -4.43192e-16 1.01986e-18)
(0.98187 -2.39213e-15 -6.0908e-16)
(0.98187 -4.54515e-16 1.04059e-18)
(0.983169 -2.37511e-15 -6.36091e-16)
(0.983169 -4.66429e-16 7.32814e-19)
(0.984411 -2.3596e-15 -6.62266e-16)
(0.984411 -4.78078e-16 7.24306e-19)
(0.985598 -2.34586e-15 -6.6735e-16)
(0.985598 -4.87671e-16 6.90734e-19)
(0.986729 -2.32984e-15 -6.72131e-16)
(0.986729 -4.98101e-16 5.67617e-19)
(0.987806 -2.31368e-15 -6.7644e-16)
(0.987806 -5.07101e-16 5.48228e-19)
(0.988831 -2.29644e-15 -6.80303e-16)
(0.988831 -5.16696e-16 5.64628e-19)
(0.989803 -2.27827e-15 -6.83668e-16)
(0.989803 -5.30165e-16 5.59137e-19)
(0.990723 -2.25791e-15 -6.8643e-16)
(0.990723 -5.42639e-16 4.24552e-19)
(0.991594 -2.2351e-15 -6.88657e-16)
(0.991594 -5.57374e-16 9.33897e-20)
(0.992415 -2.21436e-15 -6.9039e-16)
(0.992415 -5.69216e-16 2.52341e-19)
(0.993188 -2.19721e-15 -6.91104e-16)
(0.993188 -5.78032e-16 7.30772e-19)
(0.993914 -2.18043e-15 -6.90813e-16)
(0.993914 -5.90499e-16 8.63754e-19)
(0.994593 -2.1609e-15 -6.89093e-16)
(0.994593 -6.04486e-16 4.72598e-19)
(0.995228 -2.14081e-15 -6.86057e-16)
(0.995228 -6.16763e-16 2.58757e-19)
(0.995818 -2.11998e-15 -6.81819e-16)
(0.995818 -6.29583e-16 5.72144e-19)
(0.996365 -2.09807e-15 -6.76365e-16)
(0.996365 -6.4587e-16 5.34949e-19)
(0.99687 -2.07605e-15 -6.69321e-16)
(0.99687 -6.64225e-16 6.07825e-19)
(0.997334 -2.05501e-15 -6.60853e-16)
(0.997334 -6.78023e-16 1.33813e-18)
(0.997759 -2.03722e-15 -6.50413e-16)
(0.997759 -6.88011e-16 1.74817e-18)
(0.998146 -2.0201e-15 -6.37386e-16)
(0.998146 -7.03345e-16 1.37668e-18)
(0.998496 -2.00492e-15 -6.21771e-16)
(0.998496 -7.15414e-16 1.78821e-18)
(0.998812 -1.98776e-15 -6.03474e-16)
(0.998812 -7.25297e-16 2.65352e-18)
(0.999094 -1.96509e-15 -5.82974e-16)
(0.999094 -7.43673e-16 3.24595e-18)
(0.999344 -1.94218e-15 -5.60634e-16)
(0.999344 -7.5836e-16 3.69893e-18)
(0.999566 -1.92241e-15 -5.36387e-16)
(0.999566 -7.68273e-16 4.42368e-18)
(0.999759 -1.90478e-15 -5.10582e-16)
(0.999759 -7.82118e-16 5.10167e-18)
(0.999928 -1.88738e-15 -4.83214e-16)
(0.999928 -7.91766e-16 5.58229e-18)
(1.00007 -1.87127e-15 -4.5479e-16)
(1.00007 -7.99841e-16 6.12945e-18)
(1.0002 -1.85533e-15 -4.25378e-16)
(1.0002 -8.08051e-16 6.60421e-18)
(1.00031 -1.83783e-15 -3.96054e-16)
(1.00031 -8.19117e-16 6.73031e-18)
(1.0004 -1.82174e-15 -3.67232e-16)
(1.0004 -8.29166e-16 6.78607e-18)
(1.00048 -1.8077e-15 -3.39092e-16)
(1.00048 -8.37684e-16 6.20456e-18)
(1.00055 -1.7949e-15 -3.12843e-16)
(1.00055 -8.50567e-16 6.18096e-18)
(1.0006 -1.7827e-15 -2.88081e-16)
(1.0006 -8.53266e-16 6.47642e-18)
(1.00065 -1.77609e-15 -2.64979e-16)
(1.00065 -8.5265e-16 6.58941e-18)
(1.00069 -1.7745e-15 -2.43243e-16)
(1.00069 -8.57679e-16 6.54645e-18)
(1.00073 -1.76976e-15 -2.23224e-16)
(1.00073 -8.62884e-16 5.53692e-18)
(1.00076 -1.76506e-15 -2.0605e-16)
(1.00076 -8.62245e-16 5.73865e-18)
(1.00079 -1.75572e-15 -1.90126e-16)
(1.00079 -8.6539e-16 6.05708e-18)
(1.00081 -1.74468e-15 -1.75676e-16)
(1.00081 -8.70803e-16 6.53279e-18)
(1.00084 -1.73826e-15 -1.6203e-16)
(1.00084 -8.6976e-16 6.71064e-18)
(1.00086 -1.73107e-15 -1.49479e-16)
(1.00086 -8.76083e-16 6.61542e-18)
(1.00088 -1.72769e-15 -1.3846e-16)
(1.00088 -8.86409e-16 6.39415e-18)
(1.0009 -1.72721e-15 -1.28756e-16)
(1.0009 -8.94507e-16 6.34218e-18)
(1.00091 -1.72901e-15 -1.20585e-16)
(1.00091 -9.00114e-16 6.47924e-18)
(1.00093 -1.7298e-15 -1.12984e-16)
(1.00093 -9.08006e-16 6.28128e-18)
(1.00095 -1.72451e-15 -1.06653e-16)
(1.00095 -9.13291e-16 6.43966e-18)
(1.00096 -1.71708e-15 -1.01554e-16)
(1.00096 -9.19991e-16 6.35634e-18)
(1.00098 -1.70987e-15 -9.74032e-17)
(1.00098 -9.29056e-16 6.52984e-18)
(1.00099 -1.70235e-15 -9.3992e-17)
(1.00099 -9.35327e-16 6.27486e-18)
(1.00101 -1.69914e-15 -9.17326e-17)
(1.00101 -9.41794e-16 6.71666e-18)
(1.00103 -1.70144e-15 -8.93904e-17)
(1.00103 -9.4168e-16 7.35337e-18)
(1.00104 -1.70042e-15 -8.67464e-17)
(1.00104 -9.43407e-16 7.55452e-18)
(1.00106 -1.69502e-15 -8.48431e-17)
(1.00106 -9.48143e-16 7.30063e-18)
(1.00108 -1.69034e-15 -8.42257e-17)
(1.00108 -9.51958e-16 7.69404e-18)
(1.0011 -1.6881e-15 -8.42889e-17)
(1.0011 -9.49327e-16 8.17876e-18)
(1.00112 -1.68345e-15 -8.45156e-17)
(1.00112 -9.51369e-16 8.38938e-18)
(1.00114 -1.67962e-15 -8.54644e-17)
(1.00114 -9.56921e-16 8.23453e-18)
(1.00116 -1.67917e-15 -8.71099e-17)
(1.00116 -9.58918e-16 8.06529e-18)
(1.00118 -1.67818e-15 -8.93147e-17)
(1.00118 -9.65581e-16 8.6275e-18)
(1.0012 -1.67548e-15 -9.1409e-17)
(1.0012 -9.70808e-16 8.81221e-18)
(1.00122 -1.67769e-15 -9.36173e-17)
(1.00122 -9.70466e-16 9.84952e-18)
(1.00125 -1.68193e-15 -9.47975e-17)
(1.00125 -9.68305e-16 1.00779e-17)
(1.00127 -1.6833e-15 -9.53656e-17)
(1.00127 -9.68729e-16 1.03891e-17)
(1.0013 -1.68709e-15 -9.59315e-17)
(1.0013 -9.72437e-16 1.10142e-17)
(1.00132 -1.68745e-15 -9.55979e-17)
(1.00132 -9.75941e-16 1.12837e-17)
(1.00135 -1.68359e-15 -9.54806e-17)
(1.00135 -9.7873e-16 1.21101e-17)
(1.00138 -1.67796e-15 -9.49795e-17)
(1.00138 -9.85144e-16 1.2627e-17)
(1.00141 -1.66986e-15 -9.39863e-17)
(1.00141 -9.96925e-16 1.22558e-17)
(1.00144 -1.66399e-15 -9.45835e-17)
(1.00144 -1.01009e-15 1.21518e-17)
(1.00147 -1.66433e-15 -9.54886e-17)
(1.00147 -1.01558e-15 1.33945e-17)
(1.0015 -1.66668e-15 -9.50546e-17)
(1.0015 -1.0051e-15 1.39964e-17)
(1.00154 -1.66209e-15 -9.4582e-17)
(1.00154 -1.01463e-15 1.36151e-17)
(1.00157 -1.65702e-15 -9.50855e-17)
(1.00157 -1.01946e-15 1.33366e-17)
(1.00161 -1.65143e-15 -9.60538e-17)
(1.00161 -1.00679e-15 1.42184e-17)
(1.00164 -1.64219e-15 -9.6275e-17)
(1.00164 -1.03991e-15 1.42308e-17)
(1.00168 -1.64139e-15 -9.68388e-17)
(1.00168 -1.03198e-15 1.43372e-17)
(1.00172 -1.63932e-15 -9.64835e-17)
(1.00172 -1.02387e-15 1.52926e-17)
(1.00176 -1.63386e-15 -9.53952e-17)
(1.00176 -1.03384e-15 1.59436e-17)
(1.0018 -1.62904e-15 -9.46486e-17)
(1.0018 -1.02651e-15 1.59415e-17)
(1.00184 -1.61877e-15 -9.4946e-17)
(1.00184 -1.01863e-15 1.59278e-17)
(1.00189 -1.61241e-15 -9.70455e-17)
(1.00189 -1.01669e-15 1.57798e-17)
(1.00193 -1.61604e-15 -9.93362e-17)
(1.00193 -1.00095e-15 1.65894e-17)
(1.00198 -1.61897e-15 -1.00688e-16)
(1.00198 -9.84942e-16 1.58609e-17)
(1.00203 -1.61982e-15 -1.02639e-16)
(1.00203 -9.79305e-16 1.53002e-17)
(1.00208 -1.62571e-15 -1.05257e-16)
(1.00208 -9.7619e-16 1.77875e-17)
(1.00213 -1.63589e-15 -1.07511e-16)
(1.00213 -9.69401e-16 1.78743e-17)
(1.00218 -1.6457e-15 -1.08181e-16)
(1.00218 -9.64377e-16 1.5589e-17)
(1.00224 -1.64942e-15 -1.07594e-16)
(1.00224 -9.59089e-16 1.35669e-17)
(1.00229 -1.6505e-15 -1.08539e-16)
(1.00229 -9.59149e-16 1.71598e-17)
(1.00235 -1.65229e-15 -1.09313e-16)
(1.00235 -9.56624e-16 1.72838e-17)
(1.00241 -1.65077e-15 -1.10215e-16)
(1.00241 -9.66385e-16 1.08614e-17)
(1.00247 -1.64349e-15 -1.09537e-16)
(1.00247 -9.66429e-16 7.96569e-18)
(1.00253 -1.63597e-15 -1.10484e-16)
(1.00253 -9.68259e-16 4.89437e-18)
(1.00259 -1.63346e-15 -1.11527e-16)
(1.00259 -9.67026e-16 2.8961e-18)
(1.00266 -1.63259e-15 -1.13981e-16)
(1.00266 -9.58944e-16 -2.08759e-18)
(1.00272 -1.62964e-15 -1.14147e-16)
(1.00272 -9.615e-16 -4.12205e-18)
(1.00279 -1.62605e-15 -1.1368e-16)
(1.00279 -9.69017e-16 -6.85706e-18)
(1.00286 -1.61621e-15 -1.13884e-16)
(1.00286 -9.63719e-16 -7.7587e-18)
(1.00293 -1.60379e-15 -1.16316e-16)
(1.00293 -9.71389e-16 -9.3684e-18)
(1.003 -1.59631e-15 -1.18907e-16)
(1.003 -9.89747e-16 -1.0079e-17)
(1.00308 -1.58966e-15 -1.20215e-16)
(1.00308 -9.87376e-16 -1.13791e-17)
(1.00316 -1.58418e-15 -1.23491e-16)
(1.00316 -9.86906e-16 -1.45651e-17)
(1.00324 -1.57572e-15 -1.2863e-16)
(1.00324 -1.00316e-15 -1.45637e-17)
(1.00332 -1.57513e-15 -1.30074e-16)
(1.00332 -1.00698e-15 -1.34166e-17)
(1.0034 -1.57495e-15 -1.20604e-16)
(1.0034 -9.95241e-16 -1.63232e-17)
(1.00348 -1.56067e-15 -1.16198e-16)
(1.00348 -9.99971e-16 -1.76246e-17)
(1.00357 -1.54765e-15 -1.11252e-16)
(1.00357 -1.00365e-15 -1.8781e-17)
(1.00366 -1.53636e-15 -1.08994e-16)
(1.00366 -1.00037e-15 -2.40294e-17)
(1.00375 -1.5361e-15 -1.12994e-16)
(1.00375 -1.00554e-15 -2.90721e-17)
(1.00384 -1.53474e-15 -1.11931e-16)
(1.00384 -1.02087e-15 -3.29112e-17)
(1.00393 -1.51872e-15 -1.12927e-16)
(1.00393 -1.01406e-15 -3.34538e-17)
(1.00403 -1.50389e-15 -1.12736e-16)
(1.00403 -1.00255e-15 -3.37451e-17)
(1.00413 -1.49081e-15 -1.10592e-16)
(1.00413 -1.00736e-15 -3.24963e-17)
(1.00423 -1.47919e-15 -1.11197e-16)
(1.00423 -9.9866e-16 -2.84989e-17)
(1.00433 -1.47039e-15 -1.1125e-16)
(1.00433 -9.95049e-16 -2.37203e-17)
(1.00443 -1.46836e-15 -1.09696e-16)
(1.00443 -9.87779e-16 -2.3488e-17)
(1.00454 -1.45173e-15 -1.08186e-16)
(1.00454 -9.7836e-16 -2.74765e-17)
(1.00465 -1.43826e-15 -1.09793e-16)
(1.00465 -9.76381e-16 -3.68383e-17)
(1.00476 -1.43091e-15 -1.0966e-16)
(1.00476 -9.61133e-16 -4.55663e-17)
(1.00487 -1.42037e-15 -1.08189e-16)
(1.00487 -9.62376e-16 -5.2899e-17)
(1.00498 -1.39462e-15 -1.05171e-16)
(1.00498 -9.83157e-16 -6.00538e-17)
(1.0051 -1.36474e-15 -1.07599e-16)
(1.0051 -1.00125e-15 -6.08867e-17)
(1.00522 -1.34901e-15 -1.1462e-16)
(1.00522 -1.00704e-15 -5.77775e-17)
(1.00534 -1.33236e-15 -1.19797e-16)
(1.00534 -1.00322e-15 -5.38975e-17)
(1.00547 -1.31528e-15 -1.21833e-16)
(1.00547 -1.01627e-15 -4.57018e-17)
(1.00559 -1.29279e-15 -1.16896e-16)
(1.00559 -1.03002e-15 -3.78677e-17)
(1.00572 -1.26658e-15 -1.09982e-16)
(1.00572 -1.01718e-15 -4.04569e-17)
(1.00585 -1.24024e-15 -1.0206e-16)
(1.00585 -9.9061e-16 -4.83977e-17)
(1.00598 -1.22944e-15 -9.62886e-17)
(1.00598 -9.79619e-16 -5.9733e-17)
(1.00612 -1.22581e-15 -8.48665e-17)
(1.00612 -9.70832e-16 -6.59596e-17)
(1.00625 -1.21418e-15 -7.86865e-17)
(1.00625 -9.63491e-16 -7.06652e-17)
(1.00639 -1.20237e-15 -6.99928e-17)
(1.00639 -9.739e-16 -8.47077e-17)
(1.00653 -1.17988e-15 -6.91045e-17)
(1.00653 -9.83845e-16 -8.76128e-17)
(1.00668 -1.16309e-15 -7.14134e-17)
(1.00668 -9.82736e-16 -9.67508e-17)
(1.00682 -1.15527e-15 -6.74746e-17)
(1.00682 -9.8888e-16 -1.02395e-16)
(1.00697 -1.14988e-15 -6.57562e-17)
(1.00697 -9.92352e-16 -1.08869e-16)
(1.00712 -1.13767e-15 -6.45723e-17)
(1.00712 -1.00416e-15 -1.16674e-16)
(1.00727 -1.12056e-15 -6.26237e-17)
(1.00727 -1.02149e-15 -1.13339e-16)
(1.00743 -1.10609e-15 -6.67584e-17)
(1.00743 -1.03842e-15 -1.0934e-16)
(1.00759 -1.10434e-15 -7.7144e-17)
(1.00759 -1.04608e-15 -1.04887e-16)
(1.00774 -1.10289e-15 -8.39834e-17)
(1.00774 -1.05151e-15 -9.28712e-17)
(1.00791 -1.09108e-15 -8.73636e-17)
(1.00791 -1.06178e-15 -8.69339e-17)
(1.00807 -1.08545e-15 -9.26095e-17)
(1.00807 -1.05328e-15 -8.18954e-17)
(1.00823 -1.09718e-15 -9.41171e-17)
(1.00823 -1.0439e-15 -7.96115e-17)
(1.0084 -1.08435e-15 -9.01829e-17)
(1.0084 -1.04759e-15 -8.4107e-17)
(1.00857 -1.06212e-15 -9.36291e-17)
(1.00857 -1.03309e-15 -9.1552e-17)
(1.00874 -1.04958e-15 -1.04291e-16)
(1.00874 -1.01964e-15 -9.18402e-17)
(1.00892 -1.05438e-15 -1.02254e-16)
(1.00892 -1.00999e-15 -9.21035e-17)
(1.00909 -1.04186e-15 -1.00826e-16)
(1.00909 -1.00755e-15 -9.18762e-17)
(1.00927 -1.03137e-15 -9.19161e-17)
(1.00927 -1.02839e-15 -8.6867e-17)
(1.00945 -1.01552e-15 -8.47575e-17)
(1.00945 -1.02846e-15 -8.12409e-17)
(1.00963 -1.00853e-15 -8.10615e-17)
(1.00963 -1.01243e-15 -7.74035e-17)
(1.00981 -1.00761e-15 -7.31226e-17)
(1.00981 -1.00196e-15 -7.33808e-17)
(1.01 -9.97433e-16 -6.88025e-17)
(1.01 -9.99436e-16 -7.11875e-17)
(1.01018 -9.88602e-16 -7.87466e-17)
(1.01018 -9.83112e-16 -5.76033e-17)
(1.01037 -9.82193e-16 -8.36665e-17)
(1.01037 -9.66808e-16 -6.01399e-17)
(1.01056 -9.62627e-16 -9.40423e-17)
(1.01056 -9.54492e-16 -6.59322e-17)
(1.01075 -9.50114e-16 -1.00524e-16)
(1.01075 -9.513e-16 -7.66401e-17)
(1.01094 -9.40991e-16 -1.04525e-16)
(1.01094 -9.42873e-16 -7.13701e-17)
(1.01113 -9.25779e-16 -1.09591e-16)
(1.01113 -9.271e-16 -6.93573e-17)
(1.01133 -9.13554e-16 -1.18745e-16)
(1.01133 -9.16845e-16 -7.32317e-17)
(1.01152 -8.93717e-16 -1.23532e-16)
(1.01152 -9.17054e-16 -9.50874e-17)
(1.01172 -8.84661e-16 -1.35884e-16)
(1.01172 -8.94838e-16 -9.76664e-17)
(1.01192 -8.8482e-16 -1.42443e-16)
(1.01192 -8.74425e-16 -9.55248e-17)
(1.01211 -8.75223e-16 -1.46315e-16)
(1.01211 -8.85503e-16 -8.93365e-17)
(1.01231 -8.93473e-16 -1.58601e-16)
(1.01231 -8.95397e-16 -9.51334e-17)
(1.01251 -8.59487e-16 -1.62104e-16)
(1.01251 -8.63644e-16 -1.09566e-16)
(1.01271 -8.85565e-16 -1.49597e-16)
(1.01271 -8.44394e-16 -1.10649e-16)
(1.0129 -9.06973e-16 -1.34164e-16)
(1.0129 -8.42283e-16 -1.11831e-16)
(1.0131 -9.08338e-16 -1.10233e-16)
(1.0131 -8.41926e-16 -1.3107e-16)
(1.0133 -8.92445e-16 -9.27769e-17)
(1.0133 -8.1341e-16 -1.50469e-16)
(1.0135 -8.47957e-16 -6.70166e-17)
(1.0135 -8.5359e-16 -1.38564e-16)
(1.01369 -7.96498e-16 -5.72028e-17)
(1.01369 -8.13556e-16 -1.30477e-16)
(1.01389 -7.52852e-16 -5.2717e-17)
(1.01389 -7.84272e-16 -1.10315e-16)
(1.01408 -7.35589e-16 -6.72509e-17)
(1.01408 -7.66378e-16 -1.03265e-16)
(1.01427 -6.96339e-16 -7.41322e-17)
(1.01427 -7.38198e-16 -1.07802e-16)
(1.01446 -6.64613e-16 -8.84977e-17)
(1.01446 -6.48895e-16 -1.21236e-16)
(1.01465 -5.99848e-16 -9.35177e-17)
(1.01465 -6.41988e-16 -1.26721e-16)
(1.01483 -5.97808e-16 -1.09991e-16)
(1.01483 -6.50369e-16 -1.24605e-16)
(1.01501 -5.82785e-16 -1.03612e-16)
(1.01501 -5.55154e-16 -1.29952e-16)
(1.01519 -5.78437e-16 -8.70517e-17)
(1.01519 -5.70641e-16 -1.35303e-16)
(1.01536 -5.82898e-16 -3.82073e-17)
(1.01536 -5.62669e-16 -1.33793e-16)
(1.01553 -5.28911e-16 -3.95266e-17)
(1.01553 -5.0681e-16 -1.16106e-16)
(1.0157 -5.12539e-16 -6.53249e-17)
(1.0157 -5.05314e-16 -1.22496e-16)
(1.01586 -5.34971e-16 -4.351e-17)
(1.01586 -5.31998e-16 -1.01576e-16)
(1.01601 -5.13785e-16 -3.17244e-17)
(1.01601 -5.13239e-16 -7.08239e-17)
(1.01616 -5.14176e-16 -3.13362e-17)
(1.01616 -4.99201e-16 -6.02355e-17)
(1.0163 -4.87778e-16 -2.04397e-17)
(1.0163 -4.74628e-16 -3.6319e-17)
(1.01643 -4.66926e-16 1.65159e-17)
(1.01643 -4.43097e-16 -2.01386e-17)
(1.01656 -4.48094e-16 8.52497e-18)
(1.01656 -4.38556e-16 -1.75205e-18)
(1.01668 -4.20412e-16 2.70549e-18)
(1.01668 -4.53216e-16 2.08885e-20)
(1.01678 -4.51339e-16 1.96627e-18)
(1.01678 -4.28327e-16 2.13252e-17)
(1.01688 -4.35225e-16 2.25015e-18)
(1.01688 -3.9981e-16 6.46687e-18)
(1.01696 -4.08037e-16 9.29603e-18)
(1.01696 -4.2919e-16 -1.27467e-17)
(1.01704 -4.08854e-16 3.0002e-17)
(1.01704 -3.98703e-16 -2.82762e-17)
(1.0171 -3.71619e-16 9.7401e-17)
(1.0171 -3.65404e-16 -4.84339e-17)
(1.01714 -3.22165e-16 3.93943e-17)
(1.01714 -3.72597e-16 -4.03355e-17)
(1.01718 -3.25689e-16 6.15085e-17)
(1.01718 -4.02126e-16 -4.36151e-17)
(1.01719 -3.43325e-16 5.41251e-17)
(1.01719 -3.27544e-16 -2.0028e-17)
(0.00964015 -5.2457e-19 8.57008e-18)
(0.00964015 -1.17501e-19 3.86666e-17)
(0.0290604 8.64848e-20 -2.18358e-17)
(0.0290604 3.6367e-19 1.52351e-16)
(0.0487632 -8.71962e-19 -2.24606e-17)
(0.0487632 4.96394e-19 1.56749e-16)
(0.0687529 -1.36121e-18 -2.3097e-17)
(0.0687529 7.8943e-19 1.61253e-16)
(0.0890329 -1.83985e-18 -2.37422e-17)
(0.0890329 1.09043e-18 1.6585e-16)
(0.109604 -2.31878e-18 -2.43904e-17)
(0.109604 1.3802e-18 1.70508e-16)
(0.130463 -2.87953e-18 -2.50329e-17)
(0.130463 1.71962e-18 1.7517e-16)
(0.151597 -3.50751e-18 -2.56555e-17)
(0.151597 2.19867e-18 1.79741e-16)
(0.172979 -4.12132e-18 -2.62374e-17)
(0.172979 2.60301e-18 1.84072e-16)
(0.194564 -4.72741e-18 -2.67508e-17)
(0.194564 3.07238e-18 1.8797e-16)
(0.216284 -5.34313e-18 -2.71606e-17)
(0.216284 3.53518e-18 1.91195e-16)
(0.238043 -5.98434e-18 -2.74326e-17)
(0.238043 3.89639e-18 1.93497e-16)
(0.259724 -6.60587e-18 -2.75367e-17)
(0.259724 4.28561e-18 1.94658e-16)
(0.281191 -7.14754e-18 -2.7453e-17)
(0.281191 4.60259e-18 1.9453e-16)
(0.302302 -7.69287e-18 -2.71752e-17)
(0.302302 4.94148e-18 1.93076e-16)
(0.322925 -8.39532e-18 -2.67177e-17)
(0.322925 5.38291e-18 1.90378e-16)
(0.342945 -9.17453e-18 -2.61084e-17)
(0.342945 6.05258e-18 1.86621e-16)
(0.362276 -9.89808e-18 -2.53841e-17)
(0.362276 6.4671e-18 1.8204e-16)
(0.380861 -1.04419e-17 -2.45774e-17)
(0.380861 6.84974e-18 1.76894e-16)
(0.398671 -1.07907e-17 -2.37215e-17)
(0.398671 7.14625e-18 1.71431e-16)
(0.415703 -1.15364e-17 -2.2845e-17)
(0.415703 7.64959e-18 1.65851e-16)
(0.431971 -1.26858e-17 -2.19782e-17)
(0.431971 8.52565e-18 1.60328e-16)
(0.447505 -1.36725e-17 -2.11368e-17)
(0.447505 9.21742e-18 1.54983e-16)
(0.46234 -1.43578e-17 -2.03305e-17)
(0.46234 9.46614e-18 1.49774e-16)
(0.476519 -1.46924e-17 -1.9561e-17)
(0.476519 9.48987e-18 1.44671e-16)
(0.490085 -1.51245e-17 -1.88226e-17)
(0.490085 9.6672e-18 1.39875e-16)
(0.503083 -1.58408e-17 -1.81181e-17)
(0.503083 9.61063e-18 1.35397e-16)
(0.515553 -1.65676e-17 -1.7449e-17)
(0.515553 9.65488e-18 1.31235e-16)
(0.527536 -1.72508e-17 -1.68147e-17)
(0.527536 1.01853e-17 1.27383e-16)
(0.53907 -1.79777e-17 -1.62273e-17)
(0.53907 1.03391e-17 1.23837e-16)
(0.550188 -1.8186e-17 -1.56727e-17)
(0.550188 9.88242e-18 1.20568e-16)
(0.560924 -1.83173e-17 -1.51313e-17)
(0.560924 9.82838e-18 1.17546e-16)
(0.571306 -1.87943e-17 -1.4615e-17)
(0.571306 9.67263e-18 1.14751e-16)
(0.581361 -1.91421e-17 -1.41141e-17)
(0.581361 9.49237e-18 1.12175e-16)
(0.591113 -1.9501e-17 -1.36395e-17)
(0.591113 1.0064e-17 1.0981e-16)
(0.600583 -2.02264e-17 -1.31756e-17)
(0.600583 1.04338e-17 1.07622e-16)
(0.609791 -2.10029e-17 -1.27361e-17)
(0.609791 1.08167e-17 1.05598e-16)
(0.618756 -2.16972e-17 -1.23085e-17)
(0.618756 1.05151e-17 1.03726e-16)
(0.627493 -2.21495e-17 -1.18979e-17)
(0.627493 1.02936e-17 1.01987e-16)
(0.636018 -2.22544e-17 -1.14982e-17)
(0.636018 1.10941e-17 1.00362e-16)
(0.644343 -2.27402e-17 -1.11052e-17)
(0.644343 1.14844e-17 9.88402e-17)
(0.65248 -2.3789e-17 -1.07129e-17)
(0.65248 1.1298e-17 9.74096e-17)
(0.66044 -2.47959e-17 -1.03373e-17)
(0.66044 1.12973e-17 9.60741e-17)
(0.668233 -2.52291e-17 -9.96687e-18)
(0.668233 1.20042e-17 9.48134e-17)
(0.675868 -2.54523e-17 -9.59439e-18)
(0.675868 1.18545e-17 9.36176e-17)
(0.683352 -2.55275e-17 -9.21006e-18)
(0.683352 1.2254e-17 9.24804e-17)
(0.690693 -2.56284e-17 -8.81971e-18)
(0.690693 1.28016e-17 9.13998e-17)
(0.697898 -2.60132e-17 -8.40416e-18)
(0.697898 1.26903e-17 9.03592e-17)
(0.704971 -2.65441e-17 -7.98165e-18)
(0.704971 1.27384e-17 8.93725e-17)
(0.711919 -2.76588e-17 -7.5405e-18)
(0.711919 1.33376e-17 8.84162e-17)
(0.718747 -2.84963e-17 -7.09994e-18)
(0.718747 1.35058e-17 8.7511e-17)
(0.725458 -2.89827e-17 -6.63291e-18)
(0.725458 1.25672e-17 8.66267e-17)
(0.732056 -2.95108e-17 -6.13669e-18)
(0.732056 1.16169e-17 8.57556e-17)
(0.738545 -2.98155e-17 -5.61857e-18)
(0.738545 1.16833e-17 8.48973e-17)
(0.744929 -3.06814e-17 -5.0906e-18)
(0.744929 1.27475e-17 8.40617e-17)
(0.751209 -3.15759e-17 -4.54911e-18)
(0.751209 1.31595e-17 8.32252e-17)
(0.757389 -3.22289e-17 -4.01053e-18)
(0.757389 1.34117e-17 8.24002e-17)
(0.763471 -3.29563e-17 -3.46556e-18)
(0.763471 1.36555e-17 8.15753e-17)
(0.769456 -3.34002e-17 -2.91168e-18)
(0.769456 1.31929e-17 8.07477e-17)
(0.775347 -3.41665e-17 -2.3546e-18)
(0.775347 1.28305e-17 7.99148e-17)
(0.781146 -3.51504e-17 -1.79856e-18)
(0.781146 1.31801e-17 7.90771e-17)
(0.786853 -3.59053e-17 -1.25665e-18)
(0.786853 1.39837e-17 7.8257e-17)
(0.79247 -3.65659e-17 -7.12061e-19)
(0.79247 1.3809e-17 7.7425e-17)
(0.797998 -3.71174e-17 -1.57838e-19)
(0.797998 1.31259e-17 7.65966e-17)
(0.803439 -3.87262e-17 4.21365e-19)
(0.803439 1.30939e-17 7.577e-17)
(0.808793 -4.03972e-17 9.95512e-19)
(0.808793 1.28062e-17 7.49292e-17)
(0.814062 -4.14132e-17 1.58977e-18)
(0.814062 1.33315e-17 7.40902e-17)
(0.819245 -4.20013e-17 2.21743e-18)
(0.819245 1.42297e-17 7.32032e-17)
(0.824344 -4.1979e-17 2.85471e-18)
(0.824344 1.44066e-17 7.22978e-17)
(0.829359 -4.26534e-17 3.49333e-18)
(0.829359 1.4469e-17 7.13786e-17)
(0.83429 -4.36149e-17 4.13958e-18)
(0.83429 1.4086e-17 7.04114e-17)
(0.839139 -4.40112e-17 4.80885e-18)
(0.839139 1.32615e-17 6.94149e-17)
(0.843906 -4.53789e-17 5.49305e-18)
(0.843906 1.2826e-17 6.84113e-17)
(0.848591 -4.64298e-17 6.19476e-18)
(0.848591 1.24972e-17 6.74406e-17)
(0.853194 -4.70058e-17 6.96716e-18)
(0.853194 1.18872e-17 6.6447e-17)
(0.857716 -4.92102e-17 7.76923e-18)
(0.857716 1.18081e-17 6.54409e-17)
(0.862157 -5.07776e-17 8.53822e-18)
(0.862157 1.25585e-17 6.44498e-17)
(0.866518 -5.13634e-17 9.34845e-18)
(0.866518 1.1649e-17 6.34581e-17)
(0.870799 -5.20109e-17 1.01892e-17)
(0.870799 1.09442e-17 6.25028e-17)
(0.875 -5.17062e-17 1.10738e-17)
(0.875 1.11691e-17 6.15395e-17)
(0.879121 -5.20404e-17 1.20139e-17)
(0.879121 1.01987e-17 6.05861e-17)
(0.883162 -5.3533e-17 1.29964e-17)
(0.883162 8.92864e-18 5.95372e-17)
(0.887125 -5.47374e-17 1.40125e-17)
(0.887125 8.48683e-18 5.84452e-17)
(0.891009 -5.56817e-17 1.50789e-17)
(0.891009 8.79463e-18 5.7301e-17)
(0.894815 -5.58948e-17 1.61733e-17)
(0.894815 6.68875e-18 5.61536e-17)
(0.898542 -5.60575e-17 1.73771e-17)
(0.898542 5.70179e-18 5.49261e-17)
(0.902191 -5.73713e-17 1.86574e-17)