/*--------------------------------*- C++ -*----------------------------------*\
| =========                 |                                                 |
| \\      /  F ield         | OpenFOAM: The Open Source CFD Toolbox           |
|  \\    /   O peration     | Version:  2012                                  |
|   \\  /    A nd           | Website:  www.openfoam.com                      |
|    \\/     M anipulation  |                                                 |
\*---------------------------------------------------------------------------*/
FoamFile
{
    version     2.0;
    format      ascii;
    class       volScalarField;
    location    "2000";
    object      nut;
}
// * * * * * * * * * * * * * * * * * * * * * * * * * * * * * * * * * * * * * //

dimensions      [0 2 -1 0 0 0 0];


internalField   nonuniform List<scalar> 
2560
(
5.33988e-14
5.33988e-14
4.50772e-14
4.50772e-14
3.97206e-14
3.97206e-14
3.61347e-14
3.61347e-14
3.36698e-14
3.36698e-14
3.21129e-14
3.21129e-14
3.15853e-14
3.15853e-14
3.25333e-14
3.25333e-14
3.57804e-14
3.57804e-14
4.262e-14
4.262e-14
5.49381e-14
5.49381e-14
7.53664e-14
7.53664e-14
1.07464e-13
1.07464e-13
1.55928e-13
1.55928e-13
2.26845e-13
2.26845e-13
3.2797e-13
3.2797e-13
4.69051e-13
4.69051e-13
6.62204e-13
6.62204e-13
9.22322e-13
9.22322e-13
1.26755e-12
1.26755e-12
1.71982e-12
1.71982e-12
2.30544e-12
2.30544e-12
3.05575e-12
3.05575e-12
4.00785e-12
4.00785e-12
5.20546e-12
5.20546e-12
6.69977e-12
6.69977e-12
8.55046e-12
8.55046e-12
1.08268e-11
1.08268e-11
1.36088e-11
1.36088e-11
1.69887e-11
1.69887e-11
2.10721e-11
2.10721e-11
2.59797e-11
2.59797e-11
3.18491e-11
3.18491e-11
3.88363e-11
3.88363e-11
4.71181e-11
4.71181e-11
5.68937e-11
5.68937e-11
6.83875e-11
6.83875e-11
8.18513e-11
8.18513e-11
9.75665e-11
9.75665e-11
1.15848e-10
1.15848e-10
1.37045e-10
1.37045e-10
1.61547e-10
1.61547e-10
1.89785e-10
1.89785e-10
2.22235e-10
2.22235e-10
2.59424e-10
2.59424e-10
3.01929e-10
3.01929e-10
3.50385e-10
3.50385e-10
4.05491e-10
4.05491e-10
4.68006e-10
4.68006e-10
5.38764e-10
5.38764e-10
6.1867e-10
6.1867e-10
7.0871e-10
7.0871e-10
8.09953e-10
8.09953e-10
9.23558e-10
9.23558e-10
1.05078e-09
1.05078e-09
1.19296e-09
1.19296e-09
1.35158e-09
1.35158e-09
1.52818e-09
1.52818e-09
1.72447e-09
1.72447e-09
1.94223e-09
1.94223e-09
2.18342e-09
2.18342e-09
2.45009e-09
2.45009e-09
2.74446e-09
2.74446e-09
3.06888e-09
3.06888e-09
3.42584e-09
3.42584e-09
3.81803e-09
3.81803e-09
4.24826e-09
4.24826e-09
4.71955e-09
4.71955e-09
5.23506e-09
5.23506e-09
5.79816e-09
5.79816e-09
6.41241e-09
6.41241e-09
7.08157e-09
7.08157e-09
7.8096e-09
7.8096e-09
8.60068e-09
8.60068e-09
9.45922e-09
9.45922e-09
1.03899e-08
1.03899e-08
1.13975e-08
1.13975e-08
1.24872e-08
1.24872e-08
1.36643e-08
1.36643e-08
1.49347e-08
1.49347e-08
1.63041e-08
1.63041e-08
1.77788e-08
1.77788e-08
1.93654e-08
1.93654e-08
2.10708e-08
2.10708e-08
2.2902e-08
2.2902e-08
2.48668e-08
2.48668e-08
2.69729e-08
2.69729e-08
2.92286e-08
2.92286e-08
3.16427e-08
3.16427e-08
3.42243e-08
3.42243e-08
3.69829e-08
3.69829e-08
3.99286e-08
3.99286e-08
4.30717e-08
4.30717e-08
4.64235e-08
4.64235e-08
4.99954e-08
4.99954e-08
5.37995e-08
5.37995e-08
5.78486e-08
5.78486e-08
6.21562e-08
6.21562e-08
6.67361e-08
6.67361e-08
7.16033e-08
7.16033e-08
7.67732e-08
7.67732e-08
8.22622e-08
8.22622e-08
8.80875e-08
8.80875e-08
9.42672e-08
9.42672e-08
1.0082e-07
1.0082e-07
1.07767e-07
1.07767e-07
1.15128e-07
1.15128e-07
1.22926e-07
1.22926e-07
1.31185e-07
1.31185e-07
1.39929e-07
1.39929e-07
1.49185e-07
1.49185e-07
1.58981e-07
1.58981e-07
1.69345e-07
1.69345e-07
1.80309e-07
1.80309e-07
1.91905e-07
1.91905e-07
2.04169e-07
2.04169e-07
2.17137e-07
2.17137e-07
2.30848e-07
2.30848e-07
2.45343e-07
2.45343e-07
2.60666e-07
2.60666e-07
2.76864e-07
2.76864e-07
2.93987e-07
2.93987e-07
3.12085e-07
3.12085e-07
3.31215e-07
3.31215e-07
3.51436e-07
3.51436e-07
3.72811e-07
3.72811e-07
3.95406e-07
3.95406e-07
4.19293e-07
4.19293e-07
4.44546e-07
4.44546e-07
4.71247e-07
4.71247e-07
4.9948e-07
4.9948e-07
5.29337e-07
5.29337e-07
5.60915e-07
5.60915e-07
5.94317e-07
5.94317e-07
6.29653e-07
6.29653e-07
6.67041e-07
6.67041e-07
7.06605e-07
7.06605e-07
7.48481e-07
7.48481e-07
7.92809e-07
7.92809e-07
8.39742e-07
8.39742e-07
8.89443e-07
8.89443e-07
9.42085e-07
9.42085e-07
9.97852e-07
9.97852e-07
1.05694e-06
1.05694e-06
1.11957e-06
1.11957e-06
1.18595e-06
1.18595e-06
1.25634e-06
1.25634e-06
1.33098e-06
1.33098e-06
1.41016e-06
1.41016e-06
1.49417e-06
1.49417e-06
1.58333e-06
1.58333e-06
1.67796e-06
1.67796e-06
1.77844e-06
1.77844e-06
1.88514e-06
1.88514e-06
1.99849e-06
1.99849e-06
2.11892e-06
2.11892e-06
2.2469e-06
2.2469e-06
2.38295e-06
2.38295e-06
2.52761e-06
2.52761e-06
2.68145e-06
2.68145e-06
2.84511e-06
2.84511e-06
3.01924e-06
3.01924e-06
3.20457e-06
3.20457e-06
3.40186e-06
3.40186e-06
3.61193e-06
3.61193e-06
3.83566e-06
3.83566e-06
4.074e-06
4.074e-06
4.32797e-06
4.32797e-06
4.59865e-06
4.59865e-06
4.88721e-06
4.88721e-06
5.1949e-06
5.1949e-06
5.52307e-06
5.52307e-06
5.87315e-06
5.87315e-06
6.24672e-06
6.24671e-06
6.64542e-06
6.64542e-06
7.07105e-06
7.07105e-06
7.52554e-06
7.52554e-06
8.01095e-06
8.01095e-06
8.52952e-06
8.52952e-06
9.08363e-06
9.08363e-06
9.67588e-06
9.67588e-06
1.0309e-05
1.0309e-05
1.09861e-05
1.09861e-05
1.17102e-05
1.17102e-05
1.24849e-05
1.24849e-05
1.3314e-05
1.3314e-05
1.42014e-05
1.42014e-05
1.51515e-05
1.51515e-05
1.6169e-05
1.6169e-05
1.72591e-05
1.72591e-05
1.84271e-05
1.84271e-05
1.9679e-05
1.9679e-05
2.10213e-05
2.10213e-05
2.24609e-05
2.24609e-05
2.40053e-05
2.40053e-05
2.56626e-05
2.56626e-05
2.74417e-05
2.74417e-05
2.93522e-05
2.93522e-05
3.14045e-05
3.14045e-05
3.36097e-05
3.36097e-05
3.59803e-05
3.59803e-05
3.85294e-05
3.85294e-05
4.12716e-05
4.12716e-05
4.42226e-05
4.42226e-05
4.73994e-05
4.73994e-05
5.08208e-05
5.08208e-05
5.45069e-05
5.45069e-05
5.84797e-05
5.84797e-05
6.27633e-05
6.27633e-05
6.73837e-05
6.73837e-05
7.23694e-05
7.23694e-05
7.77513e-05
7.77513e-05
8.35629e-05
8.35629e-05
8.98407e-05
8.98407e-05
9.66244e-05
9.66244e-05
0.000103957
0.000103957
0.000111885
0.000111885
0.000120459
0.000120459
0.000129734
0.000129734
0.000139768
0.000139768
0.000150625
0.000150624
0.000162372
0.000162372
0.000175082
0.000175082
0.000188834
0.000188834
0.00020371
0.00020371
0.000219798
0.000219798
0.00023719
0.00023719
0.000255984
0.000255984
0.000276282
0.000276282
0.00029819
0.00029819
0.000321818
0.000321818
0.000347277
0.000347277
0.000374685
0.000374685
0.000404156
0.000404156
0.000435808
0.000435808
0.000469759
0.000469759
0.000506122
0.000506122
0.00054501
0.00054501
0.000586531
0.000586531
0.000630788
0.000630788
0.000677877
0.000677877
0.000727885
0.000727885
0.000780892
0.000780891
0.000836965
0.000836964
0.000896161
0.00089616
0.000958524
0.000958524
0.00102409
0.00102409
0.00109286
0.00109286
0.00116486
0.00116486
0.00124005
0.00124005
0.00131843
0.00131843
0.00139993
0.00139993
0.00148451
0.00148451
0.00157209
0.00157209
0.00166258
0.00166258
0.00175588
0.00175587
0.00185186
0.00185186
0.0019504
0.0019504
0.00205136
0.00205136
0.00215457
0.00215457
0.00225989
0.00225989
0.00236713
0.00236713
0.0024761
0.0024761
0.00258663
0.00258663
0.00269851
0.00269851
0.00281155
0.00281155
0.00292553
0.00292553
0.00304026
0.00304026
0.00315552
0.00315552
0.0032711
0.0032711
0.0033868
0.0033868
0.00350241
0.00350241
0.00361772
0.00361771
0.00373252
0.00373252
0.00384663
0.00384663
0.00395985
0.00395985
0.00407199
0.00407199
0.00418287
0.00418287
0.00429231
0.00429231
0.00440015
0.00440015
0.00450622
0.00450622
0.00461037
0.00461036
0.00471245
0.00471245
0.00481233
0.00481233
0.00490988
0.00490988
0.00500497
0.00500497
0.0050975
0.0050975
0.00518736
0.00518736
0.00527446
0.00527446
0.00535871
0.00535871
0.00544003
0.00544003
0.00551836
0.00551836
0.00559363
0.00559363
0.0056658
0.0056658
0.00573482
0.00573482
0.00580067
0.00580067
0.00586331
0.00586331
0.00592274
0.00592274
0.00597895
0.00597895
0.00603194
0.00603194
0.00608173
0.00608173
0.00612834
0.00612834
0.00617181
0.0061718
0.00621217
0.00621217
0.00624948
0.00624947
0.00628379
0.00628379
0.00631519
0.00631519
0.00634375
0.00634375
0.00636955
0.00636955
0.00639269
0.00639269
0.00641327
0.00641327
0.00643139
0.00643139
0.00644716
0.00644716
0.00646068
0.00646068
0.00647206
0.00647206
0.0064814
0.00648139
0.00648877
0.00648877
0.00649426
0.00649425
0.0064979
0.0064979
0.00649973
0.00649973
5.33988e-14
5.33988e-14
4.50772e-14
4.50772e-14
3.97206e-14
3.97206e-14
3.61347e-14
3.61347e-14
3.36698e-14
3.36698e-14
3.21129e-14
3.21129e-14
3.15853e-14
3.15853e-14
3.25333e-14
3.25333e-14
3.57804e-14
3.57804e-14
4.262e-14
4.262e-14
5.49381e-14
5.49381e-14
7.53664e-14
7.53664e-14
1.07464e-13
1.07464e-13
1.55928e-13
1.55928e-13
2.26845e-13
2.26845e-13
3.2797e-13
3.2797e-13
4.69051e-13
4.69051e-13
6.62204e-13
6.62204e-13
9.22322e-13
9.22322e-13
1.26755e-12
1.26755e-12
1.71982e-12
1.71982e-12
2.30544e-12
2.30544e-12
3.05575e-12
3.05575e-12
4.00785e-12
4.00785e-12
5.20546e-12
5.20546e-12
6.69977e-12
6.69977e-12
8.55046e-12
8.55046e-12
1.08268e-11
1.08268e-11
1.36088e-11
1.36088e-11
1.69887e-11
1.69887e-11
2.10721e-11
2.10721e-11
2.59797e-11
2.59797e-11
3.18491e-11
3.18491e-11
3.88363e-11
3.88363e-11
4.71181e-11
4.71181e-11
5.68937e-11
5.68937e-11
6.83875e-11
6.83875e-11
8.18512e-11
8.18512e-11
9.75665e-11
9.75665e-11
1.15848e-10
1.15848e-10
1.37045e-10
1.37045e-10
1.61547e-10
1.61547e-10
1.89785e-10
1.89785e-10
2.22235e-10
2.22235e-10
2.59424e-10
2.59424e-10
3.01929e-10
3.01929e-10
3.50385e-10
3.50385e-10
4.05491e-10
4.05491e-10
4.68006e-10
4.68006e-10
5.38764e-10
5.38764e-10
6.1867e-10
6.1867e-10
7.0871e-10
7.0871e-10
8.09953e-10
8.09953e-10
9.23558e-10
9.23558e-10
1.05078e-09
1.05078e-09
1.19296e-09
1.19296e-09
1.35158e-09
1.35158e-09
1.52818e-09
1.52818e-09
1.72447e-09
1.72447e-09
1.94223e-09
1.94223e-09
2.18342e-09
2.18342e-09
2.45009e-09
2.45009e-09
2.74446e-09
2.74446e-09
3.06888e-09
3.06888e-09
3.42584e-09
3.42584e-09
3.81803e-09
3.81803e-09
4.24826e-09
4.24826e-09
4.71955e-09
4.71955e-09
5.23506e-09
5.23506e-09
5.79816e-09
5.79816e-09
6.41241e-09
6.41241e-09
7.08157e-09
7.08157e-09
7.8096e-09
7.8096e-09
8.60068e-09
8.60068e-09
9.45922e-09
9.45922e-09
1.03899e-08
1.03899e-08
1.13975e-08
1.13975e-08
1.24872e-08
1.24872e-08
1.36643e-08
1.36643e-08
1.49347e-08
1.49347e-08
1.63041e-08
1.63041e-08
1.77788e-08
1.77788e-08
1.93654e-08
1.93654e-08
2.10708e-08
2.10708e-08
2.2902e-08
2.2902e-08
2.48668e-08
2.48668e-08
2.69729e-08
2.69729e-08
2.92286e-08
2.92286e-08
3.16427e-08
3.16427e-08
3.42243e-08
3.42243e-08
3.69829e-08
3.69829e-08
3.99286e-08
3.99286e-08
4.30717e-08
4.30717e-08
4.64235e-08
4.64235e-08
4.99954e-08
4.99954e-08
5.37995e-08
5.37995e-08
5.78486e-08
5.78486e-08
6.21562e-08
6.21562e-08
6.67361e-08
6.67361e-08
7.16033e-08
7.16033e-08
7.67732e-08
7.67732e-08
8.22622e-08
8.22622e-08
8.80875e-08
8.80875e-08
9.42672e-08
9.42672e-08
1.0082e-07
1.0082e-07
1.07767e-07
1.07767e-07
1.15128e-07
1.15128e-07
1.22926e-07
1.22926e-07
1.31185e-07
1.31185e-07
1.39929e-07
1.39929e-07
1.49185e-07
1.49185e-07
1.58981e-07
1.58981e-07
1.69345e-07
1.69345e-07
1.80309e-07
1.80309e-07
1.91905e-07
1.91905e-07
2.04169e-07
2.04169e-07
2.17137e-07
2.17137e-07
2.30848e-07
2.30848e-07
2.45343e-07
2.45343e-07
2.60666e-07
2.60666e-07
2.76864e-07
2.76864e-07
2.93987e-07
2.93987e-07
3.12085e-07
3.12085e-07
3.31215e-07
3.31215e-07
3.51436e-07
3.51436e-07
3.72811e-07
3.72811e-07
3.95406e-07
3.95406e-07
4.19293e-07
4.19293e-07
4.44546e-07
4.44546e-07
4.71247e-07
4.71247e-07
4.9948e-07
4.9948e-07
5.29337e-07
5.29337e-07
5.60915e-07
5.60915e-07
5.94317e-07
5.94317e-07
6.29653e-07
6.29653e-07
6.67041e-07
6.67041e-07
7.06605e-07
7.06605e-07
7.48481e-07
7.48481e-07
7.92809e-07
7.92809e-07
8.39742e-07
8.39742e-07
8.89443e-07
8.89443e-07
9.42085e-07
9.42085e-07
9.97852e-07
9.97852e-07
1.05694e-06
1.05694e-06
1.11957e-06
1.11957e-06
1.18595e-06
1.18595e-06
1.25634e-06
1.25634e-06
1.33098e-06
1.33098e-06
1.41016e-06
1.41016e-06
1.49417e-06
1.49417e-06
1.58333e-06
1.58333e-06
1.67796e-06
1.67796e-06
1.77844e-06
1.77844e-06
1.88514e-06
1.88514e-06
1.99849e-06
1.99849e-06
2.11892e-06
2.11892e-06
2.2469e-06
2.2469e-06
2.38295e-06
2.38295e-06
2.52761e-06
2.52761e-06
2.68145e-06
2.68145e-06
2.84511e-06
2.84511e-06
3.01924e-06
3.01924e-06
3.20457e-06
3.20457e-06
3.40186e-06
3.40186e-06
3.61193e-06
3.61193e-06
3.83566e-06
3.83566e-06
4.074e-06
4.074e-06
4.32797e-06
4.32797e-06
4.59865e-06
4.59865e-06
4.88721e-06
4.88721e-06
5.1949e-06
5.1949e-06
5.52307e-06
5.52307e-06
5.87315e-06
5.87315e-06
6.24671e-06
6.24671e-06
6.64542e-06
6.64542e-06
7.07105e-06
7.07105e-06
7.52554e-06
7.52554e-06
8.01095e-06
8.01095e-06
8.52952e-06
8.52952e-06
9.08363e-06
9.08363e-06
9.67588e-06
9.67588e-06
1.0309e-05
1.0309e-05
1.09861e-05
1.09861e-05
1.17102e-05
1.17102e-05
1.24849e-05
1.24849e-05
1.3314e-05
1.3314e-05
1.42014e-05
1.42014e-05
1.51515e-05
1.51515e-05
1.6169e-05
1.6169e-05
1.72591e-05
1.72591e-05
1.84271e-05
1.84271e-05
1.9679e-05
1.9679e-05
2.10213e-05
2.10213e-05
2.24609e-05
2.24609e-05
2.40053e-05
2.40053e-05
2.56626e-05
2.56626e-05
2.74417e-05
2.74417e-05
2.93522e-05
2.93522e-05
3.14045e-05
3.14045e-05
3.36097e-05
3.36097e-05
3.59803e-05
3.59803e-05
3.85294e-05
3.85294e-05
4.12716e-05
4.12716e-05
4.42226e-05
4.42226e-05
4.73994e-05
4.73994e-05
5.08208e-05
5.08208e-05
5.45068e-05
5.45068e-05
5.84797e-05
5.84797e-05
6.27633e-05
6.27633e-05
6.73837e-05
6.73837e-05
7.23694e-05
7.23694e-05
7.77513e-05
7.77513e-05
8.35629e-05
8.35628e-05
8.98407e-05
8.98407e-05
9.66244e-05
9.66244e-05
0.000103957
0.000103957
0.000111885
0.000111885
0.000120459
0.000120459
0.000129734
0.000129734
0.000139768
0.000139768
0.000150624
0.000150624
0.000162372
0.000162372
0.000175082
0.000175082
0.000188834
0.000188834
0.00020371
0.00020371
0.000219798
0.000219798
0.00023719
0.00023719
0.000255984
0.000255984
0.000276282
0.000276282
0.00029819
0.00029819
0.000321818
0.000321817
0.000347277
0.000347277
0.000374684
0.000374684
0.000404156
0.000404156
0.000435808
0.000435808
0.000469758
0.000469758
0.000506122
0.000506121
0.00054501
0.00054501
0.000586531
0.000586531
0.000630788
0.000630788
0.000677877
0.000677876
0.000727885
0.000727885
0.000780891
0.000780891
0.000836964
0.000836964
0.00089616
0.00089616
0.000958523
0.000958523
0.00102408
0.00102408
0.00109286
0.00109286
0.00116486
0.00116485
0.00124005
0.00124005
0.00131843
0.00131843
0.00139993
0.00139993
0.00148451
0.00148451
0.00157209
0.00157209
0.00166258
0.00166258
0.00175587
0.00175587
0.00185186
0.00185186
0.0019504
0.0019504
0.00205136
0.00205136
0.00215457
0.00215457
0.00225989
0.00225989
0.00236713
0.00236712
0.0024761
0.0024761
0.00258663
0.00258663
0.00269851
0.00269851
0.00281155
0.00281155
0.00292553
0.00292553
0.00304026
0.00304026
0.00315552
0.00315552
0.0032711
0.0032711
0.0033868
0.0033868
0.00350241
0.00350241
0.00361771
0.00361771
0.00373252
0.00373252
0.00384663
0.00384663
0.00395985
0.00395985
0.00407199
0.00407199
0.00418287
0.00418287
0.00429231
0.00429231
0.00440014
0.00440014
0.00450621
0.00450621
0.00461036
0.00461036
0.00471245
0.00471245
0.00481233
0.00481233
0.00490988
0.00490988
0.00500497
0.00500497
0.0050975
0.0050975
0.00518736
0.00518736
0.00527446
0.00527446
0.00535871
0.00535871
0.00544003
0.00544003
0.00551836
0.00551836
0.00559363
0.00559363
0.0056658
0.0056658
0.00573482
0.00573482
0.00580067
0.00580067
0.00586331
0.00586331
0.00592274
0.00592274
0.00597895
0.00597895
0.00603194
0.00603194
0.00608173
0.00608173
0.00612834
0.00612834
0.0061718
0.0061718
0.00621216
0.00621216
0.00624947
0.00624947
0.00628379
0.00628379
0.00631519
0.00631519
0.00634375
0.00634375
0.00636955
0.00636955
0.00639269
0.00639269
0.00641327
0.00641327
0.00643139
0.00643139
0.00644716
0.00644716
0.00646068
0.00646068
0.00647206
0.00647206
0.00648139
0.00648139
0.00648877
0.00648877
0.00649425
0.00649425
0.0064979
0.0064979
0.00649973
0.00649973
0.00649973
0.00649973
0.00649791
0.00649791
0.00649427
0.00649427
0.00648879
0.00648879
0.00648142
0.00648142
0.00647209
0.00647209
0.00646072
0.00646072
0.0064472
0.0064472
0.00643144
0.00643144
0.00641333
0.00641333
0.00639276
0.00639276
0.00636962
0.00636962
0.00634383
0.00634383
0.00631528
0.00631527
0.00628388
0.00628388
0.00624957
0.00624957
0.00621227
0.00621227
0.00617191
0.00617191
0.00612845
0.00612845
0.00608185
0.00608185
0.00603206
0.00603206
0.00597908
0.00597908
0.00592288
0.00592288
0.00586345
0.00586345
0.00580082
0.00580082
0.00573498
0.00573498
0.00566596
0.00566596
0.00559379
0.00559379
0.00551853
0.00551852
0.0054402
0.0054402
0.00535889
0.00535889
0.00527464
0.00527464
0.00518755
0.00518755
0.00509769
0.00509769
0.00500517
0.00500516
0.00491007
0.00491007
0.00481253
0.00481253
0.00471265
0.00471265
0.00461057
0.00461057
0.00450642
0.00450642
0.00440035
0.00440035
0.00429252
0.00429252
0.00418308
0.00418308
0.0040722
0.0040722
0.00396006
0.00396006
0.00384685
0.00384685
0.00373274
0.00373274
0.00361793
0.00361793
0.00350262
0.00350262
0.00338701
0.00338701
0.00327131
0.00327131
0.00315573
0.00315573
0.00304047
0.00304046
0.00292574
0.00292574
0.00281175
0.00281175
0.00269871
0.00269871
0.00258682
0.00258682
0.00247629
0.00247629
0.00236731
0.00236731
0.00226007
0.00226007
0.00215475
0.00215475
0.00205153
0.00205153
0.00195056
0.00195056
0.00185202
0.00185202
0.00175603
0.00175603
0.00166273
0.00166273
0.00157223
0.00157223
0.00148465
0.00148465
0.00140006
0.00140006
0.00131855
0.00131855
0.00124017
0.00124017
0.00116496
0.00116496
0.00109296
0.00109296
0.00102418
0.00102418
0.000958614
0.000958614
0.000896245
0.000896245
0.000837043
0.000837043
0.000780965
0.000780965
0.000727953
0.000727953
0.00067794
0.00067794
0.000630847
0.000630846
0.000586585
0.000586585
0.000545059
0.000545059
0.000506167
0.000506167
0.0004698
0.0004698
0.000435846
0.000435846
0.00040419
0.00040419
0.000374716
0.000374716
0.000347306
0.000347306
0.000321844
0.000321844
0.000298214
0.000298214
0.000276304
0.000276304
0.000256004
0.000256004
0.000237208
0.000237208
0.000219814
0.000219814
0.000203725
0.000203725
0.000188848
0.000188847
0.000175094
0.000175094
0.000162382
0.000162382
0.000150634
0.000150634
0.000139777
0.000139777
0.000129742
0.000129742
0.000120467
0.000120467
0.000111892
0.000111892
0.000103963
0.000103963
9.66298e-05
9.66298e-05
8.98456e-05
8.98456e-05
8.35673e-05
8.35673e-05
7.77553e-05
7.77553e-05
7.23731e-05
7.23731e-05
6.73871e-05
6.73871e-05
6.27664e-05
6.27664e-05
5.84825e-05
5.84825e-05
5.45094e-05
5.45094e-05
5.08231e-05
5.08231e-05
4.74016e-05
4.74016e-05
4.42246e-05
4.42246e-05
4.12734e-05
4.12734e-05
3.85311e-05
3.85311e-05
3.59818e-05
3.59818e-05
3.36111e-05
3.36111e-05
3.14057e-05
3.14057e-05
2.93534e-05
2.93534e-05
2.74428e-05
2.74428e-05
2.56636e-05
2.56636e-05
2.40062e-05
2.40062e-05
2.24617e-05
2.24617e-05
2.10221e-05
2.10221e-05
1.96798e-05
1.96798e-05
1.84278e-05
1.84278e-05
1.72597e-05
1.72597e-05
1.61696e-05
1.61696e-05
1.5152e-05
1.5152e-05
1.42018e-05
1.42018e-05
1.33144e-05
1.33144e-05
1.24853e-05
1.24853e-05
1.17106e-05
1.17106e-05
1.09864e-05
1.09864e-05
1.03093e-05
1.03093e-05
9.67617e-06
9.67617e-06
9.08391e-06
9.08391e-06
8.52977e-06
8.52977e-06
8.01118e-06
8.01118e-06
7.52575e-06
7.52575e-06
7.07125e-06
7.07125e-06
6.6456e-06
6.6456e-06
6.24689e-06
6.24689e-06
5.87331e-06
5.87331e-06
5.52321e-06
5.52321e-06
5.19503e-06
5.19503e-06
4.88733e-06
4.88733e-06
4.59877e-06
4.59877e-06
4.32808e-06
4.32808e-06
4.0741e-06
4.0741e-06
3.83575e-06
3.83575e-06
3.61201e-06
3.61201e-06
3.40193e-06
3.40193e-06
3.20464e-06
3.20464e-06
3.01931e-06
3.01931e-06
2.84517e-06
2.84517e-06
2.68151e-06
2.68151e-06
2.52766e-06
2.52766e-06
2.383e-06
2.383e-06
2.24695e-06
2.24695e-06
2.11896e-06
2.11896e-06
1.99853e-06
1.99853e-06
1.88518e-06
1.88518e-06
1.77847e-06
1.77847e-06
1.67799e-06
1.67799e-06
1.58336e-06
1.58336e-06
1.4942e-06
1.4942e-06
1.41019e-06
1.41019e-06
1.33101e-06
1.33101e-06
1.25636e-06
1.25636e-06
1.18597e-06
1.18597e-06
1.11959e-06
1.11959e-06
1.05696e-06
1.05696e-06
9.97868e-07
9.97868e-07
9.421e-07
9.421e-07
8.89457e-07
8.89457e-07
8.39755e-07
8.39755e-07
7.92821e-07
7.92821e-07
7.48492e-07
7.48492e-07
7.06616e-07
7.06616e-07
6.6705e-07
6.6705e-07
6.29662e-07
6.29662e-07
5.94325e-07
5.94325e-07
5.60922e-07
5.60922e-07
5.29344e-07
5.29344e-07
4.99487e-07
4.99487e-07
4.71253e-07
4.71253e-07
4.44552e-07
4.44552e-07
4.19298e-07
4.19298e-07
3.95411e-07
3.95411e-07
3.72816e-07
3.72816e-07
3.51441e-07
3.51441e-07
3.31219e-07
3.31219e-07
3.12089e-07
3.12089e-07
2.9399e-07
2.9399e-07
2.76868e-07
2.76868e-07
2.60669e-07
2.60669e-07
2.45346e-07
2.45346e-07
2.3085e-07
2.3085e-07
2.17139e-07
2.17139e-07
2.04171e-07
2.04171e-07
1.91907e-07
1.91907e-07
1.8031e-07
1.8031e-07
1.69346e-07
1.69346e-07
1.58982e-07
1.58982e-07
1.49187e-07
1.49187e-07
1.39931e-07
1.39931e-07
1.31186e-07
1.31186e-07
1.22928e-07
1.22928e-07
1.15129e-07
1.15129e-07
1.07768e-07
1.07768e-07
1.00821e-07
1.00821e-07
9.4268e-08
9.4268e-08
8.80883e-08
8.80883e-08
8.2263e-08
8.2263e-08
7.67739e-08
7.67739e-08
7.16039e-08
7.16039e-08
6.67367e-08
6.67367e-08
6.21567e-08
6.21567e-08
5.78491e-08
5.78491e-08
5.38e-08
5.38e-08
4.99958e-08
4.99958e-08
4.64239e-08
4.64239e-08
4.30721e-08
4.30721e-08
3.99289e-08
3.99289e-08
3.69832e-08
3.69832e-08
3.42246e-08
3.42246e-08
3.1643e-08
3.1643e-08
2.92288e-08
2.92288e-08
2.69731e-08
2.69731e-08
2.48669e-08
2.48669e-08
2.29022e-08
2.29022e-08
2.10709e-08
2.10709e-08
1.93656e-08
1.93656e-08
1.7779e-08
1.7779e-08
1.63042e-08
1.63042e-08
1.49348e-08
1.49348e-08
1.36644e-08
1.36644e-08
1.24872e-08
1.24872e-08
1.13975e-08
1.13975e-08
1.03899e-08
1.03899e-08
9.45928e-09
9.45928e-09
8.60074e-09
8.60074e-09
7.80965e-09
7.80965e-09
7.08161e-09
7.08161e-09
6.41245e-09
6.41245e-09
5.7982e-09
5.7982e-09
5.23509e-09
5.23509e-09
4.71958e-09
4.71958e-09
4.24829e-09
4.24829e-09
3.81806e-09
3.81806e-09
3.42587e-09
3.42587e-09
3.0689e-09
3.0689e-09
2.74448e-09
2.74448e-09
2.45011e-09
2.45011e-09
2.18343e-09
2.18343e-09
1.94225e-09
1.94225e-09
1.72448e-09
1.72448e-09
1.52819e-09
1.52819e-09
1.35159e-09
1.35159e-09
1.19297e-09
1.19297e-09
1.05078e-09
1.05078e-09
9.23563e-10
9.23563e-10
8.09958e-10
8.09958e-10
7.08714e-10
7.08714e-10
6.18674e-10
6.18674e-10
5.38767e-10
5.38767e-10
4.68009e-10
4.68009e-10
4.05493e-10
4.05493e-10
3.50387e-10
3.50387e-10
3.0193e-10
3.0193e-10
2.59425e-10
2.59425e-10
2.22237e-10
2.22237e-10
1.89786e-10
1.89786e-10
1.61548e-10
1.61548e-10
1.37046e-10
1.37046e-10
1.15848e-10
1.15848e-10
9.7567e-11
9.7567e-11
8.18517e-11
8.18517e-11
6.83879e-11
6.83879e-11
5.6894e-11
5.6894e-11
4.71183e-11
4.71183e-11
3.88365e-11
3.88365e-11
3.18492e-11
3.18492e-11
2.59798e-11
2.59798e-11
2.10722e-11
2.10722e-11
1.69888e-11
1.69888e-11
1.36089e-11
1.36089e-11
1.08269e-11
1.08269e-11
8.55051e-12
8.55051e-12
6.69981e-12
6.69981e-12
5.20549e-12
5.20549e-12
4.00787e-12
4.00787e-12
3.05576e-12
3.05576e-12
2.30545e-12
2.30545e-12
1.71983e-12
1.71983e-12
1.26756e-12
1.26756e-12
9.22326e-13
9.22326e-13
6.62207e-13
6.62207e-13
4.69054e-13
4.69054e-13
3.27971e-13
3.27971e-13
2.26846e-13
2.26846e-13
1.55929e-13
1.55929e-13
1.07464e-13
1.07464e-13
7.53664e-14
7.53664e-14
5.49379e-14
5.49379e-14
4.26197e-14
4.26197e-14
3.57801e-14
3.57801e-14
3.25329e-14
3.25329e-14
3.15849e-14
3.15849e-14
3.21125e-14
3.21125e-14
3.36694e-14
3.36694e-14
3.61343e-14
3.61343e-14
3.97201e-14
3.97201e-14
4.50766e-14
4.50766e-14
5.33981e-14
5.33981e-14
0.00649973
0.00649973
0.00649791
0.00649791
0.00649427
0.00649427
0.00648879
0.00648879
0.00648142
0.00648142
0.00647209
0.00647209
0.00646072
0.00646072
0.0064472
0.0064472
0.00643144
0.00643144
0.00641333
0.00641332
0.00639275
0.00639275
0.00636962
0.00636962
0.00634382
0.00634382
0.00631527
0.00631527
0.00628388
0.00628388
0.00624957
0.00624957
0.00621226
0.00621226
0.00617191
0.00617191
0.00612845
0.00612845
0.00608185
0.00608185
0.00603206
0.00603206
0.00597908
0.00597908
0.00592287
0.00592287
0.00586345
0.00586345
0.00580081
0.00580081
0.00573497
0.00573497
0.00566596
0.00566596
0.00559379
0.00559379
0.00551852
0.00551852
0.0054402
0.0054402
0.00535888
0.00535888
0.00527464
0.00527464
0.00518755
0.00518755
0.00509769
0.00509769
0.00500516
0.00500516
0.00491007
0.00491007
0.00481253
0.00481253
0.00471265
0.00471265
0.00461057
0.00461057
0.00450642
0.00450642
0.00440035
0.00440035
0.00429252
0.00429252
0.00418308
0.00418308
0.0040722
0.0040722
0.00396006
0.00396006
0.00384684
0.00384684
0.00373274
0.00373273
0.00361793
0.00361793
0.00350262
0.00350262
0.00338701
0.00338701
0.00327131
0.00327131
0.00315573
0.00315573
0.00304046
0.00304046
0.00292573
0.00292573
0.00281175
0.00281175
0.00269871
0.00269871
0.00258682
0.00258682
0.00247629
0.00247629
0.00236731
0.00236731
0.00226007
0.00226007
0.00215475
0.00215475
0.00205153
0.00205152
0.00195056
0.00195056
0.00185202
0.00185202
0.00175603
0.00175603
0.00166273
0.00166273
0.00157223
0.00157223
0.00148465
0.00148465
0.00140006
0.00140006
0.00131855
0.00131855
0.00124017
0.00124017
0.00116496
0.00116496
0.00109296
0.00109296
0.00102418
0.00102418
0.000958614
0.000958613
0.000896245
0.000896244
0.000837043
0.000837043
0.000780965
0.000780964
0.000727953
0.000727953
0.00067794
0.000677939
0.000630846
0.000630846
0.000586585
0.000586584
0.000545059
0.000545059
0.000506167
0.000506167
0.0004698
0.0004698
0.000435846
0.000435846
0.00040419
0.00040419
0.000374716
0.000374716
0.000347306
0.000347306
0.000321844
0.000321843
0.000298214
0.000298214
0.000276304
0.000276304
0.000256004
0.000256004
0.000237208
0.000237208
0.000219814
0.000219814
0.000203725
0.000203725
0.000188847
0.000188847
0.000175094
0.000175094
0.000162382
0.000162382
0.000150634
0.000150634
0.000139777
0.000139777
0.000129742
0.000129742
0.000120467
0.000120466
0.000111892
0.000111892
0.000103963
0.000103963
9.66298e-05
9.66298e-05
8.98456e-05
8.98456e-05
8.35673e-05
8.35673e-05
7.77553e-05
7.77553e-05
7.23731e-05
7.23731e-05
6.73871e-05
6.73871e-05
6.27664e-05
6.27664e-05
5.84825e-05
5.84825e-05
5.45094e-05
5.45094e-05
5.08231e-05
5.08231e-05
4.74016e-05
4.74016e-05
4.42246e-05
4.42245e-05
4.12734e-05
4.12734e-05
3.85311e-05
3.85311e-05
3.59818e-05
3.59818e-05
3.36111e-05
3.36111e-05
3.14057e-05
3.14057e-05
2.93534e-05
2.93534e-05
2.74428e-05
2.74428e-05
2.56636e-05
2.56636e-05
2.40062e-05
2.40062e-05
2.24617e-05
2.24617e-05
2.10221e-05
2.10221e-05
1.96798e-05
1.96798e-05
1.84278e-05
1.84278e-05
1.72597e-05
1.72597e-05
1.61696e-05
1.61696e-05
1.5152e-05
1.5152e-05
1.42018e-05
1.42018e-05
1.33144e-05
1.33144e-05
1.24853e-05
1.24853e-05
1.17106e-05
1.17106e-05
1.09864e-05
1.09864e-05
1.03093e-05
1.03093e-05
9.67617e-06
9.67617e-06
9.08391e-06
9.08391e-06
8.52977e-06
8.52977e-06
8.01118e-06
8.01118e-06
7.52575e-06
7.52575e-06
7.07125e-06
7.07125e-06
6.6456e-06
6.6456e-06
6.24689e-06
6.24689e-06
5.87331e-06
5.87331e-06
5.52321e-06
5.52321e-06
5.19503e-06
5.19503e-06
4.88733e-06
4.88733e-06
4.59877e-06
4.59877e-06
4.32808e-06
4.32808e-06
4.0741e-06
4.0741e-06
3.83575e-06
3.83575e-06
3.61201e-06
3.61201e-06
3.40193e-06
3.40193e-06
3.20464e-06
3.20464e-06
3.01931e-06
3.01931e-06
2.84517e-06
2.84517e-06
2.68151e-06
2.68151e-06
2.52766e-06
2.52766e-06
2.383e-06
2.383e-06
2.24695e-06
2.24695e-06
2.11896e-06
2.11896e-06
1.99853e-06
1.99853e-06
1.88518e-06
1.88518e-06
1.77847e-06
1.77847e-06
1.67799e-06
1.67799e-06
1.58336e-06
1.58336e-06
1.4942e-06
1.4942e-06
1.41019e-06
1.41019e-06
1.33101e-06
1.33101e-06
1.25636e-06
1.25636e-06
1.18597e-06
1.18597e-06
1.11959e-06
1.11959e-06
1.05696e-06
1.05696e-06
9.97868e-07
9.97868e-07
9.421e-07
9.421e-07
8.89457e-07
8.89457e-07
8.39755e-07
8.39755e-07
7.92821e-07
7.92821e-07
7.48492e-07
7.48492e-07
7.06616e-07
7.06616e-07
6.6705e-07
6.6705e-07
6.29662e-07
6.29662e-07
5.94325e-07
5.94325e-07
5.60922e-07
5.60922e-07
5.29344e-07
5.29344e-07
4.99487e-07
4.99487e-07
4.71253e-07
4.71253e-07
4.44552e-07
4.44552e-07
4.19298e-07
4.19298e-07
3.95411e-07
3.95411e-07
3.72816e-07
3.72816e-07
3.51441e-07
3.51441e-07
3.31219e-07
3.31219e-07
3.12089e-07
3.12089e-07
2.9399e-07
2.9399e-07
2.76868e-07
2.76868e-07
2.60669e-07
2.60669e-07
2.45346e-07
2.45346e-07
2.3085e-07
2.3085e-07
2.17139e-07
2.17139e-07
2.04171e-07
2.04171e-07
1.91907e-07
1.91907e-07
1.8031e-07
1.8031e-07
1.69346e-07
1.69346e-07
1.58982e-07
1.58982e-07
1.49187e-07
1.49187e-07
1.39931e-07
1.39931e-07
1.31186e-07
1.31186e-07
1.22928e-07
1.22928e-07
1.15129e-07
1.15129e-07
1.07768e-07
1.07768e-07
1.00821e-07
1.00821e-07
9.4268e-08
9.4268e-08
8.80883e-08
8.80883e-08
8.2263e-08
8.2263e-08
7.67739e-08
7.67739e-08
7.16039e-08
7.16039e-08
6.67367e-08
6.67367e-08
6.21567e-08
6.21567e-08
5.78491e-08
5.78491e-08
5.38e-08
5.38e-08
4.99958e-08
4.99958e-08
4.64239e-08
4.64239e-08
4.30721e-08
4.30721e-08
3.99289e-08
3.99289e-08
3.69832e-08
3.69832e-08
3.42246e-08
3.42246e-08
3.1643e-08
3.1643e-08
2.92288e-08
2.92288e-08
2.69731e-08
2.69731e-08
2.48669e-08
2.48669e-08
2.29022e-08
2.29022e-08
2.10709e-08
2.10709e-08
1.93656e-08
1.93656e-08
1.7779e-08
1.7779e-08
1.63042e-08
1.63042e-08
1.49348e-08
1.49348e-08
1.36644e-08
1.36644e-08
1.24872e-08
1.24872e-08
1.13975e-08
1.13975e-08
1.03899e-08
1.03899e-08
9.45928e-09
9.45928e-09
8.60074e-09
8.60074e-09
7.80965e-09
7.80965e-09
7.08161e-09
7.08161e-09
6.41245e-09
6.41245e-09
5.7982e-09
5.7982e-09
5.23509e-09
5.23509e-09
4.71958e-09
4.71958e-09
4.24829e-09
4.24829e-09
3.81806e-09
3.81806e-09
3.42587e-09
3.42587e-09
3.0689e-09
3.0689e-09
2.74448e-09
2.74448e-09
2.45011e-09
2.45011e-09
2.18343e-09
2.18343e-09
1.94225e-09
1.94225e-09
1.72448e-09
1.72448e-09
1.52819e-09
1.52819e-09
1.35159e-09
1.35159e-09
1.19297e-09
1.19297e-09
1.05078e-09
1.05078e-09
9.23563e-10
9.23563e-10
8.09958e-10
8.09958e-10
7.08714e-10
7.08714e-10
6.18674e-10
6.18674e-10
5.38767e-10
5.38767e-10
4.68009e-10
4.68009e-10
4.05493e-10
4.05493e-10
3.50387e-10
3.50387e-10
3.0193e-10
3.0193e-10
2.59425e-10
2.59425e-10
2.22237e-10
2.22237e-10
1.89786e-10
1.89786e-10
1.61548e-10
1.61548e-10
1.37046e-10
1.37046e-10
1.15848e-10
1.15848e-10
9.7567e-11
9.7567e-11
8.18517e-11
8.18517e-11
6.83879e-11
6.83879e-11
5.6894e-11
5.6894e-11
4.71183e-11
4.71183e-11
3.88365e-11
3.88365e-11
3.18492e-11
3.18492e-11
2.59798e-11