/*--------------------------------*- C++ -*----------------------------------*\
| =========                 |                                                 |
| \\      /  F ield         | OpenFOAM: The Open Source CFD Toolbox           |
|  \\    /   O peration     | Version:  2106                                  |
|   \\  /    A nd           | Website:  www.openfoam.com                      |
|    \\/     M anipulation  |                                                 |
\*---------------------------------------------------------------------------*/
FoamFile
{
    version     2.0;
    format      ascii;
    arch        "LSB;label=32;scalar=64";
    class       volVectorField;
    location    "5000";
    object      U;
}
// * * * * * * * * * * * * * * * * * * * * * * * * * * * * * * * * * * * * * //

dimensions      [0 1 -1 0 0 0 0];

internalField   nonuniform List<vector> 
2560
(
(0.0175657 -8.88407e-16 -7.95179e-18)
(0.0175657 8.19157e-19 2.70715e-32)
(0.0529498 -2.43186e-15 2.67632e-16)
(0.0529498 -1.92127e-18 3.29402e-20)
(0.0888382 -2.47387e-15 2.75178e-16)
(0.0888382 5.87097e-20 1.20972e-20)
(0.125189 -2.296e-15 2.82547e-16)
(0.125189 8.02725e-19 6.62085e-21)
(0.161826 -2.25364e-15 2.87513e-16)
(0.161826 1.37672e-18 -9.2754e-22)
(0.198297 -2.28231e-15 2.87532e-16)
(0.198297 2.04938e-18 -1.03116e-20)
(0.233818 -2.29543e-15 2.80436e-16)
(0.233818 2.73327e-18 -1.9424e-20)
(0.267451 -2.30101e-15 2.66111e-16)
(0.267451 3.44463e-18 -2.76906e-20)
(0.298444 -2.30409e-15 2.46843e-16)
(0.298444 4.10022e-18 -3.56327e-20)
(0.326455 -2.30829e-15 2.25797e-16)
(0.326455 4.5156e-18 -4.16114e-20)
(0.351521 -2.31189e-15 2.05436e-16)
(0.351521 4.98543e-18 -4.63932e-20)
(0.373902 -2.31507e-15 1.87052e-16)
(0.373902 5.50118e-18 -5.23079e-20)
(0.393936 -2.31788e-15 1.71056e-16)
(0.393936 5.92661e-18 -5.73216e-20)
(0.411961 -2.32019e-15 1.57388e-16)
(0.411961 6.37941e-18 -6.28236e-20)
(0.428279 -2.32222e-15 1.45796e-16)
(0.428279 6.71264e-18 -6.6574e-20)
(0.443148 -2.32418e-15 1.35979e-16)
(0.443148 6.93454e-18 -7.07925e-20)
(0.456781 -2.32571e-15 1.27654e-16)
(0.456781 6.88099e-18 -7.13906e-20)
(0.469354 -2.32717e-15 1.20574e-16)
(0.469354 6.9354e-18 -7.41955e-20)
(0.481015 -2.32932e-15 1.14533e-16)
(0.481015 7.6826e-18 -8.18155e-20)
(0.491883 -2.33103e-15 1.0936e-16)
(0.491883 7.89011e-18 -9.12427e-20)
(0.502058 -2.33235e-15 1.04919e-16)
(0.502058 7.66607e-18 -9.49862e-20)
(0.511624 -2.33383e-15 1.01099e-16)
(0.511624 7.76244e-18 -9.7121e-20)
(0.520651 -2.33564e-15 9.7809e-17)
(0.520651 7.90936e-18 -9.99596e-20)
(0.529198 -2.33746e-15 9.4972e-17)
(0.529198 8.03678e-18 -1.02451e-19)
(0.537317 -2.33864e-15 9.25281e-17)
(0.537317 8.29584e-18 -1.06776e-19)
(0.54505 -2.33999e-15 9.04262e-17)
(0.54505 8.3656e-18 -1.11899e-19)
(0.552435 -2.34137e-15 8.86255e-17)
(0.552435 8.61899e-18 -1.15372e-19)
(0.559505 -2.34285e-15 8.70884e-17)
(0.559505 9.06299e-18 -1.20208e-19)
(0.566288 -2.34429e-15 8.57853e-17)
(0.566288 9.64896e-18 -1.25062e-19)
(0.572809 -2.34552e-15 8.46921e-17)
(0.572809 1.0136e-17 -1.40149e-19)
(0.579089 -2.34671e-15 8.37884e-17)
(0.579089 1.04208e-17 -1.54378e-19)
(0.585147 -2.34724e-15 8.30564e-17)
(0.585147 1.00109e-17 -1.67969e-19)
(0.591002 -2.34749e-15 8.24815e-17)
(0.591002 9.41191e-18 -1.6773e-19)
(0.596668 -2.34801e-15 8.2049e-17)
(0.596668 9.09963e-18 -1.72901e-19)
(0.602159 -2.34879e-15 8.1749e-17)
(0.602159 8.90188e-18 -1.76811e-19)
(0.607486 -2.34924e-15 8.15716e-17)
(0.607486 8.53131e-18 -1.8578e-19)
(0.612662 -2.34955e-15 8.15097e-17)
(0.612662 7.93043e-18 -1.92577e-19)
(0.617696 -2.35014e-15 8.15541e-17)
(0.617696 7.76302e-18 -2.00694e-19)
(0.622598 -2.35129e-15 8.16982e-17)
(0.622598 7.71648e-18 -2.08879e-19)
(0.627374 -2.35227e-15 8.19353e-17)
(0.627374 8.03353e-18 -2.25944e-19)
(0.632033 -2.35291e-15 8.22617e-17)
(0.632033 8.36034e-18 -2.53013e-19)
(0.636582 -2.35411e-15 8.2672e-17)
(0.636582 8.9675e-18 -2.78546e-19)
(0.641027 -2.35571e-15 8.31597e-17)
(0.641027 9.30162e-18 -3.09618e-19)
(0.645374 -2.35704e-15 8.37203e-17)
(0.645374 9.36475e-18 -3.45693e-19)
(0.649627 -2.35841e-15 8.43541e-17)
(0.649627 9.51548e-18 -3.79672e-19)
(0.653793 -2.35941e-15 8.5054e-17)
(0.653793 9.37467e-18 -4.09902e-19)
(0.657874 -2.3604e-15 8.58211e-17)
(0.657874 1.00431e-17 -4.33203e-19)
(0.661876 -2.36218e-15 8.66498e-17)
(0.661876 1.03359e-17 -4.75292e-19)
(0.665803 -2.36342e-15 8.75408e-17)
(0.665803 9.92895e-18 -5.01984e-19)
(0.669657 -2.36471e-15 8.84965e-17)
(0.669657 1.03447e-17 -5.34648e-19)
(0.673442 -2.36621e-15 8.95131e-17)
(0.673442 1.11629e-17 -5.67955e-19)
(0.677162 -2.36743e-15 9.05946e-17)
(0.677162 1.09225e-17 -5.95353e-19)
(0.680819 -2.36846e-15 9.17357e-17)
(0.680819 1.116e-17 -6.09984e-19)
(0.684415 -2.36899e-15 9.2939e-17)
(0.684415 1.1016e-17 -6.35525e-19)
(0.687954 -2.3698e-15 9.4204e-17)
(0.687954 1.01636e-17 -6.33353e-19)
(0.691438 -2.37052e-15 9.55279e-17)
(0.691438 1.02722e-17 -6.45332e-19)
(0.694868 -2.37096e-15 9.69117e-17)
(0.694868 9.84391e-18 -6.51101e-19)
(0.698248 -2.37184e-15 9.83549e-17)
(0.698248 9.11566e-18 -6.70768e-19)
(0.701578 -2.37223e-15 9.98585e-17)
(0.701578 8.49391e-18 -6.87837e-19)
(0.704861 -2.3722e-15 1.01421e-16)
(0.704861 7.4562e-18 -6.9297e-19)
(0.708099 -2.37262e-15 1.03046e-16)
(0.708099 6.53308e-18 -7.07024e-19)
(0.711293 -2.373e-15 1.0473e-16)
(0.711293 6.09675e-18 -7.15246e-19)
(0.714444 -2.37305e-15 1.06477e-16)
(0.714444 4.7339e-18 -7.40359e-19)
(0.717554 -2.37324e-15 1.08288e-16)
(0.717554 4.63774e-18 -7.73337e-19)
(0.720625 -2.3736e-15 1.10163e-16)
(0.720625 4.12435e-18 -7.90902e-19)
(0.723658 -2.37324e-15 1.12101e-16)
(0.723658 2.8081e-18 -8.21276e-19)
(0.726653 -2.37266e-15 1.14111e-16)
(0.726653 1.96321e-18 -8.40704e-19)
(0.729613 -2.3726e-15 1.16185e-16)
(0.729613 6.17055e-19 -8.64052e-19)
(0.732537 -2.37245e-15 1.18327e-16)
(0.732537 -4.73035e-19 -8.87332e-19)
(0.735428 -2.37182e-15 1.20529e-16)
(0.735428 -1.80037e-18 -8.9351e-19)
(0.738286 -2.37041e-15 1.22801e-16)
(0.738286 -3.29178e-18 -9.05489e-19)
(0.741113 -2.36975e-15 1.25144e-16)
(0.741113 -5.04008e-18 -9.34363e-19)
(0.743908 -2.36938e-15 1.27555e-16)
(0.743908 -6.57098e-18 -9.70922e-19)
(0.746674 -2.3682e-15 1.30039e-16)
(0.746674 -7.2725e-18 -9.89594e-19)
(0.74941 -2.36713e-15 1.32606e-16)
(0.74941 -8.06057e-18 -1.03061e-18)
(0.752117 -2.36608e-15 1.35248e-16)
(0.752117 -1.01765e-17 -1.07868e-18)
(0.754797 -2.36516e-15 1.37969e-16)
(0.754797 -1.21342e-17 -1.1036e-18)
(0.75745 -2.36396e-15 1.40765e-16)
(0.75745 -1.42422e-17 -1.15188e-18)
(0.760077 -2.36369e-15 1.43639e-16)
(0.760077 -1.62728e-17 -1.17621e-18)
(0.762677 -2.36313e-15 1.46592e-16)
(0.762677 -1.70931e-17 -1.23426e-18)
(0.765253 -2.36087e-15 1.48965e-16)
(0.765253 -1.9175e-17 -1.2927e-18)
(0.767804 -2.35926e-15 1.51066e-16)
(0.767804 -2.32012e-17 -1.33883e-18)
(0.770331 -2.3582e-15 1.53285e-16)
(0.770331 -2.52921e-17 -1.3951e-18)
(0.772835 -2.35618e-15 1.55569e-16)
(0.772835 -2.674e-17 -1.43849e-18)
(0.775316 -2.35341e-15 1.57864e-16)
(0.775316 -3.07996e-17 -1.48948e-18)
(0.777774 -2.35141e-15 1.60278e-16)
(0.777774 -3.22023e-17 -1.54831e-18)
(0.78021 -2.35103e-15 1.62673e-16)
(0.78021 -3.29438e-17 -1.67771e-18)
(0.782625 -2.35069e-15 1.65128e-16)
(0.782625 -3.46363e-17 -1.81738e-18)
(0.785019 -2.3503e-15 1.67626e-16)
(0.785019 -3.43884e-17 -1.92578e-18)
(0.787392 -2.3499e-15 1.70256e-16)
(0.787392 -3.49736e-17 -2.04397e-18)
(0.789745 -2.34874e-15 1.72942e-16)
(0.789745 -3.69302e-17 -2.18093e-18)
(0.792079 -2.3472e-15 1.7575e-16)
(0.792079 -3.81641e-17 -2.29946e-18)
(0.794392 -2.34526e-15 1.78525e-16)
(0.794392 -3.90531e-17 -2.41346e-18)
(0.796687 -2.34345e-15 1.81386e-16)
(0.796687 -4.05552e-17 -2.5557e-18)
(0.798963 -2.34251e-15 1.84364e-16)
(0.798963 -4.28699e-17 -2.71819e-18)
(0.80122 -2.3407e-15 1.87353e-16)
(0.80122 -4.51834e-17 -2.86464e-18)
(0.803459 -2.33786e-15 1.90494e-16)
(0.803459 -4.64112e-17 -2.96598e-18)
(0.805681 -2.33583e-15 1.93779e-16)
(0.805681 -4.85375e-17 -3.08705e-18)
(0.807884 -2.3348e-15 1.96917e-16)
(0.807884 -5.07028e-17 -3.25768e-18)
(0.810071 -2.33454e-15 2.00204e-16)
(0.810071 -5.21386e-17 -3.45054e-18)
(0.812241 -2.33359e-15 2.0359e-16)
(0.812241 -5.30627e-17 -3.58336e-18)
(0.814394 -2.3309e-15 2.07289e-16)
(0.814394 -5.55434e-17 -3.70748e-18)
(0.81653 -2.32804e-15 2.10799e-16)
(0.81653 -5.90896e-17 -3.83267e-18)
(0.818651 -2.32618e-15 2.14442e-16)
(0.818651 -6.10171e-17 -3.86521e-18)
(0.820755 -2.32449e-15 2.18372e-16)
(0.820755 -6.50905e-17 -3.90656e-18)
(0.822844 -2.32233e-15 2.22331e-16)
(0.822844 -6.87341e-17 -3.99294e-18)
(0.824917 -2.31822e-15 2.26383e-16)
(0.824917 -7.22351e-17 -4.02094e-18)
(0.826975 -2.31426e-15 2.30542e-16)
(0.826975 -7.83753e-17 -4.06902e-18)
(0.829018 -2.31041e-15 2.34823e-16)
(0.829018 -8.33016e-17 -4.12665e-18)
(0.831046 -2.30484e-15 2.39272e-16)
(0.831046 -8.74255e-17 -4.12234e-18)
(0.833059 -2.30048e-15 2.43785e-16)
(0.833059 -9.2367e-17 -4.14155e-18)
(0.835058 -2.29668e-15 2.48393e-16)
(0.835058 -9.6953e-17 -4.15809e-18)
(0.837042 -2.29287e-15 2.53031e-16)
(0.837042 -1.02811e-16 -4.24289e-18)
(0.839013 -2.28693e-15 2.57866e-16)
(0.839013 -1.08212e-16 -4.29464e-18)
(0.840969 -2.28125e-15 2.62929e-16)
(0.840969 -1.14334e-16 -4.31572e-18)
(0.842912 -2.2734e-15 2.67994e-16)
(0.842912 -1.20381e-16 -4.39166e-18)
(0.844841 -2.27137e-15 2.7339e-16)
(0.844841 -1.23408e-16 -4.5162e-18)
(0.846757 -2.26564e-15 2.78845e-16)
(0.846757 -1.26976e-16 -4.7001e-18)
(0.848659 -2.25884e-15 2.84202e-16)
(0.848659 -1.30962e-16 -4.85938e-18)
(0.850548 -2.25211e-15 2.89848e-16)
(0.850548 -1.39455e-16 -4.99309e-18)
(0.852424 -2.24374e-15 2.95822e-16)
(0.852424 -1.47939e-16 -5.08201e-18)
(0.854288 -2.23426e-15 3.01335e-16)
(0.854288 -1.52766e-16 -5.17844e-18)
(0.856138 -2.22758e-15 3.07341e-16)
(0.856138 -1.57542e-16 -5.36456e-18)
(0.857976 -2.21982e-15 3.13687e-16)
(0.857976 -1.64498e-16 -5.48677e-18)
(0.859802 -2.2108e-15 3.20007e-16)
(0.859802 -1.70956e-16 -5.57014e-18)
(0.861615 -2.2048e-15 3.26358e-16)
(0.861615 -1.75876e-16 -5.63225e-18)
(0.863416 -2.20132e-15 3.32974e-16)
(0.863416 -1.78561e-16 -5.78808e-18)
(0.865205 -2.19791e-15 3.40031e-16)
(0.865205 -1.80056e-16 -6.1897e-18)
(0.866982 -2.19261e-15 3.47261e-16)
(0.866982 -1.85291e-16 -6.36885e-18)
(0.868747 -2.1862e-15 3.54243e-16)
(0.868747 -1.88481e-16 -6.61985e-18)
(0.8705 -2.18e-15 3.61645e-16)
(0.8705 -1.90954e-16 -6.78116e-18)
(0.872242 -2.17419e-15 3.68836e-16)
(0.872242 -1.97494e-16 -6.83894e-18)
(0.873972 -2.16824e-15 3.76669e-16)
(0.873972 -2.04241e-16 -6.7353e-18)
(0.87569 -2.16206e-15 3.84593e-16)
(0.87569 -2.0654e-16 -6.93535e-18)
(0.877398 -2.15609e-15 3.92166e-16)
(0.877398 -2.09066e-16 -6.83182e-18)
(0.879094 -2.14994e-15 4.00385e-16)
(0.879094 -2.14181e-16 -6.82022e-18)
(0.880779 -2.14434e-15 4.08824e-16)
(0.880779 -2.21033e-16 -6.8369e-18)
(0.882453 -2.13846e-15 4.17178e-16)
(0.882453 -2.26203e-16 -6.78124e-18)
(0.884116 -2.13123e-15 4.26096e-16)
(0.884116 -2.30977e-16 -6.61473e-18)
(0.885768 -2.12018e-15 4.34927e-16)
(0.885768 -2.38055e-16 -6.61361e-18)
(0.887409 -2.11058e-15 4.43563e-16)
(0.887409 -2.42458e-16 -6.83206e-18)
(0.88904 -2.10425e-15 4.52972e-16)
(0.88904 -2.44337e-16 -6.67796e-18)
(0.89066 -2.09656e-15 4.62657e-16)
(0.89066 -2.52487e-16 -6.72064e-18)
(0.892269 -2.0873e-15 4.72409e-16)
(0.892269 -2.64346e-16 -6.72177e-18)
(0.893868 -2.07804e-15 4.82374e-16)
(0.893868 -2.72562e-16 -6.3266e-18)
(0.895457 -2.06795e-15 4.92635e-16)
(0.895457 -2.84858e-16 -6.20678e-18)
(0.897035 -2.05697e-15 5.03202e-16)
(0.897035 -2.94536e-16 -6.06307e-18)
(0.898603 -2.0475e-15 5.13945e-16)
(0.898603 -2.99684e-16 -6.13107e-18)
(0.900161 -2.03867e-15 5.24774e-16)
(0.900161 -3.05722e-16 -6.41969e-18)
(0.901709 -2.02992e-15 5.28381e-16)
(0.901709 -3.13888e-16 -6.4798e-18)
(0.903247 -2.02057e-15 5.3056e-16)
(0.903247 -3.22214e-16 -6.67085e-18)
(0.904776 -2.01262e-15 5.33208e-16)
(0.904776 -3.25646e-16 -6.73505e-18)
(0.906294 -2.00443e-15 5.35855e-16)
(0.906294 -3.3067e-16 -7.01914e-18)
(0.907802 -1.99453e-15 5.38192e-16)
(0.907802 -3.34893e-16 -7.43406e-18)
(0.909301 -1.98471e-15 5.40223e-16)
(0.909301 -3.38531e-16 -7.8112e-18)
(0.91079 -1.97449e-15 5.4249e-16)
(0.91079 -3.49253e-16 -8.2682e-18)
(0.91227 -1.96401e-15 5.44063e-16)
(0.91227 -3.60475e-16 -8.40444e-18)
(0.91374 -1.95222e-15 5.4619e-16)
(0.91374 -3.70926e-16 -8.1762e-18)
(0.9152 -1.935e-15 5.48101e-16)
(0.9152 -3.89057e-16 -8.12036e-18)
(0.916651 -1.913e-15 5.48858e-16)
(0.916651 -4.08537e-16 -8.21391e-18)
(0.918093 -1.88894e-15 5.49742e-16)
(0.918093 -4.21736e-16 -8.33468e-18)
(0.919526 -1.87201e-15 5.51282e-16)
(0.919526 -4.35376e-16 -8.16278e-18)
(0.920949 -1.86495e-15 5.54078e-16)
(0.920949 -4.47377e-16 -8.368e-18)
(0.922363 -1.86192e-15 5.56172e-16)
(0.922363 -4.54802e-16 -8.80258e-18)
(0.923768 -1.85746e-15 5.57408e-16)
(0.923768 -4.59098e-16 -9.24246e-18)
(0.925164 -1.85296e-15 5.59298e-16)
(0.925164 -4.63848e-16 -9.79258e-18)
(0.926551 -1.84969e-15 5.60082e-16)
(0.926551 -4.7042e-16 -1.01126e-17)
(0.927929 -1.84235e-15 5.60031e-16)
(0.927929 -4.79496e-16 -5.90393e-18)
(0.929298 -1.83209e-15 5.59935e-16)
(0.929298 -4.86956e-16 3.64582e-19)
(0.930659 -1.82183e-15 5.59004e-16)
(0.930659 -4.91406e-16 6.88586e-18)
(0.93201 -1.81339e-15 5.58484e-16)
(0.93201 -4.99915e-16 1.28773e-17)
(0.933353 -1.80278e-15 5.57917e-16)
(0.933353 -5.08487e-16 1.97162e-17)
(0.934687 -1.79179e-15 5.56098e-16)
(0.934687 -5.16297e-16 2.74533e-17)
(0.936013 -1.77971e-15 5.5508e-16)
(0.936013 -5.26049e-16 3.41906e-17)
(0.93733 -1.76731e-15 5.53432e-16)
(0.93733 -5.37023e-16 4.226e-17)
(0.938638 -1.7591e-15 5.5069e-16)
(0.938638 -5.45143e-16 5.0436e-17)
(0.939938 -1.74661e-15 5.48159e-16)
(0.939938 -5.55763e-16 5.85179e-17)
(0.94123 -1.7318e-15 5.44668e-16)
(0.94123 -5.64078e-16 6.65746e-17)
(0.942513 -1.7172e-15 5.41065e-16)
(0.942513 -5.69396e-16 7.46193e-17)
(0.943788 -1.70198e-15 5.38218e-16)
(0.943788 -5.82747e-16 8.26404e-17)
(0.945054 -1.68678e-15 5.35056e-16)
(0.945054 -5.95329e-16 9.13038e-17)
(0.946313 -1.67385e-15 5.31996e-16)
(0.946313 -6.06268e-16 1.00541e-16)
(0.947563 -1.66044e-15 5.2838e-16)
(0.947563 -6.16783e-16 1.09763e-16)
(0.948804 -1.64528e-15 5.24794e-16)
(0.948804 -6.23248e-16 1.18959e-16)
(0.950038 -1.63239e-15 5.2051e-16)
(0.950038 -6.33954e-16 1.29173e-16)
(0.951264 -1.61607e-15 5.16027e-16)
(0.951264 -6.4689e-16 1.3926e-16)
(0.952481 -1.59903e-15 5.1137e-16)
(0.952481 -6.59067e-16 1.49413e-16)
(0.953691 -1.58698e-15 5.06846e-16)
(0.953691 -6.69962e-16 1.60651e-16)
(0.954893 -1.57668e-15 5.02637e-16)
(0.954893 -6.80611e-16 1.72115e-16)
(0.956086 -1.56836e-15 4.97201e-16)
(0.956086 -6.89657e-16 1.83545e-16)
(0.957272 -1.56045e-15 4.91777e-16)
(0.957272 -6.98135e-16 1.96007e-16)
(0.95845 -1.55289e-15 4.85101e-16)
(0.95845 -7.07918e-16 2.09197e-16)
(0.95962 -1.54181e-15 4.78996e-16)
(0.95962 -7.16303e-16 2.22041e-16)
(0.960782 -1.52914e-15 4.73865e-16)
(0.960782 -7.27785e-16 2.3367e-16)
(0.961937 -1.51545e-15 4.68166e-16)
(0.961937 -7.41806e-16 2.46845e-16)
(0.963084 -1.50151e-15 4.58891e-16)
(0.963084 -7.57785e-16 2.63022e-16)
(0.964223 -1.49145e-15 4.52331e-16)
(0.964223 -7.59547e-16 2.76799e-16)
(0.965354 -1.47897e-15 4.46127e-16)
(0.965354 -7.66697e-16 2.89149e-16)
(0.966478 -1.46796e-15 4.39099e-16)
(0.966478 -7.87421e-16 3.04187e-16)
(0.967594 -1.45647e-15 4.30143e-16)
(0.967594 -7.94084e-16 3.21036e-16)
(0.968703 -1.43645e-15 4.23907e-16)
(0.968703 -8.09559e-16 3.34899e-16)
(0.969804 -1.41324e-15 4.16308e-16)
(0.969804 -8.24547e-16 3.4913e-16)
(0.970897 -1.40475e-15 4.10896e-16)
(0.970897 -8.30275e-16 3.65402e-16)
(0.971983 -1.39192e-15 4.04703e-16)
(0.971983 -8.39258e-16 3.81922e-16)
(0.973062 -1.37298e-15 3.9668e-16)
(0.973062 -8.47052e-16 3.98645e-16)
(0.974133 -1.35705e-15 3.90535e-16)
(0.974133 -8.5372e-16 4.13263e-16)
(0.975197 -1.34762e-15 3.83738e-16)
(0.975197 -8.62163e-16 4.3151e-16)
(0.976253 -1.3333e-15 3.76103e-16)
(0.976253 -8.71614e-16 4.5306e-16)
(0.977302 -1.31861e-15 3.68851e-16)
(0.977302 -8.81912e-16 4.7455e-16)
(0.978344 -1.30992e-15 3.62059e-16)
(0.978344 -8.8967e-16 4.9656e-16)
(0.979378 -1.28977e-15 3.59239e-16)
(0.979378 -8.93415e-16 5.09812e-16)
(0.980405 -1.27663e-15 3.50277e-16)
(0.980405 -9.04321e-16 5.07268e-16)
(0.981424 -1.26425e-15 3.41084e-16)
(0.981424 -9.08988e-16 5.02078e-16)
(0.982437 -1.25032e-15 3.30786e-16)
(0.982437 -9.1032e-16 4.94799e-16)
(0.983442 -1.24284e-15 3.26037e-16)
(0.983442 -9.17035e-16 4.87792e-16)
(0.984439 -1.22567e-15 3.2219e-16)
(0.984439 -9.16079e-16 4.84279e-16)
(0.98543 -1.21537e-15 3.18203e-16)
(0.98543 -9.16287e-16 4.78929e-16)
(0.986413 -1.20586e-15 3.17489e-16)
(0.986413 -9.2285e-16 4.71075e-16)
(0.987389 -1.19117e-15 3.18354e-16)
(0.987389 -9.21021e-16 4.6493e-16)
(0.988358 -1.17939e-15 3.18288e-16)
(0.988358 -9.23488e-16 4.62482e-16)
(0.989319 -1.16704e-15 3.16826e-16)
(0.989319 -9.39003e-16 4.56428e-16)
(0.990274 -1.16076e-15 3.14177e-16)
(0.990274 -9.41424e-16 4.50391e-16)
(0.991221 -1.15181e-15 3.11706e-16)
(0.991221 -9.34683e-16 4.48688e-16)
(0.992161 -1.13534e-15 3.12863e-16)
(0.992161 -9.42153e-16 4.4482e-16)
(0.993094 -1.12216e-15 3.14809e-16)
(0.993094 -9.47598e-16 4.43668e-16)
(0.994019 -1.10772e-15 3.14216e-16)
(0.994019 -9.40199e-16 4.45913e-16)
(0.994937 -1.10346e-15 3.05836e-16)
(0.994937 -9.37951e-16 4.46097e-16)
(0.995848 -1.10525e-15 3.02321e-16)
(0.995848 -9.34165e-16 4.39904e-16)
(0.996752 -1.09663e-15 3.054e-16)
(0.996752 -9.29295e-16 4.33239e-16)
(0.997649 -1.08069e-15 3.06392e-16)
(0.997649 -9.3201e-16 4.32363e-16)
(0.998538 -1.07151e-15 3.05199e-16)
(0.998538 -9.36023e-16 4.2701e-16)
(0.99942 -1.06645e-15 2.96829e-16)
(0.99942 -9.26308e-16 4.19916e-16)
(1.0003 -1.05364e-15 2.96433e-16)
(1.0003 -9.23463e-16 4.13435e-16)
(1.00116 -1.04675e-15 2.94961e-16)
(1.00116 -9.26919e-16 4.0919e-16)
(1.00202 -1.03489e-15 2.88658e-16)
(1.00202 -9.08213e-16 4.00689e-16)
(1.00288 -1.02371e-15 2.85665e-16)
(1.00288 -9.00179e-16 3.88178e-16)
(1.00372 -1.01784e-15 2.83283e-16)
(1.00372 -8.99226e-16 3.78286e-16)
(1.00456 -1.008e-15 2.80598e-16)
(1.00456 -8.98333e-16 3.69014e-16)
(1.00539 -1.00314e-15 2.788e-16)
(1.00539 -8.99996e-16 3.64961e-16)
(1.00621 -1.00063e-15 2.74771e-16)
(1.00621 -8.72819e-16 3.5821e-16)
(1.00703 -1.00095e-15 2.67125e-16)
(1.00703 -8.56612e-16 3.45717e-16)
(1.00784 -9.97215e-16 2.58112e-16)
(1.00784 -8.56411e-16 3.28754e-16)
(1.00864 -9.93553e-16 2.48192e-16)
(1.00864 -8.42702e-16 3.11222e-16)
(1.00943 -9.94945e-16 2.45701e-16)
(1.00943 -8.27188e-16 2.93864e-16)
(1.01022 -9.78031e-16 2.39365e-16)
(1.01022 -8.2137e-16 2.7618e-16)
(1.011 -9.58048e-16 2.28435e-16)
(1.011 -8.31007e-16 2.64258e-16)
(1.01177 -9.42959e-16 2.09453e-16)
(1.01177 -8.29759e-16 2.53766e-16)
(1.01253 -9.02434e-16 2.12709e-16)
(1.01253 -8.13838e-16 2.35616e-16)
(1.01329 -8.72797e-16 2.08243e-16)
(1.01329 -7.74105e-16 2.24507e-16)
(1.01404 -8.43833e-16 2.17313e-16)
(1.01404 -7.5298e-16 1.96677e-16)
(1.01478 -8.07408e-16 2.06547e-16)
(1.01478 -7.50429e-16 1.91949e-16)
(1.01551 -7.88771e-16 2.01952e-16)
(1.01551 -7.40288e-16 1.85855e-16)
(1.01623 -7.63751e-16 2.00948e-16)
(1.01623 -7.27922e-16 1.83031e-16)
(1.01695 -7.47006e-16 1.88145e-16)
(1.01695 -7.14353e-16 1.84169e-16)
(1.01766 -7.30533e-16 1.98331e-16)
(1.01766 -6.92904e-16 1.81697e-16)
(1.01836 -7.04533e-16 1.94658e-16)
(1.01836 -6.74726e-16 1.80349e-16)
(1.01905 -6.92761e-16 1.99282e-16)
(1.01905 -6.59426e-16 1.70392e-16)
(1.01973 -6.7178e-16 2.06139e-16)
(1.01973 -6.4073e-16 1.7357e-16)
(1.02041 -6.54674e-16 1.97169e-16)
(1.02041 -6.28188e-16 1.7476e-16)
(1.02108 -6.38313e-16 1.92708e-16)
(1.02108 -6.17984e-16 1.84873e-16)
(1.02174 -6.19137e-16 1.95883e-16)
(1.02174 -5.95858e-16 2.0118e-16)
(1.02239 -6.07191e-16 2.09015e-16)
(1.02239 -5.84459e-16 2.04495e-16)
(1.02303 -5.8352e-16 2.03798e-16)
(1.02303 -5.68939e-16 2.03435e-16)
(1.02366 -5.83436e-16 1.95947e-16)
(1.02366 -5.49026e-16 2.07998e-16)
(1.02429 -5.60885e-16 1.94753e-16)
(1.02429 -5.65867e-16 2.01473e-16)
(1.0249 -5.24832e-16 2.03976e-16)
(1.0249 -5.61357e-16 2.37484e-16)
(1.02551 -5.07335e-16 2.04637e-16)
(1.02551 -4.99665e-16 2.4283e-16)
(1.02611 -5.17983e-16 1.9677e-16)
(1.02611 -5.27258e-16 2.3655e-16)
(1.0267 -5.113e-16 2.0196e-16)
(1.0267 -5.42077e-16 2.18685e-16)
(1.02728 -5.18481e-16 1.99534e-16)
(1.02728 -5.21019e-16 2.14304e-16)
(1.02785 -5.22835e-16 2.00867e-16)
(1.02785 -5.3387e-16 2.21685e-16)
(1.02841 -5.22529e-16 1.99781e-16)
(1.02841 -5.31714e-16 2.23515e-16)
(1.02897 -5.17335e-16 2.05332e-16)
(1.02897 -5.6796e-16 1.84492e-16)
(1.02951 -5.08047e-16 2.22047e-16)
(1.02951 -5.32506e-16 1.62778e-16)
(1.03004 -4.95347e-16 2.13547e-16)
(1.03004 -5.45896e-16 1.9756e-16)
(1.03057 -5.04213e-16 2.05073e-16)
(1.03057 -5.21989e-16 2.07041e-16)
(1.03108 -5.25667e-16 2.02266e-16)
(1.03108 -5.10908e-16 1.9804e-16)
(1.03159 -5.22747e-16 1.97261e-16)
(1.03159 -5.15227e-16 1.87746e-16)
(1.03209 -5.24242e-16 1.92207e-16)
(1.03209 -5.197e-16 1.91204e-16)
(1.03257 -5.17741e-16 2.04487e-16)
(1.03257 -5.22006e-16 1.86617e-16)
(1.03305 -5.17835e-16 2.04073e-16)
(1.03305 -5.09688e-16 1.86909e-16)
(1.03352 -5.24749e-16 2.1364e-16)
(1.03352 -5.0574e-16 1.66578e-16)
(1.03397 -5.12119e-16 2.15068e-16)
(1.03397 -5.13071e-16 1.68856e-16)
(1.03442 -5.35425e-16 1.93218e-16)
(1.03442 -5.11255e-16 1.72444e-16)
(1.03486 -5.03104e-16 1.85973e-16)
(1.03486 -4.99929e-16 1.55478e-16)
(1.03528 -5.0961e-16 2.00581e-16)
(1.03528 -5.06487e-16 1.63952e-16)
(1.0357 -5.2402e-16 1.86938e-16)
(1.0357 -5.28611e-16 1.61867e-16)
(1.03611 -5.2739e-16 1.68392e-16)
(1.03611 -5.22165e-16 1.61406e-16)
(1.0365 -5.20636e-16 1.71573e-16)
(1.0365 -5.37894e-16 1.46528e-16)
(1.03689 -5.34097e-16 1.47179e-16)
(1.03689 -5.42878e-16 1.38594e-16)
(1.03726 -5.20784e-16 1.36133e-16)
(1.03726 -5.21734e-16 1.71681e-16)
(1.03763 -5.055e-16 1.12736e-16)
(1.03763 -4.77212e-16 1.72098e-16)
(1.03798 -4.4596e-16 1.42041e-16)
(1.03798 -4.55676e-16 1.6313e-16)
(1.03833 -4.07738e-16 1.38738e-16)
(1.03833 -4.55263e-16 1.63336e-16)
(1.03866 -4.33334e-16 1.12028e-16)
(1.03866 -4.34838e-16 1.26569e-16)
(1.03898 -4.42377e-16 1.14762e-16)
(1.03898 -4.5284e-16 1.172e-16)
(1.0393 -4.04944e-16 1.30197e-16)
(1.0393 -4.38583e-16 1.70677e-16)
(1.0396 -3.64259e-16 1.5338e-16)
(1.0396 -3.57775e-16 1.53301e-16)
(1.03989 -3.42374e-16 1.67954e-16)
(1.03989 -3.53152e-16 1.9254e-16)
(1.04017 -3.60976e-16 1.73845e-16)
(1.04017 -3.22223e-16 2.20407e-16)
(1.04044 -3.37978e-16 2.46547e-16)
(1.04044 -3.17084e-16 2.31333e-16)
(1.04069 -3.46388e-16 2.30024e-16)
(1.04069 -3.26552e-16 2.44974e-16)
(1.04094 -3.68276e-16 2.3961e-16)
(1.04094 -3.72763e-16 2.43025e-16)
(1.04118 -3.4248e-16 2.76434e-16)
(1.04118 -3.81955e-16 2.97454e-16)
(1.0414 -4.13571e-16 2.35755e-16)
(1.0414 -3.95067e-16 3.27128e-16)
(1.04161 -4.19466e-16 2.13398e-16)
(1.04161 -3.81033e-16 3.16289e-16)
(1.04182 -4.0459e-16 3.00168e-16)
(1.04182 -4.15052e-16 2.1645e-16)
(1.04201 -3.88527e-16 2.84746e-16)
(1.04201 -4.21725e-16 2.63223e-16)
(1.04218 -4.31e-16 2.89103e-16)
(1.04218 -3.75094e-16 2.62798e-16)
(1.04235 -3.95181e-16 2.6435e-16)
(1.04235 -3.93914e-16 2.41307e-16)
(1.0425 -4.11857e-16 2.84517e-16)
(1.0425 -4.21009e-16 2.50455e-16)
(1.04264 -4.41604e-16 2.72383e-16)
(1.04264 -4.46883e-16 2.47967e-16)
(1.04277 -4.25399e-16 2.86721e-16)
(1.04277 -4.77342e-16 2.3061e-16)
(1.04288 -4.40269e-16 2.69438e-16)
(1.04288 -4.63914e-16 3.31605e-16)
(1.04298 -4.52038e-16 2.3075e-16)
(1.04298 -4.5667e-16 3.38602e-16)
(1.04307 -4.35071e-16 2.57315e-16)
(1.04307 -4.62735e-16 3.02507e-16)
(1.04314 -4.28589e-16 2.25519e-16)
(1.04314 -4.40435e-16 2.93583e-16)
(1.04319 -4.05069e-16 2.43049e-16)
(1.04319 -4.17874e-16 2.62037e-16)
(1.04323 -4.43792e-16 1.87663e-16)
(1.04323 -4.03436e-16 2.74823e-16)
(1.04325 -4.34825e-16 2.14602e-16)
(1.04325 -3.77713e-16 2.05133e-16)
(0.0175657 5.80103e-19 -1.20565e-17)
(0.0175657 9.93741e-19 1.24574e-16)
(0.0529498 -2.04198e-19 -1.42971e-16)
(0.0529498 3.67191e-19 3.91262e-16)
(0.0888382 1.40311e-18 -1.46877e-16)
(0.0888382 2.82524e-18 4.02032e-16)
(0.125189 2.49705e-18 -1.50404e-16)
(0.125189 4.47499e-18 4.11811e-16)
(0.161826 3.60435e-18 -1.52681e-16)
(0.161826 6.20209e-18 4.1821e-16)
(0.198297 4.83302e-18 -1.52362e-16)
(0.198297 7.94915e-18 4.17536e-16)
(0.233818 6.06422e-18 -1.48284e-16)
(0.233818 9.74658e-18 4.06588e-16)
(0.267451 7.22108e-18 -1.40396e-16)
(0.267451 1.16277e-17 3.85207e-16)
(0.298444 8.29717e-18 -1.29915e-16)
(0.298444 1.31912e-17 3.56713e-16)
(0.326455 9.25296e-18 -1.18517e-16)
(0.326455 1.48209e-17 3.25689e-16)
(0.351521 1.01309e-17 -1.07498e-16)
(0.351521 1.63559e-17 2.95693e-16)
(0.373902 1.10209e-17 -9.7535e-17)
(0.373902 1.7651e-17 2.68576e-16)
(0.393936 1.17526e-17 -8.88409e-17)
(0.393936 1.88907e-17 2.44928e-16)
(0.411961 1.23734e-17 -8.13818e-17)
(0.411961 1.98229e-17 2.24652e-16)
(0.428279 1.30447e-17 -7.50199e-17)
(0.428279 2.06988e-17 2.07378e-16)
(0.443148 1.36277e-17 -6.95986e-17)
(0.443148 2.15067e-17 1.92664e-16)
(0.456781 1.42883e-17 -6.4956e-17)
(0.456781 2.22629e-17 1.80096e-16)
(0.469354 1.50141e-17 -6.09635e-17)
(0.469354 2.27524e-17 1.69311e-16)
(0.481015 1.57212e-17 -5.75054e-17)
(0.481015 2.35848e-17 1.60008e-16)
(0.491883 1.65015e-17 -5.4492e-17)
(0.491883 2.44052e-17 1.5194e-16)
(0.502058 1.72627e-17 -5.18654e-17)
(0.502058 2.48476e-17 1.44913e-16)
(0.511624 1.79776e-17 -4.95595e-17)
(0.511624 2.55291e-17 1.38769e-16)
(0.520651 1.88049e-17 -4.75439e-17)
(0.520651 2.6158e-17 1.33375e-16)
(0.529198 1.94038e-17 -4.57583e-17)
(0.529198 2.64666e-17 1.28622e-16)
(0.537317 1.95507e-17 -4.41772e-17)
(0.537317 2.72383e-17 1.24408e-16)
(0.54505 1.96702e-17 -4.27651e-17)
(0.54505 2.8182e-17 1.20671e-16)
(0.552435 1.9998e-17 -4.15071e-17)
(0.552435 2.84397e-17 1.17352e-16)
(0.559505 2.03847e-17 -4.0394e-17)
(0.559505 2.878e-17 1.14396e-16)
(0.566288 2.08317e-17 -3.93972e-17)
(0.566288 2.94508e-17 1.11754e-16)
(0.572809 2.13706e-17 -3.84935e-17)
(0.572809 2.98005e-17 1.09386e-16)
(0.579089 2.19354e-17 -3.76672e-17)
(0.579089 3.01638e-17 1.07254e-16)
(0.585147 2.24619e-17 -3.6933e-17)
(0.585147 3.07922e-17 1.05349e-16)
(0.591002 2.28856e-17 -3.62874e-17)
(0.591002 3.13567e-17 1.03662e-16)
(0.596668 2.34741e-17 -3.57085e-17)
(0.596668 3.14448e-17 1.0215e-16)
(0.602159 2.41366e-17 -3.518e-17)
(0.602159 3.21348e-17 1.0079e-16)
(0.607486 2.439e-17 -3.47174e-17)
(0.607486 3.32237e-17 9.95816e-17)
(0.612662 2.46153e-17 -3.43084e-17)
(0.612662 3.40668e-17 9.85037e-17)
(0.617696 2.50344e-17 -3.39409e-17)
(0.617696 3.42353e-17 9.75509e-17)
(0.622598 2.54562e-17 -3.36104e-17)
(0.622598 3.42053e-17 9.66971e-17)
(0.627374 2.58933e-17 -3.33164e-17)
(0.627374 3.52692e-17 9.59499e-17)
(0.632033 2.65661e-17 -3.30692e-17)
(0.632033 3.64068e-17 9.5303e-17)
(0.636582 2.71684e-17 -3.28574e-17)
(0.636582 3.65079e-17 9.47413e-17)
(0.641027 2.734e-17 -3.26871e-17)
(0.641027 3.62699e-17 9.42418e-17)
(0.645374 2.76777e-17 -3.25318e-17)
(0.645374 3.71294e-17 9.37928e-17)
(0.649627 2.80021e-17 -3.23917e-17)
(0.649627 3.75108e-17 9.3421e-17)
(0.653793 2.81727e-17 -3.22882e-17)
(0.653793 3.83055e-17 9.3096e-17)
(0.657874 2.8196e-17 -3.22236e-17)
(0.657874 3.95211e-17 9.28344e-17)
(0.661876 2.82688e-17 -3.21818e-17)
(0.661876 4.02685e-17 9.26198e-17)
(0.665803 2.84729e-17 -3.21451e-17)
(0.665803 4.12834e-17 9.24351e-17)
(0.669657 2.8384e-17 -3.21309e-17)
(0.669657 4.25631e-17 9.22932e-17)
(0.673442 2.8513e-17 -3.21263e-17)
(0.673442 4.35757e-17 9.21777e-17)
(0.677162 2.83231e-17 -3.21125e-17)
(0.677162 4.43264e-17 9.21115e-17)
(0.680819 2.81774e-17 -3.21394e-17)
(0.680819 4.44791e-17 9.20947e-17)
(0.684415 2.85883e-17 -3.21522e-17)
(0.684415 4.44676e-17 9.21129e-17)
(0.687954 2.84958e-17 -3.21938e-17)
(0.687954 4.56465e-17 9.21742e-17)
(0.691438 2.85364e-17 -3.22678e-17)
(0.691438 4.68044e-17 9.22808e-17)
(0.694868 2.90753e-17 -3.23382e-17)
(0.694868 4.73694e-17 9.24038e-17)
(0.698248 2.96388e-17 -3.24313e-17)
(0.698248 4.77419e-17 9.25824e-17)
(0.701578 2.96982e-17 -3.25415e-17)
(0.701578 4.86899e-17 9.28032e-17)
(0.704861 2.96276e-17 -3.2682e-17)
(0.704861 4.96998e-17 9.30301e-17)
(0.708099 2.99815e-17 -3.2819e-17)
(0.708099 5.03805e-17 9.3283e-17)
(0.711293 3.02123e-17 -3.29589e-17)
(0.711293 5.18029e-17 9.35562e-17)
(0.714444 3.06743e-17 -3.31372e-17)
(0.714444 5.31784e-17 9.39034e-17)
(0.717554 3.11971e-17 -3.3302e-17)
(0.717554 5.37628e-17 9.42266e-17)
(0.720625 3.12259e-17 -3.3472e-17)
(0.720625 5.40052e-17 9.45797e-17)
(0.723658 3.1336e-17 -3.36743e-17)
(0.723658 5.41601e-17 9.49494e-17)
(0.726653 3.17467e-17 -3.38427e-17)
(0.726653 5.53803e-17 9.53336e-17)
(0.729613 3.20506e-17 -3.40441e-17)
(0.729613 5.65322e-17 9.57581e-17)
(0.732537 3.19771e-17 -3.42186e-17)
(0.732537 5.695e-17 9.61657e-17)
(0.735428 3.18657e-17 -3.43556e-17)
(0.735428 5.78011e-17 9.65618e-17)
(0.738286 3.22364e-17 -3.41774e-17)
(0.738286 5.85493e-17 9.69871e-17)
(0.741113 3.29186e-17 -3.3985e-17)
(0.741113 5.88557e-17 9.74481e-17)
(0.743908 3.30898e-17 -3.37764e-17)
(0.743908 5.91435e-17 9.79183e-17)
(0.746674 3.40227e-17 -3.35411e-17)
(0.746674 5.96361e-17 9.84104e-17)
(0.74941 3.50502e-17 -3.41301e-17)
(0.74941 6.0284e-17 9.89021e-17)
(0.752117 3.53963e-17 -3.5221e-17)
(0.752117 6.0862e-17 9.93523e-17)
(0.754797 3.56359e-17 -3.63426e-17)
(0.754797 6.19809e-17 9.98082e-17)
(0.75745 3.5318e-17 -3.74721e-17)
(0.75745 6.29814e-17 1.00308e-16)
(0.760077 3.61903e-17 -3.86169e-17)
(0.760077 6.39247e-17 1.00766e-16)
(0.762677 3.79144e-17 -3.97884e-17)
(0.762677 6.47846e-17 1.01167e-16)
(0.765253 3.78662e-17 -4.10175e-17)
(0.765253 6.54157e-17 1.01579e-16)
(0.767804 3.76644e-17 -4.2228e-17)
(0.767804 6.57353e-17 1.02017e-16)
(0.770331 3.80513e-17 -4.34613e-17)
(0.770331 6.64902e-17 1.02456e-16)
(0.772835 3.75879e-17 -4.47363e-17)
(0.772835 6.83107e-17 1.02873e-16)
(0.775316 3.75256e-17 -4.59992e-17)
(0.775316 6.79885e-17 1.03203e-16)
(0.777774 3.75226e-17 -4.73243e-17)
(0.777774 6.87311e-17 1.03503e-16)
(0.78021 3.70961e-17 -4.8676e-17)
(0.78021 6.94037e-17 1.03781e-16)
(0.782625 3.67633e-17 -5.00222e-17)
(0.782625 7.03271e-17 1.04003e-16)
(0.785019 3.55333e-17 -5.13624e-17)
(0.785019 7.34229e-17 1.04133e-16)
(0.787392 3.42413e-17 -5.27147e-17)
(0.787392 7.51454e-17 1.04225e-16)