/*--------------------------------*- C++ -*----------------------------------*\
| =========                 |                                                 |
| \\      /  F ield         | OpenFOAM: The Open Source CFD Toolbox           |
|  \\    /   O peration     | Version:  2106                                  |
|   \\  /    A nd           | Website:  www.openfoam.com                      |
|    \\/     M anipulation  |                                                 |
\*---------------------------------------------------------------------------*/
FoamFile
{
    version     2.0;
    format      ascii;
    arch        "LSB;label=32;scalar=64";
    class       volScalarField;
    location    "30000";
    object      k;
}
// * * * * * * * * * * * * * * * * * * * * * * * * * * * * * * * * * * * * * //

dimensions      [0 2 -2 0 0 0 0];

internalField   nonuniform List<scalar> 
2560
(
9.78204e-12
9.78203e-12
2.93553e-10
2.93553e-10
2.10641e-09
2.1064e-09
7.76344e-09
7.76344e-09
2.03322e-08
2.03322e-08
4.35179e-08
4.35179e-08
8.16387e-08
8.16387e-08
1.39633e-07
1.39633e-07
2.23078e-07
2.23078e-07
3.38222e-07
3.38222e-07
4.92015e-07
4.92015e-07
6.92152e-07
6.92152e-07
9.47113e-07
9.47113e-07
1.26621e-06
1.26621e-06
1.65966e-06
1.65966e-06
2.13857e-06
2.13857e-06
2.7151e-06
2.7151e-06
3.40243e-06
3.40243e-06
4.21485e-06
4.21485e-06
5.16786e-06
5.16786e-06
6.27821e-06
6.2782e-06
7.56394e-06
7.56394e-06
9.04455e-06
9.04455e-06
1.0741e-05
1.0741e-05
1.26758e-05
1.26758e-05
1.48732e-05
1.48732e-05
1.73588e-05
1.73588e-05
2.01606e-05
2.01606e-05
2.33081e-05
2.33081e-05
2.68328e-05
2.68328e-05
3.07685e-05
3.07685e-05
3.5151e-05
3.5151e-05
4.00184e-05
4.00183e-05
4.5411e-05
4.5411e-05
5.13717e-05
5.13717e-05
5.7946e-05
5.7946e-05
6.51818e-05
6.51818e-05
7.31297e-05
7.31297e-05
8.18429e-05
8.18429e-05
9.13776e-05
9.13775e-05
0.000101792
0.000101792
0.000113148
0.000113148
0.000125509
0.000125509
0.000138943
0.000138943
0.000153517
0.000153517
0.000169304
0.000169303
0.000186377
0.000186377
0.000204812
0.000204812
0.000224687
0.000224687
0.000246081
0.000246081
0.000269072
0.000269072
0.000293741
0.000293741
0.00032017
0.000320169
0.000348436
0.000348436
0.000378618
0.000378618
0.000410793
0.000410793
0.000445032
0.000445032
0.000481403
0.000481403
0.000519973
0.000519973
0.000560796
0.000560796
0.000603908
0.000603908
0.000649356
0.000649356
0.000697182
0.000697182
0.000747404
0.000747404
0.00080003
0.00080003
0.00085508
0.00085508
0.00091255
0.00091255
0.00097236
0.00097236
0.00103445
0.00103445
0.00109878
0.00109877
0.00116531
0.00116531
0.001234
0.001234
0.00130471
0.00130471
0.00137732
0.00137732
0.00145171
0.00145171
0.00152781
0.00152781
0.00160552
0.00160552
0.00168472
0.00168472
0.00176532
0.00176532
0.00184721
0.00184721
0.00193026
0.00193026
0.00201436
0.00201436
0.00209937
0.00209937
0.00218514
0.00218514
0.00227155
0.00227155
0.00235853
0.00235853
0.00244609
0.00244609
0.00253418
0.00253418
0.0026225
0.0026225
0.00271053
0.00271053
0.002798
0.002798
0.0028848
0.0028848
0.00297079
0.00297079
0.00305584
0.00305584
0.00313975
0.00313975
0.00322239
0.00322239
0.00330369
0.00330369
0.00338358
0.00338358
0.00346203
0.00346203
0.00353897
0.00353897
0.00361424
0.00361424
0.00368783
0.00368783
0.00375999
0.00375999
0.00383108
0.00383108
0.00390146
0.00390146
0.0039713
0.0039713
0.00404065
0.00404065
0.00410952
0.00410952
0.00417788
0.00417788
0.00424564
0.00424564
0.00431274
0.00431274
0.00437908
0.00437908
0.00444457
0.00444457
0.00450912
0.00450912
0.00457259
0.00457259
0.0046348
0.0046348
0.00469566
0.00469566
0.00475499
0.00475499
0.00481233
0.00481233
0.00486726
0.00486726
0.00491928
0.00491928
0.00496794
0.00496794
0.00501264
0.00501264
0.00505304
0.00505304
0.00508915
0.00508915
0.00512119
0.00512119
0.00514969
0.00514969
0.00517526
0.00517526
0.00519855
0.00519855
0.00522001
0.00522001
0.0052398
0.0052398
0.00525803
0.00525803
0.00527475
0.00527475
0.00529005
0.00529005
0.005304
0.005304
0.00531667
0.00531667
0.0053281
0.0053281
0.00533832
0.00533832
0.00534739
0.00534739
0.00535541
0.00535541
0.00536247
0.00536247
0.00536864
0.00536864
0.00537392
0.00537392
0.00537832
0.00537832
0.00538185
0.00538185
0.00538447
0.00538447
0.00538619
0.00538619
0.00538697
0.00538697
0.0053868
0.0053868
0.00538564
0.00538564
0.00538346
0.00538346
0.00538022
0.00538022
0.00537587
0.00537587
0.00537035
0.00537035
0.00536361
0.00536361
0.00535557
0.00535557
0.00534615
0.00534615
0.00533525
0.00533525
0.00532276
0.00532276
0.00530857
0.00530856
0.00529253
0.00529251
0.00527448
0.00527447
0.00525424
0.00525423
0.00523162
0.00523161
0.00520648
0.00520647
0.00517878
0.00517876
0.00514864
0.00514863
0.00511657
0.00511656
0.00508336
0.00508336
0.00504989
0.00504989
0.00501692
0.00501692
0.00498512
0.00498512
0.00495485
0.00495486
0.00492622
0.00492623
0.00489917
0.00489917
0.00487361
0.00487361
0.00484948
0.00484948
0.00482665
0.00482665
0.004805
0.004805
0.00478441
0.00478441
0.00476481
0.00476481
0.00474613
0.00474613
0.00472828
0.00472828
0.00471113
0.00471113
0.00469459
0.00469459
0.00467856
0.00467856
0.00466295
0.00466295
0.00464768
0.00464768
0.00463268
0.00463268
0.00461789
0.00461789
0.00460326
0.00460326
0.00458874
0.00458874
0.00457428
0.00457428
0.00455985
0.00455985
0.00454542
0.00454542
0.00453094
0.00453094
0.0045164
0.0045164
0.00450178
0.00450178
0.00448704
0.00448704
0.00447218
0.00447218
0.00445717
0.00445717
0.004442
0.004442
0.00442666
0.00442666
0.00441113
0.00441113
0.0043954
0.0043954
0.00437946
0.00437946
0.0043633
0.0043633
0.00434691
0.0043469
0.00433028
0.00433027
0.00431339
0.00431339
0.00429625
0.00429625
0.00427884
0.00427883
0.00426114
0.00426114
0.00424315
0.00424316
0.00422485
0.00422485
0.00420622
0.00420623
0.00418726
0.00418726
0.00416792
0.00416793
0.00414821
0.00414821
0.00412807
0.00412807
0.00410749
0.00410749
0.00408643
0.00408643
0.00406488
0.00406488
0.00404281
0.00404281
0.00402025
0.00402025
0.00399726
0.00399726
0.00397399
0.00397399
0.00395055
0.00395055
0.00392703
0.00392703
0.00390347
0.00390347
0.0038799
0.0038799
0.00385626
0.00385626
0.00383254
0.00383254
0.00380868
0.00380868
0.00378466
0.00378466
0.00376046
0.00376046
0.00373605
0.00373605
0.00371141
0.00371141
0.00368652
0.00368652
0.00366136
0.00366136
0.00363593
0.00363593
0.00361021
0.00361021
0.00358418
0.00358418
0.00355784
0.00355784
0.00353118
0.00353118
0.00350419
0.00350419
0.00347686
0.00347686
0.00344918
0.00344918
0.00342115
0.00342115
0.00339276
0.00339276
0.00336399
0.00336399
0.00333485
0.00333485
0.00330533
0.00330533
0.00327541
0.00327541
0.00324511
0.00324511
0.0032144
0.0032144
0.00318328
0.00318328
0.00315174
0.00315174
0.00311979
0.00311979
0.0030874
0.0030874
0.00305458
0.00305458
0.00302132
0.00302132
0.00298762
0.00298762
0.00295345
0.00295345
0.00291883
0.00291883
0.00288374
0.00288374
0.00284817
0.00284817
0.00281213
0.00281213
0.0027756
0.0027756
0.00273857
0.00273857
0.00270105
0.00270105
0.00266303
0.00266303
0.00262449
0.00262449
0.00258545
0.00258545
0.00254589
0.00254589
0.00250581
0.00250581
0.00246521
0.00246521
0.00242411
0.00242411
0.00238249
0.00238249
0.00234038
0.00234038
0.00229778
0.00229778
0.00225471
0.00225471
0.00221121
0.00221121
0.00216732
0.00216732
0.00212309
0.00212309
0.00207859
0.00207859
0.00203393
0.00203393
0.00198923
0.00198923
0.00194467
0.00194467
0.00190048
0.00190048
0.00185696
0.00185696
0.00181451
0.00181451
0.00177365
0.00177365
0.00173519
0.00173519
0.00169952
0.00169952
0.00166786
0.00166786
0.00164005
0.00164005
0.0016149
0.0016149
0.00158877
0.00158877
0.00156048
0.00156048
0.00153054
0.00153054
0.00150029
0.00150029
0.00147096
0.00147096
0.00144283
0.00144283
0.00141517
0.00141517
0.00138738
0.00138738
0.00135945
0.00135945
0.00133177
0.00133177
0.00130495
0.00130495
0.00127951
0.00127951
0.00125567
0.00125567
0.00123357
0.00123357
0.00121342
0.00121342
0.00119535
0.00119535
0.00117953
0.00117953
0.00116604
0.00116604
0.00115498
0.00115498
0.00114646
0.00114646
0.00114063
0.00114063
0.00113762
0.00113762
9.78228e-12
9.78227e-12
2.9356e-10
2.9356e-10
2.10646e-09
2.10646e-09
7.76363e-09
7.76363e-09
2.03327e-08
2.03327e-08
4.3519e-08
4.35189e-08
8.16407e-08
8.16407e-08
1.39636e-07
1.39636e-07
2.23083e-07
2.23083e-07
3.3823e-07
3.3823e-07
4.92027e-07
4.92027e-07
6.92169e-07
6.92169e-07
9.47137e-07
9.47137e-07
1.26625e-06
1.26625e-06
1.6597e-06
1.6597e-06
2.13863e-06
2.13863e-06
2.71517e-06
2.71517e-06
3.40251e-06
3.40251e-06
4.21496e-06
4.21495e-06
5.16798e-06
5.16798e-06
6.27836e-06
6.27836e-06
7.56413e-06
7.56413e-06
9.04478e-06
9.04478e-06
1.07413e-05
1.07413e-05
1.26762e-05
1.26762e-05
1.48735e-05
1.48735e-05
1.73593e-05
1.73593e-05
2.01611e-05
2.01611e-05
2.33086e-05
2.33086e-05
2.68335e-05
2.68335e-05
3.07693e-05
3.07693e-05
3.51519e-05
3.51519e-05
4.00194e-05
4.00193e-05
4.54121e-05
4.54121e-05
5.1373e-05
5.1373e-05
5.79475e-05
5.79475e-05
6.51834e-05
6.51834e-05
7.31315e-05
7.31315e-05
8.1845e-05
8.1845e-05
9.13798e-05
9.13798e-05
0.000101795
0.000101795
0.000113151
0.000113151
0.000125513
0.000125513
0.000138946
0.000138946
0.000153521
0.00015352
0.000169308
0.000169308
0.000186381
0.000186381
0.000204817
0.000204817
0.000224693
0.000224693
0.000246087
0.000246087
0.000269078
0.000269078
0.000293749
0.000293749
0.000320177
0.000320177
0.000348444
0.000348444
0.000378627
0.000378627
0.000410803
0.000410803
0.000445043
0.000445043
0.000481414
0.000481414
0.000519985
0.000519985
0.000560809
0.000560809
0.000603922
0.000603922
0.000649371
0.000649371
0.000697198
0.000697198
0.00074742
0.00074742
0.000800047
0.000800047
0.000855098
0.000855098
0.000912569
0.000912569
0.00097238
0.00097238
0.00103447
0.00103447
0.0010988
0.0010988
0.00116533
0.00116533
0.00123402
0.00123402
0.00130474
0.00130474
0.00137734
0.00137734
0.00145174
0.00145174
0.00152783
0.00152784
0.00160554
0.00160554
0.00168475
0.00168475
0.00176535
0.00176535
0.00184723
0.00184723
0.00193028
0.00193028
0.00201438
0.00201438
0.0020994
0.0020994
0.00218516
0.00218516
0.00227157
0.00227157
0.00235856
0.00235856
0.00244611
0.00244611
0.0025342
0.0025342
0.00262252
0.00262252
0.00271055
0.00271055
0.00279802
0.00279802
0.00288481
0.00288481
0.0029708
0.0029708
0.00305585
0.00305585
0.00313976
0.00313976
0.00322239
0.00322239
0.0033037
0.0033037
0.00338358
0.00338358
0.00346202
0.00346202
0.00353896
0.00353896
0.00361423
0.00361423
0.00368781
0.00368781
0.00375996
0.00375997
0.00383105
0.00383105
0.00390143
0.00390143
0.00397127
0.00397127
0.0040406
0.0040406
0.00410947
0.00410947
0.00417782
0.00417782
0.00424558
0.00424558
0.00431267
0.00431267
0.004379
0.004379
0.00444449
0.00444449
0.00450906
0.00450906
0.00457255
0.00457255
0.00463478
0.00463478
0.00469566
0.00469566
0.00475502
0.00475502
0.00481238
0.00481238
0.00486733
0.00486733
0.00491937
0.00491937
0.00496805
0.00496805
0.00501276
0.00501276
0.00505318
0.00505318
0.00508928
0.00508928
0.00512133
0.00512133
0.00514984
0.00514984
0.0051754
0.0051754
0.0051987
0.0051987
0.00522016
0.00522016
0.00523996
0.00523996
0.00525819
0.00525819
0.00527491
0.00527491
0.00529021
0.00529021
0.00530417
0.00530416
0.00531684
0.00531684
0.00532828
0.00532827
0.0053385
0.0053385
0.00534757
0.00534757
0.00535559
0.00535559
0.00536265
0.00536265
0.00536881
0.00536881
0.00537408
0.00537408
0.00537849
0.00537849
0.00538201
0.00538201
0.00538463
0.00538463
0.00538635
0.00538635
0.00538713
0.00538713
0.00538696
0.00538696
0.0053858
0.0053858
0.00538362
0.00538362
0.00538037
0.00538037
0.00537602
0.00537602
0.00537051
0.00537051
0.00536377
0.00536377
0.00535573
0.00535573
0.0053463
0.0053463
0.0053354
0.0053354
0.00532292
0.00532292
0.00530872
0.00530872
0.00529267
0.00529267
0.00527462
0.00527462
0.00525438
0.00525438
0.00523177
0.00523177
0.00520664
0.00520664
0.00517894
0.00517894
0.00514881
0.0051488
0.00511673
0.00511672
0.00508352
0.00508351
0.00505004
0.00505004
0.00501707
0.00501707
0.00498526
0.00498526
0.004955
0.004955
0.00492637
0.00492637
0.00489931
0.00489931
0.00487375
0.00487375
0.00484962
0.00484962
0.00482679
0.00482679
0.00480514
0.00480514
0.00478455
0.00478455
0.00476495
0.00476496
0.00474627
0.00474628
0.00472842
0.00472842
0.00471128
0.00471128
0.00469474
0.00469474
0.00467871
0.00467871
0.0046631
0.0046631
0.00464783
0.00464783
0.00463283
0.00463283
0.00461805
0.00461805
0.00460342
0.00460341
0.00458889
0.00458889
0.00457444
0.00457444
0.00456001
0.00456
0.00454557
0.00454557
0.00453109
0.00453109
0.00451656
0.00451656
0.00450193
0.00450193
0.0044872
0.0044872
0.00447233
0.00447233
0.00445732
0.00445732
0.00444215
0.00444215
0.00442681
0.00442681
0.00441127
0.00441128
0.00439554
0.00439554
0.0043796
0.0043796
0.00436344
0.00436344
0.00434705
0.00434705
0.00433041
0.00433041
0.00431353
0.00431353
0.00429638
0.00429638
0.00427896
0.00427896
0.00426127
0.00426126
0.00424327
0.00424327
0.00422497
0.00422497
0.00420634
0.00420634
0.00418737
0.00418737
0.00416804
0.00416804
0.00414832
0.00414832
0.00412818
0.00412818
0.0041076
0.0041076
0.00408654
0.00408654
0.00406498
0.00406498
0.00404291
0.00404291
0.00402035
0.00402035
0.00399737
0.00399737
0.00397409
0.00397409
0.00395065
0.00395065
0.00392713
0.00392713
0.00390357
0.00390357
0.00387999
0.00387999
0.00385636
0.00385636
0.00383263
0.00383263
0.00380878
0.00380878
0.00378476
0.00378476
0.00376055
0.00376055
0.00373614
0.00373614
0.0037115
0.0037115
0.00368661
0.00368661
0.00366145
0.00366145
0.00363602
0.00363602
0.0036103
0.0036103
0.00358427
0.00358427
0.00355793
0.00355793
0.00353127
0.00353127
0.00350427
0.00350427
0.00347694
0.00347694
0.00344926
0.00344926
0.00342123
0.00342123
0.00339283
0.00339283
0.00336406
0.00336406
0.00333492
0.00333492
0.00330539
0.00330539
0.00327548
0.00327548
0.00324516
0.00324516
0.00321445
0.00321445
0.00318333
0.00318333
0.00315179
0.00315179
0.00311983
0.00311983
0.00308744
0.00308744
0.00305462
0.00305462
0.00302135
0.00302135
0.00298764
0.00298764
0.00295348
0.00295348
0.00291885
0.00291885
0.00288375
0.00288375
0.00284818
0.00284818
0.00281213
0.00281213
0.00277559
0.00277559
0.00273856
0.00273856
0.00270104
0.00270104
0.002663
0.002663
0.00262446
0.00262446
0.00258541
0.00258541
0.00254584
0.00254584
0.00250576
0.00250576
0.00246516
0.00246516
0.00242404
0.00242404
0.00238242
0.00238242
0.00234029
0.00234029
0.00229768
0.00229768
0.00225461
0.00225461
0.0022111
0.0022111
0.00216719
0.00216719
0.00212295
0.00212295
0.00207844
0.00207844
0.00203376
0.00203376
0.00198905
0.00198905
0.00194448
0.00194448
0.00190028
0.00190028
0.00185674
0.00185674
0.00181427
0.00181427
0.00177339
0.00177339
0.00173508
0.00173508
0.00169955
0.00169955
0.00166804
0.00166804
0.00164038
0.00164038
0.00161516
0.00161516
0.00158895
0.00158895
0.00156059
0.00156059
0.00153061
0.00153061
0.00150032
0.00150032
0.00147096
0.00147096
0.00144282
0.00144282
0.00141514
0.00141514
0.00138732
0.00138732
0.00135936
0.00135936
0.00133167
0.00133167
0.00130483
0.00130483
0.00127937
0.00127937
0.0012555
0.0012555
0.00123338
0.00123338
0.00121318
0.00121318
0.00119506
0.00119506
0.00117931
0.00117931
0.00116588
0.00116588
0.00115487
0.00115487
0.0011464
0.0011464
0.0011406
0.0011406
0.0011376
0.0011376
0.0011376
0.0011376
0.00114058
0.00114058
0.00114638
0.00114638
0.00115485
0.00115485
0.00116586
0.00116586
0.00117928
0.00117928
0.00119504
0.00119504
0.00121316
0.00121316
0.00123337
0.00123337
0.00125548
0.00125548
0.00127936
0.00127936
0.00130481
0.00130481
0.00133166
0.00133166
0.00135935
0.00135935
0.00138731
0.00138731
0.00141513
0.00141513
0.00144281
0.00144281
0.00147096
0.00147096
0.00150031
0.00150031
0.0015306
0.0015306
0.00156059
0.00156059
0.00158894
0.00158894
0.00161515
0.00161515
0.00164037
0.00164037
0.00166803
0.00166803
0.00169955
0.00169955
0.00173507
0.00173507
0.00177339
0.00177339
0.00181427
0.00181427
0.00185674
0.00185674
0.00190027
0.00190027
0.00194448
0.00194448
0.00198905
0.00198905
0.00203376
0.00203376
0.00207843
0.00207843
0.00212294
0.00212294
0.00216719
0.00216719
0.0022111
0.0022111
0.00225461
0.00225461
0.00229768
0.00229768
0.00234029
0.00234029
0.00238242
0.00238242
0.00242404
0.00242404
0.00246516
0.00246516
0.00250576
0.00250576
0.00254584
0.00254584
0.00258541
0.00258541
0.00262446
0.00262446
0.002663
0.002663
0.00270104
0.00270104
0.00273856
0.00273856
0.00277559
0.00277559
0.00281213
0.00281213
0.00284818
0.00284818
0.00288375
0.00288375
0.00291885
0.00291885
0.00295348
0.00295348
0.00298764
0.00298764
0.00302136
0.00302136
0.00305462
0.00305462
0.00308744
0.00308744
0.00311983
0.00311983
0.00315179
0.00315179
0.00318333
0.00318333
0.00321445
0.00321445
0.00324517
0.00324517
0.00327548
0.00327548
0.00330539
0.00330539
0.00333492
0.00333492
0.00336406
0.00336406
0.00339283
0.00339283
0.00342123
0.00342123
0.00344927
0.00344927
0.00347695
0.00347695
0.00350428
0.00350428
0.00353127
0.00353127
0.00355794
0.00355794
0.00358428
0.00358428
0.0036103
0.0036103
0.00363603
0.00363603
0.00366146
0.00366146
0.00368662
0.00368662
0.00371151
0.00371151
0.00373615
0.00373615
0.00376056
0.00376056
0.00378477
0.00378477
0.00380878
0.00380879
0.00383264
0.00383264
0.00385637
0.00385637
0.00388
0.00388
0.00390358
0.00390358
0.00392714
0.00392714
0.00395066
0.00395066
0.0039741
0.0039741
0.00399738
0.00399738
0.00402036
0.00402036
0.00404293
0.00404293
0.004065
0.004065
0.00408656
0.00408656
0.00410762
0.00410762
0.0041282
0.0041282
0.00414833
0.00414833
0.00416805
0.00416805
0.00418739
0.00418739
0.00420636
0.00420636
0.00422498
0.00422498
0.00424329
0.00424329
0.00426128
0.00426128
0.00427898
0.00427898
0.0042964
0.0042964
0.00431355
0.00431354
0.00433043
0.00433043
0.00434707
0.00434707
0.00436346
0.00436346
0.00437962
0.00437962
0.00439556
0.00439556
0.0044113
0.0044113
0.00442683
0.00442683
0.00444217
0.00444217
0.00445734
0.00445734
0.00447235
0.00447235
0.00448722
0.00448722
0.00450195
0.00450195
0.00451658
0.00451658
0.00453112
0.00453112
0.00454559
0.00454559
0.00456003
0.00456003
0.00457446
0.00457446
0.00458892
0.00458892
0.00460344
0.00460344
0.00461807
0.00461807
0.00463286
0.00463286
0.00464785
0.00464786
0.00466312
0.00466313
0.00467874
0.00467874
0.00469477
0.00469477
0.00471131
0.00471131
0.00472845
0.00472845
0.00474631
0.00474631
0.00476498
0.00476499
0.00478458
0.00478458
0.00480517
0.00480517
0.00482682
0.00482682
0.00484965
0.00484965
0.00487379
0.00487379
0.00489934
0.00489935
0.0049264
0.0049264
0.00495503
0.00495504
0.0049853
0.0049853
0.00501711
0.00501711
0.00505008
0.00505008
0.00508356
0.00508355
0.00511677
0.00511677
0.00514885
0.00514885
0.00517899
0.00517898
0.00520669
0.00520669
0.00523182
0.00523182
0.00525443
0.00525443
0.00527467
0.00527467
0.00529272
0.00529272
0.00530877
0.00530877
0.00532296
0.00532296
0.00533545
0.00533545
0.00534635
0.00534635
0.00535577
0.00535577
0.00536381
0.00536381
0.00537055
0.00537055
0.00537607
0.00537607
0.00538042
0.00538042
0.00538366
0.00538366
0.00538584
0.00538584
0.005387
0.005387
0.00538717
0.00538717
0.00538639
0.00538639
0.00538468
0.00538468
0.00538205
0.00538205
0.00537853
0.00537853
0.00537413
0.00537413
0.00536885
0.00536885
0.00536269
0.00536269
0.00535563
0.00535563
0.00534761
0.00534761
0.00533854
0.00533854
0.00532832
0.00532832
0.00531688
0.00531688
0.00530421
0.00530421
0.00529026
0.00529026
0.00527495
0.00527495
0.00525823
0.00525823
0.00524
0.00524
0.0052202
0.0052202
0.00519874
0.00519874
0.00517544
0.00517544
0.00514988
0.00514988
0.00512138
0.00512138
0.00508933
0.00508933
0.00505323
0.00505323
0.00501282
0.00501282
0.00496811
0.00496811
0.00491944
0.00491944
0.0048674
0.0048674
0.00481245
0.00481245
0.00475509
0.00475509
0.00469573
0.00469573
0.00463485
0.00463485
0.00457262
0.00457262
0.00450913
0.00450913
0.00444455
0.00444455
0.00437907
0.00437907
0.00431273
0.00431273
0.00424564
0.00424564
0.00417788
0.00417789
0.00410953
0.00410953
0.00404067
0.00404067
0.00397133
0.00397133
0.00390149
0.00390149
0.00383111
0.00383111
0.00376003
0.00376003
0.00368787
0.00368787
0.00361429
0.00361429
0.00353902
0.00353902
0.00346207
0.00346207
0.00338362
0.00338362
0.00330374
0.00330374
0.00322243
0.00322243
0.00313979
0.00313979
0.00305588
0.00305588
0.00297083
0.00297083
0.00288484
0.00288484
0.00279804
0.00279804
0.00271056
0.00271056
0.00262253
0.00262253
0.00253421
0.00253421
0.00244613
0.00244613
0.00235857
0.00235857
0.00227158
0.00227158
0.00218517
0.00218517
0.00209941
0.00209941
0.00201439
0.00201439
0.00193029
0.00193029
0.00184724
0.00184724
0.00176536
0.00176536
0.00168476
0.00168476
0.00160555
0.00160555
0.00152784
0.00152785
0.00145175
0.00145175
0.00137735
0.00137735
0.00130475
0.00130475
0.00123403
0.00123403
0.00116534
0.00116534
0.00109881
0.00109881
0.00103448
0.00103448
0.00097239
0.000972391
0.00091258
0.000912581
0.000855108
0.000855109
0.000800058
0.000800058
0.00074743
0.00074743
0.000697208
0.000697208
0.00064938
0.00064938
0.000603932
0.000603932
0.000560818
0.000560818
0.000519994
0.000519994
0.000481423
0.000481423
0.000445051
0.000445051
0.000410811
0.000410811
0.000378635
0.000378635
0.000348451
0.000348451
0.000320184
0.000320184
0.000293754
0.000293754
0.000269084
0.000269084
0.000246092
0.000246092
0.000224697
0.000224697
0.000204821
0.000204821
0.000186385
0.000186385
0.000169311
0.000169311
0.000153524
0.000153524
0.000138949
0.000138949
0.000125515
0.000125515
0.000113153
0.000113153
0.000101797
0.000101797
9.13818e-05
9.13817e-05
8.18467e-05
8.18467e-05
7.31331e-05
7.3133e-05
6.51848e-05
6.51848e-05
5.79487e-05
5.79487e-05
5.13741e-05
5.13741e-05
4.54131e-05
4.5413e-05
4.00202e-05
4.00202e-05
3.51527e-05
3.51526e-05
3.077e-05
3.077e-05
2.68341e-05
2.68341e-05
2.33092e-05
2.33092e-05
2.01616e-05
2.01615e-05
1.73597e-05
1.73596e-05
1.48739e-05
1.48738e-05
1.26764e-05
1.26764e-05
1.07415e-05
1.07415e-05
9.04497e-06
9.04496e-06
7.56429e-06
7.56428e-06
6.27849e-06
6.27849e-06
5.1681e-06
5.16809e-06
4.21505e-06
4.21504e-06
3.40258e-06
3.40258e-06
2.71523e-06
2.71523e-06
2.13867e-06
2.13867e-06
1.65973e-06
1.65973e-06
1.26627e-06
1.26627e-06
9.47158e-07
9.47157e-07
6.92184e-07
6.92184e-07
4.92037e-07
4.92037e-07
3.38237e-07
3.38237e-07
2.23088e-07
2.23088e-07
1.39639e-07
1.39639e-07
8.16424e-08
8.16424e-08
4.35199e-08
4.35198e-08
2.03331e-08
2.03331e-08
7.76378e-09
7.76378e-09
2.1065e-09
2.1065e-09
2.93565e-10
2.93564e-10
9.78239e-12
9.78239e-12
0.00113759
0.00113759
0.0011406
0.0011406
0.00114644
0.00114644
0.00115496
0.00115496
0.00116602
0.00116602
0.00117951
0.00117951
0.00119533
0.00119533
0.0012134
0.0012134
0.00123356
0.00123356
0.00125565
0.00125565
0.0012795
0.0012795
0.00130494
0.00130494
0.00133176
0.00133176
0.00135944
0.00135944
0.00138737
0.00138737
0.00141516
0.00141516
0.00144282
0.00144282
0.00147095
0.00147095
0.00150028
0.00150028
0.00153054
0.00153054
0.00156047
0.00156047
0.00158876
0.00158876
0.0016149
0.0016149
0.00164004
0.00164004
0.00166785
0.00166785
0.00169952
0.00169952
0.00173519
0.00173519
0.00177365
0.00177365
0.0018145
0.0018145
0.00185695
0.00185695
0.00190047
0.00190047
0.00194466
0.00194466
0.00198922
0.00198922
0.00203392
0.00203392
0.00207859
0.00207859
0.00212308
0.00212308
0.00216732
0.00216732
0.00221121
0.00221121
0.00225471
0.00225471
0.00229777
0.00229777
0.00234037
0.00234037
0.00238249
0.00238249
0.0024241
0.0024241
0.00246521
0.00246521
0.00250581
0.00250581
0.00254588
0.00254588
0.00258544
0.00258544
0.00262449
0.00262449
0.00266302
0.00266302
0.00270105
0.00270105
0.00273857
0.00273857
0.0027756
0.0027756
0.00281213
0.00281213
0.00284817
0.00284817
0.00288374
0.00288374
0.00291883
0.00291883
0.00295345
0.00295345
0.00298762
0.00298762
0.00302132
0.00302132
0.00305459
0.00305459
0.0030874
0.0030874
0.00311979
0.00311979
0.00315174
0.00315174
0.00318328
0.00318328
0.0032144
0.0032144
0.00324511
0.00324511
0.00327542
0.00327542
0.00330533
0.00330533
0.00333485
0.00333485
0.00336399
0.00336399
0.00339276
0.00339276
0.00342116
0.00342116
0.00344919
0.00344919
0.00347687
0.00347687
0.0035042
0.0035042
0.00353119
0.00353119
0.00355785
0.00355785
0.00358419
0.00358419
0.00361021
0.00361021
0.00363594
0.00363594
0.00366137
0.00366137
0.00368653
0.00368653
0.00371142
0.00371142
0.00373606
0.00373606
0.00376047
0.00376047
0.00378467
0.00378467
0.00380869
0.00380869
0.00383255
0.00383255
0.00385627
0.00385627
0.00387991
0.00387991
0.00390348
0.00390348
0.00392704
0.00392704
0.00395056
0.00395056
0.003974
0.003974
0.00399728
0.00399728
0.00402026
0.00402026
0.00404282
0.00404282
0.00406489
0.00406489
0.00408645
0.00408645
0.00410751
0.00410751
0.00412809
0.00412809
0.00414822
0.00414822
0.00416794
0.00416794
0.00418727
0.00418727
0.00420624
0.00420624
0.00422487
0.00422487
0.00424317
0.00424317
0.00426116
0.00426116
0.00427885
0.00427885
0.00429627
0.00429626
0.00431341
0.00431341
0.00433029
0.00433029
0.00434692
0.00434692
0.00436332
0.00436332
0.00437948
0.00437948
0.00439542
0.00439542
0.00441115
0.00441115
0.00442668
0.00442668
0.00444202
0.00444202
0.00445719
0.00445719
0.0044722
0.0044722
0.00448706
0.00448706
0.0045018
0.0045018
0.00451642
0.00451642
0.00453096
0.00453096
0.00454544
0.00454544
0.00455988
0.00455988
0.0045743
0.00457431
0.00458876
0.00458876
0.00460328
0.00460329
0.00461791
0.00461792
0.0046327
0.0046327
0.0046477
0.0046477
0.00466297
0.00466297
0.00467858
0.00467858
0.00469462
0.00469462
0.00471116
0.00471116
0.0047283
0.0047283
0.00474616
0.00474616
0.00476484
0.00476484
0.00478444
0.00478444
0.00480502
0.00480502
0.00482667
0.00482667
0.0048495
0.0048495
0.00487364
0.00487364
0.00489919
0.00489919
0.00492625
0.00492625
0.00495488
0.00495488
0.00498514
0.00498514
0.00501694
0.00501695
0.00504991
0.00504991
0.00508338
0.00508338
0.00511659
0.0051166
0.00514866
0.00514868
0.0051788
0.00517881
0.0052065
0.00520651
0.00523164
0.00523165
0.00525426
0.00525428
0.0052745
0.00527451
0.00529255
0.00529256
0.00530859
0.0053086
0.00532279
0.00532279
0.00533528
0.00533528
0.00534618
0.00534618
0.0053556
0.00535561
0.00536364
0.00536364
0.00537038
0.00537038
0.0053759
0.0053759
0.00538025
0.00538025
0.00538349
0.00538349
0.00538567
0.00538567
0.00538683
0.00538683
0.005387
0.005387
0.00538622
0.00538622
0.0053845
0.0053845
0.00538187
0.00538188
0.00537835
0.00537835
0.00537395
0.00537395
0.00536867
0.00536867
0.0053625
0.0053625
0.00535544
0.00535544
0.00534742
0.00534742
0.00533835
0.00533835
0.00532813
0.00532813
0.0053167
0.0053167
0.00530403
0.00530403
0.00529008
0.00529008
0.00527478
0.00527478
0.00525806
0.00525806
0.00523983
0.00523983
0.00522004
0.00522004
0.00519859
0.00519859
0.00517529
0.00517529
0.00514973
0.00514973
0.00512122
0.00512122
0.00508919
0.00508919
0.00505309
0.00505309
0.00501268
0.00501268
0.00496798
0.00496798
0.00491933
0.00491933
0.00486731
0.00486731
0.00481239
0.00481239
0.00475505
0.00475505
0.00469571
0.00469571
0.00463486
0.00463486
0.00457264
0.00457264
0.00450918
0.00450918
0.00444462
0.00444462
0.00437913
0.00437913
0.00431279
0.00431279
0.0042457
0.0042457
0.00417793
0.00417793
0.00410957
0.00410957
0.0040407
0.0040407
0.00397136
0.00397136
0.00390151
0.00390151
0.00383113
0.00383113
0.00376004
0.00376004
0.00368788
0.00368788
0.00361429
0.00361429
0.00353902
0.00353902
0.00346207
0.00346207
0.00338362
0.00338362
0.00330373
0.00330373
0.00322242
0.00322242
0.00313978
0.00313978
0.00305587
0.00305587
0.00297082
0.00297082
0.00288482
0.00288482
0.00279802
0.00279802
0.00271054
0.00271054
0.00262251
0.00262251
0.00253419
0.00253419
0.0024461
0.0024461
0.00235854
0.00235854
0.00227155
0.00227155
0.00218515
0.00218515
0.00209938
0.00209938
0.00201436
0.00201436
0.00193026
0.00193026
0.00184721
0.00184721
0.00176533
0.00176533
0.00168473
0.00168473
0.00160552
0.00160552
0.00152782
0.00152782
0.00145172
0.00145172
0.00137732
0.00137732
0.00130472
0.00130472
0.00123401
0.00123401
0.00116532
0.00116532
0.00109878
0.00109878
0.00103445
0.00103445
0.000972369
0.000972369
0.00091256
0.00091256
0.000855089
0.000855089
0.000800039
0.000800039
0.000747413
0.000747413
0.000697192
0.000697192
0.000649365
0.000649365
0.000603917
0.000603917
0.000560804
0.000560804
0.000519981
0.000519981
0.000481411
0.000481411
0.00044504
0.00044504
0.0004108
0.0004108
0.000378625
0.000378625
0.000348442
0.000348442
0.000320175
0.000320175
0.000293747
0.000293747
0.000269077
0.000269077
0.000246085
0.000246085
0.000224692
0.000224692
0.000204816
0.000204816
0.00018638
0.00018638
0.000169307
0.000169307
0.00015352
0.00015352
0.000138945
0.000138945
0.000125512
0.000125512
0.00011315
0.00011315
0.000101794
0.000101794
9.13794e-05
9.13794e-05
8.18445e-05
8.18446e-05
7.31311e-05
7.31312e-05
6.51831e-05
6.51831e-05
5.79472e-05
5.79472e-05
5.13727e-05
5.13727e-05
4.54119e-05
4.54119e-05
4.00192e-05
4.00192e-05
3.51517e-05
3.51517e-05
3.07692e-05
3.07692e-05
2.68334e-05
2.68334e-05
2.33085e-05
2.33086e-05
2.0161e-05
2.0161e-05
1.73592e-05
1.73592e-05
1.48735e-05
1.48735e-05
1.26761e-05
1.26761e-05
1.07412e-05
1.07412e-05
9.04473e-06
9.04473e-06
7.56409e-06
7.56409e-06
6.27833e-06
6.27833e-06
5.16796e-06
5.16796e-06
4.21494e-06
4.21494e-06
3.40249e-06
3.4025e-06
2.71516e-06
2.71516e-06
2.13862e-06
2.13862e-06
1.65969e-06
1.65969e-06
1.26624e-06
1.26624e-06
9.47133e-07
9.47133e-07
6.92166e-07
6.92166e-07
4.92025e-07
4.92025e-07
3.38228e-07
3.38228e-07
2.23082e-07
2.23082e-07
1.39636e-07
1.39636e-07
8.16403e-08
8.16404e-08
4.35187e-08
4.35187e-08
2.03326e-08
2.03326e-08
7.76358e-09
7.76358e-09
2.10644e-09
2.10645e-09
2.93557e-10
2.93557e-10
9.78214e-12
9.78214e-12
)
;

boundaryField
{
    walls
    {
        type            kqRWallFunction;
        value           nonuniform List<scalar> 8(9.78204e-12 9.78228e-12 9.78203e-12 9.78227e-12 9.78239e-12 9.78214e-12 9.78239e-12 9.78214e-12);
    }
    inlet
    {
        type            cyclic;
    }
    outlet
    {
        type            cyclic;
    }
    sides
    {
        type            empty;
    }
}


// ************************************************************************* //
