/*--------------------------------*- C++ -*----------------------------------*\
| =========                 |                                                 |
| \\      /  F ield         | OpenFOAM: The Open Source CFD Toolbox           |
|  \\    /   O peration     | Version:  2106                                  |
|   \\  /    A nd           | Website:  www.openfoam.com                      |
|    \\/     M anipulation  |                                                 |
\*---------------------------------------------------------------------------*/
FoamFile
{
    version     2.0;
    format      ascii;
    arch        "LSB;label=32;scalar=64";
    class       volScalarField;
    location    "30000";
    object      nut;
}
// * * * * * * * * * * * * * * * * * * * * * * * * * * * * * * * * * * * * * //

dimensions      [0 2 -1 0 0 0 0];

internalField   nonuniform List<scalar> 
2560
(
6.41801e-18
6.41801e-18
1.10704e-15
1.10704e-15
2.34344e-14
2.34344e-14
1.83166e-13
1.83166e-13
8.46377e-13
8.46377e-13
2.85251e-12
2.85251e-12
7.80779e-12
7.80779e-12
1.84557e-11
1.84557e-11
3.91344e-11
3.91344e-11
7.63329e-11
7.63329e-11
1.39359e-10
1.39359e-10
2.41134e-10
2.41134e-10
3.99132e-10
3.99132e-10
6.36483e-10
6.36483e-10
9.83256e-10
9.83255e-10
1.47795e-09
1.47794e-09
2.1692e-09
2.1692e-09
3.11778e-09
3.11778e-09
4.39887e-09
4.39887e-09
6.10457e-09
6.10457e-09
8.34697e-09
8.34697e-09
1.12613e-08
1.12613e-08
1.50099e-08
1.50099e-08
1.97863e-08
1.97863e-08
2.582e-08
2.582e-08
3.33817e-08
3.33817e-08
4.27894e-08
4.27894e-08
5.44151e-08
5.44151e-08
6.86917e-08
6.86917e-08
8.61215e-08
8.61215e-08
1.07285e-07
1.07285e-07
1.32851e-07
1.32851e-07
1.63586e-07
1.63586e-07
2.00368e-07
2.00368e-07
2.44199e-07
2.44199e-07
2.96218e-07
2.96218e-07
3.57715e-07
3.57715e-07
4.30151e-07
4.30151e-07
5.1517e-07
5.1517e-07
6.14622e-07
6.14622e-07
7.3058e-07
7.3058e-07
8.65361e-07
8.6536e-07
1.02154e-06
1.02154e-06
1.202e-06
1.202e-06
1.40991e-06
1.40991e-06
1.64878e-06
1.64878e-06
1.92248e-06
1.92248e-06
2.23525e-06
2.23525e-06
2.59174e-06
2.59174e-06
2.997e-06
2.997e-06
3.45654e-06
3.45654e-06
3.97631e-06
3.97631e-06
4.56271e-06
4.56271e-06
5.22263e-06
5.22263e-06
5.96342e-06
5.96342e-06
6.7929e-06
6.7929e-06
7.71934e-06
7.71934e-06
8.75141e-06
8.75141e-06
9.89827e-06
9.89827e-06
1.11693e-05
1.11693e-05
1.25743e-05
1.25743e-05
1.41232e-05
1.41232e-05
1.58264e-05
1.58264e-05
1.76943e-05
1.76943e-05
1.97371e-05
1.97371e-05
2.19655e-05
2.19655e-05
2.43897e-05
2.43897e-05
2.70189e-05
2.70189e-05
2.98625e-05
2.98625e-05
3.29299e-05
3.29299e-05
3.62301e-05
3.62301e-05
3.97716e-05
3.97716e-05
4.35611e-05
4.3561e-05
4.76045e-05
4.76045e-05
5.19082e-05
5.19082e-05
5.64776e-05
5.64776e-05
6.13173e-05
6.13173e-05
6.64311e-05
6.64311e-05
7.18218e-05
7.18218e-05
7.74914e-05
7.74914e-05
8.34407e-05
8.34407e-05
8.96699e-05
8.96699e-05
9.61777e-05
9.61777e-05
0.000102962
0.000102962
0.000110019
0.000110019
0.000117349
0.000117349
0.000124949
0.000124949
0.000132817
0.000132817
0.000140942
0.000140942
0.000149309
0.000149309
0.000157908
0.000157908
0.000166734
0.000166734
0.000175779
0.000175779
0.000185039
0.000185039
0.000194504
0.000194504
0.000204168
0.000204168
0.000214027
0.000214027
0.000224076
0.000224076
0.000234311
0.000234311
0.00024473
0.00024473
0.000255323
0.000255323
0.000266089
0.000266089
0.000277034
0.000277034
0.000288169
0.000288169
0.000299503
0.000299503
0.000311038
0.000311038
0.000322773
0.000322772
0.000334702
0.000334702
0.000346821
0.000346821
0.000359121
0.000359121
0.000371595
0.000371595
0.000384233
0.000384233
0.000397026
0.000397026
0.000409966
0.000409966
0.000423041
0.000423041
0.000436239
0.000436239
0.000449549
0.000449549
0.00046296
0.00046296
0.000476445
0.000476445
0.00048998
0.00048998
0.000503538
0.000503538
0.000517095
0.000517095
0.000530619
0.000530619
0.000544092
0.000544092
0.000557513
0.000557513
0.000570893
0.000570893
0.00058426
0.00058426
0.000597645
0.000597645
0.000611084
0.000611084
0.000624599
0.000624599
0.000638199
0.000638199
0.000651888
0.000651888
0.000665669
0.000665669
0.000679545
0.000679545
0.000693518
0.000693518
0.000707592
0.000707592
0.000721769
0.000721768
0.000736047
0.000736047
0.000750431
0.000750431
0.000764924
0.000764924
0.000779533
0.000779533
0.000794259
0.000794259
0.000809103
0.000809103
0.000824063
0.000824063
0.000839136
0.000839136
0.000854321
0.000854321
0.000869615
0.000869615
0.000885013
0.000885013
0.000900513
0.000900513
0.00091611
0.00091611
0.0009318
0.0009318
0.000947578
0.000947578
0.000963437
0.000963437
0.000979371
0.000979371
0.000995373
0.000995373
0.00101143
0.00101143
0.00102755
0.00102755
0.0010437
0.0010437
0.00105988
0.00105988
0.00107607
0.00107607
0.00109227
0.00109227
0.00110844
0.00110844
0.00112459
0.00112458
0.00114067
0.00114067
0.00115667
0.00115667
0.0011726
0.0011726
0.00118847
0.00118846
0.00120432
0.00120431
0.00122024
0.00122025
0.00123636
0.00123636
0.00125275
0.00125275
0.0012695
0.0012695
0.00128666
0.00128666
0.00130427
0.00130427
0.0013223
0.0013223
0.00134077
0.00134077
0.00135967
0.00135967
0.00137899
0.00137899
0.00139872
0.00139872
0.00141885
0.00141885
0.00143937
0.00143937
0.00146027
0.00146027
0.00148155
0.00148155
0.00150319
0.00150319
0.00152518
0.00152518
0.00154751
0.00154751
0.00157016
0.00157016
0.00159312
0.00159312
0.00161638
0.00161638
0.00163994
0.00163994
0.00166379
0.00166379
0.00168791
0.00168791
0.0017123
0.0017123
0.00173695
0.00173695
0.00176186
0.00176186
0.00178702
0.00178702
0.00181243
0.00181243
0.00183807
0.00183807
0.00186395
0.00186395
0.00189006
0.00189006
0.00191639
0.00191639
0.00194294
0.00194294
0.00196971
0.00196971
0.00199669
0.00199669
0.00202387
0.00202387
0.00205125
0.00205125
0.00207883
0.00207883
0.0021066
0.0021066
0.00213456
0.00213456
0.00216269
0.00216269
0.002191
0.002191
0.00221948
0.00221948
0.00224813
0.00224813
0.00227692
0.00227692
0.00230587
0.00230587
0.00233495
0.00233495
0.00236416
0.00236416
0.00239349
0.00239349
0.00242293
0.00242293
0.00245247
0.00245247
0.00248208
0.00248208
0.00251176
0.00251176
0.00254149
0.00254149
0.00257127
0.00257127
0.00260108
0.00260108
0.00263096
0.00263096
0.00266093
0.00266093
0.00269102
0.00269102
0.00272126
0.00272126
0.00275166
0.00275166
0.00278222
0.00278222
0.00281292
0.00281292
0.00284373
0.00284373
0.00287465
0.00287465
0.00290564
0.00290564
0.00293669
0.0029367
0.00296779
0.00296779
0.00299892
0.00299892
0.00303006
0.00303006
0.00306119
0.00306119
0.00309229
0.00309229
0.00312336
0.00312336
0.00315437
0.00315437
0.00318531
0.00318531
0.00321615
0.00321615
0.00324689
0.00324689
0.0032775
0.0032775
0.00330796
0.00330796
0.00333827
0.00333827
0.00336838
0.00336838
0.0033983
0.0033983
0.00342799
0.00342799
0.00345744
0.00345744
0.00348662
0.00348662
0.00351551
0.00351551
0.00354409
0.00354409
0.00357233
0.00357233
0.0036002
0.0036002
0.00362769
0.00362769
0.00365477
0.00365477
0.0036814
0.0036814
0.00370755
0.00370755
0.00373321
0.00373321
0.00375833
0.00375833
0.00378288
0.00378288
0.00380683
0.00380683
0.00383015
0.00383015
0.00385279
0.00385279
0.00387473
0.00387473
0.00389592
0.00389592
0.00391632
0.00391632
0.00393589
0.00393589
0.00395458
0.00395458
0.00397236
0.00397236
0.00398917
0.00398917
0.00400497
0.00400497
0.00401971
0.00401971
0.00403334
0.00403334
0.00404582
0.00404582
0.0040571
0.0040571
0.00406713
0.00406713
0.00407587
0.00407587
0.00408329
0.00408329
0.00408935
0.00408935
0.00409404
0.00409404
0.00409737
0.00409737
0.00409935
0.00409935
0.00410006
0.00410006
0.00409961
0.00409961
0.00409817
0.00409817
0.00409602
0.00409602
0.00409357
0.00409357
0.00409139
0.00409139
0.0040904
0.0040904
0.00409115
0.00409115
0.00409516
0.00409516
0.00410239
0.00410239
0.00411154
0.00411154
0.00411817
0.00411817
0.00412065
0.00412065
0.00411947
0.00411947
0.00411616
0.00411616
0.00411228
0.00411228
0.00410819
0.00410819
0.00410285
0.00410285
0.00409534
0.00409534
0.00408555
0.00408555
0.00407393
0.00407393
0.00406129
0.00406129
0.00404837
0.00404837
0.00403549
0.00403549
0.0040229
0.0040229
0.0040109
0.0040109
0.00399974
0.00399974
0.00398969
0.00398969
0.00398088
0.00398088
0.00397348
0.00397348
0.00396764
0.00396764
0.00396357
0.00396357
0.00396143
0.00396143
6.41817e-18
6.41817e-18
1.10707e-15
1.10707e-15
2.3435e-14
2.3435e-14
1.8317e-13
1.8317e-13
8.46398e-13
8.46397e-13
2.85258e-12
2.85258e-12
7.80798e-12
7.80798e-12
1.84562e-11
1.84562e-11
3.91354e-11
3.91354e-11
7.63348e-11
7.63348e-11
1.39362e-10
1.39362e-10
2.4114e-10
2.4114e-10
3.99142e-10
3.99142e-10
6.36499e-10
6.36499e-10
9.8328e-10
9.8328e-10
1.47798e-09
1.47798e-09
2.16925e-09
2.16925e-09
3.11786e-09
3.11786e-09
4.39898e-09
4.39897e-09
6.10473e-09
6.10472e-09
8.34718e-09
8.34717e-09
1.12616e-08
1.12616e-08
1.50103e-08
1.50103e-08
1.97868e-08
1.97868e-08
2.58206e-08
2.58206e-08
3.33825e-08
3.33825e-08
4.27905e-08
4.27905e-08
5.44165e-08
5.44164e-08
6.86934e-08
6.86934e-08
8.61237e-08
8.61237e-08
1.07288e-07
1.07288e-07
1.32854e-07
1.32854e-07
1.6359e-07
1.6359e-07
2.00373e-07
2.00373e-07
2.44205e-07
2.44205e-07
2.96225e-07
2.96225e-07
3.57724e-07
3.57724e-07
4.30162e-07
4.30161e-07
5.15183e-07
5.15183e-07
6.14638e-07
6.14637e-07
7.30599e-07
7.30598e-07
8.65382e-07
8.65382e-07
1.02157e-06
1.02157e-06
1.20203e-06
1.20203e-06
1.40994e-06
1.40994e-06
1.64882e-06
1.64882e-06
1.92252e-06
1.92252e-06
2.2353e-06
2.2353e-06
2.5918e-06
2.5918e-06
2.99708e-06
2.99708e-06
3.45663e-06
3.45663e-06
3.9764e-06
3.9764e-06
4.56282e-06
4.56282e-06
5.22275e-06
5.22275e-06
5.96356e-06
5.96356e-06
6.79306e-06
6.79306e-06
7.71952e-06
7.71952e-06
8.75162e-06
8.75161e-06
9.89849e-06
9.89849e-06
1.11696e-05
1.11696e-05
1.25746e-05
1.25746e-05
1.41235e-05
1.41235e-05
1.58268e-05
1.58267e-05
1.76946e-05
1.76946e-05
1.97375e-05
1.97375e-05
2.1966e-05
2.1966e-05
2.43902e-05
2.43902e-05
2.70195e-05
2.70195e-05
2.98631e-05
2.98631e-05
3.29305e-05
3.29305e-05
3.62308e-05
3.62308e-05
3.97723e-05
3.97723e-05
4.35618e-05
4.35618e-05
4.76053e-05
4.76053e-05
5.1909e-05
5.1909e-05
5.64785e-05
5.64785e-05
6.13182e-05
6.13182e-05
6.64321e-05
6.64321e-05
7.18229e-05
7.18229e-05
7.74925e-05
7.74925e-05
8.34418e-05
8.34418e-05
8.96711e-05
8.9671e-05
9.61789e-05
9.61789e-05
0.000102963
0.000102963
0.000110021
0.000110021
0.00011735
0.00011735
0.000124951
0.000124951
0.000132819
0.000132819
0.000140944
0.000140944
0.000149311
0.000149311
0.00015791
0.00015791
0.000166735
0.000166735
0.000175781
0.000175781
0.000185041
0.000185041
0.000194506
0.000194506
0.00020417
0.00020417
0.000214029
0.000214029
0.000224078
0.000224078
0.000234314
0.000234314
0.000244732
0.000244732
0.000255326
0.000255326
0.000266092
0.000266092
0.000277037
0.000277037
0.000288172
0.000288172
0.000299506
0.000299506
0.000311041
0.000311041
0.000322776
0.000322776
0.000334706
0.000334706
0.000346825
0.000346825
0.000359126
0.000359126
0.000371599
0.000371599
0.000384238
0.000384238
0.000397032
0.000397032
0.000409974
0.000409974
0.00042305
0.00042305
0.00043625
0.00043625
0.000449562
0.000449562
0.000462974
0.000462974
0.000476461
0.000476461
0.000489997
0.000489997
0.000503557
0.000503557
0.000517116
0.000517116
0.000530641
0.000530641
0.000544114
0.000544114
0.000557536
0.000557535
0.000570916
0.000570916
0.000584284
0.000584284
0.000597669
0.000597669
0.000611109
0.000611109
0.000624624
0.000624624
0.000638225
0.000638225
0.000651915
0.000651915
0.000665696
0.000665696
0.000679572
0.000679572
0.000693546
0.000693546
0.000707621
0.000707621
0.000721798
0.000721798
0.000736077
0.000736077
0.000750461
0.000750461
0.000764955
0.000764955
0.000779564
0.000779564
0.00079429
0.00079429
0.000809134
0.000809134
0.000824094
0.000824094
0.000839168
0.000839168
0.000854353
0.000854353
0.000869647
0.000869646
0.000885045
0.000885045
0.000900546
0.000900546
0.000916143
0.000916143
0.000931834
0.000931834
0.000947611
0.000947611
0.000963471
0.000963471
0.000979405
0.000979405
0.000995408
0.000995408
0.00101147
0.00101147
0.00102758
0.00102758
0.00104373
0.00104373
0.00105992
0.00105991
0.00107611
0.00107611
0.0010923
0.0010923
0.00110848
0.00110848
0.00112462
0.00112462
0.00114071
0.00114071
0.00115672
0.00115672
0.00117264
0.00117264
0.00118851
0.00118851
0.00120436
0.00120436
0.00122029
0.00122029
0.0012364
0.0012364
0.00125279
0.00125279
0.00126954
0.00126954
0.00128671
0.00128671
0.00130431
0.00130431
0.00132235
0.00132235
0.00134082
0.00134082
0.00135972
0.00135972
0.00137904
0.00137904
0.00139877
0.00139877
0.0014189
0.0014189
0.00143942
0.00143942
0.00146032
0.00146032
0.0014816
0.0014816
0.00150325
0.00150325
0.00152524
0.00152524
0.00154756
0.00154756
0.00157021
0.00157021
0.00159318
0.00159318
0.00161644
0.00161644
0.00164
0.00164
0.00166385
0.00166385
0.00168797
0.00168797
0.00171236
0.00171236
0.00173701
0.00173701
0.00176193
0.00176192
0.00178709
0.00178709
0.00181249
0.00181249
0.00183814
0.00183814
0.00186402
0.00186402
0.00189013
0.00189013
0.00191646
0.00191646
0.00194301
0.00194301
0.00196978
0.00196978
0.00199676
0.00199676
0.00202394
0.00202394
0.00205132
0.00205132
0.0020789
0.00207891
0.00210668
0.00210668
0.00213463
0.00213463
0.00216277
0.00216277
0.00219108
0.00219108
0.00221956
0.00221956
0.0022482
0.0022482
0.002277
0.002277
0.00230594
0.00230594
0.00233503
0.00233503
0.00236424
0.00236424
0.00239357
0.00239357
0.00242301
0.00242301
0.00245255
0.00245255
0.00248216
0.00248216
0.00251184
0.00251184
0.00254157
0.00254157
0.00257135
0.00257135
0.00260117
0.00260117
0.00263104
0.00263104
0.00266101
0.00266101
0.00269111
0.00269111
0.00272135
0.00272135
0.00275175
0.00275175
0.00278231
0.00278231
0.00281301
0.00281301
0.00284383
0.00284383
0.00287474
0.00287474
0.00290574
0.00290574
0.00293679
0.00293679
0.00296789
0.00296789
0.00299902
0.00299902
0.00303016
0.00303016
0.00306129
0.00306129
0.0030924
0.0030924
0.00312347
0.00312347
0.00315448
0.00315448
0.00318541
0.00318541
0.00321626
0.00321626
0.003247
0.003247
0.00327761
0.00327761
0.00330807
0.00330807
0.00333838
0.00333838
0.00336849
0.00336849
0.00339841
0.00339841
0.0034281
0.0034281
0.00345755
0.00345755
0.00348673
0.00348673
0.00351562
0.00351562
0.0035442
0.0035442
0.00357244
0.00357244
0.00360031
0.00360031
0.0036278
0.0036278
0.00365487
0.00365487
0.0036815
0.0036815
0.00370766
0.00370766
0.00373331
0.00373331
0.00375843
0.00375843
0.00378298
0.00378298
0.00380693
0.00380693
0.00383025
0.00383025
0.00385289
0.00385289
0.00387482
0.00387482
0.00389601
0.00389601
0.00391641
0.00391641
0.00393597
0.00393597
0.00395466
0.00395466
0.00397243
0.00397243
0.00398924
0.00398924
0.00400504
0.00400504
0.00401978
0.00401978
0.0040334
0.0040334
0.00404588
0.00404588
0.00405715
0.00405715
0.00406717
0.00406717
0.0040759
0.0040759
0.0040833
0.0040833
0.00408935
0.00408935
0.00409403
0.00409403
0.00409734
0.00409734
0.00409932
0.00409932
0.00410001
0.00410001
0.00409954
0.00409954
0.00409809
0.00409809
0.00409593
0.00409593
0.00409345
0.00409345
0.00409124
0.00409124
0.00409042
0.00409042
0.00409133
0.00409133
0.00409551
0.00409551
0.00410293
0.00410293
0.004112
0.004112
0.00411853
0.00411853
0.00412093
0.00412093
0.00411968
0.00411968
0.00411633
0.00411633
0.00411242
0.00411242
0.00410831
0.00410831
0.00410293
0.00410293
0.00409539
0.00409539
0.00408555
0.00408555
0.0040739
0.0040739
0.00406122
0.00406122
0.00404827
0.00404827
0.00403534
0.00403534
0.00402271
0.00402271
0.00401062
0.00401062
0.00399936
0.00399936
0.0039894
0.0039894
0.00398069
0.00398069
0.00397335
0.00397335
0.00396757
0.00396757
0.00396354
0.00396354
0.0039614
0.0039614
0.00396141
0.00396141
0.00396352
0.00396352
0.00396754
0.00396754
0.0039733
0.0039733
0.00398064
0.00398064
0.00398936
0.00398936
0.00399932
0.00399932
0.00401058
0.00401058
0.00402268
0.00402268
0.00403531
0.00403531
0.00404825
0.00404825
0.00406119
0.00406119
0.00407388
0.00407388
0.00408553
0.00408553
0.00409538
0.00409538
0.00410291
0.00410291
0.00410829
0.00410829
0.00411241
0.00411241
0.00411632
0.00411632
0.00411967
0.00411967
0.00412092
0.00412092
0.00411852
0.00411852
0.00411198
0.00411198
0.00410292
0.00410292
0.0040955
0.0040955
0.00409132
0.00409132
0.0040904
0.0040904
0.00409123
0.00409123
0.00409344
0.00409344
0.00409591
0.00409591
0.00409808
0.00409808
0.00409953
0.00409953
0.0041
0.0041
0.00409931
0.00409931
0.00409733
0.00409733
0.00409402
0.00409402
0.00408934
0.00408934
0.0040833
0.0040833
0.00407589
0.00407589
0.00406716
0.00406716
0.00405714
0.00405714
0.00404587
0.00404587
0.0040334
0.0040334
0.00401977
0.00401977
0.00400503
0.00400503
0.00398923
0.00398923
0.00397243
0.00397243
0.00395465
0.00395465
0.00393596
0.00393596
0.0039164
0.0039164
0.003896
0.003896
0.00387482
0.00387482
0.00385288
0.00385288
0.00383024
0.00383024
0.00380693
0.00380693
0.00378298
0.00378298
0.00375842
0.00375842
0.00373331
0.00373331
0.00370765
0.00370765
0.0036815
0.0036815
0.00365487
0.00365487
0.0036278
0.0036278
0.00360031
0.00360031
0.00357243
0.00357243
0.00354419
0.00354419
0.00351561
0.00351561
0.00348672
0.00348672
0.00345754
0.00345754
0.0034281
0.0034281
0.0033984
0.0033984
0.00336849
0.00336849
0.00333837
0.00333837
0.00330807
0.00330807
0.0032776
0.0032776
0.00324699
0.00324699
0.00321626
0.00321626
0.00318541
0.00318541
0.00315447
0.00315447
0.00312346
0.00312346
0.00309239
0.00309239
0.00306129
0.00306129
0.00303016
0.00303016
0.00299902
0.00299902
0.00296789
0.00296789
0.00293679
0.00293679
0.00290573
0.00290573
0.00287474
0.00287474
0.00284382
0.00284382
0.00281301
0.00281301
0.00278231
0.00278231
0.00275175
0.00275175
0.00272135
0.00272135
0.00269111
0.00269111
0.00266101
0.00266101
0.00263104
0.00263104
0.00260117
0.00260117
0.00257135
0.00257135
0.00254157
0.00254157
0.00251184
0.00251184
0.00248216
0.00248216
0.00245255
0.00245255
0.00242301
0.00242301
0.00239357
0.00239357
0.00236424
0.00236424
0.00233503
0.00233503
0.00230594
0.00230594
0.002277
0.002277
0.0022482
0.0022482
0.00221956
0.00221956
0.00219108
0.00219108
0.00216277
0.00216277
0.00213463
0.00213463
0.00210668
0.00210668
0.00207891
0.00207891
0.00205133
0.00205133
0.00202394
0.00202394
0.00199676
0.00199676
0.00196978
0.00196978
0.00194301
0.00194301
0.00191646
0.00191646
0.00189013
0.00189013
0.00186402
0.00186402
0.00183814
0.00183814
0.00181249
0.00181249
0.00178709
0.00178709
0.00176193
0.00176193
0.00173702
0.00173702
0.00171236
0.00171236
0.00168797
0.00168797
0.00166385
0.00166385
0.00164
0.00164
0.00161644
0.00161645
0.00159318
0.00159318
0.00157022
0.00157022
0.00154757
0.00154757
0.00152524
0.00152524
0.00150325
0.00150325
0.00148161
0.00148161
0.00146032
0.00146033
0.00143942
0.00143942
0.0014189
0.0014189
0.00139877
0.00139877
0.00137904
0.00137904
0.00135972
0.00135972
0.00134082
0.00134082
0.00132235
0.00132235
0.00130431
0.00130431
0.00128671
0.00128671
0.00126954
0.00126954
0.00125279
0.00125279
0.0012364
0.0012364
0.00122029
0.00122029
0.00120436
0.00120436
0.00118851
0.00118851
0.00117265
0.00117265
0.00115672
0.00115672
0.00114071
0.00114071
0.00112463
0.00112463
0.00110849
0.00110849
0.00109231
0.00109231
0.00107611
0.00107611
0.00105992
0.00105992
0.00104374
0.00104374
0.00102759
0.00102759
0.00101147
0.00101147
0.000995411
0.000995411
0.000979409
0.000979409
0.000963474
0.000963474
0.000947615
0.000947615
0.000931837
0.000931837
0.000916147
0.000916146
0.000900549
0.000900549
0.000885048
0.000885048
0.00086965
0.000869649
0.000854356
0.000854356
0.000839171
0.00083917
0.000824097
0.000824097
0.000809137
0.000809137
0.000794293
0.000794293
0.000779567
0.000779567
0.000764958
0.000764958
0.000750464
0.000750463
0.00073608
0.00073608
0.0007218
0.0007218
0.000707623
0.000707623
0.000693549
0.000693549
0.000679575
0.000679575
0.000665699
0.000665699
0.000651917
0.000651917
0.000638228
0.000638228
0.000624627
0.000624627
0.000611111
0.000611111
0.000597672
0.000597672
0.000584286
0.000584286
0.000570919
0.000570919
0.000557538
0.000557538
0.000544117
0.000544117
0.000530644
0.000530644
0.000517119
0.000517119
0.000503561
0.000503561
0.000490001
0.000490001
0.000476464
0.000476464
0.000462978
0.000462978
0.000449566
0.000449565
0.000436253
0.000436253
0.000423054
0.000423054
0.000409977
0.000409977
0.000397036
0.000397036
0.000384242
0.000384242
0.000371603
0.000371603
0.000359129
0.000359129
0.000346829
0.000346829
0.000334709
0.000334709
0.00032278
0.000322779
0.000311045
0.000311045
0.000299509
0.000299509
0.000288175
0.000288175
0.000277041
0.00027704
0.000266095
0.000266095
0.000255329
0.000255329
0.000244735
0.000244735
0.000234317
0.000234316
0.00022408
0.00022408
0.000214031
0.000214031
0.000204172
0.000204172
0.000194508
0.000194508
0.000185042
0.000185042
0.000175783
0.000175783
0.000166737
0.000166737
0.000157911
0.000157911
0.000149312
0.000149312
0.000140945
0.000140945
0.000132819
0.000132819
0.000124952
0.000124952
0.000117351
0.000117351
0.000110021
0.000110021
0.000102963
0.000102963
9.61793e-05
9.61792e-05
8.96714e-05
8.96713e-05
8.34421e-05
8.34421e-05
7.74927e-05
7.74927e-05
7.18231e-05
7.18231e-05
6.64323e-05
6.64323e-05
6.13184e-05
6.13184e-05
5.64786e-05
5.64786e-05
5.19092e-05
5.19092e-05
4.76055e-05
4.76054e-05
4.35619e-05
4.35619e-05
3.97724e-05
3.97724e-05
3.62309e-05
3.62309e-05
3.29306e-05
3.29306e-05
2.98632e-05
2.98632e-05
2.70196e-05
2.70196e-05
2.43903e-05
2.43903e-05
2.19661e-05
2.19661e-05
1.97376e-05
1.97376e-05
1.76948e-05
1.76948e-05
1.58269e-05
1.58269e-05
1.41236e-05
1.41236e-05
1.25747e-05
1.25747e-05
1.11697e-05
1.11697e-05
9.8986e-06
9.8986e-06
8.75172e-06
8.75172e-06
7.71962e-06
7.71961e-06
6.79316e-06
6.79315e-06
5.96365e-06
5.96365e-06
5.22283e-06
5.22283e-06
4.56289e-06
4.56289e-06
3.97647e-06
3.97647e-06
3.45668e-06
3.45668e-06
2.99713e-06
2.99713e-06
2.59185e-06
2.59185e-06
2.23534e-06
2.23534e-06
1.92256e-06
1.92256e-06
1.64885e-06
1.64885e-06
1.40997e-06
1.40997e-06
1.20205e-06
1.20205e-06
1.02159e-06
1.02159e-06
8.65399e-07
8.65399e-07
7.30613e-07
7.30613e-07
6.1465e-07
6.1465e-07
5.15193e-07
5.15193e-07
4.3017e-07
4.3017e-07
3.57731e-07
3.57731e-07
2.96231e-07
2.96231e-07
2.4421e-07
2.4421e-07
2.00377e-07
2.00377e-07
1.63593e-07
1.63593e-07
1.32857e-07
1.32857e-07
1.0729e-07
1.0729e-07
8.61255e-08
8.61255e-08
6.86949e-08
6.86949e-08
5.44176e-08
5.44176e-08
4.27914e-08
4.27914e-08
3.33832e-08
3.33832e-08
2.58212e-08
2.58212e-08
1.97872e-08
1.97872e-08
1.50106e-08
1.50106e-08
1.12618e-08
1.12618e-08
8.34735e-09
8.34735e-09
6.10486e-09
6.10485e-09
4.39907e-09
4.39907e-09
3.11793e-09
3.11793e-09
2.1693e-09
2.1693e-09
1.47801e-09
1.47801e-09
9.833e-10
9.83299e-10
6.36513e-10
6.36512e-10
3.99151e-10
3.99151e-10
2.41145e-10
2.41145e-10
1.39365e-10
1.39365e-10
7.63363e-11
7.63363e-11
3.91362e-11
3.91362e-11
1.84566e-11
1.84566e-11
7.80814e-12
7.80814e-12
2.85264e-12
2.85263e-12
8.46416e-13
8.46415e-13
1.83173e-13
1.83173e-13
2.34354e-14
2.34354e-14
1.10708e-15
1.10708e-15
6.41821e-18
6.4182e-18
0.00396138
0.00396138
0.00396353
0.00396353
0.0039676
0.0039676
0.00397345
0.00397345
0.00398085
0.00398085
0.00398966
0.00398966
0.00399972
0.00399972
0.00401088
0.00401088
0.00402288
0.00402288
0.00403547
0.00403547
0.00404835
0.00404835
0.00406127
0.00406127
0.00407391
0.00407391
0.00408553
0.00408553
0.00409533
0.00409533
0.00410284
0.00410284
0.00410818
0.00410818
0.00411227
0.00411227
0.00411615
0.00411615
0.00411946
0.00411946
0.00412064
0.00412064
0.00411816
0.00411816
0.00411153
0.00411153
0.00410238
0.00410238
0.00409515
0.00409515
0.00409114
0.00409114
0.00409039
0.00409039
0.00409137
0.00409137
0.00409356
0.00409356
0.00409601
0.00409601
0.00409816
0.00409816
0.0040996
0.0040996
0.00410005
0.00410005
0.00409934
0.00409934
0.00409736
0.00409736
0.00409403
0.00409403
0.00408934
0.00408934
0.00408328
0.00408328
0.00407586
0.00407586
0.00406712
0.00406712
0.00405709
0.00405709
0.00404582
0.00404582
0.00403334
0.00403334
0.0040197
0.0040197
0.00400496
0.00400496
0.00398916
0.00398916
0.00397235
0.00397235
0.00395457
0.00395457
0.00393588
0.00393588
0.00391631
0.00391631
0.00389591
0.00389591
0.00387472
0.00387472
0.00385279
0.00385279
0.00383014
0.00383014
0.00380683
0.00380683
0.00378287
0.00378287
0.00375832
0.00375832
0.0037332
0.0037332
0.00370755
0.00370755
0.00368139
0.00368139
0.00365476
0.00365476
0.00362769
0.00362769
0.0036002
0.0036002
0.00357232
0.00357232
0.00354408
0.00354408
0.0035155
0.0035155
0.00348661
0.00348661
0.00345743
0.00345743
0.00342799
0.00342799
0.00339829
0.00339829
0.00336838
0.00336838
0.00333826
0.00333826
0.00330796
0.00330796
0.0032775
0.0032775
0.00324689
0.00324689
0.00321615
0.00321615
0.0031853
0.0031853
0.00315437
0.00315437
0.00312336
0.00312336
0.00309229
0.00309229
0.00306119
0.00306119
0.00303006
0.00303006
0.00299892
0.00299892
0.00296779
0.00296779
0.00293669
0.00293669
0.00290564
0.00290564
0.00287464
0.00287464
0.00284373
0.00284373
0.00281291
0.00281291
0.00278222
0.00278222
0.00275166
0.00275166
0.00272126
0.00272126
0.00269102
0.00269102
0.00266093
0.00266093
0.00263096
0.00263096
0.00260108
0.00260108
0.00257127
0.00257127
0.00254149
0.00254149
0.00251176
0.00251176
0.00248208
0.00248208
0.00245247
0.00245247
0.00242293
0.00242293
0.00239349
0.00239349
0.00236416
0.00236416
0.00233495
0.00233495
0.00230587
0.00230587
0.00227692
0.00227692
0.00224813
0.00224813
0.00221948
0.00221948
0.002191
0.002191
0.00216269
0.00216269
0.00213456
0.00213456
0.0021066
0.0021066
0.00207883
0.00207883
0.00205125
0.00205125
0.00202387
0.00202387
0.00199669
0.00199669
0.00196971
0.00196971
0.00194294
0.00194294
0.00191639
0.00191639
0.00189006
0.00189006
0.00186395
0.00186395
0.00183807
0.00183807
0.00181243
0.00181243
0.00178702
0.00178702
0.00176186
0.00176186
0.00173695
0.00173695
0.0017123
0.0017123
0.00168791
0.00168791
0.00166379
0.00166379
0.00163994
0.00163995
0.00161639
0.00161639
0.00159312
0.00159312
0.00157016
0.00157016
0.00154751
0.00154751
0.00152518
0.00152518
0.00150319
0.00150319
0.00148155
0.00148155
0.00146027
0.00146027
0.00143937
0.00143937
0.00141885
0.00141885
0.00139872
0.00139872
0.001379
0.001379
0.00135968
0.00135968
0.00134078
0.00134078
0.00132231
0.00132231
0.00130427
0.00130427
0.00128667
0.00128667
0.0012695
0.0012695
0.00125275
0.00125275
0.00123636
0.00123636
0.00122025
0.00122025
0.00120432
0.00120432
0.00118847
0.00118847
0.0011726
0.00117261
0.00115668
0.00115668
0.00114067
0.00114067
0.00112459
0.00112459
0.00110845
0.00110845
0.00109227
0.00109227
0.00107607
0.00107608
0.00105988
0.00105988
0.0010437
0.0010437
0.00102755
0.00102755
0.00101144
0.00101144
0.000995375
0.000995375
0.000979373
0.000979373
0.000963439
0.000963439
0.00094758
0.00094758
0.000931802
0.000931802
0.000916112
0.000916112
0.000900515
0.000900515
0.000885015
0.000885015
0.000869616
0.000869616
0.000854323
0.000854323
0.000839138
0.000839138
0.000824064
0.000824064
0.000809105
0.000809105
0.000794261
0.000794261
0.000779535
0.000779535
0.000764926
0.000764926
0.000750432
0.000750432
0.000736049
0.000736049
0.00072177
0.00072177
0.000707594
0.000707594
0.000693519
0.000693519
0.000679546
0.000679546
0.000665671
0.000665671
0.00065189
0.00065189
0.000638201
0.000638201
0.000624601
0.000624601
0.000611085
0.000611086
0.000597646
0.000597647
0.000584262
0.000584262
0.000570895
0.000570895
0.000557515
0.000557515
0.000544094
0.000544094
0.000530621
0.000530621
0.000517098
0.000517098
0.000503541
0.000503541
0.000489983
0.000489983
0.000476448
0.000476448
0.000462963
0.000462963
0.000449552
0.000449552
0.000436242
0.000436242
0.000423044
0.000423044
0.000409969
0.000409969
0.000397029
0.000397029
0.000384235
0.000384236
0.000371598
0.000371598
0.000359124
0.000359124
0.000346824
0.000346824
0.000334705
0.000334705
0.000322775
0.000322775
0.000311041
0.000311041
0.000299506
0.000299506
0.000288172
0.000288172
0.000277037
0.000277037
0.000266092
0.000266092
0.000255326
0.000255326
0.000244732
0.000244732
0.000234314
0.000234314
0.000224078
0.000224078
0.000214029
0.000214029
0.00020417
0.00020417
0.000194505
0.000194505
0.00018504
0.00018504
0.000175781
0.000175781
0.000166735
0.000166735
0.000157909
0.000157909
0.00014931
0.00014931
0.000140943
0.000140943
0.000132818
0.000132818
0.00012495
0.00012495
0.000117349
0.000117349
0.00011002
0.00011002
0.000102962
0.000102962
9.61778e-05
9.61778e-05
8.967e-05
8.967e-05
8.34408e-05
8.34408e-05
7.74915e-05
7.74915e-05
7.18219e-05
7.18219e-05
6.64312e-05
6.64312e-05
6.13173e-05
6.13173e-05
5.64776e-05
5.64776e-05
5.19082e-05
5.19082e-05
4.76046e-05
4.76046e-05
4.35611e-05
4.35611e-05
3.97716e-05
3.97716e-05
3.62302e-05
3.62302e-05
3.29299e-05
3.29299e-05
2.98626e-05
2.98626e-05
2.7019e-05
2.7019e-05
2.43898e-05
2.43898e-05
2.19656e-05
2.19656e-05
1.97372e-05
1.97372e-05
1.76944e-05
1.76944e-05
1.58265e-05
1.58265e-05
1.41233e-05
1.41233e-05
1.25744e-05
1.25744e-05
1.11694e-05
1.11694e-05
9.89836e-06
9.89836e-06
8.7515e-06
8.7515e-06
7.71942e-06
7.71942e-06
6.79299e-06
6.79299e-06
5.9635e-06
5.9635e-06
5.2227e-06
5.2227e-06
4.56277e-06
4.56277e-06
3.97636e-06
3.97637e-06
3.4566e-06
3.4566e-06
2.99705e-06
2.99705e-06
2.59178e-06
2.59178e-06
2.23529e-06
2.23529e-06
1.92251e-06
1.92251e-06
1.64881e-06
1.64881e-06
1.40993e-06
1.40993e-06
1.20202e-06
1.20202e-06
1.02156e-06
1.02156e-06
8.65377e-07
8.65377e-07
7.30594e-07
7.30594e-07
6.14634e-07
6.14634e-07
5.1518e-07
5.1518e-07
4.30159e-07
4.30159e-07
3.57722e-07
3.57722e-07
2.96224e-07
2.96224e-07
2.44204e-07
2.44204e-07
2.00372e-07
2.00372e-07
1.63589e-07
1.63589e-07
1.32853e-07
1.32853e-07
1.07287e-07
1.07287e-07
8.61233e-08
8.61233e-08
6.86931e-08
6.86931e-08
5.44162e-08
5.44162e-08
4.27903e-08
4.27903e-08
3.33824e-08
3.33824e-08
2.58205e-08
2.58205e-08
1.97867e-08
1.97867e-08
1.50102e-08
1.50102e-08
1.12615e-08
1.12615e-08
8.34713e-09
8.34714e-09
6.1047e-09
6.1047e-09
4.39895e-09
4.39895e-09
3.11785e-09
3.11785e-09
2.16924e-09
2.16924e-09
1.47797e-09
1.47797e-09
9.83274e-10
9.83275e-10
6.36496e-10
6.36496e-10
3.9914e-10
3.9914e-10
2.41138e-10
2.41139e-10
1.39361e-10
1.39361e-10
7.63343e-11
7.63343e-11
3.91352e-11
3.91352e-11
1.84561e-11
1.84561e-11
7.80794e-12
7.80794e-12
2.85256e-12
2.85256e-12
8.46394e-13
8.46394e-13
1.83169e-13
1.83169e-13
2.34348e-14
2.34348e-14
1.10705e-15
1.10705e-15
6.41804e-18