/*--------------------------------*- C++ -*----------------------------------*\
| =========                 |                                                 |
| \\      /  F ield         | OpenFOAM: The Open Source CFD Toolbox           |
|  \\    /   O peration     | Version:  2106                                  |
|   \\  /    A nd           | Website:  www.openfoam.com                      |
|    \\/     M anipulation  |                                                 |
\*---------------------------------------------------------------------------*/
FoamFile
{
    version     2.0;
    format      ascii;
    arch        "LSB;label=32;scalar=64";
    class       volScalarField;
    location    "30000";
    object      omega;
}
// * * * * * * * * * * * * * * * * * * * * * * * * * * * * * * * * * * * * * //

dimensions      [0 0 -1 0 0 0 0];

internalField   nonuniform List<scalar> 
2560
(
1.52415e+06
1.52415e+06
265169
265169
89885.1
89885.1
42384.8
42384.8
24022.6
24022.6
15256
15256
10456.1
10456.1
7565.83
7565.83
5700.3
5700.3
4430.88
4430.88
3530.56
3530.56
2870.41
2870.41
2372.93
2372.93
1989.39
1989.39
1687.92
1687.92
1446.99
1446.99
1251.66
1251.66
1091.3
1091.3
958.168
958.168
846.555
846.555
752.154
752.154
671.675
671.675
602.572
602.572
542.851
542.851
490.932
490.932
445.548
445.548
405.681
405.681
370.497
370.497
339.314
339.314
311.569
311.569
286.793
286.793
264.591
264.591
244.632
244.632
226.638
226.638
210.368
210.368
195.62
195.62
182.217
182.217
170.009
170.009
158.866
158.866
148.673
148.673
139.331
139.331
130.753
130.753
122.862
122.862
115.593
115.593
108.884
108.884
102.684
102.684
96.9462
96.9462
91.6283
91.6283
86.6937
86.6937
82.1089
82.1089
77.8442
77.8442
73.8729
73.8729
70.171
70.171
66.7166
66.7166
63.4901
63.4901
60.4739
60.4739
57.6516
57.6516
55.0086
55.0086
52.5317
52.5317
50.2085
50.2085
48.0273
48.0273
45.978
45.978
44.0518
44.0518
42.2399
42.2399
40.5343
40.5343
38.9283
38.9283
37.4154
37.4154
35.9881
35.9881
34.6403
34.6403
33.3671
33.3671
32.1641
32.1641
31.0271
31.0271
29.9514
29.9514
28.9325
28.9325
27.9669
27.9669
27.0516
27.0516
26.1837
26.1837
25.3604
25.3604
24.5792
24.5792
23.8376
23.8376
23.1333
23.1333
22.4641
22.4641
21.8281
21.8281
21.2229
21.2229
20.6468
20.6468
20.0984
20.0984
19.5767
19.5767
19.0802
19.0802
18.6069
18.6069
18.1538
18.1538
17.7192
17.7192
17.3018
17.3018
16.9007
16.9007
16.5146
16.5146
16.1424
16.1424
15.783
15.7831
15.4359
15.4359
15.1002
15.1002
14.7753
14.7753
14.4607
14.4607
14.1556
14.1556
13.8594
13.8594
13.5723
13.5723
13.2945
13.2945
13.0265
13.0265
12.7679
12.7679
12.5186
12.5186
12.2781
12.2781
12.0462
12.0462
11.8223
11.8223
11.606
11.606
11.3969
11.3969
11.1946
11.1946
10.9988
10.9988
10.8088
10.8088
10.6245
10.6245
10.4453
10.4453
10.2708
10.2708
10.1005
10.1005
9.93358
9.93358
9.76942
9.76942
9.60739
9.60739
9.44677
9.44677
9.28711
9.28711
9.1283
9.12831
8.97049
8.97049
8.81404
8.81404
8.65941
8.65941
8.5071
8.5071
8.35738
8.35738
8.21029
8.21029
8.06584
8.06584
7.92398
7.92398
7.7847
7.7847
7.64796
7.64796
7.51375
7.51375
7.38201
7.38201
7.25269
7.25269
7.12576
7.12576
7.00123
7.00123
6.87908
6.87908
6.7593
6.7593
6.64182
6.64182
6.52659
6.52659
6.41355
6.41355
6.30263
6.30263
6.19376
6.19376
6.08688
6.08688
5.98192
5.98192
5.87881
5.87881
5.77748
5.77748
5.67787
5.67787
5.57989
5.57989
5.48347
5.48347
5.38855
5.38855
5.29503
5.29503
5.20283
5.20283
5.11187
5.11187
5.02205
5.02205
4.93328
4.93328
4.84545
4.84544
4.75845
4.75844
4.67216
4.67216
4.58646
4.58645
4.50125
4.50124
4.41648
4.41647
4.33218
4.33217
4.24853
4.24853
4.16585
4.16585
4.08449
4.08449
4.00474
4.00474
3.92684
3.92684
3.85093
3.85093
3.77701
3.77701
3.70503
3.70503
3.63493
3.63492
3.56665
3.56665
3.50012
3.50012
3.43528
3.43528
3.37204
3.37204
3.31035
3.31035
3.25017
3.25017
3.19144
3.19144
3.13408
3.13408
3.07805
3.07805
3.02329
3.02329
2.96973
2.96973
2.91734
2.91734
2.86607
2.86608
2.81589
2.81589
2.76674
2.76674
2.7186
2.7186
2.67143
2.67143
2.62521
2.62521
2.57989
2.5799
2.53547
2.53547
2.49191
2.49191
2.44919
2.44919
2.40728
2.40728
2.36616
2.36616
2.32582
2.32582
2.28622
2.28622
2.24737
2.24737
2.20923
2.20923
2.17178
2.17178
2.13502
2.13502
2.09892
2.09892
2.06347
2.06347
2.02865
2.02865
1.99445
1.99445
1.96086
1.96086
1.92785
1.92785
1.89542
1.89542
1.86355
1.86355
1.83222
1.83222
1.80142
1.80142
1.77114
1.77114
1.74136
1.74136
1.71206
1.71206
1.68323
1.68323
1.65486
1.65486
1.62692
1.62692
1.59941
1.59941
1.5723
1.5723
1.54561
1.54561
1.51932
1.51932
1.49346
1.49346
1.46805
1.46805
1.44309
1.44309
1.41859
1.41859
1.39453
1.39453
1.37091
1.37091
1.34771
1.34771
1.32492
1.32492
1.30252
1.30252
1.28051
1.28051
1.25886
1.25886
1.23758
1.23758
1.21665
1.21665
1.19606
1.19606
1.1758
1.1758
1.15587
1.15587
1.13626
1.13626
1.11695
1.11695
1.09795
1.09795
1.07925
1.07925
1.06083
1.06083
1.04269
1.04269
1.02483
1.02483
1.00724
1.00724
0.989904
0.989904
0.972829
0.972829
0.956005
0.956005
0.939425
0.939425
0.923083
0.923083
0.906975
0.906975
0.891094
0.891094
0.875434
0.875434
0.859992
0.859992
0.844761
0.844761
0.829735
0.829735
0.81491
0.81491
0.800281
0.800281
0.785843
0.785843
0.771589
0.771589
0.757517
0.757517
0.743619
0.743619
0.729893
0.729893
0.716333
0.716333
0.702934
0.702934
0.689692
0.689692
0.676601
0.676601
0.663659
0.663659
0.65086
0.65086
0.6382
0.6382
0.625675
0.625675
0.613282
0.613282
0.601016
0.601016
0.588876
0.588876
0.576859
0.576859
0.564962
0.564962
0.553185
0.553185
0.541527
0.541527
0.529991
0.529991
0.51858
0.51858
0.507299
0.507299
0.496158
0.496158
0.485171
0.485171
0.474355
0.474355
0.463738
0.463738
0.453356
0.453356
0.443258
0.443258
0.433509
0.433509
0.42421
0.42421
0.415414
0.415414
0.407276
0.407276
0.399778
0.399778
0.392772
0.392772
0.385795
0.385795
0.378697
0.378697
0.371539
0.371539
0.364488
0.364488
0.357698
0.357698
0.351208
0.351208
0.344924
0.344924
0.33877
0.33877
0.332745
0.332745
0.326901
0.326901
0.321315
0.321315
0.316056
0.316056
0.311156
0.311156
0.306637
0.306637
0.302529
0.302529
0.298857
0.298857
0.295644
0.295644
0.292909
0.292909
0.290672
0.290672
0.288952
0.288952
0.287778
0.287778
0.287173
0.287173
1.52415e+06
1.52415e+06
265169
265169
89885.1
89885.1
42384.8
42384.8
24022.6
24022.6
15256
15256
10456.1
10456.1
7565.83
7565.83
5700.3
5700.3
4430.88
4430.88
3530.56
3530.56
2870.41
2870.41
2372.93
2372.93
1989.39
1989.39
1687.92
1687.92
1446.99
1446.99
1251.66
1251.66
1091.3
1091.3
958.168
958.168
846.555
846.555
752.154
752.154
671.675
671.675
602.572
602.572
542.851
542.851
490.932
490.932
445.548
445.548
405.681
405.681
370.497
370.497
339.314
339.314
311.569
311.569
286.793
286.793
264.591
264.591
244.632
244.632
226.638
226.638
210.368
210.368
195.62
195.62
182.217
182.217
170.009
170.009
158.866
158.866
148.673
148.673
139.331
139.331
130.753
130.753
122.862
122.862
115.593
115.593
108.884
108.884
102.684
102.684
96.9462
96.9462
91.6283
91.6283
86.6937
86.6937
82.1089
82.1089
77.8442
77.8442
73.8729
73.873
70.171
70.171
66.7166
66.7166
63.4901
63.4901
60.4739
60.4739
57.6516
57.6517
55.0086
55.0086
52.5317
52.5317
50.2085
50.2086
48.0273
48.0273
45.9781
45.9781
44.0519
44.0519
42.2399
42.2399
40.5343
40.5343
38.9283
38.9283
37.4154
37.4154
35.9881
35.9881
34.6403
34.6403
33.3671
33.3671
32.1641
32.1642
31.0272
31.0272
29.9514
29.9514
28.9325
28.9325
27.9669
27.9669
27.0516
27.0516
26.1837
26.1837
25.3604
25.3604
24.5792
24.5792
23.8375
23.8375
23.1332
23.1332
22.4641
22.4641
21.828
21.828
21.2228
21.2228
20.6468
20.6468
20.0984
20.0984
19.5766
19.5766
19.0801
19.0801
18.6068
18.6068
18.1537
18.1537
17.7191
17.7191
17.3017
17.3017
16.9006
16.9006
16.5145
16.5145
16.1423
16.1423
15.7829
15.7829
15.4357
15.4358
15.1
15.1
14.7752
14.7752
14.4606
14.4606
14.1554
14.1554
13.8592
13.8592
13.5721
13.5721
13.2943
13.2943
13.0262
13.0262
12.7676
12.7676
12.5183
12.5183
12.2778
12.2778
12.0459
12.0459
11.822
11.822
11.6057
11.6057
11.3966
11.3966
11.1943
11.1943
10.9984
10.9984
10.8085
10.8085
10.6242
10.6242
10.445
10.445
10.2706
10.2706
10.1003
10.1003
9.93338
9.93338
9.76924
9.76924
9.60723
9.60723
9.44662
9.44662
9.28698
9.28698
9.12818
9.12818
8.97037
8.97037
8.81393
8.81393
8.6593
8.6593
8.507
8.507
8.35728
8.35728
8.2102
8.2102
8.06575
8.06575
7.9239
7.9239
7.78462
7.78462
7.64789
7.64789
7.51368
7.51368
7.38195
7.38195
7.25264
7.25264
7.12572
7.12571
7.00118
7.00118
6.87904
6.87904
6.75925
6.75925
6.64177
6.64177
6.52655
6.52655
6.41351
6.41351
6.30259
6.30259
6.19372
6.19372
6.08684
6.08684
5.98188
5.98188
5.87877
5.87877
5.77744
5.77744
5.67783
5.67783
5.57985
5.57985
5.48344
5.48344
5.38851
5.38851
5.29499
5.29499
5.2028
5.2028
5.11184
5.11184
5.02202
5.02202
4.93325
4.93325
4.84542
4.84542
4.75842
4.75842
4.67213
4.67213
4.58643
4.58643
4.50123
4.50123
4.41646
4.41646
4.33216
4.33216
4.24851
4.24851
4.16583
4.16583
4.08447
4.08447
4.00472
4.00472
3.92682
3.92682
3.85091
3.85091
3.77699
3.77699
3.70501
3.70501
3.63491
3.63491
3.56663
3.56663
3.5001
3.50011
3.43526
3.43526
3.37202
3.37202
3.31033
3.31034
3.25016
3.25016
3.19142
3.19142
3.13407
3.13407
3.07804
3.07804
3.02327
3.02328
2.96972
2.96972
2.91733
2.91733
2.86606
2.86607
2.81588
2.81588
2.76673
2.76673
2.71859
2.71859
2.67142
2.67142
2.6252
2.6252
2.57989
2.57989
2.53546
2.53546
2.4919
2.4919
2.44918
2.44918
2.40727
2.40727
2.36615
2.36615
2.32581
2.32581
2.28622
2.28622
2.24736
2.24736
2.20922
2.20922
2.17177
2.17178
2.13501
2.13501
2.09891
2.09891
2.06346
2.06346
2.02865
2.02865
1.99445
1.99445
1.96085
1.96085
1.92784
1.92784
1.89541
1.89541
1.86354
1.86354
1.83221
1.83221
1.80141
1.80141
1.77113
1.77113
1.74135
1.74135
1.71205
1.71205
1.68322
1.68322
1.65485
1.65485
1.62691
1.62691
1.5994
1.5994
1.57229
1.57229
1.54559
1.54559
1.51931
1.51931
1.49345
1.49345
1.46804
1.46804
1.44308
1.44308
1.41858
1.41858
1.39452
1.39452
1.3709
1.3709
1.3477
1.3477
1.32491
1.32491
1.30251
1.30251
1.2805
1.2805
1.25885
1.25885
1.23757
1.23757
1.21664
1.21664
1.19605
1.19605
1.17579
1.17579
1.15586
1.15586
1.13625
1.13625
1.11694
1.11694
1.09794
1.09794
1.07924
1.07924
1.06082
1.06082
1.04268
1.04268
1.02482
1.02482
1.00722
1.00722
0.989893
0.989893
0.972818
0.972818
0.955993
0.955993
0.939412
0.939412
0.923071
0.923071
0.906962
0.906962
0.891081
0.891081
0.875421
0.875421
0.859978
0.859978
0.844747
0.844747
0.829721
0.829721
0.814895
0.814895
0.800266
0.800266
0.785827
0.785827
0.771573
0.771573
0.7575
0.7575
0.743602
0.743602
0.729875
0.729875
0.716314
0.716314
0.702915
0.702915
0.689672
0.689672
0.676581
0.676581
0.663638
0.663638
0.650838
0.650838
0.638177
0.638177
0.625652
0.625652
0.613258
0.613258
0.600992
0.600992
0.588851
0.588851
0.576832
0.576832
0.564934
0.564934
0.553156
0.553156
0.541497
0.541497
0.52996
0.52996
0.518547
0.518547
0.507264
0.507264
0.496122
0.496122
0.485133
0.485133
0.474316
0.474316
0.463698
0.463698
0.453314
0.453314
0.443213
0.443213
0.433461
0.433461
0.424181
0.424181
0.415404
0.415404
0.407284
0.407284
0.399806
0.399806
0.392791
0.392791
0.385805
0.385805
0.378699
0.378699
0.371535
0.371535
0.36448
0.36448
0.357688
0.357688
0.351196
0.351196
0.344908
0.344908
0.338752
0.338752
0.332724
0.332724
0.326878
0.326878
0.321289
0.321289
0.31603
0.31603
0.311126
0.311126
0.306605
0.306605
0.302492
0.302492
0.298813
0.298813
0.29561
0.29561
0.292885
0.292885
0.290655
0.290655
0.288942
0.288942
0.287772
0.287772
0.28717
0.28717
0.287171
0.287171
0.28777
0.28777
0.288939
0.288939
0.290651
0.290651
0.292882
0.292882
0.295607
0.295607
0.29881
0.29881
0.30249
0.30249
0.306603
0.306603
0.311124
0.311124
0.316028
0.316028
0.321288
0.321288
0.326877
0.326877
0.332723
0.332723
0.338751
0.338751
0.344908
0.344908
0.351195
0.351195
0.357687
0.357687
0.364479
0.364479
0.371535
0.371535
0.378698
0.378698
0.385805
0.385805
0.392791
0.392791
0.399806
0.399806
0.407284
0.407284
0.415404
0.415404
0.424181
0.424181
0.433461
0.433461
0.443214
0.443214
0.453314
0.453314
0.463698
0.463698
0.474316
0.474316
0.485133
0.485133
0.496123
0.496123
0.507265
0.507265
0.518547
0.518547
0.52996
0.52996
0.541498
0.541498
0.553157
0.553157
0.564935
0.564935
0.576833
0.576833
0.588852
0.588852
0.600993
0.600993
0.613259
0.613259
0.625653
0.625653
0.638178
0.638178
0.650839
0.650839
0.663639
0.663639
0.676582
0.676582
0.689673
0.689673
0.702916
0.702916
0.716316
0.716316
0.729877
0.729877
0.743603
0.743603
0.757501
0.757501
0.771575
0.771575
0.785828
0.785828
0.800267
0.800267
0.814897
0.814897
0.829722
0.829722
0.844748
0.844748
0.85998
0.85998
0.875423
0.875423
0.891083
0.891083
0.906964
0.906964
0.923073
0.923073
0.939415
0.939415
0.955995
0.955995
0.97282
0.97282
0.989895
0.989895
1.00723
1.00723
1.02482
1.02482
1.04268
1.04268
1.06082
1.06082
1.07924
1.07924
1.09795
1.09795
1.11695
1.11695
1.13625
1.13625
1.15587
1.15587
1.1758
1.1758
1.19605
1.19605
1.21664
1.21664
1.23757
1.23757
1.25886
1.25886
1.2805
1.2805
1.30252
1.30252
1.32492
1.32492
1.34771
1.34771
1.37091
1.37091
1.39453
1.39453
1.41858
1.41858
1.44308
1.44308
1.46804
1.46804
1.49346
1.49346
1.51931
1.51931
1.5456
1.5456
1.5723
1.5723
1.5994
1.5994
1.62692
1.62692
1.65485
1.65485
1.68323
1.68323
1.71206
1.71206
1.74135
1.74135
1.77113
1.77113
1.80142
1.80142
1.83222
1.83222
1.86354
1.86354
1.89542
1.89542
1.92785
1.92785
1.96086
1.96086
1.99446
1.99446
2.02865
2.02866
2.06347
2.06347
2.09892
2.09892
2.13502
2.13502
2.17178
2.17178
2.20923
2.20923
2.24737
2.24737
2.28623
2.28623
2.32582
2.32582
2.36616
2.36616
2.40728
2.40728
2.44919
2.44919
2.49191
2.49191
2.53548
2.53548
2.5799
2.5799
2.62521
2.62521
2.67143
2.67143
2.7186
2.7186
2.76674
2.76674
2.81589
2.81589
2.86608
2.86608
2.91735
2.91735
2.96973
2.96974
3.02329
3.02329
3.07805
3.07805
3.13408
3.13409
3.19144
3.19144
3.25017
3.25017
3.31035
3.31035
3.37203
3.37204
3.43527
3.43527
3.50012
3.50012
3.56665
3.56665
3.63492
3.63493
3.70503
3.70503
3.77701
3.77701
3.85093
3.85093
3.92684
3.92684
4.00474
4.00474
4.08449
4.08449
4.16586
4.16585
4.24853
4.24853
4.33219
4.33218
4.41649
4.41648
4.50125
4.50125
4.58646
4.58646
4.67216
4.67216
4.75844
4.75844
4.84545
4.84544
4.93328
4.93328
5.02205
5.02205
5.11186
5.11186
5.20282
5.20282
5.29502
5.29502
5.38854
5.38854
5.48346
5.48346
5.57988
5.57988
5.67785
5.67785
5.77747
5.77747
5.8788
5.8788
5.98191
5.98191
6.08687
6.08687
6.19375
6.19375
6.30262
6.30262
6.41354
6.41354
6.52658
6.52658
6.6418
6.6418
6.75928
6.75928
6.87907
6.87907
7.00122
7.00122
7.12575
7.12575
7.25267
7.25267
7.38198
7.38198
7.51372
7.51372
7.64792
7.64792
7.78466
7.78466
7.92394
7.92394
8.06579
8.06579
8.21024
8.21024
8.35732
8.35732
8.50704
8.50704
8.65934
8.65934
8.81397
8.81397
8.97041
8.97041
9.12822
9.12823
9.28703
9.28703
9.44668
9.44668
9.60729
9.60729
9.7693
9.7693
9.93344
9.93344
10.1003
10.1003
10.2707
10.2707
10.445
10.445
10.6242
10.6242
10.8086
10.8086
10.9985
10.9985
11.1943
11.1943
11.3967
11.3967
11.6057
11.6058
11.822
11.822
12.046
12.046
12.2779
12.2779
12.5184
12.5184
12.7677
12.7677
13.0263
13.0263
13.2944
13.2944
13.5721
13.5721
13.8592
13.8592
14.1554
14.1554
14.4606
14.4606
14.7752
14.7752
15.1
15.1
15.4358
15.4358
15.7829
15.7829
16.1423
16.1423
16.5145
16.5145
16.9006
16.9006
17.3017
17.3017
17.7191
17.7191
18.1537
18.1537
18.6068
18.6068
19.0801
19.0801
19.5766
19.5766
20.0984
20.0984
20.6468
20.6468
21.2229
21.2229
21.8281
21.8281
22.4641
22.4642
23.1333
23.1333
23.8376
23.8376
24.5792
24.5793
25.3605
25.3605
26.1838
26.1838
27.0517
27.0518
27.967
27.967
28.9326
28.9326
29.9516
29.9516
31.0273
31.0273
32.1643
32.1643
33.3673
33.3673
34.6405
34.6405
35.9883
35.9883
37.4156
37.4156
38.9286
38.9286
40.5346
40.5346
42.2402
42.2402
44.0521
44.0522
45.9783
45.9784
48.0276
48.0276
50.2089
50.2089
52.532
52.532
55.0089
55.009
57.652
57.652
60.4742
60.4742
63.4904
63.4904
66.7169
66.7169
70.1712
70.1712
73.8732
73.8732
77.8445
77.8445
82.1092
82.1092
86.6939
86.6939
91.6286
91.6286
96.9464
96.9464
102.684
102.684
108.884
108.884
115.593
115.593
122.863
122.863
130.753
130.753
139.331
139.331
148.673
148.673
158.866
158.866
170.01
170.01
182.217
182.217
195.62
195.62
210.368
210.368
226.638
226.638
244.633
244.633
264.591
264.591
286.793
286.793
311.569
311.569
339.314
339.314
370.497
370.497
405.681
405.681
445.548
445.548
490.931
490.931
542.851
542.851
602.572
602.572
671.675
671.675
752.154
752.154
846.555
846.555
958.168
958.168
1091.3
1091.3
1251.66
1251.66
1446.99
1446.99
1687.92
1687.92
1989.39
1989.39
2372.93
2372.93
2870.41
2870.41
3530.56
3530.56
4430.88
4430.88
5700.3
5700.3
7565.82
7565.82
10456.1
10456.1
15256
15256
24022.6
24022.6
42384.9
42384.9
89885.3
89885.3
265169
265169
1.52416e+06
1.52416e+06
0.28717
0.28717
0.287774
0.287774
0.288949
0.288949
0.290669
0.290669
0.292907
0.292907
0.295642
0.295642
0.298855
0.298855
0.302528
0.302528
0.306636
0.306636
0.311154
0.311154
0.316055
0.316055
0.321314
0.321314
0.326899
0.326899
0.332744
0.332744
0.338769
0.338769
0.344923
0.344923
0.351207
0.351207
0.357698
0.357698
0.364487
0.364487
0.371539
0.371539
0.378696
0.378696
0.385795
0.385795
0.392772
0.392772
0.399778
0.399778
0.407276
0.407276
0.415414
0.415414
0.42421
0.42421
0.433508
0.433508
0.443258
0.443258
0.453356
0.453356
0.463738
0.463738
0.474355
0.474355
0.485171
0.485171
0.496158
0.496158
0.507299
0.507299
0.51858
0.51858
0.529992
0.529992
0.541528
0.541528
0.553185
0.553185
0.564962
0.564962
0.576859
0.576859
0.588877
0.588877
0.601017
0.601017
0.613282
0.613282
0.625676
0.625676
0.6382
0.6382
0.65086
0.65086
0.663659
0.663659
0.676602
0.676602
0.689692
0.689692
0.702935
0.702935
0.716334
0.716334
0.729894
0.729894
0.743621
0.743621
0.757518
0.757518
0.771591
0.771591
0.785844
0.785844
0.800283
0.800283
0.814912
0.814912
0.829737
0.829737
0.844762
0.844762
0.859994
0.859994
0.875436
0.875436
0.891095
0.891095
0.906977
0.906977
0.923085
0.923085
0.939427
0.939427
0.956007
0.956007
0.972832
0.972832
0.989907
0.989907
1.00724
1.00724
1.02483
1.02483
1.04269
1.04269
1.06083
1.06083
1.07925
1.07925
1.09796
1.09796
1.11696
1.11696
1.13626
1.13626
1.15588
1.15588
1.17581
1.17581
1.19606
1.19606
1.21665
1.21665
1.23758
1.23758
1.25887
1.25887
1.28051
1.28051
1.30253
1.30253
1.32493
1.32493
1.34772
1.34772
1.37092
1.37092
1.39454
1.39454
1.41859
1.41859
1.4431
1.4431
1.46805
1.46805
1.49347
1.49347
1.51932
1.51932
1.54561
1.54561
1.57231
1.57231
1.59941
1.59941
1.62693
1.62693
1.65487
1.65487
1.68324
1.68324
1.71207
1.71207
1.74136
1.74136
1.77114
1.77115
1.80143
1.80143
1.83222
1.83223
1.86355
1.86355
1.89543
1.89543
1.92786
1.92786
1.96087
1.96087
1.99446
1.99446
2.02866
2.02866
2.06348
2.06348
2.09893
2.09893
2.13503
2.13503
2.17179
2.17179
2.20923
2.20923
2.24738
2.24738
2.28623
2.28623
2.32582
2.32582
2.36617
2.36617
2.40729
2.40729
2.4492
2.4492
2.49192
2.49192
2.53548
2.53548
2.5799
2.5799
2.62522
2.62522
2.67144
2.67144
2.71861
2.71861
2.76675
2.76675
2.8159
2.8159
2.86609
2.86609
2.91735
2.91735
2.96974
2.96974
3.0233
3.0233
3.07806
3.07806
3.1341
3.1341
3.19145
3.19145
3.25018
3.25018
3.31036
3.31036
3.37205
3.37205
3.43529
3.43529
3.50014
3.50014
3.56666
3.56666
3.63494
3.63494
3.70504
3.70504
3.77702
3.77702
3.85094
3.85094
3.92685
3.92686
4.00475
4.00475
4.0845
4.0845
4.16587
4.16587
4.24854
4.24854
4.33219
4.33219
4.41649
4.4165
4.50126
4.50127
4.58647
4.58648
4.67218
4.67218
4.75846
4.75847
4.84546
4.84547
4.93329
4.9333
5.02207
5.02207
5.11189
5.11189
5.20285
5.20285
5.29505
5.29505
5.38857
5.38857
5.48349
5.48349
5.57991
5.57991
5.67788
5.67788
5.7775
5.7775
5.87883
5.87883
5.98194
5.98194
6.0869
6.0869
6.19378
6.19379
6.30265
6.30265
6.41357
6.41358
6.52662
6.52662
6.64184
6.64184
6.75932
6.75932
6.87911
6.87911
7.00125
7.00125
7.12579
7.12579
7.25272
7.25272
7.38203
7.38203
7.51377
7.51377
7.64799
7.64799
7.78472
7.78472
7.92401
7.92401
8.06587
8.06587
8.21032
8.21032
8.35741
8.35741
8.50713
8.50713
8.65944
8.65944
8.81408
8.81408
8.97052
8.97052
9.12834
9.12834
9.28715
9.28715
9.44681
9.44681
9.60744
9.60744
9.76947
9.76947
9.93364
9.93364
10.1006
10.1006
10.2709
10.2709
10.4453
10.4453
10.6245
10.6245
10.8089
10.8089
10.9988
10.9988
11.1947
11.1947
11.397
11.397
11.6061
11.6061
11.8224
11.8224
12.0463
12.0463
12.2782
12.2782
12.5186
12.5186
12.768
12.768
13.0265
13.0265
13.2946
13.2946
13.5723
13.5723
13.8594
13.8594
14.1556
14.1556
14.4608
14.4608
14.7754
14.7754
15.1002
15.1002
15.4359
15.4359
15.7831
15.7831
16.1424
16.1424
16.5146
16.5146
16.9007
16.9007
17.3018
17.3018
17.7192
17.7192
18.1538
18.1538
18.6068
18.6068
19.0802
19.0802
19.5767
19.5767
20.0984
20.0984
20.6468
20.6468
21.2229
21.2229
21.8281
21.8281
22.4642
22.4642
23.1333
23.1333
23.8376
23.8376
24.5793
24.5793
25.3605
25.3605
26.1838
26.1838
27.0518
27.0518
27.967
27.967
28.9326
28.9326
29.9516
29.9516
31.0273
31.0273
32.1643
32.1643
33.3673
33.3673
34.6405
34.6405
35.9883
35.9883
37.4156
37.4156
38.9286
38.9286
40.5346
40.5346
42.2402
42.2402
44.0521
44.0521
45.9783
45.9783
48.0276
48.0276
50.2089
50.2089
52.532
52.532
55.0089
55.0089
57.652
57.652
60.4742
60.4742
63.4904
63.4904
66.7169
66.7169
70.1712
70.1712
73.8732
73.8732
77.8445
77.8445
82.1092
82.1092
86.6939
86.6939
91.6286
91.6286
96.9464
96.9464
102.684
102.684
108.884
108.884
115.593
115.593
122.863
122.863
130.753
130.753
139.331
139.331
148.673
148.673
158.866
158.866
170.01
170.01
182.217
182.217
195.62
195.62
210.368
210.368
226.638
226.638
244.633
244.633
264.591
264.591
286.793
286.793
311.569
311.569
339.314
339.314
370.497
370.497
405.681
405.681
445.548
445.548
490.931
490.931
542.851
542.851
602.572
602.572
671.675
671.675
752.154
752.154
846.555
846.555
958.168
958.168
1091.3
1091.3
1251.66
1251.66
1446.99
1446.99
1687.92
1687.92
1989.39
1989.39
2372.93
2372.93
2870.41
2870.41
3530.56
3530.56
4430.88
4430.88
5700.3
5700.3
7565.82
7565.82
10456.1
10456.1
15256
15256
24022.6
24022.6
42384.9
42384.9
89885.3
89885.3
265169
265169
1.52416e+06
1.52416e+06
)
;

boundaryField
{
    walls
    {
        blending        binomial2;
        n               2;
        beta1           0.075;
        type            omegaWallFunction;
        value           nonuniform List<scalar> 8(1.52415e+06 1.52415e+06 1.52415e+06 1.52415e+06 1.52416e+06 1.52416e+06 1.52416e+06 1.52416e+06);
    }
    inlet
    {
        type            cyclic;
    }
    outlet
    {
        type            cyclic;
    }
    sides
    {
        type            empty;
    }
}


// ************************************************************************* //
