/*--------------------------------*- C++ -*----------------------------------*\
| =========                 |                                                 |
| \\      /  F ield         | OpenFOAM: The Open Source CFD Toolbox           |
|  \\    /   O peration     | Version:  2106                                  |
|   \\  /    A nd           | Website:  www.openfoam.com                      |
|    \\/     M anipulation  |                                                 |
\*---------------------------------------------------------------------------*/
FoamFile
{
    version     2.0;
    format      ascii;
    arch        "LSB;label=32;scalar=64";
    class       surfaceScalarField;
    location    "11000";
    object      phi;
}
// * * * * * * * * * * * * * * * * * * * * * * * * * * * * * * * * * * * * * //

dimensions      [0 3 -1 0 0 0 0];

oriented        oriented;

internalField   nonuniform List<scalar> 
5116
(
2.54777e-08
-7.71358e-18
-2.84426e-22
-7.20816e-22
3.81997e-23
7.79131e-08
-7.71199e-18
-4.76736e-22
-1.86611e-21
4.52048e-23
1.32628e-07
-7.71035e-18
-4.9212e-22
-3.0664e-21
4.71966e-23
1.89701e-07
-7.70864e-18
-5.1746e-22
-4.31779e-21
4.92716e-23
2.49211e-07
-7.70689e-18
-5.43079e-22
-5.68906e-21
5.14319e-23
3.11241e-07
-7.70509e-18
-5.69321e-22
-6.92881e-21
5.36801e-23
3.75875e-07
-7.7031e-18
-5.96903e-22
-8.36498e-21
5.60189e-23
4.432e-07
-7.70106e-18
-6.25783e-22
-9.77606e-21
5.84518e-23
5.13306e-07
-7.69885e-18
-6.55885e-22
-1.14632e-20
6.09816e-23
5.86284e-07
-7.69667e-18
-6.87253e-22
-1.31146e-20
6.36126e-23
6.62227e-07
-7.6943e-18
-7.19957e-22
-1.47542e-20
6.63456e-23
7.41232e-07
-7.69179e-18
-7.54066e-22
-1.65983e-20
6.91822e-23
8.23393e-07
-7.68921e-18
-7.8963e-22
-1.84514e-20
7.21243e-23
9.08808e-07
-7.68637e-18
-8.26688e-22
-2.05044e-20
7.51689e-23
9.97571e-07
-7.68373e-18
-8.65265e-22
-2.22434e-20
7.83181e-23
1.08978e-06
-7.68087e-18
-9.05368e-22
-2.45645e-20
8.15695e-23
1.18552e-06
-7.6776e-18
-9.46977e-22
-2.70375e-20
8.49273e-23
1.28488e-06
-7.67448e-18
-9.90058e-22
-2.8951e-20
8.83799e-23
1.38794e-06
-7.67143e-18
-1.03454e-21
-3.13526e-20
9.19107e-23
1.49477e-06
-7.66764e-18
-1.0803e-21
-3.40913e-20
9.55199e-23
1.60543e-06
-7.66399e-18
-1.12722e-21
-3.66124e-20
9.91901e-23
1.71997e-06
-7.66019e-18
-1.17511e-21
-3.92785e-20
1.02895e-22
1.83841e-06
-7.65685e-18
-1.22374e-21
-4.17273e-20
1.06607e-22
1.96076e-06
-7.653e-18
-1.27284e-21
-4.43418e-20
1.103e-22
2.08702e-06
-7.6484e-18
-1.32211e-21
-4.79211e-20
1.13938e-22
2.21715e-06
-7.64394e-18
-1.37122e-21
-5.12852e-20
1.17491e-22
2.35109e-06
-7.63994e-18
-1.41981e-21
-5.37651e-20
1.20923e-22
2.48878e-06
-7.63512e-18
-1.46753e-21
-5.71119e-20
1.24188e-22
2.6301e-06
-7.63021e-18
-1.51401e-21
-6.01196e-20
1.27264e-22
2.77494e-06
-7.62489e-18
-1.55892e-21
-6.4206e-20
1.30113e-22
2.92316e-06
-7.61956e-18
-1.60198e-21
-6.82455e-20
1.32727e-22
3.07462e-06
-7.61399e-18
-1.64296e-21
-7.24799e-20
1.35097e-22
3.22915e-06
-7.60912e-18
-1.68169e-21
-7.60786e-20
1.3721e-22
3.38661e-06
-7.60398e-18
-1.71801e-21
-7.98208e-20
1.39052e-22
3.54682e-06
-7.59815e-18
-1.75189e-21
-8.39132e-20
1.40618e-22
3.70964e-06
-7.59164e-18
-1.78334e-21
-8.79885e-20
1.41914e-22
3.87492e-06
-7.58572e-18
-1.81246e-21
-9.18227e-20
1.42912e-22
4.04253e-06
-7.57999e-18
-1.83929e-21
-9.53189e-20
1.43627e-22
4.21235e-06
-7.57378e-18
-1.86401e-21
-9.93434e-20
1.44064e-22
4.38428e-06
-7.56762e-18
-1.88683e-21
-1.03792e-19
1.44244e-22
4.55823e-06
-7.5611e-18
-1.90795e-21
-1.08196e-19
1.44182e-22
4.73413e-06
-7.55471e-18
-1.92762e-21
-1.12481e-19
1.43908e-22
4.91194e-06
-7.5482e-18
-1.94607e-21
-1.17005e-19
1.4346e-22
5.09161e-06
-7.54108e-18
-1.96352e-21
-1.21749e-19
1.42873e-22
5.27312e-06
-7.53418e-18
-1.98017e-21
-1.26573e-19
1.42139e-22
5.45647e-06
-7.52723e-18
-1.99624e-21
-1.31041e-19
1.41262e-22
5.64166e-06
-7.52098e-18
-2.01191e-21
-1.3461e-19
1.4025e-22
5.8287e-06
-7.51378e-18
-2.02732e-21
-1.39715e-19
1.39069e-22
6.01761e-06
-7.50708e-18
-2.04267e-21
-1.44773e-19
1.37765e-22
6.20843e-06
-7.50086e-18
-2.05802e-21
-1.48229e-19
1.36358e-22
6.4012e-06
-7.49244e-18
-2.07354e-21
-1.53553e-19
1.34802e-22
6.59597e-06
-7.48348e-18
-2.08934e-21
-1.59703e-19
1.3311e-22
6.79278e-06
-7.47588e-18
-2.10556e-21
-1.63992e-19
1.31321e-22
6.99169e-06
-7.46897e-18
-2.12222e-21
-1.69798e-19
1.29381e-22
7.19277e-06
-7.46029e-18
-2.13932e-21
-1.75613e-19
1.27316e-22
7.39606e-06
-7.45287e-18
-2.15703e-21
-1.8033e-19
1.25068e-22
7.60165e-06
-7.44552e-18
-2.17531e-21
-1.85096e-19
1.22663e-22
7.80959e-06
-7.43974e-18
-2.19423e-21
-1.92281e-19
1.20025e-22
8.01996e-06
-7.43272e-18
-2.21376e-21
-1.9846e-19
1.17228e-22
8.23282e-06
-7.4243e-18
-2.2339e-21
-2.04959e-19
1.14203e-22
8.44826e-06
-7.41726e-18
-2.25483e-21
-2.10926e-19
1.10968e-22
8.66633e-06
-7.40909e-18
-2.27644e-21
-2.1693e-19
1.07544e-22
8.88713e-06
-7.39911e-18
-2.29878e-21
-2.26245e-19
1.03904e-22
9.11072e-06
-7.39281e-18
-2.32203e-21
-2.33104e-19
1.00243e-22
9.33718e-06
-7.38422e-18
-2.34591e-21
-2.38715e-19
9.63685e-23
9.56659e-06
-7.3775e-18
-2.37074e-21
-2.45486e-19
9.22394e-23
9.79902e-06
-7.36803e-18
-2.39626e-21
-2.52589e-19
8.80783e-23
1.00345e-05
-7.36022e-18
-2.42257e-21
-2.59532e-19
8.36921e-23
1.02733e-05
-7.35244e-18
-2.44967e-21
-2.66329e-19
7.92997e-23
1.05152e-05
-7.34331e-18
-2.47757e-21
-2.73274e-19
7.47405e-23
1.07605e-05
-7.33458e-18
-2.50632e-21
-2.80806e-19
6.99117e-23
1.10093e-05
-7.32613e-18
-2.53588e-21
-2.88735e-19
6.47339e-23
1.12615e-05
-7.31674e-18
-2.56619e-21
-2.95622e-19
5.91879e-23
1.15173e-05
-7.30852e-18
-2.59764e-21
-3.03926e-19
5.3567e-23
1.17768e-05
-7.29833e-18
-2.63019e-21
-3.12201e-19
4.8148e-23
1.204e-05
-7.29044e-18
-2.66403e-21
-3.19897e-19
4.30648e-23
1.23071e-05
-7.28401e-18
-2.69898e-21
-3.23878e-19
3.81231e-23
1.2578e-05
-7.27537e-18
-2.73512e-21
-3.31404e-19
3.30691e-23
1.2853e-05
-7.26693e-18
-2.77228e-21
-3.37995e-19
2.83461e-23
1.3132e-05
-7.25737e-18
-2.81032e-21
-3.44053e-19
2.35199e-23
1.34152e-05
-7.24679e-18
-2.84944e-21
-3.48511e-19
1.84648e-23
1.37027e-05
-7.24288e-18
-2.88993e-21
-3.52483e-19
1.2999e-23
1.39945e-05
-7.23653e-18
-2.93087e-21
-3.56682e-19
7.04254e-24
1.42907e-05
-7.22875e-18
-2.97254e-21
-3.61123e-19
9.58196e-25
1.45915e-05
-7.22061e-18
-3.01482e-21
-3.65395e-19
-5.36213e-24
1.48968e-05
-7.21294e-18
-3.05766e-21
-3.70145e-19
-1.20703e-23
1.52068e-05
-7.20398e-18
-3.10121e-21
-3.70085e-19
-1.9283e-23
1.55217e-05
-7.19363e-18
-3.14563e-21
-3.8063e-19
-2.73715e-23
1.58414e-05
-7.17892e-18
-3.19065e-21
-3.91125e-19
-3.51506e-23
1.61661e-05
-7.1686e-18
-3.23683e-21
-4.01873e-19
-4.27993e-23
1.64958e-05
-7.15468e-18
-3.2842e-21
-4.10896e-19
-4.96812e-23
1.68308e-05
-7.142e-18
-3.33258e-21
-4.20211e-19
-5.65775e-23
1.71709e-05
-7.13167e-18
-3.38182e-21
-4.26559e-19
-6.27057e-23
1.75165e-05
-7.11851e-18
-3.43167e-21
-4.37426e-19
-6.84415e-23
1.78675e-05
-7.10938e-18
-3.48244e-21
-4.45801e-19
-7.4076e-23
1.82241e-05
-7.09832e-18
-3.53443e-21
-4.55618e-19
-7.98454e-23
1.85863e-05
-7.08333e-18
-3.58693e-21
-4.65969e-19
-8.46103e-23
1.89543e-05
-7.07594e-18
-3.64033e-21
-4.73822e-19
-8.84562e-23
1.93282e-05
-7.06956e-18
-3.69298e-21
-4.77694e-19
-9.21038e-23
1.9708e-05
-7.06082e-18
-3.74477e-21
-4.8085e-19
-9.6701e-23
2.0094e-05
-7.05131e-18
-3.79618e-21
-4.84943e-19
-1.02508e-22
2.04861e-05
-7.03826e-18
-3.84671e-21
-4.91272e-19
-1.08399e-22
2.08845e-05
-7.02539e-18
-3.89825e-21
-5.02329e-19
-1.14682e-22
2.12894e-05
-7.01508e-18
-3.95032e-21
-5.13221e-19
-1.20369e-22
2.17007e-05
-7.00205e-18
-4.00169e-21
-5.19586e-19
-1.26528e-22
2.21188e-05
-6.99343e-18
-4.05393e-21
-5.27727e-19
-1.33466e-22
2.25435e-05
-6.98008e-18
-4.10475e-21
-5.36188e-19
-1.41042e-22
2.29752e-05
-6.97149e-18
-4.1556e-21
-5.42593e-19
-1.49654e-22
2.34139e-05
-6.96577e-18
-4.20554e-21
-5.4185e-19
-1.59873e-22
2.38597e-05
-6.95466e-18
-4.25357e-21
-5.49222e-19
-1.72461e-22
2.43127e-05
-6.93923e-18
-4.29934e-21
-5.52883e-19
-1.86838e-22
2.47731e-05
-6.92676e-18
-4.34544e-21
-5.57872e-19
-2.01793e-22
2.5241e-05
-6.91468e-18
-4.39145e-21
-5.72107e-19
-2.16696e-22
2.57166e-05
-6.90073e-18
-4.43755e-21
-5.76586e-19
-2.29362e-22
2.61999e-05
-6.88565e-18
-4.48428e-21
-5.83121e-19
-2.41857e-22
2.66911e-05
-6.86472e-18
-4.53182e-21
-5.93652e-19
-2.54132e-22
2.71903e-05
-6.85737e-18
-4.58015e-21
-5.93003e-19
-2.64041e-22
2.76977e-05
-6.84029e-18
-4.62701e-21
-6.02115e-19
-2.7459e-22
2.82134e-05
-6.82455e-18
-4.67396e-21
-6.09222e-19
-2.85459e-22
2.87375e-05
-6.80592e-18
-4.72076e-21
-6.17764e-19
-2.96028e-22
2.92703e-05
-6.78817e-18
-4.76892e-21
-6.24099e-19
-3.07146e-22
2.98117e-05
-6.77642e-18
-4.81782e-21
-6.29289e-19
-3.20316e-22
3.03621e-05
-6.76279e-18
-4.86511e-21
-6.3548e-19
-3.34621e-22
3.09215e-05
-6.74794e-18
-4.91028e-21
-6.44249e-19
-3.51997e-22
3.149e-05
-6.72787e-18
-4.95478e-21
-6.58214e-19
-3.69212e-22
3.2068e-05
-6.7121e-18
-5.00001e-21
-6.71936e-19
-3.83703e-22
3.26554e-05
-6.69932e-18
-5.04392e-21
-6.81667e-19
-3.95846e-22
3.32525e-05
-6.68367e-18
-5.08728e-21
-6.99067e-19
-4.0807e-22
3.38594e-05
-6.66707e-18
-5.12848e-21
-7.03342e-19
-4.18977e-22
3.44762e-05
-6.64486e-18
-5.17182e-21
-7.18534e-19
-4.32417e-22
3.51033e-05
-6.63125e-18
-5.218e-21
-7.33651e-19
-4.42769e-22
3.57407e-05
-6.60824e-18
-5.26456e-21
-7.51903e-19
-4.4575e-22
3.63885e-05
-6.59435e-18
-5.31337e-21
-7.72175e-19
-4.44024e-22
3.7047e-05
-6.56461e-18
-5.36096e-21
-7.83904e-19
-4.3689e-22
3.77164e-05
-6.54388e-18
-5.41001e-21
-7.94867e-19
-4.29555e-22
3.83969e-05
-6.52658e-18
-5.45789e-21
-8.10784e-19
-4.21971e-22
3.90885e-05
-6.50796e-18
-5.50344e-21
-8.21057e-19
-4.13799e-22
3.97915e-05
-6.4934e-18
-5.55094e-21
-8.33609e-19
-4.01404e-22
4.05061e-05
-6.48249e-18
-5.59851e-21
-8.30513e-19
-3.86522e-22
4.12325e-05
-6.46514e-18
-5.64529e-21
-8.34784e-19
-3.76747e-22
4.19709e-05
-6.46326e-18
-5.69712e-21
-8.38554e-19
-3.69258e-22
4.27215e-05
-6.44885e-18
-5.7369e-21
-8.38832e-19
-3.61221e-22
4.34844e-05
-6.43852e-18
-5.77769e-21
-8.40575e-19
-3.5803e-22
4.426e-05
-6.42323e-18
-5.82107e-21
-8.45813e-19
-3.56197e-22
4.50483e-05
-6.40808e-18
-5.86375e-21
-8.48961e-19
-3.45649e-22
4.58496e-05
-6.39214e-18
-5.90837e-21
-8.59055e-19
-3.34166e-22
4.66641e-05
-6.38081e-18
-5.95138e-21
-8.56755e-19
-3.24696e-22
4.74921e-05
-6.36065e-18
-5.98998e-21
-8.6387e-19
-3.21322e-22
4.83338e-05
-6.35357e-18
-6.03447e-21
-8.77156e-19
-3.15585e-22
4.91893e-05
-6.34278e-18
-6.0792e-21
-8.74112e-19
-2.94658e-22
5.00589e-05
-6.32791e-18
-6.12132e-21
-8.90602e-19
-2.78279e-22
5.09429e-05
-6.30438e-18
-6.16074e-21
-8.95674e-19
-2.53033e-22
5.18414e-05
-6.28404e-18
-6.20835e-21
-9.11829e-19
-2.30417e-22
5.27548e-05
-6.25669e-18
-6.25514e-21
-9.25137e-19
-2.07769e-22
5.36833e-05
-6.23278e-18
-6.30365e-21
-9.3868e-19
-1.79201e-22
5.4627e-05
-6.21789e-18
-6.35021e-21
-9.48796e-19
-1.51581e-22
5.55863e-05
-6.20293e-18
-6.38971e-21
-9.66103e-19
-1.36704e-22
5.65614e-05
-6.17382e-18
-6.4196e-21
-9.8503e-19
-1.10283e-22
5.75526e-05
-6.14411e-18
-6.45006e-21
-9.99466e-19
-8.75321e-23
5.85602e-05
-6.09465e-18
-6.47687e-21
-1.02524e-18
-8.10132e-23
5.95843e-05
-6.04702e-18
-6.51253e-21
-1.04903e-18
-7.82976e-23
6.06254e-05
-6.02443e-18
-6.56154e-21
-1.07164e-18
-6.3656e-23
6.16835e-05
-6.01428e-18
-6.61371e-21
-1.10001e-18
-3.53135e-23
6.27592e-05
-5.98289e-18
-6.64194e-21
-1.13206e-18
-1.07576e-23
6.38525e-05
-5.96686e-18
-6.67921e-21
-1.17753e-18
1.752e-23
6.49638e-05
-5.95489e-18
-6.69997e-21
-1.18733e-18
6.7266e-23
6.60935e-05
-5.91718e-18
-6.69067e-21
-1.21495e-18
1.03539e-22
6.72417e-05
-5.88896e-18
-6.68689e-21
-1.22482e-18
1.49149e-22
6.84089e-05
-5.8688e-18
-6.69514e-21
-1.25451e-18
1.84694e-22
6.95953e-05
-5.84512e-18
-6.71524e-21
-1.26274e-18
2.49696e-22
7.08012e-05
-5.81384e-18
-6.74704e-21
-1.27599e-18
3.23916e-22
7.20269e-05
-5.80771e-18
-6.82202e-21
-1.28016e-18
4.11591e-22
7.32728e-05
-5.7876e-18
-6.92178e-21
-1.28012e-18
5.09435e-22
7.45392e-05
-5.79554e-18
-7.04415e-21
-1.27661e-18
5.85326e-22
7.58264e-05
-5.78202e-18
-7.14347e-21
-1.27973e-18
6.56802e-22
7.71348e-05
-5.76703e-18
-7.23252e-21
-1.28417e-18
7.3993e-22
7.84647e-05
-5.74977e-18
-7.34939e-21
-1.28379e-18
8.30772e-22
7.98164e-05
-5.74815e-18
-7.48418e-21
-1.28106e-18
8.87348e-22
8.11904e-05
-5.7297e-18
-7.56757e-21
-1.28473e-18
9.38163e-22
8.25869e-05
-5.70301e-18
-7.65536e-21
-1.29447e-18
1.00109e-21
8.40064e-05
-5.67857e-18
-7.74859e-21
-1.30731e-18
1.0613e-21
8.54492e-05
-5.65326e-18
-7.80832e-21
-1.30311e-18
1.11275e-21
8.69157e-05
-5.64267e-18
-7.86689e-21
-1.32188e-18
1.13985e-21
8.84062e-05
-5.61187e-18
-7.91126e-21
-1.32369e-18
1.2034e-21
8.99212e-05
-5.58096e-18
-7.95684e-21
-1.34201e-18
1.2726e-21
9.14611e-05
-5.55046e-18
-7.99963e-21
-1.36605e-18
1.35793e-21
9.30262e-05
-5.52269e-18
-8.01807e-21
-1.37333e-18
1.46877e-21
9.46169e-05
-5.49978e-18
-8.03577e-21
-1.38299e-18
1.56533e-21
9.62338e-05
-5.46821e-18
-8.03259e-21
-1.40484e-18
1.66246e-21
9.78771e-05
-5.44563e-18
-8.03647e-21
-1.4227e-18
1.7714e-21
9.95474e-05
-5.386e-18
-7.98839e-21
-1.44998e-18
1.86646e-21
0.000101245
-5.35664e-18
-7.99396e-21
-1.44774e-18
1.99473e-21
0.000102971
-5.308e-18
-7.98329e-21
-1.47397e-18
2.07298e-21
0.000104724
-5.27377e-18
-7.99722e-21
-1.49381e-18
2.16587e-21
0.000106507
-5.23178e-18
-8.02637e-21
-1.52134e-18
2.26316e-21
0.000108318
-5.20967e-18
-8.10145e-21
-1.54767e-18
2.3376e-21
0.000110159
-5.17907e-18
-8.16579e-21
-1.59158e-18
2.41737e-21
0.000112031
-5.15012e-18
-8.18254e-21
-1.62857e-18
2.54755e-21
0.000113932
-5.1161e-18
-8.21051e-21
-1.66661e-18
2.69243e-21
0.000115865
-5.07922e-18
-8.28389e-21
-1.70903e-18
2.84048e-21
0.00011783
-5.01284e-18
-8.3279e-21
-1.75653e-18
3.01929e-21
0.000119827
-4.97261e-18
-8.42805e-21
-1.79427e-18
3.21845e-21
0.000121856
-4.9436e-18
-8.50641e-21
-1.82557e-18
3.38407e-21
0.000123918
-4.90473e-18
-8.60676e-21
-1.83762e-18
3.5431e-21
0.000126014
-4.85744e-18
-8.68395e-21
-1.87746e-18
3.64784e-21
0.000128144
-4.81296e-18
-8.76284e-21
-1.92536e-18
3.69492e-21
0.000130309
-4.79015e-18
-8.90582e-21
-1.95695e-18
3.74104e-21
0.00013251
-4.73125e-18
-8.91476e-21
-2.0016e-18
3.78765e-21
0.000134746
-4.70217e-18
-8.92549e-21
-2.04864e-18
3.7709e-21
0.000137018
-4.64679e-18
-8.93841e-21
-2.08687e-18
3.84629e-21
0.000139328
-4.60227e-18
-8.92531e-21
-2.10681e-18
3.91592e-21
0.000141675
-4.5547e-18
-8.78377e-21
-2.14843e-18
3.78899e-21
0.00014406
-4.50279e-18
-8.66506e-21
-2.1825e-18
3.6208e-21
0.000146484
-4.46339e-18
-8.61121e-21
-2.22416e-18
3.48975e-21
0.000148948
-4.42247e-18
-8.62661e-21
-2.24803e-18
3.47388e-21
0.000151451
-4.36916e-18
-8.54859e-21
-2.2853e-18
3.41448e-21
0.000153995
-4.32939e-18
-8.46006e-21
-2.31011e-18
3.41064e-21
0.000156581
-4.28579e-18
-8.4426e-21
-2.35134e-18
3.39499e-21
0.000159208
-4.22999e-18
-8.61338e-21
-2.37898e-18
3.35379e-21
0.000161879
-4.19304e-18
-8.85296e-21
-2.38963e-18
3.2857e-21
0.000164592
-4.14857e-18
-9.19736e-21
-2.38732e-18
3.05904e-21
0.00016735
-4.12089e-18
-9.49902e-21
-2.4097e-18
2.63184e-21
0.000170152
-4.09795e-18
-9.76906e-21
-2.4171e-18
2.22986e-21
0.000172999
-4.03643e-18
-9.92015e-21
-2.43144e-18
1.90783e-21
0.000175893
-3.98673e-18
-1.02338e-20
-2.46529e-18
1.30266e-21
0.000178833
-3.94692e-18
-1.05889e-20
-2.48344e-18
8.16824e-22
0.000181821
-3.91603e-18
-1.06501e-20
-2.49638e-18
4.86691e-22
0.000184858
-3.86465e-18
-1.0755e-20
-2.48771e-18
1.60876e-22
0.000187943
-3.81118e-18
-1.08733e-20
-2.49753e-18
-5.76947e-22
0.000191078
-3.79817e-18
-1.08814e-20
-2.52164e-18
-1.4079e-21
0.000194264
-3.75895e-18
-1.08287e-20
-2.55553e-18
-2.13333e-21
0.000197502
-3.71633e-18
-1.08421e-20
-2.59028e-18
-2.63592e-21
0.000200791
-3.6516e-18
-1.10324e-20
-2.60553e-18
-3.01783e-21
0.000204133
-3.63406e-18
-1.14728e-20
-2.62924e-18
-3.46483e-21
0.00020753
-3.6291e-18
-1.19183e-20
-2.65273e-18
-3.92978e-21
0.000210981
-3.61788e-18
-1.23145e-20
-2.6485e-18
-4.1789e-21
0.000214487
-3.61421e-18
-1.26642e-20
-2.6645e-18
-4.46227e-21
0.00021805
-3.60156e-18
-1.27772e-20
-2.64287e-18
-4.61532e-21
0.000221671
-3.58983e-18
-1.29617e-20
-2.65966e-18
-5.35291e-21
0.000225349
-3.58436e-18
-1.31051e-20
-2.6449e-18
-6.11696e-21
0.000229086
-3.55779e-18
-1.31953e-20
-2.66102e-18
-6.86206e-21
0.000232884
-3.55409e-18
-1.3744e-20
-2.65263e-18
-7.6333e-21
0.000236742
-3.54452e-18
-1.44295e-20
-2.59451e-18
-8.32609e-21
0.000240662
-3.51955e-18
-1.55548e-20
-2.58284e-18
-9.27419e-21
0.000244644
-3.52004e-18
-1.69749e-20
-2.64162e-18
-1.01748e-20
0.000248691
-3.48525e-18
-1.77586e-20
-2.69587e-18
-1.12437e-20
0.000252802
-3.45209e-18
-1.79097e-20
-2.73927e-18
-1.26326e-20
0.000256979
-3.30239e-18
-1.81996e-20
-2.76528e-18
-1.40817e-20
0.000261222
-3.24146e-18
-1.96774e-20
-2.79473e-18
-1.45359e-20
0.000265533
-3.1977e-18
-2.04564e-20
-2.72278e-18
-1.54562e-20
0.000269913
-3.22145e-18
-2.05455e-20
-2.70271e-18
-1.73436e-20
0.000274362
-3.19198e-18
-2.0223e-20
-2.7277e-18
-1.92851e-20
0.000278882
-3.16219e-18
-2.03096e-20
-2.67677e-18
-2.01333e-20
0.000283474
-3.17667e-18
-1.94729e-20
-2.71735e-18
-2.17191e-20
0.000288139
-3.10028e-18
-1.89386e-20
-2.68383e-18
-2.23995e-20
0.000292878
-2.95907e-18
-1.84757e-20
-2.76777e-18
-2.3357e-20
0.000297691
-2.87088e-18
-1.78936e-20
-2.85326e-18
-2.32037e-20
0.000302581
-2.85307e-18
-1.85992e-20
-2.82839e-18
-2.11584e-20
0.000307548
-2.85641e-18
-1.74485e-20
-2.76637e-18
-1.96475e-20
0.000312594
-2.76653e-18
-1.65e-20
-2.8214e-18
-1.92347e-20
0.000317719
-2.7644e-18
-1.77207e-20
-2.79269e-18
-1.82889e-20
0.000322925
-2.72951e-18
-1.82635e-20
-2.78603e-18
-1.8542e-20
0.000328212
-2.75627e-18
-1.86168e-20
-2.78867e-18
-1.86137e-20
0.000333583
-2.76088e-18
-1.82405e-20
-2.70177e-18
-1.92937e-20
0.000339038
-2.69344e-18
-1.75757e-20
-2.67595e-18
-2.14432e-20
0.000344578
-2.63184e-18
-1.90606e-20
-2.57813e-18
-2.08703e-20
0.000350205
-2.59732e-18
-2.01671e-20
-2.52861e-18
-2.21508e-20
0.00035592
-2.59078e-18
-2.11956e-20
-2.50065e-18
-2.30782e-20
0.000361724
-2.51183e-18
-2.17619e-20
-2.4752e-18
-2.38573e-20
0.000367618
-2.49673e-18
-2.38782e-20
-2.4605e-18
-2.50494e-20
0.000373604
-2.47049e-18
-2.5709e-20
-2.42944e-18
-2.63706e-20
0.000379682
-2.42279e-18
-2.68653e-20
-2.41166e-18
-2.93458e-20
0.000385855
-2.41899e-18
-2.76026e-20
-2.44135e-18
-3.04638e-20
0.000392123
-2.3702e-18
-2.76533e-20
-2.41142e-18
-3.04547e-20
0.000398487
-2.34716e-18
-2.68326e-20
-2.36398e-18
-3.04501e-20
0.00040495
-2.34847e-18
-2.6261e-20
-2.37982e-18
-3.12571e-20
0.000411511
-2.31585e-18
-2.60018e-20
-2.36698e-18
-3.1479e-20
0.000418173
-2.29721e-18
-2.64564e-20
-2.32845e-18
-2.94678e-20
0.000424937
-2.22159e-18
-2.68673e-20
-2.29645e-18
-2.6317e-20
0.000431803
-2.29759e-18
-2.8302e-20
-2.30489e-18
-2.18568e-20
0.000438774
-2.25053e-18
-3.03697e-20
-2.2259e-18
-1.6147e-20
0.000445851
-2.21935e-18
-3.06363e-20
-2.24454e-18
-1.56296e-20
0.000453034
-2.18499e-18
-2.85168e-20
-2.21057e-18
-1.85453e-20
0.000460325
-2.22003e-18
-2.91636e-20
-2.15143e-18
-1.87614e-20
0.000467726
-2.1896e-18
-2.80992e-20
-2.14536e-18
-1.8158e-20
0.000475238
-2.14847e-18
-2.69427e-20
-2.18199e-18
-1.56232e-20
0.000482861
-2.14331e-18
-2.62311e-20
-2.13798e-18
-1.4414e-20
0.000490597
-2.19346e-18
-2.43675e-20
-1.9527e-18
-1.47314e-20
0.000498447
-2.01012e-18
-1.64939e-20
-1.97287e-18
-1.57788e-20
0.000506413
-1.90282e-18
-1.31283e-20
-1.91844e-18
-1.52622e-20
0.000514495
-1.85577e-18
-1.30878e-20
-1.80196e-18
-1.24092e-20
0.000522695
-1.85751e-18
-1.40642e-20
-1.74473e-18
-9.82483e-21
0.000531014
-1.72946e-18
-1.3995e-20
-1.6259e-18
-6.64992e-21
0.000539452
-1.71542e-18
-1.51725e-20
-1.59649e-18
-4.92051e-21
0.000548012
-1.67903e-18
-1.7164e-20
-1.56649e-18
-3.07587e-21
0.000556692
-1.54035e-18
-1.73416e-20
-1.71543e-18
-4.73887e-21
0.000565496
-1.3699e-18
-1.54114e-20
-1.45002e-18
-8.64755e-21
0.000574422
-1.41904e-18
-1.96634e-20
-1.46471e-18
-1.68499e-20
0.000583473
-1.41017e-18
-2.32633e-20
-1.422e-18
-1.59353e-20
0.000592648
-1.36896e-18
-2.63908e-20
-1.53898e-18
-1.67799e-20
0.000601948
-1.32129e-18
-3.00432e-20
-1.37428e-18
-1.67804e-20
0.000611374
-1.31605e-18
-2.57666e-20
-1.40082e-18
-1.98287e-20
0.000620926
-1.28355e-18
-1.77316e-20
-1.3482e-18
-2.0586e-20
0.000630605
-1.35898e-18
-2.33549e-20
-1.19462e-18
-2.61595e-20
0.000640409
-1.40212e-18
-2.2112e-20
-1.27369e-18
-3.28823e-20
0.000650339
-1.30289e-18
-6.80172e-21
-1.16973e-18
-3.27511e-20
0.000660395
-1.13856e-18
-4.52066e-21
-1.29959e-18
-2.68217e-20
0.000670577
-1.12963e-18
-1.22241e-20
-1.15565e-18
-1.85563e-20
0.000680883
-1.08512e-18
-1.1198e-20
-1.14993e-18
-2.07233e-20
0.000691313
-1.0709e-18
-1.09819e-20
-1.13347e-18
-1.99907e-20
0.000701865
-9.90274e-19
-2.22522e-20
-1.11753e-18
-1.59099e-20
0.000712539
-1.06488e-18
-3.51841e-20
-1.14586e-18
-1.28082e-20
0.000723333
-9.98515e-19
-2.77908e-20
-1.0655e-18
-1.45467e-21
0.000734244
-9.76628e-19
-2.13819e-20
-9.35988e-19
6.51799e-21
0.000745272
-9.08764e-19
-9.05716e-21
-9.89179e-19
4.24102e-21
0.000756412
-8.41381e-19
7.54296e-22
-9.02173e-19
-4.40431e-22
0.000767664
-8.81366e-19
6.50004e-21
-8.99223e-19
-7.355e-21
0.000779023
-8.43182e-19
8.10154e-21
-7.94296e-19
-1.63581e-20
0.000790487
-9.06837e-19
5.3751e-21
-8.41671e-19
-3.17041e-20
0.000802052
1.04889e-20
-8.4055e-19
-2.94174e-20
-7.77102e-19
2.54777e-08
-2.4954e-22
3.35009e-24
7.79131e-08
-6.62207e-22
-1.22615e-23
1.32628e-07
-1.14996e-21
3.00178e-25
1.89701e-07
-1.63615e-21
1.04738e-23
2.49211e-07
-2.08556e-21
-5.91612e-23
3.11241e-07
-2.66411e-21
-2.81758e-25
3.75875e-07
-3.21428e-21
2.51097e-23
4.432e-07
-3.80291e-21
1.13613e-22
5.13306e-07
-4.50319e-21
1.49123e-22
5.86284e-07
-5.18104e-21
2.03131e-22
6.62227e-07
-5.93493e-21
3.05251e-22
7.41232e-07
-6.58413e-21
3.67654e-22
8.23393e-07
-7.23626e-21
2.87005e-22
9.08808e-07
-7.93041e-21
2.20137e-22
9.97571e-07
-8.99811e-21
5.00766e-22
1.08978e-06
-9.77379e-21
9.86309e-22
1.18552e-06
-1.07272e-20
1.07321e-21
1.28488e-06
-1.17975e-20
1.23964e-21
1.38794e-06
-1.26853e-20
1.85951e-21
1.49477e-06
-1.37068e-20
2.05767e-21
1.60543e-06
-1.4452e-20
2.11876e-21
1.71997e-06
-1.57221e-20
2.03627e-21
1.83841e-06
-1.65226e-20
2.14827e-21
1.96076e-06
-1.75822e-20
1.90323e-21
2.08702e-06
-1.82719e-20
1.30907e-21
2.21715e-06
-1.91113e-20
9.51116e-22
2.35109e-06
-2.05678e-20
5.69384e-22
2.48878e-06
-2.15256e-20
1.84385e-22
2.6301e-06
-2.24663e-20
-2.69746e-22
2.77494e-06
-2.35478e-20
-8.68407e-22
2.92316e-06
-2.52938e-20
-4.49914e-22
3.07462e-06
-2.72824e-20
-6.64551e-23
3.22915e-06
-2.91573e-20
1.97554e-22
3.38661e-06
-3.0744e-20
2.56028e-22
3.54682e-06
-3.23957e-20
1.07879e-21
3.70964e-06
-3.43124e-20
1.08626e-21
3.87492e-06
-3.52714e-20
1.16483e-21
4.04253e-06
-3.68558e-20
7.0675e-22
4.21235e-06
-3.79165e-20
3.59894e-22
4.38428e-06
-3.90864e-20
7.3668e-23
4.55823e-06
-4.00193e-20
-6.8515e-22
4.73413e-06
-4.13387e-20
-1.28333e-21
4.91194e-06
-4.26662e-20
-5.83874e-22
5.09161e-06
-4.3342e-20
-5.60017e-22
5.27312e-06
-4.42871e-20
-9.48898e-22
5.45647e-06
-4.54595e-20
-6.26964e-22
5.64166e-06
-4.69204e-20
-9.88051e-22
5.8287e-06
-4.87159e-20
-1.50135e-21
6.01761e-06
-4.95281e-20
-1.06004e-21
6.20843e-06
-5.24076e-20
-8.17599e-22
6.4012e-06
-5.36796e-20
-2.17063e-21
6.59597e-06
-5.56089e-20
-2.97756e-21
6.79278e-06
-5.74379e-20
-3.23747e-21
6.99169e-06
-5.87425e-20
-2.85133e-21
7.19277e-06
-6.02802e-20
-3.8348e-21
7.39606e-06
-6.157e-20
-3.84405e-21
7.60165e-06
-6.35482e-20
-4.2725e-21
7.80959e-06
-6.55311e-20
-4.97461e-21
8.01996e-06
-6.58774e-20
-6.87711e-21
8.23282e-06
-6.91318e-20
-8.25059e-21
8.44826e-06
-7.15612e-20
-8.10918e-21
8.66633e-06
-7.30939e-20
-7.56385e-21
8.88713e-06
-7.62163e-20
-7.06524e-21
9.11072e-06
-7.72106e-20
-8.29404e-21
9.33718e-06
-8.20535e-20
-8.64448e-21
9.56659e-06
-8.38132e-20
-6.28865e-21
9.79902e-06
-8.52077e-20
-6.27371e-21
1.00345e-05
-8.74235e-20
-2.97842e-21
1.02733e-05
-8.94295e-20
-3.3321e-21
1.05152e-05
-9.09649e-20
-4.20663e-21
1.07605e-05
-9.09173e-20
-6.42315e-21
1.10093e-05
-8.92103e-20
-1.0666e-20
1.12615e-05
-9.1126e-20
-1.1614e-20
1.15173e-05
-9.27912e-20
-1.12985e-20
1.17768e-05
-9.44848e-20
-9.43841e-21
1.204e-05
-9.67574e-20
-8.44364e-21
1.23071e-05
-1.01762e-19
-6.57607e-21
1.2578e-05
-1.02871e-19
-3.89416e-21
1.2853e-05
-1.01978e-19
-5.99905e-21
1.3132e-05
-1.03496e-19
-7.75158e-21
1.34152e-05
-1.09228e-19
-8.27637e-21
1.37027e-05
-1.11904e-19
-9.43414e-21
1.39945e-05
-1.14778e-19
-8.62666e-21
1.42907e-05
-1.16301e-19
-8.90924e-21
1.45915e-05
-1.17603e-19
-9.08278e-21
1.48968e-05
-1.20037e-19
-9.68037e-21
1.52068e-05
-1.24291e-19
-8.07485e-21
1.55217e-05
-1.26903e-19
-6.08849e-21
1.58414e-05
-1.30887e-19
-8.32553e-21
1.61661e-05
-1.39813e-19
-5.13584e-21
1.64958e-05
-1.4383e-19
-6.8641e-21
1.68308e-05
-1.46749e-19
-5.30001e-21
1.71709e-05
-1.49364e-19
-3.8197e-21
1.75165e-05
-1.50634e-19
-5.11856e-21
1.78675e-05
-1.57621e-19
-6.75575e-21
1.82241e-05
-1.59161e-19
-5.61198e-21
1.85863e-05
-1.63643e-19
-7.1268e-21
1.89543e-05
-1.6644e-19
-7.81669e-21
1.93282e-05
-1.69503e-19
-7.11994e-21
1.9708e-05
-1.7279e-19
-8.33184e-21
2.0094e-05
-1.7187e-19
-5.80835e-21
2.04861e-05
-1.78198e-19
-7.19465e-21
2.08845e-05
-1.81669e-19
-7.92093e-21
2.12894e-05
-1.7944e-19
-1.18397e-20
2.17007e-05
-1.83281e-19
-1.16162e-20
2.21188e-05
-1.80431e-19
-1.34965e-20
2.25435e-05
-1.82815e-19
-1.45982e-20
2.29752e-05
-1.85157e-19
-1.79662e-20
2.34139e-05
-1.85753e-19
-2.06512e-20
2.38597e-05
-1.80154e-19
-2.93642e-20
2.43127e-05
-1.81862e-19
-3.21851e-20
2.47731e-05
-1.81585e-19
-3.31121e-20
2.5241e-05
-1.81735e-19
-3.30758e-20
2.57166e-05
-1.8281e-19
-3.51177e-20
2.61999e-05
-1.85096e-19
-3.62964e-20
2.66911e-05
-1.82507e-19
-2.98091e-20
2.71903e-05
-1.84086e-19
-2.47517e-20
2.76977e-05
-1.84523e-19
-2.99986e-20
2.82134e-05
-1.8641e-19
-3.06432e-20
2.87375e-05
-1.89564e-19
-3.28201e-20
2.92703e-05
-1.90821e-19
-3.80726e-20
2.98117e-05
-1.9309e-19
-3.43178e-20
3.03621e-05
-1.95663e-19
-3.42202e-20
3.09215e-05
-2.02532e-19
-3.03137e-20
3.149e-05
-2.05636e-19
-2.6927e-20
3.2068e-05
-2.04902e-19
-2.47764e-20
3.26554e-05
-2.12407e-19
-2.5142e-20
3.32525e-05
-2.11693e-19
-2.89222e-20
3.38594e-05
-2.19872e-19
-3.62654e-20
3.44762e-05
-2.22925e-19
-3.91961e-20
3.51033e-05
-2.28194e-19
-2.92797e-20
3.57407e-05
-2.3341e-19
-3.08146e-20
3.63885e-05
-2.42865e-19
-3.18317e-20
3.7047e-05
-2.4593e-19
-3.79143e-20
3.77164e-05
-2.51372e-19
-3.88779e-20
3.83969e-05
-2.54562e-19
-4.0551e-20
3.90885e-05
-2.63582e-19
-3.50398e-20
3.97915e-05
-2.7019e-19
-4.2255e-20
4.05061e-05
-2.75654e-19
-4.68022e-20
4.12325e-05
-2.83596e-19
-5.34005e-20
4.19709e-05
-2.70508e-19
-5.97751e-20
4.27215e-05
-2.71051e-19
-6.87009e-20
4.34844e-05
-2.79084e-19
-7.18293e-20
4.426e-05
-2.78859e-19
-6.82718e-20
4.50483e-05
-2.847e-19
-7.28444e-20
4.58496e-05
-2.85548e-19
-8.30209e-20
4.66641e-05
-2.86916e-19
-8.814e-20
4.74921e-05
-2.9456e-19
-9.31357e-20
4.83338e-05
-3.06587e-19
-8.58112e-20
4.91893e-05
-3.11183e-19
-8.62007e-20
5.00589e-05
-3.09803e-19
-8.5231e-20
5.09429e-05
-3.18802e-19
-8.84162e-20
5.18414e-05
-3.21553e-19
-9.45151e-20
5.27548e-05
-3.22248e-19
-9.34361e-20
5.36833e-05
-3.23174e-19
-9.47211e-20
5.4627e-05
-3.30156e-19
-1.02506e-19
5.55863e-05
-3.34918e-19
-9.06307e-20
5.65614e-05
-3.39002e-19
-9.64367e-20
5.75526e-05
-3.43317e-19
-9.89759e-20
5.85602e-05
-3.49652e-19
-1.02488e-19
5.95843e-05
-3.59289e-19
-1.02634e-19
6.06254e-05
-3.73521e-19
-9.69219e-20
6.16835e-05
-3.61833e-19
-1.07832e-19
6.27592e-05
-3.57088e-19
-1.13081e-19
6.38525e-05
-3.47495e-19
-1.14835e-19
6.49638e-05
-3.3948e-19
-1.1686e-19
6.60935e-05
-3.40385e-19
-1.09176e-19
6.72417e-05
-3.5326e-19
-1.10863e-19
6.84089e-05
-3.66789e-19
-1.06987e-19
6.95953e-05
-3.70809e-19
-1.06894e-19
7.08012e-05
-3.88584e-19
-1.19331e-19
7.20269e-05
-4.04375e-19
-1.23533e-19
7.32728e-05
-4.00592e-19
-1.39731e-19
7.45392e-05
-3.89352e-19
-1.35273e-19
7.58264e-05
-3.67606e-19
-1.33237e-19
7.71348e-05
-3.7924e-19
-1.31289e-19
7.84647e-05
-3.8827e-19
-1.42248e-19
7.98164e-05
-3.69035e-19
-1.46425e-19
8.11904e-05
-3.78716e-19
-1.50734e-19
8.25869e-05
-3.84201e-19
-1.53764e-19
8.40064e-05
-3.67809e-19
-1.61979e-19
8.54492e-05
-3.67599e-19
-1.70123e-19
8.69157e-05
-3.75175e-19
-1.68704e-19
8.84062e-05
-3.79621e-19
-1.61416e-19
8.99212e-05
-3.86901e-19
-1.55957e-19
9.14611e-05
-3.84969e-19
-1.60319e-19
9.30262e-05
-3.98948e-19
-1.69821e-19
9.46169e-05
-4.05292e-19
-1.67197e-19
9.62338e-05
-4.16664e-19
-1.69342e-19
9.78771e-05
-4.10049e-19
-1.80122e-19
9.95474e-05
-4.17283e-19
-1.76642e-19
0.000101245
-4.19431e-19
-1.81674e-19
0.000102971
-4.21791e-19
-1.85e-19
0.000104724
-4.26569e-19
-1.80625e-19
0.000106507
-4.32117e-19
-1.84337e-19
0.000108318
-4.32352e-19
-1.7936e-19
0.000110159
-4.12669e-19
-1.74611e-19
0.000112031
-4.1402e-19
-1.69535e-19
0.000113932
-4.14379e-19
-1.76468e-19
0.000115865
-3.85854e-19
-1.71122e-19
0.00011783
-3.66945e-19
-1.5941e-19
0.000119827
-3.48773e-19
-1.58241e-19
0.000121856
-3.6106e-19
-1.5358e-19
0.000123918
-3.54246e-19
-1.59063e-19
0.000126014
-3.47521e-19
-1.82888e-19
0.000128144
-3.6743e-19
-1.88587e-19
0.000130309
-3.56801e-19
-1.88604e-19
0.00013251
-3.55517e-19
-2.13566e-19
0.000134746
-3.89037e-19
-1.91212e-19
0.000137018
-3.96875e-19
-1.94691e-19
0.000139328
-3.88893e-19
-2.11799e-19
0.000141675
-4.15274e-19
-2.16708e-19
0.00014406
-4.35613e-19
-2.26957e-19
0.000146484
-4.54764e-19
-2.21901e-19
0.000148948
-4.31815e-19
-2.30731e-19
0.000151451
-4.19191e-19
-2.28797e-19
0.000153995
-4.31169e-19
-2.25812e-19
0.000156581
-4.65415e-19
-2.46089e-19
0.000159208
-4.6109e-19
-2.60301e-19
0.000161879
-4.74686e-19
-2.60152e-19
0.000164592
-4.47703e-19
-2.42701e-19
0.00016735
-4.48478e-19
-2.50633e-19
0.000170152
-4.50972e-19
-2.41136e-19
0.000172999
-4.58334e-19
-2.71586e-19
0.000175893
-4.40143e-19
-2.65944e-19
0.000178833
-3.81847e-19
-2.68271e-19
0.000181821
-4.03458e-19
-2.61563e-19
0.000184858
-4.10512e-19
-2.70986e-19
0.000187943
-3.92849e-19
-2.61263e-19
0.000191078
-4.02065e-19
-2.61819e-19
0.000194264
-3.94289e-19
-2.55118e-19
0.000197502
-4.03967e-19
-2.5458e-19
0.000200791
-4.00969e-19
-2.59365e-19
0.000204133
-4.10984e-19
-2.82519e-19
0.00020753
-4.31211e-19
-2.94868e-19
0.000210981
-4.43437e-19
-3.0064e-19
0.000214487
-4.31285e-19
-2.77015e-19
0.00021805