/*--------------------------------*- C++ -*----------------------------------*\
| =========                 |                                                 |
| \\      /  F ield         | OpenFOAM: The Open Source CFD Toolbox           |
|  \\    /   O peration     | Version:  2012                                  |
|   \\  /    A nd           | Website:  www.openfoam.com                      |
|    \\/     M anipulation  |                                                 |
\*---------------------------------------------------------------------------*/
FoamFile
{
    version     2.0;
    format      ascii;
    class       volScalarField;
    location    "14500";
    object      p;
}
// * * * * * * * * * * * * * * * * * * * * * * * * * * * * * * * * * * * * * //

dimensions      [0 2 -2 0 0 0 0];


internalField   nonuniform List<scalar> 
2560
(
3.31344e-10
0.000663563
-3.696e-08
0.000663508
-2.35438e-07
0.0006633
-8.2786e-07
0.000662708
-2.20483e-06
0.000661337
-4.91711e-06
0.000658625
-9.61643e-06
0.000653926
-1.70925e-05
0.00064645
-2.82876e-05
0.000635253
-4.4275e-05
0.000619265
-6.62664e-05
0.000597271
-9.56249e-05
0.00056791
-0.000133835
0.000529698
-0.000182529
0.000481001
-0.000243476
0.00042005
-0.000318579
0.000344943
-0.000409868
0.000253651
-0.000519495
0.000144018
-0.000649774
1.37352e-05
-0.000803107
-0.000139603
-0.000982001
-0.000318502
-0.00118912
-0.000525631
-0.00142727
-0.000763787
-0.00169926
-0.00103577
-0.00200803
-0.00134455
-0.00235672
-0.00169325
-0.0027485
-0.00208504
-0.00318653
-0.00252307
-0.00367413
-0.00301068
-0.0042148
-0.00355136
-0.00481202
-0.00414858
-0.00546921
-0.00480578
-0.00619
-0.00552657
-0.00697815
-0.00631473
-0.00783731
-0.00717389
-0.00877111
-0.0081077
-0.00978341
-0.00912001
-0.0108781
-0.0102147
-0.012059
-0.0113956
-0.0133299
-0.0126665
-0.0146945
-0.0140311
-0.0161571
-0.0154937
-0.0177214
-0.017058
-0.0193911
-0.0187278
-0.0211703
-0.020507
-0.0230629
-0.0223995
-0.0250727
-0.0244094
-0.0272035
-0.0265401
-0.0294591
-0.0287957
-0.0318438
-0.0311804
-0.0343608
-0.0336974
-0.0370129
-0.0363495
-0.0398061
-0.0391427
-0.0427424
-0.0420791
-0.0458252
-0.0451618
-0.0490597
-0.0483963
-0.0524472
-0.0517838
-0.0559931
-0.0553297
-0.0596994
-0.059036
-0.0635691
-0.0629057
-0.067606
-0.0669426
-0.0718134
-0.07115
-0.0761948
-0.0755313
-0.0807504
-0.080087
-0.085485
-0.0848215
-0.0904023
-0.0897389
-0.0955015
-0.0948381
-0.100788
-0.100124
-0.10626
-0.105597
-0.111925
-0.111261
-0.11778
-0.117116
-0.123828
-0.123164
-0.130071
-0.129408
-0.136509
-0.135846
-0.143145
-0.142482
-0.149978
-0.149314
-0.157009
-0.156346
-0.164238
-0.163574
-0.171665
-0.171002
-0.179289
-0.178626
-0.187112
-0.186448
-0.19513
-0.194466
-0.203343
-0.20268
-0.211751
-0.211087
-0.220349
-0.219685
-0.229137
-0.228473
-0.238113
-0.237449
-0.247274
-0.246611
-0.256618
-0.255954
-0.26614
-0.265476
-0.275835
-0.275171
-0.285703
-0.285039
-0.295737
-0.295073
-0.305935
-0.305271
-0.316288
-0.315624
-0.326795
-0.326131
-0.33745
-0.336786
-0.348244
-0.34758
-0.359176
-0.358512
-0.370235
-0.369571
-0.381419
-0.380755
-0.39272
-0.392056
-0.404129
-0.403465
-0.41564
-0.414976
-0.427247
-0.426583
-0.438941
-0.438277
-0.450716
-0.450051
-0.462562
-0.461897
-0.474472
-0.473808
-0.48644
-0.485776
-0.498455
-0.49779
-0.510508
-0.509844
-0.522595
-0.521931
-0.534704
-0.534039
-0.546828
-0.546164
-0.558957
-0.558292
-0.571085
-0.570421
-0.583202
-0.582537
-0.595302
-0.594637
-0.607372
-0.606707
-0.619407
-0.618742
-0.631398
-0.630733
-0.643338
-0.642672
-0.655218
-0.654553
-0.66703
-0.666365
-0.678767
-0.678101
-0.690422
-0.689756
-0.701983
-0.701318
-0.713451
-0.712786
-0.724811
-0.724145
-0.736061
-0.735395
-0.747189
-0.746524
-0.758196
-0.75753
-0.769067
-0.768401
-0.779803
-0.779137
-0.79039
-0.789724
-0.800832
-0.800165
-0.811111
-0.810445
-0.821235
-0.820568
-0.831183
-0.830517
-0.840967
-0.8403
-0.850564
-0.849898
-0.859989
-0.859321
-0.869216
-0.86855
-0.878266
-0.877598
-0.887106
-0.88644
-0.895766
-0.895097
-0.904205
-0.90354
-0.912463
-0.911793
-0.92049
-0.919825
-0.928336
-0.927666
-0.935941
-0.935277
-0.943368
-0.942696
-0.950542
-0.949879
-0.957544
-0.956871
-0.96428
-0.963618
-0.970852
-0.970178
-0.977146
-0.976485
-0.983287
-0.982609
-0.989133
-0.988475
-0.994843
-0.994162
-1.00024
-0.999583
-1.00552
-1.00484
-1.01046
-1.00981
-1.01532
-1.01463
-1.01981
-1.01916
-1.02425
-1.02355
-1.02828
-1.02764
-1.03231
-1.03161
-1.03589
-1.03526
-1.03952
-1.03881
-1.04265
-1.04203
-1.0459
-1.04516
-1.04856
-1.04796
-1.05145
-1.05069
-1.05365
-1.05307
-1.05619
-1.05541
-1.05793
-1.05739
-1.06017
-1.05935
-1.06144
-1.06095
-1.06342
-1.06253
-1.0642
-1.06377
-1.06596
-1.065
-1.06647
-1.06589
-1.06783
-1.06678
-1.06817
-1.06735
-1.06905
-1.06789
-1.06923
-1.06817
-1.06965
-1.06838
-1.06967
-1.06838
-1.06932
-1.06825
-1.06917
-1.06799
-1.0684
-1.06755
-1.06811
-1.06702
-1.06694
-1.06629
-1.06651
-1.06551
-1.06498
-1.0645
-1.06441
-1.06348
-1.06275
-1.0622
-1.06183
-1.06095
-1.06004
-1.05944
-1.0588
-1.05796
-1.05685
-1.05622
-1.05534
-1.05452
-1.05323
-1.05257
-1.05145
-1.05065
-1.04918
-1.0485
-1.04716
-1.04638
-1.04473
-1.04403
-1.04248
-1.04171
-1.0399
-1.03918
-1.03744
-1.03667
-1.03469
-1.03397
-1.03204
-1.03128
-1.02914
-1.02841
-1.02631
-1.02554
-1.02326
-1.02252
-1.02025
-1.01949
-1.01705
-1.01631
-1.01387
-1.0131
-1.01051
-1.00976
-1.00715
-1.00638
-1.00363
-1.00287
-1.00009
-0.999315
-0.996392
-0.995624
-0.992657
-0.991881
-0.988787
-0.988013
-0.984873
-0.984092
-0.98084
-0.980059
-0.976758
-0.975971
-0.972566
-0.971779
-0.968317
-0.967525
-0.963959
-0.963166
-0.959537
-0.958739
-0.955007
-0.954208
-0.950406
-0.949602
-0.945701
-0.944895
-0.940919
-0.940109
-0.936034
-0.935221
-0.931066
-0.930249
-0.925999
-0.92518
-0.92085
-0.920027
-0.915612
-0.914786
-0.910295
-0.909465
-0.904895
-0.904062
-0.899412
-0.898575
-0.89385
-0.893011
-0.888202
-0.887359
-0.882476
-0.881631
-0.876656
-0.875808
-0.870758
-0.869907
-0.864759
-0.863906
-0.858689
-0.857834
-0.852517
-0.85166
-0.84628
-0.845421
-0.839943
-0.839082
-0.833558
-0.832696
-0.827079
-0.826216
-0.820569
-0.819706
-0.813961
-0.813097
-0.807325
-0.806461
-0.800566
-0.799702
-0.793772
-0.792907
-0.786831
-0.785965
-0.77985
-0.778982
-0.772705
-0.771836
-0.765543
-0.764672
-0.758221
-0.757347
-0.750916
-0.75004
-0.743453
-0.742574
-0.736034
-0.735151
-0.728427
-0.727541
-0.720874
-0.719984
-0.713103
-0.712208
-0.705415
-0.704515
-0.697485
-0.696579
-0.689675
-0.68876
-0.681585
-0.680663
-0.673651
-0.672717
-0.665391
-0.664447
-0.65733
-0.65637
-0.648892
-0.647918
-0.640721
-0.639726
-0.632131
-0.631117
-0.623891
-0.622849
-0.61518
-0.614112
-0.606922
-0.605818
-0.598136
-0.596999
-0.589923
-0.588738
-0.581105
-0.579881
-0.572998
-0.571714
-0.564184
-0.562855
-0.556232
-0.554829
-0.547447
-0.545998
-0.539705
-0.538163
-0.530954
-0.529368
-0.523431
-0.521728
-0.51469
-0.51295
-0.507443
-0.505548
-0.498756
-0.496842
-0.491909
-0.489785
-0.483377
-0.481275
-0.477132
-0.474737
-0.468862
-0.466563
-0.463369
-0.460651
-0.455348
-0.452858
-0.450685
-0.447584
-0.442852
-0.440197
-0.439164
-0.435613
-0.431524
-0.428754
-0.429046
-0.424959
-0.415256
-0.41878
-0.413164
-0.415716
-0.406746
-0.410641
-0.405101
-0.408251
-0.400031
-0.404426
-0.398884
-0.402763
-0.395287
-0.40031
-0.394674
-0.399418
-0.392761
-0.39854
0.000663701
2.19362e-06
0.000663646
2.15621e-06
0.000663438
1.95747e-06
0.000662846
1.3647e-06
0.000661475
-1.25455e-08
0.000658763
-2.72546e-06
0.000654064
-7.42572e-06
0.000646587
-1.49032e-05
0.000635391
-2.61002e-05
0.000619402
-4.209e-05
0.000597409
-6.40841e-05
0.000568048
-9.34462e-05
0.000529835
-0.00013166
0.000481138
-0.000180358
0.000420187
-0.00024131
0.000345079
-0.000316419
0.000253787
-0.000407713
0.000144154
-0.000517347
1.38703e-05
-0.000647632
-0.000139468
-0.000800972
-0.000318368
-0.000979874
-0.000525497
-0.00118701
-0.000763653
-0.00142516
-0.00103564
-0.00169715
-0.00134442
-0.00200593
-0.00169312
-0.00235463
-0.00208491
-0.00274643
-0.00252294
-0.00318446
-0.00301055
-0.00367207
-0.00355123
-0.00421276
-0.00414845
-0.00480999
-0.00480565
-0.00546719
-0.00552645
-0.00618799
-0.0063146
-0.00697615
-0.00717376
-0.00783532
-0.00810758
-0.00876914
-0.00911989
-0.00978145
-0.0102146
-0.0108762
-0.0113955
-0.0120571
-0.0126663
-0.0133279
-0.014031
-0.0146926
-0.0154936
-0.0161552
-0.0170579
-0.0177195
-0.0187276
-0.0193893
-0.0205069
-0.0211685
-0.0223994
-0.0230611
-0.0244093
-0.0250709
-0.02654
-0.0272017
-0.0287956
-0.0294573
-0.0311803
-0.031842
-0.0336973
-0.034359
-0.0363494
-0.0370111
-0.0391426
-0.0398043
-0.042079
-0.0427407
-0.0451617
-0.0458235
-0.0483962
-0.049058
-0.0517837
-0.0524455
-0.0553296
-0.0559914
-0.0590359
-0.0596977
-0.0629056
-0.0635674
-0.0669425
-0.0676044
-0.0711499
-0.0718118
-0.0755312
-0.0761931
-0.0800869
-0.0807488
-0.0848214
-0.0854834
-0.0897388
-0.0904007
-0.094838
-0.0955
-0.100124
-0.100786
-0.105597
-0.106259
-0.111261
-0.111923
-0.117116
-0.117778
-0.123164
-0.123827
-0.129408
-0.13007
-0.135846
-0.136508
-0.142481
-0.143144
-0.149314
-0.149976
-0.156346
-0.157008
-0.163574
-0.164236
-0.171001
-0.171664
-0.178625
-0.179288
-0.186448
-0.187111
-0.194466
-0.195129
-0.20268
-0.203342
-0.211087
-0.211749
-0.219685
-0.220348
-0.228473
-0.229136
-0.237449
-0.238112
-0.24661
-0.247273
-0.255954
-0.256617
-0.265476
-0.266138
-0.275171
-0.275834
-0.285039
-0.285702
-0.295073
-0.295736
-0.305271
-0.305933
-0.315623
-0.316286
-0.326131
-0.326794
-0.336786
-0.337449
-0.34758
-0.348243
-0.358511
-0.359175
-0.369571
-0.370234
-0.380754
-0.381418
-0.392056
-0.392719
-0.403464
-0.404128
-0.414976
-0.415639
-0.426583
-0.427246
-0.438276
-0.43894
-0.450051
-0.450715
-0.461897
-0.462561
-0.473808
-0.474472
-0.485776
-0.486439
-0.49779
-0.498454
-0.509844
-0.510508
-0.521931
-0.522595
-0.534039
-0.534703
-0.546164
-0.546828
-0.558292
-0.558956
-0.57042
-0.571085
-0.582537
-0.583201
-0.594637
-0.595301
-0.606707
-0.607371
-0.618742
-0.619406
-0.630733
-0.631398
-0.642672
-0.643337
-0.654553
-0.655217
-0.666365
-0.66703
-0.678101
-0.678766
-0.689756
-0.690421
-0.701318
-0.701983
-0.712785
-0.713451
-0.724145
-0.72481
-0.735395
-0.73606
-0.746524
-0.747189
-0.75753
-0.758196
-0.768401
-0.769066
-0.779137
-0.779802
-0.789724
-0.790389
-0.800165
-0.800831
-0.810445
-0.81111
-0.820568
-0.821234
-0.830517
-0.831183
-0.8403
-0.840967
-0.849898
-0.850563
-0.859321
-0.859989
-0.86855
-0.869216
-0.877598
-0.878265
-0.88644
-0.887105
-0.895097
-0.895765
-0.90354
-0.904205
-0.911793
-0.912462
-0.919825
-0.92049
-0.927666
-0.928336
-0.935277
-0.935941
-0.942696
-0.943368
-0.949879
-0.950542
-0.956871
-0.957543
-0.963618
-0.96428
-0.970178
-0.970852
-0.976485
-0.977146
-0.982609
-0.983286
-0.988475
-0.989133
-0.994162
-0.994842
-0.999583
-1.00024
-1.00484
-1.00552
-1.00981
-1.01046
-1.01463
-1.01532
-1.01916
-1.01981
-1.02355
-1.02425
-1.02764
-1.02828
-1.03161
-1.03231
-1.03526
-1.03589
-1.03881
-1.03952
-1.04203
-1.04265
-1.04516
-1.0459
-1.04796
-1.04856
-1.05069
-1.05145
-1.05307
-1.05365
-1.05541
-1.05619
-1.05739
-1.05793
-1.05935
-1.06017
-1.06095
-1.06144
-1.06253
-1.06342
-1.06377
-1.0642
-1.065
-1.06596
-1.06589
-1.06647
-1.06678
-1.06783
-1.06735
-1.06817
-1.06789
-1.06905
-1.06817
-1.06923
-1.06838
-1.06965
-1.06838
-1.06967
-1.06825
-1.06932
-1.06799
-1.06917
-1.06755
-1.0684
-1.06702
-1.06811
-1.06629
-1.06694
-1.06551
-1.06651
-1.0645
-1.06498
-1.06348
-1.06441
-1.0622
-1.06275
-1.06095
-1.06183
-1.05944
-1.06004
-1.05796
-1.0588
-1.05622
-1.05685
-1.05452
-1.05534
-1.05257
-1.05323
-1.05065
-1.05145
-1.0485
-1.04918
-1.04638
-1.04716
-1.04403
-1.04473
-1.04171
-1.04248
-1.03918
-1.0399
-1.03667
-1.03744
-1.03397
-1.03469
-1.03128
-1.03204
-1.02841
-1.02914
-1.02554
-1.02631
-1.02252
-1.02326
-1.01949
-1.02025
-1.01631
-1.01705
-1.0131
-1.01387
-1.00976
-1.01051
-1.00638
-1.00715
-1.00287
-1.00363
-0.999315
-1.00009
-0.995624
-0.996392
-0.991881
-0.992658
-0.988013
-0.988787
-0.984092
-0.984873
-0.980059
-0.98084
-0.975971
-0.976758
-0.971779
-0.972566
-0.967525
-0.968317
-0.963166
-0.96396
-0.958739
-0.959537
-0.954208
-0.955007
-0.949602
-0.950406
-0.944895
-0.945701
-0.940109
-0.940919
-0.935221
-0.936034
-0.930249
-0.931066
-0.92518
-0.925999
-0.920027
-0.92085
-0.914786
-0.915612
-0.909465
-0.910295
-0.904062
-0.904895
-0.898575
-0.899412
-0.893011
-0.89385
-0.887359
-0.888202
-0.881631
-0.882476
-0.875808
-0.876657
-0.869907
-0.870758
-0.863906
-0.86476
-0.857834
-0.858689
-0.85166
-0.852517
-0.845421
-0.84628
-0.839083
-0.839943
-0.832696
-0.833558
-0.826216
-0.827079
-0.819706
-0.820569
-0.813097
-0.813961
-0.806461
-0.807325
-0.799702
-0.800566
-0.792907
-0.793772
-0.785965
-0.786831
-0.778982
-0.77985
-0.771836
-0.772706
-0.764672
-0.765543
-0.757347
-0.758221
-0.75004
-0.750917
-0.742574
-0.743454
-0.735152
-0.736034
-0.727542
-0.728428
-0.719984
-0.720875
-0.712208
-0.713103
-0.704515
-0.705416
-0.696579
-0.697486
-0.68876
-0.689675
-0.680663
-0.681585
-0.672717
-0.673651
-0.664447
-0.665391
-0.65637
-0.65733
-0.647918
-0.648892
-0.639726
-0.640721
-0.631117
-0.632132
-0.622849
-0.623891
-0.614112
-0.61518
-0.605818
-0.606922
-0.596999
-0.598136
-0.588738
-0.589923
-0.579881
-0.581105
-0.571714
-0.572998
-0.562855
-0.564184
-0.554829
-0.556232
-0.545998
-0.547447
-0.538163
-0.539705
-0.529368
-0.530954
-0.521728
-0.523431
-0.51295
-0.51469
-0.505548
-0.507443
-0.496842
-0.498756
-0.489785
-0.491909
-0.481275
-0.483377
-0.474737
-0.477132
-0.466563
-0.468862
-0.460651
-0.463369
-0.452858
-0.455348
-0.447584
-0.450685
-0.440197
-0.442852
-0.435613
-0.439164
-0.428754
-0.431524
-0.424958
-0.429046
-0.41878
-0.415255
-0.415716
-0.413163
-0.410641
-0.406746
-0.408251
-0.405101
-0.404426
-0.400031
-0.402763
-0.398883
-0.40031
-0.395287
-0.399418
-0.394674
-0.39854
-0.392761
-0.392762
-0.39854
-0.394674
-0.399417
-0.395286
-0.40031
-0.398885
-0.402762
-0.400032
-0.404425
-0.405104
-0.408248
-0.406749
-0.410642
-0.413163
-0.415712
-0.415255
-0.418777
-0.429029
-0.424956
-0.431507
-0.428753
-0.439147
-0.435611
-0.442836
-0.440194
-0.45067
-0.447583
-0.455334
-0.452856
-0.463353
-0.460647
-0.468845
-0.466558
-0.477116
-0.474732
-0.483361
-0.481268
-0.491896
-0.489782
-0.498741
-0.496837
-0.507429
-0.505542
-0.514676
-0.512943
-0.523415
-0.521719
-0.530938
-0.529359
-0.539694
-0.538159
-0.547431
-0.545988
-0.55622
-0.554823
-0.564171
-0.562848
-0.572982
-0.571703
-0.581094
-0.579876
-0.589911
-0.588732
-0.598128
-0.596996
-0.606909
-0.60581
-0.615173
-0.61411
-0.623876
-0.622839
-0.632117
-0.631107
-0.640709
-0.639718
-0.648877
-0.647907
-0.657319
-0.656364
-0.665378
-0.664438
-0.673639
-0.67271
-0.681573
-0.680654
-0.689664
-0.688754
-0.697472
-0.696569
-0.705405
-0.704508
-0.713089
-0.712198
-0.720861
-0.719974
-0.728413
-0.727531
-0.736022
-0.735143
-0.743438
-0.742562
-0.750908
-0.750035
-0.758209
-0.757339
-0.765527
-0.764659
-0.772694
-0.771828
-0.779837
-0.778973
-0.786822
-0.785959
-0.793759
-0.792897
-0.800552
-0.799692
-0.807309
-0.806449
-0.813955
-0.813095
-0.820558
-0.819698
-0.827071
-0.826211
-0.833547
-0.832689
-0.839935
-0.839078
-0.846266
-0.845411
-0.8525
-0.851646
-0.858681
-0.857829
-0.864748
-0.863899
-0.870752
-0.869904
-0.876642
-0.875797
-0.88246
-0.881618
-0.88819
-0.88735
-0.893834
-0.892998
-0.899396
-0.898563
-0.904881
-0.904051
-0.910285
-0.909459
-0.915605
-0.914782
-0.920845
-0.920024
-0.925992
-0.925175
-0.931055
-0.930241
-0.936025
-0.935215
-0.940906
-0.940099
-0.945688
-0.944885
-0.950397
-0.949596
-0.954993
-0.954197
-0.959521
-0.958726
-0.963951
-0.963161
-0.968306
-0.967517
-0.972548
-0.971765
-0.976746
-0.975963
-0.980826
-0.980049
-0.984858
-0.98408
-0.988773
-0.988002
-0.992651
-0.991878
-0.996385
-0.99562
-1.00007
-0.999306
-1.00362
-1.00287
-1.00714
-1.00638
-1.0105
-1.00975
-1.01385
-1.01309
-1.01704
-1.0163
-1.02024
-1.01948
-1.02325
-1.02252
-1.0263
-1.02554
-1.02913
-1.0284
-1.03203
-1.03127
-1.03469
-1.03397
-1.03743
-1.03666
-1.03988
-1.03917
-1.04247
-1.0417
-1.04472
-1.04402
-1.04714
-1.04637
-1.04917
-1.04849
-1.05144
-1.05065
-1.05322
-1.05256
-1.05532
-1.05451
-1.05684
-1.05621
-1.05879
-1.05795
-1.06002
-1.05943
-1.06182
-1.06095
-1.06274
-1.0622
-1.06439
-1.06347
-1.06496
-1.06448
-1.0665
-1.06551
-1.06692
-1.06628
-1.06809
-1.06702
-1.06838
-1.06754
-1.06916
-1.06798
-1.06931
-1.06824
-1.06967
-1.06837
-1.06964
-1.06837
-1.06922
-1.06816
-1.06906
-1.06788
-1.06818
-1.06734
-1.06783
-1.06677
-1.06647
-1.06589
-1.06595
-1.06499
-1.06418
-1.06376
-1.0634
-1.06252
-1.06143
-1.06094
-1.06016
-1.05933
-1.05792
-1.05739
-1.05619
-1.0554
-1.05363
-1.05306
-1.05143
-1.05067
-1.04854
-1.04795
-1.04589
-1.04516
-1.04265
-1.04203
-1.03952
-1.0388
-1.03589
-1.03526
-1.03231
-1.0316
-1.02827
-1.02763
-1.02423
-1.02354
-1.01979
-1.01914
-1.01532
-1.01463
-1.01044
-1.00979
-1.0055
-1.00482
-1.00022
-0.999565
-0.994822
-0.99414
-0.989141
-0.98848
-0.983283
-0.982604
-0.977125
-0.976463
-0.970861
-0.970185
-0.96427
-0.963606
-0.957519
-0.956845
-0.950554
-0.949889
-0.943375
-0.942702
-0.935944
-0.935278
-0.92835
-0.927679
-0.920456
-0.91979
-0.912465
-0.911795
-0.904184
-0.903518
-0.895749
-0.89508
-0.887102
-0.886436
-0.878237
-0.877569
-0.869169
-0.868503
-0.859973
-0.859305
-0.850589
-0.849924
-0.840921
-0.840253
-0.831164
-0.830498
-0.821219
-0.820552
-0.811118
-0.810452
-0.800837
-0.800171
-0.790422
-0.789756
-0.779837
-0.779172
-0.769031
-0.768366
-0.758174
-0.757509
-0.747228
-0.746563
-0.736022
-0.735357
-0.724745
-0.72408
-0.71346
-0.712795
-0.702009
-0.701345
-0.690444
-0.68978
-0.678728
-0.678064
-0.667047
-0.666383
-0.655236
-0.654572
-0.643348
-0.642684
-0.631343
-0.630679
-0.619429
-0.618766
-0.607416
-0.606753
-0.595226
-0.594563
-0.583254
-0.582591
-0.571127
-0.570464
-0.558933
-0.558271
-0.546756
-0.546093
-0.534698
-0.534036
-0.522513
-0.52185
-0.510478
-0.509816
-0.498496
-0.497833
-0.486356
-0.485694
-0.474455
-0.473793
-0.462592
-0.46193
-0.450641
-0.449979
-0.438927
-0.438265
-0.427317
-0.426655
-0.415614
-0.414952
-0.40403
-0.403369
-0.392737
-0.392075
-0.381397
-0.380735
-0.37019
-0.369528
-0.359129
-0.358468
-0.348228
-0.347567
-0.337483
-0.336821
-0.326736
-0.326075
-0.31634
-0.315679
-0.305961
-0.3053
-0.295763
-0.295102
-0.285778
-0.285117
-0.275805
-0.275144
-0.266058
-0.265397
-0.25652
-0.255859
-0.24722
-0.246559
-0.238135
-0.237474
-0.229119
-0.228458
-0.220327
-0.219667
-0.211793
-0.211132
-0.203313
-0.202652
-0.195099
-0.194439
-0.187118
-0.186458
-0.179241
-0.178581
-0.171598
-0.170937
-0.164236
-0.163576
-0.15694
-0.15628
-0.149935
-0.149274
-0.143153
-0.142493
-0.136511
-0.13585
-0.130084
-0.129424
-0.12381
-0.123149
-0.117743
-0.117083
-0.111987
-0.111327
-0.106279
-0.105619
-0.100748
-0.100087
-0.0955375
-0.0948772
-0.0903752
-0.089715
-0.085518
-0.0848577
-0.0807158
-0.0800555
-0.0762123
-0.075552
-0.0717594
-0.0710992
-0.0676084
-0.0669482
-0.06361
-0.0629498
-0.0596888
-0.0590286
-0.0560137
-0.0553535
-0.0524323
-0.0517721
-0.0490737
-0.0484135
-0.0458174
-0.0451572
-0.042766
-0.0421058
-0.0398194
-0.0391592
-0.0369735
-0.0363133
-0.0343258
-0.0336656
-0.0318534
-0.0311932
-0.0294864
-0.0288262
-0.0272019
-0.0265417
-0.025029
-0.0243688
-0.0230769
-0.0224167
-0.0211584
-0.0204982
-0.0193809
-0.0187207
-0.0176994
-0.0170392
-0.0161536
-0.0154934
-0.0146893
-0.014029
-0.0133058
-0.0126456
-0.0120428
-0.0113826
-0.0108624
-0.0102022
-0.00978276
-0.00912254
-0.00874435
-0.00808412
-0.00783383
-0.00717357
-0.00696387
-0.00630361
-0.006173
-0.00551274
-0.00545332
-0.00479306
-0.00480429
-0.00414402
-0.00421558
-0.00355532
-0.00366605
-0.00300577
-0.00317126
-0.00251097
-0.00273506
-0.00207477
-0.00234394
-0.00168365
-0.00198762
-0.00132733
-0.00168544
-0.00102514
-0.00141286
-0.000752545
-0.00117311
-0.000512788
-0.000969895
-0.000309571
-0.000793427
-0.000133104
-0.000638123
2.22074e-05
-0.000506113
0.000154224
-0.000397881
0.000262457
-0.000307526
0.000352812
-0.000231033
0.00042931
-0.000169168
0.00049118
-0.000121053
0.000539296
-8.32784e-05
0.00057707
-5.33543e-05
0.000606997
-3.11025e-05
0.000629252
-1.53636e-05
0.000644991
-4.34588e-06
0.000656008
3.258e-06
0.000663612
7.98771e-06
0.000668343
1.06529e-05
0.000671007
1.20101e-05
0.000672362
1.26154e-05
0.000672967
1.28237e-05
0.000673183
1.28657e-05
0.00067324
-0.39854
-0.392761
-0.399417
-0.394673
-0.40031
-0.395286
-0.402762
-0.398884
-0.404425
-0.400032
-0.408248
-0.405103
-0.410642
-0.406748
-0.415712
-0.413163
-0.418777
-0.415255
-0.424956
-0.429029
-0.428753
-0.431507
-0.435611
-0.439147
-0.440194
-0.442836
-0.447583
-0.45067
-0.452856
-0.455334
-0.460647
-0.463353
-0.466558
-0.468845
-0.474732
-0.477117
-0.481268
-0.483361
-0.489782
-0.491896
-0.496837
-0.498741
-0.505542
-0.507429
-0.512943
-0.514676
-0.521719
-0.523415
-0.52936
-0.530938
-0.538159
-0.539694
-0.545988
-0.547431
-0.554823
-0.55622
-0.562848
-0.564171
-0.571703
-0.572982
-0.579876
-0.581094
-0.588732
-0.589911
-0.596996
-0.598128
-0.60581
-0.60691
-0.61411
-0.615173
-0.622839
-0.623876
-0.631107
-0.632117
-0.639718
-0.640709
-0.647907
-0.648877
-0.656364
-0.657319
-0.664438
-0.665378
-0.67271
-0.673639
-0.680654
-0.681573
-0.688754
-0.689664
-0.696569
-0.697472
-0.704508
-0.705405
-0.712198
-0.713089
-0.719974
-0.720861
-0.727531
-0.728413
-0.735143
-0.736022
-0.742562
-0.743438
-0.750035
-0.750908
-0.757339
-0.758209
-0.764659
-0.765527
-0.771828
-0.772694
-0.778973
-0.779837
-0.785959
-0.786822
-0.792897
-0.793759
-0.799692
-0.800552
-0.806449
-0.807309
-0.813095
-0.813955
-0.819698
-0.820558
-0.826211
-0.827071
-0.832689
-0.833547
-0.839078
-0.839935
-0.845411
-0.846266
-0.851646
-0.8525
-0.857829
-0.858681
-0.863899
-0.864748
-0.869904
-0.870752
-0.875797
-0.876642
-0.881618
-0.88246
-0.88735
-0.888189
-0.892998
-0.893834
-0.898563
-0.899396
-0.904051
-0.904881
-0.909459
-0.910285
-0.914782
-0.915605
-0.920024
-0.920844
-0.925175
-0.925992
-0.930241
-0.931055
-0.935215
-0.936024
-0.940099
-0.940906
-0.944885
-0.945688
-0.949596
-0.950397
-0.954197
-0.954993
-0.958726
-0.959521
-0.963161
-0.963951
-0.967517
-0.968306
-0.971765
-0.972548
-0.975963
-0.976746
-0.980049
-0.980827
-0.98408
-0.984858
-0.988002
-0.988773
-0.991878
-0.992651
-0.99562
-0.996385
-0.999305
-1.00007
-1.00287
-1.00363
-1.00638
-1.00714
-1.00975
-1.0105
-1.01309
-1.01386
-1.0163
-1.01705
-1.01948
-1.02024
-1.02252
-1.02325
-1.02554
-1.0263
-1.0284
-1.02913
-1.03127
-1.03203
-1.03397
-1.03469
-1.03666
-1.03743
-1.03917
-1.03988
-1.0417
-1.04247
-1.04402
-1.04472
-1.04637
-1.04715
-1.04849
-1.04917
-1.05065
-1.05144
-1.05256
-1.05322
-1.05451
-1.05533
-1.05621
-1.05685
-1.05795
-1.05879
-1.05943
-1.06003
-1.06095
-1.06183
-1.0622
-1.06275
-1.06347
-1.0644
-1.06449
-1.06497
-1.06551
-1.0665
-1.06628
-1.06693
-1.06702
-1.0681
-1.06754
-1.06839
-1.06798
-1.06916
-1.06825
-1.0693
-1.06837
-1.06966
-1.06837
-1.06963
-1.06816
-1.06919
-1.06788
-1.06902
-1.06734
-1.06815
-1.06677
-1.06782
-1.06589
-1.06648
-1.06499
-1.06596
-1.06376
-1.06419
-1.06253
-1.0634
-1.06094
-1.06143
-1.05934
-1.06016
-1.05739
-1.05792
-1.0554
-1.05619
-1.05306
-1.05363
-1.05067
-1.05143
-1.04795
-1.04854
-1.04516
-1.04589
-1.04203
-1.04264
-1.0388
-1.03951
-1.03526
-1.03589
-1.0316
-1.0323
-1.02763
-1.02826
-1.02354
-1.02423
-1.01915
-1.01979
-1.01463
-1.01531
-1.00979
-1.01044
-1.00482
-1.0055
-0.999567
-1.00022
-0.994142
-0.994817
-0.988482
-0.989136
-0.982607
-0.983278
-0.976465
-0.97712
-0.970187
-0.970857
-0.963609
-0.964265
-0.956847
-0.957514
-0.949892
-0.95055
-0.942704
-0.94337
-0.935281
-0.935939
-0.927681
-0.928346
-0.919792
-0.920452
-0.911797
-0.912461
-0.90352
-0.90418
-0.895082
-0.895746
-0.886438
-0.887098
-0.877571
-0.878234
-0.868505
-0.869166
-0.859307
-0.85997
-0.849926
-0.850586
-0.840255
-0.840918
-0.8305
-0.831161
-0.820554
-0.821216
-0.810454
-0.811115
-0.800173
-0.800835
-0.789758
-0.79042
-0.779174
-0.779835
-0.768368
-0.769029
-0.757511
-0.758173
-0.746565
-0.747226
-0.735359
-0.73602
-0.724082
-0.724743
-0.712797
-0.713458
-0.701347
-0.702008
-0.689781
-0.690443
-0.678065
-0.678727
-0.666385
-0.667046
-0.654574
-0.655235
-0.642686
-0.643347
-0.630681
-0.631342
-0.618767
-0.619428
-0.606754
-0.607415
-0.594564
-0.595225
-0.582592
-0.583253
-0.570465
-0.571126
-0.558272
-0.558933
-0.546094
-0.546755
-0.534037
-0.534698
-0.521852
-0.522513
-0.509817
-0.510478
-0.497835
-0.498496
-0.485695
-0.486356
-0.473794
-0.474455
-0.461931
-0.462592
-0.44998
-0.450641
-0.438266
-0.438927
-0.426657
-0.427317
-0.414953
-0.415614
-0.40337
-0.40403
-0.392076
-0.392737
-0.380736
-0.381397
-0.369529
-0.37019
-0.358469
-0.359129
-0.347568
-0.348229
-0.336822
-0.337483
-0.326076
-0.326736
-0.31568
-0.31634
-0.3053
-0.305961
-0.295102
-0.295763
-0.285118
-0.285778
-0.275145
-0.275806
-0.265398
-0.266059
-0.25586
-0.25652
-0.24656
-0.24722
-0.237475
-0.238135
-0.228459
-0.229119
-0.219668
-0.220328
-0.211133
-0.211793
-0.202653
-0.203313
-0.19444
-0.1951
-0.186459
-0.187119
-0.178581
-0.179242
-0.170938
-0.171598
-0.163576
-0.164237
-0.15628
-0.156941
-0.149275
-0.149935
-0.142493
-0.143153
-0.135851
-0.136511
-0.129424
-0.130084
-0.12315
-0.12381
-0.117084
-0.117744
-0.111327
-0.111987
-0.105619
-0.106279
-0.100088
-0.100748
-0.0948779
-0.0955377
-0.0897156
-0.0903754
-0.0848583
-0.0855182
-0.0800561
-0.0807159
-0.0755526
-0.0762125
-0.0710998
-0.0717596
-0.0669488
-0.0676086
-0.0629504
-0.0636102
-0.0590292
-0.059689
-0.0553541
-0.0560138
-0.0517727
-0.0524324
-0.048414
-0.0490738
-0.0451577
-0.0458175
-0.0421063
-0.0427661
-0.0391597
-0.0398194
-0.0363138
-0.0369736
-0.0336661
-0.0343258
-0.0311937
-0.0318534
-0.0288267
-0.0294864
-0.0265422
-0.027202
-0.0243693
-0.025029
-0.0224172
-0.0230769
-0.0204987
-0.0211584
-0.0187212
-0.0193809
-0.0170397
-0.0176994
-0.0154939
-0.0161536
-0.0140295
-0.0146892
-0.0126461
-0.0133058
-0.0113831
-0.0120428
-0.0102026
-0.0108623
-0.00912298
-0.00978266
-0.00808456
-0.00874424
-0.007174
-0.00783371
-0.00630404
-0.00696374
-0.00551316
-0.00617286
-0.00479348
-0.00545318
-0.00414444
-0.00480414
-0.00355573
-0.00421542
-0.00300618
-0.00366588
-0.00251137
-0.00317108
-0.00207517
-0.00273488
-0.00168405
-0.00234375
-0.00132772
-0.00198742
-0.00102552
-0.00168523
-0.000752928
-0.00141264
-0.000513168
-0.00117289
-0.000309947
-0.000969667
-0.000133478
-0.000793194
2.18368e-05
-0.000637884
0.000153856
-0.000505869
0.000262092
-0.000397633
0.000352449
-0.000307274
0.000428949
-0.000230777
0.000490821
-0.000168908
0.000538939
-0.00012079
0.000576714
-8.30132e-05
0.000606642
-5.30867e-05
0.000628898
-3.08332e-05
0.000644637
-1.50927e-05
0.000655655
-4.07383e-06
0.00066326
3.53091e-06
0.000667991
8.26114e-06
0.000670656
1.09266e-05
0.00067201
1.22839e-05
0.000672615
1.28892e-05
0.000672832
1.30976e-05
0.000672889
1.31396e-05
)
;

boundaryField
{
    walls
    {
        type            zeroGradient;
    }
    inlet
    {
        type            cyclic;
    }
    outlet
    {
        type            cyclic;
    }
    sides
    {
        type            empty;
    }
}


// ************************************************************************* //
