/*--------------------------------*- C++ -*----------------------------------*\
| =========                 |                                                 |
| \\      /  F ield         | OpenFOAM: The Open Source CFD Toolbox           |
|  \\    /   O peration     | Version:  2012                                  |
|   \\  /    A nd           | Website:  www.openfoam.com                      |
|    \\/     M anipulation  |                                                 |
\*---------------------------------------------------------------------------*/
FoamFile
{
    version     2.0;
    format      ascii;
    class       volScalarField;
    location    "20000";
    object      p;
}
// * * * * * * * * * * * * * * * * * * * * * * * * * * * * * * * * * * * * * //

dimensions      [0 2 -2 0 0 0 0];


internalField   nonuniform List<scalar> 
5120
(
5.55935e-15
1.01098e-13
1.15313e-14
1.01098e-13
1.26362e-14
1.01098e-13
1.24759e-14
1.01098e-13
1.24393e-14
1.01099e-13
1.25272e-14
1.01099e-13
1.26392e-14
1.01099e-13
1.27506e-14
1.011e-13
1.28624e-14
1.01101e-13
1.29753e-14
1.01101e-13
1.30884e-14
1.01102e-13
1.32011e-14
1.01103e-13
1.33132e-14
1.01103e-13
1.34246e-14
1.01104e-13
1.35352e-14
1.01105e-13
1.36448e-14
1.01106e-13
1.37535e-14
1.01107e-13
1.38614e-14
1.01109e-13
1.39684e-14
1.0111e-13
1.40745e-14
1.01111e-13
1.41797e-14
1.01112e-13
1.4284e-14
1.01114e-13
1.43875e-14
1.01115e-13
1.44901e-14
1.01117e-13
1.4592e-14
1.01118e-13
1.46931e-14
1.01119e-13
1.47932e-14
1.01121e-13
1.48926e-14
1.01122e-13
1.49912e-14
1.01124e-13
1.50891e-14
1.01125e-13
1.51861e-14
1.01127e-13
1.52824e-14
1.01129e-13
1.53779e-14
1.0113e-13
1.54727e-14
1.01132e-13
1.55668e-14
1.01133e-13
1.56601e-14
1.01135e-13
1.57527e-14
1.01136e-13
1.58447e-14
1.01138e-13
1.59359e-14
1.01139e-13
1.60264e-14
1.0114e-13
1.61163e-14
1.01142e-13
1.62056e-14
1.01143e-13
1.62942e-14
1.01144e-13
1.63822e-14
1.01145e-13
1.64695e-14
1.01147e-13
1.65563e-14
1.01148e-13
1.66424e-14
1.01149e-13
1.67278e-14
1.0115e-13
1.68128e-14
1.01151e-13
1.68972e-14
1.01152e-13
1.69809e-14
1.01153e-13
1.70641e-14
1.01154e-13
1.71469e-14
1.01155e-13
1.72291e-14
1.01156e-13
1.73108e-14
1.01156e-13
1.73919e-14
1.01157e-13
1.74726e-14
1.01158e-13
1.75527e-14
1.01158e-13
1.76324e-14
1.01159e-13
1.77116e-14
1.01159e-13
1.77904e-14
1.0116e-13
1.78688e-14
1.0116e-13
1.79467e-14
1.0116e-13
1.80244e-14
1.0116e-13
1.81016e-14
1.0116e-13
1.81785e-14
1.0116e-13
1.82552e-14
1.01159e-13
1.83317e-14
1.01159e-13
1.84079e-14
1.01158e-13
1.84837e-14
1.01157e-13
1.85593e-14
1.01156e-13
1.86346e-14
1.01155e-13
1.87097e-14
1.01153e-13
1.87847e-14
1.01152e-13
1.88595e-14
1.01151e-13
1.89342e-14
1.01149e-13
1.90088e-14
1.01147e-13
1.90833e-14
1.01145e-13
1.91578e-14
1.01143e-13
1.92322e-14
1.01141e-13
1.93063e-14
1.01139e-13
1.93805e-14
1.01136e-13
1.94548e-14
1.01134e-13
1.95291e-14
1.01131e-13
1.96035e-14
1.01127e-13
1.9678e-14
1.01124e-13
1.97528e-14
1.01121e-13
1.98278e-14
1.01117e-13
1.99029e-14
1.01113e-13
1.99781e-14
1.01109e-13
2.00538e-14
1.01105e-13
2.01297e-14
1.011e-13
2.02058e-14
1.01096e-13
2.02822e-14
1.0109e-13
2.03588e-14
1.01085e-13
2.04362e-14
1.01079e-13
2.05139e-14
1.01074e-13
2.05919e-14
1.01067e-13
2.06701e-14
1.0106e-13
2.07491e-14
1.01053e-13
2.08285e-14
1.01046e-13
2.09085e-14
1.01039e-13
2.09889e-14
1.01031e-13
2.10699e-14
1.01023e-13
2.11515e-14
1.01014e-13
2.12334e-14
1.01006e-13
2.13163e-14
1.00997e-13
2.13997e-14
1.00988e-13
2.14841e-14
1.00978e-13
2.1569e-14
1.00968e-13
2.16544e-14
1.00958e-13
2.17406e-14
1.00948e-13
2.18277e-14
1.00937e-13
2.19159e-14
1.00926e-13
2.20046e-14
1.00915e-13
2.2094e-14
1.00903e-13
2.21844e-14
1.00891e-13
2.22759e-14
1.00879e-13
2.23679e-14
1.00866e-13
2.24612e-14
1.00853e-13
2.2556e-14
1.00839e-13
2.26519e-14
1.00825e-13
2.2749e-14
1.0081e-13
2.28471e-14
1.00794e-13
2.29463e-14
1.00778e-13
2.30472e-14
1.00762e-13
2.31498e-14
1.00745e-13
2.32531e-14
1.00727e-13
2.33576e-14
1.00709e-13
2.34633e-14
1.0069e-13
2.35702e-14
1.00672e-13
2.3679e-14
1.00652e-13
2.37884e-14
1.00633e-13
2.38987e-14
1.00612e-13
2.40102e-14
1.00592e-13
2.41233e-14
1.00572e-13
2.42373e-14
1.00551e-13
2.43524e-14
1.0053e-13
2.44683e-14
1.00509e-13
2.45854e-14
1.00487e-13
2.47041e-14
1.00466e-13
2.48241e-14
1.00444e-13
2.49447e-14
1.00421e-13
2.50666e-14
1.004e-13
2.51898e-14
1.00378e-13
2.5314e-14
1.00355e-13
2.54392e-14
1.00332e-13
2.55655e-14
1.0031e-13
2.56932e-14
1.00286e-13
2.58223e-14
1.00262e-13
2.59526e-14
1.00239e-13
2.60847e-14
1.00215e-13
2.62177e-14
1.0019e-13
2.63522e-14
1.00166e-13
2.64882e-14
1.00141e-13
2.66254e-14
1.00115e-13
2.67633e-14
1.00089e-13
2.69017e-14
1.00064e-13
2.70425e-14
1.00038e-13
2.71849e-14
1.00012e-13
2.73277e-14
9.99849e-14
2.74715e-14
9.99583e-14
2.76177e-14
9.99321e-14
2.77647e-14
9.99049e-14
2.79127e-14
9.98774e-14
2.80622e-14
9.98497e-14
2.82146e-14
9.98211e-14
2.83685e-14
9.979e-14
2.85235e-14
9.9759e-14
2.86811e-14
9.97278e-14
2.88404e-14
9.96951e-14
2.90014e-14
9.96608e-14
2.91646e-14
9.96261e-14
2.93304e-14
9.95899e-14
2.94983e-14
9.95536e-14
2.96679e-14
9.95172e-14
2.98394e-14
9.94809e-14
3.00132e-14
9.94442e-14
3.01896e-14
9.94042e-14
3.03682e-14
9.93625e-14
3.05487e-14
9.93204e-14
3.0731e-14
9.92785e-14
3.09147e-14
9.9237e-14
3.11009e-14
9.91927e-14
3.12887e-14
9.9147e-14
3.14783e-14
9.91038e-14
3.16702e-14
9.90594e-14
3.18614e-14
9.90144e-14
3.20541e-14
9.89689e-14
3.22491e-14
9.89245e-14
3.24448e-14
9.8879e-14
3.26418e-14
9.88345e-14
3.28402e-14
9.87898e-14
3.30407e-14
9.87447e-14
3.32417e-14
9.86992e-14
3.3443e-14
9.86536e-14
3.36455e-14
9.86108e-14
3.38507e-14
9.85671e-14
3.40545e-14
9.85232e-14
3.42593e-14
9.84768e-14
3.44658e-14
9.84303e-14
3.46732e-14
9.83845e-14
3.48806e-14
9.83403e-14
3.50887e-14
9.82985e-14
3.52976e-14
9.8256e-14
3.55094e-14
9.82096e-14
3.5721e-14
9.81649e-14
3.59339e-14
9.81203e-14
3.61472e-14
9.8076e-14
3.63618e-14
9.80295e-14
3.65774e-14
9.79841e-14
3.67933e-14
9.79398e-14
3.70101e-14
9.78984e-14
3.72279e-14
9.78557e-14
3.74465e-14
9.78085e-14
3.76659e-14
9.77619e-14
3.78852e-14
9.77183e-14
3.81068e-14
9.76727e-14
3.83273e-14
9.76303e-14
3.85482e-14
9.75878e-14
3.87696e-14
9.75443e-14
3.89922e-14
9.74991e-14
3.92142e-14
9.74539e-14
3.94389e-14
9.74078e-14
3.96621e-14
9.73652e-14
3.98861e-14
9.73227e-14
4.01109e-14
9.72779e-14
4.03347e-14
9.72341e-14
4.05583e-14
9.71881e-14
4.07825e-14
9.71414e-14
4.10071e-14
9.70952e-14
4.12304e-14
9.70529e-14
4.14557e-14
9.70118e-14
4.16804e-14
9.69688e-14
4.19095e-14
9.6922e-14
4.21387e-14
9.68697e-14
4.23696e-14
9.68173e-14
4.26046e-14
9.67682e-14
4.28413e-14
9.67164e-14
4.30794e-14
9.66611e-14
4.33214e-14
9.66085e-14
4.35639e-14
9.6555e-14
4.38084e-14
9.64965e-14
4.40567e-14
9.64381e-14
4.43069e-14
9.63773e-14
4.45571e-14
9.63177e-14
4.48099e-14
9.62566e-14
4.50661e-14
9.61924e-14
4.53239e-14
9.61287e-14
4.5584e-14
9.60637e-14
4.58455e-14
9.5994e-14
4.61047e-14
9.59266e-14
4.63633e-14
9.58634e-14
4.66213e-14
9.58046e-14
4.68767e-14
9.57464e-14
4.71312e-14
9.56856e-14
4.73848e-14
9.56257e-14
4.76372e-14
9.55703e-14
4.78885e-14
9.55141e-14
4.81385e-14
9.5459e-14
4.83854e-14
9.54069e-14
4.86343e-14
9.53541e-14
4.88781e-14
9.53027e-14
4.91202e-14
9.52525e-14
4.93659e-14
9.52074e-14
4.96078e-14
9.51566e-14
4.98477e-14
9.5109e-14
5.00873e-14
9.50667e-14
5.03228e-14
9.50225e-14
5.05578e-14
9.49782e-14
5.07939e-14
9.49376e-14
5.10273e-14
9.49006e-14
5.12599e-14
9.48656e-14
5.14861e-14
9.48309e-14
5.1711e-14
9.47982e-14
5.19366e-14
9.4766e-14
5.2166e-14
9.47289e-14
5.23975e-14
9.46889e-14
5.26274e-14
9.46566e-14
5.28608e-14
9.46125e-14
5.30977e-14
9.45639e-14
5.33398e-14
9.45233e-14
5.35833e-14
9.44819e-14
5.38298e-14
9.44308e-14
5.40794e-14
9.43808e-14
5.43318e-14
9.43338e-14
5.45869e-14
9.42844e-14
5.48464e-14
9.42257e-14
5.51084e-14
9.41685e-14
5.53728e-14
9.41126e-14
5.56377e-14
9.40548e-14
5.59101e-14
9.39967e-14
5.61845e-14
9.3935e-14
5.64555e-14
9.38733e-14
5.67283e-14
9.38098e-14
5.70046e-14
9.37463e-14
5.72843e-14
9.36848e-14
5.7562e-14
9.36217e-14
5.78428e-14
9.35553e-14
5.81285e-14
9.3491e-14
5.84118e-14
9.34288e-14
5.86997e-14
9.336e-14
5.89886e-14
9.32881e-14
5.92785e-14
9.32221e-14
5.95691e-14
9.31566e-14
5.98587e-14
9.30882e-14
6.01542e-14
9.30135e-14
6.04485e-14
9.29447e-14
6.0745e-14
9.2875e-14
6.10419e-14
9.2799e-14
6.13391e-14
9.27238e-14
6.16382e-14
9.26461e-14
6.19375e-14
9.25692e-14
6.22351e-14
9.24985e-14
6.25362e-14
9.24253e-14
6.28424e-14
9.23496e-14
6.31451e-14
9.22801e-14
6.34527e-14
9.22064e-14
6.37601e-14
9.21216e-14
6.40706e-14
9.20397e-14
6.43842e-14
9.19658e-14
6.46957e-14
9.18929e-14
6.50068e-14
9.18195e-14
6.53173e-14
9.17454e-14
6.56239e-14
9.16775e-14
6.59299e-14
9.16074e-14
6.62388e-14
9.15349e-14
6.65401e-14
9.14636e-14
6.68374e-14
9.13968e-14
6.71272e-14
9.13346e-14
6.74163e-14
9.12768e-14
6.77012e-14
9.12236e-14
6.79786e-14
9.11749e-14
6.82517e-14
9.11205e-14
6.8524e-14
9.10639e-14
6.87955e-14
9.10119e-14
6.90626e-14
9.09576e-14
6.93287e-14
9.09046e-14
6.95939e-14
9.08594e-14
6.98547e-14
9.0812e-14
7.01077e-14
9.07558e-14
7.03563e-14
9.07041e-14
7.06038e-14
9.0657e-14
7.08501e-14
9.06078e-14
7.10887e-14
9.05564e-14
7.13194e-14
9.05163e-14
7.15455e-14
9.04773e-14
7.17671e-14
9.04363e-14
7.19874e-14
9.04031e-14
7.22096e-14
9.03745e-14
7.24239e-14
9.03405e-14
7.26334e-14
9.03047e-14
7.28415e-14
9.02701e-14
7.30447e-14
9.02402e-14
7.32432e-14
9.02116e-14
7.34368e-14
9.01812e-14
7.36287e-14
9.01522e-14
7.38254e-14
9.01279e-14
7.4017e-14
9.01084e-14
7.42037e-14
9.00839e-14
7.43884e-14
9.00546e-14
7.45808e-14
9.003e-14
7.47712e-14
9.00103e-14
7.49565e-14
8.99827e-14
7.51428e-14
8.99631e-14
7.53302e-14
8.99452e-14
7.55154e-14
8.99291e-14
7.57016e-14
8.99115e-14
7.58887e-14
8.98894e-14
7.60735e-14
8.98786e-14
7.62624e-14
8.98727e-14
7.64457e-14
8.98654e-14
7.66267e-14
8.98476e-14
7.68084e-14
8.98286e-14
7.69908e-14
8.98115e-14
7.71708e-14
8.97994e-14
7.73484e-14
8.97893e-14
7.75296e-14
8.9778e-14
7.77083e-14
8.97688e-14
7.78937e-14
8.97615e-14
7.80796e-14
8.97532e-14
7.82569e-14
8.97499e-14
7.84287e-14
8.97517e-14
7.86009e-14
8.97585e-14
7.87826e-14
8.97673e-14
7.89617e-14
8.97873e-14
7.91323e-14
8.98094e-14
7.93062e-14
8.98365e-14
7.94804e-14
8.98539e-14
7.96579e-14
8.98675e-14
7.98298e-14
8.98892e-14
7.9999e-14
8.99133e-14
8.01655e-14
8.99367e-14
8.03353e-14
8.99684e-14
8.04994e-14
9.00083e-14
8.06783e-14
9.00478e-14
8.08545e-14
9.00839e-14
8.1025e-14
9.01372e-14
8.11956e-14
9.01902e-14
8.13635e-14
9.024e-14
8.15285e-14
9.02869e-14
8.16966e-14
9.03309e-14
8.18646e-14
9.03721e-14
8.20241e-14
9.04278e-14
8.21951e-14
9.04894e-14
8.23604e-14
9.05513e-14
8.25142e-14
9.0608e-14
8.26623e-14
9.06653e-14
8.2816e-14
9.07176e-14
8.29583e-14
9.07819e-14
8.30948e-14
9.08472e-14
8.32422e-14
9.09023e-14
8.33782e-14
9.09474e-14
8.35138e-14
9.09994e-14
8.36434e-14
9.10638e-14
8.3767e-14
9.11188e-14
8.38955e-14
9.11754e-14
8.40288e-14
9.12393e-14
8.41558e-14
9.13107e-14
8.42764e-14
9.13841e-14
8.44014e-14
9.14436e-14
8.45361e-14
9.15e-14
8.46803e-14
9.15591e-14
8.48178e-14
9.16263e-14
8.49593e-14
9.16857e-14
8.5094e-14
9.1748e-14
8.52165e-14
9.18189e-14
8.53534e-14
9.18984e-14
8.54938e-14
9.19813e-14
8.56272e-14
9.20626e-14
8.57587e-14
9.21424e-14
8.58882e-14
9.2221e-14
8.60157e-14
9.23037e-14
8.61409e-14
9.23909e-14
8.62639e-14
9.24828e-14
8.63895e-14
9.25795e-14
8.65126e-14
9.26659e-14
8.6638e-14
9.27474e-14
8.67605e-14
9.28396e-14
8.68696e-14
9.29224e-14
8.6991e-14
9.29909e-14
8.71192e-14
9.30658e-14
8.72388e-14
9.31371e-14
8.7365e-14
9.32051e-14
8.74825e-14
9.32648e-14
8.76014e-14
9.33216e-14
8.77164e-14
9.33856e-14
8.78476e-14
9.34471e-14
8.79747e-14
9.35011e-14
8.8083e-14
9.35529e-14
8.82218e-14
9.36026e-14
8.83369e-14
9.36355e-14
8.84529e-14
9.36765e-14
8.85746e-14
9.37304e-14
8.86777e-14
9.37827e-14
8.87865e-14
9.3814e-14
8.8896e-14
9.38393e-14
8.90111e-14
9.38681e-14
8.91222e-14
9.39055e-14
8.92245e-14
9.39321e-14
8.93228e-14
9.39626e-14
8.94219e-14
9.40064e-14
8.95218e-14
9.40399e-14
8.96271e-14
9.40586e-14
8.97189e-14
9.40813e-14
8.98069e-14
9.41035e-14
8.99003e-14
9.41393e-14
8.99803e-14
9.41887e-14
9.00702e-14
9.42285e-14
9.01467e-14
9.42497e-14
9.02283e-14
9.42711e-14
9.03195e-14
9.42881e-14
9.04064e-14
9.43053e-14
9.04801e-14
9.43319e-14
9.05541e-14
9.43497e-14
9.06239e-14
9.43772e-14
9.07029e-14
9.44097e-14
9.07776e-14
9.4443e-14
9.08433e-14
9.44681e-14
9.09135e-14
9.44897e-14
9.09881e-14
9.45125e-14
9.1067e-14
9.4532e-14
9.11323e-14
9.45572e-14
9.12018e-14
9.46014e-14
9.12709e-14
9.46426e-14
9.13351e-14
9.46592e-14
9.14075e-14
9.46995e-14
9.14575e-14
9.4746e-14
9.15065e-14
9.47774e-14
9.15457e-14
9.48027e-14
9.15921e-14
9.48307e-14
9.16538e-14
9.48531e-14
9.17052e-14
9.48701e-14
9.17546e-14
9.48733e-14
9.18019e-14
9.48798e-14
9.18471e-14
9.48895e-14
9.18899e-14
9.48943e-14
9.19638e-14
9.49109e-14
9.20019e-14
9.49391e-14
9.20289e-14
9.49625e-14
9.2086e-14
9.49731e-14
9.214e-14
9.49791e-14
9.21989e-14
9.49642e-14
9.22464e-14
9.49692e-14
9.22988e-14
9.49858e-14
9.23559e-14
9.49894e-14
9.24095e-14
9.49801e-14
9.24436e-14
9.499e-14
9.24982e-14
9.49869e-14
9.25493e-14
9.49785e-14
9.2605e-14
9.4973e-14
9.26413e-14
9.497e-14
9.26582e-14
9.49459e-14
9.27112e-14
9.49244e-14
9.27371e-14
9.49288e-14
9.27671e-14
9.49357e-14
9.28168e-14
9.49295e-14
9.28782e-14
9.49337e-14
9.29128e-14
9.49169e-14
9.29362e-14
9.48948e-14
9.29484e-14
9.48827e-14
9.29724e-14
9.48499e-14
9.30006e-14
9.48345e-14
9.30102e-14
9.48287e-14
9.30238e-14
9.48021e-14
9.30264e-14
9.47623e-14
9.30254e-14
9.47469e-14
9.30358e-14
9.47333e-14
9.30648e-14
9.47212e-14
9.309e-14
9.46959e-14
9.30893e-14
9.46718e-14
9.30998e-14
9.46562e-14
9.31212e-14
9.46491e-14
9.31387e-14
9.46357e-14
9.31379e-14
9.46087e-14
9.31549e-14
9.45899e-14
9.31535e-14
9.45934e-14
9.31766e-14
9.45976e-14
9.31953e-14
9.45811e-14
9.32024e-14
9.45652e-14
9.3198e-14
9.4564e-14
9.31886e-14
9.45564e-14
9.31951e-14
9.45145e-14
9.32105e-14
9.44661e-14
9.32213e-14
9.44594e-14
9.32133e-14
9.44664e-14
9.3207e-14
9.44735e-14
9.32089e-14
9.44603e-14
9.32323e-14
9.44474e-14
9.32431e-14
9.44347e-14
9.32413e-14
9.44083e-14
9.3254e-14
9.44156e-14
9.32605e-14
9.44094e-14
9.32675e-14
9.44031e-14
9.32881e-14
9.44101e-14
9.33021e-14
9.4437e-14
9.33225e-14
9.44378e-14
9.33425e-14
9.44259e-14
9.33558e-14
9.44012e-14
9.33693e-14
9.44028e-14
9.33895e-14
9.4424e-14
9.3416e-14
9.4452e-14
9.34421e-14
9.44354e-14
9.34685e-14
9.44064e-14
9.34956e-14
9.44031e-14
9.35111e-14
9.44184e-14
9.35465e-14
9.43766e-14
9.35902e-14
9.43084e-14
9.36187e-14
9.42687e-14
9.36394e-14
9.42252e-14
9.36597e-14
9.42142e-14
9.36799e-14
9.41979e-14
9.3713e-14
9.41879e-14
9.37474e-14
9.41716e-14
9.37716e-14
9.4136e-14
9.37867e-14
9.40803e-14
9.37938e-14
9.40753e-14
9.38169e-14
9.40728e-14
9.38324e-14
9.40603e-14
9.38406e-14
9.40372e-14
9.383e-14
9.40384e-14
9.38357e-14
9.40404e-14
9.38337e-14
9.40548e-14
9.38469e-14
9.40471e-14
9.38755e-14
9.40398e-14
9.38853e-14
9.40434e-14
9.39106e-14
9.40235e-14
9.38954e-14
9.40244e-14
9.38846e-14
9.40348e-14
9.38885e-14
9.40435e-14
9.38955e-14
9.40616e-14
9.38942e-14
9.40673e-14
9.38951e-14
9.40606e-14
9.38984e-14
9.40632e-14
9.3893e-14
9.40748e-14
9.38891e-14
9.40852e-14
9.38859e-14
9.40949e-14
9.38721e-14
9.4083e-14
9.38576e-14
9.40603e-14
9.38526e-14
9.40052e-14
9.38473e-14
9.39687e-14
9.38319e-14
9.39801e-14
9.38265e-14
9.39776e-14
9.38202e-14
9.39511e-14
9.38032e-14
9.39203e-14
9.37858e-14
9.38947e-14
9.37677e-14
9.38838e-14
9.37683e-14
9.38474e-14
9.37585e-14
9.3834e-14
9.37577e-14
9.38233e-14
9.37563e-14
9.38242e-14
9.37346e-14
9.3817e-14
9.37303e-14
9.3821e-14
9.37139e-14
9.37889e-14
9.37142e-14
9.37487e-14
9.37131e-14
9.37553e-14
9.37196e-14
9.37428e-14
9.37249e-14
9.37014e-14
9.37213e-14
9.37123e-14
9.36902e-14
9.37385e-14
9.36568e-14
9.37453e-14
9.3637e-14
9.37254e-14
9.36392e-14
9.36882e-14
9.36462e-14
9.36854e-14
9.36409e-14
9.36723e-14
9.36149e-14
9.36487e-14
9.35943e-14
9.36408e-14
9.35782e-14
9.364e-14
9.35489e-14
9.36125e-14
9.35147e-14
9.36101e-14
9.34823e-14
9.36001e-14
9.34589e-14
9.35581e-14
9.3445e-14
9.35081e-14
9.34254e-14
9.34818e-14
9.34086e-14
9.3487e-14
9.34096e-14
9.34669e-14
9.33964e-14
9.34614e-14
9.3393e-14
9.3471e-14
9.3391e-14
9.34479e-14
9.33917e-14
9.34069e-14
9.43758e-14
9.61812e-14
9.43759e-14
9.61813e-14
9.4376e-14
9.61813e-14
9.43761e-14
9.61814e-14
9.43763e-14
9.61814e-14
9.43766e-14
9.61814e-14
9.43768e-14
9.61815e-14
9.43772e-14
9.61816e-14
9.43775e-14
9.61817e-14
9.43779e-14
9.61818e-14
9.43784e-14
9.61819e-14
9.43789e-14
9.6182e-14
9.43794e-14
9.61822e-14
9.438e-14
9.61823e-14
9.43807e-14
9.61825e-14
9.43814e-14
9.61827e-14
9.43822e-14
9.61828e-14
9.4383e-14
9.6183e-14
9.43838e-14
9.61832e-14
9.43848e-14
9.61834e-14
9.43857e-14
9.61835e-14
9.43867e-14
9.61838e-14
9.43877e-14
9.6184e-14
9.43888e-14
9.61842e-14
9.43899e-14
9.61845e-14
9.4391e-14
9.61848e-14
9.43922e-14
9.61851e-14
9.43933e-14
9.61855e-14
9.43945e-14
9.61859e-14
9.43957e-14
9.61863e-14
9.43969e-14
9.61868e-14
9.43982e-14
9.61872e-14
9.43996e-14
9.61876e-14
9.4401e-14
9.6188e-14
9.44024e-14
9.61884e-14
9.44038e-14
9.61889e-14
9.44053e-14
9.61893e-14
9.44068e-14
9.61898e-14
9.44084e-14
9.61903e-14
9.44099e-14
9.61908e-14
9.44113e-14
9.61914e-14
9.44127e-14
9.6192e-14
9.44141e-14
9.61927e-14
9.44154e-14
9.61936e-14
9.44167e-14
9.61944e-14
9.44179e-14
9.61953e-14
9.44191e-14
9.61963e-14
9.44203e-14
9.61973e-14
9.44214e-14
9.61984e-14
9.44225e-14
9.61997e-14
9.44236e-14
9.62009e-14
9.44246e-14
9.62022e-14
9.44256e-14
9.62035e-14
9.44267e-14
9.62049e-14
9.44277e-14
9.62063e-14
9.44287e-14
9.62079e-14
9.44296e-14
9.62095e-14
9.44306e-14
9.62109e-14
9.44315e-14
9.62123e-14
9.44324e-14
9.62139e-14
9.44334e-14
9.62155e-14
9.44344e-14
9.6217e-14
9.44353e-14
9.62186e-14
9.44363e-14
9.622e-14
9.44372e-14
9.62216e-14
9.44379e-14
9.62232e-14
9.44386e-14
9.62249e-14
9.44393e-14
9.62265e-14
9.444e-14
9.62283e-14
9.44408e-14
9.62301e-14
9.44414e-14
9.62318e-14
9.44419e-14
9.62336e-14
9.44423e-14
9.62355e-14
9.44426e-14
9.62376e-14
9.44428e-14
9.62398e-14
9.44429e-14
9.62422e-14
9.44429e-14
9.62445e-14
9.44428e-14
9.62468e-14
9.44424e-14
9.62495e-14
9.44421e-14
9.62522e-14
9.44418e-14
9.62548e-14
9.44412e-14
9.62576e-14
9.44402e-14
9.62605e-14
9.44393e-14
9.62634e-14
9.44383e-14
9.62664e-14
9.44373e-14
9.62694e-14
9.44361e-14
9.62723e-14
9.44346e-14
9.62757e-14
9.4433e-14
9.62791e-14
9.44314e-14
9.62826e-14
9.44297e-14
9.62864e-14
9.4428e-14
9.62901e-14
9.44265e-14
9.62934e-14
9.44248e-14
9.62969e-14
9.44234e-14
9.63005e-14
9.44221e-14
9.63042e-14
9.44207e-14
9.63079e-14
9.44192e-14
9.63115e-14
9.44177e-14
9.63153e-14
9.44163e-14
9.63192e-14
9.44149e-14
9.63226e-14
9.44137e-14
9.63259e-14
9.44123e-14
9.63294e-14
9.4411e-14
9.63328e-14
9.44097e-14
9.63364e-14
9.44084e-14
9.63395e-14
9.44072e-14
9.63423e-14
9.44058e-14
9.63458e-14
9.44041e-14
9.63493e-14
9.44026e-14
9.63522e-14
9.44014e-14
9.63551e-14
9.43999e-14
9.63583e-14
9.43982e-14
9.63619e-14
9.43967e-14
9.63652e-14
9.43953e-14
9.63681e-14
9.43939e-14
9.63713e-14
9.43926e-14
9.63743e-14
9.43907e-14
9.63771e-14
9.43891e-14
9.63802e-14
9.43876e-14
9.63834e-14
9.43862e-14
9.63859e-14
9.43847e-14
9.63881e-14
9.43835e-14
9.63908e-14
9.43819e-14
9.63939e-14
9.43802e-14
9.63969e-14
9.43785e-14
9.63992e-14
9.43767e-14
9.64018e-14
9.43749e-14
9.64045e-14
9.43724e-14
9.64074e-14
9.43703e-14
9.64103e-14
9.43679e-14
9.64134e-14
9.43652e-14
9.64172e-14
9.43625e-14
9.64204e-14
9.43596e-14
9.64233e-14
9.43568e-14
9.64265e-14
9.43539e-14
9.64301e-14
9.43505e-14
9.64339e-14
9.43473e-14
9.64387e-14
9.43439e-14
9.64434e-14
9.434e-14
9.64473e-14
9.43366e-14
9.64504e-14
9.43328e-14
9.64544e-14
9.43291e-14
9.64587e-14
9.43243e-14
9.64625e-14
9.43201e-14
9.64657e-14
9.43154e-14
9.64695e-14
9.43108e-14
9.64737e-14
9.43062e-14
9.64779e-14
9.43011e-14
9.64815e-14
9.4296e-14
9.64842e-14
9.42901e-14
9.64879e-14
9.42844e-14
9.64917e-14
9.42792e-14
9.64957e-14
9.42733e-14
9.64986e-14
9.42673e-14
9.65012e-14
9.42613e-14
9.65044e-14
9.42548e-14
9.6508e-14
9.42486e-14
9.6511e-14
9.4242e-14
9.65147e-14
9.42351e-14
9.65171e-14
9.42287e-14
9.65189e-14
9.42217e-14
9.65218e-14
9.42142e-14
9.65233e-14
9.42068e-14
9.65246e-14
9.4199e-14
9.65265e-14
9.41905e-14
9.65282e-14
9.41816e-14
9.65302e-14
9.41728e-14
9.65319e-14
9.41632e-14
9.65341e-14
9.41527e-14
9.65362e-14
9.41432e-14
9.65402e-14
9.41326e-14
9.65432e-14
9.41214e-14
9.65455e-14
9.41106e-14
9.65475e-14
9.40992e-14
9.65489e-14
9.40874e-14
9.65514e-14
9.40761e-14
9.65536e-14
9.40648e-14
9.65544e-14
9.40522e-14
9.65564e-14
9.40401e-14
9.65585e-14
9.40281e-14
9.65588e-14
9.40132e-14
9.65599e-14
9.39985e-14
9.65606e-14
9.39846e-14
9.65615e-14
9.39701e-14
9.65617e-14
9.39551e-14
9.6562e-14
9.39402e-14
9.65616e-14
9.39255e-14
9.65598e-14
9.39102e-14
9.6558e-14
9.38928e-14
9.65571e-14
9.38757e-14
9.65563e-14
9.38595e-14
9.65533e-14
9.38428e-14
9.65489e-14
9.38263e-14
9.6546e-14
9.38078e-14
9.65456e-14
9.37895e-14
9.65422e-14
9.37723e-14
9.65366e-14
9.37562e-14
9.65326e-14
9.37389e-14
9.65303e-14
9.37218e-14
9.6525e-14
9.3706e-14
9.65182e-14
9.36888e-14
9.65139e-14
9.36721e-14
9.65081e-14
9.36549e-14
9.65008e-14
9.36374e-14
9.64945e-14
9.36194e-14
9.64867e-14
9.36011e-14
9.64807e-14
9.35825e-14
9.6474e-14
9.35634e-14
9.64666e-14
9.35441e-14
9.64602e-14
9.35244e-14
9.64523e-14
9.35036e-14
9.6443e-14
9.34808e-14
9.64321e-14
9.34594e-14
9.64231e-14
9.34386e-14
9.64143e-14
9.34167e-14
9.64031e-14
9.33946e-14
9.63913e-14
9.33713e-14
9.63831e-14
9.33479e-14
9.63742e-14
9.33243e-14
9.6363e-14
9.33013e-14
9.63528e-14
9.32791e-14
9.6342e-14
9.32558e-14
9.63315e-14
9.32333e-14
9.63203e-14
9.32107e-14
9.63085e-14
9.31905e-14
9.6297e-14
9.31702e-14
9.62875e-14
9.315e-14
9.62747e-14
9.31288e-14
9.62614e-14
9.31067e-14
9.62441e-14
9.30847e-14
9.62305e-14
9.30635e-14
9.62206e-14
9.30433e-14
9.62067e-14
9.30205e-14
9.61914e-14
9.29952e-14
9.61773e-14
9.29691e-14
9.61626e-14
9.29458e-14
9.61465e-14
9.29217e-14
9.61316e-14
9.28969e-14
9.61179e-14
9.28722e-14
9.6102e-14
9.28452e-14
9.60829e-14
9.28201e-14
9.60669e-14
9.27944e-14
9.60503e-14
9.2768e-14
9.60297e-14
9.27402e-14
9.60114e-14
9.271e-14
9.59951e-14
9.26828e-14
9.59758e-14
9.26524e-14
9.59578e-14
9.26232e-14
9.59412e-14
9.2597e-14
9.59206e-14
9.25704e-14
9.58969e-14
9.25397e-14
9.58755e-14
9.25121e-14
9.58546e-14
9.24841e-14
9.58342e-14
9.24574e-14
9.5809e-14
9.24304e-14
9.57861e-14
9.2403e-14
9.57602e-14
9.23752e-14
9.57331e-14
9.23489e-14
9.57083e-14
9.23258e-14
9.56787e-14
9.22989e-14
9.56552e-14
9.22717e-14
9.56304e-14
9.22461e-14
9.56027e-14
9.22202e-14
9.5572e-14
9.21924e-14
9.55456e-14
9.21662e-14
9.55198e-14
9.21416e-14
9.54893e-14
9.21151e-14
9.54578e-14
9.20904e-14
9.54269e-14
9.20619e-14
9.53949e-14
9.20335e-14
9.53636e-14
9.2005e-14
9.53349e-14
9.19783e-14
9.53051e-14
9.19516e-14
9.52743e-14
9.19286e-14
9.52424e-14
9.19039e-14
9.52131e-14
9.18775e-14
9.5181e-14
9.18513e-14
9.51515e-14
9.18252e-14
9.51193e-14
9.18011e-14
9.5086e-14
9.17772e-14
9.50501e-14
9.17536e-14
9.50221e-14
9.17285e-14
9.49967e-14
9.17037e-14
9.49687e-14
9.16792e-14
9.49326e-14
9.16533e-14
9.49028e-14
9.1626e-14
9.48739e-14
9.15974e-14
9.48441e-14
9.15673e-14
9.48118e-14
9.15378e-14
9.47786e-14
9.15105e-14
9.47411e-14
9.14801e-14
9.47081e-14
9.14485e-14
9.46708e-14
9.14156e-14
9.46328e-14
9.13815e-14
9.45958e-14
9.13516e-14
9.45617e-14
9.13222e-14
9.45322e-14
9.12829e-14
9.45021e-14
9.12477e-14
9.44677e-14
9.12149e-14
9.44293e-14
9.11793e-14
9.4392e-14
9.11425e-14
9.43577e-14
9.111e-14
9.43211e-14
9.10729e-14
9.42857e-14
9.10313e-14
9.42517e-14
9.09956e-14
9.42154e-14
9.09625e-14
9.41769e-14
9.09301e-14
9.41398e-14
9.09019e-14
9.40987e-14
9.08763e-14
9.40574e-14
9.08444e-14
9.40192e-14
9.08081e-14
9.3979e-14
9.0776e-14
9.39384e-14
9.07413e-14
9.39029e-14
9.07126e-14
9.3862e-14
9.0676e-14
9.38243e-14
9.06403e-14
9.37865e-14
9.06157e-14
9.37433e-14
9.05903e-14
9.36949e-14
9.05639e-14
9.36463e-14
9.05366e-14
9.36012e-14
9.05067e-14
9.35544e-14
9.04742e-14
9.35041e-14
9.04425e-14
9.34573e-14
9.0415e-14
9.34106e-14
9.0385e-14
9.33691e-14
9.03558e-14
9.33226e-14
9.03241e-14
9.32779e-14
9.02999e-14
9.32317e-14
9.02732e-14
9.31874e-14
9.02541e-14
9.31417e-14
9.02324e-14
9.30978e-14
9.02081e-14
9.3056e-14
9.01846e-14
9.30161e-14
9.0162e-14
9.29748e-14
9.01402e-14
9.29322e-14
9.01192e-14
9.28849e-14
9.00922e-14
9.28329e-14
9.00695e-14
9.27898e-14
9.00576e-14
9.2742e-14
9.00365e-14
9.26931e-14
9.00096e-14
9.26529e-14
8.99868e-14
9.26183e-14
8.99615e-14
9.25791e-14
8.99304e-14
9.25355e-14
8.99068e-14
9.24942e-14
8.98873e-14
9.24584e-14
8.98587e-14
9.24216e-14
8.98276e-14
9.23837e-14
8.98039e-14
9.23417e-14
8.9781e-14
9.22954e-14
8.97491e-14
9.22482e-14
8.97212e-14
9.22067e-14
8.96909e-14
9.21644e-14
8.96647e-14
9.21147e-14
8.9636e-14
9.20675e-14
8.96113e-14
9.20227e-14
8.95939e-14
9.1974e-14
8.95741e-14
9.19278e-14
8.95486e-14
9.18776e-14
8.95207e-14
9.18235e-14
8.94969e-14
9.17688e-14
8.94739e-14
9.17198e-14
8.94485e-14
9.16764e-14
8.94208e-14
9.16293e-14
8.93876e-14
9.15878e-14
8.93615e-14
9.15457e-14
8.93394e-14
9.15031e-14
8.93087e-14
9.1463e-14
8.9285e-14
9.14223e-14
8.92651e-14
9.13874e-14
8.92429e-14
9.13488e-14
8.92215e-14
9.13003e-14
8.92038e-14
9.12545e-14
8.919e-14
9.12113e-14
8.91768e-14
9.11677e-14
8.91644e-14
9.11235e-14
8.91527e-14
9.10758e-14
8.91416e-14
9.10399e-14
8.91405e-14
9.10097e-14
8.91339e-14
9.09728e-14
8.9128e-14
9.09293e-14
8.91197e-14
9.08945e-14
8.91152e-14
9.08561e-14
8.90962e-14
9.08294e-14
8.90899e-14
9.08081e-14
8.90783e-14
9.07892e-14
8.90703e-14
9.07639e-14
8.90688e-14
9.0732e-14
8.90619e-14
9.07026e-14
8.90556e-14
9.06726e-14
8.90468e-14
9.06362e-14
8.90386e-14
9.05962e-14
8.90308e-14
9.05675e-14
8.90294e-14
9.05469e-14
8.90256e-14
9.05228e-14
8.90222e-14
9.04921e-14
8.90104e-14
9.04723e-14
8.8999e-14
9.04547e-14
8.89966e-14
9.04334e-14
8.89916e-14
9.04113e-14
8.9007e-14
9.03855e-14
8.9014e-14
9.0356e-14
8.90182e-14
9.03398e-14
8.90313e-14
9.03197e-14
8.90245e-14
9.03071e-14
8.9032e-14
9.02963e-14
8.90368e-14
9.0287e-14
8.90501e-14
9.02794e-14
8.90606e-14
9.02846e-14
8.90682e-14
9.02913e-14
8.90953e-14
9.02938e-14
8.91306e-14
9.03033e-14
8.91574e-14
9.03196e-14
8.91868e-14
9.03262e-14
8.92133e-14
9.0334e-14
8.92534e-14
9.0343e-14
8.92905e-14
9.03531e-14
8.93302e-14
9.03697e-14
8.93725e-14
9.03873e-14
8.94119e-14
9.04002e-14
8.94485e-14
9.04031e-14
8.94877e-14
9.04122e-14
8.95294e-14
9.04218e-14
8.95684e-14
9.04266e-14
8.96047e-14
9.04425e-14
8.96382e-14
9.04695e-14
8.9669e-14
9.0502e-14
8.97129e-14
9.05293e-14
8.97487e-14
9.05514e-14
8.97869e-14
9.05789e-14
8.98276e-14
9.06115e-14
8.98653e-14
9.06387e-14
8.99106e-14
9.06553e-14
8.99634e-14
9.0682e-14
9.0029e-14
9.0703e-14
9.00761e-14
9.07337e-14
9.01205e-14
9.07687e-14
9.0162e-14
9.08081e-14
9.0211e-14
9.08566e-14
9.02725e-14
9.08991e-14
9.03362e-14
9.09403e-14
9.03768e-14
9.09905e-14
9.04296e-14
9.10445e-14
9.04846e-14
9.10971e-14
9.05366e-14
9.11383e-14
9.06007e-14
9.11831e-14
9.06618e-14
9.12364e-14
9.0715e-14
9.12831e-14
9.07602e-14
9.13283e-14
9.08122e-14
9.13669e-14
9.08613e-14
9.13988e-14
9.09072e-14
9.14389e-14
9.09599e-14
9.14918e-14
9.10095e-14
9.1538e-14
9.10607e-14
9.15677e-14
9.11136e-14
9.16052e-14
9.11585e-14
9.16503e-14
9.12051e-14
9.16886e-14
9.12532e-14
9.17248e-14
9.13076e-14
9.17733e-14
9.13588e-14
9.18196e-14
9.14067e-14
9.18589e-14
9.14513e-14
9.19008e-14
9.1502e-14
9.19404e-14
9.1554e-14
9.19777e-14
9.16027e-14
9.20221e-14
9.16434e-14
9.20735e-14
9.16854e-14
9.21178e-14
9.17471e-14
9.21505e-14
9.18055e-14
9.21853e-14
9.18467e-14
9.22268e-14
9.18892e-14
9.22703e-14
9.19421e-14
9.23067e-14
9.19961e-14
9.23359e-14
9.20424e-14
9.2376e-14
9.20855e-14
9.24134e-14
9.21164e-14
9.24659e-14
9.21575e-14
9.25112e-14
9.22131e-14
9.25493e-14
9.22831e-14
9.25935e-14
9.23322e-14
9.26258e-14
9.23692e-14
9.2673e-14
9.23987e-14
9.27348e-14
9.24204e-14
9.27894e-14
9.24737e-14
9.28325e-14
9.25321e-14
9.28861e-14
9.25912e-14
9.29325e-14
9.26512e-14
9.29674e-14
9.26863e-14
9.30167e-14
9.27396e-14
9.30545e-14
9.2794e-14
9.31064e-14
9.28239e-14
9.31554e-14
9.28718e-14
9.32016e-14
9.29377e-14
9.32365e-14
9.29709e-14
9.32855e-14
9.30054e-14
9.33402e-14
9.30492e-14
9.33923e-14
9.31024e-14
9.34503e-14
9.31648e-14
9.35226e-14
9.32199e-14
9.35676e-14
9.32594e-14
9.36188e-14
9.33165e-14
9.3668e-14
9.33745e-14
9.37316e-14
9.34417e-14
9.37935e-14
9.35019e-14
9.38455e-14
9.3547e-14
9.3896e-14
9.35852e-14
9.39612e-14
9.36164e-14
9.40173e-14
9.36646e-14
9.40405e-14
9.37297e-14
9.4039e-14
9.37564e-14
9.40604e-14
9.38086e-14
9.40728e-14
9.38626e-14
9.40761e-14
9.3911e-14
9.4078e-14
9.39229e-14
9.40858e-14
9.39689e-14
9.40919e-14
9.39946e-14
9.40879e-14
9.40236e-14
9.40817e-14
9.40485e-14
9.40882e-14
9.40693e-14
9.40997e-14
9.40711e-14
9.41008e-14
9.40998e-14
9.40993e-14
9.41022e-14
9.41177e-14
9.41088e-14
9.41333e-14
9.41195e-14
9.41313e-14
9.41044e-14
9.41419e-14
9.4101e-14
9.41728e-14
9.41314e-14
9.41868e-14
9.41359e-14
9.4199e-14
9.41296e-14
9.42096e-14
9.41566e-14
9.42114e-14
9.41657e-14
9.42191e-14
9.41643e-14
9.42326e-14
9.41815e-14
9.42448e-14
9.41812e-14
9.42632e-14
9.41994e-14
9.42879e-14
9.42144e-14
9.43047e-14
9.42263e-14
9.43281e-14
9.42279e-14
9.4344e-14
9.42549e-14
9.43386e-14
9.42507e-14
9.43683e-14
9.42368e-14
9.4384e-14
9.42408e-14
9.43935e-14
9.42486e-14
9.43902e-14
9.42255e-14
9.43811e-14
9.42271e-14
9.44217e-14
9.42322e-14
9.44365e-14
9.42338e-14
9.44464e-14
9.42387e-14
9.44587e-14
9.42399e-14
9.44668e-14
9.42443e-14
9.44575e-14
9.4252e-14
9.44713e-14
9.4263e-14
9.44947e-14
9.42638e-14
9.4508e-14
9.42542e-14
9.44915e-14
9.42477e-14
9.4505e-14
9.42372e-14
9.45023e-14
9.42357e-14
9.44837e-14
9.42302e-14
9.44952e-14
9.42203e-14
9.45108e-14
9.42122e-14
9.45179e-14
9.41989e-14
9.45101e-14
9.4193e-14
9.44751e-14
9.41883e-14
9.44831e-14
9.41907e-14
9.45021e-14
9.41809e-14
9.44945e-14
9.41648e-14
9.44861e-14
9.41546e-14
9.44462e-14
9.41378e-14
9.44247e-14
9.4133e-14
9.44279e-14
9.41211e-14
9.44311e-14
9.4114e-14
9.44165e-14
9.41298e-14
9.43963e-14
9.41382e-14
9.43945e-14
9.41453e-14
9.4387e-14
9.41634e-14
9.43621e-14
9.41812e-14
9.4355e-14
9.4211e-14
9.43772e-14
9.42291e-14
9.43694e-14
9.42245e-14
9.4367e-14
9.42561e-14
9.43585e-14
9.42662e-14
9.4378e-14
9.42665e-14
9.44025e-14