/*--------------------------------*- C++ -*----------------------------------*\
| =========                 |                                                 |
| \\      /  F ield         | OpenFOAM: The Open Source CFD Toolbox           |
|  \\    /   O peration     | Version:  2106                                  |
|   \\  /    A nd           | Website:  www.openfoam.com                      |
|    \\/     M anipulation  |                                                 |
\*---------------------------------------------------------------------------*/
FoamFile
{
    version     2.0;
    format      ascii;
    arch        "LSB;label=32;scalar=64";
    class       volTensorField;
    location    "11000";
    object      grad(U);
}
// * * * * * * * * * * * * * * * * * * * * * * * * * * * * * * * * * * * * * //

dimensions      [0 0 -1 0 0 0 0];

internalField   nonuniform List<tensor> 
2560
(
(-4.57156e-18 2.0789e-30 6.09054e-33 23.1151 -1.31875e-11 -2.17451e-14 0.0334624 -1.22003e-14 8.08891e-32)
(0 -5.42863e-29 -4.06036e-33 23.1151 0 4.05286e-19 0.0334624 -1.35709e-29 2.83292e-17)
(0 -3.64836e-25 -9.7229e-28 23.1116 2.82738e-32 -1.57771e-30 0.100863 -3.15544e-30 0)
(0 0 0 23.1116 -1.07119e-15 6.93825e-18 0.100863 -3.38129e-18 5.02671e-17)
(3.12956e-17 -2.2623e-30 -7.88961e-33 23.1082 1.37984e-12 2.18376e-15 0.13871 -1.06165e-14 -2.25547e-18)
(-3.55316e-17 4.03948e-30 1.57792e-32 23.1082 7.24231e-16 7.35141e-18 0.13871 -4.05285e-19 5.17697e-17)
(4.8606e-17 -1.02083e-29 -2.71942e-29 23.105 5.34784e-13 -2.46701e-32 0.140708 -5.79564e-15 0)
(-3.50224e-17 7.96317e-30 1.55531e-32 23.105 -1.5257e-16 1.33569e-17 0.140708 -3.61649e-19 5.33491e-17)
(6.90408e-17 -1.17736e-29 -3.06603e-32 23.1021 1.01301e-14 -3.11145e-16 0.142736 -6.34117e-16 1.68045e-19)
(0 7.84903e-30 2.29952e-32 23.1021 -1.95202e-16 1.42057e-17 0.142736 -3.85184e-19 5.49947e-17)
(1.00736e-16 -5.03655e-28 -1.51104e-32 23.0993 -4.84211e-14 -2.09959e-15 0.144795 -1.50674e-16 9.24446e-32)
(1.93423e-16 7.73654e-30 1.51104e-32 23.0993 -1.76743e-16 1.51367e-17 0.144795 -4.71049e-19 5.67092e-17)
(-4.24414e-17 -5.02477e-28 -7.44693e-33 23.0968 -9.65756e-28 -2.17144e-15 0.146885 -3.15544e-30 6.16298e-32)
(1.69766e-16 7.62565e-30 1.48939e-32 23.0968 -1.45018e-16 1.55797e-17 0.146885 -4.552e-19 5.84975e-17)
(-5.23392e-17 6.80743e-30 3.6701e-32 23.0944 1.24001e-15 -2.25961e-15 0.149007 -7.49907e-18 9.24446e-32)
(2.09357e-16 0 -2.20206e-32 23.0944 -2.10498e-16 1.56699e-17 0.149007 -3.26008e-19 6.03602e-17)
(1.92714e-16 -1.04574e-29 -2.1705e-32 23.0923 1.0312e-16 -2.33902e-15 0.15116 -8.39383e-18 6.16298e-32)
(0 7.40863e-30 3.61749e-32 23.0923 -2.96193e-16 1.71552e-17 0.15116 -6.89412e-19 6.23027e-17)
(0 7.30244e-30 2.13939e-32 23.0903 -1.1427e-15 -2.40408e-15 0.153345 -7.90818e-18 0)
(0 -3.65122e-30 -7.13129e-33 23.0903 -2.29397e-16 1.93951e-17 0.153345 -1.01022e-18 6.43314e-17)
(-8.2898e-17 -7.74695e-30 -4.21745e-32 23.0885 -9.72108e-16 -2.4573e-15 0.155563 -5.07687e-18 7.70372e-32)
(0 1.07967e-29 5.62327e-32 23.0885 -9.61597e-17 2.03155e-17 0.155563 -8.17332e-19 6.64501e-17)
(9.33799e-17 -2.07867e-29 -5.54267e-32 23.0869 -5.92621e-16 -2.50395e-15 0.157815 -2.95154e-18 1.54074e-31)
(0 1.41892e-29 5.54267e-32 23.0869 -1.06055e-16 2.05901e-17 0.157815 -6.17652e-19 6.86566e-17)
(1.23021e-16 -6.99293e-30 -5.46323e-32 23.0854 -4.00992e-16 -2.54753e-15 0.1601 -2.56756e-18 1.2326e-31)
(0 6.99293e-30 5.46323e-32 23.0854 -1.78693e-16 2.2012e-17 0.1601 -5.80263e-19 7.09578e-17)
(-2.36059e-16 6.49675e-30 2.69246e-32 23.084 -3.15042e-16 -2.58964e-15 0.162419 -1.82848e-18 3.38964e-31)
(4.59203e-16 0 -1.34623e-32 23.084 -1.9438e-16 2.182e-17 0.162419 -7.2186e-19 7.336e-17)
(0 1.01909e-29 7.96162e-32 23.0828 -3.45767e-16 -2.63097e-15 0.164772 -3.08144e-18 3.08149e-31)
(0 -1.01909e-29 -7.96162e-32 23.0828 -1.17933e-16 2.19953e-17 0.164772 -6.61278e-19 7.58602e-17)
(-1.36846e-16 3.05022e-30 1.30792e-32 23.0817 -4.56373e-16 -2.67222e-15 0.16716 -3.48412e-18 3.08149e-32)
(5.47385e-16 0 -1.30792e-32 23.0817 -2.42701e-17 2.46329e-17 0.16716 6.69889e-20 7.84706e-17)
(-2.32237e-16 1.98017e-29 1.16026e-31 23.0806 -4.50349e-16 -2.71346e-15 0.169583 -3.08319e-18 -6.16298e-32)
(-3.60199e-16 -1.98017e-29 -1.16026e-31 23.0806 -1.91836e-17 2.7961e-17 0.169583 1.12664e-18 8.11951e-17)
(-2.28908e-16 1.95179e-29 8.89487e-32 23.0796 -5.0951e-16 -2.75463e-15 0.172042 -4.46821e-18 1.2326e-31)
(-4.09232e-16 -1.95179e-29 -8.89487e-32 23.0796 6.89374e-17 3.10154e-17 0.172042 2.14237e-18 8.40405e-17)
(4.51255e-16 -9.61907e-30 -2.50497e-32 23.0786 -5.64358e-16 -2.79612e-15 0.174536 -4.00311e-18 1.2326e-31)
(-2.25627e-16 9.61907e-30 2.50497e-32 23.0786 2.7693e-17 3.14932e-17 0.174536 3.39851e-18 8.70077e-17)
(1.82886e-16 1.27513e-29 7.40719e-32 23.0776 -4.06784e-16 -2.83751e-15 0.177066 -2.18104e-18 3.08149e-32)
(-7.31546e-16 -1.89624e-29 -9.87626e-32 23.0776 -1.49965e-16 3.00895e-17 0.177066 3.81068e-18 9.0097e-17)
(0 1.86906e-29 9.7347e-32 23.0765 -4.41963e-16 -2.87798e-15 0.179632 -4.66806e-18 2.77334e-31)
(0 -1.86906e-29 -9.7347e-32 23.0765 -7.41286e-17 3.07638e-17 0.179632 3.75588e-18 9.33127e-17)
(-2.0692e-16 -2.06279e-32 -2.3988e-32 23.0753 -8.37919e-16 -2.91894e-15 0.182234 -8.4991e-18 2.77334e-31)
(0 6.14092e-30 4.79759e-32 23.0753 1.07897e-16 3.46099e-17 0.182234 4.36537e-18 9.66685e-17)
(2.06736e-16 -3.32672e-29 -1.41865e-31 23.0739 -9.55969e-16 -2.96087e-15 0.184871 -6.69654e-18 6.16298e-32)
(0 3.63174e-29 1.18221e-31 23.0739 1.50808e-17 3.56302e-17 0.184871 5.39371e-18 1.00172e-16)
(0 1.19323e-29 9.32211e-32 23.0722 -7.97182e-16 -3.00267e-15 0.187545 -6.16653e-18 3.08149e-32)
(-9.26625e-16 -1.49154e-29 -1.16526e-31 23.0722 -6.29666e-17 3.89965e-17 0.187545 5.4791e-18 1.03811e-16)
(2.44294e-16 8.71108e-30 1.37827e-31 23.0702 -8.70928e-16 -3.04469e-15 0.190253 -8.1091e-18 1.84889e-31)
(0 -1.17613e-29 -1.37827e-31 23.0702 1.09768e-16 4.30192e-17 0.190253 6.23943e-18 1.07616e-16)
(-5.14229e-16 2.63884e-29 1.1321e-31 23.0677 -9.19185e-16 -3.08673e-15 0.192997 -7.15471e-18 3.69779e-31)
(0 -2.02872e-29 -1.1321e-31 23.0677 2.39268e-16 4.10608e-17 0.192997 8.21824e-18 1.11567e-16)
(1.2124e-15 -3.48622e-29 -2.00857e-31 23.0646 -8.69598e-16 -3.12834e-15 0.195774 -7.50479e-18 7.39557e-31)
(2.16097e-15 3.1423e-29 2.00857e-31 23.0646 4.12535e-16 3.59531e-17 0.195774 9.62916e-18 1.1567e-16)
(0 -1.97099e-29 -1.53983e-31 23.0607 -7.44142e-16 -3.16957e-15 0.198584 -5.2034e-18 6.16298e-32)
(1.13326e-15 1.97099e-29 1.53983e-31 23.0607 3.3896e-16 3.33308e-17 0.198584 1.15522e-17 1.19921e-16)
(2.96701e-16 -2.76393e-31 6.5047e-32 23.056 -5.04572e-16 -2.87999e-15 0.201426 -3.5382e-18 -1.84889e-31)
(0 0 -2.16823e-32 23.056 -4.75076e-17 4.33414e-17 0.201426 1.25024e-17 1.24347e-16)
(-6.20558e-16 6.10362e-30 0 23.0502 -3.65884e-16 -4.12593e-16 0.204298 -2.89704e-18 1.4358e-18)
(-2.48223e-15 0 0 23.0502 -2.75369e-16 5.8181e-17 0.204298 1.1723e-17 1.2899e-16)
(-1.08301e-15 1.65334e-29 6.31958e-32 23.0431 -3.90358e-16 -1.86355e-16 0.207198 -4.08206e-18 8.21502e-18)
(-1.29621e-15 -8.08906e-30 -2.10653e-32 23.0431 -2.24245e-16 6.29341e-17 0.207198 1.12745e-17 1.33841e-16)
(0 1.8604e-29 1.8687e-31 23.0344 -7.0869e-16 -1.46564e-16 0.210124 -8.79087e-18 1.52513e-17)
(-1.35209e-15 -1.8604e-29 -1.8687e-31 23.0344 2.11556e-17 5.29085e-17 0.210124 1.2478e-17 1.38878e-16)
(0 -1.30981e-29 -1.63726e-31 23.0239 -1.02346e-15 -1.12679e-16 0.213074 -1.00291e-17 2.25661e-17)
(1.40878e-15 1.30981e-29 1.63726e-31 23.0239 8.8765e-17 4.57628e-17 0.213074 1.37016e-17 1.44071e-16)
(-3.66567e-16 3.05129e-30 0 23.0113 -1.02583e-15 -8.14395e-17 0.216043 -9.09295e-18 3.01213e-17)
(0 2.58207e-30 4.03448e-32 23.0113 -7.30415e-17 4.94639e-17 0.216043 1.33461e-17 1.49479e-16)
(-3.81144e-16 2.08672e-29 7.95332e-32 22.9962 -7.80997e-16 -4.29414e-17 0.219028 -5.65738e-18 3.79412e-17)
(0 -1.78154e-29 -7.95332e-32 22.9962 -1.82372e-16 6.27434e-17 0.219028 1.45362e-17 1.55103e-16)
(-1.10203e-15 1.55946e-29 5.47382e-48 22.9783 -6.20707e-16 1.27261e-45 0.222024 -6.26045e-18 4.60383e-17)
(-1.58371e-15 -7.52576e-30 -5.8795e-32 22.9783 -1.43614e-16 7.1407e-17 0.222024 1.58228e-17 1.60989e-16)
(4.10916e-16 -1.04694e-29 -1.93174e-32 22.957 -6.66954e-16 4.89281e-17 0.225027 -6.7302e-18 5.44366e-17)
(0 7.41789e-30 1.93174e-32 22.957 -5.85966e-17 6.24285e-17 0.225027 1.66214e-17 1.67069e-16)
(4.26113e-16 -2.25488e-29 -7.61622e-32 22.932 -7.87402e-16 8.43117e-17 0.228031 -8.84065e-18 6.31239e-17)
(0 1.94975e-29 7.61622e-32 22.932 -1.82686e-16 6.26106e-17 0.228031 1.75346e-17 1.73332e-16)
(-4.4152e-16 1.74647e-29 5.6303e-32 22.9028 -9.87663e-16 1.1834e-16 0.231028 -1.09704e-17 7.2063e-17)
(0 -9.60904e-30 -1.87677e-32 22.9028 -1.25578e-16 6.66638e-17 0.231028 1.77564e-17 1.7983e-16)
(0 1.89426e-29 9.24934e-32 22.8687 -1.13958e-15 1.75846e-16 0.234012 -1.22113e-17 8.12851e-17)
(0 -2.36783e-29 -1.10992e-31 22.8687 1.51174e-16 6.43724e-17 0.234012 2.01515e-17 1.86526e-16)
(-4.72964e-16 7.71903e-30 3.64671e-32 22.8292 -1.21659e-15 2.35693e-16 0.236975 -1.28919e-17 9.0868e-17)
(1.23492e-15 0 0 22.8292 2.53543e-16 7.14825e-17 0.236975 2.33502e-17 1.93429e-16)
(6.47517e-16 -1.84035e-29 -1.07833e-31 22.7836 -1.1381e-15 2.77235e-16 0.239907 -1.09141e-17 1.00732e-16)
(1.30848e-15 1.84035e-29 1.07833e-31 22.7836 2.55084e-17 7.41332e-17 0.239907 2.4199e-17 2.00578e-16)
(5.05246e-16 1.05539e-29 1.06288e-31 22.7313 -1.24938e-15 3.26318e-16 0.242798 -1.56497e-17 1.10839e-16)
(-2.02098e-15 -1.36048e-29 -1.41717e-31 22.7313 -2.42039e-16 8.25722e-17 0.242798 2.30839e-17 2.07918e-16)
(1.15079e-15 -7.5209e-30 -6.98429e-32 22.6716 -1.5445e-15 3.77419e-16 0.245638 -1.76379e-17 1.21254e-16)
(-6.29089e-16 4.46994e-30 6.98429e-32 22.6716 4.32033e-17 1.01976e-16 0.245638 2.40474e-17 2.15528e-16)
(-5.38358e-16 -1.35478e-30 -6.88419e-32 22.6036 -1.66292e-15 4.21202e-16 0.248415 -1.87153e-17 1.31917e-16)
(0 8.81176e-30 1.03263e-31 22.6036 4.83606e-16 9.53169e-17 0.248415 2.53381e-17 2.23374e-16)
(5.55221e-16 9.97682e-30 6.78552e-32 22.5268 -1.6983e-15 4.87732e-16 0.251117 -1.89447e-17 1.4283e-16)
(2.22088e-15 -8.68546e-30 -3.39276e-32 22.5268 6.67258e-16 7.59394e-17 0.251117 2.86225e-17 2.31332e-16)
(6.02425e-16 -4.28049e-30 -1.00324e-31 22.4403 -1.53906e-15 5.42741e-16 0.253731 -1.56553e-17 1.54091e-16)
(1.68671e-15 4.28049e-30 1.00324e-31 22.4403 4.20478e-16 8.26863e-17 0.253731 3.28335e-17 2.39446e-16)
(-5.8954e-16 3.05257e-30 -3.2962e-32 22.3433 -1.3416e-15 5.94275e-16 0.256244 -1.49601e-17 1.65512e-16)
(0 4.21914e-30 6.5924e-32 22.3433 -2.45111e-17 9.9371e-17 0.256244 3.52994e-17 2.47804e-16)
(-6.06988e-16 -1.10599e-30 0 22.2351 -1.32303e-15 6.69141e-16 0.258641 -1.56806e-17 1.77215e-16)
(0 8.31733e-30 0 22.2351 -9.95709e-17 1.07921e-16 0.258641 3.79976e-17 2.56343e-16)
(0 -4.09906e-30 -6.40479e-32 22.115 -1.32308e-15 7.20027e-16 0.260909 -1.53997e-17 1.89157e-16)
(0 4.09906e-30 9.60718e-32 22.115 1.17072e-16 1.13615e-16 0.260909 4.22533e-17 2.65064e-16)
(-1.21105e-15 -9.86924e-31 -3.15649e-32 21.9824 -1.2884e-15 7.64361e-16 0.263033 -1.53074e-17 2.01209e-16)
(0 8.08063e-30 6.31299e-32 21.9824 -7.09972e-17 1.18233e-16 0.263033 4.58585e-17 2.73927e-16)
(-5.60474e-16 1.59296e-29 1.55563e-31 21.8366 -1.44268e-15 8.39024e-16 0.265001 -1.96085e-17 2.04305e-16)
(-2.64163e-15 -1.59296e-29 -1.2445e-31 21.8366 -3.27547e-16 1.15959e-16 0.265001 4.59669e-17 2.82933e-16)
(-6.78547e-16 -8.72239e-30 -1.22666e-31 21.6771 -1.60892e-15 9.02473e-16 0.266798 -1.98636e-17 1.97811e-16)
(2.71419e-15 1.1776e-29 1.22666e-31 21.6771 -3.21483e-16 1.05304e-16 0.266798 4.53334e-17 2.92006e-16)
(0 1.16072e-29 1.51135e-31 21.5035 -1.53057e-15 9.48281e-16 0.268411 -1.82186e-17 1.90861e-16)
(0 -1.16072e-29 -1.51135e-31 21.5035 -7.95104e-16 8.41378e-17 0.268411 4.6495e-17 3.01129e-16)
(-7.15263e-16 1.06825e-29 5.95877e-32 21.3155 -1.2818e-15 1.02607e-15 0.269831 -1.41183e-17 1.83304e-16)
(2.86105e-15 -7.62723e-30 -5.95877e-32 21.3155 -1.02503e-15 7.37583e-17 0.269831 4.90263e-17 3.10199e-16)
(1.46764e-15 -2.11464e-29 -8.81005e-32 21.1128 -1.04223e-15 1.10705e-15 0.271044 -1.25703e-17 1.75296e-16)
(2.93527e-15 1.50358e-29 8.81005e-32 21.1128 -7.26865e-16 1.09514e-16 0.271044 5.0259e-17 3.19353e-16)
(0 -3.70508e-30 -4.34189e-32 20.8955 -1.05592e-15 1.14933e-15 0.272044 -1.48903e-17 1.66794e-16)
(0 3.70508e-30 7.23648e-32 20.8955 -1.18413e-15 1.32795e-16 0.272044 4.91399e-17 3.28733e-16)
(-7.71256e-16 -5.97498e-31 -2.85311e-32 20.6635 -1.266e-15 1.19563e-15 0.272823 -1.85183e-17 1.83336e-16)
(0 1.09559e-29 5.70621e-32 20.6635 -1.0685e-15 1.37162e-16 0.272823 4.56781e-17 3.381e-16)
(-1.58022e-15 2.41046e-29 8.43664e-32 20.4171 -1.75365e-15 1.25966e-15 0.273375 -2.84666e-17 2.00264e-16)
(3.16044e-15 -2.15978e-29 -1.12489e-31 20.4171 1.17567e-16 1.36001e-16 0.273375 4.60513e-17 3.47567e-16)
(-8.09035e-16 6.60161e-30 2.77191e-32 20.1567 -2.11468e-15 1.3138e-15 0.273696 -2.89307e-17 2.17348e-16)
(0 0 1.38595e-32 20.1567 6.58156e-16 1.27956e-16 0.273696 5.0633e-17 3.56935e-16)
(-8.28014e-16 -4.4273e-31 -1.36609e-32 19.8828 -2.02949e-15 1.3515e-15 0.273786 -2.69376e-17 2.34644e-16)
(3.31205e-15 6.99438e-30 4.09827e-32 19.8828 1.14898e-15 1.32125e-16 0.273786 5.72423e-17 3.6629e-16)
(-8.47031e-16 6.50331e-30 4.03953e-32 19.596 -1.58482e-15 1.38086e-15 0.273644 -1.72657e-17 2.51807e-16)
(-9.70262e-16 0 -1.34651e-32 19.596 -2.03289e-16 1.15436e-16 0.273644 6.91885e-17 3.7558e-16)
(-2.6885e-15 1.29098e-29 5.30884e-32 19.2972 -9.17128e-16 1.42721e-15 0.273274 -8.66547e-18 2.6923e-16)
(-2.50792e-15 -6.79532e-30 -5.30884e-32 19.2972 -7.20813e-16 7.72301e-17 0.273274 6.53563e-17 3.8468e-16)
(-1.77023e-15 0 -7.84913e-32 18.9871 1.52916e-30 1.46306e-15 0.27268 -3.15544e-30 2.86761e-16)
(5.19562e-15 1.67448e-29 7.84913e-32 18.9871 -1.55592e-17 5.34458e-17 0.27268 6.86329e-17 3.93541e-16)
(-2.71245e-15 2.56792e-29 1.16049e-31 18.6669 9.19039e-17 1.48342e-15 0.271868 -1.57222e-18 3.04529e-16)
(-3.61659e-15 -1.65048e-29 -1.16049e-31 18.6669 -1.23496e-15 6.301e-17 0.271868 7.12249e-17 4.02287e-16)
(-2.7548e-15 -9.95861e-30 -7.62575e-32 18.3374 -4.91725e-16 1.54617e-15 0.270847 -1.57807e-17 3.21946e-16)
(3.69262e-15 1.30146e-29 8.8967e-32 18.3374 -1.01495e-15 6.18494e-17 0.270847 6.53938e-17 4.11031e-16)
(9.42118e-16 -1.26759e-29 -3.75822e-32 18 -1.30205e-15 1.59869e-15 0.269626 -2.33706e-17 3.39789e-16)
(0 9.62106e-30 3.75822e-32 18 -4.83267e-16 5.93422e-17 0.269626 7.08397e-17 4.19555e-16)
(0 -9.48316e-30 -8.64351e-32 17.6557 -1.83227e-15 1.61325e-15 0.268217 -3.25126e-17 3.57597e-16)
(3.84409e-15 9.48316e-30 8.64351e-32 17.6557 -5.95602e-16 7.45454e-17 0.268217 7.37308e-17 4.28064e-16)
(8.77005e-16 -6.2315e-30 -2.43418e-32 17.3057 -2.33615e-15 1.57541e-15 0.26663 -3.97416e-17 3.75399e-16)
(3.91942e-15 6.2315e-30 2.43418e-32 17.3057 5.99894e-17 7.2301e-17 0.26663 7.47431e-17 4.36525e-16)
(-8.64435e-16 9.21327e-30 3.59893e-32 16.9513 -2.24431e-15 1.57666e-15 0.264879 -3.05641e-17 3.92654e-16)
(2.26552e-15 0 -1.19964e-32 16.9513 5.61472e-16 4.82965e-17 0.264879 8.3952e-17 4.44827e-16)
(0 1.21083e-29 7.68593e-32 16.5936 -2.06176e-15 1.61403e-15 0.262977 -3.50563e-17 4.10406e-16)
(0 -1.21083e-29 -7.68593e-32 16.5936 1.52703e-17 2.26391e-17 0.262977 9.23012e-17 4.5287e-16)
(-2.07155e-15 1.2082e-29 0 16.2336 -1.99752e-15 1.60927e-15 0.260938 -2.93713e-17 4.2791e-16)
(0 -5.96738e-30 0 16.2336 -4.69436e-16 9.58541e-18 0.260938 9.21828e-17 4.60721e-16)
(1.65559e-15 -1.17637e-29 -6.31839e-32 15.8727 -1.485e-15 1.60618e-15 0.258775 -1.91795e-17 4.45428e-16)
(2.56112e-15 1.17637e-29 6.31839e-32 15.8727 -7.76351e-17 1.33746e-17 0.258775 9.26729e-17 4.68404e-16)
(0 8.69632e-30 2.26467e-32 15.5117 -1.32557e-15 1.61801e-15 0.256503 -2.4897e-17 4.62658e-16)
(4.2898e-15 -2.89877e-30 -1.6985e-32 15.5117 -3.64661e-17 2.74431e-17 0.256503 1.01942e-16 4.7606e-16)
(-1.09058e-15 2.02281e-31 2.79026e-33 15.1517 -1.33251e-15 1.61298e-15 0.254135 -1.99769e-17 4.80087e-16)
(0 8.57168e-30 8.37078e-33 15.1517 -7.47447e-16 2.9514e-17 0.254135 1.09373e-16 4.83628e-16)
(1.10855e-15 2.57417e-30 1.92519e-32 14.7936 -1.37294e-15 1.62606e-15 0.251683 -2.70186e-17 4.97335e-16)
(-1.58542e-15 0 -1.10011e-32 14.7936 -1.41758e-15 4.3876e-17 0.251683 1.06254e-16 4.91082e-16)
(1.5627e-15 -5.55182e-30 -6.77713e-33 14.4382 -1.80452e-15 1.66678e-15 0.249162 -3.56425e-17 5.12583e-16)
(-1.5627e-15 5.55182e-30 9.48798e-33 14.4382 -8.51355e-16 6.79886e-17 0.249162 1.10261e-16 4.9866e-16)
(1.5403e-15 -5.47225e-30 -7.68199e-33 14.0864 -1.93394e-15 1.64323e-15 0.246582 -3.23982e-17 5.23106e-16)
(0 5.47225e-30 1.1356e-32 14.0864 -2.80103e-16 5.71778e-17 0.246582 1.2067e-16 5.06278e-16)
(-8.0475e-16 7.28412e-31 -1.31685e-33 13.7386 -1.67769e-15 1.60394e-15 0.243954 -2.74701e-17 5.33323e-16)
(0 8.09073e-30 7.9011e-33 13.7386 -8.74621e-16 6.25479e-17 0.243954 1.24005e-16 5.13714e-16)
(-1.17879e-15 5.72249e-30 7.78786e-33 13.3957 -6.81379e-16 1.60918e-15 0.241291 -6.17081e-18 5.43282e-16)
(0 -2.65826e-30 -7.78786e-33 13.3957 -1.55985e-15 8.97685e-17 0.241291 1.26772e-16 5.2139e-16)
(1.1959e-15 -3.06445e-30 0 13.0581 -3.06445e-30 1.08595e-15 0.238601 -3.15544e-30 5.53342e-16)
(-4.78361e-15 0 0 13.0581 -2.81203e-15 7.53498e-17 0.238601 1.24949e-16 5.29178e-16)
(1.45388e-15 -2.5826e-30 0 12.7262 5.41183e-16 3.12515e-16 0.235895 -1.63017e-17 5.58258e-16)
(-4.85133e-15 2.5826e-30 5.04415e-33 12.7262 -2.48789e-15 6.07807e-17 0.235895 1.11119e-16 5.36829e-16)
(-1.22958e-15 1.79276e-29 4.97185e-33 12.4004 4.00418e-16 8.63153e-17 0.233179 -3.78683e-18 5.60928e-16)
(9.83663e-15 -1.01823e-29 -4.97185e-33 12.4004 -9.79541e-16 6.91296e-17 0.233179 1.13346e-16 5.4459e-16)
(1.24614e-15 9.48558e-30 0 12.0812 1.13815e-15 8.54821e-17 0.230462 -1.24758e-17 5.63509e-16)
(4.98454e-15 -2.00728e-29 0 12.0812 -2.29997e-15 8.1725e-17 0.230462 1.17011e-16 5.52493e-16)
(0 0 0 11.7686 6.8623e-16 5.44941e-17 0.227752 -3.13412e-17 5.65957e-16)
(0 4.94628e-30 0 11.7686 -2.3572e-15 7.55619e-17 0.227752 9.94953e-17 5.6062e-16)
(-1.27868e-15 -1.64451e-29 -9.52224e-33 11.463 -7.00237e-16 4.64668e-17 0.225053 -2.29087e-17 5.6804e-16)
(5.11473e-15 2.43769e-29 9.52224e-33 11.463 -6.24569e-16 3.95217e-17 0.225053 1.05255e-16 5.6868e-16)
(-2.6473e-15 1.74739e-29 4.69288e-33 11.1645 -1.02083e-15 3.15151e-17 0.222371 -1.79682e-17 5.70317e-16)
(-5.17868e-15 -9.61102e-30 -4.69288e-33 11.1645 -6.5105e-16 5.72777e-18 0.222371 1.08341e-16 5.76632e-16)
(1.31047e-15 -1.7265e-29 -7.94096e-32 10.8731 -1.28004e-15 7.81201e-30 0.219712 -3.41956e-17 5.72207e-16)
(5.24188e-15 1.42099e-29 0 10.8731 3.61594e-17 1.3445e-18 0.219712 1.10784e-16 5.84519e-16)
(-1.32608e-15 2.17325e-29 4.55932e-33 10.589 -1.32028e-15 3.67487e-17 0.21708 -2.01669e-17 5.7425e-16)
(5.30432e-15 -1.8675e-29 -4.55932e-33 10.589 2.2922e-16 1.32251e-17 0.21708 1.32544e-16 5.92579e-16)
(-1.3415e-15 -4.02873e-44 0 10.3122 2.89459e-28 6.57933e-17 0.214479 0 5.76447e-16)
(0 0 0 10.3122 -1.33602e-15 1.03991e-17 0.214479 1.30863e-16 6.00825e-16)
(-1.35674e-15 -1.48284e-30 0 10.0426 -1.1028e-15 2.39153e-17 0.211911 -5.52221e-17 5.78809e-16)
(0 9.07175e-30 0 10.0426 -8.87039e-16 1.84354e-17 0.211911 1.2778e-16 6.09113e-16)
(1.14508e-15 -1.03585e-29 0 9.78027 -2.71554e-15 1.41876e-47 0.209379 -6.18038e-17 5.80534e-16)
(2.97032e-15 1.34126e-29 0 9.78027 3.17661e-16 1.98684e-17 0.209379 1.42438e-16 6.17725e-16)
(1.38667e-15 -3.23923e-29 -4.3035e-33 9.52513 -1.33226e-15 2.8191e-17 0.206886 -1.45562e-17 5.82808e-16)
(0 1.32204e-29 4.3035e-33 9.52513 -6.07891e-16 1.18784e-17 0.206886 1.53761e-16 6.26332e-16)
(1.22262e-15 -8.68725e-30 0 9.27708 -1.27206e-15 1.48212e-17 0.204434 -4.20445e-17 5.84914e-16)
(0 8.68725e-30 0 9.27708 -1.90725e-15 -8.38188e-18 0.204434 1.57482e-16 6.35049e-16)
(-1.41589e-15 -1.22222e-30 0 9.03603 -1.95596e-15 -1.65241e-17 0.202025 -4.59709e-17 5.87185e-16)
(0 4.28137e-30 0 9.03603 -1.58817e-15 -1.12382e-17 0.202025 1.44792e-16 6.43547e-16)
(2.37565e-15 -2.532e-29 -4.1211e-33 8.80187 -2.52046e-15 -6.06118e-17 0.199659 -6.9226e-17 5.8909e-16)
(9.06623e-15 2.95401e-29 8.2422e-33 8.80187 -4.28687e-17 1.30581e-17 0.199659 1.40112e-16 6.52471e-16)
(0 -4.15952e-30 -1.42566e-31 8.57448 -2.59091e-15 0 0.197337 -5.06033e-17 5.91104e-16)
(5.77765e-15 8.31905e-30 4.06204e-33 8.57448 4.22749e-16 1.74058e-17 0.197337 1.55871e-16 6.61603e-16)
(-3.76646e-15 2.76635e-29 4.00382e-33 8.3537 -2.06071e-15 -7.71299e-18 0.195061 -4.61665e-17 5.94008e-16)
(-5.83368e-15 -2.04995e-29 -8.00763e-33 8.3537 1.02109e-15 -3.10603e-17 0.195061 1.65131e-16 6.70873e-16)
(-1.47226e-15 1.51856e-29 -2.81056e-31 8.1394 -2.32227e-15 -6.0936e-18 0.192831 -6.46415e-17 5.96387e-16)
(-8.16402e-15 -1.21234e-29 -3.94643e-33 8.1394 2.40338e-15 -1.16822e-16 0.192831 1.92872e-16 6.7944e-16)
(0 1.19497e-29 0 7.93143 -2.09371e-15 -1.31954e-17 0.190646 -3.63873e-17 5.99273e-16)
(-2.24236e-15 -7.96645e-30 0 7.93143 2.59374e-15 -1.1694e-16 0.190646 2.34656e-16 6.87441e-16)
(0 6.17376e-30 -7.77654e-32 7.72964 -8.95141e-16 -1.09696e-17 0.188508 -1.09776e-17 6.02217e-16)
(5.9979e-15 -3.92614e-30 0 7.72964 1.30823e-15 -5.73205e-17 0.188508 2.68567e-16 6.95984e-16)
(1.51284e-15 2.01535e-29 -3.77916e-33 7.53385 -9.25549e-16 -4.02977e-17 0.186416 -3.52598e-17 6.05306e-16)
(-2.17854e-15 -1.93493e-29 -3.77916e-33 7.53385 3.19476e-16 -8.36531e-17 0.186416 2.82297e-16 7.04874e-16)
(0 -3.8144e-29 -3.725e-33 7.34392 -1.61914e-15 -6.37741e-17 0.184371 -4.65738e-17 6.08182e-16)
(1.22085e-14 3.8144e-29 3.725e-33 7.34392 1.01743e-15 -1.02194e-16 0.184371 2.78761e-16 7.13188e-16)
(2.11654e-15 -3.75973e-30 0 7.15967 -1.77554e-15 -6.28372e-17 0.182371 -4.43629e-17 6.11563e-16)
(1.01965e-14 3.75973e-30 3.67161e-33 7.15967 -4.34918e-17 -6.94124e-17 0.182371 3.02776e-16 7.22049e-16)
(-3.10412e-15 6.13665e-30 0 6.98094 -1.38409e-15 -3.52599e-17 0.180416 -2.74461e-17 6.1499e-16)
(0 0 0 6.98094 -9.81347e-16 -1.01301e-16 0.180416 3.08512e-16 7.31028e-16)
(-1.56484e-15 -6.23578e-44 0 6.80758 2.26843e-28 -3.58957e-17 0.178506 -3.15544e-30 6.19133e-16)
(1.25188e-14 0 0 6.80758 2.22207e-16 -1.09214e-16 0.178506 3.17376e-16 7.39607e-16)
(1.57749e-15 -1.38648e-29 0 6.63943 7.01835e-16 -7.0145e-17 0.17664 -3.0754e-17 6.23144e-16)
(0 1.08011e-29 0 6.63943 -8.52871e-16 -7.37902e-17 0.17664 3.46262e-16 7.48482e-16)
(-1.59e-15 3.06447e-30 0 6.47631 -1.51624e-16 -8.56399e-17 0.174818 -1.49993e-17 6.27162e-16)
(0 3.54877e-30 0 6.47631 -2.11345e-15 -5.14023e-17 0.174818 3.47628e-16 7.57723e-16)
(3.66772e-16 0 0 6.31808 0 -5.74005e-17 0.173039 -3.15544e-30 6.3146e-16)
(4.44036e-15 -6.99582e-30 0 6.31808 -1.34906e-15 3.91719e-18 0.173039 3.47094e-16 7.67188e-16)
(-1.61462e-15 9.95653e-30 0 6.16459 1.05903e-15 -3.96717e-17 0.171302 -2.19787e-17 6.36389e-16)
(6.4585e-15 -3.44778e-30 0 6.16459 -1.34848e-15 4.10619e-17 0.171302 3.55107e-16 7.77678e-16)
(-3.25349e-15 6.11228e-30 0 6.01567 5.17935e-16 -8.47391e-17 0.169607 -3.72892e-17 6.41152e-16)
(0 0 0 6.01567 -1.24906e-15 4.34699e-17 0.169607 3.46362e-16 7.88652e-16)
(-1.63874e-15 -1.4013e-45 0 5.87119 8.91463e-44 -8.92802e-17 0.167953 0 6.45454e-16)
(-1.88569e-15 -6.69931e-30 0 5.87119 -1.54346e-15 -2.92354e-16 0.167953 3.46072e-16 8.00213e-16)
(0 -8.71608e-30 0 5.731 9.10476e-16 -8.83716e-17 0.166338 -1.32776e-17 6.50478e-16)
(-6.60249e-15 6.60329e-30 0 5.731 -2.28567e-15 -1.2405e-15 0.166338 3.51259e-16 8.06935e-16)
(-2.00166e-15 -1.28162e-29 4.76707e-33 5.59495 2.68249e-15 -3.5296e-17 0.164763 -4.65483e-17 6.55322e-16)
(1.03136e-14 9.76297e-30 -4.76707e-33 5.59495 -3.02627e-15 -1.81293e-15 0.164763 3.57456e-16 8.05041e-16)
(1.67403e-15 -6.2466e-30 6.265e-33 5.46292 3.67825e-15 -3.07533e-17 0.163226 -1.12681e-16 6.61756e-16)
(-6.69612e-15 3.20768e-30 -6.265e-33 5.46292 -4.59379e-15 -1.75576e-15 0.163226 3.31108e-16 8.03715e-16)
(-1.68556e-15 9.35802e-30 -1.23504e-32 5.33477 2.604e-15 -9.19133e-17 0.161727 -1.08133e-16 6.67089e-16)
(6.74226e-15 -3.16171e-30 1.23504e-32 5.33477 -3.94803e-15 -1.77851e-15 0.161727 3.03323e-16 8.02991e-16)
(-1.75437e-15 6.23278e-30 -1.21734e-32 5.21037 2.55625e-15 -4.9686e-17 0.160264 -5.00683e-17 6.72912e-16)
(0 0 1.21734e-32 5.21037 -2.88647e-15 -1.83277e-15 0.160264 3.05193e-16 8.01549e-16)
(-1.72923e-15 1.22869e-29 -2.39978e-32 5.0896 3.90248e-15 -4.51778e-17 0.158837 -1.08328e-16 6.7957e-16)
(6.83323e-15 -6.14345e-30 2.39978e-32 5.0896 -3.14337e-15 -1.78648e-15 0.158837 2.94519e-16 8e-16)
(1.71952e-15 -1.21017e-29 3.54808e-32 4.97233 4.32382e-15 -6.51935e-17 0.157445 -1.36556e-16 6.86126e-16)
(0 9.0831e-30 -3.54808e-32 4.97233 -4.02444e-15 -1.6749e-15 0.157445 2.79554e-16 7.99212e-16)
(0 5.96861e-30 -3.49723e-32 4.85845 4.17036e-15 -4.15537e-17 0.156087 -1.38498e-16 6.93073e-16)
(-1.02826e-14 0 3.49723e-32 4.85845 -4.11196e-15 -1.86266e-15 0.156087 2.48646e-16 7.99552e-16)
(-1.65593e-15 8.82459e-30 1.14904e-32 4.74784 4.08119e-15 -2.29944e-17 0.154762 -1.3058e-16 7.00694e-16)
(0 0 -4.59614e-32 4.74784 -2.36358e-15 -1.96709e-15 0.154762 2.39499e-16 7.95781e-16)
(0 8.69812e-30 -4.53027e-32 4.64039 3.61894e-15 -7.81297e-17 0.15347 -1.36675e-16 7.0847e-16)
(-1.6322e-15 -5.79874e-30 2.26513e-32 4.64039 -1.36408e-15 -1.9072e-15 0.15347 2.43346e-16 7.94456e-16)
(1.76339e-15 1.69985e-29 -1.3396e-31 4.53601 3.08835e-15 -8.47008e-17 0.15221 -1.03477e-16 7.1564e-16)
(0 -2.00047e-29 1.3396e-31 4.53601 -2.28583e-15 -1.95733e-15 0.15221 2.63124e-16 7.91722e-16)
(1.77412e-15 5.44725e-30 -6.60201e-32 4.43457 3.50713e-15 1.28399e-17 0.15098 -1.04661e-16 7.2398e-16)
(0 -5.63371e-30 6.60201e-32 4.43457 -3.56049e-15 -1.99917e-15 0.15098 2.63381e-16 7.89607e-16)
(-3.56953e-15 4.37566e-31 0 4.336 3.64622e-15 7.90448e-17 0.149781 -1.35349e-16 7.33671e-16)
(7.13907e-15 5.55297e-30 0 4.336 -3.69702e-15 -1.86791e-15 0.149781 2.39498e-16 7.86279e-16)
(-1.79532e-15 2.54942e-31 0 4.24018 3.34453e-15 9.1607e-17 0.148611 -1.17445e-16 7.43748e-16)
(0 8.21007e-30 -4.27608e-32 4.24018 -4.2895e-15 -1.67778e-15 0.148611 2.28817e-16 7.86921e-16)
(0 2.69747e-30 -4.21479e-32 4.14704 2.57526e-15 -7.74586e-18 0.14747 -1.17928e-16 7.53782e-16)
(0 -2.69747e-30 8.42958e-32 4.14704 -3.53383e-15 -1.88473e-15 0.14747 1.95605e-16 7.87508e-16)
(2.99355e-15 1.3294e-29 -1.24631e-31 4.05647 2.25942e-15 1.22083e-17 0.146356 -6.55619e-17 7.622e-16)
(-2.99355e-15 -7.97641e-30 8.30876e-32 4.05647 -2.59303e-15 -2.25921e-15 0.146356 1.94231e-16 7.85238e-16)
(0 7.86209e-30 -8.18968e-32 3.96839 2.86051e-15 -2.97672e-18 0.14527 -9.83377e-17 7.73448e-16)
(-2.95064e-15 0 8.18968e-32 3.96839 -4.10015e-15 -2.22498e-15 0.14527 1.76778e-16 7.64822e-16)
(2.90835e-15 7.74941e-30 -1.21084e-31 3.88273 2.02424e-15 -8.67054e-17 0.14421 -1.11978e-16 7.82459e-16)
(1.17854e-14 -5.16627e-30 8.0723e-32 3.88273 -4.39616e-15 -1.97162e-15 0.14421 1.15956e-16 7.4312e-16)
(-3.69373e-15 5.9685e-30 3.9783e-32 3.7994 1.99267e-15 -4.5514e-17 0.143176 -3.84146e-17 7.92771e-16)
(7.38746e-15 0 -3.9783e-32 3.7994 -4.99655e-15 -1.84654e-15 0.143176 6.93608e-17 7.26209e-16)
(1.85694e-15 -1.30077e-29 7.84256e-32 3.71832 4.38202e-15 -2.01082e-17 0.142167 -1.12852e-16 8.03203e-16)
(0 1.00385e-29 -1.56851e-31 3.71832 -7.80199e-15 -2.00309e-15 0.142167 8.20533e-18 7.1216e-16)
(0 4.9473e-30 -7.73016e-32 3.63942 6.26457e-15 2.76562e-17 0.141183 -2.24236e-16 8.14461e-16)
(-7.46776e-15 0 7.73016e-32 3.63942 -8.88933e-15 -2.28168e-15 0.141183 -7.75689e-17 6.90518e-16)
(-4.62204e-15 -1.16939e-29 2.66678e-31 3.56263 6.38168e-15 -5.85576e-18 0.140222 -2.63795e-16 8.26167e-16)
(7.50748e-15 1.46292e-29 -2.66678e-31 3.56263 -7.64785e-15 -1.99687e-15 0.140222 -1.46099e-16 6.66005e-16)
(0 9.61301e-30 -1.50203e-31 3.48788 5.25359e-15 -2.8672e-17 0.139285 -2.40122e-16 8.37344e-16)
(-2.70582e-15 -4.8065e-30 1.50203e-31 3.48788 -8.05971e-15 -1.9145e-15 0.139285 -1.94538e-16 6.499e-16)
(0 -4.73761e-30 7.40252e-32 3.41511 4.12465e-15 5.251e-17 0.13837 -1.80462e-16 8.49447e-16)
(2.66704e-15 4.73761e-30 -1.4805e-31 3.41511 -9.70242e-15 -2.10413e-15 0.13837 -2.6851e-16 6.26631e-16)
(-1.90625e-15 2.93605e-30 0 3.34424 2.51225e-15 -1.81138e-17 0.137477 -1.54702e-16 8.63259e-16)
(0 0 0 3.34424 -6.93662e-15 -1.99413e-15 0.137477 -3.55616e-16 6.04585e-16)
(-1.24068e-15 -2.17236e-29 4.31511e-31 3.27522 -3.21601e-17 -1.77159e-16 0.136605 -5.52446e-17 8.7452e-16)
(1.53273e-14 2.76167e-29 -6.47266e-31 3.27522 -1.29293e-15 -1.83318e-15 0.136605 -3.68019e-16 5.85816e-16)
(0 4.53681e-30 -1.41775e-31 3.20799 -1.05894e-15 -1.74232e-16 0.135755 -3.4512e-17 8.85665e-16)
(-2.554e-15 -4.53681e-30 1.41775e-31 3.20799 -5.32233e-16 -2.17038e-15 0.135755 -3.46639e-16 5.7086e-16)
(-2.51739e-15 8.94358e-30 -1.39743e-31 3.1425 -8.99809e-16 -1.38528e-16 0.134924 -4.30565e-17 8.98627e-16)
(0 -4.47179e-30 1.39743e-31 3.1425 -1.50293e-15 -2.6701e-15 0.134924 -3.87166e-16 5.4297e-16)
(-3.35223e-15 8.26766e-44 5.50962e-31 3.07868 1.47057e-28 -9.68385e-17 0.134114 2.52663e-45 9.12365e-16)
(1.55561e-14 2.64462e-29 -6.19832e-31 3.07868 6.27318e-16 -2.24444e-15 0.134114 -4.04974e-16 5.08566e-16)
(0 -3.04117e-29 7.46715e-31 3.01648 -8.93641e-17 -1.25584e-16 0.133322 -1.35672e-17 9.27588e-16)
(1.56314e-14 3.04117e-29 -7.46715e-31 3.01648 3.04977e-16 -1.87888e-15 0.133322 -3.7279e-16 4.90869e-16)
(4.47406e-16 0 -3.34551e-31 2.95586 1.31416e-28 -9.99946e-17 0.13255 -3.15544e-30 9.42139e-16)
(-2.41069e-15 -8.56451e-30 2.67641e-31 2.95586 -9.76348e-16 -2.39249e-15 0.13255 -3.83487e-16 4.72593e-16)
(-4.03553e-16 -4.1695e-29 7.91415e-31 2.89676 1.082e-15 -2.47716e-17 0.131795 -2.4685e-17 9.59469e-16)
(1.81569e-14 3.3767e-29 -7.91415e-31 2.89676 3.57275e-16 -2.53353e-15 0.131795 -3.99582e-16 4.41031e-16)
(0 -1.66415e-29 5.20048e-31 2.83913 2.09483e-15 -4.13567e-17 0.131058 -1.12023e-16 9.76724e-16)
(7.92735e-15 1.66415e-29 -5.20048e-31 2.83913 -6.6563e-16 -2.20777e-15 0.131058 -3.83519e-16 4.11548e-16)
(1.99103e-15 -7.03845e-30 2.56297e-31 2.78294 2.18972e-15 -8.54129e-17 0.130339 -8.17064e-17 9.94425e-16)
(0 4.10075e-30 -2.56297e-31 2.78294 -1.2793e-15 -2.2278e-15 0.130339 -4.2117e-16 3.86354e-16)
(4.00035e-15 2.22936e-30 -1.26312e-31 2.72813 2.46871e-15 -9.72577e-17 0.129636 -1.24282e-16 1.01128e-15)
(5.72526e-15 -8.08396e-30 2.52624e-31 2.72813 -4.11938e-16 -2.52135e-15 0.129636 -4.25022e-16 3.5922e-16)