/*--------------------------------*- C++ -*----------------------------------*\
| =========                 |                                                 |
| \\      /  F ield         | OpenFOAM: The Open Source CFD Toolbox           |
|  \\    /   O peration     | Version:  2106                                  |
|   \\  /    A nd           | Website:  www.openfoam.com                      |
|    \\/     M anipulation  |                                                 |
\*---------------------------------------------------------------------------*/
FoamFile
{
    version     2.0;
    format      ascii;
    arch        "LSB;label=32;scalar=64";
    class       volTensorField;
    location    "16000";
    object      grad(U);
}
// * * * * * * * * * * * * * * * * * * * * * * * * * * * * * * * * * * * * * //

dimensions      [0 0 -1 0 0 0 0];

internalField   nonuniform List<tensor> 
2560
(
(0 3.11836e-30 3.89795e-31 214.964 -1.13133e-11 -1.45407e-12 0.311191 -8.19449e-15 -5.82841e-16)
(0 -1.03945e-30 -1.29932e-31 214.964 -1.67786e-14 -1.631e-16 0.311191 -3.0716e-17 7.01737e-16)
(0 -7.03679e-25 -5.88536e-26 214.916 3.41485e-32 -1.27474e-13 0.937997 0 -3.74409e-16)
(0 -4.09822e-30 -5.12277e-31 214.916 -1.62684e-14 -2.01002e-16 0.937997 -2.08055e-17 -3.17538e-16)
(-3.96055e-17 -7.82441e-31 -2.66191e-31 214.75 1.37889e-12 -5.92924e-14 1.28835 -6.43678e-15 -3.32016e-16)
(0 1.21184e-29 1.00987e-30 214.75 -3.00518e-14 -1.29456e-16 1.28835 -7.83112e-17 -3.26852e-16)
(1.27298e-16 -2.23214e-29 -2.24803e-30 214.086 6.91057e-13 -4.82956e-14 1.30063 -1.00247e-14 -2.51428e-16)
(0 1.99079e-29 1.99079e-30 214.086 -2.77078e-14 -1.94807e-16 1.30063 -1.22996e-16 -3.35986e-16)
(1.10465e-15 -4.11792e-27 -1.59987e-28 212.028 -7.10531e-14 -2.28394e-14 1.30066 -2.1793e-16 -7.00517e-17)
(-5.52327e-16 2.35471e-29 2.45282e-30 212.028 -2.82818e-14 -2.11884e-16 1.30066 -1.70142e-16 -3.43345e-16)
(8.55347e-16 -5.35512e-28 -5.98613e-31 207.186 0 0 1.27802 -3.15544e-30 0)
(2.48749e-15 1.93413e-29 1.93413e-30 207.186 -2.76668e-14 -2.12447e-16 1.27802 -2.18104e-16 -3.46409e-16)
(-4.06916e-16 4.15285e-32 -6.88646e-31 198.275 3.7392e-14 5.99016e-14 1.22542 -1.46917e-16 -2.16617e-16)
(1.62766e-15 1.14385e-29 1.90641e-30 198.275 -2.71471e-14 -1.89198e-16 1.22542 -2.65854e-16 -3.42491e-16)
(-5.03114e-16 1.88531e-29 6.77332e-31 185.062 4.77567e-14 1.05e-13 1.14494 -3.26564e-16 -5.42169e-16)
(2.01246e-15 -7.51636e-30 0 185.062 -2.6464e-14 -1.47577e-16 1.14494 -3.12515e-16 -3.30459e-16)
(1.63876e-15 -1.86358e-29 -1.54263e-30 168.73 4.14563e-14 1.34338e-13 1.04748 -2.84975e-16 -8.0495e-16)
(-1.04267e-15 1.85216e-29 1.38912e-30 168.73 -2.46002e-14 -1.07265e-16 1.04748 -3.59817e-16 -3.11715e-16)
(0 1.46049e-29 4.56403e-31 151.221 3.61429e-14 1.44185e-13 0.945922 -2.53642e-16 -9.42151e-16)
(0 -7.30244e-30 0 151.221 -2.19145e-14 -3.33342e-17 0.945922 -4.01757e-16 -2.89363e-16)
(-7.6187e-16 -1.05809e-29 -1.25903e-30 134.259 3.20112e-14 1.38952e-13 0.849586 -2.22746e-16 -9.5933e-16)
(-1.013e-15 1.79945e-29 1.34958e-30 134.259 -2.01653e-14 7.48419e-17 0.849586 -4.37667e-16 -2.66271e-16)
(8.32827e-16 -3.21904e-29 -1.85292e-30 118.858 2.83277e-14 1.25553e-13 0.763077 -2.05395e-16 -8.99224e-16)
(0 2.48312e-29 1.33024e-30 118.858 -1.86841e-14 1.40463e-16 0.763077 -4.7445e-16 -2.44391e-16)
(9.84168e-16 -1.74823e-29 -8.74117e-31 105.388 2.47898e-14 1.0941e-13 0.687632 -1.7891e-16 -8.04238e-16)
(-9.84168e-16 2.09788e-29 1.31118e-30 105.388 -1.62612e-14 1.43229e-16 0.687632 -5.06202e-16 -2.24734e-16)
(-1.92303e-15 1.75947e-29 5.04638e-31 93.8263 2.34885e-14 9.35928e-14 0.622726 -1.62339e-16 -7.01659e-16)
(3.81187e-15 -6.89271e-30 0 93.8263 -1.51783e-14 1.48647e-16 0.622726 -5.33415e-16 -2.07635e-16)
(0 2.37787e-29 1.69848e-30 83.9754 2.2667e-14 7.94304e-14 0.567133 -1.65839e-16 -6.0521e-16)
(0 -2.37787e-29 -1.69848e-30 83.9754 -1.45235e-14 1.66462e-16 0.567133 -5.62457e-16 -1.92836e-16)
(-1.04986e-15 7.1501e-30 -1.34692e-31 75.588 2.05286e-14 6.72864e-14 0.519481 -1.55366e-16 -5.20016e-16)
(4.19944e-15 -3.34827e-30 2.09267e-31 75.588 -1.341e-14 1.54553e-16 0.519481 -5.88607e-16 -1.80152e-16)
(0 2.64023e-29 1.85641e-30 68.4252 1.84326e-14 5.70854e-14 0.478487 -1.39722e-16 -4.47038e-16)
(-4.36638e-15 -2.64023e-29 -1.85641e-30 68.4252 -1.35303e-14 1.31738e-16 0.478487 -6.10595e-16 -1.69333e-16)
(0 2.27709e-29 1.62649e-30 62.2775 1.67521e-14 4.85933e-14 0.443043 -1.29117e-16 -3.85343e-16)
(-4.51886e-15 -2.27709e-29 -1.62649e-30 62.2775 -1.19944e-14 1.19299e-16 0.443043 -6.38204e-16 -1.60065e-16)
(1.80502e-15 -3.20636e-30 -4.00795e-31 56.9698 1.5634e-14 4.15389e-14 0.412221 -1.18762e-16 -3.33524e-16)
(0 6.41271e-30 4.00795e-31 56.9698 -1.02085e-14 1.00457e-16 0.412221 -6.58818e-16 -1.52124e-16)
(1.19708e-15 1.51684e-29 3.20019e-31 52.3587 1.58328e-14 3.56672e-14 0.385261 -1.15986e-16 -2.8993e-16)
(-4.78832e-15 -2.21228e-29 -5.92575e-31 52.3587 -1.12811e-14 1.02803e-16 0.385261 -6.80072e-16 -1.45354e-16)
(-1.75365e-15 2.80359e-29 9.7347e-31 48.3277 1.60669e-14 3.07687e-14 0.36154 -1.25291e-16 -2.5319e-16)
(1.75365e-15 -2.80359e-29 -9.7347e-31 48.3277 -1.1167e-14 1.21528e-16 0.36154 -7.0692e-16 -1.39429e-16)
(-1.2551e-15 -2.35513e-30 7.42588e-32 44.7826 1.45206e-14 2.666e-14 0.340551 -1.23029e-16 -2.22159e-16)
(0 1.22818e-29 3.83807e-31 44.7826 -9.58238e-15 1.1532e-16 0.340551 -7.29331e-16 -1.34266e-16)
(4.22414e-16 -2.64792e-29 -1.43946e-30 41.6468 1.35173e-14 2.31883e-14 0.321879 -1.04537e-16 -1.95708e-16)
(0 3.02645e-29 1.32407e-30 41.6468 -9.75056e-15 9.36645e-17 0.321879 -7.50556e-16 -1.2982e-16)
(-1.67932e-15 1.78984e-29 5.59326e-31 38.8578 1.41721e-14 2.02448e-14 0.305185 -1.10556e-16 -1.73034e-16)
(-3.54459e-15 -2.38646e-29 -7.45768e-31 38.8578 -1.00141e-14 7.24838e-17 0.305185 -7.76731e-16 -1.26013e-16)
(1.32924e-15 1.97459e-29 1.02992e-30 36.3648 1.32043e-14 1.77335e-14 0.290188 -1.18244e-16 -1.53587e-16)
(0 -2.35225e-29 -1.10262e-30 36.3648 -8.9005e-15 6.96052e-17 0.290188 -7.99441e-16 -1.22728e-16)
(-2.7025e-15 3.65357e-29 1.41231e-30 34.1257 1.13872e-14 1.55783e-14 0.276655 -9.7831e-17 -1.3668e-16)
(0 -2.89818e-29 -1.26795e-30 34.1257 -8.11233e-15 8.89894e-17 0.276655 -8.1847e-16 -1.19896e-16)
(5.72459e-15 -4.56064e-29 -1.28626e-30 32.1057 1.04587e-14 1.3718e-14 0.264394 -9.13015e-17 -1.22021e-16)
(9.36904e-15 3.42797e-29 1.24978e-30 32.1057 -7.59111e-15 1.22577e-16 0.264394 -8.40799e-16 -1.17393e-16)
(0 -1.68942e-29 -8.79905e-31 30.2758 1.00686e-14 1.21021e-14 0.253241 -8.49321e-17 -1.091e-16)
(5.56817e-15 2.25256e-29 8.79905e-31 30.2758 -7.07021e-15 1.16415e-16 0.253241 -8.58164e-16 -1.15154e-16)
(1.41103e-15 7.32982e-30 6.23059e-31 28.6118 1.03558e-14 1.0698e-14 0.24306 -8.7258e-17 -9.77625e-17)
(0 0 -5.20376e-31 28.6118 -7.16059e-15 4.99555e-17 0.24306 -8.7209e-16 -1.13277e-16)
(-2.85837e-15 7.53685e-30 1.40774e-31 27.093 1.14159e-14 9.47185e-15 0.233734 -9.24376e-17 -8.77611e-17)
(-1.14335e-14 0 0 27.093 -7.35173e-15 1.70064e-17 0.233734 -8.92441e-16 -1.11768e-16)
(-4.48242e-15 1.99414e-29 5.7561e-31 25.7023 1.18952e-14 8.40096e-15 0.225165 -1.08609e-16 -7.88876e-17)
(-5.78638e-15 -5.39271e-30 -1.68522e-31 25.7023 -7.05445e-15 1.78451e-17 0.225165 -9.14628e-16 -1.10529e-16)
(0 2.65771e-29 8.30534e-31 24.4247 9.8449e-15 7.45767e-15 0.217268 -1.03766e-16 -7.10703e-17)
(-5.85326e-15 -2.65771e-29 -8.30534e-31 24.4247 -5.92306e-15 5.06689e-17 0.217268 -9.31006e-16 -1.09519e-16)
(2.94943e-15 -2.61962e-29 -9.82356e-31 23.2477 8.44093e-15 6.61379e-15 0.20997 -7.43768e-17 -6.39852e-17)
(2.96819e-15 2.61962e-29 9.82356e-31 23.2477 -4.90293e-15 7.94016e-17 0.20997 -9.42428e-16 -1.08575e-16)
(-1.49491e-15 3.76011e-30 6.92539e-32 22.1603 8.99436e-15 5.86648e-15 0.203208 -8.0813e-17 -5.7529e-17)
(0 1.03283e-29 1.61379e-31 22.1603 -5.16784e-15 8.08623e-17 0.203208 -9.58593e-16 -1.07759e-16)
(-1.50988e-15 1.90272e-29 7.05334e-31 21.1532 9.29711e-15 5.20268e-15 0.196929 -8.69505e-17 -5.18229e-17)
(0 -1.52704e-29 -6.74521e-31 21.1532 -5.56676e-15 5.12982e-17 0.196929 -9.74802e-16 -1.07106e-16)
(-4.34877e-15 1.88054e-29 3.82509e-31 20.2181 9.35781e-15 4.60686e-15 0.191083 -8.89495e-17 -4.6565e-17)
(-6.09743e-15 -1.00343e-29 -1.59493e-30 20.2181 -5.39709e-15 4.00069e-19 0.191083 -9.91031e-16 -1.06753e-16)
(2.93034e-15 -1.85867e-29 -2.23376e-31 19.3479 8.91365e-15 4.07191e-15 0.185629 -9.0671e-17 -4.1822e-17)
(-1.39197e-15 1.48358e-29 1.54539e-31 19.3479 -5.1236e-15 2.47886e-17 0.185629 -1.00341e-15 -1.06627e-16)
(1.55196e-15 -2.32473e-29 -5.25762e-31 18.5363 8.01754e-15 3.58649e-15 0.180531 -8.28433e-17 -3.74365e-17)
(0 1.94975e-29 4.56973e-31 18.5363 -5.10932e-15 4.64963e-17 0.180531 -1.0189e-15 -1.06491e-16)
(-1.56515e-15 2.29667e-29 2.18925e-31 17.7779 7.82088e-15 3.14633e-15 0.175756 -7.54951e-17 -3.33876e-17)
(-2.7047e-15 -9.60904e-30 -1.50141e-31 17.7779 -5.13347e-15 4.28376e-17 0.175756 -1.03994e-15 -1.06476e-16)
(0 1.4207e-29 4.43968e-31 17.0679 8.05947e-15 2.7457e-15 0.171276 -8.12999e-17 -2.96469e-17)
(0 -1.89426e-29 -5.91957e-31 17.0679 -4.53092e-15 5.27604e-17 0.171276 -1.05355e-15 -1.06615e-16)
(-1.59044e-15 1.30783e-29 6.89027e-32 16.4019 8.18536e-15 2.38048e-15 0.167065 -8.25934e-17 -2.61598e-17)
(5.04789e-15 0 1.45868e-31 16.4019 -3.3714e-15 6.29332e-17 0.167065 -1.06389e-15 -1.06892e-16)
(0 -2.30044e-29 -5.75111e-31 15.7761 8.67448e-15 2.04453e-15 0.163101 -8.62976e-17 -2.29262e-17)
(6.41032e-15 2.30044e-29 5.75111e-31 15.7761 -4.28305e-15 7.04967e-17 0.163101 -1.07677e-15 -1.0738e-16)
(1.61442e-15 1.44035e-29 3.5597e-31 15.1872 9.22724e-15 1.72853e-15 0.159363 -9.53244e-17 -1.98435e-17)
(-6.45767e-15 -2.26747e-29 -7.26868e-31 15.1872 -6.34991e-15 5.20327e-17 0.159363 -1.096e-15 -1.07967e-16)
(1.62596e-15 -1.71432e-29 -4.88493e-31 14.6322 9.38794e-15 1.43567e-15 0.155834 -1.00648e-16 -1.6839e-17)
(0 1.34098e-29 4.19057e-31 14.6322 -6.51508e-15 3.57992e-17 0.155834 -1.1121e-15 -1.08781e-16)
(-1.63724e-15 -6.75467e-31 6.97255e-32 14.1082 8.86058e-15 1.16963e-15 0.152497 -1.01604e-16 -1.40698e-17)
(0 4.40588e-30 1.37684e-31 14.1082 -6.03855e-15 6.94033e-17 0.152497 -1.13458e-15 -1.09744e-16)
(-7.96479e-16 9.29875e-30 6.56549e-32 13.613 7.95869e-15 9.19196e-16 0.149337 -9.19868e-17 -1.14753e-17)
(6.59305e-15 -8.68546e-30 -1.3571e-31 13.613 -6.00788e-15 1.07466e-16 0.149337 -1.14762e-15 -1.10732e-16)
(2.4097e-15 -8.56098e-30 -2.67531e-31 13.1442 7.40502e-15 6.82979e-16 0.146342 -8.44362e-17 -8.88846e-18)
(6.63616e-15 8.56098e-30 2.67531e-31 13.1442 -6.15983e-15 1.26914e-16 0.146342 -1.15974e-15 -1.1177e-16)
(-1.66959e-15 3.72813e-30 7.09113e-32 12.7 7.56799e-15 4.71306e-16 0.143499 -8.21352e-17 -6.45871e-18)
(0 4.21914e-30 1.31848e-31 12.7 -5.84293e-15 4.55887e-17 0.143499 -1.17722e-15 -1.12907e-16)
(-1.67992e-15 7.8838e-30 7.13885e-32 12.2785 7.43874e-15 2.88927e-16 0.140798 -9.0656e-17 -4.28255e-18)
(0 0 1.29958e-31 12.2785 -5.89499e-15 3.28162e-17 0.140798 -1.18642e-15 -1.1446e-16)
(2.30757e-15 -8.19813e-30 -3.84287e-31 11.8781 7.36255e-15 1.22874e-16 0.138228 -8.15268e-17 -2.39411e-18)
(0 8.19813e-30 3.84287e-31 11.8781 -5.56139e-15 5.15581e-17 0.138228 -1.19585e-15 -1.15894e-16)
(-3.97447e-15 3.72043e-30 -1.80186e-31 11.4973 8.76727e-15 -2.33781e-17 0.135781 -9.15086e-17 -1.04685e-18)
(0 4.04031e-30 3.78779e-31 11.4973 -5.64379e-15 1.15407e-19 0.135781 -1.20949e-15 -1.17156e-16)
(0 2.78768e-29 8.71151e-31 11.1349 9.73758e-15 -1.51287e-16 0.133449 -1.17638e-16 -2.6227e-18)
(-6.83889e-15 -2.38944e-29 -8.71151e-31 11.1349 -5.82636e-15 3.7321e-17 0.133449 -1.23422e-15 -1.18679e-16)
(-1.71929e-15 -1.5917e-29 -5.40832e-31 10.7895 9.02409e-15 -2.75714e-16 0.131224 -1.17822e-16 -4.15217e-18)
(6.87717e-15 2.3552e-29 7.35999e-31 10.7895 -4.63951e-15 6.60709e-17 0.131224 -1.25844e-15 -1.19951e-16)
(0 2.32144e-29 6.04542e-31 10.46 7.99915e-15 -3.95806e-16 0.129099 -1.03454e-16 -5.71021e-18)
(0 -2.32144e-29 -6.04542e-31 10.46 -5.18615e-15 7.78969e-17 0.129099 -1.2756e-15 -1.21301e-16)
(-1.73793e-15 1.13347e-29 4.30335e-31 10.1455 8.25232e-15 -5.07928e-16 0.127068 -9.55787e-17 -7.12555e-18)
(6.95173e-15 -7.62723e-30 -3.57526e-31 10.1455 -5.82938e-15 1.17078e-16 0.127068 -1.2866e-15 -1.22463e-16)
(3.49404e-15 -2.2439e-29 -3.80973e-31 9.84497 8.50658e-15 -6.13131e-16 0.125125 -1.12924e-16 -8.59217e-18)
(6.98808e-15 1.50358e-29 2.34935e-31 9.84497 -5.25731e-15 3.46878e-17 0.125125 -1.30237e-15 -1.23351e-16)
(0 -7.41016e-30 -2.31567e-31 9.55753 7.02381e-15 -7.18801e-16 0.123265 -1.0494e-16 -1.01007e-17)
(0 7.41016e-30 2.31567e-31 9.55753 -4.2129e-15 2.17214e-17 0.123265 -1.32344e-15 -1.24431e-16)
(2.91119e-16 5.0569e-32 -4.05388e-32 9.28241 6.73306e-15 -8.20785e-16 0.121483 -7.74135e-17 -1.15526e-17)
(-2.05588e-15 7.30395e-30 -3.48361e-32 9.28241 -3.77739e-15 -5.28475e-30 0.121483 -1.33795e-15 -1.2551e-16)
(-5.57327e-15 2.53903e-29 3.7292e-31 9.01888 8.36541e-15 -9.06036e-16 0.119775 -1.00291e-16 -1.26937e-17)
(9.12012e-15 -2.51974e-29 -4.49954e-31 9.01888 -4.69936e-15 -4.59895e-18 0.119775 -1.36185e-15 -1.26886e-16)
(-1.78197e-15 3.68937e-30 7.43492e-32 8.76625 8.55799e-15 -9.84497e-16 0.118136 -1.23667e-16 -1.40359e-17)
(0 3.54804e-30 1.10876e-31 8.76625 -4.52474e-15 1.2436e-17 0.118136 -1.38569e-15 -1.2807e-16)
(-1.79038e-15 1.91772e-31 -3.45192e-32 8.5239 8.11332e-15 -1.06879e-15 0.116562 -1.08494e-16 -1.54035e-17)
(7.16152e-15 1.04916e-29 2.18574e-31 8.5239 -3.24795e-15 1.46464e-17 0.116562 -1.40179e-15 -1.29266e-16)
(-1.79868e-15 1.0579e-29 2.90709e-31 8.29124 8.4539e-15 -1.14168e-15 0.11505 -1.14956e-16 -1.6498e-17)
(0 -3.44706e-30 -1.07721e-31 8.29124 -4.35911e-15 1.41268e-17 0.11505 -1.41014e-15 -1.30499e-16)
(-3.61373e-15 1.41557e-29 5.76291e-31 8.06775 8.32243e-15 -1.20146e-15 0.113596 -1.21255e-16 -1.75616e-17)
(-7.22746e-15 -6.79532e-30 -4.24707e-31 8.06775 -3.8917e-15 2.04533e-17 0.113596 -1.43408e-15 -1.31796e-16)
(-3.62988e-15 -9.38999e-30 -2.65907e-31 7.85291 8.09108e-15 -1.25623e-15 0.112198 -1.14571e-16 -1.85675e-17)
(1.26342e-14 1.33958e-29 -3.69038e-32 7.85291 -2.11541e-15 -2.56765e-30 0.112198 -1.44574e-15 -1.3296e-16)
(-5.46874e-15 3.41282e-29 1.05601e-30 7.64627 8.16039e-15 -1.30692e-15 0.110852 -1.18107e-16 -1.95654e-17)
(-7.29165e-15 -2.31067e-29 -8.25241e-31 7.64627 -3.73339e-15 -1.28448e-18 0.110852 -1.45767e-15 -1.34418e-16)
(-3.66243e-15 -1.9105e-29 -4.30859e-31 7.44739 8.16532e-15 -1.35311e-15 0.109555 -1.19964e-16 -2.04884e-17)
(7.32314e-15 2.60292e-29 -3.76747e-32 7.44739 -4.19363e-15 -2.54589e-30 0.109555 -1.47966e-15 -1.35737e-16)
(1.83856e-15 -6.87401e-30 -3.7879e-31 7.25587 7.98064e-15 -1.40045e-15 0.108306 -1.21713e-16 -2.15705e-17)
(0 3.20702e-30 3.00658e-31 7.25587 -4.11709e-15 -1.671e-17 0.108306 -1.49119e-15 -1.37113e-16)
(0 -2.52884e-29 -7.90263e-31 7.07133 7.80917e-15 -1.44883e-15 0.107102 -1.17892e-16 -2.2573e-17)
(7.38497e-15 2.52884e-29 8.69844e-31 7.07133 -4.10293e-15 -1.52854e-17 0.107102 -1.50758e-15 -1.38522e-16)
(1.75401e-15 -9.34724e-30 -9.73671e-32 6.89342 7.90605e-15 -1.49437e-15 0.10594 -1.20017e-16 -2.36202e-17)
(7.41534e-15 9.34724e-30 9.73671e-32 6.89342 -3.58736e-15 -7.82141e-18 0.10594 -1.5246e-15 -1.39984e-16)
(-1.72887e-15 1.22844e-29 4.79858e-31 6.72181 8.23846e-15 -1.53555e-15 0.104819 -1.24361e-16 -2.45348e-17)
(3.98762e-15 -3.07109e-30 -2.87915e-31 6.72181 -3.80854e-15 1.73087e-17 0.104819 -1.53946e-15 -1.4119e-16)
(0 2.42166e-29 7.56769e-31 6.5562 8.49312e-15 -1.57457e-15 0.103737 -1.34032e-16 -2.55624e-17)
(0 -2.42166e-29 -7.56769e-31 6.5562 -4.81991e-15 2.08336e-17 0.103737 -1.55493e-15 -1.4233e-16)
(-3.75222e-15 7.29638e-30 3.49622e-31 6.39629 8.22184e-15 -1.61293e-15 0.102691 -1.36164e-16 -2.65006e-17)
(0 0 -1.86481e-31 6.39629 -4.91335e-15 1.61648e-17 0.102691 -1.58362e-15 -1.43563e-16)
(0 -1.76455e-29 -7.35231e-31 6.24181 8.13952e-15 -1.65112e-15 0.101681 -1.29139e-16 -2.75707e-17)
(7.5335e-15 1.76455e-29 7.35231e-31 6.24181 -3.27561e-15 1.69062e-17 0.101681 -1.60617e-15 -1.44822e-16)
(0 5.79755e-30 3.62347e-31 6.09252 7.92916e-15 -1.68792e-15 0.100704 -1.37438e-16 -2.85084e-17)
(5.9304e-15 0 -4.05491e-32 6.09252 -3.34783e-15 2.44131e-30 0.100704 -1.61847e-15 -1.46094e-16)
(-1.89768e-15 3.63722e-30 2.62571e-31 5.94817 7.60022e-15 -1.72413e-15 0.0997591 -1.25883e-16 -2.96074e-17)
(0 5.71445e-30 1.78577e-31 5.94817 -4.46522e-15 3.09108e-18 0.0997591 -1.64018e-15 -1.47523e-16)
(1.90473e-15 1.99985e-30 4.43155e-31 5.80854 7.05507e-15 -1.76019e-15 0.0988448 -1.30297e-16 -3.05855e-17)
(0 0 -3.52034e-31 5.80854 -3.7589e-15 3.24083e-17 0.0988448 -1.67035e-15 -1.48616e-16)
(3.1254e-15 -1.11036e-29 -3.46989e-31 5.67342 5.90852e-15 -1.80541e-15 0.0979598 -1.10795e-16 -3.20548e-17)
(-3.1254e-15 1.11036e-29 5.20483e-31 5.67342 -3.31124e-15 3.4723e-17 0.0979598 -1.68442e-15 -1.49589e-16)
(0 -5.47225e-30 -1.71008e-31 5.5426 4.34343e-15 -1.85144e-15 0.0971029 -9.40512e-17 -3.31135e-17)
(0 5.47225e-30 3.42016e-31 5.5426 -3.81315e-15 7.81876e-17 0.0971029 -1.69885e-15 -1.50793e-16)
(-8.14517e-16 1.87452e-30 -3.30203e-31 5.4159 2.92542e-15 -1.90248e-15 0.0962727 -5.85573e-17 -3.48295e-17)
(0 5.39382e-30 5.05671e-31 5.4159 -3.50779e-15 9.76184e-17 0.0962727 -1.71268e-15 -1.513e-16)
(-1.93228e-15 3.63473e-30 7.53364e-31 5.29315 4.36208e-15 -1.96581e-15 0.0954682 -4.58063e-17 -3.63941e-17)
(0 0 -6.64564e-31 5.29315 -3.35708e-15 1.0363e-16 0.0954682 -1.72504e-15 -1.52453e-16)
(1.93901e-15 1.61726e-30 -8.99365e-32 5.17417 5.42948e-15 -2.02597e-15 0.0946884 -1.12695e-16 -3.80768e-17)
(-7.75603e-15 -5.24031e-30 0 5.17417 -3.75436e-15 1.17973e-16 0.0946884 -1.75019e-15 -1.53401e-16)
(2.90775e-15 -1.03304e-29 -3.22825e-31 5.05881 4.57213e-15 -2.0912e-15 0.0939322 -8.66627e-17 -3.99102e-17)
(-1.06905e-14 1.03304e-29 0 5.05881 -2.69134e-15 -6.72015e-47 0.0939322 -1.78026e-15 -1.55143e-16)
(-1.9523e-15 1.88973e-29 5.69905e-31 4.94692 5.3571e-15 -2.13444e-15 0.0931986 -8.37957e-17 -4.08397e-17)
(1.56184e-14 -1.01823e-29 2.208e-30 4.94692 -1.52247e-15 -2.4715e-17 0.0931986 -1.78667e-15 -1.57605e-16)
(1.95887e-15 1.14398e-29 6.90029e-31 4.83836 5.86523e-15 -2.15902e-15 0.0924869 -1.19112e-16 -4.20295e-17)
(7.83548e-15 -2.00728e-29 -9.40913e-31 4.83836 -3.48312e-15 -9.1469e-17 0.0924869 -1.78926e-15 -1.60349e-16)
(0 0 0 4.73298 5.77896e-15 -2.17982e-15 0.091796 -1.05894e-16 -4.2852e-17)
(0 4.94628e-30 3.09143e-31 4.73298 -4.04768e-15 -9.63461e-17 0.091796 -1.82307e-15 -1.62011e-16)
(-1.97185e-15 -1.5895e-29 -6.64491e-31 4.63068 5.50422e-15 -2.18396e-15 0.0911252 -1.19217e-16 -4.34252e-17)
(7.88738e-15 1.95016e-29 7.61779e-31 4.63068 -3.6286e-15 -1.17753e-16 0.0911252 -1.83059e-15 -1.63459e-16)
(-1.97826e-15 8.41301e-30 3.99183e-31 4.53131 4.81067e-15 -2.19583e-15 0.0904738 -9.80637e-17 -4.45864e-17)
(-1.06183e-14 0 -1.50172e-31 4.53131 -4.17415e-15 -9.29167e-17 0.0904738 -1.84648e-15 -1.64165e-16)
(4.65111e-15 -1.30805e-29 -3.96541e-31 4.43478 4.83567e-15 -2.21757e-15 0.0898409 -9.4712e-17 -4.55878e-17)
(5.27201e-15 9.47327e-30 2.9604e-31 4.43478 -2.43948e-15 -1.27998e-16 0.0898409 -1.86623e-15 -1.64071e-16)
(-1.99094e-15 2.69482e-29 9.77575e-31 4.34096 4.48568e-15 -2.22685e-15 0.089226 -1.0196e-16 -4.62781e-17)
(7.96377e-15 -2.33437e-29 -8.7539e-31 4.34096 -2.17639e-15 -1.22522e-16 0.089226 -1.86383e-15 -1.64428e-16)
(-1.99722e-15 3.60729e-30 -4.00708e-32 4.24977 5.09965e-15 -2.24605e-15 0.0886283 -8.29439e-17 -4.77326e-17)
(0 0 1.43807e-31 4.24977 -3.81508e-15 -8.13909e-17 0.0886283 -1.88161e-15 -1.63633e-16)
(-2.00345e-15 8.13483e-30 1.05597e-31 4.16109 6.76399e-15 -2.25827e-15 0.0880471 -1.30829e-16 -4.81566e-17)
(0 0 2.83492e-31 4.16109 -2.97531e-15 -7.2568e-17 0.0880471 -1.89831e-15 -1.62272e-16)
(-2.00964e-15 -5.35189e-30 -4.51446e-31 4.07484 7.07511e-15 -2.2458e-15 0.087482 -1.56555e-16 -4.85896e-17)
(8.03855e-15 8.94173e-30 6.98573e-31 4.07484 -1.26885e-15 -5.5441e-17 0.087482 -1.90274e-15 -1.60374e-16)
(2.01578e-15 -1.23997e-29 -5.22284e-31 3.99093 6.32487e-15 -2.2479e-15 0.0869323 -1.48161e-16 -4.96599e-17)
(0 8.81357e-30 4.13136e-31 3.99093 -1.41483e-15 -2.4418e-17 0.0869323 -1.91339e-15 -1.57946e-16)
(0 -8.68725e-30 -4.07215e-31 3.90926 5.64296e-15 -2.27291e-15 0.0863975 -1.28115e-16 -5.11297e-17)
(0 4.34363e-30 -2.14175e-32 3.90926 -2.59033e-15 -1.93215e-30 0.0863975 -1.92351e-15 -1.54329e-16)
(-2.02796e-15 -6.94875e-31 -1.54575e-31 3.82977 5.43039e-15 -2.28566e-15 0.085877 -1.22046e-16 -5.16924e-17)
(0 8.56274e-30 4.01379e-31 3.82977 -2.94688e-15 -5.22501e-17 0.085877 -1.95278e-15 -1.50753e-16)
(0 -2.532e-29 -1.5825e-30 3.75237 5.02755e-15 -2.29559e-15 0.0853704 -1.22236e-16 -5.3084e-17)
(1.62719e-14 2.532e-29 1.71438e-30 3.75237 -1.49564e-15 -6.45761e-17 0.0853704 -1.98835e-15 -1.47801e-16)
(-2.3416e-15 4.15952e-30 1.29985e-31 3.677 5.17455e-15 -2.317e-15 0.0848771 -1.07102e-16 -5.42051e-17)
(8.15991e-15 4.15952e-30 1.29985e-31 3.677 -1.64558e-15 -2.83049e-17 0.0848771 -1.99766e-15 -1.44395e-16)
(-4.35398e-15 2.81746e-29 1.40005e-30 3.60357 5.54582e-15 -2.32687e-15 0.0843968 -1.32673e-16 -5.51059e-17)
(-8.18374e-15 -2.04995e-29 -1.1531e-30 3.60357 -2.57122e-15 3.58255e-17 0.0843968 -2.02265e-15 -1.40446e-16)
(2.23108e-16 1.16548e-29 7.52321e-31 3.53202 5.05827e-15 -2.33463e-15 0.083929 -1.27807e-16 -5.61656e-17)
(-1.04824e-14 -4.04115e-30 -1.26949e-31 3.53202 -1.88115e-15 1.57618e-30 0.083929 -2.03817e-15 -1.35346e-16)
(0 3.98323e-30 2.48952e-31 3.4623 5.33822e-15 -2.35256e-15 0.0834732 -1.13154e-16 -5.75931e-17)
(0 0 0 3.4623 -1.02277e-15 -2.0709e-17 0.0834732 -2.0259e-15 -1.31794e-16)
(0 7.85227e-30 7.3615e-31 3.39433 7.53529e-15 -2.3651e-15 0.0830291 -1.45185e-16 -5.84307e-17)
(6.04417e-15 -3.92614e-30 -6.23398e-31 3.39433 -1.84232e-15 1.43443e-30 0.0830291 -2.01644e-15 -1.2689e-16)
(-1.09123e-16 3.12874e-29 1.32404e-30 3.32806 8.82263e-15 -2.3661e-15 0.0825963 -2.25028e-16 -5.93304e-17)
(0 -2.70891e-29 -1.20933e-30 3.32806 -3.87736e-15 -1.22588e-17 0.0825963 -2.04086e-15 -1.22594e-16)
(0 -3.43296e-29 -1.6688e-30 3.26343 7.18922e-15 -2.3827e-15 0.0821744 -2.13971e-16 -6.09865e-17)
(1.66017e-14 3.43296e-29 1.6688e-30 3.26343 -1.67841e-15 3.28573e-17 0.0821744 -2.078e-15 -1.1831e-16)
(2.11654e-15 -7.51946e-30 -2.34983e-31 3.20039 5.56669e-15 -2.40348e-15 0.0817631 -1.48548e-16 -6.21407e-17)
(1.45312e-14 7.51946e-30 -1.57143e-32 3.20039 -1.50679e-15 -1.22643e-30 0.0817631 -2.06469e-15 -1.13233e-16)
(-4.17339e-15 3.36703e-30 7.30022e-31 3.13888 5.60163e-15 -2.41966e-15 0.081362 -1.3652e-16 -6.36202e-17)
(0 3.70584e-30 -4.6323e-31 3.13888 -3.80517e-15 2.0535e-17 0.081362 -2.08194e-15 -1.09506e-16)
(-2.0924e-15 7.18245e-30 1.35573e-31 3.07887 6.60387e-15 -2.43394e-15 0.0809709 -1.54728e-16 -6.47193e-17)
(1.67392e-14 0 2.28296e-31 3.07887 -2.81252e-15 2.78392e-17 0.0809709 -2.10224e-15 -1.05322e-16)
(2.09807e-15 -1.79198e-29 -8.12788e-31 3.02029 6.98197e-15 -2.44971e-15 0.0805893 -1.93747e-16 -6.63337e-17)
(0 1.44015e-29 6.7507e-31 3.02029 -4.26905e-15 4.07291e-17 0.0805893 -2.10723e-15 -1.01524e-16)
(-2.10371e-15 3.51433e-30 3.61679e-31 2.96311 6.23898e-15 -2.46974e-15 0.080217 -1.79634e-16 -6.771e-17)
(0 7.09755e-30 0 2.96311 -4.64808e-15 3.49342e-18 0.080217 -2.15142e-15 -9.78263e-17)
(-2.10933e-15 1.05083e-29 7.97963e-31 2.90728 5.68451e-15 -2.49205e-15 0.0798538 -1.58808e-16 -6.95138e-17)
(8.43731e-15 -6.99582e-30 -6.55858e-31 2.90728 -2.2837e-15 9.37212e-18 0.0798538 -2.18311e-15 -9.44904e-17)
(-2.11492e-15 1.04031e-29 5.75472e-31 2.85276 5.97434e-15 -2.51736e-15 0.0794993 -1.54145e-16 -7.11177e-17)
(6.51874e-15 -3.44778e-30 -2.15486e-31 2.85276 -2.42398e-15 1.65475e-17 0.0794993 -2.18871e-15 -9.07301e-17)
(-4.24096e-15 6.99788e-30 2.93981e-31 2.79952 6.53591e-15 -2.52666e-15 0.0791533 -1.79767e-16 -7.20809e-17)
(0 0 -1.20871e-32 2.79952 -3.622e-15 0 0.0791533 -2.21424e-15 -8.70969e-17)
(-2.12602e-15 1.35411e-29 7.77497e-31 2.7475 6.36793e-15 -2.53069e-15 0.0788155 -1.90717e-16 -7.34342e-17)
(-1.88569e-15 -3.34965e-30 -4.18707e-31 2.7475 -4.4839e-15 6.28682e-18 0.0788155 -2.2564e-15 -8.35903e-17)
(1.85866e-15 -6.60329e-30 -8.25411e-31 2.69667 6.18792e-15 -2.54916e-15 0.0784857 -1.75304e-16 -7.52776e-17)
(-1.03848e-14 6.60329e-30 -1.10217e-32 2.69667 -3.93326e-15 0 0.0784857 -2.29073e-15 -7.94194e-17)
(2.13703e-15 -9.99171e-30 -9.68032e-31 2.64701 6.60091e-15 -2.57543e-15 0.0781636 -1.85727e-16 -7.71515e-17)
(8.5481e-15 6.50865e-30 8.13581e-31 2.64701 -3.85631e-15 -2.60533e-17 0.0781636 -2.30327e-15 -7.55526e-17)
(2.14249e-15 -1.30968e-29 -7.58681e-31 2.59846 7.1136e-15 -2.59258e-15 0.077849 -2.05059e-16 -7.852e-17)
(-8.56997e-15 9.62304e-30 6.0144e-31 2.59846 -5.33486e-15 -4.67721e-17 0.077849 -2.34328e-15 -7.11429e-17)
(-2.14794e-15 1.29481e-29 9.50721e-31 2.55101 7.374e-15 -2.5794e-15 0.0775417 -2.22174e-16 -7.86029e-17)
(8.59175e-15 -9.48512e-30 -5.9282e-31 2.55101 -4.57774e-15 -5.69141e-17 0.0775417 -2.38665e-15 -6.65741e-17)
(0 9.34917e-30 7.79098e-31 2.50462 7.35898e-15 -2.56962e-15 0.0772416 -2.27043e-16 -8.02112e-17)
(0 -3.11639e-30 -5.84323e-31 2.50462 -3.00559e-15 -6.17934e-17 0.0772416 -2.41012e-15 -6.09541e-17)
(-3.45845e-15 9.21517e-30 9.59914e-31 2.45925 6.44833e-15 -2.57008e-15 0.0769483 -2.27748e-16 -8.09343e-17)
(8.63504e-15 0 -3.83966e-31 2.45925 -2.17476e-15 -1.10563e-16 0.0769483 -2.44237e-15 -5.57595e-17)
(-1.24475e-15 -6.47654e-30 -5.47178e-31 2.41489 5.31818e-15 -2.58156e-15 0.0766617 -1.76182e-16 -8.32966e-17)
(3.40889e-15 3.0277e-30 3.78462e-31 2.41489 -3.10815e-15 -9.72348e-17 0.0766617 -2.46137e-15 -5.06571e-17)
(0 8.95291e-30 5.59557e-31 2.3715 5.93844e-15 -2.59942e-15 0.0763816 -1.62007e-16 -8.44661e-17)
(-8.67799e-15 -5.96861e-30 -1.86519e-31 2.3715 -3.92639e-15 -8.38137e-17 0.0763816 -2.50049e-15 -4.35425e-17)
(-3.31187e-15 8.82459e-30 1.83846e-31 2.32905 5.08507e-15 -2.57738e-15 0.0761078 -2.21663e-16 -8.42834e-17)
(0 0 1.83846e-31 2.32905 -1.05893e-15 -2.66422e-17 0.0761078 -2.52856e-15 -3.55654e-17)
(0 1.15975e-29 3.62421e-31 2.28751 2.6006e-15 -2.57359e-15 0.0758401 -1.10473e-16 -8.66868e-17)
(-3.2644e-15 -5.79874e-30 -1.31218e-31 2.28751 7.85186e-16 0 0.0758401 -2.54025e-15 -2.46967e-17)
(2.18545e-15 1.36944e-29 1.06875e-30 2.24687 3.03126e-15 -2.60325e-15 0.0755784 -6.19235e-17 -8.87656e-17)
(0 -1.71469e-29 -1.25029e-30 2.24687 -8.21747e-16 -3.61525e-17 0.0755784 -2.52882e-15 -1.57301e-17)
(2.19073e-15 -3.43879e-30 3.43154e-31 2.2071 4.27248e-15 -2.61905e-15 0.0753225 -1.42943e-16 -9.03141e-17)
(-3.1715e-15 0 -4.20697e-31 2.2071 -1.17083e-15 -3.10132e-17 0.0753225 -2.52783e-15 -5.67406e-18)
(-4.39199e-15 1.31515e-30 3.03294e-32 2.16817 4.59782e-15 -2.60856e-15 0.0750723 -1.49219e-16 -9.06328e-17)
(8.78398e-15 5.55297e-30 3.4706e-31 2.16817 -9.40422e-17 -1.37291e-17 0.0750723 -2.5225e-15 4.40454e-18)
(-2.20124e-15 8.89803e-30 1.92275e-31 2.13006 5.73392e-15 -2.57553e-15 0.0748276 -1.69862e-16 -9.06187e-17)
(0 0 3.42086e-31 2.13006 -1.10914e-15 -2.1466e-17 0.0748276 -2.50385e-15 1.50969e-17)
(0 0 6.74366e-31 2.09275 6.55779e-15 -2.53603e-15 0.0745881 -2.34124e-16 -9.04468e-17)
(0 0 -6.74366e-31 2.09275 -8.64582e-16 5.80581e-17 0.0745881 -2.53105e-15 2.43172e-17)
(0 5.31761e-30 6.64701e-31 2.05621 5.49958e-15 -2.51719e-15 0.0743539 -2.34087e-16 -9.18987e-17)
(-2.99355e-15 0 -3.32351e-31 2.05621 8.61384e-16 9.49978e-17 0.0743539 -2.51287e-15 3.52626e-17)
(0 1.04828e-29 1.31035e-30 2.02044 5.08065e-15 -2.5206e-15 0.0741248 -1.63772e-16 -9.33487e-17)
(-2.95064e-15 -5.24139e-30 -6.55174e-31 2.02044 1.20201e-15 -2.60318e-17 0.0741248 -2.50969e-15 4.31449e-17)
(0 1.03325e-29 9.68676e-31 1.9854 5.01886e-15 -2.51519e-15 0.0739006 -2.09934e-16 -9.41843e-17)
(1.48679e-14 -5.16627e-30 -6.45784e-31 1.9854 1.13882e-15 -7.78482e-17 0.0739006 -2.51725e-15 5.10815e-17)
(-4.45439e-15 1.6985e-30 4.14691e-31 1.95108 3.91126e-15 -2.51856e-15 0.0736811 -1.63929e-16 -9.63402e-17)
(8.90878e-15 5.09222e-30 0 1.95108 -6.15765e-16 -1.576e-17 0.0736811 -2.4827e-15 5.91926e-17)
(5.05792e-15 -1.84553e-29 -8.37853e-31 1.91745 4.30635e-15 -2.53217e-15 0.0734663 -1.31694e-16 -9.79952e-17)
(0 1.00385e-29 9.41108e-31 1.91745 -3.20368e-15 1.0182e-16 0.0734663 -2.50073e-15 7.03134e-17)
(0 4.9473e-30 6.18413e-31 1.88451 5.79484e-15 -2.53569e-15 0.0732561 -1.99271e-16 -9.94384e-17)
(-8.94986e-15 0 0 1.88451 -3.06863e-15 3.53202e-17 0.0732561 -2.56261e-15 8.20627e-17)
(-2.24258e-15 -6.38291e-30 -6.97216e-31 1.85223 6.41372e-15 -2.50446e-15 0.0730503 -2.52285e-16 -9.8381e-17)
(8.9703e-15 1.46292e-29 1.2191e-30 1.85223 -1.54027e-15 -2.12882e-17 0.0730503 -2.60387e-15 9.02085e-17)
(0 9.61301e-30 9.01219e-31 1.8206 5.56092e-15 -2.47619e-15 0.0728488 -2.54349e-16 -1.00069e-16)
(0 -4.8065e-30 -3.00406e-31 1.8206 -1.53731e-15 9.60258e-17 0.0728488 -2.60698e-15 9.91755e-17)
(0 -9.47523e-30 -5.92202e-31 1.78961 4.96906e-15 -2.4768e-15 0.0726515 -1.90836e-16 -1.01313e-16)
(2.66704e-15 4.73761e-30 8.88302e-31 1.78961 -2.61794e-15 6.20328e-17 0.0726515 -2.61631e-15 1.11005e-16)
(-2.25782e-15 -1.32179e-30 2.26315e-31 1.75922 4.66848e-15 -2.45074e-15 0.0724583 -2.13329e-16 -1.00836e-16)
(0 4.66971e-30 0 1.75922 -3.23097e-15 -1.30974e-16 0.0724583 -2.68129e-15 1.18913e-16)
(-1.93462e-15 -2.55316e-29 -2.41868e-30 1.72944 4.15252e-15 -2.43449e-15 0.072269 -1.71453e-16 -1.02911e-16)
(1.8103e-14 3.22195e-29 2.87674e-30 1.72944 -2.30999e-15 -5.37953e-17 0.072269 -2.72504e-15 1.25246e-16)
(0 9.07362e-30 8.50652e-31 1.70024 5.65488e-15 -2.45129e-15 0.0720836 -1.76086e-16 -1.05227e-16)
(0 -4.53681e-30 -2.83551e-31 1.70024 -2.13501e-15 1.82817e-16 0.0720836 -2.73682e-15 1.3801e-16)
(0 1.34154e-29 8.3846e-31 1.67161 6.07121e-15 -2.45792e-15 0.0719021 -3.04957e-16 -1.065e-16)
(-2.51739e-15 -4.47179e-30 0 1.67161 -2.39471e-15 5.12959e-17 0.0719021 -2.79587e-15 1.51679e-16)
(-4.35256e-15 -1.65087e-29 -1.4882e-30 1.64353 5.00959e-15 -2.46657e-15 0.0717241 -2.17366e-16 -1.09071e-16)
(1.82237e-14 2.64462e-29 2.47933e-30 1.64353 -2.02924e-15 -1.20424e-16 0.0717241 -2.83427e-15 1.59685e-16)
(0 -2.60671e-29 -2.17226e-30 1.616 5.65984e-15 -2.4882e-15 0.0715498 -2.20441e-16 -1.11552e-16)
(1.82637e-14 2.60671e-29 2.17226e-30 1.616 -3.74838e-15 7.67589e-17 0.0715498 -2.83497e-15 1.70346e-16)
(-2.28795e-15 1.6138e-29 1.58369e-30 1.58901 6.05248e-15 -2.52023e-15 0.071379 -2.81804e-16 -1.15168e-16)