/*--------------------------------*- C++ -*----------------------------------*\
| =========                 |                                                 |
| \\      /  F ield         | OpenFOAM: The Open Source CFD Toolbox           |
|  \\    /   O peration     | Version:  2012                                  |
|   \\  /    A nd           | Website:  www.openfoam.com                      |
|    \\/     M anipulation  |                                                 |
\*---------------------------------------------------------------------------*/
FoamFile
{
    version     2.0;
    format      ascii;
    class       volScalarField;
    location    "14200";
    object      k;
}
// * * * * * * * * * * * * * * * * * * * * * * * * * * * * * * * * * * * * * //

dimensions      [0 2 -2 0 0 0 0];


internalField   nonuniform List<scalar> 
2560
(
0.0058706
0.00587061
0.138524
0.138524
0.967896
0.967896
3.09887
3.09887
5.99906
5.99906
8.84145
8.84145
11.415
11.415
13.7489
13.7489
15.8974
15.8974
17.9031
17.9031
19.7958
19.7958
21.5967
21.5967
23.3207
23.3207
24.9789
24.9789
26.5791
26.5791
28.1274
28.1274
29.6282
29.6282
31.0845
31.0845
32.4988
32.4988
33.8726
33.8726
35.2068
35.2068
36.5019
36.5019
37.758
37.7579
38.9746
38.9746
40.1511
40.1511
41.2867
41.2867
42.3801
42.3801
43.4299
43.4299
44.4346
44.4346
45.3925
45.3925
46.3018
46.3018
47.1605
47.1605
47.9667
47.9667
48.7182
48.7182
49.4132
49.4132
50.0495
50.0495
50.6253
50.6253
51.1387
51.1387
51.5881
51.5881
51.9719
51.9719
52.2888
52.2888
52.5379
52.5379
52.7182
52.7182
52.8295
52.8295
52.8717
52.8717
52.845
52.845
52.7504
52.7504
52.5891
52.5891
52.3628
52.3628
52.0737
52.0737
51.7248
51.7248
51.3193
51.3193
50.861
50.861
50.3545
50.3545
49.8046
49.8046
49.2167
49.2167
48.5969
48.5969
47.9514
47.9514
47.2869
47.2869
46.6104
46.6104
45.9293
45.9293
45.2508
45.2508
44.5825
44.5825
43.9317
43.9317
43.3056
43.3056
42.7112
42.7112
42.155
42.155
41.643
41.643
41.1804
41.1804
40.7719
40.7719
40.4211
40.4211
40.1307
40.1307
39.9025
39.9025
39.7372
39.7372
39.6344
39.6344
39.593
39.593
39.6103
39.6103
39.6831
39.6831
39.8075
39.8075
39.9785
39.9785
40.1907
40.1907
40.4385
40.4385
40.7155
40.7155
41.0155
41.0155
41.3319
41.3319
41.6585
41.6585
41.9888
41.9888
42.317
42.317
42.6373
42.6373
42.9444
42.9444
43.2334
43.2334
43.4999
43.4999
43.74
43.74
43.9503
43.9503
44.1278
44.1278
44.2704
44.2704
44.376
44.376
44.4433
44.4433
44.4713
44.4713
44.4595
44.4595
44.4079
44.4079
44.3165
44.3165
44.1859
44.1859
44.017
44.017
43.8107
43.8107
43.5683
43.5683
43.2912
43.2912
42.981
42.981
42.6392
42.6392
42.2678
42.2678
41.8683
41.8683
41.4427
41.4427
40.9927
40.9927
40.5202
40.5202
40.0271
40.0271
39.515
39.515
38.9857
38.9857
38.4409
38.4409
37.8823
37.8823
37.3113
37.3113
36.7295
36.7295
36.1383
36.1383
35.539
35.539
34.933
34.933
34.3214
34.3214
33.7054
33.7054
33.086
33.086
32.4643
32.4643
31.8411
31.8411
31.2174
31.2174
30.594
30.594
29.9716
29.9716
29.351
29.351
28.7328
28.7328
28.1176
28.1176
27.5059
27.5059
26.8984
26.8984
26.2956
26.2956
25.6977
25.6977
25.1054
25.1054
24.5189
24.5189
23.9387
23.9387
23.3649
23.3649
22.7981
22.7981
22.2383
22.2383
21.6859
21.6859
21.1412
21.1412
20.6042
20.6042
20.0753
20.0753
19.5546
19.5546
19.0423
19.0423
18.5386
18.5386
18.0435
18.0435
17.5572
17.5572
17.0799
17.0799
16.6117
16.6117
16.1527
16.1527
15.7028
15.7028
15.2624
15.2624
14.8313
14.8313
14.4097
14.4097
13.9975
13.9975
13.5948
13.5948
13.2015
13.2015
12.8176
12.8176
12.443
12.443
12.0777
12.0777
11.7215
11.7215
11.3743
11.3743
11.0359
11.0359
10.7063
10.7063
10.3851
10.3851
10.0724
10.0724
9.76796
9.76796
9.47162
9.47162
9.18329
9.18329
8.90284
8.90284
8.63017
8.63017
8.36516
8.36516
8.10771
8.10771
7.85772
7.85772
7.61507
7.61507
7.37966
7.37966
7.15138
7.15137
6.93008
6.93008
6.71566
6.71566
6.50798
6.50798
6.3069
6.3069
6.1123
6.1123
5.92404
5.92404
5.74201
5.742
5.56607
5.56607
5.39614
5.39614
5.23211
5.23211
5.07388
5.07388
4.92138
4.92138
4.77451
4.77451
4.63319
4.63319
4.49735
4.49735
4.36691
4.36691
4.24179
4.24179
4.12189
4.12189
4.00712
4.00712
3.89737
3.89737
3.79252
3.79252
3.69243
3.69243
3.59697
3.59696
3.50596
3.50596
3.41927
3.41927
3.33673
3.33673
3.25819
3.25819
3.18351
3.1835
3.11253
3.11253
3.0451
3.0451
2.98106
2.98106
2.92024
2.92024
2.86243
2.86243
2.80745
2.80745
2.75508
2.75508
2.70508
2.70508
2.65722
2.65722
2.61126
2.61126
2.56699
2.56699
2.52423
2.52423
2.48283
2.48283
2.44269
2.44269
2.40372
2.40372
2.36584
2.36584
2.32896
2.32896
2.29296
2.29295
2.25767
2.25767
2.22296
2.22296
2.18867
2.18867
2.1547
2.1547
2.12095
2.12095
2.08737
2.08737
2.05391
2.05391
2.02058
2.02058
1.98742
1.98742
1.95449
1.95449
1.92188
1.92188
1.8897
1.8897
1.85797
1.85798
1.82671
1.82671
1.79583
1.79583
1.7652
1.7652
1.73463
1.73464
1.70388
1.70389
1.67268
1.67268
1.64079
1.6408
1.60809
1.60809
1.57459
1.57459
1.54046
1.54047
1.50597
1.50598
1.47147
1.47148
1.43731
1.43732
1.40373
1.40374
1.37087
1.37089
1.33875
1.33877
1.30733
1.30735
1.27665
1.27666
1.24686
1.24686
1.21813
1.21813
1.19067
1.19066
1.16466
1.16465
1.14025
1.14024
1.11757
1.11756
1.09665
1.09664
1.07751
1.07751
1.06016
1.06016
1.04459
1.04459
1.03075
1.03075
1.01857
1.01857
1.00794
1.00794
0.998678
0.998677
0.990553
0.990552
0.983289
0.983288
0.976559
0.976557
0.969998
0.969996
0.963257
0.963255
0.956048
0.956045
0.948114
0.948111
0.939166
0.939162
0.928866
0.928862
0.916907
0.916902
0.903148
0.903143
0.887682
0.887677
0.870801
0.870795
0.852925
0.852919
0.834625
0.834619
0.816592
0.816587
0.799445
0.79944
0.783539
0.783535
0.768974
0.768971
0.755746
0.755743
0.743856
0.743853
0.733316
0.733314
0.724135
0.724132
0.71632
0.716319
0.709858
0.709857
0.704673
0.704673
0.700594
0.700594
0.697378
0.697379
0.694761
0.694763
0.692439
0.692442
0.689963
0.689967
0.686747
0.68675
0.682269
0.682271
0.676293
0.676293
0.668979
0.668977
0.660781
0.660777
0.652188
0.652183
0.643558
0.643553
0.63518
0.635175
0.627403
0.6274
0.620574
0.620573
0.61491
0.614911
0.61049
0.610492
0.607369
0.607372
0.6057
0.605703
0.00587061
0.0058706
0.138524
0.138524
0.967896
0.967896
3.09887
3.09887
5.99906
5.99906
8.84145
8.84145
11.415
11.415
13.7489
13.7489
15.8974
15.8974
17.9031
17.9031
19.7958
19.7958
21.5967
21.5967
23.3207
23.3207
24.9789
24.9789
26.5791
26.5791
28.1274
28.1274
29.6282
29.6282
31.0845
31.0845
32.4988
32.4988
33.8726
33.8726
35.2068
35.2068
36.5019
36.5019
37.758
37.758
38.9746
38.9746
40.1511
40.1511
41.2867
41.2867
42.3801
42.3801
43.4299
43.4299
44.4346
44.4346
45.3925
45.3926
46.3018
46.3018
47.1605
47.1605
47.9667
47.9667
48.7182
48.7182
49.4132
49.4132
50.0495
50.0495
50.6253
50.6253
51.1387
51.1387
51.5881
51.5881
51.9719
51.9719
52.2889
52.2889
52.5379
52.5379
52.7182
52.7182
52.8295
52.8295
52.8717
52.8717
52.845
52.8451
52.7504
52.7504
52.5891
52.5891
52.3628
52.3628
52.0737
52.0737
51.7248
51.7248
51.3193
51.3193
50.861
50.861
50.3545
50.3545
49.8046
49.8046
49.2167
49.2167
48.5969
48.5969
47.9514
47.9514
47.2869
47.2869
46.6104
46.6104
45.9293
45.9293
45.2508
45.2508
44.5825
44.5825
43.9317
43.9317
43.3056
43.3056
42.7112
42.7112
42.155
42.155
41.643
41.643
41.1804
41.1804
40.7719
40.7719
40.4211
40.4211
40.1307
40.1307
39.9025
39.9025
39.7372
39.7372
39.6344
39.6344
39.593
39.593
39.6103
39.6103
39.6831
39.6831
39.8075
39.8075
39.9785
39.9785
40.1907
40.1907
40.4385
40.4385
40.7155
40.7155
41.0155
41.0155
41.3319
41.3319
41.6584
41.6584
41.9888
41.9888
42.317
42.317
42.6373
42.6373
42.9444
42.9444
43.2334
43.2334
43.4999
43.4999
43.74
43.74
43.9503
43.9503
44.1278
44.1278
44.2704
44.2704
44.376
44.376
44.4433
44.4433
44.4713
44.4713
44.4595
44.4595
44.4079
44.4079
44.3165
44.3165
44.1859
44.1859
44.017
44.017
43.8107
43.8107
43.5683
43.5683
43.2912
43.2912
42.981
42.981
42.6392
42.6392
42.2678
42.2678
41.8683
41.8683
41.4427
41.4427
40.9927
40.9927
40.5202
40.5202
40.0271
40.0271
39.515
39.515
38.9857
38.9857
38.4409
38.4409
37.8823
37.8823
37.3113
37.3113
36.7295
36.7295
36.1383
36.1383
35.539
35.539
34.933
34.933
34.3214
34.3214
33.7054
33.7054
33.086
33.086
32.4642
32.4642
31.8411
31.8411
31.2174
31.2174
30.594
30.594
29.9716
29.9716
29.351
29.351
28.7328
28.7328
28.1176
28.1176
27.5059
27.5059
26.8984
26.8984
26.2956
26.2956
25.6977
25.6977
25.1054
25.1054
24.5189
24.5189
23.9387
23.9387
23.3649
23.3649
22.7981
22.7981
22.2383
22.2383
21.6859
21.6859
21.1412
21.1412
20.6042
20.6042
20.0753
20.0753
19.5546
19.5546
19.0423
19.0423
18.5386
18.5386
18.0435
18.0435
17.5572
17.5572
17.0799
17.0799
16.6117
16.6117
16.1526
16.1527
15.7028
15.7028
15.2624
15.2624
14.8313
14.8313
14.4097
14.4097
13.9975
13.9975
13.5948
13.5948
13.2015
13.2015
12.8176
12.8176
12.443
12.443
12.0777
12.0777
11.7215
11.7215
11.3743
11.3743
11.0359
11.0359
10.7063
10.7063
10.3851
10.3851
10.0724
10.0724
9.76796
9.76796
9.47162
9.47162
9.18329
9.18329
8.90284
8.90284
8.63017
8.63017
8.36516
8.36516
8.10771
8.10771
7.85772
7.85772
7.61507
7.61507
7.37966
7.37966
7.15137
7.15137
6.93008
6.93008
6.71566
6.71566
6.50798
6.50798
6.3069
6.3069
6.1123
6.1123
5.92404
5.92404
5.742
5.74201
5.56607
5.56607
5.39614
5.39614
5.23211
5.23211
5.07388
5.07388
4.92138
4.92138
4.77451
4.77451
4.63319
4.63319
4.49735
4.49735
4.36691
4.36691
4.24179
4.24179
4.12189
4.12189
4.00712
4.00712
3.89737
3.89737
3.79252
3.79252
3.69243
3.69243
3.59696
3.59697
3.50596
3.50596
3.41927
3.41927
3.33673
3.33673
3.25819
3.25819
3.18351
3.18351
3.11253
3.11253
3.0451
3.0451
2.98106
2.98106
2.92024
2.92024
2.86244
2.86244
2.80746
2.80746
2.75508
2.75508
2.70508
2.70508
2.65722
2.65722
2.61126
2.61126
2.56699
2.56699
2.52423
2.52423
2.48283
2.48283
2.44269
2.44269
2.40372
2.40372
2.36585
2.36585
2.32897
2.32897
2.29296
2.29296
2.25768
2.25768
2.22297
2.22297
2.18868
2.18868
2.15471
2.15471
2.12096
2.12096
2.08738
2.08738
2.05392
2.05392
2.02059
2.02059
1.98743
1.98743
1.95449
1.95449
1.92189
1.92189
1.88971
1.88971
1.85798
1.85798
1.82672
1.82672
1.79584
1.79584
1.76521
1.76521
1.73464
1.73464
1.70389
1.70389
1.67269
1.67269
1.6408
1.6408
1.6081
1.60809
1.5746
1.57459
1.54047
1.54046
1.50598
1.50598
1.47149
1.47148
1.43732
1.43731
1.40374
1.40373
1.37089
1.37087
1.33877
1.33875
1.30735
1.30733
1.27666
1.27665
1.24686
1.24686
1.21813
1.21813
1.19066
1.19067
1.16465
1.16466
1.14025
1.14025
1.11756
1.11757
1.09664
1.09665
1.07751
1.07751
1.06016
1.06017
1.04459
1.04459
1.03075
1.03075
1.01858
1.01858
1.00795
1.00795
0.998684
0.998685
0.990559
0.99056
0.983296
0.983297
0.976565
0.976567
0.970004
0.970006
0.963262
0.963265
0.956052
0.956055
0.948116
0.948119
0.939166
0.93917
0.928864
0.928868
0.916902
0.916907
0.903141
0.903146
0.887674
0.887679
0.87079
0.870796
0.852914
0.85292
0.834615
0.83462
0.816583
0.816588
0.799436
0.799441
0.783533
0.783537
0.768969
0.768973
0.755742
0.755746
0.743853
0.743856
0.733314
0.733317
0.724134
0.724136
0.716321
0.716322
0.70986
0.709861
0.704676
0.704677
0.700599
0.700598
0.697384
0.697382
0.694768
0.694766
0.692447
0.692443
0.689971
0.689967
0.686753
0.686749
0.682272
0.68227
0.676292
0.676292
0.668975
0.668977
0.660774
0.660779
0.65218
0.652185
0.643549
0.643554
0.635172
0.635176
0.627396
0.627399
0.62057
0.620571
0.614908
0.614907
0.61049
0.610488
0.607371
0.607368
0.605703
0.605699
0.605692
0.605695
0.607346
0.607349
0.610447
0.610449
0.614838
0.614838
0.620475
0.620474
0.627271
0.627268
0.635006
0.635002
0.643348
0.643343
0.65191
0.651905
0.660395
0.660391
0.668488
0.668486
0.675721
0.675721
0.681637
0.681639
0.686092
0.686095
0.689342
0.689346
0.69189
0.691893
0.694286
0.694288
0.696967
0.696968
0.700237
0.700238
0.704368
0.704368
0.709611
0.70961
0.716134
0.716133
0.72401
0.724008
0.733252
0.733249
0.743851
0.743848
0.755798
0.755795
0.769083
0.769079
0.783703
0.783699
0.799663
0.799658
0.816861
0.816856
0.83495
0.834945
0.853302
0.853297
0.871203
0.871197
0.888071
0.888066
0.903484
0.903479
0.917155
0.917151
0.929025
0.929021
0.939262
0.939258
0.948165
0.948162
0.956071
0.956068
0.963255
0.963253
0.96997
0.969968
0.976505
0.976504
0.983206
0.983205
0.990438
0.990438
0.998534
0.998534
1.00777
1.00777
1.01838
1.01838
1.03054
1.03054
1.04437
1.04436
1.05993
1.05993
1.07727
1.07727
1.0964
1.09639
1.11731
1.1173
1.13999
1.13998
1.16439
1.16438
1.1904
1.19039
1.21786
1.21786
1.24658
1.24658
1.27639
1.2764
1.30708
1.3071
1.33851
1.33852
1.37062
1.37064
1.40346
1.40347
1.43701
1.43702
1.47114
1.47115
1.50561
1.50562
1.54009
1.5401
1.57421
1.57422
1.60768
1.60769
1.64034
1.64035
1.6722
1.67221
1.7034
1.7034
1.73417
1.73417
1.76478
1.76478
1.79547
1.79547
1.82643
1.82643
1.85776
1.85776
1.88952
1.88952
1.92172
1.92172
1.95431
1.95431
1.98722
1.98721
2.02036
2.02036
2.05366
2.05366
2.0871
2.0871
2.12067
2.12067
2.15441
2.15441
2.18839
2.18839
2.22268
2.22268
2.2574
2.2574
2.29271
2.29271
2.32875
2.32875
2.36568
2.36567
2.40361
2.40361
2.44265
2.44265
2.48284
2.48284
2.52427
2.52427
2.56706
2.56706
2.61135
2.61135
2.65732
2.65732
2.7052
2.7052
2.75522
2.75521
2.8076
2.8076
2.86259
2.86259
2.92039
2.92039
2.98119
2.98119
3.0452
3.0452
3.11261
3.1126
3.18356
3.18356
3.25822
3.25821
3.33674
3.33674
3.41928
3.41928
3.50597
3.50597
3.59698
3.59698
3.69246
3.69246
3.79255
3.79255
3.89741
3.89741
4.00718
4.00718
4.12196
4.12196
4.24187
4.24187
4.36701
4.367
4.49745
4.49745
4.63329
4.63329
4.77461
4.77461
4.92149
4.92148
5.074
5.074
5.23222
5.23222
5.39626
5.39625
5.56619
5.56619
5.74213
5.74213
5.92418
5.92418
6.11245
6.11245
6.30705
6.30705
6.50812
6.50812
6.7158
6.71579
6.93021
6.93021
7.1515
7.1515
7.37978
7.37978
7.61519
7.61519
7.85784
7.85784
8.10784
8.10783
8.36529
8.36529
8.6303
8.6303
8.90298
8.90298
9.18344
9.18344
9.47179
9.47179
9.76812
9.76812
10.0726
10.0726
10.3853
10.3853
10.7064
10.7064
11.0361
11.0361
11.3745
11.3745
11.7217
11.7217
12.078
12.078
12.4433
12.4433
12.8179
12.8179
13.2018
13.2018
13.5951
13.5951
13.9978
13.9978
14.41
14.41
14.8316
14.8316
15.2627
15.2627
15.7032
15.7032
16.153
16.153
16.6121
16.6121
17.0803
17.0803
17.5576
17.5576
18.0439
18.0439
18.539
18.539
19.0428
19.0428
19.5551
19.5551
20.0758
20.0758
20.6048
20.6048
21.1417
21.1417
21.6865
21.6865
22.239
22.239
22.7988
22.7988
23.3657
23.3657
23.9395
23.9395
24.5198
24.5198
25.1064
25.1064
25.6988
25.6988
26.2967
26.2967
26.8997
26.8997
27.5072
27.5072
28.1189
28.1189
28.7341
28.7341
29.3524
29.3524
29.9731
29.9731
30.5955
30.5955
31.219
31.219
31.8427
31.8427
32.466
32.466
33.0878
33.0878
33.7072
33.7072
34.3232
34.3232
34.9348
34.9348
35.5408
35.5408
36.14
36.14
36.7312
36.7312
37.313
37.313
37.8839
37.8839
38.4424
38.4424
38.9871
38.9871
39.5161
39.5161
40.028
40.028
40.521
40.521
40.9933
40.9933
41.4433
41.4433
41.8689
41.8689
42.2684
42.2684
42.6399
42.6399
42.9817
42.9817
43.2919
43.2919
43.5691
43.5691
43.8115
43.8115
44.0177
44.0177
44.1866
44.1866
44.3172
44.3172
44.4086
44.4086
44.4603
44.4603
44.4722
44.4722
44.4444
44.4444
44.3773
44.3773
44.2718
44.2718
44.1294
44.1294
43.9517
43.9517
43.7411
43.7411
43.5005
43.5005
43.2332
43.2332
42.9434
42.9434
42.6357
42.6357
42.3151
42.3151
41.9867
41.9867
41.656
41.656
41.3292
41.3292
41.0123
41.0123
40.7118
40.7118
40.4343
40.4343
40.186
40.186
39.9731
39.9731
39.8016
39.8016
39.6768
39.6768
39.6035
39.6035
39.5857
39.5857
39.6268
39.6268
39.7291
39.7291
39.8939
39.8939
40.1216
40.1216
40.4115
40.4115
40.7618
40.7618
41.1699
41.1699
41.6321
41.6321
42.1438
42.1438
42.6996
42.6996
43.2937
43.2937
43.9196
43.9196
44.5702
44.5702
45.2383
45.2383
45.9164
45.9164
46.5972
46.5972
47.2736
47.2736
47.9382
47.9382
48.5838
48.5838
49.2039
49.2039
49.7921
49.7921
50.3425
50.3425
50.8497
50.8497
51.3087
51.3087
51.7148
51.7148
52.0641
52.0641
52.3537
52.3537
52.5808
52.5808
52.7429
52.7429
52.8382
52.8382
52.8655
52.8655
52.824
52.824
52.7134
52.7134
52.5336
52.5336
52.2852
52.2852
51.9688
51.9688
51.5854
51.5854
51.1364
51.1364
50.6233
50.6233
50.0478
50.0478
49.4117
49.4117
48.7169
48.7169
47.9656
47.9656
47.1595
47.1595
46.3009
46.3009
45.3917
45.3917
44.434
44.434
43.4295
43.4295
42.3799
42.3799
41.2867
41.2867
40.1513
40.1513
38.9748
38.9748
37.7583
37.7583
36.5022
36.5022
35.2071
35.2071
33.8729
33.8729
32.4991
32.4991
31.0848
31.0848
29.6284
29.6284
28.1277
28.1277
26.5794
26.5794
24.9791
24.9791
23.3209
23.3209
21.5969
21.5969
19.796
19.796
17.9032
17.9032
15.8975
15.8975
13.749
13.749
11.4151
11.4151
8.84151
8.84151
5.9991
5.9991
3.09888
3.09888
0.967902
0.967902
0.138525
0.138525
0.00587078
0.00587078
0.605695
0.605691
0.60735
0.607347
0.61045
0.610448
0.614839
0.614839
0.620476
0.620477
0.627269
0.627272
0.635004
0.635008
0.643344
0.643349
0.651906
0.651911
0.660392
0.660396
0.668486
0.668489
0.675721
0.675721
0.681639
0.681637
0.686095
0.686092
0.689345
0.689341
0.691892
0.691889
0.694286
0.694284
0.696967
0.696965
0.700236
0.700236
0.704366
0.704366
0.709609
0.70961
0.716132
0.716133
0.724008
0.72401
0.733249
0.733252
0.743848
0.743851
0.755795
0.755799
0.76908
0.769084
0.783701
0.783705
0.799661
0.799665
0.816859
0.816864
0.834948
0.834954
0.853301
0.853306
0.871201
0.871207
0.888069
0.888075
0.903482
0.903487
0.917153
0.917157
0.929022
0.929026
0.939259
0.939262
0.948161
0.948164
0.956067
0.95607
0.963251
0.963253
0.969965
0.969967
0.976501
0.976503
0.983202
0.983203
0.990435
0.990435
0.998531
0.998532
1.00777
1.00777
1.01838
1.01838
1.03054
1.03054
1.04436
1.04437
1.05993
1.05993
1.07727
1.07727
1.09639
1.0964
1.1173
1.11731
1.13998
1.13999
1.16438
1.16439
1.1904
1.19041
1.21786
1.21786
1.24659
1.24658
1.2764
1.27639
1.3071
1.30709
1.33853
1.33851
1.37064
1.37063
1.40348
1.40347
1.43702
1.43701
1.47115
1.47114
1.50563
1.50562
1.5401
1.5401
1.57422
1.57422
1.60769
1.60769
1.64035
1.64035
1.67221
1.67221
1.70341
1.7034
1.73417
1.73417
1.76478
1.76478
1.79547
1.79547
1.82643
1.82643
1.85776
1.85776
1.88952
1.88952
1.92172
1.92172
1.9543
1.9543
1.98721
1.98721
2.02035
2.02035
2.05366
2.05366
2.08709
2.0871
2.12066
2.12066
2.1544
2.1544
2.18838
2.18838
2.22267
2.22267
2.25739
2.25739
2.29269
2.2927
2.32874
2.32874
2.36566
2.36566
2.4036
2.4036
2.44263
2.44264
2.48283
2.48283
2.52426
2.52426
2.56705
2.56705
2.61133
2.61133
2.6573
2.6573
2.70518
2.70518
2.7552
2.7552
2.80759
2.80759
2.86258
2.86258
2.92037
2.92037
2.98118
2.98118
3.04519
3.04519
3.11259
3.11259
3.18354
3.18354
3.2582
3.2582
3.33673
3.33673
3.41926
3.41927
3.50596
3.50596
3.59697
3.59697
3.69244
3.69245
3.79254
3.79254
3.8974
3.8974
4.00717
4.00717
4.12195
4.12195
4.24186
4.24186
4.367
4.367
4.49744
4.49744
4.63328
4.63328
4.7746
4.7746
4.92148
4.92148
5.07399
5.07399
5.23221
5.23222
5.39625
5.39625
5.56618
5.56619
5.74212
5.74213
5.92417
5.92417
6.11244
6.11244
6.30704
6.30704
6.50811
6.50811
6.71579
6.71579
6.9302
6.93021
7.15149
7.15149
7.37978
7.37978
7.61519
7.61519
7.85783
7.85783
8.10783
8.10783
8.36528
8.36528
8.63029
8.63029
8.90297
8.90298
9.18344
9.18344
9.47178
9.47178
9.76812
9.76812
10.0726
10.0726
10.3853
10.3853
10.7064
10.7064
11.0361
11.0361
11.3745
11.3745
11.7217
11.7217
12.078
12.078
12.4433
12.4433
12.8179
12.8179
13.2018
13.2018
13.5951
13.5951
13.9978
13.9978
14.41
14.41
14.8316
14.8316
15.2627
15.2627
15.7032
15.7032
16.153
16.153
16.6121
16.6121
17.0803
17.0803
17.5576
17.5576
18.0439
18.0439
18.539
18.539
19.0428
19.0428
19.5551
19.5551
20.0758
20.0758
20.6048
20.6048
21.1417
21.1417
21.6865
21.6865
22.239
22.239
22.7988
22.7988
23.3657
23.3657
23.9395
23.9395
24.5198
24.5198
25.1064
25.1064
25.6988
25.6988
26.2967
26.2967
26.8997
26.8997
27.5072
27.5072
28.1189
28.1189
28.7341
28.7341
29.3524
29.3524
29.9731
29.9731
30.5955
30.5955
31.219
31.219
31.8427
31.8427
32.466
32.466
33.0877
33.0877
33.7071
33.7071
34.3232
34.3232
34.9348
34.9348
35.5408
35.5408
36.14
36.14
36.7312
36.7312
37.313
37.313
37.8839
37.8839
38.4424
38.4424
38.987
38.987
39.5161
39.5161
40.028
40.028
40.521
40.521
40.9933
40.9933
41.4433
41.4433
41.8689
41.8689
42.2683
42.2683
42.6399
42.6399
42.9816
42.9816
43.2919
43.2919
43.569
43.569
43.8115
43.8115
44.0177
44.0177
44.1865
44.1865
44.3171
44.3171
44.4086
44.4086
44.4603
44.4603
44.4722
44.4722
44.4444
44.4444
44.3773
44.3773
44.2718
44.2718
44.1293
44.1293
43.9517
43.9517
43.7411
43.7411
43.5005
43.5005
43.2332
43.2332
42.9434
42.9434
42.6357
42.6357
42.3151
42.3151
41.9867
41.9867
41.656
41.656
41.3291
41.3291
41.0123
41.0123
40.7118
40.7118
40.4343
40.4343
40.186
40.186
39.9731
39.9731
39.8016
39.8016
39.6768
39.6768
39.6035
39.6035
39.5857
39.5857
39.6268
39.6268
39.7291
39.7291
39.8939
39.8939
40.1216
40.1216
40.4115
40.4115
40.7618
40.7618
41.1699
41.1699
41.6321
41.6321
42.1438
42.1438
42.6996
42.6996
43.2938
43.2938
43.9196
43.9196
44.5702
44.5702
45.2383
45.2383
45.9164
45.9164
46.5972
46.5972
47.2736
47.2736
47.9382
47.9382
48.5839
48.5839
49.204
49.204
49.7921
49.7921
50.3425
50.3425
50.8497
50.8497
51.3088
51.3088
51.7149
51.7149
52.0641
52.0641
52.3537
52.3537
52.5808
52.5808
52.7429
52.7429
52.8382
52.8382
52.8655
52.8655
52.824
52.824
52.7134
52.7134
52.5336
52.5336
52.2852
52.2852
51.9688
51.9688
51.5854
51.5854
51.1364
51.1364
50.6233
50.6233
50.0478
50.0478
49.4117
49.4117
48.7169
48.7169
47.9656
47.9656
47.1595
47.1595
46.3009
46.3009
45.3917
45.3917
44.434
44.434
43.4295
43.4295
42.3799
42.3799
41.2867
41.2867
40.1513
40.1513
38.9748
38.9748
37.7582
37.7582
36.5022
36.5022
35.2071
35.2071
33.8729
33.8729
32.4991
32.4991
31.0848
31.0848
29.6284
29.6284
28.1277
28.1277
26.5794
26.5794
24.9791
24.9791
23.3209
23.3209
21.5969
21.5969
19.796
19.796
17.9032
17.9032
15.8975
15.8975
13.749
13.749
11.4151
11.4151
8.8415
8.8415
5.9991
5.9991
3.09888
3.09888
0.967901
0.967901
0.138525
0.138524
0.00587078
0.00587078
)
;

boundaryField
{
    walls
    {
        type            kqRWallFunction;
        value           nonuniform List<scalar> 8(0.0058706 0.00587061 0.00587061 0.0058706 0.00587078 0.00587078 0.00587078 0.00587078);
    }
    inlet
    {
        type            cyclic;
    }
    outlet
    {
        type            cyclic;
    }
    sides
    {
        type            empty;
    }
}


// ************************************************************************* //
