/*--------------------------------*- C++ -*----------------------------------*\
| =========                 |                                                 |
| \\      /  F ield         | OpenFOAM: The Open Source CFD Toolbox           |
|  \\    /   O peration     | Version:  2012                                  |
|   \\  /    A nd           | Website:  www.openfoam.com                      |
|    \\/     M anipulation  |                                                 |
\*---------------------------------------------------------------------------*/
FoamFile
{
    version     2.0;
    format      ascii;
    class       volScalarField;
    location    "14200";
    object      nut;
}
// * * * * * * * * * * * * * * * * * * * * * * * * * * * * * * * * * * * * * //

dimensions      [0 2 -1 0 0 0 0];


internalField   nonuniform List<scalar> 
2560
(
3.8517e-09
3.8517e-09
5.23265e-07
5.23265e-07
1.09337e-05
1.09337e-05
7.54094e-05
7.54094e-05
0.000248336
0.000248336
0.000523495
0.000523495
0.000868343
0.000868343
0.00125936
0.00125936
0.00168252
0.00168252
0.00212912
0.00212912
0.00259338
0.00259338
0.00307123
0.00307123
0.00355964
0.00355964
0.00405625
0.00405625
0.0045592
0.0045592
0.00506695
0.00506695
0.00557822
0.00557822
0.00609191
0.00609191
0.00660705
0.00660705
0.0071228
0.0071228
0.0076384
0.0076384
0.00815316
0.00815316
0.00866642
0.00866642
0.00917762
0.00917762
0.00968618
0.00968618
0.0101916
0.0101916
0.0106933
0.0106933
0.0111909
0.0111909
0.0116838
0.0116838
0.0121717
0.0121717
0.012654
0.012654
0.0131304
0.0131304
0.0136005
0.0136005
0.0140637
0.0140637
0.0145198
0.0145198
0.0149682
0.0149682
0.0154088
0.0154088
0.0158411
0.0158411
0.0162648
0.0162648
0.0166795
0.0166795
0.0170851
0.0170851
0.0174813
0.0174813
0.0178678
0.0178678
0.0182445
0.0182445
0.0186113
0.0186113
0.0189682
0.0189682
0.0193151
0.0193151
0.0196522
0.0196522
0.0199796
0.0199796
0.0202977
0.0202977
0.0206067
0.0206067
0.0209071
0.0209071
0.0211996
0.0211996
0.0214849
0.0214849
0.0217639
0.0217639
0.0220376
0.0220376
0.0223073
0.0223073
0.0225743
0.0225743
0.0228402
0.0228402
0.0231068
0.0231068
0.023376
0.023376
0.0236498
0.0236498
0.0239305
0.0239305
0.0242205
0.0242205
0.0245223
0.0245223
0.0248384
0.0248384
0.0251713
0.0251713
0.0255235
0.0255235
0.0258975
0.0258975
0.0262954
0.0262954
0.0267192
0.0267192
0.0271705
0.0271705
0.0276506
0.0276506
0.0281602
0.0281602
0.0286997
0.0286997
0.0292689
0.0292689
0.0298671
0.0298671
0.0304931
0.0304931
0.0311453
0.0311453
0.0318215
0.0318215
0.0325195
0.0325195
0.0332364
0.0332364
0.0339694
0.0339694
0.0347154
0.0347154
0.0354712
0.0354712
0.0362339
0.0362339
0.0370002
0.0370002
0.0377673
0.0377673
0.0385322
0.0385322
0.0392924
0.0392924
0.0400453
0.0400453
0.0407888
0.0407888
0.0415209
0.0415209
0.0422396
0.0422396
0.0429436
0.0429436
0.0436313
0.0436313
0.0443018
0.0443018
0.044954
0.044954
0.0455872
0.0455872
0.0462009
0.0462009
0.0467946
0.0467946
0.0473681
0.0473681
0.0479211
0.0479211
0.0484538
0.0484538
0.0489661
0.0489661
0.0494582
0.0494582
0.0499303
0.0499303
0.0503828
0.0503828
0.050816
0.050816
0.0512303
0.0512303
0.0516261
0.0516261
0.0520039
0.0520039
0.0523641
0.0523641
0.0527072
0.0527072
0.0530338
0.0530338
0.0533442
0.0533442
0.053639
0.053639
0.0539188
0.0539188
0.0541839
0.0541839
0.0544348
0.0544348
0.0546719
0.0546719
0.0548958
0.0548958
0.0551068
0.0551068
0.0553054
0.0553054
0.0554918
0.0554918
0.0556666
0.0556666
0.0558299
0.0558299
0.0559822
0.0559822
0.0561237
0.0561237
0.0562548
0.0562548
0.0563757
0.0563757
0.0564867
0.0564867
0.056588
0.056588
0.0566798
0.0566798
0.0567624
0.0567624
0.0568361
0.0568361
0.0569009
0.0569009
0.0569571
0.0569571
0.0570048
0.0570048
0.0570444
0.0570444
0.0570758
0.0570758
0.0570993
0.0570993
0.0571151
0.0571151
0.0571233
0.0571233
0.057124
0.057124
0.0571174
0.0571174
0.0571037
0.0571037
0.0570831
0.0570831
0.0570556
0.0570556
0.0570216
0.0570216
0.0569811
0.0569811
0.0569344
0.0569344
0.0568816
0.0568816
0.0568231
0.0568231
0.056759
0.056759
0.0566896
0.0566896
0.0566151
0.0566151
0.0565359
0.0565359
0.0564523
0.0564523
0.0563644
0.0563644
0.0562727
0.0562727
0.0561774
0.0561774
0.0560788
0.0560788
0.0559771
0.0559771
0.0558727
0.0558727
0.0557658
0.0557658
0.0556565
0.0556565
0.055545
0.055545
0.0554314
0.0554314
0.0553159
0.0553159
0.0551986
0.0551986
0.0550795
0.0550795
0.0549589
0.0549589
0.0548367
0.0548367
0.0547133
0.0547133
0.0545888
0.0545888
0.0544635
0.0544635
0.0543376
0.0543376
0.0542115
0.0542115
0.0540854
0.0540854
0.0539598
0.0539598
0.053835
0.053835
0.0537114
0.0537114
0.0535893
0.0535893
0.0534692
0.0534692
0.0533514
0.0533514
0.0532364
0.0532364
0.0531244
0.0531244
0.0530159
0.0530159
0.0529114
0.0529114
0.0528113
0.0528113
0.0527162
0.0527162
0.0526265
0.0526265
0.0525431
0.0525431
0.0524666
0.0524666
0.0523978
0.0523978
0.0523374
0.0523374
0.0522865
0.0522865
0.0522458
0.0522458
0.0522164
0.0522164
0.0521993
0.0521993
0.0521954
0.0521954
0.0522056
0.0522056
0.0522308
0.0522308
0.0522719
0.0522719
0.0523295
0.0523295
0.0524043
0.0524043
0.0524967
0.0524967
0.0526073
0.0526073
0.0527363
0.0527363
0.0528841
0.0528842
0.0530512
0.0530512
0.0532377
0.0532378
0.0534439
0.0534439
0.0536695
0.0536695
0.0539145
0.0539145
0.0541783
0.0541783
0.0544603
0.0544603
0.0547595
0.0547595
0.0550745
0.0550746
0.0554041
0.0554041
0.0557464
0.0557464
0.0561
0.0561
0.0564635
0.0564635
0.0568358
0.0568358
0.0572161
0.0572162
0.0576039
0.057604
0.0579986
0.0579986
0.0583993
0.0583993
0.0588047
0.0588047
0.0592132
0.0592132
0.0596229
0.059623
0.0600321
0.0600321
0.0604391
0.0604391
0.0608427
0.0608428
0.0612419
0.061242
0.061636
0.0616361
0.0620248
0.0620249
0.0624087
0.0624087
0.0627884
0.0627885
0.0631655
0.0631656
0.0635411
0.0635412
0.0639161
0.0639162
0.0642903
0.0642904
0.0646625
0.0646626
0.0650303
0.0650304
0.0653901
0.0653903
0.0657373
0.0657375
0.0660663
0.0660665
0.0663718
0.066372
0.0666504
0.0666506
0.0669012
0.0669014
0.0671263
0.0671266
0.0673306
0.0673308
0.0675205
0.0675208
0.0677034
0.0677038
0.0678852
0.0678856
0.0680693
0.0680697
0.0682565
0.068257
0.0684468
0.0684473
0.0686416
0.068642
0.0688455
0.0688457
0.0690646
0.0690646
0.0693053
0.0693052
0.0695748
0.0695747
0.0698797
0.0698796
0.0702253
0.0702252
0.0706155
0.0706155
0.0710534
0.0710534
0.0715412
0.0715412
0.0720804
0.0720805
0.0726717
0.0726718
0.0733143
0.0733145
0.0740053
0.0740055
0.0747395
0.0747397
0.0755091
0.0755092
0.0763041
0.0763042
0.0771122
0.0771124
0.0779192
0.0779194
0.078711
0.0787111
0.0794752
0.0794753
0.0802004
0.0802005
0.0808736
0.0808736
0.0814788
0.0814788
0.0820007
0.0820007
0.0824302
0.0824301
0.0827676
0.0827676
0.0830221
0.083022
0.0832091
0.0832091
0.0833525
0.0833524
0.0834836
0.0834835
0.0836328
0.0836328
0.0838195
0.0838196
0.0840509
0.084051
0.0843289
0.084329
0.0846554
0.0846555
0.0850329
0.085033
0.085463
0.0854632
0.0859475
0.0859476
0.086486
0.0864862
0.0870744
0.0870747
0.0877022
0.0877025
0.0883539
0.0883543
0.0890123
0.0890127
0.0896568
0.0896573
0.0902578
0.0902583
0.0907762
0.0907767
0.091176
0.0911765
0.0914387
0.091439
0.0915703
0.0915704
0.091596
0.091596
0.0915444
0.0915444
0.0914365
0.0914364
0.0912894
0.0912893
0.0911251
0.091125
0.0909666
0.0909666
0.0908282
0.0908283
0.0907144
0.0907146
0.090628
0.0906283
0.0905781
0.0905784
3.8517e-09
3.8517e-09
5.23265e-07
5.23265e-07
1.09337e-05
1.09337e-05
7.54094e-05
7.54094e-05
0.000248336
0.000248336
0.000523495
0.000523495
0.000868343
0.000868343
0.00125936
0.00125936
0.00168252
0.00168252
0.00212912
0.00212912
0.00259338
0.00259338
0.00307123
0.00307123
0.00355964
0.00355964
0.00405625
0.00405625
0.0045592
0.0045592
0.00506695
0.00506695
0.00557822
0.00557822
0.00609191
0.00609191
0.00660705
0.00660705
0.0071228
0.0071228
0.0076384
0.0076384
0.00815316
0.00815316
0.00866643
0.00866643
0.00917762
0.00917762
0.00968618
0.00968618
0.0101916
0.0101916
0.0106933
0.0106933
0.0111909
0.0111909
0.0116838
0.0116838
0.0121717
0.0121717
0.012654
0.012654
0.0131304
0.0131304
0.0136005
0.0136005
0.0140637
0.0140637
0.0145198
0.0145198
0.0149682
0.0149682
0.0154088
0.0154088
0.0158411
0.0158411
0.0162648
0.0162648
0.0166795
0.0166795
0.0170851
0.0170851
0.0174813
0.0174813
0.0178678
0.0178678
0.0182445
0.0182445
0.0186113
0.0186113
0.0189682
0.0189682
0.0193151
0.0193151
0.0196522
0.0196522
0.0199796
0.0199796
0.0202977
0.0202977
0.0206067
0.0206067
0.0209071
0.0209071
0.0211996
0.0211996
0.0214849
0.0214849
0.0217639
0.0217639
0.0220376
0.0220376
0.0223073
0.0223073
0.0225743
0.0225743
0.0228402
0.0228402
0.0231068
0.0231068
0.023376
0.023376
0.0236498
0.0236498
0.0239305
0.0239305
0.0242206
0.0242205
0.0245223
0.0245223
0.0248384
0.0248384
0.0251713
0.0251713
0.0255235
0.0255235
0.0258975
0.0258975
0.0262954
0.0262954
0.0267192
0.0267192
0.0271705
0.0271705
0.0276506
0.0276506
0.0281602
0.0281602
0.0286997
0.0286997
0.0292689
0.0292689
0.0298671
0.0298671
0.0304931
0.0304931
0.0311453
0.0311453
0.0318215
0.0318215
0.0325195
0.0325195
0.0332364
0.0332364
0.0339694
0.0339694
0.0347153
0.0347153
0.0354712
0.0354712
0.0362339
0.0362339
0.0370002
0.0370002
0.0377673
0.0377673
0.0385322
0.0385322
0.0392924
0.0392924
0.0400453
0.0400453
0.0407888
0.0407888
0.0415209
0.0415209
0.0422396
0.0422396
0.0429436
0.0429436
0.0436313
0.0436313
0.0443018
0.0443018
0.044954
0.044954
0.0455872
0.0455872
0.0462009
0.0462009
0.0467946
0.0467946
0.0473681
0.0473681
0.0479211
0.0479211
0.0484538
0.0484538
0.0489661
0.0489661
0.0494582
0.0494582
0.0499303
0.0499303
0.0503828
0.0503828
0.050816
0.050816
0.0512303
0.0512303
0.0516261
0.0516261
0.0520039
0.0520039
0.0523641
0.0523641
0.0527072
0.0527072
0.0530338
0.0530338
0.0533442
0.0533442
0.053639
0.053639
0.0539188
0.0539188
0.0541839
0.0541839
0.0544348
0.0544348
0.0546719
0.0546719
0.0548958
0.0548958
0.0551068
0.0551068
0.0553054
0.0553054
0.0554918
0.0554918
0.0556666
0.0556666
0.0558299
0.0558299
0.0559822
0.0559822
0.0561237
0.0561237
0.0562548
0.0562548
0.0563757
0.0563757
0.0564867
0.0564867
0.056588
0.056588
0.0566798
0.0566798
0.0567624
0.0567624
0.0568361
0.0568361
0.0569009
0.0569009
0.0569571
0.0569571
0.0570048
0.0570048
0.0570444
0.0570444
0.0570758
0.0570758
0.0570993
0.0570993
0.0571151
0.0571151
0.0571233
0.0571233
0.057124
0.057124
0.0571174
0.0571174
0.0571037
0.0571037
0.0570831
0.0570831
0.0570556
0.0570556
0.0570216
0.0570216
0.0569811
0.0569811
0.0569344
0.0569344
0.0568816
0.0568816
0.0568231
0.0568231
0.056759
0.056759
0.0566896
0.0566896
0.0566151
0.0566151
0.0565359
0.0565359
0.0564523
0.0564523
0.0563644
0.0563644
0.0562727
0.0562727
0.0561774
0.0561774
0.0560788
0.0560788
0.0559771
0.0559771
0.0558727
0.0558727
0.0557658
0.0557658
0.0556565
0.0556565
0.055545
0.055545
0.0554314
0.0554314
0.0553159
0.0553159
0.0551986
0.0551986
0.0550795
0.0550795
0.0549589
0.0549589
0.0548367
0.0548367
0.0547133
0.0547133
0.0545888
0.0545888
0.0544635
0.0544635
0.0543376
0.0543376
0.0542115
0.0542115
0.0540854
0.0540854
0.0539598
0.0539598
0.053835
0.053835
0.0537114
0.0537114
0.0535893
0.0535893
0.0534692
0.0534692
0.0533514
0.0533514
0.0532364
0.0532364
0.0531244
0.0531244
0.0530159
0.0530159
0.0529114
0.0529114
0.0528113
0.0528113
0.0527162
0.0527162
0.0526265
0.0526265
0.0525431
0.0525431
0.0524666
0.0524666
0.0523978
0.0523978
0.0523374
0.0523374
0.0522865
0.0522865
0.0522458
0.0522458
0.0522164
0.0522164
0.0521993
0.0521993
0.0521954
0.0521954
0.0522056
0.0522056
0.0522309
0.0522308
0.0522719
0.0522719
0.0523296
0.0523295
0.0524043
0.0524043
0.0524967
0.0524967
0.0526073
0.0526073
0.0527363
0.0527363
0.0528842
0.0528842
0.0530512
0.0530512
0.0532378
0.0532378
0.0534439
0.0534439
0.0536695
0.0536695
0.0539145
0.0539145
0.0541784
0.0541784
0.0544604
0.0544603
0.0547595
0.0547595
0.0550746
0.0550746
0.0554041
0.0554041
0.0557465
0.0557464
0.0561001
0.0561
0.0564636
0.0564635
0.0568359
0.0568358
0.0572162
0.0572162
0.0576041
0.057604
0.0579987
0.0579987
0.0583994
0.0583994
0.0588048
0.0588048
0.0592134
0.0592133
0.0596231
0.0596231
0.0600322
0.0600322
0.0604393
0.0604392
0.0608429
0.0608429
0.0612421
0.0612421
0.0616362
0.0616362
0.062025
0.062025
0.0624089
0.0624088
0.0627886
0.0627886
0.0631657
0.0631657
0.0635414
0.0635413
0.0639163
0.0639162
0.0642905
0.0642904
0.0646627
0.0646626
0.0650305
0.0650304
0.0653904
0.0653903
0.0657376
0.0657375
0.0660666
0.0660664
0.0663721
0.066372
0.0666507
0.0666505
0.0669015
0.0669013
0.0671267
0.0671264
0.0673309
0.0673307
0.0675209
0.0675206
0.0677038
0.0677035
0.0678856
0.0678852
0.0680698
0.0680693
0.0682571
0.0682565
0.0684473
0.0684468
0.068642
0.0686416
0.0688457
0.0688455
0.0690646
0.0690646
0.0693053
0.0693053
0.0695747
0.0695748
0.0698796
0.0698797
0.0702252
0.0702253
0.0706156
0.0706156
0.0710535
0.0710535
0.0715413
0.0715413
0.0720806
0.0720805
0.072672
0.0726719
0.0733147
0.0733145
0.0740057
0.0740056
0.0747399
0.0747398
0.0755095
0.0755093
0.0763045
0.0763044
0.0771127
0.0771125
0.0779197
0.0779195
0.0787114
0.0787113
0.0794755
0.0794754
0.0802007
0.0802006
0.0808738
0.0808737
0.0814789
0.0814788
0.0820007
0.0820007
0.0824301
0.0824301
0.0827674
0.0827675
0.0830218
0.0830219
0.0832088
0.0832089
0.0833522
0.0833522
0.0834833
0.0834834
0.0836326
0.0836326
0.0838194
0.0838194
0.0840509
0.0840509
0.084329
0.0843289
0.0846555
0.0846554
0.085033
0.0850329
0.0854632
0.0854631
0.0859478
0.0859476
0.0864864
0.0864862
0.0870749
0.0870746
0.0877028
0.0877024
0.0883546
0.0883542
0.089013
0.0890125
0.0896576
0.0896571
0.0902586
0.090258
0.0907768
0.0907763
0.0911765
0.0911761
0.091439
0.0914387
0.0915703
0.0915702
0.0915958
0.0915958
0.0915441
0.0915442
0.0914361
0.0914363
0.091289
0.0912891
0.0911248
0.0911249
0.0909664
0.0909664
0.0908281
0.090828
0.0907145
0.0907143
0.0906282
0.0906279
0.0905783
0.090578
0.0905774
0.0905777
0.0906259
0.0906262
0.0907106
0.0907108
0.090822
0.0908221
0.0909583
0.0909583
0.0911143
0.0911142
0.0912755
0.0912754
0.09142
0.0914199
0.0915232
0.0915232
0.0915676
0.0915676
0.0915349
0.0915351
0.0913982
0.0913985
0.0911318
0.0911322
0.0907304
0.0907309
0.0902143
0.0902148
0.0896179
0.0896184
0.0889781
0.0889785
0.0883239
0.0883243
0.0876758
0.0876761
0.0870514
0.0870517
0.0864668
0.0864671
0.0859323
0.0859325
0.0854519
0.085452
0.0850256
0.0850257
0.0846519
0.0846519
0.0843289
0.0843289
0.0840543
0.0840544
0.0838262
0.0838262
0.0836425
0.0836425
0.0834961
0.083496
0.083368
0.0833679
0.0832273
0.0832272
0.0830415
0.0830415
0.0827866
0.0827865
0.0824469
0.0824469
0.0820137
0.0820137
0.0814881
0.0814881
0.0808803
0.0808804
0.0802054
0.0802055
0.079479
0.0794791
0.0787138
0.0787139
0.077921
0.0779211
0.077113
0.0771131
0.0763036
0.0763038
0.0755074
0.0755075
0.0747367
0.0747368
0.0740014
0.0740016
0.0733095
0.0733097
0.0726663
0.0726664
0.0720745
0.0720746
0.0715349
0.071535
0.0710469
0.0710469
0.0706087
0.0706087
0.0702182
0.0702181
0.0698725
0.0698724
0.0695676
0.0695674
0.0692981
0.069298
0.0690572
0.0690572
0.0688381
0.0688383
0.0686345
0.0686349
0.0684402
0.0684407
0.0682502
0.0682507
0.0680628
0.0680633
0.0678784
0.0678788
0.067696
0.0676964
0.0675124
0.0675127
0.067322
0.0673223
0.0671177
0.067118
0.0668924
0.0668927
0.0666412
0.0666414
0.0663619
0.0663621
0.0660559
0.0660561
0.065727
0.0657271
0.0653802
0.0653803
0.0650212
0.0650213
0.0646546
0.0646547
0.0642839
0.0642839
0.0639109
0.063911
0.0635368
0.0635368
0.0631614
0.0631615
0.0627842
0.0627843
0.0624042
0.0624043
0.0620201
0.0620201
0.0616311
0.0616311
0.0612368
0.0612369
0.0608374
0.0608375
0.0604338
0.0604339
0.060027
0.060027
0.059618
0.059618
0.0592085
0.0592085
0.0588004
0.0588004
0.0583955
0.0583955
0.0579954
0.0579955
0.0576016
0.0576016
0.0572146
0.0572146
0.0568349
0.0568349
0.056463
0.056463
0.0560999
0.0560999
0.0557466
0.0557466
0.0554044
0.0554044
0.0550751
0.0550752
0.0547603
0.0547603
0.0544614
0.0544614
0.0541795
0.0541795
0.0539156
0.0539156
0.0536705
0.0536705
0.0534447
0.0534447
0.0532384
0.0532384
0.0530517
0.0530517
0.0528844
0.0528845
0.0527365
0.0527365
0.0526075
0.0526075
0.052497
0.052497
0.0524046
0.0524047
0.05233
0.05233
0.0522724
0.0522724
0.0522314
0.0522314
0.0522063
0.0522063
0.0521962
0.0521962
0.0522002
0.0522002
0.0522174
0.0522174
0.0522468
0.0522468
0.0522875
0.0522875
0.0523384
0.0523384
0.0523988
0.0523988
0.0524677
0.0524677
0.0525442
0.0525442
0.0526277
0.0526277
0.0527173
0.0527173
0.0528125
0.0528125
0.0529126
0.0529126
0.0530172
0.0530172
0.0531257
0.0531257
0.0532376
0.0532376
0.0533527
0.0533527
0.0534704
0.0534704
0.0535905
0.0535905
0.0537126
0.0537126
0.0538362
0.0538362
0.053961
0.053961
0.0540867
0.0540867
0.0542127
0.0542127
0.0543389
0.0543389
0.0544648
0.0544648
0.0545902
0.0545902
0.0547147
0.0547147
0.0548381
0.0548381
0.0549602
0.0549602
0.0550809
0.0550809
0.0552
0.0552
0.0553174
0.0553174
0.0554329
0.0554329
0.0555465
0.0555465
0.0556581
0.0556581
0.0557674
0.0557674
0.0558744
0.0558744
0.0559788
0.0559788
0.0560805
0.0560805
0.0561791
0.0561791
0.0562744
0.0562744
0.0563662
0.0563662
0.056454
0.056454
0.0565378
0.0565378
0.056617
0.056617
0.0566915
0.0566915
0.0567609
0.0567609
0.056825
0.056825
0.0568836
0.0568836
0.0569363
0.0569363
0.0569831
0.0569831
0.0570236
0.0570236
0.0570577
0.0570577
0.0570852
0.0570852
0.0571059
0.0571059
0.0571197
0.0571197
0.0571263
0.0571263
0.0571256
0.0571256
0.0571175
0.0571175
0.0571018
0.0571018
0.0570784
0.0570784
0.057047
0.057047
0.0570076
0.0570076
0.0569599
0.0569599
0.0569038
0.0569038
0.0568391
0.0568391
0.0567655
0.0567655
0.0566829
0.0566829
0.0565911
0.0565911
0.0564898
0.0564898
0.0563789
0.0563789
0.056258
0.056258
0.056127
0.056127
0.0559856
0.0559856
0.0558333
0.0558333
0.05567
0.05567
0.0554953
0.0554953
0.0553088
0.0553088
0.0551102
0.0551102
0.0548992
0.0548992
0.0546753
0.0546753
0.0544381
0.0544381
0.0541871
0.0541871
0.0539219
0.0539219
0.0536421
0.0536421
0.0533471
0.0533471
0.0530365
0.0530365
0.0527099
0.0527099
0.0523667
0.0523667
0.0520065
0.0520065
0.0516287
0.0516287
0.0512329
0.0512329
0.0508186
0.0508186
0.0503854
0.0503854
0.049933
0.049933
0.0494608
0.0494608
0.0489687
0.0489687
0.0484564
0.0484564
0.0479237
0.0479237
0.0473707
0.0473707
0.0467972
0.0467972
0.0462036
0.0462036
0.0455899
0.0455899
0.0449568
0.0449568
0.0443047
0.0443047
0.0436343
0.0436343
0.0429466
0.0429466
0.0422426
0.0422426
0.0415237
0.0415237
0.0407914
0.0407914
0.0400475
0.0400475
0.0392942
0.0392942
0.0385337
0.0385337
0.0377686
0.0377686
0.0370014
0.0370014
0.0362348
0.0362348
0.035472
0.035472
0.0347159
0.0347159
0.0339696
0.0339696
0.0332363
0.0332363
0.0325191
0.0325191
0.0318209
0.0318209
0.0311443
0.0311443
0.0304919
0.0304919
0.0298656
0.0298656
0.0292672
0.0292672
0.0286977
0.0286977
0.028158
0.028158
0.0276481
0.0276481
0.0271678
0.0271678
0.0267163
0.0267163
0.0262923
0.0262923
0.0258942
0.0258942
0.02552
0.02552
0.0251676
0.0251676
0.0248346
0.0248346
0.0245184
0.0245184
0.0242166
0.0242166
0.0239265
0.0239265
0.0236457
0.0236457
0.0233717
0.0233717
0.0231025
0.0231025
0.0228359
0.0228359
0.02257
0.02257
0.022303
0.022303
0.0220333
0.0220333
0.0217597
0.0217597
0.0214808
0.0214808
0.0211957
0.0211957
0.0209033
0.0209033
0.020603
0.020603
0.0202941
0.0202941
0.0199762
0.0199762
0.019649
0.019649
0.0193121
0.0193121
0.0189653
0.0189653
0.0186086
0.0186086
0.0182419
0.0182419
0.0178653
0.0178653
0.017479
0.017479
0.017083
0.017083
0.0166775
0.0166775
0.0162629
0.0162629
0.0158393
0.0158393
0.0154072
0.0154072
0.0149667
0.0149667
0.0145183
0.0145183
0.0140623
0.0140623
0.0135992
0.0135992
0.0131292
0.0131292
0.0126529
0.0126529
0.0121706
0.0121706
0.0116829
0.0116829
0.01119
0.01119
0.0106925
0.0106925
0.0101909
0.0101909
0.00968554
0.00968554
0.00917705
0.00917705
0.00866592
0.00866592
0.00815271
0.00815271
0.007638
0.007638
0.00712245
0.00712245
0.00660675
0.00660675
0.00609164
0.00609164
0.005578
0.005578
0.00506676
0.00506676
0.00455904
0.00455904
0.00405612
0.00405612
0.00355954
0.00355954
0.00307116
0.00307116
0.00259333
0.00259333
0.00212908
0.00212908
0.0016825
0.0016825
0.00125935
0.00125935
0.000868337
0.000868337
0.000523493
0.000523493
0.000248336
0.000248336
7.54096e-05
7.54096e-05
1.09338e-05
1.09338e-05
5.23266e-07
5.23266e-07
3.85179e-09
3.85179e-09
0.0905776
0.0905774
0.0906262
0.090626
0.0907109
0.0907107
0.0908222
0.090822
0.0909585
0.0909584
0.0911143
0.0911144
0.0912755
0.0912756
0.09142
0.0914201
0.0915233
0.0915233
0.0915677
0.0915677
0.0915352
0.091535
0.0913985
0.0913982
0.0911322
0.0911317
0.0907309
0.0907304
0.0902147
0.0902142
0.0896183
0.0896178
0.0889784
0.0889779
0.0883242
0.0883238
0.087676
0.0876757
0.0870516
0.0870513
0.086467
0.0864668
0.0859324
0.0859323
0.085452
0.0854518
0.0850257
0.0850255
0.084652
0.0846519
0.084329
0.0843289
0.0840544
0.0840544
0.0838263
0.0838263
0.0836426
0.0836427
0.0834962
0.0834962
0.0833681
0.0833681
0.0832274
0.0832275
0.0830416
0.0830417
0.0827867
0.0827867
0.082447
0.0824471
0.0820138
0.0820138
0.0814882
0.0814882
0.0808804
0.0808803
0.0802054
0.0802054
0.079479
0.0794789
0.0787138
0.0787137
0.077921
0.0779209
0.077113
0.0771128
0.0763037
0.0763035
0.0755074
0.0755073
0.0747367
0.0747366
0.0740015
0.0740014
0.0733096
0.0733095
0.0726664
0.0726662
0.0720745
0.0720744
0.0715349
0.0715349
0.0710469
0.0710469
0.0706087
0.0706087
0.0702182
0.0702182
0.0698724
0.0698725
0.0695675
0.0695676
0.069298
0.0692981
0.0690573
0.0690573
0.0688384
0.0688382
0.068635
0.0686346
0.0684408
0.0684403
0.0682508
0.0682503
0.0680634
0.0680629
0.0678789
0.0678785
0.0676965
0.0676962
0.0675128
0.0675125
0.0673224
0.0673221
0.0671181
0.0671178
0.0668928
0.0668926
0.0666415
0.0666413
0.0663622
0.066362
0.0660562
0.066056
0.0657272
0.065727
0.0653804
0.0653802
0.0650213
0.0650212
0.0646547
0.0646546
0.0642839
0.0642839
0.063911
0.0639109
0.0635368
0.0635367
0.0631614
0.0631614
0.0627842
0.0627842
0.0624042
0.0624041
0.0620201
0.06202
0.0616311
0.061631
0.0612368
0.0612367
0.0608374
0.0608373
0.0604337
0.0604337
0.0600269
0.0600269
0.0596179
0.0596179
0.0592084
0.0592083
0.0588003
0.0588002
0.0583954
0.0583953
0.0579953
0.0579953
0.0576015
0.0576014
0.0572145
0.0572145
0.0568348
0.0568347
0.0564629
0.0564629
0.0560998
0.0560998
0.0557464
0.0557464
0.0554043
0.0554043
0.055075
0.055075
0.0547602
0.0547602
0.0544612
0.0544612
0.0541794
0.0541794
0.0539155
0.0539155
0.0536704
0.0536704
0.0534446
0.0534446
0.0532383
0.0532383
0.0530516
0.0530516
0.0528844
0.0528844
0.0527364
0.0527364
0.0526074
0.0526074
0.0524969
0.0524969
0.0524046
0.0524046
0.0523299
0.0523299
0.0522723
0.0522723
0.0522314
0.0522314
0.0522062
0.0522062
0.0521961
0.0521961
0.0522001
0.0522001
0.0522173
0.0522173
0.0522467
0.0522467
0.0522874
0.0522874
0.0523384
0.0523384
0.0523988
0.0523988
0.0524677
0.0524677
0.0525442
0.0525442
0.0526276
0.0526276
0.0527173
0.0527173
0.0528125
0.0528125
0.0529126
0.0529126
0.0530172
0.0530172
0.0531256
0.0531256
0.0532376
0.0532376
0.0533526
0.0533526
0.0534704
0.0534704
0.0535905
0.0535905
0.0537126
0.0537126
0.0538362
0.0538362
0.053961
0.053961
0.0540866
0.0540866
0.0542127
0.0542127
0.0543389
0.0543389
0.0544648
0.0544648
0.0545901
0.0545901
0.0547147
0.0547147
0.0548381
0.0548381
0.0549602
0.0549602
0.0550809
0.0550809
0.0552
0.0552
0.0553174
0.0553174
0.0554329
0.0554329
0.0555465
0.0555465
0.0556581
0.0556581
0.0557674
0.0557674
0.0558744
0.0558744
0.0559788
0.0559788
0.0560805
0.0560805
0.0561791
0.0561791
0.0562744
0.0562744
0.0563662
0.0563662
0.056454
0.056454
0.0565377
0.0565377
0.056617
0.056617
0.0566914
0.0566914
0.0567609
0.0567609
0.056825
0.056825
0.0568836
0.0568836
0.0569363
0.0569363
0.0569831
0.0569831
0.0570236
0.0570236
0.0570577
0.0570577
0.0570852
0.0570852
0.0571059
0.0571059
0.0571196
0.0571196
0.0571263
0.0571263
0.0571256
0.0571256
0.0571175
0.0571175
0.0571018
0.0571018
0.0570784
0.0570784
0.057047
0.057047
0.0570076
0.0570076
0.0569599
0.0569599
0.0569038
0.0569038
0.056839
0.056839
0.0567655
0.0567655
0.0566829
0.0566829
0.0565911
0.0565911
0.0564898
0.0564898
0.0563789
0.0563789
0.056258
0.056258
0.056127
0.056127
0.0559855
0.0559855
0.0558333
0.0558333
0.05567
0.05567
0.0554953
0.0554953
0.0553088
0.0553088
0.0551102
0.0551102
0.0548992
0.0548992
0.0546753
0.0546753
0.0544381
0.0544381
0.0541871
0.0541871
0.0539219
0.0539219
0.0536421
0.0536421
0.0533471
0.0533471
0.0530365
0.0530365
0.0527099
0.0527099
0.0523667
0.0523667
0.0520065
0.0520065
0.0516287
0.0516287
0.0512329
0.0512329
0.0508186
0.0508186
0.0503854
0.0503854
0.0499329
0.0499329
0.0494608
0.0494608
0.0489687
0.0489687
0.0484564
0.0484564
0.0479237
0.0479237
0.0473707
0.0473707
0.0467972
0.0467972
0.0462035
0.0462035
0.0455899
0.0455899
0.0449568
0.0449568
0.0443047
0.0443047
0.0436343
0.0436343
0.0429465
0.0429465
0.0422426
0.0422426
0.0415237
0.0415237
0.0407914
0.0407914
0.0400475
0.0400475
0.0392942
0.0392942
0.0385337
0.0385337
0.0377686
0.0377686
0.0370013
0.0370013
0.0362348
0.0362348
0.035472
0.035472
0.0347159
0.0347159
0.0339696
0.0339696
0.0332363
0.0332363
0.0325191
0.0325191
0.0318209
0.0318209
0.0311443
0.0311443
0.0304919
0.0304919
0.0298656
0.0298656
0.0292672
0.0292672
0.0286977
0.0286977
0.028158
0.028158
0.0276481
0.0276481
0.0271678
0.0271678
0.0267163
0.0267163
0.0262923
0.0262923
0.0258942
0.0258942
0.02552
0.02552
0.0251676
0.0251676
0.0248346
0.0248346
0.0245184
0.0245184
0.0242166
0.0242166
0.0239265
0.0239265
0.0236457
0.0236457
0.0233717
0.0233717
0.0231025
0.0231025
0.0228359
0.0228359
0.02257
0.02257
0.022303
0.022303
0.0220333
0.0220333
0.0217597
0.0217597
0.0214808
0.0214808
0.0211957
0.0211957
0.0209033
0.0209033
0.020603
0.020603
0.0202941
0.0202941
0.0199762
0.0199762
0.019649
0.019649
0.0193121
0.0193121
0.0189653
0.0189653
0.0186086
0.0186086
0.0182419
0.0182419
0.0178653
0.0178653
0.017479
0.017479
0.017083
0.017083
0.0166775
0.0166775
0.0162629
0.0162629
0.0158393
0.0158393
0.0154072
0.0154072
0.0149667
0.0149667
0.0145183
0.0145183
0.0140623
0.0140623
0.0135992
0.0135992
0.0131292
0.0131292
0.0126529
0.0126529
0.0121706
0.0121706
0.0116829
0.0116829
0.01119
0.01119
0.0106925
0.0106925
0.0101909
0.0101909
0.00968554
0.00968554
0.00917705
0.00917705
0.00866592
0.00866592
0.00815271
0.00815271
0.007638
0.007638
0.00712245
0.00712245
0.00660675
0.00660675
0.00609164
0.00609164
0.005578
0.005578
0.00506676
0.00506676
0.00455904
0.00455904
0.00405612
0.00405612
0.00355954
0.00355954
0.00307116
0.00307116
0.00259333
0.00259333
0.00212908
0.00212908
0.0016825
0.0016825
0.00125935
0.00125935
0.000868337
0.000868337
0.000523493
0.000523493
0.000248336
0.000248336
7.54096e-05
7.54096e-05
1.09338e-05
1.09338e-05
5.23265e-07
5.23265e-07
3.85179e-09
3.85178e-09
)
;

boundaryField
{
    walls
    {
        type            nutUWallFunction;
        blending        stepwise;
        Cmu             0.09;
        kappa           0.41;
        E               9.8;
        value           uniform 0;
    }
    inlet
    {
        type            cyclic;
    }
    outlet
    {
        type            cyclic;
    }
    sides
    {
        type            empty;
    }
}


// ************************************************************************* //
