/*--------------------------------*- C++ -*----------------------------------*\
| =========                 |                                                 |
| \\      /  F ield         | OpenFOAM: The Open Source CFD Toolbox           |
|  \\    /   O peration     | Version:  2012                                  |
|   \\  /    A nd           | Website:  www.openfoam.com                      |
|    \\/     M anipulation  |                                                 |
\*---------------------------------------------------------------------------*/
FoamFile
{
    version     2.0;
    format      ascii;
    class       volScalarField;
    location    "14200";
    object      p;
}
// * * * * * * * * * * * * * * * * * * * * * * * * * * * * * * * * * * * * * //

dimensions      [0 2 -2 0 0 0 0];


internalField   nonuniform List<scalar> 
2560
(
2.95191e-09
0.000849069
-2.96779e-08
0.000849014
-2.29025e-07
0.000848805
-8.24907e-07
0.000848213
-2.20235e-06
0.000846843
-4.915e-06
0.000844133
-9.61629e-06
0.000839433
-1.70948e-05
0.000831957
-2.82931e-05
0.000820761
-4.42844e-05
0.000804773
-6.62806e-05
0.00078278
-9.56446e-05
0.000753419
-0.000133861
0.000715207
-0.000182562
0.000666511
-0.000243517
0.000605561
-0.000318629
0.000530454
-0.000409927
0.000439162
-0.000519564
0.000329531
-0.000649854
0.000199248
-0.000803198
4.59113e-05
-0.000982105
-0.000132987
-0.00118924
-0.000340115
-0.00142741
-0.000578269
-0.0016994
-0.000850256
-0.00200819
-0.00115903
-0.00235689
-0.00150773
-0.0027487
-0.00189952
-0.00318674
-0.00233754
-0.00367436
-0.00282515
-0.00421505
-0.00336583
-0.00481228
-0.00396305
-0.0054695
-0.00462025
-0.0061903
-0.00534104
-0.00697847
-0.00612919
-0.00783765
-0.00698835
-0.00877148
-0.00792216
-0.0097838
-0.00893447
-0.0108785
-0.0100292
-0.0120595
-0.0112101
-0.0133303
-0.0124809
-0.014695
-0.0138456
-0.0161576
-0.0153082
-0.0177219
-0.0168725
-0.0193917
-0.0185422
-0.0211709
-0.0203214
-0.0230635
-0.022214
-0.0250734
-0.0242238
-0.0272041
-0.0263545
-0.0294597
-0.0286101
-0.0318445
-0.0309949
-0.0343615
-0.0335118
-0.0370136
-0.0361639
-0.0398069
-0.0389571
-0.0427433
-0.0418935
-0.0458261
-0.0449762
-0.0490606
-0.0482107
-0.0524481
-0.0515982
-0.055994
-0.0551441
-0.0597003
-0.0588504
-0.0635701
-0.0627201
-0.0676071
-0.066757
-0.0718145
-0.0709644
-0.0761958
-0.0753457
-0.0807515
-0.0799014
-0.0854861
-0.0846359
-0.0904035
-0.0895532
-0.0955027
-0.0946525
-0.100789
-0.0999385
-0.106262
-0.105411
-0.111926
-0.111076
-0.117781
-0.116931
-0.123829
-0.122979
-0.130073
-0.129222
-0.136511
-0.13566
-0.143147
-0.142296
-0.149979
-0.149129
-0.157011
-0.15616
-0.164239
-0.163388
-0.171667
-0.170816
-0.179291
-0.17844
-0.187114
-0.186263
-0.195132
-0.194281
-0.203345
-0.202494
-0.211753
-0.210901
-0.220351
-0.219499
-0.229139
-0.228287
-0.238115
-0.237264
-0.247276
-0.246425
-0.25662
-0.255768
-0.266142
-0.26529
-0.275837
-0.274985
-0.285705
-0.284853
-0.295739
-0.294887
-0.305937
-0.305085
-0.31629
-0.315438
-0.326797
-0.325945
-0.337452
-0.3366
-0.348246
-0.347394
-0.359178
-0.358326
-0.370238
-0.369385
-0.381421
-0.380569
-0.392723
-0.39187
-0.404131
-0.403279
-0.415643
-0.41479
-0.42725
-0.426397
-0.438944
-0.438091
-0.450718
-0.449865
-0.462565
-0.461712
-0.474475
-0.473622
-0.486443
-0.48559
-0.498457
-0.497604
-0.510511
-0.509658
-0.522598
-0.521745
-0.534706
-0.533853
-0.546831
-0.545978
-0.55896
-0.558106
-0.571088
-0.570235
-0.583205
-0.582351
-0.595305
-0.594451
-0.607375
-0.606521
-0.61941
-0.618556
-0.631401
-0.630547
-0.643341
-0.642486
-0.655221
-0.654367
-0.667034
-0.666179
-0.67877
-0.677915
-0.690425
-0.68957
-0.701987
-0.701132
-0.713455
-0.712599
-0.724814
-0.723959
-0.736064
-0.735209
-0.747193
-0.746338
-0.7582
-0.757344
-0.769071
-0.768215
-0.779807
-0.77895
-0.790394
-0.789538
-0.800835
-0.799979
-0.811115
-0.810259
-0.821238
-0.820382
-0.831187
-0.830331
-0.840971
-0.840113
-0.850568
-0.849712
-0.859993
-0.859135
-0.86922
-0.868364
-0.87827
-0.877411
-0.88711
-0.886254
-0.895769
-0.89491
-0.90421
-0.903354
-0.912466
-0.911606
-0.920495
-0.919639
-0.92834
-0.927479
-0.935946
-0.935091
-0.943371
-0.94251
-0.950548
-0.949693
-0.957547
-0.956684
-0.964286
-0.963432
-0.970856
-0.969991
-0.977152
-0.9763
-0.98329
-0.982422
-0.98914
-0.988289
-0.994846
-0.993975
-1.00025
-0.999397
-1.00552
-1.00465
-1.01047
-1.00963
-1.01532
-1.01444
-1.01982
-1.01898
-1.02425
-1.02336
-1.02829
-1.02746
-1.03232
-1.03142
-1.0359
-1.03508
-1.03953
-1.03862
-1.04266
-1.04184
-1.0459
-1.04497
-1.04857
-1.04778
-1.05145
-1.0505
-1.05366
-1.05289
-1.05619
-1.05522
-1.05794
-1.05721
-1.06017
-1.05916
-1.06146
-1.06076
-1.06341
-1.06234
-1.06422
-1.06358
-1.06595
-1.06481
-1.06646
-1.06571
-1.06782
-1.06659
-1.06816
-1.06717
-1.06905
-1.0677
-1.06922
-1.06798
-1.06965
-1.06819
-1.06967
-1.06819
-1.06932
-1.06807
-1.06917
-1.0678
-1.06839
-1.06736
-1.0681
-1.06684
-1.06693
-1.0661
-1.06651
-1.06532
-1.065
-1.06431
-1.06441
-1.06329
-1.06277
-1.06202
-1.06183
-1.06076
-1.06005
-1.05925
-1.0588
-1.05777
-1.05687
-1.05603
-1.05534
-1.05433
-1.05324
-1.05238
-1.05145
-1.05046
-1.04919
-1.04831
-1.04716
-1.04619
-1.04474
-1.04384
-1.04249
-1.04152
-1.03991
-1.03899
-1.03744
-1.03648
-1.03471
-1.03378
-1.03205
-1.03108
-1.02915
-1.02822
-1.02631
-1.02535
-1.02327
-1.02233
-1.02026
-1.01929
-1.01707
-1.01611
-1.01388
-1.01291
-1.01053
-1.00957
-1.00716
-1.00619
-1.00365
-1.00268
-1.0001
-0.99912
-0.996405
-0.99543
-0.992669
-0.991685
-0.988801
-0.987818
-0.984885
-0.983895
-0.980854
-0.979863
-0.976771
-0.975774
-0.972581
-0.971582
-0.968331
-0.967327
-0.963975
-0.962968
-0.959552
-0.95854
-0.955024
-0.954009
-0.950422
-0.949402
-0.945718
-0.944694
-0.940937
-0.939908
-0.936053
-0.93502
-0.931084
-0.930047
-0.926019
-0.924977
-0.92087
-0.919824
-0.915633
-0.914583
-0.910316
-0.909261
-0.904916
-0.903858
-0.899434
-0.89837
-0.893872
-0.892805
-0.888225
-0.887153
-0.882499
-0.881424
-0.876681
-0.875601
-0.870782
-0.869699
-0.864785
-0.863699
-0.858714
-0.857625
-0.852543
-0.851451
-0.846306
-0.845211
-0.83997
-0.838873
-0.833584
-0.832486
-0.827107
-0.826006
-0.820596
-0.819495
-0.81399
-0.812887
-0.807352
-0.806249
-0.800595
-0.799492
-0.793798
-0.792695
-0.78686
-0.785755
-0.779876
-0.77877
-0.772734
-0.771627
-0.765569
-0.76446
-0.758249
-0.757138
-0.750942
-0.749828
-0.743482
-0.742366
-0.736059
-0.73494
-0.728456
-0.727334
-0.720899
-0.719772
-0.713131
-0.712
-0.70544
-0.704303
-0.697514
-0.696372
-0.689699
-0.688548
-0.681615
-0.680455
-0.673675
-0.672504
-0.665423
-0.664239
-0.657355
-0.656155
-0.648926
-0.647708
-0.640749
-0.639508
-0.632169
-0.630905
-0.623922
-0.622626
-0.615222
-0.613896
-0.606958
-0.605589
-0.598185
-0.596777
-0.589966
-0.588502
-0.581163
-0.579652
-0.57305
-0.571468
-0.564252
-0.562616
-0.556294
-0.55457
-0.547528
-0.545747
-0.53978
-0.537891
-0.531049
-0.529106
-0.52352
-0.52144
-0.5148
-0.512673
-0.507548
-0.505243
-0.498883
-0.496549
-0.492033
-0.489461
-0.483523
-0.480964
-0.477277
-0.47439
-0.469028
-0.466233
-0.463537
-0.460282
-0.455534
-0.452507
-0.450876
-0.447192
-0.443059
-0.439825
-0.439376
-0.4352
-0.431749
-0.428361
-0.429276
-0.42453
-0.413901
-0.418364
-0.411818
-0.415263
-0.405385
-0.410219
-0.403746
-0.407787
-0.398663
-0.403997
-0.397519
-0.402297
-0.393913
-0.399874
-0.393302
-0.398959
-0.391384
-0.398094
0.000848357
-2.44401e-06
0.000848302
-2.48005e-06
0.000848093
-2.67939e-06
0.000847501
-3.27456e-06
0.000846131
-4.6518e-06
0.000843421
-7.36409e-06
0.000838721
-1.20646e-05
0.000831245
-1.95421e-05
0.000820049
-3.07389e-05
0.000804061
-4.67286e-05
0.000782068
-6.87224e-05
0.000752708
-9.80841e-05
0.000714496
-0.000136297
0.0006658
-0.000184995
0.00060485
-0.000245946
0.000529744
-0.000321055
0.000438453
-0.000412348
0.000328822
-0.000521981
0.00019854
-0.000652266
4.52038e-05
-0.000805605
-0.000133694
-0.000984506
-0.000340821
-0.00119164
-0.000578975
-0.00142979
-0.00085096
-0.00170178
-0.00115973
-0.00201056
-0.00150843
-0.00235926
-0.00190022
-0.00275106
-0.00233824
-0.00318909
-0.00282585
-0.0036767
-0.00336653
-0.00421738
-0.00396375
-0.00481461
-0.00462094
-0.00547181
-0.00534174
-0.00619261
-0.00612989
-0.00698077
-0.00698904
-0.00783994
-0.00792285
-0.00877376
-0.00893516
-0.00978607
-0.0100299
-0.0108808
-0.0112108
-0.0120617
-0.0124816
-0.0133325
-0.0138463
-0.0146972
-0.0153088
-0.0161598
-0.0168731
-0.0177241
-0.0185429
-0.0193939
-0.0203221
-0.0211731
-0.0222147
-0.0230657
-0.0242245
-0.0250755
-0.0263552
-0.0272063
-0.0286108
-0.0294619
-0.0309955
-0.0318466
-0.0335125
-0.0343636
-0.0361646
-0.0370157
-0.0389578
-0.0398089
-0.0418942
-0.0427453
-0.0449769
-0.0458281
-0.0482114
-0.0490626
-0.0515989
-0.0524501
-0.0551448
-0.055996
-0.058851
-0.0597023
-0.0627207
-0.063572
-0.0667577
-0.067609
-0.070965
-0.0718164
-0.0753464
-0.0761978
-0.0799021
-0.0807535
-0.0846366
-0.085488
-0.0895539
-0.0904054
-0.0946531
-0.0955046
-0.0999392
-0.100791
-0.105412
-0.106263
-0.111076
-0.111928
-0.116931
-0.117783
-0.12298
-0.123831
-0.129223
-0.130075
-0.135661
-0.136513
-0.142297
-0.143148
-0.149129
-0.149981
-0.156161
-0.157013
-0.163389
-0.164241
-0.170817
-0.171669
-0.178441
-0.179293
-0.186263
-0.187115
-0.194281
-0.195133
-0.202495
-0.203347
-0.210902
-0.211754
-0.2195
-0.220352
-0.228288
-0.22914
-0.237264
-0.238117
-0.246425
-0.247278
-0.255769
-0.256621
-0.265291
-0.266143
-0.274986
-0.275839
-0.284854
-0.285706
-0.294888
-0.295741
-0.305085
-0.305938
-0.315438
-0.316291
-0.325946
-0.326798
-0.336601
-0.337453
-0.347395
-0.348248
-0.358326
-0.359179
-0.369386
-0.370239
-0.380569
-0.381422
-0.391871
-0.392724
-0.403279
-0.404133
-0.41479
-0.415644
-0.426398
-0.427251
-0.438091
-0.438945
-0.449866
-0.450719
-0.461712
-0.462566
-0.473623
-0.474476
-0.48559
-0.486444
-0.497605
-0.498458
-0.509658
-0.510512
-0.521745
-0.522599
-0.533853
-0.534708
-0.545978
-0.546832
-0.558107
-0.558961
-0.570235
-0.571089
-0.582352
-0.583206
-0.594451
-0.595306
-0.606521
-0.607376
-0.618556
-0.619411
-0.630548
-0.631402
-0.642487
-0.643342
-0.654367
-0.655222
-0.666179
-0.667034
-0.677916
-0.678771
-0.689571
-0.690426
-0.701132
-0.701988
-0.7126
-0.713455
-0.72396
-0.724815
-0.735209
-0.736065
-0.746338
-0.747194
-0.757344
-0.758201
-0.768216
-0.769071
-0.778951
-0.779807
-0.789538
-0.790394
-0.799979
-0.800836
-0.810259
-0.811115
-0.820382
-0.821239
-0.830332
-0.831188
-0.840114
-0.840971
-0.849712
-0.850568
-0.859135
-0.859993
-0.868365
-0.869221
-0.877411
-0.87827
-0.886254
-0.887111
-0.894911
-0.89577
-0.903354
-0.90421
-0.911607
-0.912467
-0.919639
-0.920495
-0.927479
-0.92834
-0.935091
-0.935947
-0.94251
-0.943372
-0.949693
-0.950548
-0.956684
-0.957548
-0.963432
-0.964286
-0.969991
-0.970856
-0.9763
-0.977152
-0.982422
-0.98329
-0.988289
-0.98914
-0.993975
-0.994846
-0.999397
-1.00025
-1.00465
-1.00552
-1.00963
-1.01047
-1.01444
-1.01532
-1.01898
-1.01982
-1.02336
-1.02425
-1.02746
-1.02829
-1.03142
-1.03232
-1.03508
-1.0359
-1.03862
-1.03953
-1.04184
-1.04266
-1.04497
-1.0459
-1.04778
-1.04857
-1.0505
-1.05145
-1.05289
-1.05366
-1.05522
-1.05619
-1.05721
-1.05794
-1.05916
-1.06017
-1.06076
-1.06146
-1.06234
-1.06341
-1.06358
-1.06422
-1.06481
-1.06595
-1.06571
-1.06646
-1.06659
-1.06782
-1.06716
-1.06816
-1.0677
-1.06905
-1.06798
-1.06922
-1.06819
-1.06965
-1.06819
-1.06967
-1.06807
-1.06932
-1.0678
-1.06917
-1.06736
-1.06839
-1.06684
-1.0681
-1.0661
-1.06693
-1.06532
-1.06651
-1.06431
-1.065
-1.06329
-1.06441
-1.06202
-1.06277
-1.06076
-1.06183
-1.05925
-1.06005
-1.05777
-1.0588
-1.05603
-1.05687
-1.05433
-1.05534
-1.05238
-1.05324
-1.05046
-1.05145
-1.04831
-1.04919
-1.04619
-1.04716
-1.04384
-1.04474
-1.04152
-1.04249
-1.03899
-1.03991
-1.03648
-1.03744
-1.03378
-1.03471
-1.03108
-1.03205
-1.02822
-1.02915
-1.02535
-1.02631
-1.02233
-1.02327
-1.01929
-1.02026
-1.01611
-1.01707
-1.01291
-1.01388
-1.00957
-1.01053
-1.00619
-1.00716
-1.00268
-1.00365
-0.999119
-1.0001
-0.99543
-0.996405
-0.991685
-0.992669
-0.987818
-0.9888
-0.983895
-0.984885
-0.979863
-0.980853
-0.975774
-0.976771
-0.971582
-0.97258
-0.967326
-0.968331
-0.962968
-0.963975
-0.95854
-0.959552
-0.954008
-0.955023
-0.949402
-0.950422
-0.944694
-0.945718
-0.939908
-0.940937
-0.93502
-0.936052
-0.930047
-0.931084
-0.924977
-0.926018
-0.919823
-0.920869
-0.914583
-0.915633
-0.909261
-0.910316
-0.903857
-0.904916
-0.89837
-0.899433
-0.892805
-0.893872
-0.887153
-0.888225
-0.881424
-0.882499
-0.875601
-0.87668
-0.869699
-0.870782
-0.863698
-0.864784
-0.857625
-0.858714
-0.851451
-0.852543
-0.845211
-0.846306
-0.838873
-0.83997
-0.832485
-0.833584
-0.826006
-0.827107
-0.819494
-0.820596
-0.812887
-0.81399
-0.806249
-0.807352
-0.799491
-0.800595
-0.792695
-0.793798
-0.785755
-0.78686
-0.77877
-0.779876
-0.771627
-0.772734
-0.76446
-0.765569
-0.757138
-0.758249
-0.749828
-0.750942
-0.742366
-0.743482
-0.73494
-0.736059
-0.727333
-0.728456
-0.719772
-0.720899
-0.712
-0.713131
-0.704303
-0.70544
-0.696372
-0.697514
-0.688548
-0.689699
-0.680455
-0.681615
-0.672504
-0.673675
-0.664239
-0.665423
-0.656155
-0.657355
-0.647708
-0.648926
-0.639508
-0.640749
-0.630905
-0.632169
-0.622626
-0.623922
-0.613896
-0.615222
-0.605589
-0.606958
-0.596777
-0.598185
-0.588502
-0.589966
-0.579652
-0.581163
-0.571467
-0.57305
-0.562616
-0.564252
-0.55457
-0.556294
-0.545747
-0.547528
-0.537891
-0.53978
-0.529105
-0.531049
-0.52144
-0.52352
-0.512673
-0.5148
-0.505243
-0.507548
-0.496549
-0.498883
-0.489461
-0.492033
-0.480964
-0.483523
-0.47439
-0.477277
-0.466232
-0.469028
-0.460281
-0.463537
-0.452507
-0.455534
-0.447192
-0.450876
-0.439825
-0.443059
-0.4352
-0.439377
-0.428361
-0.43175
-0.424529
-0.429277
-0.418364
-0.413901
-0.415263
-0.411818
-0.410219
-0.405384
-0.407787
-0.403746
-0.403997
-0.398663
-0.402298
-0.397519
-0.399874
-0.393912
-0.398959
-0.393301
-0.398094
-0.391384
-0.391385
-0.398094
-0.393301
-0.398958
-0.393912
-0.399874
-0.39752
-0.402296
-0.398664
-0.403997
-0.403749
-0.407784
-0.405387
-0.41022
-0.411818
-0.415259
-0.413901
-0.418361
-0.429258
-0.424527
-0.431732
-0.42836
-0.439359
-0.435198
-0.443042
-0.439823
-0.45086
-0.44719
-0.455519
-0.452505
-0.46352
-0.460277
-0.46901
-0.466227
-0.477261
-0.474385
-0.483506
-0.480957
-0.492019
-0.489457
-0.498868
-0.496544
-0.507533
-0.505238
-0.514784
-0.512667
-0.523503
-0.521431
-0.531032
-0.529097
-0.539768
-0.537887
-0.547511
-0.545738
-0.556282
-0.554564
-0.564238
-0.562609
-0.573033
-0.571457
-0.581151
-0.579646
-0.589953
-0.588495
-0.598176
-0.596774
-0.606945
-0.605581
-0.615215
-0.613894
-0.623907
-0.622616
-0.632154
-0.630895
-0.640736
-0.6395
-0.64891
-0.647697
-0.657344
-0.656148
-0.665409
-0.66423
-0.673663
-0.672496
-0.681602
-0.680447
-0.689688
-0.688541
-0.6975
-0.696361
-0.705429
-0.704296
-0.713117
-0.71199
-0.720885
-0.719763
-0.728441
-0.727323
-0.736047
-0.734931
-0.743466
-0.742354
-0.750933
-0.749823
-0.758237
-0.75713
-0.765553
-0.764448
-0.772722
-0.771619
-0.779863
-0.778761
-0.78685
-0.785749
-0.793785
-0.792686
-0.800581
-0.799481
-0.807336
-0.806236
-0.813983
-0.812884
-0.820584
-0.819486
-0.827098
-0.826002
-0.833573
-0.832478
-0.839961
-0.838869
-0.846291
-0.845201
-0.852526
-0.851438
-0.858705
-0.85762
-0.864773
-0.863691
-0.870775
-0.869696
-0.876666
-0.87559
-0.882482
-0.881411
-0.888212
-0.887144
-0.893855
-0.892792
-0.899417
-0.898358
-0.904902
-0.903847
-0.910305
-0.909255
-0.915625
-0.914579
-0.920864
-0.919821
-0.926011
-0.924973
-0.931073
-0.930039
-0.936042
-0.935013
-0.940923
-0.939898
-0.945705
-0.944685
-0.950413
-0.949396
-0.955009
-0.953997
-0.959536
-0.958527
-0.963966
-0.962963
-0.96832
-0.967319
-0.972563
-0.971568
-0.976759
-0.975765
-0.98084
-0.979853
-0.98487
-0.983883
-0.988786
-0.987807
-0.992662
-0.991682
-0.996397
-0.995426
-1.00008
-0.99911
-1.00364
-1.00267
-1.00715
-1.00618
-1.01051
-1.00956
-1.01386
-1.0129
-1.01706
-1.01611
-1.02025
-1.01929
-1.02326
-1.02232
-1.02631
-1.02535
-1.02914
-1.02821
-1.03203
-1.03107
-1.0347
-1.03378
-1.03743
-1.03647
-1.03989
-1.03898
-1.04247
-1.04151
-1.04473
-1.04383
-1.04715
-1.04617
-1.04918
-1.0483
-1.05144
-1.05046
-1.05323
-1.05237
-1.05533
-1.05432
-1.05686
-1.05603
-1.05879
-1.05776
-1.06004
-1.05924
-1.06182
-1.06076
-1.06275
-1.06201
-1.0644
-1.06328
-1.06498
-1.0643
-1.0665
-1.06532
-1.06693
-1.06609
-1.0681
-1.06683
-1.06838
-1.06735
-1.06916
-1.06779
-1.0693
-1.06806
-1.06966
-1.06818
-1.06964
-1.06818
-1.06921
-1.06797
-1.06902
-1.06769
-1.06813
-1.06715
-1.0678
-1.06658
-1.06645
-1.0657
-1.06594
-1.0648
-1.06421
-1.06357
-1.06341
-1.06234
-1.06145
-1.06075
-1.06016
-1.05915
-1.05794
-1.0572
-1.05619
-1.05521
-1.05364
-1.05287
-1.05143
-1.05048
-1.04855
-1.04776
-1.04589
-1.04497
-1.04265
-1.04184
-1.03952
-1.03861
-1.0359
-1.03508
-1.03231
-1.03141
-1.02827
-1.02744
-1.02423
-1.02335
-1.0198
-1.01896
-1.01532
-1.01444
-1.01045
-1.0096
-1.0055
-1.00463
-1.00022
-0.99938
-0.99482
-0.993953
-0.989142
-0.988295
-0.983282
-0.982417
-0.977126
-0.976277
-0.97086
-0.969998
-0.964271
-0.963421
-0.957518
-0.956658
-0.950555
-0.949703
-0.943374
-0.942515
-0.935945
-0.935092
-0.92835
-0.927492
-0.920457
-0.919604
-0.912465
-0.911608
-0.904185
-0.903332
-0.89575
-0.894893
-0.887103
-0.886249
-0.878238
-0.877382
-0.86917
-0.868317
-0.859974
-0.859118
-0.850591
-0.849737
-0.840922
-0.840067
-0.831165
-0.830312
-0.82122
-0.820365
-0.811119
-0.810266
-0.800839
-0.799984
-0.790424
-0.78957
-0.779839
-0.778985
-0.769033
-0.768179
-0.758176
-0.757322
-0.74723
-0.746377
-0.736024
-0.73517
-0.724747
-0.723894
-0.713462
-0.712608
-0.702012
-0.701159
-0.690446
-0.689593
-0.67873
-0.677877
-0.667049
-0.666196
-0.655238
-0.654385
-0.64335
-0.642497
-0.631345
-0.630492
-0.619432
-0.618579
-0.607418
-0.606566
-0.595229
-0.594376
-0.583256
-0.582404
-0.571129
-0.570277
-0.558936
-0.558083
-0.546758
-0.545906
-0.534701
-0.533849
-0.522516
-0.521664
-0.510481
-0.509629
-0.498498
-0.497646
-0.486359
-0.485507
-0.474458
-0.473606
-0.462595
-0.461743
-0.450644
-0.449792
-0.438929
-0.438078
-0.42732
-0.426468
-0.415617
-0.414765
-0.404033
-0.403181
-0.39274
-0.391888
-0.3814
-0.380548
-0.370193
-0.369341
-0.359132
-0.35828
-0.348231
-0.34738
-0.337485
-0.336634
-0.326739
-0.325888
-0.316343
-0.315492
-0.305964
-0.305112
-0.295765
-0.294914
-0.285781
-0.284929
-0.275808
-0.274957
-0.266061
-0.26521
-0.256523
-0.255672
-0.247223
-0.246372
-0.238138
-0.237287
-0.229122
-0.228271
-0.22033
-0.21948
-0.211796
-0.210945
-0.203316
-0.202465
-0.195102
-0.194251
-0.187121
-0.186271
-0.179244
-0.178393
-0.171601
-0.17075
-0.164239
-0.163388
-0.156943
-0.156093
-0.149938
-0.149087
-0.143156
-0.142305
-0.136514
-0.135663
-0.130087
-0.129236
-0.123813
-0.122962
-0.117746
-0.116896
-0.11199
-0.111139
-0.106282
-0.105431
-0.100751
-0.0999004
-0.0955401
-0.0946898
-0.0903783
-0.089528
-0.0855205
-0.0846702
-0.0807188
-0.0798685
-0.0762149
-0.0753646
-0.0717623
-0.0709121
-0.0676111
-0.0667609
-0.0636128
-0.0627626
-0.0596916
-0.0588414
-0.0560164
-0.0551663
-0.0524351
-0.051585
-0.0490763
-0.0482262
-0.0458201
-0.0449701
-0.0427686
-0.0419185
-0.0398221
-0.038972
-0.0369761
-0.0361261
-0.0343285
-0.0334785
-0.0318559
-0.0310059
-0.0294891
-0.0286391
-0.0272044
-0.0263545
-0.0250317
-0.0241817
-0.0230794
-0.0222294
-0.0211611
-0.0203112
-0.0193834
-0.0185335
-0.0177021
-0.0168521
-0.0161562
-0.0153062
-0.0146918
-0.0138419
-0.0133084
-0.0124585
-0.0120453
-0.0111954
-0.010865
-0.0100151
-0.00978519
-0.00893533
-0.0087469
-0.00789704
-0.00783624
-0.00698636
-0.00696638
-0.00611651
-0.00617542
-0.00532557
-0.00545579
-0.00460595
-0.00480671
-0.00395687
-0.00421802
-0.00336819
-0.00366846
-0.00281864
-0.00317367
-0.00232384
-0.00273746
-0.00188765
-0.00234632
-0.00149652
-0.00199002
-0.00114022
-0.00168781
-0.000838004
-0.00141523
-0.000565431
-0.00117546
-0.000325666
-0.00097225
-0.000122457
-0.000795771
5.40154e-05
-0.000640465
0.000209321
-0.000508447
0.000341339
-0.000400211
0.000449569
-0.000309849
0.000539926
-0.000233354
0.00061642
-0.000171484
0.000678291
-0.000123366
0.000726406
-8.55876e-05
0.000764181
-5.56628e-05
0.000794105
-3.34083e-05
0.000816361
-1.76682e-05
0.000832099
-6.64834e-06
0.000843117
9.55351e-07
0.00085072
5.68604e-06
0.000855451
8.35109e-06
0.000858115
9.70839e-06
0.000859468
1.03156e-05
0.000860075
1.05244e-05
0.000860292
1.05659e-05
0.000860348
-0.398094
-0.391384
-0.398958
-0.393301
-0.399874
-0.393912
-0.402296
-0.39752
-0.403997
-0.398664
-0.407784
-0.403748
-0.41022
-0.405387
-0.415259
-0.411818
-0.418361
-0.413901
-0.424527
-0.429259
-0.42836
-0.431732
-0.435198
-0.439359
-0.439823
-0.443042
-0.447191
-0.45086
-0.452505
-0.455519
-0.460277
-0.46352
-0.466227
-0.46901
-0.474385
-0.477261
-0.480957
-0.483506
-0.489457
-0.492019
-0.496544
-0.498868
-0.505238
-0.507533
-0.512667
-0.514785
-0.521431
-0.523503
-0.529097
-0.531032
-0.537887
-0.539768
-0.545738
-0.547512
-0.554565
-0.556282
-0.562609
-0.564238
-0.571457
-0.573033
-0.579646
-0.581151
-0.588495
-0.589953
-0.596774
-0.598176
-0.605581
-0.606945
-0.613894
-0.615215
-0.622616
-0.623907
-0.630895
-0.632154
-0.6395
-0.640736
-0.647697
-0.64891
-0.656148
-0.657344
-0.66423
-0.665409
-0.672496
-0.673663
-0.680447
-0.681602
-0.688541
-0.689688
-0.696361
-0.6975
-0.704296
-0.705429
-0.71199
-0.713117
-0.719763
-0.720885
-0.727323
-0.728441
-0.734931
-0.736047
-0.742354
-0.743466
-0.749823
-0.750933
-0.75713
-0.758237
-0.764448
-0.765553
-0.771619
-0.772722
-0.778761
-0.779863
-0.785749
-0.78685
-0.792686
-0.793785
-0.799481
-0.800581
-0.806236
-0.807336
-0.812884
-0.813983
-0.819486
-0.820584
-0.826002
-0.827098
-0.832478
-0.833573
-0.838869
-0.839961
-0.845201
-0.846291
-0.851438
-0.852526
-0.85762
-0.858705
-0.863691
-0.864773
-0.869696
-0.870775
-0.87559
-0.876666
-0.881411
-0.882482
-0.887144
-0.888212
-0.892792
-0.893855
-0.898358
-0.899417
-0.903847
-0.904902
-0.909255
-0.910305
-0.914579
-0.915625
-0.919821
-0.920864
-0.924973
-0.926011
-0.930039
-0.931073
-0.935014
-0.936042
-0.939898
-0.940923
-0.944685
-0.945705
-0.949396
-0.950413
-0.953997
-0.955009
-0.958527
-0.959536
-0.962963
-0.963966
-0.967319
-0.96832
-0.971568
-0.972563
-0.975765
-0.976759
-0.979853
-0.98084
-0.983883
-0.98487
-0.987807
-0.988786
-0.991682
-0.992662
-0.995426
-0.996397
-0.99911
-1.00008
-1.00267
-1.00364
-1.00618
-1.00715
-1.00956
-1.01051
-1.0129
-1.01386
-1.01611
-1.01706
-1.01929
-1.02025
-1.02232
-1.02326
-1.02535
-1.02631
-1.02821
-1.02914
-1.03107
-1.03203
-1.03378
-1.0347
-1.03647
-1.03743
-1.03898
-1.03989
-1.04151
-1.04247
-1.04383
-1.04473
-1.04617
-1.04715
-1.0483
-1.04918
-1.05046
-1.05144
-1.05237
-1.05323
-1.05432
-1.05532
-1.05603
-1.05685
-1.05776
-1.05879
-1.05924
-1.06004
-1.06076
-1.06182
-1.06201
-1.06275
-1.06328
-1.0644
-1.0643
-1.06498
-1.06532
-1.0665
-1.06609
-1.06693
-1.06683
-1.0681
-1.06735
-1.06838
-1.06779
-1.06916
-1.06806
-1.06931
-1.06818
-1.06966
-1.06818
-1.06964
-1.06797
-1.06921
-1.06769
-1.06903
-1.06715
-1.06814
-1.06658
-1.0678
-1.0657
-1.06645
-1.0648
-1.06594
-1.06357
-1.06421
-1.06234
-1.06341
-1.06075
-1.06145
-1.05915
-1.06016
-1.0572
-1.05794
-1.05521
-1.05619
-1.05287
-1.05364
-1.05048
-1.05143
-1.04776
-1.04855
-1.04497
-1.04589
-1.04184
-1.04265
-1.03861
-1.03952
-1.03508
-1.0359
-1.03141
-1.03231
-1.02744
-1.02827
-1.02335
-1.02423
-1.01896
-1.0198
-1.01444
-1.01532
-1.0096
-1.01045
-1.00463
-1.0055
-0.999379
-1.00023
-0.993952
-0.994821
-0.988294
-0.989143
-0.982417
-0.983283
-0.976277
-0.977127
-0.969998
-0.970861
-0.96342
-0.964272
-0.956658
-0.957519
-0.949703
-0.950556
-0.942515
-0.943375
-0.935092
-0.935946
-0.927491
-0.92835
-0.919604
-0.920458
-0.911608
-0.912466
-0.903332
-0.904186
-0.894893
-0.89575
-0.886249
-0.887103
-0.877382
-0.878238
-0.868317
-0.869171
-0.859118
-0.859974
-0.849737
-0.850591
-0.840066
-0.840922
-0.830311
-0.831166
-0.820365
-0.82122
-0.810265
-0.81112
-0.799984
-0.800839
-0.78957
-0.790424
-0.778985
-0.779839
-0.768179
-0.769033
-0.757322
-0.758177
-0.746376
-0.74723
-0.73517
-0.736024
-0.723894
-0.724747
-0.712608
-0.713462
-0.701158
-0.702012
-0.689593
-0.690446
-0.677877
-0.67873
-0.666196
-0.66705
-0.654385
-0.655238
-0.642497
-0.64335
-0.630492
-0.631345
-0.618579
-0.619432
-0.606566
-0.607419
-0.594376
-0.595229
-0.582404
-0.583257
-0.570277
-0.571129
-0.558083
-0.558936
-0.545906
-0.546759
-0.533848
-0.534701
-0.521663
-0.522516
-0.509629
-0.510481
-0.497646
-0.498499
-0.485507
-0.486359
-0.473606
-0.474458
-0.461743
-0.462595
-0.449792
-0.450644
-0.438078
-0.43893
-0.426468
-0.42732
-0.414765
-0.415617
-0.403181
-0.404033
-0.391888
-0.39274
-0.380548
-0.3814
-0.369341
-0.370193
-0.35828
-0.359132
-0.34738
-0.348231
-0.336634
-0.337486
-0.325888
-0.326739
-0.315492
-0.316343
-0.305112
-0.305964
-0.294914
-0.295766
-0.284929
-0.285781
-0.274957
-0.275808
-0.26521
-0.266061
-0.255672
-0.256523
-0.246372
-0.247223
-0.237287
-0.238138
-0.228271
-0.229122
-0.21948
-0.220331
-0.210945
-0.211796
-0.202465
-0.203316
-0.194252
-0.195102
-0.186271
-0.187122
-0.178393
-0.179244
-0.17075
-0.171601
-0.163388
-0.164239
-0.156093
-0.156943
-0.149087
-0.149938
-0.142305
-0.143156
-0.135663
-0.136514
-0.129236
-0.130087
-0.122962
-0.123813
-0.116896
-0.117746
-0.11114
-0.11199
-0.105431
-0.106282
-0.0999004
-0.100751
-0.0946898
-0.0955402
-0.089528
-0.0903783
-0.0846703
-0.0855206
-0.0798685
-0.0807188
-0.0753646
-0.0762149
-0.0709121
-0.0717624
-0.0667609
-0.0676112
-0.0627627
-0.0636129
-0.0588415
-0.0596916
-0.0551663
-0.0560165
-0.051585
-0.0524352
-0.0482262
-0.0490764
-0.0449701
-0.0458202
-0.0419186
-0.0427687
-0.0389721
-0.0398222
-0.0361261
-0.0369762
-0.0334785
-0.0343286
-0.031006
-0.031856
-0.0286391
-0.0294892
-0.0263545
-0.0272045
-0.0241818
-0.0250318
-0.0222294
-0.0230794
-0.0203112
-0.0211612
-0.0185335
-0.0193835
-0.0168522
-0.0177021
-0.0153063
-0.0161562
-0.0138419
-0.0146919
-0.0124585
-0.0133085
-0.0111955
-0.0120454
-0.0100151
-0.010865
-0.00893537
-0.00978527
-0.00789709
-0.00874698
-0.00698641
-0.00783633
-0.00611656
-0.00696647
-0.00532561
-0.0061755
-0.00460599
-0.00545588
-0.00395692
-0.00480679
-0.00336824
-0.0042181
-0.00281868
-0.00366855
-0.00232389
-0.00317375
-0.00188769
-0.00273755
-0.00149656
-0.00234641
-0.00114027
-0.0019901
-0.000838047
-0.00168789
-0.000565474
-0.00141532
-0.000325709
-0.00117555
-0.000122499
-0.000972335
5.39726e-05
-0.000795855
0.000209278
-0.00064055
0.000341296
-0.000508532
0.000449527
-0.000400296
0.000539883
-0.000309934
0.000616378
-0.000233439
0.000678249
-0.000171569
0.000726363
-0.000123452
0.000764139
-8.56728e-05
0.000794063
-5.57481e-05
0.000816319
-3.34936e-05
0.000832057
-1.77535e-05
0.000843075
-6.73369e-06
0.000850678
8.69991e-07
0.000855409
5.60067e-06
0.000858073
8.26571e-06
0.000859426
9.623e-06
0.000860033
1.02302e-05
0.000860249
1.0439e-05
0.000860306
1.04805e-05
)
;

boundaryField
{
    walls
    {
        type            zeroGradient;
    }
    inlet
    {
        type            cyclic;
    }
    outlet
    {
        type            cyclic;
    }
    sides
    {
        type            empty;
    }
}


// ************************************************************************* //
