/*--------------------------------*- C++ -*----------------------------------*\
| =========                 |                                                 |
| \\      /  F ield         | OpenFOAM: The Open Source CFD Toolbox           |
|  \\    /   O peration     | Version:  2012                                  |
|   \\  /    A nd           | Website:  www.openfoam.com                      |
|    \\/     M anipulation  |                                                 |
\*---------------------------------------------------------------------------*/
FoamFile
{
    version     2.0;
    format      ascii;
    class       volSymmTensorField;
    location    "14200";
    object      turbulenceProperties:R;
}
// * * * * * * * * * * * * * * * * * * * * * * * * * * * * * * * * * * * * * //

dimensions      [0 2 -2 0 0 0 0];


internalField   nonuniform List<symmTensor> 
2560
(
(0.00391374 -4.83374e-06 -7.00084e-09 0.00391374 1.09739e-11 0.00391374)
(0.00391374 -4.83374e-06 -7.00084e-09 0.00391374 1.85543e-15 0.00391374)
(0.0923495 -0.000655938 -2.86496e-06 0.0923495 -1.21816e-13 0.0923495)
(0.0923495 -0.000655938 -2.86496e-06 0.0923495 7.43777e-13 0.0923495)
(0.645264 -0.0136898 -8.21311e-05 0.645264 -1.04939e-08 0.645264)
(0.645264 -0.0136898 -8.21312e-05 0.645264 2.45739e-11 0.645264)
(2.06591 -0.094301 -0.000573957 2.06591 -8.59045e-08 2.06591)
(2.06591 -0.0943011 -0.000573958 2.06591 1.71641e-10 2.06591)
(3.99938 -0.310142 -0.00191505 3.99938 -1.82129e-07 3.99938)
(3.99938 -0.310142 -0.00191505 3.99938 4.03615e-10 3.99938)
(5.8943 -0.652897 -0.00409003 5.8943 -1.89738e-07 5.8943)
(5.8943 -0.652897 -0.00409003 5.8943 7.90182e-10 5.8943)
(7.60998 -1.08151 -0.00687359 7.60998 -1.58796e-07 7.60998)
(7.60999 -1.08151 -0.00687359 7.60999 1.49138e-09 7.60999)
(9.1659 -1.56642 -0.0101005 9.1659 -1.29879e-07 9.1659)
(9.1659 -1.56643 -0.0101005 9.1659 2.53791e-09 9.1659)
(10.5983 -2.0901 -0.0136738 10.5983 -1.09586e-07 10.5983)
(10.5983 -2.0901 -0.0136738 10.5983 3.93098e-09 10.5983)
(11.9354 -2.64178 -0.0175353 11.9354 -9.66257e-08 11.9354)
(11.9354 -2.64178 -0.0175353 11.9354 5.65815e-09 11.9354)
(13.1972 -3.21446 -0.0216482 13.1972 -8.92614e-08 13.1972)
(13.1972 -3.21446 -0.0216482 13.1972 7.76282e-09 13.1972)
(14.3978 -3.80329 -0.0259883 14.3978 -8.6423e-08 14.3978)
(14.3978 -3.80329 -0.0259883 14.3978 1.02281e-08 14.3978)
(15.5472 -4.40483 -0.0305388 15.5472 -8.74728e-08 15.5472)
(15.5472 -4.40483 -0.0305388 15.5472 1.30807e-08 15.5472)
(16.6526 -5.01646 -0.035288 16.6526 -9.20951e-08 16.6526)
(16.6526 -5.01646 -0.035288 16.6526 1.63859e-08 16.6526)
(17.7194 -5.6362 -0.0402276 17.7194 -1.00214e-07 17.7194)
(17.7194 -5.6362 -0.0402276 17.7194 -5.21772e-09 17.7194)
(18.7516 -6.26244 -0.0453511 18.7516 -1.11825e-07 18.7516)
(18.7516 -6.26244 -0.0453511 18.7516 -6.53826e-08 18.7516)
(19.7521 -6.89387 -0.0506536 19.7521 -1.27104e-07 19.7521)
(19.7521 -6.89387 -0.0506536 19.7521 -1.27227e-07 19.7521)
(20.723 -7.52931 -0.056131 20.723 -1.46226e-07 20.723)
(20.723 -7.52931 -0.056131 20.723 -1.46367e-07 20.723)
(21.6659 -8.1677 -0.0617792 21.6659 -1.56267e-07 21.6659)
(21.6659 -8.1677 -0.0617792 21.6659 -1.69599e-07 21.6659)
(22.5817 -8.80801 -0.0675942 22.5817 -1.05655e-07 22.5817)
(22.5817 -8.80801 -0.0675941 22.5817 -1.97254e-07 22.5817)
(23.4712 -9.4492 -0.0735711 23.4712 -5.82427e-08 23.4712)
(23.4712 -9.4492 -0.0735711 23.4712 -2.29662e-07 23.4712)
(24.3346 -10.0902 -0.0797045 24.3346 -6.6331e-08 24.3346)
(24.3346 -10.0902 -0.0797045 24.3346 -2.67211e-07 24.3346)
(25.172 -10.7297 -0.0859875 25.172 -7.49844e-08 25.172)
(25.172 -10.7297 -0.0859875 25.172 -3.10237e-07 25.172)
(25.983 -11.3666 -0.0924121 25.983 -8.46713e-08 25.983)
(25.983 -11.3666 -0.092412 25.983 -3.59345e-07 25.983)
(26.7674 -11.9993 -0.0989682 26.7674 -9.50315e-08 26.7674)
(26.7674 -11.9993 -0.0989682 26.7674 -2.30899e-07 26.7674)
(27.5245 -12.6263 -0.105644 27.5245 -1.05958e-07 27.5245)
(27.5245 -12.6263 -0.105644 27.5245 -2.74233e-10 27.5245)
(28.2534 -13.246 -0.112426 28.2534 -1.176e-07 28.2534)
(28.2534 -13.246 -0.112426 28.2534 4.33569e-08 28.2534)
(28.9533 -13.8563 -0.119297 28.9533 -1.30549e-07 28.9533)
(28.9533 -13.8563 -0.119297 28.9533 3.76597e-08 28.9533)
(29.6231 -14.4553 -0.12624 29.6231 -1.4417e-07 29.6231)
(29.6231 -14.4553 -0.12624 29.6231 3.25738e-08 29.6231)
(30.2617 -15.0407 -0.133232 30.2617 -1.58539e-07 30.2617)
(30.2617 -15.0407 -0.133232 30.2617 2.75382e-08 30.2617)
(30.8679 -15.6102 -0.14025 30.8679 -1.73648e-07 30.8679)
(30.8679 -15.6102 -0.14025 30.8679 2.29456e-08 30.8679)
(31.4403 -16.1613 -0.147268 31.4403 -1.90391e-07 31.4403)
(31.4403 -16.1613 -0.147268 31.4403 1.81412e-08 31.4403)
(31.9778 -16.6912 -0.154256 31.9778 -2.0773e-07 31.9778)
(31.9778 -16.6912 -0.154256 31.9778 1.22776e-09 31.9778)
(32.4788 -17.1973 -0.161183 32.4788 -2.25945e-07 32.4788)
(32.4788 -17.1973 -0.161183 32.4788 -1.23192e-07 32.4788)
(32.9421 -17.6767 -0.168014 32.9421 -2.45263e-07 32.9421)
(32.9421 -17.6767 -0.168014 32.9421 -2.45681e-07 32.9421)
(33.3663 -18.1264 -0.174714 33.3663 -2.66323e-07 33.3663)
(33.3663 -18.1264 -0.174714 33.3663 -2.66783e-07 33.3663)
(33.7502 -18.5436 -0.181243 33.7502 -2.8794e-07 33.7502)
(33.7502 -18.5436 -0.181243 33.7502 -2.88385e-07 33.7502)
(34.0925 -18.9252 -0.18756 34.0925 -3.10565e-07 34.0925)
(34.0925 -18.9252 -0.18756 34.0925 -3.11025e-07 34.0925)
(34.3921 -19.2682 -0.193622 34.3921 -3.34481e-07 34.3921)
(34.3921 -19.2682 -0.193622 34.3921 -3.34954e-07 34.3921)
(34.6479 -19.5699 -0.199387 34.6479 -3.60405e-07 34.6479)
(34.6479 -19.5699 -0.199387 34.6479 -3.60892e-07 34.6479)
(34.8592 -19.8273 -0.204808 34.8592 -3.8711e-07 34.8592)
(34.8592 -19.8273 -0.204808 34.8592 -3.8761e-07 34.8592)
(35.0252 -20.0378 -0.209838 35.0252 -4.14667e-07 35.0252)
(35.0252 -20.0378 -0.209838 35.0252 -4.15179e-07 35.0252)
(35.1455 -20.1989 -0.214432 35.1455 -4.4372e-07 35.1455)
(35.1455 -20.1989 -0.214432 35.1455 -4.44245e-07 35.1455)
(35.2197 -20.3081 -0.218544 35.2197 -4.75055e-07 35.2197)
(35.2197 -20.3081 -0.218544 35.2197 -4.75645e-07 35.2197)
(35.2478 -20.3635 -0.222129 35.2478 -5.06553e-07 35.2478)
(35.2478 -20.3635 -0.222129 35.2478 -5.07181e-07 35.2478)
(35.23 -20.3632 -0.22514 35.23 -5.40362e-07 35.23)
(35.23 -20.3632 -0.22514 35.23 -5.41016e-07 35.23)
(35.167 -20.3055 -0.227535 35.167 -5.74051e-07 35.167)
(35.167 -20.3055 -0.227535 35.167 -5.74999e-07 35.167)
(35.0594 -20.1894 -0.229274 35.0594 -6.1247e-07 35.0594)
(35.0594 -20.1894 -0.229274 35.0594 -6.13415e-07 35.0594)
(34.9085 -20.0137 -0.230315 34.9085 -6.49125e-07 34.9085)
(34.9085 -20.0137 -0.230315 34.9085 -6.49719e-07 34.9085)
(34.7158 -19.7779 -0.230623 34.7158 -6.84591e-07 34.7158)
(34.7158 -19.7779 -0.230623 34.7158 -6.85375e-07 34.7158)
(34.4832 -19.4821 -0.230172 34.4832 -7.27934e-07 34.4832)
(34.4832 -19.4821 -0.230172 34.4832 -7.28752e-07 34.4832)
(34.2128 -19.1265 -0.228927 34.2128 -7.71696e-07 34.2128)
(34.2128 -19.1265 -0.228927 34.2128 -7.74643e-07 34.2128)
(33.9073 -18.7113 -0.22686 33.9073 -8.04839e-07 33.9073)
(33.9073 -18.7113 -0.22686 33.9073 -8.1006e-07 33.9073)
(33.5696 -18.2377 -0.22396 33.5696 -8.56728e-07 33.5696)
(33.5696 -18.2377 -0.22396 33.5696 -8.61219e-07 33.5696)
(33.203 -17.7072 -0.220204 33.203 -8.97078e-07 33.203)
(33.203 -17.7072 -0.220204 33.203 -9.00309e-07 33.203)
(32.8112 -17.1211 -0.215581 32.8112 -9.44404e-07 32.8112)
(32.8112 -17.1211 -0.215581 32.8112 -9.45059e-07 32.8112)
(32.3979 -16.4817 -0.210088 32.3979 -9.91853e-07 32.3979)
(32.3979 -16.4817 -0.210088 32.3979 -9.93757e-07 32.3979)
(31.9676 -15.7912 -0.203721 31.9676 -1.02958e-06 31.9676)
(31.9676 -15.7912 -0.203721 31.9676 -1.03403e-06 31.9676)
(31.5246 -15.0524 -0.196488 31.5246 -1.08073e-06 31.5246)
(31.5246 -15.0524 -0.196488 31.5246 -1.08393e-06 31.5246)
(31.0736 -14.2681 -0.188392 31.0736 -1.12397e-06 31.0736)
(31.0736 -14.2681 -0.188392 31.0736 -1.12769e-06 31.0736)
(30.6195 -13.4412 -0.179443 30.6195 -1.17381e-06 30.6195)
(30.6195 -13.4412 -0.179443 30.6195 -1.17621e-06 30.6195)
(30.1672 -12.5746 -0.169652 30.1672 -1.20919e-06 30.1672)
(30.1672 -12.5746 -0.169652 30.1672 -1.21256e-06 30.1672)
(29.7216 -11.6717 -0.159043 29.7216 -1.25024e-06 29.7216)
(29.7216 -11.6717 -0.159043 29.7216 -1.25094e-06 29.7216)
(29.2878 -10.736 -0.147637 29.2878 -1.30028e-06 29.2878)
(29.2878 -10.736 -0.147637 29.2878 -1.30274e-06 29.2878)
(28.8704 -9.77022 -0.135441 28.8704 -1.32947e-06 28.8704)
(28.8704 -9.77022 -0.135441 28.8704 -1.33019e-06 28.8704)
(28.4742 -8.7775 -0.122489 28.4742 -1.3611e-06 28.4742)
(28.4742 -8.7775 -0.122489 28.4742 -1.36568e-06 28.4742)
(28.1034 -7.76126 -0.108804 28.1034 -1.39837e-06 28.1034)
(28.1034 -7.76126 -0.108804 28.1034 -1.40347e-06 28.1034)
(27.762 -6.7243 -0.0944037 27.762 -1.41722e-06 27.762)
(27.762 -6.7243 -0.0944037 27.762 -1.42909e-06 27.762)
(27.4536 -5.66936 -0.0793135 27.4536 -1.45535e-06 27.4536)
(27.4536 -5.66936 -0.0793135 27.4536 -1.46785e-06 27.4536)
(27.1813 -4.59919 -0.0635565 27.1813 -1.45053e-06 27.1813)
(27.1813 -4.59919 -0.0635565 27.1813 -1.47165e-06 27.1813)
(26.9474 -3.5167 -0.0471658 26.9474 -1.49521e-06 26.9474)
(26.9474 -3.5167 -0.0471658 26.9474 -1.51312e-06 26.9474)
(26.7538 -2.42452 -0.0301587 26.7538 -1.48668e-06 26.7538)
(26.7538 -2.42452 -0.0301587 26.7538 -1.50903e-06 26.7538)
(26.6017 -1.32536 -0.0125746 26.6017 -1.52337e-06 26.6017)
(26.6017 -1.32535 -0.0125746 26.6017 -1.53806e-06 26.6017)
(26.4915 -0.00023662 -1.96512e-06 26.4915 -1.5186e-06 26.4915)
(26.4915 -0.000236487 -1.96401e-06 26.4915 -1.53702e-06 26.4915)
(26.423 0.671415 -0.00565714 26.423 -1.54832e-06 26.423)
(26.423 0.671416 -0.00565715 26.423 -1.55848e-06 26.423)
(26.3953 1.98299 -0.0246626 26.3953 -1.53944e-06 26.3953)
(26.3953 1.98299 -0.0246626 26.3953 -1.55473e-06 26.3953)
(26.4069 3.07838 -0.0441602 26.4069 -1.56568e-06 26.4069)
(26.4069 3.07838 -0.0441602 26.4069 -1.56932e-06 26.4069)
(26.4554 4.1633 -0.0640787 26.4554 -1.57083e-06 26.4554)
(26.4554 4.1633 -0.0640788 26.4554 -1.57785e-06 26.4554)
(26.5383 5.23355 -0.0843459 26.5383 -1.58482e-06 26.5383)
(26.5383 5.23355 -0.084346 26.5383 -1.59154e-06 26.5383)
(26.6523 6.28467 -0.104886 26.6523 -1.60679e-06 26.6523)
(26.6523 6.28467 -0.104886 26.6523 -1.60937e-06 26.6523)
(26.7938 7.3117 -0.125605 26.7938 -1.60287e-06 26.7938)
(26.7938 7.3117 -0.125605 26.7938 -1.62027e-06 26.7938)
(26.959 8.30933 -0.146401 26.959 -1.64738e-06 26.959)
(26.959 8.30933 -0.146401 26.959 -1.65797e-06 26.959)
(27.1437 9.27261 -0.167157 27.1437 -1.64532e-06 27.1437)
(27.1437 9.27261 -0.167157 27.1437 -1.66678e-06 27.1437)
(27.3436 10.1966 -0.18777 27.3436 -1.69462e-06 27.3436)
(27.3436 10.1966 -0.18777 27.3436 -1.7027e-06 27.3436)
(27.5546 11.0761 -0.208113 27.5546 -1.71664e-06 27.5546)
(27.5546 11.0761 -0.208113 27.5546 -1.73384e-06 27.5546)
(27.7723 11.9068 -0.228066 27.7723 -1.77003e-06 27.7723)
(27.7723 11.9068 -0.228066 27.7723 -1.77649e-06 27.7723)
(27.9925 12.6848 -0.24752 27.9925 -1.78937e-06 27.9925)
(27.9925 12.6848 -0.24752 27.9925 -1.80935e-06 27.9925)
(28.2113 13.4066 -0.266364 28.2113 -1.85172e-06 28.2113)
(28.2113 13.4066 -0.266364 28.2113 -1.85996e-06 28.2113)
(28.4249 14.0689 -0.284489 28.4249 -1.86924e-06 28.4249)
(28.4249 14.0689 -0.284489 28.4249 -1.89211e-06 28.4249)
(28.6296 14.6692 -0.301795 28.6296 -1.94665e-06 28.6296)
(28.6296 14.6692 -0.301795 28.6296 -1.95453e-06 28.6296)
(28.8223 15.2058 -0.318187 28.8223 -1.98597e-06 28.8223)
(28.8223 15.2058 -0.318187 28.8223 -2.00337e-06 28.8223)
(28.9999 15.678 -0.333596 28.9999 -2.05584e-06 28.9999)
(28.9999 15.678 -0.333596 28.9999 -2.05701e-06 28.9999)
(29.16 16.0856 -0.347963 29.16 -2.08945e-06 29.16)
(29.16 16.0856 -0.347964 29.16 -2.10359e-06 29.16)
(29.3002 16.4289 -0.361237 29.3002 -2.15647e-06 29.3002)
(29.3002 16.4289 -0.361237 29.3002 -2.15768e-06 29.3002)
(29.4186 16.7086 -0.37337 29.4186 -2.23182e-06 29.4186)
(29.4186 16.7086 -0.37337 29.4186 -2.23304e-06 29.4186)
(29.5136 16.9269 -0.384344 29.5136 -2.25507e-06 29.5136)
(29.5136 16.9269 -0.384344 29.5136 -2.27403e-06 29.5136)
(29.584 17.0858 -0.394162 29.584 -2.33152e-06 29.584)
(29.584 17.0858 -0.394162 29.584 -2.33278e-06 29.584)
(29.6288 17.1875 -0.402805 29.6288 -2.38856e-06 29.6288)
(29.6288 17.1875 -0.402805 29.6288 -2.38984e-06 29.6288)
(29.6475 17.2353 -0.410291 29.6475 -2.42722e-06 29.6475)
(29.6475 17.2353 -0.410291 29.6475 -2.44642e-06 29.6475)
(29.6397 17.2324 -0.416649 29.6397 -2.51263e-06 29.6397)
(29.6397 17.2324 -0.416649 29.6397 -2.52009e-06 29.6397)
(29.6052 17.1823 -0.421905 29.6052 -2.5267e-06 29.6052)
(29.6052 17.1823 -0.421905 29.6052 -2.55128e-06 29.6052)
(29.5443 17.0888 -0.426109 29.5443 -2.59276e-06 29.5443)
(29.5443 17.0888 -0.42611 29.5443 -2.59412e-06 29.5443)
(29.4573 16.9554 -0.429299 29.4573 -2.64148e-06 29.4573)
(29.4573 16.9554 -0.429299 29.4573 -2.6541e-06 29.4573)
(29.3446 16.7858 -0.431522 29.3446 -2.68634e-06 29.3446)
(29.3446 16.7858 -0.431522 29.3446 -2.68774e-06 29.3446)
(29.2071 16.5839 -0.43284 29.2071 -2.7155e-06 29.2071)
(29.2071 16.5839 -0.43284 29.2071 -2.73395e-06 29.2071)
(29.0455 16.3533 -0.433309 29.0455 -2.77398e-06 29.0455)
(29.0455 16.3533 -0.433309 29.0455 -2.77788e-06 29.0455)
(28.8608 16.0977 -0.432994 28.8608 -2.77544e-06 28.8608)
(28.8608 16.0977 -0.432994 28.8608 -2.80249e-06 28.8608)
(28.654 15.8203 -0.431954 28.654 -2.83981e-06 28.654)
(28.654 15.8203 -0.431954 28.654 -2.84807e-06 28.654)
(28.4262 15.5244 -0.430245 28.4262 -2.83303e-06 28.4262)
(28.4262 15.5244 -0.430245 28.4262 -2.85862e-06 28.4262)
(28.1785 15.2131 -0.427936 28.1785 -2.87173e-06 28.1785)
(28.1785 15.2131 -0.427936 28.1785 -2.87323e-06 28.1785)
(27.9122 14.889 -0.425082 27.9122 -2.89198e-06 27.9122)
(27.9122 14.889 -0.425082 27.9122 -2.90756e-06 27.9122)
(27.6284 14.5548 -0.421729 27.6284 -2.90916e-06 27.6284)
(27.6284 14.5548 -0.421729 27.6284 -2.91068e-06 27.6284)
(27.3285 14.2131 -0.417946 27.3285 -2.89259e-06 27.3285)
(27.3285 14.2131 -0.417946 27.3285 -2.92174e-06 27.3285)
(27.0135 13.8658 -0.413781 27.0135 -2.92432e-06 27.0135)
(27.0135 13.8658 -0.413781 27.0135 -2.94319e-06 27.0135)
(26.6847 13.515 -0.409277 26.6847 -2.8712e-06 26.6847)
(26.6847 13.515 -0.409277 26.6847 -2.92223e-06 26.6847)
(26.3433 13.1623 -0.404481 26.3433 -2.92493e-06 26.3433)
(26.3433 13.1623 -0.404481 26.3433 -2.96629e-06 26.3433)
(25.9905 12.8095 -0.399437 25.9905 -2.84574e-06 25.9905)
(25.9905 12.8095 -0.399437 25.9905 -2.91507e-06 25.9905)
(25.6273 12.4579 -0.394185 25.6273 -2.89607e-06 25.6273)
(25.6273 12.4579 -0.394185 25.6273 -2.95217e-06 25.6273)
(25.2549 12.1086 -0.388758 25.2549 -2.78297e-06 25.2549)
(25.2549 12.1086 -0.388758 25.2549 -2.86939e-06 25.2549)
(24.8742 11.7627 -0.383191 24.8742 -2.85925e-06 24.8742)
(24.8742 11.7627 -0.383191 24.8742 -2.93182e-06 24.8742)
(24.4863 11.421 -0.377506 24.4863 -2.73678e-06 24.4863)
(24.4863 11.421 -0.377506 24.4863 -2.82894e-06 24.4863)
(24.0922 11.0843 -0.371734 24.0922 -2.8006e-06 24.0922)
(24.0922 11.0843 -0.371734 24.0922 -2.87144e-06 24.0922)
(23.6927 10.7533 -0.365901 23.6927 -2.67678e-06 23.6927)
(23.6927 10.7533 -0.365901 23.6927 -2.76325e-06 23.6927)
(23.2886 10.4284 -0.360025 23.2886 -2.71514e-06 23.2886)
(23.2886 10.4284 -0.360025 23.2886 -2.77849e-06 23.2886)
(22.8809 10.1098 -0.354119 22.8809 -2.60342e-06 22.8809)
(22.8809 10.1098 -0.354119 22.8809 -2.68457e-06 22.8809)
(22.4702 9.79799 -0.3482 22.4702 -2.62124e-06 22.4702)
(22.4702 9.79799 -0.3482 22.4702 -2.69109e-06 22.4702)
(22.0573 9.49296 -0.34228 22.0573 -2.47861e-06 22.0573)
(22.0573 9.49296 -0.34228 22.0573 -2.57991e-06 22.0573)
(21.6428 9.19481 -0.336362 21.6428 -2.52248e-06 21.6428)
(21.6428 9.19481 -0.336362 21.6428 -2.62739e-06 21.6428)
(21.2274 8.90364 -0.330458 21.2274 -2.30853e-06 21.2274)
(21.2274 8.90364 -0.330458 21.2274 -2.45065e-06 21.2274)
(20.8116 8.61931 -0.324572 20.8116 -2.38946e-06 20.8116)
(20.8116 8.61931 -0.324572 20.8116 -2.53223e-06 20.8116)
(20.396 8.34173 -0.318701 20.396 -2.16058e-06 20.396)
(20.396 8.34173 -0.318701 20.396 -2.33233e-06 20.396)
(19.9811 8.0709 -0.312852 19.9811 -2.24594e-06 19.9811)
(19.9811 8.0709 -0.312852 19.9811 -2.42427e-06 19.9811)
(19.5673 7.80668 -0.307028 19.5673 -1.94503e-06 19.5673)
(19.5673 7.80668 -0.307028 19.5673 -2.16421e-06 19.5673)
(19.1552 7.54893 -0.301226 19.1552 -2.08256e-06 19.1552)
(19.1552 7.54893 -0.301226 19.1552 -2.31557e-06 19.1552)
(18.745 7.29757 -0.295449 18.745 -1.7376e-06 18.745)
(18.745 7.29757 -0.295449 18.745 -2.0084e-06 18.745)
(18.3373 7.05254 -0.289699 18.3373 -1.90764e-06 18.3373)
(18.3373 7.05254 -0.289699 18.3373 -2.20083e-06 18.3373)
(17.9323 6.81378 -0.283979 17.9323 -1.47852e-06 17.9323)
(17.9323 6.81378 -0.283979 17.9323 -1.81986e-06 17.9323)
(17.5304 6.58118 -0.278294 17.5304 -1.70937e-06 17.5304)
(17.5304 6.58118 -0.278294 17.5304 -2.08531e-06 17.5304)
(17.1318 6.35458 -0.272641 17.1318 -1.18392e-06 17.1318)
(17.1318 6.35458 -0.272641 17.1318 -1.61624e-06 17.1318)
(16.7369 6.13383 -0.26702 16.7369 -1.50374e-06 16.7369)
(16.7369 6.13383 -0.26702 16.7369 -1.98574e-06 16.7369)
(16.346 5.91876 -0.261431 16.3459 -8.69133e-07 16.346)
(16.3459 5.91876 -0.261431 16.3459 -1.41398e-06 16.3459)
(15.9591 5.70919 -0.25587 15.9591 -1.29167e-06 15.9591)
(15.9591 5.70919 -0.25587 15.9591 -1.90461e-06 15.9591)
(15.5766 5.50495 -0.250336 15.5766 -5.05873e-07 15.5766)
(15.5766 5.50495 -0.250336 15.5766 -1.1946e-06 15.5766)
(15.1987 5.30583 -0.244825 15.1987 -1.05722e-06 15.1987)
(15.1987 5.30583 -0.244825 15.1987 -1.83487e-06 15.1987)
(14.8256 5.11166 -0.239334 14.8255 -1.52814e-07 14.8256)
(14.8255 5.11166 -0.239334 14.8255 -9.73304e-07 14.8255)
(14.4573 4.92227 -0.233859 14.4573 -8.27162e-07 14.4573)
(14.4573 4.92227 -0.233859 14.4573 -1.82226e-06 14.4573)
(14.0941 4.73752 -0.228399 14.0941 -2.03539e-08 14.0941)
(14.0941 4.73752 -0.228399 14.0941 -7.39261e-07 14.0941)
(13.7362 4.55729 -0.22295 13.7362 -3.6264e-07 13.7362)
(13.7362 4.55729 -0.22295 13.7362 -1.87363e-06 13.7362)
(13.3836 4.38146 -0.217514 13.3835 4.76439e-08 13.3836)
(13.3835 4.38146 -0.217514 13.3835 -5.09023e-07 13.3835)
(13.0364 4.20997 -0.212089 13.0364 1.44897e-22 13.0364)
(13.0364 4.20997 -0.212089 13.0364 -1.79849e-06 13.0364)
(12.6949 4.04273 -0.206677 12.6949 4.67483e-08 12.6949)
(12.6949 4.04273 -0.206677 12.6949 -2.63175e-07 12.6949)
(12.359 3.87967 -0.201279 12.359 -2.41126e-23 12.359)
(12.359 3.87967 -0.201279 12.359 -2.1688e-06 12.359)
(12.029 3.72073 -0.195894 12.029 -3.40475e-08 12.029)
(12.029 3.72073 -0.195894 12.029 2.00425e-08 12.029)
(11.7048 3.56591 -0.190527 11.7048 3.97348e-22 11.7048)
(11.7048 3.56591 -0.190527 11.7048 -2.47638e-06 11.7048)
(11.3866 3.41521 -0.18518 11.3866 2.17047e-07 11.3866)
(11.3866 3.41521 -0.18518 11.3866 7.97618e-07 11.3866)
(11.0745 3.26872 -0.179863 11.0745 -0 11.0745)
(11.0745 3.26872 -0.179863 11.0745 -2.93872e-06 11.0745)
(10.7684 3.12657 -0.174586 10.7684 4.76491e-07 10.7684)
(10.7684 3.12657 -0.174586 10.7684 1.80764e-06 10.7684)
(10.4686 2.989 -0.169364 10.4686 -6.70429e-22 10.4686)
(10.4686 2.989 -0.169364 10.4686 -3.70635e-06 10.4686)
(10.1749 2.8563 -0.16422 10.1749 7.24164e-07 10.1749)
(10.1749 2.8563 -0.16422 10.1749 3.11498e-06 10.1749)
(9.88753 2.72883 -0.159178 9.88753 5.25526e-23 9.88753)
(9.88752 2.72883 -0.159178 9.88755 -4.65388e-06 9.88752)
(9.60644 2.60694 -0.154268 9.60644 9.72625e-07 9.60644)
(9.60644 2.60694 -0.154268 9.60642 4.84972e-06 9.60644)
(9.33165 2.49097 -0.149522 9.33165 4.50159e-24 9.33165)
(9.33164 2.49097 -0.149522 9.33167 -5.84947e-06 9.33164)
(9.06317 2.38117 -0.144966 9.06317 1.22616e-06 9.06317)
(9.06318 2.38117 -0.144966 9.06315 7.17864e-06 9.06318)
(8.80099 2.27767 -0.140627 8.80099 -1.51093e-21 8.80099)
(8.80097 2.27767 -0.140627 8.80101 -7.35203e-06 8.80097)
(8.54506 2.18045 -0.136518 8.54506 1.44982e-06 8.54506)
(8.54508 2.18045 -0.136518 8.54504 1.02919e-05 8.54508)
(8.29536 2.08929 -0.132649 8.29536 3.02307e-21 8.29536)
(8.29534 2.08929 -0.132649 8.29539 -9.36844e-06 8.29534)
(8.05181 2.00383 -0.12901 8.05181 1.69669e-06 8.05181)
(8.05183 2.00383 -0.12901 8.05178 1.45549e-05 8.05183)
(7.81434 1.92356 -0.125591 7.81434 -3.0111e-21 7.81434)
(7.81432 1.92356 -0.125591 7.81438 -1.22148e-05 7.81432)
(7.58286 1.84771 -0.122361 7.58286 1.88486e-06 7.58286)
(7.58288 1.84771 -0.122361 7.58282 1.84181e-05 7.58288)
(7.35729 1.77538 -0.119272 7.35729 -2.99868e-21 7.35729)
(7.35726 1.77538 -0.119272 7.35733 -1.58829e-05 7.35726)
(7.13751 1.70574 -0.116274 7.13751 2.06691e-06 7.13751)
(7.13753 1.70574 -0.116274 7.13746 2.32091e-05 7.13753)
(6.92343 1.63804 -0.11332 6.92343 3.70689e-21 6.92343)
(6.9234 1.63804 -0.11332 6.92348 -2.06975e-05 6.9234)
(6.71495 1.57166 -0.110363 6.71495 2.19344e-06 6.71495)
(6.71497 1.57166 -0.110363 6.71489 2.92301e-05 6.71497)
(6.51197 1.5063 -0.107371 6.51197 -0 6.51197)
(6.51194 1.5063 -0.107371 6.51203 -2.68965e-05 6.51194)
(6.31442 1.44193 -0.104339 6.31442 2.22495e-06 6.31442)
(6.31445 1.44193 -0.104339 6.31435 3.67707e-05 6.31445)
(6.12219 1.37866 -0.101268 6.12219 -3.5712e-22 6.12219)
(6.12216 1.37866 -0.101268 6.12226 -3.49203e-05 6.12216)
(5.93523 1.31672 -0.0981731 5.93523 2.17436e-06 5.93523)
(5.93526 1.31672 -0.0981731 5.93516 4.63326e-05 5.93526)
(5.75345 1.2565 -0.0950756 5.75345 -5.39476e-21 5.75345)
(5.75341 1.2565 -0.0950756 5.75352 -4.52619e-05 5.75341)
(5.57677 1.19827 -0.0920152 5.57677 1.98779e-06 5.57677)
(5.57681 1.19827 -0.0920152 5.5767 5.84457e-05 5.57681)
(5.40514 1.14226 -0.088999 5.40514 -1.06228e-22 5.40514)
(5.4051 1.14226 -0.088999 5.40522 -5.853e-05 5.4051)
(5.23848 1.0889 -0.0860625 5.23848 1.65566e-06 5.23848)
(5.23852 1.0889 -0.0860625 5.2384 7.38873e-05 5.23851)
(5.07672 1.0385 -0.0832493 5.07672 7.296e-22 5.07672)
(5.07668 1.0385 -0.0832494 5.07679 -7.90697e-05 5.07668)
(4.91978 0.991287 -0.0805758 4.91978 4.16201e-06 4.91978)
(4.91981 0.991287 -0.0805758 4.9197 9.24438e-05 4.91981)
(4.76758 0.947402 -0.0780774 4.76758 -0 4.76758)
(4.76755 0.947403 -0.0780775 4.76765 -0.000100754 4.76755)
(4.62006 0.90661 -0.0757599 4.62006 5.94671e-06 4.62006)
(4.62009 0.90661 -0.07576 4.62 0.000108542 4.62009)
(4.47711 0.868618 -0.0735976 4.47711 2.01215e-06 4.47711)
(4.47708 0.868619 -0.0735976 4.47717 -0.000117935 4.47708)
(4.33865 0.83312 -0.0715857 4.33865 6.27146e-06 4.33865)
(4.33867 0.833121 -0.0715858 4.33861 0.00012338 4.33867)
(4.2046 0.799721 -0.0696933 4.2046 2.17131e-06 4.2046)
(4.20458 0.799722 -0.0696934 4.20464 -0.000130863 4.20458)
(4.07487 0.767942 -0.0678984 4.07487 6.2931e-06 4.07487)
(4.07488 0.767943 -0.0678985 4.07485 0.000129626 4.07488)
(3.94936 0.736949 -0.0661516 3.94936 -5.25992e-06 3.94936)
(3.94935 0.736949 -0.0661517 3.94938 -0.000135732 3.94935)
(3.828 0.706316 -0.0643634 3.828 -2.43004e-06 3.82801)
(3.828 0.706316 -0.0643635 3.82801 0.000134373 3.828)
(3.71072 0.676193 -0.0625504 3.71072 -7.11584e-06 3.71072)
(3.71072 0.676194 -0.0625505 3.71071 -0.000133559 3.71072)
(3.59743 0.646638 -0.0607234 3.59743 -2.62731e-06 3.59743)
(3.59741 0.646639 -0.0607234 3.59745 0.000129537 3.59741)
(3.48807 0.617995 -0.0588829 3.48807 -7.26683e-06 3.48807)
(3.48809 0.617995 -0.0588829 3.48804 -0.000125948 3.48809)
(3.38259 0.590469 -0.0570948 3.38259 -3.55528e-22 3.38259)
(3.38257 0.590469 -0.0570949 3.38263 0.000119194 3.38257)
(3.28092 0.563982 -0.0553363 3.28092 -6.82748e-06 3.28092)
(3.28094 0.563982 -0.0553363 3.28087 -0.000112906 3.28094)
(3.18301 0.538917 -0.0536215 3.18301 -1.41861e-21 3.18301)
(3.18297 0.538917 -0.0536215 3.18306 0.000103846 3.18297)
(3.0888 0.515557 -0.0520174 3.0888 -3.63458e-06 3.0888)
(3.08882 0.515557 -0.0520174 3.08874 -0.000101248 3.08882)
(2.99824 0.494185 -0.0505221 2.99824 1.77671e-21 2.99824)
(2.9982 0.494185 -0.0505221 2.9983 8.43328e-05 2.9982)
(2.91128 0.475698 -0.0492074 2.91128 -4.10635e-06 2.91128)
(2.91131 0.475699 -0.0492074 2.91121 -8.66451e-05 2.91131)
(2.82786 0.460709 -0.0482005 2.82786 -1.41486e-21 2.82786)
(2.82782 0.460709 -0.0482005 2.82793 6.89676e-05 2.82782)
(2.74793 0.449426 -0.047524 2.74793 -4.56779e-06 2.74793)
(2.74796 0.449427 -0.047524 2.74786 -7.44497e-05 2.74796)
(2.67141 0.442214 -0.0472294 2.67141 -2.21056e-22 2.67141)
(2.67138 0.442215 -0.0472295 2.67148 5.74183e-05 2.67138)
(2.59825 0.439101 -0.0473758 2.59825 -4.98563e-06 2.59825)
(2.59828 0.439102 -0.0473759 2.59819 -6.42007e-05 2.59828)
(2.52835 0.439723 -0.0479471 2.52835 -0 2.52835)
(2.52831 0.439723 -0.0479472 2.52841 4.50228e-05 2.52831)
(2.46162 0.44349 -0.048917 2.46162 -5.34487e-06 2.46162)
(2.46165 0.443491 -0.0489171 2.46157 -5.55852e-05 2.46165)
(2.39798 0.449447 -0.0502162 2.39798 -0 2.39798)
(2.39795 0.449448 -0.0502163 2.39804 2.66985e-05 2.39795)
(2.33731 0.456239 -0.0517278 2.33731 -5.63589e-06 2.33731)
(2.33733 0.45624 -0.051728 2.33726 -4.83192e-05 2.33733)
(2.27951 0.462819 -0.0532797 2.27951 1.52846e-21 2.27951)
(2.27948 0.46282 -0.0532798 2.27957 1.24864e-05 2.27948)
(2.22449 0.468834 -0.0548094 2.22449 -5.88586e-06 2.22449)
(2.22451 0.468836 -0.0548096 2.22444 -4.21796e-05 2.22451)
(2.17213 0.474492 -0.0562955 2.17213 -0 2.17213)
(2.1721 0.474494 -0.0562957 2.17218 2.94878e-06 2.1721)
(2.12234 0.480478 -0.0578055 2.12234 -6.11421e-06 2.12234)
(2.12236 0.48048 -0.0578057 2.1223 -3.70217e-05 2.12236)
(2.075 0.48739 -0.0594367 2.07505 1.31453e-06 2.075)
(2.07502 0.487392 -0.0594369 2.07502 -5.69758e-06 2.07502)
(2.03007 0.495615 -0.0612441 2.03007 -6.29838e-06 2.03007)
(2.03008 0.495617 -0.0612443 2.03003 -3.26809e-05 2.03008)
(1.98735 0.505354 -0.063281 1.98743 7.21562e-06 1.98735)
(1.98737 0.505356 -0.0632813 1.98737 -6.63569e-06 1.98737)
(1.94682 0.516546 -0.0655611 1.94682 -6.46738e-06 1.94682)
(1.94684 0.516549 -0.0655614 1.9468 -2.90265e-05 1.94684)
(1.90827 0.528973 -0.068073 1.90833 1.09681e-05 1.90827)
(1.90829 0.528976 -0.0680733 1.90829 -6.97637e-06 1.90829)
(1.87164 0.542556 -0.0707888 1.87164 -6.78543e-06 1.87164)
(1.87165 0.542559 -0.0707891 1.87161 -2.61399e-05 1.87165)
(1.8367 0.557021 -0.0737318 1.83675 1.13565e-05 1.8367)
(1.83672 0.557024 -0.0737322 1.83672 -7.31192e-06 1.83672)
(1.80339 0.571469 -0.0768191 1.80339 -7.21998e-06 1.80339)
(1.8034 0.571473 -0.0768195 1.80337 -2.38987e-05 1.8034)
(1.77147 0.584633 -0.0798996 1.7715 7.60855e-06 1.77147)
(1.77148 0.584636 -0.0799001 1.77148 -7.72372e-06 1.77148)
(1.74084 0.595043 -0.0827729 1.74084 -7.75457e-06 1.74084)
(1.74085 0.595046 -0.0827734 1.74082 -2.21623e-05 1.74085)
(1.71132 0.601635 -0.085212 1.71135 4.99818e-06 1.71132)
(1.71133 0.601638 -0.0852125 1.71133 -8.29133e-06 1.71133)
(1.68282 0.604124 -0.087109 1.68282 -8.38793e-06 1.68282)
(1.68282 0.604127 -0.0871095 1.68281 -2.08757e-05 1.68282)
(1.65521 0.60313 -0.0884449 1.65523 2.68679e-06 1.65521)
(1.65522 0.603134 -0.0884454 1.65522 -8.82197e-06 1.65522)
(1.62846 0.60007 -0.0893729 1.62846 -8.78328e-06 1.62846)
(1.62846 0.600073 -0.0893734 1.62845 -1.96405e-05 1.62846)
(1.60247 0.59672 -0.0901207 1.60249 9.57076e-07 1.60247)
(1.60248 0.596724 -0.0901213 1.60248 -9.04222e-06 1.60248)
(1.57723 0.595085 -0.0909741 1.57723 -8.87909e-06 1.57723)
(1.57723 0.595089 -0.0909747 1.57722 -1.83615e-05 1.57723)
(1.55264 0.596151 -0.0922601 1.55265 -3.46309e-07 1.55264)
(1.55264 0.596156 -0.0922608 1.55264 -9.17048e-06 1.55264)
(1.52864 0.599264 -0.0939789 1.52864 -9.18654e-06 1.52864)
(1.52864 0.59927 -0.0939797 1.52864 -1.75734e-05 1.52864)
(1.50511 0.602752 -0.0959578 1.50512 -1.71319e-06 1.50511)
(1.50511 0.602758 -0.0959588 1.50511 -9.61762e-06 1.50511)
(1.48197 0.604669 -0.0978585 1.48197 -9.85279e-06 1.48197)
(1.48197 0.604675 -0.0978595 1.48197 -1.73762e-05 1.48197)
(1.45912 0.6041 -0.0993916 1.45912 -3.19534e-06 1.45912)
(1.45912 0.604107 -0.0993927 1.45912 -1.0318e-05 1.45912)
(1.43647 0.601057 -0.100526 1.43647 -1.06024e-05 1.43647)
(1.43647 0.601064 -0.100527 1.43647 -1.74002e-05 1.43647)
(1.41397 0.595783 -0.101262 1.41397 -4.60293e-06 1.41397)
(1.41397 0.59579 -0.101264 1.41397 -1.10498e-05 1.41397)
(1.39158 0.588238 -0.101648 1.39158 -1.12679e-05 1.39158)
(1.39158 0.588245 -0.101649 1.39158 -1.74736e-05 1.39158)
(1.36928 0.577927 -0.101589 1.36927 -5.7729e-06 1.36928)
(1.36928 0.577934 -0.10159 1.36928 -1.17169e-05 1.36928)
(1.34706 0.564383 -0.10097 1.34706 -1.20474e-05 1.34706)
(1.34705 0.56439 -0.100972 1.34706 -1.7785e-05 1.34705)
(1.32495 0.547758 -0.0996997 1.32494 -7.0228e-06 1.32495)
(1.32494 0.547765 -0.0997009 1.32494 -1.25725e-05 1.32494)
(1.30299 0.529575 -0.0978757 1.30299 -1.27563e-05 1.30299)
(1.30299 0.529582 -0.0978769 1.303 -1.82483e-05 1.30299)
(1.28126 0.512279 -0.0959092 1.28125 -7.70862e-06 1.28126)
(1.28126 0.512287 -0.0959106 1.28126 -1.30633e-05 1.28126)
(1.2598 0.498299 -0.09427 1.2598 -1.30689e-05 1.2598)
(1.25979 0.498308 -0.0942716 1.25981 -1.84965e-05 1.25979)
(1.23866 0.489527 -0.0934126 1.23864 -7.89827e-06 1.23866)
(1.23865 0.48954 -0.0934146 1.23865 -1.32928e-05 1.23865)
(1.21781 0.486648 -0.0936541 1.21781 -1.34583e-05 1.21781)
(1.2178 0.486663 -0.0936568 1.21782 -1.89477e-05 1.2178)
(1.19723 0.489 -0.0950216 1.19721 -8.32364e-06 1.19723)
(1.19722 0.48902 -0.095025 1.19722 -1.3912e-05 1.19722)
(1.1768 0.495669 -0.0973225 1.1768 -1.41436e-05 1.1768)
(1.17679 0.495694 -0.0973269 1.17682 -1.99474e-05 1.17679)
(1.15643 0.505719 -0.100472 1.15641 -8.62186e-06 1.15643)
(1.15642 0.505749 -0.100478 1.15642 -1.46487e-05 1.15642)
(1.13592 0.516518 -0.104249 1.13592 -1.5072e-05 1.13592)
(1.13591 0.516554 -0.104256 1.13594 -2.13819e-05 1.13591)
(1.11513 0.523356 -0.107849 1.1151 -9.13787e-06 1.11513)
(1.11512 0.523396 -0.107857 1.11512 -1.58182e-05 1.11512)
(1.09386 0.52139 -0.110127 1.09386 -1.64227e-05 1.09386)
(1.09385 0.521434 -0.110136 1.09388 -2.3495e-05 1.09385)
(1.07207 0.508047 -0.110119 1.07204 -9.66088e-06 1.07207)
(1.07206 0.508093 -0.110129 1.07206 -1.71854e-05 1.07206)
(1.04973 0.483871 -0.107541 1.04973 -1.75163e-05 1.04973)
(1.04972 0.483917 -0.107551 1.04975 -2.56761e-05 1.04972)
(1.02699 0.450764 -0.102715 1.02695 -9.3465e-06 1.02699)
(1.02698 0.450812 -0.102725 1.02698 -1.81443e-05 1.02698)
(1.00398 0.411203 -0.0959533 1.00398 -1.84092e-05 1.00398)
(1.00397 0.411256 -0.0959642 1.00401 -2.8045e-05 1.00397)