/*--------------------------------*- C++ -*----------------------------------*\
| =========                 |                                                 |
| \\      /  F ield         | OpenFOAM: The Open Source CFD Toolbox           |
|  \\    /   O peration     | Version:  2106                                  |
|   \\  /    A nd           | Website:  www.openfoam.com                      |
|    \\/     M anipulation  |                                                 |
\*---------------------------------------------------------------------------*/
FoamFile
{
    version     2.0;
    format      ascii;
    arch        "LSB;label=32;scalar=64";
    class       volScalarField;
    location    "2000";
    object      omega;
}
// * * * * * * * * * * * * * * * * * * * * * * * * * * * * * * * * * * * * * //

dimensions      [0 0 -1 0 0 0 0];

internalField   nonuniform List<scalar> 
2560
(
773531
773531
134577
134577
45618.3
45618.3
21511.5
21511.5
12192.8
12192.8
7744.24
7744.24
5308.94
5308.94
3842.98
3842.98
2897.22
2897.22
2254.14
2254.14
1798.53
1798.53
1464.93
1464.93
1214.04
1214.04
1021.08
1021.08
869.889
869.889
749.523
749.523
652.383
652.383
573.057
573.057
507.606
507.606
453.108
453.108
407.359
407.359
368.669
368.669
335.726
335.726
307.496
307.496
283.156
283.156
262.047
262.047
243.633
243.633
227.476
227.476
213.219
213.219
200.564
200.564
189.267
189.267
179.125
179.125
169.968
169.968
161.657
161.657
154.074
154.074
147.121
147.121
140.718
140.718
134.795
134.795
129.295
129.295
124.17
124.17
119.379
119.379
114.888
114.888
110.667
110.667
106.69
106.69
102.936
102.936
99.3841
99.3841
96.019
96.019
92.8253
92.8253
89.79
89.79
86.9013
86.9013
84.1485
84.1485
81.5223
81.5223
79.014
79.014
76.6158
76.6158
74.3204
74.3204
72.1215
72.1215
70.0129
70.0129
67.9891
67.9891
66.0451
66.0451
64.1762
64.1762
62.378
62.378
60.6464
60.6464
58.9778
58.9778
57.3686
57.3686
55.8157
55.8157
54.3161
54.3161
52.8669
52.8669
51.4656
51.4656
50.1097
50.1097
48.797
48.797
47.5254
47.5254
46.2929
46.2929
45.0976
45.0976
43.9379
43.9379
42.8121
42.8121
41.7188
41.7188
40.6565
40.6565
39.6238
39.6238
38.6197
38.6197
37.6428
37.6428
36.6921
36.6921
35.7666
35.7666
34.8653
34.8653
33.9874
33.9874
33.1318
33.1318
32.2979
32.2979
31.4849
31.4849
30.6921
30.6921
29.9187
29.9187
29.1642
29.1642
28.4279
28.4279
27.7094
27.7094
27.0079
27.0079
26.3231
26.3231
25.6544
25.6544
25.0013
25.0013
24.3635
24.3635
23.7405
23.7405
23.1319
23.1319
22.5373
22.5373
21.9564
21.9564
21.3888
21.3888
20.8341
20.8341
20.2921
20.2921
19.7624
19.7624
19.2448
19.2448
18.7389
18.7389
18.2445
18.2445
17.7613
17.7613
17.2891
17.2891
16.8276
16.8276
16.3766
16.3766
15.9358
15.9358
15.505
15.505
15.0841
15.0841
14.6727
14.6727
14.2707
14.2707
13.8779
13.8779
13.4941
13.4941
13.1191
13.1191
12.7527
12.7527
12.3947
12.3947
12.045
12.045
11.7034
11.7034
11.3697
11.3697
11.0438
11.0438
10.7254
10.7254
10.4145
10.4145
10.1108
10.1108
9.81427
9.81427
9.52469
9.52469
9.24193
9.24193
8.96584
8.96584
8.69629
8.69629
8.43313
8.43313
8.17623
8.17623
7.92544
7.92544
7.68065
7.68065
7.4417
7.4417
7.20849
7.20849
6.98088
6.98088
6.75874
6.75874
6.54196
6.54196
6.33041
6.33041
6.12398
6.12398
5.92255
5.92255
5.726
5.726
5.53423
5.53423
5.34712
5.34712
5.16457
5.16457
4.98648
4.98648
4.81273
4.81273
4.64323
4.64323
4.47788
4.47788
4.31658
4.31658
4.15924
4.15924
4.00577
4.00577
3.85608
3.85608
3.71008
3.71008
3.56769
3.56769
3.42883
3.42883
3.29342
3.29342
3.16139
3.16139
3.03266
3.03266
2.90717
2.90717
2.78485
2.78486
2.66565
2.66565
2.5495
2.5495
2.43636
2.43636
2.32617
2.32617
2.21888
2.21888
2.11447
2.11447
2.01288
2.01288
1.9141
1.9141
1.81809
1.81809
1.72484
1.72484
1.63432
1.63432
1.54653
1.54653
1.46145
1.46145
1.37909
1.37909
1.29944
1.29944
1.22252
1.22252
1.14833
1.14833
1.07689
1.07689
1.00821
1.00821
0.942307
0.942307
0.879199
0.879199
0.818902
0.818903
0.761431
0.761432
0.706796
0.706797
0.655002
0.655002
0.606045
0.606045
0.559915
0.559915
0.516588
0.516589
0.476031
0.476031
0.438195
0.438195
0.403019
0.403019
0.370426
0.370426
0.340326
0.340326
0.312618
0.312618
0.287188
0.287188
0.263912
0.263912
0.242662
0.242662
0.223305
0.223305
0.205704
0.205704
0.189726
0.189726
0.175238
0.175238
0.162113
0.162113
0.150231
0.150231
0.139477
0.139477
0.129744
0.129744
0.120933
0.120933
0.112955
0.112955
0.105726
0.105726
0.0991715
0.0991715
0.0932231
0.0932231
0.0878199
0.0878199
0.0829068
0.0829068
0.0784345
0.0784345
0.074359
0.074359
0.0706407
0.0706407
0.0672445
0.0672445
0.0641387
0.0641387
0.0612955
0.0612955
0.0586895
0.0586895
0.0562984
0.0562984
0.0541022
0.0541022
0.0520828
0.0520829
0.0502243
0.0502243
0.0485122
0.0485122
0.0469336
0.0469336
0.0454768
0.0454768
0.0441315
0.0441315
0.0428881
0.0428881
0.0417383
0.0417383
0.0406743
0.0406743
0.0396892
0.0396892
0.0387767
0.0387767
0.0379312
0.0379312
0.0371473
0.0371473
0.0364204
0.0364204
0.0357462
0.0357462
0.0351208
0.0351208
0.0345406
0.0345406
0.0340021
0.0340021
0.0335026
0.0335026
0.033039
0.033039
0.032609
0.032609
0.0322101
0.0322101
0.0318401
0.0318401
0.031497
0.031497
0.031179
0.031179
0.0308842
0.0308842
0.0306111
0.0306111
0.0303581
0.0303581
0.0301239
0.0301239
0.029907
0.029907
0.0297063
0.0297063
0.0295205
0.0295205
0.0293486
0.0293486
0.0291895
0.0291895
0.0290422
0.0290422
0.0289059
0.0289059
0.0287796
0.0287796
0.0286624
0.0286624
0.0285536
0.0285536
0.0284525
0.0284525
0.0283583
0.0283583
0.0282702
0.0282702
0.0281878
0.0281878
0.0281102
0.0281102
0.0280369
0.0280369
0.0279674
0.0279674
0.0279011
0.0279011
0.0278374
0.0278374
0.0277759
0.0277759
0.027716
0.027716
0.0276573
0.0276573
0.0275994
0.0275994
0.0275418
0.0275419
0.0274842
0.0274842
0.0274261
0.0274261
0.0273673
0.0273673
0.0273072
0.0273072
0.0272458
0.0272458
0.0271826
0.0271826
0.0271175
0.0271175
0.0270501
0.0270501
0.0269803
0.0269803
0.0269079
0.0269079
0.0268327
0.0268327
0.0267546
0.0267546
0.0266736
0.0266736
0.0265896
0.0265896
0.0265025
0.0265025
0.0264125
0.0264125
0.0263195
0.0263195
0.0262238
0.0262238
0.0261255
0.0261255
0.0260247
0.0260247
0.0259219
0.0259219
0.0258173
0.0258173
0.0257113
0.0257113
0.0256045
0.0256045
0.0254972
0.0254972
0.0253902
0.0253902
0.025284
0.025284
0.0251794
0.0251794
0.0250772
0.0250773
0.0249783
0.0249783
0.0248835
0.0248835
0.0247938
0.0247938
0.0247102
0.0247102
0.0246337
0.0246338
0.0245654
0.0245654
0.0245063
0.0245063
0.0244573
0.0244573
0.0244194
0.0244194
0.0243935
0.0243935
0.0243802
0.0243802
773531
773531
134577
134577
45618.3
45618.3
21511.5
21511.5
12192.8
12192.8
7744.24
7744.24
5308.94
5308.94
3842.98
3842.98
2897.22
2897.22
2254.14
2254.14
1798.53
1798.53
1464.93
1464.93
1214.04
1214.04
1021.08
1021.08
869.889
869.889
749.523
749.523
652.383
652.383
573.057
573.057
507.606
507.606
453.108
453.108
407.359
407.359
368.669
368.669
335.726
335.726
307.496
307.496
283.156
283.156
262.047
262.047
243.633
243.633
227.476
227.476
213.219
213.219
200.564
200.564
189.267
189.267
179.125
179.125
169.968
169.968
161.657
161.657
154.074
154.074
147.121
147.121
140.718
140.718
134.795
134.795
129.295
129.295
124.17
124.17
119.379
119.379
114.888
114.888
110.667
110.667
106.69
106.69
102.936
102.936
99.3841
99.3841
96.019
96.019
92.8253
92.8253
89.79
89.79
86.9013
86.9013
84.1485
84.1485
81.5223
81.5223
79.014
79.014
76.6158
76.6158
74.3204
74.3204
72.1215
72.1215
70.0129
70.0129
67.9891
67.9891
66.0451
66.0451
64.1762
64.1762
62.378
62.378
60.6464
60.6464
58.9778
58.9778
57.3686
57.3686
55.8157
55.8157
54.3161
54.3161
52.8669
52.8669
51.4656
51.4656
50.1097
50.1097
48.797
48.797
47.5254
47.5254
46.2929
46.2929
45.0976
45.0976
43.9379
43.9379
42.8121
42.8121
41.7188
41.7188
40.6565
40.6565
39.6238
39.6238
38.6197
38.6197
37.6428
37.6428
36.6921
36.6921
35.7666
35.7666
34.8653
34.8653
33.9874
33.9874
33.1318
33.1318
32.2979
32.2979
31.4849
31.4849
30.6921
30.6921
29.9187
29.9187
29.1642
29.1642
28.4279
28.4279
27.7094
27.7094
27.0079
27.0079
26.3231
26.3231
25.6544
25.6544
25.0013
25.0013
24.3635
24.3635
23.7405
23.7405
23.1319
23.1319
22.5373
22.5373
21.9564
21.9564
21.3888
21.3888
20.8341
20.8341
20.2921
20.2921
19.7624
19.7624
19.2448
19.2448
18.7389
18.7389
18.2445
18.2445
17.7613
17.7613
17.2891
17.2891
16.8276
16.8276
16.3766
16.3766
15.9358
15.9358
15.505
15.505
15.0841
15.0841
14.6727
14.6727
14.2707
14.2707
13.8779
13.8779
13.4941
13.4941
13.1191
13.1191
12.7527
12.7527
12.3947
12.3947
12.045
12.045
11.7034
11.7034
11.3697
11.3697
11.0438
11.0438
10.7254
10.7254
10.4145
10.4145
10.1108
10.1108
9.81427
9.81427
9.52469
9.52469
9.24193
9.24193
8.96584
8.96584
8.69629
8.69629
8.43313
8.43313
8.17623
8.17623
7.92544
7.92544
7.68065
7.68065
7.4417
7.4417
7.20849
7.20849
6.98088
6.98088
6.75874
6.75874
6.54196
6.54196
6.33041
6.33041
6.12398
6.12398
5.92255
5.92255
5.726
5.726
5.53423
5.53423
5.34712
5.34712
5.16457
5.16457
4.98648
4.98648
4.81273
4.81273
4.64323
4.64323
4.47788
4.47788
4.31658
4.31658
4.15924
4.15924
4.00577
4.00577
3.85608
3.85608
3.71008
3.71008
3.56769
3.56769
3.42883
3.42883
3.29342
3.29342
3.16139
3.16139
3.03266
3.03266
2.90717
2.90717
2.78486
2.78486
2.66565
2.66565
2.5495
2.5495
2.43636
2.43636
2.32617
2.32617
2.21888
2.21888
2.11447
2.11447
2.01288
2.01288
1.9141
1.9141
1.81809
1.81809
1.72484
1.72484
1.63432
1.63432
1.54653
1.54653
1.46145
1.46145
1.37909
1.37909
1.29944
1.29944
1.22252
1.22252
1.14833
1.14833
1.07689
1.07689
1.00821
1.00821
0.942307
0.942308
0.879199
0.8792
0.818903
0.818903
0.761432
0.761432
0.706797
0.706797
0.655002
0.655002
0.606045
0.606046
0.559915
0.559915
0.516589
0.516589
0.476031
0.476032
0.438195
0.438196
0.403019
0.403019
0.370426
0.370426
0.340326
0.340327
0.312618
0.312618
0.287188
0.287188
0.263912
0.263912
0.242662
0.242663
0.223305
0.223305
0.205704
0.205704
0.189726
0.189726
0.175238
0.175238
0.162113
0.162113
0.150231
0.150231
0.139477
0.139477
0.129744
0.129744
0.120933
0.120933
0.112955
0.112955
0.105726
0.105726
0.0991715
0.0991715
0.0932231
0.0932231
0.0878199
0.0878199
0.0829068
0.0829068
0.0784345
0.0784345
0.074359
0.074359
0.0706407
0.0706407
0.0672445
0.0672445
0.0641387
0.0641388
0.0612955
0.0612955
0.0586895
0.0586895
0.0562984
0.0562984
0.0541022
0.0541022
0.0520829
0.0520829
0.0502243
0.0502243
0.0485122
0.0485122
0.0469336
0.0469336
0.0454768
0.0454768
0.0441315
0.0441315
0.0428881
0.0428881
0.0417383
0.0417383
0.0406743
0.0406743
0.0396892
0.0396892
0.0387767
0.0387767
0.0379312
0.0379312
0.0371473
0.0371473
0.0364204
0.0364204
0.0357462
0.0357463
0.0351208
0.0351208
0.0345406
0.0345406
0.0340021
0.0340021
0.0335026
0.0335026
0.033039
0.033039
0.032609
0.032609
0.0322101
0.0322101
0.0318401
0.0318401
0.031497
0.031497
0.031179
0.031179
0.0308842
0.0308842
0.0306111
0.0306111
0.0303581
0.0303581
0.0301239
0.0301239
0.029907
0.029907
0.0297063
0.0297063
0.0295205
0.0295205
0.0293486
0.0293486
0.0291895
0.0291895
0.0290422
0.0290422
0.0289059
0.0289059
0.0287796
0.0287796
0.0286624
0.0286624
0.0285536
0.0285536
0.0284525
0.0284525
0.0283583
0.0283583
0.0282702
0.0282702
0.0281878
0.0281878
0.0281102
0.0281102
0.0280369
0.0280369
0.0279674
0.0279674
0.0279011
0.0279011
0.0278374
0.0278374
0.0277759
0.0277759
0.027716
0.027716
0.0276573
0.0276573
0.0275994
0.0275994
0.0275419
0.0275419
0.0274842
0.0274842
0.0274261
0.0274261
0.0273673
0.0273673
0.0273072
0.0273072
0.0272458
0.0272458
0.0271826
0.0271826
0.0271175
0.0271175
0.0270501
0.0270501
0.0269803
0.0269803
0.0269079
0.0269079
0.0268327
0.0268327
0.0267546
0.0267546
0.0266736
0.0266736
0.0265896
0.0265896
0.0265025
0.0265025
0.0264125
0.0264125
0.0263195
0.0263195
0.0262238
0.0262238
0.0261255
0.0261255
0.0260247
0.0260247
0.0259219
0.0259219
0.0258173
0.0258173
0.0257113
0.0257113
0.0256045
0.0256045
0.0254972
0.0254972
0.0253902
0.0253902
0.025284
0.025284
0.0251794
0.0251794
0.0250773
0.0250773
0.0249783
0.0249783
0.0248835
0.0248835
0.0247938
0.0247938
0.0247102
0.0247102
0.0246338
0.0246338
0.0245654
0.0245654
0.0245063
0.0245063
0.0244573
0.0244573
0.0244194
0.0244194
0.0243935
0.0243935
0.0243802
0.0243802
0.0243802
0.0243802
0.0243935
0.0243935
0.0244195
0.0244195
0.0244573
0.0244574
0.0245063
0.0245063
0.0245655
0.0245655
0.0246338
0.0246338
0.0247103
0.0247103
0.0247939
0.0247939
0.0248836
0.0248836
0.0249784
0.0249784
0.0250774
0.0250774
0.0251795
0.0251796
0.0252841
0.0252841
0.0253903
0.0253903
0.0254973
0.0254974
0.0256046
0.0256046
0.0257115
0.0257115
0.0258175
0.0258175
0.0259221
0.0259221
0.0260249
0.0260249
0.0261256
0.0261256
0.026224
0.026224
0.0263197
0.0263197
0.0264126
0.0264126
0.0265027
0.0265027
0.0265897
0.0265897
0.0266738
0.0266738
0.0267548
0.0267548
0.0268329
0.0268329
0.0269081
0.0269081
0.0269805
0.0269805
0.0270503
0.0270503
0.0271177
0.0271177
0.0271828
0.0271828
0.027246
0.027246
0.0273074
0.0273074
0.0273674
0.0273674
0.0274263
0.0274263
0.0274844
0.0274844
0.027542
0.027542
0.0275996
0.0275996
0.0276575
0.0276575
0.0277162
0.0277162
0.0277761
0.0277761
0.0278376
0.0278376
0.0279013
0.0279013
0.0279676
0.0279676
0.0280371
0.0280371
0.0281104
0.0281104
0.0281879
0.0281879
0.0282704
0.0282704
0.0283584
0.0283584
0.0284526
0.0284526
0.0285538
0.0285538
0.0286625
0.0286625
0.0287797
0.0287797
0.028906
0.028906
0.0290423
0.0290423
0.0291896
0.0291896
0.0293487
0.0293487
0.0295206
0.0295206
0.0297063
0.0297063
0.0299071
0.0299071
0.0301239
0.0301239
0.0303582
0.0303582
0.0306111
0.0306111
0.0308842
0.0308842
0.031179
0.031179
0.031497
0.031497
0.0318401
0.0318401
0.03221
0.03221
0.0326089
0.0326089
0.0330389
0.0330389
0.0335024
0.0335024
0.034002
0.034002
0.0345404
0.0345404
0.0351206
0.0351206
0.035746
0.035746
0.0364201
0.0364202
0.037147
0.037147
0.0379308
0.0379308
0.0387763
0.0387763
0.0396888
0.0396888
0.0406738
0.0406738
0.0417377
0.0417377
0.0428875
0.0428875
0.0441308
0.0441308
0.045476
0.045476
0.0469327
0.0469327
0.0485112
0.0485112
0.0502232
0.0502232
0.0520816
0.0520817
0.0541009
0.0541009
0.056297
0.056297
0.0586879
0.0586879
0.0612937
0.0612937
0.0641367
0.0641367
0.0672422
0.0672422
0.0706382
0.0706383
0.0743562
0.0743563
0.0784315
0.0784315
0.0829034
0.0829034
0.0878161
0.0878162
0.093219
0.093219
0.0991669
0.0991669
0.105721
0.105721
0.112949
0.112949
0.120927
0.120927
0.129737
0.129737
0.139469
0.139469
0.150223
0.150223
0.162104
0.162104
0.175228
0.175228
0.189714
0.189715
0.205692
0.205692
0.223292
0.223292
0.242648
0.242648
0.263897
0.263897
0.287171
0.287171
0.312601
0.312601
0.340308
0.340308
0.370406
0.370406
0.402998
0.402998
0.438174
0.438174
0.476009
0.476009
0.516565
0.516566
0.559891
0.559892
0.606021
0.606022
0.654978
0.654978
0.706772
0.706773
0.761407
0.761408
0.818878
0.818879
0.879175
0.879176
0.942284
0.942284
1.00819
1.00819
1.07687
1.07687
1.14831
1.14831
1.2225
1.2225
1.29942
1.29942
1.37907
1.37907
1.46143
1.46143
1.54651
1.54651
1.6343
1.6343
1.72482
1.72482
1.81808
1.81808
1.91409
1.91409
2.01287
2.01287
2.11445
2.11445
2.21887
2.21887
2.32615
2.32615
2.43635
2.43635
2.54949
2.54949
2.66564
2.66564
2.78485
2.78485
2.90716
2.90716
3.03265
3.03265
3.16138
3.16138
3.29341
3.29341
3.42882
3.42882
3.56768
3.56768
3.71007
3.71007
3.85607
3.85607
4.00576
4.00576
4.15924
4.15924
4.31657
4.31657
4.47787
4.47787
4.64322
4.64322
4.81273
4.81273
4.98647
4.98647
5.16457
5.16457
5.34712
5.34712
5.53423
5.53423
5.726
5.726
5.92254
5.92254
6.12398
6.12398
6.33041
6.33041
6.54196
6.54196
6.75874
6.75874
6.98088
6.98088
7.20849
7.20849
7.4417
7.4417
7.68065
7.68065
7.92544
7.92544
8.17623
8.17623
8.43313
8.43313
8.69629
8.69629
8.96584
8.96584
9.24193
9.24193
9.52469
9.52469
9.81427
9.81427
10.1108
10.1108
10.4145
10.4145
10.7254
10.7254
11.0438
11.0438
11.3697
11.3697
11.7034
11.7034
12.045
12.045
12.3947
12.3947
12.7527
12.7527
13.1191
13.1191
13.4941
13.4941
13.8779
13.8779
14.2707
14.2707
14.6727
14.6727
15.0841
15.0841
15.505
15.505
15.9358
15.9358
16.3766
16.3766
16.8276
16.8276
17.2891
17.2891
17.7613
17.7613
18.2445
18.2445
18.7389
18.7389
19.2448
19.2448
19.7624
19.7624
20.2921
20.2921
20.8341
20.8341
21.3888
21.3888
21.9564
21.9564
22.5373
22.5373
23.1319
23.1319
23.7405
23.7405
24.3635
24.3635
25.0013
25.0013
25.6544
25.6544
26.3231
26.3231
27.0079
27.0079
27.7094
27.7094
28.4279
28.4279
29.1642
29.1642
29.9187
29.9187
30.6921
30.6921
31.4849
31.4849
32.2979
32.2979
33.1318
33.1318
33.9874
33.9874
34.8653
34.8653
35.7666
35.7666
36.6921
36.6921
37.6428
37.6428
38.6197
38.6197
39.6238
39.6238
40.6565
40.6565
41.7188
41.7188
42.8121
42.8121
43.9379
43.9379
45.0976
45.0976
46.2929
46.2929
47.5254
47.5254
48.797
48.797
50.1097
50.1097
51.4656
51.4656
52.8669
52.8669
54.3161
54.3161
55.8157
55.8157
57.3686
57.3686
58.9778
58.9778
60.6464
60.6464
62.378
62.378
64.1762
64.1762
66.0451
66.0451
67.9891
67.9891
70.0129
70.0129
72.1215
72.1215
74.3204
74.3204
76.6158
76.6158
79.014
79.014
81.5223
81.5223
84.1485
84.1485
86.9013
86.9013
89.79
89.79
92.8253
92.8253
96.019
96.019
99.3841
99.3841
102.936
102.936
106.69
106.69
110.667
110.667
114.888
114.888
119.379
119.379
124.17
124.17
129.295
129.295
134.795
134.795
140.718
140.718
147.121
147.121
154.074
154.074
161.657
161.657
169.968
169.968
179.125
179.125
189.267
189.267
200.564
200.564
213.219
213.219
227.476
227.476
243.633
243.633
262.047
262.047
283.156
283.156
307.496
307.496
335.726
335.726
368.67
368.67
407.359
407.359
453.108
453.108
507.606
507.606
573.057
573.057
652.383
652.383
749.523
749.523
869.89
869.89
1021.08
1021.08
1214.04
1214.04
1464.94
1464.94
1798.53
1798.53
2254.14
2254.14
2897.22
2897.22
3842.98
3842.98
5308.94
5308.94
7744.24
7744.24
12192.8
12192.8
21511.5
21511.5
45618.4
45618.4
134577
134577
773536
773536
0.0243802
0.0243802
0.0243935
0.0243935
0.0244195
0.0244195
0.0244574
0.0244574
0.0245063
0.0245063
0.0245655
0.0245655
0.0246338
0.0246338
0.0247103
0.0247103
0.0247939
0.0247939
0.0248836
0.0248836
0.0249784
0.0249784
0.0250774
0.0250774
0.0251796
0.0251796
0.0252841
0.0252841
0.0253903
0.0253903
0.0254974
0.0254974
0.0256046
0.0256046
0.0257115
0.0257115
0.0258175
0.0258175
0.0259221
0.0259221
0.0260249
0.0260249
0.0261256
0.0261256
0.026224
0.026224
0.0263197
0.0263197
0.0264127
0.0264127
0.0265027
0.0265027
0.0265897
0.0265897
0.0266738
0.0266738
0.0267548
0.0267548
0.0268329
0.0268329
0.0269081
0.0269081
0.0269805
0.0269805
0.0270503
0.0270503
0.0271177
0.0271177
0.0271828
0.0271828
0.027246
0.027246
0.0273074
0.0273074
0.0273674
0.0273674
0.0274263
0.0274263
0.0274844
0.0274844
0.027542
0.027542
0.0275996
0.0275996
0.0276575
0.0276575
0.0277162
0.0277162
0.0277761
0.0277761
0.0278376
0.0278376
0.0279013
0.0279013
0.0279676
0.0279676
0.0280371
0.0280371
0.0281104
0.0281104
0.0281879
0.0281879
0.0282704
0.0282704
0.0283584
0.0283584
0.0284526
0.0284526
0.0285538
0.0285538
0.0286625
0.0286625
0.0287797
0.0287797
0.028906
0.028906
0.0290423
0.0290423
0.0291896
0.0291896
0.0293487
0.0293487
0.0295206
0.0295206
0.0297063
0.0297063
0.0299071
0.0299071
0.0301239
0.0301239
0.0303582
0.0303582
0.0306111
0.0306111
0.0308842
0.0308842
0.031179
0.031179
0.031497
0.031497
0.0318401
0.0318401
0.03221
0.03221
0.0326089
0.0326089
0.0330389
0.0330389
0.0335024
0.0335024
0.034002
0.034002
0.0345404
0.0345404
0.0351206
0.0351206
0.035746
0.035746
0.0364202
0.0364202
0.037147
0.037147
0.0379308
0.0379308
0.0387763
0.0387763
0.0396888
0.0396888
0.0406738
0.0406738
0.0417377
0.0417377
0.0428875
0.0428875
0.0441308
0.0441308
0.045476
0.045476
0.0469327
0.0469327
0.0485112
0.0485112
0.0502232
0.0502232
0.0520817
0.0520817
0.0541009
0.0541009
0.056297
0.056297
0.0586879
0.0586879
0.0612937
0.0612937
0.0641367
0.0641368
0.0672422
0.0672422
0.0706383
0.0706383
0.0743563
0.0743563
0.0784315
0.0784315
0.0829034
0.0829034
0.0878162
0.0878162
0.093219
0.093219
0.0991669
0.0991669
0.105721
0.105721
0.112949
0.11295
0.120927
0.120927
0.129737
0.129737
0.139469
0.139469
0.150223
0.150223
0.162104
0.162104
0.175228
0.175228
0.189715
0.189715
0.205692
0.205692
0.223292
0.223292
0.242648
0.242648
0.263897
0.263897
0.287171
0.287171
0.312601
0.312601
0.340308
0.340308
0.370406
0.370406
0.402998
0.402999
0.438174
0.438174
0.476009
0.476009
0.516566
0.516566
0.559892
0.559892
0.606022
0.606022
0.654978
0.654978
0.706772
0.706773
0.761408
0.761408
0.818879
0.818879
0.879176
0.879176
0.942284
0.942284
1.00819
1.00819
1.07687
1.07687
1.14831
1.14831
1.2225
1.2225
1.29942
1.29942
1.37907
1.37907
1.46143
1.46143
1.54651
1.54651
1.6343
1.6343
1.72482
1.72482
1.81808
1.81808
1.91409
1.91409
2.01287
2.01287
2.11445
2.11445
2.21887
2.21887
2.32615
2.32615
2.43635
2.43635
2.54949
2.54949
2.66564
2.66564
2.78485
2.78485
2.90716
2.90716
3.03265
3.03265
3.16138
3.16138
3.29341
3.29341
3.42882
3.42882
3.56768
3.56768
3.71007
3.71007
3.85607
3.85607
4.00576
4.00576
4.15924
4.15924
4.31657
4.31658
4.47787
4.47787
4.64322
4.64322
4.81273
4.81273
4.98647
4.98647
5.16457
5.16457
5.34712
5.34712
5.53423
5.53423
5.726
5.726
5.92254
5.92254
6.12398
6.12398
6.33041
6.33041
6.54196
6.54196
6.75874
6.75874
6.98088
6.98088
7.20849
7.20849
7.4417
7.4417
7.68065
7.68065
7.92544
7.92544
8.17623
8.17623
8.43313
8.43313
8.69629
8.69629
8.96584
8.96584
9.24193
9.24193
9.52469
9.52469
9.81427
9.81427
10.1108
10.1108
10.4145
10.4145
10.7254
10.7254
11.0438
11.0438
11.3697
11.3697
11.7034
11.7034
12.045
12.045
12.3947
12.3947
12.7527
12.7527
13.1191
13.1191
13.4941
13.4941
13.8779
13.8779
14.2707
14.2707
14.6727
14.6727
15.0841
15.0841
15.505
15.505
15.9358
15.9358
16.3766
16.3766
16.8276
16.8276
17.2891
17.2891
17.7613
17.7613
18.2445
18.2445
18.7389
18.7389
19.2448
19.2448
19.7624
19.7624
20.2921
20.2921
20.8341
20.8341
21.3888
21.3888
21.9564
21.9564
22.5373
22.5373
23.1319
23.1319
23.7405
23.7405
24.3635
24.3635
25.0013
25.0013
25.6544
25.6544
26.3231
26.3231
27.0079
27.0079
27.7094
27.7094
28.4279
28.4279
29.1642
29.1642
29.9187
29.9187
30.6921
30.6921
31.4849
31.4849
32.2979
32.2979
33.1318
33.1318
33.9874
33.9874
34.8653
34.8653
35.7666
35.7666
36.6921
36.6921
37.6428
37.6428
38.6197
38.6197
39.6238
39.6238
40.6565
40.6565
41.7188
41.7188
42.8121
42.8121
43.9379
43.9379
45.0976
45.0976
46.2929
46.2929
47.5254
47.5254
48.797
48.797
50.1097
50.1097
51.4656
51.4656
52.8669
52.8669
54.3161
54.3161
55.8157
55.8157
57.3686
57.3686
58.9778
58.9778
60.6464
60.6464
62.378
62.378
64.1762
64.1762
66.0451
66.0451
67.9891
67.9891
70.0129
70.0129
72.1215
72.1215
74.3204
74.3204
76.6158
76.6158
79.014
79.014
81.5223
81.5223
84.1485
84.1485
86.9013
86.9013
89.79
89.79
92.8253
92.8253
96.019
96.019
99.3841
99.3841
102.936
102.936
106.69
106.69
110.667
110.667
114.888
114.888
119.379
119.379
124.17
124.17
129.295
129.295
134.795
134.795
140.718
140.718
147.121
147.121
154.074
154.074
161.657
161.657
169.968
169.968
179.125
179.125
189.267
189.267
200.564
200.564
213.219
213.219
227.476
227.476
243.633
243.633
262.047
262.047
283.156
283.156
307.496
307.496
335.726
335.726
368.67
368.67
407.359
407.359
453.108
453.108
507.606
507.606
573.057
573.057
652.383
652.383
749.523
749.523
869.89
869.89
1021.08
1021.08
1214.04
1214.04
1464.94
1464.94
1798.53
1798.53
2254.14
2254.14
2897.22
2897.22
3842.98
3842.98
5308.94
5308.94
7744.24
7744.24
12192.8
12192.8
21511.5
21511.5
45618.4
45618.4
134577
134577
773536
773536
)
;

boundaryField
{
    walls
    {
        blending        binomial2;
        n               2;
        beta1           0.075;
        type            omegaWallFunction;
        value           nonuniform List<scalar> 8(773531 773531 773531 773531 773536 773536 773536 773536);
    }
    inlet
    {
        type            cyclic;
    }
    outlet
    {
        type            cyclic;
    }
    sides
    {
        type            empty;
    }
}


// ************************************************************************* //
