/*--------------------------------*- C++ -*----------------------------------*\
| =========                 |                                                 |
| \\      /  F ield         | OpenFOAM: The Open Source CFD Toolbox           |
|  \\    /   O peration     | Version:  2012                                  |
|   \\  /    A nd           | Website:  www.openfoam.com                      |
|    \\/     M anipulation  |                                                 |
\*---------------------------------------------------------------------------*/
FoamFile
{
    version     2.0;
    format      ascii;
    class       volScalarField;
    location    "12600";
    object      nut;
}
// * * * * * * * * * * * * * * * * * * * * * * * * * * * * * * * * * * * * * //

dimensions      [0 2 -1 0 0 0 0];


internalField   nonuniform List<scalar> 
2560
(
1.14575e-08
1.14487e-08
1.88938e-06
1.88802e-06
3.76864e-05
3.76616e-05
0.000210683
0.000210581
0.000558157
0.000557957
0.00103233
0.00103203
0.00159423
0.00159385
0.00222251
0.00222203
0.00290491
0.00290433
0.00363367
0.003633
0.00440347
0.0044027
0.00521041
0.00520954
0.00605147
0.00605051
0.00692428
0.0069232
0.00782684
0.00782566
0.00875747
0.00875618
0.00971474
0.00971334
0.0106974
0.0106959
0.0117042
0.0117026
0.0127342
0.0127325
0.0137865
0.0137846
0.0148601
0.0148581
0.0159541
0.015952
0.0170678
0.0170655
0.0182003
0.0181979
0.019351
0.0193485
0.0205191
0.0205165
0.021704
0.0217011
0.0229048
0.0229018
0.024121
0.0241179
0.0253519
0.0253486
0.0265968
0.0265934
0.0278551
0.0278515
0.0291261
0.0291223
0.0304089
0.030405
0.031703
0.0316989
0.0330074
0.0330032
0.0343215
0.0343171
0.0356443
0.0356398
0.0369752
0.0369704
0.0383132
0.0383083
0.0396578
0.0396527
0.041008
0.0410027
0.042363
0.0423576
0.043722
0.0437164
0.0450837
0.045078
0.0464469
0.046441
0.04781
0.0478039
0.0491715
0.0491652
0.0505294
0.0505229
0.051882
0.0518753
0.0532276
0.0532207
0.0545645
0.0545574
0.0558917
0.0558845
0.0572092
0.0572017
0.0585183
0.0585106
0.059823
0.0598151
0.0611292
0.061121
0.0624432
0.0624347
0.0637683
0.0637596
0.0651013
0.0650924
0.0664238
0.0664146
0.0677061
0.0676968
0.06891
0.0689005
0.0699962
0.0699867
0.0709336
0.0709242
0.0717049
0.0716957
0.0723097
0.0723008
0.0727619
0.0727533
0.073086
0.0730777
0.0733114
0.0733036
0.0734685
0.0734612
0.0735853
0.0735783
0.0736849
0.0736783
0.0737853
0.0737789
0.0738987
0.0738924
0.0740328
0.0740267
0.0741894
0.0741834
0.0743669
0.0743612
0.0745613
0.0745558
0.0747667
0.0747615
0.0749762
0.0749714
0.0751828
0.0751784
0.0753797
0.0753757
0.0755606
0.075557
0.0757198
0.0757167
0.0758528
0.07585
0.0759556
0.0759531
0.0760253
0.076023
0.0760602
0.0760582
0.0760601
0.0760582
0.076026
0.0760243
0.0759608
0.0759592
0.0758687
0.0758672
0.0757551
0.0757537
0.0756264
0.0756251
0.075489
0.0754878
0.0753492
0.075348
0.0752122
0.0752111
0.0750821
0.075081
0.0749617
0.0749607
0.0748526
0.0748516
0.0747557
0.0747547
0.0746711
0.0746701
0.0745992
0.0745982
0.0745406
0.0745397
0.0744964
0.0744955
0.074468
0.0744671
0.0744571
0.0744563
0.0744657
0.0744649
0.0744948
0.0744941
0.0745451
0.0745444
0.0746159
0.0746152
0.0747053
0.0747046
0.0748102
0.0748095
0.0749264
0.0749257
0.0750493
0.0750487
0.0751745
0.075174
0.0752989
0.0752984
0.075421
0.0754205
0.0755418
0.0755414
0.0756648
0.0756644
0.0757956
0.0757952
0.0759413
0.0759409
0.0761093
0.0761088
0.076306
0.0763055
0.0765366
0.0765362
0.0768032
0.0768028
0.0771057
0.0771053
0.0774422
0.0774418
0.0778098
0.0778093
0.0782052
0.0782048
0.0786259
0.0786254
0.0790702
0.0790697
0.0795376
0.0795371
0.0800287
0.0800282
0.0805449
0.0805444
0.0810879
0.0810874
0.0816596
0.0816591
0.0822618
0.0822612
0.0828956
0.0828951
0.083562
0.0835614
0.0842612
0.0842605
0.0849929
0.0849923
0.0857567
0.085756
0.0865516
0.0865509
0.0873768
0.0873761
0.0882317
0.0882309
0.089116
0.0891151
0.0900301
0.0900292
0.0909752
0.0909743
0.0919533
0.0919523
0.092967
0.092966
0.0940195
0.0940184
0.0951143
0.0951131
0.0962551
0.0962537
0.0974453
0.0974439
0.0986883
0.0986868
0.0999866
0.0999849
0.101342
0.10134
0.102756
0.102754
0.104229
0.104227
0.105759
0.105757
0.107345
0.107342
0.108982
0.108979
0.110664
0.110662
0.112385
0.112382
0.114135
0.114132
0.115901
0.115897
0.11767
0.117666
0.119426
0.119422
0.121155
0.121151
0.12284
0.122837
0.12447
0.124467
0.126035
0.126032
0.127531
0.12753
0.128963
0.128963
0.13034
0.130341
0.13168
0.131681
0.133006
0.133007
0.134346
0.134346
0.135727
0.135727
0.137176
0.137176
0.138711
0.138711
0.140344
0.140343
0.142074
0.142073
0.143888
0.143887
0.145764
0.145762
0.147673
0.147672
0.149584
0.149583
0.151466
0.151465
0.153291
0.153292
0.15504
0.155041
0.156698
0.1567
0.158258
0.158261
0.159722
0.159725
0.161096
0.161099
0.162394
0.162397
0.163633
0.163636
0.164834
0.164836
0.166017
0.166019
0.167204
0.167205
0.168416
0.168417
0.169673
0.169674
0.170994
0.170995
0.172394
0.172395
0.173888
0.173889
0.175488
0.175489
0.177204
0.177204
0.179042
0.179042
0.181007
0.181007
0.183099
0.183098
0.185313
0.185312
0.187639
0.187638
0.190061
0.190059
0.192555
0.192553
0.19509
0.195088
0.197628
0.197626
0.200125
0.200122
0.202535
0.202532
0.204812
0.204809
0.206915
0.206912
0.208814
0.208811
0.210491
0.210488
0.211948
0.211945
0.213209
0.213208
0.214314
0.214314
0.215314
0.215315
0.21627
0.21627
0.217244
0.217245
0.218293
0.218293
0.219455
0.219455
0.220749
0.220749
0.222172
0.222172
0.223706
0.223705
0.22532
0.225319
0.226987
0.226986
0.228684
0.228683
0.230406
0.230405
0.232161
0.232161
0.233971
0.233972
0.235864
0.235864
0.237873
0.237873
0.24003
0.24003
0.242363
0.242363
0.244892
0.244892
0.247632
0.247632
0.250595
0.250595
0.253788
0.253788
0.257219
0.257219
0.260897
0.260897
0.264831
0.264831
0.26903
0.26903
0.273501
0.273501
0.278249
0.278249
0.283275
0.283275
0.28858
0.28858
0.294162
0.294162
0.300017
0.300017
0.306144
0.306143
0.312539
0.312539
0.319203
0.319203
0.326139
0.326139
0.333351
0.333351
0.340847
0.340846
0.348633
0.348633
0.356719
0.356719
0.365113
0.365113
0.373819
0.373819
0.382842
0.382841
0.392179
0.392179
0.401829
0.401829
0.411786
0.411786
0.422045
0.422044
0.432596
0.432596
0.443434
0.443434
0.45455
0.45455
0.465937
0.465937
0.477587
0.477586
0.489489
0.489489
0.501636
0.501636
0.514016
0.514016
0.526619
0.526619
0.539433
0.539432
0.552444
0.552444
0.565643
0.565643
0.579016
0.579016
0.592554
0.592553
0.606248
0.606248
0.620091
0.620091
0.634077
0.634077
0.6482
0.6482
0.662451
0.662451
0.676822
0.676822
0.691299
0.691299
0.705868
0.705868
0.720511
0.720511
0.73521
0.73521
0.749948
0.749948
0.764711
0.764711
0.779484
0.779484
0.794258
0.794258
0.809025
0.809025
0.82378
0.82378
0.838517
0.838517
0.853233
0.853232
0.867921
0.867921
0.882577
0.882577
0.897193
0.897193
0.911759
0.911759
0.926265
0.926265
0.940696
0.940696
0.955027
0.955027
0.969217
0.969217
0.983181
0.983181
0.99675
0.99675
1.00956
1.00956
1.02083
1.02083
1.02898
1.02898
1.02872
1.02872
1.14486e-08
1.14575e-08
1.88802e-06
1.88939e-06
3.76616e-05
3.76864e-05
0.000210581
0.000210683
0.000557957
0.000558157
0.00103203
0.00103233
0.00159384
0.00159423
0.00222203
0.00222251
0.00290433
0.00290491
0.003633
0.00363367
0.0044027
0.00440347
0.00520954
0.00521041
0.0060505
0.00605148
0.0069232
0.00692428
0.00782565
0.00782684
0.00875618
0.00875747
0.00971334
0.00971474
0.0106958
0.0106974
0.0117026
0.0117042
0.0127325
0.0127343
0.0137846
0.0137865
0.0148581
0.0148601
0.015952
0.0159541
0.0170655
0.0170678
0.0181979
0.0182003
0.0193485
0.019351
0.0205164
0.0205191
0.0217011
0.021704
0.0229018
0.0229048
0.0241179
0.024121
0.0253486
0.0253519
0.0265934
0.0265968
0.0278515
0.0278551
0.0291223
0.0291261
0.030405
0.0304089
0.0316989
0.031703
0.0330032
0.0330075
0.0343171
0.0343215
0.0356398
0.0356443
0.0369704
0.0369752
0.0383083
0.0383132
0.0396527
0.0396578
0.0410027
0.041008
0.0423576
0.042363
0.0437164
0.043722
0.045078
0.0450837
0.046441
0.0464469
0.0478039
0.04781
0.0491651
0.0491715
0.0505229
0.0505294
0.0518753
0.051882
0.0532207
0.0532276
0.0545574
0.0545645
0.0558845
0.0558917
0.0572017
0.0572092
0.0585106
0.0585183
0.0598151
0.059823
0.061121
0.0611292
0.0624347
0.0624432
0.0637596
0.0637683
0.0650924
0.0651013
0.0664146
0.0664238
0.0676968
0.0677061
0.0689005
0.06891
0.0699867
0.0699962
0.0709241
0.0709336
0.0716957
0.0717049
0.0723007
0.0723097
0.0727533
0.0727619
0.0730777
0.073086
0.0733036
0.0733114
0.0734611
0.0734685
0.0735783
0.0735853
0.0736782
0.0736849
0.0737789
0.0737853
0.0738924
0.0738987
0.0740267
0.0740328
0.0741834
0.0741893
0.0743611
0.0743669
0.0745558
0.0745613
0.0747615
0.0747667
0.0749714
0.0749762
0.0751784
0.0751828
0.0753757
0.0753797
0.0755569
0.0755605
0.0757166
0.0757198
0.07585
0.0758528
0.075953
0.0759556
0.076023
0.0760253
0.0760582
0.0760602
0.0760582
0.0760601
0.0760243
0.076026
0.0759592
0.0759608
0.0758672
0.0758686
0.0757537
0.0757551
0.075625
0.0756263
0.0754877
0.075489
0.075348
0.0753492
0.075211
0.0752122
0.075081
0.0750821
0.0749606
0.0749617
0.0748516
0.0748526
0.0747546
0.0747556
0.0746701
0.074671
0.0745982
0.0745992
0.0745397
0.0745406
0.0744955
0.0744963
0.0744671
0.0744679
0.0744563
0.0744571
0.0744648
0.0744656
0.074494
0.0744948
0.0745443
0.0745451
0.0746151
0.0746159
0.0747046
0.0747053
0.0748095
0.0748101
0.0749257
0.0749263
0.0750486
0.0750492
0.0751739
0.0751745
0.0752984
0.0752989
0.0754205
0.075421
0.0755413
0.0755418
0.0756643
0.0756648
0.0757951
0.0757956
0.0759408
0.0759413
0.0761088
0.0761092
0.0763055
0.0763059
0.0765361
0.0765365
0.0768027
0.0768031
0.0771052
0.0771056
0.0774417
0.0774421
0.0778092
0.0778097
0.0782046
0.0782051
0.0786253
0.0786258
0.0790696
0.07907
0.079537
0.0795374
0.0800281
0.0800285
0.0805442
0.0805447
0.0810872
0.0810877
0.0816589
0.0816595
0.0822611
0.0822616
0.0828949
0.0828954
0.0835612
0.0835618
0.0842603
0.084261
0.0849921
0.0849927
0.0857558
0.0857565
0.0865507
0.0865514
0.0873759
0.0873766
0.0882307
0.0882315
0.0891149
0.0891157
0.0900289
0.0900299
0.090974
0.090975
0.0919521
0.0919531
0.0929657
0.0929668
0.0940181
0.0940193
0.0951128
0.0951141
0.0962534
0.0962548
0.0974436
0.0974451
0.0986864
0.098688
0.0999846
0.0999864
0.10134
0.101342
0.102754
0.102756
0.104227
0.104229
0.105757
0.105759
0.107342
0.107345
0.108979
0.108981
0.110661
0.110664
0.112382
0.112385
0.114131
0.114134
0.115897
0.1159
0.117666
0.117669
0.119422
0.119426
0.12115
0.121154
0.122836
0.12284
0.124466
0.12447
0.126032
0.126034
0.127529
0.127531
0.128962
0.128963
0.13034
0.13034
0.131681
0.13168
0.133007
0.133006
0.134346
0.134345
0.135727
0.135727
0.137175
0.137175
0.13871
0.138711
0.140343
0.140343
0.142073
0.142073
0.143886
0.143887
0.145761
0.145763
0.147671
0.147672
0.149582
0.149583
0.151464
0.151465
0.153291
0.153291
0.15504
0.155039
0.156699
0.156697
0.158261
0.158257
0.159724
0.159721
0.161098
0.161095
0.162396
0.162393
0.163635
0.163633
0.164835
0.164833
0.166018
0.166016
0.167205
0.167203
0.168417
0.168415
0.169674
0.169673
0.170994
0.170993
0.172394
0.172393
0.173888
0.173887
0.175488
0.175487
0.177203
0.177203
0.179041
0.179041
0.181005
0.181006
0.183097
0.183097
0.18531
0.185311
0.187636
0.187637
0.190057
0.190059
0.192551
0.192553
0.195086
0.195088
0.197623
0.197626
0.20012
0.200123
0.20253
0.202533
0.204807
0.204811
0.20691
0.206914
0.208809
0.208814
0.210487
0.210491
0.211945
0.211948
0.213207
0.213209
0.214314
0.214314
0.215315
0.215315
0.216271
0.21627
0.217245
0.217245
0.218293
0.218293
0.219455
0.219455
0.220748
0.220749
0.222171
0.222172
0.223704
0.223705
0.225318
0.22532
0.226985
0.226986
0.228683
0.228684
0.230405
0.230405
0.232161
0.232161
0.233971
0.233971
0.235865
0.235864
0.237873
0.237873
0.240031
0.24003
0.242363
0.242363
0.244892
0.244892
0.247632
0.247632
0.250595
0.250595
0.253787
0.253787
0.257219
0.257219
0.260897
0.260897
0.264831
0.264831
0.26903
0.26903
0.2735
0.273501
0.278248
0.278248
0.283274
0.283274
0.288579
0.288579
0.294161
0.294161
0.300016
0.300017
0.306143
0.306143
0.312538
0.312539
0.319203
0.319203
0.326139
0.326139
0.333351
0.333351
0.340846
0.340847
0.348633
0.348633
0.356719
0.35672
0.365113
0.365113
0.373819
0.37382
0.382841
0.382842
0.392179
0.392179
0.401829
0.401829
0.411786
0.411786
0.422044
0.422044
0.432596
0.432596
0.443434
0.443434
0.45455
0.45455
0.465937
0.465937
0.477586
0.477586
0.489489
0.489489
0.501635
0.501636
0.514016
0.514016
0.526619
0.526619
0.539432
0.539432
0.552444
0.552444
0.565642
0.565643
0.579015
0.579016
0.592553
0.592554
0.606247
0.606248
0.620091
0.620091
0.634077
0.634077
0.648199
0.6482
0.662451
0.662451
0.676821
0.676822
0.691299
0.691299
0.705867
0.705867
0.72051
0.72051
0.735209
0.735209
0.749947
0.749948
0.76471
0.76471
0.779483
0.779484
0.794258
0.794258
0.809025
0.809025
0.823779
0.82378
0.838516
0.838517
0.853231
0.853232
0.86792
0.86792
0.882575
0.882575
0.89719
0.89719
0.911756
0.911756
0.926261
0.926261
0.94069
0.94069
0.955019
0.95502
0.969206
0.969207
0.983168
0.983168
0.996734
0.996734
1.00954
1.00954
1.02081
1.02081
1.02896
1.02896
1.0287
1.0287
1.02872
1.02872
1.02898
1.02898
1.02083
1.02083
1.00956
1.00956
0.996756
0.996756
0.983189
0.983189
0.969225
0.969225
0.955037
0.955037
0.940707
0.940707
0.926276
0.926276
0.91177
0.91177
0.897204
0.897204
0.882588
0.882588
0.867933
0.867933
0.853245
0.853245
0.83853
0.83853
0.823794
0.823794
0.80904
0.80904
0.794274
0.794274
0.7795
0.7795
0.764727
0.764727
0.749965
0.749965
0.735227
0.735227
0.720529
0.720529
0.705887
0.705887
0.691319
0.691319
0.676842
0.676842
0.662472
0.662471
0.64822
0.64822
0.634098
0.634098
0.620113
0.620112
0.60627
0.60627
0.592576
0.592576
0.579038
0.579038
0.565665
0.565665
0.552466
0.552466
0.539454
0.539454
0.52664
0.52664
0.514037
0.514037
0.501656
0.501656
0.489509
0.489509
0.477606
0.477606
0.465956
0.465956
0.454569
0.454569
0.443452
0.443452
0.432614
0.432614
0.422061
0.422061
0.411803
0.411802
0.401845
0.401844
0.392194
0.392194
0.382856
0.382855
0.373833
0.373833
0.365125
0.365125
0.356731
0.356731
0.348644
0.348644
0.340857
0.340857
0.333361
0.33336
0.326148
0.326148
0.319211
0.319211
0.312546
0.312545
0.306149
0.306149
0.300022
0.300021
0.294165
0.294165
0.288583
0.288583
0.283277
0.283277
0.27825
0.27825
0.273502
0.273502
0.269031
0.26903
0.264831
0.264831
0.260896
0.260896
0.257217
0.257217
0.253786
0.253786
0.250592
0.250592
0.247629
0.24763
0.244888
0.244889
0.242359
0.242359
0.240025
0.240026
0.237868
0.237868
0.235859
0.235859
0.233966
0.233967
0.232157
0.232157
0.230402
0.230402
0.228682
0.228681
0.226985
0.226984
0.225319
0.225318
0.223705
0.223704
0.222172
0.222171
0.220749
0.220749
0.219456
0.219456
0.218294
0.218294
0.217246
0.217246
0.216272
0.216273
0.215317
0.215318
0.214318
0.214318
0.213214
0.213213
0.211954
0.211951
0.210497
0.210494
0.20882
0.208817
0.206921
0.206918
0.204818
0.204814
0.202541
0.202538
0.200131
0.200128
0.197634
0.197631
0.195096
0.195094
0.192561
0.192559
0.190066
0.190065
0.187644
0.187643
0.185318
0.185317
0.183104
0.183103
0.181012
0.181011
0.179047
0.179046
0.177208
0.177208
0.175492
0.175492
0.173892
0.173892
0.172397
0.172398
0.170997
0.170998
0.169676
0.169677
0.168418
0.16842
0.167206
0.167208
0.166019
0.166021
0.164835
0.164838
0.163635
0.163638
0.162395
0.162399
0.161097
0.1611
0.159723
0.159726
0.158259
0.158262
0.156699
0.156701
0.155041
0.155042
0.153292
0.153292
0.151466
0.151466
0.149584
0.149583
0.147672
0.147671
0.145763
0.145762
0.143887
0.143886
0.142074
0.142073
0.140343
0.140343
0.138711
0.13871
0.137175
0.137175
0.135726
0.135727
0.134345
0.134346
0.133006
0.133006
0.13168
0.13168
0.13034
0.13034
0.128963
0.128962
0.127531
0.127529
0.126034
0.126032
0.12447
0.124466
0.12284
0.122836
0.121154
0.12115
0.119426
0.119422
0.117669
0.117665
0.1159
0.115897
0.114134
0.114131
0.112385
0.112382
0.110664
0.110661
0.108981
0.108978
0.107344
0.107342
0.105758
0.105756
0.104228
0.104226
0.102755
0.102753
0.101341
0.101339
0.0999853
0.0999835
0.0986868
0.0986852
0.0974437
0.0974422
0.0962533
0.0962519
0.0951123
0.095111
0.0940173
0.0940161
0.0929647
0.0929635
0.0919507
0.0919497
0.0909724
0.0909714
0.0900269
0.090026
0.0891125
0.0891116
0.0882279
0.0882271
0.0873728
0.087372
0.0865473
0.0865466
0.0857521
0.0857514
0.0849881
0.0849874
0.0842561
0.0842555
0.0835567
0.0835561
0.0828901
0.0828895
0.0822561
0.0822555
0.0816538
0.0816532
0.0810818
0.0810813
0.0805386
0.0805381
0.0800222
0.0800217
0.0795308
0.0795303
0.0790631
0.0790626
0.0786185
0.078618
0.0781975
0.0781971
0.0778018
0.0778013
0.077434
0.0774335
0.0770972
0.0770968
0.0767945
0.0767941
0.0765277
0.0765273
0.0762969
0.0762965
0.0761
0.0760996
0.0759319
0.0759314
0.075786
0.0757856
0.0756551
0.0756546
0.075532
0.0755315
0.075411
0.0754105
0.0752888
0.0752883
0.0751643
0.0751638
0.075039
0.0750384
0.074916
0.0749154
0.0747998
0.0747991
0.0746948
0.0746941
0.0746054
0.0746046
0.0745345
0.0745337
0.0744841
0.0744833
0.0744548
0.074454
0.0744462
0.0744453
0.0744569
0.074456
0.0744852
0.0744843
0.0745293
0.0745284
0.0745878
0.0745869
0.0746596
0.0746587
0.0747441
0.0747431
0.0748411
0.07484
0.0749501
0.074949
0.0750704
0.0750693
0.0752004
0.0751993
0.0753373
0.0753361
0.0754771
0.0754758
0.0756143
0.075613
0.075743
0.0757416
0.0758565
0.0758551
0.0759487
0.0759471
0.076014
0.0760123
0.0760482
0.0760463
0.0760484
0.0760464
0.0760135
0.0760112
0.0759437
0.0759412
0.0758409
0.075838
0.0757078
0.0757045
0.0755483
0.0755446
0.0753673
0.0753632
0.0751703
0.0751657
0.0749635
0.0749585
0.0747538
0.0747484
0.0745483
0.0745426
0.0743537
0.0743477
0.074176
0.0741698
0.0740193
0.074013
0.0738851
0.0738786
0.0737716
0.0737649
0.0736711
0.0736641
0.0735713
0.0735641
0.0734546
0.0734469
0.0732974
0.0732892
0.073072
0.0730634
0.0727481
0.0727391
0.0722963
0.0722869
0.0716918
0.0716822
0.0709208
0.070911
0.0699837
0.0699738
0.0688977
0.0688878
0.067694
0.0676842
0.0664118
0.0664023
0.0650897
0.0650803
0.0637569
0.0637478
0.0624319
0.0624231
0.0611181
0.0611095
0.0598121
0.0598038
0.0585076
0.0584996
0.0571987
0.0571909
0.0558816
0.055874
0.0545547
0.0545473
0.0532181
0.0532109
0.0518728
0.0518659
0.0505205
0.0505137
0.0491629
0.0491563
0.0478018
0.0477954
0.046439
0.0464328
0.0450761
0.0450701
0.0437146
0.0437088
0.042356
0.0423503
0.0410012
0.0409957
0.0396513
0.039646
0.038307
0.0383019
0.0369692
0.0369643
0.0356387
0.0356339
0.0343161
0.0343115
0.0330023
0.0329979
0.0316981
0.0316938
0.0304043
0.0304002
0.0291216
0.0291177
0.0278509
0.0278471
0.0265928
0.0265892
0.0253481
0.0253447
0.0241174
0.0241141
0.0229014
0.0228983
0.0217008
0.0216978
0.0205161
0.0205133
0.0193482
0.0193456
0.0181977
0.0181952
0.0170653
0.017063
0.0159518
0.0159496
0.014858
0.0148559
0.0137845
0.0137826
0.0127324
0.0127306
0.0117026
0.0117009
0.0106959
0.0106943
0.00971337
0.00971191
0.00875623
0.00875488
0.00782572
0.00782449
0.00692329
0.00692217
0.0060506
0.00604959
0.00520964
0.00520874
0.00440281
0.00440201
0.00363311
0.00363241
0.00290445
0.00290385
0.00222214
0.00222164
0.00159394
0.00159354
0.00103212
0.00103181
0.000558021
0.000557813
0.000210617
0.00021051
3.7671e-05
3.76452e-05
1.88855e-06
1.88713e-06
1.14526e-08
1.14434e-08
1.0287
1.0287
1.02896
1.02896
1.02081
1.02081
1.00954
1.00954
0.99674
0.99674
0.983176
0.983177
0.969215
0.969216
0.955029
0.95503
0.940701
0.940701
0.926272
0.926272
0.911767
0.911767
0.897201
0.897201
0.882586
0.882587
0.867931
0.867932
0.853244
0.853244
0.838529
0.83853
0.823793
0.823794
0.80904
0.80904
0.794273
0.794273
0.779499
0.779499
0.764726
0.764726
0.749964
0.749964
0.735226
0.735227
0.720528
0.720528
0.705886
0.705886
0.691318
0.691318
0.676841
0.676841
0.662471
0.662471
0.64822
0.64822
0.634098
0.634098
0.620112
0.620113
0.606269
0.60627
0.592576
0.592576
0.579038
0.579038
0.565664
0.565665
0.552466
0.552466
0.539453
0.539454
0.526639
0.52664
0.514036
0.514036
0.501655
0.501656
0.489508
0.489509
0.477605
0.477606
0.465956
0.465956
0.454568
0.454569
0.443452
0.443452
0.432613
0.432614
0.422061
0.422061
0.411802
0.411802
0.401844
0.401845
0.392194
0.392194
0.382855
0.382856
0.373833
0.373833
0.365125
0.365126
0.356731
0.356732
0.348644
0.348644
0.340857
0.340857
0.33336
0.333361
0.326147
0.326148
0.319211
0.319211
0.312545
0.312545
0.306148
0.306148
0.300021
0.300021
0.294164
0.294165
0.288582
0.288582
0.283276
0.283276
0.278249
0.27825
0.273501
0.273502
0.26903
0.26903
0.264831
0.264831
0.260896
0.260896
0.257217
0.257217
0.253785
0.253785
0.250592
0.250592
0.24763
0.247629
0.244889
0.244888
0.242359
0.242359
0.240026
0.240026
0.237869
0.237868
0.23586
0.235859
0.233967
0.233966
0.232156
0.232156
0.230401
0.230402
0.22868
0.228681
0.226983
0.226984
0.225317
0.225318
0.223703
0.223704
0.22217
0.222171
0.220748
0.220749
0.219455
0.219456
0.218294
0.218294
0.217247
0.217246
0.216273
0.216272
0.215318
0.215317
0.214318
0.214318
0.213212
0.213214
0.21195
0.211954
0.210493
0.210497
0.208815
0.20882
0.206916
0.20692
0.204813
0.204816
0.202536
0.202539
0.200126
0.200129
0.197629
0.197632
0.195091
0.195094
0.192557
0.192559
0.190063
0.190064
0.187641
0.187642
0.185315
0.185316
0.183101
0.183102
0.18101
0.18101
0.179045
0.179045
0.177207
0.177207
0.175491
0.175491
0.173891
0.173891
0.172397
0.172397
0.170997
0.170996
0.169677
0.169675
0.168419
0.168418
0.167207
0.167205
0.16602
0.166018
0.164837
0.164835
0.163637
0.163634
0.162398
0.162395
0.1611
0.161096
0.159726
0.159722
0.158262
0.158258
0.1567
0.156698
0.155041
0.15504
0.153292
0.153291
0.151465
0.151466
0.149582
0.149583
0.14767
0.147672
0.145761
0.145762
0.143885
0.143887
0.142072
0.142073
0.140342
0.140343
0.13871
0.13871
0.137175
0.137175
0.135726
0.135726
0.134345
0.134345
0.133006
0.133005
0.13168
0.131679
0.13034
0.13034
0.128962
0.128962
0.127529
0.127531
0.126031
0.126034
0.124466
0.12447
0.122836
0.12284
0.12115
0.121154
0.119422
0.119426
0.117665
0.117669
0.115896
0.1159
0.114131
0.114134
0.112381
0.112385
0.110661
0.110664
0.108978
0.108981
0.107341
0.107344
0.105756
0.105758
0.104226
0.104228
0.102753
0.102755
0.101339
0.101341
0.0999832
0.099985
0.0986849
0.0986866
0.0974419
0.0974435
0.0962516
0.096253
0.0951107
0.0951121
0.0940159
0.0940171
0.0929633
0.0929644
0.0919494
0.0919505
0.0909711
0.0909721
0.0900258
0.0900267
0.0891114
0.0891123
0.0882269
0.0882277
0.0873718
0.0873726
0.0865464
0.0865471
0.0857512
0.0857519
0.0849872
0.0849879
0.0842553
0.0842559
0.0835559
0.0835565
0.0828894
0.08289
0.0822554
0.0822559
0.0816531
0.0816536
0.0810812
0.0810817
0.080538
0.0805385
0.0800216
0.0800221
0.0795302
0.0795307
0.0790625
0.079063
0.0786179
0.0786184
0.078197
0.0781974
0.0778012
0.0778017
0.0774334
0.0774339
0.0770967
0.0770972
0.076794
0.0767945
0.0765272
0.0765276
0.0762964
0.0762968
0.0760995
0.0760999
0.0759314
0.0759318
0.0757855
0.075786
0.0756546
0.075655
0.0755314
0.0755319
0.0754105
0.075411
0.0752882
0.0752888
0.0751637
0.0751643
0.0750383
0.075039
0.0749153
0.074916
0.0747991
0.0747998
0.0746941
0.0746948
0.0746046
0.0746053
0.0745336
0.0745344
0.0744832
0.074484
0.0744539
0.0744548
0.0744453
0.0744461
0.074456
0.0744569
0.0744843
0.0744852
0.0745284
0.0745293
0.0745868
0.0745878
0.0746586
0.0746596
0.0747431
0.0747441
0.07484
0.074841
0.0749489
0.0749501
0.0750693
0.0750704
0.0751992
0.0752004
0.0753361
0.0753373
0.0754758
0.075477
0.075613
0.0756143
0.0757416
0.075743
0.075855
0.0758565
0.0759471
0.0759487
0.0760122
0.076014
0.0760463
0.0760482
0.0760463
0.0760484
0.0760112
0.0760135
0.0759411
0.0759437
0.0758379
0.0758409
0.0757044
0.0757078
0.0755446
0.0755483
0.0753631
0.0753673
0.0751657
0.0751703
0.0749585
0.0749635
0.0747484
0.0747539
0.0745425
0.0745483
0.0743477
0.0743537
0.0741698
0.074176
0.0740129
0.0740194
0.0738785
0.0738851
0.0737648
0.0737716
0.0736641
0.0736711
0.073564
0.0735714
0.0734469
0.0734546
0.0732892
0.0732974
0.0730633
0.073072
0.0727391
0.0727482
0.0722869
0.0722963
0.0716821
0.0716919
0.0709109
0.0709208
0.0699738
0.0699837
0.0688878
0.0688977
0.0676842
0.067694
0.0664022
0.0664119
0.0650803
0.0650897
0.0637478
0.0637569
0.062423
0.0624319
0.0611095
0.0611181
0.0598038
0.0598121
0.0584995
0.0585076
0.0571908
0.0571987
0.0558739
0.0558816
0.0545473
0.0545547
0.0532109
0.0532181
0.0518659
0.0518729
0.0505137
0.0505205
0.0491563
0.0491629
0.0477954
0.0478018
0.0464327
0.046439
0.04507
0.0450761
0.0437088
0.0437147
0.0423503
0.042356
0.0409957
0.0410013
0.039646
0.0396513
0.0383019
0.0383071
0.0369643
0.0369693
0.0356339
0.0356387
0.0343115
0.0343161
0.0329979
0.0330023
0.0316938
0.0316981
0.0304002
0.0304043
0.0291177
0.0291216
0.0278471
0.0278509
0.0265892
0.0265928
0.0253447
0.0253481
0.0241141
0.0241174
0.0228983
0.0229014
0.0216978
0.0217008
0.0205133
0.0205162
0.0193456
0.0193482
0.0181952
0.0181977
0.017063
0.0170653
0.0159496
0.0159518
0.0148559
0.014858
0.0137826
0.0137846
0.0127306
0.0127325
0.0117009
0.0117026
0.0106943
0.0106959
0.00971191
0.00971338
0.00875489
0.00875624
0.00782449
0.00782573
0.00692217
0.00692329
0.00604959
0.00605061
0.00520874
0.00520965
0.00440201
0.00440282
0.00363241
0.00363312
0.00290385
0.00290445
0.00222164
0.00222214
0.00159354
0.00159395
0.00103181
0.00103212
0.000557813
0.000558023
0.00021051
0.000210618
3.76452e-05
3.76711e-05
1.88713e-06
1.88856e-06
1.14434e-08
1.14527e-08
)
;

boundaryField
{
    walls
    {
        type            nutUWallFunction;
        blending        stepwise;
        Cmu             0.09;
        kappa           0.41;
        E               9.8;
        value           uniform 0;
    }
    inlet
    {
        type            cyclic;
    }
    outlet
    {
        type            cyclic;
    }
    sides
    {
        type            empty;
    }
}


// ************************************************************************* //
