/*--------------------------------*- C++ -*----------------------------------*\
| =========                 |                                                 |
| \\      /  F ield         | OpenFOAM: The Open Source CFD Toolbox           |
|  \\    /   O peration     | Version:  2012                                  |
|   \\  /    A nd           | Website:  www.openfoam.com                      |
|    \\/     M anipulation  |                                                 |
\*---------------------------------------------------------------------------*/
FoamFile
{
    version     2.0;
    format      ascii;
    class       volScalarField;
    location    "2000";
    object      p;
}
// * * * * * * * * * * * * * * * * * * * * * * * * * * * * * * * * * * * * * //

dimensions      [0 2 -2 0 0 0 0];


internalField   nonuniform List<scalar> 
640
(
9.43666e-16
9.50609e-15
2.02083e-15
9.50543e-15
2.22078e-15
9.50399e-15
2.19512e-15
9.50207e-15
2.21182e-15
9.49941e-15
2.25372e-15
9.49563e-15
2.29768e-15
9.49036e-15
2.34064e-15
9.48336e-15
2.38379e-15
9.47418e-15
2.42794e-15
9.46246e-15
2.47349e-15
9.44772e-15
2.521e-15
9.42958e-15
2.57121e-15
9.4077e-15
2.62529e-15
9.38256e-15
2.68386e-15
9.35359e-15
2.74699e-15
9.32018e-15
2.81531e-15
9.28229e-15
2.88881e-15
9.24006e-15
2.96773e-15
9.19346e-15
3.05148e-15
9.14257e-15
3.14135e-15
9.08758e-15
3.2368e-15
9.02961e-15
3.33748e-15
8.9664e-15
3.44457e-15
8.89752e-15
3.55756e-15
8.82742e-15
3.67626e-15
8.7552e-15
3.80135e-15
8.67884e-15
3.93155e-15
8.59702e-15
4.06642e-15
8.51142e-15
4.20553e-15
8.42274e-15
4.35298e-15
8.33396e-15
4.50628e-15
8.23994e-15
4.65919e-15
8.14089e-15
4.81759e-15
8.04432e-15
4.97776e-15
7.95301e-15
5.13851e-15
7.867e-15
5.2988e-15
7.78053e-15
5.46629e-15
7.69529e-15
5.62671e-15
7.61825e-15
5.7828e-15
7.55652e-15
5.92572e-15
7.49634e-15
6.07061e-15
7.43491e-15
6.20651e-15
7.39027e-15
6.33427e-15
7.3591e-15
6.45483e-15
7.33137e-15
6.58311e-15
7.30938e-15
6.70149e-15
7.31545e-15
6.82626e-15
7.31069e-15
6.93306e-15
7.30194e-15
7.0257e-15
7.31809e-15
7.10672e-15
7.33203e-15
7.20886e-15
7.32966e-15
7.27677e-15
7.34663e-15
7.34548e-15
7.39322e-15
7.4169e-15
7.45192e-15
7.47681e-15
7.52287e-15
7.52139e-15
7.55627e-15
7.56573e-15
7.60231e-15
7.62459e-15
7.64238e-15
7.70144e-15
7.707e-15
7.78267e-15
7.75777e-15
7.85887e-15
7.84555e-15
7.92658e-15
7.91074e-15
7.98368e-15
7.99104e-15
8.05782e-15
8.09838e-15
8.14283e-15
8.17112e-15
8.15561e-15
8.29319e-15
8.26921e-15
8.40659e-15
8.44227e-15
8.48521e-15
8.48796e-15
8.51408e-15
8.49809e-15
8.65285e-15
8.62374e-15
8.7444e-15
8.71801e-15
8.69043e-15
8.82521e-15
8.70265e-15
8.62044e-15
8.63861e-15
8.7063e-15
8.66606e-15
8.51574e-15
8.52027e-15
8.414e-15
8.39683e-15
8.23005e-15
8.2472e-15
8.21884e-15
8.28301e-15
7.27587e-15
8.05391e-15
7.27624e-15
8.05406e-15
7.27671e-15
8.05429e-15
7.27749e-15
8.05468e-15
7.27868e-15
8.0552e-15
7.28005e-15
8.05594e-15
7.28172e-15
8.05677e-15
7.28369e-15
8.05782e-15
7.28598e-15
8.05912e-15
7.28848e-15
8.06066e-15
7.29125e-15
8.06239e-15
7.29459e-15
8.06434e-15
7.29829e-15
8.06662e-15
7.30222e-15
8.06941e-15
7.30658e-15
8.07307e-15
7.31184e-15
8.07735e-15
7.31837e-15
8.08197e-15
7.32613e-15
8.08687e-15
7.33504e-15
8.09214e-15
7.34397e-15
8.0982e-15
7.35332e-15
8.10451e-15
7.36548e-15
8.11003e-15
7.37884e-15
8.11595e-15
7.39231e-15
8.12285e-15
7.406e-15
8.13057e-15
7.42189e-15
8.1375e-15
7.43638e-15
8.14578e-15
7.45558e-15
8.15381e-15
7.47261e-15
8.16406e-15
7.48963e-15
8.17501e-15
7.51589e-15
8.1816e-15
7.54164e-15
8.18413e-15
7.56466e-15
8.18793e-15
7.59003e-15
8.18895e-15
7.61557e-15
8.19056e-15
7.63624e-15
8.19391e-15
7.66009e-15
8.19496e-15
7.69315e-15
8.18944e-15
7.71042e-15
8.18983e-15
7.71698e-15
8.19247e-15
7.74809e-15
8.19379e-15
7.7527e-15
8.20194e-15
7.77611e-15
8.20479e-15
7.7997e-15
8.19836e-15
7.82383e-15
8.19113e-15
7.85591e-15
8.1786e-15
7.86278e-15
8.17602e-15
7.89201e-15
8.1727e-15
7.91609e-15
8.17079e-15
7.92783e-15
8.15839e-15
7.96515e-15
8.15208e-15
8.00958e-15
8.13689e-15
8.01871e-15
8.12706e-15
8.02512e-15
8.10806e-15
8.01405e-15
8.09438e-15
8.03406e-15
8.1035e-15
8.07067e-15
8.09999e-15
8.09811e-15
8.11461e-15
8.12102e-15
8.14777e-15
8.13746e-15
8.14943e-15
8.16774e-15
8.17148e-15
8.21265e-15
8.23477e-15
8.26708e-15
8.28599e-15
8.335e-15
8.32704e-15
8.34512e-15
8.34491e-15
8.37539e-15
8.42037e-15
8.39539e-15
8.44139e-15
8.45933e-15
8.48324e-15
8.57238e-15
8.56752e-15
8.52545e-15
8.57384e-15
8.56408e-15
8.70137e-15
8.68104e-15
8.81022e-15
8.7572e-15
8.73165e-15
8.7644e-15
8.76932e-15
8.72514e-15
8.72941e-15
8.62161e-15
8.62758e-15
8.71194e-15
8.49989e-15
8.52263e-15
8.38296e-15
8.43672e-15
8.25127e-15
8.25631e-15
8.30033e-15
7.99064e-15
8.14738e-15
8.07524e-15
8.07511e-15
8.09733e-15
8.13875e-15
8.04305e-15
8.04662e-15
8.12411e-15
8.11022e-15
8.07639e-15
8.00939e-15
8.03563e-15
8.06456e-15
8.11005e-15
8.02148e-15
8.05344e-15
8.01659e-15
7.98675e-15
7.97113e-15
7.99124e-15
7.96223e-15
7.95964e-15
7.91069e-15
7.99538e-15
7.94781e-15
7.95597e-15
7.94389e-15
7.90706e-15
7.91999e-15
7.89741e-15
7.92981e-15
7.89245e-15
7.94261e-15
7.8868e-15
7.92885e-15
7.89252e-15
7.92644e-15
7.88214e-15
7.92551e-15
7.91108e-15
7.93136e-15
7.91094e-15
7.94158e-15
7.9188e-15
7.9204e-15
7.92253e-15
7.91495e-15
7.89293e-15
7.90528e-15
7.8776e-15
7.87814e-15
7.87653e-15
7.88437e-15
7.87337e-15
7.89044e-15
7.86759e-15
7.86523e-15
7.8616e-15
7.85491e-15
7.86354e-15
7.85885e-15
7.86549e-15
7.86884e-15
7.85971e-15
7.8638e-15
7.8466e-15
7.85874e-15
7.82617e-15
7.8543e-15
7.81851e-15
7.85796e-15
7.82229e-15
7.85658e-15
7.83082e-15
7.84339e-15
7.83223e-15
7.83696e-15
7.82096e-15
7.82441e-15
7.81879e-15
7.81201e-15
7.82555e-15
7.80552e-15
7.82957e-15
7.80156e-15
7.81433e-15
7.8055e-15
7.80772e-15
7.80912e-15
7.80379e-15
7.8126e-15
7.79709e-15
7.81089e-15
7.79781e-15
7.80936e-15
7.79823e-15
7.808e-15
7.7961e-15
7.80676e-15
7.795e-15
7.80678e-15
7.796e-15
7.80909e-15
7.79469e-15
7.81031e-15
7.79327e-15
7.8085e-15
7.79568e-15
7.80779e-15
7.79602e-15
7.80809e-15
7.79625e-15
7.80929e-15
7.79724e-15
7.80961e-15
7.7977e-15
7.80915e-15
7.7977e-15
7.80797e-15
7.79801e-15
7.8076e-15
7.7986e-15
7.80759e-15
7.79848e-15
7.80759e-15
7.79834e-15
7.80759e-15
7.79845e-15
7.80789e-15
7.79841e-15
7.8083e-15
7.79859e-15
7.80845e-15
7.79875e-15
7.80849e-15
7.79888e-15
7.80841e-15
7.799e-15
7.80845e-15
7.79911e-15
7.8085e-15
7.79914e-15
7.80837e-15
7.79929e-15
7.8083e-15
7.79934e-15
7.80837e-15
7.79935e-15
7.80844e-15
7.79939e-15
7.80841e-15
7.7994e-15
7.80841e-15
7.79943e-15
7.8084e-15
7.79944e-15
7.80841e-15
7.79944e-15
7.80843e-15
8.16479e-15
8.17079e-15
8.12738e-15
8.08919e-15
8.08877e-15
8.08907e-15
8.04222e-15
8.03899e-15
8.14155e-15
8.11708e-15
8.02232e-15
8.0242e-15
7.99539e-15
8.07748e-15
8.08891e-15
7.99194e-15
8.03621e-15
8.02355e-15
7.9895e-15
7.98668e-15
8.00423e-15
8.01157e-15
8.01775e-15
8.00723e-15
8.00695e-15
7.97791e-15
8.01862e-15
7.99095e-15
7.91783e-15
8.0012e-15
8.01531e-15
7.97981e-15
8.01607e-15
7.95443e-15
7.97846e-15
7.95145e-15
7.92552e-15
7.98536e-15
7.94265e-15
7.96432e-15
7.94177e-15
7.93554e-15
7.94631e-15
7.94523e-15
7.95491e-15
7.95481e-15
7.91214e-15
7.94927e-15
7.91629e-15
7.93572e-15
7.91912e-15
7.89342e-15
7.89471e-15
7.90019e-15
7.88777e-15
7.90846e-15
7.87951e-15
7.8878e-15
7.87122e-15
7.86958e-15
7.87132e-15
7.88279e-15
7.87083e-15
7.88263e-15
7.86243e-15
7.8765e-15
7.84632e-15
7.86466e-15
7.82261e-15
7.86122e-15
7.83142e-15
7.85992e-15
7.83907e-15
7.86658e-15
7.83932e-15
7.86137e-15
7.83894e-15
7.851e-15
7.83209e-15
7.84147e-15
7.83137e-15
7.82355e-15
7.83691e-15
7.81193e-15
7.83145e-15
7.81166e-15
7.82933e-15
7.81392e-15
7.82767e-15
7.81593e-15
7.82638e-15
7.81775e-15
7.82539e-15
7.81686e-15
7.82471e-15
7.81088e-15
7.81702e-15
7.80983e-15
7.81446e-15
7.80875e-15
7.81325e-15
7.8111e-15
7.81437e-15
7.81557e-15
7.81551e-15
7.81672e-15
7.81462e-15
7.81785e-15
7.81478e-15
7.81898e-15
7.81496e-15
7.81823e-15
7.81427e-15
7.81755e-15
7.81447e-15
7.81694e-15
7.81389e-15
7.81637e-15
7.81487e-15
7.81699e-15
7.8151e-15
7.81796e-15
7.81398e-15
7.81855e-15
7.8142e-15
7.81817e-15
7.815e-15
7.81724e-15
7.81438e-15
7.81694e-15
7.81393e-15
7.8164e-15
7.814e-15
7.81602e-15
7.81384e-15
7.81626e-15
7.81381e-15
7.81627e-15
7.8139e-15
7.81629e-15
7.81382e-15
7.81619e-15
7.81373e-15
7.81615e-15
7.81372e-15
7.81606e-15
7.8137e-15
7.81599e-15
7.81365e-15
7.81607e-15
7.81364e-15
7.81612e-15
7.81363e-15
7.81611e-15
7.81364e-15
7.81607e-15
7.81363e-15
7.81608e-15
7.81362e-15
7.81608e-15
)
;

boundaryField
{
    walls
    {
        type            zeroGradient;
    }
    inlet
    {
        type            cyclic;
    }
    outlet
    {
        type            cyclic;
    }
    sides
    {
        type            empty;
    }
}


// ************************************************************************* //
