/*--------------------------------*- C++ -*----------------------------------*\
| =========                 |                                                 |
| \\      /  F ield         | OpenFOAM: The Open Source CFD Toolbox           |
|  \\    /   O peration     | Version:  2012                                  |
|   \\  /    A nd           | Website:  www.openfoam.com                      |
|    \\/     M anipulation  |                                                 |
\*---------------------------------------------------------------------------*/
FoamFile
{
    version     2.0;
    format      ascii;
    class       volVectorField;
    location    "2000";
    object      U;
}
// * * * * * * * * * * * * * * * * * * * * * * * * * * * * * * * * * * * * * //

dimensions      [0 1 -1 0 0 0 0];


internalField   nonuniform List<vector> 
640
(
(0.00959811 -1.28821e-15 -7.05656e-17)
(0.00959811 1.25444e-18 -1.13059e-34)
(0.0293591 -4.93544e-15 -1.7653e-16)
(0.0293591 -9.6151e-18 2.42697e-19)
(0.0502933 -4.71235e-15 -2.04447e-16)
(0.0502933 -1.40071e-17 3.36699e-19)
(0.0724692 -4.40028e-15 -2.32841e-16)
(0.0724692 -2.22028e-17 6.23478e-19)
(0.0959569 -4.32269e-15 -2.66013e-16)
(0.0959569 -3.21053e-17 9.76335e-19)
(0.120826 -4.33232e-15 -3.03976e-16)
(0.120826 -4.32885e-17 1.36054e-18)
(0.147133 -4.32437e-15 -3.46366e-16)
(0.147133 -5.6336e-17 1.77356e-18)
(0.174908 -4.30551e-15 -3.92765e-16)
(0.174908 -7.21263e-17 2.2228e-18)
(0.20412 -4.28342e-15 -4.42184e-16)
(0.20412 -8.90995e-17 2.66253e-18)
(0.234635 -4.25823e-15 -4.92656e-16)
(0.234635 -1.08191e-16 3.05232e-18)
(0.26617 -4.22952e-15 -5.41222e-16)
(0.26617 -1.31651e-16 3.39383e-18)
(0.298285 -4.19807e-15 -5.845e-16)
(0.298285 -1.56477e-16 3.67423e-18)
(0.330417 -4.145e-15 -6.19755e-16)
(0.330417 -1.85183e-16 3.85193e-18)
(0.361982 -4.13228e-15 -6.45934e-16)
(0.361982 -2.15959e-16 4.23945e-18)
(0.392479 -4.07892e-15 -6.6382e-16)
(0.392479 -2.4703e-16 4.47155e-18)
(0.421566 -4.03802e-15 -6.75472e-16)
(0.421566 -2.79912e-16 4.52818e-18)
(0.449066 -3.99634e-15 -6.83379e-16)
(0.449066 -3.11038e-16 4.63595e-18)
(0.47494 -3.9496e-15 -6.89767e-16)
(0.47494 -3.4479e-16 4.47486e-18)
(0.499238 -3.90123e-15 -6.96197e-16)
(0.499238 -3.83445e-16 4.71294e-18)
(0.52206 -3.85183e-15 -7.03784e-16)
(0.52206 -4.21935e-16 4.78489e-18)
(0.543531 -3.80014e-15 -7.13319e-16)
(0.543531 -4.63502e-16 5.06135e-18)
(0.56378 -3.74703e-15 -7.25426e-16)
(0.56378 -5.08401e-16 5.56407e-18)
(0.582931 -3.69374e-15 -7.40227e-16)
(0.582931 -5.53758e-16 5.44614e-18)
(0.601098 -3.63785e-15 -7.58052e-16)
(0.601098 -5.97839e-16 5.42557e-18)
(0.618384 -3.5791e-15 -7.78838e-16)
(0.618384 -6.43458e-16 6.33455e-18)
(0.634881 -3.52334e-15 -8.03011e-16)
(0.634881 -6.88483e-16 6.43109e-18)
(0.65067 -3.46527e-15 -8.30552e-16)
(0.65067 -7.36233e-16 6.55254e-18)
(0.665822 -3.40057e-15 -8.61468e-16)
(0.665822 -7.84043e-16 6.46948e-18)
(0.680399 -3.3351e-15 -8.95736e-16)
(0.680399 -8.2685e-16 5.82981e-18)
(0.694456 -3.26989e-15 -9.3365e-16)
(0.694456 -8.75822e-16 5.24413e-18)
(0.708041 -3.20319e-15 -9.75592e-16)
(0.708041 -9.21234e-16 5.61095e-18)
(0.721195 -3.13736e-15 -1.02164e-15)
(0.721195 -9.7094e-16 4.48767e-18)
(0.733956 -3.0625e-15 -1.07158e-15)
(0.733956 -1.02237e-15 3.82136e-18)
(0.746357 -2.983e-15 -1.12612e-15)
(0.746357 -1.06982e-15 -6.45569e-18)
(0.758425 -2.90406e-15 -1.06703e-15)
(0.758425 -1.13411e-15 -3.1697e-17)
(0.770186 -2.82599e-15 -9.20311e-16)
(0.770186 -1.19494e-15 -5.71652e-17)
(0.781663 -2.75199e-15 -7.64192e-16)
(0.781663 -1.24734e-15 -8.46996e-17)
(0.792876 -2.66693e-15 -5.91697e-16)
(0.792876 -1.31084e-15 -1.11862e-16)
(0.803843 -2.56929e-15 -5.09005e-16)
(0.803843 -1.36562e-15 -1.40059e-16)
(0.814578 -2.47179e-15 -4.90811e-16)
(0.814578 -1.39951e-15 -1.65272e-16)
(0.825096 -2.3835e-15 -4.81354e-16)
(0.825096 -1.43845e-15 -1.93327e-16)
(0.835409 -2.30086e-15 -4.6067e-16)
(0.835409 -1.4782e-15 -2.2398e-16)
(0.845527 -2.22209e-15 -4.46279e-16)
(0.845527 -1.50187e-15 -2.51704e-16)
(0.855462 -2.14673e-15 -4.33277e-16)
(0.855462 -1.53693e-15 -2.72329e-16)
(0.86522 -2.07829e-15 -4.26037e-16)
(0.86522 -1.56268e-15 -2.86263e-16)
(0.87481 -2.02073e-15 -4.14321e-16)
(0.87481 -1.59326e-15 -2.99632e-16)
(0.884237 -1.9669e-15 -3.97977e-16)
(0.884237 -1.58902e-15 -3.05363e-16)
(0.893508 -1.90075e-15 -3.81983e-16)
(0.893508 -1.56618e-15 -3.21881e-16)
(0.902626 -1.82262e-15 -3.70831e-16)
(0.902626 -1.56233e-15 -3.44385e-16)
(0.911598 -1.76484e-15 -3.5545e-16)
(0.911598 -1.56072e-15 -3.43091e-16)
(0.920425 -1.6988e-15 -3.41969e-16)
(0.920425 -1.53975e-15 -3.4293e-16)
(0.929111 -1.64457e-15 -3.23591e-16)
(0.929111 -1.51063e-15 -3.44223e-16)
(0.937659 -1.59685e-15 -3.03851e-16)
(0.937659 -1.52294e-15 -3.32168e-16)
(0.946069 -1.54979e-15 -2.81539e-16)
(0.946069 -1.50179e-15 -3.08821e-16)
(0.954343 -1.50794e-15 -2.48888e-16)
(0.954343 -1.47882e-15 -2.85776e-16)
(0.962483 -1.48576e-15 -2.46367e-16)
(0.962483 -1.47824e-15 -2.71418e-16)
(0.970487 -1.44131e-15 -2.56793e-16)
(0.970487 -1.43921e-15 -2.55741e-16)
(0.978357 -1.38939e-15 -2.66932e-16)
(0.978357 -1.41271e-15 -2.44899e-16)
(0.986092 -1.38948e-15 -2.57543e-16)
(0.986092 -1.36798e-15 -2.44767e-16)
(0.993689 -1.36248e-15 -2.25144e-16)
(0.993689 -1.28807e-15 -2.37836e-16)
(1.00115 -1.31918e-15 -2.19766e-16)
(1.00115 -1.30455e-15 -2.57384e-16)
(1.00846 -1.29461e-15 -2.02617e-16)
(1.00846 -1.29768e-15 -2.56449e-16)
(1.01564 -1.27534e-15 -1.89739e-16)
(1.01564 -1.27929e-15 -2.42634e-16)
(1.02266 -1.20462e-15 -1.80618e-16)
(1.02266 -1.28502e-15 -1.92146e-16)
(1.02953 -1.17168e-15 -1.7656e-16)
(1.02953 -1.21397e-15 -1.25134e-16)
(1.03624 -1.19514e-15 -1.4187e-16)
(1.03624 -1.18239e-15 -1.47411e-16)
(1.04278 -1.09658e-15 -1.49122e-16)
(1.04278 -1.15561e-15 -1.15654e-16)
(1.04914 -1.13778e-15 -1.20667e-16)
(1.04914 -1.11219e-15 8.87712e-18)
(1.05531 -1.09745e-15 -8.6742e-17)
(1.05531 -1.09363e-15 5.78157e-17)
(1.06127 -1.04458e-15 2.39595e-16)
(1.06127 -1.03412e-15 3.90588e-17)
(1.06701 -9.68063e-16 6.09184e-17)
(1.06701 -1.04587e-15 -2.22321e-17)
(1.0725 -9.93535e-16 -6.76972e-17)
(1.0725 -9.59419e-16 6.46131e-17)
(1.07771 -1.00857e-15 -7.4105e-17)
(1.07771 -9.72066e-16 2.42794e-16)
(1.0826 -9.23723e-16 1.13833e-16)
(1.0826 -8.66607e-16 -1.01219e-16)
(1.08713 -8.18127e-16 -2.26777e-16)
(1.08713 -7.58453e-16 -6.92641e-17)
(1.09122 -8.18434e-16 5.73412e-17)
(1.09122 -7.52767e-16 -9.2533e-17)
(1.09479 -6.52316e-16 -1.12596e-16)
(1.09479 -7.1709e-16 -1.82491e-16)
(1.09773 -6.88996e-16 -1.48792e-16)
(1.09773 -7.2013e-16 -2.32924e-16)
(1.09989 -8.40026e-16 -2.51045e-16)
(1.09989 -8.14873e-16 -2.62958e-16)
(1.10107 -6.65851e-16 -1.60448e-16)
(1.10107 -7.36172e-16 4.51783e-17)
(0.00959811 6.29603e-19 2.60048e-17)
(0.00959811 2.76948e-19 4.54844e-17)
(0.0293591 -3.18418e-18 5.04158e-17)
(0.0293591 -6.45045e-19 5.4445e-17)
(0.0502933 -4.187e-18 5.64598e-17)
(0.0502933 -5.40975e-19 6.13602e-17)
(0.0724692 -6.76864e-18 6.31244e-17)
(0.0724692 -8.41509e-19 6.93088e-17)
(0.0959569 -9.34386e-18 7.04303e-17)
(0.0959569 -1.50839e-18 7.84396e-17)
(0.120826 -1.18827e-17 7.84456e-17)
(0.120826 -2.18132e-18 8.88271e-17)
(0.147133 -1.53495e-17 8.71092e-17)
(0.147133 -2.3592e-18 1.00534e-16)
(0.174908 -1.95375e-17 9.62918e-17)
(0.174908 -2.68664e-18 1.13481e-16)
(0.20412 -2.4139e-17 1.05722e-16)
(0.20412 -2.82475e-18 1.27342e-16)
(0.234635 -2.92063e-17 1.14951e-16)
(0.234635 -3.47455e-18 1.41452e-16)
(0.26617 -3.55632e-17 1.23356e-16)
(0.26617 -4.54744e-18 1.54822e-16)
(0.298285 -4.20599e-17 1.30149e-16)
(0.298285 -5.7102e-18 1.66382e-16)
(0.330417 -4.83157e-17 1.34914e-16)
(0.330417 -7.36248e-18 1.75131e-16)
(0.361982 -5.44437e-17 1.3761e-16)
(0.361982 -8.82956e-18 1.80856e-16)
(0.392479 -6.15239e-17 1.38535e-16)
(0.392479 -9.80861e-18 1.83533e-16)
(0.421566 -7.10649e-17 1.37938e-16)
(0.421566 -9.97181e-18 1.83617e-16)
(0.449066 -8.14242e-17 1.36365e-16)
(0.449066 -9.92474e-18 1.81739e-16)
(0.47494 -9.04261e-17 1.34178e-16)
(0.47494 -9.65217e-18 1.78226e-16)
(0.499238 -9.63391e-17 1.31741e-16)
(0.499238 -8.97774e-18 1.73947e-16)
(0.52206 -1.03105e-16 1.29771e-16)
(0.52206 -9.3734e-18 1.68745e-16)
(0.543531 -1.13488e-16 1.27853e-16)
(0.543531 -6.25116e-18 1.63237e-16)
(0.56378 -1.22883e-16 1.25182e-16)
(0.56378 -2.4606e-18 1.58094e-16)
(0.582931 -1.31916e-16 1.2277e-16)
(0.582931 -4.24874e-18 1.52163e-16)
(0.601098 -1.35867e-16 1.20389e-16)
(0.601098 -1.01883e-17 1.45499e-16)
(0.618384 -1.39886e-16 1.18932e-16)
(0.618384 -1.52115e-17 1.38602e-16)
(0.634881 -1.52872e-16 1.16742e-16)
(0.634881 -2.1017e-17 1.31118e-16)
(0.65067 -1.64168e-16 1.15023e-16)
(0.65067 -3.00129e-17 1.22194e-16)
(0.665822 -1.74951e-16 1.13192e-16)
(0.665822 -3.65642e-17 1.11696e-16)
(0.680399 -1.88756e-16 1.12849e-16)
(0.680399 -4.13563e-17 9.79816e-17)
(0.694456 -2.04707e-16 1.13391e-16)
(0.694456 -4.18649e-17 8.15053e-17)
(0.708041 -2.22437e-16 1.12712e-16)
(0.708041 -4.02369e-17 6.38552e-17)
(0.721195 -2.36518e-16 1.116e-16)
(0.721195 -4.83503e-17 9.95405e-18)
(0.733956 -2.44135e-16 1.11989e-16)
(0.733956 -5.30736e-17 -2.63209e-17)
(0.746357 -2.49286e-16 1.11034e-16)
(0.746357 -6.70751e-17 -2.86351e-17)
(0.758425 -2.5458e-16 1.08469e-16)
(0.758425 -8.3278e-17 -2.8693e-17)
(0.770186 -2.62522e-16 1.09236e-16)
(0.770186 -9.30289e-17 -3.23391e-17)
(0.781663 -2.7331e-16 1.09726e-16)
(0.781663 -1.17543e-16 -3.60635e-17)
(0.792876 -2.78228e-16 1.06209e-16)
(0.792876 -1.36084e-16 -3.73834e-17)
(0.803843 -2.76147e-16 1.07074e-16)
(0.803843 -1.47757e-16 -3.858e-17)
(0.814578 -2.86873e-16 1.10697e-16)
(0.814578 -1.7297e-16 -3.90582e-17)
(0.825096 -3.01415e-16 1.09452e-16)
(0.825096 -2.089e-16 -3.83679e-17)
(0.835409 -3.15309e-16 1.18375e-16)
(0.835409 -2.18822e-16 -4.1526e-17)
(0.845527 -3.51976e-16 1.21607e-16)
(0.845527 -2.45823e-16 -5.05497e-17)
(0.855462 -3.78065e-16 1.14635e-16)
(0.855462 -2.45825e-16 -5.03378e-17)
(0.86522 -3.94191e-16 1.02676e-16)
(0.86522 -2.66555e-16 -4.96745e-17)
(0.87481 -4.07952e-16 9.01894e-17)
(0.87481 -3.08502e-16 -5.66114e-17)
(0.884237 -4.28217e-16 9.70118e-17)
(0.884237 -3.35626e-16 -6.89219e-17)
(0.893508 -4.64459e-16 9.69721e-17)
(0.893508 -3.89273e-16 -7.39895e-17)
(0.902626 -4.94066e-16 1.00225e-16)
(0.902626 -4.18637e-16 -8.08835e-17)
(0.911598 -5.28034e-16 9.51918e-17)
(0.911598 -4.3402e-16 -7.34181e-17)
(0.920425 -5.59266e-16 9.20523e-17)
(0.920425 -4.59713e-16 -7.73317e-17)
(0.929111 -5.81449e-16 7.49078e-17)
(0.929111 -4.85842e-16 -7.68053e-17)
(0.937659 -6.09179e-16 6.14131e-17)
(0.937659 -5.73017e-16 -7.47557e-17)
(0.946069 -6.30772e-16 2.69352e-17)
(0.946069 -6.32187e-16 -8.05151e-17)
(0.954343 -6.75751e-16 7.64454e-18)
(0.954343 -6.72203e-16 -9.27182e-17)
(0.962483 -7.60418e-16 8.09357e-18)
(0.962483 -7.08356e-16 -1.01895e-16)
(0.970487 -8.04854e-16 -4.87921e-17)
(0.970487 -7.46468e-16 -9.02638e-17)
(0.978357 -8.0902e-16 -7.17056e-17)
(0.978357 -7.76751e-16 -5.47463e-17)
(0.986092 -8.47028e-16 -5.92827e-17)
(0.986092 -8.07429e-16 -9.04811e-17)
(0.993689 -8.73088e-16 -8.97421e-17)
(0.993689 -8.51107e-16 -1.02554e-16)
(1.00115 -8.96522e-16 -6.29057e-17)
(1.00115 -8.9588e-16 -4.34467e-17)
(1.00846 -9.20596e-16 -4.48083e-17)
(1.00846 -9.18372e-16 -2.7658e-17)
(1.01564 -9.22983e-16 -2.56426e-17)
(1.01564 -8.84485e-16 -7.31237e-17)
(1.02266 -8.51431e-16 -1.26061e-16)
(1.02266 -8.98572e-16 -1.39449e-16)
(1.02953 -8.80769e-16 -1.24076e-16)
(1.02953 -9.0649e-16 -7.09975e-17)
(1.03624 -9.0539e-16 -1.3786e-16)
(1.03624 -9.02201e-16 -1.13347e-16)
(1.04278 -8.75583e-16 -1.27718e-16)
(1.04278 -8.68433e-16 -1.64315e-16)
(1.04914 -8.92887e-16 1.18649e-17)
(1.04914 -8.88302e-16 -8.0044e-17)
(1.05531 -8.22048e-16 -1.5028e-16)
(1.05531 -8.51831e-16 -2.01551e-16)
(1.06127 -8.88061e-16 -3.46733e-16)
(1.06127 -9.08227e-16 -1.18209e-16)
(1.06701 -9.93013e-16 -1.10733e-16)
(1.06701 -9.89148e-16 2.68008e-17)
(1.0725 -9.65833e-16 8.51051e-17)
(1.0725 -9.24798e-16 -2.49123e-16)
(1.07771 -8.72306e-16 -1.86979e-16)
(1.07771 -8.27992e-16 -2.09608e-16)
(1.0826 -8.11144e-16 8.22806e-17)
(1.0826 -8.21105e-16 -5.9674e-17)
(1.08713 -7.76787e-16 5.38794e-17)
(1.08713 -7.79245e-16 3.93372e-17)
(1.09122 -8.27556e-16 6.17217e-17)
(1.09122 -7.10481e-16 1.71403e-16)
(1.09479 -7.97414e-16 0)
(1.09479 -6.94209e-16 2.23152e-16)
(1.09773 -7.40776e-16 2.96897e-16)
(1.09773 -7.49844e-16 7.94078e-17)
(1.09989 -7.11473e-16 2.0345e-16)
(1.09989 -8.22325e-16 1.92339e-16)
(1.10107 -6.1123e-16 3.02099e-16)
(1.10107 -6.84525e-16 -1.28189e-31)
(1.10107 -6.91767e-16 -2.23873e-16)
(1.10107 -6.42897e-16 -2.48631e-16)
(1.09989 -6.05321e-16 6.7345e-17)
(1.09989 -5.8358e-16 -2.54031e-17)
(1.09773 -4.56511e-16 -6.26399e-17)
(1.09773 -4.37593e-16 3.51915e-17)
(1.09479 -4.93325e-16 -1.69169e-17)
(1.09479 -4.51477e-16 -9.38805e-17)
(1.09122 -4.88551e-16 -3.99195e-17)
(1.09122 -4.70609e-16 1.82136e-17)
(1.08713 -4.07585e-16 -6.5632e-17)
(1.08713 -4.66109e-16 -3.88247e-17)
(1.0826 -4.58123e-16 -8.2928e-17)
(1.0826 -4.73899e-16 -2.33335e-17)
(1.07771 -4.42476e-16 2.71896e-17)
(1.07771 -4.25397e-16 -9.12246e-17)
(1.0725 -3.27514e-16 -9.24253e-17)
(1.0725 -3.65831e-16 -6.13645e-17)
(1.06701 -3.22037e-16 -9.95517e-17)
(1.06701 -3.47428e-16 -1.03728e-17)
(1.06127 -3.65756e-16 -1.46227e-17)
(1.06127 -3.30244e-16 -2.82775e-17)
(1.05531 -3.01294e-16 2.56462e-17)
(1.05531 -2.68101e-16 -4.2557e-17)
(1.04914 -2.26739e-16 4.78511e-17)
(1.04914 -2.41006e-16 -4.61049e-17)
(1.04278 -2.03111e-16 1.21849e-17)
(1.04278 -2.79137e-16 8.29381e-18)
(1.03624 -2.09985e-16 -1.76805e-18)
(1.03624 -2.31442e-16 -3.27366e-17)
(1.02953 -1.68483e-16 -7.43034e-17)
(1.02953 -1.71979e-16 -1.49745e-18)
(1.02266 -1.39022e-16 -6.33911e-17)
(1.02266 -1.14133e-16 2.80952e-18)
(1.01564 -1.48457e-16 -3.61567e-17)
(1.01564 -1.45988e-16 -1.13596e-17)
(1.00846 -1.45877e-16 8.73484e-18)
(1.00846 -1.98325e-16 8.53725e-18)
(1.00115 -1.19785e-16 -3.00055e-17)
(1.00115 -1.30743e-16 2.22217e-17)
(0.993689 -1.52705e-16 -7.74266e-18)
(0.993689 -1.10843e-16 1.10257e-17)
(0.986092 -1.12689e-16 -4.95851e-18)
(0.986092 -1.07436e-16 1.30758e-17)
(0.978357 -8.7071e-17 1.00429e-18)
(0.978357 -7.49755e-17 -3.81928e-18)
(0.970488 -9.33396e-17 1.62712e-17)
(0.970488 -6.11612e-17 -2.3576e-17)
(0.962483 -4.36301e-17 -7.08988e-18)
(0.962483 -5.64008e-17 -2.8936e-17)
(0.954343 -4.39866e-17 3.06782e-18)
(0.954343 -8.02395e-17 -9.97222e-18)
(0.946069 -2.74304e-17 1.2619e-17)
(0.946069 -9.72343e-18 -1.23516e-17)
(0.937659 -1.7398e-17 1.62296e-17)
(0.937659 -4.68286e-18 -8.06162e-18)
(0.929111 -2.51653e-17 1.72607e-17)
(0.929111 -2.7496e-17 -1.10947e-17)
(0.920425 -4.87015e-17 1.91266e-17)
(0.920425 -3.36372e-17 -5.25399e-18)
(0.911598 -3.32964e-17 1.83635e-17)
(0.911598 -1.78073e-18 -1.06235e-17)
(0.902627 -2.35036e-17 2.12058e-17)
(0.902627 -1.91326e-17 -5.30196e-18)
(0.893508 -4.21777e-18 1.28076e-17)
(0.893508 -3.67089e-17 5.96759e-18)
(0.884237 7.21346e-18 -5.9899e-18)
(0.884237 -3.71532e-17 1.30364e-17)
(0.87481 -5.10569e-18 -2.11154e-17)
(0.87481 -3.68011e-17 1.83435e-17)
(0.86522 -3.36529e-17 -2.8841e-17)
(0.86522 -2.76471e-17 2.6586e-17)
(0.855462 -4.52566e-17 -2.08063e-17)
(0.855462 -2.01416e-17 2.84218e-17)
(0.845528 -4.86365e-17 -3.19213e-18)
(0.845528 -3.88397e-18 2.01524e-17)
(0.835409 -3.42037e-17 2.74558e-18)
(0.835409 -4.23093e-18 1.72054e-17)
(0.825096 -3.47835e-17 -8.01489e-19)
(0.825096 -5.72678e-18 1.38839e-17)
(0.814578 -2.56743e-17 -1.77573e-18)
(0.814578 2.75009e-18 1.13868e-17)
(0.803843 -2.34798e-17 -4.05606e-18)
(0.803843 3.83183e-18 2.03537e-18)
(0.792876 -1.37331e-17 -1.41236e-18)
(0.792876 -9.28309e-18 -2.00494e-18)
(0.781663 6.0959e-18 -4.64432e-18)
(0.781663 -1.83495e-17 1.0873e-17)
(0.770186 4.3666e-18 -5.7089e-18)
(0.770186 -1.63416e-17 1.10818e-17)
(0.758425 5.44227e-18 -6.62185e-18)
(0.758425 -1.93643e-17 1.01241e-17)
(0.746357 -7.80445e-18 -8.27846e-18)
(0.746357 -2.37007e-17 7.87257e-18)
(0.733956 -4.77067e-18 -7.47771e-18)
(0.733956 -1.2952e-17 7.05689e-18)
(0.721195 -4.73763e-18 -5.58991e-18)
(0.721195 -4.38503e-18 5.62553e-18)
(0.708041 -1.89637e-18 -5.31647e-18)
(0.708041 -9.30458e-18 4.46066e-18)
(0.694456 -1.4224e-18 -5.67065e-18)
(0.694456 2.26075e-19 4.05534e-18)
(0.680399 -1.73198e-18 -6.11433e-18)
(0.680399 4.61963e-18 3.78574e-18)
(0.665822 -3.18644e-18 -6.57401e-18)
(0.665822 -3.17076e-18 2.71458e-18)
(0.65067 1.49766e-19 -6.35122e-18)
(0.65067 -2.76955e-18 1.27746e-18)
(0.634881 -6.84963e-18 -5.73701e-18)
(0.634881 -2.06535e-18 1.55132e-19)
(0.618384 -7.70502e-18 -5.53845e-18)
(0.618384 -1.68648e-18 -3.82401e-20)
(0.601098 -5.55042e-18 -5.26503e-18)
(0.601098 8.15588e-19 -5.03923e-20)
(0.582931 -5.49977e-18 -5.0606e-18)
(0.582931 1.86446e-19 1.40786e-19)
(0.56378 -6.54534e-18 -4.69913e-18)
(0.56378 -7.65e-19 2.08168e-19)
(0.543531 -3.73229e-18 -4.70716e-18)
(0.543531 2.34545e-19 -1.63343e-19)
(0.52206 -5.72287e-18 -4.57745e-18)
(0.52206 6.47524e-19 -1.74219e-19)
(0.499238 -3.93765e-18 -4.08417e-18)
(0.499238 -3.27837e-19 -3.21204e-19)
(0.47494 -1.10103e-18 -3.94894e-18)
(0.47494 -3.31335e-19 -5.7247e-20)
(0.449066 -9.52119e-19 -4.04601e-18)
(0.449066 -7.94225e-19 1.83928e-19)
(0.421566 -2.29786e-18 -3.75792e-18)
(0.421566 -9.20899e-19 3.73095e-19)
(0.392479 -1.54689e-19 -3.46787e-18)
(0.392479 -1.31609e-18 6.20556e-19)
(0.361982 -1.75363e-18 -3.35323e-18)
(0.361982 -2.04487e-18 8.85409e-19)
(0.330417 -1.56791e-18 -3.12414e-18)
(0.330417 -1.30962e-18 1.00877e-18)
(0.298285 -1.36604e-18 -2.88379e-18)
(0.298285 -2.81049e-19 1.08396e-18)
(0.26617 -1.26127e-18 -2.63438e-18)
(0.26617 4.35038e-19 1.0731e-18)
(0.234635 -1.28625e-18 -2.32814e-18)
(0.234635 2.68472e-19 1.04406e-18)
(0.20412 -3.62155e-19 -2.03509e-18)
(0.20412 -8.76088e-20 9.58193e-19)
(0.174908 -7.71121e-19 -1.7843e-18)
(0.174908 -3.27654e-20 9.03518e-19)
(0.147133 -3.75948e-19 -1.57114e-18)
(0.147133 -4.34462e-20 8.51152e-19)
(0.120826 -1.48896e-19 -1.37867e-18)
(0.120826 -6.56646e-20 7.81572e-19)
(0.095957 -1.20578e-19 -1.22058e-18)
(0.095957 -1.23342e-19 7.12413e-19)
(0.0724692 -1.17704e-19 -1.08462e-18)
(0.0724692 -3.26376e-20 6.47506e-19)
(0.0502934 -1.26273e-19 -9.63996e-19)
(0.0502934 1.27136e-20 5.84775e-19)
(0.0293591 -7.28206e-20 -8.55084e-19)
(0.0293591 -3.09083e-20 5.22915e-19)
(0.00959811 6.9704e-21 -4.68972e-19)
(0.00959811 -3.45776e-21 -1.77862e-19)
(1.10107 -5.85583e-16 1.77987e-16)
(1.10107 -6.01372e-16 2.39718e-16)
(1.09989 -5.65923e-16 6.20086e-17)
(1.09989 -6.02194e-16 4.41195e-17)
(1.09773 -4.89592e-16 -5.57285e-18)
(1.09773 -4.58113e-16 1.04232e-16)
(1.09479 -4.89397e-16 5.64786e-17)
(1.09479 -4.69291e-16 -1.98623e-17)
(1.09122 -4.57097e-16 -3.42349e-17)
(1.09122 -4.74314e-16 5.62797e-17)
(1.08713 -3.96427e-16 1.66292e-16)
(1.08713 -4.388e-16 6.72935e-17)
(1.0826 -3.98215e-16 4.23896e-17)
(1.0826 -4.46945e-16 -9.22651e-18)
(1.07771 -4.56424e-16 4.54828e-17)
(1.07771 -4.36087e-16 4.51358e-17)
(1.0725 -3.8649e-16 1.03245e-16)
(1.0725 -4.18088e-16 -1.35678e-17)
(1.06701 -4.13477e-16 3.93303e-17)
(1.06701 -3.97376e-16 -6.1785e-17)
(1.06127 -3.81667e-16 -5.78386e-17)
(1.06127 -3.45805e-16 -5.55189e-17)
(1.05531 -2.88499e-16 -3.60362e-17)
(1.05531 -3.09746e-16 2.07518e-17)
(1.04914 -2.67134e-16 -4.67001e-17)
(1.04914 -2.79751e-16 2.5777e-18)
(1.04278 -2.96805e-16 -1.27225e-31)
(1.04278 -3.12565e-16 1.73357e-17)
(1.03624 -2.33606e-16 1.1722e-16)
(1.03624 -2.64964e-16 -5.19176e-18)
(1.02953 -1.40764e-16 1.37002e-18)
(1.02953 -1.27176e-16 1.1059e-17)
(1.02266 -1.2957e-16 -8.86405e-19)
(1.02266 -8.15074e-17 3.42027e-17)
(1.01564 -7.55349e-17 1.7238e-17)
(1.01564 -4.3764e-17 3.03964e-18)
(1.00846 -7.58949e-17 -2.07051e-18)
(1.00846 -4.99773e-17 8.67731e-31)
(1.00115 -1.01815e-16 -1.30531e-17)
(1.00115 -1.21877e-16 -7.50694e-18)
(0.993689 -9.80934e-17 -9.96243e-18)
(0.993689 -1.2164e-16 -1.30321e-17)
(0.986092 -8.89798e-17 6.07603e-19)
(0.986092 -1.04255e-16 5.71428e-18)
(0.978357 -1.01091e-16 -1.27728e-17)
(0.978357 -8.44296e-17 -4.3256e-18)
(0.970488 -8.5252e-17 1.96813e-17)
(0.970488 -5.69922e-17 -2.60691e-17)
(0.962483 -5.58103e-17 1.44116e-17)
(0.962483 -5.41535e-17 -7.46091e-18)
(0.954343 -6.25782e-17 -1.07965e-30)
(0.954343 -3.45337e-17 4.95764e-18)
(0.946069 -3.3294e-17 8.4284e-18)
(0.946069 -5.27339e-18 -4.57186e-18)
(0.937659 -3.44125e-17 1.72565e-17)
(0.937659 -5.10023e-17 0)
(0.929111 -3.12319e-17 7.26887e-18)
(0.929111 -5.05254e-17 1.36717e-17)
(0.920425 -2.51737e-17 2.54702e-18)
(0.920425 -2.83707e-17 6.37413e-18)
(0.911598 -1.45911e-17 5.11781e-18)
(0.911598 -3.59916e-18 -8.9866e-18)
(0.902627 -2.46098e-17 1.30404e-17)
(0.902627 -2.90082e-17 -8.65096e-18)
(0.893508 -2.34857e-17 3.81929e-18)
(0.893508 -3.73195e-17 6.54712e-18)
(0.884237 -1.47975e-17 1.30595e-18)
(0.884237 -3.9386e-17 6.63632e-18)
(0.87481 -5.32006e-17 8.00537e-18)
(0.87481 -3.40125e-17 -3.93877e-18)
(0.86522 -5.59152e-17 1.83591e-19)
(0.86522 -1.99757e-17 -6.82606e-18)
(0.855462 -4.90506e-17 -5.70746e-18)
(0.855462 -4.26762e-17 -1.53474e-31)
(0.845528 -4.25809e-17 -5.72098e-18)
(0.845528 -3.07219e-17 2.31703e-18)
(0.835409 -3.73068e-17 -8.07826e-18)
(0.835409 -1.23089e-17 4.35743e-18)
(0.825096 -3.15705e-17 -9.357e-18)
(0.825096 -7.12699e-18 4.60749e-18)
(0.814578 -3.16379e-17 -2.39173e-18)
(0.814578 -1.57485e-17 5.26662e-18)
(0.803843 -3.18156e-17 -4.29841e-32)
(0.803843 -7.86605e-18 1.44369e-17)
(0.792876 -1.43869e-17 3.13625e-18)
(0.792876 -8.27724e-18 1.32867e-17)
(0.781663 -1.59848e-17 1.53153e-18)
(0.781663 -1.53299e-17 9.56457e-18)
(0.770186 -1.55584e-17 -1.24849e-18)
(0.770186 -6.92245e-18 6.55598e-18)
(0.758425 -8.92695e-18 -3.87578e-18)
(0.758425 -9.14445e-18 5.9025e-18)
(0.746357 -6.98099e-18 -2.7775e-18)
(0.746357 -1.94696e-17 4.99864e-18)
(0.733956 -8.05216e-18 4.40065e-19)
(0.733956 -2.4091e-17 4.99101e-18)
(0.721195 3.39541e-18 2.1553e-18)
(0.721195 -1.53809e-17 2.97723e-18)
(0.708041 2.80505e-18 1.09643e-18)
(0.708041 -2.01486e-17 2.07189e-18)
(0.694456 -2.24477e-18 3.07245e-19)
(0.694456 -1.08535e-17 1.16224e-18)
(0.680399 -4.04983e-18 -3.57393e-19)
(0.680399 -1.07674e-17 6.73438e-19)
(0.665822 -6.7826e-19 1.85327e-20)
(0.665822 -1.40829e-17 3.72933e-19)
(0.65067 3.36431e-18 6.85472e-19)
(0.65067 -6.6811e-18 3.97196e-19)
(0.634881 3.29319e-18 1.12955e-18)
(0.634881 -1.88674e-18 -2.02304e-19)
(0.618384 2.34588e-18 8.73221e-19)
(0.618384 -3.10687e-18 -1.1931e-19)
(0.601098 1.36382e-18 7.77427e-19)
(0.601098 -1.38754e-18 -1.16414e-19)
(0.582931 1.57096e-20 5.48079e-19)
(0.582931 -1.1987e-18 2.08295e-19)
(0.56378 -1.67462e-18 6.11089e-19)
(0.56378 -1.46202e-18 1.38602e-21)
(0.543531 -2.93821e-18 4.63679e-19)
(0.543531 -2.22186e-18 -7.44773e-20)
(0.52206 -8.81784e-19 3.60905e-19)
(0.52206 -2.50633e-18 3.61485e-21)
(0.499238 2.20211e-19 6.81189e-19)
(0.499238 -5.6346e-19 -6.53307e-20)
(0.47494 -1.88943e-18 5.01895e-19)
(0.47494 1.96227e-18 2.05034e-19)
(0.449066 -1.35922e-18 2.4871e-19)
(0.449066 9.06007e-19 2.38095e-19)
(0.421566 5.48716e-19 3.27422e-19)
(0.421566 1.28194e-19 1.32112e-19)
(0.392479 1.65702e-19 2.8229e-19)
(0.392479 5.63935e-19 2.17719e-19)
(0.361982 -3.92598e-19 3.23619e-20)
(0.361982 1.02662e-18 -5.25029e-20)
(0.330417 4.75515e-19 -2.38916e-20)
(0.330417 1.12564e-18 -1.14041e-19)
(0.298285 3.88693e-19 -8.85861e-20)
(0.298285 -4.21837e-19 -6.78213e-20)
(0.26617 3.1196e-19 -1.63169e-19)
(0.26617 -1.59151e-18 -1.59878e-20)
(0.234635 8.92913e-19 -1.83157e-19)
(0.234635 -1.18999e-18 2.49811e-20)
(0.20412 7.35593e-19 -1.74487e-19)
(0.20412 -7.30837e-19 -5.08403e-21)
(0.174908 4.89773e-19 -2.11397e-19)
(0.174908 -4.30175e-19 1.46168e-20)
(0.147133 6.34488e-19 -2.23116e-19)
(0.147133 -4.22428e-19 -1.89433e-20)
(0.120826 3.20205e-19 -2.09574e-19)
(0.120826 -2.83323e-19 -1.39135e-20)
(0.095957 1.23347e-19 -2.0289e-19)
(0.095957 -9.01302e-20 -5.78484e-21)
(0.0724692 6.98175e-20 -1.87833e-19)
(0.0724692 -2.1234e-19 1.37731e-21)
(0.0502934 4.00701e-20 -1.75189e-19)
(0.0502934 -3.12094e-20 5.92587e-21)
(0.0293591 2.32416e-20 -1.55382e-19)
(0.0293591 -2.82564e-20 -6.15401e-22)
(0.00959811 1.23317e-20 5.81696e-20)
(0.00959811 -1.94019e-20 1.99068e-34)
)
;

boundaryField
{
    walls
    {
        type            fixedValue;
        value           uniform (0 0 0);
    }
    inlet
    {
        type            cyclic;
    }
    outlet
    {
        type            cyclic;
    }
    sides
    {
        type            empty;
    }
}


// ************************************************************************* //
