/*--------------------------------*- C++ -*----------------------------------*\
| =========                 |                                                 |
| \\      /  F ield         | OpenFOAM: The Open Source CFD Toolbox           |
|  \\    /   O peration     | Version:  2106                                  |
|   \\  /    A nd           | Website:  www.openfoam.com                      |
|    \\/     M anipulation  |                                                 |
\*---------------------------------------------------------------------------*/
FoamFile
{
    version     2.0;
    format      ascii;
    arch        "LSB;label=32;scalar=64";
    class       volTensorField;
    location    "2000";
    object      grad(U);
}
// * * * * * * * * * * * * * * * * * * * * * * * * * * * * * * * * * * * * * //

dimensions      [0 0 -1 0 0 0 0];

internalField   nonuniform List<tensor> 
2560
(
(0 4.15781e-30 1.03945e-30 295.355 -1.19116e-11 -5.76432e-12 0.427561 -8.62057e-15 -2.27382e-15)
(0 -6.81921e-27 -9.249e-26 295.355 0 -2.11195e-12 0.427561 -1.7048e-27 -1.71573e-15)
(0 -1.2207e-24 -2.82019e-25 295.266 1.61564e-27 -5.23223e-13 1.28879 0 -1.53678e-15)
(0 -8.19643e-30 0 295.266 -7.44254e-14 -1.59235e-12 1.28879 -1.30523e-16 -8.23296e-15)
(-5.47966e-17 -1.29997e-29 -2.9644e-30 294.796 2.75952e-12 -2.36098e-13 1.76727 -2.35588e-14 -1.27549e-15)
(0 2.42369e-29 4.03948e-30 294.796 -7.83879e-14 -9.79943e-14 1.76727 -2.64991e-16 -8.45134e-15)
(1.76502e-16 -1.27991e-29 -5.18711e-30 292.833 8.70317e-13 -1.518e-13 1.77393 -9.22959e-15 -5.54994e-16)
(0 7.96317e-30 3.98158e-30 292.833 -8.53682e-14 -6.03689e-14 1.77393 -4.20046e-16 -8.63153e-15)
(1.10465e-15 -3.92452e-29 -1.29663e-30 287.063 1.09853e-13 4.22789e-28 1.74774 -1.23723e-15 1.57772e-30)
(0 3.13961e-29 7.84903e-30 287.063 -8.72836e-14 1.68961e-14 1.74774 -5.85877e-16 -8.69932e-15)
(9.79521e-16 -3.82539e-27 -5.48387e-28 274.732 3.28816e-14 2.57695e-13 1.6713 -1.02319e-16 -8.01882e-16)
(3.48088e-15 1.54731e-29 3.86827e-30 274.732 -8.48549e-14 1.26536e-13 1.6713 -7.5426e-16 -8.5579e-15)
(-5.68528e-16 -9.2984e-30 8.77828e-31 254.813 1.53397e-13 5.02443e-13 1.54557 -8.43115e-16 -2.49368e-15)
(2.27411e-15 2.2877e-29 3.81283e-30 254.813 -7.91507e-14 2.33073e-13 1.54557 -9.16431e-16 -8.15717e-15)
(-6.97115e-16 2.09214e-29 4.35901e-30 229.36 1.65265e-13 6.50425e-13 1.39179 -1.09581e-15 -3.86103e-15)
(2.78846e-15 -7.51636e-30 0 229.36 -7.21113e-14 2.9872e-13 1.39179 -1.06421e-15 -7.54798e-15)
(1.8581e-15 -2.80975e-29 -2.2661e-30 202.191 1.45961e-13 6.83923e-13 1.23514 -1.02096e-15 -4.47639e-15)
(-1.04267e-15 2.22259e-29 1.85216e-30 202.191 -6.49465e-14 3.1308e-13 1.23514 -1.20302e-15 -6.84595e-15)
(0 7.30244e-30 1.82561e-30 176.531 1.22727e-13 6.36311e-13 1.09172 -8.75167e-16 -4.4127e-15)
(0 0 0 176.531 -5.80425e-14 2.9125e-13 1.09172 -1.3283e-15 -6.15494e-15)
(-1.01402e-15 -1.57251e-29 -5.10514e-30 153.991 1.03531e-13 5.52915e-13 0.967567 -7.42265e-16 -3.9751e-15)
(0 2.15933e-29 5.39834e-30 153.991 -5.22236e-14 2.53597e-13 0.967567 -1.44139e-15 -5.53196e-15)
(1.0957e-15 -3.42444e-29 -3.84036e-30 134.907 8.91847e-14 4.64058e-13 0.862796 -6.42109e-16 -3.41813e-15)
(0 2.12839e-29 3.54731e-30 134.907 -4.76497e-14 2.13685e-13 0.862796 -1.54759e-15 -4.99471e-15)
(1.96834e-15 -1.39859e-29 -1.74823e-30 118.99 7.79308e-14 3.83579e-13 0.775134 -5.67874e-16 -2.8767e-15)
(0 1.39859e-29 3.49647e-30 118.99 -4.25998e-14 1.77644e-13 0.775134 -1.64484e-15 -4.54051e-15)
(-1.2317e-15 1.27518e-29 2.0381e-30 105.751 7.003e-14 3.15557e-13 0.701756 -5.04819e-16 -2.40196e-15)
(4.92681e-15 0 0 105.751 -3.84707e-14 1.47243e-13 0.701756 -1.73161e-15 -4.15886e-15)
(0 3.39696e-29 1.69848e-30 94.6973 6.50087e-14 2.59763e-13 0.640031 -4.73328e-16 -2.00375e-15)
(0 -3.39696e-29 -1.69848e-30 94.6973 -3.70778e-14 1.22373e-13 0.640031 -1.81531e-15 -3.83799e-15)
(-1.34063e-15 -7.54899e-30 3.33332e-31 85.4068 6.11001e-14 2.14505e-13 0.587743 -4.47918e-16 -1.67575e-15)
(5.36252e-15 1.33931e-29 0 85.4068 -3.60416e-14 1.02296e-13 0.587743 -1.89826e-15 -3.56692e-15)
(0 3.96034e-29 3.30028e-30 77.535 5.74696e-14 1.77844e-13 0.543102 -4.30578e-16 -1.4069e-15)
(-5.55043e-15 -3.96034e-29 -3.30028e-30 77.535 -3.4151e-14 8.61037e-14 0.543102 -1.97564e-15 -3.33646e-15)
(-1.83127e-15 3.25298e-29 3.25298e-30 70.8092 5.30256e-14 1.48036e-13 0.504686 -4.07688e-16 -1.18609e-15)
(-3.89123e-15 -3.25298e-29 -3.25298e-30 70.8092 -3.08076e-14 7.29644e-14 0.504686 -2.04921e-15 -3.13914e-15)
(1.80502e-15 -1.92381e-29 0 65.015 4.94877e-14 1.23652e-13 0.471371 -3.76936e-16 -1.00371e-15)
(0 1.92381e-29 0 65.015 -2.85021e-14 6.22548e-14 0.471371 -2.11438e-15 -2.96916e-15)
(-2.72134e-16 1.94671e-29 2.02018e-30 59.984 4.8087e-14 1.03561e-13 0.442266 -3.66117e-16 -8.52017e-16)
(-4.24891e-15 -3.1604e-29 -3.1604e-30 59.984 -2.80361e-14 5.3476e-14 0.442266 -2.18011e-15 -2.82164e-15)
(0 3.11511e-29 2.33633e-30 55.5832 4.62803e-14 8.68814e-14 0.416664 -3.66484e-16 -7.24799e-16)
(0 -3.11511e-29 -2.33633e-30 55.5832 -2.66429e-14 4.62092e-14 0.416664 -2.24672e-15 -2.69288e-15)
(-1.57331e-15 -3.40566e-31 3.54457e-31 51.7071 4.26655e-14 7.29219e-14 0.393998 -3.48714e-16 -6.17297e-16)
(0 1.22818e-29 7.67614e-31 51.7071 -2.44052e-14 4.01665e-14 0.393998 -2.30911e-15 -2.57987e-15)
(1.80403e-15 -4.86798e-29 -4.9398e-30 48.2713 4.02162e-14 6.11413e-14 0.373811 -3.20122e-16 -5.25538e-16)
(0 4.84232e-29 3.02645e-30 48.2713 -2.29424e-14 3.51267e-14 0.373811 -2.36721e-15 -2.48031e-15)
(-1.67932e-15 1.78984e-29 1.49154e-30 45.2077 4.0115e-14 5.11295e-14 0.355733 -3.1968e-16 -4.46598e-16)
(-4.84828e-15 -2.38646e-29 -2.98307e-30 45.2077 -2.28547e-14 3.08985e-14 0.355733 -2.42528e-15 -2.39201e-15)
(3.59129e-18 2.95042e-29 1.84432e-30 42.4611 3.90381e-14 4.25633e-14 0.339459 -3.27854e-16 -3.78163e-16)
(1.65525e-15 -3.52838e-29 -2.20524e-30 42.4611 -2.2739e-14 2.73212e-14 0.339459 -2.48196e-15 -2.31324e-15)
(-3.36888e-15 5.21236e-29 3.62509e-30 39.9863 3.69726e-14 3.51819e-14 0.324738 -3.11283e-16 -3.18387e-16)
(0 -4.05745e-29 -2.89818e-30 39.9863 -2.11398e-14 2.42413e-14 0.324738 -2.53486e-15 -2.24257e-15)
(5.12649e-15 -5.72998e-29 -3.95547e-30 37.7458 3.59399e-14 2.87753e-14 0.311365 -3.02893e-16 -2.6572e-16)
(1.36706e-14 3.99929e-29 3.5708e-30 37.7458 -1.84468e-14 2.15825e-14 0.311365 -2.58731e-15 -2.17918e-15)
(0 -3.37883e-29 -1.40785e-30 35.7087 3.5041e-14 2.31819e-14 0.299164 -3.02868e-16 -2.18946e-16)
(6.92851e-15 3.37883e-29 2.11177e-30 35.7087 -1.67577e-14 1.9305e-14 0.299164 -2.63469e-15 -2.12208e-15)
(1.75444e-15 1.64475e-29 1.70864e-30 33.8491 3.39064e-14 1.82676e-14 0.28799 -2.96284e-16 -1.77162e-16)
(-1.56238e-15 -1.6652e-29 -1.38767e-30 33.8491 -1.75111e-14 1.73706e-14 0.28799 -2.6768e-15 -2.07065e-15)
(-3.55169e-15 5.5541e-31 7.53392e-31 32.1451 3.32381e-14 1.39253e-14 0.277719 -2.91913e-16 -1.39483e-16)
(-1.42068e-14 1.09422e-29 0 32.1451 -1.82689e-14 1.57239e-14 0.277719 -2.72855e-15 -2.02389e-15)
(-4.83226e-15 1.65269e-29 1.05497e-30 30.5784 3.25904e-14 1.00703e-14 0.268246 -2.93116e-16 -1.05368e-16)
(-7.18573e-15 0 0 30.5784 -1.76804e-14 1.4235e-14 0.268246 -2.78193e-15 -1.98103e-15)
(0 3.18925e-29 3.32213e-30 29.1332 3.1066e-14 6.62233e-15 0.259481 -2.88813e-16 -7.42308e-17)
(-7.26505e-15 -3.18925e-29 -3.32213e-30 29.1332 -1.73145e-14 1.28552e-14 0.259481 -2.83077e-15 -1.94189e-15)
(0 -3.14354e-29 -2.61962e-30 27.7959 2.88129e-14 3.51729e-15 0.251347 -2.73884e-16 -4.55353e-17)
(7.34158e-15 3.14354e-29 2.61962e-30 27.7959 -1.58726e-14 1.16632e-14 0.251347 -2.8792e-15 -1.90646e-15)
(-1.85389e-15 5.64472e-31 -8.95246e-31 26.5551 2.66183e-14 7.11883e-16 0.243776 -2.55561e-16 -1.892e-17)
(0 5.16414e-30 1.93655e-30 26.5551 -1.44282e-14 1.06767e-14 0.243776 -2.92759e-15 -1.8741e-15)
(-4.73727e-15 3.11759e-29 3.57807e-30 25.4008 2.60967e-14 -1.82826e-15 0.236712 -2.40688e-16 -2.89304e-17)
(2.86549e-15 -2.54506e-29 -3.18133e-30 25.4008 -1.45129e-14 9.81192e-15 0.236712 -2.9717e-15 -1.84425e-15)
(-1.88913e-15 3.58204e-29 2.90526e-30 24.3241 2.65896e-14 -4.13326e-15 0.230103 -2.53107e-16 -5.05569e-17)
(-7.5565e-15 -2.50859e-29 0 24.3241 -1.45117e-14 9.0122e-15 0.230103 -3.01626e-15 -1.81674e-15)
(1.90595e-15 -2.05459e-29 -1.63363e-30 23.3177 2.5535e-14 -6.24094e-15 0.223905 -2.57267e-16 -7.1118e-17)
(0 1.48358e-29 1.23632e-30 23.3177 -1.32582e-14 8.29963e-15 0.223905 -3.05804e-15 -1.79153e-15)
(1.9223e-15 -3.00787e-29 -2.22652e-30 22.3747 2.4139e-14 -8.19002e-15 0.218079 -2.39837e-16 -9.08232e-17)
(0 2.43719e-29 1.82789e-30 22.3747 -1.14101e-14 7.70314e-15 0.218079 -3.09576e-15 -1.76837e-15)
(-1.93819e-15 2.9724e-29 1.60176e-30 21.4894 2.41353e-14 -9.98978e-15 0.212591 -2.37025e-16 -1.09536e-16)
(-2.7047e-15 -1.44136e-29 0 21.4894 -1.18883e-14 7.14237e-15 0.212591 -3.13952e-15 -1.74659e-15)
(0 2.36783e-29 2.36783e-30 20.6567 2.43592e-14 -1.16576e-14 0.207411 -2.46787e-16 -1.27645e-16)
(0 -3.31496e-29 -2.36783e-30 20.6567 -1.31953e-14 6.60424e-15 0.207411 -3.18492e-15 -1.72655e-15)
(-1.96873e-15 1.50231e-29 1.57333e-30 19.8719 2.41852e-14 -1.32152e-14 0.202511 -2.48555e-16 -1.45111e-16)
(7.87493e-15 0 0 19.8719 -1.2583e-14 6.13998e-15 0.202511 -3.2255e-15 -1.70807e-15)
(0 -3.68071e-29 -2.30044e-30 19.131 2.36529e-14 -1.46721e-14 0.197868 -2.50401e-16 -1.62099e-16)
(7.93372e-15 3.68071e-29 2.30044e-30 19.131 -1.25231e-14 5.76227e-15 0.197868 -3.27124e-15 -1.69104e-15)
(-5.55174e-16 2.15333e-29 1.85308e-30 18.4305 2.30701e-14 -1.60413e-14 0.193459 -2.44614e-16 -1.78646e-16)
(-5.43814e-15 -3.62795e-29 -3.40121e-30 18.4305 -1.24675e-14 5.45253e-15 0.193459 -3.32404e-15 -1.67526e-15)
(2.01178e-15 -1.46106e-29 -4.19195e-31 17.767 2.24532e-14 -1.7336e-14 0.189267 -2.4527e-16 -1.94944e-16)
(0 8.93989e-30 0 17.767 -1.18873e-14 5.13456e-15 0.189267 -3.36367e-15 -1.66025e-15)
(-2.02546e-15 5.66616e-30 4.24541e-31 17.1378 2.23405e-14 -1.85607e-14 0.185274 -2.38391e-16 -2.10841e-16)
(0 8.81176e-30 1.10147e-30 17.1378 -1.21658e-14 4.82087e-15 0.185274 -3.41399e-15 -1.64643e-15)
(-4.05891e-16 1.17133e-29 6.55291e-31 16.5402 2.27494e-14 -1.97151e-14 0.181463 -2.49975e-16 -2.26438e-16)
(8.1554e-15 -8.68546e-30 -1.08568e-30 16.5402 -1.12842e-14 4.54291e-15 0.181463 -3.46284e-15 -1.63349e-15)
(2.4097e-15 -8.56098e-30 -1.07012e-30 15.9718 2.18954e-14 -2.08173e-14 0.177822 -2.54508e-16 -2.41993e-16)
(5.79808e-15 8.56098e-30 1.07012e-30 15.9718 -1.11965e-14 4.29038e-15 0.177822 -3.50226e-15 -1.62143e-15)
(-2.06477e-15 5.64676e-30 1.49827e-30 15.4307 2.14049e-14 -2.18738e-14 0.174338 -2.37945e-16 -2.57359e-16)
(0 8.43828e-30 0 15.4307 -1.23313e-14 4.1436e-15 0.174338 -3.55182e-15 -1.61062e-15)
(-2.07733e-15 5.63935e-30 4.50745e-31 14.9148 2.16084e-14 -2.28856e-14 0.170998 -2.50686e-16 -2.72681e-16)
(0 8.31733e-30 1.03967e-30 14.9148 -1.21655e-14 4.03585e-15 0.170998 -3.59571e-15 -1.59995e-15)
(2.30757e-15 -1.63963e-29 -2.04953e-30 14.4224 2.16367e-14 -2.38724e-14 0.167793 -2.49662e-16 -2.88249e-16)
(0 1.63963e-29 1.02477e-30 14.4224 -1.10713e-14 3.90958e-15 0.167793 -3.63375e-15 -1.58989e-15)
(-2.10171e-15 -2.45203e-30 4.66739e-31 13.9519 2.22961e-14 -2.48237e-14 0.164714 -2.587e-16 -3.03507e-16)
(-2.27449e-15 2.42419e-29 2.02016e-30 13.9519 -1.13847e-14 3.79244e-15 0.164714 -3.67342e-15 -1.58019e-15)
(-2.24189e-15 3.9824e-29 2.9868e-30 13.502 2.21428e-14 -2.57321e-14 0.16175 -2.72804e-16 -3.18818e-16)
(-8.4542e-15 -3.18592e-29 -2.9868e-30 13.502 -1.23715e-14 3.65855e-15 0.16175 -3.72327e-15 -1.57094e-15)
(-2.12517e-15 -1.79363e-29 -1.47798e-30 13.0713 2.1661e-14 -2.66183e-14 0.158895 -2.62544e-16 -3.34296e-16)
(8.50068e-15 2.3552e-29 1.96266e-30 13.0713 -1.17873e-14 3.57418e-15 0.158895 -3.77679e-15 -1.56239e-15)
(0 3.09525e-29 2.9018e-30 12.6586 2.20675e-14 -2.74802e-14 0.156142 -2.68891e-16 -3.49766e-16)
(0 -3.09525e-29 -2.9018e-30 12.6586 -1.22267e-14 3.5165e-15 0.156142 -3.82933e-15 -1.55386e-15)
(-4.29465e-15 2.08538e-29 2.41132e-30 12.2628 2.29162e-14 -2.83151e-14 0.153483 -2.80426e-16 -3.65325e-16)
(1.0738e-14 -1.52545e-29 -1.90681e-30 12.2628 -1.15948e-14 3.42335e-15 0.153483 -3.88186e-15 -1.54551e-15)
(4.31758e-15 -1.86962e-29 -1.96995e-30 11.8829 2.24994e-14 -2.91307e-14 0.150913 -2.98355e-16 -3.81057e-16)
(8.63515e-15 7.51791e-30 9.39738e-31 11.8829 -9.74818e-15 3.39111e-15 0.150913 -3.92599e-15 -1.538e-15)
(2.08577e-15 -2.22305e-29 -2.77881e-30 11.518 1.97856e-14 -2.9942e-14 0.148426 -2.77885e-16 -3.97265e-16)
(0 2.22305e-29 1.85254e-30 11.518 -9.02384e-15 3.39908e-15 0.148426 -3.97201e-15 -1.53037e-15)
(-1.24359e-16 5.58681e-30 -3.75317e-31 11.1671 1.87572e-14 -3.07479e-14 0.146016 -2.36048e-16 -4.13624e-16)
(-2.05588e-15 7.30395e-30 1.82599e-30 11.1671 -7.83688e-15 3.3109e-15 0.146016 -4.01567e-15 -1.52287e-15)
(-4.38139e-15 3.27521e-29 3.79923e-30 10.8297 2.05968e-14 -3.15295e-14 0.143679 -2.58712e-16 -4.29963e-16)
(8.76278e-15 -2.87971e-29 -2.69972e-30 10.8297 -8.56099e-15 3.21315e-15 0.143679 -4.05934e-15 -1.51592e-15)
(-2.20098e-15 5.56457e-30 5.62287e-31 10.5048 2.14321e-14 -3.22961e-14 0.141412 -2.92532e-16 -4.46698e-16)
(0 7.09608e-30 0 10.5048 -1.03668e-14 3.22725e-15 0.141412 -4.11346e-15 -1.50944e-15)
(-2.2111e-15 -1.43648e-30 -2.9899e-31 10.1918 2.13375e-14 -3.3067e-14 0.139208 -2.89128e-16 -4.6394e-16)
(8.84439e-15 2.09831e-29 1.74859e-30 10.1918 -9.82081e-15 3.26396e-15 0.139208 -4.16776e-15 -1.50241e-15)
(-4.16158e-15 1.24435e-29 2.31241e-30 9.89017 2.16958e-14 -3.38333e-14 0.137066 -2.98478e-16 -4.81344e-16)
(0 0 -8.61766e-31 9.89017 -1.09504e-14 3.22364e-15 0.137066 -4.21243e-15 -1.49542e-15)
(-4.46171e-15 3.14657e-29 2.90479e-30 9.59924 2.14505e-14 -3.45867e-14 0.134981 -3.07679e-16 -4.99039e-16)
(-8.92342e-15 -2.0386e-29 -1.69883e-30 9.59924 -1.04578e-14 3.17716e-15 0.134981 -4.27737e-15 -1.48924e-15)
(-4.481e-15 -1.57254e-29 -2.1138e-30 9.3185 2.11609e-14 -3.53379e-14 0.13295 -3.00218e-16 -5.17201e-16)
(1.41534e-14 2.00938e-29 2.51172e-30 9.3185 -8.2994e-15 3.18651e-15 0.13295 -4.32274e-15 -1.48297e-15)
(-8.60828e-15 5.61883e-29 7.67352e-30 9.04744 2.13251e-14 -3.60947e-14 0.13097 -3.08304e-16 -5.35898e-16)
(-9.00001e-15 -3.96116e-29 -5.77669e-30 9.04744 -9.37698e-15 3.26141e-15 0.13097 -4.3615e-15 -1.47684e-15)
(-2.25936e-15 -1.40032e-29 -3.41939e-30 8.78559 2.10379e-14 -3.68442e-14 0.129038 -3.13838e-16 -5.54695e-16)
(7.20579e-15 1.95219e-29 4.06706e-30 8.78559 -8.72291e-15 3.33708e-15 0.129038 -4.40772e-15 -1.47058e-15)
(2.26857e-15 -1.83404e-29 -1.46536e-30 8.53253 1.9538e-14 -3.7591e-14 0.127153 -3.08771e-16 -5.74181e-16)
(0 1.28281e-29 8.01755e-31 8.53253 -8.70228e-15 3.35595e-15 0.127153 -4.43972e-15 -1.46373e-15)
(0 -3.16105e-29 -4.74158e-30 8.28784 1.66651e-14 -3.83447e-14 0.12531 -2.77667e-16 -5.94072e-16)
(9.11061e-15 3.16105e-29 4.74158e-30 8.28784 -9.41841e-15 3.38916e-15 0.12531 -4.49275e-15 -1.4571e-15)
(3.50802e-15 -1.2463e-29 -3.11575e-30 8.05114 1.49388e-14 -3.91036e-14 0.123508 -2.29663e-16 -6.14628e-16)
(5.63837e-15 1.2463e-29 1.55787e-30 8.05114 -7.73561e-15 3.44897e-15 0.123508 -4.55109e-15 -1.45009e-15)
(0 1.84265e-29 4.60664e-30 7.82207 1.65147e-14 -3.98686e-14 0.121746 -2.32057e-16 -6.35635e-16)
(9.18165e-15 -6.14218e-30 -1.53555e-30 7.82207 -6.6822e-15 3.52873e-15 0.121746 -4.59308e-15 -1.44338e-15)
(0 2.42166e-29 6.05415e-30 7.6003 1.85811e-14 -4.06268e-14 0.12002 -2.86164e-16 -6.56928e-16)
(0 -2.42166e-29 -6.05415e-30 7.6003 -8.23757e-15 3.59851e-15 0.12002 -4.62331e-15 -1.43608e-15)
(-4.62532e-15 1.09675e-29 2.99698e-30 7.38552 1.86297e-14 -4.13754e-14 0.11833 -3.05069e-16 -6.7859e-16)
(0 0 -1.49184e-30 7.38552 -9.24211e-15 3.64158e-15 0.11833 -4.67548e-15 -1.42852e-15)
(3.31119e-15 -2.35274e-29 -4.41139e-30 7.17743 1.79798e-14 -4.21244e-14 0.116673 -2.96126e-16 -7.00874e-16)
(5.97322e-15 2.35274e-29 4.41139e-30 7.17743 -8.32522e-15 3.63822e-15 0.116673 -4.73635e-15 -1.42055e-15)
(-3.26373e-15 1.15951e-29 1.44939e-30 6.97575 1.80951e-14 -4.28757e-14 0.115048 -2.92574e-16 -7.23611e-16)
(9.3177e-15 -5.79755e-30 0 6.97575 -9.052e-15 3.64761e-15 0.115048 -4.78674e-15 -1.41309e-15)
(-2.33763e-15 5.46096e-30 8.13879e-31 6.78023 1.86288e-14 -4.36313e-14 0.113453 -3.08657e-16 -7.47055e-16)
(0 5.71445e-30 1.42861e-30 6.78023 -9.95368e-15 3.85855e-15 0.113453 -4.84151e-15 -1.40637e-15)
(-8.25126e-16 5.81334e-30 1.9805e-30 6.59061 1.84248e-14 -4.44025e-14 0.111887 -3.19261e-16 -7.7137e-16)
(0 -5.63255e-30 -1.40814e-30 6.59061 -9.69009e-15 4.0556e-15 0.111887 -4.90407e-15 -1.39718e-15)
(3.1254e-15 -1.11036e-29 -2.77591e-30 6.40667 1.71678e-14 -4.51773e-14 0.110349 -3.10673e-16 -7.9601e-16)
(-3.1254e-15 1.11036e-29 4.16387e-30 6.40667 -9.90969e-15 4.08806e-15 0.110349 -4.96967e-15 -1.3876e-15)
(0 -1.09445e-29 -4.10419e-30 6.22818 1.67792e-14 -3.96368e-14 0.108837 -2.84693e-16 -5.97554e-16)
(0 1.09445e-29 4.10419e-30 6.22818 -9.99996e-15 4.15272e-15 0.108837 -5.04914e-15 -1.37841e-15)
(-1.70219e-15 -5.3234e-30 -1.97732e-28 6.05493 1.80421e-14 -5.67679e-15 0.107351 -3.05995e-16 -5.06742e-17)
(0 1.61815e-29 4.04536e-30 6.05493 -9.29657e-15 4.25573e-15 0.107351 -5.12201e-15 -1.3683e-15)
(-2.37697e-15 2.13649e-29 6.3243e-30 5.88674 1.89403e-14 -3.16426e-15 0.105888 -3.38455e-16 -6.40491e-17)
(0 -1.59495e-29 -5.31651e-30 5.88674 -9.52303e-15 4.38388e-15 0.105888 -5.17441e-15 -1.35849e-15)
(2.38452e-15 -5.40622e-30 -1.00866e-30 5.72341 1.82963e-14 -3.59125e-15 0.104449 -3.47732e-16 -6.79654e-17)
(-9.53808e-15 0 0 5.72341 -1.17065e-14 4.6062e-15 0.104449 -5.23287e-15 -1.34805e-15)
(2.90775e-15 -1.54956e-29 -2.5826e-30 5.56477 1.67237e-14 -3.70761e-15 0.103032 -3.24531e-16 -7.02956e-17)
(-1.24756e-14 1.54956e-29 5.16521e-30 5.56477 -1.04453e-14 4.72455e-15 0.103032 -5.31753e-15 -1.33558e-15)
(-5.26538e-15 2.57627e-29 4.8284e-30 5.41065 1.78531e-14 -4.04924e-15 0.101636 -2.98854e-16 -8.29739e-17)
(1.91945e-14 -1.52735e-29 -2.54559e-30 5.41065 -6.37178e-15 4.64929e-15 0.101636 -5.37068e-15 -1.32266e-15)
(2.40655e-15 1.97131e-29 4.00727e-30 5.26089 2.04152e-14 -4.52405e-15 0.100261 -3.7707e-16 -9.07098e-17)
(9.6262e-15 -3.51274e-29 -6.27276e-30 5.26089 -7.42694e-15 4.72779e-15 0.100261 -5.40804e-15 -1.31126e-15)
(0 0 0 5.11534 2.0787e-14 -4.81097e-15 0.098905 -4.06656e-16 -9.66577e-17)
(0 4.94628e-30 1.23657e-30 5.11534 -8.39627e-15 4.99577e-15 0.098905 -5.48741e-15 -1.29913e-15)
(-5.16534e-15 -2.87749e-29 -6.29935e-30 4.97386 1.94869e-14 -5.14241e-15 0.0975682 -4.02697e-16 -1.06555e-16)
(9.68297e-15 3.41277e-29 7.31308e-30 4.97386 -7.43436e-15 5.1553e-15 0.0975682 -5.53392e-15 -1.28469e-15)
(-2.4277e-15 1.97651e-29 5.82185e-30 4.83631 1.77386e-14 -5.38841e-15 0.0962495 -3.66837e-16 -1.0942e-16)
(-9.71079e-15 -9.61102e-30 -2.40276e-30 4.83631 -8.64599e-15 5.20735e-15 0.0962495 -5.58877e-15 -1.27021e-15)
(2.43456e-15 -1.95539e-29 -4.57125e-30 4.70256 1.72203e-14 -5.49238e-15 0.0949484 -3.43918e-16 -1.13934e-16)
(9.73822e-15 1.42099e-29 3.55248e-30 4.70256 -7.7389e-15 5.18255e-15 0.0949484 -5.65983e-15 -1.25464e-15)
(-5.06959e-15 3.33458e-29 6.85707e-30 4.57248 1.72578e-14 -5.66689e-15 0.0936641 -3.56354e-16 -1.19876e-16)
(1.23936e-14 -2.80125e-29 -5.83594e-30 4.57248 -7.60396e-15 5.13996e-15 0.0936641 -5.69994e-15 -1.23953e-15)
(-2.448e-15 5.32506e-30 1.02458e-30 4.44596 1.70965e-14 -5.70774e-15 0.0923962 -3.55551e-16 -1.18994e-16)
(0 0 0 4.44596 -9.76114e-15 5.33183e-15 0.0923962 -5.77047e-15 -1.22561e-15)
(-2.45458e-15 -3.75504e-30 1.02729e-30 4.32288 1.71444e-14 -5.73974e-15 0.0911441 -3.59992e-16 -1.24757e-16)
(0 1.81435e-29 2.26794e-30 4.32288 -9.45738e-15 5.48291e-15 0.0911441 -5.84233e-15 -1.20866e-15)
(-2.46108e-15 -3.04608e-29 -4.55912e-30 4.20314 1.79298e-14 -6.04143e-15 0.0899072 -3.68017e-16 -1.3557e-16)
(7.32744e-15 3.57669e-29 5.58858e-30 4.20314 -8.95415e-15 5.4991e-15 0.0899072 -5.90699e-15 -1.19189e-15)
(2.46749e-15 -1.4102e-29 -5.43927e-30 4.08663 1.75219e-14 -6.36632e-15 0.088685 -4.04613e-16 -1.42714e-16)
(0 8.81357e-30 4.40679e-30 4.08663 -9.71951e-15 5.71015e-15 0.088685 -5.98731e-15 -1.17561e-15)
(2.44524e-15 -1.73745e-29 -4.34363e-30 3.97325 1.59812e-14 -6.55418e-15 0.0874772 -3.60843e-16 -1.47932e-16)
(-2.44524e-15 1.73745e-29 4.34363e-30 3.97325 -1.02416e-14 5.92813e-15 0.0874772 -6.0543e-15 -1.15671e-15)
(-2.48004e-15 -1.18459e-29 -1.101e-30 3.86291 1.72423e-14 -6.70775e-15 0.0862833 -3.47657e-16 -1.53852e-16)
(0 1.71255e-29 3.21103e-30 3.86291 -9.65126e-15 5.9558e-15 0.0862833 -6.12874e-15 -1.1362e-15)
(0 -3.37601e-29 -1.1605e-29 3.75552 1.86292e-14 -7.13603e-15 0.0851028 -4.28556e-16 -1.71953e-16)
(1.98896e-14 3.37601e-29 1.1605e-29 3.75552 -7.62001e-15 5.98671e-15 0.0851028 -6.20281e-15 -1.11613e-15)
(-2.3416e-15 0 1.03988e-30 3.65098 1.68051e-14 -7.76331e-15 0.0839354 -4.21595e-16 -1.87614e-16)
(9.96905e-15 8.31905e-30 2.07976e-30 3.65098 -6.75309e-15 6.24667e-15 0.0839354 -6.25491e-15 -1.0965e-15)
(-4.80629e-15 2.98476e-29 8.2255e-30 3.54922 1.42997e-14 -8.02417e-15 0.0827807 -3.56037e-16 -1.89333e-16)
(-9.99299e-15 -2.45994e-29 -6.14986e-30 3.54922 -7.25941e-15 6.65052e-15 0.0827807 -6.32691e-15 -1.07541e-15)
(-2.29187e-16 1.3329e-29 6.10824e-30 3.45015 1.39276e-14 -7.9605e-15 0.0816383 -3.15398e-16 -1.90054e-16)
(-1.00166e-14 -8.08229e-30 -4.04115e-30 3.45015 -7.02256e-15 6.78937e-15 0.0816383 -6.40211e-15 -1.04949e-15)
(-2.24236e-15 1.59329e-29 1.99161e-30 3.35369 1.56286e-14 -8.02556e-15 0.080508 -3.48602e-16 -1.98048e-16)
(0 -7.96645e-30 0 3.35369 -5.44131e-15 6.61088e-15 0.080508 -6.45425e-15 -1.02319e-15)
(-2.21022e-15 7.85227e-30 5.8892e-30 3.25978 1.74277e-14 -8.34844e-15 0.0793895 -4.07482e-16 -2.11575e-16)
(1.00629e-14 0 -1.0178e-28 3.25978 -6.06969e-15 1.44273e-15 0.0793895 -6.49748e-15 -9.99248e-16)
(-4.01424e-15 3.35074e-29 1.05378e-29 3.16834 1.75585e-14 -8.65208e-15 0.0782824 -4.47708e-16 -2.19071e-16)
(2.17854e-15 -2.32192e-29 0 3.16834 -8.6442e-15 0 0.0782824 -6.56411e-15 -1.01154e-15)
(0 -5.34016e-29 -1.33504e-29 3.07929 1.65737e-14 -8.79291e-15 0.0771865 -4.25975e-16 -2.24935e-16)
(2.02157e-14 5.34016e-29 1.33504e-29 3.07929 -7.01904e-15 -2.37738e-16 0.0771865 -6.65147e-15 -1.02942e-15)
(2.11654e-15 -1.50389e-29 -7.51946e-30 2.99258 1.63097e-14 -9.03184e-15 0.0761015 -4.10737e-16 -2.37816e-16)
(2.02597e-14 1.50389e-29 7.51946e-30 2.99258 -7.23702e-15 -2.1515e-16 0.0761015 -6.70802e-15 -1.04723e-15)
(-5.07579e-15 1.77208e-29 2.18003e-30 2.90814 1.5776e-14 -9.33955e-15 0.0750272 -4.2483e-16 -2.47632e-16)
(0 -7.41169e-30 0 2.90814 -8.90672e-15 -1.5134e-16 0.0750272 -6.78734e-15 -1.03516e-15)
(-2.54325e-15 5.14759e-30 1.09715e-30 2.82591 1.40623e-14 -9.5309e-15 0.0739634 -3.94832e-16 -2.54945e-16)
(2.0346e-14 7.30546e-30 1.82636e-30 2.82591 -4.83382e-15 -1.69867e-17 0.0739634 -6.86519e-15 -1.00912e-15)
(2.54853e-15 -1.95455e-29 -4.70629e-30 2.74582 1.33313e-14 -9.43107e-15 0.0729098 -3.46264e-16 -2.49506e-16)
(0 1.44015e-29 3.60038e-30 2.74582 -3.41609e-15 1.45867e-16 0.0729098 -6.89032e-15 -9.80833e-16)
(-2.55373e-15 5.13198e-30 -6.61166e-31 2.66782 1.41661e-14 -9.28491e-15 0.0718662 -3.67008e-16 -2.54424e-16)
(0 0 0 2.66782 -6.47638e-15 3.08149e-33 0.0718662 -6.93538e-15 -9.53636e-16)
(-2.55886e-15 1.91092e-29 6.36691e-30 2.59186 1.4704e-14 -9.44889e-15 0.0708325 -4.02045e-16 -2.6591e-16)
(1.02354e-14 -1.39916e-29 -5.24686e-30 2.59186 -6.90896e-15 -1.79577e-16 0.0708325 -7.02096e-15 -9.28114e-16)
(-2.56392e-15 1.88969e-29 8.02287e-30 2.51787 1.52628e-14 -9.71224e-15 0.0698084 -4.07592e-16 -2.76695e-16)
(1.02557e-14 -6.89555e-30 -5.17166e-30 2.51787 -6.32079e-15 -2.6411e-16 0.0698084 -7.08519e-15 -9.02836e-16)
(-5.13781e-15 1.01801e-29 3.96808e-30 2.44581 1.58435e-14 -1.00283e-14 0.0687939 -4.45259e-16 -2.91739e-16)
(0 0 -1.69918e-30 2.44581 -6.67011e-15 -1.26919e-16 0.0687939 -7.14511e-15 -8.77867e-16)
(-2.57382e-15 2.51751e-29 2.81928e-30 2.37562 1.63801e-14 -1.01155e-14 0.0677886 -4.52684e-16 -2.89851e-16)
(-3.77137e-15 -1.33986e-29 -6.88329e-31 2.37562 -8.12246e-15 8.18751e-30 0.0677886 -7.21799e-15 -8.48007e-16)
(0 -1.98099e-29 -3.30164e-30 2.30726 1.71036e-14 -1.00849e-14 0.0667926 -4.89381e-16 -2.98488e-16)
(-1.03146e-14 1.98099e-29 3.30164e-30 2.30726 -9.26089e-15 -6.92401e-18 0.0667926 -7.29586e-15 -8.19257e-16)
(6.24747e-15 -1.80618e-29 -2.78716e-30 2.24068 1.79119e-14 -1.04164e-14 0.0658055 -5.08451e-16 -3.18101e-16)
(6.66968e-15 1.30173e-29 1.62716e-30 2.24068 -9.40351e-15 -3.27559e-16 0.0658055 -7.37128e-15 -7.9312e-16)
(2.58813e-15 -1.14392e-29 -5.98151e-30 2.17584 1.79297e-14 -1.07092e-14 0.0648273 -5.51899e-16 -3.24939e-16)
(-1.03525e-14 6.41536e-30 4.81152e-30 2.17584 -1.00495e-14 -1.7263e-16 0.0648273 -7.48112e-15 -7.63162e-16)
(-2.59276e-15 1.76588e-29 2.75981e-30 2.11268 1.64664e-14 -1.09686e-14 0.0638579 -5.24424e-16 -3.4334e-16)
(1.03711e-14 -6.32341e-30 0 2.11268 -6.67201e-15 5.95704e-18 0.0638579 -7.57918e-15 -7.30797e-16)
(0 6.23278e-30 1.5582e-30 2.05116 1.43544e-14 -1.13088e-14 0.0628971 -4.78283e-16 -3.55635e-16)
(-3.50874e-15 0 0 2.05116 -2.42691e-15 -6.26158e-30 0.0628971 -7.61158e-15 -6.96989e-16)
(-3.45845e-15 1.22869e-29 7.67931e-30 1.99125 1.46159e-14 -1.15295e-14 0.0619448 -4.08315e-16 -3.67336e-16)
(1.04073e-14 0 -4.60759e-30 1.99125 -2.40981e-15 -1.27942e-16 0.0619448 -7.66132e-15 -6.67252e-16)
(2.60625e-15 -2.31384e-29 -5.75089e-30 1.9329 1.30683e-14 -1.17336e-14 0.0610009 -5.08808e-16 -3.79126e-16)
(0 1.81662e-29 4.54155e-30 1.9329 -3.97805e-15 1.34598e-16 0.0610009 -7.70863e-15 -6.34781e-16)
(0 5.96861e-30 4.47646e-30 1.87607 1.1947e-14 -1.17079e-14 0.0600652 -3.21116e-16 -3.76427e-16)
(-1.04425e-14 -5.96861e-30 -1.49215e-30 1.87607 -5.1959e-15 2.21254e-16 0.0600652 -7.77288e-15 -5.97782e-16)
(-3.31187e-15 5.88306e-30 2.94153e-30 1.82072 1.55638e-14 -1.16356e-14 0.0591377 -4.50825e-16 -3.85464e-16)
(0 5.88306e-30 0 1.82072 -5.21914e-15 6.36048e-17 0.0591377 -7.84523e-15 -5.62639e-16)
(0 1.73962e-29 4.34906e-30 1.76682 1.61446e-14 -1.18916e-14 0.0582182 -5.69048e-16 -4.0458e-16)
(0 -5.79874e-30 -1.44969e-30 1.76682 -5.21208e-15 3.07526e-17 0.0582182 -7.89573e-15 -5.26224e-16)
(2.62331e-15 2.3651e-29 8.74223e-30 1.71433 1.41743e-14 -1.19772e-14 0.0573067 -5.02893e-16 -4.02569e-16)
(0 -2.85782e-29 -1.00024e-29 1.71433 -6.04966e-15 1.0642e-16 0.0573067 -7.92927e-15 -4.8887e-16)
(2.62741e-15 1.19789e-29 4.35856e-30 1.66321 1.37208e-14 -1.17071e-14 0.0564031 -4.51966e-16 -3.9783e-16)
(0 -1.12674e-29 -1.42628e-30 1.66321 -6.58662e-15 3.66697e-30 0.0564031 -8.01016e-15 -4.51866e-16)
(-5.2629e-15 9.80371e-30 2.57388e-30 1.61343 1.44458e-14 -1.17121e-14 0.0555073 -4.86393e-16 -4.14711e-16)
(1.05258e-14 0 0 1.61343 -7.35967e-15 -1.77966e-16 0.0555073 -8.11703e-15 -4.19506e-16)
(-2.63543e-15 4.87728e-30 1.30095e-30 1.56495 1.51158e-14 -1.18842e-14 0.0546191 -5.15867e-16 -4.21683e-16)
(0 0 2.73669e-30 1.56495 -8.92933e-15 -1.30771e-16 0.0546191 -8.22066e-15 -3.85955e-16)
(0 0 0 1.51775 1.59855e-14 -1.19219e-14 0.0537385 -5.48131e-16 -4.29574e-16)
(0 0 0 1.51775 -7.84695e-15 1.62261e-16 0.0537385 -8.34567e-15 -3.50604e-16)
(0 1.06352e-29 1.3294e-30 1.47179 1.75894e-14 -1.17898e-14 0.0528654 -5.93528e-16 -4.24392e-16)
(0 0 -2.95131e-30 1.47179 -7.23138e-15 9.07891e-17 0.0528654 -8.41622e-15 -3.14311e-16)
(-2.95064e-15 1.57242e-29 5.24139e-30 1.42703 1.93102e-14 -1.17411e-14 0.0519997 -6.81213e-16 -4.38554e-16)
(0 0 1.05097e-45 1.42703 -8.73803e-15 -2.12935e-30 0.0519997 -8.52741e-15 -2.81898e-16)
(0 1.54988e-29 1.29157e-30 1.38345 1.82757e-14 -1.21826e-14 0.0511414 -7.3829e-16 -4.69978e-16)
(2.12056e-14 -5.16627e-30 0 1.38345 -8.47468e-15 -4.04046e-16 0.0511414 -8.65858e-15 -2.49718e-16)
(-5.30874e-15 4.44045e-30 2.73168e-30 1.34103 1.52676e-14 -1.28364e-14 0.0502903 -6.23478e-16 -5.01215e-16)
(1.06175e-14 5.09222e-30 0 1.34103 -7.49231e-15 -1.49498e-16 0.0502903 -8.74287e-15 -2.19569e-16)
(5.48356e-15 -1.48007e-29 -6.40332e-30 1.29972 1.28626e-14 -1.29672e-14 0.0494464 -5.30725e-16 -4.9386e-16)
(0 1.50577e-29 5.01924e-30 1.29972 -6.53291e-15 4.8496e-16 0.0494464 -8.84381e-15 -1.80972e-16)
(0 9.8946e-30 2.47365e-30 1.2595 1.11041e-14 -1.24538e-14 0.0486096 -4.55831e-16 -4.75632e-16)
(-1.06461e-14 0 0 1.2595 -4.5047e-15 5.53145e-16 0.0486096 -8.93964e-15 -1.39168e-16)
(-2.66501e-15 -1.96265e-29 -8.33277e-30 1.22035 1.08309e-14 -1.20822e-14 0.0477798 -4.08368e-16 -4.78764e-16)
(1.06601e-14 2.4382e-29 1.2191e-29 1.22035 -2.86014e-15 1.99081e-16 0.0477798 -8.99869e-15 -1.0397e-16)
(0 9.61301e-30 2.40325e-30 1.18224 1.17827e-14 -1.19569e-14 0.0469569 -4.47442e-16 -4.79452e-16)
(-2.70582e-15 0 0 1.18224 -5.13698e-15 2.03141e-16 0.0469569 -9.05453e-15 -7.36869e-17)
(0 -9.47523e-30 -4.73761e-30 1.14513 1.20788e-14 -1.16841e-14 0.0461409 -4.97169e-16 -4.70445e-16)
(0 9.47523e-30 4.73761e-30 1.14513 -8.69769e-15 2.58202e-16 0.0461409 -9.15085e-15 -4.40001e-17)
(-2.67513e-15 4.70257e-30 3.80661e-30 1.10902 1.09877e-14 -1.14138e-14 0.0453316 -4.84797e-16 -4.71036e-16)
(0 0 -2.33486e-30 1.10902 -8.43809e-15 -4.17898e-17 0.0453316 -9.28951e-15 -1.95716e-17)
(-2.76563e-15 -1.82247e-29 -1.54369e-29 1.07386 1.13441e-14 -1.13628e-14 0.0445291 -4.21074e-16 -4.79933e-16)
(2.14271e-14 2.30139e-29 1.84111e-29 1.07386 -7.04886e-15 -8.24368e-17 0.0445291 -9.39794e-15 6.84505e-19)
(0 9.07362e-30 2.26841e-30 1.03964 1.41592e-14 -1.11689e-14 0.0437332 -5.29038e-16 -4.68246e-16)
(0 0 0 1.03964 -9.00781e-15 3.45477e-16 0.0437332 -9.48338e-15 2.37133e-17)
(-2.51739e-15 8.94358e-30 4.47179e-30 1.00634 1.46813e-14 -1.07352e-14 0.0429438 -6.74161e-16 -4.56364e-16)
(-2.51739e-15 0 0 1.00634 -9.13361e-15 3.1254e-16 0.0429438 -9.63746e-15 5.14088e-17)
(-5.58214e-15 -8.18216e-30 -1.30218e-29 0.973921 1.3668e-14 -1.07906e-14 0.0421609 -5.8983e-16 -4.86842e-16)
(1.90212e-14 2.20385e-29 1.76308e-29 0.973921 -6.13675e-15 -1.06258e-16 0.0421609 -9.75158e-15 7.08541e-17)
(0 -3.04117e-29 -1.52058e-29 0.942372 1.30402e-14 -1.09442e-14 0.0413843 -6.04713e-16 -4.83448e-16)
(2.15268e-14 3.04117e-29 1.52058e-29 0.942372 -6.68029e-15 1.03422e-16 0.0413843 -9.81676e-15 8.81804e-17)
(-2.69383e-15 2.17227e-29 5.85658e-30 0.911669 1.11118e-14 -1.05241e-14 0.0406141 -5.51047e-16 -4.6304e-16)
(0 -1.7129e-29 -2.14113e-30 0.911669 -6.76549e-15 3.89745e-16 0.0406141 -9.94925e-15 1.07048e-16)
(5.0729e-15 -3.83647e-29 -1.6365e-29 0.881789 1.06065e-14 -1.00742e-14 0.0398501 -4.47711e-16 -4.56257e-16)