/*--------------------------------*- C++ -*----------------------------------*\
| =========                 |                                                 |
| \\      /  F ield         | OpenFOAM: The Open Source CFD Toolbox           |
|  \\    /   O peration     | Version:  2106                                  |
|   \\  /    A nd           | Website:  www.openfoam.com                      |
|    \\/     M anipulation  |                                                 |
\*---------------------------------------------------------------------------*/
FoamFile
{
    version     2.0;
    format      ascii;
    arch        "LSB;label=32;scalar=64";
    class       volSymmTensorField;
    location    "11000";
    object      turbulenceProperties:R;
}
// * * * * * * * * * * * * * * * * * * * * * * * * * * * * * * * * * * * * * //

dimensions      [0 2 -2 0 0 0 0];

internalField   nonuniform List<symmTensor> 
2560
(
(2.93207e-07 -2.88691e-11 -4.17916e-14 2.93207e-07 5.41345e-27 2.93207e-07)
(2.93207e-07 -2.88691e-11 -4.17916e-14 2.93207e-07 4.23146e-30 2.93207e-07)
(5.33079e-08 -3.01644e-11 -1.31641e-13 5.33079e-08 -7.34291e-27 5.33079e-08)
(5.33079e-08 -3.01644e-11 -1.31641e-13 5.33079e-08 1.04823e-29 5.33079e-08)
(8.68469e-08 -1.44954e-10 -8.70101e-13 8.68469e-08 -2.33927e-26 8.68469e-08)
(8.68469e-08 -1.44954e-10 -8.70101e-13 8.68469e-08 8.04545e-29 8.68469e-08)
(2.78283e-07 -9.8485e-10 -5.99764e-12 2.78283e-07 -8.97862e-26 2.78283e-07)
(2.78283e-07 -9.8485e-10 -5.99764e-12 2.78283e-07 6.33254e-28 2.78283e-07)
(7.17303e-07 -4.47811e-09 -2.76678e-11 7.17303e-07 -6.29978e-25 7.17303e-07)
(7.17303e-07 -4.47811e-09 -2.76678e-11 7.17303e-07 3.07619e-27 7.17303e-07)
(1.53079e-06 -1.50446e-08 -9.43037e-11 1.53079e-06 -3.07882e-24 1.53079e-06)
(1.53079e-06 -1.50446e-08 -9.43037e-11 1.53079e-06 1.04589e-26 1.53079e-06)
(2.86948e-06 -4.11332e-08 -2.61582e-10 2.86948e-06 -8.90456e-24 2.86948e-06)
(2.86948e-06 -4.11332e-08 -2.61582e-10 2.86948e-06 2.78423e-26 2.86948e-06)
(4.90627e-06 -9.71497e-08 -6.26792e-10 4.90627e-06 -2.16587e-23 4.90627e-06)
(4.90627e-06 -9.71497e-08 -6.26792e-10 4.90627e-06 6.44657e-26 4.90627e-06)
(7.83635e-06 -2.05807e-07 -1.34712e-09 7.83635e-06 -4.70877e-23 7.83635e-06)
(7.83635e-06 -2.05807e-07 -1.34712e-09 7.83635e-06 1.38652e-25 7.83635e-06)
(1.18777e-05 -4.00923e-07 -2.66236e-09 1.18777e-05 -9.39209e-23 1.18777e-05)
(1.18777e-05 -4.00923e-07 -2.66236e-09 1.18777e-05 2.70889e-25 1.18777e-05)
(1.72717e-05 -7.30668e-07 -4.92245e-09 1.72717e-05 -1.74412e-22 1.72717e-05)
(1.72717e-05 -7.30668e-07 -4.92245e-09 1.72717e-05 4.92851e-25 1.72717e-05)
(2.42837e-05 -1.26124e-06 -8.62e-09 2.42837e-05 -3.06335e-22 2.42837e-05)
(2.42837e-05 -1.26124e-06 -8.62e-09 2.42837e-05 8.62245e-25 2.42837e-05)
(3.32028e-05 -2.08088e-06 -1.44277e-08 3.32028e-05 -5.13791e-22 3.32028e-05)
(3.32028e-05 -2.08088e-06 -1.44277e-08 3.32028e-05 1.48071e-24 3.32028e-05)
(4.43421e-05 -3.30411e-06 -2.32399e-08 4.43421e-05 -8.2851e-22 4.43421e-05)
(4.43421e-05 -3.30411e-06 -2.32399e-08 4.43421e-05 2.39284e-24 4.43421e-05)
(5.8037e-05 -5.07592e-06 -3.62168e-08 5.8037e-05 -1.29044e-21 5.8037e-05)
(5.8037e-05 -5.07592e-06 -3.62168e-08 5.8037e-05 3.45592e-24 5.8037e-05)
(7.46438e-05 -7.57564e-06 -5.48293e-08 7.46438e-05 -1.94878e-21 7.46438e-05)
(7.46438e-05 -7.57564e-06 -5.48293e-08 7.46438e-05 5.24457e-24 7.46438e-05)
(9.45362e-05 -1.10199e-05 -8.09002e-08 9.45362e-05 -2.86128e-21 9.45362e-05)
(9.45362e-05 -1.10199e-05 -8.09002e-08 9.45362e-05 8.26975e-24 9.45362e-05)
(0.000118101 -1.56643e-05 -1.16637e-07 0.000118101 -4.09354e-21 0.000118101)
(0.000118101 -1.56643e-05 -1.16637e-07 0.000118101 1.31202e-23 0.000118101)
(0.000145732 -2.18031e-05 -1.64653e-07 0.000145732 -5.71671e-21 0.000145732)
(0.000145732 -2.18031e-05 -1.64653e-07 0.000145732 1.88228e-23 0.000145732)
(0.000177821 -2.97655e-05 -2.27961e-07 0.000177821 -7.79934e-21 0.000177821)
(0.000177821 -2.97655e-05 -2.27961e-07 0.000177821 2.42079e-23 0.000177821)
(0.000214749 -3.99098e-05 -3.09948e-07 0.000214749 -1.04054e-20 0.000214749)
(0.000214749 -3.99098e-05 -3.09948e-07 0.000214749 3.18382e-23 0.000214749)
(0.000256873 -5.26125e-05 -4.14307e-07 0.000256873 -1.35794e-20 0.000256873)
(0.000256873 -5.26125e-05 -4.14307e-07 0.000256873 4.10156e-23 0.000256873)
(0.000304514 -6.82535e-05 -5.44938e-07 0.000304514 -1.73343e-20 0.000304514)
(0.000304514 -6.82535e-05 -5.44938e-07 0.000304514 5.83215e-23 0.000304514)
(0.000357941 -8.71986e-05 -7.05802e-07 0.000357941 -2.16674e-20 0.000357941)
(0.000357941 -8.71986e-05 -7.05802e-07 0.000357941 1.01262e-22 0.000357941)
(0.000417356 -0.000109778 -9.00753e-07 0.000417356 -2.64967e-20 0.000417356)
(0.000417356 -0.000109778 -9.00753e-07 0.000417356 1.42435e-22 0.000417356)
(0.00048288 -0.000136265 -1.13334e-06 0.00048288 -3.17272e-20 0.00048288)
(0.00048288 -0.000136265 -1.13334e-06 0.00048288 1.76593e-22 0.00048288)
(0.00055454 -0.000166855 -1.40659e-06 0.00055454 -3.7191e-20 0.00055454)
(0.00055454 -0.000166855 -1.40659e-06 0.00055454 2.13411e-22 0.00055454)
(0.000632261 -0.000201645 -1.72286e-06 0.000632261 -4.26583e-20 0.000632261)
(0.000632261 -0.000201645 -1.72286e-06 0.000632261 2.31997e-22 0.000632261)
(0.00071586 -0.000240624 -2.08364e-06 0.00071586 -4.78903e-20 0.00071586)
(0.00071586 -0.000240624 -2.08364e-06 0.00071586 3.19977e-22 0.00071586)
(0.000805045 -0.000283668 -2.48948e-06 0.000805045 -5.26229e-20 0.000805045)
(0.000805045 -0.000283668 -2.48948e-06 0.000805045 4.96688e-22 0.000805045)
(0.000899424 -0.000330538 -2.93993e-06 0.000899424 -5.66938e-20 0.000899424)
(0.000899424 -0.000330538 -2.93993e-06 0.000899424 6.40825e-22 0.000899424)
(0.00099851 -0.000380897 -3.4336e-06 0.00099851 -5.98897e-20 0.00099851)
(0.00099851 -0.000380897 -3.4336e-06 0.00099851 7.02133e-22 0.00099851)
(0.00110174 -0.000434319 -3.96821e-06 0.00110174 -6.21341e-20 0.00110174)
(0.00110174 -0.000434319 -3.96821e-06 0.00110174 7.49485e-22 0.00110174)
(0.00120849 -0.000490317 -4.5408e-06 0.00120849 -6.34271e-20 0.00120849)
(0.00120849 -0.000490317 -4.5408e-06 0.00120849 8.17198e-22 0.00120849)
(0.00131811 -0.000548365 -5.14781e-06 0.00131811 -6.36977e-20 0.00131811)
(0.00131811 -0.000548365 -5.14781e-06 0.00131811 9.30454e-22 0.00131811)
(0.00142991 -0.000607922 -5.78537e-06 0.00142991 -6.30488e-20 0.00142991)
(0.00142991 -0.000607922 -5.78537e-06 0.00142991 1.18518e-21 0.00142991)
(0.00154323 -0.000668452 -6.44942e-06 0.00154323 -6.1643e-20 0.00154323)
(0.00154323 -0.000668452 -6.44942e-06 0.00154323 1.43724e-21 0.00154323)
(0.0016574 -0.000729447 -7.13587e-06 0.0016574 -5.97057e-20 0.0016574)
(0.0016574 -0.000729447 -7.13587e-06 0.0016574 1.83548e-21 0.0016574)
(0.0017718 -0.000790437 -7.8408e-06 0.0017718 -5.79328e-20 0.0017718)
(0.0017718 -0.000790437 -7.8408e-06 0.0017718 2.54749e-21 0.0017718)
(0.00188586 -0.000851003 -8.56052e-06 0.00188586 -5.59615e-20 0.00188586)
(0.00188586 -0.000851003 -8.56052e-06 0.00188586 2.58344e-21 0.00188586)
(0.00199905 -0.000910781 -9.29164e-06 0.00199905 -5.40469e-20 0.00199905)
(0.00199905 -0.000910781 -9.29164e-06 0.00199905 1.72677e-21 0.00199905)
(0.00211091 -0.000969462 -1.00312e-05 0.00211091 -5.28477e-20 0.00211091)
(0.00211091 -0.000969462 -1.00312e-05 0.00211091 1.02901e-21 0.00211091)
(0.00222105 -0.0010268 -1.07765e-05 0.00222105 -5.22512e-20 0.00222105)
(0.00222105 -0.0010268 -1.07765e-05 0.00222105 1.74095e-21 0.00222105)
(0.00232911 -0.00108258 -1.15253e-05 0.00232911 -5.23347e-20 0.00232911)
(0.00232911 -0.00108258 -1.15253e-05 0.00232911 3.01112e-21 0.00232911)
(0.00243481 -0.00113668 -1.22758e-05 0.00243481 -5.37349e-20 0.00243481)
(0.00243481 -0.00113668 -1.22758e-05 0.00243481 2.52829e-21 0.00243481)
(0.00253793 -0.00118896 -1.30265e-05 0.00253793 -5.64411e-20 0.00253793)
(0.00253793 -0.00118896 -1.30265e-05 0.00253793 1.18975e-21 0.00253793)
(0.00263829 -0.00123938 -1.37761e-05 0.00263829 -6.05172e-20 0.00263829)
(0.00263829 -0.00123938 -1.37761e-05 0.00263829 1.78153e-21 0.00263829)
(0.00273574 -0.00128788 -1.45237e-05 0.00273574 -6.56593e-20 0.00273574)
(0.00273574 -0.00128788 -1.45237e-05 0.00273574 3.58341e-21 0.00273574)
(0.00283021 -0.00133446 -1.52687e-05 0.00283021 -7.21155e-20 0.00283021)
(0.00283021 -0.00133446 -1.52687e-05 0.00283021 4.19938e-21 0.00283021)
(0.00292163 -0.00137912 -1.60105e-05 0.00292163 -8.0505e-20 0.00292163)
(0.00292163 -0.00137912 -1.60105e-05 0.00292163 4.77553e-21 0.00292163)
(0.00300998 -0.00142188 -1.67488e-05 0.00300998 -8.95918e-20 0.00300998)
(0.00300998 -0.00142188 -1.67488e-05 0.00300998 5.98666e-21 0.00300998)
(0.00309524 -0.0014628 -1.74836e-05 0.00309524 -9.95903e-20 0.00309524)
(0.00309524 -0.0014628 -1.74836e-05 0.00309524 6.99127e-21 0.00309524)
(0.00317746 -0.00150191 -1.82147e-05 0.00317746 -1.11842e-19 0.00317746)
(0.00317746 -0.00150191 -1.82147e-05 0.00317746 7.16729e-21 0.00317746)
(0.00325665 -0.00153928 -1.89423e-05 0.00325665 -1.25305e-19 0.00325665)
(0.00325665 -0.00153928 -1.89423e-05 0.00325665 6.38453e-21 0.00325665)
(0.00333288 -0.00157496 -1.96665e-05 0.00333288 -1.41219e-19 0.00333288)
(0.00333288 -0.00157496 -1.96665e-05 0.00333288 7.13988e-21 0.00333288)
(0.0034062 -0.00160902 -2.03876e-05 0.0034062 -1.58126e-19 0.0034062)
(0.0034062 -0.00160902 -2.03876e-05 0.0034062 1.02515e-20 0.0034062)
(0.00347669 -0.00164152 -2.11057e-05 0.00347669 -1.75441e-19 0.00347669)
(0.00347669 -0.00164152 -2.11057e-05 0.00347669 1.37152e-20 0.00347669)
(0.00354443 -0.00167254 -2.18213e-05 0.00354443 -1.9529e-19 0.00354443)
(0.00354443 -0.00167254 -2.18213e-05 0.00354443 1.44459e-20 0.00354443)
(0.0036095 -0.00170213 -2.25347e-05 0.0036095 -2.16197e-19 0.0036095)
(0.0036095 -0.00170213 -2.25347e-05 0.0036095 1.45404e-20 0.0036095)
(0.00367199 -0.00173037 -2.32462e-05 0.00367199 -2.37747e-19 0.00367199)
(0.00367199 -0.00173037 -2.32462e-05 0.00367199 1.59574e-20 0.00367199)
(0.00373199 -0.00175733 -2.39563e-05 0.00373199 -2.59912e-19 0.00373199)
(0.00373199 -0.00175733 -2.39563e-05 0.00373199 1.8405e-20 0.00373199)
(0.00378958 -0.00178305 -2.46652e-05 0.00378958 -2.84098e-19 0.00378958)
(0.00378958 -0.00178305 -2.46652e-05 0.00378958 2.47488e-20 0.00378958)
(0.00384486 -0.0018076 -2.53734e-05 0.00384486 -3.0967e-19 0.00384486)
(0.00384486 -0.0018076 -2.53734e-05 0.00384486 2.70266e-20 0.00384486)
(0.0038979 -0.00183105 -2.60813e-05 0.0038979 -3.33604e-19 0.0038979)
(0.0038979 -0.00183105 -2.60813e-05 0.0038979 2.13313e-20 0.0038979)
(0.00394881 -0.00185344 -2.67892e-05 0.00394881 -3.59542e-19 0.00394881)
(0.00394881 -0.00185344 -2.67892e-05 0.00394881 2.70177e-20 0.00394881)
(0.00399767 -0.00187482 -2.74976e-05 0.00399767 -3.87148e-19 0.00399767)
(0.00399767 -0.00187482 -2.74976e-05 0.00399767 3.44468e-20 0.00399767)
(0.00404455 -0.00189526 -2.82068e-05 0.00404455 -4.14785e-19 0.00404455)
(0.00404455 -0.00189526 -2.82068e-05 0.00404455 3.32387e-20 0.00404455)
(0.00408953 -0.00191479 -2.89172e-05 0.00408953 -4.44341e-19 0.00408953)
(0.00408953 -0.00191479 -2.89172e-05 0.00408953 3.19315e-20 0.00408953)
(0.00413271 -0.00193346 -2.96291e-05 0.00413271 -4.72689e-19 0.00413271)
(0.00413271 -0.00193346 -2.96291e-05 0.00413271 3.38815e-20 0.00413271)
(0.00417414 -0.00195131 -3.0343e-05 0.00417414 -4.9797e-19 0.00417414)
(0.00417414 -0.00195131 -3.0343e-05 0.00417414 3.67425e-20 0.00417414)
(0.00421391 -0.00196839 -3.1059e-05 0.00421391 -5.22328e-19 0.00421391)
(0.00421391 -0.00196839 -3.1059e-05 0.00421391 4.26601e-20 0.00421391)
(0.00425208 -0.00198473 -3.17777e-05 0.00425208 -5.55151e-19 0.00425208)
(0.00425208 -0.00198473 -3.17777e-05 0.00425208 4.95961e-20 0.00425208)
(0.00428871 -0.00200036 -3.24992e-05 0.00428871 -5.88194e-19 0.00428871)
(0.00428871 -0.00200036 -3.24992e-05 0.00428871 4.76713e-20 0.00428871)
(0.00432388 -0.00201533 -3.3224e-05 0.00432388 -6.21218e-19 0.00432388)
(0.00432388 -0.00201533 -3.3224e-05 0.00432388 4.32159e-20 0.00432388)
(0.00435764 -0.00202967 -3.39523e-05 0.00435764 -6.62926e-19 0.00435764)
(0.00435764 -0.00202967 -3.39523e-05 0.00435764 5.83944e-20 0.00435764)
(0.00439005 -0.00204339 -3.46844e-05 0.00439005 -7.01835e-19 0.00439005)
(0.00439005 -0.00204339 -3.46844e-05 0.00439005 7.23591e-20 0.00439005)
(0.00442117 -0.00205654 -3.54207e-05 0.00442117 -7.39169e-19 0.00442117)
(0.00442117 -0.00205654 -3.54207e-05 0.00442117 6.65667e-20 0.00442117)
(0.00445105 -0.00206914 -3.61613e-05 0.00445105 -7.84449e-19 0.00445105)
(0.00445105 -0.00206914 -3.61613e-05 0.00445105 7.28339e-20 0.00445105)
(0.00447973 -0.00208121 -3.69067e-05 0.00447973 -8.35431e-19 0.00447973)
(0.00447973 -0.00208121 -3.69067e-05 0.00447973 7.71649e-20 0.00447973)
(0.00450728 -0.00209278 -3.76569e-05 0.00450728 -8.81919e-19 0.00450728)
(0.00450728 -0.00209278 -3.76569e-05 0.00450728 8.02125e-20 0.00450728)
(0.00453372 -0.00210387 -3.84124e-05 0.00453372 -9.19253e-19 0.00453372)
(0.00453372 -0.00210387 -3.84124e-05 0.00453372 1.09159e-19 0.00453372)
(0.00455911 -0.00211451 -3.91733e-05 0.00455911 -9.62175e-19 0.00455911)
(0.00455911 -0.00211451 -3.91733e-05 0.00455911 1.0162e-19 0.00455911)
(0.00458349 -0.0021247 -3.99399e-05 0.00458349 -1.02354e-18 0.00458349)
(0.00458349 -0.0021247 -3.99399e-05 0.00458349 1.09782e-19 0.00458349)
(0.0046069 -0.00213448 -4.07125e-05 0.0046069 -1.0664e-18 0.0046069)
(0.0046069 -0.00213448 -4.07125e-05 0.0046069 1.0924e-19 0.0046069)
(0.00462937 -0.00214386 -4.14912e-05 0.00462937 -1.10185e-18 0.00462937)
(0.00462937 -0.00214386 -4.14912e-05 0.00462937 1.21293e-19 0.00462937)
(0.00465095 -0.00215285 -4.22764e-05 0.00465095 -1.15455e-18 0.00465095)
(0.00465095 -0.00215285 -4.22764e-05 0.00465095 1.54201e-19 0.00465095)
(0.00467165 -0.00216147 -4.30681e-05 0.00467165 -1.19216e-18 0.00467165)
(0.00467165 -0.00216147 -4.30681e-05 0.00467165 1.81884e-19 0.00467165)
(0.00469152 -0.00216974 -4.38668e-05 0.00469152 -1.22257e-18 0.00469152)
(0.00469152 -0.00216974 -4.38668e-05 0.00469152 1.50331e-19 0.00469152)
(0.00471059 -0.00217767 -4.46725e-05 0.00471059 -1.27005e-18 0.00471059)
(0.00471059 -0.00217767 -4.46725e-05 0.00471059 1.32942e-19 0.00471059)
(0.00472889 -0.00218528 -4.54854e-05 0.00472889 -1.32183e-18 0.00472889)
(0.00472889 -0.00218528 -4.54854e-05 0.00472889 1.78565e-19 0.00472889)
(0.00474644 -0.00219257 -4.63059e-05 0.00474644 -1.36394e-18 0.00474644)
(0.00474644 -0.00219257 -4.63059e-05 0.00474644 1.7367e-19 0.00474644)
(0.00476327 -0.00219955 -4.7134e-05 0.00476327 -1.39985e-18 0.00476327)
(0.00476327 -0.00219955 -4.7134e-05 0.00476327 1.803e-19 0.00476327)
(0.0047794 -0.00220625 -4.797e-05 0.0047794 -1.4468e-18 0.0047794)
(0.0047794 -0.00220625 -4.797e-05 0.0047794 2.09163e-19 0.0047794)
(0.00479486 -0.00221267 -4.88141e-05 0.00479486 -1.51206e-18 0.00479486)
(0.00479486 -0.00221267 -4.88141e-05 0.00479486 2.60418e-19 0.00479486)
(0.00480968 -0.00221882 -4.96664e-05 0.00480968 -1.57397e-18 0.00480968)
(0.00480968 -0.00221882 -4.96664e-05 0.00480968 2.5192e-19 0.00480968)
(0.00482387 -0.0022247 -5.05273e-05 0.00482387 -1.62687e-18 0.00482387)
(0.00482387 -0.0022247 -5.05273e-05 0.00482387 1.91695e-19 0.00482387)
(0.00483745 -0.00223034 -5.13967e-05 0.00483745 -1.68387e-18 0.00483745)
(0.00483745 -0.00223034 -5.13967e-05 0.00483745 2.29639e-19 0.00483745)
(0.00485045 -0.00223573 -5.2275e-05 0.00485045 -1.73643e-18 0.00485045)
(0.00485045 -0.00223573 -5.2275e-05 0.00485045 3.25773e-19 0.00485045)
(0.00486287 -0.00224089 -5.31623e-05 0.00486287 -1.79497e-18 0.00486287)
(0.00486287 -0.00224089 -5.31623e-05 0.00486287 3.8331e-19 0.00486287)
(0.00487475 -0.00224582 -5.40587e-05 0.00487475 -1.88996e-18 0.00487475)
(0.00487475 -0.00224582 -5.40587e-05 0.00487475 3.63439e-19 0.00487475)
(0.0048861 -0.00225053 -5.49646e-05 0.0048861 -1.94979e-18 0.0048861)
(0.0048861 -0.00225053 -5.49646e-05 0.0048861 3.40004e-19 0.0048861)
(0.00489692 -0.00225502 -5.58799e-05 0.00489692 -1.97633e-18 0.00489692)
(0.00489692 -0.00225502 -5.58799e-05 0.00489692 3.2287e-19 0.00489692)
(0.00490725 -0.00225931 -5.6805e-05 0.00490725 -2.04969e-18 0.00490725)
(0.00490725 -0.00225931 -5.6805e-05 0.00490725 3.25704e-19 0.00490725)
(0.00491709 -0.0022634 -5.774e-05 0.00491709 -2.12697e-18 0.00491709)
(0.00491709 -0.0022634 -5.774e-05 0.00491709 3.4822e-19 0.00491709)
(0.00492645 -0.0022673 -5.8685e-05 0.00492645 -2.18231e-18 0.00492645)
(0.00492645 -0.0022673 -5.8685e-05 0.00492645 3.93632e-19 0.00492645)
(0.00493536 -0.002271 -5.96402e-05 0.00493536 -2.24196e-18 0.00493536)
(0.00493536 -0.002271 -5.96402e-05 0.00493536 4.12501e-19 0.00493536)
(0.00494382 -0.00227453 -6.06058e-05 0.00494382 -2.28671e-18 0.00494382)
(0.00494382 -0.00227453 -6.06058e-05 0.00494382 4.25816e-19 0.00494382)
(0.00495185 -0.00227787 -6.15819e-05 0.00495185 -2.35167e-18 0.00495185)
(0.00495185 -0.00227787 -6.15819e-05 0.00495185 5.01494e-19 0.00495185)
(0.00495945 -0.00228104 -6.25688e-05 0.00495945 -2.42559e-18 0.00495945)
(0.00495945 -0.00228104 -6.25688e-05 0.00495945 4.80182e-19 0.00495945)
(0.00496664 -0.00228404 -6.35665e-05 0.00496664 -2.48903e-18 0.00496664)
(0.00496664 -0.00228404 -6.35665e-05 0.00496664 4.42153e-19 0.00496664)
(0.00497342 -0.00228687 -6.45752e-05 0.00497342 -2.58903e-18 0.00497342)
(0.00497342 -0.00228687 -6.45752e-05 0.00497342 5.22891e-19 0.00497342)
(0.00497982 -0.00228955 -6.55951e-05 0.00497982 -2.67416e-18 0.00497982)
(0.00497982 -0.00228955 -6.55951e-05 0.00497982 6.36136e-19 0.00497982)
(0.00498584 -0.00229206 -6.66264e-05 0.00498584 -2.73253e-18 0.00498584)
(0.00498584 -0.00229206 -6.66264e-05 0.00498584 5.73432e-19 0.00498584)
(0.00499148 -0.00229442 -6.76692e-05 0.00499148 -2.81536e-18 0.00499148)
(0.00499148 -0.00229442 -6.76692e-05 0.00499148 5.46425e-19 0.00499148)
(0.00499676 -0.00229664 -6.87236e-05 0.00499676 -2.89436e-18 0.00499676)
(0.00499676 -0.00229664 -6.87236e-05 0.00499676 6.35612e-19 0.00499676)
(0.00500168 -0.0022987 -6.97899e-05 0.00500168 -2.97753e-18 0.00500168)
(0.00500168 -0.0022987 -6.97899e-05 0.00500168 7.30303e-19 0.00500168)
(0.00500625 -0.00230062 -7.08681e-05 0.00500625 -3.03956e-18 0.00500625)
(0.00500625 -0.00230062 -7.08681e-05 0.00500625 6.76852e-19 0.00500625)
(0.00501049 -0.0023024 -7.19584e-05 0.00501049 -3.11729e-18 0.00501049)
(0.00501049 -0.0023024 -7.19584e-05 0.00501049 6.82776e-19 0.00501049)
(0.00501439 -0.00230405 -7.3061e-05 0.00501439 -3.2204e-18 0.00501439)
(0.00501439 -0.00230405 -7.3061e-05 0.00501439 7.49937e-19 0.00501439)
(0.00501797 -0.00230556 -7.4176e-05 0.00501797 -3.34131e-18 0.00501797)
(0.00501797 -0.00230556 -7.4176e-05 0.00501797 8.72374e-19 0.00501797)
(0.00502123 -0.00230693 -7.53036e-05 0.00502123 -3.39972e-18 0.00502123)
(0.00502123 -0.00230693 -7.53036e-05 0.00502123 7.82128e-19 0.00502123)
(0.00502418 -0.00230818 -7.64439e-05 0.00502418 -3.49609e-18 0.00502418)
(0.00502418 -0.00230818 -7.64439e-05 0.00502418 8.29436e-19 0.00502418)
(0.00502682 -0.0023093 -7.7597e-05 0.00502682 -3.60653e-18 0.00502682)
(0.00502682 -0.0023093 -7.7597e-05 0.00502682 9.30738e-19 0.00502682)
(0.00502916 -0.00231029 -7.87632e-05 0.00502916 -3.68045e-18 0.00502916)
(0.00502916 -0.00231029 -7.87632e-05 0.00502916 9.38996e-19 0.00502916)
(0.0050312 -0.00231116 -7.99426e-05 0.0050312 -3.82199e-18 0.0050312)
(0.0050312 -0.00231116 -7.99426e-05 0.0050312 8.79126e-19 0.0050312)
(0.00503296 -0.00231191 -8.11352e-05 0.00503296 -3.96907e-18 0.00503296)
(0.00503296 -0.00231191 -8.11352e-05 0.00503296 8.50495e-19 0.00503296)
(0.00503443 -0.00231254 -8.23413e-05 0.00503443 -4.05085e-18 0.00503443)
(0.00503443 -0.00231254 -8.23413e-05 0.00503443 1.16365e-18 0.00503443)
(0.00503563 -0.00231306 -8.3561e-05 0.00503563 -4.12012e-18 0.00503563)
(0.00503563 -0.00231306 -8.3561e-05 0.00503563 1.23963e-18 0.00503563)
(0.00503655 -0.00231345 -8.47945e-05 0.00503655 -4.17876e-18 0.00503655)
(0.00503655 -0.00231345 -8.47945e-05 0.00503655 1.1124e-18 0.00503655)
(0.0050372 -0.00231374 -8.60418e-05 0.0050372 -4.26982e-18 0.0050372)
(0.0050372 -0.00231374 -8.60418e-05 0.0050372 1.08007e-18 0.0050372)
(0.00503758 -0.00231391 -8.73032e-05 0.00503758 -4.45053e-18 0.00503758)
(0.00503758 -0.00231391 -8.73032e-05 0.00503758 1.03082e-18 0.00503758)
(0.0050377 -0.00231397 -8.85787e-05 0.0050377 -4.6926e-18 0.0050377)
(0.0050377 -0.00231397 -8.85787e-05 0.0050377 1.39346e-18 0.0050377)
(0.00503757 -0.00231392 -8.98685e-05 0.00503757 -4.58434e-18 0.00503757)
(0.00503757 -0.00231392 -8.98685e-05 0.00503757 1.46132e-18 0.00503757)
(0.00503718 -0.00231376 -9.11728e-05 0.00503718 -4.81624e-18 0.00503718)
(0.00503718 -0.00231376 -9.11728e-05 0.00503718 1.52537e-18 0.00503718)
(0.00503654 -0.0023135 -9.24917e-05 0.00503654 -4.98792e-18 0.00503654)
(0.00503654 -0.0023135 -9.24917e-05 0.00503654 1.52898e-18 0.00503654)
(0.00503566 -0.00231313 -9.38252e-05 0.00503566 -5.09273e-18 0.00503566)
(0.00503566 -0.00231313 -9.38252e-05 0.00503566 1.72616e-18 0.00503566)
(0.00503453 -0.00231266 -9.51737e-05 0.00503453 -5.34678e-18 0.00503453)
(0.00503453 -0.00231266 -9.51737e-05 0.00503453 1.82682e-18 0.00503453)
(0.00503316 -0.00231208 -9.65371e-05 0.00503316 -5.66984e-18 0.00503316)
(0.00503316 -0.00231208 -9.65371e-05 0.00503316 1.88504e-18 0.00503316)
(0.00503155 -0.0023114 -9.79156e-05 0.00503155 -4.77585e-18 0.00503155)
(0.00503155 -0.0023114 -9.79156e-05 0.00503155 2.12994e-18 0.00503155)
(0.00502972 -0.00231062 -9.93094e-05 0.00502972 -2.88071e-18 0.00502972)
(0.00502972 -0.00231062 -9.93094e-05 0.00502972 2.51825e-18 0.00502972)
(0.00502764 -0.00230975 -0.000100719 0.00502764 -1.86135e-18 0.00502764)
(0.00502764 -0.00230975 -0.000100719 0.00502764 2.14077e-18 0.00502764)
(0.00502535 -0.00230877 -0.000102143 0.00502535 -2.01073e-18 0.00502535)
(0.00502535 -0.00230877 -0.000102143 0.00502535 2.01958e-18 0.00502535)
(0.00502282 -0.00230769 -0.000103584 0.00502282 -1.80646e-18 0.00502282)
(0.00502282 -0.00230769 -0.000103584 0.00502282 2.613e-18 0.00502282)
(0.00502007 -0.00230651 -0.00010504 0.00502007 -1.47452e-18 0.00502007)
(0.00502007 -0.00230651 -0.00010504 0.00502007 2.30535e-18 0.00502007)
(0.0050171 -0.00230524 -0.000106512 0.0050171 -1.75211e-18 0.0050171)
(0.0050171 -0.00230524 -0.000106512 0.0050171 2.24222e-18 0.0050171)
(0.00501391 -0.00230387 -0.000108 0.00501391 -1.68774e-18 0.00501391)
(0.00501391 -0.00230387 -0.000108 0.00501391 2.70519e-18 0.00501391)
(0.0050105 -0.00230241 -0.000109504 0.0050105 -1.43464e-18 0.0050105)
(0.0050105 -0.00230241 -0.000109504 0.0050105 2.89793e-18 0.0050105)
(0.00500688 -0.00230085 -0.000111024 0.00500688 -1.30053e-18 0.00500688)
(0.00500688 -0.00230085 -0.000111024 0.00500688 2.83437e-18 0.00500688)
(0.00500305 -0.0022992 -0.000112561 0.00500305 -1.13856e-18 0.00500305)
(0.00500305 -0.0022992 -0.000112561 0.00500305 2.83415e-18 0.00500305)
(0.004999 -0.00229745 -0.000114114 0.004999 -9.61464e-19 0.004999)
(0.004999 -0.00229745 -0.000114114 0.004999 2.60188e-18 0.004999)
(0.00499474 -0.00229561 -0.000115684 0.00499474 -8.66414e-19 0.00499474)
(0.00499474 -0.00229561 -0.000115684 0.00499474 2.62764e-18 0.00499474)
(0.00499028 -0.00229368 -0.00011727 0.00499028 -9.26543e-19 0.00499028)
(0.00499028 -0.00229368 -0.00011727 0.00499028 2.77256e-18 0.00499028)
(0.00498561 -0.00229166 -0.000118874 0.00498561 -4.71969e-19 0.00498561)
(0.00498561 -0.00229166 -0.000118874 0.00498561 3.0912e-18 0.00498561)
(0.00498073 -0.00228954 -0.000120494 0.00498073 -5.28358e-19 0.00498073)
(0.00498073 -0.00228954 -0.000120494 0.00498073 3.49149e-18 0.00498073)
(0.00497565 -0.00228733 -0.000122131 0.00497565 -5.34096e-19 0.00497565)
(0.00497565 -0.00228733 -0.000122131 0.00497565 3.6963e-18 0.00497565)
(0.00497037 -0.00228503 -0.000123786 0.00497037 8.80257e-21 0.00497037)
(0.00497037 -0.00228503 -0.000123786 0.00497037 3.17271e-18 0.00497037)
(0.00496488 -0.00228264 -0.000125457 0.00496488 -1.90157e-19 0.00496488)
(0.00496488 -0.00228264 -0.000125457 0.00496488 3.03426e-18 0.00496488)
(0.0049592 -0.00228016 -0.000127146 0.0049592 1.68022e-19 0.0049592)
(0.0049592 -0.00228016 -0.000127146 0.0049592 3.01109e-18 0.0049592)
(0.00495331 -0.00227759 -0.000128853 0.00495331 5.93536e-19 0.00495331)
(0.00495331 -0.00227759 -0.000128853 0.00495331 4.06973e-18 0.00495331)
(0.00494723 -0.00227493 -0.000130576 0.00494723 6.37237e-19 0.00494723)
(0.00494723 -0.00227493 -0.000130576 0.00494723 3.78269e-18 0.00494723)
(0.00494095 -0.00227218 -0.000132318 0.00494095 -2.88887e-19 0.00494095)
(0.00494095 -0.00227218 -0.000132318 0.00494095 3.65021e-18 0.00494095)
(0.00493448 -0.00226934 -0.000134077 0.00493448 -6.5284e-19 0.00493448)
(0.00493448 -0.00226934 -0.000134077 0.00493448 4.33583e-18 0.00493448)
(0.00492781 -0.00226641 -0.000135853 0.00492781 4.09015e-19 0.00492781)
(0.00492781 -0.00226641 -0.000135853 0.00492781 4.88646e-18 0.00492781)
(0.00492094 -0.00226338 -0.000137648 0.00492094 6.93256e-19 0.00492094)
(0.00492094 -0.00226338 -0.000137648 0.00492094 4.36191e-18 0.00492094)
(0.00491388 -0.00226027 -0.00013946 0.00491388 -5.67026e-20 0.00491388)
(0.00491388 -0.00226027 -0.00013946 0.00491388 4.78122e-18 0.00491388)
(0.00490663 -0.00225707 -0.000141291 0.00490663 7.43741e-19 0.00490663)
(0.00490663 -0.00225707 -0.000141291 0.00490663 4.98943e-18 0.00490663)
(0.00489918 -0.00225379 -0.000143139 0.00489918 4.3708e-19 0.00489918)
(0.00489918 -0.00225379 -0.000143139 0.00489918 5.22808e-18 0.00489918)
(0.00489154 -0.00225041 -0.000145005 0.00489154 3.39869e-19 0.00489154)
(0.00489154 -0.00225041 -0.000145005 0.00489154 5.72637e-18 0.00489154)
(0.00488371 -0.00224694 -0.00014689 0.00488371 5.93082e-19 0.00488371)
(0.00488371 -0.00224694 -0.00014689 0.00488371 5.79582e-18 0.00488371)
(0.00487569 -0.00224338 -0.000148792 0.00487569 5.38499e-19 0.00487569)
(0.00487569 -0.00224338 -0.000148792 0.00487569 5.53209e-18 0.00487569)
(0.00486747 -0.00223973 -0.000150713 0.00486747 8.02466e-19 0.00486747)
(0.00486747 -0.00223973 -0.000150713 0.00486747 6.46001e-18 0.00486747)
(0.00485907 -0.002236 -0.000152652 0.00485907 1.55845e-18 0.00485907)
(0.00485907 -0.002236 -0.000152652 0.00485907 7.05626e-18 0.00485907)
(0.00485047 -0.00223217 -0.000154609 0.00485047 1.07491e-18 0.00485047)
(0.00485047 -0.00223217 -0.000154609 0.00485047 6.97638e-18 0.00485047)
(0.00484168 -0.00222825 -0.000156585 0.00484168 8.17924e-19 0.00484168)
(0.00484168 -0.00222825 -0.000156585 0.00484168 7.3373e-18 0.00484168)
(0.00483271 -0.00222424 -0.000158578 0.00483271 9.33491e-19 0.00483271)
(0.00483271 -0.00222424 -0.000158578 0.00483271 7.40072e-18 0.00483271)
(0.00482354 -0.00222015 -0.00016059 0.00482354 8.71957e-19 0.00482354)
(0.00482354 -0.00222015 -0.00016059 0.00482354 7.59989e-18 0.00482354)
(0.00481418 -0.00221596 -0.00016262 0.00481418 4.12154e-19 0.00481418)
(0.00481418 -0.00221596 -0.00016262 0.00481418 7.59508e-18 0.00481418)
(0.00480463 -0.00221168 -0.000164669 0.00480463 -3.42495e-19 0.00480463)
(0.00480463 -0.00221168 -0.000164669 0.00480463 7.661e-18 0.00480463)
(0.00479489 -0.00220731 -0.000166735 0.00479489 -9.70424e-19 0.00479489)
(0.00479489 -0.00220731 -0.000166735 0.00479489 8.1766e-18 0.00479489)
(0.00478496 -0.00220284 -0.00016882 0.00478496 -1.32638e-18 0.00478496)
(0.00478496 -0.00220284 -0.00016882 0.00478496 9.04943e-18 0.00478496)
(0.00477483 -0.00219829 -0.000170923 0.00477483 -1.58567e-18 0.00477483)
(0.00477483 -0.00219829 -0.000170923 0.00477483 9.936e-18 0.00477483)
(0.00476452 -0.00219364 -0.000173044 0.00476452 -1.51419e-18 0.00476452)
(0.00476452 -0.00219364 -0.000173044 0.00476452 1.03929e-17 0.00476452)
(0.00475401 -0.00218891 -0.000175183 0.00475401 -1.05584e-18 0.00475401)
(0.00475401 -0.00218891 -0.000175183 0.00475401 1.00276e-17 0.00475401)
(0.00474331 -0.00218407 -0.00017734 0.00474331 -9.88306e-19 0.00474331)
(0.00474331 -0.00218407 -0.00017734 0.00474331 1.02671e-17 0.00474331)
(0.00473242 -0.00217915 -0.000179515 0.00473242 -4.49493e-19 0.00473242)
(0.00473242 -0.00217915 -0.000179515 0.00473242 1.1391e-17 0.00473242)
(0.00472134 -0.00217413 -0.000181708 0.00472134 2.87906e-19 0.00472134)
(0.00472134 -0.00217413 -0.000181708 0.00472134 1.07307e-17 0.00472134)
(0.00471006 -0.00216902 -0.000183919 0.00471006 1.96733e-19 0.00471006)
(0.00471006 -0.00216902 -0.000183919 0.00471006 1.11221e-17 0.00471006)
(0.00469858 -0.00216381 -0.000186147 0.00469858 5.28561e-19 0.00469858)
(0.00469858 -0.00216381 -0.000186147 0.00469858 1.10843e-17 0.00469858)
(0.00468692 -0.0021585 -0.000188393 0.00468692 9.58273e-19 0.00468692)
(0.00468692 -0.0021585 -0.000188393 0.00468692 1.13104e-17 0.00468692)
(0.00467505 -0.00215311 -0.000190656 0.00467505 7.18188e-19 0.00467505)
(0.00467505 -0.00215311 -0.000190656 0.00467505 1.19846e-17 0.00467505)
(0.004663 -0.00214761 -0.000192936 0.004663 1.52945e-18 0.004663)
(0.004663 -0.00214761 -0.000192936 0.004663 1.26628e-17 0.004663)
(0.00465074 -0.00214202 -0.000195234 0.00465074 1.41572e-18 0.00465074)
(0.00465074 -0.00214202 -0.000195234 0.00465074 1.22867e-17 0.00465074)
(0.00463829 -0.00213633 -0.000197548 0.00463829 7.40317e-19 0.00463829)
(0.00463829 -0.00213633 -0.000197548 0.00463829 1.13439e-17 0.00463829)
(0.00462563 -0.00213054 -0.000199879 0.00462563 5.81837e-19 0.00462563)
(0.00462563 -0.00213054 -0.000199879 0.00462563 1.32271e-17 0.00462563)
(0.00461278 -0.00212465 -0.000202227 0.00461278 1.20445e-18 0.00461278)
(0.00461278 -0.00212465 -0.000202227 0.00461278 1.45131e-17 0.00461278)
(0.00459973 -0.00211866 -0.000204591 0.00459973 1.00328e-18 0.00459973)
(0.00459973 -0.00211866 -0.000204591 0.00459973 1.39497e-17 0.00459973)
(0.00458647 -0.00211258 -0.000206971 0.00458647 -8.1725e-19 0.00458647)
(0.00458647 -0.00211258 -0.000206971 0.00458647 1.24925e-17 0.00458647)
(0.00457302 -0.00210639 -0.000209367 0.00457302 1.28354e-18 0.00457302)
(0.00457302 -0.00210639 -0.000209367 0.00457302 1.4928e-17 0.00457302)
(0.00455936 -0.0021001 -0.000211778 0.00455936 1.42961e-18 0.00455936)
(0.00455936 -0.0021001 -0.000211778 0.00455936 1.53422e-17 0.00455936)
(0.00454549 -0.00209371 -0.000214205 0.00454549 1.8043e-18 0.00454549)
(0.00454549 -0.00209371 -0.000214205 0.00454549 1.50642e-17 0.00454549)
(0.00453142 -0.00208721 -0.000216646 0.00453142 1.25921e-18 0.00453142)