/*--------------------------------*- C++ -*----------------------------------*\
| =========                 |                                                 |
| \\      /  F ield         | OpenFOAM: The Open Source CFD Toolbox           |
|  \\    /   O peration     | Version:  2106                                  |
|   \\  /    A nd           | Website:  www.openfoam.com                      |
|    \\/     M anipulation  |                                                 |
\*---------------------------------------------------------------------------*/
FoamFile
{
    version     2.0;
    format      ascii;
    arch        "LSB;label=32;scalar=64";
    class       volVectorField;
    location    "18000";
    object      U;
}
// * * * * * * * * * * * * * * * * * * * * * * * * * * * * * * * * * * * * * //

dimensions      [0 1 -1 0 0 0 0];

internalField   nonuniform List<vector> 
2560
(
(0.00225102 -7.56754e-16 -1.12396e-18)
(0.00225102 4.74042e-19 -2.67855e-18)
(0.00678513 -2.91359e-15 -1.99937e-17)
(0.00678513 -7.1892e-19 -3.18152e-17)
(0.0113845 -1.59711e-15 -2.16353e-17)
(0.0113845 -4.36176e-19 -3.27549e-17)
(0.01605 -1.76425e-15 -2.29192e-17)
(0.01605 -6.62893e-19 -3.37245e-17)
(0.0207827 -1.72747e-15 -2.42546e-17)
(0.0207827 -8.93209e-19 -3.47254e-17)
(0.0255834 -1.73199e-15 -2.56992e-17)
(0.0255834 -1.12656e-18 -3.57588e-17)
(0.0304532 -1.73624e-15 -2.72132e-17)
(0.0304532 -1.37491e-18 -3.68254e-17)
(0.035393 -1.7362e-15 -2.87825e-17)
(0.035393 -1.62643e-18 -3.79263e-17)
(0.0404038 -1.73583e-15 -3.0407e-17)
(0.0404038 -1.87864e-18 -3.90625e-17)
(0.0454866 -1.73567e-15 -3.20873e-17)
(0.0454866 -2.14429e-18 -4.02353e-17)
(0.0506424 -1.73547e-15 -3.38237e-17)
(0.0506424 -2.38221e-18 -4.14457e-17)
(0.0558723 -1.73521e-15 -3.56172e-17)
(0.0558723 -2.62534e-18 -4.26954e-17)
(0.0611773 -1.73492e-15 -3.74693e-17)
(0.0611773 -2.89918e-18 -4.39857e-17)
(0.0665583 -1.73461e-15 -3.93813e-17)
(0.0665583 -3.1914e-18 -4.53168e-17)
(0.0720165 -1.73432e-15 -4.13547e-17)
(0.0720165 -3.49708e-18 -4.6691e-17)
(0.0775528 -1.73403e-15 -4.33908e-17)
(0.0775528 -3.77952e-18 -4.81094e-17)
(0.0831683 -1.73378e-15 -4.54912e-17)
(0.0831683 -4.04721e-18 -4.95719e-17)
(0.088864 -1.73356e-15 -4.76576e-17)
(0.088864 -4.29323e-18 -5.10801e-17)
(0.0946408 -1.73338e-15 -4.9891e-17)
(0.0946408 -4.51098e-18 -5.26359e-17)
(0.1005 -1.73315e-15 -5.21929e-17)
(0.1005 -4.8091e-18 -5.42419e-17)
(0.106442 -1.73281e-15 -5.45638e-17)
(0.106442 -5.17251e-18 -5.58974e-17)
(0.112467 -1.73249e-15 -5.70044e-17)
(0.112467 -5.56706e-18 -5.76042e-17)
(0.118578 -1.73234e-15 -5.95156e-17)
(0.118578 -5.86495e-18 -5.93593e-17)
(0.124773 -1.73226e-15 -6.20984e-17)
(0.124773 -6.0897e-18 -6.1165e-17)
(0.131054 -1.73206e-15 -6.47527e-17)
(0.131054 -6.33102e-18 -6.30239e-17)
(0.137422 -1.73192e-15 -6.74783e-17)
(0.137422 -6.5562e-18 -6.49348e-17)
(0.143876 -1.73178e-15 -7.02747e-17)
(0.143876 -6.80437e-18 -6.6899e-17)
(0.150416 -1.73163e-15 -7.3141e-17)
(0.150416 -7.04517e-18 -6.89125e-17)
(0.157043 -1.73148e-15 -7.60754e-17)
(0.157043 -7.23745e-18 -7.09727e-17)
(0.163755 -1.73131e-15 -7.90749e-17)
(0.163755 -7.50961e-18 -7.30791e-17)
(0.170552 -1.73117e-15 -8.21364e-17)
(0.170552 -7.76087e-18 -7.52292e-17)
(0.177434 -1.73096e-15 -8.52548e-17)
(0.177434 -7.95677e-18 -7.7425e-17)
(0.184397 -1.73071e-15 -8.84251e-17)
(0.184397 -8.22775e-18 -7.96602e-17)
(0.191441 -1.73048e-15 -9.16409e-17)
(0.191441 -8.54914e-18 -8.19294e-17)
(0.198563 -1.73024e-15 -9.48951e-17)
(0.198563 -8.91507e-18 -8.42258e-17)
(0.20576 -1.72999e-15 -9.81793e-17)
(0.20576 -9.231e-18 -8.65364e-17)
(0.213029 -1.72983e-15 -1.01485e-16)
(0.213029 -9.48431e-18 -8.88669e-17)
(0.220365 -1.72962e-15 -1.04802e-16)
(0.220365 -9.79031e-18 -9.12088e-17)
(0.227765 -1.72952e-15 -1.0812e-16)
(0.227765 -1.01562e-17 -9.35449e-17)
(0.235222 -1.72955e-15 -1.11427e-16)
(0.235222 -1.04557e-17 -9.58742e-17)
(0.242731 -1.72949e-15 -1.12924e-16)
(0.242731 -1.0748e-17 -9.81868e-17)
(0.250286 -1.72963e-15 -1.11561e-16)
(0.250286 -1.06977e-17 -1.00466e-16)
(0.257881 -1.7298e-15 -1.10079e-16)
(0.257881 -1.08477e-17 -1.02709e-16)
(0.265507 -1.72999e-15 -1.0847e-16)
(0.265507 -1.11649e-17 -1.04901e-16)
(0.273157 -1.73016e-15 -1.06743e-16)
(0.273157 -1.12522e-17 -1.07041e-16)
(0.280824 -1.73029e-15 -1.049e-16)
(0.280824 -1.14605e-17 -1.0913e-16)
(0.288498 -1.73075e-15 -1.02935e-16)
(0.288498 -1.15634e-17 -1.11141e-16)
(0.296172 -1.73129e-15 -1.00867e-16)
(0.296172 -1.17724e-17 -1.13069e-16)
(0.303838 -1.73162e-15 -9.86893e-17)
(0.303838 -1.20168e-17 -1.14919e-16)
(0.311487 -1.73192e-15 -9.64112e-17)
(0.311487 -1.23008e-17 -1.16685e-16)
(0.31911 -1.73211e-15 -9.40498e-17)
(0.31911 -1.25328e-17 -1.18362e-16)
(0.3267 -1.73224e-15 -9.15941e-17)
(0.3267 -1.29369e-17 -1.19953e-16)
(0.33425 -1.73234e-15 -8.90467e-17)
(0.33425 -1.32647e-17 -1.21459e-16)
(0.341752 -1.73212e-15 -8.64251e-17)
(0.341752 -1.35916e-17 -1.22886e-16)
(0.349199 -1.73205e-15 -8.37379e-17)
(0.349199 -1.39092e-17 -1.24227e-16)
(0.356585 -1.73208e-15 -8.09972e-17)
(0.356585 -1.38898e-17 -1.25489e-16)
(0.363906 -1.73242e-15 -7.82141e-17)
(0.363906 -1.43072e-17 -1.2667e-16)
(0.371154 -1.73283e-15 -7.54167e-17)
(0.371154 -1.49205e-17 -1.27779e-16)
(0.378327 -1.73286e-15 -7.25884e-17)
(0.378327 -1.50774e-17 -1.28841e-16)
(0.38542 -1.73291e-15 -6.97257e-17)
(0.38542 -1.54227e-17 -1.29844e-16)
(0.39243 -1.73283e-15 -6.68544e-17)
(0.39243 -1.58857e-17 -1.30799e-16)
(0.399355 -1.73255e-15 -6.39894e-17)
(0.399355 -1.61102e-17 -1.31702e-16)
(0.406191 -1.73238e-15 -6.11227e-17)
(0.406191 -1.70628e-17 -1.32571e-16)
(0.412938 -1.73209e-15 -5.82716e-17)
(0.412938 -1.73396e-17 -1.33442e-16)
(0.419593 -1.73195e-15 -5.54323e-17)
(0.419593 -1.73583e-17 -1.34245e-16)
(0.426157 -1.73309e-15 -5.26162e-17)
(0.426157 -1.70824e-17 -1.35035e-16)
(0.432628 -1.73431e-15 -4.98454e-17)
(0.432628 -1.66254e-17 -1.35839e-16)
(0.439007 -1.73503e-15 -4.71345e-17)
(0.439007 -1.67655e-17 -1.36624e-16)
(0.445294 -1.73614e-15 -4.44741e-17)
(0.445294 -1.65951e-17 -1.37422e-16)
(0.451489 -1.73659e-15 -4.18882e-17)
(0.451489 -1.64427e-17 -1.38217e-16)
(0.457593 -1.73638e-15 -3.93173e-17)
(0.457593 -1.66402e-17 -1.39022e-16)
(0.463607 -1.7369e-15 -3.68026e-17)
(0.463607 -1.71996e-17 -1.39821e-16)
(0.469532 -1.73819e-15 -3.43516e-17)
(0.469532 -1.72201e-17 -1.40675e-16)
(0.47537 -1.73924e-15 -3.19648e-17)
(0.47537 -1.67473e-17 -1.41539e-16)
(0.481121 -1.73967e-15 -2.96411e-17)
(0.481121 -1.66941e-17 -1.42417e-16)
(0.486787 -1.74012e-15 -2.73722e-17)
(0.486787 -1.73627e-17 -1.43343e-16)
(0.49237 -1.74081e-15 -2.51735e-17)
(0.49237 -1.78713e-17 -1.44293e-16)
(0.497872 -1.74192e-15 -2.30386e-17)
(0.497872 -1.85225e-17 -1.45294e-16)
(0.503294 -1.74308e-15 -2.09804e-17)
(0.503294 -1.9526e-17 -1.46353e-16)
(0.508637 -1.7437e-15 -1.90254e-17)
(0.508637 -1.98804e-17 -1.47464e-16)
(0.513905 -1.74419e-15 -1.71069e-17)
(0.513905 -2.00675e-17 -1.47295e-16)
(0.519097 -1.74417e-15 -1.52514e-17)
(0.519097 -2.11763e-17 -1.46202e-16)
(0.524217 -1.7436e-15 -1.35472e-17)
(0.524217 -2.18499e-17 -1.45176e-16)
(0.529266 -1.74272e-15 -1.18514e-17)
(0.529266 -2.29205e-17 -1.44223e-16)
(0.534246 -1.74208e-15 -1.02287e-17)
(0.534246 -2.51164e-17 -1.4324e-16)
(0.539158 -1.74241e-15 -8.71716e-18)
(0.539158 -2.57062e-17 -1.4221e-16)
(0.544004 -1.74306e-15 -7.317e-18)
(0.544004 -2.66481e-17 -1.42173e-16)
(0.548786 -1.74278e-15 -5.97257e-18)
(0.548786 -2.83325e-17 -1.42465e-16)
(0.553506 -1.74225e-15 -4.74366e-18)
(0.553506 -2.94593e-17 -1.42744e-16)
(0.558165 -1.74175e-15 -3.55614e-18)
(0.558165 -3.12819e-17 -1.42934e-16)
(0.562765 -1.74116e-15 -2.39532e-18)
(0.562765 -3.31225e-17 -1.43067e-16)
(0.567307 -1.74186e-15 -1.29662e-18)
(0.567307 -3.22659e-17 -1.43143e-16)
(0.571793 -1.74335e-15 -2.52214e-19)
(0.571793 -3.11151e-17 -1.43273e-16)
(0.576224 -1.7451e-15 7.16212e-19)
(0.576224 -2.88433e-17 -1.43307e-16)
(0.580602 -1.74732e-15 1.63447e-18)
(0.580602 -3.04859e-17 -1.434e-16)
(0.584929 -1.74918e-15 2.52497e-18)
(0.584929 -2.86523e-17 -1.43645e-16)
(0.589205 -1.75002e-15 3.29102e-18)
(0.589205 -2.82595e-17 -1.43776e-16)
(0.593432 -1.7505e-15 4.13213e-18)
(0.593432 -2.86399e-17 -1.4412e-16)
(0.597612 -1.75094e-15 5.03577e-18)
(0.597612 -2.93884e-17 -1.44636e-16)
(0.601745 -1.75139e-15 5.78351e-18)
(0.601745 -2.92306e-17 -1.45127e-16)
(0.605833 -1.75202e-15 6.50186e-18)
(0.605833 -2.8072e-17 -1.45523e-16)
(0.609877 -1.75198e-15 7.08355e-18)
(0.609877 -2.86528e-17 -1.45943e-16)
(0.613878 -1.75153e-15 7.73098e-18)
(0.613878 -2.96194e-17 -1.46391e-16)
(0.617838 -1.75116e-15 8.3335e-18)
(0.617838 -2.86089e-17 -1.46844e-16)
(0.621757 -1.75091e-15 8.85043e-18)
(0.621757 -3.04673e-17 -1.47304e-16)
(0.625636 -1.75093e-15 9.41159e-18)
(0.625636 -3.15229e-17 -1.47865e-16)
(0.629477 -1.75049e-15 9.9404e-18)
(0.629477 -3.12612e-17 -1.48462e-16)
(0.63328 -1.75015e-15 1.03986e-17)
(0.63328 -3.3096e-17 -1.49109e-16)
(0.637047 -1.75025e-15 1.08629e-17)
(0.637047 -3.41662e-17 -1.49833e-16)
(0.640779 -1.74975e-15 1.13162e-17)
(0.640779 -3.52758e-17 -1.50502e-16)
(0.644475 -1.74925e-15 1.17462e-17)
(0.644475 -3.71442e-17 -1.51244e-16)
(0.648138 -1.74902e-15 1.22058e-17)
(0.648138 -3.77356e-17 -1.5213e-16)
(0.651768 -1.74834e-15 1.268e-17)
(0.651768 -3.94707e-17 -1.53171e-16)
(0.655366 -1.74748e-15 1.30194e-17)
(0.655366 -4.10961e-17 -1.53973e-16)
(0.658933 -1.74641e-15 1.32976e-17)
(0.658933 -4.35239e-17 -1.5467e-16)
(0.662469 -1.74594e-15 1.36397e-17)
(0.662469 -4.54713e-17 -1.55425e-16)
(0.665975 -1.74633e-15 1.37702e-17)
(0.665975 -4.55698e-17 -1.56137e-16)
(0.669453 -1.74494e-15 1.38757e-17)
(0.669453 -4.68707e-17 -1.56753e-16)
(0.672902 -1.74249e-15 1.40215e-17)
(0.672902 -4.80472e-17 -1.57307e-16)
(0.676323 -1.74057e-15 1.41368e-17)
(0.676323 -5.07622e-17 -1.57872e-16)
(0.679718 -1.73847e-15 1.32054e-17)
(0.679718 -5.29696e-17 -1.58512e-16)
(0.683086 -1.73607e-15 1.08832e-17)
(0.683086 -5.41937e-17 -1.59182e-16)
(0.686429 -1.7342e-15 8.47247e-18)
(0.686429 -5.63594e-17 -1.59897e-16)
(0.689746 -1.73241e-15 6.0778e-18)
(0.689746 -5.92359e-17 -1.60529e-16)
(0.69304 -1.73071e-15 3.68286e-18)
(0.69304 -6.11701e-17 -1.61298e-16)
(0.696309 -1.73105e-15 1.2893e-18)
(0.696309 -6.42836e-17 -1.62042e-16)
(0.699555 -1.73151e-15 -8.30964e-19)
(0.699555 -6.74205e-17 -1.62956e-16)
(0.702778 -1.73138e-15 -2.85652e-18)
(0.702778 -6.83003e-17 -1.64198e-16)
(0.705979 -1.73065e-15 -4.75663e-18)
(0.705979 -7.16449e-17 -1.65478e-16)
(0.709159 -1.72806e-15 -6.57953e-18)
(0.709159 -7.2917e-17 -1.66814e-16)
(0.712317 -1.72679e-15 -8.2737e-18)
(0.712317 -7.14809e-17 -1.68252e-16)
(0.715454 -1.72749e-15 -9.09368e-18)
(0.715454 -7.14259e-17 -1.70009e-16)
(0.718571 -1.72995e-15 -9.48456e-18)
(0.718571 -7.20341e-17 -1.72083e-16)
(0.721669 -1.72834e-15 -9.63803e-18)
(0.721669 -7.08337e-17 -1.74249e-16)
(0.724747 -1.72563e-15 -9.38906e-18)
(0.724747 -7.0001e-17 -1.76433e-16)
(0.727806 -1.72756e-15 -9.4132e-18)
(0.727806 -7.17171e-17 -1.78937e-16)
(0.730846 -1.7258e-15 -9.2138e-18)
(0.730846 -7.38174e-17 -1.81738e-16)
(0.733869 -1.72415e-15 -9.03585e-18)
(0.733869 -7.20235e-17 -1.84171e-16)
(0.736874 -1.7292e-15 -8.78665e-18)
(0.736874 -6.92885e-17 -1.86398e-16)
(0.739861 -1.7278e-15 -8.9076e-18)
(0.739861 -7.17664e-17 -1.88902e-16)
(0.742832 -1.72747e-15 -8.9391e-18)
(0.742832 -7.32311e-17 -1.91655e-16)
(0.745786 -1.72573e-15 -9.05912e-18)
(0.745786 -7.17178e-17 -1.93615e-16)
(0.748724 -1.72568e-15 -9.06161e-18)
(0.748724 -7.51472e-17 -1.95837e-16)
(0.751646 -1.72353e-15 -8.78542e-18)
(0.751646 -7.85411e-17 -1.9826e-16)
(0.754553 -1.72126e-15 -8.71267e-18)
(0.754553 -7.70757e-17 -2.00329e-16)
(0.757444 -1.71911e-15 -8.59109e-18)
(0.757444 -8.09026e-17 -2.02549e-16)
(0.76032 -1.71563e-15 -8.49085e-18)
(0.76032 -8.3131e-17 -2.04848e-16)
(0.763182 -1.71373e-15 -7.92219e-18)
(0.763182 -8.53694e-17 -2.07243e-16)
(0.76603 -1.7136e-15 -7.52472e-18)
(0.76603 -8.87276e-17 -2.09634e-16)
(0.768864 -1.71397e-15 -7.04185e-18)
(0.768864 -8.99679e-17 -2.12114e-16)
(0.771684 -1.71293e-15 -6.87353e-18)
(0.771684 -9.36826e-17 -2.14785e-16)
(0.77449 -1.71049e-15 -6.66362e-18)
(0.77449 -9.52822e-17 -2.1673e-16)
(0.777284 -1.70784e-15 -6.71014e-18)
(0.777284 -9.88089e-17 -2.18708e-16)
(0.780065 -1.70286e-15 -6.6574e-18)
(0.780065 -1.02728e-16 -2.21021e-16)
(0.782833 -1.69684e-15 -6.71563e-18)
(0.782833 -1.06761e-16 -2.2402e-16)
(0.785589 -1.69327e-15 -7.06651e-18)
(0.785589 -1.14522e-16 -2.27225e-16)
(0.788333 -1.69291e-15 -7.41e-18)
(0.788333 -1.17331e-16 -2.30174e-16)
(0.791064 -1.69083e-15 -7.73067e-18)
(0.791064 -1.18105e-16 -2.32849e-16)
(0.793785 -1.68471e-15 -7.7666e-18)
(0.793785 -1.24061e-16 -2.36334e-16)
(0.796494 -1.67212e-15 -7.5831e-18)
(0.796494 -1.3347e-16 -2.41187e-16)
(0.799191 -1.65987e-15 -7.50241e-18)
(0.799191 -1.39574e-16 -2.45398e-16)
(0.801878 -1.65189e-15 -7.43154e-18)
(0.801878 -1.45004e-16 -2.50073e-16)
(0.804554 -1.64918e-15 -7.7126e-18)
(0.804554 -1.50767e-16 -2.55085e-16)
(0.80722 -1.64643e-15 -7.08818e-18)
(0.80722 -1.53377e-16 -2.59563e-16)
(0.809875 -1.64496e-15 -7.47817e-18)
(0.809875 -1.55706e-16 -2.6441e-16)
(0.81252 -1.6472e-15 -7.66857e-18)
(0.81252 -1.57479e-16 -2.68794e-16)
(0.815155 -1.64671e-15 -7.40942e-18)
(0.815155 -1.54377e-16 -2.72976e-16)
(0.817781 -1.64247e-15 -7.48518e-18)
(0.817781 -1.53861e-16 -2.77128e-16)
(0.820396 -1.63946e-15 -7.66258e-18)
(0.820396 -1.58263e-16 -2.8118e-16)
(0.823003 -1.63975e-15 -7.83759e-18)
(0.823003 -1.57481e-16 -2.85131e-16)
(0.8256 -1.63962e-15 -8.1206e-18)
(0.8256 -1.60013e-16 -2.88944e-16)
(0.828188 -1.63784e-15 -8.29315e-18)
(0.828188 -1.64074e-16 -2.92844e-16)
(0.830768 -1.63532e-15 -8.2389e-18)
(0.830768 -1.66338e-16 -2.96878e-16)
(0.833338 -1.62994e-15 -8.13718e-18)
(0.833338 -1.69353e-16 -3.00413e-16)
(0.8359 -1.62338e-15 -8.29659e-18)
(0.8359 -1.69296e-16 -3.04555e-16)
(0.838454 -1.61955e-15 -8.72931e-18)
(0.838454 -1.69393e-16 -3.08873e-16)
(0.840999 -1.61573e-15 -9.28889e-18)
(0.840999 -1.77537e-16 -3.1251e-16)
(0.843536 -1.61087e-15 -9.61846e-18)
(0.843536 -1.82588e-16 -3.16297e-16)
(0.846065 -1.60175e-15 -9.66869e-18)
(0.846065 -1.86563e-16 -3.20908e-16)
(0.848586 -1.59399e-15 -1.02573e-17)
(0.848586 -1.93798e-16 -3.264e-16)
(0.8511 -1.58771e-15 -1.0737e-17)
(0.8511 -1.97459e-16 -3.33807e-16)
(0.853606 -1.5808e-15 -1.11047e-17)
(0.853606 -2.01476e-16 -3.40776e-16)
(0.856104 -1.57663e-15 -1.15757e-17)
(0.856104 -2.05747e-16 -3.49108e-16)
(0.858595 -1.56929e-15 -1.10509e-17)
(0.858595 -2.11529e-16 -3.56272e-16)
(0.861079 -1.55915e-15 -1.06458e-17)
(0.861079 -2.19274e-16 -3.63923e-16)
(0.863556 -1.55063e-15 -1.02235e-17)
(0.863556 -2.24527e-16 -3.71097e-16)
(0.866026 -1.54412e-15 -9.45706e-18)
(0.866026 -2.32028e-16 -3.77416e-16)
(0.868488 -1.54104e-15 -9.58079e-18)
(0.868488 -2.38999e-16 -3.82333e-16)
(0.870944 -1.53984e-15 -9.07118e-18)
(0.870944 -2.40713e-16 -3.87913e-16)
(0.873394 -1.53478e-15 -8.32658e-18)
(0.873394 -2.43925e-16 -3.92894e-16)
(0.875837 -1.53315e-15 -8.50217e-18)
(0.875837 -2.44636e-16 -3.9793e-16)
(0.878273 -1.53366e-15 -8.00692e-18)
(0.878273 -2.42314e-16 -4.02926e-16)
(0.880703 -1.52935e-15 -8.41379e-18)
(0.880703 -2.43023e-16 -4.06173e-16)
(0.883126 -1.52722e-15 -8.69137e-18)
(0.883126 -2.44111e-16 -4.07173e-16)
(0.885544 -1.52978e-15 -9.76769e-18)
(0.885544 -2.47114e-16 -4.09935e-16)
(0.887955 -1.53098e-15 -1.01687e-17)
(0.887955 -2.56372e-16 -4.13579e-16)
(0.89036 -1.52819e-15 -1.0558e-17)
(0.89036 -2.54948e-16 -4.13611e-16)
(0.892759 -1.52148e-15 -1.08819e-17)
(0.892759 -2.58199e-16 -4.13778e-16)
(0.895153 -1.51672e-15 -1.12514e-17)
(0.895153 -2.74575e-16 -4.15809e-16)
(0.89754 -1.51612e-15 -1.19476e-17)
(0.89754 -2.79972e-16 -4.17106e-16)
(0.899922 -1.50105e-15 -1.12406e-17)
(0.899922 -2.87138e-16 -4.14445e-16)
(0.902298 -1.4864e-15 -1.16919e-17)
(0.902298 -2.96363e-16 -4.15377e-16)
(0.904668 -1.48219e-15 -1.21994e-17)
(0.904668 -3.02614e-16 -4.15326e-16)
(0.907033 -1.47166e-15 -1.05364e-17)
(0.907033 -3.15505e-16 -4.14614e-16)
(0.909392 -1.45437e-15 -9.15121e-18)
(0.909392 -3.32364e-16 -4.11481e-16)
(0.911746 -1.4425e-15 -8.52551e-18)
(0.911746 -3.4799e-16 -4.0864e-16)
(0.914095 -1.4276e-15 -6.59946e-18)
(0.914095 -3.63434e-16 -4.0614e-16)
(0.916438 -1.42361e-15 -8.65757e-18)
(0.916438 -3.71803e-16 -4.03655e-16)
(0.918776 -1.42228e-15 -7.4482e-18)
(0.918776 -3.84345e-16 -4.007e-16)
(0.921108 -1.41361e-15 -7.81476e-18)
(0.921108 -3.99488e-16 -3.96149e-16)
(0.923436 -1.40673e-15 -8.14636e-18)
(0.923436 -4.07011e-16 -3.92547e-16)
(0.925758 -1.40008e-15 -8.4654e-18)
(0.925758 -4.21036e-16 -3.91166e-16)
(0.928075 -1.38838e-15 -7.44942e-18)
(0.928075 -4.38321e-16 -3.88532e-16)
(0.930387 -1.37318e-15 -8.12065e-18)
(0.930387 -4.53887e-16 -3.78078e-16)
(0.932694 -1.36316e-15 -7.95121e-18)
(0.932694 -4.65954e-16 -3.73489e-16)
(0.934996 -1.36345e-15 -9.96523e-18)
(0.934996 -4.74896e-16 -3.67781e-16)
(0.937293 -1.35284e-15 -9.76547e-18)
(0.937293 -4.90804e-16 -3.66306e-16)
(0.939585 -1.34529e-15 -9.98307e-18)
(0.939585 -5.0913e-16 -3.62687e-16)
(0.941872 -1.33744e-15 -1.06408e-17)
(0.941872 -5.1753e-16 -3.5741e-16)
(0.944154 -1.32679e-15 -1.08409e-17)
(0.944154 -5.30188e-16 -3.48935e-16)
(0.946431 -1.31047e-15 -9.98323e-18)
(0.946431 -5.46467e-16 -3.43005e-16)
(0.948703 -1.29663e-15 -1.01594e-17)
(0.948703 -5.58926e-16 -3.28936e-16)
(0.950971 -1.29562e-15 -1.17134e-17)
(0.950971 -5.67605e-16 -3.18184e-16)
(0.953233 -1.28509e-15 -1.19989e-17)
(0.953233 -5.82683e-16 -3.10082e-16)
(0.95549 -1.2744e-15 -1.21696e-17)
(0.95549 -5.99387e-16 -2.97201e-16)
(0.957743 -1.26021e-15 -1.19102e-17)
(0.957743 -6.0032e-16 -2.83128e-16)
(0.95999 -1.24826e-15 -1.14079e-17)
(0.95999 -6.10293e-16 -2.68748e-16)
(0.962233 -1.23279e-15 -1.15454e-17)
(0.962233 -6.23076e-16 -2.55604e-16)
(0.964471 -1.2259e-15 -1.20966e-17)
(0.964471 -6.31716e-16 -2.47729e-16)
(0.966704 -1.2095e-15 -1.11401e-17)
(0.966704 -6.47207e-16 -2.36817e-16)
(0.968931 -1.19765e-15 -1.12307e-17)
(0.968931 -6.63123e-16 -2.19258e-16)
(0.971154 -1.18736e-15 -1.10781e-17)
(0.971154 -6.60411e-16 -2.04579e-16)
(0.973372 -1.16988e-15 -1.08052e-17)
(0.973372 -6.62529e-16 -1.98536e-16)
(0.975585 -1.15641e-15 -1.17128e-17)
(0.975585 -6.71815e-16 -1.8285e-16)
(0.977792 -1.14373e-15 -1.28626e-17)
(0.977792 -6.62887e-16 -1.60708e-16)
(0.979995 -1.12694e-15 -1.26339e-17)
(0.979995 -6.66932e-16 -1.47969e-16)
(0.982192 -1.11299e-15 -1.2305e-17)
(0.982192 -6.74973e-16 -1.29959e-16)
(0.984384 -1.10339e-15 -1.30556e-17)
(0.984384 -6.72322e-16 -1.14561e-16)
(0.986571 -1.09789e-15 -1.30774e-17)
(0.986571 -6.75949e-16 -9.56267e-17)
(0.988752 -1.08271e-15 -1.33483e-17)
(0.988752 -6.70574e-16 -8.08869e-17)
(0.990928 -1.06858e-15 -1.22898e-17)
(0.990928 -6.76275e-16 -6.50813e-17)
(0.993099 -1.05064e-15 -1.18512e-17)
(0.993099 -6.93686e-16 -4.36419e-17)
(0.995264 -1.03759e-15 -1.13033e-17)
(0.995264 -6.95208e-16 -2.08299e-17)
(0.997423 -1.02826e-15 -1.20006e-17)
(0.997423 -6.96118e-16 -1.09395e-17)
(0.999577 -1.01444e-15 -1.20583e-17)
(0.999577 -6.95779e-16 6.78309e-18)
(1.00172 -9.97133e-16 -1.20752e-17)
(1.00172 -7.05511e-16 2.12709e-17)
(1.00387 -9.73075e-16 -1.21293e-17)
(1.00387 -7.08854e-16 4.27837e-17)
(1.006 -9.41775e-16 -9.66226e-18)
(1.006 -6.90869e-16 7.1026e-17)
(1.00813 -9.3071e-16 -1.4421e-17)
(1.00813 -6.75693e-16 6.60264e-17)
(1.01026 -9.3773e-16 -1.70465e-17)
(1.01026 -6.75864e-16 5.06426e-17)
(1.01237 -9.1987e-16 -1.17709e-17)
(1.01237 -6.9992e-16 3.12921e-17)
(1.01449 -8.9445e-16 -9.74124e-18)
(1.01449 -7.37672e-16 3.30026e-17)
(1.01659 -8.74275e-16 -3.30875e-18)
(1.01659 -7.46117e-16 3.53005e-17)
(1.01869 -8.58266e-16 -2.59807e-18)
(1.01869 -7.38536e-16 4.70519e-17)
(1.02078 -8.43181e-16 -3.05238e-18)
(1.02078 -7.35094e-16 5.51472e-17)
(1.02286 -8.29513e-16 -4.79413e-18)
(1.02286 -7.50254e-16 6.03392e-17)
(1.02494 -8.52653e-16 -1.32613e-17)
(1.02494 -7.44824e-16 6.93516e-17)
(1.02701 -8.51522e-16 -1.17527e-17)
(1.02701 -7.25873e-16 6.50333e-17)
(1.02907 -8.60493e-16 -1.8579e-17)
(1.02907 -7.12809e-16 6.22223e-17)
(1.03112 -8.68265e-16 -1.45846e-17)
(1.03112 -7.06843e-16 4.22633e-17)
(1.03317 -8.46617e-16 -9.28586e-18)
(1.03317 -7.24853e-16 2.22166e-17)
(1.03521 -8.12823e-16 -6.68498e-18)
(1.03521 -7.59414e-16 2.56424e-17)
(1.03724 -8.17875e-16 -1.28921e-17)
(1.03724 -7.74682e-16 2.34162e-17)
(1.03926 -8.17074e-16 -1.19003e-17)
(1.03926 -7.50622e-16 1.99707e-17)
(1.04127 -8.10582e-16 -1.5128e-17)
(1.04127 -7.38568e-16 1.70476e-17)
(1.04328 -7.93759e-16 -1.06288e-17)
(1.04328 -7.37075e-16 6.00009e-18)
(1.04527 -7.74558e-16 -1.22572e-17)
(1.04527 -7.21013e-16 3.1048e-18)
(1.04725 -7.63709e-16 -1.74416e-17)
(1.04725 -7.20656e-16 -4.2672e-18)
(1.04923 -7.38262e-16 -1.96847e-17)
(1.04923 -7.11745e-16 -8.68743e-18)
(1.05119 -7.18991e-16 -1.43817e-17)
(1.05119 -7.00895e-16 -7.30758e-19)
(1.05314 -7.04147e-16 -1.04588e-17)
(1.05314 -7.07242e-16 2.04694e-18)
(1.05509 -6.90224e-16 -1.24636e-17)
(1.05509 -7.06362e-16 2.45947e-18)
(1.05702 -7.30796e-16 -2.52103e-17)
(1.05702 -7.41593e-16 -9.32947e-18)
(1.05894 -7.05154e-16 -9.39132e-18)
(1.05894 -6.76263e-16 -1.34397e-17)
(1.06084 -6.80643e-16 -6.53117e-18)
(1.06084 -6.72664e-16 -8.91378e-18)
(1.06274 -6.42914e-16 -1.47915e-17)
(1.06274 -6.46893e-16 -1.17698e-18)
(1.06462 -6.27833e-16 -4.50118e-18)
(1.06462 -6.44451e-16 -1.36469e-17)
(1.06649 -6.12695e-16 -1.22159e-17)
(1.06649 -6.41685e-16 -1.08749e-17)
(1.06834 -6.19852e-16 -1.39207e-17)
(1.06834 -6.29119e-16 -1.76772e-17)
(1.07018 -6.11416e-16 -6.14347e-18)
(1.07018 -6.03428e-16 -1.89508e-17)
(1.07201 -5.87914e-16 1.21181e-18)
(1.07201 -5.97128e-16 -1.22399e-17)
(1.07382 -5.84042e-16 1.6169e-18)
(1.07382 -6.0381e-16 -1.25988e-18)
(1.07561 -5.75485e-16 1.90311e-19)
(1.07561 -6.00382e-16 3.2429e-18)
(1.07739 -5.48451e-16 3.78425e-18)
(1.07739 -5.85491e-16 -6.47718e-18)
(1.07914 -5.19302e-16 5.45323e-18)
(1.07914 -5.66701e-16 8.4847e-18)
(1.08088 -5.23119e-16 6.26653e-18)
(1.08088 -5.41129e-16 2.69448e-17)
(1.0826 -5.31664e-16 1.00421e-17)
(1.0826 -5.23835e-16 1.80929e-17)
(1.08431 -5.22766e-16 5.49868e-18)
(1.08431 -4.9243e-16 4.9201e-18)
(1.08599 -5.35068e-16 9.93933e-18)
(1.08599 -5.01366e-16 4.01039e-18)
(1.08764 -5.55989e-16 4.80248e-18)
(1.08764 -5.24671e-16 -5.22499e-18)
(1.08928 -5.68477e-16 9.43381e-18)
(1.08928 -5.21109e-16 1.00951e-17)
(1.09089 -5.77263e-16 9.85887e-31)
(1.09089 -5.13509e-16 7.48824e-18)
(1.09248 -5.12329e-16 1.83209e-17)
(1.09248 -4.96748e-16 7.98333e-18)
(1.09404 -4.78964e-16 1.82902e-17)
(1.09404 -5.05879e-16 -3.35198e-18)
(1.09558 -5.04676e-16 4.32279e-18)
(1.09558 -5.04343e-16 -5.25625e-18)
(1.09708 -5.08776e-16 5.66423e-18)
(1.09708 -4.94381e-16 9.44731e-18)
(1.09856 -4.90979e-16 2.33396e-17)
(1.09856 -5.20072e-16 -2.52515e-19)
(1.1 -4.79644e-16 6.97517e-18)
(1.1 -4.97288e-16 7.65575e-18)
(1.10141 -4.76625e-16 3.89888e-18)
(1.10141 -4.98948e-16 -4.05499e-19)
(1.10279 -4.8542e-16 -6.27266e-18)
(1.10279 -5.41289e-16 1.69299e-17)
(1.10413 -4.91399e-16 -1.15055e-17)
(1.10413 -4.93986e-16 3.94712e-17)
(1.10543 -5.17555e-16 -2.78926e-18)
(1.10543 -4.86731e-16 4.20946e-17)
(1.1067 -5.67941e-16 -9.44445e-18)
(1.1067 -5.04683e-16 3.27308e-17)
(1.10792 -5.9149e-16 -5.43667e-18)
(1.10792 -5.18236e-16 4.82231e-18)
(1.10909 -5.82416e-16 2.11831e-46)
(1.10909 -5.30053e-16 -1.51633e-17)
(1.11022 -5.85165e-16 2.23408e-17)
(1.11022 -6.13449e-16 -4.04299e-17)
(1.11129 -5.93576e-16 1.14243e-30)
(1.11129 -5.86773e-16 -1.3087e-17)
(1.11232 -5.90163e-16 2.26331e-17)
(1.11232 -5.96852e-16 -1.5209e-17)
(1.11328 -5.70737e-16 2.44066e-17)
(1.11328 -5.49254e-16 -4.70677e-18)
(1.11419 -4.95739e-16 2.39856e-17)
(1.11419 -5.09821e-16 -6.4728e-18)
(1.11504 -4.67449e-16 4.43457e-17)
(1.11504 -4.72483e-16 3.63145e-18)
(1.11582 -5.3392e-16 -1.56012e-30)
(1.11582 -4.80907e-16 -1.37592e-17)
(1.11653 -4.87264e-16 -1.52622e-17)
(1.11653 -4.75224e-16 -2.30878e-17)
(1.11717 -4.17804e-16 6.35975e-17)
(1.11717 -4.38386e-16 -9.96628e-18)
(1.11772 -3.31064e-16 6.12747e-17)
(1.11772 -4.56239e-16 1.26466e-17)
(1.1182 -3.31734e-16 3.78361e-17)
(1.1182 -4.05105e-16 6.58632e-17)
(1.11859 -3.9329e-16 5.81856e-18)
(1.11859 -3.52557e-16 6.94195e-17)
(1.11889 -3.49403e-16 2.65572e-17)
(1.11889 -3.31384e-16 7.48055e-17)
(1.11909 -3.24328e-16 3.53119e-17)
(1.11909 -2.77927e-16 5.62545e-17)
(1.1192 -3.00732e-16 4.41152e-17)
(1.1192 -2.20085e-16 4.26559e-17)
(0.00225102 3.67528e-19 3.5889e-22)
(0.00225102 9.67156e-20 1.9493e-18)
(0.00678513 -3.16507e-19 3.10737e-18)
(0.00678513 -7.57428e-20 7.68769e-18)
(0.0113845 -1.04486e-19 4.18543e-18)
(0.0113845 3.50339e-20 7.91875e-18)
(0.01605 -1.59077e-19 3.94858e-18)
(0.01605 4.86884e-20 8.16134e-18)
(0.0207827 -2.11622e-19 3.82619e-18)
(0.0207827 6.72012e-20 8.41508e-18)
(0.0255834 -2.56406e-19 3.88464e-18)
(0.0255834 8.19647e-20 8.68114e-18)
(0.0304532 -3.05055e-19 3.96313e-18)
(0.0304532 8.79323e-20 8.96017e-18)
(0.035393 -3.62199e-19 4.03449e-18)
(0.035393 1.23521e-19 9.25296e-18)
(0.0404038 -4.09479e-19 4.10674e-18)
(0.0404038 1.44377e-19 9.55963e-18)
(0.0454866 -4.50235e-19 4.18167e-18)
(0.0454866 1.73795e-19 9.88064e-18)
(0.0506424 -4.93473e-19 4.25697e-18)
(0.0506424 2.06406e-19 1.02173e-17)
(0.0558723 -5.31039e-19 4.33178e-18)
(0.0558723 2.20338e-19 1.05696e-17)
(0.0611773 -5.48444e-19 4.40584e-18)
(0.0611773 2.42617e-19 1.09386e-17)
(0.0665583 -5.68537e-19 4.47936e-18)
(0.0665583 2.52351e-19 1.13252e-17)
(0.0720165 -5.80091e-19 4.55162e-18)
(0.0720165 2.76559e-19 1.17304e-17)
(0.0775528 -5.95703e-19 4.62323e-18)
(0.0775528 2.97937e-19 1.21544e-17)
(0.0831683 -6.27478e-19 4.69256e-18)
(0.0831683 3.49987e-19 1.25986e-17)
(0.088864 -6.6305e-19 4.76147e-18)
(0.088864 3.83576e-19 1.3062e-17)
(0.0946408 -6.82305e-19 4.82929e-18)
(0.0946408 4.08614e-19 1.35464e-17)
(0.1005 -6.77566e-19 4.89378e-18)
(0.1005 4.42272e-19 1.40524e-17)
(0.106442 -6.82064e-19 4.95844e-18)
(0.106442 4.33063e-19 1.45803e-17)
(0.112467 -6.78296e-19 5.01799e-18)
(0.112467 4.42654e-19 1.51325e-17)
(0.118578 -6.46952e-19 5.07662e-18)
(0.118578 5.13012e-19 1.57086e-17)
(0.124773 -6.38182e-19 5.13053e-18)
(0.124773 5.62468e-19 1.63084e-17)
(0.131054 -6.36762e-19 5.18399e-18)
(0.131054 6.38509e-19 1.69283e-17)
(0.137422 -6.75677e-19 5.23413e-18)
(0.137422 7.83486e-19 1.75727e-17)
(0.143876 -7.51196e-19 5.27841e-18)
(0.143876 8.46404e-19 1.8243e-17)
(0.150416 -8.12434e-19 5.31981e-18)
(0.150416 9.24611e-19 1.894e-17)
(0.157043 -8.04801e-19 5.35815e-18)
(0.157043 1.0263e-18 1.96635e-17)
(0.163755 -7.51439e-19 5.39278e-18)
(0.163755 1.01732e-18 2.04094e-17)
(0.170552 -6.03709e-19 5.42179e-18)
(0.170552 9.39028e-19 2.11772e-17)
(0.177434 -3.65869e-19 5.44053e-18)
(0.177434 1.0247e-18 2.19725e-17)
(0.184397 -2.20718e-19 5.45246e-18)
(0.184397 1.12207e-18 2.27922e-17)
(0.191441 -9.52142e-20 5.46175e-18)
(0.191441 1.0318e-18 2.36322e-17)
(0.198563 4.0509e-20 5.45967e-18)
(0.198563 1.18587e-18 2.4494e-17)
(0.20576 1.46017e-19 5.44697e-18)
(0.20576 1.32602e-18 2.53754e-17)
(0.213029 2.56573e-19 5.42598e-18)
(0.213029 1.43846e-18 2.62698e-17)
(0.220365 4.08349e-19 5.3946e-18)
(0.220365 1.52183e-18 2.71785e-17)
(0.227765 6.5274e-19 5.35528e-18)
(0.227765 1.46378e-18 2.80925e-17)
(0.235222 8.91728e-19 5.30388e-18)
(0.235222 1.60693e-18 2.90164e-17)
(0.242731 1.16879e-18 5.24629e-18)
(0.242731 1.77512e-18 2.99484e-17)
(0.250286 1.53167e-18 5.17051e-18)
(0.250286 1.63858e-18 3.08917e-17)
(0.257881 1.76958e-18 5.08221e-18)
(0.257881 1.62162e-18 3.18331e-17)
(0.265507 1.97116e-18 4.98432e-18)
(0.265507 2.08792e-18 3.27615e-17)
(0.273157 2.18922e-18 4.87801e-18)
(0.273157 2.21815e-18 3.36863e-17)
(0.280824 2.50353e-18 4.75653e-18)
(0.280824 2.39889e-18 3.45982e-17)
(0.288498 2.75484e-18 4.6312e-18)
(0.288498 2.68254e-18 3.55008e-17)
(0.296172 2.84955e-18 4.49072e-18)
(0.296172 2.71648e-18 3.64084e-17)
(0.303838 3.09369e-18 4.3422e-18)
(0.303838 3.0261e-18 3.72957e-17)
(0.311487 3.32033e-18 4.1783e-18)
(0.311487 3.47912e-18 3.81675e-17)
(0.31911 3.2649e-18 4.00404e-18)
(0.31911 3.8942e-18 3.90218e-17)
(0.3267 3.19993e-18 3.80876e-18)
(0.3267 4.39699e-18 3.98465e-17)
(0.33425 3.50056e-18 3.60995e-18)
(0.33425 4.62287e-18 4.0637e-17)
(0.341752 3.8496e-18 3.40208e-18)
(0.341752 5.05761e-18 4.13991e-17)
(0.349199 3.81652e-18 3.18142e-18)
(0.349199 6.03277e-18 4.21329e-17)
(0.356585 3.90772e-18 2.94725e-18)
(0.356585 6.69679e-18 4.28463e-17)
(0.363906 4.0748e-18 2.70389e-18)
(0.363906 6.96019e-18 4.35221e-17)
(0.371154 4.10107e-18 2.4603e-18)
(0.371154 7.31752e-18 4.418e-17)
(0.378327 4.41062e-18 2.19957e-18)
(0.378327 7.48363e-18 4.48112e-17)
(0.38542 4.71202e-18 1.928e-18)
(0.38542 7.7156e-18 4.54056e-17)
(0.39243 4.96688e-18 1.65358e-18)
(0.39243 8.23558e-18 4.59725e-17)
(0.399355 5.39037e-18 1.37664e-18)
(0.399355 9.00326e-18 4.65214e-17)
(0.406191 5.37182e-18 1.0847e-18)
(0.406191 9.71016e-18 4.70646e-17)
(0.412938 5.15302e-18 7.84761e-19)
(0.412938 1.02308e-17 4.75723e-17)
(0.419593 5.6514e-18 7.38232e-19)
(0.419593 1.05966e-17 4.8064e-17)
(0.426157 6.29871e-18 7.80961e-19)
(0.426157 1.09865e-17 4.85352e-17)
(0.432628 6.67365e-18 8.27666e-19)
(0.432628 1.18465e-17 4.89942e-17)
(0.439007 6.77112e-18 8.65264e-19)
(0.439007 1.24403e-17 4.94727e-17)
(0.445294 6.88934e-18 8.9334e-19)
(0.445294 1.29332e-17 4.99385e-17)
(0.451489 7.42936e-18 9.25052e-19)
(0.451489 1.33611e-17 5.03958e-17)
(0.457593 8.06333e-18 9.49846e-19)
(0.457593 1.3741e-17 5.0859e-17)
(0.463607 8.68834e-18 9.79667e-19)
(0.463607 1.39658e-17 5.13197e-17)
(0.469532 9.209e-18 1.01329e-18)
(0.469532 1.41358e-17 5.17918e-17)
(0.47537 1.03367e-17 1.0635e-18)
(0.47537 1.458e-17 5.22671e-17)
(0.481121 1.12661e-17 1.12147e-18)
(0.481121 1.53432e-17 5.27708e-17)
(0.486787 1.14213e-17 1.14635e-18)
(0.486787 1.5991e-17 5.32501e-17)
(0.49237 1.17169e-17 1.16338e-18)
(0.49237 1.66066e-17 5.37334e-17)
(0.497872 1.191e-17 1.18901e-18)
(0.497872 1.68607e-17 5.42134e-17)
(0.503294 1.21052e-17 1.24067e-18)
(0.503294 1.72813e-17 5.46794e-17)
(0.508637 1.25277e-17 1.29548e-18)
(0.508637 1.80923e-17 5.51774e-17)
(0.513905 1.29162e-17 1.31967e-18)
(0.513905 1.82732e-17 5.57009e-17)
(0.519097 1.30771e-17 1.36933e-18)
(0.519097 1.7563e-17 5.62319e-17)
(0.524217 1.36553e-17 1.40207e-18)
(0.524217 1.75808e-17 5.67902e-17)
(0.529266 1.37063e-17 1.43168e-18)