/*--------------------------------*- C++ -*----------------------------------*\
| =========                 |                                                 |
| \\      /  F ield         | OpenFOAM: The Open Source CFD Toolbox           |
|  \\    /   O peration     | Version:  2012                                  |
|   \\  /    A nd           | Website:  www.openfoam.com                      |
|    \\/     M anipulation  |                                                 |
\*---------------------------------------------------------------------------*/
FoamFile
{
    version     2.0;
    format      ascii;
    class       surfaceScalarField;
    location    "17000";
    object      phi;
}
// * * * * * * * * * * * * * * * * * * * * * * * * * * * * * * * * * * * * * //

dimensions      [0 3 -1 0 0 0 0];
oriented        oriented;


internalField   nonuniform List<scalar> 
5116
(
1.69709e-08
-6.00669e-18
-3.46133e-22
-6.9081e-22
-1.99401e-23
5.18983e-08
-6.00118e-18
-1.95471e-21
-3.91127e-21
-3.30948e-22
8.83442e-08
-5.99555e-18
-1.99985e-21
-7.18147e-21
-3.45517e-22
1.2636e-07
-5.98977e-18
-2.04919e-21
-1.05499e-20
-3.60677e-22
1.65999e-07
-5.98394e-18
-2.09927e-21
-1.39543e-20
-3.76449e-22
2.07316e-07
-5.97796e-18
-2.15032e-21
-1.74328e-20
-3.92856e-22
2.50366e-07
-5.97179e-18
-2.20307e-21
-2.10195e-20
-4.0992e-22
2.95209e-07
-5.96552e-18
-2.2575e-21
-2.46208e-20
-4.27664e-22
3.41904e-07
-5.95908e-18
-2.31347e-21
-2.82492e-20
-4.46112e-22
3.90513e-07
-5.95241e-18
-2.3709e-21
-3.20659e-20
-4.65292e-22
4.41099e-07
-5.94563e-18
-2.4298e-21
-3.59293e-20
-4.85228e-22
4.93728e-07
-5.9386e-18
-2.4902e-21
-4.00239e-20
-5.05947e-22
5.48468e-07
-5.93165e-18
-2.55214e-21
-4.38869e-20
-5.27478e-22
6.05387e-07
-5.92438e-18
-2.61564e-21
-4.7767e-20
-5.49852e-22
6.64556e-07
-5.91702e-18
-2.68075e-21
-5.18391e-20
-5.73098e-22
7.2605e-07
-5.90955e-18
-2.74751e-21
-5.60835e-20
-5.97242e-22
7.89943e-07
-5.90175e-18
-2.81595e-21
-6.0461e-20
-6.2231e-22
8.56313e-07
-5.8937e-18
-2.8861e-21
-6.49189e-20
-6.48333e-22
9.25237e-07
-5.88576e-18
-2.95798e-21
-6.93682e-20
-6.75337e-22
9.96797e-07
-5.87722e-18
-3.03161e-21
-7.4129e-20
-7.0335e-22
1.07107e-06
-5.86868e-18
-3.10701e-21
-7.89021e-20
-7.32391e-22
1.14815e-06
-5.85986e-18
-3.18419e-21
-8.37533e-20
-7.62481e-22
1.22812e-06
-5.85094e-18
-3.26312e-21
-8.88032e-20
-7.93639e-22
1.31105e-06
-5.84194e-18
-3.34378e-21
-9.3537e-20
-8.25876e-22
1.39704e-06
-5.83274e-18
-3.42613e-21
-9.85031e-20
-8.59207e-22
1.48618e-06
-5.82332e-18
-3.5101e-21
-1.03596e-19
-8.93637e-22
1.57855e-06
-5.81384e-18
-3.59559e-21
-1.08565e-19
-9.29166e-22
1.67423e-06
-5.80374e-18
-3.68249e-21
-1.14264e-19
-9.65777e-22
1.77331e-06
-5.79322e-18
-3.77066e-21
-1.19745e-19
-1.00344e-21
1.87587e-06
-5.78283e-18
-3.85993e-21
-1.25417e-19
-1.04212e-21
1.98199e-06
-5.77197e-18
-3.95007e-21
-1.31442e-19
-1.08175e-21
2.09175e-06
-5.76128e-18
-4.04085e-21
-1.36983e-19
-1.12228e-21
2.20521e-06
-5.75027e-18
-4.13196e-21
-1.4273e-19
-1.16364e-21
2.32244e-06
-5.73938e-18
-4.22306e-21
-1.48561e-19
-1.20572e-21
2.4435e-06
-5.72759e-18
-4.31378e-21
-1.546e-19
-1.24841e-21
2.56845e-06
-5.71574e-18
-4.4037e-21
-1.60452e-19
-1.29161e-21
2.69731e-06
-5.70391e-18
-4.4924e-21
-1.6661e-19
-1.33518e-21
2.83014e-06
-5.69182e-18
-4.57935e-21
-1.72339e-19
-1.37896e-21
2.96695e-06
-5.67991e-18
-4.66408e-21
-1.78481e-19
-1.42277e-21
3.10776e-06
-5.6677e-18
-4.74605e-21
-1.84653e-19
-1.46644e-21
3.25258e-06
-5.65537e-18
-4.82474e-21
-1.91048e-19
-1.5098e-21
3.4014e-06
-5.64284e-18
-4.89961e-21
-1.97223e-19
-1.55263e-21
3.55421e-06
-5.62883e-18
-4.97019e-21
-2.04156e-19
-1.59478e-21
3.71098e-06
-5.61547e-18
-5.03608e-21
-2.10868e-19
-1.63599e-21
3.87168e-06
-5.60119e-18
-5.09687e-21
-2.17595e-19
-1.67614e-21
4.03627e-06
-5.58698e-18
-5.15222e-21
-2.24391e-19
-1.71501e-21
4.20471e-06
-5.57415e-18
-5.20186e-21
-2.30135e-19
-1.75243e-21
4.37694e-06
-5.55981e-18
-5.24554e-21
-2.3678e-19
-1.78832e-21
4.5529e-06
-5.54593e-18
-5.28315e-21
-2.44025e-19
-1.82251e-21
4.73255e-06
-5.53354e-18
-5.31457e-21
-2.51192e-19
-1.85489e-21
4.91582e-06
-5.51842e-18
-5.33968e-21
-2.57412e-19
-1.8854e-21
5.10265e-06
-5.50439e-18
-5.35863e-21
-2.64254e-19
-1.9141e-21
5.29299e-06
-5.48983e-18
-5.3715e-21
-2.71448e-19
-1.94091e-21
5.48678e-06
-5.47407e-18
-5.37848e-21
-2.79592e-19
-1.96582e-21
5.68397e-06
-5.45919e-18
-5.37985e-21
-2.87617e-19
-1.98883e-21
5.88453e-06
-5.44469e-18
-5.37584e-21
-2.9448e-19
-2.00996e-21
6.0884e-06
-5.43067e-18
-5.36671e-21
-3.00752e-19
-2.02924e-21
6.29557e-06
-5.41666e-18
-5.35273e-21
-3.07547e-19
-2.04684e-21
6.506e-06
-5.40162e-18
-5.33427e-21
-3.14105e-19
-2.06279e-21
6.71968e-06
-5.38711e-18
-5.31167e-21
-3.2136e-19
-2.07712e-21
6.9366e-06
-5.373e-18
-5.28519e-21
-3.28299e-19
-2.08991e-21
7.15674e-06
-5.35875e-18
-5.25511e-21
-3.35485e-19
-2.10123e-21
7.38012e-06
-5.34454e-18
-5.22175e-21
-3.42126e-19
-2.11126e-21
7.60674e-06
-5.33063e-18
-5.18533e-21
-3.49689e-19
-2.12003e-21
7.83662e-06
-5.31762e-18
-5.14605e-21
-3.56073e-19
-2.12755e-21
8.06977e-06
-5.30635e-18
-5.10417e-21
-3.60353e-19
-2.13409e-21
8.30623e-06
-5.29312e-18
-5.05974e-21
-3.65536e-19
-2.13982e-21
8.54603e-06
-5.2803e-18
-5.01294e-21
-3.72368e-19
-2.14484e-21
8.78921e-06
-5.26721e-18
-4.96397e-21
-3.78644e-19
-2.14886e-21
9.0358e-06
-5.2539e-18
-4.91313e-21
-3.8445e-19
-2.15186e-21
9.28586e-06
-5.24162e-18
-4.86054e-21
-3.91222e-19
-2.15403e-21
9.53943e-06
-5.22918e-18
-4.80642e-21
-3.97343e-19
-2.15521e-21
9.79658e-06
-5.21782e-18
-4.75105e-21
-4.01574e-19
-2.1555e-21
1.00574e-05
-5.20429e-18
-4.69435e-21
-4.0771e-19
-2.15495e-21
1.03218e-05
-5.19119e-18
-4.63653e-21
-4.13573e-19
-2.1535e-21
1.059e-05
-5.17718e-18
-4.57778e-21
-4.18747e-19
-2.15119e-21
1.08621e-05
-5.16829e-18
-4.51822e-21
-4.2572e-19
-2.14817e-21
1.1138e-05
-5.15894e-18
-4.45762e-21
-4.30811e-19
-2.14418e-21
1.14179e-05
-5.15113e-18
-4.39597e-21
-4.37242e-19
-2.1393e-21
1.17019e-05
-5.13481e-18
-4.3331e-21
-4.47592e-19
-2.1335e-21
1.19899e-05
-5.12743e-18
-4.26985e-21
-4.46115e-19
-2.12627e-21
1.22822e-05
-5.11849e-18
-4.20536e-21
-4.49822e-19
-2.11889e-21
1.25787e-05
-5.11156e-18
-4.13986e-21
-4.48861e-19
-2.11072e-21
1.28796e-05
-5.10295e-18
-4.07323e-21
-4.51922e-19
-2.10188e-21
1.31849e-05
-5.095e-18
-4.00538e-21
-4.54789e-19
-2.09201e-21
1.34948e-05
-5.08728e-18
-3.93607e-21
-4.57613e-19
-2.08119e-21
1.38093e-05
-5.07836e-18
-3.86543e-21
-4.60278e-19
-2.06966e-21
1.41285e-05
-5.07212e-18
-3.79375e-21
-4.63408e-19
-2.057e-21
1.44525e-05
-5.06393e-18
-3.72009e-21
-4.67209e-19
-2.04362e-21
1.47814e-05
-5.05642e-18
-3.64465e-21
-4.70141e-19
-2.0291e-21
1.51152e-05
-5.04896e-18
-3.56767e-21
-4.72792e-19
-2.01358e-21
1.54542e-05
-5.04233e-18
-3.48911e-21
-4.75956e-19
-1.99706e-21
1.57983e-05
-5.03463e-18
-3.409e-21
-4.80375e-19
-1.97883e-21
1.61478e-05
-5.02872e-18
-3.32803e-21
-4.8472e-19
-1.95829e-21
1.65026e-05
-5.0227e-18
-3.24622e-21
-4.86056e-19
-1.93562e-21
1.68628e-05
-5.01378e-18
-3.16342e-21
-4.91604e-19
-1.91147e-21
1.72287e-05
-5.00356e-18
-3.08046e-21
-4.95184e-19
-1.8849e-21
1.76002e-05
-4.99308e-18
-2.99758e-21
-4.99199e-19
-1.85597e-21
1.79776e-05
-4.9886e-18
-2.91587e-21
-4.99187e-19
-1.8244e-21
1.83608e-05
-4.98375e-18
-2.83326e-21
-5.0422e-19
-1.79157e-21
1.87501e-05
-4.974e-18
-2.75034e-21
-5.05864e-19
-1.75592e-21
1.91454e-05
-4.96454e-18
-2.66759e-21
-5.09047e-19
-1.71787e-21
1.95471e-05
-4.95771e-18
-2.58542e-21
-5.1326e-19
-1.67778e-21
1.9955e-05
-4.95174e-18
-2.50378e-21
-5.19356e-19
-1.63456e-21
2.03694e-05
-4.94604e-18
-2.42216e-21
-5.23265e-19
-1.58877e-21
2.07905e-05
-4.93898e-18
-2.34035e-21
-5.28679e-19
-1.54083e-21
2.12182e-05
-4.92964e-18
-2.25858e-21
-5.37752e-19
-1.49002e-21
2.16527e-05
-4.9248e-18
-2.17682e-21
-5.41164e-19
-1.43702e-21
2.20942e-05
-4.91433e-18
-2.09437e-21
-5.46141e-19
-1.38142e-21
2.25427e-05
-4.90959e-18
-2.01389e-21
-5.43914e-19
-1.32238e-21
2.29985e-05
-4.90433e-18
-1.93255e-21
-5.49537e-19
-1.26213e-21
2.34615e-05
-4.89453e-18
-1.85102e-21
-5.50664e-19
-1.19875e-21
2.39321e-05
-4.88868e-18
-1.77011e-21
-5.55716e-19
-1.13378e-21
2.44102e-05
-4.88843e-18
-1.68909e-21
-5.53163e-19
-1.06758e-21
2.4896e-05
-4.88817e-18
-1.60671e-21
-5.51993e-19
-1.0009e-21
2.53897e-05
-4.88428e-18
-1.52241e-21
-5.47679e-19
-9.34826e-22
2.58913e-05
-4.88295e-18
-1.43504e-21
-5.47003e-19
-8.6863e-22
2.64011e-05
-4.87216e-18
-1.3476e-21
-5.40872e-19
-7.99666e-22
2.69192e-05
-4.8715e-18
-1.26132e-21
-5.40985e-19
-7.30636e-22
2.74457e-05
-4.86698e-18
-1.17324e-21
-5.34294e-19
-6.60408e-22
2.79808e-05
-4.86187e-18
-1.08498e-21
-5.37091e-19
-5.91982e-22
2.85245e-05
-4.85985e-18
-9.96995e-22
-5.35105e-19
-5.18998e-22
2.90772e-05
-4.85828e-18
-9.0838e-22
-5.34032e-19
-4.42921e-22
2.96388e-05
-4.85257e-18
-8.19494e-22
-5.30259e-19
-3.64488e-22
3.02097e-05
-4.84911e-18
-7.32572e-22
-5.34982e-19
-2.82912e-22
3.07898e-05
-4.85294e-18
-6.47369e-22
-5.3361e-19
-1.95843e-22
3.13795e-05
-4.85963e-18
-5.61034e-22
-5.23258e-19
-1.03698e-22
3.19788e-05
-4.87037e-18
-4.71373e-22
-5.11096e-19
-1.32526e-23
3.25879e-05
-4.87617e-18
-3.80061e-22
-5.06911e-19
7.97863e-23
3.3207e-05
-4.87977e-18
-2.89659e-22
-5.02091e-19
1.76934e-22
3.38362e-05
-4.8805e-18
-1.98442e-22
-5.07383e-19
2.76234e-22
3.44758e-05
-4.88455e-18
-1.07952e-22
-5.04913e-19
3.79003e-22
3.51259e-05
-4.88875e-18
-1.40292e-23
-5.08142e-19
4.83615e-22
3.57866e-05
-4.88623e-18
8.42873e-23
-5.0723e-19
5.89853e-22
3.64583e-05
-4.88492e-18
1.82893e-22
-5.06892e-19
6.95556e-22
3.7141e-05
-4.88359e-18
2.84487e-22
-5.11388e-19
8.02527e-22
3.78349e-05
-4.8865e-18
3.89191e-22
-5.17259e-19
9.07874e-22
3.85402e-05
-4.89065e-18
5.02187e-22
-5.1693e-19
1.01313e-21
3.92571e-05
-4.90105e-18
6.2344e-22
-5.19989e-19
1.11815e-21
3.99859e-05
-4.89029e-18
7.55113e-22
-5.1793e-19
1.22406e-21
4.07267e-05
-4.8917e-18
8.86673e-22
-5.2473e-19
1.33306e-21
4.14797e-05
-4.88452e-18
1.02764e-21
-5.28907e-19
1.44762e-21
4.22451e-05
-4.88576e-18
1.1633e-21
-5.41064e-19
1.56361e-21
4.30231e-05
-4.8813e-18
1.29557e-21
-5.44929e-19
1.69056e-21
4.38139e-05
-4.87761e-18
1.42111e-21
-5.55677e-19
1.826e-21
4.46178e-05
-4.86877e-18
1.53777e-21
-5.68153e-19
1.97134e-21
4.5435e-05
-4.85723e-18
1.64615e-21
-5.81282e-19
2.1227e-21
4.62657e-05
-4.85036e-18
1.74187e-21
-5.92872e-19
2.28529e-21
4.71101e-05
-4.8595e-18
1.83181e-21
-5.94752e-19
2.46002e-21
4.79684e-05
-4.85822e-18
1.9216e-21
-5.97112e-19
2.63788e-21
4.88409e-05
-4.86278e-18
2.00673e-21
-6.02885e-19
2.81394e-21
4.97279e-05
-4.86729e-18
2.09243e-21
-6.03308e-19
2.99783e-21
5.06295e-05
-4.86839e-18
2.17901e-21
-6.13227e-19
3.18155e-21
5.15459e-05
-4.86077e-18
2.26967e-21
-6.14268e-19
3.36701e-21
5.24776e-05
-4.86448e-18
2.36216e-21
-6.17874e-19
3.54713e-21
5.34246e-05
-4.85792e-18
2.46049e-21
-6.29719e-19
3.71704e-21
5.43873e-05
-4.86385e-18
2.55116e-21
-6.30873e-19
3.87945e-21
5.53658e-05
-4.85904e-18
2.66189e-21
-6.38448e-19
4.02957e-21
5.63606e-05
-4.84373e-18
2.76932e-21
-6.41815e-19
4.17177e-21
5.73718e-05
-4.83878e-18
2.8692e-21
-6.48362e-19
4.2976e-21
5.83997e-05
-4.82149e-18
2.97346e-21
-6.58605e-19
4.41427e-21
5.94446e-05
-4.81875e-18
3.0724e-21
-6.71681e-19
4.53465e-21
6.05068e-05
-4.82639e-18
3.15819e-21
-6.85666e-19
4.65669e-21
6.15866e-05
-4.81123e-18
3.24784e-21
-6.97085e-19
4.77435e-21
6.26842e-05
-4.79734e-18
3.30869e-21
-7.11606e-19
4.8841e-21
6.37999e-05
-4.78225e-18
3.34881e-21
-7.29476e-19
5.00268e-21
6.49341e-05
-4.76465e-18
3.36625e-21
-7.35482e-19
5.12423e-21
6.6087e-05
-4.74986e-18
3.35041e-21
-7.54776e-19
5.25212e-21
6.72589e-05
-4.73164e-18
3.30245e-21
-7.72739e-19
5.40178e-21
6.84503e-05
-4.72293e-18
3.2132e-21
-7.93596e-19
5.56221e-21
6.96613e-05
-4.71235e-18
3.09848e-21
-8.21288e-19
5.75961e-21
7.08923e-05
-4.71918e-18
2.94115e-21
-8.3497e-19
6.0139e-21
7.21437e-05
-4.74222e-18
2.77067e-21
-8.24793e-19
6.29865e-21
7.34158e-05
-4.7613e-18
2.62166e-21
-8.26177e-19
6.56925e-21
7.47088e-05
-4.76533e-18
2.51051e-21
-8.16286e-19
6.81876e-21
7.60232e-05
-4.75748e-18
2.36506e-21
-8.3981e-19
7.08731e-21
7.73593e-05
-4.7742e-18
2.2104e-21
-8.54715e-19
7.37974e-21
7.87175e-05
-4.77616e-18
2.08772e-21
-8.60832e-19
7.68087e-21
8.00981e-05
-4.78318e-18
1.96765e-21
-8.63297e-19
7.98327e-21
8.15015e-05
-4.78878e-18
1.86311e-21
-8.77862e-19
8.28067e-21
8.29281e-05
-4.77688e-18
1.78038e-21
-8.88227e-19
8.54339e-21
8.43781e-05
-4.77131e-18
1.71821e-21
-9.04279e-19
8.76977e-21
8.58522e-05
-4.76849e-18
1.61444e-21
-9.24564e-19
8.9861e-21
8.73505e-05
-4.75859e-18
1.46199e-21
-9.29872e-19
9.23321e-21
8.88735e-05
-4.74578e-18
1.3011e-21
-9.34939e-19
9.44421e-21
9.04217e-05
-4.73235e-18
1.09164e-21
-9.57488e-19
9.58676e-21
9.19954e-05
-4.71424e-18
8.54599e-22
-9.75932e-19
9.75154e-21
9.3595e-05
-4.69801e-18
6.00807e-22
-1.00198e-18
9.90225e-21
9.5221e-05
-4.6792e-18
3.76005e-22
-1.02368e-18
1.00551e-20
9.68738e-05
-4.6775e-18
1.49056e-22
-1.04461e-18
1.01775e-20
9.85538e-05
-4.66543e-18
-2.99593e-23
-1.06087e-18
1.02934e-20
0.000100262
-4.64329e-18
-1.86454e-22
-1.07809e-18
1.03697e-20
0.000101997
-4.62154e-18
-3.28403e-22
-1.11042e-18
1.03755e-20
0.000103762
-4.59568e-18
-4.46458e-22
-1.13558e-18
1.03618e-20
0.000105555
-4.57681e-18
-5.79181e-22
-1.14305e-18
1.03061e-20
0.000107378
-4.54568e-18
-7.41215e-22
-1.17324e-18
1.01703e-20
0.000109231
-4.51645e-18
-9.227e-22
-1.21651e-18
9.96992e-21
0.000111114
-4.49127e-18
-1.05533e-21
-1.26348e-18
9.77921e-21
0.000113029
-4.45127e-18
-1.20725e-21
-1.30413e-18
9.56397e-21
0.000114975
-4.42681e-18
-1.4372e-21
-1.34245e-18
9.27505e-21
0.000116953
-4.37489e-18
-1.61361e-21
-1.38759e-18
8.967e-21
0.000118963
-4.36203e-18
-1.85572e-21
-1.40582e-18
8.59895e-21
0.000121006
-4.33613e-18
-2.03395e-21
-1.42899e-18
8.11722e-21
0.000123083
-4.29708e-18
-2.2371e-21
-1.47534e-18
7.64787e-21
0.000125194
-4.27075e-18
-2.56515e-21
-1.4851e-18
7.33262e-21
0.00012734
-4.26591e-18
-2.86173e-21
-1.53421e-18
6.97324e-21
0.000129521
-4.23368e-18
-3.12481e-21
-1.5656e-18
6.64235e-21
0.000131737
-4.18719e-18
-3.41472e-21
-1.59146e-18
6.31403e-21
0.00013399
-4.16989e-18
-3.76262e-21
-1.62958e-18
5.95933e-21
0.00013628
-4.13077e-18
-3.95713e-21
-1.6629e-18
5.5079e-21
0.000138608
-4.10477e-18
-4.20805e-21
-1.68649e-18
5.13267e-21
0.000140973
-4.07164e-18
-4.50081e-21
-1.69911e-18
4.65698e-21
0.000143377
-4.06196e-18
-4.78769e-21
-1.75152e-18
4.20246e-21
0.000145821
-4.02989e-18
-5.175e-21
-1.73814e-18
3.92721e-21
0.000148305
-3.94833e-18
-5.57642e-21
-1.77421e-18
3.56202e-21
0.000150829
-3.91414e-18
-6.02984e-21
-1.80689e-18
3.24364e-21
0.000153394
-3.89686e-18
-6.50921e-21
-1.83316e-18
3.06863e-21
0.000156002
-3.86885e-18
-6.90315e-21
-1.85525e-18
2.72894e-21
0.000158652
-3.83408e-18
-7.26857e-21
-1.90809e-18
2.36779e-21
0.000161345
-3.77446e-18
-7.4915e-21
-1.92342e-18
2.2596e-21
0.000164082
-3.75886e-18
-7.78337e-21
-1.95726e-18
2.06288e-21
0.000166864
-3.71695e-18
-7.95244e-21
-1.98625e-18
1.88982e-21
0.000169692
-3.68314e-18
-8.18226e-21
-2.01669e-18
1.64459e-21
0.000172565
-3.62926e-18
-8.39492e-21
-2.03492e-18
1.26156e-21
0.000175485
-3.59731e-18
-8.83784e-21
-2.02099e-18
7.96246e-22
0.000178453
-3.55068e-18
-9.14422e-21
-2.04454e-18
4.09459e-23
0.000181469
-3.53319e-18
-9.45431e-21
-2.07168e-18
-3.60478e-22
0.000184534
-3.47743e-18
-9.8982e-21
-2.06707e-18
-5.71636e-22
0.000187649
-3.46592e-18
-1.04627e-20
-2.07444e-18
-9.35662e-22
0.000190815
-3.42914e-18
-1.08796e-20
-2.06597e-18
-1.3156e-21
0.000194032
-3.40376e-18
-1.12101e-20
-2.12211e-18
-1.96014e-21
0.000197302
-3.36288e-18
-1.14814e-20
-2.15232e-18
-2.25966e-21
0.000200624
-3.32858e-18
-1.15988e-20
-2.15807e-18
-2.46255e-21
0.000204
-3.29627e-18
-1.16621e-20
-2.16014e-18
-2.94319e-21
0.000207431
-3.25586e-18
-1.1857e-20
-2.15306e-18
-3.36781e-21
0.000210918
-3.22339e-18
-1.22553e-20
-2.12736e-18
-3.73987e-21
0.000214461
-3.1886e-18
-1.26745e-20
-2.11726e-18
-4.14169e-21
0.000218061
-3.16043e-18
-1.31439e-20
-2.1273e-18
-4.90091e-21
0.00022172
-3.13746e-18
-1.3802e-20
-2.12711e-18
-5.82464e-21
0.000225437
-3.09978e-18
-1.44456e-20
-2.14452e-18
-6.71989e-21
0.000229215
-3.03824e-18
-1.50089e-20
-2.17039e-18
-7.57823e-21
0.000233054
-3.03221e-18
-1.57752e-20
-2.1771e-18
-8.39054e-21
0.000236954
-2.99455e-18
-1.64795e-20
-2.19392e-18
-9.26467e-21
0.000240918
-2.98875e-18
-1.75046e-20
-2.1711e-18
-1.01478e-20
0.000244945
-2.96176e-18
-1.90315e-20
-2.25866e-18
-1.13139e-20
0.000249037
-2.91454e-18
-2.08455e-20
-2.28293e-18
-1.18088e-20
0.000253195
-2.86432e-18
-2.23696e-20
-2.30604e-18
-1.27128e-20
0.000257419
-2.73371e-18
-2.3561e-20
-2.30354e-18
-1.41821e-20
0.000261711
-2.74916e-18
-2.52845e-20
-2.26646e-18
-1.50738e-20
0.000266072
-2.71202e-18
-2.5713e-20
-2.21068e-18
-1.57547e-20
0.000270503
-2.67143e-18
-2.51624e-20
-2.18576e-18
-1.64113e-20
0.000275005
-2.61776e-18
-2.47152e-20
-2.19626e-18
-1.71477e-20
0.000279579
-2.56396e-18
-2.37511e-20
-2.21536e-18
-1.74245e-20
0.000284226
-2.51469e-18
-2.30498e-20
-2.18058e-18
-1.66941e-20
0.000288947
-2.46557e-18
-2.35273e-20
-2.11208e-18
-1.60984e-20
0.000293743
-2.41663e-18
-2.37574e-20
-2.13087e-18
-1.56798e-20
0.000298616
-2.48436e-18
-2.44052e-20
-2.03079e-18
-1.54276e-20
0.000303566
-2.45732e-18
-2.38043e-20
-2.11294e-18
-1.71507e-20
0.000308594
-2.43213e-18
-2.22231e-20
-2.10415e-18
-1.76285e-20
0.000313703
-2.38737e-18
-2.08342e-20
-2.11602e-18
-1.89915e-20
0.000318892
-2.3592e-18
-2.06113e-20
-2.15336e-18
-1.954e-20
0.000324163
-2.38118e-18
-1.96728e-20
-2.13512e-18
-1.88101e-20
0.000329518
-2.41634e-18
-1.94094e-20
-2.1785e-18
-1.7456e-20
0.000334957
-2.3978e-18
-1.83774e-20
-2.0855e-18
-1.62446e-20
0.000340482
-2.37525e-18
-1.7408e-20
-2.10343e-18
-1.70071e-20
0.000346093
-2.25815e-18
-1.62231e-20
-2.13871e-18
-1.78155e-20
0.000351793
-2.25526e-18
-1.70568e-20
-2.13506e-18
-1.80841e-20
0.000357582
-2.25143e-18
-1.70067e-20
-2.09447e-18
-1.84602e-20
0.000363462
-2.16037e-18
-1.69104e-20
-2.12223e-18
-1.87757e-20
0.000369433
-2.13757e-18
-1.80346e-20
-2.0826e-18
-1.86228e-20
0.000375497
-1.99397e-18
-1.97066e-20
-2.18584e-18
-2.00026e-20
0.000381656
-2.03828e-18
-2.42227e-20
-2.14117e-18
-1.96863e-20
0.000387911
-2.11379e-18
-2.60335e-20
-2.13362e-18
-2.09253e-20
0.000394262
-2.08966e-18
-2.63076e-20
-2.10748e-18
-2.22061e-20
0.000400711
-2.06628e-18
-2.7721e-20
-2.07845e-18
-2.20192e-20
0.00040726
-2.07284e-18
-2.87321e-20
-2.04776e-18
-2.2186e-20
0.00041391
-2.03985e-18
-2.83366e-20
-2.02065e-18
-2.27079e-20
0.000420661
-2.03243e-18
-2.86384e-20
-1.96534e-18
-2.38261e-20
0.000427516
-2.02147e-18
-2.8702e-20
-1.93494e-18
-2.51375e-20
0.000434476
-2.10058e-18
-2.82985e-20
-1.849e-18
-2.55009e-20
0.000441541
-1.94848e-18
-2.61374e-20
-1.79565e-18
-2.59202e-20
0.000448713
-1.85432e-18
-2.57447e-20
-1.87028e-18
-2.82426e-20
0.000455994
-1.73535e-18
-2.82115e-20
-1.92839e-18
-2.98065e-20
0.000463385
-1.68642e-18
-3.11095e-20
-1.90031e-18
-2.92834e-20
0.000470886
-1.64245e-18
-3.32008e-20
-1.87322e-18
-2.67276e-20
0.0004785
-1.69688e-18
-3.39717e-20
-1.70543e-18
-2.50815e-20
0.000486227
-1.73401e-18
-3.27947e-20
-1.71188e-18
-3.08587e-20
0.000494068
-1.72521e-18
-3.27408e-20
-1.7216e-18
-3.36762e-20
0.000502025
-1.6703e-18
-3.29752e-20
-1.77399e-18
-3.19495e-20
0.000510099
-1.76256e-18
-3.59835e-20
-1.7035e-18
-2.99625e-20
0.000518291
-1.81186e-18
-3.70864e-20
-1.64921e-18
-3.1136e-20
0.000526602
-1.8189e-18
-3.61709e-20
-1.66369e-18
-3.30278e-20
0.000535033
-1.64458e-18
-3.06613e-20
-1.74128e-18
-3.48118e-20
0.000543584
-1.66861e-18
-3.37449e-20
-1.78398e-18
-3.46102e-20
0.000552258
-1.71575e-18
-3.57039e-20
-1.72579e-18
-2.75089e-20
0.000561055
-1.63553e-18
-3.2786e-20
-1.7579e-18
-2.79112e-20
0.000569976
-1.50144e-18
-3.14904e-20
-1.79745e-18
-3.21881e-20
0.00057902
-1.64956e-18
-3.57221e-20
-1.63078e-18
-3.04713e-20
0.00058819
-1.59959e-18
-3.05311e-20
-1.56575e-18
-3.29124e-20
0.000597485
-1.69577e-18
-3.73468e-20
-1.58127e-18
-3.88224e-20
0.000606907
-1.6607e-18
-4.1753e-20
-1.61006e-18
-4.42717e-20
0.000616454
-1.71837e-18
-4.3833e-20
-1.66391e-18
-4.44209e-20
0.000626129
-1.69321e-18
-4.59966e-20
-1.76914e-18
-4.74955e-20
0.00063593
-1.65258e-18
-4.95293e-20
-1.67595e-18
-4.84515e-20
0.000645857
-1.81727e-18
-6.23279e-20
-1.62964e-18
-5.04491e-20
0.000655911
-1.71616e-18
-5.9907e-20
-1.67449e-18
-5.07695e-20
0.000666091
-1.75421e-18
-5.70851e-20
-1.65176e-18
-4.52086e-20
0.000676396
-1.55411e-18
-5.12398e-20
-1.66034e-18
-3.73713e-20
0.000686825
-1.54458e-18
-5.29098e-20
-1.43689e-18
-2.38583e-20
0.000697378
-1.46708e-18
-4.30864e-20
-1.45869e-18
-2.24087e-20
0.000708053
-1.31139e-18
-4.0813e-20
-1.41932e-18
-1.40186e-20
0.000718849
-1.56749e-18
-5.17097e-20
-1.25473e-18
-8.40007e-21
0.000729764
-1.44755e-18
-2.41648e-20
-1.26998e-18
-1.02597e-20
0.000740795
-1.11974e-18
-1.46822e-20
-1.23941e-18
-4.04386e-21
0.000751941
-1.168e-18
-1.84899e-20
-1.12268e-18
3.55763e-21
0.000763199
-1.07012e-18
-1.80396e-20
-1.08091e-18
-7.4783e-22
0.000774565
-1.07718e-18
-2.04737e-20
-1.0205e-18
-6.96843e-21
0.000786038
-1.00247e-18
-1.46645e-20
-1.03898e-18
-1.85761e-20
0.000797612
-1.00398e-18
-1.28633e-20
-9.71377e-19
-3.105e-20
0.000809286
-7.27202e-21
-9.36731e-19
-2.6073e-20
-8.8521e-19
1.69709e-08
-2.81207e-22
-8.0683e-23
5.18983e-08
-1.93686e-21
-7.14795e-22
8.83442e-08
-3.62557e-21
-1.36904e-21
1.2636e-07
-5.31972e-21
-2.06051e-21
1.65999e-07
-7.04411e-21
-2.81788e-21
2.07316e-07
-8.80236e-21
-3.61173e-21
2.50366e-07
-1.05885e-20
-4.38306e-21
2.95209e-07
-1.24555e-20
-5.16435e-21
3.41904e-07
-1.43506e-20
-6.03821e-21
3.90513e-07
-1.626e-20
-6.95307e-21
4.41099e-07
-1.82601e-20
-7.82968e-21
4.93728e-07
-2.01253e-20
-9.02444e-21
5.48468e-07
-2.2193e-20
-1.01153e-20
6.05387e-07
-2.42539e-20
-1.13197e-20
6.64556e-07
-2.65318e-20
-1.23727e-20
7.2605e-07
-2.86828e-20
-1.34893e-20
7.89943e-07
-3.10263e-20
-1.47063e-20
8.56313e-07
-3.32512e-20
-1.59722e-20
9.25237e-07
-3.53042e-20
-1.72053e-20
9.96797e-07
-3.79214e-20
-1.83505e-20
1.07107e-06
-4.02723e-20
-1.94968e-20
1.14815e-06
-4.29497e-20
-2.08074e-20
1.22812e-06
-4.53048e-20
-2.2113e-20
1.31105e-06
-4.8292e-20
-2.32338e-20
1.39704e-06
-5.13785e-20
-2.44869e-20
1.48618e-06
-5.42748e-20
-2.59484e-20
1.57855e-06
-5.73563e-20
-2.74878e-20
1.67423e-06
-5.99153e-20
-2.95708e-20
1.77331e-06
-6.27762e-20
-3.1426e-20
1.87587e-06
-6.5496e-20
-3.3475e-20
1.98199e-06
-6.87542e-20
-3.51194e-20
2.09175e-06
-7.21576e-20
-3.7324e-20
2.20521e-06
-7.54836e-20
-3.93242e-20
2.32244e-06
-7.8419e-20
-4.167e-20
2.4435e-06
-8.19312e-20
-4.40358e-20
2.56845e-06
-8.5609e-20
-4.63793e-20
2.69731e-06
-8.90744e-20
-4.85617e-20
2.83014e-06
-9.30666e-20
-5.10405e-20
2.96695e-06
-9.69731e-20
-5.31644e-20
3.10776e-06
-1.00511e-19
-5.54633e-20
3.25258e-06
-1.03718e-19
-5.82588e-20
3.4014e-06
-1.07397e-19
-6.20177e-20
3.55421e-06
-1.11449e-19
-6.39729e-20
3.71098e-06
-1.16121e-19
-6.69439e-20
3.87168e-06
-1.198e-19
-6.90576e-20
4.03627e-06
-1.24336e-19
-7.09593e-20
4.20471e-06
-1.29559e-19
-7.35895e-20
4.37694e-06
-1.34362e-19
-7.55081e-20
4.5529e-06
-1.3906e-19
-7.71891e-20
4.73255e-06
-1.42893e-19
-7.90722e-20
4.91582e-06
-1.46749e-19
-8.28897e-20
5.10265e-06
-1.50967e-19
-8.60475e-20
5.29299e-06
-1.54679e-19
-8.89741e-20
5.48678e-06
-1.58637e-19
-9.20212e-20
5.68397e-06
-1.62855e-19
-9.45611e-20
5.88453e-06
-1.66467e-19
-9.64177e-20
6.0884e-06
-1.69973e-19
-9.99879e-20
6.29557e-06
-1.74453e-19
-1.03437e-19
6.506e-06
-1.78354e-19
-1.06491e-19
6.71968e-06
-1.8236e-19
-1.10054e-19
6.9366e-06
-1.86048e-19
-1.12649e-19
7.15674e-06
-1.90131e-19
-1.1642e-19
7.38012e-06
-1.93939e-19
-1.1905e-19
7.60674e-06
-1.9793e-19
-1.22123e-19
7.83662e-06
-2.04393e-19
-1.26207e-19
8.06977e-06
-2.10245e-19
-1.29144e-19
8.30623e-06
-2.13595e-19
-1.3355e-19
8.54603e-06
-2.16485e-19
-1.36207e-19
8.78921e-06
-2.20006e-19
-1.39602e-19
9.0358e-06
-2.21692e-19
-1.45576e-19
9.28586e-06
-2.2459e-19
-1.49001e-19
9.53943e-06
-2.28986e-19
-1.53547e-19
9.79658e-06
-2.32056e-19
-1.57286e-19
1.00574e-05
-2.33829e-19
-1.6125e-19
1.03218e-05
-2.37187e-19
-1.64577e-19
1.059e-05
-2.40197e-19
-1.68053e-19
1.08621e-05
-2.45376e-19
-1.696e-19
1.1138e-05
-2.49169e-19
-1.71484e-19
1.14179e-05
-2.5077e-19
-1.75603e-19
1.17019e-05
-2.52621e-19
-1.7914e-19
1.19899e-05
-2.5394e-19
-1.85634e-19
1.22822e-05
-2.57046e-19
-1.90066e-19
1.25787e-05
-2.60026e-19
-1.93462e-19
1.28796e-05
-2.61739e-19
-1.96551e-19
1.31849e-05
-2.6299e-19
-1.99348e-19
1.34948e-05
-2.65846e-19
-2.03695e-19
1.38093e-05
-2.71593e-19
-2.03674e-19
1.41285e-05
-2.72933e-19
-2.08343e-19
1.44525e-05
-2.74359e-19
-2.11416e-19
1.47814e-05
-2.77727e-19
-2.15034e-19
1.51152e-05
-2.79259e-19
-2.1885e-19
1.54542e-05
-2.78898e-19
-2.22354e-19
1.57983e-05
-2.81152e-19
-2.24115e-19
1.61478e-05
-2.83372e-19
-2.26006e-19
1.65026e-05
-2.82348e-19
-2.30329e-19
1.68628e-05
-2.84677e-19
-2.34094e-19
1.72287e-05
-2.86408e-19
-2.37481e-19
1.76002e-05
-2.94473e-19
-2.36455e-19
1.79776e-05
-2.92597e-19
-2.36959e-19
1.83608e-05
-2.94159e-19
-2.34597e-19
1.87501e-05
-2.94849e-19
-2.35063e-19
1.91454e-05
-2.97173e-19
-2.38958e-19
1.95471e-05
-3.01399e-19
-2.39028e-19
1.9955e-05
-3.03029e-19
-2.41857e-19
2.03694e-05
-3.02815e-19
-2.43056e-19
2.07905e-05
-3.04339e-19
-2.42153e-19
2.12182e-05
-3.04548e-19
-2.44984e-19
2.16527e-05
-3.03148e-19
-2.42446e-19
2.20942e-05
-3.0978e-19
-2.40303e-19
2.25427e-05
-3.10079e-19
-2.41669e-19
2.29985e-05
-3.14504e-19
-2.42057e-19
2.34615e-05
-3.16076e-19
-2.43719e-19
2.39321e-05
-3.16481e-19
-2.49177e-19
2.44102e-05
-3.16947e-19
-2.51789e-19
2.4896e-05
-3.16976e-19
-2.58704e-19
2.53897e-05
-3.09341e-19
-2.57618e-19
2.58913e-05
-3.15208e-19
-2.50153e-19
2.64011e-05
-3.16309e-19
-2.50442e-19
2.69192e-05
-3.15603e-19
-2.50984e-19
2.74457e-05
-3.14865e-19
-2.54955e-19
2.79808e-05
-3.13605e-19
-2.49009e-19
2.85245e-05
-3.11669e-19
-2.44816e-19
2.90772e-05
-3.10834e-19
-2.42673e-19
2.96388e-05
-3.12334e-19
-2.39264e-19
3.02097e-05
-3.12713e-19
-2.39182e-19
3.07898e-05
-3.11539e-19
-2.32162e-19
3.13795e-05
-3.08493e-19
-2.36124e-19
3.19788e-05
-3.12237e-19
-2.27533e-19
3.25879e-05
-3.16878e-19
-2.2694e-19
3.3207e-05
-3.14766e-19
-2.29881e-19
3.38362e-05
-3.14884e-19
-2.34673e-19
3.44758e-05
-3.11301e-19
-2.32221e-19
3.51259e-05
-3.10044e-19
-2.32131e-19
3.57866e-05
-3.1493e-19
-2.33431e-19
3.64583e-05
-3.15914e-19
-2.27691e-19
3.7141e-05
-3.17257e-19
-2.29482e-19
3.78349e-05
-3.12218e-19
-2.31388e-19
3.85402e-05
-3.13003e-19
-2.29839e-19
3.92571e-05
-3.15959e-19
-2.26745e-19
3.99859e-05
-3.16922e-19
-2.17685e-19
4.07267e-05
-3.06006e-19
-2.19776e-19
4.14797e-05
-3.07671e-19
-2.25982e-19
4.22451e-05
-3.05597e-19
-2.24032e-19
4.30231e-05
-3.03054e-19
-2.26139e-19
4.38139e-05
-3.05698e-19
-2.25055e-19
4.46178e-05
-3.04592e-19
-2.2582e-19
4.5435e-05
-3.08522e-19
-2.19006e-19
4.62657e-05
-3.0213e-19
-2.13172e-19
4.71101e-05
-3.02994e-19
-2.14139e-19
4.79684e-05
-3.00351e-19
-2.16063e-19
4.88409e-05
-2.93088e-19
-2.08311e-19
4.97279e-05
-2.90279e-19
-2.0513e-19
5.06295e-05
-2.88328e-19
-2.00615e-19
5.15459e-05
-2.84003e-19
-1.97387e-19
5.24776e-05
-2.83289e-19
-1.95768e-19
5.34246e-05
-2.91026e-19
-1.93565e-19
5.43873e-05
-2.75966e-19
-1.91355e-19
5.53658e-05
-2.76809e-19
-1.88446e-19
5.63606e-05
-2.69896e-19
-1.82797e-19
5.73718e-05
-2.63109e-19
-1.77216e-19
5.83997e-05
-2.56301e-19
-1.74644e-19
5.94446e-05
-2.68341e-19
-1.69681e-19
6.05068e-05
-2.66013e-19
-1.571e-19
6.15866e-05
-2.70299e-19
-1.44934e-19
6.26842e-05
-2.67665e-19
-1.28218e-19
6.37999e-05
-2.64457e-19
-1.32466e-19
6.49341e-05
-2.58388e-19
-1.24954e-19
6.6087e-05
-2.48249e-19
-1.20247e-19
6.72589e-05
-2.43678e-19
-1.28071e-19
6.84503e-05
-2.40304e-19
-1.17935e-19
6.96613e-05
-2.56102e-19
-1.07524e-19
7.08923e-05
-2.60237e-19
-1.03166e-19
7.21437e-05
-2.48525e-19
-1.01587e-19
7.34158e-05
-2.20297e-19
-1.1449e-19
7.47088e-05
-2.31456e-19
-9.45227e-20
7.60232e-05
-2.11279e-19
-1.01304e-19
7.73593e-05
-1.91479e-19
-9.35556e-20
7.87175e-05
-1.8285e-19
-9.05302e-20
8.00981e-05
-1.74527e-19
-8.33277e-20
8.15015e-05
-1.67232e-19
-7.78292e-20
8.29281e-05
-1.4238e-19
-6.05091e-20
8.43781e-05
-1.56394e-19
-4.22698e-20
8.58522e-05
-1.75979e-19
-1.31349e-20
8.73505e-05
-1.69717e-19
-3.41139e-21
8.88735e-05
-1.93698e-19
-4.90301e-21
9.04217e-05
-2.12933e-19
1.6668e-20
9.19954e-05
-2.27442e-19
1.80663e-20
9.3595e-05
-2.2206e-19
2.72288e-20
9.5221e-05
-2.29426e-19
2.68201e-20
9.68738e-05
-2.27255e-19
4.25316e-20
9.85538e-05
-2.26666e-19
5.55613e-20
0.000100262
-2.22136e-19
5.48264e-20
0.000101997
-2.13259e-19
5.47058e-20
0.000103762
-2.08032e-19
5.21185e-20
0.000105555
-2.09564e-19
6.65191e-20
0.000107378
-1.97055e-19
7.01198e-20
0.000109231
-1.65952e-19
9.39908e-20
0.000111114
-1.64312e-19
1.08667e-19
0.000113029
-1.58766e-19
1.01583e-19
0.000114975
-1.15619e-19
1.18404e-19
0.000116953
-9.09908e-20
1.19723e-19
0.000118963
-5.92548e-20
1.17304e-19
0.000121006
-5.55744e-20
1.40246e-19
0.000123083
-8.43922e-20
1.78747e-19
0.000125194
-7.69722e-20
1.93041e-19
0.00012734
-9.09441e-20
1.90756e-19
0.000129521
-9.52193e-20
1.81874e-19
0.000131737
-8.83304e-20
1.79552e-19
0.00013399
-4.1853e-20
1.49402e-19
0.00013628
-3.71576e-20
1.62766e-19
0.000138608
-5.06472e-20
1.52016e-19
0.000140973
-4.86135e-20
1.72566e-19
0.000143377
-9.93181e-20
1.63551e-19
0.000145821
-1.0495e-19
1.60505e-19
0.000148305
-7.01144e-20
1.54116e-19
0.000150829
-7.87851e-20
1.81197e-19
0.000153394
-7.594e-20
1.47161e-19
0.000156002
-8.47518e-20
1.37851e-19
0.000158652
-7.28153e-20
1.42322e-19
0.000161345
-7.1464e-20
1.39684e-19
0.000164082
-5.9811e-20
1.72212e-19
0.000166864
-5.10543e-20
1.58677e-19
0.000169692
-3.81235e-20
1.29646e-19
0.000172565
-5.26428e-20
1.54898e-19
0.000175485
-2.3414e-20
1.38893e-19
0.000178453
-1.73269e-20
1.61409e-19
0.000181469
-6.02728e-20
1.71246e-19
0.000184534
-6.06317e-20
1.72438e-19
0.000187649
-7.08164e-20
1.74102e-19
0.000190815
-6.94965e-20
1.39149e-19
0.000194032
-7.88827e-20
1.33051e-19
0.000197302
-5.83789e-20
1.27827e-19
0.000200624
-5.29728e-20
1.00801e-19
0.000204
-7.03212e-20
1.05062e-19
0.000207431
-8.66462e-20
8.91519e-20
0.000210918
-7.95121e-20
9.63175e-20
0.000214461
-7.17301e-20
8.36322e-20
0.000218061
-9.09828e-20
7.66665e-20
0.00022172
-1.0174e-19
6.37093e-20
0.000225437
-9.72946e-20