/*--------------------------------*- C++ -*----------------------------------*\
| =========                 |                                                 |
| \\      /  F ield         | OpenFOAM: The Open Source CFD Toolbox           |
|  \\    /   O peration     | Version:  2012                                  |
|   \\  /    A nd           | Website:  www.openfoam.com                      |
|    \\/     M anipulation  |                                                 |
\*---------------------------------------------------------------------------*/
FoamFile
{
    version     2.0;
    format      ascii;
    class       volVectorField;
    location    "17000";
    object      U;
}
// * * * * * * * * * * * * * * * * * * * * * * * * * * * * * * * * * * * * * //

dimensions      [0 1 -1 0 0 0 0];


internalField   nonuniform List<vector> 
2560
(
(0.00234482 -1.86008e-16 -2.63983e-17)
(0.00234482 3.3693e-19 -8.62078e-18)
(0.00706786 -3.63416e-15 -1.48967e-16)
(0.00706786 -1.41387e-18 -1.02417e-16)
(0.0118589 -2.41488e-15 -1.56111e-16)
(0.0118589 -2.23552e-18 -1.0542e-16)
(0.0167188 -2.40507e-15 -1.63283e-16)
(0.0167188 -3.5421e-18 -1.08507e-16)
(0.0216487 -2.38141e-15 -1.70728e-16)
(0.0216487 -4.89582e-18 -1.1168e-16)
(0.0266494 -2.39213e-15 -1.78437e-16)
(0.0266494 -6.26786e-18 -1.14942e-16)
(0.0317221 -2.39293e-15 -1.86374e-16)
(0.0317221 -7.67766e-18 -1.18294e-16)
(0.0368678 -2.38936e-15 -1.94552e-16)
(0.0368678 -9.11007e-18 -1.21738e-16)
(0.0420874 -2.38574e-15 -2.0299e-16)
(0.0420874 -1.05524e-17 -1.25276e-16)
(0.047382 -2.38272e-15 -2.11704e-16)
(0.047382 -1.2042e-17 -1.28913e-16)
(0.0527527 -2.3799e-15 -2.20702e-16)
(0.0527527 -1.35748e-17 -1.32649e-16)
(0.0582005 -2.37709e-15 -2.29996e-16)
(0.0582005 -1.51643e-17 -1.36488e-16)
(0.0637265 -2.37427e-15 -2.39592e-16)
(0.0637265 -1.67634e-17 -1.4043e-16)
(0.0693318 -2.37143e-15 -2.495e-16)
(0.0693318 -1.83107e-17 -1.4448e-16)
(0.0750173 -2.36851e-15 -2.59728e-16)
(0.0750173 -1.99032e-17 -1.48639e-16)
(0.0807843 -2.36554e-15 -2.70283e-16)
(0.0807843 -2.1555e-17 -1.5291e-16)
(0.0866336 -2.36248e-15 -2.81174e-16)
(0.0866336 -2.32696e-17 -1.57294e-16)
(0.0925664 -2.35932e-15 -2.92408e-16)
(0.0925664 -2.50665e-17 -1.61792e-16)
(0.0985835 -2.35612e-15 -3.03991e-16)
(0.0985835 -2.6834e-17 -1.66407e-16)
(0.104686 -2.35283e-15 -3.15929e-16)
(0.104686 -2.86769e-17 -1.7114e-16)
(0.110874 -2.34942e-15 -3.28229e-16)
(0.110874 -3.05983e-17 -1.75991e-16)
(0.11715 -2.34597e-15 -3.40892e-16)
(0.11715 -3.25125e-17 -1.80959e-16)
(0.123513 -2.34243e-15 -3.53922e-16)
(0.123513 -3.44674e-17 -1.86042e-16)
(0.129964 -2.33885e-15 -3.67319e-16)
(0.129964 -3.64416e-17 -1.91237e-16)
(0.136504 -2.3352e-15 -3.81081e-16)
(0.136504 -3.83929e-17 -1.96546e-16)
(0.143132 -2.3315e-15 -3.95205e-16)
(0.143132 -4.04322e-17 -2.01965e-16)
(0.149848 -2.32771e-15 -4.09682e-16)
(0.149848 -4.24589e-17 -2.07486e-16)
(0.156653 -2.32379e-15 -4.24501e-16)
(0.156653 -4.45543e-17 -2.13105e-16)
(0.163546 -2.3197e-15 -4.39646e-16)
(0.163546 -4.67737e-17 -2.18805e-16)
(0.170525 -2.31553e-15 -4.55097e-16)
(0.170525 -4.90287e-17 -2.24581e-16)
(0.17759 -2.31132e-15 -4.70829e-16)
(0.17759 -5.13731e-17 -2.30415e-16)
(0.184738 -2.30702e-15 -4.86812e-16)
(0.184738 -5.36918e-17 -2.36291e-16)
(0.191967 -2.3027e-15 -5.03011e-16)
(0.191967 -5.59302e-17 -2.42192e-16)
(0.199275 -2.29834e-15 -5.19385e-16)
(0.199275 -5.82193e-17 -2.481e-16)
(0.206657 -2.29383e-15 -5.35886e-16)
(0.206657 -6.06034e-17 -2.53991e-16)
(0.214111 -2.28913e-15 -5.52461e-16)
(0.214111 -6.30085e-17 -2.59833e-16)
(0.221631 -2.28443e-15 -5.69054e-16)
(0.221631 -6.54449e-17 -2.6561e-16)
(0.229212 -2.27962e-15 -5.85602e-16)
(0.229212 -6.7781e-17 -2.7129e-16)
(0.236848 -2.27484e-15 -6.0204e-16)
(0.236848 -7.01805e-17 -2.76849e-16)
(0.244533 -2.27003e-15 -6.18302e-16)
(0.244533 -7.26925e-17 -2.82257e-16)
(0.25226 -2.2651e-15 -6.34143e-16)
(0.25226 -7.52245e-17 -2.8748e-16)
(0.260021 -2.26012e-15 -6.39664e-16)
(0.260021 -7.76262e-17 -2.92488e-16)
(0.267808 -2.25485e-15 -6.44626e-16)
(0.267808 -8.02578e-17 -2.97264e-16)
(0.275613 -2.24933e-15 -6.4901e-16)
(0.275613 -8.30958e-17 -3.01773e-16)
(0.283427 -2.2438e-15 -6.52762e-16)
(0.283427 -8.57919e-17 -3.05997e-16)
(0.291241 -2.23816e-15 -6.55879e-16)
(0.291241 -8.84699e-17 -3.09919e-16)
(0.299046 -2.23268e-15 -6.58346e-16)
(0.299046 -9.08767e-17 -3.13521e-16)
(0.306834 -2.22722e-15 -6.60145e-16)
(0.306834 -9.33761e-17 -3.16789e-16)
(0.314595 -2.22164e-15 -6.61297e-16)
(0.314595 -9.62282e-17 -3.19737e-16)
(0.322322 -2.21634e-15 -6.61812e-16)
(0.322322 -9.90863e-17 -3.22345e-16)
(0.330005 -2.21079e-15 -6.61678e-16)
(0.330005 -1.01657e-16 -3.24608e-16)
(0.337637 -2.20494e-15 -6.60958e-16)
(0.337637 -1.04403e-16 -3.26545e-16)
(0.345212 -2.19916e-15 -6.59678e-16)
(0.345212 -1.07193e-16 -3.28165e-16)
(0.352722 -2.19306e-15 -6.57869e-16)
(0.352722 -1.10204e-16 -3.29484e-16)
(0.360162 -2.18694e-15 -6.55597e-16)
(0.360162 -1.13568e-16 -3.30525e-16)
(0.367526 -2.18107e-15 -6.52922e-16)
(0.367526 -1.16378e-16 -3.31287e-16)
(0.374809 -2.17527e-15 -6.49854e-16)
(0.374809 -1.18987e-16 -3.31788e-16)
(0.382008 -2.16968e-15 -6.46435e-16)
(0.382008 -1.21765e-16 -3.32054e-16)
(0.389119 -2.16391e-15 -6.42731e-16)
(0.389119 -1.24294e-16 -3.32115e-16)
(0.396138 -2.15798e-15 -6.38812e-16)
(0.396138 -1.2709e-16 -3.31999e-16)
(0.403065 -2.15214e-15 -6.34711e-16)
(0.403065 -1.29955e-16 -3.31718e-16)
(0.409897 -2.14649e-15 -6.30469e-16)
(0.409897 -1.32498e-16 -3.31281e-16)
(0.416632 -2.14088e-15 -6.26116e-16)
(0.416632 -1.35721e-16 -3.30698e-16)
(0.423271 -2.13519e-15 -6.21697e-16)
(0.423271 -1.38256e-16 -3.30033e-16)
(0.429812 -2.12982e-15 -6.17254e-16)
(0.429812 -1.40937e-16 -3.29264e-16)
(0.436256 -2.12498e-15 -6.12818e-16)
(0.436256 -1.43346e-16 -3.28415e-16)
(0.442604 -2.11989e-15 -6.08382e-16)
(0.442604 -1.45165e-16 -3.27531e-16)
(0.448855 -2.11461e-15 -6.03986e-16)
(0.448855 -1.47791e-16 -3.26622e-16)
(0.455011 -2.10945e-15 -5.99699e-16)
(0.455011 -1.50314e-16 -3.25707e-16)
(0.461072 -2.10422e-15 -5.95514e-16)
(0.461072 -1.52601e-16 -3.24769e-16)
(0.467041 -2.09903e-15 -5.91489e-16)
(0.467041 -1.55021e-16 -3.23806e-16)
(0.472918 -2.09412e-15 -5.87611e-16)
(0.472918 -1.57813e-16 -3.22827e-16)
(0.478705 -2.08947e-15 -5.83914e-16)
(0.478705 -1.59877e-16 -3.21841e-16)
(0.484404 -2.08438e-15 -5.80401e-16)
(0.484404 -1.61666e-16 -3.2087e-16)
(0.490016 -2.07908e-15 -5.77125e-16)
(0.490016 -1.64109e-16 -3.19914e-16)
(0.495544 -2.07379e-15 -5.74085e-16)
(0.495544 -1.66493e-16 -3.18984e-16)
(0.500989 -2.06919e-15 -5.71286e-16)
(0.500989 -1.68887e-16 -3.18099e-16)
(0.506353 -2.06536e-15 -5.68698e-16)
(0.506353 -1.71289e-16 -3.17229e-16)
(0.511638 -2.06191e-15 -5.66334e-16)
(0.511638 -1.73737e-16 -3.16448e-16)
(0.516846 -2.05725e-15 -5.64221e-16)
(0.516846 -1.76868e-16 -3.15761e-16)
(0.521979 -2.05261e-15 -5.62514e-16)
(0.521979 -1.78427e-16 -3.14944e-16)
(0.527039 -2.04908e-15 -5.57136e-16)
(0.527039 -1.79623e-16 -3.14186e-16)
(0.532027 -2.04603e-15 -5.47914e-16)
(0.532027 -1.79956e-16 -3.13473e-16)
(0.536946 -2.0431e-15 -5.38895e-16)
(0.536946 -1.79624e-16 -3.12847e-16)
(0.541797 -2.03958e-15 -5.30101e-16)
(0.541797 -1.81437e-16 -3.12255e-16)
(0.546582 -2.03637e-15 -5.21489e-16)
(0.546582 -1.82319e-16 -3.11723e-16)
(0.551303 -2.03327e-15 -5.13074e-16)
(0.551303 -1.83498e-16 -3.11179e-16)
(0.555962 -2.03014e-15 -5.04798e-16)
(0.555962 -1.85095e-16 -3.10718e-16)
(0.560561 -2.02706e-15 -4.96671e-16)
(0.560561 -1.85822e-16 -3.10335e-16)
(0.5651 -2.02401e-15 -4.88785e-16)
(0.5651 -1.87262e-16 -3.09948e-16)
(0.569582 -2.02082e-15 -4.8102e-16)
(0.569582 -1.88988e-16 -3.0967e-16)
(0.574008 -2.01812e-15 -4.73491e-16)
(0.574008 -1.89842e-16 -3.09435e-16)
(0.57838 -2.01532e-15 -4.66221e-16)
(0.57838 -1.9111e-16 -3.09226e-16)
(0.582699 -2.01244e-15 -4.59204e-16)
(0.582699 -1.92906e-16 -3.09066e-16)
(0.586967 -2.0104e-15 -4.52414e-16)
(0.586967 -1.94321e-16 -3.08859e-16)
(0.591185 -2.00755e-15 -4.45841e-16)
(0.591185 -1.95728e-16 -3.08751e-16)
(0.595354 -2.00333e-15 -4.39668e-16)
(0.595354 -1.96791e-16 -3.08653e-16)
(0.599476 -1.99945e-15 -4.33884e-16)
(0.599476 -1.98473e-16 -3.08515e-16)
(0.603552 -1.9965e-15 -4.28306e-16)
(0.603552 -1.99955e-16 -3.08423e-16)
(0.607584 -1.99451e-15 -4.22919e-16)
(0.607584 -2.01093e-16 -3.08415e-16)
(0.611572 -1.99168e-15 -4.17762e-16)
(0.611572 -2.01532e-16 -3.0833e-16)
(0.615518 -1.98758e-15 -4.12966e-16)
(0.615518 -2.02897e-16 -3.08237e-16)
(0.619423 -1.98453e-15 -4.08388e-16)
(0.619423 -2.04898e-16 -3.08201e-16)
(0.623287 -1.98191e-15 -4.04091e-16)
(0.623287 -2.05641e-16 -3.08267e-16)
(0.627113 -1.97962e-15 -4.00145e-16)
(0.627113 -2.08522e-16 -3.08275e-16)
(0.630901 -1.97749e-15 -3.96365e-16)
(0.630901 -2.10461e-16 -3.08363e-16)
(0.634651 -1.97382e-15 -3.92941e-16)
(0.634651 -2.12652e-16 -3.085e-16)
(0.638366 -1.97076e-15 -3.89841e-16)
(0.638366 -2.16248e-16 -3.08478e-16)
(0.642046 -1.96805e-15 -3.86803e-16)
(0.642046 -2.17747e-16 -3.08687e-16)
(0.645691 -1.96482e-15 -3.84056e-16)
(0.645691 -2.17781e-16 -3.08867e-16)
(0.649304 -1.96269e-15 -3.81508e-16)
(0.649304 -2.18418e-16 -3.0916e-16)
(0.652884 -1.95995e-15 -3.7924e-16)
(0.652884 -2.19575e-16 -3.09304e-16)
(0.656432 -1.95675e-15 -3.77026e-16)
(0.656432 -2.21715e-16 -3.09632e-16)
(0.65995 -1.95546e-15 -3.75019e-16)
(0.65995 -2.21704e-16 -3.10011e-16)
(0.663437 -1.95532e-15 -3.73114e-16)
(0.663437 -2.20905e-16 -3.10407e-16)
(0.666896 -1.95451e-15 -3.71205e-16)
(0.666896 -2.20294e-16 -3.10794e-16)
(0.670326 -1.95344e-15 -3.694e-16)
(0.670326 -2.18938e-16 -3.11298e-16)
(0.673728 -1.95101e-15 -3.67653e-16)
(0.673728 -2.17985e-16 -3.11788e-16)
(0.677103 -1.94875e-15 -3.66109e-16)
(0.677103 -2.1579e-16 -3.12411e-16)
(0.680451 -1.9475e-15 -3.64751e-16)
(0.680451 -2.15378e-16 -3.12938e-16)
(0.683774 -1.94568e-15 -3.6327e-16)
(0.683774 -2.14903e-16 -3.13696e-16)
(0.687072 -1.94443e-15 -3.62038e-16)
(0.687072 -2.14332e-16 -3.14516e-16)
(0.690345 -1.94373e-15 -3.60973e-16)
(0.690345 -2.13734e-16 -3.15305e-16)
(0.693594 -1.94202e-15 -3.60005e-16)
(0.693594 -2.13066e-16 -3.15879e-16)
(0.69682 -1.94025e-15 -3.59145e-16)
(0.69682 -2.13018e-16 -3.16629e-16)
(0.700023 -1.94066e-15 -3.58756e-16)
(0.700023 -2.13183e-16 -3.17274e-16)
(0.703203 -1.94256e-15 -3.58626e-16)
(0.703203 -2.11556e-16 -3.17757e-16)
(0.706362 -1.94601e-15 -3.58279e-16)
(0.706362 -2.0666e-16 -3.17998e-16)
(0.7095 -1.94966e-15 -3.57691e-16)
(0.7095 -2.04002e-16 -3.18295e-16)
(0.712616 -1.95119e-15 -3.56969e-16)
(0.712616 -2.0193e-16 -3.187e-16)
(0.715713 -1.95227e-15 -3.56441e-16)
(0.715713 -2.00957e-16 -3.19217e-16)
(0.71879 -1.95352e-15 -3.56388e-16)
(0.71879 -2.01452e-16 -3.19493e-16)
(0.721847 -1.95454e-15 -3.56236e-16)
(0.721847 -2.03233e-16 -3.19705e-16)
(0.724885 -1.95527e-15 -3.55634e-16)
(0.724885 -2.03463e-16 -3.20195e-16)
(0.727905 -1.95456e-15 -3.55287e-16)
(0.727905 -2.02094e-16 -3.20419e-16)
(0.730907 -1.9534e-15 -3.54662e-16)
(0.730907 -2.03478e-16 -3.2063e-16)
(0.733891 -1.95404e-15 -3.53755e-16)
(0.733891 -2.06513e-16 -3.21062e-16)
(0.736858 -1.95586e-15 -3.52821e-16)
(0.736858 -2.06786e-16 -3.21781e-16)
(0.739808 -1.95815e-15 -3.52005e-16)
(0.739808 -2.06128e-16 -3.22237e-16)
(0.742741 -1.95744e-15 -3.5056e-16)
(0.742741 -2.09128e-16 -3.225e-16)
(0.745659 -1.95596e-15 -3.48528e-16)
(0.745659 -2.09982e-16 -3.23562e-16)
(0.74856 -1.9548e-15 -3.47223e-16)
(0.74856 -2.0935e-16 -3.24427e-16)
(0.751446 -1.95389e-15 -3.46375e-16)
(0.751446 -2.14055e-16 -3.24651e-16)
(0.754317 -1.95335e-15 -3.45432e-16)
(0.754317 -2.18125e-16 -3.25003e-16)
(0.757173 -1.95182e-15 -3.50353e-16)
(0.757173 -2.18761e-16 -3.25745e-16)
(0.760014 -1.95e-15 -3.57524e-16)
(0.760014 -2.24999e-16 -3.26121e-16)
(0.762842 -1.94512e-15 -3.65053e-16)
(0.762842 -2.29975e-16 -3.31883e-16)
(0.765655 -1.94129e-15 -3.73302e-16)
(0.765655 -2.34687e-16 -3.39462e-16)
(0.768455 -1.94205e-15 -3.81778e-16)
(0.768455 -2.37386e-16 -3.46949e-16)
(0.771241 -1.94385e-15 -3.90192e-16)
(0.771241 -2.381e-16 -3.54089e-16)
(0.774015 -1.94441e-15 -3.98239e-16)
(0.774015 -2.41052e-16 -3.61177e-16)
(0.776775 -1.94653e-15 -4.06404e-16)
(0.776775 -2.39839e-16 -3.67858e-16)
(0.779524 -1.94772e-15 -4.14707e-16)
(0.779524 -2.4267e-16 -3.74374e-16)
(0.78226 -1.94591e-15 -4.23328e-16)
(0.78226 -2.45361e-16 -3.80397e-16)
(0.784983 -1.94514e-15 -4.31543e-16)
(0.784983 -2.45836e-16 -3.86698e-16)
(0.787696 -1.94455e-15 -4.38765e-16)
(0.787696 -2.51216e-16 -3.93344e-16)
(0.790396 -1.94449e-15 -4.45806e-16)
(0.790396 -2.52951e-16 -4.00348e-16)
(0.793085 -1.94442e-15 -4.5307e-16)
(0.793085 -2.51961e-16 -4.07431e-16)
(0.795764 -1.94066e-15 -4.60771e-16)
(0.795764 -2.55703e-16 -4.13614e-16)
(0.798431 -1.93651e-15 -4.67766e-16)
(0.798431 -2.59944e-16 -4.20277e-16)
(0.801088 -1.93183e-15 -4.74612e-16)
(0.801088 -2.61002e-16 -4.27506e-16)
(0.803734 -1.92797e-15 -4.81824e-16)
(0.803734 -2.65157e-16 -4.348e-16)
(0.80637 -1.92867e-15 -4.88384e-16)
(0.80637 -2.71509e-16 -4.41647e-16)
(0.808996 -1.92707e-15 -4.94954e-16)
(0.808996 -2.77012e-16 -4.48049e-16)
(0.811612 -1.92173e-15 -5.01893e-16)
(0.811612 -2.82667e-16 -4.55234e-16)
(0.814219 -1.91514e-15 -5.08838e-16)
(0.814219 -2.89658e-16 -4.62004e-16)
(0.816816 -1.90913e-15 -5.16132e-16)
(0.816816 -2.92873e-16 -4.67889e-16)
(0.819404 -1.90349e-15 -5.24176e-16)
(0.819404 -2.97454e-16 -4.7354e-16)
(0.821983 -1.89644e-15 -5.32968e-16)
(0.821983 -3.06455e-16 -4.78514e-16)
(0.824552 -1.89157e-15 -5.42626e-16)
(0.824552 -3.12354e-16 -4.83922e-16)
(0.827113 -1.8875e-15 -5.5375e-16)
(0.827113 -3.22123e-16 -4.88677e-16)
(0.829666 -1.88602e-15 -5.65801e-16)
(0.829666 -3.31601e-16 -4.91883e-16)
(0.832209 -1.89264e-15 -5.77387e-16)
(0.832209 -3.3205e-16 -4.94173e-16)
(0.834745 -1.90091e-15 -5.87727e-16)
(0.834745 -3.29687e-16 -4.96705e-16)
(0.837272 -1.90522e-15 -5.9765e-16)
(0.837272 -3.29111e-16 -4.98151e-16)
(0.839792 -1.90499e-15 -6.06189e-16)
(0.839792 -3.30396e-16 -5.00049e-16)
(0.842303 -1.9062e-15 -6.14862e-16)
(0.842303 -3.39019e-16 -5.00881e-16)
(0.844807 -1.91023e-15 -6.22577e-16)
(0.844807 -3.43957e-16 -5.01455e-16)
(0.847303 -1.91237e-15 -6.30505e-16)
(0.847303 -3.42299e-16 -5.01562e-16)
(0.849792 -1.91475e-15 -6.37774e-16)
(0.849792 -3.47904e-16 -5.01516e-16)
(0.852273 -1.91253e-15 -6.44215e-16)
(0.852273 -3.53963e-16 -5.0077e-16)
(0.854747 -1.90962e-15 -6.49731e-16)
(0.854747 -3.58857e-16 -4.99767e-16)
(0.857214 -1.90805e-15 -6.53951e-16)
(0.857214 -3.66238e-16 -4.99671e-16)
(0.859674 -1.90573e-15 -6.58861e-16)
(0.859674 -3.69667e-16 -4.97838e-16)
(0.862128 -1.90175e-15 -6.62189e-16)
(0.862128 -3.73532e-16 -4.95666e-16)
(0.864574 -1.89573e-15 -6.64924e-16)
(0.864574 -3.78529e-16 -4.9304e-16)
(0.867014 -1.88991e-15 -6.66954e-16)
(0.867014 -3.85876e-16 -4.89979e-16)
(0.869447 -1.88205e-15 -6.68023e-16)
(0.869447 -3.96005e-16 -4.87292e-16)
(0.871874 -1.87531e-15 -6.68847e-16)
(0.871874 -4.04811e-16 -4.85033e-16)
(0.874294 -1.87134e-15 -6.69806e-16)
(0.874294 -4.12825e-16 -4.82824e-16)
(0.876708 -1.86775e-15 -6.69396e-16)
(0.876708 -4.2158e-16 -4.79687e-16)
(0.879116 -1.86259e-15 -6.66804e-16)
(0.879116 -4.29029e-16 -4.76904e-16)
(0.881518 -1.85274e-15 -6.63013e-16)
(0.881518 -4.37971e-16 -4.75382e-16)
(0.883914 -1.84277e-15 -6.60124e-16)
(0.883914 -4.47814e-16 -4.73534e-16)
(0.886304 -1.83533e-15 -6.57317e-16)
(0.886304 -4.53604e-16 -4.67986e-16)
(0.888688 -1.82444e-15 -6.50362e-16)
(0.888688 -4.6842e-16 -4.63998e-16)
(0.891066 -1.81286e-15 -6.4384e-16)
(0.891066 -4.76152e-16 -4.63634e-16)
(0.893439 -1.80104e-15 -6.3997e-16)
(0.893439 -4.91443e-16 -4.61766e-16)
(0.895806 -1.78842e-15 -6.35313e-16)
(0.895806 -5.17971e-16 -4.58049e-16)
(0.898168 -1.77608e-15 -6.2911e-16)
(0.898168 -5.30298e-16 -4.56497e-16)
(0.900524 -1.76017e-15 -6.25168e-16)
(0.900524 -5.44775e-16 -4.55288e-16)
(0.902875 -1.74723e-15 -6.21762e-16)
(0.902875 -5.59452e-16 -4.52617e-16)
(0.90522 -1.73986e-15 -6.15671e-16)
(0.90522 -5.66909e-16 -4.48457e-16)
(0.90756 -1.72709e-15 -6.08091e-16)
(0.90756 -5.81449e-16 -4.46002e-16)
(0.909895 -1.71423e-15 -6.0261e-16)
(0.909895 -5.91857e-16 -4.41439e-16)
(0.912225 -1.70761e-15 -5.96104e-16)
(0.912225 -6.03307e-16 -4.39537e-16)
(0.914549 -1.69954e-15 -5.89788e-16)
(0.914549 -6.20817e-16 -4.36405e-16)
(0.916869 -1.68356e-15 -5.8158e-16)
(0.916869 -6.31645e-16 -4.3278e-16)
(0.919183 -1.66994e-15 -5.7317e-16)
(0.919183 -6.44743e-16 -4.30319e-16)
(0.921493 -1.66059e-15 -5.66225e-16)
(0.921493 -6.58822e-16 -4.29234e-16)
(0.923797 -1.64727e-15 -5.60305e-16)
(0.923797 -6.66607e-16 -4.25761e-16)
(0.926097 -1.63491e-15 -5.51648e-16)
(0.926097 -6.81044e-16 -4.17846e-16)
(0.928392 -1.62781e-15 -5.3915e-16)
(0.928392 -6.91671e-16 -4.14641e-16)
(0.930682 -1.61786e-15 -5.28421e-16)
(0.930682 -6.9697e-16 -4.0888e-16)
(0.932967 -1.5958e-15 -5.19232e-16)
(0.932967 -7.02121e-16 -4.06772e-16)
(0.935247 -1.57308e-15 -5.15563e-16)
(0.935247 -7.12919e-16 -4.02251e-16)
(0.937522 -1.56179e-15 -5.0891e-16)
(0.937522 -7.29018e-16 -3.93387e-16)
(0.939793 -1.55391e-15 -4.99131e-16)
(0.939793 -7.4248e-16 -3.8624e-16)
(0.942059 -1.541e-15 -4.90855e-16)
(0.942059 -7.50243e-16 -3.84898e-16)
(0.94432 -1.52227e-15 -4.87557e-16)
(0.94432 -7.61144e-16 -3.76914e-16)
(0.946577 -1.50572e-15 -4.77927e-16)
(0.946577 -7.81154e-16 -3.68128e-16)
(0.948829 -1.49473e-15 -4.66482e-16)
(0.948829 -7.91175e-16 -3.61433e-16)
(0.951076 -1.4803e-15 -4.60004e-16)
(0.951076 -7.96147e-16 -3.61857e-16)
(0.953319 -1.46225e-15 -4.55578e-16)
(0.953319 -8.10836e-16 -3.64966e-16)
(0.955556 -1.44636e-15 -4.48046e-16)
(0.955556 -8.15651e-16 -3.68021e-16)
(0.957789 -1.42969e-15 -4.44777e-16)
(0.957789 -8.10741e-16 -3.73192e-16)
(0.960018 -1.41602e-15 -4.41973e-16)
(0.960018 -8.23231e-16 -3.72339e-16)
(0.962241 -1.40113e-15 -4.4351e-16)
(0.962241 -8.28717e-16 -3.70722e-16)
(0.96446 -1.38984e-15 -4.47011e-16)
(0.96446 -8.25501e-16 -3.75565e-16)
(0.966674 -1.37895e-15 -4.48518e-16)
(0.966674 -8.28669e-16 -3.79736e-16)
(0.968884 -1.36655e-15 -4.49846e-16)
(0.968884 -8.44968e-16 -3.82097e-16)
(0.971088 -1.35423e-15 -4.51373e-16)
(0.971088 -8.51681e-16 -3.80017e-16)
(0.973288 -1.3359e-15 -4.48632e-16)
(0.973288 -8.55414e-16 -3.83492e-16)
(0.975483 -1.32532e-15 -4.46237e-16)
(0.975483 -8.72185e-16 -3.85149e-16)
(0.977673 -1.31168e-15 -4.44651e-16)
(0.977673 -8.62172e-16 -3.84103e-16)
(0.979858 -1.29447e-15 -4.44502e-16)
(0.979858 -8.53592e-16 -3.85509e-16)
(0.982038 -1.28255e-15 -4.46645e-16)
(0.982038 -8.49795e-16 -3.81037e-16)
(0.984213 -1.2699e-15 -4.44775e-16)
(0.984213 -8.48058e-16 -3.82664e-16)
(0.986382 -1.26045e-15 -4.46562e-16)
(0.986382 -8.54008e-16 -3.85913e-16)
(0.988547 -1.24718e-15 -4.44598e-16)
(0.988547 -8.49418e-16 -3.87587e-16)
(0.990706 -1.22762e-15 -4.43624e-16)
(0.990706 -8.6112e-16 -3.86108e-16)
(0.992861 -1.21297e-15 -4.43169e-16)
(0.992861 -8.74626e-16 -3.85455e-16)
(0.995009 -1.20236e-15 -4.43607e-16)
(0.995009 -8.71594e-16 -3.83597e-16)
(0.997153 -1.19795e-15 -4.46711e-16)
(0.997153 -8.71554e-16 -3.87183e-16)
(0.999291 -1.19122e-15 -4.52241e-16)
(0.999291 -8.83459e-16 -3.88277e-16)
(1.00142 -1.17771e-15 -4.6135e-16)
(1.00142 -9.0731e-16 -3.78747e-16)
(1.00355 -1.15676e-15 -4.54145e-16)
(1.00355 -9.26665e-16 -3.7308e-16)
(1.00567 -1.11818e-15 -4.57157e-16)
(1.00567 -9.24212e-16 -3.78468e-16)
(1.00778 -1.09823e-15 -4.58436e-16)
(1.00778 -9.11109e-16 -3.86199e-16)
(1.00989 -1.09076e-15 -4.59305e-16)
(1.00989 -8.98812e-16 -3.80496e-16)
(1.012 -1.07555e-15 -4.53098e-16)
(1.012 -8.74876e-16 -3.7168e-16)
(1.01409 -1.05726e-15 -4.48449e-16)
(1.01409 -8.75675e-16 -3.69856e-16)
(1.01618 -1.03372e-15 -4.41008e-16)
(1.01618 -8.83521e-16 -3.67941e-16)
(1.01827 -1.01722e-15 -4.36781e-16)
(1.01827 -8.76351e-16 -3.58867e-16)
(1.02034 -9.9722e-16 -4.42415e-16)
(1.02034 -8.58163e-16 -3.57938e-16)
(1.02241 -9.7496e-16 -4.37044e-16)
(1.02241 -8.49355e-16 -3.51936e-16)
(1.02447 -9.79353e-16 -4.35092e-16)
(1.02447 -8.33224e-16 -3.47438e-16)
(1.02653 -9.88169e-16 -4.32096e-16)
(1.02653 -8.26264e-16 -3.60114e-16)
(1.02858 -9.77196e-16 -4.16168e-16)
(1.02858 -8.4104e-16 -3.64609e-16)
(1.03062 -9.61755e-16 -3.98588e-16)
(1.03062 -8.48366e-16 -3.72041e-16)
(1.03265 -9.49774e-16 -4.03901e-16)
(1.03265 -8.50638e-16 -3.75665e-16)
(1.03468 -9.51874e-16 -4.01636e-16)
(1.03468 -8.58401e-16 -3.73794e-16)
(1.03669 -9.56637e-16 -3.96968e-16)
(1.03669 -8.70252e-16 -3.58829e-16)
(1.0387 -9.63007e-16 -3.92479e-16)
(1.0387 -8.47338e-16 -3.51049e-16)
(1.0407 -9.55364e-16 -3.78136e-16)
(1.0407 -8.35402e-16 -3.66089e-16)
(1.04269 -9.26708e-16 -3.71164e-16)
(1.04269 -8.53977e-16 -3.85247e-16)
(1.04467 -9.0689e-16 -3.72616e-16)
(1.04467 -8.52563e-16 -3.98034e-16)
(1.04664 -9.0152e-16 -3.64288e-16)
(1.04664 -8.46742e-16 -3.96976e-16)
(1.0486 -8.79713e-16 -3.67505e-16)
(1.0486 -8.43209e-16 -3.89312e-16)
(1.05056 -8.5834e-16 -3.82253e-16)
(1.05056 -8.33955e-16 -3.84658e-16)
(1.0525 -8.27413e-16 -3.96792e-16)
(1.0525 -8.57421e-16 -4.02734e-16)
(1.05443 -8.0523e-16 -4.23646e-16)
(1.05443 -8.76945e-16 -4.08847e-16)
(1.05635 -8.31104e-16 -4.2751e-16)
(1.05635 -8.59353e-16 -3.99169e-16)
(1.05825 -8.4208e-16 -4.20111e-16)
(1.05825 -8.40336e-16 -3.99849e-16)
(1.06015 -8.32736e-16 -4.20091e-16)
(1.06015 -8.28976e-16 -3.98899e-16)
(1.06203 -8.23587e-16 -4.27821e-16)
(1.06203 -8.2488e-16 -4.20864e-16)
(1.0639 -8.24163e-16 -4.4743e-16)
(1.0639 -8.21924e-16 -4.25603e-16)
(1.06576 -8.15497e-16 -4.44995e-16)
(1.06576 -8.01567e-16 -4.32064e-16)
(1.0676 -8.09567e-16 -4.48848e-16)
(1.0676 -7.76215e-16 -4.33996e-16)
(1.06943 -8.28061e-16 -4.23999e-16)
(1.06943 -7.5087e-16 -4.35218e-16)
(1.07125 -8.05936e-16 -4.2151e-16)
(1.07125 -7.27567e-16 -4.36821e-16)
(1.07304 -7.61441e-16 -4.35496e-16)
(1.07304 -7.35088e-16 -4.57283e-16)
(1.07483 -7.2089e-16 -4.62406e-16)
(1.07483 -7.66808e-16 -4.84835e-16)
(1.07659 -6.86632e-16 -4.75465e-16)
(1.07659 -7.65441e-16 -4.79056e-16)
(1.07834 -6.57384e-16 -4.89718e-16)
(1.07834 -7.4326e-16 -4.66867e-16)
(1.08007 -6.64852e-16 -5.09156e-16)
(1.08007 -7.14212e-16 -4.78142e-16)
(1.08178 -6.94693e-16 -5.05696e-16)
(1.08178 -6.98698e-16 -5.26857e-16)
(1.08347 -6.80502e-16 -5.37509e-16)
(1.08347 -6.80535e-16 -5.30119e-16)
(1.08514 -6.78553e-16 -5.38885e-16)
(1.08514 -6.90148e-16 -5.11857e-16)
(1.08679 -6.90057e-16 -5.19732e-16)
(1.08679 -6.97241e-16 -5.13443e-16)
(1.08842 -7.1551e-16 -5.47783e-16)
(1.08842 -6.72364e-16 -5.19072e-16)
(1.09002 -7.29208e-16 -5.11179e-16)
(1.09002 -6.669e-16 -5.40337e-16)
(1.0916 -6.89853e-16 -5.11616e-16)
(1.0916 -6.74755e-16 -5.43838e-16)
(1.09315 -6.62864e-16 -5.23241e-16)
(1.09315 -7.07029e-16 -5.44123e-16)
(1.09468 -6.76394e-16 -5.05451e-16)
(1.09468 -7.01819e-16 -4.97586e-16)
(1.09617 -6.69172e-16 -4.66362e-16)
(1.09617 -6.93846e-16 -4.97815e-16)
(1.09764 -6.34763e-16 -4.918e-16)
(1.09764 -7.25726e-16 -4.94472e-16)
(1.09908 -6.21909e-16 -5.16543e-16)
(1.09908 -6.73324e-16 -4.56213e-16)
(1.10048 -6.45649e-16 -4.86318e-16)
(1.10048 -6.32655e-16 -4.68326e-16)
(1.10185 -6.67405e-16 -5.06508e-16)
(1.10185 -6.52184e-16 -4.90872e-16)
(1.10318 -6.65173e-16 -5.51282e-16)
(1.10318 -6.21352e-16 -4.69524e-16)
(1.10448 -6.76929e-16 -5.49603e-16)
(1.10448 -6.53027e-16 -4.53693e-16)
(1.10573 -6.83415e-16 -4.96202e-16)
(1.10573 -6.91765e-16 -4.61543e-16)
(1.10695 -6.64958e-16 -5.1208e-16)
(1.10695 -6.90482e-16 -4.40307e-16)
(1.10811 -6.26536e-16 -5.16652e-16)
(1.10811 -6.64891e-16 -4.56119e-16)
(1.10923 -7.05577e-16 -4.61726e-16)
(1.10923 -6.58163e-16 -4.02169e-16)
(1.1103 -6.95165e-16 -4.02687e-16)
(1.1103 -6.68156e-16 -3.92114e-16)
(1.11132 -6.66691e-16 -3.64962e-16)
(1.11132 -6.67026e-16 -3.31809e-16)
(1.11228 -6.15058e-16 -3.71633e-16)
(1.11228 -6.12197e-16 -2.44882e-16)
(1.11319 -5.95165e-16 -3.20523e-16)
(1.11319 -5.74089e-16 -2.25236e-16)
(1.11403 -5.56695e-16 -3.16135e-16)
(1.11403 -5.74529e-16 -1.98289e-16)
(1.1148 -5.26043e-16 -3.47279e-16)
(1.1148 -5.45307e-16 -1.92902e-16)
(1.11551 -6.005e-16 -1.95441e-16)
(1.11551 -5.04965e-16 -1.40035e-16)
(1.11614 -5.1407e-16 -1.8275e-16)
(1.11614 -4.86707e-16 -1.31944e-16)
(1.1167 -3.79591e-16 -1.51509e-16)
(1.1167 -4.89067e-16 -1.41301e-16)
(1.11717 -4.5034e-16 -1.6089e-16)
(1.11717 -4.4721e-16 -1.56282e-16)
(1.11756 -4.32136e-16 -1.66028e-16)
(1.11756 -4.10126e-16 -1.3822e-16)
(1.11786 -4.11684e-16 -1.50865e-16)
(1.11786 -4.1138e-16 -1.68866e-16)
(1.11806 -4.02791e-16 -1.53609e-16)
(1.11806 -4.15674e-16 -1.99031e-16)
(1.11816 -3.80935e-16 -1.42878e-16)
(1.11816 -3.49613e-16 -1.7564e-16)
(0.00234482 1.73737e-19 8.74861e-18)
(0.00234482 6.4545e-20 3.10813e-18)
(0.00706786 -7.02411e-19 4.13279e-17)
(0.00706786 -2.51826e-19 1.22611e-17)
(0.0118589 -1.12254e-18 4.25296e-17)
(0.0118589 -4.21605e-19 1.26342e-17)
(0.0167188 -1.787e-18 4.37606e-17)
(0.0167188 -6.88087e-19 1.30277e-17)
(0.0216487 -2.47092e-18 4.50215e-17)
(0.0216487 -9.75103e-19 1.34427e-17)
(0.0266494 -3.1655e-18 4.63129e-17)
(0.0266494 -1.28544e-18 1.38805e-17)
(0.0317221 -3.87234e-18 4.76353e-17)
(0.0317221 -1.60173e-18 1.4342e-17)
(0.0368678 -4.6026e-18 4.89891e-17)
(0.0368678 -1.89897e-18 1.48289e-17)
(0.0420874 -5.3508e-18 5.03748e-17)
(0.0420874 -2.24404e-18 1.53425e-17)
(0.047382 -6.11192e-18 5.17929e-17)
(0.047382 -2.59927e-18 1.58833e-17)
(0.0527527 -6.89842e-18 5.32445e-17)
(0.0527527 -2.94751e-18 1.64535e-17)
(0.0582005 -7.66704e-18 5.47295e-17)
(0.0582005 -3.37382e-18 1.70542e-17)
(0.0637265 -8.45002e-18 5.62498e-17)
(0.0637265 -3.82248e-18 1.76861e-17)
(0.0693318 -9.2844e-18 5.78051e-17)
(0.0693318 -4.28221e-18 1.83498e-17)
(0.0750173 -1.01471e-17 5.93963e-17)
(0.0750173 -4.73811e-18 1.90471e-17)
(0.0807843 -1.1034e-17 6.10225e-17)
(0.0807843 -5.17302e-18 1.97803e-17)
(0.0866336 -1.19296e-17 6.26848e-17)
(0.0866336 -5.62517e-18 2.05508e-17)
(0.0925664 -1.28364e-17 6.43829e-17)
(0.0925664 -6.14409e-18 2.13596e-17)
(0.0985835 -1.37136e-17 6.61174e-17)
(0.0985835 -6.64015e-18 2.22077e-17)
(0.104686 -1.46272e-17 6.7889e-17)
(0.104686 -7.10658e-18 2.30964e-17)
(0.110874 -1.56152e-17 6.96954e-17)
(0.110874 -7.57849e-18 2.40274e-17)
(0.11715 -1.66397e-17 7.15371e-17)
(0.11715 -8.05183e-18 2.50026e-17)
(0.123513 -1.7644e-17 7.3413e-17)
(0.123513 -8.5604e-18 2.60236e-17)
(0.129964 -1.87091e-17 7.53223e-17)
(0.129964 -9.08482e-18 2.70929e-17)
(0.136504 -1.99023e-17 7.72603e-17)
(0.136504 -9.58009e-18 2.82102e-17)
(0.143132 -2.11209e-17 7.92263e-17)
(0.143132 -1.00754e-17 2.93745e-17)
(0.149848 -2.23402e-17 8.12195e-17)
(0.149848 -1.06907e-17 3.05875e-17)
(0.156653 -2.34551e-17 8.32359e-17)
(0.156653 -1.13982e-17 3.18478e-17)
(0.163546 -2.45131e-17 8.52746e-17)
(0.163546 -1.21477e-17 3.31622e-17)
(0.170525 -2.56397e-17 8.73281e-17)
(0.170525 -1.29997e-17 3.45292e-17)
(0.17759 -2.68779e-17 8.93921e-17)
(0.17759 -1.37677e-17 3.59437e-17)
(0.184738 -2.81936e-17 9.14575e-17)
(0.184738 -1.44568e-17 3.74012e-17)
(0.191967 -2.95188e-17 9.3518e-17)
(0.191967 -1.52643e-17 3.89031e-17)
(0.199275 -3.0782e-17 9.55628e-17)
(0.199275 -1.62556e-17 4.04545e-17)
(0.206657 -3.20831e-17 9.75855e-17)
(0.206657 -1.71582e-17 4.20472e-17)
(0.214111 -3.35076e-17 9.95753e-17)
(0.214111 -1.80804e-17 4.36789e-17)
(0.221631 -3.49296e-17 1.01521e-16)
(0.221631 -1.89702e-17 4.53402e-17)
(0.229212 -3.64443e-17 1.03411e-16)
(0.229212 -1.98968e-17 4.70368e-17)
(0.236848 -3.8018e-17 1.05233e-16)
(0.236848 -2.09416e-17 4.87595e-17)
(0.244533 -3.94895e-17 1.06975e-16)
(0.244533 -2.17626e-17 5.05006e-17)
(0.25226 -4.08398e-17 1.08631e-16)
(0.25226 -2.26808e-17 5.22567e-17)
(0.260021 -4.22288e-17 1.10193e-16)
(0.260021 -2.40355e-17 5.40237e-17)
(0.267808 -4.37961e-17 1.11654e-16)
(0.267808 -2.52973e-17 5.57994e-17)
(0.275613 -4.55475e-17 1.12994e-16)
(0.275613 -2.61412e-17 5.75819e-17)
(0.283427 -4.72506e-17 1.1421e-16)
(0.283427 -2.72559e-17 5.9356e-17)
(0.291241 -4.88462e-17 1.15292e-16)
(0.291241 -2.80697e-17 6.11287e-17)
(0.299046 -5.07799e-17 1.16233e-16)
(0.299046 -2.88293e-17 6.28904e-17)
(0.306834 -5.27891e-17 1.17029e-16)
(0.306834 -2.98213e-17 6.46497e-17)
(0.314595 -5.46949e-17 1.17674e-16)
(0.314595 -3.0606e-17 6.63988e-17)
(0.322322 -5.64126e-17 1.18169e-16)
(0.322322 -3.12305e-17 6.81424e-17)
(0.330005 -5.79666e-17 1.18521e-16)
(0.330005 -3.24017e-17 6.98712e-17)
(0.337637 -5.96295e-17 1.18741e-16)
(0.337637 -3.37734e-17 7.15733e-17)
(0.345212 -6.11518e-17 1.18826e-16)
(0.345212 -3.50494e-17 7.32609e-17)
(0.352722 -6.26796e-17 1.18781e-16)
(0.352722 -3.63812e-17 7.4934e-17)
(0.360162 -6.43681e-17 1.18615e-16)
(0.360162 -3.7262e-17 7.65941e-17)
(0.367526 -6.58944e-17 1.18335e-16)
(0.367526 -3.81405e-17 7.8263e-17)
(0.374809 -6.73068e-17 1.17941e-16)
(0.374809 -3.93421e-17 7.99253e-17)
(0.382008 -6.89301e-17 1.1745e-16)
(0.382008 -4.06175e-17 8.15661e-17)
(0.389119 -7.05819e-17 1.16862e-16)
(0.389119 -4.20018e-17 8.32093e-17)
(0.396138 -7.21635e-17 1.16182e-16)
(0.396138 -4.33601e-17 8.48627e-17)
(0.403065 -7.36821e-17 1.15421e-16)
(0.403065 -4.46472e-17 8.65258e-17)
(0.409897 -7.52265e-17 1.14586e-16)
(0.409897 -4.5733e-17 8.81927e-17)
(0.416632 -7.67594e-17 1.13689e-16)
(0.416632 -4.70558e-17 8.98655e-17)
(0.423271 -7.83193e-17 1.1273e-16)
(0.423271 -4.83411e-17 9.15533e-17)
(0.429812 -8.04591e-17 1.11721e-16)
(0.429812 -4.9527e-17 9.32709e-17)
(0.436256 -8.29422e-17 1.10661e-16)
(0.436256 -5.12348e-17 9.50125e-17)
(0.442604 -8.47988e-17 1.0955e-16)
(0.442604 -5.24805e-17 9.67497e-17)
(0.448855 -8.60555e-17 1.08419e-16)
(0.448855 -5.37062e-17 9.84954e-17)
(0.455011 -8.73107e-17 1.07253e-16)
(0.455011 -5.52564e-17 1.00304e-16)
(0.461072 -8.83582e-17 1.06048e-16)
(0.461072 -5.70579e-17 1.02158e-16)
(0.467041 -8.92666e-17 1.04839e-16)
(0.467041 -5.88492e-17 1.04035e-16)
(0.472918 -9.06037e-17 1.036e-16)
(0.472918 -6.05397e-17 1.05951e-16)
(0.478705 -9.22087e-17 1.02334e-16)
(0.478705 -6.22823e-17 1.07893e-16)
(0.484404 -9.31905e-17 1.01052e-16)
(0.484404 -6.36582e-17 1.09889e-16)
(0.490016 -9.41336e-17 9.97692e-17)
(0.490016 -6.51156e-17 1.11966e-16)
(0.495544 -9.5468e-17 9.84691e-17)
(0.495544 -6.67232e-17 1.14108e-16)
(0.500989 -9.7083e-17 9.71634e-17)
(0.500989 -6.74505e-17 1.1628e-16)
(0.506353 -9.8829e-17 9.58296e-17)
(0.506353 -6.81279e-17 1.18549e-16)
(0.511638 -1.00051e-16 9.44776e-17)
(0.511638 -6.94351e-17 1.20877e-16)
(0.516846 -1.00681e-16 9.3137e-17)
(0.516846 -7.07742e-17 1.23267e-16)