/*--------------------------------*- C++ -*----------------------------------*\
| =========                 |                                                 |
| \\      /  F ield         | OpenFOAM: The Open Source CFD Toolbox           |
|  \\    /   O peration     | Version:  2012                                  |
|   \\  /    A nd           | Website:  www.openfoam.com                      |
|    \\/     M anipulation  |                                                 |
\*---------------------------------------------------------------------------*/
FoamFile
{
    version     2.0;
    format      ascii;
    class       volTensorField;
    location    "13400";
    object      grad(U);
}
// * * * * * * * * * * * * * * * * * * * * * * * * * * * * * * * * * * * * * //

dimensions      [0 0 -1 0 0 0 0];


internalField   nonuniform List<tensor> 
2560
(
(0 -7.8476e-23 -1.55419e-16 1152.82 0.00022062 -0.00698993 1.66975 5.05256e-08 -9.95348e-06)
(0 3.03399e-18 -2.23221e-21 1152.82 -7.24957e-05 -5.79022e-07 1.66975 7.61046e-08 9.94843e-06)
(1.15355e-15 -2.75027e-22 -1.12208e-16 1151.41 0.000197701 1.62748e-23 5.02946 3.3432e-07 -1.69407e-21)
(-1.15355e-15 1.37513e-22 -4.40043e-21 1151.41 -8.34624e-05 -1.85504e-06 5.02946 3.87253e-07 1.50096e-05)
(-2.13049e-16 2.32914e-18 -1.2097e-21 1149.94 4.3003e-05 0.00197343 6.8986 1.28143e-07 -6.47751e-06)
(0 -4.74399e-22 4.33736e-21 1149.94 -0.000195124 -3.00901e-06 6.89861 4.3465e-07 1.33866e-05)
(6.79167e-16 1.13255e-20 -3.20639e-21 1148.38 1.40924e-05 0.00269731 6.98917 2.69667e-08 -9.10213e-06)
(0 -5.30224e-22 3.20639e-21 1148.39 -0.000212092 -2.87757e-06 6.98918 7.48521e-08 9.1014e-06)
(2.20931e-15 8.88873e-22 -5.2674e-21 1146.74 3.16878e-05 0.00195478 7.0804 -2.13446e-07 -5.22748e-06)
(0 5.17615e-18 4.21392e-21 1146.75 -7.1603e-05 -1.99436e-06 7.08041 -1.65788e-07 5.22706e-06)
(1.62999e-15 6.48988e-22 -5.1919e-22 1145.04 5.32254e-05 0.00102108 7.17254 -1.81261e-07 -3.11311e-06)
(1.52176e-14 -1.21895e-18 5.1919e-22 1145.04 -1.45572e-05 -1.6827e-06 7.17254 -4.52984e-08 3.11286e-06)
(-2.11473e-15 5.27741e-22 -5.11749e-22 1143.32 4.13654e-05 0.000517514 7.26591 -1.14125e-07 -2.05251e-06)
(8.45892e-15 -1.0597e-21 1.0235e-21 1143.32 -8.24369e-06 -1.80921e-06 7.26592 -5.89008e-08 2.05234e-06)
(-2.60573e-15 -1.05612e-21 5.04414e-22 1141.63 2.61853e-05 0.000286332 7.36088 -7.69188e-08 -1.47711e-06)
(1.04229e-14 6.62044e-22 -2.52207e-22 1141.63 -1.0539e-05 -2.14783e-06 7.36088 -2.93029e-08 1.47699e-06)
(3.10304e-15 6.60323e-22 -4.97185e-22 1140.03 1.9437e-05 0.000175195 7.45776 -6.41935e-08 -1.13019e-06)
(4.17069e-15 -1.05652e-21 4.97185e-22 1140.03 -9.07829e-06 -2.52665e-06 7.45776 -1.66258e-08 1.13009e-06)
(0 -7.96345e-22 3.67544e-22 1138.55 1.53978e-05 0.000116874 7.55686 -4.32061e-08 -9.00454e-07)
(-4.11091e-15 3.98173e-22 -1.22515e-22 1138.55 -7.98349e-06 -2.89335e-06 7.55686 4.3835e-09 9.00375e-07)
(-4.11704e-15 1.45665e-21 -4.69476e-22 1137.23 1.13407e-05 8.38002e-05 7.65846 -3.98855e-08 -6.38115e-07)
(0 -1.58496e-21 6.03794e-22 1137.23 -8.46406e-06 -3.26664e-06 7.65846 7.69984e-09 7.3575e-07)
(4.63397e-15 2.25037e-21 -6.12852e-22 1136.1 1.04154e-05 6.3934e-05 7.76279 -3.35734e-08 -4.81889e-07)
(0 -2.11647e-21 4.76112e-22 1136.1 -6.83583e-06 -3.64296e-06 7.76279 1.40402e-08 6.09463e-07)
(7.87334e-15 6.63602e-22 -3.51966e-22 1135.18 8.65558e-06 5.15521e-05 7.87008 -2.77529e-08 -3.852e-07)
(0 -1.05956e-21 3.51966e-22 1135.18 -6.67372e-06 -4.02537e-06 7.87008 1.9879e-08 5.06626e-07)
(-5.68851e-15 -7.95028e-22 2.44331e-22 1134.49 7.63191e-06 4.37168e-05 7.98047 -2.67978e-08 -3.2426e-07)
(2.2754e-14 3.97514e-22 0 1134.49 -6.22451e-06 -4.4246e-06 7.98047 2.08685e-08 4.18246e-07)
(0 -2.11581e-21 2.27966e-22 1134.04 6.69358e-06 3.88136e-05 8.0941 -2.28284e-08 -2.86223e-07)
(0 2.11581e-21 -2.27966e-22 1134.04 -5.99727e-06 -4.8377e-06 8.0941 2.48651e-08 3.38554e-07)
(-6.77191e-15 0 0 1133.82 6.27209e-06 3.59051e-05 8.21104 -2.43849e-08 -2.6365e-07)
(2.70876e-14 0 0 1133.81 -5.48294e-06 -5.26394e-06 8.21104 2.33432e-08 2.6361e-07)
(0 -2.11789e-21 1.66109e-22 1133.82 6.22785e-06 3.44229e-05 8.3313 -1.99631e-08 -1.90608e-07)
(-2.92999e-14 2.11789e-21 -1.66109e-22 1133.82 -4.76176e-06 -5.70482e-06 8.3313 2.77989e-08 1.9057e-07)
(0 -2.11482e-21 5.4576e-23 1134.04 4.90755e-06 3.40138e-05 8.45484 -1.9079e-08 -1.17291e-07)
(-3.15437e-14 2.11482e-21 -5.4576e-23 1134.04 -5.45057e-06 -6.16993e-06 8.45484 2.87183e-08 1.17255e-07)
(0 5.24489e-22 -5.37938e-23 1134.45 4.83825e-06 3.4447e-05 8.58156 -2.20166e-08 -4.19005e-08)
(0 -1.05906e-21 5.37938e-23 1134.45 -4.99075e-06 3.14803e-06 8.58156 2.58157e-08 4.18667e-08)
(9.03248e-15 -1.59068e-21 0 1135.03 5.42402e-06 3.55654e-05 8.71131 -1.9631e-08 -4.96814e-15)
(-3.61299e-14 2.1176e-21 0 1135.02 -3.96009e-06 2.4493e-05 8.71131 2.82348e-08 -5.28538e-15)
(0 -2.11664e-21 0 1135.72 4.7015e-06 3.72709e-05 8.84384 -1.64537e-08 -7.38539e-16)
(0 2.11664e-21 0 1135.72 -4.30384e-06 3.72703e-05 8.84384 3.14489e-08 -7.95204e-16)
(-1.02135e-14 5.31235e-22 0 1136.51 3.25166e-06 3.95012e-05 8.97885 -1.8149e-08 4.03312e-15)
(0 -1.05925e-21 0 1136.51 -5.43085e-06 3.95006e-05 8.97885 2.97867e-08 4.35116e-15)
(2.81243e-15 2.90689e-21 5.07754e-23 1137.32 4.75669e-06 3.65096e-05 9.11597 -2.50546e-08 9.54309e-15)
(1.36299e-14 -3.17664e-21 0 1137.32 -2.60139e-06 4.22031e-05 9.11597 2.29169e-08 1.01728e-14)
(0 -1.58745e-21 0 1138.12 4.89319e-06 2.13145e-05 9.25478 -1.3647e-08 -2.2811e-08)
(-4.57231e-14 2.11764e-21 0 1138.12 -3.27691e-06 4.53446e-05 9.25477 3.43559e-08 2.28398e-08)
(3.85376e-14 -2.11812e-21 9.86607e-23 1138.83 3.31026e-06 1.06712e-05 9.39474 -1.86735e-08 -9.73392e-08)
(-2.6484e-14 2.11812e-21 -9.86607e-23 1138.83 -4.65831e-06 4.8919e-05 9.39473 2.93655e-08 9.73667e-08)
(-2.53718e-14 -2.64693e-21 1.94493e-22 1139.39 2.84509e-06 1.13069e-05 9.53524 -1.91561e-08 -1.79446e-07)
(0 2.64693e-21 -1.94493e-22 1139.39 -4.94654e-06 5.29191e-05 9.53524 2.89143e-08 1.79473e-07)
(1.42539e-14 2.91153e-21 -2.87559e-22 1139.72 4.79533e-06 1.19683e-05 9.67566 -2.74824e-08 -2.70232e-07)
(1.32355e-13 5.72395e-24 2.87559e-22 1139.72 4.23516e-22 5.73294e-05 9.67566 2.06227e-08 2.70258e-07)
(-2.53615e-14 8.89238e-20 -3.77916e-22 1139.77 1.58138e-06 1.26836e-05 9.81528 -1.0812e-08 -3.70655e-07)
(8.12818e-14 -2.11692e-21 3.77916e-22 1139.77 -3.26455e-06 6.21538e-05 9.81528 3.73234e-08 3.70682e-07)
(1.4642e-14 -1.0593e-21 1.8625e-22 1139.43 2.81989e-06 1.34219e-05 9.95328 -2.34848e-08 -4.81795e-07)
(0 7.94472e-22 -1.8625e-22 1139.43 -4.58981e-06 6.74134e-05 9.95328 2.4685e-08 4.81821e-07)
(-3.06277e-14 0 0 1138.64 1.59126e-06 1.41612e-05 10.0888 -1.83881e-08 -6.04911e-07)
(-1.22511e-13 0 0 1138.64 -4.49972e-06 7.31171e-05 10.0888 2.98122e-08 6.04937e-07)
(-1.59956e-14 -1.06308e-21 5.42848e-22 1137.31 4.42285e-06 1.49326e-05 10.2208 -3.10225e-08 -7.4131e-07)
(-6.39823e-14 3.51526e-19 -8.04305e-22 1137.31 0 5.30697e-05 10.2208 1.72104e-08 2.70336e-07)
(0 2.23715e-19 7.13423e-22 1135.35 4.44494e-07 1.57629e-05 10.3485 -1.10585e-08 -7.74282e-07)
(-6.67482e-14 2.64607e-21 -1.63866e-18 1135.35 -3.05507e-06 1.72093e-21 10.3485 3.72038e-08 1.05879e-22)
(0 2.12058e-21 -3.51599e-22 1132.67 2.22924e-06 1.66145e-05 10.4708 -2.64026e-08 -7.29765e-07)
(6.95527e-14 -2.12058e-21 7.39945e-22 1132.67 -4.91355e-06 -2.85913e-06 10.4708 2.18914e-08 3.03415e-08)
(-1.80987e-14 0 0 1129.2 3.20029e-06 1.74719e-05 10.5864 -2.3292e-08 -6.84801e-07)
(0 -5.30669e-22 0 1129.2 -3.91116e-06 -1.97e-06 10.5864 2.50316e-08 2.21499e-08)
(-1.88183e-14 -2.1136e-21 6.83185e-22 1124.84 4.42178e-06 1.83782e-05 10.6944 -2.98192e-08 -6.39128e-07)
(0 2.2019e-19 -6.83185e-22 1124.84 -8.11078e-07 -1.16153e-06 10.6944 1.85338e-08 1.453e-08)
(-1.95466e-14 6.50623e-20 3.36697e-22 1119.52 1.37787e-06 1.9345e-05 10.7936 -1.48818e-08 -5.92381e-07)
(-1.00782e-13 1.32311e-21 -6.61517e-22 1119.52 -3.39778e-06 -4.22199e-07 10.7936 3.34997e-08 7.39256e-09)
(2.02832e-14 1.06302e-21 0 1113.14 2.24141e-06 2.0332e-05 10.8827 -2.86964e-08 -5.4427e-07)
(0 -1.06302e-21 0 1113.14 -4.83537e-06 2.57626e-07 10.8827 1.9713e-08 5.72501e-09)
(2.10275e-14 1.58957e-21 -6.54229e-22 1105.63 3.19485e-06 2.13304e-05 10.9604 -2.74374e-08 -4.94647e-07)
(0 -1.58957e-21 6.54229e-22 1105.63 -3.89157e-06 8.86017e-07 10.9604 2.10001e-08 1.18228e-08)
(-2.1779e-14 -1.05796e-21 0 1096.92 4.34026e-06 2.23831e-05 11.0255 -3.22182e-08 -4.43286e-07)
(-4.32753e-14 7.95989e-22 0 1096.92 -2.063e-06 1.46972e-06 11.0255 1.62445e-08 1.7677e-08)
(0 2.61779e-20 6.35609e-22 1086.93 3.59907e-06 2.35069e-05 11.0769 -1.94536e-08 -3.89841e-07)
(0 2.11787e-21 -6.35609e-22 1086.93 -3.19237e-06 2.01446e-06 11.0769 2.90354e-08 2.33266e-08)
(-2.33005e-14 -5.28609e-22 0 1075.6 2.44413e-06 2.46643e-05 11.1131 -2.8624e-08 -3.3401e-07)
(9.32021e-14 2.64305e-22 -1.43741e-22 1075.6 -4.7218e-06 2.52502e-06 11.1131 1.98879e-08 2.88043e-08)
(0 2.1179e-21 -6.1752e-22 1062.87 2.57865e-06 2.58268e-05 11.1329 -3.11929e-08 -2.75639e-07)
(9.62756e-14 -2.1179e-21 7.51667e-22 1062.87 -4.62908e-06 3.00541e-06 11.1329 1.73445e-08 3.41375e-08)
(2.48411e-14 -1.58825e-21 0 1048.68 5.27316e-06 2.7054e-05 11.1351 -3.94337e-08 -2.14577e-07)
(-9.93644e-14 2.07849e-19 -4.01692e-22 1048.68 0 3.45894e-06 11.1351 9.12308e-09 3.93485e-08)
(2.56161e-14 2.03147e-19 0 1032.98 0 2.83473e-05 11.1184 -1.35452e-08 -1.50359e-07)
(0 -1.05928e-21 0 1032.98 -4.68743e-06 3.88834e-06 11.1184 3.50347e-08 4.44552e-08)
(-2.63927e-14 5.26668e-22 0 1015.74 3.84057e-06 2.96761e-05 11.0816 -5.10107e-08 -8.28212e-08)
(0 0 0 1015.74 0 4.29578e-06 11.0816 1.4618e-37 4.94712e-08)
(2.71696e-14 1.15388e-19 0 996.912 -4.23516e-22 3.10315e-05 11.0237 -1.14209e-08 -1.16511e-08)
(1.08679e-13 7.94618e-22 -5.82871e-22 996.912 -5.13246e-06 1.59824e-05 11.0237 3.71967e-08 1.18088e-08)
(3.85552e-14 7.89961e-22 5.74517e-22 976.484 4.99674e-06 3.2438e-05 10.9433 -6.73e-08 2.18229e-11)
(1.11783e-13 1.88079e-37 0 976.483 -8.47033e-22 3.03195e-05 10.9433 -3.30872e-24 -1.9567e-11)
(-2.87194e-14 1.37341e-19 0 954.435 0 3.39704e-05 10.8397 -4.1359e-25 2.36811e-11)
(0 -5.29784e-22 0 954.435 -1.98567e-06 3.39699e-05 10.8397 5.19027e-08 -2.06545e-11)
(-2.94894e-14 0 0 930.755 -2.17997e-06 3.54601e-05 10.7116 -4.73244e-08 2.43607e-11)
(0 -5.23281e-22 0 930.755 -9.90093e-06 3.54596e-05 10.7116 1.33168e-09 -2.21106e-11)
(0 7.99461e-22 5.50167e-22 905.443 3.11219e-06 3.68402e-05 10.5583 -6.64946e-08 2.63749e-11)
(0 -1.06595e-21 0 905.443 -4.57757e-06 3.68397e-05 10.5583 -1.78232e-08 -2.33142e-11)
(-3.10114e-14 5.33808e-22 0 878.525 1.8209e-05 3.85919e-05 10.3791 -5.65967e-08 2.71898e-11)
(0 1.88079e-37 0 878.525 1.69407e-21 3.85913e-05 10.3791 0 -2.49764e-11)
(0 1.44691e-23 0 850.02 -1.68683e-21 4.02943e-05 10.1733 0 3.00009e-11)
(-1.62911e-13 2.38859e-21 0 850.02 -2.2304e-05 4.02937e-05 10.1733 1.52946e-07 -2.69372e-11)
(-6.78547e-14 2.93059e-21 0 819.941 9.69372e-06 4.17331e-05 9.93992 -2.81581e-07 3.08513e-11)
(1.29994e-13 0 0 819.941 1.05556e-20 4.17325e-05 9.93992 -3.89224e-35 -2.87144e-11)
(0 2.88596e-19 0 788.344 -1.71892e-21 4.35684e-05 9.67915 2.64698e-23 3.33967e-11)
(0 2.92105e-21 0 788.344 4.7669e-06 4.35679e-05 9.67915 2.2777e-07 -3.03627e-11)
(-3.39361e-14 -1.0557e-21 0 755.285 -1.32815e-05 4.52182e-05 9.39026 -1.76521e-07 3.36282e-11)
(1.35744e-13 0 0 755.285 0 4.52176e-05 9.39026 0 -3.16076e-11)
(3.54057e-14 1.05634e-21 0 720.813 2.14862e-05 4.68883e-05 9.07315 -3.84251e-08 3.68435e-11)
(1.72384e-13 -1.05634e-21 0 720.813 1.29091e-05 4.68875e-05 9.07315 1.02585e-08 -3.38757e-11)
(0 6.01246e-24 0 685.008 -1.69707e-21 4.86431e-05 8.728 0 3.83396e-11)
(0 -1.05674e-21 0 685.008 -1.85979e-05 4.86424e-05 8.728 9.19941e-08 -3.64894e-11)
(-3.59666e-14 5.5143e-22 0 647.958 8.45693e-06 5.01332e-05 8.35489 -2.25975e-07 4.1525e-11)
(0 5.64237e-37 0 647.958 -7.45217e-21 5.01326e-05 8.35488 -2.64698e-23 -3.86757e-11)
(-7.32038e-14 0 0 609.763 -3.39511e-21 5.18064e-05 7.95445 1.32349e-23 4.24471e-11)
(1.46408e-13 2.64214e-21 0 609.763 -1.07618e-06 5.18057e-05 7.95444 1.49191e-07 -4.08282e-11)
(-3.72131e-14 0 0 570.531 1.112e-06 5.34531e-05 7.5271 -1.84351e-07 4.59629e-11)
(0 0 0 570.531 1.70348e-21 5.34523e-05 7.5271 -2.64698e-23 -4.32944e-11)
(-6.92982e-14 1.31216e-19 0 530.372 8.54947e-22 5.50157e-05 7.07364 0 4.74506e-11)
(1.82693e-13 -1.05612e-21 0 530.372 -2.84288e-06 5.5015e-05 7.07364 1.05633e-07 -4.61508e-11)
(-3.83556e-14 -1.04098e-21 0 489.411 -8.66357e-06 5.61899e-05 6.595 -1.62461e-07 5.02354e-11)
(-6.20968e-14 7.80734e-22 -9.25314e-22 489.411 -4.48706e-08 5.61892e-05 6.595 -3.13374e-10 -4.7834e-11)
(-7.77659e-14 -1.58184e-21 0 447.792 2.14563e-05 5.73745e-05 6.0927 -1.28789e-07 5.26163e-11)
(-1.55532e-13 4.45401e-23 0 447.792 5.56752e-24 5.73735e-05 6.0927 -1.32349e-23 -5.17164e-11)
(-1.39087e-13 0 0 405.674 -5.15334e-24 5.88566e-05 5.56831 0 5.64416e-11)
(3.15028e-13 -2.12103e-21 0 405.674 -7.81285e-06 5.88559e-05 5.56831 1.22794e-07 -5.43886e-11)
(-1.19522e-13 -3.68283e-21 0 363.199 -1.40482e-05 5.95913e-05 5.02309 -1.73515e-07 5.70407e-11)
(-2.18827e-13 4.65008e-19 0 363.199 -1.80229e-05 5.95905e-05 5.02309 -1.25029e-07 -5.66445e-11)
(-4.02673e-14 2.92042e-21 0 320.532 2.71789e-05 6.02905e-05 4.45946 -2.02228e-07 6.1998e-11)
(1.61069e-13 0 0 320.532 -2.13405e-23 6.02896e-05 4.45946 -2.64698e-23 -6.03999e-11)
(4.06572e-14 4.33557e-23 0 277.862 -3.38813e-21 6.09164e-05 3.87967 0 6.3346e-11)
(0 -1.31822e-21 0 277.862 -2.48131e-05 6.09156e-05 3.87967 2.04613e-07 -6.35422e-11)
(0 3.18202e-21 0 235.362 2.42704e-05 6.1393e-05 3.28598 -5.04406e-07 6.76725e-11)
(1.64035e-13 0 0 235.362 8.47033e-21 6.13922e-05 3.28598 -2.79439e-34 -6.66098e-11)
(5.61283e-14 3.09529e-48 0 193.211 6.35049e-23 6.1611e-05 2.6811 5.29396e-23 6.94471e-11)
(1.65283e-13 -1.30684e-21 0 193.211 -2.79174e-05 6.16102e-05 2.6811 5.05916e-07 -7.03423e-11)
(-5.53239e-14 -1.13354e-21 -1.64878e-21 151.594 1.70372e-05 6.13547e-05 2.06784 -8.70007e-07 7.40618e-11)
(1.66368e-13 0 0 151.594 -1.49089e-38 6.13539e-05 2.06784 1.05879e-22 -7.36502e-11)
(0 1.89358e-19 0 110.707 -1.09197e-20 6.13395e-05 1.44948 -1.05879e-22 7.53279e-11)
(0 3.2503e-21 0 110.707 -5.42738e-06 6.13388e-05 1.44948 7.08877e-07 -7.70032e-11)
(-8.40158e-14 0 0 70.7287 -5.14127e-06 6.0877e-05 0.828763 -8.91511e-07 7.97441e-11)
(0 0 0 70.7287 -1.70577e-20 6.08763e-05 0.828762 0 -8.00541e-11)
(2.1283e-13 6.01224e-19 0 25.5604 1.00937e-20 6.03858e-05 0.209235 0 8.08612e-11)
(5.94269e-13 -3.45384e-21 0 25.5603 6.59469e-06 6.03851e-05 0.209234 5.57747e-07 -8.34035e-11)
(9.65221e-14 -1.84807e-21 0 -0.00843536 -6.70603e-06 5.98317e-05 7.00551e-05 -7.10691e-07 8.54973e-11)
(1.6878e-13 -9.40395e-38 -1.55627e-21 -0.00849417 1.34606e-20 5.9831e-05 7.05436e-05 1.53146e-37 -8.66184e-11)
(-4.21105e-14 2.42922e-19 0 -41.981 -6.77626e-21 5.91515e-05 0.405839 0 8.68336e-11)
(0 -8.14917e-22 0 -41.981 3.31411e-06 5.91508e-05 0.40584 3.68458e-07 -9.0261e-11)
(4.19558e-14 -1.88997e-21 0 -76.609 -9.34877e-06 5.82663e-05 1.01342 -5.72305e-07 9.15402e-11)
(0 1.35689e-18 0 -76.609 0 5.82657e-05 1.01342 0 -9.34574e-11)
(5.00064e-14 7.63915e-19 0 -109.524 -2.02902e-23 5.75335e-05 1.61037 0 9.20158e-11)
(-5.00064e-14 -2.11903e-21 0 -109.524 1.23209e-05 5.7533e-05 1.61037 1.20953e-07 -9.63308e-11)
(4.92896e-14 1.28533e-21 2.93789e-21 -140.595 -1.3007e-05 5.68372e-05 2.19322 -2.64597e-07 9.6325e-11)
(0 -2.11161e-21 0 -140.595 -1.0048e-05 5.68365e-05 2.19322 -8.84081e-08 -9.90547e-11)
(-3.39332e-14 1.04067e-21 0 -169.725 2.28879e-05 5.6179e-05 2.75902 -2.56592e-07 9.78462e-11)
(0 2.89875e-23 0 -169.725 -2.89875e-23 5.61782e-05 2.75902 -5.29396e-23 -1.02993e-10)
(-8.884e-14 0 0 -196.838 -1.24749e-21 5.55729e-05 3.30518 -2.94769e-37 1.02966e-10)
(4.78869e-14 2.11841e-21 0 -196.838 -2.44469e-05 5.55723e-05 3.30518 8.81692e-08 -1.06442e-10)
(4.06147e-14 0 0 -221.866 1.91701e-05 5.49086e-05 3.82914 -5.98102e-07 1.03671e-10)
(-2.09659e-13 3.05602e-22 0 -221.866 1.52801e-22 5.4908e-05 3.82914 -1.05879e-22 -1.09611e-10)
(4.6524e-14 4.17865e-20 0 -244.76 4.48765e-21 5.46972e-05 4.32853 0 1.08712e-10)
(-1.6098e-13 -2.12312e-21 0 -244.76 -1.06888e-05 5.46967e-05 4.32853 3.40975e-07 -1.1291e-10)
(-3.98463e-14 -2.39164e-21 0 -265.502 1.33981e-07 5.42312e-05 4.80115 -6.98144e-07 1.09018e-10)
(2.72913e-13 9.62965e-35 0 -265.502 0 5.42307e-05 4.80116 -1.05879e-22 -1.15626e-10)
(3.94206e-14 6.64129e-19 0 -284.093 0 5.40356e-05 5.24568 2.64698e-23 1.13875e-10)
(1.57682e-13 3.45185e-21 0 -284.093 3.08833e-06 5.40351e-05 5.24568 2.41693e-07 -1.18645e-10)
(0 0 0 -300.542 2.41247e-06 5.4192e-05 5.66048 -5.32709e-07 1.143e-10)
(0 9.40395e-37 0 -300.542 6.77626e-21 5.41914e-05 5.66048 0 -1.21469e-10)
(-3.84975e-14 5.43124e-20 0 -314.889 1.81623e-23 5.42429e-05 6.04447 0 1.19931e-10)
(1.5399e-13 -4.23291e-21 0 -314.89 -8.63826e-06 5.42423e-05 6.04447 1.78098e-07 -1.25207e-10)
(-3.80047e-14 -2.0962e-21 0 -327.196 7.80624e-06 5.43829e-05 6.39719 -5.90136e-07 1.20291e-10)
(-1.95303e-13 2.64482e-19 0 -327.196 9.22386e-22 5.43823e-05 6.39719 0 -1.27877e-10)
(3.74939e-14 1.68975e-19 0 -337.527 1.6702e-21 5.46047e-05 6.71832 0 1.26205e-10)
(1.49976e-13 -2.12576e-21 0 -337.527 -8.56979e-06 5.46041e-05 6.71833 2.19051e-07 -1.31852e-10)
(-3.69675e-14 -3.44646e-21 0 -345.961 4.79699e-06 5.47657e-05 7.00773 -6.46807e-07 1.26608e-10)
(1.4787e-13 -1.31655e-36 0 -345.961 8.55357e-21 5.47651e-05 7.00773 -1.89083e-37 -1.34542e-10)
(-3.64276e-14 4.70198e-37 0 -352.583 -3.36725e-21 5.53205e-05 7.26557 0 1.32621e-10)
(0 0 0 -352.583 2.43545e-06 5.532e-05 7.26557 1.97424e-07 -1.38603e-10)
(-3.58763e-14 0 0 -357.493 -2.99174e-06 5.59235e-05 7.49215 -4.70797e-07 1.32643e-10)
(0 -3.76158e-37 0 -357.493 3.44696e-21 5.59229e-05 7.49215 -5.29396e-23 -1.40772e-10)
(-3.53156e-14 1.48996e-19 0 -360.805 0 5.64048e-05 7.68838 -4.42499e-08 1.39891e-10)
(1.41262e-13 -3.17849e-21 0 -360.805 -1.5063e-06 5.64043e-05 7.68838 2.5632e-09 -1.46043e-10)
(3.47473e-14 2.07014e-21 0 -362.633 -2.52962e-06 5.67477e-05 7.85533 -3.66477e-07 1.39085e-10)
(0 3.76158e-37 0 -362.633 4.43716e-23 5.6747e-05 7.85533 -5.29396e-23 -1.47322e-10)
(3.91239e-14 1.34817e-21 0 -363.086 2.27313e-05 5.74328e-05 7.99407 -2.42492e-07 1.47357e-10)
(0 -2.14978e-21 0 -363.086 8.76808e-06 5.74321e-05 7.99407 -9.71924e-08 -1.53638e-10)
(-3.35954e-14 1.04526e-35 0 -362.278 9.40395e-38 5.8312e-05 8.10566 -1.14437e-08 1.47725e-10)
(0 -2.11673e-21 0 -362.278 -1.91047e-05 5.83112e-05 8.10566 3.51709e-08 -1.55931e-10)
(3.80105e-14 5.5224e-21 0 -360.335 3.51655e-06 5.84989e-05 8.19164 -5.23143e-07 1.56638e-10)
(2.64121e-13 -1.92593e-34 0 -360.335 -5.0822e-21 5.84984e-05 8.19164 -1.40806e-34 -1.62928e-10)
(-3.74657e-14 2.47175e-19 -4.46626e-21 -357.369 0 5.91943e-05 8.2538 -8.24755e-08 1.54169e-10)
(1.29735e-13 -1.04678e-21 0 -357.369 7.23164e-06 5.91936e-05 8.2538 -3.59859e-08 -1.62321e-10)
(-6.87815e-14 7.54525e-20 0 -353.485 -4.83356e-06 5.98347e-05 8.29328 -1.96141e-07 1.65808e-10)
(-1.27411e-13 4.23028e-21 0 -353.485 -2.24667e-05 5.9834e-05 8.29328 -1.49712e-07 -1.72116e-10)
(-3.12735e-14 -3.18656e-21 4.33915e-21 -348.795 1.89873e-05 6.03037e-05 8.31178 -4.43555e-07 1.64092e-10)
(-1.25094e-13 1.65361e-22 0 -348.795 4.84682e-21 6.03028e-05 8.31178 0 -1.72064e-10)
(0 7.34637e-20 0 -343.404 4.48079e-22 6.11227e-05 8.31109 1.32349e-23 1.77304e-10)
(0 1.60386e-21 0 -343.404 -1.14226e-05 6.1122e-05 8.31109 1.34814e-07 -1.83493e-10)
(0 -2.10783e-21 0 -337.413 -1.24535e-06 6.12924e-05 8.29273 -5.50223e-07 1.73225e-10)
(8.51326e-14 7.37619e-19 -4.21566e-21 -337.413 6.63639e-21 6.12916e-05 8.29273 0 -1.80989e-10)
(-5.30093e-15 2.15246e-19 -8.31047e-21 -330.912 -3.38813e-21 6.15983e-05 8.2585 -1.18922e-07 1.8827e-10)
(0 5.29143e-21 0 -330.912 4.57417e-06 6.15975e-05 8.2585 -7.27143e-08 -1.94348e-10)
(0 8.9913e-21 0 -323.984 3.75876e-06 6.22743e-05 8.20979 -2.51113e-07 1.83261e-10)
(2.31942e-13 -9.05259e-21 0 -323.984 -1.18458e-05 6.22732e-05 8.20979 -1.4975e-07 -1.90708e-10)
(3.38646e-14 7.64397e-20 0 -316.71 0 6.24866e-05 8.14807 -2.19765e-07 2.0308e-10)
(1.93623e-13 -2.11311e-21 0 -316.71 -1.22298e-05 6.24859e-05 8.14807 -1.73652e-07 -2.08956e-10)
(-5.57716e-14 0 0 -309.164 1.49554e-05 6.27835e-05 8.07494 -3.63775e-07 1.93762e-10)
(0 0 0 -309.164 -6.77626e-21 6.27824e-05 8.07494 0 -2.00927e-10)
(-2.73428e-14 2.21529e-20 0 -301.412 -4.23516e-22 6.30669e-05 7.99172 -3.84547e-08 2.19435e-10)
(2.18743e-13 -1.05713e-21 0 -301.412 -1.42439e-05 6.30661e-05 7.99172 7.56792e-09 -2.25167e-10)
(2.68074e-14 2.11415e-21 0 -293.518 1.09776e-05 6.31101e-05 7.89981 -5.2964e-07 2.0517e-10)
(0 -2.63311e-36 0 -293.518 -1.02986e-20 6.31088e-05 7.89981 -5.86794e-37 -2.11965e-10)
(-2.628e-14 1.13394e-19 0 -285.531 -1.68383e-21 6.33699e-05 7.80045 0 2.38266e-10)
(0 -1.05681e-21 0 -285.531 -5.90455e-06 6.33692e-05 7.80045 8.28279e-08 -2.43757e-10)
(-2.57607e-14 -2.11267e-21 0 -277.501 3.07612e-07 6.32404e-05 7.69464 -4.6702e-07 2.15916e-10)
(1.03043e-13 1.8789e-21 0 -277.501 -3.50501e-21 6.32389e-05 7.69464 0 -2.22376e-10)
(-2.52499e-14 1.19049e-19 0 -269.473 1.17507e-05 6.30704e-05 7.58364 -1.91825e-07 2.59487e-10)
(1.01e-13 1.59071e-21 0 -269.473 1.62065e-07 6.30696e-05 7.58364 -1.45939e-07 -2.64792e-10)
(-4.94954e-14 0 0 -261.479 8.48567e-06 6.32956e-05 7.46833 -2.17669e-07 2.28119e-10)
(0 0 0 -261.479 -9.96762e-06 6.32939e-05 7.46833 -1.7182e-07 -2.34175e-10)
(-5.44252e-14 3.72443e-21 0 -253.551 0 6.29148e-05 7.34941 -2.12575e-07 2.85401e-10)
(0 1.60164e-21 0 -253.551 -1.78231e-05 6.2914e-05 7.34941 -1.66736e-07 -2.90463e-10)
(2.97386e-14 1.60638e-21 0 -245.72 2.22667e-05 6.26928e-05 7.22796 -4.66989e-07 2.39214e-10)
(-9.50781e-14 0 0 -245.72 0 6.26908e-05 7.22796 -3.36541e-37 -2.44956e-10)
(2.32937e-14 4.47098e-23 0 -238.008 -2.11758e-21 6.23333e-05 7.10463 0 3.16304e-10)
(9.31747e-14 -2.64803e-21 0 -238.008 -2.29879e-05 6.23326e-05 7.10463 2.0689e-07 -3.2122e-10)
(2.28266e-14 2.58317e-21 0 -230.432 2.34047e-05 6.18941e-05 6.97996 -8.74854e-07 2.49574e-10)
(-9.13065e-14 4.5139e-36 0 -230.432 7.39318e-21 6.18918e-05 6.97996 -1.05879e-22 -2.54959e-10)
(-2.23684e-14 5.47613e-21 0 -223.01 5.29396e-23 6.15822e-05 6.85457 0 3.53576e-10)
(8.94736e-14 1.59134e-21 -6.78971e-21 -223.01 -1.96046e-05 6.15817e-05 6.85457 6.22295e-07 -3.58286e-10)
(0 -3.76447e-21 0 -215.753 1.7494e-05 6.10256e-05 6.72899 -1.18978e-06 2.57238e-10)
(0 -2.82119e-36 -6.6924e-21 -215.753 1.02699e-20 6.10229e-05 6.72899 0 -2.62352e-10)
(-2.76676e-14 4.43567e-20 -1.3193e-20 -208.673 0 6.03085e-05 6.60367 2.11758e-22 3.98786e-10)
(8.59123e-14 2.57675e-21 -6.59648e-21 -208.673 -1.82108e-05 6.03082e-05 6.60367 8.59289e-07 -4.03382e-10)
(2.10458e-14 3.86052e-21 0 -201.777 1.82309e-05 5.94508e-05 6.47897 -1.4635e-06 2.62002e-10)
(0 0 0 -201.777 -1.27055e-20 5.94475e-05 6.47897 -5.35755e-37 -2.66818e-10)
(0 1.90373e-19 0 -195.069 8.47033e-21 5.89605e-05 6.35527 0 4.55194e-10)
(-8.2488e-14 2.60355e-21 -6.40874e-21 -195.069 -1.05672e-05 5.89606e-05 6.35527 1.11453e-06 -4.59642e-10)
(-2.6495e-14 1.97403e-22 -6.31689e-21 -188.551 6.80072e-06 5.8071e-05 6.23269 -1.48884e-06 2.59992e-10)
(0 -3.5735e-36 0 -188.551 -1.3953e-20 5.80669e-05 6.23269 -2.19161e-37 -2.64635e-10)
(0 3.14614e-19 0 -182.227 0 5.72527e-05 6.11156 0 5.25344e-10)
(0 2.72403e-21 0 -182.227 -3.69918e-06 5.72532e-05 6.11156 9.81844e-07 -5.29763e-10)
(1.94001e-14 -7.86318e-21 0 -176.097 3.88283e-06 5.62602e-05 5.99212 -1.26688e-06 2.48885e-10)
(0 7.01411e-19 0 -176.097 1.99899e-20 5.62553e-05 5.99212 -2.11758e-22 -2.53349e-10)
(1.90088e-14 3.12243e-19 0 -170.158 1.85798e-22 5.50855e-05 5.87448 0 6.1432e-10)
(0 2.6465e-21 0 -170.158 -4.24393e-06 5.50867e-05 5.87448 7.15347e-07 -6.18678e-10)
(-3.72505e-14 0 0 -164.408 1.24593e-05 5.42664e-05 5.75868 -1.03269e-06 2.23715e-10)
(7.4501e-14 9.40395e-38 0 -164.408 -1.63929e-20 5.42602e-05 5.75868 -1.5203e-37 -2.28115e-10)
(-1.82494e-14 4.79214e-20 0 -158.844 0 5.28278e-05 5.64481 1.05879e-22 7.29367e-10)
(0 -2.11205e-21 0 -158.844 -1.85869e-05 5.28299e-05 5.64481 7.04155e-07 -7.33761e-10)
(-2.42966e-14 -2.17229e-21 0 -153.459 2.80976e-05 5.18276e-05 5.53294 -1.27889e-06 1.78855e-10)
(0 0 -1.15855e-20 -153.459 -9.635e-21 5.18197e-05 5.53294 0 -1.83206e-10)
(0 0 0 -148.249 2.30859e-22 5.05448e-05 5.42292 0 8.80092e-10)
(-2.39484e-14 2.67644e-21 0 -148.249 -2.86925e-05 5.05484e-05 5.42292 1.22497e-06 -8.84513e-10)
(-2.36051e-14 -3.86918e-21 -1.12558e-20 -143.208 2.8482e-05 4.89704e-05 5.31485 -1.89473e-06 1.04164e-10)
(0 7.33508e-36 -1.12558e-20 -143.208 -1.30395e-20 4.89604e-05 5.31485 2.11758e-22 -1.08605e-10)
(-2.32668e-14 7.71816e-20 0 -138.329 3.73357e-22 4.76485e-05 5.20864 0 1.0772e-09)
(1.34556e-13 2.42692e-21 0 -138.329 -2.09764e-05 4.76542e-05 5.20864 1.7529e-06 -1.08175e-09)
(-3.29596e-14 0 0 -133.605 2.62652e-05 4.63947e-05 5.10411 -2.23849e-06 -1.54799e-11)
(6.59192e-14 -1.88079e-37 0 -133.605 -6.08436e-22 4.63818e-05 5.10411 -4.23516e-22 1.09055e-11)
(3.87517e-14 2.95871e-22 0 -129.031 0 4.46078e-05 5.00128 0 1.33994e-09)
(0 -4.04203e-21 0 -129.031 -2.83809e-05 4.46162e-05 5.00129 2.17845e-06 -1.34463e-09)
(0 -2.32405e-21 0 -124.601 3.47754e-05 4.28953e-05 4.90009 -2.87393e-06 -1.96514e-10)
(-8.55649e-14 3.40643e-20 -1.06242e-20 -124.601 9.9651e-22 4.28785e-05 4.90009 -4.23516e-22 1.91674e-10)
(-1.55018e-14 -8.93376e-37 0 -120.309 -1.5899e-21 4.12328e-05 4.80039 4.23516e-22 1.69276e-09)
(4.00459e-14 -9.49023e-21 0 -120.309 -2.79841e-05 4.12452e-05 4.80039 2.9108e-06 -1.69767e-09)
(-2.16466e-14 -5.16094e-21 0 -116.15 3.59545e-05 3.96922e-05 4.70213 -3.51905e-06 -4.69099e-10)
(0 -6.95893e-36 -1.03219e-20 -116.15 2.51042e-20 3.96702e-05 4.70214 -4.23516e-22 4.63905e-10)
(0 1.20371e-35 0 -112.12 -1.00458e-21 3.76818e-05 4.60528 -4.23516e-22 2.17039e-09)
(0 -5.08697e-21 0 -112.12 -3.41117e-05 3.76996e-05 4.60528 3.66629e-06 -2.17555e-09)
(-1.45834e-14 0 0 -108.215 4.48836e-05 3.58941e-05 4.50981 -4.44586e-06 -8.7037e-10)
(0 8.55531e-36 0 -108.215 3.08238e-20 3.58649e-05 4.50981 0 8.64655e-10)
(-7.85095e-15 -2.25695e-36 1.97688e-20 -104.431 -4.3097e-21 3.37177e-05 4.41573 -1.81496e-37 2.82198e-09)
(1.1432e-13 -1.79155e-20 0 -104.431 -3.96958e-05 3.3743e-05 4.41573 4.7591e-06 -2.82748e-09)
(0 -4.87137e-21 0 -100.762 5.33246e-05 3.18422e-05 4.32292 -5.66335e-06 -1.4566e-09)
(-2.0432e-14 0 -9.74273e-21 -100.762 3.1175e-21 3.18033e-05 4.32292 -8.47033e-22 1.45023e-09)
(0 2.26782e-35 0 -97.2043 -4.06416e-20 2.96473e-05 4.23133 -8.47033e-22 3.71652e-09)
(0 2.40077e-21 -9.60309e-21 -97.2043 -4.4418e-05 2.96831e-05 4.23133 6.17972e-06 -3.7224e-09)
(-2.04913e-14 1.41982e-20 0 -93.753 6.16788e-05 2.78519e-05 4.14089 -7.16965e-06 -2.30718e-09)
(8.77276e-14 -4.81482e-35 0 -93.753 -7.90695e-21 2.77997e-05 4.14089 -8.47033e-22 2.3e-09)
(0 0 0 -90.4031 0 2.54817e-05 4.05148 0 4.95187e-09)
(1.05428e-13 -2.0992e-20 0 -90.4031 -5.18773e-05 2.5532e-05 4.05148 7.92911e-06 -4.95819e-09)
(-1.29158e-14 -5.74754e-21 0 -87.1503 7.3099e-05 2.35558e-05 3.96304 -9.12686e-06 -3.53439e-09)
(0 1.25993e-21 0 -87.1503 6.2638e-20 2.34856e-05 3.96304 0 3.52621e-09)
(3.16682e-14 1.40131e-21 0 -83.9896 -2.56523e-34 2.09026e-05 3.87545 1.69407e-21 6.66565e-09)
(8.22634e-14 -2.03946e-20 0 -83.9896 -5.97369e-05 2.09729e-05 3.87545 1.01457e-05 -6.67248e-09)
(0 1.11679e-20 0 -80.9164 9.15194e-05 1.92447e-05 3.78859 -1.16138e-05 -5.2994e-09)
(4.96329e-14 0 0 -80.9164 6.47308e-20 1.91496e-05 3.78859 -1.69407e-21 5.29002e-09)
(1.21633e-14 3.63813e-21 0 -77.927 -7.40389e-20 1.64253e-05 3.70238 0 9.05586e-09)
(0 -8.8063e-21 0 -77.927 -7.59446e-05 1.65235e-05 3.70238 1.31564e-05 -9.06323e-09)
(5.64498e-15 -2.17002e-21 0 -75.0175 0.000114774 1.47023e-05 3.61672 -1.51055e-05 -7.83085e-09)
(4.76969e-14 0 -8.68008e-21 -75.0175 8.80914e-20 1.45731e-05 3.61672 1.69407e-21 7.82008e-09)
(0 9.62965e-35 6.31148e-21 -72.185 9.52632e-21 1.13267e-05 3.53156 0 1.24019e-08)
(0 4.27784e-21 0 -72.185 -8.92616e-05 1.20132e-05 3.53156 1.72102e-05 -1.24098e-08)
(1.76854e-14 4.21653e-21 0 -69.4267 0.000137213 1.02472e-05 3.44683 -1.95927e-05 -1.14586e-08)
(4.58543e-14 0 0 -69.4267 2.32051e-19 1.00709e-05 3.44683 3.38813e-21 1.14462e-08)
(3.99158e-14 1.23414e-20 1.56325e-19 -66.7403 -2.43945e-19 0 3.36249 -3.38813e-21 -3.30872e-24)
(-1.74319e-14 -8.31218e-21 0 -66.7404 -0.00010452 3.69482e-06 3.36249 2.22818e-05 -1.71112e-08)
(2.82082e-14 1.22896e-20 0 -64.1238 0.000168913 5.49738e-06 3.27852 -2.53209e-05 -1.66527e-08)
(4.41045e-14 0 0 -64.1238 1.21497e-19 5.25599e-06 3.27852 -3.38813e-21 1.66386e-08)
(0 7.9884e-21 2.0646e-20 -61.575 -2.98156e-19 4.23516e-22 3.19489 0 -3.30872e-24)
(4.32641e-14 -2.42269e-20 0 -61.575 -0.000124283 2.17032e-06 3.1949 2.88314e-05 -2.37395e-08)
(-1.06117e-14 0 0 -59.0923 0.000209537 6.72147e-07 3.11159 -3.2721e-05 -2.40893e-08)
(-4.24467e-14 1.81356e-20 0 -59.0924 0 3.4049e-07 3.11159 0 2.40733e-08)
(-2.68669e-14 -1.20371e-34 -2.48323e-37 -56.675 -2.16906e-19 -4.41894e-22 3.02862 -1.43547e-36 -6.61744e-24)
(0 -7.84579e-21 0 -56.675 -0.000149587 -2.99658e-06 3.02862 3.73177e-05 -3.31141e-08)
(-1.02201e-14 0 0 -54.3225 0.000261675 -4.3102e-06 2.94602 -4.23609e-05 -3.47407e-08)
(-4.08804e-14 2.34864e-20 0 -54.3225 2.40327e-19 -4.76732e-06 2.94602 6.77626e-21 3.47226e-08)
(0 3.85186e-34 1.20371e-35 -52.0359 0 0 2.86388 1.35525e-20 6.61744e-24)
(0 -1.5245e-20 0 -52.0359 -0.000178951 -6.83919e-06 2.86388 4.83424e-05 -4.64132e-08)
(1.57564e-14 0 0 -49.8172 0.000324855 -9.49499e-06 2.78237 -4.70386e-05 -5.00089e-08)
(7.88081e-14 1.20371e-34 0 -49.8172 2.10227e-19 -1.01269e-05 2.78237 -6.77626e-21 4.99886e-08)
(-9.67473e-15 6.01853e-36 2.93874e-39 -47.6701 0 -1.69407e-21 2.70173 4.28549e-36 2.51627e-39)
(3.86989e-14 2.22167e-20 0 -47.6701 -0.000209238 -9.35495e-06 2.70173 6.24791e-05 -6.53342e-08)
(-1.5308e-14 1.45989e-20 -1.45989e-20 -45.5994 0.000402718 -1.44944e-05 2.62231 -3.5868e-05 -7.19222e-08)
(-3.80152e-14 2.94143e-20 0 -45.5994 4.63745e-19 -1.53705e-05 2.62231 0 7.18994e-08)
(-3.01772e-14 4.03242e-34 4.6432e-37 -43.6112 -7.31976e-19 -8.40279e-22 2.54451 -9.29332e-36 1.32349e-23)
(1.50886e-14 7.19481e-20 -1.31897e-19 -43.6112 -0.000249219 -1.28457e-05 2.54451 8.04756e-05 -9.23292e-08)