/*--------------------------------*- C++ -*----------------------------------*\
| =========                 |                                                 |
| \\      /  F ield         | OpenFOAM: The Open Source CFD Toolbox           |
|  \\    /   O peration     | Version:  2012                                  |
|   \\  /    A nd           | Website:  www.openfoam.com                      |
|    \\/     M anipulation  |                                                 |
\*---------------------------------------------------------------------------*/
FoamFile
{
    version     2.0;
    format      ascii;
    class       surfaceScalarField;
    location    "13400";
    object      phi;
}
// * * * * * * * * * * * * * * * * * * * * * * * * * * * * * * * * * * * * * //

dimensions      [0 3 -1 0 0 0 0];
oriented        oriented;


internalField   nonuniform List<scalar> 
5116
(
6.04236e-07
3.13663e-11
-1.44078e-11
-4.32116e-11
1.44159e-11
1.84651e-06
9.75467e-11
-2.20475e-11
-1.09325e-10
2.20555e-11
3.14141e-06
1.57467e-10
-1.99592e-11
-1.69198e-10
1.99664e-11
4.49058e-06
1.98911e-10
-1.3786e-11
-2.10539e-10
1.3791e-11
5.89569e-06
2.23085e-10
-8.05595e-12
-2.34713e-10
8.05887e-12
7.35844e-06
2.37833e-10
-4.89343e-12
-2.49385e-10
4.89521e-12
8.88067e-06
2.4772e-10
-3.30181e-12
-2.59297e-10
3.303e-12
1.04643e-05
2.55096e-10
-2.44273e-12
-2.6662e-10
2.44361e-12
1.21114e-05
2.60868e-10
-1.93288e-12
-2.72424e-10
1.93358e-12
1.38242e-05
2.65717e-10
-1.60499e-12
-2.77234e-10
1.60557e-12
1.56049e-05
2.69828e-10
-1.38068e-12
-2.81381e-10
1.38118e-12
1.7456e-05
2.73514e-10
-1.21985e-12
-2.85036e-10
1.22029e-12
1.93801e-05
2.76784e-10
-1.10035e-12
-2.88341e-10
1.10075e-12
2.13799e-05
2.79833e-10
-1.00909e-12
-2.91363e-10
1.00945e-12
2.34582e-05
2.82615e-10
-9.37906e-13
-2.94182e-10
9.38245e-13
2.56179e-05
2.85278e-10
-8.81491e-13
-2.96821e-10
8.8181e-13
2.78622e-05
2.87756e-10
-8.36251e-13
-2.99334e-10
8.36552e-13
3.01941e-05
2.90171e-10
-7.99675e-13
-3.01728e-10
7.99964e-13
3.26169e-05
2.92452e-10
-7.69969e-13
-3.04042e-10
7.70246e-13
3.5134e-05
2.94704e-10
-7.45811e-13
-3.06275e-10
7.46079e-13
3.77487e-05
2.96854e-10
-7.26219e-13
-3.08458e-10
7.26479e-13
4.04645e-05
2.98999e-10
-7.10441e-13
-3.10584e-10
7.10695e-13
4.32849e-05
3.01065e-10
-6.97902e-13
-3.12682e-10
6.98151e-13
4.62133e-05
3.03142e-10
-6.8815e-13
-3.14742e-10
6.88395e-13
4.92532e-05
3.05158e-10
-6.8083e-13
-3.16788e-10
6.81072e-13
5.24081e-05
3.07197e-10
-6.7566e-13
-3.18811e-10
6.75899e-13
5.56814e-05
3.09189e-10
-6.72414e-13
-3.20831e-10
6.72651e-13
5.90763e-05
3.11212e-10
-6.70912e-13
-3.2284e-10
6.71148e-13
6.25959e-05
3.132e-10
-6.71007e-13
-3.24856e-10
6.71242e-13
6.62434e-05
3.15228e-10
-6.72583e-13
-3.26869e-10
6.72818e-13
7.00216e-05
3.17231e-10
-6.75547e-13
-3.28899e-10
6.75782e-13
7.39329e-05
3.19279e-10
-6.79823e-13
-3.30934e-10
6.80058e-13
7.798e-05
3.21312e-10
-6.85355e-13
-3.32992e-10
6.8559e-13
8.21646e-05
3.23397e-10
-6.92096e-13
-3.35064e-10
6.92333e-13
8.64887e-05
3.25475e-10
-7.00014e-13
-3.37166e-10
7.00252e-13
9.09536e-05
3.2761e-10
-7.09086e-13
-3.39289e-10
7.09326e-13
9.55602e-05
3.29746e-10
-7.19297e-13
-3.41448e-10
7.1954e-13
0.000100309
3.31946e-10
-7.30641e-13
-3.43635e-10
7.30886e-13
0.0001052
3.34154e-10
-7.43118e-13
-3.45865e-10
7.43365e-13
0.000110233
3.36431e-10
-7.56732e-13
-3.4813e-10
7.56983e-13
0.000115406
3.38725e-10
-7.71495e-13
-3.50444e-10
7.7175e-13
0.000120719
3.41094e-10
-7.87423e-13
-3.52802e-10
7.87681e-13
0.000126168
3.43488e-10
-8.04536e-13
-3.55214e-10
8.04798e-13
0.000131751
3.45963e-10
-8.22857e-13
-3.57677e-10
8.23123e-13
0.000137463
3.48471e-10
-8.42412e-13
-3.60202e-10
8.42683e-13
0.000143302
3.51067e-10
-8.6323e-13
-3.62786e-10
8.63507e-13
0.00014926
3.53705e-10
-8.85344e-13
-3.65439e-10
8.85625e-13
0.000155333
3.56437e-10
-9.08783e-13
-3.68159e-10
9.09071e-13
0.000161514
3.5922e-10
-9.33582e-13
-3.70955e-10
9.33875e-13
0.000167794
3.62105e-10
-9.59772e-13
-3.73827e-10
9.60072e-13
0.000174166
3.6505e-10
-9.87386e-13
-3.76784e-10
9.87693e-13
0.00018062
3.68105e-10
-1.01645e-12
-3.79825e-10
1.01677e-12
0.000187146
3.71229e-10
-1.04699e-12
-3.82959e-10
1.04732e-12
0.000193733
3.74472e-10
-1.07903e-12
-3.86187e-10
1.07937e-12
0.000200369
3.77793e-10
-1.11259e-12
-3.89516e-10
1.11293e-12
0.000207041
3.81242e-10
-1.14766e-12
-3.92949e-10
1.14801e-12
0.000213736
3.84778e-10
-1.18424e-12
-3.96491e-10
1.1846e-12
0.00022044
3.88452e-10
-1.22233e-12
-4.00147e-10
1.22269e-12
0.000227138
3.92221e-10
-1.26188e-12
-4.03921e-10
1.26226e-12
0.000233814
3.96137e-10
-1.30286e-12
-4.07816e-10
1.30325e-12
0.000240453
4.00155e-10
-1.34521e-12
-4.11838e-10
1.34561e-12
0.000247037
4.04329e-10
-1.38884e-12
-4.15989e-10
1.38925e-12
0.000253549
4.08613e-10
-1.43367e-12
-4.20275e-10
1.43409e-12
0.000259973
4.13059e-10
-1.47957e-12
-4.24696e-10
1.48e-12
0.000266292
4.1762e-10
-1.52642e-12
-4.29258e-10
1.52687e-12
0.000272487
4.22351e-10
-1.57407e-12
-4.33961e-10
1.57453e-12
0.000278541
4.27197e-10
-1.62237e-12
-4.38809e-10
1.62285e-12
0.000284438
4.3222e-10
-1.67116e-12
-4.438e-10
1.67166e-12
0.000290161
4.37359e-10
-1.72029e-12
-4.4894e-10
1.7208e-12
0.000295694
4.42676e-10
-1.76961e-12
-4.54224e-10
1.77013e-12
0.000301021
4.48108e-10
-1.81898e-12
-4.59657e-10
1.81951e-12
0.00030613
4.53722e-10
-1.8683e-12
-4.65234e-10
1.86885e-12
0.000311005
4.59446e-10
-1.91748e-12
-4.7096e-10
1.91804e-12
0.000315636
4.65354e-10
-1.96649e-12
-4.76828e-10
1.96707e-12
0.000320012
4.71368e-10
-2.01533e-12
-4.82845e-10
2.01593e-12
0.000324124
4.77568e-10
-2.06404e-12
-4.89003e-10
2.06465e-12
0.000327964
4.83871e-10
-2.11272e-12
-4.95309e-10
2.11334e-12
0.000331527
4.90361e-10
-2.16147e-12
-5.01754e-10
2.16212e-12
0.000334808
4.96953e-10
-2.21049e-12
-5.08351e-10
2.21115e-12
0.000337806
5.03737e-10
-2.25996e-12
-5.15088e-10
2.26064e-12
0.000340519
5.10623e-10
-2.31011e-12
-5.2198e-10
2.3108e-12
0.000342949
5.17709e-10
-2.36118e-12
-5.29017e-10
2.3619e-12
0.000345098
5.249e-10
-2.41344e-12
-5.36216e-10
2.41418e-12
0.00034697
5.32302e-10
-2.46716e-12
-5.43565e-10
2.46792e-12
0.000348571
5.39815e-10
-2.52262e-12
-5.51088e-10
2.52339e-12
0.000349909
5.47553e-10
-2.58008e-12
-5.58772e-10
2.58088e-12
0.000350991
5.55413e-10
-2.63983e-12
-5.66643e-10
2.64065e-12
0.000351827
5.63514e-10
-2.70213e-12
-5.74688e-10
2.70297e-12
0.000352426
5.71751e-10
-2.76725e-12
-5.82937e-10
2.76812e-12
0.000352799
5.8025e-10
-2.83545e-12
-5.91377e-10
2.83635e-12
0.000352959
5.88899e-10
-2.90699e-12
-6.00041e-10
2.90791e-12
0.000352916
5.97835e-10
-2.9821e-12
-6.08916e-10
2.98305e-12
0.000352684
6.0694e-10
-3.06105e-12
-6.18038e-10
3.06203e-12
0.000352274
6.1636e-10
-3.14405e-12
-6.27393e-10
3.14507e-12
0.000351699
6.2597e-10
-3.23137e-12
-6.37023e-10
3.23242e-12
0.000350972
6.35923e-10
-3.32323e-12
-6.4691e-10
3.32432e-12
0.000350104
6.46093e-10
-3.41988e-12
-6.57101e-10
3.421e-12
0.000349107
6.56639e-10
-3.52154e-12
-6.67577e-10
3.52271e-12
0.000347994
6.67427e-10
-3.62849e-12
-6.7839e-10
3.62969e-12
0.000346776
6.78628e-10
-3.74093e-12
-6.89519e-10
3.74218e-12
0.000345462
6.90103e-10
-3.85917e-12
-7.0102e-10
3.86046e-12
0.000344063
7.02028e-10
-3.98341e-12
-7.1287e-10
3.98475e-12
0.000342589
7.14261e-10
-4.11397e-12
-7.25131e-10
4.11536e-12
0.000341049
7.26985e-10
-4.25108e-12
-7.37779e-10
4.25253e-12
0.000339451
7.40056e-10
-4.39508e-12
-7.50879e-10
4.39658e-12
0.000337804
7.53662e-10
-4.54621e-12
-7.64407e-10
4.54776e-12
0.000336113
7.67656e-10
-4.70483e-12
-7.78432e-10
4.70645e-12
0.000334386
7.82234e-10
-4.87121e-12
-7.92929e-10
4.87289e-12
0.000332628
7.97244e-10
-5.04576e-12
-8.07973e-10
5.04751e-12
0.000330846
8.12892e-10
-5.22874e-12
-8.23537e-10
5.23055e-12
0.000329043
8.29021e-10
-5.42063e-12
-8.39702e-10
5.42251e-12
0.000327225
8.45844e-10
-5.62167e-12
-8.56438e-10
5.62363e-12
0.000325396
8.63202e-10
-5.83243e-12
-8.73835e-10
5.83447e-12
0.000323558
8.81317e-10
-6.05314e-12
-8.9186e-10
6.05526e-12
0.000321714
9.00025e-10
-6.28448e-12
-9.1061e-10
6.28668e-12
0.000319868
9.19557e-10
-6.52663e-12
-9.30049e-10
6.52892e-12
0.000318022
9.39747e-10
-6.7804e-12
-9.50283e-10
6.78279e-12
0.000316177
9.60833e-10
-7.04592e-12
-9.71274e-10
7.0484e-12
0.000314335
9.8265e-10
-7.32419e-12
-9.93136e-10
7.32677e-12
0.000312497
1.00544e-09
-7.6152e-12
-1.01583e-09
7.61789e-12
0.000310665
1.02904e-09
-7.92024e-12
-1.03948e-09
7.92304e-12
0.000308839
1.0537e-09
-8.2391e-12
-1.06404e-09
8.24201e-12
0.00030702
1.07925e-09
-8.5734e-12
-1.08964e-09
8.57644e-12
0.000305209
1.10596e-09
-8.92268e-12
-1.11624e-09
8.92584e-12
0.000303405
1.13365e-09
-9.28904e-12
-1.14399e-09
9.29233e-12
0.00030161
1.1626e-09
-9.67157e-12
-1.17283e-09
9.675e-12
0.000299823
1.19264e-09
-1.00731e-11
-1.20293e-09
1.00766e-11
0.000298045
1.22405e-09
-1.0492e-11
-1.23423e-09
1.04957e-11
0.000296276
1.25666e-09
-1.0932e-11
-1.2669e-09
1.09359e-11
0.000294516
1.29076e-09
-1.13907e-11
-1.30089e-09
1.13948e-11
0.000292766
1.32619e-09
-1.18732e-11
-1.33638e-09
1.18774e-11
0.000291026
1.36325e-09
-1.23754e-11
-1.37332e-09
1.23798e-11
0.000289297
1.40176e-09
-1.29045e-11
-1.4119e-09
1.29091e-11
0.000287579
1.44205e-09
-1.34544e-11
-1.45207e-09
1.34592e-11
0.000285873
1.48395e-09
-1.40348e-11
-1.49403e-09
1.40398e-11
0.000284179
1.52778e-09
-1.46368e-11
-1.53775e-09
1.4642e-11
0.000282499
1.5734e-09
-1.5274e-11
-1.58343e-09
1.52794e-11
0.000280833
1.62112e-09
-1.59329e-11
-1.63102e-09
1.59386e-11
0.000279182
1.6708e-09
-1.66328e-11
-1.68078e-09
1.66387e-11
0.000277547
1.72278e-09
-1.73538e-11
-1.73263e-09
1.736e-11
0.000275928
1.77693e-09
-1.81232e-11
-1.78685e-09
1.81297e-11
0.000274328
1.83358e-09
-1.89119e-11
-1.84337e-09
1.89187e-11
0.000272747
1.89263e-09
-1.97587e-11
-1.9025e-09
1.97658e-11
0.000271187
1.95441e-09
-2.06207e-11
-1.96414e-09
2.06282e-11
0.00026965
2.01883e-09
-2.15538e-11
-2.02865e-09
2.15616e-11
0.000268137
2.08623e-09
-2.24952e-11
-2.09591e-09
2.25034e-11
0.00026665
2.15657e-09
-2.35251e-11
-2.16633e-09
2.35336e-11
0.000265193
2.23013e-09
-2.45516e-11
-2.23975e-09
2.45606e-11
0.000263766
2.30695e-09
-2.56906e-11
-2.31666e-09
2.56999e-11
0.000262373
2.38729e-09
-2.68078e-11
-2.39684e-09
2.68176e-11
0.000261017
2.47124e-09
-2.80706e-11
-2.48089e-09
2.80808e-11
0.000259699
2.559e-09
-2.92829e-11
-2.5685e-09
2.92936e-11
0.000258423
2.6508e-09
-3.06875e-11
-2.66039e-09
3.06987e-11
0.000257191
2.7467e-09
-3.19977e-11
-2.75613e-09
3.20095e-11
0.000256007
2.84712e-09
-3.35664e-11
-2.85667e-09
3.35788e-11
0.000254874
2.95196e-09
-3.49742e-11
-2.96133e-09
3.49872e-11
0.000253794
3.06187e-09
-3.67354e-11
-3.07137e-09
3.6749e-11
0.000252769
3.1765e-09
-3.82358e-11
-3.1858e-09
3.825e-11
0.000251801
3.29687e-09
-4.02263e-11
-3.30631e-09
4.02412e-11
0.000250892
3.42221e-09
-4.18063e-11
-3.43145e-09
4.1822e-11
0.00025004
3.55412e-09
-4.40751e-11
-3.5635e-09
4.40915e-11
0.000249246
3.69118e-09
-4.57099e-11
-3.70034e-09
4.57272e-11
0.000248507
3.83583e-09
-4.83244e-11
-3.84514e-09
4.83425e-11
0.000247819
3.98568e-09
-4.99702e-11
-3.99475e-09
4.99892e-11
0.00024718
4.14441e-09
-5.30224e-11
-4.15365e-09
5.30423e-11
0.000246584
4.3082e-09
-5.46087e-11
-4.31716e-09
5.46296e-11
0.000246027
4.48252e-09
-5.82293e-11
-4.49168e-09
5.82512e-11
0.000245503
4.66144e-09
-5.96426e-11
-4.67028e-09
5.96657e-11
0.000245011
4.85311e-09
-6.40192e-11
-4.86217e-09
6.40433e-11
0.000244546
5.04839e-09
-6.50815e-11
-5.05708e-09
6.51069e-11
0.000244109
5.25943e-09
-7.0486e-11
-5.26837e-09
7.05125e-11
0.000243701
5.47226e-09
-7.09211e-11
-5.4808e-09
7.09491e-11
0.000243324
5.70505e-09
-7.77515e-11
-5.71389e-09
7.77807e-11
0.000242984
5.93656e-09
-7.71337e-11
-5.94495e-09
7.71646e-11
0.000242685
6.19397e-09
-8.59778e-11
-6.20273e-09
8.601e-11
0.000242432
6.44508e-09
-8.36532e-11
-6.45335e-09
8.36874e-11
0.00024223
6.73066e-09
-9.53857e-11
-6.73936e-09
9.54213e-11
0.000242083
7.00184e-09
-9.03524e-11
-7.0101e-09
9.03902e-11
0.000241994
7.32008e-09
-1.06283e-10
-7.3288e-09
1.06322e-10
0.000241965
7.61088e-09
-9.70069e-11
-7.61952e-09
9.70488e-11
0.000241997
7.9676e-09
-1.1911e-10
-7.97671e-09
1.19153e-10
0.000242089
8.27682e-09
-1.03241e-10
-8.28616e-09
1.03287e-10
0.000242237
8.67982e-09
-1.34506e-10
-8.68954e-09
1.34554e-10
0.00024244
9.03079e-09
-1.17126e-10
-9.04066e-09
1.17176e-10
0.00024269
9.48963e-09
-1.53072e-10
-9.49975e-09
1.53124e-10
0.000242986
9.92187e-09
-1.44155e-10
-9.93197e-09
1.4421e-10
0.000243322
1.04468e-08
-1.75076e-10
-1.04571e-08
1.75132e-10
0.000243697
1.09732e-08
-1.75534e-10
-1.09834e-08
1.75593e-10
0.000244108
1.1575e-08
-2.00669e-10
-1.15853e-08
2.00731e-10
0.000244555
1.22095e-08
-2.11585e-10
-1.22198e-08
2.11649e-10
0.000245045
1.28162e-08
-2.02329e-10
-1.28267e-08
2.02396e-10
0.000245582
1.34822e-08
-2.22104e-10
-1.34928e-08
2.22175e-10
0.000246171
1.40874e-08
-2.01799e-10
-1.40981e-08
2.01873e-10
0.000246815
1.47881e-08
-2.33727e-10
-1.47991e-08
2.33804e-10
0.000247517
1.53918e-08
-2.01296e-10
-1.54028e-08
2.01376e-10
0.000248278
1.6133e-08
-2.47258e-10
-1.61444e-08
2.47341e-10
0.000249101
1.67621e-08
-2.09747e-10
-1.67735e-08
2.09836e-10
0.000249982
1.75519e-08
-2.63421e-10
-1.75636e-08
2.63513e-10
0.000250919
1.82605e-08
-2.36262e-10
-1.82722e-08
2.36359e-10
0.000251906
1.91071e-08
-2.82339e-10
-1.91189e-08
2.8244e-10
0.000252927
1.98984e-08
-2.63853e-10
-1.99103e-08
2.63959e-10
0.000253963
2.08098e-08
-3.03965e-10
-2.08218e-08
3.04075e-10
0.000254993
2.16878e-08
-2.92765e-10
-2.16998e-08
2.92881e-10
0.00025599
2.2672e-08
-3.28275e-10
-2.26843e-08
3.28396e-10
0.000256926
2.36413e-08
-3.23222e-10
-2.36536e-08
3.23348e-10
0.000257772
2.47064e-08
-3.55268e-10
-2.47189e-08
3.55399e-10
0.000258506
2.57722e-08
-3.5543e-10
-2.57847e-08
3.55567e-10
0.00025911
2.69263e-08
-3.84966e-10
-2.69391e-08
3.85109e-10
0.000259578
2.80944e-08
-3.89605e-10
-2.81073e-08
3.89754e-10
0.000259909
2.93457e-08
-4.17415e-10
-2.93589e-08
4.1757e-10
0.000260102
3.06226e-08
-4.25912e-10
-3.0636e-08
4.26074e-10
0.000260154
3.19797e-08
-4.52681e-10
-3.19933e-08
4.52848e-10
0.000260053
3.33724e-08
-4.64565e-10
-3.33862e-08
4.64739e-10
0.000259782
3.48439e-08
-4.90853e-10
-3.48579e-08
4.91033e-10
0.000259322
3.63601e-08
-5.05767e-10
-3.63743e-08
5.05955e-10
0.000258651
3.79551e-08
-5.32057e-10
-3.79696e-08
5.32252e-10
0.000257746
3.96032e-08
-5.49753e-10
-3.96179e-08
5.49955e-10
0.000256586
4.13314e-08
-5.76476e-10
-4.13464e-08
5.76686e-10
0.00025515
4.31206e-08
-5.96806e-10
-4.31358e-08
5.97024e-10
0.000253419
4.49924e-08
-6.24368e-10
-4.50079e-08
6.24593e-10
0.000251386
4.69329e-08
-6.47287e-10
-4.69487e-08
6.4752e-10
0.000249062
4.89599e-08
-6.76083e-10
-4.89759e-08
6.76325e-10
0.000246474
5.10634e-08
-7.01629e-10
-5.10797e-08
7.01879e-10
0.00024366
5.32582e-08
-7.32045e-10
-5.32747e-08
7.32303e-10
0.000240659
5.55377e-08
-7.60314e-10
-5.55545e-08
7.60582e-10
0.000237502
5.79144e-08
-7.92704e-10
-5.79316e-08
7.92981e-10
0.000234199
6.03844e-08
-8.23824e-10
-6.04019e-08
8.2411e-10
0.000230741
6.29586e-08
-8.5852e-10
-6.29764e-08
8.58817e-10
0.000227086
6.56351e-08
-8.92663e-10
-6.56532e-08
8.9297e-10
0.000223196
6.84238e-08
-9.30019e-10
-6.84422e-08
9.30336e-10
0.00021904
7.13246e-08
-9.67438e-10
-7.13433e-08
9.67766e-10
0.00021462
7.43468e-08
-1.00786e-09
-7.43658e-08
1.0082e-09
0.000209959
7.74919e-08
-1.04889e-09
-7.75113e-08
1.04925e-09
0.000205084
8.07691e-08
-1.09284e-09
-8.07888e-08
1.0932e-09
0.000200025
8.41811e-08
-1.13786e-09
-8.42012e-08
1.13824e-09
0.000194805
8.7737e-08
-1.18577e-09
-8.77575e-08
1.18616e-09
0.00018946
9.1441e-08
-1.23518e-09
-9.14619e-08
1.23558e-09
0.000184035
9.53022e-08
-1.2875e-09
-9.53233e-08
1.28792e-09
0.000178586
9.93256e-08
-1.34167e-09
-9.93472e-08
1.3421e-09
0.000173162
1.03521e-07
-1.39878e-09
-1.03543e-07
1.39922e-09
0.000167778
1.07893e-07
-1.45802e-09
-1.07916e-07
1.45848e-09
0.000162405
1.12452e-07
-1.52024e-09
-1.12475e-07
1.52072e-09
0.000156971
1.17206e-07
-1.58487e-09
-1.17229e-07
1.58537e-09
0.000151371
1.22162e-07
-1.65259e-09
-1.22186e-07
1.6531e-09
0.000145494
1.2733e-07
-1.72305e-09
-1.27354e-07
1.72358e-09
0.00013924
1.32719e-07
-1.79683e-09
-1.32743e-07
1.79738e-09
0.000132517
1.38339e-07
-1.8738e-09
-1.38364e-07
1.87437e-09
0.000125246
1.44201e-07
-1.95449e-09
-1.44226e-07
1.95509e-09
0.000117424
1.50316e-07
-2.03899e-09
-1.50342e-07
2.03961e-09
0.000109163
1.56698e-07
-2.1277e-09
-1.56725e-07
2.12834e-09
0.000100673
1.63359e-07
-2.22085e-09
-1.63386e-07
2.22151e-09
9.2204e-05
1.70314e-07
-2.31858e-09
-1.70341e-07
2.31927e-09
8.39854e-05
1.77576e-07
-2.42115e-09
-1.77604e-07
2.42186e-09
7.62268e-05
1.85159e-07
-2.52833e-09
-1.85188e-07
2.52907e-09
6.90844e-05
1.93079e-07
-2.64042e-09
-1.93109e-07
2.64119e-09
6.2558e-05
2.01349e-07
-2.75689e-09
-2.01379e-07
2.7577e-09
5.64394e-05
2.09982e-07
-2.87828e-09
-2.10013e-07
2.87911e-09
5.04111e-05
2.18992e-07
-3.00381e-09
-2.19024e-07
3.00468e-09
4.42319e-05
2.28394e-07
-3.13442e-09
-2.28427e-07
3.13532e-09
3.79122e-05
2.382e-07
-3.26898e-09
-2.38233e-07
3.26993e-09
3.16952e-05
2.48425e-07
-3.40875e-09
-2.48459e-07
3.40973e-09
2.59144e-05
2.5908e-07
-3.55198e-09
-2.59114e-07
3.553e-09
2.0842e-05
2.70179e-07
-3.70026e-09
-2.70215e-07
3.70131e-09
1.6643e-05
2.81732e-07
-3.85114e-09
-2.81768e-07
3.85225e-09
1.34121e-05
2.93751e-07
-4.00678e-09
-2.93788e-07
4.00792e-09
1.10934e-05
3.06242e-07
-4.16413e-09
-3.0628e-07
4.16533e-09
9.47525e-06
3.1922e-07
-4.32622e-09
-3.19259e-07
4.32744e-09
8.30738e-06
3.32687e-07
-4.48926e-09
-3.32727e-07
4.49056e-09
7.36905e-06
3.46657e-07
-4.65717e-09
-3.46698e-07
4.65849e-09
6.44898e-06
3.61132e-07
-4.8252e-09
-3.61174e-07
4.8266e-09
5.2938e-06
3.76125e-07
-4.99814e-09
-3.76169e-07
4.99955e-09
3.59168e-06
3.91635e-07
-5.17011e-09
-3.91679e-07
5.17162e-09
1.03538e-06
4.07674e-07
-5.34671e-09
-4.0772e-07
5.34822e-09
-2.63399e-06
4.24234e-07
-5.52017e-09
-4.2428e-07
5.52178e-09
-7.60192e-06
4.41343e-07
-5.70303e-09
-4.4139e-07
5.70463e-09
-1.39391e-05
4.59005e-07
-5.88749e-09
-4.59053e-07
5.88922e-09
-2.16943e-05
4.77264e-07
-6.08689e-09
-4.77315e-07
6.08859e-09
-3.09648e-05
4.9614e-07
-6.29207e-09
-4.96191e-07
6.29392e-09
-4.17215e-05
5.15702e-07
-6.52075e-09
-5.15754e-07
6.52255e-09
-5.37491e-05
5.35984e-07
-6.76089e-09
-5.36038e-07
6.76286e-09
-6.68421e-05
5.57091e-07
-7.03613e-09
-5.57147e-07
7.03804e-09
-8.09808e-05
5.79077e-07
-7.32845e-09
-5.79133e-07
7.33057e-09
-9.63354e-05
6.0209e-07
-7.67161e-09
-6.02149e-07
7.67364e-09
-0.000112993
6.26206e-07
-8.03875e-09
-6.26266e-07
8.04103e-09
-0.000130704
6.51645e-07
-8.48072e-09
-6.51708e-07
8.48288e-09
-0.000148925
6.78505e-07
-8.95329e-09
-6.78569e-07
8.95576e-09
-0.000167021
7.07098e-07
-9.53208e-09
-7.07165e-07
9.53438e-09
-0.000184522
7.37515e-07
-1.01394e-08
-7.37585e-07
1.01421e-08
-0.000200954
7.70189e-07
-1.08925e-08
-7.70262e-07
1.0895e-08
-0.000215466
8.05154e-07
-1.16557e-08
-8.0523e-07
1.16586e-08
-0.000227031
8.42997e-07
-1.26162e-08
-8.43078e-07
1.26188e-08
-0.000235087
8.836e-07
-1.35349e-08
-8.83683e-07
1.35381e-08
-0.000239994
9.27763e-07
-1.47236e-08
-9.27853e-07
1.47264e-08
-0.000242924
9.7509e-07
-1.57767e-08
-9.75184e-07
1.57802e-08
-0.000245354
1.02677e-06
-1.72287e-08
-1.02687e-06
1.72317e-08
-0.000248386
1.08196e-06
-1.83997e-08
-1.08207e-06
1.84036e-08
-0.000252201
1.14254e-06
-2.0198e-08
-1.14266e-06
2.02012e-08
-0.00025616
1.20696e-06
-2.14738e-08
-1.20708e-06
2.14781e-08
-0.000259357
1.27821e-06
-2.37543e-08
-1.27834e-06
2.37576e-08
-0.000260951
1.35343e-06
-2.50771e-08
-1.35357e-06
2.50818e-08
-0.000260353
1.43749e-06
-2.80235e-08
-1.43764e-06
2.80269e-08
-0.000257379
1.52522e-06
-2.92465e-08
-1.52537e-06
2.92516e-08
-0.000252298
1.62457e-06
-3.31222e-08
-1.62473e-06
3.31258e-08
-0.000245385
1.72651e-06
-3.39831e-08
-1.72668e-06
3.39887e-08
-0.000236257
1.84411e-06
-3.92022e-08
-1.84428e-06
3.92059e-08
-0.000224243
1.96192e-06
-3.92816e-08
-1.96213e-06
3.92878e-08
-0.000209548
2.10131e-06
-4.64622e-08
-2.10152e-06
4.6466e-08
-0.000193098
2.23639e-06
-4.50944e-08
-2.2368e-06
4.51012e-08
-0.000176274
2.40174e-06
-5.51059e-08
-2.4022e-06
5.51098e-08
-0.000160514
2.55555e-06
-5.1324e-08
-2.55615e-06
5.13316e-08
-0.000146596
2.75171e-06
-6.53647e-08
-2.75228e-06
6.53686e-08
-0.000134136
2.50975e-06
8.06722e-08
-2.51022e-06
-8.06907e-08
-0.000122789
2.28835e-06
7.38275e-08
-2.2887e-06
-7.38498e-08
-0.000112853
2.01457e-06
9.12743e-08
-2.01483e-06
-9.12944e-08
-0.000105233
1.75667e-06
8.59846e-08
-1.75685e-06
-8.60042e-08
-9.97474e-05
1.44369e-06
1.04331e-07
-1.44382e-06
-1.04353e-07
-9.49272e-05
1.13937e-06
1.0145e-07
-1.13946e-06
-1.01467e-07
-8.9528e-05
7.79306e-07
1.20023e-07
-7.79356e-07
-1.20047e-07
-8.45602e-05
4.17567e-07
1.20587e-07
-4.17596e-07
-1.20601e-07
-8.20373e-05
1.37951e-07
3.7084e-09
-1.37977e-07
-3.71053e-09
6.04265e-07
-4.32364e-11
4.32695e-11
1.84655e-06
-1.09379e-10
1.09472e-10
3.14145e-06
-1.69267e-10
1.69386e-10
4.49061e-06
-2.10622e-10
2.10778e-10
5.8957e-06
-2.34797e-10
2.34955e-10
7.35845e-06
-2.49473e-10
2.49649e-10
8.88068e-06
-2.59385e-10
2.59555e-10
1.04643e-05
-2.66709e-10
2.66892e-10
1.21114e-05
-2.72514e-10
2.72689e-10
1.38242e-05
-2.77325e-10
2.7751e-10
1.56049e-05
-2.81473e-10
2.8165e-10
1.7456e-05
-2.85129e-10
2.85315e-10
1.93801e-05
-2.88436e-10
2.88613e-10
2.13799e-05
-2.9146e-10
2.91645e-10
2.34582e-05
-2.9428e-10
2.94455e-10
2.56179e-05
-2.96921e-10
2.97103e-10
2.78622e-05
-2.99436e-10
2.99608e-10
3.01941e-05
-3.01833e-10
3.02011e-10
3.26169e-05
-3.04149e-10
3.04317e-10
3.5134e-05
-3.06384e-10
3.06557e-10
3.77487e-05
-3.08569e-10
3.08731e-10
4.04645e-05
-3.10699e-10
3.10865e-10
4.32849e-05
-3.12798e-10
3.12954e-10
4.62133e-05
-3.14862e-10
3.1502e-10
4.92532e-05
-3.1691e-10
3.17058e-10
5.24081e-05
-3.18936e-10
3.19086e-10
5.56814e-05
-3.20959e-10
3.21098e-10
5.90763e-05
-3.22972e-10
3.23111e-10
6.25959e-05
-3.2499e-10
3.25119e-10
6.62434e-05
-3.27009e-10
3.27136e-10
7.00216e-05
-3.2904e-10
3.29157e-10
7.39329e-05
-3.31081e-10
3.31196e-10
7.79799e-05
-3.33142e-10
3.33246e-10
8.21646e-05
-3.3522e-10
3.35321e-10
8.64887e-05
-3.37323e-10
3.37414e-10
9.09536e-05
-3.39453e-10
3.39539e-10
9.55602e-05
-3.41614e-10
3.4169e-10
0.000100309
-3.43809e-10
3.4388e-10
0.0001052
-3.4604e-10
3.46102e-10
0.000110233
-3.48314e-10
3.48368e-10
0.000115406
-3.50629e-10
3.50675e-10
0.000120719
-3.52996e-10
3.53033e-10
0.000126168
-3.55409e-10
3.55439e-10
0.000131751
-3.57882e-10
3.57902e-10
0.000137463
-3.60407e-10
3.60421e-10
0.000143302
-3.63001e-10
3.63005e-10
0.00014926
-3.65654e-10
3.65653e-10
0.000155333
-3.68384e-10
3.68372e-10
0.000161514
-3.7118e-10
3.71164e-10
0.000167794
-3.74063e-10
3.74035e-10
0.000174166
-3.77018e-10
3.76988e-10
0.00018062
-3.80071e-10
3.80028e-10
0.000187146
-3.83202e-10
3.83159e-10
0.000193733
-3.86442e-10
3.86386e-10
0.000200369
-3.89768e-10
3.89714e-10
0.000207041
-3.93212e-10
3.93146e-10
0.000213736
-3.9675e-10
3.96688e-10
0.00022044
-4.00417e-10
4.00343e-10
0.000227138
-4.04186e-10
4.04117e-10
0.000233814
-4.08092e-10
4.08013e-10
0.000240453
-4.12108e-10
4.12036e-10
0.000247037
-4.1627e-10
4.16188e-10
0.000253549
-4.20548e-10
4.20477e-10
0.000259973
-4.2498e-10
4.249e-10
0.000266292
-4.29533e-10
4.29465e-10
0.000272487
-4.34245e-10
4.34171e-10
0.000278541
-4.39083e-10
4.39023e-10
0.000284438
-4.44083e-10
4.44019e-10
0.000290161
-4.49211e-10
4.49163e-10
0.000295694
-4.54503e-10
4.54453e-10
0.000301021
-4.59924e-10
4.59892e-10
0.00030613
-4.65507e-10
4.65476e-10
0.000311005
-4.71221e-10
4.71208e-10
0.000315636
-4.77093e-10
4.77085e-10
0.000320012
-4.83098e-10
4.83109e-10
0.000324124
-4.89258e-10
4.89276e-10
0.000327964
-4.95551e-10
4.9559e-10
0.000331527
-5.01998e-10
5.02047e-10
0.000334808
-5.08582e-10
5.08651e-10
0.000337806
-5.15318e-10
5.15401e-10
0.000340519
-5.22199e-10
5.223e-10
0.000342949
-5.29232e-10
5.29352e-10
0.000345098
-5.3642e-10
5.36558e-10
0.00034697
-5.43765e-10
5.43925e-10
0.000348572
-5.51277e-10
5.51454e-10
0.000349909
-5.58954e-10
5.59157e-10
0.000350991
-5.66816e-10
5.67034e-10
0.000351827
-5.74852e-10
5.751e-10
0.000352426
-5.83093e-10
5.83354e-10
0.000352799
-5.91522e-10
5.91818e-10
0.000352959
-6.00181e-10
6.00487e-10
0.000352916
-6.09042e-10
6.09387e-10
0.000352684
-6.18161e-10
6.18514e-10
0.000352274
-6.275e-10
6.27897e-10
0.000351699
-6.37128e-10
6.37529e-10
0.000350972
-6.46998e-10
6.47447e-10
0.000350104
-6.57189e-10
6.57639e-10
0.000349107
-6.67647e-10
6.68149e-10
0.000347994
-6.78463e-10
6.78962e-10
0.000346776
-6.89571e-10
6.90126e-10
0.000345462
-7.01077e-10
7.01626e-10
0.000344063
-7.12905e-10
7.13515e-10
0.00034259
-7.25175e-10
7.25774e-10
0.00034105
-7.37799e-10
7.38463e-10
0.000339452
-7.5091e-10
7.5156e-10
0.000337804
-7.64413e-10
7.65131e-10
0.000336113
-7.78453e-10
7.79152e-10
0.000334386
-7.92924e-10
7.93695e-10
0.000332628
-8.07985e-10
8.08733e-10
0.000330846
-8.23522e-10
8.24346e-10
0.000329043
-8.39708e-10
8.40503e-10
0.000327225
-8.56418e-10
8.57292e-10
0.000325396
-8.73838e-10
8.7468e-10
0.000323558
-8.91836e-10
8.9276e-10
0.000321714
-9.10613e-10
9.11498e-10
0.000319868
-9.30026e-10
9.30997e-10
0.000318022
-9.50289e-10
9.51218e-10
0.000316177
-9.71255e-10
9.72271e-10
0.000314335
-9.93149e-10
9.94118e-10
0.000312497
-1.01582e-09
1.01688e-09
0.000310665
-1.0395e-09
1.04051e-09
0.000308839
-1.06404e-09
1.06514e-09
0.00030702
-1.08968e-09
1.09072e-09
0.000305209
-1.11626e-09
1.1174e-09
0.000303405
-1.14405e-09
1.14512e-09
0.00030161
-1.17287e-09
1.17404e-09
0.000299823
-1.20301e-09
1.20412e-09
0.000298045
-1.23429e-09
1.2355e-09
0.000296276
-1.26701e-09
1.26815e-09
0.000294517
-1.30098e-09
1.30222e-09
0.000292767
-1.33652e-09
1.33769e-09
0.000291027
-1.37345e-09
1.37471e-09
0.000289297
-1.41208e-09
1.41327e-09
0.000287579
-1.45224e-09
1.45353e-09
0.000285873
-1.49426e-09
1.49547e-09
0.00028418
-1.53797e-09
1.53928e-09
0.000282499
-1.58371e-09
1.58494e-09
0.000280833
-1.6313e-09
1.63263e-09
0.000279182
-1.68111e-09
1.68236e-09
0.000277547
-1.73296e-09
1.73432e-09
0.000275928
-1.78724e-09
1.78851e-09
0.000274328
-1.84377e-09
1.84515e-09
0.000272747
-1.90295e-09
1.90424e-09
0.000271187
-1.9646e-09
1.96601e-09
0.00026965
-2.02917e-09
2.03048e-09
0.000268137
-2.09644e-09
2.09787e-09
0.000266651
-2.16693e-09
2.16826e-09
0.000265193
-2.24036e-09
2.24182e-09
0.000263767
-2.31734e-09
2.3187e-09
0.000262374
-2.39754e-09
2.39903e-09
0.000261017
-2.48166e-09
2.48304e-09
0.000259699
-2.56929e-09
2.5708e-09
0.000258423
-2.66126e-09
2.66266e-09
0.000257191
-2.75702e-09
2.75858e-09
0.000256008
-2.85763e-09
2.85907e-09
0.000254874
-2.96232e-09
2.96392e-09
0.000253794
-3.07243e-09
3.07391e-09
0.000252769
-3.1869e-09
3.18855e-09
0.000251801
-3.30748e-09
3.30901e-09
0.000250892
-3.43267e-09
3.43437e-09
0.000250041
-3.56479e-09
3.56637e-09
0.000249246
-3.70168e-09
3.70347e-09
0.000248507
-3.84656e-09
3.8482e-09
0.00024782
-3.99622e-09
3.9981e-09
0.00024718
-4.15519e-09
4.15692e-09
0.000246584
-4.31877e-09
4.32076e-09
0.000246027
-4.49336e-09
4.4952e-09
0.000245504
-4.67204e-09
4.67417e-09
0.000245011
-4.864e-09
4.86596e-09
0.000244547
-5.05899e-09
5.0613e-09
0.00024411
-5.27037e-09
5.27247e-09
0.000243701
-5.48287e-09
5.48537e-09
0.000243325
-5.71605e-09
5.7183e-09
0.000242984
-5.9472e-09
5.9499e-09
0.000242685
-6.20507e-09
6.20747e-09
0.000242432
-6.45579e-09
6.45868e-09
0.00024223
-6.74189e-09
6.74446e-09
0.000242084
-7.01273e-09
7.01578e-09
0.000241995
-7.33154e-09
7.33424e-09
0.000241966
-7.62236e-09
7.62524e-09
0.000241998
-7.97966e-09
7.98218e-09
0.000242089
-8.28922e-09
8.29166e-09
0.000242238
-8.69272e-09
8.69487e-09
0.00024244
-9.04396e-09
9.04609e-09
0.000242691
-9.50317e-09
9.50514e-09
0.000242987
-9.93551e-09
9.93759e-09
0.000243323
-1.04607e-08
1.04627e-08
0.000243698
-1.09872e-08
1.09894e-08
0.000244108
-1.15892e-08
1.15914e-08
0.000244556
-1.22239e-08
1.22261e-08
0.000245046
-1.28309e-08
1.28331e-08
0.000245583
-1.34972e-08
1.34994e-08
0.000246172
-1.41026e-08
1.41049e-08
0.000246816
-1.48038e-08
1.48059e-08
0.000247518
-1.54077e-08
1.54098e-08
0.000248279
-1.61494e-08
1.61513e-08
0.000249102
-1.67787e-08
1.67807e-08
0.000249983
-1.75689e-08
1.75708e-08
0.000250921
-1.82777e-08
1.82798e-08
0.000251907
-1.91246e-08
1.91267e-08
0.000252928
-1.99161e-08
1.99185e-08
0.000253965
-2.08279e-08
2.08302e-08
0.000254995
-2.17061e-08
2.17087e-08
0.000255992
-2.26908e-08
2.26934e-08
0.000256927
-2.36602e-08
2.36631e-08
0.000257774
-2.47258e-08
2.47287e-08
0.000258508
-2.57918e-08
2.5795e-08
0.000259112
-2.69464e-08
2.69496e-08
0.00025958
-2.81149e-08
2.81183e-08
0.000259911
-2.93668e-08
2.93703e-08
0.000260105
-3.06441e-08
3.06478e-08
0.000260157
-3.20017e-08
3.20055e-08
0.000260055
-3.33949e-08
3.33989e-08
0.000259785
-3.48669e-08
3.48711e-08
0.000259325
-3.63837e-08
3.6388e-08
0.000258653
-3.79793e-08
3.79838e-08
0.000257748
-3.96279e-08
3.96327e-08
0.000256589
-4.13568e-08
4.13617e-08
0.000255152
-4.31466e-08
4.31517e-08
0.000253421
-4.50191e-08
4.50245e-08
0.000251389
-4.69603e-08
4.69659e-08
0.000249065
-4.8988e-08
4.89939e-08
0.000246477
-5.10923e-08
5.10984e-08
0.000243662
-5.32879e-08
5.32942e-08
0.000240662
-5.55682e-08
5.55748e-08
0.000237504
-5.79459e-08
5.79528e-08
0.000234202
-6.04168e-08
6.04239e-08
0.000230743
-6.29919e-08
6.29994e-08
0.000227089
-6.56694e-08
6.56772e-08
0.000223198
-6.84591e-08
6.84672e-08
0.000219042
-7.1361e-08
7.13694e-08
0.000214622
-7.43843e-08
7.43931e-08
0.000209961
-7.75306e-08
7.75397e-08
0.000205086
-8.0809e-08
8.08184e-08
0.000200026
-8.42223e-08
8.42321e-08
0.000194806
-8.77795e-08
8.77897e-08
0.000189461
-9.14849e-08
9.14954e-08
0.000184035
-9.53474e-08
9.53584e-08
0.000178586
-9.93724e-08
9.93837e-08
0.000173162
-1.03569e-07
1.03581e-07
0.000167778
-1.07943e-07
1.07955e-07
0.000162405
-1.12504e-07
1.12517e-07
0.00015697
-1.17259e-07
1.17272e-07
0.00015137
-1.22217e-07
1.22231e-07
0.000145491
-1.27387e-07
1.27401e-07
0.000139237
-1.32778e-07
1.32792e-07
0.000132513
-1.384e-07
1.38415e-07
0.000125241
-1.44264e-07
1.4428e-07
0.000117419
-1.50382e-07
1.50398e-07
0.000109157
-1.56766e-07
1.56783e-07
0.000100667
-1.63429e-07
1.63447e-07
9.21969e-05
-1.70386e-07
1.70404e-07
8.39779e-05
-1.77651e-07
1.7767e-07
7.6219e-05
-1.85237e-07
1.85257e-07
6.90764e-05
-1.9316e-07
1.9318e-07
6.25501e-05
-2.01432e-07
2.01453e-07
5.64316e-05