/*--------------------------------*- C++ -*----------------------------------*\
| =========                 |                                                 |
| \\      /  F ield         | OpenFOAM: The Open Source CFD Toolbox           |
|  \\    /   O peration     | Version:  2012                                  |
|   \\  /    A nd           | Website:  www.openfoam.com                      |
|    \\/     M anipulation  |                                                 |
\*---------------------------------------------------------------------------*/
FoamFile
{
    version     2.0;
    format      ascii;
    class       volSymmTensorField;
    location    "13400";
    object      turbulenceProperties:R;
}
// * * * * * * * * * * * * * * * * * * * * * * * * * * * * * * * * * * * * * //

dimensions      [0 2 -2 0 0 0 0];


internalField   nonuniform List<symmTensor> 
2560
(
(0.00283765 -3.21945e-06 -4.66305e-09 0.00283765 1.95204e-11 0.00283765)
(0.00283765 -3.21946e-06 -4.66306e-09 0.00283765 1.40448e-15 0.00283765)
(0.065555 -0.000427496 -1.86734e-06 0.065555 -1.24127e-13 0.065555)
(0.065555 -0.000427497 -1.86735e-06 0.065555 5.44961e-13 0.065555)
(0.461275 -0.00896142 -5.37605e-05 0.461275 -1.53798e-08 0.461275)
(0.461275 -0.00896144 -5.37607e-05 0.461275 2.00619e-11 0.461275)
(1.52667 -0.0639895 -0.000389446 1.52667 -1.50299e-07 1.52667)
(1.52667 -0.0639897 -0.000389447 1.52667 1.56171e-10 1.52667)
(3.09107 -0.223608 -0.00138063 3.09107 -3.81129e-07 3.09107)
(3.09107 -0.223608 -0.00138064 3.09107 4.21215e-10 3.09107)
(4.69428 -0.493354 -0.00309038 4.69428 -4.39867e-07 4.69428)
(4.69428 -0.493355 -0.00309038 4.69428 7.44528e-10 4.69428)
(6.16573 -0.841659 -0.00534884 6.16573 -3.80887e-07 6.16573)
(6.16574 -0.84166 -0.00534884 6.16574 1.37522e-09 6.16574)
(7.50345 -1.24194 -0.00800765 7.50345 -3.11408e-07 7.50345)
(7.50345 -1.24194 -0.00800766 7.50345 2.36843e-09 7.50345)
(8.73435 -1.67785 -0.010976 8.73435 -2.57751e-07 8.73435)
(8.73435 -1.67785 -0.010976 8.73435 3.74309e-09 8.73435)
(9.88216 -2.13933 -0.0141993 9.88216 -2.19525e-07 9.88216)
(9.88216 -2.13933 -0.0141993 9.88216 5.42837e-09 9.88216)
(10.9642 -2.6199 -0.0176432 10.9642 -1.92963e-07 10.9642)
(10.9642 -2.6199 -0.0176432 10.9642 7.5078e-09 10.9642)
(11.9929 -3.11513 -0.0212852 11.9929 -1.75212e-07 11.9929)
(11.9929 -3.11514 -0.0212852 11.9929 9.95033e-09 11.9929)
(12.9771 -3.62189 -0.0251101 12.9771 -1.64393e-07 12.9771)
(12.9771 -3.62189 -0.0251101 12.9771 1.27799e-08 12.9771)
(13.9233 -4.13787 -0.0291074 13.9233 -1.59352e-07 13.9233)
(13.9233 -4.13787 -0.0291074 13.9233 1.60619e-08 13.9233)
(14.8362 -4.6613 -0.0332697 14.8362 -1.59444e-07 14.8362)
(14.8362 -4.6613 -0.0332697 14.8362 1.97825e-08 14.8362)
(15.7194 -5.19082 -0.0375917 15.7194 -1.64268e-07 15.7194)
(15.7194 -5.19082 -0.0375917 15.7194 2.39924e-08 15.7194)
(16.5754 -5.72529 -0.0420693 16.5754 -1.7372e-07 16.5754)
(16.5754 -5.72529 -0.0420693 16.5754 2.86664e-08 16.5754)
(17.4063 -6.26376 -0.0466995 17.4063 -1.87767e-07 17.4063)
(17.4063 -6.26376 -0.0466995 17.4063 3.39203e-08 17.4063)
(18.2133 -6.80535 -0.0514791 18.2133 -2.06509e-07 18.2133)
(18.2133 -6.80535 -0.0514791 18.2133 -1.90392e-08 18.2133)
(18.9975 -7.34921 -0.0564051 18.9975 -2.30157e-07 18.9975)
(18.9975 -7.34921 -0.0564051 18.9975 -1.58773e-07 18.9975)
(19.7594 -7.89451 -0.0614742 19.7594 -2.58958e-07 19.7594)
(19.7594 -7.89451 -0.0614742 19.7594 -2.59287e-07 19.7594)
(20.4993 -8.44034 -0.066682 20.4993 -2.93223e-07 20.4993)
(20.4993 -8.44034 -0.066682 20.4993 -2.93575e-07 20.4993)
(21.2173 -8.98573 -0.0720233 21.2173 -2.88257e-07 21.2173)
(21.2173 -8.98573 -0.0720232 21.2173 -3.33618e-07 21.2173)
(21.9132 -9.52963 -0.0774917 21.9132 -1.78356e-07 21.9132)
(21.9132 -9.52963 -0.0774917 21.9132 -3.79965e-07 21.9132)
(22.5866 -10.0709 -0.0830794 22.5866 -9.42024e-08 22.5866)
(22.5866 -10.0709 -0.0830793 22.5866 -4.3286e-07 22.5866)
(23.2371 -10.6081 -0.0887763 23.2371 -1.05092e-07 23.2371)
(23.2371 -10.6081 -0.0887762 23.2371 -4.92963e-07 23.2371)
(23.8639 -11.1398 -0.0945711 23.8639 -1.16711e-07 23.8639)
(23.8639 -11.1398 -0.0945711 23.8639 -5.60546e-07 23.8639)
(24.4662 -11.6645 -0.100451 24.4662 -1.29694e-07 24.4662)
(24.4662 -11.6645 -0.100451 24.4662 -6.3647e-07 24.4662)
(25.0431 -12.1803 -0.106399 25.0431 -1.43227e-07 25.0431)
(25.0431 -12.1803 -0.106399 25.0431 -7.20901e-07 25.0431)
(25.5938 -12.6854 -0.112397 25.5938 -1.57562e-07 25.5938)
(25.5937 -12.6854 -0.112397 25.5937 -8.14917e-07 25.5937)
(26.1169 -13.1776 -0.118426 26.1169 -1.7266e-07 26.1169)
(26.1169 -13.1776 -0.118426 26.1169 -6.15103e-07 26.1169)
(26.6115 -13.6549 -0.124462 26.6115 -1.89449e-07 26.6115)
(26.6115 -13.6549 -0.124462 26.6115 -4.47453e-10 26.6115)
(27.0764 -14.1148 -0.130481 27.0764 -2.06712e-07 27.0764)
(27.0764 -14.1148 -0.130481 27.0764 3.53561e-08 27.0764)
(27.5103 -14.5548 -0.136454 27.5103 -2.24904e-07 27.5103)
(27.5103 -14.5548 -0.136454 27.5103 2.50697e-08 27.5103)
(27.9121 -14.9726 -0.142352 27.9121 -2.44233e-07 27.9121)
(27.9121 -14.9726 -0.142352 27.9121 1.52142e-08 27.9121)
(28.2805 -15.3655 -0.148143 28.2805 -2.65309e-07 28.2805)
(28.2805 -15.3655 -0.148143 28.2805 5.33495e-09 28.2805)
(28.6143 -15.7308 -0.153793 28.6143 -2.86924e-07 28.6143)
(28.6143 -15.7308 -0.153793 28.6143 -3.91933e-09 28.6143)
(28.9126 -16.0659 -0.159264 28.9126 -3.09552e-07 28.9126)
(28.9126 -16.0659 -0.159264 28.9126 -1.31798e-08 28.9126)
(29.1742 -16.3681 -0.164521 29.1742 -3.33516e-07 29.1742)
(29.1742 -16.3681 -0.164521 29.1742 -2.21734e-08 29.1742)
(29.3981 -16.6348 -0.169524 29.3981 -3.5946e-07 29.3981)
(29.3981 -16.6348 -0.169524 29.3981 -3.12744e-08 29.3981)
(29.5837 -16.8635 -0.174233 29.5837 -3.86242e-07 29.5837)
(29.5837 -16.8635 -0.174233 29.5837 -3.98995e-08 29.5837)
(29.7302 -17.0517 -0.178606 29.7302 -4.13839e-07 29.7302)
(29.7302 -17.0517 -0.178606 29.7302 -4.84942e-08 29.7302)
(29.8371 -17.197 -0.182602 29.8371 -4.43007e-07 29.8371)
(29.8371 -17.197 -0.182602 29.8371 -5.68722e-08 29.8371)
(29.9042 -17.2975 -0.18618 29.9042 -4.74457e-07 29.9042)
(29.9042 -17.2975 -0.18618 29.9042 -6.56979e-08 29.9042)
(29.9313 -17.3511 -0.1893 29.9313 -5.06065e-07 29.9313)
(29.9313 -17.3511 -0.1893 29.9313 -7.33819e-08 29.9313)
(29.9186 -17.3561 -0.191921 29.9186 -5.40056e-07 29.9186)
(29.9186 -17.3561 -0.191921 29.9186 -2.789e-07 29.9186)
(29.8664 -17.3111 -0.194003 29.8664 -5.73868e-07 29.8664)
(29.8664 -17.3111 -0.194003 29.8664 -5.37504e-07 29.8664)
(29.7756 -17.2148 -0.195512 29.7756 -6.12712e-07 29.7756)
(29.7756 -17.2148 -0.195512 29.7756 -6.1364e-07 29.7756)
(29.647 -17.0664 -0.196409 29.647 -6.49331e-07 29.647)
(29.647 -17.0664 -0.196409 29.647 -6.50214e-07 29.647)
(29.482 -16.8652 -0.196663 29.482 -6.84964e-07 29.482)
(29.482 -16.8652 -0.196663 29.482 -6.85861e-07 29.482)
(29.2821 -16.6113 -0.19625 29.2821 -7.28632e-07 29.2821)
(29.2821 -16.6113 -0.19625 29.2821 -7.2969e-07 29.2821)
(29.0493 -16.3047 -0.195139 29.0493 -7.72908e-07 29.0493)
(29.0493 -16.3047 -0.195139 29.0493 -7.7583e-07 29.0493)
(28.7858 -15.9456 -0.193305 28.7858 -8.0612e-07 28.7858)
(28.7858 -15.9456 -0.193305 28.7858 -8.11585e-07 28.7858)
(28.4941 -15.5351 -0.190738 28.4941 -8.5856e-07 28.4941)
(28.4941 -15.5351 -0.190738 28.4941 -8.63039e-07 28.4941)
(28.1772 -15.0744 -0.187416 28.1772 -8.98968e-07 28.1772)
(28.1772 -15.0744 -0.187416 28.1772 -9.0248e-07 28.1772)
(27.8382 -14.5647 -0.183332 27.8382 -9.46646e-07 27.8382)
(27.8382 -14.5647 -0.183332 27.8382 -9.47614e-07 27.8382)
(27.4807 -14.0079 -0.178481 27.4807 -9.94714e-07 27.4807)
(27.4807 -14.0079 -0.178481 27.4807 -9.9658e-07 27.4807)
(27.1082 -13.4061 -0.172861 27.1082 -1.03257e-06 27.1082)
(27.1082 -13.4061 -0.172861 27.1082 -1.03723e-06 27.1082)
(26.7247 -12.7617 -0.166479 26.7247 -1.08426e-06 26.7247)
(26.7247 -12.7617 -0.166479 26.7247 -1.08737e-06 26.7247)
(26.3345 -12.0774 -0.159339 26.3345 -1.12763e-06 26.3345)
(26.3345 -12.0774 -0.159339 26.3345 -1.13151e-06 26.3345)
(25.9416 -11.3555 -0.15145 25.9416 -1.17791e-06 25.9416)
(25.9416 -11.3555 -0.15145 25.9416 -1.18016e-06 25.9416)
(25.5506 -10.5989 -0.142824 25.5506 -1.21335e-06 25.5506)
(25.5506 -10.5989 -0.142824 25.5506 -1.21685e-06 25.5506)
(25.1656 -9.81051 -0.133483 25.1656 -1.25417e-06 25.1656)
(25.1656 -9.81051 -0.133483 25.1656 -1.25698e-06 25.1656)
(24.7912 -8.99354 -0.123446 24.7912 -1.30481e-06 24.7912)
(24.7912 -8.99354 -0.123446 24.7912 -1.30752e-06 24.7912)
(24.4314 -8.15055 -0.112723 24.4314 -1.33339e-06 24.4314)
(24.4314 -8.15055 -0.112723 24.4314 -1.33446e-06 24.4314)
(24.0904 -7.28437 -0.101345 24.0904 -1.36556e-06 24.0904)
(24.0904 -7.28437 -0.101345 24.0904 -1.37013e-06 24.0904)
(23.7718 -6.39814 -0.0893344 23.7718 -1.40268e-06 23.7718)
(23.7718 -6.39814 -0.0893344 23.7718 -1.40737e-06 23.7718)
(23.4792 -5.49446 -0.0767102 23.4792 -1.42143e-06 23.4792)
(23.4792 -5.49446 -0.0767102 23.4792 -1.43318e-06 23.4792)
(23.2156 -4.57586 -0.0634972 23.2156 -1.45915e-06 23.2156)
(23.2156 -4.57586 -0.0634972 23.2156 -1.47111e-06 23.2156)
(22.9836 -3.64494 -0.0497192 22.9836 -1.4543e-06 22.9836)
(22.9836 -3.64494 -0.0497192 22.9836 -1.4752e-06 22.9836)
(22.7851 -2.70443 -0.035409 22.7851 -1.49845e-06 22.7851)
(22.7851 -2.70443 -0.0354089 22.7851 -1.51575e-06 22.7851)
(22.6216 -1.75682 -0.0205855 22.6216 -1.48997e-06 22.6216)
(22.6216 -1.75682 -0.0205855 22.6216 -1.5121e-06 22.6216)
(22.494 -0.64605 -0.0052885 22.494 -1.52628e-06 22.494)
(22.494 -0.646047 -0.00528848 22.494 -1.54036e-06 22.494)
(22.4026 0.000217119 -1.80316e-06 22.4026 -1.52172e-06 22.4026)
(22.4026 0.000218633 -1.81573e-06 22.4026 -1.54e-06 22.4026)
(22.347 1.10116 -0.0106452 22.347 -1.55155e-06 22.347)
(22.347 1.10117 -0.0106452 22.347 -1.56119e-06 22.347)
(22.3261 2.04913 -0.027107 22.3261 -1.5432e-06 22.3261)
(22.3261 2.04913 -0.027107 22.3261 -1.55849e-06 22.3261)
(22.3383 2.98911 -0.04395 22.3383 -1.5702e-06 22.3383)
(22.3383 2.98911 -0.04395 22.3383 -1.57349e-06 22.3383)
(22.3816 3.91708 -0.0611049 22.3816 -1.57616e-06 22.3816)
(22.3816 3.91708 -0.0611049 22.3816 -1.58105e-06 22.3816)
(22.4534 4.82916 -0.0785018 22.4534 -1.59115e-06 22.4534)
(22.4534 4.82916 -0.0785018 22.4534 -1.59843e-06 22.4534)
(22.5508 5.72127 -0.096068 22.5508 -1.61528e-06 22.5508)
(22.5508 5.72127 -0.0960681 22.5508 -1.61782e-06 22.5508)
(22.6704 6.58894 -0.113717 22.6704 -1.6129e-06 22.6704)
(22.6704 6.58894 -0.113717 22.6704 -1.63065e-06 22.6704)
(22.8089 7.42746 -0.131353 22.8089 -1.65983e-06 22.8089)
(22.8089 7.42746 -0.131353 22.8089 -1.67016e-06 22.8089)
(22.9624 8.2325 -0.148871 22.9624 -1.65992e-06 22.9624)
(22.9624 8.2325 -0.148871 22.9624 -1.68155e-06 22.9624)
(23.1273 8.99984 -0.166179 23.1273 -1.7118e-06 23.1273)
(23.1273 8.99984 -0.166179 23.1273 -1.71944e-06 23.1273)
(23.2998 9.72514 -0.183166 23.2998 -1.73634e-06 23.2998)
(23.2998 9.72514 -0.183166 23.2998 -1.75356e-06 23.2998)
(23.4763 10.4048 -0.199727 23.4763 -1.79234e-06 23.4763)
(23.4763 10.4049 -0.199727 23.4763 -1.79821e-06 23.4763)
(23.6531 11.036 -0.21577 23.6531 -1.81437e-06 23.6531)
(23.6531 11.036 -0.21577 23.6531 -1.83426e-06 23.6531)
(23.8268 11.6157 -0.231206 23.8268 -1.87918e-06 23.8268)
(23.8268 11.6157 -0.231206 23.8268 -1.88669e-06 23.8268)
(23.9944 12.1419 -0.245944 23.9944 -1.89936e-06 23.9944)
(23.9944 12.1419 -0.245944 23.9944 -1.92204e-06 23.9944)
(24.1528 12.6127 -0.259907 24.1528 -1.97894e-06 24.1528)
(24.1528 12.6127 -0.259907 24.1528 -1.98599e-06 24.1528)
(24.2994 13.0273 -0.27302 24.2994 -2.02074e-06 24.2994)
(24.2994 13.0273 -0.27302 24.2994 -2.03787e-06 24.2994)
(24.4319 13.3856 -0.285234 24.4319 -2.09094e-06 24.4319)
(24.4319 13.3856 -0.285234 24.4319 -2.09266e-06 24.4319)
(24.5482 13.6881 -0.296511 24.5482 -2.12819e-06 24.5482)
(24.5482 13.6881 -0.296511 24.5482 -2.142e-06 24.5482)
(24.6465 13.9354 -0.306817 24.6465 -2.195e-06 24.6465)
(24.6465 13.9354 -0.306817 24.6465 -2.20055e-06 24.6465)
(24.7255 14.129 -0.316124 24.7255 -2.27374e-06 24.7255)
(24.7255 14.129 -0.316124 24.7255 -2.27553e-06 24.7255)
(24.784 14.271 -0.324429 24.784 -2.29612e-06 24.784)
(24.784 14.271 -0.324429 24.784 -2.31682e-06 24.784)
(24.8211 14.3637 -0.331744 24.8211 -2.37588e-06 24.8211)
(24.8211 14.3637 -0.331745 24.8211 -2.37772e-06 24.8211)
(24.8362 14.4095 -0.338068 24.8362 -2.43111e-06 24.8362)
(24.8362 14.4095 -0.338068 24.8362 -2.43297e-06 24.8362)
(24.8291 14.4114 -0.343423 24.8291 -2.47328e-06 24.8291)
(24.8291 14.4114 -0.343423 24.8291 -2.49157e-06 24.8291)
(24.7996 14.3726 -0.347845 24.7996 -2.55818e-06 24.7996)
(24.7996 14.3726 -0.347845 24.7996 -2.56379e-06 24.7996)
(24.7478 14.2964 -0.351367 24.7478 -2.57368e-06 24.7478)
(24.7478 14.2964 -0.351367 24.7478 -2.59696e-06 24.7478)
(24.674 14.186 -0.354038 24.674 -2.63559e-06 24.674)
(24.674 14.186 -0.354038 24.674 -2.63754e-06 24.674)
(24.5787 14.0447 -0.355895 24.5787 -2.68871e-06 24.5787)
(24.5787 14.0447 -0.355895 24.5787 -2.69306e-06 24.5787)
(24.4623 13.8758 -0.356986 24.4623 -2.72805e-06 24.4623)
(24.4623 13.8758 -0.356986 24.4623 -2.73004e-06 24.4623)
(24.3258 13.6824 -0.357367 24.3258 -2.76247e-06 24.3258)
(24.3258 13.6824 -0.357367 24.3258 -2.77852e-06 24.3258)
(24.1697 13.4678 -0.357089 24.1697 -2.81626e-06 24.1697)
(24.1697 13.4678 -0.357089 24.1697 -2.81828e-06 24.1697)
(23.9951 13.2349 -0.356208 23.9951 -2.8218e-06 23.9951)
(23.9951 13.2349 -0.356208 23.9951 -2.84562e-06 23.9951)
(23.8029 12.9864 -0.354778 23.8029 -2.88217e-06 23.8029)
(23.8029 12.9864 -0.354778 23.8029 -2.88591e-06 23.8029)
(23.594 12.725 -0.352843 23.594 -2.87852e-06 23.594)
(23.594 12.725 -0.352843 23.594 -2.89987e-06 23.594)
(23.3695 12.4532 -0.350463 23.3695 -2.90581e-06 23.3695)
(23.3695 12.4532 -0.350463 23.3695 -2.90789e-06 23.3695)
(23.1304 12.1729 -0.347682 23.1304 -2.93654e-06 23.1304)
(23.1304 12.1729 -0.347682 23.1304 -2.9386e-06 23.1304)
(22.8777 11.8863 -0.344537 22.8777 -2.93945e-06 22.8777)
(22.8777 11.8863 -0.344537 22.8777 -2.94157e-06 22.8777)
(22.6125 11.5955 -0.341085 22.6125 -2.93642e-06 22.6125)
(22.6125 11.5955 -0.341085 22.6125 -2.95836e-06 22.6125)
(22.3357 11.3018 -0.337362 22.3357 -2.95988e-06 22.3357)
(22.3357 11.3018 -0.337362 22.3357 -2.96968e-06 22.3357)
(22.0485 11.0067 -0.333402 22.0485 -2.91462e-06 22.0485)
(22.0485 11.0067 -0.333402 22.0485 -2.9563e-06 22.0485)
(21.7518 10.7117 -0.329241 21.7518 -2.95794e-06 21.7518)
(21.7518 10.7117 -0.329241 21.7518 -2.98781e-06 21.7518)
(21.4465 10.4178 -0.324913 21.4465 -2.88921e-06 21.4465)
(21.4465 10.4178 -0.324913 21.4465 -2.94653e-06 21.4465)
(21.1335 10.126 -0.320449 21.1335 -2.92652e-06 21.1335)
(21.1335 10.126 -0.320449 21.1335 -2.9682e-06 21.1335)
(20.8137 9.83731 -0.315871 20.8137 -2.82707e-06 20.8137)
(20.8137 9.83731 -0.315871 20.8137 -2.89826e-06 20.8137)
(20.488 9.55224 -0.311208 20.488 -2.88721e-06 20.488)
(20.488 9.55224 -0.311208 20.488 -2.94179e-06 20.488)
(20.1571 9.27139 -0.306473 20.1571 -2.78225e-06 20.1571)
(20.1571 9.27139 -0.306473 20.1571 -2.85526e-06 20.1571)
(19.8218 8.99538 -0.301689 19.8218 -2.8262e-06 19.8218)
(19.8218 8.99538 -0.301689 19.8218 -2.87469e-06 19.8218)
(19.4829 8.72461 -0.296876 19.4829 -2.72461e-06 19.4829)
(19.4829 8.72461 -0.296876 19.4829 -2.78714e-06 19.4829)
(19.141 8.45931 -0.292046 19.141 -2.73854e-06 19.141)
(19.141 8.45931 -0.292046 19.141 -2.77416e-06 19.141)
(18.7966 8.19967 -0.287208 18.7966 -2.65497e-06 18.7966)
(18.7966 8.19967 -0.287208 18.7966 -2.70616e-06 18.7966)
(18.4505 7.94587 -0.282371 18.4505 -2.64261e-06 18.4505)
(18.4505 7.94587 -0.282371 18.4505 -2.67794e-06 18.4505)
(18.1032 7.69792 -0.277546 18.1032 -2.53565e-06 18.1032)
(18.1032 7.69792 -0.277546 18.1032 -2.59941e-06 18.1032)
(17.7552 7.4558 -0.272732 17.7552 -2.54202e-06 17.7552)
(17.7552 7.4558 -0.272732 17.7552 -2.60381e-06 17.7552)
(17.4069 7.21955 -0.267937 17.4069 -2.37323e-06 17.4069)
(17.4069 7.21955 -0.267937 17.4069 -2.46824e-06 17.4069)
(17.0589 6.98899 -0.263164 17.0589 -2.40741e-06 17.0589)
(17.0589 6.98899 -0.263164 17.0589 -2.49626e-06 17.0589)
(16.7115 6.76401 -0.258406 16.7115 -2.2355e-06 16.7115)
(16.7115 6.76401 -0.258406 16.7115 -2.34817e-06 16.7115)
(16.3652 6.54458 -0.25367 16.3652 -2.26255e-06 16.3652)
(16.3652 6.54458 -0.25367 16.3652 -2.37347e-06 16.3652)
(16.0202 6.33055 -0.248956 16.0202 -2.03334e-06 16.0202)
(16.0202 6.33055 -0.248956 16.0202 -2.1785e-06 16.0202)
(15.677 6.12178 -0.244261 15.677 -2.09807e-06 15.677)
(15.677 6.12178 -0.244261 15.677 -2.24681e-06 15.677)
(15.3358 5.91818 -0.239587 15.3358 -1.84312e-06 15.3358)
(15.3358 5.91818 -0.239587 15.3358 -2.0213e-06 15.3358)
(14.997 5.71969 -0.234934 14.997 -1.9223e-06 14.997)
(14.997 5.71969 -0.234934 14.997 -2.11024e-06 14.997)
(14.6607 5.52627 -0.230305 14.6607 -1.60598e-06 14.6607)
(14.6607 5.52627 -0.230305 14.6607 -1.83153e-06 14.6607)
(14.3274 5.33781 -0.225703 14.3274 -1.72343e-06 14.3274)
(14.3273 5.33781 -0.225703 14.3274 -1.96798e-06 14.3273)
(13.997 5.15417 -0.221126 13.997 -1.3391e-06 13.997)
(13.997 5.15417 -0.221126 13.997 -1.6268e-06 13.997)
(13.67 4.97523 -0.216573 13.67 -1.51745e-06 13.67)
(13.67 4.97523 -0.216573 13.67 -1.83557e-06 13.67)
(13.3464 4.80084 -0.212044 13.3464 -1.05908e-06 13.3464)
(13.3464 4.80084 -0.212044 13.3464 -1.42355e-06 13.3464)
(13.0265 4.63085 -0.207535 13.0265 -1.30529e-06 13.0265)
(13.0265 4.63085 -0.207535 13.0265 -1.71403e-06 13.0265)
(12.7104 4.46512 -0.203045 12.7104 -7.3926e-07 12.7104)
(12.7104 4.46512 -0.203045 12.7104 -1.20328e-06 12.7104)
(12.3983 4.30347 -0.198571 12.3983 -1.07101e-06 12.3983)
(12.3983 4.30347 -0.198571 12.3983 -1.59446e-06 12.3983)
(12.0903 4.14575 -0.194108 12.0903 -3.90969e-07 12.0903)
(12.0903 4.14575 -0.194108 12.0903 -9.81132e-07 12.0903)
(11.7865 3.99184 -0.189656 11.7865 -8.41394e-07 11.7865)
(11.7865 3.99184 -0.189656 11.7865 -1.52036e-06 11.7865)
(11.487 3.8416 -0.18521 11.487 2.06467e-08 11.487)
(11.487 3.8416 -0.18521 11.487 -7.4628e-07 11.487)
(11.192 3.69495 -0.18077 11.192 -5.7978e-07 11.192)
(11.192 3.69495 -0.18077 11.192 -1.49586e-06 11.192)
(10.9015 3.5518 -0.176336 10.9015 4.78106e-07 10.9015)
(10.9015 3.5518 -0.176336 10.9015 -5.15217e-07 10.9015)
(10.6157 3.41208 -0.171906 10.6157 1.73217e-22 10.6157)
(10.6157 3.41208 -0.171906 10.6157 -1.32805e-06 10.6157)
(10.3347 3.27575 -0.167483 10.3346 1.01268e-06 10.3347)
(10.3347 3.27575 -0.167483 10.3347 -2.68501e-07 10.3347)
(10.0584 3.14274 -0.163065 10.0584 -2.1616e-23 10.0584)
(10.0584 3.14274 -0.163065 10.0584 -1.58231e-06 10.0584)
(9.78701 3.01303 -0.158655 9.78699 1.63412e-06 9.78701)
(9.787 3.01303 -0.158655 9.787 -1.7361e-08 9.787)
(9.52057 2.88659 -0.154255 9.52057 2.25067e-23 9.52057)
(9.52057 2.88659 -0.154255 9.52058 -1.74806e-06 9.52057)
(9.25916 2.76346 -0.149868 9.25914 2.37422e-06 9.25916)
(9.25915 2.76346 -0.149868 9.25915 2.4252e-07 9.25915)
(9.00281 2.64371 -0.145501 9.00281 -6.88543e-22 9.00281)
(9.0028 2.64371 -0.145501 9.00282 -2.10859e-06 9.0028)
(8.75159 2.52749 -0.141164 8.75156 2.86824e-06 8.75159)
(8.75158 2.52749 -0.141164 8.75158 5.13791e-07 8.75158)
(8.50553 2.415 -0.136872 8.50553 8.58226e-23 8.50553)
(8.50552 2.415 -0.136872 8.50554 -2.69131e-06 8.50552)
(8.26469 2.30652 -0.132642 8.26465 2.54744e-06 8.26469)
(8.26468 2.30652 -0.132642 8.26468 7.77473e-07 8.26468)
(8.02907 2.20236 -0.128498 8.02907 4.24341e-23 8.02907)
(8.02906 2.20237 -0.128498 8.02908 -3.41531e-06 8.02906)
(7.79873 2.10288 -0.124467 7.79868 1.90801e-06 7.79873)
(7.79871 2.10288 -0.124467 7.79871 1.04773e-06 7.79871)
(7.57362 2.00835 -0.120575 7.57362 -5.07867e-22 7.57362)
(7.57361 2.00835 -0.120575 7.57364 -4.34022e-06 7.57361)
(7.3538 1.91902 -0.116848 7.3538 1.24529e-06 7.3538)
(7.3538 1.91902 -0.116848 7.35378 1.75601e-06 7.3538)
(7.13922 1.83501 -0.113308 7.13922 5.19418e-24 7.13922)
(7.1392 1.83501 -0.113308 7.13924 -5.51881e-06 7.1392)
(6.92986 1.75632 -0.109968 6.92986 1.47567e-06 6.92986)
(6.92987 1.75632 -0.109968 6.92983 4.00775e-06 6.92987)
(6.72567 1.68274 -0.106836 6.72567 -2.07367e-35 6.72567)
(6.72565 1.68274 -0.106836 6.7257 -7.0059e-06 6.72565)
(6.5266 1.61396 -0.103902 6.5266 1.73055e-06 6.5266)
(6.52661 1.61396 -0.103902 6.52657 7.2008e-06 6.52661)
(6.33257 1.54954 -0.101158 6.33257 -8.16518e-23 6.33257)
(6.33256 1.54954 -0.101158 6.33261 -9.07803e-06 6.33256)
(6.14352 1.48878 -0.0985758 6.14352 1.92826e-06 6.14352)
(6.14354 1.48878 -0.0985758 6.14349 1.16295e-05 6.14354)
(5.95936 1.4309 -0.0961134 5.95936 -2.68503e-21 5.95936)
(5.95933 1.4309 -0.0961134 5.95939 -1.205e-05 5.95933)
(5.77999 1.37515 -0.0937239 5.77999 2.12158e-06 5.77999)
(5.78 1.37515 -0.0937239 5.77995 1.78772e-05 5.78)
(5.60533 1.32087 -0.0913669 5.60533 3.31996e-21 5.60533)
(5.6053 1.32087 -0.0913669 5.60537 -1.60254e-05 5.6053)
(5.43529 1.26751 -0.0889998 5.43529 2.26142e-06 5.43529)
(5.43531 1.26751 -0.0889998 5.43524 2.40693e-05 5.43531)
(5.26979 1.21481 -0.0865938 5.26979 -0 5.26979)
(5.26976 1.21481 -0.0865938 5.26984 -2.12169e-05 5.26976)
(5.10875 1.16276 -0.0841438 5.10875 2.30848e-06 5.10875)
(5.10878 1.16276 -0.0841438 5.1087 3.05085e-05 5.10878)
(4.95211 1.11145 -0.0816517 4.95211 -5.60737e-21 4.95211)
(4.95208 1.11145 -0.0816517 4.95217 -3.01099e-05 4.95208)
(4.79979 1.06111 -0.0791303 4.79979 2.27581e-06 4.79979)
(4.79982 1.06111 -0.0791303 4.79973 3.85843e-05 4.79982)
(4.65174 1.01208 -0.0765991 4.65174 4.15143e-22 4.65174)
(4.6517 1.01208 -0.0765991 4.6518 -4.26403e-05 4.6517)
(4.50788 0.964613 -0.0740934 4.50788 2.1095e-06 4.50788)
(4.50791 0.964613 -0.0740934 4.50782 4.59001e-05 4.50791)
(4.36817 0.918919 -0.0716197 4.36817 4.10217e-07 4.36817)
(4.36813 0.91892 -0.0716197 4.36824 -5.46537e-05 4.36813)
(4.23254 0.875403 -0.0692096 4.23254 1.79921e-06 4.23254)
(4.23257 0.875403 -0.0692096 4.23248 5.92648e-05 4.23257)
(4.10094 0.834335 -0.0669022 4.10094 3.97625e-06 4.10094)
(4.1009 0.834336 -0.0669022 4.10101 -7.02304e-05 4.1009)
(3.9733 0.795925 -0.0647119 3.9733 3.38656e-06 3.9733)
(3.97333 0.795925 -0.064712 3.97323 7.65917e-05 3.97333)
(3.84955 0.760307 -0.0626707 3.84955 1.86377e-06 3.84955)
(3.84952 0.760308 -0.0626708 3.84962 -8.83739e-05 3.84952)
(3.72964 0.727276 -0.0607835 3.72964 5.92275e-06 3.72964)
(3.72966 0.727276 -0.0607835 3.72958 9.48859e-05 3.72966)
(3.61348 0.696575 -0.0590273 3.61348 2.01435e-06 3.61348)
(3.61345 0.696576 -0.0590273 3.61354 -0.000105069 3.61345)
(3.50101 0.667935 -0.0573977 3.50101 6.25349e-06 3.50101)
(3.50103 0.667935 -0.0573978 3.50097 0.000109201 3.50103)
(3.39215 0.641007 -0.0558671 3.39215 2.17232e-06 3.39215)
(3.39213 0.641008 -0.0558672 3.39219 -0.000117532 3.39213)
(3.28683 0.615368 -0.0544157 3.28683 6.27588e-06 3.28683)
(3.28683 0.615368 -0.0544158 3.28681 0.000113 3.28683)
(3.18497 0.590275 -0.0529993 3.18497 -5.21256e-06 3.18497)
(3.18496 0.590276 -0.0529993 3.18499 -0.000120854 3.18496)
(3.08651 0.565354 -0.0515377 3.08651 -2.43012e-06 3.08651)
(3.0865 0.565354 -0.0515378 3.08652 0.000118126 3.0865)
(2.99138 0.540743 -0.0500458 2.99138 -7.0953e-06 2.99138)
(2.99138 0.540744 -0.0500459 2.99137 -0.000118303 2.99138)
(2.89953 0.516497 -0.0485331 2.89953 -2.62921e-06 2.89953)
(2.89951 0.516498 -0.0485332 2.89956 0.000112896 2.89951)
(2.8109 0.492929 -0.0470001 2.8109 -7.23738e-06 2.8109)
(2.81091 0.492929 -0.0470001 2.81087 -0.000110369 2.81091)
(2.72544 0.470225 -0.0455055 2.72544 -2.81495e-06 2.72544)
(2.72542 0.470226 -0.0455056 2.72549 0.000102221 2.72541)
(2.64311 0.448321 -0.044029 2.64311 -6.02217e-06 2.64311)
(2.64313 0.448321 -0.044029 2.64306 -9.7083e-05 2.64313)
(2.56385 0.427561 -0.042583 2.56385 -4.3167e-06 2.56385)
(2.56382 0.427561 -0.042583 2.56391 8.74917e-05 2.56382)
(2.48764 0.408203 -0.0412274 2.48764 -3.70811e-06 2.48764)
(2.48766 0.408203 -0.0412274 2.48758 -8.12335e-05 2.48766)
(2.41442 0.390503 -0.0399603 2.41442 -6.97774e-06 2.41442)
(2.41438 0.390504 -0.0399604 2.41448 7.27209e-05 2.41438)
(2.34415 0.375268 -0.0388459 2.34415 -4.17922e-06 2.34415)
(2.34417 0.375268 -0.038846 2.3441 -6.79918e-05 2.34417)
(2.27679 0.363047 -0.0379978 2.27679 -6.84e-06 2.27679)
(2.27676 0.363048 -0.0379979 2.27686 6.04232e-05 2.27676)
(2.2123 0.354032 -0.0374362 2.2123 -4.63629e-06 2.2123)
(2.21232 0.354033 -0.0374363 2.21225 -5.69673e-05 2.21232)
(2.15062 0.348552 -0.0372072 2.15062 -6.77643e-06 2.15062)
(2.15058 0.348554 -0.0372073 2.15068 4.03041e-05 2.15058)
(2.09168 0.346637 -0.0373634 2.09168 -5.04734e-06 2.09168)
(2.0917 0.346639 -0.0373636 2.09163 -4.77666e-05 2.0917)
(2.03543 0.347964 -0.0378905 2.03543 -2.13376e-06 2.03543)
(2.0354 0.347966 -0.0378907 2.03549 1.80305e-05 2.0354)
(1.98179 0.352012 -0.0387652 1.98179 -5.39792e-06 1.98179)
(1.98181 0.352014 -0.0387654 1.98175 -4.01026e-05 1.98181)
(1.93068 0.357929 -0.0399255 1.93068 -0 1.93068)
(1.93065 0.357931 -0.0399257 1.93074 3.67126e-07 1.93065)
(1.88201 0.364509 -0.0412668 1.88201 -5.67804e-06 1.88201)
(1.88203 0.364512 -0.0412671 1.88198 -3.98966e-05 1.88203)
(1.83566 0.370818 -0.0426353 1.83579 1.16319e-05 1.83566)
(1.8357 0.370821 -0.0426356 1.8357 -5.06388e-06 1.8357)
(1.79166 0.376544 -0.0439752 1.79166 -5.9186e-06 1.79166)
(1.79167 0.376547 -0.0439756 1.79162 -3.46476e-05 1.79167)
(1.74976 0.381879 -0.0452673 1.74987 2.34661e-05 1.74976)
(1.74979 0.381882 -0.0452677 1.74979 -5.92805e-06 1.74979)
(1.71004 0.387438 -0.0465723 1.71004 -6.13628e-06 1.71004)
(1.71005 0.387442 -0.0465727 1.71001 -3.03062e-05 1.71005)
(1.67227 0.393763 -0.0479773 1.67235 2.05716e-05 1.67227)
(1.6723 0.393767 -0.0479777 1.6723 -6.67997e-06 1.6723)
(1.63649 0.401205 -0.049532 1.63649 -6.30964e-06 1.63649)
(1.6365 0.401209 -0.0495325 1.63647 -2.66953e-05 1.6365)
(1.60251 0.409949 -0.0512844 1.60257 1.48569e-05 1.60251)
(1.60253 0.409954 -0.051285 1.60253 -6.75459e-06 1.60253)
(1.57031 0.419947 -0.0532471 1.57031 -6.46804e-06 1.57031)
(1.57031 0.419952 -0.0532477 1.57029 -2.36888e-05 1.57031)
(1.53971 0.431009 -0.0554104 1.53975 9.80499e-06 1.53971)
(1.53972 0.431015 -0.0554111 1.53972 -6.9354e-06 1.53972)
(1.51066 0.44307 -0.0577497 1.51066 -6.77705e-06 1.51066)
(1.51066 0.443076 -0.0577505 1.51065 -2.13757e-05 1.51066)
(1.48298 0.455889 -0.0602866 1.48301 6.00677e-06 1.48298)
(1.48299 0.455895 -0.0602875 1.48299 -7.26687e-06 1.48299)
(1.45659 0.468668 -0.0629471 1.45659 -7.20435e-06 1.45659)
(1.45659 0.468675 -0.062948 1.45658 -1.96411e-05 1.45659)
(1.43131 0.480273 -0.0655964 1.43133 3.67974e-06 1.43131)
(1.43132 0.48028 -0.0655974 1.43132 -7.67658e-06 1.43132)
(1.40704 0.489391 -0.068055 1.40704 -7.73399e-06 1.40704)
(1.40704 0.489398 -0.068056 1.40704 -1.83512e-05 1.40704)
(1.38364 0.49507 -0.0701198 1.38365 1.48477e-06 1.38364)
(1.38364 0.495078 -0.0701209 1.38364 -8.24417e-06 1.38364)
(1.36101 0.49706 -0.0716942 1.36101 -8.36443e-06 1.36101)
(1.36101 0.497067 -0.0716953 1.36101 -1.74565e-05 1.36101)
(1.33908 0.495919 -0.0727618 1.33908 -4.65257e-07 1.33908)
(1.33908 0.495926 -0.0727628 1.33908 -8.77625e-06 1.33908)
(1.31778 0.492925 -0.0734605 1.31778 -8.75816e-06 1.31778)
(1.31778 0.492932 -0.0734616 1.31779 -1.6563e-05 1.31778)
(1.29709 0.489679 -0.0739958 1.29708 -1.8827e-06 1.29709)
(1.29708 0.489687 -0.0739969 1.29708 -8.99859e-06 1.29708)
(1.27694 0.487986 -0.0746251 1.27694 -8.85307e-06 1.27694)
(1.27694 0.487995 -0.0746263 1.27695 -1.55785e-05 1.27694)
(1.25731 0.488741 -0.0756433 1.2573 -2.91962e-06 1.25731)
(1.2573 0.488751 -0.0756448 1.2573 -9.12932e-06 1.2573)
(1.23811 0.491361 -0.0770516 1.23811 -9.16058e-06 1.23811)
(1.2381 0.491373 -0.0770533 1.23812 -1.5041e-05 1.2381)
(1.21928 0.49435 -0.078696 1.21926 -4.06371e-06 1.21928)
(1.21927 0.494363 -0.0786979 1.21927 -9.57974e-06 1.21927)
(1.2007 0.495964 -0.0802733 1.2007 -9.82852e-06 1.2007)
(1.20069 0.495976 -0.0802753 1.20072 -1.50536e-05 1.20069)
(1.18234 0.495383 -0.0815244 1.18231 -5.36466e-06 1.18234)
(1.18233 0.495396 -0.0815265 1.18233 -1.02845e-05 1.18233)
(1.16409 0.492623 -0.0824221 1.16409 -1.05813e-05 1.16409)
(1.16408 0.492636 -0.0824243 1.1641 -1.52486e-05 1.16408)
(1.14594 0.487904 -0.0829683 1.14591 -6.63059e-06 1.14594)
(1.14593 0.487918 -0.0829706 1.14593 -1.10211e-05 1.14593)
(1.12783 0.481197 -0.0832061 1.12783 -1.12502e-05 1.12783)
(1.12782 0.481211 -0.0832084 1.12785 -1.54539e-05 1.12782)
(1.10979 0.472058 -0.0830518 1.10975 -7.69718e-06 1.10979)
(1.10977 0.472071 -0.0830542 1.10977 -1.16919e-05 1.10977)
(1.09176 0.46007 -0.0824037 1.09176 -1.20317e-05 1.09176)
(1.09175 0.460082 -0.082406 1.09178 -1.58558e-05 1.09175)
(1.07383 0.445372 -0.0811788 1.0738 -8.8808e-06 1.07383)
(1.07382 0.445384 -0.081181 1.07382 -1.25481e-05 1.07382)
(1.056 0.429333 -0.079467 1.056 -1.27386e-05 1.056)
(1.05599 0.429346 -0.0794691 1.05603 -1.6364e-05 1.05599)
(1.03838 0.414155 -0.0776382 1.03834 -9.53806e-06 1.03838)
(1.03837 0.414169 -0.0776406 1.03837 -1.30344e-05 1.03837)
(1.02097 0.402018 -0.0761153 1.02097 -1.30442e-05 1.02097)
(1.02096 0.402036 -0.0761181 1.021 -1.66069e-05 1.02096)
(1.00386 0.394626 -0.0753074 1.00381 -9.74117e-06 1.00386)
(1.00384 0.394649 -0.0753111 1.00384 -1.32541e-05 1.00384)
(0.986987 0.392593 -0.0755002 0.986987 -1.34237e-05 0.986987)
(0.986971 0.392622 -0.0755051 0.987019 -1.69997e-05 0.986971)
(0.970376 0.395323 -0.0767182 0.970326 -1.02307e-05 0.970376)
(0.970359 0.39536 -0.0767246 0.970359 -1.38608e-05 0.970359)
(0.953882 0.401994 -0.078789 0.953882 -1.41018e-05 0.953882)
(0.953865 0.402039 -0.0787972 0.953917 -1.78867e-05 0.953865)
(0.93746 0.411761 -0.0816368 0.937406 -1.06561e-05 0.93746)
(0.937443 0.411816 -0.081647 0.937443 -1.45878e-05 0.937443)
(0.920896 0.422257 -0.0850622 0.920896 -1.5032e-05 0.920896)
(0.920878 0.422321 -0.0850745 0.920935 -1.91537e-05 0.920878)
(0.904103 0.429242 -0.0883418 0.904043 -1.13757e-05 0.904103)
(0.904084 0.429311 -0.0883558 0.904084 -1.57562e-05 0.904084)
(0.886861 0.428354 -0.090446 0.886861 -1.6397e-05 0.886861)
(0.886841 0.428423 -0.0904607 0.886903 -2.10403e-05 0.886841)
(0.869174 0.41727 -0.0905064 0.869109 -1.21852e-05 0.869175)
(0.869154 0.417335 -0.0905208 0.869154 -1.71305e-05 0.869154)
(0.85097 0.396471 -0.0882657 0.85097 -1.75084e-05 0.85097)
(0.850948 0.396528 -0.088279 0.851016 -2.29201e-05 0.850948)
(0.832436 0.367661 -0.0840121 0.832365 -1.2238e-05 0.832437)
(0.832413 0.367708 -0.0840235 0.832413 -1.80937e-05 0.832413)