/*--------------------------------*- C++ -*----------------------------------*\
| =========                 |                                                 |
| \\      /  F ield         | OpenFOAM: The Open Source CFD Toolbox           |
|  \\    /   O peration     | Version:  2012                                  |
|   \\  /    A nd           | Website:  www.openfoam.com                      |
|    \\/     M anipulation  |                                                 |
\*---------------------------------------------------------------------------*/
FoamFile
{
    version     2.0;
    format      ascii;
    class       volVectorField;
    location    "13400";
    object      U;
}
// * * * * * * * * * * * * * * * * * * * * * * * * * * * * * * * * * * * * * //

dimensions      [0 1 -1 0 0 0 0];


internalField   nonuniform List<vector> 
2560
(
(0.0834873 1.52359e-08 -9.95348e-07)
(0.0834875 -1.01798e-08 4.59973e-22)
(0.251473 4.88773e-08 -1.50125e-06)
(0.251473 -1.54267e-08 -1.68848e-10)
(0.421689 7.32365e-08 -1.33931e-06)
(0.42169 -3.47958e-08 -5.46357e-10)
(0.594154 7.64401e-08 -9.11279e-07)
(0.594155 -7.37121e-08 -1.06652e-09)
(0.768883 7.75052e-08 -5.24163e-07)
(0.768884 -9.88156e-08 -1.41506e-09)
(0.945893 8.62144e-08 -3.12988e-07)
(0.945895 -1.04306e-07 -1.6776e-09)
(1.12521 9.40613e-08 -2.0719e-07)
(1.12521 -1.05438e-07 -1.93866e-09)
(1.30685 9.92542e-08 -1.4996e-07)
(1.30686 -1.06911e-07 -2.24912e-09)
(1.49088 1.02434e-07 -1.15646e-07)
(1.49088 -1.08817e-07 -2.62708e-09)
(1.67732 1.0557e-07 -9.31159e-08)
(1.67732 -1.09855e-07 -3.07062e-09)
(1.86624 1.07501e-07 -7.71631e-08)
(1.86624 -1.11453e-07 -3.58142e-09)
(2.0577 1.09363e-07 -6.51158e-08)
(2.05771 -1.12683e-07 -4.16372e-09)
(2.25177 1.11034e-07 -5.54858e-08)
(2.25178 -1.13772e-07 -4.8181e-09)
(2.44852 1.1234e-07 -4.73793e-08)
(2.44853 -1.14981e-07 -5.55006e-09)
(2.64804 1.137e-07 -4.02238e-08)
(2.64804 -1.15944e-07 -6.36407e-09)
(2.85039 1.14709e-07 -3.36299e-08)
(2.85039 -1.17108e-07 -7.26492e-09)
(3.05567 1.15957e-07 -2.73179e-08)
(3.05567 -1.17912e-07 -8.25712e-09)
(3.26395 1.16979e-07 -2.10754e-08)
(3.26395 -1.18846e-07 -9.34633e-09)
(3.47532 1.17771e-07 -1.4731e-08)
(3.47532 -1.1993e-07 -1.0541e-08)
(3.68986 1.18797e-07 -8.14175e-09)
(3.68986 -1.20717e-07 -8.13856e-09)
(3.90764 1.19837e-07 -1.18243e-09)
(3.90764 -1.21438e-07 -1.17938e-09)
(4.12874 1.20612e-07 6.26359e-09)
(4.12874 -1.22382e-07 6.26653e-09)
(4.35321 1.2111e-07 1.43075e-08)
(4.35321 -1.23569e-07 1.43103e-08)
(4.58111 1.2251e-07 2.07731e-08)
(4.58111 -1.23828e-07 2.3057e-08)
(4.81248 1.23078e-07 2.28766e-08)
(4.81248 -1.24897e-07 3.26132e-08)
(5.04734 1.23867e-07 2.51429e-08)
(5.04735 -1.25733e-07 4.30901e-08)
(5.28573 1.24257e-07 2.75739e-08)
(5.28573 -1.26954e-07 5.45997e-08)
(5.52762 1.25896e-07 3.01873e-08)
(5.52762 -1.26926e-07 6.72553e-08)
(5.773 1.26065e-07 3.29976e-08)
(5.773 -1.28361e-07 8.11795e-08)
(6.02183 1.27126e-07 3.60101e-08)
(6.02183 -1.2891e-07 9.65036e-08)
(6.27405 1.27301e-07 3.92303e-08)
(6.27405 -1.30347e-07 1.13364e-07)
(6.52957 1.29112e-07 4.26779e-08)
(6.52957 -1.3016e-07 1.20122e-07)
(6.78828 1.29162e-07 4.63713e-08)
(6.78829 -1.31743e-07 1.19364e-07)
(7.05005 1.30143e-07 5.0314e-08)
(7.05006 -1.32411e-07 1.1881e-07)
(7.31472 1.30651e-07 5.45182e-08)
(7.31472 -1.3357e-07 1.18447e-07)
(7.58208 1.32242e-07 5.90082e-08)
(7.58208 -1.33666e-07 1.18262e-07)
(7.85192 1.32408e-07 6.38028e-08)
(7.85192 -1.35211e-07 1.18245e-07)
(8.12398 1.33339e-07 6.89083e-08)
(8.12398 -1.36015e-07 1.18388e-07)
(8.39799 1.33983e-07 7.43401e-08)
(8.39799 -1.37135e-07 1.18684e-07)
(8.67363 1.3552e-07 8.01264e-08)
(8.67363 -1.37394e-07 1.19126e-07)
(8.95055 1.35978e-07 8.62927e-08)
(8.95055 -1.38766e-07 1.19709e-07)
(9.22838 1.36783e-07 9.28499e-08)
(9.22838 -1.39827e-07 1.20429e-07)
(9.5067 1.37325e-07 9.98095e-08)
(9.5067 -1.41191e-07 1.21283e-07)
(9.78508 1.39595e-07 1.07215e-07)
(9.78508 -1.4087e-07 1.22266e-07)
(10.063 1.38719e-07 1.1508e-07)
(10.063 -1.43738e-07 1.23378e-07)
(10.3401 1.41722e-07 1.23434e-07)
(10.3401 -1.4278e-07 1.24614e-07)
(10.6157 1.39974e-07 1.32286e-07)
(10.6157 -1.46618e-07 1.32284e-07)
(10.8893 1.44578e-07 1.41681e-07)
(10.8893 -1.44164e-07 1.41679e-07)
(11.1602 1.43152e-07 1.51674e-07)
(11.1602 -1.47795e-07 1.51671e-07)
(11.428 1.43327e-07 1.62213e-07)
(11.428 -1.49885e-07 1.6221e-07)
(11.692 1.44991e-07 1.73314e-07)
(11.692 -1.50557e-07 1.73312e-07)
(11.9515 1.54232e-07 1.85213e-07)
(11.9515 -1.4371e-07 1.85211e-07)
(12.2058 1.36177e-07 1.97677e-07)
(12.2058 -1.64237e-07 1.97674e-07)
(12.4543 1.60483e-07 2.10813e-07)
(12.4543 -1.42475e-07 2.1081e-07)
(12.6963 1.44015e-07 2.24792e-07)
(12.6963 -1.61566e-07 2.24789e-07)
(12.931 1.52277e-07 2.39362e-07)
(12.931 -1.56017e-07 2.39359e-07)
(13.1579 1.57756e-07 2.54828e-07)
(13.1579 -1.53319e-07 2.54824e-07)
(13.3761 1.45736e-07 2.70974e-07)
(13.3761 -1.68228e-07 2.7097e-07)
(13.5849 1.63546e-07 2.87882e-07)
(13.5849 -1.53384e-07 2.87877e-07)
(13.7838 1.50842e-07 3.05627e-07)
(13.7838 -1.69169e-07 3.05623e-07)
(13.972 1.64491e-07 3.24156e-07)
(13.972 -1.58679e-07 3.24151e-07)
(14.1488 1.55157e-07 3.43505e-07)
(14.1488 -1.71292e-07 3.435e-07)
(14.3137 1.58532e-07 3.63403e-07)
(14.3137 -1.713e-07 3.63398e-07)
(14.466 1.70421e-07 3.84164e-07)
(14.466 -1.62883e-07 3.84159e-07)
(14.6052 1.5984e-07 4.05718e-07)
(14.6052 -1.7708e-07 4.05712e-07)
(14.7308 1.60255e-07 4.27627e-07)
(14.7308 -1.80366e-07 4.27621e-07)
(14.8423 1.8009e-07 4.50333e-07)
(14.8423 -1.64358e-07 4.50327e-07)
(14.9393 1.49031e-07 4.73358e-07)
(14.9393 -1.9936e-07 4.73351e-07)
(15.0214 1.9916e-07 4.97095e-07)
(15.0214 -1.53289e-07 4.97087e-07)
(15.0885 1.34867e-07 5.20963e-07)
(15.0885 -2.21758e-07 5.20955e-07)
(15.1401 2.13547e-07 5.45193e-07)
(15.1401 -1.47371e-07 5.45185e-07)
(15.1764 1.38144e-07 5.69748e-07)
(15.1764 -2.27187e-07 5.6974e-07)
(15.1971 2.10465e-07 5.94312e-07)
(15.1971 -1.59394e-07 5.94304e-07)
(15.2023 1.51772e-07 6.19182e-07)
(15.2023 -2.22735e-07 6.19173e-07)
(15.1922 2.05709e-07 6.44001e-07)
(15.1922 -1.73557e-07 6.43992e-07)
(15.1669 1.63509e-07 6.69022e-07)
(15.1669 -2.20638e-07 6.69013e-07)
(15.1266 1.98273e-07 6.93807e-07)
(15.1266 -1.90863e-07 6.93797e-07)
(15.0718 1.83945e-07 7.18921e-07)
(15.0718 -2.10308e-07 7.18911e-07)
(15.0028 1.86954e-07 7.43814e-07)
(15.0028 -2.12518e-07 7.43804e-07)
(14.9202 2.04481e-07 7.69072e-07)
(14.9202 -2.00337e-07 7.69061e-07)
(14.8244 1.75276e-07 7.94142e-07)
(14.8244 -2.34996e-07 7.94131e-07)
(14.7162 2.22647e-07 8.19524e-07)
(14.7162 -1.93214e-07 8.19513e-07)
(14.5962 1.75909e-07 8.4513e-07)
(14.5962 -2.4564e-07 8.45119e-07)
(14.465 2.23454e-07 8.70812e-07)
(14.465 -2.03942e-07 8.70801e-07)
(14.3235 1.90068e-07 8.96979e-07)
(14.3235 -2.43261e-07 8.96968e-07)
(14.1724 2.26305e-07 9.23567e-07)
(14.1724 -2.13144e-07 9.23555e-07)
(14.0125 1.9335e-07 9.50551e-07)
(14.0125 -2.52292e-07 9.50539e-07)
(13.8445 2.34663e-07 9.78059e-07)
(13.8445 -2.17399e-07 9.78046e-07)
(13.6693 1.96958e-07 1.00606e-06)
(13.6693 -2.61574e-07 1.00605e-06)
(13.4877 2.40194e-07 1.03454e-06)
(13.4877 -2.25086e-07 1.03453e-06)
(13.3004 2.12516e-07 1.06395e-06)
(13.3004 -2.59538e-07 1.06394e-06)
(13.1082 2.37398e-07 1.09391e-06)
(13.1082 -2.4177e-07 1.09389e-06)
(12.9118 2.24833e-07 1.1247e-06)
(12.9118 -2.6143e-07 1.12468e-06)
(12.712 2.34797e-07 1.15591e-06)
(12.712 -2.59001e-07 1.1559e-06)
(12.5093 2.50068e-07 1.18837e-06)
(12.5093 -2.5117e-07 1.18836e-06)
(12.3045 2.2848e-07 1.2215e-06)
(12.3045 -2.80756e-07 1.22148e-06)
(12.0982 2.54424e-07 1.25512e-06)
(12.0982 -2.62635e-07 1.2551e-06)
(11.8908 2.53004e-07 1.29003e-06)
(11.8908 -2.72587e-07 1.29001e-06)
(11.683 2.4474e-07 1.32539e-06)
(11.683 -2.89067e-07 1.32537e-06)
(11.4753 2.75912e-07 1.36188e-06)
(11.4753 -2.67037e-07 1.36186e-06)
(11.268 2.48295e-07 1.39928e-06)
(11.268 -3.03295e-07 1.39926e-06)
(11.0615 2.74775e-07 1.43705e-06)
(11.0615 -2.86649e-07 1.43703e-06)
(10.8562 2.72709e-07 1.47593e-06)
(10.8562 -2.97804e-07 1.47591e-06)
(10.6525 2.79584e-07 1.51566e-06)
(10.6525 -3.01548e-07 1.51564e-06)
(10.4507 2.77159e-07 1.55595e-06)
(10.4507 -3.13526e-07 1.55594e-06)
(10.2509 2.99191e-07 1.59724e-06)
(10.2509 -3.0303e-07 1.59722e-06)
(10.0534 2.79632e-07 1.63909e-06)
(10.0534 -3.3259e-07 1.63907e-06)
(9.85837 3.14263e-07 1.68165e-06)
(9.85837 -3.10572e-07 1.68162e-06)
(9.66601 2.94279e-07 1.72507e-06)
(9.666 -3.4098e-07 1.72505e-06)
(9.47641 3.1498e-07 1.7687e-06)
(9.47641 -3.34163e-07 1.76867e-06)
(9.28971 3.19082e-07 1.81316e-06)
(9.28971 -3.40851e-07 1.81314e-06)
(9.10597 3.2703e-07 1.85838e-06)
(9.10597 -3.48291e-07 1.85835e-06)
(8.92527 3.19846e-07 1.90359e-06)
(8.92527 -3.66548e-07 1.90357e-06)
(8.74766 3.59843e-07 1.94981e-06)
(8.74766 -3.43739e-07 1.94978e-06)
(8.57316 3.13648e-07 1.99581e-06)
(8.57316 -4.01138e-07 1.99579e-06)
(8.40179 3.95901e-07 2.04273e-06)
(8.40179 -3.38255e-07 2.04269e-06)
(8.23357 3.13143e-07 2.08959e-06)
(8.23357 -4.32124e-07 2.08957e-06)
(8.06848 4.24329e-07 2.13701e-06)
(8.06848 -3.42982e-07 2.13698e-06)
(7.9065 3.15821e-07 2.18412e-06)
(7.9065 -4.62173e-07 2.1841e-06)
(7.74762 4.5511e-07 2.23156e-06)
(7.74762 -3.48238e-07 2.23151e-06)
(7.5918 3.3212e-07 2.27925e-06)
(7.5918 -4.81003e-07 2.27923e-06)
(7.43901 4.68111e-07 2.32661e-06)
(7.43901 -3.74507e-07 2.32656e-06)
(7.28921 3.62058e-07 2.37433e-06)
(7.28921 -4.88739e-07 2.37431e-06)
(7.14235 4.76242e-07 2.42139e-06)
(7.14235 -4.09289e-07 2.42133e-06)
(6.99838 3.93946e-07 2.46849e-06)
(6.99838 -4.97201e-07 2.46847e-06)
(6.85726 4.99202e-07 2.5155e-06)
(6.85726 -4.33369e-07 2.51542e-06)
(6.71894 4.03202e-07 2.56142e-06)
(6.71894 -5.31068e-07 2.56141e-06)
(6.58337 5.51115e-07 2.60801e-06)
(6.58336 -4.33202e-07 2.60792e-06)
(6.45049 3.95388e-07 2.65294e-06)
(6.45049 -5.84828e-07 2.65293e-06)
(6.32028 6.06088e-07 2.69798e-06)
(6.32028 -4.35385e-07 2.69787e-06)
(6.19268 4.0258e-07 2.74175e-06)
(6.19267 -6.26384e-07 2.74175e-06)
(6.06764 6.59077e-07 2.78572e-06)
(6.06764 -4.45822e-07 2.78558e-06)
(5.94514 3.96522e-07 2.82731e-06)
(5.94514 -6.83856e-07 2.82733e-06)
(5.82513 7.31076e-07 2.86921e-06)
(5.82513 -4.44589e-07 2.86905e-06)
(5.70758 3.91169e-07 2.90872e-06)
(5.70758 -7.42998e-07 2.90877e-06)
(5.59245 8.08576e-07 2.94874e-06)
(5.59245 -4.46545e-07 2.94852e-06)
(5.4797 3.72656e-07 2.98529e-06)
(5.4797 -8.17148e-07 2.98538e-06)
(5.36931 9.08144e-07 3.02276e-06)
(5.36931 -4.36838e-07 3.02248e-06)
(5.26123 3.40109e-07 3.0558e-06)
(5.26123 -9.06331e-07 3.05594e-06)
(5.15545 1.03041e-06 3.09036e-06)
(5.15545 -4.1705e-07 3.08999e-06)
(5.05193 2.92962e-07 3.1196e-06)
(5.05193 -1.00979e-06 3.11983e-06)
(4.95064 1.17687e-06 3.15123e-06)
(4.95064 -3.88573e-07 3.15074e-06)
(4.85157 2.22119e-07 3.17603e-06)
(4.85157 -1.13465e-06 3.17639e-06)
(4.75468 1.35632e-06 3.20422e-06)
(4.75468 -3.4638e-07 3.20356e-06)
(4.65996 1.22191e-07 3.22366e-06)
(4.65996 -1.28339e-06 3.22419e-06)
(4.56741 1.58764e-06 3.24881e-06)
(4.5674 -2.76639e-07 3.2479e-06)
(4.47699 -3.26811e-08 3.26214e-06)
(4.47699 -1.47766e-06 3.26293e-06)
(4.3887 1.88663e-06 3.2839e-06)
(4.3887 -1.70256e-07 3.28266e-06)
(4.30253 -2.45045e-07 3.29074e-06)
(4.30253 -1.71399e-06 3.29189e-06)
(4.21847 2.25655e-06 3.30911e-06)
(4.21846 -3.30209e-08 3.3074e-06)
(4.1365 -5.31468e-07 3.30803e-06)
(4.1365 -2.00035e-06 3.3097e-06)
(4.05663 2.72653e-06 3.3231e-06)
(4.05663 1.51942e-07 3.32073e-06)
(3.97884 -9.19589e-07 3.31272e-06)
(3.97884 -2.35222e-06 3.31513e-06)
(3.90313 3.32787e-06 3.32501e-06)
(3.90312 3.99212e-07 3.3217e-06)
(3.82947 -1.4464e-06 3.30361e-06)
(3.82947 -2.78937e-06 3.30708e-06)
(3.75788 4.10212e-06 3.31371e-06)
(3.75788 7.2742e-07 3.30907e-06)
(3.68832 -2.15391e-06 3.27934e-06)
(3.68832 -3.32952e-06 3.28434e-06)
(3.62078 5.09372e-06 3.28789e-06)
(3.62077 1.14948e-06 3.28136e-06)
(3.55522 -3.08686e-06 3.23831e-06)
(3.55522 -3.98318e-06 3.2455e-06)
(3.4916 6.36188e-06 3.24725e-06)
(3.4916 1.68095e-06 3.23802e-06)
(3.42988 -4.33026e-06 3.1783e-06)
(3.42988 -4.78706e-06 3.18865e-06)
(3.36999 8.01889e-06 3.1908e-06)
(3.36998 2.37339e-06 3.17769e-06)
(3.31183 -6.00596e-06 3.09798e-06)
(3.31183 -5.79431e-06 3.11288e-06)
(3.25534 1.01883e-05 3.11721e-06)
(3.25534 3.26496e-06 3.09855e-06)
(3.2004 -8.24015e-06 2.99502e-06)
(3.2004 -7.03466e-06 3.01646e-06)
(3.14692 1.30276e-05 3.02722e-06)
(3.14692 4.39532e-06 3.00058e-06)
(3.09481 -1.12445e-05 2.86587e-06)
(3.09481 -8.58414e-06 2.89678e-06)
(3.04397 1.67897e-05 2.91836e-06)
(3.04397 5.85135e-06 2.8802e-06)
(2.99432 -1.52602e-05 2.70959e-06)
(2.99432 -1.04912e-05 2.7542e-06)
(2.94581 2.17261e-05 2.79332e-06)
(2.9458 7.65013e-06 2.73851e-06)
(2.8984 -2.06177e-05 2.52096e-06)
(2.89839 -1.2813e-05 2.58544e-06)
(2.85208 2.82591e-05 2.65161e-06)
(2.85207 9.88318e-06 2.57265e-06)
(2.80685 -2.77756e-05 2.29772e-06)
(2.80685 -1.56195e-05 2.39113e-06)
(2.76275 3.68882e-05 2.49623e-06)
(2.76275 1.25807e-05 2.38213e-06)
(2.7198 -3.73183e-05 2.03408e-06)
(2.7198 -1.8942e-05 2.16968e-06)
(2.67803 4.83354e-05 2.3335e-06)
(2.67803 1.57974e-05 2.16817e-06)
(2.63745 -5.01077e-05 1.72587e-06)
(2.63745 -2.28519e-05 2.07793e-06)
(2.59807 6.35892e-05 2.16958e-06)
(2.59807 1.95695e-05 1.94016e-06)
(2.55989 -6.72692e-05 1.36525e-06)
(2.55989 -2.73431e-05 2.24943e-06)
(2.5229 8.3972e-05 2.01567e-06)
(2.5229 2.38563e-05 2.0238e-06)
(2.48707 -9.03772e-05 9.38913e-07)
(2.48707 -3.23644e-05 2.44914e-06)
(2.45235 0.000111359 1.88525e-06)
(2.45235 2.85749e-05 2.0926e-06)
(2.41869 -0.000121614 5.96856e-07)
(2.41869 -3.77606e-05 2.68698e-06)
(2.38601 0.000144065 1.61965e-06)
(2.38601 3.34436e-05 2.30641e-06)
(2.35425 -0.000155198 4.22854e-07)
(2.35425 -4.31558e-05 2.97079e-06)
(2.32333 0.000174377 1.12283e-06)
(2.32333 3.79803e-05 2.75774e-06)
(2.2932 -0.000181221 2.34845e-07)
(2.2932 -4.80752e-05 3.30108e-06)
(2.26381 0.000196996 5.74409e-07)
(2.26381 4.16796e-05 3.26233e-06)
(2.23513 -0.000199045 3.16529e-08)
(2.23513 -5.20506e-05 3.67591e-06)
(2.20713 0.000211266 0)
(2.20713 4.40733e-05 3.8203e-06)
(2.17986 -0.000197001 5.23775e-07)
(2.17986 -5.46722e-05 3.60093e-06)
(2.15332 0.000205989 2.2538e-07)
(2.15332 4.49014e-05 3.89616e-06)
(2.12755 -0.00018589 1.21956e-06)
(2.12755 -5.57063e-05 3.4894e-06)
(2.10255 0.000190718 4.71319e-07)
(2.10254 4.41288e-05 3.98341e-06)
(2.0783 -0.000164749 1.95882e-06)
(2.0783 -5.52179e-05 3.38175e-06)
(2.05482 0.000165252 7.37532e-07)
(2.05481 4.19022e-05 4.09412e-06)
(2.03207 -0.000136186 2.60216e-06)
(2.03207 -5.34412e-05 3.42352e-06)
(2.01003 0.000135198 1.16588e-06)
(2.01003 3.85042e-05 4.23766e-06)
(1.98865 -0.000108159 3.02037e-06)
(1.98865 -5.0778e-05 3.74652e-06)
(1.96786 0.000111217 1.89804e-06)
(1.96786 3.43591e-05 4.41276e-06)
(1.94751 -8.55013e-05 3.49821e-06)
(1.94751 -4.77023e-05 4.06492e-06)
(1.92747 9.21542e-05 2.64134e-06)
(1.92747 2.98557e-05 4.61559e-06)
(1.90755 -6.71182e-05 4.03784e-06)
(1.90755 -4.45029e-05 4.38195e-06)
(1.88756 7.70169e-05 3.40256e-06)
(1.88756 2.52031e-05 4.84288e-06)
(1.86731 -5.21222e-05 4.63733e-06)
(1.8673 -4.13698e-05 4.7001e-06)
(1.84661 6.50567e-05 4.18994e-06)
(1.84661 2.05832e-05 5.09195e-06)
(1.82532 -3.98425e-05 5.29222e-06)
(1.82532 -3.84705e-05 5.08146e-06)
(1.80337 5.56535e-05 5.00052e-06)
(1.80336 1.60925e-05 5.36058e-06)
(1.78073 -2.97042e-05 5.99607e-06)
(1.78073 -3.58772e-05 5.83931e-06)
(1.75744 4.82945e-05 5.83329e-06)
(1.75744 1.1764e-05 5.99152e-06)
(1.73355 -2.12457e-05 6.74542e-06)
(1.73354 -3.36319e-05 6.63072e-06)
(1.70904 4.26138e-05 6.69397e-06)
(1.70904 7.65505e-06 6.81855e-06)
(1.68389 -1.41362e-05 7.53828e-06)
(1.68388 -3.17953e-05 7.4565e-06)
(1.65803 3.83217e-05 7.58147e-06)
(1.65802 3.79169e-06 7.68088e-06)
(1.63137 -8.09719e-06 8.36952e-06)
(1.63137 -3.03866e-05 8.31354e-06)
(1.60382 3.51448e-05 8.49028e-06)
(1.60382 1.35033e-07 8.57116e-06)
(1.57531 -2.89625e-06 9.23743e-06)
(1.5753 -2.94024e-05 9.20179e-06)
(1.54574 3.29209e-05 9.43568e-06)
(1.54574 -3.30492e-06 9.50322e-06)
(1.51506 1.65516e-06 1.01626e-05)
(1.51506 -2.88302e-05 1.01431e-05)
(1.48321 3.15025e-05 1.04395e-05)
(1.48321 -6.55113e-06 1.04978e-05)
(1.45023 5.71319e-06 1.11622e-05)
(1.45023 -2.86507e-05 1.11557e-05)
(1.41623 3.07247e-05 1.15144e-05)
(1.41623 -9.68168e-06 1.15665e-05)
(1.38143 9.43829e-06 1.22522e-05)
(1.38142 -2.8811e-05 1.22563e-05)
(1.34608 3.05068e-05 1.26848e-05)
(1.34607 -1.27191e-05 1.27331e-05)
(1.31045 1.29602e-05 1.3449e-05)
(1.31044 -2.92675e-05 1.34618e-05)
(1.27472 3.07695e-05 1.39481e-05)
(1.27471 -1.57071e-05 1.39945e-05)
(1.23898 1.63085e-05 1.47208e-05)
(1.23897 -3.00615e-05 1.47411e-05)
(1.20319 3.14687e-05 1.52618e-05)
(1.20318 -1.86719e-05 1.53077e-05)
(1.16716 1.94585e-05 1.60253e-05)
(1.16715 -3.12771e-05 1.60522e-05)
(1.13073 3.26213e-05 1.66136e-05)
(1.13071 -2.15927e-05 1.66602e-05)
(1.09377 2.25195e-05 1.73949e-05)
(1.09376 -3.28579e-05 1.74278e-05)
(1.05634 3.41815e-05 1.80529e-05)
(1.05633 -2.4522e-05 1.8101e-05)
(1.01859 2.56308e-05 1.88861e-05)
(1.01857 -3.47135e-05 1.89243e-05)
(0.98068 3.60658e-05 1.9621e-05)
(0.980665 -2.75596e-05 1.96711e-05)
(0.942778 2.88483e-05 2.05156e-05)
(0.942762 -3.68354e-05 2.05587e-05)
(0.905017 3.82799e-05 2.13272e-05)
(0.905001 -3.07247e-05 2.13798e-05)
(0.86757 3.21391e-05 2.22749e-05)
(0.867552 -3.93045e-05 2.23227e-05)
(0.83065 4.0827e-05 2.31662e-05)
(0.830631 -3.40462e-05 2.32215e-05)
(0.794504 3.55918e-05 2.41869e-05)
(0.794484 -4.20812e-05 2.42391e-05)
(0.759335 4.38078e-05 2.51724e-05)
(0.759315 -3.74614e-05 2.52307e-05)
(0.725183 3.91578e-05 2.62445e-05)
(0.725161 -4.52648e-05 2.6301e-05)
(0.6919 4.71984e-05 2.72916e-05)
(0.691878 -4.10376e-05 2.73531e-05)
(0.659166 4.2841e-05 2.8387e-05)
(0.659142 -4.89034e-05 2.84477e-05)
(0.626542 5.09672e-05 2.94835e-05)
(0.626516 -4.48539e-05 2.95484e-05)
(0.593586 4.67484e-05 3.06296e-05)
(0.593557 -5.29448e-05 3.06943e-05)
(0.559935 5.52421e-05 3.18162e-05)
(0.559902 -4.88352e-05 3.18839e-05)
(0.525263 5.08392e-05 3.30263e-05)
(0.525227 -5.74882e-05 3.3094e-05)
(0.489331 5.99916e-05 3.4316e-05)
(0.48929 -5.30721e-05 3.43855e-05)
(0.452204 5.51805e-05 3.5627e-05)
(0.452156 -6.2532e-05 3.56961e-05)
(0.41437 6.52965e-05 3.70686e-05)
(0.414317 -5.75531e-05 3.71378e-05)
(0.376672 5.98391e-05 3.85184e-05)
(0.376613 -6.80846e-05 3.85867e-05)
(0.340046 7.12428e-05 4.01237e-05)
(0.339982 -6.22721e-05 4.01905e-05)
(0.305304 6.46707e-05 4.16702e-05)
(0.305235 -7.43745e-05 4.1736e-05)
(0.273135 7.79126e-05 4.34228e-05)
(0.273062 -6.72358e-05 4.34858e-05)
(0.244001 6.98088e-05 4.50584e-05)
(0.243925 -8.13578e-05 4.51208e-05)
(0.217791 8.53945e-05 4.69242e-05)
(0.217711 -7.24469e-05 4.69829e-05)
(0.193682 7.51417e-05 4.85661e-05)
(0.193596 -8.92349e-05 4.86252e-05)
(0.170528 9.37359e-05 5.04913e-05)
(0.17043 -7.79485e-05 5.05453e-05)
(0.147498 8.05745e-05 5.21159e-05)
(0.147383 -9.81882e-05 5.21706e-05)
(0.124632 0.000103134 5.41832e-05)
(0.124498 -8.36345e-05 5.423e-05)
(0.102724 8.61231e-05 5.59057e-05)
(0.102573 -0.000108289 5.59526e-05)
(0.0828079 0.000113872 5.82806e-05)
(0.0826436 -8.93109e-05 5.83168e-05)
(0.0656673 9.18371e-05 6.01887e-05)
(0.0654973 -0.00011957 6.0226e-05)
(0.0517047 0.000125877 6.28754e-05)
(0.0515391 -9.51325e-05 6.29006e-05)
(0.0410825 9.77801e-05 6.49352e-05)
(0.0409314 -0.000132044 6.49644e-05)
(0.0334999 0.000139461 6.78549e-05)
(0.0333685 -0.000100861 6.78717e-05)
(0.028207 0.000103461 6.97849e-05)
(0.0280934 -0.000146265 6.98098e-05)
(0.0243813 0.000154754 7.27333e-05)
(0.0242764 -0.00010643 7.27454e-05)
(0.0213296 0.000108699 7.43495e-05)
(0.0212174 -0.000162473 7.43732e-05)
(0.0184249 0.000171875 7.72978e-05)
(0.0182804 -0.000111777 7.73068e-05)
(0.0149589 0.000113369 7.86759e-05)
(0.0147455 -0.000180843 7.86985e-05)
(0.0101032 0.000191472 8.19187e-05)
(0.00977136 -0.000116304 8.19226e-05)
(0.00308613 0.000117435 8.32096e-05)
(0.00258201 -0.000201455 8.32261e-05)
(-0.00670888 0.000213808 8.67853e-05)
(-0.00740148 -0.000119833 8.67753e-05)
(-0.0197042 0.00012017 8.77326e-05)
(-0.02049 -0.000225006 8.77619e-05)
(-0.0359683 0.00023908 9.15674e-05)
(-0.0367006 -0.000122147 9.15898e-05)
(-0.0554533 0.0001214 9.2159e-05)
(-0.0560405 -0.000251816 9.2238e-05)
(-0.0782126 0.000267949 9.64605e-05)
(-0.0786564 -0.000122749 9.65413e-05)
(-0.103998 0.000120686 9.67241e-05)
(-0.104345 -0.000282458 9.68867e-05)
(-0.132138 0.000301106 0.000101708)
(-0.132429 -0.000121209 0.000101882)
(-0.162025 0.000117621 0.000101632)
(-0.162279 -0.000317618 0.000101922)
(-0.193523 0.000339604 0.000107462)
(-0.193753 -0.000116913 0.000107769)
(-0.226949 0.000111374 0.000106761)
(-0.22716 -0.000358553 0.000107231)
(-0.262401 0.000384403 0.000113474)
(-0.262598 -0.000109537 0.000113963)
(-0.299206 0.000101506 0.000111985)
(-0.299386 -0.000406299 0.00011271)
(-0.336052 0.000437178 0.000119839)
(-0.336213 -9.83396e-05 0.000120575)
(-0.371505 8.7065e-05 0.000117248)
(-0.371647 -0.000462658 0.000118319)
(-0.404566 0.000499955 0.000126453)
(-0.404688 -8.26359e-05 0.000127493)
(-0.434294 6.70236e-05 0.00012234)
(-0.434395 -0.00052974 0.000123852)
(-0.458999 0.000575465 0.000133196)
(-0.459076 -6.14589e-05 0.000134576)
(-0.476716 3.99103e-05 0.000126981)
(-0.476766 -0.000610225 0.000129027)
(-0.486571 0.000667061 0.000139884)
(-0.486595 -3.36804e-05 0.000141575)
(-0.489615 4.1825e-06 0.000130929)
(-0.489619 -0.000706833 0.000133565)
(-0.488494 0.00077833 0.00014628)
(-0.488488 1.694e-06 0.000148175)
(-0.486305 -4.29108e-05 0.000133747)
(-0.486298 -0.000823138 0.000137065)
(-0.485255 0.000914087 0.000152575)
(-0.485254 4.64575e-05 0.000154574)
(-0.485642 -0.00010356 0.000135996)
(-0.485644 -0.000961692 0.000140253)
(-0.486195 0.00107984 0.000159159)
(-0.486194 0.000102081 0.00016117)
(-0.485209 -0.000182452 0.000136677)
(-0.485196 -0.00112701 0.000142288)
(-0.481201 0.0012826 0.000164799)
(-0.48117 0.000169721 0.000166554)
(-0.473224 -0.000284352 0.000134325)
(-0.47317 -0.00132258 0.000141826)
(-0.461125 0.00153094 0.000168342)
(-0.461045 0.000249725 0.000169239)
(-0.445549 -0.00041697 0.000127214)
(-0.445443 -0.00155289 0.000137332)
(-0.427145 0.00183662 0.000169658)
(-0.427007 0.000342506 0.000168685)
(-0.405375 -0.000589428 0.000116069)
(-0.405194 -0.0018207 0.000134533)
(-0.379277 0.0022155 0.0001714)
(-0.37904 0.000448293 0.000166995)
(-0.349367 -0.000814832 0.00010241)
(-0.349069 -0.00212878 0.000154907)
(-0.317364 0.00268756 0.000175168)
(-0.317009 0.00056585 0.000164932)
(-0.285577 -0.0011127 8.46472e-05)
(-0.285181 -0.002481 0.000178495)
(-0.256347 0.00327825 0.000179789)
(-0.255929 0.000693264 0.000163875)
(-0.23076 -0.00150826 5.99247e-05)
(-0.230333 -0.00288049 0.000205697)
(-0.208351 0.00569428 0.000614533)
(-0.207939 0.000824704 0.000152998)
(-0.18799 -0.00396491 0.000225707)
(-0.187625 -0.00296975 8.4234e-05)
(-0.17032 0.00614368 0.000275041)
(-0.170024 0.00126622 0.000129873)
(-0.156515 -0.00478028 0.000255387)
(-0.156299 -0.00299165 7.14092e-05)
(-0.146241 0.00650564 0.000305443)
(-0.146086 0.0016903 0.000101631)
(-0.137172 -0.00556085 0.000292747)
(-0.137047 -0.00293539 5.37322e-05)
(-0.127541 0.00675607 0.000341389)
(-0.127444 0.00210428 6.7743e-05)
(-0.118729 -0.00629393 0.000338067)
(-0.118676 -0.00279145 3.09734e-05)
(-0.113547 0.00686265 0.000381219)
(-0.113531 0.00251132 2.51195e-05)
(0.0834875 -1.01834e-08 -1.61788e-21)
(0.0834873 1.77902e-08 9.94843e-07)
(0.251473 -1.54453e-08 1.68824e-10)
(0.251473 5.41521e-08 1.50113e-06)
(0.421689 -3.48211e-08 5.46321e-10)
(0.421689 7.82609e-08 1.33921e-06)
(0.594155 -7.37434e-08 1.0665e-09)
(0.594154 8.11973e-08 9.11206e-07)
(0.768884 -9.88498e-08 1.41505e-09)
(0.768883 8.22367e-08 5.24121e-07)
(0.945895 -1.04341e-07 1.67759e-09)
(0.945893 9.09563e-08 3.12963e-07)
(1.12521 -1.05474e-07 1.93864e-09)
(1.12521 9.8788e-08 2.07173e-07)
(1.30686 -1.06946e-07 2.2491e-09)
(1.30685 1.03981e-07 1.49948e-07)
(1.49088 -1.08853e-07 2.62705e-09)
(1.49088 1.07155e-07 1.15636e-07)
(1.67732 -1.09891e-07 3.07059e-09)
(1.67732 1.10293e-07 9.31081e-08)
(1.86624 -1.1149e-07 3.58138e-09)
(1.86624 1.12223e-07 7.71564e-08)
(2.05771 -1.1272e-07 4.16368e-09)
(2.0577 1.14087e-07 6.511e-08)
(2.25178 -1.13809e-07 4.81806e-09)
(2.25177 1.1576e-07 5.54807e-08)
(2.44853 -1.15019e-07 5.55002e-09)
(2.44852 1.17068e-07 4.73746e-08)
(2.64804 -1.15983e-07 6.36403e-09)
(2.64804 1.1843e-07 4.02195e-08)
(2.85039 -1.17147e-07 7.26488e-09)
(2.85039 1.19442e-07 3.36259e-08)
(3.05567 -1.17953e-07 8.25708e-09)
(3.05566 1.20692e-07 2.73142e-08)
(3.26395 -1.18887e-07 9.34629e-09)
(3.26395 1.21717e-07 2.10718e-08)
(3.47532 -1.19973e-07 1.05409e-08)
(3.47532 1.22512e-07 1.47276e-08)
(3.68986 -1.2076e-07 8.14175e-09)
(3.68986 1.2354e-07 8.13856e-09)
(3.90764 -1.21482e-07 1.18243e-09)
(3.90764 1.24583e-07 1.17938e-09)
(4.12874 -1.22427e-07 -6.26359e-09)
(4.12874 1.2536e-07 -6.26653e-09)
(4.35321 -1.23615e-07 -1.43075e-08)
(4.35321 1.25861e-07 -1.43103e-08)
(4.58111 -1.23875e-07 -2.30542e-08)
(4.58111 1.27263e-07 -2.0773e-08)
(4.81248 -1.24945e-07 -3.26106e-08)
(4.81248 1.27834e-07 -2.28766e-08)
(5.04735 -1.25782e-07 -4.30875e-08)
(5.04734 1.28624e-07 -2.51428e-08)
(5.28573 -1.27005e-07 -5.45971e-08)
(5.28573 1.29017e-07 -2.75739e-08)
(5.52762 -1.26978e-07 -6.72528e-08)
(5.52762 1.30658e-07 -3.01872e-08)
(5.773 -1.28414e-07 -8.11771e-08)
(5.773 1.30829e-07 -3.29975e-08)
(6.02183 -1.28965e-07 -9.65012e-08)
(6.02183 1.31891e-07 -3.60099e-08)
(6.27405 -1.30403e-07 -1.13361e-07)
(6.27405 1.32068e-07 -3.92302e-08)
(6.52957 -1.30218e-07 -1.20106e-07)
(6.52957 1.33881e-07 -4.26778e-08)
(6.78829 -1.31803e-07 -1.19348e-07)
(6.78828 1.33933e-07 -4.63712e-08)
(7.05005 -1.32472e-07 -1.18794e-07)
(7.05005 1.34915e-07 -5.03139e-08)
(7.31472 -1.33633e-07 -1.18431e-07)
(7.31471 1.35424e-07 -5.45181e-08)
(7.58208 -1.3373e-07 -1.18246e-07)
(7.58208 1.37016e-07 -5.9008e-08)
(7.85192 -1.35277e-07 -1.1823e-07)
(7.85192 1.37182e-07 -6.38027e-08)
(8.12398 -1.36083e-07 -1.18373e-07)
(8.12398 1.38115e-07 -6.89081e-08)
(8.39799 -1.37205e-07 -1.18669e-07)
(8.39799 1.3876e-07 -7.43399e-08)
(8.67363 -1.37466e-07 -1.19111e-07)
(8.67363 1.40297e-07 -8.01262e-08)
(8.95055 -1.3884e-07 -1.19694e-07)
(8.95055 1.40755e-07 -8.62926e-08)
(9.22838 -1.39903e-07 -1.20414e-07)
(9.22838 1.41561e-07 -9.28497e-08)
(9.5067 -1.41268e-07 -1.21267e-07)
(9.5067 1.42103e-07 -9.98094e-08)
(9.78508 -1.4095e-07 -1.22251e-07)
(9.78508 1.44373e-07 -1.07215e-07)
(10.063 -1.4382e-07 -1.23362e-07)
(10.063 1.43497e-07 -1.1508e-07)
(10.3401 -1.42864e-07 -1.24599e-07)
(10.3401 1.46499e-07 -1.23434e-07)
(10.6157 -1.46704e-07 -1.32284e-07)
(10.6157 1.44751e-07 -1.32286e-07)
(10.8893 -1.44252e-07 -1.41679e-07)
(10.8893 1.49354e-07 -1.41681e-07)
(11.1602 -1.47885e-07 -1.51671e-07)
(11.1602 1.47928e-07 -1.51674e-07)
(11.428 -1.49977e-07 -1.6221e-07)
(11.428 1.48102e-07 -1.62213e-07)
(11.692 -1.50651e-07 -1.73312e-07)
(11.692 1.49765e-07 -1.73314e-07)
(11.9515 -1.43806e-07 -1.8521e-07)
(11.9515 1.59004e-07 -1.85213e-07)
(12.2058 -1.64335e-07 -1.97674e-07)
(12.2058 1.40948e-07 -1.97677e-07)
(12.4543 -1.42575e-07 -2.1081e-07)
(12.4543 1.65252e-07 -2.10813e-07)
(12.6963 -1.61668e-07 -2.24789e-07)
(12.6963 1.48782e-07 -2.24792e-07)
(12.931 -1.5612e-07 -2.39359e-07)
(12.931 1.57042e-07 -2.39362e-07)
(13.1579 -1.53424e-07 -2.54824e-07)
(13.1579 1.62519e-07 -2.54828e-07)
(13.3761 -1.68334e-07 -2.70969e-07)
(13.3761 1.50497e-07 -2.70973e-07)
(13.5849 -1.53492e-07 -2.87877e-07)
(13.5849 1.68304e-07 -2.87882e-07)
(13.7838 -1.69277e-07 -3.05623e-07)
(13.7838 1.55597e-07 -3.05627e-07)
(13.972 -1.58788e-07 -3.24151e-07)
(13.972 1.69242e-07 -3.24156e-07)
(14.1488 -1.71403e-07 -3.435e-07)
(14.1488 1.59905e-07 -3.43505e-07)
(14.3137 -1.71411e-07 -3.63398e-07)
(14.3137 1.63276e-07 -3.63403e-07)
(14.466 -1.62994e-07 -3.84159e-07)
(14.466 1.75162e-07 -3.84164e-07)
(14.6052 -1.77191e-07 -4.05712e-07)
(14.6052 1.64577e-07 -4.05718e-07)
(14.7308 -1.80478e-07 -4.27621e-07)
(14.7308 1.64988e-07 -4.27627e-07)
(14.8423 -1.6447e-07 -4.50327e-07)
(14.8423 1.84819e-07 -4.50333e-07)
(14.9393 -1.99472e-07 -4.73351e-07)
(14.9393 1.53757e-07 -4.73357e-07)
(15.0214 -1.534e-07 -4.97088e-07)
(15.0214 2.0388e-07 -4.97094e-07)
(15.0885 -2.21868e-07 -5.20955e-07)
(15.0885 1.39584e-07 -5.20963e-07)
(15.1401 -1.47481e-07 -5.45185e-07)
(15.1401 2.18259e-07 -5.45193e-07)
(15.1764 -2.27295e-07 -5.6974e-07)
(15.1764 1.42852e-07 -5.69748e-07)
(15.1971 -1.59501e-07 -5.94304e-07)
(15.1971 2.15168e-07 -5.94312e-07)
(15.2023 -2.22841e-07 -6.19173e-07)
(15.2023 1.5647e-07 -6.19181e-07)
(15.1922 -1.73661e-07 -6.43993e-07)
(15.1922 2.10403e-07 -6.44001e-07)
(15.1669 -2.20739e-07 -6.69013e-07)
(15.1669 1.68199e-07 -6.69022e-07)
(15.1266 -1.90963e-07 -6.93798e-07)
(15.1266 2.02958e-07 -6.93807e-07)
(15.0718 -2.10405e-07 -7.18911e-07)
(15.0718 1.88626e-07 -7.18921e-07)
(15.0028 -2.12613e-07 -7.43804e-07)
(15.0028 1.9163e-07 -7.43814e-07)
(14.9202 -2.00429e-07 -7.69061e-07)
(14.9202 2.09154e-07 -7.69072e-07)
(14.8244 -2.35086e-07 -7.94131e-07)
(14.8244 1.79944e-07 -7.94142e-07)
(14.7162 -1.933e-07 -8.19513e-07)
(14.7162 2.27311e-07 -8.19524e-07)
(14.5962 -2.45724e-07 -8.45119e-07)
(14.5962 1.80569e-07 -8.45131e-07)
(14.465 -2.04022e-07 -8.70801e-07)
(14.465 2.28111e-07 -8.70813e-07)
(14.3235 -2.43339e-07 -8.96968e-07)
(14.3235 1.9472e-07 -8.9698e-07)
(14.1724 -2.13218e-07 -9.23555e-07)
(14.1724 2.30954e-07 -9.23568e-07)
(14.0125 -2.52363e-07 -9.50539e-07)
(14.0125 1.97994e-07 -9.50552e-07)
(13.8445 -2.17466e-07 -9.78047e-07)
(13.8445 2.39304e-07 -9.7806e-07)
(13.6693 -2.61639e-07 -1.00605e-06)
(13.6693 2.01595e-07 -1.00606e-06)
(13.4877 -2.25146e-07 -1.03453e-06)
(13.4877 2.44829e-07 -1.03454e-06)
(13.3004 -2.59595e-07 -1.06394e-06)
(13.3004 2.17146e-07 -1.06395e-06)
(13.1082 -2.41823e-07 -1.09389e-06)
(13.1082 2.42026e-07 -1.09391e-06)
(12.9118 -2.6148e-07 -1.12468e-06)
(12.9118 2.29457e-07 -1.1247e-06)
(12.712 -2.59046e-07 -1.1559e-06)
(12.712 2.39419e-07 -1.15591e-06)
(12.5093 -2.51213e-07 -1.18836e-06)
(12.5093 2.54687e-07 -1.18837e-06)
(12.3045 -2.80794e-07 -1.22148e-06)
(12.3045 2.33097e-07 -1.2215e-06)
(12.0982 -2.62671e-07 -1.2551e-06)
(12.0982 2.59037e-07 -1.25512e-06)
(11.8908 -2.72618e-07 -1.29001e-06)
(11.8908 2.57616e-07 -1.29003e-06)
(11.6831 -2.89095e-07 -1.32537e-06)
(11.6831 2.49348e-07 -1.32539e-06)