/*--------------------------------*- C++ -*----------------------------------*\
| =========                 |                                                 |
| \\      /  F ield         | OpenFOAM: The Open Source CFD Toolbox           |
|  \\    /   O peration     | Version:  2106                                  |
|   \\  /    A nd           | Website:  www.openfoam.com                      |
|    \\/     M anipulation  |                                                 |
\*---------------------------------------------------------------------------*/
FoamFile
{
    version     2.0;
    format      ascii;
    arch        "LSB;label=32;scalar=64";
    class       volTensorField;
    location    "6000";
    object      grad(U);
}
// * * * * * * * * * * * * * * * * * * * * * * * * * * * * * * * * * * * * * //

dimensions      [0 0 -1 0 0 0 0];

internalField   nonuniform List<tensor> 
2560
(
(0 3.11836e-30 1.29932e-31 98.8811 -1.2004e-11 -4.22945e-13 0.143139 -8.68821e-15 -2.82845e-16)
(0 -2.97565e-28 -6.49658e-32 98.8811 -3.11708e-15 1.85505e-18 0.143139 -1.83154e-18 2.67148e-16)
(0 -7.08518e-25 -1.25243e-26 98.8721 3.42927e-32 -4.15666e-14 0.431474 0 -1.22087e-16)
(0 -4.09822e-30 -1.28069e-31 98.8721 -6.3707e-15 3.35054e-18 0.431474 -1.1718e-17 1.99467e-16)
(-1.81176e-17 -4.4442e-30 -2.88335e-31 98.8603 9.16128e-13 -1.90238e-14 0.593422 -4.35361e-15 -1.04538e-16)
(0 1.61579e-29 6.31169e-31 98.8603 -6.66225e-15 6.67535e-18 0.593422 -2.06134e-17 2.05282e-16)
(5.81132e-17 -1.90241e-29 -5.90299e-31 98.8439 8.1714e-13 -1.78099e-14 0.601933 -6.58219e-15 -1.10879e-16)
(0 1.59263e-29 4.97698e-31 98.8439 -7.17812e-15 1.01595e-17 0.601933 -3.1281e-17 2.11281e-16)
(2.76163e-16 -1.96226e-29 -8.58488e-31 98.8192 1.55498e-13 -1.85003e-14 0.610499 -3.2754e-15 -1.16132e-16)
(0 1.96226e-29 6.13206e-31 98.8192 -7.40925e-15 9.81605e-18 0.610499 -4.26056e-17 2.17447e-16)
(4.12072e-16 -8.2198e-27 -4.60936e-31 98.7781 -2.84966e-14 -1.88913e-14 0.61905 -8.8674e-17 -1.19028e-16)
(8.46732e-16 1.54731e-29 4.83534e-31 98.7781 -7.81556e-15 1.22512e-17 0.61905 -5.49546e-17 2.23758e-16)
(8.66488e-17 -9.10336e-30 -2.55783e-31 98.7057 -1.2518e-27 -1.89649e-14 0.627462 0 -1.20471e-16)
(4.58316e-16 1.52513e-29 5.95754e-31 98.7057 -8.14434e-15 1.54097e-17 0.627462 -6.77513e-17 2.30199e-16)
(-2.24074e-16 1.89695e-29 6.92546e-31 98.5779 1.26401e-14 -1.87901e-14 0.635536 -8.73299e-17 -1.20259e-16)
(6.31836e-16 -7.51636e-30 -3.52329e-31 98.5779 -8.17265e-15 1.47076e-17 0.635536 -7.97572e-17 2.36711e-16)
(7.88476e-16 -1.8754e-29 -3.40852e-31 98.359 1.09697e-14 -1.82996e-14 0.642977 -7.45179e-17 -1.17578e-16)
(0 1.85216e-29 4.63039e-31 98.359 -8.22211e-15 1.2824e-17 0.642977 -9.3107e-17 2.43189e-16)
(0 7.30244e-30 2.28201e-31 98.0004 1.08683e-14 -1.73804e-14 0.649389 -6.80186e-17 -1.11573e-16)
(0 0 0 98.0004 -8.286e-15 1.09192e-17 0.649389 -1.06375e-16 2.49492e-16)
(-8.61746e-16 -1.40611e-29 -5.56301e-31 97.4414 1.1558e-14 -1.59351e-14 0.65428 -7.53531e-17 -1.01545e-16)
(0 2.15933e-29 6.74792e-31 97.4414 -8.5251e-15 9.81387e-18 0.65428 -1.19074e-16 2.55434e-16)
(4.00257e-16 -2.52147e-29 -1.23212e-30 96.6135 1.18927e-14 -1.3902e-14 0.657093 -7.93057e-17 -8.70446e-17)
(0 1.77365e-29 8.86827e-31 96.6135 -9.15067e-15 1.34015e-17 0.657093 -1.34016e-16 2.60797e-16)
(4.92084e-16 -6.99293e-30 -6.55588e-31 95.4473 1.21959e-14 -1.12738e-14 0.65727 -8.21369e-17 -6.80653e-17)
(0 1.04894e-29 6.55588e-31 95.4473 -9.17736e-15 1.9616e-17 0.65727 -1.50471e-16 2.65341e-16)
(-4.91842e-16 1.77112e-29 9.9573e-31 93.8834 1.27183e-14 -8.12213e-15 0.654333 -8.58345e-17 -4.52425e-17)
(1.48234e-15 -3.44635e-30 -4.30794e-31 93.8834 -8.93183e-15 2.04042e-17 0.654333 -1.66058e-16 2.68817e-16)
(0 2.37787e-29 1.27386e-30 91.8835 1.32272e-14 -4.60444e-15 0.64797 -9.18933e-17 -1.98372e-17)
(0 -2.37787e-29 -1.27386e-30 91.8835 -9.07388e-15 2.36416e-17 0.64797 -1.81637e-16 2.70988e-16)
(-5.8446e-16 3.91984e-30 7.00649e-46 89.4394 1.31535e-14 3.96581e-29 0.6381 -9.56145e-17 0)
(2.33784e-15 0 -2.09267e-31 89.4394 -9.05133e-15 2.94951e-17 0.6381 -1.97192e-16 2.71749e-16)
(-9.28947e-16 1.65014e-29 -3.06197e-29 86.5775 1.28737e-14 1.76789e-15 0.624896 -9.35177e-17 -6.44799e-18)
(-1.59333e-15 -1.65014e-29 -1.23761e-30 86.5775 -9.37615e-15 2.94887e-17 0.624896 -2.11323e-16 2.71043e-16)
(0 2.27709e-29 1.01656e-30 83.356 1.26712e-14 5.81146e-15 0.608762 -9.43047e-17 -3.17413e-17)
(-2.70468e-15 -2.27709e-29 -1.01656e-30 83.356 -9.40572e-15 2.8827e-17 0.608762 -2.27654e-16 2.68934e-16)
(1.80502e-15 -9.61907e-30 -4.00795e-31 79.8562 1.23883e-14 8.50314e-15 0.590265 -9.32379e-17 -5.44394e-17)
(0 1.28254e-29 4.00795e-31 79.8562 -8.98477e-15 3.1226e-17 0.590265 -2.42123e-16 2.65577e-16)
(7.64741e-16 1.18905e-29 2.67421e-31 76.1715 1.24913e-14 1.05858e-14 0.57005 -9.27874e-17 -7.33846e-17)
(-3.05896e-15 -2.21228e-29 -7.90101e-31 76.1715 -9.04026e-15 3.33906e-17 0.57005 -2.57098e-16 2.61204e-16)
(-8.76824e-16 2.49208e-29 9.7347e-31 72.3952 1.23215e-14 1.20458e-14 0.548764 -9.75497e-17 -8.79943e-17)
(8.76824e-16 -2.49208e-29 -9.7347e-31 72.3952 -8.87205e-15 3.73629e-17 0.548764 -2.74148e-16 2.56041e-16)
(-8.4835e-16 -8.37486e-30 -7.31543e-32 68.6119 1.13485e-14 1.29246e-14 0.526992 -9.28616e-17 -9.82641e-17)
(0 1.84227e-29 3.83807e-31 68.6119 -8.11288e-15 3.92101e-17 0.526992 -2.89563e-16 2.50367e-16)
(-3.60682e-17 -3.84642e-29 -1.39839e-30 64.8918 1.05629e-14 1.33022e-14 0.505224 -8.50398e-17 -1.04453e-16)
(0 4.23703e-29 1.51323e-30 64.8918 -7.75121e-15 3.32651e-17 0.505224 -3.0287e-16 2.44368e-16)
(-8.39661e-16 1.78984e-29 7.45768e-31 61.2884 1.0389e-14 1.32781e-14 0.483845 -8.29915e-17 -1.07193e-16)
(-2.86419e-15 -2.38646e-29 -1.11865e-30 61.2884 -7.55195e-15 2.58251e-17 0.483845 -3.17859e-16 2.38242e-16)
(9.6241e-16 1.96198e-29 8.10664e-31 57.8392 1.00969e-14 1.29514e-14 0.463134 -8.47045e-17 -1.07121e-16)
(0 -2.35225e-29 -9.1885e-31 57.8392 -7.56998e-15 1.58934e-17 0.463134 -3.31149e-16 2.32129e-16)
(-3.62613e-15 4.25811e-29 1.29764e-30 54.5681 1.04841e-14 1.24137e-14 0.443279 -8.06046e-17 -1.04944e-16)
(1.63153e-15 -3.47781e-29 -1.08682e-30 54.5681 -7.73472e-15 2.04859e-17 0.443279 -3.45828e-16 2.26097e-16)
(4.70019e-15 -4.02581e-29 -1.38009e-30 51.4873 1.11938e-14 1.17389e-14 0.424397 -9.36659e-17 -1.01261e-16)
(6.6373e-15 3.42797e-29 1.24978e-30 51.4873 -6.5305e-15 3.48277e-17 0.424397 -3.6413e-16 2.2033e-16)
(0 -2.25256e-29 -8.79905e-31 48.6007 1.10807e-14 1.09801e-14 0.406545 -9.5014e-17 -9.65623e-17)
(4.25043e-15 2.25256e-29 8.79905e-31 48.6007 -5.80326e-15 3.3698e-17 0.406545 -3.77777e-16 2.14862e-16)
(1.09315e-15 1.27601e-29 2.48079e-31 45.906 1.10099e-14 1.01812e-14 0.389739 -9.44609e-17 -9.11578e-17)
(0 -5.55068e-30 0 45.906 -6.94309e-15 3.59296e-17 0.389739 -3.9045e-16 2.09691e-16)
(-2.24476e-15 2.30695e-30 1.94267e-31 43.3967 1.03124e-14 9.37727e-15 0.373966 -9.65608e-17 -8.54306e-17)
(-8.97905e-15 5.47112e-30 0 43.3967 -6.97211e-15 4.09098e-17 0.373966 -4.10401e-16 2.04965e-16)
(-1.15038e-15 1.46737e-29 7.69711e-31 41.0636 9.18806e-15 8.58739e-15 0.359193 -8.4862e-17 -7.95752e-17)
(-4.60152e-15 -5.39271e-30 -3.37044e-31 41.0636 -5.57531e-15 2.79499e-17 0.359193 -4.28017e-16 2.0063e-16)
(0 3.18925e-29 8.30534e-31 38.8964 8.76794e-15 7.82235e-15 0.345373 -7.91661e-17 -7.37259e-17)
(-4.70889e-15 -3.18925e-29 -8.30534e-31 38.8964 -5.12869e-15 2.48844e-17 0.345373 -4.3892e-16 1.96569e-16)
(0 -2.61962e-29 -9.82356e-31 36.8838 8.71331e-15 7.09337e-15 0.332454 -7.96817e-17 -6.79456e-17)
(4.81192e-15 2.61962e-29 9.82356e-31 36.8838 -5.57252e-15 4.32596e-17 0.332454 -4.51495e-16 1.92887e-16)
(-1.22772e-15 9.04644e-30 9.20837e-32 35.0144 8.25159e-15 6.4107e-15 0.320378 -8.04737e-17 -6.23897e-17)
(0 0 1.61379e-31 35.0144 -5.55358e-15 5.39409e-17 0.320378 -4.7125e-16 1.89643e-16)
(-1.25152e-15 1.91514e-29 7.27431e-31 33.2773 7.76031e-15 5.77345e-15 0.30909 -7.33435e-17 -5.71135e-17)
(0 -1.52704e-29 -6.36266e-31 33.2773 -5.31e-15 4.3385e-17 0.30909 -4.82506e-16 1.86763e-16)
(-1.27443e-15 2.39476e-29 4.03941e-31 31.6619 7.78559e-15 5.17927e-15 0.298533 -7.34693e-17 -5.2074e-17)
(-6.50995e-15 -1.00343e-29 -1.56787e-31 31.6619 -5.43269e-15 4.01015e-17 0.298533 -4.91862e-16 1.84165e-16)
(1.29652e-15 -1.87121e-29 -3.9876e-31 30.1583 7.70851e-15 4.62931e-15 0.288653 -7.59806e-17 -4.72993e-17)
(0 1.48358e-29 3.09079e-31 30.1583 -5.03291e-15 4.68832e-17 0.288653 -5.04868e-16 1.81966e-16)
(1.31783e-15 -2.33719e-29 -8.5071e-31 28.7573 6.9927e-15 4.119e-15 0.279399 -7.41097e-17 -4.28124e-17)
(0 1.94975e-29 7.61622e-31 28.7573 -4.29691e-15 4.84531e-17 0.279399 -5.17641e-16 1.80077e-16)
(-1.33843e-15 1.82876e-29 2.38743e-31 27.4505 6.55862e-15 3.6464e-15 0.270724 -6.39621e-17 -3.85301e-17)
(0 -9.60904e-30 0 27.4505 -4.04962e-15 3.53004e-17 0.270724 -5.30083e-16 1.78571e-16)
(0 2.36783e-29 5.91957e-31 26.2299 6.96247e-15 3.21168e-15 0.262584 -6.75172e-17 -3.45254e-17)
(0 -2.36783e-29 -7.39947e-31 26.2299 -4.3431e-15 3.54509e-17 0.262584 -5.40289e-16 1.77241e-16)
(-1.37762e-15 1.32042e-29 8.78858e-32 25.0884 6.68307e-15 2.81439e-15 0.254936 -7.41076e-17 -3.07548e-17)
(5.51049e-15 0 0 25.0884 -3.62748e-15 4.90998e-17 0.254936 -5.50186e-16 1.76279e-16)
(1.29503e-15 -2.30044e-29 -8.62666e-31 24.0197 5.70086e-15 2.44669e-15 0.247744 -6.36891e-17 -2.72811e-17)
(4.29021e-15 2.30044e-29 8.62666e-31 24.0197 -3.10344e-15 4.28149e-17 0.247744 -5.57033e-16 1.7561e-16)
(1.41444e-15 5.20108e-30 3.37686e-31 23.0177 5.13881e-15 2.10188e-15 0.240973 -5.55712e-17 -2.39037e-17)
(-5.65776e-15 -1.36048e-29 -7.08585e-31 23.0177 -3.41375e-15 3.84956e-17 0.240973 -5.6662e-16 1.7521e-16)
(3.9484e-15 -1.2809e-29 -2.27081e-31 22.0771 4.98453e-15 1.7807e-15 0.23459 -5.35333e-17 -2.07053e-17)
(-2.51635e-15 8.93989e-30 1.39686e-31 22.0771 -3.00896e-15 2.67318e-17 0.23459 -5.7005e-16 1.75147e-16)
(-1.44916e-15 -5.37443e-31 -1.87955e-31 21.1929 5.47333e-15 1.48668e-15 0.228567 -5.38512e-17 -1.76344e-17)
(0 1.32176e-29 4.13051e-31 21.1929 -3.25746e-15 1.82027e-17 0.228567 -5.76548e-16 1.7521e-16)
(1.46581e-15 9.16333e-30 3.19646e-31 20.3608 6.36975e-15 1.21788e-15 0.222876 -6.58627e-17 -1.48388e-17)
(5.86324e-15 -4.34273e-30 -2.71421e-31 20.3608 -4.14526e-15 2.10462e-17 0.222876 -5.8035e-16 1.75536e-16)
(2.4097e-15 -1.7122e-29 -1.33765e-31 19.5767 7.37947e-15 9.58047e-16 0.217495 -7.54506e-17 -1.21473e-17)
(5.92809e-15 2.14024e-29 1.33765e-31 19.5767 -5.96341e-15 1.79047e-17 0.217495 -5.84357e-16 1.76073e-16)
(-1.49782e-15 8.07696e-30 8.79083e-32 18.837 8.36526e-15 7.19689e-16 0.212399 -9.06723e-17 -9.38558e-18)
(0 4.21914e-30 1.31848e-31 18.837 -7.95434e-15 1.54314e-17 0.212399 -6.02103e-16 1.76817e-16)
(-1.51323e-15 -3.0541e-31 -4.17498e-32 18.1383 8.99247e-15 5.07935e-16 0.207569 -1.00324e-16 -7.02337e-18)
(0 1.2476e-29 2.59917e-31 18.1383 -8.14126e-15 1.16091e-17 0.207569 -6.22033e-16 1.77771e-16)
(2.30757e-15 -8.19813e-30 -2.56191e-31 17.4775 8.31556e-15 3.05407e-16 0.202986 -1.07957e-16 -4.72155e-18)
(0 1.22972e-29 2.56191e-31 17.4775 -6.46421e-15 7.7708e-18 0.202986 -6.40861e-16 1.78918e-16)
(-3.81745e-15 -1.90103e-31 -3.72159e-32 16.852 6.67341e-15 1.12511e-16 0.198632 -8.7245e-17 -2.43668e-18)
(0 1.61613e-29 2.5252e-31 16.852 -4.92241e-15 -1.90739e-17 0.198632 -6.5749e-16 1.80176e-16)
(-4.48379e-15 2.78768e-29 9.95601e-31 16.2592 5.78778e-15 -7.36344e-17 0.194493 -7.16963e-17 -2.02574e-18)
(-3.98737e-15 -2.78768e-29 -8.71151e-31 16.2592 -4.60733e-15 -4.62853e-17 0.194493 -6.77438e-16 1.8124e-16)
(-1.57136e-15 -1.18507e-29 -5.24033e-31 15.6967 4.61208e-15 -2.52422e-16 0.190553 -6.823e-17 -4.18226e-18)
(6.28543e-15 1.96266e-29 7.35999e-31 15.6967 -3.80134e-15 -3.73532e-17 0.190553 -6.99571e-16 1.82098e-16)
(0 1.93453e-29 7.2545e-31 15.1626 3.61427e-15 -4.16043e-16 0.186799 -4.47446e-17 -6.18703e-18)
(0 -1.93453e-29 -7.2545e-31 15.1626 -3.27452e-15 -4.31343e-17 0.186799 -7.11273e-16 1.82939e-16)
(-1.59856e-15 2.67328e-29 3.27842e-31 14.6548 4.14531e-15 -5.64067e-16 0.183219 -4.52137e-17 -8.06967e-18)
(6.39424e-15 -2.28817e-29 -2.38351e-31 14.6548 -2.84368e-15 -4.48969e-17 0.183219 -7.13709e-16 1.83539e-16)
(5.3396e-15 -2.64901e-29 -4.14281e-31 14.1716 4.0344e-15 -7.02758e-16 0.179802 -5.95618e-17 -9.94705e-18)
(4.33089e-15 1.87948e-29 2.34935e-31 14.1716 -1.94292e-15 -3.44678e-17 0.179802 -7.18114e-16 1.84185e-16)
(2.08577e-15 -1.11152e-29 -1.15784e-31 13.7114 3.00904e-15 -8.40625e-16 0.176538 -4.36764e-17 -1.19153e-17)
(0 1.48203e-29 1.15784e-31 13.7114 -2.38815e-15 -6.04111e-17 0.176538 -7.26153e-16 1.84718e-16)
(-1.63736e-15 -7.10602e-30 -2.39287e-32 13.2726 3.47245e-15 -9.73621e-16 0.173416 -3.44633e-17 -1.37708e-17)
(0 1.82599e-29 2.28248e-31 13.2726 -3.25708e-15 -7.04508e-17 0.173416 -7.34472e-16 1.84882e-16)
(-3.29961e-15 1.84901e-29 6.31098e-31 12.854 4.35283e-15 -1.09694e-15 0.170428 -5.72641e-17 -1.55873e-17)
(6.59923e-15 -1.43985e-29 -7.8742e-31 12.854 -3.46078e-15 -4.53776e-17 0.170428 -7.44534e-16 1.85083e-16)
(-1.66203e-15 3.84368e-30 9.10373e-32 12.4542 4.79694e-15 -1.21351e-15 0.167567 -5.91956e-17 -1.73611e-17)
(0 7.09608e-30 1.10876e-31 12.4542 -3.64304e-15 -5.10654e-17 0.167567 -7.57196e-16 1.85447e-16)
(-1.67404e-15 -3.15431e-30 -1.77657e-32 12.0721 4.97324e-15 -1.33064e-15 0.164823 -7.10828e-17 -1.92926e-17)
(6.69615e-15 1.39888e-29 2.18574e-31 12.0721 -2.90809e-15 -5.95115e-17 0.164823 -7.72002e-16 1.85439e-16)
(-1.68584e-15 1.41805e-29 1.99804e-31 11.7066 4.40804e-15 -1.44609e-15 0.162191 -6.58195e-17 -2.11182e-17)
(0 0 0 11.7066 -3.33429e-15 -7.21329e-17 0.162191 -7.76138e-16 1.85259e-16)
(-3.39489e-15 2.46657e-29 6.10101e-31 11.3568 4.52258e-15 -1.55115e-15 0.159664 -5.72607e-17 -2.2857e-17)
(-6.78978e-15 -1.69883e-29 -4.24707e-31 11.3568 -4.01219e-15 -7.27009e-17 0.159664 -7.95935e-16 1.84479e-16)
(-1.53242e-15 -1.24231e-29 -5.45865e-31 11.0217 5.00424e-15 -1.65027e-15 0.157236 -7.10176e-17 -2.46078e-17)
(1.17856e-14 2.00938e-29 5.23275e-31 11.0217 -3.67807e-15 -2.03379e-17 0.157236 -8.12491e-16 1.83647e-16)
(-5.16029e-15 3.79104e-29 1.0044e-30 10.7004 4.82097e-15 -1.74007e-15 0.154901 -7.28884e-17 -2.61653e-17)
(-6.88038e-15 -2.64077e-29 -7.22086e-31 10.7004 -4.17397e-15 8.41308e-18 0.154901 -8.24772e-16 1.83006e-16)
(-3.5628e-15 -1.56885e-29 -5.15142e-31 10.3922 4.85199e-15 -1.81577e-15 0.152655 -6.77128e-17 -2.75854e-17)
(6.92462e-15 2.27756e-29 7.11736e-31 10.3922 -3.71188e-15 1.59109e-17 0.152655 -8.49837e-16 1.82323e-16)
(1.74205e-15 -1.66584e-29 -3.96416e-31 10.0964 4.75397e-15 -1.88238e-15 0.150491 -7.59483e-17 -2.89461e-17)
(0 1.28281e-29 3.00658e-31 10.0964 -3.25554e-15 3.98386e-17 0.150491 -8.63361e-16 1.81744e-16)
(0 -2.21274e-29 -7.90263e-31 9.81218 4.22351e-15 -1.94824e-15 0.148406 -6.67317e-17 -3.04147e-17)
(7.01112e-15 2.21274e-29 7.90263e-31 9.81218 -3.23206e-15 4.10635e-17 0.148406 -8.76116e-16 1.81324e-16)
(1.75401e-15 -6.2315e-30 -2.92101e-31 9.53903 4.6816e-15 -2.01974e-15 0.146396 -6.18959e-17 -3.20197e-17)
(7.05343e-15 1.2463e-29 2.92101e-31 9.53903 -3.73963e-15 5.45615e-17 0.146396 -8.94773e-16 1.80943e-16)
(-1.72887e-15 1.84265e-29 3.83886e-31 9.27634 5.7984e-15 -2.08826e-15 0.144457 -8.29473e-17 -3.34699e-17)
(5.36627e-15 -6.14218e-30 -9.59716e-32 9.27634 -4.31668e-15 7.3713e-17 0.144457 -9.15921e-16 1.81117e-16)
(0 1.81624e-29 7.56769e-31 9.02354 5.90849e-15 -2.15301e-15 0.142584 -9.89818e-17 -3.50324e-17)
(0 -1.81624e-29 -7.56769e-31 9.02354 -4.81021e-15 4.01904e-17 0.142584 -9.36091e-16 1.81469e-16)
(-3.58843e-15 7.63539e-30 2.00758e-31 8.78012 5.34015e-15 -2.22027e-15 0.140775 -8.89046e-17 -3.66369e-17)
(0 0 0 8.78012 -5.15278e-15 3.33721e-17 0.140775 -9.65803e-16 1.81592e-16)
(0 -2.35274e-29 -7.35231e-31 8.54562 6.33655e-15 -2.28377e-15 0.139027 -8.34052e-17 -3.81531e-17)
(7.2169e-15 2.35274e-29 7.35231e-31 8.54562 -3.91881e-15 5.22978e-17 0.139027 -9.91986e-16 1.8205e-16)
(-1.63186e-15 1.15951e-29 5.4352e-31 8.31957 7.32615e-15 -2.33519e-15 0.137335 -1.24372e-16 -3.94304e-17)
(7.25642e-15 -5.79755e-30 -1.81173e-31 8.31957 -3.09585e-15 5.25089e-17 0.137335 -1.00285e-15 1.82598e-16)
(-1.82386e-15 9.5184e-30 1.03907e-31 8.10157 6.40295e-15 -2.38034e-15 0.135698 -1.18962e-16 -4.08037e-17)
(0 0 1.78577e-31 8.10157 -3.31362e-15 2.69247e-17 0.135698 -1.00634e-15 1.83365e-16)
(1.8335e-15 7.46059e-30 2.46817e-31 7.89121 5.849e-15 -2.42477e-15 0.134113 -9.66748e-17 -4.21157e-17)
(0 0 0 7.89121 -3.45637e-15 1.18783e-17 0.134113 -1.02031e-15 1.84039e-16)
(1.5627e-15 -5.55182e-30 -3.46989e-31 7.68815 5.39215e-15 -2.46419e-15 0.132578 -1.03367e-16 -4.33762e-17)
(0 1.11036e-29 5.20483e-31 7.68815 -3.33879e-15 2.24782e-17 0.132578 -1.03055e-15 1.8465e-16)
(3.0806e-15 -5.47225e-30 -3.42016e-31 7.49202 3.94011e-15 -2.50545e-15 0.131089 -8.35433e-17 -4.48122e-17)
(-3.0806e-15 5.47225e-30 5.13023e-31 7.49202 -3.01337e-15 2.2391e-17 0.131089 -1.04212e-15 1.85164e-16)
(-2.20521e-15 -3.17993e-30 -2.87417e-31 7.3025 3.23843e-15 -2.55615e-15 0.129645 -5.49201e-17 -4.64704e-17)
(0 1.61815e-29 6.74227e-31 7.3025 -2.8546e-15 6.01032e-18 0.129645 -1.05651e-15 1.85663e-16)
(-1.87091e-15 1.4435e-29 6.08839e-31 7.1193 4.5051e-15 -2.61818e-15 0.128244 -6.07542e-17 -4.83881e-17)
(0 -1.0633e-29 -4.98423e-31 7.1193 -3.37873e-15 1.93482e-17 0.128244 -1.06399e-15 1.8593e-16)
(1.88e-15 -3.79415e-30 -1.11894e-31 6.94212 6.20676e-15 -2.6713e-15 0.126884 -1.02748e-16 -4.97984e-17)
(-7.51999e-15 0 0 6.94212 -5.6371e-15 9.77411e-18 0.126884 -1.08303e-15 1.86702e-16)
(0 -5.16521e-30 -1.61413e-31 6.77069 5.72765e-15 -2.7067e-15 0.125563 -1.25529e-16 -5.1135e-17)
(-7.55594e-15 1.03304e-29 3.22825e-31 6.77069 -6.60614e-15 -3.25627e-17 0.125563 -1.1165e-15 1.8697e-16)
(-4.76395e-15 2.41553e-29 7.51388e-31 6.60477 5.72897e-15 -2.73587e-15 0.124278 -8.77634e-17 -5.23687e-17)
(1.5183e-14 -1.52735e-29 -3.18198e-31 6.60477 -5.72089e-15 1.70617e-17 0.124278 -1.13691e-15 1.87228e-16)
(1.90667e-15 6.25604e-30 5.1067e-31 6.4441 7.62113e-15 -2.75407e-15 0.12303 -1.29256e-16 -5.33365e-17)
(7.62669e-15 -1.50546e-29 -7.84095e-31 6.4441 -7.04826e-15 6.20114e-17 0.12303 -1.16254e-15 1.8831e-16)
(0 0 -1.54571e-31 6.28848 7.11445e-15 -2.77827e-15 0.121815 -1.63481e-16 -5.48515e-17)
(0 4.94628e-30 4.63714e-31 6.28848 -6.65835e-15 2.05538e-17 0.121815 -1.21427e-15 1.89595e-16)
(-1.924e-15 -1.08509e-29 -7.94338e-31 6.13767 5.50372e-15 -2.81128e-15 0.120633 -1.1317e-16 -5.62125e-17)
(7.69598e-15 1.95016e-29 1.06649e-30 6.13767 -4.91587e-15 -1.32982e-17 0.120633 -1.23614e-15 1.90563e-16)
(-1.93253e-15 1.81899e-29 7.22125e-31 5.99149 5.72453e-15 -2.84234e-15 0.119482 -1.04179e-16 -5.77125e-17)
(-1.04354e-14 -4.80551e-30 -3.00344e-31 5.99149 -6.12794e-15 -3.67206e-17 0.119482 -1.25705e-15 1.91312e-16)
(1.94097e-15 -2.2714e-29 -5.67148e-31 5.84973 6.53859e-15 -2.88308e-15 0.118361 -1.25399e-16 -5.95276e-17)
(7.76389e-15 1.89465e-29 4.4406e-31 5.84973 -6.1358e-15 -8.69406e-18 0.118361 -1.28526e-15 1.91676e-16)
(-1.94934e-15 2.7106e-29 8.54412e-31 5.71223 6.91115e-15 -2.91593e-15 0.117269 -1.40571e-16 -6.07679e-17)
(7.79735e-15 -2.33437e-29 -7.29492e-31 5.71223 -5.40563e-15 3.34084e-17 0.117269 -1.29055e-15 1.92786e-16)
(-1.95762e-15 3.75835e-30 2.70494e-31 5.5788 7.02582e-15 -2.94221e-15 0.116204 -1.44553e-16 -6.23791e-17)
(0 0 -1.43807e-31 5.5788 -6.62173e-15 -8.26719e-18 0.116204 -1.31834e-15 1.93634e-16)
(-1.96583e-15 3.75455e-30 1.28614e-31 5.44929 6.47115e-15 -2.97279e-15 0.115165 -1.49523e-16 -6.38559e-17)
(0 9.07175e-30 2.83492e-31 5.44929 -5.99768e-15 -2.32558e-17 0.115165 -1.35319e-15 1.94302e-16)
(-1.97396e-15 -9.65742e-30 -2.88641e-31 5.32355 6.32458e-15 -3.00775e-15 0.114152 -1.25065e-16 -6.57233e-17)
(7.89584e-15 1.78835e-29 5.58858e-31 5.32355 -4.90618e-15 -3.2968e-17 0.114152 -1.37536e-15 1.94935e-16)
(1.98202e-15 -1.2561e-29 -5.45661e-31 5.20141 7.53881e-15 -3.04103e-15 0.113162 -1.47543e-16 -6.71918e-17)
(0 8.81357e-30 4.13136e-31 5.20141 -6.49326e-15 -1.28032e-17 0.113162 -1.40718e-15 1.94947e-16)
(0 -8.68725e-30 -4.07215e-31 5.08276 7.54168e-15 -3.06177e-15 0.112196 -1.82181e-16 -6.85748e-17)
(0 8.68725e-30 5.42953e-31 5.08276 -7.67654e-15 -4.76981e-19 0.112196 -1.45735e-15 1.95911e-16)
(4.12276e-16 3.73727e-30 -1.31017e-31 4.96746 6.72619e-15 -3.09506e-15 0.111253 -1.51993e-16 -7.06682e-17)
(-2.4102e-15 4.28137e-30 5.35171e-31 4.96746 -7.12809e-15 -3.42454e-17 0.111253 -1.51256e-15 1.95807e-16)
(2.37565e-15 -3.37601e-29 -1.18688e-30 4.85537 7.96582e-15 -3.12877e-15 0.11033 -1.50567e-16 -7.21334e-17)
(1.36705e-14 3.37601e-29 1.18688e-30 4.85537 -6.47145e-15 7.84999e-18 0.11033 -1.55829e-15 1.95215e-16)
(-2.3416e-15 4.15952e-30 0 4.74639 9.26985e-15 -3.14182e-15 0.109429 -2.13432e-16 -7.3347e-17)
(8.0542e-15 4.15952e-30 3.89955e-31 4.74639 -7.52049e-15 6.9688e-17 0.109429 -1.59302e-15 1.94846e-16)
(-4.32931e-15 2.83113e-29 1.16776e-30 4.6404 7.08748e-15 -3.1592e-15 0.108547 -2.15795e-16 -7.50686e-17)
(-5.77702e-15 -2.04995e-29 -7.68733e-31 4.6404 -7.55699e-15 5.07084e-17 0.108547 -1.64004e-15 1.95166e-16)
(2.46046e-16 1.1808e-29 9.02509e-31 4.53729 3.77935e-15 -3.21503e-15 0.107685 -1.16422e-16 -7.81757e-17)
(-8.11567e-15 -1.21234e-29 -7.57715e-31 4.53729 -4.78072e-15 -4.75295e-17 0.107685 -1.67194e-15 1.9576e-16)
(0 7.96645e-30 4.97903e-31 4.43696 3.36309e-15 -3.28118e-15 0.106841 -6.33113e-17 -8.04893e-17)
(0 -7.96645e-30 -2.48952e-31 4.43696 -2.33751e-15 -6.53676e-17 0.106841 -1.68159e-15 1.94983e-16)
(0 3.92614e-30 4.90767e-31 4.33931 6.01792e-15 -3.31417e-15 0.106014 -9.95593e-17 -8.2096e-17)
(5.96592e-15 0 -2.45383e-31 4.33931 -3.23848e-15 -4.25663e-17 0.106014 -1.69403e-15 1.94014e-16)
(-2.30558e-15 2.33876e-29 1.05763e-30 4.24425 7.7773e-15 -3.33749e-15 0.105205 -1.96343e-16 -8.40159e-17)
(0 -2.32192e-29 -9.67466e-31 4.24425 -5.31906e-15 -4.12388e-17 0.105205 -1.73097e-15 1.92387e-16)
(0 -3.43296e-29 -2.1456e-30 4.15168 6.44394e-15 -3.37625e-15 0.104412 -1.90672e-16 -8.64722e-17)
(1.64713e-14 3.43296e-29 2.1456e-30 4.15168 -3.92527e-15 -3.16744e-17 0.104412 -1.78171e-15 1.907e-16)
(2.11654e-15 -7.51946e-30 -2.34983e-31 4.06153 5.3362e-15 -3.41906e-15 0.103635 -1.34282e-16 -8.86859e-17)
(1.65301e-14 7.51946e-30 2.34983e-31 4.06153 -4.21092e-15 -2.1936e-17 0.103635 -1.79463e-15 1.88409e-16)
(-4.14713e-15 3.67903e-30 8.55881e-32 3.97371 4.97651e-15 -3.4578e-15 0.102874 -1.39101e-16 -9.10335e-17)
(0 3.70584e-30 2.31615e-31 3.97371 -4.91448e-15 -4.47817e-17 0.102874 -1.82214e-15 1.86062e-16)
(-2.0808e-15 7.34285e-30 1.61027e-31 3.88815 5.16874e-15 -3.49449e-15 0.102127 -1.19387e-16 -9.32322e-17)
(1.66464e-14 0 2.28296e-31 3.88815 -2.79531e-15 -6.24854e-17 0.102127 -1.85375e-15 1.82707e-16)
(2.08799e-15 -1.44809e-29 -3.88378e-31 3.80476 6.08725e-15 -3.53456e-15 0.101394 -1.53385e-16 -9.58591e-17)
(0 1.08011e-29 2.25023e-31 3.80476 -3.4283e-15 -4.22525e-17 0.101394 -1.86231e-15 1.79072e-16)
(-2.09513e-15 3.6722e-30 3.87593e-31 3.72348 5.73997e-15 -3.57398e-15 0.100675 -1.72374e-16 -9.81181e-17)
(0 7.09755e-30 0 3.72348 -3.67661e-15 -4.35517e-17 0.100675 -1.88532e-15 1.74754e-16)
(-2.10221e-15 1.06691e-29 6.05739e-31 3.64424 5.42752e-15 -3.60115e-15 0.0999696 -1.38894e-16 -1.00174e-16)
(8.40885e-15 -6.99582e-30 -4.37239e-31 3.64424 -1.76546e-15 1.5595e-18 0.0999696 -1.90219e-15 1.71154e-16)
(-2.10924e-15 1.05605e-29 8.17803e-31 3.56698 5.86801e-15 -3.61457e-15 0.0992769 -1.60096e-16 -1.01747e-16)
(8.43698e-15 -3.44778e-30 -4.30972e-31 3.56698 -2.08e-15 1.73885e-17 0.0992769 -1.90297e-15 1.68467e-16)
(-4.23246e-15 1.07171e-29 3.48284e-31 3.49162 6.38081e-15 -3.62084e-15 0.0985966 -1.67747e-16 -1.03467e-16)
(0 -3.39836e-30 0 3.49162 -3.1417e-15 2.26038e-17 0.0985966 -1.92754e-15 1.65021e-16)
(-2.12316e-15 1.37e-29 3.86338e-31 3.41812 6.63786e-15 -3.62395e-15 0.0979283 -1.94058e-16 -1.04908e-16)
(0 -3.34965e-30 0 3.41812 -3.83218e-15 3.88797e-17 0.0979283 -1.95453e-15 1.62394e-16)
(1.85866e-15 -1.32066e-29 -6.19058e-31 3.34642 5.67939e-15 -3.63818e-15 0.0972716 -1.87548e-16 -1.07334e-16)
(-1.03789e-14 9.90493e-30 6.19058e-31 3.34642 -3.71965e-15 4.18809e-17 0.0972716 -1.98052e-15 1.60362e-16)
(2.13689e-15 -1.0157e-29 -5.8972e-31 3.27645 4.80217e-15 -3.65683e-15 0.0966262 -1.43426e-16 -1.09093e-16)
(8.54755e-15 6.50865e-30 4.0679e-31 3.27645 -2.34947e-15 7.23365e-17 0.0966262 -2.00437e-15 1.58927e-16)
(2.14368e-15 -1.006e-29 -9.87702e-31 3.20817 4.91418e-15 -3.68609e-15 0.0959915 -1.4075e-16 -1.12247e-16)
(-8.57472e-15 6.41536e-30 8.0192e-31 3.20817 -2.30423e-15 -5.83566e-18 0.0959915 -2.03069e-15 1.57972e-16)
(-2.15043e-15 6.80056e-30 3.8666e-31 3.14152 6.78936e-15 -3.70767e-15 0.0953675 -1.54402e-16 -1.13612e-16)
(8.60171e-15 0 0 3.14152 -3.65075e-15 -3.32214e-17 0.0953675 -2.056e-15 1.54979e-16)
(0 6.23278e-30 3.89549e-31 3.07646 9.16375e-15 -3.7078e-15 0.0947535 -2.59929e-16 -1.15543e-16)
(0 -3.11639e-30 -1.94774e-31 3.07646 -5.76627e-15 2.09396e-17 0.0947535 -2.08435e-15 1.53185e-16)
(0 1.22869e-29 7.67931e-31 3.01294 9.26526e-15 -3.723e-15 0.0941495 -3.06729e-16 -1.17901e-16)
(8.65516e-15 -6.14345e-30 -1.91983e-31 3.01294 -5.90257e-15 3.23251e-17 0.0941495 -2.14138e-15 1.51389e-16)
(2.1704e-15 -9.64896e-30 -9.55423e-31 2.95092 7.13051e-15 -3.75484e-15 0.093555 -2.73954e-16 -1.20968e-16)
(0 6.0554e-30 7.56925e-31 2.95092 -5.62488e-15 -3.79068e-17 0.093555 -2.18389e-15 1.50562e-16)
(0 5.96861e-30 1.11911e-30 2.89034 6.90868e-15 -3.81584e-15 0.0929697 -1.78935e-16 -1.2532e-16)
(-8.70791e-15 0 -7.46076e-31 2.89034 -7.32509e-15 -1.06403e-16 0.0929697 -2.25965e-15 1.47403e-16)
(-3.31187e-15 0 3.67691e-31 2.83117 9.04634e-15 -3.85592e-15 0.0923935 -2.67558e-16 -1.27155e-16)
(0 5.88306e-30 7.35383e-31 2.83117 -7.61848e-15 -6.67798e-17 0.0923935 -2.34227e-15 1.43516e-16)
(0 5.79874e-30 7.24843e-31 2.77337 8.18003e-15 -3.89526e-15 0.0918259 -3.25155e-16 -1.31623e-16)
(0 -5.79874e-30 -3.62421e-31 2.77337 -7.59599e-15 -3.20481e-17 0.0918259 -2.39101e-15 1.39611e-16)
(2.19645e-15 1.92893e-29 1.57464e-30 2.7169 6.80624e-15 -3.9639e-15 0.0912668 -2.17432e-16 -1.35539e-16)
(0 -2.28625e-29 -1.78614e-30 2.7169 -7.24202e-15 -2.95461e-17 0.0912668 -2.44219e-15 1.36621e-16)
(2.20286e-15 2.07041e-30 8.41682e-31 2.66173 7.26197e-15 -4.0418e-15 0.0907158 -2.41425e-16 -1.40844e-16)
(0 -5.63371e-30 -7.04214e-31 2.66173 -5.69029e-15 -9.80744e-17 0.0907158 -2.50936e-15 1.31645e-16)
(-4.41845e-15 7.11023e-30 4.361e-31 2.60781 7.36962e-15 -4.12501e-15 0.0901728 -2.55187e-16 -1.45324e-16)
(8.83691e-15 0 0 2.60781 -5.57318e-15 -4.21364e-17 0.0901728 -2.55074e-15 1.23672e-16)
(-2.21556e-15 3.54504e-30 2.21898e-31 2.55511 7.27889e-15 -4.18224e-15 0.0896376 -2.56019e-16 -1.49026e-16)
(0 5.47338e-30 6.84172e-31 2.55511 -7.20869e-15 5.27733e-17 0.0896376 -2.58441e-15 1.18885e-16)
(3.03708e-15 0 6.74366e-31 2.5036 7.86557e-15 -4.23904e-15 0.0891098 -2.5623e-16 -1.53666e-16)
(-3.03708e-15 0 -6.74366e-31 2.5036 -8.72573e-15 7.80932e-17 0.0891098 -2.66967e-15 1.13961e-16)
(0 5.31761e-30 9.97052e-31 2.45324 8.74539e-15 -4.30223e-15 0.0885893 -3.05711e-16 -1.58002e-16)
(0 0 -6.64701e-31 2.45324 -8.79543e-15 1.20167e-16 0.0885893 -2.74269e-15 1.10289e-16)
(0 1.04828e-29 1.31035e-30 2.40401 8.9019e-15 -4.36917e-15 0.0880758 -3.2793e-16 -1.63122e-16)
(-2.95064e-15 0 -3.27587e-31 2.40401 -7.20312e-15 5.36831e-17 0.0880758 -2.80658e-15 1.09238e-16)
(0 5.16627e-30 1.29157e-30 2.35587 8.47778e-15 -4.42765e-15 0.0875692 -3.26252e-16 -1.67022e-16)
(1.79241e-14 -5.16627e-30 -6.45784e-31 2.35587 -6.77588e-15 4.61342e-17 0.0875692 -2.8667e-15 1.0792e-16)
(-4.49331e-15 6.99123e-30 4.86735e-31 2.3088 8.51849e-15 -4.45842e-15 0.0870694 -3.05685e-16 -1.70245e-16)
(8.98661e-15 0 0 2.3088 -7.55397e-15 3.50833e-17 0.0870694 -2.901e-15 1.09109e-16)
(2.25276e-15 -8.49848e-30 -1.18965e-30 2.26277 9.26572e-15 -4.4678e-15 0.086576 -3.3891e-16 -1.7264e-16)
(2.82558e-15 5.01924e-30 1.25481e-30 2.26277 -7.31342e-15 1.57582e-16 0.086576 -2.95048e-15 1.11742e-16)
(0 0 6.18413e-31 2.21774 8.26563e-15 -4.46633e-15 0.0860889 -3.72401e-16 -1.75116e-16)
(-9.03535e-15 4.9473e-30 0 2.21774 -4.96481e-15 2.76998e-16 0.0860889 -3.02741e-15 1.19403e-16)
(-5.01004e-15 -6.28386e-30 -2.17949e-30 2.1737 6.14812e-15 -4.48792e-15 0.0856079 -2.70407e-16 -1.79416e-16)
(1.18047e-14 1.46292e-29 2.4382e-30 2.1737 -1.08089e-15 4.62271e-17 0.0856079 -3.07499e-15 1.25715e-16)
(0 4.8065e-30 9.01219e-31 2.13062 5.08585e-15 -4.53974e-15 0.085133 -2.14832e-16 -1.84429e-16)
(0 0 -3.00406e-31 2.13062 -6.63731e-16 -1.02735e-16 0.085133 -3.06818e-15 1.26035e-16)
(0 -4.73761e-30 -8.88302e-31 2.08847 4.69003e-15 -4.60725e-15 0.0846639 -1.9258e-16 -1.902e-16)
(0 4.73761e-30 8.88302e-31 2.08847 -3.06501e-15 -1.27866e-16 0.0846639 -3.08021e-15 1.26419e-16)
(-2.2828e-15 3.46407e-30 -3.09736e-31 2.04723 3.29628e-15 -4.66203e-15 0.0842004 -1.88709e-16 -1.94383e-16)
(0 0 5.83714e-31 2.04723 -2.65395e-15 -1.09775e-16 0.0842004 -3.13544e-15 1.23994e-16)
(-1.98627e-15 -1.60609e-29 -2.8939e-30 2.00687 2.68607e-15 -4.73944e-15 0.0837425 -8.24211e-17 -2.02297e-16)
(1.83096e-14 2.76167e-29 3.16441e-30 2.00687 -4.13283e-16 -8.06136e-17 0.0837425 -3.15146e-15 1.22522e-16)
(0 4.53681e-30 1.1342e-30 1.96739 6.02514e-15 -4.82895e-15 0.0832899 -1.428e-16 -2.07732e-16)
(0 -4.53681e-30 -5.67102e-31 1.96739 -2.24934e-15 -1.65993e-16 0.0832899 -3.13158e-15 1.18966e-16)
(-2.51739e-15 8.94358e-30 1.11795e-30 1.92874 7.06921e-15 -4.86525e-15 0.0828426 -3.70391e-16 -2.11372e-16)
(0 0 -5.58974e-31 1.92874 -4.22685e-15 -1.92825e-16 0.0828426 -3.20006e-15 1.12789e-16)
(-4.43737e-15 -1.17406e-29 -2.41279e-30 1.89092 4.87697e-15 -4.88717e-15 0.0824004 -2.3757e-16 -2.15746e-16)
(1.84498e-14 2.64462e-29 3.30577e-30 1.89092 -1.8787e-15 -1.24864e-17 0.0824004 -3.25972e-15 1.06147e-16)
(2.44575e-15 -3.04117e-29 -4.34452e-30 1.8539 5.21323e-15 -4.91085e-15 0.0819632 -1.88269e-16 -2.19679e-16)
(1.60503e-14 3.04117e-29 4.34452e-30 1.8539 -1.82027e-15 1.10399e-16 0.0819632 -3.23728e-15 1.03858e-16)
(-2.31775e-15 1.19774e-29 1.91685e-30 1.81766 5.94406e-15 -4.91988e-15 0.0815309 -2.74559e-16 -2.22884e-16)
(-2.41069e-15 -4.28225e-30 -1.07056e-30 1.81766 -2.95258e-15 -5.28142e-18 0.0815309 -3.27439e-15 1.01628e-16)
(2.32347e-15 -2.87312e-29 -4.01113e-30 1.78218 5.77336e-15 -4.91808e-15 0.0811033 -2.6e-16 -2.25949e-16)