/*--------------------------------*- C++ -*----------------------------------*\
| =========                 |                                                 |
| \\      /  F ield         | OpenFOAM: The Open Source CFD Toolbox           |
|  \\    /   O peration     | Version:  2012                                  |
|   \\  /    A nd           | Website:  www.openfoam.com                      |
|    \\/     M anipulation  |                                                 |
\*---------------------------------------------------------------------------*/
FoamFile
{
    version     2.0;
    format      ascii;
    class       volScalarField;
    location    "11200";
    object      k;
}
// * * * * * * * * * * * * * * * * * * * * * * * * * * * * * * * * * * * * * //

dimensions      [0 2 -2 0 0 0 0];


internalField   nonuniform List<scalar> 
2560
(
0.00096548
0.00096548
0.0194876
0.0194876
0.139005
0.139005
0.499484
0.499484
1.19806
1.19806
2.14603
2.14603
3.1556
3.1556
4.12349
4.12349
5.02653
5.02653
5.86929
5.86929
6.66142
6.66142
7.41179
7.41179
8.12742
8.12742
8.81371
8.81371
9.47472
9.47472
10.1135
10.1135
10.7325
10.7325
11.3334
11.3334
11.9175
11.9175
12.4857
12.4857
13.0386
13.0386
13.5767
13.5767
14.1
14.1
14.6086
14.6086
15.1022
15.1022
15.5805
15.5805
16.0429
16.0429
16.4889
16.4889
16.9178
16.9178
17.3287
17.3287
17.7207
17.7207
18.0929
18.0929
18.4443
18.4443
18.7737
18.7737
19.0801
19.0801
19.3623
19.3623
19.6193
19.6193
19.85
19.85
20.0533
20.0533
20.2284
20.2284
20.3743
20.3743
20.4902
20.4902
20.5756
20.5756
20.63
20.63
20.6531
20.6531
20.6448
20.6448
20.6054
20.6054
20.5351
20.5351
20.4348
20.4348
20.3053
20.3053
20.1479
20.1479
19.9641
19.9641
19.7557
19.7557
19.5249
19.5249
19.2742
19.2742
19.0062
19.0062
18.7238
18.7238
18.4304
18.4304
18.1292
18.1292
17.8237
17.8237
17.5177
17.5177
17.2148
17.2148
16.9185
16.9185
16.6326
16.6326
16.3603
16.3603
16.1048
16.1048
15.8689
15.8689
15.6552
15.6552
15.4655
15.4655
15.3015
15.3015
15.164
15.164
15.0536
15.0536
14.97
14.97
14.9125
14.9125
14.88
14.88
14.8707
14.8707
14.8825
14.8825
14.913
14.913
14.9596
14.9596
15.0193
15.0193
15.0893
15.0893
15.1665
15.1665
15.2482
15.2482
15.3314
15.3314
15.4136
15.4136
15.4924
15.4924
15.5657
15.5657
15.6314
15.6314
15.6879
15.6879
15.7338
15.7338
15.7681
15.7681
15.7898
15.7898
15.7982
15.7982
15.7929
15.7929
15.7737
15.7737
15.7406
15.7406
15.6935
15.6935
15.6328
15.6328
15.5587
15.5587
15.4717
15.4717
15.3723
15.3723
15.261
15.261
15.1384
15.1384
15.0051
15.0051
14.8619
14.8619
14.7094
14.7094
14.5482
14.5482
14.379
14.379
14.2025
14.2025
14.0193
14.0193
13.83
13.83
13.6353
13.6353
13.4358
13.4358
13.232
13.232
13.0244
13.0244
12.8136
12.8136
12.6
12.6
12.3841
12.3841
12.1663
12.1663
11.9471
11.9471
11.7268
11.7268
11.5058
11.5058
11.2845
11.2845
11.063
11.063
10.8417
10.8417
10.6209
10.6209
10.4009
10.4009
10.1817
10.1817
9.96374
9.96374
9.74708
9.74708
9.53192
9.53192
9.31843
9.31843
9.10675
9.10675
8.89702
8.89702
8.68937
8.68937
8.4839
8.4839
8.28073
8.28073
8.07995
8.07995
7.88164
7.88164
7.68589
7.68589
7.49276
7.49276
7.30233
7.30233
7.11465
7.11465
6.92976
6.92976
6.74774
6.74774
6.56861
6.56861
6.39241
6.39241
6.2192
6.2192
6.049
6.049
5.88185
5.88185
5.71777
5.71777
5.55681
5.55681
5.399
5.399
5.24434
5.24434
5.09289
5.09289
4.94465
4.94465
4.79966
4.79966
4.65793
4.65793
4.51948
4.51948
4.38432
4.38432
4.25246
4.25246
4.1239
4.1239
3.99861
3.99861
3.8766
3.8766
3.75781
3.75781
3.64222
3.64222
3.52976
3.52976
3.42039
3.42039
3.31404
3.31404
3.21063
3.21063
3.11009
3.11009
3.01235
3.01235
2.91735
2.91735
2.82501
2.82501
2.73529
2.73529
2.64813
2.64813
2.56348
2.56348
2.48132
2.48132
2.40158
2.40158
2.32425
2.32425
2.24929
2.24929
2.17665
2.17665
2.10631
2.10631
2.03821
2.03821
1.97233
1.97233
1.90861
1.90861
1.847
1.847
1.78747
1.78747
1.72995
1.72995
1.67441
1.67441
1.62081
1.62081
1.5691
1.5691
1.51925
1.51925
1.47124
1.47124
1.42504
1.42504
1.38062
1.38062
1.33797
1.33797
1.29705
1.29705
1.25786
1.25786
1.22038
1.22038
1.18458
1.18458
1.15043
1.15043
1.11791
1.11791
1.08699
1.08699
1.05762
1.05762
1.02976
1.02976
1.00336
1.00336
0.978367
0.978367
0.954718
0.954718
0.932358
0.932358
0.911233
0.911233
0.891291
0.891291
0.87248
0.87248
0.854745
0.854745
0.838027
0.838027
0.822259
0.822259
0.807371
0.807371
0.793282
0.793282
0.779906
0.779906
0.767147
0.767147
0.754908
0.754908
0.743093
0.743093
0.731617
0.731617
0.720418
0.720418
0.709456
0.709456
0.698713
0.698713
0.688181
0.688181
0.677857
0.677857
0.667728
0.667728
0.657759
0.657759
0.647906
0.647906
0.638115
0.638115
0.628342
0.628342
0.618556
0.618556
0.608739
0.608739
0.598887
0.598887
0.589007
0.589007
0.579126
0.579126
0.569286
0.569286
0.559549
0.559549
0.549982
0.549982
0.540644
0.540644
0.531573
0.531573
0.522777
0.522777
0.514229
0.514229
0.505869
0.505869
0.497603
0.497603
0.489306
0.489306
0.480833
0.480833
0.472052
0.472052
0.462884
0.462884
0.453337
0.453337
0.443498
0.443498
0.433513
0.433514
0.423563
0.423563
0.413814
0.413814
0.404383
0.404383
0.395322
0.395322
0.386628
0.386628
0.378279
0.378279
0.370273
0.370273
0.362651
0.362651
0.355488
0.355488
0.348859
0.34886
0.342819
0.342819
0.337377
0.337377
0.332514
0.332514
0.328199
0.328199
0.324409
0.324409
0.321129
0.321129
0.318361
0.318361
0.316122
0.316122
0.314438
0.314438
0.313324
0.313324
0.312772
0.312772
0.31273
0.31273
0.313112
0.313112
0.313793
0.313793
0.314613
0.314613
0.315401
0.315401
0.316006
0.316006
0.31629
0.31629
0.316082
0.316082
0.315161
0.315161
0.313291
0.313291
0.310315
0.310315
0.306213
0.306213
0.301097
0.301097
0.295164
0.295164
0.288709
0.288709
0.282123
0.282123
0.275764
0.275764
0.269836
0.269836
0.264344
0.264344
0.259276
0.259276
0.254649
0.254649
0.250467
0.250467
0.246702
0.246702
0.243344
0.243344
0.240413
0.240413
0.237936
0.237936
0.235911
0.235911
0.23428
0.23428
0.232972
0.232972
0.231876
0.231876
0.230779
0.230779
0.229379
0.229379
0.227404
0.227404
0.224762
0.224762
0.221595
0.221595
0.218169
0.218169
0.214713
0.214714
0.211364
0.211364
0.208229
0.208229
0.205431
0.205431
0.203058
0.203059
0.201142
0.201143
0.199675
0.199676
0.198644
0.198645
0.198091
0.198092
0.00096548
0.00096548
0.0194876
0.0194876
0.139005
0.139005
0.499484
0.499484
1.19806
1.19806
2.14603
2.14603
3.1556
3.1556
4.12349
4.12349
5.02653
5.02653
5.86929
5.86929
6.66142
6.66142
7.41179
7.41179
8.12742
8.12742
8.81371
8.81371
9.47472
9.47472
10.1135
10.1135
10.7325
10.7325
11.3334
11.3334
11.9175
11.9175
12.4857
12.4857
13.0386
13.0386
13.5767
13.5767
14.1
14.1
14.6086
14.6086
15.1022
15.1022
15.5805
15.5805
16.0429
16.0429
16.4889
16.4889
16.9178
16.9178
17.3287
17.3287
17.7207
17.7207
18.0929
18.0929
18.4443
18.4443
18.7737
18.7737
19.0801
19.0801
19.3623
19.3623
19.6193
19.6193
19.85
19.85
20.0533
20.0533
20.2284
20.2284
20.3743
20.3743
20.4902
20.4902
20.5756
20.5756
20.63
20.63
20.6531
20.6531
20.6448
20.6448
20.6054
20.6054
20.5352
20.5352
20.4348
20.4348
20.3053
20.3053
20.1479
20.1479
19.9641
19.9641
19.7557
19.7557
19.5249
19.5249
19.2742
19.2742
19.0062
19.0062
18.7238
18.7238
18.4304
18.4304
18.1292
18.1292
17.8238
17.8238
17.5177
17.5177
17.2148
17.2148
16.9186
16.9186
16.6326
16.6326
16.3603
16.3603
16.1048
16.1048
15.8689
15.8689
15.6552
15.6552
15.4655
15.4655
15.3015
15.3015
15.164
15.164
15.0536
15.0536
14.97
14.97
14.9125
14.9125
14.88
14.88
14.8707
14.8707
14.8825
14.8825
14.913
14.913
14.9596
14.9596
15.0193
15.0193
15.0893
15.0893
15.1665
15.1665
15.2482
15.2482
15.3314
15.3314
15.4136
15.4136
15.4924
15.4924
15.5657
15.5657
15.6314
15.6314
15.6879
15.6879
15.7338
15.7338
15.7681
15.7681
15.7897
15.7897
15.7982
15.7982
15.7929
15.7929
15.7737
15.7737
15.7406
15.7406
15.6935
15.6935
15.6328
15.6328
15.5587
15.5587
15.4717
15.4717
15.3723
15.3723
15.261
15.261
15.1384
15.1384
15.0051
15.0051
14.8619
14.8619
14.7093
14.7093
14.5481
14.5481
14.379
14.379
14.2025
14.2025
14.0193
14.0193
13.83
13.83
13.6353
13.6353
13.4358
13.4358
13.232
13.232
13.0244
13.0244
12.8136
12.8136
12.6
12.6
12.3841
12.3841
12.1663
12.1663
11.9471
11.9471
11.7268
11.7268
11.5058
11.5058
11.2845
11.2845
11.063
11.063
10.8417
10.8417
10.6209
10.6209
10.4009
10.4009
10.1817
10.1817
9.96374
9.96374
9.74707
9.74707
9.53192
9.53192
9.31843
9.31843
9.10675
9.10675
8.89702
8.89702
8.68937
8.68937
8.4839
8.4839
8.28073
8.28073
8.07995
8.07995
7.88164
7.88164
7.68589
7.68589
7.49276
7.49276
7.30233
7.30233
7.11464
7.11464
6.92976
6.92976
6.74773
6.74773
6.5686
6.5686
6.39241
6.39241
6.2192
6.2192
6.049
6.049
5.88184
5.88184
5.71777
5.71777
5.55681
5.55681
5.39899
5.39899
5.24434
5.24434
5.09289
5.09289
4.94465
4.94465
4.79966
4.79966
4.65793
4.65793
4.51948
4.51948
4.38432
4.38432
4.25246
4.25246
4.12389
4.12389
3.99861
3.99861
3.8766
3.8766
3.75781
3.75781
3.64222
3.64222
3.52976
3.52976
3.42039
3.42039
3.31404
3.31404
3.21062
3.21062
3.11009
3.11009
3.01235
3.01235
2.91734
2.91734
2.82501
2.82501
2.73529
2.73529
2.64813
2.64813
2.56348
2.56348
2.48131
2.48131
2.40158
2.40158
2.32425
2.32425
2.24929
2.24929
2.17665
2.17665
2.10631
2.10631
2.03821
2.03821
1.97233
1.97233
1.90861
1.90861
1.847
1.847
1.78746
1.78746
1.72995
1.72995
1.67441
1.67441
1.62081
1.62081
1.5691
1.5691
1.51925
1.51925
1.47124
1.47124
1.42504
1.42504
1.38062
1.38062
1.33796
1.33796
1.29705
1.29705
1.25786
1.25786
1.22038
1.22038
1.18457
1.18457
1.15042
1.15042
1.11791
1.11791
1.08698
1.08698
1.05761
1.05761
1.02976
1.02976
1.00336
1.00336
0.978361
0.978361
0.954711
0.954711
0.932351
0.932351
0.911226
0.911226
0.891284
0.891284
0.872472
0.872472
0.854737
0.854737
0.838018
0.838018
0.82225
0.822251
0.807362
0.807362
0.793273
0.793273
0.779896
0.779896
0.767137
0.767137
0.754898
0.754898
0.743082
0.743082
0.731607
0.731607
0.720408
0.720408
0.709446
0.709446
0.698702
0.698703
0.688171
0.688171
0.677847
0.677848
0.667718
0.667718
0.65775
0.65775
0.647897
0.647897
0.638106
0.638106
0.628334
0.628334
0.618548
0.618548
0.608731
0.608731
0.598879
0.598879
0.589
0.589
0.579119
0.579119
0.56928
0.56928
0.559543
0.559543
0.549976
0.549976
0.540638
0.540638
0.531568
0.531568
0.522772
0.522772
0.514224
0.514225
0.505864
0.505864
0.497599
0.497599
0.489303
0.489303
0.480831
0.480832
0.472051
0.472051
0.462884
0.462885
0.453338
0.453339
0.4435
0.4435
0.433517
0.433517
0.423567
0.423568
0.413819
0.413819
0.404388
0.404389
0.395327
0.395327
0.386633
0.386634
0.378284
0.378285
0.370278
0.370278
0.362656
0.362656
0.355492
0.355492
0.348862
0.348862
0.34282
0.342821
0.337377
0.337377
0.332513
0.332513
0.328198
0.328198
0.324407
0.324407
0.321126
0.321126
0.318356
0.318356
0.316117
0.316117
0.314431
0.314431
0.313314
0.313314
0.312759
0.312759
0.312714
0.312714
0.313094
0.313093
0.313773
0.313773
0.314592
0.314592
0.31538
0.315379
0.315985
0.315985
0.31627
0.31627
0.316065
0.316065
0.315148
0.315148
0.313284
0.313283
0.310313
0.310312
0.306217
0.306216
0.301105
0.301105
0.295175
0.295175
0.28872
0.288721
0.282133
0.282134
0.275772
0.275773
0.269841
0.269842
0.264348
0.264348
0.259278
0.259279
0.25465
0.254651
0.250467
0.250467
0.246701
0.246701
0.243341
0.243342
0.240408
0.240408
0.237928
0.237928
0.2359
0.2359
0.234266
0.234266
0.232955
0.232955
0.231857
0.231857
0.230761
0.230761
0.229363
0.229363
0.227393
0.227394
0.224758
0.224759
0.221596
0.221597
0.218174
0.218175
0.21472
0.214721
0.211371
0.211372
0.208236
0.208236
0.205436
0.205437
0.203062
0.203062
0.201145
0.201145
0.199677
0.199677
0.198645
0.198645
0.198092
0.198092
0.198086
0.198087
0.198628
0.198629
0.199649
0.19965
0.201099
0.2011
0.202996
0.202996
0.205349
0.20535
0.208124
0.208124
0.211236
0.211237
0.214553
0.214554
0.217951
0.217951
0.221314
0.221314
0.224431
0.224432
0.227036
0.227036
0.228993
0.228993
0.230411
0.230411
0.231554
0.231554
0.232702
0.232702
0.234058
0.234058
0.235734
0.235734
0.237802
0.237803
0.240324
0.240324
0.2433
0.2433
0.246699
0.246699
0.250505
0.250505
0.254731
0.254731
0.2594
0.2594
0.26451
0.26451
0.270043
0.270043
0.276013
0.276013
0.282412
0.282412
0.289043
0.289043
0.295537
0.295537
0.301488
0.301488
0.306596
0.306596
0.310662
0.310662
0.31358
0.31358
0.315397
0.315397
0.316284
0.316284
0.316471
0.316471
0.316178
0.316178
0.315565
0.315565
0.314769
0.314769
0.313942
0.313942
0.313251
0.313251
0.312859
0.312859
0.312893
0.312893
0.313436
0.313436
0.314544
0.314544
0.31622
0.31622
0.31845
0.31845
0.321208
0.321208
0.324476
0.324476
0.328256
0.328256
0.332559
0.332559
0.337409
0.337409
0.342837
0.342837
0.348864
0.348864
0.355478
0.355478
0.362628
0.362628
0.370241
0.370241
0.378243
0.378243
0.386583
0.386583
0.395262
0.395263
0.404305
0.404305
0.413712
0.413712
0.423435
0.423435
0.433365
0.433365
0.443339
0.443339
0.453168
0.453168
0.462695
0.462695
0.471835
0.471835
0.480596
0.480596
0.489064
0.489064
0.497367
0.497367
0.505653
0.505653
0.514047
0.514047
0.522633
0.522633
0.531463
0.531463
0.540555
0.540555
0.549898
0.549898
0.559459
0.559459
0.569185
0.569185
0.579011
0.579011
0.588881
0.588881
0.598751
0.598751
0.608593
0.608593
0.618406
0.618406
0.628197
0.628197
0.637973
0.637973
0.647768
0.647768
0.657636
0.657636
0.667625
0.667625
0.677782
0.677782
0.688141
0.688141
0.698711
0.698711
0.709483
0.709483
0.720464
0.720464
0.731678
0.731678
0.743163
0.743163
0.754984
0.754984
0.767233
0.767233
0.780003
0.780003
0.793388
0.793388
0.807481
0.807481
0.822367
0.822367
0.838123
0.838123
0.854827
0.854827
0.872548
0.872549
0.891344
0.891345
0.911273
0.911273
0.932391
0.932391
0.954748
0.954748
0.978399
0.978399
1.0034
1.0034
1.0298
1.0298
1.05766
1.05766
1.08704
1.08704
1.11797
1.11797
1.15049
1.15049
1.18465
1.18465
1.22046
1.22046
1.25794
1.25794
1.29713
1.29713
1.33805
1.33805
1.38071
1.38071
1.42513
1.42513
1.47134
1.47134
1.51935
1.51935
1.5692
1.5692
1.62091
1.62091
1.67452
1.67452
1.73007
1.73007
1.78758
1.78758
1.84712
1.84712
1.90872
1.90872
1.97244
1.97244
2.03833
2.03833
2.10642
2.10642
2.17677
2.17677
2.24941
2.24941
2.32438
2.32438
2.40171
2.40171
2.48144
2.48144
2.56362
2.56362
2.64827
2.64827
2.73544
2.73544
2.82516
2.82516
2.9175
2.9175
3.01251
3.01251
3.11025
3.11025
3.2108
3.2108
3.31423
3.31423
3.4206
3.4206
3.52998
3.52998
3.64244
3.64244
3.75805
3.75805
3.87684
3.87684
3.99887
3.99887
4.12415
4.12415
4.25272
4.25272
4.38459
4.38459
4.51975
4.51975
4.65821
4.65821
4.79995
4.79995
4.94495
4.94495
5.09319
5.09319
5.24465
5.24465
5.39931
5.39931
5.55714
5.55714
5.71811
5.71811
5.8822
5.8822
6.04936
6.04936
6.21958
6.21958
6.39281
6.39281
6.56902
6.56902
6.74817
6.74817
6.93023
6.93023
7.11515
7.11515
7.30287
7.30287
7.49334
7.49334
7.68651
7.68651
7.88231
7.88231
8.08068
8.08068
8.28151
8.28151
8.48473
8.48473
8.69023
8.69023
8.89791
8.89791
9.10767
9.10767
9.31939
9.31939
9.53291
9.53291
9.74811
9.74811
9.96483
9.96483
10.1829
10.1829
10.4021
10.4021
10.6222
10.6222
10.843
10.843
11.0643
11.0643
11.2857
11.2857
11.5071
11.5071
11.7281
11.7281
11.9484
11.9484
12.1676
12.1676
12.3853
12.3853
12.6011
12.6011
12.8146
12.8146
13.0253
13.0253
13.2328
13.2328
13.4366
13.4366
13.6361
13.6361
13.8308
13.8308
14.0201
14.0201
14.2033
14.2033
14.3798
14.3798
14.549
14.549
14.7103
14.7103
14.8628
14.8628
15.006
15.006
15.1392
15.1392
15.2618
15.2618
15.3732
15.3732
15.4727
15.4727
15.5598
15.5598
15.634
15.634
15.6949
15.6949
15.742
15.742
15.7752
15.7752
15.7944
15.7944
15.7994
15.7994
15.7907
15.7907
15.7685
15.7685
15.7338
15.7338
15.6875
15.6875
15.6308
15.6308
15.565
15.565
15.4916
15.4916
15.4127
15.4127
15.3302
15.3302
15.2467
15.2467
15.1648
15.1648
15.0872
15.0872
15.017
15.017
14.957
14.957
14.9102
14.9102
14.8796
14.8796
14.8676
14.8676
14.8769
14.8769
14.9093
14.9093
14.9667
14.9667
15.0501
15.0501
15.1604
15.1604
15.2977
15.2977
15.4617
15.4617
15.6512
15.6512
15.8649
15.8649
16.1006
16.1006
16.356
16.356
16.6283
16.6283
16.9142
16.9142
17.2103
17.2103
17.5131
17.5131
17.819
17.819
18.1244
18.1244
18.4257
18.4257
18.7193
18.7193
19.0018
19.0018
19.27
19.27
19.521
19.521
19.7521
19.7521
19.961
19.961
20.1451
20.1451
20.3026
20.3026
20.4324
20.4324
20.5331
20.5331
20.6038
20.6038
20.6435
20.6435
20.6521
20.6521
20.6293
20.6293
20.5752
20.5752
20.4901
20.4901
20.3744
20.3744
20.2288
20.2288
20.0539
20.0539
19.8506
19.8506
19.62
19.62
19.3631
19.3631
19.0808
19.0808
18.7745
18.7745
18.4451
18.4451
18.0937
18.0937
17.7214
17.7214
17.3293
17.3293
16.9185
16.9185
16.4897
16.4897
16.0437
16.0437
15.5813
15.5813
15.1031
15.1031
14.6095
14.6095
14.1009
14.1009
13.5775
13.5775
13.0394
13.0394
12.4864
12.4864
11.9181
11.9181
11.334
11.334
10.7331
10.7331
10.1141
10.1141
9.47519
9.47519
8.81415
8.81415
8.12783
8.12783
7.41216
7.41216
6.66176
6.66176
5.86959
5.86959
5.0268
5.0268
4.12372
4.12372
3.15579
3.15579
2.14617
2.14617
1.19815
1.19815
0.499524
0.499524
0.139016
0.139016
0.0194891
0.0194891
0.000965562
0.000965562
0.198087
0.198087
0.19863
0.19863
0.199651
0.199651
0.201102
0.201102
0.203
0.203
0.205355
0.205355
0.208131
0.208131
0.211244
0.211244
0.21456
0.214561
0.217956
0.217956
0.221315
0.221316
0.224427
0.224428
0.227026
0.227026
0.228978
0.228978
0.230393
0.230393
0.231535
0.231535
0.232685
0.232685
0.234044
0.234044
0.235723
0.235723
0.237795
0.237795
0.240319
0.24032
0.243297
0.243297
0.246698
0.246698
0.250505
0.250505
0.254732
0.254733
0.259402
0.259403
0.264514
0.264514
0.270049
0.27005
0.276021
0.276022
0.282423
0.282424
0.289055
0.289055
0.295548
0.295549
0.301496
0.301496
0.3066
0.306599
0.31066
0.31066
0.313573
0.313572
0.315385
0.315384
0.316267
0.316266
0.316452
0.316451
0.316157
0.316156
0.315543
0.315543
0.314748
0.314748
0.313922
0.313922
0.313234
0.313233
0.312844
0.312844
0.31288
0.31288
0.313426
0.313426
0.314536
0.314536
0.316215
0.316215
0.318446
0.318446
0.321205
0.321205
0.324474
0.324474
0.328255
0.328255
0.332559
0.332559
0.337409
0.33741
0.342839
0.342839
0.348867
0.348867
0.355482
0.355482
0.362632
0.362632
0.370246
0.370247
0.378248
0.378248
0.386588
0.386588
0.395268
0.395268
0.40431
0.40431
0.413717
0.413717
0.423439
0.423439
0.433369
0.433369
0.443342
0.443342
0.453169
0.45317
0.462696
0.462696
0.471834
0.471834
0.480594
0.480594
0.489061
0.489061
0.497363
0.497363
0.505648
0.505649
0.514042
0.514042
0.522628
0.522628
0.531458
0.531458
0.540549
0.54055
0.549892
0.549893
0.559453
0.559453
0.569178
0.569178
0.579004
0.579004
0.588874
0.588874
0.598743
0.598743
0.608585
0.608585
0.618398
0.618398
0.628188
0.628188
0.637964
0.637964
0.647759
0.647759
0.657627
0.657627
0.667616
0.667616
0.677772
0.677772
0.688131
0.688131
0.698701
0.698701
0.709473
0.709473
0.720454
0.720454
0.731667
0.731668
0.743152
0.743153
0.754974
0.754974
0.767223
0.767223
0.779993
0.779993
0.793379
0.793379
0.807472
0.807472
0.822358
0.822358
0.838114
0.838114
0.854819
0.854819
0.872541
0.872541
0.891337
0.891337
0.911266
0.911266
0.932384
0.932384
0.954742
0.954742
0.978393
0.978393
1.00339
1.00339
1.0298
1.0298
1.05766
1.05766
1.08703
1.08703
1.11796
1.11796
1.15049
1.15049
1.18464
1.18464
1.22045
1.22045
1.25794
1.25794
1.29713
1.29713
1.33805
1.33805
1.38071
1.38071
1.42513
1.42513
1.47134
1.47134
1.51935
1.51935
1.5692
1.5692
1.62091
1.62091
1.67452
1.67452
1.73007
1.73007
1.78758
1.78758
1.84712
1.84712
1.90872
1.90872
1.97244
1.97244
2.03833
2.03833
2.10642
2.10642
2.17677
2.17677
2.24941
2.24941
2.32437
2.32437
2.40171
2.40171
2.48144
2.48144
2.56362
2.56362
2.64827
2.64827
2.73544
2.73544
2.82516
2.82516
2.9175
2.9175
3.01251
3.01251
3.11025
3.11025
3.2108
3.2108
3.31422
3.31422
3.42059
3.4206
3.52998
3.52998
3.64244
3.64244
3.75804
3.75804
3.87684
3.87684
3.99886
3.99886
4.12415
4.12415
4.25272
4.25272
4.38459
4.38459
4.51975
4.51975
4.65821
4.65821
4.79994
4.79994
4.94494
4.94494
5.09319
5.09319
5.24465
5.24465
5.39931
5.39931
5.55714
5.55714
5.71811
5.71811
5.8822
5.8822
6.04936
6.04936
6.21958
6.21958
6.39281
6.39281
6.56902
6.56902
6.74817
6.74817
6.93023
6.93023
7.11514
7.11514
7.30287
7.30287
7.49334
7.49334
7.68651
7.68651
7.88231
7.88231
8.08067
8.08067
8.28151
8.28151
8.48473
8.48473
8.69023
8.69023
8.89791
8.89791
9.10767
9.10767
9.31938
9.31938
9.5329
9.53291
9.74811
9.74811
9.96483
9.96483
10.1829
10.1829
10.4021
10.4021
10.6222
10.6222
10.843
10.843
11.0643
11.0643
11.2857
11.2857
11.5071
11.5071
11.7281
11.7281
11.9484
11.9484
12.1676
12.1676
12.3853
12.3853
12.6011
12.6011
12.8145
12.8145
13.0253
13.0253
13.2328
13.2328
13.4366
13.4366
13.6361
13.6361
13.8308
13.8308
14.0201
14.0201
14.2033
14.2033
14.3798
14.3798
14.549
14.549
14.7103
14.7103
14.8628
14.8628
15.006
15.006
15.1392
15.1392
15.2618
15.2618
15.3732
15.3732
15.4727
15.4727
15.5598
15.5598
15.634
15.634
15.6949
15.6949
15.742
15.742
15.7752
15.7752
15.7944
15.7944
15.7994
15.7994
15.7907
15.7907
15.7685
15.7685
15.7338
15.7338
15.6875
15.6875
15.6308
15.6308
15.565
15.565
15.4916
15.4916
15.4127
15.4127
15.3302
15.3302
15.2467
15.2467
15.1648
15.1648
15.0872
15.0872
15.0169
15.0169
14.957
14.957
14.9102
14.9102
14.8795
14.8795
14.8676
14.8676
14.8769
14.8769
14.9093
14.9093
14.9667
14.9667
15.0501
15.0501
15.1604
15.1604
15.2978
15.2978
15.4617
15.4617
15.6512
15.6512
15.8649
15.8649
16.1006
16.1006
16.356
16.356
16.6283
16.6283
16.9142
16.9142
17.2104
17.2104
17.5131
17.5131
17.819
17.819
18.1244
18.1244
18.4257
18.4257
18.7193
18.7193
19.0018
19.0018
19.27
19.27
19.521
19.521
19.7522
19.7522
19.961
19.961
20.1451
20.1451
20.3027
20.3027
20.4324
20.4324
20.5331
20.5331
20.6038
20.6038
20.6435
20.6435
20.6521
20.6521
20.6293
20.6293
20.5752
20.5752
20.4901
20.4901
20.3744
20.3744
20.2288
20.2288
20.0539
20.0539
19.8506
19.8506
19.62
19.62
19.3631
19.3631
19.0808
19.0808
18.7745
18.7745
18.4451
18.4451
18.0937
18.0937
17.7214
17.7214
17.3293
17.3293
16.9185
16.9185
16.4897
16.4897
16.0437
16.0437
15.5813
15.5813
15.1031
15.1031
14.6095
14.6095
14.1009
14.1009
13.5775
13.5775
13.0394
13.0394
12.4864
12.4864
11.9181
11.9181
11.334
11.334
10.7331
10.7331
10.114
10.114
9.47519
9.47519
8.81415
8.81415
8.12783
8.12783
7.41216
7.41216
6.66175
6.66175
5.86959
5.86959
5.0268
5.0268
4.12372
4.12372
3.15579
3.15579
2.14617
2.14617
1.19815
1.19815
0.499523
0.499523
0.139016
0.139016
0.0194891
0.0194891
0.000965562
0.000965561
)
;

boundaryField
{
    walls
    {
        type            kqRWallFunction;
        value           nonuniform List<scalar> 8(0.00096548 0.00096548 0.00096548 0.00096548 0.000965562 0.000965562 0.000965562 0.000965561);
    }
    inlet
    {
        type            cyclic;
    }
    outlet
    {
        type            cyclic;
    }
    sides
    {
        type            empty;
    }
}


// ************************************************************************* //
