/*--------------------------------*- C++ -*----------------------------------*\
| =========                 |                                                 |
| \\      /  F ield         | OpenFOAM: The Open Source CFD Toolbox           |
|  \\    /   O peration     | Version:  2012                                  |
|   \\  /    A nd           | Website:  www.openfoam.com                      |
|    \\/     M anipulation  |                                                 |
\*---------------------------------------------------------------------------*/
FoamFile
{
    version     2.0;
    format      ascii;
    class       volScalarField;
    location    "11200";
    object      nut;
}
// * * * * * * * * * * * * * * * * * * * * * * * * * * * * * * * * * * * * * //

dimensions      [0 2 -1 0 0 0 0];


internalField   nonuniform List<scalar> 
2560
(
6.33453e-10
6.33453e-10
7.35104e-08
7.35104e-08
1.55193e-06
1.55193e-06
1.19709e-05
1.19709e-05
5.14246e-05
5.14246e-05
0.000143769
0.000143769
0.000294069
0.000294069
0.000490927
0.000490927
0.000721393
0.000721393
0.000976007
0.000976007
0.00124839
0.00124839
0.00153415
0.00153415
0.0018302
0.0018302
0.0021342
0.0021342
0.0024444
0.0024444
0.00275937
0.00275937
0.00307798
0.00307798
0.00339927
0.00339927
0.00372242
0.00372242
0.00404673
0.00404673
0.00437159
0.00437159
0.00469642
0.00469642
0.00502072
0.00502072
0.00534403
0.00534403
0.0056659
0.0056659
0.00598592
0.00598592
0.0063037
0.0063037
0.00661886
0.00661886
0.00693104
0.00693104
0.00723986
0.00723986
0.00754499
0.00754499
0.00784608
0.00784608
0.0081428
0.0081428
0.0084348
0.0084348
0.00872177
0.00872177
0.00900338
0.00900338
0.00927932
0.00927932
0.0095493
0.0095493
0.00981301
0.00981301
0.0100702
0.0100702
0.0103206
0.0103206
0.0105639
0.0105639
0.0108
0.0108
0.0110287
0.0110287
0.0112497
0.0112497
0.0114631
0.0114631
0.0116688
0.0116688
0.0118667
0.0118667
0.0120569
0.0120569
0.0122396
0.0122396
0.0124149
0.0124149
0.0125831
0.0125831
0.0127447
0.0127447
0.0129002
0.0129002
0.01305
0.01305
0.0131951
0.0131951
0.0133363
0.0133363
0.0134746
0.0134746
0.0136111
0.0136111
0.0137472
0.0137472
0.0138842
0.0138842
0.0140238
0.0140238
0.0141676
0.0141676
0.0143173
0.0143173
0.0144748
0.0144748
0.0146418
0.0146418
0.01482
0.01482
0.0150112
0.0150112
0.0152167
0.0152167
0.0154379
0.0154379
0.0156757
0.0156757
0.0159308
0.0159308
0.0162035
0.0162035
0.0164937
0.0164937
0.0168009
0.0168009
0.0171243
0.0171243
0.0174628
0.0174628
0.0178148
0.0178148
0.0181788
0.0181788
0.0185528
0.0185528
0.0189349
0.0189349
0.019323
0.019323
0.0197152
0.0197152
0.0201095
0.0201095
0.020504
0.020504
0.020897
0.020897
0.0212868
0.0212868
0.0216721
0.0216721
0.0220515
0.0220515
0.022424
0.022424
0.0227886
0.0227886
0.0231445
0.0231445
0.0234911
0.0234911
0.023828
0.023828
0.0241547
0.0241547
0.0244709
0.0244709
0.0247766
0.0247766
0.0250715
0.0250715
0.0253558
0.0253558
0.0256294
0.0256294
0.0258925
0.0258925
0.0261452
0.0261452
0.0263877
0.0263877
0.0266201
0.0266201
0.0268428
0.0268428
0.0270559
0.0270559
0.0272597
0.0272597
0.0274544
0.0274544
0.0276404
0.0276404
0.0278178
0.0278178
0.027987
0.027987
0.0281482
0.0281482
0.0283016
0.0283016
0.0284475
0.0284475
0.0285861
0.0285861
0.0287177
0.0287177
0.0288425
0.0288425
0.0289607
0.0289607
0.0290724
0.0290724
0.029178
0.029178
0.0292775
0.0292775
0.0293712
0.0293712
0.0294592
0.0294592
0.0295417
0.0295417
0.0296187
0.0296187
0.0296905
0.0296905
0.0297572
0.0297572
0.0298188
0.0298188
0.0298755
0.0298755
0.0299273
0.0299273
0.0299744
0.0299744
0.0300169
0.0300169
0.0300547
0.0300547
0.030088
0.030088
0.0301169
0.0301169
0.0301413
0.0301413
0.0301615
0.0301615
0.0301773
0.0301773
0.030189
0.030189
0.0301965
0.0301965
0.0301998
0.0301998
0.0301991
0.0301991
0.0301944
0.0301944
0.0301858
0.0301858
0.0301732
0.0301732
0.0301568
0.0301568
0.0301366
0.0301366
0.0301126
0.0301126
0.030085
0.030085
0.0300539
0.0300539
0.0300192
0.0300192
0.0299812
0.0299812
0.02994
0.02994
0.0298956
0.0298956
0.0298482
0.0298482
0.029798
0.029798
0.0297452
0.0297452
0.0296899
0.0296899
0.0296323
0.0296323
0.0295727
0.0295727
0.0295112
0.0295112
0.0294481
0.0294481
0.0293834
0.0293834
0.0293175
0.0293175
0.0292504
0.0292504
0.0291823
0.0291823
0.0291133
0.0291133
0.0290434
0.0290434
0.0289727
0.0289727
0.0289012
0.0289012
0.0288289
0.0288289
0.0287558
0.0287558
0.028682
0.028682
0.0286074
0.0286074
0.0285321
0.0285321
0.0284563
0.0284563
0.02838
0.02838
0.0283035
0.0283035
0.0282268
0.0282268
0.0281503
0.0281503
0.028074
0.028074
0.0279984
0.0279984
0.0279235
0.0279235
0.0278496
0.0278496
0.027777
0.027777
0.027706
0.027706
0.0276366
0.0276366
0.0275691
0.0275691
0.0275038
0.0275038
0.0274409
0.0274409
0.0273807
0.0273807
0.0273236
0.0273236
0.0272699
0.0272699
0.02722
0.02722
0.0271744
0.0271744
0.0271337
0.0271337
0.0270985
0.0270985
0.0270694
0.0270694
0.027047
0.027047
0.027032
0.027032
0.0270252
0.0270252
0.0270271
0.0270271
0.0270386
0.0270386
0.0270601
0.0270601
0.0270923
0.0270923
0.0271355
0.0271355
0.0271901
0.0271901
0.0272565
0.0272565
0.0273348
0.0273348
0.0274251
0.0274251
0.0275277
0.0275277
0.0276426
0.0276426
0.0277699
0.0277699
0.0279096
0.0279096
0.0280615
0.0280615
0.0282252
0.0282252
0.0284003
0.0284003
0.0285858
0.0285858
0.028781
0.028781
0.0289845
0.0289845
0.0291948
0.0291948
0.0294106
0.0294106
0.0296304
0.0296304
0.0298533
0.0298533
0.0300784
0.0300784
0.0303055
0.0303055
0.0305346
0.0305346
0.0307656
0.0307656
0.0309984
0.0309984
0.0312322
0.0312322
0.031466
0.031466
0.0316986
0.0316986
0.0319289
0.0319289
0.032156
0.032156
0.0323793
0.0323793
0.0325987
0.0325987
0.0328141
0.0328141
0.0330261
0.0330261
0.0332359
0.0332359
0.0334451
0.0334451
0.0336556
0.0336556
0.0338694
0.0338694
0.0340878
0.0340878
0.0343112
0.0343112
0.0345391
0.0345391
0.0347696
0.0347696
0.0349999
0.0349999
0.0352256
0.0352256
0.0354417
0.0354417
0.0356428
0.0356428
0.0358257
0.0358257
0.0359897
0.0359897
0.0361374
0.0361374
0.036274
0.036274
0.0364061
0.0364061
0.036541
0.036541
0.0366839
0.0366839
0.0368379
0.0368379
0.0370038
0.0370038
0.0371814
0.0371814
0.0373715
0.0373715
0.0375771
0.0375771
0.0378028
0.0378028
0.0380538
0.0380538
0.0383344
0.0383344
0.0386464
0.0386464
0.0389903
0.0389903
0.0393655
0.0393655
0.0397716
0.0397716
0.0402086
0.0402086
0.0406773
0.0406773
0.0411794
0.0411794
0.0417168
0.0417168
0.0422905
0.0422905
0.0429001
0.0429001
0.0435417
0.0435417
0.0442091
0.0442091
0.0448932
0.0448932
0.0455821
0.0455821
0.0462634
0.0462634
0.0469257
0.0469257
0.0475586
0.0475586
0.0481494
0.0481494
0.048681
0.048681
0.0491351
0.0491351
0.0494981
0.0494981
0.0497663
0.0497663
0.0499448
0.0499448
0.0500457
0.0500457
0.0500896
0.0500896
0.0501065
0.0501064
0.050126
0.050126
0.0501664
0.0501664
0.0502298
0.0502298
0.0503161
0.0503161
0.0504282
0.0504282
0.0505674
0.0505674
0.0507323
0.0507323
0.0509224
0.0509224
0.0511403
0.0511403
0.0513893
0.0513893
0.0516694
0.0516694
0.0519746
0.0519746
0.0522968
0.0522968
0.0526236
0.0526236
0.0529308
0.0529308
0.0531838
0.0531838
0.0533507
0.0533507
0.0534183
0.0534183
0.0533993
0.0533993
0.0533216
0.0533216
0.0532096
0.0532097
0.0530781
0.0530781
0.0529391
0.0529392
0.0528072
0.0528073
0.0526932
0.0526933
0.052601
0.0526011
0.0525292
0.0525293
0.0524755
0.0524757
0.0524446
0.0524448
6.33453e-10
6.33453e-10
7.35104e-08
7.35104e-08
1.55193e-06
1.55193e-06
1.19709e-05
1.19709e-05
5.14246e-05
5.14246e-05
0.000143769
0.000143769
0.000294069
0.000294069
0.000490927
0.000490927
0.000721393
0.000721393
0.000976007
0.000976007
0.00124839
0.00124839
0.00153415
0.00153415
0.0018302
0.0018302
0.0021342
0.0021342
0.0024444
0.0024444
0.00275937
0.00275937
0.00307798
0.00307798
0.00339927
0.00339927
0.00372242
0.00372242
0.00404673
0.00404673
0.00437159
0.00437159
0.00469642
0.00469642
0.00502072
0.00502072
0.00534403
0.00534403
0.0056659
0.0056659
0.00598592
0.00598592
0.0063037
0.0063037
0.00661886
0.00661886
0.00693104
0.00693104
0.00723986
0.00723986
0.00754499
0.00754499
0.00784608
0.00784608
0.0081428
0.0081428
0.0084348
0.0084348
0.00872177
0.00872177
0.00900338
0.00900338
0.00927932
0.00927932
0.0095493
0.0095493
0.00981301
0.00981301
0.0100702
0.0100702
0.0103206
0.0103206
0.0105639
0.0105639
0.0108
0.0108
0.0110287
0.0110287
0.0112497
0.0112497
0.0114631
0.0114631
0.0116688
0.0116688
0.0118667
0.0118667
0.0120569
0.0120569
0.0122396
0.0122396
0.0124149
0.0124149
0.0125831
0.0125831
0.0127447
0.0127447
0.0129002
0.0129002
0.01305
0.01305
0.0131951
0.0131951
0.0133363
0.0133363
0.0134746
0.0134746
0.0136111
0.0136111
0.0137472
0.0137472
0.0138842
0.0138842
0.0140238
0.0140238
0.0141676
0.0141676
0.0143173
0.0143173
0.0144748
0.0144748
0.0146418
0.0146418
0.01482
0.01482
0.0150112
0.0150112
0.0152167
0.0152167
0.0154379
0.0154379
0.0156757
0.0156757
0.0159308
0.0159308
0.0162035
0.0162035
0.0164936
0.0164936
0.0168009
0.0168009
0.0171243
0.0171243
0.0174627
0.0174627
0.0178148
0.0178148
0.0181788
0.0181788
0.0185528
0.0185528
0.0189349
0.0189349
0.019323
0.019323
0.0197152
0.0197152
0.0201095
0.0201095
0.020504
0.020504
0.020897
0.020897
0.0212868
0.0212868
0.0216721
0.0216721
0.0220515
0.0220515
0.022424
0.022424
0.0227886
0.0227886
0.0231445
0.0231445
0.0234911
0.0234911
0.023828
0.023828
0.0241547
0.0241547
0.0244709
0.0244709
0.0247766
0.0247766
0.0250715
0.0250715
0.0253558
0.0253558
0.0256294
0.0256294
0.0258925
0.0258925
0.0261452
0.0261452
0.0263877
0.0263877
0.0266201
0.0266201
0.0268428
0.0268428
0.0270559
0.0270559
0.0272597
0.0272597
0.0274544
0.0274544
0.0276404
0.0276404
0.0278178
0.0278178
0.027987
0.027987
0.0281482
0.0281482
0.0283016
0.0283016
0.0284475
0.0284475
0.0285861
0.0285861
0.0287177
0.0287177
0.0288425
0.0288425
0.0289607
0.0289607
0.0290724
0.0290724
0.029178
0.029178
0.0292775
0.0292775
0.0293712
0.0293712
0.0294592
0.0294592
0.0295417
0.0295417
0.0296187
0.0296187
0.0296905
0.0296905
0.0297572
0.0297572
0.0298188
0.0298188
0.0298755
0.0298755
0.0299273
0.0299273
0.0299744
0.0299744
0.0300169
0.0300169
0.0300547
0.0300547
0.030088
0.030088
0.0301168
0.0301168
0.0301413
0.0301413
0.0301614
0.0301614
0.0301773
0.0301773
0.030189
0.030189
0.0301965
0.0301965
0.0301998
0.0301998
0.0301991
0.0301991
0.0301944
0.0301944
0.0301858
0.0301858
0.0301732
0.0301732
0.0301568
0.0301568
0.0301366
0.0301366
0.0301126
0.0301126
0.030085
0.030085
0.0300539
0.0300539
0.0300192
0.0300192
0.0299812
0.0299812
0.02994
0.02994
0.0298956
0.0298956
0.0298482
0.0298482
0.029798
0.029798
0.0297452
0.0297452
0.0296899
0.0296899
0.0296323
0.0296323
0.0295727
0.0295727
0.0295112
0.0295112
0.029448
0.029448
0.0293834
0.0293834
0.0293175
0.0293175
0.0292504
0.0292504
0.0291823
0.0291823
0.0291133
0.0291133
0.0290434
0.0290434
0.0289727
0.0289727
0.0289012
0.0289012
0.0288289
0.0288289
0.0287558
0.0287558
0.028682
0.028682
0.0286074
0.0286074
0.0285321
0.0285321
0.0284563
0.0284563
0.02838
0.02838
0.0283035
0.0283035
0.0282268
0.0282268
0.0281503
0.0281503
0.028074
0.028074
0.0279983
0.0279983
0.0279235
0.0279235
0.0278496
0.0278496
0.027777
0.027777
0.0277059
0.0277059
0.0276365
0.0276365
0.0275691
0.0275691
0.0275038
0.0275038
0.0274409
0.0274409
0.0273807
0.0273807
0.0273236
0.0273236
0.0272698
0.0272698
0.0272199
0.0272199
0.0271744
0.0271744
0.0271337
0.0271337
0.0270985
0.0270985
0.0270693
0.0270693
0.0270469
0.0270469
0.027032
0.027032
0.0270251
0.0270251
0.0270271
0.0270271
0.0270385
0.0270385
0.02706
0.02706
0.0270922
0.0270922
0.0271354
0.0271354
0.02719
0.02719
0.0272564
0.0272564
0.0273347
0.0273347
0.027425
0.027425
0.0275276
0.0275276
0.0276425
0.0276425
0.0277698
0.0277698
0.0279094
0.0279094
0.0280613
0.0280613
0.028225
0.028225
0.0284001
0.0284001
0.0285857
0.0285857
0.0287808
0.0287808
0.0289843
0.0289843
0.0291946
0.0291946
0.0294104
0.0294104
0.0296302
0.0296302
0.029853
0.029853
0.0300781
0.0300781
0.0303052
0.0303052
0.0305343
0.0305343
0.0307654
0.0307654
0.0309981
0.0309981
0.0312319
0.0312319
0.0314658
0.0314658
0.0316984
0.0316984
0.0319287
0.0319287
0.0321558
0.0321558
0.0323791
0.0323791
0.0325985
0.0325984
0.0328139
0.0328139
0.0330259
0.0330259
0.0332357
0.0332357
0.0334449
0.0334449
0.0336554
0.0336554
0.0338692
0.0338692
0.0340876
0.0340876
0.034311
0.034311
0.0345389
0.0345389
0.0347694
0.0347694
0.0349997
0.0349997
0.0352255
0.0352255
0.0354416
0.0354416
0.0356428
0.0356428
0.0358257
0.0358257
0.0359898
0.0359898
0.0361375
0.0361375
0.0362741
0.0362741
0.0364063
0.0364063
0.0365412
0.0365412
0.0366841
0.0366841
0.0368381
0.0368381
0.037004
0.037004
0.0371816
0.0371816
0.0373717
0.0373717
0.0375772
0.0375772
0.0378029
0.0378029
0.0380539
0.0380539
0.0383344
0.0383344
0.0386464
0.0386464
0.0389902
0.0389902
0.0393654
0.0393653
0.0397714
0.0397713
0.0402083
0.0402083
0.040677
0.0406769
0.041179
0.0411789
0.0417162
0.0417162
0.0422898
0.0422897
0.0428992
0.0428991
0.0435406
0.0435405
0.0442078
0.0442078
0.0448917
0.0448917
0.0455806
0.0455805
0.0462618
0.0462617
0.0469242
0.0469241
0.0475572
0.0475572
0.0481482
0.0481481
0.0486801
0.04868
0.0491345
0.0491345
0.049498
0.0494979
0.0497666
0.0497665
0.0499455
0.0499454
0.0500466
0.0500466
0.0500906
0.0500906
0.0501073
0.0501073
0.0501266
0.0501266
0.0501669
0.0501669
0.0502301
0.0502301
0.0503162
0.0503162
0.0504282
0.0504282
0.0505674
0.0505673
0.0507321
0.0507321
0.050922
0.050922
0.0511397
0.0511396
0.0513884
0.0513884
0.0516682
0.0516681
0.051973
0.0519729
0.0522949
0.0522948
0.0526215
0.0526214
0.0529287
0.0529286
0.053182
0.053182
0.0533495
0.0533495
0.0534178
0.0534178
0.0533995
0.0533995
0.0533222
0.0533222
0.0532105
0.0532105
0.053079
0.053079
0.0529399
0.0529399
0.0528079
0.0528079
0.0526937
0.0526937
0.0526013
0.0526013
0.0525294
0.0525294
0.0524757
0.0524757
0.0524447
0.0524447
0.0524439
0.052444
0.0524732
0.0524734
0.0525253
0.0525254
0.0525946
0.0525947
0.0526844
0.0526845
0.0527958
0.0527959
0.0529248
0.0529248
0.053061
0.053061
0.0531886
0.0531887
0.0532939
0.0532939
0.0533645
0.0533645
0.0533779
0.0533779
0.0533064
0.0533064
0.0531378
0.0531378
0.0528869
0.0528869
0.052585
0.052585
0.0522642
0.0522642
0.0519475
0.0519475
0.0516475
0.0516475
0.0513725
0.0513724
0.0511286
0.0511286
0.0509157
0.0509157
0.0507302
0.0507302
0.0505699
0.0505699
0.0504353
0.0504353
0.0503276
0.0503276
0.0502455
0.0502455
0.0501862
0.0501862
0.0501496
0.0501496
0.0501337
0.0501337
0.0501207
0.0501207
0.0500801
0.0500801
0.0499806
0.0499806
0.0498014
0.0498014
0.0495305
0.0495305
0.049163
0.049163
0.048705
0.048705
0.0481707
0.0481707
0.0475784
0.0475783
0.0469446
0.0469445
0.0462815
0.0462815
0.0455995
0.0455995
0.0449099
0.0449099
0.044225
0.044225
0.0435566
0.0435566
0.0429142
0.0429142
0.0423038
0.0423038
0.0417293
0.0417293
0.0411912
0.0411912
0.0406883
0.0406883
0.0402186
0.0402186
0.0397806
0.0397806
0.0393736
0.0393736
0.0389975
0.0389975
0.0386526
0.0386526
0.0383395
0.0383395
0.038058
0.038058
0.0378059
0.0378059
0.0375793
0.0375793
0.0373732
0.0373732
0.0371827
0.0371827
0.0370045
0.0370045
0.0368378
0.0368378
0.0366828
0.0366828
0.0365387
0.0365387
0.0364026
0.0364026
0.0362696
0.0362696
0.0361326
0.0361326
0.0359844
0.0359844
0.0358195
0.0358195
0.0356356
0.0356356
0.0354337
0.0354337
0.0352174
0.0352174
0.0349919
0.0349919
0.0347622
0.0347622
0.0345328
0.0345328
0.0343062
0.0343062
0.0340838
0.0340838
0.0338661
0.0338661
0.0336526
0.0336526
0.0334419
0.0334419
0.0332324
0.0332324
0.0330223
0.0330223
0.0328099
0.0328099
0.0325943
0.0325943
0.0323747
0.0323747
0.0321513
0.0321513
0.0319244
0.0319244
0.0316942
0.0316942
0.0314618
0.0314618
0.0312283
0.0312283
0.030995
0.030995
0.0307629
0.0307629
0.0305327
0.0305327
0.0303044
0.0303044
0.030078
0.030078
0.0298533
0.0298533
0.0296308
0.0296308
0.0294113
0.0294113
0.0291956
0.0291956
0.0289855
0.0289855
0.0287823
0.0287823
0.0285873
0.0285873
0.0284018
0.0284018
0.0282268
0.0282268
0.0280629
0.0280629
0.0279108
0.0279108
0.0277709
0.0277709
0.0276434
0.0276434
0.0275283
0.0275283
0.0274256
0.0274256
0.0273353
0.0273353
0.027257
0.027257
0.0271907
0.0271907
0.0271361
0.0271361
0.0270929
0.0270929
0.0270609
0.0270609
0.0270394
0.0270394
0.0270281
0.0270281
0.0270262
0.0270262
0.0270331
0.0270331
0.027048
0.027048
0.0270705
0.0270705
0.0270996
0.0270996
0.0271349
0.0271349
0.0271756
0.0271756
0.0272211
0.0272211
0.027271
0.027271
0.0273248
0.0273248
0.027382
0.027382
0.0274422
0.0274422
0.0275051
0.0275051
0.0275704
0.0275704
0.0276378
0.0276378
0.0277072
0.0277072
0.0277783
0.0277783
0.0278508
0.0278508
0.0279247
0.0279247
0.0279995
0.0279995
0.0280752
0.0280752
0.0281515
0.0281515
0.028228
0.028228
0.0283047
0.0283047
0.0283813
0.0283813
0.0284576
0.0284576
0.0285334
0.0285334
0.0286087
0.0286087
0.0286833
0.0286833
0.0287571
0.0287571
0.0288302
0.0288302
0.0289026
0.0289026
0.0289741
0.0289741
0.0290449
0.0290449
0.0291148
0.0291148
0.0291838
0.0291838
0.029252
0.029252
0.029319
0.029319
0.029385
0.029385
0.0294496
0.0294496
0.0295128
0.0295128
0.0295743
0.0295743
0.0296339
0.0296339
0.0296915
0.0296915
0.0297468
0.0297468
0.0297997
0.0297997
0.0298498
0.0298498
0.0298972
0.0298972
0.0299416
0.0299416
0.0299829
0.0299829
0.0300209
0.0300209
0.0300556
0.0300556
0.0300867
0.0300867
0.0301144
0.0301144
0.0301383
0.0301383
0.0301586
0.0301586
0.030175
0.030175
0.0301877
0.0301877
0.0301964
0.0301964
0.0302012
0.0302012
0.0302019
0.0302019
0.0301986
0.0301986
0.0301912
0.0301912
0.0301796
0.0301796
0.0301638
0.0301638
0.0301438
0.0301438
0.0301193
0.0301193
0.0300905
0.0300905
0.0300572
0.0300572
0.0300195
0.0300195
0.0299771
0.0299771
0.02993
0.02993
0.0298782
0.0298782
0.0298216
0.0298216
0.02976
0.02976
0.0296934
0.0296934
0.0296217
0.0296217
0.0295446
0.0295446
0.0294621
0.0294621
0.0293741
0.0293741
0.0292804
0.0292804
0.0291808
0.0291808
0.0290752
0.0290752
0.0289634
0.0289634
0.0288451
0.0288451
0.0287202
0.0287202
0.0285885
0.0285885
0.0284497
0.0284497
0.0283038
0.0283038
0.0281503
0.0281503
0.0279892
0.0279892
0.02782
0.02782
0.0276425
0.0276425
0.0274566
0.0274566
0.0272619
0.0272619
0.0270581
0.0270581
0.026845
0.026845
0.0266223
0.0266223
0.0263898
0.0263898
0.0261474
0.0261474
0.0258947
0.0258947
0.0256316
0.0256316
0.0253581
0.0253581
0.0250739
0.0250739
0.024779
0.024779
0.0244735
0.0244735
0.0241573
0.0241573
0.0238305
0.0238305
0.0234936
0.0234936
0.0231467
0.0231467
0.0227904
0.0227904
0.0224254
0.0224254
0.0220527
0.0220527
0.0216731
0.0216731
0.0212877
0.0212877
0.0208977
0.0208977
0.0205046
0.0205046
0.0201099
0.0201099
0.0197154
0.0197154
0.019323
0.019323
0.0189346
0.0189346
0.0185522
0.0185522
0.018178
0.018178
0.0178139
0.0178139
0.0174616
0.0174616
0.017123
0.017123
0.0167995
0.0167995
0.0164922
0.0164922
0.0162019
0.0162019
0.0159291
0.0159291
0.0156739
0.0156739
0.015436
0.015436
0.0152147
0.0152147
0.0150091
0.0150091
0.0148179
0.0148179
0.0146395
0.0146395
0.0144725
0.0144725
0.014315
0.014315
0.0141653
0.0141653
0.0140214
0.0140214
0.0138818
0.0138818
0.0137447
0.0137447
0.0136086
0.0136086
0.0134721
0.0134721
0.0133338
0.0133338
0.0131927
0.0131927
0.0130477
0.0130477
0.0128979
0.0128979
0.0127426
0.0127426
0.0125812
0.0125812
0.012413
0.012413
0.0122378
0.0122378
0.0120552
0.0120552
0.0118651
0.0118651
0.0116673
0.0116673
0.0114618
0.0114618
0.0112485
0.0112485
0.0110275
0.0110275
0.010799
0.010799
0.010563
0.010563
0.0103197
0.0103197
0.0100695
0.0100695
0.00981236
0.00981236
0.00954871
0.00954871
0.0092788
0.0092788
0.00900291
0.00900291
0.00872134
0.00872134
0.00843441
0.00843441
0.00814245
0.00814245
0.00784576
0.00784576
0.00754469
0.00754469
0.00723958
0.00723958
0.00693079
0.00693079
0.00661866
0.00661866
0.00630354
0.00630354
0.00598579
0.00598579
0.0056658
0.0056658
0.00534396
0.00534396
0.00502067
0.00502067
0.00469639
0.00469639
0.00437157
0.00437157
0.00404673
0.00404673
0.00372242
0.00372242
0.00339928
0.00339928
0.00307799
0.00307799
0.00275939
0.00275939
0.00244442
0.00244442
0.00213423
0.00213423
0.00183023
0.00183023
0.00153418
0.00153418
0.00124841
0.00124841
0.000976034
0.000976034
0.000721418
0.000721418
0.000490948
0.000490948
0.000294084
0.000294084
0.000143778
0.000143778
5.14284e-05
5.14284e-05
1.19719e-05
1.19719e-05
1.55205e-06
1.55205e-06
7.35161e-08
7.35161e-08
6.33503e-10
6.33503e-10
0.052444
0.0524439
0.0524734
0.0524734
0.0525255
0.0525255
0.052595
0.052595
0.0526849
0.0526848
0.0527965
0.0527965
0.0529256
0.0529256
0.0530618
0.0530618
0.0531894
0.0531895
0.0532944
0.0532944
0.0533646
0.0533646
0.0533774
0.0533774
0.0533052
0.0533052
0.0531361
0.053136
0.0528849
0.0528848
0.0525829
0.0525828
0.0522623
0.0522622
0.0519459
0.0519458
0.0516463
0.0516462
0.0513716
0.0513715
0.051128
0.051128
0.0509154
0.0509153
0.0507301
0.05073
0.0505699
0.0505699
0.0504354
0.0504354
0.0503278
0.0503278
0.0502458
0.0502458
0.0501867
0.0501867
0.0501503
0.0501503
0.0501346
0.0501346
0.0501217
0.0501217
0.050081
0.050081
0.0499812
0.0499812
0.0498017
0.0498016
0.0495304
0.0495303
0.0491625
0.0491624
0.0487041
0.048704
0.0481695
0.0481694
0.047577
0.0475769
0.046943
0.046943
0.0462799
0.0462798
0.045598
0.0455979
0.0449084
0.0449084
0.0442237
0.0442236
0.0435555
0.0435555
0.0429132
0.0429132
0.042303
0.042303
0.0417287
0.0417287
0.0411907
0.0411907
0.0406879
0.0406879
0.0402183
0.0402183
0.0397804
0.0397804
0.0393735
0.0393734
0.0389974
0.0389974
0.0386526
0.0386526
0.0383395
0.0383395
0.038058
0.038058
0.0378061
0.0378061
0.0375795
0.0375795
0.0373734
0.0373734
0.0371829
0.0371829
0.0370047
0.0370047
0.036838
0.036838
0.036683
0.036683
0.0365389
0.0365389
0.0364028
0.0364028
0.0362697
0.0362697
0.0361327
0.0361326
0.0359844
0.0359844
0.0358196
0.0358195
0.0356356
0.0356356
0.0354336
0.0354336
0.0352173
0.0352173
0.0349917
0.0349917
0.0347621
0.0347621
0.0345326
0.0345326
0.034306
0.034306
0.0340837
0.0340837
0.033866
0.033866
0.0336524
0.0336524
0.0334417
0.0334417
0.0332322
0.0332322
0.0330221
0.0330221
0.0328097
0.0328097
0.0325941
0.0325941
0.0323745
0.0323745
0.0321511
0.0321511
0.0319242
0.0319242
0.031694
0.031694
0.0314615
0.0314615
0.0312281
0.0312281
0.0309948
0.0309948
0.0307627
0.0307627
0.0305324
0.0305324
0.0303042
0.0303042
0.0300777
0.0300777
0.0298531
0.0298531
0.0296306
0.0296306
0.029411
0.029411
0.0291954
0.0291954
0.0289853
0.0289853
0.0287821
0.0287821
0.0285871
0.0285871
0.0284016
0.0284016
0.0282266
0.0282266
0.0280627
0.0280627
0.0279106
0.0279106
0.0277708
0.0277708
0.0276432
0.0276432
0.0275282
0.0275282
0.0274255
0.0274255
0.0273351
0.0273351
0.0272569
0.0272569
0.0271906
0.0271906
0.027136
0.027136
0.0270928
0.0270928
0.0270608
0.0270608
0.0270394
0.0270394
0.027028
0.027028
0.0270261
0.0270261
0.027033
0.027033
0.027048
0.027048
0.0270704
0.0270704
0.0270996
0.0270996
0.0271348
0.0271348
0.0271755
0.0271755
0.0272211
0.0272211
0.027271
0.027271
0.0273248
0.0273248
0.0273819
0.0273819
0.0274422
0.0274422
0.0275051
0.0275051
0.0275704
0.0275704
0.0276378
0.0276378
0.0277072
0.0277072
0.0277782
0.0277782
0.0278508
0.0278508
0.0279246
0.0279246
0.0279995
0.0279995
0.0280752
0.0280752
0.0281515
0.0281515
0.028228
0.028228
0.0283047
0.0283047
0.0283813
0.0283813
0.0284576
0.0284576
0.0285334
0.0285334
0.0286087
0.0286087
0.0286833
0.0286833
0.0287571
0.0287571
0.0288302
0.0288302
0.0289025
0.0289025
0.0289741
0.0289741
0.0290448
0.0290448
0.0291148
0.0291148
0.0291838
0.0291838
0.0292519
0.0292519
0.029319
0.029319
0.029385
0.029385
0.0294496
0.0294496
0.0295128
0.0295128
0.0295743
0.0295743
0.0296339
0.0296339
0.0296915
0.0296915
0.0297468
0.0297468
0.0297996
0.0297996
0.0298498
0.0298498
0.0298972
0.0298972
0.0299416
0.0299416
0.0299829
0.0299829
0.0300209
0.0300209
0.0300556
0.0300556
0.0300867
0.0300867
0.0301144
0.0301144
0.0301383
0.0301383
0.0301586
0.0301586
0.030175
0.030175
0.0301877
0.0301877
0.0301964
0.0301964
0.0302011
0.0302011
0.0302019
0.0302019
0.0301986
0.0301986
0.0301912
0.0301912
0.0301796
0.0301796
0.0301638
0.0301638
0.0301438
0.0301438
0.0301193
0.0301193
0.0300905
0.0300905
0.0300572
0.0300572
0.0300194
0.0300194
0.0299771
0.0299771
0.02993
0.02993
0.0298782
0.0298782
0.0298216
0.0298216
0.02976
0.02976
0.0296934
0.0296934
0.0296216
0.0296216
0.0295446
0.0295446
0.0294621
0.0294621
0.0293741
0.0293741
0.0292804
0.0292804
0.0291808
0.0291808
0.0290752
0.0290752
0.0289634
0.0289634
0.0288451
0.0288451
0.0287202
0.0287202
0.0285885
0.0285885
0.0284497
0.0284497
0.0283038
0.0283038
0.0281503
0.0281503
0.0279892
0.0279892
0.02782
0.02782
0.0276425
0.0276425
0.0274566
0.0274566
0.0272618
0.0272618
0.0270581
0.0270581
0.026845
0.026845
0.0266223
0.0266223
0.0263898
0.0263898
0.0261474
0.0261474
0.0258947
0.0258947
0.0256316
0.0256316
0.0253581
0.0253581
0.0250739
0.0250739
0.024779
0.024779
0.0244734
0.0244734
0.0241572
0.0241572
0.0238305
0.0238305
0.0234936
0.0234936
0.0231467
0.0231467
0.0227904
0.0227904
0.0224254
0.0224254
0.0220526
0.0220526
0.0216731
0.0216731
0.0212877
0.0212877
0.0208977
0.0208977
0.0205046
0.0205046
0.0201099
0.0201099
0.0197154
0.0197154
0.019323
0.019323
0.0189346
0.0189346
0.0185522
0.0185522
0.018178
0.018178
0.0178139
0.0178139
0.0174616
0.0174616
0.017123
0.017123
0.0167995
0.0167995
0.0164922
0.0164922
0.0162019
0.0162019
0.0159291
0.0159291
0.0156739
0.0156739
0.015436
0.015436
0.0152147
0.0152147
0.0150091
0.0150091
0.0148179
0.0148179
0.0146395
0.0146395
0.0144725
0.0144725
0.014315
0.014315
0.0141653
0.0141653
0.0140214
0.0140214
0.0138818
0.0138818
0.0137447
0.0137447
0.0136086
0.0136086
0.0134721
0.0134721
0.0133338
0.0133338
0.0131927
0.0131927
0.0130477
0.0130477
0.0128979
0.0128979
0.0127426
0.0127426
0.0125812
0.0125812
0.012413
0.012413
0.0122378
0.0122378
0.0120552
0.0120552
0.0118651
0.0118651
0.0116673
0.0116673
0.0114618
0.0114618
0.0112485
0.0112485
0.0110275
0.0110275
0.010799
0.010799
0.010563
0.010563
0.0103197
0.0103197
0.0100695
0.0100695
0.00981237
0.00981237
0.00954872
0.00954872
0.0092788
0.0092788
0.00900291
0.00900291
0.00872134
0.00872134
0.00843442
0.00843442
0.00814245
0.00814245
0.00784576
0.00784576
0.00754469
0.00754469
0.00723958
0.00723958
0.00693079
0.00693079
0.00661866
0.00661866
0.00630354
0.00630354
0.00598579
0.00598579
0.0056658
0.0056658
0.00534396
0.00534396
0.00502067
0.00502067
0.00469639
0.00469639
0.00437157
0.00437157
0.00404673
0.00404673
0.00372242
0.00372242
0.00339928
0.00339928
0.00307799
0.00307799
0.00275939
0.00275939
0.00244442
0.00244442
0.00213423
0.00213423
0.00183023
0.00183023
0.00153418
0.00153418
0.00124841
0.00124841
0.000976034
0.000976034
0.000721418
0.000721418
0.000490948
0.000490948
0.000294083
0.000294083
0.000143778
0.000143778
5.14284e-05
5.14284e-05
1.19718e-05
1.19718e-05
1.55205e-06
1.55205e-06
7.35161e-08
7.35161e-08
6.33502e-10
6.33502e-10
)
;

boundaryField
{
    walls
    {
        type            nutUWallFunction;
        blending        stepwise;
        Cmu             0.09;
        kappa           0.41;
        E               9.8;
        value           uniform 0;
    }
    inlet
    {
        type            cyclic;
    }
    outlet
    {
        type            cyclic;
    }
    sides
    {
        type            empty;
    }
}


// ************************************************************************* //
