/*--------------------------------*- C++ -*----------------------------------*\
| =========                 |                                                 |
| \\      /  F ield         | OpenFOAM: The Open Source CFD Toolbox           |
|  \\    /   O peration     | Version:  2012                                  |
|   \\  /    A nd           | Website:  www.openfoam.com                      |
|    \\/     M anipulation  |                                                 |
\*---------------------------------------------------------------------------*/
FoamFile
{
    version     2.0;
    format      ascii;
    class       surfaceScalarField;
    location    "11200";
    object      phi;
}
// * * * * * * * * * * * * * * * * * * * * * * * * * * * * * * * * * * * * * //

dimensions      [0 3 -1 0 0 0 0];
oriented        oriented;


internalField   nonuniform List<scalar> 
5116
(
4.10441e-07
-7.59273e-12
9.70806e-13
-5.73071e-13
1.20048e-12
1.2538e-06
-1.00853e-11
1.51058e-12
-1.46399e-12
1.86905e-12
2.13238e-06
-1.26137e-11
1.52626e-12
-2.36484e-12
1.88865e-12
3.04725e-06
-1.49112e-11
1.38828e-12
-3.18342e-12
1.718e-12
3.99947e-06
-1.66525e-11
1.05084e-12
-3.80264e-12
1.30041e-12
4.99008e-06
-1.78142e-11
6.99757e-13
-4.21555e-12
8.65941e-13
6.0202e-06
-1.8584e-11
4.64942e-13
-4.48929e-12
5.75364e-13
7.09101e-06
-1.91299e-11
3.28472e-13
-4.68306e-12
4.06485e-13
8.20379e-06
-1.95401e-11
2.48329e-13
-4.82917e-12
3.07306e-13
9.35995e-06
-1.98701e-11
1.98517e-13
-4.94638e-12
2.45665e-13
1.0561e-05
-2.01429e-11
1.65651e-13
-5.04391e-12
2.04994e-13
1.18087e-05
-2.03802e-11
1.42831e-13
-5.12838e-12
1.76754e-13
1.31048e-05
-2.05878e-11
1.26323e-13
-5.20286e-12
1.56326e-13
1.44511e-05
-2.0777e-11
1.13988e-13
-5.27041e-12
1.41061e-13
1.58498e-05
-2.09486e-11
1.04533e-13
-5.33217e-12
1.2936e-13
1.7303e-05
-2.11097e-11
9.71404e-14
-5.38988e-12
1.20212e-13
1.88129e-05
-2.12594e-11
9.12724e-14
-5.44394e-12
1.12951e-13
2.03821e-05
-2.14028e-11
8.65617e-14
-5.4955e-12
1.07122e-13
2.2013e-05
-2.15385e-11
8.27506e-14
-5.54466e-12
1.02406e-13
2.37081e-05
-2.16704e-11
7.9654e-14
-5.59225e-12
9.85736e-14
2.54703e-05
-2.17969e-11
7.71355e-14
-5.63823e-12
9.54572e-14
2.73021e-05
-2.19212e-11
7.5093e-14
-5.68324e-12
9.29298e-14
2.92066e-05
-2.20418e-11
7.3449e-14
-5.72715e-12
9.08955e-14
3.11864e-05
-2.21611e-11
7.21433e-14
-5.77055e-12
8.928e-14
3.32445e-05
-2.22781e-11
7.11294e-14
-5.81321e-12
8.80254e-14
3.53838e-05
-2.23945e-11
7.03703e-14
-5.85571e-12
8.70862e-14
3.7607e-05
-2.25095e-11
6.98367e-14
-5.89772e-12
8.64262e-14
3.99171e-05
-2.26246e-11
6.95054e-14
-5.93987e-12
8.60164e-14
4.23167e-05
-2.2739e-11
6.93578e-14
-5.98172e-12
8.58339e-14
4.48085e-05
-2.2854e-11
6.93786e-14
-6.02397e-12
8.586e-14
4.7395e-05
-2.2969e-11
6.95562e-14
-6.06602e-12
8.608e-14
5.00784e-05
-2.30849e-11
6.98811e-14
-6.10875e-12
8.64823e-14
5.2861e-05
-2.32014e-11
7.03458e-14
-6.1514e-12
8.70575e-14
5.57447e-05
-2.33193e-11
7.09445e-14
-6.19494e-12
8.77987e-14
5.8731e-05
-2.34381e-11
7.1673e-14
-6.23846e-12
8.87006e-14
6.18212e-05
-2.35588e-11
7.25284e-14
-6.28314e-12
8.97593e-14
6.50165e-05
-2.36808e-11
7.35086e-14
-6.32785e-12
9.09727e-14
6.83174e-05
-2.38052e-11
7.46128e-14
-6.37395e-12
9.23393e-14
7.1724e-05
-2.39312e-11
7.58406e-14
-6.42012e-12
9.38592e-14
7.52361e-05
-2.40601e-11
7.71929e-14
-6.46794e-12
9.55329e-14
7.8853e-05
-2.41909e-11
7.86707e-14
-6.51588e-12
9.73621e-14
8.25734e-05
-2.43251e-11
8.0276e-14
-6.56571e-12
9.9349e-14
8.63954e-05
-2.44615e-11
8.20111e-14
-6.61571e-12
1.01497e-13
9.03165e-05
-2.46019e-11
8.38789e-14
-6.66786e-12
1.03808e-13
9.43337e-05
-2.47448e-11
8.58828e-14
-6.72026e-12
1.06289e-13
9.84433e-05
-2.48923e-11
8.80262e-14
-6.77504e-12
1.08942e-13
0.000102641
-2.50425e-11
9.0313e-14
-6.83015e-12
1.11772e-13
0.000106921
-2.5198e-11
9.27475e-14
-6.88791e-12
1.14785e-13
0.000111278
-2.53565e-11
9.53338e-14
-6.94611e-12
1.17986e-13
0.000115705
-2.55211e-11
9.8076e-14
-7.00728e-12
1.21381e-13
0.000120195
-2.56889e-11
1.00978e-13
-7.06898e-12
1.24973e-13
0.00012474
-2.58637e-11
1.04045e-13
-7.13401e-12
1.28768e-13
0.000129331
-2.60419e-11
1.07278e-13
-7.19962e-12
1.32771e-13
0.000133957
-2.62278e-11
1.10682e-13
-7.26882e-12
1.36984e-13
0.00013861
-2.64175e-11
1.14258e-13
-7.33871e-12
1.4141e-13
0.000143277
-2.66156e-11
1.18007e-13
-7.4124e-12
1.4605e-13
0.000147947
-2.68178e-11
1.21929e-13
-7.48704e-12
1.50904e-13
0.000152608
-2.70293e-11
1.26021e-13
-7.56568e-12
1.55971e-13
0.000157246
-2.72452e-11
1.30281e-13
-7.64553e-12
1.61245e-13
0.000161848
-2.74712e-11
1.34703e-13
-7.72966e-12
1.66717e-13
0.0001664
-2.77019e-11
1.39278e-13
-7.81518e-12
1.72381e-13
0.000170889
-2.79436e-11
1.43997e-13
-7.90533e-12
1.78222e-13
0.0001753
-2.81899e-11
1.48844e-13
-7.99683e-12
1.84224e-13
0.000179618
-2.84481e-11
1.5381e-13
-8.09328e-12
1.9037e-13
0.00018383
-2.87108e-11
1.58874e-13
-8.19109e-12
1.96639e-13
0.000187921
-2.89859e-11
1.64017e-13
-8.29392e-12
2.03006e-13
0.000191877
-2.92655e-11
1.69222e-13
-8.3982e-12
2.09449e-13
0.000195687
-2.95576e-11
1.74467e-13
-8.50745e-12
2.15945e-13
0.000199337
-2.98544e-11
1.79738e-13
-8.61842e-12
2.22469e-13
0.000202816
-3.01637e-11
1.85015e-13
-8.7342e-12
2.29004e-13
0.000206115
-3.04777e-11
1.90287e-13
-8.85193e-12
2.35531e-13
0.000209224
-3.08043e-11
1.95544e-13
-8.97437e-12
2.4204e-13
0.000212135
-3.11354e-11
2.00781e-13
-9.09897e-12
2.48526e-13
0.000214844
-3.14792e-11
2.06001e-13
-9.22817e-12
2.54988e-13
0.000217345
-3.18274e-11
2.11208e-13
-9.35961e-12
2.61438e-13
0.000219636
-3.21883e-11
2.16417e-13
-9.49569e-12
2.67888e-13
0.000221716
-3.25535e-11
2.21643e-13
-9.63401e-12
2.74361e-13
0.000223585
-3.29317e-11
2.26907e-13
-9.77714e-12
2.8088e-13
0.000225246
-3.33142e-11
2.32235e-13
-9.92247e-12
2.87479e-13
0.000226702
-3.371e-11
2.37655e-13
-1.00729e-11
2.94191e-13
0.000227959
-3.41103e-11
2.43195e-13
-1.02254e-11
3.01055e-13
0.000229023
-3.45245e-11
2.48888e-13
-1.03833e-11
3.08106e-13
0.000229902
-3.49437e-11
2.54764e-13
-1.05435e-11
3.15383e-13
0.000230603
-3.53773e-11
2.60851e-13
-1.07093e-11
3.22926e-13
0.000231136
-3.58167e-11
2.67183e-13
-1.08776e-11
3.30768e-13
0.000231511
-3.62713e-11
2.73787e-13
-1.10519e-11
3.3895e-13
0.000231739
-3.6733e-11
2.80693e-13
-1.12292e-11
3.47506e-13
0.000231828
-3.72106e-11
2.87929e-13
-1.14128e-11
3.56469e-13
0.00023179
-3.76966e-11
2.95521e-13
-1.15998e-11
3.65875e-13
0.000231635
-3.81995e-11
3.03495e-13
-1.17935e-11
3.75755e-13
0.000231374
-3.87127e-11
3.11877e-13
-1.19913e-11
3.86137e-13
0.000231015
-3.92435e-11
3.20688e-13
-1.2196e-11
3.97055e-13
0.000230569
-3.97867e-11
3.29957e-13
-1.24056e-11
4.08537e-13
0.000230044
-4.03485e-11
3.39702e-13
-1.26224e-11
4.20613e-13
0.000229449
-4.09251e-11
3.49954e-13
-1.28452e-11
4.33312e-13
0.000228792
-4.15213e-11
3.60733e-13
-1.30754e-11
4.46666e-13
0.00022808
-4.21348e-11
3.72062e-13
-1.33126e-11
4.60706e-13
0.00022732
-4.27693e-11
3.83968e-13
-1.35578e-11
4.75455e-13
0.000226518
-4.34237e-11
3.96473e-13
-1.38108e-11
4.90951e-13
0.000225681
-4.41006e-11
4.0961e-13
-1.40724e-11
5.07225e-13
0.000224812
-4.48001e-11
4.234e-13
-1.43426e-11
5.24311e-13
0.000223917
-4.55236e-11
4.3787e-13
-1.46221e-11
5.42242e-13
0.000223001
-4.62729e-11
4.53052e-13
-1.49113e-11
5.61052e-13
0.000222066
-4.7048e-11
4.68977e-13
-1.52105e-11
5.80783e-13
0.000221116
-4.78519e-11
4.85672e-13
-1.55203e-11
6.01472e-13
0.000220154
-4.86838e-11
5.03174e-13
-1.5841e-11
6.23156e-13
0.000219184
-4.95478e-11
5.21514e-13
-1.61734e-11
6.45886e-13
0.000218206
-5.04422e-11
5.40734e-13
-1.65176e-11
6.69698e-13
0.000217223
-5.13721e-11
5.60862e-13
-1.68746e-11
6.94644e-13
0.000216238
-5.23351e-11
5.81946e-13
-1.72443e-11
7.20768e-13
0.000215251
-5.33371e-11
6.04024e-13
-1.76282e-11
7.48131e-13
0.000214264
-5.43756e-11
6.27145e-13
-1.80259e-11
7.76773e-13
0.000213278
-5.54567e-11
6.51338e-13
-1.84391e-11
8.06767e-13
0.000212294
-5.65781e-11
6.76674e-13
-1.88675e-11
8.3815e-13
0.000211313
-5.77455e-11
7.03176e-13
-1.93124e-11
8.71016e-13
0.000210336
-5.89578e-11
7.30934e-13
-1.97745e-11
9.05392e-13
0.000209363
-6.02199e-11
7.59957e-13
-2.0254e-11
9.4139e-13
0.000208395
-6.15317e-11
7.90354e-13
-2.07525e-11
9.7903e-13
0.000207431
-6.28968e-11
8.22125e-13
-2.12696e-11
1.01845e-12
0.000206473
-6.43173e-11
8.55411e-13
-2.18078e-11
1.05966e-12
0.000205521
-6.57953e-11
8.90188e-13
-2.23658e-11
1.10282e-12
0.000204574
-6.73343e-11
9.26631e-13
-2.29468e-11
1.14793e-12
0.000203633
-6.89353e-11
9.64689e-13
-2.35493e-11
1.19519e-12
0.000202698
-7.06037e-11
1.00459e-12
-2.41767e-11
1.24455e-12
0.000201769
-7.23393e-11
1.04623e-12
-2.48278e-11
1.2963e-12
0.000200845
-7.41489e-11
1.08994e-12
-2.55057e-11
1.35032e-12
0.000199927
-7.60319e-11
1.13549e-12
-2.62101e-11
1.40702e-12
0.000199015
-7.79958e-11
1.18338e-12
-2.69429e-11
1.46612e-12
0.000198109
-8.00399e-11
1.23321e-12
-2.77053e-11
1.52825e-12
0.000197209
-8.21722e-11
1.28571e-12
-2.8498e-11
1.59293e-12
0.000196316
-8.4393e-11
1.34022e-12
-2.9324e-11
1.66104e-12
0.00019543
-8.67094e-11
1.39779e-12
-3.01818e-11
1.7318e-12
0.000194551
-8.91236e-11
1.45739e-12
-3.10774e-11
1.80651e-12
0.00019368
-9.16412e-11
1.52059e-12
-3.20062e-11
1.88391e-12
0.000192817
-9.42681e-11
1.58574e-12
-3.29783e-11
1.96594e-12
0.000191964
-9.7006e-11
1.65519e-12
-3.39846e-11
2.05058e-12
0.00019112
-9.98658e-11
1.72635e-12
-3.50407e-11
2.14073e-12
0.000190288
-1.02845e-10
1.80278e-12
-3.61315e-11
2.23322e-12
0.000189466
-1.05961e-10
1.88043e-12
-3.72802e-11
2.33243e-12
0.000188657
-1.09205e-10
1.96469e-12
-3.84633e-11
2.4334e-12
0.000187861
-1.12601e-10
2.04928e-12
-3.97138e-11
2.54279e-12
0.000187078
-1.16136e-10
2.14242e-12
-4.09974e-11
2.65284e-12
0.000186311
-1.1984e-10
2.23433e-12
-4.23606e-11
2.77375e-12
0.000185561
-1.23694e-10
2.33763e-12
-4.37536e-11
2.89342e-12
0.000184828
-1.27735e-10
2.43712e-12
-4.52414e-11
3.02749e-12
0.000184115
-1.31939e-10
2.55223e-12
-4.67531e-11
3.15715e-12
0.000183424
-1.3635e-10
2.6593e-12
-4.83793e-11
3.30646e-12
0.000182755
-1.40939e-10
2.78833e-12
-5.00195e-11
3.44621e-12
0.000182112
-1.45755e-10
2.90261e-12
-5.17998e-11
3.61349e-12
0.000181496
-1.50768e-10
3.04842e-12
-5.3578e-11
3.76287e-12
0.00018091
-1.56025e-10
3.1688e-12
-5.55313e-11
3.95173e-12
0.000180356
-1.61506e-10
3.33537e-12
-5.74565e-11
4.10944e-12
0.000179836
-1.67244e-10
3.45959e-12
-5.96046e-11
4.32492e-12
0.000179354
-1.73242e-10
3.65258e-12
-6.16841e-11
4.48821e-12
0.000178911
-1.79504e-10
3.77651e-12
-6.40545e-11
4.73742e-12
0.00017851
-1.86075e-10
4.00417e-12
-6.62927e-11
4.90123e-12
0.000178153
-1.929e-10
4.12069e-12
-6.89191e-11
5.19456e-12
0.000177843
-2.0011e-10
4.39528e-12
-7.13147e-11
5.35005e-12
0.000177581
-2.07537e-10
4.49247e-12
-7.42421e-11
5.70292e-12
0.000177367
-2.15463e-10
4.83259e-12
-7.6785e-11
5.83523e-12
0.000177201
-2.23524e-10
4.89081e-12
-8.0073e-11
6.27105e-12
0.000177082
-2.3226e-10
5.32505e-12
-8.27383e-11
6.35564e-12
0.000177008
-2.40976e-10
5.31243e-12
-8.64703e-11
6.91038e-12
0.000176974
-2.50647e-10
5.88515e-12
-8.92097e-11
6.90733e-12
0.000176978
-2.60014e-10
5.75023e-12
-9.35049e-11
7.63686e-12
0.000177014
-2.70792e-10
6.53101e-12
-9.62317e-11
7.48152e-12
0.000177078
-2.80764e-10
6.19089e-12
-1.01264e-10
8.47358e-12
0.000177165
-2.92892e-10
7.28952e-12
-1.03828e-10
8.06167e-12
0.000177271
-3.03354e-10
6.61103e-12
-1.0986e-10
9.45475e-12
0.000177393
-3.17194e-10
8.20168e-12
-1.12009e-10
8.61832e-12
0.000177533
-3.27896e-10
6.97044e-12
-1.19439e-10
1.06326e-11
0.00017769
-3.43985e-10
9.33099e-12
-1.20752e-10
9.10081e-12
0.000177868
-3.54514e-10
7.20162e-12
-1.30204e-10
1.2088e-11
0.000178071
-3.73663e-10
1.07771e-11
-1.29984e-10
9.42363e-12
0.000178304
-3.83208e-10
7.1919e-12
-1.4244e-10
1.3948e-11
0.000178573
-4.06662e-10
1.26986e-11
-1.39546e-10
9.44366e-12
0.000178882
-4.13808e-10
6.75455e-12
-1.56568e-10
1.64149e-11
0.000179237
-4.43587e-10
1.53497e-11
-1.49129e-10
8.92313e-12
0.000179639
-4.46026e-10
5.58085e-12
-1.73229e-10
1.98137e-11
0.000180091
-4.85603e-10
1.91422e-11
-1.58181e-10
7.46786e-12
0.000180595
-4.79435e-10
3.16057e-12
-1.9343e-10
2.46718e-11
0.000181148
-5.3573e-10
2.47476e-11
-1.65719e-10
4.42506e-12
0.000181751
-5.14655e-10
-1.34987e-12
-2.18759e-10
3.18507e-11
0.000182398
-5.96179e-10
3.32681e-11
-1.70032e-10
-1.28728e-12
0.000183085
-5.49168e-10
-9.34714e-12
-2.51695e-10
4.27656e-11
0.000183809
-5.87285e-10
1.94927e-11
-2.49156e-10
1.54936e-11
0.000184568
-5.00779e-10
-2.17052e-11
-3.72928e-10
5.83122e-11
0.000185357
-4.53909e-10
-8.0886e-12
-4.58471e-10
4.64063e-11
0.000186178
-3.14574e-10
-3.85247e-11
-6.38194e-10
7.86127e-11
0.00018703
-1.64162e-10
-4.19366e-11
-8.31133e-10
8.38891e-11
0.000187921
-1.03222e-10
-1.16158e-11
-9.36162e-10
5.55348e-11
0.000188855
1.01678e-11
-2.94163e-11
-1.09798e-09
7.53591e-11
0.000189839
-2.42428e-11
2.09752e-11
-1.11182e-09
2.71108e-11
0.000190879
5.30201e-11
-1.6889e-11
-1.24304e-09
6.71753e-11
0.000191976
-6.81251e-11
5.09238e-11
-1.17422e-09
1.74956e-12
0.000193135
-1.94626e-11
-6.13486e-12
-1.28068e-09
6.11372e-11
0.000194358
-1.18931e-10
4.48476e-11
-1.23776e-09
1.27217e-11
0.000195647
-9.27489e-11
2.59015e-12
-1.32614e-09
5.75184e-11
0.000196999
-1.76814e-10
4.0813e-11
-1.30364e-09
2.20524e-11
0.00019841
-1.6857e-10
9.7844e-12
-1.37913e-09
5.58355e-11
0.000199867
-2.42055e-10
3.83839e-11
-1.37289e-09
3.01907e-11
0.000201354
-2.48257e-10
1.58363e-11
-1.43955e-09
5.57115e-11
0.000202853
-3.14827e-10
3.72197e-11
-1.44645e-09
3.74865e-11
0.000204338
-3.32811e-10
2.10469e-11
-1.50747e-09
5.68529e-11
0.000205785
-3.95272e-10
3.70542e-11
-1.52518e-09
4.42122e-11
0.00020717
-4.23042e-10
2.5649e-11
-1.58302e-09
5.90329e-11
0.000208472
-4.83549e-10
3.7681e-11
-1.60985e-09
5.05796e-11
0.000209677
-5.19633e-10
2.98225e-11
-1.66647e-09
6.20775e-11
0.000210784
-5.79851e-10
3.89401e-11
-1.7012e-09
5.67552e-11
0.000211795
-6.23185e-10
3.37066e-11
-1.75813e-09
6.5855e-11
0.000212715
-6.84405e-10
4.07072e-11
-1.79991e-09
6.28711e-11
0.000213542
-7.34242e-10
3.74083e-11
-1.85838e-09
7.02664e-11
0.000214269
-7.97463e-10
4.28864e-11
-1.90665e-09
6.90319e-11
0.000214886
-8.53298e-10
4.10095e-11
-1.96764e-09
7.524e-11
0.000215375
-9.19307e-10
4.54055e-11
-2.02208e-09
7.5323e-11
0.000215719
-9.80823e-10
4.4574e-11
-2.0864e-09
8.07289e-11
0.000215901
-1.05025e-09
4.82134e-11
-2.14686e-09
8.18208e-11
0.000215904
-1.11727e-09
4.81547e-11
-2.2152e-09
8.67115e-11
0.000215709
-1.19064e-09
5.12792e-11
-2.28167e-09
8.85908e-11
0.000215302
-1.26312e-09
5.18001e-11
-2.35465e-09
9.31931e-11
0.000214682
-1.34089e-09
5.45912e-11
-2.42726e-09
9.57166e-11
0.00021386
-1.41889e-09
5.5558e-11
-2.50547e-09
1.00205e-10
0.000212867
-1.50149e-09
5.81529e-11
-2.58446e-09
1.03287e-10
0.000211745
-1.58517e-09
5.94744e-11
-2.66849e-09
1.07798e-10
0.000210536
-1.67302e-09
6.19732e-11
-2.7542e-09
1.11383e-10
0.000209272
-1.76261e-09
6.35859e-11
-2.84465e-09
1.16023e-10
0.000207966
-1.85614e-09
6.60599e-11
-2.93753e-09
1.20079e-10
0.00020661
-1.95192e-09
6.79174e-11
-3.03501e-09
1.24926e-10
0.000205165
-2.05155e-09
7.04195e-11
-3.13556e-09
1.29441e-10
0.000203592
-2.15384e-09
7.24907e-11
-3.24073e-09
1.34561e-10
0.000201863
-2.26001e-09
7.50669e-11
-3.34953e-09
1.39548e-10
0.000199978
-2.3692e-09
7.73385e-11
-3.4631e-09
1.45015e-10
0.000197962
-2.48238e-09
8.00327e-11
-3.58086e-09
1.5051e-10
0.000195842
-2.59891e-09
8.25012e-11
-3.70361e-09
1.56394e-10
0.000193646
-2.71962e-09
8.53516e-11
-3.83111e-09
1.62442e-10
0.0001914
-2.84401e-09
8.80142e-11
-3.96393e-09
1.68805e-10
0.000189136
-2.97281e-09
9.10511e-11
-4.10208e-09
1.75458e-10
0.0001869
-3.1056e-09
9.38992e-11
-4.24592e-09
1.82348e-10
0.000184746
-3.24308e-09
9.71443e-11
-4.3957e-09
1.89647e-10
0.000182723
-3.38482e-09
1.00155e-10
-4.55157e-09
1.97088e-10
0.000180842
-3.53154e-09
1.03617e-10
-4.71401e-09
2.05062e-10
0.000179073
-3.68274e-09
1.06753e-10
-4.88298e-09
2.13055e-10
0.000177341
-3.83924e-09
1.10438e-10
-5.05916e-09
2.21735e-10
0.000175538
-4.00039e-09
1.1366e-10
-5.24231e-09
2.30281e-10
0.000173548
-4.16717e-09
1.17598e-10
-5.43339e-09
2.39738e-10
0.000171269
-4.33876e-09
1.2088e-10
-5.63191e-09
2.48879e-10
0.0001686
-4.51641e-09
1.25143e-10
-5.8392e-09
2.59261e-10
0.00016546
-4.69907e-09
1.28488e-10
-6.0545e-09
2.691e-10
0.000161838
-4.88837e-09
1.3321e-10
-6.27961e-09
2.80657e-10
0.000157839
-5.08291e-09
1.36637e-10
-6.51342e-09
2.91356e-10
0.000153668
-5.28492e-09
1.41994e-10
-6.75837e-09
3.0441e-10
0.000149568
-5.49243e-09
1.45478e-10
-7.0128e-09
3.16085e-10
0.000145762
-5.70839e-09
1.51625e-10
-7.27994e-09
3.30908e-10
0.000142454
-5.92994e-09
1.55011e-10
-7.55727e-09
3.43486e-10
0.000139794
-6.16101e-09
1.62051e-10
-7.84905e-09
3.60228e-10
0.000137778
-6.39743e-09
1.65038e-10
-8.15147e-09
3.73429e-10
0.00013619
-6.64451e-09
1.73083e-10
-8.47028e-09
3.92226e-10
0.000134709
-6.89627e-09
1.75284e-10
-8.79987e-09
4.05699e-10
0.00013309
-7.16005e-09
1.84579e-10
-9.14812e-09
4.26866e-10
0.000131341
-7.42739e-09
1.85563e-10
-9.50696e-09
4.40261e-10
0.000129707
-7.70852e-09
1.96528e-10
-9.88724e-09
4.64306e-10
0.000128524
-7.99148e-09
1.95696e-10
-1.02774e-08
4.77091e-10
0.00012807
-8.29047e-09
2.08835e-10
-1.06924e-08
5.04588e-10
0.000128516
-8.58857e-09
2.05279e-10
-1.11158e-08
5.15888e-10
0.000129966
-8.90551e-09
2.21231e-10
-1.15682e-08
5.47561e-10
0.000132375
-9.21753e-09
2.13724e-10
-1.20265e-08
5.56257e-10
0.000135542
-9.55206e-09
2.33422e-10
-1.25193e-08
5.93293e-10
0.000139231
-9.87604e-09
2.20416e-10
-1.30141e-08
5.98097e-10
0.000143238
-1.02275e-08
2.45227e-10
-1.35507e-08
6.42268e-10
0.00014737
-1.05607e-08
2.2473e-10
-1.4084e-08
6.41477e-10
0.000151394
-1.09282e-08
2.56549e-10
-1.46687e-08
6.95121e-10
0.000155017
-1.12671e-08
2.2594e-10
-1.52424e-08
6.86334e-10
0.000157954
-1.16497e-08
2.67339e-10
-1.58803e-08
7.52465e-10
0.000159966
-1.19897e-08
2.23264e-10
-1.64962e-08
7.3233e-10
0.000160885
-1.23862e-08
2.77779e-10
-1.71929e-08
8.1494e-10
0.000160655
-1.27221e-08
2.16024e-10
-1.78525e-08
7.79073e-10
0.000159238
-1.31322e-08
2.88512e-10
-1.86151e-08
8.8371e-10
0.000156542
-1.34582e-08
2.03724e-10
-1.93198e-08
8.26519e-10
0.000152592
-1.38828e-08
3.00791e-10
-2.01573e-08
9.60966e-10
0.000147594
-1.4193e-08
1.85951e-10
-2.09086e-08
8.75022e-10
0.000141734
-1.46353e-08
3.16483e-10
-2.1833e-08
1.04992e-09
0.000134999
-1.4923e-08
1.62011e-10
-2.26325e-08
9.24841e-10
0.000127171
-1.53889e-08
3.37953e-10
-2.36595e-08
1.15472e-09
0.000118109
-1.56469e-08
1.30765e-10
-2.45086e-08
9.75992e-10
0.000108002
-1.61461e-08
3.68772e-10
-2.56593e-08
1.28116e-09
9.73342e-05
-1.6366e-08
9.05935e-11
-2.65584e-08
1.02806e-09
8.66771e-05
-1.69139e-08
4.13943e-10
-2.78608e-08
1.43658e-09
7.64403e-05
-1.70846e-08
3.83693e-11
-2.88072e-08
1.07846e-09
6.70364e-05
-1.77027e-08
4.79074e-10
-3.0296e-08
1.62825e-09
5.92683e-05
-1.78076e-08
-3.12792e-11
-3.12808e-08
1.12071e-09
5.41256e-05
-1.85227e-08
5.69835e-10
-3.2997e-08
1.86223e-09
5.21244e-05
-1.85363e-08
-1.265e-10
-3.40011e-08
1.14404e-09
5.28494e-05
-1.93781e-08
6.90133e-10
-3.59937e-08
2.14538e-09
5.50492e-05
-1.92616e-08
-2.58752e-10
-3.69881e-08
1.13642e-09
5.7168e-05
-2.02627e-08
8.44517e-10
-3.93225e-08
2.49248e-09
5.80293e-05
-1.99624e-08
-4.4123e-10
-4.02662e-08
1.08433e-09
5.7416e-05
-2.11654e-08
1.04341e-09
-4.30284e-08
2.92372e-09
5.59614e-05
-2.06134e-08
-6.87796e-10
-4.38599e-08
9.66794e-10
5.4593e-05
-2.20781e-08
1.30371e-09
-4.71584e-08
3.46192e-09
5.41857e-05
-2.11885e-08
-1.01603e-09
-4.77884e-08
7.55509e-10
5.53751e-05
-2.29925e-08
1.64345e-09
-5.1765e-08
4.14012e-09
5.83862e-05
-2.16539e-08
-1.44917e-09
-5.20703e-08
4.14396e-10
6.29925e-05
-2.38867e-08
2.07682e-09
-5.69196e-08
5.0093e-09
6.8961e-05
-2.19551e-08
-2.01538e-09
-5.67328e-08
-1.05516e-10
7.67734e-05
-2.47143e-08
2.61513e-09
-6.27352e-08
6.15134e-09
8.72127e-05
-2.20073e-08
-2.74593e-09
-6.18207e-08
-8.79231e-10
0.000100175
-2.53902e-08
3.26291e-09
-6.94076e-08
7.71226e-09
0.000114777
-2.16819e-08
-3.67011e-09
-6.7412e-08
-2.0386e-09
0.000129676
-2.57403e-08
3.98595e-09
-7.72905e-08
9.95732e-09
0.000143428
-2.07898e-08
-4.78324e-09
-7.36335e-08
-3.83022e-09
0.000155334
-2.54542e-08
4.67861e-09
-8.69279e-08
1.32869e-08
0.000165734
-1.91136e-08
-5.97551e-09
-8.06202e-08
-6.67858e-09
0.000175279
-2.40303e-08
5.08428e-09
-9.90874e-08
1.83e-08
0.000183608
-1.64831e-08
-6.91039e-09
-8.84077e-08
-1.13216e-08
0.000189959
-2.06283e-08
4.59203e-09
-1.00802e-07
1.19453e-08
0.000194659
-1.24973e-08
-7.15788e-09
-8.34408e-08
-1.83359e-08
0.000199468
-1.46369e-08
2.97622e-09
-8.34563e-08
-8.19352e-10
0.00020578
-6.90589e-09
-6.41247e-09
-5.67181e-08
-2.80544e-08
0.000212702
-5.71276e-09
7.75102e-11
-3.95128e-08
-1.84719e-08
0.000218281
-4.10227e-09
-6.30455e-11
-4.08496e-08
-2.0775e-10
4.10441e-07
-1.13481e-13
2.29569e-12
1.2538e-06
-2.89966e-13
5.87122e-12
2.13238e-06
-4.73007e-13
9.4847e-12
3.04725e-06
-6.36532e-13
1.27702e-11
3.99947e-06
-7.64991e-13
1.52584e-11
4.99008e-06
-8.47222e-13
1.69136e-11
6.0202e-06
-9.05614e-13
1.80153e-11
7.09101e-06
-9.43203e-13
1.87925e-11
8.20378e-06
-9.75226e-13
1.93818e-11
9.35995e-06
-9.97368e-13
1.98518e-11
1.0561e-05
-1.01948e-12
2.02454e-11
1.18087e-05
-1.03512e-12
2.0584e-11
1.31048e-05
-1.05249e-12
2.08846e-11
1.44511e-05
-1.06481e-12
2.11553e-11
1.58498e-05
-1.07962e-12
2.14043e-11
1.7303e-05
-1.09006e-12
2.16353e-11
1.88129e-05
-1.1033e-12
2.1853e-11
2.03821e-05
-1.11262e-12
2.20593e-11
2.2013e-05
-1.12488e-12
2.22568e-11
2.37081e-05
-1.13351e-12
2.2447e-11
2.54702e-05
-1.14514e-12
2.26311e-11
2.73021e-05
-1.15337e-12
2.28108e-11
2.92065e-05
-1.16458e-12
2.29861e-11
3.11864e-05
-1.1726e-12
2.3159e-11
3.32445e-05
-1.18357e-12
2.33288e-11
3.53837e-05
-1.19153e-12
2.34977e-11
3.7607e-05
-1.20235e-12
2.36642e-11
3.99171e-05
-1.21036e-12
2.38312e-11
4.23167e-05
-1.22114e-12
2.39965e-11
4.48085e-05
-1.2293e-12
2.41633e-11
4.7395e-05
-1.24007e-12
2.43289e-11
5.00784e-05
-1.24844e-12
2.4497e-11
5.2861e-05
-1.25929e-12
2.46643e-11
5.57446e-05
-1.26793e-12
2.4835e-11
5.87309e-05
-1.27888e-12
2.50054e-11
6.18212e-05
-1.28783e-12
2.51798e-11
6.50165e-05
-1.29896e-12
2.53544e-11
6.83173e-05
-1.30827e-12
2.55338e-11
7.1724e-05
-1.31958e-12
2.57139e-11
7.52361e-05
-1.32929e-12
2.58993e-11
7.8853e-05
-1.34087e-12
2.60861e-11
8.25734e-05
-1.35101e-12
2.62789e-11
8.63954e-05
-1.36288e-12
2.64736e-11
9.03165e-05
-1.37349e-12
2.66748e-11
9.43337e-05
-1.38574e-12
2.68788e-11
9.84432e-05
-1.39686e-12
2.70899e-11
0.000102641
-1.40952e-12
2.73044e-11
0.000106921
-1.4212e-12
2.75268e-11
0.000111278
-1.43436e-12
2.77533e-11
0.000115705
-1.44673e-12
2.79883e-11
0.000120195
-1.46048e-12
2.82284e-11
0.00012474
-1.47366e-12
2.84775e-11
0.000129331
-1.48809e-12
2.87327e-11
0.000133957
-1.50205e-12
2.89977e-11
0.00013861
-1.51723e-12
2.92697e-11
0.000143277
-1.53196e-12
2.95523e-11
0.000147947
-1.54798e-12
2.98427e-11
0.000152608
-1.56358e-12
3.01446e-11
0.000157246
-1.58057e-12
3.04551e-11
0.000161848
-1.59725e-12
3.07777e-11
0.0001664
-1.61534e-12
3.11099e-11
0.000170889
-1.63331e-12
3.14546e-11
0.0001753
-1.65255e-12
3.18099e-11
0.000179618
-1.67182e-12
3.21779e-11
0.00018383
-1.69225e-12
3.25575e-11
0.000187921
-1.7127e-12
3.29501e-11
0.000191877
-1.73433e-12
3.33547e-11
0.000195687
-1.75582e-12
3.37728e-11
0.000199337
-1.77871e-12
3.4203e-11
0.000202816
-1.80125e-12
3.46467e-11
0.000206115
-1.82545e-12
3.51025e-11
0.000209224
-1.84914e-12
3.55719e-11
0.000212135
-1.87467e-12
3.60533e-11
0.000214844
-1.8996e-12
3.65481e-11
0.000217345
-1.92645e-12
3.70551e-11
0.000219636
-1.95268e-12
3.75753e-11
0.000221716
-1.9808e-12
3.8108e-11
0.000223585
-2.00842e-12
3.86537e-11
0.000225246
-2.0378e-12
3.92126e-11
0.000226702
-2.06685e-12
3.97846e-11
0.000227959
-2.09747e-12
4.03707e-11
0.000229023
-2.12791e-12
4.09704e-11
0.000229902
-2.15983e-12
4.15852e-11
0.000230603
-2.19166e-12
4.22145e-11
0.000231136
-2.22497e-12
4.28601e-11
0.000231511
-2.25831e-12
4.35215e-11
0.000231739
-2.29321e-12
4.42004e-11
0.000231828
-2.32823e-12
4.48967e-11
0.00023179
-2.3649e-12
4.56122e-11
0.000231635
-2.40174e-12
4.63469e-11
0.000231374
-2.44046e-12
4.71024e-11
0.000231015
-2.47926e-12
4.78795e-11
0.000230569
-2.52027e-12
4.86792e-11
0.000230044
-2.56125e-12
4.95031e-11
0.000229449
-2.60487e-12
5.03514e-11
0.000228792
-2.64844e-12
5.12267e-11
0.00022808
-2.69502e-12
5.21287e-11
0.00022732
-2.74165e-12
5.30605e-11
0.000226519
-2.7915e-12
5.40214e-11
0.000225681
-2.84153e-12
5.50153e-11
0.000224812
-2.895e-12
5.60412e-11
0.000223918
-2.94874e-12
5.71036e-11
0.000223001
-3.00614e-12
5.82008e-11
0.000222066
-3.06405e-12
5.93382e-11
0.000221116
-3.12585e-12
6.05138e-11
0.000220154
-3.18841e-12
6.17334e-11
0.000219184
-3.25497e-12
6.29951e-11
0.000218206
-3.32259e-12
6.4305e-11
0.000217224
-3.39443e-12
6.56609e-11
0.000216238
-3.46761e-12
6.70695e-11
0.000215251
-3.54513e-12
6.85289e-11
0.000214264
-3.62451e-12
7.00457e-11
0.000213278
-3.70835e-12
7.16183e-11
0.000212295
-3.79469e-12
7.32531e-11
0.000211314
-3.88526e-12
7.495e-11
0.000210336
-3.97925e-12
7.6714e-11
0.000209363
-4.0772e-12
7.85468e-11
0.000208395
-4.17951e-12
8.04522e-11
0.000207432
-4.28535e-12
8.24343e-11
0.000206474
-4.3965e-12
8.44947e-11
0.000205521
-4.51095e-12
8.66401e-11
0.000204574
-4.63142e-12
8.88706e-11
0.000203633
-4.75518e-12
9.11952e-11
0.000202698
-4.88551e-12
9.36121e-11
0.000201769
-5.01948e-12
9.61327e-11
0.000200845
-5.16044e-12
9.87541e-11
0.000199927
-5.3057e-12
1.01489e-10
0.000199015
-5.45815e-12
1.04335e-10
0.000198109
-5.61579e-12
1.07305e-10
0.000197209
-5.78058e-12
1.10396e-10
0.000196316
-5.95204e-12
1.13624e-10
0.00019543
-6.13015e-12
1.16985e-10
0.000194551
-6.31686e-12
1.20493e-10
0.00019368
-6.50937e-12
1.2415e-10
0.000192817
-6.71322e-12
1.27966e-10
0.000191964
-6.92137e-12
1.31947e-10
0.000191121
-7.14433e-12
1.361e-10
0.000190288
-7.36944e-12
1.40437e-10
0.000189466
-7.61407e-12
1.44959e-10
0.000188657
-7.85755e-12
1.49685e-10
0.000187861
-8.12657e-12
1.54612e-10
0.000187079
-8.38972e-12
1.59765e-10
0.000186312
-8.68666e-12
1.65135e-10
0.000185561
-8.97077e-12
1.70757e-10
0.000184828
-9.29962e-12
1.76616e-10
0.000184115
-9.6057e-12
1.82751e-10
0.000183424
-9.97162e-12
1.89146e-10
0.000182755
-1.03002e-11
1.95845e-10
0.000182112
-1.07095e-11
2.0283e-10
0.000181496
-1.10602e-11
2.10148e-10
0.00018091
-1.15208e-11
2.17783e-10
0.000180356
-1.18917e-11
2.25778e-10
0.000179837
-1.24142e-11
2.34131e-10
0.000179354
-1.28006e-11
2.42867e-10
0.000178911
-1.33999e-11
2.52016e-10
0.00017851
-1.3793e-11
2.6156e-10
0.000178154
-1.44891e-11
2.71595e-10
0.000177844
-1.48732e-11
2.8202e-10
0.000177581
-1.56958e-11
2.93045e-10
0.000177367
-1.60452e-11
3.04423e-10
0.000177201
-1.70379e-11
3.16563e-10
0.000177082
-1.73108e-11
3.28964e-10
0.000177008
-1.85389e-11
3.42371e-10
0.000176975
-1.86686e-11
3.55851e-10
0.000176978
-2.02326e-11
3.70715e-10
0.000177014
-2.01124e-11
3.85299e-10
0.000177078
-2.21651e-11
4.0187e-10
0.000177165
-2.1624e-11
4.1753e-10
0.000177271
-2.44055e-11
4.36148e-10
0.000177394
-2.31675e-11
4.52757e-10
0.000177533
-2.70518e-11
4.7392e-10
0.00017769
-2.467e-11
4.91198e-10
0.000177868
-3.02544e-11
5.1559e-10
0.000178071
-2.60059e-11
5.33012e-10
0.000178304
-3.42424e-11
5.61744e-10
0.000178573
-2.69548e-11
5.78381e-10
0.000178883
-3.93742e-11
6.13197e-10
0.000179237
-2.71455e-11
6.27377e-10
0.000179639
-4.62258e-11
6.70942e-10
0.000180092
-2.59563e-11
6.7957e-10
0.000180595
-5.57297e-11
7.36171e-10
0.000181149
-2.23325e-11
7.32757e-10
0.000181751
-6.94007e-11
8.09112e-10
0.000182398
-1.44845e-11
7.85617e-10
0.000183086
-8.96347e-11
8.93203e-10
0.00018381
-8.02986e-11
9.18532e-10
0.000184568
-1.96968e-10
1.0714e-09
0.000185358
-2.75106e-10
1.18777e-09
0.000186179
-4.47088e-10
1.39979e-09
0.000187031
-6.31964e-10
1.62629e-09
0.000187922
-7.286e-10
1.76693e-09
0.000188856
-8.81674e-10
1.9637e-09
0.00018984
-8.86411e-10
2.01662e-09
0.00019088
-1.00815e-09
2.18527e-09
0.000191977
-9.29521e-10
2.15995e-09
0.000193136
-1.02573e-09
2.30868e-09
0.000194359
-9.72177e-10
2.31402e-09
0.000195648
-1.04946e-09
2.44966e-09
0.000197
-1.01545e-09
2.48015e-09
0.000198411
-1.07896e-09
2.60801e-09
0.000199868
-1.06031e-09
2.65962e-09
0.000201355
-1.11407e-09
2.78401e-09
0.000202854
-1.1076e-09
2.85389e-09
0.000204339
-1.15475e-09
2.97828e-09
0.000205786
-1.15811e-09
3.06446e-09
0.000207171
-1.2011e-09
3.1917e-09
0.000208473
-1.21258e-09
3.29288e-09
0.000209679
-1.25334e-09
3.42531e-09
0.000210787
-1.27171e-09
3.5407e-09
0.000211798
-1.31177e-09
3.68025e-09
0.000212717
-1.33619e-09
3.80947e-09
0.000213545
-1.37679e-09
3.95781e-09
0.000214272
-1.40672e-09
4.10077e-09
0.000214889
-1.44887e-09
4.25935e-09
0.000215379
-1.48401e-09
4.41625e-09
0.000215724
-1.52857e-09
4.58638e-09
0.000215906
-1.56883e-09
4.75762e-09
0.000215909
-1.61653e-09
4.94054e-09
0.000215715
-1.66197e-09
5.12671e-09
0.000215308
-1.71351e-09
5.32365e-09
0.000214688
-1.76431e-09
5.52557e-09
0.000213866
-1.82036e-09
5.73783e-09
0.000212874
-1.87686e-09
5.95651e-09
0.000211752
-1.9381e-09
6.18551e-09
0.000210544
-2.00076e-09
6.42222e-09
0.00020928
-2.0679e-09
6.66948e-09
0.000207975
-2.13727e-09
6.92563e-09
0.00020662
-2.21107e-09
7.19282e-09
0.000205175
-2.28782e-09
7.47003e-09
0.000203602
-2.36911e-09
7.75893e-09
0.000201874
-2.45401e-09
8.05901e-09
0.000199989
-2.5437e-09
8.37164e-09
0.000197974
-2.63767e-09
8.69668e-09
0.000195854
-2.73682e-09
9.03531e-09
0.000193659
-2.8409e-09
9.38769e-09
0.000191414
-2.95066e-09
9.75488e-09
0.00018915
-3.06607e-09
1.01373e-08
0.000186915
-3.18777e-09
1.05359e-08
0.000184761
-3.31586e-09
1.09512e-08
0.000182738
-3.45096e-09
1.13842e-08
0.000180858
-3.59322e-09
1.18356e-08
0.00017909
-3.74332e-09
1.23061e-08
0.000177358
-3.90141e-09
1.27968e-08
0.000175556
-4.06826e-09
1.33083e-08
0.000173567
-4.244e-09
1.38417e-08
0.000171289
-4.4296e-09
1.43978e-08
0.000168621
-4.62507e-09
1.49781e-08
0.000165481
-4.83172e-09
1.5583e-08
0.000161861
-5.04935e-09
1.62149e-08
0.000157863
-5.27978e-09
1.6874e-08
0.000153692
-5.52249e-09
1.75635e-08
0.000149592
-5.77995e-09
1.82833e-08
0.000145786
-6.05107e-09
1.90373e-08
0.000142477
-6.33919e-09
1.98248e-08
0.000139816
-6.64235e-09
2.06505e-08
0.000137799
-6.96508e-09
2.15126e-08
0.00013621
-7.30411e-09