/*--------------------------------*- C++ -*----------------------------------*\
| =========                 |                                                 |
| \\      /  F ield         | OpenFOAM: The Open Source CFD Toolbox           |
|  \\    /   O peration     | Version:  2012                                  |
|   \\  /    A nd           | Website:  www.openfoam.com                      |
|    \\/     M anipulation  |                                                 |
\*---------------------------------------------------------------------------*/
FoamFile
{
    version     2.0;
    format      ascii;
    class       volVectorField;
    location    "7000";
    object      U;
}
// * * * * * * * * * * * * * * * * * * * * * * * * * * * * * * * * * * * * * //

dimensions      [0 1 -1 0 0 0 0];


internalField   nonuniform List<vector> 
2560
(
(0.0164056 -1.53669e-15 2.15309e-16)
(0.0164056 -7.45821e-19 2.71712e-16)
(0.0494522 -2.08222e-16 1.14616e-15)
(0.0494522 6.06459e-18 1.06969e-15)
(0.0829705 -2.05985e-15 1.17998e-15)
(0.0829705 1.12306e-17 1.09926e-15)
(0.116929 -1.83786e-15 1.21219e-15)
(0.116929 1.87662e-17 1.12663e-15)
(0.15119 -1.78371e-15 1.23593e-15)
(0.15119 2.63936e-17 1.14617e-15)
(0.185388 -1.81332e-15 1.24134e-15)
(0.185388 3.43415e-17 1.14876e-15)
(0.218872 -1.83371e-15 1.21882e-15)
(0.218872 4.22909e-17 1.12555e-15)
(0.250811 -1.85192e-15 1.16589e-15)
(0.250811 4.98722e-17 1.07434e-15)
(0.280479 -1.87174e-15 1.08987e-15)
(0.280479 5.7052e-17 1.00202e-15)
(0.30748 -1.89123e-15 1.00319e-15)
(0.30748 6.37349e-17 9.20101e-16)
(0.331769 -1.90866e-15 9.1675e-16)
(0.331769 6.98597e-17 8.38621e-16)
(0.35353 -1.92366e-15 8.37038e-16)
(0.35353 7.54225e-17 7.63518e-16)
(0.373047 -1.93702e-15 7.66659e-16)
(0.373047 8.05616e-17 6.97147e-16)
(0.390626 -1.94897e-15 7.05904e-16)
(0.390626 8.54823e-17 6.3973e-16)
(0.406546 -1.9597e-15 6.53997e-16)
(0.406546 8.99554e-17 5.90522e-16)
(0.421051 -1.96955e-15 6.09802e-16)
(0.421051 9.41902e-17 5.48467e-16)
(0.434346 -1.97848e-15 5.72163e-16)
(0.434346 9.80299e-17 5.12478e-16)
(0.446602 -1.98689e-15 5.40041e-16)
(0.446602 1.0145e-16 4.81575e-16)
(0.457961 -1.99534e-15 5.12546e-16)
(0.457961 1.05115e-16 4.5493e-16)
(0.468541 -2.00345e-15 4.88936e-16)
(0.468541 1.08757e-16 4.31852e-16)
(0.47844 -2.01087e-15 4.68606e-16)
(0.47844 1.11962e-16 4.11776e-16)
(0.487739 -2.01797e-15 4.51059e-16)
(0.487739 1.14937e-16 3.94244e-16)
(0.496508 -2.0247e-15 4.35889e-16)
(0.496508 1.17962e-16 3.78868e-16)
(0.504806 -2.03129e-15 4.22761e-16)
(0.504806 1.20673e-16 3.65344e-16)
(0.512682 -2.03751e-15 4.11399e-16)
(0.512682 1.23158e-16 3.53426e-16)
(0.520179 -2.04367e-15 4.01574e-16)
(0.520179 1.25686e-16 3.42892e-16)
(0.527335 -2.05005e-15 3.931e-16)
(0.527335 1.28453e-16 3.33566e-16)
(0.53418 -2.0568e-15 3.85813e-16)
(0.53418 1.31667e-16 3.25298e-16)
(0.540744 -2.06338e-15 3.7958e-16)
(0.540744 1.34763e-16 3.17962e-16)
(0.547051 -2.06938e-15 3.7429e-16)
(0.547051 1.37413e-16 3.11454e-16)
(0.553121 -2.07493e-15 3.69847e-16)
(0.553121 1.40041e-16 3.05698e-16)
(0.558975 -2.08036e-15 3.66169e-16)
(0.558975 1.42473e-16 3.00615e-16)
(0.564629 -2.08615e-15 3.63185e-16)
(0.564629 1.4512e-16 2.96134e-16)
(0.570098 -2.09196e-15 3.60836e-16)
(0.570098 1.47778e-16 2.92199e-16)
(0.575396 -2.09777e-15 3.59069e-16)
(0.575396 1.50278e-16 2.88759e-16)
(0.580534 -2.10349e-15 3.57841e-16)
(0.580534 1.52677e-16 2.85769e-16)
(0.585524 -2.10909e-15 3.57112e-16)
(0.585524 1.5506e-16 2.83201e-16)
(0.590376 -2.11452e-15 3.56848e-16)
(0.590376 1.57667e-16 2.81021e-16)
(0.595099 -2.11989e-15 3.57018e-16)
(0.595099 1.60121e-16 2.79201e-16)
(0.5997 -2.12523e-15 3.57598e-16)
(0.5997 1.6241e-16 2.77728e-16)
(0.604186 -2.13036e-15 3.58565e-16)
(0.604186 1.64643e-16 2.76571e-16)
(0.608566 -2.13522e-15 3.59901e-16)
(0.608566 1.67066e-16 2.75712e-16)
(0.612845 -2.14025e-15 3.61587e-16)
(0.612845 1.68972e-16 2.75131e-16)
(0.617028 -2.14505e-15 3.63602e-16)
(0.617028 1.70647e-16 2.74805e-16)
(0.621121 -2.14988e-15 3.65935e-16)
(0.621121 1.72266e-16 2.74741e-16)
(0.625129 -2.15448e-15 3.68575e-16)
(0.625129 1.74015e-16 2.74923e-16)
(0.629056 -2.15898e-15 3.71513e-16)
(0.629056 1.75949e-16 2.75335e-16)
(0.632906 -2.16415e-15 3.74737e-16)
(0.632906 1.77566e-16 2.75961e-16)
(0.636683 -2.16901e-15 3.78241e-16)
(0.636683 1.79127e-16 2.76806e-16)
(0.640391 -2.1738e-15 3.82022e-16)
(0.640391 1.80416e-16 2.77852e-16)
(0.644032 -2.17856e-15 3.86069e-16)
(0.644032 1.82009e-16 2.79088e-16)
(0.64761 -2.18272e-15 3.90384e-16)
(0.64761 1.8315e-16 2.80527e-16)
(0.651128 -2.18692e-15 3.94962e-16)
(0.651128 1.84526e-16 2.82136e-16)
(0.654589 -2.1915e-15 3.99797e-16)
(0.654589 1.86242e-16 2.83957e-16)
(0.657994 -2.196e-15 4.04888e-16)
(0.657994 1.86988e-16 2.85955e-16)
(0.661347 -2.20057e-15 4.10235e-16)
(0.661347 1.88072e-16 2.88105e-16)
(0.664649 -2.20557e-15 4.15832e-16)
(0.664649 1.89201e-16 2.90425e-16)
(0.667902 -2.21018e-15 4.21679e-16)
(0.667902 1.89884e-16 2.92919e-16)
(0.671109 -2.21414e-15 4.25181e-16)
(0.671109 1.90189e-16 2.95605e-16)
(0.674271 -2.21825e-15 4.1765e-16)
(0.674271 1.90315e-16 2.98452e-16)
(0.67739 -2.22267e-15 4.10246e-16)
(0.67739 1.91364e-16 3.01447e-16)
(0.680468 -2.22703e-15 4.02973e-16)
(0.680468 1.92658e-16 3.04604e-16)
(0.683505 -2.23161e-15 3.95826e-16)
(0.683505 1.92764e-16 3.0793e-16)
(0.686505 -2.23642e-15 3.88807e-16)
(0.686505 1.94053e-16 3.1149e-16)
(0.689467 -2.24084e-15 3.81867e-16)
(0.689467 1.9487e-16 3.15166e-16)
(0.692393 -2.24527e-15 3.75015e-16)
(0.692393 1.94904e-16 3.19015e-16)
(0.695284 -2.24918e-15 3.6824e-16)
(0.695284 1.95616e-16 3.23047e-16)
(0.698143 -2.25266e-15 3.61556e-16)
(0.698143 1.95652e-16 3.27254e-16)
(0.700968 -2.25682e-15 3.54972e-16)
(0.700968 1.95262e-16 3.31646e-16)
(0.703763 -2.26031e-15 3.48453e-16)
(0.703763 1.95663e-16 3.36186e-16)
(0.706527 -2.26359e-15 3.41973e-16)
(0.706527 1.9656e-16 3.40879e-16)
(0.709262 -2.26794e-15 3.35557e-16)
(0.709262 1.97056e-16 3.45782e-16)
(0.711968 -2.27301e-15 3.29197e-16)
(0.711968 1.98143e-16 3.50894e-16)
(0.714647 -2.27732e-15 3.22916e-16)
(0.714647 1.99436e-16 3.56156e-16)
(0.717298 -2.28204e-15 3.16728e-16)
(0.717298 2.00616e-16 3.61608e-16)
(0.719924 -2.28663e-15 3.10614e-16)
(0.719924 2.00916e-16 3.67256e-16)
(0.722525 -2.28994e-15 3.04538e-16)
(0.722525 1.9989e-16 3.7314e-16)
(0.725101 -2.29277e-15 2.98489e-16)
(0.725101 1.98203e-16 3.79208e-16)
(0.727653 -2.29668e-15 2.92493e-16)
(0.727653 1.97063e-16 3.85464e-16)
(0.730182 -2.30055e-15 2.86581e-16)
(0.730182 1.96647e-16 3.91937e-16)
(0.732688 -2.30259e-15 2.80661e-16)
(0.732688 1.95949e-16 3.98539e-16)
(0.735172 -2.30454e-15 2.74726e-16)
(0.735172 1.93722e-16 4.05377e-16)
(0.737634 -2.30823e-15 2.68901e-16)
(0.737634 1.93656e-16 4.07294e-16)
(0.740076 -2.31211e-15 2.63116e-16)
(0.740076 1.95008e-16 4.07236e-16)
(0.742497 -2.31537e-15 2.57403e-16)
(0.742497 1.94136e-16 4.07143e-16)
(0.744898 -2.31923e-15 2.51792e-16)
(0.744898 1.95462e-16 4.06997e-16)
(0.74728 -2.32386e-15 2.46247e-16)
(0.74728 1.96556e-16 4.06671e-16)
(0.749643 -2.32774e-15 2.40802e-16)
(0.749643 1.96426e-16 4.06328e-16)
(0.751988 -2.33108e-15 2.35403e-16)
(0.751988 1.97055e-16 4.05994e-16)
(0.754314 -2.33461e-15 2.30095e-16)
(0.754314 1.96285e-16 4.05551e-16)
(0.756622 -2.33762e-15 2.26217e-16)
(0.756622 1.95492e-16 4.05099e-16)
(0.758914 -2.34081e-15 2.30111e-16)
(0.758914 1.95931e-16 4.04611e-16)
(0.761188 -2.34291e-15 2.34039e-16)
(0.761188 1.95165e-16 4.04124e-16)
(0.763446 -2.3447e-15 2.38056e-16)
(0.763446 1.92859e-16 4.03699e-16)
(0.765687 -2.34692e-15 2.42305e-16)
(0.765687 1.89809e-16 4.03206e-16)
(0.767913 -2.34825e-15 2.46493e-16)
(0.767913 1.87827e-16 4.02717e-16)
(0.770123 -2.3489e-15 2.50894e-16)
(0.770123 1.87592e-16 4.09006e-16)
(0.772318 -2.34938e-15 2.55502e-16)
(0.772318 1.85776e-16 4.19146e-16)
(0.774498 -2.3519e-15 2.59918e-16)
(0.774498 1.83912e-16 4.29367e-16)
(0.776663 -2.35597e-15 2.64476e-16)
(0.776663 1.83159e-16 4.39444e-16)
(0.778814 -2.35869e-15 2.6923e-16)
(0.778814 1.83267e-16 4.49513e-16)
(0.780951 -2.35901e-15 2.74222e-16)
(0.780951 1.80405e-16 4.59571e-16)
(0.783074 -2.35956e-15 2.79159e-16)
(0.783074 1.76415e-16 4.69899e-16)
(0.785183 -2.36235e-15 2.84121e-16)
(0.785183 1.761e-16 4.80323e-16)
(0.787279 -2.36503e-15 2.8937e-16)
(0.787279 1.72927e-16 4.90598e-16)
(0.789362 -2.36613e-15 2.94755e-16)
(0.789362 1.69186e-16 5.01017e-16)
(0.791432 -2.36602e-15 3.00125e-16)
(0.791432 1.67194e-16 5.11529e-16)
(0.79349 -2.36593e-15 3.05711e-16)
(0.79349 1.63326e-16 5.21956e-16)
(0.795535 -2.36764e-15 3.11369e-16)
(0.795535 1.6159e-16 5.32486e-16)
(0.797568 -2.36952e-15 3.17137e-16)
(0.797568 1.61674e-16 5.43e-16)
(0.799589 -2.37101e-15 3.231e-16)
(0.799589 1.60886e-16 5.53408e-16)
(0.801598 -2.37267e-15 3.29194e-16)
(0.801598 1.5942e-16 5.63651e-16)
(0.803595 -2.37355e-15 3.3543e-16)
(0.803595 1.56254e-16 5.73877e-16)
(0.805581 -2.37414e-15 3.41735e-16)
(0.805581 1.54822e-16 5.84051e-16)
(0.807556 -2.37378e-15 3.4817e-16)
(0.807556 1.52838e-16 5.94019e-16)
(0.809519 -2.37296e-15 3.54953e-16)
(0.809519 1.47835e-16 6.03755e-16)
(0.811472 -2.37112e-15 3.61836e-16)
(0.811472 1.4062e-16 6.13614e-16)
(0.813414 -2.36843e-15 3.68879e-16)
(0.813414 1.35395e-16 6.23612e-16)
(0.815345 -2.36843e-15 3.75739e-16)
(0.815345 1.33964e-16 6.33513e-16)
(0.817266 -2.37018e-15 3.82769e-16)
(0.817266 1.30823e-16 6.42894e-16)
(0.819176 -2.36887e-15 3.90429e-16)
(0.819176 1.27969e-16 6.51697e-16)
(0.821077 -2.3669e-15 3.97959e-16)
(0.821077 1.24793e-16 6.60546e-16)
(0.822967 -2.36711e-15 4.05471e-16)
(0.822967 1.2202e-16 6.69089e-16)
(0.824847 -2.36742e-15 4.13302e-16)
(0.824847 1.18066e-16 6.77027e-16)
(0.826718 -2.36695e-15 4.21615e-16)
(0.826718 1.1341e-16 6.84804e-16)
(0.828579 -2.36601e-15 4.29932e-16)
(0.828579 1.08912e-16 6.92675e-16)
(0.83043 -2.36408e-15 4.38555e-16)
(0.83043 1.03908e-16 7.00347e-16)
(0.832273 -2.36131e-15 4.47196e-16)
(0.832273 1.00245e-16 7.07904e-16)
(0.834105 -2.35608e-15 4.56565e-16)
(0.834105 9.32435e-17 7.15165e-16)
(0.835929 -2.35033e-15 4.65761e-16)
(0.835929 8.87316e-17 7.22992e-16)
(0.837744 -2.34752e-15 4.75265e-16)
(0.837744 8.59427e-17 7.31027e-16)
(0.83955 -2.34509e-15 4.84564e-16)
(0.83955 8.01989e-17 7.39214e-16)
(0.841347 -2.34227e-15 4.94417e-16)
(0.841347 7.33917e-17 7.46756e-16)
(0.843135 -2.33799e-15 5.04571e-16)
(0.843135 6.69197e-17 7.54318e-16)
(0.844914 -2.33157e-15 5.14854e-16)
(0.844914 6.03414e-17 7.62281e-16)
(0.846686 -2.32569e-15 5.25174e-16)
(0.846686 5.23088e-17 7.7032e-16)
(0.848448 -2.32211e-15 5.35992e-16)
(0.848448 4.45996e-17 7.78151e-16)
(0.850203 -2.32022e-15 5.46355e-16)
(0.850203 4.07255e-17 7.8614e-16)
(0.851949 -2.31753e-15 5.57446e-16)
(0.851949 3.64002e-17 7.93515e-16)
(0.853687 -2.30875e-15 5.69344e-16)
(0.853687 2.65746e-17 8.00437e-16)
(0.855417 -2.2996e-15 5.80657e-16)
(0.855417 1.84637e-17 8.07993e-16)
(0.857139 -2.2953e-15 5.92191e-16)
(0.857139 1.34614e-17 8.15493e-16)
(0.858853 -2.29053e-15 6.04253e-16)
(0.858853 4.64057e-18 8.22359e-16)
(0.860559 -2.28494e-15 6.15298e-16)
(0.860559 -1.77879e-18 8.29221e-16)
(0.862258 -2.28089e-15 6.18242e-16)
(0.862258 -3.97849e-18 8.35686e-16)
(0.863949 -2.27847e-15 6.21241e-16)
(0.863949 -1.03782e-17 8.41731e-16)
(0.865632 -2.27414e-15 6.24574e-16)
(0.865632 -1.48555e-17 8.46957e-16)
(0.867308 -2.26848e-15 6.27726e-16)
(0.867308 -1.84966e-17 8.51844e-16)
(0.868976 -2.26578e-15 6.30202e-16)
(0.868976 -2.00628e-17 8.56186e-16)
(0.870638 -2.26208e-15 6.32786e-16)
(0.870638 -2.41338e-17 8.59802e-16)
(0.872292 -2.25571e-15 6.34737e-16)
(0.872292 -3.29417e-17 8.63419e-16)
(0.873938 -2.24874e-15 6.37087e-16)
(0.873938 -3.8054e-17 8.66932e-16)
(0.875578 -2.24077e-15 6.39582e-16)
(0.875578 -4.59927e-17 8.70079e-16)
(0.87721 -2.23118e-15 6.42809e-16)
(0.87721 -5.48651e-17 8.72535e-16)
(0.878836 -2.21952e-15 6.45607e-16)
(0.878836 -6.29116e-17 8.75034e-16)
(0.880454 -2.20933e-15 6.47999e-16)
(0.880454 -7.43463e-17 8.77025e-16)
(0.882066 -2.20164e-15 6.50334e-16)
(0.882066 -8.1203e-17 8.79913e-16)
(0.883671 -2.19682e-15 6.529e-16)
(0.883671 -8.30935e-17 8.82615e-16)
(0.885269 -2.19085e-15 6.55394e-16)
(0.885269 -9.53059e-17 8.83433e-16)
(0.88686 -2.18066e-15 6.57235e-16)
(0.88686 -1.00724e-16 8.84387e-16)
(0.888445 -2.16854e-15 6.59445e-16)
(0.888445 -1.07702e-16 8.8602e-16)
(0.890023 -2.1607e-15 6.60811e-16)
(0.890023 -1.16247e-16 8.88743e-16)
(0.891595 -2.15708e-15 6.61959e-16)
(0.891595 -1.29182e-16 8.90366e-16)
(0.89316 -2.15061e-15 6.63652e-16)
(0.89316 -1.35748e-16 8.91393e-16)
(0.894718 -2.14415e-15 6.64021e-16)
(0.894718 -1.43468e-16 8.93385e-16)
(0.896271 -2.1363e-15 6.63903e-16)
(0.896271 -1.55715e-16 8.94669e-16)
(0.897817 -2.12765e-15 6.64248e-16)
(0.897817 -1.64774e-16 8.95489e-16)
(0.899356 -2.12087e-15 6.63907e-16)
(0.899356 -1.72778e-16 8.97148e-16)
(0.90089 -2.11124e-15 6.63777e-16)
(0.90089 -1.82227e-16 8.97879e-16)
(0.902417 -2.10052e-15 6.62987e-16)
(0.902417 -1.88328e-16 8.98643e-16)
(0.903939 -2.09086e-15 6.62137e-16)
(0.903939 -1.9329e-16 8.9868e-16)
(0.905454 -2.07755e-15 6.61793e-16)
(0.905454 -1.99709e-16 8.98027e-16)
(0.906963 -2.06448e-15 6.61124e-16)
(0.906963 -2.0732e-16 8.97255e-16)
(0.908466 -2.04997e-15 6.59676e-16)
(0.908466 -2.14378e-16 8.96006e-16)
(0.909963 -2.03081e-15 6.58577e-16)
(0.909963 -2.25272e-16 8.93836e-16)
(0.911455 -2.01189e-15 6.57151e-16)
(0.911455 -2.33694e-16 8.91944e-16)
(0.91294 -1.99627e-15 6.53957e-16)
(0.91294 -2.45905e-16 8.90025e-16)
(0.91442 -1.98374e-15 6.51342e-16)
(0.91442 -2.55169e-16 8.86529e-16)
(0.915894 -1.96601e-15 6.49045e-16)
(0.915894 -2.62071e-16 8.82938e-16)
(0.917362 -1.94865e-15 6.46554e-16)
(0.917362 -2.75236e-16 8.80189e-16)
(0.918825 -1.92947e-15 6.44154e-16)
(0.918825 -2.86038e-16 8.77011e-16)
(0.920282 -1.91288e-15 6.40618e-16)
(0.920282 -2.95043e-16 8.73282e-16)
(0.921733 -1.89889e-15 6.36494e-16)
(0.921733 -3.05759e-16 8.68488e-16)
(0.923179 -1.88304e-15 6.32729e-16)
(0.923179 -3.16417e-16 8.62417e-16)
(0.924619 -1.8696e-15 6.29196e-16)
(0.924619 -3.30869e-16 8.5638e-16)
(0.926054 -1.85357e-15 6.255e-16)
(0.926054 -3.42722e-16 8.49793e-16)
(0.927483 -1.83814e-15 6.21672e-16)
(0.927483 -3.55106e-16 8.42647e-16)
(0.928907 -1.82153e-15 6.16631e-16)
(0.928907 -3.67278e-16 8.35197e-16)
(0.930325 -1.8056e-15 6.1177e-16)
(0.930325 -3.77959e-16 8.25965e-16)
(0.931738 -1.79112e-15 6.05746e-16)
(0.931738 -3.90404e-16 8.17358e-16)
(0.933146 -1.77231e-15 6.00225e-16)
(0.933146 -4.03347e-16 8.07213e-16)
(0.934549 -1.75496e-15 5.93676e-16)
(0.934549 -4.20886e-16 7.97262e-16)
(0.935946 -1.73697e-15 5.86923e-16)
(0.935946 -4.38002e-16 7.87344e-16)
(0.937338 -1.71898e-15 5.79835e-16)
(0.937338 -4.4942e-16 7.77486e-16)
(0.938725 -1.70473e-15 5.73843e-16)
(0.938725 -4.64271e-16 7.66279e-16)
(0.940107 -1.68686e-15 5.66078e-16)
(0.940107 -4.8858e-16 7.55393e-16)
(0.941484 -1.66781e-15 5.57361e-16)
(0.941484 -4.98732e-16 7.43462e-16)
(0.942855 -1.65286e-15 5.49168e-16)
(0.942855 -5.12359e-16 7.31521e-16)
(0.944222 -1.63903e-15 5.41005e-16)
(0.944222 -5.39861e-16 7.20192e-16)
(0.945583 -1.61955e-15 5.30474e-16)
(0.945583 -5.51572e-16 7.07477e-16)
(0.94694 -1.59401e-15 5.23512e-16)
(0.94694 -5.67862e-16 6.93181e-16)
(0.948292 -1.5706e-15 5.15097e-16)
(0.948292 -5.86052e-16 6.83042e-16)
(0.949638 -1.5522e-15 5.05237e-16)
(0.949638 -6.00544e-16 6.71576e-16)
(0.95098 -1.53553e-15 4.95474e-16)
(0.95098 -6.18104e-16 6.58093e-16)
(0.952317 -1.51465e-15 4.87912e-16)
(0.952317 -6.33265e-16 6.45696e-16)
(0.953649 -1.4912e-15 4.78891e-16)
(0.953649 -6.44276e-16 6.34876e-16)
(0.954976 -1.47267e-15 4.69522e-16)
(0.954976 -6.56531e-16 6.22383e-16)
(0.956298 -1.44595e-15 4.61354e-16)
(0.956298 -6.73875e-16 6.08962e-16)
(0.957616 -1.42366e-15 4.51474e-16)
(0.957616 -6.87042e-16 5.96375e-16)
(0.958928 -1.4058e-15 4.45536e-16)
(0.958928 -7.00696e-16 5.89804e-16)
(0.960236 -1.38581e-15 4.37846e-16)
(0.960236 -7.10501e-16 5.87149e-16)
(0.96154 -1.37074e-15 4.30916e-16)
(0.96154 -7.28555e-16 5.84756e-16)
(0.962838 -1.35315e-15 4.17867e-16)
(0.962838 -7.39841e-16 5.80809e-16)
(0.964132 -1.33864e-15 4.06201e-16)
(0.964132 -7.46672e-16 5.72803e-16)
(0.965421 -1.32068e-15 4.063e-16)
(0.965421 -7.54904e-16 5.66582e-16)
(0.966706 -1.3018e-15 4.053e-16)
(0.966706 -7.55398e-16 5.62772e-16)
(0.967986 -1.28554e-15 4.0294e-16)
(0.967986 -7.63248e-16 5.57676e-16)
(0.969261 -1.26938e-15 4.03153e-16)
(0.969261 -7.7822e-16 5.50795e-16)
(0.970532 -1.25218e-15 4.05061e-16)
(0.970532 -7.79526e-16 5.45807e-16)
(0.971798 -1.23788e-15 4.04223e-16)
(0.971798 -7.82618e-16 5.44271e-16)
(0.97306 -1.22186e-15 4.0303e-16)
(0.97306 -8.00872e-16 5.38443e-16)
(0.974317 -1.20361e-15 4.01262e-16)
(0.974317 -8.06887e-16 5.31763e-16)
(0.975569 -1.19221e-15 3.97657e-16)
(0.975569 -7.99691e-16 5.30673e-16)
(0.976817 -1.18149e-15 3.98173e-16)
(0.976817 -8.03052e-16 5.23408e-16)
(0.978061 -1.16594e-15 4.01552e-16)
(0.978061 -8.11171e-16 5.17302e-16)
(0.9793 -1.1515e-15 3.98595e-16)
(0.9793 -8.08334e-16 5.14459e-16)
(0.980534 -1.14129e-15 3.94811e-16)
(0.980534 -8.06921e-16 5.0717e-16)
(0.981764 -1.13137e-15 3.92804e-16)
(0.981764 -8.01282e-16 4.9683e-16)
(0.98299 -1.11864e-15 3.97354e-16)
(0.98299 -7.99741e-16 4.85188e-16)
(0.984211 -1.0988e-15 3.99258e-16)
(0.984211 -8.09172e-16 4.80362e-16)
(0.985427 -1.09399e-15 3.96661e-16)
(0.985427 -8.21545e-16 4.71995e-16)
(0.986639 -1.08854e-15 3.93417e-16)
(0.986639 -8.19844e-16 4.60477e-16)
(0.987847 -1.07475e-15 3.91657e-16)
(0.987847 -8.21097e-16 4.52069e-16)
(0.98905 -1.06841e-15 3.91215e-16)
(0.98905 -8.32061e-16 4.48079e-16)
(0.990249 -1.05237e-15 3.87589e-16)
(0.990249 -8.21278e-16 4.41325e-16)
(0.991443 -1.04198e-15 3.84874e-16)
(0.991443 -8.14042e-16 4.34358e-16)
(0.992633 -1.03998e-15 3.83781e-16)
(0.992633 -8.11414e-16 4.24633e-16)
(0.993818 -1.03051e-15 3.82746e-16)
(0.993818 -8.06955e-16 4.15311e-16)
(0.994999 -1.01982e-15 3.82081e-16)
(0.994999 -8.04735e-16 4.12087e-16)
(0.996175 -1.01314e-15 3.75319e-16)
(0.996175 -7.88196e-16 4.07654e-16)
(0.997347 -1.01003e-15 3.66664e-16)
(0.997347 -7.81436e-16 3.97865e-16)
(0.998514 -9.98954e-16 3.63062e-16)
(0.998514 -7.90665e-16 3.80383e-16)
(0.999677 -9.73779e-16 3.65371e-16)
(0.999677 -7.9737e-16 3.66887e-16)
(1.00083 -9.5429e-16 3.79211e-16)
(1.00083 -8.02099e-16 3.65798e-16)
(1.00199 -9.52821e-16 3.72493e-16)
(1.00199 -7.94747e-16 3.71969e-16)
(1.00314 -9.50941e-16 3.75719e-16)
(1.00314 -8.01105e-16 3.57041e-16)
(1.00428 -9.38802e-16 3.57287e-16)
(1.00428 -8.17114e-16 3.59065e-16)
(1.00542 -9.27244e-16 3.66387e-16)
(1.00542 -8.14331e-16 3.66163e-16)
(1.00656 -9.07848e-16 3.78031e-16)
(1.00656 -8.16349e-16 3.59107e-16)
(1.00769 -8.84866e-16 3.87619e-16)
(1.00769 -8.31508e-16 3.50978e-16)
(1.00881 -8.74369e-16 3.74641e-16)
(1.00881 -8.23971e-16 3.52499e-16)
(1.00993 -8.78721e-16 3.68167e-16)
(1.00993 -8.2548e-16 3.45266e-16)
(1.01105 -8.79122e-16 3.5935e-16)
(1.01105 -8.35212e-16 3.41684e-16)
(1.01216 -8.63903e-16 3.50143e-16)
(1.01216 -8.27065e-16 3.53704e-16)
(1.01327 -8.55108e-16 3.52757e-16)
(1.01327 -8.18042e-16 3.57603e-16)
(1.01437 -8.4441e-16 3.51679e-16)
(1.01437 -8.29714e-16 3.502e-16)
(1.01547 -8.25513e-16 3.50543e-16)
(1.01547 -8.38526e-16 3.51178e-16)
(1.01656 -8.19735e-16 3.5299e-16)
(1.01656 -8.33469e-16 3.4372e-16)
(1.01764 -8.28231e-16 3.38123e-16)
(1.01764 -8.14767e-16 3.5609e-16)
(1.01873 -8.36245e-16 3.32589e-16)
(1.01873 -8.08058e-16 3.58026e-16)
(1.0198 -8.37277e-16 3.46349e-16)
(1.0198 -8.0241e-16 3.66584e-16)
(1.02087 -8.32961e-16 3.58472e-16)
(1.02087 -8.02884e-16 3.68387e-16)
(1.02194 -8.23683e-16 3.58039e-16)
(1.02194 -8.03195e-16 3.64426e-16)
(1.023 -8.27697e-16 3.54313e-16)
(1.023 -7.82407e-16 3.72613e-16)
(1.02405 -8.07138e-16 3.65441e-16)
(1.02405 -7.97176e-16 3.67627e-16)
(1.0251 -7.71894e-16 3.7194e-16)
(1.0251 -8.25472e-16 3.75539e-16)
(1.02615 -7.67933e-16 3.60283e-16)
(1.02615 -8.12006e-16 3.89663e-16)
(1.02718 -7.68626e-16 3.5412e-16)
(1.02718 -8.0077e-16 3.87576e-16)
(1.02822 -7.59839e-16 3.59576e-16)
(1.02822 -7.83587e-16 3.84204e-16)
(1.02924 -7.51556e-16 3.67828e-16)
(1.02924 -7.63201e-16 3.90232e-16)
(1.03026 -7.36307e-16 3.66335e-16)
(1.03026 -7.8451e-16 4.12325e-16)
(1.03127 -7.2239e-16 3.72515e-16)
(1.03127 -7.9423e-16 4.25852e-16)
(1.03228 -7.38506e-16 3.59982e-16)
(1.03228 -7.77314e-16 3.97867e-16)
(1.03328 -7.55096e-16 3.59482e-16)
(1.03328 -7.74045e-16 3.60606e-16)
(1.03428 -7.56856e-16 3.47687e-16)
(1.03428 -7.55781e-16 3.72166e-16)
(1.03526 -7.4517e-16 3.6372e-16)
(1.03526 -7.41598e-16 3.78513e-16)
(1.03624 -7.44359e-16 3.60774e-16)
(1.03624 -7.30482e-16 3.98165e-16)
(1.03722 -7.50622e-16 3.62805e-16)
(1.03722 -7.047e-16 3.8436e-16)
(1.03818 -7.33684e-16 3.632e-16)
(1.03818 -7.04898e-16 3.69892e-16)
(1.03914 -7.21733e-16 3.70576e-16)
(1.03914 -7.05825e-16 3.47526e-16)
(1.04009 -7.02346e-16 3.85301e-16)
(1.04009 -6.94934e-16 3.47564e-16)
(1.04103 -6.80003e-16 4.05581e-16)
(1.04103 -6.99587e-16 3.60365e-16)
(1.04197 -6.82239e-16 3.93621e-16)
(1.04197 -6.93978e-16 3.84183e-16)
(1.04289 -6.96401e-16 3.81396e-16)
(1.04289 -6.63174e-16 3.75601e-16)
(1.04381 -6.79091e-16 3.83851e-16)
(1.04381 -6.38307e-16 3.65557e-16)
(1.04471 -6.57791e-16 4.14476e-16)
(1.04471 -6.48093e-16 3.82547e-16)
(1.04561 -6.62305e-16 4.04379e-16)
(1.04561 -6.704e-16 3.83679e-16)
(1.0465 -6.72717e-16 3.95635e-16)
(1.0465 -6.31499e-16 4.03611e-16)
(1.04738 -6.58219e-16 4.22806e-16)
(1.04738 -6.14358e-16 3.91029e-16)
(1.04824 -6.45159e-16 4.15277e-16)
(1.04824 -6.32029e-16 3.94866e-16)
(1.0491 -6.47061e-16 4.15354e-16)
(1.0491 -6.44806e-16 4.20119e-16)
(1.04995 -6.72422e-16 3.48416e-16)
(1.04995 -6.59781e-16 4.16674e-16)
(1.05078 -6.75247e-16 3.57107e-16)
(1.05078 -6.42912e-16 4.02265e-16)
(1.0516 -6.32838e-16 3.63411e-16)
(1.0516 -6.3252e-16 3.87022e-16)
(1.05241 -5.9621e-16 3.6117e-16)
(1.05241 -6.22889e-16 3.49503e-16)
(1.0532 -5.5876e-16 3.70355e-16)
(1.0532 -5.92854e-16 3.44676e-16)
(1.05398 -5.17694e-16 3.8732e-16)
(1.05398 -5.71652e-16 3.73397e-16)
(1.05474 -4.90202e-16 3.79095e-16)
(1.05474 -5.25308e-16 3.40192e-16)
(1.05549 -4.87908e-16 3.86084e-16)
(1.05549 -4.92688e-16 3.78583e-16)
(1.05622 -4.8249e-16 3.84724e-16)
(1.05622 -4.94036e-16 3.9608e-16)
(1.05694 -4.79293e-16 4.03732e-16)
(1.05694 -4.7153e-16 3.6897e-16)
(1.05763 -5.14239e-16 3.67422e-16)
(1.05763 -5.013e-16 3.50444e-16)
(1.05831 -5.4073e-16 3.39914e-16)
(1.05831 -5.16824e-16 3.18864e-16)
(1.05896 -5.119e-16 3.42739e-16)
(1.05896 -5.02001e-16 3.37162e-16)
(1.0596 -5.28865e-16 2.98053e-16)
(1.0596 -5.34007e-16 2.73693e-16)
(1.06021 -5.35128e-16 2.84078e-16)
(1.06021 -5.63251e-16 2.70061e-16)
(1.06079 -4.84345e-16 3.20326e-16)
(1.06079 -5.62108e-16 2.10382e-16)
(1.06135 -4.67167e-16 2.9395e-16)
(1.06135 -4.99883e-16 2.26812e-16)
(1.06188 -4.94744e-16 2.62029e-16)
(1.06188 -4.22946e-16 2.26451e-16)
(1.06238 -4.8946e-16 2.45044e-16)
(1.06238 -4.28776e-16 2.03275e-16)
(1.06285 -4.47317e-16 2.65119e-16)
(1.06285 -4.27122e-16 2.31349e-16)
(1.06328 -4.22442e-16 2.43226e-16)
(1.06328 -4.22254e-16 2.22998e-16)
(1.06367 -4.25753e-16 2.04586e-16)
(1.06367 -4.24099e-16 1.85688e-16)
(1.06403 -4.09572e-16 2.2724e-16)
(1.06403 -3.8135e-16 2.58996e-16)
(1.06434 -3.75067e-16 2.23042e-16)
(1.06434 -3.96179e-16 2.05893e-16)
(1.06461 -3.64077e-16 2.10612e-16)
(1.06461 -3.9386e-16 2.5681e-16)
(1.06483 -3.73134e-16 1.84507e-16)
(1.06483 -3.56868e-16 1.94618e-16)
(1.06501 -3.52757e-16 1.95554e-16)
(1.06501 -3.50689e-16 2.12566e-16)
(1.06512 -3.24968e-16 1.78233e-16)
(1.06512 -3.45986e-16 1.63028e-16)
(1.06518 -3.06768e-16 1.85772e-16)
(1.06518 -3.14949e-16 1.54321e-16)
(0.0164056 -3.68186e-19 -1.02077e-16)
(0.0164056 -1.65182e-19 -2.50364e-17)
(0.0494522 4.51556e-18 -4.80227e-16)
(0.0494522 3.71308e-18 -2.96891e-16)
(0.0829705 8.99366e-18 -4.93445e-16)
(0.0829705 7.16789e-18 -3.05054e-16)
(0.116929 1.45717e-17 -5.05647e-16)
(0.116929 1.14336e-17 -3.12582e-16)
(0.15119 2.04339e-17 -5.14298e-16)
(0.15119 1.59052e-17 -3.17907e-16)
(0.185388 2.65443e-17 -5.15299e-16)
(0.185388 2.0424e-17 -3.18494e-16)
(0.218872 3.26702e-17 -5.04691e-16)
(0.218872 2.49161e-17 -3.11903e-16)
(0.250811 3.85169e-17 -4.815e-16)
(0.250811 2.937e-17 -2.9754e-16)
(0.280479 4.38864e-17 -4.48827e-16)
(0.280479 3.35047e-17 -2.77332e-16)
(0.30748 4.88307e-17 -4.1185e-16)
(0.30748 3.7555e-17 -2.54475e-16)
(0.331769 5.34386e-17 -3.7507e-16)
(0.331769 4.12797e-17 -2.31762e-16)
(0.35353 5.7723e-17 -3.41149e-16)
(0.35353 4.47339e-17 -2.10832e-16)
(0.373047 6.17237e-17 -3.11139e-16)
(0.373047 4.79823e-17 -1.9233e-16)
(0.390626 6.53314e-17 -2.85136e-16)
(0.390626 5.09158e-17 -1.76319e-16)
(0.406546 6.86623e-17 -2.62804e-16)
(0.406546 5.37688e-17 -1.62589e-16)
(0.421051 7.17729e-17 -2.43663e-16)
(0.421051 5.65756e-17 -1.50842e-16)
(0.434346 7.50034e-17 -2.27224e-16)
(0.434346 5.90617e-17 -1.40775e-16)
(0.446602 7.81252e-17 -2.13046e-16)
(0.446602 6.10281e-17 -1.32116e-16)
(0.457961 8.0846e-17 -2.00758e-16)
(0.457961 6.32831e-17 -1.24639e-16)
(0.468541 8.3801e-17 -1.90055e-16)
(0.468541 6.52132e-17 -1.18143e-16)
(0.47844 8.67107e-17 -1.80673e-16)
(0.47844 6.68627e-17 -1.12478e-16)
(0.487739 8.93749e-17 -1.72408e-16)
(0.487739 6.88341e-17 -1.07513e-16)
(0.496508 9.22241e-17 -1.65089e-16)
(0.496508 7.06277e-17 -1.03152e-16)
(0.504806 9.46862e-17 -1.58573e-16)
(0.504806 7.23208e-17 -9.93108e-17)
(0.512682 9.66083e-17 -1.52754e-16)
(0.512682 7.43027e-17 -9.59068e-17)
(0.520179 9.8516e-17 -1.47533e-16)
(0.520179 7.61478e-17 -9.28783e-17)
(0.527335 1.00436e-16 -1.4282e-16)
(0.527335 7.75407e-17 -9.01799e-17)
(0.53418 1.02141e-16 -1.38555e-16)
(0.53418 7.91499e-17 -8.7768e-17)
(0.540744 1.04114e-16 -1.34686e-16)
(0.540744 8.09036e-17 -8.56243e-17)
(0.547051 1.06283e-16 -1.31166e-16)
(0.547051 8.2288e-17 -8.37149e-17)
(0.553121 1.08408e-16 -1.27956e-16)
(0.553121 8.37383e-17 -8.19907e-17)
(0.558975 1.10381e-16 -1.25022e-16)
(0.558975 8.55067e-17 -8.0422e-17)
(0.564629 1.12174e-16 -1.22331e-16)
(0.564629 8.71646e-17 -7.90134e-17)
(0.570098 1.13984e-16 -1.19854e-16)
(0.570098 8.8505e-17 -7.7759e-17)
(0.575396 1.15859e-16 -1.17566e-16)
(0.575396 9.02114e-17 -7.66341e-17)
(0.580534 1.179e-16 -1.15438e-16)
(0.580534 9.15966e-17 -7.56303e-17)
(0.585524 1.19786e-16 -1.13456e-16)
(0.585524 9.29719e-17 -7.47277e-17)
(0.590376 1.21238e-16 -1.11609e-16)
(0.590376 9.46222e-17 -7.39459e-17)
(0.595099 1.22855e-16 -1.09906e-16)
(0.595099 9.62372e-17 -7.32491e-17)
(0.5997 1.24682e-16 -1.08324e-16)
(0.5997 9.80156e-17 -7.26164e-17)
(0.604186 1.27056e-16 -1.06847e-16)
(0.604186 9.97108e-17 -7.20555e-17)
(0.608566 1.29494e-16 -1.05454e-16)
(0.608566 1.01152e-16 -7.15701e-17)
(0.612845 1.30637e-16 -1.04147e-16)
(0.612845 1.02486e-16 -7.11805e-17)
(0.617028 1.31648e-16 -1.02937e-16)
(0.617028 1.04048e-16 -7.08446e-17)
(0.621121 1.32975e-16 -1.01794e-16)
(0.621121 1.0471e-16 -7.05695e-17)
(0.625129 1.34653e-16 -1.00713e-16)
(0.625129 1.0636e-16 -7.03627e-17)
(0.629056 1.36468e-16 -9.96944e-17)
(0.629056 1.08261e-16 -7.02092e-17)
(0.632906 1.38188e-16 -9.87286e-17)
(0.632906 1.09427e-16 -7.01371e-17)
(0.636683 1.40305e-16 -9.7823e-17)
(0.636683 1.10914e-16 -7.01118e-17)
(0.640391 1.41881e-16 -9.69579e-17)
(0.640391 1.12773e-16 -7.01494e-17)
(0.644032 1.43479e-16 -9.61421e-17)
(0.644032 1.14449e-16 -7.0233e-17)
(0.64761 1.45173e-16 -9.53568e-17)
(0.64761 1.15832e-16 -7.03436e-17)
(0.651128 1.46371e-16 -9.4615e-17)
(0.651128 1.16851e-16 -7.04969e-17)
(0.654589 1.47622e-16 -9.3908e-17)
(0.654589 1.17885e-16 -7.06685e-17)
(0.657994 1.4893e-16 -9.32245e-17)
(0.657994 1.19807e-16 -7.0884e-17)
(0.661347 1.50646e-16 -9.2562e-17)
(0.661347 1.21401e-16 -7.11511e-17)
(0.664649 1.52038e-16 -9.1924e-17)
(0.664649 1.22876e-16 -7.14343e-17)
(0.667902 1.53216e-16 -9.13108e-17)
(0.667902 1.24831e-16 -7.17375e-17)
(0.671109 1.54634e-16 -9.07179e-17)
(0.671109 1.26615e-16 -7.20851e-17)
(0.674271 1.56006e-16 -9.01635e-17)
(0.674271 1.28533e-16 -7.24601e-17)
(0.67739 1.57529e-16 -8.96261e-17)
(0.67739 1.30399e-16 -7.28646e-17)
(0.680468 1.59255e-16 -8.91004e-17)
(0.680468 1.32031e-16 -7.32468e-17)
(0.683505 1.61107e-16 -8.85608e-17)
(0.683505 1.33582e-16 -7.36876e-17)
(0.686505 1.62702e-16 -8.80516e-17)
(0.686505 1.35452e-16 -7.41018e-17)
(0.689467 1.63641e-16 -8.75544e-17)
(0.689467 1.37642e-16 -7.45513e-17)
(0.692393 1.64632e-16 -8.70732e-17)
(0.692393 1.38774e-16 -7.50415e-17)
(0.695284 1.65861e-16 -8.65958e-17)
(0.695284 1.40658e-16 -7.55146e-17)
(0.698143 1.67301e-16 -8.61212e-17)
(0.698143 1.42895e-16 -7.6032e-17)
(0.700968 1.69103e-16 -8.56492e-17)
(0.700968 1.44071e-16 -7.65872e-17)
(0.703763 1.70389e-16 -8.51959e-17)
(0.703763 1.45726e-16 -7.71456e-17)
(0.706527 1.71624e-16 -8.47416e-17)
(0.706527 1.4761e-16 -7.77086e-17)
(0.709262 1.73367e-16 -8.42952e-17)
(0.709262 1.49124e-16 -7.82498e-17)
(0.711968 1.74921e-16 -8.38575e-17)
(0.711968 1.50608e-16 -7.87808e-17)
(0.714647 1.77153e-16 -8.34089e-17)
(0.714647 1.5281e-16 -7.93467e-17)
(0.717298 1.79473e-16 -8.29416e-17)
(0.717298 1.54861e-16 -7.99487e-17)
(0.719924 1.80749e-16 -8.24592e-17)
(0.719924 1.56319e-16 -8.05702e-17)
(0.722525 1.82218e-16 -8.19722e-17)
(0.722525 1.58884e-16 -8.11798e-17)
(0.725101 1.83724e-16 -8.14588e-17)
(0.725101 1.60729e-16 -8.18651e-17)
(0.727653 1.84866e-16 -8.09563e-17)
(0.727653 1.61865e-16 -8.25671e-17)
(0.730182 1.86733e-16 -8.04355e-17)
(0.730182 1.64073e-16 -8.32837e-17)
(0.732688 1.88419e-16 -7.99105e-17)
(0.732688 1.6646e-16 -8.40667e-17)
(0.735172 1.89471e-16 -7.93786e-17)
(0.735172 1.68436e-16 -8.48001e-17)
(0.737634 1.90483e-16 -7.88089e-17)
(0.737634 1.71714e-16 -8.55241e-17)
(0.740076 1.92059e-16 -7.8231e-17)
(0.740076 1.74589e-16 -8.62774e-17)
(0.742497 1.9411e-16 -7.7558e-17)
(0.742497 1.74898e-16 -8.71524e-17)
(0.744898 1.95443e-16 -7.68396e-17)
(0.744898 1.7692e-16 -8.80178e-17)
(0.74728 1.97031e-16 -7.60769e-17)
(0.74728 1.79068e-16 -8.89538e-17)
(0.749643 1.97529e-16 -7.5274e-17)
(0.749643 1.81477e-16 -8.9873e-17)
(0.751988 1.98119e-16 -7.44964e-17)
(0.751988 1.84926e-16 -9.07874e-17)
(0.754314 1.99141e-16 -7.36637e-17)
(0.754314 1.86855e-16 -9.18481e-17)
(0.756622 1.99439e-16 -7.2883e-17)
(0.756622 1.89908e-16 -9.28214e-17)
(0.758914 2.00888e-16 -7.20756e-17)
(0.758914 1.92682e-16 -9.37601e-17)