/*--------------------------------*- C++ -*----------------------------------*\
| =========                 |                                                 |
| \\      /  F ield         | OpenFOAM: The Open Source CFD Toolbox           |
|  \\    /   O peration     | Version:  2012                                  |
|   \\  /    A nd           | Website:  www.openfoam.com                      |
|    \\/     M anipulation  |                                                 |
\*---------------------------------------------------------------------------*/
FoamFile
{
    version     2.0;
    format      ascii;
    class       volScalarField;
    location    "5000";
    object      p;
}
// * * * * * * * * * * * * * * * * * * * * * * * * * * * * * * * * * * * * * //

dimensions      [0 2 -2 0 0 0 0];


internalField   nonuniform List<scalar> 
640
(
9.21065e-16
9.40731e-15
1.91742e-15
9.40482e-15
2.12396e-15
9.40144e-15
2.13232e-15
9.39647e-15
2.16292e-15
9.38958e-15
2.2083e-15
9.38049e-15
2.25393e-15
9.36904e-15
2.29917e-15
9.35496e-15
2.34586e-15
9.33805e-15
2.39489e-15
9.31812e-15
2.44679e-15
9.29483e-15
2.50227e-15
9.26793e-15
2.5618e-15
9.23727e-15
2.6265e-15
9.20286e-15
2.69713e-15
9.16477e-15
2.77379e-15
9.12262e-15
2.85715e-15
9.07653e-15
2.94671e-15
9.02721e-15
3.04385e-15
8.97407e-15
3.14761e-15
8.91748e-15
3.25843e-15
8.85838e-15
3.37593e-15
8.7968e-15
3.4995e-15
8.73041e-15
3.62837e-15
8.66117e-15
3.76559e-15
8.58959e-15
3.90858e-15
8.51906e-15
4.0563e-15
8.44755e-15
4.20758e-15
8.37573e-15
4.36326e-15
8.30113e-15
4.52106e-15
8.22634e-15
4.68537e-15
8.15305e-15
4.85175e-15
8.08056e-15
5.01421e-15
8.00427e-15
5.18147e-15
7.93151e-15
5.34779e-15
7.86487e-15
5.50973e-15
7.80158e-15
5.66927e-15
7.74386e-15
5.8288e-15
7.69103e-15
5.98255e-15
7.64203e-15
6.13359e-15
7.60419e-15
6.26753e-15
7.5761e-15
6.39625e-15
7.54708e-15
6.52064e-15
7.5367e-15
6.63488e-15
7.53047e-15
6.7459e-15
7.52637e-15
6.85475e-15
7.52171e-15
6.96342e-15
7.51319e-15
7.06856e-15
7.50324e-15
7.15995e-15
7.50075e-15
7.23386e-15
7.50114e-15
7.29357e-15
7.49982e-15
7.37139e-15
7.49191e-15
7.44197e-15
7.49993e-15
7.47821e-15
7.51679e-15
7.52973e-15
7.55696e-15
7.56495e-15
7.58758e-15
7.56516e-15
7.58998e-15
7.56141e-15
7.5775e-15
7.56917e-15
7.58014e-15
7.60403e-15
7.61327e-15
7.62999e-15
7.66112e-15
7.67915e-15
7.67065e-15
7.68188e-15
7.70837e-15
7.70257e-15
7.74357e-15
7.72834e-15
7.7863e-15
7.80265e-15
7.80597e-15
7.81298e-15
7.86072e-15
7.97331e-15
7.98588e-15
8.07531e-15
8.12546e-15
8.13887e-15
8.14878e-15
8.24674e-15
8.22904e-15
8.38427e-15
8.40653e-15
8.4956e-15
8.47394e-15
8.68168e-15
8.6421e-15
8.65572e-15
8.85567e-15
8.96652e-15
8.98787e-15
8.89029e-15
9.10051e-15
9.16483e-15
9.13282e-15
9.09731e-15
9.0978e-15
9.15615e-15
9.19857e-15
7.7914e-15
8.60475e-15
7.7909e-15
8.60458e-15
7.7904e-15
8.60441e-15
7.78971e-15
8.6042e-15
7.78889e-15
8.60389e-15
7.78778e-15
8.60341e-15
7.78648e-15
8.60276e-15
7.78497e-15
8.60203e-15
7.78334e-15
8.60114e-15
7.78148e-15
8.60003e-15
7.77933e-15
8.59857e-15
7.77705e-15
8.59687e-15
7.77471e-15
8.59468e-15
7.77195e-15
8.59226e-15
7.76885e-15
8.58962e-15
7.76584e-15
8.58653e-15
7.76274e-15
8.58272e-15
7.76051e-15
8.5767e-15
7.75841e-15
8.56987e-15
7.75588e-15
8.56191e-15
7.75223e-15
8.55285e-15
7.7497e-15
8.54161e-15
7.74695e-15
8.53058e-15
7.74364e-15
8.51837e-15
7.73983e-15
8.5047e-15
7.73653e-15
8.49074e-15
7.73096e-15
8.47489e-15
7.72916e-15
8.45847e-15
7.72414e-15
8.44297e-15
7.71901e-15
8.42688e-15
7.72066e-15
8.40852e-15
7.7202e-15
8.38959e-15
7.71995e-15
8.37085e-15
7.72242e-15
8.34818e-15
7.7304e-15
8.32742e-15
7.73623e-15
8.30964e-15
7.74796e-15
8.29066e-15
7.76593e-15
8.26867e-15
7.77338e-15
8.25025e-15
7.76668e-15
8.2369e-15
7.78663e-15
8.22167e-15
7.78205e-15
8.22114e-15
7.79171e-15
8.21968e-15
7.80895e-15
8.20646e-15
7.82748e-15
8.19563e-15
7.84057e-15
8.17521e-15
7.84105e-15
8.15279e-15
7.85583e-15
8.12995e-15
7.86398e-15
8.10021e-15
7.85824e-15
8.07821e-15
7.89787e-15
8.05832e-15
7.9434e-15
8.04632e-15
7.96061e-15
8.04052e-15
7.96585e-15
8.02522e-15
7.96119e-15
7.99917e-15
7.96469e-15
7.99242e-15
7.96063e-15
8.00494e-15
7.96612e-15
8.00887e-15
7.9856e-15
8.00946e-15
7.97079e-15
7.98763e-15
7.97862e-15
7.99791e-15
7.99068e-15
8.00146e-15
8.00809e-15
8.02027e-15
8.03769e-15
8.01394e-15
8.01167e-15
8.00817e-15
8.05196e-15
8.05194e-15
8.06187e-15
8.06457e-15
8.14337e-15
8.13884e-15
8.23482e-15
8.26313e-15
8.15244e-15
8.30236e-15
8.22717e-15
8.36389e-15
8.39952e-15
8.44455e-15
8.41898e-15
8.47528e-15
8.70136e-15
8.69878e-15
8.88143e-15
8.83546e-15
8.90277e-15
8.89373e-15
9.1639e-15
8.99896e-15
9.13944e-15
9.13374e-15
9.24814e-15
9.11355e-15
9.24137e-15
9.25557e-15
9.15174e-15
9.17993e-15
9.33828e-15
9.32004e-15
9.42104e-15
9.40561e-15
9.50212e-15
9.41094e-15
9.49531e-15
9.47225e-15
9.43738e-15
9.43197e-15
9.3371e-15
9.49239e-15
9.36975e-15
9.39453e-15
9.34741e-15
9.33346e-15
9.27591e-15
9.28833e-15
9.25035e-15
9.25517e-15
9.16915e-15
9.17214e-15
9.15939e-15
9.17512e-15
9.16975e-15
9.17376e-15
9.11812e-15
9.11436e-15
9.10797e-15
9.09735e-15
9.07952e-15
9.11221e-15
9.0951e-15
9.12918e-15
9.11615e-15
9.14237e-15
9.11934e-15
9.1425e-15
9.15378e-15
9.18609e-15
9.17739e-15
9.19326e-15
9.19335e-15
9.20059e-15
9.20387e-15
9.20472e-15
9.19533e-15
9.20584e-15
9.19984e-15
9.20443e-15
9.21722e-15
9.21843e-15
9.23315e-15
9.23059e-15
9.24992e-15
9.23972e-15
9.25286e-15
9.23156e-15
9.24327e-15
9.24414e-15
9.24869e-15
9.26304e-15
9.25279e-15
9.26765e-15
9.24868e-15
9.25875e-15
9.25105e-15
9.25723e-15
9.2465e-15
9.26247e-15
9.25452e-15
9.26799e-15
9.2618e-15
9.26704e-15
9.26246e-15
9.27219e-15
9.25675e-15
9.26477e-15
9.26618e-15
9.25737e-15
9.2728e-15
9.26147e-15
9.27677e-15
9.26512e-15
9.26422e-15
9.27118e-15
9.26291e-15
9.27167e-15
9.2616e-15
9.27486e-15
9.26022e-15
9.26766e-15
9.26138e-15
9.26567e-15
9.26006e-15
9.26616e-15
9.25877e-15
9.26429e-15
9.25753e-15
9.26476e-15
9.25631e-15
9.26962e-15
9.25507e-15
9.2701e-15
9.25176e-15
9.26858e-15
9.25535e-15
9.26716e-15
9.25686e-15
9.26769e-15
9.25647e-15
9.2691e-15
9.25776e-15
9.26961e-15
9.25854e-15
9.2693e-15
9.2581e-15
9.26788e-15
9.25803e-15
9.26725e-15
9.25795e-15
9.26733e-15
9.25722e-15
9.2674e-15
9.25681e-15
9.26747e-15
9.25669e-15
9.26753e-15
9.25655e-15
9.26772e-15
9.25679e-15
9.26752e-15
9.25689e-15
9.26746e-15
9.25697e-15
9.26727e-15
9.25704e-15
9.26732e-15
9.25716e-15
9.26731e-15
9.25722e-15
9.26724e-15
9.25734e-15
9.26723e-15
9.25736e-15
9.26735e-15
9.25734e-15
9.26744e-15
9.25731e-15
9.2675e-15
9.25729e-15
9.26756e-15
9.25729e-15
9.26756e-15
9.25729e-15
9.26757e-15
9.25727e-15
9.26759e-15
9.30873e-15
9.35423e-15
9.45933e-15
9.32661e-15
9.45065e-15
9.45064e-15
9.47246e-15
9.47252e-15
9.60513e-15
9.54952e-15
9.51006e-15
9.46272e-15
9.40924e-15
9.46219e-15
9.41497e-15
9.38547e-15
9.35961e-15
9.39291e-15
9.27874e-15
9.29014e-15
9.2476e-15
9.25794e-15
9.26199e-15
9.2363e-15
9.22347e-15
9.21997e-15
9.20885e-15
9.21622e-15
9.15329e-15
9.13207e-15
9.21251e-15
9.13795e-15
9.23625e-15
9.1645e-15
9.23168e-15
9.21569e-15
9.17259e-15
9.27492e-15
9.13289e-15
9.30362e-15
9.16752e-15
9.22327e-15
9.20818e-15
9.22177e-15
9.22934e-15
9.24526e-15
9.21389e-15
9.23924e-15
9.23072e-15
9.25865e-15
9.2455e-15
9.2343e-15
9.23102e-15
9.24475e-15
9.21605e-15
9.27468e-15
9.22599e-15
9.24884e-15
9.23225e-15
9.24195e-15
9.24423e-15
9.26702e-15
9.25418e-15
9.27185e-15
9.25559e-15
9.27083e-15
9.249e-15
9.27088e-15
9.24135e-15
9.27247e-15
9.2525e-15
9.27593e-15
9.25587e-15
9.28727e-15
9.25796e-15
9.29346e-15
9.25236e-15
9.29485e-15
9.25163e-15
9.29166e-15
9.25277e-15
9.28092e-15
9.25896e-15
9.27141e-15
9.25303e-15
9.27405e-15
9.25506e-15
9.27712e-15
9.25109e-15
9.28328e-15
9.24931e-15
9.28985e-15
9.24955e-15
9.28912e-15
9.25175e-15
9.27893e-15
9.2511e-15
9.27431e-15
9.24785e-15
9.27718e-15
9.24669e-15
9.27912e-15
9.2497e-15
9.2824e-15
9.25129e-15
9.28263e-15
9.2516e-15
9.28409e-15
9.2527e-15
9.28571e-15
9.25547e-15
9.28465e-15
9.2553e-15
9.28469e-15
9.25588e-15
9.28572e-15
9.25553e-15
9.28601e-15
9.25661e-15
9.28716e-15
9.25684e-15
9.28906e-15
9.25597e-15
9.2896e-15
9.25635e-15
9.28989e-15
9.25693e-15
9.28965e-15
9.25659e-15
9.2895e-15
9.25649e-15
9.28915e-15
9.25647e-15
9.28913e-15
9.25641e-15
9.28952e-15
9.25644e-15
9.2896e-15
9.25655e-15
9.2896e-15
9.25652e-15
9.2894e-15
9.25646e-15
9.28929e-15
9.25651e-15
9.28908e-15
9.25664e-15
9.28895e-15
9.25665e-15
9.28897e-15
9.25665e-15
9.28902e-15
9.25665e-15
9.289e-15
9.25668e-15
9.28893e-15
9.25667e-15
9.28894e-15
9.25666e-15
9.28896e-15
)
;

boundaryField
{
    walls
    {
        type            zeroGradient;
    }
    inlet
    {
        type            cyclic;
    }
    outlet
    {
        type            cyclic;
    }
    sides
    {
        type            empty;
    }
}


// ************************************************************************* //
