/*--------------------------------*- C++ -*----------------------------------*\
| =========                 |                                                 |
| \\      /  F ield         | OpenFOAM: The Open Source CFD Toolbox           |
|  \\    /   O peration     | Version:  2106                                  |
|   \\  /    A nd           | Website:  www.openfoam.com                      |
|    \\/     M anipulation  |                                                 |
\*---------------------------------------------------------------------------*/
FoamFile
{
    version     2.0;
    format      ascii;
    arch        "LSB;label=32;scalar=64";
    class       volTensorField;
    location    "9000";
    object      grad(U);
}
// * * * * * * * * * * * * * * * * * * * * * * * * * * * * * * * * * * * * * //

dimensions      [0 0 -1 0 0 0 0];

internalField   nonuniform List<tensor> 
2560
(
(0 -8.14261e-25 0 10.8673 -1.61559e-27 1.83908e-13 0.015732 -3.15544e-30 1.04929e-16)
(0 -4.15781e-30 2.4443e-27 10.8673 1.56683e-15 1.30748e-13 0.015732 1.29146e-18 7.42113e-17)
(0 1.02455e-30 8.77996e-27 10.8655 -6.45351e-12 -3.51007e-34 0.0474193 -5.35038e-15 0)
(-9.01208e-18 0 0 10.8655 3.27095e-15 8.84723e-14 0.0474193 3.6466e-18 2.11473e-16)
(1.57744e-17 -3.76013e-25 -1.79867e-33 10.864 1.61567e-27 1.24291e-14 0.0652126 0 2.48503e-16)
(-1.77658e-17 1.61579e-29 0 10.864 4.85197e-15 6.64098e-15 0.0652126 1.18039e-17 1.91139e-16)
(2.3897e-17 -1.59263e-29 1.52819e-32 10.8627 3.1784e-12 4.03186e-14 0.0661541 -2.90971e-14 2.38991e-16)
(-1.75112e-17 1.59263e-29 0 10.8627 4.54621e-15 6.73284e-15 0.0661541 1.90438e-17 2.24109e-16)
(1.72602e-17 -2.35471e-29 1.22641e-31 10.8617 2.16995e-14 3.64571e-14 0.0671107 -8.79677e-16 2.08063e-16)
(0 1.96226e-29 -1.22641e-31 10.8617 4.57864e-15 6.82421e-15 0.0671107 2.66043e-17 2.30732e-16)
(1.53652e-17 -1.94483e-29 2.82162e-31 10.861 -8.0943e-14 3.33925e-14 0.0680829 -3.81433e-16 2.07569e-16)
(1.22922e-16 1.93473e-29 -2.41767e-31 10.861 4.57835e-15 6.91696e-15 0.0680829 2.88446e-17 2.37566e-16)
(-1.99523e-17 -2.75058e-28 7.30471e-32 10.8605 -3.23687e-14 3.35706e-14 0.0690708 -1.02188e-16 2.16423e-16)
(7.98094e-17 1.90711e-29 -1.19151e-31 10.8605 4.60565e-15 7.01079e-15 0.0690708 2.93188e-17 2.4462e-16)
(-2.46058e-17 1.53124e-29 -5.20954e-32 10.8603 -1.13438e-14 3.44808e-14 0.0700747 -4.27153e-17 2.25396e-16)
(9.84231e-17 -3.7471e-30 0 10.8603 4.62524e-15 7.10665e-15 0.0700747 2.99423e-17 2.51897e-16)
(6.19101e-17 -1.51508e-29 2.89981e-31 10.8604 -7.09688e-15 3.53287e-14 0.0710948 -4.95786e-17 2.33864e-16)
(0 1.48173e-29 -2.3152e-31 10.8604 4.67873e-15 7.20451e-15 0.0710948 3.0878e-17 2.59409e-16)
(-1.28466e-16 7.30244e-30 0 10.8607 -7.85598e-15 3.61159e-14 0.0721315 -5.40496e-17 2.42455e-16)
(0 0 0 10.8607 4.74651e-15 7.30225e-15 0.0721315 3.17198e-17 2.67163e-16)
(2.43375e-17 -1.75538e-29 -7.20083e-32 10.8613 -8.13901e-15 3.68899e-14 0.073185 -5.4845e-17 2.51144e-16)
(-6.33124e-17 2.51922e-29 -2.24931e-31 10.8613 4.82004e-15 7.4012e-15 0.073185 3.27734e-17 2.75163e-16)
(4.39045e-17 -3.24192e-29 7.59132e-31 10.8621 -8.13155e-15 2.98423e-14 0.0742555 -5.55309e-17 1.53204e-16)
(0 2.12839e-29 -4.43414e-31 10.8621 4.87111e-15 7.50133e-15 0.0742555 3.33472e-17 2.83423e-16)
(6.15105e-17 -1.39859e-29 4.37058e-31 10.8631 -8.12956e-15 2.26255e-14 0.0753434 -5.6424e-17 1.58399e-16)
(0 1.74823e-29 -4.37058e-31 10.8631 4.90188e-15 7.60223e-15 0.0753434 3.41602e-17 2.91949e-16)
(-5.39806e-17 1.09359e-29 -3.18127e-31 10.8644 -8.12095e-15 2.30566e-14 0.076449 -5.70364e-17 1.63758e-16)
(2.15923e-16 3.74424e-32 0 10.8644 4.93389e-15 7.70393e-15 0.076449 3.47745e-17 3.00752e-16)
(0 2.37787e-29 -4.2462e-31 10.866 -8.15084e-15 2.34939e-14 0.0775724 -5.85037e-17 1.69282e-16)
(0 -2.37787e-29 4.2462e-31 10.866 5.01507e-15 7.8065e-15 0.0775724 3.63199e-17 3.0984e-16)
(-6.43537e-17 4.0454e-30 -1.12067e-31 10.8677 -8.25422e-15 2.39373e-14 0.0787142 -6.02045e-17 1.74977e-16)
(2.57415e-16 4.6619e-32 0 10.8677 5.16109e-15 7.9114e-15 0.0787142 3.79083e-17 3.19226e-16)
(0 1.98017e-29 -8.25071e-31 10.8697 -8.36031e-15 2.43871e-14 0.0798744 -6.17764e-17 1.80851e-16)
(-2.78618e-16 -1.98545e-29 8.25071e-31 10.8697 5.16526e-15 8.01668e-15 0.0798744 3.7445e-17 3.28922e-16)
(0 2.60238e-29 -4.06623e-31 10.872 -8.50674e-15 2.48433e-14 0.0810535 -6.41512e-17 1.86904e-16)
(-3.00133e-16 -2.60817e-29 4.06623e-31 10.872 5.15391e-15 8.12241e-15 0.0810535 3.88496e-17 3.38929e-16)
(2.25627e-16 -1.92381e-29 6.01192e-31 10.8745 -8.62465e-15 2.53056e-14 0.0822518 -6.53696e-17 1.93143e-16)
(-1.12814e-16 1.92381e-29 -2.00397e-31 10.8745 5.20903e-15 8.22922e-15 0.0822518 3.93755e-17 3.49265e-16)
(8.60296e-17 8.59113e-30 -2.62296e-31 10.8772 -8.61247e-15 2.57749e-14 0.0834696 -6.58435e-17 1.9958e-16)
(-3.44118e-16 -1.9032e-29 7.90101e-31 10.8772 5.19006e-15 8.33559e-15 0.0834696 3.96966e-17 3.59941e-16)
(0 2.49208e-29 -7.78776e-31 10.8802 -8.66237e-15 2.62515e-14 0.0847072 -6.80613e-17 2.06222e-16)
(0 -2.49208e-29 7.78776e-31 10.8802 5.21649e-15 8.44087e-15 0.0847072 4.09404e-17 3.70969e-16)
(1.06793e-17 4.05288e-30 -1.44192e-31 10.8833 -8.84636e-15 2.67353e-14 0.085965 -7.06785e-17 2.13068e-16)
(-1.08032e-16 1.22818e-29 -3.83807e-31 10.8833 5.30021e-15 8.54774e-15 0.085965 4.21818e-17 3.82345e-16)
(2.16311e-16 -3.83161e-29 9.84711e-31 10.8868 -9.0041e-15 2.72259e-14 0.0872433 -7.25828e-17 2.20124e-16)
(-2.12968e-16 3.63174e-29 -1.13492e-30 10.8868 5.36338e-15 8.65762e-15 0.0872433 4.3152e-17 3.94097e-16)
(0 2.38646e-29 -3.72884e-31 10.8904 -8.97424e-15 2.77233e-14 0.0885424 -7.22634e-17 2.27396e-16)
(-4.36056e-16 -2.39579e-29 3.72884e-31 10.8904 5.35056e-15 8.76954e-15 0.0885424 4.32091e-17 4.06246e-16)
(1.14975e-16 1.9465e-29 -5.72223e-31 10.8943 -8.89887e-15 2.82285e-14 0.0898628 -7.34658e-17 2.34904e-16)
(0 -2.35225e-29 7.3508e-31 10.8943 5.24623e-15 8.88176e-15 0.0898628 4.26951e-17 4.18796e-16)
(-4.45989e-16 4.28956e-29 -1.42582e-30 10.8984 -9.0258e-15 2.87418e-14 0.0912048 -7.65043e-17 2.42648e-16)
(2.03941e-16 -3.47781e-29 1.08682e-30 10.8984 5.23921e-15 8.99178e-15 0.0912048 4.43574e-17 4.31768e-16)
(3.81489e-16 -5.21734e-29 1.95745e-30 10.9027 -9.24355e-15 2.92624e-14 0.0925687 -7.93147e-17 2.50624e-16)
(1.01731e-15 4.59286e-29 -1.07124e-30 10.9027 5.45997e-15 9.10374e-15 0.0925687 4.76938e-17 4.45162e-16)
(1.98137e-16 -2.25256e-29 1.05589e-30 10.9073 -9.39269e-15 2.97902e-14 0.0939549 -8.13143e-17 2.58846e-16)
(3.35439e-16 2.26437e-29 -1.05589e-30 10.9073 5.64413e-15 9.21741e-15 0.0939549 4.88287e-17 4.59005e-16)
(1.39718e-16 1.25885e-29 -8.49923e-31 10.912 -9.4427e-15 3.03259e-14 0.0953638 -8.25121e-17 2.67327e-16)
(0 -1.11014e-29 6.93835e-31 10.912 5.58153e-15 9.33294e-15 0.0953638 4.7997e-17 4.73303e-16)
(-2.92273e-16 1.36014e-29 -3.96845e-31 10.917 -9.48211e-15 3.08697e-14 0.0967958 -8.43948e-17 2.76069e-16)
(-1.16909e-15 -5.73752e-30 0 10.917 5.51596e-15 9.45092e-15 0.0967958 4.90966e-17 4.88087e-16)
(-1.52651e-16 2.02449e-29 -5.43314e-31 10.9223 -9.56367e-15 3.14215e-14 0.0982512 -8.63962e-17 2.85083e-16)
(-6.10604e-16 -5.53208e-30 0 10.9223 5.59732e-15 9.56226e-15 0.0982512 5.08665e-17 5.03376e-16)
(0 2.12617e-29 -1.32885e-30 10.9277 -9.73669e-15 3.19812e-14 0.0997305 -9.00244e-17 2.9437e-16)
(-6.37053e-16 -2.14082e-29 1.32885e-30 10.9277 5.74211e-15 9.66669e-15 0.0997305 5.31769e-17 5.19156e-16)
(3.68678e-16 -2.09569e-29 9.82356e-31 10.9334 -9.91746e-15 3.25482e-14 0.101234 -9.22737e-17 3.03932e-16)
(2.95221e-16 2.11107e-29 -9.82356e-31 10.9334 5.89027e-15 9.77492e-15 0.101234 5.50995e-17 5.35436e-16)
(-1.72787e-16 9.23638e-30 -2.31445e-31 10.9392 -9.86532e-15 3.31233e-14 0.102762 -9.16821e-17 3.13794e-16)
(0 5.16414e-30 0 10.9392 5.79008e-15 9.89057e-15 0.102762 5.28528e-17 5.52261e-16)
(-1.79702e-16 2.95246e-29 -8.76668e-31 10.9453 -9.86124e-15 3.37074e-14 0.104316 -9.48989e-17 3.23966e-16)
(0 -2.54506e-29 6.36266e-31 10.9453 5.69521e-15 1.00101e-14 0.104316 5.49057e-17 5.69656e-16)
(-1.86721e-16 2.41443e-29 -1.50395e-30 10.9516 -1.00829e-14 3.42995e-14 0.105894 -9.8653e-17 3.34433e-16)
(-7.46886e-16 -1.52306e-29 6.27146e-31 10.9516 5.86419e-15 1.01291e-14 0.105894 5.76679e-17 5.87637e-16)
(1.93847e-16 -2.38589e-29 2.59227e-31 10.9581 -1.01384e-14 3.48993e-14 0.107499 -9.87684e-17 3.45222e-16)
(0 1.9781e-29 0 10.9581 5.86322e-15 1.02409e-14 0.107499 5.6495e-17 6.06237e-16)
(2.0108e-16 -2.3577e-29 1.48771e-30 10.9648 -1.02326e-14 3.55072e-14 0.10913 -1.03417e-16 3.56326e-16)
(0 1.94975e-29 -1.2186e-30 10.9648 5.83697e-15 1.03564e-14 0.10913 5.88348e-17 6.25415e-16)
(-2.08422e-16 2.32995e-29 -8.79782e-31 10.9717 -1.04856e-14 3.61229e-14 0.110787 -1.06768e-16 3.67763e-16)
(0 -9.60904e-30 0 10.9717 6.00806e-15 1.04704e-14 0.110787 6.1604e-17 6.45271e-16)
(-3.33242e-16 1.89426e-29 -1.18391e-30 10.9788 -1.04798e-14 3.67474e-14 0.112472 -1.06328e-16 3.79557e-16)
(3.33242e-16 -2.36783e-29 1.18391e-30 10.9788 5.95961e-15 1.05771e-14 0.112472 5.9566e-17 6.65764e-16)
(-2.23442e-16 1.34214e-29 -3.08741e-31 10.9861 -1.04951e-14 3.44381e-14 0.114184 -1.10215e-16 3.30548e-16)
(8.93769e-16 2.23101e-31 -5.83473e-31 10.9861 6.00389e-15 1.06883e-14 0.114184 6.43287e-17 6.86923e-16)
(3.23758e-16 -2.76053e-29 5.60597e-28 10.9936 -1.08065e-14 0 0.115924 -1.16006e-16 0)
(6.00737e-16 2.78379e-29 -1.72533e-30 10.9936 6.21314e-15 1.07981e-14 0.115924 6.57223e-17 7.08781e-16)
(2.38922e-16 1.40492e-29 -7.88852e-31 11.0012 -1.09226e-14 -1.10184e-14 0.117692 -1.15928e-16 1.12549e-16)
(-9.55689e-16 -2.29196e-29 1.13374e-30 11.0012 6.05601e-15 1.09114e-14 0.117692 6.28525e-17 7.31327e-16)
(2.4684e-16 -2.6443e-29 8.97291e-31 11.009 -1.08254e-14 -1.16972e-14 0.119489 -1.17295e-16 1.21484e-16)
(0 2.23497e-29 -5.58743e-31 11.009 5.97632e-15 1.10223e-14 0.119489 6.5918e-17 7.54629e-16)
(-2.54877e-16 -3.10236e-31 -3.31845e-31 11.017 -1.08991e-14 -1.23746e-14 0.121315 -1.20947e-16 1.30575e-16)
(0 1.32176e-29 -5.50735e-31 11.017 6.09351e-15 1.1121e-14 0.121315 6.72737e-17 7.78694e-16)
(2.63038e-16 4.58689e-30 3.24748e-31 11.0251 -1.08755e-14 -1.30618e-14 0.12317 -1.20202e-16 1.39956e-16)
(7.46559e-16 2.75036e-31 0 11.0251 6.10717e-15 1.12209e-14 0.12317 6.81541e-17 8.03511e-16)
(3.01213e-16 -8.56098e-30 5.35061e-31 11.0333 -1.08317e-14 -1.37556e-14 0.125055 -1.23499e-16 1.4975e-16)
(1.08529e-15 1.31285e-29 0 11.0333 6.06195e-15 1.13267e-14 0.125055 6.82198e-17 8.29123e-16)
(-2.79735e-16 -1.16183e-31 -3.09285e-31 11.0416 -1.10873e-14 -1.44498e-14 0.12697 -1.29599e-16 1.59776e-16)
(0 1.26574e-29 0 11.0416 6.01846e-15 1.14353e-14 0.12697 6.91506e-17 8.55562e-16)
(-2.88275e-16 4.10584e-30 -3.00915e-31 11.0501 -1.1216e-14 -1.5149e-14 0.128915 -1.30119e-16 1.70097e-16)
(0 8.31733e-30 0 11.0501 6.07182e-15 1.15365e-14 0.128915 7.14629e-17 8.82907e-16)
(2.88446e-16 -8.19813e-30 5.12383e-31 11.0586 -1.11212e-14 -1.58492e-14 0.130891 -1.3115e-16 1.80765e-16)
(0 1.63963e-29 0 11.0586 6.22806e-15 1.16337e-14 0.130891 7.48732e-17 9.11077e-16)
(-5.90062e-16 4.11116e-30 -2.82829e-31 11.0671 -1.12054e-14 -1.6557e-14 0.132897 -1.35953e-16 1.91647e-16)
(0 1.21209e-29 -1.01008e-30 11.0671 6.20516e-15 1.17289e-14 0.132897 7.30067e-17 9.40179e-16)
(-2.80237e-16 3.18592e-29 -1.4934e-30 11.0757 -1.13535e-14 -1.72778e-14 0.134934 -1.386e-16 2.03053e-16)
(-1.25876e-15 -2.82217e-29 9.95601e-31 11.0757 6.09802e-15 1.18113e-14 0.134934 7.4457e-17 9.70196e-16)
(-3.23765e-16 -1.94342e-29 7.18538e-31 11.0843 -1.11867e-14 -1.79922e-14 0.137003 -1.35814e-16 2.14817e-16)
(1.01884e-15 2.39103e-29 -9.81332e-31 11.0843 5.99807e-15 1.18871e-14 0.137003 7.26753e-17 1.00111e-15)
(-5.44523e-16 1.93453e-29 -4.83633e-31 11.0929 -1.12737e-14 -1.87082e-14 0.139102 -1.44841e-16 2.26655e-16)
(5.44523e-16 -1.93453e-29 4.83633e-31 11.0929 5.90618e-15 1.19732e-14 0.139102 7.43345e-17 1.03296e-15)
(-8.79055e-16 1.93763e-29 -2.40808e-31 11.1014 -1.18087e-14 -1.94327e-14 0.141232 -1.53398e-16 2.3906e-16)
(1.90606e-15 -1.48739e-29 0 11.1014 6.31272e-15 1.20615e-14 0.141232 8.51443e-17 1.06588e-15)
(7.03673e-16 -2.32875e-29 9.27926e-31 11.1098 -1.19073e-14 -2.01484e-14 0.143394 -1.51629e-16 2.5172e-16)
(1.40735e-15 1.54348e-29 -4.69869e-31 11.1098 6.4706e-15 1.21433e-14 0.143394 8.0586e-17 1.09971e-15)
(5.21443e-16 -7.41016e-30 4.63135e-31 11.1181 -1.19282e-14 -2.08673e-14 0.145587 -1.5844e-16 2.64532e-16)
(0 1.11152e-29 -4.63135e-31 11.1181 6.12488e-15 1.22099e-14 0.145587 7.85876e-17 1.13465e-15)
(-3.71276e-16 -6.82417e-30 -2.03879e-31 11.1262 -1.21897e-14 -2.15885e-14 0.14781 -1.63016e-16 2.77914e-16)
(0 1.82599e-29 -4.56497e-31 11.1262 6.34321e-15 1.2261e-14 0.14781 8.87455e-17 1.17058e-15)
(-7.62438e-16 2.62703e-29 -8.30927e-31 11.1341 -1.2053e-14 -2.23134e-14 0.150064 -1.59398e-16 2.91436e-16)
(1.52488e-15 -2.11567e-29 4.49954e-31 11.1341 6.46027e-15 1.23152e-14 0.150064 8.40441e-17 1.20754e-15)
(-3.91315e-16 4.13933e-30 -1.76474e-31 11.1417 -1.18245e-14 -2.30466e-14 0.152347 -1.61544e-16 3.05588e-16)
(0 7.09608e-30 0 11.1417 6.17744e-15 1.23727e-14 0.152347 8.36131e-17 9.65322e-16)
(-4.01565e-16 6.44559e-31 -1.61883e-31 11.149 -1.20131e-14 -2.3766e-14 0.15466 -1.69297e-16 3.20018e-16)
(1.60626e-15 1.09571e-29 4.4903e-31 11.149 6.48787e-15 1.24206e-14 0.15466 9.5116e-17 4.75775e-16)
(-4.11972e-16 1.44874e-29 -1.46751e-31 11.1558 -1.19806e-14 -2.44835e-14 0.157002 -1.65364e-16 3.34493e-16)
(0 -3.44706e-30 0 11.1558 6.25152e-15 1.24351e-14 0.157002 7.94118e-17 1.74904e-16)
(-1.32325e-15 3.20839e-29 2.19967e-31 11.1621 -1.16485e-14 -2.52121e-14 0.159372 -1.64775e-16 5.55702e-16)
(-1.21197e-15 -2.42864e-29 -1.08415e-30 11.1621 5.84204e-15 1.24564e-14 0.159372 8.62124e-17 1.78159e-16)
(-1.33785e-15 -1.84862e-29 -4.44071e-31 11.1679 -1.1704e-14 -2.59347e-14 0.161769 -1.71815e-16 1.09895e-15)
(3.46611e-15 2.44744e-29 1.78203e-30 11.1679 6.0575e-15 1.2473e-14 0.161769 8.79784e-17 1.80507e-16)
(-1.33246e-15 4.54797e-29 0 11.1731 -1.18218e-14 -2.66627e-14 0.164192 -1.73062e-16 1.08383e-15)
(-1.77661e-15 -3.35448e-29 -1.11695e-30 11.1731 5.91638e-15 1.24654e-14 0.164192 8.45914e-17 1.83155e-16)
(-1.37103e-15 -1.53615e-29 -1.22012e-30 11.1775 -1.17963e-14 -2.73954e-14 0.166639 -1.76087e-16 9.72667e-16)
(1.82082e-15 2.00667e-29 1.94758e-30 11.1775 6.01952e-15 1.2469e-14 0.166639 9.36301e-17 1.85903e-16)
(9.17773e-16 -1.6992e-29 -4.00877e-31 11.181 -1.18533e-14 -2.81065e-14 0.16911 -1.79856e-16 8.57144e-16)
(-4.51348e-16 1.28281e-29 4.00877e-31 11.181 5.88692e-15 1.24348e-14 0.16911 8.30588e-17 1.87485e-16)
(0 -3.16105e-29 -1.1854e-30 11.1837 -1.18813e-14 -2.88058e-14 0.171601 -1.82105e-16 7.37264e-16)
(1.91126e-15 3.21954e-29 1.96171e-30 11.1837 5.47696e-15 1.2395e-14 0.171601 8.37933e-17 1.90127e-16)
(4.38503e-16 -1.2463e-29 0 11.1852 -1.17275e-14 -2.94903e-14 0.174111 -1.80335e-16 6.1286e-16)
(1.95749e-15 1.3064e-29 1.19099e-30 11.1852 5.41955e-15 1.23762e-14 0.174111 8.37046e-17 1.92393e-16)
(-1.29665e-15 2.45687e-29 -3.83886e-31 11.1856 -1.12989e-14 -3.01846e-14 0.176639 -1.73906e-16 4.84e-16)
(2.00441e-15 -1.16673e-29 8.27536e-31 11.1856 5.36837e-15 1.23346e-14 0.176639 8.46316e-17 1.94382e-16)
(-8.52046e-16 3.02707e-29 7.56769e-31 11.1846 -1.12475e-14 -3.08866e-14 0.179181 -1.83969e-16 3.50445e-16)
(8.52046e-16 -3.02707e-29 -7.56769e-31 11.1846 5.25035e-15 1.22672e-14 0.179181 8.23747e-17 1.95871e-16)
(-1.05017e-15 8.36169e-30 0 11.1822 -1.19275e-14 -1.63496e-14 0.181734 -2.01105e-16 2.1222e-16)
(0 0 0 11.1822 5.43498e-15 1.21556e-14 0.181734 9.31131e-17 1.96448e-16)
(0 -2.35274e-29 -7.35231e-31 11.1781 -1.24002e-14 1.37049e-16 0.184296 -2.04952e-16 1.93052e-16)
(2.14937e-15 2.41839e-29 1.64622e-30 11.1781 6.05278e-15 1.20162e-14 0.184296 1.05164e-16 1.9701e-16)
(-8.15932e-16 1.73926e-29 3.62347e-31 11.1723 -1.20416e-14 1.73058e-15 0.186863 -1.94996e-16 1.87037e-16)
(2.19909e-15 -1.09099e-29 5.77856e-31 11.1723 5.84539e-15 1.18649e-14 0.186863 8.89011e-17 1.97138e-16)
(-5.62383e-16 4.19502e-30 0 11.1645 -1.14417e-14 1.72204e-15 0.18943 -1.90589e-16 1.81095e-16)
(0 1.14289e-29 3.57153e-31 11.1645 4.8684e-15 2.41239e-14 0.18943 7.50778e-17 6.18948e-16)
(5.75171e-16 7.06641e-30 0 11.1546 -1.13019e-14 1.70479e-15 0.191996 -1.95893e-16 6.99769e-17)
(0 0 -7.04069e-31 11.1546 4.70702e-15 4.17703e-14 0.191996 8.59471e-17 8.1068e-16)
(7.8135e-16 -1.11036e-29 -6.93978e-31 11.1424 -1.15577e-14 1.68062e-15 0.194553 -2.05109e-16 -8.92413e-17)
(0 1.66555e-29 1.38796e-30 11.1424 5.29343e-15 4.72917e-14 0.194553 9.77677e-17 8.30011e-16)
(7.70151e-16 -1.09445e-29 0 11.1277 -1.18614e-14 1.66963e-15 0.197099 -2.12399e-16 -2.53466e-16)
(-7.70151e-16 1.64168e-29 6.84031e-31 11.1277 5.32221e-15 4.77063e-14 0.197099 8.9485e-17 8.49125e-16)
(-4.70109e-16 -2.36711e-30 0 11.1104 -1.19501e-14 1.67508e-15 0.199628 -2.14308e-16 -4.22642e-16)
(0 1.61815e-29 6.74227e-31 11.1104 4.89051e-15 4.808e-14 0.199628 8.51051e-17 8.67764e-16)
(-6.28115e-16 2.0166e-29 1.32913e-30 11.0901 -1.15807e-14 1.6551e-15 0.202134 -2.05141e-16 -5.96551e-16)
(0 -1.59495e-29 -1.32913e-30 11.0901 4.891e-15 4.84282e-14 0.202134 9.21241e-17 8.86706e-16)
(6.41797e-16 1.01863e-30 0 11.0668 -1.10415e-14 1.6016e-15 0.204613 -2.00625e-16 -7.75902e-16)
(-3.3047e-15 -6.07957e-30 -1.93213e-30 11.0668 4.12259e-15 4.87054e-14 0.204613 5.91523e-17 9.03446e-16)
(7.26938e-16 -1.03304e-29 0 11.0402 -1.10733e-14 1.59226e-15 0.207057 -2.12346e-16 -9.60151e-16)
(-2.62262e-15 1.46452e-29 -7.54165e-31 11.0402 3.39439e-15 4.88768e-14 0.207057 6.74729e-17 9.19116e-16)
(-6.6969e-16 2.45951e-29 1.90919e-30 11.0101 -1.09751e-14 1.59337e-15 0.209461 -2.02758e-16 -1.14899e-15)
(4.641e-15 -8.46099e-30 1.14182e-30 11.0101 3.87279e-15 4.89992e-14 0.209461 7.9114e-17 9.34576e-16)
(-2.2353e-17 1.58386e-29 2.5091e-30 10.9764 -1.06531e-14 1.54387e-15 0.211819 -2.06121e-16 -1.34256e-15)
(3.44184e-15 -2.92162e-29 -8.55449e-31 10.9764 3.49191e-15 4.91097e-14 0.211819 5.47256e-17 9.50313e-16)
(0 0 0 10.9388 -1.06515e-14 1.50528e-15 0.214123 -2.08632e-16 -1.54103e-15)
(0 9.89256e-30 1.23657e-30 10.9388 3.15246e-15 4.91499e-14 0.214123 6.81183e-17 9.6353e-16)
(6.59479e-16 -2.50073e-29 -3.65654e-30 10.8972 -1.02273e-14 1.50372e-15 0.216368 -1.95281e-16 -1.74361e-15)
(1.47898e-15 3.01843e-29 5.57754e-30 10.8972 2.89524e-15 4.90964e-14 0.216368 4.60936e-17 9.76019e-16)
(-7.27532e-16 1.386e-29 2.40276e-30 10.8514 -9.92643e-15 1.43338e-15 0.218546 -2.02598e-16 -1.95063e-15)
(-2.91013e-15 -5.75776e-30 -4.46196e-30 10.8514 2.22739e-15 4.89839e-14 0.218546 4.31533e-17 9.87214e-16)
(7.42405e-16 -2.32008e-29 -2.36832e-30 10.8013 -9.94237e-15 1.39446e-15 0.220652 -2.01655e-16 -2.16233e-15)
(2.96962e-15 1.99096e-29 4.57012e-30 10.8013 2.49023e-15 4.87434e-14 0.220652 5.8209e-17 9.94762e-16)
(-2.07157e-15 3.22715e-29 4.66875e-30 10.7466 -9.85049e-15 1.38835e-15 0.222677 -2.04715e-16 -2.37728e-15)
(4.34387e-15 -2.70171e-29 -2.32268e-30 10.7466 2.49199e-15 4.84248e-14 0.222677 4.44905e-17 1.00289e-15)
(-7.72617e-16 -3.39786e-31 0 10.6873 -1.01886e-14 1.33044e-15 0.224616 -2.21814e-16 -2.59627e-15)
(0 4.60183e-30 0 10.6873 2.16702e-15 4.80768e-14 0.224616 4.62146e-17 1.00923e-15)
(-7.87946e-16 4.26952e-30 0 10.6233 -1.01363e-14 1.29367e-15 0.226463 -2.08478e-16 -2.81849e-15)
(0 9.07175e-30 1.13397e-30 10.6233 2.34954e-15 4.76144e-14 0.226463 5.36e-17 1.0125e-15)
(-8.03418e-16 -1.36053e-29 -4.47087e-30 10.5545 -8.99321e-15 1.26646e-15 0.228211 -1.78711e-16 -3.04329e-15)
(3.21367e-15 2.34074e-29 7.26583e-30 10.5545 2.37627e-15 4.70693e-14 0.228211 4.87281e-17 1.01514e-15)
(8.19025e-16 -1.74991e-29 -2.20339e-30 10.4809 -8.63542e-15 1.19029e-15 0.229855 -1.98835e-16 -3.27031e-15)
(0 1.32204e-29 2.20339e-30 10.4809 2.05454e-15 4.64669e-14 0.229855 4.10073e-17 1.01564e-15)
(1.22262e-15 -8.68725e-30 -1.08591e-30 10.4024 -8.94049e-15 1.15041e-15 0.23139 -1.97571e-16 -3.49949e-15)
(-1.22262e-15 1.30309e-29 3.25772e-30 10.4024 6.0007e-16 4.57334e-14 0.23139 6.65166e-18 1.01212e-15)
(-8.5062e-16 -8.55784e-30 -1.07034e-30 10.319 -8.90511e-15 1.10024e-15 0.23281 -2.03056e-16 -3.72967e-15)
(0 2.14069e-29 2.14069e-30 10.319 8.33791e-16 4.49239e-14 0.23281 3.10315e-17 1.00871e-15)
(1.18783e-15 -4.22001e-29 -6.33001e-30 10.2308 -8.84003e-15 1.06239e-15 0.234113 -2.00367e-16 -3.9621e-15)
(5.74492e-15 4.44304e-29 1.42316e-29 10.2308 1.79702e-15 4.4021e-14 0.234113 5.11259e-17 1.00026e-15)
(-1.1708e-15 4.15952e-30 -1.03988e-30 10.1378 -8.08425e-15 1.0686e-15 0.235294 -1.73756e-16 -4.19445e-15)
(3.5307e-15 -5.60519e-45 5.66088e-30 10.1378 2.51449e-29 4.30959e-14 0.235294 0 9.95112e-16)
(-2.05288e-15 3.7106e-29 4.09991e-30 10.0402 -6.75266e-15 9.63397e-16 0.23635 -1.4323e-16 -4.42724e-15)
(-3.59542e-15 -2.98704e-29 -8.86463e-30 10.0402 -5.24422e-16 4.22029e-14 0.23635 1.31512e-17 9.87312e-16)
(2.22356e-16 2.45052e-29 5.05143e-30 9.93795 -7.79827e-15 8.77608e-16 0.23728 -2.2904e-16 -4.66109e-15)
(-3.6605e-15 -1.73513e-29 -6.92309e-30 9.93795 1.95744e-16 4.11117e-14 0.23728 2.10347e-17 9.7188e-16)
(0 1.19497e-29 3.98323e-30 9.83135 -7.52824e-15 8.39097e-16 0.238082 -1.34274e-16 -4.89436e-15)
(0 -3.98323e-30 -3.98323e-30 9.83135 7.10329e-16 4.22641e-14 0.238082 1.32542e-17 1.07236e-15)
(0 1.57045e-29 1.96307e-30 9.72052 -5.07955e-15 9.00424e-16 0.238755 -1.14757e-16 -5.12748e-15)
(3.79162e-15 1.75162e-46 2.15503e-30 9.72052 -2.48286e-29 4.37634e-14 0.238755 -2.16592e-46 1.07443e-15)
(-1.21414e-15 4.21076e-29 5.8048e-30 9.60568 -4.30468e-15 8.28937e-16 0.239299 -9.93642e-17 -5.35834e-15)
(1.08927e-15 -3.86986e-29 -7.73973e-30 9.60568 -1.88133e-15 4.30096e-14 0.239299 4.27855e-17 1.06599e-15)
(0 -4.95872e-29 -1.14432e-29 9.48705 -4.52816e-15 6.70055e-16 0.239715 -1.29485e-16 -5.5916e-15)
(7.84755e-15 5.20768e-29 2.03001e-29 9.48705 -1.63163e-15 4.18736e-14 0.239715 5.09021e-17 1.04812e-15)
(1.05827e-15 -1.12792e-29 -1.87986e-30 9.36489 -5.08687e-15 7.0628e-16 0.240005 -1.31103e-16 -5.8174e-15)
(7.9803e-15 1.758e-29 1.2925e-29 9.36489 -2.05864e-15 4.05897e-14 0.240005 3.13396e-17 1.03097e-15)
(-2.02834e-15 8.66629e-30 0 9.23945 -5.21944e-15 6.8475e-16 0.240171 -1.40218e-16 -6.02791e-15)
(0 0 0 9.23945 -2.07372e-15 3.93362e-14 0.240171 7.44254e-17 1.01321e-15)
(-1.03083e-15 4.33819e-30 0 9.11102 -5.06545e-15 5.43677e-16 0.240215 -1.26765e-16 -6.23726e-15)
(8.24662e-15 9.89919e-30 1.15979e-29 9.11102 -8.87436e-16 3.8045e-14 0.240215 3.30474e-17 9.92596e-16)
(1.04751e-15 -1.51443e-29 -5.40056e-30 8.9799 -4.2852e-15 4.98988e-16 0.240141 -1.02284e-16 -6.44404e-15)
(0 1.08011e-29 5.40056e-30 8.9799 -1.01719e-15 3.66866e-14 0.240141 1.3603e-17 9.69694e-16)
(-1.0642e-15 4.34806e-30 0 8.84637 -3.37356e-15 5.43379e-16 0.239953 -8.0644e-17 -6.64641e-15)
(0 7.09755e-30 1.77439e-30 8.84637 -3.31575e-15 3.53085e-14 0.239953 8.35237e-17 9.46339e-16)
(-1.08089e-15 1.83427e-29 5.24686e-30 8.71076 -2.80224e-15 5.06475e-16 0.239655 -7.35951e-17 -6.84582e-15)
(4.32355e-15 -1.26965e-29 5.47235e-32 8.71076 -3.09551e-15 3.39734e-14 0.239655 9.65167e-17 9.24057e-16)
(-1.09757e-15 1.81441e-29 3.44778e-30 8.57337 -2.57899e-15 4.62042e-16 0.239251 -7.04447e-17 -7.04307e-15)
(4.39029e-15 -5.57561e-30 1.98072e-30 8.57337 -2.80677e-15 3.26667e-14 0.239251 7.37562e-17 9.00535e-16)
(-2.22849e-15 1.91484e-30 0 8.4345 -2.37773e-15 4.34987e-16 0.238748 -6.42623e-17 -7.23636e-15)
(0 6.79672e-30 0 8.4345 -2.93627e-15 3.13061e-14 0.238748 8.30978e-17 8.7346e-16)
(-1.13089e-15 2.44547e-29 3.34965e-30 8.29447 -2.28428e-15 3.30529e-16 0.23815 -6.70958e-17 -7.42577e-15)
(0 -1.33986e-29 -3.34965e-30 8.29447 -3.46377e-15 2.98791e-14 0.23815 8.33088e-17 8.44271e-16)
(0 -1.32066e-29 -1.65082e-30 8.15356 -3.11417e-15 2.34974e-16 0.237462 -1.14906e-16 -7.61239e-15)
(-4.59005e-15 1.85185e-29 -2.49366e-30 8.15356 -2.82013e-15 2.83792e-14 0.237462 1.71714e-16 8.10919e-16)
(2.99612e-15 -2.38879e-29 -3.25432e-30 8.01206 -3.52387e-15 2.52427e-16 0.236691 -9.34839e-17 -7.7954e-15)
(2.82437e-15 2.07014e-29 9.16763e-30 8.01206 -1.92703e-15 2.67695e-14 0.236691 4.18107e-16 7.73045e-16)
(1.18064e-15 -2.36181e-29 -3.20768e-30 7.87026 -2.45407e-15 2.65523e-16 0.235843 -5.35733e-17 -7.97332e-15)
(-4.72256e-15 1.81946e-29 -2.81631e-30 7.87026 -3.03859e-15 2.51864e-14 0.235843 6.71669e-16 7.38929e-16)
(-1.19713e-15 1.06987e-29 3.16171e-30 7.72843 -1.70963e-15 2.69424e-16 0.234922 -5.05457e-17 -8.14753e-15)
(4.78853e-15 8.68212e-31 2.96883e-30 7.72843 -3.35965e-15 2.36921e-14 0.234922 1.03416e-15 7.04007e-16)
(1.75437e-15 0 4.67459e-30 7.5868 0 3.23546e-16 0.233935 -6.31089e-30 -8.3153e-15)
(-1.75437e-15 -6.23278e-30 -4.67459e-30 7.5868 -3.27066e-15 2.22211e-14 0.233935 1.42048e-15 6.69008e-16)
(0 1.17063e-29 1.53586e-30 7.44563 3.82618e-16 3.06061e-16 0.232888 -5.99741e-18 -8.47929e-15)
(4.91979e-15 -5.64381e-30 3.25298e-30 7.44563 -3.7844e-15 2.09027e-14 0.232888 1.78455e-15 6.41364e-16)
(1.24626e-15 -1.64884e-29 -4.54155e-30 7.30514 2.41264e-15 2.25292e-16 0.231786 -6.39723e-17 -8.64016e-15)
(0 1.21108e-29 4.54155e-30 7.30514 -5.47569e-15 1.9687e-14 0.231786 2.13682e-15 6.10715e-16)
(1.68001e-15 1.19372e-29 2.9843e-30 7.16553 2.8919e-15 3.90891e-16 0.230635 -8.96824e-17 -8.79731e-15)
(-6.73003e-15 -6.04156e-30 -9.48724e-30 7.16553 -7.53047e-15 1.8423e-14 0.230635 2.57672e-15 5.77983e-16)
(-1.65593e-15 1.17661e-29 -2.94153e-30 7.027 3.01501e-15 4.47822e-16 0.22944 -9.70004e-17 -8.94657e-15)
(0 5.88306e-30 2.94153e-30 7.027 -7.6017e-15 1.73604e-14 0.22944 2.68976e-15 5.58529e-16)
(0 1.15975e-29 5.79874e-30 6.88971 3.4305e-15 3.04199e-16 0.228206 -1.00428e-16 -9.09569e-15)
(0 -5.79874e-30 -5.79874e-30 6.88971 -7.37209e-15 1.64245e-14 0.228206 2.67605e-15 5.32289e-16)
(1.31078e-15 2.42161e-29 1.14313e-29 6.75384 3.88773e-15 3.28592e-16 0.226937 -1.27642e-16 -9.24098e-15)
(0 -2.85782e-29 -1.14313e-29 6.75384 -7.54487e-15 1.54333e-14 0.226937 2.67886e-15 5.07608e-16)
(1.3267e-15 1.81757e-29 2.81686e-30 6.61951 2.85407e-15 3.5754e-16 0.22564 -1.34408e-16 -9.38228e-15)
(0 -1.12674e-29 -2.81686e-30 6.61951 -6.83224e-15 1.44483e-14 0.22564 2.66802e-15 4.80049e-16)
(-2.68509e-15 3.18427e-30 0 6.48686 1.47095e-15 3.99392e-16 0.224317 -6.01942e-17 -9.51985e-15)
(5.37017e-15 5.55297e-30 6.86754e-30 6.48686 -6.22126e-15 1.34415e-14 0.224317 2.65422e-15 4.52129e-16)
(-1.35829e-15 9.84338e-30 0 6.35601 1.1193e-15 3.03123e-16 0.222974 -4.17058e-17 -9.65209e-15)
(0 5.47338e-30 2.73669e-30 6.35601 -6.42597e-15 1.24358e-14 0.222974 2.65896e-15 4.22824e-16)
(3.03708e-15 1.07899e-29 0 6.22704 1.90465e-15 2.96608e-16 0.221613 -3.70305e-17 -9.78168e-15)
(-3.03708e-15 -1.07899e-29 -2.69747e-30 6.22704 -5.97094e-15 1.13648e-14 0.221613 2.6534e-15 3.88347e-16)
(0 1.59528e-29 5.31761e-30 6.10005 3.86422e-15 4.40531e-16 0.22024 -9.94078e-17 -9.90306e-15)
(-2.99355e-15 -1.06352e-29 -2.6588e-30 6.10005 -6.63663e-15 1.03133e-14 0.22024 2.66348e-15 3.58492e-16)
(-1.47532e-15 2.6207e-29 2.6207e-30 5.9751 4.9496e-15 4.21317e-16 0.218856 -1.81091e-16 -1.00199e-14)
(0 -1.04828e-29 -2.6207e-30 5.9751 -6.97945e-15 9.33143e-15 0.218856 2.65452e-15 3.2704e-16)
(0 1.54988e-29 5.16627e-30 5.85226 4.87196e-15 4.55836e-16 0.217466 -1.82663e-16 -1.01354e-14)
(1.1363e-14 -1.03325e-29 1.17098e-29 5.85226 -5.93273e-15 8.44506e-15 0.217466 2.63721e-15 3.02428e-16)
(-2.87132e-15 8.67029e-30 0 5.73158 4.98023e-15 3.84073e-16 0.216072 -1.80565e-16 -1.02438e-14)
(5.74264e-15 0 7.18645e-30 5.73158 -7.38936e-15 7.70205e-15 0.216072 2.63774e-15 2.80008e-16)
(1.45085e-15 -1.43674e-29 0 5.61309 5.84887e-15 3.93924e-16 0.214677 -1.96263e-16 -1.03511e-14)
(0 1.50577e-29 5.01924e-30 5.61309 -9.56136e-15 6.78349e-15 0.214677 2.62365e-15 2.40282e-16)
(0 9.8946e-30 4.9473e-30 5.49682 6.84142e-15 5.49281e-16 0.213283 -2.52999e-16 -1.04513e-14)
(-8.64883e-15 -4.9473e-30 -9.73949e-30 5.49682 -9.48471e-15 5.8387e-15 0.213283 2.57706e-15 2.14117e-16)
(-1.48093e-15 -2.49552e-29 -1.2191e-29 5.3828 7.54769e-15 5.03296e-16 0.211893 -2.79852e-16 -1.05479e-14)
(5.92371e-15 3.41348e-29 1.70438e-29 5.3828 -8.3147e-15 5.22717e-15 0.211893 2.51875e-15 1.98665e-16)
(0 1.9226e-29 4.8065e-30 5.27103 8.29799e-15 4.74923e-16 0.210509 -3.16605e-16 -1.06415e-14)
(-1.35291e-15 -9.61301e-30 -4.8065e-30 5.27103 -8.152e-15 4.59868e-15 0.210509 2.48036e-15 1.69657e-16)
(0 -9.47523e-30 -2.36881e-30 5.16152 8.20835e-15 5.46297e-16 0.209132 -3.48615e-16 -1.07321e-14)
(0 1.42128e-29 4.73761e-30 5.16152 -9.4934e-15 3.8509e-15 0.209132 2.44696e-15 1.43245e-16)
(-1.52532e-15 4.2724e-30 0 5.05427 7.70606e-15 4.7937e-16 0.207765 -3.18538e-16 -1.08194e-14)
(0 0 0 5.05427 -1.06404e-14 3.1906e-15 0.207765 2.38155e-15 1.19766e-16)
(-1.78429e-15 -2.82945e-29 -1.1507e-29 4.94927 7.00286e-15 2.91458e-16 0.206408 -3.17093e-16 -1.09058e-14)
(1.23194e-14 3.68223e-29 3.3177e-29 4.94927 -9.54911e-15 2.61673e-15 0.206408 2.31569e-15 9.90673e-17)
(0 9.07362e-30 4.53681e-30 4.84651 5.90742e-15 3.47383e-16 0.205063 -2.68594e-16 -1.0988e-14)
(-2.554e-15 0 -2.26841e-30 4.84651 -8.67618e-15 1.7014e-15 0.205063 2.27237e-15 4.49957e-17)
(0 8.94358e-30 4.47179e-30 4.74598 6.21619e-15 4.70297e-16 0.203731 -2.327e-16 -1.10625e-14)
(-2.51739e-15 0 -4.47179e-30 4.74598 -9.7916e-15 1.68525e-16 0.203731 2.18867e-15 3.62907e-18)
(-4.74951e-15 -1.81471e-29 -1.54269e-29 4.64764 7.50796e-15 3.67455e-16 0.202414 -3.03252e-16 -1.11338e-14)
(1.26654e-14 3.52616e-29 1.12104e-44 4.64764 -9.78985e-15 1.48535e-29 0.202414 2.06807e-15 4.86006e-45)
(0 -3.47562e-29 -1.73781e-29 4.55148 7.93753e-15 2.26659e-16 0.201112 -3.53225e-16 -1.11972e-14)
(1.27792e-14 3.47562e-29 3.43404e-29 4.55148 -9.68933e-15 -5.62509e-16 0.201112 1.97083e-15 1.2468e-17)
(-1.61153e-15 2.56181e-29 6.42338e-30 4.45747 8.28412e-15 3.13418e-16 0.199825 -3.50498e-16 -1.12591e-14)
(0 -1.28468e-29 -6.42338e-30 4.45747 -1.02754e-14 -1.48243e-15 0.199825 1.86252e-15 4.14172e-17)
(-7.50572e-16 -4.64009e-29 -1.47731e-29 4.36557 9.12464e-15 4.25768e-16 0.198556 -3.94975e-16 -1.13159e-14)
(1.53807e-14 4.22088e-29 2.94155e-29 4.36557 -9.56385e-15 -2.4095e-15 0.198556 1.74909e-15 9.22934e-17)
(0 -2.08019e-29 -1.0401e-29 4.27576 9.24774e-15 3.35918e-16 0.197303 -4.38026e-16 -1.13693e-14)
(6.55809e-15 2.08019e-29 1.76761e-29 4.27576 -9.82521e-15 -2.98696e-15 0.197303 1.66011e-15 1.27847e-16)
(1.65339e-15 -2.46656e-29 -4.10075e-30 4.18799 8.46331e-15 1.71899e-16 0.196068 -4.18026e-16 -1.14195e-14)