/*--------------------------------*- C++ -*----------------------------------*\
| =========                 |                                                 |
| \\      /  F ield         | OpenFOAM: The Open Source CFD Toolbox           |
|  \\    /   O peration     | Version:  2012                                  |
|   \\  /    A nd           | Website:  www.openfoam.com                      |
|    \\/     M anipulation  |                                                 |
\*---------------------------------------------------------------------------*/
FoamFile
{
    version     2.0;
    format      ascii;
    class       volTensorField;
    location    "10500";
    object      grad(U);
}
// * * * * * * * * * * * * * * * * * * * * * * * * * * * * * * * * * * * * * //

dimensions      [0 0 -1 0 0 0 0];


internalField   nonuniform List<tensor> 
2560
(
(0 5.87747e-39 5.15214e-18 599.938 -3.38813e-21 0.000308816 0.869424 6.18587e-08 4.13315e-07)
(-1.4629e-16 -4.35978e-23 -1.27269e-17 599.938 0.000118575 0.000371357 0.869424 1.74553e-07 4.89478e-07)
(-5.76773e-16 6.87567e-23 0 598.543 0.000125351 8.16948e-05 2.61689 3.3926e-07 5.26459e-07)
(0 0 1.03209e-22 598.543 0.000109759 2.35504e-05 2.61689 5.19389e-07 6.91711e-08)
(-1.11793e-16 -4.5737e-23 -1.35742e-23 597.104 0.00012623 4.18242e-06 3.58004 4.33505e-07 5.35891e-07)
(0 0 -1.46937e-39 597.104 6.97736e-05 -1.66463e-24 3.58004 2.23019e-07 1.05879e-22)
(3.54301e-16 1.13436e-22 1.12643e-23 595.591 -1.09846e-05 -1.71109e-05 3.6226 1.14453e-07 5.2594e-07)
(0 0 0 595.591 -1.63197e-05 -6.72959e-06 3.6226 4.93374e-08 2.03448e-08)
(2.20931e-15 2.6337e-22 2.6337e-22 593.972 -0.000139799 -4.91888e-05 3.6649 5.73609e-07 4.70433e-07)
(0 0 0 593.972 -0.000134384 -6.20217e-05 3.6649 5.41678e-07 2.53385e-07)
(8.4828e-16 -1.62247e-23 0 592.229 -0.000155609 -6.74717e-05 3.70686 9.71097e-08 3.99415e-07)
(6.78624e-15 1.62247e-23 0 592.229 -0.000151874 -8.4201e-05 3.70686 1.23629e-07 4.91467e-07)
(-1.0997e-15 -1.69808e-18 0 590.368 -3.22857e-05 -5.86376e-05 3.74859 -1.01926e-07 2.77744e-07)
(4.39882e-15 -7.29912e-23 1.27937e-22 590.368 -4.15771e-05 -7.32267e-05 3.74859 -1.31258e-07 3.43282e-07)
(-5.58534e-15 0 0 588.428 1.48231e-20 -3.71712e-05 3.79041 -6.48706e-39 1.95118e-07)
(5.41604e-15 -9.53656e-23 -2.52207e-22 588.428 3.43245e-06 -4.71863e-05 3.79041 -1.37404e-07 2.41147e-07)
(1.61115e-15 -7.98494e-23 0 586.469 2.39217e-05 -1.81961e-05 3.83275 -1.38732e-07 1.48249e-07)
(0 0 0 586.469 2.46058e-05 -2.44861e-05 3.83275 -1.41467e-07 1.81769e-07)
(0 0 0 584.559 2.03763e-05 -4.89288e-06 3.87608 -1.72444e-07 1.02508e-07)
(-2.05546e-15 0 -1.22515e-22 584.559 2.09934e-05 -8.84938e-06 3.87608 -1.46732e-07 9.87808e-08)
(-2.13383e-15 4.43027e-24 -4.87778e-24 582.765 1.2725e-05 4.36479e-06 3.92084 -9.57024e-08 8.19746e-08)
(0 3.01897e-23 0 582.765 1.30867e-05 -5.1805e-06 3.92084 -9.68856e-08 1.7327e-08)
(1.03873e-14 -4.66472e-23 6.93914e-23 581.145 1.02197e-05 7.69164e-06 3.96748 -7.43866e-08 4.87847e-08)
(0 2.9757e-23 0 581.145 1.05896e-05 -1.66465e-05 3.96748 -5.76408e-08 7.71561e-08)
(3.93667e-15 0 0 579.753 6.92555e-06 0 4.01639 -5.55246e-08 1.32349e-23)
(0 1.46652e-23 -1.17322e-22 579.753 7.22514e-06 -1.88351e-05 4.01639 -2.38762e-08 5.66566e-08)
(-2.93947e-15 1.55746e-23 -5.78202e-23 578.634 4.56814e-06 -1.77483e-05 4.06794 -3.08744e-08 6.81889e-08)
(1.17579e-14 0 -1.1564e-22 578.634 4.83471e-06 -6.83176e-06 4.06794 -6.92834e-09 1.37626e-08)
(-7.64927e-15 3.56197e-23 0 577.823 2.94515e-06 -8.77706e-06 4.12247 -2.14684e-08 2.3916e-08)
(7.64927e-15 -3.56197e-23 0 577.823 3.18509e-06 6.59628e-06 4.12247 1.08555e-08 -1.33321e-12)
(-3.49221e-15 1.05347e-24 0 577.349 2.39428e-06 4.84338e-06 4.18024 -8.60744e-09 -2.26315e-12)
(1.39688e-14 0 0 577.349 2.78311e-06 1.1545e-05 4.18024 1.64319e-08 -9.75678e-13)
(0 2.76848e-23 0 577.233 2.7143e-06 1.25959e-05 4.24152 -1.14169e-09 -3.63384e-12)
(-1.50951e-14 -2.76848e-23 0 577.233 2.91664e-06 1.25959e-05 4.24152 3.17449e-08 -1.32426e-12)
(0 3.411e-23 0 577.487 3.30174e-07 1.36557e-05 4.30649 5.23545e-09 -2.18854e-12)
(-1.62363e-14 -3.411e-23 0 577.487 5.19702e-07 1.36557e-05 4.30649 3.84011e-08 -9.76771e-13)
(7.22008e-15 0 1.07588e-22 578.116 1.05879e-22 1.47104e-05 4.37528 2.87221e-09 -3.55852e-12)
(0 2.01727e-23 0 578.116 5.65137e-07 1.47104e-05 4.37528 3.62427e-08 -1.32308e-12)
(4.64185e-15 2.65114e-23 0 579.115 2.25882e-06 1.58066e-05 4.44797 9.75956e-09 -2.30157e-12)
(-1.85674e-14 -3.97671e-23 0 579.115 2.42681e-06 1.58066e-05 4.44797 4.33953e-08 -9.78336e-13)
(0 3.59307e-23 0 580.474 6.61925e-07 1.69603e-05 4.5246 2.15918e-08 -3.43758e-12)
(0 -3.59307e-23 0 580.474 8.22735e-07 1.69603e-05 4.5246 5.54221e-08 -1.32101e-12)
(-5.24265e-15 -9.65883e-24 0 582.171 -1.93777e-06 1.81147e-05 4.60508 1.6231e-08 -2.19357e-12)
(0 1.6098e-23 0 582.171 -1.78299e-06 1.81147e-05 4.60508 5.02671e-08 -9.7855e-13)
(8.07942e-15 -2.15987e-24 1.01551e-22 584.179 2.71526e-22 1.92895e-05 4.68931 7.78176e-09 -3.63469e-12)
(-6.81496e-15 5.07754e-23 0 584.179 1.46123e-06 1.92895e-05 4.68931 4.2042e-08 -1.31601e-12)
(0 2.50238e-23 0 586.464 2.07372e-06 2.05569e-05 4.77712 2.82751e-08 -2.14338e-12)
(-2.34548e-14 -3.59718e-23 0 586.464 2.21691e-06 2.05568e-05 4.77712 6.27084e-08 -9.73394e-13)
(6.18253e-15 3.39146e-23 0 588.983 -1.44424e-06 2.1877e-05 4.86823 2.57514e-08 -3.44968e-12)
(0 -3.39146e-23 0 588.983 -1.30565e-06 2.1877e-05 4.86823 6.0367e-08 -1.30577e-12)
(-1.30146e-14 4.55844e-23 0 591.684 -2.01055e-06 2.31874e-05 4.96227 1.77499e-08 -2.18169e-12)
(0 -4.55844e-23 0 591.684 -1.87417e-06 2.31874e-05 4.96227 5.25719e-08 -9.63609e-13)
(2.05146e-14 -1.44368e-24 0 594.511 1.9019e-37 2.45532e-05 5.05883 1.04028e-08 -3.6228e-12)
(5.47057e-14 5.39172e-23 0 594.511 2.21536e-06 2.45532e-05 5.05883 4.53918e-08 -1.28859e-12)
(0 -3.32153e-23 0 597.404 1.23506e-06 2.60349e-05 5.15745 3.6909e-08 -2.26931e-12)
(2.87022e-14 3.7644e-23 0 597.404 1.36221e-06 2.60349e-05 5.15745 7.20717e-08 -9.45529e-13)
(7.51953e-15 -1.00906e-19 0 600.293 -3.13618e-07 2.75685e-05 5.25751 2.20007e-08 -3.35816e-12)
(0 -8.73046e-24 0 600.293 -1.75963e-06 2.75685e-05 5.25751 5.73248e-08 -1.26401e-12)
(-1.57407e-14 0 0 603.101 -1.6675e-06 2.91071e-05 5.35832 2.19805e-08 -2.26155e-12)
(-6.29629e-14 0 0 603.101 -1.5455e-06 2.91072e-05 5.35832 5.75017e-08 -9.21425e-13)
(-8.22817e-15 0 0 605.75 0 3.07203e-05 5.45916 8.53792e-09 -3.62186e-12)
(-3.29127e-14 -5.65466e-24 0 605.75 1.86574e-06 3.07204e-05 5.45916 4.42144e-08 -1.22928e-12)
(0 4.52856e-23 0 608.159 1.18111e-06 3.24649e-05 5.55925 3.92255e-08 -2.23429e-12)
(-3.43723e-14 -4.52856e-23 0 608.159 1.30315e-06 3.24649e-05 5.55925 7.50692e-08 -8.86382e-13)
(0 -2.00319e-20 0 610.242 -2.42476e-06 3.42633e-05 5.65763 2.02471e-08 -3.47054e-12)
(3.58607e-14 3.57093e-23 0 610.242 -2.63423e-06 3.42633e-05 5.65763 5.62561e-08 -1.18532e-12)
(-9.34448e-15 -8.71101e-21 0 611.904 -4.11273e-07 3.60852e-05 5.75332 1.53721e-08 -2.18341e-12)
(0 1.083e-23 0 611.904 -5.82697e-07 3.60852e-05 5.75332 5.15644e-08 -8.42886e-13)
(-9.73093e-15 -5.08668e-35 0 613.056 4.43259e-22 3.80231e-05 5.84533 1.51063e-08 -3.5428e-12)
(0 -3.73617e-23 0 613.056 2.01281e-06 3.80232e-05 5.84533 5.14655e-08 -1.12788e-12)
(-1.01244e-14 2.49892e-23 0 613.61 3.76472e-07 4.01041e-05 5.93256 3.48426e-08 -2.20179e-12)
(-4.04977e-14 -1.84131e-23 0 613.61 4.97861e-07 4.01041e-05 5.93256 7.13643e-08 -7.8488e-13)
(1.05248e-14 -1.55564e-23 0 613.471 -2.71408e-06 4.22448e-05 6.01382 1.99039e-08 -3.39963e-12)
(0 1.55564e-23 0 613.471 -2.59338e-06 4.22448e-05 6.01382 5.66197e-08 -1.0587e-12)
(1.09318e-14 -4.81539e-20 0 612.544 2.11758e-22 4.44312e-05 6.08789 9.91019e-09 -2.13636e-12)
(0 2.04446e-23 0 612.544 -4.50731e-07 4.44312e-05 6.08789 4.67859e-08 -7.15576e-13)
(-3.29828e-14 1.51137e-23 0 610.74 1.57178e-06 4.67542e-05 6.15358 1.58488e-08 -3.3034e-12)
(0 -5.03791e-24 0 610.74 1.69426e-06 4.67542e-05 6.15358 5.29311e-08 -9.72691e-13)
(-2.13275e-14 2.48285e-23 0 607.977 1.07097e-06 4.92545e-05 6.20964 2.72083e-08 -1.93419e-12)
(2.13275e-14 -4.22084e-23 0 607.977 1.1928e-06 4.92546e-05 6.20964 6.44617e-08 -6.28687e-13)
(-1.2189e-14 1.22363e-23 0 604.171 -2.61219e-06 5.18536e-05 6.25475 2.8215e-08 -3.3043e-12)
(2.7734e-14 0 0 604.171 -2.48939e-06 5.18536e-05 6.25475 6.56581e-08 -8.71704e-13)
(2.07205e-14 -8.82717e-20 0 599.24 0 5.44992e-05 6.28757 1.60556e-09 -1.83302e-12)
(2.97531e-14 4.82438e-23 0 599.24 -1.53663e-06 5.44992e-05 6.28757 3.92701e-08 -5.24518e-13)
(1.3052e-14 2.37762e-23 0 593.11 3.03723e-06 5.7316e-05 6.30688 1.27061e-08 -2.92737e-12)
(-5.22081e-14 -3.80418e-23 0 593.11 3.16275e-06 5.7316e-05 6.30688 5.05549e-08 -7.5654e-13)
(1.3489e-14 -2.10918e-23 0 585.722 -1.52142e-06 6.03133e-05 6.31143 3.55805e-08 -1.75134e-12)
(0 2.10918e-23 0 585.722 -1.39384e-06 6.03133e-05 6.31143 7.36491e-08 -3.88497e-13)
(-1.39286e-14 -3.85598e-21 0 577.017 1.70144e-25 6.34293e-05 6.29998 0 -2.67351e-12)
(0 1.84796e-23 0 577.017 -2.133e-08 6.34293e-05 6.29998 3.58462e-08 -6.25886e-13)
(1.43697e-14 2.27684e-23 0 566.944 -2.33168e-06 6.66487e-05 6.27134 3.6224e-08 -1.44406e-12)
(5.74787e-14 -1.13842e-23 -1.16574e-21 566.944 -2.19728e-06 6.66487e-05 6.27134 7.47165e-08 -2.34765e-13)
(0 -3.78279e-24 0 555.465 4.23516e-22 7.00278e-05 6.22441 -3.30872e-24 -2.80877e-12)
(5.92454e-14 1.79537e-23 0 555.465 2.33224e-06 7.00278e-05 6.22441 1.15374e-08 -4.67215e-13)
(-1.52524e-14 0 0 542.553 4.44661e-06 7.37265e-05 6.1582 6.38792e-08 -9.32194e-13)
(0 1.10602e-23 0 542.553 4.58807e-06 7.37265e-05 6.1582 1.02848e-07 -5.79837e-14)
(-1.56918e-14 0 0 528.187 -1.33488e-05 7.73867e-05 6.07167 2.45111e-08 -2.27531e-12)
(0 8.72136e-24 0 528.187 -1.32141e-05 7.73867e-05 6.07167 6.37896e-08 -2.63077e-13)
(0 -3.28048e-20 0 512.358 -2.12378e-21 8.08785e-05 5.96403 1.32349e-23 -6.97257e-13)
(0 0 0 512.358 -5.48133e-07 8.08785e-05 5.96403 -4.9848e-08 9.06942e-14)
(-1.65598e-14 -4.23657e-24 -1.08456e-21 495.087 2.93021e-05 8.52136e-05 5.8349 1.99556e-08 -2.02062e-13)
(0 1.69463e-23 0 495.087 2.94479e-05 8.52136e-05 5.8349 5.98022e-08 9.15908e-13)
(0 3.34068e-23 -1.06902e-21 476.393 -3.8366e-05 8.94857e-05 5.68341 2.63059e-07 -1.53395e-12)
(-6.79427e-14 -9.48149e-19 0 476.393 -2.7888e-05 8.94859e-05 5.68341 1.68586e-07 -6.84368e-13)
(-1.74042e-14 0 0 456.289 -3.11503e-23 9.32799e-05 5.50905 0 -2.93904e-12)
(6.96169e-14 -1.11646e-22 0 456.289 1.2873e-05 9.32801e-05 5.50905 -2.07254e-07 -1.08082e-13)
(0 0 0 434.836 1.67709e-05 9.79268e-05 5.31209 4.26731e-07 -8.32812e-13)
(0 0 0 434.836 1.69098e-05 9.79264e-05 5.31209 1.72818e-07 1.12465e-12)
(-1.8213e-14 -5.87747e-39 0 412.098 0 0.000102245 5.09211 -4.8002e-39 7.09449e-13)
(7.28519e-14 0 0 412.098 -3.33808e-05 0.000102245 5.09211 -2.08164e-07 3.07949e-13)
(5.41288e-14 -1.57662e-23 0 388.135 3.27107e-05 0.000106617 4.84934 1.32506e-08 1.62114e-12)
(5.74711e-14 1.57662e-23 0 388.135 3.28404e-05 0.000106618 4.84934 5.47921e-08 1.4926e-12)
(0 0 0 363.042 -2.67818e-05 0.000111176 4.58435 1.71384e-07 -1.49225e-12)
(0 0 0 363.042 -2.66097e-05 0.000111176 4.58435 1.78308e-07 -4.02186e-14)
(-1.93311e-14 -7.34684e-39 0 336.923 7.6233e-21 0.000115171 4.29768 5.29396e-23 -1.93761e-13)
(0 0 0 336.923 5.30764e-06 0.000115171 4.29768 -2.17715e-07 6.56481e-13)
(-5.55553e-14 0 0 309.899 9.76771e-06 0.000119508 3.99046 2.49734e-07 1.55938e-13)
(9.48993e-14 6.04406e-23 0 309.899 9.93372e-06 0.000119508 3.99046 1.83156e-07 1.15097e-12)
(-1.99942e-14 -1.95913e-19 0 282.104 -1.46769e-23 0.000123752 3.66369 0 1.16578e-12)
(0 0 0 282.104 -9.42269e-06 0.000123752 3.66369 -1.68387e-07 9.87503e-13)
(-2.02963e-14 -1.46683e-23 0 253.672 5.00642e-06 0.000127724 3.31878 1.2776e-07 9.5419e-13)
(8.11853e-14 2.93365e-23 0 253.672 5.16598e-06 0.000127724 3.31878 1.71082e-07 1.40825e-12)
(-2.05768e-14 0 0 224.757 -3.14856e-05 0.000130732 2.95737 -1.44203e-07 3.43615e-12)
(-3.10484e-14 0 0 224.757 -3.12607e-05 0.000130733 2.95737 -1.00349e-07 5.79708e-13)
(-4.16682e-14 4.70198e-37 0 195.533 6.79764e-21 0.000133665 2.58171 0 -6.6126e-13)
(-8.33364e-14 4.91972e-19 0 195.533 3.24326e-05 0.000133666 2.58171 -2.29801e-07 1.78349e-12)
(-4.21341e-14 -5.61863e-23 0 166.19 -1.07865e-05 0.000137071 2.19415 4.11531e-07 -1.27313e-12)
(1.68536e-13 2.88709e-22 0 166.19 -1.05932e-05 0.000137071 2.19415 1.96052e-07 8.74482e-13)
(-9.35557e-14 2.25695e-36 0 136.903 2.03943e-20 0.000138732 1.79676 -5.29396e-23 3.48733e-12)
(-8.50977e-14 3.56466e-19 0 136.903 -3.22756e-05 0.000138732 1.79676 -2.35388e-07 1.12429e-12)
(-2.14552e-14 -2.72936e-23 0 107.866 4.14733e-05 0.000140138 1.39277 -1.18385e-07 3.92831e-12)
(8.58207e-14 5.45872e-23 0 107.866 4.16402e-05 0.000140138 1.39277 -7.26072e-08 2.15446e-12)
(2.16084e-14 -4.03536e-23 0 79.2927 -3.68527e-05 0.000141279 0.985198 1.44507e-07 1.4074e-12)
(0 4.03536e-23 0 79.2927 -2.71441e-05 0.000141279 0.985198 1.90919e-07 -2.19684e-13)
(0 -9.38445e-23 0 51.379 -9.38445e-23 0.000142025 0.577035 -1.05879e-22 2.24393e-12)
(8.69335e-14 -2.24641e-19 0 51.379 3.20397e-05 0.000142025 0.577035 -2.4401e-07 1.93415e-12)
(7.57205e-14 0 3.34551e-21 22.2096 -4.56261e-05 0.000142116 0.171605 5.13448e-07 9.66563e-14)
(8.73187e-14 2.955e-22 0 22.2096 -2.73334e-05 0.000142116 0.171605 2.11194e-07 -5.04563e-13)
(3.23759e-14 0 -3.29756e-21 -0.00537622 7.14701e-36 0.000141245 4.21439e-05 -2.11758e-22 -1.58524e-14)
(8.74616e-14 -6.12319e-22 0 -0.00537507 2.25307e-05 0.000141245 4.21349e-05 -2.51237e-07 -4.17429e-14)
(0 0 0 -26.4907 7.71238e-08 0.000140918 0.227824 5.28385e-07 7.13325e-14)
(0 0 0 -26.4907 2.92073e-07 0.000140918 0.227824 2.18269e-07 1.62139e-13)
(-4.3442e-14 3.24436e-36 0 -49.8931 -2.39159e-20 0.000139831 0.617704 -2.11758e-22 1.28892e-12)
(0 0 0 -49.8931 -2.18225e-05 0.000139831 0.617704 -2.58117e-07 -1.2802e-12)
(0 0 0 -71.7692 2.23326e-05 0.000138808 0.995286 5.44182e-07 1.48574e-12)
(8.63982e-14 3.27714e-22 0 -71.7692 2.25236e-05 0.000138808 0.995286 2.24725e-07 3.70506e-13)
(0 -3.58847e-19 0 -91.9923 -3.38813e-20 0.000137957 1.35731 -2.11758e-22 1.83231e-12)
(5.97107e-14 -4.31979e-22 -3.11253e-21 -91.9923 -2.12299e-05 0.000137957 1.35731 -2.64399e-07 -9.52776e-13)
(-2.12894e-14 0 0 -110.48 1.1947e-05 0.000137038 1.70113 4.37128e-07 3.21531e-13)
(0 0 0 -110.48 1.21481e-05 0.000137038 1.70113 2.31634e-07 -1.1678e-12)
(2.1104e-14 -8.14924e-19 0 -127.179 -3.38813e-21 0.000135974 2.02468 0 6.66982e-13)
(0 0 0 -127.179 -2.48544e-05 0.000135974 2.02468 -2.71179e-07 -2.46857e-12)
(0 -2.91075e-23 0 -142.053 3.08219e-05 0.00013549 2.32613 2.88757e-08 3.33899e-12)
(0 -2.23751e-19 0 -142.053 2.75509e-05 0.00013549 2.32613 8.20277e-08 -6.67455e-13)
(0 0 0 -155.091 -3.28861e-05 0.000135331 2.60371 -3.32996e-07 3.1579e-12)
(2.46448e-14 0 0 -155.091 -3.26511e-05 0.000135331 2.60371 -3.25779e-07 -1.64166e-12)
(-1.66049e-14 -1.17549e-38 0 -166.326 -7.54394e-23 0.000135467 2.85646 -1.05879e-22 1.39211e-12)
(0 0 0 -166.326 2.88285e-05 0.000135467 2.85646 -2.84094e-07 -1.01384e-12)
(-2.02027e-14 3.34486e-23 0 -175.818 -3.37085e-05 0.000135833 3.08407 1.42172e-07 2.97129e-13)
(0 -3.45572e-19 0 -175.818 -2.78162e-05 0.000135833 3.08407 1.97217e-07 -3.64207e-12)
(1.99465e-14 -1.61509e-22 0 -183.64 3.22662e-21 0.000136215 3.28648 0 -1.97761e-13)
(-7.97862e-14 4.51768e-22 0 -183.64 2.27314e-05 0.000136215 3.28648 -2.93364e-07 -2.86763e-12)
(2.3262e-14 0 0 -189.88 -5.60671e-06 0.000137611 3.46398 5.82719e-07 -4.99191e-13)
(-7.87262e-14 -2.09942e-22 0 -189.88 -5.37443e-06 0.000137611 3.46398 2.61022e-07 -2.79461e-12)
(-1.94093e-14 -2.55898e-19 0 -194.65 1.69407e-20 0.000138486 3.61709 2.11758e-22 7.98494e-13)
(1.55275e-13 -1.03157e-21 -1.09332e-20 -194.65 -1.75243e-05 0.000138486 3.61709 -3.02069e-07 -4.06293e-12)
(1.91312e-14 0 0 -198.073 2.29783e-05 0.000139887 3.74722 2.76202e-07 2.42615e-12)
(7.6525e-14 -5.96186e-24 0 -198.073 2.31955e-05 0.000139887 3.74722 2.69612e-07 -2.02448e-12)
(0 -1.49516e-19 0 -200.267 -1.18585e-20 0.00014206 3.85539 0 2.65097e-12)
(0 0 0 -200.267 -1.02294e-05 0.00014206 3.85539 -3.10432e-07 -2.90535e-12)
(-1.85629e-14 -6.19856e-23 0 -201.363 -5.63776e-06 0.000143861 3.94302 9.246e-08 1.52286e-12)
(7.42518e-14 6.64588e-23 0 -201.363 -5.39393e-06 0.000143861 3.94302 1.52964e-07 -3.5134e-12)
(3.36711e-15 -1.80308e-36 0 -201.497 1.29925e-20 0.000145775 4.01196 0 1.90609e-12)
(-9.47421e-14 3.34023e-22 0 -201.497 3.29101e-06 0.000145775 4.01196 -3.20074e-07 -2.93949e-12)
(1.79858e-14 -3.97338e-23 0 -200.79 -6.80909e-06 0.000147712 4.06393 1.75339e-07 1.19254e-12)
(7.19432e-14 3.97338e-23 0 -200.79 -6.55011e-06 0.000147712 4.06393 2.37611e-07 -3.77798e-12)
(-1.76962e-14 -7.45192e-20 0 -199.355 1.59848e-20 0.000149397 4.10052 2.11758e-22 6.11209e-13)
(7.07847e-14 -4.10532e-22 0 -199.355 -2.5448e-06 0.000149397 4.10052 -3.3062e-07 -3.71753e-12)
(-1.74069e-14 0 0 -197.294 1.78958e-05 0.000151835 4.12334 1.42161e-07 2.06902e-12)
(0 0 0 -197.294 1.81464e-05 0.000151835 4.12334 2.06435e-07 -3.01775e-12)
(-1.71186e-14 -2.63512e-19 0 -194.706 1.02711e-20 0.000154268 4.13375 0 3.07809e-12)
(0 0 0 -194.706 -2.01144e-05 0.000154268 4.13375 -3.41127e-07 -2.82256e-12)
(-3.69668e-14 0 0 -191.688 8.27244e-06 0.000156272 4.13344 -2.7428e-07 3.30104e-12)
(6.73274e-14 0 0 -191.688 8.52716e-06 0.000156272 4.13344 -2.07636e-07 -3.51426e-12)
(-3.29939e-15 -5.05416e-23 0 -188.321 -1.98597e-05 0.000157807 4.12389 -2.26108e-07 5.36475e-12)
(1.98464e-14 0 0 -188.321 -1.95728e-05 0.000157807 4.12389 -3.52104e-07 -3.00353e-12)
(0 -9.71401e-23 9.32787e-21 -184.668 6.58198e-21 0.000160067 4.1063 0 2.12601e-12)
(0 0 0 -184.668 3.23733e-05 0.000160067 4.1063 -3.58852e-07 -1.51057e-12)
(-3.52663e-14 -1.79574e-23 0 -180.789 -2.8667e-05 0.000162642 4.08156 2.03631e-07 -9.04734e-13)
(1.92816e-14 3.59147e-23 0 -180.789 -2.83791e-05 0.000162641 4.08156 2.73342e-07 -4.62817e-12)
(0 -1.1467e-19 0 -176.744 -1.52466e-20 0.000163503 4.05081 2.11758e-22 6.66242e-13)
(1.25663e-13 -1.01263e-21 0 -176.744 -9.13876e-06 0.000163503 4.05081 -3.71837e-07 -5.61118e-12)
(-1.87328e-14 1.74463e-23 -8.93251e-21 -172.577 3.32609e-05 0.000165455 4.01521 1.70145e-08 5.8558e-12)
(6.17371e-14 1.85256e-19 0 -172.577 2.9674e-05 0.000165455 4.01521 8.92468e-08 -3.62633e-13)
(-3.36283e-14 1.51492e-22 -8.80449e-21 -168.317 -3.66866e-05 0.000167223 3.97511 -4.91827e-07 5.58942e-12)
(-6.0656e-14 1.80859e-23 0 -168.317 -3.63749e-05 0.000167223 3.97511 -4.85584e-07 -3.09452e-12)
(3.3024e-15 -1.46937e-38 8.67829e-21 -164.001 6.77626e-21 0.000168504 3.93126 1.05879e-22 1.0957e-12)
(-7.77889e-14 2.04419e-22 -8.67829e-21 -164.001 2.66731e-05 0.000168504 3.93126 -3.90875e-07 -2.23945e-12)
(0 3.34137e-23 0 -159.658 -9.36161e-06 0.000170571 3.88439 5.29521e-08 1.51825e-14)
(0 -1.67069e-23 0 -159.658 -9.05528e-06 0.000170571 3.88439 1.2927e-07 -3.0208e-12)
(0 -5.28774e-19 0 -155.311 1.35525e-20 0.000171004 3.83489 0 5.3353e-12)
(3.98184e-14 -3.23667e-22 0 -155.311 -2.30433e-05 0.000171004 3.83489 -4.05696e-07 -2.14519e-12)
(-3.30866e-15 1.29851e-22 -1.66209e-20 -150.98 3.03319e-05 0.000171726 3.7834 -4.99231e-07 4.40162e-12)
(0 0 0 -150.98 3.06333e-05 0.000171726 3.7834 -4.19864e-07 -2.41742e-12)
(-1.71785e-14 -1.91985e-22 0 -146.674 -1.17937e-05 0.000173313 3.73009 -3.05883e-07 9.67069e-13)
(1.28124e-13 1.91985e-22 0 -146.674 -1.1476e-05 0.000173313 3.73009 -2.25146e-07 -2.2945e-12)
(0 -2.15643e-19 0 -142.409 0 0.000173747 3.67524 0 4.4308e-12)
(1.08967e-13 -3.11613e-22 0 -142.409 -9.6124e-06 0.000173746 3.67524 -4.29721e-07 -2.42905e-12)
(-2.67549e-14 1.69853e-23 0 -138.197 1.44252e-05 0.000174343 3.61929 -4.84478e-07 4.7396e-12)
(0 0 0 -138.197 1.47522e-05 0.000174343 3.61929 -4.61717e-07 -1.44442e-12)
(-1.31382e-14 0 0 -134.047 -1.35672e-05 0.000174901 3.5624 -4.09029e-07 2.49677e-12)
(1.05105e-13 0 0 -134.047 -1.3222e-05 0.000174901 3.5624 -3.23423e-07 -2.77629e-12)
(1.29029e-14 -2.49162e-22 0 -129.968 9.14301e-21 0.000174835 3.50491 0 2.03119e-12)
(0 0 0 -129.968 3.62359e-06 0.000174835 3.50491 -4.5616e-07 -1.95277e-12)
(-1.26718e-14 0 0 -125.965 8.43684e-06 0.000175313 3.44701 -3.02976e-07 4.98653e-12)
(0 0 0 -125.965 8.79157e-06 0.000175312 3.44701 -2.13941e-07 -2.07223e-12)
(-1.24447e-14 2.9526e-24 0 -122.043 -2.50447e-05 0.000174777 3.38873 -6.43309e-07 6.78097e-12)
(4.97789e-14 0 0 -122.043 -2.46662e-05 0.000174777 3.38873 -5.73608e-07 -1.72203e-12)
(-1.22217e-14 9.40395e-38 0 -118.208 2.72195e-22 0.000174177 3.33046 3.77747e-38 1.85724e-12)
(4.88869e-14 -2.22949e-22 -1.48081e-20 -118.208 2.60767e-05 0.000174178 3.33046 -4.85984e-07 -1.94944e-12)
(-2.40055e-14 0 0 -114.46 -7.10153e-06 0.000174513 3.27224 7.54883e-08 1.06822e-12)
(0 0 0 -114.46 -6.71589e-06 0.000174512 3.27224 1.69943e-07 -2.14276e-12)
(3.2977e-15 -1.61647e-19 0 -110.801 3.38813e-21 0.000173383 3.21403 0 3.57158e-12)
(-1.50855e-14 0 0 -110.801 -1.63614e-05 0.000173382 3.21403 -5.07868e-07 -4.09922e-12)
(1.48693e-14 -1.10785e-22 0 -107.238 2.45647e-05 0.000172588 3.15622 -3.78667e-07 9.92051e-12)
(-4.63073e-14 0 0 -107.238 2.49495e-05 0.000172588 3.15622 -2.79927e-07 2.10077e-12)
(1.13698e-14 0 0 -103.77 -2.7132e-05 0.000171496 3.09885 -4.63069e-07 6.46757e-12)
(4.5479e-14 0 0 -103.77 -2.67106e-05 0.000171496 3.09885 -3.61739e-07 -4.18763e-12)
(-3.27953e-15 -3.25435e-22 0 -100.396 6.77626e-21 0.00017017 3.04192 -2.11758e-22 3.74825e-12)
(-3.02202e-14 2.9212e-22 0 -100.396 2.54868e-05 0.00017017 3.04192 -5.42801e-07 -1.30479e-12)
(-1.09672e-14 2.65223e-23 0 -97.1172 -1.69174e-05 0.000169191 2.98556 3.20242e-07 4.70378e-12)
(1.53908e-14 0 0 -97.1172 -1.64735e-05 0.000169191 2.98556 4.25838e-07 -3.62712e-12)
(0 -2.35682e-22 0 -93.9352 0 0.000167583 2.92987 2.11758e-22 6.10951e-12)
(0 0 0 -93.9352 8.96131e-06 0.000167583 2.92987 -5.69876e-07 -2.14442e-12)
(-1.38338e-14 -1.0307e-22 -1.3193e-20 -90.8492 -1.25562e-05 0.000165566 2.87494 6.30766e-07 6.23848e-12)
(4.23192e-14 5.24944e-23 0 -90.8492 -1.20982e-05 0.000165566 2.87494 5.53641e-07 -3.70288e-12)
(1.03916e-14 -5.86349e-22 0 -87.8586 1.86347e-20 0.000163196 2.82079 0 3.43288e-12)
(0 0 0 -87.8586 9.83592e-06 0.000163196 2.82079 -5.98653e-07 -2.51099e-12)
(0 0 0 -84.9612 7.77854e-06 0.000161778 2.76754 9.87992e-07 5.59301e-12)
(-5.42678e-14 -2.8861e-22 0 -84.9612 8.24512e-06 0.000161777 2.76754 5.836e-07 -4.33487e-12)
(-1.32475e-14 -1.82069e-19 -2.52676e-20 -82.1548 1.69407e-20 0.00015932 2.71508 0 5.62787e-12)
(0 0 0 -82.1548 -2.10332e-05 0.00015932 2.71508 -6.28847e-07 -5.44183e-12)
(0 7.29651e-23 0 -79.4399 2.70773e-05 0.000157099 2.66353 3.37925e-07 8.35305e-12)
(0 -7.29651e-23 0 -79.4399 2.75473e-05 0.000157099 2.66353 4.59704e-07 -2.25993e-12)
(9.67386e-15 -5.32825e-19 0 -76.8152 0 0.000154348 2.61296 0 1.25076e-11)
(0 0 0 -76.8152 -3.18203e-05 0.000154348 2.61296 -6.60133e-07 -2.01134e-12)
(9.50287e-15 -2.63781e-23 0 -74.2768 2.94054e-05 0.000151264 2.56338 -5.30727e-07 1.32579e-11)
(0 0 0 -74.2768 2.99175e-05 0.000151264 2.56338 -5.92212e-07 -5.93916e-12)
(-1.86703e-14 0 0 -71.8216 -1.59391e-05 0.000148932 2.5147 3.37529e-08 3.82295e-12)
(3.73405e-14 0 0 -71.8216 -1.54342e-05 0.000148932 2.5147 1.64869e-07 -2.48661e-12)
(-9.17059e-15 -1.49406e-20 0 -69.4474 -4.23516e-22 0.000145213 2.46692 -2.11758e-22 9.82175e-12)
(0 0 0 -69.4474 -1.35063e-06 0.000145213 2.46692 -7.09454e-07 -1.01926e-11)
(0 4.5256e-23 0 -67.1499 1.69988e-05 0.000142407 2.42007 6.98005e-09 7.44466e-12)
(-1.21483e-14 -4.5256e-23 0 -67.1499 1.75099e-05 0.000142407 2.42007 1.45274e-07 1.50784e-12)
(0 -1.48982e-19 0 -64.9251 -1.18258e-05 0.00013912 2.37395 -2.14153e-07 1.96111e-11)
(-1.19742e-14 0 0 -64.9251 -2.0931e-05 0.00013912 2.37395 -5.10696e-07 -1.11725e-11)
(0 7.05297e-38 -2.25116e-20 -62.771 2.06818e-22 0.000134824 2.32863 0 -1.602e-14)
(-1.18026e-14 0 0 -62.771 1.02787e-05 0.000134824 2.32863 -5.98816e-07 3.25059e-12)
(0 0 0 -60.6819 5.33808e-06 0.000131475 2.28403 -2.6721e-07 2.05143e-11)
(6.8346e-14 0 0 -60.6819 5.9902e-06 0.000131475 2.28403 -1.16972e-07 -1.52738e-11)
(-1.67879e-14 0 0 -58.654 0 0.000127993 2.23996 -1.05879e-22 4.22913e-13)
(3.35757e-14 0 0 -58.654 -4.77739e-06 0.000127993 2.23996 -3.70312e-07 8.77148e-12)
(8.24757e-15 0 0 -56.6858 -6.14476e-06 0.000123491 2.19644 -4.40794e-07 2.70227e-11)
(0 0 0 -56.6858 -5.43557e-06 0.000123492 2.19644 -2.81852e-07 -2.11006e-11)
(0 -1.59169e-34 0 -54.7737 5.4397e-21 0.000118778 2.15343 0 -1.29125e-11)
(-3.24164e-14 0 0 -54.7737 6.13043e-06 0.000118777 2.15343 -5.70694e-07 1.79832e-11)
(-7.96356e-15 -1.63625e-22 0 -52.9147 4.16602e-06 0.000114669 2.11082 -1.9028e-07 3.73053e-11)
(3.18542e-14 1.63625e-22 0 -52.9147 4.95474e-06 0.000114669 2.11082 -2.20355e-08 -3.06788e-11)
(0 -7.03207e-20 0 -51.1071 -4.23516e-21 0.000110349 2.0686 0 -2.3657e-11)
(-1.08233e-14 0 0 -51.1071 -4.55807e-06 0.000110348 2.0686 -3.70421e-07 3.30265e-11)
(0 0 0 -49.3501 -7.6238e-07 0.000105418 2.02675 -3.61934e-07 5.43523e-11)
(0 0 0 -49.3501 1.2992e-07 0.000105419 2.02675 -1.83375e-07 -4.64252e-11)
(-7.55905e-15 2.04536e-36 0 -47.6432 7.43148e-21 0.000100372 1.9853 2.08378e-38 -4.79424e-11)
(0 0 0 -47.6432 1.72582e-06 0.000100371 1.9853 -3.56979e-07 5.68854e-11)
(-4.4951e-15 -3.86109e-22 5.93064e-20 -45.9846 -2.0191e-06 9.51086e-05 1.9443 -2.7808e-07 8.16579e-11)
(5.94386e-14 3.08887e-22 0 -45.9846 -9.76735e-07 9.51103e-05 1.9443 -8.84682e-08 -7.26434e-11)
(0 -8.15901e-23 0 -44.3725 4.56153e-21 8.97277e-05 1.90366 0 -8.62849e-11)
(-1.0216e-14 0 -3.89709e-20 -44.3725 2.75924e-06 8.97258e-05 1.90366 -3.92258e-07 9.48048e-11)
(0 7.50242e-23 -1.92062e-20 -42.8051 1.58997e-06 8.45476e-05 1.86338 -1.42703e-07 1.26452e-10)
(-1.00696e-14 0 0 -42.8051 2.83594e-06 8.45503e-05 1.86338 5.89459e-08 -1.16152e-10)
(-3.11013e-14 1.88079e-36 0 -41.2802 3.22915e-21 7.92328e-05 1.82343 1.05879e-22 -1.44808e-10)
(6.63947e-14 5.91591e-22 0 -41.2802 -1.50169e-06 7.92298e-05 1.82343 -2.68285e-07 1.55305e-10)
(0 -2.91556e-22 0 -39.7955 1.29025e-06 7.3765e-05 1.78373 -1.86084e-07 1.99325e-10)
(5.55233e-14 2.91556e-22 0 -39.7955 2.82773e-06 7.37691e-05 1.78373 2.881e-08 -1.88163e-10)
(-6.82486e-15 -2.60083e-20 0 -38.3492 1.69407e-21 6.79093e-05 1.74426 0 -2.39281e-10)
(-9.64278e-15 -1.43689e-22 0 -38.3492 -4.31416e-06 6.79043e-05 1.74426 -1.43132e-07 2.52659e-10)
(6.71202e-15 -3.05897e-22 0 -36.9385 4.07121e-06 6.19188e-05 1.70494 -1.90064e-07 3.18314e-10)
(5.36961e-14 2.83258e-22 0 -36.9385 6.04239e-06 6.19254e-05 1.70494 -1.23877e-07 -3.06481e-10)
(0 -3.48998e-22 0 -35.5611 3.36256e-06 5.65096e-05 1.66568 -1.07038e-07 -3.9591e-10)
(2.64075e-14 3.48998e-22 0 -35.5611 2.8826e-06 5.65016e-05 1.66568 1.29917e-07 4.13114e-10)
(6.49447e-15 -6.87992e-23 0 -34.2152 -1.03379e-05 5.03576e-05 1.62643 -1.84154e-07 5.20008e-10)
(0 6.87992e-23 0 -34.2152 -7.71265e-06 5.03681e-05 1.62643 6.07717e-08 -5.03293e-10)
(1.27796e-14 -2.80213e-22 0 -32.8988 6.49605e-21 4.44461e-05 1.58713 0 -6.57172e-10)
(1.64575e-14 0 -3.47203e-20 -32.8988 1.25042e-05 4.44336e-05 1.58713 -2.5133e-07 6.70384e-10)
(0 8.35515e-23 0 -31.6107 -1.18548e-05 3.86242e-05 1.54772 4.78253e-07 8.39572e-10)
(-8.97128e-15 -5.01309e-23 -3.42227e-20 -31.6107 -8.25408e-06 3.86406e-05 1.54772 7.40136e-07 -8.22422e-10)
(0 -1.3572e-22 0 -30.3497 4.53932e-21 3.25239e-05 1.50818 0 -1.07385e-09)
(3.35975e-14 2.63533e-22 0 -30.3497 7.16654e-06 3.25038e-05 1.50818 -7.06439e-07 1.08963e-09)
(3.46869e-15 0 0 -29.115 -1.2347e-05 2.6058e-05 1.46847 9.41281e-07 1.36668e-09)
(8.71596e-15 0 0 -29.115 -7.27151e-06 2.60841e-05 1.46847 1.22174e-06 -1.34516e-09)
(5.99873e-15 -4.06344e-22 0 -27.9057 9.35171e-21 1.96948e-05 1.42859 0 -1.75921e-09)
(2.39949e-14 5.12066e-22 0 -27.9057 9.79664e-06 1.96626e-05 1.42859 -1.17271e-06 1.77606e-09)
(0 0 0 -26.7209 -1.73906e-05 1.28908e-05 1.38851 1.61019e-06 2.2338e-09)
(2.36318e-14 0 0 -26.7209 -1.00504e-05 1.29322e-05 1.38851 1.91095e-06 -2.21616e-09)
(-5.81999e-15 0 0 -25.5603 0 6.49695e-06 1.34821 -4.23516e-22 -2.88223e-09)
(-2.328e-14 0 0 -25.5603 1.48395e-05 6.44547e-06 1.34821 -1.86725e-06 2.91066e-09)
(-1.39618e-14 -6.47349e-22 0 -24.4238 -2.87436e-05 -2.13016e-23 1.3077 1.52279e-06 -4.1359e-25)
(0 0 0 -24.4238 -1.7916e-05 -5.50948e-07 1.3077 2.9775e-06 -3.64426e-09)
(-5.6526e-15 5.87747e-38 0 -23.312 2.03288e-20 -7.33721e-06 1.26701 -4.23516e-22 -4.73606e-09)
(-2.26104e-14 0 0 -23.312 2.33867e-05 -7.42021e-06 1.26701 -3.11338e-06 4.76133e-09)
(0 2.60335e-19 0 -22.2266 -1.6273e-05 -1.48239e-05 1.22622 4.4148e-07 6.02285e-09)
(0 0 0 -22.2266 -2.5485e-05 -1.47182e-05 1.22622 4.6849e-06 -5.99809e-09)
(0 -7.4316e-22 0 -21.1703 -7.52316e-36 -2.19958e-05 1.18548 -8.47033e-22 -7.7767e-09)
(4.39726e-14 0 0 -21.1703 2.66703e-05 -2.21288e-05 1.18548 -4.99386e-06 7.79631e-09)
(-5.42274e-15 0 0 -20.1475 0 -2.95737e-05 1.145 8.47033e-22 9.91923e-09)
(2.1691e-14 0 0 -20.1475 -2.26063e-05 -2.94045e-05 1.145 6.8601e-06 -9.8817e-09)
(-7.65401e-15 -1.03295e-21 -5.83954e-20 -19.1635 3.38813e-20 -3.65145e-05 1.10512 0 -1.27897e-08)
(-2.14064e-14 -1.82486e-21 0 -19.1635 2.41463e-05 -3.6729e-05 1.10512 -7.05354e-06 1.28088e-08)
(-7.5443e-15 4.5139e-35 -2.87792e-20 -18.2251 -8.10575e-20 -4.53612e-05 1.06623 -1.02912e-36 1.63792e-08)
(0 1.7987e-21 0 -18.2251 -3.04249e-05 -4.50882e-05 1.06623 9.31024e-06 -1.63348e-08)
(-2.21937e-15 -4.20169e-34 -2.83668e-20 -17.3391 5.81764e-21 -5.16226e-05 1.02882 0 -2.11127e-08)
(2.08672e-14 -1.77292e-21 0 -17.3391 4.49248e-05 -5.19691e-05 1.02882 -1.00592e-05 2.11308e-08)
(0 1.92593e-34 2.79602e-20 -16.5117 -7.31059e-21 -6.12092e-05 0.993368 1.69407e-21 2.71105e-08)
(0 0 0 -16.5117 -5.8528e-05 -6.07688e-05 0.993368 1.36058e-05 -2.70562e-08)
(7.22454e-15 -4.43674e-21 5.51189e-20 -15.7483 8.13152e-20 -6.76212e-05 0.960344 0 -3.49321e-08)
(0 3.44493e-21 0 -15.7483 7.13707e-05 -6.81811e-05 0.960343 -1.55297e-05 3.49457e-08)
(-2.93978e-15 -2.03125e-35 0 -15.052 -3.82418e-20 -7.78222e-05 0.930147 0 4.49502e-08)
(-7.121e-15 0 0 -15.052 -8.10132e-05 -7.71087e-05 0.930147 2.05332e-05 -4.48815e-08)
(-4.97149e-15 -3.35548e-21 2.67751e-20 -14.4232 1.22103e-19 -8.27158e-05 0.903037 0 -5.7973e-08)
(0 0 0 -14.4232 0.000100953 -8.36247e-05 0.903037 -2.36855e-05 5.79765e-08)
(6.91834e-15 1.69047e-20 0 -13.8589 -2.71051e-19 -9.59194e-05 0.879129 0 7.47457e-08)