/*--------------------------------*- C++ -*----------------------------------*\
| =========                 |                                                 |
| \\      /  F ield         | OpenFOAM: The Open Source CFD Toolbox           |
|  \\    /   O peration     | Version:  2012                                  |
|   \\  /    A nd           | Website:  www.openfoam.com                      |
|    \\/     M anipulation  |                                                 |
\*---------------------------------------------------------------------------*/
FoamFile
{
    version     2.0;
    format      ascii;
    class       volScalarField;
    location    "10500";
    object      k;
}
// * * * * * * * * * * * * * * * * * * * * * * * * * * * * * * * * * * * * * //

dimensions      [0 2 -2 0 0 0 0];


internalField   nonuniform List<scalar> 
2560
(
0.00033822
0.000338219
0.00584773
0.00584773
0.0417727
0.0417727
0.152737
0.152737
0.387944
0.387944
0.768016
0.768016
1.25377
1.25377
1.77718
1.77718
2.29316
2.29316
2.78527
2.78526
3.25116
3.25116
3.69313
3.69313
4.11436
4.11436
4.51781
4.51781
4.90596
4.90596
5.28076
5.28076
5.64375
5.64375
5.99612
5.99612
6.33877
6.33877
6.67236
6.67236
6.99735
6.99735
7.31404
7.31404
7.62258
7.62258
7.92298
7.92298
8.21514
8.21514
8.49886
8.49886
8.77382
8.77382
9.03962
9.03962
9.2958
9.2958
9.54178
9.54178
9.77694
9.77694
10.0006
10.0006
10.212
10.212
10.4104
10.4104
10.5949
10.5949
10.7648
10.7648
10.9191
10.9191
11.0571
11.0571
11.1779
11.1779
11.2808
11.2808
11.3651
11.3651
11.4301
11.4301
11.4754
11.4754
11.5006
11.5006
11.5053
11.5053
11.4896
11.4896
11.4534
11.4534
11.3971
11.3971
11.3212
11.3212
11.2263
11.2263
11.1134
11.1134
10.9836
10.9836
10.8384
10.8384
10.6793
10.6793
10.5081
10.5081
10.327
10.327
10.138
10.138
9.94346
9.94346
9.74586
9.74586
9.54767
9.54767
9.35138
9.35138
9.15948
9.15948
8.97434
8.97434
8.79818
8.79818
8.63304
8.63304
8.48069
8.48069
8.34257
8.34257
8.21981
8.21981
8.11312
8.11312
8.02286
8.02286
7.94895
7.94895
7.89093
7.89093
7.84799
7.84799
7.81901
7.81901
7.80263
7.80263
7.79725
7.79725
7.80115
7.80115
7.81255
7.81255
7.82963
7.82963
7.85063
7.85063
7.87385
7.87385
7.89771
7.89771
7.9208
7.9208
7.94184
7.94184
7.95974
7.95974
7.97357
7.97357
7.98258
7.98258
7.98615
7.98615
7.98385
7.98385
7.97534
7.97534
7.96042
7.96042
7.93899
7.93899
7.91105
7.91105
7.87664
7.87664
7.8359
7.8359
7.78899
7.78899
7.73613
7.73613
7.67757
7.67757
7.61356
7.61356
7.5444
7.5444
7.47039
7.47039
7.39183
7.39183
7.30904
7.30904
7.22231
7.22231
7.13197
7.13197
7.03832
7.03832
6.94166
6.94166
6.84229
6.84229
6.74048
6.74048
6.63652
6.63652
6.53066
6.53066
6.42317
6.42317
6.31429
6.31429
6.20424
6.20425
6.09327
6.09327
5.98156
5.98156
5.86932
5.86932
5.75673
5.75673
5.64397
5.64397
5.5312
5.5312
5.41857
5.41857
5.30622
5.30622
5.19427
5.19427
5.08285
5.08285
4.97206
4.97206
4.86201
4.86201
4.75277
4.75277
4.64444
4.64444
4.53708
4.53708
4.43076
4.43076
4.32554
4.32554
4.22148
4.22148
4.11862
4.11862
4.01702
4.01702
3.9167
3.9167
3.81772
3.81772
3.7201
3.7201
3.62387
3.62387
3.52906
3.52906
3.43569
3.43569
3.34379
3.34379
3.25337
3.25337
3.16444
3.16444
3.07702
3.07702
2.99113
2.99113
2.90676
2.90676
2.82395
2.82395
2.74268
2.74268
2.66298
2.66298
2.58485
2.58485
2.5083
2.5083
2.43334
2.43334
2.35998
2.35998
2.28823
2.28823
2.2181
2.2181
2.14959
2.14959
2.08272
2.08272
2.01749
2.01749
1.95391
1.95391
1.89198
1.89198
1.8317
1.8317
1.77307
1.77307
1.71608
1.71608
1.66072
1.66072
1.60696
1.60696
1.55477
1.55477
1.50413
1.50413
1.455
1.455
1.40733
1.40733
1.36108
1.36108
1.3162
1.3162
1.27266
1.27266
1.2304
1.2304
1.18941
1.18941
1.14963
1.14963
1.11104
1.11104
1.07363
1.07363
1.03736
1.03736
1.00222
1.00222
0.968198
0.968198
0.935269
0.935269
0.903418
0.903418
0.872627
0.872627
0.842877
0.842877
0.814145
0.814145
0.786409
0.786409
0.759644
0.759644
0.733825
0.733825
0.708927
0.708927
0.684927
0.684927
0.661803
0.661803
0.639536
0.639536
0.618112
0.618112
0.597517
0.597517
0.57774
0.57774
0.558771
0.558771
0.540603
0.540603
0.523228
0.523228
0.506638
0.506638
0.490827
0.490827
0.475785
0.475785
0.461502
0.461502
0.447966
0.447966
0.435161
0.435161
0.423067
0.423067
0.411663
0.411663
0.400922
0.400922
0.390815
0.390815
0.381313
0.381313
0.372385
0.372386
0.364005
0.364005
0.356145
0.356145
0.348781
0.348781
0.341884
0.341884
0.335426
0.335426
0.329374
0.329374
0.323689
0.323689
0.31833
0.31833
0.31325
0.31325
0.308398
0.308398
0.303719
0.303719
0.299162
0.299162
0.294682
0.294682
0.290252
0.290252
0.285859
0.28586
0.281506
0.281506
0.277201
0.277201
0.272956
0.272956
0.268773
0.268773
0.264641
0.264641
0.260539
0.260539
0.256442
0.256442
0.252328
0.252328
0.248185
0.248185
0.24401
0.24401
0.239806
0.239806
0.235585
0.235585
0.23137
0.23137
0.227193
0.227193
0.2231
0.2231
0.219134
0.219134
0.215336
0.215336
0.211729
0.211729
0.208322
0.208322
0.205101
0.205101
0.202035
0.202035
0.19907
0.19907
0.196133
0.196133
0.19313
0.19313
0.189975
0.189975
0.186612
0.186612
0.183044
0.183044
0.179326
0.179326
0.17555
0.17555
0.171822
0.171822
0.168239
0.168239
0.164857
0.164857
0.161697
0.161697
0.158751
0.158751
0.155999
0.155999
0.153432
0.153432
0.151065
0.151065
0.148933
0.148933
0.147068
0.147068
0.145477
0.145477
0.144138
0.144138
0.143009
0.143009
0.142053
0.142053
0.141242
0.141242
0.140564
0.140565
0.140028
0.140028
0.139658
0.139658
0.139491
0.139491
0.139561
0.139561
0.139884
0.139884
0.140456
0.140456
0.141239
0.141239
0.142175
0.142175
0.143182
0.143182
0.144173
0.144173
0.145075
0.145075
0.145822
0.145822
0.146325
0.146325
0.146447
0.146447
0.146031
0.146031
0.144961
0.144961
0.143207
0.143207
0.140825
0.140825
0.137922
0.137922
0.134678
0.134678
0.131338
0.131338
0.128126
0.128126
0.125109
0.125109
0.122261
0.122261
0.119576
0.119576
0.117087
0.117087
0.114795
0.114795
0.112648
0.112648
0.110603
0.110603
0.108665
0.108665
0.106871
0.106871
0.105265
0.105265
0.103859
0.103859
0.102643
0.102643
0.10159
0.10159
0.100612
0.100612
0.0995532
0.0995532
0.0982593
0.0982593
0.0966806
0.0966806
0.0949095
0.0949096
0.0931015
0.0931015
0.0913696
0.0913697
0.089767
0.0897671
0.0883274
0.0883275
0.0870809
0.087081
0.0860323
0.0860325
0.0851794
0.0851796
0.0845346
0.084535
0.0840882
0.0840886
0.0838473
0.0838479
0.000338219
0.000338219
0.00584773
0.00584773
0.0417727
0.0417727
0.152737
0.152737
0.387944
0.387944
0.768016
0.768016
1.25377
1.25377
1.77718
1.77718
2.29316
2.29316
2.78527
2.78527
3.25116
3.25116
3.69313
3.69313
4.11436
4.11436
4.51781
4.51781
4.90596
4.90596
5.28076
5.28076
5.64375
5.64375
5.99612
5.99612
6.33877
6.33877
6.67236
6.67236
6.99735
6.99735
7.31404
7.31404
7.62258
7.62258
7.92298
7.92298
8.21514
8.21514
8.49886
8.49886
8.77382
8.77382
9.03962
9.03962
9.2958
9.2958
9.54178
9.54178
9.77695
9.77695
10.0006
10.0006
10.212
10.212
10.4104
10.4104
10.5949
10.5949
10.7648
10.7648
10.9191
10.9191
11.0571
11.0571
11.1779
11.1779
11.2808
11.2808
11.3651
11.3651
11.4301
11.4301
11.4754
11.4754
11.5006
11.5006
11.5053
11.5053
11.4896
11.4896
11.4534
11.4534
11.3971
11.3971
11.3212
11.3212
11.2263
11.2263
11.1134
11.1134
10.9836
10.9836
10.8384
10.8384
10.6793
10.6793
10.5081
10.5081
10.327
10.327
10.138
10.138
9.94347
9.94347
9.74587
9.74587
9.54767
9.54767
9.35139
9.35139
9.15948
9.15948
8.97434
8.97434
8.79818
8.79818
8.63305
8.63305
8.48069
8.48069
8.34258
8.34258
8.21981
8.21981
8.11312
8.11312
8.02286
8.02286
7.94895
7.94895
7.89093
7.89093
7.84799
7.84799
7.81901
7.81901
7.80263
7.80263
7.79725
7.79725
7.80115
7.80115
7.81255
7.81255
7.82963
7.82963
7.85063
7.85063
7.87384
7.87384
7.89771
7.89771
7.9208
7.9208
7.94184
7.94184
7.95974
7.95974
7.97357
7.97357
7.98257
7.98257
7.98615
7.98615
7.98384
7.98384
7.97533
7.97533
7.96042
7.96042
7.93899
7.93899
7.91105
7.91105
7.87664
7.87664
7.8359
7.8359
7.78899
7.78899
7.73613
7.73613
7.67756
7.67756
7.61356
7.61356
7.5444
7.5444
7.47039
7.47039
7.39183
7.39183
7.30903
7.30903
7.22231
7.22231
7.13197
7.13197
7.03832
7.03832
6.94166
6.94166
6.84229
6.84229
6.74048
6.74048
6.63651
6.63651
6.53066
6.53066
6.42317
6.42317
6.31428
6.31428
6.20424
6.20424
6.09326
6.09326
5.98155
5.98155
5.86931
5.86931
5.75673
5.75673
5.64397
5.64397
5.5312
5.5312
5.41857
5.41857
5.30621
5.30621
5.19427
5.19427
5.08285
5.08285
4.97206
4.97206
4.862
4.862
4.75277
4.75277
4.64443
4.64443
4.53707
4.53707
4.43075
4.43075
4.32554
4.32554
4.22148
4.22148
4.11862
4.11862
4.01702
4.01702
3.9167
3.9167
3.81772
3.81772
3.7201
3.7201
3.62387
3.62387
3.52906
3.52906
3.43569
3.43569
3.34379
3.34379
3.25336
3.25336
3.16444
3.16444
3.07702
3.07702
2.99113
2.99113
2.90676
2.90676
2.82395
2.82395
2.74268
2.74268
2.66298
2.66298
2.58485
2.58485
2.5083
2.5083
2.43334
2.43334
2.35998
2.35998
2.28823
2.28823
2.2181
2.2181
2.14959
2.14959
2.08272
2.08272
2.01749
2.01749
1.9539
1.9539
1.89198
1.89198
1.8317
1.8317
1.77307
1.77307
1.71608
1.71608
1.66072
1.66072
1.60696
1.60696
1.55477
1.55477
1.50413
1.50413
1.455
1.455
1.40733
1.40733
1.36108
1.36108
1.3162
1.3162
1.27266
1.27266
1.2304
1.2304
1.18941
1.18941
1.14963
1.14963
1.11104
1.11104
1.07363
1.07363
1.03736
1.03736
1.00222
1.00222
0.968198
0.968198
0.935269
0.935269
0.903418
0.903418
0.872627
0.872627
0.842877
0.842877
0.814145
0.814145
0.786409
0.786409
0.759644
0.759644
0.733825
0.733825
0.708927
0.708927
0.684927
0.684927
0.661803
0.661803
0.639536
0.639536
0.618111
0.618111
0.597516
0.597516
0.577739
0.577739
0.558771
0.558771
0.540602
0.540602
0.523227
0.523227
0.506637
0.506637
0.490826
0.490826
0.475784
0.475784
0.461501
0.461502
0.447965
0.447965
0.43516
0.43516
0.423066
0.423066
0.411661
0.411661
0.40092
0.40092
0.390813
0.390814
0.381311
0.381311
0.372384
0.372384
0.364003
0.364003
0.356143
0.356143
0.348778
0.348779
0.341882
0.341882
0.335424
0.335424
0.329371
0.329371
0.323686
0.323686
0.318327
0.318327
0.313247
0.313247
0.308395
0.308395
0.303716
0.303716
0.299159
0.299159
0.294679
0.294679
0.29025
0.29025
0.285857
0.285857
0.281503
0.281503
0.277199
0.277199
0.272954
0.272954
0.268771
0.268771
0.264639
0.264639
0.260537
0.260537
0.25644
0.25644
0.252326
0.252326
0.248184
0.248184
0.244008
0.244008
0.239804
0.239804
0.235584
0.235584
0.231368
0.231368
0.227192
0.227192
0.223099
0.223099
0.219133
0.219133
0.215335
0.215335
0.211728
0.211728
0.208321
0.208321
0.2051
0.2051
0.202034
0.202034
0.19907
0.19907
0.196132
0.196132
0.19313
0.19313
0.189975
0.189975
0.186613
0.186613
0.183045
0.183045
0.179327
0.179327
0.175551
0.175551
0.171824
0.171824
0.168241
0.168241
0.164859
0.164859
0.161699
0.161699
0.158753
0.158753
0.156001
0.156001
0.153434
0.153434
0.151066
0.151067
0.148934
0.148934
0.147069
0.147069
0.145477
0.145477
0.144138
0.144138
0.143009
0.143009
0.142052
0.142052
0.141241
0.141241
0.140564
0.140564
0.140027
0.140028
0.139657
0.139657
0.139489
0.139489
0.139558
0.139558
0.13988
0.13988
0.140451
0.140451
0.141233
0.141233
0.142168
0.142168
0.143175
0.143175
0.144165
0.144165
0.145068
0.145067
0.145816
0.145816
0.146319
0.146319
0.146443
0.146443
0.146029
0.146029
0.144961
0.144961
0.14321
0.14321
0.140829
0.140829
0.137928
0.137928
0.134684
0.134684
0.131343
0.131343
0.12813
0.12813
0.125112
0.125112
0.122264
0.122264
0.119578
0.119578
0.117088
0.117088
0.114796
0.114796
0.112648
0.112648
0.110604
0.110604
0.108665
0.108665
0.106871
0.106871
0.105264
0.105264
0.103857
0.103857
0.10264
0.10264
0.101586
0.101586
0.100608
0.100608
0.0995503
0.0995503
0.098258
0.0982581
0.0966811
0.0966812
0.0949112
0.0949114
0.0931037
0.0931038
0.0913717
0.0913718
0.0897686
0.0897687
0.0883283
0.0883283
0.0870812
0.0870812
0.0860322
0.0860321
0.085179
0.0851787
0.0845339
0.0845337
0.0840873
0.084087
0.0838465
0.0838461
0.0838398
0.0838403
0.0840657
0.0840662
0.0844969
0.0844973
0.0851225
0.0851228
0.0859562
0.0859564
0.0869872
0.0869873
0.0882163
0.0882164
0.0896388
0.0896388
0.0912207
0.0912208
0.0929213
0.0929213
0.0946956
0.0946957
0.0964401
0.0964401
0.0980004
0.0980004
0.0992885
0.0992885
0.100364
0.100364
0.101376
0.101376
0.102466
0.102466
0.103716
0.103717
0.105157
0.105157
0.106795
0.106795
0.108618
0.108618
0.110581
0.110581
0.112646
0.112646
0.114814
0.114814
0.11713
0.11713
0.119642
0.119642
0.12235
0.12235
0.125221
0.125221
0.12826
0.12826
0.131495
0.131495
0.134865
0.134865
0.138135
0.138135
0.141049
0.141049
0.143425
0.143425
0.145154
0.145154
0.146184
0.146184
0.146566
0.146566
0.146424
0.146424
0.145913
0.145913
0.145165
0.145165
0.144263
0.144263
0.143274
0.143274
0.142268
0.142268
0.141331
0.141331
0.140546
0.140546
0.139973
0.139973
0.139648
0.139648
0.139577
0.139577
0.139742
0.139742
0.140108
0.140108
0.140637
0.140637
0.141305
0.141305
0.142109
0.142109
0.143059
0.143059
0.144178
0.144178
0.145506
0.145506
0.147086
0.147086
0.148939
0.148939
0.15106
0.15106
0.153418
0.153418
0.155978
0.155978
0.158721
0.158721
0.161655
0.161655
0.1648
0.1648
0.168165
0.168165
0.171731
0.171731
0.175444
0.175444
0.179213
0.179213
0.182923
0.182923
0.186477
0.186477
0.18982
0.18982
0.192962
0.192962
0.195961
0.195961
0.198903
0.198903
0.20188
0.20188
0.204967
0.204967
0.208211
0.208211
0.211639
0.211639
0.215259
0.215259
0.219062
0.219062
0.223025
0.223025
0.227112
0.227112
0.231281
0.231281
0.23549
0.23549
0.239706
0.239706
0.243905
0.243905
0.248079
0.248079
0.252225
0.252225
0.256341
0.256341
0.260442
0.260442
0.264554
0.264554
0.2687
0.2687
0.272901
0.272902
0.27717
0.27717
0.281501
0.281501
0.285874
0.285874
0.290279
0.290279
0.294719
0.294719
0.299204
0.299204
0.303765
0.303765
0.30845
0.30845
0.31331
0.31331
0.318396
0.318396
0.323757
0.323757
0.32944
0.32944
0.335485
0.335485
0.341933
0.341933
0.34882
0.34882
0.356174
0.356174
0.364025
0.364025
0.3724
0.3724
0.381326
0.381326
0.390828
0.390828
0.400937
0.400937
0.41168
0.41168
0.423087
0.423087
0.435184
0.435184
0.447994
0.447994
0.461535
0.461535
0.475821
0.475821
0.490865
0.490865
0.506678
0.506678
0.523268
0.523268
0.540645
0.540645
0.558816
0.558816
0.577787
0.577787
0.597565
0.597565
0.618161
0.618161
0.639587
0.639587
0.661857
0.661857
0.684985
0.684985
0.708989
0.708989
0.733887
0.733887
0.759704
0.759704
0.786468
0.786468
0.814203
0.814203
0.842933
0.842933
0.872683
0.872683
0.903475
0.903475
0.935328
0.935328
0.968259
0.968259
1.00229
1.00229
1.03743
1.03743
1.0737
1.0737
1.11112
1.11112
1.14971
1.14971
1.18949
1.18949
1.23049
1.23049
1.27274
1.27274
1.31629
1.31629
1.36117
1.36117
1.40743
1.40743
1.45511
1.45511
1.50425
1.50425
1.5549
1.5549
1.60709
1.60709
1.66085
1.66085
1.71622
1.71622
1.77322
1.77322
1.83185
1.83185
1.89212
1.89212
1.95406
1.95406
2.01764
2.01764
2.08288
2.08288
2.14975
2.14975
2.21826
2.21826
2.2884
2.2884
2.36016
2.36016
2.43352
2.43352
2.50849
2.50849
2.58504
2.58504
2.66318
2.66318
2.74288
2.74288
2.82416
2.82416
2.90699
2.90699
2.99136
2.99136
3.07727
3.07727
3.16471
3.16471
3.25365
3.25365
3.3441
3.3441
3.43603
3.43603
3.52943
3.52943
3.62427
3.62427
3.72054
3.72054
3.81819
3.81819
3.91719
3.91719
4.01752
4.01752
4.11915
4.11915
4.22203
4.22203
4.32611
4.32611
4.43136
4.43136
4.53773
4.53773
4.64513
4.64513
4.7535
4.7535
4.86276
4.86276
4.97284
4.97284
5.08365
5.08365
5.19507
5.19507
5.30702
5.30702
5.41938
5.41938
5.532
5.532
5.64475
5.64475
5.75749
5.75749
5.87002
5.87002
5.98218
5.98218
6.09381
6.09381
6.20474
6.20474
6.31474
6.31474
6.42362
6.42362
6.53111
6.53111
6.63695
6.63695
6.74092
6.74092
6.84274
6.84274
6.94212
6.94212
7.0388
7.0388
7.13246
7.13246
7.22275
7.22275
7.30943
7.30943
7.39224
7.39224
7.47082
7.47082
7.54485
7.54485
7.61407
7.61407
7.67817
7.67817
7.73682
7.73682
7.78974
7.78974
7.83669
7.83669
7.87741
7.87741
7.91169
7.91169
7.93939
7.93939
7.96046
7.96046
7.97501
7.97501
7.98327
7.98327
7.98547
7.98547
7.98184
7.98184
7.97276
7.97276
7.95882
7.95882
7.94078
7.94078
7.91952
7.91952
7.89621
7.89621
7.87213
7.87213
7.84869
7.84869
7.82752
7.82752
7.81033
7.81033
7.79887
7.79887
7.79495
7.79495
7.80036
7.80036
7.81676
7.81676
7.84573
7.84573
7.88865
7.88865
7.94665
7.94665
8.02054
8.02054
8.11077
8.11077
8.21746
8.21746
8.34022
8.34022
8.47833
8.47833
8.63068
8.63068
8.79583
8.79583
8.97199
8.97199
9.15712
9.15712
9.34895
9.34895
9.54516
9.54516
9.74337
9.74337
9.94104
9.94104
10.1357
10.1357
10.3248
10.3248
10.5061
10.5061
10.6774
10.6774
10.8368
10.8368
10.9824
10.9824
11.1124
11.1124
11.2253
11.2253
11.3204
11.3204
11.3966
11.3966
11.4532
11.4532
11.4896
11.4896
11.5055
11.5055
11.501
11.501
11.476
11.476
11.4309
11.4309
11.366
11.366
11.2818
11.2818
11.179
11.179
11.0582
11.0582
10.9202
10.9202
10.7659
10.7659
10.5961
10.5961
10.4115
10.4115
10.2131
10.2131
10.0016
10.0016
9.77787
9.77787
9.54265
9.54265
9.29666
9.29666
9.0405
9.0405
8.7747
8.7747
8.49975
8.49975
8.21603
8.21603
7.92385
7.92385
7.62341
7.62341
7.31482
7.31482
6.99807
6.99807
6.67302
6.67302
6.33938
6.33938
5.99669
5.99669
5.64428
5.64428
5.28125
5.28125
4.90641
4.90641
4.51823
4.51823
4.11474
4.11474
3.69348
3.69348
3.25148
3.25148
2.78555
2.78555
2.29341
2.29341
1.77739
1.77739
1.25393
1.25393
0.768125
0.768125
0.388003
0.388003
0.15276
0.15276
0.0417792
0.0417792
0.00584862
0.00584862
0.000338256
0.000338256
0.0838389
0.0838386
0.0840649
0.0840646
0.0844962
0.0844959
0.0851221
0.0851218
0.0859561
0.0859559
0.0869875
0.0869874
0.0882172
0.0882172
0.0896403
0.0896404
0.0912227
0.0912228
0.0929233
0.0929235
0.0946972
0.0946973
0.0964404
0.0964406
0.097999
0.0979991
0.0992856
0.0992857
0.10036
0.10036
0.101372
0.101372
0.102463
0.102463
0.103714
0.103715
0.105156
0.105156
0.106795
0.106795
0.108619
0.108619
0.110582
0.110582
0.112647
0.112647
0.114815
0.114815
0.117131
0.117131
0.119643
0.119644
0.122352
0.122352
0.125223
0.125224
0.128264
0.128264
0.1315
0.131501
0.134871
0.134871
0.138141
0.138141
0.141054
0.141054
0.143428
0.143428
0.145154
0.145154
0.146182
0.146182
0.146561
0.146561
0.146418
0.146418
0.145906
0.145906
0.145157
0.145157
0.144256
0.144256
0.143266
0.143266
0.142261
0.142261
0.141325
0.141325
0.140542
0.140542
0.139969
0.139969
0.139646
0.139646
0.139576
0.139576
0.139741
0.139741
0.140107
0.140107
0.140636
0.140636
0.141305
0.141305
0.142109
0.142109
0.143059
0.143059
0.144178
0.144178
0.145506
0.145506
0.147086
0.147086
0.14894
0.14894
0.151061
0.151061
0.15342
0.15342
0.15598
0.15598
0.158723
0.158723
0.161656
0.161656
0.164802
0.164802
0.168167
0.168167
0.171733
0.171733
0.175446
0.175446
0.179214
0.179214
0.182924
0.182924
0.186478
0.186478
0.18982
0.18982
0.192962
0.192962
0.195961
0.195961
0.198902
0.198902
0.201879
0.201879
0.204966
0.204966
0.20821
0.20821
0.211638
0.211638
0.215258
0.215258
0.219061
0.219061
0.223024
0.223024
0.227111
0.227111
0.23128
0.23128
0.235489
0.235489
0.239705
0.239705
0.243903
0.243903
0.248077
0.248077
0.252223
0.252223
0.256339
0.256339
0.26044
0.26044
0.264552
0.264552
0.268698
0.268698
0.272899
0.272899
0.277168
0.277168
0.281498
0.281498
0.285871
0.285871
0.290276
0.290276
0.294716
0.294716
0.299201
0.299201
0.303762
0.303762
0.308447
0.308447
0.313307
0.313307
0.318393
0.318393
0.323755
0.323755
0.329438
0.329438
0.335482
0.335482
0.341931
0.341931
0.348818
0.348818
0.356172
0.356172
0.364023
0.364023
0.372398
0.372398
0.381324
0.381324
0.390827
0.390827
0.400935
0.400935
0.411679
0.411679
0.423085
0.423085
0.435183
0.435183
0.447993
0.447993
0.461534
0.461534
0.47582
0.47582
0.490865
0.490865
0.506677
0.506677
0.523267
0.523267
0.540645
0.540645
0.558816
0.558816
0.577787
0.577787
0.597564
0.597564
0.618161
0.618161
0.639587
0.639587
0.661857
0.661857
0.684985
0.684985
0.708989
0.708989
0.733887
0.733887
0.759704
0.759704
0.786468
0.786468
0.814203
0.814203
0.842933
0.842933
0.872683
0.872683
0.903475
0.903475
0.935328
0.935328
0.968259
0.968259
1.00229
1.00229
1.03743
1.03743
1.0737
1.0737
1.11112
1.11112
1.14971
1.14971
1.18949
1.18949
1.23049
1.23049
1.27274
1.27274
1.31629
1.31629
1.36117
1.36117
1.40743
1.40743
1.45511
1.45511
1.50425
1.50425
1.5549
1.5549
1.60709
1.60709
1.66085
1.66085
1.71622
1.71622
1.77321
1.77322
1.83185
1.83185
1.89212
1.89212
1.95406
1.95406
2.01764
2.01764
2.08288
2.08288
2.14975
2.14975
2.21826
2.21826
2.2884
2.2884
2.36016
2.36016
2.43352
2.43352
2.50849
2.50849
2.58504
2.58504
2.66318
2.66318
2.74288
2.74288
2.82416
2.82416
2.90698
2.90698
2.99136
2.99136
3.07727
3.07727
3.1647
3.1647
3.25365
3.25365
3.3441
3.3441
3.43603
3.43603
3.52943
3.52943
3.62427
3.62427
3.72054
3.72054
3.81819
3.81819
3.91719
3.91719
4.01752
4.01752
4.11915
4.11915
4.22203
4.22203
4.32611
4.32611
4.43136
4.43136
4.53773
4.53773
4.64513
4.64513
4.7535
4.7535
4.86276
4.86276
4.97284
4.97284
5.08365
5.08365
5.19507
5.19507
5.30702
5.30702
5.41938
5.41938
5.532
5.532
5.64475
5.64475
5.75748
5.75748
5.87002
5.87002
5.98218
5.98218
6.09381
6.09381
6.20473
6.20473
6.31474
6.31474
6.42362
6.42362
6.53111
6.53111
6.63695
6.63695
6.74092
6.74092
6.84274
6.84274
6.94212
6.94212
7.0388
7.0388
7.13245
7.13245
7.22275
7.22275
7.30943
7.30943
7.39224
7.39224
7.47082
7.47082
7.54485
7.54485
7.61407
7.61407
7.67817
7.67817
7.73682
7.73682
7.78974
7.78974
7.83669
7.83669
7.87741
7.87741
7.91169
7.91169
7.93939
7.93939
7.96045
7.96045
7.97501
7.97501
7.98327
7.98327
7.98547
7.98547
7.98184
7.98184
7.97275
7.97275
7.95882
7.95882
7.94077
7.94077
7.91952
7.91952
7.89621
7.89621
7.87212
7.87212
7.84869
7.84869
7.82752
7.82752
7.81033
7.81033
7.79887
7.79887
7.79495
7.79495
7.80036
7.80036
7.81676
7.81676
7.84573
7.84573
7.88865
7.88865
7.94665
7.94665
8.02054
8.02054
8.11077
8.11077
8.21746
8.21746
8.34022
8.34022
8.47833
8.47833
8.63069
8.63069
8.79584
8.79584
8.972
8.972
9.15713
9.15713
9.34896
9.34896
9.54517
9.54517
9.74338
9.74338
9.94105
9.94105
10.1357
10.1357
10.3248
10.3248
10.5061
10.5061
10.6774
10.6774
10.8368
10.8368
10.9824
10.9824
11.1124
11.1124
11.2254
11.2254
11.3204
11.3204
11.3966
11.3966
11.4532
11.4532
11.4896
11.4896
11.5055
11.5055
11.501
11.501
11.476
11.476
11.4309
11.4309
11.366
11.366
11.2818
11.2818
11.179
11.179
11.0582
11.0582
10.9202
10.9202
10.7659
10.7659
10.5961
10.5961
10.4115
10.4115
10.2131
10.2131
10.0016
10.0016
9.77788
9.77788
9.54265
9.54265
9.29666
9.29666
9.0405
9.0405
8.7747
8.7747
8.49975
8.49975
8.21603
8.21603
7.92385
7.92385
7.62341
7.62341
7.31482
7.31482
6.99807
6.99807
6.67302
6.67302
6.33938
6.33938
5.99669
5.99669
5.64428
5.64428
5.28125
5.28125
4.90641
4.90641
4.51823
4.51823
4.11474
4.11474
3.69348
3.69348
3.25148
3.25148
2.78555
2.78555
2.29341
2.29341
1.77739
1.77739
1.25393
1.25393
0.768124
0.768124
0.388003
0.388003
0.15276
0.15276
0.0417792
0.0417792
0.00584861
0.00584861
0.000338256
0.000338256
)
;

boundaryField
{
    walls
    {
        type            kqRWallFunction;
        value           nonuniform List<scalar> 8(0.00033822 0.000338219 0.000338219 0.000338219 0.000338256 0.000338256 0.000338256 0.000338256);
    }
    inlet
    {
        type            cyclic;
    }
    outlet
    {
        type            cyclic;
    }
    sides
    {
        type            empty;
    }
}


// ************************************************************************* //
