/*--------------------------------*- C++ -*----------------------------------*\
| =========                 |                                                 |
| \\      /  F ield         | OpenFOAM: The Open Source CFD Toolbox           |
|  \\    /   O peration     | Version:  2012                                  |
|   \\  /    A nd           | Website:  www.openfoam.com                      |
|    \\/     M anipulation  |                                                 |
\*---------------------------------------------------------------------------*/
FoamFile
{
    version     2.0;
    format      ascii;
    class       surfaceScalarField;
    location    "10500";
    object      phi;
}
// * * * * * * * * * * * * * * * * * * * * * * * * * * * * * * * * * * * * * //

dimensions      [0 3 -1 0 0 0 0];
oriented        oriented;


internalField   nonuniform List<scalar> 
5116
(
3.14628e-07
-3.38554e-12
5.99084e-13
-1.6827e-13
4.66323e-13
9.60774e-07
-4.53939e-12
9.35027e-13
-4.02633e-13
7.28198e-13
1.63355e-06
-5.84386e-12
9.66306e-13
-6.90953e-13
7.52698e-13
2.33375e-06
-7.09922e-12
9.62528e-13
-9.73782e-13
7.49832e-13
3.06213e-06
-8.32856e-12
8.73514e-13
-1.25575e-12
6.80498e-13
3.81942e-06
-9.23689e-12
6.93549e-13
-1.48122e-12
5.4029e-13
4.60636e-06
-9.97444e-12
5.01089e-13
-1.65009e-12
3.90356e-13
5.42374e-06
-1.04227e-11
3.57036e-13
-1.75033e-12
2.78138e-13
6.27241e-06
-1.08297e-11
2.63735e-13
-1.84359e-12
2.05456e-13
7.15334e-06
-1.10721e-11
2.04584e-13
-1.90236e-12
1.59375e-13
8.06762e-06
-1.13448e-11
1.65986e-13
-1.9659e-12
1.29306e-13
9.01646e-06
-1.15011e-11
1.39731e-13
-2.00436e-12
1.08852e-13
1.00012e-05
-1.17101e-11
1.21143e-13
-2.05285e-12
9.4372e-14
1.10234e-05
-1.18243e-11
1.07525e-13
-2.08101e-12
8.37628e-14
1.20846e-05
-1.20008e-11
9.72617e-14
-2.12172e-12
7.57673e-14
1.31866e-05
-1.20927e-11
8.93501e-14
-2.14432e-12
6.96035e-14
1.43313e-05
-1.22489e-11
8.31402e-14
-2.18023e-12
6.47656e-14
1.55206e-05
-1.23275e-11
7.81989e-14
-2.1994e-12
6.09158e-14
1.67567e-05
-1.24714e-11
7.42261e-14
-2.2325e-12
5.78207e-14
1.80419e-05
-1.25417e-11
7.10111e-14
-2.24957e-12
5.53157e-14
1.93784e-05
-1.26767e-11
6.83994e-14
-2.28077e-12
5.32809e-14
2.07688e-05
-1.27413e-11
6.62788e-14
-2.29654e-12
5.16283e-14
2.22156e-05
-1.2871e-11
6.45629e-14
-2.32669e-12
5.02914e-14
2.37212e-05
-1.2932e-11
6.31881e-14
-2.34178e-12
4.92198e-14
2.52884e-05
-1.30577e-11
6.21026e-14
-2.37126e-12
4.83739e-14
2.69199e-05
-1.31165e-11
6.12687e-14
-2.38606e-12
4.77236e-14
2.86182e-05
-1.32404e-11
6.0654e-14
-2.41532e-12
4.72445e-14
3.03859e-05
-1.32982e-11
6.02357e-14
-2.43017e-12
4.69178e-14
3.22258e-05
-1.34211e-11
5.99926e-14
-2.45941e-12
4.67281e-14
3.41403e-05
-1.34788e-11
5.99108e-14
-2.47455e-12
4.66636e-14
3.61318e-05
-1.36023e-11
5.99766e-14
-2.50404e-12
4.67145e-14
3.82025e-05
-1.3661e-11
6.01817e-14
-2.51967e-12
4.68734e-14
4.03545e-05
-1.37857e-11
6.05171e-14
-2.54955e-12
4.71341e-14
4.25898e-05
-1.38463e-11
6.09784e-14
-2.56582e-12
4.74926e-14
4.49097e-05
-1.39734e-11
6.156e-14
-2.59633e-12
4.7945e-14
4.73157e-05
-1.40367e-11
6.22603e-14
-2.6134e-12
4.84895e-14
4.98088e-05
-1.4167e-11
6.30759e-14
-2.64468e-12
4.91242e-14
5.23894e-05
-1.42338e-11
6.40076e-14
-2.66266e-12
4.98489e-14
5.50578e-05
-1.4368e-11
6.50537e-14
-2.69492e-12
5.0663e-14
5.78135e-05
-1.44392e-11
6.62166e-14
-2.71397e-12
5.15677e-14
6.06558e-05
-1.45782e-11
6.74961e-14
-2.7474e-12
5.25637e-14
6.35833e-05
-1.46547e-11
6.88962e-14
-2.76772e-12
5.36529e-14
6.6594e-05
-1.47992e-11
7.04176e-14
-2.8026e-12
5.48372e-14
6.96853e-05
-1.48819e-11
7.20652e-14
-2.82447e-12
5.61193e-14
7.2854e-05
-1.5033e-11
7.38412e-14
-2.86103e-12
5.75018e-14
7.60961e-05
-1.51229e-11
7.5751e-14
-2.88464e-12
5.8988e-14
7.9407e-05
-1.52811e-11
7.77975e-14
-2.9231e-12
6.05811e-14
8.27815e-05
-1.53791e-11
7.9987e-14
-2.94854e-12
6.2285e-14
8.62133e-05
-1.55457e-11
8.23219e-14
-2.98924e-12
6.41028e-14
8.96956e-05
-1.56534e-11
8.48092e-14
-3.01718e-12
6.60386e-14
9.32209e-05
-1.5829e-11
8.74513e-14
-3.06046e-12
6.80956e-14
9.6781e-05
-1.59477e-11
9.02533e-14
-3.09163e-12
7.02768e-14
0.000100367
-1.61339e-11
9.32202e-14
-3.13796e-12
7.25868e-14
0.000103969
-1.62645e-11
9.63553e-14
-3.17241e-12
7.50264e-14
0.000107576
-1.64615e-11
9.96578e-14
-3.22174e-12
7.75966e-14
0.000111179
-1.66047e-11
1.03129e-13
-3.25955e-12
8.02997e-14
0.000114765
-1.68141e-11
1.06768e-13
-3.31242e-12
8.31333e-14
0.000118322
-1.69715e-11
1.10576e-13
-3.3544e-12
8.60975e-14
0.000121839
-1.71937e-11
1.14544e-13
-3.41089e-12
8.91867e-14
0.000125303
-1.73668e-11
1.18665e-13
-3.45645e-12
9.23953e-14
0.000128701
-1.76035e-11
1.2293e-13
-3.51695e-12
9.5716e-14
0.000132022
-1.77939e-11
1.27326e-13
-3.56802e-12
9.91384e-14
0.000135251
-1.80448e-11
1.31835e-13
-3.63245e-12
1.02652e-13
0.000138378
-1.82529e-11
1.36447e-13
-3.68991e-12
1.0624e-13
0.00014139
-1.8519e-11
1.41138e-13
-3.75838e-12
1.09892e-13
0.000144277
-1.87446e-11
1.45883e-13
-3.8195e-12
1.13588e-13
0.000147028
-1.90249e-11
1.50666e-13
-3.89137e-12
1.17314e-13
0.000149635
-1.92675e-11
1.55472e-13
-3.95662e-12
1.21057e-13
0.000152089
-1.9563e-11
1.6028e-13
-4.03267e-12
1.248e-13
0.000154385
-1.98225e-11
1.65081e-13
-4.10295e-12
1.28539e-13
0.000156517
-2.0132e-11
1.69864e-13
-4.18281e-12
1.32264e-13
0.000158481
-2.04085e-11
1.74628e-13
-4.25783e-12
1.35973e-13
0.000160276
-2.07326e-11
1.79374e-13
-4.34169e-12
1.39671e-13
0.000161902
-2.10263e-11
1.84113e-13
-4.42157e-12
1.43362e-13
0.000163361
-2.13639e-11
1.88859e-13
-4.50883e-12
1.47059e-13
0.000164654
-2.16748e-11
1.93633e-13
-4.5937e-12
1.50778e-13
0.000165788
-2.20265e-11
1.98457e-13
-4.68456e-12
1.54537e-13
0.000166767
-2.23551e-11
2.03353e-13
-4.7747e-12
1.58352e-13
0.000167598
-2.27203e-11
2.08352e-13
-4.86875e-12
1.62249e-13
0.000168289
-2.3067e-11
2.13485e-13
-4.96437e-12
1.66248e-13
0.000168849
-2.34469e-11
2.18779e-13
-5.06187e-12
1.70374e-13
0.000169286
-2.3812e-11
2.24263e-13
-5.16281e-12
1.74647e-13
0.00016961
-2.42072e-11
2.29963e-13
-5.26364e-12
1.79087e-13
0.000169829
-2.45914e-11
2.35904e-13
-5.36964e-12
1.83718e-13
0.000169953
-2.50038e-11
2.4211e-13
-5.47436e-12
1.88555e-13
0.000169991
-2.54086e-11
2.48607e-13
-5.58579e-12
1.93621e-13
0.00016995
-2.58398e-11
2.55421e-13
-5.6948e-12
1.98931e-13
0.00016984
-2.62669e-11
2.6257e-13
-5.81205e-12
2.04504e-13
0.000169666
-2.67197e-11
2.70077e-13
-5.92626e-12
2.10356e-13
0.000169437
-2.71711e-11
2.77963e-13
-6.04985e-12
2.16502e-13
0.000169158
-2.76477e-11
2.86246e-13
-6.16991e-12
2.22958e-13
0.000168836
-2.81253e-11
2.94946e-13
-6.29957e-12
2.2974e-13
0.000168475
-2.8629e-11
3.04084e-13
-6.4265e-12
2.36864e-13
0.00016808
-2.91356e-11
3.13678e-13
-6.56312e-12
2.44345e-13
0.000167655
-2.96689e-11
3.23756e-13
-6.69773e-12
2.52198e-13
0.000167204
-3.0208e-11
3.34339e-13
-6.84321e-12
2.60446e-13
0.000166731
-3.07751e-11
3.45442e-13
-6.98679e-12
2.69102e-13
0.000166237
-3.1351e-11
3.57083e-13
-7.14238e-12
2.78176e-13
0.000165727
-3.19545e-11
3.69293e-13
-7.2954e-12
2.87696e-13
0.000165202
-3.25706e-11
3.82103e-13
-7.4618e-12
2.97678e-13
0.000164665
-3.32146e-11
3.95533e-13
-7.62528e-12
3.08143e-13
0.000164118
-3.38748e-11
4.096e-13
-7.80322e-12
3.19109e-13
0.000163561
-3.45621e-11
4.24342e-13
-7.97765e-12
3.30601e-13
0.000162998
-3.52706e-11
4.39791e-13
-8.16847e-12
3.4264e-13
0.000162429
-3.6006e-11
4.55968e-13
-8.35527e-12
3.5525e-13
0.000161856
-3.67678e-11
4.7291e-13
-8.56032e-12
3.68455e-13
0.00016128
-3.75543e-11
4.90654e-13
-8.75996e-12
3.82284e-13
0.000160702
-3.83733e-11
5.09233e-13
-8.97984e-12
3.96763e-13
0.000160124
-3.92164e-11
5.28678e-13
-9.19364e-12
4.1192e-13
0.000159545
-4.00976e-11
5.49029e-13
-9.42931e-12
4.27785e-13
0.000158968
-4.10009e-11
5.70338e-13
-9.65801e-12
4.44391e-13
0.000158392
-4.19498e-11
5.92643e-13
-9.91108e-12
4.61771e-13
0.000157818
-4.29194e-11
6.1598e-13
-1.01562e-11
4.79964e-13
0.000157248
-4.39424e-11
6.4039e-13
-1.04286e-11
4.9899e-13
0.00015668
-4.49827e-11
6.65939e-13
-1.06912e-11
5.18911e-13
0.000156117
-4.6086e-11
6.92678e-13
-1.09845e-11
5.3975e-13
0.000155558
-4.72038e-11
7.20655e-13
-1.12658e-11
5.61559e-13
0.000155004
-4.83936e-11
7.49924e-13
-1.15813e-11
5.84376e-13
0.000154454
-4.95947e-11
7.80549e-13
-1.18829e-11
6.08252e-13
0.000153909
-5.0877e-11
8.12598e-13
-1.22213e-11
6.33232e-13
0.000153369
-5.21694e-11
8.46126e-13
-1.25447e-11
6.59372e-13
0.000152835
-5.35506e-11
8.81207e-13
-1.29067e-11
6.86725e-13
0.000152306
-5.49424e-11
9.17908e-13
-1.32544e-11
7.15339e-13
0.000151782
-5.643e-11
9.56303e-13
-1.36412e-11
7.4528e-13
0.000151264
-5.79311e-11
9.96477e-13
-1.40156e-11
7.76619e-13
0.000150751
-5.95346e-11
1.03854e-12
-1.44297e-11
8.09406e-13
0.000150243
-6.11568e-11
1.08255e-12
-1.48342e-11
8.43737e-13
0.000149741
-6.28869e-11
1.12861e-12
-1.52786e-11
8.7964e-13
0.000149244
-6.46423e-11
1.17679e-12
-1.57162e-11
9.17249e-13
0.000148754
-6.65109e-11
1.22727e-12
-1.6194e-11
9.56581e-13
0.000148269
-6.84138e-11
1.28007e-12
-1.66686e-11
9.97801e-13
0.000147791
-7.04345e-11
1.33539e-12
-1.71835e-11
1.04089e-12
0.000147321
-7.24997e-11
1.39325e-12
-1.76987e-11
1.08609e-12
0.000146858
-7.4688e-11
1.45393e-12
-1.82546e-11
1.13331e-12
0.000146403
-7.69329e-11
1.51735e-12
-1.88145e-11
1.18289e-12
0.000145957
-7.93062e-11
1.58393e-12
-1.94158e-11
1.23465e-12
0.000145521
-8.17479e-11
1.65345e-12
-2.00249e-11
1.28907e-12
0.000145094
-8.43248e-11
1.72656e-12
-2.06763e-11
1.34581e-12
0.000144679
-8.69836e-11
1.8028e-12
-2.13396e-11
1.40559e-12
0.000144275
-8.97835e-11
1.88313e-12
-2.20458e-11
1.46777e-12
0.000143883
-9.26791e-11
1.96672e-12
-2.27689e-11
1.53351e-12
0.000143504
-9.5722e-11
2.05508e-12
-2.35344e-11
1.60164e-12
0.000143139
-9.88786e-11
2.1467e-12
-2.43236e-11
1.67402e-12
0.000142789
-1.02186e-10
2.24402e-12
-2.51537e-11
1.74861e-12
0.000142456
-1.05628e-10
2.34438e-12
-2.6017e-11
1.82846e-12
0.00014214
-1.09224e-10
2.45175e-12
-2.69177e-11
1.91e-12
0.000141844
-1.12982e-10
2.56152e-12
-2.78632e-11
1.9983e-12
0.000141569
-1.16893e-10
2.68028e-12
-2.88413e-11
2.08725e-12
0.000141316
-1.20999e-10
2.80012e-12
-2.98799e-11
2.18522e-12
0.000141087
-1.25259e-10
2.9319e-12
-3.09427e-11
2.28187e-12
0.000140885
-1.29746e-10
3.06221e-12
-3.20844e-11
2.39112e-12
0.000140711
-1.3439e-10
3.20915e-12
-3.32385e-11
2.49545e-12
0.000140568
-1.393e-10
3.34997e-12
-3.44969e-11
2.61818e-12
0.000140458
-1.44369e-10
3.51497e-12
-3.57477e-11
2.72958e-12
0.000140383
-1.49738e-10
3.6656e-12
-3.71363e-11
2.8689e-12
0.000140345
-1.55272e-10
3.85281e-12
-3.8485e-11
2.98579e-12
0.000140347
-1.61143e-10
4.01117e-12
-4.0022e-11
3.14636e-12
0.000140389
-1.67178e-10
4.22668e-12
-4.1464e-11
3.26534e-12
0.000140474
-1.7359e-10
4.38837e-12
-4.31729e-11
3.45435e-12
0.000140601
-1.80162e-10
4.64163e-12
-4.46953e-11
3.56888e-12
0.00014077
-1.8715e-10
4.79805e-12
-4.66091e-11
3.79796e-12
0.00014098
-1.94289e-10
5.10429e-12
-4.8188e-11
3.89593e-12
0.000141229
-2.01891e-10
5.23964e-12
-5.03555e-11
4.18412e-12
0.000141512
-2.09631e-10
5.62382e-12
-5.19507e-11
4.24401e-12
0.000141826
-2.17874e-10
5.70991e-12
-5.44465e-11
4.62306e-12
0.000142167
-2.26263e-10
6.21386e-12
-5.59912e-11
4.60681e-12
0.000142528
-2.35165e-10
6.20068e-12
-5.89297e-11
5.13069e-12
0.000142907
-2.44289e-10
6.89541e-12
-6.03114e-11
4.97156e-12
0.000143298
-2.53827e-10
6.69545e-12
-6.38778e-11
5.73221e-12
0.000143701
-2.63862e-10
7.70229e-12
-6.4904e-11
5.31368e-12
0.000144114
-2.73907e-10
7.162e-12
-6.93934e-11
6.46964e-12
0.000144538
-2.85162e-10
8.69038e-12
-6.97291e-11
5.58772e-12
0.000144978
-2.95572e-10
7.5408e-12
-7.56415e-11
7.41346e-12
0.000145438
-3.08541e-10
9.95365e-12
-7.47031e-11
5.71126e-12
0.000145923
-3.18663e-10
7.72269e-12
-8.28793e-11
8.68482e-12
0.000146438
-3.34162e-10
1.16533e-11
-7.96392e-11
5.53562e-12
0.000146988
-3.42664e-10
7.51031e-12
-9.15194e-11
1.04939e-11
0.000147578
-3.62325e-10
1.40689e-11
-8.41764e-11
4.79456e-12
0.00014821
-3.66901e-10
6.54845e-12
-1.02291e-10
1.32094e-11
0.000148888
-3.94579e-10
1.76918e-11
-8.7661e-11
3.0108e-12
0.000149611
-3.90822e-10
4.19877e-12
-1.16476e-10
1.74835e-11
0.00015038
-4.3854e-10
2.33928e-11
-8.88302e-11
-6.71832e-13
0.000151192
-4.19199e-10
-6.85754e-13
-1.36329e-10
2.44779e-11
0.000152043
-4.97871e-10
3.27282e-11
-8.51495e-11
-7.79365e-12
0.00015293
-4.47446e-10
-1.01679e-11
-1.65413e-10
3.62712e-11
0.000153849
-5.36909e-10
3.73295e-11
-1.05091e-10
-9.98721e-12
0.000154796
-4.31529e-10
-2.71275e-11
-2.40842e-10
5.57606e-11
0.000155771
-3.93509e-10
-4.08877e-12
-3.09793e-10
3.40764e-11
0.000156772
-2.08613e-10
-5.24587e-11
-5.26579e-10
8.38579e-11
0.0001578
-1.0812e-11
-5.67367e-11
-7.59127e-10
8.9615e-11
0.000158862
4.70349e-11
-9.13375e-12
-8.51523e-10
4.3563e-11
0.000159965
1.80959e-10
-3.66604e-11
-1.03023e-09
7.27016e-11
0.000161114
8.89447e-11
4.175e-11
-9.76139e-10
-4.01718e-12
0.000162316
1.6837e-10
-1.86253e-11
-1.10758e-09
5.81119e-11
0.000163574
4.89054e-11
5.25084e-11
-1.0278e-09
-1.1169e-11
0.000164892
9.36938e-11
-4.65604e-12
-1.12444e-09
4.78855e-11
0.000166275
4.29513e-12
4.4288e-11
-1.07635e-09
9.42114e-13
0.000167722
2.43481e-11
5.75436e-12
-1.14927e-09
4.15276e-11
0.000169236
-4.59774e-11
3.93324e-11
-1.12371e-09
1.01044e-11
0.000170811
-4.42721e-11
1.36995e-11
-1.18084e-09
3.79523e-11
0.000172437
-1.03114e-10
3.67173e-11
-1.17148e-09
1.72474e-11
0.000174099
-1.15164e-10
1.99614e-11
-1.21845e-09
3.63814e-11
0.00017578
-1.6757e-10
3.57816e-11
-1.22093e-09
2.3033e-11
0.000177458
-1.90103e-10
2.50955e-11
-1.26172e-09
3.62593e-11
0.000179109
-2.39471e-10
3.60549e-11
-1.27307e-09
2.793e-11
0.000180712
-2.70223e-10
2.94929e-11
-1.31051e-09
3.71925e-11
0.000182249
-3.18858e-10
3.72046e-11
-1.32874e-09
3.22685e-11
0.000183709
-3.56303e-10
3.34278e-11
-1.36483e-09
3.89055e-11
0.000185093
-4.05777e-10
3.89976e-11
-1.38862e-09
3.62811e-11
0.000186405
-4.48921e-10
3.7093e-11
-1.42477e-09
4.12061e-11
0.000187654
-5.00322e-10
4.12711e-11
-1.45329e-09
4.01323e-11
0.000188841
-5.48544e-10
4.06232e-11
-1.49052e-09
4.39618e-11
0.000189963
-6.02623e-10
4.39132e-11
-1.52325e-09
4.39387e-11
0.000191012
-6.55559e-10
4.41113e-11
-1.5623e-09
4.70839e-11
0.000191974
-7.12862e-10
4.68499e-11
-1.59895e-09
4.77794e-11
0.000192834
-7.70329e-10
4.76242e-11
-1.64037e-09
5.05172e-11
0.000193579
-8.31259e-10
5.00371e-11
-1.6808e-09
5.17154e-11
0.000194193
-8.93212e-10
5.12178e-11
-1.72503e-09
5.42359e-11
0.000194662
-9.58109e-10
5.34573e-11
-1.76924e-09
5.5805e-11
0.000194973
-1.0246e-09
5.49415e-11
-1.81664e-09
5.82408e-11
0.000195126
-1.09379e-09
5.71205e-11
-1.86472e-09
6.01072e-11
0.000195135
-1.16498e-09
5.88524e-11
-1.91563e-09
6.25577e-11
0.000195034
-1.23879e-09
6.1055e-11
-1.96774e-09
6.4687e-11
0.000194863
-1.31493e-09
6.30073e-11
-2.02251e-09
6.72259e-11
0.000194666
-1.39374e-09
6.52905e-11
-2.07889e-09
6.96027e-11
0.000194475
-1.47513e-09
6.74474e-11
-2.13789e-09
7.22788e-11
0.000194305
-1.55931e-09
6.98461e-11
-2.19882e-09
7.4894e-11
0.000194144
-1.64631e-09
7.21956e-11
-2.26241e-09
7.77374e-11
0.000193955
-1.73625e-09
7.47327e-11
-2.32822e-09
8.05887e-11
0.000193697
-1.82925e-09
7.72734e-11
-2.39679e-09
8.36288e-11
0.000193343
-1.92538e-09
7.99758e-11
-2.46784e-09
8.6729e-11
0.000192891
-2.02481e-09
8.27224e-11
-2.54179e-09
9.00033e-11
0.000192366
-2.12761e-09
8.56231e-11
-2.6185e-09
9.33805e-11
0.000191794
-2.23398e-09
8.85974e-11
-2.69831e-09
9.69278e-11
0.000191204
-2.344e-09
9.17262e-11
-2.78116e-09
1.00612e-10
0.000190618
-2.45788e-09
9.49458e-11
-2.86734e-09
1.04464e-10
0.000190072
-2.5757e-09
9.83226e-11
-2.95686e-09
1.0848e-10
0.000189609
-2.69769e-09
1.01794e-10
-3.04997e-09
1.12656e-10
0.000189285
-2.82394e-09
1.05421e-10
-3.1467e-09
1.17012e-10
0.000189148
-2.95464e-09
1.09129e-10
-3.24728e-09
1.21508e-10
0.000189211
-3.08988e-09
1.12988e-10
-3.35177e-09
1.26191e-10
0.000189443
-3.22981e-09
1.16896e-10
-3.46034e-09
1.30982e-10
0.000189769
-3.37455e-09
1.20958e-10
-3.57309e-09
1.35971e-10
0.00019008
-3.5242e-09
1.25038e-10
-3.69014e-09
1.41039e-10
0.00019026
-3.67891e-09
1.29302e-10
-3.81164e-09
1.46342e-10
0.000190204
-3.83876e-09
1.33558e-10
-3.93767e-09
1.51705e-10
0.000189809
-4.00398e-09
1.38071e-10
-4.06846e-09
1.57387e-10
0.000188987
-4.17465e-09
1.42567e-10
-4.20409e-09
1.6313e-10
0.000187726
-4.35116e-09
1.47449e-10
-4.34493e-09
1.69339e-10
0.000186122
-4.53358e-09
1.52305e-10
-4.49103e-09
1.75616e-10
0.000184373
-4.72251e-09
1.57721e-10
-4.64295e-09
1.82555e-10
0.000182713
-4.91792e-09
1.63025e-10
-4.80063e-09
1.89489e-10
0.000181358
-5.12059e-09
1.69051e-10
-4.96485e-09
1.97263e-10
0.000180502
-5.33025e-09
1.74732e-10
-5.13532e-09
2.04814e-10
0.000180286
-5.54784e-09
1.81307e-10
-5.31298e-09
2.13381e-10
0.000180694
-5.7727e-09
1.87152e-10
-5.49719e-09
2.21347e-10
0.000181502
-6.00606e-09
1.9417e-10
-5.68921e-09
2.30619e-10
0.000182378
-6.24672e-09
1.99961e-10
-5.88787e-09
2.38803e-10
0.000183066
-6.49642e-09
2.07433e-10
-6.095e-09
2.48823e-10
0.000183566
-6.75332e-09
2.13007e-10
-6.30877e-09
2.57101e-10
0.000184113
-7.01995e-09
2.21057e-10
-6.53182e-09
2.68026e-10
0.000185038
-7.29343e-09
2.26193e-10
-6.7613e-09
2.76211e-10
0.000186613
-7.57743e-09
2.34924e-10
-7.00099e-09
2.88175e-10
0.000189009
-7.86754e-09
2.39216e-10
-7.24657e-09
2.95906e-10
0.000192331
-8.16907e-09
2.48765e-10
-7.50351e-09
3.09101e-10
0.000196539
-8.47548e-09
2.51744e-10
-7.76539e-09
3.1598e-10
0.000201446
-8.79464e-09
2.62502e-10
-8.04026e-09
3.30918e-10
0.000206829
-9.11702e-09
2.63676e-10
-8.31875e-09
3.36598e-10
0.000212508
-9.45416e-09
2.763e-10
-8.61261e-09
3.54091e-10
0.000218316
-9.79217e-09
2.74954e-10
-8.9082e-09
3.58028e-10
0.000224053
-1.01478e-08
2.90275e-10
-9.22254e-09
3.7908e-10
0.000229465
-1.05009e-08
2.85301e-10
-9.53572e-09
3.8032e-10
0.000234306
-1.08755e-08
3.04402e-10
-9.87222e-09
4.06149e-10
0.000238379
-1.12425e-08
2.94188e-10
-1.02032e-08
4.03197e-10
0.000241554
-1.16366e-08
3.18619e-10
-1.05638e-08
4.35478e-10
0.000243816
-1.20159e-08
3.01075e-10
-1.09125e-08
4.26376e-10
0.000245156
-1.24301e-08
3.33203e-10
-1.12996e-08
4.67624e-10
0.000245505
-1.28198e-08
3.05666e-10
-1.16661e-08
4.49935e-10
0.000244903
-1.32558e-08
3.48975e-10
-1.20835e-08
5.03922e-10
0.000243558
-1.3654e-08
3.07872e-10
-1.24681e-08
4.74384e-10
0.000241645
-1.4115e-08
3.67268e-10
-1.29211e-08
5.46405e-10
0.000239125
-1.45198e-08
3.0738e-10
-1.33245e-08
5.00233e-10
0.000235743
-1.50106e-08
3.89682e-10
-1.38213e-08
5.97662e-10
0.000231306
-1.54196e-08
3.03561e-10
-1.42445e-08
5.28022e-10
0.000225937
-1.59482e-08
4.18764e-10
-1.47966e-08
6.61643e-10
0.000220052
-1.63586e-08
2.95526e-10
-1.5241e-08
5.58497e-10
0.000214148
-1.69365e-08
4.58043e-10
-1.5865e-08
7.43784e-10
0.000208563
-1.73434e-08
2.80881e-10
-1.63312e-08
5.91269e-10
0.000203643
-1.79863e-08
5.11091e-10
-1.70491e-08
8.49772e-10
0.000200136
-1.83797e-08
2.54617e-10
-1.75348e-08
6.23297e-10
0.000198984
-1.91057e-08
5.81016e-10
-1.83741e-08
9.84684e-10
0.000200669
-1.94668e-08
2.08473e-10
-1.88709e-08
6.48139e-10
0.000204746
-2.02961e-08
6.70361e-10
-1.98649e-08
1.15377e-09
0.000209942
-2.05943e-08
1.31392e-10
-2.03578e-08
6.58325e-10
0.000214683
-2.15523e-08
7.84872e-10
-2.15515e-08
1.36839e-09
0.000217778
-2.1743e-08
9.87179e-12
-2.20177e-08
6.4574e-10
0.000218999
-2.28647e-08
9.34739e-10
-2.34731e-08
1.64492e-09
0.000218966
-2.28853e-08
-1.73132e-10
-2.38774e-08
5.9705e-10
0.000218596
-2.42207e-08
1.13558e-09
-2.56795e-08
2.00552e-09
0.000218759
-2.3984e-08
-4.40984e-10
-2.59688e-08
4.9288e-10
0.00022009
-2.56022e-08
1.4079e-09
-2.82352e-08
2.48153e-09
0.00022282
-2.49864e-08
-8.26227e-10
-2.83308e-08
3.05486e-10
0.000226738
-2.69781e-08
1.77534e-09
-3.12235e-08
3.11553e-09
0.000231632
-2.58144e-08
-1.37198e-09
-3.10125e-08
-3.55553e-12
0.000238015
-2.82979e-08
2.26819e-09
-3.47611e-08
3.97242e-09
0.000246708
-2.63546e-08
-2.13497e-09
-3.40805e-08
-4.90641e-10
0.000257653
-2.94821e-08
2.92489e-09
-3.90302e-08
5.16238e-09
0.000270023
-2.64367e-08
-3.19602e-09
-3.76354e-08
-1.2478e-09
0.000282535
-3.03971e-08
3.78802e-09
-4.43392e-08
6.8877e-09
0.000293819
-2.58097e-08
-4.65094e-09
-4.18329e-08
-2.44877e-09
0.00030325
-3.07796e-08
4.8593e-09
-5.11824e-08
9.47395e-09
0.000311247
-2.4143e-08
-6.53322e-09
-4.68668e-08
-4.42699e-09
0.000318537
-3.01329e-08
5.99543e-09
-6.03275e-08
1.34704e-08
0.000324842
-2.10796e-08
-8.65823e-09
-5.28712e-08
-7.85924e-09
0.000329476
-2.74945e-08
6.64509e-09
-7.31076e-08
2.00101e-08
0.000332851
-1.64464e-08
-1.02036e-08
-5.97013e-08
-1.42595e-08
0.000336816
-2.08581e-08
5.12453e-09
-7.22864e-08
1.18688e-08
0.00034286
-9.46842e-09
-9.97521e-09
-4.85816e-08
-2.51252e-08
0.000350185
-8.69288e-09
6.16613e-10
-3.96005e-08
-1.03759e-08
0.000356929
-6.75567e-09
-7.23744e-11
-4.13691e-08
-9.92424e-11
3.14628e-07
5.95091e-13
4.49341e-13
9.60773e-07
1.51988e-12
1.15277e-12
1.63355e-06
2.4893e-12
1.88133e-12
2.33375e-06
3.43986e-12
2.60279e-12
3.06213e-06
4.32415e-12
3.26448e-12
3.81942e-06
5.00285e-12
3.77733e-12
4.60636e-06
5.52041e-12
4.16155e-12
5.42374e-06
5.86949e-12
4.42723e-12
6.27241e-06
6.14993e-12
4.63306e-12
7.15334e-06
6.34872e-12
4.78405e-12
8.06761e-06
6.53159e-12
4.91616e-12
9.01646e-06
6.66741e-12
5.01918e-12
1.00012e-05
6.80559e-12
5.11757e-12
1.10234e-05
6.91098e-12
5.19708e-12
1.20846e-05
7.02567e-12
5.27763e-12
1.31866e-05
7.1147e-12
5.34423e-12
1.43313e-05
7.21583e-12
5.41431e-12
1.55206e-05
7.29559e-12
5.47324e-12
1.67567e-05
7.38826e-12
5.53674e-12
1.80419e-05
7.4627e-12
5.59095e-12
1.93784e-05
7.55024e-12
5.65026e-12
2.07688e-05
7.62184e-12
5.70155e-12
2.22156e-05
7.70577e-12
5.75802e-12
2.37212e-05
7.77616e-12
5.80762e-12
2.52884e-05
7.85823e-12
5.86239e-12
2.69199e-05
7.92871e-12
5.91119e-12
2.86182e-05
8.00944e-12
5.96492e-12
3.03859e-05
8.08088e-12
6.01358e-12
3.22258e-05
8.16154e-12
6.06702e-12
3.41403e-05
8.23474e-12
6.11611e-12
3.61318e-05
8.31523e-12
6.16952e-12
3.82025e-05
8.39076e-12
6.21951e-12
4.03545e-05
8.47219e-12
6.27353e-12
4.25897e-05
8.55073e-12
6.3249e-12
4.49097e-05
8.63287e-12
6.37968e-12
4.73157e-05
8.71486e-12
6.43282e-12
4.98088e-05
8.79877e-12
6.48895e-12
5.23894e-05
8.88479e-12
6.54429e-12
5.50577e-05
8.97e-12
6.60178e-12
5.78135e-05
9.06038e-12
6.65968e-12
6.06558e-05
9.14794e-12
6.71911e-12
6.35833e-05
9.24322e-12
6.77999e-12
6.6594e-05
9.33273e-12
6.84136e-12
6.96853e-05
9.4332e-12
6.90554e-12
7.2854e-05
9.52573e-12
6.96946e-12
7.60961e-05
9.63192e-12
7.0374e-12
7.9407e-05
9.72711e-12
7.1039e-12
8.27814e-05
9.8393e-12
7.17587e-12
8.62132e-05
9.93821e-12
7.24557e-12
8.96956e-05
1.00566e-11
7.32189e-12
9.32209e-05
1.0159e-11
7.39488e-12
9.6781e-05
1.02836e-11
7.47538e-12
0.000100367
1.03907e-11
7.55224e-12
0.000103969
1.05223e-11
7.63778e-12
0.000107576
1.06342e-11
7.7189e-12
0.000111179
1.07736e-11
7.81019e-12
0.000114765
1.08913e-11
7.89616e-12
0.000118322
1.10388e-11
7.99334e-12
0.000121839
1.11626e-11
8.08446e-12
0.000125303
1.13179e-11
8.18741e-12
0.000128701
1.14486e-11
8.28414e-12
0.000132022
1.16115e-11
8.39248e-12
0.000135251
1.17496e-11
8.49536e-12
0.000138378
1.19206e-11
8.60987e-12
0.00014139
1.20668e-11
8.71939e-12
0.000144277
1.22467e-11
8.8408e-12
0.000147028
1.24016e-11
8.95748e-12
0.000149635
1.25912e-11
9.08641e-12
0.000152089
1.27549e-11
9.21025e-12
0.000154385
1.29542e-11
9.34679e-12
0.000156517
1.31269e-11
9.47795e-12
0.000158481
1.33354e-11
9.62184e-12
0.000160276
1.35171e-11
9.76025e-12
0.000161902
1.37344e-11
9.9114e-12
0.000163361
1.39257e-11
1.00574e-11
0.000164655
1.41518e-11
1.02155e-11
0.000165788
1.43531e-11
1.03695e-11
0.000166767
1.45881e-11
1.05345e-11
0.000167598
1.48005e-11
1.0697e-11
0.00016829
1.5045e-11
1.08697e-11
0.000168849
1.52695e-11
1.10416e-11
0.000169286
1.55249e-11
1.12232e-11
0.00016961
1.57629e-11
1.14052e-11
0.000169829
1.60306e-11
1.15966e-11
0.000169953
1.62831e-11
1.17896e-11
0.000169991
1.65646e-11
1.19921e-11
0.00016995
1.68333e-11
1.21967e-11
0.00016984
1.71299e-11
1.24116e-11
0.000169666
1.74158e-11
1.26287e-11
0.000169437
1.77294e-11
1.28573e-11
0.000169158
1.80344e-11
1.30877e-11
0.000168836
1.8367e-11
1.33309e-11
0.000168475
1.86923e-11
1.35754e-11
0.00016808
1.90458e-11
1.38347e-11
0.000167655
1.93938e-11
1.40945e-11
0.000167204
1.97696e-11
1.43708e-11
0.000166731
2.01414e-11
1.46468e-11
0.000166237
2.05407e-11
1.49402e-11
0.000165727
2.09393e-11
1.52342e-11
0.000165202
2.13643e-11
1.55463e-11
0.000164665
2.17917e-11
1.58596e-11
0.000164118
2.22452e-11
1.61917e-11
0.000163561
2.27049e-11
1.65272e-11
0.000162998
2.31894e-11
1.68809e-11
0.000162429
2.36835e-11
1.724e-11
0.000161856
2.42017e-11
1.76173e-11
0.00016128
2.47345e-11
1.80036e-11
0.000160703
2.52902e-11
1.84069e-11
0.000160124
2.58644e-11
1.88223e-11
0.000159546
2.64614e-11
1.92541e-11
0.000158968
2.70818e-11
1.97029e-11
0.000158392
2.77237e-11
2.01661e-11
0.000157818
2.83939e-11
2.0651e-11
0.000157248
2.90844e-11
2.11479e-11
0.000156681
2.98097e-11
2.16739e-11
0.000156117
3.05535e-11
2.22084e-11
0.000155558
3.13387e-11
2.27792e-11
0.000155004
3.21413e-11
2.33561e-11
0.000154454
3.29924e-11
2.39773e-11
0.000153909
3.38606e-11
2.46024e-11
0.00015337
3.47835e-11
2.52787e-11
0.000152835
3.57249e-11
2.59579e-11
0.000152306
3.67258e-11
2.66945e-11
0.000151782
3.77481e-11
2.74346e-11
0.000151264
3.88339e-11
2.8237e-11
0.000150751
3.99444e-11
2.90448e-11
0.000150243
4.1122e-11
2.99178e-11
0.000149741
4.23287e-11
3.07996e-11
0.000149244
4.3606e-11
3.17491e-11
0.000148754
4.49174e-11
3.27118e-11
0.000148269
4.63031e-11
3.37435e-11
0.000147792
4.77288e-11
3.47943e-11
0.000147321
4.92326e-11
3.59152e-11
0.000146858
5.07829e-11
3.70615e-11
0.000146403
5.24156e-11
3.82786e-11
0.000145957
5.41019e-11
3.95284e-11
0.000145521
5.58755e-11
4.08508e-11
0.000145095
5.77104e-11
4.22135e-11
0.000144679
5.96377e-11
4.36502e-11
0.000144275
6.16356e-11
4.51369e-11
0.000143883
6.37311e-11
4.67006e-11
0.000143504
6.59085e-11
4.83252e-11
0.000143139
6.81874e-11
5.00272e-11
0.00014279
7.05623e-11
5.18053e-11
0.000142456
7.30412e-11
5.36601e-11
0.000142141
7.56329e-11
5.56092e-11
0.000141844
7.83299e-11
5.76308e-11
0.000141569
8.116e-11
5.97691e-11
0.000141316
8.40938e-11
6.19723e-11
0.000141087
8.7186e-11
6.43181e-11
0.000140885
9.03788e-11
6.67214e-11
0.000140712
9.37606e-11
6.92939e-11
0.000140569
9.72346e-11
7.19149e-11
0.000140458
1.00938e-10
7.47351e-11
0.000140383
1.04719e-10
7.75999e-11
0.000140345
1.08784e-10
8.06949e-11
0.000140347
1.12897e-10
8.38327e-11
0.000140389
1.17374e-10
8.72379e-11
0.000140474
1.21842e-10
9.06854e-11
0.000140601
1.26794e-10
9.44475e-11
0.000140771
1.31636e-10
9.82536e-11
0.000140981
1.37139e-10
1.0243e-10
0.000141229
1.42363e-10
1.06649e-10
0.000141513
1.48518e-10
1.113e-10
0.000141827
1.54111e-10
1.16005e-10
0.000142167
1.61048e-10
1.21187e-10
0.000142528
1.66964e-10
1.26473e-10
0.000142907
1.74867e-10
1.32216e-10
0.000143298
1.80993e-10
1.38227e-10
0.000143701
1.90133e-10
1.44483e-10
0.000144114
1.96257e-10
1.51485e-10
0.000144539
2.07053e-10
1.58089e-10
0.000144979
2.12765e-10
1.66374e-10
0.000145438
2.25896e-10
1.7299e-10
0.000145923
2.30453e-10
1.83372e-10
0.000146438
2.47049e-10
1.89356e-10
0.000146988
2.49118e-10
2.03337e-10
0.000147578
2.71094e-10
2.07244e-10
0.000148211
2.68264e-10
2.27325e-10
0.000148888
2.98925e-10
2.25495e-10
0.000149611
2.86858e-10
2.563e-10
0.00015038
3.32068e-10
2.36934e-10
0.000151192
3.02921e-10
2.85947e-10
0.000152043
3.73342e-10
2.384e-10
0.00015293
3.13188e-10
3.2138e-10
0.000153849
3.94602e-10
2.66025e-10
0.000154797
2.80883e-10
4.07103e-10
0.000155772
2.35034e-10
4.82476e-10
0.000156772
4.2383e-11
7.06505e-10
0.0001578
-1.64863e-10
9.45263e-10
0.000158863
-2.30843e-10
1.04603e-09
0.000159966
-3.81855e-10
1.22498e-09
0.000161115
-2.98859e-10
1.18003e-09
0.000162317
-4.00007e-10
1.3088e-09
0.000163574
-2.88634e-10
1.2409e-09
0.000164892
-3.52165e-10
1.33962e-09
0.000166275
-2.69543e-10
1.30663e-09
0.000167723
-3.06303e-10
1.38567e-09
0.000169236
-2.4304e-10
1.37703e-09
0.000170812
-2.60714e-10
1.44322e-09
0.000172437
-2.10237e-10
1.45177e-09
0.0001741
-2.1422e-10
1.51014e-09
0.000175781
-1.71936e-10
1.53123e-09
0.000177458
-1.65981e-10
1.58545e-09
0.00017911
-1.28692e-10
1.61611e-09
0.000180713
-1.15393e-10
1.66886e-09
0.00018225
-8.08805e-11
1.7072e-09
0.00018371
-6.20141e-11
1.76042e-09
0.000185094
-2.87455e-11
1.80529e-09
0.000186406
-5.51613e-12
1.86039e-09
0.000187655
2.75636e-11
1.91113e-09
0.000188843
5.43519e-11
1.96917e-09
0.000189965
8.79609e-11
2.02546e-09
0.000191014
1.17777e-10
2.08723e-09
0.000191976
1.52412e-10
2.14896e-09
0.000192836
1.84914e-10
2.21509e-09
0.000193581
2.20923e-10
2.28233e-09
0.000194196
2.559e-10
2.35337e-09
0.000194664
2.93532e-10
2.42629e-09
0.000194975
3.30867e-10
2.50274e-09
0.000195129
3.70316e-10
2.58165e-09
0.000195139
4.09971e-10
2.66404e-09
0.000195037
4.51408e-10
2.74936e-09
0.000194867
4.93404e-10
2.83825e-09
0.00019467
5.36984e-10
2.93048e-09
0.000194479
5.81376e-10
3.02648e-09
0.000194309
6.27238e-10
3.12619e-09
0.000194148
6.74093e-10
3.22994e-09
0.000193959
7.22352e-10
3.33777e-09
0.000193702
7.71735e-10
3.44995e-09
0.000193348
8.225e-10
3.56661e-09
0.000192896
8.7449e-10
3.688e-09
0.000192371
9.27873e-10
3.8143e-09
0.0001918
9.82567e-10
3.94577e-09
0.000191209
1.03868e-09
4.08264e-09
0.000190624
1.09619e-09
4.22518e-09
0.000190078
1.15514e-09
4.37366e-09
0.000189615
1.21554e-09
4.52834e-09
0.000189291
1.2774e-09
4.68953e-09
0.000189154
1.34072e-09
4.85747e-09
0.000189217
1.4055e-09
5.03248e-09
0.000189449
1.4717e-09
5.21478e-09
0.000189775
1.53931e-09
5.40471e-09
0.000190087
1.60825e-09
5.60246e-09
0.000190267
1.67852e-09
5.80844e-09
0.000190212
1.75001e-09
6.02283e-09
0.000189817
1.82275e-09
6.24615e-09
0.000188996
1.89661e-09
6.47862e-09
0.000187736
1.97168e-09
6.72094e-09
0.000186132
2.04777e-09
6.97342e-09
0.000184383
2.12509e-09
7.23698e-09
0.000182723
2.20334e-09
7.51192e-09
0.000181368
2.28283e-09
7.79935e-09
0.000180511
2.36304e-09
8.09941e-09
0.000180294
2.44439e-09
8.41336e-09
0.000180701
2.52603e-09
8.74098e-09
0.000181509
2.60861e-09
9.0838e-09
0.000182384
2.69081e-09
9.44119e-09
0.000183071
2.77367e-09
9.81518e-09
0.00018357
2.85527e-09
1.02046e-08
0.000184116
2.93729e-09
1.06122e-08
0.000185039
3.01688e-09
1.1036e-08
0.000186612
3.09668e-09
1.14798e-08
0.000189005