/*--------------------------------*- C++ -*----------------------------------*\
| =========                 |                                                 |
| \\      /  F ield         | OpenFOAM: The Open Source CFD Toolbox           |
|  \\    /   O peration     | Version:  2012                                  |
|   \\  /    A nd           | Website:  www.openfoam.com                      |
|    \\/     M anipulation  |                                                 |
\*---------------------------------------------------------------------------*/
FoamFile
{
    version     2.0;
    format      ascii;
    class       volTensorField;
    location    "12000";
    object      grad(U);
}
// * * * * * * * * * * * * * * * * * * * * * * * * * * * * * * * * * * * * * //

dimensions      [0 0 -1 0 0 0 0];


internalField   nonuniform List<tensor> 
5120
(
(4.5619e-18 -2.19584e-24 -5.51645e-27 30.1845 -1.6222e-11 -6.81658e-13 0.0218932 -5.88307e-15 -1.75458e-16)
(-4.5619e-18 -5.04424e-28 -4.50296e-28 30.1845 -1.1366e-15 -1.10463e-13 0.0218932 -4.83715e-19 -4.29274e-17)
(9.05829e-18 0 6.37737e-31 30.1827 6.46238e-27 -1.07668e-13 0.0658357 1.27657e-44 -1.57312e-16)
(-9.05829e-18 -2.47154e-29 -3.86178e-31 30.1827 -4.3816e-15 -5.76087e-14 0.0658357 -3.49337e-18 -1.5571e-16)
(3.30659e-17 -1.63586e-29 -2.14211e-27 30.1799 1.06042e-11 -2.05936e-14 0.0891449 -3.70381e-14 -3.03065e-17)
(0 8.17931e-30 3.83405e-31 30.1799 -5.14186e-15 -2.40238e-15 0.0891449 -7.63464e-18 -1.57957e-16)
(0 1.21809e-29 3.80652e-31 30.1762 1.22229e-12 -2.04253e-14 0.0897769 -5.9566e-15 -9.10173e-17)
(0 -8.12057e-30 -2.53768e-31 30.1762 -5.28586e-15 -4.30279e-15 0.0897769 -1.20283e-17 -1.60226e-16)
(1.51467e-17 -4.90555e-29 -1.10922e-30 30.1714 1.83767e-13 -3.1085e-14 0.0904105 -1.27368e-15 -9.46368e-17)
(6.05867e-17 4.03113e-29 7.55837e-31 30.1714 -5.29779e-15 -6.46181e-15 0.0904105 -1.64687e-17 -1.65341e-16)
(-2.1332e-17 -1.34342e-27 6.06426e-31 30.1656 -2.06312e-14 -2.93666e-14 0.0910455 -3.10254e-17 -8.19648e-17)
(5.01246e-17 -8.00437e-30 -2.50136e-31 30.1656 -5.32058e-15 -6.48944e-15 0.0910455 -2.09809e-17 -1.70885e-16)
(-2.75613e-17 1.68156e-44 6.05643e-31 30.1589 3.23364e-27 -2.67248e-14 0.091682 0 -7.99469e-17)
(0 -1.58938e-29 -4.9668e-31 30.1589 -5.32421e-15 -6.43762e-15 0.091682 -2.55255e-17 -1.76124e-16)
(3.55652e-17 4.03834e-29 1.09743e-30 30.1511 3.20853e-14 -2.64416e-14 0.0923199 -1.08578e-16 -8.14203e-17)
(-2.04737e-16 -3.55042e-29 -9.86228e-31 30.1511 -5.29537e-15 -6.71996e-15 0.0923199 -3.00898e-17 -1.81679e-16)
(-4.01517e-17 9.62866e-31 1.1348e-31 30.1424 2.17648e-14 -2.67418e-14 0.0929593 -8.71479e-17 -8.29593e-17)
(0 1.17497e-29 2.44786e-31 30.1424 -5.31891e-15 -6.87822e-15 0.0929593 -3.46876e-17 -1.87435e-16)
(-9.30262e-17 4.86521e-29 9.60738e-31 30.1328 1.29234e-14 -2.702e-14 0.0936002 -4.64875e-17 -8.43309e-17)
(-1.86052e-16 -3.88846e-29 -7.29086e-31 30.1328 -5.35345e-15 -6.98421e-15 0.0936002 -3.94032e-17 -1.93323e-16)
(0 0 -2.41283e-31 30.1222 1.01863e-14 -2.72695e-14 0.0942426 -3.34765e-17 -8.57255e-17)
(4.2335e-16 7.72107e-30 2.41283e-31 30.1222 -5.37464e-15 -7.08018e-15 0.0942426 -4.40864e-17 -1.99337e-16)
(5.93688e-17 2.78117e-30 -1.20634e-31 30.1106 9.40476e-15 -2.75232e-14 0.0948864 -3.00321e-17 -8.71546e-17)
(-2.37475e-16 0 2.39551e-31 30.1106 -5.45855e-15 -7.16881e-15 0.0948864 -4.88518e-17 -2.0547e-16)
(1.31727e-16 5.45337e-30 2.29465e-31 30.0982 9.16192e-15 -2.77803e-14 0.0955317 -2.90362e-17 -8.86022e-17)
(2.63453e-16 -1.52212e-29 -4.75661e-31 30.0982 -5.42555e-15 -7.25095e-15 0.0955317 -5.37805e-17 -2.1172e-16)
(0 0 2.36123e-31 30.0848 9.13437e-15 -2.80368e-14 0.0961785 -2.89262e-17 -9.00606e-17)
(2.8961e-16 7.55593e-30 0 30.0848 -5.37506e-15 -7.32885e-15 0.0961785 -5.86125e-17 -2.18082e-16)
(7.89862e-17 2.51242e-29 5.75125e-31 30.0706 9.192e-15 -2.82921e-14 0.0968268 -2.92816e-17 -9.15329e-17)
(-1.31971e-16 -1.50033e-29 0 30.0706 -5.44366e-15 -6.85914e-15 0.0968268 -6.35531e-17 -2.24557e-16)
(-2.16638e-16 1.97773e-29 1.06222e-30 30.0554 9.27841e-15 -2.79978e-14 0.0974766 -2.97173e-17 -8.94586e-17)
(3.42459e-16 0 -2.32744e-31 30.0554 -5.40849e-15 -4.75459e-15 0.0974766 -6.86541e-17 -2.30265e-16)
(9.22881e-17 -4.8809e-30 -1.35254e-31 30.0394 9.36089e-15 -2.60593e-14 0.098128 -3.02674e-17 -8.01935e-17)
(4.7814e-16 0 0 30.0394 -5.41221e-15 -3.16022e-15 0.098128 -7.36279e-17 -2.33429e-16)
(1.29148e-16 -1.46824e-29 -4.58826e-31 30.0226 9.47928e-15 -2.46366e-14 0.0987809 -3.06878e-17 -8.1393e-17)
(0 2.20237e-29 4.58826e-31 30.0226 -5.53814e-15 -3.1655e-15 0.0987809 -7.87235e-17 -2.36625e-16)
(-1.28221e-16 2.18655e-29 6.83297e-31 30.0049 9.58958e-15 -2.48259e-14 0.0994354 -3.14861e-17 -8.26126e-17)
(-1.28221e-16 -7.2885e-30 0 30.0049 -5.58961e-15 -3.17061e-15 0.0994354 -8.39635e-17 -2.39856e-16)
(-2.25157e-16 3.87015e-29 1.41474e-30 29.9864 9.52642e-15 -2.50171e-14 0.100091 -3.18645e-17 -8.38516e-17)
(0 -2.89447e-29 -1.13065e-30 29.9864 -5.63172e-15 -3.17464e-15 0.100091 -8.92093e-17 -2.43117e-16)
(-1.19433e-16 2.64303e-29 8.17895e-31 29.9671 9.53043e-15 -2.521e-14 0.100749 -3.15215e-17 -8.51093e-17)
(0 -7.1842e-30 0 29.9671 -5.66799e-15 -3.17875e-15 0.100749 -9.4568e-17 -2.4641e-16)
(2.52664e-16 -1.68862e-29 -9.6217e-31 29.9469 9.64984e-15 -2.54035e-14 0.101408 -3.23541e-17 -8.63802e-17)
(5.05328e-16 1.42652e-29 6.68682e-31 29.9469 -5.71336e-15 -3.18146e-15 0.101408 -1.00056e-16 -2.49736e-16)
(0 0 0 29.9261 9.6581e-15 -2.55975e-14 0.102069 -3.27881e-17 -8.76682e-17)
(0 7.08139e-30 2.21294e-31 29.9261 -5.81231e-15 -3.18368e-15 0.102069 -1.05698e-16 -2.53094e-16)
(3.71048e-16 7.03054e-30 2.19704e-31 29.9044 9.65359e-15 -2.57939e-14 0.102732 -3.28802e-17 -8.89845e-17)
(-6.84752e-16 -7.03054e-30 -2.19704e-31 29.9044 -5.81067e-15 -3.18758e-15 0.102732 -1.11421e-16 -2.56483e-16)
(2.45589e-16 1.39601e-29 4.36254e-31 29.882 9.60633e-15 -2.62407e-14 0.103396 -3.32331e-17 -9.20339e-17)
(-2.45589e-16 0 -2.18127e-31 29.882 -5.71739e-15 -3.19148e-15 0.103396 -1.17122e-16 -2.59906e-16)
(-4.63157e-16 3.54105e-29 1.11163e-30 29.8589 9.62202e-15 -2.91824e-14 0.104062 -3.30304e-17 -1.10789e-16)
(0 -2.07898e-29 -6.49681e-31 29.8589 -5.69819e-15 -3.19269e-15 0.104062 -1.22773e-16 -2.63363e-16)
(0 -1.37603e-29 -4.30011e-31 29.835 9.82311e-15 -3.19189e-14 0.10473 -3.3825e-17 -1.1259e-16)
(1.29211e-15 1.37603e-29 4.30011e-31 29.835 -5.86912e-15 -3.19111e-15 0.10473 -1.28383e-16 -2.66849e-16)
(-1.68688e-16 -1.56207e-29 -6.93501e-31 29.8105 9.95506e-15 -3.22043e-14 0.105399 -3.49222e-17 -1.14417e-16)
(6.74752e-16 2.04923e-29 6.40384e-31 29.8105 -5.9868e-15 -3.19045e-15 0.105399 -1.34171e-16 -2.70362e-16)
(0 0 0 29.7852 9.97119e-15 -3.24915e-14 0.10607 -3.52496e-17 -1.1627e-16)
(7.03634e-16 6.78171e-30 2.11929e-31 29.7852 -5.95218e-15 -3.19221e-15 0.10607 -1.40211e-16 -2.7391e-16)
(2.36897e-16 2.0199e-29 8.41627e-31 29.7593 9.95494e-15 -3.27802e-14 0.106743 -3.55441e-17 -1.1815e-16)
(-9.69597e-16 -3.36651e-29 -1.26244e-30 29.7593 -6.04336e-15 -3.19492e-15 0.106743 -1.46628e-16 -2.77489e-16)
(-3.80976e-16 2.97919e-29 5.49482e-31 29.7328 1.00353e-14 -3.30705e-14 0.107418 -3.56447e-17 -1.20057e-16)
(0 -2.0054e-29 -2.08896e-31 29.7328 -6.02329e-15 -3.1957e-15 0.107418 -1.53195e-16 -2.81104e-16)
(2.33507e-16 6.63666e-30 4.14791e-31 29.7056 1.03036e-14 -3.33624e-14 0.108095 -3.6641e-17 -1.21991e-16)
(5.57885e-16 0 -2.07396e-31 29.7056 -6.05466e-15 -3.19334e-15 0.108095 -1.59355e-16 -2.84751e-16)
(-2.65757e-17 -5.09898e-29 -2.23627e-30 29.6777 1.04429e-14 -3.36558e-14 0.108774 -3.81158e-17 -1.23951e-16)
(1.05285e-15 3.9534e-29 1.64725e-30 29.6777 -6.23186e-15 -3.19138e-15 0.108774 -1.65745e-16 -2.88423e-16)
(-4.25415e-16 -3.35161e-30 -4.56221e-31 29.6493 1.04344e-14 -3.39507e-14 0.109454 -3.81948e-17 -1.2594e-16)
(1.70166e-15 1.30834e-29 8.17711e-31 29.6493 -6.27841e-15 -3.18994e-15 0.109454 -1.72241e-16 -2.9213e-16)
(-2.20208e-16 3.08438e-29 9.96185e-31 29.6203 1.04901e-14 -3.4247e-14 0.110137 -3.86061e-17 -1.27955e-16)
(8.80831e-16 -2.59789e-29 -8.11839e-31 29.6203 -6.30201e-15 -3.18738e-15 0.110137 -1.78784e-16 -2.95867e-16)
(-6.82382e-16 -9.61642e-30 -2.69948e-32 29.5906 1.04577e-14 -3.45443e-14 0.110821 -3.91636e-17 -1.29997e-16)
(1.82204e-15 1.93442e-29 4.03005e-31 29.5906 -6.30953e-15 -3.18344e-15 0.110821 -1.8537e-16 -2.99636e-16)
(2.25242e-16 -6.40177e-30 -8.00222e-31 29.5604 1.03754e-14 -3.48433e-14 0.111508 -3.89241e-17 -1.3207e-16)
(0 1.28035e-29 8.00222e-31 29.5604 -6.33271e-15 -3.18228e-15 0.111508 -1.92133e-16 -3.0343e-16)
(-1.93665e-17 2.39295e-29 9.89981e-31 29.5296 1.0413e-14 -3.51438e-14 0.112196 -3.91104e-17 -1.34168e-16)
(-2.23625e-16 -1.27116e-29 -3.97238e-31 29.5296 -6.33592e-15 -3.18348e-15 0.112196 -1.99098e-16 -3.07263e-16)
(-2.50681e-16 4.861e-30 1.99348e-31 29.4983 1.04658e-14 -3.54448e-14 0.112886 -3.97755e-17 -1.36292e-16)
(0 6.31016e-30 3.94385e-31 29.4983 -6.23443e-15 -3.18097e-15 0.112886 -2.06192e-16 -3.11129e-16)
(0 0 -3.91553e-31 29.4664 1.05645e-14 -3.57469e-14 0.113579 -4.00827e-17 -1.38447e-16)
(0 0 3.91553e-31 29.4664 -6.22947e-15 -3.17802e-15 0.113579 -2.1311e-16 -3.15029e-16)
(2.66202e-16 2.62405e-29 9.59001e-31 29.434 1.07003e-14 -3.60501e-14 0.114273 -4.11142e-17 -1.40626e-16)
(-1.06481e-15 -3.10993e-29 -1.16622e-30 29.434 -6.4215e-15 -3.17479e-15 0.114273 -2.20262e-16 -3.18961e-16)
(2.74035e-16 -1.72082e-29 -5.97207e-31 29.401 1.06629e-14 -3.63538e-14 0.11497 -4.17193e-17 -1.42834e-16)
(0 1.23504e-29 3.8595e-31 29.401 -6.35372e-15 -3.17039e-15 0.11497 -2.27815e-16 -3.22918e-16)
(0 0 0 29.3676 1.06345e-14 -3.66582e-14 0.115669 -4.14187e-17 -1.45067e-16)
(0 6.13085e-30 3.83178e-31 29.3676 -6.3113e-15 -3.16744e-15 0.115669 -2.34733e-16 -3.2691e-16)
(0 -1.21737e-29 -7.60854e-31 29.3336 1.07427e-14 -3.6963e-14 0.116369 -4.21008e-17 -1.47327e-16)
(4.28323e-16 1.21737e-29 7.60854e-31 29.3336 -6.55969e-15 -3.16185e-15 0.116369 -2.41927e-16 -3.30939e-16)
(-7.23069e-16 -1.32748e-29 -9.09328e-31 29.2991 1.09029e-14 -3.72678e-14 0.117072 -4.28797e-17 -1.49611e-16)
(0 1.20862e-29 1.13308e-30 29.2991 -6.53489e-15 -3.15323e-15 0.117072 -2.49703e-16 -3.34994e-16)
(-3.05848e-16 -1.14639e-30 2.2806e-31 29.264 1.10168e-14 -3.75723e-14 0.117777 -4.39927e-17 -1.51918e-16)
(0 1.19994e-29 7.49966e-31 29.264 -6.43642e-15 -3.14781e-15 0.117777 -2.57058e-16 -3.39073e-16)
(-3.13922e-16 4.85218e-30 2.32433e-31 29.2285 1.08909e-14 -3.78763e-14 0.118483 -4.44197e-17 -1.54249e-16)
(0 5.95664e-30 3.7229e-31 29.2285 -6.61631e-15 -3.13897e-15 0.118483 -2.64723e-16 -3.43192e-16)
(4.16151e-16 -1.18277e-29 -1.10885e-30 29.1924 1.078e-14 -3.81795e-14 0.119192 -4.361e-17 -1.56602e-16)
(0 1.77416e-29 1.10885e-30 29.1924 -6.80101e-15 -3.12825e-15 0.119192 -2.7313e-16 -3.47324e-16)
(0 -1.76142e-29 -1.10089e-30 29.1559 1.08648e-14 -3.84815e-14 0.119902 -4.41582e-17 -1.58973e-16)
(4.13163e-16 2.34856e-29 1.46785e-30 29.1559 -7.02855e-15 -3.12469e-15 0.119902 -2.81726e-16 -3.51483e-16)
(-6.76876e-16 4.46731e-29 2.67791e-30 29.1188 1.09812e-14 -3.87819e-14 0.120615 -4.49412e-17 -1.61366e-16)
(-1.35375e-15 -3.49754e-29 -2.18596e-30 29.1188 -6.96974e-15 -3.11599e-15 0.120615 -2.90658e-16 -3.55685e-16)
(-3.46708e-16 -1.83019e-29 -1.55792e-30 29.0811 1.11778e-14 -3.90812e-14 0.121329 -4.57638e-17 -1.6378e-16)
(2.77367e-15 2.89369e-29 1.80856e-30 29.0811 -6.53638e-15 -3.09777e-15 0.121329 -2.98767e-16 -3.59905e-16)
(1.16368e-15 -3.93211e-29 -3.48739e-30 29.0429 1.12313e-14 -3.93793e-14 0.122045 -4.72359e-17 -1.66216e-16)
(1.42011e-15 3.44749e-29 2.15468e-30 29.0429 -6.71153e-15 -3.07937e-15 0.122045 -3.0608e-16 -3.64145e-16)
(-3.63397e-16 4.84504e-30 2.6017e-31 29.0042 1.08394e-14 -3.9676e-14 0.122762 -4.68775e-17 -1.68671e-16)
(0 1.14091e-29 3.56535e-31 29.0042 -6.74402e-15 -3.06376e-15 0.122762 -3.14407e-16 -3.68399e-16)
(0 -5.66359e-30 -7.07949e-31 28.9649 1.04805e-14 -3.99714e-14 0.123481 -4.46026e-17 -1.71149e-16)
(1.48726e-15 5.66359e-30 7.07949e-31 28.9649 -6.34571e-15 -3.0518e-15 0.123481 -3.22371e-16 -3.72674e-16)
(-7.60567e-16 3.78011e-29 2.64861e-30 28.925 1.06186e-14 -4.02642e-14 0.124202 -4.4496e-17 -1.73636e-16)
(-1.52113e-15 -2.81146e-29 -2.1086e-30 28.925 -6.27801e-15 -3.03977e-15 0.124202 -3.2993e-16 -3.76975e-16)
(-7.77603e-16 9.68375e-30 5.50083e-31 28.8845 1.08907e-14 -4.05536e-14 0.124923 -4.64368e-17 -1.76139e-16)
(1.55521e-15 5.58255e-30 6.97818e-31 28.8845 -6.05243e-15 -3.02516e-15 0.124923 -3.37682e-16 -3.81297e-16)
(0 0 3.46404e-31 28.8434 1.09394e-14 -4.08401e-14 0.125646 -4.74972e-17 -1.78655e-16)
(0 5.54246e-30 0 28.8434 -6.10684e-15 -3.00972e-15 0.125646 -3.45536e-16 -3.85655e-16)
(-4.05988e-16 1.58448e-29 1.31709e-30 28.8016 1.09605e-14 -4.1123e-14 0.12637 -4.75357e-17 -1.8118e-16)
(-1.62395e-15 -5.50266e-30 -3.43916e-31 28.8016 -6.38658e-15 -2.9926e-15 0.12637 -3.54167e-16 -3.90022e-16)
(0 -3.8242e-29 -2.39013e-30 28.7591 1.11333e-14 -4.14013e-14 0.127095 -4.83714e-17 -1.8371e-16)
(1.65862e-15 3.8242e-29 2.39013e-30 28.7591 -6.19855e-15 -2.97303e-15 0.127095 -3.62449e-16 -3.94394e-16)
(0 -4.33913e-29 -2.37296e-30 28.7159 1.11228e-14 -4.16746e-14 0.12782 -4.97542e-17 -1.86246e-16)
(3.38699e-15 4.33913e-29 2.37296e-30 28.7159 -6.05861e-15 -2.95619e-15 0.12782 -3.70444e-16 -3.98789e-16)
(0 1.61549e-29 6.73121e-31 28.6719 1.10672e-14 -4.19426e-14 0.128545 -4.89803e-17 -1.88782e-16)
(-3.78933e-16 -1.07699e-29 0 28.6719 -6.53946e-15 -2.93953e-15 0.128545 -3.79008e-16 -4.03219e-16)
(-4.40962e-16 -2.72434e-29 -1.02967e-30 28.6271 1.15009e-14 -4.22035e-14 0.129271 -4.99777e-17 -1.91307e-16)
(-1.76385e-15 2.13852e-29 6.68287e-31 28.6271 -6.7753e-15 -2.92161e-15 0.129271 -3.88725e-16 -4.07647e-16)
(0 1.59237e-29 1.32698e-30 28.5815 1.21018e-14 -4.24568e-14 0.129996 -5.36115e-17 -1.93829e-16)
(1.0523e-15 -5.30791e-30 -6.63488e-31 28.5815 -6.32154e-15 -2.90066e-15 0.129996 -3.97415e-16 -4.12111e-16)
(7.41657e-16 1.05396e-29 6.58724e-31 28.535 1.2491e-14 -4.2703e-14 0.130721 -5.61738e-17 -1.96343e-16)
(1.09335e-15 0 -6.58724e-31 28.535 -6.56672e-15 -2.87351e-15 0.130721 -4.05346e-16 -4.16574e-16)
(-1.20405e-15 -2.65627e-29 -1.63805e-30 28.4876 1.27418e-14 -4.29415e-14 0.131445 -5.79586e-17 -1.98846e-16)
(0 3.13917e-29 1.96198e-30 28.4876 -7.14772e-15 -2.84636e-15 0.131445 -4.14882e-16 -4.2104e-16)
(0 -3.11663e-29 -1.94789e-30 28.4392 1.25664e-14 -4.3172e-14 0.132168 -5.93059e-17 -2.01338e-16)
(1.90697e-15 3.11663e-29 1.94789e-30 28.4392 -7.24366e-15 -2.81588e-15 0.132168 -4.24377e-16 -4.25521e-16)
(-4.85812e-16 2.02976e-29 9.80317e-31 28.3897 1.26063e-14 -4.33945e-14 0.13289 -5.71682e-17 -2.03817e-16)
(0 -5.15708e-30 0 28.3897 -6.96307e-15 -2.78525e-15 0.13289 -4.34686e-16 -4.29992e-16)
(4.94933e-16 1.05357e-29 9.38325e-31 28.3391 1.32824e-14 -4.36066e-14 0.13361 -6.0541e-17 -2.06263e-16)
(0 -5.12004e-30 -6.40006e-31 28.3391 -6.7095e-15 -2.76279e-15 0.13361 -4.44487e-16 -4.3446e-16)
(-1.21951e-15 3.02388e-29 2.88941e-30 28.2873 1.33503e-14 -4.38077e-14 0.134327 -6.43785e-17 -2.08687e-16)
(-2.01642e-15 -2.03331e-29 -1.90623e-30 28.2873 -7.20043e-15 -2.73407e-15 0.134327 -4.53786e-16 -4.38963e-16)
(-1.02665e-15 3.48764e-29 1.96957e-30 28.2343 1.25606e-14 -4.39971e-14 0.135042 -6.20662e-17 -2.11072e-16)
(-2.05331e-15 -2.52339e-29 -1.26169e-30 28.2343 -7.32775e-15 -2.69263e-15 0.135042 -4.64008e-16 -4.43459e-16)
(-3.40026e-16 4.47146e-29 3.22565e-30 28.18 1.17986e-14 -4.41745e-14 0.135753 -5.77512e-17 -2.13428e-16)
(-2.79556e-15 -3.50737e-29 -2.50527e-30 28.18 -6.50716e-15 -2.65622e-15 0.135753 -4.73027e-16 -4.47919e-16)
(0 -4.97455e-30 0 28.1243 1.14625e-14 -4.43403e-14 0.136461 -5.56186e-17 -2.15746e-16)
(2.12768e-15 9.94911e-30 0 28.1243 -5.92932e-15 -2.624e-15 0.136461 -4.82017e-16 -4.52378e-16)
(-5.41291e-16 -1.20723e-31 3.72931e-31 28.0671 1.14695e-14 -4.44928e-14 0.137165 -5.53245e-17 -2.18018e-16)
(2.16516e-15 1.48165e-29 6.17354e-31 28.0671 -6.03691e-15 -2.59103e-15 0.137165 -4.91089e-16 -4.56825e-16)
(0 0 6.12921e-31 28.0084 1.1656e-14 -4.46302e-14 0.137864 -5.64944e-17 -2.20233e-16)
(2.20285e-15 9.80673e-30 0 28.0084 -6.2852e-15 -2.5576e-15 0.137864 -5.00493e-16 -4.61273e-16)
(-1.12036e-15 9.63018e-30 7.71988e-31 27.948 1.17178e-14 -4.47519e-14 0.138557 -5.79666e-17 -2.22391e-16)
(2.24073e-15 0 0 27.948 -6.43499e-15 -2.51842e-15 0.138557 -5.09903e-16 -4.6571e-16)
(-5.69701e-16 4.81371e-30 9.96794e-31 27.8859 1.16292e-14 -4.48574e-14 0.139245 -5.79276e-17 -2.24485e-16)
(2.2788e-15 9.6664e-30 6.0415e-31 27.8859 -6.51477e-15 -2.47068e-15 0.139245 -5.19013e-16 -4.70134e-16)
(6.75328e-16 -4.79849e-30 -5.99811e-31 27.8221 1.15359e-14 -4.49468e-14 0.139926 -5.79219e-17 -2.2652e-16)
(2.31707e-15 9.59698e-30 5.99811e-31 27.8221 -6.5317e-15 -2.4195e-15 0.139926 -5.29414e-16 -4.74517e-16)
(0 4.76403e-30 5.95504e-31 27.7563 1.15776e-14 -4.50192e-14 0.140599 -5.78298e-17 -2.28478e-16)
(2.35554e-15 -4.76403e-30 0 27.7563 -6.20581e-15 -2.37217e-15 0.140599 -5.395e-16 -4.78859e-16)
(6.65663e-16 1.41895e-29 1.77368e-30 27.6886 1.17356e-14 -4.50739e-14 0.141265 -5.91851e-17 -2.30369e-16)
(1.72853e-15 -4.72982e-30 -5.91228e-31 27.6886 -5.95951e-15 -2.32397e-15 0.141265 -5.47595e-16 -4.8318e-16)
(-1.26914e-15 2.82871e-29 1.59397e-30 27.6188 1.19707e-14 -4.51105e-14 0.141922 -6.02839e-17 -2.32172e-16)
(0 -1.87834e-29 -5.86982e-31 27.6188 -6.25963e-15 -2.26793e-15 0.141922 -5.5737e-16 -4.87467e-16)
(6.18017e-16 9.18048e-30 1.32127e-30 27.5468 1.21958e-14 -4.51276e-14 0.14257 -6.24637e-17 -2.3389e-16)
(1.81593e-15 -4.66214e-30 -1.16553e-30 27.5468 -5.80579e-15 -2.21024e-15 0.14257 -5.68003e-16 -4.91684e-16)
(0 1.3886e-29 1.73575e-30 27.4726 1.23694e-14 -4.5125e-14 0.143208 -6.34926e-17 -2.35515e-16)
(-2.51128e-15 -2.31433e-29 -2.31433e-30 27.4726 -6.01368e-15 -2.15489e-15 0.143208 -5.77158e-16 -4.95856e-16)
(0 2.75725e-29 2.29771e-30 27.3961 1.24903e-14 -4.51026e-14 0.143835 -6.51828e-17 -2.3705e-16)
(-2.55068e-15 -2.75725e-29 -2.29771e-30 27.3961 -7.38514e-15 -2.098e-15 0.143835 -5.88118e-16 -4.99994e-16)
(6.47566e-16 3.16987e-29 2.97332e-30 27.3171 1.25304e-14 -4.50607e-14 0.144451 -6.56852e-17 -2.38491e-16)
(-5.18053e-15 -3.64994e-29 -3.42182e-30 27.3171 -7.52971e-15 -2.04632e-15 0.144451 -6.00346e-16 -5.0407e-16)
(0 0 5.66207e-31 27.2357 1.24635e-14 -4.49979e-14 0.145054 -6.65542e-17 -2.39822e-16)
(5.26004e-15 0 -5.66207e-31 27.2357 -6.56216e-15 -1.99248e-15 0.145054 -6.12473e-16 -5.08114e-16)
(-6.67489e-16 -4.19673e-30 -6.59258e-31 27.1516 1.24998e-14 -4.36412e-14 0.145645 -6.59254e-17 -2.27375e-16)
(5.33991e-15 1.34914e-29 1.68642e-30 27.1516 -6.84739e-15 -1.92039e-15 0.145645 -6.23042e-16 -5.12094e-16)
(-6.77515e-16 3.30817e-31 -6.4194e-31 27.0648 1.26091e-14 -4.073e-14 0.146221 -6.79096e-17 -2.11796e-16)
(0 1.33945e-29 2.23242e-30 27.0648 -7.35212e-15 -1.84045e-15 0.146221 -6.36105e-16 -5.15974e-16)
(-6.87583e-16 4.02563e-29 3.80225e-30 26.9753 1.25233e-14 -4.10743e-14 0.146783 -6.80657e-17 -2.3443e-16)
(0 -3.54622e-29 -3.32458e-30 26.9753 -6.86672e-15 -1.77074e-15 0.146783 -6.47636e-16 -5.19784e-16)
(-6.97692e-16 3.11981e-29 3.23517e-30 26.883 1.23755e-14 -4.31321e-14 0.14733 -6.79602e-17 -2.37465e-16)
(0 -2.64057e-29 -2.75059e-30 26.883 -6.66523e-15 -1.7047e-15 0.14733 -6.59713e-16 -5.23521e-16)
(1.9377e-15 -4.7909e-30 -4.91922e-31 26.7877 1.23134e-14 -4.31542e-14 0.147861 -6.74316e-17 -2.38078e-16)
(1.60151e-15 0 0 26.7877 -6.3194e-15 -1.64478e-15 0.147861 -6.71399e-16 -5.27152e-16)
(1.43606e-15 1.21115e-29 2.25488e-30 26.6895 1.24014e-14 -4.29499e-14 0.148375 -6.82602e-17 -2.38636e-16)
(0 -3.03658e-29 -4.33797e-30 26.6895 -6.52735e-15 -1.57764e-15 0.148375 -6.82186e-16 -5.30758e-16)
(6.06131e-16 2.15341e-29 3.23011e-30 26.5882 1.16937e-14 -4.27315e-14 0.148871 -6.93905e-17 -2.39084e-16)
(-3.51916e-15 -1.29204e-29 -2.15341e-30 26.5882 -6.40181e-15 -1.48795e-15 0.148871 -6.94484e-16 -5.34295e-16)
(7.38521e-16 1.23164e-29 1.62364e-30 26.4839 1.06133e-14 -4.24905e-14 0.14935 -6.13104e-17 -2.39377e-16)
(-2.95408e-15 -1.71036e-29 -2.13794e-30 26.4839 -5.44153e-15 -1.41103e-15 0.14935 -7.0339e-16 -5.37679e-16)
(1.94373e-15 2.06846e-29 2.66226e-30 26.3764 1.10588e-14 -4.22337e-14 0.149809 -5.81882e-17 -2.39632e-16)
(-1.19491e-15 -1.69807e-29 -2.12259e-30 26.3764 -5.16497e-15 -1.35597e-15 0.149809 -7.12388e-16 -5.40971e-16)
(0 -1.26441e-29 -1.05368e-30 26.2657 1.25182e-14 -4.19612e-14 0.150249 -6.72724e-17 -2.39728e-16)
(3.03662e-15 1.68588e-29 1.05368e-30 26.2657 -5.40157e-15 -1.30233e-15 0.150249 -7.21767e-16 -5.44208e-16)
(-1.53904e-15 -1.13607e-29 -3.11106e-30 26.1519 1.27732e-14 -4.16576e-14 0.150669 -7.57646e-17 -2.39605e-16)
(3.07809e-15 2.51066e-29 4.18443e-30 26.1519 -5.70707e-15 -1.22326e-15 0.150669 -7.31371e-16 -5.47384e-16)
(-1.55984e-15 2.61768e-29 3.16567e-30 26.0348 1.23227e-14 -4.13332e-14 0.151068 -7.11937e-17 -2.39436e-16)
(-3.11968e-15 -1.66175e-29 -2.07719e-30 26.0348 -6.40365e-15 -1.13153e-15 0.151068 -7.43821e-16 -5.50437e-16)
(-7.90351e-16 3.77741e-29 3.64522e-30 25.9144 1.25222e-14 -4.10012e-14 0.151446 -7.16253e-17 -2.39193e-16)
(-3.1614e-15 -3.29964e-29 -3.09342e-30 25.9144 -6.44662e-15 -1.07158e-15 0.151446 -7.57653e-16 -5.5334e-16)
(3.51812e-16 -3.41424e-30 -1.48809e-30 25.7907 1.28382e-14 -4.0654e-14 0.151802 -7.45641e-17 -2.38815e-16)
(3.20324e-15 1.22848e-29 2.04747e-30 25.7907 -6.06184e-15 -1.02097e-15 0.151802 -7.68651e-16 -5.56216e-16)
(-1.14435e-15 -2.03277e-29 -2.03277e-30 25.6638 1.27529e-14 -4.0283e-14 0.152136 -7.63939e-17 -2.38257e-16)
(4.38953e-15 2.43932e-29 2.03277e-30 25.6638 -6.40254e-15 -9.27042e-16 0.152136 -7.78349e-16 -5.5903e-16)
(0 -1.61453e-29 -2.01817e-30 25.5336 1.25245e-14 -3.9898e-14 0.152448 -7.46324e-17 -2.37673e-16)
(0 2.01817e-29 2.01817e-30 25.5336 -6.46091e-15 -8.20489e-16 0.152448 -7.88783e-16 -5.61642e-16)
(-8.32349e-16 1.67925e-29 2.59785e-30 25.4002 1.24378e-14 -3.23239e-14 0.152736 -7.47686e-17 -1.50383e-16)
(-1.12797e-15 -4.00735e-30 -1.00184e-30 25.4002 -6.27095e-15 -7.38517e-16 0.152736 -7.99423e-16 -5.64112e-16)
(-1.68582e-15 9.53769e-30 2.28972e-31 25.2635 1.24569e-14 -1.70465e-14 0.153001 -7.4671e-17 -5.55706e-17)
(3.37164e-15 0 9.94644e-31 25.2635 -6.03555e-15 -6.64477e-16 0.153001 -8.116e-16 -5.66459e-16)
(0 1.185e-29 1.975e-30 25.1236 1.33655e-14 -8.88354e-15 0.153242 -7.60866e-17 -5.27042e-17)
(2.30215e-15 -3.95001e-30 -9.87501e-31 25.1236 -5.82686e-15 -5.7605e-16 0.153242 -8.21167e-16 -5.68698e-16)
(-2.39747e-16 1.0923e-29 3.30671e-30 24.9805 1.41073e-14 -8.3428e-15 0.153459 -8.68703e-17 -4.97144e-17)
(3.45639e-15 0 -9.8041e-31 24.9805 -5.79122e-15 -4.65743e-16 0.153459 -8.29653e-16 -5.70802e-16)
(0 -7.78696e-30 -9.7337e-31 24.8344 1.33458e-14 -7.79208e-15 0.153653 -8.63318e-17 -4.66343e-17)
(1.09592e-15 1.16804e-29 9.7337e-31 24.8344 -6.21911e-15 -3.52597e-16 0.153653 -8.42095e-16 -5.72702e-16)
(1.08805e-15 3.09242e-29 4.8319e-30 24.6851 1.26936e-14 -7.24467e-15 0.153822 -7.86792e-17 -4.3593e-17)
(-1.08805e-15 -3.09242e-29 -4.8319e-30 24.6851 -6.87193e-15 -2.68024e-16 0.153822 -8.5489e-16 -5.74329e-16)
(8.9601e-16 -1.24348e-29 -2.53783e-30 24.5329 1.28785e-14 -6.71861e-15 0.153967 -7.94324e-17 -4.06876e-17)
(0 1.53511e-29 1.91888e-30 24.5329 -6.88313e-15 -1.95043e-16 0.153967 -8.6784e-16 -5.75916e-16)
(-1.81335e-15 1.71346e-29 2.19274e-30 24.3777 1.30522e-14 -6.20682e-15 0.154087 -8.21495e-17 -3.77352e-17)
(2.55423e-15 0 0 24.3777 -6.23096e-15 -8.68999e-17 0.154087 -8.83745e-16 -5.77382e-16)
(1.06478e-15 7.56569e-30 2.83713e-30 24.2197 1.30489e-14 -5.69374e-15 0.154183 -8.27888e-17 -3.47242e-17)
(2.60464e-15 0 -1.89142e-30 24.2197 -5.41705e-15 1.84921e-17 0.154183 -8.96058e-16 -5.78572e-16)
(9.28044e-16 2.75872e-30 2.19462e-30 24.0589 1.3046e-14 -5.17729e-15 0.154255 -8.32999e-17 -3.16381e-17)
(1.59792e-15 0 -1.87784e-30 24.0589 -5.78163e-15 1.02238e-16 0.154255 -9.07905e-16 -5.79614e-16)
(0 2.98297e-29 4.66089e-30 23.8955 1.29481e-14 -4.66505e-15 0.154303 -8.39535e-17 -2.859e-17)
(0 -2.98297e-29 -4.66089e-30 23.8955 -6.47257e-15 1.77024e-16 0.154303 -9.20978e-16 -5.80463e-16)
(-9.25575e-17 -3.43638e-29 -4.32571e-30 23.7294 1.3586e-14 -4.1732e-15 0.154328 -8.32412e-17 -2.56772e-17)
(4.83978e-15 2.96155e-29 3.70193e-30 23.7294 -6.49184e-15 2.63745e-16 0.154328 -9.33603e-16 -5.81271e-16)
(1.77157e-15 1.77751e-29 3.01521e-30 23.5609 1.41167e-14 -3.69238e-15 0.154328 -9.34982e-17 -2.26834e-17)
(0 -2.94028e-29 -3.67535e-30 23.5609 -6.52825e-15 3.72969e-16 0.154328 -9.48293e-16 -5.81862e-16)
(1.02709e-15 1.45958e-29 1.82448e-30 23.39 1.31626e-14 -3.20436e-15 0.154305 -9.14279e-17 -1.95872e-17)
(2.85637e-15 -7.29792e-30 -1.82448e-30 23.39 -6.27669e-15 4.57476e-16 0.154305 -9.59661e-16 -5.82201e-16)
(0 -2.8982e-29 -2.71707e-30 23.2168 1.3058e-14 -2.74215e-15 0.154259 -8.22197e-17 -1.68475e-17)
(3.92631e-15 2.8982e-29 2.71707e-30 23.2168 -6.6222e-15 5.29935e-16 0.154259 -9.71744e-16 -5.82458e-16)
(-2.00468e-15 -2.45492e-30 6.25899e-31 23.0415 1.3755e-14 -2.31835e-15 0.15419 -9.13601e-17 -1.41778e-17)
(4.98156e-15 1.4387e-29 8.99185e-31 23.0415 -7.10387e-15 6.39523e-16 0.15419 -9.87608e-16 -5.82549e-16)
(1.003e-15 3.09734e-29 4.73013e-30 22.8642 1.36631e-14 -1.87937e-15 0.154098 -9.27777e-17 -1.11517e-17)
(-1.00512e-15 -2.85673e-29 -4.46364e-30 22.8642 -6.96413e-15 7.35745e-16 0.154098 -1.00302e-15 -5.82343e-16)
(0 -7.09054e-30 0 22.6849 1.32864e-14 -1.43824e-15 0.153985 -9.14429e-17 -8.37098e-18)
(0 1.41811e-29 1.77263e-30 22.6849 -6.54782e-15 7.90571e-16 0.153985 -1.01829e-15 -5.8203e-16)
(0 -3.51981e-29 -3.51981e-30 22.5038 1.26962e-14 -1.04568e-15 0.15385 -8.89899e-17 -5.92422e-18)
(8.19532e-15 3.51981e-29 3.51981e-30 22.5038 -5.46572e-15 8.70313e-16 0.15385 -1.03254e-15 -5.81638e-16)
(0 1.39781e-29 8.73634e-31 22.3211 1.25319e-14 -6.59816e-16 0.153693 -8.4669e-17 -3.15686e-18)
(-9.83625e-16 -6.98907e-30 0 22.3211 -6.01363e-15 9.83579e-16 0.153693 -1.04533e-15 -5.81052e-16)
(0 1.38778e-29 -6.17057e-30 22.1368 1.28985e-14 -1.57993e-16 0.153517 -8.80093e-17 -5.48148e-19)
(-4.18321e-15 -6.93888e-30 -1.73472e-30 22.1368 -7.19388e-15 1.05852e-15 0.153517 -1.06039e-15 -5.80114e-16)
(-1.05648e-15 1.85033e-29 0 21.9511 1.30584e-14 0 0.15332 -9.10041e-17 0)
(2.28683e-15 -6.88906e-30 0 21.9511 -6.85052e-15 1.1044e-15 0.15332 -1.07509e-15 -5.79144e-16)
(2.02974e-15 1.5796e-29 1.9396e-30 21.7642 1.28371e-14 4.34061e-16 0.153103 -9.153e-17 -1.89681e-18)
(-9.62586e-16 -2.73583e-29 -3.41979e-30 21.7642 -6.89289e-15 1.16785e-15 0.153103 -1.08987e-15 -5.78044e-16)
(2.03348e-15 -3.18828e-29 -5.71713e-30 21.576 1.25586e-14 7.50236e-16 0.152868 -8.91981e-17 -4.22284e-18)
(4.31123e-15 2.71619e-29 4.24404e-30 21.576 -6.98646e-15 1.26669e-15 0.152868 -1.10595e-15 -5.76869e-16)
(0 -1.34834e-29 -1.68543e-30 21.3868 1.30107e-14 1.05031e-15 0.152614 -8.88953e-17 -6.42427e-18)
(9.48811e-16 2.02251e-29 1.68543e-30 21.3868 -7.49978e-15 1.36785e-15 0.152614 -1.12049e-15 -5.75324e-16)
(0 2.00799e-29 2.50999e-30 21.1967 1.31745e-14 1.35503e-15 0.152342 -9.69753e-17 -8.58578e-18)
(-4.39631e-15 -2.67732e-29 -3.34665e-30 21.1967 -7.78316e-15 1.4336e-15 0.152342 -1.13964e-15 -5.73643e-16)
(-1.4586e-15 7.49518e-30 2.01753e-31 21.0058 1.26984e-14 1.63362e-15 0.152053 -9.25497e-17 -1.09174e-17)
(4.43875e-15 0 8.30654e-31 21.0058 -6.66298e-15 1.48278e-15 0.152053 -1.15606e-15 -5.7179e-16)
(-4.0976e-15 -1.03698e-29 -2.88373e-30 20.8142 1.30578e-14 1.87398e-15 0.151747 -9.14593e-17 -1.27621e-17)
(4.48112e-15 1.97925e-29 2.47407e-30 20.8142 -6.50899e-15 1.54041e-15 0.151747 -1.17182e-15 -5.69861e-16)
(9.2185e-16 -6.55014e-30 -1.63753e-30 20.6221 1.31643e-14 2.11117e-15 0.151425 -9.9159e-17 -1.45969e-17)
(4.52342e-15 1.31003e-29 1.63753e-30 20.6221 -6.59385e-15 1.61169e-15 0.151425 -1.19004e-15 -5.67721e-16)
(0 -1.30062e-29 -2.43866e-30 20.4295 1.20117e-14 2.34839e-15 0.151088 -9.43581e-17 -1.6447e-17)
(0 1.95093e-29 2.43866e-30 20.4295 -5.89666e-15 1.65494e-15 0.151088 -1.20508e-15 -5.65426e-16)
(0 3.2282e-29 3.2282e-30 20.2365 1.11794e-14 2.58702e-15 0.150736 -8.34689e-17 -1.83342e-17)
(0 -3.2282e-29 -3.2282e-30 20.2365 -6.23181e-15 1.69244e-15 0.150736 -1.22e-15 -5.63111e-16)
(-2.3249e-15 1.58187e-29 2.03059e-30 20.0434 1.20911e-14 2.80738e-15 0.15037 -8.32704e-17 -2.02578e-17)
(0 -6.41004e-30 -8.01255e-31 20.0434 -7.13246e-15 1.76092e-15 0.15037 -1.23634e-15 -5.60709e-16)
(5.54567e-16 -2.84916e-29 -3.61305e-30 19.8501 1.32227e-14 2.99397e-15 0.149989 -9.84252e-17 -2.19228e-17)
(6.48306e-15 1.9092e-29 2.3865e-30 19.8501 -7.17e-15 1.83475e-15 0.149989 -1.2523e-15 -5.58046e-16)
(0 -3.15916e-29 -3.94894e-30 19.6568 1.28782e-14 3.15225e-15 0.149596 -1.01665e-16 -2.33854e-17)
(4.7336e-15 3.15916e-29 3.94894e-30 19.6568 -7.29764e-15 1.88545e-15 0.149596 -1.26956e-15 -5.55149e-16)
(0 -1.88188e-29 -3.13647e-30 19.4637 1.22727e-14 3.31107e-15 0.149191 -9.4585e-17 -2.46622e-17)
(0 2.50918e-29 3.13647e-30 19.4637 -7.31972e-15 1.91768e-15 0.149191 -1.29172e-15 -5.52174e-16)
(0 -6.22789e-30 -1.55697e-30 19.2706 1.17888e-14 3.4588e-15 0.148773 -9.38116e-17 -2.61718e-17)
(4.81699e-15 1.24558e-29 7.78487e-31 19.2706 -6.186e-15 1.93754e-15 0.148773 -1.30834e-15 -5.49089e-16)
(-2.95504e-15 -2.00414e-29 -4.02991e-30 19.0779 1.13949e-14 3.58277e-15 0.148344 -8.84487e-17 -2.73127e-17)
(4.85852e-15 3.09159e-29 4.63738e-30 19.0779 -6.12939e-15 1.96743e-15 0.148344 -1.32159e-15 -5.46032e-16)
(0 -6.13877e-30 -7.67346e-31 18.8855 1.15735e-14 3.71869e-15 0.147904 -8.90178e-17 -2.84894e-17)
(0 6.13877e-30 7.67346e-31 18.8855 -6.80531e-15 2.04003e-15 0.147904 -1.34091e-15 -5.42901e-16)
(2.47062e-15 -2.15616e-29 -4.25606e-30 18.6936 1.14904e-14 3.84814e-15 0.147454 -9.25442e-17 -2.98491e-17)
(4.94124e-15 1.82841e-29 3.04734e-30 18.6936 -5.63769e-15 2.12169e-15 0.147454 -1.35863e-15 -5.39501e-16)
(0 -1.21018e-29 -7.56366e-31 18.5022 1.0757e-14 3.9681e-15 0.146995 -8.89914e-17 -3.09557e-17)
(0 1.81528e-29 7.56366e-31 18.5022 -4.82426e-15 2.14389e-15 0.146995 -1.37055e-15 -5.3582e-16)
(-1.25587e-15 3.47207e-29 4.35584e-30 18.3115 1.03347e-14 4.08221e-15 0.146526 -8.2175e-17 -3.21985e-17)
(0 -3.00374e-29 -3.75467e-30 18.3115 -4.12253e-15 2.13557e-15 0.146526 -1.38241e-15 -5.32206e-16)
(0 -2.98217e-29 -5.21879e-30 18.1214 1.11448e-14 4.16129e-15 0.146049 -8.34896e-17 -3.32409e-17)