/*--------------------------------*- C++ -*----------------------------------*\
| =========                 |                                                 |
| \\      /  F ield         | OpenFOAM: The Open Source CFD Toolbox           |
|  \\    /   O peration     | Version:  2012                                  |
|   \\  /    A nd           | Website:  www.openfoam.com                      |
|    \\/     M anipulation  |                                                 |
\*---------------------------------------------------------------------------*/
FoamFile
{
    version     2.0;
    format      ascii;
    class       volScalarField;
    location    "12000";
    object      k;
}
// * * * * * * * * * * * * * * * * * * * * * * * * * * * * * * * * * * * * * //

dimensions      [0 2 -2 0 0 0 0];


internalField   nonuniform List<scalar> 
5120
(
3.89328e-08
3.89328e-08
5.81325e-09
5.81325e-09
2.23714e-09
2.23714e-09
2.60401e-09
2.60401e-09
5.20125e-09
5.20125e-09
1.0397e-08
1.0397e-08
1.89803e-08
1.89803e-08
3.19136e-08
3.19136e-08
5.02779e-08
5.02779e-08
7.52576e-08
7.52576e-08
1.08136e-07
1.08136e-07
1.50295e-07
1.50295e-07
2.03218e-07
2.03218e-07
2.6849e-07
2.6849e-07
3.47803e-07
3.47803e-07
4.42955e-07
4.42955e-07
5.55862e-07
5.55862e-07
6.88552e-07
6.88552e-07
8.43178e-07
8.43178e-07
1.02202e-06
1.02202e-06
1.22748e-06
1.22748e-06
1.46211e-06
1.46211e-06
1.72859e-06
1.72859e-06
2.02975e-06
2.02975e-06
2.36859e-06
2.36859e-06
2.74824e-06
2.74824e-06
3.17202e-06
3.17202e-06
3.6434e-06
3.6434e-06
4.16605e-06
4.16605e-06
4.7438e-06
4.7438e-06
5.3807e-06
5.3807e-06
6.08097e-06
6.08097e-06
6.84905e-06
6.84905e-06
7.68961e-06
7.68961e-06
8.6075e-06
8.6075e-06
9.60784e-06
9.60784e-06
1.0696e-05
1.0696e-05
1.18775e-05
1.18775e-05
1.31581e-05
1.31581e-05
1.45441e-05
1.45441e-05
1.60418e-05
1.60418e-05
1.76577e-05
1.76577e-05
1.93989e-05
1.93989e-05
2.12724e-05
2.12724e-05
2.3286e-05
2.3286e-05
2.54472e-05
2.54472e-05
2.77644e-05
2.77644e-05
3.02459e-05
3.02459e-05
3.29005e-05
3.29005e-05
3.57372e-05
3.57372e-05
3.87656e-05
3.87656e-05
4.19954e-05
4.19954e-05
4.54368e-05
4.54368e-05
4.91001e-05
4.91001e-05
5.29962e-05
5.29962e-05
5.71363e-05
5.71363e-05
6.15318e-05
6.15318e-05
6.61946e-05
6.61946e-05
7.11369e-05
7.11369e-05
7.63713e-05
7.63713e-05
8.19105e-05
8.19105e-05
8.77679e-05
8.77679e-05
9.39567e-05
9.39567e-05
0.000100491
0.000100491
0.000107385
0.000107385
0.000114652
0.000114652
0.000122308
0.000122308
0.000130367
0.000130367
0.000138845
0.000138845
0.000147755
0.000147755
0.000157115
0.000157115
0.000166939
0.000166939
0.000177243
0.000177243
0.000188042
0.000188042
0.000199352
0.000199352
0.000211189
0.000211189
0.000223567
0.000223567
0.000236503
0.000236503
0.000250011
0.000250011
0.000264107
0.000264107
0.000278803
0.000278803
0.000294116
0.000294116
0.000310058
0.000310058
0.000326643
0.000326643
0.000343883
0.000343883
0.00036179
0.00036179
0.000380376
0.000380376
0.000399651
0.000399651
0.000419624
0.000419624
0.000440305
0.000440305
0.000461701
0.000461701
0.000483819
0.000483819
0.000506665
0.000506665
0.000530243
0.000530243
0.000554556
0.000554556
0.000579608
0.000579608
0.000605397
0.000605397
0.000631925
0.000631925
0.000659188
0.000659188
0.000687184
0.000687184
0.000715908
0.000715908
0.000745353
0.000745353
0.000775513
0.000775513
0.000806377
0.000806377
0.000837936
0.000837936
0.000870177
0.000870177
0.000903087
0.000903087
0.000936651
0.000936651
0.000970853
0.000970853
0.00100568
0.00100568
0.0010411
0.0010411
0.00107711
0.00107711
0.00111367
0.00111367
0.00115078
0.00115078
0.00118839
0.00118839
0.0012265
0.0012265
0.00126508
0.00126508
0.00130409
0.00130409
0.00134351
0.00134351
0.00138332
0.00138332
0.00142348
0.00142348
0.00146397
0.00146397
0.00150476
0.00150476
0.00154581
0.00154581
0.00158711
0.00158711
0.00162861
0.00162861
0.00167028
0.00167028
0.00171211
0.00171211
0.00175405
0.00175405
0.00179608
0.00179608
0.00183816
0.00183816
0.00188027
0.00188027
0.00192238
0.00192238
0.00196446
0.00196446
0.00200647
0.00200647
0.00204839
0.00204839
0.0020902
0.0020902
0.00213186
0.00213186
0.00217335
0.00217335
0.00221463
0.00221463
0.0022557
0.0022557
0.00229651
0.00229651
0.00233706
0.00233706
0.0023773
0.0023773
0.00241722
0.00241722
0.00245681
0.00245681
0.00249602
0.00249602
0.00253486
0.00253486
0.00257329
0.00257329
0.00261129
0.00261129
0.00264886
0.00264886
0.00268597
0.00268597
0.0027226
0.0027226
0.00275874
0.00275874
0.00279437
0.00279437
0.00282948
0.00282948
0.00286406
0.00286406
0.00289809
0.00289809
0.00293156
0.00293156
0.00296446
0.00296446
0.00299678
0.00299678
0.0030285
0.0030285
0.00305963
0.00305963
0.00309014
0.00309014
0.00312004
0.00312004
0.00314932
0.00314932
0.00317796
0.00317796
0.00320596
0.00320596
0.00323332
0.00323332
0.00326003
0.00326003
0.00328609
0.00328609
0.0033115
0.0033115
0.00333624
0.00333624
0.00336032
0.00336032
0.00338373
0.00338373
0.00340648
0.00340648
0.00342856
0.00342856
0.00344997
0.00344997
0.00347071
0.00347071
0.00349078
0.00349078
0.00351018
0.00351018
0.00352891
0.00352891
0.00354698
0.00354698
0.00356437
0.00356437
0.0035811
0.0035811
0.00359717
0.00359717
0.00361258
0.00361258
0.00362733
0.00362733
0.00364142
0.00364142
0.00365486
0.00365486
0.00366765
0.00366765
0.0036798
0.0036798
0.0036913
0.0036913
0.00370217
0.00370217
0.00371241
0.00371241
0.00372201
0.00372201
0.00373099
0.00373099
0.00373936
0.00373936
0.00374711
0.00374711
0.00375425
0.00375425
0.00376079
0.00376079
0.00376673
0.00376673
0.00377208
0.00377208
0.00377685
0.00377685
0.00378103
0.00378103
0.00378464
0.00378464
0.00378768
0.00378768
0.00379016
0.00379016
0.00379209
0.00379209
0.00379347
0.00379347
0.0037943
0.0037943
0.0037946
0.0037946
0.00379438
0.00379438
0.00379363
0.00379363
0.00379236
0.00379236
0.00379059
0.00379059
0.00378831
0.00378831
0.00378554
0.00378554
0.00378229
0.00378229
0.00377855
0.00377855
0.00377434
0.00377434
0.00376967
0.00376967
0.00376454
0.00376454
0.00375895
0.00375895
0.00375292
0.00375292
0.00374646
0.00374646
0.00373956
0.00373956
0.00373224
0.00373224
0.00372451
0.00372451
0.00371636
0.00371636
0.00370782
0.00370782
0.00369888
0.00369888
0.00368956
0.00368956
0.00367986
0.00367986
0.00366978
0.00366978
0.00365934
0.00365934
0.00364854
0.00364854
0.00363739
0.00363739
0.0036259
0.0036259
0.00361407
0.00361407
0.00360191
0.00360191
0.00358942
0.00358942
0.00357663
0.00357663
0.00356352
0.00356352
0.00355011
0.00355011
0.00353641
0.00353641
0.00352242
0.00352242
0.00350814
0.00350814
0.00349359
0.00349359
0.00347878
0.00347878
0.0034637
0.0034637
0.00344837
0.00344837
0.00343279
0.00343279
0.00341697
0.00341697
0.00340091
0.00340091
0.00338463
0.00338463
0.00336812
0.00336812
0.0033514
0.0033514
0.00333446
0.00333446
0.00331733
0.00331733
0.00329999
0.00329999
0.00328247
0.00328247
0.00326475
0.00326475
0.00324686
0.00324686
0.0032288
0.0032288
0.00321057
0.00321057
0.00319218
0.00319218
0.00317363
0.00317363
0.00315493
0.00315493
0.00313608
0.00313608
0.0031171
0.0031171
0.00309798
0.00309798
0.00307873
0.00307873
0.00305936
0.00305936
0.00303988
0.00303988
0.00302028
0.00302028
0.00300057
0.00300057
0.00298076
0.00298076
0.00296085
0.00296085
0.00294085
0.00294085
0.00292077
0.00292077
0.0029006
0.0029006
0.00288035
0.00288035
0.00286003
0.00286003
0.00283964
0.00283964
0.00281919
0.00281919
0.00279868
0.00279868
0.00277811
0.00277811
0.00275749
0.00275749
0.00273683
0.00273683
0.00271612
0.00271612
0.00269538
0.00269538
0.0026746
0.0026746
0.00265379
0.00265379
0.00263296
0.00263296
0.0026121
0.0026121
0.00259123
0.00259123
0.00257034
0.00257034
0.00254944
0.00254944
0.00252854
0.00252854
0.00250763
0.00250763
0.00248672
0.00248672
0.00246582
0.00246582
0.00244492
0.00244492
0.00242404
0.00242404
0.00240316
0.00240316
0.00238231
0.00238231
0.00236147
0.00236147
0.00234066
0.00234066
0.00231987
0.00231987
0.00229911
0.00229911
0.00227839
0.00227839
0.0022577
0.0022577
0.00223704
0.00223704
0.00221643
0.00221643
0.00219586
0.00219586
0.00217534
0.00217534
0.00215486
0.00215486
0.00213444
0.00213444
0.00211406
0.00211406
0.00209375
0.00209375
0.00207349
0.00207349
0.00205329
0.00205329
0.00203316
0.00203316
0.00201309
0.00201309
0.00199308
0.00199308
0.00197315
0.00197315
0.00195328
0.00195328
0.00193349
0.00193349
0.00191377
0.00191377
0.00189413
0.00189413
0.00187457
0.00187457
0.00185508
0.00185508
0.00183568
0.00183568
0.00181637
0.00181637
0.00179713
0.00179713
0.00177799
0.00177799
0.00175893
0.00175893
0.00173996
0.00173996
0.00172108
0.00172108
0.0017023
0.0017023
0.00168361
0.00168361
0.00166501
0.00166501
0.00164651
0.00164651
0.00162811
0.00162811
0.0016098
0.0016098
0.0015916
0.0015916
0.0015735
0.0015735
0.0015555
0.0015555
0.0015376
0.0015376
0.0015198
0.0015198
0.00150212
0.00150212
0.00148453
0.00148453
0.00146706
0.00146706
0.00144969
0.00144969
0.00143243
0.00143243
0.00141527
0.00141527
0.00139823
0.00139823
0.0013813
0.0013813
0.00136448
0.00136448
0.00134778
0.00134778
0.00133118
0.00133118
0.0013147
0.0013147
0.00129833
0.00129833
0.00128208
0.00128208
0.00126594
0.00126594
0.00124991
0.00124991
0.00123401
0.00123401
0.00121821
0.00121821
0.00120254
0.00120254
0.00118698
0.00118698
0.00117154
0.00117154
0.00115622
0.00115622
0.00114101
0.00114101
0.00112593
0.00112593
0.00111096
0.00111096
0.00109611
0.00109611
0.00108138
0.00108138
0.00106677
0.00106677
0.00105228
0.00105228
0.00103791
0.00103791
0.00102366
0.00102366
0.00100953
0.00100953
0.000995519
0.00099552
0.000981631
0.000981631
0.000967864
0.000967864
0.000954218
0.000954218
0.000940693
0.000940693
0.00092729
0.00092729
0.000914008
0.000914008
0.000900848
0.000900848
0.00088781
0.00088781
0.000874894
0.000874894
0.0008621
0.0008621
0.000849429
0.000849429
0.00083688
0.00083688
0.000824454
0.000824454
0.000812151
0.000812151
0.000799971
0.000799971
0.000787913
0.000787913
0.00077598
0.00077598
0.000764169
0.000764169
0.000752483
0.000752483
0.00074092
0.00074092
0.000729482
0.000729482
0.000718168
0.000718168
0.000706978
0.000706978
0.000695913
0.000695913
0.000684973
0.000684974
0.000674159
0.000674159
0.00066347
0.000663471
0.000652908
0.000652908
0.000642471
0.000642471
0.000632161
0.000632161
0.000621978
0.000621978
0.000611923
0.000611923
0.000601995
0.000601995
0.000592195
0.000592195
0.000582524
0.000582524
0.000572982
0.000572982
0.000563569
0.00056357
0.000554287
0.000554287
0.000545135
0.000545135
0.000536114
0.000536114
0.000527224
0.000527224
0.000518467
0.000518467
0.000509842
0.000509842
0.000501351
0.000501351
0.000492993
0.000492993
0.00048477
0.00048477
0.000476682
0.000476683
0.00046873
0.00046873
0.000460915
0.000460915
0.000453236
0.000453236
0.000445695
0.000445695
0.000438293
0.000438293
0.000431029
0.000431029
0.000423905
0.000423906
0.000416922
0.000416922
0.000410079
0.000410079
0.000403378
0.000403378
0.000396818
0.000396818
0.000390401
0.000390401
0.000384127
0.000384127
0.000377997
0.000377997
0.00037201
0.00037201
0.000366167
0.000366167
0.000360469
0.000360469
0.000354916
0.000354916
0.000349508
0.000349508
0.000344244
0.000344244
0.000339125
0.000339125
0.000334152
0.000334152
0.000329323
0.000329323
0.000324638
0.000324638
0.000320097
0.000320097
0.0003157
0.0003157
0.000311446
0.000311446
0.000307334
0.000307334
0.000303364
0.000303364
0.000299534
0.000299534
0.000295843
0.000295843
0.00029229
0.00029229
0.000288874
0.000288874
0.000285593
0.000285593
0.000282446
0.000282446
0.000279431
0.000279431
0.000276545
0.000276545
0.000273788
0.000273788
0.000271156
0.000271156
0.000268648
0.000268648
0.000266262
0.000266262
0.000263994
0.000263994
0.000261842
0.000261842
0.000259804
0.000259804
0.000257877
0.000257877
0.000256058
0.000256058
0.000254345
0.000254345
0.000252734
0.000252734
0.000251222
0.000251222
0.000249806
0.000249806
0.000248484
0.000248484
0.000247253
0.000247253
0.000246108
0.000246108
0.000245048
0.000245048
0.000244069
0.000244069
0.000243168
0.000243168
0.000242343
0.000242343
0.000241589
0.000241589
0.000240905
0.000240905
0.000240288
0.000240288
0.000239733
0.000239733
0.00023924
0.00023924
0.000238805
0.000238805
0.000238425
0.000238425
0.000238098
0.000238098
0.000237821
0.000237821
0.000237592
0.000237592
0.000237409
0.000237409
0.000237269
0.000237269
0.000237169
0.000237169
0.000237109
0.000237109
0.000237085
0.000237085
0.000237096
0.000237096
0.00023714
0.00023714
0.000237214
0.000237214
0.000237318
0.000237318
0.000237449
0.000237449
0.000237606
0.000237606
0.000237787
0.000237787
0.000237991
0.000237991
0.000238216
0.000238216
0.000238461
0.000238461
0.000238725
0.000238725
0.000239006
0.000239006
0.000239303
0.000239303
0.000239615
0.000239615
0.00023994
0.00023994
0.000240279
0.000240279
0.000240629
0.000240629
0.00024099
0.00024099
0.000241361
0.000241361
0.00024174
0.00024174
0.000242128
0.000242128
0.000242523
0.000242523
0.000242925
0.000242925
0.000243333
0.000243333
0.000243745
0.000243745
0.000244163
0.000244163
0.000244583
0.000244583
0.000245007
0.000245007
0.000245434
0.000245434
0.000245863
0.000245863
0.000246293
0.000246293
0.000246724
0.000246724
0.000247155
0.000247155
0.000247587
0.000247587
0.000248017
0.000248017
0.000248447
0.000248447
0.000248876
0.000248876
0.000249302
0.000249302
0.000249727
0.000249727
0.000250149
0.000250149
0.000250568
0.000250568
0.000250984
0.000250984
0.000251396
0.000251396
0.000251804
0.000251804
0.000252207
0.000252207
0.000252607
0.000252607
0.000253001
0.000253001
0.00025339
0.00025339
0.000253774
0.000253774
0.000254152
0.000254152
0.000254524
0.000254524
0.00025489
0.00025489
0.000255249
0.000255249
0.000255602
0.000255602
0.000255948
0.000255948
0.000256287
0.000256287
0.000256618
0.000256618
0.000256942
0.000256942
0.000257259
0.000257258
0.000257567
0.000257567
0.000257868
0.000257868
0.00025816
0.00025816
0.000258444
0.000258444
0.00025872
0.00025872
0.000258987
0.000258987
0.000259245
0.000259245
0.000259494
0.000259494
0.000259735
0.000259735
0.000259967
0.000259967
0.000260189
0.000260189
0.000260402
0.000260402
0.000260606
0.000260606
0.000260801
0.000260801
0.000260986
0.000260986
0.000261162
0.000261162
0.000261328
0.000261328
0.000261485
0.000261485
0.000261632
0.000261632
0.00026177
0.00026177
0.000261898
0.000261898
0.000262017
0.000262017
0.000262126
0.000262126
0.000262226
0.000262226
0.000262316
0.000262316
0.000262397
0.000262397
0.000262469
0.000262469
0.000262532
0.000262532
0.000262586
0.000262586
0.00026263
0.00026263
0.000262666
0.000262666
0.000262693
0.000262693
0.000262712
0.000262712
0.000262722
0.000262722
0.000262724
0.000262724
0.000262718
0.000262718
0.000262704
0.000262704
0.000262682
0.000262682
0.000262653
0.000262653
0.000262617
0.000262617
0.000262574
0.000262574
0.000262524
0.000262524
0.000262468
0.000262468
0.000262406
0.000262406
0.000262338
0.000262338
0.000262265
0.000262265
0.000262186
0.000262186
0.000262103
0.000262103
0.000262016
0.000262016
0.000261924
0.000261924
0.000261829
0.000261829
0.000261731
0.000261731
0.00026163
0.00026163
0.000261527
0.000261527
0.000261422
0.000261422
0.000261315
0.000261315
0.000261208
0.000261208
0.0002611
0.0002611
0.000260992
0.000260992
0.000260885
0.000260885
0.000260779
0.000260779
0.000260674
0.000260674
0.000260571
0.000260571
0.000260472
0.000260472
0.000260375
0.000260375
0.000260282
0.000260282
0.000260193
0.000260193
0.000260109
0.000260109
0.00026003
0.00026003
0.000259957
0.000259957
0.00025989
0.00025989
0.00025983
0.00025983
0.000259777
0.000259777
0.000259732
0.000259732
0.000259696
0.000259696
0.000259667
0.000259667
0.000259648
0.000259648
0.000259639
0.000259639
3.89328e-08
3.89328e-08
5.81325e-09
5.81325e-09
2.23714e-09
2.23714e-09
2.60401e-09
2.60401e-09
5.20125e-09
5.20125e-09
1.0397e-08
1.0397e-08
1.89803e-08
1.89803e-08
3.19136e-08
3.19136e-08
5.02779e-08
5.02779e-08
7.52576e-08
7.52576e-08
1.08136e-07
1.08136e-07
1.50295e-07
1.50295e-07
2.03218e-07
2.03218e-07
2.6849e-07
2.6849e-07
3.47803e-07
3.47803e-07
4.42955e-07
4.42955e-07
5.55862e-07
5.55862e-07
6.88552e-07
6.88552e-07
8.43178e-07
8.43178e-07
1.02202e-06
1.02202e-06
1.22748e-06
1.22748e-06
1.46211e-06
1.46211e-06
1.72859e-06
1.72859e-06
2.02975e-06
2.02975e-06
2.36859e-06
2.36859e-06
2.74824e-06
2.74824e-06
3.17202e-06
3.17202e-06
3.6434e-06
3.6434e-06
4.16605e-06
4.16605e-06
4.7438e-06
4.7438e-06
5.3807e-06
5.3807e-06
6.08097e-06
6.08097e-06
6.84905e-06
6.84905e-06
7.68961e-06
7.68961e-06
8.6075e-06
8.6075e-06
9.60784e-06
9.60784e-06
1.0696e-05
1.0696e-05
1.18775e-05
1.18775e-05
1.31581e-05
1.31581e-05
1.45441e-05
1.45441e-05
1.60418e-05
1.60418e-05
1.76577e-05
1.76577e-05
1.93989e-05
1.93989e-05
2.12724e-05
2.12724e-05
2.3286e-05
2.3286e-05
2.54472e-05
2.54472e-05
2.77644e-05
2.77644e-05
3.02459e-05
3.02459e-05
3.29005e-05
3.29005e-05
3.57372e-05
3.57372e-05
3.87656e-05
3.87656e-05
4.19954e-05
4.19954e-05
4.54368e-05
4.54368e-05
4.91001e-05
4.91001e-05
5.29962e-05
5.29962e-05
5.71363e-05
5.71363e-05
6.15318e-05
6.15318e-05
6.61946e-05
6.61946e-05
7.11369e-05
7.11369e-05
7.63713e-05
7.63713e-05
8.19105e-05
8.19105e-05
8.77679e-05
8.77679e-05
9.39567e-05
9.39567e-05
0.000100491
0.000100491
0.000107385
0.000107385
0.000114652
0.000114652
0.000122308
0.000122308
0.000130367
0.000130367
0.000138845
0.000138845
0.000147755
0.000147755
0.000157115
0.000157115
0.000166939
0.000166939
0.000177243
0.000177243
0.000188042
0.000188042
0.000199352
0.000199352
0.000211189
0.000211189
0.000223567
0.000223567
0.000236503
0.000236503
0.000250011
0.000250011
0.000264107
0.000264107
0.000278803
0.000278803
0.000294116
0.000294116
0.000310058
0.000310058
0.000326643
0.000326643
0.000343883
0.000343883
0.00036179
0.00036179
0.000380376
0.000380376
0.000399651
0.000399651
0.000419624
0.000419624
0.000440305
0.000440305
0.000461701
0.000461701
0.000483819
0.000483819
0.000506665
0.000506665
0.000530243
0.000530243
0.000554556
0.000554556
0.000579608
0.000579608
0.000605397
0.000605397
0.000631925
0.000631925
0.000659188
0.000659188
0.000687184
0.000687184
0.000715908
0.000715908
0.000745353
0.000745353
0.000775513
0.000775513
0.000806377
0.000806377
0.000837936
0.000837936
0.000870177
0.000870177
0.000903087
0.000903087
0.000936651
0.000936651
0.000970853
0.000970853
0.00100568
0.00100568
0.0010411
0.0010411
0.00107711
0.00107711
0.00111367
0.00111367
0.00115078
0.00115078
0.00118839
0.00118839
0.0012265
0.0012265
0.00126508
0.00126508
0.00130409
0.00130409
0.00134351
0.00134351
0.00138332
0.00138332
0.00142348
0.00142348
0.00146397
0.00146397
0.00150476
0.00150476
0.00154581
0.00154581
0.00158711
0.00158711
0.00162861
0.00162861
0.00167028
0.00167028
0.00171211
0.00171211
0.00175405
0.00175405
0.00179608
0.00179608
0.00183816
0.00183816
0.00188027
0.00188027
0.00192238
0.00192238
0.00196446
0.00196446
0.00200647
0.00200647
0.00204839
0.00204839
0.0020902
0.0020902
0.00213186
0.00213186
0.00217335
0.00217335
0.00221463
0.00221463
0.0022557
0.0022557
0.00229651
0.00229651
0.00233706
0.00233706
0.0023773
0.0023773
0.00241722
0.00241722
0.00245681
0.00245681
0.00249602
0.00249602
0.00253486
0.00253486
0.00257329
0.00257329
0.00261129
0.00261129
0.00264886
0.00264886
0.00268597
0.00268597
0.0027226
0.0027226
0.00275874
0.00275874
0.00279437
0.00279437
0.00282948
0.00282948
0.00286406
0.00286406
0.00289809
0.00289809
0.00293156
0.00293156
0.00296446
0.00296446
0.00299678
0.00299678
0.0030285
0.0030285
0.00305963
0.00305963
0.00309014
0.00309014
0.00312004
0.00312004
0.00314932
0.00314932
0.00317796
0.00317796
0.00320596
0.00320596
0.00323332
0.00323332
0.00326003
0.00326003
0.00328609
0.00328609
0.0033115
0.0033115
0.00333624
0.00333624
0.00336032
0.00336032
0.00338373
0.00338373
0.00340648
0.00340648
0.00342856
0.00342856
0.00344997
0.00344997
0.00347071
0.00347071
0.00349078
0.00349078
0.00351018
0.00351018
0.00352891
0.00352891
0.00354698
0.00354698
0.00356437
0.00356437
0.0035811
0.0035811
0.00359717
0.00359717
0.00361258
0.00361258
0.00362733
0.00362733
0.00364142
0.00364142
0.00365486
0.00365486
0.00366765
0.00366765
0.0036798
0.0036798
0.0036913
0.0036913
0.00370217
0.00370217
0.00371241
0.00371241
0.00372201
0.00372201
0.00373099
0.00373099
0.00373936
0.00373936
0.00374711
0.00374711
0.00375425
0.00375425
0.00376079
0.00376079
0.00376673
0.00376673
0.00377208
0.00377208
0.00377685
0.00377685
0.00378103
0.00378103
0.00378464
0.00378464
0.00378768
0.00378768
0.00379016
0.00379016
0.00379209
0.00379209
0.00379347
0.00379347
0.0037943
0.0037943
0.0037946
0.0037946
0.00379438
0.00379438
0.00379363
0.00379363
0.00379236
0.00379236
0.00379059
0.00379059
0.00378831
0.00378831
0.00378554
0.00378554
0.00378229
0.00378229
0.00377855
0.00377855
0.00377434
0.00377434
0.00376967
0.00376967
0.00376454
0.00376454
0.00375895
0.00375895
0.00375292
0.00375292
0.00374646
0.00374646
0.00373956
0.00373956
0.00373224
0.00373224
0.00372451
0.00372451
0.00371636
0.00371636
0.00370782
0.00370782
0.00369888
0.00369888
0.00368956
0.00368956
0.00367986
0.00367986
0.00366978
0.00366978
0.00365934
0.00365934
0.00364854
0.00364854
0.00363739
0.00363739
0.0036259
0.0036259
0.00361407
0.00361407
0.00360191
0.00360191
0.00358942
0.00358942
0.00357663
0.00357663
0.00356352
0.00356352
0.00355011
0.00355011
0.00353641
0.00353641
0.00352242
0.00352242
0.00350814
0.00350814
0.00349359
0.00349359
0.00347878
0.00347878
0.0034637
0.0034637
0.00344837
0.00344837
0.00343279
0.00343279
0.00341697
0.00341697
0.00340091
0.00340091
0.00338463
0.00338463
0.00336812
0.00336812
0.0033514
0.0033514
0.00333446
0.00333446
0.00331733
0.00331733
0.00329999
0.00329999
0.00328247
0.00328247
0.00326475
0.00326475
0.00324686
0.00324686
0.0032288
0.0032288
0.00321057
0.00321057
0.00319218
0.00319218
0.00317363
0.00317363
0.00315493
0.00315493
0.00313608
0.00313608
0.0031171
0.0031171
0.00309798
0.00309798
0.00307873
0.00307873
0.00305936
0.00305936
0.00303988
0.00303988
0.00302028
0.00302028
0.00300057
0.00300057
0.00298076
0.00298076
0.00296085
0.00296085
0.00294085
0.00294085
0.00292077
0.00292077
0.0029006
0.0029006
0.00288035
0.00288035
0.00286003
0.00286003
0.00283964
0.00283964
0.00281919
0.00281919
0.00279868
0.00279868
0.00277811
0.00277811
0.00275749
0.00275749
0.00273683
0.00273683
0.00271612
0.00271612
0.00269538
0.00269538
0.0026746
0.0026746
0.00265379
0.00265379
0.00263296
0.00263296
0.0026121
0.0026121
0.00259123
0.00259123
0.00257034
0.00257034
0.00254944
0.00254944
0.00252854
0.00252854
0.00250763
0.00250763
0.00248672
0.00248672
0.00246582
0.00246582
0.00244492
0.00244492
0.00242404
0.00242404
0.00240316
0.00240316
0.00238231
0.00238231
0.00236147
0.00236147
0.00234066
0.00234066
0.00231987
0.00231987
0.00229911
0.00229911
0.00227839
0.00227839
0.0022577
0.0022577
0.00223704
0.00223704
0.00221643
0.00221643
0.00219586
0.00219586
0.00217534
0.00217534
0.00215486
0.00215486
0.00213444
0.00213444
0.00211406
0.00211406
0.00209375
0.00209375
0.00207349
0.00207349
0.00205329
0.00205329
0.00203316
0.00203316
0.00201309
0.00201309
0.00199308
0.00199308
0.00197315
0.00197315
0.00195328
0.00195328
0.00193349
0.00193349
0.00191377
0.00191377
0.00189413
0.00189413
0.00187457
0.00187457
0.00185508
0.00185508
0.00183568
0.00183568
0.00181637
0.00181637
0.00179713
0.00179713
0.00177799
0.00177799
0.00175893
0.00175893
0.00173996
0.00173996
0.00172108
0.00172108
0.0017023
0.0017023
0.00168361
0.00168361
0.00166501
0.00166501
0.00164651
0.00164651
0.00162811
0.00162811
0.0016098
0.0016098
0.0015916
0.0015916
0.0015735
0.0015735
0.0015555
0.0015555
0.0015376
0.0015376
0.0015198
0.0015198
0.00150212
0.00150212
0.00148453
0.00148453
0.00146706
0.00146706
0.00144969
0.00144969
0.00143243
0.00143243
0.00141527
0.00141527
0.00139823
0.00139823
0.0013813
0.0013813
0.00136448
0.00136448
0.00134778
0.00134778
0.00133118
0.00133118
0.0013147
0.0013147
0.00129833
0.00129833
0.00128208
0.00128208
0.00126594
0.00126594
0.00124991
0.00124991
0.00123401
0.00123401
0.00121821
0.00121821
0.00120254
0.00120254
0.00118698
0.00118698
0.00117154
0.00117154
0.00115622
0.00115622
0.00114101
0.00114101
0.00112593
0.00112593
0.00111096
0.00111096
0.00109611
0.00109611
0.00108138
0.00108138
0.00106677
0.00106677
0.00105228
0.00105228
0.00103791
0.00103791
0.00102366
0.00102366
0.00100953
0.00100953
0.000995519
0.00099552
0.000981631
0.000981631
0.000967864
0.000967864
0.000954218
0.000954218
0.000940693
0.000940693
0.00092729
0.00092729
0.000914008
0.000914008
0.000900848
0.000900848
0.00088781
0.00088781
0.000874894
0.000874894
0.0008621
0.0008621
0.000849429
0.000849429
0.00083688
0.00083688
0.000824454
0.000824454
0.000812151
0.000812151
0.000799971
0.000799971
0.000787913
0.000787914
0.00077598
0.00077598
0.000764169
0.00076417
0.000752483
0.000752483
0.00074092
0.00074092
0.000729482
0.000729482
0.000718168
0.000718168
0.000706978
0.000706978
0.000695913
0.000695913
0.000684974
0.000684974
0.000674159
0.000674159
0.00066347
0.000663471
0.000652908
0.000652908
0.000642471
0.000642471
0.000632161
0.000632161
0.000621978
0.000621978
0.000611923
0.000611923
0.000601995
0.000601995
0.000592195
0.000592195
0.000582524
0.000582524
0.000572982
0.000572982
0.000563569
0.00056357
0.000554287
0.000554287
0.000545135
0.000545135
0.000536114
0.000536114
0.000527224
0.000527224
0.000518467
0.000518467
0.000509842
0.000509842
0.000501351
0.000501351
0.000492993
0.000492993
0.00048477
0.00048477
0.000476682
0.000476683
0.00046873
0.00046873
0.000460915
0.000460915
0.000453236
0.000453236
0.000445695
0.000445695
0.000438293
0.000438293
0.000431029
0.000431029
0.000423905
0.000423906
0.000416922
0.000416922
0.000410079
0.000410079
0.000403378
0.000403378
0.000396818
0.000396818
0.000390401
0.000390401
0.000384127
0.000384127
0.000377997
0.000377997
0.00037201
0.00037201
0.000366167
0.000366168
0.000360469
0.000360469
0.000354916
0.000354916
0.000349508
0.000349508
0.000344244
0.000344244
0.000339125
0.000339126
0.000334152
0.000334152
0.000329323
0.000329323
0.000324638
0.000324638
0.000320097
0.000320098
0.0003157
0.0003157
0.000311446
0.000311446
0.000307334
0.000307334
0.000303364
0.000303364
0.000299534
0.000299534
0.000295843
0.000295843
0.00029229
0.00029229
0.000288874
0.000288874
0.000285593
0.000285593
0.000282446
0.000282446
0.000279431
0.000279431
0.000276545
0.000276545
0.000273788
0.000273788
0.000271156
0.000271156
0.000268648
0.000268648
0.000266262
0.000266262
0.000263994
0.000263994
0.000261842
0.000261842
0.000259804
0.000259804
0.000257877
0.000257877
0.000256058
0.000256058
0.000254345
0.000254345
0.000252734
0.000252734
0.000251222
0.000251222
0.000249806
0.000249806
0.000248484
0.000248484
0.000247253
0.000247253
0.000246108
0.000246108
0.000245048
0.000245048
0.000244069
0.000244069
0.000243168
0.000243168
0.000242343
0.000242343
0.000241589
0.000241589
0.000240905
0.000240905
0.000240288
0.000240288
0.000239733
0.000239733
0.00023924
0.00023924
0.000238805
0.000238805
0.000238425
0.000238425
0.000238098
0.000238098
0.000237821
0.000237821
0.000237592
0.000237592
0.000237409
0.000237409
0.000237269
0.000237269
0.000237169
0.000237169
0.000237109
0.000237109
0.000237085
0.000237085
0.000237096
0.000237096
0.00023714
0.00023714
0.000237214
0.000237214
0.000237318
0.000237318
0.000237449
0.000237449
0.000237606
0.000237606
0.000237787
0.000237787
0.000237991
0.000237991
0.000238216
0.000238216
0.000238461
0.000238461
0.000238725
0.000238725
0.000239006
0.000239006
0.000239303
0.000239303
0.000239615
0.000239615
0.00023994
0.00023994
0.000240279
0.000240279
0.000240629
0.000240629
0.00024099
0.00024099
0.000241361
0.000241361
0.00024174
0.00024174
0.000242128
0.000242128
0.000242523
0.000242523
0.000242925
0.000242925
0.000243333
0.000243333
0.000243745
0.000243745
0.000244163
0.000244163
0.000244583
0.000244583
0.000245007
0.000245007
0.000245434
0.000245434
0.000245863
0.000245863
0.000246293
0.000246293
0.000246724
0.000246724
0.000247155
0.000247155
0.000247587
0.000247587
0.000248017
0.000248017
0.000248447
0.000248447
0.000248876
0.000248876
0.000249302
0.000249302
0.000249727
0.000249727
0.000250149
0.000250149
0.000250568
0.000250568
0.000250984
0.000250984
0.000251396
0.000251396
0.000251804
0.000251804
0.000252207
0.000252207
0.000252607
0.000252607
0.000253001
0.000253001
0.00025339
0.00025339
0.000253774
0.000253774
0.000254152
0.000254152
0.000254524
0.000254524
0.00025489
0.00025489
0.000255249
0.000255249
0.000255602
0.000255602
0.000255948
0.000255948
0.000256287
0.000256287
0.000256618
0.000256618
0.000256942
0.000256942
0.000257258
0.000257258
0.000257567
0.000257567
0.000257868
0.000257868
0.00025816
0.00025816
0.000258444
0.000258444
0.00025872
0.00025872
0.000258987
0.000258987
0.000259245
0.000259245
0.000259494
0.000259494
0.000259735
0.000259735
0.000259967
0.000259967
0.000260189
0.000260189
0.000260402
0.000260402
0.000260606
0.000260606
0.000260801
0.000260801
0.000260986
0.000260986
0.000261162
0.000261162
0.000261328
0.000261328
0.000261485
0.000261485
0.000261632
0.000261632
0.00026177
0.00026177
0.000261898
0.000261898
0.000262017
0.000262017
0.000262126
0.000262126
0.000262226
0.000262226
0.000262316
0.000262316
0.000262397
0.000262397
0.000262469
0.000262469
0.000262532
0.000262532
0.000262586
0.000262586
0.00026263
0.00026263
0.000262666
0.000262666
0.000262693
0.000262693
0.000262712
0.000262712
0.000262722
0.000262722
0.000262724
0.000262724
0.000262718
0.000262718
0.000262704
0.000262704
0.000262682
0.000262682
0.000262653
0.000262653
0.000262617
0.000262617
0.000262574
0.000262574
0.000262524
0.000262524
0.000262468
0.000262468
0.000262406
0.000262406
0.000262338
0.000262338
0.000262265
0.000262265
0.000262186
0.000262186
0.000262103
0.000262103
0.000262016
0.000262016
0.000261924
0.000261924
0.000261829
0.000261829
0.000261731
0.000261731
0.00026163
0.00026163
0.000261527
0.000261527
0.000261422
0.000261422
0.000261315
0.000261315
0.000261208
0.000261208
0.0002611
0.0002611
0.000260992
0.000260992
0.000260885
0.000260885
0.000260779
0.000260779
0.000260674
0.000260674
0.000260571
0.000260571
0.000260472
0.000260472
0.000260375
0.000260375
0.000260282
0.000260282
0.000260193
0.000260193
0.000260109
0.000260109
0.00026003
0.00026003
0.000259957