/*--------------------------------*- C++ -*----------------------------------*\
| =========                 |                                                 |
| \\      /  F ield         | OpenFOAM: The Open Source CFD Toolbox           |
|  \\    /   O peration     | Version:  2012                                  |
|   \\  /    A nd           | Website:  www.openfoam.com                      |
|    \\/     M anipulation  |                                                 |
\*---------------------------------------------------------------------------*/
FoamFile
{
    version     2.0;
    format      ascii;
    class       surfaceScalarField;
    location    "12000";
    object      phi;
}
// * * * * * * * * * * * * * * * * * * * * * * * * * * * * * * * * * * * * * //

dimensions      [0 3 -1 0 0 0 0];
oriented        oriented;


internalField   nonuniform List<scalar> 
10236
(
3.96975e-09
-8.81828e-18
-1.40778e-22
-2.61886e-22
-9.95257e-24
1.20239e-08
-8.8167e-18
-5.46726e-22
-1.22612e-21
-6.00979e-23
2.02522e-08
-8.81511e-18
-5.50659e-22
-2.19704e-21
-6.14095e-23
2.86574e-08
-8.81351e-18
-5.56862e-22
-3.16989e-21
-6.2748e-23
3.72421e-08
-8.81189e-18
-5.63598e-22
-4.16305e-21
-6.41139e-23
4.60089e-08
-8.81025e-18
-5.70597e-22
-5.161e-21
-6.55076e-23
5.49608e-08
-8.80858e-18
-5.7787e-22
-6.17898e-21
-6.69299e-23
6.41005e-08
-8.80692e-18
-5.85348e-22
-7.17616e-21
-6.83812e-23
7.34307e-08
-8.80522e-18
-5.92965e-22
-8.19957e-21
-6.9862e-23
8.29545e-08
-8.80351e-18
-6.0069e-22
-9.23169e-21
-7.13731e-23
9.26746e-08
-8.80178e-18
-6.08515e-22
-1.02868e-20
-7.29149e-23
1.02594e-07
-8.8e-18
-6.16438e-22
-1.13515e-20
-7.4488e-23
1.12716e-07
-8.79821e-18
-6.2446e-22
-1.24319e-20
-7.60929e-23
1.23043e-07
-8.79638e-18
-6.32582e-22
-1.34984e-20
-7.77304e-23
1.33578e-07
-8.79453e-18
-6.40807e-22
-1.45888e-20
-7.9401e-23
1.44325e-07
-8.79263e-18
-6.49135e-22
-1.56803e-20
-8.11053e-23
1.55286e-07
-8.79073e-18
-6.57569e-22
-1.67783e-20
-8.2844e-23
1.66465e-07
-8.7888e-18
-6.6611e-22
-1.79299e-20
-8.46176e-23
1.77866e-07
-8.78679e-18
-6.74759e-22
-1.90495e-20
-8.64268e-23
1.8949e-07
-8.78482e-18
-6.83518e-22
-2.02525e-20
-8.82722e-23
2.01342e-07
-8.78283e-18
-6.92389e-22
-2.14086e-20
-9.01543e-23
2.13425e-07
-8.78078e-18
-7.01372e-22
-2.26452e-20
-9.20741e-23
2.25742e-07
-8.77873e-18
-7.1047e-22
-2.38793e-20
-9.40319e-23
2.38297e-07
-8.77667e-18
-7.19684e-22
-2.51057e-20
-9.60284e-23
2.51093e-07
-8.77459e-18
-7.29015e-22
-2.63573e-20
-9.80645e-23
2.64134e-07
-8.77252e-18
-7.38464e-22
-2.75557e-20
-1.00141e-22
2.77423e-07
-8.77036e-18
-7.48034e-22
-2.88602e-20
-1.02258e-22
2.90964e-07
-8.76817e-18
-7.57726e-22
-3.02086e-20
-1.04417e-22
3.04761e-07
-8.76593e-18
-7.67542e-22
-3.1515e-20
-1.06617e-22
3.18817e-07
-8.76374e-18
-7.77483e-22
-3.28503e-20
-1.0886e-22
3.33136e-07
-8.76146e-18
-7.8755e-22
-3.42291e-20
-1.11148e-22
3.47722e-07
-8.75913e-18
-7.97746e-22
-3.55563e-20
-1.1348e-22
3.62579e-07
-8.75674e-18
-8.08072e-22
-3.7037e-20
-1.15857e-22
3.77711e-07
-8.75434e-18
-8.18529e-22
-3.84576e-20
-1.1828e-22
3.93122e-07
-8.75193e-18
-8.29118e-22
-3.98933e-20
-1.2075e-22
4.08815e-07
-8.74944e-18
-8.39842e-22
-4.14164e-20
-1.23268e-22
4.24795e-07
-8.74705e-18
-8.50702e-22
-4.28944e-20
-1.25834e-22
4.41067e-07
-8.74458e-18
-8.61699e-22
-4.43278e-20
-1.2845e-22
4.57633e-07
-8.74206e-18
-8.72835e-22
-4.59011e-20
-1.31118e-22
4.74499e-07
-8.73957e-18
-8.84111e-22
-4.73316e-20
-1.33836e-22
4.91669e-07
-8.73693e-18
-8.95528e-22
-4.89137e-20
-1.36606e-22
5.09147e-07
-8.73436e-18
-9.07089e-22
-5.04768e-20
-1.39429e-22
5.26937e-07
-8.73174e-18
-9.18794e-22
-5.1971e-20
-1.42306e-22
5.45045e-07
-8.72911e-18
-9.30644e-22
-5.36293e-20
-1.45237e-22
5.63474e-07
-8.72639e-18
-9.42642e-22
-5.52649e-20
-1.48224e-22
5.8223e-07
-8.72362e-18
-9.54789e-22
-5.68258e-20
-1.51266e-22
6.01316e-07
-8.72085e-18
-9.67085e-22
-5.85014e-20
-1.54365e-22
6.20738e-07
-8.71816e-18
-9.79532e-22
-6.02607e-20
-1.57521e-22
6.405e-07
-8.71534e-18
-9.92131e-22
-6.20995e-20
-1.60734e-22
6.60607e-07
-8.7125e-18
-1.00488e-21
-6.3837e-20
-1.64005e-22
6.81064e-07
-8.70953e-18
-1.01779e-21
-6.56007e-20
-1.67335e-22
7.01876e-07
-8.70665e-18
-1.03085e-21
-6.73438e-20
-1.70722e-22
7.23048e-07
-8.70369e-18
-1.04407e-21
-6.91466e-20
-1.74169e-22
7.44584e-07
-8.70107e-18
-1.05744e-21
-7.08178e-20
-1.77676e-22
7.66491e-07
-8.69815e-18
-1.07097e-21
-7.24534e-20
-1.81244e-22
7.88773e-07
-8.6952e-18
-1.08465e-21
-7.4121e-20
-1.84875e-22
8.11434e-07
-8.69224e-18
-1.09848e-21
-7.58604e-20
-1.88569e-22
8.34482e-07
-8.68928e-18
-1.11248e-21
-7.74048e-20
-1.92326e-22
8.57919e-07
-8.68617e-18
-1.12662e-21
-7.91935e-20
-1.96149e-22
8.81753e-07
-8.68308e-18
-1.14092e-21
-8.10075e-20
-2.00037e-22
9.05988e-07
-8.68007e-18
-1.15537e-21
-8.26497e-20
-2.03989e-22
9.30629e-07
-8.67681e-18
-1.16997e-21
-8.4683e-20
-2.08007e-22
9.55683e-07
-8.6733e-18
-1.18472e-21
-8.63698e-20
-2.12093e-22
9.81153e-07
-8.66981e-18
-1.19961e-21
-8.82816e-20
-2.16245e-22
1.00705e-06
-8.66605e-18
-1.21466e-21
-9.03016e-20
-2.20462e-22
1.03337e-06
-8.66241e-18
-1.22984e-21
-9.24839e-20
-2.24746e-22
1.06012e-06
-8.65889e-18
-1.24516e-21
-9.45888e-20
-2.29094e-22
1.08732e-06
-8.65487e-18
-1.26063e-21
-9.63322e-20
-2.33508e-22
1.11496e-06
-8.65088e-18
-1.27622e-21
-9.86186e-20
-2.37992e-22
1.14304e-06
-8.6471e-18
-1.29195e-21
-1.00875e-19
-2.4254e-22
1.17159e-06
-8.64364e-18
-1.3078e-21
-1.02639e-19
-2.47151e-22
1.20059e-06
-8.6402e-18
-1.32376e-21
-1.0448e-19
-2.5183e-22
1.23006e-06
-8.63674e-18
-1.33983e-21
-1.06337e-19
-2.56575e-22
1.26e-06
-8.63309e-18
-1.35602e-21
-1.08249e-19
-2.61383e-22
1.29042e-06
-8.6295e-18
-1.3723e-21
-1.1026e-19
-2.66252e-22
1.32132e-06
-8.62574e-18
-1.38868e-21
-1.12304e-19
-2.71182e-22
1.35271e-06
-8.62232e-18
-1.40514e-21
-1.14316e-19
-2.76168e-22
1.38459e-06
-8.6185e-18
-1.42169e-21
-1.16433e-19
-2.81213e-22
1.41697e-06
-8.61495e-18
-1.4383e-21
-1.18122e-19
-2.86313e-22
1.44985e-06
-8.61089e-18
-1.45497e-21
-1.20144e-19
-2.91468e-22
1.48324e-06
-8.60711e-18
-1.4717e-21
-1.22081e-19
-2.96676e-22
1.51714e-06
-8.60303e-18
-1.48847e-21
-1.24257e-19
-3.01937e-22
1.55156e-06
-8.59889e-18
-1.50527e-21
-1.265e-19
-3.07249e-22
1.5865e-06
-8.59486e-18
-1.5221e-21
-1.28867e-19
-3.1261e-22
1.62196e-06
-8.59056e-18
-1.53894e-21
-1.3109e-19
-3.18018e-22
1.65796e-06
-8.58664e-18
-1.55578e-21
-1.33439e-19
-3.23467e-22
1.69449e-06
-8.58206e-18
-1.5726e-21
-1.36147e-19
-3.28954e-22
1.73157e-06
-8.57809e-18
-1.5894e-21
-1.37953e-19
-3.34478e-22
1.76918e-06
-8.57364e-18
-1.60617e-21
-1.40594e-19
-3.40044e-22
1.80735e-06
-8.56966e-18
-1.62288e-21
-1.42568e-19
-3.45641e-22
1.84606e-06
-8.56512e-18
-1.63953e-21
-1.45191e-19
-3.51274e-22
1.88533e-06
-8.56098e-18
-1.65611e-21
-1.47264e-19
-3.5693e-22
1.92516e-06
-8.55736e-18
-1.6726e-21
-1.49178e-19
-3.62614e-22
1.96555e-06
-8.55371e-18
-1.68898e-21
-1.50733e-19
-3.68323e-22
2.00651e-06
-8.54903e-18
-1.70524e-21
-1.52834e-19
-3.74061e-22
2.04804e-06
-8.54423e-18
-1.72138e-21
-1.55116e-19
-3.79818e-22
2.09013e-06
-8.54004e-18
-1.73738e-21
-1.57075e-19
-3.85591e-22
2.13281e-06
-8.5353e-18
-1.75323e-21
-1.59586e-19
-3.91385e-22
2.17606e-06
-8.53076e-18
-1.76892e-21
-1.61509e-19
-3.97199e-22
2.21989e-06
-8.52576e-18
-1.78444e-21
-1.64471e-19
-4.03019e-22
2.2643e-06
-8.52148e-18
-1.79978e-21
-1.66455e-19
-4.08831e-22
2.30929e-06
-8.51655e-18
-1.81492e-21
-1.68768e-19
-4.14643e-22
2.35488e-06
-8.51204e-18
-1.82986e-21
-1.71097e-19
-4.20456e-22
2.40105e-06
-8.50708e-18
-1.84458e-21
-1.73359e-19
-4.26258e-22
2.44782e-06
-8.50126e-18
-1.85909e-21
-1.75583e-19
-4.32041e-22
2.49517e-06
-8.49619e-18
-1.87338e-21
-1.77944e-19
-4.37795e-22
2.54312e-06
-8.4913e-18
-1.88745e-21
-1.80717e-19
-4.43518e-22
2.59167e-06
-8.48623e-18
-1.90128e-21
-1.83393e-19
-4.49212e-22
2.64082e-06
-8.48108e-18
-1.91487e-21
-1.86076e-19
-4.54866e-22
2.69056e-06
-8.47575e-18
-1.92821e-21
-1.88048e-19
-4.60473e-22
2.74091e-06
-8.47074e-18
-1.94129e-21
-1.90397e-19
-4.6604e-22
2.79186e-06
-8.46526e-18
-1.9541e-21
-1.92913e-19
-4.71564e-22
2.84341e-06
-8.46023e-18
-1.96663e-21
-1.95679e-19
-4.77044e-22
2.89556e-06
-8.45367e-18
-1.97888e-21
-1.98455e-19
-4.82465e-22
2.94832e-06
-8.44892e-18
-1.99086e-21
-2.00768e-19
-4.87829e-22
3.00169e-06
-8.44339e-18
-2.00254e-21
-2.03467e-19
-4.93146e-22
3.05567e-06
-8.43751e-18
-2.01394e-21
-2.06999e-19
-4.98401e-22
3.11025e-06
-8.43176e-18
-2.02504e-21
-2.0937e-19
-5.03587e-22
3.16545e-06
-8.42613e-18
-2.03585e-21
-2.1212e-19
-5.08732e-22
3.22126e-06
-8.42063e-18
-2.04637e-21
-2.15006e-19
-5.13819e-22
3.27768e-06
-8.41551e-18
-2.05659e-21
-2.17055e-19
-5.18837e-22
3.33471e-06
-8.40972e-18
-2.06651e-21
-2.20218e-19
-5.23799e-22
3.39236e-06
-8.40405e-18
-2.07616e-21
-2.23435e-19
-5.28711e-22
3.45063e-06
-8.39823e-18
-2.08551e-21
-2.26276e-19
-5.3356e-22
3.50951e-06
-8.39311e-18
-2.09456e-21
-2.29575e-19
-5.38353e-22
3.56901e-06
-8.3871e-18
-2.10333e-21
-2.32952e-19
-5.43066e-22
3.62913e-06
-8.38102e-18
-2.11181e-21
-2.36272e-19
-5.47724e-22
3.68987e-06
-8.37569e-18
-2.12002e-21
-2.39279e-19
-5.52327e-22
3.75124e-06
-8.3692e-18
-2.12796e-21
-2.42334e-19
-5.56872e-22
3.81323e-06
-8.36328e-18
-2.13566e-21
-2.45699e-19
-5.61348e-22
3.87585e-06
-8.3576e-18
-2.14311e-21
-2.48129e-19
-5.65758e-22
3.93909e-06
-8.35287e-18
-2.15032e-21
-2.50759e-19
-5.70123e-22
4.00296e-06
-8.34686e-18
-2.15726e-21
-2.54196e-19
-5.74432e-22
4.06747e-06
-8.34061e-18
-2.16395e-21
-2.57776e-19
-5.78673e-22
4.13261e-06
-8.33452e-18
-2.17042e-21
-2.614e-19
-5.82845e-22
4.19838e-06
-8.32847e-18
-2.17662e-21
-2.64697e-19
-5.86971e-22
4.26479e-06
-8.32307e-18
-2.18259e-21
-2.67772e-19
-5.91053e-22
4.33184e-06
-8.31738e-18
-2.18833e-21
-2.70585e-19
-5.95094e-22
4.39953e-06
-8.31162e-18
-2.19385e-21
-2.74008e-19
-5.99098e-22
4.46786e-06
-8.30627e-18
-2.19913e-21
-2.77275e-19
-6.03042e-22
4.53685e-06
-8.30052e-18
-2.20419e-21
-2.79059e-19
-6.06931e-22
4.60648e-06
-8.29556e-18
-2.20904e-21
-2.81062e-19
-6.10803e-22
4.67676e-06
-8.29008e-18
-2.21366e-21
-2.83257e-19
-6.14633e-22
4.7477e-06
-8.28386e-18
-2.21804e-21
-2.85365e-19
-6.1842e-22
4.81929e-06
-8.27764e-18
-2.22222e-21
-2.88141e-19
-6.22184e-22
4.89154e-06
-8.27174e-18
-2.2262e-21
-2.9053e-19
-6.25946e-22
4.96446e-06
-8.26619e-18
-2.22998e-21
-2.92705e-19
-6.2968e-22
5.03805e-06
-8.25982e-18
-2.23356e-21
-2.94358e-19
-6.33412e-22
5.1123e-06
-8.25382e-18
-2.23695e-21
-2.96718e-19
-6.37157e-22
5.18722e-06
-8.24742e-18
-2.24016e-21
-2.99057e-19
-6.4089e-22
5.26283e-06
-8.24139e-18
-2.24321e-21
-3.02013e-19
-6.44621e-22
5.33911e-06
-8.23588e-18
-2.24609e-21
-3.04312e-19
-6.48334e-22
5.41607e-06
-8.23006e-18
-2.24879e-21
-3.06536e-19
-6.5202e-22
5.49372e-06
-8.22489e-18
-2.25136e-21
-3.08668e-19
-6.5563e-22
5.57207e-06
-8.21883e-18
-2.25382e-21
-3.09034e-19
-6.59182e-22
5.6511e-06
-8.21175e-18
-2.25619e-21
-3.11788e-19
-6.62736e-22
5.73084e-06
-8.20563e-18
-2.25849e-21
-3.14478e-19
-6.66224e-22
5.81127e-06
-8.19942e-18
-2.26072e-21
-3.17772e-19
-6.69596e-22
5.89242e-06
-8.1926e-18
-2.26284e-21
-3.19293e-19
-6.72886e-22
5.97427e-06
-8.18673e-18
-2.26486e-21
-3.22274e-19
-6.76102e-22
6.05684e-06
-8.17997e-18
-2.26681e-21
-3.25209e-19
-6.79251e-22
6.14012e-06
-8.17529e-18
-2.2687e-21
-3.28599e-19
-6.82341e-22
6.22413e-06
-8.16874e-18
-2.27049e-21
-3.30577e-19
-6.85342e-22
6.30887e-06
-8.16155e-18
-2.27221e-21
-3.33e-19
-6.88311e-22
6.39434e-06
-8.15463e-18
-2.27389e-21
-3.36167e-19
-6.91246e-22
6.48055e-06
-8.14811e-18
-2.27553e-21
-3.39685e-19
-6.9412e-22
6.5675e-06
-8.14235e-18
-2.2771e-21
-3.40857e-19
-6.96952e-22
6.65519e-06
-8.13609e-18
-2.27857e-21
-3.43666e-19
-6.99803e-22
6.74364e-06
-8.13026e-18
-2.27996e-21
-3.46124e-19
-7.02655e-22
6.83284e-06
-8.12397e-18
-2.28125e-21
-3.47438e-19
-7.05441e-22
6.9228e-06
-8.11838e-18
-2.28251e-21
-3.49155e-19
-7.08198e-22
7.01353e-06
-8.11159e-18
-2.28365e-21
-3.52128e-19
-7.10911e-22
7.10503e-06
-8.10579e-18
-2.28476e-21
-3.54905e-19
-7.13556e-22
7.19731e-06
-8.09966e-18
-2.28583e-21
-3.58155e-19
-7.16111e-22
7.29037e-06
-8.093e-18
-2.28686e-21
-3.61827e-19
-7.18545e-22
7.38421e-06
-8.08604e-18
-2.28782e-21
-3.6594e-19
-7.20946e-22
7.47885e-06
-8.08155e-18
-2.28881e-21
-3.698e-19
-7.2321e-22
7.57428e-06
-8.07484e-18
-2.28974e-21
-3.72879e-19
-7.25316e-22
7.67052e-06
-8.06888e-18
-2.29066e-21
-3.75634e-19
-7.27337e-22
7.76756e-06
-8.06327e-18
-2.2915e-21
-3.78384e-19
-7.29299e-22
7.86542e-06
-8.05565e-18
-2.29231e-21
-3.82549e-19
-7.31175e-22
7.9641e-06
-8.05006e-18
-2.29311e-21
-3.85813e-19
-7.32944e-22
8.0636e-06
-8.04505e-18
-2.29386e-21
-3.89009e-19
-7.34651e-22
8.16394e-06
-8.03993e-18
-2.2946e-21
-3.90563e-19
-7.36305e-22
8.26511e-06
-8.03398e-18
-2.29528e-21
-3.92067e-19
-7.37924e-22
8.36712e-06
-8.03029e-18
-2.29595e-21
-3.94917e-19
-7.39462e-22
8.46998e-06
-8.02365e-18
-2.29655e-21
-3.9663e-19
-7.40926e-22
8.57369e-06
-8.01784e-18
-2.29717e-21
-3.98692e-19
-7.42304e-22
8.67827e-06
-8.01176e-18
-2.2978e-21
-4.02499e-19
-7.43588e-22
8.78371e-06
-8.00433e-18
-2.29836e-21
-4.04321e-19
-7.44735e-22
8.89002e-06
-7.99922e-18
-2.29892e-21
-4.08217e-19
-7.45776e-22
8.99722e-06
-7.99232e-18
-2.29944e-21
-4.09488e-19
-7.46626e-22
9.10529e-06
-7.98648e-18
-2.29997e-21
-4.12904e-19
-7.47366e-22
9.21426e-06
-7.97994e-18
-2.30045e-21
-4.16395e-19
-7.48041e-22
9.32413e-06
-7.97288e-18
-2.30093e-21
-4.19906e-19
-7.4867e-22
9.43489e-06
-7.96594e-18
-2.3015e-21
-4.23149e-19
-7.49048e-22
9.54657e-06
-7.9603e-18
-2.30212e-21
-4.25656e-19
-7.49244e-22
9.65917e-06
-7.9536e-18
-2.30271e-21
-4.27788e-19
-7.49362e-22
9.77268e-06
-7.94694e-18
-2.30337e-21
-4.28946e-19
-7.49381e-22
9.88713e-06
-7.94274e-18
-2.30402e-21
-4.33671e-19
-7.49341e-22
1.00025e-05
-7.93711e-18
-2.30465e-21
-4.36951e-19
-7.49056e-22
1.01188e-05
-7.93105e-18
-2.30528e-21
-4.41883e-19
-7.48725e-22
1.02361e-05
-7.92475e-18
-2.30591e-21
-4.46661e-19
-7.48116e-22
1.03543e-05
-7.91985e-18
-2.30657e-21
-4.50077e-19
-7.47219e-22
1.04735e-05
-7.91367e-18
-2.30717e-21
-4.53759e-19
-7.463e-22
1.05937e-05
-7.90797e-18
-2.30772e-21
-4.59163e-19
-7.45338e-22
1.07148e-05
-7.90268e-18
-2.30823e-21
-4.63415e-19
-7.44299e-22
1.0837e-05
-7.89657e-18
-2.30864e-21
-4.6639e-19
-7.43229e-22
1.09601e-05
-7.89151e-18
-2.30898e-21
-4.72055e-19
-7.42172e-22
1.10842e-05
-7.88477e-18
-2.30921e-21
-4.77988e-19
-7.40927e-22
1.12093e-05
-7.8787e-18
-2.30935e-21
-4.82304e-19
-7.39546e-22
1.13354e-05
-7.8732e-18
-2.30945e-21
-4.87929e-19
-7.38032e-22
1.14626e-05
-7.8689e-18
-2.30946e-21
-4.89715e-19
-7.36283e-22
1.15907e-05
-7.86158e-18
-2.30937e-21
-4.91531e-19
-7.34644e-22
1.17199e-05
-7.85482e-18
-2.30932e-21
-4.94682e-19
-7.33151e-22
1.18502e-05
-7.84661e-18
-2.30939e-21
-5.01014e-19
-7.3149e-22
1.19815e-05
-7.84017e-18
-2.30957e-21
-5.0311e-19
-7.29421e-22
1.21138e-05
-7.83353e-18
-2.30975e-21
-5.06684e-19
-7.27328e-22
1.22472e-05
-7.82709e-18
-2.31015e-21
-5.10312e-19
-7.25013e-22
1.23817e-05
-7.82104e-18
-2.31082e-21
-5.12828e-19
-7.22383e-22
1.25172e-05
-7.81478e-18
-2.31168e-21
-5.15982e-19
-7.19675e-22
1.26539e-05
-7.80777e-18
-2.31262e-21
-5.17221e-19
-7.168e-22
1.27916e-05
-7.8004e-18
-2.31385e-21
-5.20274e-19
-7.13647e-22
1.29305e-05
-7.79353e-18
-2.31528e-21
-5.24091e-19
-7.10225e-22
1.30704e-05
-7.79012e-18
-2.31693e-21
-5.25896e-19
-7.06415e-22
1.32115e-05
-7.78303e-18
-2.31854e-21
-5.27213e-19
-7.02339e-22
1.33536e-05
-7.7744e-18
-2.32032e-21
-5.31306e-19
-6.98173e-22
1.3497e-05
-7.76825e-18
-2.3224e-21
-5.33638e-19
-6.9353e-22
1.36414e-05
-7.76185e-18
-2.32456e-21
-5.37687e-19
-6.8881e-22
1.3787e-05
-7.75276e-18
-2.32688e-21
-5.4281e-19
-6.83848e-22
1.39338e-05
-7.74865e-18
-2.32951e-21
-5.44074e-19
-6.78744e-22
1.40817e-05
-7.74341e-18
-2.3322e-21
-5.4501e-19
-6.73723e-22
1.42308e-05
-7.73881e-18
-2.3351e-21
-5.45702e-19
-6.68488e-22
1.43811e-05
-7.73623e-18
-2.33796e-21
-5.48184e-19
-6.63216e-22
1.45325e-05
-7.73139e-18
-2.34064e-21
-5.48911e-19
-6.58033e-22
1.46852e-05
-7.72616e-18
-2.34356e-21
-5.5025e-19
-6.52935e-22
1.4839e-05
-7.72029e-18
-2.3469e-21
-5.52839e-19
-6.47628e-22
1.49941e-05
-7.7144e-18
-2.35038e-21
-5.53121e-19
-6.42116e-22
1.51504e-05
-7.70876e-18
-2.35418e-21
-5.55318e-19
-6.36624e-22
1.53079e-05
-7.70961e-18
-2.35808e-21
-5.59801e-19
-6.30954e-22
1.54667e-05
-7.70429e-18
-2.36158e-21
-5.62153e-19
-6.25213e-22
1.56267e-05
-7.7006e-18
-2.36541e-21
-5.66836e-19
-6.19446e-22
1.5788e-05
-7.70006e-18
-2.3693e-21
-5.71217e-19
-6.13351e-22
1.59505e-05
-7.69366e-18
-2.37302e-21
-5.70961e-19
-6.06869e-22
1.61144e-05
-7.69059e-18
-2.37665e-21
-5.75929e-19
-6.00753e-22
1.62795e-05
-7.68303e-18
-2.38017e-21
-5.76547e-19
-5.94633e-22
1.64458e-05
-7.67914e-18
-2.38407e-21
-5.81617e-19
-5.88361e-22
1.66135e-05
-7.67267e-18
-2.38774e-21
-5.86896e-19
-5.8231e-22
1.67825e-05
-7.66913e-18
-2.39139e-21
-5.92176e-19
-5.76442e-22
1.69528e-05
-7.66499e-18
-2.39521e-21
-5.94217e-19
-5.70585e-22
1.71245e-05
-7.66016e-18
-2.39895e-21
-5.99051e-19
-5.65084e-22
1.72975e-05
-7.65293e-18
-2.40246e-21
-6.00575e-19
-5.59426e-22
1.74718e-05
-7.64995e-18
-2.406e-21
-6.06912e-19
-5.53496e-22
1.76475e-05
-7.64178e-18
-2.40935e-21
-6.11273e-19
-5.47149e-22
1.78245e-05
-7.63556e-18
-2.41299e-21
-6.1671e-19
-5.40617e-22
1.8003e-05
-7.63017e-18
-2.41675e-21
-6.23727e-19
-5.33752e-22
1.81828e-05
-7.62249e-18
-2.42037e-21
-6.28976e-19
-5.26314e-22
1.8364e-05
-7.6157e-18
-2.42405e-21
-6.34994e-19
-5.18365e-22
1.85466e-05
-7.60703e-18
-2.42789e-21
-6.41125e-19
-5.10355e-22
1.87306e-05
-7.60015e-18
-2.43198e-21
-6.47034e-19
-5.02104e-22
1.8916e-05
-7.59495e-18
-2.43637e-21
-6.55831e-19
-4.93876e-22
1.91029e-05
-7.58679e-18
-2.44109e-21
-6.62675e-19
-4.84968e-22
1.92912e-05
-7.57789e-18
-2.44634e-21
-6.69746e-19
-4.75912e-22
1.9481e-05
-7.56966e-18
-2.45237e-21
-6.76162e-19
-4.66607e-22
1.96722e-05
-7.56624e-18
-2.45881e-21
-6.78746e-19
-4.57206e-22
1.9865e-05
-7.55447e-18
-2.465e-21
-6.90821e-19
-4.48225e-22
2.00591e-05
-7.54528e-18
-2.47192e-21
-7.01155e-19
-4.38532e-22
2.02548e-05
-7.53621e-18
-2.47878e-21
-7.06848e-19
-4.28027e-22
2.0452e-05
-7.526e-18
-2.48608e-21
-7.14051e-19
-4.17592e-22
2.06507e-05
-7.52157e-18
-2.49345e-21
-7.20402e-19
-4.0713e-22
2.08509e-05
-7.51104e-18
-2.50064e-21
-7.29237e-19
-3.96674e-22
2.10527e-05
-7.50227e-18
-2.50808e-21
-7.37733e-19
-3.85624e-22
2.1256e-05
-7.49193e-18
-2.51535e-21
-7.46806e-19
-3.74674e-22
2.14608e-05
-7.48358e-18
-2.52246e-21
-7.54837e-19
-3.64084e-22
2.16673e-05
-7.47127e-18
-2.5297e-21
-7.68229e-19
-3.53282e-22
2.18753e-05
-7.46424e-18
-2.53715e-21
-7.79807e-19
-3.4222e-22
2.20848e-05
-7.45845e-18
-2.54411e-21
-7.85174e-19
-3.31001e-22
2.2296e-05
-7.44688e-18
-2.55165e-21
-7.92525e-19
-3.19621e-22
2.25088e-05
-7.43557e-18
-2.56039e-21
-8.05488e-19
-3.07207e-22
2.27232e-05
-7.42902e-18
-2.56972e-21
-8.07945e-19
-2.93754e-22
2.29393e-05
-7.42418e-18
-2.57938e-21
-8.12409e-19
-2.8002e-22
2.3157e-05
-7.42011e-18
-2.58913e-21
-8.15395e-19
-2.65091e-22
2.33763e-05
-7.41061e-18
-2.59916e-21
-8.17629e-19
-2.49993e-22
2.35973e-05
-7.40364e-18
-2.60998e-21
-8.21608e-19
-2.3459e-22
2.382e-05
-7.39952e-18
-2.62155e-21
-8.26288e-19
-2.18185e-22
2.40444e-05
-7.39152e-18
-2.6332e-21
-8.33253e-19
-2.01553e-22
2.42705e-05
-7.38516e-18
-2.64549e-21
-8.37088e-19
-1.84422e-22
2.44983e-05
-7.37867e-18
-2.65849e-21
-8.43026e-19
-1.67748e-22
2.47278e-05
-7.37027e-18
-2.67162e-21
-8.4762e-19
-1.51054e-22
2.4959e-05
-7.36254e-18
-2.68521e-21
-8.54148e-19
-1.34292e-22
2.5192e-05
-7.36198e-18
-2.6994e-21
-8.59522e-19
-1.17316e-22
2.54267e-05
-7.35953e-18
-2.71231e-21
-8.61755e-19
-1.01441e-22
2.56633e-05
-7.34973e-18
-2.72463e-21
-8.67812e-19
-8.5661e-23
2.59016e-05
-7.33994e-18
-2.73755e-21
-8.75483e-19
-6.9831e-23
2.61417e-05
-7.33111e-18
-2.75053e-21
-8.81561e-19
-5.40955e-23
2.63836e-05
-7.32378e-18
-2.76436e-21
-8.84577e-19
-3.86066e-23
2.66273e-05
-7.31269e-18
-2.77836e-21
-8.90695e-19
-2.35261e-23
2.68728e-05
-7.30273e-18
-2.79272e-21
-9.00419e-19
-8.19873e-24
2.71202e-05
-7.29322e-18
-2.80776e-21
-9.0859e-19
7.39075e-24
2.73695e-05
-7.28288e-18
-2.82362e-21
-9.15346e-19
2.41635e-23
2.76206e-05
-7.27089e-18
-2.8403e-21
-9.23255e-19
4.08855e-23
2.78736e-05
-7.26218e-18
-2.858e-21
-9.27981e-19
5.69027e-23
2.81285e-05
-7.2505e-18
-2.87658e-21
-9.37314e-19
7.23534e-23
2.83853e-05
-7.23883e-18
-2.89547e-21
-9.47659e-19
8.82868e-23
2.8644e-05
-7.22534e-18
-2.91555e-21
-9.55916e-19
1.05818e-22
2.89047e-05
-7.21305e-18
-2.93758e-21
-9.6718e-19
1.22828e-22
2.91673e-05
-7.20229e-18
-2.96098e-21
-9.72392e-19
1.40007e-22
2.94318e-05
-7.19925e-18
-2.98546e-21
-9.75913e-19
1.56177e-22
2.96984e-05
-7.19151e-18
-3.00963e-21
-9.85533e-19
1.71361e-22
2.99669e-05
-7.17824e-18
-3.03449e-21
-9.98712e-19
1.85951e-22
3.02374e-05
-7.16733e-18
-3.06e-21
-1.00336e-18
2.0055e-22
3.05099e-05
-7.15605e-18
-3.08705e-21
-1.01423e-18
2.15297e-22
3.07845e-05
-7.14398e-18
-3.1156e-21
-1.02283e-18
2.30468e-22
3.10611e-05
-7.12911e-18
-3.1441e-21
-1.03169e-18
2.4551e-22
3.13397e-05
-7.11914e-18
-3.17284e-21
-1.04134e-18
2.59902e-22
3.16205e-05
-7.10534e-18
-3.20117e-21
-1.05703e-18
2.74563e-22
3.19033e-05
-7.09226e-18
-3.23032e-21
-1.06644e-18
2.89112e-22
3.21882e-05
-7.07793e-18
-3.26075e-21
-1.07976e-18
3.0163e-22
3.24752e-05
-7.0644e-18
-3.2913e-21
-1.09824e-18
3.12171e-22
3.27643e-05
-7.0556e-18
-3.3224e-21
-1.10631e-18
3.21365e-22
3.30556e-05
-7.03806e-18
-3.35223e-21
-1.12239e-18
3.30171e-22
3.3349e-05
-7.02341e-18
-3.38455e-21
-1.13526e-18
3.41065e-22
3.36446e-05
-7.00677e-18
-3.41861e-21
-1.14253e-18
3.52686e-22
3.39423e-05
-6.99359e-18
-3.45345e-21
-1.16004e-18
3.64785e-22
3.42423e-05
-6.97661e-18
-3.48823e-21
-1.17692e-18
3.77861e-22
3.45445e-05
-6.96097e-18
-3.52327e-21
-1.18962e-18
3.91829e-22
3.48489e-05
-6.94121e-18
-3.55721e-21
-1.20901e-18
4.05654e-22
3.51555e-05
-6.92237e-18
-3.59159e-21
-1.22231e-18
4.19029e-22
3.54644e-05
-6.90413e-18
-3.62648e-21
-1.23981e-18
4.30824e-22
3.57756e-05
-6.88315e-18
-3.6624e-21
-1.25818e-18
4.43112e-22
3.6089e-05
-6.86919e-18
-3.70276e-21
-1.2782e-18
4.56938e-22
3.64047e-05
-6.84717e-18
-3.74006e-21
-1.29561e-18
4.7021e-22
3.67228e-05
-6.82965e-18
-3.77861e-21
-1.30911e-18
4.82411e-22
3.70432e-05
-6.81913e-18
-3.81746e-21
-1.31541e-18
4.91949e-22
3.73659e-05
-6.80832e-18
-3.85491e-21
-1.31581e-18
4.96959e-22
3.7691e-05
-6.80469e-18
-3.89322e-21
-1.32395e-18
5.0046e-22
3.80185e-05
-6.7967e-18
-3.92957e-21
-1.33289e-18
5.03306e-22
3.83484e-05
-6.78581e-18
-3.96572e-21
-1.33843e-18
5.09165e-22
3.86807e-05
-6.77186e-18
-4.00543e-21
-1.3433e-18
5.15598e-22
3.90154e-05
-6.76071e-18
-4.04985e-21
-1.34624e-18
5.23415e-22
3.93525e-05
-6.74982e-18
-4.09463e-21
-1.34549e-18
5.30407e-22
3.96921e-05
-6.73973e-18
-4.13768e-21
-1.34921e-18
5.37542e-22
4.00342e-05
-6.72764e-18
-4.18272e-21
-1.3598e-18
5.45448e-22
4.03788e-05
-6.71775e-18
-4.22927e-21
-1.35993e-18
5.57605e-22
4.07259e-05
-6.70677e-18
-4.27359e-21
-1.37088e-18
5.69577e-22
4.10755e-05
-6.68965e-18
-4.32138e-21
-1.38102e-18
5.82009e-22
4.14276e-05
-6.67789e-18
-4.37182e-21
-1.38751e-18
5.95797e-22
4.17823e-05
-6.66202e-18
-4.42168e-21
-1.39931e-18
6.07438e-22
4.21396e-05
-6.64486e-18
-4.47507e-21
-1.40999e-18
6.20101e-22
4.24994e-05
-6.63099e-18
-4.53005e-21
-1.41561e-18
6.33223e-22
4.28619e-05
-6.62099e-18
-4.58894e-21
-1.42014e-18
6.4576e-22
4.3227e-05
-6.60117e-18
-4.64324e-21
-1.4342e-18
6.54131e-22
4.35947e-05
-6.58898e-18
-4.69869e-21
-1.44731e-18
6.59545e-22
4.39651e-05
-6.56643e-18
-4.75217e-21
-1.46005e-18
6.68388e-22
4.43381e-05
-6.55092e-18
-4.80458e-21
-1.46921e-18
6.75935e-22
4.47139e-05
-6.53134e-18
-4.85424e-21
-1.48706e-18
6.81214e-22
4.50923e-05
-6.50615e-18
-4.90205e-21
-1.49741e-18
6.86572e-22
4.54735e-05
-6.49896e-18
-4.94845e-21
-1.51169e-18
6.86903e-22
4.58575e-05
-6.48042e-18
-4.98869e-21
-1.52374e-18
6.86226e-22
4.62442e-05
-6.4692e-18
-5.02681e-21
-1.53163e-18
6.8149e-22
4.66336e-05
-6.4575e-18
-5.06632e-21
-1.54853e-18
6.76368e-22
4.70259e-05
-6.44091e-18
-5.10371e-21
-1.56198e-18
6.72431e-22
4.7421e-05
-6.4271e-18
-5.14338e-21
-1.58267e-18
6.64485e-22
4.78189e-05
-6.40518e-18
-5.18257e-21
-1.59555e-18
6.54769e-22
4.82197e-05
-6.38593e-18
-5.22616e-21
-1.6159e-18
6.4621e-22
4.86233e-05
-6.36958e-18
-5.27744e-21
-1.63042e-18
6.43025e-22
4.90298e-05
-6.34842e-18
-5.33464e-21
-1.6512e-18
6.38254e-22
4.94393e-05
-6.33176e-18
-5.39724e-21
-1.67324e-18
6.32717e-22
4.98516e-05
-6.31258e-18
-5.45726e-21
-1.68572e-18
6.27573e-22
5.0267e-05
-6.28175e-18
-5.51871e-21
-1.71052e-18
6.18228e-22
5.06852e-05
-6.24649e-18
-5.58026e-21
-1.73835e-18
6.07775e-22
5.11065e-05
-6.22931e-18
-5.64679e-21
-1.74837e-18
5.98605e-22
5.15307e-05
-6.2122e-18
-5.71069e-21
-1.77378e-18
5.82608e-22
5.1958e-05
-6.19481e-18
-5.77314e-21
-1.78804e-18
5.6598e-22
5.23883e-05
-6.16577e-18
-5.83697e-21
-1.80519e-18
5.44029e-22
5.28216e-05
-6.14114e-18
-5.90453e-21
-1.82277e-18
5.20666e-22
5.32581e-05
-6.11575e-18
-5.97383e-21
-1.85091e-18
4.94892e-22
5.36976e-05
-6.08934e-18
-6.05059e-21
-1.87941e-18
4.68594e-22
5.41403e-05
-6.06627e-18
-6.13027e-21
-1.90188e-18
4.40786e-22
5.4586e-05
-6.05066e-18
-6.21783e-21
-1.91209e-18
4.08414e-22
5.5035e-05
-6.03277e-18
-6.30965e-21
-1.91891e-18
3.77459e-22
5.54871e-05
-6.01535e-18
-6.40465e-21
-1.92965e-18
3.38333e-22
5.59424e-05
-6.00114e-18
-6.50451e-21
-1.93641e-18
2.93142e-22
5.64008e-05
-5.99355e-18
-6.60598e-21
-1.94813e-18
2.45921e-22
5.68626e-05
-5.97242e-18
-6.70275e-21
-1.96669e-18
1.91178e-22
5.73276e-05
-5.95215e-18
-6.80569e-21
-1.97951e-18
1.33716e-22
5.77958e-05
-5.93225e-18
-6.91185e-21
-1.99992e-18
7.41828e-23
5.82674e-05
-5.91823e-18
-7.01659e-21
-2.01481e-18
1.74265e-23
5.87422e-05
-5.90416e-18
-7.12108e-21
-2.02763e-18
-4.63562e-23
5.92204e-05
-5.87398e-18
-7.22115e-21
-2.04229e-18
-1.15544e-22
5.97019e-05
-5.85221e-18
-7.32574e-21
-2.05048e-18
-1.8091e-22
6.01868e-05
-5.8269e-18
-7.42678e-21
-2.07083e-18
-2.41843e-22
6.06751e-05
-5.79929e-18
-7.52704e-21
-2.09357e-18
-3.02982e-22
6.11668e-05
-5.76483e-18
-7.62453e-21
-2.13014e-18
-3.61426e-22
6.16619e-05
-5.74437e-18
-7.7255e-21
-2.15369e-18
-4.07389e-22
6.21605e-05
-5.68183e-18
-7.82601e-21
-2.20554e-18
-4.39364e-22
6.26625e-05
-5.6905e-18
-7.94083e-21
-2.19608e-18
-4.49707e-22
6.31681e-05
-5.67035e-18
-8.03243e-21
-2.19854e-18
-4.58184e-22
6.36771e-05
-5.65904e-18
-8.12378e-21
-2.19574e-18
-4.5928e-22
6.41897e-05
-5.64087e-18
-8.21775e-21
-2.19602e-18
-4.66902e-22
6.47058e-05
-5.62172e-18
-8.30552e-21
-2.21248e-18
-4.69401e-22
6.52255e-05
-5.59762e-18
-8.39902e-21
-2.21791e-18
-4.62713e-22
6.57488e-05
-5.57532e-18
-8.48653e-21
-2.19552e-18
-4.4718e-22
6.62757e-05
-5.55471e-18
-8.58511e-21
-2.21568e-18
-4.37457e-22
6.68062e-05
-5.5343e-18
-8.69361e-21
-2.21406e-18
-4.08545e-22
6.73404e-05
-5.52665e-18
-8.79221e-21
-2.21321e-18
-3.7301e-22
6.78782e-05
-5.50419e-18
-8.89463e-21
-2.23326e-18
-3.48222e-22
6.84198e-05
-5.50741e-18
-8.99629e-21
-2.24248e-18
-3.05239e-22
6.89651e-05
-5.49665e-18
-9.08722e-21
-2.23978e-18
-2.67488e-22
6.95141e-05
-5.49486e-18
-9.16406e-21
-2.23416e-18
-2.4747e-22
7.00668e-05
-5.46212e-18
-9.22636e-21
-2.25223e-18
-2.39561e-22
7.06234e-05
-5.43589e-18
-9.30991e-21
-2.24375e-18
-2.27135e-22
7.11837e-05
-5.44565e-18
-9.40731e-21
-2.23434e-18
-2.36919e-22
7.17479e-05
-5.41925e-18
-9.47107e-21
-2.24118e-18
-2.6216e-22
7.23159e-05
-5.39091e-18
-9.53316e-21
-2.25299e-18
-2.76771e-22
7.28877e-05
-5.36525e-18
-9.59027e-21
-2.28009e-18
-2.90363e-22
7.34635e-05
-5.33141e-18
-9.64344e-21
-2.29537e-18
-3.05128e-22
7.40431e-05
-5.30983e-18
-9.70775e-21
-2.30958e-18
-3.03586e-22
7.46267e-05
-5.27255e-18
-9.78746e-21
-2.30233e-18
-2.95481e-22
7.52142e-05
-5.24951e-18
-9.89437e-21
-2.33135e-18
-3.21088e-22
7.58057e-05
-5.24553e-18
-9.97893e-21
-2.34026e-18
-3.33254e-22
7.64011e-05
-5.22952e-18
-1.00255e-20
-2.35737e-18
-3.5096e-22
7.70006e-05
-5.20858e-18
-1.00599e-20
-2.37229e-18
-3.61916e-22
7.76041e-05
-5.19373e-18
-1.00741e-20
-2.40052e-18
-3.70844e-22
7.82117e-05
-5.16898e-18
-1.00826e-20
-2.41619e-18
-3.68632e-22
7.88233e-05
-5.13984e-18
-1.00943e-20
-2.40369e-18
-3.84785e-22
7.9439e-05
-5.1332e-18
-1.01041e-20
-2.41236e-18
-4.21513e-22
8.00589e-05
-5.13168e-18
-1.01024e-20
-2.41457e-18
-4.65089e-22
8.06828e-05
-5.11206e-18
-1.0086e-20
-2.43448e-18
-5.15969e-22
8.1311e-05
-5.0671e-18
-1.00636e-20
-2.45386e-18
-5.56696e-22
8.19433e-05
-5.04775e-18
-1.0077e-20
-2.48086e-18
-6.0522e-22
8.25798e-05
-5.02953e-18
-1.0095e-20
-2.47671e-18
-6.33551e-22
8.32205e-05
-4.98319e-18
-1.01035e-20
-2.49202e-18
-6.79809e-22
8.38655e-05
-4.9515e-18
-1.01195e-20
-2.51328e-18
-7.303e-22
8.45147e-05
-4.93054e-18
-1.01685e-20
-2.52732e-18
-7.95757e-22
8.51683e-05
-4.90063e-18
-1.02386e-20
-2.51868e-18
-8.48319e-22
8.58261e-05
-4.90631e-18
-1.03263e-20
-2.54e-18
-9.34859e-22
8.64883e-05
-4.8871e-18
-1.03658e-20
-2.55266e-18
-1.02753e-21
8.71548e-05
-4.84777e-18
-1.04209e-20
-2.57632e-18
-1.1174e-21
8.78257e-05
-4.83109e-18
-1.05019e-20
-2.58879e-18
-1.20135e-21
8.8501e-05
-4.79764e-18
-1.05843e-20
-2.60031e-18
-1.25493e-21
8.91807e-05
-4.80298e-18
-1.06961e-20
-2.58964e-18
-1.30474e-21
8.98649e-05
-4.8062e-18
-1.07407e-20
-2.59765e-18
-1.39385e-21
9.05536e-05
-4.79042e-18
-1.07725e-20
-2.61535e-18
-1.509e-21
9.12467e-05
-4.77153e-18
-1.07995e-20
-2.62484e-18
-1.62085e-21
9.19444e-05
-4.73762e-18
-1.08266e-20
-2.64534e-18
-1.73831e-21
9.26466e-05
-4.74889e-18
-1.0887e-20
-2.6589e-18
-1.83557e-21
9.33534e-05
-4.73133e-18
-1.09089e-20
-2.66015e-18
-1.9353e-21
9.40648e-05
-4.69254e-18
-1.09303e-20
-2.65649e-18
-2.03976e-21
9.47808e-05
-4.69899e-18
-1.09623e-20
-2.66414e-18
-2.14772e-21
9.55015e-05
-4.66136e-18
-1.09677e-20
-2.68447e-18
-2.23727e-21
9.62268e-05
-4.64221e-18
-1.10002e-20
-2.69357e-18
-2.30048e-21
9.69569e-05
-4.62744e-18
-1.10264e-20
-2.6907e-18
-2.3499e-21
9.76917e-05
-4.58968e-18
-1.10577e-20
-2.67595e-18
-2.37928e-21
9.84312e-05
-4.58302e-18
-1.11004e-20
-2.65538e-18
-2.42149e-21
9.91755e-05
-4.56363e-18
-1.11371e-20
-2.6584e-18
-2.47113e-21
9.99247e-05
-4.57724e-18
-1.11879e-20
-2.66348e-18
-2.50827e-21
0.000100679
-4.56012e-18
-1.11877e-20
-2.66512e-18
-2.53866e-21
0.000101438
-4.54395e-18
-1.11845e-20
-2.6427e-18
-2.54965e-21
0.000102201
-4.52463e-18
-1.11869e-20
-2.62912e-18
-2.55756e-21
0.00010297