/*--------------------------------*- C++ -*----------------------------------*\
| =========                 |                                                 |
| \\      /  F ield         | OpenFOAM: The Open Source CFD Toolbox           |
|  \\    /   O peration     | Version:  2012                                  |
|   \\  /    A nd           | Website:  www.openfoam.com                      |
|    \\/     M anipulation  |                                                 |
\*---------------------------------------------------------------------------*/
FoamFile
{
    version     2.0;
    format      ascii;
    class       volVectorField;
    location    "12000";
    object      U;
}
// * * * * * * * * * * * * * * * * * * * * * * * * * * * * * * * * * * * * * //

dimensions      [0 1 -1 0 0 0 0];


internalField   nonuniform List<vector> 
5120
(
(0.00109466 -5.88287e-16 -2.1133e-17)
(0.00109466 -4.12185e-20 -4.0059e-18)
(0.00329179 -5.11059e-15 -8.6347e-17)
(0.00329179 -3.15458e-19 -1.2218e-17)
(0.00550464 -3.70346e-15 -9.02798e-17)
(0.00550464 -6.81736e-19 -1.2394e-17)
(0.00773327 -3.55455e-15 -9.10375e-17)
(0.00773327 -1.07225e-18 -1.25715e-17)
(0.00997769 -3.52271e-15 -9.33129e-17)
(0.00997769 -1.46526e-18 -1.30329e-17)
(0.012238 -3.52724e-15 -9.56788e-17)
(0.012238 -1.86323e-18 -1.35364e-17)
(0.0145141 -3.52802e-15 -9.77279e-17)
(0.0145141 -2.2654e-18 -1.40086e-17)
(0.0168061 -3.5253e-15 -9.97266e-17)
(0.0168061 -2.66969e-18 -1.45116e-17)
(0.0191141 -3.52312e-15 -1.01762e-16)
(0.0191141 -3.07328e-18 -1.50339e-17)
(0.0214381 -3.52196e-15 -1.03836e-16)
(0.0214381 -3.48707e-18 -1.55687e-17)
(0.0237781 -3.52113e-15 -1.05944e-16)
(0.0237781 -3.90188e-18 -1.6115e-17)
(0.0261342 -3.52037e-15 -1.08088e-16)
(0.0261342 -4.32501e-18 -1.66725e-17)
(0.0285063 -3.51965e-15 -1.10266e-16)
(0.0285063 -4.75906e-18 -1.72407e-17)
(0.0308946 -3.51893e-15 -1.12481e-16)
(0.0308946 -5.18309e-18 -1.78194e-17)
(0.0332991 -3.51819e-15 -1.14733e-16)
(0.0332991 -5.61537e-18 -1.84083e-17)
(0.0357198 -3.51745e-15 -1.17021e-16)
(0.0357198 -6.0566e-18 -1.89197e-17)
(0.0381567 -3.51669e-15 -1.19258e-16)
(0.0381567 -6.48946e-18 -1.91758e-17)
(0.0406099 -3.51593e-15 -1.21263e-16)
(0.0406099 -6.9377e-18 -1.94341e-17)
(0.0430794 -3.51514e-15 -1.23297e-16)
(0.0430794 -7.39756e-18 -1.96948e-17)
(0.0455653 -3.51434e-15 -1.25363e-16)
(0.0455653 -7.86084e-18 -1.99578e-17)
(0.0480676 -3.51356e-15 -1.27459e-16)
(0.0480676 -8.33441e-18 -2.02229e-17)
(0.0505863 -3.51275e-15 -1.29587e-16)
(0.0505863 -8.81052e-18 -2.04904e-17)
(0.0531215 -3.51193e-15 -1.31746e-16)
(0.0531215 -9.29865e-18 -2.07599e-17)
(0.0556732 -3.5111e-15 -1.33938e-16)
(0.0556732 -9.79854e-18 -2.10315e-17)
(0.0582415 -3.51027e-15 -1.36163e-16)
(0.0582415 -1.02935e-17 -2.13056e-17)
(0.0608264 -3.50945e-15 -1.38463e-16)
(0.0608264 -1.07845e-17 -2.15819e-17)
(0.063428 -3.5086e-15 -1.41233e-16)
(0.063428 -1.12833e-17 -2.18602e-17)
(0.0660462 -3.50773e-15 -1.44048e-16)
(0.0660462 -1.18114e-17 -2.21402e-17)
(0.0686812 -3.50685e-15 -1.46908e-16)
(0.0686812 -1.23382e-17 -2.24224e-17)
(0.071333 -3.50596e-15 -1.49815e-16)
(0.071333 -1.28679e-17 -2.27068e-17)
(0.0740015 -3.50507e-15 -1.52769e-16)
(0.0740015 -1.34187e-17 -2.29936e-17)
(0.076687 -3.50415e-15 -1.5577e-16)
(0.076687 -1.39524e-17 -2.32823e-17)
(0.0793894 -3.5032e-15 -1.5882e-16)
(0.0793894 -1.4517e-17 -2.35728e-17)
(0.0821087 -3.50224e-15 -1.61919e-16)
(0.0821087 -1.50909e-17 -2.38653e-17)
(0.0848451 -3.50128e-15 -1.65067e-16)
(0.0848451 -1.56723e-17 -2.41597e-17)
(0.0875985 -3.5003e-15 -1.68266e-16)
(0.0875985 -1.62589e-17 -2.44561e-17)
(0.090369 -3.49933e-15 -1.71516e-16)
(0.090369 -1.68501e-17 -2.4754e-17)
(0.0931567 -3.49835e-15 -1.74818e-16)
(0.0931567 -1.74497e-17 -2.50544e-17)
(0.0959616 -3.49735e-15 -1.78172e-16)
(0.0959616 -1.80501e-17 -2.53569e-17)
(0.0987837 -3.49635e-15 -1.81579e-16)
(0.0987837 -1.86389e-17 -2.56612e-17)
(0.101623 -3.49533e-15 -1.8504e-16)
(0.101623 -1.92471e-17 -2.59676e-17)
(0.10448 -3.49428e-15 -1.88556e-16)
(0.10448 -1.98817e-17 -2.62756e-17)
(0.107354 -3.49325e-15 -1.92127e-16)
(0.107354 -2.04855e-17 -2.65856e-17)
(0.110246 -3.49219e-15 -1.95754e-16)
(0.110246 -2.1121e-17 -2.68975e-17)
(0.113155 -3.49112e-15 -1.99437e-16)
(0.113155 -2.17828e-17 -2.72108e-17)
(0.116082 -3.49002e-15 -2.03177e-16)
(0.116082 -2.24226e-17 -2.75256e-17)
(0.119026 -3.48891e-15 -2.06975e-16)
(0.119026 -2.30741e-17 -2.78424e-17)
(0.121989 -3.48782e-15 -2.10831e-16)
(0.121989 -2.37597e-17 -2.81599e-17)
(0.124968 -3.48672e-15 -2.14746e-16)
(0.124968 -2.44585e-17 -2.84791e-17)
(0.127966 -3.48559e-15 -2.18721e-16)
(0.127966 -2.52008e-17 -2.88005e-17)
(0.130981 -3.48445e-15 -2.22755e-16)
(0.130981 -2.58975e-17 -2.91226e-17)
(0.134015 -3.48327e-15 -2.26849e-16)
(0.134015 -2.65602e-17 -2.94448e-17)
(0.137066 -3.4821e-15 -2.31005e-16)
(0.137066 -2.73038e-17 -2.97677e-17)
(0.140135 -3.48098e-15 -2.35221e-16)
(0.140135 -2.7983e-17 -3.00913e-17)
(0.143222 -3.47987e-15 -2.395e-16)
(0.143222 -2.86525e-17 -3.04163e-17)
(0.146327 -3.47871e-15 -2.43841e-16)
(0.146327 -2.93269e-17 -3.0742e-17)
(0.14945 -3.47752e-15 -2.48245e-16)
(0.14945 -2.99573e-17 -3.10686e-17)
(0.152591 -3.47633e-15 -2.52711e-16)
(0.152591 -3.06534e-17 -3.13957e-17)
(0.15575 -3.47512e-15 -2.5724e-16)
(0.15575 -3.13544e-17 -3.17232e-17)
(0.158928 -3.47388e-15 -2.61833e-16)
(0.158928 -3.20191e-17 -3.20507e-17)
(0.162123 -3.47266e-15 -2.66489e-16)
(0.162123 -3.2699e-17 -3.23793e-17)
(0.165337 -3.47141e-15 -2.71209e-16)
(0.165337 -3.34812e-17 -3.27078e-17)
(0.168569 -3.47007e-15 -2.75992e-16)
(0.168569 -3.42243e-17 -3.30371e-17)
(0.171818 -3.46866e-15 -2.80837e-16)
(0.171818 -3.49146e-17 -3.33656e-17)
(0.175086 -3.46721e-15 -2.85746e-16)
(0.175086 -3.57247e-17 -3.36934e-17)
(0.178373 -3.46573e-15 -2.90717e-16)
(0.178373 -3.65591e-17 -3.40205e-17)
(0.181677 -3.4643e-15 -2.9575e-16)
(0.181677 -3.74033e-17 -3.43459e-17)
(0.184999 -3.46279e-15 -3.00846e-16)
(0.184999 -3.81841e-17 -3.46706e-17)
(0.188339 -3.46118e-15 -3.06002e-16)
(0.188339 -3.89808e-17 -3.49955e-17)
(0.191697 -3.45963e-15 -3.1122e-16)
(0.191697 -3.98896e-17 -3.5318e-17)
(0.195074 -3.45818e-15 -3.16496e-16)
(0.195074 -4.07282e-17 -3.56377e-17)
(0.198467 -3.45679e-15 -3.21832e-16)
(0.198467 -4.14524e-17 -3.59561e-17)
(0.201879 -3.45541e-15 -3.27226e-16)
(0.201879 -4.21629e-17 -3.62726e-17)
(0.205308 -3.454e-15 -3.32676e-16)
(0.205308 -4.29239e-17 -3.65876e-17)
(0.208755 -3.45255e-15 -3.38182e-16)
(0.208755 -4.37059e-17 -3.69004e-17)
(0.212219 -3.4511e-15 -3.43742e-16)
(0.212219 -4.45152e-17 -3.72103e-17)
(0.2157 -3.44965e-15 -3.49354e-16)
(0.2157 -4.53285e-17 -3.75157e-17)
(0.219198 -3.4482e-15 -3.55017e-16)
(0.219198 -4.61537e-17 -3.78172e-17)
(0.222713 -3.44673e-15 -3.60729e-16)
(0.222713 -4.68961e-17 -3.81151e-17)
(0.226244 -3.44522e-15 -3.66488e-16)
(0.226244 -4.76705e-17 -3.84086e-17)
(0.229792 -3.44366e-15 -3.72292e-16)
(0.229792 -4.85009e-17 -3.86964e-17)
(0.233357 -3.44207e-15 -3.7814e-16)
(0.233357 -4.91689e-17 -3.89793e-17)
(0.236937 -3.44044e-15 -3.84028e-16)
(0.236937 -5.00656e-17 -3.92568e-17)
(0.240533 -3.4388e-15 -3.89954e-16)
(0.240533 -5.11038e-17 -3.95288e-17)
(0.244144 -3.43713e-15 -3.95916e-16)
(0.244144 -5.20519e-17 -3.97967e-17)
(0.24777 -3.43549e-15 -4.01912e-16)
(0.24777 -5.28471e-17 -4.00582e-17)
(0.251412 -3.43379e-15 -4.07596e-16)
(0.251412 -5.38855e-17 -4.03106e-17)
(0.255067 -3.43209e-15 -4.12891e-16)
(0.255067 -5.48288e-17 -4.05544e-17)
(0.258737 -3.43039e-15 -4.18752e-16)
(0.258737 -5.57501e-17 -4.07915e-17)
(0.26242 -3.4287e-15 -4.24688e-16)
(0.26242 -5.66518e-17 -4.10206e-17)
(0.266116 -3.42699e-15 -4.3064e-16)
(0.266116 -5.74908e-17 -4.12446e-17)
(0.269826 -3.42526e-15 -4.36606e-16)
(0.269826 -5.84635e-17 -4.14583e-17)
(0.273548 -3.42373e-15 -4.42583e-16)
(0.273548 -5.92794e-17 -4.16604e-17)
(0.277281 -3.42227e-15 -4.48568e-16)
(0.277281 -5.9995e-17 -4.18555e-17)
(0.281027 -3.42059e-15 -4.54558e-16)
(0.281027 -6.07441e-17 -4.20448e-17)
(0.284783 -3.4187e-15 -4.60552e-16)
(0.284783 -6.15378e-17 -4.22274e-17)
(0.288549 -3.41692e-15 -4.66542e-16)
(0.288549 -6.2386e-17 -4.23967e-17)
(0.292326 -3.41513e-15 -4.72528e-16)
(0.292326 -6.33938e-17 -4.25553e-17)
(0.296112 -3.41326e-15 -4.78507e-16)
(0.296112 -6.42669e-17 -4.27094e-17)
(0.299907 -3.41135e-15 -4.84478e-16)
(0.299907 -6.51758e-17 -4.28553e-17)
(0.303711 -3.40949e-15 -4.90434e-16)
(0.303711 -6.61628e-17 -4.29838e-17)
(0.307522 -3.40762e-15 -4.96376e-16)
(0.307522 -6.71024e-17 -4.31e-17)
(0.31134 -3.40575e-15 -5.00136e-16)
(0.31134 -6.80464e-17 -4.32056e-17)
(0.315165 -3.40385e-15 -5.01525e-16)
(0.315165 -6.89282e-17 -4.3301e-17)
(0.318996 -3.40168e-15 -5.02843e-16)
(0.318996 -6.98221e-17 -4.33811e-17)
(0.322833 -3.39952e-15 -5.04085e-16)
(0.322833 -7.07057e-17 -4.34439e-17)
(0.326674 -3.39755e-15 -5.05251e-16)
(0.326674 -7.17454e-17 -4.349e-17)
(0.33052 -3.39557e-15 -5.06341e-16)
(0.33052 -7.28458e-17 -4.35273e-17)
(0.334369 -3.39351e-15 -5.07358e-16)
(0.334369 -7.39041e-17 -4.35512e-17)
(0.338221 -3.39144e-15 -5.08302e-16)
(0.338221 -7.48137e-17 -4.35547e-17)
(0.342076 -3.38936e-15 -5.0917e-16)
(0.342076 -7.56275e-17 -4.35452e-17)
(0.345932 -3.38726e-15 -5.09961e-16)
(0.345932 -7.66676e-17 -4.35219e-17)
(0.34979 -3.38518e-15 -5.10675e-16)
(0.34979 -7.7717e-17 -4.3488e-17)
(0.353648 -3.38284e-15 -5.11317e-16)
(0.353648 -7.87785e-17 -4.3436e-17)
(0.357506 -3.38056e-15 -5.11884e-16)
(0.357506 -7.98551e-17 -4.33658e-17)
(0.361364 -3.3785e-15 -5.12374e-16)
(0.361364 -8.08487e-17 -4.32851e-17)
(0.36522 -3.37622e-15 -5.12795e-16)
(0.36522 -8.20562e-17 -4.31897e-17)
(0.369075 -3.3739e-15 -5.1315e-16)
(0.369075 -8.3226e-17 -4.3071e-17)
(0.372927 -3.37161e-15 -5.13429e-16)
(0.372927 -8.44037e-17 -4.29417e-17)
(0.376777 -3.36939e-15 -5.13638e-16)
(0.376777 -8.54487e-17 -4.28025e-17)
(0.380623 -3.36727e-15 -5.13786e-16)
(0.380623 -8.62721e-17 -4.2644e-17)
(0.384466 -3.36507e-15 -5.13865e-16)
(0.384466 -8.75216e-17 -4.24637e-17)
(0.388304 -3.36279e-15 -5.13879e-16)
(0.388304 -8.8768e-17 -4.22767e-17)
(0.392136 -3.36051e-15 -5.13831e-16)
(0.392136 -8.99152e-17 -4.20777e-17)
(0.395964 -3.35828e-15 -5.13726e-16)
(0.395964 -9.11946e-17 -4.18656e-17)
(0.399786 -3.35605e-15 -5.13565e-16)
(0.399786 -9.23918e-17 -4.16285e-17)
(0.403601 -3.35363e-15 -5.1335e-16)
(0.403601 -9.38738e-17 -4.13771e-17)
(0.40741 -3.35132e-15 -5.13077e-16)
(0.40741 -9.51906e-17 -4.11128e-17)
(0.411211 -3.34903e-15 -5.12758e-16)
(0.411211 -9.62868e-17 -4.08399e-17)
(0.415005 -3.34655e-15 -5.12393e-16)
(0.415005 -9.75664e-17 -4.05507e-17)
(0.41879 -3.34419e-15 -5.11982e-16)
(0.41879 -9.87098e-17 -4.02475e-17)
(0.422568 -3.3421e-15 -5.11524e-16)
(0.422568 -9.9749e-17 -3.9938e-17)
(0.426336 -3.34002e-15 -5.11017e-16)
(0.426336 -1.01034e-16 -3.96164e-17)
(0.430095 -3.33756e-15 -5.10469e-16)
(0.430095 -1.02428e-16 -3.92766e-17)
(0.433845 -3.33502e-15 -5.09885e-16)
(0.433845 -1.03746e-16 -3.89222e-17)
(0.437585 -3.33266e-15 -5.09268e-16)
(0.437585 -1.05209e-16 -3.85582e-17)
(0.441315 -3.33031e-15 -5.08614e-16)
(0.441315 -1.06555e-16 -3.81862e-17)
(0.445034 -3.3281e-15 -5.07931e-16)
(0.445034 -1.07599e-16 -3.78092e-17)
(0.448743 -3.32587e-15 -5.07219e-16)
(0.448743 -1.08943e-16 -3.74202e-17)
(0.45244 -3.32356e-15 -5.06473e-16)
(0.45244 -1.10268e-16 -3.70091e-17)
(0.456126 -3.32134e-15 -5.05699e-16)
(0.456126 -1.11168e-16 -3.65821e-17)
(0.459801 -3.31928e-15 -5.04894e-16)
(0.459801 -1.12188e-16 -3.61561e-17)
(0.463465 -3.31719e-15 -5.04063e-16)
(0.463465 -1.12819e-16 -3.57262e-17)
(0.467116 -3.31478e-15 -5.03214e-16)
(0.467116 -1.13604e-16 -3.52807e-17)
(0.470755 -3.31228e-15 -5.02337e-16)
(0.470755 -1.14796e-16 -3.48194e-17)
(0.474382 -3.3099e-15 -5.01439e-16)
(0.474382 -1.15754e-16 -3.43653e-17)
(0.477996 -3.30763e-15 -5.00531e-16)
(0.477996 -1.16573e-16 -3.39057e-17)
(0.481597 -3.30523e-15 -4.99605e-16)
(0.481597 -1.17342e-16 -3.34373e-17)
(0.485186 -3.3027e-15 -4.9865e-16)
(0.485186 -1.18405e-16 -3.29627e-17)
(0.488762 -3.30027e-15 -4.97684e-16)
(0.488762 -1.19141e-16 -3.24845e-17)
(0.492324 -3.29773e-15 -4.96712e-16)
(0.492324 -1.20175e-16 -3.20045e-17)
(0.495874 -3.29535e-15 -4.95735e-16)
(0.495874 -1.21488e-16 -3.15155e-17)
(0.49941 -3.29314e-15 -4.94753e-16)
(0.49941 -1.2218e-16 -3.10237e-17)
(0.502932 -3.29096e-15 -4.93771e-16)
(0.502932 -1.22978e-16 -3.05054e-17)
(0.506441 -3.28871e-15 -4.92777e-16)
(0.506441 -1.23617e-16 -2.99683e-17)
(0.509936 -3.28611e-15 -4.91773e-16)
(0.509936 -1.2425e-16 -2.94497e-17)
(0.513418 -3.2836e-15 -4.90794e-16)
(0.513418 -1.25276e-16 -2.89296e-17)
(0.516885 -3.28108e-15 -4.89836e-16)
(0.516885 -1.26366e-16 -2.83843e-17)
(0.520339 -3.27836e-15 -4.88894e-16)
(0.520339 -1.27321e-16 -2.78199e-17)
(0.523779 -3.27587e-15 -4.87954e-16)
(0.523779 -1.28364e-16 -2.72378e-17)
(0.527205 -3.27336e-15 -4.87031e-16)
(0.527205 -1.29552e-16 -2.66543e-17)
(0.530616 -3.27106e-15 -4.86126e-16)
(0.530616 -1.30659e-16 -2.60691e-17)
(0.534014 -3.26882e-15 -4.85245e-16)
(0.534014 -1.31861e-16 -2.54548e-17)
(0.537397 -3.26607e-15 -4.84371e-16)
(0.537397 -1.32732e-16 -2.48278e-17)
(0.540766 -3.26331e-15 -4.83527e-16)
(0.540766 -1.33782e-16 -2.42076e-17)
(0.544121 -3.26061e-15 -4.82703e-16)
(0.544121 -1.35095e-16 -2.35719e-17)
(0.547462 -3.25808e-15 -4.81901e-16)
(0.547462 -1.36058e-16 -2.29236e-17)
(0.550788 -3.25572e-15 -4.81099e-16)
(0.550788 -1.37083e-16 -2.22795e-17)
(0.554101 -3.25327e-15 -4.80327e-16)
(0.554101 -1.37963e-16 -2.16454e-17)
(0.557398 -3.25083e-15 -4.7958e-16)
(0.557398 -1.38625e-16 -2.09851e-17)
(0.560682 -3.24848e-15 -4.78846e-16)
(0.560682 -1.39322e-16 -2.03231e-17)
(0.563951 -3.246e-15 -4.78119e-16)
(0.563951 -1.40268e-16 -1.96565e-17)
(0.567206 -3.24347e-15 -4.77421e-16)
(0.567206 -1.41378e-16 -1.89865e-17)
(0.570447 -3.24116e-15 -4.76739e-16)
(0.570447 -1.42641e-16 -1.83024e-17)
(0.573673 -3.23853e-15 -4.76085e-16)
(0.573673 -1.43928e-16 -1.75972e-17)
(0.576885 -3.23578e-15 -4.7547e-16)
(0.576885 -1.45697e-16 -1.68992e-17)
(0.580083 -3.23356e-15 -4.74892e-16)
(0.580083 -1.4698e-16 -1.61852e-17)
(0.583266 -3.2313e-15 -4.74349e-16)
(0.583266 -1.48415e-16 -1.54348e-17)
(0.586435 -3.22873e-15 -4.73805e-16)
(0.586435 -1.49803e-16 -1.46693e-17)
(0.58959 -3.22641e-15 -4.73282e-16)
(0.58959 -1.50667e-16 -1.392e-17)
(0.592731 -3.22374e-15 -4.72786e-16)
(0.592731 -1.52479e-16 -1.31607e-17)
(0.595857 -3.22113e-15 -4.72341e-16)
(0.595857 -1.5335e-16 -1.23884e-17)
(0.59897 -3.21903e-15 -4.71924e-16)
(0.59897 -1.54996e-16 -1.15946e-17)
(0.602068 -3.21701e-15 -4.7151e-16)
(0.602068 -1.56312e-16 -1.07955e-17)
(0.605152 -3.21484e-15 -4.71113e-16)
(0.605152 -1.562e-16 -1.00043e-17)
(0.608222 -3.21279e-15 -4.70753e-16)
(0.608222 -1.57383e-16 -9.21413e-18)
(0.611278 -3.21081e-15 -4.70415e-16)
(0.611278 -1.58313e-16 -8.40547e-18)
(0.61432 -3.20843e-15 -4.70099e-16)
(0.61432 -1.59092e-16 -7.58147e-18)
(0.617347 -3.20585e-15 -4.69806e-16)
(0.617347 -1.60198e-16 -6.75689e-18)
(0.620361 -3.20313e-15 -4.69551e-16)
(0.620361 -1.61392e-16 -5.92616e-18)
(0.623361 -3.20079e-15 -4.69308e-16)
(0.623361 -1.62673e-16 -5.08281e-18)
(0.626347 -3.19836e-15 -4.6911e-16)
(0.626347 -1.63387e-16 -4.22631e-18)
(0.629319 -3.19574e-15 -4.68929e-16)
(0.629319 -1.64405e-16 -3.33509e-18)
(0.632277 -3.19325e-15 -4.68788e-16)
(0.632277 -1.65814e-16 -2.47055e-18)
(0.635222 -3.19058e-15 -4.68674e-16)
(0.635222 -1.67403e-16 -1.6243e-18)
(0.638152 -3.18783e-15 -4.68594e-16)
(0.638152 -1.6862e-16 -1.46105e-18)
(0.641069 -3.18516e-15 -4.6856e-16)
(0.641069 -1.69795e-16 -1.48173e-18)
(0.643972 -3.18275e-15 -4.68559e-16)
(0.643972 -1.70523e-16 -1.4812e-18)
(0.646862 -3.18024e-15 -4.6858e-16)
(0.646862 -1.71269e-16 -1.4533e-18)
(0.649737 -3.17799e-15 -4.68604e-16)
(0.649737 -1.72533e-16 -1.45269e-18)
(0.6526 -3.176e-15 -4.6866e-16)
(0.6526 -1.74066e-16 -1.4617e-18)
(0.655448 -3.17365e-15 -4.68728e-16)
(0.655448 -1.76037e-16 -1.49645e-18)
(0.658283 -3.17112e-15 -4.68859e-16)
(0.658283 -1.77465e-16 -1.54401e-18)
(0.661105 -3.16899e-15 -4.69039e-16)
(0.661105 -1.79119e-16 -1.55033e-18)
(0.663913 -3.16666e-15 -4.69212e-16)
(0.663913 -1.80849e-16 -1.52479e-18)
(0.666708 -3.16431e-15 -4.69395e-16)
(0.666708 -1.8257e-16 -1.52787e-18)
(0.66949 -3.16227e-15 -4.6961e-16)
(0.66949 -1.84529e-16 -1.55584e-18)
(0.672258 -3.15977e-15 -4.6986e-16)
(0.672258 -1.86006e-16 -1.57343e-18)
(0.675012 -3.15759e-15 -4.70124e-16)
(0.675012 -1.87721e-16 -1.57075e-18)
(0.677754 -3.15529e-15 -4.70392e-16)
(0.677754 -1.89993e-16 -1.57041e-18)
(0.680482 -3.15267e-15 -4.70713e-16)
(0.680482 -1.92164e-16 -1.59569e-18)
(0.683198 -3.15037e-15 -4.7106e-16)
(0.683198 -1.94222e-16 -1.65525e-18)
(0.6859 -3.14834e-15 -4.71472e-16)
(0.6859 -1.95071e-16 -1.65653e-18)
(0.688589 -3.14611e-15 -4.71874e-16)
(0.688589 -1.96272e-16 -1.59555e-18)
(0.691264 -3.14316e-15 -4.72267e-16)
(0.691264 -1.97945e-16 -1.57389e-18)
(0.693927 -3.14023e-15 -4.72685e-16)
(0.693927 -1.98977e-16 -1.63685e-18)
(0.696577 -3.13742e-15 -4.73207e-16)
(0.696577 -2.00777e-16 -1.65948e-18)
(0.699214 -3.13463e-15 -4.73759e-16)
(0.699214 -2.02114e-16 -1.67472e-18)
(0.701838 -3.13221e-15 -4.74382e-16)
(0.701838 -2.03126e-16 -1.70797e-18)
(0.704449 -3.12971e-15 -4.75076e-16)
(0.704449 -2.04682e-16 -1.71674e-18)
(0.707048 -3.12713e-15 -4.75817e-16)
(0.707048 -2.05952e-16 -1.71013e-18)
(0.709633 -3.12457e-15 -4.76584e-16)
(0.709633 -2.06558e-16 -1.70326e-18)
(0.712206 -3.12166e-15 -4.77401e-16)
(0.712206 -2.07352e-16 -1.71466e-18)
(0.714766 -3.1188e-15 -4.78276e-16)
(0.714766 -2.09035e-16 -1.75255e-18)
(0.717314 -3.11681e-15 -4.79237e-16)
(0.717314 -2.09829e-16 -1.78696e-18)
(0.719849 -3.11462e-15 -4.80227e-16)
(0.719849 -2.10552e-16 -1.78495e-18)
(0.722371 -3.11148e-15 -4.81255e-16)
(0.722371 -2.11664e-16 -1.80388e-18)
(0.72488 -3.10863e-15 -4.82361e-16)
(0.72488 -2.12878e-16 -1.78063e-18)
(0.727378 -3.10598e-15 -4.83481e-16)
(0.727378 -2.14313e-16 -1.77326e-18)
(0.729862 -3.1029e-15 -4.84637e-16)
(0.729862 -2.16079e-16 -1.80978e-18)
(0.732335 -3.10036e-15 -4.85872e-16)
(0.732335 -2.176e-16 -1.83033e-18)
(0.734794 -3.09833e-15 -4.87139e-16)
(0.734794 -2.17767e-16 -1.86988e-18)
(0.737242 -3.09644e-15 -4.88479e-16)
(0.737242 -2.17944e-16 -1.88703e-18)
(0.739677 -3.09512e-15 -4.89826e-16)
(0.739677 -2.18662e-16 -1.86231e-18)
(0.7421 -3.09357e-15 -4.91166e-16)
(0.7421 -2.19697e-16 -1.79485e-18)
(0.74451 -3.09155e-15 -4.92488e-16)
(0.74451 -2.20051e-16 -1.77669e-18)
(0.746909 -3.08925e-15 -4.93843e-16)
(0.746909 -2.20457e-16 -1.83698e-18)
(0.749295 -3.08689e-15 -4.95277e-16)
(0.749295 -2.20973e-16 -1.85705e-18)
(0.751669 -3.08468e-15 -4.96754e-16)
(0.751669 -2.21639e-16 -1.85133e-18)
(0.75403 -3.08366e-15 -4.98263e-16)
(0.75403 -2.23169e-16 -1.88746e-18)
(0.75638 -3.08267e-15 -4.99796e-16)
(0.75638 -2.24274e-16 -1.89663e-18)
(0.758718 -3.08097e-15 -5.0134e-16)
(0.758718 -2.25933e-16 -1.87595e-18)
(0.761044 -3.08019e-15 -5.02889e-16)
(0.761044 -2.27476e-16 -1.88553e-18)
(0.763357 -3.07878e-15 -5.04499e-16)
(0.763357 -2.28427e-16 -1.87628e-18)
(0.765659 -3.07704e-15 -5.06125e-16)
(0.765659 -2.29441e-16 -1.90475e-18)
(0.767949 -3.07476e-15 -5.07809e-16)
(0.767949 -2.30231e-16 -1.89834e-18)
(0.770227 -3.07235e-15 -5.09506e-16)
(0.770227 -2.31704e-16 -1.88403e-18)
(0.772493 -3.07049e-15 -5.11203e-16)
(0.772493 -2.33807e-16 -1.89429e-18)
(0.774748 -3.06833e-15 -5.12941e-16)
(0.774748 -2.35519e-16 -1.89922e-18)
(0.776991 -3.06678e-15 -5.14691e-16)
(0.776991 -2.37362e-16 -1.84193e-18)
(0.779221 -3.06522e-15 -5.16416e-16)
(0.779221 -2.39116e-16 -1.84014e-18)
(0.781441 -3.06264e-15 -5.18155e-16)
(0.781441 -2.39931e-16 -1.84956e-18)
(0.783648 -3.06045e-15 -5.19946e-16)
(0.783648 -2.4135e-16 -1.94047e-18)
(0.785844 -3.05836e-15 -5.21846e-16)
(0.785844 -2.43173e-16 -1.98096e-18)
(0.788029 -3.05547e-15 -5.23744e-16)
(0.788029 -2.45665e-16 -1.91342e-18)
(0.790201 -3.05325e-15 -5.25637e-16)
(0.790201 -2.48333e-16 -1.9034e-18)
(0.792363 -3.05061e-15 -5.27557e-16)
(0.792363 -2.50461e-16 -1.92248e-18)
(0.794513 -3.04764e-15 -5.29527e-16)
(0.794513 -2.52737e-16 -1.92614e-18)
(0.796651 -3.04444e-15 -5.31521e-16)
(0.796651 -2.55277e-16 -1.93174e-18)
(0.798778 -3.04139e-15 -5.33543e-16)
(0.798778 -2.57641e-16 -1.93936e-18)
(0.800893 -3.03893e-15 -5.3557e-16)
(0.800893 -2.60476e-16 -1.94908e-18)
(0.802998 -3.03642e-15 -5.37651e-16)
(0.802998 -2.63732e-16 -1.94285e-18)
(0.805091 -3.03322e-15 -5.39794e-16)
(0.805091 -2.66631e-16 -1.98276e-18)
(0.807172 -3.02949e-15 -5.41985e-16)
(0.807172 -2.6898e-16 -2.01754e-18)
(0.809243 -3.02718e-15 -5.44222e-16)
(0.809243 -2.70689e-16 -1.93123e-18)
(0.811302 -3.02426e-15 -5.46384e-16)
(0.811302 -2.74301e-16 -1.92262e-18)
(0.81335 -3.01992e-15 -5.48612e-16)
(0.81335 -2.78505e-16 -2.05246e-18)
(0.815386 -3.01636e-15 -5.51021e-16)
(0.815386 -2.81012e-16 -2.07365e-18)
(0.817412 -3.01253e-15 -5.5337e-16)
(0.817412 -2.845e-16 -1.9645e-18)
(0.819427 -3.0094e-15 -5.55682e-16)
(0.819427 -2.87108e-16 -1.96531e-18)
(0.82143 -3.00675e-15 -5.5806e-16)
(0.82143 -2.89506e-16 -2.03751e-18)
(0.823423 -3.00267e-15 -5.60468e-16)
(0.823423 -2.93033e-16 -2.01902e-18)
(0.825405 -2.99872e-15 -5.62867e-16)
(0.825405 -2.97194e-16 -1.98327e-18)
(0.827375 -2.99528e-15 -5.65296e-16)
(0.827375 -3.00692e-16 -2.00575e-18)
(0.829335 -2.99062e-15 -5.67757e-16)
(0.829335 -3.04351e-16 -2.09922e-18)
(0.831284 -2.9868e-15 -5.70281e-16)
(0.831284 -3.09645e-16 -2.09132e-18)
(0.833222 -2.98466e-15 -5.72831e-16)
(0.833222 -3.13957e-16 -2.05441e-18)
(0.835149 -2.97956e-15 -5.75362e-16)
(0.835149 -3.15275e-16 -2.14709e-18)
(0.837065 -2.97722e-15 -5.78077e-16)
(0.837065 -3.19157e-16 -2.13936e-18)
(0.838971 -2.97318e-15 -5.80838e-16)
(0.838971 -3.23829e-16 -1.96987e-18)
(0.840866 -2.9707e-15 -5.83558e-16)
(0.840866 -3.23954e-16 -2.06989e-18)
(0.84275 -2.96883e-15 -5.86437e-16)
(0.84275 -3.24488e-16 -2.17183e-18)
(0.844623 -2.96596e-15 -5.89325e-16)
(0.844623 -3.26846e-16 -2.04449e-18)
(0.846486 -2.96313e-15 -5.92111e-16)
(0.846486 -3.28305e-16 -1.96346e-18)
(0.848338 -2.96065e-15 -5.94984e-16)
(0.848338 -3.29204e-16 -2.02161e-18)
(0.85018 -2.95814e-15 -5.97878e-16)
(0.85018 -3.31444e-16 -2.04416e-18)
(0.852011 -2.95547e-15 -6.0075e-16)
(0.852011 -3.33912e-16 -1.90379e-18)
(0.853832 -2.95264e-15 -6.03548e-16)
(0.853832 -3.37022e-16 -1.88574e-18)
(0.855642 -2.94981e-15 -6.06419e-16)
(0.855642 -3.37691e-16 -1.97141e-18)
(0.857442 -2.94667e-15 -6.09358e-16)
(0.857442 -3.40229e-16 -1.98614e-18)
(0.859232 -2.94483e-15 -6.12307e-16)
(0.859232 -3.4312e-16 -1.98247e-18)
(0.861011 -2.94432e-15 -6.15242e-16)
(0.861011 -3.44118e-16 -1.91851e-18)
(0.862779 -2.942e-15 -6.18034e-16)
(0.862779 -3.45722e-16 -1.87651e-18)
(0.864538 -2.93797e-15 -6.20855e-16)
(0.864538 -3.48355e-16 -1.85079e-18)
(0.866286 -2.93437e-15 -6.23737e-16)
(0.866286 -3.52001e-16 -1.87098e-18)
(0.868024 -2.9309e-15 -6.2671e-16)
(0.868024 -3.53074e-16 -1.93181e-18)
(0.869751 -2.92729e-15 -6.2968e-16)
(0.869751 -3.54217e-16 -1.90801e-18)
(0.871469 -2.92325e-15 -6.32579e-16)
(0.871469 -3.5886e-16 -1.84107e-18)
(0.873176 -2.91898e-15 -6.35485e-16)
(0.873176 -3.62253e-16 -1.9554e-18)
(0.874873 -2.91504e-15 -6.38556e-16)
(0.874873 -3.641e-16 -2.07284e-18)
(0.87656 -2.91079e-15 -6.41729e-16)
(0.87656 -3.6754e-16 -2.01868e-18)
(0.878237 -2.90659e-15 -6.44906e-16)
(0.878237 -3.70504e-16 -1.86522e-18)
(0.879904 -2.90246e-15 -6.47929e-16)
(0.879904 -3.73616e-16 -1.84875e-18)
(0.881561 -2.8978e-15 -6.51044e-16)
(0.881561 -3.76192e-16 -2.02869e-18)
(0.883208 -2.89299e-15 -6.54338e-16)
(0.883208 -3.80355e-16 -2.00922e-18)
(0.884845 -2.88788e-15 -6.5765e-16)
(0.884845 -3.8572e-16 -1.93716e-18)
(0.886473 -2.88301e-15 -6.61048e-16)
(0.886473 -3.87989e-16 -2.01531e-18)
(0.88809 -2.88035e-15 -6.64512e-16)
(0.88809 -3.88742e-16 -1.9601e-18)
(0.889697 -2.87814e-15 -6.67774e-16)
(0.889697 -3.92719e-16 -1.79312e-18)
(0.891295 -2.87417e-15 -6.70894e-16)
(0.891295 -3.97031e-16 -1.77436e-18)
(0.892883 -2.86908e-15 -6.74096e-16)
(0.892883 -3.99944e-16 -1.72785e-18)
(0.894461 -2.86476e-15 -6.77266e-16)
(0.894461 -4.0415e-16 -1.75978e-18)
(0.896029 -2.86026e-15 -6.80484e-16)
(0.896029 -4.07472e-16 -1.83479e-18)
(0.897588 -2.85449e-15 -6.83786e-16)
(0.897588 -4.10415e-16 -1.86784e-18)
(0.899137 -2.84958e-15 -6.87101e-16)
(0.899137 -4.14982e-16 -1.85405e-18)
(0.900676 -2.84488e-15 -6.90444e-16)
(0.900676 -4.19477e-16 -1.92178e-18)
(0.902206 -2.83977e-15 -6.93839e-16)
(0.902206 -4.23474e-16 -1.84331e-18)
(0.903726 -2.83401e-15 -6.97225e-16)
(0.903726 -4.29481e-16 -1.60559e-18)
(0.905237 -2.82831e-15 -7.00321e-16)
(0.905237 -4.36824e-16 -2.47547e-18)
(0.906738 -2.82399e-15 -7.03599e-16)
(0.906738 -4.4045e-16 -3.27392e-18)
(0.908229 -2.81882e-15 -7.06943e-16)
(0.908229 -4.45589e-16 -4.06354e-18)
(0.909711 -2.81241e-15 -7.10349e-16)
(0.909711 -4.5196e-16 -4.77803e-18)
(0.911184 -2.80629e-15 -7.13923e-16)
(0.911184 -4.55483e-16 -5.36314e-18)
(0.912647 -2.79989e-15 -7.17402e-16)
(0.912647 -4.6034e-16 -6.13718e-18)
(0.914101 -2.79413e-15 -7.20908e-16)
(0.914101 -4.66786e-16 -6.92711e-18)
(0.915545 -2.78807e-15 -7.24383e-16)
(0.915545 -4.7346e-16 -7.66521e-18)
(0.916981 -2.78011e-15 -7.27812e-16)
(0.916981 -4.79787e-16 -8.36408e-18)
(0.918406 -2.77241e-15 -7.31211e-16)
(0.918406 -4.86393e-16 -9.29964e-18)
(0.919823 -2.76545e-15 -7.34663e-16)
(0.919823 -4.92454e-16 -1.0207e-17)
(0.92123 -2.75767e-15 -7.3824e-16)
(0.92123 -4.99442e-16 -1.11288e-17)
(0.922628 -2.75029e-15 -7.41962e-16)
(0.922628 -5.07557e-16 -1.21788e-17)
(0.924017 -2.74326e-15 -7.45654e-16)
(0.924017 -5.14642e-16 -1.31438e-17)
(0.925397 -2.73566e-15 -7.49534e-16)
(0.925397 -5.2068e-16 -1.38642e-17)
(0.926768 -2.72935e-15 -7.5334e-16)
(0.926768 -5.25729e-16 -1.46386e-17)
(0.928129 -2.72509e-15 -7.56808e-16)
(0.928129 -5.26533e-16 -1.56107e-17)
(0.929482 -2.72234e-15 -7.60169e-16)
(0.929482 -5.27658e-16 -1.65207e-17)
(0.930825 -2.72002e-15 -7.63414e-16)
(0.930825 -5.32492e-16 -1.74701e-17)
(0.932159 -2.71636e-15 -7.66515e-16)
(0.932159 -5.3411e-16 -1.87569e-17)
(0.933484 -2.71146e-15 -7.6981e-16)
(0.933484 -5.35036e-16 -1.96657e-17)
(0.934801 -2.70684e-15 -7.72946e-16)
(0.934801 -5.3885e-16 -2.04629e-17)
(0.936108 -2.70225e-15 -7.75818e-16)
(0.936108 -5.39275e-16 -2.17816e-17)
(0.937406 -2.69798e-15 -7.78727e-16)
(0.937406 -5.38087e-16 -2.30615e-17)
(0.938696 -2.69336e-15 -7.81786e-16)
(0.938696 -5.41447e-16 -2.41647e-17)
(0.939976 -2.68913e-15 -7.84786e-16)
(0.939976 -5.44136e-16 -2.52608e-17)
(0.941248 -2.68504e-15 -7.87683e-16)
(0.941248 -5.46027e-16 -2.66737e-17)
(0.942511 -2.67899e-15 -7.90703e-16)
(0.942511 -5.50307e-16 -2.79824e-17)
(0.943765 -2.67366e-15 -7.9386e-16)
(0.943765 -5.53746e-16 -2.90885e-17)
(0.94501 -2.66849e-15 -7.96914e-16)
(0.94501 -5.57931e-16 -3.06439e-17)
(0.946246 -2.66108e-15 -8.00338e-16)
(0.946246 -5.6114e-16 -3.21252e-17)
(0.947474 -2.6549e-15 -8.03853e-16)
(0.947474 -5.6487e-16 -3.31584e-17)
(0.948693 -2.65121e-15 -8.06974e-16)
(0.948693 -5.67691e-16 -3.43072e-17)
(0.949903 -2.64445e-15 -8.09814e-16)
(0.949903 -5.71041e-16 -3.5932e-17)
(0.951104 -2.63792e-15 -8.12858e-16)
(0.951104 -5.75811e-16 -3.7675e-17)
(0.952297 -2.63145e-15 -8.15833e-16)
(0.952297 -5.80866e-16 -3.91733e-17)
(0.953481 -2.6234e-15 -8.18792e-16)
(0.953481 -5.86297e-16 -4.07045e-17)
(0.954657 -2.61674e-15 -8.21689e-16)
(0.954657 -5.90894e-16 -4.24705e-17)
(0.955823 -2.60747e-15 -8.24711e-16)
(0.955823 -5.9692e-16 -4.42352e-17)
(0.956982 -2.6005e-15 -8.27792e-16)
(0.956982 -6.01621e-16 -4.58763e-17)
(0.958131 -2.59549e-15 -8.30752e-16)
(0.958131 -6.06583e-16 -4.72368e-17)
(0.959273 -2.59002e-15 -8.33456e-16)
(0.959273 -6.11956e-16 -4.87627e-17)
(0.960405 -2.58529e-15 -8.35996e-16)
(0.960405 -6.15991e-16 -5.07897e-17)
(0.961529 -2.57932e-15 -8.38585e-16)
(0.961529 -6.2126e-16 -5.24071e-17)
(0.962645 -2.57352e-15 -8.40917e-16)
(0.962645 -6.29754e-16 -5.40993e-17)
(0.963752 -2.56666e-15 -8.43098e-16)
(0.963752 -6.35353e-16 -5.60301e-17)
(0.96485 -2.55828e-15 -8.45705e-16)
(0.96485 -6.42232e-16 -5.7752e-17)
(0.965941 -2.55098e-15 -8.4825e-16)
(0.965941 -6.49604e-16 -5.95339e-17)
(0.967022 -2.54425e-15 -8.5055e-16)
(0.967022 -6.55204e-16 -6.14083e-17)
(0.968096 -2.5366e-15 -8.52913e-16)
(0.968096 -6.65162e-16 -6.28035e-17)
(0.96916 -2.52888e-15 -8.54811e-16)
(0.96916 -6.73647e-16 -6.48646e-17)
(0.970217 -2.51883e-15 -8.56642e-16)
(0.970217 -6.78485e-16 -6.73746e-17)
(0.971265 -2.50572e-15 -8.59305e-16)
(0.971265 -6.88468e-16 -6.90748e-17)
(0.972305 -2.4948e-15 -8.62144e-16)
(0.972305 -6.97962e-16 -7.01447e-17)
(0.973336 -2.48817e-15 -8.64366e-16)
(0.973336 -7.04743e-16 -7.20089e-17)
(0.974359 -2.48166e-15 -8.66178e-16)
(0.974359 -7.12306e-16 -7.41549e-17)
(0.975374 -2.47223e-15 -8.67892e-16)
(0.975374 -7.18736e-16 -7.61369e-17)
(0.97638 -2.46128e-15 -8.69817e-16)
(0.97638 -7.25477e-16 -7.81689e-17)
(0.977378 -2.45064e-15 -8.71727e-16)
(0.977378 -7.34151e-16 -8.03476e-17)
(0.978368 -2.44098e-15 -8.73927e-16)
(0.978368 -7.47172e-16 -8.24788e-17)
(0.979349 -2.43141e-15 -8.76324e-16)
(0.979349 -7.56258e-16 -8.47712e-17)
(0.980322 -2.42291e-15 -8.79015e-16)
(0.980322 -7.62723e-16 -8.65243e-17)
(0.981287 -2.41676e-15 -8.81505e-16)
(0.981287 -7.67017e-16 -8.84651e-17)
(0.982244 -2.40969e-15 -8.83883e-16)
(0.982244 -7.69514e-16 -9.05896e-17)
(0.983192 -2.40308e-15 -8.86441e-16)
(0.983192 -7.73307e-16 -9.27549e-17)
(0.984132 -2.3994e-15 -8.88804e-16)
(0.984132 -7.77218e-16 -9.51273e-17)
(0.985064 -2.39335e-15 -8.9114e-16)
(0.985064 -7.83604e-16 -9.75992e-17)
(0.985988 -2.38494e-15 -8.93432e-16)
(0.985988 -7.8934e-16 -9.99188e-17)
(0.986903 -2.37713e-15 -8.95981e-16)
(0.986903 -7.9508e-16 -1.02594e-16)
(0.98781 -2.36995e-15 -8.98946e-16)
(0.98781 -8.01497e-16 -1.04543e-16)
(0.988709 -2.36442e-15 -9.01367e-16)
(0.988709 -8.10417e-16 -1.06698e-16)
(0.9896 -2.356e-15 -9.03266e-16)
(0.9896 -8.14553e-16 -1.09854e-16)
(0.990483 -2.34556e-15 -9.05568e-16)
(0.990483 -8.16444e-16 -1.1207e-16)
(0.991357 -2.33613e-15 -9.07794e-16)
(0.991357 -8.24948e-16 -1.14495e-16)
(0.992223 -2.32544e-15 -9.09407e-16)
(0.992223 -8.32839e-16 -1.17745e-16)
(0.993081 -2.31282e-15 -9.11069e-16)
(0.993081 -8.43533e-16 -1.21667e-16)
(0.99393 -2.30111e-15 -9.14006e-16)
(0.99393 -8.56569e-16 -1.24057e-16)
(0.994772 -2.28458e-15 -9.17276e-16)
(0.994772 -8.73747e-16 -1.27101e-16)