/*--------------------------------*- C++ -*----------------------------------*\
| =========                 |                                                 |
| \\      /  F ield         | OpenFOAM: The Open Source CFD Toolbox           |
|  \\    /   O peration     | Version:  2012                                  |
|   \\  /    A nd           | Website:  www.openfoam.com                      |
|    \\/     M anipulation  |                                                 |
\*---------------------------------------------------------------------------*/
FoamFile
{
    version     2.0;
    format      ascii;
    class       volTensorField;
    location    "14000";
    object      grad(U);
}
// * * * * * * * * * * * * * * * * * * * * * * * * * * * * * * * * * * * * * //

dimensions      [0 0 -1 0 0 0 0];


internalField   nonuniform List<tensor> 
80
(
(0 1.75162e-46 -2.98737e-31 47.4415 0 5.61182e-14 1.93012 -1.9986e-29 1.10498e-15)
(-3.36348e-16 0 1.09717e-28 47.4415 -7.03964e-14 3.94043e-14 1.93012 -4.18357e-15 3.04277e-15)
(8.06542e-16 2.61241e-28 2.8057e-28 38.9655 5.16388e-31 -2.47606e-29 6.98086 0 0)
(0 -7.16353e-30 -2.86541e-30 38.9655 2.53063e-14 3.20579e-14 6.98086 8.0966e-16 1.16523e-14)
(0 -1.95811e-29 3.43554e-30 20.8382 -5.40131e-14 -1.608e-14 6.41738 3.0778e-15 9.36884e-15)
(3.39383e-15 1.75162e-46 -3.43554e-30 20.8382 -8.15483e-31 3.96278e-15 6.41738 -2.46519e-32 4.84281e-15)
(0 -5.14888e-31 -4.1191e-30 7.14001 -4.58488e-15 9.99113e-16 3.5466 2.63193e-15 8.02052e-15)
(6.76861e-15 5.14888e-31 0 7.14001 3.05494e-15 2.20413e-14 3.5466 1.20425e-15 3.53148e-15)
(6.57904e-16 -2.08179e-32 4.93868e-30 2.44368 -1.63162e-15 1.42503e-14 2.2202 2.047e-15 3.56784e-15)
(0 -1.54334e-31 0 2.44368 1.70957e-15 2.71233e-14 2.2202 2.15585e-15 2.03231e-15)
(-2.36715e-15 -2.4947e-31 0 0.948812 2.39688e-31 1.8127e-14 1.56616 1.79762e-15 7.64779e-16)
(0 0 0 0.948812 1.75602e-15 2.16116e-14 1.56616 2.59324e-15 1.04115e-16)
(6.51937e-15 0 0 0.414562 -2.28097e-17 1.50889e-14 1.22824 4.60511e-15 -6.7265e-16)
(0 0 1.41989e-29 0.414562 -3.29708e-16 1.6059e-14 1.22824 4.66867e-15 4.71471e-15)
(0 6.30584e-44 0 0.19891 1.42114e-29 1.52875e-14 1.02519 0 -2.55323e-15)
(5.75264e-15 -2.16486e-30 0 0.19891 1.17249e-16 1.49113e-14 1.02519 -3.39566e-16 4.90015e-15)
(-5.59957e-15 -2.55312e-30 -4.08227e-29 0.100608 5.86213e-17 2.49142e-14 0.883493 2.83201e-16 -3.15544e-29)
(2.18154e-14 0 2.04113e-29 0.100608 1.97215e-31 2.44594e-14 0.883493 1.4603e-45 0)
(1.18038e-18 5.25838e-32 9.83931e-31 0 -4.34411e-16 -1.22097e-31 3.5533e-15 3.50076e-15 -7.08997e-15)
(0 2.58208e-30 -4.89213e-29 5.17173e-29 -5.0273e-16 -4.86403e-16 3.5533e-15 4.05131e-15 -3.49126e-15)
(0 -7.46843e-32 0 47.4415 1.15683e-14 -2.68887e-14 -1.93012 7.42913e-15 -1.10498e-15)
(0 7.46843e-32 5.97475e-31 47.4415 1.3014e-14 1.00224e-13 -1.93012 4.18357e-15 -3.04277e-15)
(-1.61308e-15 0 -7.72758e-30 38.9655 1.82673e-14 3.15544e-30 -6.98086 -1.48839e-14 -1.39208e-14)
(1.61308e-15 1.13676e-28 3.36312e-44 38.9655 1.75269e-15 1.57772e-30 -6.98086 -2.35607e-16 4.15199e-29)
(-1.93404e-15 -8.58885e-31 3.43554e-30 20.8382 3.11524e-15 -6.70566e-15 -6.41738 -2.07885e-15 -1.16803e-14)
(0 0 -3.0061e-30 20.8382 3.09985e-15 -4.63179e-14 -6.41738 1.91831e-16 -4.84281e-15)
(3.38431e-15 9.75314e-31 4.1191e-30 7.14001 9.86351e-16 -2.13789e-14 -3.5466 -3.68943e-16 -8.60146e-15)
(-6.76861e-15 0 -4.1191e-30 7.14001 3.51902e-15 -2.94293e-14 -3.5466 -1.20425e-15 -3.53148e-15)
(-2.78023e-15 0 4.93868e-30 2.44368 1.91007e-16 -2.77052e-14 -2.2202 -1.3938e-15 -3.56784e-15)
(2.78023e-15 -1.75162e-46 -4.93868e-30 2.44368 -9.86076e-32 -3.24441e-14 -2.2202 -3.9443e-31 -2.03231e-15)
(2.36715e-15 0 0 0.948812 4.85471e-16 -2.25298e-14 -1.56616 -1.79762e-15 -7.64779e-16)
(-1.2802e-14 -5.48892e-31 0 0.948812 2.64183e-16 -2.06075e-14 -1.56616 -1.60445e-15 -1.04115e-16)
(0 -9.39966e-32 0 0.414562 -1.34452e-16 -1.69361e-14 -1.22824 -2.33433e-16 6.7265e-16)
(-2.01817e-14 -7.00649e-46 0 0.414562 -5.75458e-45 -1.26583e-14 -1.22824 -2.22411e-30 -4.71471e-15)
(0 -2.12801e-30 1.70241e-29 0.19891 -3.24021e-16 -1.54386e-14 -1.02519 3.16597e-15 2.55323e-15)
(-1.05445e-14 0 -1.70241e-29 0.19891 0 -1.60996e-14 -1.02519 2.70937e-31 -4.90015e-15)
(-5.59957e-15 -1.09089e-30 -4.08227e-29 0.100608 4.50484e-16 -2.53534e-14 -0.883493 -2.1763e-15 3.15544e-29)
(-1.09077e-14 -2.4315e-30 4.08227e-29 0.100608 1.01786e-15 -2.62694e-14 -0.883493 -4.91731e-15 0)
(3.44421e-15 1.52954e-30 0 1.10328e-15 -2.21675e-16 4.93038e-32 -1.06581e-14 -1.7864e-15 -2.36658e-30)
(-9.03162e-15 -8.69152e-45 0 1.10328e-15 -1.07854e-45 6.81805e-16 -7.10307e-15 -1.56573e-29 3.49126e-15)
(-2.91025e-15 1.60729e-42 0 -2.79255e-09 1.80991e-28 -2.50825e-14 2.25026e-08 1.04155e-45 -1.19904e-15)
(1.16433e-14 -1.13088e-29 0 -2.79218e-09 -7.84864e-18 -2.50459e-14 2.25026e-08 -6.32493e-17 -3.44149e-16)
(-2.72692e-15 0 0 -0.100608 1.68616e-16 -2.33206e-15 0.883493 2.43603e-16 -1.28894e-16)
(-1.09077e-14 -1.39397e-31 3.21764e-32 -0.100608 3.85704e-16 -2.49029e-15 0.883493 3.41036e-16 -1.5126e-15)
(4.79186e-15 -2.10583e-33 0 -0.19891 -6.64344e-17 -6.18973e-16 1.02519 4.43694e-17 -1.60716e-15)
(0 6.65004e-32 0 -0.19891 1.78413e-17 -1.65929e-29 1.02519 5.41421e-16 0)
(-5.04544e-15 5.54646e-32 -1.77487e-30 -0.414562 2.05178e-16 -7.29902e-15 1.22824 -9.84675e-16 2.59661e-15)
(1.00909e-14 0 8.87434e-31 -0.414562 1.29765e-16 -6.7875e-15 1.22824 -5.14615e-16 -1.99348e-15)
(0 1.15651e-31 0 -0.948812 2.08358e-16 -3.99241e-15 1.56616 -8.73139e-16 -3.08425e-16)
(0 -1.15046e-31 3.41567e-45 -0.948812 -4.93038e-32 -1.91526e-31 1.56616 -4.14498e-16 -1.10657e-46)
(0 4.72457e-32 3.08667e-31 -2.44368 -9.38501e-17 -1.61109e-15 2.2202 -3.02353e-16 -1.92218e-16)
(8.48929e-15 -9.64585e-33 0 -2.44368 -3.90202e-16 -2.73928e-15 2.2202 -5.24845e-17 3.68512e-18)
(-1.69215e-15 -6.4361e-32 -4.50594e-31 -7.14001 -2.12363e-16 -1.68878e-15 3.5466 -2.56377e-18 3.59721e-16)
(6.76862e-15 -1.12432e-44 5.14888e-31 -7.14001 1.26563e-30 -1.72646e-15 3.5466 1.31718e-47 4.84305e-17)
(-1.93404e-15 -4.37906e-47 0 -20.8382 6.77124e-32 -2.17828e-15 6.41738 -1.54074e-33 -1.2422e-16)
(0 0 0 -20.8382 3.53411e-16 2.39216e-16 6.41738 1.1922e-17 3.42255e-17)
(0 -1.1193e-32 3.24063e-30 -38.9655 7.53458e-16 -3.37615e-15 6.98086 -6.58392e-17 -5.4439e-16)
(0 0 0 -38.9655 4.65782e-16 -6.64427e-31 6.98086 -3.64494e-17 0)
(0 2.33389e-33 0 -47.4415 2.6918e-16 -5.59154e-15 1.93012 3.83306e-17 -1.79806e-16)
(0 0 3.73422e-32 -47.4415 8.50186e-17 -6.91828e-15 1.93012 3.70887e-18 6.14609e-17)
(-1.03326e-14 0 1.22363e-29 -2.79255e-09 -1.77572e-16 2.59795e-14 -2.25026e-08 1.77221e-15 1.19904e-15)
(2.36076e-18 3.05907e-30 0 -2.79236e-09 -1.54693e-16 2.52551e-14 -2.25026e-08 1.27084e-15 3.44149e-16)
(2.72692e-15 0 -6.37855e-31 -0.100608 1.48881e-16 2.33206e-15 -0.883493 -2.43603e-16 1.28894e-16)
(-1.37803e-14 1.73041e-31 1.35916e-30 -0.100608 1.70815e-16 2.49029e-15 -0.883493 -3.41036e-16 1.5126e-15)
(4.55166e-15 2.66001e-31 0 -0.19891 -4.07451e-16 6.98941e-44 -1.02519 -4.43694e-17 3.66808e-29)
(-1.53363e-14 -4.1601e-45 8.02587e-30 -0.19891 -5.47382e-48 8.87194e-18 -1.02519 -7.49418e-30 -9.11892e-16)
(-1.04879e-15 5.70862e-32 8.87434e-31 -0.414562 -4.65824e-16 7.02178e-15 -1.22824 8.08754e-16 -2.59661e-15)
(-1.40875e-14 0 -8.87434e-31 -0.414562 -4.7012e-16 8.00332e-15 -1.22824 5.14615e-16 1.99348e-15)
(0 -3.63462e-45 7.40165e-31 -0.948812 9.86076e-32 2.03979e-15 -1.56616 4.93038e-30 3.08425e-16)
(0 -1.85041e-31 -7.40165e-31 -0.948812 6.42876e-16 1.14203e-15 -1.56616 4.14498e-16 -1.43641e-15)
(2.12232e-15 7.71668e-32 0 -2.44368 1.48657e-15 2.85679e-15 -2.2202 3.02353e-16 1.92218e-16)
(0 2.91348e-32 0 -2.44368 -9.86076e-32 1.10771e-15 -2.2202 5.24845e-17 -3.68512e-18)
(0 -6.4361e-32 2.57444e-31 -7.14001 4.1512e-17 1.3504e-15 -3.5466 2.56377e-18 -3.59721e-16)
(0 6.4361e-32 -2.57444e-31 -7.14001 2.05998e-16 1.76865e-15 -3.5466 1.36784e-16 -4.84305e-17)
(1.69692e-15 4.23202e-33 0 -20.8382 5.23833e-48 -1.78246e-15 -6.41738 7.62373e-18 1.2422e-16)
(3.39383e-15 3.18913e-31 0 -20.8382 -6.16246e-17 -6.04028e-17 -6.41738 -1.1922e-17 -3.42255e-17)
(0 -2.79826e-33 -1.58185e-44 -38.9655 -1.09117e-16 1.17675e-43 -6.98086 6.58392e-17 -2.84961e-29)
(0 6.99564e-33 1.79088e-31 -38.9655 -5.33523e-16 2.9402e-15 -6.98086 3.64494e-17 -7.48079e-17)
(0 7.17071e-46 1.49369e-31 -47.4415 -4.93038e-32 1.34453e-14 -1.93012 5.04673e-31 1.79806e-16)
(0 2.05884e-33 -1.12026e-31 -47.4415 1.2326e-32 5.26879e-15 -1.93012 -3.70887e-18 -6.14609e-17)
)
;

boundaryField
{
    walls
    {
        type            extrapolatedCalculated;
        value           nonuniform List<tensor> 8((0 1.75162e-46 -2.98737e-31 47.9021 -3.58112e-13 5.54825e-14 1.93012 -1.9986e-29 1.10498e-15) (0 -7.46843e-32 0 47.9021 -1.06423e-14 -6.35667e-16 -1.93012 7.42913e-15 -1.10498e-15) (-3.36348e-16 0 1.09717e-28 47.9021 -2.03232e-13 3.94043e-14 1.93012 -4.18357e-15 3.04277e-15) (0 7.46843e-32 5.97475e-31 47.9021 -4.42542e-15 1.11627e-13 -1.93012 4.18357e-15 -3.04277e-15) (0 2.33389e-33 0 -47.9021 -4.53452e-16 -2.55714e-15 1.93012 3.83306e-17 -1.79806e-16) (0 7.17071e-46 1.49369e-31 -47.9021 -1.44913e-15 1.1482e-14 -1.93012 5.04673e-31 1.79806e-16) (0 0 3.73422e-32 -47.9021 -3.68434e-16 -6.57833e-15 1.93012 3.70887e-18 6.14609e-17) (0 2.05884e-33 -1.12026e-31 -47.9021 1.84339e-16 3.52764e-15 -1.93012 -3.70887e-18 -6.14609e-17));
    }
    inlet
    {
        type            cyclic;
    }
    outlet
    {
        type            cyclic;
    }
    sides
    {
        type            empty;
    }
}


// ************************************************************************* //
