/*--------------------------------*- C++ -*----------------------------------*\
| =========                 |                                                 |
| \\      /  F ield         | OpenFOAM: The Open Source CFD Toolbox           |
|  \\    /   O peration     | Version:  2012                                  |
|   \\  /    A nd           | Website:  www.openfoam.com                      |
|    \\/     M anipulation  |                                                 |
\*---------------------------------------------------------------------------*/
FoamFile
{
    version     2.0;
    format      ascii;
    class       volTensorField;
    location    "11000";
    object      grad(U);
}
// * * * * * * * * * * * * * * * * * * * * * * * * * * * * * * * * * * * * * //

dimensions      [0 0 -1 0 0 0 0];


internalField   nonuniform List<tensor> 
2560
(
(-9.14312e-18 -1.3396e-17 -2.61587e-23 30.7112 0 7.90159e-05 0.0444595 0 5.23937e-08)
(0 1.39513e-22 1.74391e-23 30.7112 -0.000288607 3.7188e-06 0.0444595 -1.18659e-06 -6.46192e-08)
(0 2.39332e-17 7.2938e-18 30.7058 0 1.20848e-05 0.134008 -1.11199e-07 3.54949e-08)
(-1.80242e-17 2.75027e-22 6.87567e-23 30.7058 1.73219e-05 -3.43401e-07 0.134008 8.22084e-08 -3.48086e-07)
(-5.62952e-18 0 2.91119e-23 30.7004 -0.000135085 5.94417e-06 0.184278 6.58215e-08 3.53552e-08)
(0 0 -1.35542e-22 30.7004 3.00659e-05 -2.55522e-06 0.184278 8.9592e-08 -3.65857e-07)
(1.80499e-17 -3.67866e-18 1.06607e-22 30.6944 -1.68829e-05 5.93179e-06 0.18692 -5.10402e-08 3.63838e-08)
(0 6.67999e-23 -6.67999e-23 30.6944 -2.89166e-06 -2.26534e-07 0.18692 7.06309e-09 -3.77002e-07)
(1.38082e-16 -9.87637e-23 3.29212e-22 30.6877 -7.43106e-06 6.01747e-06 0.189594 -4.0049e-08 3.74497e-08)
(0 9.87637e-23 -2.6337e-22 30.6877 6.09631e-06 3.84166e-08 0.189594 -5.40132e-09 -3.88271e-07)
(1.11481e-16 -5.36476e-23 2.36793e-22 30.6798 -6.87463e-06 6.09524e-06 0.192296 -4.55592e-08 3.84247e-08)
(3.47437e-16 7.30111e-23 -1.94696e-22 30.6798 9.09186e-06 2.14235e-07 0.192296 2.15132e-09 -3.99325e-07)
(1.06813e-17 -1.92581e-23 8.46913e-23 30.6698 -7.40951e-06 6.16823e-06 0.195021 -4.80257e-08 3.9475e-08)
(1.58503e-16 6.39686e-23 -1.91906e-22 30.6698 7.81417e-06 2.10688e-07 0.195021 5.15742e-09 -4.10746e-07)
(-6.95459e-17 6.77111e-23 -2.33582e-22 30.6572 -7.72042e-06 6.24441e-06 0.197767 -5.09059e-08 4.05335e-08)
(1.45954e-16 -2.36444e-23 1.26104e-22 30.6572 7.42653e-06 2.26894e-07 0.197767 5.95363e-09 -4.22485e-07)
(2.13218e-16 -1.28274e-22 1.69923e-22 30.6424 -8.43924e-06 6.32432e-06 0.20054 -5.88436e-08 4.16776e-08)
(-1.30334e-16 1.39833e-22 -1.24296e-22 30.6424 7.44426e-06 2.55592e-07 0.20054 5.91651e-09 -4.34547e-07)
(0 7.65717e-23 -1.83772e-22 30.6264 -9.08125e-06 6.40349e-06 0.203347 -6.09249e-08 4.27724e-08)
(0 -4.5943e-23 1.22515e-22 30.6264 8.79556e-06 3.09425e-07 0.203347 4.29936e-09 -4.46906e-07)
(-1.10126e-16 -2.91356e-20 1.93398e-22 30.6091 -3.91834e-21 6.47715e-06 0.206181 0 4.38911e-08)
(0 1.81138e-22 -3.01897e-22 30.6091 1.395e-05 4.75619e-07 0.206181 8.51969e-09 -4.59509e-07)
(1.24036e-16 -4.44074e-18 4.65877e-22 30.5897 1.54288e-05 6.58729e-06 0.209039 -5.23543e-08 4.55312e-08)
(0 2.67813e-22 -4.16598e-22 30.5897 2.29613e-05 1.3448e-06 0.209039 4.81139e-08 -4.72021e-07)
(0 -2.93305e-23 1.17322e-22 30.5684 -0.000192576 6.88492e-06 0.211925 1.83025e-07 4.9305e-08)
(0 5.8661e-23 -1.17322e-22 30.5684 0.00016088 5.42214e-06 0.211925 1.11885e-07 -4.82503e-07)
(-1.52443e-16 -3.10417e-18 -2.21549e-22 30.5444 3.45689e-24 7.73481e-06 0.214826 0 5.8825e-08)
(6.09774e-16 -9.40395e-38 1.1564e-22 30.5444 6.77465e-21 1.44189e-05 0.214826 1.32349e-23 -4.8243e-07)
(0 3.41949e-22 -2.84958e-22 30.5162 0.000162456 9.53255e-06 0.21773 1.01309e-07 7.64156e-08)
(0 -3.41949e-22 2.84958e-22 30.5162 -0.000153134 2.41016e-05 0.21773 2.15845e-07 -4.64776e-07)
(-1.81653e-16 0 7.68714e-23 30.4823 -7.74071e-05 1.21184e-05 0.220628 -1.48085e-07 9.80031e-08)
(7.26611e-16 0 -1.12349e-22 30.4823 -5.84673e-05 2.74379e-05 0.220628 -3.12524e-08 -4.36737e-07)
(0 -1.30352e-18 -3.32217e-22 30.4422 1.35662e-20 1.47007e-05 0.223518 -5.29396e-23 1.16602e-07)
(-7.86243e-16 -3.87587e-22 3.32217e-22 30.4422 -1.75373e-05 2.23393e-05 0.223518 -2.72859e-07 -4.15978e-07)
(0 -5.14534e-19 -2.18304e-22 30.3967 1.72734e-05 1.65664e-05 0.226413 -6.39172e-08 1.2869e-07)
(-8.46675e-16 -4.36608e-22 2.18304e-22 30.3967 3.97041e-05 1.39136e-05 0.226413 -2.1488e-07 -4.15465e-07)
(2.25627e-16 -1.61381e-22 1.07588e-22 30.3484 1.82524e-05 1.77044e-05 0.229335 -1.64295e-07 1.3723e-07)
(0 -1.06431e-18 -1.07588e-22 30.3484 2.83001e-05 -4.43156e-06 0.229335 -3.44465e-08 -4.32591e-07)
(2.42477e-16 3.97671e-22 -3.86149e-22 30.2993 -1.23738e-05 1.85083e-05 0.232291 -1.46947e-07 1.44796e-07)
(-9.69908e-16 -8.08046e-19 4.24182e-22 30.2993 0 -2.02655e-05 0.232291 -1.32221e-08 -5.0588e-07)
(0 -5.08797e-34 -4.18102e-22 30.2485 7.09937e-21 1.91298e-05 0.235263 0 1.50926e-07)
(0 -4.96497e-22 4.18102e-22 30.2485 1.93423e-05 -2.25233e-05 0.235263 -5.98899e-08 -5.87491e-07)
(-2.74096e-16 -1.32004e-22 4.87457e-23 30.1935 4.10488e-05 2.17257e-05 0.238227 -7.74494e-08 1.90041e-07)
(0 2.64008e-22 -2.06055e-22 30.1935 6.1272e-05 -2.12454e-05 0.238227 6.44962e-08 -6.74294e-07)
(1.35717e-16 -6.6008e-22 6.59287e-22 30.1322 4.86894e-05 3.04873e-05 0.241171 1.97114e-07 2.9575e-07)
(0 8.63182e-22 -7.10856e-22 30.1322 6.90262e-05 -1.47257e-05 0.241171 3.43557e-07 -7.55272e-07)
(0 4.00381e-22 -6.00572e-22 30.0636 2.08493e-06 3.69905e-05 0.244092 3.8227e-07 3.01335e-07)
(-1.22619e-15 -3.11605e-18 8.00763e-22 30.0636 3.36963e-21 -6.82495e-06 0.244092 0 -8.51579e-07)
(3.23083e-16 7.89286e-22 -7.26317e-22 29.9878 -6.11252e-05 4.22929e-05 0.246985 2.86869e-07 3.91872e-07)
(0 -2.08606e-18 7.89286e-22 29.9878 -2.3511e-05 -4.85053e-06 0.246985 9.62491e-08 -9.37334e-07)
(-6.79648e-16 9.23843e-22 -1.27355e-21 29.9044 -9.03475e-05 5.80208e-05 0.249845 -3.71225e-08 5.73354e-07)
(0 -9.23843e-22 1.16696e-21 29.9044 -6.7617e-05 -1.35988e-05 0.249845 1.2331e-07 -1.05188e-06)
(1.47235e-15 -1.00646e-21 1.4834e-21 29.8126 -7.47044e-05 8.17109e-05 0.252662 -3.77993e-07 8.05548e-07)
(2.85416e-15 1.05438e-21 -1.53365e-21 29.8126 -5.17948e-05 -3.19828e-05 0.252662 -2.12511e-07 -1.24267e-06)
(7.92548e-16 -8.50311e-22 9.4479e-22 29.7116 -3.96153e-05 0.000107671 0.255425 -1.83975e-07 1.03729e-06)
(7.03125e-16 8.50311e-22 -9.4479e-22 29.7116 -1.57817e-05 -5.48008e-05 0.255425 -4.07557e-07 -1.53926e-06)
(3.91267e-16 -3.07736e-19 -8.46526e-22 29.6008 -7.80503e-06 0.000130728 0.258127 -3.38516e-08 1.23206e-06)
(0 -2.79375e-22 7.44999e-22 29.6008 1.17018e-05 -7.67551e-05 0.258127 -4.47073e-07 -1.94578e-06)
(-8.17623e-16 0 -8.5305e-22 29.4802 0 0.000103837 0.260769 0 5.90936e-07)
(-3.27049e-15 0 3.67161e-22 29.4802 2.48765e-05 -9.47464e-05 0.260769 -4.09847e-07 -2.43518e-06)
(-4.26546e-16 -1.52247e-19 -1.40751e-21 29.3509 6.96513e-06 5.54949e-05 0.263363 -3.10938e-08 3.98638e-07)
(-1.70618e-15 -3.61898e-22 5.42848e-22 29.3509 3.7876e-05 -0.000107132 0.263363 -3.37006e-07 -2.74544e-06)
(0 1.11472e-21 -3.03205e-21 29.215 3.45553e-05 4.5825e-05 0.265927 -1.82176e-07 4.31788e-07)
(-1.77786e-15 -1.11472e-21 3.03205e-21 29.215 6.11538e-05 -0.000112064 0.265927 -1.85965e-07 -3.09595e-06)
(0 -1.05892e-21 3.16439e-21 29.0742 5.86472e-05 4.56423e-05 0.268471 -1.00268e-07 4.06933e-07)
(1.85026e-15 1.05892e-21 -3.16439e-21 29.0742 8.58768e-05 -9.00828e-05 0.268471 9.86647e-08 -3.45979e-06)
(-4.80843e-16 0 -2.68627e-22 28.9292 6.26925e-05 3.87951e-05 0.270995 2.74982e-07 3.15828e-07)
(0 2.166e-22 -1.03968e-21 28.9292 9.10566e-05 -4.33317e-05 0.270995 4.79984e-07 -3.71787e-06)
(-4.99302e-16 1.02478e-21 -3.04049e-21 28.7792 3.82977e-05 2.57147e-05 0.273476 6.04884e-07 1.69594e-07)
(0 -1.02478e-21 2.56194e-21 28.7792 6.6891e-05 -7.47591e-06 0.273476 4.55312e-07 -3.84056e-06)
(1.88159e-16 8.41742e-22 2.40496e-19 28.6214 -4.57712e-06 6.53601e-07 0.275882 7.59501e-07 3.1362e-09)
(-2.77788e-15 -2.59034e-18 1.68348e-21 28.6214 2.01289e-06 1.65439e-05 0.275882 9.65853e-09 -3.87294e-06)
(5.3677e-16 -4.97806e-22 1.48629e-21 28.4524 -4.77867e-05 -2.04982e-19 0.278174 6.86121e-07 0)
(0 8.46356e-37 -1.49342e-21 28.4524 -2.71051e-20 4.02804e-05 0.278174 -1.05879e-22 -3.80251e-06)
(-1.30233e-16 -1.22668e-21 2.74105e-21 28.2689 -7.59108e-05 -2.04621e-05 0.280312 4.30552e-07 1.49276e-07)
(6.86008e-16 1.22668e-21 -2.2898e-21 28.2689 -4.44498e-05 5.89361e-05 0.280312 3.41985e-07 -3.63834e-06)
(-5.74954e-16 6.85155e-22 -1.69355e-21 28.0681 -8.86045e-05 -2.77512e-05 0.282268 7.80223e-08 2.55735e-07)
(0 -4.03032e-22 6.44852e-22 28.0681 -5.69066e-05 6.93298e-05 0.282268 3.17155e-07 -3.40815e-06)
(0 9.13689e-22 -1.58902e-21 27.8487 -8.91224e-05 -2.82745e-05 0.28403 -3.12178e-07 3.00804e-07)
(0 -1.31094e-21 2.70134e-21 27.8487 -5.63396e-05 6.99716e-05 0.28403 -6.56241e-08 -3.14977e-06)
(-6.13786e-16 3.93059e-22 -1.5834e-21 27.6115 -7.50069e-05 -2.22862e-05 0.285608 -6.64179e-07 2.73944e-07)
(1.79821e-15 -7.83124e-23 6.265e-22 27.6115 -4.13022e-05 6.12189e-05 0.285608 -4.20678e-07 -2.90671e-06)
(-6.47517e-16 -1.5438e-21 2.16132e-21 27.3595 -4.48481e-05 -1.16055e-05 0.287038 -2.7166e-07 1.85181e-07)
(3.18114e-15 1.5438e-21 -2.16132e-21 27.3595 -1.04232e-05 4.56743e-05 0.287037 -6.63167e-07 -2.71718e-06)
(6.53137e-16 -4.85393e-19 -1.81464e-21 27.0977 -5.17368e-20 5.36553e-07 0.288375 0 6.90987e-08)
(-2.61255e-15 -1.36951e-21 2.73901e-21 27.0977 2.88353e-05 2.79566e-05 0.288375 -7.0686e-07 -2.60506e-06)
(6.72967e-16 -9.93668e-22 1.19721e-21 26.8317 2.28562e-05 1.06912e-05 0.289672 -1.4302e-07 1.61893e-07)
(0 8.99919e-22 -8.99919e-22 26.8317 5.88866e-05 1.29966e-05 0.289672 -5.39785e-07 -2.56948e-06)
(-1.93303e-15 -4.89548e-22 1.28724e-24 26.5654 3.48716e-05 1.65161e-05 0.290959 -3.50873e-07 1.99359e-07)
(1.24014e-15 9.60939e-22 -8.87021e-22 26.5654 7.17968e-05 4.14705e-06 0.290959 -2.64061e-07 -2.59015e-06)
(7.12902e-16 7.92341e-22 -5.69147e-22 26.2995 4.94539e-05 1.62979e-05 0.292221 -2.51469e-07 1.61763e-07)
(2.85161e-15 -3.91617e-22 5.82871e-22 26.2995 8.66989e-05 3.86966e-06 0.292221 4.51621e-08 -2.63412e-06)
(1.20485e-15 -7.18147e-22 5.74517e-22 26.0314 3.52234e-05 9.65543e-06 0.293406 1.87984e-07 5.4679e-08)
(2.93206e-15 1.07722e-21 -8.61776e-22 26.0314 7.28081e-05 1.27183e-05 0.293406 4.93687e-07 -2.65557e-06)
(-7.53231e-16 -6.93927e-19 0 25.7555 1.77583e-05 -5.63277e-20 0.294438 3.37687e-07 1.95759e-53)
(0 5.66283e-22 -8.49425e-22 25.7555 8.57045e-05 3.1053e-05 0.294438 6.52777e-07 -2.61291e-06)
(-7.73549e-16 -1.31796e-18 2.43439e-19 25.4659 0.000166073 -2.41261e-05 0.295246 9.2714e-07 1.39664e-07)
(0 6.97709e-22 -2.79083e-22 25.4659 0.000261551 7.40981e-05 0.295246 1.25224e-06 -2.45291e-06)
(0 -5.50167e-22 8.2525e-22 25.1576 0.000495785 -0.000108094 0.295769 3.12564e-06 6.58416e-07)
(0 1.10033e-21 -1.10033e-21 25.1576 0.000535265 0.000178769 0.295769 3.46046e-06 -1.97919e-06)
(-8.14463e-16 -1.08456e-21 0 24.8262 0.000763003 -8.71767e-05 0.295938 6.9774e-06 4.69214e-07)
(0 0 0 24.8262 0.000802691 0.000261328 0.295938 7.32213e-06 -7.58633e-07)
(-1.12095e-15 0 -5.34509e-22 24.4645 0.000931793 0.000141436 0.295623 1.18212e-05 -1.11271e-07)
(-3.34017e-15 -2.27781e-22 0 24.4645 0.000975544 0.000284917 0.295623 1.23936e-05 1.15894e-07)
(-8.55699e-16 -5.07792e-21 0 24.059 0.000856299 0.00038787 0.294586 1.22748e-05 -1.16711e-07)
(3.42279e-15 7.3379e-21 0 24.059 0.000890737 0.000389605 0.294586 9.43667e-06 1.21547e-07)
(0 0 0 23.5862 0.000323249 0.00057985 0.292431 1.2545e-05 -1.21445e-07)
(0 -3.14979e-17 0 23.5862 0 0.000580806 0.292431 0 1.26343e-07)
(1.76175e-16 -1.3359e-21 0 23.0116 -0.000697299 0.000767912 0.2886 1.3026e-05 -1.22539e-07)
(2.51561e-15 1.23902e-20 0 23.0116 -0.000113265 0.000767644 0.2886 7.15004e-07 1.27291e-07)
(1.83628e-15 0 0 22.2925 -0.00193068 0.000892533 0.282443 1.45271e-05 -1.20316e-07)
(3.67257e-15 0 0 22.2925 -0.00190448 0.000890437 0.282443 1.49167e-05 1.24463e-07)
(0 -9.94574e-22 3.9783e-21 21.3873 -0.00300473 0.000889532 0.273355 -1.97735e-06 -1.10922e-07)
(0 9.94574e-22 0 21.3873 -0.00300164 0.000883938 0.273355 -1.5845e-06 1.13696e-07)
(-1.98763e-15 0 0 20.2677 -0.00337449 0.000714746 0.260982 -2.45389e-05 -8.80835e-08)
(1.02794e-15 0 0 20.2677 -0.0033884 0.000702823 0.260982 -2.41512e-05 8.79755e-08)
(-1.95991e-15 4.80087e-21 -1.10709e-18 18.9338 -0.00273574 0.000315519 0.245418 -2.92342e-05 -4.07177e-08)
(3.91982e-15 -8.45269e-21 0 18.9338 -0.00281177 0.000253594 0.245418 -3.09328e-05 3.5037e-08)
(-9.99496e-16 -1.45474e-17 0 17.423 -0.000496482 3.5894e-24 0.227325 -3.36873e-06 6.61744e-24)
(0 0 0 17.423 -0.00137379 -3.79096e-05 0.227325 -1.1626e-05 -6.81905e-08)
(-1.01796e-15 -1.81207e-34 0 15.8118 1.29218e-18 -0.000575869 0.20792 1.35525e-20 2.29514e-07)
(4.07185e-15 -3.04059e-20 0 15.8118 0.000605615 -0.00065678 0.20792 -8.82072e-06 -2.64844e-07)
(-1.03504e-15 3.1586e-21 0 14.206 0.00378754 -0.000933261 0.188798 -2.82056e-05 5.56996e-07)
(-9.70262e-16 0 -3.70126e-21 14.206 0.00314515 -0.00108047 0.188798 -2.30609e-05 -6.23247e-07)
(-1.14469e-15 0 0 12.7221 0.00497962 -0.00104295 0.171647 -1.37372e-05 1.13496e-06)
(-5.15845e-15 -2.0561e-17 0 12.7221 0.00272844 -0.00133601 0.171647 -1.49716e-05 -1.29063e-06)
(-2.12868e-15 1.88079e-37 0 11.4645 -5.56256e-22 -0.00104929 0.157907 1.69407e-21 2.31656e-06)
(8.51473e-15 1.51541e-15 0 11.4645 -0.0073899 -0.00131275 0.157907 5.52796e-06 -2.69851e-06)
(-5.08808e-15 -2.2684e-19 -3.2121e-21 10.5063 0.0353025 -0.000933723 0.148518 -0.000229208 2.89761e-06)
(-4.30641e-15 6.42855e-20 4.27542e-21 10.5063 8.84675e-18 -4.0835e-05 0.148518 2.71051e-20 -1.6454e-06)
(-2.00338e-15 1.34392e-16 -3.27523e-21 9.87845 4.33681e-18 0.000227077 0.143815 0 -3.39118e-06)
(4.35024e-15 -2.23589e-19 3.49358e-21 9.87845 0.0286133 0.00106606 0.143815 0.000296994 3.84778e-06)
(1.09758e-15 -1.36448e-15 0 9.57051 -0.00960924 0.00100232 0.143555 3.12791e-05 -2.68541e-06)
(0 4.81482e-35 0 9.57051 4.31193e-35 0.00067437 0.143555 2.90011e-05 2.95876e-06)
(0 0 0 9.53936 -0.00113886 0.000593301 0.147072 2.55981e-05 -1.25479e-06)
(4.42819e-15 5.7753e-21 0 9.53936 0.00131999 0.000291761 0.147072 1.54041e-05 1.39269e-06)
(0 1.37404e-17 0 9.72333 -0.000375977 0.000301264 0.153487 2.90502e-06 -6.03128e-07)
(4.46545e-15 0 0 9.72333 -5.42101e-19 0.000139099 0.153487 2.35342e-36 6.82509e-07)
(0 -3.29756e-21 -3.29756e-21 10.0562 -0.00154338 6.3497e-05 0.161895 1.83895e-05 -2.48137e-07)
(4.50339e-15 0 0 10.0562 -0.00123628 -3.30025e-38 0.161895 1.8612e-05 -2.75021e-38)
(0 3.2503e-21 5.96852e-19 10.4779 -0.00110205 -8.81806e-05 0.171494 8.43607e-06 -4.93053e-08)
(0 -3.2503e-21 0 10.4779 -0.000948342 -0.000148356 0.171494 8.777e-06 6.53401e-08)
(-2.29248e-15 0 0 10.9399 -0.000668167 -0.000192447 0.181657 1.95227e-06 5.96042e-08)
(0 0 0 10.9399 -0.000602378 -0.000215604 0.181657 2.32798e-06 -5.51434e-08)
(0 -3.35516e-21 0 11.407 -0.000343076 -0.000223484 0.191923 -1.8535e-06 1.18533e-07)
(4.62967e-15 3.35516e-21 0 11.407 -0.000322774 -0.00023573 0.191923 -1.46073e-06 -1.20611e-07)
(0 -1.00075e-18 0 11.8551 -5.46034e-05 -0.000221313 0.201974 -4.53478e-07 1.49244e-07)
(4.67736e-15 -3.89067e-22 -1.55627e-21 11.8551 -0.000118718 -0.000227564 0.201974 -3.11268e-06 -1.55014e-07)
(-1.18202e-15 0 0 12.2687 6.24137e-20 -0.00020315 0.211586 -4.23516e-22 1.64679e-07)
(0 7.66981e-22 0 12.2687 -7.79147e-06 -0.000206112 0.211586 -3.39425e-06 -1.7246e-07)
(1.19545e-15 3.72914e-22 0 12.6377 5.23133e-05 -0.000180253 0.220596 -7.39791e-07 1.71146e-07)
(-1.58542e-15 -3.77994e-22 0 12.6377 3.03493e-05 -0.000181408 0.220596 -3.11141e-06 -1.80066e-07)
(1.5627e-15 -1.11773e-21 0 12.9552 4.61497e-05 -0.000158147 0.228878 -1.0512e-06 1.73019e-07)
(-1.5627e-15 -6.30375e-19 0 12.9552 1.13849e-05 -0.000158338 0.228878 -2.69324e-06 -1.82514e-07)
(1.5403e-15 -1.10171e-21 0 13.2169 3.89308e-05 -0.000138191 0.236337 -5.46091e-07 1.72108e-07)
(0 1.10171e-21 0 13.2169 1.33718e-05 -0.000137882 0.236337 -2.53523e-06 -1.81941e-07)
(-9.61662e-16 -2.31645e-22 7.23946e-22 13.4207 3.76764e-05 -0.000120006 0.242911 -8.26079e-07 1.70078e-07)
(0 -2.8452e-19 0 13.4207 7.91876e-06 -0.000119469 0.242912 -2.2383e-06 -1.8004e-07)
(-1.25601e-15 1.33809e-21 0 13.5662 1.86349e-05 -0.000103373 0.248572 -5.16973e-07 1.67322e-07)
(0 -4.46688e-36 0 13.5662 -3.21873e-20 -0.000102773 0.248572 -2.09436e-06 -1.77383e-07)
(1.2726e-15 -1.45855e-19 0 13.6552 1.69216e-05 -8.7608e-05 0.25332 -1.55476e-07 1.64775e-07)
(-5.09041e-15 0 -3.51671e-22 13.6552 -2.24847e-06 -8.70913e-05 0.25332 -2.12574e-06 -1.74847e-07)
(1.45388e-15 -1.03989e-21 3.46631e-22 13.6907 4.26646e-05 -7.21037e-05 0.257188 -5.87588e-07 1.62708e-07)
(-5.15857e-15 1.03989e-21 0 13.6907 2.3944e-05 -7.18295e-05 0.257188 -1.93361e-06 -1.72859e-07)
(-1.30707e-15 1.48208e-21 0 13.6772 1.81125e-05 -9.57009e-05 0.260227 -1.00625e-06 1.62287e-07)
(9.0235e-15 -1.02499e-21 0 13.6772 2.82371e-05 2.28106e-06 0.260227 -1.50895e-06 -1.72485e-07)
(-8.76891e-17 1.46461e-21 5.05149e-22 13.6195 -1.45901e-05 -0.000121206 0.262491 -2.28486e-07 -4.94125e-07)
(6.71174e-15 -2.35736e-21 -5.05149e-22 13.6195 0.000296957 6.92395e-05 0.262491 -1.49121e-06 6.85958e-07)
(0 -1.45805e-22 0 13.522 7.48928e-21 -0.000110907 0.264026 5.25317e-07 -1.39677e-06)
(0 -2.44503e-36 3.31939e-22 13.522 -1.7577e-20 6.72908e-05 0.264026 0 1.27448e-06)
(1.12837e-17 0 -2.06194e-21 13.3882 0.000164381 -1.47429e-06 0.264857 -1.37268e-06 -1.77437e-06)
(4.07176e-15 -3.59984e-18 -4.81482e-35 13.3882 -0.000146508 3.36097e-22 0.264857 -1.44688e-06 0)
(-1.37938e-15 9.67477e-22 4.83739e-22 13.2205 2.57041e-05 0.000125741 0.264988 4.96835e-07 -1.32906e-06)
(-5.5175e-15 -1.02505e-17 -4.83739e-22 13.2205 1.74466e-05 -9.52225e-05 0.264988 1.74804e-07 1.50921e-06)
(1.39784e-15 -7.39821e-23 0 13.0199 7.27807e-21 0.000101631 0.2644 5.33097e-07 -1.57143e-07)
(5.59138e-15 1.2239e-21 0 13.0199 1.20631e-05 -4.1222e-05 0.2644 3.16709e-07 2.43966e-07)
(-1.41638e-15 1.72323e-21 3.13314e-22 12.7867 1.85691e-05 5.72638e-05 0.263061 7.63585e-07 -1.25868e-07)
(5.66551e-15 1.88079e-36 -3.13314e-22 12.7867 -1.36956e-20 4.3514e-05 0.263061 1.30512e-37 1.3479e-07)
(-1.43493e-15 0 0 12.5207 -2.9537e-06 6.38218e-05 0.260931 7.67922e-07 -1.22363e-07)
(0 -1.41315e-19 0 12.5207 -1.60796e-05 6.31107e-05 0.260931 1.68239e-07 1.31179e-07)
(-1.45344e-15 0 0 12.2217 -2.30465e-05 7.17058e-05 0.25798 5.45985e-07 -1.18745e-07)
(0 3.04398e-22 0 12.2217 -3.83271e-05 7.09867e-05 0.25798 6.19445e-07 1.27504e-07)
(-1.47187e-15 -1.31265e-21 -6.0007e-22 11.8904 -3.98889e-05 7.6528e-05 0.254201 1.26975e-07 -1.15125e-07)
(5.88747e-15 1.31265e-21 0 11.8904 -5.45821e-05 7.58148e-05 0.254201 3.72178e-07 1.23714e-07)
(1.49014e-15 -6.65403e-22 0 11.5289 -4.71823e-05 7.70819e-05 0.249621 -4.60614e-07 -1.11503e-07)
(0 6.65403e-22 0 11.5289 -6.12565e-05 7.63785e-05 0.249621 -2.22824e-07 1.19995e-07)
(0 -5.82992e-22 1.16598e-21 11.1408 -4.53627e-05 7.29064e-05 0.244313 -9.80133e-07 -1.07911e-07)
(0 5.82992e-22 0 11.1408 -5.88127e-05 7.22191e-05 0.244313 -8.15472e-07 1.16198e-07)
(-1.52597e-15 9.26108e-23 0 10.7315 -4.2604e-05 6.39652e-05 0.238388 -9.36045e-07 -1.04371e-07)
(0 2.87318e-22 0 10.7315 -5.54522e-05 6.32945e-05 0.238388 -1.38008e-06 1.12542e-07)
(0 -5.19506e-20 0 10.3079 -2.20448e-05 5.08977e-05 0.232001 -2.51521e-07 -1.00866e-07)
(1.23472e-14 1.9824e-21 0 10.3079 -3.84417e-05 5.02451e-05 0.232001 -1.92054e-06 1.08814e-07)
(-2.3416e-15 -5.30687e-20 -1.11656e-21 9.8784 0 3.52746e-05 0.225338 -4.23516e-22 -9.74314e-08)
(6.2417e-15 2.79141e-22 0 9.8784 -1.63476e-05 3.46367e-05 0.225338 -2.11665e-06 1.05248e-07)
(-3.88504e-15 -1.80782e-19 -1.10056e-21 9.45155 3.4068e-06 1.87434e-05 0.2186 -4.00086e-08 -9.39961e-08)
(-6.30798e-15 -1.10056e-21 0 9.45155 -1.0261e-08 1.81229e-05 0.2186 -2.16427e-06 1.01573e-07)
(-3.86804e-15 7.7783e-22 0 9.03591 3.02343e-05 2.9681e-06 0.211986 -4.85937e-07 -9.06601e-08)
(-6.37233e-15 -5.42393e-22 -1.09606e-19 9.03591 1.95966e-05 -1.32501e-21 0.211986 -1.98643e-06 -1.32349e-23)
(0 5.3462e-22 0 8.63918 3.97532e-05 -1.05732e-05 0.205682 -9.5838e-07 -8.73404e-08)
(-2.24236e-15 -2.6731e-22 -1.06924e-21 8.63918 2.95977e-05 -1.0122e-05 0.205682 -1.57065e-06 9.45262e-08)
(0 2.63479e-22 0 8.26769 4.3941e-05 -2.10305e-05 0.19984 -9.63765e-07 -8.41308e-08)
(6.495e-15 0 0 8.26769 3.42879e-05 -2.15971e-05 0.19984 -1.14975e-06 9.11723e-08)
(-5.40195e-16 1.29851e-21 -2.07762e-21 7.92606 4.66026e-05 -2.78398e-05 0.194581 -7.89369e-07 -8.09178e-08)
(0 -1.16866e-21 0 7.92607 3.74243e-05 -2.83886e-05 0.194581 -6.11929e-07 8.7693e-08)
(0 -1.63187e-21 0 7.61715 3.80735e-05 -3.10532e-05 0.189983 -2.77453e-07 -7.78304e-08)
(1.32199e-14 1.63187e-21 0 7.61715 2.93532e-05 -3.15851e-05 0.189983 -1.0586e-07 8.44553e-08)
(0 -3.46928e-22 1.00924e-21 7.34199 2.85198e-05 -3.13671e-05 0.186083 7.09683e-08 -7.47317e-08)
(1.33297e-14 4.73083e-22 0 7.34199 2.02449e-05 -3.18814e-05 0.186083 2.36831e-07 8.10795e-08)
(-3.35913e-15 0 0 7.10008 2.02345e-05 -2.95219e-05 0.182886 3.56784e-07 -7.17748e-08)
(0 0 0 7.10008 1.23813e-05 -3.00188e-05 0.182886 1.83729e-07 7.79668e-08)
(-1.69261e-15 0 0 6.88974 1.00645e-05 -2.63552e-05 0.180363 5.03704e-07 -6.88034e-08)
(1.35408e-14 -2.25695e-36 0 6.88974 -7.19978e-21 -2.68348e-05 0.180363 -1.05879e-22 7.47114e-08)
(1.70538e-15 -2.41617e-22 0 6.70833 4.7903e-06 -2.26042e-05 0.178468 5.32861e-07 -6.59789e-08)
(0 2.41617e-22 0 6.70833 -2.25581e-06 -2.30675e-05 0.178468 4.77235e-08 7.17293e-08)
(-1.71795e-15 0 0 6.5526 9.9067e-07 -1.87161e-05 0.177134 5.47127e-07 -6.31321e-08)
(0 1.19077e-22 0 6.5526 -5.38996e-06 -1.91627e-05 0.177134 7.31287e-08 6.85885e-08)
(-1.73036e-15 -6.63561e-23 0 6.41886 0 -1.4961e-05 0.176279 4.78146e-07 -6.04446e-08)
(6.92145e-15 -2.24764e-23 0 6.41886 -6.8042e-06 -1.53909e-05 0.176279 2.35673e-07 6.57411e-08)
(-3.68358e-15 -1.07322e-20 0 6.30314 2.25182e-06 -1.12269e-05 0.175811 4.56012e-07 -5.7731e-08)
(6.97064e-15 2.00537e-23 0 6.30314 -3.14362e-06 -1.16404e-05 0.175811 1.38259e-07 6.27324e-08)
(-3.50977e-15 0 0 6.20121 3.63393e-06 -7.26342e-06 0.175625 4.8281e-07 -5.51842e-08)
(0 0 0 6.20121 -1.97663e-06 -7.66084e-06 0.175625 3.66102e-08 6.0026e-08)
(-1.76707e-15 2.24791e-22 0 6.10863 2.94968e-06 -3.03622e-06 0.1756 4.8811e-07 -5.26106e-08)
(0 -2.24791e-22 0 6.10863 -2.33289e-06 -3.41778e-06 0.1756 7.56922e-08 5.71516e-08)
(0 -3.4498e-20 0 6.02076 6.16422e-06 1.74126e-06 0.175606 5.00259e-07 -5.02058e-08)
(-7.11703e-15 1.17479e-22 0 6.02076 2.99557e-06 1.37585e-06 0.175606 2.35173e-07 5.45903e-08)
(1.79146e-15 -2.18394e-22 0 5.93282 6.15578e-06 7.30192e-06 0.175502 6.57402e-07 -4.77782e-08)
(7.16583e-15 0 0 5.93282 2.11758e-22 6.95207e-06 0.175502 1.05879e-22 5.18628e-08)
(1.80369e-15 -2.15264e-22 0 5.84004 -2.53633e-06 1.30585e-05 0.175139 6.19899e-07 -4.55246e-08)
(-7.21474e-15 -1.08421e-22 0 5.84004 -6.94008e-06 1.27237e-05 0.175139 1.50781e-07 4.94542e-08)
(-3.59583e-15 -1.27161e-20 0 5.73788 0 1.86123e-05 0.174374 5.2268e-07 -4.32398e-08)
(7.26378e-15 9.71493e-23 0 5.73788 -4.83613e-06 1.82917e-05 0.174374 2.66746e-07 4.68688e-08)
(0 2.09137e-22 0 5.62227 -5.29247e-07 2.40855e-05 0.173073 5.44039e-07 -4.1123e-08)
(0 -1.04569e-22 0 5.62227 -1.68969e-06 2.37795e-05 0.173073 2.61057e-08 4.46024e-08)
(-3.45845e-15 2.0614e-22 -8.2456e-22 5.48996 -2.97027e-06 2.93367e-05 0.171126 4.53376e-07 -3.89795e-08)
(5.63279e-15 -3.43611e-23 0 5.48996 -6.59844e-06 2.90447e-05 0.171126 2.4697e-07 4.21629e-08)
(1.85275e-15 -5.57506e-23 0 5.33878 3.50575e-21 3.44364e-05 0.168457 4.01725e-07 -3.701e-08)
(0 1.01593e-22 0 5.33878 -2.78011e-06 3.41586e-05 0.168457 1.6616e-07 4.0049e-08)
(0 1.00137e-22 0 5.16797 3.59185e-06 3.98107e-05 0.165035 4.26738e-07 -3.50144e-08)
(-7.45965e-15 -3.7032e-22 0 5.16797 4.12267e-07 3.95462e-05 0.165035 3.6491e-08 3.7761e-08)
(-1.65593e-15 -9.87014e-23 -1.57922e-21 4.97824 8.19957e-06 4.5983e-05 0.160879 4.73467e-07 -3.31876e-08)
(0 9.87014e-23 0 4.97824 5.22762e-06 4.57319e-05 0.160879 3.07739e-07 3.57986e-08)
(0 9.72868e-23 0 4.77192 1.32478e-05 5.3652e-05 0.156064 6.54296e-07 -3.13349e-08)
(0 0 0 4.77192 1.04725e-05 5.3413e-05 0.156064 3.88486e-07 3.36601e-08)
(1.90034e-15 1.91785e-22 0 4.55273 1.52745e-05 6.33842e-05 0.150714 8.74271e-07 -2.96451e-08)
(0 -1.91785e-22 0 4.55273 1.26838e-05 6.31578e-05 0.150714 4.6686e-07 3.18419e-08)
(1.9116e-15 0 0 4.32563 1.72863e-05 7.55739e-05 0.144995 1.13206e-06 -2.79324e-08)
(-3.1715e-15 -1.89036e-22 0 4.32563 1.48718e-05 7.53592e-05 0.144995 5.50551e-07 2.98516e-08)
(-3.84495e-15 -7.64053e-23 0 4.0963 1.30179e-05 9.01897e-05 0.139106 1.15524e-06 -2.63797e-08)
(7.6899e-15 7.32217e-22 0 4.0963 1.07654e-05 8.99867e-05 0.139106 1.93621e-07 2.81809e-08)
(-1.93294e-15 -6.52224e-23 0 3.87074 6.55471e-06 0.000106588 0.133253 1.07931e-06 -2.47988e-08)
(0 0 0 3.87074 4.46277e-06 0.000106395 0.133253 1.19912e-07 2.63313e-08)
(0 0 0 3.65466 -2.22975e-06 0.000123742 0.127641 1.00805e-06 -2.33616e-08)
(0 0 -2.89638e-21 3.65466 -1.27055e-20 0.00012356 0.127641 0 2.47865e-08)
(0 0 0 3.45303 -1.78008e-05 0.000139874 0.122446 9.41119e-07 -2.19117e-08)
(0 0 0 3.45303 -1.9606e-05 0.000139703 0.122446 4.2124e-07 2.30784e-08)
(-2.95064e-15 -1.75872e-22 -2.81395e-21 3.26966 -3.02366e-05 0.000152812 0.117806 9.39332e-07 -2.06124e-08)
(0 0 0 3.26966 -3.19143e-05 0.000152651 0.117806 1.00314e-06 2.16829e-08)
(0 4.33378e-23 0 3.10692 -4.27324e-05 0.000160462 0.113811 3.01368e-07 -1.92945e-08)
(1.57633e-14 0 -5.54724e-21 3.10692 -4.4282e-05 0.000160309 0.113811 3.72031e-07 2.01195e-08)
(-3.95754e-15 0 0 2.96567 -5.57947e-05 0.000160548 0.110495 -6.6264e-07 -1.81109e-08)
(7.91507e-15 0 0 2.96567 -5.72285e-05 0.000160406 0.110495 -5.93984e-07 1.88511e-08)
(1.9868e-15 0 5.38937e-21 2.84529 -6.18331e-05 0.000151165 0.107839 -1.83223e-06 -1.69128e-08)
(0 0 0 2.84529 -6.31565e-05 0.000151031 0.107839 -1.76548e-06 1.74206e-08)
(0 0 0 2.74394 -5.88979e-05 0.000131564 0.105783 -2.15583e-06 -1.5842e-08)
(-1.07634e-14 4.38241e-22 -5.31212e-21 2.74394 -6.01166e-05 0.000131439 0.105783 -2.20153e-06 1.62793e-08)
(-2.00213e-15 3.27281e-22 0 2.65888 -4.99186e-05 0.000102184 0.104231 -1.78455e-06 -1.47594e-08)
(5.26334e-15 -1.25057e-21 0 2.65888 -5.10323e-05 0.000102066 0.104231 -1.8268e-06 1.49789e-08)
(0 0 0 2.58687 -3.56052e-05 6.4448e-05 0.103069 -1.06359e-06 -1.38107e-08)
(0 0 0 2.58687 -3.66501e-05 6.43399e-05 0.103069 -1.10507e-06 1.39716e-08)
(0 -1.26415e-19 2.48277e-19 2.52452 -5.21219e-06 2.73368e-06 0.102178 -1.05943e-07 -1.28558e-08)
(0 0 0 2.52452 -1.54391e-05 0 0.102178 -5.30836e-07 3.30872e-24)
(-2.02399e-15 2.10649e-35 0 2.46867 7.75206e-20 -3.76235e-06 0.101448 -1.69407e-21 -1.19795e-08)
(0 0 0 2.46867 8.94445e-06 -3.96374e-06 0.101448 -4.93536e-07 1.18935e-08)
(-4.06224e-15 5.66592e-22 4.9422e-21 2.41666 3.27764e-05 -6.87904e-05 0.100787 -9.21369e-07 -1.10981e-08)
(1.6249e-14 -4.7105e-21 0 2.41666 3.19877e-05 -6.888e-05 0.100787 -8.88483e-07 1.08248e-08)
(0 0 0 2.36647 5.10014e-05 -0.000107225 0.100127 -1.82808e-06 -1.03331e-08)
(0 0 0 2.36647 5.02597e-05 -0.000107307 0.100127 -1.79497e-06 1.00284e-08)
(-2.51739e-15 0 -4.80155e-21 2.3168 6.21294e-05 -0.000137185 0.0994293 -2.50696e-06 -9.56588e-09)
(-2.51739e-15 0 0 2.3168 6.14615e-05 -0.000137262 0.0994293 -2.47712e-06 9.08976e-09)
(-3.67544e-15 0 4.73273e-21 2.26702 6.55678e-05 -0.00015686 0.0986791 -1.61368e-06 -8.88747e-09)
(1.6418e-14 0 0 2.26702 6.49597e-05 -0.00015693 0.0986791 -1.56028e-06 8.39515e-09)
(0 -1.45778e-22 0 2.21714 6.12876e-05 -0.000165729 0.0978868 -1.76488e-07 -8.20733e-09)
(1.64737e-14 1.45778e-22 0 2.21714 6.07328e-05 -0.000165795 0.0978868 -1.24149e-07 7.55924e-09)
(-2.06611e-15 0 0 2.16758 5.08654e-05 -0.000164538 0.09708 1.09375e-06 -7.60502e-09)
(-2.41069e-15 0 0 2.16758 5.03584e-05 -0.000164598 0.09708 1.14496e-06 6.95416e-09)
(4.4491e-15 9.01292e-23 0 2.11912 3.81314e-05 -0.00015489 0.0962992 1.45243e-06 -7.00442e-09)
(1.42075e-14 7.98855e-22 0 2.11912 3.76758e-05 -0.000154946 0.0962992 1.43272e-06 6.20953e-09)
(0 0 0 2.07264 2.22264e-05 -0.000139044 0.0955893 5.99225e-07 -6.48023e-09)
(8.31896e-15 1.27367e-21 0 2.07264 2.1805e-05 -0.000139095 0.0955893 5.79922e-07 5.69106e-09)
(2.08645e-15 3.89854e-22 0 2.02902 7.5704e-06 -0.000119609 0.0949929 3.12626e-07 -5.95975e-09)
(0 0 0 2.02902 3.88702e-06 -0.000119657 0.0949929 9.12775e-08 5.05368e-09)
(1.91078e-15 7.96713e-22 0 1.98898 -3.18798e-06 -9.88867e-05 0.0945464 3.03151e-07 -5.48638e-09)
(8.37243e-15 1.78349e-21 0 1.98898 -3.60086e-07 -9.89304e-05 0.0945464 8.57873e-09 4.58976e-09)
(0 0 0 1.95303 -1.15985e-05 -7.8726e-05 0.0942751 4.15909e-07 -5.01671e-09)
(0 0 -1.06946e-21 1.95303 -1.19097e-05 -7.8766e-05 0.0942751 4.30896e-07 4.01361e-09)
(2.21067e-15 0 0 1.9214 -1.62895e-05 -6.04971e-05 0.0941904 7.07564e-07 -4.60876e-09)
(8.42504e-15 1.07242e-21 0 1.9214 -1.65755e-05 -6.05331e-05 0.0941904 7.22666e-07 3.63467e-09)
(4.22556e-15 3.52241e-22 0 1.89399 -1.79331e-05 -4.49734e-05 0.0942895 8.91569e-07 -4.19836e-09)
(0 0 0 1.89399 -1.81876e-05 -4.50071e-05 0.0942895 9.04504e-07 3.13921e-09)
(4.26705e-15 1.13856e-22 0 1.87046 -1.70856e-05 -3.24074e-05 0.0945563 8.93036e-07 -3.84907e-09)
(8.47715e-15 4.73615e-22 0 1.87046 -1.73192e-05 -3.24379e-05 0.0945563 9.05432e-07 2.80402e-09)
(2.11698e-15 0 0 1.85021 -1.52449e-05 -2.26973e-05 0.0949626 8.31506e-07 -3.46985e-09)
(6.38619e-15 2.76177e-22 0 1.85021 -1.54554e-05 -2.27255e-05 0.0949626 8.42683e-07 2.39889e-09)
(-2.13231e-15 -2.82166e-23 0 1.83248 -1.22877e-05 -1.55042e-05 0.0954701 7.29283e-07 -3.22164e-09)
(-8.52924e-15 -1.31567e-22 0 1.83248 -1.24782e-05 -1.55296e-05 0.0954701 7.39661e-07 2.08263e-09)
(-4.19558e-15 -1.37485e-22 -1.22591e-22 1.81638 -9.56097e-06 -1.03644e-05 0.0960343 5.46318e-07 -2.80531e-09)
(0 0 0 1.81638 -9.73409e-06 -1.03882e-05 0.0960343 5.55732e-07 1.84999e-09)
(-2.14544e-15 0 0 1.80097 -7.18495e-06 -6.84101e-06 0.0966069 4.33859e-07 -2.85841e-09)
(-8.58177e-15 -3.42084e-24 0 1.80097 -7.34303e-06 -6.86248e-06 0.0966069 4.69912e-07 1.46297e-09)
(1.99819e-15 0 0 1.78533 -4.89708e-06 -4.51007e-06 0.0971382 2.57249e-07 -2.10377e-09)
(0 0 0 1.78533 -5.04e-06 -4.53001e-06 0.0971382 3.01389e-07 1.8716e-09)