/*--------------------------------*- C++ -*----------------------------------*\
| =========                 |                                                 |
| \\      /  F ield         | OpenFOAM: The Open Source CFD Toolbox           |
|  \\    /   O peration     | Version:  2012                                  |
|   \\  /    A nd           | Website:  www.openfoam.com                      |
|    \\/     M anipulation  |                                                 |
\*---------------------------------------------------------------------------*/
FoamFile
{
    version     2.0;
    format      ascii;
    class       volScalarField;
    location    "11000";
    object      k;
}
// * * * * * * * * * * * * * * * * * * * * * * * * * * * * * * * * * * * * * //

dimensions      [0 2 -2 0 0 0 0];


internalField   nonuniform List<scalar> 
2560
(
1.60743e-07
1.60743e-07
2.64606e-08
2.64606e-08
2.76855e-08
2.76855e-08
7.91241e-08
7.91241e-08
2.00962e-07
2.00962e-07
4.2781e-07
4.2781e-07
8.01676e-07
8.01676e-07
1.37106e-06
1.37106e-06
2.19097e-06
2.19097e-06
3.32319e-06
3.32319e-06
4.83661e-06
4.83661e-06
6.80768e-06
6.80768e-06
9.32082e-06
9.32082e-06
1.2469e-05
1.24689e-05
1.6354e-05
1.6354e-05
2.10874e-05
2.10874e-05
2.67907e-05
2.67907e-05
3.35961e-05
3.35961e-05
4.16469e-05
4.16469e-05
5.10982e-05
5.10982e-05
6.21173e-05
6.21173e-05
7.48841e-05
7.48841e-05
8.95914e-05
8.95914e-05
0.000106446
0.000106446
0.000125666
0.000125666
0.000147486
0.000147486
0.000172151
0.000172151
0.000199921
0.000199921
0.000231067
0.000231067
0.000265869
0.000265869
0.000304619
0.000304619
0.000347617
0.000347617
0.000395165
0.000395165
0.00044757
0.00044757
0.000505135
0.000505134
0.000568158
0.000568158
0.000636927
0.000636927
0.000711713
0.000711713
0.000792767
0.000792767
0.00088031
0.00088031
0.000974534
0.000974534
0.00107559
0.00107559
0.00118358
0.00118358
0.00129855
0.00129855
0.00142051
0.00142051
0.00154935
0.00154935
0.00168492
0.00168492
0.00182698
0.00182698
0.00197519
0.00197519
0.00212913
0.00212913
0.0022883
0.0022883
0.00245211
0.00245211
0.00261991
0.00261991
0.00279102
0.00279102
0.00296475
0.00296475
0.00314051
0.00314051
0.0033179
0.0033179
0.00349685
0.00349685
0.00367772
0.00367772
0.00386138
0.00386138
0.00404917
0.00404917
0.00424274
0.00424274
0.00444386
0.00444386
0.0046542
0.0046542
0.00487509
0.00487509
0.00510744
0.00510744
0.00535168
0.00535168
0.00560777
0.00560776
0.00587517
0.00587517
0.00615297
0.00615297
0.00643982
0.00643982
0.00673407
0.00673407
0.00703379
0.00703379
0.00733684
0.00733684
0.00764094
0.00764094
0.00794372
0.00794372
0.00824279
0.00824279
0.00853578
0.00853578
0.00882041
0.00882041
0.00909452
0.00909452
0.00935613
0.00935613
0.00960348
0.00960348
0.00983501
0.00983501
0.0100494
0.0100494
0.0102456
0.0102456
0.0104227
0.0104227
0.0105801
0.0105801
0.0107172
0.0107172
0.0108341
0.0108341
0.0109306
0.0109306
0.0110072
0.0110072
0.0110643
0.0110643
0.011103
0.011103
0.0111244
0.0111244
0.0111298
0.0111298
0.0111211
0.0111211
0.0110999
0.0110999
0.0110681
0.0110681
0.0110276
0.0110276
0.0109802
0.0109802
0.0109276
0.0109276
0.0108713
0.0108713
0.0108125
0.0108125
0.0107523
0.0107523
0.0106914
0.0106914
0.0106304
0.0106304
0.0105696
0.0105696
0.010509
0.010509
0.0104487
0.0104487
0.0103884
0.0103884
0.0103276
0.0103276
0.010266
0.010266
0.0102028
0.0102028
0.0101377
0.0101377
0.0100699
0.0100699
0.00999889
0.00999889
0.00992434
0.00992434
0.00984593
0.00984593
0.00976356
0.00976356
0.00967735
0.00967735
0.00958764
0.00958764
0.00949499
0.00949499
0.00940016
0.00940016
0.00930405
0.00930405
0.00920766
0.00920766
0.00911203
0.00911203
0.00901817
0.00901817
0.00892703
0.00892703
0.00883941
0.00883941
0.008756
0.008756
0.00867729
0.00867729
0.00860364
0.00860364
0.00853524
0.00853524
0.00847216
0.00847216
0.00841435
0.00841435
0.00836169
0.00836169
0.00831399
0.00831399
0.00827104
0.00827104
0.0082326
0.0082326
0.00819847
0.00819847
0.00816843
0.00816843
0.00814231
0.00814231
0.00811995
0.00811995
0.00810122
0.00810122
0.00808598
0.00808598
0.00807412
0.00807412
0.00806551
0.00806551
0.00806001
0.00806001
0.00805746
0.00805746
0.00805767
0.00805767
0.00806044
0.00806044
0.00806554
0.00806554
0.00807272
0.00807272
0.00808172
0.00808172
0.00809226
0.00809226
0.00810408
0.00810408
0.00811693
0.00811693
0.00813058
0.00813058
0.00814483
0.00814483
0.00815952
0.00815952
0.00817454
0.00817454
0.00818984
0.00818984
0.00820543
0.00820543
0.00822139
0.00822139
0.00823785
0.00823785
0.00825501
0.00825501
0.00827312
0.00827312
0.00829249
0.00829249
0.00831343
0.00831343
0.00833629
0.00833629
0.0083614
0.0083614
0.00838909
0.00838909
0.00841962
0.00841962
0.00845322
0.00845322
0.00849003
0.00849003
0.00853012
0.00853012
0.00857345
0.00857345
0.00861986
0.00861986
0.00866909
0.00866909
0.00872075
0.00872075
0.00877432
0.00877432
0.00882916
0.00882916
0.00888452
0.00888452
0.00893955
0.00893955
0.00899333
0.00899333
0.0090449
0.0090449
0.00909328
0.00909328
0.00913753
0.00913753
0.0091768
0.0091768
0.00921033
0.00921033
0.00923749
0.00923749
0.00925781
0.00925781
0.00927102
0.00927102
0.00927696
0.00927696
0.00927569
0.00927569
0.00926735
0.00926735
0.00925225
0.00925225
0.00923078
0.00923078
0.00920338
0.00920338
0.00917056
0.00917056
0.00913284
0.00913284
0.00909076
0.00909076
0.00904483
0.00904483
0.00899556
0.00899556
0.00894341
0.00894341
0.00888884
0.00888884
0.00883227
0.00883227
0.00877408
0.00877408
0.00871466
0.00871466
0.00865439
0.00865439
0.00859364
0.00859364
0.0085328
0.0085328
0.00847226
0.00847226
0.00841246
0.00841246
0.00835383
0.00835383
0.00829682
0.00829682
0.00824189
0.00824189
0.00818947
0.00818947
0.00813999
0.00813999
0.00809381
0.00809381
0.00805124
0.00805124
0.0080125
0.0080125
0.00797773
0.00797773
0.00794696
0.00794696
0.00792012
0.00792012
0.00789699
0.00789699
0.00787724
0.00787724
0.00786041
0.00786041
0.00784592
0.00784592
0.00783307
0.00783307
0.00782109
0.00782109
0.00780912
0.00780912
0.00779633
0.00779633
0.00778191
0.00778191
0.00776511
0.00776511
0.00774536
0.00774536
0.00772221
0.00772221
0.00769544
0.00769544
0.00766498
0.00766498
0.00763096
0.00763096
0.00759366
0.00759366
0.00755346
0.00755346
0.0075108
0.0075108
0.00746617
0.00746617
0.00742
0.00742
0.00737271
0.00737271
0.00732464
0.00732464
0.00727605
0.00727605
0.0072271
0.0072271
0.00717788
0.00717788
0.00712841
0.00712841
0.00707864
0.00707864
0.00702845
0.00702845
0.00697771
0.00697771
0.00692625
0.00692625
0.0068739
0.0068739
0.00682049
0.00682049
0.00676587
0.00676587
0.00670989
0.00670989
0.00665245
0.00665245
0.00659345
0.00659345
0.00653286
0.00653286
0.00647065
0.00647065
0.00640684
0.00640684
0.0063415
0.0063415
0.00627471
0.00627471
0.00620658
0.00620658
0.00613726
0.00613726
0.0060669
0.0060669
0.00599566
0.00599566
0.00592369
0.00592369
0.00585115
0.00585115
0.00577814
0.00577814
0.00570478
0.00570478
0.00563114
0.00563114
0.00555729
0.00555729
0.00548328
0.00548328
0.00540916
0.00540916
0.00533497
0.00533497
0.00526078
0.00526078
0.00518667
0.00518667
0.00511273
0.00511273
0.00503907
0.00503907
0.00496582
0.00496582
0.00489311
0.00489311
0.00482105
0.00482105
0.00474976
0.00474976
0.00467933
0.00467933
0.00460983
0.00460983
0.0045413
0.0045413
0.00447374
0.00447374
0.00440714
0.00440714
0.00434147
0.00434147
0.00427667
0.00427667
0.00421268
0.00421268
0.00414945
0.00414945
0.00408696
0.00408696
0.00402519
0.00402519
0.00396418
0.00396418
0.00390401
0.00390401
0.00384481
0.00384481
0.00378678
0.00378678
0.00373016
0.00373016
0.00367523
0.00367523
0.00362234
0.00362234
0.00357184
0.00357184
0.00352411
0.00352411
0.00347952
0.00347952
0.00343841
0.00343841
0.00340112
0.00340112
0.00336789
0.00336789
0.00333891
0.00333891
0.00331425
0.00331425
0.00329385
0.00329385
0.00327745
0.00327745
0.0032646
0.0032646
0.00325456
0.00325456
0.00324636
0.00324636
0.00323896
0.00323896
0.00322963
0.00322963
1.60743e-07
1.60743e-07
2.64606e-08
2.64606e-08
2.76855e-08
2.76855e-08
7.91241e-08
7.91241e-08
2.00962e-07
2.00962e-07
4.2781e-07
4.2781e-07
8.01676e-07
8.01676e-07
1.37106e-06
1.37106e-06
2.19097e-06
2.19097e-06
3.32319e-06
3.32319e-06
4.83661e-06
4.83661e-06
6.80768e-06
6.80768e-06
9.32082e-06
9.32082e-06
1.24689e-05
1.24689e-05
1.6354e-05
1.6354e-05
2.10874e-05
2.10874e-05
2.67907e-05
2.67907e-05
3.35961e-05
3.35961e-05
4.16469e-05
4.16469e-05
5.10982e-05
5.10982e-05
6.21173e-05
6.21173e-05
7.48841e-05
7.48841e-05
8.95914e-05
8.95914e-05
0.000106446
0.000106446
0.000125666
0.000125666
0.000147486
0.000147486
0.000172151
0.000172151
0.000199921
0.000199921
0.000231067
0.000231067
0.000265869
0.000265869
0.000304619
0.000304619
0.000347617
0.000347617
0.000395165
0.000395165
0.000447569
0.000447569
0.000505134
0.000505134
0.000568158
0.000568158
0.000636927
0.000636927
0.000711713
0.000711713
0.000792767
0.000792767
0.00088031
0.00088031
0.000974534
0.000974534
0.00107559
0.00107559
0.00118358
0.00118358
0.00129855
0.00129855
0.00142051
0.00142051
0.00154935
0.00154935
0.00168492
0.00168492
0.00182698
0.00182698
0.00197519
0.00197519
0.00212913
0.00212913
0.0022883
0.0022883
0.00245211
0.00245211
0.00261991
0.00261991
0.00279102
0.00279102
0.00296475
0.00296475
0.00314051
0.00314051
0.0033179
0.0033179
0.00349685
0.00349685
0.00367772
0.00367772
0.00386138
0.00386138
0.00404917
0.00404917
0.00424274
0.00424274
0.00444386
0.00444386
0.0046542
0.0046542
0.00487509
0.00487509
0.00510744
0.00510744
0.00535168
0.00535168
0.00560776
0.00560776
0.00587517
0.00587517
0.00615297
0.00615297
0.00643982
0.00643982
0.00673407
0.00673407
0.00703379
0.00703379
0.00733684
0.00733684
0.00764094
0.00764094
0.00794372
0.00794372
0.00824279
0.00824279
0.00853578
0.00853578
0.00882041
0.00882041
0.00909452
0.00909452
0.00935613
0.00935613
0.00960348
0.00960348
0.00983501
0.00983501
0.0100494
0.0100494
0.0102456
0.0102456
0.0104227
0.0104227
0.01058
0.01058
0.0107172
0.0107172
0.0108341
0.0108341
0.0109306
0.0109306
0.0110072
0.0110072
0.0110643
0.0110643
0.011103
0.011103
0.0111244
0.0111244
0.0111298
0.0111298
0.0111211
0.0111211
0.0110999
0.0110999
0.0110681
0.0110681
0.0110276
0.0110276
0.0109802
0.0109802
0.0109276
0.0109276
0.0108713
0.0108713
0.0108125
0.0108125
0.0107523
0.0107523
0.0106914
0.0106914
0.0106304
0.0106304
0.0105696
0.0105696
0.010509
0.010509
0.0104487
0.0104487
0.0103884
0.0103884
0.0103276
0.0103276
0.010266
0.010266
0.0102028
0.0102028
0.0101377
0.0101377
0.0100699
0.0100699
0.00999889
0.00999889
0.00992434
0.00992434
0.00984593
0.00984593
0.00976356
0.00976356
0.00967735
0.00967735
0.00958764
0.00958764
0.00949499
0.00949499
0.00940016
0.00940016
0.00930404
0.00930404
0.00920765
0.00920765
0.00911202
0.00911202
0.00901817
0.00901817
0.00892703
0.00892703
0.00883941
0.00883941
0.008756
0.008756
0.00867729
0.00867729
0.00860364
0.00860364
0.00853524
0.00853524
0.00847216
0.00847216
0.00841435
0.00841435
0.00836169
0.00836169
0.00831399
0.00831399
0.00827104
0.00827104
0.0082326
0.0082326
0.00819847
0.00819847
0.00816843
0.00816843
0.00814231
0.00814231
0.00811995
0.00811995
0.00810122
0.00810122
0.00808598
0.00808598
0.00807412
0.00807412
0.00806551
0.00806551
0.00806001
0.00806001
0.00805746
0.00805746
0.00805767
0.00805767
0.00806044
0.00806044
0.00806554
0.00806554
0.00807272
0.00807272
0.00808172
0.00808172
0.00809226
0.00809226
0.00810408
0.00810408
0.00811693
0.00811693
0.00813058
0.00813058
0.00814483
0.00814483
0.00815952
0.00815952
0.00817454
0.00817454
0.00818984
0.00818984
0.00820543
0.00820543
0.00822139
0.00822139
0.00823785
0.00823785
0.00825501
0.00825501
0.00827312
0.00827312
0.00829249
0.00829249
0.00831343
0.00831343
0.00833629
0.00833629
0.0083614
0.0083614
0.00838908
0.00838908
0.00841962
0.00841962
0.00845322
0.00845322
0.00849003
0.00849003
0.00853012
0.00853012
0.00857345
0.00857345
0.00861986
0.00861986
0.00866909
0.00866909
0.00872075
0.00872075
0.00877432
0.00877432
0.00882916
0.00882916
0.00888452
0.00888452
0.00893955
0.00893955
0.00899333
0.00899333
0.00904489
0.00904489
0.00909327
0.00909327
0.00913753
0.00913753
0.0091768
0.0091768
0.00921033
0.00921033
0.00923748
0.00923748
0.00925781
0.00925781
0.00927102
0.00927102
0.00927696
0.00927696
0.00927568
0.00927568
0.00926735
0.00926735
0.00925225
0.00925225
0.00923078
0.00923078
0.00920338
0.00920338
0.00917056
0.00917056
0.00913284
0.00913284
0.00909076
0.00909076
0.00904483
0.00904483
0.00899556
0.00899556
0.00894341
0.00894341
0.00888884
0.00888884
0.00883227
0.00883227
0.00877408
0.00877408
0.00871466
0.00871466
0.00865439
0.00865439
0.00859364
0.00859364
0.0085328
0.0085328
0.00847226
0.00847226
0.00841246
0.00841246
0.00835383
0.00835383
0.00829682
0.00829682
0.00824189
0.00824189
0.00818947
0.00818947
0.00813999
0.00813999
0.00809381
0.00809381
0.00805124
0.00805124
0.0080125
0.0080125
0.00797773
0.00797773
0.00794696
0.00794696
0.00792012
0.00792012
0.00789699
0.00789699
0.00787724
0.00787724
0.00786041
0.00786041
0.00784592
0.00784592
0.00783307
0.00783307
0.00782108
0.00782108
0.00780912
0.00780912
0.00779633
0.00779633
0.0077819
0.0077819
0.00776511
0.00776511
0.00774536
0.00774536
0.00772221
0.00772221
0.00769544
0.00769544
0.00766498
0.00766498
0.00763096
0.00763096
0.00759366
0.00759366
0.00755346
0.00755346
0.0075108
0.0075108
0.00746616
0.00746616
0.00742
0.00742
0.00737271
0.00737271
0.00732464
0.00732464
0.00727604
0.00727604
0.0072271
0.0072271
0.00717788
0.00717788
0.00712841
0.00712841
0.00707864
0.00707864
0.00702845
0.00702845
0.0069777
0.0069777
0.00692625
0.00692625
0.0068739
0.0068739
0.00682049
0.00682049
0.00676587
0.00676587
0.00670989
0.00670989
0.00665245
0.00665245
0.00659345
0.00659345
0.00653286
0.00653286
0.00647065
0.00647065
0.00640684
0.00640684
0.0063415
0.0063415
0.0062747
0.0062747
0.00620658
0.00620658
0.00613725
0.00613725
0.0060669
0.0060669
0.00599566
0.00599566
0.00592369
0.00592369
0.00585115
0.00585115
0.00577814
0.00577814
0.00570478
0.00570478
0.00563114
0.00563114
0.00555729
0.00555729
0.00548328
0.00548328
0.00540916
0.00540916
0.00533497
0.00533497
0.00526078
0.00526078
0.00518667
0.00518667
0.00511273
0.00511273
0.00503907
0.00503907
0.00496582
0.00496582
0.00489311
0.00489311
0.00482105
0.00482105
0.00474976
0.00474976
0.00467933
0.00467933
0.00460983
0.00460983
0.0045413
0.0045413
0.00447374
0.00447374
0.00440714
0.00440714
0.00434147
0.00434147
0.00427667
0.00427667
0.00421268
0.00421268
0.00414945
0.00414945
0.00408696
0.00408696
0.00402519
0.00402519
0.00396418
0.00396418
0.00390401
0.00390401
0.00384481
0.00384481
0.00378678
0.00378678
0.00373016
0.00373016
0.00367524
0.00367524
0.00362234
0.00362234
0.00357184
0.00357184
0.00352411
0.00352411
0.00347952
0.00347952
0.00343842
0.00343842
0.00340112
0.00340112
0.00336789
0.00336789
0.00333891
0.00333891
0.00331425
0.00331425
0.00329385
0.00329385
0.00327745
0.00327745
0.0032646
0.0032646
0.00325456
0.00325456
0.00324636
0.00324637
0.00323896
0.00323896
0.00322963
0.00322963
0.00322963
0.00322963
0.00323897
0.00323897
0.00324637
0.00324637
0.00325457
0.00325457
0.00326462
0.00326462
0.00327747
0.00327747
0.00329387
0.00329387
0.00331428
0.00331428
0.00333894
0.00333894
0.00336791
0.00336791
0.00340113
0.00340113
0.00343842
0.00343842
0.00347951
0.00347951
0.0035241
0.0035241
0.00357184
0.00357184
0.00362235
0.00362235
0.00367525
0.00367525
0.00373018
0.00373018
0.0037868
0.0037868
0.00384483
0.00384483
0.00390403
0.00390403
0.0039642
0.0039642
0.00402522
0.00402522
0.00408699
0.00408699
0.00414948
0.00414948
0.0042127
0.0042127
0.00427669
0.00427669
0.00434149
0.00434149
0.00440716
0.00440716
0.00447375
0.00447375
0.0045413
0.0045413
0.00460982
0.00460982
0.00467932
0.00467932
0.00474974
0.00474974
0.00482104
0.00482104
0.0048931
0.0048931
0.00496582
0.00496582
0.00503908
0.00503908
0.00511273
0.00511273
0.00518667
0.00518667
0.00526079
0.00526079
0.00533497
0.00533497
0.00540916
0.00540916
0.00548329
0.00548329
0.0055573
0.0055573
0.00563115
0.00563115
0.00570479
0.00570479
0.00577816
0.00577816
0.00585116
0.00585116
0.00592371
0.00592371
0.00599567
0.00599567
0.0060669
0.0060669
0.00613726
0.00613726
0.00620658
0.00620658
0.00627471
0.00627471
0.0063415
0.0063415
0.00640684
0.00640684
0.00647064
0.00647064
0.00653285
0.00653285
0.00659344
0.00659344
0.00665243
0.00665243
0.00670987
0.00670987
0.00676584
0.00676584
0.00682047
0.00682047
0.00687388
0.00687388
0.00692623
0.00692623
0.00697769
0.00697769
0.00702844
0.00702844
0.00707862
0.00707862
0.00712841
0.00712841
0.00717788
0.00717788
0.0072271
0.0072271
0.00727605
0.00727605
0.00732465
0.00732465
0.00737271
0.00737271
0.00741999
0.00741999
0.00746614
0.00746614
0.00751077
0.00751077
0.00755342
0.00755342
0.00759362
0.00759362
0.00763093
0.00763093
0.00766495
0.00766495
0.00769542
0.00769542
0.00772221
0.00772221
0.00774536
0.00774536
0.00776512
0.00776512
0.00778192
0.00778192
0.00779635
0.00779635
0.00780914
0.00780914
0.00782111
0.00782111
0.0078331
0.0078331
0.00784594
0.00784594
0.00786043
0.00786043
0.00787725
0.00787725
0.00789699
0.00789699
0.00792011
0.00792011
0.00794695
0.00794695
0.00797772
0.00797772
0.00801249
0.00801249
0.00805123
0.00805123
0.0080938
0.0080938
0.00813998
0.00813998
0.00818946
0.00818946
0.00824187
0.00824187
0.00829681
0.00829681
0.00835382
0.00835382
0.00841245
0.00841245
0.00847226
0.00847226
0.00853279
0.00853279
0.00859364
0.00859364
0.00865439
0.00865439
0.00871467
0.00871467
0.00877408
0.00877408
0.00883227
0.00883227
0.00888884
0.00888884
0.00894341
0.00894341
0.00899555
0.00899555
0.00904482
0.00904482
0.00909075
0.00909075
0.00913283
0.00913283
0.00917054
0.00917054
0.00920336
0.00920336
0.00923076
0.00923076
0.00925224
0.00925224
0.00926734
0.00926734
0.00927567
0.00927567
0.00927695
0.00927695
0.009271
0.009271
0.00925779
0.00925779
0.00923746
0.00923746
0.0092103
0.0092103
0.00917677
0.00917677
0.0091375
0.0091375
0.00909325
0.00909325
0.00904488
0.00904488
0.00899332
0.00899332
0.00893954
0.00893954
0.00888451
0.00888451
0.00882916
0.00882916
0.00877432
0.00877432
0.00872075
0.00872075
0.00866909
0.00866909
0.00861986
0.00861986
0.00857345
0.00857345
0.00853013
0.00853013
0.00849003
0.00849003
0.00845322
0.00845322
0.00841962
0.00841962
0.00838909
0.00838909
0.00836141
0.00836141
0.0083363
0.0083363
0.00831344
0.00831344
0.0082925
0.0082925
0.00827313
0.00827313
0.00825502
0.00825502
0.00823786
0.00823786
0.0082214
0.0082214
0.00820544
0.00820544
0.00818985
0.00818985
0.00817455
0.00817455
0.00815953
0.00815953
0.00814484
0.00814484
0.0081306
0.0081306
0.00811695
0.00811695
0.0081041
0.0081041
0.00809228
0.00809228
0.00808173
0.00808173
0.00807274
0.00807274
0.00806556
0.00806556
0.00806047
0.00806047
0.0080577
0.0080577
0.00805749
0.00805749
0.00806004
0.00806004
0.00806555
0.00806555
0.00807416
0.00807416
0.00808602
0.00808602
0.00810126
0.00810126
0.00811999
0.00811999
0.00814234
0.00814234
0.00816846
0.00816846
0.00819849
0.00819849
0.00823262
0.00823262
0.00827105
0.00827105
0.008314
0.008314
0.0083617
0.0083617
0.00841436
0.00841436
0.00847217
0.00847217
0.00853525
0.00853525
0.00860365
0.00860365
0.0086773
0.0086773
0.00875601
0.00875601
0.00883942
0.00883942
0.00892703
0.00892703
0.00901818
0.00901818
0.00911204
0.00911204
0.00920767
0.00920767
0.00930407
0.00930407
0.0094002
0.0094002
0.00949505
0.00949505
0.00958771
0.00958771
0.00967744
0.00967744
0.00976367
0.00976367
0.00984606
0.00984606
0.0099245
0.0099245
0.00999907
0.00999907
0.0100701
0.0100701
0.0101379
0.0101379
0.0102031
0.0102031
0.0102662
0.0102662
0.0103279
0.0103279
0.0103887
0.0103887
0.0104491
0.0104491
0.0105094
0.0105094
0.0105699
0.0105699
0.0106308
0.0106308
0.0106918
0.0106918
0.0107527
0.0107527
0.010813
0.010813
0.0108717
0.0108717
0.0109281
0.0109281
0.0109807
0.0109807
0.011028
0.011028
0.0110685
0.0110685
0.0111003
0.0111003
0.0111215
0.0111215
0.0111303
0.0111303
0.0111248
0.0111248
0.0111034
0.0111034
0.0110648
0.0110648
0.0110077
0.0110077
0.0109311
0.0109311
0.0108346
0.0108346
0.0107178
0.0107178
0.0105806
0.0105806
0.0104232
0.0104232
0.0102461
0.0102461
0.0100499
0.0100499
0.00983552
0.00983552
0.00960398
0.00960398
0.00935661
0.00935661
0.00909498
0.00909498
0.00882086
0.00882086
0.00853622
0.00853622
0.00824322
0.00824322
0.00794415
0.00794415
0.00764137
0.00764137
0.00733727
0.00733727
0.00703421
0.00703421
0.00673447
0.00673447
0.00644021
0.00644021
0.00615333
0.00615333
0.00587551
0.00587551
0.00560807
0.00560807
0.00535195
0.00535195
0.00510767
0.00510767
0.00487528
0.00487528
0.00465435
0.00465435
0.00444398
0.00444398
0.00424281
0.00424281
0.00404919
0.00404919
0.00386136
0.00386136
0.00367767
0.00367767
0.00349678
0.00349678
0.00331783
0.00331783
0.00314043
0.00314043
0.00296467
0.00296467
0.00279094
0.00279094
0.00261984
0.00261984
0.00245205
0.00245205
0.00228825
0.00228825
0.00212908
0.00212908
0.00197515
0.00197515
0.00182694
0.00182694
0.00168489
0.00168489
0.00154931
0.00154931
0.00142047
0.00142047
0.00129853
0.00129853
0.00118355
0.00118355
0.00107556
0.00107556
0.000974513
0.000974513
0.000880292
0.000880292
0.00079275
0.00079275
0.000711699
0.000711699
0.000636914
0.000636914
0.000568146
0.000568146
0.000505124
0.000505124
0.00044756
0.00044756
0.000395157
0.000395157
0.000347609
0.000347609
0.000304613
0.000304613
0.000265863
0.000265863
0.000231062
0.000231062
0.000199917
0.000199917
0.000172148
0.000172148
0.000147483
0.000147483
0.000125663
0.000125663
0.000106443
0.000106443
8.95894e-05
8.95894e-05
7.48824e-05
7.48824e-05
6.21159e-05
6.21159e-05
5.10971e-05
5.10971e-05
4.1646e-05
4.1646e-05
3.35953e-05
3.35953e-05
2.67901e-05
2.67901e-05
2.10869e-05
2.10869e-05
1.63536e-05
1.63536e-05
1.24687e-05
1.24687e-05
9.3206e-06
9.3206e-06
6.80752e-06
6.80752e-06
4.8365e-06
4.8365e-06
3.32311e-06
3.32311e-06
2.19092e-06
2.19092e-06
1.37103e-06
1.37103e-06
8.01657e-07
8.01657e-07
4.278e-07
4.278e-07
2.00958e-07
2.00958e-07
7.91222e-08
7.91222e-08
2.76852e-08
2.76852e-08
2.64612e-08
2.64612e-08
1.60748e-07
1.60748e-07
0.00322964
0.00322964
0.00323897
0.00323897
0.00324638
0.00324638
0.00325457
0.00325457
0.00326462
0.00326462
0.00327747
0.00327747
0.00329387
0.00329387
0.00331428
0.00331428
0.00333894
0.00333894
0.00336791
0.00336791
0.00340113
0.00340113
0.00343842
0.00343842
0.00347951
0.00347951
0.00352411
0.00352411
0.00357184
0.00357184
0.00362235
0.00362235
0.00367525
0.00367525
0.00373018
0.00373018
0.0037868
0.0037868
0.00384483
0.00384483
0.00390403
0.00390403
0.0039642
0.0039642
0.00402522
0.00402522
0.00408699
0.00408699
0.00414948
0.00414948
0.0042127
0.0042127
0.00427669
0.00427669
0.00434149
0.00434149
0.00440716
0.00440716
0.00447375
0.00447375
0.0045413
0.0045413
0.00460982
0.00460982
0.00467931
0.00467931
0.00474974
0.00474974
0.00482103
0.00482103
0.0048931
0.0048931
0.00496582
0.00496582
0.00503908
0.00503908
0.00511273
0.00511273
0.00518667
0.00518667
0.00526079
0.00526079
0.00533497
0.00533497
0.00540916
0.00540916
0.00548329
0.00548329
0.0055573
0.0055573
0.00563115
0.00563115
0.00570479
0.00570479
0.00577816
0.00577816
0.00585116
0.00585116
0.00592371
0.00592371
0.00599567
0.00599567
0.0060669
0.0060669
0.00613726
0.00613726
0.00620658
0.00620658
0.00627471
0.00627471
0.0063415
0.0063415
0.00640684
0.00640684
0.00647064
0.00647064
0.00653285
0.00653285
0.00659344
0.00659344
0.00665242
0.00665242
0.00670986
0.00670986
0.00676584
0.00676584
0.00682046
0.00682046
0.00687387
0.00687387
0.00692623
0.00692623
0.00697769
0.00697769
0.00702843
0.00702843
0.00707862
0.00707862
0.0071284
0.0071284
0.00717788
0.00717788
0.0072271
0.0072271
0.00727605
0.00727605
0.00732465
0.00732465
0.00737271
0.00737271
0.00741999
0.00741999
0.00746614
0.00746614
0.00751077
0.00751077
0.00755342
0.00755342
0.00759362
0.00759362
0.00763093
0.00763093
0.00766495
0.00766495
0.00769542
0.00769542
0.00772221
0.00772221
0.00774536
0.00774536
0.00776512
0.00776512
0.00778192
0.00778192
0.00779635
0.00779635
0.00780914
0.00780914
0.00782111
0.00782111
0.00783309
0.00783309
0.00784594
0.00784594
0.00786043
0.00786043
0.00787725
0.00787725
0.00789699
0.00789699
0.00792011
0.00792011
0.00794695
0.00794695
0.00797772
0.00797772
0.00801248
0.00801248
0.00805122
0.00805122
0.0080938
0.0080938
0.00813998
0.00813998
0.00818946
0.00818946
0.00824187
0.00824187
0.0082968
0.0082968
0.00835382
0.00835382
0.00841245
0.00841245
0.00847226
0.00847226
0.00853279
0.00853279
0.00859364
0.00859364
0.00865439
0.00865439
0.00871467
0.00871467
0.00877408
0.00877408
0.00883227
0.00883227
0.00888884
0.00888884
0.00894341
0.00894341
0.00899555
0.00899555
0.00904482
0.00904482
0.00909075
0.00909075
0.00913283
0.00913283
0.00917054
0.00917054
0.00920336
0.00920336
0.00923076
0.00923076
0.00925224
0.00925224
0.00926733
0.00926733
0.00927567
0.00927567
0.00927695
0.00927695
0.009271
0.009271
0.00925779
0.00925779
0.00923746
0.00923746
0.0092103
0.0092103
0.00917677
0.00917677
0.0091375
0.0091375
0.00909325
0.00909325
0.00904488
0.00904488
0.00899332
0.00899332
0.00893954
0.00893954
0.00888451
0.00888451
0.00882916
0.00882916
0.00877432
0.00877432
0.00872075
0.00872075
0.00866909
0.00866909
0.00861986
0.00861986
0.00857345
0.00857345
0.00853012
0.00853012
0.00849003
0.00849003
0.00845322
0.00845322
0.00841962
0.00841962
0.00838909
0.00838909
0.00836141
0.00836141
0.0083363
0.0083363
0.00831344
0.00831344
0.0082925
0.0082925
0.00827313
0.00827313
0.00825502
0.00825502
0.00823786
0.00823786
0.0082214
0.0082214
0.00820544
0.00820544
0.00818985
0.00818985
0.00817455
0.00817455
0.00815953
0.00815953
0.00814484
0.00814484
0.0081306
0.0081306
0.00811695
0.00811695
0.0081041
0.0081041
0.00809227
0.00809227
0.00808173
0.00808173
0.00807274
0.00807274
0.00806556
0.00806556
0.00806047
0.00806047
0.0080577
0.0080577
0.00805749
0.00805749
0.00806004
0.00806004
0.00806555
0.00806555
0.00807416
0.00807416
0.00808602
0.00808602
0.00810125
0.00810125
0.00811999
0.00811999
0.00814234
0.00814234
0.00816846
0.00816846
0.00819849
0.00819849
0.00823262
0.00823262
0.00827105
0.00827105
0.008314
0.008314
0.0083617
0.0083617
0.00841436
0.00841436
0.00847217
0.00847217
0.00853525
0.00853525
0.00860365
0.00860365
0.0086773
0.0086773
0.00875601
0.00875601
0.00883942
0.00883942
0.00892703
0.00892703
0.00901818
0.00901818
0.00911204
0.00911204
0.00920767
0.00920767
0.00930407
0.00930407
0.0094002
0.0094002
0.00949505
0.00949505
0.00958771
0.00958771
0.00967744
0.00967744
0.00976367
0.00976367
0.00984606
0.00984606
0.0099245
0.0099245
0.00999907
0.00999907
0.0100701
0.0100701
0.0101379
0.0101379
0.0102031
0.0102031
0.0102662
0.0102662
0.0103279
0.0103279
0.0103887
0.0103887
0.0104491
0.0104491
0.0105094
0.0105094
0.0105699
0.0105699
0.0106308
0.0106308
0.0106918
0.0106918
0.0107527
0.0107527
0.010813
0.010813
0.0108717
0.0108717
0.0109281
0.0109281
0.0109807
0.0109807
0.011028
0.011028
0.0110685
0.0110685
0.0111003
0.0111003
0.0111215
0.0111215
0.0111303
0.0111303
0.0111248
0.0111248
0.0111034
0.0111034
0.0110648
0.0110648
0.0110077
0.0110077
0.0109311
0.0109311
0.0108346
0.0108346
0.0107178
0.0107178
0.0105806
0.0105806
0.0104232
0.0104232
0.0102461
0.0102461
0.0100499
0.0100499
0.00983552
0.00983552
0.00960397
0.00960397
0.00935661
0.00935661
0.00909498
0.00909498
0.00882086
0.00882086
0.00853622
0.00853622
0.00824322
0.00824322
0.00794415
0.00794415
0.00764137
0.00764137
0.00733727
0.00733727
0.00703421
0.00703421
0.00673447
0.00673447
0.00644021
0.00644021
0.00615333
0.00615333
0.00587551
0.00587551
0.00560807
0.00560807
0.00535195
0.00535195
0.00510767
0.00510767
0.00487528
0.00487528
0.00465435
0.00465435
0.00444398
0.00444398
0.00424281
0.00424281
0.00404919
0.00404919
0.00386136
0.00386136
0.00367767
0.00367767
0.00349678
0.00349678
0.00331783
0.00331783
0.00314043
0.00314043
0.00296467
0.00296467
0.00279094
0.00279094
0.00261984
0.00261984
0.00245205
0.00245205
0.00228825
0.00228825
0.00212908
0.00212908
0.00197515
0.00197515
0.00182694
0.00182694
0.00168489
0.00168489
0.00154931
0.00154931
0.00142047
0.00142047
0.00129853
0.00129853
0.00118355
0.00118355
0.00107556
0.00107556
0.000974513
0.000974513
0.000880292
0.000880292
0.00079275
0.00079275
0.000711699
0.000711699
0.000636914
0.000636914
0.000568146
0.000568146
0.000505124
0.000505124
0.00044756
0.00044756
0.000395157
0.000395157
0.000347609
0.000347609
0.000304613
0.000304613
0.000265863
0.000265863
0.000231062
0.000231062
0.000199917
0.000199917
0.000172148
0.000172148
0.000147483
0.000147483
0.000125663
0.000125663
0.000106443
0.000106443
8.95894e-05
8.95894e-05
7.48824e-05
7.48824e-05
6.21159e-05
6.21159e-05
5.10971e-05
5.10971e-05
4.1646e-05
4.1646e-05
3.35953e-05
3.35953e-05
2.67901e-05
2.67901e-05
2.10869e-05
2.10869e-05
1.63536e-05
1.63536e-05
1.24687e-05
1.24687e-05
9.3206e-06
9.3206e-06
6.80752e-06
6.80752e-06
4.8365e-06
4.8365e-06
3.32311e-06
3.32311e-06
2.19092e-06
2.19092e-06
1.37103e-06
1.37103e-06
8.01657e-07
8.01657e-07
4.278e-07
4.278e-07
2.00958e-07
2.00958e-07
7.91222e-08
7.91222e-08
2.76852e-08
2.76852e-08
2.64612e-08
2.64612e-08
1.60748e-07
1.60748e-07
)
;

boundaryField
{
    walls
    {
        type            kqRWallFunction;
        value           nonuniform List<scalar> 8(1.60743e-07 1.60743e-07 1.60743e-07 1.60743e-07 1.60748e-07 1.60748e-07 1.60748e-07 1.60748e-07);
    }
    inlet
    {
        type            cyclic;
    }
    outlet
    {
        type            cyclic;
    }
    sides
    {
        type            empty;
    }
}


// ************************************************************************* //
