/*--------------------------------*- C++ -*----------------------------------*\
| =========                 |                                                 |
| \\      /  F ield         | OpenFOAM: The Open Source CFD Toolbox           |
|  \\    /   O peration     | Version:  2012                                  |
|   \\  /    A nd           | Website:  www.openfoam.com                      |
|    \\/     M anipulation  |                                                 |
\*---------------------------------------------------------------------------*/
FoamFile
{
    version     2.0;
    format      ascii;
    class       volScalarField;
    location    "11000";
    object      omega;
}
// * * * * * * * * * * * * * * * * * * * * * * * * * * * * * * * * * * * * * //

dimensions      [0 0 -1 0 0 0 0];


internalField   nonuniform List<scalar> 
2560
(
1.52415e+06
1.52415e+06
265169
265169
89885
89885
42384.8
42384.8
24022.6
24022.6
15256
15256
10456.2
10456.2
7566.04
7566.04
5700.61
5700.61
4431.31
4431.31
3531.14
3531.14
2871.16
2871.16
2373.88
2373.88
1990.56
1990.56
1689.34
1689.34
1448.68
1448.68
1253.64
1253.64
1093.59
1093.59
960.805
960.805
849.554
849.554
755.535
755.535
675.458
675.458
606.777
606.777
547.495
547.495
496.03
496.03
451.117
451.117
411.732
411.732
377.043
377.043
346.366
346.366
319.135
319.135
294.879
294.879
273.202
273.202
253.771
253.771
236.305
236.305
220.562
220.562
206.335
206.335
193.446
193.446
181.741
181.741
171.087
171.087
161.367
161.367
152.478
152.478
144.331
144.331
136.847
136.847
129.956
129.956
123.595
123.595
117.708
117.708
112.246
112.246
107.162
107.162
102.417
102.417
97.9734
97.9734
93.7978
93.7978
89.8606
89.8607
86.1352
86.1352
82.598
82.598
79.229
79.229
76.0119
76.0119
72.9351
72.9351
69.9919
69.9919
67.1805
67.1805
64.5038
64.5038
61.9676
61.9676
59.5788
59.5788
57.3436
57.3436
55.2655
55.2655
53.345
53.345
51.5794
51.5794
49.9627
49.9627
48.4868
48.4868
47.142
47.142
45.9171
45.9171
44.8004
44.8004
43.7798
43.7798
42.8435
42.8435
41.9799
41.9799
41.1781
41.1781
40.4279
40.4279
39.7198
39.7198
39.0455
39.0455
38.3974
38.3974
37.7689
37.7689
37.1544
37.1544
36.549
36.549
35.9488
35.9488
35.3507
35.3507
34.7519
34.7519
34.1506
34.1506
33.5451
33.5451
32.9344
32.9344
32.3179
32.3179
31.6955
31.6955
31.0672
31.0672
30.4337
30.4337
29.796
29.796
29.1554
29.1554
28.5136
28.5136
27.8724
27.8724
27.2338
27.2338
26.5998
26.5998
25.9725
25.9725
25.3537
25.3537
24.7449
24.7449
24.1477
24.1477
23.5629
23.5629
22.9915
22.9915
22.434
22.434
21.8904
21.8904
21.3609
21.3609
20.8452
20.8452
20.3427
20.3427
19.8531
19.8531
19.3754
19.3754
18.909
18.909
18.453
18.453
18.0066
18.0066
17.5688
17.5688
17.139
17.139
16.7165
16.7165
16.3008
16.3008
15.8915
15.8915
15.4885
15.4885
15.0918
15.0918
14.7017
14.7017
14.3184
14.3184
13.9425
13.9425
13.5745
13.5745
13.215
13.215
12.8645
12.8645
12.5235
12.5235
12.1924
12.1924
11.8714
11.8714
11.5606
11.5606
11.2601
11.2601
10.9699
10.9699
10.6897
10.6897
10.4192
10.4192
10.1583
10.1583
9.9066
9.9066
9.66373
9.66373
9.42938
9.42938
9.20321
9.20321
8.98493
8.98493
8.77423
8.77423
8.57085
8.57085
8.37451
8.37451
8.18499
8.18499
8.00204
8.00204
7.82541
7.82541
7.65488
7.65488
7.4902
7.4902
7.33111
7.33111
7.17737
7.17737
7.02872
7.02872
6.8849
6.8849
6.74564
6.74564
6.6107
6.6107
6.47983
6.47983
6.35279
6.35279
6.22936
6.22936
6.10936
6.10936
5.9926
5.9926
5.87893
5.87893
5.76824
5.76824
5.66042
5.66042
5.55541
5.55541
5.45317
5.45317
5.35367
5.35367
5.25691
5.25691
5.16292
5.16292
5.07171
5.07171
4.98331
4.98331
4.89777
4.89777
4.8151
4.8151
4.73532
4.73532
4.65841
4.65841
4.58436
4.58436
4.51311
4.51311
4.4446
4.4446
4.37871
4.37871
4.31533
4.31533
4.25428
4.25428
4.19538
4.19538
4.13843
4.13843
4.08319
4.08319
4.02941
4.02941
3.97684
3.97684
3.92521
3.92521
3.87427
3.87427
3.82378
3.82378
3.77354
3.77354
3.72335
3.72335
3.67306
3.67306
3.62256
3.62256
3.57177
3.57177
3.52066
3.52066
3.4692
3.4692
3.41743
3.41743
3.36539
3.36539
3.31313
3.31313
3.26073
3.26073
3.20827
3.20827
3.15584
3.15584
3.10352
3.10352
3.05139
3.05139
2.99952
2.99952
2.94799
2.94799
2.89686
2.89686
2.8462
2.8462
2.79605
2.79605
2.74647
2.74647
2.6975
2.6975
2.6492
2.6492
2.60162
2.60162
2.55481
2.55481
2.50882
2.50882
2.46372
2.46372
2.41956
2.41956
2.37639
2.37639
2.33428
2.33428
2.29327
2.29327
2.25341
2.25341
2.21473
2.21473
2.17725
2.17725
2.14098
2.14098
2.10591
2.10591
2.07202
2.07202
2.03928
2.03928
2.00761
2.00761
1.97696
1.97696
1.94723
1.94723
1.91832
1.91832
1.89013
1.89013
1.86253
1.86253
1.8354
1.8354
1.80865
1.80865
1.78217
1.78217
1.75589
1.75589
1.72974
1.72974
1.70368
1.70368
1.67772
1.67772
1.65184
1.65184
1.62608
1.62608
1.60047
1.60047
1.57506
1.57506
1.54988
1.54988
1.52499
1.52499
1.50042
1.50042
1.47619
1.47619
1.45234
1.45234
1.42887
1.42887
1.40578
1.40578
1.38308
1.38308
1.36074
1.36074
1.33876
1.33876
1.31712
1.31712
1.29579
1.29579
1.27476
1.27476
1.25399
1.25399
1.23347
1.23347
1.21319
1.21319
1.19313
1.19313
1.17326
1.17326
1.1536
1.1536
1.13412
1.13412
1.11482
1.11482
1.09572
1.09572
1.0768
1.0768
1.05807
1.05807
1.03955
1.03955
1.02124
1.02124
1.00315
1.00315
0.985291
0.985291
0.96767
0.96767
0.950294
0.950294
0.933168
0.933168
0.916293
0.916293
0.899672
0.899672
0.883305
0.883305
0.867192
0.867192
0.851334
0.851334
0.835731
0.835731
0.820388
0.820388
0.805308
0.805308
0.790497
0.790497
0.775962
0.775962
0.76171
0.76171
0.747749
0.747749
0.734084
0.734084
0.72072
0.72072
0.707661
0.707661
0.694907
0.694907
0.682457
0.682457
0.670307
0.670307
0.658454
0.658454
0.64689
0.64689
0.63561
0.63561
0.624609
0.624609
0.613882
0.613882
0.603429
0.603429
0.593251
0.593251
0.583354
0.583354
0.573749
0.573749
0.564449
0.564449
0.555474
0.555474
0.546848
0.546848
0.538598
0.538598
0.530754
0.530754
0.523346
0.523346
0.516407
0.516407
0.509968
0.509968
0.504057
0.504057
0.498699
0.498699
0.493913
0.493913
0.489709
0.48971
0.486091
0.486091
0.483046
0.483046
0.480546
0.480546
0.478543
0.478543
0.476973
0.476973
0.475766
0.475766
0.474726
0.474726
1.52415e+06
1.52415e+06
265169
265169
89885
89885
42384.8
42384.8
24022.6
24022.6
15256
15256
10456.2
10456.2
7566.04
7566.04
5700.61
5700.61
4431.31
4431.31
3531.14
3531.14
2871.16
2871.16
2373.88
2373.88
1990.56
1990.56
1689.34
1689.34
1448.68
1448.68
1253.64
1253.64
1093.59
1093.59
960.805
960.805
849.554
849.554
755.535
755.535
675.458
675.458
606.777
606.777
547.495
547.495
496.03
496.03
451.117
451.117
411.732
411.732
377.043
377.043
346.366
346.366
319.135
319.135
294.879
294.879
273.202
273.202
253.771
253.771
236.305
236.305
220.562
220.562
206.335
206.335
193.446
193.446
181.741
181.741
171.087
171.087
161.367
161.367
152.478
152.478
144.331
144.331
136.847
136.847
129.956
129.956
123.595
123.595
117.708
117.708
112.246
112.246
107.162
107.162
102.417
102.417
97.9734
97.9734
93.7978
93.7978
89.8607
89.8606
86.1352
86.1352
82.598
82.598
79.229
79.229
76.0119
76.0119
72.9351
72.9351
69.9919
69.9919
67.1805
67.1805
64.5038
64.5038
61.9676
61.9676
59.5788
59.5788
57.3436
57.3436
55.2655
55.2655
53.345
53.345
51.5794
51.5794
49.9627
49.9627
48.4868
48.4868
47.142
47.142
45.9171
45.9171
44.8004
44.8004
43.7798
43.7798
42.8435
42.8435
41.9799
41.9799
41.1781
41.1781
40.4279
40.4279
39.7198
39.7198
39.0455
39.0455
38.3974
38.3974
37.7689
37.7689
37.1544
37.1544
36.549
36.549
35.9488
35.9488
35.3507
35.3507
34.7519
34.7519
34.1506
34.1506
33.5451
33.5451
32.9344
32.9344
32.3179
32.3179
31.6955
31.6955
31.0672
31.0672
30.4337
30.4337
29.796
29.796
29.1554
29.1554
28.5136
28.5136
27.8724
27.8724
27.2338
27.2338
26.5998
26.5998
25.9725
25.9725
25.3537
25.3537
24.7449
24.7449
24.1477
24.1477
23.5629
23.5629
22.9915
22.9915
22.434
22.434
21.8904
21.8904
21.3609
21.3609
20.8452
20.8452
20.3427
20.3427
19.8531
19.8531
19.3754
19.3754
18.909
18.909
18.453
18.453
18.0066
18.0066
17.5688
17.5688
17.139
17.139
16.7165
16.7165
16.3008
16.3008
15.8915
15.8915
15.4885
15.4885
15.0918
15.0918
14.7017
14.7017
14.3184
14.3184
13.9425
13.9425
13.5745
13.5745
13.215
13.215
12.8645
12.8645
12.5235
12.5235
12.1924
12.1924
11.8714
11.8714
11.5606
11.5606
11.2601
11.2601
10.9699
10.9699
10.6897
10.6897
10.4192
10.4192
10.1583
10.1583
9.9066
9.9066
9.66373
9.66373
9.42938
9.42938
9.20321
9.20321
8.98493
8.98493
8.77423
8.77423
8.57085
8.57085
8.37451
8.37451
8.18499
8.18499
8.00204
8.00204
7.82541
7.82541
7.65488
7.65488
7.4902
7.4902
7.33111
7.33111
7.17737
7.17737
7.02872
7.02872
6.8849
6.8849
6.74564
6.74564
6.6107
6.6107
6.47983
6.47983
6.35279
6.35279
6.22936
6.22936
6.10936
6.10936
5.9926
5.9926
5.87893
5.87893
5.76824
5.76824
5.66042
5.66042
5.55542
5.55542
5.45317
5.45317
5.35367
5.35367
5.25691
5.25691
5.16292
5.16292
5.07171
5.07171
4.98331
4.98331
4.89777
4.89777
4.8151
4.8151
4.73532
4.73532
4.65841
4.65841
4.58436
4.58436
4.51311
4.51311
4.4446
4.4446
4.37871
4.37871
4.31533
4.31533
4.25428
4.25428
4.19538
4.19538
4.13843
4.13843
4.08319
4.08319
4.02941
4.02941
3.97684
3.97684
3.92521
3.92521
3.87427
3.87427
3.82378
3.82378
3.77354
3.77354
3.72335
3.72335
3.67306
3.67306
3.62256
3.62256
3.57177
3.57177
3.52066
3.52066
3.4692
3.4692
3.41743
3.41743
3.36539
3.36539
3.31313
3.31313
3.26073
3.26073
3.20827
3.20827
3.15584
3.15584
3.10352
3.10352
3.05139
3.05139
2.99952
2.99952
2.94799
2.94799
2.89686
2.89686
2.8462
2.8462
2.79605
2.79605
2.74647
2.74647
2.6975
2.6975
2.6492
2.6492
2.60162
2.60162
2.55481
2.55481
2.50882
2.50882
2.46372
2.46372
2.41956
2.41956
2.37639
2.37639
2.33428
2.33428
2.29327
2.29327
2.25341
2.25341
2.21473
2.21473
2.17725
2.17725
2.14098
2.14098
2.10591
2.10591
2.07202
2.07202
2.03928
2.03928
2.00761
2.00761
1.97696
1.97696
1.94723
1.94723
1.91832
1.91832
1.89013
1.89013
1.86253
1.86253
1.8354
1.8354
1.80865
1.80865
1.78217
1.78217
1.75589
1.75589
1.72974
1.72974
1.70368
1.70368
1.67772
1.67772
1.65184
1.65184
1.62608
1.62608
1.60047
1.60047
1.57506
1.57506
1.54988
1.54988
1.52499
1.52499
1.50042
1.50042
1.47619
1.47619
1.45234
1.45234
1.42887
1.42887
1.40578
1.40578
1.38308
1.38308
1.36074
1.36074
1.33876
1.33876
1.31712
1.31712
1.29579
1.29579
1.27476
1.27476
1.25399
1.25399
1.23347
1.23347
1.21319
1.21319
1.19313
1.19313
1.17326
1.17326
1.1536
1.1536
1.13412
1.13412
1.11482
1.11482
1.09572
1.09572
1.0768
1.0768
1.05807
1.05807
1.03955
1.03955
1.02124
1.02124
1.00315
1.00315
0.985291
0.985291
0.96767
0.96767
0.950294
0.950294
0.933168
0.933168
0.916293
0.916293
0.899672
0.899672
0.883305
0.883305
0.867192
0.867192
0.851334
0.851334
0.835731
0.835731
0.820388
0.820388
0.805308
0.805308
0.790497
0.790497
0.775962
0.775962
0.76171
0.76171
0.747749
0.747749
0.734084
0.734084
0.72072
0.72072
0.707661
0.707661
0.694907
0.694907
0.682457
0.682457
0.670308
0.670308
0.658454
0.658454
0.64689
0.64689
0.63561
0.63561
0.624609
0.624609
0.613882
0.613882
0.603429
0.603429
0.593251
0.593251
0.583355
0.583355
0.573749
0.573749
0.564449
0.564449
0.555474
0.555474
0.546848
0.546848
0.538598
0.538598
0.530754
0.530754
0.523346
0.523346
0.516408
0.516408
0.509968
0.509968
0.504057
0.504057
0.498699
0.498699
0.493913
0.493913
0.48971
0.48971
0.486091
0.486091
0.483046
0.483046
0.480546
0.480546
0.478543
0.478543
0.476973
0.476973
0.475766
0.475766
0.474726
0.474727
0.474727
0.474727
0.475767
0.475767
0.476974
0.476974
0.478544
0.478544
0.480547
0.480547
0.483048
0.483048
0.486093
0.486093
0.489712
0.489712
0.493915
0.493915
0.498701
0.498701
0.504059
0.504059
0.509969
0.509969
0.516408
0.516408
0.523347
0.523347
0.530754
0.530754
0.538599
0.538599
0.54685
0.54685
0.555477
0.555477
0.564451
0.564451
0.573751
0.573751
0.583357
0.583357
0.593254
0.593254
0.603432
0.603432
0.613885
0.613885
0.624612
0.624612
0.635613
0.635613
0.646892
0.646892
0.658456
0.658456
0.670309
0.670309
0.682458
0.682458
0.694908
0.694908
0.707661
0.707661
0.72072
0.72072
0.734083
0.734083
0.747748
0.747748
0.76171
0.76171
0.775963
0.775963
0.790498
0.790498
0.805309
0.805309
0.820389
0.820389
0.835732
0.835732
0.851335
0.851335
0.867193
0.867193
0.883306
0.883306
0.899673
0.899673
0.916294
0.916294
0.933169
0.933169
0.950296
0.950296
0.967672
0.967672
0.985293
0.985293
1.00315
1.00315
1.02124
1.02124
1.03955
1.03955
1.05807
1.05807
1.0768
1.0768
1.09572
1.09572
1.11482
1.11482
1.13412
1.13412
1.1536
1.1536
1.17326
1.17326
1.19312
1.19312
1.21319
1.21319
1.23347
1.23347
1.25399
1.25399
1.27475
1.27475
1.29579
1.29579
1.31712
1.31712
1.33876
1.33876
1.36074
1.36074
1.38308
1.38308
1.40578
1.40578
1.42887
1.42887
1.45234
1.45234
1.47619
1.47619
1.50042
1.50042
1.52499
1.52499
1.54988
1.54988
1.57505
1.57505
1.60047
1.60047
1.62608
1.62608
1.65184
1.65184
1.67772
1.67772
1.70368
1.70368
1.72974
1.72974
1.75589
1.75589
1.78218
1.78218
1.80865
1.80865
1.83541
1.83541
1.86253
1.86253
1.89013
1.89013
1.91833
1.91833
1.94723
1.94723
1.97696
1.97696
2.00761
2.00761
2.03928
2.03928
2.07202
2.07202
2.10591
2.10591
2.14098
2.14098
2.17725
2.17725
2.21473
2.21473
2.25341
2.25341
2.29327
2.29327
2.33428
2.33428
2.37639
2.37639
2.41956
2.41956
2.46372
2.46372
2.50882
2.50882
2.55481
2.55481
2.60162
2.60162
2.6492
2.6492
2.6975
2.6975
2.74647
2.74647
2.79605
2.79605
2.8462
2.8462
2.89686
2.89686
2.94799
2.94799
2.99952
2.99952
3.05139
3.05139
3.10352
3.10352
3.15584
3.15584
3.20827
3.20827
3.26073
3.26073
3.31313
3.31313
3.36538
3.36538
3.41743
3.41743
3.4692
3.4692
3.52066
3.52066
3.57177
3.57177
3.62256
3.62256
3.67306
3.67306
3.72335
3.72335
3.77354
3.77354
3.82378
3.82378
3.87427
3.87427
3.9252
3.9252
3.97684
3.97684
4.02941
4.02941
4.08319
4.08319
4.13844
4.13844
4.19539
4.19539
4.25428
4.25428
4.31533
4.31533
4.37872
4.37872
4.4446
4.4446
4.51312
4.51312
4.58436
4.58436
4.65842
4.65842
4.73532
4.73532
4.81511
4.81511
4.89778
4.89778
4.98332
4.98332
5.07171
5.07171
5.16292
5.16292
5.25692
5.25692
5.35368
5.35368
5.45318
5.45318
5.55542
5.55542
5.66043
5.66043
5.76825
5.76825
5.87894
5.87894
5.99261
5.99261
6.10937
6.10937
6.22937
6.22937
6.3528
6.3528
6.47984
6.47984
6.61072
6.61072
6.74566
6.74566
6.88492
6.88492
7.02874
7.02874
7.17739
7.17739
7.33113
7.33113
7.49022
7.49022
7.6549
7.6549
7.82544
7.82544
8.00206
8.00206
8.18502
8.18502
8.37454
8.37454
8.57087
8.57087
8.77426
8.77426
8.98495
8.98495
9.20324
9.20324
9.4294
9.4294
9.66375
9.66375
9.90662
9.90662
10.1583
10.1583
10.4193
10.4193
10.6897
10.6897
10.9699
10.9699
11.2602
11.2602
11.5606
11.5606
11.8714
11.8714
12.1924
12.1924
12.5236
12.5236
12.8646
12.8646
13.2151
13.2151
13.5746
13.5746
13.9426
13.9426
14.3185
14.3185
14.7018
14.7018
15.0919
15.0919
15.4886
15.4886
15.8916
15.8916
16.3009
16.3009
16.7167
16.7167
17.1392
17.1392
17.569
17.569
18.0068
18.0068
18.4533
18.4533
18.9093
18.9093
19.3757
19.3757
19.8533
19.8533
20.343
20.343
20.8455
20.8455
21.3612
21.3612
21.8907
21.8907
22.4343
22.4343
22.9919
22.9919
23.5633
23.5633
24.148
24.148
24.7453
24.7453
25.354
25.354
25.9728
25.9728
26.6001
26.6001
27.234
27.234
27.8726
27.8726
28.5138
28.5138
29.1556
29.1556
29.7962
29.7962
30.4339
30.4339
31.0674
31.0674
31.6957
31.6957
32.3182
32.3182
32.9347
32.9347
33.5453
33.5453
34.1508
34.1508
34.7521
34.7521
35.3508
35.3508
35.949
35.949
36.5491
36.5491
37.1544
37.1544
37.7689
37.7689
38.3973
38.3973
39.0454
39.0454
39.7197
39.7197
40.4277
40.4277
41.1779
41.1779
41.9797
41.9797
42.8432
42.8432
43.7795
43.7795
44.7999
44.7999
45.9165
45.9165
47.1413
47.1413
48.486
48.486
49.9616
49.9616
51.5781
51.5781
53.3436
53.3436
55.2638
55.2638
57.3417
57.3417
59.5767
59.5767
61.9651
61.9651
64.5011
64.5011
67.1777
67.1777
69.9891
69.9891
72.9325
72.9325
76.0094
76.0094
79.2266
79.2266
82.5958
82.5958
86.1333
86.1333
89.859
89.859
93.7963
93.7963
97.972
97.972
102.416
102.416
107.161
107.161
112.245
112.245
117.707
117.707
123.594
123.594
129.955
129.955
136.847
136.847
144.331
144.331
152.478
152.478
161.367
161.367
171.087
171.087
181.742
181.742
193.446
193.446
206.335
206.335
220.562
220.562
236.305
236.305
253.772
253.772
273.202
273.202
294.879
294.879
319.135
319.135
346.366
346.366
377.043
377.043
411.732
411.732
451.117
451.117
496.03
496.03
547.495
547.495
606.777
606.777
675.459
675.459
755.535
755.535
849.554
849.554
960.805
960.805
1093.59
1093.59
1253.64
1253.64
1448.68
1448.68
1689.34
1689.34
1990.56
1990.56
2373.88
2373.88
2871.16
2871.16
3531.15
3531.15
4431.32
4431.32
5700.61
5700.61
7566.04
7566.04
10456.2
10456.2
15256.1
15256.1
24022.6
24022.6
42384.8
42384.8
89885.2
89885.2
265169
265169
1.52416e+06
1.52416e+06
0.474727
0.474727
0.475767
0.475767
0.476974
0.476974
0.478544
0.478544
0.480547
0.480547
0.483048
0.483048
0.486093
0.486093
0.489712
0.489712
0.493915
0.493915
0.498701
0.498701
0.504059
0.504059
0.509969
0.509969
0.516408
0.516408
0.523347
0.523347
0.530754
0.530755
0.5386
0.5386
0.54685
0.54685
0.555477
0.555477
0.564451
0.564451
0.573751
0.573751
0.583357
0.583357
0.593254
0.593254
0.603432
0.603432
0.613886
0.613886
0.624612
0.624612
0.635613
0.635613
0.646892
0.646892
0.658456
0.658456
0.670309
0.670309
0.682458
0.682458
0.694908
0.694908
0.707661
0.707661
0.72072
0.72072
0.734083
0.734083
0.747748
0.747748
0.76171
0.76171
0.775963
0.775963
0.790498
0.790498
0.805309
0.805309
0.820389
0.820389
0.835732
0.835732
0.851335
0.851335
0.867193
0.867193
0.883306
0.883306
0.899673
0.899673
0.916294
0.916294
0.933169
0.933169
0.950296
0.950296
0.967672
0.967672
0.985293
0.985293
1.00315
1.00315
1.02124
1.02124
1.03955
1.03955
1.05807
1.05807
1.0768
1.0768
1.09572
1.09572
1.11482
1.11482
1.13412
1.13412
1.1536
1.1536
1.17326
1.17326
1.19312
1.19312
1.21319
1.21319
1.23347
1.23347
1.25399
1.25399
1.27475
1.27475
1.29579
1.29579
1.31712
1.31712
1.33876
1.33876
1.36074
1.36074
1.38308
1.38308
1.40578
1.40578
1.42887
1.42887
1.45234
1.45234
1.47619
1.47619
1.50042
1.50042
1.52499
1.52499
1.54988
1.54988
1.57505
1.57505
1.60047
1.60047
1.62608
1.62608
1.65184
1.65184
1.67772
1.67772
1.70368
1.70368
1.72974
1.72974
1.75589
1.75589
1.78218
1.78218
1.80865
1.80865
1.83541
1.83541
1.86253
1.86253
1.89013
1.89013
1.91833
1.91833
1.94723
1.94723
1.97696
1.97696
2.00761
2.00761
2.03928
2.03928
2.07202
2.07202
2.10591
2.10591
2.14098
2.14098
2.17725
2.17725
2.21473
2.21473
2.25341
2.25341
2.29327
2.29327
2.33428
2.33428
2.37639
2.37639
2.41956
2.41956
2.46372
2.46372
2.50882
2.50882
2.55481
2.55481
2.60162
2.60162
2.6492
2.6492
2.6975
2.6975
2.74647
2.74647
2.79605
2.79605
2.8462
2.8462
2.89686
2.89686
2.94799
2.94799
2.99952
2.99952
3.05139
3.05139
3.10352
3.10352
3.15584
3.15584
3.20827
3.20827
3.26073
3.26073
3.31313
3.31313
3.36538
3.36538
3.41743
3.41743
3.4692
3.4692
3.52066
3.52066
3.57177
3.57177
3.62256
3.62256
3.67306
3.67306
3.72335
3.72335
3.77354
3.77354
3.82378
3.82378
3.87427
3.87427
3.9252
3.9252
3.97684
3.97684
4.02941
4.02941
4.08319
4.08319
4.13844
4.13844
4.19539
4.19539
4.25428
4.25428
4.31533
4.31533
4.37872
4.37872
4.4446
4.4446
4.51312
4.51312
4.58436
4.58436
4.65842
4.65842
4.73532
4.73532
4.81511
4.81511
4.89778
4.89778
4.98332
4.98332
5.07171
5.07171
5.16292
5.16292
5.25692
5.25692
5.35368
5.35368
5.45318
5.45318
5.55542
5.55542
5.66043
5.66043
5.76825
5.76825
5.87894
5.87894
5.99261
5.99261
6.10937
6.10937
6.22937
6.22937
6.3528
6.3528
6.47984
6.47984
6.61072
6.61072
6.74566
6.74566
6.88492
6.88492
7.02874
7.02874
7.17739
7.17739
7.33113
7.33113
7.49022
7.49022
7.6549
7.6549
7.82544
7.82544
8.00206
8.00206
8.18502
8.18502
8.37454
8.37454
8.57087
8.57087
8.77426
8.77426
8.98495
8.98495
9.20324
9.20324
9.4294
9.4294
9.66375
9.66375
9.90662
9.90662
10.1583
10.1583
10.4193
10.4193
10.6897
10.6897
10.9699
10.9699
11.2602
11.2602
11.5606
11.5606
11.8714
11.8714
12.1924
12.1924
12.5236
12.5236
12.8646
12.8646
13.2151
13.2151
13.5746
13.5746
13.9426
13.9426
14.3185
14.3185
14.7018
14.7018
15.0919
15.0919
15.4886
15.4886
15.8916
15.8916
16.3009
16.3009
16.7167
16.7167
17.1392
17.1392
17.569
17.569
18.0068
18.0068
18.4533
18.4533
18.9093
18.9093
19.3757
19.3757
19.8533
19.8533
20.343
20.343
20.8455
20.8455
21.3612
21.3612
21.8907
21.8907
22.4343
22.4343
22.9919
22.9919
23.5633
23.5633
24.148
24.148
24.7453
24.7453
25.354
25.354
25.9728
25.9728
26.6001
26.6001
27.234
27.234
27.8726
27.8726
28.5138
28.5138
29.1556
29.1556
29.7962
29.7962
30.4339
30.4339
31.0674
31.0674
31.6957
31.6957
32.3182
32.3182
32.9347
32.9347
33.5453
33.5453
34.1508
34.1508
34.7521
34.7521
35.3508
35.3508
35.949
35.949
36.5491
36.5491
37.1544
37.1544
37.7689
37.7689
38.3973
38.3973
39.0454
39.0454
39.7197
39.7197
40.4277
40.4277
41.1779
41.1779
41.9797
41.9797
42.8432
42.8432
43.7795
43.7795
44.7999
44.7999
45.9165
45.9165
47.1413
47.1413
48.486
48.486
49.9616
49.9616
51.5781
51.5781
53.3436
53.3436
55.2638
55.2638
57.3417
57.3417
59.5767
59.5767
61.9651
61.9651
64.5011
64.5011
67.1777
67.1777
69.9891
69.9891
72.9325
72.9325
76.0094
76.0094
79.2266
79.2266
82.5958
82.5958
86.1333
86.1333
89.859
89.859
93.7963
93.7963
97.972
97.972
102.416
102.416
107.161
107.161
112.245
112.245
117.707
117.707
123.594
123.594
129.955
129.955
136.847
136.847
144.331
144.331
152.478
152.478
161.367
161.367
171.087
171.087
181.742
181.742
193.446
193.446
206.335
206.335
220.562
220.562
236.305
236.305
253.772
253.772
273.202
273.202
294.879
294.879
319.135
319.135
346.366
346.366
377.043
377.043
411.732
411.732
451.117
451.117
496.03
496.03
547.495
547.495
606.777
606.777
675.459
675.459
755.535
755.535
849.554
849.554
960.805
960.805
1093.59
1093.59
1253.64
1253.64
1448.68
1448.68
1689.34
1689.34
1990.56
1990.56
2373.88
2373.88
2871.16
2871.16
3531.15
3531.15
4431.32
4431.32
5700.61
5700.61
7566.04
7566.04
10456.2
10456.2
15256.1
15256.1
24022.6
24022.6
42384.8
42384.8
89885.2
89885.2
265169
265169
1.52416e+06
1.52416e+06
)
;

boundaryField
{
    walls
    {
        blending        binomial2;
        n               2;
        beta1           0.075;
        type            omegaWallFunction;
        value           nonuniform List<scalar> 8(1.52415e+06 1.52415e+06 1.52415e+06 1.52415e+06 1.52416e+06 1.52416e+06 1.52416e+06 1.52416e+06);
    }
    inlet
    {
        type            cyclic;
    }
    outlet
    {
        type            cyclic;
    }
    sides
    {
        type            empty;
    }
}


// ************************************************************************* //
