/*--------------------------------*- C++ -*----------------------------------*\
| =========                 |                                                 |
| \\      /  F ield         | OpenFOAM: The Open Source CFD Toolbox           |
|  \\    /   O peration     | Version:  2012                                  |
|   \\  /    A nd           | Website:  www.openfoam.com                      |
|    \\/     M anipulation  |                                                 |
\*---------------------------------------------------------------------------*/
FoamFile
{
    version     2.0;
    format      ascii;
    class       volScalarField;
    location    "11000";
    object      p;
}
// * * * * * * * * * * * * * * * * * * * * * * * * * * * * * * * * * * * * * //

dimensions      [0 2 -2 0 0 0 0];


internalField   nonuniform List<scalar> 
2560
(
6.6289e-09
-9.12918e-06
-8.67215e-08
-9.22308e-06
-9.75846e-08
-9.23335e-06
-8.84615e-08
-9.2276e-06
-7.84512e-08
-9.227e-06
-6.76552e-08
-9.23038e-06
-5.50043e-08
-9.23554e-06
-4.08568e-08
-9.24207e-06
-2.5231e-08
-9.25013e-06
-8.27043e-09
-9.25978e-06
1.11519e-08
-9.27068e-06
3.45102e-08
-9.28279e-06
5.57e-08
-9.30331e-06
4.9375e-08
-9.35826e-06
-5.00238e-08
-9.50864e-06
-3.23385e-07
-9.83006e-06
-7.97437e-07
-1.03512e-05
-1.42236e-06
-1.10228e-05
-2.11811e-06
-1.17662e-05
-2.84145e-06
-1.25387e-05
-3.57917e-06
-1.33278e-05
-4.3145e-06
-1.41166e-05
-5.04103e-06
-1.48993e-05
-5.81101e-06
-1.5728e-05
-6.74323e-06
-1.67218e-05
-7.9711e-06
-1.80139e-05
-9.57006e-06
-1.96802e-05
-1.15255e-05
-2.17058e-05
-1.37493e-05
-2.40031e-05
-1.61217e-05
-2.64519e-05
-1.8521e-05
-2.89312e-05
-2.08393e-05
-3.13327e-05
-2.2996e-05
-3.35763e-05
-2.49656e-05
-3.56363e-05
-2.68049e-05
-3.75701e-05
-2.86614e-05
-3.95249e-05
-3.0744e-05
-4.17103e-05
-3.32759e-05
-4.4349e-05
-3.64433e-05
-4.76282e-05
-4.03637e-05
-5.16649e-05
-4.50681e-05
-5.64909e-05
-5.05003e-05
-6.20498e-05
-5.65308e-05
-6.82131e-05
-6.29938e-05
-7.48146e-05
-6.97326e-05
-8.16987e-05
-7.66387e-05
-8.87566e-05
-8.36679e-05
-9.59452e-05
-9.0864e-05
-0.000103308
-9.83435e-05
-0.000110963
-0.000106317
-0.00011912
-0.000115338
-0.000128334
-0.00012672
-0.000139917
-0.000142973
-0.000156381
-0.000168158
-0.000181786
-0.000207883
-0.000221739
-0.000268598
-0.000282684
-0.000356027
-0.000370337
-0.000473041
-0.000487557
-0.000617543
-0.00063222
-0.000781317
-0.000796063
-0.000950547
-0.00096518
-0.00110806
-0.00112224
-0.001237
-0.0012501
-0.00132651
-0.00133725
-0.00137382
-0.0013794
-0.00136973
-0.00136806
-0.00132022
-0.00131315
-0.00124633
-0.00123668
-0.0011568
-0.00114584
-0.00106061
-0.00104912
-0.000966173
-0.00095456
-0.000878589
-0.000867094
-0.000800349
-0.000789103
-0.00073217
-0.000721244
-0.000673733
-0.000663166
-0.000624276
-0.000614086
-0.000582942
-0.000573138
-0.000548931
-0.000539513
-0.00052148
-0.000512445
-0.000499851
-0.000491196
-0.000483337
-0.000475057
-0.000471195
-0.000463287
-0.00046266
-0.000455123
-0.000457053
-0.000449892
-0.000453736
-0.00044699
-0.000452531
-0.000446147
-0.000453367
-0.000447272
-0.000456213
-0.000450416
-0.000461498
-0.000455993
-0.000469722
-0.0004645
-0.000481457
-0.000476509
-0.000497243
-0.000492559
-0.000517471
-0.000513041
-0.00054229
-0.000538105
-0.000571551
-0.0005676
-0.000604803
-0.000601075
-0.000641294
-0.000637781
-0.000680058
-0.00067675
-0.000720032
-0.000716918
-0.000760149
-0.000757222
-0.000799464
-0.000796714
-0.000837214
-0.000834632
-0.000872862
-0.00087044
-0.000906123
-0.000903854
-0.000936927
-0.000934802
-0.000965362
-0.000963374
-0.00099163
-0.000989772
-0.00101599
-0.00101425
-0.0010387
-0.00103708
-0.00106004
-0.00105853
-0.00108026
-0.00107885
-0.0010996
-0.0010983
-0.00111835
-0.00111714
-0.00113679
-0.00113566
-0.00115525
-0.0011542
-0.00117411
-0.00117314
-0.00119372
-0.00119282
-0.00121442
-0.00121359
-0.00123655
-0.00123577
-0.0012604
-0.00125968
-0.00128627
-0.00128561
-0.00131451
-0.0013139
-0.00134549
-0.00134493
-0.00137974
-0.00137923
-0.00141791
-0.00141743
-0.00146079
-0.00146035
-0.00150934
-0.00150894
-0.00156458
-0.00156421
-0.00162753
-0.0016272
-0.00169907
-0.00169877
-0.00177981
-0.00177953
-0.00186994
-0.00186968
-0.0019691
-0.00196886
-0.00207629
-0.00207608
-0.00218987
-0.00218967
-0.00230761
-0.00230743
-0.00242681
-0.00242665
-0.00254454
-0.00254439
-0.00265783
-0.00265769
-0.002764
-0.00276387
-0.00286083
-0.00286072
-0.00294675
-0.00294665
-0.00302091
-0.00302082
-0.00308315
-0.00308307
-0.00313396
-0.00313389
-0.0031743
-0.00317423
-0.00320547
-0.00320541
-0.00322891
-0.00322885
-0.00324608
-0.00324603
-0.00325836
-0.00325832
-0.00326693
-0.00326689
-0.00327279
-0.00327276
-0.00327672
-0.00327669
-0.00327932
-0.00327929
-0.00328101
-0.00328098
-0.00328209
-0.00328207
-0.00328278
-0.00328276
-0.0032832
-0.00328318
-0.00328345
-0.00328343
-0.00328357
-0.00328356
-0.0032836
-0.00328358
-0.00328353
-0.00328352
-0.00328342
-0.00328341
-0.00328327
-0.00328326
-0.00328308
-0.00328307
-0.00328287
-0.00328286
-0.00328263
-0.00328262
-0.00328237
-0.00328237
-0.00328211
-0.00328211
-0.00328185
-0.00328185
-0.0032816
-0.00328159
-0.00328135
-0.00328135
-0.00328113
-0.00328112
-0.00328092
-0.00328092
-0.00328074
-0.00328073
-0.00328058
-0.00328058
-0.00328044
-0.00328044
-0.00328033
-0.00328033
-0.00328024
-0.00328024
-0.00328016
-0.00328016
-0.00328011
-0.00328011
-0.00328006
-0.00328006
-0.00328003
-0.00328003
-0.00328
-0.00328
-0.00327997
-0.00327997
-0.00327994
-0.00327994
-0.0032799
-0.0032799
-0.00327985
-0.00327985
-0.00327978
-0.00327978
-0.00327967
-0.00327967
-0.00327951
-0.00327951
-0.00327929
-0.00327929
-0.00327897
-0.00327897
-0.00327854
-0.00327854
-0.00327795
-0.00327795
-0.00327715
-0.00327716
-0.00327611
-0.00327611
-0.00327476
-0.00327476
-0.00327303
-0.00327303
-0.00327085
-0.00327085
-0.00326814
-0.00326814
-0.00326482
-0.00326482
-0.00326081
-0.00326081
-0.00325603
-0.00325603
-0.00325043
-0.00325043
-0.00324395
-0.00324396
-0.00323657
-0.00323657
-0.00322828
-0.00322828
-0.00321909
-0.00321909
-0.00320905
-0.00320905
-0.00319821
-0.00319821
-0.00318666
-0.00318666
-0.00317447
-0.00317447
-0.00316174
-0.00316174
-0.00314854
-0.00314854
-0.00313494
-0.00313494
-0.00312097
-0.00312097
-0.00310666
-0.00310666
-0.003092
-0.003092
-0.00307698
-0.00307698
-0.00306155
-0.00306155
-0.00304568
-0.00304568
-0.00302933
-0.00302933
-0.00301248
-0.00301248
-0.00299512
-0.00299512
-0.00297727
-0.00297727
-0.00295897
-0.00295897
-0.00294029
-0.00294029
-0.00292132
-0.00292132
-0.00290214
-0.00290214
-0.00288285
-0.00288285
-0.00286355
-0.00286355
-0.00284431
-0.00284431
-0.00282519
-0.00282519
-0.00280624
-0.00280624
-0.00278747
-0.00278747
-0.00276889
-0.00276889
-0.00275048
-0.00275048
-0.00273222
-0.00273222
-0.00271408
-0.00271408
-0.00269603
-0.00269603
-0.00267805
-0.00267805
-0.00266011
-0.00266011
-0.00264219
-0.00264219
-0.00262429
-0.00262429
-0.00260638
-0.00260638
-0.00258847
-0.00258847
-0.00257053
-0.00257053
-0.00255255
-0.00255255
-0.00253453
-0.00253453
-0.00251642
-0.00251642
-0.0024982
-0.0024982
-0.00247985
-0.00247985
-0.00246134
-0.00246134
-0.00244264
-0.00244264
-0.00242373
-0.00242373
-0.00240458
-0.00240458
-0.00238518
-0.00238518
-0.00236553
-0.00236553
-0.00234561
-0.00234561
-0.00232543
-0.00232543
-0.00230497
-0.00230497
-0.00228424
-0.00228424
-0.00226326
-0.00226325
-0.002242
-0.002242
-0.00222049
-0.00222049
-0.00219875
-0.00219875
-0.00217677
-0.00217677
-0.00215459
-0.00215459
-0.00213222
-0.00213222
-0.00210971
-0.00210971
-0.00208708
-0.00208708
-0.00206437
-0.00206437
-0.0020416
-0.0020416
-0.0020188
-0.0020188
-0.001996
-0.001996
-0.0019732
-0.0019732
-0.00195042
-0.00195042
-0.00192764
-0.00192764
-0.00190485
-0.00190485
-0.00188204
-0.00188204
-0.00185919
-0.00185919
-0.00183629
-0.00183629
-0.00181332
-0.00181332
-0.00179031
-0.00179031
-0.00176726
-0.00176726
-0.00174423
-0.00174423
-0.00172126
-0.00172126
-0.00169842
-0.00169842
-0.00167578
-0.00167578
-0.00165343
-0.00165343
-0.00163145
-0.00163145
-0.0016099
-0.0016099
-0.00158884
-0.00158884
-0.00156833
-0.00156833
-0.0015484
-0.0015484
-0.00152908
-0.00152908
-0.00151036
-0.00151036
-0.00149226
-0.00149226
-0.00147474
-0.00147474
-0.0014578
-0.0014578
-0.00144137
-0.00144137
-0.00142545
-0.00142545
-0.00140997
-0.00140997
-0.00139492
-0.00139492
-0.0013802
-0.0013802
-0.00136586
-0.00136586
-0.00135178
-0.00135178
-0.00133808
-0.00133808
-0.00132465
-0.00132465
-0.00131171
-0.00131171
-0.00129919
-0.00129919
-0.00128741
-0.00128741
-0.00127635
-0.00127635
-0.00126645
-0.00126645
-0.00125766
-0.00125766
-0.00125049
-0.00125049
-0.00124487
-0.00124487
-0.00124122
-0.00124122
-0.00123947
-0.00123947
-6.81489e-06
4.38197e-07
-6.9086e-06
3.33671e-07
-6.91851e-06
3.1572e-07
-6.91225e-06
3.18554e-07
-6.911e-06
3.21397e-07
-6.91356e-06
3.2431e-07
-6.91769e-06
3.28766e-07
-6.923e-06
3.34787e-07
-6.92964e-06
3.42227e-07
-6.93769e-06
3.51212e-07
-6.94687e-06
3.62726e-07
-6.95728e-06
3.77873e-07
-6.97588e-06
3.90871e-07
-7.02842e-06
3.76408e-07
-7.1758e-06
2.68881e-07
-7.49398e-06
-1.21921e-08
-8.01186e-06
-4.94452e-07
-8.68012e-06
-1.12741e-06
-9.42003e-06
-1.8311e-06
-1.01888e-05
-2.56219e-06
-1.09739e-05
-3.30765e-06
-1.17585e-05
-4.05055e-06
-1.25368e-05
-4.78465e-06
-1.33608e-05
-5.56206e-06
-1.43498e-05
-6.50173e-06
-1.56367e-05
-7.73688e-06
-1.72976e-05
-9.34314e-06
-1.93176e-05
-1.13057e-05
-2.1609e-05
-1.35367e-05
-2.40517e-05
-1.59162e-05
-2.65245e-05
-1.83224e-05
-2.89193e-05
-2.06477e-05
-3.11561e-05
-2.28113e-05
-3.32088e-05
-2.47876e-05
-3.51351e-05
-2.66338e-05
-3.7082e-05
-2.84969e-05
-3.92593e-05
-3.05862e-05
-4.18896e-05
-3.31247e-05
-4.51599e-05
-3.62988e-05
-4.91874e-05
-4.02258e-05
-5.40039e-05
-4.49368e-05
-5.95529e-05
-5.03755e-05
-6.57058e-05
-5.64126e-05
-7.22966e-05
-6.28821e-05
-7.91695e-05
-6.96276e-05
-8.62157e-05
-7.65402e-05
-9.33921e-05
-8.35761e-05
-0.000100742
-9.07789e-05
-0.000108384
-9.82652e-05
-0.000116527
-0.000106246
-0.000125727
-0.000115274
-0.000137294
-0.000126662
-0.000153743
-0.000142923
-0.000179132
-0.000168115
-0.000219069
-0.000207847
-0.000279997
-0.00026857
-0.000367635
-0.000356006
-0.000484842
-0.000473029
-0.000629497
-0.000617539
-0.000793344
-0.00078132
-0.000962486
-0.000950557
-0.0011196
-0.00110808
-0.00124753
-0.00123701
-0.00133509
-0.00132653
-0.00137866
-0.00137388
-0.0013686
-0.00136979
-0.00131397
-0.00132023
-0.0012377
-0.00124633
-0.00114704
-0.0011568
-0.00105039
-0.00106063
-0.000955849
-0.000966194
-0.000868382
-0.000878619
-0.000790377
-0.000800388
-0.000722497
-0.000732217
-0.000664394
-0.00067379
-0.000615286
-0.000624341
-0.000574309
-0.000583017
-0.000540654
-0.000549014
-0.000513557
-0.000521571
-0.000492278
-0.00049995
-0.000476109
-0.000483444
-0.000464309
-0.000471309
-0.000456115
-0.000462782
-0.000450853
-0.000457182
-0.000447928
-0.000453875
-0.000447059
-0.000452677
-0.00044815
-0.000453516
-0.000451272
-0.000456368
-0.000456824
-0.000461658
-0.000465307
-0.000469887
-0.000477292
-0.000481628
-0.000493318
-0.000497418
-0.000513778
-0.000517651
-0.000538819
-0.000542475
-0.000568293
-0.000571741
-0.000601748
-0.000604996
-0.000638433
-0.000641492
-0.000677383
-0.000680259
-0.000717533
-0.000720236
-0.000757819
-0.000760357
-0.000797293
-0.000799675
-0.000835195
-0.000837428
-0.000870988
-0.000873079
-0.000904386
-0.000906344
-0.00093532
-0.00093715
-0.000963878
-0.000965587
-0.000990263
-0.000991858
-0.00101473
-0.00101622
-0.00103755
-0.00103893
-0.00105899
-0.00106028
-0.0010793
-0.0010805
-0.00109873
-0.00109984
-0.00111756
-0.0011186
-0.00113608
-0.00113703
-0.00115461
-0.0011555
-0.00117353
-0.00117436
-0.00119321
-0.00119397
-0.00121397
-0.00121467
-0.00123615
-0.0012368
-0.00126005
-0.00126065
-0.00128598
-0.00128653
-0.00131426
-0.00131476
-0.00134529
-0.00134575
-0.00137958
-0.00138
-0.00141778
-0.00141817
-0.00146069
-0.00146105
-0.00150928
-0.00150961
-0.00156455
-0.00156485
-0.00162753
-0.0016278
-0.00169909
-0.00169934
-0.00177985
-0.00178008
-0.00187
-0.00187021
-0.00196918
-0.00196937
-0.00207639
-0.00207657
-0.00218999
-0.00219015
-0.00230774
-0.00230789
-0.00242696
-0.00242709
-0.0025447
-0.00254482
-0.002658
-0.00265811
-0.00276418
-0.00276428
-0.00286102
-0.00286111
-0.00294696
-0.00294704
-0.00302112
-0.0030212
-0.00308338
-0.00308344
-0.00313419
-0.00313425
-0.00317454
-0.00317459
-0.00320571
-0.00320576
-0.00322915
-0.0032292
-0.00324634
-0.00324638
-0.00325862
-0.00325866
-0.0032672
-0.00326723
-0.00327306
-0.00327309
-0.00327699
-0.00327702
-0.00327959
-0.00327962
-0.00328128
-0.00328131
-0.00328237
-0.00328239
-0.00328306
-0.00328308
-0.00328349
-0.00328351
-0.00328373
-0.00328374
-0.00328387
-0.00328388
-0.0032839
-0.0032839
-0.00328382
-0.00328383
-0.00328371
-0.00328373
-0.00328356
-0.00328357
-0.00328338
-0.00328339
-0.00328316
-0.00328317
-0.00328292
-0.00328293
-0.00328267
-0.00328268
-0.00328241
-0.00328242
-0.00328215
-0.00328216
-0.0032819
-0.0032819
-0.00328165
-0.00328166
-0.00328143
-0.00328143
-0.00328122
-0.00328123
-0.00328104
-0.00328104
-0.00328088
-0.00328088
-0.00328074
-0.00328075
-0.00328063
-0.00328064
-0.00328054
-0.00328055
-0.00328047
-0.00328047
-0.00328041
-0.00328042
-0.00328037
-0.00328037
-0.00328033
-0.00328034
-0.0032803
-0.00328031
-0.00328028
-0.00328028
-0.00328025
-0.00328025
-0.00328021
-0.00328021
-0.00328016
-0.00328016
-0.00328008
-0.00328009
-0.00327998
-0.00327998
-0.00327982
-0.00327982
-0.0032796
-0.0032796
-0.00327928
-0.00327928
-0.00327885
-0.00327885
-0.00327826
-0.00327826
-0.00327746
-0.00327746
-0.00327642
-0.00327642
-0.00327507
-0.00327507
-0.00327334
-0.00327334
-0.00327116
-0.00327116
-0.00326845
-0.00326845
-0.00326513
-0.00326512
-0.00326111
-0.00326111
-0.00325634
-0.00325634
-0.00325074
-0.00325074
-0.00324426
-0.00324426
-0.00323688
-0.00323688
-0.00322859
-0.00322859
-0.0032194
-0.0032194
-0.00320936
-0.00320936
-0.00319852
-0.00319852
-0.00318697
-0.00318697
-0.00317478
-0.00317478
-0.00316205
-0.00316205
-0.00314885
-0.00314885
-0.00313525
-0.00313524
-0.00312128
-0.00312128
-0.00310697
-0.00310697
-0.00309231
-0.00309231
-0.00307729
-0.00307728
-0.00306186
-0.00306186
-0.00304599
-0.00304599
-0.00302964
-0.00302964
-0.00301279
-0.00301279
-0.00299543
-0.00299543
-0.00297758
-0.00297758
-0.00295928
-0.00295928
-0.0029406
-0.0029406
-0.00292163
-0.00292163
-0.00290245
-0.00290244
-0.00288316
-0.00288316
-0.00286386
-0.00286385
-0.00284462
-0.00284461
-0.0028255
-0.0028255
-0.00280655
-0.00280655
-0.00278778
-0.00278778
-0.0027692
-0.0027692
-0.00275079
-0.00275079
-0.00273253
-0.00273253
-0.00271439
-0.00271439
-0.00269634
-0.00269634
-0.00267836
-0.00267836
-0.00266042
-0.00266042
-0.0026425
-0.0026425
-0.0026246
-0.0026246
-0.00260669
-0.00260669
-0.00258878
-0.00258878
-0.00257084
-0.00257084
-0.00255286
-0.00255286
-0.00253484
-0.00253484
-0.00251673
-0.00251673
-0.00249851
-0.00249851
-0.00248016
-0.00248016
-0.00246165
-0.00246165
-0.00244295
-0.00244295
-0.00242404
-0.00242404
-0.00240489
-0.00240489
-0.00238549
-0.00238549
-0.00236584
-0.00236584
-0.00234592
-0.00234592
-0.00232574
-0.00232574
-0.00230528
-0.00230528
-0.00228456
-0.00228455
-0.00226357
-0.00226357
-0.00224231
-0.00224231
-0.0022208
-0.0022208
-0.00219906
-0.00219906
-0.00217708
-0.00217708
-0.0021549
-0.0021549
-0.00213254
-0.00213253
-0.00211002
-0.00211002
-0.00208739
-0.00208739
-0.00206468
-0.00206468
-0.00204191
-0.00204191
-0.00201911
-0.00201911
-0.00199631
-0.00199631
-0.00197351
-0.00197351
-0.00195073
-0.00195073
-0.00192795
-0.00192795
-0.00190516
-0.00190516
-0.00188236
-0.00188236
-0.0018595
-0.0018595
-0.0018366
-0.0018366
-0.00181364
-0.00181364
-0.00179062
-0.00179062
-0.00176758
-0.00176758
-0.00174454
-0.00174454
-0.00172157
-0.00172157
-0.00169873
-0.00169873
-0.0016761
-0.0016761
-0.00165375
-0.00165375
-0.00163176
-0.00163176
-0.00161021
-0.00161021
-0.00158915
-0.00158915
-0.00156865
-0.00156865
-0.00154871
-0.00154871
-0.00152941
-0.00152941
-0.00151066
-0.00151066
-0.0014926
-0.0014926
-0.00147503
-0.00147503
-0.00145815
-0.00145815
-0.00144164
-0.00144164
-0.00142583
-0.00142583
-0.00141021
-0.00141021
-0.00139534
-0.00139534
-0.00138038
-0.00138038
-0.00136636
-0.00136636
-0.00135186
-0.00135186
-0.00133871
-0.00133871
-0.00132456
-0.00132456
-0.00131257
-0.00131257
-0.00129881
-0.00129881
-0.00128865
-0.00128865
-0.00127548
-0.00127548
-0.00126833
-0.00126833
-0.00125596
-0.00125596
-0.00125222
-0.00125222
-0.00124189
-0.00124189
-0.00123993
-0.00123993
-0.00123482
-0.00123482
-0.00123947
-0.00123947
-0.00124122
-0.00124122
-0.00124487
-0.00124487
-0.00125049
-0.00125049
-0.00125766
-0.00125766
-0.00126644
-0.00126644
-0.00127636
-0.00127636
-0.00128741
-0.00128741
-0.00129918
-0.00129918
-0.00131171
-0.00131171
-0.00132466
-0.00132466
-0.00133808
-0.00133808
-0.00135178
-0.00135178
-0.00136586
-0.00136586
-0.00138021
-0.00138021
-0.00139492
-0.00139492
-0.00140997
-0.00140997
-0.00142545
-0.00142545
-0.00144137
-0.00144137
-0.0014578
-0.0014578
-0.00147474
-0.00147474
-0.00149226
-0.00149226
-0.00151036
-0.00151036
-0.00152907
-0.00152907
-0.00154839
-0.00154839
-0.00156833
-0.00156833
-0.00158883
-0.00158883
-0.0016099
-0.0016099
-0.00163145
-0.00163145
-0.00165343
-0.00165343
-0.00167579
-0.00167579
-0.00169842
-0.00169842
-0.00172127
-0.00172127
-0.00174423
-0.00174423
-0.00176728
-0.00176728
-0.0017903
-0.0017903
-0.00181332
-0.00181332
-0.00183629
-0.00183629
-0.00185918
-0.00185918
-0.00188205
-0.00188205
-0.00190485
-0.00190485
-0.00192764
-0.00192764
-0.00195042
-0.00195042
-0.0019732
-0.0019732
-0.00199599
-0.00199599
-0.0020188
-0.0020188
-0.00204159
-0.00204159
-0.00206436
-0.00206436
-0.00208708
-0.00208708
-0.00210971
-0.00210971
-0.00213221
-0.00213221
-0.00215459
-0.00215459
-0.00217677
-0.00217677
-0.00219873
-0.00219873
-0.00222049
-0.00222049
-0.002242
-0.002242
-0.00226326
-0.00226326
-0.00228424
-0.00228424
-0.00230496
-0.00230496
-0.00232542
-0.00232542
-0.00234562
-0.00234562
-0.00236553
-0.00236553
-0.00238519
-0.00238519
-0.00240458
-0.00240458
-0.00242374
-0.00242374
-0.00244264
-0.00244264
-0.00246133
-0.00246133
-0.00247986
-0.00247986
-0.00249821
-0.00249821
-0.00251643
-0.00251643
-0.00253452
-0.00253452
-0.00255254
-0.00255254
-0.00257052
-0.00257052
-0.00258845
-0.00258845
-0.00260637
-0.00260637
-0.00262428
-0.00262428
-0.00264219
-0.00264219
-0.00266012
-0.00266012
-0.00267807
-0.00267807
-0.00269605
-0.00269605
-0.00271408
-0.00271408
-0.00273222
-0.00273222
-0.00275047
-0.00275047
-0.00276888
-0.00276888
-0.00278748
-0.00278748
-0.00280623
-0.00280623
-0.00282517
-0.00282517
-0.00284432
-0.00284432
-0.00286355
-0.00286355
-0.00288283
-0.00288283
-0.00290213
-0.00290213
-0.00292131
-0.00292131
-0.00294027
-0.00294027
-0.00295896
-0.00295896
-0.00297729
-0.00297729
-0.00299514
-0.00299514
-0.00301248
-0.00301247
-0.00302934
-0.00302934
-0.00304569
-0.00304569
-0.00306154
-0.00306154
-0.00307697
-0.00307697
-0.00309201
-0.00309201
-0.00310666
-0.00310666
-0.00312098
-0.00312098
-0.00313496
-0.00313496
-0.00314855
-0.00314855
-0.00316173
-0.00316173
-0.00317448
-0.00317448
-0.00318666
-0.00318666
-0.00319819
-0.00319819
-0.00320904
-0.00320904
-0.00321908
-0.00321908
-0.00322826
-0.00322826
-0.00323657
-0.00323657
-0.00324395
-0.00324395
-0.00325042
-0.00325042
-0.00325602
-0.00325602
-0.0032608
-0.0032608
-0.00326481
-0.00326481
-0.00326813
-0.00326813
-0.00327084
-0.00327084
-0.00327302
-0.00327302
-0.00327475
-0.00327475
-0.0032761
-0.0032761
-0.00327715
-0.00327715
-0.00327794
-0.00327794
-0.00327853
-0.00327853
-0.00327896
-0.00327896
-0.00327927
-0.00327927
-0.0032795
-0.0032795
-0.00327965
-0.00327965
-0.00327976
-0.00327976
-0.00327983
-0.00327983
-0.00327988
-0.00327988
-0.00327992
-0.00327992
-0.00327995
-0.00327995
-0.00327998
-0.00327998
-0.00328
-0.00328
-0.00328004
-0.00328004
-0.00328008
-0.00328008
-0.00328014
-0.00328014
-0.00328021
-0.00328021
-0.0032803
-0.0032803
-0.00328041
-0.00328041
-0.00328055
-0.00328055
-0.0032807
-0.0032807
-0.00328089
-0.00328089
-0.00328109
-0.00328109
-0.00328132
-0.00328132
-0.00328156
-0.00328156
-0.00328181
-0.00328181
-0.00328207
-0.00328207
-0.00328233
-0.00328233
-0.00328258
-0.00328258
-0.00328282
-0.00328282
-0.00328304
-0.00328303
-0.00328322
-0.00328322
-0.00328337
-0.00328337
-0.00328348
-0.00328348
-0.00328354
-0.00328354
-0.00328352
-0.00328351
-0.00328339
-0.00328339
-0.00328314
-0.00328314
-0.00328272
-0.00328272
-0.00328203
-0.00328202
-0.00328093
-0.00328093
-0.00327925
-0.00327925
-0.00327665
-0.00327665
-0.00327273
-0.00327273
-0.00326686
-0.00326686
-0.00325826
-0.00325826
-0.003246
-0.003246
-0.00322879
-0.00322879
-0.00320536
-0.00320535
-0.00317421
-0.00317421
-0.00313377
-0.00313377
-0.00308279
-0.00308279
-0.00302082
-0.00302082
-0.00294681
-0.0029468
-0.00286049
-0.00286048
-0.00276366
-0.00276366
-0.00265769
-0.00265769
-0.00254452
-0.00254452
-0.00242687
-0.00242687
-0.00230793
-0.00230792
-0.00219012
-0.00219012
-0.00207588
-0.00207588
-0.00196882
-0.00196881
-0.00187005
-0.00187004
-0.00177941
-0.00177941
-0.00169848
-0.00169848
-0.00162734
-0.00162734
-0.00156453
-0.00156453
-0.00150914
-0.00150914
-0.00146043
-0.00146043
-0.00141761
-0.00141762
-0.00137951
-0.00137951
-0.00134513
-0.00134514
-0.00131402
-0.00131403
-0.0012859
-0.00128591
-0.00126001
-0.00126001
-0.00123599
-0.00123599
-0.00121396
-0.00121396
-0.00119326
-0.00119327
-0.00117347
-0.00117348
-0.00115454
-0.00115455
-0.00113608
-0.00113609
-0.00111754
-0.00111755
-0.00109881
-0.00109883
-0.00107948
-0.00107949
-0.00105908
-0.0010591
-0.00103775
-0.00103777
-0.00101504
-0.00101506
-0.000990471
-0.000990495
-0.00096424
-0.000964266
-0.000935914
-0.000935942
-0.000904805
-0.000904835
-0.000871329
-0.000871361
-0.000835808
-0.000835843
-0.000797957
-0.000797994
-0.000758423
-0.000758463
-0.000718208
-0.000718251
-0.000678293
-0.000678339
-0.000639467
-0.000639516
-0.000602764
-0.000602816
-0.000569542
-0.000569597
-0.00054019
-0.000540248
-0.00051521
-0.000515271
-0.000494882
-0.000494945
-0.000478842
-0.000478907
-0.00046689
-0.000466955
-0.000458549
-0.000458611
-0.000453173
-0.000453227
-0.000450167
-0.000450203
-0.000449224
-0.000449253
-0.000450253
-0.000450281
-0.000453304
-0.000453322
-0.000458768
-0.000458782
-0.000467112
-0.000467125
-0.000479052
-0.000479066
-0.000495487
-0.000495503
-0.000516937
-0.000516956
-0.000544152
-0.000544174
-0.000578143
-0.000578168
-0.00061922
-0.000619248
-0.00066823
-0.000668261
-0.000726349
-0.000726382
-0.00079438
-0.000794416
-0.000872855
-0.000872895
-0.000960184
-0.000960227
-0.00105387
-0.00105391
-0.00115062
-0.00115066
-0.00124117
-0.00124122
-0.00131649
-0.00131651
-0.00137048
-0.00137046
-0.00137617
-0.00137613
-0.00132759
-0.00132757
-0.00123844
-0.00123842
-0.00110982
-0.00110979
-0.00095371
-0.000953676
-0.000785423
-0.000785389
-0.000621059
-0.000621026
-0.00047609
-0.000476058
-0.000358761
-0.00035873
-0.000271126
-0.000271097
-0.000210293
-0.000210265
-0.000170449
-0.000170423
-0.000145031
-0.000145006
-0.000128448
-0.000128424
-0.000116953
-0.00011693
-0.000107969
-0.000107947
-9.99565e-05
-9.99358e-05
-9.23025e-05
-9.22828e-05
-8.49683e-05
-8.49495e-05
-7.79096e-05
-7.78917e-05
-7.09378e-05
-7.09209e-05
-6.40883e-05
-6.40723e-05
-5.75485e-05
-5.75336e-05
-5.14765e-05
-5.14625e-05
-4.59772e-05
-4.59641e-05
-4.11793e-05
-4.11668e-05
-3.71962e-05
-3.71846e-05
-3.39893e-05
-3.39784e-05
-3.14073e-05
-3.13971e-05
-2.92647e-05
-2.92554e-05
-2.73613e-05
-2.73527e-05
-2.54697e-05
-2.54618e-05
-2.34413e-05
-2.3434e-05
-2.12453e-05
-2.12387e-05
-1.89121e-05
-1.89061e-05
-1.64892e-05
-1.64839e-05
-1.40572e-05
-1.40526e-05
-1.17675e-05
-1.17635e-05
-9.76981e-06
-9.76643e-06
-8.13241e-06
-8.12964e-06
-6.86398e-06
-6.86183e-06
-5.90226e-06
-5.9007e-06
-5.10269e-06
-5.10168e-06
-4.34524e-06
-4.34474e-06
-3.58867e-06
-3.58869e-06
-2.82936e-06
-2.82988e-06
-2.07398e-06
-2.07501e-06
-1.34554e-06
-1.34705e-06
-6.9642e-07
-6.98391e-07
-1.97412e-07
-1.99787e-07
1.04089e-07
1.01311e-07
2.30541e-07
2.27374e-07
2.5988e-07
2.5638e-07
2.5976e-07
2.55902e-07
2.5785e-07
2.53512e-07
2.57766e-07
2.52853e-07
2.5815e-07
2.52689e-07
2.5847e-07
2.52539e-07
2.58797e-07
2.52392e-07
2.59279e-07
2.52294e-07
2.59614e-07
2.52201e-07
2.57359e-07
2.51841e-07
2.4992e-07
2.5219e-07
2.55245e-07
2.67958e-07
3.41283e-07
3.63893e-07
-0.00123482
-0.00123482
-0.00123993
-0.00123993
-0.00124189
-0.00124189
-0.00125222
-0.00125222
-0.00125596
-0.00125596
-0.00126833
-0.00126833
-0.00127548
-0.00127548
-0.00128865
-0.00128865
-0.0012988
-0.0012988
-0.00131257
-0.00131257
-0.00132456
-0.00132456
-0.00133872
-0.00133872
-0.00135186
-0.00135186
-0.00136637
-0.00136637
-0.00138039
-0.00138039
-0.00139534
-0.00139534
-0.0014102
-0.0014102
-0.00142583
-0.00142583
-0.00144164
-0.00144164
-0.00145815
-0.00145815
-0.00147503
-0.00147503
-0.0014926
-0.0014926
-0.00151066
-0.00151066
-0.0015294
-0.0015294
-0.0015487
-0.0015487
-0.00156865
-0.00156865
-0.00158914
-0.00158914
-0.00161022
-0.00161022
-0.00163176
-0.00163176
-0.00165374
-0.00165374
-0.0016761
-0.0016761
-0.00169874
-0.00169874
-0.00172158
-0.00172158
-0.00174455
-0.00174455
-0.00176759
-0.00176759
-0.00179062
-0.00179062
-0.00181363
-0.00181363
-0.0018366
-0.0018366
-0.0018595
-0.0018595
-0.00188236
-0.00188236
-0.00190516
-0.00190516
-0.00192795
-0.00192795
-0.00195073
-0.00195073
-0.00197352
-0.00197352
-0.0019963
-0.0019963
-0.00201911
-0.00201911
-0.0020419
-0.0020419
-0.00206467
-0.00206467
-0.00208739
-0.00208739
-0.00211002
-0.00211002
-0.00213253
-0.00213253
-0.00215491
-0.00215491
-0.00217708
-0.00217708
-0.00219904
-0.00219904
-0.0022208
-0.0022208
-0.00224231
-0.00224231
-0.00226357
-0.00226357
-0.00228456
-0.00228456
-0.00230527
-0.00230527
-0.00232573
-0.00232573
-0.00234593
-0.00234593
-0.00236585
-0.00236585
-0.0023855
-0.0023855
-0.00240489
-0.00240489
-0.00242405
-0.00242405
-0.00244295
-0.00244295
-0.00246164
-0.00246164
-0.00248017
-0.00248017
-0.00249852
-0.00249852
-0.00251674
-0.00251674
-0.00253483
-0.00253483
-0.00255285
-0.00255285
-0.00257084
-0.00257084
-0.00258876
-0.00258876
-0.00260668
-0.00260668
-0.00262459
-0.00262459
-0.00264251
-0.0026425
-0.00266043
-0.00266043
-0.00267838
-0.00267838
-0.00269636
-0.00269636
-0.00271439
-0.00271439
-0.00273253
-0.00273253
-0.00275078
-0.00275078
-0.00276919
-0.00276919
-0.00278779
-0.00278779
-0.00280654
-0.00280654
-0.00282548
-0.00282548
-0.00284463
-0.00284463
-0.00286386
-0.00286386
-0.00288314
-0.00288314
-0.00290244
-0.00290244
-0.00292162
-0.00292162
-0.00294058
-0.00294058
-0.00295927
-0.00295927
-0.0029776
-0.0029776
-0.00299545
-0.00299545
-0.00301279
-0.00301278
-0.00302965
-0.00302965
-0.003046
-0.003046
-0.00306185
-0.00306185
-0.00307728
-0.00307728
-0.00309232
-0.00309232
-0.00310697
-0.00310697
-0.00312129
-0.00312129
-0.00313527
-0.00313527
-0.00314886
-0.00314886
-0.00316204
-0.00316204
-0.0031748
-0.00317479
-0.00318697
-0.00318697
-0.0031985
-0.0031985
-0.00320935
-0.00320935
-0.00321939
-0.00321939
-0.00322858
-0.00322857
-0.00323688
-0.00323688
-0.00324426
-0.00324426
-0.00325073
-0.00325073
-0.00325633
-0.00325633
-0.00326111
-0.00326111
-0.00326512
-0.00326512
-0.00326844
-0.00326844
-0.00327115
-0.00327115
-0.00327333
-0.00327333
-0.00327506
-0.00327506
-0.00327641
-0.00327641
-0.00327746
-0.00327746
-0.00327825
-0.00327825
-0.00327884
-0.00327883
-0.00327927
-0.00327927
-0.00327958
-0.00327958
-0.00327981
-0.00327981
-0.00327996
-0.00327996
-0.00328007
-0.00328007
-0.00328014
-0.00328014
-0.0032802
-0.00328019
-0.00328023
-0.00328023
-0.00328026
-0.00328026
-0.00328029
-0.00328029
-0.00328032
-0.00328031
-0.00328035
-0.00328035
-0.00328039
-0.00328039
-0.00328045
-0.00328045
-0.00328052
-0.00328052
-0.00328061
-0.00328061
-0.00328072
-0.00328072
-0.00328086
-0.00328086
-0.00328102
-0.00328101
-0.0032812
-0.0032812
-0.0032814
-0.0032814
-0.00328163
-0.00328163
-0.00328187
-0.00328187
-0.00328212
-0.00328212
-0.00328238
-0.00328238
-0.00328264
-0.00328264
-0.0032829
-0.00328289
-0.00328313
-0.00328313
-0.00328335
-0.00328335
-0.00328353
-0.00328353
-0.00328368
-0.00328369
-0.00328379
-0.00328378
-0.00328386
-0.00328388
-0.00328382
-0.00328385
-0.00328368
-0.00328368
-0.00328344
-0.00328345
-0.00328301
-0.00328302
-0.00328232
-0.00328233
-0.00328123
-0.00328124
-0.00327955
-0.00327956
-0.00327695
-0.00327696
-0.00327303
-0.00327304
-0.00326716
-0.00326717
-0.00325856
-0.00325856
-0.0032463
-0.00324631
-0.00322909
-0.0032291
-0.00320565
-0.00320566
-0.00317451
-0.00317451
-0.00313407
-0.00313408
-0.00308309
-0.0030831
-0.00302112
-0.00302113
-0.0029471
-0.00294711
-0.00286078
-0.00286079
-0.00276396
-0.00276397
-0.00265799
-0.002658
-0.00254482
-0.00254483
-0.00242717
-0.00242718
-0.00230823
-0.00230824
-0.00219042
-0.00219043
-0.00207618
-0.00207619
-0.00196912
-0.00196913
-0.00187035
-0.00187036
-0.00177971
-0.00177972
-0.00169878
-0.00169879
-0.00162764
-0.00162765
-0.00156483
-0.00156484
-0.00150944
-0.00150945
-0.00146073
-0.00146074
-0.00141792
-0.00141793
-0.00137981
-0.00137982
-0.00134544
-0.00134545
-0.00131433
-0.00131434
-0.00128621
-0.00128622
-0.00126031
-0.00126033
-0.00123629
-0.00123631
-0.00121426
-0.00121428
-0.00119357
-0.00119358
-0.00117378
-0.00117379
-0.00115485
-0.00115487
-0.00113639
-0.0011364
-0.00111785
-0.00111786
-0.00109912
-0.00109914
-0.00107979
-0.0010798
-0.00105939
-0.00105941
-0.00103807
-0.00103808
-0.00101536
-0.00101537
-0.000990789
-0.000990803
-0.000964559
-0.000964573
-0.000936234
-0.000936248
-0.000905127
-0.00090514
-0.000871652
-0.000871666
-0.000836133
-0.000836147
-0.000798284
-0.000798297
-0.000758752
-0.000758765
-0.000718539
-0.000718551
-0.000678626
-0.000678638
-0.000639802
-0.000639813
-0.000603101
-0.000603112
-0.000569881
-0.000569892
-0.000540531
-0.000540542
-0.000515553
-0.000515563
-0.000495227
-0.000495236
-0.000479188
-0.000479198
-0.000467237
-0.000467245
-0.000458894
-0.000458902
-0.000453511
-0.000453518
-0.0004505
-0.000450506
-0.000449538
-0.000449544
-0.000450549
-0.000450554
-0.000453599
-0.000453602
-0.000459058
-0.000459061
-0.000467401
-0.000467403
-0.000479342
-0.000479343
-0.000495779