/*--------------------------------*- C++ -*----------------------------------*\
| =========                 |                                                 |
| \\      /  F ield         | OpenFOAM: The Open Source CFD Toolbox           |
|  \\    /   O peration     | Version:  2012                                  |
|   \\  /    A nd           | Website:  www.openfoam.com                      |
|    \\/     M anipulation  |                                                 |
\*---------------------------------------------------------------------------*/
FoamFile
{
    version     2.0;
    format      ascii;
    class       surfaceScalarField;
    location    "7000";
    object      phi;
}
// * * * * * * * * * * * * * * * * * * * * * * * * * * * * * * * * * * * * * //

dimensions      [0 3 -1 0 0 0 0];
oriented        oriented;


internalField   nonuniform List<scalar> 
5116
(
1.56707e-08
-4.28588e-18
3.3419e-23
-4.43454e-23
4.03245e-23
4.79227e-08
-4.28778e-18
7.27351e-22
9.43183e-22
1.90778e-22
8.15774e-08
-4.28974e-18
7.42977e-22
1.95517e-21
1.99149e-22
1.16682e-07
-4.29172e-18
7.52741e-22
2.96129e-21
2.07846e-22
1.53286e-07
-4.29371e-18
7.62472e-22
3.96947e-21
2.16878e-22
1.91439e-07
-4.29569e-18
7.72847e-22
4.94405e-21
2.26253e-22
2.31193e-07
-4.29768e-18
7.83211e-22
5.90387e-21
2.35983e-22
2.72602e-07
-4.29965e-18
7.93405e-22
6.89353e-21
2.46079e-22
3.15721e-07
-4.30174e-18
8.03431e-22
7.89387e-21
2.56551e-22
3.60606e-07
-4.30384e-18
8.13296e-22
8.96455e-21
2.67412e-22
4.07316e-07
-4.30582e-18
8.23002e-22
9.87447e-21
2.78672e-22
4.55912e-07
-4.30803e-18
8.32544e-22
1.08588e-20
2.90348e-22
5.06455e-07
-4.31027e-18
8.41922e-22
1.17679e-20
3.0245e-22
5.5901e-07
-4.31226e-18
8.51126e-22
1.26746e-20
3.14991e-22
6.13642e-07
-4.31426e-18
8.60141e-22
1.34452e-20
3.27985e-22
6.70418e-07
-4.31652e-18
8.6895e-22
1.43368e-20
3.41448e-22
7.29408e-07
-4.31862e-18
8.7754e-22
1.5166e-20
3.55392e-22
7.90683e-07
-4.32065e-18
8.85887e-22
1.59817e-20
3.69831e-22
8.54316e-07
-4.32297e-18
8.9397e-22
1.67892e-20
3.84778e-22
9.20382e-07
-4.32508e-18
9.01774e-22
1.76351e-20
4.00247e-22
9.88958e-07
-4.32725e-18
9.09274e-22
1.85983e-20
4.16244e-22
1.06012e-06
-4.32953e-18
9.16442e-22
1.96247e-20
4.32782e-22
1.13395e-06
-4.33176e-18
9.23252e-22
2.03533e-20
4.49867e-22
1.21053e-06
-4.33373e-18
9.2968e-22
2.09531e-20
4.67507e-22
1.28994e-06
-4.336e-18
9.35683e-22
2.17021e-20
4.85709e-22
1.37227e-06
-4.33818e-18
9.41228e-22
2.22841e-20
5.04472e-22
1.45759e-06
-4.3406e-18
9.4627e-22
2.27081e-20
5.23797e-22
1.54599e-06
-4.34247e-18
9.50761e-22
2.30233e-20
5.4369e-22
1.63756e-06
-4.344e-18
9.54637e-22
2.35093e-20
5.64148e-22
1.73237e-06
-4.34621e-18
9.57842e-22
2.40665e-20
5.85153e-22
1.83052e-06
-4.34803e-18
9.6033e-22
2.43209e-20
6.06688e-22
1.93208e-06
-4.35042e-18
9.62027e-22
2.49121e-20
6.28727e-22
2.03712e-06
-4.35235e-18
9.62885e-22
2.559e-20
6.51215e-22
2.14573e-06
-4.35419e-18
9.62825e-22
2.5675e-20
6.74108e-22
2.25798e-06
-4.35591e-18
9.61776e-22
2.59547e-20
6.97393e-22
2.37393e-06
-4.35698e-18
9.59659e-22
2.61685e-20
7.20998e-22
2.49365e-06
-4.35831e-18
9.56354e-22
2.57883e-20
7.44891e-22
2.61718e-06
-4.36043e-18
9.51778e-22
2.66456e-20
7.69016e-22
2.74458e-06
-4.36245e-18
9.45853e-22
2.73668e-20
7.93287e-22
2.8759e-06
-4.36417e-18
9.38502e-22
2.73275e-20
8.176e-22
3.01115e-06
-4.36586e-18
9.29657e-22
2.78538e-20
8.41884e-22
3.15038e-06
-4.36756e-18
9.19244e-22
2.78558e-20
8.66034e-22
3.29359e-06
-4.3687e-18
9.07179e-22
2.73217e-20
8.89976e-22
3.44079e-06
-4.37083e-18
8.93372e-22
2.8245e-20
9.1362e-22
3.59199e-06
-4.37224e-18
8.77819e-22
2.79121e-20
9.36817e-22
3.74717e-06
-4.37363e-18
8.60459e-22
2.85657e-20
9.595e-22
3.90631e-06
-4.37578e-18
8.4129e-22
2.9081e-20
9.81542e-22
4.0694e-06
-4.37779e-18
8.2036e-22
2.90915e-20
1.0028e-21
4.23639e-06
-4.37855e-18
7.97704e-22
2.89525e-20
1.02319e-21
4.40726e-06
-4.38091e-18
7.73351e-22
2.84477e-20
1.04262e-21
4.58196e-06
-4.3824e-18
7.47344e-22
2.82066e-20
1.06104e-21
4.76045e-06
-4.38289e-18
7.19789e-22
2.807e-20
1.07832e-21
4.94269e-06
-4.38368e-18
6.90665e-22
2.65791e-20
1.0944e-21
5.12863e-06
-4.38456e-18
6.60102e-22
2.53966e-20
1.10928e-21
5.31821e-06
-4.38503e-18
6.28171e-22
2.46585e-20
1.12297e-21
5.51141e-06
-4.3856e-18
5.94892e-22
2.33682e-20
1.13537e-21
5.70818e-06
-4.3861e-18
5.60347e-22
2.16504e-20
1.14659e-21
5.90848e-06
-4.38705e-18
5.2465e-22
2.10226e-20
1.15661e-21
6.11229e-06
-4.38609e-18
4.87957e-22
1.92549e-20
1.16536e-21
6.31956e-06
-4.38538e-18
4.50188e-22
1.68172e-20
1.17305e-21
6.53029e-06
-4.38568e-18
4.11481e-22
1.5432e-20
1.17965e-21
6.74444e-06
-4.384e-18
3.71957e-22
1.26422e-20
1.18522e-21
6.96202e-06
-4.38129e-18
3.31578e-22
8.02323e-21
1.18977e-21
7.18302e-06
-4.37941e-18
2.90433e-22
4.99767e-21
1.19343e-21
7.40744e-06
-4.37759e-18
2.48608e-22
2.63736e-21
1.19621e-21
7.63529e-06
-4.37589e-18
2.0615e-22
9.86233e-22
1.19804e-21
7.86658e-06
-4.37491e-18
1.63208e-22
-3.78492e-25
1.19916e-21
8.10133e-06
-4.3734e-18
1.19877e-22
-4.57465e-21
1.19942e-21
8.33957e-06
-4.37151e-18
7.61636e-23
-8.09759e-21
1.19928e-21
8.58133e-06
-4.36816e-18
3.21479e-23
-1.20725e-20
1.19858e-21
8.82664e-06
-4.36353e-18
-1.21221e-23
-1.55771e-20
1.19729e-21
9.07555e-06
-4.36104e-18
-5.67103e-23
-2.00599e-20
1.19532e-21
9.32809e-06
-4.35708e-18
-1.01424e-22
-2.33318e-20
1.19282e-21
9.58432e-06
-4.35407e-18
-1.46438e-22
-2.87658e-20
1.1898e-21
9.84429e-06
-4.34959e-18
-1.91486e-22
-3.3167e-20
1.18646e-21
1.01081e-05
-4.34599e-18
-2.36957e-22
-3.65884e-20
1.18256e-21
1.03757e-05
-4.34242e-18
-2.82659e-22
-4.17616e-20
1.17802e-21
1.06472e-05
-4.33977e-18
-3.2878e-22
-4.64902e-20
1.17311e-21
1.09228e-05
-4.33694e-18
-3.75111e-22
-5.10094e-20
1.16778e-21
1.12024e-05
-4.33024e-18
-4.21603e-22
-5.8851e-20
1.16205e-21
1.14861e-05
-4.32448e-18
-4.68746e-22
-6.12641e-20
1.15616e-21
1.1774e-05
-4.31919e-18
-5.16701e-22
-6.69824e-20
1.14983e-21
1.20662e-05
-4.31436e-18
-5.65074e-22
-7.38956e-20
1.14356e-21
1.23628e-05
-4.30777e-18
-6.1416e-22
-8.01024e-20
1.13803e-21
1.26638e-05
-4.30129e-18
-6.63915e-22
-8.71678e-20
1.133e-21
1.29694e-05
-4.29862e-18
-7.1426e-22
-8.93748e-20
1.12827e-21
1.32796e-05
-4.2962e-18
-7.64922e-22
-9.00838e-20
1.12315e-21
1.35944e-05
-4.29507e-18
-8.1584e-22
-9.09672e-20
1.11745e-21
1.39141e-05
-4.29006e-18
-8.66896e-22
-9.56566e-20
1.11143e-21
1.42386e-05
-4.28798e-18
-9.18586e-22
-9.8157e-20
1.10562e-21
1.45681e-05
-4.28305e-18
-9.70964e-22
-1.02466e-19
1.09967e-21
1.49027e-05
-4.28239e-18
-1.02361e-21
-1.03037e-19
1.09346e-21
1.52425e-05
-4.27783e-18
-1.07588e-21
-1.06107e-19
1.0868e-21
1.55875e-05
-4.27399e-18
-1.12856e-21
-1.12017e-19
1.08035e-21
1.59379e-05
-4.2677e-18
-1.18131e-21
-1.16991e-19
1.07333e-21
1.62938e-05
-4.26506e-18
-1.23525e-21
-1.25438e-19
1.06568e-21
1.66552e-05
-4.25444e-18
-1.28867e-21
-1.30828e-19
1.05796e-21
1.70223e-05
-4.2454e-18
-1.34278e-21
-1.3976e-19
1.05044e-21
1.73953e-05
-4.23562e-18
-1.39772e-21
-1.49701e-19
1.04319e-21
1.77741e-05
-4.22688e-18
-1.4538e-21
-1.57118e-19
1.03618e-21
1.81589e-05
-4.21355e-18
-1.51066e-21
-1.67111e-19
1.02857e-21
1.85498e-05
-4.19731e-18
-1.56923e-21
-1.78621e-19
1.02141e-21
1.8947e-05
-4.18517e-18
-1.6309e-21
-1.90028e-19
1.01492e-21
1.93505e-05
-4.17994e-18
-1.69519e-21
-1.9339e-19
1.00929e-21
1.97604e-05
-4.16639e-18
-1.76032e-21
-2.03887e-19
1.00336e-21
2.0177e-05
-4.15682e-18
-1.82824e-21
-2.14423e-19
9.97335e-22
2.06002e-05
-4.14332e-18
-1.89722e-21
-2.26088e-19
9.91771e-22
2.10303e-05
-4.13775e-18
-1.96856e-21
-2.28679e-19
9.85874e-22
2.14674e-05
-4.13257e-18
-2.04121e-21
-2.32445e-19
9.79783e-22
2.19115e-05
-4.12708e-18
-2.11564e-21
-2.36106e-19
9.74575e-22
2.23628e-05
-4.11939e-18
-2.18994e-21
-2.42892e-19
9.68396e-22
2.28215e-05
-4.11156e-18
-2.26363e-21
-2.46362e-19
9.61626e-22
2.32876e-05
-4.10218e-18
-2.33697e-21
-2.54175e-19
9.53472e-22
2.37613e-05
-4.09561e-18
-2.41119e-21
-2.57478e-19
9.44234e-22
2.42428e-05
-4.08545e-18
-2.48486e-21
-2.63424e-19
9.32347e-22
2.47322e-05
-4.08005e-18
-2.5607e-21
-2.69773e-19
9.19444e-22
2.52295e-05
-4.06924e-18
-2.63457e-21
-2.71635e-19
9.05496e-22
2.5735e-05
-4.04978e-18
-2.70806e-21
-2.78021e-19
8.89889e-22
2.62489e-05
-4.04498e-18
-2.78281e-21
-2.82828e-19
8.71431e-22
2.67712e-05
-4.03581e-18
-2.85527e-21
-2.87334e-19
8.51088e-22
2.73021e-05
-4.0189e-18
-2.92654e-21
-2.93653e-19
8.27317e-22
2.78417e-05
-4.00821e-18
-2.9989e-21
-3.01817e-19
8.02597e-22
2.83902e-05
-3.99555e-18
-3.06981e-21
-3.11556e-19
7.77012e-22
2.89478e-05
-3.98574e-18
-3.14158e-21
-3.18994e-19
7.49964e-22
2.95147e-05
-3.973e-18
-3.21138e-21
-3.2611e-19
7.19674e-22
3.00909e-05
-3.96132e-18
-3.28047e-21
-3.36305e-19
6.8709e-22
3.06766e-05
-3.94412e-18
-3.34789e-21
-3.45955e-19
6.52953e-22
3.12721e-05
-3.93185e-18
-3.41923e-21
-3.60083e-19
6.17869e-22
3.18774e-05
-3.91714e-18
-3.49113e-21
-3.67327e-19
5.80925e-22
3.24928e-05
-3.90625e-18
-3.56408e-21
-3.74604e-19
5.42745e-22
3.31184e-05
-3.89615e-18
-3.63982e-21
-3.8491e-19
5.05482e-22
3.37544e-05
-3.89512e-18
-3.71382e-21
-3.97688e-19
4.6631e-22
3.4401e-05
-3.87897e-18
-3.78259e-21
-3.99307e-19
4.27713e-22
3.50584e-05
-3.87289e-18
-3.85093e-21
-4.11743e-19
3.84804e-22
3.57267e-05
-3.85747e-18
-3.92012e-21
-4.27435e-19
3.44083e-22
3.64061e-05
-3.84846e-18
-3.99135e-21
-4.35787e-19
3.10847e-22
3.70968e-05
-3.84192e-18
-4.06305e-21
-4.49069e-19
2.75177e-22
3.77991e-05
-3.8291e-18
-4.13615e-21
-4.62179e-19
2.43753e-22
3.85131e-05
-3.81018e-18
-4.2132e-21
-4.70814e-19
2.15805e-22
3.92389e-05
-3.79406e-18
-4.29205e-21
-4.78268e-19
1.85753e-22
3.99769e-05
-3.78238e-18
-4.37672e-21
-4.87901e-19
1.52533e-22
4.07272e-05
-3.77768e-18
-4.4601e-21
-5.00143e-19
1.1995e-22
4.14901e-05
-3.75659e-18
-4.5479e-21
-5.08341e-19
9.19149e-23
4.22656e-05
-3.73605e-18
-4.64193e-21
-5.24529e-19
6.43403e-23
4.30542e-05
-3.72695e-18
-4.73806e-21
-5.28344e-19
4.28107e-23
4.38559e-05
-3.71401e-18
-4.83017e-21
-5.46132e-19
1.9376e-23
4.46709e-05
-3.69859e-18
-4.92026e-21
-5.56117e-19
-5.64106e-24
4.54997e-05
-3.67988e-18
-5.00861e-21
-5.75257e-19
-3.46516e-23
4.63422e-05
-3.66279e-18
-5.09999e-21
-5.9083e-19
-6.1797e-23
4.71989e-05
-3.64855e-18
-5.19264e-21
-6.0025e-19
-8.84846e-23
4.80698e-05
-3.63399e-18
-5.28071e-21
-6.1875e-19
-1.24051e-22
4.89553e-05
-3.62558e-18
-5.36563e-21
-6.23935e-19
-1.6341e-22
4.98556e-05
-3.60785e-18
-5.44218e-21
-6.41044e-19
-2.13194e-22
5.0771e-05
-3.58373e-18
-5.52047e-21
-6.5754e-19
-2.72367e-22
5.17017e-05
-3.56699e-18
-5.59684e-21
-6.76527e-19
-3.38777e-22
5.26479e-05
-3.55171e-18
-5.66818e-21
-6.89578e-19
-4.13003e-22
5.36099e-05
-3.53277e-18
-5.73971e-21
-7.05303e-19
-4.96715e-22
5.45881e-05
-3.51178e-18
-5.79562e-21
-7.21647e-19
-5.80684e-22
5.55825e-05
-3.48967e-18
-5.85248e-21
-7.40022e-19
-6.61122e-22
5.65936e-05
-3.45567e-18
-5.90425e-21
-7.60209e-19
-7.47782e-22
5.76215e-05
-3.41986e-18
-5.95508e-21
-7.83913e-19
-8.36623e-22
5.86667e-05
-3.41602e-18
-6.00964e-21
-8.00574e-19
-9.11268e-22
5.97293e-05
-3.40966e-18
-6.05975e-21
-8.18942e-19
-9.72901e-22
6.08096e-05
-3.38842e-18
-6.09629e-21
-8.3243e-19
-1.0367e-21
6.1908e-05
-3.40377e-18
-6.14912e-21
-8.29754e-19
-1.09254e-21
6.30247e-05
-3.39026e-18
-6.16254e-21
-8.28293e-19
-1.15504e-21
6.41601e-05
-3.37398e-18
-6.17825e-21
-8.4234e-19
-1.20706e-21
6.53144e-05
-3.37639e-18
-6.20917e-21
-8.26313e-19
-1.23365e-21
6.6488e-05
-3.36126e-18
-6.2292e-21
-8.32909e-19
-1.29495e-21
6.76811e-05
-3.3391e-18
-6.2613e-21
-8.45551e-19
-1.36578e-21
6.88942e-05
-3.33197e-18
-6.32811e-21
-8.44052e-19
-1.44097e-21
7.01274e-05
-3.29622e-18
-6.39011e-21
-8.62453e-19
-1.53676e-21
7.13813e-05
-3.28548e-18
-6.46646e-21
-8.70068e-19
-1.62255e-21
7.2656e-05
-3.27466e-18
-6.54345e-21
-8.71431e-19
-1.71257e-21
7.39519e-05
-3.26924e-18
-6.60744e-21
-8.7971e-19
-1.81419e-21
7.52695e-05
-3.24214e-18
-6.6342e-21
-8.96193e-19
-1.91083e-21
7.6609e-05
-3.23374e-18
-6.6642e-21
-9.02041e-19
-1.9895e-21
7.79708e-05
-3.21832e-18
-6.66198e-21
-9.1597e-19
-2.07324e-21
7.93552e-05
-3.18927e-18
-6.65743e-21
-9.16501e-19
-2.126e-21
8.07627e-05
-3.18135e-18
-6.67426e-21
-9.36979e-19
-2.13923e-21
8.21936e-05
-3.16041e-18
-6.68172e-21
-9.29299e-19
-2.1258e-21
8.36482e-05
-3.13377e-18
-6.67281e-21
-9.29054e-19
-2.134e-21
8.51271e-05
-3.11082e-18
-6.68093e-21
-9.3512e-19
-2.11368e-21
8.66305e-05
-3.09275e-18
-6.681e-21
-9.33616e-19
-2.02858e-21
8.81589e-05
-3.06623e-18
-6.67041e-21
-9.43073e-19
-1.91629e-21
8.97127e-05
-3.05097e-18
-6.67003e-21
-9.53095e-19
-1.75729e-21
9.12922e-05
-3.03027e-18
-6.66686e-21
-9.48509e-19
-1.57105e-21
9.2898e-05
-3.0208e-18
-6.66145e-21
-9.45069e-19
-1.3894e-21
9.45304e-05
-2.98791e-18
-6.62335e-21
-9.5267e-19
-1.20155e-21
9.61898e-05
-2.98053e-18
-6.61685e-21
-9.5026e-19
-9.98118e-22
9.78768e-05
-2.95078e-18
-6.58544e-21
-9.44919e-19
-8.04007e-22
9.95917e-05
-2.92831e-18
-6.58972e-21
-9.54203e-19
-6.02168e-22
0.000101335
-2.89701e-18
-6.57878e-21
-9.67397e-19
-4.02313e-22
0.000103107
-2.87714e-18
-6.56414e-21
-9.89124e-19
-1.61553e-22
0.000104909
-2.84745e-18
-6.56201e-21
-1.00196e-18
1.06889e-22
0.00010674
-2.82382e-18
-6.59709e-21
-1.00128e-18
3.66177e-22
0.000108601
-2.80492e-18
-6.64184e-21
-1.02523e-18
5.7183e-22
0.000110494
-2.76343e-18
-6.60464e-21
-1.04148e-18
7.74366e-22
0.000112417
-2.7426e-18
-6.58942e-21
-1.05925e-18
9.4721e-22
0.000114373
-2.70936e-18
-6.60628e-21
-1.07988e-18
1.08539e-21
0.00011636
-2.65314e-18
-6.59327e-21
-1.10613e-18
1.22357e-21
0.000118381
-2.60593e-18
-6.61631e-21
-1.13212e-18
1.34026e-21
0.000120434
-2.56772e-18
-6.6642e-21
-1.16059e-18
1.47733e-21
0.000122522
-2.58093e-18
-6.76859e-21
-1.14883e-18
1.69415e-21
0.000124644
-2.56103e-18
-6.80978e-21
-1.10124e-18
1.91039e-21
0.000126801
-2.54668e-18
-6.8938e-21
-1.09917e-18
1.93388e-21
0.000128993
-2.54775e-18
-7.02579e-21
-1.08958e-18
1.92177e-21
0.000131221
-2.52017e-18
-7.03243e-21
-1.07192e-18
2.0239e-21
0.000133486
-2.51797e-18
-7.02297e-21
-1.09096e-18
2.09525e-21
0.000135789
-2.49189e-18
-6.99649e-21
-1.06476e-18
2.2287e-21
0.000138129
-2.47671e-18
-6.83491e-21
-1.0837e-18
2.20664e-21
0.000140507
-2.46207e-18
-6.61432e-21
-1.07403e-18
2.24465e-21
0.000142925
-2.442e-18
-6.38904e-21
-1.05759e-18
2.24358e-21
0.000145382
-2.4128e-18
-6.16647e-21
-1.07652e-18
2.33664e-21
0.000147879
-2.3811e-18
-5.83505e-21
-1.06542e-18
2.53209e-21
0.000150418
-2.341e-18
-5.46082e-21
-1.06829e-18
2.7717e-21
0.000152998
-2.30843e-18
-5.08304e-21
-1.07074e-18
2.99012e-21
0.00015562
-2.31221e-18
-4.86539e-21
-1.07407e-18
3.29312e-21
0.000158285
-2.27353e-18
-4.62516e-21
-1.07126e-18
3.5682e-21
0.000160993
-2.24939e-18
-4.42241e-21
-1.05503e-18
3.85307e-21
0.000163746
-2.25509e-18
-4.24712e-21
-1.08267e-18
4.1645e-21
0.000166544
-2.23075e-18
-3.8468e-21
-1.07899e-18
4.54898e-21
0.000169388
-2.25277e-18
-3.54309e-21
-1.09049e-18
5.05764e-21
0.000172277
-2.21451e-18
-3.03174e-21
-1.09428e-18
5.8506e-21
0.000175214
-2.2018e-18
-2.71716e-21
-1.09481e-18
6.58319e-21
0.000178199
-2.16356e-18
-2.22775e-21
-1.11467e-18
7.12502e-21
0.000181233
-2.15664e-18
-1.72969e-21
-1.0933e-18
7.77431e-21
0.000184315
-2.16826e-18
-1.42729e-21
-1.12164e-18
8.13367e-21
0.000187448
-2.15129e-18
-1.04067e-21
-1.15998e-18
8.26238e-21
0.000190632
-2.16083e-18
-4.87337e-22
-1.20644e-18
8.1879e-21
0.000193868
-2.16768e-18
8.78146e-23
-1.24246e-18
8.26587e-21
0.000197156
-2.18167e-18
6.81585e-22
-1.24679e-18
8.32575e-21
0.000200497
-2.13035e-18
1.18032e-21
-1.27277e-18
8.19325e-21
0.000203893
-2.11269e-18
1.41858e-21
-1.3235e-18
7.78319e-21
0.000207343
-2.10054e-18
1.38413e-21
-1.33386e-18
7.36847e-21
0.00021085
-2.05978e-18
1.25788e-21
-1.34638e-18
7.05896e-21
0.000214413
-2.10281e-18
8.25311e-22
-1.34245e-18
7.00304e-21
0.000218034
-2.12293e-18
5.79318e-22
-1.32821e-18
6.90991e-21
0.000221713
-2.12534e-18
2.90051e-22
-1.34242e-18
6.53611e-21
0.000225451
-2.1285e-18
6.39169e-23
-1.37259e-18
6.27813e-21
0.00022925
-2.1532e-18
-7.26798e-23
-1.37558e-18
6.21255e-21
0.000233111
-2.16374e-18
-1.14604e-22
-1.38348e-18
5.99872e-21
0.000237033
-2.16321e-18
-3.21399e-22
-1.38586e-18
5.9122e-21
0.000241018
-2.15211e-18
-7.65021e-22
-1.36281e-18
5.78849e-21
0.000245068
-2.125e-18
-1.32464e-21
-1.35743e-18
5.28896e-21
0.000249183
-2.06518e-18
-1.75328e-21
-1.44377e-18
4.77415e-21
0.000253363
-2.00271e-18
-1.54638e-21
-1.39131e-18
4.12097e-21
0.000257611
-1.92085e-18
-1.64737e-21
-1.40498e-18
2.37528e-21
0.000261927
-1.87554e-18
-2.16927e-21
-1.44066e-18
1.35856e-21
0.000266312
-1.76485e-18
-2.72818e-21
-1.48143e-18
1.41023e-21
0.000270767
-1.77688e-18
-3.16659e-21
-1.44596e-18
2.39834e-21
0.000275293
-1.76592e-18
-3.19672e-21
-1.36506e-18
3.18759e-21
0.000279891
-1.76762e-18
-2.99793e-21
-1.32329e-18
2.9407e-21
0.000284563
-1.68528e-18
-1.5168e-21
-1.34714e-18
2.01676e-21
0.00028931
-1.64449e-18
-4.18562e-22
-1.27685e-18
1.38393e-21
0.000294131
-1.49958e-18
1.05064e-21
-1.36765e-18
-1.39124e-22
0.00029903
-1.47837e-18
1.71371e-21
-1.38677e-18
-3.18595e-22
0.000304006
-1.44641e-18
1.53437e-21
-1.36008e-18
1.09266e-22
0.000309062
-1.48284e-18
1.74132e-21
-1.29911e-18
5.26468e-22
0.000314197
-1.41916e-18
3.3367e-21
-1.33442e-18
-1.14486e-21
0.000319414
-1.4794e-18
2.86603e-21
-1.35488e-18
-2.34815e-21
0.000324713
-1.34761e-18
3.64133e-21
-1.47844e-18
-3.60863e-21
0.000330096
-1.48669e-18
2.44452e-21
-1.40338e-18
-3.62954e-21
0.000335563
-1.52973e-18
1.99519e-21
-1.43579e-18
-4.60494e-21
0.000341117
-1.52732e-18
1.34536e-21
-1.45644e-18
-5.46514e-21
0.000346758
-1.45031e-18
4.62136e-22
-1.47048e-18
-7.1927e-21
0.000352488
-1.46254e-18
-1.46543e-21
-1.42728e-18
-8.87541e-21
0.000358307
-1.52199e-18
-1.97427e-21
-1.42813e-18
-1.18768e-20
0.000364218
-1.47146e-18
-9.54394e-22
-1.42787e-18
-1.39159e-20
0.000370221
-1.45482e-18
-2.29456e-21
-1.4114e-18
-1.43445e-20
0.000376317
-1.44194e-18
-3.54194e-21
-1.3985e-18
-1.55333e-20
0.000382509
-1.39134e-18
-4.62562e-21
-1.47552e-18
-1.82843e-20
0.000388796
-1.40569e-18
-7.73064e-21
-1.49477e-18
-1.92951e-20
0.000395181
-1.37432e-18
-1.02562e-20
-1.44705e-18
-1.90717e-20
0.000401665
-1.37393e-18
-1.35003e-20
-1.43746e-18
-1.98454e-20
0.00040825
-1.3704e-18
-1.61304e-20
-1.38132e-18
-1.98403e-20
0.000414935
-1.39331e-18
-1.92575e-20
-1.30767e-18
-2.25412e-20
0.000421724
-1.35185e-18
-2.07953e-20
-1.29137e-18
-2.49278e-20
0.000428616
-1.3374e-18
-2.29928e-20
-1.22579e-18
-2.62929e-20
0.000435614
-1.31854e-18
-2.49212e-20
-1.34974e-18
-2.74225e-20
0.000442719
-1.31762e-18
-2.68455e-20
-1.2993e-18
-2.35799e-20
0.000449932
-1.28214e-18
-2.56925e-20
-1.30912e-18
-2.44064e-20
0.000457254
-1.24332e-18
-2.45877e-20
-1.26631e-18
-2.75412e-20
0.000464687
-1.24129e-18
-2.37056e-20
-1.21517e-18
-2.76729e-20
0.000472232
-1.19707e-18
-2.42817e-20
-1.18593e-18
-2.34169e-20
0.00047989
-1.14971e-18
-2.59458e-20
-1.14052e-18
-1.87383e-20
0.000487663
-1.15861e-18
-2.58028e-20
-1.20402e-18
-1.97529e-20
0.000495552
-1.14209e-18
-2.72099e-20
-1.19302e-18
-2.13692e-20
0.000503557
-1.2059e-18
-2.53657e-20
-1.12799e-18
-2.33942e-20
0.000511681
-1.17405e-18
-2.03208e-20
-1.13871e-18
-2.58979e-20
0.000519925
-1.24423e-18
-1.7569e-20
-1.23976e-18
-2.84684e-20
0.000528289
-1.30217e-18
-1.55197e-20
-1.22177e-18
-2.31635e-20
0.000536775
-1.1214e-18
-1.14135e-20
-1.18566e-18
-1.77606e-20
0.000545384
-1.07196e-18
-1.73264e-20
-1.16979e-18
-1.56113e-20
0.000554116
-1.12656e-18
-2.42932e-20
-1.12304e-18
-1.35484e-20
0.000562973
-1.10886e-18
-3.0552e-20
-1.18774e-18
-1.79557e-20
0.000571956
-1.02457e-18
-3.62501e-20
-1.07822e-18
-2.49888e-20
0.000581065
-1.08762e-18
-4.31563e-20
-1.10451e-18
-2.93496e-20
0.000590301
-1.12684e-18
-3.97939e-20
-9.5252e-19
-2.64449e-20
0.000599664
-1.17358e-18
-3.75977e-20
-9.81657e-19
-3.73636e-20
0.000609156
-9.74775e-19
-3.57273e-20
-1.1308e-18
-4.25862e-20
0.000618776
-1.08735e-18
-3.54941e-20
-1.11574e-18
-3.57027e-20
0.000628525
-1.03983e-18
-3.21371e-20
-1.23555e-18
-3.59193e-20
0.000638403
-1.10324e-18
-3.38217e-20
-1.15605e-18
-2.93949e-20
0.000648409
-1.20442e-18
-3.3843e-20
-1.11859e-18
-2.33372e-20
0.000658544
-1.21558e-18
-2.41825e-20
-1.12425e-18
-2.49776e-20
0.000668806
-1.05066e-18
-2.28038e-20
-1.22917e-18
-2.59201e-20
0.000679195
-1.05235e-18
-3.01033e-20
-1.10098e-18
-2.45426e-20
0.00068971
-1.08823e-18
-3.62594e-20
-1.05038e-18
-3.20112e-20
0.000700349
-1.08519e-18
-3.49081e-20
-1.03669e-18
-3.52471e-20
0.000711112
-1.06379e-18
-3.57936e-20
-1.12443e-18
-4.1167e-20
0.000721995
-1.08368e-18
-3.8581e-20
-1.10447e-18
-4.4237e-20
0.000732996
-9.89431e-19
-3.26067e-20
-1.22443e-18
-4.53644e-20
0.000744113
-1.15988e-18
-3.89603e-20
-1.04705e-18
-3.93816e-20
0.000755343
-1.33173e-18
-4.65542e-20
-1.10778e-18
-4.18853e-20
0.000766682
-1.16971e-18
-3.86941e-20
-1.19514e-18
-5.00641e-20
0.000778126
-1.09491e-18
-3.52935e-20
-1.20112e-18
-4.14195e-20
0.000789672
-9.34648e-19
-1.81772e-20
-9.59471e-19
-3.27926e-20
0.000801315
-9.19502e-19
-9.35109e-21
-9.3582e-19
-4.01358e-20
0.00081305
9.32512e-22
-9.16664e-19
-4.69349e-20
-9.83478e-19
1.56707e-08
2.63322e-23
4.67198e-23
4.79227e-08
6.40921e-22
3.40941e-22
8.15774e-08
1.27373e-21
6.38756e-22
1.16682e-07
1.87255e-21
9.65431e-22
1.53286e-07
2.5739e-21
1.3057e-21
1.91439e-07
3.25732e-21
1.59089e-21
2.31193e-07
3.88591e-21
1.98443e-21
2.72602e-07
4.59283e-21
2.31027e-21
3.15721e-07
5.27651e-21
2.65635e-21
3.60606e-07
6.03474e-21
3.05024e-21
4.07316e-07
6.66877e-21
3.59268e-21
4.55912e-07
7.25553e-21
4.11615e-21
5.06455e-07
7.89956e-21
4.67841e-21
5.5901e-07
8.54006e-21
5.1707e-21
6.13642e-07
9.17323e-21
5.75416e-21
6.70418e-07
9.86064e-21
6.38123e-21
7.29408e-07
1.04435e-20
6.99971e-21
7.90683e-07
1.10865e-20
7.63915e-21
8.54316e-07
1.19469e-20
8.32337e-21
9.20382e-07
1.27948e-20
8.84442e-21
9.88958e-07
1.33653e-20
9.795e-21
1.06012e-06
1.38713e-20
1.07123e-20
1.13395e-06
1.46254e-20
1.1487e-20
1.21053e-06
1.50869e-20
1.23707e-20
1.28994e-06
1.5643e-20
1.3531e-20
1.37227e-06
1.61898e-20
1.43894e-20
1.45759e-06
1.65959e-20
1.52727e-20
1.54599e-06
1.70843e-20
1.62139e-20
1.63756e-06
1.77278e-20
1.7042e-20
1.73237e-06
1.83759e-20
1.80021e-20
1.83052e-06
1.88499e-20
1.90962e-20
1.93208e-06
1.96939e-20
1.95467e-20
2.03712e-06
2.0652e-20
1.93957e-20
2.14573e-06
2.17819e-20
2.03313e-20
2.25798e-06
2.30036e-20
2.11814e-20
2.37393e-06
2.3207e-20
2.32802e-20
2.49365e-06
2.32306e-20
2.49131e-20
2.61718e-06
2.28428e-20
2.69139e-20
2.74458e-06
2.27774e-20
2.84641e-20
2.8759e-06
2.32629e-20
3.06681e-20
3.01115e-06
2.36866e-20
3.24977e-20
3.15038e-06
2.35765e-20
3.42244e-20
3.29359e-06
2.30368e-20
3.61991e-20
3.44079e-06
2.30359e-20
3.79465e-20
3.59199e-06
2.29432e-20
3.94376e-20
3.74717e-06
2.29715e-20
4.15276e-20
3.90631e-06
2.32754e-20
4.20983e-20
4.0694e-06
2.42317e-20
4.32003e-20
4.23639e-06
2.5709e-20
4.46056e-20
4.40726e-06
2.47746e-20
4.61628e-20
4.58196e-06
2.57987e-20
4.69109e-20
4.76045e-06
2.51289e-20
4.76042e-20
4.94269e-06
2.5745e-20
4.8188e-20
5.12863e-06
2.656e-20
5.01069e-20
5.31821e-06
2.67426e-20
5.0263e-20
5.51141e-06
2.70566e-20
5.11561e-20
5.70818e-06
2.80974e-20
5.14837e-20
5.90848e-06
3.05506e-20
5.02964e-20
6.11229e-06
3.11683e-20
5.13756e-20
6.31956e-06
3.22868e-20
5.10009e-20
6.53029e-06
3.28412e-20
5.31577e-20
6.74444e-06
3.27769e-20
5.44647e-20
6.96202e-06
3.37395e-20
5.54514e-20
7.18302e-06
3.36725e-20
5.61941e-20
7.40744e-06
3.29982e-20
5.57787e-20
7.63529e-06
3.3526e-20
5.92785e-20
7.86658e-06
3.39829e-20
6.01706e-20
8.10133e-06
3.38417e-20
6.3646e-20
8.33957e-06
3.35983e-20
6.43204e-20
8.58133e-06
3.4206e-20
6.48156e-20
8.82664e-06
3.42798e-20
6.51734e-20
9.07555e-06
3.46305e-20
6.64223e-20
9.32809e-06
3.35369e-20
6.80129e-20
9.58432e-06
3.60638e-20
7.03296e-20
9.84429e-06
3.52907e-20
7.01174e-20
1.01081e-05
3.63101e-20
7.03364e-20
1.03757e-05
3.49454e-20
7.23507e-20
1.06472e-05
3.54123e-20
7.31062e-20
1.09228e-05
3.65156e-20
7.29149e-20
1.12024e-05
3.58975e-20
7.14738e-20
1.14861e-05
3.23284e-20
7.21866e-20
1.1774e-05
3.30674e-20
7.36071e-20
1.20662e-05
3.10434e-20
7.75051e-20
1.23628e-05
3.08887e-20
7.84113e-20
1.26638e-05
3.09829e-20
7.84833e-20
1.29694e-05
3.1053e-20
7.8649e-20
1.32796e-05
3.15494e-20
7.98081e-20
1.35944e-05
3.04478e-20
8.31686e-20
1.39141e-05
2.81478e-20
8.66078e-20
1.42386e-05
2.23588e-20
8.9776e-20
1.45681e-05
2.24679e-20
9.09451e-20
1.49027e-05
2.30322e-20
9.15888e-20
1.52425e-05
1.94854e-20
9.49035e-20
1.55875e-05
1.82734e-20
9.29129e-20
1.59379e-05
1.16886e-20
9.17378e-20
1.62938e-05
1.45695e-20
8.83658e-20
1.66552e-05
1.55399e-20
8.96319e-20
1.70223e-05
1.37128e-20
9.13144e-20
1.73953e-05
1.1435e-20
9.52747e-20
1.77741e-05
1.10766e-20
9.52755e-20
1.81589e-05
9.01523e-21
9.81418e-20
1.85498e-05
3.962e-21
1.00073e-19
1.8947e-05
-6.7077e-22
1.00762e-19
1.93505e-05
-1.9166e-22
1.05548e-19
1.97604e-05
-1.38642e-21
1.05959e-19
2.0177e-05
1.88116e-21
1.08011e-19
2.06002e-05
3.1396e-22
1.06177e-19
2.10303e-05
-4.45102e-21
1.11281e-19
2.14674e-05
-1.34822e-20
1.18473e-19
2.19115e-05
-1.45882e-20
1.18277e-19
2.23628e-05
-1.31239e-20
1.1738e-19
2.28215e-05
-1.22826e-20
1.18621e-19
2.32876e-05
-1.37127e-20
1.18228e-19
2.37613e-05
-1.00482e-20
1.13413e-19
2.42428e-05
-1.61113e-20
1.15247e-19
2.47322e-05
-1.10718e-20
1.18115e-19
2.52295e-05
-9.17415e-21
1.2252e-19
2.5735e-05
-7.3141e-21
1.1637e-19
2.62489e-05
-7.7463e-21
1.16396e-19
2.67712e-05
-8.65832e-21
1.12754e-19
2.73021e-05
-1.24396e-20
1.15272e-19
2.78417e-05
-1.67636e-20
1.18552e-19
2.83902e-05
-2.80175e-20
1.23485e-19
2.89478e-05
-2.91279e-20
1.2319e-19
2.95147e-05
-2.77918e-20
1.2412e-19
3.00909e-05
-2.49684e-20
1.24665e-19
3.06766e-05
-3.6919e-20
1.26945e-19
3.12721e-05
-4.21792e-20
1.21167e-19
3.18774e-05
-4.52749e-20
1.21766e-19
3.24928e-05
-5.64059e-20
1.29045e-19
3.31184e-05
-5.34444e-20
1.26183e-19
3.37544e-05
-5.04372e-20
1.25302e-19
3.4401e-05
-4.5534e-20
1.20874e-19
3.50584e-05
-5.33989e-20
1.19261e-19
3.57267e-05
-5.4371e-20
1.28974e-19
3.64061e-05
-5.52049e-20
1.24836e-19
3.70968e-05
-5.85101e-20
1.26122e-19
3.77991e-05
-6.20094e-20
1.21072e-19
3.85131e-05
-5.42622e-20
1.13054e-19
3.92389e-05
-5.65755e-20
1.05466e-19
3.99769e-05
-4.81275e-20
9.99156e-20
4.07272e-05
-5.92471e-20
1.04704e-19
4.14901e-05
-6.14374e-20
1.05712e-19
4.22656e-05
-6.22164e-20
1.03428e-19
4.30542e-05
-6.6035e-20
1.05841e-19
4.38559e-05
-7.18348e-20
1.02268e-19
4.46709e-05
-7.49631e-20
1.03248e-19
4.54997e-05
-7.96736e-20
1.014e-19
4.63422e-05
-8.45767e-20
9.66e-20
4.71989e-05
-8.44486e-20
8.90478e-20
4.80698e-05
-8.53674e-20
8.15962e-20
4.89553e-05
-8.77839e-20
8.20232e-20
4.98556e-05
-1.02088e-19
7.88174e-20
5.0771e-05
-1.05403e-19
7.61618e-20
5.17017e-05
-1.08265e-19
7.25685e-20
5.26479e-05
-1.193e-19
7.22798e-20
5.36099e-05
-1.05403e-19
7.07434e-20
5.45881e-05
-1.10136e-19
6.99553e-20
5.55825e-05
-1.13682e-19
6.56257e-20
5.65936e-05
-1.17936e-19
6.07287e-20
5.76215e-05
-1.21549e-19
5.50127e-20
5.86667e-05
-1.40505e-19
5.94079e-20
5.97293e-05
-1.34859e-19
5.28092e-20
6.08096e-05
-1.34198e-19
5.94246e-20
6.1908e-05
-1.16629e-19
6.45255e-20
6.30247e-05
-1.16597e-19
8.02563e-20
6.41601e-05
-1.20626e-19
9.36435e-20
6.53144e-05
-1.21748e-19
7.92709e-20
6.6488e-05
-1.30137e-19
6.99951e-20
6.76811e-05
-1.54975e-19
6.37587e-20
6.88942e-05
-1.64613e-19
5.17456e-20
7.01274e-05
-1.59532e-19
4.58062e-20
7.13813e-05
-1.63908e-19
4.31954e-20
7.2656e-05
-1.58422e-19
4.20799e-20
7.39519e-05
-1.41469e-19
3.6644e-20
7.52695e-05
-1.35874e-19
3.2245e-20
7.6609e-05
-1.19887e-19
2.88514e-20
7.79708e-05
-1.1483e-19
2.42722e-20
7.93552e-05
-1.12393e-19
3.21739e-20
8.07627e-05
-1.14046e-19
2.48663e-20
8.21936e-05
-1.00552e-19
9.9614e-21
8.36482e-05
-1.00268e-19
9.77446e-21
8.51271e-05
-9.30568e-20
1.98578e-20
8.66305e-05
-9.49541e-20
2.47728e-20
8.81589e-05
-1.04174e-19
4.0864e-20
8.97127e-05
-1.21447e-19
3.41817e-20
9.12922e-05
-1.31967e-19
2.08784e-20
9.2898e-05
-1.34876e-19
2.02976e-20
9.45304e-05
-1.47288e-19
1.70558e-20
9.61898e-05
-1.54293e-19
1.26273e-20
9.78768e-05
-1.65506e-19
2.69207e-20
9.95917e-05
-1.61415e-19
2.41973e-20
0.000101335
-1.55008e-19
2.92708e-20
0.000103107
-1.59243e-19
2.36524e-20
0.000104909
-1.60735e-19
2.46278e-20
0.00010674
-1.58583e-19
1.69353e-20
0.000108601
-1.30948e-19
7.84079e-21
0.000110494
-1.21327e-19
1.10021e-20
0.000112417
-1.25135e-19
4.30744e-21
0.000114373
-9.73532e-20
7.70353e-21
0.00011636
-8.00103e-20
8.50539e-21
0.000118381
-6.25635e-20
1.53236e-20
0.000120434
-5.70863e-20
2.02669e-20
0.000122522
-6.23406e-20
2.34632e-20
0.000124644
-7.05141e-20
7.71849e-21
0.000126801
-9.07054e-20
-2.11419e-21
0.000128993
-8.20129e-20
2.2565e-20
0.000131221
-7.86554e-20
1.89886e-20
0.000133486
-9.50449e-20
1.39896e-20
0.000135789
-5.24511e-20
-1.35968e-20
0.000138129
-4.61335e-20
6.12167e-22
0.000140507
-6.27547e-20
1.46117e-20
0.000142925
-7.50231e-20
3.53113e-20
0.000145382
-4.27367e-20
1.99049e-20
0.000147879
-3.21554e-20
2.97445e-20
0.000150418
-2.49579e-20
1.44195e-20
0.000152998
-5.17979e-20
3.12529e-20
0.00015562
-7.97246e-20
1.59344e-20
0.000158285
-8.65135e-20
2.02857e-21
0.000160993
-9.48923e-20
2.99719e-20
0.000163746
-7.09009e-20
4.35489e-20
0.000166544
-7.60564e-20
5.62642e-20
0.000169388
-6.95681e-20
7.81186e-20
0.000172277
-7.65117e-20
8.43214e-20
0.000175214
-3.66354e-20
6.24785e-20
0.000178199
-6.02004e-21
5.65699e-20
0.000181233
-3.63559e-20
5.84745e-20
0.000184315
-4.13005e-20
5.21504e-20
0.000187448
-1.06286e-20
2.66406e-20
0.000190632
-1.93602e-20
3.48875e-20
0.000193868
-1.61001e-20
3.40068e-20
0.000197156
-3.56358e-20
5.74788e-20
0.000200497
-6.20838e-21
4.80296e-20
0.000203893
-1.22505e-20
2.46404e-20
0.000207343
-1.51074e-21
2.56639e-20
0.00021085
1.4211e-20
5.25006e-20
0.000214413
1.98343e-20
8.63272e-20
0.000218034
1.37694e-20
1.03174e-19
0.000221713
1.38409e-20
1.07497e-19
0.000225451
1.08413e-20
1.00242e-19
0.00022925
-4.386e-21
1.10744e-19
0.000233111
-2.93346e-20
1.27717e-19
0.000237033
-3.26772e-20
1.26451e-19
0.000241018
-2.20354e-20
1.12406e-19
0.000245068
-1.49054e-20
1.09962e-19
0.000249183
4.11711e-20
7.06442e-20
0.000253363
-3.11431e-21
7.21382e-20
0.000257611
-2.21835e-20
1.06985e-19
0.000261927
-3.12116e-20
1.55786e-19
0.000266312
5.0871e-20
1.89079e-19
0.000270767
5.59689e-20
1.78909e-19
0.000275293
5.73494e-20
1.57202e-19
0.000279891
1.1363e-19
1.23808e-19