/*--------------------------------*- C++ -*----------------------------------*\
| =========                 |                                                 |
| \\      /  F ield         | OpenFOAM: The Open Source CFD Toolbox           |
|  \\    /   O peration     | Version:  2012                                  |
|   \\  /    A nd           | Website:  www.openfoam.com                      |
|    \\/     M anipulation  |                                                 |
\*---------------------------------------------------------------------------*/
FoamFile
{
    version     2.0;
    format      ascii;
    class       volVectorField;
    location    "8000";
    object      U;
}
// * * * * * * * * * * * * * * * * * * * * * * * * * * * * * * * * * * * * * //

dimensions      [0 1 -1 0 0 0 0];


internalField   nonuniform List<vector> 
2560
(
(0.00158788 -3.9792e-16 6.14869e-18)
(0.00158788 6.80844e-21 1.06066e-17)
(0.00478624 -6.99245e-16 1.78524e-17)
(0.00478624 9.94607e-20 3.21808e-17)
(0.00803067 -8.3055e-16 1.82283e-17)
(0.00803067 2.32611e-19 3.31234e-17)
(0.0113219 -7.80887e-16 1.89033e-17)
(0.0113219 3.74287e-19 3.40938e-17)
(0.0146605 -7.61765e-16 1.96344e-17)
(0.0146605 5.18799e-19 3.50928e-17)
(0.0180474 -7.6446e-16 2.03851e-17)
(0.0180474 6.74019e-19 3.61211e-17)
(0.0214832 -7.66849e-16 2.11699e-17)
(0.0214832 8.35738e-19 3.71796e-17)
(0.0249687 -7.66832e-16 2.19908e-17)
(0.0249687 1.00045e-18 3.82692e-17)
(0.0285046 -7.66772e-16 2.2844e-17)
(0.0285046 1.17515e-18 3.93908e-17)
(0.0320917 -7.67028e-16 2.37278e-17)
(0.0320917 1.3861e-18 4.05455e-17)
(0.0357309 -7.6737e-16 2.4642e-17)
(0.0357309 1.6099e-18 4.17342e-17)
(0.0394228 -7.67738e-16 2.5587e-17)
(0.0394228 1.80481e-18 4.29579e-17)
(0.0431683 -7.68132e-16 2.65633e-17)
(0.0431683 1.9915e-18 4.42175e-17)
(0.0469682 -7.68556e-16 2.75715e-17)
(0.0469682 2.18939e-18 4.55142e-17)
(0.0508234 -7.6898e-16 2.86126e-17)
(0.0508234 2.37544e-18 4.68488e-17)
(0.0547345 -7.69419e-16 2.96875e-17)
(0.0547345 2.58258e-18 4.82226e-17)
(0.0587026 -7.69882e-16 3.07972e-17)
(0.0587026 2.822e-18 4.96366e-17)
(0.0627285 -7.70323e-16 3.19427e-17)
(0.0627285 3.00869e-18 5.1092e-17)
(0.0668129 -7.70802e-16 3.31252e-17)
(0.0668129 3.22473e-18 5.25899e-17)
(0.0709568 -7.71335e-16 3.43454e-17)
(0.0709568 3.46193e-18 5.41318e-17)
(0.0751611 -7.71854e-16 3.56045e-17)
(0.0751611 3.66349e-18 5.57184e-17)
(0.0794265 -7.72394e-16 3.69037e-17)
(0.0794265 3.88852e-18 5.7351e-17)
(0.0837541 -7.72988e-16 3.82441e-17)
(0.0837541 4.16765e-18 5.90305e-17)
(0.0881447 -7.73622e-16 3.96266e-17)
(0.0881447 4.41064e-18 6.07585e-17)
(0.0925991 -7.74215e-16 4.10524e-17)
(0.0925991 4.64877e-18 6.2536e-17)
(0.0971183 -7.74862e-16 4.25228e-17)
(0.0971183 4.91676e-18 6.43642e-17)
(0.101703 -7.75614e-16 4.40388e-17)
(0.101703 5.29343e-18 6.62439e-17)
(0.106354 -7.76366e-16 4.56011e-17)
(0.106354 5.66754e-18 6.81762e-17)
(0.111073 -7.77103e-16 4.72107e-17)
(0.111073 6.00621e-18 7.01618e-17)
(0.115859 -7.77846e-16 4.88688e-17)
(0.115859 6.42504e-18 7.22022e-17)
(0.120715 -7.78623e-16 5.05763e-17)
(0.120715 6.79727e-18 7.42987e-17)
(0.12564 -7.79394e-16 5.23341e-17)
(0.12564 7.162e-18 7.64514e-17)
(0.130635 -7.80178e-16 5.41428e-17)
(0.130635 7.57104e-18 7.86612e-17)
(0.135701 -7.81048e-16 5.6003e-17)
(0.135701 7.97e-18 8.09279e-17)
(0.140839 -7.81906e-16 5.79154e-17)
(0.140839 8.34013e-18 8.3252e-17)
(0.146049 -7.82777e-16 5.98804e-17)
(0.146049 8.72581e-18 8.56329e-17)
(0.151331 -7.83773e-16 6.18979e-17)
(0.151331 9.13875e-18 8.80707e-17)
(0.156686 -7.84719e-16 6.39676e-17)
(0.156686 9.57565e-18 9.0564e-17)
(0.162113 -7.85662e-16 6.60891e-17)
(0.162113 9.91737e-18 9.31121e-17)
(0.167614 -7.86732e-16 6.82612e-17)
(0.167614 1.02706e-17 9.57133e-17)
(0.173187 -7.87792e-16 7.04822e-17)
(0.173187 1.07413e-17 9.83655e-17)
(0.178833 -7.88785e-16 7.27515e-17)
(0.178833 1.12639e-17 1.01066e-16)
(0.184551 -7.89823e-16 7.50677e-17)
(0.184551 1.15287e-17 1.03812e-16)
(0.19034 -7.90874e-16 7.74277e-17)
(0.19034 1.17082e-17 1.066e-16)
(0.196199 -7.92129e-16 7.9829e-17)
(0.196199 1.21433e-17 1.09427e-16)
(0.202127 -7.93333e-16 8.22678e-17)
(0.202127 1.26373e-17 1.12288e-16)
(0.208124 -7.94449e-16 8.47422e-17)
(0.208124 1.31764e-17 1.15176e-16)
(0.214186 -7.95809e-16 8.72466e-17)
(0.214186 1.36224e-17 1.18086e-16)
(0.220312 -7.97128e-16 8.97767e-17)
(0.220312 1.39663e-17 1.21012e-16)
(0.226499 -7.98357e-16 9.23275e-17)
(0.226499 1.4409e-17 1.23947e-16)
(0.232745 -7.99553e-16 9.48923e-17)
(0.232745 1.48562e-17 1.26883e-16)
(0.239047 -8.00668e-16 9.74662e-17)
(0.239047 1.51434e-17 1.2981e-16)
(0.245402 -8.0188e-16 1.00043e-16)
(0.245402 1.55437e-17 1.32722e-16)
(0.251805 -8.03153e-16 1.02615e-16)
(0.251805 1.59855e-17 1.35608e-16)
(0.258253 -8.04397e-16 1.05176e-16)
(0.258253 1.63826e-17 1.38462e-16)
(0.264741 -8.0557e-16 1.07719e-16)
(0.264741 1.68387e-17 1.41271e-16)
(0.271266 -8.06857e-16 1.10236e-16)
(0.271266 1.70936e-17 1.44027e-16)
(0.277821 -8.08148e-16 1.12719e-16)
(0.277821 1.70712e-17 1.4672e-16)
(0.284403 -8.09217e-16 1.15165e-16)
(0.284403 1.71065e-17 1.49342e-16)
(0.291005 -8.10432e-16 1.19026e-16)
(0.291005 1.70792e-17 1.51883e-16)
(0.297623 -8.1169e-16 1.24082e-16)
(0.297623 1.71591e-17 1.54339e-16)
(0.304251 -8.13222e-16 1.29141e-16)
(0.304251 1.7872e-17 1.56702e-16)
(0.310883 -8.15162e-16 1.34183e-16)
(0.310883 1.83682e-17 1.58969e-16)
(0.317515 -8.16884e-16 1.39211e-16)
(0.317515 1.93978e-17 1.61136e-16)
(0.324141 -8.18665e-16 1.44213e-16)
(0.324141 2.02272e-17 1.63197e-16)
(0.330755 -8.20872e-16 1.49196e-16)
(0.330755 2.07139e-17 1.65152e-16)
(0.337352 -8.2286e-16 1.54144e-16)
(0.337352 2.1524e-17 1.67001e-16)
(0.343928 -8.24921e-16 1.59038e-16)
(0.343928 2.22742e-17 1.68741e-16)
(0.350478 -8.27332e-16 1.63891e-16)
(0.350478 2.37054e-17 1.70377e-16)
(0.356996 -8.29409e-16 1.68675e-16)
(0.356996 2.52377e-17 1.71913e-16)
(0.36348 -8.31096e-16 1.73418e-16)
(0.36348 2.62335e-17 1.73351e-16)
(0.369924 -8.33126e-16 1.78114e-16)
(0.369924 2.67197e-17 1.74691e-16)
(0.376326 -8.35218e-16 1.8276e-16)
(0.376326 2.73449e-17 1.75939e-16)
(0.382682 -8.3661e-16 1.87354e-16)
(0.382682 2.75287e-17 1.77096e-16)
(0.38899 -8.38659e-16 1.91905e-16)
(0.38899 2.80006e-17 1.7816e-16)
(0.395245 -8.41272e-16 1.96415e-16)
(0.395245 2.92013e-17 1.79149e-16)
(0.401447 -8.43695e-16 2.00907e-16)
(0.401447 3.03258e-17 1.80064e-16)
(0.407592 -8.46831e-16 2.05349e-16)
(0.407592 3.14452e-17 1.80907e-16)
(0.41368 -8.50028e-16 2.09755e-16)
(0.41368 3.24576e-17 1.81686e-16)
(0.419709 -8.53109e-16 2.141e-16)
(0.419709 3.38524e-17 1.82405e-16)
(0.425678 -8.56084e-16 2.18441e-16)
(0.425678 3.4884e-17 1.83076e-16)
(0.431585 -8.59003e-16 2.2276e-16)
(0.431585 3.56815e-17 1.83706e-16)
(0.437431 -8.62395e-16 2.27025e-16)
(0.437431 3.72525e-17 1.84307e-16)
(0.443214 -8.65153e-16 2.28788e-16)
(0.443214 3.83641e-17 1.84561e-16)
(0.448935 -8.67271e-16 2.27123e-16)
(0.448935 3.85236e-17 1.8443e-16)
(0.454592 -8.69567e-16 2.25391e-16)
(0.454592 3.9728e-17 1.84246e-16)
(0.460188 -8.72078e-16 2.23601e-16)
(0.460188 4.0384e-17 1.83952e-16)
(0.46572 -8.74461e-16 2.21762e-16)
(0.46572 4.05544e-17 1.83589e-16)
(0.471191 -8.76869e-16 2.19878e-16)
(0.471191 4.16608e-17 1.8318e-16)
(0.476601 -8.79571e-16 2.17955e-16)
(0.476601 4.20329e-17 1.82761e-16)
(0.481949 -8.81599e-16 2.15992e-16)
(0.481949 4.19425e-17 1.82293e-16)
(0.487237 -8.83845e-16 2.13978e-16)
(0.487237 4.25618e-17 1.81744e-16)
(0.492466 -8.85864e-16 2.11917e-16)
(0.492466 4.26167e-17 1.8119e-16)
(0.497636 -8.87654e-16 2.09789e-16)
(0.497636 4.22187e-17 1.80675e-16)
(0.502748 -8.89514e-16 2.07622e-16)
(0.502748 4.14495e-17 1.80072e-16)
(0.507804 -8.90728e-16 2.05333e-16)
(0.507804 4.01144e-17 1.79401e-16)
(0.512803 -8.9219e-16 2.0297e-16)
(0.512803 3.98215e-17 1.78795e-16)
(0.517748 -8.93572e-16 2.00546e-16)
(0.517748 3.93895e-17 1.78268e-16)
(0.522639 -8.95713e-16 1.97997e-16)
(0.522639 4.03056e-17 1.77814e-16)
(0.527478 -8.9886e-16 1.95384e-16)
(0.527478 4.28944e-17 1.77173e-16)
(0.532265 -9.02233e-16 1.91792e-16)
(0.532265 4.57949e-17 1.76374e-16)
(0.537001 -9.05079e-16 1.87329e-16)
(0.537001 4.73887e-17 1.75497e-16)
(0.541688 -9.07231e-16 1.8272e-16)
(0.541688 4.85193e-17 1.74494e-16)
(0.546327 -9.09502e-16 1.78099e-16)
(0.546327 5.08712e-17 1.73531e-16)
(0.550918 -9.12602e-16 1.73574e-16)
(0.550918 5.12012e-17 1.72606e-16)
(0.555463 -9.15881e-16 1.6897e-16)
(0.555463 5.183e-17 1.71523e-16)
(0.559964 -9.1739e-16 1.64499e-16)
(0.559964 5.29748e-17 1.70382e-16)
(0.56442 -9.19135e-16 1.60005e-16)
(0.56442 5.24154e-17 1.69103e-16)
(0.568833 -9.21381e-16 1.55433e-16)
(0.568833 5.3076e-17 1.67761e-16)
(0.573204 -9.23072e-16 1.50819e-16)
(0.573204 5.46538e-17 1.66478e-16)
(0.577534 -9.25712e-16 1.46204e-16)
(0.577534 5.57159e-17 1.65001e-16)
(0.581825 -9.27895e-16 1.41676e-16)
(0.581825 5.70734e-17 1.63513e-16)
(0.586076 -9.29738e-16 1.37095e-16)
(0.586076 5.73166e-17 1.61851e-16)
(0.590289 -9.31836e-16 1.32501e-16)
(0.590289 5.82704e-17 1.60136e-16)
(0.594466 -9.33033e-16 1.27895e-16)
(0.594466 5.85081e-17 1.58385e-16)
(0.598606 -9.34329e-16 1.23344e-16)
(0.598606 5.80421e-17 1.56502e-16)
(0.602711 -9.36062e-16 1.19005e-16)
(0.602711 5.87158e-17 1.54466e-16)
(0.606782 -9.37122e-16 1.14558e-16)
(0.606782 5.95309e-17 1.52361e-16)
(0.610819 -9.37731e-16 1.10114e-16)
(0.610819 6.08314e-17 1.5009e-16)
(0.614824 -9.39908e-16 1.05814e-16)
(0.614824 6.11516e-17 1.47963e-16)
(0.618797 -9.41291e-16 1.01451e-16)
(0.618797 6.1768e-17 1.45524e-16)
(0.622739 -9.42674e-16 9.70714e-17)
(0.622739 6.28482e-17 1.4318e-16)
(0.626651 -9.44784e-16 9.28735e-17)
(0.626651 6.28173e-17 1.40893e-16)
(0.630533 -9.45025e-16 8.87344e-17)
(0.630533 6.22757e-17 1.38448e-16)
(0.634387 -9.45573e-16 8.44587e-17)
(0.634387 6.30995e-17 1.35718e-16)
(0.638213 -9.46531e-16 8.00073e-17)
(0.638213 6.21856e-17 1.3312e-16)
(0.642012 -9.46977e-16 7.57307e-17)
(0.642012 6.15165e-17 1.30656e-16)
(0.645784 -9.47616e-16 7.15416e-17)
(0.645784 6.3342e-17 1.27854e-16)
(0.649531 -9.49071e-16 6.7397e-17)
(0.649531 6.27382e-17 1.24872e-16)
(0.653252 -9.49312e-16 6.3158e-17)
(0.653252 6.22214e-17 1.21927e-16)
(0.656949 -9.5164e-16 5.90088e-17)
(0.656949 6.3656e-17 1.18941e-16)
(0.660621 -9.56055e-16 5.50556e-17)
(0.660621 6.38564e-17 1.16054e-16)
(0.664271 -9.58643e-16 5.11519e-17)
(0.664271 6.30641e-17 1.13064e-16)
(0.667897 -9.59766e-16 4.73242e-17)
(0.667897 6.33564e-17 1.09633e-16)
(0.671502 -9.59123e-16 4.344e-17)
(0.671502 6.43928e-17 1.06249e-16)
(0.675085 -9.59742e-16 3.95241e-17)
(0.675085 6.40849e-17 1.02655e-16)
(0.678647 -9.61046e-16 3.54779e-17)
(0.678647 6.151e-17 9.87805e-17)
(0.682188 -9.64218e-16 3.14933e-17)
(0.682188 5.98192e-17 9.48863e-17)
(0.685709 -9.6705e-16 2.7795e-17)
(0.685709 6.03614e-17 9.15193e-17)
(0.689211 -9.65411e-16 2.4107e-17)
(0.689211 5.82169e-17 8.75936e-17)
(0.692693 -9.65611e-16 2.01507e-17)
(0.692693 5.62833e-17 8.3409e-17)
(0.696157 -9.66433e-16 1.64712e-17)
(0.696157 5.59573e-17 7.95751e-17)
(0.699603 -9.65823e-16 1.29136e-17)
(0.699603 5.26024e-17 7.66998e-17)
(0.703031 -9.65211e-16 9.16512e-18)
(0.703031 4.91576e-17 7.66719e-17)
(0.706442 -9.64548e-16 5.22227e-18)
(0.706442 4.81699e-17 7.69801e-17)
(0.709836 -9.64288e-16 3.16849e-18)
(0.709836 4.68891e-17 7.75133e-17)
(0.713213 -9.63667e-16 2.96332e-18)
(0.713213 4.7656e-17 7.80191e-17)
(0.716574 -9.64958e-16 2.83383e-18)
(0.716574 4.78613e-17 7.77717e-17)
(0.71992 -9.64744e-16 2.89002e-18)
(0.71992 4.83054e-17 7.72674e-17)
(0.72325 -9.61261e-16 2.93706e-18)
(0.72325 4.64365e-17 7.65395e-17)
(0.726566 -9.58775e-16 2.82412e-18)
(0.726566 4.01617e-17 7.61927e-17)
(0.729866 -9.57035e-16 2.79467e-18)
(0.729866 3.80543e-17 7.58002e-17)
(0.733153 -9.54773e-16 2.72568e-18)
(0.733153 3.53355e-17 7.58118e-17)
(0.736425 -9.50099e-16 3.01598e-18)
(0.736425 3.39293e-17 7.52635e-17)
(0.739684 -9.45426e-16 3.05755e-18)
(0.739684 3.19478e-17 7.50682e-17)
(0.742929 -9.42924e-16 3.10457e-18)
(0.742929 2.5231e-17 7.42659e-17)
(0.746162 -9.41456e-16 2.9636e-18)
(0.746162 2.22151e-17 7.32606e-17)
(0.749381 -9.41594e-16 2.86907e-18)
(0.749381 2.38451e-17 7.30124e-17)
(0.752588 -9.39887e-16 2.91551e-18)
(0.752588 2.33221e-17 7.40832e-17)
(0.755783 -9.34432e-16 3.03057e-18)
(0.755783 2.1542e-17 7.51475e-17)
(0.758966 -9.279e-16 3.09096e-18)
(0.758966 2.40275e-17 7.61817e-17)
(0.762137 -9.23036e-16 2.96546e-18)
(0.762137 2.34446e-17 7.72099e-17)
(0.765297 -9.19194e-16 2.84152e-18)
(0.765297 1.88722e-17 7.81107e-17)
(0.768446 -9.16627e-16 2.91714e-18)
(0.768446 1.39052e-17 7.88385e-17)
(0.771583 -9.14747e-16 2.84974e-18)
(0.771583 9.47154e-18 7.97125e-17)
(0.77471 -9.09105e-16 3.17642e-18)
(0.77471 4.8668e-18 8.03078e-17)
(0.777826 -9.06339e-16 3.17345e-18)
(0.777826 3.74535e-18 8.11721e-17)
(0.780932 -9.04851e-16 3.42074e-18)
(0.780932 2.97479e-18 8.16983e-17)
(0.784028 -9.03532e-16 3.32611e-18)
(0.784028 1.96464e-19 8.22708e-17)
(0.787114 -9.0346e-16 3.34171e-18)
(0.787114 -2.3965e-18 8.2506e-17)
(0.79019 -9.0399e-16 2.99797e-18)
(0.79019 -6.91741e-18 8.29815e-17)
(0.793257 -9.05411e-16 2.90776e-18)
(0.793257 -9.94003e-18 8.27544e-17)
(0.796314 -9.08371e-16 2.5557e-18)
(0.796314 -1.17216e-17 8.22148e-17)
(0.799362 -9.11622e-16 2.57732e-18)
(0.799362 -1.26471e-17 8.09369e-17)
(0.802401 -9.1203e-16 2.37006e-18)
(0.802401 -1.68367e-17 7.97806e-17)
(0.805431 -9.13315e-16 2.27736e-18)
(0.805431 -1.82725e-17 7.84403e-17)
(0.808453 -9.08869e-16 2.46369e-18)
(0.808453 -2.23016e-17 7.71491e-17)
(0.811465 -9.01075e-16 2.73981e-18)
(0.811465 -2.99276e-17 7.63148e-17)
(0.81447 -8.95488e-16 2.66265e-18)
(0.81447 -3.58587e-17 7.66963e-17)
(0.817466 -8.92744e-16 2.46879e-18)
(0.817466 -4.44364e-17 7.78579e-17)
(0.820454 -8.89068e-16 2.40741e-18)
(0.820454 -4.97431e-17 7.92165e-17)
(0.823434 -8.84155e-16 2.48418e-18)
(0.823434 -5.23361e-17 8.07564e-17)
(0.826406 -8.82044e-16 1.88141e-18)
(0.826406 -5.47584e-17 8.2635e-17)
(0.82937 -8.80955e-16 1.53793e-18)
(0.82937 -4.97527e-17 8.41419e-17)
(0.832327 -8.77373e-16 1.37267e-18)
(0.832327 -4.91573e-17 8.47022e-17)
(0.835276 -8.69778e-16 1.35013e-18)
(0.835276 -5.25394e-17 8.55603e-17)
(0.838217 -8.64664e-16 8.78974e-19)
(0.838217 -5.31848e-17 8.65642e-17)
(0.841152 -8.57422e-16 1.19721e-18)
(0.841152 -5.74731e-17 8.69485e-17)
(0.844079 -8.50005e-16 8.73655e-19)
(0.844079 -6.07393e-17 8.79803e-17)
(0.846999 -8.44307e-16 8.87061e-19)
(0.846999 -6.26979e-17 8.8846e-17)
(0.849911 -8.39031e-16 2.7752e-19)
(0.849911 -6.54038e-17 8.9607e-17)
(0.852817 -8.34941e-16 6.45461e-19)
(0.852817 -6.53543e-17 8.9537e-17)
(0.855716 -8.25703e-16 2.29632e-19)
(0.855716 -6.76e-17 8.97161e-17)
(0.858608 -8.13623e-16 7.79205e-19)
(0.858608 -7.47849e-17 9.03235e-17)
(0.861494 -8.03721e-16 6.38525e-19)
(0.861494 -8.3224e-17 9.19149e-17)
(0.864373 -7.92692e-16 9.28451e-19)
(0.864373 -9.31485e-17 9.32049e-17)
(0.867245 -7.83831e-16 3.4329e-19)
(0.867245 -8.91196e-17 9.47437e-17)
(0.87011 -7.80701e-16 -5.63995e-19)
(0.87011 -8.78791e-17 9.64736e-17)
(0.872969 -7.74966e-16 -4.47136e-19)
(0.872969 -9.95161e-17 9.66363e-17)
(0.875822 -7.62803e-16 -4.84335e-19)
(0.875822 -1.01887e-16 9.64077e-17)
(0.878669 -7.44599e-16 -3.94815e-19)
(0.878669 -1.08248e-16 9.70295e-17)
(0.881509 -7.27144e-16 -7.42636e-19)
(0.881509 -1.17221e-16 9.777e-17)
(0.884342 -7.14089e-16 -9.71741e-19)
(0.884342 -1.25584e-16 9.80273e-17)
(0.88717 -7.01752e-16 -9.57193e-19)
(0.88717 -1.35742e-16 9.85071e-17)
(0.889991 -6.94061e-16 -1.27752e-18)
(0.889991 -1.40021e-16 1.0002e-16)
(0.892806 -6.96326e-16 -2.79704e-18)
(0.892806 -1.33889e-16 1.00957e-16)
(0.895615 -6.9701e-16 -2.76601e-18)
(0.895615 -1.30587e-16 9.88665e-17)
(0.898419 -6.93764e-16 -3.10659e-18)
(0.898419 -1.3747e-16 9.73385e-17)
(0.901215 -6.9106e-16 -3.07258e-18)
(0.901215 -1.44709e-16 9.63931e-17)
(0.904006 -6.88427e-16 -3.03101e-18)
(0.904006 -1.45299e-16 9.55465e-17)
(0.906791 -6.84425e-16 -3.38229e-18)
(0.906791 -1.47215e-16 9.38966e-17)
(0.90957 -6.821e-16 -3.35786e-18)
(0.90957 -1.58157e-16 9.2444e-17)
(0.912343 -6.7447e-16 -2.81454e-18)
(0.912343 -1.59165e-16 8.9837e-17)
(0.91511 -6.66423e-16 -3.20262e-18)
(0.91511 -1.643e-16 8.91118e-17)
(0.917871 -6.6374e-16 -3.17997e-18)
(0.917871 -1.67646e-16 8.98144e-17)
(0.920626 -6.52688e-16 -2.17147e-18)
(0.920626 -1.70783e-16 9.06434e-17)
(0.923376 -6.42535e-16 -2.09386e-18)
(0.923376 -1.84414e-16 9.36267e-17)
(0.926119 -6.39714e-16 -1.97897e-18)
(0.926119 -1.94487e-16 9.5635e-17)
(0.928856 -6.36491e-16 -2.69166e-18)
(0.928856 -1.89633e-16 9.80197e-17)
(0.931588 -6.31037e-16 -2.50592e-18)
(0.931588 -1.83851e-16 9.94087e-17)
(0.934313 -6.26915e-16 -3.20521e-18)
(0.934313 -1.94669e-16 9.84699e-17)
(0.937032 -6.21788e-16 -1.50311e-18)
(0.937032 -1.9491e-16 9.61816e-17)
(0.939746 -6.24152e-16 -3.76447e-18)
(0.939746 -1.85714e-16 9.52408e-17)
(0.942453 -6.19443e-16 -3.159e-18)
(0.942453 -1.97642e-16 9.06839e-17)
(0.945155 -6.08039e-16 -1.46489e-18)
(0.945155 -2.09264e-16 8.70419e-17)
(0.94785 -5.96787e-16 -2.32786e-18)
(0.94785 -2.05999e-16 8.47696e-17)
(0.95054 -5.89458e-16 -2.25965e-18)
(0.95054 -2.114e-16 8.29084e-17)
(0.953223 -5.78173e-16 -2.19662e-18)
(0.953223 -2.18e-16 8.12944e-17)
(0.9559 -5.68167e-16 -1.62351e-18)
(0.9559 -2.20626e-16 8.0457e-17)
(0.958571 -5.61765e-16 -1.54348e-18)
(0.958571 -2.31274e-16 7.99452e-17)
(0.961236 -5.64276e-16 -2.48784e-18)
(0.961236 -2.46282e-16 7.99775e-17)
(0.963894 -5.70143e-16 -3.46227e-18)
(0.963894 -2.3773e-16 7.93961e-17)
(0.966546 -5.68165e-16 -2.16336e-18)
(0.966546 -2.29581e-16 7.80106e-17)
(0.969192 -5.67266e-16 -3.20272e-19)
(0.969192 -2.35515e-16 7.48437e-17)
(0.971832 -5.62435e-16 4.09553e-19)
(0.971832 -2.29324e-16 7.02705e-17)
(0.974465 -5.49996e-16 2.25344e-18)
(0.974465 -2.34568e-16 6.81934e-17)
(0.977091 -5.45245e-16 1.70664e-18)
(0.977091 -2.4162e-16 6.80956e-17)
(0.979711 -5.42204e-16 3.61367e-18)
(0.979711 -2.43146e-16 6.64188e-17)
(0.982324 -5.40598e-16 3.07407e-18)
(0.982324 -2.51597e-16 6.615e-17)
(0.984931 -5.49973e-16 -1.85371e-20)
(0.984931 -2.37132e-16 6.59773e-17)
(0.98753 -5.57343e-16 5.10546e-19)
(0.98753 -2.30766e-16 5.93193e-17)
(0.990123 -5.56704e-16 5.18228e-19)
(0.990123 -2.37039e-16 5.11636e-17)
(0.992709 -5.56832e-16 1.9434e-19)
(0.992709 -2.30445e-16 4.25919e-17)
(0.995287 -5.72396e-16 -2.95171e-18)
(0.995287 -2.30446e-16 3.49545e-17)
(0.997859 -5.66662e-16 6.40273e-19)
(0.997859 -2.35018e-16 2.61032e-17)
(1.00042 -5.47072e-16 -1.25427e-18)
(1.00042 -2.54861e-16 2.42309e-17)
(1.00298 -5.29986e-16 -3.24711e-18)
(1.00298 -2.79044e-16 2.26224e-17)
(1.00553 -4.93436e-16 -2.40168e-20)
(1.00553 -2.75916e-16 1.98839e-17)
(1.00807 -4.62511e-16 -7.05471e-19)
(1.00807 -2.62516e-16 2.08516e-17)
(1.0106 -4.38631e-16 -1.3126e-18)
(1.0106 -2.63293e-16 2.16335e-17)
(1.01313 -4.62869e-16 -8.68861e-18)
(1.01313 -2.46914e-16 2.36771e-17)
(1.01565 -4.28776e-16 -7.32835e-18)
(1.01565 -2.31018e-16 1.35094e-17)
(1.01816 -4.1391e-16 -8.38746e-18)
(1.01816 -2.23844e-16 5.28624e-18)
(1.02066 -3.99492e-16 -9.67628e-18)
(1.02066 -2.20772e-16 -2.79784e-18)
(1.02315 -3.74772e-16 -8.23309e-18)
(1.02315 -2.2764e-16 -1.07104e-17)
(1.02563 -3.34999e-16 -4.89523e-18)
(1.02563 -2.39236e-16 -1.37782e-17)
(1.02811 -3.1507e-16 -6.43914e-18)
(1.02811 -2.41078e-16 -1.55286e-17)
(1.03058 -3.0509e-16 -7.94388e-18)
(1.03058 -2.35377e-16 -1.44329e-17)
(1.03303 -2.75706e-16 -2.81636e-18)
(1.03303 -2.26192e-16 -1.11102e-17)
(1.03548 -2.52048e-16 -6.44213e-18)
(1.03548 -2.21801e-16 -1.11237e-17)
(1.03792 -2.39312e-16 -8.0858e-18)
(1.03792 -2.10741e-16 -4.28624e-18)
(1.04035 -2.25258e-16 -5.26252e-18)
(1.04035 -2.0351e-16 -3.81863e-18)
(1.04276 -2.05795e-16 -6.96302e-18)
(1.04276 -2.00055e-16 -1.72548e-17)
(1.04517 -1.99801e-16 -2.15848e-18)
(1.04517 -1.82641e-16 -2.6218e-17)
(1.04757 -1.9001e-16 2.92005e-19)
(1.04757 -1.74586e-16 -1.90443e-17)
(1.04995 -1.86443e-16 9.43803e-18)
(1.04995 -1.77521e-16 -6.66716e-18)
(1.05233 -2.10553e-16 -6.5305e-18)
(1.05233 -1.63072e-16 4.50989e-18)
(1.05469 -2.30006e-16 -5.59989e-18)
(1.05469 -1.51749e-16 5.67958e-18)
(1.05704 -2.18642e-16 -1.97465e-18)
(1.05704 -1.5113e-16 3.4104e-18)
(1.05938 -2.02951e-16 2.37646e-18)
(1.05938 -1.77244e-16 -6.89487e-18)
(1.0617 -1.94387e-16 7.73026e-19)
(1.0617 -2.18592e-16 2.56836e-18)
(1.06402 -1.92319e-16 4.8235e-19)
(1.06402 -2.29029e-16 1.95896e-18)
(1.06631 -2.00499e-16 -4.12247e-18)
(1.06631 -2.44113e-16 -7.17402e-18)
(1.0686 -2.21149e-16 -1.1224e-17)
(1.0686 -2.04727e-16 -1.0893e-17)
(1.07087 -2.37784e-16 -2.16047e-17)
(1.07087 -1.93113e-16 -1.42211e-17)
(1.07313 -2.19406e-16 -1.09844e-17)
(1.07313 -2.04149e-16 -6.9904e-18)
(1.07537 -1.89582e-16 -1.205e-18)
(1.07537 -2.16011e-16 -1.09428e-17)
(1.07759 -1.69859e-16 -3.20923e-19)
(1.07759 -2.19985e-16 -2.45211e-17)
(1.0798 -1.68171e-16 5.13112e-18)
(1.0798 -2.15094e-16 -1.90672e-17)
(1.082 -2.30015e-16 -1.00004e-17)
(1.082 -1.88407e-16 1.30016e-17)
(1.08417 -2.02252e-16 -5.51106e-18)
(1.08417 -1.6905e-16 9.34796e-18)
(1.08633 -1.9907e-16 -4.77789e-18)
(1.08633 -1.7678e-16 -3.26332e-18)
(1.08847 -1.87667e-16 -5.88767e-18)
(1.08847 -1.8579e-16 -6.18955e-18)
(1.09059 -1.6714e-16 -1.01679e-17)
(1.09059 -1.68113e-16 -5.67492e-18)
(1.09269 -1.47916e-16 -9.77884e-18)
(1.09269 -1.42787e-16 1.99959e-18)
(1.09476 -1.48185e-16 -5.07261e-18)
(1.09476 -1.49593e-16 4.23712e-18)
(1.09682 -1.57175e-16 -6.19229e-18)
(1.09682 -1.58425e-16 1.73468e-17)
(1.09885 -1.46383e-16 -8.63869e-19)
(1.09885 -1.62962e-16 -7.83236e-18)
(1.10086 -1.5268e-16 6.54869e-18)
(1.10086 -1.55536e-16 -3.72965e-18)
(1.10285 -1.63476e-16 1.48423e-17)
(1.10285 -1.79435e-16 -5.05089e-18)
(1.1048 -1.74915e-16 1.88251e-17)
(1.1048 -1.75302e-16 1.26098e-17)
(1.10674 -2.38378e-16 8.03455e-19)
(1.10674 -1.7555e-16 3.40524e-18)
(1.10864 -1.85527e-16 1.37672e-17)
(1.10864 -1.70742e-16 1.02902e-17)
(1.11051 -1.69166e-16 1.6004e-17)
(1.11051 -1.8329e-16 5.11577e-18)
(1.11235 -1.90241e-16 4.71377e-18)
(1.11235 -1.71594e-16 3.4898e-17)
(1.11417 -2.07166e-16 -5.11749e-18)
(1.11417 -1.6065e-16 1.9004e-17)
(1.11594 -1.75514e-16 2.92157e-17)
(1.11594 -1.97234e-16 1.94436e-17)
(1.11768 -1.30381e-16 1.5554e-17)
(1.11768 -1.57725e-16 2.34338e-17)
(1.11938 -1.41204e-16 2.65638e-17)
(1.11938 -1.65376e-16 2.70051e-17)
(1.12105 -1.40921e-16 3.96317e-17)
(1.12105 -2.13787e-16 4.45953e-18)
(1.12267 -1.34817e-16 3.0721e-17)
(1.12267 -1.52785e-16 9.58586e-18)
(1.12424 -1.55481e-16 4.63466e-17)
(1.12424 -1.47988e-16 1.70047e-17)
(1.12577 -1.68441e-16 3.10124e-17)
(1.12577 -1.51162e-16 3.67822e-17)
(1.12725 -1.75156e-16 4.6369e-17)
(1.12725 -1.44969e-16 4.476e-17)
(1.12868 -1.41459e-16 4.09016e-17)
(1.12868 -1.54114e-16 3.25808e-17)
(1.13005 -2.01396e-16 4.85617e-17)
(1.13005 -1.43017e-16 5.96274e-17)
(1.13137 -1.93405e-16 4.87799e-17)
(1.13137 -1.63525e-16 4.64131e-17)
(1.13262 -1.9117e-16 4.27836e-17)
(1.13262 -1.66066e-16 5.52405e-17)
(1.1338 -1.58229e-16 6.20101e-17)
(1.1338 -1.30791e-16 5.82044e-17)
(1.13492 -1.31278e-16 6.60274e-17)
(1.13492 -1.32905e-16 6.10654e-17)
(1.13596 -1.32464e-16 9.23273e-17)
(1.13596 -1.52607e-16 6.97257e-17)
(1.13692 -1.06177e-16 9.02029e-17)
(1.13692 -1.72441e-16 4.50812e-17)
(1.13779 -1.63211e-16 8.07322e-17)
(1.13779 -1.85008e-16 3.58818e-17)
(1.13858 -1.53027e-16 1.06566e-16)
(1.13858 -1.58517e-16 1.093e-16)
(1.13927 -1.57066e-16 8.50477e-17)
(1.13927 -1.5894e-16 1.09118e-16)
(1.13986 -1.89008e-16 8.24625e-17)
(1.13986 -1.73421e-16 9.81069e-17)
(1.14035 -2.04518e-16 8.31376e-17)
(1.14035 -1.67492e-16 8.59632e-17)
(1.14072 -1.53615e-16 1.52505e-16)
(1.14072 -1.93154e-16 1.13359e-16)
(1.14097 -1.5532e-16 1.03324e-16)
(1.14097 -1.87824e-16 1.16582e-16)
(1.1411 -1.80836e-16 1.08499e-16)
(1.1411 -1.42756e-16 5.97225e-17)
(0.00158788 7.62433e-21 -4.7417e-19)
(0.00158788 5.8682e-21 2.50098e-33)
(0.00478624 9.22324e-20 -1.2102e-18)
(0.00478624 3.39776e-20 4.11192e-23)
(0.00803067 2.00623e-19 -1.24532e-18)
(0.00803067 6.93924e-20 6.25138e-23)
(0.0113219 3.11883e-19 -1.28138e-18)
(0.0113219 1.10978e-19 -9.58099e-23)
(0.0146605 4.27586e-19 -1.31852e-18)
(0.0146605 1.55966e-19 -2.10621e-22)
(0.0180474 5.53051e-19 -1.35665e-18)
(0.0180474 1.99353e-19 -2.16918e-22)
(0.0214832 6.86159e-19 -1.39577e-18)
(0.0214832 2.29371e-19 9.27296e-23)
(0.0249687 8.16355e-19 -1.43578e-18)
(0.0249687 2.92215e-19 8.9822e-23)
(0.0285046 9.53966e-19 -1.47695e-18)
(0.0285046 3.39954e-19 -1.99928e-22)
(0.0320917 1.1131e-18 -1.51927e-18)
(0.0320917 3.78545e-19 9.91686e-23)
(0.0357309 1.26595e-18 -1.56222e-18)
(0.0357309 4.15467e-19 5.37672e-23)
(0.0394228 1.41063e-18 -1.60632e-18)
(0.0394228 4.60296e-19 -2.66497e-22)
(0.0431683 1.5719e-18 -1.65151e-18)
(0.0431683 5.37996e-19 -1.98538e-22)
(0.0469682 1.73216e-18 -1.69786e-18)
(0.0469682 6.0895e-19 2.1444e-23)
(0.0508234 1.90022e-18 -1.74545e-18)
(0.0508234 6.74587e-19 -6.9357e-23)
(0.0547345 2.09098e-18 -1.7943e-18)
(0.0547345 7.36937e-19 1.02542e-23)
(0.0587026 2.28158e-18 -1.84391e-18)
(0.0587026 8.25562e-19 -6.6715e-23)
(0.0627285 2.4548e-18 -1.8951e-18)
(0.0627285 9.20937e-19 -5.30812e-22)
(0.0668129 2.64572e-18 -1.94784e-18)
(0.0668129 1.05384e-18 -1.62689e-21)
(0.0709568 2.88333e-18 -2.00196e-18)
(0.0709568 1.17727e-18 -1.78368e-21)
(0.0751611 3.11714e-18 -2.05714e-18)
(0.0751611 1.26021e-18 -1.01555e-21)
(0.0794265 3.34789e-18 -2.11309e-18)
(0.0794265 1.36072e-18 -8.32764e-23)
(0.0837541 3.59914e-18 -2.17028e-18)
(0.0837541 1.44946e-18 -2.25907e-22)
(0.0881447 3.81973e-18 -2.22884e-18)
(0.0881447 1.55194e-18 -2.21751e-21)
(0.0925991 4.04571e-18 -2.2898e-18)
(0.0925991 1.73688e-18 -3.93375e-21)
(0.0971183 4.25173e-18 -2.35187e-18)
(0.0971183 1.91375e-18 -3.01215e-21)
(0.101703 4.40773e-18 -2.41359e-18)
(0.101703 1.97196e-18 -1.88774e-21)
(0.106354 4.56489e-18 -2.4753e-18)
(0.106354 2.04674e-18 -6.98723e-22)
(0.111073 4.78286e-18 -2.53717e-18)
(0.111073 2.17521e-18 -5.33654e-22)
(0.115859 5.04617e-18 -2.59925e-18)
(0.115859 2.29339e-18 -1.29704e-21)
(0.120715 5.34272e-18 -2.66272e-18)
(0.120715 2.37633e-18 -4.76948e-22)
(0.12564 5.68413e-18 -2.72585e-18)
(0.12564 2.52157e-18 -2.90135e-22)
(0.130635 6.01001e-18 -2.78982e-18)
(0.130635 2.69666e-18 -3.81483e-22)
(0.135701 6.37708e-18 -2.85453e-18)
(0.135701 2.76676e-18 -9.20937e-22)
(0.140839 6.73945e-18 -2.91956e-18)
(0.140839 3.0062e-18 -1.05626e-21)
(0.146049 7.05068e-18 -2.98559e-18)
(0.146049 3.31812e-18 -1.81987e-21)
(0.151331 7.38528e-18 -3.05358e-18)
(0.151331 3.5873e-18 -1.27713e-21)
(0.156686 7.71486e-18 -3.12155e-18)
(0.156686 3.79584e-18 -2.28023e-21)
(0.162113 8.0476e-18 -3.19221e-18)
(0.162113 3.94154e-18 -2.5404e-21)
(0.167614 8.38445e-18 -3.26533e-18)
(0.167614 4.22601e-18 -1.68303e-21)
(0.173187 8.74422e-18 -3.34014e-18)
(0.173187 4.48474e-18 1.62851e-22)
(0.178833 9.17031e-18 -3.41384e-18)
(0.178833 4.53887e-18 2.1586e-21)
(0.184551 9.48387e-18 -3.48448e-18)
(0.184551 4.66863e-18 1.26551e-21)
(0.19034 9.70208e-18 -3.55624e-18)
(0.19034 5.06106e-18 2.43398e-21)
(0.196199 1.00428e-17 -3.62632e-18)
(0.196199 5.20919e-18 3.72552e-21)
(0.202127 1.05756e-17 -3.69416e-18)
(0.202127 5.55544e-18 3.4634e-21)
(0.208124 1.10801e-17 -3.76089e-18)
(0.208124 6.00915e-18 3.08911e-21)
(0.214186 1.15559e-17 -3.82753e-18)
(0.214186 6.2138e-18 2.21284e-21)
(0.220312 1.21055e-17 -3.89477e-18)
(0.220312 6.57548e-18 4.16365e-22)
(0.226499 1.24969e-17 -3.96335e-18)
(0.226499 7.13575e-18 -9.54035e-22)
(0.232745 1.28697e-17 -4.03628e-18)
(0.232745 7.48942e-18 3.2716e-22)
(0.239047 1.33604e-17 -4.10732e-18)
(0.239047 7.83327e-18 -7.2136e-22)
(0.245402 1.39696e-17 -4.17877e-18)
(0.245402 8.16653e-18 -4.82803e-22)
(0.251805 1.45356e-17 -4.24634e-18)
(0.251805 8.58248e-18 -3.10094e-21)
(0.258253 1.51734e-17 -4.31512e-18)
(0.258253 9.4748e-18 -4.65702e-21)
(0.264741 1.60402e-17 -4.38054e-18)
(0.264741 9.9251e-18 9.61335e-22)
(0.271266 1.68081e-17 -4.43777e-18)
(0.271266 1.01753e-17 3.52554e-21)
(0.277821 1.75514e-17 -4.48799e-18)
(0.277821 1.07019e-17 9.14201e-21)
(0.284403 1.82673e-17 -4.52749e-18)
(0.284403 1.10054e-17 1.52256e-20)
(0.291005 1.88922e-17 -4.55472e-18)
(0.291005 1.13624e-17 1.95009e-20)
(0.297623 1.9564e-17 -4.57088e-18)
(0.297623 1.19036e-17 2.18784e-20)
(0.304251 2.02309e-17 -4.57924e-18)
(0.304251 1.21925e-17 2.51148e-20)
(0.310883 2.0957e-17 -4.58043e-18)
(0.310883 1.31797e-17 2.15564e-20)
(0.317515 2.16678e-17 -4.57905e-18)
(0.317515 1.33885e-17 2.99162e-20)
(0.324141 2.21029e-17 -4.56275e-18)
(0.324141 1.3761e-17 3.19236e-20)
(0.330755 2.27068e-17 -4.54205e-18)
(0.330755 1.42405e-17 2.42814e-20)
(0.337352 2.36201e-17 -4.52051e-18)
(0.337352 1.51154e-17 3.0507e-20)
(0.343928 2.453e-17 -4.48388e-18)
(0.343928 1.58602e-17 2.74383e-20)
(0.350478 2.51935e-17 -4.44275e-18)
(0.350478 1.65283e-17 1.88504e-20)
(0.356996 2.56838e-17 -4.4147e-18)
(0.356996 1.73686e-17 1.94251e-20)
(0.36348 2.63667e-17 -4.38974e-18)
(0.36348 1.79512e-17 2.19998e-20)
(0.369924 2.73661e-17 -4.36551e-18)
(0.369924 1.84629e-17 2.11839e-20)
(0.376326 2.83926e-17 -4.34009e-18)
(0.376326 1.9265e-17 1.9603e-20)
(0.382682 2.99638e-17 -4.30865e-18)
(0.382682 2.02716e-17 2.5709e-20)
(0.38899 3.15717e-17 -4.2451e-18)
(0.38899 2.12279e-17 2.49285e-20)
(0.395245 3.25456e-17 -4.17397e-18)
(0.395245 2.19667e-17 2.74376e-20)
(0.401447 3.34722e-17 -4.0953e-18)
(0.401447 2.27935e-17 4.87296e-20)
(0.407592 3.42646e-17 -3.98657e-18)
(0.407592 2.34529e-17 5.60894e-20)
(0.41368 3.54664e-17 -3.86995e-18)
(0.41368 2.38282e-17 7.44195e-20)
(0.419709 3.67957e-17 -3.71859e-18)
(0.419709 2.45098e-17 7.21302e-20)
(0.425678 3.77062e-17 -3.5725e-18)
(0.425678 2.51606e-17 6.95774e-20)
(0.431585 3.832e-17 -3.43212e-18)
(0.431585 2.55562e-17 6.67568e-20)
(0.437431 3.87476e-17 -3.303e-18)
(0.437431 2.64529e-17 6.36523e-20)
(0.443214 3.93694e-17 -3.19347e-18)
(0.443214 2.7293e-17 6.02529e-20)
(0.448935 4.00919e-17 -3.1044e-18)
(0.448935 2.71828e-17 5.25561e-20)
(0.454592 4.14513e-17 -3.02864e-18)
(0.454592 2.76049e-17 6.99936e-20)
(0.460188 4.2862e-17 -2.92226e-18)
(0.460188 2.804e-17 5.35745e-20)
(0.46572 4.34945e-17 -2.8365e-18)
(0.46572 2.88063e-17 6.27775e-20)
(0.471191 4.38964e-17 -2.74163e-18)
(0.471191 3.09181e-17 4.81184e-20)
(0.476601 4.43734e-17 -2.66571e-18)
(0.476601 3.16298e-17 5.84626e-20)
(0.481949 4.5008e-17 -2.58234e-18)