/*--------------------------------*- C++ -*----------------------------------*\
| =========                 |                                                 |
| \\      /  F ield         | OpenFOAM: The Open Source CFD Toolbox           |
|  \\    /   O peration     | Version:  2012                                  |
|   \\  /    A nd           | Website:  www.openfoam.com                      |
|    \\/     M anipulation  |                                                 |
\*---------------------------------------------------------------------------*/
FoamFile
{
    version     2.0;
    format      ascii;
    class       volScalarField;
    location    "1000";
    object      nut;
}
// * * * * * * * * * * * * * * * * * * * * * * * * * * * * * * * * * * * * * //

dimensions      [0 2 -1 0 0 0 0];


internalField   nonuniform List<scalar> 
640
(
3.05222e-11
3.05222e-11
4.47544e-11
4.47544e-11
4.74148e-10
4.74148e-10
4.01659e-09
4.01659e-09
2.09604e-08
2.09604e-08
7.98595e-08
7.98595e-08
2.4583e-07
2.4583e-07
6.47369e-07
6.47369e-07
1.50783e-06
1.50783e-06
3.16888e-06
3.16888e-06
6.08519e-06
6.08519e-06
1.07739e-05
1.07739e-05
1.77269e-05
1.77269e-05
2.73258e-05
2.73258e-05
3.98005e-05
3.98005e-05
5.52449e-05
5.52449e-05
7.36645e-05
7.36645e-05
9.5027e-05
9.5027e-05
0.000119297
0.000119297
0.000146456
0.000146456
0.000176507
0.000176507
0.000209481
0.000209481
0.000245429
0.000245429
0.000284424
0.000284424
0.000326556
0.000326556
0.000371932
0.000371932
0.000420673
0.000420673
0.000472911
0.000472911
0.000528793
0.000528793
0.000588476
0.000588476
0.000652126
0.000652126
0.000719923
0.000719923
0.000792053
0.000792053
0.000868714
0.000868714
0.000950111
0.000950111
0.00103646
0.00103646
0.00112798
0.00112798
0.0012249
0.0012249
0.00132746
0.00132746
0.0014359
0.0014359
0.00155047
0.00155047
0.0016714
0.0016714
0.00179895
0.00179895
0.00193335
0.00193335
0.00207486
0.00207486
0.0022237
0.0022237
0.00238007
0.00238007
0.00254419
0.00254419
0.00271623
0.00271623
0.00289632
0.00289632
0.00308458
0.00308458
0.00328105
0.00328105
0.00348575
0.00348575
0.00369858
0.00369858
0.00391941
0.00391941
0.00414797
0.00414797
0.00438391
0.00438391
0.00462672
0.00462672
0.00487575
0.00487575
0.00513017
0.00513017
0.00538895
0.00538895
0.00565082
0.00565082
0.00591426
0.00591426
0.00617744
0.00617744
0.00643818
0.00643818
0.00669393
0.00669393
0.00694168
0.00694168
0.0071779
0.0071779
0.00739852
0.00739852
0.00759877
0.00759877
0.00777322
0.00777322
0.00791562
0.00791562
0.00801908
0.00801908
0.00807624
0.00807624
0.00808005
0.00808005
0.00802557
0.00802557
0.00791373
0.00791373
0.0077584
0.0077584
0.00759573
0.00759573
0.00748603
0.00748603
3.05222e-11
3.05222e-11
4.47544e-11
4.47544e-11
4.74148e-10
4.74148e-10
4.01659e-09
4.01659e-09
2.09604e-08
2.09604e-08
7.98595e-08
7.98595e-08
2.4583e-07
2.4583e-07
6.47369e-07
6.47369e-07
1.50783e-06
1.50783e-06
3.16888e-06
3.16888e-06
6.08519e-06
6.08519e-06
1.07739e-05
1.07739e-05
1.77269e-05
1.77269e-05
2.73258e-05
2.73258e-05
3.98005e-05
3.98005e-05
5.52449e-05
5.52449e-05
7.36645e-05
7.36645e-05
9.5027e-05
9.5027e-05
0.000119297
0.000119297
0.000146456
0.000146456
0.000176507
0.000176507
0.000209481
0.000209481
0.000245429
0.000245429
0.000284424
0.000284424
0.000326556
0.000326556
0.000371932
0.000371932
0.000420673
0.000420673
0.000472911
0.000472911
0.000528793
0.000528793
0.000588476
0.000588476
0.000652126
0.000652126
0.000719923
0.000719923
0.000792053
0.000792053
0.000868714
0.000868714
0.000950111
0.000950111
0.00103646
0.00103646
0.00112798
0.00112798
0.0012249
0.0012249
0.00132746
0.00132746
0.0014359
0.0014359
0.00155047
0.00155047
0.0016714
0.0016714
0.00179895
0.00179895
0.00193335
0.00193335
0.00207486
0.00207486
0.0022237
0.0022237
0.00238007
0.00238007
0.00254419
0.00254419
0.00271623
0.00271623
0.00289632
0.00289632
0.00308458
0.00308458
0.00328105
0.00328105
0.00348575
0.00348575
0.00369858
0.00369858
0.00391941
0.00391941
0.00414797
0.00414797
0.00438391
0.00438391
0.00462672
0.00462672
0.00487575
0.00487575
0.00513017
0.00513017
0.00538895
0.00538895
0.00565082
0.00565082
0.00591426
0.00591426
0.00617744
0.00617744
0.00643818
0.00643818
0.00669393
0.00669393
0.00694168
0.00694168
0.0071779
0.0071779
0.00739852
0.00739852
0.00759877
0.00759877
0.00777322
0.00777322
0.00791562
0.00791562
0.00801908
0.00801908
0.00807624
0.00807624
0.00808005
0.00808005
0.00802557
0.00802557
0.00791373
0.00791373
0.0077584
0.0077584
0.00759573
0.00759573
0.00748603
0.00748603
0.00748603
0.00748603
0.00759573
0.00759573
0.00775839
0.00775839
0.00791372
0.00791372
0.00802556
0.00802556
0.00808004
0.00808004
0.00807623
0.00807623
0.00801907
0.00801907
0.00791561
0.00791561
0.0077732
0.0077732
0.00759876
0.00759876
0.0073985
0.0073985
0.00717789
0.00717789
0.00694166
0.00694166
0.00669391
0.00669391
0.00643817
0.00643817
0.00617742
0.00617742
0.00591424
0.00591424
0.0056508
0.0056508
0.00538893
0.00538893
0.00513015
0.00513015
0.00487574
0.00487574
0.00462671
0.00462671
0.0043839
0.0043839
0.00414796
0.00414796
0.0039194
0.0039194
0.00369857
0.00369857
0.00348574
0.00348574
0.00328105
0.00328105
0.00308457
0.00308457
0.00289632
0.00289632
0.00271623
0.00271623
0.00254419
0.00254419
0.00238007
0.00238007
0.00222369
0.00222369
0.00207486
0.00207486
0.00193335
0.00193335
0.00179894
0.00179894
0.0016714
0.0016714
0.00155046
0.00155046
0.0014359
0.0014359
0.00132746
0.00132746
0.0012249
0.0012249
0.00112798
0.00112798
0.00103646
0.00103646
0.00095011
0.00095011
0.000868713
0.000868713
0.000792053
0.000792053
0.000719923
0.000719923
0.000652126
0.000652126
0.000588475
0.000588475
0.000528793
0.000528793
0.000472911
0.000472911
0.000420672
0.000420672
0.000371932
0.000371932
0.000326556
0.000326556
0.000284424
0.000284424
0.000245429
0.000245429
0.000209481
0.000209481
0.000176507
0.000176507
0.000146456
0.000146456
0.000119297
0.000119297
9.5027e-05
9.5027e-05
7.36645e-05
7.36645e-05
5.52448e-05
5.52448e-05
3.98005e-05
3.98005e-05
2.73258e-05
2.73258e-05
1.77269e-05
1.77269e-05
1.07739e-05
1.07739e-05
6.08519e-06
6.08519e-06
3.16888e-06
3.16888e-06
1.50783e-06
1.50783e-06
6.47369e-07
6.47369e-07
2.4583e-07
2.4583e-07
7.98595e-08
7.98595e-08
2.09604e-08
2.09604e-08
4.01659e-09
4.01659e-09
4.74149e-10
4.74149e-10
4.47545e-11
4.47545e-11
3.05223e-11
3.05223e-11
0.00748603
0.00748603
0.00759573
0.00759573
0.00775839
0.00775839
0.00791372
0.00791372
0.00802556
0.00802556
0.00808004
0.00808004
0.00807623
0.00807623
0.00801907
0.00801907
0.00791561
0.00791561
0.0077732
0.0077732
0.00759876
0.00759876
0.0073985
0.0073985
0.00717789
0.00717789
0.00694166
0.00694166
0.00669391
0.00669391
0.00643817
0.00643817
0.00617742
0.00617742
0.00591424
0.00591424
0.0056508
0.0056508
0.00538893
0.00538893
0.00513015
0.00513015
0.00487574
0.00487574
0.00462671
0.00462671
0.0043839
0.0043839
0.00414796
0.00414796
0.0039194
0.0039194
0.00369857
0.00369857
0.00348574
0.00348574
0.00328105
0.00328105
0.00308457
0.00308457
0.00289632
0.00289632
0.00271623
0.00271623
0.00254419
0.00254419
0.00238007
0.00238007
0.00222369
0.00222369
0.00207486
0.00207486
0.00193335
0.00193335
0.00179894
0.00179894
0.0016714
0.0016714
0.00155046
0.00155046
0.0014359
0.0014359
0.00132746
0.00132746
0.0012249
0.0012249
0.00112798
0.00112798
0.00103646
0.00103646
0.00095011
0.00095011
0.000868713
0.000868713
0.000792053
0.000792053
0.000719923
0.000719923
0.000652126
0.000652126
0.000588475
0.000588475
0.000528793
0.000528793
0.000472911
0.000472911
0.000420672
0.000420672
0.000371932
0.000371932
0.000326556
0.000326556
0.000284424
0.000284424
0.000245429
0.000245429
0.000209481
0.000209481
0.000176507
0.000176507
0.000146456
0.000146456
0.000119297
0.000119297
9.5027e-05
9.5027e-05
7.36645e-05
7.36645e-05
5.52448e-05
5.52448e-05
3.98005e-05
3.98005e-05
2.73258e-05
2.73258e-05
1.77269e-05
1.77269e-05
1.07739e-05
1.07739e-05
6.08519e-06
6.08519e-06
3.16888e-06
3.16888e-06
1.50783e-06
1.50783e-06
6.47369e-07
6.47369e-07
2.4583e-07
2.4583e-07
7.98595e-08
7.98595e-08
2.09604e-08
2.09604e-08
4.01659e-09
4.01659e-09
4.74149e-10
4.74149e-10
4.47545e-11
4.47545e-11
3.05223e-11
3.05223e-11
)
;

boundaryField
{
    walls
    {
        type            nutUWallFunction;
        blending        stepwise;
        Cmu             0.09;
        kappa           0.41;
        E               9.8;
        value           uniform 0;
    }
    inlet
    {
        type            cyclic;
    }
    outlet
    {
        type            cyclic;
    }
    sides
    {
        type            empty;
    }
}


// ************************************************************************* //
