/*--------------------------------*- C++ -*----------------------------------*\
| =========                 |                                                 |
| \\      /  F ield         | OpenFOAM: The Open Source CFD Toolbox           |
|  \\    /   O peration     | Version:  2012                                  |
|   \\  /    A nd           | Website:  www.openfoam.com                      |
|    \\/     M anipulation  |                                                 |
\*---------------------------------------------------------------------------*/
FoamFile
{
    version     2.0;
    format      ascii;
    class       volScalarField;
    location    "10300";
    object      k;
}
// * * * * * * * * * * * * * * * * * * * * * * * * * * * * * * * * * * * * * //

dimensions      [0 2 -2 0 0 0 0];


internalField   nonuniform List<scalar> 
2560
(
0.000201826
0.000201826
0.00312404
0.00312404
0.0223078
0.0223078
0.081865
0.081865
0.210805
0.210805
0.430837
0.430837
0.737128
0.737128
1.0956
1.0956
1.46883
1.46883
1.83506
1.83506
2.18636
2.18636
2.52148
2.52148
2.84157
2.84157
3.14836
3.14836
3.44356
3.44356
3.7286
3.7286
4.00469
4.00469
4.27276
4.27276
4.53354
4.53354
4.78757
4.78757
5.03526
5.03526
5.27685
5.27685
5.51247
5.51247
5.74215
5.74215
5.96581
5.96581
6.18329
6.18329
6.39434
6.39434
6.59861
6.59861
6.79571
6.79571
6.98515
6.98515
7.16639
7.16639
7.33881
7.33881
7.50178
7.50178
7.65459
7.65459
7.79651
7.79651
7.92678
7.92678
8.04465
8.04465
8.14936
8.14936
8.24017
8.24017
8.31638
8.31638
8.37734
8.37734
8.42248
8.42248
8.45134
8.45134
8.46353
8.46353
8.45885
8.45885
8.43719
8.43719
8.39866
8.39866
8.34353
8.34353
8.27226
8.27226
8.18554
8.18554
8.08423
8.08423
7.96944
7.96944
7.84248
7.84248
7.70483
7.70483
7.55817
7.55817
7.40435
7.40435
7.24534
7.24534
7.0832
7.0832
6.92006
6.92006
6.75807
6.75807
6.59934
6.59934
6.44587
6.44587
6.29956
6.29956
6.1621
6.1621
6.03493
6.03493
5.91923
5.91923
5.81585
5.81585
5.72529
5.72529
5.64777
5.64777
5.58311
5.58311
5.53076
5.53076
5.48995
5.48995
5.45964
5.45964
5.43863
5.43863
5.42557
5.42557
5.41905
5.41905
5.41765
5.41765
5.41995
5.41995
5.42465
5.42465
5.43051
5.43051
5.43644
5.43644
5.44148
5.44148
5.4448
5.4448
5.44572
5.44572
5.4437
5.4437
5.43831
5.43831
5.42923
5.42923
5.41624
5.41624
5.39921
5.39921
5.37807
5.37807
5.35281
5.35281
5.32347
5.32347
5.29013
5.29013
5.25291
5.25291
5.21193
5.21193
5.16735
5.16735
5.11934
5.11934
5.06808
5.06808
5.01375
5.01375
4.95654
4.95654
4.89665
4.89665
4.83429
4.83429
4.76963
4.76963
4.70289
4.70289
4.63424
4.63424
4.56389
4.56389
4.49202
4.49202
4.41881
4.41881
4.34443
4.34443
4.26905
4.26905
4.19285
4.19285
4.11596
4.11596
4.03855
4.03855
3.96075
3.96075
3.8827
3.8827
3.80453
3.80453
3.72634
3.72634
3.64826
3.64826
3.57038
3.57038
3.49281
3.49281
3.41562
3.41562
3.3389
3.3389
3.26273
3.26273
3.18716
3.18716
3.11226
3.11226
3.03809
3.03809
2.96468
2.96468
2.89209
2.89209
2.82036
2.82036
2.7495
2.7495
2.67956
2.67956
2.61057
2.61057
2.54254
2.54254
2.47549
2.47549
2.40946
2.40946
2.34444
2.34444
2.28046
2.28046
2.21753
2.21753
2.15566
2.15566
2.09486
2.09486
2.03513
2.03513
1.97649
1.97649
1.91892
1.91892
1.86245
1.86245
1.80706
1.80706
1.75277
1.75277
1.69956
1.69956
1.64746
1.64746
1.59645
1.59645
1.54653
1.54653
1.49772
1.49772
1.45001
1.45001
1.4034
1.4034
1.3579
1.3579
1.31352
1.31352
1.27025
1.27025
1.2281
1.2281
1.18707
1.18707
1.14716
1.14716
1.10838
1.10838
1.07073
1.07073
1.03419
1.03419
0.998759
0.998759
0.964429
0.964429
0.931177
0.931177
0.898984
0.898984
0.867822
0.867822
0.837662
0.837662
0.808471
0.808471
0.780214
0.780214
0.752858
0.752858
0.726367
0.726367
0.700711
0.700711
0.675863
0.675863
0.651797
0.651797
0.628494
0.628494
0.605938
0.605938
0.584112
0.584112
0.563005
0.563006
0.542606
0.542606
0.522904
0.522904
0.503887
0.503887
0.485543
0.485543
0.467858
0.467858
0.450818
0.450818
0.434406
0.434406
0.418605
0.418605
0.403398
0.403398
0.388766
0.388766
0.374693
0.374693
0.361164
0.361164
0.348167
0.348167
0.335691
0.335691
0.323728
0.323728
0.312272
0.312272
0.301316
0.301316
0.290858
0.290858
0.280892
0.280892
0.271415
0.271415
0.262423
0.262423
0.253911
0.253911
0.245872
0.245872
0.238299
0.238299
0.231182
0.231182
0.224509
0.224509
0.218264
0.218264
0.21243
0.21243
0.206988
0.206988
0.201916
0.201916
0.197193
0.197193
0.192802
0.192802
0.188724
0.188724
0.184944
0.184944
0.181442
0.181442
0.1782
0.1782
0.175196
0.175196
0.172405
0.172405
0.169797
0.169797
0.167342
0.167342
0.165002
0.165002
0.162741
0.162741
0.160523
0.160523
0.158319
0.158319
0.156111
0.156111
0.153897
0.153897
0.151683
0.151683
0.149483
0.149483
0.147309
0.147309
0.145167
0.145167
0.143051
0.143051
0.140948
0.140948
0.138841
0.138841
0.136716
0.136716
0.134564
0.134564
0.132385
0.132385
0.130183
0.130183
0.127969
0.127969
0.12576
0.12576
0.123585
0.123585
0.121476
0.121476
0.119467
0.119467
0.117587
0.117587
0.115854
0.115854
0.114272
0.114272
0.112835
0.112835
0.11152
0.11152
0.110292
0.110292
0.109097
0.109097
0.107866
0.107866
0.106533
0.106533
0.105053
0.105053
0.103428
0.103428
0.101699
0.101699
0.0999373
0.0999373
0.0982209
0.0982209
0.0966146
0.0966146
0.095154
0.095154
0.0938484
0.0938484
0.0926897
0.0926897
0.0916604
0.0916604
0.0907485
0.0907485
0.0899612
0.0899612
0.0893197
0.0893197
0.0888453
0.0888453
0.0885359
0.0885359
0.0883642
0.0883642
0.0882917
0.0882918
0.0882847
0.0882847
0.0883221
0.0883221
0.0883972
0.0883972
0.0885181
0.0885181
0.0887086
0.0887086
0.0890022
0.0890022
0.0894303
0.0894303
0.0900113
0.0900113
0.0907445
0.0907445
0.0916062
0.0916062
0.0925583
0.0925583
0.0935472
0.0935472
0.094518
0.094518
0.0954288
0.0954288
0.096243
0.096243
0.096904
0.096904
0.0973159
0.0973159
0.0973593
0.0973593
0.0969396
0.0969396
0.0960267
0.0960267
0.0946524
0.0946524
0.0928898
0.0928898
0.0908677
0.0908677
0.0887722
0.0887722
0.0867816
0.0867816
0.0849161
0.0849161
0.0831359
0.0831359
0.081441
0.081441
0.0798731
0.0798731
0.0784326
0.0784326
0.077059
0.077059
0.0756996
0.0756996
0.0743483
0.0743483
0.0730416
0.0730417
0.0718247
0.0718247
0.0707256
0.0707256
0.0697521
0.0697521
0.068901
0.068901
0.068125
0.068125
0.067322
0.067322
0.0663833
0.0663833
0.0652757
0.0652757
0.0640718
0.0640718
0.0628825
0.0628825
0.0617768
0.0617769
0.0607803
0.0607804
0.0599053
0.0599053
0.0591546
0.0591547
0.0585066
0.0585067
0.0579533
0.0579535
0.0575282
0.0575284
0.0572379
0.0572382
0.057081
0.0570814
0.000201826
0.000201826
0.00312404
0.00312404
0.0223078
0.0223078
0.081865
0.081865
0.210805
0.210805
0.430837
0.430837
0.737128
0.737128
1.0956
1.0956
1.46883
1.46883
1.83506
1.83506
2.18636
2.18636
2.52148
2.52148
2.84157
2.84157
3.14836
3.14836
3.44356
3.44356
3.7286
3.7286
4.00469
4.00469
4.27276
4.27276
4.53354
4.53354
4.78758
4.78758
5.03526
5.03526
5.27685
5.27685
5.51247
5.51247
5.74215
5.74215
5.96581
5.96581
6.18329
6.18329
6.39434
6.39434
6.59862
6.59862
6.79571
6.79571
6.98515
6.98515
7.16639
7.16639
7.33882
7.33882
7.50178
7.50178
7.65459
7.65459
7.79651
7.79651
7.92679
7.92679
8.04466
8.04466
8.14936
8.14936
8.24017
8.24017
8.31638
8.31638
8.37734
8.37734
8.42249
8.42249
8.45134
8.45134
8.46354
8.46354
8.45885
8.45885
8.4372
8.4372
8.39867
8.39867
8.34353
8.34353
8.27227
8.27227
8.18554
8.18554
8.08423
8.08423
7.96945
7.96945
7.84248
7.84248
7.70483
7.70483
7.55818
7.55818
7.40436
7.40436
7.24534
7.24534
7.0832
7.0832
6.92007
6.92007
6.75808
6.75808
6.59934
6.59934
6.44587
6.44587
6.29956
6.29956
6.1621
6.1621
6.03493
6.03493
5.91923
5.91923
5.81585
5.81585
5.72529
5.72529
5.64777
5.64777
5.58311
5.58311
5.53076
5.53076
5.48995
5.48995
5.45964
5.45964
5.43863
5.43863
5.42557
5.42557
5.41905
5.41905
5.41765
5.41765
5.41995
5.41995
5.42465
5.42465
5.43051
5.43051
5.43644
5.43644
5.44148
5.44148
5.4448
5.4448
5.44572
5.44572
5.4437
5.4437
5.43831
5.43831
5.42923
5.42923
5.41624
5.41624
5.39921
5.39921
5.37807
5.37807
5.35281
5.35281
5.32347
5.32347
5.29013
5.29013
5.25291
5.25291
5.21193
5.21193
5.16735
5.16735
5.11934
5.11934
5.06808
5.06808
5.01374
5.01374
4.95654
4.95654
4.89665
4.89665
4.83429
4.83429
4.76963
4.76963
4.70289
4.70289
4.63424
4.63424
4.56389
4.56389
4.49202
4.49202
4.41881
4.41881
4.34443
4.34443
4.26905
4.26905
4.19285
4.19285
4.11596
4.11596
4.03855
4.03855
3.96075
3.96075
3.8827
3.8827
3.80453
3.80453
3.72634
3.72634
3.64826
3.64826
3.57038
3.57038
3.49281
3.49281
3.41562
3.41562
3.3389
3.3389
3.26272
3.26272
3.18716
3.18716
3.11226
3.11226
3.03809
3.03809
2.96468
2.96468
2.89209
2.89209
2.82035
2.82035
2.7495
2.7495
2.67956
2.67956
2.61057
2.61057
2.54254
2.54254
2.47549
2.47549
2.40946
2.40946
2.34444
2.34444
2.28046
2.28046
2.21753
2.21753
2.15566
2.15566
2.09486
2.09486
2.03513
2.03513
1.97649
1.97649
1.91892
1.91892
1.86245
1.86245
1.80706
1.80706
1.75277
1.75277
1.69956
1.69956
1.64746
1.64746
1.59645
1.59645
1.54653
1.54653
1.49772
1.49772
1.45001
1.45001
1.4034
1.4034
1.3579
1.3579
1.31352
1.31352
1.27025
1.27025
1.2281
1.2281
1.18707
1.18707
1.14716
1.14716
1.10838
1.10838
1.07072
1.07072
1.03419
1.03419
0.998759
0.998759
0.964428
0.964428
0.931177
0.931177
0.898984
0.898984
0.867822
0.867822
0.837662
0.837662
0.808471
0.808471
0.780214
0.780214
0.752858
0.752858
0.726367
0.726367
0.700711
0.700711
0.675863
0.675863
0.651797
0.651797
0.628495
0.628495
0.605938
0.605938
0.584112
0.584112
0.563006
0.563006
0.542607
0.542607
0.522904
0.522904
0.503887
0.503887
0.485543
0.485543
0.467858
0.467858
0.450818
0.450818
0.434406
0.434406
0.418606
0.418606
0.403398
0.403398
0.388766
0.388766
0.374693
0.374693
0.361164
0.361164
0.348167
0.348167
0.335691
0.335691
0.323728
0.323728
0.312272
0.312272
0.301316
0.301316
0.290858
0.290858
0.280892
0.280892
0.271415
0.271415
0.262423
0.262423
0.25391
0.25391
0.245872
0.245872
0.238299
0.238299
0.231182
0.231182
0.224508
0.224508
0.218263
0.218263
0.21243
0.21243
0.206987
0.206987
0.201915
0.201915
0.197192
0.197192
0.192801
0.192801
0.188723
0.188723
0.184942
0.184942
0.181441
0.181441
0.178199
0.178199
0.175195
0.175195
0.172403
0.172403
0.169796
0.169796
0.16734
0.16734
0.165001
0.165001
0.16274
0.16274
0.160522
0.160522
0.158317
0.158317
0.15611
0.15611
0.153896
0.153896
0.151682
0.151682
0.149482
0.149482
0.147308
0.147308
0.145166
0.145166
0.14305
0.14305
0.140947
0.140947
0.138841
0.138841
0.136715
0.136715
0.134564
0.134564
0.132385
0.132385
0.130183
0.130183
0.127968
0.127968
0.12576
0.12576
0.123585
0.123585
0.121475
0.121475
0.119467
0.119467
0.117587
0.117587
0.115853
0.115853
0.114272
0.114272
0.112834
0.112834
0.111519
0.111519
0.110291
0.110291
0.109096
0.109096
0.107866
0.107866
0.106533
0.106533
0.105053
0.105053
0.103428
0.103428
0.1017
0.1017
0.0999382
0.0999382
0.0982218
0.0982218
0.0966155
0.0966155
0.0951549
0.0951549
0.0938492
0.0938493
0.0926905
0.0926905
0.0916611
0.0916611
0.0907492
0.0907492
0.0899617
0.0899617
0.08932
0.08932
0.0888453
0.0888453
0.0885358
0.0885358
0.0883639
0.0883639
0.0882914
0.0882914
0.0882844
0.0882844
0.0883218
0.0883218
0.0883969
0.0883969
0.0885178
0.0885178
0.088708
0.0887081
0.0890013
0.0890013
0.0894288
0.0894288
0.0900093
0.0900093
0.0907418
0.0907418
0.0916029
0.0916029
0.0925546
0.0925545
0.0935431
0.0935431
0.0945138
0.0945138
0.0954246
0.0954245
0.0962391
0.0962391
0.0969007
0.0969006
0.0973133
0.0973133
0.0973579
0.0973579
0.0969396
0.0969396
0.0960282
0.0960282
0.0946551
0.0946551
0.0928931
0.0928932
0.0908711
0.0908712
0.088775
0.0887751
0.0867837
0.0867837
0.0849176
0.0849176
0.083137
0.083137
0.0814417
0.0814417
0.0798734
0.0798735
0.0784327
0.0784328
0.077059
0.0770591
0.0756998
0.0756998
0.0743487
0.0743487
0.073042
0.073042
0.0718248
0.0718249
0.0707252
0.0707252
0.0697512
0.0697512
0.0688996
0.0688996
0.0681235
0.0681235
0.0673209
0.0673209
0.066383
0.0663831
0.0652763
0.0652763
0.0640729
0.0640729
0.0628835
0.0628835
0.0617776
0.0617776
0.0607807
0.0607806
0.0599053
0.0599052
0.0591542
0.0591541
0.0585061
0.0585059
0.0579527
0.0579525
0.0575274
0.0575271
0.057237
0.0572366
0.0570801
0.0570798
0.0570728
0.0570731
0.0572134
0.0572137
0.0574871
0.0574874
0.0578942
0.0578943
0.0584289
0.058429
0.0590617
0.0590617
0.0597996
0.0597997
0.0606619
0.0606619
0.0616456
0.0616456
0.0627337
0.0627337
0.0639042
0.0639042
0.0650936
0.0650936
0.0661927
0.0661927
0.0671323
0.0671323
0.0679531
0.0679531
0.0687592
0.0687592
0.069642
0.069642
0.0706458
0.0706459
0.0717745
0.0717745
0.0730208
0.0730208
0.0743525
0.0743525
0.0757228
0.0757228
0.0770968
0.0770968
0.0784854
0.0784854
0.0799444
0.0799444
0.0815303
0.0815303
0.0832427
0.0832427
0.0850409
0.0850409
0.0869253
0.0869253
0.0889346
0.0889346
0.0910517
0.0910517
0.0930932
0.0930932
0.0948634
0.0948634
0.0962309
0.0962309
0.0971227
0.0971227
0.0975096
0.0975096
0.0974394
0.0974394
0.097013
0.097013
0.0963467
0.0963467
0.0955332
0.0955332
0.0946246
0.0946246
0.093656
0.093656
0.0926691
0.0926691
0.0917172
0.0917172
0.090855
0.090855
0.0901212
0.0901212
0.0895395
0.0895395
0.0891108
0.0891108
0.0888152
0.0888152
0.0886211
0.0886211
0.0884944
0.0884944
0.0884119
0.0884119
0.0883691
0.0883691
0.0883714
0.0883714
0.0884359
0.0884359
0.0885981
0.0885981
0.088898
0.088898
0.0893628
0.0893628
0.0899946
0.0899946
0.0907742
0.0907742
0.0916797
0.0916797
0.0927009
0.0927009
0.0938492
0.0938492
0.095143
0.095143
0.0965902
0.0965902
0.0981822
0.0981822
0.0998871
0.0998871
0.101642
0.101642
0.103364
0.103364
0.104977
0.104977
0.106441
0.106441
0.107763
0.107763
0.108989
0.108989
0.110186
0.110186
0.111423
0.111423
0.112751
0.112751
0.114205
0.114205
0.115801
0.115801
0.117543
0.117543
0.119426
0.119426
0.121433
0.121433
0.123538
0.123538
0.125708
0.125708
0.127911
0.127911
0.130122
0.130122
0.132319
0.13232
0.134497
0.134497
0.136651
0.136651
0.138778
0.138778
0.140887
0.140887
0.142997
0.142997
0.145123
0.145123
0.147279
0.147279
0.149471
0.149471
0.151691
0.151691
0.153919
0.153919
0.156141
0.156141
0.158355
0.158355
0.160563
0.160563
0.162784
0.162784
0.165049
0.165049
0.167393
0.167393
0.169853
0.169853
0.172462
0.172462
0.175251
0.175251
0.178248
0.178248
0.181481
0.181481
0.184974
0.184974
0.188746
0.188746
0.192815
0.192815
0.197202
0.197202
0.201922
0.201922
0.206993
0.206993
0.212436
0.212436
0.218271
0.218271
0.224517
0.224517
0.231192
0.231192
0.238311
0.238311
0.245887
0.245887
0.253927
0.253927
0.26244
0.26244
0.271432
0.271432
0.280909
0.280909
0.290875
0.290875
0.301335
0.301335
0.312291
0.312291
0.323747
0.323747
0.335709
0.335709
0.348186
0.348186
0.361185
0.361185
0.374716
0.374716
0.388791
0.388791
0.403422
0.403422
0.418627
0.418627
0.434426
0.434426
0.450836
0.450836
0.467874
0.467874
0.485557
0.485557
0.503901
0.503901
0.522918
0.522918
0.542621
0.542621
0.563021
0.563021
0.584128
0.584128
0.605955
0.605955
0.628516
0.628516
0.651821
0.651821
0.675886
0.675886
0.700734
0.700734
0.726389
0.726389
0.752882
0.752882
0.780242
0.780242
0.808504
0.808504
0.837701
0.837701
0.867866
0.867866
0.899031
0.899031
0.931227
0.931227
0.964481
0.964481
0.998814
0.998814
1.03424
1.03424
1.07078
1.07078
1.10844
1.10844
1.14722
1.14722
1.18712
1.18712
1.22815
1.22815
1.27031
1.2703
1.31358
1.31358
1.35796
1.35796
1.40346
1.40346
1.45007
1.45007
1.49778
1.49778
1.5466
1.5466
1.59651
1.59651
1.64752
1.64752
1.69963
1.69963
1.75284
1.75284
1.80714
1.80714
1.86253
1.86253
1.91902
1.91902
1.9766
1.9766
2.03526
2.03526
2.095
2.095
2.15583
2.15583
2.21772
2.21772
2.28067
2.28067
2.34467
2.34467
2.4097
2.4097
2.47575
2.47575
2.5428
2.5428
2.61085
2.61085
2.67986
2.67986
2.74982
2.74982
2.82071
2.82071
2.89248
2.89248
2.9651
2.9651
3.03852
3.03852
3.11271
3.11271
3.18763
3.18763
3.2632
3.2632
3.33937
3.33937
3.41609
3.41609
3.49327
3.49327
3.57083
3.57083
3.64868
3.64868
3.72672
3.72672
3.80484
3.80484
3.88294
3.88294
3.96094
3.96094
4.03871
4.03871
4.1161
4.1161
4.19298
4.19298
4.26917
4.26917
4.34454
4.34454
4.41891
4.41891
4.49212
4.49212
4.56399
4.56399
4.63434
4.63434
4.70293
4.70293
4.76964
4.76964
4.83429
4.83429
4.89666
4.89666
4.95656
4.95656
5.01381
5.01381
5.06822
5.06822
5.11955
5.11955
5.16762
5.16762
5.21223
5.21223
5.25319
5.25319
5.29032
5.29032
5.32346
5.32346
5.3525
5.3525
5.37747
5.37747
5.39841
5.39841
5.41537
5.41537
5.42833
5.42833
5.43735
5.43735
5.44266
5.44266
5.44457
5.44457
5.44348
5.44348
5.43998
5.43998
5.43476
5.43476
5.42865
5.42865
5.42266
5.42266
5.4179
5.4179
5.41556
5.41556
5.417
5.417
5.42359
5.42359
5.43672
5.43672
5.45778
5.45778
5.48811
5.48811
5.52896
5.52896
5.58134
5.58134
5.64602
5.64602
5.72355
5.72355
5.81411
5.81411
5.91751
5.91751
6.03322
6.03322
6.16041
6.16041
6.29788
6.29788
6.44418
6.44418
6.5976
6.5976
6.75629
6.75629
6.9183
6.9183
7.0815
7.0815
7.24373
7.24373
7.40285
7.40285
7.5568
7.5568
7.70363
7.70363
7.84154
7.84154
7.9688
7.9688
8.08376
8.08376
8.18512
8.18512
8.27197
8.27197
8.34347
8.34347
8.39885
8.39885
8.43755
8.43755
8.45937
8.45937
8.46424
8.46424
8.45219
8.45219
8.42345
8.42345
8.37841
8.37841
8.31756
8.31756
8.24141
8.24141
8.15061
8.15061
8.0459
8.0459
7.92802
7.92802
7.79771
7.79771
7.65576
7.65576
7.50291
7.50291
7.33987
7.33987
7.16735
7.16735
6.98606
6.98606
6.7966
6.7966
6.5995
6.5995
6.39523
6.39523
6.18418
6.18418
5.96669
5.96669
5.74299
5.74299
5.51327
5.51327
5.2776
5.2776
5.03596
5.03596
4.78822
4.78822
4.53414
4.53414
4.27331
4.27331
4.0052
4.0052
3.72908
3.72908
3.444
3.444
3.14877
3.14877
2.84194
2.84194
2.52182
2.52182
2.18667
2.18667
1.83534
1.83534
1.46906
1.46906
1.09579
1.09579
0.737267
0.737267
0.430925
0.430925
0.21085
0.21085
0.0818825
0.0818825
0.0223126
0.0223126
0.00312469
0.00312469
0.000201851
0.000201851
0.0570719
0.0570715
0.0572125
0.0572121
0.0574863
0.057486
0.0578935
0.0578932
0.0584284
0.0584282
0.0590613
0.0590612
0.0597996
0.0597995
0.0606622
0.0606621
0.0616463
0.0616463
0.0627347
0.0627347
0.0639051
0.0639052
0.0650941
0.0650942
0.0661924
0.0661924
0.0671312
0.0671312
0.0679516
0.0679516
0.0687578
0.0687578
0.0696411
0.0696411
0.0706454
0.0706455
0.0717746
0.0717746
0.0730211
0.0730211
0.0743528
0.0743528
0.0757229
0.075723
0.0770968
0.0770968
0.0784855
0.0784855
0.0799447
0.0799448
0.0815309
0.081531
0.0832438
0.0832438
0.0850424
0.0850424
0.0869274
0.0869274
0.0889374
0.0889375
0.091055
0.0910551
0.0930965
0.0930965
0.094866
0.094866
0.0962324
0.0962324
0.0971227
0.0971227
0.0975082
0.0975082
0.0974369
0.0974369
0.0970096
0.0970096
0.0963428
0.0963428
0.0955291
0.0955291
0.0946204
0.0946204
0.093652
0.093652
0.0926654
0.0926653
0.091714
0.091714
0.0908523
0.0908523
0.0901192
0.0901192
0.0895381
0.0895381
0.0891099
0.0891099
0.0888147
0.0888147
0.0886207
0.0886207
0.0884941
0.0884941
0.0884116
0.0884116
0.0883688
0.0883688
0.088371
0.088371
0.0884356
0.0884356
0.0885979
0.0885979
0.088898
0.088898
0.0893631
0.0893631
0.0899951
0.0899951
0.0907748
0.0907748
0.0916805
0.0916805
0.0927017
0.0927017
0.0938501
0.0938501
0.0951439
0.0951439
0.0965911
0.0965911
0.0981831
0.0981831
0.0998879
0.0998879
0.101643
0.101643
0.103364
0.103364
0.104977
0.104977
0.106441
0.106441
0.107763
0.107763
0.108989
0.108989
0.110186
0.110186
0.111422
0.111422
0.112751
0.112751
0.114204
0.114204
0.1158
0.1158
0.117543
0.117543
0.119426
0.119426
0.121433
0.121433
0.123537
0.123537
0.125707
0.125707
0.127911
0.127911
0.130122
0.130122
0.132319
0.132319
0.134497
0.134497
0.136651
0.136651
0.138778
0.138778
0.140886
0.140886
0.142996
0.142996
0.145122
0.145122
0.147278
0.147278
0.14947
0.14947
0.15169
0.15169
0.153917
0.153917
0.15614
0.15614
0.158354
0.158354
0.160562
0.160562
0.162782
0.162782
0.165047
0.165047
0.167392
0.167392
0.169851
0.169851
0.17246
0.17246
0.175249
0.175249
0.178246
0.178246
0.18148
0.18148
0.184973
0.184973
0.188745
0.188745
0.192814
0.192814
0.197201
0.197201
0.201921
0.201921
0.206992
0.206992
0.212436
0.212436
0.21827
0.21827
0.224516
0.224516
0.231191
0.231191
0.238311
0.238311
0.245886
0.245886
0.253927
0.253927
0.26244
0.26244
0.271432
0.271432
0.280909
0.280909
0.290875
0.290875
0.301335
0.301335
0.312291
0.312291
0.323747
0.323747
0.335709
0.335709
0.348186
0.348186
0.361185
0.361185
0.374716
0.374716
0.388791
0.388791
0.403422
0.403422
0.418627
0.418627
0.434426
0.434426
0.450836
0.450836
0.467874
0.467874
0.485557
0.485557
0.503901
0.503901
0.522919
0.522919
0.542621
0.542621
0.563021
0.563021
0.584128
0.584128
0.605955
0.605955
0.628516
0.628516
0.651821
0.651821
0.675887
0.675887
0.700734
0.700734
0.726389
0.726389
0.752882
0.752882
0.780242
0.780242
0.808504
0.808504
0.837701
0.837701
0.867866
0.867866
0.899031
0.899031
0.931227
0.931227
0.964481
0.964481
0.998814
0.998814
1.03424
1.03424
1.07078
1.07078
1.10844
1.10844
1.14722
1.14722
1.18712
1.18712
1.22815
1.22815
1.2703
1.2703
1.31358
1.31358
1.35796
1.35796
1.40346
1.40346
1.45007
1.45007
1.49778
1.49778
1.5466
1.5466
1.59651
1.59651
1.64752
1.64752
1.69963
1.69963
1.75284
1.75284
1.80714
1.80714
1.86253
1.86253
1.91902
1.91902
1.9766
1.9766
2.03526
2.03526
2.095
2.095
2.15583
2.15583
2.21772
2.21772
2.28067
2.28067
2.34467
2.34467
2.4097
2.4097
2.47575
2.47575
2.5428
2.5428
2.61085
2.61085
2.67986
2.67986
2.74982
2.74982
2.82071
2.82071
2.89248
2.89248
2.9651
2.9651
3.03852
3.03852
3.11271
3.11271
3.18763
3.18763
3.2632
3.2632
3.33937
3.33937
3.41609
3.41609
3.49327
3.49327
3.57083
3.57083
3.64868
3.64868
3.72672
3.72672
3.80484
3.80484
3.88294
3.88294
3.96094
3.96094
4.03871
4.03871
4.1161
4.1161
4.19298
4.19298
4.26917
4.26917
4.34454
4.34454
4.41891
4.41891
4.49212
4.49212
4.56399
4.56399
4.63434
4.63434
4.70293
4.70293
4.76964
4.76964
4.83429
4.83429
4.89666
4.89666
4.95656
4.95656
5.01381
5.01381
5.06822
5.06822
5.11955
5.11955
5.16762
5.16762
5.21223
5.21223
5.25319
5.25319
5.29032
5.29032
5.32346
5.32346
5.3525
5.3525
5.37747
5.37747
5.39841
5.39841
5.41537
5.41537
5.42833
5.42833
5.43735
5.43735
5.44266
5.44266
5.44457
5.44457
5.44348
5.44348
5.43998
5.43998
5.43476
5.43476
5.42865
5.42865
5.42266
5.42266
5.4179
5.4179
5.41556
5.41556
5.417
5.417
5.4236
5.4236
5.43672
5.43672
5.45778
5.45778
5.48812
5.48812
5.52896
5.52896
5.58134
5.58134
5.64602
5.64602
5.72355
5.72355
5.81412
5.81412
5.91751
5.91751
6.03323
6.03323
6.16041
6.16041
6.29789
6.29789
6.44419
6.44419
6.5976
6.5976
6.75629
6.75629
6.9183
6.9183
7.0815
7.0815
7.24374
7.24374
7.40286
7.40286
7.55681
7.55681
7.70364
7.70364
7.84155
7.84155
7.96881
7.96881
8.08377
8.08377
8.18513
8.18513
8.27197
8.27197
8.34348
8.34348
8.39886
8.39886
8.43756
8.43756
8.45938
8.45938
8.46425
8.46425
8.4522
8.4522
8.42345
8.42345
8.37842
8.37842
8.31756
8.31756
8.24141
8.24141
8.15061
8.15061
8.0459
8.0459
7.92802
7.92802
7.79772
7.79772
7.65576
7.65576
7.50291
7.50291
7.33987
7.33987
7.16736
7.16736
6.98606
6.98606
6.7966
6.7966
6.5995
6.5995
6.39523
6.39523
6.18418
6.18418
5.96669
5.96669
5.74299
5.74299
5.51327
5.51327
5.2776
5.2776
5.03596
5.03596
4.78822
4.78822
4.53414
4.53414
4.27331
4.27331
4.0052
4.0052
3.72908
3.72908
3.444
3.444
3.14877
3.14877
2.84194
2.84194
2.52182
2.52182
2.18667
2.18667
1.83534
1.83534
1.46906
1.46906
1.09579
1.09579
0.737267
0.737267
0.430925
0.430925
0.21085
0.21085
0.0818825
0.0818825
0.0223126
0.0223126
0.00312469
0.00312469
0.00020185
0.00020185
)
;

boundaryField
{
    walls
    {
        type            kqRWallFunction;
        value           nonuniform List<scalar> 8(0.000201826 0.000201826 0.000201826 0.000201826 0.000201851 0.00020185 0.000201851 0.00020185);
    }
    inlet
    {
        type            cyclic;
    }
    outlet
    {
        type            cyclic;
    }
    sides
    {
        type            empty;
    }
}


// ************************************************************************* //
