/*--------------------------------*- C++ -*----------------------------------*\
| =========                 |                                                 |
| \\      /  F ield         | OpenFOAM: The Open Source CFD Toolbox           |
|  \\    /   O peration     | Version:  2012                                  |
|   \\  /    A nd           | Website:  www.openfoam.com                      |
|    \\/     M anipulation  |                                                 |
\*---------------------------------------------------------------------------*/
FoamFile
{
    version     2.0;
    format      ascii;
    class       volScalarField;
    location    "19000";
    object      Cy;
}
// * * * * * * * * * * * * * * * * * * * * * * * * * * * * * * * * * * * * * //

dimensions      [0 1 0 0 0 0 0];


internalField   nonuniform List<scalar> 
640
(
0.00028583
0.00028583
0.000874648
0.000874648
0.00149881
0.00149881
0.00216044
0.00216044
0.00286178
0.00286178
0.00360522
0.00360522
0.00439329
0.00439329
0.00522866
0.00522866
0.00611418
0.00611418
0.00705285
0.00705285
0.00804786
0.00804786
0.0091026
0.0091026
0.0102207
0.0102207
0.0114058
0.0114058
0.0126621
0.0126621
0.0139938
0.0139938
0.0154055
0.0154055
0.0169019
0.0169019
0.0184881
0.0184881
0.0201695
0.0201695
0.0219519
0.0219519
0.0238412
0.0238412
0.025844
0.025844
0.0279669
0.0279669
0.0302173
0.0302173
0.0326028
0.0326028
0.0351315
0.0351315
0.0378119
0.0378119
0.0406533
0.0406533
0.0436652
0.0436652
0.0468579
0.0468579
0.0502422
0.0502422
0.0538297
0.0538297
0.0576326
0.0576326
0.0616637
0.0616637
0.0659367
0.0659367
0.0704663
0.0704663
0.0752678
0.0752678
0.0803574
0.0803574
0.0857526
0.0857526
0.0914717
0.0914717
0.097534
0.097534
0.10396
0.10396
0.110772
0.110772
0.117993
0.117993
0.125647
0.125647
0.133761
0.133761
0.142362
0.142362
0.151479
0.151479
0.161143
0.161143
0.171388
0.171388
0.182247
0.182247
0.193758
0.193758
0.20596
0.20596
0.218895
0.218895
0.232606
0.232606
0.24714
0.24714
0.262546
0.262546
0.278878
0.278878
0.296189
0.296189
0.31454
0.31454
0.333992
0.333992
0.354612
0.354612
0.376469
0.376469
0.399639
0.399639
0.424199
0.424199
0.450234
0.450234
0.477831
0.477831
0.507085
0.507085
0.538095
0.538095
0.570966
0.570966
0.605811
0.605811
0.642747
0.642747
0.6819
0.6819
0.723403
0.723403
0.767397
0.767397
0.814033
0.814033
0.863467
0.863467
0.915869
0.915869
0.971417
0.971417
0.00028583
0.00028583
0.000874648
0.000874648
0.00149881
0.00149881
0.00216044
0.00216044
0.00286178
0.00286178
0.00360522
0.00360522
0.00439329
0.00439329
0.00522866
0.00522866
0.00611418
0.00611418
0.00705285
0.00705285
0.00804786
0.00804786
0.0091026
0.0091026
0.0102207
0.0102207
0.0114058
0.0114058
0.0126621
0.0126621
0.0139938
0.0139938
0.0154055
0.0154055
0.0169019
0.0169019
0.0184881
0.0184881
0.0201695
0.0201695
0.0219519
0.0219519
0.0238412
0.0238412
0.025844
0.025844
0.0279669
0.0279669
0.0302173
0.0302173
0.0326028
0.0326028
0.0351315
0.0351315
0.0378119
0.0378119
0.0406533
0.0406533
0.0436652
0.0436652
0.0468579
0.0468579
0.0502422
0.0502422
0.0538297
0.0538297
0.0576326
0.0576326
0.0616637
0.0616637
0.0659367
0.0659367
0.0704663
0.0704663
0.0752678
0.0752678
0.0803574
0.0803574
0.0857526
0.0857526
0.0914717
0.0914717
0.097534
0.097534
0.10396
0.10396
0.110772
0.110772
0.117993
0.117993
0.125647
0.125647
0.133761
0.133761
0.142362
0.142362
0.151479
0.151479
0.161143
0.161143
0.171388
0.171388
0.182247
0.182247
0.193758
0.193758
0.20596
0.20596
0.218895
0.218895
0.232606
0.232606
0.24714
0.24714
0.262546
0.262546
0.278878
0.278878
0.296189
0.296189
0.31454
0.31454
0.333992
0.333992
0.354612
0.354612
0.376469
0.376469
0.399639
0.399639
0.424199
0.424199
0.450234
0.450234
0.477831
0.477831
0.507085
0.507085
0.538095
0.538095
0.570966
0.570966
0.605811
0.605811
0.642747
0.642747
0.6819
0.6819
0.723403
0.723403
0.767397
0.767397
0.814033
0.814033
0.863467
0.863467
0.915869
0.915869
0.971417
0.971417
1.02858
1.02858
1.08413
1.08413
1.13653
1.13653
1.18597
1.18597
1.2326
1.2326
1.2766
1.2766
1.3181
1.3181
1.35725
1.35725
1.39419
1.39419
1.42903
1.42903
1.46191
1.46191
1.49291
1.49291
1.52217
1.52217
1.54977
1.54977
1.5758
1.5758
1.60036
1.60036
1.62353
1.62353
1.64539
1.64539
1.66601
1.66601
1.68546
1.68546
1.70381
1.70381
1.72112
1.72112
1.73745
1.73745
1.75286
1.75286
1.76739
1.76739
1.78111
1.78111
1.79404
1.79404
1.80624
1.80624
1.81775
1.81775
1.82861
1.82861
1.83886
1.83886
1.84852
1.84852
1.85764
1.85764
1.86624
1.86624
1.87435
1.87435
1.88201
1.88201
1.88923
1.88923
1.89604
1.89604
1.90247
1.90247
1.90853
1.90853
1.91425
1.91425
1.91964
1.91964
1.92473
1.92473
1.92953
1.92953
1.93406
1.93406
1.93834
1.93834
1.94237
1.94237
1.94617
1.94617
1.94976
1.94976
1.95314
1.95314
1.95633
1.95633
1.95935
1.95935
1.96219
1.96219
1.96487
1.96487
1.9674
1.9674
1.96978
1.96978
1.97203
1.97203
1.97416
1.97416
1.97616
1.97616
1.97805
1.97805
1.97983
1.97983
1.98151
1.98151
1.9831
1.9831
1.98459
1.98459
1.98601
1.98601
1.98734
1.98734
1.98859
1.98859
1.98978
1.98978
1.9909
1.9909
1.99195
1.99195
1.99295
1.99295
1.99389
1.99389
1.99477
1.99477
1.99561
1.99561
1.99639
1.99639
1.99714
1.99714
1.99784
1.99784
1.9985
1.9985
1.99913
1.99913
1.99971
1.99971
1.02858
1.02858
1.08413
1.08413
1.13653
1.13653
1.18597
1.18597
1.2326
1.2326
1.2766
1.2766
1.3181
1.3181
1.35725
1.35725
1.39419
1.39419
1.42903
1.42903
1.46191
1.46191
1.49291
1.49291
1.52217
1.52217
1.54977
1.54977
1.5758
1.5758
1.60036
1.60036
1.62353
1.62353
1.64539
1.64539
1.66601
1.66601
1.68546
1.68546
1.70381
1.70381
1.72112
1.72112
1.73745
1.73745
1.75286
1.75286
1.76739
1.76739
1.78111
1.78111
1.79404
1.79404
1.80624
1.80624
1.81775
1.81775
1.82861
1.82861
1.83886
1.83886
1.84852
1.84852
1.85764
1.85764
1.86624
1.86624
1.87435
1.87435
1.88201
1.88201
1.88923
1.88923
1.89604
1.89604
1.90247
1.90247
1.90853
1.90853
1.91425
1.91425
1.91964
1.91964
1.92473
1.92473
1.92953
1.92953
1.93406
1.93406
1.93834
1.93834
1.94237
1.94237
1.94617
1.94617
1.94976
1.94976
1.95314
1.95314
1.95633
1.95633
1.95935
1.95935
1.96219
1.96219
1.96487
1.96487
1.9674
1.9674
1.96978
1.96978
1.97203
1.97203
1.97416
1.97416
1.97616
1.97616
1.97805
1.97805
1.97983
1.97983
1.98151
1.98151
1.9831
1.9831
1.98459
1.98459
1.98601
1.98601
1.98734
1.98734
1.98859
1.98859
1.98978
1.98978
1.9909
1.9909
1.99195
1.99195
1.99295
1.99295
1.99389
1.99389
1.99477
1.99477
1.99561
1.99561
1.99639
1.99639
1.99714
1.99714
1.99784
1.99784
1.9985
1.9985
1.99913
1.99913
1.99971
1.99971
)
;

boundaryField
{
    walls
    {
        type            calculated;
        value           nonuniform List<scalar> 8(0 0 0 0 2 2 2 2);
    }
    inlet
    {
        type            cyclic;
    }
    outlet
    {
        type            cyclic;
    }
    sides
    {
        type            empty;
    }
}


// ************************************************************************* //
