/*--------------------------------*- C++ -*----------------------------------*\
| =========                 |                                                 |
| \\      /  F ield         | OpenFOAM: The Open Source CFD Toolbox           |
|  \\    /   O peration     | Version:  2012                                  |
|   \\  /    A nd           | Website:  www.openfoam.com                      |
|    \\/     M anipulation  |                                                 |
\*---------------------------------------------------------------------------*/
FoamFile
{
    version     2.0;
    format      ascii;
    class       volVectorField;
    location    "11000";
    object      C;
}
// * * * * * * * * * * * * * * * * * * * * * * * * * * * * * * * * * * * * * //

dimensions      [0 1 0 0 0 0 0];


internalField   nonuniform List<vector> 
40
(
(0.025 0.00342971 0.025)
(0.075 0.00342971 0.025)
(0.025 0.0177051 0.025)
(0.075 0.0177051 0.025)
(0.025 0.0628479 0.025)
(0.075 0.0628479 0.025)
(0.025 0.205602 0.025)
(0.075 0.205602 0.025)
(0.025 0.657029 0.025)
(0.075 0.657029 0.025)
(0.025 0.00342971 0.075)
(0.075 0.00342971 0.075)
(0.025 0.0177051 0.075)
(0.075 0.0177051 0.075)
(0.025 0.0628479 0.075)
(0.075 0.0628479 0.075)
(0.025 0.205602 0.075)
(0.075 0.205602 0.075)
(0.025 0.657029 0.075)
(0.075 0.657029 0.075)
(0.025 1.34297 0.025)
(0.075 1.34297 0.025)
(0.025 1.7944 0.025)
(0.075 1.7944 0.025)
(0.025 1.93715 0.025)
(0.075 1.93715 0.025)
(0.025 1.98229 0.025)
(0.075 1.98229 0.025)
(0.025 1.99657 0.025)
(0.075 1.99657 0.025)
(0.025 1.34297 0.075)
(0.075 1.34297 0.075)
(0.025 1.7944 0.075)
(0.075 1.7944 0.075)
(0.025 1.93715 0.075)
(0.075 1.93715 0.075)
(0.025 1.98229 0.075)
(0.075 1.98229 0.075)
(0.025 1.99657 0.075)
(0.075 1.99657 0.075)
)
;

boundaryField
{
    walls
    {
        type            calculated;
        value           nonuniform List<vector> 8((0.025 0 0.025) (0.025 0 0.075) (0.075 0 0.025) (0.075 0 0.075) (0.025 2 0.025) (0.025 2 0.075) (0.075 2 0.025) (0.075 2 0.075));
    }
    inlet
    {
        type            cyclic;
    }
    outlet
    {
        type            cyclic;
    }
    sides
    {
        type            empty;
    }
}


// ************************************************************************* //
