/*--------------------------------*- C++ -*----------------------------------*\
| =========                 |                                                 |
| \\      /  F ield         | OpenFOAM: The Open Source CFD Toolbox           |
|  \\    /   O peration     | Version:  2012                                  |
|   \\  /    A nd           | Website:  www.openfoam.com                      |
|    \\/     M anipulation  |                                                 |
\*---------------------------------------------------------------------------*/
FoamFile
{
    version     2.0;
    format      ascii;
    class       surfaceScalarField;
    location    "11000";
    object      phi;
}
// * * * * * * * * * * * * * * * * * * * * * * * * * * * * * * * * * * * * * //

dimensions      [0 3 -1 0 0 0 0];
oriented        oriented;


internalField   nonuniform List<scalar> 
76
(
8.28029e-05
1.28404e-17
9.57621e-19
1.65796e-18
1.61939e-19
0.000807704
8.57483e-18
1.22438e-18
4.6363e-18
9.91764e-20
0.00307871
5.03128e-18
2.05942e-18
4.55975e-18
1.4735e-18
0.0104889
3.28689e-18
9.9868e-19
3.2514e-18
1.09168e-18
0.0355418
-5.04636e-18
1.84578e-19
-3.54667e-18
1.82213e-19
8.28029e-05
7.3333e-19
3.92674e-19
0.000807704
1.64906e-18
1.01036e-18
0.00307871
3.0521e-18
2.85328e-18
0.0104889
3.05379e-18
3.07826e-18
0.0355418
2.39252e-19
2.24546e-19
0.0355418
-1.10298e-20
2.16181e-19
6.83948e-21
-9.35706e-19
0.0104889
7.45995e-20
-3.83865e-19
8.44712e-20
-1.85036e-19
0.00307871
-7.52169e-20
-8.47162e-20
-1.15161e-20
1.19701e-20
0.000807704
-2.55313e-20
-5.04092e-20
-1.2058e-20
-1.8339e-20
8.28029e-05
-1.36946e-20
-6.89134e-21
0.0355418
-2.79537e-20
-1.72785e-20
0.0104889
5.75371e-20
4.27845e-20
0.00307871
-7.62295e-20
-6.89899e-20
0.000807704
1.16343e-20
4.41244e-21
8.28029e-05
)
;

boundaryField
{
    walls
    {
        type            calculated;
        value           uniform 0;
    }
    inlet
    {
        type            cyclic;
        value           nonuniform List<scalar> 
20
(
-8.28029e-05
-0.000807704
-0.00307871
-0.0104889
-0.0355418
-8.28029e-05
-0.000807704
-0.00307871
-0.0104889
-0.0355418
-0.0355418
-0.0104889
-0.00307871
-0.000807704
-8.28029e-05
-0.0355418
-0.0104889
-0.00307871
-0.000807704
-8.28029e-05
)
;
    }
    outlet
    {
        type            cyclic;
        value           nonuniform List<scalar> 
20
(
8.28029e-05
0.000807704
0.00307871
0.0104889
0.0355418
8.28029e-05
0.000807704
0.00307871
0.0104889
0.0355418
0.0355418
0.0104889
0.00307871
0.000807704
8.28029e-05
0.0355418
0.0104889
0.00307871
0.000807704
8.28029e-05
)
;
    }
    sides
    {
        type            empty;
        value           nonuniform List<scalar> 0();
    }
}


// ************************************************************************* //
