/*--------------------------------*- C++ -*----------------------------------*\
| =========                 |                                                 |
| \\      /  F ield         | OpenFOAM: The Open Source CFD Toolbox           |
|  \\    /   O peration     | Version:  2012                                  |
|   \\  /    A nd           | Website:  www.openfoam.com                      |
|    \\/     M anipulation  |                                                 |
\*---------------------------------------------------------------------------*/
FoamFile
{
    version     2.0;
    format      ascii;
    class       volScalarField;
    location    "13000";
    object      k;
}
// * * * * * * * * * * * * * * * * * * * * * * * * * * * * * * * * * * * * * //

dimensions      [0 2 -2 0 0 0 0];


internalField   nonuniform List<scalar> 
2560
(
0.00147374
0.00147286
0.039869
0.0398476
0.284013
0.283867
0.99713
0.996676
2.24644
2.24561
3.72623
3.72517
5.16331
5.16213
6.48439
6.48314
7.69715
7.69586
8.82339
8.82206
9.88268
9.88132
10.8903
10.8889
11.8579
11.8565
12.7944
12.793
13.707
13.7056
14.6013
14.5999
15.482
15.4805
16.3529
16.3514
17.2175
17.216
18.0786
18.0771
18.9389
18.9373
19.8003
19.7987
20.665
20.6634
21.5347
21.5331
22.4111
22.4094
23.2958
23.2941
24.1902
24.1885
25.0959
25.0942
26.0142
26.0124
26.9464
26.9446
27.8941
27.8922
28.8584
28.8565
29.8409
29.8389
30.8426
30.8406
31.8647
31.8627
32.9083
32.9062
33.9743
33.9722
35.0636
35.0615
36.1774
36.1752
37.3165
37.3142
38.4822
38.4799
39.6758
39.6735
40.8985
40.8961
42.1512
42.1488
43.4346
43.4321
44.7486
44.746
46.092
46.0893
47.4627
47.46
48.8574
48.8546
50.2714
50.2686
51.6987
51.6958
53.1322
53.1292
54.5638
54.5608
55.9858
55.9828
57.3932
57.3901
58.7875
58.7843
60.1811
60.1778
61.5993
61.5958
63.0752
63.0715
64.6393
64.6354
66.2937
66.2897
67.9829
67.9787
69.6033
69.5991
71.0127
71.0085
72.0635
72.0596
72.6418
72.6383
72.6943
72.6912
72.2354
72.2328
71.335
71.333
70.0963
70.0947
68.6313
68.63
67.0432
67.0422
65.4162
65.4153
63.8115
63.8106
62.2683
62.2675
60.8093
60.8085
59.4382
59.4374
58.1495
58.1487
56.9309
56.93
55.7661
55.7653
54.6377
54.637
53.5292
53.5287
52.426
52.4256
51.3158
51.3155
50.1887
50.1887
49.0372
49.0374
47.8556
47.8559
46.6398
46.6403
45.3879
45.3886
44.0998
44.1006
42.7778
42.7787
41.427
41.428
40.0553
40.0563
38.673
38.674
37.2921
37.2932
35.9256
35.9267
34.5855
34.5866
33.2821
33.2831
32.0225
32.0235
30.8108
30.8117
29.6477
29.6486
28.5317
28.5325
27.4597
27.4605
26.4283
26.4291
25.4349
25.4356
24.4776
24.4783
23.5562
23.5569
22.6714
22.672
21.8246
21.8252
21.0174
21.018
20.2511
20.2517
19.5255
19.5261
18.839
18.8396
18.1884
18.1888
17.5686
17.5691
16.9736
16.974
16.3967
16.3971
15.8316
15.8321
15.2737
15.2741
14.7203
14.7207
14.1716
14.172
13.6305
13.6309
13.1018
13.1022
12.5912
12.5916
12.1041
12.1045
11.6441
11.6444
11.2124
11.2127
10.8078
10.808
10.4268
10.4271
10.0651
10.0654
9.7183
9.71852
9.38274
9.38295
9.05628
9.05648
8.73815
8.73834
8.42877
8.42895
8.12927
8.12944
7.84105
7.84122
7.56542
7.56558
7.3034
7.30355
7.0556
7.05574
6.82218
6.82231
6.60293
6.60305
6.39725
6.39736
6.20422
6.20432
6.02266
6.02275
5.85125
5.85133
5.68863
5.68871
5.53358
5.53365
5.38512
5.38519
5.24264
5.2427
5.1059
5.10596
4.97508
4.97514
4.85068
4.85072
4.73343
4.73347
4.62421
4.62424
4.52394
4.52396
4.43347
4.43348
4.35353
4.35352
4.2847
4.28469
4.22739
4.22735
4.18179
4.18174
4.14791
4.14784
4.12555
4.12546
4.1143
4.11419
4.11347
4.11334
4.12211
4.12195
4.1389
4.13872
4.16215
4.16195
4.18976
4.18954
4.21923
4.21899
4.24772
4.24746
4.2722
4.27192
4.28964
4.28936
4.29732
4.29703
4.29308
4.2928
4.27572
4.27546
4.24525
4.24503
4.20308
4.20292
4.15205
4.15195
4.09624
4.0962
4.04042
4.04043
3.98942
3.98946
3.94742
3.94747
3.91725
3.9173
3.89987
3.89991
3.89424
3.89429
3.89756
3.89763
3.90579
3.90589
3.91439
3.91455
3.91897
3.91918
3.91575
3.91599
3.90206
3.90231
3.87642
3.87668
3.83847
3.83873
3.78879
3.78904
3.72866
3.72889
3.65982
3.66004
3.5843
3.5845
3.50423
3.5044
3.42169
3.42184
3.33869
3.33882
3.25705
3.25717
3.17842
3.17852
3.10425
3.10433
3.03578
3.03585
2.97409
2.97415
2.92006
2.92011
2.87441
2.87445
2.83766
2.83769
2.81015
2.81017
2.79197
2.79198
2.78296
2.78296
2.78262
2.78261
2.79008
2.79007
2.80408
2.80407
2.8229
2.82288
2.84441
2.84439
2.86609
2.86607
2.88515
2.88513
2.89867
2.89864
2.90381
2.90378
2.89805
2.89802
2.87947
2.87945
2.84702
2.84701
2.80075
2.80074
2.74191
2.74191
2.67301
2.67302
2.59752
2.59754
2.51951
2.51953
2.44297
2.443
2.37115
2.37117
2.30622
2.30624
2.24824
2.24825
2.1958
2.19582
2.14662
2.14664
2.09814
2.09817
2.04827
2.0483
1.99583
1.99586
1.94078
1.94081
1.88404
1.88407
1.82719
1.82722
1.77201
1.77204
1.72011
1.72012
1.67262
1.67263
1.63019
1.6302
1.5929
1.59291
1.56054
1.56055
1.53279
1.5328
1.50937
1.50937
1.49012
1.49012
1.47504
1.47505
1.46423
1.46423
1.45774
1.45775
1.45556
1.45556
1.45751
1.45751
1.46323
1.46323
1.47226
1.47226
1.48409
1.48408
1.49823
1.49823
1.51429
1.51429
1.53198
1.53197
1.55114
1.55114
1.57177
1.57177
1.59398
1.59398
1.61797
1.61796
1.64399
1.64399
1.67231
1.67231
1.70317
1.70317
1.73674
1.73674
1.77311
1.77311
1.81229
1.81228
1.85423
1.85423
1.89886
1.89886
1.94612
1.94612
1.99596
1.99596
2.04836
2.04836
2.10332
2.10332
2.16087
2.16087
2.22102
2.22102
2.28382
2.28382
2.34927
2.34927
2.41742
2.41742
2.48825
2.48825
2.56179
2.56179
2.63802
2.63802
2.71696
2.71696
2.79863
2.79863
2.8831
2.8831
2.97049
2.97049
3.06096
3.06096
3.15472
3.15472
3.25199
3.25199
3.35301
3.35301
3.45795
3.45795
3.56697
3.56697
3.68012
3.68012
3.79746
3.79746
3.91902
3.91902
4.04486
4.04486
4.17508
4.17508
4.30984
4.30984
4.44936
4.44936
4.59392
4.59392
4.74384
4.74384
4.89948
4.89948
5.06122
5.06122
5.22942
5.22942
5.40447
5.40447
5.58674
5.58674
5.7766
5.7766
5.97443
5.97443
6.18059
6.18059
6.39543
6.39543
6.61921
6.61921
6.85206
6.85206
7.09368
7.09368
7.34233
7.34233
7.59122
7.59122
7.81319
7.8132
7.79902
7.79902
0.00147286
0.00147374
0.0398477
0.039869
0.283868
0.284013
0.996677
0.997129
2.24562
2.24644
3.72517
3.72623
5.16213
5.16331
6.48314
6.48439
7.69586
7.69715
8.82207
8.82339
9.88132
9.88267
10.8889
10.8903
11.8565
11.8579
12.793
12.7944
13.7056
13.707
14.5999
14.6013
15.4805
15.482
16.3514
16.3529
17.216
17.2175
18.0771
18.0787
18.9373
18.9389
19.7987
19.8003
20.6634
20.665
21.5331
21.5347
22.4095
22.4111
23.2941
23.2958
24.1885
24.1902
25.0942
25.0959
26.0124
26.0142
26.9446
26.9464
27.8922
27.8941
28.8565
28.8584
29.8389
29.8409
30.8406
30.8426
31.8627
31.8647
32.9062
32.9083
33.9722
33.9743
35.0615
35.0636
36.1752
36.1774
37.3142
37.3165
38.4799
38.4822
39.6735
39.6758
40.8961
40.8985
42.1488
42.1512
43.4321
43.4346
44.746
44.7486
46.0893
46.092
47.46
47.4627
48.8546
48.8574
50.2686
50.2714
51.6958
51.6987
53.1292
53.1322
54.5608
54.5638
55.9828
55.9858
57.3901
57.3932
58.7843
58.7875
60.1778
60.1811
61.5958
61.5993
63.0715
63.0752
64.6354
64.6393
66.2897
66.2937
67.9787
67.9829
69.5991
69.6033
71.0085
71.0127
72.0596
72.0635
72.6383
72.6418
72.6913
72.6943
72.2328
72.2354
71.333
71.3351
70.0947
70.0963
68.63
68.6313
67.0422
67.0433
65.4153
65.4162
63.8106
63.8115
62.2675
62.2683
60.8085
60.8093
59.4374
59.4382
58.1487
58.1495
56.93
56.9309
55.7653
55.7661
54.637
54.6377
53.5287
53.5292
52.4256
52.426
51.3155
51.3158
50.1887
50.1887
49.0374
49.0372
47.8559
47.8556
46.6403
46.6398
45.3886
45.3879
44.1006
44.0998
42.7787
42.7778
41.428
41.427
40.0563
40.0553
38.674
38.673
37.2932
37.2922
35.9267
35.9256
34.5866
34.5855
33.2831
33.2821
32.0235
32.0225
30.8117
30.8108
29.6486
29.6477
28.5325
28.5317
27.4605
27.4597
26.4291
26.4283
25.4356
25.4349
24.4783
24.4776
23.5569
23.5562
22.672
22.6714
21.8252
21.8246
21.018
21.0174
20.2517
20.2511
19.5261
19.5255
18.8396
18.839
18.1888
18.1884
17.5691
17.5686
16.974
16.9736
16.3971
16.3967
15.8321
15.8316
15.2741
15.2737
14.7207
14.7203
14.172
14.1716
13.6309
13.6305
13.1022
13.1018
12.5916
12.5912
12.1045
12.1041
11.6444
11.6441
11.2127
11.2124
10.808
10.8078
10.4271
10.4268
10.0654
10.0651
9.71851
9.71829
9.38294
9.38273
9.05646
9.05627
8.73833
8.73814
8.42894
8.42876
8.12943
8.12926
7.8412
7.84103
7.56557
7.56541
7.30354
7.30339
7.05572
7.05558
6.82229
6.82217
6.60303
6.60292
6.39735
6.39724
6.2043
6.2042
6.02274
6.02264
5.85131
5.85123
5.68869
5.68861
5.53363
5.53356
5.38517
5.3851
5.24268
5.24262
5.10594
5.10588
4.97511
4.97506
4.8507
4.85066
4.73344
4.73341
4.62422
4.62419
4.52393
4.52392
4.43345
4.43344
4.35349
4.3535
4.28465
4.28468
4.22732
4.22736
4.1817
4.18176
4.1478
4.14788
4.12542
4.12552
4.11414
4.11426
4.11329
4.11344
4.1219
4.12207
4.13867
4.13886
4.16189
4.16211
4.18948
4.18973
4.21892
4.21919
4.24739
4.24768
4.27186
4.27217
4.2893
4.28962
4.29697
4.29729
4.29274
4.29305
4.27541
4.2757
4.24498
4.24523
4.20287
4.20306
4.1519
4.15203
4.09615
4.09622
4.04039
4.0404
3.98942
3.98939
3.94742
3.94738
3.91724
3.91721
3.89984
3.89982
3.89421
3.89418
3.89754
3.89749
3.90581
3.90571
3.91447
3.91431
3.9191
3.91889
3.91592
3.91567
3.90225
3.90198
3.87662
3.87634
3.83868
3.8384
3.789
3.78873
3.72885
3.7286
3.66
3.65977
3.58447
3.58426
3.50437
3.50419
3.42182
3.42165
3.3388
3.33866
3.25715
3.25702
3.1785
3.17839
3.10431
3.10421
3.03582
3.03574
2.97411
2.97405
2.92006
2.92001
2.87439
2.87435
2.83762
2.8376
2.81009
2.81007
2.79189
2.79188
2.78286
2.78286
2.7825
2.78251
2.78994
2.78996
2.80392
2.80395
2.82273
2.82277
2.84423
2.84427
2.86591
2.86596
2.88497
2.88502
2.89849
2.89855
2.90364
2.9037
2.8979
2.89795
2.87934
2.8794
2.84692
2.84697
2.80068
2.80072
2.74188
2.7419
2.67301
2.67301
2.59754
2.59753
2.51954
2.51952
2.443
2.44298
2.37117
2.37114
2.30622
2.30619
2.24821
2.24819
2.19576
2.19574
2.14658
2.14656
2.09811
2.09809
2.04826
2.04822
1.99584
1.9958
1.94081
1.94077
1.88409
1.88405
1.82725
1.82721
1.77207
1.77204
1.72016
1.72013
1.67266
1.67264
1.63023
1.6302
1.59292
1.59291
1.56056
1.56054
1.5328
1.53279
1.50937
1.50936
1.49011
1.49011
1.47504
1.47503
1.46422
1.46421
1.45772
1.45772
1.45553
1.45553
1.45747
1.45747
1.46318
1.46319
1.47221
1.47221
1.48404
1.48404
1.49819
1.4982
1.51426
1.51426
1.53196
1.53196
1.55113
1.55114
1.57177
1.57178
1.59399
1.59399
1.61798
1.61799
1.64401
1.64401
1.67233
1.67233
1.70319
1.70319
1.73675
1.73676
1.77311
1.77312
1.81228
1.81229
1.85422
1.85423
1.89886
1.89886
1.94611
1.94612
1.99595
1.99596
2.04835
2.04836
2.10331
2.10332
2.16085
2.16086
2.22101
2.22102
2.2838
2.28381
2.34926
2.34927
2.4174
2.41741
2.48823
2.48824
2.56177
2.56178
2.638
2.63801
2.71694
2.71695
2.79861
2.79862
2.88308
2.8831
2.97047
2.97048
3.06094
3.06095
3.1547
3.15472
3.25198
3.25199
3.35299
3.353
3.45793
3.45795
3.56694
3.56696
3.68009
3.68011
3.79743
3.79745
3.91899
3.91901
4.04484
4.04485
4.17506
4.17508
4.30982
4.30984
4.44934
4.44936
4.5939
4.59391
4.74382
4.74384
4.89946
4.89948
5.06119
5.06121
5.22939
5.22941
5.40444
5.40446
5.5867
5.58672
5.77655
5.77657
5.97437
5.97439
6.18052
6.18054
6.39533
6.39535
6.61909
6.6191
6.8519
6.85191
7.09347
7.09348
7.34206
7.34207
7.59087
7.59087
7.8128
7.8128
7.79868
7.79868
7.79906
7.79906
7.81333
7.81333
7.59143
7.59143
7.34253
7.34254
7.09388
7.09388
6.85227
6.85227
6.61942
6.61942
6.39565
6.39565
6.18082
6.18082
5.97465
5.97465
5.77681
5.77681
5.58693
5.58693
5.40466
5.40466
5.2296
5.2296
5.0614
5.0614
4.89968
4.89968
4.74405
4.74405
4.59413
4.59413
4.44957
4.44957
4.31004
4.31004
4.17528
4.17528
4.04506
4.04506
3.91923
3.91923
3.79768
3.79768
3.68035
3.68035
3.56719
3.56719
3.45818
3.45818
3.35324
3.35324
3.25222
3.25223
3.15495
3.15495
3.0612
3.0612
2.97074
2.97074
2.88336
2.88336
2.79888
2.79888
2.7172
2.7172
2.63823
2.63824
2.56198
2.56198
2.48843
2.48844
2.41759
2.41759
2.34944
2.34945
2.28398
2.28398
2.22118
2.22118
2.16102
2.16102
2.10346
2.10346
2.04849
2.04849
1.99608
1.99608
1.94623
1.94623
1.89896
1.89896
1.85432
1.85432
1.81236
1.81236
1.77317
1.77317
1.7368
1.7368
1.70322
1.70322
1.67235
1.67235
1.64401
1.64401
1.61797
1.61797
1.59396
1.59396
1.57174
1.57174
1.5511
1.5511
1.5319
1.5319
1.51416
1.51417
1.49806
1.49807
1.48389
1.48389
1.47203
1.47203
1.46299
1.46299
1.45726
1.45726
1.45529
1.45529
1.45745
1.45745
1.46391
1.4639
1.47469
1.47468
1.48972
1.48972
1.50893
1.50893
1.53233
1.53233
1.56006
1.56005
1.5924
1.59239
1.62968
1.62967
1.67209
1.67208
1.71956
1.71954
1.77147
1.77144
1.82666
1.82664
1.88356
1.88353
1.94035
1.94032
1.99546
1.99543
2.04794
2.04791
2.09786
2.09783
2.14638
2.14636
2.1956
2.19558
2.24805
2.24803
2.30606
2.30604
2.37102
2.371
2.44287
2.44284
2.51944
2.51942
2.59749
2.59747
2.67305
2.67304
2.74203
2.74204
2.8009
2.80091
2.84716
2.84718
2.87958
2.87961
2.89812
2.89815
2.90385
2.90388
2.8987
2.89873
2.88519
2.88522
2.86614
2.86617
2.84447
2.8445
2.82297
2.82299
2.80414
2.80415
2.79013
2.79014
2.78265
2.78266
2.78299
2.78298
2.79199
2.79198
2.81017
2.81015
2.83767
2.83765
2.87441
2.87438
2.92006
2.92001
2.97408
2.97402
3.03577
3.0357
3.10423
3.10415
3.1784
3.1783
3.25703
3.25691
3.33867
3.33853
3.42168
3.42152
3.50424
3.50406
3.58434
3.58414
3.65987
3.65965
3.7287
3.72846
3.78884
3.78859
3.83854
3.83827
3.87648
3.87621
3.90208
3.90181
3.9157
3.91545
3.9188
3.91859
3.9141
3.91394
3.90543
3.90531
3.89716
3.89709
3.89383
3.89378
3.89945
3.89941
3.91684
3.91679
3.94701
3.94696
3.98902
3.98898
4.04
4.03999
4.09578
4.09582
4.15154
4.15165
4.20251
4.20268
4.24465
4.24488
4.27514
4.2754
4.29252
4.2928
4.29674
4.29703
4.28903
4.28932
4.27156
4.27184
4.24707
4.24734
4.21858
4.21883
4.18912
4.18935
4.16152
4.16173
4.13827
4.13845
4.12148
4.12164
4.11284
4.11298
4.11366
4.11377
4.12491
4.125
4.14725
4.14732
4.18111
4.18117
4.2267
4.22673
4.28399
4.28401
4.35278
4.35279
4.43269
4.43268
4.52312
4.5231
4.62335
4.62332
4.73251
4.73247
4.8497
4.84965
4.97403
4.97397
5.10476
5.1047
5.24139
5.24132
5.38376
5.38369
5.5321
5.53203
5.68704
5.68696
5.84954
5.84945
6.02083
6.02073
6.20228
6.20218
6.39522
6.39511
6.60081
6.60068
6.81995
6.81981
7.05326
7.05311
7.30097
7.30081
7.56288
7.56272
7.83838
7.8382
8.12644
8.12625
8.42572
8.42553
8.73484
8.73464
9.0527
9.0525
9.3789
9.37868
9.71416
9.71393
10.0607
10.0605
10.4222
10.422
10.8029
10.8027
11.2073
11.207
11.6387
11.6384
12.0985
12.0981
12.5853
12.5849
13.0956
13.0952
13.624
13.6236
14.1648
14.1644
14.7131
14.7127
15.2662
15.2658
15.8238
15.8233
16.3885
16.388
16.965
16.9646
17.5597
17.5592
18.179
18.1785
18.8293
18.8287
19.5153
19.5147
20.2404
20.2398
21.0061
21.0055
21.8128
21.8121
22.659
22.6583
23.5433
23.5426
24.4641
24.4634
25.4208
25.42
26.4136
26.4128
27.4443
27.4435
28.5157
28.5148
29.6311
29.6301
30.7935
30.7925
32.0046
32.0035
33.2634
33.2624
34.5662
34.5651
35.9055
35.9044
37.2712
37.2701
38.6513
38.6502
40.033
40.0319
41.4043
41.4032
42.7546
42.7537
44.0761
44.0753
45.3635
45.3628
46.6144
46.6138
47.8289
47.8286
49.0094
49.0092
50.1596
50.1596
51.2853
51.2855
52.3941
52.3945
53.4959
53.4965
54.603
54.6037
55.7299
55.7307
56.8934
56.8942
58.1107
58.1116
59.3982
59.399
60.7681
60.7689
62.2258
62.2267
63.7676
63.7685
65.3711
65.372
66.9969
66.998
68.5836
68.585
70.0473
70.049
71.2854
71.2875
72.1858
72.1884
72.6448
72.648
72.5926
72.5962
72.0146
72.0186
70.9639
70.9681
69.5548
69.5591
67.9349
67.9392
66.2471
66.2512
64.5937
64.5976
63.0306
63.0343
61.5556
61.5591
60.1385
60.1419
58.746
58.7493
57.353
57.3561
55.9469
55.95
54.5263
54.5294
53.0963
53.0992
51.664
51.667
50.2378
50.2407
48.8249
48.8277
47.4313
47.4341
46.0617
46.0644
44.7192
44.7219
43.4063
43.4089
42.1238
42.1264
40.872
40.8744
39.6502
39.6526
38.4574
38.4597
37.2925
37.2948
36.1541
36.1563
35.0411
35.0433
33.9524
33.9546
32.8871
32.8892
31.8441
31.8462
30.8226
30.8246
29.8215
29.8235
28.8396
28.8416
27.8758
27.8777
26.9287
26.9306
25.997
25.9989
25.0794
25.0811
24.1743
24.176
23.2804
23.2821
22.3962
22.3979
21.5203
21.522
20.6511
20.6527
19.7869
19.7885
18.9259
18.9275
18.0662
18.0678
17.2056
17.2071
16.3415
16.343
15.471
15.4725
14.5908
14.5923
13.6971
13.6985
12.785
12.7864
11.8489
11.8503
10.8818
10.8833
9.87479
9.87617
8.81608
8.81744
7.69045
7.69178
6.47836
6.47964
5.15804
5.15925
3.72188
3.72297
2.24335
2.24419
0.995543
0.996009
0.28353
0.283679
0.0397997
0.0398216
0.00147119
0.0014721
7.79873
7.79873
7.81295
7.81294
7.5911
7.5911
7.34227
7.34228
7.09368
7.09369
6.85212
6.85214
6.61931
6.61932
6.39556
6.39558
6.18075
6.18077
5.97459
5.97461
5.77676
5.77678
5.5869
5.58691
5.40463
5.40464
5.22957
5.22959
5.06138
5.06139
4.89966
4.89967
4.74403
4.74404
4.59411
4.59413
4.44955
4.44956
4.31002
4.31003
4.17525
4.17527
4.04504
4.04505
3.91921
3.91922
3.79766
3.79767
3.68032
3.68033
3.56717
3.56718
3.45816
3.45817
3.35322
3.35323
3.25221
3.25222
3.15494
3.15495
3.06119
3.0612
2.97073
2.97074
2.88334
2.88336
2.79887
2.79888
2.71718
2.71719
2.63822
2.63823
2.56196
2.56197
2.48842
2.48843
2.41757
2.41758
2.34943
2.34944
2.28396
2.28397
2.22117
2.22117
2.161
2.16101
2.10345
2.10346
2.04848
2.04849
1.99607
1.99608
1.94623
1.94623
1.89896
1.89896
1.85431
1.85432
1.81236
1.81237
1.77318
1.77319
1.73681
1.73681
1.70323
1.70324
1.67237
1.67237
1.64403
1.64404
1.61799
1.61799
1.59398
1.59398
1.57175
1.57175
1.55109
1.5511
1.53189
1.53189
1.51414
1.51415
1.49803
1.49804
1.48385
1.48385
1.472
1.472
1.46295
1.46296
1.45723
1.45723
1.45526
1.45527
1.45743
1.45743
1.4639
1.4639
1.47469
1.47469
1.48973
1.48973
1.50895
1.50894
1.53235
1.53235
1.56008
1.56008
1.59243
1.59243
1.62971
1.62971
1.67214
1.67214
1.71961
1.71961
1.77152
1.77152
1.82672
1.82672
1.8836
1.8836
1.94038
1.94038
1.99548
1.99548
2.04794
2.04795
2.09785
2.09786
2.14637
2.14638
2.19559
2.1956
2.24806
2.24806
2.30609
2.30609
2.37106
2.37107
2.44292
2.44293
2.5195
2.51951
2.59756
2.59757
2.67311
2.67312
2.74209
2.74209
2.80094
2.80093
2.84717
2.84717
2.87957
2.87957
2.89809
2.89808
2.9038
2.90379
2.89863
2.89862
2.88511
2.8851
2.86606
2.86605
2.84438
2.84438
2.82288
2.82287
2.80405
2.80404
2.79004
2.79004
2.78257
2.78257
2.78291
2.78292
2.79192
2.79193
2.81009
2.81011
2.8376
2.83763
2.87435
2.87438
2.91999
2.92003
2.97401
2.97406
3.03569
3.03575
3.10415
3.10422
3.1783
3.17839
3.25692
3.25702
3.33854
3.33865
3.42153
3.42166
3.50407
3.50422
3.58414
3.58431
3.65965
3.65984
3.72846
3.72867
3.78858
3.7888
3.83825
3.83849
3.87619
3.87642
3.90179
3.90202
3.91542
3.91563
3.91855
3.91873
3.9139
3.91404
3.90527
3.90536
3.89705
3.89711
3.89374
3.89378
3.89938
3.89941
3.91677
3.91681
3.94694
3.94699
3.98897
3.989
4.03998
4.03999
4.09582
4.09577
4.15164
4.15153
4.20267
4.20251
4.24486
4.24465
4.27538
4.27514
4.29277
4.29251
4.297
4.29672
4.28928
4.28901
4.2718
4.27154
4.2473
4.24705
4.21879
4.21856
4.18931
4.1891
4.16168
4.16149
4.13841
4.13825
4.1216
4.12146
4.11294
4.11282
4.11374
4.11364
4.12496
4.12488
4.14729
4.14723
4.18114
4.18109
4.2267
4.22668
4.28398
4.28397
4.35276
4.35276
4.43265
4.43267
4.52308
4.5231
4.6233
4.62333
4.73245
4.7325
4.84963
4.84968
4.97396
4.97401
5.10468
5.10474
5.2413
5.24137
5.38367
5.38374
5.53201
5.53209
5.68694
5.68702
5.84943
5.84952
6.02072
6.02081
6.20216
6.20227
6.3951
6.39521
6.60067
6.60079
6.8198
6.81993
7.0531
7.05325
7.3008
7.30096
7.56271
7.56287
7.83819
7.83837
8.12624
8.12643
8.42552
8.42571
8.73463
8.73483
9.05249
9.05269
9.37868
9.37889
9.71393
9.71415
10.0605
10.0607
10.4219
10.4222
10.8027
10.8029
11.207
11.2073
11.6384
11.6387
12.0981
12.0985
12.5849
12.5853
13.0952
13.0956
13.6236
13.624
14.1644
14.1648
14.7127
14.7131
15.2658
15.2662
15.8233
15.8238
16.388
16.3885
16.9646
16.965
17.5592
17.5597
18.1785
18.1791
18.8287
18.8293
19.5147
19.5153
20.2398
20.2404
21.0055
21.0061
21.8121
21.8128
22.6583
22.659
23.5426
23.5433
24.4634
24.4641
25.42
25.4208
26.4128
26.4136
27.4435
27.4443
28.5148
28.5157
29.6302
29.6311
30.7926
30.7935
32.0036
32.0046
33.2624
33.2634
34.5651
34.5662
35.9044
35.9055
37.2701
37.2712
38.6502
38.6513
40.032
40.033
41.4033
41.4043
42.7537
42.7546
44.0753
44.0761
45.3628
45.3635
46.6139
46.6144
47.8286
47.829
49.0092
49.0094
50.1596
50.1596
51.2855
51.2853
52.3945
52.3941
53.4965
53.4959
54.6037
54.603
55.7307
55.7299
56.8943
56.8934
58.1116
58.1108
59.3991
59.3982
60.769
60.7681
62.2267
62.2259
63.7685
63.7677
65.3721
65.3712
66.9981
66.997
68.585
68.5837
70.0491
70.0474
71.2876
71.2855
72.1884
72.1858
72.648
72.6449
72.5963
72.5927
72.0186
72.0146
70.9682
70.9639
69.5591
69.5548
67.9392
67.935
66.2513
66.2471
64.5977
64.5937
63.0344
63.0306
61.5592
61.5556
60.1419
60.1385
58.7493
58.7461
57.3562
57.353
55.95
55.9469
54.5294
54.5264
53.0993
53.0963
51.667
51.6641
50.2407
50.2378
48.8277
48.8249
47.4341
47.4313
46.0644
46.0617
44.7219
44.7193
43.4089
43.4063
42.1264
42.1239
40.8745
40.872
39.6526
39.6502
38.4598
38.4574
37.2948
37.2925
36.1563
36.1541
35.0433
35.0411
33.9546
33.9524
32.8892
32.8871
31.8462
31.8441
30.8246
30.8226
29.8235
29.8215
28.8416
28.8397
27.8777
27.8758
26.9306
26.9288
25.9989
25.9971
25.0812
25.0794
24.176
24.1743
23.2821
23.2804
22.3979
22.3962
21.522
21.5203
20.6528
20.6511
19.7885
19.7869
18.9275
18.926
18.0678
18.0662
17.2071
17.2056
16.343
16.3415
15.4725
15.471
14.5923
14.5909
13.6985
13.6971
12.7864
12.785
11.8504
11.8489
10.8833
10.8819
9.87618
9.87479
8.81744
8.81608
7.69179
7.69046
6.47964
6.47836
5.15925
5.15804
3.72298
3.72189
2.2442
2.24335
0.99601
0.995544
0.283679
0.28353
0.0398216
0.0397997
0.0014721
0.00147119
)
;

boundaryField
{
    walls
    {
        type            kqRWallFunction;
        value           nonuniform List<scalar> 8(0.00147374 0.00147286 0.00147286 0.00147374 0.00147119 0.0014721 0.0014721 0.00147119);
    }
    inlet
    {
        type            cyclic;
    }
    outlet
    {
        type            cyclic;
    }
    sides
    {
        type            empty;
    }
}


// ************************************************************************* //
