/*--------------------------------*- C++ -*----------------------------------*\
| =========                 |                                                 |
| \\      /  F ield         | OpenFOAM: The Open Source CFD Toolbox           |
|  \\    /   O peration     | Version:  2012                                  |
|   \\  /    A nd           | Website:  www.openfoam.com                      |
|    \\/     M anipulation  |                                                 |
\*---------------------------------------------------------------------------*/
FoamFile
{
    version     2.0;
    format      ascii;
    class       volSymmTensorField;
    location    "13000";
    object      turbulenceProperties:R;
}
// * * * * * * * * * * * * * * * * * * * * * * * * * * * * * * * * * * * * * //

dimensions      [0 2 -2 0 0 0 0];


internalField   nonuniform List<symmTensor> 
2560
(
(0.000982493 -2.82003e-07 -4.09292e-10 0.000982493 -1.9597e-09 0.000982493)
(0.000981907 -2.81639e-07 -4.09047e-10 0.000981907 1.58329e-13 0.000981907)
(0.0265793 -4.3642e-05 -1.91198e-07 0.0265793 -8.11777e-12 0.0265793)
(0.0265651 -4.35885e-05 -1.91095e-07 0.026565 1.65947e-11 0.0265651)
(0.189342 -0.000918706 -5.50196e-06 0.189342 6.38575e-07 0.189342)
(0.189245 -0.000917618 -5.49556e-06 0.189245 5.08701e-12 0.189245)
(0.664753 -0.00694511 -4.21971e-05 0.664755 1.54897e-05 0.664752)
(0.664451 -0.00693749 -4.21521e-05 0.664449 3.12106e-11 0.664451)
(1.49762 -0.0278996 -0.000171966 1.49763 6.37109e-05 1.49762)
(1.49708 -0.0278732 -0.00017181 1.49707 6.94656e-10 1.49708)
(2.48415 -0.0708689 -0.000442932 2.48416 0.000105427 2.48415)
(2.48345 -0.0708138 -0.000442605 2.48344 6.24873e-10 2.48345)
(3.44221 -0.133712 -0.000847127 3.44221 0.000108565 3.4422)
(3.44142 -0.133628 -0.00084663 3.44141 -4.43965e-10 3.44142)
(4.32292 -0.211064 -0.00135543 4.32293 9.46986e-05 4.32292)
(4.3221 -0.210958 -0.00135481 4.32208 -1.22369e-09 4.3221)
(5.13143 -0.298773 -0.00194633 5.13144 7.9707e-05 5.13143)
(5.13058 -0.298656 -0.00194564 5.13057 -2.47788e-09 5.13058)
(5.88226 -0.394563 -0.00260949 5.88227 6.7388e-05 5.88226)
(5.88138 -0.394446 -0.0026088 5.88137 -3.20978e-09 5.88138)
(6.58845 -0.496995 -0.00333519 6.58846 5.77545e-05 6.58845)
(6.58755 -0.496888 -0.00333457 6.58754 -5.22413e-09 6.58755)
(7.26019 -0.604838 -0.00411876 7.2602 5.02079e-05 7.26019)
(7.25928 -0.60475 -0.00411827 7.25926 -1.17063e-09 7.25928)
(7.90525 -0.71766 -0.00496107 7.90526 4.42704e-05 7.90525)
(7.9044 -0.717598 -0.00496075 7.90417 -4.3066e-07 7.9044)
(8.52963 -0.834759 -0.00585345 8.52964 3.88414e-05 8.52963)
(8.52869 -0.834728 -0.00585333 8.52869 -6.3845e-09 8.52869)
(9.13802 -0.954239 -0.00678172 9.13804 3.53349e-05 9.13802)
(9.13732 -0.954239 -0.00678182 9.13656 4.7099e-07 9.13733)
(9.73421 -1.07388 -0.00773181 9.73423 2.96299e-05 9.73421)
(9.73325 -1.07392 -0.00773212 9.73325 -3.34067e-08 9.73325)
(10.3213 -1.19196 -0.00869445 10.3213 2.86078e-05 10.3213)
(10.3204 -1.19202 -0.00869497 10.3203 8.3526e-07 10.3204)
(10.9019 -1.30918 -0.00968978 10.902 2.20113e-05 10.9019)
(10.9009 -1.30926 -0.00969046 10.9009 -1.31269e-08 10.901)
(11.4783 -1.43043 -0.0107687 11.4783 2.73498e-05 11.4783)
(11.4773 -1.43054 -0.0107695 11.4773 3.02421e-08 11.4773)
(12.0524 -1.56156 -0.0119677 12.0524 1.59914e-05 12.0524)
(12.0514 -1.56167 -0.0119685 12.0514 -2.15856e-09 12.0514)
(12.6259 -1.70401 -0.0132776 12.6259 2.802e-05 12.6259)
(12.6249 -1.70413 -0.0132785 12.6249 4.71819e-08 12.6249)
(13.2002 -1.85443 -0.014666 13.2002 1.04192e-05 13.2002)
(13.1992 -1.85455 -0.0146668 13.1992 4.27601e-09 13.1992)
(13.7767 -2.00894 -0.0161139 13.7767 2.81988e-05 13.7767)
(13.7756 -2.00905 -0.0161147 13.7756 -2.17105e-06 13.7756)
(14.3565 -2.16612 -0.0176236 14.3565 2.65254e-06 14.3565)
(14.3554 -2.16622 -0.0176244 14.3554 -4.92828e-08 14.3554)
(14.9407 -2.32616 -0.0191993 14.9407 3.29596e-05 14.9407)
(14.9396 -2.32625 -0.0192 14.9396 1.34867e-07 14.9396)
(15.5305 -2.48864 -0.0208332 15.5306 -8.11392e-06 15.5305)
(15.5294 -2.48872 -0.0208337 15.5294 -1.21869e-07 15.5294)
(16.1268 -2.65166 -0.0225051 16.1268 3.92603e-05 16.1268)
(16.1257 -2.65173 -0.0225056 16.1257 1.50635e-06 16.1257)
(16.7306 -2.81243 -0.0241908 16.7306 -1.81566e-05 16.7306)
(16.7294 -2.81248 -0.0241911 16.7294 -9.82957e-08 16.7294)
(17.3428 -2.96857 -0.0258748 17.3428 4.45791e-05 17.3428)
(17.3416 -2.96861 -0.025875 17.3416 -4.67594e-08 17.3416)
(17.9643 -3.1203 -0.0275755 17.9643 -2.72744e-05 17.9643)
(17.9631 -3.12032 -0.0275755 17.9631 -2.37538e-08 17.9631)
(18.596 -3.27291 -0.0293665 18.596 5.08723e-05 18.596)
(18.5948 -3.2729 -0.0293663 18.5948 1.88568e-07 18.5948)
(19.2389 -3.43717 -0.0313681 19.239 -3.70848e-05 19.2389)
(19.2377 -3.43713 -0.0313676 19.2377 3.97372e-08 19.2377)
(19.8939 -3.62602 -0.0337032 19.8939 5.8415e-05 19.8939)
(19.8926 -3.62595 -0.0337024 19.8926 2.54991e-07 19.8926)
(20.5617 -3.849 -0.036443 20.5618 -4.76414e-05 20.5617)
(20.5604 -3.84889 -0.0364418 20.5604 2.84564e-08 20.5604)
(21.2432 -4.10783 -0.0395769 21.2431 6.81177e-05 21.2432)
(21.2418 -4.10768 -0.0395753 21.2418 -4.77123e-06 21.2418)
(21.9388 -4.39565 -0.0430174 21.939 -6.41409e-05 21.9388)
(21.9375 -4.39547 -0.0430155 21.9375 -1.1682e-07 21.9375)
(22.6496 -4.69937 -0.0466298 22.6495 8.59169e-05 22.6496)
(22.6481 -4.69915 -0.0466276 22.6481 -1.83407e-05 22.6481)
(23.3757 -5.00381 -0.050273 23.3759 -0.000106627 23.3757)
(23.3743 -5.00358 -0.0502706 23.3743 -3.99155e-07 23.3743)
(24.1183 -5.29655 -0.0538495 24.1181 0.000144419 24.1183)
(24.1168 -5.29629 -0.0538468 24.1168 -8.3467e-06 24.1168)
(24.8776 -5.57327 -0.0573674 24.8778 -0.000183098 24.8776)
(24.8762 -5.57298 -0.0573643 24.8762 -5.4993e-07 24.8762)
(25.6549 -5.84383 -0.0610119 25.6547 0.00023263 25.6549)
(25.6533 -5.84348 -0.0610081 25.6533 6.29934e-06 25.6533)
(26.4505 -6.13717 -0.0651961 26.4507 -0.000271356 26.4505)
(26.449 -6.13674 -0.0651912 26.449 -4.89926e-07 26.449)
(27.2657 -6.50143 -0.0705406 27.2655 0.000317816 27.2657)
(27.2641 -6.50089 -0.0705342 27.2641 1.60511e-05 27.2641)
(28.1007 -6.99562 -0.0777462 28.101 -0.000345971 28.1007)
(28.0992 -6.99493 -0.0777379 28.0992 -2.79575e-07 28.0992)
(28.9565 -7.67374 -0.0873987 28.9563 0.000378198 28.9565)
(28.9547 -7.67288 -0.0873883 28.9547 6.68341e-06 28.9547)
(29.8323 -8.56852 -0.0998051 29.8326 -0.000403426 29.8323)
(29.8306 -8.56747 -0.0997925 29.8306 -1.95284e-07 29.8307)
(30.7281 -9.68367 -0.114957 30.7278 0.000429909 30.7281)
(30.7262 -9.68245 -0.114942 30.7262 -3.78997e-06 30.7262)
(31.6417 -10.9976 -0.132605 31.6421 -0.000462118 31.6417)
(31.64 -10.9962 -0.132589 31.64 -2.60729e-07 31.64)
(32.5717 -12.4769 -0.152457 32.5714 0.000493346 32.5717)
(32.5698 -12.4754 -0.15244 32.5698 -8.78618e-05 32.5698)
(33.5141 -14.0897 -0.174259 33.5145 -0.000618059 33.5141)
(33.5124 -14.0882 -0.174241 33.5124 -1.56803e-06 33.5124)
(34.4659 -15.7993 -0.197565 34.4655 0.00074483 34.4659)
(34.4639 -15.7979 -0.197549 34.4639 7.05889e-05 34.4639)
(35.4213 -17.5357 -0.221265 35.4217 -0.000810527 35.4213)
(35.4195 -17.5345 -0.221252 35.4195 -2.92451e-06 35.4195)
(36.376 -19.1521 -0.242952 36.3756 0.000845482 36.376)
(36.3739 -19.1513 -0.242945 36.3739 -1.89467e-06 36.3739)
(37.3237 -20.3816 -0.258335 37.3242 -0.000935735 37.3237)
(37.3218 -20.3814 -0.258338 37.3218 -8.17536e-06 37.3218)
(38.2622 -20.8116 -0.260966 38.2619 0.000939127 38.2622)
(38.2601 -20.8124 -0.260983 38.2601 -3.73574e-05 38.2601)
(39.1915 -19.9062 -0.242812 39.192 -0.00108093 39.1915)
(39.1895 -19.9083 -0.242847 39.1895 -1.50499e-05 39.1895)
(40.1208 -17.0936 -0.19568 40.1207 0.00104622 40.1208)
(40.1185 -17.0972 -0.195737 40.1185 -4.98344e-05 40.1185)
(41.066 -11.9086 -0.11346 41.0665 -0.00127255 41.066)
(41.0638 -11.9139 -0.113542 41.0638 -1.62208e-05 41.0639)
(42.0501 -0.000233725 -1.56314e-06 42.0502 0.00119581 42.0501)
(42.0477 -1.28877e-31 -3.13158e-21 42.0477 -2.82178e-05 42.0477)
(43.0928 0.808816 -0.00548797 43.093 -0.00149821 43.0928)
(43.0903 0.792725 -0.00537879 43.0903 -4.82059e-06 43.0903)
(44.1958 17.6149 -0.159337 44.1959 0.00140563 44.1958)
(44.1931 17.6048 -0.159205 44.1931 2.75075e-05 44.1931)
(45.3221 29.8313 -0.333667 45.3217 -0.0017182 45.322)
(45.3191 29.8204 -0.333518 45.3191 1.43966e-05 45.3191)
(46.4022 41.2051 -0.510634 46.4023 0.00165194 46.4022)
(46.3994 41.1942 -0.510477 46.3994 7.70264e-05 46.3994)
(47.342 50.4124 -0.669665 47.3413 -0.00188832 47.342)
(47.339 50.4022 -0.66951 47.339 2.68678e-05 47.339)
(48.0422 56.4496 -0.791943 48.0426 0.0018722 48.0422)
(48.0397 56.4409 -0.791803 48.0397 6.67213e-05 48.0397)
(48.4281 58.8357 -0.864635 48.4274 -0.00197053 48.4281)
(48.4255 58.8292 -0.864522 48.4255 -7.52502e-05 48.4255)
(48.4626 57.6683 -0.8832 48.4634 0.00196719 48.4626)
(48.4608 57.6646 -0.883123 48.4608 -1.94682e-05 48.4608)
(48.1571 53.5252 -0.851442 48.1565 -0.00197481 48.1571)
(48.1552 53.5244 -0.851408 48.1552 -4.03093e-05 48.1552)
(47.5564 47.2573 -0.558747 47.5573 0.00196488 47.5564)
(47.5553 47.2595 -0.558736 47.5553 -8.34658e-06 47.5553)
(46.731 39.7645 -0.218157 46.7305 -0.00193443 46.731)
(46.7298 39.7696 -0.218153 46.7298 -0.000210477 46.7298)
(45.7539 31.8293 0.0649064 45.7547 0.000930049 45.7539)
(45.7533 31.8369 0.0649052 45.7533 -6.89014e-20 45.7533)
(44.6957 24.0306 0.287239 44.6951 -0.000185336 44.6957)
(44.6948 24.0395 0.287235 44.6948 0.000234587 44.6948)
(43.6106 16.735 0.219097 43.6112 0.000178427 43.6106)
(43.6102 16.7442 0.219248 43.6102 -9.31355e-21 43.6102)
(42.5411 10.1374 0.117972 42.5406 -0.00013687 42.5411)
(42.5404 10.1463 0.118117 42.5404 1.54886e-05 42.5404)
(41.5121 3.24638 0.027353 41.5125 0.000139497 41.5121)
(41.5117 3.26261 0.0274897 41.5117 2.83207e-21 41.5117)
(40.5397 -1.33883e-16 -0 40.5393 -0.000103441 40.5397)
(40.539 -0.000304688 2.60454e-06 40.539 1.54763e-05 40.539)
(39.6253 -4.98515 0.0522006 39.6257 0.00010107 39.6253)
(39.6249 -4.97803 0.052073 39.6249 5.26714e-22 39.6249)
(38.7665 -8.51884 0.12086 38.7661 -8.85066e-05 38.7665)
(38.7658 -8.5123 0.120741 38.7658 1.33783e-05 38.7658)
(37.9538 -11.3654 0.178901 37.9541 7.83598e-05 37.9538)
(37.952 -11.3594 0.17879 37.956 3.66935e-05 37.952)
(37.1775 -13.5809 0.226727 37.1772 -6.98891e-05 37.1775)
(37.1768 -13.5756 0.226625 37.1768 1.12578e-05 37.1768)
(36.425 -15.2313 0.195455 36.4253 4.89559e-05 36.425)
(36.4239 -15.2268 0.195452 36.4262 2.50108e-05 36.4239)
(35.6862 -16.3929 0.047841 35.686 -5.72325e-05 35.6862)
(35.6858 -16.3897 0.0478405 35.6858 8.83095e-06 35.6858)
(34.9506 -17.1485 -0.110389 34.9508 1.74098e-05 34.9506)
(34.95 -17.1466 -0.110387 34.9511 1.14283e-05 34.95)
(34.2106 -17.5782 -0.275978 34.2104 -5.01324e-05 34.2106)
(34.2104 -17.5774 -0.275976 34.2104 3.25294e-07 34.2104)
(33.4591 -17.7505 -0.349189 33.4591 2.59699e-05 33.4591)
(33.459 -17.7507 -0.349198 33.4593 8.16149e-06 33.459)
(32.6915 -17.7164 -0.351818 32.6914 -1.47805e-05 32.6915)
(32.6916 -17.7172 -0.351838 32.6916 -1.13585e-23 32.6916)
(31.9037 -17.5056 -0.351079 31.9037 -4.47691e-07 31.9037)
(31.9039 -17.5068 -0.351107 31.904 9.70251e-06 31.9039)
(31.0933 -17.1269 -0.346801 31.0931 -1.35854e-05 31.0933)
(31.0936 -17.1285 -0.346835 31.0936 -6.51268e-07 31.0936)
(30.2586 -16.5725 -0.33851 30.2586 -5.04481e-06 30.2586)
(30.259 -16.5743 -0.338551 30.2592 7.60954e-06 30.259)
(29.3999 -15.8242 -0.325588 29.3998 -1.63315e-05 29.3999)
(29.4004 -15.8262 -0.325633 29.4004 -4.81585e-06 29.4004)
(28.5185 -14.8625 -0.307434 28.5185 -8.66923e-06 28.5185)
(28.5191 -14.8647 -0.307482 28.5193 -1.84519e-06 28.5191)
(27.618 -13.6747 -0.283666 27.618 -1.68828e-05 27.618)
(27.6187 -13.677 -0.283717 27.6187 -9.49857e-06 27.6187)
(26.7035 -12.2631 -0.2543 26.7035 -1.00543e-05 26.7035)
(26.7042 -12.2655 -0.254353 26.7043 -4.55292e-06 26.7042)
(25.782 -10.6503 -0.219849 25.7819 -1.58196e-05 25.782)
(25.7827 -10.6527 -0.219903 25.7827 -9.88633e-06 25.7827)
(24.8614 -8.87983 -0.181321 24.8614 -9.27594e-06 24.8614)
(24.8621 -8.88221 -0.181375 24.8622 -4.64152e-06 24.8621)
(23.9504 -7.01302 -0.140169 23.9504 -1.2614e-05 23.9504)
(23.9511 -7.01531 -0.140221 23.9511 -7.933e-06 23.9511)
(23.057 -5.12514 -0.0982074 23.057 -6.31896e-06 23.057)
(23.0577 -5.1273 -0.0982563 23.0578 -2.41394e-06 23.0577)
(22.1881 -3.29707 -0.0573588 22.188 -8.06257e-06 22.1881)
(22.1887 -3.29905 -0.0574036 22.1887 -4.34311e-06 22.1887)
(21.3483 -1.60614 -0.0194897 21.3483 -2.22278e-06 21.3483)
(21.349 -1.60791 -0.0195294 21.349 1.83577e-06 21.349)
(20.5405 -2.43e-14 -2.34192e-16 20.5405 -3.43729e-06 20.5405)
(20.5411 -0.000999626 -1.20832e-05 20.5411 -6.3842e-07 20.5411)
(19.7651 1.11057 -0.0136195 19.7651 4.70868e-07 19.7651)
(19.7657 1.10785 -0.0135862 19.7658 2.58495e-06 19.7657)
(19.0211 2.05502 -0.0407068 19.0211 -6.55231e-07 19.0211)
(19.0217 2.05408 -0.0406801 19.0217 1.86019e-06 19.0217)
(18.3064 2.69754 -0.0611166 18.3064 2.41505e-06 18.3064)
(18.307 2.6969 -0.0610969 18.307 4.3785e-06 18.307)
(17.6189 3.0446 -0.0744568 17.6189 5.53727e-07 17.6189)
(17.6194 3.04426 -0.0744444 17.6194 2.67091e-06 17.6194)
(16.9566 3.11634 -0.0807644 16.9566 2.5523e-06 16.9566)
(16.9571 3.11628 -0.0807593 16.9571 4.04772e-06 16.9571)
(16.3184 2.94342 -0.0804084 16.3184 5.24522e-07 16.3184)
(16.3189 2.94362 -0.0804104 16.3189 2.29447e-06 16.3189)
(15.7041 2.56325 -0.0740226 15.7041 1.87863e-06 15.7041)
(15.7046 2.56368 -0.0740312 15.7046 3.03809e-06 15.7046)
(15.1142 2.01602 -0.0624082 15.1142 1.375e-08 15.1142)
(15.1147 2.01664 -0.0624226 15.1147 1.46125e-06 15.1147)
(14.5497 1.34217 -0.0464465 14.5497 9.97496e-07 14.5497)
(14.5501 1.34294 -0.0464658 14.5502 1.908e-06 14.5501)
(14.0116 0.374772 -0.0270623 14.0116 -6.14914e-07 14.0116)
(14.012 0.376593 -0.0270852 14.012 5.49683e-07 14.012)
(13.5007 -0.000554099 -0.0183913 13.5007 -4.36964e-11 13.5007)
(13.5011 -4.62718e-16 -0.0183651 13.5011 7.00455e-07 13.5011)
(13.017 -1.05437 -0.0425646 13.017 -1.54715e-06 13.017)
(13.0174 -1.05348 -0.0425393 13.0174 -5.90917e-07 13.0174)
(12.5594 -1.85656 -0.0662556 12.5594 -1.32215e-06 12.5594)
(12.5597 -1.85573 -0.0662328 12.5597 -7.90052e-07 12.5597)
(12.1256 -2.60118 -0.0883674 12.1256 -3.02864e-06 12.1256)
(12.1259 -2.60048 -0.0883483 12.1259 -2.21748e-06 12.1259)
(11.7124 -3.25306 -0.107763 11.7124 -3.20507e-06 11.7124)
(11.7127 -3.25251 -0.107749 11.7127 -2.83835e-06 11.7127)
(11.3157 -3.77853 -0.123319 11.3157 -4.83569e-06 11.3157)
(11.316 -3.77816 -0.12331 11.316 -4.19324e-06 11.316)
(10.9311 -4.14724 -0.133977 10.9311 -5.24791e-06 10.9311)
(10.9314 -4.14706 -0.133974 10.9314 -4.9868e-06 10.9314)
(10.5544 -4.33462 -0.138854 10.5544 -6.83109e-06 10.5544)
(10.5547 -4.33463 -0.138858 10.5547 -6.30754e-06 10.5547)
(10.1825 -4.32502 -0.137354 10.1825 -7.40207e-06 10.1825)
(10.1827 -4.32521 -0.137363 10.1828 -7.20096e-06 10.1827)
(9.81354 -4.11463 -0.129277 9.81353 -9.0445e-06 9.81354)
(9.81381 -4.11497 -0.12929 9.81381 -8.60531e-06 9.81381)
(9.44775 -3.71321 -0.114879 9.44775 -1.0001e-05 9.44775)
(9.44802 -3.71367 -0.114896 9.44802 -9.88099e-06 9.44802)
(9.08701 -3.14462 -0.0949216 9.087 -1.21549e-05 9.08701)
(9.08727 -3.14517 -0.094941 9.08727 -1.17389e-05 9.08727)
(8.73453 -2.44566 -0.0706195 8.73453 -1.39208e-05 8.73453)
(8.73478 -2.44625 -0.0706403 8.73478 -1.39363e-05 8.73478)
(8.39416 -1.6628 -0.0435445 8.39415 -1.71088e-05 8.39416)
(8.3944 -1.6634 -0.0435655 8.3944 -1.66505e-05 8.3944)
(8.06941 -0.84791 -0.015474 8.06941 -2.01325e-05 8.06941)
(8.06964 -0.848501 -0.0154942 8.06964 -2.01266e-05 8.06964)
(7.76273 -4.66782e-05 -8.21238e-07 7.76273 -2.42382e-05 7.76273)
(7.76294 -0.000300291 -5.28319e-06 7.76294 -2.37194e-05 7.76294)
(7.47493 0.65554 -0.011701 7.47493 -2.80914e-05 7.47493)
(7.47512 0.654507 -0.0116826 7.47512 -2.80566e-05 7.47512)
(7.20518 1.29491 -0.0363297 7.20519 -3.23711e-05 7.20518)
(7.20535 1.2945 -0.0363135 7.20535 -3.18661e-05 7.20535)
(6.95122 1.78232 -0.0572055 6.95122 -3.56885e-05 6.95122)
(6.95137 1.782 -0.0571922 6.95139 -3.56245e-05 6.95137)
(6.71009 2.12298 -0.07339 6.71011 -3.84854e-05 6.71009)
(6.71025 2.12275 -0.0733798 6.71025 -3.8202e-05 6.71025)
(6.47886 2.31735 -0.0844141 6.47888 -3.94305e-05 6.47886)
(6.479 2.31721 -0.0844073 6.47903 -3.93371e-05 6.479)
(6.25515 2.37876 -0.0903245 6.25518 -3.87048e-05 6.25515)
(6.25529 2.3787 -0.0903209 6.25531 -3.8585e-05 6.25529)
(6.03751 2.33048 -0.0916323 6.03754 -3.56391e-05 6.03751)
(6.03764 2.3305 -0.0916315 6.03767 -3.53196e-05 6.03764)
(5.82543 2.20197 -0.0892053 5.82545 -3.01971e-05 5.82543)
(5.82555 2.20203 -0.0892069 5.82558 -2.99636e-05 5.82555)
(5.61917 2.02502 -0.0841329 5.61919 -2.31935e-05 5.61917)
(5.61929 2.02511 -0.0841362 5.61932 -2.22385e-05 5.61929)
(5.41951 1.83009 -0.0775915 5.41952 -1.39803e-05 5.41951)
(5.41963 1.8302 -0.0775956 5.41964 -1.29364e-05 5.41963)
(5.22737 1.64309 -0.0707 5.22737 -2.85951e-07 5.22737)
(5.22748 1.64319 -0.0707042 5.22748 1.42196e-06 5.22748)
(5.04362 1.48332 -0.0643942 5.04361 2.96096e-06 5.04362)
(5.04372 1.4834 -0.0643979 5.04372 4.1281e-06 5.04372)
(4.86894 1.36287 -0.0593649 4.86892 1.67848e-05 4.86894)
(4.86904 1.36292 -0.0593677 4.86902 1.77304e-05 4.86904)
(4.70374 1.2868 -0.0560322 4.70371 2.54945e-05 4.70374)
(4.70383 1.28682 -0.0560337 4.70381 2.58746e-05 4.70383)
(4.54813 1.25401 -0.0545488 4.5481 3.16352e-05 4.54813)
(4.54822 1.254 -0.054549 4.54819 3.19039e-05 4.54822)
(4.40197 1.25847 -0.0548256 4.40194 3.5252e-05 4.40197)
(4.40204 1.25843 -0.0548245 4.40202 3.54952e-05 4.40204)
(4.26485 1.29086 -0.0565806 4.26482 3.63275e-05 4.26485)
(4.26492 1.29081 -0.0565785 4.26489 3.66451e-05 4.26492)
(4.13616 1.34009 -0.0594012 4.13613 3.54043e-05 4.13616)
(4.13622 1.34002 -0.0593983 4.1362 3.56772e-05 4.13622)
(4.01511 1.39472 -0.0627986 4.0151 3.25081e-05 4.01511)
(4.01517 1.39465 -0.0627953 4.01516 3.32538e-05 4.01517)
(3.90083 1.44434 -0.0662718 3.90083 2.87823e-05 3.90083)
(3.90089 1.44427 -0.0662683 3.90089 2.9541e-05 3.90089)
(3.79242 1.48046 -0.0693692 3.79242 2.41215e-05 3.79242)
(3.79247 1.4804 -0.069366 3.79247 2.52082e-05 3.79247)
(3.68905 1.49697 -0.0717153 3.68905 1.97428e-05 3.68905)
(3.6891 1.49692 -0.0717127 3.68911 2.0468e-05 3.6891)
(3.59008 1.49052 -0.0730424 3.59009 1.43931e-05 3.59008)
(3.59012 1.49049 -0.0730405 3.59013 1.37052e-05 3.59012)
(3.49509 1.46047 -0.0732106 3.4951 5.0086e-06 3.49509)
(3.49513 1.46046 -0.0732096 3.49514 3.89783e-06 3.49513)
(3.40393 1.40845 -0.0722011 3.40394 -2.09348e-06 3.40393)
(3.40397 1.40846 -0.072201 3.40398 -1.22578e-06 3.40397)
(3.31672 1.33792 -0.0700971 3.31673 -1.63979e-06 3.31672)
(3.31675 1.33794 -0.0700979 3.31676 -1.05887e-06 3.31675)
(3.23378 1.25366 -0.067072 3.23379 -1.96354e-06 3.23378)
(3.23381 1.25369 -0.0670737 3.23382 -1.01333e-06 3.23381)
(3.15562 1.1611 -0.0633643 3.15562 -1.41221e-06 3.15562)
(3.15564 1.16115 -0.0633666 3.15565 -8.10837e-07 3.15564)
(3.08281 1.0658 -0.0592423 3.08281 -1.90287e-06 3.08281)
(3.08283 1.06585 -0.059245 3.08283 -7.9479e-07 3.08283)
(3.01596 0.973073 -0.054987 3.01596 -1.19896e-06 3.01596)
(3.01597 0.973127 -0.05499 3.01598 -5.92e-07 3.01597)
(2.95564 0.88778 -0.0508755 2.95565 -1.91536e-06 2.95564)
(2.95565 0.887829 -0.0508784 2.95565 -6.10573e-07 2.95565)
(2.90235 0.814154 -0.0471713 2.90235 -1.03992e-06 2.90235)
(2.90235 0.814193 -0.0471738 2.90235 -3.95884e-07 2.90235)
(2.85647 0.755791 -0.0441144 2.85647 -1.99837e-06 2.85647)
(2.85646 0.755816 -0.0441163 2.85646 -4.4698e-07 2.85646)
(2.81826 0.715622 -0.0419261 2.81826 -1.03706e-06 2.81826)
(2.81824 0.715628 -0.041927 2.81824 -1.89075e-07 2.81824)
(2.78786 0.695988 -0.0407961 2.78786 -1.96148e-06 2.78786)
(2.78782 0.695972 -0.0407959 2.78782 -2.66325e-07 2.78782)
(2.76527 0.698857 -0.0409002 2.76527 -7.83247e-07 2.76527)
(2.76522 0.698816 -0.0408985 2.76523 -6.6719e-08 2.76522)
(2.75037 0.725617 -0.0424029 2.75037 -1.83822e-06 2.75037)
(2.75031 0.725547 -0.0423995 2.75031 -4.5551e-08 2.75031)
(2.74286 0.776922 -0.0454265 2.74286 -8.45332e-07 2.74286)
(2.74279 0.77682 -0.0454212 2.74279 1.06235e-07 2.74279)
(2.74231 0.852689 -0.050058 2.74231 -1.73966e-06 2.74231)
(2.74223 0.852551 -0.0500505 2.74223 1.12349e-07 2.74223)
(2.74807 0.951878 -0.0563345 2.74807 -9.18805e-07 2.74807)
(2.74797 0.951702 -0.0563246 2.74797 2.60911e-07 2.74797)
(2.75927 1.07223 -0.0642223 2.75927 -1.69589e-06 2.75927)
(2.75915 1.07201 -0.0642096 2.75915 2.44967e-07 2.75915)
(2.77477 1.2101 -0.0735948 2.77477 -1.02586e-06 2.77477)
(2.77463 1.20983 -0.0735791 2.77464 3.77345e-07 2.77463)
(2.79317 1.36036 -0.0842208 2.79317 -1.72195e-06 2.79317)
(2.79303 1.36004 -0.0842016 2.79303 3.32954e-07 2.79303)
(2.81282 1.51625 -0.0957512 2.81282 -1.18686e-06 2.81282)
(2.81266 1.51588 -0.0957282 2.81266 4.37999e-07 2.81266)
(2.83181 1.66953 -0.107698 2.83181 -1.82762e-06 2.83181)
(2.83164 1.66909 -0.107671 2.83164 3.60958e-07 2.83164)
(2.84813 1.81063 -0.119459 2.84813 -1.41233e-06 2.84813)
(2.84795 1.81013 -0.119427 2.84795 4.33069e-07 2.84795)
(2.85976 1.92915 -0.13031 2.85976 -2.01183e-06 2.85976)
(2.85957 1.92857 -0.130272 2.85958 3.24325e-07 2.85957)
(2.86488 2.01444 -0.139456 2.86488 -1.69775e-06 2.86488)
(2.86469 2.01378 -0.139413 2.86469 3.66129e-07 2.86469)
(2.86205 2.05635 -0.146071 2.86205 -2.25451e-06 2.86205)
(2.86187 2.05563 -0.146022 2.86187 2.37559e-07 2.86187)
(2.85048 2.046 -0.149352 2.85048 -2.0156e-06 2.85048)
(2.85031 2.04524 -0.149298 2.85031 2.63199e-07 2.85031)
(2.83017 1.97662 -0.148577 2.83017 -2.51333e-06 2.83017)
(2.83002 1.9759 -0.148521 2.83003 1.39248e-07 2.83002)
(2.80205 1.84464 -0.131502 2.80205 -2.3132e-06 2.80205)
(2.80194 1.8441 -0.131489 2.80195 1.7751e-07 2.80194)
(2.76803 1.64987 -0.0661947 2.76803 -2.72733e-06 2.76803)
(2.76796 1.64973 -0.0661829 2.76797 9.17587e-08 2.76796)
(2.73083 1.39611 -0.00796641 2.73083 -2.52386e-06 2.73083)
(2.7308 1.39669 -0.0079554 2.7308 1.82591e-07 2.7308)
(2.69361 1.0916 0.0406705 2.69361 -2.85139e-06 2.69361)
(2.69362 1.09293 0.0406802 2.69362 1.91216e-07 2.69362)
(2.65962 0.747629 0.0448588 2.65962 -2.65702e-06 2.65962)
(2.65964 0.74938 0.0450058 2.65965 3.6348e-07 2.65964)
(2.63161 0.375564 0.0150455 2.63161 -2.89786e-06 2.63161)
(2.63165 0.379344 0.0151969 2.63165 4.35112e-07 2.63165)
(2.6115 -0.000125988 5.12061e-06 2.6115 -2.70412e-06 2.6115)
(2.61153 -6.60947e-05 2.68632e-06 2.61154 6.43049e-07 2.61153)
(2.59991 -0.377131 0.0159997 2.59991 -2.89912e-06 2.59991)
(2.59994 -0.375319 0.0158468 2.59994 7.39191e-07 2.59994)
(2.59616 -0.731299 0.0470684 2.59616 -2.75503e-06 2.59616)
(2.59619 -0.729659 0.0469204 2.5962 9.33723e-07 2.59619)
(2.59837 -1.05051 0.0440429 2.59837 -2.97096e-06 2.59837)
(2.59842 -1.04933 0.0440338 2.59842 9.94861e-07 2.59841)
(2.60386 -1.32316 -0.00698689 2.60386 -2.91466e-06 2.60386)
(2.60393 -1.32278 -0.00699911 2.60393 1.14186e-06 2.60393)
(2.6096 -1.54133 -0.0703298 2.6096 -3.20882e-06 2.6096)
(2.6097 -1.54166 -0.0703442 2.60971 1.18187e-06 2.6097)
(2.61265 -1.70159 -0.143863 2.61265 -3.28984e-06 2.61265)
(2.61278 -1.70227 -0.14388 2.61279 1.29158e-06 2.61278)
(2.6105 -1.80403 -0.165737 2.6105 -3.64275e-06 2.6105)
(2.61066 -1.80481 -0.165808 2.61066 1.28736e-06 2.61066)
(2.60137 -1.85185 -0.170254 2.60137 -3.79914e-06 2.60137)
(2.60154 -1.85259 -0.170319 2.60155 1.36081e-06 2.60154)
(2.58428 -1.85133 -0.170747 2.58428 -4.17149e-06 2.58428)
(2.58445 -1.85198 -0.170803 2.58446 1.34223e-06 2.58445)
(2.55898 -1.81018 -0.167758 2.55898 -4.36246e-06 2.55898)
(2.55915 -1.81073 -0.167805 2.55916 1.40901e-06 2.55915)
(2.52586 -1.7368 -0.161973 2.52586 -4.71876e-06 2.52586)
(2.52603 -1.73725 -0.162012 2.52603 1.40666e-06 2.52603)
(2.48577 -1.63957 -0.154027 2.48577 -4.9212e-06 2.48577)
(2.48593 -1.63994 -0.15406 2.48593 1.48347e-06 2.48592)
(2.43988 -1.52575 -0.144476 2.43988 -5.23834e-06 2.43988)
(2.44002 -1.52606 -0.144503 2.44003 1.52028e-06 2.44002)
(2.38954 -1.40169 -0.133865 2.38954 -5.43408e-06 2.38954)
(2.38966 -1.40194 -0.133888 2.38967 1.62322e-06 2.38966)
(2.33615 -1.27272 -0.122621 2.33615 -5.71379e-06 2.33615)
(2.33626 -1.27292 -0.12264 2.33627 1.70095e-06 2.33626)
(2.28113 -1.14269 -0.111053 2.28113 -5.89422e-06 2.28113)
(2.28123 -1.14287 -0.111069 2.28124 1.8398e-06 2.28123)
(2.22579 -1.01449 -0.0994286 2.22579 -6.12241e-06 2.22579)
(2.22588 -1.01463 -0.0994423 2.22589 1.97841e-06 2.22588)
(2.17137 -0.890055 -0.0879014 2.17137 -6.31869e-06 2.17137)
(2.17144 -0.890175 -0.0879131 2.17145 2.12557e-06 2.17144)
(2.11895 -0.770248 -0.0765271 2.11895 -6.48199e-06 2.11895)
(2.11901 -0.770349 -0.0765372 2.11902 2.34597e-06 2.11901)
(2.0695 -0.655155 -0.0653061 2.0695 -6.69588e-06 2.0695)
(2.06955 -0.655243 -0.065315 2.06956 2.50515e-06 2.06955)
(2.02385 -0.544252 -0.0541598 2.02385 -6.81129e-06 2.02385)
(2.0239 -0.544328 -0.0541678 2.02391 2.79916e-06 2.0239)
(1.98273 -0.436435 -0.0429541 1.98273 -7.04672e-06 1.98273)
(1.98276 -0.436503 -0.0429614 1.98277 2.97363e-06 1.98276)
(1.94671 -0.330171 -0.0314997 1.94671 -7.1162e-06 1.94671)
(1.94674 -0.330234 -0.0315067 1.94674 3.34945e-06 1.94674)
(1.91627 -0.223609 -0.0195696 1.91627 -7.37751e-06 1.91627)
(1.91629 -0.223668 -0.0195763 1.9163 -6.35326e-07 1.91629)
(1.89178 -0.114703 -0.0069055 1.89178 -7.4276e-06 1.89178)
(1.89179 -0.114761 -0.00691227 1.8918 -4.79751e-06 1.89179)
(1.87343 -0.000153236 -9.06488e-06 1.87343 -9.554e-06 1.87343)
(1.87344 -0.000154024 -9.11149e-06 1.87345 -4.78313e-06 1.87344)
(1.86131 0.113371 -0.00680415 1.86131 -1.30109e-05 1.86131)
(1.86132 0.113254 -0.00679709 1.86133 -3.87553e-06 1.86132)
(1.8553 0.243658 -0.0218209 1.85531 -1.43918e-05 1.8553)
(1.8553 0.243594 -0.0218134 1.85531 -2.89437e-06 1.8553)
(1.85508 0.377423 -0.0382302 1.85508 -1.3856e-05 1.85508)
(1.85507 0.377354 -0.038222 1.85508 -1.74621e-06 1.85507)
(1.86005 0.518431 -0.056088 1.86005 -1.33699e-05 1.86005)
(1.86004 0.518357 -0.056079 1.86006 -6.09893e-07 1.86004)
(1.86938 0.665333 -0.0753312 1.86939 -1.29891e-05 1.86938)
(1.86937 0.665253 -0.0753214 1.86938 4.70719e-07 1.86937)
(1.88193 0.815714 -0.0957563 1.88194 -1.28449e-05 1.88193)
(1.88192 0.815626 -0.0957454 1.88193 1.3504e-06 1.88192)
(1.89627 0.965966 -0.116998 1.89628 -1.30084e-05 1.89627)
(1.89626 0.96587 -0.116986 1.89627 1.96659e-06 1.89626)
(1.91073 1.11135 -0.1385 1.91073 -1.35195e-05 1.91073)
(1.91071 1.11125 -0.138487 1.91072 2.26246e-06 1.91071)
(1.92344 1.24607 -0.15954 1.92344 -1.43013e-05 1.92344)
(1.92341 1.24596 -0.159526 1.92343 2.32118e-06 1.92341)
(1.93245 1.36351 -0.179208 1.93245 -1.55292e-05 1.93245)
(1.93243 1.36339 -0.179192 1.93244 1.94712e-06 1.93243)
(1.93587 1.45664 -0.196475 1.93588 -1.67045e-05 1.93587)
(1.93585 1.45651 -0.196457 1.93586 1.64494e-06 1.93585)
(1.93203 1.51825 -0.210226 1.93204 -1.84192e-05 1.93203)
(1.93201 1.51811 -0.210207 1.93202 8.00355e-07 1.93201)
(1.91965 1.54157 -0.219287 1.91965 -1.96289e-05 1.91965)
(1.91963 1.54143 -0.219268 1.91964 4.65927e-07 1.91963)
(1.89802 1.52085 -0.222572 1.89802 -2.13181e-05 1.89802)
(1.898 1.52072 -0.222553 1.89801 -3.64034e-07 1.898)
(1.86716 1.45207 -0.219103 1.86717 -2.21138e-05 1.86716)
(1.86715 1.45196 -0.219085 1.86717 -3.02492e-07 1.86715)
(1.82794 1.33361 -0.208204 1.82794 -2.3294e-05 1.82794)
(1.82794 1.33355 -0.208191 1.82795 -6.43797e-07 1.82794)
(1.782 1.16682 -0.18953 1.78201 -2.33399e-05 1.782)
(1.78201 1.16684 -0.189526 1.78202 1.55701e-07 1.78201)
(1.73168 0.957039 -0.163235 1.73168 -2.37455e-05 1.73168)
(1.73169 0.957186 -0.163247 1.7317 5.93835e-07 1.73169)
(1.67967 0.713207 -0.130155 1.67967 -2.2801e-05 1.67967)
(1.67968 0.713496 -0.130188 1.6797 2.41732e-06 1.67968)
(1.62864 0.447502 -0.091582 1.62865 -2.28467e-05 1.62864)
(1.62866 0.447916 -0.0916386 1.62868 3.28431e-06 1.62866)
(1.58076 0.0774651 -0.0494844 1.58076 -2.09802e-05 1.58076)
(1.58078 0.0784483 -0.0495589 1.58079 6.13896e-06 1.58078)
(1.53748 -0.000864905 -0.0354824 1.53748 -2.13355e-05 1.53748)
(1.53749 -4.04123e-05 -0.0354157 1.53751 6.84192e-06 1.53749)
(1.49882 -0.328186 -0.0728989 1.49882 -1.90892e-05 1.49882)
(1.49883 -0.327851 -0.0728556 1.49885 1.02476e-05 1.49883)
(1.46386 -0.528547 -0.103824 1.46387 -2.04694e-05 1.46386)
(1.46387 -0.528364 -0.103807 1.46389 1.01021e-05 1.46387)
(1.43108 -0.679809 -0.126523 1.43108 -1.85343e-05 1.43108)
(1.43109 -0.679766 -0.126526 1.43111 1.33637e-05 1.43109)
(1.39876 -0.775667 -0.139959 1.39877 -2.12859e-05 1.39876)
(1.39877 -0.775724 -0.139975 1.39879 1.19915e-05 1.39877)
(1.36551 -0.814482 -0.143842 1.36551 -1.94638e-05 1.36551)
(1.36552 -0.814594 -0.143864 1.36554 1.52601e-05 1.36552)
(1.33055 -0.799337 -0.138701 1.33056 -2.35502e-05 1.33055)
(1.33057 -0.799472 -0.138726 1.33059 1.26531e-05 1.33057)
(1.29385 -0.737488 -0.125749 1.29385 -2.13405e-05 1.29385)
(1.29387 -0.737624 -0.125773 1.29388 1.64047e-05 1.29387)
(1.25603 -0.638915 -0.106636 1.25603 -2.65164e-05 1.25603)
(1.25604 -0.639042 -0.106658 1.25606 1.28147e-05 1.25604)
(1.21813 -0.515309 -0.0834196 1.21813 -2.3131e-05 1.21813)
(1.21814 -0.515422 -0.0834393 1.21816 1.78812e-05 1.21814)
(1.18134 -0.378832 -0.0581924 1.18135 -2.95532e-05 1.18134)
(1.18135 -0.37893 -0.0582095 1.18137 1.32291e-05 1.18135)
(1.14674 -0.240716 -0.0329338 1.14674 -2.42536e-05 1.14674)
(1.14674 -0.240799 -0.0329481 1.14676 2.04534e-05 1.14674)
(1.11508 -0.0979469 -0.0094658 1.11508 -3.22839e-05 1.11508)
(1.11508 -0.0980669 -0.00947741 1.11509 1.4493e-05 1.11509)
(1.08679 2.61613e-05 -2.56505e-06 1.08679 -2.48084e-05 1.08679)
(1.08679 3.7981e-19 -1.01167e-16 1.08682 2.42557e-05 1.08679)
(1.06193 0.0928676 -0.0107896 1.06194 -3.53501e-05 1.06193)
(1.06194 0.0928304 -0.0107807 1.06194 1.619e-05 1.06194)
(1.04036 0.15665 -0.0266687 1.04036 -2.50898e-05 1.04036)
(1.04036 0.156628 -0.0266627 1.04038 2.91939e-05 1.04036)
(1.02186 0.192044 -0.0372695 1.02187 -3.92729e-05 1.02186)
(1.02187 0.192036 -0.0372665 1.02187 1.79712e-05 1.02187)
(1.00624 0.19963 -0.0422108 1.00624 -2.54338e-05 1.00624)
(1.00624 0.199636 -0.0422108 1.00626 3.50888e-05 1.00624)
(0.993407 0.181678 -0.0415964 0.993419 -4.45271e-05 0.993407)
(0.993413 0.181697 -0.0415992 0.993413 1.95167e-05 0.993413)
(0.983362 0.141593 -0.0357616 0.983362 -2.60268e-05 0.983362)
(0.983357 0.141622 -0.0357669 0.983379 4.19236e-05 0.983357)
(0.976148 0.0841917 -0.0253468 0.976162 -5.14981e-05 0.976148)