/*--------------------------------*- C++ -*----------------------------------*\
| =========                 |                                                 |
| \\      /  F ield         | OpenFOAM: The Open Source CFD Toolbox           |
|  \\    /   O peration     | Version:  2012                                  |
|   \\  /    A nd           | Website:  www.openfoam.com                      |
|    \\/     M anipulation  |                                                 |
\*---------------------------------------------------------------------------*/
FoamFile
{
    version     2.0;
    format      ascii;
    class       volScalarField;
    location    "12800";
    object      k;
}
// * * * * * * * * * * * * * * * * * * * * * * * * * * * * * * * * * * * * * //

dimensions      [0 2 -2 0 0 0 0];


internalField   nonuniform List<scalar> 
2560
(
0.0186795
0.0186652
0.533085
0.53271
3.50073
3.49859
9.24556
9.24131
15.1285
15.123
20.278
20.2716
24.8052
24.7981
28.8851
28.8773
32.6408
32.6324
36.1539
36.145
39.4806
39.4712
42.6604
42.6505
45.7224
45.712
48.6886
48.6778
51.5763
51.5651
54.3991
54.3875
57.1682
57.1562
59.893
59.8805
62.5812
62.5684
65.2397
65.2264
67.8741
67.8604
70.4894
70.4753
73.0899
73.0754
75.6795
75.6646
78.2617
78.2464
80.8397
80.824
83.4165
83.4003
85.9947
85.9781
88.577
88.5599
91.1657
91.1481
93.7632
93.7451
96.3716
96.3531
98.993
98.974
101.629
101.609
104.281
104.261
106.95
106.929
109.637
109.616
112.342
112.321
115.067
115.045
117.811
117.788
120.576
120.552
123.361
123.337
126.169
126.144
128.998
128.973
131.849
131.823
134.719
134.692
137.606
137.579
140.506
140.478
143.413
143.384
146.32
146.29
149.221
149.191
152.11
152.078
154.98
154.947
157.828
157.795
160.658
160.624
163.482
163.446
166.326
166.29
169.23
169.192
172.237
172.198
175.374
175.333
178.631
178.588
181.909
181.865
185.043
184.998
187.807
187.762
189.969
189.923
191.334
191.289
191.795
191.75
191.343
191.3
190.06
190.018
188.089
188.05
185.606
185.57
182.784
182.751
179.78
179.749
176.719
176.69
173.694
173.666
170.765
170.739
167.967
167.941
165.305
165.281
162.771
162.748
160.343
160.321
157.992
157.972
155.688
155.67
153.4
153.383
151.1
151.085
148.763
148.75
146.369
146.357
143.901
143.892
141.35
141.342
138.709
138.701
135.976
135.97
133.157
133.151
130.261
130.256
127.305
127.301
124.308
124.304
121.293
121.29
118.285
118.282
115.307
115.304
112.378
112.376
109.515
109.513
106.728
106.726
104.024
104.022
101.404
101.402
98.8683
98.8666
96.4146
96.413
94.0408
94.0393
91.7455
91.7441
89.5284
89.5271
87.3898
87.3887
85.3308
85.3297
83.3518
83.3508
81.4525
81.4516
79.6303
79.6295
77.8804
77.8796
76.1958
76.1951
74.5672
74.5666
72.9841
72.9835
71.4357
71.4353
69.9127
69.9124
68.4084
68.4081
66.9198
66.9196
65.4486
65.4485
64.0006
64.0005
62.5847
62.5846
61.2114
61.2113
59.8908
59.8907
58.6306
58.6306
57.436
57.436
56.3069
56.3068
55.2398
55.2397
54.229
54.229
53.2677
53.2676
52.3489
52.3488
51.4668
51.4668
50.6175
50.6174
49.7984
49.7984
49.0087
49.0087
48.2484
48.2484
47.5181
47.518
46.8182
46.8182
46.1492
46.1491
45.5109
45.5108
44.9025
44.9024
44.323
44.3229
43.7706
43.7705
43.2433
43.2431
42.7389
42.7387
42.2553
42.2552
41.791
41.7908
41.3446
41.3443
40.9155
40.9152
40.504
40.5037
40.1108
40.1105
39.7375
39.7372
39.3859
39.3855
39.0581
39.0576
38.7563
38.7557
38.4824
38.4819
38.2384
38.2378
38.0255
38.0248
37.8447
37.8439
37.6962
37.6953
37.5797
37.5787
37.4943
37.4932
37.4379
37.4367
37.408
37.4067
37.4006
37.3991
37.4105
37.4089
37.4315
37.4298
37.4558
37.4539
37.4745
37.4725
37.4781
37.4761
37.4568
37.4547
37.4014
37.3994
37.3043
37.3024
37.1603
37.1589
36.9683
36.9676
36.731
36.7309
36.4551
36.4554
36.151
36.1516
35.8326
35.8332
35.5151
35.5156
35.2139
35.2143
34.9422
34.9424
34.7094
34.7095
34.5205
34.5205
34.3752
34.375
34.2664
34.2661
34.1835
34.183
34.1129
34.1124
34.0398
34.0393
33.9497
33.9493
33.8301
33.8301
33.672
33.6726
33.4698
33.4709
33.2211
33.2225
32.9267
32.9282
32.5907
32.5921
32.2194
32.2207
31.8206
31.8218
31.4029
31.404
30.9751
30.976
30.5456
30.5464
30.1222
30.1229
29.712
29.7126
29.3208
29.3213
28.9537
28.9541
28.6148
28.6151
28.3072
28.3074
28.0332
28.0334
27.7943
27.7944
27.5908
27.5908
27.4222
27.4222
27.2866
27.2865
27.1806
27.1805
27.0991
27.0989
27.0351
27.0348
26.9795
26.9791
26.9215
26.921
26.849
26.8484
26.7494
26.7487
26.6105
26.6098
26.4221
26.4213
26.1768
26.1759
25.8715
25.8707
25.5084
25.5077
25.0952
25.0949
24.6432
24.6433
24.1659
24.1661
23.6781
23.6784
23.1943
23.1945
22.7261
22.7262
22.2808
22.2809
21.8611
21.8611
21.4652
21.4651
21.0879
21.0878
20.7226
20.7224
20.3629
20.3627
20.0042
20.0041
19.6445
19.6444
19.2849
19.2849
18.9286
18.9287
18.5794
18.5795
18.2414
18.2415
17.9186
17.9187
17.6136
17.6137
17.3283
17.3283
17.0631
17.0632
16.8181
16.8182
16.593
16.5931
16.3874
16.3875
16.2011
16.2011
16.0338
16.0338
15.8854
15.8854
15.7555
15.7555
15.6436
15.6436
15.5488
15.5488
15.4703
15.4703
15.407
15.407
15.3576
15.3576
15.3213
15.3213
15.2972
15.2972
15.2847
15.2847
15.2835
15.2835
15.2936
15.2936
15.3153
15.3153
15.3488
15.3488
15.3948
15.3948
15.4536
15.4536
15.5257
15.5257
15.6112
15.6112
15.7102
15.7102
15.8224
15.8224
15.9477
15.9477
16.0857
16.0857
16.2362
16.2362
16.3989
16.3989
16.5737
16.5737
16.7604
16.7604
16.9589
16.9589
17.1691
17.1691
17.3909
17.3909
17.6243
17.6243
17.8691
17.8691
18.1251
18.1251
18.3924
18.3924
18.6708
18.6708
18.9603
18.9603
19.2612
19.2612
19.5737
19.5737
19.8983
19.8983
20.2355
20.2355
20.5859
20.5859
20.9501
20.9501
21.3286
21.3286
21.7217
21.7217
22.1295
22.1295
22.5522
22.5522
22.9899
22.9899
23.4425
23.4425
23.9104
23.9104
24.3941
24.3941
24.894
24.894
25.4112
25.4112
25.9465
25.9465
26.5013
26.5013
27.0767
27.0767
27.6741
27.6741
28.2948
28.2948
28.94
28.94
29.6111
29.6111
30.3091
30.3091
31.035
31.035
31.7891
31.7891
32.5703
32.5703
33.3745
33.3745
34.1903
34.1903
34.9912
34.9912
35.7187
35.7187
36.2525
36.2525
36.2074
36.2074
0.0186652
0.0186795
0.53271
0.533085
3.49858
3.50073
9.2413
9.24557
15.123
15.1285
20.2715
20.278
24.7981
24.8052
28.8773
28.8851
32.6324
32.6408
36.145
36.1539
39.4712
39.4806
42.6505
42.6604
45.712
45.7224
48.6778
48.6886
51.5651
51.5763
54.3875
54.3991
57.1562
57.1682
59.8805
59.893
62.5684
62.5813
65.2264
65.2397
67.8604
67.8741
70.4753
70.4894
73.0754
73.0899
75.6646
75.6795
78.2463
78.2617
80.8239
80.8397
83.4002
83.4165
85.978
85.9947
88.5598
88.577
91.1481
91.1657
93.7451
93.7632
96.3531
96.3716
98.9739
98.993
101.609
101.629
104.261
104.281
106.929
106.95
109.616
109.637
112.321
112.342
115.045
115.067
117.788
117.811
120.552
120.576
123.337
123.361
126.144
126.169
128.973
128.998
131.823
131.849
134.692
134.719
137.579
137.606
140.478
140.506
143.384
143.413
146.29
146.32
149.191
149.221
152.078
152.11
154.947
154.98
157.795
157.828
160.624
160.658
163.446
163.482
166.289
166.326
169.192
169.23
172.198
172.237
175.333
175.374
178.588
178.631
181.865
181.909
184.998
185.043
187.762
187.807
189.923
189.969
191.289
191.334
191.75
191.795
191.3
191.343
190.018
190.06
188.05
188.089
185.57
185.606
182.751
182.784
179.749
179.78
176.69
176.719
173.666
173.694
170.738
170.765
167.941
167.967
165.281
165.305
162.748
162.771
160.321
160.343
157.972
157.992
155.669
155.688
153.383
153.4
151.085
151.1
148.75
148.763
146.357
146.369
143.892
143.901
141.342
141.35
138.701
138.709
135.97
135.976
133.151
133.156
130.256
130.261
127.301
127.305
124.304
124.308
121.29
121.293
118.282
118.285
115.304
115.307
112.376
112.378
109.513
109.515
106.726
106.728
104.022
104.024
101.402
101.404
98.8666
98.8683
96.4129
96.4145
94.0392
94.0407
91.7441
91.7454
89.5271
89.5283
87.3886
87.3898
85.3297
85.3308
83.3508
83.3518
81.4516
81.4525
79.6294
79.6302
77.8796
77.8803
76.195
76.1957
74.5665
74.5671
72.9835
72.984
71.4352
71.4357
69.9123
69.9127
68.408
68.4083
66.9195
66.9197
65.4484
65.4486
64.0004
64.0005
62.5845
62.5846
61.2112
61.2113
59.8906
59.8907
58.6305
58.6305
57.4359
57.4359
56.3067
56.3068
55.2396
55.2397
54.2289
54.2289
53.2675
53.2676
52.3487
52.3487
51.4666
51.4667
50.6173
50.6173
49.7982
49.7983
49.0085
49.0086
48.2482
48.2483
47.5179
47.5179
46.818
46.8181
46.149
46.149
45.5106
45.5107
44.9023
44.9024
44.3227
44.3229
43.7703
43.7704
43.2429
43.2431
42.7385
42.7387
42.255
42.2552
41.7906
41.7908
41.3441
41.3444
40.9151
40.9153
40.5035
40.5038
40.1103
40.1107
39.737
39.7374
39.3853
39.3857
39.0574
39.0579
38.7555
38.7561
38.4817
38.4823
38.2376
38.2382
38.0246
38.0254
37.8437
37.8445
37.6951
37.696
37.5785
37.5795
37.4929
37.4941
37.4365
37.4378
37.4064
37.4078
37.3989
37.4004
37.4087
37.4104
37.4295
37.4313
37.4537
37.4556
37.4723
37.4743
37.4758
37.478
37.4545
37.4567
37.3992
37.4013
37.3022
37.3041
37.1587
37.1602
36.9674
36.9682
36.7308
36.7309
36.4553
36.455
36.1514
36.1509
35.833
35.8325
35.5155
35.515
35.2141
35.2137
34.9422
34.942
34.7092
34.7091
34.5202
34.5202
34.3747
34.3749
34.2657
34.266
34.1826
34.1831
34.112
34.1125
34.0388
34.0394
33.9489
33.9493
33.8297
33.8297
33.6722
33.6716
33.4705
33.4694
33.2222
33.2208
32.9279
32.9264
32.5919
32.5905
32.2205
32.2192
31.8216
31.8204
31.4038
31.4027
30.9759
30.9749
30.5463
30.5454
30.1228
30.1221
29.7124
29.7118
29.3211
29.3206
28.9539
28.9535
28.6149
28.6146
28.3072
28.3069
28.0331
28.0329
27.794
27.7939
27.5904
27.5904
27.4217
27.4218
27.286
27.2861
27.1799
27.1801
27.0983
27.0986
27.0342
27.0345
26.9784
26.9789
26.9204
26.9209
26.8478
26.8484
26.7481
26.7489
26.6092
26.6101
26.4208
26.4217
26.1755
26.1765
25.8704
25.8714
25.5076
25.5083
25.0949
25.0952
24.6433
24.6433
24.1662
24.166
23.6784
23.6782
23.1946
23.1944
22.7262
22.7261
22.2808
22.2808
21.861
21.861
21.465
21.465
21.0876
21.0877
20.7222
20.7224
20.3625
20.3628
20.0039
20.0041
19.6442
19.6444
19.2849
19.2848
18.9286
18.9285
18.5795
18.5793
18.2416
18.2414
17.9187
17.9186
17.6138
17.6137
17.3284
17.3283
17.0632
17.0631
16.8182
16.8181
16.5931
16.593
16.3875
16.3874
16.2011
16.2011
16.0338
16.0338
15.8854
15.8853
15.7555
15.7554
15.6435
15.6435
15.5488
15.5488
15.4703
15.4702
15.4069
15.4069
15.3576
15.3576
15.3213
15.3213
15.2972
15.2972
15.2847
15.2847
15.2835
15.2835
15.2936
15.2936
15.3153
15.3153
15.3488
15.3488
15.3948
15.3948
15.4536
15.4536
15.5257
15.5257
15.6112
15.6112
15.7102
15.7102
15.8224
15.8224
15.9477
15.9477
16.0857
16.0857
16.2362
16.2362
16.3989
16.3989
16.5737
16.5737
16.7604
16.7604
16.9589
16.9589
17.1691
17.1691
17.3909
17.3909
17.6243
17.6243
17.8691
17.8691
18.1251
18.1251
18.3924
18.3924
18.6708
18.6708
18.9603
18.9603
19.2612
19.2612
19.5737
19.5737
19.8983
19.8983
20.2354
20.2355
20.5859
20.5859
20.9501
20.9501
21.3285
21.3286
21.7216
21.7216
22.1295
22.1295
22.5522
22.5522
22.9898
22.9898
23.4425
23.4425
23.9104
23.9104
24.394
24.394
24.894
24.894
25.4111
25.4111
25.9465
25.9465
26.5013
26.5013
27.0767
27.0767
27.6741
27.6741
28.2947
28.2947
28.9399
28.9399
29.6108
29.6109
30.3088
30.3088
31.0346
31.0346
31.7886
31.7886
32.5696
32.5697
33.3736
33.3736
34.1892
34.1892
34.9899
34.9899
35.7173
35.7173
36.2511
36.251
36.2062
36.2062
36.2075
36.2075
36.2526
36.2526
35.7191
35.7191
34.9916
34.9916
34.1907
34.1907
33.375
33.375
32.5709
32.5708
31.7897
31.7897
31.0356
31.0356
30.3096
30.3096
29.6116
29.6116
28.9405
28.9405
28.2953
28.2953
27.6746
27.6746
27.0773
27.0773
26.5019
26.5019
25.9471
25.9471
25.4118
25.4118
24.8946
24.8946
24.3947
24.3947
23.9111
23.9111
23.4432
23.4431
22.9905
22.9905
22.5529
22.5529
22.1302
22.1302
21.7224
21.7223
21.3293
21.3293
20.9508
20.9508
20.5866
20.5866
20.2361
20.2361
19.899
19.899
19.5744
19.5744
19.2619
19.2619
18.961
18.961
18.6714
18.6714
18.393
18.393
18.1257
18.1257
17.8696
17.8696
17.6248
17.6248
17.3914
17.3914
17.1695
17.1695
16.9593
16.9593
16.7607
16.7607
16.574
16.574
16.3992
16.3992
16.2364
16.2364
16.0859
16.0859
15.9478
15.9478
15.8225
15.8225
15.7102
15.7102
15.6112
15.6112
15.5257
15.5257
15.4535
15.4535
15.3946
15.3946
15.3486
15.3486
15.315
15.315
15.2933
15.2933
15.2832
15.2832
15.2843
15.2843
15.2967
15.2968
15.3208
15.3208
15.357
15.357
15.4062
15.4062
15.4695
15.4695
15.548
15.548
15.6427
15.6427
15.7546
15.7546
15.8844
15.8845
16.0328
16.0328
16.2001
16.2001
16.3863
16.3864
16.5919
16.5919
16.8169
16.817
17.0618
17.0619
17.3269
17.327
17.6123
17.6124
17.9171
17.9172
18.2399
18.24
18.5778
18.5779
18.927
18.9271
19.2834
19.2835
19.6431
19.643
20.003
20.0028
20.3618
20.3616
20.7216
20.7214
21.087
21.0869
21.4644
21.4643
21.8604
21.8604
22.2802
22.2802
22.7255
22.7256
23.1938
23.194
23.6778
23.678
24.1657
24.1659
24.6432
24.6433
25.0955
25.0952
25.5088
25.5081
25.872
25.8711
26.1773
26.1764
26.4225
26.4217
26.6109
26.6101
26.7497
26.7491
26.8494
26.8488
26.9219
26.9214
26.9799
26.9795
27.0354
27.0351
27.0994
27.0992
27.1808
27.1807
27.2867
27.2866
27.4222
27.4222
27.5908
27.5908
27.7942
27.7943
28.0331
28.0333
28.307
28.3072
28.6145
28.6148
28.9533
28.9538
29.3203
29.3209
29.7114
29.7121
30.1216
30.1223
30.5449
30.5457
30.9743
30.9753
31.402
31.4031
31.8197
31.8209
32.2184
32.2198
32.5897
32.5911
32.9256
32.9271
33.2199
33.2213
33.4685
33.4696
33.6707
33.6713
33.8287
33.8287
33.9482
33.9478
34.0381
34.0376
34.1111
34.1106
34.1816
34.1812
34.2646
34.2642
34.3734
34.3732
34.5187
34.5186
34.7075
34.7077
34.9403
34.9406
35.2121
35.2125
35.5133
35.5138
35.8307
35.8313
36.1492
36.1497
36.4532
36.4536
36.7292
36.7291
36.9666
36.9658
37.1587
37.1572
37.3027
37.3007
37.3997
37.3976
37.4551
37.4529
37.4764
37.4742
37.4727
37.4706
37.454
37.452
37.4297
37.4278
37.4087
37.407
37.3986
37.3971
37.406
37.4046
37.4359
37.4346
37.4921
37.4909
37.5775
37.5764
37.6939
37.6929
37.8423
37.8414
38.023
38.0223
38.2358
38.2351
38.4797
38.4791
38.7533
38.7528
39.055
39.0545
39.3826
39.3822
39.7341
39.7337
40.1072
40.1068
40.5001
40.4998
40.9113
40.9111
41.3401
41.3399
41.7862
41.786
42.2503
42.2501
42.7335
42.7333
43.2376
43.2374
43.7646
43.7645
44.3168
44.3167
44.8961
44.896
45.5041
45.504
46.1422
46.1421
46.8109
46.8109
47.5105
47.5105
48.2406
48.2406
49.0006
49.0005
49.7898
49.7898
50.6084
50.6083
51.4572
51.4572
52.3388
52.3387
53.2571
53.257
54.2179
54.2179
55.2282
55.2282
56.2949
56.2949
57.4235
57.4235
58.6177
58.6176
59.8773
59.8773
61.1975
61.1974
62.5703
62.5703
63.9858
63.9857
65.4333
65.4332
66.904
66.9039
68.3922
68.392
69.8961
69.8958
71.4187
71.4183
72.9667
72.9662
74.5494
74.5488
76.1775
76.1769
77.8617
77.861
79.611
79.6102
81.4327
81.4319
83.3314
83.3305
85.3098
85.3088
87.3682
87.3671
89.5061
89.5049
91.7226
91.7213
94.0173
94.0159
96.3905
96.3889
98.8435
98.8419
101.379
101.377
103.998
103.996
106.701
106.699
109.488
109.485
112.35
112.348
115.278
115.275
118.255
118.253
121.263
121.259
124.276
124.273
127.273
127.269
130.229
130.224
133.124
133.119
135.943
135.937
138.676
138.669
141.316
141.308
143.867
143.857
146.333
146.322
148.726
148.713
151.062
151.047
153.361
153.344
155.648
155.629
157.951
157.929
160.3
160.277
162.727
162.703
165.26
165.235
167.92
167.894
170.717
170.69
173.645
173.616
176.669
176.638
179.729
179.696
182.732
182.697
185.553
185.515
188.035
187.995
190.006
189.963
191.291
191.246
191.745
191.698
191.285
191.237
189.921
189.873
187.76
187.712
184.996
184.949
181.863
181.817
178.586
178.542
175.331
175.288
172.194
172.153
169.187
169.148
166.284
166.246
163.44
163.404
160.617
160.582
157.789
157.754
154.942
154.908
152.073
152.041
149.186
149.154
146.286
146.255
143.38
143.35
140.474
140.445
137.576
137.547
134.689
134.662
131.82
131.793
128.97
128.944
126.142
126.116
123.335
123.31
120.551
120.526
117.787
117.763
115.043
115.02
112.319
112.297
109.615
109.593
106.928
106.907
104.26
104.239
101.608
101.588
98.973
98.9532
96.3522
96.3329
93.7442
93.7255
91.1472
91.129
88.5591
88.5413
85.9774
85.96
83.3997
83.3828
80.8235
80.8071
78.246
78.23
75.6643
75.6488
73.0752
73.0601
70.4752
70.4605
67.8604
67.8461
65.2265
65.2126
62.5685
62.5551
59.8807
59.8678
57.1565
57.1439
54.3878
54.3757
51.5656
51.5539
48.6784
48.6672
45.7127
45.702
42.6513
42.641
39.4721
39.4623
36.1461
36.1368
32.6335
32.6248
28.8786
28.8705
24.7994
24.792
20.273
20.2663
15.1245
15.1187
9.24267
9.23825
3.49939
3.49716
0.532862
0.532474
0.018672
0.0186572
36.2063
36.2062
36.2512
36.2512
35.7177
35.7177
34.9903
34.9903
34.1896
34.1896
33.3741
33.3741
32.5702
32.5702
31.7891
31.7891
31.0352
31.0352
30.3094
30.3094
29.6114
29.6114
28.9404
28.9404
28.2952
28.2952
27.6746
27.6746
27.0772
27.0772
26.5018
26.5018
25.9471
25.9471
25.4117
25.4118
24.8946
24.8946
24.3946
24.3946
23.911
23.911
23.4431
23.4431
22.9905
22.9905
22.5529
22.5529
22.1302
22.1302
21.7223
21.7223
21.3292
21.3292
20.9508
20.9508
20.5865
20.5866
20.2361
20.2361
19.8989
19.899
19.5744
19.5744
19.2619
19.2619
18.961
18.961
18.6714
18.6714
18.393
18.393
18.1256
18.1256
17.8695
17.8695
17.6247
17.6247
17.3913
17.3914
17.1695
17.1695
16.9592
16.9593
16.7607
16.7607
16.574
16.574
16.3992
16.3992
16.2364
16.2364
16.0859
16.0859
15.9478
15.9478
15.8225
15.8225
15.7102
15.7102
15.6113
15.6113
15.5257
15.5257
15.4536
15.4536
15.3947
15.3947
15.3486
15.3486
15.315
15.315
15.2933
15.2933
15.2832
15.2832
15.2843
15.2843
15.2967
15.2967
15.3207
15.3207
15.3569
15.3569
15.4061
15.4061
15.4695
15.4695
15.5479
15.5479
15.6426
15.6426
15.7546
15.7545
15.8844
15.8844
16.0328
16.0328
16.2001
16.2
16.3863
16.3863
16.5919
16.5918
16.817
16.8169
17.0619
17.0618
17.3271
17.327
17.6124
17.6123
17.9172
17.9171
18.24
18.2399
18.5779
18.5778
18.9271
18.927
19.2834
19.2834
19.6429
19.643
20.0026
20.0029
20.3614
20.3616
20.7212
20.7214
21.0867
21.0868
21.4641
21.4642
21.8602
21.8603
22.2802
22.2801
22.7256
22.7255
23.1941
23.1939
23.6781
23.6779
24.166
24.1658
24.6433
24.6433
25.0951
25.0955
25.508
25.5088
25.8708
25.8718
26.176
26.177
26.4212
26.4222
26.6096
26.6105
26.7485
26.7493
26.8482
26.8489
26.9208
26.9213
26.9788
26.9793
27.0345
27.0349
27.0986
27.0989
27.1801
27.1803
27.2861
27.2863
27.4218
27.4218
27.5904
27.5904
27.794
27.7939
28.033
28.0328
28.307
28.3067
28.6146
28.6143
28.9536
28.9531
29.3207
29.3202
29.7119
29.7113
30.1222
30.1214
30.5456
30.5447
30.9751
30.9741
31.403
31.4018
31.8207
31.8195
32.2196
32.2182
32.5909
32.5894
32.9268
32.9253
33.221
33.2196
33.4693
33.4682
33.6709
33.6703
33.8283
33.8283
33.9474
33.9478
34.0372
34.0377
34.1102
34.1107
34.1808
34.1813
34.2639
34.2642
34.3729
34.3731
34.5183
34.5184
34.7074
34.7073
34.9404
34.9401
35.2123
35.2119
35.5136
35.5131
35.8312
35.8306
36.1496
36.149
36.4534
36.4531
36.7289
36.7291
36.9657
36.9665
37.1571
37.1586
37.3006
37.3025
37.3974
37.3996
37.4527
37.455
37.474
37.4762
37.4704
37.4726
37.4518
37.4538
37.4276
37.4295
37.4068
37.4085
37.3969
37.3985
37.4044
37.4058
37.4344
37.4357
37.4908
37.4919
37.5763
37.5773
37.6927
37.6937
37.8412
37.8421
38.0221
38.0228
38.2349
38.2356
38.4789
38.4795
38.7526
38.7532
39.0543
39.0548
39.382
39.3825
39.7335
39.7339
40.1067
40.107
40.4996
40.4999
40.9109
40.9112
41.3397
41.34
41.7859
41.7861
42.2499
42.2501
42.7332
42.7334
43.2373
43.2375
43.7644
43.7645
44.3166
44.3167
44.8958
44.896
45.5039
45.504
46.142
46.142
46.8108
46.8108
47.5104
47.5104
48.2404
48.2405
49.0004
49.0004
49.7897
49.7897
50.6082
50.6083
51.4571
51.4571
52.3386
52.3387
53.2569
53.257
54.2178
54.2179
55.2281
55.2282
56.2948
56.2948
57.4234
57.4235
58.6176
58.6176
59.8772
59.8773
61.1973
61.1974
62.5702
62.5703
63.9856
63.9857
65.4331
65.4333
66.9038
66.904
68.3919
68.3922
69.8957
69.8961
71.4182
71.4187
72.9661
72.9667
74.5488
74.5494
76.1768
76.1775
77.8609
77.8617
79.6102
79.611
81.4318
81.4327
83.3304
83.3314
85.3087
85.3098
87.367
87.3683
89.5048
89.5062
91.7212
91.7227
94.0158
94.0173
96.3888
96.3905
98.8418
98.8436
101.377
101.379
103.996
103.998
106.699
106.702
109.485
109.488
112.347
112.35
115.275
115.278
118.252
118.256
121.259
121.263
124.273
124.277
127.269
127.273
130.224
130.229
133.119
133.124
135.937
135.944
138.668
138.676
141.308
141.317
143.857
143.867
146.321
146.333
148.713
148.726
151.047
151.062
153.344
153.361
155.628
155.648
157.929
157.951
160.277
160.3
162.703
162.727
165.235
165.26
167.894
167.921
170.69
170.717
173.616
173.645
176.638
176.669
179.696
179.729
182.697
182.732
185.515
185.553
187.995
188.036
189.963
190.006
191.246
191.291
191.698
191.745
191.237
191.285
189.873
189.921
187.712
187.76
184.949
184.996
181.817
181.863
178.542
178.586
175.288
175.331
172.153
172.194
169.148
169.188
166.246
166.284
163.404
163.441
160.582
160.618
157.754
157.789
154.908
154.942
152.041
152.074
149.154
149.186
146.255
146.286
143.35
143.38
140.445
140.474
137.547
137.576
134.662
134.69
131.793
131.82
128.944
128.971
126.116
126.142
123.311
123.336
120.526
120.551
117.763
117.787
115.02
115.044
112.297
112.32
109.593
109.615
106.907
106.929
104.239
104.26
101.588
101.609
98.9533
98.9732
96.3329
96.3524
93.7255
93.7444
91.129
91.1474
88.5413
88.5592
85.9601
85.9776
83.3829
83.3999
80.8071
80.8237
78.2301
78.2462
75.6488
75.6645
73.0601
73.0753
70.4605
70.4753
67.8462
67.8605
65.2127
65.2266
62.5551
62.5686
59.8678
59.8808
57.1439
57.1566
54.3758
54.3879
51.5539
51.5657
48.6672
48.6785
45.702
45.7128
42.641
42.6514
39.4624
39.4722
36.1368
36.1461
32.6248
32.6336
28.8705
28.8787
24.792
24.7995
20.2663
20.273
15.1187
15.1245
9.23825
9.2427
3.49716
3.4994
0.532473
0.532864
0.0186572
0.0186721
)
;

boundaryField
{
    walls
    {
        type            kqRWallFunction;
        value           nonuniform List<scalar> 8(0.0186795 0.0186652 0.0186652 0.0186795 0.018672 0.0186572 0.0186572 0.0186721);
    }
    inlet
    {
        type            cyclic;
    }
    outlet
    {
        type            cyclic;
    }
    sides
    {
        type            empty;
    }
}


// ************************************************************************* //
