/*--------------------------------*- C++ -*----------------------------------*\
| =========                 |                                                 |
| \\      /  F ield         | OpenFOAM: The Open Source CFD Toolbox           |
|  \\    /   O peration     | Version:  2012                                  |
|   \\  /    A nd           | Website:  www.openfoam.com                      |
|    \\/     M anipulation  |                                                 |
\*---------------------------------------------------------------------------*/
FoamFile
{
    version     2.0;
    format      ascii;
    class       volScalarField;
    location    "12800";
    object      nut;
}
// * * * * * * * * * * * * * * * * * * * * * * * * * * * * * * * * * * * * * //

dimensions      [0 2 -1 0 0 0 0];


internalField   nonuniform List<scalar> 
2560
(
1.22555e-08
1.22461e-08
2.02117e-06
2.01973e-06
4.01172e-05
4.00913e-05
0.000221053
0.000220948
0.000579184
0.000578981
0.00106459
0.00106429
0.00163811
0.00163772
0.00227841
0.00227792
0.00297324
0.00297266
0.00371483
0.00371416
0.00449785
0.00449707
0.00531835
0.00531748
0.00617334
0.00617236
0.00706037
0.00705929
0.00797745
0.00797627
0.00892289
0.0089216
0.00989523
0.00989382
0.0108932
0.0108917
0.0119156
0.0119139
0.0129614
0.0129596
0.0140296
0.0140277
0.0151194
0.0151173
0.0162297
0.0162276
0.0173599
0.0173577
0.0185092
0.0185068
0.0196767
0.0196742
0.0208618
0.0208591
0.0220637
0.0220609
0.0232818
0.0232788
0.0245153
0.0245122
0.0257637
0.0257604
0.0270261
0.0270226
0.028302
0.0282984
0.0295906
0.0295868
0.0308912
0.0308873
0.032203
0.0321989
0.0335253
0.033521
0.0348572
0.0348527
0.0361978
0.0361933
0.0375465
0.0375418
0.0389025
0.0388975
0.0402648
0.0402597
0.0416329
0.0416276
0.0430058
0.0430003
0.0443826
0.044377
0.0457621
0.0457563
0.0471432
0.0471372
0.0485241
0.048518
0.0499035
0.0498971
0.0512794
0.0512728
0.0526501
0.0526433
0.0540139
0.054007
0.0553695
0.0553623
0.0567157
0.0567083
0.0580525
0.058045
0.0593817
0.0593739
0.0607071
0.060699
0.0620344
0.0620262
0.0633701
0.0633615
0.064717
0.0647082
0.0660716
0.0660625
0.0674151
0.0674058
0.0687177
0.0687083
0.0699409
0.0699314
0.0710454
0.0710358
0.0719996
0.0719901
0.0727863
0.0727769
0.0734047
0.0733956
0.0738688
0.07386
0.0742028
0.0741945
0.0744365
0.0744285
0.0746002
0.0745927
0.0747222
0.0747151
0.0748261
0.0748192
0.07493
0.0749234
0.0750467
0.0750404
0.0751842
0.075178
0.0753444
0.0753384
0.0755264
0.0755205
0.075726
0.0757204
0.0759373
0.0759321
0.0761537
0.0761487
0.0763677
0.0763632
0.0765726
0.0765685
0.0767618
0.0767582
0.0769296
0.0769263
0.0770709
0.077068
0.0771818
0.0771792
0.0772592
0.0772569
0.0773012
0.0772991
0.0773075
0.0773056
0.0772792
0.0772774
0.0772189
0.0772173
0.0771309
0.0771294
0.0770209
0.0770194
0.076895
0.0768937
0.0767601
0.0767588
0.0766224
0.0766211
0.0764873
0.0764861
0.0763591
0.076358
0.0762408
0.0762397
0.0761342
0.0761331
0.0760402
0.0760392
0.0759593
0.0759583
0.0758918
0.0758908
0.0758384
0.0758375
0.0758002
0.0757993
0.0757787
0.0757778
0.0757756
0.0757748
0.0757927
0.0757918
0.0758312
0.0758304
0.0758915
0.0758907
0.0759731
0.0759723
0.0760739
0.0760732
0.0761909
0.0761902
0.0763199
0.0763192
0.0764563
0.0764557
0.076596
0.0765954
0.0767356
0.0767351
0.0768741
0.0768735
0.0770123
0.0770118
0.0771541
0.0771536
0.077305
0.0773046
0.0774724
0.077472
0.0776637
0.0776633
0.0778854
0.077885
0.0781428
0.0781424
0.078438
0.0784376
0.078771
0.0787705
0.0791397
0.0791392
0.0795413
0.0795408
0.0799724
0.0799719
0.0804304
0.0804299
0.0809135
0.080913
0.0814211
0.0814207
0.0819538
0.0819533
0.0825128
0.0825123
0.0830997
0.0830992
0.0837164
0.0837159
0.0843645
0.0843639
0.0850452
0.0850446
0.0857592
0.0857586
0.0865068
0.0865061
0.0872876
0.0872869
0.088101
0.0881003
0.088946
0.0889453
0.0898218
0.089821
0.0907276
0.0907267
0.0916631
0.0916622
0.0926288
0.0926279
0.0936259
0.093625
0.0946563
0.0946553
0.0957227
0.0957216
0.0968282
0.096827
0.0979764
0.0979751
0.099171
0.0991696
0.100416
0.100414
0.101713
0.101712
0.103067
0.103065
0.104478
0.104476
0.105948
0.105946
0.107477
0.107475
0.109063
0.109061
0.110705
0.110703
0.112398
0.112395
0.114137
0.114134
0.115913
0.115909
0.117716
0.117713
0.119535
0.119532
0.121356
0.121352
0.123162
0.123158
0.124939
0.124935
0.126671
0.126667
0.128345
0.128342
0.129953
0.12995
0.131491
0.131489
0.132963
0.132962
0.134379
0.13438
0.135758
0.135759
0.137122
0.137123
0.138501
0.138502
0.139923
0.139923
0.141414
0.141414
0.142994
0.142993
0.144673
0.144672
0.146452
0.146452
0.148318
0.148317
0.150248
0.150247
0.152213
0.152212
0.154182
0.154181
0.156122
0.156121
0.158005
0.158005
0.159811
0.159812
0.161524
0.161526
0.163138
0.163141
0.164653
0.164656
0.166075
0.166079
0.167419
0.167422
0.168702
0.168705
0.169944
0.169946
0.171166
0.171169
0.172392
0.172394
0.173642
0.173643
0.174937
0.174938
0.176296
0.176297
0.177737
0.177737
0.179273
0.179273
0.180917
0.180917
0.18268
0.18268
0.184568
0.184568
0.186586
0.186586
0.188734
0.188733
0.191007
0.191006
0.193395
0.193393
0.19588
0.195879
0.198438
0.198437
0.201038
0.201036
0.203639
0.203637
0.206197
0.206195
0.208665
0.208662
0.210996
0.210993
0.213148
0.213145
0.21509
0.215086
0.216804
0.2168
0.218292
0.218289
0.21958
0.219578
0.220706
0.220706
0.221724
0.221725
0.222695
0.222696
0.223684
0.223685
0.224747
0.224747
0.225925
0.225925
0.227237
0.227236
0.228682
0.228682
0.230242
0.230241
0.231886
0.231885
0.233586
0.233585
0.235321
0.235319
0.23708
0.237079
0.238875
0.238875
0.240727
0.240728
0.242665
0.242666
0.244721
0.244722
0.246929
0.246929
0.249315
0.249315
0.251902
0.251902
0.254704
0.254704
0.257734
0.257734
0.260999
0.260999
0.264509
0.264509
0.268271
0.268271
0.272296
0.272296
0.276592
0.276592
0.281166
0.281166
0.286023
0.286023
0.291166
0.291166
0.296594
0.296594
0.302305
0.302305
0.308297
0.308297
0.314567
0.314567
0.321112
0.321112
0.327933
0.327933
0.335033
0.335033
0.342416
0.342415
0.350089
0.350088
0.35806
0.35806
0.366339
0.366338
0.374932
0.374932
0.383847
0.383847
0.393085
0.393085
0.402646
0.402646
0.412528
0.412528
0.422726
0.422725
0.433231
0.433231
0.444038
0.444038
0.455139
0.455139
0.466525
0.466525
0.478189
0.478189
0.490122
0.490122
0.502315
0.502315
0.514758
0.514758
0.52744
0.52744
0.540351
0.540351
0.553477
0.553477
0.566807
0.566807
0.580328
0.580328
0.594028
0.594028
0.607897
0.607897
0.621927
0.621927
0.636109
0.636109
0.650438
0.650438
0.664907
0.664907
0.679509
0.679509
0.694233
0.694233
0.709067
0.709067
0.723995
0.723995
0.739
0.739
0.754062
0.754062
0.769165
0.769165
0.784293
0.784293
0.799431
0.799431
0.814571
0.814571
0.829703
0.829703
0.844821
0.844821
0.859922
0.859922
0.874999
0.874999
0.89005
0.89005
0.905066
0.905066
0.920041
0.920041
0.934965
0.934965
0.949826
0.949826
0.964609
0.964609
0.979288
0.979288
0.993816
0.993816
1.00811
1.00811
1.02197
1.02197
1.03503
1.03503
1.04648
1.04648
1.0547
1.0547
1.05443
1.05443
1.22461e-08
1.22555e-08
2.01973e-06
2.02117e-06
4.00913e-05
4.01172e-05
0.000220948
0.000221053
0.00057898
0.000579184
0.00106429
0.00106459
0.00163772
0.00163811
0.00227792
0.00227841
0.00297266
0.00297324
0.00371416
0.00371483
0.00449707
0.00449785
0.00531748
0.00531835
0.00617236
0.00617334
0.00705929
0.00706037
0.00797626
0.00797745
0.0089216
0.0089229
0.00989382
0.00989523
0.0108917
0.0108932
0.0119139
0.0119156
0.0129596
0.0129614
0.0140277
0.0140296
0.0151173
0.0151194
0.0162276
0.0162297
0.0173577
0.0173599
0.0185068
0.0185092
0.0196742
0.0196767
0.0208591
0.0208618
0.0220609
0.0220637
0.0232788
0.0232818
0.0245122
0.0245153
0.0257604
0.0257637
0.0270226
0.0270261
0.0282984
0.028302
0.0295868
0.0295906
0.0308873
0.0308912
0.0321989
0.032203
0.033521
0.0335253
0.0348527
0.0348572
0.0361933
0.0361979
0.0375418
0.0375465
0.0388975
0.0389025
0.0402597
0.0402648
0.0416276
0.0416329
0.0430003
0.0430058
0.0443769
0.0443826
0.0457563
0.0457621
0.0471372
0.0471432
0.048518
0.0485242
0.0498971
0.0499035
0.0512728
0.0512794
0.0526433
0.0526501
0.054007
0.0540139
0.0553623
0.0553695
0.0567083
0.0567157
0.0580449
0.0580525
0.0593739
0.0593817
0.060699
0.0607071
0.0620261
0.0620344
0.0633615
0.0633701
0.0647081
0.064717
0.0660625
0.0660715
0.0674058
0.0674151
0.0687083
0.0687177
0.0699314
0.0699409
0.0710358
0.0710454
0.07199
0.0719996
0.0727769
0.0727863
0.0733956
0.0734047
0.07386
0.0738688
0.0741944
0.0742028
0.0744285
0.0744365
0.0745927
0.0746002
0.0747151
0.0747222
0.0748192
0.074826
0.0749234
0.07493
0.0750403
0.0750467
0.0751779
0.0751842
0.0753384
0.0753444
0.0755205
0.0755264
0.0757203
0.0757259
0.075932
0.0759373
0.0761487
0.0761537
0.0763632
0.0763677
0.0765685
0.0765726
0.0767581
0.0767618
0.0769263
0.0769296
0.077068
0.0770709
0.0771792
0.0771818
0.0772568
0.0772592
0.0772991
0.0773012
0.0773056
0.0773075
0.0772774
0.0772792
0.0772173
0.0772189
0.0771294
0.0771309
0.0770194
0.0770208
0.0768937
0.076895
0.0767588
0.0767601
0.0766211
0.0766223
0.0764861
0.0764873
0.0763579
0.0763591
0.0762396
0.0762408
0.0761331
0.0761342
0.0760392
0.0760402
0.0759583
0.0759593
0.0758908
0.0758918
0.0758374
0.0758384
0.0757993
0.0758002
0.0757778
0.0757787
0.0757747
0.0757756
0.0757918
0.0757926
0.0758303
0.0758311
0.0758907
0.0758915
0.0759723
0.075973
0.0760731
0.0760738
0.0761901
0.0761908
0.0763192
0.0763198
0.0764556
0.0764563
0.0765953
0.0765959
0.076735
0.0767356
0.0768735
0.076874
0.0770118
0.0770123
0.0771535
0.077154
0.0773045
0.077305
0.0774719
0.0774724
0.0776632
0.0776636
0.0778849
0.0778853
0.0781423
0.0781427
0.0784375
0.0784379
0.0787704
0.0787708
0.0791391
0.0791396
0.0795407
0.0795411
0.0799718
0.0799723
0.0804298
0.0804303
0.0809129
0.0809134
0.0814205
0.081421
0.0819532
0.0819537
0.0825121
0.0825126
0.083099
0.0830995
0.0837157
0.0837162
0.0843637
0.0843643
0.0850444
0.085045
0.0857584
0.085759
0.0865059
0.0865066
0.0872867
0.0872874
0.0881001
0.0881008
0.0889451
0.0889458
0.0898208
0.0898216
0.0907265
0.0907273
0.091662
0.0916629
0.0926277
0.0926286
0.0936247
0.0936257
0.094655
0.0946561
0.0957213
0.0957224
0.0968267
0.0968279
0.0979748
0.0979761
0.0991693
0.0991707
0.100414
0.100415
0.101711
0.101713
0.103065
0.103066
0.104476
0.104478
0.105946
0.105948
0.107474
0.107476
0.109061
0.109063
0.110702
0.110705
0.112395
0.112398
0.114133
0.114136
0.115909
0.115912
0.117712
0.117716
0.119531
0.119535
0.121351
0.121355
0.123158
0.123162
0.124935
0.124939
0.126667
0.126671
0.128342
0.128345
0.12995
0.129953
0.131489
0.131491
0.132962
0.132962
0.134379
0.134379
0.135758
0.135757
0.137123
0.137122
0.138501
0.138501
0.139923
0.139922
0.141413
0.141413
0.142993
0.142993
0.144672
0.144672
0.146451
0.146452
0.148316
0.148317
0.150246
0.150247
0.152211
0.152212
0.15418
0.154181
0.15612
0.156121
0.158004
0.158004
0.159811
0.15981
0.161526
0.161523
0.16314
0.163137
0.164655
0.164652
0.166078
0.166075
0.167422
0.167419
0.168704
0.168702
0.169946
0.169943
0.171168
0.171166
0.172393
0.172391
0.173643
0.173641
0.174938
0.174937
0.176297
0.176296
0.177737
0.177736
0.179272
0.179272
0.180916
0.180916
0.182679
0.182679
0.184567
0.184567
0.186584
0.186585
0.188732
0.188732
0.191004
0.191005
0.193391
0.193393
0.195876
0.195878
0.198434
0.198436
0.201033
0.201036
0.203634
0.203637
0.206192
0.206195
0.20866
0.208664
0.210991
0.210995
0.213143
0.213147
0.215085
0.215089
0.216799
0.216803
0.218289
0.218292
0.219578
0.21958
0.220707
0.220707
0.221725
0.221725
0.222697
0.222696
0.223685
0.223684
0.224747
0.224747
0.225924
0.225924
0.227236
0.227236
0.228681
0.228681
0.230239
0.230241
0.231884
0.231885
0.233584
0.233586
0.235318
0.23532
0.237078
0.23708
0.238874
0.238875
0.240727
0.240727
0.242666
0.242665
0.244722
0.244722
0.246929
0.246929
0.249316
0.249315
0.251902
0.251902
0.254704
0.254704
0.257734
0.257734
0.260999
0.260999
0.264508
0.264508
0.268271
0.268271
0.272296
0.272296
0.276591
0.276591
0.281165
0.281165
0.286022
0.286023
0.291165
0.291165
0.296593
0.296593
0.302304
0.302305
0.308296
0.308297
0.314566
0.314566
0.321111
0.321112
0.327933
0.327933
0.335033
0.335033
0.342415
0.342416
0.350088
0.350089
0.35806
0.35806
0.366339
0.366339
0.374932
0.374933
0.383847
0.383847
0.393085
0.393085
0.402646
0.402646
0.412528
0.412528
0.422725
0.422725
0.433231
0.433231
0.444038
0.444038
0.455138
0.455139
0.466525
0.466525
0.478188
0.478189
0.490121
0.490122
0.502314
0.502314
0.514757
0.514757
0.52744
0.52744
0.54035
0.540351
0.553477
0.553477
0.566807
0.566807
0.580328
0.580328
0.594028
0.594028
0.607897
0.607897
0.621926
0.621927
0.636109
0.636109
0.650438
0.650438
0.664907
0.664907
0.679508
0.679509
0.694232
0.694233
0.709066
0.709067
0.723994
0.723995
0.738999
0.738999
0.754061
0.754061
0.769164
0.769164
0.784292
0.784292
0.799431
0.799431
0.81457
0.81457
0.829702
0.829702
0.84482
0.844821
0.859921
0.859921
0.874998
0.874999
0.890048
0.890049
0.905064
0.905064
0.920038
0.920038
0.934961
0.934961
0.949821
0.949822
0.964603
0.964603
0.979279
0.97928
0.993805
0.993806
1.00809
1.00809
1.02196
1.02196
1.03501
1.03501
1.04646
1.04646
1.05468
1.05467
1.05441
1.05441
1.05443
1.05443
1.0547
1.0547
1.04648
1.04648
1.03504
1.03504
1.02198
1.02198
1.00811
1.00811
0.993825
0.993825
0.979298
0.979298
0.96462
0.96462
0.949837
0.949837
0.934976
0.934976
0.920052
0.920052
0.905077
0.905077
0.890062
0.890061
0.875012
0.875012
0.859935
0.859935
0.844836
0.844836
0.829718
0.829718
0.814586
0.814586
0.799447
0.799447
0.784309
0.784309
0.769182
0.769182
0.75408
0.75408
0.739019
0.739019
0.724015
0.724015
0.709087
0.709087
0.694254
0.694254
0.67953
0.67953
0.664929
0.664929
0.65046
0.65046
0.636131
0.636131
0.62195
0.62195
0.607921
0.607921
0.594052
0.594052
0.580351
0.580351
0.56683
0.56683
0.553499
0.553499
0.540372
0.540372
0.527461
0.527461
0.514778
0.514778
0.502335
0.502335
0.490142
0.490142
0.478209
0.478208
0.466544
0.466544
0.455158
0.455157
0.444056
0.444056
0.433249
0.433248
0.422742
0.422742
0.412544
0.412544
0.402661
0.402661
0.393099
0.393099
0.38386
0.38386
0.374945
0.374945
0.366351
0.366351
0.358071
0.358071
0.350099
0.350099
0.342425
0.342425
0.335041
0.335041
0.327941
0.327941
0.321119
0.321118
0.314572
0.314572
0.308301
0.308301
0.302308
0.302308
0.296596
0.296596
0.291167
0.291167
0.286024
0.286024
0.281166
0.281166
0.276592
0.276591
0.272295
0.272295
0.26827
0.26827
0.264507
0.264507
0.260996
0.260996
0.257731
0.257731
0.254701
0.254701
0.251898
0.251898
0.24931
0.249311
0.246924
0.246924
0.244716
0.244716
0.242659
0.24266
0.240721
0.240722
0.23887
0.23887
0.237075
0.237075
0.235317
0.235315
0.233583
0.233582
0.231883
0.231882
0.23024
0.230239
0.228681
0.22868
0.227236
0.227235
0.225924
0.225924
0.224747
0.224747
0.223684
0.223685
0.222696
0.222697
0.221726
0.221727
0.220709
0.220709
0.219584
0.219582
0.218297
0.218294
0.216809
0.216805
0.215095
0.215091
0.213153
0.21315
0.211001
0.210998
0.20867
0.208667
0.206202
0.2062
0.203644
0.203642
0.201043
0.201041
0.198443
0.198442
0.195885
0.195883
0.193399
0.193398
0.191011
0.19101
0.188738
0.188737
0.18659
0.18659
0.184572
0.184572
0.182683
0.182683
0.18092
0.180921
0.179276
0.179276
0.177739
0.17774
0.176299
0.1763
0.17494
0.174941
0.173644
0.173646
0.172394
0.172396
0.171168
0.17117
0.169945
0.169948
0.168704
0.168706
0.167421
0.167424
0.166077
0.16608
0.164654
0.164657
0.163139
0.163142
0.161525
0.161527
0.159811
0.159813
0.158006
0.158006
0.156122
0.156121
0.154182
0.15418
0.152213
0.152211
0.150247
0.150246
0.148317
0.148316
0.146452
0.146451
0.144672
0.144672
0.142993
0.142993
0.141413
0.141413
0.139922
0.139923
0.1385
0.138501
0.137122
0.137123
0.135757
0.135758
0.134379
0.134379
0.132962
0.132962
0.13149
0.131489
0.129953
0.12995
0.128345
0.128342
0.126671
0.126667
0.124939
0.124935
0.123162
0.123158
0.121355
0.121351
0.119535
0.119531
0.117716
0.117712
0.115912
0.115909
0.114136
0.114133
0.112398
0.112395
0.110704
0.110702
0.109063
0.10906
0.107476
0.107474
0.105947
0.105945
0.104477
0.104475
0.103066
0.103064
0.101712
0.10171
0.100414
0.100413
0.0991693
0.0991679
0.0979746
0.0979732
0.0968262
0.0968249
0.0957205
0.0957193
0.0946539
0.0946528
0.0936232
0.0936222
0.0926259
0.0926249
0.0916598
0.0916589
0.090724
0.0907231
0.089818
0.0898171
0.0889419
0.0889412
0.0880966
0.0880959
0.087283
0.0872823
0.0865019
0.0865013
0.0857541
0.0857535
0.0850399
0.0850393
0.084359
0.0843584
0.0837107
0.0837102
0.0830939
0.0830933
0.0825067
0.0825062
0.0819475
0.081947
0.0814146
0.0814141
0.0809066
0.0809061
0.0804232
0.0804227
0.0799649
0.0799644
0.0795335
0.079533
0.0791316
0.0791312
0.0787627
0.0787622
0.0784295
0.0784291
0.0781341
0.0781336
0.0778765
0.077876
0.0776545
0.0776541
0.0774631
0.0774627
0.0772956
0.0772951
0.0771445
0.077144
0.0770026
0.0770021
0.0768642
0.0768637
0.0767257
0.0767251
0.0765859
0.0765853
0.0764461
0.0764455
0.0763097
0.076309
0.0761806
0.0761799
0.0760635
0.0760628
0.0759626
0.0759619
0.075881
0.0758802
0.0758205
0.0758197
0.0757819
0.0757811
0.0757648
0.0757639
0.0757677
0.0757669
0.0757891
0.0757882
0.0758272
0.0758263
0.0758805
0.0758796
0.075948
0.075947
0.0760288
0.0760278
0.0761227
0.0761216
0.0762292
0.0762281
0.0763475
0.0763464
0.0764756
0.0764744
0.0766106
0.0766094
0.0767482
0.076747
0.0768831
0.0768818
0.0770088
0.0770074
0.0771189
0.0771174
0.0772068
0.0772052
0.0772672
0.0772655
0.0772957
0.0772938
0.0772895
0.0772874
0.0772475
0.0772451
0.07717
0.0771674
0.0770591
0.0770561
0.0769176
0.0769142
0.0767497
0.0767459
0.0765603
0.0765561
0.0763553
0.0763506
0.076141
0.076136
0.0759246
0.0759191
0.075713
0.0757072
0.0755132
0.0755072
0.0753312
0.0753249
0.0751708
0.0751643
0.0750332
0.0750266
0.0749164
0.0749095
0.0748123
0.0748052
0.0747083
0.0747009
0.0745863
0.0745785
0.0744225
0.0744143
0.0741889
0.0741802
0.0738551
0.0738459
0.0733914
0.0733819
0.0727733
0.0727635
0.0719869
0.071977
0.071033
0.071023
0.0699287
0.0699188
0.0687057
0.0686958
0.0674032
0.0673936
0.06606
0.0660506
0.0647057
0.0646965
0.0633589
0.06335
0.0620234
0.0620148
0.0606962
0.0606879
0.0593711
0.059363
0.0580422
0.0580343
0.0567056
0.0566979
0.0553597
0.0553523
0.0540045
0.0539973
0.052641
0.052634
0.0512706
0.0512637
0.0498949
0.0498883
0.048516
0.0485095
0.0471353
0.047129
0.0457546
0.0457485
0.0443753
0.0443694
0.0429988
0.0429931
0.0416262
0.0416207
0.0402584
0.0402531
0.0388963
0.0388912
0.0375407
0.0375357
0.0361923
0.0361875
0.0348518
0.0348472
0.0335202
0.0335158
0.0321982
0.0321939
0.0308866
0.0308825
0.0295862
0.0295823
0.0282978
0.0282941
0.0270221
0.0270186
0.0257599
0.0257565
0.0245118
0.0245085
0.0232785
0.0232753
0.0220606
0.0220576
0.0208589
0.020856
0.019674
0.0196713
0.0185066
0.0185041
0.0173575
0.0173552
0.0162275
0.0162253
0.0151173
0.0151152
0.0140277
0.0140257
0.0129596
0.0129578
0.011914
0.0119123
0.0108917
0.0108901
0.00989389
0.00989243
0.00892168
0.00892033
0.00797636
0.00797513
0.0070594
0.00705828
0.00617248
0.00617147
0.00531761
0.0053167
0.0044972
0.0044964
0.00371429
0.00371359
0.00297278
0.00297218
0.00227804
0.00227754
0.00163783
0.00163742
0.00106439
0.00106408
0.000579051
0.00057884
0.000220988
0.000220879
4.01017e-05
4.00748e-05
2.02033e-06
2.01883e-06
1.22505e-08
1.22408e-08
1.05441
1.05441
1.05468
1.05468
1.04646
1.04646
1.03502
1.03502
1.02196
1.02196
1.0081
1.0081
0.993814
0.993815
0.97929
0.97929
0.964614
0.964614
0.949833
0.949833
0.934972
0.934973
0.920049
0.92005
0.905076
0.905076
0.89006
0.89006
0.875011
0.875011
0.859934
0.859935
0.844835
0.844835
0.829717
0.829718
0.814586
0.814586
0.799447
0.799447
0.784308
0.784309
0.769181
0.769182
0.754079
0.75408
0.739018
0.739018
0.724014
0.724014
0.709086
0.709087
0.694253
0.694253
0.679529
0.67953
0.664928
0.664929
0.650459
0.65046
0.636131
0.636131
0.621949
0.62195
0.60792
0.607921
0.594051
0.594052
0.580351
0.580351
0.566829
0.56683
0.553499
0.553499
0.540372
0.540372
0.527461
0.527461
0.514778
0.514778
0.502334
0.502335
0.490141
0.490142
0.478208
0.478208
0.466544
0.466544
0.455157
0.455157
0.444056
0.444056
0.433248
0.433248
0.422742
0.422742
0.412544
0.412544
0.402661
0.402662
0.393099
0.393099
0.38386
0.383861
0.374945
0.374946
0.366351
0.366351
0.358071
0.358072
0.350099
0.350099
0.342425
0.342425
0.335041
0.335041
0.32794
0.327941
0.321118
0.321118
0.314571
0.314571
0.3083
0.308301
0.302307
0.302308
0.296595
0.296595
0.291166
0.291167
0.286023
0.286024
0.281166
0.281166
0.276591
0.276591
0.272295
0.272295
0.268269
0.26827
0.264506
0.264506
0.260996
0.260996
0.257731
0.257731
0.254701
0.254701
0.251898
0.251898
0.249311
0.24931
0.246924
0.246924
0.244716
0.244716
0.24266
0.242659
0.240721
0.240721
0.238869
0.238869
0.237074
0.237075
0.235314
0.235316
0.233581
0.233582
0.231881
0.231883
0.230237
0.230239
0.228679
0.22868
0.227235
0.227235
0.225924
0.225924
0.224747
0.224747
0.223685
0.223685
0.222698
0.222697
0.221727
0.221727
0.22071
0.22071
0.219582
0.219584
0.218293
0.218297
0.216804
0.216808
0.21509
0.215094
0.213148
0.213152
0.210996
0.211
0.208665
0.208669
0.206197
0.206201
0.203639
0.203642
0.201039
0.201041
0.198439
0.198441
0.195881
0.195883
0.193396
0.193397
0.191009
0.19101
0.188736
0.188737
0.186588
0.186589
0.18457
0.184571
0.182682
0.182682
0.18092
0.180919
0.179275
0.179275
0.177739
0.177739
0.176299
0.176298
0.17494
0.174939
0.173645
0.173644
0.172395
0.172393
0.17117
0.171168
0.169947
0.169945
0.168706
0.168703
0.167423
0.16742
0.166079
0.166076
0.164656
0.164653
0.163141
0.163138
0.161526
0.161524
0.159812
0.15981
0.158005
0.158005
0.15612
0.156121
0.154179
0.154181
0.15221
0.152212
0.150245
0.150246
0.148315
0.148316
0.14645
0.146451
0.144671
0.144672
0.142992
0.142992
0.141413
0.141413
0.139922
0.139922
0.138501
0.1385
0.137122
0.137121
0.135758
0.135757
0.134379
0.134378
0.132962
0.132962
0.131489
0.13149
0.12995
0.129952
0.128341
0.128345
0.126667
0.126671
0.124934
0.124938
0.123157
0.123162
0.121351
0.121355
0.119531
0.119534
0.117712
0.117715
0.115908
0.115912
0.114133
0.114136
0.112394
0.112397
0.110701
0.110704
0.10906
0.109062
0.107473
0.107476
0.105944
0.105947
0.104475
0.104477
0.103063
0.103065
0.10171
0.101712
0.100412
0.100414
0.0991676
0.0991691
0.0979729
0.0979743
0.0968246
0.0968259
0.095719
0.0957202
0.0946525
0.0946537
0.093622
0.093623
0.0926247
0.0926256
0.0916587
0.0916596
0.0907229
0.0907238
0.0898169
0.0898178
0.0889409
0.0889417
0.0880957
0.0880964
0.0872821
0.0872828
0.0865011
0.0865017
0.0857533
0.085754
0.0850391
0.0850397
0.0843583
0.0843588
0.08371
0.0837106
0.0830932
0.0830937
0.0825061
0.0825066
0.0819469
0.0819474
0.0814139
0.0814144
0.080906
0.0809065
0.0804226
0.0804231
0.0799643
0.0799648
0.0795329
0.0795334
0.0791311
0.0791315
0.0787621
0.0787626
0.078429
0.0784294
0.0781335
0.078134
0.0778759
0.0778764
0.077654
0.0776545
0.0774626
0.077463
0.077295
0.0772955
0.0771439
0.0771444
0.077002
0.0770025
0.0768636
0.0768641
0.076725
0.0767256
0.0765852
0.0765858
0.0764455
0.0764461
0.0763089
0.0763096
0.0761799
0.0761806
0.0760628
0.0760635
0.0759618
0.0759626
0.0758801
0.0758809
0.0758196
0.0758205
0.075781
0.0757819
0.0757638
0.0757647
0.0757668
0.0757677
0.0757882
0.0757891
0.0758262
0.0758272
0.0758795
0.0758805
0.0759469
0.0759479
0.0760277
0.0760288
0.0761216
0.0761227
0.0762281
0.0762292
0.0763463
0.0763475
0.0764743
0.0764756
0.0766093
0.0766106
0.0767469
0.0767482
0.0768817
0.0768831
0.0770074
0.0770088
0.0771173
0.0771189
0.0772052
0.0772068
0.0772654
0.0772672
0.0772937
0.0772957
0.0772873
0.0772895
0.0772451
0.0772475
0.0771673
0.07717
0.077056
0.0770591
0.0769142
0.0769176
0.0767459
0.0767497
0.0765561
0.0765603
0.0763506
0.0763553
0.0761359
0.0761411
0.075919
0.0759246
0.0757071
0.075713
0.0755071
0.0755133
0.0753249
0.0753312
0.0751643
0.0751708
0.0750265
0.0750332
0.0749095
0.0749164
0.0748051
0.0748123
0.0747009
0.0747084
0.0745785
0.0745864
0.0744142
0.0744226
0.0741801
0.0741889
0.0738459
0.0738551
0.0733818
0.0733914
0.0727634
0.0727733
0.0719769
0.0719869
0.0710229
0.071033
0.0699187
0.0699287
0.0686958
0.0687057
0.0673935
0.0674032
0.0660505
0.06606
0.0646965
0.0647057
0.06335
0.0633589
0.0620148
0.0620235
0.0606878
0.0606963
0.0593629
0.0593711
0.0580342
0.0580422
0.0566979
0.0567056
0.0553522
0.0553597
0.0539973
0.0540046
0.0526339
0.052641
0.0512637
0.0512706
0.0498883
0.049895
0.0485095
0.048516
0.047129
0.0471353
0.0457485
0.0457546
0.0443694
0.0443753
0.0429931
0.0429989
0.0416207
0.0416262
0.0402531
0.0402585
0.0388912
0.0388964
0.0375357
0.0375407
0.0361875
0.0361923
0.0348472
0.0348519
0.0335158
0.0335202
0.0321939
0.0321982
0.0308825
0.0308866
0.0295823
0.0295862
0.0282941
0.0282978
0.0270185
0.0270222
0.0257565
0.0257599
0.0245085
0.0245118
0.0232753
0.0232785
0.0220576
0.0220606
0.020856
0.0208589
0.0196713
0.019674
0.0185041
0.0185066
0.0173552
0.0173576
0.0162253
0.0162275
0.0151152
0.0151173
0.0140257
0.0140277
0.0129578
0.0129596
0.0119123
0.011914
0.0108901
0.0108917
0.00989243
0.0098939
0.00892033
0.00892169
0.00797513
0.00797637
0.00705828
0.00705941
0.00617147
0.00617249
0.0053167
0.00531761
0.0044964
0.00449721
0.00371359
0.00371429
0.00297218
0.00297279
0.00227754
0.00227805
0.00163742
0.00163783
0.00106408
0.00106439
0.00057884
0.000579052
0.000220879
0.000220988
4.00748e-05
4.01018e-05
2.01882e-06
2.02033e-06
1.22408e-08
1.22505e-08
)
;

boundaryField
{
    walls
    {
        type            nutUWallFunction;
        blending        stepwise;
        Cmu             0.09;
        kappa           0.41;
        E               9.8;
        value           uniform 0;
    }
    inlet
    {
        type            cyclic;
    }
    outlet
    {
        type            cyclic;
    }
    sides
    {
        type            empty;
    }
}


// ************************************************************************* //
