/*--------------------------------*- C++ -*----------------------------------*\
| =========                 |                                                 |
| \\      /  F ield         | OpenFOAM: The Open Source CFD Toolbox           |
|  \\    /   O peration     | Version:  2012                                  |
|   \\  /    A nd           | Website:  www.openfoam.com                      |
|    \\/     M anipulation  |                                                 |
\*---------------------------------------------------------------------------*/
FoamFile
{
    version     2.0;
    format      ascii;
    class       volScalarField;
    location    "12800";
    object      omega;
}
// * * * * * * * * * * * * * * * * * * * * * * * * * * * * * * * * * * * * * //

dimensions      [0 0 -1 0 0 0 0];


internalField   nonuniform List<scalar> 
2560
(
1.52418e+06
1.52418e+06
263750
263753
87262.5
87265.4
41825.1
41825.7
26120.4
26120
19047.7
19047
15142.6
15141.9
12677.8
12677.1
10978.2
10977.5
9732.32
9731.7
8777.67
8777.09
8021.35
8020.81
7406.43
7405.92
6896.04
6895.57
6465.26
6464.82
6096.58
6096.16
5777.35
5776.96
5498.21
5497.84
5252.05
5251.7
5033.39
5033.05
4837.92
4837.59
4662.2
4661.89
4503.46
4503.16
4359.43
4359.15
4228.26
4227.99
4108.39
4108.13
3998.53
3998.27
3897.56
3897.31
3804.56
3804.31
3718.72
3718.48
3639.36
3639.12
3565.87
3565.64
3497.74
3497.51
3434.5
3434.28
3375.75
3375.53
3321.12
3320.9
3270.28
3270.06
3222.94
3222.72
3178.83
3178.62
3137.74
3137.53
3099.44
3099.23
3063.75
3063.54
3030.5
3030.3
2999.55
2999.34
2970.73
2970.52
2943.9
2943.69
2918.9
2918.69
2895.59
2895.38
2873.8
2873.59
2853.39
2853.18
2834.21
2833.99
2816.12
2815.9
2799.01
2798.79
2782.79
2782.57
2767.46
2767.23
2753.06
2752.83
2739.81
2739.57
2728
2727.76
2717.96
2717.7
2709.86
2709.6
2703.6
2703.33
2698.34
2698.07
2692.79
2692.51
2685.23
2684.94
2673.91
2673.62
2657.44
2657.15
2635.05
2634.77
2606.69
2606.42
2572.93
2572.68
2534.8
2534.56
2493.48
2493.26
2450.18
2449.98
2405.98
2405.79
2361.73
2361.56
2318.08
2317.92
2275.45
2275.29
2234.07
2233.92
2194
2193.85
2155.16
2155.01
2117.41
2117.28
2080.56
2080.44
2044.4
2044.28
2008.7
2008.6
1973.29
1973.2
1937.98
1937.9
1902.63
1902.57
1867.13
1867.08
1831.39
1831.35
1795.37
1795.33
1759.04
1759.01
1722.43
1722.4
1685.59
1685.57
1648.62
1648.6
1611.65
1611.63
1574.81
1574.8
1538.27
1538.26
1502.17
1502.16
1466.65
1466.64
1431.81
1431.8
1397.71
1397.71
1364.41
1364.4
1331.91
1331.91
1300.21
1300.21
1269.29
1269.29
1239.14
1239.14
1209.75
1209.75
1181.11
1181.11
1153.22
1153.22
1126.1
1126.1
1099.73
1099.73
1074.13
1074.13
1049.26
1049.26
1025.11
1025.11
1001.6
1001.6
978.689
978.69
956.292
956.293
934.334
934.336
912.747
912.749
891.481
891.484
870.512
870.515
849.846
849.849
829.517
829.52
809.581
809.584
790.106
790.109
771.155
771.159
752.781
752.784
735.013
735.017
717.851
717.855
701.271
701.274
685.232
685.235
669.686
669.689
654.587
654.59
639.893
639.896
625.575
625.578
611.615
611.619
598.004
598.007
584.739
584.742
571.82
571.823
559.248
559.251
547.021
547.024
535.137
535.14
523.589
523.591
512.365
512.367
501.452
501.455
490.837
490.839
480.503
480.505
470.435
470.437
460.621
460.622
451.049
451.051
441.715
441.716
432.615
432.617
423.752
423.754
415.132
415.133
406.761
406.762
398.648
398.648
390.802
390.803
383.232
383.232
375.943
375.943
368.941
368.94
362.227
362.226
355.799
355.798
349.655
349.652
343.784
343.782
338.177
338.174
332.817
332.813
327.683
327.678
322.748
322.743
317.981
317.976
313.345
313.339
308.799
308.792
304.299
304.292
299.801
299.793
295.264
295.257
290.655
290.649
285.952
285.947
281.147
281.145
276.25
276.25
271.285
271.287
266.291
266.293
261.318
261.321
256.425
256.427
251.667
251.669
247.092
247.093
242.734
242.735
238.611
238.611
234.719
234.719
231.033
231.033
227.514
227.513
224.113
224.111
220.777
220.775
217.456
217.455
214.107
214.107
210.699
210.701
207.212
207.216
203.638
203.643
199.977
199.982
196.24
196.245
192.447
192.452
188.62
188.624
184.784
184.788
180.965
180.968
177.187
177.19
173.473
173.476
169.844
169.846
166.315
166.317
162.902
162.904
159.616
159.617
156.465
156.466
153.455
153.456
150.591
150.591
147.871
147.872
145.295
145.296
142.857
142.857
140.545
140.545
138.346
138.345
136.239
136.239
134.201
134.2
132.202
132.201
130.21
130.209
128.193
128.191
126.118
126.117
123.961
123.959
121.702
121.7
119.331
119.33
116.854
116.853
114.287
114.287
111.656
111.656
108.991
108.991
106.325
106.326
103.692
103.693
101.119
101.119
98.6206
98.6209
96.2041
96.2042
93.8647
93.8647
91.5903
91.5902
89.3654
89.3652
87.1751
87.1748
85.0084
85.0081
82.8601
82.86
80.7322
80.7324
78.6308
78.6311
76.5638
76.5641
74.5395
74.5398
72.5657
72.566
70.6481
70.6484
68.7898
68.79
66.9918
66.992
65.2539
65.254
63.575
63.5752
61.9542
61.9544
60.3907
60.3909
58.8838
58.8839
57.4326
57.4327
56.0363
56.0364
54.6934
54.6934
53.402
53.402
52.1599
52.16
50.9649
50.9649
49.8144
49.8144
48.7062
48.7062
47.6383
47.6383
46.6093
46.6093
45.618
45.6181
44.664
44.664
43.7468
43.7468
42.8666
42.8666
42.0233
42.0233
41.2171
41.2171
40.4477
40.4477
39.7147
39.7147
39.0173
39.0173
38.3548
38.3548
37.7259
37.7259
37.1296
37.1296
36.5649
36.5649
36.0306
36.0306
35.5259
35.5259
35.0497
35.0497
34.6014
34.6014
34.18
34.18
33.7847
33.7847
33.4148
33.4148
33.0694
33.0694
32.7478
32.7478
32.4491
32.4491
32.1728
32.1728
31.9182
31.9182
31.685
31.685
31.4727
31.4727
31.2812
31.2812
31.1105
31.1105
30.9605
30.9605
30.8312
30.8312
30.7225
30.7225
30.6341
30.6341
30.5658
30.5658
30.5173
30.5173
30.488
30.488
30.4779
30.4779
30.4866
30.4866
30.5143
30.5143
30.5609
30.5609
30.6268
30.6268
30.7125
30.7125
30.8183
30.8183
30.9449
30.9449
31.0928
31.0928
31.2627
31.2627
31.4552
31.4552
31.6708
31.6708
31.9101
31.9101
32.1736
32.1736
32.4615
32.4614
32.773
32.773
33.1062
33.1062
33.4552
33.4552
33.807
33.807
34.1324
34.1324
34.3725
34.3725
34.3385
34.3385
1.52418e+06
1.52418e+06
263753
263750
87265.4
87262.5
41825.7
41825.1
26120
26120.4
19047
19047.7
15141.8
15142.6
12677.1
12677.8
10977.5
10978.2
9731.69
9732.32
8777.09
8777.67
8020.81
8021.35
7405.92
7406.43
6895.57
6896.05
6464.81
6465.26
6096.16
6096.58
5776.96
5777.35
5497.84
5498.21
5251.7
5252.05
5033.05
5033.39
4837.59
4837.92
4661.89
4662.2
4503.16
4503.46
4359.15
4359.43
4227.99
4228.26
4108.13
4108.39
3998.27
3998.53
3897.31
3897.56
3804.31
3804.56
3718.48
3718.72
3639.12
3639.36
3565.64
3565.87
3497.51
3497.74
3434.28
3434.5
3375.53
3375.75
3320.9
3321.12
3270.06
3270.28
3222.72
3222.94
3178.62
3178.83
3137.53
3137.74
3099.23
3099.44
3063.54
3063.75
3030.3
3030.5
2999.34
2999.55
2970.52
2970.73
2943.69
2943.9
2918.69
2918.9
2895.38
2895.59
2873.59
2873.8
2853.18
2853.39
2833.99
2834.21
2815.9
2816.12
2798.79
2799.01
2782.57
2782.79
2767.23
2767.46
2752.83
2753.07
2739.57
2739.81
2727.76
2728
2717.7
2717.96
2709.6
2709.86
2703.33
2703.6
2698.07
2698.35
2692.51
2692.79
2684.94
2685.23
2673.62
2673.91
2657.15
2657.44
2634.77
2635.05
2606.42
2606.69
2572.68
2572.93
2534.56
2534.8
2493.26
2493.48
2449.98
2450.19
2405.79
2405.98
2361.56
2361.73
2317.92
2318.08
2275.29
2275.45
2233.92
2234.07
2193.85
2194
2155.01
2155.16
2117.28
2117.41
2080.44
2080.56
2044.28
2044.4
2008.6
2008.7
1973.2
1973.29
1937.9
1937.98
1902.57
1902.63
1867.07
1867.13
1831.35
1831.39
1795.33
1795.37
1759.01
1759.04
1722.4
1722.43
1685.57
1685.59
1648.6
1648.62
1611.63
1611.65
1574.8
1574.81
1538.26
1538.27
1502.16
1502.17
1466.64
1466.65
1431.8
1431.81
1397.71
1397.71
1364.4
1364.41
1331.91
1331.91
1300.21
1300.21
1269.29
1269.29
1239.14
1239.14
1209.75
1209.75
1181.11
1181.11
1153.22
1153.22
1126.1
1126.1
1099.73
1099.73
1074.13
1074.13
1049.26
1049.26
1025.11
1025.11
1001.6
1001.6
978.69
978.689
956.293
956.292
934.336
934.334
912.749
912.747
891.484
891.481
870.515
870.512
849.849
849.846
829.52
829.517
809.584
809.581
790.109
790.105
771.159
771.155
752.784
752.78
735.016
735.013
717.855
717.851
701.274
701.271
685.235
685.231
669.689
669.686
654.589
654.586
639.895
639.892
625.578
625.575
611.618
611.615
598.007
598.004
584.742
584.738
571.822
571.819
559.25
559.247
547.024
547.021
535.139
535.137
523.59
523.588
512.366
512.364
501.454
501.452
490.839
490.837
480.505
480.502
470.437
470.435
460.622
460.62
451.05
451.048
441.715
441.714
432.616
432.614
423.753
423.752
415.132
415.131
406.761
406.76
398.648
398.647
390.802
390.801
383.231
383.231
375.942
375.943
368.939
368.94
362.225
362.226
355.797
355.799
349.652
349.654
343.781
343.784
338.173
338.177
332.812
332.816
327.677
327.682
322.742
322.747
317.975
317.981
313.338
313.345
308.792
308.799
304.291
304.299
299.792
299.8
295.256
295.264
290.648
290.655
285.946
285.952
281.144
281.147
276.25
276.25
271.286
271.285
266.293
266.29
261.321
261.318
256.427
256.424
251.668
251.666
247.093
247.091
242.734
242.733
238.61
238.61
234.718
234.718
231.032
231.032
227.512
227.513
224.11
224.111
220.774
220.775
217.454
217.455
214.106
214.106
210.7
210.698
207.215
207.211
203.642
203.637
199.981
199.976
196.245
196.24
192.451
192.447
188.624
188.619
184.787
184.783
180.968
180.964
177.19
177.186
173.476
173.473
169.846
169.843
166.317
166.315
162.904
162.902
159.617
159.615
156.466
156.464
153.456
153.455
150.591
150.59
147.871
147.871
145.295
145.294
142.855
142.855
140.544
140.544
138.344
138.344
136.237
136.238
134.199
134.2
132.199
132.2
130.207
130.209
128.19
128.191
126.116
126.117
123.958
123.96
121.699
121.701
119.329
119.331
116.852
116.854
114.287
114.287
111.656
111.656
108.992
108.991
106.326
106.325
103.693
103.692
101.119
101.119
98.6208
98.6205
96.204
96.2038
93.8643
93.8644
91.5897
91.5899
89.3647
89.365
87.1743
87.1747
85.0077
85.0081
82.8597
82.8598
80.7322
80.732
78.6311
78.6307
76.5642
76.5637
74.5399
74.5394
72.5661
72.5657
70.6485
70.6481
68.7901
68.7898
66.9921
66.9918
65.2541
65.2538
63.5752
63.575
61.9544
61.9542
60.3909
60.3907
58.8839
58.8837
57.4327
57.4325
56.0363
56.0362
54.6933
54.6932
53.4019
53.4018
52.1599
52.1598
50.9648
50.9648
49.8143
49.8142
48.7061
48.706
47.6383
47.6382
46.6093
46.6092
45.6181
45.618
44.664
44.6639
43.7469
43.7468
42.8666
42.8666
42.0234
42.0233
41.2172
41.2171
40.4477
40.4477
39.7147
39.7147
39.0174
39.0173
38.3548
38.3548
37.7259
37.7259
37.1297
37.1296
36.5649
36.5649
36.0306
36.0306
35.5259
35.5259
35.0497
35.0497
34.6014
34.6014
34.18
34.18
33.7847
33.7847
33.4148
33.4148
33.0694
33.0694
32.7478
32.7477
32.4491
32.4491
32.1728
32.1728
31.9182
31.9182
31.685
31.685
31.4727
31.4727
31.2812
31.2812
31.1105
31.1105
30.9605
30.9605
30.8312
30.8312
30.7225
30.7225
30.6341
30.6341
30.5658
30.5658
30.5172
30.5172
30.488
30.488
30.4779
30.4779
30.4866
30.4866
30.5143
30.5143
30.5609
30.5609
30.6268
30.6268
30.7124
30.7124
30.8183
30.8183
30.9448
30.9448
31.0928
31.0928
31.2626
31.2626
31.4551
31.4551
31.6707
31.6707
31.91
31.91
32.1734
32.1734
32.4612
32.4612
32.7727
32.7727
33.1057
33.1057
33.4547
33.4547
33.8063
33.8063
34.1317
34.1317
34.3718
34.3718
34.3379
34.3379
34.3385
34.3385
34.3725
34.3725
34.1325
34.1325
33.8071
33.8071
33.4554
33.4554
33.1064
33.1064
32.7732
32.7732
32.4617
32.4617
32.1739
32.1739
31.9103
31.9103
31.671
31.671
31.4553
31.4553
31.2629
31.2629
31.0929
31.0929
30.945
30.945
30.8184
30.8184
30.7126
30.7126
30.627
30.627
30.5611
30.5611
30.5144
30.5144
30.4868
30.4868
30.478
30.478
30.4882
30.4882
30.5174
30.5174
30.566
30.566
30.6342
30.6342
30.7226
30.7226
30.8313
30.8313
30.9606
30.9606
31.1105
31.1105
31.2812
31.2812
31.4726
31.4726
31.6849
31.6849
31.9181
31.9181
32.1726
32.1726
32.4488
32.4489
32.7474
32.7474
33.069
33.069
33.4143
33.4143
33.7842
33.7842
34.1794
34.1794
34.6007
34.6007
35.049
35.049
35.525
35.5251
36.0297
36.0297
36.5639
36.5639
37.1286
37.1286
37.7247
37.7247
38.3535
38.3535
39.016
39.016
39.7132
39.7132
40.4461
40.4462
41.2154
41.2155
42.0216
42.0216
42.8647
42.8647
43.7448
43.7449
44.6619
44.6619
45.6158
45.6159
46.6069
46.607
47.6358
47.6358
48.7035
48.7035
49.8115
49.8116
50.9619
50.962
52.1569
52.1569
53.3988
53.3989
54.6901
54.6902
56.033
56.0331
57.4292
57.4293
58.8803
58.8804
60.3871
60.3873
61.9505
61.9507
63.5712
63.5713
65.2499
65.2501
66.9878
66.988
68.7857
68.7859
70.6439
70.6442
72.5613
72.5617
74.5349
74.5353
76.5592
76.5596
78.6263
78.6266
80.7279
80.728
82.856
82.8559
85.0046
85.0043
87.1715
87.1712
89.3621
89.3618
91.5872
91.5871
93.8618
93.8618
96.2012
96.2014
98.6179
98.6182
101.116
101.116
103.69
103.691
106.323
106.324
108.989
108.99
111.655
111.655
114.287
114.286
116.854
116.852
119.331
119.329
121.701
121.699
123.96
123.958
126.117
126.116
128.191
128.19
130.209
130.208
132.201
132.2
134.2
134.199
136.238
136.237
138.344
138.344
140.543
140.543
142.854
142.854
145.293
145.293
147.868
147.869
150.587
150.588
153.452
153.453
156.461
156.462
159.612
159.613
162.898
162.899
166.31
166.312
169.838
169.841
173.467
173.47
177.181
177.184
180.958
180.962
184.777
184.781
188.613
188.617
192.44
192.444
196.233
196.238
199.969
199.974
203.63
203.634
207.204
207.208
210.69
210.692
214.098
214.098
217.446
217.445
220.766
220.765
224.102
224.1
227.503
227.502
231.022
231.022
234.708
234.708
238.599
238.6
242.722
242.723
247.08
247.081
251.655
251.657
256.413
256.415
261.306
261.309
266.278
266.281
271.272
271.274
276.238
276.238
281.135
281.132
285.94
285.935
290.643
290.636
295.251
295.243
299.788
299.78
304.286
304.278
308.785
308.778
313.331
313.325
317.967
317.961
322.733
322.728
327.667
327.663
332.801
332.797
338.161
338.157
343.767
343.764
349.637
349.634
355.781
355.779
362.207
362.206
368.921
368.92
375.922
375.922
383.21
383.21
390.779
390.779
398.624
398.624
406.736
406.736
415.105
415.107
423.725
423.726
432.586
432.587
441.684
441.685
451.016
451.018
460.586
460.588
470.399
470.401
480.465
480.467
490.797
490.8
501.411
501.414
512.322
512.324
523.544
523.547
535.091
535.094
546.974
546.977
559.199
559.202
571.77
571.773
584.687
584.69
597.95
597.954
611.559
611.562
625.516
625.519
639.831
639.834
654.522
654.525
669.618
669.622
685.161
685.165
701.198
701.202
717.777
717.78
734.936
734.94
752.701
752.705
771.073
771.077
790.021
790.025
809.494
809.498
829.428
829.432
849.755
849.758
870.419
870.423
891.387
891.39
912.651
912.653
934.236
934.238
956.192
956.194
978.588
978.589
1001.5
1001.5
1025
1025
1049.16
1049.16
1074.02
1074.02
1099.62
1099.62
1125.98
1125.98
1153.11
1153.1
1180.99
1180.99
1209.63
1209.62
1239.02
1239.01
1269.16
1269.16
1300.08
1300.08
1331.78
1331.77
1364.28
1364.27
1397.58
1397.57
1431.67
1431.66
1466.51
1466.5
1502.03
1502.02
1538.12
1538.11
1574.66
1574.65
1611.49
1611.48
1648.47
1648.45
1685.43
1685.41
1722.27
1722.25
1758.89
1758.85
1795.21
1795.18
1831.24
1831.19
1866.97
1866.91
1902.46
1902.4
1937.81
1937.73
1973.11
1973.02
2008.52
2008.42
2044.2
2044.09
2080.36
2080.23
2117.2
2117.07
2154.95
2154.8
2193.78
2193.63
2233.85
2233.69
2275.22
2275.06
2317.85
2317.68
2361.49
2361.31
2405.74
2405.54
2449.94
2449.73
2493.23
2493
2534.55
2534.3
2572.69
2572.43
2606.45
2606.17
2634.82
2634.53
2657.22
2656.93
2673.7
2673.4
2685.02
2684.72
2692.58
2692.29
2698.14
2697.84
2703.39
2703.11
2709.66
2709.39
2717.76
2717.49
2727.8
2727.54
2739.61
2739.36
2752.86
2752.62
2767.25
2767.02
2782.6
2782.36
2798.82
2798.59
2815.93
2815.71
2834.03
2833.81
2853.21
2852.99
2873.63
2873.41
2895.42
2895.2
2918.74
2918.52
2943.74
2943.52
2970.57
2970.35
2999.39
2999.18
3030.35
3030.13
3063.59
3063.38
3099.28
3099.06
3137.58
3137.36
3178.67
3178.45
3222.77
3222.55
3270.11
3269.89
3320.94
3320.72
3375.57
3375.34
3434.32
3434.09
3497.55
3497.32
3565.67
3565.44
3639.15
3638.91
3718.51
3718.26
3804.34
3804.08
3897.33
3897.07
3998.29
3998.02
4108.15
4107.87
4228
4227.72
4359.16
4358.86
4503.17
4502.86
4661.9
4661.57
4837.6
4837.26
5033.05
5032.7
5251.69
5251.32
5497.83
5497.44
5776.95
5776.53
6096.14
6095.71
6464.8
6464.33
6895.55
6895.05
7405.89
7405.36
8020.77
8020.2
8777.04
8776.43
9731.64
9730.98
10977.4
10976.7
12676.9
12676.2
15141.7
15140.9
19046.7
19045.9
26119.4
26119
41824.4
41825
87262.9
87265.9
263751
263754
1.52419e+06
1.52419e+06
34.3379
34.3379
34.3718
34.3718
34.1318
34.1318
33.8065
33.8065
33.4549
33.4549
33.1059
33.1059
32.7729
32.7729
32.4614
32.4614
32.1737
32.1737
31.9102
31.9102
31.6709
31.6709
31.4553
31.4553
31.2628
31.2628
31.0929
31.0929
30.945
30.945
30.8184
30.8184
30.7126
30.7126
30.627
30.627
30.5611
30.5611
30.5144
30.5144
30.4867
30.4867
30.478
30.478
30.4881
30.4881
30.5174
30.5174
30.5659
30.5659
30.6342
30.6342
30.7226
30.7226
30.8313
30.8313
30.9606
30.9606
31.1105
31.1105
31.2812
31.2812
31.4727
31.4726
31.6849
31.6849
31.9181
31.9181
32.1726
32.1726
32.4489
32.4488
32.7474
32.7474
33.069
33.069
33.4143
33.4143
33.7842
33.7842
34.1794
34.1794
34.6007
34.6007
35.049
35.049
35.5251
35.525
36.0297
36.0297
36.5639
36.5639
37.1286
37.1286
37.7248
37.7247
38.3535
38.3535
39.016
39.016
39.7133
39.7132
40.4462
40.4462
41.2155
41.2155
42.0217
42.0216
42.8648
42.8647
43.7449
43.7448
44.6619
44.6618
45.6158
45.6158
46.6069
46.6069
47.6358
47.6357
48.7034
48.7034
49.8115
49.8114
50.9619
50.9618
52.1568
52.1567
53.3988
53.3987
54.6901
54.69
56.033
56.0329
57.4293
57.4291
58.8804
58.8802
60.3873
60.3871
61.9507
61.9505
63.5714
63.5712
65.2502
65.2499
66.9881
66.9878
68.786
68.7857
70.6443
70.6439
72.5617
72.5613
74.5354
74.5349
76.5596
76.5591
78.6266
78.6262
80.7279
80.7277
82.8556
82.8557
85.0039
85.0043
87.1707
87.1712
89.3613
89.3617
91.5866
91.5868
93.8614
93.8614
96.2011
96.201
98.6181
98.6178
101.116
101.116
103.691
103.69
106.324
106.323
108.99
108.989
111.655
111.655
114.286
114.286
116.852
116.853
119.328
119.33
121.698
121.7
123.957
123.959
126.114
126.116
128.189
128.19
130.206
130.207
132.198
132.199
134.197
134.198
136.236
136.236
138.342
138.342
140.541
140.541
142.853
142.853
145.292
145.292
147.868
147.867
150.587
150.586
153.452
153.451
156.462
156.46
159.613
159.611
162.899
162.897
166.312
166.31
169.84
169.838
173.47
173.467
177.184
177.18
180.961
180.958
184.781
184.777
188.617
188.612
192.444
192.439
196.237
196.232
199.973
199.968
203.634
203.629
207.207
207.203
210.691
210.689
214.097
214.097
217.444
217.445
220.764
220.765
224.099
224.101
227.501
227.502
231.021
231.021
234.707
234.707
238.599
238.599
242.723
242.722
247.081
247.079
251.656
251.654
256.415
256.412
261.308
261.306
266.281
266.278
271.274
271.272
276.237
276.237
281.132
281.135
285.934
285.94
290.635
290.643
295.243
295.251
299.779
299.787
304.277
304.285
308.777
308.785
313.324
313.331
317.96
317.966
322.727
322.732
327.662
327.667
332.796
332.8
338.156
338.16
343.764
343.766
349.634
349.636
355.778
355.78
362.205
362.207
368.919
368.92
375.921
375.922
383.209
383.209
390.779
390.779
398.624
398.623
406.736
406.735
415.106
415.105
423.725
423.724
432.587
432.585
441.685
441.683
451.018
451.016
460.588
460.586
470.401
470.399
480.467
480.465
490.799
490.797
501.413
501.411
512.324
512.321
523.546
523.544
535.094
535.091
546.976
546.973
559.201
559.198
571.772
571.769
584.69
584.687
597.953
597.95
611.562
611.559
625.519
625.516
639.834
639.83
654.525
654.521
669.621
669.618
685.165
685.161
701.202
701.198
717.78
717.776
734.939
734.936
752.704
752.701
771.077
771.073
790.025
790.021
809.498
809.494
829.432
829.428
849.758
849.755
870.422
870.419
891.389
891.387
912.653
912.651
934.238
934.236
956.194
956.192
978.589
978.588
1001.5
1001.5
1025
1025
1049.16
1049.16
1074.02
1074.02
1099.62
1099.62
1125.98
1125.98
1153.1
1153.11
1180.99
1180.99
1209.62
1209.63
1239.01
1239.02
1269.16
1269.17
1300.08
1300.08
1331.77
1331.78
1364.27
1364.28
1397.57
1397.58
1431.66
1431.67
1466.5
1466.51
1502.02
1502.03
1538.11
1538.12
1574.65
1574.66
1611.48
1611.49
1648.45
1648.47
1685.41
1685.44
1722.25
1722.27
1758.85
1758.89
1795.18
1795.21
1831.19
1831.24
1866.91
1866.97
1902.4
1902.47
1937.73
1937.81
1973.02
1973.11
2008.42
2008.52
2044.09
2044.21
2080.23
2080.36
2117.07
2117.21
2154.8
2154.95
2193.63
2193.78
2233.69
2233.85
2275.06
2275.22
2317.68
2317.85
2361.31
2361.5
2405.54
2405.74
2449.73
2449.94
2493.01
2493.24
2534.3
2534.55
2572.43
2572.69
2606.17
2606.45
2634.53
2634.82
2656.93
2657.23
2673.4
2673.7
2684.72
2685.02
2692.29
2692.58
2697.85
2698.14
2703.11
2703.4
2709.39
2709.67
2717.49
2717.76
2727.54
2727.8
2739.36
2739.61
2752.62
2752.86
2767.02
2767.26
2782.37
2782.6
2798.59
2798.82
2815.71
2815.94
2833.81
2834.03
2853
2853.22
2873.41
2873.63
2895.2
2895.42
2918.52
2918.74
2943.52
2943.74
2970.36
2970.57
2999.18
2999.39
3030.13
3030.35
3063.38
3063.6
3099.07
3099.28
3137.36
3137.58
3178.46
3178.68
3222.55
3222.78
3269.89
3270.11
3320.72
3320.95
3375.35
3375.58
3434.09
3434.32
3497.32
3497.55
3565.44
3565.68
3638.91
3639.16
3718.26
3718.51
3804.08
3804.34
3897.07
3897.33
3998.02
3998.29
4107.87
4108.15
4227.72
4228.01
4358.86
4359.16
4502.86
4503.17
4661.57
4661.9
4837.26
4837.6
5032.7
5033.06
5251.33
5251.7
5497.44
5497.83
5776.53
5776.95
6095.71
6096.15
6464.33
6464.8
6895.06
6895.55
7405.36
7405.9
8020.2
8020.78
8776.43
8777.05
9730.98
9731.64
10976.7
10977.4
12676.2
12676.9
15140.9
15141.7
19045.9
19046.7
26119
26119.4
41825
41824.4
87265.9
87262.9
263754
263751
1.52419e+06
1.52419e+06
)
;

boundaryField
{
    walls
    {
        blending        binomial2;
        n               2;
        beta1           0.075;
        type            omegaWallFunction;
        value           nonuniform List<scalar> 8(1.52418e+06 1.52418e+06 1.52418e+06 1.52418e+06 1.52419e+06 1.52419e+06 1.52419e+06 1.52419e+06);
    }
    inlet
    {
        type            cyclic;
    }
    outlet
    {
        type            cyclic;
    }
    sides
    {
        type            empty;
    }
}


// ************************************************************************* //
