/*--------------------------------*- C++ -*----------------------------------*\
| =========                 |                                                 |
| \\      /  F ield         | OpenFOAM: The Open Source CFD Toolbox           |
|  \\    /   O peration     | Version:  2012                                  |
|   \\  /    A nd           | Website:  www.openfoam.com                      |
|    \\/     M anipulation  |                                                 |
\*---------------------------------------------------------------------------*/
FoamFile
{
    version     2.0;
    format      ascii;
    class       surfaceScalarField;
    location    "12800";
    object      phi;
}
// * * * * * * * * * * * * * * * * * * * * * * * * * * * * * * * * * * * * * //

dimensions      [0 3 -1 0 0 0 0];
oriented        oriented;


internalField   nonuniform List<scalar> 
5116
(
2.52921e-07
-2.48129e-08
8.31821e-09
2.48759e-08
-8.28821e-09
7.58018e-07
-5.98168e-08
1.17562e-08
6.00307e-08
-1.17138e-08
1.27611e-06
-8.25664e-08
7.77344e-09
8.32755e-08
-7.7454e-09
1.81535e-06
-9.42128e-08
3.90801e-09
9.49611e-08
-3.89391e-09
2.37834e-06
-1.00976e-07
2.09437e-09
1.01223e-07
-2.08682e-09
2.96475e-06
-1.05184e-07
1.30893e-09
1.05136e-07
-1.30421e-09
3.57439e-06
-1.08017e-07
9.23565e-10
1.07896e-07
-9.20233e-10
4.20725e-06
-1.10147e-07
7.07151e-10
1.1001e-07
-7.046e-10
4.86343e-06
-1.11867e-07
5.72387e-10
1.11722e-07
-5.70322e-10
5.5436e-06
-1.13314e-07
4.81925e-10
1.13164e-07
-4.80187e-10
6.24912e-06
-1.14573e-07
4.17751e-10
1.14414e-07
-4.16245e-10
6.981e-06
-1.15701e-07
3.70291e-10
1.15524e-07
-3.68955e-10
7.74032e-06
-1.16737e-07
3.34043e-10
1.16525e-07
-3.32838e-10
8.52855e-06
-1.17634e-07
3.05469e-10
1.17435e-07
-3.04366e-10
9.34655e-06
-1.18441e-07
2.82983e-10
1.18282e-07
-2.81962e-10
1.01945e-05
-1.1922e-07
2.64111e-10
1.19062e-07
-2.63157e-10
1.10721e-05
-1.19961e-07
2.49466e-10
1.19808e-07
-2.48567e-10
1.19791e-05
-1.20667e-07
2.36827e-10
1.20519e-07
-2.35973e-10
1.29164e-05
-1.21344e-07
2.26389e-10
1.21197e-07
-2.25573e-10
1.38872e-05
-1.21996e-07
2.17444e-10
1.21849e-07
-2.1666e-10
1.48957e-05
-1.22625e-07
2.10023e-10
1.22478e-07
-2.09266e-10
1.59451e-05
-1.23236e-07
2.03579e-10
1.2309e-07
-2.02845e-10
1.70372e-05
-1.23829e-07
1.98254e-10
1.23686e-07
-1.9754e-10
1.81732e-05
-1.24408e-07
1.93073e-10
1.24261e-07
-1.92376e-10
1.93547e-05
-1.24976e-07
1.8982e-10
1.24834e-07
-1.89137e-10
2.05832e-05
-1.25533e-07
1.85778e-10
1.25385e-07
-1.85107e-10
2.18605e-05
-1.26083e-07
1.83913e-10
1.25941e-07
-1.83252e-10
2.31879e-05
-1.26627e-07
1.81555e-10
1.26488e-07
-1.80902e-10
2.45667e-05
-1.27165e-07
1.79961e-10
1.2703e-07
-1.79314e-10
2.59981e-05
-1.277e-07
1.78419e-10
1.27565e-07
-1.77778e-10
2.74841e-05
-1.28231e-07
1.77582e-10
1.28097e-07
-1.76945e-10
2.90288e-05
-1.2876e-07
1.7673e-10
1.28622e-07
-1.76096e-10
3.0639e-05
-1.29288e-07
1.76519e-10
1.29149e-07
-1.75886e-10
3.2324e-05
-1.29816e-07
1.76266e-10
1.29674e-07
-1.75634e-10
3.4094e-05
-1.30344e-07
1.76591e-10
1.30204e-07
-1.75959e-10
3.59592e-05
-1.30872e-07
1.75962e-10
1.3073e-07
-1.75329e-10
3.79275e-05
-1.31403e-07
1.77702e-10
1.31272e-07
-1.77067e-10
4.00044e-05
-1.31926e-07
1.74559e-10
1.31783e-07
-1.73921e-10
4.21927e-05
-1.32464e-07
1.79866e-10
1.32337e-07
-1.79224e-10
4.44934e-05
-1.32991e-07
1.7587e-10
1.32847e-07
-1.75224e-10
4.69074e-05
-1.33538e-07
1.83069e-10
1.3341e-07
-1.82418e-10
4.94379e-05
-1.3408e-07
1.80563e-10
1.33937e-07
-1.79906e-10
5.20936e-05
-1.3464e-07
1.87248e-10
1.34506e-07
-1.86585e-10
5.48912e-05
-1.35202e-07
1.87647e-10
1.35063e-07
-1.86976e-10
5.78555e-05
-1.35777e-07
1.92318e-10
1.35641e-07
-1.9164e-10
6.10173e-05
-1.3636e-07
1.94279e-10
1.36225e-07
-1.93591e-10
6.44081e-05
-1.36952e-07
1.98261e-10
1.36821e-07
-1.97565e-10
6.80559e-05
-1.37552e-07
2.00024e-10
1.37424e-07
-1.99318e-10
7.19812e-05
-1.38165e-07
2.0513e-10
1.38052e-07
-2.04412e-10
7.61969e-05
-1.38748e-07
1.94221e-10
1.38613e-07
-1.93492e-10
8.0709e-05
-1.39385e-07
2.13328e-10
1.39297e-07
-2.12587e-10
8.55142e-05
-1.40005e-07
2.06688e-10
1.39843e-07
-2.05933e-10
9.05912e-05
-1.40671e-07
2.22808e-10
1.40542e-07
-2.22039e-10
9.58842e-05
-1.41349e-07
2.25978e-10
1.41214e-07
-2.25195e-10
0.00010128
-1.42047e-07
2.33421e-10
1.4191e-07
-2.32621e-10
0.000106579
-1.42753e-07
2.35671e-10
1.42613e-07
-2.34855e-10
0.00011148
-1.43487e-07
2.45249e-10
1.43345e-07
-2.44416e-10
0.000115575
-1.44224e-07
2.45745e-10
1.44075e-07
-2.44893e-10
0.00011838
-1.44996e-07
2.58266e-10
1.44845e-07
-2.57395e-10
0.000119391
-1.45768e-07
2.57413e-10
1.45608e-07
-2.56522e-10
0.000118171
-1.46583e-07
2.72481e-10
1.4642e-07
-2.71571e-10
0.000114432
-1.474e-07
2.72618e-10
1.47223e-07
-2.71686e-10
0.000108106
-1.48263e-07
2.8835e-10
1.48079e-07
-2.87395e-10
9.93741e-05
-1.49139e-07
2.92505e-10
1.48951e-07
-2.91525e-10
8.86475e-05
-1.50058e-07
3.06979e-10
1.49858e-07
-3.05972e-10
7.65035e-05
-1.51005e-07
3.1625e-10
1.50794e-07
-3.15212e-10
6.36019e-05
-1.51966e-07
3.20741e-10
1.51755e-07
-3.19669e-10
5.05975e-05
-1.5297e-07
3.35419e-10
1.52752e-07
-3.34309e-10
3.80701e-05
-1.5399e-07
3.40423e-10
1.53737e-07
-3.39271e-10
2.64842e-05
-1.55064e-07
3.5888e-10
1.54794e-07
-3.57683e-10
1.61761e-05
-1.5616e-07
3.65905e-10
1.55838e-07
-3.64659e-10
7.36366e-06
-1.57316e-07
3.86204e-10
1.57243e-07
-3.84906e-10
1.6797e-07
-1.57313e-07
-2.20231e-13
1.57026e-07
1.57213e-12
-5.36161e-06
-1.57318e-07
2.71983e-12
1.57093e-07
-1.31029e-12
-9.22889e-06
-1.57316e-07
-1.91079e-13
1.57121e-07
1.66079e-12
-1.14747e-05
-1.57319e-07
2.17336e-12
1.5714e-07
-6.41182e-13
-1.21684e-05
-1.57316e-07
-1.84462e-13
1.57144e-07
1.78141e-12
-1.14019e-05
-1.57317e-07
1.47357e-12
1.57135e-07
1.90359e-13
-9.28536e-06
-1.57314e-07
-1.93866e-13
1.57126e-07
1.92718e-12
-5.94081e-06
-1.57313e-07
8.20434e-13
1.57112e-07
9.84695e-13
-1.49729e-06
-1.5731e-07
-2.14623e-13
1.57103e-07
2.09435e-12
3.91541e-06
-1.57307e-07
2.45089e-13
1.57099e-07
1.71212e-12
1.01728e-05
-1.57303e-07
-2.40663e-13
1.57094e-07
2.27868e-12
1.71595e-05
-1.57298e-07
-1.92826e-13
1.57093e-07
2.31524e-12
2.47707e-05
-1.57298e-07
-2.65869e-13
1.5709e-07
2.47653e-12
3.29097e-05
-1.57292e-07
-5.44119e-13
1.57084e-07
2.84747e-12
4.14846e-05
-1.57282e-07
-3.5301e-13
1.57076e-07
2.75383e-12
5.04028e-05
-1.57277e-07
-3.88416e-13
1.57071e-07
2.89144e-12
5.95649e-05
-1.57271e-07
-3.80049e-13
1.57064e-07
2.99122e-12
6.88601e-05
-1.57265e-07
-4.13662e-13
1.57056e-07
3.13854e-12
7.81635e-05
-1.57258e-07
-4.06787e-13
1.57047e-07
3.25192e-12
8.73361e-05
-1.57252e-07
-4.38779e-13
1.57038e-07
3.41054e-12
9.6228e-05
-1.57245e-07
-4.32988e-13
1.57028e-07
3.53854e-12
0.000104685
-1.57238e-07
-4.6319e-13
1.57018e-07
3.70943e-12
0.000112559
-1.5723e-07
-4.58102e-13
1.57008e-07
3.85271e-12
0.000119718
-1.57222e-07
-4.86305e-13
1.56996e-07
4.03641e-12
0.000126055
-1.57214e-07
-4.8158e-13
1.56984e-07
4.19521e-12
0.000131501
-1.57206e-07
-5.07591e-13
1.56972e-07
4.39197e-12
0.000136028
-1.57197e-07
-5.02938e-13
1.56959e-07
4.56636e-12
0.000139657
-1.57188e-07
-5.26656e-13
1.56945e-07
4.77642e-12
0.000142451
-1.57178e-07
-5.21861e-13
1.56931e-07
4.96667e-12
0.000144514
-1.57169e-07
-5.43279e-13
1.56916e-07
5.19062e-12
0.000145986
-1.57158e-07
-5.38189e-13
1.569e-07
5.39741e-12
0.00014703
-1.57148e-07
-5.57333e-13
1.56884e-07
5.63623e-12
0.000147827
-1.57137e-07
-5.51748e-13
1.56867e-07
5.86047e-12
0.000148565
-1.57125e-07
-5.68557e-13
1.56849e-07
6.11517e-12
0.000149433
-1.57113e-07
-5.62118e-13
1.56831e-07
6.35762e-12
0.000150614
-1.57101e-07
-5.76318e-13
1.56811e-07
6.62884e-12
0.000152279
-1.57088e-07
-5.68399e-13
1.56792e-07
6.88976e-12
0.000154583
-1.57075e-07
-5.79426e-13
1.56771e-07
7.17759e-12
0.000157658
-1.5706e-07
-5.69075e-13
1.56749e-07
7.45679e-12
0.000161612
-1.57046e-07
-5.76041e-13
1.56726e-07
7.76105e-12
0.000166519
-1.57031e-07
-5.61957e-13
1.56703e-07
8.05837e-12
0.000172414
-1.57016e-07
-5.6366e-13
1.56679e-07
8.37921e-12
0.000179289
-1.56999e-07
-5.44204e-13
1.56654e-07
8.69514e-12
0.000187086
-1.56983e-07
-5.39155e-13
1.56627e-07
9.03355e-12
0.000195693
-1.56965e-07
-5.12366e-13
1.56601e-07
9.36956e-12
0.00020495
-1.56947e-07
-4.98826e-13
1.56572e-07
9.72735e-12
0.000214644
-1.56929e-07
-4.62455e-13
1.56544e-07
1.00854e-11
0.000224526
-1.5691e-07
-4.38531e-13
1.56513e-07
1.04642e-11
0.000234318
-1.5689e-07
-3.90151e-13
1.56482e-07
1.08452e-11
0.000243734
-1.56869e-07
-3.53994e-13
1.5645e-07
1.12451e-11
0.000252494
-1.56848e-07
-2.91232e-13
1.56417e-07
1.16481e-11
0.000260348
-1.56826e-07
-2.41384e-13
1.56382e-07
1.20667e-11
0.000267091
-1.56803e-07
-1.62246e-13
1.56347e-07
1.24887e-11
0.000272579
-1.5678e-07
-9.80043e-14
1.5631e-07
1.29225e-11
0.000276741
-1.56756e-07
-1.10028e-15
1.56272e-07
1.33602e-11
0.000279578
-1.56732e-07
7.73383e-14
1.56232e-07
1.38068e-11
0.000281159
-1.56706e-07
1.92901e-13
1.56192e-07
1.42594e-11
0.000281616
-1.5668e-07
2.84666e-13
1.5615e-07
1.47194e-11
0.000281121
-1.56653e-07
4.19736e-13
1.56107e-07
1.51891e-11
0.00027987
-1.56626e-07
5.2371e-13
1.56063e-07
1.56653e-11
0.000278066
-1.56598e-07
6.79617e-13
1.56017e-07
1.61554e-11
0.000275893
-1.56569e-07
7.94744e-13
1.5597e-07
1.66507e-11
0.000273509
-1.56539e-07
9.73597e-13
1.55922e-07
1.71639e-11
0.000271029
-1.56509e-07
1.09884e-12
1.55872e-07
1.76797e-11
0.000268526
-1.56477e-07
1.30359e-12
1.55821e-07
1.82167e-11
0.000266024
-1.56445e-07
1.43764e-12
1.55768e-07
1.87526e-11
0.000263512
-1.56412e-07
1.67198e-12
1.55713e-07
1.9313e-11
0.000260948
-1.56379e-07
1.81283e-12
1.55658e-07
1.9868e-11
0.000258268
-1.56344e-07
2.08118e-12
1.556e-07
2.04511e-11
0.000255404
-1.56309e-07
2.2257e-12
1.55541e-07
2.10247e-11
0.000252289
-1.56273e-07
2.53322e-12
1.55481e-07
2.16309e-11
0.000248871
-1.56237e-07
2.67685e-12
1.55418e-07
2.22239e-11
0.000245116
-1.56199e-07
3.02965e-12
1.55355e-07
2.28548e-11
0.000241017
-1.5616e-07
3.16613e-12
1.55289e-07
2.34696e-11
0.000236589
-1.56121e-07
3.57174e-12
1.55222e-07
2.41279e-11
0.000231874
-1.56081e-07
3.69283e-12
1.55152e-07
2.47675e-11
0.000226931
-1.5604e-07
4.16067e-12
1.55082e-07
2.5456e-11
0.000221836
-1.55998e-07
4.25585e-12
1.55009e-07
2.61234e-11
0.000216668
-1.55955e-07
4.79793e-12
1.54934e-07
2.68435e-11
0.00021151
-1.55911e-07
4.8537e-12
1.54857e-07
2.75401e-11
0.000206434
-1.55866e-07
5.48533e-12
1.54779e-07
2.8291e-11
0.000201502
-1.5582e-07
5.48452e-12
1.54698e-07
2.90168e-11
0.000196756
-1.55774e-07
6.22499e-12
1.54615e-07
2.97952e-11
0.000192214
-1.55726e-07
6.14612e-12
1.5453e-07
3.0549e-11
0.000187872
-1.55677e-07
7.0183e-12
1.54443e-07
3.13498e-11
0.000183696
-1.55628e-07
6.87465e-12
1.54354e-07
3.21307e-11
0.000179626
-1.55577e-07
7.86746e-12
1.54263e-07
3.29482e-11
0.000175573
-1.55526e-07
8.09828e-12
1.54169e-07
3.37576e-11
0.000171422
-1.55474e-07
8.76755e-12
1.54074e-07
3.45878e-11
0.000167035
-1.5542e-07
9.23309e-12
1.53975e-07
3.54286e-11
0.000162248
-1.55366e-07
9.42349e-12
1.53875e-07
3.62725e-11
0.000156885
-1.55311e-07
1.00767e-11
1.53772e-07
3.7151e-11
0.000150755
-1.55254e-07
1.01352e-11
1.53667e-07
3.80167e-11
0.000143667
-1.55196e-07
1.09565e-11
1.53559e-07
3.89442e-11
0.000135437
-1.55137e-07
1.09196e-11
1.53449e-07
3.98485e-11
0.0001259
-1.55077e-07
1.18696e-11
1.53337e-07
4.08439e-11
0.000114924
-1.55015e-07
1.18269e-11
1.53221e-07
4.18137e-11
0.000102424
-1.54953e-07
1.28114e-11
1.53103e-07
4.29048e-11
8.83735e-05
-1.54888e-07
1.28444e-11
1.52981e-07
4.39779e-11
7.28175e-05
-1.54823e-07
1.37745e-11
1.52857e-07
4.52004e-11
5.58834e-05
-1.54755e-07
1.38755e-11
1.52729e-07
4.64219e-11
3.77852e-05
-1.54686e-07
1.47486e-11
1.52597e-07
4.78153e-11
1.88249e-05
-1.54614e-07
1.491e-11
1.52461e-07
4.92311e-11
-6.1209e-07
-1.54541e-07
1.57208e-11
1.52321e-07
5.0828e-11
-2.00655e-05
-1.54465e-07
1.59356e-11
1.52176e-07
5.24641e-11
-3.90167e-05
-1.54387e-07
1.68009e-11
1.52027e-07
5.41455e-11
-5.69101e-05
-1.54305e-07
1.71988e-11
1.51873e-07
5.58833e-11
-7.31742e-05
-1.54223e-07
1.81123e-11
1.51714e-07
5.76364e-11
-8.72528e-05
-1.54137e-07
1.87021e-11
1.5155e-07
5.94444e-11
-9.86326e-05
-1.54049e-07
1.96363e-11
1.51381e-07
6.12388e-11
-0.000106866
-1.53959e-07
2.03768e-11
1.51208e-07
6.30821e-11
-0.000111601
-1.53867e-07
2.13293e-11
1.51029e-07
6.48946e-11
-0.000112595
-1.53772e-07
2.21481e-11
1.50845e-07
6.67598e-11
-0.000109726
-1.53675e-07
2.31366e-11
1.50656e-07
6.85986e-11
-0.000103005
-1.53575e-07
2.39273e-11
1.50462e-07
7.05174e-11
-9.25654e-05
-1.53473e-07
2.50067e-11
1.50263e-07
7.24382e-11
-7.86611e-05
-1.53369e-07
2.56152e-11
1.50058e-07
7.44937e-11
-6.16432e-05
-1.53262e-07
2.69027e-11
1.49848e-07
7.65888e-11
-4.19353e-05
-1.53151e-07
2.70863e-11
1.49631e-07
7.88961e-11
-2.00182e-05
-1.53037e-07
2.88031e-11
1.49408e-07
8.12691e-11
3.59847e-06
-1.52919e-07
2.90146e-11
1.49177e-07
8.39476e-11
2.84022e-05
-1.52799e-07
3.07063e-11
1.48939e-07
8.6637e-11
5.38932e-05
-1.52673e-07
3.12006e-11
1.48693e-07
8.94909e-11
7.96076e-05
-1.52545e-07
3.31189e-11
1.48439e-07
9.23124e-11
0.000105127
-1.52412e-07
3.39517e-11
1.48178e-07
9.53439e-11
0.000130082
-1.52277e-07
3.61299e-11
1.47907e-07
9.8282e-11
0.000154166
-1.52137e-07
3.73423e-11
1.47629e-07
1.01462e-10
0.000177128
-1.51994e-07
3.98006e-11
1.47342e-07
1.04479e-10
0.00019877
-1.51848e-07
4.1423e-11
1.47047e-07
1.07764e-10
0.000218946
-1.51699e-07
4.41687e-11
1.46743e-07
1.10807e-10
0.000237552
-1.51547e-07
4.6222e-11
1.46431e-07
1.14147e-10
0.000254513
-1.51392e-07
4.92515e-11
1.4611e-07
1.17158e-10
0.000269775
-1.51235e-07
5.17481e-11
1.4578e-07
1.20505e-10
0.000283291
-1.51075e-07
5.50471e-11
1.45443e-07
1.23424e-10
0.000295006
-1.50914e-07
5.79919e-11
1.45097e-07
1.26739e-10
0.000304841
-1.50751e-07
6.15362e-11
1.44743e-07
1.29518e-10
0.000312689
-1.50587e-07
6.49272e-11
1.44381e-07
1.32781e-10
0.000318395
-1.50422e-07
6.86824e-11
1.44012e-07
1.35387e-10
0.000321761
-1.50255e-07
7.25102e-11
1.43635e-07
1.38603e-10
0.000322543
-1.50089e-07
7.64312e-11
1.43251e-07
1.41034e-10
0.000320461
-1.49922e-07
8.06808e-11
1.42859e-07
1.44254e-10
0.000315217
-1.49755e-07
8.47135e-11
1.42461e-07
1.46552e-10
0.000306518
-1.49588e-07
8.93687e-11
1.42055e-07
1.49887e-10
0.000294104
-1.4942e-07
9.3456e-11
1.41642e-07
1.5216e-10
0.000277784
-1.49253e-07
9.85084e-11
1.41221e-07
1.558e-10
0.000257468
-1.49085e-07
1.02598e-10
1.40792e-07
1.5823e-10
0.000233204
-1.48917e-07
1.08057e-10
1.40353e-07
1.6245e-10
0.000205203
-1.48747e-07
1.12107e-10
1.39906e-07
1.65283e-10
0.000173858
-1.48576e-07
1.18003e-10
1.39447e-07
1.70425e-10
0.000139759
-1.48401e-07
1.2197e-10
1.38976e-07
1.73937e-10
0.000103688
-1.48224e-07
1.28344e-10
1.38491e-07
1.80362e-10
6.65999e-05
-1.48041e-07
1.32168e-10
1.37991e-07
1.84794e-10
2.95965e-05
-1.47854e-07
1.3905e-10
1.37472e-07
1.92818e-10
-6.12394e-06
-1.47658e-07
1.42613e-10
1.36936e-07
1.98282e-10
-3.93218e-05
-1.47457e-07
1.50168e-10
1.36377e-07
2.07842e-10
-6.87873e-05
-1.47248e-07
1.54426e-10
1.35801e-07
2.13103e-10
-9.34261e-05
-1.47035e-07
1.636e-10
1.35201e-07
2.23345e-10
-0.000112322
-1.46814e-07
1.68349e-10
1.34583e-07
2.28238e-10
-0.000124819
-1.4659e-07
1.79052e-10
1.33942e-07
2.3916e-10
-0.000130573
-1.46358e-07
1.83919e-10
1.33283e-07
2.43537e-10
-0.00012959
-1.46125e-07
1.95996e-10
1.32599e-07
2.55292e-10
-0.000122244
-1.45884e-07
2.00567e-10
1.31898e-07
2.59182e-10
-0.000109248
-1.45641e-07
2.13909e-10
1.31169e-07
2.72161e-10
-9.16039e-05
-1.45388e-07
2.17818e-10
1.30423e-07
2.75762e-10
-7.05358e-05
-1.45135e-07
2.32423e-10
1.29647e-07
2.90521e-10
-4.73989e-05
-1.44868e-07
2.35348e-10
1.28851e-07
2.94046e-10
-2.35752e-05
-1.44599e-07
2.51298e-10
1.2802e-07
3.11126e-10
-3.70637e-07
-1.44314e-07
2.52904e-10
1.27168e-07
3.14594e-10
2.10707e-05
-1.44027e-07
2.70274e-10
1.26277e-07
3.34301e-10
3.98523e-05
-1.43722e-07
2.71343e-10
1.25365e-07
3.36197e-10
5.53694e-05
-1.43419e-07
2.91496e-10
1.24412e-07
3.57609e-10
6.73281e-05
-1.43097e-07
2.91611e-10
1.23442e-07
3.57582e-10
7.57445e-05
-1.42779e-07
3.14639e-10
1.22429e-07
3.80945e-10
8.09188e-05
-1.42441e-07
3.13188e-10
1.214e-07
3.78634e-10
8.33785e-05
-1.42111e-07
3.39189e-10
1.20326e-07
4.0431e-10
8.38142e-05
-1.41759e-07
3.35537e-10
1.1924e-07
3.9937e-10
8.30068e-05
-1.41417e-07
3.64704e-10
1.18106e-07
4.27793e-10
8.17481e-05
-1.41051e-07
3.58243e-10
1.16962e-07
4.19811e-10
8.0793e-05
-1.40699e-07
3.90907e-10
1.15768e-07
4.51413e-10
8.08084e-05
-1.40319e-07
3.81075e-10
1.14567e-07
4.39838e-10
8.23217e-05
-1.39957e-07
4.17728e-10
1.13313e-07
4.75007e-10
8.571e-05
-1.39564e-07
4.04016e-10
1.12057e-07
4.59137e-10
9.12052e-05
-1.39195e-07
4.45324e-10
1.10745e-07
4.9824e-10
9.89005e-05
-1.3879e-07
4.27274e-10
1.09436e-07
4.77264e-10
0.000108758
-1.38416e-07
4.74076e-10
1.08068e-07
5.20707e-10
0.000120626
-1.38004e-07
4.51245e-10
1.06711e-07
4.93739e-10
0.000134258
-1.37629e-07
5.04524e-10
1.0529e-07
5.4201e-10
0.00014935
-1.37212e-07
4.76421e-10
1.03889e-07
5.0811e-10
0.000165529
-1.36842e-07
5.37259e-10
1.0242e-07
5.6181e-10
0.000182379
-1.36425e-07
5.03271e-10
1.00981e-07
5.19978e-10
0.000199455
-1.36066e-07
5.72799e-10
9.94698e-08
5.79836e-10
0.000216279
-1.35656e-07
5.32132e-10
9.79989e-08
5.2902e-10
0.000232393
-1.35315e-07
6.11494e-10
9.64507e-08
5.95912e-10
0.000247363
-1.34916e-07
5.6313e-10
9.49547e-08
5.35028e-10
0.000260791
-1.346e-07
6.53476e-10
9.33752e-08
6.10017e-10
0.000272377
-1.34219e-07
5.96175e-10
9.18608e-08
5.37972e-10
0.000281946
-1.33934e-07
6.98686e-10
9.02551e-08
6.22331e-10
0.000289448
-1.33575e-07
6.31012e-10
8.87283e-08
5.38025e-10
0.000294955
-1.33327e-07
7.46976e-10
8.71005e-08
6.33244e-10
0.000298663
-1.32995e-07
6.67345e-10
8.55661e-08
5.3552e-10
0.000300872
-1.32789e-07
7.98241e-10
8.3919e-08
6.43273e-10
0.000301934
-1.32486e-07
7.04946e-10
8.23808e-08
5.30825e-10
0.000302188
-1.32326e-07
8.52518e-10
8.0716e-08
6.52919e-10
0.000301935
-1.32054e-07
7.43731e-10
7.91768e-08
5.24206e-10
0.000301384
-1.31944e-07
9.10025e-10
7.74948e-08
6.62565e-10
0.000300611
-1.31705e-07
7.83757e-10
7.59569e-08
5.15777e-10
0.000299594
-1.31648e-07
9.71133e-10
7.42579e-08
6.72484e-10
0.000298206
-1.31443e-07
8.25152e-10
7.27231e-08
5.05557e-10
0.000296233
-1.31445e-07
1.03627e-09
7.10065e-08
6.82938e-10
0.000293469
-1.31276e-07
8.68014e-10
6.94765e-08
4.93582e-10
0.000289742
-1.31339e-07
1.10582e-09
6.77408e-08
6.94291e-10
0.000284959
-1.31206e-07
9.1232e-10
6.62165e-08
4.79986e-10
0.000279166
-1.31335e-07
1.18009e-09
6.44594e-08
7.0705e-10
0.000272545
-1.31238e-07
9.57943e-10
6.29409e-08
4.64968e-10
0.000265432
-1.31435e-07
1.25939e-09
6.1159e-08
7.21773e-10
0.00025828
-1.31373e-07
1.00475e-09
5.96457e-08
4.48656e-10
0.00025166
-1.31643e-07
1.34412e-09
5.78346e-08
7.38885e-10
0.000246198
-1.31616e-07
1.05279e-09
5.63258e-08
4.30905e-10
0.000242478
-1.31961e-07
1.43504e-09
5.44818e-08
7.58453e-10
0.000241053
-1.31969e-07
1.10244e-09
5.29777e-08
4.11126e-10
0.000242404
-1.32396e-07
1.5334e-09
5.10984e-08
7.80029e-10
0.000246852
-1.3244e-07
1.15458e-09
4.96004e-08
3.88236e-10
0.000254544
-1.32957e-07
1.64108e-09
4.76875e-08
8.02594e-10
0.000265473
-1.33044e-07
1.21062e-09
4.61988e-08
3.60747e-10
0.000279476
-1.33663e-07
1.76059e-09
4.42596e-08
8.24567e-10
0.00029623
-1.338e-07
1.2724e-09
4.27835e-08
3.27018e-10
0.000315295
-1.34539e-07
1.89482e-09
4.0834e-08
8.43757e-10
0.000336138
-1.34738e-07
1.34196e-09
3.93719e-08
2.85691e-10
0.000358153
-1.35618e-07
2.04676e-09
3.74418e-08
8.57199e-10
0.000380732
-1.35892e-07
1.42137e-09
3.59877e-08
2.36336e-10
0.000403322
-1.36944e-07
2.21915e-09
3.41224e-08
8.60618e-10
0.000425416
-1.37305e-07
1.51259e-09
3.26565e-08
1.80381e-10
0.000446638
-1.38573e-07
2.41442e-09
3.09242e-08
8.47671e-10
0.000466835
-1.39025e-07
1.61749e-09
2.94062e-08
1.22282e-10
0.00048605
-1.40571e-07
2.63492e-09
2.78959e-08
8.08585e-10
0.00050459
-1.41102e-07
1.73791e-09
2.62613e-08
7.06179e-11
0.000523073
-1.43021e-07
2.88361e-09
2.51032e-08
7.28707e-10
0.000542475
-1.43591e-07
1.87586e-09
2.32989e-08
3.87877e-11
0.000564226
-1.46005e-07
3.16569e-09
2.26468e-08
5.86719e-10
0.000590347
-1.46571e-07
2.03346e-09
2.02666e-08
4.30961e-11
0.000623748
-1.4974e-07
3.48967e-09
2.07226e-08
3.49588e-10
0.000668468
-1.30168e-07
-1.76857e-08
1.78485e-08
1.24782e-10
0.000730304
-1.13307e-07
-1.70105e-08
1.82222e-08
-5.73323e-11
0.000817839
-9.20093e-08
-1.87125e-08
1.48758e-08
4.38557e-10
0.000943745
-7.23587e-08
-1.8434e-08
1.32313e-08
4.25553e-10
0.00112505
-4.89522e-08
-1.99613e-08
8.75785e-09
9.04128e-10
0.00138343
-2.5714e-08
-2.02664e-08
4.70637e-09
1.06707e-09
0.00181658
-2.17019e-08
7.07162e-10
1.64642e-09
-1.72524e-09
2.36314e-07
2.4954e-08
-2.45622e-08
7.34546e-07
6.0219e-08
-5.96195e-08
1.26059e-06
8.35365e-08
-8.24543e-08
1.80755e-06
9.52588e-08
-9.41683e-08
2.37415e-06
1.01541e-07
-1.00982e-07
2.96213e-06
1.05466e-07
-1.05218e-07
3.57254e-06
1.08234e-07
-1.08069e-07
4.20583e-06
1.10355e-07
-1.10222e-07
4.86227e-06
1.12072e-07
-1.11949e-07
5.54263e-06
1.13519e-07
-1.13389e-07
6.24828e-06
1.14773e-07
-1.14643e-07
6.98024e-06
1.15886e-07
-1.15762e-07
7.73964e-06
1.1689e-07
-1.16795e-07
8.52792e-06
1.17804e-07
-1.17696e-07
9.34597e-06
1.18653e-07
-1.18509e-07
1.01939e-05
1.19435e-07
-1.19291e-07
1.10716e-05
1.20184e-07
-1.20033e-07
1.19786e-05
1.20897e-07
-1.2074e-07
1.29159e-05
1.21577e-07
-1.21418e-07
1.38868e-05
1.22231e-07
-1.2207e-07
1.48953e-05
1.22862e-07
-1.227e-07
1.59447e-05
1.23477e-07
-1.2331e-07
1.70368e-05
1.24074e-07
-1.23904e-07
1.81728e-05
1.24651e-07
-1.24483e-07
1.93543e-05
1.25226e-07
-1.25052e-07
2.05828e-05
1.25779e-07
-1.25608e-07
2.18601e-05
1.26336e-07
-1.26159e-07
2.31875e-05
1.26885e-07
-1.26703e-07
2.45663e-05
1.27428e-07
-1.27242e-07
2.59977e-05
1.27965e-07
-1.27777e-07
2.74837e-05
1.28499e-07
-1.28308e-07
2.90284e-05
1.29026e-07
-1.28838e-07
3.06386e-05
1.29554e-07
-1.29366e-07
3.23236e-05
1.30081e-07
-1.29895e-07
3.40937e-05
1.30613e-07
-1.30423e-07
3.59588e-05
1.31141e-07
-1.30951e-07
3.79271e-05
1.31684e-07
-1.31483e-07
4.0004e-05
1.32197e-07
-1.32006e-07
4.21923e-05
1.32752e-07
-1.32544e-07
4.4493e-05
1.33265e-07
-1.33072e-07
4.6907e-05
1.33828e-07
-1.33619e-07
4.94375e-05
1.34358e-07
-1.34161e-07
5.20932e-05
1.34928e-07
-1.34721e-07
5.48908e-05
1.35487e-07
-1.35284e-07
5.78551e-05
1.36067e-07
-1.3586e-07
6.10169e-05
1.36653e-07
-1.36442e-07
6.44077e-05
1.3725e-07
-1.37036e-07
6.80555e-05
1.37855e-07
-1.37636e-07
7.19807e-05
1.38485e-07
-1.38249e-07
7.61965e-05
1.39048e-07
-1.38832e-07
8.07086e-05
1.39734e-07
-1.3947e-07
8.55138e-05
1.40281e-07
-1.4009e-07
9.05907e-05
1.40982e-07
-1.40757e-07
9.58838e-05
1.41656e-07
-1.41435e-07
0.000101279
1.42354e-07
-1.42134e-07
0.000106579
1.4306e-07
-1.4284e-07
0.00011148
1.43794e-07
-1.43575e-07
0.000115575
1.44525e-07
-1.44311e-07
0.000118379
1.45298e-07
-1.45085e-07
0.000119391
1.46063e-07
-1.45856e-07
0.000118171
1.46878e-07
-1.46673e-07
0.000114431
1.47683e-07
-1.4749e-07
0.000108105
1.48541e-07
-1.48354e-07
9.93736e-05
1.49417e-07
-1.4923e-07
8.8647e-05
1.50326e-07
-1.5015e-07
7.6503e-05
1.51265e-07
-1.51097e-07
6.36014e-05
1.52228e-07
-1.52059e-07
5.0597e-05
1.53229e-07
-1.53063e-07
3.80696e-05
1.54217e-07
-1.54084e-07
2.64836e-05
1.55277e-07
-1.55159e-07
1.61755e-05
1.56325e-07
-1.56256e-07
7.36301e-06
1.57732e-07
-1.57412e-07
1.68074e-07
1.5752e-07
-1.57411e-07
-5.36153e-06
1.5759e-07
-1.57417e-07
-9.22882e-06
1.57622e-07
-1.57415e-07
-1.14747e-05
1.57645e-07
-1.57419e-07
-1.21684e-05
1.57654e-07
-1.57418e-07
-1.14019e-05
1.57649e-07
-1.57419e-07
-9.28536e-06
1.57644e-07
-1.57418e-07
-5.94083e-06
1.57635e-07
-1.57417e-07
-1.49732e-06
1.57631e-07
-1.57415e-07
3.91536e-06
1.57632e-07
-1.57413e-07
1.01727e-05
1.57633e-07
-1.57411e-07
1.71594e-05
1.57637e-07
-1.57406e-07
2.47706e-05
1.57641e-07
-1.57404e-07
3.29095e-05
1.57641e-07
-1.57399e-07
4.14845e-05
1.57639e-07
-1.57395e-07
5.04027e-05
1.57641e-07
-1.57391e-07
5.95648e-05
1.57641e-07
-1.57387e-07
6.88599e-05
1.57641e-07
-1.57382e-07
7.81634e-05
1.57639e-07
-1.57378e-07
8.7336e-05
1.57638e-07
-1.57373e-07
9.62279e-05
1.57637e-07
-1.57368e-07
0.000104685
1.57635e-07
-1.57363e-07
0.000112559
1.57634e-07
-1.57358e-07
0.000119718
1.57632e-07
-1.57352e-07
0.000126055
1.5763e-07
-1.57346e-07
0.000131501
1.57628e-07
-1.5734e-07
0.000136028
1.57626e-07
-1.57334e-07
0.000139657
1.57624e-07
-1.57327e-07
0.000142451
1.57621e-07
-1.57321e-07
0.000144514
1.57619e-07
-1.57314e-07
0.000145986
1.57616e-07
-1.57306e-07
0.00014703
1.57614e-07
-1.57299e-07
0.000147827
1.57611e-07
-1.57291e-07
0.000148565
1.57608e-07
-1.57283e-07
0.000149433
1.57605e-07
-1.57274e-07
0.000150614
1.57602e-07
-1.57265e-07
0.000152279
1.57599e-07
-1.57256e-07
0.000154583
1.57595e-07
-1.57247e-07
0.000157658
1.57592e-07
-1.57237e-07
0.000161612
1.57589e-07
-1.57227e-07
0.000166519
1.57585e-07
-1.57216e-07
0.000172414
1.57582e-07
-1.57205e-07
0.000179289
1.57578e-07
-1.57194e-07
0.000187086
1.57575e-07
-1.57183e-07
0.000195693
1.57571e-07
-1.57171e-07
0.000204949
1.57568e-07
-1.57158e-07
0.000214644
1.57564e-07
-1.57145e-07
0.000224525
1.57561e-07
-1.57132e-07
0.000234318
1.57557e-07
-1.57119e-07
0.000243734
1.57554e-07
-1.57105e-07
0.000252494
1.57551e-07
-1.57091e-07
0.000260348
1.57547e-07
-1.57076e-07
0.000267091
1.57544e-07
-1.57061e-07
0.00027258
1.57541e-07
-1.57045e-07
0.000276742
1.57539e-07
-1.5703e-07
0.000279578
1.57536e-07
-1.57013e-07
0.00028116
1.57534e-07
-1.56997e-07
0.000281617
1.57531e-07
-1.5698e-07
0.000281121
1.5753e-07
-1.56963e-07
0.000279871
1.57528e-07
-1.56945e-07
0.000278066
1.57527e-07
-1.56927e-07
0.000275894
1.57526e-07
-1.56909e-07
0.00027351
1.57525e-07
-1.5689e-07
0.00027103
1.57525e-07
-1.56871e-07
0.000268527
1.57525e-07
-1.56852e-07
0.000266025
1.57526e-07
-1.56833e-07
0.000263514
1.57527e-07
-1.56813e-07
0.000260949
1.57528e-07
-1.56793e-07
0.000258269
1.5753e-07
-1.56772e-07
0.000255405
1.57532e-07
-1.56751e-07
0.000252291
1.57536e-07
-1.5673e-07
0.000248873
1.57539e-07
-1.56709e-07
0.000245118
1.57544e-07
-1.56687e-07
0.000241019
1.57548e-07
-1.56665e-07
0.000236591
1.57554e-07
-1.56643e-07
0.000231876
1.57559e-07
-1.5662e-07
0.000226933
1.57567e-07
-1.56597e-07
0.000221838
1.57573e-07
-1.56574e-07
0.00021667
1.57583e-07
-1.56551e-07
0.000211512
1.57591e-07
-1.56527e-07
0.000206437
1.57602e-07
-1.56504e-07
0.000201505
1.57611e-07
-1.56479e-07
0.000196759
1.57623e-07
-1.56455e-07
0.000192217
1.57635e-07
-1.5643e-07
0.000187875
1.57649e-07
-1.56406e-07
0.000183699
1.57662e-07
-1.5638e-07
0.000179629
1.5768e-07
-1.56355e-07
0.000175576
1.57693e-07
-1.5633e-07
0.000171426
1.57714e-07
-1.56305e-07
0.000167038
1.57735e-07
-1.5628e-07
0.000162252
1.57751e-07
-1.56254e-07
0.000156889
1.57772e-07
-1.56228e-07
0.000150759
1.57793e-07
-1.56202e-07
0.000143672
1.57816e-07
-1.56175e-07
0.000135442
1.57839e-07
-1.56148e-07
0.000125905
1.57866e-07
-1.56121e-07
0.00011493
1.57892e-07
-1.56093e-07
0.00010243
1.57921e-07
-1.56066e-07
8.838e-05
1.57949e-07
-1.56037e-07
7.28244e-05
1.5798e-07
-1.56008e-07
5.58906e-05
1.58011e-07
-1.55978e-07
3.77926e-05
1.58043e-07
-1.55949e-07
1.88324e-05
1.58076e-07
-1.55917e-07
-6.04635e-07
1.58111e-07
-1.55886e-07
-2.00583e-05
1.58147e-07
-1.55852e-07
-3.90099e-05
1.58184e-07
-1.55819e-07
-5.6904e-05
1.58222e-07
-1.55784e-07
-7.3169e-05
1.58262e-07
-1.55748e-07
-8.72487e-05
1.58303e-07
-1.55712e-07
-9.863e-05
1.58346e-07
-1.55675e-07
-0.000106865
1.58391e-07
-1.55637e-07
-0.000111602
1.58439e-07
-1.55599e-07
-0.000112598
1.58489e-07
-1.5556e-07
-0.000109731
1.58541e-07
-1.55521e-07
-0.000103012
1.58595e-07
-1.55481e-07
-9.25751e-05
1.58652e-07
-1.5544e-07
-7.86731e-05
1.58711e-07
-1.55399e-07
-6.16574e-05
1.58773e-07
-1.55357e-07
-4.19516e-05
1.58835e-07
-1.55312e-07
-2.00364e-05
1.58902e-07
-1.55268e-07
3.57864e-06
1.58968e-07
-1.55221e-07
2.8381e-05
1.59039e-07
-1.55174e-07
5.3871e-05
1.5911e-07
-1.55125e-07
7.95847e-05
1.59186e-07
-1.55075e-07
0.000105103
1.59263e-07
-1.55024e-07
0.000130059
1.59347e-07
-1.54973e-07
0.000154143
1.59433e-07
-1.5492e-07
0.000177106
1.59526e-07
-1.54869e-07
0.000198749
1.59623e-07
-1.54816e-07
0.000218926
1.59727e-07
-1.54766e-07
0.000237533
1.59836e-07
-1.54714e-07
0.000254496
1.59953e-07
-1.54665e-07
0.000269761
1.60077e-07
-1.54616e-07
0.00028328
1.6021e-07
-1.54571e-07
0.000294997
1.6035e-07
-1.54526e-07
0.000304837
1.605e-07
-1.54485e-07
0.000312688
1.60658e-07
-1.54446e-07
0.000318399
1.60828e-07
-1.54412e-07
0.000321769
1.61007e-07
-1.5438e-07
0.000322557
1.61197e-07
-1.54353e-07
0.000320481
1.61399e-07
-1.54329e-07
0.000315243
1.61612e-07
-1.54311e-07
0.00030655
1.61837e-07
-1.54297e-07
0.000294144
1.62074e-07
-1.54289e-07
0.000277831
1.62324e-07
-1.54285e-07
0.000257523
1.62586e-07
-1.54286e-07
0.000233267
1.62862e-07
-1.54292e-07
0.000205272
1.6315e-07
-1.54303e-07
0.000173934
1.63453e-07
-1.54317e-07
0.000139841
1.63768e-07
-1.54336e-07
0.000103773
1.64098e-07
-1.54358e-07
6.66865e-05
1.6444e-07
-1.54384e-07
2.96827e-05
1.64798e-07
-1.5441e-07
-6.04075e-06
1.65168e-07
-1.54439e-07
-3.92443e-05
1.65554e-07
-1.54467e-07
-6.87186e-05
1.65955e-07
-1.54501e-07
-9.33689e-05
1.66377e-07
-1.54536e-07
-0.000112279
1.66815e-07
-1.54578e-07
-0.000124792
1.67277e-07
-1.54622e-07
-0.000130565
1.67758e-07
-1.54675e-07
-0.0001296
1.68264e-07
-1.54731e-07
-0.000122273
1.6879e-07
-1.54798e-07
-0.000109294
1.69344e-07
-1.54866e-07
-9.16661e-05
1.69918e-07
-1.54946e-07
-7.0611e-05
1.7052e-07
-1.55026e-07
-4.74836e-05
1.71141e-07
-1.55118e-07
-2.36655e-05
1.71793e-07
-1.55208e-07
-4.62317e-07
1.72461e-07
-1.55309e-07
2.09817e-05
1.73161e-07
-1.55405e-07
3.97696e-05
1.73879e-07
-1.55516e-07
5.52961e-05
1.74634e-07
-1.55622e-07
6.72663e-05
1.75408e-07
-1.55747e-07
7.56954e-05
1.76223e-07
-1.55867e-07
8.08824e-05
1.77056e-07
-1.56009e-07
8.33537e-05
1.77935e-07
-1.56145e-07
8.37989e-05
1.78831e-07
-1.56306e-07
8.2998e-05
1.79777e-07
-1.5646e-07
8.17424e-05
1.80737e-07
-1.56642e-07
8.07865e-05
1.81751e-07
-1.56814e-07
8.07972e-05
1.82776e-07
-1.57019e-07
8.23023e-05
1.83859e-07
-1.5721e-07
8.56792e-05
1.84951e-07
-1.57439e-07
9.11605e-05
1.86106e-07
-1.57651e-07
9.88404e-05
1.87265e-07
-1.57906e-07
0.000108681
1.88495e-07
-1.58141e-07
0.000120534
1.89725e-07
-1.58428e-07
0.000134151
1.91035e-07
-1.58691e-07
0.00014923
1.92342e-07