/*--------------------------------*- C++ -*----------------------------------*\
| =========                 |                                                 |
| \\      /  F ield         | OpenFOAM: The Open Source CFD Toolbox           |
|  \\    /   O peration     | Version:  2012                                  |
|   \\  /    A nd           | Website:  www.openfoam.com                      |
|    \\/     M anipulation  |                                                 |
\*---------------------------------------------------------------------------*/
FoamFile
{
    version     2.0;
    format      ascii;
    class       volVectorField;
    location    "12800";
    object      U;
}
// * * * * * * * * * * * * * * * * * * * * * * * * * * * * * * * * * * * * * //

dimensions      [0 1 -1 0 0 0 0];


internalField   nonuniform List<vector> 
2560
(
(0.0338195 -2.67206e-05 0.00057465)
(0.03378 -1.12926e-05 5.48031e-08)
(0.101695 -1.35918e-05 0.000800543)
(0.101577 2.01444e-05 1.90895e-08)
(0.170356 -2.77597e-05 0.000521709)
(0.170162 3.06743e-05 5.62578e-09)
(0.239808 -3.61667e-05 0.000258511)
(0.239542 3.6466e-05 1.49179e-09)
(0.310063 -3.93783e-05 0.000136556)
(0.309731 3.9603e-05 3.88577e-10)
(0.381132 -4.14299e-05 8.41218e-05)
(0.380741 4.14101e-05 9.03571e-11)
(0.452991 -4.27181e-05 5.85055e-05)
(0.452547 4.27266e-05 1.37752e-10)
(0.525587 -4.37099e-05 4.41546e-05)
(0.525098 4.3578e-05 1.32013e-11)
(0.598866 -4.44032e-05 3.52279e-05)
(0.598339 4.44445e-05 9.63315e-11)
(0.672841 -4.51012e-05 2.92354e-05)
(0.672282 4.49191e-05 3.88521e-12)
(0.747598 -4.55442e-05 2.49793e-05)
(0.747013 4.56246e-05 9.05627e-11)
(0.823176 -4.61188e-05 2.18241e-05)
(0.82257 4.58905e-05 -3.30195e-21)
(0.89962 -4.6447e-05 1.94057e-05)
(0.899 4.6535e-05 6.32107e-11)
(0.97701 -4.692e-05 1.74918e-05)
(0.97638 5.99415e-05 4.87756e-08)
(1.05535 -4.72869e-05 1.59733e-05)
(1.05472 2.09141e-05 -3.06793e-37)
(1.13458 -4.72658e-05 1.46966e-05)
(1.13395 0.000104054 1.2353e-07)
(1.21457 -4.8397e-05 1.3687e-05)
(1.21394 -4.07917e-05 4.58158e-10)
(1.29521 -4.74879e-05 1.28119e-05)
(1.29458 0.000140515 3.80436e-08)
(1.37652 -4.92931e-05 1.2077e-05)
(1.3759 -5.2614e-05 7.26806e-10)
(1.45875 -4.75538e-05 1.14381e-05)
(1.45814 0.000153496 3.68539e-08)
(1.54224 -5.03228e-05 1.08947e-05)
(1.54164 -6.43616e-05 5.40196e-10)
(1.6272 -4.74982e-05 1.04131e-05)
(1.62662 0.000166258 3.51871e-08)
(1.71371 -5.13894e-05 1.00003e-05)
(1.71314 -7.59882e-05 -1.5061e-21)
(1.80176 -4.72112e-05 9.60324e-06)
(1.80121 0.000205526 1.44122e-07)
(1.89137 -5.26664e-05 9.31187e-06)
(1.89083 -0.000140995 1.40019e-21)
(1.98258 -4.67955e-05 8.98872e-06)
(1.98205 0.000279761 1.91169e-07)
(2.07541 -5.42063e-05 8.77999e-06)
(2.0749 -0.000224274 1.64593e-09)
(2.16987 -4.61156e-05 8.5518e-06)
(2.16937 0.000333275 7.14717e-08)
(2.26592 -5.59468e-05 8.36723e-06)
(2.26545 -0.000247611 3.44675e-09)
(2.36356 -4.50861e-05 8.18646e-06)
(2.3631 0.000357935 7.3523e-08)
(2.46283 -5.79878e-05 8.04397e-06)
(2.46238 -0.000271763 3.21147e-09)
(2.56395 -4.36726e-05 7.89938e-06)
(2.56352 0.00038295 6.9711e-08)
(2.66737 -6.04233e-05 7.78858e-06)
(2.66695 -0.000295763 1.46291e-09)
(2.77372 -4.17709e-05 7.67228e-06)
(2.7733 0.000407657 6.45721e-08)
(2.88367 -6.33623e-05 7.58692e-06)
(2.88326 -0.00031928 -1.45725e-37)
(2.99782 -3.93153e-05 7.45707e-06)
(2.99742 0.000464242 2.20959e-07)
(3.11658 -6.69721e-05 7.4345e-06)
(3.11619 -0.000407806 1.09574e-21)
(3.24012 -3.62251e-05 7.20792e-06)
(3.23973 0.000653321 7.30455e-07)
(3.36836 -7.1327e-05 7.33482e-06)
(3.36799 -0.000698948 0)
(3.50112 -3.24236e-05 7.08485e-06)
(3.50074 0.000983028 9.55121e-07)
(3.63816 -7.64066e-05 7.28833e-06)
(3.63779 -0.00107044 1.06031e-21)
(3.77946 -2.79212e-05 7.10611e-06)
(3.7791 0.00131961 7.99432e-07)
(3.9254 -8.21445e-05 7.28869e-06)
(3.92504 -0.00137427 1.04983e-21)
(4.07692 -2.27473e-05 7.22106e-06)
(4.07656 0.00155172 4.253e-07)
(4.23549 -8.85036e-05 7.32557e-06)
(4.23513 -0.00153428 -4.04396e-37)
(4.40293 -1.69225e-05 7.31522e-06)
(4.40257 0.00168206 2.59377e-07)
(4.58099 -9.55488e-05 7.3922e-06)
(4.58063 -0.00163326 1.04091e-21)
(4.77105 -1.03797e-05 7.37339e-06)
(4.77069 0.0017985 3.56231e-07)
(4.9739 -0.000103375 7.48867e-06)
(4.97354 -0.00176593 1.0419e-21)
(5.18974 -3.04321e-06 7.03911e-06)
(5.18937 0.00224198 2.20586e-06)
(5.41826 -0.000111588 7.63292e-06)
(5.4179 -0.00252683 1.04636e-21)
(5.65855 4.93672e-06 7.34842e-06)
(5.65821 0.00291257 1.74114e-06)
(5.90857 -0.000119719 7.85343e-06)
(5.90824 -0.00310825 3.40987e-08)
(6.16414 1.275e-05 7.94677e-06)
(6.16384 0.00329603 6.9903e-07)
(6.41766 -0.000127642 8.25188e-06)
(6.41739 -0.00328919 1.51131e-07)
(6.65663 1.90137e-05 8.46165e-06)
(6.65642 0.00350721 1.27969e-06)
(6.86289 -0.000135728 9.02442e-06)
(6.86276 -0.00353129 3.646e-07)
(7.01297 2.27027e-05 9.42168e-06)
(7.01293 0.00378971 2.04296e-06)
(7.08014 -0.000143199 1.03118e-05)
(7.08021 -0.00386015 5.84353e-07)
(7.03822 2.4457e-05 1.08848e-05)
(7.03844 0.00414654 2.48092e-06)
(6.86636 -0.000147436 1.19595e-05)
(6.86674 -0.00425099 6.29251e-07)
(6.55369 2.55779e-05 1.25637e-05)
(6.55426 0.00452924 2.10024e-06)
(6.10252 -0.000146701 1.34946e-05)
(6.1033 -0.0046235 3.9838e-07)
(5.52908 2.55797e-05 1.39447e-05)
(5.53007 0.00485917 9.99303e-07)
(4.86139 -0.000142269 1.44669e-05)
(4.86262 -0.00490042 2.32544e-21)
(4.13507 2.23523e-05 1.46743e-05)
(4.13655 0.00509247 4.48814e-08)
(3.3882 -0.000136536 1.45556e-05)
(3.38992 -0.00495211 1.08713e-06)
(2.65649 1.52908e-05 1.46123e-05)
(2.65844 0.00509935 3.11174e-07)
(1.96977 -0.000130617 1.42955e-05)
(1.97192 -0.00493959 1.69271e-06)
(1.35026 5.93004e-06 1.43216e-05)
(1.35254 0.00506693 3.93417e-07)
(0.812413 -0.000124442 1.40065e-05)
(0.814729 -0.00491224 1.75862e-06)
(0.363922 -3.74169e-06 1.40754e-05)
(0.366147 0.00504139 3.70144e-07)
(0.00721511 -0.00011811 8.66978e-07)
(0.00920056 -0.000164976 4.16172e-06)
(-0.259038 -1.15266e-05 7.0486e-07)
(-0.257437 0.000252756 4.20793e-07)
(-0.438703 -0.000111229 6.87784e-07)
(-0.437559 -9.17929e-05 9.75283e-07)
(-0.537273 -1.81523e-05 5.3432e-07)
(-0.53661 0.000189466 3.12314e-07)
(-0.561332 -0.000105013 5.186e-07)
(-0.561147 -3.61144e-05 7.44639e-07)
(-0.518215 -2.39635e-05 3.81044e-07)
(-0.518488 0.000142277 2.29609e-07)
(-0.415727 -9.95329e-05 3.68945e-07)
(-0.416429 2.61772e-06 5.2393e-07)
(-0.261851 -2.90948e-05 2.47483e-07)
(-0.262934 0.000110649 1.57188e-07)
(-0.064488 -9.46935e-05 2.40867e-07)
(-0.06588 2.70603e-05 3.33964e-07)
(0.168808 -3.36836e-05 1.36419e-07)
(0.167219 9.18188e-05 1.46942e-07)
(0.431098 -9.03233e-05 1.39606e-07)
(0.429434 4.01507e-05 1.92763e-07)
(0.716194 -3.77357e-05 5.43125e-08)
(0.714555 8.2736e-05 1.93048e-07)
(1.01865 -8.63402e-05 6.6592e-08)
(1.01711 4.53335e-05 2.03537e-07)
(1.33365 -4.13671e-05 0)
(1.33224 8.05913e-05 2.30668e-07)
(1.6568 -8.30861e-05 6.14406e-08)
(1.65555 4.48163e-05 2.19884e-07)
(1.98391 -4.38717e-05 7.13249e-08)
(1.98283 7.98575e-05 2.27563e-07)
(2.31077 -8.05901e-05 1.49869e-07)
(2.30985 4.70232e-05 2.32041e-07)
(2.63295 -4.61208e-05 1.85551e-07)
(2.63216 7.78601e-05 2.3998e-07)
(2.94574 -7.84616e-05 2.8675e-07)
(2.94507 4.8896e-05 2.85765e-07)
(3.24416 -4.81796e-05 3.49244e-07)
(3.2436 7.60178e-05 3.51059e-07)
(3.52315 -7.66742e-05 4.67267e-07)
(3.52269 5.04564e-05 4.66546e-07)
(3.7778 -5.00682e-05 5.42544e-07)
(3.77742 7.43166e-05 5.44356e-07)
(4.00369 -7.51335e-05 6.58097e-07)
(4.00339 5.17951e-05 6.5763e-07)
(4.19725 -5.17532e-05 7.22856e-07)
(4.19701 7.27932e-05 7.24674e-07)
(4.35604 -7.37635e-05 8.11432e-07)
(4.35586 5.29851e-05 8.11204e-07)
(4.47907 -5.31558e-05 8.43942e-07)
(4.47894 7.15288e-05 8.45766e-07)
(4.56686 -7.24811e-05 8.90711e-07)
(4.56677 5.41068e-05 8.907e-07)
(4.62147 -5.4297e-05 8.83288e-07)
(4.62142 7.05047e-05 8.85114e-07)
(4.64635 -7.12559e-05 8.89923e-07)
(4.64633 5.51882e-05 8.90102e-07)
(4.64608 -5.52509e-05 8.51318e-07)
(4.64608 6.9649e-05 8.53141e-07)
(4.62611 -7.01211e-05 8.32579e-07)
(4.62613 5.61937e-05 8.32928e-07)
(4.5924 -5.60795e-05 7.81256e-07)
(4.59244 6.89018e-05 7.83076e-07)
(4.55111 -6.91526e-05 7.55472e-07)
(4.55115 5.70456e-05 7.55977e-07)
(4.50828 -5.68349e-05 7.06953e-07)
(4.50832 6.82128e-05 7.08778e-07)
(4.46964 -6.83461e-05 6.86382e-07)
(4.46967 5.77458e-05 6.87041e-07)
(4.44041 -5.7539e-05 6.4819e-07)
(4.44043 6.75614e-05 6.5004e-07)
(4.42516 -6.76583e-05 6.37206e-07)
(4.42517 5.83364e-05 6.38031e-07)
(4.42773 -5.81778e-05 6.11121e-07)
(4.42772 6.69634e-05 6.13029e-07)
(4.45111 -6.70425e-05 6.11072e-07)
(4.45107 5.88623e-05 6.12089e-07)
(4.49735 -5.87189e-05 5.99956e-07)
(4.4973 6.6452e-05 6.01967e-07)
(4.56748 -6.64997e-05 6.15169e-07)
(4.56741 5.93213e-05 6.16419e-07)
(4.66141 -5.91731e-05 6.24502e-07)
(4.66132 6.60175e-05 6.26671e-07)
(4.77782 -6.59928e-05 6.63799e-07)
(4.77771 5.97494e-05 6.65332e-07)
(4.91413 -5.96216e-05 7.01262e-07)
(4.91401 6.55796e-05 7.03653e-07)
(5.06656 -6.55715e-05 7.67853e-07)
(5.06643 6.00958e-05 7.69721e-07)
(5.23015 -5.9997e-05 8.35984e-07)
(5.23002 6.52065e-05 8.38657e-07)
(5.39902 -6.5221e-05 9.32416e-07)
(5.3989 6.03744e-05 9.34667e-07)
(5.56663 -6.03145e-05 1.03289e-06)
(5.56652 6.48833e-05 1.03589e-06)
(5.72615 -6.48778e-05 1.16387e-06)
(5.72605 6.0648e-05 1.16654e-06)
(5.87087 -6.05532e-05 1.30623e-06)
(5.87079 6.46317e-05 1.30958e-06)
(5.9947 -6.45101e-05 1.48867e-06)
(5.99464 6.09476e-05 1.49175e-06)
(6.09257 -6.0713e-05 1.69801e-06)
(6.09252 6.4452e-05 1.70172e-06)
(6.16076 -6.41436e-05 1.96419e-06)
(6.16073 6.1247e-05 1.96767e-06)
(6.19724 -6.08393e-05 2.27754e-06)
(6.19723 6.42995e-05 2.28156e-06)
(6.20168 -6.38722e-05 2.6628e-06)
(6.20168 6.14515e-05 2.66662e-06)
(6.17544 -6.10153e-05 3.10759e-06)
(6.17546 6.40912e-05 3.11187e-06)
(6.12136 -6.37861e-05 3.62375e-06)
(6.12139 6.14706e-05 3.62784e-06)
(6.04341 -6.1356e-05 4.18588e-06)
(6.04346 6.37125e-05 4.19037e-06)
(5.94631 -6.3896e-05 4.78925e-06)
(5.94637 6.12929e-05 4.79356e-06)
(5.83501 -6.18764e-05 5.39118e-06)
(5.83507 6.31489e-05 5.39582e-06)
(5.71429 -6.4188e-05 5.96786e-06)
(5.71436 6.09318e-05 5.97234e-06)
(5.58838 -6.24366e-05 6.46682e-06)
(5.58845 6.25402e-05 6.47158e-06)
(5.46068 -6.4445e-05 6.85983e-06)
(5.46076 6.06042e-05 6.86446e-06)
(5.33363 -6.28441e-05 7.09942e-06)
(5.3337 6.20792e-05 7.1043e-06)
(5.20862 -6.4469e-05 7.17014e-06)
(5.20869 6.05078e-05 7.17491e-06)
(5.08614 -6.28932e-05 7.04958e-06)
(5.08621 6.19717e-05 7.05457e-06)
(4.9659 -6.41216e-05 6.75175e-06)
(4.96597 6.07805e-05 6.75664e-06)
(4.84709 -6.25677e-05 6.28729e-06)
(4.84716 6.22338e-05 6.29238e-06)
(4.72855 -6.35008e-05 5.69814e-06)
(4.72863 6.13239e-05 5.70314e-06)
(4.60909 -6.20591e-05 5.01757e-06)
(4.60917 6.26743e-05 5.02273e-06)
(4.48763 -6.28446e-05 4.29892e-06)
(4.48771 6.18998e-05 4.304e-06)
(4.36338 -6.16268e-05 3.57722e-06)
(4.36346 6.3034e-05 3.58243e-06)
(4.23595 -6.23694e-05 2.8975e-06)
(4.23603 6.22913e-05 2.90262e-06)
(4.10541 -6.14227e-05 2.28047e-06)
(4.10549 6.31612e-05 2.28569e-06)
(3.97222 -6.21849e-05 1.74889e-06)
(3.97231 6.23883e-05 1.75401e-06)
(3.83725 -6.14499e-05 1.3042e-06)
(3.83734 6.30527e-05 1.3094e-06)
(3.70163 -6.22059e-05 9.50246e-07)
(3.70173 6.22758e-05 9.55324e-07)
(3.56665 -6.16142e-05 6.74229e-07)
(3.56674 6.28027e-05 8.40032e-07)
(3.43364 -6.23133e-05 4.69538e-07)
(3.43373 6.20728e-05 8.50815e-07)
(3.30385 -6.1795e-05 3.19029e-07)
(3.30394 6.25316e-05 8.60386e-07)
(3.17835 -6.24093e-05 2.14387e-07)
(3.17844 6.18764e-05 8.71177e-07)
(3.05795 -6.19294e-05 1.66464e-07)
(3.05804 6.23025e-05 8.80721e-07)
(2.94312 -6.24509e-05 1.86231e-07)
(2.94321 6.17295e-05 8.91385e-07)
(2.83398 -6.20084e-05 1.81236e-07)
(2.83407 6.21242e-05 9.00837e-07)
(2.73026 -6.24422e-05 2.03989e-07)
(2.73034 6.16278e-05 9.11201e-07)
(2.63131 -6.20401e-05 1.96949e-07)
(2.63139 6.19886e-05 9.20515e-07)
(2.53613 -6.23972e-05 2.22161e-07)
(2.53621 6.15569e-05 9.30408e-07)
(2.44337 -6.20552e-05 2.25402e-07)
(2.44345 6.18652e-05 9.39601e-07)
(2.35141 -6.23489e-05 2.40532e-07)
(2.3515 6.14837e-05 9.48911e-07)
(2.25838 -6.20002e-05 2.49673e-07)
(2.25847 6.18075e-05 9.5805e-07)
(2.16222 -6.23206e-05 2.51169e-07)
(2.16232 6.13847e-05 9.66811e-07)
(2.06077 -6.19772e-05 2.64729e-07)
(2.06088 6.17132e-05 9.76036e-07)
(1.95186 -6.22546e-05 2.62451e-07)
(1.95198 6.13168e-05 9.84464e-07)
(1.83342 -6.19521e-05 2.7965e-07)
(1.83356 6.16166e-05 9.9403e-07)
(1.7036 -6.21885e-05 2.74715e-07)
(1.70376 6.12422e-05 1.00253e-06)
(1.56092 -6.19243e-05 2.94333e-07)
(1.56111 6.15182e-05 1.01285e-06)
(1.4044 -6.21219e-05 2.89072e-07)
(1.40462 6.11605e-05 1.02204e-06)
(1.23366 -6.18939e-05 3.08646e-07)
(1.23394 6.14178e-05 1.03368e-06)
(1.04911 -6.20544e-05 3.05007e-07)
(1.04947 6.10714e-05 1.04434e-06)
(0.851959 -6.18614e-05 3.22405e-07)
(0.852434 6.13145e-05 1.05799e-06)
(0.644315 -6.19852e-05 3.20115e-07)
(0.644966 6.09746e-05 1.07101e-06)
(0.429172 -6.18259e-05 3.35382e-07)
(0.430074 6.12083e-05 1.08734e-06)
(0.210373 -6.19136e-05 3.34194e-07)
(0.211574 6.08694e-05 1.10349e-06)
(-0.00746301 -6.17871e-05 3.47317e-07)
(-0.00605892 6.10991e-05 1.12295e-06)
(-0.219076 -6.18468e-05 3.4702e-07)
(-0.217878 6.07636e-05 1.14248e-06)
(-0.419165 -6.17264e-05 3.6062e-07)
(-0.4183 6.0967e-05 1.16219e-06)
(-0.602301 -6.17853e-05 3.6387e-07)
(-0.601724 6.06588e-05 1.1823e-06)
(-0.763153 -6.16604e-05 3.77703e-07)
(-0.762778 6.0829e-05 1.20191e-06)
(-0.896839 -6.17209e-05 3.84413e-07)
(-0.896599 6.05452e-05 1.22185e-06)
(-0.999218 -6.15896e-05 3.97829e-07)
(-0.99907 6.06845e-05 1.24069e-06)
(-1.06708 -6.1654e-05 4.06915e-07)
(-1.067 6.04226e-05 1.25972e-06)
(-1.09835 -6.15135e-05 4.1983e-07)
(-1.09833 6.05334e-05 1.27734e-06)
(-1.09222 -6.15845e-05 4.29698e-07)
(-1.09226 6.02913e-05 1.29522e-06)
(-1.04911 -6.14345e-05 4.42442e-07)
(-1.0492 6.03732e-05 1.31182e-06)
(-0.970696 -6.15125e-05 4.51005e-07)
(-0.970846 6.01515e-05 1.32919e-06)
(-0.859768 -6.13508e-05 4.64593e-07)
(-0.859996 6.02048e-05 1.34583e-06)
(-0.720075 -6.14393e-05 4.69078e-07)
(-0.720416 6.00019e-05 1.36418e-06)
(-0.556075 -6.12624e-05 4.85594e-07)
(-0.556594 6.00269e-05 1.38244e-06)
(-0.372651 -6.13649e-05 4.81902e-07)
(-0.373437 5.98419e-05 1.40368e-06)
(-0.174975 -6.11693e-05 5.05103e-07)
(-0.176072 5.98373e-05 1.42517e-06)
(0.0317059 -6.12896e-05 5.01521e-07)
(0.0304952 5.96731e-05 1.45103e-06)
(0.242419 -6.10766e-05 5.23157e-07)
(0.241482 5.96419e-05 1.47605e-06)
(0.452839 -6.11934e-05 5.23961e-07)
(0.452202 5.94719e-05 1.50282e-06)
(0.659066 -6.09864e-05 5.48205e-07)
(0.65864 5.94449e-05 1.52798e-06)
(0.857734 -6.10929e-05 5.53935e-07)
(0.857437 5.9257e-05 1.55554e-06)
(1.04606 -6.08908e-05 5.81025e-07)
(1.04585 5.92343e-05 1.5805e-06)
(1.22192 -6.0984e-05 5.91914e-07)
(1.22176 5.9032e-05 1.60825e-06)
(1.38377 -6.07857e-05 6.21837e-07)
(1.38364 5.90139e-05 1.63234e-06)
(1.53056 -6.0872e-05 6.37909e-07)
(1.53046 5.87915e-05 1.65954e-06)
(1.66174 -6.06626e-05 6.70444e-07)
(1.66166 5.87925e-05 1.68194e-06)
(1.7771 -6.07496e-05 7.84238e-07)
(1.77704 5.85426e-05 1.70781e-06)
(1.87669 -6.05288e-05 9.52769e-07)
(1.87664 5.85634e-05 1.72773e-06)
(1.96072 -6.06128e-05 1.14079e-06)
(1.96067 5.82898e-05 1.75162e-06)
(2.02943 -6.0382e-05 1.3458e-06)
(2.0294 5.83301e-05 1.76834e-06)
(2.08306 -6.04663e-05 1.56422e-06)
(2.08303 5.80291e-05 1.78981e-06)
(2.12165 -6.02296e-05 1.79142e-06)
(2.12164 5.80865e-05 1.80284e-06)
(2.14508 -6.03099e-05 2.02243e-06)
(2.14507 5.77617e-05 2.0031e-06)
(2.15291 -6.00902e-05 2.25001e-06)
(2.15291 5.78159e-05 2.23056e-06)
(2.14448 -6.01493e-05 2.47189e-06)
(2.14449 5.74829e-05 2.45117e-06)
(2.11888 -5.99667e-05 2.67955e-06)
(2.1189 5.75175e-05 2.65908e-06)
(2.07503 -6.00042e-05 2.8743e-06)
(2.07505 5.71739e-05 2.8528e-06)
(2.01181 -5.98517e-05 3.05151e-06)
(2.01185 5.72002e-05 3.03077e-06)
(1.92824 -5.98764e-05 3.21493e-06)
(1.92829 5.68334e-05 3.19345e-06)
(1.82363 -5.9749e-05 3.36487e-06)
(1.82368 5.68615e-05 3.3448e-06)
(1.69773 -5.97585e-05 3.50918e-06)
(1.69781 5.64684e-05 3.48874e-06)
(1.55101 -5.96404e-05 3.65196e-06)
(1.5511 5.65198e-05 3.63371e-06)
(1.38469 -5.96426e-05 3.80083e-06)
(1.3848 5.60845e-05 3.78259e-06)
(1.20094 -5.95134e-05 3.96186e-06)
(1.20108 5.61856e-05 3.94668e-06)
(1.00289 -5.95153e-05 4.13905e-06)
(1.00306 5.56916e-05 4.12423e-06)
(0.794593 -5.93719e-05 4.33654e-06)
(0.794817 5.58513e-05 4.32566e-06)
(0.580988 -5.93589e-05 4.55531e-06)
(0.581302 5.53013e-05 4.54502e-06)
(0.367684 -5.92213e-05 4.79203e-06)
(0.368166 5.55052e-05 4.78644e-06)
(0.160782 -5.91752e-05 5.04541e-06)
(0.161539 5.49037e-05 5.04038e-06)
(-0.0333639 -5.90712e-05 5.30424e-06)
(-0.0323708 5.51354e-05 5.30442e-06)
(-0.208357 -5.89843e-05 5.56682e-06)
(-0.207685 5.44848e-05 5.56522e-06)
(-0.358865 -5.88797e-05 5.82211e-06)
(-0.358506 5.47119e-05 5.81677e-06)
(-0.480273 -5.88359e-05 6.0577e-06)
(-0.480087 5.40101e-05 6.05087e-06)
(-0.569074 -5.8668e-05 6.27585e-06)
(-0.568977 5.42684e-05 6.2661e-06)
(-0.623295 -5.87107e-05 6.45987e-06)
(-0.623251 5.3467e-05 6.44925e-06)
(-0.642663 -5.84565e-05 6.62221e-06)
(-0.64266 5.37868e-05 6.60996e-06)
(-0.628661 -5.8583e-05 6.74991e-06)
(-0.628693 5.2881e-05 6.73762e-06)
(-0.584508 -5.82683e-05 6.85888e-06)
(-0.584575 5.32451e-05 6.84654e-06)
(-0.514857 -5.84328e-05 6.94845e-06)
(-0.514961 5.22711e-05 6.93691e-06)
(-0.425484 -5.80738e-05 7.0319e-06)
(-0.42564 5.26719e-05 7.02186e-06)
(-0.322869 -5.82634e-05 7.11062e-06)
(-0.323111 5.16305e-05 7.10197e-06)
(-0.213735 -5.7869e-05 7.19536e-06)
(-0.21413 5.20665e-05 7.18944e-06)
(-0.104592 -5.80686e-05 7.28762e-06)
(-0.105168 5.09591e-05 7.2832e-06)
(-0.00132856 -5.76362e-05 7.39314e-06)
(-0.00191957 5.14389e-05 7.39216e-06)
(0.0912727 -5.78792e-05 7.50588e-06)
(0.0908723 5.02422e-05 7.50604e-06)
(0.1699 -5.73388e-05 7.63988e-06)
(0.169661 5.07637e-05 7.63444e-06)
(0.232576 -5.76889e-05 7.77167e-06)
(0.232437 4.94876e-05 7.76756e-06)
(0.27871 -5.70337e-05 7.91855e-06)
(0.278631 5.00364e-05 7.90959e-06)
(0.309034 -5.74923e-05 8.0588e-06)
(0.308992 4.86766e-05 8.05172e-06)
(0.3254 -5.67084e-05 8.21268e-06)
(0.325381 4.92715e-05 8.20166e-06)
(0.330477 -5.72973e-05 8.35522e-06)
(0.330475 4.7803e-05 8.3466e-06)
(0.327438 -5.63715e-05 8.51241e-06)
(0.327446 4.84621e-05 8.50068e-06)
(0.319634 -5.70953e-05 8.65907e-06)
(0.319645 4.68765e-05 8.65e-06)
(0.310275 -5.60328e-05 8.82328e-06)
(0.310287 4.7599e-05 8.81161e-06)
(0.302257 -5.68778e-05 8.98345e-06)
(0.302265 4.59065e-05 8.97438e-06)
(0.297985 -5.56685e-05 9.16634e-06)
(0.297986 4.67065e-05 9.15479e-06)
(0.299218 -5.66644e-05 9.34326e-06)
(0.299211 4.48744e-05 9.33393e-06)
(0.307073 -5.52857e-05 9.54751e-06)
(0.307057 4.57784e-05 9.5355e-06)
(0.322081 -5.64393e-05 9.74605e-06)
(0.322057 4.3798e-05 9.73567e-06)
(0.344253 -5.48813e-05 9.97164e-06)
(0.344223 4.48201e-05 9.9582e-06)
(0.373139 -5.62173e-05 1.01843e-05)
(0.373104 4.26662e-05 1.01718e-05)
(0.407925 -5.4466e-05 1.04217e-05)
(0.407889 4.38251e-05 1.04058e-05)
(0.447517 -5.6005e-05 1.06407e-05)
(0.447481 4.14781e-05 1.06251e-05)
(0.490684 -5.40243e-05 1.08863e-05)
(0.49065 4.28152e-05 1.08669e-05)
(0.536041 -5.58181e-05 1.11025e-05)
(0.536009 4.02251e-05 1.1083e-05)
(0.582139 -5.35729e-05 1.13481e-05)
(0.582111 4.17811e-05 1.13246e-05)
(0.627518 -5.56334e-05 1.15602e-05)
(0.627493 3.89391e-05 1.15364e-05)
(0.670691 -5.31423e-05 1.17979e-05)
(0.67067 4.07013e-05 1.17702e-05)
(0.710331 -5.54376e-05 1.20047e-05)
(0.710313 3.76437e-05 1.19767e-05)
(0.745249 -5.27223e-05 1.22307e-05)
(0.745235 3.95959e-05 1.2199e-05)
(0.774442 -5.52738e-05 1.24172e-05)
(0.774431 3.63059e-05 1.23856e-05)
(0.797252 -5.23007e-05 1.26259e-05)
(0.797244 3.84864e-05 1.2591e-05)
(0.813432 -5.51278e-05 1.27868e-05)
(0.813427 3.49502e-05 1.27526e-05)
(0.823105 -5.19023e-05 1.29631e-05)
(0.823102 3.73572e-05 1.29261e-05)
(0.826743 -5.50164e-05 1.30838e-05)
(0.826743 3.3569e-05 1.30481e-05)
(0.825138 -5.15262e-05 1.3221e-05)
(0.825139 3.62166e-05 1.31828e-05)
(0.819326 -5.49349e-05 1.32998e-05)
(0.819328 3.21744e-05 1.32636e-05)
(0.810433 -5.11771e-05 1.33973e-05)
(0.810436 3.50652e-05 1.33587e-05)
(0.799488 -5.49016e-05 1.34351e-05)
(0.799492 3.07539e-05 1.33991e-05)
(0.787369 -5.08476e-05 1.35054e-05)
(0.787374 3.39146e-05 1.34668e-05)
(0.77467 -5.4906e-05 1.35201e-05)
(0.774674 2.93222e-05 1.34847e-05)
(0.761608 -5.0558e-05 1.35799e-05)
(0.761613 3.27476e-05 1.35414e-05)
(0.748153 -5.49304e-05 1.35972e-05)
(0.748157 2.7901e-05 1.35625e-05)
(0.734014 -5.02984e-05 1.36698e-05)
(0.734019 3.15763e-05 1.36316e-05)
(0.718706 -5.49975e-05 1.37023e-05)
(0.718711 2.64709e-05 1.36684e-05)
(0.701794 -5.00527e-05 1.38025e-05)
(0.7018 3.04191e-05 1.37646e-05)
(0.682949 -5.51025e-05 1.38542e-05)
(0.682956 2.50398e-05 1.38216e-05)
(0.66205 -4.98409e-05 1.3971e-05)
(0.662057 2.92573e-05 1.39337e-05)
(0.639294 -5.52377e-05 1.40252e-05)
(0.639302 2.36172e-05 1.39943e-05)
(0.615186 -4.96737e-05 1.41305e-05)
(0.615194 2.80804e-05 1.40942e-05)
(0.590544 -5.54098e-05 1.41522e-05)
(0.590552 2.21975e-05 1.41235e-05)
(0.566395 -4.95607e-05 1.42083e-05)
(0.566403 2.6878e-05 1.41731e-05)
(0.543967 -5.56212e-05 1.41616e-05)
(0.543975 2.07774e-05 1.41352e-05)
(0.524535 -4.95011e-05 1.41376e-05)
(0.52454 2.56498e-05 1.41034e-05)
(0.509206 -5.58893e-05 1.39945e-05)
(0.50921 1.93386e-05 1.39699e-05)
(0.49896 -4.94919e-05 1.38795e-05)
(0.498962 2.43994e-05 1.38455e-05)
(0.494566 -5.62084e-05 1.36423e-05)
(0.494566 1.78856e-05 1.36183e-05)
(0.496424 -4.95298e-05 1.34496e-05)
(0.496421 2.31354e-05 1.34149e-05)
(0.504556 -5.65782e-05 1.31368e-05)
(0.504551 1.6417e-05 1.31117e-05)
(0.518678 -4.96301e-05 1.28898e-05)
(0.518673 2.18584e-05 1.28539e-05)
(0.538211 -5.69958e-05 1.25357e-05)
(0.538204 1.49291e-05 1.25064e-05)
(0.562301 -4.97795e-05 1.22761e-05)
(0.562293 2.0618e-05 1.224e-05)
(0.58991 -5.74871e-05 1.19098e-05)
(0.589902 1.33732e-05 1.18708e-05)
(0.619893 -4.99792e-05 1.16698e-05)
(0.619886 1.94897e-05 1.16386e-05)
(0.651026 -5.80831e-05 1.13151e-05)
(0.651019 1.1653e-05 1.12558e-05)
(0.682148 -5.02046e-05 1.11301e-05)
(0.682142 1.86518e-05 1.11173e-05)
(0.712264 -5.88492e-05 1.07943e-05)
(0.712258 9.54512e-06 1.06926e-05)
(0.740514 -5.0415e-05 1.06942e-05)
(0.740509 1.84398e-05 1.07304e-05)
(0.766312 -5.988e-05 1.0368e-05)
(0.766308 6.6207e-06 1.01798e-05)
(0.789484 -5.05333e-05 1.0385e-05)
(0.789481 1.94716e-05 1.05306e-05)
(0.810198 -6.12973e-05 1.00325e-05)
(0.810195 2.11954e-06 9.67452e-06)
(0.829047 -5.04685e-05 1.01807e-05)
(0.829044 2.27637e-05 1.05461e-05)
(0.847097 -6.32495e-05 9.72091e-06)
(0.847094 -5.20783e-06 9.04793e-06)
(0.865927 -5.0135e-05 9.98503e-06)
(0.865924 2.99038e-05 1.07557e-05)
(0.887737 -6.58614e-05 9.96156e-06)
(0.887733 -1.7205e-05 8.07179e-06)
(0.915524 -4.94904e-05 9.61623e-06)
(0.915519 4.31602e-05 1.10756e-05)
(0.953459 -6.92391e-05 1.06685e-05)
(0.953453 -3.68178e-05 6.4075e-06)
(1.00717 -4.86648e-05 8.82529e-06)
(1.00717 6.6298e-05 1.14564e-05)
(1.08457 -5.71422e-05 7.22793e-06)
(1.08456 -6.70942e-05 3.79556e-06)
(1.19716 -3.13724e-05 7.32043e-06)
(1.19715 0.00010083 1.1584e-05)
(1.36166 -4.40202e-05 5.23398e-06)
(1.36165 -0.000100373 2.8716e-06)
(1.59999 -1.18667e-05 4.96135e-06)
(1.59998 0.000126791 8.35703e-06)
(1.93925 -2.87567e-05 2.62959e-06)
(1.93924 -0.000126529 4.04031e-06)
(2.50992 9.10346e-06 1.72965e-06)
(2.50992 0.000141536 6.53363e-06)
(0.0337799 -1.1276e-05 -5.47714e-08)
(0.0338194 -2.66989e-05 -0.000572995)
(0.101577 2.0206e-05 -1.91047e-08)
(0.101695 -1.34742e-05 -0.000798237)
(0.170161 3.07673e-05 -5.64894e-09)
(0.170356 -2.77014e-05 -0.000520207)
(0.239542 3.65804e-05 -1.49689e-09)
(0.239808 -3.61296e-05 -0.000257766)
(0.30973 3.97273e-05 -3.8897e-10)
(0.310063 -3.93662e-05 -0.000136162)
(0.38074 4.15399e-05 -9.03804e-11)
(0.381132 -4.14411e-05 -8.38795e-05)
(0.452546 4.28605e-05 -1.37493e-10)
(0.45299 -4.27362e-05 -5.8337e-05)
(0.525097 4.37147e-05 -1.30168e-11)
(0.525587 -4.37336e-05 -4.40275e-05)
(0.598337 4.45837e-05 -9.62436e-11)
(0.598866 -4.44411e-05 -3.51265e-05)
(0.67228 4.506e-05 -3.65464e-12)
(0.672841 -4.51302e-05 -2.91512e-05)
(0.747011 4.57674e-05 -8.99862e-11)
(0.747597 -4.55761e-05 -2.49073e-05)
(0.822568 4.60349e-05 9.78676e-23)
(0.823175 -4.61425e-05 -2.17613e-05)
(0.898998 4.66803e-05 -6.36506e-11)
(0.899619 -4.64726e-05 -1.93498e-05)
(0.976378 6.00882e-05 -4.87754e-08)
(0.977009 -4.69397e-05 -1.74414e-05)
(1.05472 2.10622e-05 -6.42365e-19)
(1.05535 -4.73159e-05 -1.59273e-05)
(1.13394 0.000104203 -1.23527e-07)
(1.13458 -4.72917e-05 -1.46542e-05)
(1.21394 -4.06414e-05 -4.58094e-10)
(1.21457 -4.84276e-05 -1.36476e-05)
(1.29458 0.000140666 -3.80458e-08)
(1.29521 -4.75155e-05 -1.2775e-05)
(1.3759 -5.24626e-05 -7.26598e-10)
(1.37652 -4.93238e-05 -1.20423e-05)
(1.45814 0.000153649 -3.68541e-08)
(1.45875 -4.75824e-05 -1.14053e-05)
(1.54164 -6.42088e-05 -5.39882e-10)
(1.54224 -5.03532e-05 -1.08634e-05)
(1.62662 0.000166412 -3.51865e-08)
(1.6272 -4.75274e-05 -1.03832e-05)
(1.71314 -7.58333e-05 6.30101e-19)
(1.71371 -5.14198e-05 -9.97167e-06)
(1.80121 0.000205682 -1.44121e-07)
(1.80176 -4.72409e-05 -9.57563e-06)
(1.89083 -0.000140838 1.45536e-36)
(1.89137 -5.26969e-05 -9.2852e-06)
(1.98205 0.000279918 -1.9117e-07)
(1.98258 -4.68255e-05 -8.96289e-06)
(2.0749 -0.000224117 -1.64572e-09)
(2.07541 -5.42371e-05 -8.75491e-06)
(2.16937 0.000333434 -7.14718e-08)
(2.16986 -4.61459e-05 -8.52739e-06)
(2.26544 -0.000247453 -3.4466e-09)
(2.26592 -5.59777e-05 -8.34341e-06)
(2.36309 0.000358095 -7.35228e-08)
(2.36356 -4.51166e-05 -8.16317e-06)
(2.46238 -0.000271604 -3.21121e-09)
(2.46283 -5.80189e-05 -8.02115e-06)
(2.56351 0.000383112 -6.97112e-08)
(2.56395 -4.37035e-05 -7.87699e-06)
(2.66695 -0.000295602 -1.46257e-09)
(2.66737 -6.04547e-05 -7.76655e-06)
(2.7733 0.00040782 -6.45716e-08)
(2.77372 -4.18021e-05 -7.65059e-06)
(2.88326 -0.000319118 -5.34719e-19)
(2.88366 -6.33939e-05 -7.56553e-06)
(2.99742 0.000464407 -2.20959e-07)
(2.99782 -3.93468e-05 -7.43595e-06)
(3.11619 -0.000407643 0)
(3.11658 -6.70039e-05 -7.41361e-06)
(3.23973 0.000653488 -7.30454e-07)
(3.24011 -3.62568e-05 -7.18724e-06)
(3.36798 -0.000698783 -3.924e-19)
(3.36836 -7.1359e-05 -7.31433e-06)
(3.50074 0.000983196 -9.5512e-07)
(3.50112 -3.24556e-05 -7.06451e-06)
(3.63779 -0.00107028 -1.06031e-21)
(3.63816 -7.6439e-05 -7.26811e-06)
(3.77909 0.00131978 -7.99431e-07)
(3.77946 -2.79535e-05 -7.086e-06)
(3.92504 -0.0013741 -2.92762e-18)
(3.9254 -8.21771e-05 -7.26867e-06)
(4.07655 0.00155189 -4.253e-07)
(4.07692 -2.27798e-05 -7.20111e-06)
(4.23513 -0.00153411 -1.04348e-21)
(4.23549 -8.85366e-05 -7.30567e-06)
(4.40257 0.00168223 -2.59377e-07)
(4.40293 -1.69554e-05 -7.29535e-06)
(4.58063 -0.00163309 1.04091e-21)
(4.58099 -9.55821e-05 -7.37235e-06)
(4.77069 0.00179867 -3.56231e-07)
(4.77105 -1.04129e-05 -7.35353e-06)
(4.97354 -0.00176576 -4.16761e-21)
(4.9739 -0.000103409 -7.46879e-06)
(5.18937 0.00224216 -2.20586e-06)
(5.18974 -3.07665e-06 -7.0192e-06)
(5.4179 -0.00252666 -2.09271e-21)
(5.41826 -0.000111622 -7.61295e-06)
(5.65821 0.00291275 -1.74114e-06)
(5.65855 4.90298e-06 -7.32839e-06)
(5.90824 -0.00310807 -3.40985e-08)
(5.90857 -0.000119753 -7.83331e-06)
(6.16384 0.00329621 -6.9903e-07)
(6.16414 1.27159e-05 -7.92655e-06)
(6.41739 -0.00328901 -1.5113e-07)
(6.41766 -0.000127677 -8.23154e-06)
(6.65642 0.00350739 -1.27969e-06)
(6.65663 1.89793e-05 -8.44118e-06)
(6.86276 -0.00353111 -3.646e-07)
(6.8629 -0.000135763 -9.00381e-06)
(7.01293 0.00378989 -2.04296e-06)
(7.01297 2.2668e-05 -9.40092e-06)
(7.08022 -0.00385998 -5.84352e-07)
(7.08014 -0.000143235 -1.02909e-05)
(7.03844 0.00414672 -2.48093e-06)
(7.03822 2.44219e-05 -1.08637e-05)
(6.86674 -0.00425081 -6.2925e-07)
(6.86636 -0.000147472 -1.19383e-05)
(6.55426 0.00452943 -2.10024e-06)
(6.55369 2.55425e-05 -1.25423e-05)
(6.1033 -0.00462332 -3.9838e-07)
(6.10253 -0.000146737 -1.34729e-05)
(5.53008 0.00485936 -9.99303e-07)
(5.52908 2.55438e-05 -1.39228e-05)
(4.86263 -0.00490024 -2.54925e-18)
(4.86139 -0.000142306 -1.44447e-05)
(4.13656 0.00509267 -4.48825e-08)
(4.13507 2.23161e-05 -1.46517e-05)
(3.38993 -0.00495192 -1.08713e-06)
(3.3882 -0.000136574 -1.45326e-05)
(2.65845 0.00509954 -3.11175e-07)
(2.65649 1.52542e-05 -1.45889e-05)
(1.97193 -0.0049394 -1.69271e-06)
(1.96977 -0.000130656 -1.42715e-05)
(1.35255 0.00506713 -3.93417e-07)
(1.35026 5.89304e-06 -1.42971e-05)
(0.814738 -0.00491205 -1.75862e-06)
(0.812417 -0.000124481 -1.39812e-05)
(0.366155 0.00504159 -3.70144e-07)
(0.363926 -3.7791e-06 -1.40495e-05)
(0.0092077 -0.000164777 -4.18834e-06)
(0.00721795 -0.00011815 -8.66988e-07)
(-0.257431 0.000252952 -4.20794e-07)
(-0.259036 -1.15644e-05 -7.04873e-07)
(-0.437554 -9.15906e-05 -9.75283e-07)
(-0.438701 -0.000111271 -6.87793e-07)
(-0.536606 0.000189664 -3.12314e-07)
(-0.537271 -1.81905e-05 -5.34334e-07)
(-0.561145 -3.59087e-05 -7.4464e-07)
(-0.561331 -0.000105055 -5.1861e-07)
(-0.518488 0.000142478 -2.2961e-07)
(-0.518214 -2.4002e-05 -3.81059e-07)
(-0.416429 2.82714e-06 -5.23931e-07)
(-0.415726 -9.95762e-05 -3.68954e-07)
(-0.262936 0.000110854 -1.57188e-07)
(-0.261851 -2.91336e-05 -2.47498e-07)
(-0.0658831 2.72737e-05 -3.33965e-07)
(-0.0644884 -9.47381e-05 -2.40875e-07)
(0.167215 9.20279e-05 -9.6212e-08)
(0.168808 -3.37227e-05 -1.36433e-07)
(0.429429 4.03685e-05 -1.81564e-07)
(0.431097 -9.03688e-05 -1.39615e-07)
(0.714549 8.29493e-05 -4.94945e-08)
(0.716192 -3.77762e-05 -5.43231e-08)
(1.0171 4.55559e-05 -7.19376e-08)
(1.01865 -8.63857e-05 -6.66102e-08)
(1.33224 8.08093e-05 -6.20343e-08)
(1.33364 -4.14062e-05 5.50464e-21)
(1.65555 4.50438e-05 -5.98874e-08)
(1.65679 -8.31332e-05 -6.14152e-08)
(1.98283 8.00812e-05 -7.32244e-08)
(1.98391 -4.3914e-05 -7.13187e-08)
(2.30984 4.72548e-05 -1.48608e-07)
(2.31077 -8.064e-05 -1.49852e-07)
(2.63216 7.80909e-05 -1.87397e-07)
(2.63295 -4.61632e-05 -1.8554e-07)
(2.94507 4.91321e-05 -2.85758e-07)
(2.94573 -7.85136e-05 -2.86736e-07)
(3.2436 7.62562e-05 -3.51068e-07)
(3.24416 -4.82231e-05 -3.49232e-07)
(3.52269 5.06973e-05 -4.66538e-07)
(3.52315 -7.6728e-05 -4.67251e-07)
(3.77742 7.45633e-05 -5.44367e-07)
(3.7778 -5.01131e-05 -5.42532e-07)
(4.00338 5.20413e-05 -6.57622e-07)
(4.00369 -7.51891e-05 -6.5808e-07)
(4.197 7.30491e-05 -7.24687e-07)
(4.19725 -5.17994e-05 -7.22846e-07)
(4.35585 5.32369e-05 -8.11194e-07)
(4.35604 -7.38213e-05 -8.11413e-07)