/*--------------------------------*- C++ -*----------------------------------*\
| =========                 |                                                 |
| \\      /  F ield         | OpenFOAM: The Open Source CFD Toolbox           |
|  \\    /   O peration     | Version:  2106                                  |
|   \\  /    A nd           | Website:  www.openfoam.com                      |
|    \\/     M anipulation  |                                                 |
\*---------------------------------------------------------------------------*/
FoamFile
{
    version     2.0;
    format      ascii;
    arch        "LSB;label=32;scalar=64";
    class       volScalarField;
    location    "8000";
    object      p;
}
// * * * * * * * * * * * * * * * * * * * * * * * * * * * * * * * * * * * * * //

dimensions      [0 2 -2 0 0 0 0];

internalField   nonuniform List<scalar> 
2560
(
1.95508e-16
1.52465e-14
4.12375e-16
1.52459e-14
4.37362e-16
1.52449e-14
4.09446e-16
1.52434e-14
3.90081e-16
1.52414e-14
3.76405e-16
1.52388e-14
3.63112e-16
1.52355e-14
3.49279e-16
1.52317e-14
3.34993e-16
1.52272e-14
3.2004e-16
1.52219e-14
3.04034e-16
1.52158e-14
2.86703e-16
1.52089e-14
2.67913e-16
1.52011e-14
2.4756e-16
1.51924e-14
2.25496e-16
1.51827e-14
2.01701e-16
1.51721e-14
1.7623e-16
1.51604e-14
1.49051e-16
1.51476e-14
1.20147e-16
1.51337e-14
8.98827e-17
1.51186e-14
5.8015e-17
1.51023e-14
2.44579e-17
1.50849e-14
-1.06043e-17
1.50663e-14
-4.69635e-17
1.50465e-14
-8.46515e-17
1.50253e-14
-1.23718e-16
1.50029e-14
-1.64159e-16
1.49794e-14
-2.05529e-16
1.49547e-14
-2.47881e-16
1.49291e-14
-2.91372e-16
1.49022e-14
-3.35849e-16
1.4874e-14
-3.81498e-16
1.48445e-14
-4.28176e-16
1.4814e-14
-4.75353e-16
1.47824e-14
-5.23327e-16
1.47498e-14
-5.72137e-16
1.47163e-14
-6.21726e-16
1.46811e-14
-6.71727e-16
1.46449e-14
-7.22072e-16
1.46075e-14
-7.73028e-16
1.45689e-14
-8.24321e-16
1.45293e-14
-8.76014e-16
1.4488e-14
-9.27348e-16
1.44455e-14
-9.78493e-16
1.44011e-14
-1.02963e-15
1.43553e-14
-1.08046e-15
1.43078e-14
-1.13119e-15
1.42591e-14
-1.18099e-15
1.42096e-14
-1.23059e-15
1.41586e-14
-1.28023e-15
1.41063e-14
-1.3285e-15
1.40528e-14
-1.37701e-15
1.39979e-14
-1.42519e-15
1.39415e-14
-1.47273e-15
1.38839e-14
-1.5196e-15
1.38252e-14
-1.56635e-15
1.3766e-14
-1.61209e-15
1.37054e-14
-1.6565e-15
1.36432e-14
-1.70014e-15
1.35794e-14
-1.74393e-15
1.35152e-14
-1.78695e-15
1.34498e-14
-1.82887e-15
1.33838e-14
-1.87033e-15
1.33156e-14
-1.91036e-15
1.32464e-14
-1.95024e-15
1.31766e-14
-1.98936e-15
1.31058e-14
-2.02803e-15
1.30337e-14
-2.06496e-15
1.29602e-14
-2.10046e-15
1.28858e-14
-2.13421e-15
1.28116e-14
-2.16793e-15
1.27365e-14
-2.20061e-15
1.26599e-14
-2.23263e-15
1.25823e-14
-2.26332e-15
1.25044e-14
-2.2934e-15
1.24268e-14
-2.32256e-15
1.23488e-14
-2.35119e-15
1.22699e-14
-2.37933e-15
1.21902e-14
-2.40558e-15
1.21105e-14
-2.42999e-15
1.20301e-14
-2.45476e-15
1.19506e-14
-2.47923e-15
1.18691e-14
-2.50052e-15
1.17856e-14
-2.52309e-15
1.17033e-14
-2.54479e-15
1.16228e-14
-2.56568e-15
1.15421e-14
-2.58583e-15
1.14605e-14
-2.6068e-15
1.13773e-14
-2.62565e-15
1.12941e-14
-2.64473e-15
1.12124e-14
-2.66259e-15
1.11302e-14
-2.6816e-15
1.10474e-14
-2.70031e-15
1.09665e-14
-2.71804e-15
1.08845e-14
-2.73258e-15
1.08e-14
-2.74552e-15
1.07129e-14
-2.75465e-15
1.06273e-14
-2.76391e-15
1.05432e-14
-2.77341e-15
1.04554e-14
-2.77935e-15
1.03639e-14
-2.78259e-15
1.02711e-14
-2.7848e-15
1.01778e-14
-2.79079e-15
1.00859e-14
-2.79439e-15
9.99537e-15
-2.79571e-15
9.90632e-15
-2.798e-15
9.81729e-15
-2.80061e-15
9.72999e-15
-2.80207e-15
9.64134e-15
-2.80329e-15
9.55148e-15
-2.8044e-15
9.46289e-15
-2.80553e-15
9.37569e-15
-2.80681e-15
9.28842e-15
-2.80998e-15
9.19961e-15
-2.80959e-15
9.10858e-15
-2.80816e-15
9.01705e-15
-2.80665e-15
8.92436e-15
-2.8068e-15
8.83143e-15
-2.80636e-15
8.74159e-15
-2.80868e-15
8.65339e-15
-2.80751e-15
8.56376e-15
-2.80784e-15
8.47284e-15
-2.81141e-15
8.3824e-15
-2.8152e-15
8.29096e-15
-2.81778e-15
8.2003e-15
-2.82093e-15
8.10896e-15
-2.82322e-15
8.01871e-15
-2.82646e-15
7.9297e-15
-2.82921e-15
7.84052e-15
-2.82848e-15
7.74811e-15
-2.82926e-15
7.65266e-15
-2.82854e-15
7.55914e-15
-2.82492e-15
7.47091e-15
-2.81702e-15
7.37856e-15
-2.80664e-15
7.27908e-15
-2.79556e-15
7.18063e-15
-2.78558e-15
7.08338e-15
-2.77213e-15
6.98271e-15
-2.76177e-15
6.882e-15
-2.74517e-15
6.78459e-15
-2.72889e-15
6.68589e-15
-2.72108e-15
6.5829e-15
-2.70925e-15
6.48533e-15
-2.69679e-15
6.3886e-15
-2.68708e-15
6.28973e-15
-2.67877e-15
6.19207e-15
-2.66891e-15
6.09582e-15
-2.65618e-15
5.99801e-15
-2.64552e-15
5.90042e-15
-2.63718e-15
5.80166e-15
-2.62509e-15
5.70193e-15
-2.61264e-15
5.60143e-15
-2.59692e-15
5.50192e-15
-2.58132e-15
5.40516e-15
-2.56606e-15
5.30664e-15
-2.55917e-15
5.20656e-15
-2.5531e-15
5.102e-15
-2.54187e-15
4.99629e-15
-2.52419e-15
4.89893e-15
-2.50495e-15
4.80388e-15
-2.49214e-15
4.6974e-15
-2.47977e-15
4.59206e-15
-2.47733e-15
4.49417e-15
-2.46965e-15
4.39778e-15
-2.45395e-15
4.29694e-15
-2.44583e-15
4.19799e-15
-2.43633e-15
4.09803e-15
-2.42571e-15
3.99727e-15
-2.42032e-15
3.89892e-15
-2.41432e-15
3.80014e-15
-2.41102e-15
3.7072e-15
-2.41069e-15
3.62331e-15
-2.40153e-15
3.53357e-15
-2.38991e-15
3.44123e-15
-2.38512e-15
3.35253e-15
-2.3754e-15
3.26465e-15
-2.37006e-15
3.17481e-15
-2.35737e-15
3.08621e-15
-2.34361e-15
2.99605e-15
-2.33202e-15
2.91642e-15
-2.31692e-15
2.84155e-15
-2.30158e-15
2.76572e-15
-2.28924e-15
2.68917e-15
-2.27722e-15
2.60916e-15
-2.25989e-15
2.53475e-15
-2.24341e-15
2.45732e-15
-2.228e-15
2.37708e-15
-2.21392e-15
2.29423e-15
-2.20429e-15
2.21184e-15
-2.18774e-15
2.12719e-15
-2.1732e-15
2.04623e-15
-2.15801e-15
1.96041e-15
-2.14523e-15
1.87273e-15
-2.13505e-15
1.78331e-15
-2.11901e-15
1.70087e-15
-2.10016e-15
1.61396e-15
-2.08724e-15
1.51689e-15
-2.07459e-15
1.42397e-15
-2.06233e-15
1.35226e-15
-2.0421e-15
1.27335e-15
-2.02814e-15
1.18726e-15
-2.01203e-15
1.10816e-15
-2.01358e-15
1.03603e-15
-2.00478e-15
9.59706e-16
-1.99699e-15
8.79227e-16
-1.99026e-15
8.002e-16
-1.9902e-15
7.28182e-16
-1.98579e-15
6.52088e-16
-1.98821e-15
5.71913e-16
-1.98644e-15
4.93206e-16
-1.99153e-15
4.15879e-16
-1.99806e-15
3.45402e-16
-2.00066e-15
2.6529e-16
-2.00482e-15
1.70019e-16
-2.00499e-15
8.12116e-17
-2.00656e-15
4.02547e-18
-2.00956e-15
-6.17403e-17
-2.014e-15
-1.32465e-16
-2.02522e-15
-2.19028e-16
-2.03771e-15
-2.94682e-16
-2.04617e-15
-3.5964e-16
-2.05603e-15
-4.35439e-16
-2.06724e-15
-5.22235e-16
-2.08493e-15
-5.93805e-16
-2.09317e-15
-6.6106e-16
-2.11311e-15
-7.34803e-16
-2.13946e-15
-8.04703e-16
-2.15127e-15
-8.76254e-16
-2.16412e-15
-9.49808e-16
-2.17262e-15
-1.01528e-15
-2.19228e-15
-1.07837e-15
-2.21265e-15
-1.14978e-15
-2.22331e-15
-1.21948e-15
-2.2292e-15
-1.27768e-15
-2.24553e-15
-1.34556e-15
-2.26689e-15
-1.42365e-15
-2.28272e-15
-1.4922e-15
-2.30303e-15
-1.56723e-15
-2.32242e-15
-1.64435e-15
-2.35054e-15
-1.71942e-15
-2.37699e-15
-1.79336e-15
-2.39648e-15
-1.86711e-15
-2.41865e-15
-1.94674e-15
-2.43798e-15
-2.02346e-15
-2.46386e-15
-2.09355e-15
-2.49601e-15
-2.16808e-15
-2.51433e-15
-2.22346e-15
-2.52843e-15
-2.28035e-15
-2.53745e-15
-2.35949e-15
-2.56943e-15
-2.43333e-15
-2.59463e-15
-2.50312e-15
-2.63202e-15
-2.55087e-15
-2.66211e-15
-2.58699e-15
-2.69463e-15
-2.63124e-15
-2.73924e-15
-2.66499e-15
-2.78679e-15
-2.69801e-15
-2.83828e-15
-2.73967e-15
-2.8752e-15
-2.78998e-15
-2.90695e-15
-2.83057e-15
-2.95268e-15
-2.84311e-15
-2.99463e-15
-2.88297e-15
-3.02356e-15
-2.94072e-15
-3.06685e-15
-2.98952e-15
-3.10593e-15
-3.05729e-15
-3.14932e-15
-3.09852e-15
-3.17889e-15
-3.14086e-15
-3.21272e-15
-3.17569e-15
-3.26894e-15
-3.23973e-15
-3.3202e-15
-3.279e-15
-3.3584e-15
-3.31145e-15
-3.40204e-15
-3.34559e-15
-3.43378e-15
-3.39895e-15
-3.47064e-15
-3.47229e-15
-3.5111e-15
-3.54053e-15
-3.54522e-15
-3.56076e-15
-3.57375e-15
-3.55877e-15
-3.60698e-15
-3.57685e-15
-3.64595e-15
-3.62207e-15
-3.6817e-15
-3.67756e-15
-3.71343e-15
-3.70151e-15
-3.75014e-15
-3.70296e-15
-3.75986e-15
-3.69647e-15
-3.77753e-15
-3.72243e-15
-3.80251e-15
-3.75514e-15
-3.8088e-15
-3.80414e-15
-3.80229e-15
-3.8223e-15
-3.79777e-15
-3.84465e-15
-3.83378e-15
-3.88944e-15
-3.85965e-15
-3.91667e-15
-3.86694e-15
-3.93536e-15
-3.8871e-15
-3.92968e-15
-3.92886e-15
-3.92213e-15
-3.96326e-15
-3.94147e-15
-3.95941e-15
-3.9546e-15
-3.97863e-15
-3.97843e-15
-4.00426e-15
-4.0122e-15
-4.01983e-15
-4.02375e-15
-4.04045e-15
-4.04325e-15
-4.0809e-15
-4.08643e-15
-4.1112e-15
-4.07617e-15
-4.13556e-15
-4.12956e-15
-4.16781e-15
-4.15903e-15
-4.20929e-15
-4.16601e-15
-4.23309e-15
-4.19253e-15
-4.25175e-15
-4.20968e-15
-4.29522e-15
-4.24715e-15
-4.32139e-15
-4.2738e-15
-4.34429e-15
-4.33169e-15
-4.38873e-15
-4.35058e-15
-4.42954e-15
-4.36935e-15
-4.44204e-15
-4.3978e-15
-4.46505e-15
-4.43724e-15
-4.50988e-15
-4.48914e-15
-4.53399e-15
-4.51239e-15
-4.56398e-15
-4.5329e-15
-4.587e-15
-4.57847e-15
-4.6132e-15
-4.62549e-15
-4.62401e-15
-4.66719e-15
-4.66531e-15
-4.65834e-15
-4.67606e-15
-4.68836e-15
-4.69513e-15
-4.69393e-15
8.82671e-15
9.03965e-15
8.82655e-15
9.03956e-15
8.82635e-15
9.03942e-15
8.82604e-15
9.03919e-15
8.82559e-15
9.03885e-15
8.825e-15
9.03839e-15
8.82425e-15
9.03781e-15
8.82331e-15
9.03709e-15
8.82214e-15
9.03619e-15
8.82071e-15
9.03507e-15
8.81894e-15
9.03371e-15
8.81682e-15
9.03203e-15
8.8143e-15
9.03e-15
8.81132e-15
9.02763e-15
8.80786e-15
9.02487e-15
8.80393e-15
9.02166e-15
8.79942e-15
9.01797e-15
8.79438e-15
9.01376e-15
8.78875e-15
9.00904e-15
8.78244e-15
9.00376e-15
8.77555e-15
8.99797e-15
8.7678e-15
8.99173e-15
8.75941e-15
8.98497e-15
8.7502e-15
8.9776e-15
8.74044e-15
8.9695e-15
8.72992e-15
8.96082e-15
8.71848e-15
8.95164e-15
8.7063e-15
8.9421e-15
8.69346e-15
8.93213e-15
8.67986e-15
8.92126e-15
8.66532e-15
8.90943e-15
8.6499e-15
8.89716e-15
8.63377e-15
8.88472e-15
8.61692e-15
8.87175e-15
8.59886e-15
8.85807e-15
8.57997e-15
8.84366e-15
8.56043e-15
8.82841e-15
8.53995e-15
8.81251e-15
8.51892e-15
8.79542e-15
8.49693e-15
8.77777e-15
8.47408e-15
8.75968e-15
8.45001e-15
8.74126e-15
8.42518e-15
8.72206e-15
8.40008e-15
8.70159e-15
8.37399e-15
8.68055e-15
8.3469e-15
8.65895e-15
8.31907e-15
8.63679e-15
8.29024e-15
8.61459e-15
8.26066e-15
8.59105e-15
8.23035e-15
8.56641e-15
8.19986e-15
8.54093e-15
8.16838e-15
8.51488e-15
8.13704e-15
8.48856e-15
8.10473e-15
8.46139e-15
8.07203e-15
8.43307e-15
8.03865e-15
8.40479e-15
8.00462e-15
8.37505e-15
7.96964e-15
8.34475e-15
7.9334e-15
8.31388e-15
7.89684e-15
8.28092e-15
7.85997e-15
8.24769e-15
7.82217e-15
8.21421e-15
7.78347e-15
8.18112e-15
7.74418e-15
8.14587e-15
7.70399e-15
8.11039e-15
7.66456e-15
8.07467e-15
7.62394e-15
8.03741e-15
7.58246e-15
8.00059e-15
7.54013e-15
7.96288e-15
7.49732e-15
7.92361e-15
7.45334e-15
7.88447e-15
7.40924e-15
7.84443e-15
7.36401e-15
7.80489e-15
7.31834e-15
7.76516e-15
7.27121e-15
7.72524e-15
7.22368e-15
7.68338e-15
7.17685e-15
7.64027e-15
7.12966e-15
7.59734e-15
7.08214e-15
7.55316e-15
7.03214e-15
7.50771e-15
6.98184e-15
7.46318e-15
6.93053e-15
7.41812e-15
6.87897e-15
7.37254e-15
6.82791e-15
7.32717e-15
6.7759e-15
7.28203e-15
6.7237e-15
7.23562e-15
6.67058e-15
7.19019e-15
6.61657e-15
7.14275e-15
6.56169e-15
7.09479e-15
6.5067e-15
7.04784e-15
6.45317e-15
6.99733e-15
6.39806e-15
6.94631e-15
6.34294e-15
6.89401e-15
6.28706e-15
6.83965e-15
6.23043e-15
6.78553e-15
6.17542e-15
6.73167e-15
6.1205e-15
6.67884e-15
6.06492e-15
6.6255e-15
6.01027e-15
6.56773e-15
5.95346e-15
6.51101e-15
5.89763e-15
6.45611e-15
5.83734e-15
6.40225e-15
5.78124e-15
6.3471e-15
5.72621e-15
6.29142e-15
5.66758e-15
6.23602e-15
5.61008e-15
6.17931e-15
5.54822e-15
6.12287e-15
5.48756e-15
6.0675e-15
5.42734e-15
6.01002e-15
5.36601e-15
5.95519e-15
5.30597e-15
5.89986e-15
5.24327e-15
5.8448e-15
5.17955e-15
5.78843e-15
5.11641e-15
5.73235e-15
5.05549e-15
5.67495e-15
4.99842e-15
5.61625e-15
4.93644e-15
5.55942e-15
4.87279e-15
5.50369e-15
4.81068e-15
5.44904e-15
4.74856e-15
5.39069e-15
4.68806e-15
5.33023e-15
4.6276e-15
5.26766e-15
4.56564e-15
5.20457e-15
4.5038e-15
5.14417e-15
4.44213e-15
5.08326e-15
4.38066e-15
5.02182e-15
4.31783e-15
4.95987e-15
4.25368e-15
4.89899e-15
4.18825e-15
4.83759e-15
4.12637e-15
4.77087e-15
4.06488e-15
4.70682e-15
4.00383e-15
4.64543e-15
3.94166e-15
4.58192e-15
3.88001e-15
4.51786e-15
3.8205e-15
4.45487e-15
3.76159e-15
4.39293e-15
3.70649e-15
4.33044e-15
3.6473e-15
4.26741e-15
3.58883e-15
4.20383e-15
3.52794e-15
4.1397e-15
3.46944e-15
4.07502e-15
3.40545e-15
4.01137e-15
3.3471e-15
3.95192e-15
3.28809e-15
3.8935e-15
3.22847e-15
3.83136e-15
3.16827e-15
3.77026e-15
3.11071e-15
3.7102e-15
3.05265e-15
3.65432e-15
2.99573e-15
3.59475e-15
2.93683e-15
3.53309e-15
2.87758e-15
3.47248e-15
2.81802e-15
3.41292e-15
2.75976e-15
3.35756e-15
2.70437e-15
3.30326e-15
2.64722e-15
3.24381e-15
2.59147e-15
3.18235e-15
2.53872e-15
3.12355e-15
2.47505e-15
3.06742e-15
2.41291e-15
3.01397e-15
2.35077e-15
2.96324e-15
2.28554e-15
2.91218e-15
2.22649e-15
2.85468e-15
2.17364e-15
2.79079e-15
2.11474e-15
2.73283e-15
2.0621e-15
2.6808e-15
2.00656e-15
2.62554e-15
1.95428e-15
2.56711e-15
1.90528e-15
2.50857e-15
1.85353e-15
2.44997e-15
1.7991e-15
2.38827e-15
1.74509e-15
2.3326e-15
1.69458e-15
2.27389e-15
1.64759e-15
2.20915e-15
1.59818e-15
2.15043e-15
1.54342e-15
2.09773e-15
1.48935e-15
2.04206e-15
1.44499e-15
1.98349e-15
1.39843e-15
1.93098e-15
1.34972e-15
1.87858e-15
1.30487e-15
1.81741e-15
1.26098e-15
1.75935e-15
1.20922e-15
1.70436e-15
1.16149e-15
1.6495e-15
1.11193e-15
1.5889e-15
1.05471e-15
1.5314e-15
1.0104e-15
1.47701e-15
9.64382e-16
1.42573e-15
9.31284e-16
1.36591e-15
8.87902e-16
1.30627e-15
8.48894e-16
1.25262e-15
8.05631e-16
1.19623e-15
7.63991e-16
1.13712e-15
7.21182e-16
1.08682e-15
6.77272e-16
1.0396e-15
6.38033e-16
9.89771e-16
6.00642e-16
9.31656e-16
5.65218e-16
8.73866e-16
5.09109e-16
8.27775e-16
4.57925e-16
7.7924e-16
4.17264e-16
7.1704e-16
3.73063e-16
6.58165e-16
3.22595e-16
6.05404e-16
2.65925e-16
5.58777e-16
2.14217e-16
5.01584e-16
1.61861e-16
4.45122e-16
1.08864e-16
3.89449e-16
6.07965e-17
3.4018e-16
6.53094e-18
2.80738e-16
-4.83502e-17
2.33372e-16
-9.28959e-17
1.81647e-16
-1.4361e-16
1.36666e-16
-1.95017e-16
8.20985e-17
-2.41649e-16
2.90554e-17
-2.67122e-16
-3.32299e-17
-2.98427e-16
-9.3955e-17
-3.46106e-16
-1.36973e-16
-4.0471e-16
-1.89268e-16
-4.52711e-16
-2.50606e-16
-4.84669e-16
-3.04748e-16
-5.27224e-16
-3.57149e-16
-5.64158e-16
-4.1315e-16
-6.11274e-16
-4.62098e-16
-6.5785e-16
-5.03812e-16
-6.98598e-16
-5.59288e-16
-7.33383e-16
-6.0732e-16
-7.83074e-16
-6.42622e-16
-8.42418e-16
-6.91127e-16
-8.80119e-16
-7.47182e-16
-9.16947e-16
-7.84642e-16
-9.58084e-16
-8.18993e-16
-9.98335e-16
-8.7066e-16
-1.03749e-15
-9.23918e-16
-1.07537e-15
-9.52924e-16
-1.11724e-15
-9.8826e-16
-1.15802e-15
-1.02944e-15
-1.18744e-15
-1.07092e-15
-1.22058e-15
-1.1227e-15
-1.26716e-15
-1.16436e-15
-1.30693e-15
-1.19039e-15
-1.34507e-15
-1.22531e-15
-1.3765e-15
-1.26347e-15
-1.40605e-15
-1.30443e-15
-1.43837e-15
-1.3478e-15
-1.45819e-15
-1.38326e-15
-1.4898e-15
-1.4205e-15
-1.52287e-15
-1.46889e-15
-1.58651e-15
-1.50859e-15
-1.63212e-15
-1.54854e-15
-1.65028e-15
-1.60747e-15
-1.66914e-15
-1.65638e-15
-1.72653e-15
-1.69544e-15
-1.77409e-15
-1.73357e-15
-1.812e-15
-1.77022e-15
-1.86894e-15
-1.79533e-15
-1.89753e-15
-1.83641e-15
-1.96387e-15
-1.87428e-15
-2.0208e-15
-1.92673e-15
-2.04954e-15
-1.97419e-15
-2.11545e-15
-2.02627e-15
-2.19042e-15
-2.07322e-15
-2.23795e-15
-2.12326e-15
-2.29545e-15
-2.20375e-15
-2.3528e-15
-2.29657e-15
-2.40881e-15
-2.36568e-15
-2.46294e-15
-2.4209e-15
-2.52437e-15
-2.47133e-15
-2.58444e-15
-2.52554e-15
-2.63399e-15
-2.58263e-15
-2.69055e-15
-2.65175e-15
-2.74456e-15
-2.70642e-15
-2.8048e-15
-2.77364e-15
-2.86219e-15
-2.85338e-15
-2.91585e-15
-2.93723e-15
-2.96439e-15
-2.99978e-15
-3.00707e-15
-3.03357e-15
-3.04419e-15
-3.10026e-15
-3.10019e-15
-3.14063e-15
-3.14947e-15
-3.1885e-15
-3.20063e-15
-3.20864e-15
-3.23799e-15
-3.25946e-15
-3.27765e-15
-3.3166e-15
-3.31896e-15
-3.36525e-15
-3.37007e-15
-3.38086e-15
-3.39946e-15
-3.41154e-15
-3.42425e-15
-3.44792e-15
-3.46931e-15
-3.48249e-15
-3.51958e-15
-3.51464e-15
-3.55977e-15
-3.54246e-15
-3.59093e-15
-3.58935e-15
-3.6452e-15
-3.60774e-15
-3.69329e-15
-3.61208e-15
-3.73845e-15
-3.63153e-15
-3.78293e-15
-3.66339e-15
-3.81362e-15
-3.7225e-15
-3.8448e-15
-3.7956e-15
-3.88904e-15
-3.83974e-15
-3.93165e-15
-3.85617e-15
-3.94475e-15
-3.90454e-15
-3.97073e-15
-3.95642e-15
-3.97611e-15
-3.97054e-15
-3.98974e-15
-3.97659e-15
-4.04133e-15
-3.98766e-15
-4.11962e-15
-3.99948e-15
-4.14417e-15
-4.01893e-15
-4.16124e-15
-4.07435e-15
-4.20982e-15
-4.14009e-15
-4.24501e-15
-4.21944e-15
-4.27721e-15
-4.27435e-15
-4.30295e-15
-4.32408e-15
-4.36135e-15
-4.35895e-15
-4.40037e-15
-4.40517e-15
-4.43438e-15
-4.44967e-15
-4.4894e-15
-4.50746e-15
-4.52459e-15
-4.5109e-15
-4.55878e-15
-4.53881e-15
-4.6076e-15
-4.533e-15
-4.68083e-15
-4.50918e-15
-4.71538e-15
-4.50231e-15
-4.71846e-15
-4.50466e-15
-4.74602e-15
-4.5262e-15
-4.71015e-15
-4.68576e-15
-4.72281e-15
-4.7123e-15
-4.73274e-15
-4.69362e-15
-4.74963e-15
-4.68707e-15
-4.75044e-15
-4.70087e-15
-4.73219e-15
-4.68089e-15
-4.72228e-15
-4.69628e-15
-4.71767e-15
-4.71162e-15
-4.68894e-15
-4.71501e-15
-4.67236e-15
-4.64032e-15
-4.66155e-15
-4.64615e-15
-4.65408e-15
-4.62188e-15
-4.63842e-15
-4.57971e-15
-4.6308e-15
-4.58735e-15
-4.62856e-15
-4.57559e-15
-4.61807e-15
-4.55844e-15
-4.59834e-15
-4.56465e-15
-4.59539e-15
-4.53843e-15
-4.59708e-15
-4.53506e-15
-4.58967e-15
-4.55395e-15
-4.58656e-15
-4.55455e-15
-4.55643e-15
-4.53824e-15
-4.54215e-15
-4.50611e-15
-4.51457e-15
-4.51672e-15
-4.51636e-15
-4.51119e-15
-4.51694e-15
-4.48966e-15
-4.51769e-15
-4.46576e-15
-4.5204e-15
-4.48471e-15
-4.53997e-15
-4.45241e-15
-4.51775e-15
-4.46063e-15
-4.51504e-15
-4.51347e-15
-4.49587e-15
-4.51889e-15
-4.48273e-15
-4.49459e-15
-4.49232e-15
-4.48902e-15
-4.49322e-15
-4.46754e-15
-4.47896e-15
-4.46144e-15
-4.48285e-15
-4.48857e-15
-4.48678e-15
-4.49313e-15
-4.4739e-15
-4.49197e-15
-4.47749e-15
-4.4775e-15
-4.4737e-15
-4.48245e-15
-4.46192e-15
-4.4734e-15
-4.44184e-15
-4.44065e-15
-4.45716e-15
-4.44371e-15
-4.43957e-15
-4.40453e-15
-4.42435e-15
-4.39147e-15
-4.40211e-15
-4.39605e-15
-4.38033e-15
-4.38453e-15
-4.34954e-15
-4.34797e-15
-4.32761e-15
-4.31244e-15
-4.3243e-15
-4.30457e-15
-4.32203e-15
-4.32444e-15
-4.32015e-15
-4.30989e-15
-4.3099e-15
-4.27854e-15
-4.3011e-15
-4.27491e-15
-4.30297e-15
-4.26257e-15
-4.29792e-15
-4.21319e-15
-4.28741e-15
-4.19827e-15
-4.27146e-15
-4.19941e-15
-4.24929e-15
-4.20783e-15
-4.229e-15
-4.20624e-15
-4.21911e-15
-4.19536e-15
-4.24814e-15
-4.18462e-15
-4.24252e-15
-4.16346e-15
-4.24065e-15
-4.14053e-15
-4.25229e-15
-4.1152e-15
-4.25927e-15
-4.1245e-15
-4.24214e-15
-4.12076e-15
-4.21927e-15
-4.11399e-15
-4.21916e-15
-4.08542e-15
-4.18451e-15
-4.08286e-15
-4.16254e-15
-4.07813e-15
-4.14281e-15
-4.08128e-15
-4.14447e-15
-4.07312e-15
-4.14819e-15
-4.06326e-15
-4.13452e-15
-4.05149e-15
-4.12293e-15
-4.03786e-15
-4.12829e-15
-4.04733e-15
-4.13074e-15
-4.06032e-15
-4.11e-15
-4.04708e-15
-4.10063e-15
-4.03776e-15
-4.09757e-15
-4.02734e-15
-4.10107e-15
-4.02082e-15
-4.10118e-15
-4.0182e-15
-4.09782e-15
-4.01438e-15
-4.10115e-15
-4.01446e-15
-4.11126e-15
-4.01339e-15
-4.11806e-15
-4.01121e-15
-4.10614e-15
-4.013e-15
-4.10099e-15
-4.02414e-15
-4.09198e-15
-4.02938e-15
-4.08924e-15
-4.02893e-15
-4.0823e-15
-4.03329e-15
-4.07618e-15
-4.04788e-15
-4.07577e-15
-4.06262e-15
-4.07038e-15
-4.06191e-15
-4.0705e-15
-4.06684e-15
-4.07077e-15
-4.07749e-15
-4.07641e-15
-4.09399e-15
-4.08736e-15
-4.10053e-15
-4.09836e-15
-4.10238e-15
-4.10421e-15
-4.09939e-15
-4.11575e-15
-4.1075e-15
-4.12763e-15
-4.11591e-15
-4.13987e-15
-4.11371e-15
-4.1526e-15
-4.11702e-15
-4.16045e-15
-4.12038e-15
-4.17435e-15
-4.12376e-15
-4.18899e-15
-4.12703e-15
-4.18798e-15
-4.13007e-15
-4.19872e-15
-4.12742e-15
-4.20485e-15
-4.12443e-15
-4.21192e-15
-4.13212e-15
-4.20882e-15
-4.13948e-15
-4.20647e-15
-4.13544e-15
-4.2049e-15
-4.12549e-15
-4.20971e-15
-4.12631e-15
-4.20974e-15
-4.12673e-15
-4.21053e-15
-4.12112e-15
-4.21775e-15
-4.11503e-15
-4.22023e-15
-4.10276e-15
-4.21516e-15
-4.09267e-15
-4.21952e-15
-4.08192e-15
-4.21349e-15
-4.07894e-15
-4.21976e-15
-4.0724e-15
-4.21838e-15
-4.06509e-15
-4.21504e-15
-4.06273e-15
-4.20394e-15
-4.06827e-15
-4.2051e-15
-4.07032e-15
-4.20699e-15
-4.06599e-15
-4.2038e-15
-4.06389e-15
-4.19839e-15
-4.06408e-15
-4.20523e-15
-4.06369e-15
-4.204e-15
-4.06272e-15
-4.19461e-15
-4.06118e-15
-4.1887e-15
-4.06791e-15
-4.18326e-15
-4.08008e-15
-4.1782e-15
-4.08307e-15
-4.17643e-15
-4.07392e-15
-4.16911e-15
-4.06733e-15
-4.16508e-15
-4.06928e-15
-4.16434e-15
-4.07089e-15
-4.16093e-15
-4.07219e-15
-4.15779e-15
-4.07616e-15
-4.15489e-15
-4.07687e-15
-4.15222e-15
-4.0713e-15
-4.15278e-15
-4.06844e-15
-4.15357e-15
-4.06829e-15
-4.16362e-15
-4.06786e-15
-4.16185e-15
-4.07015e-15
-4.16334e-15
-4.07819e-15
-4.17414e-15
-4.08293e-15
-4.17911e-15
-4.0874e-15
-4.18125e-15
-4.08855e-15
-4.18668e-15
-4.08639e-15
-4.1893e-15
-4.087e-15
-4.19215e-15
-4.08735e-15
-4.19216e-15
-4.09358e-15
-4.19238e-15
-4.10266e-15
-4.19586e-15
-4.10846e-15
-4.19952e-15
-4.11099e-15
-4.19409e-15
-4.11644e-15
-4.19189e-15
-4.12173e-15
-4.20223e-15
-4.12379e-15
-4.20964e-15
-4.12569e-15
-4.21254e-15
-4.12744e-15
-4.21561e-15
-4.12748e-15
-4.20791e-15
-4.12736e-15
-4.20972e-15
-4.13492e-15
-4.21794e-15
-4.14706e-15
-4.22159e-15
-4.15595e-15
-4.22379e-15
-4.16161e-15
-4.22611e-15
-4.16246e-15
-4.22853e-15
-4.16636e-15
-4.23265e-15
-4.17333e-15
-4.23529e-15
-4.17865e-15
-4.23645e-15
-4.18548e-15
-4.24087e-15
-4.197e-15
-4.24537e-15
-4.20689e-15
-4.24837e-15
-4.20723e-15
-4.24669e-15
-4.20912e-15
-4.25303e-15
-4.21415e-15
-4.25785e-15
-4.21756e-15
-4.26117e-15
-4.22092e-15
-4.26615e-15
-4.22584e-15
-4.27439e-15
-4.23233e-15
-4.27634e-15
-4.23719e-15
-4.27675e-15
-4.24042e-15
-4.27723e-15
-4.24363e-15
-4.27775e-15
-4.24842e-15
-4.27993e-15
-4.25319e-15
-4.28055e-15
-4.25954e-15
-4.28121e-15
-4.26428e-15
-4.2819e-15
-4.26742e-15
-4.28262e-15
-4.26895e-15
-4.28337e-15
-4.27208e-15
-4.28094e-15
-4.27841e-15
-4.28173e-15
-4.28315e-15
-4.28093e-15
-4.28469e-15
-4.27854e-15
-4.28625e-15
-4.27937e-15
-4.28942e-15
-4.2802e-15
-4.2926e-15
-4.27624e-15
-4.29741e-15
-4.27388e-15
-4.29903e-15
-4.27312e-15
-4.29908e-15
-4.27236e-15
-4.29996e-15
-4.27079e-15
-4.30246e-15
-4.27082e-15
-4.30498e-15
-4.27164e-15
-4.30593e-15
-4.27245e-15
-4.30612e-15
-4.27485e-15
-4.30474e-15
-4.27644e-15
-4.30498e-15
-4.27803e-15
-4.30604e-15
-4.27961e-15
-4.30633e-15
-4.2804e-15
-4.30427e-15
-4.28355e-15
-4.30302e-15
-4.28671e-15
-4.30417e-15
-4.28828e-15
-4.30375e-15
-4.28749e-15
-4.30336e-15
-4.28906e-15
-4.30063e-15
-4.29219e-15
-4.29793e-15
-4.29454e-15
-4.29681e-15
-4.29611e-15
-4.2957e-15
-4.29847e-15
-4.29306e-15
-4.30004e-15
-4.29121e-15
-4.30085e-15
-4.29092e-15
-4.30167e-15
-4.28986e-15
-4.30096e-15
-4.28959e-15
-4.30255e-15
-4.28626e-15
-4.30339e-15
-4.28295e-15
-4.30423e-15
-4.28118e-15
-4.30584e-15
-4.28169e-15
-4.3067e-15
-4.2807e-15
-4.30832e-15
-4.2782e-15
-4.3092e-15
-4.27497e-15
-4.31009e-15
-4.27175e-15
-4.31098e-15
-4.26929e-15
-4.31263e-15
-4.26832e-15
-4.31428e-15
-4.26662e-15
-4.31521e-15
-4.26345e-15
-4.31615e-15
-4.26103e-15
-4.31637e-15
-4.25934e-15
-4.31733e-15
-4.25766e-15
-4.31902e-15
-4.25598e-15
-4.32e-15
-4.25574e-15
-4.31993e-15
-4.25549e-15
-4.32022e-15
-4.25453e-15
-4.32158e-15
-4.25358e-15
-4.32329e-15
-4.25262e-15
-4.32535e-15
-4.25202e-15
-4.3274e-15
-4.25107e-15
-4.32878e-15
-4.25046e-15
-4.32982e-15
-4.25186e-15
-4.3312e-15
-4.25192e-15
-4.33325e-15
-4.25031e-15
-4.33496e-15
-4.24872e-15
-4.33602e-15
-4.2481e-15
-4.33677e-15
-4.24813e-15
-4.33784e-15
-4.24847e-15
-4.33891e-15
-4.24786e-15
-4.33998e-15
-4.24787e-15
-4.34075e-15
-4.24787e-15
-4.34182e-15
-4.24634e-15
-4.3429e-15
-4.24542e-15
-4.34427e-15
-4.24511e-15
-4.34505e-15
-4.24509e-15
-4.34496e-15
-4.24506e-15
-4.34603e-15
-4.24502e-15
-4.34681e-15
-4.2447e-15
-4.34676e-15
-4.24438e-15
-4.34672e-15
-4.24378e-15
-4.34696e-15
-4.24427e-15
-4.3472e-15
-4.245e-15
-4.34693e-15
-4.24572e-15
-4.34719e-15
-4.24617e-15
-4.3472e-15
-4.24685e-15
-4.34697e-15
-4.24752e-15
-4.34628e-15
-4.24817e-15
-4.34584e-15
-4.24903e-15
-4.34542e-15
-4.24988e-15
-4.34524e-15
-4.25048e-15
-4.34507e-15
-4.25128e-15
-4.34481e-15
-4.25173e-15
-4.34467e-15
-4.25228e-15
-4.34464e-15
-4.25322e-15
-4.34461e-15
-4.25373e-15
-4.3446e-15
-4.25403e-15
-4.34468e-15
-4.25451e-15
-4.34477e-15
-4.25478e-15
-4.34494e-15
-4.25505e-15
-4.34512e-15
-4.25539e-15
-4.34521e-15
-4.2558e-15
-4.34523e-15
-4.25634e-15
-4.3454e-15
-4.25679e-15
-4.3455e-15
-4.257e-15
-4.34567e-15
-4.25706e-15
-4.3457e-15
-4.25712e-15
-4.34586e-15
-4.25717e-15
-4.34601e-15
-4.25728e-15
-4.34616e-15
-4.25749e-15
-4.34626e-15
-4.25769e-15
-4.34635e-15
-4.25782e-15
-4.34649e-15
-4.25795e-15
-4.34657e-15
-4.25802e-15
-4.34666e-15
-4.25808e-15
-4.3467e-15
-4.25818e-15
-4.34672e-15
-4.25826e-15
-4.34675e-15
-4.25833e-15
-4.34675e-15
-4.25842e-15
-4.34679e-15
-4.25847e-15
-4.34684e-15
-4.25848e-15
-4.34685e-15
-4.25851e-15
-4.34687e-15
-4.25853e-15
-4.34688e-15
-4.25855e-15
-4.34689e-15
-4.25857e-15
-4.34688e-15
-4.25858e-15
-4.34689e-15
-4.25858e-15
-4.34689e-15
-4.25858e-15
-4.34689e-15
-4.25859e-15
-4.34689e-15
-4.2586e-15
-4.7871e-15
-4.55206e-15
-4.77741e-15
-4.56872e-15
-4.72334e-15
-4.63631e-15
-4.72371e-15
-4.65804e-15
-4.7322e-15
-4.68138e-15
-4.71911e-15
-4.66787e-15
-4.69848e-15
-4.64592e-15
-4.66946e-15
-4.66906e-15
-4.66526e-15
-4.66111e-15
-4.64583e-15
-4.64897e-15
-4.63843e-15
-4.63773e-15
-4.61527e-15
-4.61143e-15
-4.61895e-15
-4.59832e-15
-4.62395e-15
-4.58377e-15
-4.61859e-15
-4.56429e-15
-4.63347e-15
-4.55267e-15
-4.62844e-15
-4.54668e-15
-4.6187e-15
-4.56089e-15
-4.60103e-15
-4.57041e-15
-4.57137e-15
-4.54843e-15
-4.5733e-15
-4.52381e-15
-4.5793e-15
-4.50824e-15
-4.56205e-15
-4.51553e-15
-4.54971e-15
-4.53466e-15
-4.55575e-15
-4.50651e-15
-4.56763e-15
-4.48958e-15
-4.5722e-15
-4.48197e-15
-4.5702e-15
-4.49965e-15
-4.54352e-15
-4.48053e-15
-4.53765e-15
-4.45763e-15
-4.52208e-15
-4.47729e-15
-4.50984e-15
-4.47631e-15
-4.51671e-15
-4.44697e-15
-4.51291e-15
-4.46068e-15
-4.49657e-15
-4.45359e-15
-4.46628e-15
-4.43498e-15
-4.47088e-15
-4.41354e-15
-4.47013e-15
-4.41162e-15
-4.45533e-15
-4.39549e-15
-4.43479e-15
-4.39023e-15
-4.43251e-15
-4.38015e-15
-4.42331e-15
-4.40753e-15
-4.41387e-15
-4.38933e-15
-4.40492e-15
-4.35984e-15
-4.40558e-15
-4.33472e-15
-4.40877e-15
-4.32202e-15
-4.38918e-15
-4.31251e-15
-4.37261e-15
-4.31538e-15
-4.34939e-15
-4.28762e-15
-4.31972e-15
-4.238e-15
-4.31104e-15
-4.22817e-15
-4.29633e-15
-4.24053e-15
-4.30131e-15
-4.21297e-15
-4.29109e-15
-4.18926e-15
-4.26593e-15
-4.19664e-15
-4.25165e-15
-4.19105e-15
-4.23852e-15
-4.18213e-15
-4.22622e-15
-4.17078e-15
-4.21468e-15
-4.18498e-15
-4.20313e-15
-4.17012e-15
-4.2012e-15
-4.15362e-15
-4.18147e-15
-4.13485e-15
-4.15304e-15
-4.12322e-15
-4.124e-15
-4.12879e-15
-4.14062e-15
-4.11503e-15
-4.14711e-15
-4.11927e-15
-4.15299e-15
-4.13245e-15
-4.15809e-15
-4.12604e-15
-4.13402e-15
-4.10925e-15
-4.10944e-15
-4.08207e-15
-4.11329e-15
-4.07357e-15
-4.11725e-15
-4.08354e-15
-4.0921e-15
-4.10267e-15
-4.08575e-15
-4.09285e-15
-4.07863e-15
-4.08335e-15
-4.0806e-15
-4.0741e-15
-4.07225e-15
-4.05499e-15
-4.06373e-15
-4.05059e-15
-4.05982e-15
-4.05596e-15
-4.07539e-15
-4.0462e-15
-4.0711e-15
-4.04093e-15
-4.05191e-15
-4.02507e-15
-4.04792e-15
-4.00871e-15
-4.05426e-15
-4.00682e-15
-4.05081e-15
-4.0092e-15
-4.04761e-15
-4.00072e-15
-4.04982e-15
-3.97605e-15
-4.05264e-15
-3.97057e-15
-4.04582e-15
-3.97917e-15
-4.04464e-15
-3.98669e-15
-4.04384e-15
-3.98286e-15
-4.03829e-15
-3.97797e-15
-4.03837e-15
-3.97724e-15
-4.04939e-15
-3.97547e-15
-4.05062e-15
-3.97768e-15
-4.04199e-15
-3.97861e-15
-4.04973e-15
-3.9837e-15
-4.04746e-15
-3.99298e-15
-4.05095e-15
-3.99598e-15
-4.05486e-15
-3.99262e-15
-4.05388e-15
-3.99884e-15
-4.04784e-15
-4.0148e-15
-4.06335e-15
-4.03012e-15
-4.07356e-15
-4.04486e-15
-4.08383e-15
-4.04285e-15
-4.09422e-15
-4.03477e-15
-4.09401e-15
-4.03674e-15
-4.09399e-15
-4.0543e-15
-4.10491e-15
-4.06588e-15
-4.09388e-15
-4.07148e-15
-4.09365e-15
-4.07672e-15
-4.09318e-15
-4.07616e-15
-4.09797e-15
-4.08086e-15
-4.10805e-15
-4.09083e-15
-4.10127e-15
-4.095e-15
-4.09975e-15
-4.09344e-15
-4.10354e-15
-4.09733e-15
-4.10706e-15
-4.10672e-15
-4.10468e-15
-4.10482e-15
-4.09637e-15
-4.10288e-15
-4.09331e-15
-4.10094e-15
-4.09838e-15
-4.10185e-15
-4.09462e-15
-4.10282e-15
-4.11044e-15
-4.10103e-15
-4.12324e-15
-4.09924e-15
-4.12165e-15
-4.0974e-15
-4.12281e-15
-4.08691e-15
-4.12393e-15
-4.08491e-15
-4.12793e-15
-4.09432e-15
-4.13481e-15
-4.10366e-15
-4.1359e-15
-4.09848e-15
-4.137e-15
-4.09321e-15
-4.13233e-15
-4.09655e-15
-4.14224e-15
-4.09691e-15
-4.14052e-15
-4.09131e-15
-4.14181e-15
-4.09145e-15
-4.14907e-15
-4.09734e-15
-4.15352e-15
-4.10604e-15
-4.14923e-15
-4.10284e-15
-4.13911e-15
-4.10249e-15
-4.13794e-15
-4.10208e-15
-4.13683e-15
-4.10756e-15
-4.13576e-15
-4.11897e-15
-4.13769e-15
-4.12446e-15
-4.13364e-15
-4.12999e-15
-4.13557e-15
-4.1356e-15
-4.13748e-15
-4.13528e-15
-4.1454e-15
-4.13203e-15
-4.14431e-15
-4.14089e-15
-4.14017e-15
-4.1559e-15
-4.14809e-15
-4.16501e-15
-4.14686e-15
-4.16515e-15
-4.14861e-15
-4.16543e-15
-4.14724e-15
-4.16887e-15
-4.15189e-15
-4.16634e-15
-4.15038e-15
-4.16085e-15
-4.15494e-15
-4.1585e-15
-4.15946e-15
-4.16237e-15
-4.16703e-15
-4.16323e-15
-4.16536e-15
-4.16106e-15
-4.16366e-15
-4.15892e-15
-4.16503e-15
-4.1599e-15
-4.16329e-15
-4.16711e-15
-4.16462e-15
-4.16972e-15
-4.1597e-15
-4.16926e-15
-4.1594e-15
-4.17041e-15
-4.15592e-15
-4.1794e-15
-4.16173e-15
-4.18379e-15
-4.16279e-15
-4.18825e-15
-4.15753e-15
-4.19279e-15
-4.16002e-15
-4.19741e-15
-4.16557e-15
-4.19896e-15
-4.16634e-15
-4.20216e-15
-4.16703e-15
-4.20384e-15
-4.16606e-15
-4.20402e-15
-4.1666e-15
-4.20741e-15
-4.16705e-15
-4.21087e-15
-4.16742e-15
-4.21439e-15
-4.16296e-15
-4.21638e-15
-4.16474e-15
-4.21526e-15
-4.16644e-15
-4.21896e-15
-4.16805e-15
-4.22589e-15
-4.16798e-15
-4.23129e-15
-4.16941e-15
-4.23199e-15
-4.17075e-15
-4.23433e-15
-4.17678e-15
-4.23514e-15
-4.18432e-15
-4.236e-15
-4.1902e-15
-4.2369e-15
-4.19601e-15
-4.23783e-15
-4.20177e-15
-4.24678e-15
-4.20906e-15
-4.25258e-15
-4.21151e-15
-4.2552e-15
-4.2155e-15
-4.25465e-15
-4.21945e-15
-4.25253e-15