/*--------------------------------*- C++ -*----------------------------------*\
| =========                 |                                                 |
| \\      /  F ield         | OpenFOAM: The Open Source CFD Toolbox           |
|  \\    /   O peration     | Version:  2012                                  |
|   \\  /    A nd           | Website:  www.openfoam.com                      |
|    \\/     M anipulation  |                                                 |
\*---------------------------------------------------------------------------*/
FoamFile
{
    version     2.0;
    format      ascii;
    class       volVectorField;
    location    "4000";
    object      U;
}
// * * * * * * * * * * * * * * * * * * * * * * * * * * * * * * * * * * * * * //

dimensions      [0 1 -1 0 0 0 0];


internalField   nonuniform List<vector> 
2560
(
(0.00215712 -1.61655e-15 4.761e-18)
(0.00215712 -2.60622e-19 1.12105e-22)
(0.0065027 -9.02814e-16 5.53158e-17)
(0.0065027 3.82217e-19 -3.93684e-19)
(0.0109116 -3.08576e-15 6.00623e-17)
(0.0109116 6.58166e-19 -2.44794e-18)
(0.015385 -2.58243e-15 5.70912e-17)
(0.015385 1.09648e-18 -8.04466e-21)
(0.0199241 -2.57057e-15 5.99347e-17)
(0.0199241 1.54154e-18 -1.22233e-20)
(0.02453 -2.58286e-15 6.28102e-17)
(0.02453 1.98373e-18 -1.65852e-20)
(0.029204 -2.58837e-15 6.57781e-17)
(0.029204 2.43958e-18 -2.08875e-20)
(0.0339473 -2.58935e-15 6.88529e-17)
(0.0339473 2.90168e-18 -2.57318e-20)
(0.0387611 -2.58998e-15 7.20357e-17)
(0.0387611 3.37003e-18 -3.0746e-20)
(0.0436469 -2.59098e-15 7.53278e-17)
(0.0436469 3.83963e-18 -3.63341e-20)
(0.0486058 -2.592e-15 7.87321e-17)
(0.0486058 4.32208e-18 -4.2492e-20)
(0.0536391 -2.59302e-15 8.22514e-17)
(0.0536391 4.83098e-18 -4.87795e-20)
(0.0587483 -2.59404e-15 8.58883e-17)
(0.0587483 5.31192e-18 -5.55399e-20)
(0.0639346 -2.59512e-15 8.96458e-17)
(0.0639346 5.82366e-18 -6.2416e-20)
(0.0691995 -2.59625e-15 9.35271e-17)
(0.0691995 6.35787e-18 -7.0029e-20)
(0.0745441 -2.59735e-15 9.75351e-17)
(0.0745441 6.86392e-18 -7.73914e-20)
(0.0799701 -2.59851e-15 1.01673e-16)
(0.0799701 7.39205e-18 -8.528e-20)
(0.0854786 -2.59969e-15 1.05944e-16)
(0.0854786 7.88879e-18 -9.51914e-20)
(0.091071 -2.60092e-15 1.10351e-16)
(0.091071 8.42831e-18 -1.05217e-19)
(0.0967486 -2.60218e-15 1.14897e-16)
(0.0967486 8.96207e-18 -1.15676e-19)
(0.102513 -2.60335e-15 1.19583e-16)
(0.102513 9.43549e-18 -1.26098e-19)
(0.108365 -2.60462e-15 1.24413e-16)
(0.108365 9.98191e-18 -1.3611e-19)
(0.114306 -2.60603e-15 1.29388e-16)
(0.114306 1.05757e-17 -1.48209e-19)
(0.120336 -2.60744e-15 1.34508e-16)
(0.120336 1.10764e-17 -1.62397e-19)
(0.126458 -2.60877e-15 1.39775e-16)
(0.126458 1.1556e-17 -1.76629e-19)
(0.132671 -2.6102e-15 1.45187e-16)
(0.132671 1.20647e-17 -1.91299e-19)
(0.138977 -2.61172e-15 1.50744e-16)
(0.138977 1.26105e-17 -2.05218e-19)
(0.145376 -2.61317e-15 1.56441e-16)
(0.145376 1.31545e-17 -2.18025e-19)
(0.151867 -2.61468e-15 1.62276e-16)
(0.151867 1.36773e-17 -2.31951e-19)
(0.158452 -2.6162e-15 1.66447e-16)
(0.158452 1.4255e-17 -2.51729e-19)
(0.165129 -2.61758e-15 1.66943e-16)
(0.165129 1.48117e-17 -2.7546e-19)
(0.171898 -2.61901e-15 1.67366e-16)
(0.171898 1.5326e-17 -2.96785e-19)
(0.178758 -2.62063e-15 1.67713e-16)
(0.178758 1.59632e-17 -3.15543e-19)
(0.185706 -2.62219e-15 1.6797e-16)
(0.185706 1.65292e-17 -3.35659e-19)
(0.192742 -2.62353e-15 1.68129e-16)
(0.192742 1.68461e-17 -3.5714e-19)
(0.199862 -2.6251e-15 1.69817e-16)
(0.199862 1.73319e-17 -3.80497e-19)
(0.207063 -2.6269e-15 1.74191e-16)
(0.207063 1.80273e-17 -4.10732e-19)
(0.214341 -2.62863e-15 1.78552e-16)
(0.214341 1.86724e-17 -4.41364e-19)
(0.221692 -2.63036e-15 1.8289e-16)
(0.221692 1.90934e-17 -4.69994e-19)
(0.229111 -2.63196e-15 1.87176e-16)
(0.229111 1.93829e-17 -4.9716e-19)
(0.236592 -2.63368e-15 1.91389e-16)
(0.236592 1.99591e-17 -5.25046e-19)
(0.244129 -2.63543e-15 1.95517e-16)
(0.244129 2.07613e-17 -5.572e-19)
(0.251716 -2.63716e-15 1.99543e-16)
(0.251716 2.11439e-17 -5.8727e-19)
(0.259345 -2.63888e-15 2.03445e-16)
(0.259345 2.14626e-17 -6.24458e-19)
(0.267008 -2.64062e-15 2.07214e-16)
(0.267008 2.18081e-17 -6.65556e-19)
(0.274699 -2.64253e-15 2.1083e-16)
(0.274699 2.21194e-17 -6.98294e-19)
(0.282409 -2.64462e-15 2.14272e-16)
(0.282409 2.27168e-17 -7.32597e-19)
(0.290129 -2.64665e-15 2.17561e-16)
(0.290129 2.33438e-17 -7.69688e-19)
(0.297852 -2.64836e-15 2.20672e-16)
(0.297852 2.3667e-17 -8.12434e-19)
(0.305569 -2.65009e-15 2.23586e-16)
(0.305569 2.39299e-17 -8.5034e-19)
(0.313273 -2.65192e-15 2.26328e-16)
(0.313273 2.43826e-17 -8.94098e-19)
(0.320956 -2.65336e-15 2.28896e-16)
(0.320956 2.44076e-17 -9.41092e-19)
(0.328611 -2.65482e-15 2.31272e-16)
(0.328611 2.49362e-17 -9.84404e-19)
(0.33623 -2.65681e-15 2.33468e-16)
(0.33623 2.58568e-17 -1.0382e-18)
(0.343809 -2.65912e-15 2.35511e-16)
(0.343809 2.64704e-17 -1.08666e-18)
(0.35134 -2.66125e-15 2.3739e-16)
(0.35134 2.69314e-17 -1.12749e-18)
(0.358819 -2.66327e-15 2.39116e-16)
(0.358819 2.74207e-17 -1.17665e-18)
(0.366242 -2.6654e-15 2.40734e-16)
(0.366242 2.78892e-17 -1.25672e-18)
(0.373603 -2.66712e-15 2.42249e-16)
(0.373603 2.79282e-17 -1.00855e-18)
(0.3809 -2.66882e-15 2.43645e-16)
(0.3809 2.78208e-17 -5.47151e-19)
(0.388129 -2.67068e-15 2.44944e-16)
(0.388129 2.80807e-17 -7.08611e-20)
(0.395289 -2.67232e-15 2.46185e-16)
(0.395289 2.83725e-17 4.1683e-19)
(0.402377 -2.67391e-15 2.47366e-16)
(0.402377 2.78293e-17 9.3215e-19)
(0.409392 -2.67518e-15 2.48506e-16)
(0.409392 2.79017e-17 1.47002e-18)
(0.416333 -2.67642e-15 2.49621e-16)
(0.416333 2.77336e-17 2.02668e-18)
(0.423199 -2.67774e-15 2.50693e-16)
(0.423199 2.78107e-17 2.57901e-18)
(0.429989 -2.67964e-15 2.51746e-16)
(0.429989 2.89188e-17 3.17186e-18)
(0.436704 -2.68165e-15 2.52808e-16)
(0.436704 2.95137e-17 3.76694e-18)
(0.443344 -2.68338e-15 2.53864e-16)
(0.443344 3.00776e-17 4.42367e-18)
(0.449909 -2.68431e-15 2.55007e-16)
(0.449909 3.05894e-17 5.08861e-18)
(0.456401 -2.68481e-15 2.56123e-16)
(0.456401 3.03552e-17 5.75888e-18)
(0.462819 -2.68604e-15 2.57289e-16)
(0.462819 3.03993e-17 6.46933e-18)
(0.469164 -2.68702e-15 2.58488e-16)
(0.469164 3.03119e-17 7.22119e-18)
(0.475439 -2.6876e-15 2.59753e-16)
(0.475439 3.02105e-17 7.99178e-18)
(0.481644 -2.6886e-15 2.61055e-16)
(0.481644 2.98674e-17 8.78032e-18)
(0.487779 -2.68932e-15 2.62433e-16)
(0.487779 2.94832e-17 9.60151e-18)
(0.493848 -2.69024e-15 2.63831e-16)
(0.493848 2.92151e-17 1.04807e-17)
(0.49985 -2.69167e-15 2.65338e-16)
(0.49985 2.89693e-17 1.13694e-17)
(0.505788 -2.69245e-15 2.66892e-16)
(0.505788 2.82718e-17 1.22903e-17)
(0.511662 -2.6925e-15 2.68584e-16)
(0.511662 2.70787e-17 1.32471e-17)
(0.517474 -2.69264e-15 2.70306e-16)
(0.517474 2.58982e-17 1.4205e-17)
(0.523226 -2.69319e-15 2.72085e-16)
(0.523226 2.3617e-17 1.5265e-17)
(0.528919 -2.69354e-15 2.73991e-16)
(0.528919 2.20733e-17 1.63251e-17)
(0.534554 -2.69432e-15 2.75921e-16)
(0.534554 2.23528e-17 1.74116e-17)
(0.540132 -2.69571e-15 2.77946e-16)
(0.540132 2.16335e-17 1.85099e-17)
(0.545655 -2.69679e-15 2.8012e-16)
(0.545655 2.11894e-17 1.96611e-17)
(0.551125 -2.69781e-15 2.82361e-16)
(0.551125 2.04872e-17 2.0834e-17)
(0.556542 -2.69864e-15 2.84675e-16)
(0.556542 1.96697e-17 2.21302e-17)
(0.561907 -2.69915e-15 2.87104e-16)
(0.561907 1.99307e-17 2.34483e-17)
(0.567223 -2.69971e-15 2.89682e-16)
(0.567223 1.92285e-17 2.47873e-17)
(0.57249 -2.70024e-15 2.9237e-16)
(0.57249 1.76739e-17 2.62132e-17)
(0.577708 -2.70018e-15 2.95209e-16)
(0.577708 1.63187e-17 2.76789e-17)
(0.58288 -2.69998e-15 2.98076e-16)
(0.58288 1.45179e-17 2.91896e-17)
(0.588007 -2.70055e-15 3.01064e-16)
(0.588007 1.15183e-17 3.07427e-17)
(0.593088 -2.70074e-15 3.04266e-16)
(0.593088 7.62195e-18 3.24164e-17)
(0.598126 -2.69962e-15 3.07487e-16)
(0.598126 4.69054e-18 3.40617e-17)
(0.603121 -2.69845e-15 3.10903e-16)
(0.603121 3.01165e-18 3.56746e-17)
(0.608074 -2.69813e-15 3.14418e-16)
(0.608074 -3.20214e-19 3.73664e-17)
(0.612986 -2.6987e-15 3.18017e-16)
(0.612986 -3.48627e-18 3.92776e-17)
(0.617857 -2.6997e-15 3.21743e-16)
(0.617857 -4.89082e-18 4.12687e-17)
(0.622689 -2.69989e-15 3.25582e-16)
(0.622689 -6.07148e-18 4.3247e-17)
(0.627483 -2.69846e-15 3.29691e-16)
(0.627483 -1.01624e-17 4.52974e-17)
(0.632238 -2.69553e-15 3.33914e-16)
(0.632238 -1.53396e-17 4.74775e-17)
(0.636956 -2.69285e-15 3.38224e-16)
(0.636956 -1.84812e-17 4.95952e-17)
(0.641638 -2.69117e-15 3.42706e-16)
(0.641638 -2.35884e-17 5.17756e-17)
(0.646283 -2.69087e-15 3.47234e-16)
(0.646283 -2.6762e-17 5.41567e-17)
(0.650893 -2.69047e-15 3.51926e-16)
(0.650893 -2.72371e-17 5.66092e-17)
(0.655468 -2.69016e-15 3.5673e-16)
(0.655468 -2.93636e-17 5.9141e-17)
(0.660009 -2.68983e-15 3.61735e-16)
(0.660009 -3.05754e-17 6.18445e-17)
(0.664515 -2.68809e-15 3.66907e-16)
(0.664515 -3.06867e-17 6.45882e-17)
(0.668989 -2.68747e-15 3.72242e-16)
(0.668989 -3.17522e-17 6.7469e-17)
(0.673429 -2.68798e-15 3.77658e-16)
(0.673429 -3.22422e-17 7.04278e-17)
(0.677838 -2.68746e-15 3.83307e-16)
(0.677838 -3.41975e-17 7.38225e-17)
(0.682214 -2.68509e-15 3.89196e-16)
(0.682214 -3.63252e-17 7.7108e-17)
(0.686558 -2.68214e-15 3.95273e-16)
(0.686558 -3.87512e-17 8.05245e-17)
(0.690871 -2.68151e-15 4.01378e-16)
(0.690871 -4.08269e-17 8.3996e-17)
(0.695154 -2.68006e-15 4.07779e-16)
(0.695154 -4.16907e-17 8.77706e-17)
(0.699406 -2.67554e-15 4.14484e-16)
(0.699406 -4.45e-17 9.15777e-17)
(0.703628 -2.6707e-15 4.2125e-16)
(0.703628 -4.82561e-17 9.54519e-17)
(0.707819 -2.66577e-15 4.28227e-16)
(0.707819 -5.34154e-17 9.94381e-17)
(0.711982 -2.66011e-15 4.35606e-16)
(0.711982 -5.75831e-17 1.03726e-16)
(0.716115 -2.65547e-15 4.42961e-16)
(0.716115 -6.16638e-17 1.0807e-16)
(0.720219 -2.65332e-15 4.50347e-16)
(0.720219 -6.47492e-17 1.12582e-16)
(0.724294 -2.65064e-15 4.58142e-16)
(0.724294 -6.77066e-17 1.17225e-16)
(0.72834 -2.64731e-15 4.66269e-16)
(0.72834 -7.16424e-17 1.22055e-16)
(0.732359 -2.64531e-15 4.7458e-16)
(0.732359 -7.63359e-17 1.26861e-16)
(0.736349 -2.64244e-15 4.8314e-16)
(0.736349 -8.02432e-17 1.31865e-16)
(0.740311 -2.63878e-15 4.91774e-16)
(0.740311 -8.24915e-17 1.37233e-16)
(0.744246 -2.63272e-15 5.01211e-16)
(0.744246 -8.73779e-17 1.4298e-16)
(0.748153 -2.62527e-15 5.10554e-16)
(0.748153 -9.20642e-17 1.48815e-16)
(0.752033 -2.61973e-15 5.20455e-16)
(0.752033 -9.7256e-17 1.54408e-16)
(0.755886 -2.61453e-15 5.30016e-16)
(0.755886 -1.05489e-16 1.60158e-16)
(0.759711 -2.61016e-15 5.40151e-16)
(0.759711 -1.15465e-16 1.66399e-16)
(0.76351 -2.60601e-15 5.50998e-16)
(0.76351 -1.21761e-16 1.73173e-16)
(0.767282 -2.6013e-15 5.6142e-16)
(0.767282 -1.26859e-16 1.79416e-16)
(0.771028 -2.59623e-15 5.72427e-16)
(0.771028 -1.34228e-16 1.86343e-16)
(0.774747 -2.59131e-15 5.8264e-16)
(0.774747 -1.4332e-16 1.93273e-16)
(0.778439 -2.5873e-15 5.8318e-16)
(0.778439 -1.51397e-16 2.00437e-16)
(0.782106 -2.58099e-15 5.84037e-16)
(0.782106 -1.58461e-16 2.07453e-16)
(0.785746 -2.5726e-15 5.84871e-16)
(0.785746 -1.69162e-16 2.15247e-16)
(0.789361 -2.56471e-15 5.85511e-16)
(0.789361 -1.77925e-16 2.23661e-16)
(0.792949 -2.55595e-15 5.86592e-16)
(0.792949 -1.85872e-16 2.31368e-16)
(0.796512 -2.54615e-15 5.88123e-16)
(0.796512 -1.98639e-16 2.39182e-16)
(0.800049 -2.53648e-15 5.8949e-16)
(0.800049 -2.08821e-16 2.47964e-16)
(0.803561 -2.52916e-15 5.91112e-16)
(0.803561 -2.14857e-16 2.56625e-16)
(0.807047 -2.52301e-15 5.92978e-16)
(0.807047 -2.24397e-16 2.6559e-16)
(0.810508 -2.51672e-15 5.94775e-16)
(0.810508 -2.30515e-16 2.74985e-16)
(0.813943 -2.51649e-15 5.9644e-16)
(0.813943 -2.35169e-16 2.84917e-16)
(0.817353 -2.50459e-15 5.98222e-16)
(0.817353 -2.42436e-16 2.95501e-16)
(0.820738 -2.50064e-15 6.00493e-16)
(0.820738 -2.5287e-16 3.06054e-16)
(0.824098 -2.49142e-15 6.02491e-16)
(0.824098 -2.6364e-16 3.16846e-16)
(0.827432 -2.48274e-15 6.05099e-16)
(0.827432 -2.71726e-16 3.27945e-16)
(0.830742 -2.47161e-15 6.07093e-16)
(0.830742 -2.81989e-16 3.39411e-16)
(0.834027 -2.46102e-15 6.08562e-16)
(0.834027 -2.89055e-16 3.51528e-16)
(0.837287 -2.45014e-15 6.09339e-16)
(0.837287 -2.9568e-16 3.64365e-16)
(0.840522 -2.43872e-15 6.10089e-16)
(0.840522 -3.09232e-16 3.7773e-16)
(0.843733 -2.42689e-15 6.10604e-16)
(0.843733 -3.18401e-16 3.91024e-16)
(0.846919 -2.41623e-15 6.11448e-16)
(0.846919 -3.21697e-16 4.0373e-16)
(0.85008 -2.40252e-15 6.1226e-16)
(0.85008 -3.30988e-16 4.17694e-16)
(0.853217 -2.38607e-15 6.11677e-16)
(0.853217 -3.40569e-16 4.32679e-16)
(0.856329 -2.3706e-15 6.11986e-16)
(0.856329 -3.45528e-16 4.4754e-16)
(0.859417 -2.35874e-15 6.13074e-16)
(0.859417 -3.50905e-16 4.62659e-16)
(0.862481 -2.34821e-15 6.15155e-16)
(0.862481 -3.61562e-16 4.78654e-16)
(0.86552 -2.33827e-15 6.15535e-16)
(0.86552 -3.74124e-16 4.95683e-16)
(0.868535 -2.32884e-15 6.15248e-16)
(0.868535 -3.83057e-16 5.12606e-16)
(0.871526 -2.31913e-15 6.1482e-16)
(0.871526 -3.91244e-16 5.30612e-16)
(0.874492 -2.31154e-15 6.14522e-16)
(0.874492 -3.99116e-16 5.48512e-16)
(0.877435 -2.29953e-15 6.13275e-16)
(0.877435 -4.09581e-16 5.66952e-16)
(0.880354 -2.28731e-15 6.12824e-16)
(0.880354 -4.18771e-16 5.86117e-16)
(0.883248 -2.27533e-15 6.12309e-16)
(0.883248 -4.26198e-16 6.05846e-16)
(0.886119 -2.26198e-15 6.12396e-16)
(0.886119 -4.38196e-16 6.25085e-16)
(0.888966 -2.2477e-15 6.12496e-16)
(0.888966 -4.49395e-16 6.45648e-16)
(0.891789 -2.23338e-15 6.11112e-16)
(0.891789 -4.59077e-16 6.68312e-16)
(0.894588 -2.21858e-15 6.09404e-16)
(0.894588 -4.68024e-16 6.90617e-16)
(0.897364 -2.20359e-15 6.0806e-16)
(0.897364 -4.77164e-16 7.12702e-16)
(0.900116 -2.18684e-15 6.06202e-16)
(0.900116 -4.84759e-16 7.36704e-16)
(0.902844 -2.17104e-15 6.03729e-16)
(0.902844 -4.9786e-16 7.60976e-16)
(0.905548 -2.15462e-15 6.02119e-16)
(0.905548 -5.14803e-16 7.85593e-16)
(0.90823 -2.13592e-15 5.99354e-16)
(0.90823 -5.27111e-16 8.09894e-16)
(0.910887 -2.12075e-15 5.98566e-16)
(0.910887 -5.41773e-16 8.35007e-16)
(0.913522 -2.09988e-15 5.96635e-16)
(0.913522 -5.54431e-16 8.42172e-16)
(0.916133 -2.07995e-15 5.94122e-16)
(0.916133 -5.64607e-16 8.387e-16)
(0.91872 -2.06227e-15 5.91048e-16)
(0.91872 -5.78823e-16 8.35137e-16)
(0.921284 -2.04327e-15 5.88492e-16)
(0.921284 -5.9035e-16 8.31321e-16)
(0.923825 -2.023e-15 5.85134e-16)
(0.923825 -6.01487e-16 8.27723e-16)
(0.926343 -2.00229e-15 5.80526e-16)
(0.926343 -6.14136e-16 8.23783e-16)
(0.928838 -1.98797e-15 5.75891e-16)
(0.928838 -6.29113e-16 8.19367e-16)
(0.93131 -1.97085e-15 5.71589e-16)
(0.93131 -6.45956e-16 8.14052e-16)
(0.933758 -1.95381e-15 5.66391e-16)
(0.933758 -6.59197e-16 8.08669e-16)
(0.936184 -1.93762e-15 5.61786e-16)
(0.936184 -6.71412e-16 8.03422e-16)
(0.938586 -1.91841e-15 5.56617e-16)
(0.938586 -6.81753e-16 7.9795e-16)
(0.940966 -1.90183e-15 5.49895e-16)
(0.940966 -6.88369e-16 7.91656e-16)
(0.943323 -1.88283e-15 5.43283e-16)
(0.943323 -6.9369e-16 7.83081e-16)
(0.945656 -1.86213e-15 5.37877e-16)
(0.945656 -7.06081e-16 7.73535e-16)
(0.947967 -1.84514e-15 5.31115e-16)
(0.947967 -7.2336e-16 7.66066e-16)
(0.950256 -1.82637e-15 5.22843e-16)
(0.950256 -7.41753e-16 7.56446e-16)
(0.952521 -1.80682e-15 5.14051e-16)
(0.952521 -7.49052e-16 7.4558e-16)
(0.954764 -1.78823e-15 5.08347e-16)
(0.954764 -7.62767e-16 7.35334e-16)
(0.956984 -1.76852e-15 5.00621e-16)
(0.956984 -7.91725e-16 7.26701e-16)
(0.959181 -1.74711e-15 4.90606e-16)
(0.959181 -8.06628e-16 7.17032e-16)
(0.961356 -1.72367e-15 4.82813e-16)
(0.961356 -8.19755e-16 7.05722e-16)
(0.963508 -1.70003e-15 4.75503e-16)
(0.963508 -8.31622e-16 6.97146e-16)
(0.965637 -1.68284e-15 4.68506e-16)
(0.965637 -8.36739e-16 6.88438e-16)
(0.967744 -1.66612e-15 4.61947e-16)
(0.967744 -8.42546e-16 6.76629e-16)
(0.969829 -1.6456e-15 4.54182e-16)
(0.969829 -8.57311e-16 6.64059e-16)
(0.97189 -1.62706e-15 4.45629e-16)
(0.97189 -8.72004e-16 6.52599e-16)
(0.97393 -1.6066e-15 4.38328e-16)
(0.97393 -8.84818e-16 6.41069e-16)
(0.975946 -1.59118e-15 4.30093e-16)
(0.975946 -8.94456e-16 6.29206e-16)
(0.97794 -1.57596e-15 4.22251e-16)
(0.97794 -9.05161e-16 6.13763e-16)
(0.979912 -1.55418e-15 4.14493e-16)
(0.979912 -9.18964e-16 6.00533e-16)
(0.981861 -1.53157e-15 4.08997e-16)
(0.981861 -9.28401e-16 5.88801e-16)
(0.983787 -1.51506e-15 4.02997e-16)
(0.983787 -9.4876e-16 5.77274e-16)
(0.985691 -1.49978e-15 3.91874e-16)
(0.985691 -9.57525e-16 5.65492e-16)
(0.987573 -1.48213e-15 3.82634e-16)
(0.987573 -9.67679e-16 5.48976e-16)
(0.989431 -1.46207e-15 3.76846e-16)
(0.989431 -9.79284e-16 5.35845e-16)
(0.991268 -1.44056e-15 3.70472e-16)
(0.991268 -9.82759e-16 5.26786e-16)
(0.993081 -1.42216e-15 3.6412e-16)
(0.993081 -9.95557e-16 5.18267e-16)
(0.994872 -1.40684e-15 3.55417e-16)
(0.994872 -1.01e-15 5.08663e-16)
(0.99664 -1.39481e-15 3.47282e-16)
(0.99664 -1.01531e-15 4.98142e-16)
(0.998386 -1.38079e-15 3.43117e-16)
(0.998386 -1.02364e-15 4.96393e-16)
(1.00011 -1.36625e-15 3.31985e-16)
(1.00011 -1.04097e-15 4.96103e-16)
(1.00181 -1.35593e-15 3.21268e-16)
(1.00181 -1.04564e-15 4.93659e-16)
(1.00349 -1.34978e-15 3.09356e-16)
(1.00349 -1.04536e-15 4.96913e-16)
(1.00514 -1.3427e-15 3.00408e-16)
(1.00514 -1.05971e-15 4.92623e-16)
(1.00677 -1.32691e-15 3.05335e-16)
(1.00677 -1.0724e-15 4.89686e-16)
(1.00838 -1.31044e-15 3.05389e-16)
(1.00838 -1.0653e-15 4.95331e-16)
(1.00996 -1.30273e-15 3.04274e-16)
(1.00996 -1.06562e-15 4.93884e-16)
(1.01153 -1.30187e-15 3.02997e-16)
(1.01153 -1.07018e-15 4.89513e-16)
(1.01306 -1.29377e-15 3.13023e-16)
(1.01306 -1.0615e-15 4.82889e-16)
(1.01458 -1.28649e-15 3.15902e-16)
(1.01458 -1.05566e-15 4.82901e-16)
(1.01607 -1.29069e-15 3.16869e-16)
(1.01607 -1.05805e-15 4.74574e-16)
(1.01754 -1.27924e-15 3.15141e-16)
(1.01754 -1.04752e-15 4.6088e-16)
(1.01898 -1.25875e-15 3.17452e-16)
(1.01898 -1.04677e-15 4.52241e-16)
(1.02041 -1.24937e-15 3.22178e-16)
(1.02041 -1.05843e-15 4.45873e-16)
(1.0218 -1.23953e-15 3.17873e-16)
(1.0218 -1.036e-15 4.41048e-16)
(1.02318 -1.23028e-15 3.21098e-16)
(1.02318 -1.0243e-15 4.27635e-16)
(1.02452 -1.22356e-15 3.22424e-16)
(1.02452 -1.03274e-15 4.20035e-16)
(1.02585 -1.2155e-15 3.24009e-16)
(1.02585 -1.03628e-15 4.13918e-16)
(1.02715 -1.20218e-15 3.24332e-16)
(1.02715 -1.04868e-15 4.13123e-16)
(1.02843 -1.18786e-15 3.2203e-16)
(1.02843 -1.04329e-15 4.11947e-16)
(1.02968 -1.19102e-15 3.13853e-16)
(1.02968 -1.02951e-15 4.12816e-16)
(1.03091 -1.19266e-15 3.02257e-16)
(1.03091 -1.02276e-15 4.02717e-16)
(1.03211 -1.18628e-15 2.99105e-16)
(1.03211 -9.96866e-16 3.87647e-16)
(1.03329 -1.1847e-15 3.06154e-16)
(1.03329 -9.936e-16 3.69138e-16)
(1.03444 -1.18274e-15 3.04162e-16)
(1.03444 -1.01439e-15 3.63329e-16)
(1.03556 -1.18609e-15 2.99596e-16)
(1.03556 -1.03618e-15 3.51987e-16)
(1.03667 -1.175e-15 2.81062e-16)
(1.03667 -1.06402e-15 3.3612e-16)
(1.03774 -1.14907e-15 2.88406e-16)
(1.03774 -1.05292e-15 3.18089e-16)
(1.03879 -1.13889e-15 2.96288e-16)
(1.03879 -1.03972e-15 3.05214e-16)
(1.03982 -1.12026e-15 3.08835e-16)
(1.03982 -1.05019e-15 2.97454e-16)
(1.04082 -1.10032e-15 3.01166e-16)
(1.04082 -1.04612e-15 3.02602e-16)
(1.04179 -1.09667e-15 3.07338e-16)
(1.04179 -1.0567e-15 3.0128e-16)
(1.04274 -1.08762e-15 3.09758e-16)
(1.04274 -1.06536e-15 3.04566e-16)
(1.04366 -1.08941e-15 3.10749e-16)
(1.04366 -1.05893e-15 3.16358e-16)
(1.04455 -1.0829e-15 3.22563e-16)
(1.04455 -1.05764e-15 3.18781e-16)
(1.04542 -1.06639e-15 3.21716e-16)
(1.04542 -1.06558e-15 3.18808e-16)
(1.04627 -1.05828e-15 3.30536e-16)
(1.04627 -1.07962e-15 3.09427e-16)
(1.04708 -1.05311e-15 3.33334e-16)
(1.04708 -1.06675e-15 3.12017e-16)
(1.04788 -1.04026e-15 3.24658e-16)
(1.04788 -1.05658e-15 3.29423e-16)
(1.04864 -1.03388e-15 3.09896e-16)
(1.04864 -1.04515e-15 3.42384e-16)
(1.04938 -1.02896e-15 3.22311e-16)
(1.04938 -1.0328e-15 3.42347e-16)
(1.05009 -1.02993e-15 3.21807e-16)
(1.05009 -1.02934e-15 3.42529e-16)
(1.05078 -1.02991e-15 3.22368e-16)
(1.05078 -1.03191e-15 3.23466e-16)
(1.05144 -1.02614e-15 3.10837e-16)
(1.05144 -1.0147e-15 3.27425e-16)
(1.05208 -1.01692e-15 3.10108e-16)
(1.05208 -9.95344e-16 3.22563e-16)
(1.05269 -9.99737e-16 3.087e-16)
(1.05269 -9.95567e-16 3.29857e-16)
(1.05328 -9.8548e-16 3.04987e-16)
(1.05328 -9.94024e-16 3.37989e-16)
(1.05384 -9.74296e-16 3.0034e-16)
(1.05384 -9.68151e-16 3.34331e-16)
(1.05438 -9.54285e-16 3.12358e-16)
(1.05438 -9.5887e-16 3.24488e-16)
(1.0549 -9.39303e-16 3.17175e-16)
(1.0549 -9.37279e-16 3.32333e-16)
(1.0554 -9.26567e-16 3.22321e-16)
(1.0554 -9.38349e-16 3.55463e-16)
(1.05587 -9.17519e-16 3.20902e-16)
(1.05587 -9.1747e-16 3.61936e-16)
(1.05632 -9.12004e-16 3.1291e-16)
(1.05632 -9.37699e-16 3.35414e-16)
(1.05675 -8.9465e-16 3.26473e-16)
(1.05675 -9.06957e-16 3.15757e-16)
(1.05716 -8.89412e-16 3.15808e-16)
(1.05716 -9.06873e-16 3.37795e-16)
(1.05755 -8.69503e-16 3.095e-16)
(1.05755 -8.94304e-16 3.32744e-16)
(1.05793 -8.62793e-16 3.01923e-16)
(1.05793 -8.9124e-16 3.2978e-16)
(1.05828 -8.75188e-16 2.78679e-16)
(1.05828 -8.74799e-16 3.20959e-16)
(1.05862 -8.75908e-16 2.79622e-16)
(1.05862 -8.70728e-16 3.16179e-16)
(1.05894 -8.65423e-16 2.78756e-16)
(1.05894 -8.66413e-16 3.10427e-16)
(1.05925 -8.80315e-16 2.63281e-16)
(1.05925 -8.60093e-16 3.04227e-16)
(1.05954 -8.87973e-16 2.62932e-16)
(1.05954 -8.46771e-16 2.80029e-16)
(1.05982 -8.63838e-16 2.49971e-16)
(1.05982 -8.49822e-16 2.76882e-16)
(1.06009 -8.54251e-16 2.27876e-16)
(1.06009 -8.37036e-16 2.68729e-16)
(1.06034 -8.58651e-16 2.26897e-16)
(1.06034 -7.93467e-16 2.53326e-16)
(1.06059 -8.45614e-16 2.51954e-16)
(1.06059 -7.9775e-16 2.54705e-16)
(1.06082 -8.39131e-16 2.38964e-16)
(1.06082 -8.52843e-16 2.38904e-16)
(1.06104 -8.39306e-16 2.42837e-16)
(1.06104 -8.42552e-16 2.36783e-16)
(1.06126 -8.13631e-16 2.37967e-16)
(1.06126 -8.15701e-16 2.10257e-16)
(1.06146 -7.8836e-16 2.17656e-16)
(1.06146 -7.74263e-16 2.00476e-16)
(1.06166 -7.67077e-16 1.98396e-16)
(1.06166 -7.46851e-16 2.14172e-16)
(1.06184 -7.52271e-16 1.83132e-16)
(1.06184 -7.99999e-16 1.9417e-16)
(1.06202 -6.94827e-16 1.74237e-16)
(1.06202 -7.20932e-16 2.06247e-16)
(1.0622 -6.60408e-16 1.78878e-16)
(1.0622 -6.85346e-16 2.06221e-16)
(1.06237 -6.35687e-16 1.75188e-16)
(1.06237 -6.53516e-16 1.78296e-16)
(1.06253 -6.15072e-16 1.74846e-16)
(1.06253 -6.41036e-16 1.61821e-16)
(1.06268 -5.63056e-16 2.22902e-16)
(1.06268 -6.25917e-16 1.92151e-16)
(1.06283 -5.05833e-16 2.04961e-16)
(1.06283 -5.61394e-16 1.91011e-16)
(1.06298 -5.40477e-16 1.85151e-16)
(1.06298 -5.55947e-16 1.74652e-16)
(1.06312 -5.4356e-16 1.9535e-16)
(1.06312 -5.75046e-16 1.71303e-16)
(1.06325 -5.05269e-16 2.03937e-16)
(1.06325 -5.02721e-16 1.94016e-16)
(1.06339 -5.08977e-16 1.92835e-16)
(1.06339 -4.99523e-16 1.93178e-16)
(1.06351 -4.91257e-16 1.71441e-16)
(1.06351 -5.02781e-16 2.04772e-16)
(1.06363 -4.55575e-16 1.94277e-16)
(1.06363 -4.90854e-16 2.16811e-16)
(1.06375 -5.52892e-16 1.45176e-16)
(1.06375 -4.69023e-16 2.35471e-16)
(1.06386 -5.15405e-16 1.05915e-16)
(1.06386 -4.80118e-16 1.82192e-16)
(1.06397 -4.92723e-16 1.37035e-16)
(1.06397 -5.08184e-16 1.43346e-16)
(1.06407 -4.67313e-16 1.25575e-16)
(1.06407 -4.38367e-16 1.7714e-16)
(1.06417 -4.14025e-16 1.5584e-16)
(1.06417 -3.91931e-16 1.97223e-16)
(1.06426 -4.32844e-16 1.04975e-16)
(1.06426 -3.72696e-16 2.24161e-16)
(1.06434 -4.18372e-16 1.29645e-16)
(1.06434 -3.66391e-16 1.74599e-16)
(1.06442 -4.12246e-16 1.34255e-16)
(1.06442 -3.8398e-16 1.60061e-16)
(1.0645 -4.00088e-16 1.25349e-16)
(1.0645 -3.71474e-16 1.1503e-16)
(1.06456 -3.66391e-16 1.21372e-16)
(1.06456 -3.63755e-16 1.47853e-16)
(1.06462 -3.38429e-16 9.16047e-17)
(1.06462 -3.98017e-16 1.9564e-16)
(1.06467 -3.34864e-16 7.22364e-17)
(1.06467 -3.98255e-16 2.52882e-16)
(1.06472 -3.53312e-16 4.54402e-17)
(1.06472 -3.52978e-16 2.98085e-16)
(1.06475 -3.76717e-16 7.08167e-17)
(1.06475 -3.58456e-16 3.21212e-16)
(1.06477 -3.92143e-16 6.85377e-17)
(1.06477 -3.78819e-16 2.59808e-16)
(1.06478 -3.66584e-16 9.57082e-17)
(1.06478 -3.69055e-16 2.88108e-16)
(0.00215712 -6.98284e-20 -1.00337e-18)
(0.00215712 -1.31748e-20 -1.39672e-18)
(0.0065027 2.64915e-19 -1.83369e-18)
(0.0065027 1.36516e-19 -2.312e-17)
(0.0109116 4.67835e-19 -1.37844e-18)
(0.0109116 2.47654e-19 -2.3801e-17)
(0.015385 7.62113e-19 -2.76889e-18)
(0.015385 3.91649e-19 -2.45049e-17)
(0.0199241 1.06991e-18 -3.93505e-18)
(0.0199241 5.36319e-19 -2.52326e-17)
(0.02453 1.38418e-18 -4.93662e-18)
(0.02453 6.8411e-19 -2.59847e-17)
(0.029204 1.69608e-18 -5.95869e-18)
(0.029204 8.42166e-19 -2.67624e-17)
(0.0339473 2.00771e-18 -7.03451e-18)
(0.0339473 1.04316e-18 -2.75662e-17)
(0.0387611 2.33732e-18 -8.1539e-18)
(0.0387611 1.24261e-18 -2.83976e-17)
(0.0436469 2.67066e-18 -9.31487e-18)
(0.0436469 1.45078e-18 -2.92577e-17)
(0.0486058 3.00106e-18 -1.05211e-17)
(0.0486058 1.67315e-18 -3.01463e-17)
(0.0536391 3.33372e-18 -1.17738e-17)
(0.0536391 1.87439e-18 -3.10654e-17)
(0.0587483 3.68982e-18 -1.30737e-17)
(0.0587483 2.06847e-18 -3.20156e-17)
(0.0639346 4.08414e-18 -1.44225e-17)
(0.0639346 2.24809e-18 -3.29977e-17)
(0.0691995 4.51018e-18 -1.58218e-17)
(0.0691995 2.43043e-18 -3.40127e-17)
(0.0745441 4.94104e-18 -1.72729e-17)
(0.0745441 2.64661e-18 -3.50615e-17)
(0.0799701 5.35995e-18 -1.87776e-17)
(0.0799701 2.90775e-18 -3.61454e-17)
(0.0854786 5.75954e-18 -2.03353e-17)
(0.0854786 3.15308e-18 -3.72659e-17)
(0.091071 6.20149e-18 -2.19488e-17)
(0.091071 3.42972e-18 -3.84227e-17)
(0.0967486 6.68654e-18 -2.32213e-17)
(0.0967486 3.72828e-18 -3.96175e-17)
(0.102513 7.1901e-18 -2.38305e-17)
(0.102513 4.0351e-18 -4.08493e-17)
(0.108365 7.70964e-18 -2.44508e-17)
(0.108365 4.30232e-18 -4.21191e-17)
(0.114306 8.21424e-18 -2.50827e-17)
(0.114306 4.54683e-18 -4.34271e-17)
(0.120336 8.6865e-18 -2.57261e-17)
(0.120336 4.7704e-18 -4.47739e-17)
(0.126458 9.1922e-18 -2.63813e-17)
(0.126458 5.08723e-18 -4.61605e-17)
(0.132671 9.66167e-18 -2.70466e-17)
(0.132671 5.57664e-18 -4.75873e-17)
(0.138977 1.00152e-17 -2.7722e-17)
(0.138977 5.96057e-18 -4.9052e-17)
(0.145376 1.04729e-17 -2.84065e-17)
(0.145376 6.31412e-18 -5.05528e-17)
(0.151867 1.10512e-17 -2.90987e-17)
(0.151867 6.73108e-18 -5.20894e-17)
(0.158452 1.16519e-17 -2.97973e-17)
(0.158452 7.06201e-18 -5.36619e-17)
(0.165129 1.23503e-17 -3.05009e-17)
(0.165129 7.30263e-18 -5.52699e-17)
(0.171898 1.30845e-17 -3.12039e-17)
(0.171898 7.71252e-18 -5.69057e-17)
(0.178758 1.37606e-17 -3.19068e-17)
(0.178758 8.22035e-18 -5.85659e-17)
(0.185706 1.43728e-17 -3.26059e-17)
(0.185706 8.56517e-18 -6.02523e-17)
(0.192742 1.49765e-17 -3.33002e-17)
(0.192742 9.13195e-18 -6.19606e-17)
(0.199862 1.55784e-17 -3.39851e-17)
(0.199862 9.68901e-18 -6.36805e-17)
(0.207063 1.62553e-17 -3.46583e-17)
(0.207063 1.00699e-17 -6.54102e-17)
(0.214341 1.7008e-17 -3.53117e-17)
(0.214341 1.04333e-17 -6.71412e-17)
(0.221692 1.77117e-17 -3.59481e-17)
(0.221692 1.08827e-17 -6.88708e-17)
(0.229111 1.8381e-17 -3.65638e-17)
(0.229111 1.1468e-17 -7.05876e-17)
(0.236592 1.91197e-17 -3.98138e-17)
(0.236592 1.20629e-17 -7.22836e-17)
(0.244129 1.98555e-17 -4.51576e-17)
(0.244129 1.26265e-17 -7.3951e-17)
(0.251716 2.02645e-17 -5.05713e-17)
(0.251716 1.33023e-17 -7.55894e-17)
(0.259345 2.06789e-17 -5.60446e-17)
(0.259345 1.42257e-17 -7.71968e-17)
(0.267008 2.13217e-17 -6.15668e-17)
(0.267008 1.48099e-17 -7.87513e-17)
(0.274699 2.21631e-17 -6.71252e-17)
(0.274699 1.56189e-17 -8.02522e-17)
(0.282409 2.29729e-17 -7.27042e-17)
(0.282409 1.65679e-17 -8.16969e-17)
(0.290129 2.38e-17 -7.82804e-17)
(0.290129 1.73313e-17 -8.30766e-17)
(0.297852 2.46452e-17 -8.38447e-17)
(0.297852 1.83855e-17 -8.44049e-17)
(0.305569 2.51341e-17 -8.93979e-17)
(0.305569 1.97782e-17 -8.56711e-17)
(0.313273 2.5689e-17 -9.49166e-17)
(0.313273 2.08915e-17 -8.68765e-17)
(0.320956 2.64851e-17 -1.00333e-16)
(0.320956 2.16846e-17 -8.80167e-17)
(0.328611 2.73563e-17 -1.02599e-16)
(0.328611 2.23762e-17 -8.90859e-17)
(0.33623 2.82457e-17 -1.04807e-16)
(0.33623 2.32421e-17 -9.01039e-17)
(0.343809 2.90141e-17 -1.06953e-16)
(0.343809 2.46494e-17 -9.10691e-17)
(0.35134 2.98755e-17 -1.0905e-16)
(0.35134 2.57371e-17 -9.19878e-17)
(0.358819 3.05212e-17 -1.1109e-16)
(0.358819 2.65274e-17 -9.28706e-17)
(0.366241 3.10782e-17 -1.13078e-16)
(0.366241 2.75037e-17 -9.37082e-17)
(0.373603 3.18074e-17 -1.15038e-16)
(0.373603 2.83976e-17 -9.44926e-17)
(0.3809 3.26001e-17 -1.16952e-16)
(0.3809 2.92488e-17 -9.52602e-17)
(0.388129 3.34868e-17 -1.1885e-16)
(0.388129 3.00407e-17 -9.59882e-17)
(0.395289 3.43209e-17 -1.20724e-16)
(0.395289 3.10551e-17 -9.66923e-17)
(0.402377 3.48901e-17 -1.22594e-16)
(0.402377 3.1968e-17 -9.69851e-17)
(0.409392 3.51709e-17 -1.24451e-16)
(0.409392 3.28197e-17 -9.71167e-17)
(0.416333 3.55526e-17 -1.26311e-16)
(0.416333 3.40125e-17 -9.7233e-17)
(0.423199 3.61585e-17 -1.28151e-16)
(0.423199 3.44734e-17 -9.73301e-17)
(0.429989 3.70246e-17 -1.29998e-16)
(0.429989 3.53507e-17 -9.73664e-17)
(0.436704 3.78588e-17 -1.31883e-16)
(0.436704 3.70466e-17 -9.74238e-17)
(0.443344 3.87822e-17 -1.33763e-16)
(0.443344 3.8009e-17 -9.74536e-17)
(0.449909 3.96272e-17 -1.35643e-16)
(0.449909 3.89533e-17 -9.74812e-17)
(0.456401 4.02512e-17 -1.37565e-16)
(0.456401 4.01615e-17 -9.74945e-17)
(0.462819 4.12058e-17 -1.39512e-16)
(0.462819 4.12303e-17 -9.74925e-17)
(0.469164 4.21347e-17 -1.41492e-16)
(0.469164 4.23176e-17 -9.74713e-17)
(0.475439 4.3191e-17 -1.43507e-16)
(0.475439 4.3273e-17 -9.74409e-17)
(0.481644 4.41787e-17 -1.45593e-16)
(0.481644 4.44253e-17 -9.7461e-17)
(0.487779 4.49127e-17 -1.47694e-16)
(0.487779 4.55951e-17 -9.74904e-17)
(0.493848 4.54812e-17 -1.49832e-16)
(0.493848 4.70495e-17 -9.74906e-17)
(0.49985 4.58713e-17 -1.52024e-16)
(0.49985 4.80237e-17 -9.75102e-17)
(0.505788 4.58916e-17 -1.54267e-16)
(0.505788 4.91477e-17 -9.75772e-17)
(0.511662 4.59106e-17 -1.56575e-16)
(0.511662 5.0891e-17 -9.76212e-17)
(0.517474 4.67462e-17 -1.58943e-16)
(0.517474 5.19858e-17 -9.77212e-17)
(0.523226 4.73456e-17 -1.61363e-16)
(0.523226 5.28485e-17 -9.77785e-17)
(0.528919 4.78049e-17 -1.63875e-16)
(0.528919 5.38084e-17 -9.78312e-17)
(0.534554 4.86976e-17 -1.66461e-16)
(0.534554 5.40985e-17 -9.78765e-17)
(0.540132 4.95987e-17 -1.69111e-16)
(0.540132 5.34563e-17 -9.79866e-17)
(0.545655 5.02696e-17 -1.71821e-16)
(0.545655 5.46496e-17 -9.81075e-17)
(0.551125 5.04299e-17 -1.74613e-16)
(0.551125 5.5921e-17 -9.82991e-17)
(0.556542 5.0644e-17 -1.77454e-16)
(0.556542 5.68044e-17 -9.84537e-17)
(0.561907 5.1486e-17 -1.80338e-16)
(0.561907 5.83523e-17 -9.8585e-17)
(0.567223 5.18306e-17 -1.83309e-16)
(0.567223 5.92828e-17 -9.88157e-17)