/*--------------------------------*- C++ -*----------------------------------*\
| =========                 |                                                 |
| \\      /  F ield         | OpenFOAM: The Open Source CFD Toolbox           |
|  \\    /   O peration     | Version:  2012                                  |
|   \\  /    A nd           | Website:  www.openfoam.com                      |
|    \\/     M anipulation  |                                                 |
\*---------------------------------------------------------------------------*/
FoamFile
{
    version     2.0;
    format      ascii;
    class       volScalarField;
    location    "16000";
    object      p;
}
// * * * * * * * * * * * * * * * * * * * * * * * * * * * * * * * * * * * * * //

dimensions      [0 2 -2 0 0 0 0];


internalField   nonuniform List<scalar> 
40
(
-1.08464e-16
-7.3775e-16
-2.57082e-16
-6.85798e-16
-1.90321e-16
-2.69374e-16
8.00909e-17
3.08016e-16
5.60122e-15
5.89251e-15
-6.66515e-16
-7.58098e-16
-6.55345e-16
-7.44973e-16
-6.1472e-16
-6.0759e-16
3.02884e-16
3.10954e-16
5.86395e-15
6.19255e-15
-1.80712e-14
-1.80709e-14
-1.97254e-14
-1.97962e-14
-1.985e-14
-1.98424e-14
-1.98514e-14
-1.985e-14
-1.98527e-14
-1.98507e-14
-1.79592e-14
-1.79587e-14
-2.00001e-14
-1.99763e-14
-1.98917e-14
-1.99035e-14
-1.98863e-14
-1.98979e-14
-1.98914e-14
-1.99005e-14
)
;

boundaryField
{
    walls
    {
        type            zeroGradient;
    }
    inlet
    {
        type            cyclic;
    }
    outlet
    {
        type            cyclic;
    }
    sides
    {
        type            empty;
    }
}


// ************************************************************************* //
