/*--------------------------------*- C++ -*----------------------------------*\
| =========                 |                                                 |
| \\      /  F ield         | OpenFOAM: The Open Source CFD Toolbox           |
|  \\    /   O peration     | Version:  2106                                  |
|   \\  /    A nd           | Website:  www.openfoam.com                      |
|    \\/     M anipulation  |                                                 |
\*---------------------------------------------------------------------------*/
FoamFile
{
    version     2.0;
    format      ascii;
    arch        "LSB;label=32;scalar=64";
    class       volSymmTensorField;
    location    "18000";
    object      turbulenceProperties:R;
}
// * * * * * * * * * * * * * * * * * * * * * * * * * * * * * * * * * * * * * //

dimensions      [0 2 -2 0 0 0 0];

internalField   nonuniform List<symmTensor> 
2560
(
(1.00137e-06 -3.97106e-10 -5.74863e-13 1.00137e-06 -8.81449e-25 1.00137e-06)
(1.00137e-06 -3.97106e-10 -5.74863e-13 1.00137e-06 -1.02761e-28 1.00137e-06)
(2.33364e-07 -5.31841e-10 -2.32104e-12 2.33364e-07 -2.51098e-25 2.33364e-07)
(2.33364e-07 -5.31841e-10 -2.32104e-12 2.33364e-07 -5.95886e-29 2.33364e-07)
(6.66456e-07 -4.47977e-09 -2.68901e-11 6.66456e-07 -1.17788e-24 6.66456e-07)
(6.66456e-07 -4.47977e-09 -2.68901e-11 6.66456e-07 6.88553e-29 6.66456e-07)
(2.31362e-06 -3.2965e-08 -2.00749e-10 2.31362e-06 -7.31115e-24 2.31362e-06)
(2.31362e-06 -3.2965e-08 -2.00749e-10 2.31362e-06 -6.94623e-27 2.31362e-06)
(6.01869e-06 -1.51155e-07 -9.33846e-10 6.01869e-06 -4.10231e-23 6.01869e-06)
(6.01869e-06 -1.51155e-07 -9.33846e-10 6.01869e-06 -3.69963e-26 6.01869e-06)
(1.28599e-05 -5.07551e-07 -3.18101e-09 1.28599e-05 -1.39018e-22 1.28599e-05)
(1.28599e-05 -5.07551e-07 -3.18101e-09 1.28599e-05 -1.38876e-25 1.28599e-05)
(2.40915e-05 -1.38239e-06 -8.78838e-09 2.40915e-05 -3.80346e-22 2.40915e-05)
(2.40915e-05 -1.38239e-06 -8.78838e-09 2.40915e-05 -4.04793e-25 2.40915e-05)
(4.11206e-05 -3.24171e-06 -2.0902e-08 4.11206e-05 -8.8513e-22 4.11206e-05)
(4.11206e-05 -3.24171e-06 -2.0902e-08 4.11206e-05 -9.37239e-25 4.11206e-05)
(6.54781e-05 -6.78898e-06 -4.43883e-08 6.54781e-05 -1.8164e-21 6.54781e-05)
(6.54781e-05 -6.78898e-06 -4.43883e-08 6.54781e-05 -1.69265e-24 6.54781e-05)
(9.87689e-05 -1.29999e-05 -8.61668e-08 9.87689e-05 -3.34548e-21 9.87689e-05)
(9.87689e-05 -1.29999e-05 -8.61668e-08 9.87689e-05 -3.39975e-24 9.87689e-05)
(0.000142594 -2.31205e-05 -1.55307e-07 0.000142594 -5.57119e-21 0.000142594)
(0.000142594 -2.31205e-05 -1.55307e-07 0.000142594 -5.656e-24 0.000142594)
(0.000198441 -3.86059e-05 -2.6271e-07 0.000198441 -8.38609e-21 0.000198441)
(0.000198441 -3.86059e-05 -2.6271e-07 0.000198441 -6.7583e-24 0.000198441)
(0.000267538 -6.0985e-05 -4.20245e-07 0.000267538 -1.13049e-20 0.000267538)
(0.000267538 -6.0985e-05 -4.20245e-07 0.000267538 -1.27578e-23 0.000267538)
(0.000350701 -9.16541e-05 -6.39332e-07 0.000350701 -1.33466e-20 0.000350701)
(0.000350701 -9.16541e-05 -6.39332e-07 0.000350701 -1.57733e-23 0.000350701)
(0.000448179 -0.000131634 -9.29191e-07 0.000448179 -1.30181e-20 0.000448179)
(0.000448179 -0.000131634 -9.29191e-07 0.000448179 -3.53006e-23 0.000448179)
(0.00055955 -0.000181349 -1.29518e-06 0.00055955 -7.34346e-21 0.00055955)
(0.00055955 -0.000181349 -1.29518e-06 0.00055955 -5.28508e-23 0.00055955)
(0.000683694 -0.000240494 -1.73771e-06 0.000683694 2.6629e-22 0.000683694)
(0.000683694 -0.000240494 -1.73771e-06 0.000683694 -9.92647e-24 0.000683694)
(0.000818855 -0.000308042 -2.25207e-06 0.000818855 1.88491e-20 0.000818855)
(0.000818855 -0.000308042 -2.25207e-06 0.000818855 -8.95883e-23 0.000818855)
(0.000962791 -0.000382384 -2.82922e-06 0.000962791 4.30047e-20 0.000962791)
(0.000962791 -0.000382384 -2.82922e-06 0.000962791 -1.30753e-22 0.000962791)
(0.00111298 -0.000461557 -3.4572e-06 0.00111298 7.32381e-20 0.00111298)
(0.00111298 -0.000461557 -3.4572e-06 0.00111298 -9.17577e-23 0.00111298)
(0.00126685 -0.000543509 -4.12287e-06 0.00126685 1.07954e-19 0.00126685)
(0.00126685 -0.000543509 -4.12287e-06 0.00126685 -1.95816e-22 0.00126685)
(0.00142194 -0.00062631 -4.81331e-06 0.00142194 1.45064e-19 0.00142194)
(0.00142194 -0.00062631 -4.81331e-06 0.00142194 -2.75777e-22 0.00142194)
(0.00157609 -0.000708309 -5.51696e-06 0.00157609 1.82242e-19 0.00157609)
(0.00157609 -0.000708309 -5.51696e-06 0.00157609 -1.40728e-22 0.00157609)
(0.00172747 -0.000788197 -6.22418e-06 0.00172747 2.17333e-19 0.00172747)
(0.00172747 -0.000788197 -6.22418e-06 0.00172747 1.25956e-22 0.00172747)
(0.00187464 -0.000865021 -6.92742e-06 0.00187464 2.49417e-19 0.00187464)
(0.00187464 -0.000865021 -6.92742e-06 0.00187464 1.06351e-22 0.00187464)
(0.00201655 -0.000938147 -7.62113e-06 0.00201655 2.77196e-19 0.00201655)
(0.00201655 -0.000938147 -7.62113e-06 0.00201655 -2.74627e-22 0.00201655)
(0.00215245 -0.00100721 -8.30154e-06 0.00215245 3.00167e-19 0.00215245)
(0.00215245 -0.00100721 -8.30154e-06 0.00215245 -4.47786e-22 0.00215245)
(0.00228191 -0.00107206 -8.96628e-06 0.00228191 3.18136e-19 0.00228191)
(0.00228191 -0.00107206 -8.96628e-06 0.00228191 9.25809e-23 0.00228191)
(0.00240469 -0.00113268 -9.61411e-06 0.00240469 3.31197e-19 0.00240469)
(0.00240469 -0.00113268 -9.61411e-06 0.00240469 3.38163e-22 0.00240469)
(0.00252077 -0.00118918 -1.02446e-05 0.00252077 3.58997e-19 0.00252077)
(0.00252077 -0.00118918 -1.02446e-05 0.00252077 5.9133e-22 0.00252077)
(0.00263022 -0.00124173 -1.0858e-05 0.00263022 5.92034e-19 0.00263022)
(0.00263022 -0.00124173 -1.0858e-05 0.00263022 1.33938e-21 0.00263022)
(0.00273324 -0.00129056 -1.14549e-05 0.00273324 8.34821e-19 0.00273324)
(0.00273324 -0.00129056 -1.14549e-05 0.00273324 7.169e-22 0.00273324)
(0.00283007 -0.00133588 -1.20361e-05 0.00283007 8.59243e-19 0.00283007)
(0.00283007 -0.00133588 -1.20361e-05 0.00283007 6.83633e-23 0.00283007)
(0.00292101 -0.00137796 -1.26028e-05 0.00292101 8.80316e-19 0.00292101)
(0.00292101 -0.00137796 -1.26028e-05 0.00292101 4.6975e-23 0.00292101)
(0.00300638 -0.00141702 -1.31559e-05 0.00300638 8.99314e-19 0.00300638)
(0.00300638 -0.00141702 -1.31559e-05 0.00300638 8.72839e-22 0.00300638)
(0.00308648 -0.00145331 -1.36967e-05 0.00308648 9.15655e-19 0.00308648)
(0.00308648 -0.00145331 -1.36967e-05 0.00308648 1.09479e-21 0.00308648)
(0.00316166 -0.00148704 -1.42262e-05 0.00316166 8.90052e-19 0.00316166)
(0.00316166 -0.00148704 -1.42262e-05 0.00316166 6.0114e-22 0.00316166)
(0.00323223 -0.00151843 -1.47458e-05 0.00323223 6.10582e-19 0.00323223)
(0.00323223 -0.00151843 -1.47458e-05 0.00323223 9.04264e-22 0.00323223)
(0.00329849 -0.00154765 -1.52562e-05 0.00329849 3.45546e-19 0.00329849)
(0.00329849 -0.00154765 -1.52562e-05 0.00329849 1.27029e-21 0.00329849)
(0.00336073 -0.0015749 -1.57587e-05 0.00336073 3.37363e-19 0.00336073)
(0.00336073 -0.0015749 -1.57587e-05 0.00336073 6.97749e-22 0.00336073)
(0.00341923 -0.00160033 -1.62542e-05 0.00341923 3.31364e-19 0.00341923)
(0.00341923 -0.00160033 -1.62542e-05 0.00341923 -6.37669e-22 0.00341923)
(0.00347426 -0.00162409 -1.67435e-05 0.00347426 3.20434e-19 0.00347426)
(0.00347426 -0.00162409 -1.67435e-05 0.00347426 1.01054e-21 0.00347426)
(0.00352604 -0.00164631 -1.72274e-05 0.00352604 3.08461e-19 0.00352604)
(0.00352604 -0.00164631 -1.72274e-05 0.00352604 2.15805e-21 0.00352604)
(0.00357481 -0.00166712 -1.77068e-05 0.00357481 2.98117e-19 0.00357481)
(0.00357481 -0.00166712 -1.77068e-05 0.00357481 2.61122e-21 0.00357481)
(0.00362077 -0.00168663 -1.81825e-05 0.00362077 2.8367e-19 0.00362077)
(0.00362077 -0.00168663 -1.81825e-05 0.00362077 1.49177e-21 0.00362077)
(0.00366412 -0.00170495 -1.86549e-05 0.00366412 2.74453e-19 0.00366412)
(0.00366412 -0.00170495 -1.86549e-05 0.00366412 -3.48739e-22 0.00366412)
(0.00370504 -0.00172215 -1.91248e-05 0.00370504 2.64542e-19 0.00370504)
(0.00370504 -0.00172215 -1.91248e-05 0.00370504 5.48018e-22 0.00370504)
(0.00374369 -0.00173833 -1.95928e-05 0.00374369 2.46402e-19 0.00374369)
(0.00374369 -0.00173833 -1.95928e-05 0.00374369 3.30876e-21 0.00374369)
(0.00378023 -0.00175357 -2.00593e-05 0.00378023 2.3318e-19 0.00378023)
(0.00378023 -0.00175357 -2.00593e-05 0.00378023 1.64816e-21 0.00378023)
(0.00381479 -0.00176792 -2.0525e-05 0.00381479 2.18194e-19 0.00381479)
(0.00381479 -0.00176792 -2.0525e-05 0.00381479 1.83951e-21 0.00381479)
(0.00384751 -0.00178147 -2.09902e-05 0.00384751 2.00992e-19 0.00384751)
(0.00384751 -0.00178147 -2.09902e-05 0.00384751 6.14042e-21 0.00384751)
(0.00387851 -0.00179426 -2.14553e-05 0.00387851 1.95212e-19 0.00387851)
(0.00387851 -0.00179426 -2.14553e-05 0.00387851 4.23146e-21 0.00387851)
(0.00390789 -0.00180635 -2.19209e-05 0.00390789 1.83802e-19 0.00390789)
(0.00390789 -0.00180635 -2.19209e-05 0.00390789 4.84319e-21 0.00390789)
(0.00393576 -0.00181778 -2.23872e-05 0.00393576 1.60068e-19 0.00393576)
(0.00393576 -0.00181778 -2.23872e-05 0.00393576 5.44927e-21 0.00393576)
(0.00396222 -0.0018286 -2.28547e-05 0.00396222 1.50431e-19 0.00396222)
(0.00396222 -0.0018286 -2.28547e-05 0.00396222 -1.0026e-20 0.00396222)
(0.00398734 -0.00183886 -2.33236e-05 0.00398734 1.50867e-19 0.00398734)
(0.00398734 -0.00183886 -2.33236e-05 0.00398734 -1.84685e-20 0.00398734)
(0.00401122 -0.00184858 -2.37943e-05 0.00401122 1.41571e-19 0.00401122)
(0.00401122 -0.00184858 -2.37943e-05 0.00401122 -1.29674e-20 0.00401122)
(0.00403393 -0.0018578 -2.4267e-05 0.00403393 1.15845e-19 0.00403393)
(0.00403393 -0.0018578 -2.4267e-05 0.00403393 -1.48667e-20 0.00403393)
(0.00405553 -0.00186656 -2.47422e-05 0.00405553 1.04755e-19 0.00405553)
(0.00405553 -0.00186656 -2.47422e-05 0.00405553 -2.01512e-20 0.00405553)
(0.00407609 -0.00187488 -2.52199e-05 0.00407609 1.0092e-19 0.00407609)
(0.00407609 -0.00187488 -2.52199e-05 0.00407609 -3.03229e-20 0.00407609)
(0.00409567 -0.00188278 -2.57005e-05 0.00409567 7.63715e-20 0.00409567)
(0.00409567 -0.00188278 -2.57005e-05 0.00409567 -3.86413e-20 0.00409567)
(0.00411433 -0.0018903 -2.61843e-05 0.00411433 6.30081e-20 0.00411433)
(0.00411433 -0.0018903 -2.61843e-05 0.00411433 -4.25776e-20 0.00411433)
(0.00413211 -0.00189746 -2.66714e-05 0.00413211 6.45445e-20 0.00413211)
(0.00413211 -0.00189746 -2.66714e-05 0.00413211 -5.27786e-20 0.00413211)
(0.00414906 -0.00190427 -2.7162e-05 0.00414906 5.28574e-20 0.00414906)
(0.00414906 -0.00190427 -2.7162e-05 0.00414906 -5.40963e-20 0.00414906)
(0.00416524 -0.00191076 -2.76565e-05 0.00416524 4.54156e-20 0.00416524)
(0.00416524 -0.00191076 -2.76565e-05 0.00416524 -5.26072e-20 0.00416524)
(0.00418067 -0.00191695 -2.81549e-05 0.00418067 4.43346e-20 0.00418067)
(0.00418067 -0.00191695 -2.81549e-05 0.00418067 -5.32263e-20 0.00418067)
(0.0041954 -0.00192284 -2.86575e-05 0.0041954 2.1599e-20 0.0041954)
(0.0041954 -0.00192284 -2.86575e-05 0.0041954 -6.31743e-20 0.0041954)
(0.00420947 -0.00192846 -2.91645e-05 0.00420947 1.17991e-20 0.00420947)
(0.00420947 -0.00192846 -2.91645e-05 0.00420947 -7.75502e-20 0.00420947)
(0.0042229 -0.00193382 -2.96761e-05 0.0042229 -4.35071e-21 0.0042229)
(0.0042229 -0.00193382 -2.96761e-05 0.0042229 -7.96966e-20 0.0042229)
(0.00423573 -0.00193894 -3.01924e-05 0.00423573 -2.93735e-20 0.00423573)
(0.00423573 -0.00193894 -3.01924e-05 0.00423573 -8.31024e-20 0.00423573)
(0.00424798 -0.00194382 -3.07136e-05 0.00424798 -3.26941e-20 0.00424798)
(0.00424798 -0.00194382 -3.07136e-05 0.00424798 -8.49257e-20 0.00424798)
(0.0042597 -0.00194848 -3.12398e-05 0.0042597 -4.37217e-20 0.0042597)
(0.0042597 -0.00194848 -3.12398e-05 0.0042597 -9.4124e-20 0.0042597)
(0.00427089 -0.00195292 -3.17713e-05 0.00427089 -6.56492e-20 0.00427089)
(0.00427089 -0.00195292 -3.17713e-05 0.00427089 -1.15674e-19 0.00427089)
(0.00428158 -0.00195717 -3.23082e-05 0.00428158 -7.55979e-20 0.00428158)
(0.00428158 -0.00195717 -3.23082e-05 0.00428158 -2.63243e-19 0.00428158)
(0.0042918 -0.00196123 -3.28507e-05 0.0042918 -9.52016e-20 0.0042918)
(0.0042918 -0.00196123 -3.28507e-05 0.0042918 -4.79929e-19 0.0042918)
(0.00430157 -0.0019651 -3.33988e-05 0.00430157 -1.07809e-19 0.00430157)
(0.00430157 -0.0019651 -3.33988e-05 0.00430157 -5.9166e-19 0.00430157)
(0.00431091 -0.00196879 -3.39528e-05 0.00431091 -9.85745e-20 0.00431091)
(0.00431091 -0.00196879 -3.39528e-05 0.00431091 -6.32576e-19 0.00431091)
(0.00431983 -0.00197232 -3.45128e-05 0.00431983 -1.24302e-19 0.00431983)
(0.00431983 -0.00197232 -3.45128e-05 0.00431983 -6.61472e-19 0.00431983)
(0.00432835 -0.00197569 -3.5079e-05 0.00432835 -1.60554e-19 0.00432835)
(0.00432835 -0.00197569 -3.5079e-05 0.00432835 -6.98948e-19 0.00432835)
(0.0043365 -0.00197891 -3.56514e-05 0.0043365 -1.83332e-19 0.0043365)
(0.0043365 -0.00197891 -3.56514e-05 0.0043365 -7.25633e-19 0.0043365)
(0.00434427 -0.00198198 -3.62303e-05 0.00434427 -2.01646e-19 0.00434427)
(0.00434427 -0.00198198 -3.62303e-05 0.00434427 -7.77243e-19 0.00434427)
(0.0043517 -0.00198491 -3.68157e-05 0.0043517 -2.04632e-19 0.0043517)
(0.0043517 -0.00198491 -3.68157e-05 0.0043517 -8.10962e-19 0.0043517)
(0.00435879 -0.0019877 -3.74079e-05 0.00435879 -2.01339e-19 0.00435879)
(0.00435879 -0.0019877 -3.74079e-05 0.00435879 -8.23841e-19 0.00435879)
(0.00436555 -0.00199037 -3.80069e-05 0.00436555 -2.31148e-19 0.00436555)
(0.00436555 -0.00199037 -3.80069e-05 0.00436555 -8.44553e-19 0.00436555)
(0.004372 -0.0019929 -3.86128e-05 0.004372 -2.88458e-19 0.004372)
(0.004372 -0.0019929 -3.86128e-05 0.004372 -8.58721e-19 0.004372)
(0.00437815 -0.00199532 -3.92259e-05 0.00437815 -3.03718e-19 0.00437815)
(0.00437815 -0.00199532 -3.92259e-05 0.00437815 -8.96453e-19 0.00437815)
(0.00438401 -0.00199762 -3.98462e-05 0.00438401 -3.07175e-19 0.00438401)
(0.00438401 -0.00199762 -3.98462e-05 0.00438401 -9.40551e-19 0.00438401)
(0.00438959 -0.00199981 -4.04739e-05 0.00438959 -3.12174e-19 0.00438959)
(0.00438959 -0.00199981 -4.04739e-05 0.00438959 -9.59503e-19 0.00438959)
(0.0043949 -0.00200189 -4.11091e-05 0.0043949 -3.26372e-19 0.0043949)
(0.0043949 -0.00200189 -4.11091e-05 0.0043949 -9.79861e-19 0.0043949)
(0.00439994 -0.00200387 -4.1752e-05 0.00439994 -3.9187e-19 0.00439994)
(0.00439994 -0.00200387 -4.1752e-05 0.00439994 -1.02491e-18 0.00439994)
(0.00440473 -0.00200574 -4.24026e-05 0.00440473 -4.36212e-19 0.00440473)
(0.00440473 -0.00200574 -4.24026e-05 0.00440473 -1.06021e-18 0.00440473)
(0.00440928 -0.00200752 -4.30611e-05 0.00440928 -4.16791e-19 0.00440928)
(0.00440928 -0.00200752 -4.30611e-05 0.00440928 -1.05661e-18 0.00440928)
(0.00441358 -0.0020092 -4.37276e-05 0.00441358 -3.92201e-19 0.00441358)
(0.00441358 -0.0020092 -4.37276e-05 0.00441358 -1.09361e-18 0.00441358)
(0.00441766 -0.00201079 -4.44023e-05 0.00441766 -4.49401e-19 0.00441766)
(0.00441766 -0.00201079 -4.44023e-05 0.00441766 -1.20176e-18 0.00441766)
(0.00442151 -0.0020123 -4.50852e-05 0.00442151 -5.09887e-19 0.00442151)
(0.00442151 -0.0020123 -4.50852e-05 0.00442151 -1.2296e-18 0.00442151)
(0.00442515 -0.00201371 -4.57766e-05 0.00442515 -4.94928e-19 0.00442515)
(0.00442515 -0.00201371 -4.57766e-05 0.00442515 -1.1628e-18 0.00442515)
(0.00442857 -0.00201504 -4.64765e-05 0.00442857 -5.12671e-19 0.00442857)
(0.00442857 -0.00201504 -4.64765e-05 0.00442857 -1.16453e-18 0.00442857)
(0.00443179 -0.00201629 -4.71851e-05 0.00443179 -4.93719e-19 0.00443179)
(0.00443179 -0.00201629 -4.71851e-05 0.00443179 -1.29531e-18 0.00443179)
(0.00443481 -0.00201745 -4.79025e-05 0.00443481 -4.85696e-19 0.00443481)
(0.00443481 -0.00201745 -4.79025e-05 0.00443481 -1.41869e-18 0.00443481)
(0.00443763 -0.00201854 -4.86288e-05 0.00443763 -5.65615e-19 0.00443763)
(0.00443763 -0.00201854 -4.86288e-05 0.00443763 -1.43658e-18 0.00443763)
(0.00444026 -0.00201956 -4.93641e-05 0.00444026 -6.07983e-19 0.00444026)
(0.00444026 -0.00201956 -4.93641e-05 0.00444026 -1.4335e-18 0.00444026)
(0.0044427 -0.0020205 -5.01087e-05 0.0044427 -5.91163e-19 0.0044427)
(0.0044427 -0.0020205 -5.01087e-05 0.0044427 -1.48823e-18 0.0044427)
(0.00444497 -0.00202136 -5.08625e-05 0.00444497 -5.65841e-19 0.00444497)
(0.00444497 -0.00202136 -5.08625e-05 0.00444497 -1.50206e-18 0.00444497)
(0.00444705 -0.00202216 -5.16258e-05 0.00444705 -6.01106e-19 0.00444705)
(0.00444705 -0.00202216 -5.16258e-05 0.00444705 -1.50298e-18 0.00444705)
(0.00444897 -0.00202288 -5.23986e-05 0.00444897 -6.60327e-19 0.00444897)
(0.00444897 -0.00202288 -5.23986e-05 0.00444897 -1.58738e-18 0.00444897)
(0.00445071 -0.00202354 -5.31811e-05 0.00445071 -6.90459e-19 0.00445071)
(0.00445071 -0.00202354 -5.31811e-05 0.00445071 -1.67483e-18 0.00445071)
(0.00445228 -0.00202413 -5.39734e-05 0.00445228 -6.52555e-19 0.00445228)
(0.00445228 -0.00202413 -5.39734e-05 0.00445228 -1.70316e-18 0.00445228)
(0.0044537 -0.00202466 -5.47757e-05 0.0044537 -6.81329e-19 0.0044537)
(0.0044537 -0.00202466 -5.47757e-05 0.0044537 -1.77854e-18 0.0044537)
(0.00445495 -0.00202512 -5.55881e-05 0.00445495 -7.2498e-19 0.00445495)
(0.00445495 -0.00202512 -5.55881e-05 0.00445495 -1.8314e-18 0.00445495)
(0.00445604 -0.00202551 -5.64107e-05 0.00445604 -7.54661e-19 0.00445604)
(0.00445604 -0.00202551 -5.64107e-05 0.00445604 -1.82655e-18 0.00445604)
(0.00445699 -0.00202585 -5.72436e-05 0.00445699 -7.70416e-19 0.00445699)
(0.00445699 -0.00202585 -5.72436e-05 0.00445699 -1.85619e-18 0.00445699)
(0.00445778 -0.00202612 -5.8087e-05 0.00445778 -7.70189e-19 0.00445778)
(0.00445778 -0.00202612 -5.8087e-05 0.00445778 -1.99518e-18 0.00445778)
(0.00445842 -0.00202634 -5.89409e-05 0.00445842 -8.03665e-19 0.00445842)
(0.00445842 -0.00202634 -5.89409e-05 0.00445842 -2.07551e-18 0.00445842)
(0.00445891 -0.00202649 -5.98056e-05 0.00445891 -8.31461e-19 0.00445891)
(0.00445891 -0.00202649 -5.98056e-05 0.00445891 -2.04289e-18 0.00445891)
(0.00445926 -0.00202658 -6.06812e-05 0.00445926 -8.12912e-19 0.00445926)
(0.00445926 -0.00202658 -6.06812e-05 0.00445926 -2.08561e-18 0.00445926)
(0.00445946 -0.00202662 -6.15677e-05 0.00445946 -8.34167e-19 0.00445946)
(0.00445946 -0.00202662 -6.15677e-05 0.00445946 -2.1539e-18 0.00445946)
(0.00445953 -0.0020266 -6.24653e-05 0.00445953 -9.30729e-19 0.00445953)
(0.00445953 -0.0020266 -6.24653e-05 0.00445953 -2.17548e-18 0.00445953)
(0.00445945 -0.00202652 -6.33742e-05 0.00445945 -9.08386e-19 0.00445945)
(0.00445945 -0.00202652 -6.33742e-05 0.00445945 -2.15719e-18 0.00445945)
(0.00445924 -0.00202639 -6.42945e-05 0.00445924 -8.2315e-19 0.00445924)
(0.00445924 -0.00202639 -6.42945e-05 0.00445924 -2.11266e-18 0.00445924)
(0.00445889 -0.0020262 -6.52263e-05 0.00445889 -8.95269e-19 0.00445889)
(0.00445889 -0.0020262 -6.52263e-05 0.00445889 -2.24215e-18 0.00445889)
(0.00445841 -0.00202596 -6.61697e-05 0.00445841 -9.36978e-19 0.00445841)
(0.00445841 -0.00202596 -6.61697e-05 0.00445841 -2.43599e-18 0.00445841)
(0.00445779 -0.00202566 -6.71249e-05 0.00445779 -8.04056e-19 0.00445779)
(0.00445779 -0.00202566 -6.71249e-05 0.00445779 -2.48374e-18 0.00445779)
(0.00445705 -0.0020253 -6.8092e-05 0.00445705 -9.90398e-19 0.00445705)
(0.00445705 -0.0020253 -6.8092e-05 0.00445705 -2.52718e-18 0.00445705)
(0.00445617 -0.0020249 -6.90711e-05 0.00445617 -1.13032e-18 0.00445617)
(0.00445617 -0.0020249 -6.90711e-05 0.00445617 -2.6031e-18 0.00445617)
(0.00445516 -0.00202444 -7.00624e-05 0.00445516 -1.13299e-18 0.00445516)
(0.00445516 -0.00202444 -7.00624e-05 0.00445516 -2.65178e-18 0.00445516)
(0.00445403 -0.00202392 -7.10659e-05 0.00445403 -9.83916e-19 0.00445403)
(0.00445403 -0.00202392 -7.10659e-05 0.00445403 -2.65909e-18 0.00445403)
(0.00445277 -0.00202336 -7.20819e-05 0.00445277 -9.43336e-19 0.00445277)
(0.00445277 -0.00202336 -7.20819e-05 0.00445277 -2.82788e-18 0.00445277)
(0.00445138 -0.00202274 -7.31105e-05 0.00445138 -1.25539e-18 0.00445138)
(0.00445138 -0.00202274 -7.31105e-05 0.00445138 -3.04788e-18 0.00445138)
(0.00444986 -0.00202207 -7.41517e-05 0.00444986 -1.24528e-18 0.00444986)
(0.00444986 -0.00202207 -7.41517e-05 0.00444986 -3.09688e-18 0.00444986)
(0.00444822 -0.00202134 -7.52058e-05 0.00444822 -1.10349e-18 0.00444822)
(0.00444822 -0.00202134 -7.52058e-05 0.00444822 -3.02615e-18 0.00444822)
(0.00444646 -0.00202057 -7.62728e-05 0.00444646 -1.13896e-18 0.00444646)
(0.00444646 -0.00202057 -7.62728e-05 0.00444646 -2.97382e-18 0.00444646)
(0.00444457 -0.00201974 -7.73528e-05 0.00444457 -1.17852e-18 0.00444457)
(0.00444457 -0.00201974 -7.73528e-05 0.00444457 -3.06417e-18 0.00444457)
(0.00444256 -0.00201886 -7.84461e-05 0.00444256 -1.31158e-18 0.00444256)
(0.00444256 -0.00201886 -7.84461e-05 0.00444256 -3.31153e-18 0.00444256)
(0.00444043 -0.00201792 -7.95527e-05 0.00444043 -1.35417e-18 0.00444043)
(0.00444043 -0.00201792 -7.95527e-05 0.00444043 -3.39018e-18 0.00444043)
(0.00443817 -0.00201694 -8.06728e-05 0.00443817 -1.2119e-18 0.00443817)
(0.00443817 -0.00201694 -8.06728e-05 0.00443817 -3.43115e-18 0.00443817)
(0.00443579 -0.0020159 -8.18065e-05 0.00443579 -1.37103e-18 0.00443579)
(0.00443579 -0.0020159 -8.18065e-05 0.00443579 -3.61237e-18 0.00443579)
(0.00443329 -0.00201482 -8.29539e-05 0.00443329 -1.28425e-18 0.00443329)
(0.00443329 -0.00201482 -8.29539e-05 0.00443329 -3.58699e-18 0.00443329)
(0.00443067 -0.00201368 -8.41151e-05 0.00443067 -1.24949e-18 0.00443067)
(0.00443067 -0.00201368 -8.41151e-05 0.00443067 -3.37495e-18 0.00443067)
(0.00442793 -0.00201249 -8.52903e-05 0.00442793 -1.58233e-18 0.00442793)
(0.00442793 -0.00201249 -8.52903e-05 0.00442793 -3.48506e-18 0.00442793)
(0.00442507 -0.00201124 -8.64797e-05 0.00442507 -1.35113e-18 0.00442507)
(0.00442507 -0.00201124 -8.64797e-05 0.00442507 -3.86456e-18 0.00442507)
(0.00442208 -0.00200995 -8.76832e-05 0.00442208 -1.1324e-18 0.00442208)
(0.00442208 -0.00200995 -8.76832e-05 0.00442208 -3.79892e-18 0.00442208)
(0.00441898 -0.0020086 -8.89011e-05 0.00441898 -1.41001e-18 0.00441898)
(0.00441898 -0.0020086 -8.89011e-05 0.00441898 -3.62546e-18 0.00441898)
(0.00441575 -0.0020072 -9.01334e-05 0.00441575 -1.40789e-18 0.00441575)
(0.00441575 -0.0020072 -9.01334e-05 0.00441575 -3.88439e-18 0.00441575)
(0.0044124 -0.00200575 -9.13804e-05 0.0044124 -1.3139e-18 0.0044124)
(0.0044124 -0.00200575 -9.13804e-05 0.0044124 -3.93224e-18 0.0044124)
(0.00440893 -0.00200424 -9.2642e-05 0.00440893 -1.38299e-18 0.00440893)
(0.00440893 -0.00200424 -9.2642e-05 0.00440893 -3.73612e-18 0.00440893)
(0.00440534 -0.00200268 -9.39185e-05 0.00440534 -1.38296e-18 0.00440534)
(0.00440534 -0.00200268 -9.39185e-05 0.00440534 -3.7313e-18 0.00440534)
(0.00440163 -0.00200107 -9.521e-05 0.00440163 -1.39338e-18 0.00440163)
(0.00440163 -0.00200107 -9.521e-05 0.00440163 -3.92644e-18 0.00440163)
(0.00439779 -0.0019994 -9.65165e-05 0.00439779 -1.53351e-18 0.00439779)
(0.00439779 -0.0019994 -9.65165e-05 0.00439779 -4.18893e-18 0.00439779)
(0.00439384 -0.00199769 -9.78382e-05 0.00439384 -1.50115e-18 0.00439384)
(0.00439384 -0.00199769 -9.78382e-05 0.00439384 -4.0422e-18 0.00439384)
(0.00438976 -0.00199591 -9.91751e-05 0.00438976 -1.32783e-18 0.00438976)
(0.00438976 -0.00199591 -9.91751e-05 0.00438976 -3.95738e-18 0.00438976)
(0.00438556 -0.00199409 -0.000100528 0.00438556 -1.38939e-18 0.00438556)
(0.00438556 -0.00199409 -0.000100528 0.00438556 -3.95501e-18 0.00438556)
(0.00438123 -0.0019922 -0.000101895 0.00438123 -1.47537e-18 0.00438123)
(0.00438123 -0.0019922 -0.000101895 0.00438123 -3.71633e-18 0.00438123)
(0.00437678 -0.00199027 -0.000103279 0.00437678 -1.76402e-18 0.00437678)
(0.00437678 -0.00199027 -0.000103279 0.00437678 -3.852e-18 0.00437678)
(0.00437221 -0.00198828 -0.000104678 0.00437221 -1.68444e-18 0.00437221)
(0.00437221 -0.00198828 -0.000104678 0.00437221 -4.15371e-18 0.00437221)
(0.00436751 -0.00198623 -0.000106093 0.00436751 -1.29221e-18 0.00436751)
(0.00436751 -0.00198623 -0.000106093 0.00436751 -4.52875e-18 0.00436751)
(0.00436269 -0.00198413 -0.000107524 0.00436269 -1.30285e-18 0.00436269)
(0.00436269 -0.00198413 -0.000107524 0.00436269 -4.46765e-18 0.00436269)
(0.00435774 -0.00198197 -0.000108971 0.00435774 -1.40875e-18 0.00435774)
(0.00435774 -0.00198197 -0.000108971 0.00435774 -3.85552e-18 0.00435774)
(0.00435266 -0.00197975 -0.000110434 0.00435266 -1.78214e-18 0.00435266)
(0.00435266 -0.00197975 -0.000110434 0.00435266 -3.68791e-18 0.00435266)
(0.00434746 -0.00197747 -0.000111914 0.00434746 -2.19321e-18 0.00434746)
(0.00434746 -0.00197747 -0.000111914 0.00434746 -4.3763e-18 0.00434746)
(0.00434213 -0.00197514 -0.000113409 0.00434213 -1.8831e-18 0.00434213)
(0.00434213 -0.00197514 -0.000113409 0.00434213 -4.66541e-18 0.00434213)
(0.00433667 -0.00197275 -0.000114922 0.00433667 -1.31392e-18 0.00433667)
(0.00433667 -0.00197275 -0.000114922 0.00433667 -4.4163e-18 0.00433667)
(0.00433108 -0.0019703 -0.00011645 0.00433108 -1.67618e-18 0.00433108)
(0.00433108 -0.0019703 -0.00011645 0.00433108 -4.48401e-18 0.00433108)
(0.00432537 -0.0019678 -0.000117995 0.00432537 -2.54853e-18 0.00432537)
(0.00432537 -0.0019678 -0.000117995 0.00432537 -4.8e-18 0.00432537)
(0.00431952 -0.00196523 -0.000119557 0.00431952 -2.46796e-18 0.00431952)
(0.00431952 -0.00196523 -0.000119557 0.00431952 -5.15673e-18 0.00431952)
(0.00431354 -0.0019626 -0.000121135 0.00431354 -2.2956e-18 0.00431354)
(0.00431354 -0.0019626 -0.000121135 0.00431354 -5.05369e-18 0.00431354)
(0.00430743 -0.00195991 -0.00012273 0.00430743 -2.3693e-18 0.00430743)
(0.00430743 -0.00195991 -0.00012273 0.00430743 -5.06384e-18 0.00430743)
(0.00430118 -0.00195716 -0.000124342 0.00430118 -2.16961e-18 0.00430118)
(0.00430118 -0.00195716 -0.000124342 0.00430118 -5.01661e-18 0.00430118)
(0.0042948 -0.00195435 -0.000125971 0.0042948 -2.46513e-18 0.0042948)
(0.0042948 -0.00195435 -0.000125971 0.0042948 -5.18182e-18 0.0042948)
(0.00428829 -0.00195148 -0.000127617 0.00428829 -2.28706e-18 0.00428829)
(0.00428829 -0.00195148 -0.000127617 0.00428829 -5.58654e-18 0.00428829)
(0.00428164 -0.00194854 -0.00012928 0.00428164 -1.54275e-18 0.00428164)
(0.00428164 -0.00194854 -0.00012928 0.00428164 -5.0311e-18 0.00428164)
(0.00427485 -0.00194554 -0.00013096 0.00427485 -2.19184e-18 0.00427485)
(0.00427485 -0.00194554 -0.00013096 0.00427485 -5.07442e-18 0.00427485)
(0.00426792 -0.00194248 -0.000132657 0.00426792 -2.93427e-18 0.00426792)
(0.00426792 -0.00194248 -0.000132657 0.00426792 -6.18023e-18 0.00426792)
(0.00426086 -0.00193935 -0.000134371 0.00426086 -2.42012e-18 0.00426086)
(0.00426086 -0.00193935 -0.000134371 0.00426086 -6.27824e-18 0.00426086)
(0.00425365 -0.00193615 -0.000136102 0.00425365 -2.0175e-18 0.00425365)
(0.00425365 -0.00193615 -0.000136102 0.00425365 -5.64257e-18 0.00425365)
(0.00424631 -0.00193289 -0.00013785 0.00424631 -2.4183e-18 0.00424631)
(0.00424631 -0.00193289 -0.00013785 0.00424631 -6.03799e-18 0.00424631)
(0.00423882 -0.00192956 -0.000139616 0.00423882 -2.53631e-18 0.00423882)
(0.00423882 -0.00192956 -0.000139616 0.00423882 -6.26993e-18 0.00423882)
(0.00423119 -0.00192616 -0.000141398 0.00423119 -2.36375e-18 0.00423119)
(0.00423119 -0.00192616 -0.000141398 0.00423119 -5.49953e-18 0.00423119)
(0.00422341 -0.0019227 -0.000143198 0.00422341 -3.04498e-18 0.00422341)
(0.00422341 -0.0019227 -0.000143198 0.00422341 -4.87748e-18 0.00422341)
(0.00421548 -0.00191916 -0.000145015 0.00421548 -2.598e-18 0.00421548)
(0.00421548 -0.00191916 -0.000145015 0.00421548 -4.74828e-18 0.00421548)
(0.00420741 -0.00191556 -0.000146849 0.00420741 -2.47998e-18 0.00420741)
(0.00420741 -0.00191556 -0.000146849 0.00420741 -5.32138e-18 0.00420741)
(0.00419919 -0.00191188 -0.0001487 0.00419919 -2.86772e-18 0.00419919)
(0.00419919 -0.00191188 -0.0001487 0.00419919 -5.64676e-18 0.00419919)
(0.00419082 -0.00190814 -0.000150568 0.00419082 -2.97739e-18 0.00419082)
(0.00419082 -0.00190814 -0.000150568 0.00419082 -5.09973e-18 0.00419082)
(0.0041823 -0.00190432 -0.000152454 0.0041823 -2.72252e-18 0.0041823)
(0.0041823 -0.00190432 -0.000152454 0.0041823 -4.03812e-18 0.0041823)
(0.00417363 -0.00190043 -0.000154356 0.00417363 -2.28788e-18 0.00417363)
(0.00417363 -0.00190043 -0.000154356 0.00417363 -1.28595e-18 0.00417363)
(0.0041648 -0.00189646 -0.000156275 0.0041648 -2.86093e-18 0.0041648)
(0.0041648 -0.00189646 -0.000156275 0.0041648 1.48988e-18 0.0041648)
(0.00415582 -0.00189242 -0.000158211 0.00415582 -3.46569e-18 0.00415582)
(0.00415582 -0.00189242 -0.000158211 0.00415582 3.50966e-18 0.00415582)
(0.00414668 -0.0018883 -0.000160164 0.00414668 -3.33794e-18 0.00414668)
(0.00414668 -0.0018883 -0.000160164 0.00414668 3.90963e-18 0.00414668)
(0.00413738 -0.00188411 -0.000162134 0.00413738 -3.27859e-18 0.00413738)
(0.00413738 -0.00188411 -0.000162134 0.00413738 4.51568e-18 0.00413738)
(0.00412792 -0.00187984 -0.00016412 0.00412792 -3.54533e-18 0.00412792)
(0.00412792 -0.00187984 -0.00016412 0.00412792 4.43024e-18 0.00412792)
(0.00411831 -0.00187549 -0.000166123 0.00411831 -3.2315e-18 0.00411831)
(0.00411831 -0.00187549 -0.000166123 0.00411831 3.93657e-18 0.00411831)
(0.00410852 -0.00187106 -0.000168141 0.00410852 -2.99967e-18 0.00410852)
(0.00410852 -0.00187106 -0.000168141 0.00410852 4.58532e-18 0.00410852)
(0.00409858 -0.00186655 -0.000170177 0.00409858 -3.04029e-18 0.00409858)
(0.00409858 -0.00186655 -0.000170177 0.00409858 5.42835e-18 0.00409858)
(0.00408846 -0.00186196 -0.000172228 0.00408846 -3.42573e-18 0.00408846)
(0.00408846 -0.00186196 -0.000172228 0.00408846 6.54705e-18 0.00408846)
(0.00407818 -0.00185729 -0.000174295 0.00407818 -3.02918e-18 0.00407818)
(0.00407818 -0.00185729 -0.000174295 0.00407818 6.15047e-18 0.00407818)
(0.00406774 -0.00185254 -0.000176378 0.00406774 -3.68513e-18 0.00406774)
(0.00406774 -0.00185254 -0.000176378 0.00406774 5.99495e-18 0.00406774)
(0.00405712 -0.0018477 -0.000178476 0.00405712 -4.08644e-18 0.00405712)
(0.00405712 -0.0018477 -0.000178476 0.00405712 7.89194e-18 0.00405712)
(0.00404632 -0.00184277 -0.00018059 0.00404632 -2.47469e-18 0.00404632)
(0.00404632 -0.00184277 -0.00018059 0.00404632 7.38625e-18 0.00404632)
(0.00403536 -0.00183776 -0.000182718 0.00403536 -2.86303e-19 0.00403536)
(0.00403536 -0.00183776 -0.000182718 0.00403536 6.56087e-18 0.00403536)
(0.00402421 -0.00183267 -0.000184862 0.00402421 1.38217e-18 0.00402421)
(0.00402421 -0.00183267 -0.000184862 0.00402421 7.08172e-18 0.00402421)
(0.00401289 -0.00182748 -0.00018702 0.00401289 9.16884e-19 0.00401289)
(0.00401289 -0.00182748 -0.00018702 0.00401289 9.22608e-18 0.00401289)