/*--------------------------------*- C++ -*----------------------------------*\
| =========                 |                                                 |
| \\      /  F ield         | OpenFOAM: The Open Source CFD Toolbox           |
|  \\    /   O peration     | Version:  2012                                  |
|   \\  /    A nd           | Website:  www.openfoam.com                      |
|    \\/     M anipulation  |                                                 |
\*---------------------------------------------------------------------------*/
FoamFile
{
    version     2.0;
    format      ascii;
    class       volScalarField;
    location    "15000";
    object      p;
}
// * * * * * * * * * * * * * * * * * * * * * * * * * * * * * * * * * * * * * //

dimensions      [0 2 -2 0 0 0 0];


internalField   nonuniform List<scalar> 
2560
(
2.52512e-15
3.15131e-14
5.27086e-15
3.15134e-14
5.78516e-15
3.15139e-14
5.73527e-15
3.15146e-14
5.76826e-15
3.15155e-14
5.87507e-15
3.15166e-14
5.98526e-15
3.1518e-14
6.08872e-15
3.15196e-14
6.18968e-15
3.15215e-14
6.28966e-15
3.15235e-14
6.38831e-15
3.15258e-14
6.48531e-15
3.15283e-14
6.58058e-15
3.15309e-14
6.67409e-15
3.15338e-14
6.76581e-15
3.15368e-14
6.85579e-15
3.154e-14
6.94402e-15
3.15434e-14
7.03061e-15
3.15468e-14
7.11554e-15
3.15504e-14
7.19901e-15
3.15541e-14
7.28091e-15
3.15579e-14
7.36127e-15
3.15617e-14
7.44011e-15
3.15656e-14
7.51768e-15
3.15696e-14
7.59381e-15
3.15736e-14
7.66854e-15
3.15776e-14
7.7419e-15
3.15817e-14
7.81416e-15
3.15858e-14
7.88525e-15
3.15901e-14
7.95514e-15
3.15943e-14
8.02393e-15
3.15984e-14
8.09175e-15
3.16023e-14
8.15865e-15
3.16061e-14
8.22475e-15
3.16098e-14
8.28998e-15
3.16135e-14
8.35429e-15
3.16172e-14
8.4179e-15
3.16207e-14
8.48094e-15
3.1624e-14
8.54347e-15
3.16273e-14
8.60544e-15
3.16304e-14
8.66686e-15
3.16335e-14
8.7279e-15
3.16365e-14
8.78865e-15
3.16394e-14
8.849e-15
3.16424e-14
8.90924e-15
3.16451e-14
8.96957e-15
3.16477e-14
9.02978e-15
3.16504e-14
9.09033e-15
3.16531e-14
9.15091e-15
3.16557e-14
9.21154e-15
3.16582e-14
9.27269e-15
3.16607e-14
9.33393e-15
3.16632e-14
9.39538e-15
3.16655e-14
9.45741e-15
3.16678e-14
9.52016e-15
3.16701e-14
9.58352e-15
3.16723e-14
9.64788e-15
3.16744e-14
9.71337e-15
3.16764e-14
9.77964e-15
3.1678e-14
9.84658e-15
3.16797e-14
9.91445e-15
3.16816e-14
9.98376e-15
3.16831e-14
1.0054e-14
3.16843e-14
1.01255e-14
3.16853e-14
1.01979e-14
3.16866e-14
1.02713e-14
3.16872e-14
1.03461e-14
3.16875e-14
1.04225e-14
3.16873e-14
1.05006e-14
3.16868e-14
1.05802e-14
3.16863e-14
1.06606e-14
3.16855e-14
1.07423e-14
3.16843e-14
1.08259e-14
3.16826e-14
1.09114e-14
3.16804e-14
1.09984e-14
3.16783e-14
1.10873e-14
3.16758e-14
1.1177e-14
3.16728e-14
1.12692e-14
3.16691e-14
1.13636e-14
3.1665e-14
1.14597e-14
3.16609e-14
1.15566e-14
3.16571e-14
1.16554e-14
3.1652e-14
1.17571e-14
3.16451e-14
1.18596e-14
3.16391e-14
1.19634e-14
3.16345e-14
1.20694e-14
3.16299e-14
1.21769e-14
3.16243e-14
1.22859e-14
3.16174e-14
1.2397e-14
3.16109e-14
1.25094e-14
3.16055e-14
1.26231e-14
3.15993e-14
1.27384e-14
3.15923e-14
1.28552e-14
3.15851e-14
1.29742e-14
3.15768e-14
1.30954e-14
3.15666e-14
1.3218e-14
3.15546e-14
1.33434e-14
3.1544e-14
1.34692e-14
3.15351e-14
1.35943e-14
3.15244e-14
1.3723e-14
3.15094e-14
1.38535e-14
3.14935e-14
1.39856e-14
3.14769e-14
1.41167e-14
3.14586e-14
1.42502e-14
3.14422e-14
1.43887e-14
3.14243e-14
1.45268e-14
3.14049e-14
1.46651e-14
3.13867e-14
1.48065e-14
3.13662e-14
1.49489e-14
3.13434e-14
1.50922e-14
3.13229e-14
1.52344e-14
3.13031e-14
1.53774e-14
3.12831e-14
1.55189e-14
3.12618e-14
1.56639e-14
3.12385e-14
1.58122e-14
3.1215e-14
1.59627e-14
3.11906e-14
1.61123e-14
3.11682e-14
1.62609e-14
3.1147e-14
1.64083e-14
3.1127e-14
1.65606e-14
3.11083e-14
1.67135e-14
3.1088e-14
1.68627e-14
3.10702e-14
1.70123e-14
3.1054e-14
1.71631e-14
3.10416e-14
1.73139e-14
3.10269e-14
1.74636e-14
3.10172e-14
1.76109e-14
3.10097e-14
1.77599e-14
3.10021e-14
1.79126e-14
3.09925e-14
1.80625e-14
3.09831e-14
1.82159e-14
3.09783e-14
1.83704e-14
3.09807e-14
1.85304e-14
3.09814e-14
1.86913e-14
3.0976e-14
1.88484e-14
3.09804e-14
1.90083e-14
3.0988e-14
1.91709e-14
3.0992e-14
1.93291e-14
3.09995e-14
1.94966e-14
3.10151e-14
1.96617e-14
3.10322e-14
1.98196e-14
3.10462e-14
1.99769e-14
3.10713e-14
2.01359e-14
3.11006e-14
2.02916e-14
3.11297e-14
2.04439e-14
3.11658e-14
2.05947e-14
3.12068e-14
2.07488e-14
3.12481e-14
2.09058e-14
3.12851e-14
2.10607e-14
3.13205e-14
2.12157e-14
3.13592e-14
2.13707e-14
3.14014e-14
2.15301e-14
3.14474e-14
2.16864e-14
3.14974e-14
2.18444e-14
3.15468e-14
2.19889e-14
3.15935e-14
2.2132e-14
3.1635e-14
2.22758e-14
3.16743e-14
2.24225e-14
3.17313e-14
2.25694e-14
3.17915e-14
2.27112e-14
3.18403e-14
2.28474e-14
3.18829e-14
2.29754e-14
3.19321e-14
2.31097e-14
3.19807e-14
2.32474e-14
3.20266e-14
2.33783e-14
3.20701e-14
2.3517e-14
3.21114e-14
2.36582e-14
3.21509e-14
2.37964e-14
3.21889e-14
2.39365e-14
3.22256e-14
2.4073e-14
3.22614e-14
2.42004e-14
3.23068e-14
2.43439e-14
3.23519e-14
2.44878e-14
3.23765e-14
2.46215e-14
3.24066e-14
2.476e-14
3.24372e-14
2.4898e-14
3.24584e-14
2.50298e-14
3.24911e-14
2.51603e-14
3.25252e-14
2.52786e-14
3.25767e-14
2.53894e-14
3.26461e-14
2.55077e-14
3.27026e-14
2.56225e-14
3.27521e-14
2.57385e-14
3.28e-14
2.5855e-14
3.28522e-14
2.59768e-14
3.28986e-14
2.6098e-14
3.29293e-14
2.62287e-14
3.29498e-14
2.63526e-14
3.29707e-14
2.64798e-14
3.29925e-14
2.66045e-14
3.30207e-14
2.67262e-14
3.3045e-14
2.68445e-14
3.30554e-14
2.69695e-14
3.30625e-14
2.70953e-14
3.30823e-14
2.72217e-14
3.31097e-14
2.73482e-14
3.31031e-14
2.74691e-14
3.31044e-14
2.75892e-14
3.31348e-14
2.77187e-14
3.31578e-14
2.78413e-14
3.3158e-14
2.79672e-14
3.31774e-14
2.808e-14
3.31952e-14
2.81952e-14
3.31959e-14
2.83123e-14
3.32058e-14
2.84204e-14
3.32249e-14
2.85294e-14
3.3243e-14
2.86389e-14
3.32707e-14
2.87588e-14
3.3277e-14
2.88677e-14
3.32721e-14
2.89863e-14
3.32667e-14
2.91037e-14
3.32814e-14
2.92197e-14
3.32848e-14
2.9334e-14
3.32665e-14
2.94465e-14
3.32574e-14
2.95777e-14
3.32676e-14
2.96858e-14
3.33074e-14
2.98118e-14
3.33145e-14
2.99349e-14
3.33094e-14
3.00448e-14
3.33125e-14
3.0162e-14
3.3344e-14
3.02859e-14
3.33523e-14
3.04063e-14
3.33472e-14
3.05233e-14
3.33694e-14
3.06472e-14
3.34083e-14
3.07674e-14
3.34227e-14
3.0884e-14
3.3412e-14
3.09973e-14
3.34265e-14
3.11075e-14
3.34552e-14
3.12145e-14
3.3498e-14
3.13281e-14
3.35137e-14
3.14383e-14
3.35117e-14
3.15352e-14
3.35315e-14
3.16592e-14
3.35927e-14
3.17795e-14
3.36242e-14
3.18864e-14
3.36254e-14
3.19904e-14
3.36655e-14
3.21114e-14
3.37039e-14
3.22098e-14
3.37199e-14
3.23158e-14
3.37126e-14
3.24204e-14
3.37296e-14
3.25241e-14
3.37596e-14
3.26273e-14
3.37618e-14
3.27309e-14
3.3764e-14
3.2826e-14
3.38033e-14
3.29225e-14
3.38198e-14
3.30207e-14
3.38605e-14
3.31208e-14
3.38659e-14
3.32433e-14
3.38534e-14
3.33134e-14
3.38194e-14
3.34095e-14
3.37992e-14
3.3533e-14
3.38277e-14
3.36289e-14
3.39019e-14
3.37354e-14
3.39446e-14
3.37781e-14
3.40675e-14
3.3849e-14
3.41781e-14
3.39458e-14
3.42214e-14
3.40327e-14
3.42524e-14
3.41486e-14
3.43253e-14
3.42391e-14
3.44012e-14
3.43421e-14
3.44616e-14
3.43862e-14
3.45607e-14
3.44606e-14
3.4627e-14
3.45103e-14
3.46798e-14
3.46253e-14
3.47558e-14
3.47161e-14
3.48358e-14
3.4855e-14
3.48835e-14
3.48846e-14
3.49311e-14
3.49457e-14
3.49789e-14
3.50373e-14
3.50611e-14
3.50892e-14
3.51597e-14
3.51168e-14
3.52416e-14
3.51348e-14
3.52746e-14
3.51937e-14
3.52771e-14
3.52778e-14
3.53322e-14
3.53712e-14
3.5438e-14
3.54558e-14
3.55268e-14
3.55156e-14
3.55487e-14
3.55188e-14
3.56027e-14
3.55792e-14
3.56741e-14
3.56458e-14
3.57802e-14
3.57499e-14
3.58575e-14
3.58279e-14
3.58736e-14
3.59002e-14
3.58737e-14
3.59548e-14
3.59172e-14
3.60247e-14
3.60341e-14
3.60927e-14
3.61469e-14
3.61091e-14
3.6197e-14
3.61658e-14
3.6235e-14
3.61989e-14
3.63234e-14
3.62675e-14
3.63751e-14
3.6344e-14
3.63905e-14
3.63425e-14
3.6426e-14
3.64412e-14
3.64539e-14
3.64357e-14
3.64986e-14
3.64413e-14
3.65342e-14
3.6513e-14
3.65934e-14
3.65931e-14
3.66162e-14
3.65701e-14
3.66258e-14
3.66376e-14
3.67111e-14
3.66529e-14
3.67312e-14
3.67252e-14
3.67711e-14
3.67687e-14
3.6856e-14
3.68334e-14
3.69361e-14
3.69214e-14
3.69872e-14
3.69281e-14
3.70329e-14
3.7037e-14
3.7107e-14
3.70959e-14
3.71796e-14
3.71853e-14
3.72265e-14
3.72834e-14
3.72981e-14
3.73663e-14
3.73667e-14
3.74122e-14
3.74314e-14
3.74187e-14
3.74929e-14
3.75024e-14
3.75583e-14
3.75692e-14
3.76258e-14
3.75686e-14
3.76958e-14
3.76361e-14
3.77061e-14
3.76793e-14
3.77686e-14
3.77694e-14
3.78132e-14
3.78202e-14
3.78321e-14
3.78619e-14
3.78908e-14
2.81759e-14
2.99011e-14
2.81761e-14
2.99012e-14
2.81764e-14
2.99013e-14
2.81769e-14
2.99014e-14
2.81776e-14
2.99016e-14
2.81784e-14
2.99018e-14
2.81793e-14
2.9902e-14
2.81804e-14
2.99024e-14
2.81817e-14
2.99028e-14
2.81831e-14
2.99032e-14
2.81847e-14
2.99037e-14
2.81864e-14
2.99042e-14
2.81883e-14
2.99047e-14
2.81904e-14
2.99053e-14
2.81926e-14
2.99059e-14
2.8195e-14
2.99067e-14
2.81975e-14
2.99075e-14
2.82001e-14
2.99082e-14
2.8203e-14
2.99091e-14
2.82059e-14
2.99099e-14
2.8209e-14
2.99108e-14
2.82122e-14
2.99118e-14
2.82155e-14
2.99129e-14
2.82189e-14
2.9914e-14
2.82225e-14
2.9915e-14
2.82262e-14
2.9916e-14
2.823e-14
2.9917e-14
2.82339e-14
2.99182e-14
2.82379e-14
2.99194e-14
2.82421e-14
2.99207e-14
2.82462e-14
2.99218e-14
2.82504e-14
2.9923e-14
2.82546e-14
2.99247e-14
2.82588e-14
2.99264e-14
2.82629e-14
2.99281e-14
2.82672e-14
2.99299e-14
2.82716e-14
2.99317e-14
2.8276e-14
2.99336e-14
2.82806e-14
2.99353e-14
2.82853e-14
2.9937e-14
2.82903e-14
2.99389e-14
2.82951e-14
2.99409e-14
2.83001e-14
2.99428e-14
2.83054e-14
2.99446e-14
2.83107e-14
2.99467e-14
2.83159e-14
2.99488e-14
2.83213e-14
2.99511e-14
2.83267e-14
2.99538e-14
2.83319e-14
2.99567e-14
2.83369e-14
2.99596e-14
2.83421e-14
2.99629e-14
2.83471e-14
2.99667e-14
2.83522e-14
2.99709e-14
2.83572e-14
2.99753e-14
2.8362e-14
2.998e-14
2.83667e-14
2.99852e-14
2.83714e-14
2.99905e-14
2.83763e-14
2.99961e-14
2.8381e-14
3.00021e-14
2.83859e-14
3.00078e-14
2.83912e-14
3.00134e-14
2.83967e-14
3.00192e-14
2.8402e-14
3.00254e-14
2.84076e-14
3.00311e-14
2.84132e-14
3.00367e-14
2.84191e-14
3.00427e-14
2.84251e-14
3.00484e-14
2.84313e-14
3.00545e-14
2.84375e-14
3.00603e-14
2.84441e-14
3.00656e-14
2.84508e-14
3.00714e-14
2.84577e-14
3.00775e-14
2.84647e-14
3.00837e-14
2.84719e-14
3.00904e-14
2.84786e-14
3.00974e-14
2.84855e-14
3.01042e-14
2.84926e-14
3.0111e-14
2.85008e-14
3.01176e-14
2.85093e-14
3.01239e-14
2.85169e-14
3.013e-14
2.85252e-14
3.01363e-14
2.85337e-14
3.01425e-14
2.85421e-14
3.01487e-14
2.85507e-14
3.0155e-14
2.85601e-14
3.01613e-14
2.8569e-14
3.01674e-14
2.85774e-14
3.01745e-14
2.85866e-14
3.01804e-14
2.85957e-14
3.01865e-14
2.86048e-14
3.01937e-14
2.86155e-14
3.02004e-14
2.86249e-14
3.02085e-14
2.86344e-14
3.0217e-14
2.86439e-14
3.02226e-14
2.86526e-14
3.02292e-14
2.86613e-14
3.02378e-14
2.86692e-14
3.02484e-14
2.86763e-14
3.02586e-14
2.8686e-14
3.02648e-14
2.86932e-14
3.02705e-14
2.87005e-14
3.02783e-14
2.87061e-14
3.02865e-14
2.87135e-14
3.0296e-14
2.87238e-14
3.03041e-14
2.87323e-14
3.03125e-14
2.87411e-14
3.03187e-14
2.87472e-14
3.03262e-14
2.87535e-14
3.0337e-14
2.87627e-14
3.03445e-14
2.87741e-14
3.03524e-14
2.87848e-14
3.03638e-14
2.87947e-14
3.03728e-14
2.8804e-14
3.03803e-14
2.88135e-14
3.03885e-14
2.88243e-14
3.03972e-14
2.88354e-14
3.04065e-14
2.88448e-14
3.04144e-14
2.88557e-14
3.04219e-14
2.88658e-14
3.04321e-14
2.88764e-14
3.04389e-14
2.88884e-14
3.04433e-14
2.88997e-14
3.04463e-14
2.89116e-14
3.045e-14
2.8926e-14
3.04554e-14
2.89409e-14
3.04596e-14
2.89564e-14
3.04644e-14
2.89703e-14
3.04701e-14
2.89848e-14
3.04766e-14
2.89978e-14
3.04818e-14
2.90157e-14
3.04835e-14
2.90322e-14
3.04904e-14
2.90493e-14
3.04982e-14
2.90694e-14
3.05003e-14
2.90881e-14
3.0501e-14
2.91053e-14
3.05072e-14
2.91233e-14
3.05121e-14
2.91444e-14
3.05179e-14
2.91642e-14
3.05225e-14
2.91802e-14
3.05304e-14
2.91995e-14
3.05323e-14
2.92198e-14
3.05284e-14
2.92317e-14
3.053e-14
2.92469e-14
3.05374e-14
2.92679e-14
3.05388e-14
2.92875e-14
3.05341e-14
2.9306e-14
3.05303e-14
2.93279e-14
3.053e-14
2.93535e-14
3.05329e-14
2.93803e-14
3.05369e-14
2.94084e-14
3.05321e-14
2.9433e-14
3.05282e-14
2.94615e-14
3.05226e-14
2.9489e-14
3.05228e-14
2.9518e-14
3.05261e-14
2.95462e-14
3.05203e-14
2.95784e-14
3.05126e-14
2.96124e-14
3.05129e-14
2.96359e-14
3.05161e-14
2.96636e-14
3.05247e-14
2.96983e-14
3.05338e-14
2.97324e-14
3.05432e-14
2.97636e-14
3.05528e-14
2.9812e-14
3.05501e-14
2.98526e-14
3.056e-14
2.98981e-14
3.058e-14
2.99437e-14
3.05999e-14
2.99791e-14
3.06298e-14
3.00196e-14
3.06647e-14
3.00654e-14
3.06942e-14
3.01012e-14
3.07236e-14
3.01321e-14
3.07681e-14
3.01786e-14
3.08072e-14
3.02306e-14
3.08409e-14
3.02829e-14
3.08846e-14
3.03202e-14
3.09382e-14
3.03786e-14
3.0971e-14
3.04323e-14
3.10138e-14
3.04867e-14
3.10717e-14
3.05469e-14
3.11293e-14
3.06183e-14
3.11711e-14
3.06958e-14
3.12227e-14
3.07537e-14
3.12789e-14
3.0818e-14
3.13398e-14
3.08836e-14
3.13896e-14
3.09506e-14
3.1444e-14
3.10246e-14
3.15133e-14
3.11002e-14
3.15871e-14
3.11777e-14
3.1655e-14
3.1252e-14
3.17118e-14
3.13231e-14
3.17837e-14
3.13861e-14
3.18498e-14
3.14461e-14
3.19101e-14
3.15085e-14
3.19805e-14
3.15734e-14
3.20611e-14
3.16408e-14
3.21417e-14
3.17107e-14
3.22065e-14
3.17885e-14
3.22664e-14
3.1848e-14
3.2337e-14
3.19105e-14
3.24028e-14
3.19969e-14
3.24482e-14
3.20708e-14
3.24994e-14
3.21377e-14
3.2572e-14
3.21924e-14
3.26558e-14
3.22558e-14
3.27197e-14
3.23282e-14
3.27743e-14
3.23886e-14
3.28408e-14
3.24477e-14
3.29192e-14
3.2516e-14
3.29786e-14
3.25936e-14
3.30295e-14
3.26599e-14
3.3093e-14
3.27256e-14
3.31484e-14
3.27802e-14
3.32168e-14
3.28448e-14
3.32568e-14
3.293e-14
3.32999e-14
3.30259e-14
3.3346e-14
3.3081e-14
3.34053e-14
3.31371e-14
3.34677e-14
3.32045e-14
3.35127e-14
3.32835e-14
3.35716e-14
3.33642e-14
3.36239e-14
3.34365e-14
3.36696e-14
3.34908e-14
3.37086e-14
3.35477e-14
3.37618e-14
3.36178e-14
3.38088e-14
3.3691e-14
3.38701e-14
3.37472e-14
3.39458e-14
3.37761e-14
3.39857e-14
3.3849e-14
3.40311e-14
3.39154e-14
3.41226e-14
3.39854e-14
3.42101e-14
3.40486e-14
3.4264e-14
3.41257e-14
3.43051e-14
3.42072e-14
3.4394e-14
3.42832e-14
3.44503e-14
3.4344e-14
3.44846e-14
3.44003e-14
3.45369e-14
3.44722e-14
3.45776e-14
3.45205e-14
3.46364e-14
3.45751e-14
3.47239e-14
3.46254e-14
3.47921e-14
3.46814e-14
3.48518e-14
3.47428e-14
3.49138e-14
3.48098e-14
3.49692e-14
3.48828e-14
3.50577e-14
3.49617e-14
3.51219e-14
3.50568e-14
3.51625e-14
3.50921e-14
3.52179e-14
3.51447e-14
3.52895e-14
3.5214e-14
3.53403e-14
3.53008e-14
3.53717e-14
3.53302e-14
3.54219e-14
3.53779e-14
3.54732e-14
3.54248e-14
3.5545e-14
3.54701e-14
3.56009e-14
3.55329e-14
3.56602e-14
3.55388e-14
3.56851e-14
3.55432e-14
3.57144e-14
3.55819e-14
3.57681e-14
3.55797e-14
3.57727e-14
3.55729e-14
3.58026e-14
3.56325e-14
3.58223e-14
3.56868e-14
3.58121e-14
3.57197e-14
3.58062e-14
3.57873e-14
3.58393e-14
3.58361e-14
3.58921e-14
3.59019e-14
3.59466e-14
3.59842e-14
3.59854e-14
3.60682e-14
3.60254e-14
3.61212e-14
3.60654e-14
3.61618e-14
3.61223e-14
3.61899e-14
3.61614e-14
3.62061e-14
3.6183e-14
3.62282e-14
3.6188e-14
3.62743e-14
3.6228e-14
3.63441e-14
3.62855e-14
3.63535e-14
3.63424e-14
3.63844e-14
3.63668e-14
3.64034e-14
3.63933e-14
3.6428e-14
3.64387e-14
3.64406e-14
3.64874e-14
3.64715e-14
3.65075e-14
3.65034e-14
3.65306e-14
3.65525e-14
3.65572e-14
3.65874e-14
3.66034e-14
3.65757e-14
3.66866e-14
3.66059e-14
3.67162e-14
3.66292e-14
3.67387e-14
3.67248e-14
3.67229e-14
3.67138e-14
3.67231e-14
3.66889e-14
3.67376e-14
3.67062e-14
3.67682e-14
3.67321e-14
3.67863e-14
3.67681e-14
3.68216e-14
3.67824e-14
3.68448e-14
3.68052e-14
3.68567e-14
3.68385e-14
3.69153e-14
3.69079e-14
3.69639e-14
3.70144e-14
3.69739e-14
3.69995e-14
3.70244e-14
3.70845e-14
3.70625e-14
3.72192e-14
3.70855e-14
3.72775e-14
3.71105e-14
3.72383e-14
3.71591e-14
3.72832e-14
3.72106e-14
3.73271e-14
3.72112e-14
3.72966e-14
3.72629e-14
3.73115e-14
3.73191e-14
3.73907e-14
3.73306e-14
3.74885e-14
3.73674e-14
3.75344e-14
3.74194e-14
3.75789e-14
3.75116e-14
3.76424e-14
3.7574e-14
3.76275e-14
3.76321e-14
3.76963e-14
3.76954e-14
3.77486e-14
3.7738e-14
3.78151e-14
3.78066e-14
3.78463e-14
3.78563e-14
3.7864e-14
3.79139e-14
3.79056e-14
3.79625e-14
3.79447e-14
3.79822e-14
3.78918e-14
3.79466e-14
3.79088e-14
3.79837e-14
3.79819e-14
3.8055e-14
3.80402e-14
3.80654e-14
3.80442e-14
3.80784e-14
3.80913e-14
3.81202e-14
3.81057e-14
3.81881e-14
3.81276e-14
3.82134e-14
3.81839e-14
3.82709e-14
3.82541e-14
3.83372e-14
3.82648e-14
3.83606e-14
3.83148e-14
3.83674e-14
3.83537e-14
3.84317e-14
3.83516e-14
3.84801e-14
3.83809e-14
3.84929e-14
3.84199e-14
3.84913e-14
3.84492e-14
3.8495e-14
3.84984e-14
3.85004e-14
3.85179e-14
3.8503e-14
3.85077e-14
3.85022e-14
3.85189e-14
3.85536e-14
3.85497e-14
3.85765e-14
3.86024e-14
3.86266e-14
3.86203e-14
3.8678e-14
3.86021e-14
3.87038e-14
3.86602e-14
3.87076e-14
3.8682e-14
3.87443e-14
3.86971e-14
3.87871e-14
3.87355e-14
3.88391e-14
3.87363e-14
3.8901e-14
3.8694e-14
3.88557e-14
3.87303e-14
3.8854e-14
3.87877e-14
3.88612e-14
3.87465e-14
3.88729e-14
3.87929e-14
3.88758e-14
3.8805e-14
3.88988e-14
3.87805e-14
3.88794e-14
3.87346e-14
3.8881e-14
3.87129e-14
3.8891e-14
3.87293e-14
3.88791e-14
3.86877e-14
3.88763e-14
3.87007e-14
3.89008e-14
3.87878e-14
3.88878e-14
3.8755e-14
3.8865e-14
3.88348e-14
3.88495e-14
3.88652e-14
3.88696e-14
3.88637e-14
3.88747e-14
3.88634e-14
3.89167e-14
3.8932e-14
3.89462e-14
3.90209e-14
3.89611e-14
3.90286e-14
3.89402e-14
3.89382e-14
3.89513e-14
3.89369e-14
3.89463e-14
3.8972e-14
3.8977e-14
3.8955e-14
3.89895e-14
3.89189e-14
3.90393e-14
3.89497e-14
3.913e-14
3.89741e-14
3.91556e-14
3.90101e-14
3.91335e-14
3.90229e-14
3.91349e-14
3.90673e-14
3.91593e-14
3.9126e-14
3.91505e-14
3.91091e-14
3.9179e-14
3.91257e-14
3.92642e-14
3.91928e-14
3.9297e-14
3.92376e-14
3.93131e-14
3.92612e-14
3.93112e-14
3.9302e-14
3.93474e-14
3.93419e-14
3.94031e-14
3.93805e-14
3.94208e-14
3.94185e-14
3.94754e-14
3.94554e-14
3.95294e-14
3.94911e-14
3.95838e-14
3.95253e-14
3.95813e-14
3.95588e-14
3.95978e-14
3.95919e-14
3.96527e-14
3.96243e-14
3.96887e-14
3.96361e-14
3.96564e-14
3.96379e-14
3.96525e-14
3.96687e-14
3.97067e-14
3.96989e-14
3.9741e-14
3.97186e-14
3.97855e-14
3.9737e-14
3.98007e-14
3.97541e-14
3.98261e-14
3.97698e-14
3.98521e-14
3.9794e-14
3.98588e-14
3.98071e-14
3.98659e-14
3.9799e-14
3.98829e-14
3.98096e-14
3.99004e-14
3.98084e-14
3.99085e-14
3.98359e-14
3.99177e-14
3.98416e-14
3.99481e-14
3.98457e-14
3.99595e-14
3.98581e-14
3.99415e-14
3.98692e-14
3.99343e-14
3.98791e-14
3.99686e-14
3.98877e-14
3.9983e-14
3.98846e-14
3.99981e-14
3.99006e-14
3.99832e-14
3.99053e-14
3.99687e-14
3.99092e-14
3.99853e-14
3.99122e-14
4.00125e-14
3.9914e-14
4.00197e-14
3.99147e-14
4.00174e-14
3.99143e-14
4.00368e-14
3.99129e-14
4.00575e-14
3.99205e-14
4.0069e-14
3.99374e-14
4.00611e-14
3.99325e-14
4.00647e-14
3.99266e-14
4.00801e-14
3.99195e-14
4.00865e-14
3.99112e-14
4.00943e-14
3.99121e-14
4.00723e-14
3.99224e-14
4.00516e-14
3.99108e-14
4.00739e-14
3.99086e-14
4.00976e-14
3.99052e-14
4.00704e-14
3.99007e-14
4.00444e-14
3.98901e-14
4.00353e-14
3.98837e-14
4.00377e-14
3.98764e-14
4.0036e-14
3.9868e-14
4.00407e-14
3.98586e-14
4.00412e-14
3.98533e-14
4.00429e-14
3.98417e-14
4.00458e-14
3.98343e-14
4.00604e-14
3.98466e-14
4.00449e-14
3.98632e-14
4.00199e-14
3.98424e-14
4.00115e-14
3.98417e-14
4.00092e-14
3.98509e-14
4.00025e-14
3.98489e-14
3.99966e-14
3.98411e-14
3.99756e-14
3.9838e-14
3.99657e-14
3.98397e-14
3.99615e-14
3.9841e-14
3.9937e-14
3.98367e-14
3.99024e-14
3.98271e-14
3.98941e-14
3.98224e-14
3.98965e-14
3.98176e-14
3.98991e-14
3.98073e-14
3.98917e-14
3.9802e-14
3.98845e-14
3.97913e-14
3.98724e-14
3.97855e-14
3.98553e-14
3.97743e-14
3.98489e-14
3.9763e-14
3.98478e-14
3.97566e-14
3.98418e-14
3.97551e-14
3.98205e-14
3.97432e-14
3.98097e-14
3.97414e-14
3.98093e-14
3.97343e-14
3.97936e-14
3.9722e-14
3.97781e-14
3.97096e-14
3.97678e-14
3.9697e-14
3.97627e-14
3.96844e-14
3.97627e-14
3.96766e-14
3.97629e-14
3.96636e-14
3.97631e-14
3.96504e-14
3.97635e-14
3.96395e-14
3.97515e-14
3.96233e-14
3.97422e-14
3.9612e-14
3.97355e-14
3.96029e-14
3.9734e-14
3.9601e-14
3.97253e-14
3.95815e-14
3.97216e-14
3.95717e-14
3.97157e-14
3.9564e-14
3.97125e-14
3.95611e-14
3.97094e-14
3.95652e-14
3.97114e-14
3.95641e-14
3.97038e-14
3.95531e-14
3.96916e-14
3.95492e-14
3.96844e-14
3.95475e-14
3.96821e-14
3.95504e-14
3.96849e-14
3.95412e-14
3.96901e-14
3.95341e-14
3.96908e-14
3.95293e-14
3.96892e-14
3.95266e-14
3.96925e-14
3.95214e-14
3.96842e-14
3.95184e-14
3.96784e-14
3.95129e-14
3.96845e-14
3.95142e-14
3.96884e-14
3.9513e-14
3.96855e-14
3.95094e-14
3.96829e-14
3.95079e-14
3.96849e-14
3.95085e-14
3.96803e-14
3.95113e-14
3.96691e-14
3.95117e-14
3.96649e-14
3.95141e-14
3.9663e-14
3.95165e-14
3.96591e-14
3.95187e-14
3.96553e-14
3.95186e-14
3.96516e-14
3.95185e-14
3.96437e-14
3.95183e-14
3.96381e-14
3.9518e-14
3.96326e-14
3.95197e-14
3.96294e-14
3.95193e-14
3.96285e-14
3.95189e-14
3.96244e-14
3.95184e-14
3.96193e-14
3.95189e-14
3.96154e-14
3.95193e-14
3.96137e-14
3.95197e-14
3.9611e-14
3.95201e-14
3.96074e-14
3.95235e-14
3.96028e-14
3.95248e-14
3.96023e-14
3.95251e-14
3.96039e-14
3.95253e-14
3.96036e-14
3.95255e-14
3.96013e-14
3.95257e-14
3.95991e-14
3.95259e-14
3.95969e-14
3.95261e-14
3.95948e-14
3.95252e-14
3.95946e-14
3.95253e-14
3.95935e-14
3.95245e-14
3.95915e-14
3.95236e-14
3.95896e-14
3.95237e-14
3.95905e-14
3.95238e-14
3.95904e-14
3.95229e-14
3.95886e-14
3.9523e-14
3.95869e-14
3.95256e-14
3.95842e-14
3.95257e-14
3.95852e-14
3.95248e-14
3.9587e-14
3.95239e-14
3.95871e-14
3.95248e-14
3.95855e-14
3.95256e-14
3.95857e-14
3.95265e-14
3.9585e-14
3.95281e-14
3.9581e-14
3.95281e-14
3.95796e-14
3.95297e-14
3.95781e-14
3.95305e-14
3.95791e-14
3.95305e-14
3.95809e-14
3.95312e-14
3.95804e-14
3.95324e-14
3.95775e-14
3.95335e-14
3.95758e-14
3.95335e-14
3.95764e-14
3.95339e-14
3.95767e-14
3.95331e-14
3.95777e-14
3.95331e-14
3.95776e-14
3.95324e-14
3.9576e-14
3.95317e-14
3.95756e-14
3.95314e-14
3.95762e-14
3.9531e-14
3.95771e-14
3.95307e-14
3.95774e-14
3.95301e-14
3.95777e-14
3.95291e-14
3.95783e-14
3.95288e-14
3.95779e-14
3.95288e-14
3.95779e-14
3.95285e-14
3.95785e-14
3.95282e-14
3.95787e-14
3.95276e-14
3.9579e-14
3.9527e-14
3.9579e-14
3.9527e-14
3.95793e-14
3.9527e-14
3.95793e-14
3.95273e-14
3.95785e-14
3.9527e-14
3.95785e-14
3.95264e-14
3.95793e-14
3.95259e-14
3.95802e-14
3.95253e-14
3.95805e-14
3.95247e-14
3.95805e-14
3.9524e-14
3.95804e-14
3.95236e-14
3.95806e-14
3.95231e-14
3.95805e-14
3.95227e-14
3.95803e-14
3.95226e-14
3.95807e-14
3.95223e-14
3.95809e-14
3.95221e-14
3.95806e-14
3.95218e-14
3.95804e-14
3.95218e-14
3.95803e-14
3.95214e-14
3.95802e-14
3.9521e-14
3.95799e-14
3.95208e-14
3.95798e-14
3.95209e-14
3.95797e-14
3.95207e-14
3.95794e-14
3.95207e-14
3.9579e-14
3.95207e-14
3.95787e-14
3.95205e-14
3.95784e-14
3.95204e-14
3.9578e-14
3.95204e-14
3.95777e-14
3.95205e-14
3.95773e-14
3.95206e-14
3.95769e-14
3.95206e-14
3.95766e-14
3.95206e-14
3.95763e-14
3.95205e-14
3.95761e-14
3.95204e-14
3.95759e-14
3.95204e-14
3.95757e-14
3.95203e-14
3.95754e-14
3.95203e-14
3.95752e-14
3.95202e-14
3.95752e-14
3.95202e-14
3.95751e-14
3.95201e-14
3.95749e-14
3.95199e-14
3.95749e-14
3.95199e-14
3.95748e-14
3.95198e-14
3.95747e-14
3.95198e-14
3.95744e-14
3.95197e-14
3.95742e-14
3.95196e-14
3.95741e-14
3.95195e-14
3.9574e-14
3.95195e-14
3.95739e-14
3.95194e-14
3.95739e-14
3.95193e-14
3.95738e-14
3.95193e-14
3.95737e-14
3.95192e-14
3.95735e-14
3.95192e-14
3.95735e-14
3.95191e-14
3.95734e-14
3.95191e-14
3.95733e-14
3.95191e-14
3.95732e-14
3.9519e-14
3.95732e-14
3.9519e-14
3.95731e-14
3.9519e-14
3.95731e-14
3.9519e-14
3.9573e-14
3.95191e-14
3.95729e-14
3.95191e-14
3.95729e-14
3.95191e-14
3.95728e-14
3.95191e-14
3.95728e-14
3.95191e-14
3.95728e-14
3.95191e-14
3.95727e-14
3.95191e-14
3.95727e-14
3.95191e-14
3.95727e-14
3.95191e-14
3.95727e-14
3.95191e-14
3.95727e-14
3.95191e-14
3.95727e-14
3.79359e-14
3.79916e-14
3.797e-14
3.80142e-14
3.80264e-14
3.80465e-14
3.8059e-14
3.80816e-14
3.8065e-14
3.8097e-14
3.81424e-14
3.81684e-14
3.81953e-14
3.82476e-14
3.81971e-14
3.82885e-14
3.81911e-14
3.8322e-14
3.82194e-14
3.83767e-14
3.82769e-14
3.8403e-14
3.83981e-14
3.8396e-14
3.84468e-14
3.84168e-14
3.84784e-14
3.84333e-14
3.84693e-14
3.84956e-14
3.84621e-14
3.85345e-14
3.85038e-14
3.85568e-14
3.85431e-14
3.85606e-14
3.85832e-14
3.85417e-14
3.86592e-14
3.85764e-14
3.86382e-14
3.86351e-14
3.86515e-14
3.86695e-14
3.86967e-14
3.86525e-14
3.86634e-14
3.87197e-14
3.86854e-14
3.87355e-14
3.87362e-14
3.87276e-14
3.87319e-14
3.87198e-14
3.87005e-14
3.87399e-14
3.87263e-14
3.87916e-14
3.87471e-14
3.88163e-14
3.87634e-14
3.88126e-14
3.87789e-14
3.88416e-14
3.87918e-14
3.88748e-14
3.87052e-14
3.89142e-14
3.87138e-14
3.89057e-14
3.87714e-14
3.891e-14
3.87559e-14
3.89073e-14
3.87144e-14
3.8882e-14
3.87435e-14
3.88663e-14
3.87505e-14
3.88403e-14
3.87367e-14
3.8851e-14
3.86683e-14
3.88174e-14
3.87078e-14
3.88057e-14
3.87574e-14
3.87801e-14
3.87556e-14
3.8804e-14
3.87666e-14
3.87953e-14
3.87912e-14
3.87861e-14
3.87629e-14
3.88091e-14
3.87822e-14
3.88491e-14
3.88652e-14
3.88902e-14
3.88395e-14
3.89136e-14
3.88422e-14
3.89043e-14
3.8876e-14
3.89495e-14
3.88883e-14
3.90155e-14
3.8948e-14
3.89801e-14
3.89709e-14
3.90172e-14
3.89752e-14
3.90737e-14
3.9031e-14
3.90967e-14
3.90859e-14
3.90481e-14
3.91434e-14
3.90516e-14
3.91691e-14
3.91062e-14
3.91983e-14
3.91767e-14
3.92292e-14
3.92659e-14
3.9261e-14
3.93019e-14
3.92749e-14
3.93583e-14
3.92878e-14
3.93992e-14
3.92985e-14
3.93878e-14
3.93075e-14
3.94173e-14
3.93329e-14
3.95264e-14
3.93728e-14
3.96228e-14
3.9407e-14
3.96703e-14
3.94354e-14
3.96492e-14
3.9459e-14
3.96917e-14
3.94969e-14
3.9721e-14
3.953e-14
3.97371e-14
3.95588e-14
3.97392e-14
3.96034e-14
3.97847e-14
3.96348e-14
3.98151e-14
3.9663e-14
3.98011e-14
3.96693e-14
3.98007e-14
3.97031e-14
3.98133e-14
3.9755e-14
3.98679e-14
3.97757e-14
3.99054e-14
3.97947e-14
3.99059e-14
3.98124e-14
3.99187e-14
3.98288e-14
3.99437e-14
3.98439e-14
3.99911e-14
3.98572e-14
4.00013e-14
3.9869e-14
3.99739e-14
3.98899e-14
3.99381e-14
3.99007e-14
3.99437e-14
3.99113e-14
3.99601e-14
3.9932e-14
3.99773e-14
3.99323e-14
3.99849e-14
3.99426e-14
3.99934e-14
3.9963e-14
4.00335e-14
3.99524e-14
4.0044e-14
3.99514e-14
4.00558e-14
3.99497e-14
4.00587e-14
3.99472e-14
4.00734e-14
3.99539e-14
4.00795e-14
3.99701e-14
4.00665e-14
3.99546e-14
4.00339e-14
3.99489e-14
4.0002e-14
3.99429e-14
4.00016e-14
3.99366e-14
4.00224e-14
3.994e-14
4.00229e-14
3.99324e-14
4.0003e-14
3.99347e-14
3.99835e-14
3.99367e-14
3.99953e-14
3.99278e-14
3.99968e-14
3.99289e-14
3.99985e-14
3.99297e-14
4.00003e-14
3.993e-14
3.99709e-14
3.99405e-14
3.99624e-14
3.99405e-14
3.99747e-14
3.99299e-14
3.99659e-14
3.99402e-14
3.9936e-14
3.99401e-14
3.99425e-14
3.99401e-14
3.99382e-14
3.99456e-14
3.9939e-14
3.99355e-14
3.99394e-14
3.99413e-14
3.99343e-14
3.99211e-14
3.9929e-14
3.99062e-14
3.99286e-14
3.99072e-14
3.99281e-14
3.98977e-14
3.99484e-14
3.98934e-14
3.99529e-14
3.98837e-14
3.99366e-14
3.98685e-14
3.99151e-14
3.98585e-14
3.9925e-14
3.98482e-14
3.99403e-14
3.98534e-14
3.99349e-14
3.98372e-14
3.99245e-14
3.98365e-14
3.99248e-14
3.98303e-14
3.99201e-14
3.98237e-14
3.99e-14
3.98116e-14
3.98801e-14
3.98149e-14
3.9871e-14
3.98181e-14
3.98776e-14
3.98055e-14
3.98843e-14
3.9803e-14
3.98704e-14
3.97951e-14
3.98568e-14
3.97923e-14
3.98433e-14
3.97945e-14
3.98455e-14
3.97812e-14
3.98426e-14
3.97728e-14
3.98503e-14
3.97541e-14
3.98581e-14
3.97556e-14
3.98456e-14
3.9757e-14
3.98231e-14
3.97428e-14
3.98111e-14
3.97337e-14
3.98197e-14
3.97295e-14
3.98184e-14
3.97251e-14
3.98121e-14
3.97156e-14
3.98112e-14
3.97211e-14
3.98207e-14
3.97112e-14
3.98203e-14
3.97013e-14
3.98151e-14
3.96962e-14
3.98001e-14
3.96935e-14
3.97954e-14
3.96907e-14
3.97934e-14
3.96903e-14
3.97842e-14
3.96824e-14
3.97752e-14
3.96769e-14
3.97639e-14
3.96738e-14
3.97677e-14
3.96658e-14
3.97642e-14
3.96577e-14
3.97535e-14
3.96446e-14
3.9748e-14
3.96413e-14
3.97401e-14
3.96428e-14
3.97325e-14
3.96321e-14
3.97275e-14
3.96165e-14
3.97201e-14
3.96058e-14
3.97154e-14
3.95973e-14
3.97109e-14
3.95864e-14
3.97112e-14
3.95779e-14
3.97022e-14
3.95692e-14
3.96911e-14
3.95629e-14
3.96801e-14
3.95588e-14
3.96739e-14
3.95477e-14
3.96702e-14
3.95388e-14
3.96597e-14
3.95345e-14
3.96447e-14
3.95324e-14
3.96368e-14
3.95279e-14
3.96358e-14
3.95257e-14
3.96327e-14
3.95212e-14
3.96296e-14
3.95143e-14
3.96266e-14
3.95096e-14
3.96259e-14
3.95049e-14
3.96254e-14
3.95e-14
3.9616e-14
3.94952e-14
3.96067e-14
3.94968e-14
3.96041e-14
3.94918e-14
3.9606e-14
3.9489e-14
3.96058e-14
3.94796e-14
3.96056e-14
3.94787e-14
3.96034e-14
3.94767e-14
3.9597e-14
3.94768e-14
3.95917e-14
3.94767e-14
3.95886e-14
3.94776e-14
3.95857e-14
3.94785e-14
3.95796e-14
3.94793e-14
3.95778e-14
3.9479e-14
3.9575e-14
3.94796e-14
3.95743e-14
3.94802e-14
3.95727e-14
3.94798e-14
3.9572e-14
3.94783e-14
3.95734e-14
3.94797e-14
3.95719e-14
3.94781e-14
3.95724e-14
3.94765e-14
3.95729e-14
3.9472e-14
3.95763e-14
3.94684e-14
3.95769e-14
3.94658e-14
3.95765e-14
3.94631e-14
3.95762e-14
3.94604e-14
3.95778e-14
3.94576e-14
3.95794e-14
3.94549e-14
3.9581e-14
3.94521e-14
3.95818e-14
3.94493e-14
3.95808e-14
3.94464e-14
3.95808e-14
3.94435e-14
3.95816e-14
3.94415e-14
3.95808e-14
3.94386e-14
3.95791e-14
3.94374e-14
3.95775e-14
3.94353e-14
3.95768e-14
3.94323e-14
3.9577e-14
3.94302e-14
3.9578e-14
3.94288e-14
3.95783e-14
3.94274e-14
3.95793e-14
3.94275e-14
3.95804e-14
3.94268e-14
3.95815e-14
3.94257e-14
3.95815e-14
3.94246e-14
3.95811e-14
3.94246e-14
3.95816e-14
3.94249e-14
3.95827e-14
3.94247e-14
3.95836e-14
3.94246e-14
3.95841e-14
3.94262e-14
3.95825e-14
3.94277e-14
3.95819e-14
3.94281e-14
3.95835e-14
3.94288e-14
3.95841e-14
3.94305e-14
3.95834e-14
3.94322e-14
3.9583e-14
3.94337e-14
3.95836e-14
3.94346e-14
3.95836e-14
3.94352e-14
3.95833e-14
3.94372e-14
3.95827e-14
3.94383e-14
3.95834e-14
3.9439e-14
3.95838e-14
3.944e-14
3.95833e-14
3.94413e-14
3.95831e-14
3.94425e-14
3.95829e-14
3.94436e-14
3.95822e-14
3.9445e-14
3.95821e-14
3.94456e-14
3.95828e-14
3.94464e-14
3.95827e-14
3.94474e-14
3.95818e-14
3.94484e-14
3.9581e-14
3.94495e-14
3.95803e-14
3.94501e-14
3.95802e-14
3.94503e-14
3.95802e-14
3.94508e-14
3.95796e-14
3.9451e-14
3.95791e-14
3.94513e-14
3.95788e-14
3.94514e-14
3.95784e-14
3.94519e-14