/*--------------------------------*- C++ -*----------------------------------*\
| =========                 |                                                 |
| \\      /  F ield         | OpenFOAM: The Open Source CFD Toolbox           |
|  \\    /   O peration     | Version:  2012                                  |
|   \\  /    A nd           | Website:  www.openfoam.com                      |
|    \\/     M anipulation  |                                                 |
\*---------------------------------------------------------------------------*/
FoamFile
{
    version     2.0;
    format      ascii;
    class       volScalarField;
    location    "14000";
    object      p;
}
// * * * * * * * * * * * * * * * * * * * * * * * * * * * * * * * * * * * * * //

dimensions      [0 2 -2 0 0 0 0];


internalField   nonuniform List<scalar> 
160
(
1.44738e-17
1.47521e-15
9.62142e-17
1.43858e-15
6.1428e-17
1.36928e-15
4.05694e-18
1.25698e-15
-2.22624e-17
1.09642e-15
-4.2636e-17
8.85902e-16
-7.52493e-17
6.30075e-16
-1.44711e-16
3.49138e-16
-2.51059e-16
5.50104e-17
-4.28623e-16
-2.47453e-16
-6.97868e-16
-5.88442e-16
-1.04531e-15
-1.01696e-15
-1.56238e-15
-1.5865e-15
-2.29215e-15
-2.29518e-15
-3.30767e-15
-3.29467e-15
-4.75469e-15
-4.56695e-15
-6.76336e-15
-6.75611e-15
-9.15876e-15
-9.14127e-15
-1.31841e-14
-1.30911e-14
-1.71967e-14
-1.70481e-14
6.74439e-16
8.50083e-16
6.72882e-16
8.49537e-16
6.68942e-16
8.4682e-16
6.60575e-16
8.38643e-16
6.44283e-16
8.18885e-16
6.12144e-16
7.77348e-16
5.50822e-16
6.99412e-16
4.57243e-16
5.76926e-16
2.97084e-16
4.06435e-16
6.6544e-17
1.50656e-16
-2.51363e-16
-2.07736e-16
-6.94965e-16
-6.74335e-16
-1.30791e-15
-1.32559e-15
-2.13398e-15
-2.13887e-15
-3.1947e-15
-3.20803e-15
-4.76869e-15
-4.7458e-15
-6.54786e-15
-6.70765e-15
-9.20911e-15
-9.25002e-15
-1.34539e-14
-1.31781e-14
-1.69889e-14
-1.71254e-14
-2.01101e-14
-1.98533e-14
-2.20099e-14
-2.19339e-14
-2.20758e-14
-2.19813e-14
-2.1619e-14
-2.1586e-14
-2.14474e-14
-2.15028e-14
-2.14895e-14
-2.1494e-14
-2.1517e-14
-2.15174e-14
-2.15428e-14
-2.15429e-14
-2.15309e-14
-2.15317e-14
-2.15229e-14
-2.15284e-14
-2.1519e-14
-2.15092e-14
-2.15211e-14
-2.15035e-14
-2.15133e-14
-2.15049e-14
-2.15117e-14
-2.15035e-14
-2.15094e-14
-2.15025e-14
-2.15067e-14
-2.15024e-14
-2.1507e-14
-2.15014e-14
-2.1507e-14
-2.15011e-14
-2.15069e-14
-2.1501e-14
-2.15067e-14
-2.15009e-14
-2.00829e-14
-1.98055e-14
-2.19166e-14
-2.19373e-14
-2.19845e-14
-2.21033e-14
-2.14945e-14
-2.14649e-14
-2.1439e-14
-2.14165e-14
-2.14831e-14
-2.14819e-14
-2.15099e-14
-2.15095e-14
-2.15241e-14
-2.15221e-14
-2.15265e-14
-2.15181e-14
-2.1501e-14
-2.15046e-14
-2.14995e-14
-2.14907e-14
-2.14981e-14
-2.14847e-14
-2.14973e-14
-2.14835e-14
-2.15e-14
-2.14882e-14
-2.14983e-14
-2.14886e-14
-2.14973e-14
-2.14911e-14
-2.14981e-14
-2.14921e-14
-2.1498e-14
-2.14923e-14
-2.1498e-14
-2.14924e-14
-2.14981e-14
-2.14924e-14
)
;

boundaryField
{
    walls
    {
        type            zeroGradient;
    }
    inlet
    {
        type            cyclic;
    }
    outlet
    {
        type            cyclic;
    }
    sides
    {
        type            empty;
    }
}


// ************************************************************************* //
