/*--------------------------------*- C++ -*----------------------------------*\
| =========                 |                                                 |
| \\      /  F ield         | OpenFOAM: The Open Source CFD Toolbox           |
|  \\    /   O peration     | Version:  2012                                  |
|   \\  /    A nd           | Website:  www.openfoam.com                      |
|    \\/     M anipulation  |                                                 |
\*---------------------------------------------------------------------------*/
FoamFile
{
    version     2.0;
    format      ascii;
    class       volScalarField;
    location    "11000";
    object      p;
}
// * * * * * * * * * * * * * * * * * * * * * * * * * * * * * * * * * * * * * //

dimensions      [0 2 -2 0 0 0 0];


internalField   nonuniform List<scalar> 
1280
(
1.03265e-15
1.06968e-14
2.19212e-15
1.06969e-14
2.38624e-15
1.0697e-14
2.33211e-15
1.06973e-14
2.3232e-15
1.06976e-14
2.34171e-15
1.0698e-14
2.36174e-15
1.06986e-14
2.38092e-15
1.06991e-14
2.40012e-15
1.06997e-14
2.41921e-15
1.07002e-14
2.43783e-15
1.07008e-14
2.45587e-15
1.07012e-14
2.47329e-15
1.07014e-14
2.49022e-15
1.07016e-14
2.5066e-15
1.07016e-14
2.52248e-15
1.07014e-14
2.53812e-15
1.07008e-14
2.55347e-15
1.06999e-14
2.56855e-15
1.06986e-14
2.58361e-15
1.06972e-14
2.59861e-15
1.06953e-14
2.61334e-15
1.0693e-14
2.62822e-15
1.06903e-14
2.64348e-15
1.0687e-14
2.65891e-15
1.06833e-14
2.67479e-15
1.0679e-14
2.69095e-15
1.06739e-14
2.70756e-15
1.06681e-14
2.72494e-15
1.06619e-14
2.74291e-15
1.06552e-14
2.76129e-15
1.0648e-14
2.7804e-15
1.06403e-14
2.80019e-15
1.06321e-14
2.81989e-15
1.06233e-14
2.84052e-15
1.0614e-14
2.86199e-15
1.06036e-14
2.88482e-15
1.05931e-14
2.90833e-15
1.05826e-14
2.93333e-15
1.05707e-14
2.95975e-15
1.05556e-14
2.98747e-15
1.05405e-14
3.01707e-15
1.05255e-14
3.04843e-15
1.05101e-14
3.08104e-15
1.04928e-14
3.11547e-15
1.04738e-14
3.1496e-15
1.04544e-14
3.18753e-15
1.04344e-14
3.2275e-15
1.04119e-14
3.26847e-15
1.0387e-14
3.31357e-15
1.03581e-14
3.35739e-15
1.03289e-14
3.4004e-15
1.02995e-14
3.44675e-15
1.02685e-14
3.49615e-15
1.02361e-14
3.54926e-15
1.02024e-14
3.60481e-15
1.0165e-14
3.66147e-15
1.01249e-14
3.72081e-15
1.00834e-14
3.78344e-15
1.00408e-14
3.84796e-15
9.99534e-15
3.91184e-15
9.95042e-15
3.97665e-15
9.90113e-15
4.04296e-15
9.84983e-15
4.11025e-15
9.80011e-15
4.1802e-15
9.75237e-15
4.2523e-15
9.7026e-15
4.326e-15
9.65565e-15
4.39619e-15
9.60741e-15
4.46445e-15
9.56288e-15
4.53706e-15
9.52025e-15
4.61107e-15
9.47059e-15
4.69297e-15
9.41653e-15
4.77507e-15
9.36558e-15
4.85673e-15
9.31088e-15
4.9422e-15
9.25516e-15
5.02351e-15
9.20614e-15
5.11485e-15
9.16181e-15
5.20071e-15
9.11503e-15
5.28286e-15
9.07873e-15
5.36815e-15
9.03819e-15
5.4508e-15
8.99367e-15
5.53011e-15
8.95834e-15
5.61566e-15
8.93269e-15
5.71724e-15
8.90159e-15
5.80303e-15
8.87044e-15
5.88275e-15
8.829e-15
5.95568e-15
8.80393e-15
6.03707e-15
8.77978e-15
6.12096e-15
8.75148e-15
6.20141e-15
8.72998e-15
6.28319e-15
8.70485e-15
6.37125e-15
8.68717e-15
6.45971e-15
8.66071e-15
6.53183e-15
8.61437e-15
6.62582e-15
8.5698e-15
6.70905e-15
8.54288e-15
6.78145e-15
8.52223e-15
6.8371e-15
8.49658e-15
6.90324e-15
8.47709e-15
6.97397e-15
8.45255e-15
7.05491e-15
8.41684e-15
7.12418e-15
8.38539e-15
7.19341e-15
8.36831e-15
7.25147e-15
8.35344e-15
7.32087e-15
8.32878e-15
7.37958e-15
8.3156e-15
7.42777e-15
8.3017e-15
7.47688e-15
8.29767e-15
7.52696e-15
8.2683e-15
7.57908e-15
8.25745e-15
7.63376e-15
8.25258e-15
7.68023e-15
8.20639e-15
7.74386e-15
8.1269e-15
7.77209e-15
8.09926e-15
7.81312e-15
8.08598e-15
7.84573e-15
8.03836e-15
7.85056e-15
8.02126e-15
7.8738e-15
8.0218e-15
7.89283e-15
8.02754e-15
7.88487e-15
8.01447e-15
7.90777e-15
8.01656e-15
7.90398e-15
8.0085e-15
7.88425e-15
7.97811e-15
7.88296e-15
7.98119e-15
7.85247e-15
7.99285e-15
7.90531e-15
8.01671e-15
7.90563e-15
8.05118e-15
7.94205e-15
8.1026e-15
7.98757e-15
8.10444e-15
8.02267e-15
8.09997e-15
8.0751e-15
8.10839e-15
8.10027e-15
8.12345e-15
8.14538e-15
8.14169e-15
8.16688e-15
8.18075e-15
8.22859e-15
8.19601e-15
8.2456e-15
8.22815e-15
8.25999e-15
8.27782e-15
8.31684e-15
8.30158e-15
8.3529e-15
8.29421e-15
8.33025e-15
8.29606e-15
8.40872e-15
8.26417e-15
8.41407e-15
8.28988e-15
8.41538e-15
8.32728e-15
8.3552e-15
8.39022e-15
8.36135e-15
8.39728e-15
8.38922e-15
8.44241e-15
8.40023e-15
8.44683e-15
8.39177e-15
8.45774e-15
8.39191e-15
8.43105e-15
8.41169e-15
8.40113e-15
8.38011e-15
8.40302e-15
8.37881e-15
8.39984e-15
8.36652e-15
8.40145e-15
8.38155e-15
8.41271e-15
8.3702e-15
8.37934e-15
8.35337e-15
8.38978e-15
8.36852e-15
8.37966e-15
8.36795e-15
8.45701e-15
8.38844e-15
8.43854e-15
8.34958e-15
8.38474e-15
8.23404e-15
8.61224e-15
8.23427e-15
8.61232e-15
8.23453e-15
8.61243e-15
8.23497e-15
8.6126e-15
8.23555e-15
8.61281e-15
8.23627e-15
8.61305e-15
8.23715e-15
8.6134e-15
8.23811e-15
8.61385e-15
8.23931e-15
8.61427e-15
8.24064e-15
8.6147e-15
8.24208e-15
8.61526e-15
8.24361e-15
8.61595e-15
8.24523e-15
8.61673e-15
8.24695e-15
8.61764e-15
8.24874e-15
8.61863e-15
8.2507e-15
8.61956e-15
8.2527e-15
8.62055e-15
8.25477e-15
8.62165e-15
8.25676e-15
8.62302e-15
8.25884e-15
8.62448e-15
8.26092e-15
8.62625e-15
8.26304e-15
8.62798e-15
8.26531e-15
8.62972e-15
8.26793e-15
8.63164e-15
8.27095e-15
8.63398e-15
8.27386e-15
8.63673e-15
8.27679e-15
8.63957e-15
8.28015e-15
8.64261e-15
8.28327e-15
8.64635e-15
8.28629e-15
8.65021e-15
8.28937e-15
8.65394e-15
8.29254e-15
8.65792e-15
8.29597e-15
8.66243e-15
8.2997e-15
8.66736e-15
8.30348e-15
8.67303e-15
8.30735e-15
8.67857e-15
8.31193e-15
8.68399e-15
8.31668e-15
8.69019e-15
8.32194e-15
8.69625e-15
8.32746e-15
8.70314e-15
8.33291e-15
8.71023e-15
8.33834e-15
8.71785e-15
8.34449e-15
8.72494e-15
8.35069e-15
8.73146e-15
8.35737e-15
8.73812e-15
8.36419e-15
8.74649e-15
8.37162e-15
8.75583e-15
8.37889e-15
8.76251e-15
8.38607e-15
8.76888e-15
8.39405e-15
8.77493e-15
8.40206e-15
8.78415e-15
8.40837e-15
8.79397e-15
8.41845e-15
8.79896e-15
8.42695e-15
8.8045e-15
8.43201e-15
8.81249e-15
8.43838e-15
8.81821e-15
8.44621e-15
8.8216e-15
8.45366e-15
8.82357e-15
8.45776e-15
8.82915e-15
8.46161e-15
8.83334e-15
8.4632e-15
8.83821e-15
8.47105e-15
8.84381e-15
8.47686e-15
8.84806e-15
8.47962e-15
8.85205e-15
8.47826e-15
8.85363e-15
8.47501e-15
8.8528e-15
8.47448e-15
8.85407e-15
8.47684e-15
8.8553e-15
8.47768e-15
8.85424e-15
8.47946e-15
8.84857e-15
8.48472e-15
8.84768e-15
8.48896e-15
8.84699e-15
8.4923e-15
8.84177e-15
8.4925e-15
8.83203e-15
8.49948e-15
8.82511e-15
8.50122e-15
8.82115e-15
8.5053e-15
8.81531e-15
8.51194e-15
8.81268e-15
8.51634e-15
8.81595e-15
8.51864e-15
8.81519e-15
8.52156e-15
8.80792e-15
8.52275e-15
8.80452e-15
8.52239e-15
8.80258e-15
8.51539e-15
8.79706e-15
8.51748e-15
8.78813e-15
8.52369e-15
8.78113e-15
8.50245e-15
8.78155e-15
8.49612e-15
8.78457e-15
8.49406e-15
8.77986e-15
8.48562e-15
8.7676e-15
8.48166e-15
8.75334e-15
8.48237e-15
8.75898e-15
8.48225e-15
8.74682e-15
8.48689e-15
8.72785e-15
8.48023e-15
8.71315e-15
8.47873e-15
8.71416e-15
8.47673e-15
8.71486e-15
8.48528e-15
8.69908e-15
8.49388e-15
8.67785e-15
8.50319e-15
8.6677e-15
8.51926e-15
8.67436e-15
8.53107e-15
8.68161e-15
8.54439e-15
8.68447e-15
8.55953e-15
8.68332e-15
8.57712e-15
8.6783e-15
8.58647e-15
8.66947e-15
8.58819e-15
8.6682e-15
8.58249e-15
8.6865e-15
8.58002e-15
8.68023e-15
8.59233e-15
8.6616e-15
8.59773e-15
8.65291e-15
8.59671e-15
8.63111e-15
8.60164e-15
8.63099e-15
8.56625e-15
8.63162e-15
8.55775e-15
8.61287e-15
8.53002e-15
8.58655e-15
8.52873e-15
8.56578e-15
8.52083e-15
8.53877e-15
8.49583e-15
8.52788e-15
8.46417e-15
8.52278e-15
8.4593e-15
8.52652e-15
8.44554e-15
8.5059e-15
8.42385e-15
8.50802e-15
8.3932e-15
8.53739e-15
8.34824e-15
8.53134e-15
8.3089e-15
8.51797e-15
8.31585e-15
8.47674e-15
8.35069e-15
8.47222e-15
8.37065e-15
8.45253e-15
8.37915e-15
8.4375e-15
8.44891e-15
8.44903e-15
8.47101e-15
8.48172e-15
8.49244e-15
8.51573e-15
8.55849e-15
8.53171e-15
8.56263e-15
8.52223e-15
8.59921e-15
8.55567e-15
8.55356e-15
8.60905e-15
8.57146e-15
8.60618e-15
8.58279e-15
8.56669e-15
8.5723e-15
8.55083e-15
8.49613e-15
8.53323e-15
8.493e-15
8.55359e-15
8.50881e-15
8.52349e-15
8.50867e-15
8.52139e-15
8.47748e-15
8.5399e-15
8.39709e-15
8.49985e-15
8.43139e-15
8.49864e-15
8.49759e-15
8.52661e-15
8.4756e-15
8.52759e-15
8.45002e-15
8.46757e-15
8.42501e-15
8.47461e-15
8.38925e-15
8.41891e-15
8.39151e-15
8.42785e-15
8.43157e-15
8.45879e-15
8.37372e-15
8.41647e-15
8.34389e-15
8.35603e-15
8.40255e-15
8.43914e-15
8.45051e-15
8.46185e-15
8.31955e-15
8.49285e-15
8.35434e-15
8.55126e-15
8.33544e-15
8.3486e-15
8.32115e-15
8.3219e-15
8.32133e-15
8.31533e-15
8.28794e-15
8.37573e-15
8.18124e-15
8.23316e-15
8.10991e-15
8.1554e-15
7.94325e-15
8.1398e-15
7.87005e-15
8.06741e-15
7.85529e-15
7.89015e-15
7.71088e-15
7.72284e-15
7.58535e-15
7.59279e-15
7.44144e-15
7.49462e-15
7.29819e-15
7.34561e-15
7.19886e-15
7.23221e-15
7.15792e-15
7.15942e-15
7.00518e-15
7.02798e-15
6.83573e-15
6.89594e-15
6.77821e-15
6.81702e-15
6.72676e-15
6.76246e-15
6.65837e-15
6.68764e-15
6.62219e-15
6.61839e-15
6.60757e-15
6.61632e-15
6.56919e-15
6.56873e-15
6.53311e-15
6.54193e-15
6.47146e-15
6.5198e-15
6.46995e-15
6.50737e-15
6.4357e-15
6.5004e-15
6.38614e-15
6.50104e-15
6.36173e-15
6.53834e-15
6.37882e-15
6.50502e-15
6.37676e-15
6.46297e-15
6.38506e-15
6.45266e-15
6.38392e-15
6.44934e-15
6.39818e-15
6.45503e-15
6.43146e-15
6.39858e-15
6.42295e-15
6.40785e-15
6.41728e-15
6.4137e-15
6.43769e-15
6.41731e-15
6.43896e-15
6.41706e-15
6.42028e-15
6.41297e-15
6.40317e-15
6.40739e-15
6.398e-15
6.41366e-15
6.39168e-15
6.40919e-15
6.38485e-15
6.40539e-15
6.37809e-15
6.39042e-15
6.37145e-15
6.38688e-15
6.36453e-15
6.39463e-15
6.35682e-15
6.40294e-15
6.34761e-15
6.37763e-15
6.33771e-15
6.34086e-15
6.3279e-15
6.33724e-15
6.31771e-15
6.34394e-15
6.30661e-15
6.35033e-15
6.29398e-15
6.34608e-15
6.26814e-15
6.33155e-15
6.26265e-15
6.31819e-15
6.25511e-15
6.30559e-15
6.25714e-15
6.30495e-15
6.25759e-15
6.30493e-15
6.25633e-15
6.30572e-15
6.23667e-15
6.29629e-15
6.2265e-15
6.29368e-15
6.22008e-15
6.30346e-15
6.22272e-15
6.30922e-15
6.22338e-15
6.30002e-15
6.21687e-15
6.29787e-15
6.20875e-15
6.2863e-15
6.21009e-15
6.27622e-15
6.22113e-15
6.27827e-15
6.21486e-15
6.28122e-15
6.20765e-15
6.27438e-15
6.19956e-15
6.28487e-15
6.19048e-15
6.2912e-15
6.18564e-15
6.28281e-15
6.17977e-15
6.2757e-15
6.17296e-15
6.26445e-15
6.16531e-15
6.27001e-15
6.162e-15
6.27136e-15
6.16296e-15
6.26334e-15
6.16309e-15
6.25626e-15
6.15991e-15
6.25766e-15
6.1611e-15
6.25471e-15
6.1616e-15
6.25246e-15
6.16398e-15
6.25084e-15
6.16576e-15
6.24732e-15
6.16702e-15
6.24431e-15
6.16289e-15
6.24908e-15
6.16077e-15
6.25668e-15
6.16539e-15
6.25747e-15
6.16476e-15
6.25393e-15
6.16848e-15
6.25083e-15
6.1695e-15
6.25512e-15
6.17251e-15
6.25509e-15
6.17522e-15
6.25538e-15
6.17766e-15
6.25143e-15
6.17985e-15
6.25001e-15
6.18184e-15
6.24002e-15
6.18366e-15
6.23035e-15
6.18642e-15
6.22308e-15
6.19015e-15
6.21813e-15
6.1896e-15
6.21749e-15
6.18799e-15
6.21487e-15
6.18941e-15
6.21437e-15
6.18778e-15
6.21392e-15
6.18714e-15
6.21253e-15
6.18745e-15
6.20929e-15
6.18869e-15
6.20707e-15
6.18896e-15
6.20585e-15
6.18831e-15
6.20466e-15
6.19123e-15
6.20351e-15
6.18973e-15
6.20239e-15
6.18739e-15
6.20131e-15
6.18595e-15
6.20109e-15
6.18535e-15
6.20088e-15
6.18397e-15
6.20148e-15
6.18183e-15
6.20286e-15
6.1805e-15
6.20231e-15
6.17994e-15
6.20179e-15
6.18047e-15
6.20273e-15
6.18027e-15
6.20295e-15
6.17938e-15
6.20318e-15
6.17984e-15
6.20374e-15
6.17995e-15
6.20462e-15
6.17974e-15
6.20548e-15
6.18014e-15
6.20602e-15
6.18022e-15
6.20597e-15
6.18029e-15
6.20564e-15
6.18035e-15
6.20588e-15
6.18014e-15
6.2064e-15
6.18018e-15
6.20638e-15
6.18009e-15
6.20637e-15
6.18012e-15
6.20661e-15
6.18003e-15
6.2065e-15
6.18016e-15
6.20627e-15
6.18041e-15
6.20652e-15
6.18019e-15
6.20689e-15
6.18019e-15
6.20691e-15
6.1803e-15
6.20706e-15
6.1803e-15
6.2071e-15
6.18012e-15
6.20725e-15
6.18016e-15
6.20741e-15
6.18021e-15
6.20752e-15
6.18001e-15
6.20764e-15
6.17993e-15
6.20782e-15
6.17971e-15
6.20795e-15
6.17968e-15
6.20796e-15
6.17965e-15
6.208e-15
6.17958e-15
6.20812e-15
6.17947e-15
6.20831e-15
6.17942e-15
6.20836e-15
6.17941e-15
6.20843e-15
6.17936e-15
6.20849e-15
6.1793e-15
6.20858e-15
6.1793e-15
6.20862e-15
6.17924e-15
6.20868e-15
6.1792e-15
6.20873e-15
6.17918e-15
6.20878e-15
6.17916e-15
6.20882e-15
6.17915e-15
6.20884e-15
6.17914e-15
6.20885e-15
8.30984e-15
8.49693e-15
8.43116e-15
8.41715e-15
8.44696e-15
8.40827e-15
8.37573e-15
8.40405e-15
8.31349e-15
8.27727e-15
8.20817e-15
8.19205e-15
8.18404e-15
8.15661e-15
8.08421e-15
8.06393e-15
7.94436e-15
7.91335e-15
7.83628e-15
7.80309e-15
7.66979e-15
7.69569e-15
7.60582e-15
7.6172e-15
7.5187e-15
7.51625e-15
7.37296e-15
7.3468e-15
7.2628e-15
7.23524e-15
7.08048e-15
7.0789e-15
6.95717e-15
6.97727e-15
6.84467e-15
6.89173e-15
6.80056e-15
6.80332e-15
6.74061e-15
6.69655e-15
6.65185e-15
6.65271e-15
6.58992e-15
6.61268e-15
6.54564e-15
6.60062e-15
6.53657e-15
6.50662e-15
6.50932e-15
6.4994e-15
6.51059e-15
6.51259e-15
6.51472e-15
6.52649e-15
6.47558e-15
6.54402e-15
6.45684e-15
6.52674e-15
6.43518e-15
6.5179e-15
6.43039e-15
6.4965e-15
6.42102e-15
6.46124e-15
6.4092e-15
6.40736e-15
6.37537e-15
6.39823e-15
6.38522e-15
6.43557e-15
6.38825e-15
6.45577e-15
6.36039e-15
6.46051e-15
6.3688e-15
6.47544e-15
6.38961e-15
6.47753e-15
6.39042e-15
6.44156e-15
6.38665e-15
6.41018e-15
6.40412e-15
6.41543e-15
6.37449e-15
6.42144e-15
6.34165e-15
6.43053e-15
6.34923e-15
6.42197e-15
6.35227e-15
6.42961e-15
6.33947e-15
6.4305e-15
6.33345e-15
6.44799e-15
6.32194e-15
6.43681e-15
6.32823e-15
6.42007e-15
6.33076e-15
6.41997e-15
6.31859e-15
6.41318e-15
6.31464e-15
6.38795e-15
6.30843e-15
6.37722e-15
6.31176e-15
6.38053e-15
6.30232e-15
6.37515e-15
6.29145e-15
6.3612e-15
6.29061e-15
6.34981e-15
6.31135e-15
6.32914e-15
6.29841e-15
6.30921e-15
6.29136e-15
6.30086e-15
6.28469e-15
6.30398e-15
6.28383e-15
6.29638e-15
6.27775e-15
6.2834e-15
6.27208e-15
6.27034e-15
6.26684e-15
6.25152e-15
6.26777e-15
6.2432e-15
6.25849e-15
6.23973e-15
6.24983e-15
6.25218e-15
6.24137e-15
6.23721e-15
6.23316e-15
6.21655e-15
6.21993e-15
6.22246e-15
6.21222e-15
6.22803e-15
6.20984e-15
6.22271e-15
6.20215e-15
6.22257e-15
6.19442e-15
6.22238e-15
6.18659e-15
6.22225e-15
6.18905e-15
6.21698e-15
6.19139e-15
6.22215e-15
6.1936e-15
6.22219e-15
6.19826e-15
6.21974e-15
6.19779e-15
6.21987e-15
6.1973e-15
6.2175e-15
6.20433e-15
6.21517e-15
6.20637e-15
6.21779e-15
6.20597e-15
6.22778e-15
6.19823e-15
6.22796e-15
6.19534e-15
6.2258e-15
6.19724e-15
6.22372e-15
6.18717e-15
6.22169e-15
6.18418e-15
6.2174e-15
6.1788e-15
6.22022e-15
6.17567e-15
6.22539e-15
6.17698e-15
6.22606e-15
6.17813e-15
6.2223e-15
6.17691e-15
6.2142e-15
6.1756e-15
6.21287e-15
6.17421e-15
6.2138e-15
6.17273e-15
6.21263e-15
6.17328e-15
6.21051e-15
6.17372e-15
6.20639e-15
6.17408e-15
6.21063e-15
6.16828e-15
6.21688e-15
6.16744e-15
6.21715e-15
6.16652e-15
6.21553e-15
6.16648e-15
6.21499e-15
6.16541e-15
6.21549e-15
6.16613e-15
6.21512e-15
6.16857e-15
6.21574e-15
6.16643e-15
6.21552e-15
6.16339e-15
6.21625e-15
6.16204e-15
6.21702e-15
6.1615e-15
6.21701e-15
6.1609e-15
6.21707e-15
6.16024e-15
6.21798e-15
6.15955e-15
6.2201e-15
6.15957e-15
6.21994e-15
6.1599e-15
6.21984e-15
6.15981e-15
6.21908e-15
6.15933e-15
6.21873e-15
6.16018e-15
6.21946e-15
6.16029e-15
6.22087e-15
6.16069e-15
6.22036e-15
6.16103e-15
6.22052e-15
6.16102e-15
6.22101e-15
6.16128e-15
6.22064e-15
6.16121e-15
6.22032e-15
6.16111e-15
6.21975e-15
6.16098e-15
6.2195e-15
6.16122e-15
6.21967e-15
6.16156e-15
6.21987e-15
6.16162e-15
6.21958e-15
6.16166e-15
6.21932e-15
6.16179e-15
6.21921e-15
6.16143e-15
6.21947e-15
6.16152e-15
6.21916e-15
6.16136e-15
6.219e-15
6.1613e-15
6.21896e-15
6.16123e-15
6.21905e-15
6.16108e-15
6.21898e-15
6.16086e-15
6.21887e-15
6.16073e-15
6.21882e-15
6.16078e-15
6.21879e-15
6.16081e-15
6.21871e-15
6.16083e-15
6.2187e-15
6.16083e-15
6.21864e-15
6.1608e-15
6.21845e-15
6.16086e-15
6.21834e-15
6.16091e-15
6.21833e-15
6.16091e-15
6.21834e-15
6.16095e-15
6.21827e-15
6.161e-15
6.21818e-15
6.16104e-15
6.21807e-15
6.16101e-15
6.218e-15
6.161e-15
6.21799e-15
6.16104e-15
6.21799e-15
6.16103e-15
6.21798e-15
6.16102e-15
6.21797e-15
6.16102e-15
6.21796e-15
6.16103e-15
6.21796e-15
)
;

boundaryField
{
    walls
    {
        type            zeroGradient;
    }
    inlet
    {
        type            cyclic;
    }
    outlet
    {
        type            cyclic;
    }
    sides
    {
        type            empty;
    }
}


// ************************************************************************* //
