/*--------------------------------*- C++ -*----------------------------------*\
| =========                 |                                                 |
| \\      /  F ield         | OpenFOAM: The Open Source CFD Toolbox           |
|  \\    /   O peration     | Version:  2012                                  |
|   \\  /    A nd           | Website:  www.openfoam.com                      |
|    \\/     M anipulation  |                                                 |
\*---------------------------------------------------------------------------*/
FoamFile
{
    version     2.0;
    format      ascii;
    class       volTensorField;
    location    "10000";
    object      grad(U);
}
// * * * * * * * * * * * * * * * * * * * * * * * * * * * * * * * * * * * * * //

dimensions      [0 0 -1 0 0 0 0];


internalField   nonuniform List<tensor> 
2560
(
(0 -7.54984e-25 -3.24829e-32 31.5044 -3.94127e-12 1.2827e-13 0.0456068 -1.14102e-14 5.22256e-17)
(0 -4.15781e-30 1.62414e-32 31.5044 6.29916e-16 -1.74224e-17 0.0456068 -4.88881e-18 -3.98855e-18)
(-1.80242e-17 8.19643e-30 1.93028e-26 31.4998 -3.54625e-12 4.5101e-14 0.13747 -1.85366e-14 1.32468e-16)
(0 -4.09822e-30 0 31.4998 4.40024e-15 -2.33718e-17 0.13747 8.36263e-18 -9.49103e-17)
(2.97583e-17 -8.55605e-26 5.95329e-32 31.4953 1.61564e-27 2.49746e-14 0.189054 3.15544e-30 1.65452e-16)
(-3.55316e-17 4.03948e-30 -1.26234e-31 31.4953 3.2226e-15 -2.31121e-17 0.189054 1.28089e-17 -9.7772e-17)
(8.85584e-17 -1.00674e-29 5.66741e-31 31.491 8.01403e-13 2.77706e-14 0.191777 -8.77216e-15 1.70406e-16)
(-7.00448e-17 7.96317e-30 -4.97698e-31 31.491 4.23853e-15 -3.96471e-17 0.191777 2.11142e-17 -1.0081e-16)
(1.38082e-16 -1.96226e-29 7.35847e-31 31.4868 3.69556e-14 2.81715e-14 0.194541 -8.61906e-16 1.75253e-16)
(-6.90408e-17 1.96226e-29 -6.13206e-31 31.4868 4.20944e-15 -4.36233e-17 0.194541 2.59685e-17 -1.04005e-16)
(1.12599e-16 -1.10129e-29 3.16451e-31 31.4827 -5.02569e-14 2.86801e-14 0.197345 -2.06271e-16 1.81774e-16)
(3.56378e-16 7.74987e-30 -3.6265e-31 31.4827 4.19239e-15 -4.4757e-17 0.197345 2.62158e-17 -1.07353e-16)
(-5.7846e-17 -7.06263e-28 1.60319e-31 31.4788 -1.04781e-27 2.93137e-14 0.20019 0 1.88446e-16)
(2.31384e-16 7.63681e-30 -4.76603e-31 31.4788 4.18509e-15 -4.64526e-17 0.20019 2.66364e-17 -1.10866e-16)
(-7.13363e-17 1.45825e-29 -5.52528e-31 31.4751 -1.20203e-15 2.99211e-14 0.203077 -2.0533e-17 1.94937e-16)
(2.85345e-16 -7.50021e-30 2.34886e-31 31.4751 4.16338e-15 -4.92006e-17 0.203077 2.67036e-17 -1.14547e-16)
(8.50211e-17 -1.44164e-29 5.50762e-31 31.4714 -5.66895e-15 3.04985e-14 0.206006 -5.33886e-17 2.01526e-16)
(0 1.11129e-29 -6.94559e-31 31.4714 4.06521e-15 -5.19447e-17 0.206006 2.61314e-17 -1.18413e-16)
(0 3.65122e-30 -4.56403e-31 31.4678 -8.58546e-15 3.10771e-14 0.208977 -5.98738e-17 2.08332e-16)
(0 0 2.28201e-31 31.4678 4.01623e-15 -5.40149e-17 0.208977 2.68353e-17 -1.22469e-16)
(-1.12986e-16 -1.10902e-29 5.76588e-31 31.4642 -8.86908e-15 3.16645e-14 0.211992 -5.87745e-17 2.15346e-16)
(0 1.79945e-29 -6.74792e-31 31.4642 4.06026e-15 -5.53996e-17 0.211992 2.74901e-17 -1.26719e-16)
(3.76891e-16 -2.81379e-29 1.21227e-30 31.4606 -8.61846e-15 3.2258e-14 0.21505 -5.82013e-17 2.2255e-16)
(0 2.48312e-29 -8.86827e-31 31.4606 4.11485e-15 -5.74303e-17 0.21505 2.83678e-17 -1.31176e-16)
(0 -3.49647e-30 6.55588e-31 31.4569 -8.56553e-15 3.28557e-14 0.218151 -5.9762e-17 2.29944e-16)
(0 3.49647e-30 -6.55588e-31 31.4569 4.23825e-15 -6.25565e-17 0.218151 3.0007e-17 -1.35852e-16)
(-1.56464e-16 1.36482e-29 -9.77014e-31 31.4531 -8.61522e-15 3.34566e-14 0.221296 -6.06054e-17 2.37525e-16)
(6.25855e-16 -6.84611e-30 6.46191e-31 31.4531 4.21863e-15 -6.57757e-17 0.221296 2.89228e-17 -1.40757e-16)
(0 2.71757e-29 -1.48617e-30 31.449 -8.53098e-15 3.406e-14 0.224483 -6.03098e-17 2.45294e-16)
(0 -2.71757e-29 1.48617e-30 31.449 4.05668e-15 -6.31456e-17 0.224483 2.85739e-17 -1.4589e-16)
(-1.86505e-16 3.31171e-30 -1.27986e-31 31.4445 -8.47997e-15 3.46656e-14 0.227713 -6.1642e-17 2.53255e-16)
(7.46021e-16 5.80632e-32 0 31.4445 3.97898e-15 -6.42074e-17 0.227713 2.86445e-17 -1.51255e-16)
(0 2.97025e-29 -1.44387e-30 31.4393 -8.60289e-15 3.52715e-14 0.230984 -6.38829e-17 2.61384e-16)
(-8.07408e-16 -2.97672e-29 1.44387e-30 31.4393 3.81963e-15 -7.14076e-17 0.230984 2.70691e-17 -1.56888e-16)
(0 1.95179e-29 -1.42318e-30 31.4334 -8.79778e-15 3.58756e-14 0.234295 -6.63533e-17 2.6968e-16)
(-8.69681e-16 -1.95866e-29 1.42318e-30 31.4334 3.86393e-15 -7.56407e-17 0.234295 3.01441e-17 -1.62794e-16)
(2.25627e-16 -3.20636e-30 4.00795e-31 31.4264 -8.72659e-15 3.64763e-14 0.237644 -6.46775e-17 2.78126e-16)
(0 3.20636e-30 -4.00795e-31 31.4264 3.75165e-15 -7.79836e-17 0.237644 2.61638e-17 -1.68977e-16)
(2.49233e-16 1.56447e-29 -8.31664e-31 31.418 -8.27826e-15 3.70709e-14 0.241029 -6.1417e-17 2.86705e-16)
(-9.96932e-16 -2.53689e-29 1.38268e-30 31.418 3.14295e-15 -7.50246e-17 0.241029 2.16862e-17 -1.75455e-16)
(0 2.49208e-29 -1.94694e-30 31.4078 -8.30521e-15 3.76568e-14 0.244447 -6.69917e-17 2.95396e-16)
(0 -2.49208e-29 1.94694e-30 31.4078 3.16478e-15 -7.09784e-17 0.244447 2.72702e-17 -1.82193e-16)
(-2.81967e-16 2.48713e-31 5.96114e-31 31.3954 -8.85621e-15 3.8229e-14 0.247894 -7.19193e-17 3.04141e-16)
(0 9.21137e-30 -1.15142e-30 31.3954 3.77584e-15 -7.79733e-17 0.247894 3.19731e-17 -1.89229e-16)
(5.53184e-16 -2.99697e-29 2.43656e-30 31.3803 -8.91125e-15 2.08919e-14 0.251365 -6.98362e-17 8.30929e-17)
(-4.25935e-16 3.3291e-29 -2.64814e-30 31.3803 3.83731e-15 -9.06812e-17 0.251365 2.90541e-17 -1.96598e-16)
(0 1.19323e-29 -1.86442e-30 31.3617 -8.5949e-15 8.25592e-15 0.254854 -6.88828e-17 4.99222e-17)
(-1.26258e-15 -2.09885e-29 2.23731e-30 31.3617 3.53202e-15 -9.69043e-17 0.254854 2.79464e-17 -2.04318e-16)
(3.32842e-16 2.01979e-29 -1.61917e-30 31.339 -8.51359e-15 6.0645e-15 0.258354 -7.05407e-17 4.93812e-17)
(0 -2.35225e-29 1.8377e-30 31.339 3.31694e-15 -9.36367e-17 0.258354 2.63576e-17 -2.12377e-16)
(-1.10845e-15 3.27365e-29 -2.97423e-30 31.3114 -8.44128e-15 5.89391e-15 0.261857 -6.96905e-17 4.85299e-17)
(4.07882e-16 -2.60836e-29 2.5359e-30 31.3114 3.22256e-15 -8.626e-17 0.261857 2.71857e-17 -2.20776e-16)
(1.90798e-15 -3.85492e-29 3.15884e-30 31.2778 -8.46092e-15 5.70731e-15 0.265352 -7.29405e-17 4.76598e-17)
(2.13967e-15 3.16738e-29 -2.49956e-30 31.2778 3.43813e-15 -8.7395e-17 0.265352 3.07896e-17 -2.29503e-16)
(0 -1.97099e-29 1.75981e-30 31.2373 -8.71821e-15 1.24791e-14 0.268829 -7.61637e-17 1.66591e-16)
(1.54359e-15 2.26568e-29 -2.11177e-30 31.2373 3.7569e-15 -9.57298e-17 0.268829 3.34727e-17 -2.38584e-16)
(4.04074e-16 7.77075e-30 -4.98124e-31 31.1886 -8.82393e-15 2.43779e-14 0.272274 -7.69246e-17 2.56983e-16)
(0 -5.55068e-30 3.46917e-31 31.1886 3.86509e-15 -1.10301e-16 0.272274 3.3582e-17 -2.48013e-16)
(-8.4499e-16 1.21365e-29 -4.05593e-31 31.1304 -8.66256e-15 2.94463e-14 0.275673 -7.55339e-17 2.61328e-16)
(-3.37996e-15 -5.77361e-30 0 31.1304 3.41754e-15 -1.27102e-16 0.275673 2.65186e-17 -2.57857e-16)
(-4.41161e-16 1.41202e-29 -1.55104e-30 31.0613 -8.25269e-15 2.94803e-14 0.279008 -7.18058e-17 2.65122e-16)
(-1.76464e-15 -8.24927e-30 6.74088e-31 31.0613 2.68334e-15 -1.25303e-16 0.279008 2.13599e-17 -2.68097e-16)
(0 1.59462e-29 -1.99328e-30 30.9799 -8.19369e-15 2.94341e-14 0.282261 -7.667e-17 2.68142e-16)
(-1.84028e-15 -1.61116e-29 1.99328e-30 30.9799 2.4628e-15 -1.11237e-16 0.282261 2.3271e-17 -2.78596e-16)
(0 -2.61962e-29 1.63726e-30 30.8843 -8.77793e-15 2.93129e-14 0.285412 -8.47255e-17 2.70645e-16)
(1.91687e-15 2.63667e-29 -1.63726e-30 30.8843 2.73311e-15 -1.02559e-16 0.285412 2.69901e-17 -2.89346e-16)
(-4.98602e-16 3.33912e-30 -5.24689e-31 30.7731 -8.95859e-15 2.91223e-14 0.28844 -8.23091e-17 2.72416e-16)
(0 5.16414e-30 0 30.7731 3.00412e-15 -1.06225e-16 0.28844 2.9043e-17 -3.00399e-16)
(-5.18217e-16 2.37024e-29 -2.74667e-30 30.6444 -8.44584e-15 2.88384e-14 0.291321 -7.74367e-17 2.73162e-16)
(0 -2.03605e-29 2.54506e-30 30.6444 2.76166e-15 -1.23738e-16 0.291321 2.31604e-17 -3.11819e-16)
(-1.24416e-15 1.33783e-29 -1.45559e-30 30.4965 -8.00794e-15 2.84444e-14 0.29403 -7.62543e-17 2.7278e-16)
(-2.15222e-15 -5.2186e-30 9.40719e-31 30.4965 1.98763e-15 -1.31805e-16 0.29403 1.49296e-17 -3.23569e-16)
(5.58109e-16 -8.29138e-30 1.74635e-30 30.3278 -7.70783e-15 2.79468e-14 0.296545 -7.38186e-17 2.71405e-16)
(0 4.94526e-30 -1.54539e-30 30.3278 1.87419e-15 -1.20297e-16 0.296545 2.16137e-17 -3.35539e-16)
(5.78367e-16 -2.28448e-29 1.72379e-30 30.1366 -7.6556e-15 2.73659e-14 0.29884 -7.74488e-17 2.69211e-16)
(0 1.94975e-29 -1.52324e-30 30.1366 2.53659e-15 -1.24847e-16 0.29884 2.85483e-17 -3.47704e-16)
(-5.98819e-16 8.15318e-30 -8.00739e-31 29.9216 -7.80622e-15 2.66798e-14 0.30089 -7.90217e-17 2.65503e-16)
(0 0 6.00565e-31 29.9216 2.73519e-15 -6.41441e-17 0.30089 2.62563e-17 -3.602e-16)
(0 1.4207e-29 -1.77587e-30 29.6813 -7.8709e-15 2.58693e-14 0.302672 -8.10424e-17 2.60495e-16)
(0 -2.36783e-29 2.36783e-30 29.6813 2.40106e-15 6.29728e-16 0.302672 2.25409e-17 -3.72501e-16)
(-6.40245e-16 3.35228e-30 -1.9925e-31 29.4148 -7.78805e-15 2.49763e-14 0.304166 -7.96148e-17 2.54725e-16)
(1.90405e-15 2.37433e-31 -5.83473e-31 29.4148 2.20916e-15 1.29162e-15 0.304166 2.30376e-17 -3.81733e-16)
(0 -2.30044e-29 3.45066e-30 29.1214 -7.64642e-15 2.39964e-14 0.305352 -8.04307e-17 2.47468e-16)
(2.64474e-15 2.32524e-29 -3.45066e-30 29.1214 1.96408e-15 1.3622e-15 0.305352 1.80344e-17 -3.90793e-16)
(6.82254e-16 1.47847e-29 -9.35643e-31 28.8005 -7.79756e-15 2.29224e-14 0.306214 -8.51796e-17 2.39214e-16)
(-2.72902e-15 -2.74623e-29 2.26747e-30 28.8005 1.91195e-15 1.43644e-15 0.306214 2.25975e-17 -3.9974e-16)
(7.03429e-16 -1.22974e-29 7.57338e-31 28.4523 -7.92253e-15 2.17866e-14 0.30674 -8.54986e-17 2.30071e-16)
(0 8.93989e-30 -5.58743e-31 28.4523 2.07929e-15 1.52475e-15 0.30674 2.21939e-17 -4.07716e-16)
(-7.24688e-16 3.35959e-30 3.47834e-31 28.0769 -7.9127e-15 2.05944e-14 0.30692 -8.74583e-17 2.19975e-16)
(0 0 -1.10147e-30 28.0769 1.96943e-15 1.61286e-15 0.30692 2.0841e-17 -4.12369e-16)
(-4.76361e-16 9.8225e-31 -8.78503e-31 27.6751 -8.247e-15 1.93309e-14 0.306751 -9.54699e-17 2.0859e-16)
(2.98404e-15 2.79287e-31 5.42841e-31 27.6751 1.80151e-15 1.679e-15 0.306751 1.90935e-17 -4.16379e-16)
(1.20485e-15 -4.28049e-30 5.35061e-31 27.2479 -8.43597e-15 1.80809e-14 0.306232 -9.43024e-17 1.98094e-16)
(3.06946e-15 4.56945e-30 -5.35061e-31 27.2479 1.49737e-15 1.73701e-15 0.306232 1.45594e-17 -4.19952e-16)
(-7.88735e-16 3.36595e-30 -7.42395e-31 26.7969 -7.75969e-15 1.68399e-14 0.305368 -8.27191e-17 1.86168e-16)
(0 4.21914e-30 0 26.7969 1.09501e-15 1.79298e-15 0.305368 1.04027e-17 -4.23009e-16)
(-8.10091e-16 3.36696e-30 -2.18792e-31 26.3238 -7.41451e-15 1.55382e-14 0.304167 -8.90139e-17 1.73537e-16)
(0 4.15867e-30 -5.19833e-31 26.3238 9.05708e-16 1.85476e-15 0.304167 1.05707e-17 -4.25689e-16)
(1.15378e-15 -8.19813e-30 1.02477e-30 25.8305 -7.47512e-15 1.42817e-14 0.302642 -8.65764e-17 1.61889e-16)
(0 8.19813e-30 -1.53715e-30 25.8305 1.31054e-15 1.89309e-15 0.302642 2.0287e-17 -4.27703e-16)
(-8.52663e-16 -6.66142e-31 2.79654e-31 25.3195 -6.43295e-15 1.31041e-14 0.300808 -6.6602e-17 1.50351e-16)
(-1.13725e-15 1.21209e-29 -2.02016e-30 25.3195 9.28497e-16 1.9468e-15 0.300808 5.53243e-18 -4.29378e-16)
(-2.24189e-15 2.38944e-29 -3.4846e-30 24.7931 -5.06205e-15 1.19567e-14 0.298686 -5.57224e-17 1.38684e-16)
(-2.37437e-15 -6.25453e-30 2.9868e-30 24.7931 1.35176e-29 2.02079e-15 0.298686 0 -4.30126e-16)
(-8.94887e-16 -2.0175e-29 2.22214e-30 24.2539 -4.70237e-15 1.08269e-14 0.296296 -5.9665e-17 1.26837e-16)
(2.47467e-15 3.36488e-29 -2.94399e-30 24.2539 -6.62422e-16 2.06403e-15 0.296296 4.06265e-18 -4.30444e-16)
(-1.08905e-15 2.32144e-29 -2.41817e-30 23.7044 -4.87844e-15 9.7755e-15 0.293661 -6.17689e-17 1.16388e-16)
(1.08905e-15 -2.32144e-29 2.41817e-30 23.7044 -1.28382e-15 2.10753e-15 0.293661 1.38424e-17 -4.31419e-16)
(-9.36586e-16 1.10056e-29 -3.09603e-30 23.1473 -4.77625e-15 8.79911e-15 0.290806 -5.88135e-17 1.05718e-16)
(3.74634e-15 -7.30018e-30 2.86021e-30 23.1473 -7.83556e-16 2.13694e-15 0.290806 1.81413e-17 -4.33707e-16)
(1.91437e-15 -1.42758e-29 1.8851e-30 22.5852 -4.79689e-15 7.87254e-15 0.287756 -6.41109e-17 9.58886e-17)
(3.82875e-15 7.82894e-30 -1.40961e-30 22.5852 -4.97762e-16 2.16234e-15 0.287756 5.75964e-17 -4.35637e-16)
(1.04289e-15 -1.11152e-29 2.31567e-30 22.0203 -5.25467e-15 7.0597e-15 0.284537 -7.25209e-17 8.75355e-17)
(-1.04289e-15 1.11152e-29 -2.77881e-30 22.0203 -8.9872e-16 2.19223e-15 0.284537 1.17345e-16 -4.3708e-16)
(-9.97812e-16 -2.71316e-31 1.12884e-30 21.455 -5.81451e-15 6.33791e-15 0.281172 -8.08581e-17 7.95268e-17)
(0 7.30395e-30 -2.28248e-30 21.455 -8.45293e-17 2.2558e-15 0.281172 1.87481e-16 -4.37918e-16)
(-2.03561e-15 1.75637e-29 -2.73338e-30 20.8915 -6.11507e-15 5.66309e-15 0.277687 -8.27444e-17 7.1916e-17)
(4.07122e-15 -2.13632e-29 2.24977e-30 20.8915 6.75552e-16 2.31849e-15 0.277687 2.32361e-16 -4.38045e-16)
(-1.03757e-15 -1.61863e-31 -2.42702e-31 20.3317 -5.73213e-15 5.0549e-15 0.274104 -7.27578e-17 6.52296e-17)
(0 7.09608e-30 -8.8701e-31 20.3317 6.85273e-16 2.35763e-15 0.274104 2.77983e-16 -4.37692e-16)
(-7.2728e-17 -3.60607e-30 6.3106e-31 19.7773 -5.27804e-15 4.56186e-15 0.270446 -7.25737e-17 6.03479e-17)
(3.24403e-15 1.06974e-29 -1.74859e-30 19.7773 1.15234e-15 2.3893e-15 0.270446 3.13749e-16 -4.36839e-16)
(-1.07638e-15 6.83896e-30 -1.10546e-30 19.2299 -4.74516e-15 4.15387e-15 0.266731 -5.98947e-17 5.56599e-17)
(0 0 0 19.2299 4.40609e-17 2.43127e-15 0.266731 3.39004e-16 -4.35596e-16)
(-2.19082e-15 1.6985e-29 -2.61143e-30 18.6909 -3.61729e-15 3.78685e-15 0.262979 -4.25011e-17 5.16381e-17)
(-4.38164e-15 -1.03609e-29 2.12354e-30 18.6909 -7.23545e-16 2.50037e-15 0.262979 4.05445e-16 -4.33972e-16)
(-3.17101e-15 -1.33014e-29 2.02373e-30 18.1614 -3.25267e-15 3.49034e-15 0.259207 -5.10886e-17 4.87025e-17)
(8.91345e-15 1.70301e-29 -2.51172e-30 18.1614 2.665e-17 2.52952e-15 0.259207 4.6611e-16 -4.3173e-16)
(-3.39807e-15 3.66008e-29 -4.0329e-30 17.6423 -3.47076e-15 3.24238e-15 0.25543 -5.01546e-17 4.58645e-17)
(-4.53076e-15 -2.65247e-29 3.30096e-30 17.6423 -7.95049e-16 2.5489e-15 0.25543 5.28319e-16 -4.29465e-16)
(-1.15094e-15 -1.61201e-29 3.00985e-30 17.1345 -2.76807e-15 3.03663e-15 0.251662 -3.16367e-17 4.39954e-17)
(4.60375e-15 2.28612e-29 -3.25365e-30 17.1345 -1.53656e-15 2.61032e-15 0.251662 5.8754e-16 -4.26565e-16)
(1.16892e-15 -1.62297e-29 2.64874e-30 16.6386 -2.25667e-15 2.90207e-15 0.247914 -3.61565e-17 4.31384e-17)
(0 1.28281e-29 -2.40526e-30 16.6386 -1.96381e-15 2.65527e-15 0.247914 6.52673e-16 -4.23139e-16)
(0 -2.21274e-29 2.37079e-30 16.155 -2.0734e-15 2.77927e-15 0.244197 -2.69396e-17 4.15159e-17)
(4.74656e-15 2.21348e-29 -2.37079e-30 16.155 -2.223e-15 2.69743e-15 0.244197 7.35904e-16 -4.19694e-16)
(1.75401e-15 -1.32666e-29 1.55787e-30 15.6843 -1.02266e-15 2.7439e-15 0.24052 -7.90164e-18 4.3301e-17)
(4.81638e-15 9.34724e-30 -1.55787e-30 15.6843 -1.84779e-15 2.73739e-15 0.24052 7.49601e-16 -4.15845e-16)
(-1.72887e-15 0 -3.07109e-30 15.2264 2.54681e-43 2.75044e-15 0.236891 -6.31089e-30 4.29385e-17)
(4.88515e-15 -3.07109e-30 1.53555e-30 15.2264 -2.09136e-15 2.75191e-15 0.236891 7.50069e-16 -4.11908e-16)
(0 2.42166e-29 -3.02707e-30 14.7818 2.75751e-16 2.6827e-15 0.233316 -1.25581e-17 4.2399e-17)
(0 -2.42166e-29 3.02707e-30 14.7818 -3.28756e-15 2.7798e-15 0.233316 7.46699e-16 -4.08178e-16)
(-2.5098e-15 6.79585e-30 -1.22763e-30 14.3502 -8.55166e-16 2.68973e-15 0.229801 -2.38389e-17 4.44248e-17)
(0 0 7.45922e-31 14.3502 -3.55122e-15 2.83367e-15 0.229801 7.34303e-16 -4.04248e-16)
(0 -2.35918e-29 2.94092e-30 13.9318 -4.12033e-28 2.74309e-15 0.22635 0 4.54011e-17)
(5.08529e-15 2.35274e-29 -2.94092e-30 13.9318 -2.54809e-15 2.8817e-15 0.22635 7.25315e-16 -4.00204e-16)
(0 8.69632e-30 -1.44939e-30 13.5264 2.32388e-17 2.7804e-15 0.222967 -4.46433e-18 4.69744e-17)
(5.14999e-15 -5.79755e-30 7.24693e-31 13.5264 -2.85092e-15 2.88876e-15 0.222967 7.21705e-16 -3.9622e-16)
(-1.30343e-15 3.39727e-30 -2.38699e-31 13.1338 -1.9085e-16 2.86528e-15 0.219654 -2.67274e-18 4.96125e-17)
(0 2.85723e-30 -1.42861e-30 13.1338 -3.24627e-15 2.90634e-15 0.219654 7.10873e-16 -3.92843e-16)
(1.31912e-15 7.87051e-30 -1.87401e-30 12.7539 -5.86674e-16 2.92451e-15 0.216414 -1.74943e-17 5.03903e-17)
(0 -5.63255e-30 7.04069e-31 12.7539 -2.60521e-15 2.95704e-15 0.216414 7.01041e-16 -3.89017e-16)
(0 -1.11036e-29 1.38796e-30 12.3864 -1.9092e-15 2.96434e-15 0.213248 -4.89632e-17 5.24576e-17)
(0 1.11036e-29 -2.08193e-30 12.3864 -3.13484e-15 2.99191e-15 0.213248 6.99757e-16 -3.84927e-16)
(0 -5.47225e-30 6.84031e-31 12.031 -2.53892e-15 3.07672e-15 0.210156 -4.03304e-17 5.58503e-17)
(0 5.47225e-30 -1.36806e-30 12.031 -4.3131e-15 3.05604e-15 0.210156 6.88046e-16 -3.80955e-16)
(-1.21138e-15 -3.99832e-30 8.77308e-31 11.6875 -1.56256e-15 3.27395e-15 0.20714 -1.52818e-17 6.1088e-17)
(0 1.07876e-29 -2.02268e-30 11.6875 -3.87336e-15 3.14019e-15 0.20714 6.74868e-16 -3.76435e-16)
(-2.87605e-15 1.03696e-43 -2.22896e-30 11.3556 7.53406e-28 3.39076e-15 0.204199 -3.15544e-30 6.17486e-17)
(1.49647e-15 -1.59495e-29 1.99369e-30 11.3556 -2.67567e-15 3.10933e-15 0.204199 6.75062e-16 -3.72249e-16)
(1.39415e-15 -1.98374e-29 2.34713e-31 11.0348 4.04615e-17 3.42274e-15 0.201333 -3.71762e-19 6.40613e-17)
(-8.52664e-15 5.24031e-30 0 11.0348 -3.24951e-15 3.10504e-15 0.201333 6.73266e-16 -3.68527e-16)
(2.90775e-15 -5.16521e-30 1.2913e-30 10.7249 3.86277e-16 3.58726e-15 0.198542 -1.02723e-17 6.97364e-17)
(-5.63404e-15 5.16521e-30 -1.93695e-30 10.7249 -4.06371e-15 3.25464e-15 0.198542 6.53376e-16 -3.6394e-16)
(-1.42266e-15 1.35755e-29 -2.14238e-30 10.4255 5.54953e-17 3.76564e-15 0.195824 -4.08596e-18 7.27351e-17)
(9.94827e-15 -1.01823e-29 1.27279e-30 10.4255 -3.70876e-15 3.40402e-15 0.195824 6.38357e-16 -3.58576e-16)
(1.43662e-15 -6.78713e-30 -1.64902e-30 10.1364 0 3.85398e-15 0.193179 0 7.51942e-17)
(5.74648e-15 -2.00728e-29 2.5091e-30 10.1364 -4.66869e-15 3.39398e-15 0.193179 6.33995e-16 -3.5291e-16)
(0 0 0 9.85705 1.31258e-15 3.98585e-15 0.190605 -1.74403e-17 8.00376e-17)
(0 0 -6.18285e-31 9.85705 -4.97748e-15 3.35249e-15 0.190605 6.08581e-16 -3.4826e-16)
(-1.46395e-15 -1.124e-29 2.81545e-30 9.58724 1.35264e-15 4.14507e-15 0.188102 -3.37854e-17 8.37321e-17)
(5.85582e-15 1.95016e-29 -3.65654e-30 9.58724 -4.62073e-15 3.36822e-15 0.188102 6.00785e-16 -3.43394e-16)
(-1.47734e-15 1.2999e-29 -2.63433e-30 9.3266 6.59751e-16 4.20545e-15 0.185667 -1.95453e-17 8.48199e-17)
(-5.90938e-15 -4.80551e-30 1.20138e-30 9.3266 -4.86024e-15 3.45197e-15 0.185667 5.94184e-16 -3.38802e-16)
(4.15705e-15 -1.02156e-29 2.59904e-30 9.07481 6.69344e-16 4.34191e-15 0.1833 -6.80393e-18 9.17735e-17)
(3.29573e-15 4.73664e-30 -2.36832e-30 9.07481 -3.54519e-15 3.61971e-15 0.1833 5.87774e-16 -3.32222e-16)
(-2.81773e-15 2.20617e-29 -3.14854e-30 8.83155 8.4612e-16 4.51809e-15 0.180998 -2.25994e-17 9.46254e-17)
(7.32851e-15 -1.8675e-29 2.91797e-30 8.83155 -2.74776e-15 3.63557e-15 0.180998 5.961e-16 -3.2497e-16)
(-1.51646e-15 3.38804e-30 -2.303e-31 8.5965 1.59531e-16 4.61065e-15 0.178761 -1.22295e-17 9.83637e-17)
(0 0 0 8.5965 -2.84763e-15 3.64325e-15 0.178761 5.89906e-16 -3.19067e-16)
(-1.52917e-15 3.38851e-30 -2.30095e-31 8.36936 -4.719e-16 4.737e-15 0.176586 -1.44177e-17 1.02801e-16)
(0 4.53588e-30 0 8.36936 -2.0164e-15 3.77964e-15 0.176586 5.89721e-16 -3.11454e-16)
(-1.54172e-15 7.00649e-46 1.44656e-30 8.14982 3.39027e-30 4.85153e-15 0.174472 0 1.06215e-16)
(6.16687e-15 1.78835e-29 -2.79429e-30 8.14982 -1.79431e-15 3.81558e-15 0.174472 5.92618e-16 -3.03734e-16)
(1.55411e-15 -1.22004e-29 2.43319e-30 7.93761 1.54672e-15 4.96644e-15 0.172417 -2.1878e-17 1.10871e-16)
(0 8.81357e-30 -2.20339e-30 7.93761 -2.47458e-15 3.84669e-15 0.172417 5.85038e-16 -2.97154e-16)
(2.44524e-15 -8.68725e-30 1.08591e-30 7.73243 1.88244e-15 5.15194e-15 0.170419 -4.58929e-17 1.17611e-16)
(0 8.68725e-30 -2.17181e-30 7.73243 -3.43059e-15 3.96067e-15 0.170419 5.69765e-16 -2.88999e-16)
(-1.57844e-15 -5.18059e-30 3.04842e-31 7.53403 1.46875e-15 5.21625e-15 0.168477 -3.75124e-17 1.17032e-16)
(0 8.56274e-30 -1.60551e-30 7.53403 -4.30473e-15 4.0783e-15 0.168477 5.37665e-16 -2.80755e-16)
(2.37565e-15 -3.37601e-29 5.27501e-30 7.34214 1.13917e-15 5.31867e-15 0.16659 -2.84926e-17 1.25765e-16)
(1.27232e-14 3.37601e-29 -5.27501e-30 7.34214 -3.501e-15 4.13126e-15 0.16659 5.10935e-16 -2.72009e-16)
(0 -2.75414e-31 0 7.15651 2.02677e-15 5.55047e-15 0.164755 -2.34607e-17 1.31271e-16)
(6.40884e-15 8.31905e-30 -1.03988e-30 7.15651 -3.17078e-15 4.05112e-15 0.164755 5.03822e-16 -2.64179e-16)
(-3.92193e-15 2.79731e-29 -3.30522e-30 6.97691 3.27711e-15 5.63428e-15 0.162972 -7.17947e-17 1.33414e-16)
(-6.45556e-15 -2.04995e-29 3.07493e-30 6.97691 -3.99685e-15 4.08897e-15 0.162972 4.93317e-16 -2.57383e-16)
(-1.62544e-15 1.54924e-29 -2.25147e-30 6.80309 2.9676e-15 5.66462e-15 0.161238 -8.22225e-17 1.36573e-16)
(-8.77672e-15 -1.21234e-29 1.01029e-30 6.80309 -3.86801e-15 4.26133e-15 0.161238 4.90346e-16 -2.48037e-16)
(0 1.19497e-29 4.02545e-29 6.63485 2.68941e-15 2.14066e-29 0.159552 -5.904e-17 0)
(0 -7.96645e-30 0 6.63485 -3.07586e-15 4.37317e-15 0.159552 4.95625e-16 -2.37423e-16)
(0 7.85227e-30 -9.81534e-31 6.47195 4.02235e-15 -2.30792e-15 0.157912 -7.10828e-17 5.10657e-17)
(6.59264e-15 -3.92614e-30 0 6.47195 -3.78922e-15 4.37458e-15 0.157912 4.89004e-16 -2.26173e-16)
(-5.19202e-16 2.76095e-29 -3.63938e-30 6.31421 4.87127e-15 -2.52663e-15 0.156318 -1.26631e-16 6.22279e-17)
(0 -2.32192e-29 2.9024e-30 6.31421 -5.58436e-15 4.45868e-15 0.156318 4.57063e-16 -2.16889e-16)
(0 -4.57728e-29 4.768e-30 6.16141 3.8491e-15 -2.43087e-15 0.154767 -1.15721e-16 6.35255e-17)
(1.33632e-14 4.57728e-29 -4.768e-30 6.16141 -4.6001e-15 4.52374e-15 0.154767 4.16304e-16 -2.04471e-16)
(2.11654e-15 -1.12792e-29 1.87986e-30 6.01338 2.89912e-15 -2.24638e-15 0.153259 -7.83544e-17 5.91804e-17)
(1.13343e-14 1.12792e-29 -1.87986e-30 6.01338 -4.25607e-15 4.46662e-15 0.153259 4.18578e-16 -1.92434e-16)
(-3.38437e-15 -7.15571e-31 -4.25309e-31 5.86993 2.79173e-15 -2.15444e-15 0.151791 -7.0094e-17 5.58669e-17)
(0 7.41169e-30 0 5.86993 -4.91612e-15 4.54996e-15 0.151791 4.14457e-16 -1.80375e-16)
(-1.70292e-15 6.99786e-30 -2.06303e-31 5.73089 3.8002e-15 -2.077e-15 0.150364 -7.50281e-17 5.61014e-17)
(1.36233e-14 0 -9.13182e-31 5.73089 -4.16875e-15 4.62072e-15 0.150364 4.0207e-16 -1.6577e-16)
(1.71354e-15 -1.05336e-29 2.00049e-30 5.59609 5.13806e-15 -1.97009e-15 0.148975 -1.25706e-16 5.33903e-17)
(0 7.20075e-30 -1.80019e-30 5.59609 -5.62714e-15 4.61186e-15 0.148975 3.96251e-16 -1.51587e-16)
(-1.72407e-15 -2.25669e-31 -1.94028e-31 5.46537 4.48672e-15 -1.96175e-15 0.147623 -1.49312e-16 5.19847e-17)
(0 3.54877e-30 0 5.46537 -5.8527e-15 4.7113e-15 0.147623 3.49053e-16 -1.3728e-16)
(-1.73449e-15 1.38206e-29 -1.06164e-30 5.33858 2.84823e-15 -1.8946e-15 0.146307 -9.37836e-17 5.44984e-17)
(6.93798e-15 -1.04937e-29 8.74477e-31 5.33858 -3.91e-15 4.81766e-15 0.146307 3.02884e-16 -1.21226e-16)
(-1.74482e-15 6.77688e-30 -1.04337e-30 5.21558 2.44252e-15 -1.68568e-15 0.145026 -6.28151e-17 4.9783e-17)
(3.09745e-15 0 0 5.21558 -3.93906e-15 4.81221e-15 0.145026 2.86622e-16 -1.05146e-16)
(-3.51012e-15 6.65235e-30 -3.51217e-31 5.09622 1.75421e-15 -1.50821e-15 0.143779 -7.3703e-17 4.43399e-17)
(0 0 0 5.09622 -3.55526e-15 4.71774e-15 0.143779 2.58448e-16 -9.0575e-17)
(-1.76521e-15 1.23567e-29 -1.84446e-30 4.98037 1.76452e-15 -1.42182e-15 0.142565 -2.53633e-17 4.11106e-17)
(-1.88569e-15 -6.69931e-30 0 4.98037 -3.81338e-15 4.78576e-15 0.142565 2.41584e-16 -7.76328e-17)
(0 -6.60329e-30 8.25411e-31 4.8679 3.79315e-15 -1.37184e-15 0.141383 -8.26096e-17 4.06352e-17)
(-7.10105e-15 6.60329e-30 -8.25411e-31 4.8679 -5.17856e-15 5.02538e-15 0.141383 2.26987e-16 -6.0575e-17)
(1.78523e-15 -1.30762e-29 9.70564e-31 4.75869 4.15324e-15 -1.23059e-15 0.140231 -1.39062e-16 3.93786e-17)
(7.14093e-15 9.76297e-30 -8.13581e-31 4.75869 -5.84336e-15 5.07654e-15 0.140231 1.98621e-16 -4.04816e-17)
(1.79512e-15 -1.61451e-29 2.55715e-30 4.65262 3.46581e-15 -1.0734e-15 0.139109 -1.06494e-16 3.34052e-17)
(-7.18048e-15 1.28307e-29 -2.40576e-30 4.65262 -5.63004e-15 4.95871e-15 0.139109 1.41699e-16 -2.19224e-17)
(1.75484e-15 9.63467e-30 -2.5165e-30 4.54957 4.10246e-15 -1.0356e-15 0.138017 -1.01562e-16 3.10256e-17)
(3.65993e-15 -3.16171e-30 1.58085e-30 4.54957 -3.0067e-15 4.98139e-15 0.138017 1.03755e-16 -4.30147e-18)
(0 6.23278e-30 -7.79098e-31 4.44945 5.34393e-15 -9.48574e-16 0.136952 -1.48677e-16 3.2065e-17)
(-1.75437e-15 0 0 4.44945 -2.1137e-15 5.1134e-15 0.136952 1.0683e-16 1.44212e-17)
(-1.72923e-15 1.53586e-29 -2.30379e-30 4.35214 5.89938e-15 -8.31474e-16 0.135914 -1.81818e-16 2.65168e-17)
(3.83873e-15 -9.21517e-30 0 4.35214 -3.44109e-15 5.18536e-15 0.135914 9.0503e-17 3.39449e-17)
(1.83387e-15 -1.539e-29 8.82246e-31 4.25754 4.83225e-15 -8.34461e-16 0.134902 -1.88111e-16 2.56089e-17)
(0 1.21108e-29 -7.56925e-31 4.25754 -4.07274e-15 5.14843e-15 0.134902 7.84966e-17 5.37441e-17)
(0 5.96861e-30 -7.46076e-31 4.16556 3.8951e-15 -6.56573e-16 0.133916 -1.1877e-16 2.7485e-17)
(-1.07335e-14 0 0 4.16556 -4.14364e-15 5.22787e-15 0.133916 5.39592e-17 7.23501e-17)
(-1.65593e-15 5.88306e-30 -2.20615e-30 4.07612 4.55985e-15 -4.762e-16 0.132955 -1.32702e-16 1.47956e-17)
(0 2.94153e-30 0 4.07612 -3.24072e-15 5.38296e-15 0.132955 2.34311e-17 9.46757e-17)
(1.6322e-15 5.79874e-30 -7.24843e-31 3.98911 3.63541e-15 -5.1256e-16 0.132018 -1.6609e-16 1.63945e-17)
(-1.6322e-15 0 0 3.98911 -2.09802e-15 5.42864e-15 0.132018 9.18343e-18 1.16853e-16)
(1.87143e-15 1.67274e-29 -2.04455e-30 3.90446 2.62887e-15 -4.96102e-16 0.131104 -7.47355e-17 1.76619e-17)
(0 -2.00047e-29 2.14336e-30 3.90446 -1.78746e-15 5.48514e-15 0.131104 1.88091e-17 1.40688e-16)
(1.88065e-15 5.17997e-30 -2.02067e-30 3.82209 2.9477e-15 -3.65266e-16 0.130212 -1.0263e-16 1.57575e-17)
(0 -2.81686e-30 1.40843e-30 3.82209 -1.52617e-15 5.62376e-15 0.130212 1.69668e-17 1.6523e-16)
(-3.77962e-15 6.53687e-30 1.21648e-30 3.74192 2.92216e-15 -9.9915e-17 0.129343 -9.88824e-17 9.1687e-18)
(7.55924e-15 0 -1.38824e-30 3.74192 -1.76108e-15 5.76909e-15 0.129343 1.93208e-17 1.93172e-16)
(-1.8989e-15 3.26338e-30 -7.95387e-32 3.66387 4.19829e-15 1.26448e-16 0.128494 -1.03852e-16 6.60873e-18)
(0 5.47338e-30 -1.36834e-30 3.66387 -3.82925e-15 5.69556e-15 0.128494 2.85457e-17 2.22314e-16)
(0 5.39493e-30 1.95115e-30 3.58787 5.67023e-15 1.27408e-17 0.127666 -1.92238e-16 2.27416e-19)
(-3.03708e-15 -5.39493e-30 0 3.58787 -4.97793e-15 5.63124e-15 0.127666 -1.23416e-17 2.48595e-16)
(0 5.31761e-30 -1.3294e-30 3.51386 6.78896e-15 2.9431e-17 0.126858 -2.12752e-16 1.91664e-18)
(0 0 0 3.51386 -6.24569e-15 5.6677e-15 0.126858 -5.22512e-17 2.7741e-16)
(-2.95064e-15 1.04828e-29 -4.37906e-47 3.44177 8.42346e-15 -1.17169e-31 0.12607 -2.79495e-16 0)
(0 0 0 3.44177 -8.08557e-15 5.86923e-15 0.12607 -1.27394e-16 3.08179e-16)
(0 1.54988e-29 -2.58314e-30 3.37154 7.94686e-15 -1.06198e-16 0.1253 -3.39975e-16 8.10107e-18)
(1.54774e-14 -1.03325e-29 1.29157e-30 3.37154 -7.47636e-15 6.0527e-15 0.1253 -2.13915e-16 3.47616e-16)
(-3.88694e-15 6.42003e-30 0 3.3031 5.82501e-15 0 0.124548 -2.5189e-16 4.93038e-32)
(7.77388e-15 0 0 3.3031 -6.71002e-15 5.90071e-15 0.124548 -2.52107e-16 3.85457e-16)
(1.95221e-15 -1.32514e-29 1.28827e-30 3.2364 5.96336e-15 7.10781e-17 0.123814 -1.88266e-16 5.8245e-18)
(0 1.00385e-29 -1.25481e-30 3.2364 -8.26388e-15 5.7525e-15 0.123814 -3.00039e-16 4.19525e-16)
(0 4.9473e-30 -1.23683e-30 3.17139 7.43135e-15 1.98671e-16 0.123098 -2.69963e-16 9.67136e-18)
(-7.84362e-15 0 0 3.17139 -8.83197e-15 6.00158e-15 0.123098 -3.83635e-16 4.56637e-16)
(-1.96954e-15 -6.576e-30 1.203e-30 3.108 6.73527e-15 2.7748e-16 0.122398 -3.08906e-16 1.22655e-17)
(7.87817e-15 1.46292e-29 -1.2191e-30 3.108 -6.00621e-15 6.10427e-15 0.122398 -4.53885e-16 5.01594e-16)
(0 9.61301e-30 -2.40325e-30 3.04618 4.93516e-15 3.72369e-16 0.121714 -2.22489e-16 1.76142e-17)
(-2.70582e-15 -4.8065e-30 1.20163e-30 3.04618 -3.90694e-15 5.99001e-15 0.121714 -4.71084e-16 5.42206e-16)
(0 -4.73761e-30 0 2.9859 3.42555e-15 5.4007e-16 0.121046 -1.72648e-16 2.31593e-18)
(0 4.73761e-30 0 2.9859 -3.97989e-15 6.18328e-15 0.121046 -4.84079e-16 5.8777e-16)
(-1.99516e-15 7.86262e-30 0 2.92709 2.10346e-15 7.64918e-16 0.120393 -1.05377e-16 -5.74761e-17)
(0 -4.66971e-30 0 2.92709 -3.9872e-15 6.48914e-15 0.120393 -5.33678e-16 6.3963e-16)
(-1.41607e-15 -2.12291e-29 4.60278e-30 2.86972 1.50143e-15 1.03139e-15 0.119756 -6.78585e-17 -6.2877e-17)
(1.60288e-14 2.76167e-29 -3.45209e-30 2.86972 -2.65592e-15 6.24221e-15 0.119756 -5.76775e-16 6.91448e-16)
(2.554e-15 9.07362e-30 -1.1342e-30 2.81373 1.28115e-15 1.16773e-15 0.119132 -5.77161e-17 -5.95702e-17)
(-2.554e-15 -4.53681e-30 -1.1342e-30 2.81373 -2.20539e-15 5.96993e-15 0.119132 -5.70337e-16 7.28968e-16)
(0 8.94358e-30 -2.23589e-30 2.7591 1.67105e-15 1.05299e-15 0.118523 -5.10084e-17 -5.17025e-17)
(-2.51739e-15 -4.47179e-30 0 2.7591 -2.92848e-15 6.51916e-15 0.118523 -5.91306e-16 7.75325e-16)
(-6.08597e-15 -1.2499e-29 2.20385e-30 2.70576 3.85917e-15 1.25713e-15 0.117928 -9.32353e-17 -4.51925e-17)
(1.62292e-14 2.64462e-29 -2.20385e-30 2.70576 -2.66402e-15 6.81952e-15 0.117928 -6.25611e-16 8.38109e-16)
(0 -2.60671e-29 1.08613e-30 2.6537 5.76708e-15 1.56064e-15 0.117345 -2.45112e-16 -3.10264e-17)
(1.62954e-14 2.60671e-29 -1.08613e-30 2.6537 -3.35353e-15 6.31842e-15 0.117345 -6.29837e-16 8.89859e-16)
(-2.04514e-15 1.59876e-29 -2.14113e-30 2.60286 5.04704e-15 1.37592e-15 0.116776 -2.66352e-16 -2.5387e-17)
(-2.41069e-15 -8.56451e-30 0 2.60286 -2.63462e-15 6.32984e-15 0.116776 -6.74433e-16 9.3406e-16)
(2.05332e-15 -3.69125e-29 2.11044e-30 2.55321 3.9917e-15 1.29249e-15 0.116219 -1.87054e-16 -2.25183e-17)
(1.64266e-14 3.3767e-29 -2.11044e-30 2.55321 -7.25314e-16 6.7294e-15 0.116219 -7.14248e-16 9.93873e-16)
(0 -2.08019e-29 2.08019e-30 2.50472 3.74712e-15 1.4537e-15 0.115674 -1.77146e-16 -1.42089e-17)
(8.24584e-15 2.08019e-29 -2.08019e-30 2.50472 -2.15622e-15 6.67818e-15 0.115674 -7.12933e-16 1.05458e-15)
(2.06956e-15 -1.5442e-29 0 2.45735 4.68849e-15 1.48132e-15 0.115142 -1.69725e-16 -4.24015e-18)
(0 1.23023e-29 0 2.45735 -2.49516e-15 6.59621e-15 0.115142 -7.52276e-16 1.1136e-15)