/*--------------------------------*- C++ -*----------------------------------*\
| =========                 |                                                 |
| \\      /  F ield         | OpenFOAM: The Open Source CFD Toolbox           |
|  \\    /   O peration     | Version:  2106                                  |
|   \\  /    A nd           | Website:  www.openfoam.com                      |
|    \\/     M anipulation  |                                                 |
\*---------------------------------------------------------------------------*/
FoamFile
{
    version     2.0;
    format      ascii;
    arch        "LSB;label=32;scalar=64";
    class       volTensorField;
    location    "12000";
    object      grad(U);
}
// * * * * * * * * * * * * * * * * * * * * * * * * * * * * * * * * * * * * * //

dimensions      [0 0 -1 0 0 0 0];

internalField   nonuniform List<tensor> 
2560
(
(0 2.0789e-30 -4.21068e-27 92.8383 -1.10851e-11 -3.20322e-13 0.134395 -8.02098e-15 -3.45169e-16)
(0 -7.6438e-28 -1.29932e-31 92.8383 -7.90602e-16 2.38182e-17 0.134395 1.63619e-18 3.36379e-16)
(0 -6.46227e-25 -5.08868e-27 92.8253 3.13224e-32 -3.41169e-14 0.405102 0 -1.00206e-16)
(-7.20966e-17 -4.09822e-30 -2.56139e-31 92.8253 -7.25703e-15 3.14761e-17 0.405102 -1.54587e-17 6.05436e-16)
(-1.70133e-17 -4.71719e-30 -6.46865e-32 92.8119 7.3782e-13 -1.56331e-14 0.557112 -3.73331e-15 -8.60289e-17)
(0 1.61579e-29 2.52467e-31 92.8119 -5.42576e-15 3.05578e-17 0.557112 -1.9598e-17 6.2314e-16)
(5.45602e-17 -1.49454e-29 -4.36176e-31 92.7969 8.22586e-13 -1.48609e-14 0.565114 -5.07073e-15 -9.37352e-17)
(0 1.19448e-29 3.73273e-31 92.7969 -6.7457e-15 4.81641e-17 0.565114 -2.8996e-17 6.41419e-16)
(1.38082e-16 -1.17736e-29 -6.13206e-31 92.7772 2.35861e-13 -1.57482e-14 0.573189 -4.87518e-15 -9.95143e-17)
(0 1.17736e-29 4.90565e-31 92.7772 -6.99349e-15 5.16333e-17 0.573189 -3.85835e-17 6.60229e-16)
(4.03508e-16 -1.18839e-26 -5.50756e-31 92.7461 -4.15376e-14 -1.6233e-14 0.581279 -1.29254e-16 -1.0256e-16)
(1.05042e-15 3.86827e-30 4.83534e-31 92.7461 -7.21858e-15 5.55336e-17 0.581279 -4.89349e-17 6.79532e-16)
(9.77777e-17 -3.43124e-28 -1.68348e-31 92.6914 -1.14407e-27 -1.6374e-14 0.589283 3.15544e-30 -1.04223e-16)
(4.13801e-16 7.62565e-30 3.57452e-31 92.6914 -7.29055e-15 5.88959e-17 0.589283 -5.99533e-17 6.99252e-16)
(-2.1034e-16 1.48812e-29 1.90348e-31 92.593 7.06786e-15 -1.63062e-14 0.597037 -3.18685e-17 -1.04688e-16)
(8.41359e-16 -7.51636e-30 0 92.593 -7.27468e-15 5.9178e-17 0.597037 -7.00436e-17 7.19225e-16)
(2.5076e-16 -1.47142e-29 -4.23388e-31 92.4212 8.82477e-15 -1.60152e-14 0.604295 -5.8877e-17 -1.03467e-16)
(0 1.11129e-29 3.47279e-31 92.4212 -7.18128e-15 5.92778e-17 0.604295 -8.14066e-17 7.39202e-16)
(0 1.46049e-29 4.56403e-31 92.135 8.80868e-15 -1.54262e-14 0.610724 -5.58041e-17 -9.99306e-17)
(-5.13864e-16 -1.09537e-29 -2.28201e-31 92.135 -7.22754e-15 5.81306e-17 0.610724 -9.32273e-17 7.58805e-16)
(-3.33459e-16 -1.07977e-29 -3.66452e-31 91.6825 9.50959e-15 -1.44613e-14 0.6159 -6.0388e-17 -9.34954e-17)
(0 1.79945e-29 5.62327e-31 91.6825 -7.62573e-15 6.15033e-17 0.6159 -1.0499e-16 7.77505e-16)
(3.75719e-16 -2.84264e-29 -8.63484e-31 91.0037 9.73126e-15 -1.30591e-14 0.619334 -6.68842e-17 -8.36871e-17)
(0 2.12839e-29 6.65121e-31 91.0037 -7.90607e-15 6.46137e-17 0.619334 -1.17689e-16 7.94717e-16)
(4.92084e-16 -6.99293e-30 -4.37058e-31 90.0355 9.43574e-15 -1.11953e-14 0.620513 -6.51877e-17 -7.03819e-17)
(0 6.99293e-30 5.46323e-31 90.0355 -7.91868e-15 6.29584e-17 0.620513 -1.29926e-16 8.0967e-16)
(-4.61801e-16 1.04851e-29 5.27029e-31 88.7206 9.74092e-15 -8.89737e-15 0.618972 -6.47444e-17 -5.38016e-17)
(1.8472e-15 -3.44635e-30 -1.07699e-31 88.7206 -8.16191e-15 6.44835e-17 0.618972 -1.42709e-16 8.21617e-16)
(0 2.37787e-29 7.43085e-31 87.0169 1.02675e-14 -6.25521e-15 0.614365 -7.13917e-17 -3.47215e-17)
(0 -2.37787e-29 -7.43085e-31 87.0169 -8.13213e-15 6.7149e-17 0.614365 -1.56331e-16 8.29874e-16)
(-5.49107e-16 6.9355e-30 -1.04785e-31 84.9063 1.07524e-14 -3.4179e-15 0.606534 -7.41588e-17 -1.42804e-17)
(2.19643e-15 -3.34827e-30 2.09267e-31 84.9063 -7.73796e-15 6.51926e-17 0.606534 -1.69421e-16 8.33938e-16)
(0 2.64023e-29 -2.08287e-29 82.4006 1.10606e-14 2.93132e-29 0.59554 -8.05062e-17 9.86076e-32)
(-2.37088e-15 -2.64023e-29 -8.25071e-31 82.4006 -8.18206e-15 6.04507e-17 0.59554 -1.82554e-16 8.33519e-16)
(-9.15633e-16 2.27709e-29 -3.30958e-29 79.5409 1.04096e-14 1.6553e-15 0.581666 -8.08605e-17 -6.12512e-18)
(-1.62824e-15 -2.27709e-29 -6.09934e-31 79.5409 -8.1692e-15 6.33871e-17 0.581666 -1.99326e-16 8.2866e-16)
(1.80502e-15 -6.41271e-30 -6.01192e-31 76.3927 9.97961e-15 4.44699e-15 0.565366 -7.31595e-17 -2.51639e-17)
(-9.02509e-16 3.20636e-30 6.01192e-31 76.3927 -7.72332e-15 6.04539e-17 0.565366 -2.12355e-16 8.19739e-16)
(7.20343e-16 5.90359e-30 4.92993e-31 73.0362 1.03496e-14 6.35833e-15 0.547198 -7.6725e-17 -4.17339e-17)
(-2.88137e-15 -1.89624e-29 -7.90101e-31 73.0362 -8.04849e-15 5.62884e-17 0.547198 -2.26307e-16 8.07258e-16)
(0 2.49208e-29 9.7347e-31 69.5566 1.02418e-14 7.79997e-15 0.527754 -8.09796e-17 -5.52317e-17)
(0 -2.49208e-29 -9.7347e-31 69.5566 -7.67456e-15 6.16604e-17 0.527754 -2.43733e-16 7.91938e-16)
(6.38278e-17 -2.56793e-30 -9.87325e-32 66.0343 9.64843e-15 8.77798e-15 0.507594 -7.7295e-17 -6.5401e-17)
(-8.64257e-16 1.22818e-29 5.75711e-31 66.0343 -6.91799e-15 6.05842e-17 0.507594 -2.57273e-16 7.74522e-16)
(1.71713e-15 -3.27461e-29 -1.04461e-30 62.5394 9.2448e-15 9.33777e-15 0.487207 -7.39793e-17 -7.22973e-17)
(-8.5187e-16 3.02645e-29 1.13492e-30 62.5394 -7.19431e-15 5.73616e-17 0.487207 -2.70247e-16 7.557e-16)
(0 1.49154e-29 7.45768e-31 59.1275 9.31808e-15 9.54644e-15 0.466994 -7.30912e-17 -7.62875e-17)
(-3.50037e-15 -2.38646e-29 -9.32211e-31 59.1275 -7.54766e-15 5.73399e-17 0.466994 -2.87237e-16 7.36115e-16)
(9.10235e-16 1.99559e-29 6.49635e-31 55.8401 8.81006e-15 9.47794e-15 0.447256 -7.73378e-17 -7.78075e-17)
(0 -2.35225e-29 -7.3508e-31 55.8401 -7.40508e-15 5.45626e-17 0.447256 -3.02712e-16 7.16291e-16)
(-1.88783e-15 3.90125e-29 1.07256e-30 52.7051 7.14742e-15 9.20413e-15 0.428211 -6.68527e-17 -7.73925e-17)
(0 -3.18799e-29 -9.0568e-31 52.7051 -6.67355e-15 5.36866e-17 0.428211 -3.17025e-16 6.96607e-16)
(4.5366e-15 -5.06942e-29 -1.49482e-30 49.739 5.89533e-15 8.78142e-15 0.410001 -5.17806e-17 -7.55048e-17)
(6.20108e-15 3.42797e-29 1.24978e-30 49.739 -5.07169e-15 5.84328e-17 0.410001 -3.29062e-16 6.77377e-16)
(0 -1.12628e-29 -5.27943e-31 46.9495 5.91786e-15 8.26141e-15 0.392709 -4.75538e-17 -7.24829e-17)
(4.02801e-15 1.68942e-29 6.15933e-31 46.9495 -4.24146e-15 6.12208e-17 0.392709 -3.35512e-16 6.58877e-16)
(1.03652e-15 1.98635e-30 1.81324e-31 44.3377 6.10358e-15 7.69052e-15 0.37637 -5.36856e-17 -6.87599e-17)
(0 0 -8.67293e-32 44.3377 -4.36378e-15 6.3711e-17 0.37637 -3.44437e-16 6.41236e-16)
(-2.12954e-15 7.12628e-30 -1.55075e-32 41.8998 5.25471e-15 7.09657e-15 0.360991 -5.21923e-17 -6.463e-17)
(-8.51816e-15 0 1.70973e-31 41.8998 -4.22336e-15 5.75545e-17 0.360991 -3.56493e-16 6.24557e-16)
(-1.09182e-15 8.95655e-30 4.13812e-31 39.6291 5.24812e-15 6.49725e-15 0.346553 -4.02087e-17 -6.02442e-17)
(-4.36729e-15 0 -2.52783e-31 39.6291 -4.35432e-15 5.3998e-17 0.346553 -3.65958e-16 6.0884e-16)
(0 2.65771e-29 9.13587e-31 37.5168 6.84143e-15 5.90984e-15 0.333021 -5.36026e-17 -5.57435e-17)
(-4.47099e-15 -2.65771e-29 -9.13587e-31 37.5168 -5.28374e-15 6.64639e-17 0.333021 -3.75123e-16 5.94143e-16)
(0 -2.61962e-29 -7.36767e-31 35.5532 7.39739e-15 5.34188e-15 0.320351 -7.04615e-17 -5.12897e-17)
(4.57045e-15 2.61962e-29 7.36767e-31 35.5532 -6.14212e-15 8.2506e-17 0.320351 -3.89047e-16 5.80468e-16)
(-1.16649e-15 3.55532e-30 7.46833e-32 33.7281 7.11367e-15 4.79961e-15 0.308496 -6.54657e-17 -4.68615e-17)
(0 5.16414e-30 1.61379e-31 33.7281 -5.94377e-15 7.80691e-17 0.308496 -4.07026e-16 5.67863e-16)
(-1.18943e-15 2.39135e-29 7.10483e-31 32.0314 6.90004e-15 4.29026e-15 0.297403 -6.71965e-17 -4.26069e-17)
(0 -2.03605e-29 -6.36266e-31 32.0314 -5.49336e-15 5.81884e-17 0.297403 -4.17883e-16 5.56144e-16)
(-1.21151e-15 2.36202e-29 5.44207e-31 30.4533 6.2675e-15 3.8122e-15 0.287023 -6.33124e-17 -3.85281e-17)
(-6.25825e-15 -1.50515e-29 -3.13573e-31 30.4533 -5.2929e-15 5.21031e-17 0.287023 -4.28223e-16 5.45247e-16)
(1.23278e-15 -8.49581e-30 -4.59917e-31 28.9844 5.56968e-15 3.36459e-15 0.277304 -5.6936e-17 -3.46127e-17)
(0 4.94526e-30 3.86349e-31 28.9844 -4.50684e-15 5.46778e-17 0.277304 -4.37888e-16 5.35173e-16)
(1.25328e-15 -1.81732e-29 -4.54192e-31 27.6159 5.02576e-15 2.94387e-15 0.2682 -5.14801e-17 -3.08772e-17)
(0 1.46231e-29 3.80811e-31 27.6159 -4.15912e-15 5.39746e-17 0.2682 -4.4738e-16 5.25914e-16)
(-1.27308e-15 1.31583e-29 3.73575e-31 26.3398 5.17736e-15 2.5554e-15 0.259664 -4.77802e-17 -2.72547e-17)
(0 -4.80452e-30 -1.50141e-31 26.3398 -4.89954e-15 5.39721e-17 0.259664 -4.61113e-16 5.17395e-16)
(0 1.4207e-29 3.69973e-31 25.1484 5.73226e-15 2.1997e-15 0.251655 -5.60487e-17 -2.3939e-17)
(0 -2.36783e-29 -5.17963e-31 25.1484 -4.94257e-15 5.87084e-17 0.251655 -4.7196e-16 5.09604e-16)
(-1.31071e-15 3.54399e-30 2.19173e-31 24.0349 6.00173e-15 1.87374e-15 0.244132 -6.05455e-17 -2.07675e-17)
(5.24284e-15 0 0 24.0349 -3.62694e-15 6.01948e-17 0.244132 -4.80552e-16 5.02476e-16)
(0 -2.76053e-29 -6.46999e-31 22.9929 5.78541e-15 1.57314e-15 0.237059 -6.32902e-17 -1.78669e-17)
(5.31453e-15 2.76053e-29 6.46999e-31 22.9929 -3.44273e-15 6.24129e-17 0.237059 -4.90215e-16 4.95939e-16)
(1.34601e-15 5.52858e-30 3.51607e-31 22.0167 5.51707e-15 1.28951e-15 0.230403 -5.77585e-17 -1.50385e-17)
(-5.38402e-15 -1.81398e-29 -5.66868e-31 22.0167 -4.51531e-15 5.4602e-17 0.230403 -5.04801e-16 4.9002e-16)
(1.36286e-15 -8.0095e-30 -4.9283e-31 21.101 5.39246e-15 1.02872e-15 0.224133 -5.94047e-17 -1.23237e-17)
(0 4.46994e-30 4.19057e-31 21.101 -4.52549e-15 5.3439e-17 0.224133 -5.14275e-16 4.84554e-16)
(-1.37924e-15 -8.67722e-31 -6.36414e-32 20.241 5.03952e-15 7.90602e-16 0.218219 -5.67464e-17 -9.82018e-18)
(0 8.81176e-30 2.75367e-31 20.241 -4.2323e-15 5.56487e-17 0.218219 -5.24682e-16 4.7965e-16)
(1.72782e-16 5.14853e-30 6.13521e-32 19.4323 4.66389e-15 5.7066e-16 0.212637 -5.33748e-17 -7.44235e-18)
(5.58061e-15 -4.34273e-30 0 19.4323 -3.46725e-15 6.33224e-17 0.212637 -5.3221e-16 4.75138e-16)
(2.4097e-15 -4.28049e-30 -1.33765e-31 18.6711 4.03585e-15 3.62877e-16 0.207361 -5.00189e-17 -5.19534e-18)
(3.23286e-15 4.28049e-30 1.33765e-31 18.6711 -2.90247e-15 6.10233e-17 0.207361 -5.34932e-16 4.71173e-16)
(-1.42572e-15 3.53654e-30 -5.67221e-32 17.9535 3.71818e-15 1.70316e-16 0.20237 -4.07068e-17 -2.95196e-18)
(0 4.21914e-30 2.63696e-31 17.9535 -4.35106e-15 6.27734e-17 0.20237 -5.46776e-16 4.6739e-16)
(-1.44042e-15 7.69351e-30 7.55508e-32 17.2765 3.31284e-15 8.24555e-19 0.197644 -4.4181e-17 -9.20631e-19)
(0 0 1.29958e-31 17.2765 -4.60967e-15 9.9646e-17 0.197644 -5.6354e-16 4.6408e-16)
(2.30757e-15 -1.22972e-29 -2.56191e-31 16.6369 3.38772e-15 -1.62162e-16 0.193164 -3.24451e-17 -2.90916e-18)
(-2.30757e-15 1.22972e-29 2.56191e-31 16.6369 -3.65269e-15 1.06069e-16 0.193164 -5.68636e-16 4.61323e-16)
(-1.46875e-15 3.53298e-30 -5.07981e-32 16.0321 5.02396e-15 -3.09175e-16 0.188913 -4.72472e-17 -4.47095e-18)
(0 8.08063e-30 3.78779e-31 16.0321 -4.81276e-15 1.12621e-16 0.188913 -5.76932e-16 4.58915e-16)
(0 2.38944e-29 6.22251e-31 15.4595 5.8575e-15 -4.41534e-16 0.184876 -7.2677e-17 -6.21817e-18)
(-5.92967e-15 -2.38944e-29 -4.97801e-31 15.4595 -5.398e-15 1.21983e-16 0.184876 -5.929e-16 4.57064e-16)
(-1.49578e-15 -1.61005e-29 -2.9244e-31 14.9169 5.42371e-15 -5.67218e-16 0.181039 -6.89334e-17 -7.70764e-18)
(5.98311e-15 2.3552e-29 3.67999e-31 14.9169 -4.80037e-15 1.19356e-16 0.181039 -6.08453e-16 4.55653e-16)
(0 2.70835e-29 4.83633e-31 14.4022 4.8546e-15 -6.81912e-16 0.177388 -6.40867e-17 -9.27567e-18)
(0 -2.70835e-29 -4.83633e-31 14.4022 -5.66648e-15 1.15839e-16 0.177388 -6.23997e-16 4.54712e-16)
(-1.52164e-15 7.33744e-30 1.95016e-31 13.9134 4.05926e-15 -7.92077e-16 0.173911 -5.66852e-17 -1.07354e-17)
(6.08655e-15 -3.81361e-30 -1.19175e-31 13.9134 -4.8472e-15 4.68533e-17 0.173911 -6.34863e-16 4.5415e-16)
(5.18443e-15 -1.4565e-29 -3.86981e-31 13.4489 4.04579e-15 -8.99031e-16 0.170598 -4.57351e-17 -1.23072e-17)
(4.02056e-15 7.51791e-30 2.34935e-31 13.4489 -3.42706e-15 4.16946e-17 0.170598 -6.44418e-16 4.53607e-16)
(0 -7.41016e-30 -2.31567e-31 13.007 5.34766e-15 -9.98261e-16 0.167437 -5.79981e-17 -1.36476e-17)
(0 7.41016e-30 2.31567e-31 13.007 -5.86166e-15 8.72128e-17 0.167437 -6.58459e-16 4.53684e-16)
(-1.55848e-15 -3.78926e-30 -1.51637e-31 12.5863 5.23584e-15 -1.07984e-15 0.16442 -8.11568e-17 -1.48346e-17)
(0 1.09559e-29 3.42373e-31 12.5863 -5.75628e-15 8.0737e-17 0.16442 -6.83717e-16 4.54112e-16)
(-1.11416e-15 2.14311e-29 3.78884e-31 12.1853 4.1472e-15 -1.15816e-15 0.161537 -5.67271e-17 -1.61577e-17)
(4.25474e-15 -2.15978e-29 -3.37466e-31 12.1853 -3.37673e-15 3.09731e-17 0.161537 -6.99491e-16 4.55093e-16)
(-1.58188e-15 3.51556e-30 7.73544e-32 11.8028 5.1417e-15 -1.23633e-15 0.158781 -5.41995e-17 -1.74063e-17)
(0 3.54804e-30 2.21753e-31 11.8028 -5.09798e-15 -2.3137e-17 0.158781 -7.11532e-16 4.55953e-16)
(-3.562e-15 1.13782e-32 -1.40735e-31 11.4378 6.04436e-15 -1.30122e-15 0.156144 -8.55767e-17 -1.84308e-17)
(8.34179e-15 6.99438e-30 3.27861e-31 11.4378 -4.95674e-15 6.46041e-17 0.156144 -7.34256e-16 4.57294e-16)
(-1.60445e-15 1.72942e-29 4.01499e-31 11.0891 5.26554e-15 -1.35692e-15 0.153619 -8.08229e-17 -1.94834e-17)
(-3.88105e-15 -3.44706e-30 -2.15442e-31 11.0891 -3.65825e-15 1.31108e-16 0.153619 -7.40922e-16 4.59755e-16)
(-1.31817e-15 2.0602e-29 5.82353e-31 10.7557 4.99538e-15 -1.41629e-15 0.1512 -6.61683e-17 -2.06656e-17)
(-8.37448e-15 -1.35906e-29 -4.24707e-31 10.7557 -4.21447e-15 4.61455e-17 0.1512 -7.56811e-16 4.62077e-16)
(5.18085e-16 -9.7404e-30 -3.64526e-31 10.4367 5.14279e-15 -1.47148e-15 0.148881 -7.54779e-17 -2.16528e-17)
(9.23945e-15 1.33958e-29 4.1862e-31 10.4367 -4.09072e-15 2.7633e-17 0.148881 -7.81931e-16 4.64204e-16)
(-4.91069e-15 3.69123e-29 8.58541e-31 10.1313 3.98609e-15 -1.52819e-15 0.146656 -7.23761e-17 -2.29371e-17)
(-6.54758e-15 -2.64077e-29 -6.18931e-31 10.1313 -3.42521e-15 9.21197e-17 0.146656 -8.0118e-16 4.66891e-16)
(-1.64737e-15 -9.50889e-30 -4.27941e-31 9.83872 2.60195e-15 -1.59141e-15 0.14452 -4.37002e-17 -2.41718e-17)
(6.58947e-15 1.95219e-29 5.08383e-31 9.83872 -2.24306e-15 1.07567e-16 0.14452 -8.14635e-16 4.69887e-16)
(1.65768e-15 -6.71424e-30 -1.81259e-31 9.55821 2.40896e-15 -1.65461e-15 0.142468 -3.32328e-17 -2.55205e-17)
(0 3.20702e-30 1.00219e-31 9.55821 -2.4749e-15 8.61018e-17 0.142468 -8.19678e-16 4.7298e-16)
(0 -2.21274e-29 -6.91481e-31 9.28911 2.19543e-15 -1.71699e-15 0.140496 -3.91433e-17 -2.67942e-17)
(6.67136e-15 2.21274e-29 6.91481e-31 9.28911 -2.85846e-15 7.26792e-17 0.140496 -8.26118e-16 4.76053e-16)
(3.50802e-15 -6.2315e-30 -2.92101e-31 9.03078 1.77541e-15 -1.7815e-15 0.138599 -2.76541e-17 -2.82762e-17)
(6.71141e-15 6.2315e-30 2.92101e-31 9.03078 -2.436e-15 8.21342e-17 0.138599 -8.34702e-16 4.79556e-16)
(-3.45774e-15 1.53555e-29 4.79858e-31 8.78265 3.22219e-15 -1.84255e-15 0.136774 -2.72141e-17 -2.95072e-17)
(6.75089e-15 -9.21327e-30 -2.87915e-31 8.78265 -2.85963e-15 8.73109e-17 0.136774 -8.46582e-16 4.83359e-16)
(-3.40818e-15 2.11895e-29 7.56769e-31 8.54416 4.84418e-15 -1.89016e-15 0.135018 -7.41591e-17 -3.063e-17)
(3.40818e-15 -2.11895e-29 -7.56769e-31 8.54416 -3.97402e-15 1.10366e-16 0.135018 -8.64664e-16 4.87231e-16)
(-3.41412e-15 4.00774e-30 1.69823e-31 8.31482 4.32133e-15 -1.93225e-15 0.133325 -7.99847e-17 -3.17402e-17)
(0 2.98369e-30 0 8.31482 -4.03108e-15 1.15612e-16 0.133325 -8.88838e-16 4.91388e-16)
(0 -2.35274e-29 -7.35231e-31 8.09414 3.89796e-15 -1.97542e-15 0.131694 -5.93344e-17 -3.29508e-17)
(6.86615e-15 2.35274e-29 7.35231e-31 8.09414 -3.03447e-15 7.0081e-17 0.131694 -9.06972e-16 4.95282e-16)
(0 8.69632e-30 1.81173e-31 7.88168 3.8265e-15 -2.02114e-15 0.130122 -6.8364e-17 -3.42e-17)
(5.27171e-15 -2.89877e-30 -9.05867e-32 7.88168 -3.26473e-15 3.64282e-17 0.130122 -9.16717e-16 4.98966e-16)
(-1.73513e-15 -2.22055e-30 -9.09845e-32 7.67703 4.12953e-15 -2.06378e-15 0.128605 -5.86815e-17 -3.53636e-17)
(0 1.14289e-29 2.67865e-31 7.67703 -3.38745e-15 8.97403e-17 0.128605 -9.2189e-16 5.02679e-16)
(1.58839e-16 7.77667e-30 2.63453e-31 7.47981 2.93686e-15 -2.09971e-15 0.127141 -8.06537e-17 -3.64392e-17)
(0 -5.63255e-30 -2.64026e-31 7.47981 -3.86654e-15 1.32019e-16 0.127141 -9.28915e-16 5.07195e-16)
(3.1254e-15 -1.29092e-29 -4.33736e-31 7.28964 2.22809e-15 -2.14022e-15 0.125727 -1.93231e-17 -3.7815e-17)
(0 1.11036e-29 4.33736e-31 7.28964 -4.56195e-15 8.60438e-17 0.125727 -9.38324e-16 5.11434e-16)
(3.0806e-15 -5.47225e-30 -1.71008e-31 7.10618 2.13397e-15 -2.19017e-15 0.124361 -6.02217e-17 -3.92774e-17)
(-3.0806e-15 5.47225e-30 1.71008e-31 7.10618 -4.26247e-15 6.56336e-17 0.124361 -9.48341e-16 5.15709e-16)
(-2.02379e-15 -1.5811e-29 -3.22261e-31 6.92912 1.63028e-15 -2.23101e-15 0.123042 -1.45528e-17 -4.03918e-17)
(0 5.39382e-30 5.05671e-31 6.92912 -4.18688e-15 4.16194e-17 0.123042 -9.71194e-16 5.20112e-16)
(-3.27619e-15 1.94351e-29 2.59005e-31 6.75815 4.47559e-15 -2.25602e-15 0.121766 -7.1668e-17 -4.13404e-17)
(1.49647e-15 -1.59495e-29 -1.66141e-31 6.75815 -3.95961e-15 6.4173e-17 0.121766 -9.89776e-16 5.24278e-16)
(1.78834e-15 -3.47973e-30 -9.40169e-32 6.59299 3.8967e-15 -2.27911e-15 0.120532 -9.0599e-17 -4.24297e-17)
(-7.15336e-15 0 0 6.59299 -3.98776e-15 7.84989e-17 0.120532 -1.00764e-15 5.29123e-16)
(2.90775e-15 -5.16521e-30 -3.22825e-31 6.43337 1.60116e-15 -2.31222e-15 0.119338 -5.23371e-17 -4.37948e-17)
(-7.18748e-15 5.16521e-30 3.22825e-31 6.43337 -3.85641e-15 5.29391e-17 0.119338 -1.02818e-15 5.33255e-16)
(-4.67139e-15 1.63167e-29 4.14455e-31 6.27904 7.44176e-16 -2.35851e-15 0.118182 -7.03782e-18 -4.54366e-17)
(1.44425e-14 -1.01823e-29 0 6.27904 -2.21674e-15 6.692e-17 0.118182 -1.03457e-15 5.37698e-16)
(1.81367e-15 1.05832e-29 3.72884e-31 6.12977 2.87362e-15 -2.39503e-15 0.117063 -2.75716e-17 -4.64895e-17)
(7.25467e-15 -2.00728e-29 -6.27276e-31 6.12977 -2.63559e-15 8.76665e-17 0.117063 -1.02483e-15 5.42439e-16)
(0 0 0 5.98532 4.13194e-15 -2.41192e-15 0.115979 -8.39918e-17 -4.74301e-17)
(0 4.94628e-30 3.09143e-31 5.98532 -2.73712e-15 8.43178e-17 0.115979 -1.05889e-15 5.47857e-16)
(-4.57473e-15 -1.1151e-29 -6.61488e-31 5.8455 3.6747e-15 -2.43222e-15 0.114929 -7.68418e-17 -4.86591e-17)
(7.32054e-15 1.95016e-29 9.14135e-31 5.8455 -1.54974e-15 6.19636e-17 0.114929 -1.06885e-15 5.52941e-16)
(-1.83825e-15 8.28032e-30 5.52221e-31 5.7101 3.52746e-15 -2.45122e-15 0.113911 -6.82582e-17 -4.95866e-17)
(-7.353e-15 0 -1.50172e-31 5.7101 -2.424e-15 4.75019e-17 0.113911 -1.07599e-15 5.57953e-16)
(1.84629e-15 -1.29456e-29 -5.47182e-31 5.57893 2.79431e-15 -2.47032e-15 0.112923 -7.3149e-17 -5.08664e-17)
(7.38516e-15 9.47327e-30 4.4406e-31 5.57893 -1.65451e-15 5.7376e-17 0.112923 -1.08691e-15 5.62892e-16)
(-1.85426e-15 2.21511e-29 8.34049e-31 5.45182 1.89201e-15 -2.49972e-15 0.111966 -4.0231e-17 -5.2261e-17)
(7.41704e-15 -1.8675e-29 -7.29492e-31 5.45182 -1.84384e-15 9.19482e-17 0.111966 -1.08052e-15 5.68179e-16)
(-1.86216e-15 3.47635e-30 1.06008e-31 5.32859 2.34634e-15 -2.53478e-15 0.111036 -3.77996e-17 -5.38342e-17)
(0 0 0 5.32859 -4.32478e-15 8.63126e-17 0.111036 -1.09975e-15 5.73664e-16)
(-1.86999e-15 -1.063e-30 -3.4094e-32 5.20908 2.57579e-15 -2.56671e-15 0.110134 -6.05624e-17 -5.51578e-17)
(0 9.07175e-30 2.83492e-31 5.20908 -4.09886e-15 9.15621e-17 0.110134 -1.11921e-15 5.79475e-16)
(-1.87775e-15 -9.93855e-30 -4.49562e-31 5.09316 2.02553e-15 -2.59825e-15 0.109259 -4.87199e-17 -5.67798e-17)
(4.99413e-15 1.78835e-29 5.58858e-31 5.09316 -2.49253e-15 9.42568e-17 0.109259 -1.11759e-15 5.85748e-16)
(1.88545e-15 -1.22884e-29 -5.24251e-31 4.98066 2.56009e-15 -2.63486e-15 0.108408 -3.84604e-17 -5.83849e-17)
(0 8.81357e-30 4.13136e-31 4.98066 -4.02342e-15 7.8048e-17 0.108408 -1.11687e-15 5.92567e-16)
(0 -8.68725e-30 -2.71477e-31 4.87146 3.12308e-15 -2.65824e-15 0.107582 -7.36795e-17 -5.94871e-17)
(2.44524e-15 8.68725e-30 4.07215e-31 4.87146 -5.98134e-15 9.1619e-17 0.107582 -1.15032e-15 6.0005e-16)
(-1.90066e-15 3.46759e-30 -1.52598e-31 4.76542 3.35627e-15 -2.68803e-15 0.106779 -6.47309e-17 -6.14451e-17)
(0 4.28137e-30 4.01379e-31 4.76542 -5.36256e-15 6.73943e-17 0.106779 -1.18854e-15 6.07808e-16)
(0 -2.532e-29 -1.31875e-30 4.66243 4.69745e-15 -2.72837e-15 0.105999 -8.64037e-17 -6.30841e-17)
(1.52655e-14 2.95401e-29 1.31875e-30 4.66243 -4.10867e-15 9.18857e-17 0.105999 -1.21412e-15 6.15091e-16)
(-2.3416e-15 0 1.29985e-31 4.56236 4.93633e-15 -2.76303e-15 0.10524 -1.28281e-16 -6.48619e-17)
(7.66257e-15 4.15952e-30 2.5997e-31 4.56236 -3.98586e-15 1.19548e-16 0.10524 -1.22472e-15 6.23486e-16)
(-1.92305e-15 2.39579e-29 1.40246e-30 4.46511 4.07153e-15 -2.79948e-15 0.104502 -1.00076e-16 -6.66565e-17)
(-7.69219e-15 -2.04995e-29 -1.1531e-30 4.46511 -4.57716e-15 4.70323e-17 0.104502 -1.24226e-15 6.32132e-16)
(3.44565e-16 1.96236e-29 6.28637e-31 4.37056 3.27482e-15 -2.84589e-15 0.103785 -9.11199e-17 -6.89897e-17)
(-7.72159e-15 -1.21234e-29 -3.78857e-31 4.37056 -3.99988e-15 7.72073e-19 0.103785 -1.26321e-15 6.40568e-16)
(2.24236e-15 1.19497e-29 3.73427e-31 4.27862 3.53479e-15 -2.90033e-15 0.103086 -6.47614e-17 -7.12607e-17)
(-2.24236e-15 -7.96645e-30 -1.24476e-31 4.27862 -2.4137e-15 1.89554e-19 0.103086 -1.26568e-15 6.48699e-16)
(0 3.92614e-30 4.90767e-31 4.1892 5.19312e-15 -2.92343e-15 0.102406 -1.0645e-16 -7.21517e-17)
(5.56956e-15 0 -2.45383e-31 4.1892 -2.74753e-15 1.60007e-17 0.102406 -1.27434e-15 6.56265e-16)
(-2.26398e-16 1.97809e-29 1.56221e-30 4.1022 5.67752e-15 -2.95029e-15 0.101745 -1.48597e-16 -7.46949e-17)
(-2.17854e-15 -1.93493e-29 -1.4512e-30 4.1022 -4.80263e-15 2.17969e-18 0.101745 -1.3002e-15 6.63698e-16)
(0 -3.05152e-29 -1.6688e-30 4.01753 5.48177e-15 -3.00411e-15 0.1011 -1.33851e-16 -7.70024e-17)
(1.56743e-14 3.05152e-29 1.6688e-30 4.01753 -4.49788e-15 3.99864e-17 0.1011 -1.33568e-15 6.70534e-16)
(0 -7.51946e-30 -4.69966e-31 3.93511 5.90414e-15 -3.04633e-15 0.100472 -1.42995e-16 -7.90613e-17)
(1.57311e-14 7.51946e-30 4.69966e-31 3.93511 -5.13373e-15 5.66703e-17 0.100472 -1.34092e-15 6.79018e-16)
(-3.9469e-15 6.85157e-30 5.09629e-31 3.85486 6.29233e-15 -3.08842e-15 0.0998608 -1.59565e-16 -8.14617e-17)
(0 0 -2.31615e-31 3.85486 -6.65344e-15 1.92514e-17 0.0998608 -1.3771e-15 6.86499e-16)
(-1.98046e-15 -2.33212e-31 3.70348e-31 3.77671 6.96003e-15 -3.12087e-15 0.0992649 -1.67505e-16 -8.31004e-17)
(1.58437e-14 7.30546e-30 0 3.77671 -5.39511e-15 3.3114e-17 0.0992649 -1.4276e-15 6.93774e-16)
(1.98743e-15 -1.06089e-29 -8.20048e-31 3.70058 7.54574e-15 -3.14629e-15 0.0986841 -1.997e-16 -8.52176e-17)
(0 7.20075e-30 6.7507e-31 3.70058 -6.21828e-15 3.36725e-17 0.0986841 -1.45006e-15 7.00824e-16)
(-1.99436e-15 3.40115e-30 1.47928e-31 3.6264 6.20913e-15 -3.17618e-15 0.0981179 -2.03971e-16 -8.71687e-17)
(0 3.54877e-30 2.21798e-31 3.6264 -6.885e-15 2.34361e-17 0.0981179 -1.50039e-15 7.07077e-16)
(-3.20932e-17 1.04022e-29 8.06728e-31 3.55412 5.55303e-15 -3.21262e-15 0.0975658 -1.32484e-16 -8.97347e-17)
(6.03582e-15 -6.99582e-30 -6.55858e-31 3.55412 -5.1127e-15 3.49434e-17 0.0975658 -1.55141e-15 7.13381e-16)
(-2.00809e-15 1.3738e-29 5.84907e-31 3.48365 7.26374e-15 -3.24476e-15 0.0970274 -1.73559e-16 -9.15307e-17)
(6.09142e-15 -6.89555e-30 0 3.48365 -5.43738e-15 4.3989e-17 0.0970274 -1.57706e-15 7.19615e-16)
(-4.02978e-15 1.016e-29 1.01461e-31 3.41495 7.20577e-15 -3.26642e-15 0.0965021 -2.3262e-16 -9.35997e-17)
(0 -3.39836e-30 2.12398e-31 3.41495 -5.47574e-15 3.96448e-17 0.0965021 -1.61269e-15 7.25303e-16)
(-2.02166e-15 1.67825e-29 7.88064e-31 3.34796 5.45459e-15 -3.29995e-15 0.0959896 -1.75334e-16 -9.61538e-17)
(-1.88569e-15 -6.69931e-30 -4.18707e-31 3.34796 -4.39692e-15 -6.27056e-17 0.0959896 -1.64399e-15 7.31541e-16)
(0 -9.90493e-30 -4.12705e-31 3.28261 4.95726e-15 -3.35432e-15 0.0954894 -1.38016e-16 -9.95365e-17)
(-8.11356e-15 9.90493e-30 4.12705e-31 3.28261 -3.96308e-15 -1.25613e-16 0.0954894 -1.66649e-15 7.34909e-16)
(2.03508e-15 -9.88648e-30 -3.69749e-31 3.21886 5.36883e-15 -3.40798e-15 0.0950013 -1.51249e-16 -1.02169e-16)
(8.14033e-15 6.50865e-30 2.03395e-31 3.21886 -3.9471e-15 -8.04576e-17 0.0950013 -1.69025e-15 7.38239e-16)
(2.04174e-15 -1.29911e-29 -9.71457e-31 3.15665 4.96841e-15 -3.45547e-15 0.0945246 -1.66593e-16 -1.05324e-16)
(-8.16696e-15 9.62304e-30 8.0192e-31 3.15665 -4.3709e-15 -8.36621e-17 0.0945246 -1.74508e-15 7.40099e-16)
(-2.04836e-15 1.6015e-29 5.67964e-31 3.09595 5.07562e-15 -3.5083e-15 0.0940593 -1.31462e-16 -1.08404e-16)
(4.63369e-15 -9.48512e-30 0 3.09595 -4.05926e-15 -8.14737e-17 0.0940593 -1.78265e-15 7.40299e-16)
(0 6.23278e-30 3.89549e-31 3.03669 7.35358e-15 -3.5611e-15 0.0936047 -1.78052e-16 -1.11696e-16)
(0 -3.11639e-30 -1.94774e-31 3.03669 -4.63052e-15 -6.2918e-17 0.0936047 -1.78466e-15 7.39887e-16)
(-3.45845e-15 1.22869e-29 7.67931e-31 2.97883 8.25754e-15 -3.60366e-15 0.0931607 -2.77115e-16 -1.14267e-16)
(8.24604e-15 -6.14345e-30 -1.91983e-31 2.97883 -4.55205e-15 -8.64902e-18 0.0931607 -1.81342e-15 7.39847e-16)
(3.77248e-15 -9.38618e-30 -9.39979e-31 2.92234 6.49281e-15 -3.65836e-15 0.0927269 -2.40357e-16 -1.18473e-16)
(-1.70444e-15 6.0554e-30 7.56925e-31 2.92234 -4.00979e-15 -2.9798e-17 0.0927269 -1.84203e-15 7.40655e-16)
(0 8.95291e-30 7.46076e-31 2.86716 7.44451e-15 -3.73761e-15 0.092303 -1.72161e-16 -1.22766e-16)
(-8.29811e-15 -5.96861e-30 -5.59557e-31 2.86716 -5.29697e-15 -1.1117e-16 0.092303 -1.87785e-15 7.39853e-16)
(-3.31187e-15 2.94153e-30 1.83846e-31 2.81326 1.11945e-14 -3.77562e-15 0.0918887 -3.09263e-16 -1.2445e-16)
(0 5.88306e-30 1.83846e-31 2.81326 -6.39429e-15 -5.75202e-17 0.0918887 -1.92555e-15 7.3798e-16)
(0 1.15975e-29 7.24843e-31 2.76061 1.15755e-14 -3.79376e-15 0.0914837 -4.24514e-16 -1.27576e-16)
(0 -5.79874e-30 -3.62421e-31 2.76061 -7.31356e-15 -3.03791e-18 0.0914837 -1.97326e-15 7.37409e-16)
(2.09383e-15 1.6728e-29 1.22919e-30 2.70915 1.08947e-14 -3.84495e-15 0.0910877 -3.43813e-16 -1.31571e-16)
(0 -2.00047e-29 -1.42891e-30 2.70915 -9.15171e-15 5.84715e-19 0.0910877 -2.00044e-15 7.37185e-16)
(2.1002e-15 2.37261e-30 4.99842e-31 2.65887 9.84999e-15 -3.90368e-15 0.0907005 -3.90738e-16 -1.35358e-16)
(0 0 -3.52107e-31 2.65887 -7.97617e-15 5.88396e-17 0.0907005 -2.06321e-15 7.37639e-16)
(-4.21309e-15 1.20932e-29 7.13511e-32 2.60971 6.52555e-15 -3.96732e-15 0.0903217 -2.81937e-16 -1.39871e-16)
(8.42619e-15 -5.55297e-30 3.4706e-31 2.60971 -3.87881e-15 -4.54987e-17 0.0903217 -2.10605e-15 7.39121e-16)
(-2.11287e-15 3.27904e-30 2.1417e-31 2.56166 5.28403e-15 -4.02639e-15 0.0899512 -1.69905e-16 -1.4351e-16)
(0 5.47338e-30 6.84172e-31 2.56166 -2.80117e-15 -1.51389e-16 0.0899512 -2.12045e-15 7.35626e-16)
(0 0 6.74366e-31 2.51468 5.49867e-15 -4.09448e-15 0.0895887 -2.02189e-16 -1.48865e-16)
(0 0 -6.74366e-31 2.51468 -2.37395e-15 -1.66344e-16 0.0895887 -2.16445e-15 7.29976e-16)
(0 1.06352e-29 1.3294e-30 2.46874 6.10666e-15 -4.20717e-15 0.089234 -1.90318e-16 -1.55936e-16)
(0 -5.31761e-30 -6.64701e-31 2.46874 -2.71535e-15 -2.52649e-16 0.089234 -2.14861e-15 7.20161e-16)
(-2.95064e-15 1.04828e-29 9.82761e-31 2.4238 7.63211e-15 -4.31872e-15 0.0888868 -2.52472e-16 -1.61483e-16)
(0 0 -3.27587e-31 2.4238 -3.34083e-15 -2.15144e-16 0.0888868 -2.15703e-15 7.07433e-16)
(0 5.16627e-30 9.68676e-31 2.37985 7.15933e-15 -4.3815e-15 0.088547 -3.08812e-16 -1.65219e-16)
(1.7103e-14 0 -6.45784e-31 2.37985 -2.10768e-15 -1.50117e-16 0.088547 -2.19372e-15 6.94829e-16)
(-4.28814e-15 6.48143e-30 4.77775e-31 2.33684 5.46171e-15 -4.44545e-15 0.0882142 -2.24362e-16 -1.71086e-16)
(8.57627e-15 0 0 2.33684 -2.44326e-15 -1.3891e-16 0.0882142 -2.19868e-15 6.79419e-16)
(4.97582e-15 -1.32812e-29 -8.71363e-31 2.29477 4.95296e-15 -4.55695e-15 0.0878884 -1.88514e-16 -1.78678e-16)
(0 1.00385e-29 9.41108e-31 2.29477 -4.00009e-15 -2.042e-16 0.0878884 -2.23223e-15 6.62154e-16)
(0 0 6.18413e-31 2.2536 4.5672e-15 -4.68671e-15 0.0875693 -1.91609e-16 -1.86273e-16)
(-8.62551e-15 0 0 2.2536 -5.1352e-15 -2.49017e-16 0.0875693 -2.27745e-15 6.4108e-16)
(-2.1625e-15 -6.51238e-30 -1.87745e-30 2.2133 4.5459e-15 -4.79283e-15 0.0872567 -1.63782e-16 -1.92355e-16)
(8.64999e-15 1.46292e-29 2.4382e-30 2.2133 -4.87477e-15 -9.31721e-17 0.0872567 -2.3376e-15 6.18836e-16)
(0 9.61301e-30 1.20163e-30 2.17385 4.88752e-15 -4.87647e-15 0.0869505 -1.95527e-16 -1.98482e-16)
(-2.70582e-15 -4.8065e-30 -6.00813e-31 2.17385 -4.13202e-15 -2.8175e-17 0.0869505 -2.39946e-15 5.97015e-16)
(2.66704e-15 -1.42128e-29 -2.96101e-31 2.13524 5.04432e-15 -4.95239e-15 0.0866504 -1.96156e-16 -2.04208e-16)
(0 9.47523e-30 5.92202e-31 2.13524 -5.07223e-15 -8.80703e-17 0.0866504 -2.46186e-15 5.7092e-16)
(-2.18072e-15 -1.4545e-30 2.75207e-31 2.09743 3.34731e-15 -4.97828e-15 0.0863563 -2.14095e-16 -2.06446e-16)
(0 4.66971e-30 0 2.09743 -5.09862e-15 4.16139e-17 0.0863563 -2.55765e-15 5.41264e-16)
(-1.78237e-15 -1.65472e-29 -2.6023e-30 2.06041 1.64038e-15 -4.99984e-15 0.0860681 -6.09055e-17 -2.12008e-16)
(1.7494e-14 2.30139e-29 2.87674e-30 2.06041 -3.39079e-15 1.948e-16 0.0860681 -2.60477e-15 5.14015e-16)
(0 -3.35541e-30 1.1342e-30 2.02416 3.60333e-15 -5.04427e-15 0.0857855 -7.64827e-17 -2.16293e-16)
(0 -4.53681e-30 -5.67102e-31 2.02416 -4.13125e-15 1.48344e-16 0.0857855 -2.61912e-15 4.887e-16)
(-2.51739e-15 1.34154e-29 1.39743e-30 1.98865 7.20028e-15 -5.05319e-15 0.0855085 -3.11846e-16 -2.18993e-16)
(-2.51739e-15 -4.47179e-30 -5.58974e-31 1.98865 -4.83961e-15 5.20321e-17 0.0855085 -2.69475e-15 4.62598e-16)
(-6.61418e-15 -8.11997e-30 -2.12941e-30 1.95387 6.93472e-15 -5.03845e-15 0.0852368 -3.08339e-16 -2.21331e-16)
(1.76378e-14 2.20385e-29 3.03029e-30 1.95387 -3.68583e-15 1.56187e-16 0.0852368 -2.76545e-15 4.36731e-16)
(0 -2.60671e-29 -2.17226e-30 1.91979 6.41501e-15 -5.02697e-15 0.0849703 -2.97605e-16 -2.24383e-16)
(1.76854e-14 2.60671e-29 2.17226e-30 1.91979 -4.54261e-15 2.94795e-16 0.0849703 -2.78754e-15 4.1615e-16)
(-2.21661e-15 1.17199e-29 1.91946e-30 1.88641 5.57403e-15 -5.02279e-15 0.0847089 -2.70959e-16 -2.27436e-16)
(0 -4.28225e-30 -1.07056e-30 1.88641 -4.71898e-15 1.6302e-16 0.0847089 -2.84702e-15 3.98403e-16)