/*--------------------------------*- C++ -*----------------------------------*\
| =========                 |                                                 |
| \\      /  F ield         | OpenFOAM: The Open Source CFD Toolbox           |
|  \\    /   O peration     | Version:  2106                                  |
|   \\  /    A nd           | Website:  www.openfoam.com                      |
|    \\/     M anipulation  |                                                 |
\*---------------------------------------------------------------------------*/
FoamFile
{
    version     2.0;
    format      ascii;
    arch        "LSB;label=32;scalar=64";
    class       volScalarField;
    location    "12000";
    object      p;
}
// * * * * * * * * * * * * * * * * * * * * * * * * * * * * * * * * * * * * * //

dimensions      [0 2 -2 0 0 0 0];

internalField   nonuniform List<scalar> 
2560
(
5.62026e-16
2.36542e-14
1.18748e-15
2.36541e-14
1.29834e-15
2.3654e-14
1.27481e-15
2.36539e-14
1.2727e-15
2.36537e-14
1.28577e-15
2.36534e-14
1.30119e-15
2.36532e-14
1.31626e-15
2.36529e-14
1.33115e-15
2.36525e-14
1.34596e-15
2.3652e-14
1.36061e-15
2.36515e-14
1.37513e-15
2.36509e-14
1.38953e-15
2.36502e-14
1.40392e-15
2.36494e-14
1.4183e-15
2.36485e-14
1.43274e-15
2.36475e-14
1.44732e-15
2.36465e-14
1.46206e-15
2.36454e-14
1.47699e-15
2.36442e-14
1.49233e-15
2.36428e-14
1.50802e-15
2.36415e-14
1.52406e-15
2.364e-14
1.54055e-15
2.36385e-14
1.55763e-15
2.3637e-14
1.57524e-15
2.36353e-14
1.59336e-15
2.36336e-14
1.61202e-15
2.36318e-14
1.63154e-15
2.36301e-14
1.65172e-15
2.36285e-14
1.6726e-15
2.36268e-14
1.69419e-15
2.3625e-14
1.7165e-15
2.36229e-14
1.7395e-15
2.36208e-14
1.76317e-15
2.3619e-14
1.78761e-15
2.36172e-14
1.81258e-15
2.36155e-14
1.83823e-15
2.36136e-14
1.86467e-15
2.36116e-14
1.89207e-15
2.36096e-14
1.92007e-15
2.36075e-14
1.94876e-15
2.36054e-14
1.97791e-15
2.36034e-14
2.00773e-15
2.36016e-14
2.03819e-15
2.35995e-14
2.0694e-15
2.35972e-14
2.10122e-15
2.35947e-14
2.1333e-15
2.35927e-14
2.16642e-15
2.35907e-14
2.20011e-15
2.35887e-14
2.23408e-15
2.35873e-14
2.26959e-15
2.35856e-14
2.30507e-15
2.35842e-14
2.34073e-15
2.35832e-14
2.37709e-15
2.35822e-14
2.41383e-15
2.35816e-14
2.45034e-15
2.35823e-14
2.48774e-15
2.35832e-14
2.52569e-15
2.35836e-14
2.56357e-15
2.35848e-14
2.60161e-15
2.3586e-14
2.63946e-15
2.35881e-14
2.67737e-15
2.35911e-14
2.7156e-15
2.35931e-14
2.75378e-15
2.35952e-14
2.79218e-15
2.35983e-14
2.83006e-15
2.36012e-14
2.86872e-15
2.36036e-14
2.90846e-15
2.36057e-14
2.94855e-15
2.3608e-14
2.99142e-15
2.36102e-14
3.03345e-15
2.36123e-14
3.07566e-15
2.36143e-14
3.11871e-15
2.36156e-14
3.16255e-15
2.36169e-14
3.20712e-15
2.36186e-14
3.25234e-15
2.36204e-14
3.29739e-15
2.36208e-14
3.34373e-15
2.36214e-14
3.39211e-15
2.36218e-14
3.44167e-15
2.36222e-14
3.48991e-15
2.36233e-14
3.53876e-15
2.36216e-14
3.59019e-15
2.36183e-14
3.64289e-15
2.36164e-14
3.69596e-15
2.36159e-14
3.75014e-15
2.36144e-14
3.80448e-15
2.3612e-14
3.85887e-15
2.3607e-14
3.91494e-15
2.3602e-14
3.97259e-15
2.3598e-14
4.03084e-15
2.35933e-14
4.09047e-15
2.3588e-14
4.15048e-15
2.35822e-14
4.21343e-15
2.35759e-14
4.27834e-15
2.35684e-14
4.34418e-15
2.35597e-14
4.41173e-15
2.35544e-14
4.47994e-15
2.3551e-14
4.54775e-15
2.35448e-14
4.61968e-15
2.3535e-14
4.69374e-15
2.35244e-14
4.76884e-15
2.35142e-14
4.84292e-15
2.35016e-14
4.91964e-15
2.34914e-14
4.99789e-15
2.34829e-14
5.07557e-15
2.34723e-14
5.15444e-15
2.34626e-14
5.23335e-15
2.34531e-14
5.31308e-15
2.34408e-14
5.39643e-15
2.34298e-14
5.47924e-15
2.34194e-14
5.56131e-15
2.34096e-14
5.64543e-15
2.33946e-14
5.7314e-15
2.33795e-14
5.82106e-15
2.33624e-14
5.9142e-15
2.33425e-14
6.00963e-15
2.33209e-14
6.10711e-15
2.32988e-14
6.2013e-15
2.32795e-14
6.30227e-15
2.32568e-14
6.40879e-15
2.32289e-14
6.50921e-15
2.32021e-14
6.60951e-15
2.31745e-14
6.71363e-15
2.31485e-14
6.81713e-15
2.31241e-14
6.92397e-15
2.30973e-14
7.03391e-15
2.30683e-14
7.14882e-15
2.30352e-14
7.27059e-15
2.29938e-14
7.39261e-15
2.29486e-14
7.51674e-15
2.29039e-14
7.6449e-15
2.28621e-14
7.78114e-15
2.28125e-14
7.9231e-15
2.27554e-14
8.06622e-15
2.27016e-14
8.21244e-15
2.26491e-14
8.36586e-15
2.25873e-14
8.51758e-15
2.25292e-14
8.68043e-15
2.24772e-14
8.84331e-15
2.24227e-14
9.00159e-15
2.23614e-14
9.16162e-15
2.23066e-14
9.32097e-15
2.22585e-14
9.47941e-15
2.22039e-14
9.64111e-15
2.21519e-14
9.80365e-15
2.21025e-14
9.96902e-15
2.20514e-14
1.01348e-14
2.20009e-14
1.0294e-14
2.19512e-14
1.04555e-14
2.19046e-14
1.06166e-14
2.18567e-14
1.0784e-14
2.18144e-14
1.09506e-14
2.17755e-14
1.11185e-14
2.17379e-14
1.12741e-14
2.16995e-14
1.14284e-14
2.16559e-14
1.15922e-14
2.16071e-14
1.17587e-14
2.15735e-14
1.19255e-14
2.15462e-14
1.20833e-14
2.15118e-14
1.22364e-14
2.14771e-14
1.23757e-14
2.14534e-14
1.25233e-14
2.14275e-14
1.26836e-14
2.13994e-14
1.28247e-14
2.13693e-14
1.2978e-14
2.13372e-14
1.31299e-14
2.13077e-14
1.32755e-14
2.12854e-14
1.34192e-14
2.12569e-14
1.35608e-14
2.12313e-14
1.37e-14
2.12132e-14
1.38412e-14
2.11936e-14
1.39752e-14
2.11727e-14
1.41061e-14
2.11507e-14
1.42338e-14
2.11276e-14
1.4358e-14
2.11034e-14
1.44741e-14
2.10829e-14
1.45952e-14
2.10571e-14
1.47122e-14
2.10441e-14
1.48248e-14
2.10396e-14
1.49327e-14
2.10302e-14
1.504e-14
2.10206e-14
1.51467e-14
2.10065e-14
1.52523e-14
2.0997e-14
1.53521e-14
2.09923e-14
1.54458e-14
2.09792e-14
1.55331e-14
2.09667e-14
1.56227e-14
2.09506e-14
1.57143e-14
2.094e-14
1.5794e-14
2.09352e-14
1.58839e-14
2.09228e-14
1.59614e-14
2.09076e-14
1.60304e-14
2.08988e-14
1.61042e-14
2.0901e-14
1.61776e-14
2.09056e-14
1.62414e-14
2.08906e-14
1.63129e-14
2.08742e-14
1.63918e-14
2.08788e-14
1.64864e-14
2.08692e-14
1.65832e-14
2.08454e-14
1.66866e-14
2.08298e-14
1.67787e-14
2.08223e-14
1.68726e-14
2.08054e-14
1.69683e-14
2.07923e-14
1.70569e-14
2.07742e-14
1.71382e-14
2.07688e-14
1.72297e-14
2.07585e-14
1.73225e-14
2.07346e-14
1.74078e-14
2.07146e-14
1.74944e-14
2.06984e-14
1.75648e-14
2.06859e-14
1.76451e-14
2.06684e-14
1.77179e-14
2.06372e-14
1.78006e-14
2.06181e-14
1.78758e-14
2.06196e-14
1.79433e-14
2.06331e-14
1.80113e-14
2.06327e-14
1.80798e-14
2.06188e-14
1.81316e-14
2.06169e-14
1.81918e-14
2.06274e-14
1.82515e-14
2.06246e-14
1.83192e-14
2.05918e-14
1.83864e-14
2.05798e-14
1.84703e-14
2.05797e-14
1.85371e-14
2.05659e-14
1.85784e-14
2.05467e-14
1.86449e-14
2.05304e-14
1.87115e-14
2.0525e-14
1.87868e-14
2.0522e-14
1.88458e-14
2.05211e-14
1.88969e-14
2.04969e-14
1.89571e-14
2.04909e-14
1.90347e-14
2.04943e-14
1.91055e-14
2.049e-14
1.91616e-14
2.0469e-14
1.92286e-14
2.04719e-14
1.9282e-14
2.04735e-14
1.93467e-14
2.04733e-14
1.93825e-14
2.04629e-14
1.94302e-14
2.0458e-14
1.94901e-14
2.04661e-14
1.95382e-14
2.04465e-14
1.95996e-14
2.04225e-14
1.96592e-14
2.04169e-14
1.97338e-14
2.04048e-14
1.98007e-14
2.04007e-14
1.98612e-14
2.03716e-14
1.99334e-14
2.03317e-14
1.99724e-14
2.031e-14
2.00259e-14
2.02896e-14
2.00797e-14
2.02999e-14
2.01347e-14
2.03241e-14
2.01605e-14
2.03613e-14
2.0203e-14
2.04119e-14
2.02462e-14
2.04454e-14
2.02898e-14
2.04465e-14
2.03195e-14
2.04749e-14
2.03503e-14
2.05302e-14
2.0396e-14
2.05825e-14
2.04416e-14
2.06018e-14
2.04435e-14
2.06473e-14
2.04738e-14
2.06608e-14
2.04731e-14
2.06726e-14
2.05297e-14
2.06981e-14
2.0586e-14
2.07069e-14
2.06294e-14
2.0741e-14
2.0661e-14
2.07271e-14
2.06831e-14
2.07352e-14
2.07393e-14
2.07646e-14
2.07591e-14
2.08143e-14
2.07702e-14
2.08432e-14
2.07862e-14
2.08101e-14
2.07948e-14
2.07699e-14
2.08259e-14
2.08319e-14
2.08364e-14
2.09272e-14
2.08502e-14
2.09632e-14
2.08663e-14
2.09153e-14
2.08603e-14
2.08628e-14
2.08619e-14
2.08578e-14
2.08582e-14
2.08853e-14
2.08613e-14
2.09613e-14
2.08539e-14
2.09449e-14
2.08233e-14
2.09167e-14
2.08089e-14
2.08887e-14
2.081e-14
2.09122e-14
2.08371e-14
2.08986e-14
2.08155e-14
2.0846e-14
2.07738e-14
2.0803e-14
2.07877e-14
2.07683e-14
2.07467e-14
2.07771e-14
2.07241e-14
2.07831e-14
2.07179e-14
2.07384e-14
2.07307e-14
2.07377e-14
2.06896e-14
2.07305e-14
2.06637e-14
2.07204e-14
2.06982e-14
2.07342e-14
2.07222e-14
2.0723e-14
2.06917e-14
2.06823e-14
2.06762e-14
2.07035e-14
2.06486e-14
2.06037e-14
2.06133e-14
2.05337e-14
2.05475e-14
2.05535e-14
2.0509e-14
2.05569e-14
2.04929e-14
2.05713e-14
2.04717e-14
2.05321e-14
2.04894e-14
2.05258e-14
2.05057e-14
2.05039e-14
2.04594e-14
2.05271e-14
2.04692e-14
2.05596e-14
2.04868e-14
2.05823e-14
2.05131e-14
2.05547e-14
2.05137e-14
2.05329e-14
2.05543e-14
2.05129e-14
2.05222e-14
2.05707e-14
2.05098e-14
2.05329e-14
2.0539e-14
2.04998e-14
2.0581e-14
2.05182e-14
2.05632e-14
2.05847e-14
2.05562e-14
2.0551e-14
2.05458e-14
2.05506e-14
1.90172e-14
1.9773e-14
1.90172e-14
1.97731e-14
1.90173e-14
1.97732e-14
1.90174e-14
1.97733e-14
1.90176e-14
1.97734e-14
1.90178e-14
1.97736e-14
1.9018e-14
1.97738e-14
1.90183e-14
1.97741e-14
1.90186e-14
1.97744e-14
1.9019e-14
1.97748e-14
1.90194e-14
1.97752e-14
1.90198e-14
1.97757e-14
1.90203e-14
1.97762e-14
1.90209e-14
1.97768e-14
1.90215e-14
1.97775e-14
1.90222e-14
1.97782e-14
1.90229e-14
1.9779e-14
1.90236e-14
1.978e-14
1.90245e-14
1.9781e-14
1.90253e-14
1.97821e-14
1.90263e-14
1.97834e-14
1.90272e-14
1.97848e-14
1.90284e-14
1.97865e-14
1.90295e-14
1.97883e-14
1.90308e-14
1.97902e-14
1.90322e-14
1.97923e-14
1.90337e-14
1.97946e-14
1.90354e-14
1.97971e-14
1.90372e-14
1.98e-14
1.90392e-14
1.98029e-14
1.90413e-14
1.98058e-14
1.90435e-14
1.98089e-14
1.9046e-14
1.98125e-14
1.9049e-14
1.98163e-14
1.9052e-14
1.98202e-14
1.90552e-14
1.98244e-14
1.90587e-14
1.98287e-14
1.90624e-14
1.98333e-14
1.90664e-14
1.98377e-14
1.90706e-14
1.98423e-14
1.90751e-14
1.98475e-14
1.90795e-14
1.9853e-14
1.90843e-14
1.98586e-14
1.90896e-14
1.98643e-14
1.9095e-14
1.98706e-14
1.91005e-14
1.9877e-14
1.91062e-14
1.98837e-14
1.91122e-14
1.98911e-14
1.91184e-14
1.98986e-14
1.91244e-14
1.99064e-14
1.91312e-14
1.99147e-14
1.91376e-14
1.99233e-14
1.9145e-14
1.99323e-14
1.9152e-14
1.99419e-14
1.91592e-14
1.99516e-14
1.91665e-14
1.99621e-14
1.91741e-14
1.99726e-14
1.91821e-14
1.99839e-14
1.919e-14
1.99956e-14
1.91982e-14
2.00074e-14
1.92071e-14
2.00193e-14
1.9216e-14
2.00313e-14
1.92245e-14
2.00446e-14
1.92332e-14
2.00578e-14
1.92414e-14
2.00724e-14
1.92513e-14
2.00875e-14
1.92611e-14
2.0102e-14
1.92711e-14
2.01183e-14
1.92815e-14
2.01341e-14
1.92921e-14
2.01492e-14
1.93031e-14
2.01656e-14
1.93148e-14
2.01831e-14
1.93264e-14
2.02014e-14
1.93384e-14
2.0221e-14
1.93505e-14
2.02411e-14
1.93625e-14
2.02601e-14
1.93753e-14
2.02793e-14
1.93889e-14
2.02985e-14
1.94027e-14
2.03178e-14
1.94152e-14
2.03376e-14
1.94283e-14
2.03579e-14
1.94415e-14
2.03783e-14
1.94547e-14
2.03987e-14
1.94694e-14
2.04193e-14
1.94838e-14
2.04398e-14
1.94979e-14
2.04605e-14
1.95118e-14
2.04829e-14
1.95264e-14
2.05036e-14
1.95416e-14
2.05253e-14
1.95567e-14
2.05488e-14
1.95742e-14
2.05706e-14
1.95908e-14
2.05933e-14
1.96081e-14
2.06143e-14
1.96254e-14
2.06326e-14
1.96426e-14
2.06527e-14
1.96607e-14
2.06747e-14
1.96798e-14
2.06986e-14
1.96998e-14
2.07207e-14
1.97218e-14
2.07381e-14
1.9744e-14
2.07546e-14
1.97672e-14
2.07749e-14
1.97859e-14
2.07961e-14
1.98086e-14
2.08183e-14
1.98335e-14
2.08377e-14
1.98568e-14
2.08589e-14
1.98834e-14
2.08792e-14
1.99065e-14
2.08995e-14
1.99291e-14
2.09248e-14
1.99531e-14
2.09471e-14
1.99787e-14
2.09694e-14
2.00028e-14
2.09947e-14
2.00256e-14
2.1017e-14
2.0048e-14
2.10373e-14
2.00722e-14
2.10566e-14
2.00941e-14
2.1078e-14
2.01179e-14
2.11004e-14
2.01365e-14
2.11228e-14
2.01559e-14
2.11433e-14
2.01753e-14
2.11658e-14
2.01948e-14
2.11852e-14
2.02153e-14
2.12016e-14
2.02349e-14
2.12159e-14
2.02536e-14
2.12282e-14
2.02737e-14
2.12427e-14
2.02971e-14
2.12551e-14
2.032e-14
2.12675e-14
2.03401e-14
2.12821e-14
2.03575e-14
2.12989e-14
2.03766e-14
2.13116e-14
2.04016e-14
2.13158e-14
2.04221e-14
2.13265e-14
2.04401e-14
2.13416e-14
2.04622e-14
2.13504e-14
2.04842e-14
2.13551e-14
2.0504e-14
2.13663e-14
2.05238e-14
2.13799e-14
2.05459e-14
2.13959e-14
2.05659e-14
2.14122e-14
2.05818e-14
2.14287e-14
2.05957e-14
2.14434e-14
2.06121e-14
2.14497e-14
2.06224e-14
2.14629e-14
2.0633e-14
2.1481e-14
2.06442e-14
2.1493e-14
2.06558e-14
2.14988e-14
2.06637e-14
2.15075e-14
2.06744e-14
2.15168e-14
2.06836e-14
2.15333e-14
2.06935e-14
2.15484e-14
2.06998e-14
2.15577e-14
2.07047e-14
2.157e-14
2.07105e-14
2.15766e-14
2.07149e-14
2.15886e-14
2.07226e-14
2.16017e-14
2.07267e-14
2.1607e-14
2.07341e-14
2.16091e-14
2.07494e-14
2.16101e-14
2.07478e-14
2.16169e-14
2.07519e-14
2.16251e-14
2.07572e-14
2.16348e-14
2.07593e-14
2.16416e-14
2.07625e-14
2.1641e-14
2.07761e-14
2.16286e-14
2.07776e-14
2.16224e-14
2.0785e-14
2.16225e-14
2.07894e-14
2.16155e-14
2.07954e-14
2.16103e-14
2.07984e-14
2.16071e-14
2.08031e-14
2.16014e-14
2.0805e-14
2.15932e-14
2.08086e-14
2.15872e-14
2.0823e-14
2.15699e-14
2.08393e-14
2.15457e-14
2.08531e-14
2.15372e-14
2.08555e-14
2.15309e-14
2.08602e-14
2.15223e-14
2.08716e-14
2.15069e-14
2.08719e-14
2.14984e-14
2.08701e-14
2.14967e-14
2.08709e-14
2.14749e-14
2.08743e-14
2.14601e-14
2.08668e-14
2.14477e-14
2.08622e-14
2.14333e-14
2.08559e-14
2.14124e-14
2.0839e-14
2.13985e-14
2.08295e-14
2.13872e-14
2.08185e-14
2.13831e-14
2.0824e-14
2.13684e-14
2.08147e-14
2.13564e-14
2.08131e-14
2.13518e-14
2.08058e-14
2.13367e-14
2.07973e-14
2.13156e-14
2.07833e-14
2.13065e-14
2.07728e-14
2.1305e-14
2.07658e-14
2.12978e-14
2.07668e-14
2.12805e-14
2.07715e-14
2.12621e-14
2.07534e-14
2.12515e-14
2.07392e-14
2.12399e-14
2.07378e-14
2.12051e-14
2.07315e-14
2.11826e-14
2.07204e-14
2.1168e-14
2.06956e-14
2.11612e-14
2.0688e-14
2.11494e-14
2.06799e-14
2.11413e-14
2.06799e-14
2.11371e-14
2.06793e-14
2.11106e-14
2.06694e-14
2.1088e-14
2.06592e-14
2.10781e-14
2.06571e-14
2.10636e-14
2.06458e-14
2.10532e-14
2.06252e-14
2.10471e-14
2.06213e-14
2.10369e-14
2.066e-14
2.1014e-14
2.06897e-14
2.10128e-14
2.06849e-14
2.10158e-14
2.06802e-14
2.10145e-14
2.0684e-14
2.10006e-14
2.07137e-14
2.09911e-14
2.07182e-14
2.09858e-14
2.07234e-14
2.09676e-14
2.07126e-14
2.09535e-14
2.07112e-14
2.0952e-14
2.07192e-14
2.09465e-14
2.07366e-14
2.09367e-14
2.07298e-14
2.09312e-14
2.07074e-14
2.09131e-14
2.07198e-14
2.08913e-14
2.07419e-14
2.08904e-14
2.07489e-14
2.09019e-14
2.07574e-14
2.08843e-14
2.07596e-14
2.08709e-14
2.07556e-14
2.08947e-14
2.07532e-14
2.09147e-14
2.07435e-14
2.09234e-14
2.07509e-14
2.09297e-14
2.07586e-14
2.09256e-14
2.07506e-14
2.09276e-14
2.07671e-14
2.09358e-14
2.07676e-14
2.09425e-14
2.07682e-14
2.0948e-14
2.07686e-14
2.09445e-14
2.07768e-14
2.09244e-14
2.08009e-14
2.09196e-14
2.08174e-14
2.09217e-14
2.08263e-14
2.09148e-14
2.07801e-14
2.09149e-14
2.07882e-14
2.09073e-14
2.08341e-14
2.08769e-14
2.08725e-14
2.08693e-14
2.08733e-14
2.08836e-14
2.08986e-14
2.09048e-14
2.09325e-14
2.09174e-14
2.09452e-14
2.09518e-14
2.09976e-14
2.09775e-14
2.1014e-14
2.09941e-14
2.10405e-14
2.10325e-14
2.10768e-14
2.10933e-14
2.10622e-14
2.1132e-14
2.10402e-14
2.11804e-14
2.10979e-14
2.11814e-14
2.11329e-14
2.11334e-14
2.1089e-14
2.11376e-14
2.10833e-14
2.11509e-14
2.10846e-14
2.11739e-14
2.1062e-14
2.12077e-14
2.10421e-14
2.12402e-14
2.10654e-14
2.12456e-14
2.10746e-14
2.12383e-14
2.10839e-14
2.12465e-14
2.10789e-14
2.12411e-14
2.10878e-14
2.12079e-14
2.10979e-14
2.11883e-14
2.11106e-14
2.12096e-14
2.11112e-14
2.12575e-14
2.11114e-14
2.12362e-14
2.11119e-14
2.12136e-14
2.10997e-14
2.11621e-14
2.10768e-14
2.11623e-14
2.10552e-14
2.11341e-14
2.10481e-14
2.11034e-14
2.10299e-14
2.10797e-14
2.10006e-14
2.11024e-14
2.10103e-14
2.10835e-14
2.10347e-14
2.10486e-14
2.10258e-14
2.1032e-14
2.09838e-14
2.102e-14
2.09708e-14
2.10032e-14
2.09496e-14
2.09444e-14
2.08838e-14
2.09169e-14
2.08462e-14
2.0922e-14
2.08326e-14
2.09375e-14
2.08403e-14
2.09187e-14
2.08462e-14
2.08885e-14
2.08548e-14
2.08436e-14
2.0872e-14
2.08274e-14
2.08761e-14
2.08594e-14
2.09121e-14
2.08718e-14
2.08902e-14
2.08417e-14
2.09061e-14
2.0884e-14
2.0936e-14
2.09137e-14
2.09143e-14
2.08904e-14
2.08677e-14
2.08816e-14
2.08611e-14
2.08908e-14
2.08707e-14
2.0875e-14
2.08346e-14
2.08784e-14
2.08352e-14
2.08621e-14
2.08517e-14
2.08696e-14
2.08673e-14
2.08993e-14
2.08385e-14
2.08887e-14
2.08256e-14
2.08823e-14
2.08256e-14
2.08619e-14
2.07784e-14
2.08262e-14
2.07402e-14
2.08395e-14
2.07452e-14
2.08024e-14
2.07177e-14
2.08347e-14
2.06862e-14
2.08271e-14
2.06413e-14
2.08649e-14
2.06081e-14
2.08787e-14
2.05959e-14
2.08822e-14
2.05304e-14
2.05434e-14
2.04902e-14
2.05152e-14
2.04802e-14
2.05485e-14
2.04486e-14
2.0558e-14
2.04293e-14
2.05303e-14
2.04442e-14
2.05479e-14
2.04941e-14
2.05303e-14
2.04889e-14
2.05265e-14
2.0532e-14
2.056e-14
2.0565e-14
2.06333e-14
2.05835e-14
2.06077e-14
2.06141e-14
2.06251e-14
2.06366e-14
2.06628e-14
2.06512e-14
2.06575e-14
2.06613e-14
2.0671e-14
2.06684e-14
2.06815e-14
2.06989e-14
2.06671e-14
2.0689e-14
2.06908e-14
2.06788e-14
2.06902e-14
2.06889e-14
2.06671e-14
2.06753e-14
2.06854e-14
2.07053e-14
2.0702e-14
2.07127e-14
2.07389e-14
2.07179e-14
2.07537e-14
2.06971e-14
2.07716e-14
2.06939e-14
2.07957e-14
2.07075e-14
2.08033e-14
2.07156e-14
2.07695e-14
2.06972e-14
2.07885e-14
2.06723e-14
2.07631e-14
2.06642e-14
2.06646e-14
2.0654e-14
2.066e-14
2.06663e-14
2.07014e-14
2.06496e-14
2.07273e-14
2.06525e-14
2.0768e-14
2.06729e-14
2.0775e-14
2.06856e-14
2.07211e-14
2.06822e-14
2.06922e-14
2.07042e-14
2.06744e-14
2.06747e-14
2.07054e-14
2.06562e-14
2.06963e-14
2.0635e-14
2.06875e-14
2.06242e-14
2.07081e-14
2.05542e-14
2.06515e-14
2.05598e-14
2.06258e-14
2.05476e-14
2.06014e-14
2.05322e-14
2.05361e-14
2.0488e-14
2.05248e-14
2.04694e-14
2.0528e-14
2.04618e-14
2.0547e-14
2.045e-14
2.04974e-14
2.04219e-14
2.04192e-14
2.03792e-14
2.03817e-14
2.0379e-14
2.03703e-14
2.03208e-14
2.03409e-14
2.02752e-14
2.03237e-14
2.02701e-14
2.03202e-14
2.02472e-14
2.03016e-14
2.02215e-14
2.02826e-14
2.01931e-14
2.02634e-14
2.02061e-14
2.02741e-14
2.02164e-14
2.02694e-14
2.01791e-14
2.02485e-14
2.02138e-14
2.02569e-14
2.02306e-14
2.02794e-14
2.02142e-14
2.02706e-14
2.01797e-14
2.02611e-14
2.01875e-14
2.02366e-14
2.02236e-14
2.02424e-14
2.02115e-14
2.02469e-14
2.02282e-14
2.02661e-14
2.02269e-14
2.02691e-14
2.02077e-14
2.02718e-14
2.01857e-14
2.02594e-14
2.01761e-14
2.02316e-14
2.01956e-14
2.02198e-14
2.01814e-14
2.02234e-14
2.0149e-14
2.01869e-14
2.01226e-14
2.01578e-14
2.01346e-14
2.01687e-14
2.01374e-14
2.01714e-14
2.01229e-14
2.01662e-14
2.01071e-14
2.01613e-14
2.0098e-14
2.01567e-14
2.00875e-14
2.01444e-14
2.00675e-14
2.01326e-14
2.00462e-14
2.01133e-14
2.00153e-14
2.01025e-14
2.00159e-14
2.00757e-14
2.00071e-14
2.00491e-14
2.00059e-14
2.00308e-14
1.99959e-14
2.00206e-14
1.99855e-14
2.00102e-14
1.99746e-14
1.99827e-14
1.99636e-14
1.99547e-14
1.99611e-14
1.99513e-14
1.99587e-14
1.99387e-14
1.99567e-14
1.99169e-14
1.99382e-14
1.99026e-14
1.99116e-14
1.98789e-14
1.98939e-14
1.98798e-14
1.98763e-14
1.98887e-14
1.98585e-14
1.98715e-14
1.98319e-14
1.98627e-14
1.98049e-14
1.98712e-14
1.97857e-14
1.98715e-14
1.97743e-14
1.98638e-14
1.97533e-14
1.98565e-14
1.97224e-14
1.98501e-14
1.97163e-14
1.98445e-14
1.96915e-14
1.98399e-14
1.96651e-14
1.98452e-14
1.96371e-14
1.98343e-14
1.96249e-14
1.98072e-14
1.9611e-14
1.98165e-14
1.95955e-14
1.98273e-14
1.95782e-14
1.98044e-14
1.9559e-14
1.9783e-14
1.9547e-14
1.97631e-14
1.95332e-14
1.97533e-14
1.95265e-14
1.97405e-14
1.9527e-14
1.97245e-14
1.95171e-14
1.97186e-14
1.95234e-14
1.97005e-14
1.95151e-14
1.96923e-14
1.95099e-14
1.96895e-14
1.95125e-14
1.96743e-14
1.95229e-14
1.96509e-14
1.95101e-14
1.96325e-14
1.9501e-14
1.96326e-14
1.94956e-14
1.96333e-14
1.94849e-14
1.96211e-14
1.94646e-14
1.96094e-14
1.94569e-14
1.96072e-14
1.9462e-14
1.96011e-14
1.94619e-14
1.95821e-14
1.94567e-14
1.95634e-14
1.94556e-14
1.95586e-14
1.9454e-14
1.95675e-14
1.94611e-14
1.95679e-14
1.94677e-14
1.95595e-14
1.94696e-14
1.95514e-14
1.94757e-14
1.95434e-14
1.94772e-14
1.95357e-14
1.94831e-14
1.95326e-14
1.94844e-14
1.95341e-14
1.94812e-14
1.95313e-14
1.94824e-14
1.95241e-14
1.94746e-14
1.95214e-14
1.94803e-14
1.95144e-14
1.9477e-14
1.95074e-14
1.94647e-14
1.95006e-14
1.94569e-14
1.94983e-14
1.94491e-14
1.95006e-14
1.94412e-14
1.94986e-14
1.94333e-14
1.95012e-14
1.94298e-14
1.9504e-14
1.94216e-14
1.95024e-14
1.94179e-14
1.9492e-14
1.94096e-14
1.94817e-14
1.93967e-14
1.94806e-14
1.93904e-14
1.94729e-14
1.9384e-14
1.94609e-14
1.93662e-14
1.94579e-14
1.93484e-14
1.94551e-14
1.93415e-14
1.94525e-14
1.93323e-14
1.94522e-14
1.93318e-14
1.94521e-14
1.93222e-14
1.94477e-14
1.93057e-14
1.94345e-14
1.92957e-14
1.9426e-14
1.92899e-14
1.94221e-14
1.92862e-14
1.94228e-14
1.92756e-14
1.94236e-14
1.92648e-14
1.94202e-14
1.9256e-14
1.94192e-14
1.92515e-14
1.94183e-14
1.92422e-14
1.9411e-14
1.9235e-14
1.94039e-14
1.92319e-14
1.94058e-14
1.92308e-14
1.94122e-14
1.92251e-14
1.94099e-14
1.92191e-14
1.94079e-14
1.92151e-14
1.94104e-14
1.92109e-14
1.94087e-14
1.92043e-14
1.9405e-14
1.91953e-14
1.94037e-14
1.91948e-14
1.94024e-14
1.91919e-14
1.94014e-14
1.91888e-14
1.93983e-14
1.91811e-14
1.93954e-14
1.91755e-14
1.93884e-14
1.91718e-14
1.93815e-14
1.91679e-14
1.93769e-14
1.91638e-14
1.93746e-14
1.91574e-14
1.93723e-14
1.91551e-14
1.93681e-14
1.91546e-14
1.93619e-14
1.91541e-14
1.936e-14
1.91512e-14
1.93624e-14
1.91503e-14
1.93607e-14
1.91482e-14
1.93591e-14
1.9149e-14
1.93565e-14
1.91487e-14
1.93572e-14
1.91472e-14
1.93589e-14
1.91455e-14
1.93607e-14
1.91447e-14
1.93606e-14
1.91428e-14
1.93595e-14
1.91438e-14
1.93575e-14
1.91436e-14
1.93576e-14
1.91423e-14
1.93588e-14
1.91419e-14
1.9359e-14
1.91394e-14
1.93583e-14
1.91407e-14
1.93547e-14
1.91419e-14
1.93552e-14
1.9142e-14
1.93547e-14
1.9142e-14
1.93514e-14
1.91438e-14
1.93491e-14
1.91474e-14
1.93478e-14
1.91471e-14
1.93485e-14
1.91467e-14
1.93502e-14
1.91463e-14
1.93491e-14
1.91476e-14
1.93472e-14
1.91488e-14
1.93462e-14
1.9149e-14
1.93471e-14
1.915e-14
1.93444e-14
1.91492e-14
1.93426e-14
1.91509e-14
1.93418e-14
1.91508e-14
1.93455e-14
1.91489e-14
1.93492e-14
1.91478e-14
1.93503e-14
1.91466e-14
1.93479e-14
1.91471e-14
1.93473e-14
1.91467e-14
1.93476e-14
1.91462e-14
1.93488e-14
1.91465e-14
1.935e-14
1.91476e-14
1.93496e-14
1.91478e-14
1.93475e-14
1.91479e-14
1.93471e-14
1.91492e-14
1.93479e-14
1.91497e-14
1.93488e-14
1.91504e-14
1.93501e-14
1.91504e-14
1.93506e-14
1.91499e-14
1.93512e-14
1.91501e-14
1.93506e-14
1.91499e-14
1.93511e-14
1.91497e-14
1.93525e-14
1.91494e-14
1.93535e-14
1.91487e-14
1.93545e-14
1.91472e-14
1.93547e-14
1.91476e-14
1.9355e-14
1.91479e-14
1.93549e-14
1.91481e-14
1.93539e-14
1.9148e-14
1.93538e-14
1.91475e-14
1.93549e-14
1.9148e-14
1.93559e-14
1.91481e-14
1.93566e-14
1.91482e-14
1.93563e-14
1.91476e-14
1.93567e-14
1.91482e-14
1.93572e-14
1.91488e-14
1.93573e-14
1.91491e-14
1.93577e-14
1.91496e-14
1.93587e-14
1.91495e-14
1.93598e-14
1.91494e-14
1.93599e-14
1.91496e-14
1.93601e-14
1.91502e-14
1.93608e-14
1.91501e-14
1.9361e-14
1.91499e-14
1.93617e-14
1.91502e-14
1.93625e-14
1.91507e-14
1.93632e-14
1.9151e-14
1.93632e-14
1.91512e-14
1.93632e-14
1.91514e-14
1.93632e-14
1.91515e-14
1.93633e-14
1.91515e-14
1.93633e-14
1.91516e-14
1.93635e-14
1.91521e-14
1.93635e-14
1.91525e-14
1.93633e-14
1.91527e-14
1.93633e-14
1.91529e-14
1.93633e-14
1.9153e-14
1.93633e-14
1.91532e-14
1.93634e-14
1.91534e-14
1.93634e-14
1.91536e-14
1.93633e-14
1.91537e-14
1.93634e-14
1.91539e-14
1.93636e-14
1.9154e-14
1.93637e-14
1.91541e-14
1.93638e-14
1.91542e-14
1.9364e-14
1.91544e-14
1.93641e-14
1.91545e-14
1.93641e-14
1.91546e-14
1.9364e-14
1.91547e-14
1.93639e-14
1.91548e-14
1.9364e-14
1.9155e-14
1.9364e-14
1.91553e-14
1.93641e-14
1.91554e-14
1.93642e-14
1.91555e-14
1.93643e-14
1.91557e-14
1.93643e-14
1.91558e-14
1.93644e-14
1.91559e-14
1.93644e-14
1.9156e-14
1.93644e-14
1.91561e-14
1.93645e-14
1.91562e-14
1.93645e-14
1.91563e-14
1.93645e-14
1.91563e-14
1.93646e-14
1.91564e-14
1.93646e-14
1.91564e-14
1.93646e-14
1.91565e-14
1.93646e-14
1.91565e-14
1.93646e-14
1.91565e-14
1.93647e-14
1.91565e-14
1.93647e-14
1.91565e-14
1.93647e-14
1.91566e-14
1.93647e-14
1.91566e-14
1.93647e-14
1.91566e-14
1.93647e-14
1.91566e-14
1.93647e-14
1.91566e-14
1.93647e-14
1.91566e-14
1.93647e-14
2.05601e-14
2.082e-14
2.05641e-14
2.08044e-14
2.06161e-14
2.07299e-14
2.05999e-14
2.07281e-14
2.0596e-14
2.06772e-14
2.0613e-14
2.06699e-14
2.06134e-14
2.07004e-14
2.06308e-14
2.06718e-14
2.06314e-14
2.06586e-14
2.06562e-14
2.06556e-14
2.06872e-14
2.06538e-14
2.07292e-14
2.06724e-14
2.07203e-14
2.07087e-14
2.07178e-14
2.07248e-14
2.06962e-14
2.07457e-14
2.06263e-14
2.07543e-14
2.06742e-14
2.07361e-14
2.0692e-14
2.07279e-14
2.07064e-14
2.07024e-14
2.07457e-14
2.0723e-14
2.07207e-14
2.07442e-14
2.06954e-14
2.07706e-14
2.07098e-14
2.07601e-14
2.06959e-14
2.07549e-14
2.06997e-14
2.07788e-14
2.06729e-14
2.08098e-14
2.06582e-14
2.08042e-14
2.06544e-14
2.07856e-14
2.06875e-14
2.08271e-14
2.071e-14
2.08808e-14
2.07216e-14
2.08512e-14
2.07261e-14
2.08119e-14
2.07018e-14
2.08599e-14
2.06808e-14
2.08342e-14
2.06894e-14
2.08347e-14
2.07291e-14
2.08335e-14
2.0712e-14
2.08274e-14
2.0702e-14
2.07785e-14
2.07012e-14
2.0776e-14
2.06962e-14
2.07672e-14
2.06745e-14
2.07639e-14
2.06483e-14
2.06995e-14
2.06333e-14
2.0692e-14
2.06292e-14
2.06871e-14
2.05965e-14
2.06995e-14
2.05735e-14
2.06633e-14
2.05608e-14
2.06184e-14
2.05181e-14
2.05777e-14
2.05013e-14
2.05686e-14
2.04965e-14
2.05916e-14
2.04457e-14
2.05767e-14
2.04324e-14
2.05255e-14
2.04156e-14
2.05229e-14
2.03809e-14
2.05414e-14
2.03838e-14
2.05108e-14
2.03687e-14
2.04729e-14
2.03516e-14
2.0441e-14
2.03033e-14
2.04286e-14
2.02665e-14
2.04075e-14
2.02704e-14
2.04076e-14
2.02564e-14
2.04291e-14
2.0268e-14
2.04581e-14
2.0305e-14
2.04502e-14
2.034e-14
2.04339e-14
2.03286e-14
2.04378e-14
2.03155e-14
2.04314e-14
2.0316e-14
2.03839e-14
2.03166e-14
2.03857e-14
2.03325e-14
2.0391e-14
2.03485e-14
2.03995e-14
2.03648e-14
2.03953e-14
2.03351e-14
2.03775e-14
2.03527e-14
2.0346e-14
2.03562e-14
2.03466e-14
2.03459e-14
2.03321e-14
2.03374e-14
2.03182e-14
2.03147e-14
2.03208e-14
2.02931e-14
2.03084e-14
2.02563e-14
2.02653e-14
2.02123e-14
2.02392e-14
2.01846e-14
2.02221e-14
2.01972e-14
2.02224e-14
2.01774e-14
2.02234e-14
2.01574e-14
2.02012e-14
2.01371e-14
2.01799e-14
2.01165e-14
2.01759e-14
2.00954e-14
2.01896e-14
2.00731e-14
2.01886e-14
2.0058e-14
2.01566e-14
2.00417e-14
2.01263e-14
2.00163e-14
2.01142e-14
2.00146e-14
2.01038e-14
2.00037e-14
2.0095e-14
1.99833e-14
2.00793e-14
1.99618e-14
2.00653e-14
1.9956e-14
2.00529e-14
1.99322e-14
2.00422e-14
1.9924e-14
2.00161e-14
1.99146e-14
1.99999e-14
1.98958e-14
2.00106e-14
1.98928e-14
1.99974e-14
1.98889e-14
1.99772e-14
1.9867e-14
1.99409e-14
1.98531e-14
1.99055e-14
1.98474e-14
1.98965e-14
1.98328e-14
1.99053e-14
1.98264e-14
1.98976e-14
1.98284e-14
1.98644e-14
1.98217e-14
1.98489e-14
1.98238e-14
1.98336e-14
1.98089e-14
1.98183e-14
1.97855e-14
1.98117e-14
1.97622e-14
1.98051e-14
1.97391e-14
1.97812e-14
1.97336e-14
1.97662e-14
1.97371e-14
1.97601e-14
1.97232e-14
1.9745e-14
1.97185e-14
1.97122e-14
1.97231e-14
1.96969e-14
1.97327e-14
1.96856e-14
1.97476e-14
1.96694e-14
1.97368e-14
1.9657e-14
1.97404e-14
1.96485e-14
1.97138e-14
1.96438e-14
1.96924e-14
1.96341e-14
1.9685e-14
1.96285e-14
1.96739e-14
1.96359e-14
1.96632e-14
1.96341e-14
1.96441e-14
1.96187e-14
1.96208e-14
1.96032e-14
1.96023e-14
1.96099e-14
1.95929e-14
1.96121e-14
1.95926e-14
1.9601e-14
1.95701e-14
1.95943e-14
1.95611e-14
1.95922e-14
1.95522e-14
1.95856e-14
1.95299e-14
1.95747e-14
1.9512e-14
1.9564e-14
1.94985e-14
1.95669e-14
1.94939e-14
1.95746e-14
1.94801e-14
1.95735e-14
1.94615e-14
1.95682e-14
1.94471e-14
1.95541e-14
1.94369e-14
1.9545e-14
1.94353e-14
1.95361e-14
1.94244e-14
1.9532e-14
1.94222e-14
1.95326e-14
1.94061e-14
1.95381e-14
1.94031e-14
1.95304e-14
1.94042e-14
1.95049e-14
1.93915e-14
1.94886e-14
1.93966e-14
1.94861e-14
1.93968e-14
1.94838e-14
1.93968e-14
1.94726e-14
1.93876e-14
1.94751e-14
1.93917e-14
1.94777e-14
1.93956e-14
1.9476e-14
1.93903e-14
1.94698e-14
1.93803e-14
1.94638e-14
1.93837e-14
1.94669e-14
1.93823e-14
1.94702e-14
1.93764e-14
1.94691e-14
1.9377e-14
1.94614e-14
1.93752e-14
1.9456e-14
1.93801e-14
1.94621e-14
1.93759e-14
1.94659e-14
1.93738e-14
1.9461e-14
1.93672e-14
1.9454e-14
1.93671e-14
1.94471e-14
1.93782e-14
1.94381e-14
1.9378e-14
1.94336e-14
1.93712e-14
1.94314e-14
1.93688e-14
1.94271e-14
1.93686e-14
1.94251e-14
1.93684e-14
1.94276e-14
1.93682e-14
1.94235e-14
1.93702e-14
1.94173e-14
1.93722e-14
1.94133e-14
1.93787e-14
1.94116e-14
1.93741e-14
1.94143e-14
1.93719e-14
1.94127e-14
1.93718e-14
1.94045e-14
1.93739e-14
1.9403e-14
1.93717e-14
1.9408e-14
1.93718e-14
1.94108e-14
1.93675e-14
1.94159e-14
1.93633e-14
1.94166e-14
1.93613e-14
1.94217e-14
1.93571e-14
1.94247e-14
1.93551e-14
1.94192e-14
1.93531e-14
1.94159e-14
1.93576e-14
1.94169e-14
1.93578e-14
1.94243e-14
1.93559e-14
1.94297e-14
1.93498e-14
1.94351e-14
1.93521e-14
1.94363e-14
1.93524e-14
1.94313e-14
1.93526e-14
1.94284e-14
1.93529e-14
1.94278e-14
1.93552e-14
1.94271e-14
1.93535e-14
1.94266e-14
1.93527e-14
1.94292e-14
1.9352e-14
1.94288e-14
1.93513e-14
1.94284e-14
1.93517e-14
1.9427e-14
1.9351e-14
1.94257e-14
1.93503e-14
1.94255e-14
1.93527e-14
1.94233e-14
1.93511e-14
1.94232e-14
1.93515e-14
1.94231e-14
1.93499e-14
1.9425e-14
1.93484e-14
1.9425e-14
1.93488e-14
1.94241e-14
1.93502e-14
1.94212e-14
1.93516e-14
1.94213e-14
1.93521e-14
1.94234e-14
1.93506e-14
1.94255e-14
1.93521e-14
1.94257e-14
1.93535e-14
1.9425e-14
1.9354e-14
1.94253e-14
1.93545e-14
1.94275e-14
1.93559e-14
1.94288e-14
1.93583e-14
1.94273e-14
1.93616e-14
1.94268e-14
1.93621e-14
1.94272e-14
1.93626e-14
1.94277e-14
1.93622e-14
1.9429e-14
1.93637e-14
1.94295e-14
1.93642e-14
1.9431e-14
1.93648e-14
1.94333e-14
1.93645e-14
1.94356e-14
1.93633e-14
1.94344e-14
1.93621e-14
1.94316e-14
1.93609e-14
1.94305e-14
1.93606e-14
1.94311e-14
1.93595e-14
1.94318e-14
1.93592e-14
1.94324e-14
1.9359e-14
1.94298e-14
1.93587e-14
1.94289e-14
1.93573e-14
1.94308e-14
1.93554e-14
1.94327e-14
1.93544e-14
1.94327e-14
1.93534e-14
1.94326e-14
1.9352e-14
1.94334e-14
1.93502e-14
1.94334e-14
1.93477e-14
1.94319e-14
1.93471e-14
1.94307e-14
1.9345e-14
1.94312e-14
1.93426e-14
1.94309e-14
1.9341e-14
1.94298e-14
1.93401e-14
1.94292e-14
1.93395e-14
1.94286e-14
1.93393e-14
1.9427e-14
1.93392e-14
1.94261e-14
1.93376e-14
1.94269e-14
1.93368e-14
1.94264e-14
1.93359e-14
1.94252e-14
1.93361e-14
1.94234e-14
1.93363e-14
1.94223e-14
1.93358e-14
1.94219e-14
1.93347e-14
1.94215e-14
1.93342e-14
1.94201e-14
1.93329e-14