/*--------------------------------*- C++ -*----------------------------------*\
| =========                 |                                                 |
| \\      /  F ield         | OpenFOAM: The Open Source CFD Toolbox           |
|  \\    /   O peration     | Version:  2106                                  |
|   \\  /    A nd           | Website:  www.openfoam.com                      |
|    \\/     M anipulation  |                                                 |
\*---------------------------------------------------------------------------*/
FoamFile
{
    version     2.0;
    format      ascii;
    arch        "LSB;label=32;scalar=64";
    class       volSymmTensorField;
    location    "12000";
    object      turbulenceProperties:R;
}
// * * * * * * * * * * * * * * * * * * * * * * * * * * * * * * * * * * * * * //

dimensions      [0 2 -2 0 0 0 0];

internalField   nonuniform List<symmTensor> 
2560
(
(9.83606e-07 -3.86593e-10 -5.59641e-13 9.83606e-07 1.36727e-24 9.83606e-07)
(9.83606e-07 -3.86593e-10 -5.59641e-13 9.83606e-07 -1.05996e-28 9.83606e-07)
(2.2872e-07 -5.16627e-10 -2.25463e-12 2.2872e-07 1.8988e-25 2.2872e-07)
(2.2872e-07 -5.16627e-10 -2.25463e-12 2.2872e-07 -8.91463e-29 2.2872e-07)
(6.51001e-07 -4.33706e-09 -2.60336e-11 6.51001e-07 9.04985e-25 6.51001e-07)
(6.51001e-07 -4.33706e-09 -2.60336e-11 6.51001e-07 -5.12149e-28 6.51001e-07)
(2.25919e-06 -3.19044e-08 -1.94291e-10 2.25919e-06 6.85266e-24 2.25919e-06)
(2.25919e-06 -3.19044e-08 -1.94291e-10 2.25919e-06 -6.59016e-27 2.25919e-06)
(5.87691e-06 -1.4629e-07 -9.03799e-10 5.87691e-06 3.25187e-23 5.87691e-06)
(5.87691e-06 -1.4629e-07 -9.03799e-10 5.87691e-06 -2.05768e-26 5.87691e-06)
(1.2557e-05 -4.9124e-07 -3.0788e-09 1.2557e-05 8.66645e-23 1.2557e-05)
(1.2557e-05 -4.9124e-07 -3.0788e-09 1.2557e-05 -3.49505e-26 1.2557e-05)
(2.35245e-05 -1.33808e-06 -8.50681e-09 2.35245e-05 2.36374e-22 2.35245e-05)
(2.35245e-05 -1.33808e-06 -8.50681e-09 2.35245e-05 1.52638e-26 2.35245e-05)
(4.01544e-05 -3.13827e-06 -2.02355e-08 4.01544e-05 5.53748e-22 4.01544e-05)
(4.01544e-05 -3.13827e-06 -2.02355e-08 4.01544e-05 3.68271e-25 4.01544e-05)
(6.39434e-05 -6.57381e-06 -4.29828e-08 6.39434e-05 1.14333e-21 6.39434e-05)
(6.39434e-05 -6.57381e-06 -4.29828e-08 6.39434e-05 1.57399e-24 6.39434e-05)
(9.64632e-05 -1.2592e-05 -8.34669e-08 9.64632e-05 2.11591e-21 9.64632e-05)
(9.64632e-05 -1.2592e-05 -8.34669e-08 9.64632e-05 4.79661e-24 9.64632e-05)
(0.000139285 -2.24049e-05 -1.50511e-07 0.000139285 3.54874e-21 0.000139285)
(0.000139285 -2.24049e-05 -1.50511e-07 0.000139285 1.0627e-23 0.000139285)
(0.000193873 -3.7433e-05 -2.54753e-07 0.000193873 5.39916e-21 0.000193873)
(0.000193873 -3.7433e-05 -2.54753e-07 0.000193873 2.18319e-23 0.000193873)
(0.000261449 -5.91756e-05 -4.0783e-07 0.000261449 7.40091e-21 0.000261449)
(0.000261449 -5.91756e-05 -4.0783e-07 0.000261449 4.40143e-23 0.000261449)
(0.000342835 -8.90137e-05 -6.21017e-07 0.000342835 8.99172e-21 0.000342835)
(0.000342835 -8.90137e-05 -6.21017e-07 0.000342835 7.84835e-23 0.000342835)
(0.000438308 -0.000127973 -9.03531e-07 0.000438308 9.30437e-21 0.000438308)
(0.000438308 -0.000127973 -9.03531e-07 0.000438308 1.31157e-22 0.000438308)
(0.000547494 -0.000176508 -1.26089e-06 0.000547494 7.25947e-21 0.000547494)
(0.000547494 -0.000176508 -1.26089e-06 0.000547494 2.16676e-22 0.000547494)
(0.000669336 -0.000234362 -1.69382e-06 0.000669336 2.28974e-22 0.000669336)
(0.000669336 -0.000234362 -1.69382e-06 0.000669336 3.47282e-22 0.000669336)
(0.000802147 -0.00030057 -2.19801e-06 0.000802147 -5.94949e-21 0.000802147)
(0.000802147 -0.00030057 -2.19801e-06 0.000802147 5.13687e-22 0.000802147)
(0.000943758 -0.000373585 -2.76483e-06 0.000943758 -2.13895e-20 0.000943758)
(0.000943758 -0.000373585 -2.76483e-06 0.000943758 7.42847e-22 0.000943758)
(0.00109171 -0.000451501 -3.38271e-06 0.00109171 -3.88321e-20 0.00109171)
(0.00109171 -0.000451501 -3.38271e-06 0.00109171 1.05103e-21 0.00109171)
(0.00124347 -0.000532301 -4.03878e-06 0.00124347 -5.90717e-20 0.00124347)
(0.00124347 -0.000532301 -4.03878e-06 0.00124347 1.39336e-21 0.00124347)
(0.00139661 -0.000614079 -4.72031e-06 0.00139661 -8.0911e-20 0.00139661)
(0.00139661 -0.000614079 -4.72031e-06 0.00139661 1.82909e-21 0.00139661)
(0.00154899 -0.000695188 -5.4158e-06 0.00154899 -1.02976e-19 0.00154899)
(0.00154899 -0.000695188 -5.4158e-06 0.00154899 2.36644e-21 0.00154899)
(0.00169878 -0.000774316 -6.11561e-06 0.00169878 -1.2406e-19 0.00169878)
(0.00169878 -0.000774316 -6.11561e-06 0.00169878 3.01066e-21 0.00169878)
(0.00184455 -0.000850499 -6.81214e-06 0.00184455 -1.4318e-19 0.00184455)
(0.00184455 -0.000850499 -6.81214e-06 0.00184455 3.77955e-21 0.00184455)
(0.0019852 -0.000923089 -7.49979e-06 0.0019852 -1.60032e-19 0.0019852)
(0.0019852 -0.000923089 -7.49979e-06 0.0019852 4.61217e-21 0.0019852)
(0.00212001 -0.000991705 -8.17468e-06 0.00212001 -1.74053e-19 0.00212001)
(0.00212001 -0.000991705 -8.17468e-06 0.00212001 5.39585e-21 0.00212001)
(0.00224849 -0.00105618 -8.83437e-06 0.00224849 -1.84779e-19 0.00224849)
(0.00224849 -0.00105618 -8.83437e-06 0.00224849 6.17045e-21 0.00224849)
(0.00237042 -0.00111648 -9.47753e-06 0.00237042 -1.92306e-19 0.00237042)
(0.00237042 -0.00111648 -9.47753e-06 0.00237042 7.06907e-21 0.00237042)
(0.00248574 -0.00117272 -1.01037e-05 0.00248574 -1.97163e-19 0.00248574)
(0.00248574 -0.00117272 -1.01037e-05 0.00248574 8.36691e-21 0.00248574)
(0.00259451 -0.00122505 -1.0713e-05 0.00259451 -1.99606e-19 0.00259451)
(0.00259451 -0.00122505 -1.0713e-05 0.00259451 9.6436e-21 0.00259451)
(0.00269692 -0.00127368 -1.13059e-05 0.00269692 -1.98817e-19 0.00269692)
(0.00269692 -0.00127368 -1.13059e-05 0.00269692 1.04789e-20 0.00269692)
(0.0027932 -0.00131884 -1.18834e-05 0.0027932 -1.95543e-19 0.0027932)
(0.0027932 -0.00131884 -1.18834e-05 0.0027932 1.13711e-20 0.0027932)
(0.00288363 -0.00136077 -1.24464e-05 0.00288363 -1.91001e-19 0.00288363)
(0.00288363 -0.00136077 -1.24464e-05 0.00288363 1.32719e-20 0.00288363)
(0.00296853 -0.0013997 -1.29959e-05 0.00296853 -1.84539e-19 0.00296853)
(0.00296853 -0.0013997 -1.29959e-05 0.00296853 1.57179e-20 0.00296853)
(0.0030482 -0.00143588 -1.35332e-05 0.0030482 -1.76761e-19 0.0030482)
(0.0030482 -0.00143588 -1.35332e-05 0.0030482 1.77341e-20 0.0030482)
(0.00312296 -0.0014695 -1.40593e-05 0.00312296 -1.67697e-19 0.00312296)
(0.00312296 -0.0014695 -1.40593e-05 0.00312296 1.94287e-20 0.00312296)
(0.00319313 -0.00150079 -1.45754e-05 0.00319313 -1.57187e-19 0.00319313)
(0.00319313 -0.00150079 -1.45754e-05 0.00319313 2.13796e-20 0.00319313)
(0.00325901 -0.00152993 -1.50824e-05 0.00325901 -1.45653e-19 0.00325901)
(0.00325901 -0.00152993 -1.50824e-05 0.00325901 2.36484e-20 0.00325901)
(0.00332088 -0.00155709 -1.55814e-05 0.00332088 -1.32726e-19 0.00332088)
(0.00332088 -0.00155709 -1.55814e-05 0.00332088 2.55869e-20 0.00332088)
(0.00337901 -0.00158243 -1.60734e-05 0.00337901 -1.19379e-19 0.00337901)
(0.00337901 -0.00158243 -1.60734e-05 0.00337901 2.76758e-20 0.00337901)
(0.00343367 -0.00160611 -1.65592e-05 0.00343367 -1.05467e-19 0.00343367)
(0.00343367 -0.00160611 -1.65592e-05 0.00343367 2.9883e-20 0.00343367)
(0.0034851 -0.00162826 -1.70396e-05 0.0034851 -9.10944e-20 0.0034851)
(0.0034851 -0.00162826 -1.70396e-05 0.0034851 3.32946e-20 0.0034851)
(0.0035335 -0.00164899 -1.75154e-05 0.0035335 -7.57498e-20 0.0035335)
(0.0035335 -0.00164899 -1.75154e-05 0.0035335 3.60131e-20 0.0035335)
(0.0035791 -0.00166842 -1.79873e-05 0.0035791 -6.04901e-20 0.0035791)
(0.0035791 -0.00166842 -1.79873e-05 0.0035791 3.86614e-20 0.0035791)
(0.00362208 -0.00168665 -1.84561e-05 0.00362208 -4.48983e-20 0.00362208)
(0.00362208 -0.00168665 -1.84561e-05 0.00362208 4.06977e-20 0.00362208)
(0.00366261 -0.00170378 -1.89222e-05 0.00366261 -2.8549e-20 0.00366261)
(0.00366261 -0.00170378 -1.89222e-05 0.00366261 4.32453e-20 0.00366261)
(0.00370088 -0.00171988 -1.93862e-05 0.00370088 -1.24161e-20 0.00370088)
(0.00370088 -0.00171988 -1.93862e-05 0.00370088 4.63655e-20 0.00370088)
(0.00373701 -0.00173503 -1.98488e-05 0.00373701 4.35417e-21 0.00373701)
(0.00373701 -0.00173503 -1.98488e-05 0.00373701 4.65876e-20 0.00373701)
(0.00377117 -0.0017493 -2.03104e-05 0.00377117 2.04621e-20 0.00377117)
(0.00377117 -0.0017493 -2.03104e-05 0.00377117 4.8637e-20 0.00377117)
(0.00380346 -0.00176276 -2.07714e-05 0.00380346 3.91892e-20 0.00380346)
(0.00380346 -0.00176276 -2.07714e-05 0.00380346 5.10518e-20 0.00380346)
(0.00383402 -0.00177546 -2.12322e-05 0.00383402 5.90548e-20 0.00383402)
(0.00383402 -0.00177546 -2.12322e-05 0.00383402 5.40828e-20 0.00383402)
(0.00386295 -0.00178745 -2.16934e-05 0.00386295 7.62281e-20 0.00386295)
(0.00386295 -0.00178745 -2.16934e-05 0.00386295 5.86069e-20 0.00386295)
(0.00389036 -0.00179878 -2.21551e-05 0.00389036 9.31726e-20 0.00389036)
(0.00389036 -0.00179878 -2.21551e-05 0.00389036 6.34672e-20 0.00389036)
(0.00391634 -0.0018095 -2.26179e-05 0.00391634 1.10385e-19 0.00391634)
(0.00391634 -0.0018095 -2.26179e-05 0.00391634 7.64732e-20 0.00391634)
(0.00394097 -0.00181965 -2.3082e-05 0.00394097 1.27827e-19 0.00394097)
(0.00394097 -0.00181965 -2.3082e-05 0.00394097 8.15488e-20 0.00394097)
(0.00396433 -0.00182926 -2.35477e-05 0.00396433 1.48548e-19 0.00396433)
(0.00396433 -0.00182926 -2.35477e-05 0.00396433 8.03378e-20 0.00396433)
(0.00398651 -0.00183836 -2.40153e-05 0.00398651 1.69577e-19 0.00398651)
(0.00398651 -0.00183836 -2.40153e-05 0.00398651 8.80718e-20 0.00398651)
(0.00400756 -0.00184699 -2.44851e-05 0.00400756 1.84147e-19 0.00400756)
(0.00400756 -0.00184699 -2.44851e-05 0.00400756 1.01331e-19 0.00400756)
(0.00402756 -0.00185518 -2.49574e-05 0.00402756 2.02847e-19 0.00402756)
(0.00402756 -0.00185518 -2.49574e-05 0.00402756 1.15476e-19 0.00402756)
(0.00404655 -0.00186296 -2.54323e-05 0.00404655 2.25878e-19 0.00404655)
(0.00404655 -0.00186296 -2.54323e-05 0.00404655 1.09071e-19 0.00404655)
(0.0040646 -0.00187033 -2.59102e-05 0.0040646 2.42497e-19 0.0040646)
(0.0040646 -0.00187033 -2.59102e-05 0.0040646 1.02854e-19 0.0040646)
(0.00408176 -0.00187734 -2.63912e-05 0.00408176 2.58755e-19 0.00408176)
(0.00408176 -0.00187734 -2.63912e-05 0.00408176 1.24043e-19 0.00408176)
(0.00409807 -0.001884 -2.68756e-05 0.00409807 2.79253e-19 0.00409807)
(0.00409807 -0.001884 -2.68756e-05 0.00409807 1.36164e-19 0.00409807)
(0.00411358 -0.00189033 -2.73635e-05 0.00411358 2.98638e-19 0.00411358)
(0.00411358 -0.00189033 -2.73635e-05 0.00411358 1.32299e-19 0.00411358)
(0.00412832 -0.00189635 -2.78552e-05 0.00412832 3.15156e-19 0.00412832)
(0.00412832 -0.00189635 -2.78552e-05 0.00412832 1.36283e-19 0.00412832)
(0.00414235 -0.00190207 -2.83508e-05 0.00414235 3.35877e-19 0.00414235)
(0.00414235 -0.00190207 -2.83508e-05 0.00414235 1.4598e-19 0.00414235)
(0.00415568 -0.0019075 -2.88506e-05 0.00415568 3.6062e-19 0.00415568)
(0.00415568 -0.0019075 -2.88506e-05 0.00415568 1.54717e-19 0.00415568)
(0.00416836 -0.00191267 -2.93546e-05 0.00416836 3.83169e-19 0.00416836)
(0.00416836 -0.00191267 -2.93546e-05 0.00416836 1.5939e-19 0.00416836)
(0.00418041 -0.00191759 -2.98631e-05 0.00418041 4.08241e-19 0.00418041)
(0.00418041 -0.00191759 -2.98631e-05 0.00418041 1.65778e-19 0.00418041)
(0.00419187 -0.00192227 -3.03762e-05 0.00419187 4.41932e-19 0.00419187)
(0.00419187 -0.00192227 -3.03762e-05 0.00419187 1.69702e-19 0.00419187)
(0.00420276 -0.00192671 -3.08941e-05 0.00420276 4.66276e-19 0.00420276)
(0.00420276 -0.00192671 -3.08941e-05 0.00420276 1.79172e-19 0.00420276)
(0.00421311 -0.00193094 -3.1417e-05 0.00421311 4.8541e-19 0.00421311)
(0.00421311 -0.00193094 -3.1417e-05 0.00421311 1.99649e-19 0.00421311)
(0.00422294 -0.00193495 -3.19449e-05 0.00422294 5.12974e-19 0.00422294)
(0.00422294 -0.00193495 -3.19449e-05 0.00422294 2.16111e-19 0.00422294)
(0.00423227 -0.00193877 -3.2478e-05 0.00423227 5.3601e-19 0.00423227)
(0.00423227 -0.00193877 -3.2478e-05 0.00423227 2.10152e-19 0.00423227)
(0.00424113 -0.00194239 -3.30164e-05 0.00424113 5.66207e-19 0.00424113)
(0.00424113 -0.00194239 -3.30164e-05 0.00424113 2.06942e-19 0.00424113)
(0.00424953 -0.00194583 -3.35604e-05 0.00424953 5.76448e-19 0.00424953)
(0.00424953 -0.00194583 -3.35604e-05 0.00424953 2.275e-19 0.00424953)
(0.00425749 -0.00194909 -3.411e-05 0.00425749 6.1724e-19 0.00425749)
(0.00425749 -0.00194909 -3.411e-05 0.00425749 2.4211e-19 0.00425749)
(0.00426503 -0.00195219 -3.46654e-05 0.00426503 6.32659e-19 0.00426503)
(0.00426503 -0.00195219 -3.46654e-05 0.00426503 2.61895e-19 0.00426503)
(0.00427217 -0.00195512 -3.52266e-05 0.00427217 6.73396e-19 0.00427217)
(0.00427217 -0.00195512 -3.52266e-05 0.00427217 2.67775e-19 0.00427217)
(0.00427891 -0.00195789 -3.57939e-05 0.00427891 7.03723e-19 0.00427891)
(0.00427891 -0.00195789 -3.57939e-05 0.00427891 2.75924e-19 0.00427891)
(0.00428529 -0.00196052 -3.63673e-05 0.00428529 7.20578e-19 0.00428529)
(0.00428529 -0.00196052 -3.63673e-05 0.00428529 2.97197e-19 0.00428529)
(0.0042913 -0.001963 -3.69469e-05 0.0042913 7.39533e-19 0.0042913)
(0.0042913 -0.001963 -3.69469e-05 0.0042913 3.02515e-19 0.0042913)
(0.00429696 -0.00196534 -3.7533e-05 0.00429696 7.76738e-19 0.00429696)
(0.00429696 -0.00196534 -3.7533e-05 0.00429696 3.00475e-19 0.00429696)
(0.00430228 -0.00196754 -3.81255e-05 0.00430228 8.20476e-19 0.00430228)
(0.00430228 -0.00196754 -3.81255e-05 0.00430228 3.20368e-19 0.00430228)
(0.00430728 -0.00196962 -3.87247e-05 0.00430728 8.45418e-19 0.00430728)
(0.00430728 -0.00196962 -3.87247e-05 0.00430728 3.39267e-19 0.00430728)
(0.00431197 -0.00197156 -3.93306e-05 0.00431197 8.69918e-19 0.00431197)
(0.00431197 -0.00197156 -3.93306e-05 0.00431197 3.55114e-19 0.00431197)
(0.00431635 -0.00197339 -3.99434e-05 0.00431635 8.99679e-19 0.00431635)
(0.00431635 -0.00197339 -3.99434e-05 0.00431635 3.64169e-19 0.00431635)
(0.00432043 -0.0019751 -4.05631e-05 0.00432043 9.2018e-19 0.00432043)
(0.00432043 -0.0019751 -4.05631e-05 0.00432043 3.58142e-19 0.00432043)
(0.00432423 -0.00197669 -4.119e-05 0.00432423 9.54321e-19 0.00432423)
(0.00432423 -0.00197669 -4.119e-05 0.00432423 3.75942e-19 0.00432423)
(0.00432775 -0.00197817 -4.1824e-05 0.00432775 9.97718e-19 0.00432775)
(0.00432775 -0.00197817 -4.1824e-05 0.00432775 3.90254e-19 0.00432775)
(0.00433101 -0.00197954 -4.24653e-05 0.00433101 1.02879e-18 0.00433101)
(0.00433101 -0.00197954 -4.24653e-05 0.00433101 3.97738e-19 0.00433101)
(0.004334 -0.00198081 -4.3114e-05 0.004334 1.06318e-18 0.004334)
(0.004334 -0.00198081 -4.3114e-05 0.004334 4.1314e-19 0.004334)
(0.00433674 -0.00198197 -4.37703e-05 0.00433674 1.11149e-18 0.00433674)
(0.00433674 -0.00198197 -4.37703e-05 0.00433674 4.30737e-19 0.00433674)
(0.00433923 -0.00198304 -4.44342e-05 0.00433923 1.14551e-18 0.00433923)
(0.00433923 -0.00198304 -4.44342e-05 0.00433923 4.66543e-19 0.00433923)
(0.00434148 -0.00198401 -4.51059e-05 0.00434148 1.19777e-18 0.00434148)
(0.00434148 -0.00198401 -4.51059e-05 0.00434148 4.77545e-19 0.00434148)
(0.00434349 -0.00198488 -4.57854e-05 0.00434349 1.25788e-18 0.00434349)
(0.00434349 -0.00198488 -4.57854e-05 0.00434349 4.8081e-19 0.00434349)
(0.00434528 -0.00198566 -4.64729e-05 0.00434528 1.28945e-18 0.00434528)
(0.00434528 -0.00198566 -4.64729e-05 0.00434528 5.31525e-19 0.00434528)
(0.00434684 -0.00198635 -4.71685e-05 0.00434684 1.33482e-18 0.00434684)
(0.00434684 -0.00198635 -4.71685e-05 0.00434684 5.7376e-19 0.00434684)
(0.00434819 -0.00198695 -4.78722e-05 0.00434819 1.37696e-18 0.00434819)
(0.00434819 -0.00198695 -4.78722e-05 0.00434819 5.8768e-19 0.00434819)
(0.00434933 -0.00198747 -4.85843e-05 0.00434933 1.43745e-18 0.00434933)
(0.00434933 -0.00198747 -4.85843e-05 0.00434933 5.96988e-19 0.00434933)
(0.00435025 -0.0019879 -4.93047e-05 0.00435025 1.5017e-18 0.00435025)
(0.00435025 -0.0019879 -4.93047e-05 0.00435025 6.2901e-19 0.00435025)
(0.00435098 -0.00198824 -5.00337e-05 0.00435098 1.55295e-18 0.00435098)
(0.00435098 -0.00198824 -5.00337e-05 0.00435098 6.41228e-19 0.00435098)
(0.0043515 -0.00198851 -5.07712e-05 0.0043515 1.61165e-18 0.0043515)
(0.0043515 -0.00198851 -5.07712e-05 0.0043515 6.48962e-19 0.0043515)
(0.00435183 -0.0019887 -5.15175e-05 0.00435183 1.67562e-18 0.00435183)
(0.00435183 -0.0019887 -5.15175e-05 0.00435183 7.00503e-19 0.00435183)
(0.00435197 -0.0019888 -5.22726e-05 0.00435197 1.73165e-18 0.00435197)
(0.00435197 -0.0019888 -5.22726e-05 0.00435197 7.34331e-19 0.00435197)
(0.00435193 -0.00198884 -5.30367e-05 0.00435193 1.79826e-18 0.00435193)
(0.00435193 -0.00198884 -5.30367e-05 0.00435193 7.61222e-19 0.00435193)
(0.0043517 -0.00198879 -5.38097e-05 0.0043517 1.85374e-18 0.0043517)
(0.0043517 -0.00198879 -5.38097e-05 0.0043517 8.09989e-19 0.0043517)
(0.00435129 -0.00198867 -5.4592e-05 0.00435129 1.87172e-18 0.00435129)
(0.00435129 -0.00198867 -5.4592e-05 0.00435129 8.48522e-19 0.00435129)
(0.0043507 -0.00198848 -5.53835e-05 0.0043507 1.95119e-18 0.0043507)
(0.0043507 -0.00198848 -5.53835e-05 0.0043507 8.75079e-19 0.0043507)
(0.00434994 -0.00198821 -5.61843e-05 0.00434994 2.03717e-18 0.00434994)
(0.00434994 -0.00198821 -5.61843e-05 0.00434994 9.15838e-19 0.00434994)
(0.00434901 -0.00198788 -5.69946e-05 0.00434901 2.06348e-18 0.00434901)
(0.00434901 -0.00198788 -5.69946e-05 0.00434901 1.01336e-18 0.00434901)
(0.00434791 -0.00198747 -5.78145e-05 0.00434791 2.11445e-18 0.00434791)
(0.00434791 -0.00198747 -5.78145e-05 0.00434791 1.08504e-18 0.00434791)
(0.00434665 -0.001987 -5.86441e-05 0.00434665 2.1971e-18 0.00434665)
(0.00434665 -0.001987 -5.86441e-05 0.00434665 1.09306e-18 0.00434665)
(0.00434522 -0.00198645 -5.94835e-05 0.00434522 2.27933e-18 0.00434522)
(0.00434522 -0.00198645 -5.94835e-05 0.00434522 1.15081e-18 0.00434522)
(0.00434364 -0.00198584 -6.03327e-05 0.00434364 2.33467e-18 0.00434364)
(0.00434364 -0.00198584 -6.03327e-05 0.00434364 1.19571e-18 0.00434364)
(0.00434189 -0.00198516 -6.1192e-05 0.00434189 2.44439e-18 0.00434189)
(0.00434189 -0.00198516 -6.1192e-05 0.00434189 1.20781e-18 0.00434189)
(0.00434 -0.00198442 -6.20613e-05 0.00434 2.58527e-18 0.00434)
(0.00434 -0.00198442 -6.20613e-05 0.00434 1.21382e-18 0.00434)
(0.00433794 -0.00198361 -6.29409e-05 0.00433794 2.64636e-18 0.00433794)
(0.00433794 -0.00198361 -6.29409e-05 0.00433794 1.27055e-18 0.00433794)
(0.00433574 -0.00198274 -6.38308e-05 0.00433574 2.70374e-18 0.00433574)
(0.00433574 -0.00198274 -6.38308e-05 0.00433574 1.37548e-18 0.00433574)
(0.00433339 -0.0019818 -6.47311e-05 0.00433339 2.8776e-18 0.00433339)
(0.00433339 -0.0019818 -6.47311e-05 0.00433339 1.39697e-18 0.00433339)
(0.00433089 -0.0019808 -6.56419e-05 0.00433089 3.02672e-18 0.00433089)
(0.00433089 -0.0019808 -6.56419e-05 0.00433089 1.41804e-18 0.00433089)
(0.00432824 -0.00197974 -6.65633e-05 0.00432824 3.06098e-18 0.00432824)
(0.00432824 -0.00197974 -6.65633e-05 0.00432824 1.46142e-18 0.00432824)
(0.00432545 -0.00197862 -6.74955e-05 0.00432545 3.19573e-18 0.00432545)
(0.00432545 -0.00197862 -6.74955e-05 0.00432545 1.49157e-18 0.00432545)
(0.00432252 -0.00197743 -6.84386e-05 0.00432252 3.21975e-18 0.00432252)
(0.00432252 -0.00197743 -6.84386e-05 0.00432252 1.63027e-18 0.00432252)
(0.00431945 -0.00197619 -6.93926e-05 0.00431945 3.23721e-18 0.00431945)
(0.00431945 -0.00197619 -6.93926e-05 0.00431945 1.7526e-18 0.00431945)
(0.00431623 -0.00197488 -7.03576e-05 0.00431623 3.37434e-18 0.00431623)
(0.00431623 -0.00197488 -7.03576e-05 0.00431623 1.83047e-18 0.00431623)
(0.00431288 -0.00197351 -7.13338e-05 0.00431288 3.51536e-18 0.00431288)
(0.00431288 -0.00197351 -7.13338e-05 0.00431288 1.91957e-18 0.00431288)
(0.00430939 -0.00197209 -7.23213e-05 0.00430939 3.71927e-18 0.00430939)
(0.00430939 -0.00197209 -7.23213e-05 0.00430939 1.93008e-18 0.00430939)
(0.00430577 -0.0019706 -7.33201e-05 0.00430577 3.88375e-18 0.00430577)
(0.00430577 -0.0019706 -7.33201e-05 0.00430577 1.94078e-18 0.00430577)
(0.00430201 -0.00196905 -7.43304e-05 0.00430201 3.93484e-18 0.00430201)
(0.00430201 -0.00196905 -7.43304e-05 0.00430201 1.96968e-18 0.00430201)
(0.00429812 -0.00196745 -7.53522e-05 0.00429812 4.06859e-18 0.00429812)
(0.00429812 -0.00196745 -7.53522e-05 0.00429812 2.0889e-18 0.00429812)
(0.0042941 -0.00196579 -7.63858e-05 0.0042941 4.25531e-18 0.0042941)
(0.0042941 -0.00196579 -7.63858e-05 0.0042941 2.20381e-18 0.0042941)
(0.00428994 -0.00196407 -7.74311e-05 0.00428994 4.39847e-18 0.00428994)
(0.00428994 -0.00196407 -7.74311e-05 0.00428994 2.15705e-18 0.00428994)
(0.00428566 -0.00196229 -7.84883e-05 0.00428566 4.57838e-18 0.00428566)
(0.00428566 -0.00196229 -7.84883e-05 0.00428566 2.19138e-18 0.00428566)
(0.00428124 -0.00196045 -7.95574e-05 0.00428124 4.7271e-18 0.00428124)
(0.00428124 -0.00196045 -7.95574e-05 0.00428124 2.3412e-18 0.00428124)
(0.0042767 -0.00195856 -8.06387e-05 0.0042767 4.84858e-18 0.0042767)
(0.0042767 -0.00195856 -8.06387e-05 0.0042767 2.34945e-18 0.0042767)
(0.00427202 -0.00195661 -8.17321e-05 0.00427202 4.8058e-18 0.00427202)
(0.00427202 -0.00195661 -8.17321e-05 0.00427202 2.28856e-18 0.00427202)
(0.00426723 -0.0019546 -8.28378e-05 0.00426723 4.94479e-18 0.00426723)
(0.00426723 -0.0019546 -8.28378e-05 0.00426723 2.38588e-18 0.00426723)
(0.0042623 -0.00195254 -8.39559e-05 0.0042623 5.26762e-18 0.0042623)
(0.0042623 -0.00195254 -8.39559e-05 0.0042623 2.59474e-18 0.0042623)
(0.00425725 -0.00195042 -8.50865e-05 0.00425725 5.33736e-18 0.00425725)
(0.00425725 -0.00195042 -8.50865e-05 0.00425725 2.60466e-18 0.00425725)
(0.00425208 -0.00194824 -8.62296e-05 0.00425208 5.40349e-18 0.00425208)
(0.00425208 -0.00194824 -8.62296e-05 0.00425208 2.52969e-18 0.00425208)
(0.00424678 -0.00194601 -8.73854e-05 0.00424678 5.46101e-18 0.00424678)
(0.00424678 -0.00194601 -8.73854e-05 0.00424678 2.76881e-18 0.00424678)
(0.00424135 -0.00194372 -8.85539e-05 0.00424135 5.52136e-18 0.00424135)
(0.00424135 -0.00194372 -8.85539e-05 0.00424135 2.98887e-18 0.00424135)
(0.0042358 -0.00194138 -8.97353e-05 0.0042358 5.65597e-18 0.0042358)
(0.0042358 -0.00194138 -8.97353e-05 0.0042358 3.00696e-18 0.0042358)
(0.00423013 -0.00193897 -9.09297e-05 0.00423013 5.78483e-18 0.00423013)
(0.00423013 -0.00193897 -9.09297e-05 0.00423013 3.14525e-18 0.00423013)
(0.00422434 -0.00193652 -9.21371e-05 0.00422434 5.97107e-18 0.00422434)
(0.00422434 -0.00193652 -9.21371e-05 0.00422434 3.34373e-18 0.00422434)
(0.00421843 -0.001934 -9.33576e-05 0.00421843 6.1894e-18 0.00421843)
(0.00421843 -0.001934 -9.33576e-05 0.00421843 3.46279e-18 0.00421843)
(0.00421239 -0.00193143 -9.45914e-05 0.00421239 6.18787e-18 0.00421239)
(0.00421239 -0.00193143 -9.45914e-05 0.00421239 3.59068e-18 0.00421239)
(0.00420623 -0.00192881 -9.58384e-05 0.00420623 6.26677e-18 0.00420623)
(0.00420623 -0.00192881 -9.58384e-05 0.00420623 3.72045e-18 0.00420623)
(0.00419995 -0.00192613 -9.70989e-05 0.00419995 6.45938e-18 0.00419995)
(0.00419995 -0.00192613 -9.70989e-05 0.00419995 3.22191e-18 0.00419995)
(0.00419355 -0.00192339 -9.83728e-05 0.00419355 6.53069e-18 0.00419355)
(0.00419355 -0.00192339 -9.83728e-05 0.00419355 2.73664e-18 0.00419355)
(0.00418703 -0.00192059 -9.96602e-05 0.00418703 6.80184e-18 0.00418703)
(0.00418703 -0.00192059 -9.96602e-05 0.00418703 2.99892e-18 0.00418703)
(0.00418039 -0.00191774 -0.000100961 0.00418039 7.06436e-18 0.00418039)
(0.00418039 -0.00191774 -0.000100961 0.00418039 3.46082e-18 0.00418039)
(0.00417363 -0.00191484 -0.000102276 0.00417363 7.17168e-18 0.00417363)
(0.00417363 -0.00191484 -0.000102276 0.00417363 3.92335e-18 0.00417363)
(0.00416675 -0.00191188 -0.000103605 0.00416675 7.22037e-18 0.00416675)
(0.00416675 -0.00191188 -0.000103605 0.00416675 4.10167e-18 0.00416675)
(0.00415975 -0.00190886 -0.000104947 0.00415975 7.38403e-18 0.00415975)
(0.00415975 -0.00190886 -0.000104947 0.00415975 3.88282e-18 0.00415975)
(0.00415262 -0.00190578 -0.000106304 0.00415262 7.61286e-18 0.00415262)
(0.00415262 -0.00190578 -0.000106304 0.00415262 5.00808e-18 0.00415262)
(0.00414538 -0.00190265 -0.000107674 0.00414538 7.98197e-18 0.00414538)
(0.00414538 -0.00190265 -0.000107674 0.00414538 6.94799e-18 0.00414538)
(0.00413802 -0.00189946 -0.000109058 0.00413802 8.20429e-18 0.00413802)
(0.00413802 -0.00189946 -0.000109058 0.00413802 7.20978e-18 0.00413802)
(0.00413054 -0.00189622 -0.000110457 0.00413054 8.39729e-18 0.00413054)
(0.00413054 -0.00189622 -0.000110457 0.00413054 6.94313e-18 0.00413054)
(0.00412293 -0.00189292 -0.00011187 0.00412293 8.3271e-18 0.00412293)
(0.00412293 -0.00189292 -0.00011187 0.00412293 6.97672e-18 0.00412293)
(0.00411521 -0.00188956 -0.000113297 0.00411521 8.09833e-18 0.00411521)
(0.00411521 -0.00188956 -0.000113297 0.00411521 7.12085e-18 0.00411521)
(0.00410737 -0.00188614 -0.000114738 0.00410737 8.37865e-18 0.00410737)
(0.00410737 -0.00188614 -0.000114738 0.00410737 7.46889e-18 0.00410737)
(0.0040994 -0.00188267 -0.000116194 0.0040994 5.3343e-18 0.0040994)
(0.0040994 -0.00188267 -0.000116194 0.0040994 7.82577e-18 0.0040994)
(0.00409132 -0.00187913 -0.000117664 0.00409132 5.09853e-19 0.00409132)
(0.00409132 -0.00187913 -0.000117664 0.00409132 7.96113e-18 0.00409132)
(0.00408311 -0.00187554 -0.000119149 0.00408311 -6.51835e-18 0.00408311)
(0.00408311 -0.00187554 -0.000119149 0.00408311 8.16308e-18 0.00408311)
(0.00407479 -0.0018719 -0.000120648 0.00407479 -6.25157e-18 0.00407479)
(0.00407479 -0.0018719 -0.000120648 0.00407479 8.49945e-18 0.00407479)
(0.00406634 -0.00186819 -0.000122161 0.00406634 -6.3174e-18 0.00406634)
(0.00406634 -0.00186819 -0.000122161 0.00406634 8.80103e-18 0.00406634)
(0.00405777 -0.00186442 -0.00012369 0.00405777 -5.979e-18 0.00405777)
(0.00405777 -0.00186442 -0.00012369 0.00405777 8.59181e-18 0.00405777)
(0.00404908 -0.0018606 -0.000125232 0.00404908 -6.00851e-18 0.00404908)
(0.00404908 -0.0018606 -0.000125232 0.00404908 8.48476e-18 0.00404908)
(0.00404026 -0.00185671 -0.00012679 0.00404026 -6.08833e-18 0.00404026)
(0.00404026 -0.00185671 -0.00012679 0.00404026 8.63774e-18 0.00404026)
(0.00403132 -0.00185277 -0.000128362 0.00403132 -6.19411e-18 0.00403132)
(0.00403132 -0.00185277 -0.000128362 0.00403132 9.33591e-18 0.00403132)
(0.00402226 -0.00184877 -0.000129948 0.00402226 -6.02318e-18 0.00402226)
(0.00402226 -0.00184877 -0.000129948 0.00402226 1.01386e-17 0.00402226)
(0.00401308 -0.0018447 -0.00013155 0.00401308 -5.73231e-18 0.00401308)
(0.00401308 -0.0018447 -0.00013155 0.00401308 1.03471e-17 0.00401308)
(0.00400377 -0.00184058 -0.000133165 0.00400377 -5.57498e-18 0.00400377)
(0.00400377 -0.00184058 -0.000133165 0.00400377 1.05126e-17 0.00400377)
(0.00399434 -0.00183639 -0.000134796 0.00399434 -5.69756e-18 0.00399434)
(0.00399434 -0.00183639 -0.000134796 0.00399434 1.08259e-17 0.00399434)
(0.00398478 -0.00183215 -0.000136441 0.00398478 -5.76479e-18 0.00398478)
(0.00398478 -0.00183215 -0.000136441 0.00398478 1.10863e-17 0.00398478)
(0.00397509 -0.00182784 -0.000138101 0.00397509 -4.68889e-18 0.00397509)
(0.00397509 -0.00182784 -0.000138101 0.00397509 1.10007e-17 0.00397509)
(0.00396528 -0.00182347 -0.000139775 0.00396528 -4.35741e-18 0.00396528)
(0.00396528 -0.00182347 -0.000139775 0.00396528 1.08053e-17 0.00396528)
(0.00395535 -0.00181903 -0.000141464 0.00395535 -4.19916e-18 0.00395535)
(0.00395535 -0.00181903 -0.000141464 0.00395535 1.11469e-17 0.00395535)
(0.00394528 -0.00181454 -0.000143168 0.00394528 -4.65706e-18 0.00394528)
(0.00394528 -0.00181454 -0.000143168 0.00394528 1.14856e-17 0.00394528)
(0.00393509 -0.00180998 -0.000144886 0.00393509 -4.96954e-18 0.00393509)
(0.00393509 -0.00180998 -0.000144886 0.00393509 1.18307e-17 0.00393509)
(0.00392476 -0.00180535 -0.000146618 0.00392476 -3.98314e-18 0.00392476)
(0.00392476 -0.00180535 -0.000146618 0.00392476 1.2381e-17 0.00392476)
(0.00391431 -0.00180066 -0.000148365 0.00391431 -3.65262e-18 0.00391431)
(0.00391431 -0.00180066 -0.000148365 0.00391431 1.32342e-17 0.00391431)
(0.00390373 -0.00179591 -0.000150126 0.00390373 -3.5677e-18 0.00390373)
(0.00390373 -0.00179591 -0.000150126 0.00390373 1.39277e-17 0.00390373)
(0.00389302 -0.00179109 -0.000151902 0.00389302 -4.1527e-18 0.00389302)
(0.00389302 -0.00179109 -0.000151902 0.00389302 1.44669e-17 0.00389302)
(0.00388217 -0.0017862 -0.000153691 0.00388217 -4.6976e-18 0.00388217)
(0.00388217 -0.0017862 -0.000153691 0.00388217 1.49639e-17 0.00388217)
(0.00387119 -0.00178125 -0.000155495 0.00387119 -3.54075e-18 0.00387119)
(0.00387119 -0.00178125 -0.000155495 0.00387119 1.5629e-17 0.00387119)
(0.00386008 -0.00177623 -0.000157312 0.00386008 -3.7599e-18 0.00386008)
(0.00386008 -0.00177623 -0.000157312 0.00386008 1.62172e-17 0.00386008)
(0.00384883 -0.00177114 -0.000159143 0.00384883 -4.12397e-18 0.00384883)
(0.00384883 -0.00177114 -0.000159143 0.00384883 1.66426e-17 0.00384883)
(0.00383745 -0.00176599 -0.000160988 0.00383745 -2.6385e-18 0.00383745)
(0.00383745 -0.00176599 -0.000160988 0.00383745 1.71863e-17 0.00383745)
(0.00382593 -0.00176076 -0.000162847 0.00382593 -1.58412e-18 0.00382593)
(0.00382593 -0.00176076 -0.000162847 0.00382593 1.77749e-17 0.00382593)
(0.00381427 -0.00175547 -0.000164719 0.00381427 -1.29889e-18 0.00381427)
(0.00381427 -0.00175547 -0.000164719 0.00381427 1.81205e-17 0.00381427)
(0.00380248 -0.0017501 -0.000166604 0.00380248 -2.3006e-18 0.00380248)
(0.00380248 -0.0017501 -0.000166604 0.00380248 1.89276e-17 0.00380248)
(0.00379054 -0.00174467 -0.000168502 0.00379054 -3.89462e-18 0.00379054)
(0.00379054 -0.00174467 -0.000168502 0.00379054 2.0079e-17 0.00379054)
(0.00377846 -0.00173916 -0.000170414 0.00377846 -3.96926e-18 0.00377846)
(0.00377846 -0.00173916 -0.000170414 0.00377846 1.98834e-17 0.00377846)
(0.00376624 -0.00173358 -0.000172338 0.00376624 -5.30078e-18 0.00376624)
(0.00376624 -0.00173358 -0.000172338 0.00376624 2.00847e-17 0.00376624)
(0.00375388 -0.00172792 -0.000174274 0.00375388 -8.44736e-18 0.00375388)
(0.00375388 -0.00172792 -0.000174274 0.00375388 2.0692e-17 0.00375388)
(0.00374138 -0.0017222 -0.000176222 0.00374138 -6.87657e-18 0.00374138)
(0.00374138 -0.0017222 -0.000176222 0.00374138 2.0245e-17 0.00374138)
(0.00372872 -0.00171639 -0.000178183 0.00372872 -3.02668e-18 0.00372872)
(0.00372872 -0.00171639 -0.000178183 0.00372872 2.02124e-17 0.00372872)
(0.00371592 -0.00171051 -0.000180155 0.00371592 -2.61396e-18 0.00371592)
(0.00371592 -0.00171051 -0.000180155 0.00371592 2.09252e-17 0.00371592)