/*--------------------------------*- C++ -*----------------------------------*\
| =========                 |                                                 |
| \\      /  F ield         | OpenFOAM: The Open Source CFD Toolbox           |
|  \\    /   O peration     | Version:  2106                                  |
|   \\  /    A nd           | Website:  www.openfoam.com                      |
|    \\/     M anipulation  |                                                 |
\*---------------------------------------------------------------------------*/
FoamFile
{
    version     2.0;
    format      ascii;
    arch        "LSB;label=32;scalar=64";
    class       volScalarField;
    location    "19000";
    object      p;
}
// * * * * * * * * * * * * * * * * * * * * * * * * * * * * * * * * * * * * * //

dimensions      [0 2 -2 0 0 0 0];

internalField   nonuniform List<scalar> 
2560
(
1.46904e-15
2.15165e-14
3.38513e-15
2.15172e-14
3.99124e-15
2.15184e-14
4.27426e-15
2.15203e-14
4.62689e-15
2.15231e-14
5.01717e-15
2.15266e-14
5.40017e-15
2.15309e-14
5.77005e-15
2.15361e-14
6.13097e-15
2.1542e-14
6.48495e-15
2.15488e-14
6.83232e-15
2.15564e-14
7.1732e-15
2.15647e-14
7.50765e-15
2.15739e-14
7.83581e-15
2.15837e-14
8.15758e-15
2.15944e-14
8.4731e-15
2.16059e-14
8.78247e-15
2.16181e-14
9.08568e-15
2.16311e-14
9.38281e-15
2.16447e-14
9.67405e-15
2.16592e-14
9.95938e-15
2.16743e-14
1.02388e-14
2.16902e-14
1.05125e-14
2.17068e-14
1.07806e-14
2.17242e-14
1.10432e-14
2.17422e-14
1.13002e-14
2.1761e-14
1.15518e-14
2.17805e-14
1.17983e-14
2.18007e-14
1.20396e-14
2.18217e-14
1.22759e-14
2.18435e-14
1.25072e-14
2.18658e-14
1.27337e-14
2.18888e-14
1.29554e-14
2.19124e-14
1.31726e-14
2.1937e-14
1.33855e-14
2.19624e-14
1.3594e-14
2.19884e-14
1.37982e-14
2.20151e-14
1.39986e-14
2.20424e-14
1.41954e-14
2.20703e-14
1.43884e-14
2.20991e-14
1.45778e-14
2.21285e-14
1.4764e-14
2.21589e-14
1.4947e-14
2.21901e-14
1.5127e-14
2.22223e-14
1.53043e-14
2.22551e-14
1.54791e-14
2.22889e-14
1.56513e-14
2.23237e-14
1.58214e-14
2.23595e-14
1.59891e-14
2.23963e-14
1.61547e-14
2.24343e-14
1.63189e-14
2.24732e-14
1.64813e-14
2.25131e-14
1.6642e-14
2.25542e-14
1.68012e-14
2.25966e-14
1.69588e-14
2.26405e-14
1.7115e-14
2.2686e-14
1.72702e-14
2.27331e-14
1.74245e-14
2.27817e-14
1.75775e-14
2.28317e-14
1.77295e-14
2.28835e-14
1.78805e-14
2.29371e-14
1.80309e-14
2.29926e-14
1.81802e-14
2.30495e-14
1.8329e-14
2.31082e-14
1.8477e-14
2.31693e-14
1.86242e-14
2.32318e-14
1.87711e-14
2.32958e-14
1.89175e-14
2.3362e-14
1.90633e-14
2.343e-14
1.92091e-14
2.35001e-14
1.93537e-14
2.35721e-14
1.94974e-14
2.36462e-14
1.96409e-14
2.37218e-14
1.97838e-14
2.37999e-14
1.99264e-14
2.38804e-14
2.0068e-14
2.3963e-14
2.02089e-14
2.40478e-14
2.03497e-14
2.41347e-14
2.04897e-14
2.4224e-14
2.06294e-14
2.4316e-14
2.07672e-14
2.44116e-14
2.0904e-14
2.45073e-14
2.104e-14
2.46053e-14
2.11745e-14
2.47065e-14
2.13067e-14
2.48123e-14
2.14373e-14
2.49211e-14
2.15674e-14
2.50314e-14
2.16958e-14
2.51426e-14
2.18229e-14
2.5257e-14
2.19472e-14
2.53763e-14
2.20698e-14
2.54975e-14
2.21905e-14
2.56201e-14
2.23089e-14
2.57463e-14
2.24256e-14
2.58736e-14
2.25414e-14
2.60005e-14
2.26545e-14
2.61286e-14
2.27674e-14
2.62612e-14
2.28774e-14
2.63976e-14
2.29845e-14
2.65354e-14
2.30903e-14
2.66736e-14
2.31954e-14
2.68141e-14
2.3299e-14
2.69578e-14
2.33983e-14
2.71038e-14
2.34967e-14
2.72541e-14
2.35978e-14
2.7406e-14
2.3697e-14
2.75578e-14
2.3796e-14
2.77113e-14
2.38956e-14
2.78657e-14
2.39939e-14
2.80192e-14
2.40928e-14
2.81745e-14
2.4193e-14
2.83309e-14
2.42907e-14
2.84903e-14
2.43868e-14
2.86471e-14
2.4484e-14
2.8806e-14
2.45804e-14
2.89673e-14
2.46757e-14
2.91299e-14
2.47699e-14
2.92921e-14
2.48658e-14
2.94568e-14
2.49584e-14
2.96223e-14
2.50485e-14
2.97946e-14
2.51389e-14
2.99648e-14
2.52245e-14
3.01381e-14
2.53113e-14
3.03116e-14
2.5399e-14
3.04863e-14
2.54886e-14
3.06594e-14
2.55748e-14
3.08383e-14
2.56604e-14
3.10168e-14
2.57497e-14
3.1193e-14
2.5838e-14
3.13627e-14
2.5921e-14
3.15303e-14
2.60071e-14
3.16959e-14
2.60939e-14
3.1864e-14
2.61857e-14
3.2024e-14
2.62778e-14
3.21758e-14
2.63701e-14
3.23284e-14
2.64601e-14
3.24775e-14
2.65543e-14
3.26189e-14
2.66481e-14
3.27593e-14
2.6748e-14
3.29035e-14
2.6847e-14
3.30403e-14
2.69381e-14
3.31653e-14
2.70323e-14
3.32946e-14
2.71272e-14
3.34262e-14
2.72248e-14
3.35464e-14
2.73227e-14
3.36692e-14
2.74204e-14
3.37972e-14
2.75178e-14
3.3926e-14
2.76146e-14
3.40511e-14
2.77128e-14
3.41727e-14
2.78073e-14
3.4303e-14
2.79002e-14
3.44326e-14
2.79984e-14
3.45666e-14
2.81013e-14
3.47006e-14
2.82089e-14
3.48276e-14
2.83109e-14
3.49478e-14
2.84168e-14
3.50567e-14
2.85335e-14
3.51641e-14
2.86509e-14
3.52824e-14
2.87785e-14
3.53999e-14
2.88987e-14
3.55043e-14
2.9021e-14
3.55985e-14
2.91377e-14
3.56973e-14
2.92606e-14
3.5796e-14
2.9392e-14
3.589e-14
2.95189e-14
3.59845e-14
2.9656e-14
3.60746e-14
2.98029e-14
3.61656e-14
2.99443e-14
3.62577e-14
3.00948e-14
3.63461e-14
3.0244e-14
3.6436e-14
3.03967e-14
3.65376e-14
3.05523e-14
3.66411e-14
3.07106e-14
3.67317e-14
3.08712e-14
3.68246e-14
3.10336e-14
3.69201e-14
3.11975e-14
3.70132e-14
3.13625e-14
3.71091e-14
3.15384e-14
3.72081e-14
3.17097e-14
3.73154e-14
3.18859e-14
3.74312e-14
3.20668e-14
3.75404e-14
3.22468e-14
3.76484e-14
3.24256e-14
3.77552e-14
3.26128e-14
3.78764e-14
3.28031e-14
3.79917e-14
3.2996e-14
3.81065e-14
3.3191e-14
3.82105e-14
3.33828e-14
3.83244e-14
3.35864e-14
3.84329e-14
3.37858e-14
3.85516e-14
3.39808e-14
3.86702e-14
3.41811e-14
3.87785e-14
3.43814e-14
3.88818e-14
3.45864e-14
3.90059e-14
3.47906e-14
3.91405e-14
3.49936e-14
3.92443e-14
3.51949e-14
3.9364e-14
3.53892e-14
3.95149e-14
3.55912e-14
3.96562e-14
3.57954e-14
3.97827e-14
3.59962e-14
3.99256e-14
3.61828e-14
4.008e-14
3.63802e-14
4.02205e-14
3.65674e-14
4.0373e-14
3.67643e-14
4.05379e-14
3.69701e-14
4.06952e-14
3.7174e-14
4.08657e-14
3.73752e-14
4.10192e-14
3.75833e-14
4.11662e-14
3.77875e-14
4.13174e-14
3.79975e-14
4.14729e-14
3.82025e-14
4.15922e-14
3.84125e-14
4.16853e-14
3.86171e-14
4.18032e-14
3.88365e-14
4.19459e-14
3.90396e-14
4.21133e-14
3.92564e-14
4.22549e-14
3.94765e-14
4.23709e-14
3.96797e-14
4.25016e-14
3.9896e-14
4.26572e-14
4.01251e-14
4.2777e-14
4.03469e-14
4.28909e-14
4.05718e-14
4.30291e-14
4.07797e-14
4.3181e-14
4.10005e-14
4.33065e-14
4.12143e-14
4.34054e-14
4.14115e-14
4.35371e-14
4.16124e-14
4.36716e-14
4.18068e-14
4.38189e-14
4.19945e-14
4.39491e-14
4.21854e-14
4.40623e-14
4.23598e-14
4.41781e-14
4.25574e-14
4.43364e-14
4.2758e-14
4.4448e-14
4.29524e-14
4.45521e-14
4.31412e-14
4.46875e-14
4.33344e-14
4.48049e-14
4.35129e-14
4.49334e-14
4.37061e-14
4.50338e-14
4.38954e-14
4.51442e-14
4.40914e-14
4.52638e-14
4.42755e-14
4.53627e-14
4.44683e-14
4.54689e-14
4.46419e-14
4.56003e-14
4.4845e-14
4.56985e-14
4.50215e-14
4.58481e-14
4.51906e-14
4.59726e-14
4.53721e-14
4.60527e-14
4.55108e-14
4.61432e-14
4.56454e-14
4.62235e-14
4.58327e-14
4.63298e-14
4.5999e-14
4.64977e-14
4.61631e-14
4.66338e-14
4.62882e-14
4.68305e-14
4.63909e-14
4.69785e-14
4.65058e-14
4.70978e-14
4.66505e-14
4.72071e-14
4.68252e-14
4.73238e-14
4.69759e-14
4.7464e-14
4.71211e-14
4.7573e-14
4.72798e-14
4.76677e-14
4.7399e-14
4.77642e-14
4.75329e-14
4.78263e-14
4.76831e-14
4.79415e-14
4.7833e-14
4.80367e-14
4.79839e-14
4.81456e-14
4.81022e-14
4.8161e-14
4.81914e-14
4.82532e-14
4.83207e-14
4.83685e-14
4.83859e-14
4.84893e-14
4.84531e-14
4.85828e-14
4.85197e-14
4.85992e-14
4.86034e-14
4.86047e-14
4.86901e-14
4.86962e-14
4.8796e-14
4.88213e-14
4.88862e-14
4.88964e-14
4.89279e-14
4.89379e-14
4.89539e-14
4.89616e-14
4.90123e-14
4.90157e-14
4.90535e-14
4.90981e-14
4.91733e-14
4.91778e-14
4.92606e-14
4.9205e-14
4.93031e-14
4.9225e-14
4.93485e-14
4.92674e-14
4.9396e-14
4.93935e-14
4.94405e-14
4.9529e-14
4.94748e-14
4.95407e-14
4.9576e-14
4.95202e-14
4.96883e-14
4.96262e-14
4.97532e-14
4.97349e-14
4.98594e-14
4.98188e-14
4.99166e-14
4.98769e-14
5.00731e-14
4.99668e-14
5.0128e-14
5.0111e-14
5.01914e-14
5.02284e-14
5.03148e-14
5.03528e-14
5.04672e-14
5.04546e-14
5.05087e-14
5.05283e-14
5.0632e-14
5.06334e-14
5.06717e-14
5.07116e-14
5.07875e-14
5.07911e-14
5.08948e-14
5.09214e-14
5.10181e-14
5.10502e-14
5.11329e-14
5.11529e-14
5.11881e-14
5.12292e-14
5.13128e-14
5.13093e-14
5.13841e-14
5.14136e-14
5.14799e-14
5.14676e-14
5.1604e-14
5.1571e-14
5.16553e-14
5.1671e-14
5.17061e-14
5.17744e-14
5.17232e-14
5.18639e-14
5.1818e-14
5.19e-14
5.19271e-14
5.19733e-14
5.19583e-14
5.2028e-14
5.20546e-14
5.20665e-14
5.21245e-14
5.21294e-14
5.2219e-14
5.22162e-14
5.22699e-14
5.228e-14
5.23249e-14
5.23217e-14
1.80802e-14
1.99877e-14
1.80806e-14
1.99879e-14
1.80813e-14
1.99881e-14
1.80823e-14
1.99885e-14
1.80838e-14
1.99891e-14
1.80858e-14
1.99899e-14
1.80882e-14
1.99908e-14
1.8091e-14
1.9992e-14
1.80943e-14
1.99934e-14
1.8098e-14
1.99949e-14
1.81022e-14
1.99967e-14
1.81068e-14
1.99986e-14
1.81119e-14
2.00008e-14
1.81174e-14
2.00032e-14
1.81233e-14
2.00059e-14
1.81297e-14
2.00088e-14
1.81364e-14
2.00119e-14
1.81436e-14
2.00152e-14
1.81513e-14
2.00188e-14
1.81593e-14
2.00225e-14
1.81678e-14
2.00265e-14
1.81767e-14
2.00308e-14
1.81862e-14
2.00353e-14
1.8196e-14
2.00401e-14
1.82064e-14
2.0045e-14
1.82172e-14
2.005e-14
1.82285e-14
2.00553e-14
1.82403e-14
2.00609e-14
1.82527e-14
2.00669e-14
1.82654e-14
2.00731e-14
1.82784e-14
2.00795e-14
1.82919e-14
2.00863e-14
1.8306e-14
2.00935e-14
1.83205e-14
2.01011e-14
1.83355e-14
2.01089e-14
1.83509e-14
2.0117e-14
1.83671e-14
2.01254e-14
1.83837e-14
2.01341e-14
1.8401e-14
2.01429e-14
1.84188e-14
2.01521e-14
1.84373e-14
2.01619e-14
1.84562e-14
2.01722e-14
1.84757e-14
2.01828e-14
1.84961e-14
2.01935e-14
1.85171e-14
2.0205e-14
1.85386e-14
2.02168e-14
1.85611e-14
2.02289e-14
1.85842e-14
2.02419e-14
1.8608e-14
2.02552e-14
1.86326e-14
2.02691e-14
1.86582e-14
2.02834e-14
1.86846e-14
2.02985e-14
1.87122e-14
2.03143e-14
1.87405e-14
2.03308e-14
1.87698e-14
2.03482e-14
1.88002e-14
2.03665e-14
1.88317e-14
2.03856e-14
1.88643e-14
2.04059e-14
1.88978e-14
2.04274e-14
1.89326e-14
2.04493e-14
1.89687e-14
2.04722e-14
1.90061e-14
2.04961e-14
1.90446e-14
2.05215e-14
1.90844e-14
2.05475e-14
1.91254e-14
2.05746e-14
1.91685e-14
2.0603e-14
1.92132e-14
2.06323e-14
1.92595e-14
2.06634e-14
1.93072e-14
2.06956e-14
1.93565e-14
2.07288e-14
1.94073e-14
2.07636e-14
1.94598e-14
2.07998e-14
1.95141e-14
2.08375e-14
1.95702e-14
2.08766e-14
1.96276e-14
2.09174e-14
1.96869e-14
2.09595e-14
1.97483e-14
2.10028e-14
1.98121e-14
2.10479e-14
1.98775e-14
2.10943e-14
1.99436e-14
2.11423e-14
2.00123e-14
2.11929e-14
2.00828e-14
2.12445e-14
2.0155e-14
2.12987e-14
2.0229e-14
2.13551e-14
2.03054e-14
2.14131e-14
2.03833e-14
2.14729e-14
2.04626e-14
2.15355e-14
2.05448e-14
2.15988e-14
2.06299e-14
2.16639e-14
2.07169e-14
2.17322e-14
2.08073e-14
2.18013e-14
2.08988e-14
2.1874e-14
2.09918e-14
2.19483e-14
2.10871e-14
2.20215e-14
2.11848e-14
2.20978e-14
2.12847e-14
2.21788e-14
2.1387e-14
2.22628e-14
2.14925e-14
2.23483e-14
2.16012e-14
2.24336e-14
2.17115e-14
2.25203e-14
2.18251e-14
2.26118e-14
2.19385e-14
2.27064e-14
2.20553e-14
2.28033e-14
2.21763e-14
2.29016e-14
2.22962e-14
2.3003e-14
2.24195e-14
2.31058e-14
2.25426e-14
2.32127e-14
2.26673e-14
2.33237e-14
2.27963e-14
2.34332e-14
2.29288e-14
2.35449e-14
2.3062e-14
2.36616e-14
2.31968e-14
2.37787e-14
2.33332e-14
2.3895e-14
2.34722e-14
2.40144e-14
2.36139e-14
2.41368e-14
2.37591e-14
2.42613e-14
2.3902e-14
2.43889e-14
2.40476e-14
2.45195e-14
2.41938e-14
2.4656e-14
2.43417e-14
2.47936e-14
2.44923e-14
2.49341e-14
2.46435e-14
2.50756e-14
2.47984e-14
2.52189e-14
2.49581e-14
2.53671e-14
2.51196e-14
2.55182e-14
2.52839e-14
2.567e-14
2.54489e-14
2.58236e-14
2.56146e-14
2.59809e-14
2.5781e-14
2.61377e-14
2.59547e-14
2.62918e-14
2.61269e-14
2.64538e-14
2.63022e-14
2.66195e-14
2.6476e-14
2.67822e-14
2.66485e-14
2.69441e-14
2.68218e-14
2.71139e-14
2.6996e-14
2.72871e-14
2.7171e-14
2.74639e-14
2.73447e-14
2.76418e-14
2.7517e-14
2.78231e-14
2.76902e-14
2.80033e-14
2.78689e-14
2.81777e-14
2.80417e-14
2.83577e-14
2.82177e-14
2.85479e-14
2.83971e-14
2.87344e-14
2.85775e-14
2.8915e-14
2.87565e-14
2.90964e-14
2.89367e-14
2.92881e-14
2.91227e-14
2.94807e-14
2.93099e-14
2.96694e-14
2.9496e-14
2.98565e-14
2.96786e-14
3.00468e-14
2.98673e-14
3.02378e-14
3.00573e-14
3.04343e-14
3.02489e-14
3.06339e-14
3.04395e-14
3.0827e-14
3.06293e-14
3.10182e-14
3.08232e-14
3.1215e-14
3.10066e-14
3.14197e-14
3.11943e-14
3.16275e-14
3.13886e-14
3.18311e-14
3.15774e-14
3.20355e-14
3.17582e-14
3.22381e-14
3.19533e-14
3.24317e-14
3.21456e-14
3.26285e-14
3.23399e-14
3.28237e-14
3.25316e-14
3.30172e-14
3.27155e-14
3.32092e-14
3.29018e-14
3.33995e-14
3.30906e-14
3.35834e-14
3.32769e-14
3.37656e-14
3.34557e-14
3.39716e-14
3.36422e-14
3.41711e-14
3.38365e-14
3.43593e-14
3.40337e-14
3.45512e-14
3.42135e-14
3.47521e-14
3.43964e-14
3.49417e-14
3.45822e-14
3.51354e-14
3.47661e-14
3.53435e-14
3.49531e-14
3.55458e-14
3.51434e-14
3.57322e-14
3.5342e-14
3.59232e-14
3.55287e-14
3.6124e-14
3.57138e-14
3.63244e-14
3.59023e-14
3.65093e-14
3.60843e-14
3.66942e-14
3.6275e-14
3.68945e-14
3.64746e-14
3.70898e-14
3.6678e-14
3.72804e-14
3.68752e-14
3.74662e-14
3.70765e-14
3.76577e-14
3.72718e-14
3.78395e-14
3.74612e-14
3.80221e-14
3.765e-14
3.82209e-14
3.78383e-14
3.84208e-14
3.80261e-14
3.86221e-14
3.82238e-14
3.87991e-14
3.84211e-14
3.89778e-14
3.85874e-14
3.91788e-14
3.87588e-14
3.93665e-14
3.89557e-14
3.95256e-14
3.91372e-14
3.96973e-14
3.93087e-14
3.98817e-14
3.94753e-14
4.00635e-14
3.96525e-14
4.02327e-14
3.98456e-14
4.03842e-14
4.00344e-14
4.05487e-14
4.02191e-14
4.07159e-14
4.04001e-14
4.08754e-14
4.05877e-14
4.10374e-14
4.07721e-14
4.12122e-14
4.09432e-14
4.13794e-14
4.1101e-14
4.15492e-14
4.12661e-14
4.17015e-14
4.14592e-14
4.18468e-14
4.16499e-14
4.19951e-14
4.18081e-14
4.21463e-14
4.19543e-14
4.23002e-14
4.20988e-14
4.24571e-14
4.22719e-14
4.26173e-14
4.24432e-14
4.27708e-14
4.26027e-14
4.29074e-14
4.27508e-14
4.30575e-14
4.29074e-14
4.3201e-14
4.30626e-14
4.33482e-14
4.32265e-14
4.34889e-14
4.3369e-14
4.36331e-14
4.34801e-14
4.37511e-14
4.36298e-14
4.38632e-14
4.37784e-14
4.4009e-14
4.39157e-14
4.41484e-14
4.40419e-14
4.42618e-14
4.41869e-14
4.43491e-14
4.43117e-14
4.44991e-14
4.44455e-14
4.46227e-14
4.45686e-14
4.47398e-14
4.47006e-14
4.48604e-14
4.48414e-14
4.49549e-14
4.49621e-14
4.50716e-14
4.50922e-14
4.52104e-14
4.52117e-14
4.53326e-14
4.53301e-14
4.5458e-14
4.54566e-14
4.55772e-14
4.55716e-14
4.57098e-14
4.56938e-14
4.58755e-14
4.58412e-14
4.60179e-14
4.59943e-14
4.6128e-14
4.60966e-14
4.62431e-14
4.62238e-14
4.64016e-14
4.63368e-14
4.65669e-14
4.64912e-14
4.67034e-14
4.6612e-14
4.68306e-14
4.67363e-14
4.6968e-14
4.68447e-14
4.71346e-14
4.69725e-14
4.7295e-14
4.71188e-14
4.74686e-14
4.72095e-14
4.76013e-14
4.73356e-14
4.77504e-14
4.74958e-14
4.78992e-14
4.75987e-14
4.80484e-14
4.77154e-14
4.8182e-14
4.78627e-14
4.83016e-14
4.79869e-14
4.83716e-14
4.81077e-14
4.84271e-14
4.8209e-14
4.85558e-14
4.83604e-14
4.86523e-14
4.84747e-14
4.87512e-14
4.85873e-14
4.887e-14
4.8698e-14
4.89762e-14
4.88245e-14
4.90535e-14
4.8934e-14
4.91697e-14
4.90444e-14
4.9239e-14
4.91583e-14
4.92778e-14
4.92288e-14
4.93356e-14
4.93077e-14
4.94472e-14
4.94106e-14
4.95642e-14
4.94864e-14
4.96207e-14
4.95528e-14
4.96834e-14
4.96111e-14
4.97371e-14
4.96626e-14
4.98159e-14
4.96736e-14
4.98898e-14
4.97381e-14
4.99143e-14
4.9808e-14
4.99197e-14
4.99026e-14
4.99512e-14
4.99631e-14
5.00062e-14
5.00072e-14
5.00851e-14
5.00805e-14
5.01422e-14
5.01383e-14
5.01907e-14
5.02601e-14
5.02322e-14
5.02827e-14
5.02951e-14
5.03244e-14
5.03812e-14
5.04425e-14
5.04329e-14
5.05214e-14
5.05356e-14
5.05912e-14
5.06333e-14
5.06772e-14
5.07294e-14
5.07799e-14
5.08239e-14
5.09022e-14
5.09453e-14
5.10443e-14
5.10652e-14
5.11797e-14
5.11262e-14
5.12064e-14
5.12083e-14
5.13432e-14
5.13443e-14
5.15102e-14
5.14531e-14
5.16055e-14
5.1532e-14
5.16328e-14
5.16057e-14
5.1694e-14
5.16773e-14
5.1786e-14
5.17201e-14
5.17831e-14
5.18087e-14
5.18035e-14
5.18742e-14
5.18922e-14
5.19212e-14
5.20011e-14
5.1972e-14
5.20335e-14
5.20431e-14
5.20881e-14
5.21126e-14
5.21637e-14
5.2181e-14
5.21649e-14
5.2247e-14
5.22285e-14
5.23225e-14
5.22748e-14
5.23855e-14
5.23768e-14
5.24162e-14
5.2423e-14
5.24542e-14
5.24627e-14
5.24973e-14
5.24918e-14
5.25678e-14
5.25265e-14
5.25776e-14
5.23635e-14
5.23894e-14
5.23846e-14
5.24223e-14
5.24346e-14
5.24483e-14
5.24716e-14
5.24893e-14
5.24723e-14
5.25006e-14
5.2509e-14
5.25347e-14
5.25072e-14
5.25684e-14
5.25112e-14
5.26047e-14
5.25672e-14
5.26224e-14
5.26082e-14
5.26675e-14
5.25839e-14
5.26664e-14
5.26419e-14
5.26473e-14
5.26906e-14
5.26763e-14
5.26852e-14
5.27253e-14
5.267e-14
5.27224e-14
5.2722e-14
5.272e-14
5.27186e-14
5.27119e-14
5.27395e-14
5.26966e-14
5.27343e-14
5.26984e-14
5.2728e-14
5.26924e-14
5.27175e-14
5.27339e-14
5.27555e-14
5.27733e-14
5.28161e-14
5.28126e-14
5.27896e-14
5.28802e-14
5.27827e-14
5.28998e-14
5.28511e-14
5.29014e-14
5.28857e-14
5.29362e-14
5.28871e-14
5.29751e-14
5.29424e-14
5.30221e-14
5.2993e-14
5.30464e-14
5.29806e-14
5.29839e-14
5.30287e-14
5.29801e-14
5.30817e-14
5.30004e-14
5.30485e-14
5.30744e-14
5.30919e-14
5.31176e-14
5.31189e-14
5.3177e-14
5.30937e-14
5.32089e-14
5.30747e-14
5.32483e-14
5.31235e-14
5.32345e-14
5.31644e-14
5.32426e-14
5.31507e-14
5.32705e-14
5.31605e-14
5.33033e-14
5.32268e-14
5.33256e-14
5.3204e-14
5.33509e-14
5.32697e-14
5.3398e-14
5.33272e-14
5.3432e-14
5.33623e-14
5.3401e-14
5.34109e-14
5.34194e-14
5.34921e-14
5.34529e-14
5.35574e-14
5.35506e-14
5.36054e-14
5.35601e-14
5.36382e-14
5.35475e-14
5.36571e-14
5.35985e-14
5.37132e-14
5.3697e-14
5.37353e-14
5.36873e-14
5.37593e-14
5.37086e-14
5.3785e-14
5.37972e-14
5.38281e-14
5.37964e-14
5.38544e-14
5.38113e-14
5.38822e-14
5.38062e-14
5.39124e-14
5.38335e-14
5.4e-14
5.38022e-14
5.39673e-14
5.38165e-14
5.39576e-14
5.38772e-14
5.39683e-14
5.39319e-14
5.398e-14
5.39266e-14
5.39744e-14
5.39347e-14
5.39881e-14
5.39759e-14
5.40017e-14
5.40515e-14
5.40138e-14
5.40881e-14
5.40617e-14
5.41422e-14
5.41084e-14
5.41768e-14
5.41546e-14
5.42114e-14
5.41812e-14
5.42081e-14
5.41887e-14
5.42422e-14
5.42146e-14
5.43148e-14
5.4239e-14
5.43507e-14
5.4252e-14
5.43208e-14
5.42445e-14
5.43106e-14
5.4265e-14
5.43686e-14
5.42935e-14
5.43992e-14
5.43107e-14
5.44217e-14
5.43356e-14
5.44263e-14
5.43394e-14
5.44417e-14
5.43415e-14
5.44683e-14
5.43513e-14
5.4477e-14
5.43492e-14
5.44774e-14
5.43254e-14
5.44889e-14
5.43289e-14
5.4502e-14
5.431e-14
5.45168e-14
5.43279e-14
5.45241e-14
5.43231e-14
5.45434e-14
5.43251e-14
5.45649e-14
5.43339e-14
5.45488e-14
5.43398e-14
5.45347e-14
5.43429e-14
5.45623e-14
5.43532e-14
5.45716e-14
5.43607e-14
5.45724e-14
5.43656e-14
5.45644e-14
5.43682e-14
5.45374e-14
5.43688e-14
5.45514e-14
5.43674e-14
5.45661e-14
5.43637e-14
5.45614e-14
5.43578e-14
5.45576e-14
5.43498e-14
5.45651e-14
5.43498e-14
5.45736e-14
5.43475e-14
5.45833e-14
5.43429e-14
5.45633e-14
5.43465e-14
5.45546e-14
5.43583e-14
5.45571e-14
5.43579e-14
5.45603e-14
5.43559e-14
5.45644e-14
5.43623e-14
5.45382e-14
5.43777e-14
5.45125e-14
5.43816e-14
5.45282e-14
5.43845e-14
5.45338e-14
5.43965e-14
5.45087e-14
5.43975e-14
5.44938e-14
5.43978e-14
5.44891e-14
5.43975e-14
5.44894e-14
5.44069e-14
5.44844e-14
5.44055e-14
5.44896e-14
5.44087e-14
5.44895e-14
5.44166e-14
5.44893e-14
5.44137e-14
5.44891e-14
5.44104e-14
5.44992e-14
5.44221e-14
5.44939e-14
5.44386e-14
5.44731e-14
5.4424e-14
5.44675e-14
5.44143e-14
5.4472e-14
5.44147e-14
5.44714e-14
5.44097e-14
5.44758e-14
5.43993e-14
5.44647e-14
5.43886e-14
5.4474e-14
5.43878e-14
5.44886e-14
5.43918e-14
5.44775e-14
5.43851e-14
5.44665e-14
5.43731e-14
5.44759e-14
5.43658e-14
5.44957e-14
5.4358e-14
5.45208e-14
5.43496e-14
5.45307e-14
5.43354e-14
5.4536e-14
5.43308e-14
5.45416e-14
5.43305e-14
5.45324e-14
5.43244e-14
5.45388e-14
5.43175e-14
5.45406e-14
5.43099e-14
5.45428e-14
5.43116e-14
5.45354e-14
5.42974e-14
5.45334e-14
5.42926e-14
5.45368e-14
5.42869e-14
5.45357e-14
5.42755e-14
5.4525e-14
5.42683e-14
5.45197e-14
5.42602e-14
5.45299e-14
5.42614e-14
5.45305e-14
5.42617e-14
5.45316e-14
5.42613e-14
5.45381e-14
5.426e-14
5.45449e-14
5.4263e-14
5.45374e-14
5.42627e-14
5.45328e-14
5.42667e-14
5.45286e-14
5.42724e-14
5.45273e-14
5.42775e-14
5.45213e-14
5.4265e-14
5.45206e-14
5.42592e-14
5.45177e-14
5.42552e-14
5.452e-14
5.42532e-14
5.45227e-14
5.42578e-14
5.45328e-14
5.4257e-14
5.45312e-14
5.4251e-14
5.45228e-14
5.42493e-14
5.45195e-14
5.42494e-14
5.45189e-14
5.42514e-14
5.45256e-14
5.42459e-14
5.45302e-14
5.424e-14
5.45304e-14
5.42383e-14
5.45309e-14
5.42385e-14
5.4534e-14
5.42336e-14
5.45281e-14
5.42306e-14
5.45224e-14
5.42272e-14
5.45308e-14
5.4228e-14
5.45394e-14
5.42238e-14
5.45391e-14
5.42192e-14
5.45391e-14
5.42188e-14
5.45416e-14
5.4218e-14
5.45398e-14
5.42212e-14
5.45315e-14
5.42241e-14
5.45279e-14
5.42267e-14
5.4529e-14
5.42311e-14
5.45302e-14
5.42352e-14
5.45294e-14
5.42368e-14
5.45287e-14
5.42424e-14
5.45261e-14
5.42477e-14
5.45236e-14
5.42527e-14
5.45234e-14
5.42554e-14
5.45255e-14
5.42578e-14
5.45277e-14
5.42589e-14
5.45268e-14
5.42629e-14
5.4524e-14
5.42657e-14
5.45233e-14
5.42672e-14
5.45249e-14
5.42695e-14
5.45234e-14
5.42696e-14
5.45211e-14
5.42705e-14
5.45188e-14
5.42712e-14
5.45217e-14
5.42698e-14
5.45266e-14
5.42712e-14
5.45295e-14
5.42724e-14
5.45306e-14
5.42744e-14
5.45317e-14
5.42762e-14
5.45329e-14
5.42798e-14
5.45333e-14
5.42832e-14
5.45356e-14
5.42874e-14
5.4536e-14
5.42905e-14
5.45375e-14
5.42934e-14
5.45362e-14
5.42962e-14
5.45387e-14
5.42971e-14
5.45412e-14
5.42987e-14
5.45392e-14
5.43011e-14
5.45383e-14
5.43042e-14
5.45391e-14
5.43055e-14
5.45417e-14
5.43066e-14
5.45435e-14
5.43077e-14
5.45436e-14
5.43095e-14
5.4542e-14
5.4312e-14
5.45431e-14
5.43136e-14
5.45433e-14
5.43151e-14
5.45419e-14
5.43156e-14
5.45414e-14
5.43185e-14
5.4541e-14
5.43198e-14
5.45437e-14
5.43201e-14
5.45464e-14
5.43215e-14
5.45476e-14
5.43218e-14
5.45469e-14
5.43227e-14
5.45474e-14
5.43235e-14
5.45494e-14
5.43242e-14
5.45514e-14
5.43249e-14
5.45533e-14
5.43259e-14
5.45543e-14
5.43257e-14
5.45545e-14
5.43262e-14
5.45548e-14
5.43273e-14
5.45564e-14
5.43287e-14
5.45578e-14
5.433e-14
5.45588e-14
5.43306e-14
5.45598e-14
5.43314e-14
5.45605e-14
5.43326e-14
5.45603e-14
5.43336e-14
5.45607e-14
5.43343e-14
5.45617e-14
5.43349e-14
5.45625e-14
5.43352e-14
5.45633e-14
5.43352e-14
5.45637e-14
5.43359e-14
5.45645e-14
5.43367e-14
5.4565e-14
5.43374e-14
5.45647e-14
5.4338e-14
5.45653e-14
5.43383e-14
5.45664e-14
5.43389e-14
5.45677e-14
5.43397e-14
5.45683e-14
5.43404e-14
5.45685e-14
5.43407e-14
5.45687e-14
5.43415e-14
5.45691e-14
5.43421e-14
5.45693e-14
5.43429e-14
5.45693e-14
5.43437e-14
5.45699e-14
5.43444e-14
5.45703e-14
5.43451e-14
5.45704e-14
5.43458e-14
5.45702e-14
5.43466e-14
5.45702e-14
5.4347e-14
5.45702e-14
5.43475e-14
5.45701e-14
5.43481e-14
5.457e-14
5.43488e-14
5.457e-14
5.43491e-14
5.45699e-14
5.43495e-14
5.45697e-14
5.43499e-14
5.45697e-14
5.43502e-14
5.45698e-14
5.43503e-14
5.45698e-14
5.43504e-14
5.45698e-14
5.43507e-14
5.457e-14
5.4351e-14
5.45699e-14
5.43512e-14
5.45698e-14
5.43513e-14
5.45699e-14
5.43514e-14
5.45698e-14
5.43516e-14
5.45697e-14
5.43518e-14
5.45696e-14
5.43519e-14
5.45693e-14
5.4352e-14
5.45692e-14
5.43522e-14
5.45692e-14
5.43524e-14
5.45692e-14
5.43526e-14
5.45691e-14
5.43527e-14
5.45691e-14
5.43528e-14
5.45691e-14
5.43531e-14
5.4569e-14
5.43534e-14
5.45688e-14
5.43536e-14
5.45686e-14
5.43539e-14
5.45686e-14
5.43541e-14
5.45686e-14
5.43545e-14
5.45686e-14
5.43547e-14
5.45687e-14
5.43549e-14
5.45688e-14
5.43551e-14
5.45688e-14
5.43554e-14
5.45688e-14
5.43556e-14
5.45688e-14
5.43558e-14
5.45688e-14
5.43559e-14
5.45689e-14
5.43561e-14
5.45689e-14
5.43562e-14
5.45689e-14
5.43564e-14
5.4569e-14
5.43565e-14
5.4569e-14
5.43566e-14
5.4569e-14
5.43566e-14
5.4569e-14
5.43567e-14
5.4569e-14
5.43567e-14
5.4569e-14
5.43568e-14
5.4569e-14
5.43568e-14
5.4569e-14
5.43568e-14
5.4569e-14
5.43569e-14
5.4569e-14
5.43569e-14
5.4569e-14
5.43569e-14
5.45691e-14
5.43569e-14
5.45691e-14
5.43569e-14
5.45691e-14
5.25214e-14
5.25695e-14
5.25456e-14
5.25846e-14
5.25766e-14
5.25952e-14
5.25919e-14
5.25962e-14
5.25914e-14
5.25817e-14
5.26506e-14
5.25963e-14
5.2654e-14
5.26572e-14
5.26675e-14
5.27003e-14
5.26872e-14
5.27045e-14
5.27129e-14
5.27165e-14
5.27451e-14
5.27067e-14
5.27926e-14
5.27202e-14
5.27545e-14
5.27556e-14
5.27723e-14
5.2796e-14
5.27925e-14
5.28172e-14
5.27636e-14
5.282e-14
5.27844e-14
5.28345e-14
5.28036e-14
5.28065e-14
5.2826e-14
5.27842e-14
5.2885e-14
5.27896e-14
5.28498e-14
5.28183e-14
5.28516e-14
5.28201e-14
5.28608e-14
5.28212e-14
5.28183e-14
5.28478e-14
5.2832e-14
5.28758e-14
5.28732e-14
5.29067e-14
5.28835e-14
5.29408e-14
5.28598e-14
5.29503e-14
5.29172e-14
5.29957e-14
5.29683e-14
5.30464e-14
5.2983e-14
5.30426e-14
5.29936e-14
5.30755e-14
5.30589e-14
5.30869e-14
5.30291e-14
5.31341e-14
5.30697e-14
5.31593e-14
5.3167e-14
5.31758e-14
5.31869e-14
5.31929e-14
5.31457e-14
5.3226e-14
5.31977e-14
5.32473e-14
5.32333e-14
5.32718e-14
5.32526e-14
5.33319e-14
5.32379e-14
5.33655e-14
5.33007e-14
5.34075e-14
5.33769e-14
5.34406e-14
5.33715e-14
5.35125e-14
5.33786e-14
5.35439e-14
5.34467e-14
5.35351e-14
5.34792e-14
5.35332e-14
5.35281e-14
5.35872e-14
5.35926e-14
5.36639e-14
5.36036e-14
5.37118e-14
5.36451e-14
5.36806e-14
5.3668e-14
5.37577e-14
5.3688e-14
5.38416e-14
5.37371e-14
5.38285e-14
5.37657e-14
5.38388e-14
5.37919e-14
5.38539e-14
5.38342e-14
5.38721e-14
5.38576e-14
5.3857e-14
5.38812e-14
5.38965e-14
5.38864e-14
5.39561e-14
5.39072e-14
5.40381e-14
5.39231e-14
5.41276e-14
5.39693e-14
5.41725e-14
5.39735e-14
5.42273e-14
5.39896e-14
5.4219e-14
5.4e-14
5.41832e-14
5.40247e-14
5.42108e-14
5.40268e-14
5.43019e-14
5.40415e-14
5.43653e-14
5.40115e-14
5.43831e-14
5.40481e-14
5.43173e-14
5.40973e-14
5.43156e-14
5.41416e-14
5.43386e-14
5.41624e-14
5.43479e-14
5.41794e-14
5.43619e-14
5.42118e-14
5.43992e-14
5.42406e-14
5.44117e-14
5.42468e-14
5.43991e-14
5.42505e-14
5.43996e-14
5.42903e-14
5.44127e-14
5.4338e-14
5.44475e-14
5.43549e-14
5.44844e-14
5.43699e-14
5.44748e-14
5.43738e-14
5.44868e-14
5.43763e-14
5.45104e-14
5.43671e-14
5.4556e-14
5.43554e-14
5.45951e-14
5.43605e-14
5.45885e-14
5.43727e-14
5.45657e-14
5.43829e-14
5.45854e-14
5.43909e-14
5.46181e-14
5.44066e-14
5.46341e-14
5.44201e-14
5.46331e-14
5.44418e-14
5.46451e-14
5.44517e-14
5.46801e-14
5.44497e-14
5.46982e-14
5.44456e-14
5.47195e-14
5.44391e-14
5.47342e-14
5.44402e-14
5.47629e-14
5.44487e-14
5.47756e-14
5.44647e-14
5.47618e-14
5.4458e-14
5.47414e-14
5.44493e-14
5.47243e-14
5.4459e-14
5.47307e-14
5.44567e-14
5.47503e-14
5.44627e-14
5.47627e-14
5.44668e-14
5.47475e-14
5.44693e-14
5.47248e-14
5.44703e-14
5.47355e-14
5.44595e-14
5.47487e-14
5.4447e-14
5.47646e-14
5.4443e-14
5.47627e-14
5.44474e-14
5.47329e-14
5.44502e-14
5.47365e-14
5.44411e-14
5.47631e-14
5.44406e-14
5.47615e-14
5.44383e-14
5.47315e-14
5.44344e-14
5.47245e-14
5.44342e-14
5.47198e-14
5.44428e-14
5.4707e-14
5.4445e-14
5.46909e-14
5.44616e-14
5.46766e-14
5.44462e-14
5.46638e-14
5.4435e-14
5.46474e-14
5.44487e-14
5.46374e-14
5.44462e-14
5.46544e-14
5.44427e-14
5.46573e-14
5.44384e-14
5.46408e-14
5.44333e-14
5.46203e-14
5.44274e-14
5.46267e-14
5.44156e-14
5.46393e-14
5.44236e-14
5.46377e-14
5.44103e-14
5.4632e-14
5.44116e-14
5.46428e-14
5.44122e-14
5.46496e-14
5.44119e-14
5.46369e-14
5.4411e-14
5.46304e-14
5.44197e-14
5.46351e-14
5.44329e-14
5.46509e-14
5.44353e-14
5.46573e-14
5.44474e-14
5.46492e-14
5.44489e-14
5.4647e-14
5.44551e-14
5.46404e-14
5.4466e-14
5.46396e-14
5.44766e-14
5.46444e-14
5.4487e-14
5.46497e-14
5.44871e-14
5.46606e-14
5.44971e-14
5.46519e-14
5.45119e-14
5.46337e-14
5.45167e-14
5.46208e-14
5.45265e-14
5.46234e-14
5.45363e-14
5.46213e-14
5.45462e-14
5.46095e-14
5.45462e-14
5.46078e-14
5.45564e-14
5.46164e-14
5.45518e-14
5.46201e-14
5.45474e-14
5.46191e-14
5.45431e-14
5.46133e-14
5.4539e-14
5.46176e-14
5.45374e-14
5.46221e-14
5.45335e-14
5.46219e-14
5.45296e-14
5.46171e-14
5.45234e-14
5.461e-14
5.45221e-14
5.46153e-14
5.45136e-14
5.46159e-14
5.451e-14
5.46095e-14
5.44993e-14
5.46034e-14
5.44981e-14
5.4595e-14
5.45019e-14
5.45916e-14
5.44984e-14
5.45884e-14
5.44903e-14
5.45877e-14
5.44894e-14
5.45896e-14
5.44885e-14
5.45963e-14
5.44876e-14
5.46078e-14
5.44867e-14
5.46101e-14
5.44881e-14
5.46102e-14
5.44942e-14
5.46083e-14
5.45002e-14
5.4611e-14
5.44971e-14
5.46185e-14
5.4494e-14
5.46216e-14
5.44909e-14
5.46203e-14
5.44901e-14
5.46236e-14
5.44848e-14
5.46338e-14
5.44818e-14
5.46442e-14
5.44765e-14
5.46502e-14
5.44712e-14
5.46564e-14
5.44659e-14
5.46627e-14
5.44627e-14
5.46648e-14
5.44595e-14
5.46606e-14
5.44606e-14
5.46543e-14
5.44681e-14
5.46548e-14
5.44691e-14
5.46598e-14
5.447e-14
5.46627e-14
5.44666e-14
5.46658e-14
5.44674e-14
5.46669e-14
5.44671e-14
5.46651e-14
5.44678e-14
5.46655e-14
5.44674e-14
5.46691e-14
5.4468e-14
5.46718e-14
5.44695e-14
5.46717e-14
5.44709e-14
5.46747e-14
5.44713e-14
5.46768e-14
5.44736e-14
5.4677e-14
5.44739e-14
5.46764e-14
5.44732e-14
5.46779e-14
5.44734e-14
5.46785e-14
5.44754e-14
5.46773e-14
5.44736e-14
5.46791e-14
5.44727e-14
5.4681e-14
5.44699e-14
5.46839e-14
5.44689e-14
5.46851e-14
5.44698e-14
5.46845e-14
5.44706e-14
5.4684e-14
5.44713e-14
5.46864e-14
5.4472e-14
5.46879e-14
5.44726e-14
5.46887e-14
5.44732e-14
5.46886e-14
5.44737e-14
5.46886e-14
5.44742e-14
5.46896e-14
5.44738e-14
5.46915e-14
5.44751e-14
5.46935e-14
5.44754e-14
5.4693e-14
5.44766e-14
5.46934e-14
5.44752e-14
5.46939e-14
5.44754e-14
5.46945e-14
5.44757e-14
5.4696e-14
5.44758e-14
5.46975e-14
5.44775e-14
5.46975e-14
5.44792e-14
5.46975e-14
5.44804e-14
5.46977e-14
5.44808e-14
5.46956e-14
5.44808e-14
5.46936e-14
5.44815e-14
5.46924e-14
5.44829e-14
5.4692e-14
5.44832e-14
5.46917e-14
5.44842e-14
5.46911e-14
5.44851e-14
5.46885e-14
5.4486e-14
5.46869e-14
5.44865e-14
5.46875e-14
5.44867e-14
5.46878e-14
5.44875e-14
5.46864e-14
5.44879e-14
5.46852e-14
5.4488e-14
5.46846e-14
5.44881e-14
5.46837e-14
5.44879e-14
5.46817e-14
5.44888e-14
5.46797e-14
5.44888e-14
5.46787e-14
5.44886e-14
5.46777e-14
5.44891e-14
5.46759e-14
5.449e-14
5.46745e-14
5.44914e-14
5.46731e-14
5.44928e-14
5.46714e-14
5.44936e-14
5.46701e-14
5.44938e-14
5.46697e-14
5.44942e-14
5.46687e-14
5.44947e-14
5.46673e-14
5.44953e-14
5.46657e-14
5.4496e-14
5.46644e-14
5.44962e-14
5.46635e-14
5.44961e-14
5.46628e-14
5.44964e-14
5.46616e-14
5.44961e-14
5.46606e-14
5.44964e-14
5.46599e-14