/*--------------------------------*- C++ -*----------------------------------*\
| =========                 |                                                 |
| \\      /  F ield         | OpenFOAM: The Open Source CFD Toolbox           |
|  \\    /   O peration     | Version:  2012                                  |
|   \\  /    A nd           | Website:  www.openfoam.com                      |
|    \\/     M anipulation  |                                                 |
\*---------------------------------------------------------------------------*/
FoamFile
{
    version     2.0;
    format      ascii;
    class       volTensorField;
    location    "13300";
    object      grad(U);
}
// * * * * * * * * * * * * * * * * * * * * * * * * * * * * * * * * * * * * * //

dimensions      [0 0 -1 0 0 0 0];


internalField   nonuniform List<tensor> 
2560
(
(0 -1.36485e-14 1.72749e-13 501.398 0 3.08171 0.726632 -5.42101e-20 0.00596141)
(0 0 1.14289e-18 500.822 0.0332648 0.000257933 0.726632 -0.000379447 -0.00594701)
(0 1.67216e-19 0 499.841 -0.00552556 -8.88199e-21 2.18537 6.73494e-05 0)
(-2.88386e-16 -1.32013e-19 0 499.282 0.142626 -0.000169733 2.18537 6.66601e-05 -0.00817275)
(-9.34156e-17 -1.69157e-19 2.22073e-18 498.469 -0.0771688 -1.90818 2.98819 2.75012e-05 0.00515348)
(0 3.03615e-19 -3.33109e-18 497.943 0.0540463 -6.10953e-05 2.98515 2.65116e-05 -0.00514125)
(1.41649e-15 -2.7094e-19 1.09445e-18 497.098 -0.0376173 -1.26902 3.02335 -1.02693e-06 0.00250911)
(-1.12072e-15 2.7094e-19 -1.09445e-18 496.618 0.0286381 -1.62509e-05 3.02057 -2.39854e-06 -0.00250316)
(1.10465e-15 -4.74395e-19 1.34845e-18 495.752 -0.0152614 -0.55148 3.05908 8.40745e-07 0.0013276)
(-1.10465e-15 5.42114e-19 -1.07876e-18 495.323 0.0156857 -4.09392e-06 3.05659 -3.91477e-07 -0.00132445)
(1.79667e-15 -2.03263e-19 2.65825e-19 494.317 -0.00967059 -0.242497 3.09392 3.84053e-07 0.000822541)
(5.66527e-15 2.71017e-19 -2.65825e-19 493.941 0.00985445 -7.2892e-07 3.09173 -1.1059e-06 -0.000820589)
(-9.17897e-16 -1.35486e-19 1.31008e-19 492.598 -0.00695863 -0.122862 3.12682 1.50768e-06 0.000574877)
(3.67264e-15 2.71035e-19 -2.62015e-19 492.274 0.0067569 -1.8715e-07 3.12492 2.39357e-07 -0.000573513)
(-3.24618e-15 3.38714e-19 -1.2913e-19 490.515 -0.0051268 -0.0708427 3.15769 -2.16659e-07 0.000435448)
(4.52295e-15 -2.71123e-19 6.4565e-20 490.242 0.00529911 -1.35309e-07 3.15608 -1.8292e-06 -0.000434414)
(3.43053e-15 -2.03349e-19 6.36396e-20 488.285 -0.00424763 -0.0449175 3.18921 2.13579e-06 0.000348353)
(0 2.7109e-19 -6.36396e-20 488.06 0.0040848 -2.78366e-08 3.18789 8.48286e-07 -0.000347527)
(0 2.03129e-19 -6.27275e-20 486.345 -0.00340088 -0.0305008 3.22441 -7.46279e-07 0.000234638)
(0 -1.35501e-19 0 486.164 0.00354671 -9.94673e-09 3.22336 -2.43711e-06 -0.000289007)
(-3.80612e-15 -6.09832e-19 1.12438e-19 484.768 -0.00301942 -0.0217896 3.26138 2.69122e-06 0.000167085)
(0 6.77698e-19 -1.54571e-19 484.628 0.00288431 -1.09791e-08 3.26058 1.40565e-06 -0.000247334)
(3.99795e-15 -9.48415e-19 2.56644e-19 483.417 -0.00260208 -0.0161806 3.3004 -1.21839e-06 0.000124119)
(-1.99696e-15 8.80807e-19 -1.82827e-19 483.315 0.00266028 -1.28489e-07 3.29982 -2.96803e-06 -0.000216379)
(3.93667e-15 -2.71014e-19 9.01033e-20 482.407 -0.00220526 -0.0124152 3.34291 2.9672e-06 9.52949e-05)
(0 4.7445e-19 -9.01033e-20 482.339 0.0403673 0.000139552 3.34255 1.64475e-06 -0.000192611)
(-6.33029e-15 3.40445e-19 -4.3229e-20 481.624 -0.00255284 -0.00970732 3.38606 0.000131073 7.55258e-05)
(9.80026e-15 2.40741e-34 0 481.585 -1.388e-17 1.83451e-06 3.38589 0 -0.000173291)
(0 -3.49591e-17 -1.16719e-19 480.63 9.04592e-21 -0.00780057 3.42665 0 5.99808e-05)
(0 -5.54413e-19 1.16719e-19 480.617 0.12337 0.000212156 3.42664 -0.000262075 -0.000158816)
(-2.9121e-15 1.15046e-19 -1.31563e-20 479.086 -0.00321934 -0.00629454 3.46288 0.000573891 5.05155e-05)
(1.16483e-14 -4.81482e-35 0 479.095 -2.20762e-17 6.15484e-06 3.46303 -5.50947e-35 -0.000144968)
(0 -1.99426e-17 -1.70095e-19 476.891 3.4292e-17 -0.0051146 3.49478 0 3.99237e-05)
(-1.25917e-14 1.98387e-15 1.70095e-19 476.92 0.0814136 -0.000244607 3.49505 -0.000296938 -0.000136256)
(0 1.5648e-18 -8.38287e-20 474.46 -0.00250648 -0.00431174 3.52808 0.000940374 3.46557e-05)
(-1.35432e-14 -3.9079e-19 8.38287e-20 474.504 -3.52196e-17 2.13491e-06 3.52845 0 -0.000127249)
(3.61004e-15 -2.20339e-19 5.50848e-20 472.784 -0.000121088 -0.00362787 3.57179 -0.000126616 2.91236e-05)
(0 1.25516e-29 -6.8856e-20 472.839 3.79519e-17 -4.50008e-06 3.57225 2.1684e-19 -0.000120346)
(3.86447e-15 1.30309e-18 -5.557e-20 472.65 -0.00274665 -0.00307932 3.62938 0.00106705 2.53269e-05)
(-1.54576e-14 -5.91383e-19 9.50168e-20 472.714 -3.69614e-20 8.85778e-07 3.6299 2.1684e-19 -0.00011368)
(-7.01459e-15 0 -1.07034e-19 473.93 0.000180244 -0.00263174 3.69635 -0.000541245 2.15589e-05)
(7.01459e-15 3.19475e-19 1.07034e-19 474.001 3.81439e-17 -5.50721e-06 3.69693 0 -0.000108654)
(-4.35382e-15 -4.22001e-19 -1.17548e-20 475.875 -0.00275285 -0.00226422 3.76641 0.00119284 1.91006e-05)
(0 -1.54074e-33 -2.6375e-20 475.95 -4.1592e-17 -6.82088e-08 3.76702 2.34257e-34 -0.000103556)
(2.20955e-15 -1.62865e-19 1.31373e-19 477.888 0.000736389 -0.00202138 3.83689 -0.000949059 1.63854e-05)
(0 0 -1.42984e-19 477.966 -1.44312e-35 0.000270437 3.83752 2.1684e-19 -9.98092e-05)
(0 1.63996e-18 -6.4061e-20 479.839 -0.00317339 -0.00169527 3.90847 0.00158617 1.57685e-05)
(-1.94466e-14 -6.59675e-19 8.96854e-20 479.919 -5.4973e-20 5.10844e-06 3.90912 2.1684e-19 -9.44479e-05)
(5.12274e-15 -4.04114e-19 -6.44403e-20 481.827 0.0010154 -0.00149251 3.98207 -0.00193472 1.15636e-05)
(0 0 7.57714e-20 481.907 3.64376e-32 0.00011935 3.98273 3.7292e-35 -9.29926e-05)
(-1.07773e-14 3.18658e-18 -1.20443e-19 483.882 -0.00368611 -0.00127363 4.05735 0.00234185 1.2886e-05)
(0 0 9.95806e-20 483.961 -7.81934e-17 1.04526e-05 4.058 -4.33681e-19 -8.78371e-05)
(2.98442e-14 2.35568e-18 1.31325e-19 485.908 0.00157835 -0.00102611 4.13312 -0.00280291 8.23955e-06)
(3.24115e-14 0 -9.81533e-20 485.985 9.71445e-17 -0.000300845 4.13376 -4.04039e-30 -8.77086e-05)
(0 -3.09589e-18 8.46532e-20 487.769 -0.00401649 -0.000959921 4.20825 0.00289219 9.06126e-06)
(2.37439e-14 0 -8.46532e-20 487.843 -9.38331e-17 6.33086e-06 4.20887 0 -8.47723e-05)
(6.21774e-15 -7.62879e-19 -2.51494e-20 489.409 0.00229078 -0.000836994 4.28286 -0.00305045 7.34092e-06)
(0 4.2356e-19 1.192e-20 489.48 1.0589e-19 2.25141e-06 4.28346 -4.33681e-19 -8.36009e-05)
(-1.30085e-14 0 -4.4078e-20 491.009 -0.00453621 -0.000730525 4.35989 0.0031458 7.1786e-06)
(-5.20334e-14 -4.3633e-18 2.34983e-20 491.075 1.09082e-19 1.73891e-06 4.36045 0 -8.11322e-05)
(-1.89382e-14 -1.11175e-18 -4.51395e-20 493.101 0.00302687 -0.00063881 4.44595 -0.00330905 5.66837e-06)
(-2.71791e-14 2.29725e-18 1.15807e-20 493.163 1.03969e-16 -1.04333e-05 4.44647 0 -8.03995e-05)
(0 4.38327e-18 -1.02733e-19 496.508 -0.00521448 -0.000560489 4.54977 0.00340694 5.73925e-06)
(-2.83556e-14 -1.41771e-18 1.02733e-19 496.564 -3.3513e-18 -1.62248e-06 4.55025 -4.33681e-19 -7.83246e-05)
(0 2.16022e-18 9.00093e-20 502.034 0.00392708 -0.000490536 4.67848 -0.0035704 4.4052e-06)
(2.95471e-14 0 -9.00093e-20 502.083 -1.23931e-19 -1.28176e-05 4.67891 -4.33681e-19 -7.78866e-05)
(-7.68985e-15 0 -9.94942e-21 510.085 -0.00606276 -0.000429541 4.83428 0.00367033 4.61228e-06)
(0 -9.62965e-35 -2.21798e-20 510.129 -1.09211e-16 -1.09422e-06 4.83467 -4.33681e-19 -7.61257e-05)
(-8.00043e-15 -2.09874e-18 -5.38122e-20 520.478 0.00489237 -0.000451681 5.01357 -0.0038325 3.38859e-06)
(0 0 4.37238e-20 520.517 -1.33025e-19 0.000328428 5.01392 7.38436e-35 -7.59056e-05)
(-8.3213e-15 3.44777e-18 -6.32283e-20 532.5 -0.00717688 -0.0003163 5.20832 0.00426075 5.16929e-06)
(-4.45827e-14 -2.36423e-18 3.23229e-20 532.535 -4.43293e-19 6.61364e-06 5.20863 0 -7.24171e-05)
(8.65492e-15 1.35934e-18 2.80166e-17 545.152 0.00593575 -0.000178828 5.40859 -0.00475621 8.70556e-07)
(0 -1.73334e-33 -3.18596e-20 545.183 5.55112e-17 0.00102995 5.40888 -1.88647e-34 -7.43997e-05)
(9.00295e-15 -5.35944e-18 3.91734e-20 557.426 -0.00833751 -0.000205017 5.60512 0.00618364 9.04012e-06)
(0 -7.70372e-34 -3.1403e-20 557.454 0 2.12806e-05 5.60539 8.67362e-19 -6.48607e-05)
(-9.36601e-15 -1.32066e-18 -1.71057e-49 568.551 0.00702338 -2.03288e-18 5.79163 -0.00771049 1.90434e-49)
(-1.08188e-14 1.07028e-18 1.03176e-20 568.577 2.22312e-16 0.000421875 5.79189 0 -7.34157e-05)
(0 6.50864e-18 -5.08488e-20 578.221 -0.00933985 -9.72572e-05 5.96737 0.0095181 9.98558e-06)
(0 -1.32066e-18 7.11883e-20 578.245 -5.55112e-16 2.70222e-05 5.96761 1.73472e-18 -6.14048e-05)
(-1.01337e-14 -1.28307e-18 2.48141e-18 586.793 0.00797084 1.96512e-18 6.13943 -0.0114742 0)
(3.00238e-14 0 0 586.815 -7.96305e-19 -0.000327833 6.13964 -1.73472e-18 -7.29563e-05)
(0 -1.26468e-17 5.92819e-20 595.399 -0.0100995 -4.83625e-06 6.32359 0.0129276 7.29128e-06)
(4.21366e-14 0 -5.92819e-20 595.417 -7.78053e-16 2.19362e-05 6.32377 1.73472e-18 -6.31843e-05)
(1.09427e-14 -4.98622e-18 1.71259e-17 605.801 0.00875084 3.82689e-18 6.54178 -0.0145679 0)
(-4.37706e-14 8.08778e-18 5.84323e-20 605.816 5.55112e-17 -0.000721207 6.5419 0 -7.29588e-05)
(1.13587e-14 -9.82951e-18 4.72879e-20 619.92 -0.0106925 6.50276e-05 6.8152 0.0152999 4.16674e-06)
(0 0 -3.83965e-20 619.93 -3.60822e-16 1.1285e-05 6.81528 1.36412e-33 -6.80701e-05)
(-1.17843e-14 2.42216e-18 4.36348e-18 639.12 0.00939928 -5.09923e-21 7.15609 -0.0162316 0)
(0 1.54074e-33 -3.78462e-20 639.125 4.12298e-16 -0.000313635 7.15613 1.00843e-33 -7.33224e-05)
(-7.33348e-15 7.16232e-18 -1.85716e-20 663.629 -0.0113176 0.000117538 7.56227 0.0166609 3.05726e-06)
(4.88978e-14 -2.77334e-32 9.32594e-21 663.632 -4.02456e-16 6.62808e-06 7.56229 0 -7.06709e-05)
(1.92776e-14 4.70645e-18 5.021e-18 692.414 0.0100829 1.82959e-18 8.01798 -0.0172905 0)
(5.07438e-14 0 -3.67691e-20 692.415 8.46545e-16 0.000169882 8.018 -5.2769e-33 -7.39805e-05)
(-1.31755e-14 0 -9.12956e-21 723.523 -0.0120231 0.000165409 8.499 0.0178952 4.61532e-06)
(0 -7.70372e-34 -1.81211e-20 723.527 0 8.96792e-06 8.49905 0 -7.02356e-05)
(-1.36983e-14 0 0 754.763 0.0108045 0 8.98149 -0.0187056 0)
(0 3.08149e-32 -1.78613e-20 754.771 4.48474e-16 0.00312355 8.98162 6.34562e-34 -7.49338e-05)
(0 -4.50697e-18 3.52107e-20 784.23 -0.0119761 0.000229501 9.44524 0.0223758 2.3515e-05)
(0 4.62223e-32 -3.52107e-20 784.246 -6.69239e-16 5.36079e-05 9.44549 1.25093e-33 -4.86677e-05)
(-3.30502e-14 8.88474e-18 1.11472e-17 810.085 0.0111649 -1.78362e-18 9.8653 -0.0263302 0)
(0 1.54074e-33 -1.7353e-20 810.114 -6.16503e-34 -0.000645397 9.86574 -3.46945e-18 -7.63555e-05)
(-1.79352e-14 2.18935e-17 -6.84172e-20 829.563 -0.0110811 0.000349002 10.1963 0.0292785 2.10248e-05)
(-4.40361e-14 -2.03147e-17 5.13129e-20 829.609 -5.57143e-16 9.72711e-05 10.197 -3.46945e-18 -5.50155e-05)
(-1.61786e-14 2.15797e-17 9.43033e-18 837.646 0.0101182 0.000596219 10.354 -0.0325296 3.65663e-06)
(4.70356e-14 -6.31089e-30 -5.05774e-20 837.716 1.43878e-15 -0.00189721 10.3551 -1.26064e-29 -7.81973e-05)
(-1.74247e-14 2.55245e-17 -6.64701e-20 825.904 -0.00994905 0.000623195 10.2007 0.033337 1.19136e-05)
(1.74247e-14 0 6.64701e-20 826.007 -8.46467e-31 0.000195891 10.2022 -6.42011e-34 -7.26438e-05)
(-1.77176e-14 -1.67724e-17 -2.65035e-20 782.053 0.00695051 0.000796479 9.54201 -0.0344042 8.17112e-06)
(7.08693e-14 0 1.63793e-20 782.197 7.56381e-16 0.000872524 9.54413 0 -8.09542e-05)
(5.40743e-14 -1.65321e-17 3.01099e-20 691.07 -0.00942108 0.00116967 8.15171 0.0354887 2.18925e-05)
(5.73606e-14 -4.93038e-32 -1.61446e-20 691.263 -7.19183e-16 0.00034538 8.15456 1.00562e-32 -7.20373e-05)
(0 8.14755e-18 4.77396e-20 538.16 0.00244162 0.00143809 5.81844 -0.0368729 1.54376e-05)
(0 -5.85483e-32 -4.77396e-20 538.41 8.32667e-16 0.00110949 5.82212 -2.2614e-33 -8.63991e-05)
(-2.03387e-14 -8.03078e-18 -5.49333e-21 313.128 -0.00780824 0.00189111 2.41365 0.038306 3.4566e-05)
(0 1.14015e-31 -1.56851e-20 313.441 -1.66799e-15 0.000356329 2.41823 4.45798e-33 -7.39766e-05)
(-3.47268e-13 -3.16627e-17 -6.71107e-20 0.468156 -0.000851779 0.00212735 0.003131 -0.0401753 2.22554e-05)
(0 -6.16298e-33 7.73015e-20 1.77636e-15 -1.93446e-33 0.000598138 -1.43116e-29 3.86892e-33 -9.67681e-05)
(8.61052e-13 0 -5.88467e-21 -300.552 -0.00259583 0.00235186 2.0393 0.0418237 4.17162e-05)
(0 0 -1.52387e-20 -299.742 -2.90197e-18 0.000102798 2.0338 6.93889e-18 -8.3944e-05)
(-1.91752e-14 7.6904e-18 2.66707e-21 -738.273 -0.00205828 0.0023727 7.32575 -0.0440453 2.34856e-05)
(7.67043e-14 6.16298e-33 -4.50609e-20 -737.78 8.87987e-16 -0.000570579 7.31936 5.52779e-33 -0.000112323)
(-1.74767e-14 1.51604e-17 -3.9042e-20 -1133.64 0.0046588 0.00213151 13.0442 0.0455845 3.61512e-05)
(-1.55242e-14 -6.18492e-32 0 -1133.1 -8.91341e-16 -0.000288343 13.037 0 -0.000103937)
(-3.08034e-14 -2.98861e-17 -1.18669e-19 -1491.13 -0.00375967 0.00189956 18.6657 -0.0476881 1.75518e-05)
(-6.16111e-14 2.64732e-17 8.7557e-20 -1490.54 3.30915e-18 -0.00152847 18.6577 0 -0.000129464)
(-2.6146e-14 -3.68222e-17 8.5128e-20 -1776.14 0.0096875 0.00131691 23.6317 0.0488217 2.03348e-05)
(1.04594e-13 0 -8.63021e-20 -1775.52 -9.12546e-16 -0.000521133 23.6231 6.93889e-18 -0.000128027)
(-3.19054e-14 -5.08123e-17 -1.97896e-19 -1964.78 -0.00806027 0.000980354 27.4672 -0.0503678 8.17661e-06)
(-4.25456e-14 1.39804e-17 1.41775e-19 -1964.14 1.92394e-15 -0.00127785 27.4581 6.93889e-18 -0.000142789)
(-8.22997e-15 -5.72388e-17 2.42637e-18 -2047.26 0.011186 2.71051e-18 29.8671 0.0510904 0)
(3.29251e-14 0 -1.39743e-19 -2046.62 9.36902e-16 0.00141339 29.8576 -6.93889e-18 -0.000144396)
(5.97806e-15 1.41046e-17 7.2985e-20 -2027.74 -0.0128043 -7.10541e-05 30.7308 -0.0508526 4.47082e-06)
(0 0 -5.50962e-20 -2027.12 7.05749e-18 0.000360318 30.7213 0 -0.000133182)
(-1.42361e-14 -4.86586e-17 1.96351e-20 -1921.25 0.0110844 1.96351e-20 30.1515 0.0511284 0)
(3.01075e-14 0 -1.35766e-19 -1920.69 9.15934e-16 0.000749895 30.1423 6.93889e-18 -0.00014129)
(7.01604e-15 6.8516e-18 8.02922e-20 -1748.95 -0.0152796 -0.000354071 28.3635 -0.0507135 1.21108e-05)
(8.99197e-15 6.16298e-33 -8.02922e-20 -1748.5 -9.15934e-16 0.000127048 28.3555 -5.80868e-33 -0.000124881)
(-6.91548e-15 6.7534e-18 -3.00927e-36 -1533.3 0.0110128 -6.74075e-34 25.6708 0.0507634 0)
(-3.55422e-15 0 2.63805e-20 -1533.04 2.77556e-17 5.72791e-05 25.665 -6.93889e-18 -0.000137775)
(0 -4.65963e-17 -1.30012e-19 -1294.57 -0.0151445 -0.000286475 20.529 -0.0504277 1.19921e-05)
(0 1.44056e-14 1.30012e-19 -1294.56 -1.7486e-15 -4.36539e-06 20.529 6.93889e-18 -0.000121553)
(0 0 4.87501e-34 -1048.84 0.0107815 -3.45058e-18 11.142 0.0504618 5.23682e-36)
(0 0 0 -1049.14 1.78336e-15 0.00283937 11.1419 0 -0.00013574)
(0 0 -1.89468e-20 -807.65 -0.0122907 -0.0163319 3.61467 -0.00140063 -3.20886e-05)
(0 -5.04871e-29 0 -808.301 8.88178e-16 1.0571e-18 3.61463 -1.11259e-28 2.34788e-33)
(0 1.19521e-18 0 -578.618 0.0109159 -0.000210415 -2.07279 0.00239521 2.70826e-06)
(0 0 0 -579.563 -4.13012e-17 -0.00375174 -2.07282 -5.53096e-34 -2.7086e-06)
(2.07224e-16 -1.69424e-16 0 -366.436 3.29597e-17 -0.000194461 -4.49799 0 -2.74506e-06)
(0 0 4.70198e-38 -367.544 -0.0779466 -4.52089e-20 -4.51756 -0.00113396 -5.28627e-38)
(-2.36547e-13 1.1612e-18 -1.51198e-21 -166.587 0.00957437 -0.000192891 -1.42402 0.00171027 2.10786e-06)
(3.96585e-13 -4.36273e-15 0 -168.915 0 -0.000270091 -1.44392 2.1684e-19 -2.10821e-06)
(-7.67749e-14 -2.82633e-16 0 2.48748e-15 3.9142e-19 -0.0001698 0 2.1684e-19 -2.15092e-06)
(1.41236e-13 3.81518e-19 -2.9846e-22 -1.31861 -0.0559367 -2.9846e-22 -0.0114356 -0.00141241 0)
(0 -1.88025e-19 1.46895e-21 147.257 0.00826258 -0.000165733 -1.36191 0.00118961 1.42528e-06)
(0 7.70372e-34 -1.46895e-21 146.196 -1.40426e-17 -0.000249256 -1.3426 -8.92246e-34 -1.42564e-06)
(-8.15294e-16 -1.1931e-16 1.44789e-21 275.021 7.32091e-19 -0.000143761 -3.83862 -1.0842e-19 -1.46269e-06)
(0 5.55991e-19 -2.02948e-22 274.071 -0.0362288 2.02948e-22 -3.8206 -0.000976933 2.11758e-22)
(0 5.48022e-19 0 381.544 0.0071586 -0.000137803 -3.37672 0.000826413 8.33976e-07)
(0 -1.69266e-15 0 380.757 -1.02939e-17 -0.00020726 -3.3767 0 -8.34364e-07)
(0 -3.04172e-16 0 468.012 7.72472e-19 -0.000116137 0.539103 -1.0842e-19 -8.62489e-07)
(0 -1.80056e-19 -4.78613e-22 467.462 -0.0209568 -2.39306e-22 0.539127 -0.00068601 1.05879e-22)
(1.45388e-15 -4.43688e-19 6.93262e-22 536.159 0.00632404 -0.000105885 5.224 0.000592309 3.49085e-07)
(-1.45388e-15 0 0 535.876 -8.19033e-20 -0.000160026 5.22402 0 6.33836e-08)
(-1.43304e-15 -8.41525e-17 0 588.07 6.93889e-18 -8.3352e-05 10.5368 0 -3.65737e-07)
(0 -6.99726e-19 2.05363e-18 588.018 -0.00998785 1.1919e-05 10.5368 -0.000509467 1.1272e-07)
(5.48252e-16 6.03485e-19 6.73532e-22 625.869 0.00564729 -7.42109e-05 12.3995 0.000457461 5.36926e-09)
(2.19094e-15 -6.95598e-19 -4.14164e-22 625.992 7.06526e-18 8.80431e-06 12.4033 5.42101e-20 2.25997e-07)
(0 -7.36997e-17 0 651.474 -5.20417e-18 -4.90224e-05 12.971 0 -9.41344e-09)
(0 1.69953e-19 3.31939e-22 651.71 -0.00265699 3.66457e-05 12.9765 -0.000412861 1.1541e-06)
(-2.17609e-15 -1.17262e-18 -1.96309e-21 666.415 0.00427745 -9.94258e-06 13.3572 0.000393329 -6.73613e-07)
(8.70095e-15 0 1.92593e-34 666.71 5.4281e-20 2.97314e-22 13.3634 5.42101e-20 0)
(-3.07424e-15 -8.38825e-17 3.22492e-22 671.731 -5.69054e-18 6.88035e-05 13.5656 -5.42101e-20 1.75191e-08)
(-1.7704e-14 -3.30232e-19 -8.73468e-22 672.042 -0.00120676 -3.83344e-06 13.5719 -0.000382078 4.42585e-07)
(4.01173e-15 -3.25499e-19 -6.35741e-22 667.974 0.00295771 8.3525e-05 13.5947 0.0003617 -2.08754e-08)
(1.60436e-14 -9.62965e-35 1.34119e-21 668.274 0 1.09296e-05 13.6006 5.42101e-20 1.49085e-07)
(-4.97722e-15 -7.02398e-17 6.26629e-22 655.3 4.42945e-18 0.000107213 13.4363 0 1.46111e-08)
(1.99059e-14 -1.08281e-18 -4.10216e-22 655.573 -0.00232054 1.09121e-05 13.4417 -0.000336223 3.02162e-07)
(-5.95923e-15 0 0 633.638 0.00247299 0.000125801 13.0797 0.00032022 -2.02068e-08)
(0 -1.13869e-16 0 633.88 3.85901e-18 5.87157e-05 13.0845 0 4.30184e-07)
(-6.94533e-15 -3.02606e-17 0 602.897 3.94401e-18 0.000149032 12.5152 0 1.17847e-08)
(0 2.7274e-19 0 603.106 -0.00206563 0.000110086 12.5193 -0.000297071 -1.11509e-08)
(-7.92156e-15 -7.29685e-19 0 563.174 0.00204334 0.000161287 11.7393 0.000282061 -1.98698e-08)
(3.16842e-14 -1.2326e-32 0 563.355 -3.88064e-20 0.000161586 11.7429 0 2.01813e-08)
(8.87224e-15 -7.96115e-17 0 514.964 -6.54152e-18 0.000170859 10.7595 0 9.01178e-09)
(0 6.05664e-19 0 515.12 -0.00184189 0.000170807 10.7627 -0.000264196 -8.3194e-09)
(0 -1.86557e-19 2.33197e-21 459.291 0.00172386 0.000165657 9.59672 0.000246892 -1.97286e-08)
(0 -8.1852e-34 0 459.427 3.06968e-18 0.000165935 9.59956 -5.42101e-20 2.00359e-08)
(-1.06283e-14 -2.19458e-17 0 397.736 3.23651e-20 0.000154805 8.28554 2.71051e-20 6.3445e-09)
(0 6.61981e-19 0 397.855 -0.00160162 0.000154769 8.28807 -0.000235825 -5.59142e-09)
(1.90052e-14 -1.34123e-18 2.2656e-21 332.375 0.00148983 0.000129259 6.87321 0.000215408 -1.97059e-08)
(9.11918e-14 0 0 332.48 2.60209e-18 0.000129511 6.87546 1.75664e-32 2.00056e-08)
(-1.87328e-14 -1.70653e-17 -2.23313e-21 265.682 0 0.000101021 5.41782 -2.71051e-20 3.85347e-09)
(4.8312e-14 2.5011e-19 0 265.774 -0.00130965 0.000100991 5.41981 -0.000210532 -3.02741e-09)
(-4.95823e-14 1.12697e-18 -2.20112e-21 200.317 0.0013406 6.47824e-05 3.9817 0.00018916 -1.97176e-08)
(-3.2149e-14 -1.0935e-16 0 200.396 -5.17471e-20 6.50058e-05 3.98343 0 2.00021e-08)
(-1.3118e-14 -1.29115e-17 3.72282e-19 138.869 -1.95156e-18 0 2.62676 0 -2.06795e-25)
(-5.2471e-14 -7.28977e-19 -1.46805e-18 138.937 -0.00105149 4.23851e-07 2.62824 -0.000186751 -6.77086e-10)
(0 4.10588e-19 0 83.6639 0.00122672 -9.32047e-07 1.40969 0.000167772 -1.97092e-08)
(0 -2.73725e-19 0 83.7201 1.90578e-18 -7.37512e-07 1.41092 0 1.9967e-08)
(1.31979e-13 -2.15445e-17 5.61215e-19 30.7441 1.95156e-18 -2.61856e-07 0.377031 2.71051e-20 -4.17444e-10)
(-2.25241e-13 -4.72154e-19 0 30.8235 -0.000866048 -1.58878e-23 0.378005 -0.000163925 -1.38597e-40)
(1.57772e-30 1.32968e-18 -4.15524e-21 -1.10827e-12 0.00109522 -4.4749e-05 1.26197e-30 0.000149841 -1.96761e-08)
(1.74283e-14 0 0 -0.0178145 -6.7653e-20 -4.45795e-05 0.000221645 2.71051e-20 1.98937e-08)
(0 -1.83399e-17 0 -28.5488 -1.40946e-18 -5.3493e-05 0.436329 0 -2.19857e-09)
(1.09585e-13 1.9004e-18 0 -28.5254 -0.000738135 -5.35171e-05 0.435612 -0.000142725 3.34958e-09)
(0 -3.39106e-19 0 -45.7007 0.000915914 -5.83737e-05 1.00926 0.000134202 -1.96708e-08)
(1.08389e-13 0 0 -45.6874 1.66269e-18 -5.82217e-05 1.0088 9.63922e-35 1.98282e-08)
(-2.68218e-14 3.85186e-34 0 -52.8727 1.33482e-18 -5.51654e-05 1.33411 1.35525e-20 -3.82505e-09)
(0 0 0 -52.8689 -0.000656482 -5.51793e-05 1.3339 -0.000124637 5.1334e-09)
(-1.33016e-14 0 0 -50.7944 0.000751436 -5.08643e-05 1.41427 0.000119871 -1.97819e-08)
(1.06413e-13 -3.85186e-34 0 -50.799 -1.19262e-18 -5.07199e-05 1.41429 1.35525e-20 1.98542e-08)
(1.3235e-14 -2.03201e-17 0 -40.4843 -1.16304e-18 -4.24281e-05 1.26281 1.35525e-20 -5.40822e-09)
(0 4.17514e-19 0 -40.4962 -0.000595435 -4.24243e-05 1.26304 -0.000109605 6.90742e-09)
(-1.32229e-14 1.21935e-19 0 -23.1466 0.0006285 -3.52787e-05 0.900175 0.000106448 -2.01279e-08)
(0 0 0 -23.1646 3.80742e-35 -3.51315e-05 0.900589 1.35525e-20 2.00806e-08)
(-1.32745e-14 0 0 -0.00671128 0 -2.60604e-05 0.352041 -8.5201e-35 -7.07731e-09)
(5.30976e-14 -6.00936e-19 0 9.94469e-13 -0.000527808 -2.60311e-05 0.352606 -9.681e-05 8.81054e-09)
(-8.55326e-14 6.66364e-19 0 25.1562 0.000545718 -1.83908e-05 1.17593 9.42295e-05 -2.08382e-08)
(5.27384e-14 6.01853e-36 0 25.1078 9.75782e-19 -1.82307e-05 1.17519 0 2.06291e-08)
(-2.62801e-14 -1.20371e-35 0 57.4073 0 -2.81048e-06 2.08403 -1.35525e-20 -8.96815e-09)
(0 -5.83834e-20 0 57.3808 -0.000442176 -1.92866e-06 2.08327 -8.53731e-05 1.09874e-08)
(-1.31528e-14 4.02826e-19 0 88.8894 0.000468231 2.34719e-06 3.03365 8.38497e-05 -2.20485e-08)
(0 -1.53659e-17 -1.79833e-21 88.8636 -7.58942e-19 2.5288e-06 3.03292 0 2.16211e-08)
(1.48693e-14 -7.56935e-18 1.77256e-21 120.107 5.42101e-20 1.59617e-05 3.97931 -1.35525e-20 -1.12027e-08)
(-5.29287e-14 5.38857e-19 0 120.083 -0.000368858 1.60615e-05 3.97866 -7.53275e-05 1.35746e-08)
(1.33843e-14 -5.31134e-19 0 149.453 0.000420223 3.11532e-05 4.87188 7.5117e-05 -2.38738e-08)
(5.35376e-14 0 0 149.433 0 3.13615e-05 4.87136 0 2.31581e-08)
(1.36129e-14 -1.06252e-17 0 175.325 -4.87891e-19 4.88486e-05 5.66055 0 -1.38642e-08)
(-5.44518e-14 6.1996e-19 0 175.31 -0.000351303 4.89877e-05 5.66017 -6.59738e-05 1.66703e-08)
(-1.39175e-14 5.43177e-19 0 196.202 0.000343945 6.51355e-05 6.29554 6.64895e-05 -2.63879e-08)
(5.56703e-14 1.68519e-34 0 196.192 -5.42101e-19 6.53713e-05 6.29533 1.35525e-20 2.52919e-08)
(0 -2.06502e-18 0 210.732 0 8.33366e-05 6.73086 0 -1.69712e-08)
(0 -4.7516e-19 0 210.728 -0.0002931 8.35112e-05 6.73084 -5.82781e-05 2.03158e-08)
(-1.38338e-14 6.72841e-19 -3.29824e-21 217.831 0.000282193 0.000100169 6.92826 5.92785e-05 -2.95888e-08)
(5.89344e-14 2.40741e-35 0 217.833 -2.71051e-20 0.000100427 6.92841 -6.77626e-21 2.79972e-08)
(1.52237e-14 -6.678e-18 0 216.786 -4.33681e-19 0.000118254 6.86109 0 -2.04389e-08)
(0 6.76201e-19 0 216.793 -0.000248025 0.000118454 6.86141 -5.19663e-05 2.44522e-08)
(-2.68802e-14 4.03751e-19 0 207.351 0.000262353 0.0001368 6.51786 5.32035e-05 -3.338e-08)
(-6.29894e-14 -7.37344e-18 0 207.362 -1.335e-20 0.000137067 6.51832 6.77626e-21 3.11427e-08)
(-2.6495e-14 -1.63482e-18 -3.15845e-21 189.789 3.79471e-19 0.000159278 5.9039 0 -2.40666e-08)
(0 2.65309e-19 0 189.805 -0.000193218 0.000159488 5.90447 -4.58305e-05 2.89153e-08)
(-2.61152e-14 5.41693e-19 0 164.895 0.0002624 0.000186305 5.04316 4.86878e-05 -3.75686e-08)
(0 -7.30723e-18 0 164.913 2.39434e-20 0.000186566 5.04381 0 3.44978e-08)
(1.7312e-14 -1.32756e-18 0 133.956 0 0.0002215 3.97668 -6.77626e-21 -2.75548e-08)
(0 -9.51253e-19 0 133.976 -0.000141655 0.000221702 3.97739 -3.92723e-05 3.34453e-08)
(1.77568e-14 5.44424e-19 0 98.6615 0.000248269 0.000264712 2.76018 4.57475e-05 -4.19067e-08)
(0 -6.72765e-18 0 98.6825 -3.52366e-19 0.000264949 2.76091 -6.77626e-21 3.77624e-08)
(-3.62577e-14 0 0 60.967 4.74338e-19 0.000317905 1.45945 4.52705e-36 -3.0555e-08)
(7.25151e-14 1.31174e-19 0 60.9878 -0.000118166 0.000318082 1.46017 -3.27995e-05 3.77444e-08)
(9.77752e-14 0 0 8.19143 0.000184475 0.000377398 0.144117 4.35378e-05 -4.61573e-08)
(0 0 0 8.23021 -1.5007e-34 0.000377598 0.144799 6.77626e-21 4.06431e-08)
(3.14464e-13 -2.75338e-18 0 -0.0262503 -1.89735e-19 0.000441759 0.000468554 3.38813e-21 -3.27615e-08)
(0 -4.05493e-19 -5.79276e-21 -0.000161017 -0.000140792 0.000441902 2.87407e-06 -2.8215e-05 4.15619e-08)
(0 5.42425e-19 0 -46.6068 7.75622e-05 0.000503609 1.11768 4.05022e-05 -5.01925e-08)
(0 -1.2662e-18 0 -46.5906 2.59889e-19 0.000503768 1.11706 0 4.29373e-08)
(-2.36051e-14 -2.59319e-18 -1.12558e-20 -75.0612 6.71157e-21 0.000556573 2.26662 0 -3.39843e-08)
(0 -4.05209e-19 0 -75.0474 -0.000221772 0.000556681 2.26607 -2.72409e-05 4.47805e-08)
(0 5.4363e-19 0 -98.0352 -2.80301e-05 0.000592235 3.25672 3.44958e-05 -5.40463e-08)
(1.40241e-13 0 -2.2189e-20 -98.024 -1.89735e-19 0.000592357 3.25626 3.38813e-21 4.45946e-08)
(-3.42744e-14 0 0 -115.21 0 0.00060295 4.05836 -3.38813e-21 -3.41753e-08)
(6.85489e-14 0 0 -115.201 -0.000304962 0.00060303 4.05799 -3.00677e-05 4.74439e-08)
(1.67302e-14 -4.04203e-19 2.15575e-20 -126.768 -0.000120103 0.000580115 4.6607 2.52999e-05 -5.79186e-08)
(0 0 0 -126.762 0 0.00058021 4.66042 0 4.57088e-08)
(0 -3.94818e-18 0 -133.304 2.26338e-19 0.000520727 5.07065 0 -3.33776e-08)
(-6.5286e-14 -1.32803e-19 -2.12485e-20 -133.3 -0.000314794 0.000520788 5.07046 -3.64181e-05 4.97201e-08)
(-3.78812e-14 -1.08385e-18 -2.0944e-20 -135.712 -0.000101659 0.000424139 5.30986 1.56467e-05 -6.2098e-08)
(6.36794e-14 0 0 -135.709 1.33953e-21 0.000424217 5.30974 8.47033e-22 4.64487e-08)
(0 -2.39178e-18 0 -135.053 -2.98156e-19 0.000294703 5.41072 6.77626e-21 -3.16216e-08)
(0 -3.35461e-19 0 -135.052 -0.000232621 0.000294756 5.41066 -4.21544e-05 5.17946e-08)
(0 -4.06958e-19 2.5391e-19 -132.435 8.06081e-06 0.000121147 5.41223 9.25616e-06 -6.68902e-08)
(0 -8.87168e-22 0 -132.435 -4.36471e-20 0.000120847 5.41221 -3.19636e-06 4.69723e-08)
(-1.4791e-14 1.64005e-34 0 -128.882 5.9471e-19 -9.3868e-06 5.35485 -6.77626e-21 -2.884e-08)
(0 0 -1.04619e-37 -128.882 -6.11585e-05 -3.76929e-22 5.35485 -4.35415e-05 0)
(-2.8872e-14 -1.49131e-18 1.97688e-20 -125.238 0.000173734 -0.000194013 5.27551 1.00733e-05 -7.25559e-08)
(1.15488e-13 -6.07432e-22 0 -125.238 -2.71051e-20 -0.000193953 5.27552 -4.37701e-06 4.73645e-08)
(0 -5.39346e-21 0 -122.126 2.65519e-19 -0.000344033 5.20458 0 -2.48188e-08)
(-2.0432e-14 -4.04323e-19 -1.94855e-20 -122.126 0.000106847 -0.000343993 5.20459 -3.80038e-05 5.57117e-08)
(-2.01391e-14 5.42125e-19 -1.92062e-20 -119.923 0.000286181 -0.000466387 5.1639 1.8446e-05 -7.93124e-08)
(-2.01391e-14 -1.41164e-19 -1.92062e-20 -119.922 0 -0.000466339 5.16388 -2.11758e-22 4.76187e-08)
(-5.99704e-14 1.14352e-34 0 -118.768 2.07867e-19 -0.000552323 5.16587 3.38813e-21 -1.92127e-08)
(1.26837e-13 1.62806e-18 0 -118.766 0.000181666 -0.000552293 5.16583 -2.74486e-05 5.74635e-08)
(-1.9566e-14 -1.62572e-18 0 -118.594 0.000290531 -0.000598729 5.21352 3.08276e-05 -8.73666e-08)
(1.23605e-13 0 0 -118.592 1.68687e-19 -0.000598696 5.21345 -1.69407e-21 4.76649e-08)
(-1.26248e-14 7.52316e-37 0 -119.174 1.31954e-19 -0.000606478 5.30166 3.38813e-21 -1.1593e-08)
(-1.92856e-14 -6.7821e-19 0 -119.172 0.000143215 -0.000606463 5.30156 -1.63906e-05 5.89059e-08)
(1.22326e-14 -1.62704e-18 0 -120.18 0.000205118 -0.000580891 5.41885 4.2455e-05 -9.69834e-08)
(9.78606e-14 1.54074e-33 0 -120.177 0 -0.000580877 5.41874 0 4.74227e-08)
(0 -2.30097e-36 0 -121.232 4.14505e-21 -0.000529172 5.54938 0 -1.48596e-09)
(4.73176e-14 1.08413e-18 0 -121.23 4.53058e-05 -0.000529173 5.54926 -8.90474e-06 5.9916e-08)
(1.1418e-14 -5.41588e-19 0 -121.964 8.11062e-05 -0.000461563 5.67572 5.06476e-05 -1.08553e-07)
(0 0 0 -121.962 -1.28749e-19 -0.000461566 5.6756 -7.51604e-35 4.68675e-08)
(2.20045e-14 -8.53228e-20 0 -122.06 -3.42583e-19 -0.000386316 5.78119 0 1.16011e-08)
(4.4009e-14 -4.06608e-19 0 -122.058 -4.81421e-05 -0.000386332 5.78108 -7.02094e-06 6.04242e-08)
(0 5.41147e-19 0 -121.283 -2.19844e-06 -0.000311272 5.8512 5.55658e-05 -1.22629e-07)
(-1.79426e-14 0 -4.27784e-21 -121.281 -1.206e-20 -0.000311289 5.8511 0 4.60602e-08)
(0 -8.88489e-19 0 -119.495 -1.63572e-19 -0.000241812 5.87483 0 2.82093e-08)
(4.07024e-14 4.06565e-19 0 -119.494 -9.99513e-05 -0.000209975 5.87475 -9.10201e-06 6.04164e-08)
(1.95479e-14 -5.4237e-19 -2.07805e-21 -116.667 -3.54687e-05 -0.000181768 5.84599 5.92276e-05 -1.39923e-07)
(0 0 2.07805e-21 -116.667 -1.0842e-19 -6.99803e-05 5.84594 3.38813e-21 8.32217e-07)
(1.79765e-14 -1.23864e-18 -2.04826e-21 -112.865 -2.09876e-19 -0.000132284 5.76347 0 4.89387e-08)
(3.7542e-14 1.21974e-18 5.53202e-21 -112.865 -0.00010391 5.84293e-06 5.76345 -1.28807e-05 2.6451e-07)
(0 -1.08415e-18 -4.03781e-21 -108.236 -3.0944e-05 -9.36225e-05 5.63053 6.41717e-05 -1.61348e-07)
(3.6053e-14 0 6.25233e-21 -108.236 -5.95129e-20 5.75636e-06 5.63054 -1.69407e-21 3.2555e-07)
(-8.65914e-15 -2.86567e-19 0 -102.998 0 -5.66463e-05 5.45473 -6.77626e-21 7.4621e-08)
(-3.46365e-14 2.70636e-19 -8.56283e-22 -102.999 -8.49452e-05 5.68414e-06 5.45477 -1.65046e-05 2.647e-07)
(-2.47777e-14 1.34359e-19 -1.96145e-21 -97.4094 -1.13618e-05 -1.04908e-05 5.24716 7.18993e-05 1.86507e-08)
(0 0 1.96145e-21 -97.4107 -6.09864e-20 5.55627e-06 5.24722 1.87822e-35 3.21507e-07)
(-8.00682e-15 -1.72979e-19 0 -91.751 -3.11708e-19 5.21614e-06 5.02107 0 9.81812e-07)
(-3.20272e-14 4.06967e-19 3.02272e-22 -91.7524 -6.39541e-05 5.47613e-06 5.02114 -1.9143e-05 2.63818e-07)
(0 -2.71075e-19 -1.90563e-21 -86.3061 5.70293e-06 6.25679e-06 4.79122 8.29566e-05 8.97754e-07)
(0 -4.81482e-35 3.81125e-21 -86.3075 2.34598e-21 5.29702e-06 4.7913 1.69407e-21 3.11348e-07)
(0 -1.70015e-19 0 -81.3483 3.38813e-21 6.83551e-06 4.57299 -1.35525e-20 1.66584e-06)
(5.93537e-14 5.42833e-19 7.32257e-21 -81.3493 -4.6962e-05 5.21799e-06 4.57306 -2.08338e-05 2.62783e-07)
(-7.14172e-15 6.7761e-19 1.85139e-21 -77.1277 1.70274e-05 6.19688e-06 4.38176 9.57762e-05 1.45287e-06)
(2.85669e-14 7.52316e-37 1.87048e-21 -77.1282 0 4.99263e-06 4.38181 -8.95664e-37 2.95113e-07)