/*--------------------------------*- C++ -*----------------------------------*\
| =========                 |                                                 |
| \\      /  F ield         | OpenFOAM: The Open Source CFD Toolbox           |
|  \\    /   O peration     | Version:  2012                                  |
|   \\  /    A nd           | Website:  www.openfoam.com                      |
|    \\/     M anipulation  |                                                 |
\*---------------------------------------------------------------------------*/
FoamFile
{
    version     2.0;
    format      ascii;
    class       volScalarField;
    location    "13300";
    object      nut;
}
// * * * * * * * * * * * * * * * * * * * * * * * * * * * * * * * * * * * * * //

dimensions      [0 2 -1 0 0 0 0];


internalField   nonuniform List<scalar> 
2560
(
1.42003e-08
1.41898e-08
2.34176e-06
2.34014e-06
4.59303e-05
4.5902e-05
0.000245038
0.000244929
0.000627016
0.00062681
0.00113748
0.00113718
0.0017369
0.00173651
0.002404
0.00240352
0.00312654
0.00312596
0.00389671
0.00389604
0.00470913
0.00470836
0.00555982
0.00555895
0.0064457
0.00644473
0.00736431
0.00736324
0.0083136
0.00831242
0.00929184
0.00929055
0.0102975
0.0102961
0.0113294
0.0113278
0.0123861
0.0123845
0.0134667
0.013465
0.0145702
0.0145683
0.0156956
0.0156936
0.016842
0.0168399
0.0180086
0.0180063
0.0191945
0.0191921
0.020399
0.0203965
0.0216214
0.0216187
0.0228608
0.022858
0.0241167
0.0241137
0.0253882
0.025385
0.0266746
0.0266713
0.0279754
0.027972
0.0292898
0.0292862
0.030617
0.0306132
0.0319563
0.0319524
0.033307
0.0333029
0.0346681
0.0346638
0.0360389
0.0360344
0.0374185
0.0374139
0.0388061
0.0388013
0.0402009
0.040196
0.0416022
0.0415971
0.0430092
0.0430039
0.044421
0.0444155
0.0458367
0.045831
0.0472552
0.0472494
0.0486752
0.0486692
0.0500953
0.0500891
0.0515138
0.0515074
0.0529292
0.0529226
0.0543398
0.054333
0.055744
0.0557371
0.0571407
0.0571335
0.0585289
0.0585215
0.059909
0.0599014
0.0612827
0.0612749
0.062654
0.0626459
0.0640287
0.0640203
0.0654125
0.0654039
0.066808
0.0667991
0.0682104
0.0682013
0.0696008
0.0695915
0.0709486
0.0709391
0.0722149
0.0722053
0.0733598
0.0733502
0.0743516
0.074342
0.0751727
0.0751632
0.0758218
0.0758125
0.0763127
0.0763037
0.0766695
0.0766609
0.076922
0.0769138
0.077101
0.0770933
0.0772352
0.0772279
0.0773489
0.0773419
0.0774613
0.0774546
0.0775858
0.0775793
0.0777308
0.0777245
0.0778995
0.0778933
0.0780913
0.0780853
0.0783025
0.0782969
0.0785276
0.0785222
0.0787594
0.0787544
0.0789908
0.0789862
0.0792143
0.0792101
0.0794231
0.0794193
0.079611
0.0796076
0.0797725
0.0797695
0.0799032
0.0799005
0.0799996
0.0799971
0.0800595
0.0800573
0.0800823
0.0800803
0.080069
0.0800671
0.080022
0.0800203
0.0799458
0.0799442
0.0798459
0.0798444
0.0797288
0.0797274
0.0796016
0.0796002
0.0794707
0.0794694
0.0793421
0.0793409
0.0792204
0.0792192
0.0791091
0.0791079
0.0790103
0.0790091
0.0789252
0.0789241
0.0788547
0.0788537
0.0787995
0.0787985
0.0787603
0.0787593
0.0787383
0.0787374
0.0787351
0.0787342
0.0787524
0.0787515
0.0787917
0.0787908
0.0788543
0.0788535
0.0789405
0.0789397
0.0790496
0.0790488
0.0791797
0.0791789
0.0793276
0.0793268
0.0794892
0.0794885
0.0796602
0.0796595
0.0798364
0.0798358
0.080015
0.0800144
0.0801949
0.0801944
0.0803776
0.0803771
0.080567
0.0805665
0.0807692
0.0807687
0.0809916
0.0809911
0.0812418
0.0812414
0.0815267
0.0815263
0.0818516
0.0818511
0.0822187
0.0822182
0.0826278
0.0826273
0.083077
0.0830765
0.0835632
0.0835628
0.084083
0.0840825
0.0846334
0.0846329
0.0852124
0.0852118
0.0858191
0.0858186
0.0864539
0.0864534
0.0871177
0.0871171
0.087812
0.0878114
0.0885383
0.0885377
0.0892981
0.0892975
0.0900924
0.0900918
0.0909218
0.0909211
0.091786
0.0917854
0.0926848
0.0926841
0.0936171
0.0936163
0.0945818
0.094581
0.0955779
0.0955771
0.0966045
0.0966036
0.0976613
0.0976604
0.0987486
0.0987477
0.0998676
0.0998666
0.10102
0.101019
0.102209
0.102208
0.103438
0.103437
0.10471
0.104708
0.106028
0.106027
0.107397
0.107396
0.10882
0.108818
0.110299
0.110297
0.111836
0.111835
0.113433
0.113431
0.115088
0.115086
0.116801
0.116799
0.118569
0.118567
0.120387
0.120385
0.12225
0.122247
0.124148
0.124145
0.126071
0.126068
0.128007
0.128004
0.129941
0.129938
0.131858
0.131854
0.13374
0.133737
0.135574
0.13557
0.137345
0.137342
0.139046
0.139044
0.140674
0.140673
0.142233
0.142233
0.143735
0.143735
0.145197
0.145198
0.146646
0.146647
0.148111
0.148111
0.149621
0.149621
0.151203
0.151204
0.15288
0.15288
0.154662
0.154661
0.156549
0.156549
0.158529
0.158528
0.160579
0.160578
0.162669
0.162667
0.164765
0.164764
0.166835
0.166834
0.168849
0.168848
0.170782
0.170783
0.17262
0.172623
0.174356
0.174359
0.175986
0.17599
0.177519
0.177523
0.178967
0.178971
0.180349
0.180352
0.181684
0.181687
0.182996
0.182998
0.184308
0.18431
0.185643
0.185645
0.187024
0.187025
0.188469
0.18847
0.189999
0.19
0.191629
0.191629
0.193372
0.193372
0.19524
0.19524
0.197241
0.197241
0.199378
0.199378
0.201652
0.201652
0.204058
0.204057
0.206584
0.206583
0.209212
0.209211
0.211916
0.211914
0.21466
0.214658
0.217404
0.217401
0.2201
0.220097
0.222697
0.222694
0.225148
0.225145
0.227409
0.227405
0.229445
0.229442
0.23124
0.231237
0.232798
0.232796
0.234143
0.234142
0.235316
0.235317
0.23637
0.236371
0.237371
0.237372
0.238386
0.238387
0.239475
0.239476
0.240682
0.240682
0.242029
0.242029
0.243518
0.243517
0.245129
0.245128
0.246834
0.246833
0.248604
0.248603
0.250415
0.250414
0.252259
0.252258
0.254141
0.25414
0.256084
0.256084
0.258118
0.258119
0.260277
0.260278
0.262594
0.262594
0.265096
0.265096
0.267808
0.267808
0.270745
0.270745
0.273921
0.273921
0.277345
0.277345
0.281027
0.281027
0.284975
0.284975
0.289199
0.289199
0.293708
0.293708
0.29851
0.29851
0.30361
0.30361
0.30901
0.30901
0.314711
0.31471
0.32071
0.32071
0.327005
0.327005
0.333593
0.333593
0.340472
0.340472
0.347642
0.347642
0.355107
0.355106
0.36287
0.36287
0.37094
0.370939
0.379324
0.379324
0.388033
0.388033
0.397075
0.397074
0.406455
0.406455
0.416177
0.416177
0.426241
0.426241
0.436644
0.436643
0.44738
0.44738
0.458443
0.458443
0.469825
0.469825
0.481517
0.481517
0.493512
0.493512
0.5058
0.5058
0.518373
0.518373
0.531221
0.53122
0.544332
0.544332
0.557697
0.557697
0.571303
0.571303
0.585137
0.585137
0.599186
0.599186
0.613436
0.613436
0.627876
0.627876
0.642494
0.642494
0.657282
0.657281
0.672231
0.672231
0.687336
0.687336
0.702589
0.702589
0.717984
0.717983
0.733508
0.733508
0.74915
0.74915
0.764892
0.764892
0.780716
0.780716
0.796602
0.796601
0.81253
0.81253
0.828485
0.828485
0.844452
0.844452
0.860418
0.860418
0.876376
0.876376
0.892319
0.892319
0.908243
0.908243
0.924141
0.924141
0.94001
0.94001
0.955842
0.955842
0.97163
0.97163
0.987363
0.987362
1.00303
1.00303
1.01861
1.01861
1.03407
1.03407
1.04936
1.04936
1.06438
1.06438
1.0789
1.0789
1.09251
1.09251
1.10432
1.10432
1.11267
1.11267
1.11238
1.11238
1.41898e-08
1.42003e-08
2.34013e-06
2.34176e-06
4.5902e-05
4.59303e-05
0.000244929
0.000245038
0.000626809
0.000627016
0.00113718
0.00113748
0.00173651
0.0017369
0.00240351
0.002404
0.00312596
0.00312654
0.00389604
0.00389671
0.00470836
0.00470913
0.00555895
0.00555982
0.00644473
0.0064457
0.00736324
0.00736431
0.00831242
0.0083136
0.00929055
0.00929185
0.0102961
0.0102975
0.0113278
0.0113294
0.0123845
0.0123861
0.013465
0.0134667
0.0145683
0.0145702
0.0156936
0.0156956
0.0168399
0.016842
0.0180063
0.0180086
0.0191921
0.0191945
0.0203965
0.020399
0.0216187
0.0216214
0.022858
0.0228608
0.0241137
0.0241167
0.025385
0.0253882
0.0266713
0.0266746
0.027972
0.0279754
0.0292862
0.0292898
0.0306132
0.030617
0.0319524
0.0319563
0.0333029
0.033307
0.0346638
0.0346681
0.0360344
0.0360389
0.0374139
0.0374185
0.0388013
0.0388061
0.040196
0.0402009
0.0415971
0.0416022
0.0430039
0.0430092
0.0444155
0.044421
0.045831
0.0458367
0.0472493
0.0472552
0.0486692
0.0486752
0.050089
0.0500953
0.0515074
0.0515138
0.0529226
0.0529292
0.054333
0.0543398
0.055737
0.055744
0.0571335
0.0571407
0.0585215
0.0585289
0.0599014
0.059909
0.0612749
0.0612827
0.0626459
0.062654
0.0640203
0.0640287
0.0654039
0.0654125
0.0667991
0.066808
0.0682013
0.0682104
0.0695914
0.0696008
0.0709391
0.0709486
0.0722052
0.0722149
0.0733501
0.0733598
0.074342
0.0743516
0.0751632
0.0751727
0.0758125
0.0758218
0.0763037
0.0763127
0.0766609
0.0766695
0.0769138
0.0769219
0.0770932
0.077101
0.0772278
0.0772352
0.0773419
0.0773489
0.0774546
0.0774613
0.0775793
0.0775858
0.0777244
0.0777308
0.0778933
0.0778995
0.0780853
0.0780913
0.0782968
0.0783025
0.0785222
0.0785276
0.0787544
0.0787594
0.0789861
0.0789908
0.0792101
0.0792143
0.0794193
0.0794231
0.0796076
0.079611
0.0797695
0.0797725
0.0799004
0.0799031
0.0799971
0.0799995
0.0800573
0.0800595
0.0800803
0.0800823
0.0800671
0.080069
0.0800203
0.080022
0.0799442
0.0799458
0.0798443
0.0798458
0.0797274
0.0797288
0.0796002
0.0796015
0.0794694
0.0794707
0.0793408
0.0793421
0.0792192
0.0792204
0.0791079
0.079109
0.0790091
0.0790102
0.0789241
0.0789252
0.0788536
0.0788547
0.0787984
0.0787994
0.0787593
0.0787602
0.0787373
0.0787383
0.0787342
0.0787351
0.0787514
0.0787523
0.0787908
0.0787917
0.0788534
0.0788543
0.0789396
0.0789405
0.0790488
0.0790496
0.0791789
0.0791796
0.0793268
0.0793275
0.0794885
0.0794891
0.0796595
0.0796601
0.0798357
0.0798363
0.0800143
0.0800149
0.0801943
0.0801948
0.080377
0.0803775
0.0805664
0.0805669
0.0807686
0.0807691
0.080991
0.0809915
0.0812413
0.0812417
0.0815262
0.0815266
0.081851
0.0818515
0.0822181
0.0822186
0.0826272
0.0826277
0.0830764
0.0830769
0.0835626
0.0835631
0.0840824
0.0840829
0.0846327
0.0846332
0.0852117
0.0852122
0.0858184
0.085819
0.0864532
0.0864537
0.087117
0.0871175
0.0878112
0.0878118
0.0885375
0.0885381
0.0892973
0.0892979
0.0900916
0.0900922
0.0909209
0.0909215
0.0917851
0.0917858
0.0926838
0.0926846
0.0936161
0.0936169
0.0945808
0.0945816
0.0955768
0.0955777
0.0966034
0.0966043
0.0976601
0.0976611
0.0987474
0.0987484
0.0998663
0.0998674
0.101019
0.10102
0.102208
0.102209
0.103436
0.103438
0.104708
0.104709
0.106026
0.106028
0.107395
0.107397
0.108818
0.10882
0.110297
0.110299
0.111834
0.111836
0.11343
0.113433
0.115086
0.115088
0.116798
0.116801
0.118566
0.118569
0.120384
0.120387
0.122246
0.122249
0.124144
0.124148
0.126068
0.126071
0.128003
0.128007
0.129937
0.129941
0.131854
0.131857
0.133736
0.13374
0.13557
0.135574
0.137342
0.137345
0.139044
0.139046
0.140673
0.140674
0.142233
0.142233
0.143735
0.143735
0.145198
0.145197
0.146647
0.146646
0.148111
0.14811
0.149621
0.14962
0.151203
0.151203
0.152879
0.152879
0.15466
0.154661
0.156548
0.156549
0.158527
0.158529
0.160577
0.160578
0.162666
0.162668
0.164763
0.164765
0.166833
0.166834
0.168847
0.168848
0.170782
0.170781
0.172622
0.172619
0.174358
0.174355
0.175989
0.175985
0.177522
0.177518
0.17897
0.178967
0.180351
0.180348
0.181686
0.181684
0.182998
0.182996
0.18431
0.184308
0.185644
0.185643
0.187024
0.187023
0.18847
0.188469
0.189999
0.189998
0.191628
0.191628
0.193371
0.193371
0.195239
0.195239
0.197239
0.197239
0.199376
0.199377
0.20165
0.201651
0.204055
0.204056
0.206581
0.206582
0.209209
0.20921
0.211912
0.211914
0.214656
0.214658
0.217399
0.217402
0.220095
0.220098
0.222692
0.222696
0.225143
0.225147
0.227403
0.227407
0.22944
0.229445
0.231236
0.23124
0.232795
0.232798
0.234142
0.234143
0.235317
0.235316
0.236372
0.236371
0.237372
0.237372
0.238387
0.238387
0.239476
0.239475
0.240682
0.240682
0.242028
0.242028
0.243516
0.243517
0.245127
0.245128
0.246832
0.246833
0.248602
0.248603
0.250413
0.250415
0.252257
0.252258
0.254139
0.25414
0.256083
0.256084
0.258118
0.258118
0.260278
0.260277
0.262594
0.262594
0.265097
0.265096
0.267808
0.267808
0.270745
0.270745
0.273921
0.273921
0.277345
0.277345
0.281026
0.281027
0.284974
0.284975
0.289198
0.289199
0.293708
0.293708
0.298509
0.29851
0.303609
0.303609
0.309009
0.309009
0.31471
0.31471
0.320709
0.320709
0.327004
0.327004
0.333592
0.333592
0.340471
0.340471
0.347642
0.347642
0.355106
0.355107
0.36287
0.36287
0.370939
0.37094
0.379324
0.379325
0.388033
0.388034
0.397075
0.397075
0.406455
0.406455
0.416177
0.416177
0.426241
0.426241
0.436643
0.436644
0.44738
0.44738
0.458443
0.458443
0.469824
0.469825
0.481517
0.481517
0.493511
0.493512
0.5058
0.5058
0.518372
0.518373
0.53122
0.53122
0.544332
0.544332
0.557697
0.557697
0.571303
0.571303
0.585137
0.585137
0.599185
0.599186
0.613436
0.613436
0.627876
0.627876
0.642494
0.642494
0.657281
0.657282
0.672231
0.672231
0.687335
0.687336
0.702589
0.702589
0.717983
0.717983
0.733507
0.733508
0.749149
0.749149
0.764891
0.764891
0.780715
0.780715
0.7966
0.796601
0.812529
0.81253
0.828484
0.828485
0.844451
0.844451
0.860417
0.860418
0.876375
0.876376
0.892319
0.892319
0.908242
0.908242
0.92414
0.924141
0.940009
0.940009
0.95584
0.95584
0.971627
0.971627
0.987359
0.987359
1.00302
1.00302
1.0186
1.0186
1.03406
1.03406
1.04935
1.04935
1.06436
1.06436
1.07889
1.07889
1.09249
1.09249
1.1043
1.1043
1.11265
1.11265
1.11237
1.11237
1.11238
1.11238
1.11267
1.11267
1.10433
1.10433
1.09252
1.09252
1.07891
1.07891
1.06438
1.06438
1.04937
1.04937
1.03408
1.03408
1.01862
1.01862
1.00304
1.00304
0.987374
0.987373
0.971641
0.971641
0.955854
0.955854
0.940022
0.940022
0.924154
0.924154
0.908256
0.908256
0.892334
0.892334
0.876392
0.876391
0.860434
0.860434
0.844468
0.844468
0.828502
0.828502
0.812548
0.812548
0.79662
0.79662
0.780735
0.780735
0.764912
0.764912
0.74917
0.74917
0.733529
0.733529
0.718005
0.718004
0.702611
0.702611
0.687358
0.687358
0.672254
0.672253
0.657305
0.657305
0.642518
0.642518
0.6279
0.6279
0.61346
0.61346
0.599209
0.599209
0.58516
0.585159
0.571325
0.571325
0.557719
0.557718
0.544353
0.544353
0.531241
0.531241
0.518393
0.518393
0.50582
0.50582
0.493531
0.493531
0.481536
0.481536
0.469843
0.469843
0.458461
0.45846
0.447397
0.447396
0.43666
0.436659
0.426256
0.426256
0.416191
0.416191
0.406468
0.406468
0.397088
0.397087
0.388045
0.388045
0.379335
0.379335
0.37095
0.370949
0.362879
0.362879
0.355115
0.355115
0.34765
0.347649
0.340478
0.340478
0.333598
0.333597
0.327009
0.327008
0.320713
0.320712
0.314713
0.314712
0.309011
0.309011
0.303611
0.30361
0.29851
0.29851
0.293708
0.293707
0.289198
0.289198
0.284973
0.284973
0.281024
0.281024
0.277342
0.277342
0.273918
0.273918
0.270741
0.270741
0.267803
0.267803
0.265091
0.265091
0.262588
0.262588
0.260271
0.260272
0.258112
0.258112
0.256078
0.256077
0.254135
0.254134
0.252254
0.252252
0.250411
0.25041
0.248601
0.248599
0.246831
0.24683
0.245127
0.245126
0.243516
0.243515
0.242028
0.242027
0.240681
0.240682
0.239475
0.239476
0.238386
0.238387
0.237372
0.237373
0.236372
0.236373
0.235319
0.23532
0.234147
0.234146
0.232803
0.2328
0.231246
0.231242
0.229451
0.229447
0.227414
0.22741
0.225153
0.22515
0.222702
0.222699
0.220105
0.220102
0.217409
0.217406
0.214665
0.214663
0.211921
0.211919
0.209217
0.209216
0.206589
0.206588
0.204063
0.204062
0.201657
0.201656
0.199382
0.199382
0.197244
0.197244
0.195244
0.195244
0.193375
0.193376
0.191632
0.191632
0.190002
0.190003
0.188472
0.188473
0.187026
0.187027
0.185645
0.185647
0.18431
0.184312
0.182998
0.183
0.181686
0.181688
0.18035
0.180353
0.178969
0.178972
0.17752
0.177524
0.175987
0.175991
0.174356
0.174359
0.172621
0.172623
0.170782
0.170783
0.168849
0.168848
0.166835
0.166834
0.164765
0.164763
0.162668
0.162667
0.160578
0.160577
0.158529
0.158527
0.156549
0.156548
0.154661
0.15466
0.152879
0.152879
0.151203
0.151203
0.14962
0.14962
0.14811
0.148111
0.146645
0.146646
0.145197
0.145198
0.143734
0.143735
0.142233
0.142233
0.140674
0.140673
0.139046
0.139044
0.137345
0.137342
0.135574
0.13557
0.13374
0.133736
0.131858
0.131854
0.129941
0.129937
0.128007
0.128003
0.126071
0.126067
0.124148
0.124144
0.122249
0.122246
0.120387
0.120384
0.118569
0.118566
0.116801
0.116798
0.115088
0.115085
0.113432
0.11343
0.111836
0.111834
0.110298
0.110296
0.108819
0.108817
0.107396
0.107395
0.106027
0.106025
0.104708
0.104707
0.103436
0.103435
0.102208
0.102206
0.101018
0.101017
0.0998654
0.0998643
0.0987461
0.0987451
0.0976585
0.0976575
0.0966014
0.0966005
0.0955746
0.0955737
0.0945782
0.0945774
0.0936132
0.0936124
0.0926806
0.0926799
0.0917817
0.0917809
0.0909172
0.0909165
0.0900876
0.090087
0.0892931
0.0892925
0.0885331
0.0885325
0.0878066
0.087806
0.0871121
0.0871116
0.0864481
0.0864475
0.085813
0.0858125
0.0852059
0.0852054
0.0846266
0.0846261
0.084076
0.0840754
0.0835559
0.0835554
0.0830694
0.0830689
0.0826199
0.0826194
0.0822106
0.0822101
0.0818433
0.0818428
0.0815182
0.0815177
0.081233
0.0812326
0.0809826
0.0809821
0.0807601
0.0807596
0.0805577
0.0805572
0.0803682
0.0803676
0.0801853
0.0801848
0.0800053
0.0800047
0.0798266
0.079826
0.0796503
0.0796496
0.0794793
0.0794786
0.0793176
0.0793169
0.0791696
0.0791689
0.0790395
0.0790387
0.0789302
0.0789294
0.0788439
0.0788431
0.0787812
0.0787803
0.0787418
0.0787409
0.0787244
0.0787235
0.0787275
0.0787266
0.0787494
0.0787484
0.0787885
0.0787875
0.0788437
0.0788426
0.078914
0.078913
0.078999
0.0789979
0.0790977
0.0790966
0.079209
0.0792078
0.0793306
0.0793294
0.0794591
0.0794578
0.0795899
0.0795885
0.0797171
0.0797157
0.079834
0.0798325
0.0799339
0.0799323
0.0800102
0.0800085
0.0800572
0.0800554
0.0800707
0.0800687
0.080048
0.0800458
0.079988
0.0799856
0.0798916
0.0798888
0.0797608
0.0797577
0.0795991
0.0795957
0.0794111
0.0794073
0.0792022
0.0791979
0.0789785
0.0789738
0.078747
0.0787418
0.0785149
0.0785094
0.0782898
0.0782839
0.0780783
0.0780722
0.0778864
0.07788
0.0777176
0.077711
0.0775724
0.0775657
0.0774478
0.0774409
0.0773353
0.0773281
0.0772215
0.0772139
0.0770872
0.0770792
0.0769082
0.0768997
0.0766557
0.0766468
0.0762991
0.0762898
0.0758086
0.075799
0.0751598
0.0751499
0.0743391
0.0743291
0.0733476
0.0733376
0.0722029
0.0721929
0.0709368
0.0709269
0.0695891
0.0695795
0.0681991
0.0681897
0.066797
0.0667878
0.0654016
0.0653927
0.0640179
0.0640093
0.0626435
0.0626351
0.0612724
0.0612642
0.0598989
0.0598909
0.058519
0.0585114
0.0571311
0.0571237
0.0557348
0.0557276
0.0543309
0.0543239
0.0529206
0.0529137
0.0515055
0.0514988
0.0500873
0.0500808
0.0486675
0.0486612
0.0472478
0.0472417
0.0458296
0.0458237
0.0444142
0.0444085
0.0430027
0.0429972
0.041596
0.0415907
0.040195
0.0401898
0.0388004
0.0387954
0.037413
0.0374083
0.0360337
0.0360291
0.0346631
0.0346587
0.0333023
0.033298
0.0319519
0.0319478
0.0306128
0.0306088
0.0292857
0.029282
0.0279716
0.027968
0.026671
0.0266676
0.0253847
0.0253815
0.0241134
0.0241103
0.0228578
0.0228549
0.0216186
0.0216158
0.0203964
0.0203937
0.019192
0.0191895
0.0180063
0.0180039
0.0168399
0.0168376
0.0156936
0.0156915
0.0145684
0.0145664
0.0134651
0.0134632
0.0123846
0.0123829
0.011328
0.0113264
0.0102963
0.0102948
0.00929069
0.00928936
0.00831257
0.00831135
0.00736339
0.00736228
0.0064449
0.00644389
0.00555912
0.00555822
0.00470853
0.00470773
0.0038962
0.0038955
0.00312611
0.00312551
0.00240366
0.00240316
0.00173663
0.00173623
0.00113729
0.00113698
0.00062689
0.000626677
0.000244975
0.000244862
4.59146e-05
4.58853e-05
2.34087e-06
2.3392e-06
1.41952e-08
1.41843e-08
1.11237
1.11237
1.11265
1.11265
1.10431
1.10431
1.0925
1.0925
1.07889
1.07889
1.06437
1.06437
1.04936
1.04936
1.03407
1.03407
1.01861
1.01861
1.00303
1.00303
0.98737
0.98737
0.971638
0.971639
0.955852
0.955852
0.94002
0.940021
0.924153
0.924153
0.908255
0.908256
0.892333
0.892333
0.876391
0.876391
0.860433
0.860434
0.844467
0.844467
0.828501
0.828501
0.812547
0.812547
0.796619
0.796619
0.780734
0.780734
0.764911
0.764911
0.749169
0.74917
0.733528
0.733529
0.718004
0.718004
0.70261
0.702611
0.687358
0.687358
0.672253
0.672254
0.657305
0.657305
0.642517
0.642518
0.627899
0.6279
0.613459
0.61346
0.599208
0.599209
0.585159
0.585159
0.571324
0.571325
0.557718
0.557719
0.544353
0.544353
0.531241
0.531241
0.518393
0.518393
0.505819
0.50582
0.493531
0.493531
0.481536
0.481536
0.469842
0.469843
0.45846
0.45846
0.447396
0.447397
0.436659
0.43666
0.426256
0.426256
0.416191
0.416192
0.406468
0.406469
0.397087
0.397088
0.388045
0.388046
0.379335
0.379336
0.37095
0.37095
0.362879
0.362879
0.355115
0.355115
0.347649
0.347649
0.340477
0.340478
0.333597
0.333597
0.327008
0.327008
0.320712
0.320712
0.314712
0.314712
0.30901
0.309011
0.30361
0.30361
0.298509
0.29851
0.293707
0.293707
0.289197
0.289197
0.284973
0.284973
0.281024
0.281024
0.277342
0.277342
0.273917
0.273917
0.270741
0.270741
0.267803
0.267803
0.265091
0.265091
0.262588
0.262588
0.260272
0.260271
0.258112
0.258112
0.256077
0.256077
0.254134
0.254135
0.252252
0.252253
0.250409
0.250411
0.248598
0.2486
0.246829
0.24683
0.245125
0.245126
0.243515
0.243515
0.242027
0.242027
0.240681
0.240681
0.239476
0.239475
0.238388
0.238387
0.237374
0.237373
0.236374
0.236373
0.23532
0.235319
0.234146
0.234147
0.2328
0.232803
0.231241
0.231245
0.229446
0.22945
0.227409
0.227413
0.225148
0.225152
0.222697
0.222701
0.2201
0.220103
0.217404
0.217407
0.214661
0.214663
0.211917
0.211919
0.209214
0.209215
0.206586
0.206587
0.20406
0.204061
0.201654
0.201655
0.19938
0.199381
0.197243
0.197243
0.195243
0.195243
0.193375
0.193375
0.191631
0.191631
0.190002
0.190001
0.188472
0.188471
0.187027
0.187025
0.185647
0.185645
0.184312
0.18431
0.183
0.182997
0.181688
0.181685
0.180353
0.18035
0.178971
0.178968
0.177523
0.17752
0.17599
0.175986
0.174359
0.174355
0.172622
0.17262
0.170783
0.170782
0.168847
0.168848
0.166833
0.166835
0.164763
0.164764
0.162666
0.162667
0.160576
0.160577
0.158527
0.158528
0.156547
0.156548
0.15466
0.15466
0.152878
0.152879
0.151202
0.151202
0.14962
0.149619
0.14811
0.148109
0.146646
0.146645
0.145197
0.145196
0.143735
0.143734
0.142232
0.142232
0.140672
0.140674
0.139044
0.139046
0.137342
0.137345
0.13557
0.135573
0.133736
0.13374
0.131853
0.131857
0.129937
0.129941
0.128003
0.128007
0.126067
0.126071
0.124144
0.124147
0.122246
0.122249
0.120384
0.120387
0.118566
0.118568
0.116798
0.1168
0.115085
0.115087
0.11343
0.113432
0.111833
0.111835
0.110296
0.110298
0.108817
0.108819
0.107394
0.107396
0.106025
0.106027
0.104706
0.104708
0.103435
0.103436
0.102206
0.102207
0.101017
0.101018
0.0998641
0.0998652
0.0987449
0.0987459
0.0976573
0.0976583
0.0966003
0.0966012
0.0955735
0.0955744
0.0945772
0.094578
0.0936122
0.093613
0.0926797
0.0926804
0.0917808
0.0917815
0.0909163
0.090917
0.0900868
0.0900875
0.0892923
0.089293
0.0885324
0.088533
0.0878059
0.0878064
0.0871114
0.087112
0.0864474
0.0864479
0.0858123
0.0858129
0.0852053
0.0852058
0.084626
0.0846265
0.0840753
0.0840758
0.0835552
0.0835558
0.0830688
0.0830693
0.0826193
0.0826198
0.08221
0.0822105
0.0818427
0.0818432
0.0815176
0.0815181
0.0812325
0.081233
0.080982
0.0809825
0.0807595
0.08076
0.0805572
0.0805577
0.0803676
0.0803681
0.0801847
0.0801853
0.0800046
0.0800052
0.0798259
0.0798265
0.0796496
0.0796502
0.0794785
0.0794792
0.0793168
0.0793175
0.0791688
0.0791696
0.0790386
0.0790394
0.0789294
0.0789302
0.078843
0.0788439
0.0787803
0.0787812
0.0787408
0.0787417
0.0787234
0.0787244
0.0787265
0.0787275
0.0787483
0.0787493
0.0787874
0.0787885
0.0788425
0.0788436
0.0789129
0.078914
0.0789978
0.078999
0.0790965
0.0790977
0.0792078
0.079209
0.0793293
0.0793306
0.0794578
0.0794591
0.0795885
0.0795899
0.0797156
0.0797171
0.0798325
0.079834
0.0799322
0.0799339
0.0800084
0.0800102
0.0800553
0.0800572
0.0800686
0.0800707
0.0800457
0.080048
0.0799855
0.079988
0.0798888
0.0798916
0.0797576
0.0797608
0.0795956
0.0795991
0.0794072
0.0794111
0.0791978
0.0792022
0.0789737
0.0789785
0.0787418
0.078747
0.0785093
0.078515
0.0782838
0.0782898
0.0780721
0.0780783
0.07788
0.0778864
0.077711
0.0777176
0.0775657
0.0775725
0.0774408
0.0774478
0.077328
0.0773353
0.0772138
0.0772215
0.0770792
0.0770872
0.0768997
0.0769082
0.0766468
0.0766557
0.0762898
0.0762991
0.0757989
0.0758086
0.0751499
0.0751598
0.074329
0.0743391
0.0733375
0.0733476
0.0721928
0.0722029
0.0709268
0.0709368
0.0695794
0.0695892
0.0681896
0.0681991
0.0667877
0.066797
0.0653927
0.0654017
0.0640092
0.064018
0.062635
0.0626435
0.0612642
0.0612724
0.0598909
0.0598989
0.0585113
0.0585191
0.0571236
0.0571311
0.0557276
0.0557349
0.0543238
0.0543309
0.0529137
0.0529206
0.0514988
0.0515055
0.0500808
0.0500873
0.0486612
0.0486675
0.0472417
0.0472478
0.0458237
0.0458296
0.0444085
0.0444142
0.0429972
0.0430027
0.0415907
0.041596
0.0401898
0.040195
0.0387954
0.0388004
0.0374083
0.0374131
0.0360291
0.0360337
0.0346587
0.0346632
0.033298
0.0333023
0.0319478
0.0319519
0.0306088
0.0306128
0.029282
0.0292858
0.027968
0.0279716
0.0266676
0.026671
0.0253815
0.0253848
0.0241103
0.0241135
0.0228549
0.0228578
0.0216158
0.0216186
0.0203937
0.0203964
0.0191895
0.0191921
0.0180039
0.0180063
0.0168376
0.0168399
0.0156915
0.0156936
0.0145664
0.0145684
0.0134632
0.0134651
0.0123829
0.0123846
0.0113264
0.011328
0.0102948
0.0102963
0.00928936
0.0092907
0.00831135
0.00831258
0.00736228
0.0073634
0.00644389
0.0064449
0.00555822
0.00555912
0.00470773
0.00470853
0.0038955
0.0038962
0.00312551
0.00312612
0.00240316
0.00240366
0.00173623
0.00173664
0.00113698
0.00113729
0.000626676
0.000626891
0.000244861
0.000244975
4.58853e-05
4.59147e-05
2.3392e-06
2.34088e-06
1.41843e-08
1.41952e-08
)
;

boundaryField
{
    walls
    {
        type            nutUWallFunction;
        blending        stepwise;
        Cmu             0.09;
        kappa           0.41;
        E               9.8;
        value           uniform 0;
    }
    inlet
    {
        type            cyclic;
    }
    outlet
    {
        type            cyclic;
    }
    sides
    {
        type            empty;
    }
}


// ************************************************************************* //
