/*--------------------------------*- C++ -*----------------------------------*\
| =========                 |                                                 |
| \\      /  F ield         | OpenFOAM: The Open Source CFD Toolbox           |
|  \\    /   O peration     | Version:  2012                                  |
|   \\  /    A nd           | Website:  www.openfoam.com                      |
|    \\/     M anipulation  |                                                 |
\*---------------------------------------------------------------------------*/
FoamFile
{
    version     2.0;
    format      ascii;
    class       volScalarField;
    location    "13300";
    object      omega;
}
// * * * * * * * * * * * * * * * * * * * * * * * * * * * * * * * * * * * * * //

dimensions      [0 0 -1 0 0 0 0];


internalField   nonuniform List<scalar> 
2560
(
1.52418e+06
1.52418e+06
263584
263587
87201.6
87204.4
42105
42105.5
26518.5
26518
19447.7
19447
15516.8
15516
13023
13022.3
11297.1
11296.4
10028.4
10027.8
9054.28
9053.71
8281.24
8280.7
7651.88
7651.38
7128.93
7128.47
6687.14
6686.7
6308.74
6308.33
5980.88
5980.49
5694.01
5693.64
5440.89
5440.55
5215.94
5215.61
5014.76
5014.44
4833.82
4833.52
4670.3
4670.01
4521.87
4521.59
4386.64
4386.37
4263.01
4262.75
4149.64
4149.39
4045.41
4045.17
3949.36
3949.12
3860.66
3860.43
3778.6
3778.38
3702.58
3702.36
3632.05
3631.83
3566.54
3566.32
3505.62
3505.41
3448.92
3448.71
3396.11
3395.9
3346.87
3346.67
3300.95
3300.75
3258.1
3257.89
3218.1
3217.9
3180.76
3180.56
3145.92
3145.72
3113.41
3113.21
3083.08
3082.88
3054.78
3054.58
3028.35
3028.15
3003.65
3003.45
2980.51
2980.31
2958.8
2958.59
2938.37
2938.16
2919.09
2918.87
2900.86
2900.64
2883.61
2883.39
2867.34
2867.11
2852.12
2851.89
2838.17
2837.93
2825.76
2825.52
2815.23
2814.98
2806.72
2806.46
2800.06
2799.79
2794.43
2794.15
2788.47
2788.19
2780.45
2780.17
2768.6
2768.32
2751.5
2751.22
2728.36
2728.08
2699.12
2698.85
2664.34
2664.09
2625.04
2624.8
2582.42
2582.19
2537.69
2537.49
2491.96
2491.77
2446.13
2445.95
2400.86
2400.69
2356.6
2356.44
2313.61
2313.46
2271.97
2271.82
2231.63
2231.49
2192.45
2192.32
2154.25
2154.13
2116.8
2116.69
2079.89
2079.79
2043.31
2043.23
2006.88
2006.8
1970.43
1970.37
1933.84
1933.79
1897.02
1896.97
1859.9
1859.86
1822.46
1822.43
1784.71
1784.68
1746.71
1746.69
1708.55
1708.53
1670.36
1670.34
1632.28
1632.27
1594.48
1594.47
1557.11
1557.1
1520.31
1520.3
1484.2
1484.19
1448.84
1448.84
1414.3
1414.29
1380.58
1380.58
1347.7
1347.69
1315.63
1315.63
1284.37
1284.37
1253.91
1253.91
1224.24
1224.24
1195.36
1195.36
1167.28
1167.28
1139.99
1139.99
1113.49
1113.49
1087.75
1087.75
1062.74
1062.74
1038.41
1038.41
1014.69
1014.69
991.504
991.505
968.78
968.782
946.451
946.453
924.466
924.469
902.806
902.808
881.476
881.479
860.513
860.516
839.975
839.978
819.928
819.931
800.438
800.441
781.555
781.558
763.309
763.313
745.7
745.703
728.7
728.703
712.269
712.272
696.358
696.361
680.916
680.919
665.902
665.905
651.283
651.286
637.038
637.041
623.155
623.158
609.63
609.633
596.462
596.464
583.648
583.651
571.187
571.189
559.074
559.076
547.3
547.302
535.854
535.856
524.721
524.724
513.887
513.889
503.335
503.337
493.049
493.051
483.015
483.017
473.225
473.226
463.671
463.672
454.352
454.353
445.269
445.27
436.429
436.43
427.84
427.84
419.509
419.509
411.447
411.447
403.662
403.661
396.16
396.159
388.947
388.946
382.023
382.022
375.388
375.386
369.037
369.035
362.961
362.959
357.149
357.146
351.583
351.579
346.24
346.236
341.094
341.089
336.112
336.106
331.255
331.249
326.482
326.475
321.747
321.74
317.008
317
312.223
312.216
307.36
307.353
302.396
302.392
297.328
297.326
292.164
292.164
286.93
286.932
281.668
281.671
276.431
276.434
271.277
271.279
266.264
266.266
261.441
261.443
256.846
256.847
252.494
252.495
248.386
248.385
244.493
244.492
240.777
240.776
237.189
237.187
233.673
233.672
230.179
230.178
226.661
226.66
223.084
223.085
219.428
219.431
215.683
215.687
211.848
211.852
207.933
207.938
203.957
203.961
199.942
199.947
195.916
195.92
191.903
191.907
187.931
187.934
184.023
184.026
180.201
180.203
176.482
176.484
172.884
172.886
169.417
169.419
166.092
166.093
162.915
162.916
159.891
159.892
157.019
157.02
154.298
154.298
151.721
151.721
149.277
149.277
146.95
146.95
144.72
144.719
142.56
142.559
140.439
140.438
138.324
138.323
136.181
136.18
133.977
133.976
131.685
131.683
129.284
129.283
126.767
126.766
124.139
124.137
121.416
121.415
118.624
118.625
115.795
115.796
112.965
112.965
110.167
110.167
107.43
107.43
104.771
104.772
102.199
102.199
99.7081
99.7081
97.2874
97.2874
94.9212
94.921
92.5942
92.5939
90.2948
90.2944
88.0172
88.0169
85.762
85.7619
83.5353
83.5354
81.3456
81.3458
79.2012
79.2015
77.1098
77.11
75.0771
75.0774
73.1066
73.1068
71.1995
71.1997
69.3558
69.356
67.5746
67.5748
65.855
65.8551
64.1959
64.196
62.5966
62.5967
61.0563
61.0564
59.5739
59.574
58.1479
58.148
56.7764
56.7765
55.457
55.4571
54.1874
54.1874
52.9649
52.9649
51.7872
51.7872
50.6523
50.6524
49.5586
49.5586
48.505
48.505
47.4907
47.4908
46.5157
46.5157
45.5797
45.5798
44.683
44.683
43.8255
43.8255
43.007
43.007
42.2272
42.2272
41.4852
41.4852
40.7801
40.7801
40.1108
40.1109
39.4762
39.4762
38.8751
38.8751
38.3064
38.3064
37.769
37.769
37.262
37.2621
36.7846
36.7846
36.3358
36.3358
35.9147
35.9147
35.5205
35.5205
35.1524
35.1524
34.8095
34.8095
34.491
34.491
34.1962
34.1962
33.9244
33.9244
33.6753
33.6753
33.4485
33.4485
33.2438
33.2438
33.0612
33.0612
32.9007
32.9007
32.7621
32.7621
32.6455
32.6455
32.5505
32.5506
32.477
32.477
32.4244
32.4244
32.3925
32.3925
32.3809
32.3809
32.3894
32.3894
32.418
32.418
32.4668
32.4668
32.5361
32.5361
32.6263
32.6263
32.738
32.738
32.8718
32.8718
33.0283
33.0283
33.2082
33.2082
33.412
33.412
33.6405
33.6405
33.8942
33.8942
34.1735
34.1735
34.4784
34.4784
34.8082
34.8082
35.1601
35.1601
35.5274
35.5274
35.8949
35.8949
36.231
36.231
36.4741
36.4741
36.4379
36.4379
1.52418e+06
1.52418e+06
263587
263584
87204.4
87201.6
42105.5
42105
26518
26518.5
19447
19447.7
15516
15516.8
13022.3
13023
11296.4
11297.1
10027.8
10028.4
9053.7
9054.28
8280.7
8281.24
7651.37
7651.88
7128.47
7128.93
6686.7
6687.14
6308.33
6308.74
5980.49
5980.88
5693.64
5694.01
5440.55
5440.89
5215.61
5215.94
5014.44
5014.76
4833.52
4833.82
4670
4670.3
4521.59
4521.87
4386.37
4386.64
4262.75
4263.01
4149.39
4149.64
4045.17
4045.41
3949.12
3949.36
3860.43
3860.66
3778.38
3778.6
3702.36
3702.58
3631.83
3632.05
3566.32
3566.54
3505.41
3505.62
3448.71
3448.92
3395.9
3396.11
3346.67
3346.88
3300.75
3300.95
3257.89
3258.1
3217.9
3218.1
3180.56
3180.76
3145.72
3145.92
3113.21
3113.41
3082.88
3083.08
3054.58
3054.78
3028.15
3028.36
3003.45
3003.65
2980.31
2980.51
2958.59
2958.8
2938.16
2938.37
2918.87
2919.09
2900.64
2900.86
2883.39
2883.61
2867.11
2867.34
2851.89
2852.12
2837.93
2838.17
2825.52
2825.76
2814.97
2815.23
2806.46
2806.72
2799.79
2800.06
2794.15
2794.43
2788.19
2788.47
2780.17
2780.45
2768.31
2768.6
2751.22
2751.5
2728.08
2728.36
2698.85
2699.12
2664.09
2664.34
2624.8
2625.04
2582.19
2582.42
2537.48
2537.69
2491.77
2491.96
2445.95
2446.13
2400.69
2400.86
2356.44
2356.6
2313.46
2313.61
2271.82
2271.97
2231.49
2231.63
2192.32
2192.45
2154.13
2154.25
2116.69
2116.8
2079.79
2079.89
2043.22
2043.31
2006.8
2006.88
1970.37
1970.43
1933.79
1933.84
1896.97
1897.02
1859.86
1859.9
1822.43
1822.46
1784.68
1784.71
1746.69
1746.71
1708.53
1708.55
1670.34
1670.36
1632.27
1632.28
1594.47
1594.48
1557.1
1557.11
1520.3
1520.31
1484.19
1484.2
1448.84
1448.84
1414.29
1414.3
1380.58
1380.58
1347.69
1347.7
1315.63
1315.63
1284.37
1284.37
1253.91
1253.91
1224.24
1224.24
1195.36
1195.36
1167.28
1167.28
1139.99
1139.99
1113.49
1113.49
1087.75
1087.75
1062.74
1062.74
1038.41
1038.41
1014.69
1014.69
991.505
991.504
968.782
968.78
946.452
946.451
924.469
924.466
902.808
902.805
881.479
881.476
860.516
860.513
839.978
839.974
819.931
819.928
800.441
800.438
781.558
781.554
763.312
763.309
745.702
745.699
728.703
728.7
712.272
712.269
696.36
696.357
680.919
680.916
665.904
665.901
651.285
651.282
637.04
637.037
623.157
623.155
609.633
609.63
596.464
596.461
583.65
583.647
571.189
571.186
559.075
559.073
547.301
547.299
535.855
535.853
524.723
524.721
513.889
513.887
503.336
503.334
493.05
493.048
483.016
483.015
473.226
473.224
463.671
463.67
454.352
454.351
445.27
445.269
436.429
436.429
427.839
427.839
419.508
419.508
411.446
411.446
403.661
403.661
396.159
396.159
388.945
388.946
382.021
382.022
375.385
375.387
369.034
369.036
362.958
362.961
357.145
357.148
351.578
351.582
346.235
346.239
341.088
341.093
336.105
336.111
331.248
331.254
326.474
326.481
321.739
321.747
317
317.008
312.215
312.223
307.353
307.359
302.391
302.396
297.325
297.327
292.164
292.163
286.932
286.93
281.671
281.668
276.433
276.431
271.279
271.276
266.265
266.263
261.443
261.441
256.846
256.845
252.494
252.493
248.385
248.385
244.491
244.492
240.775
240.776
237.186
237.187
233.67
233.672
230.176
230.178
226.659
226.659
223.084
223.083
219.43
219.427
215.686
215.682
211.852
211.847
207.937
207.932
203.961
203.956
199.946
199.942
195.919
195.915
191.907
191.903
187.934
187.931
184.026
184.023
180.203
180.2
176.484
176.482
172.885
172.883
169.418
169.417
166.093
166.092
162.916
162.915
159.891
159.89
157.019
157.018
154.297
154.297
151.72
151.72
149.275
149.276
146.948
146.949
144.718
144.718
142.557
142.558
140.436
140.437
138.322
138.323
136.178
136.18
133.974
133.976
131.682
131.684
129.282
129.284
126.765
126.767
124.137
124.138
121.415
121.415
118.625
118.624
115.796
115.795
112.966
112.965
110.168
110.167
107.43
107.43
104.772
104.771
102.199
102.198
99.7078
99.7078
97.287
97.2871
94.9206
94.9208
92.5934
92.5938
90.294
90.2944
88.0166
88.017
85.7616
85.7618
83.5353
83.5352
81.3458
81.3455
79.2015
79.2012
77.1101
77.1098
75.0774
75.0771
73.1069
73.1066
71.1998
71.1995
69.356
69.3558
67.5748
67.5746
65.8551
65.8549
64.196
64.1958
62.5967
62.5965
61.0564
61.0562
59.5739
59.5738
58.1479
58.1478
56.7764
56.7763
55.457
55.4569
54.1873
54.1872
52.9648
52.9647
51.7872
51.7871
50.6523
50.6522
49.5586
49.5585
48.505
48.5049
47.4908
47.4907
46.5157
46.5157
45.5798
45.5798
44.6831
44.683
43.8256
43.8255
43.0071
43.007
42.2272
42.2272
41.4852
41.4852
40.7801
40.7801
40.1109
40.1108
39.4762
39.4762
38.8751
38.8751
38.3064
38.3064
37.769
37.769
37.2621
37.262
36.7846
36.7846
36.3358
36.3358
35.9147
35.9147
35.5205
35.5205
35.1524
35.1524
34.8095
34.8094
34.491
34.4909
34.1962
34.1961
33.9244
33.9244
33.6753
33.6753
33.4485
33.4485
33.2439
33.2438
33.0612
33.0612
32.9007
32.9007
32.7621
32.7621
32.6455
32.6455
32.5505
32.5505
32.477
32.477
32.4244
32.4244
32.3925
32.3925
32.3809
32.3809
32.3894
32.3894
32.418
32.418
32.4668
32.4668
32.5361
32.5361
32.6263
32.6263
32.738
32.738
32.8718
32.8718
33.0283
33.0283
33.2081
33.2081
33.412
33.412
33.6404
33.6404
33.894
33.894
34.1732
34.1732
34.4781
34.4781
34.8078
34.8078
35.1596
35.1596
35.5268
35.5268
35.8942
35.8942
36.2303
36.2303
36.4734
36.4734
36.4373
36.4373
36.4379
36.4379
36.4741
36.4741
36.2311
36.2311
35.895
35.895
35.5275
35.5275
35.1603
35.1603
34.8084
34.8084
34.4786
34.4786
34.1737
34.1737
33.8944
33.8944
33.6407
33.6407
33.4122
33.4122
33.2083
33.2083
33.0285
33.0285
32.872
32.872
32.7382
32.7382
32.6265
32.6265
32.5363
32.5363
32.467
32.467
32.4182
32.4182
32.3896
32.3896
32.381
32.381
32.3927
32.3927
32.4246
32.4246
32.4771
32.4771
32.5507
32.5507
32.6456
32.6456
32.7622
32.7622
32.9007
32.9007
33.0613
33.0613
33.2438
33.2439
33.4485
33.4485
33.6753
33.6753
33.9243
33.9243
34.196
34.196
34.4907
34.4907
34.8091
34.8091
35.152
35.152
35.52
35.52
35.9141
35.9142
36.3352
36.3352
36.7839
36.7839
37.2613
37.2613
37.7682
37.7682
38.3055
38.3055
38.8741
38.8741
39.4751
39.4752
40.1097
40.1097
40.7788
40.7789
41.4838
41.4838
42.2257
42.2257
43.0055
43.0055
43.8238
43.8238
44.6812
44.6813
45.5778
45.5779
46.5137
46.5137
47.4886
47.4887
48.5027
48.5028
49.5562
49.5563
50.6498
50.6498
51.7845
51.7845
52.962
52.9621
54.1844
54.1844
55.4539
55.454
56.7732
56.7733
58.1447
58.1448
59.5706
59.5707
61.0529
61.053
62.5931
62.5932
64.1922
64.1924
65.8512
65.8514
67.5708
67.571
69.3519
69.3521
71.1955
71.1957
73.1025
73.1027
75.0729
75.0731
77.1054
77.1057
79.1967
79.197
81.341
81.3413
83.5309
83.531
85.7577
85.7576
88.0132
88.0129
90.2911
90.2907
92.5907
92.5904
94.918
94.9178
97.2844
97.2844
99.7052
99.7053
102.196
102.196
104.769
104.769
107.427
107.428
110.165
110.165
112.963
112.963
115.793
115.794
118.623
118.623
121.415
121.415
124.138
124.137
126.767
126.765
129.284
129.282
131.684
131.682
133.976
133.975
136.18
136.179
138.323
138.322
140.438
140.437
142.558
142.558
144.718
144.718
146.949
146.948
149.275
149.275
151.719
151.719
154.296
154.296
157.016
157.017
159.888
159.889
162.912
162.913
166.088
166.09
169.413
169.415
172.879
172.881
176.478
176.48
180.196
180.198
184.018
184.021
187.925
187.929
191.897
191.901
195.909
195.913
199.936
199.94
203.95
203.955
207.926
207.931
211.84
211.845
215.675
215.679
219.42
219.423
223.076
223.077
226.652
226.651
230.17
230.168
233.663
233.662
237.178
237.177
240.767
240.765
244.482
244.482
248.375
248.375
252.483
252.484
256.835
256.836
261.43
261.432
266.252
266.255
271.265
271.268
276.419
276.422
281.657
281.66
286.919
286.921
292.152
292.153
297.316
297.314
302.385
302.381
307.348
307.342
312.211
312.204
316.996
316.988
321.735
321.727
326.469
326.462
331.242
331.235
336.099
336.092
341.081
341.075
346.226
346.221
351.568
351.564
357.134
357.13
362.946
362.943
369.021
369.018
375.371
375.369
382.006
382.004
388.928
388.927
396.141
396.14
403.642
403.642
411.426
411.426
419.487
419.488
427.817
427.817
436.405
436.406
445.244
445.245
454.325
454.326
463.643
463.644
473.195
473.197
482.984
482.986
493.016
493.017
503.3
503.302
513.851
513.853
524.683
524.685
535.814
535.816
547.259
547.261
559.031
559.034
571.143
571.146
583.603
583.605
596.415
596.418
609.582
609.585
623.105
623.108
636.985
636.988
651.227
651.23
665.844
665.847
680.855
680.859
696.294
696.298
712.203
712.206
728.632
728.635
745.629
745.633
763.236
763.24
781.479
781.483
800.36
800.364
819.848
819.852
839.893
839.896
860.429
860.433
881.39
881.393
902.718
902.721
924.377
924.38
946.359
946.362
968.688
968.69
991.41
991.412
1014.59
1014.59
1038.31
1038.31
1062.64
1062.64
1087.65
1087.65
1113.38
1113.38
1139.88
1139.88
1167.17
1167.17
1195.25
1195.25
1224.13
1224.13
1253.8
1253.79
1284.26
1284.25
1315.51
1315.51
1347.58
1347.57
1380.46
1380.45
1414.17
1414.17
1448.72
1448.71
1484.07
1484.06
1520.18
1520.17
1556.98
1556.97
1594.34
1594.33
1632.14
1632.13
1670.22
1670.2
1708.41
1708.39
1746.57
1746.54
1784.57
1784.54
1822.32
1822.29
1859.76
1859.72
1896.88
1896.83
1933.69
1933.64
1970.28
1970.21
2006.72
2006.64
2043.15
2043.06
2079.72
2079.62
2116.63
2116.51
2154.07
2153.94
2192.26
2192.13
2231.43
2231.29
2271.77
2271.62
2313.41
2313.25
2356.39
2356.22
2400.64
2400.47
2445.91
2445.72
2491.74
2491.54
2537.47
2537.25
2582.19
2581.96
2624.81
2624.56
2664.12
2663.85
2698.9
2698.63
2728.16
2727.87
2751.31
2751.01
2768.41
2768.12
2780.27
2779.97
2788.29
2787.99
2794.25
2793.96
2799.88
2799.61
2806.55
2806.27
2815.05
2814.79
2825.58
2825.33
2837.99
2837.74
2851.95
2851.71
2867.16
2866.93
2883.44
2883.21
2900.69
2900.47
2918.93
2918.71
2938.21
2938
2958.65
2958.44
2980.37
2980.16
3003.51
3003.3
3028.22
3028.01
3054.65
3054.44
3082.95
3082.74
3113.28
3113.07
3145.79
3145.59
3180.64
3180.43
3217.97
3217.76
3257.97
3257.76
3300.82
3300.61
3346.74
3346.53
3395.97
3395.76
3448.78
3448.57
3505.48
3505.26
3566.39
3566.16
3631.9
3631.67
3702.42
3702.19
3778.44
3778.2
3860.48
3860.24
3949.18
3948.93
4045.22
4044.97
4149.44
4149.18
4262.8
4262.53
4386.42
4386.14
4521.64
4521.35
4670.05
4669.75
4833.56
4833.25
5014.48
5014.15
5215.65
5215.31
5440.58
5440.22
5693.67
5693.29
5980.52
5980.12
6308.36
6307.93
6686.73
6686.28
7128.49
7128.01
7651.4
7650.88
8280.72
8280.16
9053.72
9053.12
10027.8
10027.2
11296.4
11295.7
13022.2
13021.5
15515.9
15515.2
19446.8
19446
26517.5
26517
42104.3
42104.8
87202
87204.9
263585
263588
1.52419e+06
1.52419e+06
36.4373
36.4373
36.4734
36.4734
36.2304
36.2304
35.8944
35.8944
35.527
35.527
35.1598
35.1598
34.808
34.808
34.4783
34.4784
34.1735
34.1735
33.8942
33.8942
33.6406
33.6406
33.4121
33.4121
33.2083
33.2083
33.0284
33.0284
32.872
32.872
32.7382
32.7382
32.6265
32.6265
32.5363
32.5363
32.467
32.467
32.4181
32.4181
32.3895
32.3895
32.381
32.381
32.3926
32.3926
32.4246
32.4246
32.4771
32.4771
32.5506
32.5506
32.6456
32.6456
32.7622
32.7622
32.9007
32.9007
33.0613
33.0613
33.2439
33.2439
33.4485
33.4485
33.6753
33.6753
33.9243
33.9243
34.196
34.196
34.4907
34.4907
34.8091
34.8091
35.152
35.1519
35.52
35.52
35.9141
35.9141
36.3352
36.3351
36.7839
36.7839
37.2613
37.2613
37.7682
37.7682
38.3055
38.3054
38.8741
38.8741
39.4752
39.4751
40.1097
40.1097
40.7789
40.7788
41.4839
41.4838
42.2258
42.2257
43.0055
43.0055
43.8239
43.8238
44.6813
44.6813
45.5779
45.5779
46.5137
46.5137
47.4887
47.4886
48.5027
48.5027
49.5562
49.5562
50.6497
50.6497
51.7844
51.7844
52.9619
52.9619
54.1843
54.1842
55.4539
55.4538
56.7732
56.7731
58.1447
58.1446
59.5706
59.5705
61.0529
61.0528
62.5931
62.593
64.1923
64.1922
65.8513
65.8512
67.571
67.5708
69.3521
69.3519
71.1957
71.1955
73.1027
73.1025
75.0732
75.0729
77.1057
77.1054
79.197
79.1967
81.3412
81.341
83.5308
83.5308
85.7574
85.7576
88.0126
88.013
90.2903
90.2907
92.59
92.5903
94.9173
94.9176
97.284
97.2841
99.705
99.7049
102.196
102.196
104.769
104.769
107.428
107.427
110.165
110.165
112.964
112.963
115.795
115.794
118.624
118.623
121.415
121.415
124.137
124.138
126.765
126.767
129.281
129.283
131.681
131.683
133.973
133.975
136.177
136.179
138.321
138.322
140.435
140.436
142.556
142.557
144.717
144.717
146.947
146.947
149.274
149.274
151.718
151.718
154.295
154.295
157.016
157.016
159.888
159.887
162.912
162.911
166.089
166.088
169.414
169.413
172.881
172.879
176.48
176.477
180.198
180.195
184.02
184.017
187.928
187.925
191.901
191.897
195.913
195.909
199.94
199.935
203.954
203.949
207.93
207.925
211.844
211.839
215.679
215.674
219.422
219.419
223.076
223.075
226.65
226.651
230.167
230.169
233.661
233.662
237.176
237.177
240.764
240.766
244.481
244.481
248.374
248.374
252.483
252.483
256.835
256.834
261.432
261.43
266.254
266.252
271.268
271.265
276.422
276.419
281.66
281.657
286.921
286.918
292.152
292.152
297.314
297.316
302.38
302.385
307.341
307.348
312.203
312.211
316.987
316.996
321.727
321.735
326.461
326.469
331.235
331.242
336.092
336.098
341.074
341.08
346.221
346.226
351.563
351.568
357.13
357.133
362.942
362.945
369.018
369.02
375.369
375.371
382.003
382.005
388.927
388.928
396.14
396.14
403.641
403.641
411.425
411.425
419.487
419.487
427.817
427.816
436.406
436.405
445.245
445.243
454.326
454.324
463.643
463.642
473.196
473.194
482.985
482.983
493.017
493.015
503.301
503.299
513.852
513.85
524.685
524.683
535.816
535.813
547.26
547.258
559.033
559.03
571.145
571.142
583.605
583.602
596.417
596.414
609.585
609.582
623.108
623.105
636.988
636.985
651.23
651.227
665.847
665.843
680.858
680.855
696.297
696.294
712.206
712.203
728.635
728.631
745.632
745.629
763.24
763.236
781.483
781.479
800.364
800.36
819.851
819.848
839.896
839.893
860.432
860.429
881.393
881.39
902.72
902.718
924.379
924.377
946.362
946.36
968.689
968.688
991.411
991.41
1014.59
1014.59
1038.31
1038.31
1062.64
1062.64
1087.65
1087.65
1113.38
1113.38
1139.88
1139.88
1167.17
1167.17
1195.25
1195.25
1224.13
1224.13
1253.79
1253.8
1284.25
1284.26
1315.51
1315.51
1347.57
1347.58
1380.45
1380.46
1414.17
1414.17
1448.71
1448.72
1484.06
1484.07
1520.17
1520.18
1556.97
1556.98
1594.33
1594.34
1632.13
1632.14
1670.2
1670.22
1708.39
1708.41
1746.54
1746.57
1784.54
1784.57
1822.29
1822.32
1859.72
1859.76
1896.83
1896.88
1933.64
1933.7
1970.21
1970.28
2006.64
2006.72
2043.06
2043.15
2079.62
2079.73
2116.51
2116.63
2153.94
2154.07
2192.13
2192.27
2231.29
2231.44
2271.62
2271.77
2313.25
2313.41
2356.22
2356.39
2400.47
2400.65
2445.72
2445.91
2491.54
2491.74
2537.25
2537.47
2581.96
2582.19
2624.56
2624.81
2663.86
2664.12
2698.63
2698.91
2727.87
2728.16
2751.01
2751.31
2768.12
2768.42
2779.97
2780.27
2788
2788.29
2793.96
2794.25
2799.61
2799.89
2806.28
2806.55
2814.79
2815.05
2825.33
2825.59
2837.74
2837.99
2851.71
2851.95
2866.93
2867.17
2883.21
2883.44
2900.47
2900.7
2918.71
2918.93
2938
2938.22
2958.44
2958.65
2980.16
2980.37
3003.3
3003.51
3028.01
3028.22
3054.44
3054.65
3082.74
3082.95
3113.08
3113.29
3145.59
3145.8
3180.43
3180.64
3217.76
3217.97
3257.76
3257.97
3300.61
3300.83
3346.53
3346.75
3395.76
3395.98
3448.57
3448.79
3505.26
3505.48
3566.17
3566.39
3631.67
3631.9
3702.19
3702.42
3778.2
3778.44
3860.24
3860.49
3948.93
3949.18
4044.97
4045.22
4149.18
4149.45
4262.53
4262.8
4386.14
4386.43
4521.35
4521.65
4669.75
4670.06
4833.25
4833.56
5014.16
5014.49
5215.31
5215.66
5440.22
5440.59
5693.29
5693.68
5980.12
5980.52
6307.93
6308.36
6686.28
6686.74
7128.01
7128.5
7650.88
7651.4
8280.16
8280.72
9053.12
9053.72
10027.2
10027.8
11295.7
11296.4
13021.5
13022.2
15515.2
15515.9
19446
19446.8
26517
26517.5
42104.8
42104.3
87204.9
87202
263588
263585
1.52419e+06
1.52419e+06
)
;

boundaryField
{
    walls
    {
        blending        binomial2;
        n               2;
        beta1           0.075;
        type            omegaWallFunction;
        value           nonuniform List<scalar> 8(1.52418e+06 1.52418e+06 1.52418e+06 1.52418e+06 1.52419e+06 1.52419e+06 1.52419e+06 1.52419e+06);
    }
    inlet
    {
        type            cyclic;
    }
    outlet
    {
        type            cyclic;
    }
    sides
    {
        type            empty;
    }
}


// ************************************************************************* //
