/*--------------------------------*- C++ -*----------------------------------*\
| =========                 |                                                 |
| \\      /  F ield         | OpenFOAM: The Open Source CFD Toolbox           |
|  \\    /   O peration     | Version:  2012                                  |
|   \\  /    A nd           | Website:  www.openfoam.com                      |
|    \\/     M anipulation  |                                                 |
\*---------------------------------------------------------------------------*/
FoamFile
{
    version     2.0;
    format      ascii;
    class       volScalarField;
    location    "13300";
    object      p;
}
// * * * * * * * * * * * * * * * * * * * * * * * * * * * * * * * * * * * * * //

dimensions      [0 2 -2 0 0 0 0];


internalField   nonuniform List<scalar> 
2560
(
-3.37051e-09
-1.21541
-3.707e-05
-1.21543
-3.91011e-05
-1.21544
-3.04884e-05
-1.21544
-2.81021e-05
-1.21545
-2.74949e-05
-1.21545
-2.68254e-05
-1.21545
-2.66742e-05
-1.21545
-2.5956e-05
-1.21545
-2.59155e-05
-1.21545
-2.50092e-05
-1.21545
-2.50448e-05
-1.21545
-2.75846e-05
-1.21545
-3.91215e-05
-1.21472
-9.15055e-05
-1.21556
-0.000175441
-1.21354
-0.00036363
-1.21613
-0.000569817
-1.21614
-0.000833285
-1.21701
-0.00106132
-1.21703
-0.0013492
-1.21798
-0.00157705
-1.21799
-0.00187334
-1.21899
-0.00209393
-1.21573
-0.00247374
-1.22026
-0.00283241
-1.21563
-0.00346413
-1.22222
-0.00404976
-1.22228
-0.00492085
-1.22476
-0.00561623
-1.22488
-0.00658205
-1.22756
-0.00722054
-1.22767
-0.00815216
-1.23031
-0.00862055
-1.23037
-0.0095023
-1.23289
-0.00986421
-1.22664
-0.0109032
-1.23575
-0.0114143
-1.20929
-0.0129091
-1.2401
-0.0138059
-1.20566
-0.0159097
-1.24658
-0.0172383
-1.22028
-0.0198742
-1.25488
-0.0214757
-1.24566
-0.0244291
-1.26412
-0.0261015
-1.26257
-0.0292395
-1.27377
-0.0309191
-1.26834
-0.0343133
-1.28395
-0.0361834
-1.20139
-0.0401744
-1.29717
-0.0431728
-1.23573
-0.0495763
-1.31541
-0.0572917
-1.31683
-0.0714847
-1.34622
-0.0913385
-1.3525
-0.121491
-1.4056
-0.160658
-1.42058
-0.209945
-1.5041
-0.265321
-1.52778
-0.322636
-1.62762
-0.376247
-1.65271
-0.419397
-1.73578
-0.449626
-1.75137
-0.462106
-1.79006
-0.460839
-1.78837
-0.443982
-1.74822
-0.420189
-1.73696
-0.388086
-1.67705
-0.356894
-1.66347
-0.323462
-1.60425
-0.295278
-1.59213
-0.267481
-0.263405
-0.245733
-0.250349
-0.224836
-0.220885
-0.209254
-0.211709
-0.194304
-0.190401
-0.183805
-0.184006
-0.17369
-0.169791
-0.167259
-0.165639
-0.160955
-0.157041
-0.157637
-0.154629
-0.154125
-0.150193
-0.152934
-0.149016
-0.151288
-0.147348
-0.151528
-0.146997
-0.15147
-0.147323
-0.152826
-0.14864
-0.154343
-0.150204
-0.157465
-0.153295
-0.161207
-0.157079
-0.166843
-0.162692
-0.173494
-0.169382
-0.18215
-0.178021
-0.191889
-0.187797
-0.203364
-0.199261
-0.215577
-0.211509
-0.228886
-0.224812
-0.2423
-0.238258
-0.256041
-0.251997
-0.269248
-0.265234
-0.282165
-0.278153
-0.294145
-0.290161
-0.305522
-0.301543
-0.315875
-0.311922
-0.325601
-0.321654
-0.334429
-0.330508
-0.34276
-0.338847
-0.350395
-0.346505
-0.357693
-0.353813
-0.364488
-0.360632
-0.371099
-0.367254
-0.377404
-0.373583
-0.383698
-0.37989
-0.389908
-0.386124
-0.396336
-0.392568
-0.40294
-0.399196
-0.409983
-0.406257
-0.417442
-0.413742
-0.425544
-0.421865
-0.434275
-0.430624
-0.443855
-0.440227
-0.454317
-0.450719
-0.465928
-0.462355
-0.478821
-0.475278
-0.493349
-0.489834
-0.50976
-0.506276
-0.528467
-0.525012
-0.549755
-0.546331
-0.573977
-0.570583
-0.601286
-0.597923
-0.631798
-0.628464
-0.665347
-0.662044
-0.701636
-0.698362
-0.740067
-0.736824
-0.779925
-0.77671
-0.820262
-0.817077
-0.860113
-0.856957
-0.898449
-0.895321
-0.934387
-0.931287
-0.96715
-0.964079
-0.996233
-0.993189
-1.02132
-1.0183
-1.04239
-1.0394
-1.05957
-1.05661
-1.07322
-1.07028
-1.08375
-1.08084
-1.09168
-1.0888
-1.09748
-1.09462
-1.10163
-1.0988
-1.10452
-1.10171
-1.1065
-1.10371
-1.10782
-1.10505
-1.10869
-1.10594
-1.10925
-1.10652
-1.10961
-1.1069
-1.10983
-1.10715
-1.10997
-1.1073
-1.11004
-1.10739
-1.11007
-1.10745
-1.11007
-1.10747
-1.11005
-1.10745
-1.11
-1.10743
-1.10994
-1.10738
-1.10987
-1.10733
-1.10979
-1.10727
-1.1097
-1.10719
-1.10961
-1.10711
-1.10952
-1.10703
-1.10942
-1.10695
-1.10933
-1.10687
-1.10925
-1.10679
-1.10917
-1.10672
-1.1091
-1.10665
-1.10903
-1.10659
-1.10898
-1.10654
-1.10893
-1.10649
-1.1089
-1.10646
-1.10886
-1.10643
-1.10883
-1.10641
-1.10881
-1.1064
-1.10879
-1.10639
-1.10877
-1.10638
-1.10876
-1.10638
-1.10874
-1.10638
-1.10873
-1.10637
-1.10871
-1.10637
-1.10869
-1.10636
-1.10866
-1.10633
-1.10862
-1.1063
-1.10856
-1.10625
-1.10848
-1.10618
-1.10838
-1.10607
-1.10823
-1.10593
-1.10803
-1.10573
-1.10776
-1.10547
-1.1074
-1.10512
-1.10694
-1.10467
-1.10635
-1.10409
-1.1056
-1.10336
-1.10467
-1.10245
-1.10354
-1.10134
-1.10217
-1.09999
-1.10054
-1.09839
-1.09863
-1.09651
-1.09643
-1.09433
-1.09391
-1.09184
-1.09109
-1.08905
-1.08796
-1.08596
-1.08455
-1.08257
-1.08086
-1.07892
-1.07694
-1.07502
-1.0728
-1.07092
-1.06847
-1.06662
-1.06399
-1.06217
-1.05936
-1.05758
-1.05462
-1.05286
-1.04976
-1.04803
-1.04479
-1.04308
-1.03969
-1.038
-1.03446
-1.03279
-1.02908
-1.02743
-1.02354
-1.0219
-1.01783
-1.0162
-1.01196
-1.01032
-1.00591
-1.00428
-0.999718
-0.99809
-0.993384
-0.991763
-0.986963
-0.985353
-0.980456
-0.978856
-0.973929
-0.972344
-0.967377
-0.965805
-0.960867
-0.95931
-0.954377
-0.952835
-0.947967
-0.946438
-0.941594
-0.940077
-0.935312
-0.933806
-0.92906
-0.927561
-0.922892
-0.921399
-0.916731
-0.915241
-0.910641
-0.909154
-0.904531
-0.903042
-0.898478
-0.896995
-0.892386
-0.890904
-0.886349
-0.884876
-0.880255
-0.878784
-0.874219
-0.872758
-0.868108
-0.86665
-0.862058
-0.860611
-0.855911
-0.854465
-0.849821
-0.848387
-0.843604
-0.84217
-0.83744
-0.836019
-0.831116
-0.829694
-0.824841
-0.823433
-0.818369
-0.816961
-0.811951
-0.810561
-0.805306
-0.803915
-0.798728
-0.797358
-0.791892
-0.790522
-0.785146
-0.783801
-0.778112
-0.776768
-0.771196
-0.769883
-0.763966
-0.762654
-0.756885
-0.755609
-0.749461
-0.748185
-0.742231
-0.740998
-0.734627
-0.733392
-0.72727
-0.726084
-0.719512
-0.71832
-0.712066
-0.710931
-0.704193
-0.703045
-0.696703
-0.695621
-0.688756
-0.687651
-0.681268
-0.680239
-0.673279
-0.672217
-0.665824
-0.664849
-0.657808
-0.656786
-0.650393
-0.649474
-0.642339
-0.641356
-0.634955
-0.63409
-0.626837
-0.62589
-0.619464
-0.618655
-0.611263
-0.61035
-0.603902
-0.603148
-0.595624
-0.59474
-0.588309
-0.58761
-0.580002
-0.579143
-0.572811
-0.572166
-0.564556
-0.563719
-0.557596
-0.557005
-0.549495
-0.548675
-0.542873
-0.542338
-0.535015
-0.534209
-0.528818
-0.528344
-0.521267
-0.520473
-0.515548
-0.515142
-0.508327
-0.507543
-0.503097
-0.502773
-0.496201
-0.495424
-0.49144
-0.491213
-0.484837
-0.484058
-0.480499
-0.480385
-0.474143
-0.473348
-0.470166
-0.470193
-0.464012
-0.463203
-0.460331
-0.460563
-0.45434
-0.453478
-0.450903
-0.4511
-0.445098
-0.442067
-0.44193
-0.439935
-0.436447
-0.43127
-0.433632
-0.429253
-0.428711
-0.423339
-0.426437
-0.421623
-0.42242
-0.416794
-0.420903
-0.415514
-0.418199
-0.41218
-0.417567
-0.411484
-0.416622
-0.409923
-1.21886
-0.000502433
-1.21889
-0.000539498
-1.2189
-0.000541526
-1.2189
-0.000532923
-1.2189
-0.000530518
-1.2189
-0.000529916
-1.2189
-0.000529173
-1.2189
-0.000529022
-1.2189
-0.000528211
-1.2189
-0.000528154
-1.2189
-0.000527167
-1.2189
-0.000527148
-1.2189
-0.000529618
-1.21817
-0.000541112
-1.21902
-0.000593634
-1.21699
-0.000677237
-1.21958
-0.000865536
-1.21959
-0.00107138
-1.22047
-0.00133494
-1.22048
-0.00156261
-1.22143
-0.00185055
-1.22145
-0.00207803
-1.22245
-0.00237432
-1.21918
-0.00259458
-1.22372
-0.00297432
-1.21909
-0.00333267
-1.22568
-0.00396428
-1.22573
-0.00454958
-1.22821
-0.00542053
-1.22833
-0.00611559
-1.23101
-0.00708124
-1.23113
-0.00771939
-1.23376
-0.00865081
-1.23382
-0.00911887
-1.23634
-0.0100004
-1.2301
-0.010362
-1.23921
-0.0114007
-1.21275
-0.0119115
-1.24356
-0.013406
-1.20911
-0.0143024
-1.25003
-0.016406
-1.22374
-0.0177342
-1.25833
-0.0203698
-1.24911
-0.0219709
-1.26757
-0.0249241
-1.26602
-0.026596
-1.27722
-0.0297338
-1.27179
-0.0314129
-1.2874
-0.0348068
-1.20485
-0.0366765
-1.30062
-0.0406672
-1.23918
-0.0436652
-1.31886
-0.0500683
-1.32028
-0.0577833
-1.34967
-0.071976
-1.35595
-0.0918293
-1.40905
-0.121981
-1.42403
-0.161148
-1.50756
-0.210434
-1.53123
-0.26581
-1.63107
-0.323125
-1.65616
-0.376735
-1.73923
-0.419886
-1.75482
-0.450114
-1.79351
-0.462594
-1.79182
-0.461325
-1.75167
-0.444468
-1.74041
-0.420675
-1.6805
-0.388571
-1.66692
-0.357379
-1.6077
-0.323947
-1.59558
-0.295762
-0.266853
-0.267965
-0.253798
-0.246217
-0.224333
-0.225319
-0.215157
-0.209737
-0.193849
-0.194787
-0.187454
-0.184287
-0.173239
-0.174172
-0.169087
-0.16774
-0.160489
-0.161436
-0.158077
-0.158118
-0.153641
-0.154605
-0.152463
-0.153414
-0.150796
-0.151768
-0.150445
-0.152007
-0.15077
-0.151948
-0.152088
-0.153305
-0.153651
-0.154821
-0.156742
-0.157943
-0.160526
-0.161684
-0.166138
-0.16732
-0.172829
-0.173971
-0.181467
-0.182626
-0.191243
-0.192364
-0.202707
-0.203839
-0.214955
-0.216052
-0.228258
-0.229361
-0.241704
-0.242774
-0.255443
-0.256515
-0.26868
-0.269721
-0.281599
-0.282638
-0.293607
-0.294618
-0.304987
-0.305994
-0.315367
-0.316347
-0.325099
-0.326072
-0.333953
-0.334901
-0.342291
-0.343231
-0.34995
-0.350865
-0.357257
-0.358162
-0.364076
-0.364958
-0.370697
-0.371568
-0.377027
-0.377873
-0.383333
-0.384166
-0.389567
-0.390376
-0.39601
-0.396803
-0.40264
-0.403407
-0.409699
-0.410449
-0.417186
-0.417908
-0.425306
-0.426009
-0.434067
-0.434741
-0.443668
-0.44432
-0.454162
-0.454782
-0.465795
-0.466392
-0.478721
-0.479284
-0.493273
-0.493811
-0.509719
-0.510223
-0.52845
-0.528928
-0.549774
-0.550217
-0.57402
-0.574437
-0.601366
-0.601747
-0.631901
-0.632257
-0.665487
-0.665807
-0.701797
-0.702094
-0.740268
-0.740527
-0.780144
-0.780382
-0.820521
-0.82072
-0.860389
-0.860569
-0.898766
-0.898907
-0.934718
-0.934841
-0.967525
-0.967607
-0.996618
-0.996686
-1.02175
-1.02178
-1.04282
-1.04284
-1.06006
-1.06002
-1.07371
-1.07367
-1.08429
-1.08421
-1.09222
-1.09213
-1.09808
-1.09794
-1.10221
-1.10208
-1.10516
-1.10497
-1.10712
-1.10695
-1.10851
-1.10827
-1.10935
-1.10913
-1.10999
-1.1097
-1.1103
-1.11005
-1.11062
-1.11028
-1.11072
-1.11041
-1.11087
-1.11049
-1.11091
-1.11052
-1.11095
-1.11052
-1.11094
-1.11049
-1.11089
-1.11044
-1.11086
-1.11038
-1.11077
-1.11031
-1.11074
-1.11023
-1.11062
-1.11014
-1.11058
-1.11005
-1.11045
-1.10996
-1.11041
-1.10987
-1.11029
-1.10977
-1.11025
-1.10969
-1.11014
-1.1096
-1.11011
-1.10954
-1.11002
-1.10947
-1.10999
-1.10942
-1.10992
-1.10937
-1.10991
-1.10933
-1.10986
-1.1093
-1.10985
-1.10927
-1.10983
-1.10925
-1.10983
-1.10923
-1.10981
-1.10921
-1.10981
-1.10919
-1.1098
-1.10918
-1.1098
-1.10916
-1.10979
-1.10914
-1.10978
-1.10912
-1.10975
-1.10909
-1.10973
-1.10905
-1.10964
-1.10899
-1.1096
-1.10892
-1.10945
-1.10881
-1.10935
-1.10866
-1.10911
-1.10846
-1.10888
-1.10819
-1.1085
-1.10783
-1.10808
-1.10737
-1.10747
-1.10678
-1.10677
-1.10603
-1.10584
-1.1051
-1.10475
-1.10396
-1.10338
-1.1026
-1.10179
-1.10097
-1.0999
-1.09906
-1.09773
-1.09685
-1.09524
-1.09434
-1.09246
-1.09151
-1.08935
-1.08839
-1.08598
-1.08497
-1.08232
-1.08129
-1.07843
-1.07735
-1.07432
-1.07322
-1.07003
-1.06888
-1.06558
-1.06441
-1.06098
-1.05978
-1.05627
-1.05505
-1.05144
-1.05017
-1.0465
-1.04521
-1.04141
-1.0401
-1.03621
-1.03489
-1.03083
-1.02949
-1.02532
-1.02397
-1.0196
-1.01824
-1.01374
-1.01238
-1.00768
-1.00631
-1.00151
-1.00014
-0.995167
-0.993785
-0.988776
-0.987388
-0.982259
-0.980855
-0.97577
-0.974354
-0.969208
-0.967773
-0.96274
-0.961292
-0.956237
-0.954771
-0.949871
-0.948393
-0.943479
-0.941984
-0.937242
-0.935738
-0.930962
-0.929448
-0.924838
-0.92332
-0.91864
-0.917116
-0.912594
-0.911071
-0.906439
-0.904914
-0.900439
-0.898911
-0.894299
-0.892767
-0.888322
-0.886784
-0.882178
-0.880633
-0.876208
-0.874656
-0.870042
-0.868483
-0.864064
-0.862497
-0.857856
-0.856282
-0.851844
-0.850262
-0.84556
-0.843971
-0.83948
-0.837884
-0.833082
-0.831479
-0.826899
-0.825286
-0.820348
-0.818727
-0.814031
-0.812399
-0.807302
-0.80566
-0.800834
-0.799177
-0.793909
-0.79224
-0.787283
-0.785595
-0.780157
-0.778453
-0.773372
-0.771645
-0.766046
-0.764299
-0.759107
-0.757332
-0.751583
-0.749784
-0.744506
-0.742674
-0.736797
-0.734939
-0.729602
-0.727707
-0.721734
-0.719812
-0.714461
-0.712497
-0.706471
-0.704479
-0.699163
-0.697127
-0.69109
-0.689028
-0.683792
-0.681683
-0.67567
-0.673536
-0.668413
-0.666228
-0.660257
-0.65805
-0.653048
-0.650787
-0.644846
-0.642566
-0.637674
-0.635336
-0.629401
-0.627049
-0.622246
-0.619832
-0.613883
-0.61146
-0.606745
-0.604255
-0.598298
-0.595805
-0.59121
-0.588647
-0.582727
-0.58017
-0.575766
-0.573132
-0.567331
-0.564711
-0.560602
-0.5579
-0.552317
-0.549637
-0.545929
-0.543159
-0.537884
-0.535145
-0.531926
-0.529084
-0.524187
-0.521384
-0.518715
-0.515791
-0.511305
-0.508429
-0.506337
-0.503317
-0.499245
-0.496284
-0.494768
-0.491634
-0.487955
-0.484893
-0.483934
-0.480663
-0.477339
-0.474161
-0.473729
-0.470297
-0.467284
-0.463978
-0.464038
-0.460425
-0.457686
-0.454239
-0.454793
-0.450965
-0.448526
-0.444921
-0.446042
-0.441972
-0.439934
-0.436162
-0.438019
-0.433662
-0.405702
-0.428279
-0.404009
-0.426337
-0.399246
-0.421953
-0.397986
-0.420672
-0.39471
-0.417708
-0.394035
-0.417201
-0.392511
-0.41613
-0.416637
-0.409901
-0.41764
-0.411407
-0.418283
-0.412088
-0.421031
-0.415388
-0.422552
-0.416657
-0.426602
-0.421461
-0.42888
-0.423165
-0.43383
-0.429046
-0.436641
-0.431039
-0.442158
-0.437623
-0.445314
-0.439796
-0.451167
-0.453001
-0.454585
-0.455309
-0.460615
-0.462221
-0.464297
-0.464996
-0.470478
-0.471878
-0.47446
-0.475124
-0.48083
-0.482059
-0.485176
-0.485799
-0.491786
-0.492873
-0.496555
-0.49714
-0.503451
-0.504419
-0.508689
-0.509238
-0.515906
-0.516774
-0.521635
-0.522149
-0.529187
-0.52997
-0.53539
-0.535871
-0.543248
-0.543957
-0.549879
-0.550326
-0.557973
-0.558613
-0.564949
-0.565361
-0.5732
-0.573772
-0.580404
-0.580777
-0.588705
-0.58921
-0.596034
-0.596364
-0.604304
-0.604739
-0.611674
-0.611956
-0.619877
-0.620241
-0.627254
-0.627486
-0.635377
-0.635671
-0.642766
-0.642944
-0.650822
-0.651046
-0.658242
-0.658365
-0.66626
-0.666416
-0.673718
-0.673785
-0.681712
-0.6818
-0.689201
-0.689211
-0.69715
-0.697172
-0.704644
-0.704597
-0.71252
-0.712476
-0.719967
-0.719863
-0.727732
-0.727627
-0.735091
-0.734933
-0.74269
-0.742528
-0.749929
-0.749721
-0.757352
-0.757138
-0.76444
-0.764187
-0.771666
-0.771408
-0.778584
-0.778293
-0.785615
-0.785319
-0.792373
-0.792052
-0.799203
-0.798879
-0.805786
-0.80544
-0.812429
-0.812081
-0.81885
-0.818485
-0.825315
-0.824949
-0.831588
-0.831208
-0.837921
-0.837539
-0.844082
-0.843688
-0.850304
-0.849908
-0.856386
-0.855979
-0.86253
-0.862121
-0.868586
-0.868165
-0.874692
-0.874268
-0.880729
-0.880294
-0.886824
-0.886387
-0.892867
-0.89242
-0.898961
-0.898513
-0.905017
-0.904562
-0.911124
-0.910672
-0.917209
-0.916755
-0.923372
-0.922915
-0.929536
-0.929072
-0.935787
-0.935316
-0.942075
-0.941592
-0.948441
-0.947946
-0.954849
-0.954339
-0.96135
-0.960825
-0.967857
-0.967316
-0.9744
-0.973844
-0.980934
-0.980364
-0.987441
-0.986858
-0.993858
-0.993265
-1.00019
-0.999594
-1.0064
-1.00579
-1.01244
-1.01184
-1.01831
-1.0177
-1.02403
-1.02341
-1.02956
-1.02893
-1.03494
-1.0343
-1.04017
-1.03951
-1.04528
-1.04459
-1.05025
-1.04953
-1.05511
-1.05437
-1.05986
-1.05909
-1.06447
-1.06367
-1.06895
-1.06811
-1.07329
-1.07242
-1.07742
-1.07652
-1.08135
-1.08041
-1.08503
-1.08406
-1.08845
-1.08745
-1.09157
-1.09054
-1.0944
-1.09334
-1.09692
-1.09582
-1.09912
-1.09799
-1.10103
-1.09987
-1.10266
-1.10148
-1.10403
-1.10282
-1.10517
-1.10394
-1.10609
-1.10485
-1.10684
-1.10558
-1.10743
-1.10615
-1.1079
-1.10661
-1.10825
-1.10695
-1.10852
-1.10722
-1.10872
-1.10741
-1.10887
-1.10756
-1.10898
-1.10767
-1.10906
-1.10774
-1.10911
-1.10779
-1.10915
-1.10782
-1.10918
-1.10784
-1.10921
-1.10785
-1.10922
-1.10786
-1.10924
-1.10786
-1.10925
-1.10786
-1.10927
-1.10787
-1.10929
-1.10787
-1.10931
-1.10789
-1.10933
-1.1079
-1.10936
-1.10792
-1.10939
-1.10795
-1.10943
-1.10798
-1.10947
-1.10803
-1.10953
-1.10808
-1.10959
-1.10814
-1.10967
-1.10821
-1.10974
-1.10828
-1.10983
-1.10836
-1.10992
-1.10844
-1.11002
-1.10852
-1.11011
-1.1086
-1.1102
-1.10868
-1.11028
-1.10875
-1.11037
-1.10882
-1.11043
-1.10887
-1.1105
-1.10892
-1.11054
-1.10894
-1.11058
-1.10896
-1.11057
-1.10893
-1.11055
-1.10889
-1.11046
-1.10878
-1.11034
-1.10864
-1.1101
-1.10838
-1.10976
-1.10801
-1.10919
-1.10742
-1.10833
-1.10654
-1.107
-1.10519
-1.10504
-1.10321
-1.10212
-1.10026
-1.09801
-1.09612
-1.09217
-1.09026
-1.08426
-1.08233
-1.07373
-1.07177
-1.06005
-1.05807
-1.04281
-1.0408
-1.02182
-1.01978
-0.996847
-0.994775
-0.967542
-0.965442
-0.934872
-0.932743
-0.898933
-0.896775
-0.8607
-0.858512
-0.820831
-0.818613
-0.780611
-0.778363
-0.740743
-0.738464
-0.70207
-0.69976
-0.665824
-0.663483
-0.632464
-0.630091
-0.601731
-0.599329
-0.574373
-0.571937
-0.550315
-0.547849
-0.529052
-0.526553
-0.510335
-0.507806
-0.493834
-0.491274
-0.479379
-0.47679
-0.466481
-0.46386
-0.454865
-0.452218
-0.444342
-0.441665
-0.434829
-0.432128
-0.426108
-0.423378
-0.417931
-0.41518
-0.410547
-0.407769
-0.403502
-0.400705
-0.396857
-0.394034
-0.390409
-0.387571
-0.384229
-0.381365
-0.377902
-0.375024
-0.371618
-0.368716
-0.365053
-0.36214
-0.35818
-0.355243
-0.350927
-0.34798
-0.34332
-0.340347
-0.33492
-0.331941
-0.326131
-0.323125
-0.316483
-0.313471
-0.306042
-0.303002
-0.294595
-0.291552
-0.282731
-0.279657
-0.269777
-0.266703
-0.256534
-0.253427
-0.2428
-0.239697
-0.229414
-0.226276
-0.216176
-0.213046
-0.203843
-0.200676
-0.192502
-0.189348
-0.182716
-0.179523
-0.17407
-0.170896
-0.167429
-0.164213
-0.161747
-0.158557
-0.157972
-0.154739
-0.154873
-0.151671
-0.15335
-0.150102
-0.152025
-0.148815
-0.152056
-0.148491
-0.151769
-0.14884
-0.153451
-0.150509
-0.154612
-0.15169
-0.15817
-0.156104
-0.161426
-0.158521
-0.167814
-0.1672
-0.17423
-0.171342
-0.184319
-0.185572
-0.19488
-0.191989
-0.209861
-0.212564
-0.225242
-0.222303
-0.246244
-1.56289
-0.267832
-1.5717
-0.295871
-1.62211
-0.32401
-1.63364
-0.357063
-1.69325
-0.388304
-1.70669
-0.420939
-1.76756
-0.444199
-1.77876
-0.461416
-1.81905
-0.462665
-1.82076
-0.449957
-1.7822
-0.420274
-1.76655
-0.376122
-1.68283
-0.323498
-1.65812
-0.266478
-1.5578
-0.210573
-1.53411
-0.161508
-1.45021
-0.122019
-1.43524
-0.0920107
-1.38189
-0.0720436
-1.37565
-0.0578983
-1.34606
-0.0501706
-1.34464
-0.0436061
-1.24673
-0.0406742
-1.32601
-0.0366958
-1.2389
-0.0348828
-1.31303
-0.0314217
-1.29379
-0.0297237
-1.30271
-0.026628
-1.29315
-0.0249486
-1.29314
-0.0219743
-1.27397
-0.0203803
-1.28388
-0.0177457
-1.25147
-0.0164387
-1.27563
-0.0142871
-1.23248
-0.0134266
-1.2691
-0.0119056
-1.23949
-0.0114093
-1.26479
-0.0103479
-1.25488
-0.00999858
-1.26191
-0.00911187
-1.25939
-0.00863932
-1.25933
-0.00770861
-1.25672
-0.00708093
-1.2566
-0.00612733
-1.25395
-0.00542076
-1.25382
-0.00453756
-1.25134
-0.00395542
-1.25128
-0.003325
-1.24491
-0.00295709
-1.24933
-0.00258583
-1.24482
-0.00236381
-1.24806
-0.00206605
-1.24706
-0.00184272
-1.24705
-0.00155884
-1.2461
-0.00132816
-1.24608
-0.00106131
-1.2452
-0.000858341
-1.24519
-0.000671241
-1.2426
-0.0005846
-1.24462
-0.00053219
-1.24376
-0.000520519
-1.24451
-0.000518086
-1.24451
-0.000518069
-1.24451
-0.000518996
-1.24451
-0.00051905
-1.24451
-0.000519816
-1.24451
-0.000519969
-1.2445
-0.000520725
-1.2445
-0.000521341
-1.2445
-0.000523825
-1.2445
-0.000532604
-1.2445
-0.000530593
-1.24449
-0.000493321
-1.24446
-0.392508
-0.416134
-0.394025
-0.417209
-0.394698
-0.417721
-0.397971
-0.420688
-0.399229
-0.421974
-0.403991
-0.426356
-0.405683
-0.428308
-0.437974
-0.433688
-0.439891
-0.436192
-0.445998
-0.442005
-0.448481
-0.444958
-0.454744
-0.451005
-0.457636
-0.454278
-0.463988
-0.46047
-0.467234
-0.464027
-0.473679
-0.470352
-0.47729
-0.474219
-0.483887
-0.480725
-0.487907
-0.484955
-0.494723
-0.491701
-0.499198
-0.49635
-0.506289
-0.503383
-0.511255
-0.508494
-0.518662
-0.515855
-0.524132
-0.521447
-0.531873
-0.52915
-0.537826
-0.535207
-0.545872
-0.543224
-0.552258
-0.549701
-0.560538
-0.55796
-0.567271
-0.564777
-0.575704
-0.573197
-0.582669
-0.580239
-0.591147
-0.588712
-0.598239
-0.595877
-0.606679
-0.60432
-0.613817
-0.611525
-0.622181
-0.6199
-0.629333
-0.627115
-0.63761
-0.635408
-0.644779
-0.642636
-0.652983
-0.650859
-0.660191
-0.658123
-0.668349
-0.666303
-0.675602
-0.673608
-0.683728
-0.681759
-0.691021
-0.689101
-0.699095
-0.697202
-0.706402
-0.704555
-0.714394
-0.712575
-0.721664
-0.719887
-0.729538
-0.72779
-0.73673
-0.73502
-0.744434
-0.74275
-0.751516
-0.749867
-0.759038
-0.757413
-0.765981
-0.764384
-0.773303
-0.771727
-0.780088
-0.778535
-0.787211
-0.785675
-0.793848
-0.792331
-0.800766
-0.799262
-0.807239
-0.805749
-0.813965
-0.812485
-0.820286
-0.818817
-0.82683
-0.82537
-0.833012
-0.83156
-0.839418
-0.837973
-0.845495
-0.844058
-0.851784
-0.850354
-0.857789
-0.856366
-0.863994
-0.862578
-0.869978
-0.868569
-0.876139
-0.874738
-0.88211
-0.880716
-0.888256
-0.886868
-0.894238
-0.892856
-0.90038
-0.899003
-0.906384
-0.905009
-0.912537
-0.911164
-0.91858
-0.917204
-0.924779
-0.92341
-0.930899
-0.929533
-0.937178
-0.935824
-0.943422
-0.942076
-0.949807
-0.948477
-0.95617
-0.954852
-0.962683
-0.961384
-0.969149
-0.967863
-0.975701
-0.974435
-0.982199
-0.980943
-0.988713
-0.987475
-0.995102
-0.993869
-1.00145
-1.00023
-1.00763
-1.00641
-1.01369
-1.01248
-1.01954
-1.01832
-1.02527
-1.02406
-1.03078
-1.02958
-1.03615
-1.03497
-1.04135
-1.04019
-1.04644
-1.04531
-1.05138
-1.05027
-1.05622
-1.05514
-1.06093
-1.05988
-1.06552
-1.06451
-1.06997
-1.06897
-1.07427
-1.07332
-1.07837
-1.07745
-1.08225
-1.08138
-1.08592
-1.08506
-1.08929
-1.08849
-1.09239
-1.0916
-1.09518
-1.09444
-1.09768
-1.09695
-1.09983
-1.09916
-1.10174
-1.10106
-1.10332
-1.1027
-1.10469
-1.10406
-1.10578
-1.10521
-1.10671
-1.10613
-1.10741
-1.10688
-1.10802
-1.10747
-1.10844
-1.10794
-1.10883
-1.10829
-1.10905
-1.10856
-1.10929
-1.10876
-1.10939
-1.10891
-1.10955
-1.10902
-1.10959
-1.1091
-1.10967
-1.10915
-1.10969
-1.10919
-1.10973
-1.10922
-1.10974
-1.10925
-1.10975
-1.10926
-1.10975
-1.10928
-1.10976
-1.1093
-1.10976
-1.10931
-1.10978
-1.10933
-1.10978
-1.10935
-1.1098
-1.10937
-1.10981
-1.1094
-1.10986
-1.10943
-1.10987
-1.10948
-1.10994
-1.10952
-1.10997
-1.10958
-1.11006
-1.10964
-1.11009
-1.10971
-1.1102
-1.10979
-1.11024
-1.10988
-1.11037
-1.10997
-1.11041
-1.11006
-1.11054
-1.11015
-1.11057
-1.11025
-1.11069
-1.11033
-1.11073
-1.11042
-1.11082
-1.11048
-1.11084
-1.11055
-1.11089
-1.11059
-1.1109
-1.11063
-1.11086
-1.11062
-1.11082
-1.1106
-1.11067
-1.11051
-1.11057
-1.11039
-1.11022
-1.11015
-1.10994
-1.10981
-1.10927
-1.10923
-1.10846
-1.10838
-1.10704
-1.10705
-1.10512
-1.1051
-1.10212
-1.10217
-1.09803
-1.09806
-1.09213
-1.09222
-1.08423
-1.08432
-1.07364
-1.07378
-1.05997
-1.06011
-1.04267
-1.04286
-1.02167
-1.02187
-0.996651
-0.996897
-0.967341
-0.967596
-0.934621
-0.934922
-0.898671
-0.898987
-0.860393
-0.860751
-0.820509
-0.820885
-0.780245
-0.780662
-0.740359
-0.740796
-0.701644
-0.702121
-0.665378
-0.665877
-0.631977
-0.632515
-0.601223
-0.601785
-0.573824
-0.574424
-0.549743
-0.550368
-0.528441
-0.529103
-0.5097
-0.510387
-0.493163
-0.493885
-0.478684
-0.479432
-0.46575
-0.466532
-0.454111
-0.454917
-0.443556
-0.444394
-0.434022
-0.434882
-0.425269
-0.426159
-0.417073
-0.417983
-0.409661
-0.410598
-0.402599
-0.403554
-0.395926
-0.396908
-0.389465
-0.390461
-0.383258
-0.38428
-0.376919
-0.377953
-0.37061
-0.371669
-0.364034
-0.365104
-0.357136
-0.358231
-0.349875
-0.350978
-0.342241
-0.343371
-0.333835
-0.334972
-0.325019
-0.326182
-0.315366
-0.316534
-0.304896
-0.306093
-0.293447
-0.294646
-0.281552
-0.282781
-0.268598
-0.269827
-0.255322
-0.256584
-0.241593
-0.242851
-0.228172
-0.229464
-0.214942
-0.216227
-0.202572
-0.203893
-0.191244
-0.192552
-0.181419
-0.182766
-0.172792
-0.17412
-0.166109
-0.167478
-0.160453
-0.161796
-0.156634
-0.158021
-0.153566
-0.154922
-0.151998
-0.153399
-0.15071
-0.152074
-0.150386
-0.152105
-0.150735
-0.151826
-0.152404
-0.153499
-0.153586
-0.154669
-0.158
-0.158218
-0.160418
-0.161483
-0.169096
-0.167862
-0.173238
-0.174287
-0.187467
-0.184366
-0.193885
-0.194936
-0.215048
-0.209907
-0.2242
-0.225299
-0.253564
-0.246289
-0.266658
-0.26788
-1.6284
-0.295929
-1.64053
-0.324059
-1.69955
-0.35712
-1.71299
-0.388354
-1.77386
-0.420996
-1.78506
-0.444249
-1.82535
-0.461472
-1.82706
-0.462715
-1.7885
-0.450012
-1.77285
-0.420324
-1.68913
-0.376177
-1.66442
-0.323549
-1.5641
-0.266531
-1.54041
-0.210624
-1.45651
-0.161561
-1.44154
-0.122069
-1.38819
-0.0920633
-1.38195
-0.0720943
-1.35236
-0.0579504
-1.35094
-0.0502212
-1.25303
-0.0436579
-1.33231
-0.0407246
-1.2452
-0.0367472
-1.31933
-0.0349331
-1.30009
-0.0314727
-1.30901
-0.0297738
-1.29945
-0.0266787
-1.29944
-0.0249985
-1.28027
-0.0220247
-1.29018
-0.02043
-1.25777
-0.0177958
-1.28193
-0.0164883
-1.23877
-0.014337
-1.2754
-0.013476
-1.24579
-0.0119553
-1.27109
-0.0114589
-1.26118
-0.0103974
-1.2682
-0.0100481
-1.26569
-0.00916122
-1.26563
-0.00868857
-1.26301
-0.00775777
-1.2629
-0.00712999
-1.26024
-0.0061763
-1.26011
-0.00546965
-1.25763
-0.00458636
-1.25758
-0.00400414
-1.25121
-0.00337364
-1.25562
-0.00300566
-1.25111
-0.00263432
-1.25435
-0.00241224
-1.25335
-0.00211441
-1.25334
-0.00189103
-1.25239
-0.00160709
-1.25237
-0.00137637
-1.25149
-0.00110945
-1.25148
-0.00090646
-1.2489
-0.000719297
-1.25092
-0.000632639
-1.25005
-0.000580204
-1.2508
-0.000568504
-1.2508
-0.000566072
-1.2508
-0.000566031
-1.2508
-0.000566907
-1.2508
-0.000566958
-1.2508
-0.000567716
-1.2508
-0.000567864
-1.2508
-0.000568625
-1.2508
-0.000569238
-1.2508
-0.000571725
-1.25079
-0.000580511
-1.25079
-0.000578508
-1.25076
-0.000541233
)
;

boundaryField
{
    walls
    {
        type            zeroGradient;
    }
    inlet
    {
        type            cyclic;
    }
    outlet
    {
        type            cyclic;
    }
    sides
    {
        type            empty;
    }
}


// ************************************************************************* //
