/*--------------------------------*- C++ -*----------------------------------*\
| =========                 |                                                 |
| \\      /  F ield         | OpenFOAM: The Open Source CFD Toolbox           |
|  \\    /   O peration     | Version:  2012                                  |
|   \\  /    A nd           | Website:  www.openfoam.com                      |
|    \\/     M anipulation  |                                                 |
\*---------------------------------------------------------------------------*/
FoamFile
{
    version     2.0;
    format      ascii;
    class       volSymmTensorField;
    location    "13300";
    object      turbulenceProperties:R;
}
// * * * * * * * * * * * * * * * * * * * * * * * * * * * * * * * * * * * * * //

dimensions      [0 2 -2 0 0 0 0];


internalField   nonuniform List<symmTensor> 
2560
(
(0.0144292 -7.12001e-06 -1.03184e-08 0.0144292 -4.37613e-08 0.0144292)
(0.0144186 -7.10658e-06 -1.03108e-08 0.0144186 1.72425e-12 0.0144186)
(0.411499 -0.0011705 -5.1176e-06 0.411499 -1.57716e-10 0.411499)
(0.41122 -0.00116839 -5.11406e-06 0.41122 2.41204e-10 0.41122)
(2.67013 -0.0228948 -0.000137248 2.67014 8.76421e-05 2.67013)
(2.66857 -0.0228566 -0.000137025 2.66857 1.58746e-09 2.66858)
(6.87822 -0.121808 -0.000740835 6.87823 0.000310958 6.87821)
(6.87524 -0.121636 -0.000739825 6.87522 4.56778e-09 6.87524)
(11.085 -0.310844 -0.00191809 11.085 0.000345786 11.085)
(11.0812 -0.310473 -0.0019159 11.0811 2.81149e-09 11.0812)
(14.7476 -0.562277 -0.00351928 14.7476 0.000275835 14.7476)
(14.7432 -0.561701 -0.00351586 14.7432 2.08653e-09 14.7432)
(17.9674 -0.855593 -0.00543097 17.9674 0.000213397 17.9674)
(17.9625 -0.854837 -0.00542645 17.9625 -9.06571e-11 17.9625)
(20.8715 -1.1792 -0.00759108 20.8716 0.000170306 20.8715)
(20.8662 -1.1783 -0.00758569 20.8662 4.72173e-09 20.8662)
(23.5472 -1.52664 -0.0099712 23.5472 0.00014043 23.5472)
(23.5414 -1.52566 -0.00996522 23.5414 -2.56469e-09 23.5414)
(26.052 -1.89515 -0.0125646 26.052 0.000118856 26.052)
(26.0459 -1.89412 -0.0125583 26.0458 9.53382e-09 26.0459)
(28.4252 -2.28284 -0.0153583 28.4252 0.000102597 28.4252)
(28.4188 -2.28181 -0.015352 28.4187 -6.56661e-09 28.4188)
(30.6948 -2.68771 -0.0183496 30.6948 8.99681e-05 30.6948)
(30.688 -2.68672 -0.0183436 30.688 1.72134e-08 30.688)
(32.8811 -3.10945 -0.0215474 32.8812 8.00053e-05 32.8811)
(32.8742 -3.10854 -0.0215418 32.8737 -9.09978e-07 32.8742)
(34.9998 -3.54683 -0.024936 34.9998 7.05225e-05 34.9998)
(34.9924 -3.54603 -0.0249311 34.9924 -1.35079e-08 34.9924)
(37.0628 -3.99577 -0.0284878 37.0628 6.48508e-05 37.0628)
(37.0558 -3.9951 -0.0284837 37.0538 4.14945e-07 37.0558)
(39.0799 -4.45159 -0.0321766 39.0799 5.31554e-05 39.0799)
(39.0719 -4.45106 -0.0321734 39.0719 -5.71819e-08 39.0719)
(41.0589 -4.91081 -0.0359876 41.0589 5.26677e-05 41.0589)
(41.0512 -4.91043 -0.0359855 41.0495 5.57582e-06 41.0512)
(43.0063 -5.37533 -0.0399709 43.0063 3.81954e-05 43.0063)
(42.9977 -5.3751 -0.0399697 42.9977 -2.41839e-08 42.9977)
(44.9277 -5.85595 -0.0442406 44.9277 4.65035e-05 44.9277)
(44.9189 -5.85586 -0.0442404 44.9189 5.57311e-08 44.9189)
(46.8278 -6.36505 -0.0488759 46.8279 2.70987e-05 46.8278)
(46.8187 -6.36508 -0.0488765 46.8187 -1.1927e-08 46.8187)
(48.7107 -6.90527 -0.0538567 48.7107 4.62311e-05 48.7107)
(48.7013 -6.9054 -0.053858 48.7013 8.02308e-08 48.7013)
(50.5798 -7.46914 -0.059116 50.5798 1.68161e-05 50.5798)
(50.5701 -7.46936 -0.059118 50.5701 1.07044e-09 50.5701)
(52.4381 -8.04859 -0.0646209 52.4381 5.00281e-05 52.4381)
(52.4282 -8.04888 -0.0646233 52.4282 -4.55413e-06 52.4282)
(54.2883 -8.64123 -0.070386 54.2884 1.96472e-06 54.2883)
(54.2781 -8.64157 -0.0703888 54.2781 -9.1984e-08 54.2781)
(56.133 -9.24844 -0.0764339 56.1329 6.57841e-05 56.133)
(56.1224 -9.24881 -0.0764369 56.1224 -2.29057e-06 56.1225)
(57.9741 -9.87074 -0.0827661 57.9743 -2.17908e-05 57.9741)
(57.9634 -9.87111 -0.082769 57.9634 -2.13197e-07 57.9634)
(59.814 -10.506 -0.0893637 59.814 8.27887e-05 59.814)
(59.8029 -10.5064 -0.0893664 59.8029 6.50387e-06 59.8029)
(61.6543 -11.1508 -0.0962041 61.6544 -4.41732e-05 61.6543)
(61.6429 -11.1511 -0.0962064 61.6429 -1.44711e-07 61.6429)
(63.4969 -11.8029 -0.103288 63.4968 9.37521e-05 63.4969)
(63.4852 -11.8032 -0.10329 63.4852 -5.42898e-08 63.4852)
(65.3433 -12.4658 -0.110689 65.3435 -6.13193e-05 65.3433)
(65.3313 -12.466 -0.11069 65.3313 -4.41422e-08 65.3313)
(67.1953 -13.1533 -0.118594 67.1952 0.000105308 67.1953)
(67.1829 -13.1533 -0.118593 67.1829 2.78271e-07 67.1829)
(69.0541 -13.89 -0.127282 69.0543 -7.96307e-05 69.0541)
(69.0415 -13.8899 -0.12728 69.0415 4.53839e-08 69.0415)
(70.9213 -14.7045 -0.137032 70.9211 0.000118944 70.9213)
(70.9082 -14.7041 -0.137027 70.9082 3.75377e-07 70.9083)
(72.7976 -15.6173 -0.148011 72.798 -9.92232e-05 72.7976)
(72.7844 -15.6167 -0.148005 72.7844 3.34976e-08 72.7844)
(74.6846 -16.6326 -0.160215 74.6843 0.000136907 74.6846)
(74.6707 -16.6318 -0.160207 74.6707 -1.04941e-05 74.6708)
(76.5819 -17.736 -0.173473 76.5824 -0.000131378 76.5819)
(76.568 -17.7349 -0.173462 76.568 -2.20253e-07 76.568)
(78.4912 -18.8994 -0.187505 78.4908 0.000171088 78.4912)
(78.4766 -18.8981 -0.187493 78.4766 -3.57019e-05 78.4766)
(80.4115 -20.089 -0.202002 80.4121 -0.000215463 80.4115)
(80.3969 -20.0875 -0.201987 80.3969 -7.66835e-07 80.3969)
(82.3445 -21.2743 -0.216714 82.344 0.000288515 82.3445)
(82.3292 -21.2727 -0.216697 82.3292 -1.5784e-05 82.3292)
(84.2891 -22.4385 -0.23157 84.2898 -0.000365586 84.2891)
(84.2737 -22.4367 -0.231551 84.2737 -1.0485e-06 84.2737)
(86.2472 -23.5896 -0.246811 86.2466 0.000461276 86.2472)
(86.231 -23.5876 -0.246789 86.231 1.31776e-05 86.231)
(88.2176 -24.7699 -0.263076 88.2185 -0.000537618 88.2176)
(88.2015 -24.7676 -0.263051 88.2015 -9.12482e-07 88.2015)
(90.2026 -26.055 -0.281357 90.2019 0.000626555 90.2026)
(90.1855 -26.0524 -0.281327 90.1855 3.10147e-05 90.1855)
(92.2003 -27.5375 -0.302738 92.2012 -0.000682524 92.2003)
(92.1833 -27.5345 -0.302704 92.1833 -5.0123e-07 92.1833)
(94.2125 -29.2951 -0.328012 94.2117 0.000744004 94.2125)
(94.1945 -29.2918 -0.327973 94.1945 1.43742e-05 94.1945)
(96.2358 -31.3599 -0.357357 96.2369 -0.000792869 96.2358)
(96.2179 -31.3562 -0.357313 96.2179 -3.13173e-07 96.2179)
(98.2709 -33.7034 -0.390277 98.2699 0.000841618 98.2709)
(98.2518 -33.6993 -0.390229 98.2518 -8.268e-06 98.2518)
(100.312 -36.2451 -0.42576 100.313 -0.000904749 100.312)
(100.293 -36.2408 -0.42571 100.293 -4.49195e-07 100.293)
(102.359 -38.8807 -0.462671 102.358 0.000963599 102.359)
(102.339 -38.8763 -0.46262 102.339 -0.000160886 102.339)
(104.404 -41.5087 -0.499929 104.405 -0.00119648 104.404)
(104.384 -41.5044 -0.49988 104.384 -2.83707e-06 104.384)
(106.447 -44.0199 -0.536078 106.446 0.00143078 106.447)
(106.426 -44.0159 -0.536035 106.426 3.50663e-05 106.426)
(108.481 -46.2432 -0.568385 108.482 -0.00165156 108.481)
(108.46 -46.24 -0.568352 108.46 -5.42161e-06 108.46)
(110.505 -47.8637 -0.591636 110.504 0.00182469 110.505)
(110.483 -47.8616 -0.591621 110.483 0.000108394 110.483)
(112.516 -48.3393 -0.597033 112.517 -0.00198766 112.516)
(112.494 -48.3392 -0.597046 112.494 -1.14639e-05 112.494)
(114.52 -46.852 -0.571652 114.519 0.00201341 114.52)
(114.496 -46.8547 -0.571706 114.496 -5.22654e-05 114.496)
(116.524 -42.3507 -0.499559 116.525 -0.00224653 116.524)
(116.5 -42.3571 -0.499669 116.5 -2.11631e-05 116.5)
(118.548 -33.7179 -0.364549 118.548 0.00222013 118.548)
(118.523 -33.7292 -0.364732 118.523 -6.95049e-05 118.523)
(120.62 -20.0492 -0.154543 120.621 -0.00257377 120.62)
(120.594 -20.0666 -0.154816 120.594 -2.28123e-05 120.594)
(122.767 -0.0306233 -0.000204807 122.768 0.00248882 122.767)
(122.74 -1.16181e-16 -5.05582e-21 122.74 -3.91205e-05 122.74)
(125.007 20.0793 -0.136242 125.008 -0.00295128 125.007)
(124.979 20.0225 -0.135856 124.979 -6.86679e-06 124.979)
(127.329 50.3579 -0.499692 127.329 0.00284251 127.329)
(127.3 50.3175 -0.49919 127.3 3.89142e-05 127.3)
(129.663 78.9026 -0.907885 129.663 -0.00332107 129.663)
(129.633 78.8542 -0.907262 129.633 2.00662e-05 129.633)
(131.892 105.793 -1.3243 131.893 0.00324863 131.892)
(131.861 105.738 -1.32356 131.861 0.000108428 131.861)
(133.861 128.263 -1.70656 133.859 -0.00362075 133.861)
(133.828 128.202 -1.70571 133.828 3.76285e-05 133.828)
(135.402 144.136 -2.01499 135.404 0.00362305 135.402)
(135.371 144.07 -2.01405 135.371 9.37302e-05 135.371)
(136.386 152.217 -2.22067 136.385 -0.00379866 136.386)
(136.354 152.15 -2.21967 136.354 -0.000105074 136.354)
(136.731 152.431 -2.31012 136.733 0.00382807 136.731)
(136.701 152.364 -2.30911 136.701 -2.70826e-05 136.701)
(136.435 145.673 -2.28614 136.434 -0.00387665 136.435)
(136.404 145.612 -2.28517 136.404 -5.68514e-05 136.405)
(135.548 133.467 -2.16449 135.55 0.0038971 135.548)
(135.52 133.417 -2.16363 135.52 -9.69425e-06 135.52)
(134.174 117.558 -1.96817 134.173 -0.003892 134.174)
(134.146 117.524 -1.9675 134.146 -4.39107e-06 134.146)
(132.429 99.5808 -1.57913 132.431 0.00390104 132.429)
(132.404 99.5694 -1.57896 132.404 3.35758e-07 132.404)
(130.44 80.8666 -0.859057 130.438 -0.00389066 130.44)
(130.415 80.882 -0.858967 130.415 -0.000218896 130.415)
(128.311 62.379 -0.27918 128.313 0.00136958 128.311)
(128.289 62.4233 -0.27915 128.289 -8.16373e-20 128.289)
(126.138 44.7555 0.160328 126.136 -0.000168992 126.138)
(126.116 44.8245 0.160316 126.116 0.000290167 126.116)
(123.982 28.3846 0.34842 123.982 1.50632e-05 123.982)
(123.959 28.468 0.349906 123.971 8.78302e-05 123.959)
(121.893 12.9248 0.110484 121.891 -0.000117727 121.893)
(121.874 13.1043 0.112019 121.874 2.09535e-05 121.874)
(119.893 -1.71385e-16 -0 119.893 1.31987e-05 119.893)
(119.872 0.102488 0.00088883 119.881 0.000109778 119.872)
(117.991 -11.4713 0.106092 117.989 -7.97594e-05 117.991)
(117.973 -11.3877 0.104579 117.973 1.94154e-05 117.973)
(116.18 -21.4767 0.299763 116.18 1.12265e-05 116.18)
(116.162 -21.4009 0.298333 116.168 7.62841e-05 116.162)
(114.45 -29.8759 0.264406 114.449 -5.39199e-05 114.45)
(114.434 -29.8121 0.264385 114.434 1.62278e-05 114.434)
(112.779 -36.7519 -0.0423345 112.779 9.11995e-06 112.779)
(112.763 -36.7062 -0.0423334 112.767 5.3867e-05 112.763)
(111.146 -42.2276 -0.411439 111.145 -3.83105e-05 111.146)
(111.132 -42.2026 -0.411415 111.132 1.26027e-05 111.132)
(109.528 -46.4521 -0.832306 109.528 6.58404e-06 109.528)
(109.516 -46.4453 -0.83226 109.518 3.92994e-05 109.516)
(107.907 -49.5778 -0.982219 107.906 -3.03589e-05 107.907)
(107.896 -49.5849 -0.982465 107.896 -6.9739e-07 107.896)
(106.262 -51.7421 -1.0302 106.262 3.89351e-06 106.262)
(106.252 -51.7584 -1.03058 106.253 2.98787e-05 106.252)
(104.579 -53.054 -1.06338 104.578 -3.05218e-05 104.579)
(104.571 -53.0752 -1.06383 104.571 -4.3392e-21 104.571)
(102.845 -53.5857 -1.08216 102.845 -5.48863e-06 102.845)
(102.838 -53.6085 -1.08262 102.838 3.07839e-05 102.838)
(101.052 -53.3733 -1.08626 101.052 -3.55749e-05 101.052)
(101.046 -53.3954 -1.08669 101.046 -8.73281e-07 101.046)
(99.1941 -52.4237 -1.0749 99.1941 -8.57696e-06 99.1941)
(99.1889 -52.444 -1.0753 99.1893 2.6024e-05 99.1889)
(97.2703 -50.7288 -1.04716 97.2699 -3.57082e-05 97.2703)
(97.2657 -50.7467 -1.04751 97.2657 -4.70062e-06 97.2657)
(95.2826 -48.2814 -1.00224 95.2826 -1.19348e-05 95.2826)
(95.2786 -48.297 -1.00255 95.2789 1.49739e-05 95.2786)
(93.2384 -45.0928 -0.939952 93.2381 -3.54984e-05 93.2384)
(93.2349 -45.1062 -0.940222 93.2349 -1.29377e-05 93.2349)
(91.1479 -41.2084 -0.860995 91.1479 -1.36725e-05 91.1479)
(91.1448 -41.2201 -0.861233 91.1451 7.47302e-06 91.1448)
(89.0256 -36.7184 -0.767217 89.0253 -3.29816e-05 89.0256)
(89.0228 -36.7285 -0.767429 89.0228 -1.32656e-05 89.0228)
(86.8874 -31.7576 -0.661566 86.8874 -1.23606e-05 86.8874)
(86.8849 -31.7665 -0.661756 86.8852 6.47189e-06 86.8849)
(84.7509 -26.4999 -0.547993 84.7506 -2.74798e-05 84.7509)
(84.7486 -26.5077 -0.548162 84.7486 -1.03256e-05 84.7486)
(82.6324 -21.1487 -0.431267 82.6324 -8.04139e-06 82.6324)
(82.6303 -21.1556 -0.431418 82.6305 8.71951e-06 82.6303)
(80.547 -15.9193 -0.316428 80.5468 -2.0181e-05 80.547)
(80.5451 -15.9254 -0.316561 80.5451 -5.16597e-06 80.5451)
(78.5063 -11.0182 -0.208412 78.5063 -0 78.5063)
(78.5045 -11.0234 -0.208527 78.5047 1.47834e-05 78.5045)
(76.5188 -6.62789 -0.111676 76.5186 -1.32171e-05 76.5188)
(76.5171 -6.63224 -0.111772 76.5171 5.84251e-08 76.5171)
(74.5892 -2.43214 -0.0298266 74.5892 2.07152e-08 74.5892)
(74.5877 -2.43838 -0.0299032 74.5878 1.29678e-05 74.5877)
(72.7203 8.75643e-14 3.28306e-22 72.7201 -8.30338e-06 72.7203)
(72.7189 0.0014075 -1.7512e-05 72.7189 3.52219e-06 72.7189)
(70.9117 2.25322 -0.0344373 70.9117 4.22195e-06 70.9117)
(70.9104 2.25134 -0.0343803 70.9105 1.54882e-05 70.9104)
(69.1627 3.60372 -0.0795852 69.1626 -5.97939e-06 69.1627)
(69.1615 3.60262 -0.0795477 69.1615 4.59099e-06 69.1615)
(67.4721 4.16634 -0.105127 67.4721 4.347e-06 67.4721)
(67.4709 4.16599 -0.105109 67.471 1.41692e-05 67.4709)
(65.839 4.00058 -0.111388 65.8389 -5.43498e-06 65.839)
(65.838 4.00089 -0.111388 65.838 3.99467e-06 65.838)
(64.2632 3.18766 -0.0994316 64.2632 3.34072e-06 64.2632)
(64.2622 3.18857 -0.0994484 64.2623 1.19704e-05 64.2622)
(62.7448 1.82245 -0.0708754 62.7447 -5.60356e-06 62.7448)
(62.7439 1.82385 -0.0709071 62.7439 2.76605e-06 62.7439)
(61.2841 0.000528529 -0.0277241 61.2841 2.05232e-06 61.2841)
(61.2832 -7.83159e-14 -0.0277682 61.2833 9.67393e-06 61.2832)
(59.8812 -1.9821 -0.0926535 59.8811 -5.97545e-06 59.8812)
(59.8804 -1.97826 -0.0925941 59.8804 1.43641e-06 59.8804)
(58.5355 -4.52681 -0.164335 58.5355 2.21618e-07 58.5355)
(58.5348 -4.52468 -0.164273 58.5348 6.88405e-06 58.5348)
(57.245 -7.01698 -0.239478 57.2449 -6.80443e-06 57.245)
(57.2443 -7.01487 -0.239418 57.2443 -1.99623e-07 57.2443)
(56.0061 -9.4944 -0.314563 56.0061 -1.26177e-06 56.0061)
(56.0055 -9.49244 -0.314508 56.0056 4.68491e-06 56.0055)
(54.8139 -11.8337 -0.385754 54.8138 -8.41444e-06 54.8139)
(54.8134 -11.832 -0.385709 54.8134 -2.48317e-06 54.8134)
(53.6618 -13.9081 -0.449037 53.6618 -3.87504e-06 53.6618)
(53.6613 -13.9068 -0.449003 53.6614 1.34745e-06 53.6613)
(52.5426 -15.5959 -0.500427 52.5425 -1.04628e-05 52.5426)
(52.5422 -15.595 -0.500407 52.5422 -5.19627e-06 52.5422)
(51.4488 -16.787 -0.536182 51.4488 -6.63861e-06 51.4488)
(51.4484 -16.7865 -0.536175 51.4485 -2.01006e-06 51.4484)
(50.3741 -17.3908 -0.553127 50.3741 -1.27297e-05 50.3741)
(50.3738 -17.3908 -0.553135 50.3738 -8.01766e-06 50.3738)
(49.3141 -17.3461 -0.54899 49.3141 -9.46211e-06 49.3141)
(49.3138 -17.3466 -0.549011 49.3139 -5.32e-06 49.3138)
(48.267 -16.6285 -0.522699 48.2669 -1.52373e-05 48.267)
(48.2667 -16.6293 -0.522732 48.2667 -1.0992e-05 48.2667)
(47.234 -15.2548 -0.474542 47.234 -1.28024e-05 47.234)
(47.2338 -15.256 -0.474584 47.2338 -9.13545e-06 47.2338)
(46.2193 -13.2851 -0.406312 46.2193 -1.89327e-05 46.2193)
(46.2192 -13.2865 -0.406362 46.2192 -1.5031e-05 46.2192)
(45.2294 -10.8195 -0.321193 45.2294 -1.78904e-05 45.2294)
(45.2293 -10.8211 -0.321249 45.2293 -1.47346e-05 45.2293)
(44.2715 -7.99075 -0.223552 44.2715 -2.51446e-05 44.2715)
(44.2714 -7.9924 -0.223609 44.2714 -2.14585e-05 44.2714)
(43.3527 -4.95307 -0.118569 43.3527 -2.58272e-05 43.3527)
(43.3526 -4.95473 -0.118626 43.3526 -2.31767e-05 43.3526)
(42.4784 -0.66782 -0.0117494 42.4784 -3.43175e-05 42.4784)
(42.4783 -0.670978 -0.0118049 42.4783 -3.07842e-05 42.4783)
(41.6521 0.00214863 -3.83519e-05 41.6521 -3.61587e-05 41.6521)
(41.652 1.31794e-05 -2.35246e-07 41.652 -3.38608e-05 41.652)
(40.8736 3.83195 -0.0918944 40.8736 -4.47361e-05 40.8736)
(40.8736 3.83059 -0.0918425 40.8736 -4.14189e-05 40.8736)
(40.1406 6.20214 -0.187286 40.1406 -4.59884e-05 40.1406)
(40.1405 6.20097 -0.187239 40.1406 -4.37462e-05 40.1405)
(39.4488 8.14447 -0.270559 39.4488 -5.2067e-05 39.4488)
(39.4488 8.14349 -0.270519 39.4488 -4.9211e-05 39.4488)
(38.7933 9.62732 -0.33913 38.7933 -5.03845e-05 38.7933)
(38.7932 9.62654 -0.339097 38.7933 -4.78783e-05 38.7932)
(38.169 10.659 -0.391885 38.169 -5.09051e-05 38.169)
(38.1689 10.6584 -0.39186 38.1689 -4.87855e-05 38.1689)
(37.5717 11.282 -0.429146 37.5717 -4.40709e-05 37.5717)
(37.5716 11.2816 -0.429128 37.5717 -4.09937e-05 37.5716)
(36.9982 11.5643 -0.452466 36.9982 -3.74751e-05 36.9982)
(36.9982 11.564 -0.452453 36.9982 -3.61483e-05 36.9982)
(36.4467 11.5901 -0.464343 36.4467 -2.52912e-05 36.4467)
(36.4466 11.59 -0.464335 36.4466 -2.16779e-05 36.4466)
(35.9161 11.4495 -0.467908 35.9161 -1.12739e-05 35.9161)
(35.9161 11.4495 -0.467904 35.9161 -1.01713e-05 35.9161)
(35.4064 11.2279 -0.466502 35.4064 8.17756e-07 35.4064)
(35.4063 11.2278 -0.466499 35.4063 3.79321e-06 35.4063)
(34.9177 10.9974 -0.463253 34.9176 1.61521e-05 34.9177)
(34.9176 10.9973 -0.463251 34.9176 1.74156e-05 34.9176)
(34.4501 10.8128 -0.460805 34.4501 3.04601e-05 34.4501)
(34.4501 10.8127 -0.460802 34.4501 3.38211e-05 34.4501)
(34.004 10.7089 -0.461126 34.0039 4.00003e-05 34.004)
(34.0039 10.7087 -0.461122 34.0039 4.16429e-05 34.0039)
(33.5789 10.7001 -0.465406 33.5789 4.97601e-05 33.5789)
(33.5788 10.6999 -0.465399 33.5788 5.223e-05 33.5788)
(33.1743 10.7828 -0.474022 33.1743 5.16346e-05 33.1743)
(33.1742 10.7825 -0.474013 33.1742 5.44341e-05 33.1742)
(32.7893 10.9385 -0.486618 32.7893 5.56662e-05 32.7893)
(32.7892 10.9383 -0.486606 32.7891 5.71688e-05 32.7892)
(32.4225 11.1388 -0.502245 32.4224 4.99049e-05 32.4225)
(32.4223 11.1385 -0.502231 32.4223 5.3838e-05 32.4223)
(32.0724 11.3494 -0.519517 32.0724 4.95396e-05 32.0724)
(32.0723 11.3491 -0.519502 32.0723 5.03729e-05 32.0723)
(31.7376 11.5356 -0.53682 31.7376 3.88651e-05 31.7376)
(31.7374 11.5352 -0.536804 31.7374 4.36554e-05 31.7374)
(31.4164 11.6663 -0.552554 31.4164 3.69233e-05 31.4164)
(31.4162 11.6659 -0.552538 31.4162 3.75955e-05 31.4162)
(31.1076 11.7165 -0.565252 31.1076 2.47023e-05 31.1076)
(31.1075 11.7162 -0.565238 31.1075 3.00717e-05 31.1075)
(30.8105 11.67 -0.573744 30.8105 2.36157e-05 30.8105)
(30.8103 11.6698 -0.573731 30.8103 2.13951e-05 30.8103)
(30.5246 11.5207 -0.577283 30.5246 1.21007e-05 30.5246)
(30.5244 11.5205 -0.577273 30.5244 6.91039e-06 30.5244)
(30.25 11.2715 -0.575584 30.25 1.32109e-05 30.25)
(30.2498 11.2714 -0.575576 30.2498 7.02843e-07 30.2498)
(29.9875 10.934 -0.568798 29.9875 2.97513e-06 29.9875)
(29.9872 10.934 -0.568793 29.9872 -5.81502e-07 29.9872)
(29.7381 10.5273 -0.557524 29.7381 5.78977e-06 29.7381)
(29.7378 10.5273 -0.557522 29.7378 1.10594e-06 29.7378)
(29.5032 10.0758 -0.542755 29.5032 -6.35196e-06 29.5032)
(29.5029 10.0758 -0.542754 29.5029 -5.74722e-07 29.5029)
(29.2844 9.60721 -0.525754 29.2844 -5.4618e-07 29.2844)
(29.2841 9.60723 -0.525755 29.2841 1.43104e-06 29.2841)
(29.0833 9.15088 -0.508004 29.0833 -9.45914e-06 29.0833)
(29.0829 9.1509 -0.508006 29.0829 -5.61626e-07 29.0829)
(28.9014 8.73659 -0.491127 28.9014 -7.34115e-07 28.9014)
(28.901 8.73658 -0.491128 28.901 1.67707e-06 28.901)
(28.7401 8.39305 -0.476824 28.7401 -1.10967e-05 28.7401)
(28.7396 8.39298 -0.476822 28.7396 -5.43291e-07 28.7396)
(28.6003 8.14708 -0.466797 28.6003 -1.06212e-06 28.6003)
(28.5998 8.14692 -0.466791 28.5998 1.85999e-06 28.5998)
(28.4827 8.02252 -0.462725 28.4827 -1.24513e-05 28.4827)
(28.4821 8.02224 -0.462713 28.4821 -5.24032e-07 28.4821)
(28.3876 8.03957 -0.466154 28.3876 -9.05382e-07 28.3875)
(28.3869 8.03914 -0.466133 28.3869 2.03569e-06 28.3869)
(28.3145 8.21483 -0.478511 28.3145 -1.31419e-05 28.3145)
(28.3138 8.21421 -0.478481 28.3138 -5.10095e-07 28.3138)
(28.2629 8.55936 -0.501065 28.2629 -5.48167e-07 28.2629)
(28.2621 8.55851 -0.501021 28.2621 2.24449e-06 28.2621)
(28.2312 9.07715 -0.53471 28.2312 -1.34453e-05 28.2312)
(28.2303 9.07602 -0.53465 28.2303 -5.09919e-07 28.2303)
(28.2174 9.76437 -0.57994 28.2174 -5.4202e-07 28.2174)
(28.2164 9.7629 -0.57986 28.2164 2.35166e-06 28.2164)
(28.2185 10.6079 -0.636727 28.2185 -1.35073e-05 28.2185)
(28.2175 10.606 -0.636623 28.2175 -5.33363e-07 28.2175)
(28.2308 11.5838 -0.704378 28.2308 -5.28991e-07 28.2308)
(28.2296 11.5813 -0.704242 28.2296 2.42751e-06 28.2296)
(28.2494 12.6568 -0.781406 28.2494 -1.3383e-05 28.2494)
(28.2481 12.6536 -0.781228 28.2481 -5.92087e-07 28.2481)
(28.2687 13.7805 -0.865481 28.2687 -5.11278e-07 28.2687)
(28.2674 13.7762 -0.865242 28.2674 2.46355e-06 28.2674)
(28.2823 14.8977 -0.953394 28.2823 -1.31644e-05 28.2823)
(28.2809 14.8916 -0.953061 28.2809 -6.96836e-07 28.2809)
(28.2833 15.9424 -1.04103 28.2833 -4.8819e-07 28.2833)
(28.2818 15.9334 -1.04055 28.2818 2.45521e-06 28.2818)
(28.2645 16.8429 -1.12359 28.2645 -1.29381e-05 28.2645)
(28.263 16.8295 -1.12286 28.263 -8.53073e-07 28.263)
(28.2195 17.5253 -1.19566 28.2195 -4.55411e-07 28.2195)
(28.2181 17.5062 -1.19455 28.2181 2.40704e-06 28.2181)
(28.1429 17.9179 -1.10186 28.1429 -1.27678e-05 28.1429)
(28.1417 17.8947 -1.10181 28.1417 -1.05565e-06 28.1417)
(28.0314 17.9548 -0.473094 28.0314 -4.10016e-07 28.0314)
(28.0305 17.9374 -0.473052 28.0305 2.34048e-06 28.0305)
(27.8842 17.5841 0.167457 27.8842 -1.27318e-05 27.8842)
(27.8838 17.5894 0.167495 27.8838 -1.25133e-06 27.8838)
(27.7036 16.7857 0.803706 27.7036 -4.8003e-07 27.7036)
(27.7037 16.8098 0.803739 27.7037 2.42858e-06 27.7037)
(27.4946 15.5581 1.10795 27.4946 -1.30033e-05 27.4946)
(27.4949 15.5823 1.10954 27.4949 -1.24903e-06 27.4949)
(27.265 13.9076 0.983367 27.265 -6.17385e-07 27.265)
(27.2655 13.9256 0.984458 27.2655 2.64561e-06 27.2655)
(27.025 11.8656 0.826424 27.025 -1.34084e-05 27.025)
(27.0255 11.8775 0.827147 27.0255 -1.20951e-06 27.0255)
(26.786 9.48713 0.640914 26.786 -7.27693e-07 26.786)
(26.7864 9.49507 0.64142 26.7864 2.93562e-06 26.7864)
(26.559 6.8428 0.431796 26.559 -1.39333e-05 26.559)
(26.5593 6.8485 0.432186 26.5593 -1.13e-06 26.5593)
(26.3539 4.01549 0.205427 26.3539 -7.9664e-07 26.3539)
(26.3541 4.02001 0.205758 26.3541 3.28819e-06 26.3541)
(26.1777 -8.28417e-20 -3.88928e-22 26.1777 -1.45572e-05 26.1777)
(26.1778 0.00461412 0.000187534 26.1778 -1.02849e-06 26.1778)
(26.0341 -0.765528 0.0315662 26.0341 -8.18692e-07 26.0341)
(26.0341 -0.757915 0.0312523 26.0341 3.66617e-06 26.0341)
(25.9231 -4.65089 0.274138 25.9231 -1.5212e-05 25.9231)
(25.9229 -4.64683 0.273816 25.9229 -8.76369e-07 25.9229)
(25.8395 -7.30083 0.512194 25.8395 -8.00862e-07 25.8395)
(25.8393 -7.29604 0.511831 25.8393 4.01777e-06 25.8393)
(25.7758 -9.69578 0.738253 25.7758 -1.57944e-05 25.7758)
(25.7755 -9.68937 0.737795 25.7755 -8.00586e-07 25.7755)
(25.7221 -11.772 0.945283 25.7221 -7.55231e-07 25.7221)
(25.7217 -11.7623 0.944625 25.7217 4.3076e-06 25.7217)
(25.6675 -13.4841 1.12734 25.6675 -1.60955e-05 25.6675)
(25.6671 -13.4688 1.1263 25.6671 -8.31134e-07 25.6671)
(25.6014 -14.8023 1.28003 25.6014 -6.9173e-07 25.6014)
(25.601 -14.7801 1.27835 25.601 4.52842e-06 25.601)
(25.5142 -15.7107 0.849635 25.5142 -1.60935e-05 25.5142)
(25.5141 -15.6878 0.849576 25.5141 -9.69846e-07 25.5141)
(25.3992 -16.2094 0.117673 25.3992 -6.10424e-07 25.3992)
(25.3994 -16.2082 0.117599 25.3995 4.71117e-06 25.3994)
(25.2519 -16.332 -0.647982 25.2519 -1.59505e-05 25.2519)
(25.2525 -16.3538 -0.648052 25.2525 -1.04158e-06 25.2525)
(25.0704 -16.1269 -1.43006 25.0704 -8.28805e-07 25.0704)
(25.0713 -16.1493 -1.43013 25.0713 5.22672e-06 25.0713)
(24.8549 -15.6332 -1.48473 24.8549 -1.58655e-05 24.8549)
(24.8559 -15.6486 -1.48586 24.8559 -9.53252e-07 24.8559)
(24.6081 -14.8965 -1.42353 24.6081 -1.09431e-06 24.6081)
(24.6091 -14.9058 -1.42421 24.6091 5.84547e-06 24.6091)
(24.3344 -13.9682 -1.34369 24.3344 -1.58582e-05 24.3344)
(24.3354 -13.9738 -1.34413 24.3354 -8.49738e-07 24.3354)
(24.0396 -12.8999 -1.24942 24.0396 -1.3614e-06 24.0396)
(24.0405 -12.9036 -1.24973 24.0405 6.54958e-06 24.0405)
(23.7299 -11.7377 -1.14458 23.7299 -1.59511e-05 23.7299)
(23.7307 -11.7403 -1.14481 23.7307 -7.29083e-07 23.7307)
(23.4117 -10.5222 -1.03274 23.4117 -1.61496e-06 23.4117)
(23.4124 -10.5242 -1.03292 23.4124 7.36658e-06 23.4124)
(23.0915 -9.28679 -0.916767 23.0915 -1.92147e-05 23.0915)
(23.0921 -9.28831 -0.91691 23.0921 -6.19283e-07 23.0921)
(22.7751 -8.05595 -0.798711 22.7751 -9.04739e-06 22.7751)
(22.7756 -8.05716 -0.798828 22.7756 8.27836e-06 22.7756)
(22.4678 -6.84582 -0.679937 22.4678 -2.60565e-05 22.4678)
(22.4683 -6.84681 -0.680035 22.4683 -5.06223e-07 22.4683)
(22.1743 -5.66447 -0.560926 22.1743 -1.25967e-05 22.1743)
(22.1747 -5.66529 -0.56101 22.1747 9.27469e-06 22.1747)
(21.8985 -4.51194 -0.441359 21.8985 -2.84157e-05 21.8985)
(21.8988 -4.51265 -0.441433 21.8988 -4.19068e-07 21.8988)
(21.6434 -3.38123 -0.320126 21.6434 -1.41145e-05 21.6434)
(21.6437 -3.38186 -0.320193 21.6437 3.68676e-06 21.6437)
(21.4117 -2.2594 -0.195456 21.4117 -2.99521e-05 21.4117)
(21.4119 -2.25997 -0.19552 21.4119 -1.38388e-05 21.4119)
(21.2051 -1.11587 -0.0650647 21.2051 -1.43874e-05 21.2051)
(21.2052 -1.11695 -0.0651274 21.2052 -2.20415e-06 21.2052)
(21.0247 0.00342631 -0.000202687 21.0246 -3.03139e-05 21.0247)
(21.0247 0.00336817 -0.000199248 21.0247 -1.38181e-05 21.0247)
(20.8708 1.23005 -0.074187 20.8708 -1.33807e-05 20.8708)
(20.8708 1.22949 -0.0741218 20.8708 -6.78915e-08 20.8708)
(20.743 2.49065 -0.224708 20.743 -2.97119e-05 20.743)
(20.743 2.49006 -0.224639 20.743 -1.24151e-05 20.743)
(20.6399 3.81708 -0.387619 20.6399 -1.15337e-05 20.6399)
(20.6399 3.81642 -0.387542 20.6399 3.15602e-06 20.6399)
(20.5588 5.20678 -0.563688 20.5588 -2.89317e-05 20.5588)
(20.5587 5.20604 -0.563601 20.5587 -1.0533e-05 20.5587)
(20.4959 6.64578 -0.752351 20.4959 -9.69161e-06 20.4958)
(20.4957 6.64493 -0.75225 20.4957 6.65987e-06 20.4957)
(20.4456 8.10745 -0.9514 20.4456 -2.88908e-05 20.4456)
(20.4454 8.10645 -0.951282 20.4454 -9.10866e-06 20.4454)
(20.4012 9.55197 -1.15677 20.4012 -8.86084e-06 20.4012)
(20.4009 9.55078 -1.15663 20.401 9.43732e-06 20.4009)
(20.3546 10.9276 -1.36237 20.3546 -3.05198e-05 20.3546)
(20.3543 10.9262 -1.36219 20.3543 -9.04027e-06 20.3543)
(20.2967 12.1732 -1.56034 20.2967 -9.53092e-06 20.2967)
(20.2963 12.1713 -1.56013 20.2963 1.09903e-05 20.2963)
(20.2181 13.2218 -1.74126 20.2181 -3.40045e-05 20.2181)
(20.2177 13.2193 -1.74097 20.2177 -1.04599e-05 20.2177)
(20.1098 14.0066 -1.89481 20.1098 -1.14496e-05 20.1098)
(20.1093 14.003 -1.89442 20.1093 1.1531e-05 20.1093)
(19.9642 14.4659 -2.01057 19.9642 -3.87344e-05 19.9642)
(19.9636 14.46 -2.00996 19.9636 -1.27772e-05 19.9636)
(19.7758 14.5498 -2.07868 19.7758 -1.37788e-05 19.7758)
(19.7752 14.5392 -2.07761 19.7752 1.18378e-05 19.7752)
(19.5425 14.2244 -1.51657 19.5425 -4.35473e-05 19.5425)
(19.5419 14.2079 -1.51643 19.5419 -1.48561e-05 19.5419)
(19.2661 13.4727 -0.506578 19.2661 -1.52652e-05 19.2661)
(19.2658 13.4606 -0.506379 19.2658 1.32047e-05 19.2658)
(18.9524 12.3047 0.453906 18.9524 -4.73285e-05 18.9524)
(18.9523 12.3141 0.454131 18.9523 -1.54128e-05 18.9523)
(18.6094 10.772 1.33141 18.6094 -1.51992e-05 18.6094)
(18.6096 10.7922 1.33155 18.6096 1.68187e-05 18.6096)
(18.247 8.9412 1.22693 18.247 -4.95646e-05 18.247)
(18.2472 8.95385 1.22824 18.2472 -1.40453e-05 18.2472)
(17.8763 6.88424 0.908624 17.8763 -1.3086e-05 17.8763)
(17.8765 6.89074 0.909329 17.8765 2.26797e-05 17.8765)
(17.5082 4.69562 0.568018 17.5082 -5.07569e-05 17.5082)
(17.5083 4.69932 0.568478 17.5083 -1.13045e-05 17.5083)
(17.1512 2.48037 0.221632 17.1512 -9.84189e-06 17.1512)
(17.1513 2.48292 0.221987 17.1513 3.03682e-05 17.1513)
(16.8111 1.60701e-14 4.27537e-16 16.8111 -5.20274e-05 16.8111)
(16.8111 0.000662918 5.38755e-05 16.8111 -8.04164e-06 16.8111)
(16.49 -1.38456 0.11416 16.49 -6.66071e-06 16.49)
(16.49 -1.38077 0.113847 16.49 3.87425e-05 16.49)
(16.1871 -3.30517 0.423055 16.1871 -5.46469e-05 16.1871)
(16.1871 -3.30333 0.422755 16.1871 -5.46424e-06 16.1871)
(15.8986 -4.66096 0.689287 15.8986 -4.83219e-06 15.8986)
(15.8986 -4.65894 0.68897 15.8986 4.65763e-05 15.8986)
(15.6199 -5.63567 0.900671 15.6199 -5.9745e-05 15.6199)
(15.6198 -5.63308 0.900297 15.6198 -4.43801e-06 15.6198)
(15.3462 -6.20913 1.04877 15.3462 -4.50248e-06 15.3462)
(15.3461 -6.20505 1.04824 15.3461 5.38639e-05 15.3461)
(15.0741 -6.38887 1.12948 15.0741 -6.72523e-05 15.0741)
(15.074 -6.38186 1.12857 15.074 -4.77467e-06 15.074)
(14.8021 -6.20832 1.02861 14.8021 -5.34635e-06 14.8021)
(14.802 -6.19895 1.02843 14.802 6.10316e-05 14.802)
(14.5304 -5.72047 0.488383 14.5304 -7.67031e-05 14.5304)
(14.5303 -5.7158 0.488119 14.5303 -5.80578e-06 14.5303)
(14.2614 -4.99915 -0.00657788 14.2614 -6.47911e-06 14.2614)
(14.2614 -5.00485 -0.00684717 14.2614 6.92385e-05 14.2614)
(13.9978 -4.13269 -0.436789 13.9979 -8.7716e-05 13.9978)
(13.9979 -4.1426 -0.436974 13.9979 -6.67167e-06 13.9979)
(13.7429 -3.20381 -0.521853 13.7429 -7.33883e-06 13.7429)
(13.7429 -3.21107 -0.522915 13.7429 7.94301e-05 13.7429)
(13.499 -2.28608 -0.355999 13.499 -9.96812e-05 13.499)
(13.4991 -2.29051 -0.356636 13.4991 -6.88414e-06 13.4991)
(13.2684 -1.44567 -0.206482 13.2684 -7.6911e-06 13.2684)
(13.2685 -1.44832 -0.206875 13.2685 9.17455e-05 13.2685)
(13.0523 -0.734382 -0.0827024 13.0524 -0.000112705 13.0523)
(13.0524 -0.736008 -0.0829518 13.0524 -5.51919e-06 13.0524)
(12.8513 -7.07172e-15 2.4047e-16 12.8513 -7.81141e-06 12.8513)
(12.8513 -0.000988094 -9.97181e-05 12.8513 0.000106599 12.8513)
(12.6653 0.0885583 -0.00906723 12.6654 -0.000127303 12.6653)
(12.6654 0.0870444 -0.00891223 12.6654 -4.03306e-06 12.6654)
(12.4943 0.367345 -0.0661588 12.4943 -8.09286e-06 12.4943)
(12.4944 0.367131 -0.0660806 12.4943 0.000124 12.4944)
(12.338 0.386245 -0.0877719 12.338 -0.000145367 12.338)
(12.338 0.386338 -0.0877616 12.338 -3.12739e-06 12.338)
(12.1961 0.259105 -0.0760084 12.1961 -8.92978e-06 12.1961)
(12.1962 0.259455 -0.0760592 12.1961 0.000144006 12.1962)
(12.0686 0.0062422 -0.0350164 12.0686 -0.000166874 12.0686)
(12.0686 0.00627177 -0.0351169 12.0686 -2.12414e-06 12.0686)
(11.9552 -0.262996 -0.107497 11.9552 -9.94931e-06 11.9552)
(11.9552 -0.261796 -0.107359 11.9551 0.000167673 11.9552)
(11.8556 -0.682612 -0.196231 11.8557 -0.000192515 11.8556)
(11.8556 -0.682016 -0.196105 11.8556 -1.13318e-06 11.8556)
(11.7695 -1.07638 -0.288765 11.7695 -1.11339e-05 11.7695)
(11.7696 -1.07588 -0.28867 11.7695 0.000195601 11.7696)
(11.6963 -1.46347 -0.379456 11.6964 -0.000221702 11.6963)
(11.6963 -1.46314 -0.379398 11.6963 2.09393e-21 11.6963)