/*--------------------------------*- C++ -*----------------------------------*\
| =========                 |                                                 |
| \\      /  F ield         | OpenFOAM: The Open Source CFD Toolbox           |
|  \\    /   O peration     | Version:  2106                                  |
|   \\  /    A nd           | Website:  www.openfoam.com                      |
|    \\/     M anipulation  |                                                 |
\*---------------------------------------------------------------------------*/
FoamFile
{
    version     2.0;
    format      ascii;
    arch        "LSB;label=32;scalar=64";
    class       volScalarField;
    location    "15000";
    object      p;
}
// * * * * * * * * * * * * * * * * * * * * * * * * * * * * * * * * * * * * * //

dimensions      [0 2 -2 0 0 0 0];

internalField   nonuniform List<scalar> 
2560
(
1.12912e-14
9.62539e-14
2.50336e-14
9.62552e-14
2.87321e-14
9.62575e-14
2.96475e-14
9.62615e-14
3.07352e-14
9.62672e-14
3.20185e-14
9.62746e-14
3.32521e-14
9.62836e-14
3.44167e-14
9.62944e-14
3.55459e-14
9.63068e-14
3.66537e-14
9.63209e-14
3.77424e-14
9.63366e-14
3.88123e-14
9.63539e-14
3.9864e-14
9.63728e-14
4.08977e-14
9.63932e-14
4.19136e-14
9.64152e-14
4.29118e-14
9.64387e-14
4.38926e-14
9.64638e-14
4.48562e-14
9.64903e-14
4.58029e-14
9.65183e-14
4.6733e-14
9.65476e-14
4.76465e-14
9.65785e-14
4.85437e-14
9.66107e-14
4.94249e-14
9.66443e-14
5.02903e-14
9.66792e-14
5.11401e-14
9.67154e-14
5.19743e-14
9.67529e-14
5.27934e-14
9.67916e-14
5.35974e-14
9.68319e-14
5.43868e-14
9.68736e-14
5.51614e-14
9.69164e-14
5.59216e-14
9.69603e-14
5.66675e-14
9.70053e-14
5.73995e-14
9.70515e-14
5.8118e-14
9.70989e-14
5.88229e-14
9.71476e-14
5.95142e-14
9.71974e-14
6.01921e-14
9.72483e-14
6.08573e-14
9.73e-14
6.15098e-14
9.73529e-14
6.21496e-14
9.74068e-14
6.27769e-14
9.74618e-14
6.3392e-14
9.75179e-14
6.39952e-14
9.75749e-14
6.45865e-14
9.76328e-14
6.51661e-14
9.76913e-14
6.57341e-14
9.77508e-14
6.62908e-14
9.78112e-14
6.68365e-14
9.78726e-14
6.73709e-14
9.79346e-14
6.78944e-14
9.79975e-14
6.84078e-14
9.80613e-14
6.89105e-14
9.81257e-14
6.94022e-14
9.81909e-14
6.98841e-14
9.82568e-14
7.03555e-14
9.83238e-14
7.08169e-14
9.83917e-14
7.12688e-14
9.84603e-14
7.17114e-14
9.85292e-14
7.21447e-14
9.85983e-14
7.25684e-14
9.86682e-14
7.29832e-14
9.87388e-14
7.33892e-14
9.88099e-14
7.37867e-14
9.88811e-14
7.41758e-14
9.89525e-14
7.45566e-14
9.90242e-14
7.49293e-14
9.90961e-14
7.52936e-14
9.91685e-14
7.56507e-14
9.9241e-14
7.60002e-14
9.9314e-14
7.63429e-14
9.93875e-14
7.66778e-14
9.94615e-14
7.70056e-14
9.95356e-14
7.73265e-14
9.96101e-14
7.76404e-14
9.96851e-14
7.79476e-14
9.97609e-14
7.82484e-14
9.98368e-14
7.85428e-14
9.99119e-14
7.88317e-14
9.9987e-14
7.91149e-14
1.00062e-13
7.93923e-14
1.00138e-13
7.96636e-14
1.00214e-13
7.99293e-14
1.00289e-13
8.01909e-14
1.00363e-13
8.0447e-14
1.00438e-13
8.06985e-14
1.00513e-13
8.09452e-14
1.00589e-13
8.11872e-14
1.00665e-13
8.14244e-14
1.00739e-13
8.16573e-14
1.00815e-13
8.18859e-14
1.00891e-13
8.2111e-14
1.00968e-13
8.23328e-14
1.01044e-13
8.25502e-14
1.01119e-13
8.27649e-14
1.01196e-13
8.2977e-14
1.01271e-13
8.31856e-14
1.01347e-13
8.33927e-14
1.01424e-13
8.35958e-14
1.01504e-13
8.37945e-14
1.01582e-13
8.39924e-14
1.0166e-13
8.4189e-14
1.01737e-13
8.43839e-14
1.01813e-13
8.45745e-14
1.0189e-13
8.47642e-14
1.01967e-13
8.49527e-14
1.02045e-13
8.5138e-14
1.02122e-13
8.53216e-14
1.02201e-13
8.55043e-14
1.02279e-13
8.56859e-14
1.02357e-13
8.58644e-14
1.02437e-13
8.60403e-14
1.02519e-13
8.62137e-14
1.02603e-13
8.63859e-14
1.02685e-13
8.65595e-14
1.02767e-13
8.67326e-14
1.0285e-13
8.6906e-14
1.02933e-13
8.70794e-14
1.03016e-13
8.72538e-14
1.031e-13
8.74253e-14
1.03184e-13
8.76e-14
1.03268e-13
8.7776e-14
1.03349e-13
8.79496e-14
1.03431e-13
8.81225e-14
1.03513e-13
8.82961e-14
1.03597e-13
8.84695e-14
1.03681e-13
8.86416e-14
1.03767e-13
8.88121e-14
1.03857e-13
8.89836e-14
1.03945e-13
8.91559e-14
1.04033e-13
8.93251e-14
1.04119e-13
8.94937e-14
1.04207e-13
8.96615e-14
1.04301e-13
8.9835e-14
1.04393e-13
9.00091e-14
1.04481e-13
9.01847e-14
1.04572e-13
9.03585e-14
1.04663e-13
9.05333e-14
1.04751e-13
9.07067e-14
1.04839e-13
9.08846e-14
1.0493e-13
9.10627e-14
1.05019e-13
9.12346e-14
1.05105e-13
9.14081e-14
1.05194e-13
9.15809e-14
1.05287e-13
9.17569e-14
1.05375e-13
9.19315e-14
1.05469e-13
9.21065e-14
1.05566e-13
9.22816e-14
1.05662e-13
9.24586e-14
1.05758e-13
9.26371e-14
1.05849e-13
9.28212e-14
1.0594e-13
9.30063e-14
1.0603e-13
9.31919e-14
1.06124e-13
9.33799e-14
1.06222e-13
9.35722e-14
1.06317e-13
9.37574e-14
1.06407e-13
9.39439e-14
1.06492e-13
9.41336e-14
1.06576e-13
9.43284e-14
1.06674e-13
9.45279e-14
1.06774e-13
9.47227e-14
1.06864e-13
9.49192e-14
1.06952e-13
9.51147e-14
1.07046e-13
9.5318e-14
1.07143e-13
9.55312e-14
1.07239e-13
9.57373e-14
1.0733e-13
9.59455e-14
1.07425e-13
9.616e-14
1.07518e-13
9.63685e-14
1.07609e-13
9.65728e-14
1.07702e-13
9.67797e-14
1.07792e-13
9.69937e-14
1.07885e-13
9.72094e-14
1.07976e-13
9.74263e-14
1.08055e-13
9.76441e-14
1.08138e-13
9.78621e-14
1.08219e-13
9.80801e-14
1.083e-13
9.82974e-14
1.0838e-13
9.85287e-14
1.08459e-13
9.87534e-14
1.08543e-13
9.89711e-14
1.08643e-13
9.92016e-14
1.08732e-13
9.94342e-14
1.08812e-13
9.96633e-14
1.08898e-13
9.98988e-14
1.08995e-13
1.00135e-13
1.09083e-13
1.00371e-13
1.09167e-13
1.00618e-13
1.09243e-13
1.00854e-13
1.09325e-13
1.01094e-13
1.09409e-13
1.01322e-13
1.09506e-13
1.01559e-13
1.0961e-13
1.01792e-13
1.097e-13
1.02034e-13
1.09783e-13
1.02287e-13
1.09884e-13
1.02531e-13
1.09993e-13
1.02782e-13
1.10073e-13
1.03027e-13
1.10161e-13
1.03283e-13
1.10273e-13
1.03538e-13
1.10378e-13
1.03792e-13
1.10469e-13
1.04051e-13
1.10573e-13
1.04291e-13
1.10686e-13
1.04539e-13
1.10791e-13
1.04791e-13
1.10893e-13
1.05045e-13
1.11004e-13
1.05306e-13
1.11117e-13
1.05558e-13
1.11254e-13
1.05811e-13
1.11372e-13
1.06065e-13
1.11482e-13
1.06319e-13
1.11606e-13
1.06585e-13
1.11732e-13
1.06851e-13
1.11837e-13
1.07127e-13
1.11912e-13
1.07393e-13
1.1202e-13
1.07682e-13
1.12128e-13
1.07937e-13
1.12258e-13
1.08204e-13
1.12376e-13
1.0847e-13
1.1247e-13
1.08727e-13
1.12573e-13
1.08983e-13
1.12717e-13
1.09241e-13
1.12823e-13
1.09498e-13
1.12915e-13
1.09757e-13
1.13045e-13
1.10016e-13
1.1318e-13
1.10267e-13
1.13287e-13
1.10518e-13
1.13374e-13
1.10772e-13
1.13497e-13
1.11029e-13
1.13643e-13
1.11289e-13
1.13801e-13
1.11541e-13
1.13958e-13
1.11807e-13
1.14093e-13
1.12066e-13
1.14258e-13
1.12339e-13
1.14476e-13
1.12605e-13
1.14647e-13
1.12865e-13
1.14793e-13
1.13128e-13
1.14977e-13
1.13396e-13
1.15145e-13
1.13647e-13
1.15317e-13
1.13892e-13
1.15471e-13
1.14141e-13
1.15637e-13
1.14396e-13
1.15815e-13
1.14646e-13
1.1596e-13
1.14891e-13
1.16113e-13
1.15121e-13
1.16296e-13
1.15402e-13
1.16408e-13
1.15637e-13
1.16588e-13
1.1587e-13
1.1677e-13
1.16125e-13
1.1691e-13
1.16315e-13
1.17047e-13
1.1655e-13
1.17203e-13
1.16786e-13
1.17353e-13
1.17004e-13
1.17559e-13
1.17247e-13
1.17736e-13
1.17473e-13
1.17966e-13
1.17682e-13
1.18146e-13
1.17895e-13
1.18273e-13
1.18115e-13
1.18408e-13
1.18343e-13
1.1857e-13
1.18518e-13
1.18816e-13
1.18703e-13
1.19005e-13
1.18916e-13
1.19135e-13
1.19078e-13
1.19286e-13
1.1925e-13
1.19418e-13
1.19433e-13
1.19571e-13
1.19627e-13
1.19744e-13
1.19812e-13
1.19936e-13
1.19947e-13
1.20046e-13
1.20134e-13
1.20134e-13
1.20336e-13
1.20297e-13
1.20455e-13
1.20491e-13
1.20567e-13
1.2064e-13
1.20671e-13
1.20728e-13
1.20786e-13
1.20812e-13
1.20953e-13
1.20969e-13
1.21131e-13
1.21178e-13
1.21301e-13
1.21344e-13
1.21447e-13
1.21448e-13
1.21531e-13
1.21583e-13
1.21684e-13
1.2175e-13
1.21811e-13
1.2197e-13
1.22019e-13
1.22134e-13
1.222e-13
1.22243e-13
1.22339e-13
1.22312e-13
1.22458e-13
1.22445e-13
1.22611e-13
1.22627e-13
1.22796e-13
1.2282e-13
1.22887e-13
1.22921e-13
1.23027e-13
1.23001e-13
1.23146e-13
1.23165e-13
1.23243e-13
1.23344e-13
1.23418e-13
1.23475e-13
1.2357e-13
1.23556e-13
1.23773e-13
1.23684e-13
1.23864e-13
1.23853e-13
1.23938e-13
1.23999e-13
1.24091e-13
1.24132e-13
1.24289e-13
1.24246e-13
1.24341e-13
1.24368e-13
1.24468e-13
1.24502e-13
1.24507e-13
1.24616e-13
1.24607e-13
1.24718e-13
1.24666e-13
1.24868e-13
1.24766e-13
1.24985e-13
1.24905e-13
1.25105e-13
1.24959e-13
1.25166e-13
1.25142e-13
1.25234e-13
1.25257e-13
1.25326e-13
1.25373e-13
1.25381e-13
1.25468e-13
1.25511e-13
1.25568e-13
1.25605e-13
1.25614e-13
1.25721e-13
1.25599e-13
1.25811e-13
1.25703e-13
1.25891e-13
1.25847e-13
1.2593e-13
1.25904e-13
1.25971e-13
1.2599e-13
1.26007e-13
1.26085e-13
1.26084e-13
1.26191e-13
1.26175e-13
1.26261e-13
1.26224e-13
1.26328e-13
1.2631e-13
9.42232e-14
9.75922e-14
9.4224e-14
9.75924e-14
9.42252e-14
9.75927e-14
9.42273e-14
9.75932e-14
9.42303e-14
9.75938e-14
9.42343e-14
9.75947e-14
9.42391e-14
9.75958e-14
9.42448e-14
9.75972e-14
9.42514e-14
9.75987e-14
9.4259e-14
9.76004e-14
9.42673e-14
9.76024e-14
9.42766e-14
9.76046e-14
9.42867e-14
9.76069e-14
9.42978e-14
9.76095e-14
9.43096e-14
9.76124e-14
9.43223e-14
9.76156e-14
9.43358e-14
9.7619e-14
9.43503e-14
9.76225e-14
9.43657e-14
9.76262e-14
9.43818e-14
9.763e-14
9.43987e-14
9.76342e-14
9.44164e-14
9.76387e-14
9.44349e-14
9.76435e-14
9.44542e-14
9.76485e-14
9.44743e-14
9.76535e-14
9.44952e-14
9.76587e-14
9.45167e-14
9.76642e-14
9.4539e-14
9.767e-14
9.45622e-14
9.76762e-14
9.45861e-14
9.76826e-14
9.46105e-14
9.76891e-14
9.46357e-14
9.76959e-14
9.46617e-14
9.77032e-14
9.46885e-14
9.77108e-14
9.47158e-14
9.77186e-14
9.47437e-14
9.77267e-14
9.47724e-14
9.77352e-14
9.48019e-14
9.77441e-14
9.48321e-14
9.77531e-14
9.48631e-14
9.77626e-14
9.48948e-14
9.77726e-14
9.49267e-14
9.77831e-14
9.49594e-14
9.77939e-14
9.49929e-14
9.78048e-14
9.50269e-14
9.78161e-14
9.50615e-14
9.78277e-14
9.50967e-14
9.78398e-14
9.51325e-14
9.78525e-14
9.51687e-14
9.7865e-14
9.52059e-14
9.78777e-14
9.52436e-14
9.78907e-14
9.52817e-14
9.79043e-14
9.53205e-14
9.79185e-14
9.53598e-14
9.7933e-14
9.53996e-14
9.79478e-14
9.54398e-14
9.7963e-14
9.54803e-14
9.79784e-14
9.55214e-14
9.79943e-14
9.55626e-14
9.80112e-14
9.56047e-14
9.8028e-14
9.56473e-14
9.80455e-14
9.56903e-14
9.80638e-14
9.57336e-14
9.80831e-14
9.57773e-14
9.81022e-14
9.58212e-14
9.81221e-14
9.58659e-14
9.81425e-14
9.59109e-14
9.81631e-14
9.59559e-14
9.81847e-14
9.60015e-14
9.82062e-14
9.60477e-14
9.82277e-14
9.60946e-14
9.82498e-14
9.61423e-14
9.82726e-14
9.61906e-14
9.82959e-14
9.62395e-14
9.83198e-14
9.62884e-14
9.83441e-14
9.63377e-14
9.83684e-14
9.63879e-14
9.83927e-14
9.64389e-14
9.8418e-14
9.64903e-14
9.84434e-14
9.65415e-14
9.84691e-14
9.65933e-14
9.84957e-14
9.66454e-14
9.85232e-14
9.66979e-14
9.85512e-14
9.67506e-14
9.85803e-14
9.6804e-14
9.86099e-14
9.68575e-14
9.86401e-14
9.69112e-14
9.86713e-14
9.69653e-14
9.87028e-14
9.70194e-14
9.87356e-14
9.7074e-14
9.87705e-14
9.71308e-14
9.88048e-14
9.71876e-14
9.88407e-14
9.72451e-14
9.88775e-14
9.73029e-14
9.89137e-14
9.73613e-14
9.89512e-14
9.74205e-14
9.89907e-14
9.74797e-14
9.90318e-14
9.75398e-14
9.90729e-14
9.76017e-14
9.91128e-14
9.76646e-14
9.91539e-14
9.77285e-14
9.91971e-14
9.77919e-14
9.92411e-14
9.78569e-14
9.92864e-14
9.79236e-14
9.93317e-14
9.799e-14
9.9378e-14
9.80582e-14
9.94243e-14
9.81254e-14
9.94723e-14
9.81937e-14
9.95229e-14
9.8264e-14
9.95732e-14
9.83364e-14
9.96245e-14
9.84085e-14
9.96775e-14
9.84811e-14
9.97315e-14
9.85544e-14
9.97857e-14
9.86292e-14
9.98416e-14
9.87056e-14
9.98986e-14
9.87829e-14
9.99583e-14
9.88585e-14
1.0002e-13
9.89368e-14
1.00082e-13
9.90144e-14
1.0015e-13
9.9093e-14
1.00215e-13
9.91737e-14
1.00283e-13
9.92548e-14
1.00349e-13
9.93371e-14
1.00417e-13
9.94207e-14
1.0049e-13
9.95067e-14
1.00566e-13
9.9595e-14
1.00642e-13
9.96822e-14
1.00721e-13
9.977e-14
1.00804e-13
9.98594e-14
1.00887e-13
9.99534e-14
1.00968e-13
1.00047e-13
1.01056e-13
1.00142e-13
1.01144e-13
1.00238e-13
1.01232e-13
1.00334e-13
1.01322e-13
1.00434e-13
1.01417e-13
1.00537e-13
1.01512e-13
1.00642e-13
1.0161e-13
1.00748e-13
1.01709e-13
1.00853e-13
1.01811e-13
1.00962e-13
1.01912e-13
1.01077e-13
1.02007e-13
1.01188e-13
1.02106e-13
1.01298e-13
1.02215e-13
1.01413e-13
1.02321e-13
1.01528e-13
1.02422e-13
1.01643e-13
1.02527e-13
1.01758e-13
1.02639e-13
1.01876e-13
1.02756e-13
1.01993e-13
1.02872e-13
1.02111e-13
1.02989e-13
1.02226e-13
1.0311e-13
1.02347e-13
1.03228e-13
1.02468e-13
1.03354e-13
1.02594e-13
1.03479e-13
1.02718e-13
1.03598e-13
1.02844e-13
1.03719e-13
1.02974e-13
1.03847e-13
1.03096e-13
1.03982e-13
1.03223e-13
1.04119e-13
1.03353e-13
1.04261e-13
1.0348e-13
1.04406e-13
1.03607e-13
1.0455e-13
1.0375e-13
1.04688e-13
1.03883e-13
1.04834e-13
1.04023e-13
1.04984e-13
1.04156e-13
1.05135e-13
1.04285e-13
1.05291e-13
1.04424e-13
1.05445e-13
1.0457e-13
1.05586e-13
1.04714e-13
1.05727e-13
1.04864e-13
1.05878e-13
1.05018e-13
1.06021e-13
1.05173e-13
1.06154e-13
1.05337e-13
1.06288e-13
1.05483e-13
1.06438e-13
1.05638e-13
1.06583e-13
1.05795e-13
1.0673e-13
1.05941e-13
1.06892e-13
1.0609e-13
1.07051e-13
1.06242e-13
1.072e-13
1.06402e-13
1.07356e-13
1.06551e-13
1.07514e-13
1.06709e-13
1.07667e-13
1.0687e-13
1.07807e-13
1.07024e-13
1.07954e-13
1.07193e-13
1.08119e-13
1.07366e-13
1.0828e-13
1.07543e-13
1.08443e-13
1.07719e-13
1.08597e-13
1.07906e-13
1.08765e-13
1.08091e-13
1.08919e-13
1.08277e-13
1.0907e-13
1.08462e-13
1.0924e-13
1.08648e-13
1.09418e-13
1.08829e-13
1.09598e-13
1.09027e-13
1.09766e-13
1.09225e-13
1.09925e-13
1.09398e-13
1.1011e-13
1.09583e-13
1.10277e-13
1.09791e-13
1.1042e-13
1.09984e-13
1.10577e-13
1.10158e-13
1.10749e-13
1.10319e-13
1.1093e-13
1.10492e-13
1.11104e-13
1.10674e-13
1.11261e-13
1.10847e-13
1.11439e-13
1.11013e-13
1.116e-13
1.11181e-13
1.11755e-13
1.11353e-13
1.11915e-13
1.11528e-13
1.12092e-13
1.11695e-13
1.12275e-13
1.11844e-13
1.12464e-13
1.12018e-13
1.12627e-13
1.12228e-13
1.12798e-13
1.12441e-13
1.12976e-13
1.12615e-13
1.13162e-13
1.12781e-13
1.13334e-13
1.12951e-13
1.13505e-13
1.13147e-13
1.13684e-13
1.13337e-13
1.13841e-13
1.13519e-13
1.13985e-13
1.13674e-13
1.14128e-13
1.13833e-13
1.14271e-13
1.13998e-13
1.14424e-13
1.14179e-13
1.14577e-13
1.14355e-13
1.14742e-13
1.14503e-13
1.14873e-13
1.14701e-13
1.14995e-13
1.14874e-13
1.15184e-13
1.15053e-13
1.15373e-13
1.15238e-13
1.1552e-13
1.15431e-13
1.15668e-13
1.15599e-13
1.15884e-13
1.15796e-13
1.1608e-13
1.15989e-13
1.16257e-13
1.162e-13
1.16448e-13
1.1643e-13
1.16609e-13
1.16625e-13
1.16806e-13
1.1683e-13
1.17017e-13
1.17033e-13
1.17211e-13
1.17235e-13
1.17387e-13
1.17437e-13
1.17558e-13
1.17627e-13
1.17733e-13
1.17808e-13
1.17957e-13
1.18011e-13
1.18134e-13
1.18214e-13
1.18287e-13
1.18355e-13
1.18435e-13
1.18519e-13
1.18623e-13
1.18684e-13
1.1881e-13
1.18893e-13
1.18975e-13
1.1904e-13
1.19139e-13
1.19188e-13
1.19305e-13
1.19338e-13
1.19472e-13
1.19488e-13
1.1962e-13
1.1966e-13
1.19813e-13
1.19789e-13
1.19967e-13
1.19938e-13
1.20127e-13
1.20086e-13
1.20336e-13
1.20167e-13
1.20534e-13
1.20281e-13
1.20704e-13
1.20447e-13
1.20849e-13
1.20603e-13
1.20909e-13
1.20752e-13
1.20941e-13
1.20899e-13
1.21065e-13
1.21063e-13
1.21199e-13
1.21186e-13
1.21321e-13
1.21308e-13
1.21431e-13
1.21429e-13
1.21531e-13
1.21569e-13
1.21639e-13
1.21691e-13
1.21755e-13
1.21794e-13
1.21859e-13
1.21879e-13
1.21931e-13
1.21967e-13
1.2199e-13
1.22079e-13
1.22114e-13
1.22194e-13
1.22264e-13
1.22253e-13
1.22403e-13
1.22345e-13
1.22535e-13
1.2245e-13
1.22625e-13
1.22568e-13
1.22749e-13
1.22643e-13
1.22907e-13
1.22762e-13
1.23009e-13
1.22887e-13
1.23091e-13
1.23056e-13
1.23171e-13
1.23183e-13
1.23263e-13
1.2329e-13
1.23402e-13
1.23409e-13
1.23497e-13
1.23505e-13
1.23582e-13
1.23651e-13
1.23657e-13
1.23746e-13
1.23754e-13
1.23789e-13
1.2387e-13
1.23915e-13
1.23975e-13
1.24054e-13
1.24102e-13
1.24171e-13
1.24217e-13
1.24265e-13
1.24355e-13
1.24367e-13
1.2445e-13
1.24479e-13
1.24604e-13
1.24663e-13
1.24753e-13
1.2482e-13
1.24864e-13
1.24862e-13
1.24966e-13
1.25043e-13
1.25099e-13
1.25241e-13
1.25226e-13
1.25342e-13
1.25279e-13
1.25386e-13
1.25345e-13
1.25498e-13
1.25425e-13
1.25585e-13
1.25451e-13
1.25596e-13
1.25508e-13
1.25611e-13
1.25571e-13
1.25682e-13
1.25642e-13
1.25804e-13
1.25694e-13
1.25841e-13
1.25772e-13
1.25902e-13
1.25881e-13
1.26014e-13
1.25938e-13
1.25988e-13
1.25993e-13
1.26096e-13
1.26084e-13
1.26137e-13
1.26155e-13
1.26221e-13
1.26241e-13
1.26289e-13
1.26263e-13
1.26321e-13
1.26322e-13
1.26363e-13
1.26365e-13
1.26385e-13
1.26392e-13
1.26393e-13
1.26414e-13
1.26456e-13
1.26465e-13
1.26548e-13
1.26515e-13
1.26565e-13
1.26587e-13
1.26578e-13
1.26581e-13
1.26646e-13
1.26631e-13
1.26657e-13
1.26678e-13
1.26659e-13
1.26723e-13
1.26701e-13
1.2677e-13
1.26757e-13
1.26826e-13
1.26711e-13
1.26836e-13
1.26732e-13
1.26806e-13
1.26737e-13
1.26818e-13
1.267e-13
1.26812e-13
1.26677e-13
1.2679e-13
1.26699e-13
1.26751e-13
1.26655e-13
1.26718e-13
1.26634e-13
1.26693e-13
1.26605e-13
1.26677e-13
1.26568e-13
1.26574e-13
1.26494e-13
1.26565e-13
1.26506e-13
1.26557e-13
1.2651e-13
1.26549e-13
1.26476e-13
1.26543e-13
1.26436e-13
1.26543e-13
1.26453e-13
1.26486e-13
1.26467e-13
1.26467e-13
1.26448e-13
1.2645e-13
1.26434e-13
1.26502e-13
1.26452e-13
1.26458e-13
1.264e-13
1.26378e-13
1.2642e-13
1.26365e-13
1.26445e-13
1.26382e-13
1.26334e-13
1.26393e-13
1.26328e-13
1.26371e-13
1.26322e-13
1.26353e-13
1.26223e-13
1.26336e-13
1.26134e-13
1.26289e-13
1.26126e-13
1.26252e-13
1.26108e-13
1.26222e-13
1.26062e-13
1.26181e-13
1.26043e-13
1.26166e-13
1.26073e-13
1.26137e-13
1.25984e-13
1.26113e-13
1.26038e-13
1.26056e-13
1.26012e-13
1.26036e-13
1.25962e-13
1.26017e-13
1.25925e-13
1.26018e-13
1.25941e-13
1.26004e-13
1.25952e-13
1.26031e-13
1.25919e-13
1.25983e-13
1.25862e-13
1.25876e-13
1.25804e-13
1.25849e-13
1.25782e-13
1.25861e-13
1.25737e-13
1.25794e-13
1.2569e-13
1.25766e-13
1.2564e-13
1.25798e-13
1.25606e-13
1.25772e-13
1.25586e-13
1.2573e-13
1.25522e-13
1.25651e-13
1.25494e-13
1.25595e-13
1.25505e-13
1.25499e-13
1.25434e-13
1.254e-13
1.25385e-13
1.25379e-13
1.25377e-13
1.25333e-13
1.25349e-13
1.2524e-13
1.25283e-13
1.25139e-13
1.2522e-13
1.25136e-13
1.25158e-13
1.25148e-13
1.25139e-13
1.25114e-13
1.25119e-13
1.25118e-13
1.251e-13
1.25118e-13
1.25057e-13
1.25117e-13
1.25035e-13
1.25071e-13
1.24967e-13
1.25046e-13
1.24941e-13
1.25084e-13
1.24911e-13
1.25059e-13
1.24866e-13
1.24959e-13
1.24818e-13
1.24891e-13
1.24801e-13
1.24899e-13
1.24781e-13
1.24885e-13
1.24748e-13
1.24872e-13
1.24712e-13
1.24838e-13
1.24673e-13
1.24816e-13
1.2462e-13
1.24795e-13
1.24596e-13
1.24733e-13
1.24558e-13
1.24672e-13
1.24496e-13
1.24622e-13
1.24465e-13
1.24595e-13
1.24431e-13
1.24546e-13
1.24406e-13
1.24499e-13
1.24367e-13
1.24485e-13
1.24338e-13
1.24461e-13
1.24318e-13
1.24394e-13
1.24297e-13
1.24339e-13
1.24252e-13
1.24339e-13
1.24229e-13
1.24317e-13
1.24193e-13
1.24285e-13
1.24156e-13
1.24242e-13
1.2414e-13
1.24178e-13
1.24113e-13
1.24146e-13
1.24096e-13
1.24126e-13
1.24078e-13
1.24071e-13
1.24061e-13
1.24016e-13
1.24044e-13
1.23971e-13
1.24016e-13
1.23947e-13
1.24e-13
1.23922e-13
1.23985e-13
1.23873e-13
1.23948e-13
1.23856e-13
1.23923e-13
1.23859e-13
1.23888e-13
1.2385e-13
1.23852e-13
1.23852e-13
1.23817e-13
1.2382e-13
1.23792e-13
1.23788e-13
1.23757e-13
1.23798e-13
1.23721e-13
1.23809e-13
1.23695e-13
1.23781e-13
1.23663e-13
1.23753e-13
1.23635e-13
1.23731e-13
1.23607e-13
1.2372e-13
1.23589e-13
1.23704e-13
1.23564e-13
1.23693e-13
1.23539e-13
1.23677e-13
1.23534e-13
1.23656e-13
1.23518e-13
1.23635e-13
1.23495e-13
1.23636e-13
1.23488e-13
1.23616e-13
1.23485e-13
1.2359e-13
1.2345e-13
1.23581e-13
1.23424e-13
1.23572e-13
1.23409e-13
1.23558e-13
1.23387e-13
1.2355e-13
1.23354e-13
1.23537e-13
1.23331e-13
1.2353e-13
1.23317e-13
1.23529e-13
1.23308e-13
1.23507e-13
1.23287e-13
1.23486e-13
1.23266e-13
1.23481e-13
1.23259e-13
1.23477e-13
1.23251e-13
1.23478e-13
1.23237e-13
1.2347e-13
1.23222e-13
1.23457e-13
1.23211e-13
1.23445e-13
1.23214e-13
1.23418e-13
1.23207e-13
1.23407e-13
1.23199e-13
1.23397e-13
1.23195e-13
1.23382e-13
1.23195e-13
1.23367e-13
1.23185e-13
1.23353e-13
1.23179e-13
1.23344e-13
1.23178e-13
1.23331e-13
1.23166e-13
1.23317e-13
1.23158e-13
1.2331e-13
1.2315e-13
1.23312e-13
1.23147e-13
1.23307e-13
1.23147e-13
1.23302e-13
1.2314e-13
1.23305e-13
1.23133e-13
1.23306e-13
1.23132e-13
1.23297e-13
1.23126e-13
1.23289e-13
1.23122e-13
1.23284e-13
1.23122e-13
1.23279e-13
1.23124e-13
1.23269e-13
1.23114e-13
1.23267e-13
1.23108e-13
1.23265e-13
1.23105e-13
1.23267e-13
1.23103e-13
1.2327e-13
1.23105e-13
1.23277e-13
1.23098e-13
1.23278e-13
1.23089e-13
1.23271e-13
1.23082e-13
1.23265e-13
1.23076e-13
1.23267e-13
1.23077e-13
1.23269e-13
1.23072e-13
1.23273e-13
1.23068e-13
1.23271e-13
1.23068e-13
1.23269e-13
1.23067e-13
1.23272e-13
1.23064e-13
1.23266e-13
1.23062e-13
1.23263e-13
1.23065e-13
1.23264e-13
1.23067e-13
1.23267e-13
1.23069e-13
1.23265e-13
1.23071e-13
1.23262e-13
1.2307e-13
1.23264e-13
1.23071e-13
1.23262e-13
1.2307e-13
1.23255e-13
1.23069e-13
1.23251e-13
1.23069e-13
1.2325e-13
1.23069e-13
1.23247e-13
1.23067e-13
1.23245e-13
1.23063e-13
1.23244e-13
1.23062e-13
1.2324e-13
1.23061e-13
1.23236e-13
1.23059e-13
1.23234e-13
1.23057e-13
1.23234e-13
1.23055e-13
1.23235e-13
1.23054e-13
1.23235e-13
1.23052e-13
1.23233e-13
1.23052e-13
1.23232e-13
1.23052e-13
1.23233e-13
1.23051e-13
1.23232e-13
1.23051e-13
1.2323e-13
1.23053e-13
1.23229e-13
1.23053e-13
1.23231e-13
1.23052e-13
1.23233e-13
1.23052e-13
1.23235e-13
1.23052e-13
1.23235e-13
1.23053e-13
1.23235e-13
1.23054e-13
1.23235e-13
1.23054e-13
1.23235e-13
1.23055e-13
1.23235e-13
1.23057e-13
1.23234e-13
1.23057e-13
1.23233e-13
1.23058e-13
1.23231e-13
1.2306e-13
1.23231e-13
1.2306e-13
1.23231e-13
1.23061e-13
1.23229e-13
1.23062e-13
1.23228e-13
1.23064e-13
1.23227e-13
1.23065e-13
1.23227e-13
1.23065e-13
1.23227e-13
1.23065e-13
1.23227e-13
1.23066e-13
1.23227e-13
1.23067e-13
1.23227e-13
1.23068e-13
1.23227e-13
1.23068e-13
1.23226e-13
1.23069e-13
1.23226e-13
1.2307e-13
1.23226e-13
1.23069e-13
1.23228e-13
1.23068e-13
1.2323e-13
1.23068e-13
1.2323e-13
1.23067e-13
1.2323e-13
1.23067e-13
1.2323e-13
1.23068e-13
1.2323e-13
1.23068e-13
1.2323e-13
1.23069e-13
1.2323e-13
1.2307e-13
1.23229e-13
1.23071e-13
1.23228e-13
1.23072e-13
1.23227e-13
1.23073e-13
1.23227e-13
1.23074e-13
1.23227e-13
1.23076e-13
1.23227e-13
1.23076e-13
1.23227e-13
1.23077e-13
1.23227e-13
1.23077e-13
1.23227e-13
1.23078e-13
1.23227e-13
1.23078e-13
1.23228e-13
1.23078e-13
1.23229e-13
1.23078e-13
1.23229e-13
1.23077e-13
1.2323e-13
1.23077e-13
1.23231e-13
1.23078e-13
1.23231e-13
1.23078e-13
1.23231e-13
1.23078e-13
1.23231e-13
1.23077e-13
1.23232e-13
1.23077e-13
1.23233e-13
1.23077e-13
1.23234e-13
1.23077e-13
1.23234e-13
1.23077e-13
1.23234e-13
1.23076e-13
1.23234e-13
1.23076e-13
1.23234e-13
1.23076e-13
1.23234e-13
1.23076e-13
1.23235e-13
1.23076e-13
1.23236e-13
1.23076e-13
1.23236e-13
1.23076e-13
1.23236e-13
1.23077e-13
1.23236e-13
1.23076e-13
1.23236e-13
1.23076e-13
1.23236e-13
1.23076e-13
1.23236e-13
1.23076e-13
1.23236e-13
1.23076e-13
1.23236e-13
1.23076e-13
1.23235e-13
1.23076e-13
1.23235e-13
1.23076e-13
1.23235e-13
1.23076e-13
1.23235e-13
1.23077e-13
1.23235e-13
1.23077e-13
1.23235e-13
1.23077e-13
1.23234e-13
1.23077e-13
1.23234e-13
1.23078e-13
1.23234e-13
1.23078e-13
1.23234e-13
1.23078e-13
1.23234e-13
1.23078e-13
1.23233e-13
1.23078e-13
1.23233e-13
1.23078e-13
1.23232e-13
1.23079e-13
1.23232e-13
1.23079e-13
1.23232e-13
1.23079e-13
1.23232e-13
1.23079e-13
1.23232e-13
1.23079e-13
1.23232e-13
1.2308e-13
1.23232e-13
1.2308e-13
1.23232e-13
1.2308e-13
1.23232e-13
1.2308e-13
1.23232e-13
1.2308e-13
1.23232e-13
1.2308e-13
1.23232e-13
1.2308e-13
1.23232e-13
1.2308e-13
1.23232e-13
1.2308e-13
1.23232e-13
1.2308e-13
1.23232e-13
1.2308e-13
1.23232e-13
1.2308e-13
1.23232e-13
1.2308e-13
1.23232e-13
1.2308e-13
1.23232e-13
1.2308e-13
1.23232e-13
1.2308e-13
1.23232e-13
1.2308e-13
1.23232e-13
1.2308e-13
1.23232e-13
1.2308e-13
1.23232e-13
1.2308e-13
1.23232e-13
1.2308e-13
1.23232e-13
1.2308e-13
1.23232e-13
1.2308e-13
1.23232e-13
1.2308e-13
1.23232e-13
1.2308e-13
1.23232e-13
1.2308e-13
1.23232e-13
1.2308e-13
1.23232e-13
1.2308e-13
1.23232e-13
1.2308e-13
1.23232e-13
1.26382e-13
1.26427e-13
1.26427e-13
1.26498e-13
1.26513e-13
1.26528e-13
1.26567e-13
1.26561e-13
1.26595e-13
1.26592e-13
1.26681e-13
1.26652e-13
1.26746e-13
1.26766e-13
1.26786e-13
1.26804e-13
1.26803e-13
1.26793e-13
1.26829e-13
1.26782e-13
1.26806e-13
1.26761e-13
1.26855e-13
1.2676e-13
1.26773e-13
1.26774e-13
1.26754e-13
1.26786e-13
1.26733e-13
1.2677e-13
1.2668e-13
1.26725e-13
1.26683e-13
1.26684e-13
1.26657e-13
1.26641e-13
1.26632e-13
1.26625e-13
1.26642e-13
1.26637e-13
1.26591e-13
1.26685e-13
1.26568e-13
1.26649e-13
1.2654e-13
1.26592e-13
1.26475e-13
1.26541e-13
1.26471e-13
1.26495e-13
1.26466e-13
1.26449e-13
1.26429e-13
1.26434e-13
1.26322e-13
1.26418e-13
1.26374e-13
1.26442e-13
1.26419e-13
1.26469e-13
1.26425e-13
1.2643e-13
1.2636e-13
1.26429e-13
1.26359e-13
1.26434e-13
1.26279e-13
1.2641e-13
1.2626e-13
1.26359e-13
1.26305e-13
1.26351e-13
1.26275e-13
1.26308e-13
1.26206e-13
1.26265e-13
1.2621e-13
1.26226e-13
1.26234e-13
1.26167e-13
1.26191e-13
1.26179e-13
1.26113e-13
1.26151e-13
1.2613e-13
1.26125e-13
1.26168e-13
1.26099e-13
1.26136e-13
1.26126e-13
1.26127e-13
1.26097e-13
1.26122e-13
1.26048e-13
1.26045e-13
1.26016e-13
1.26011e-13
1.26021e-13
1.26037e-13
1.26048e-13
1.25966e-13
1.25995e-13
1.25933e-13
1.25924e-13
1.25862e-13
1.25954e-13
1.25769e-13
1.25988e-13
1.25747e-13
1.25953e-13
1.25699e-13
1.25947e-13
1.25621e-13
1.25913e-13
1.25594e-13
1.25849e-13
1.25559e-13
1.25753e-13
1.25516e-13
1.25705e-13
1.25468e-13
1.25705e-13
1.25454e-13
1.25692e-13
1.25433e-13
1.25668e-13
1.25425e-13
1.25654e-13
1.25349e-13
1.25651e-13
1.25306e-13
1.25575e-13
1.25277e-13
1.25489e-13
1.25242e-13
1.25434e-13
1.25203e-13
1.2545e-13
1.2518e-13
1.25476e-13
1.25172e-13
1.25449e-13
1.25136e-13
1.25346e-13
1.25118e-13
1.25292e-13
1.25097e-13
1.25287e-13
1.25052e-13
1.25288e-13
1.25023e-13
1.25253e-13
1.25013e-13
1.25224e-13
1.24989e-13
1.25178e-13
1.24941e-13
1.25095e-13
1.2488e-13
1.25048e-13
1.2485e-13
1.25006e-13
1.2485e-13
1.24999e-13
1.24816e-13
1.24975e-13
1.24791e-13
1.24899e-13
1.24754e-13
1.24858e-13
1.24717e-13
1.2483e-13
1.24668e-13
1.24826e-13
1.24618e-13
1.24793e-13
1.24588e-13
1.24708e-13
1.24557e-13
1.24625e-13
1.24515e-13
1.24577e-13
1.24473e-13
1.24552e-13
1.2443e-13
1.24517e-13
1.24387e-13
1.24462e-13
1.24355e-13
1.2443e-13
1.24322e-13
1.24421e-13
1.24266e-13
1.24392e-13
1.24232e-13
1.24364e-13
1.24207e-13
1.24327e-13
1.24181e-13
1.24314e-13
1.24154e-13
1.24303e-13
1.24148e-13
1.2426e-13
1.24109e-13
1.24209e-13
1.24068e-13
1.24158e-13
1.24049e-13
1.24132e-13
1.24029e-13
1.24128e-13
1.23998e-13
1.24116e-13
1.23976e-13
1.24082e-13
1.23965e-13
1.2404e-13
1.23942e-13
1.24021e-13
1.23919e-13
1.24014e-13
1.23884e-13
1.24019e-13
1.2386e-13
1.24014e-13
1.23846e-13
1.23968e-13
1.23831e-13
1.23956e-13
1.23815e-13
1.23967e-13
1.23799e-13
1.23952e-13
1.23777e-13
1.23911e-13
1.23749e-13
1.23904e-13
1.23721e-13
1.23898e-13
1.23713e-13
1.23878e-13
1.23684e-13
1.23864e-13
1.23676e-13
1.23841e-13
1.23645e-13
1.23825e-13
1.23614e-13
1.23799e-13
1.23609e-13
1.23774e-13
1.23588e-13
1.23772e-13
1.23566e-13
1.23761e-13
1.23555e-13
1.23719e-13
1.23537e-13
1.23677e-13
1.23525e-13
1.23669e-13
1.23512e-13
1.23667e-13
1.23504e-13
1.23649e-13
1.2348e-13
1.23627e-13
1.23477e-13
1.23617e-13
1.23469e-13
1.23602e-13
1.2346e-13
1.23577e-13
1.23441e-13
1.23563e-13
1.23443e-13
1.2355e-13
1.23444e-13
1.23552e-13
1.23436e-13
1.23545e-13
1.23427e-13
1.23523e-13
1.23418e-13
1.23507e-13
1.23415e-13
1.23486e-13
1.23411e-13
1.23475e-13
1.23403e-13
1.23465e-13
1.234e-13
1.23459e-13
1.23386e-13
1.2345e-13
1.23388e-13
1.23425e-13
1.2339e-13
1.23391e-13
1.23378e-13
1.23368e-13
1.23371e-13
1.23363e-13
1.23369e-13
1.23354e-13
1.23367e-13
1.23343e-13
1.23358e-13
1.23336e-13
1.23357e-13
1.23337e-13
1.23346e-13
1.23335e-13
1.23336e-13
1.23329e-13
1.23326e-13
1.23318e-13
1.23321e-13
1.23316e-13
1.23316e-13
1.23316e-13
1.23311e-13
1.23312e-13
1.23309e-13
1.23304e-13
1.23305e-13
1.23293e-13
1.23305e-13
1.23298e-13
1.23299e-13
1.23301e-13
1.23295e-13
1.23295e-13
1.23284e-13
1.23294e-13
1.23281e-13
1.2329e-13
1.2328e-13
1.23287e-13
1.23276e-13
1.23281e-13
1.23267e-13
1.23277e-13
1.23259e-13
1.23274e-13
1.23254e-13
1.23273e-13
1.23247e-13
1.23276e-13
1.23242e-13
1.23272e-13
1.23238e-13
1.23267e-13
1.23235e-13
1.23264e-13
1.23235e-13
1.2326e-13
1.23228e-13
1.23261e-13
1.23222e-13
1.23258e-13
1.2322e-13
1.23251e-13
1.23217e-13
1.23248e-13
1.23215e-13
1.23249e-13
1.23213e-13
1.23246e-13
1.23207e-13
1.23244e-13
1.23201e-13
1.2324e-13
1.23198e-13
1.23239e-13
1.23193e-13
1.23236e-13
1.23189e-13
1.23229e-13
1.23186e-13
1.23223e-13
1.23186e-13
1.23222e-13
1.23184e-13
1.23222e-13
1.23181e-13
1.23223e-13
1.23175e-13
1.23224e-13
1.23175e-13
1.23225e-13
1.23174e-13
1.2322e-13
1.23172e-13
1.23218e-13
1.23168e-13
1.23218e-13
1.23166e-13
1.23219e-13
1.23163e-13
1.23217e-13
1.23163e-13
1.23219e-13
1.23163e-13
1.23218e-13
1.23163e-13
1.23218e-13
1.23163e-13
1.23217e-13
1.23164e-13
1.23217e-13
1.23164e-13
1.23218e-13
1.23165e-13
1.23217e-13
1.23165e-13
1.23218e-13
1.23165e-13
1.23219e-13
1.23165e-13
1.23221e-13
1.23164e-13
1.23221e-13
1.23164e-13
1.23221e-13
1.23164e-13
1.23221e-13
1.23164e-13
1.23222e-13
1.23164e-13
1.23223e-13
1.23163e-13
1.23223e-13
1.23163e-13
1.23224e-13
1.23162e-13
1.23224e-13
1.23162e-13
1.23224e-13
1.23161e-13
1.23225e-13
1.23161e-13
1.23226e-13
1.23161e-13
1.23225e-13
1.23161e-13
1.23224e-13
1.23161e-13
1.23224e-13
1.23161e-13
1.23225e-13
1.2316e-13
1.23226e-13
1.23159e-13
1.23226e-13
1.23159e-13
1.23227e-13
1.23159e-13
1.23227e-13
1.23159e-13
1.23227e-13
1.23158e-13
1.23227e-13
1.23158e-13
1.23226e-13
1.23158e-13
1.23226e-13
1.23158e-13
1.23226e-13
1.23158e-13
1.23226e-13
1.23159e-13
1.23225e-13
1.23159e-13
1.23224e-13
1.2316e-13
1.23223e-13
1.2316e-13
1.23223e-13
1.2316e-13
1.23223e-13
1.23161e-13
1.23221e-13
1.23162e-13
1.2322e-13
1.23162e-13
1.2322e-13
1.23162e-13
1.2322e-13
1.23163e-13
1.23219e-13
1.23163e-13
1.23218e-13
1.23163e-13
1.23218e-13
1.23163e-13
1.23218e-13
1.23163e-13
1.23218e-13
1.23163e-13
1.23218e-13
1.23164e-13
1.23217e-13
1.23164e-13
1.23217e-13
1.23164e-13
1.23217e-13
1.23163e-13
1.23218e-13
1.23163e-13
1.23218e-13
1.23163e-13
1.23218e-13
1.23163e-13
1.23217e-13
1.23163e-13
1.23217e-13
1.23163e-13
1.23217e-13
1.23163e-13
1.23217e-13
1.23163e-13
1.23217e-13
1.23163e-13