/*--------------------------------*- C++ -*----------------------------------*\
| =========                 |                                                 |
| \\      /  F ield         | OpenFOAM: The Open Source CFD Toolbox           |
|  \\    /   O peration     | Version:  2012                                  |
|   \\  /    A nd           | Website:  www.openfoam.com                      |
|    \\/     M anipulation  |                                                 |
\*---------------------------------------------------------------------------*/
FoamFile
{
    version     2.0;
    format      ascii;
    class       volVectorField;
    location    "13000";
    object      U;
}
// * * * * * * * * * * * * * * * * * * * * * * * * * * * * * * * * * * * * * //

dimensions      [0 1 -1 0 0 0 0];


internalField   nonuniform List<vector> 
2560
(
(0.0794549 2.11248e-08 -1.93231e-06)
(0.0794552 -1.81053e-08 4.93198e-22)
(0.239317 7.42771e-08 -2.92586e-06)
(0.239318 -3.92537e-08 -1.81702e-10)
(0.401292 1.25868e-07 -2.66925e-06)
(0.401293 -8.58014e-08 -5.51473e-10)
(0.565396 1.51016e-07 -1.89434e-06)
(0.565398 -1.46909e-07 -1.13274e-09)
(0.731643 1.64433e-07 -1.11672e-06)
(0.731646 -1.88255e-07 -1.54442e-09)
(0.900047 1.80001e-07 -6.68694e-07)
(0.90005 -2.0289e-07 -1.83697e-09)
(1.07063 1.93287e-07 -4.40978e-07)
(1.07063 -2.08808e-07 -2.11401e-09)
(1.24341 2.0241e-07 -3.18265e-07)
(1.24342 -2.13646e-07 -2.43761e-09)
(1.41844 2.08497e-07 -2.45495e-07)
(1.41845 -2.18218e-07 -2.83237e-09)
(1.59576 2.14025e-07 -1.98449e-07)
(1.59576 -2.21391e-07 -3.29703e-09)
(1.77542 2.17908e-07 -1.65807e-07)
(1.77542 -2.24842e-07 -3.8332e-09)
(1.95748 2.21476e-07 -1.41802e-07)
(1.95748 -2.27684e-07 -4.44505e-09)
(2.14201 2.24657e-07 -1.2325e-07)
(2.14202 -2.3021e-07 -5.13313e-09)
(2.32909 2.27326e-07 -1.08267e-07)
(2.32909 -2.32739e-07 -5.90293e-09)
(2.51878 2.29938e-07 -9.5667e-08)
(2.51878 -2.34914e-07 -6.75921e-09)
(2.71118 2.32108e-07 -8.46646e-08)
(2.71118 -2.37222e-07 -7.70679e-09)
(2.90636 2.3446e-07 -7.4712e-08)
(2.90636 -2.39091e-07 -8.75046e-09)
(3.10441 2.36524e-07 -6.54102e-08)
(3.10441 -2.41049e-07 -9.89603e-09)
(3.30541 2.38304e-07 -5.64536e-08)
(3.30541 -2.43122e-07 -1.11524e-08)
(3.50944 2.40292e-07 -4.76006e-08)
(3.50944 -2.44855e-07 -1.25234e-08)
(3.71658 2.42277e-07 -3.8651e-08)
(3.71658 -2.46481e-07 -1.4015e-08)
(3.9269 2.43945e-07 -2.94306e-08)
(3.92691 -2.48337e-07 -1.56381e-08)
(4.14048 2.45323e-07 -1.97823e-08)
(4.14048 -2.5041e-07 -1.74019e-08)
(4.35735 2.47612e-07 -9.56464e-09)
(4.35736 -2.51518e-07 -9.61917e-09)
(4.57758 2.49044e-07 1.35944e-09)
(4.57758 -2.53438e-07 1.30665e-09)
(4.80119 2.50662e-07 1.31263e-08)
(4.80119 -2.55141e-07 1.30751e-08)
(5.0282 2.51899e-07 2.58701e-08)
(5.0282 -2.57203e-07 2.58203e-08)
(5.25861 2.54399e-07 3.18098e-08)
(5.25862 -2.57989e-07 3.96741e-08)
(5.49242 2.55401e-07 3.4762e-08)
(5.49242 -2.60269e-07 5.47763e-08)
(5.72959 2.57288e-07 3.79272e-08)
(5.72959 -2.61667e-07 7.12737e-08)
(5.97006 2.58301e-07 4.131e-08)
(5.97006 -2.6395e-07 8.93168e-08)
(6.21376 2.60982e-07 4.49323e-08)
(6.21376 -2.6458e-07 1.09061e-07)
(6.46058 2.61872e-07 4.88121e-08)
(6.46058 -2.67025e-07 1.30673e-07)
(6.7104 2.63692e-07 5.29547e-08)
(6.7104 -2.68569e-07 1.54335e-07)
(6.96306 2.6508e-07 5.73713e-08)
(6.96307 -2.70582e-07 1.80234e-07)
(7.21839 2.67557e-07 6.20891e-08)
(7.21839 -2.71543e-07 2.08567e-07)
(7.47617 2.68607e-07 6.71265e-08)
(7.47617 -2.73981e-07 2.3955e-07)
(7.73616 2.70412e-07 7.24916e-08)
(7.73616 -2.75715e-07 2.41511e-07)
(7.99809 2.71996e-07 7.81993e-08)
(7.99809 -2.77726e-07 2.42092e-07)
(8.26165 2.7446e-07 8.42809e-08)
(8.26166 -2.78923e-07 2.42975e-07)
(8.52653 2.75886e-07 9.07618e-08)
(8.52653 -2.81224e-07 2.4415e-07)
(8.79234 2.77606e-07 9.76549e-08)
(8.79234 -2.83308e-07 2.45606e-07)
(9.05869 2.7917e-07 1.04972e-07)
(9.05869 -2.85625e-07 2.47338e-07)
(9.32516 2.82454e-07 1.12759e-07)
(9.32517 -2.86311e-07 2.49338e-07)
(9.59129 2.82589e-07 1.2103e-07)
(9.5913 -2.90237e-07 2.51601e-07)
(9.85659 2.86668e-07 1.29817e-07)
(9.8566 -2.90317e-07 2.54124e-07)
(10.1206 2.85956e-07 1.3913e-07)
(10.1206 -2.95292e-07 2.56901e-07)
(10.3826 2.91751e-07 1.49016e-07)
(10.3826 -2.93871e-07 2.59929e-07)
(10.6422 2.91449e-07 1.59533e-07)
(10.6422 -2.98669e-07 2.63204e-07)
(10.8988 2.92631e-07 1.70628e-07)
(10.8988 -3.02097e-07 2.66722e-07)
(11.1517 2.95655e-07 1.82318e-07)
(11.1517 -3.0383e-07 2.70479e-07)
(11.4003 3.0642e-07 1.94851e-07)
(11.4003 -2.97942e-07 2.74469e-07)
(11.6439 2.88778e-07 2.07982e-07)
(11.6439 -3.20621e-07 2.78687e-07)
(11.8819 3.15484e-07 2.21826e-07)
(11.8819 -2.99094e-07 2.83125e-07)
(12.1136 2.9952e-07 2.3656e-07)
(12.1136 -3.20408e-07 2.87773e-07)
(12.3383 3.09543e-07 2.51925e-07)
(12.3383 -3.159e-07 2.92622e-07)
(12.5554 3.16594e-07 2.68235e-07)
(12.5554 -3.14528e-07 2.97657e-07)
(12.7641 3.05538e-07 2.85269e-07)
(12.7641 -3.31461e-07 3.02864e-07)
(12.9637 3.25481e-07 3.0311e-07)
(12.9637 -3.17573e-07 3.08223e-07)
(13.1536 3.13957e-07 3.21841e-07)
(13.1536 -3.35362e-07 3.21834e-07)
(13.3332 3.29477e-07 3.41401e-07)
(13.3332 -3.26296e-07 3.41394e-07)
(13.5017 3.21724e-07 3.61832e-07)
(13.5017 -3.40726e-07 3.61825e-07)
(13.6586 3.26405e-07 3.82845e-07)
(13.6586 -3.42935e-07 3.82837e-07)
(13.8033 3.41248e-07 4.04774e-07)
(13.8033 -3.35194e-07 4.04765e-07)
(13.9352 3.31163e-07 4.27539e-07)
(13.9352 -3.5263e-07 4.2753e-07)
(14.0539 3.34252e-07 4.50684e-07)
(14.0539 -3.57102e-07 4.50674e-07)
(14.1589 3.56048e-07 4.74668e-07)
(14.1589 -3.43112e-07 4.74658e-07)
(14.2498 3.26397e-07 4.98991e-07)
(14.2498 -3.80806e-07 4.98979e-07)
(14.3262 3.79924e-07 5.24062e-07)
(14.3262 -3.35561e-07 5.2405e-07)
(14.388 3.1563e-07 5.49273e-07)
(14.388 -4.08374e-07 5.4926e-07)
(14.435 3.99174e-07 5.74862e-07)
(14.435 -3.33597e-07 5.7485e-07)
(14.4669 3.2338e-07 6.00795e-07)
(14.4669 -4.18391e-07 6.00781e-07)
(14.4838 4.00355e-07 6.26736e-07)
(14.4838 -3.50666e-07 6.26722e-07)
(14.4857 3.42164e-07 6.52999e-07)
(14.4857 -4.18336e-07 6.52984e-07)
(14.4727 4.00106e-07 6.79215e-07)
(14.4727 -3.70122e-07 6.792e-07)
(14.4451 3.591e-07 7.05645e-07)
(14.4451 -4.2108e-07 7.05628e-07)
(14.4032 3.97332e-07 7.31836e-07)
(14.4032 -3.93051e-07 7.3182e-07)
(14.3472 3.85388e-07 7.58382e-07)
(14.3472 -4.1543e-07 7.58365e-07)
(14.2777 3.90729e-07 7.84714e-07)
(14.2777 -4.20755e-07 7.84696e-07)
(14.1951 4.12e-07 8.11443e-07)
(14.1951 -4.10403e-07 8.11424e-07)
(14.1 3.83968e-07 8.37997e-07)
(14.1 -4.49583e-07 8.37978e-07)
(13.9931 4.36387e-07 8.64901e-07)
(13.9931 -4.08575e-07 8.64881e-07)
(13.8749 3.90377e-07 8.92067e-07)
(13.8749 -4.66227e-07 8.92047e-07)
(13.7463 4.42768e-07 9.19339e-07)
(13.7463 -4.25765e-07 9.19318e-07)
(13.6079 4.11249e-07 9.47151e-07)
(13.6079 -4.69447e-07 9.4713e-07)
(13.4605 4.51617e-07 9.75436e-07)
(13.4605 -4.41557e-07 9.75414e-07)
(13.3049 4.20865e-07 1.00417e-06)
(13.3049 -4.85026e-07 1.00415e-06)
(13.1419 4.66594e-07 1.03348e-06)
(13.1419 -4.52375e-07 1.03346e-06)
(12.9722 4.31082e-07 1.06335e-06)
(12.9722 -5.01204e-07 1.06333e-06)
(12.7966 4.78924e-07 1.09375e-06)
(12.7966 -4.67094e-07 1.09373e-06)
(12.6159 4.5422e-07 1.12516e-06)
(12.6159 -5.05774e-07 1.12513e-06)
(12.4307 4.82809e-07 1.15717e-06)
(12.4307 -4.91638e-07 1.15715e-06)
(12.2419 4.74276e-07 1.19009e-06)
(12.2419 -5.14867e-07 1.19007e-06)
(12.0501 4.87262e-07 1.22349e-06)
(12.0501 -5.17143e-07 1.22346e-06)
(11.8559 5.08416e-07 1.25822e-06)
(11.8559 -5.11468e-07 1.25819e-06)
(11.6599 4.88152e-07 1.29368e-06)
(11.6599 -5.47893e-07 1.29365e-06)
(11.4627 5.20947e-07 1.32968e-06)
(11.4627 -5.31446e-07 1.32965e-06)
(11.2648 5.22084e-07 1.36706e-06)
(11.2648 -5.4748e-07 1.36703e-06)
(11.0668 5.19155e-07 1.40495e-06)
(11.0667 -5.67693e-07 1.40492e-06)
(10.8689 5.54763e-07 1.44404e-06)
(10.8689 -5.5039e-07 1.444e-06)
(10.6718 5.31957e-07 1.48411e-06)
(10.6718 -5.9151e-07 1.48407e-06)
(10.4756 5.62482e-07 1.52458e-06)
(10.4756 -5.80559e-07 1.52454e-06)
(10.2809 5.67497e-07 1.56623e-06)
(10.2809 -5.94974e-07 1.5662e-06)
(10.0877 5.77078e-07 1.60881e-06)
(10.0877 -6.06385e-07 1.60877e-06)
(9.89647 5.82579e-07 1.65198e-06)
(9.89647 -6.21526e-07 1.65194e-06)
(9.70734 6.0797e-07 1.69621e-06)
(9.70734 -6.18729e-07 1.69617e-06)
(9.52052 5.9637e-07 1.74105e-06)
(9.52052 -6.52261e-07 1.74101e-06)
(9.33617 6.34703e-07 1.78663e-06)
(9.33617 -6.3833e-07 1.78659e-06)
(9.15443 6.23974e-07 1.83316e-06)
(9.15442 -6.72364e-07 1.83311e-06)
(8.9754 6.46901e-07 1.87988e-06)
(8.9754 -6.75895e-07 1.87983e-06)
(8.79918 6.63369e-07 1.92751e-06)
(8.79918 -6.84159e-07 1.92746e-06)
(8.62583 6.71883e-07 1.97592e-06)
(8.62583 -7.04455e-07 1.97587e-06)
(8.45542 6.78362e-07 2.02435e-06)
(8.45542 -7.24175e-07 2.0243e-06)
(8.28796 7.19707e-07 2.07383e-06)
(8.28796 -7.14339e-07 2.07377e-06)
(8.12349 6.87229e-07 2.12309e-06)
(8.12349 -7.74493e-07 2.12304e-06)
(7.96201 7.7184e-07 2.1733e-06)
(7.962 -7.24512e-07 2.17323e-06)
(7.80351 7.03534e-07 2.22349e-06)
(7.80351 -8.21925e-07 2.22343e-06)
(7.64799 8.16797e-07 2.27422e-06)
(7.64799 -7.4694e-07 2.27415e-06)
(7.49543 7.24755e-07 2.32466e-06)
(7.49543 -8.69398e-07 2.3246e-06)
(7.34579 8.65263e-07 2.3754e-06)
(7.34579 -7.71469e-07 2.37532e-06)
(7.19905 7.62189e-07 2.42646e-06)
(7.19905 -9.0604e-07 2.4264e-06)
(7.05516 8.95843e-07 2.4771e-06)
(7.05516 -8.20098e-07 2.47701e-06)
(6.91409 8.16113e-07 2.5282e-06)
(6.91408 -9.32021e-07 2.52813e-06)
(6.77578 9.22257e-07 2.5785e-06)
(6.77578 -8.79784e-07 2.5784e-06)
(6.6402 8.74418e-07 2.62894e-06)
(6.6402 -9.59913e-07 2.62887e-06)
(6.50729 9.65414e-07 2.67916e-06)
(6.50729 -9.30389e-07 2.67905e-06)
(6.37701 9.11312e-07 2.72836e-06)
(6.37701 -1.01598e-06 2.72829e-06)
(6.24931 1.04029e-06 2.77811e-06)
(6.24931 -9.57823e-07 2.77798e-06)
(6.12414 9.33118e-07 2.82627e-06)
(6.12414 -1.09435e-06 2.82619e-06)
(6.00147 1.11925e-06 2.87434e-06)
(6.00147 -9.90758e-07 2.87418e-06)
(5.88125 9.74463e-07 2.92127e-06)
(5.88125 -1.16086e-06 2.9212e-06)
(5.76344 1.1968e-06 2.96816e-06)
(5.76344 -1.03589e-06 2.96798e-06)
(5.648 1.00582e-06 3.01282e-06)
(5.648 -1.24541e-06 3.01275e-06)
(5.5349 1.29511e-06 3.05746e-06)
(5.5349 -1.0725e-06 3.05724e-06)
(5.42411 1.04274e-06 3.09993e-06)
(5.42411 -1.33275e-06 3.09988e-06)
(5.31559 1.39949e-06 3.14251e-06)
(5.31559 -1.11699e-06 3.14223e-06)
(5.20932 1.07132e-06 3.18188e-06)
(5.20932 -1.43694e-06 3.18186e-06)
(5.10525 1.52719e-06 3.22168e-06)
(5.10525 -1.15423e-06 3.22134e-06)
(5.00337 1.09164e-06 3.25739e-06)
(5.00337 -1.55782e-06 3.25741e-06)
(4.90363 1.67832e-06 3.29398e-06)
(4.90363 -1.18672e-06 3.29356e-06)
(4.80603 1.10436e-06 3.32576e-06)
(4.80603 -1.69431e-06 3.32583e-06)
(4.71053 1.85369e-06 3.3591e-06)
(4.71053 -1.2169e-06 3.35855e-06)
(4.61711 1.10134e-06 3.38628e-06)
(4.6171 -1.85359e-06 3.38645e-06)
(4.52575 2.0617e-06 3.4158e-06)
(4.52575 -1.24055e-06 3.4151e-06)
(4.43644 1.07873e-06 3.43745e-06)
(4.43644 -2.03782e-06 3.43775e-06)
(4.34916 2.32107e-06 3.46352e-06)
(4.34916 -1.24429e-06 3.46259e-06)
(4.2639 1.01132e-06 3.4789e-06)
(4.2639 -2.26942e-06 3.47941e-06)
(4.18066 2.64692e-06 3.50108e-06)
(4.18066 -1.21998e-06 3.49983e-06)
(4.09941 8.99291e-07 3.50985e-06)
(4.09941 -2.54386e-06 3.51066e-06)
(4.02016 3.04042e-06 3.52807e-06)
(4.02016 -1.17564e-06 3.52638e-06)
(3.9429 7.28551e-07 3.5288e-06)
(3.9429 -2.86862e-06 3.53005e-06)
(3.86762 3.52968e-06 3.54305e-06)
(3.86761 -1.09545e-06 3.54074e-06)
(3.79431 4.74089e-07 3.53438e-06)
(3.79431 -3.25893e-06 3.53627e-06)
(3.72297 4.14422e-06 3.54507e-06)
(3.72296 -9.66385e-07 3.54189e-06)
(3.65358 1.02003e-07 3.52532e-06)
(3.65358 -3.73433e-06 3.52814e-06)
(3.58615 4.92339e-06 3.5329e-06)
(3.58615 -7.71494e-07 3.52849e-06)
(3.52066 -4.25609e-07 3.50021e-06)
(3.52065 -4.3119e-06 3.50438e-06)
(3.45707 5.90825e-06 3.50512e-06)
(3.45707 -5.00365e-07 3.49895e-06)
(3.39538 -1.14785e-06 3.45735e-06)
(3.39538 -5.00067e-06 3.46348e-06)
(3.33554 7.1538e-06 3.46136e-06)
(3.33554 -1.40212e-07 3.45267e-06)
(3.27749 -2.1446e-06 3.39444e-06)
(3.27749 -5.8373e-06 3.40342e-06)
(3.22117 8.76927e-06 3.40051e-06)
(3.22117 3.59679e-07 3.3882e-06)
(3.16651 -3.5319e-06 3.31007e-06)
(3.16651 -6.87585e-06 3.3232e-06)
(3.11341 1.08725e-05 3.32107e-06)
(3.11341 1.03561e-06 3.30355e-06)
(3.06179 -5.42733e-06 3.20184e-06)
(3.06179 -8.14518e-06 3.22101e-06)
(3.01154 1.36151e-05 3.22377e-06)
(3.01154 1.92475e-06 3.19871e-06)
(2.96257 -8.03594e-06 3.06605e-06)
(2.96257 -9.72329e-06 3.09403e-06)
(2.91479 1.72458e-05 3.10588e-06)
(2.91478 3.11479e-06 3.07948e-06)
(2.86812 -1.15898e-05 2.90177e-06)
(2.86812 -1.16593e-05 3.21337e-06)
(2.82251 2.20071e-05 2.97009e-06)
(2.82251 4.61914e-06 3.27229e-06)
(2.77792 -1.64091e-05 2.70362e-06)
(2.77792 -1.40118e-05 3.4289e-06)
(2.73436 2.83154e-05 2.81574e-06)
(2.73435 6.53104e-06 3.47536e-06)
(2.69181 -2.29421e-05 2.46937e-06)
(2.69181 -1.68549e-05 3.66256e-06)
(2.65032 3.66613e-05 2.64581e-06)
(2.65032 8.88066e-06 3.68806e-06)
(2.60991 -3.17625e-05 2.19308e-06)
(2.60991 -2.0224e-05 3.91724e-06)
(2.57061 4.77629e-05 2.4668e-06)
(2.57061 1.17268e-05 3.90901e-06)
(2.53244 -4.37281e-05 1.87057e-06)
(2.53244 -2.42012e-05 4.1968e-06)
(2.49541 6.26101e-05 2.28494e-06)
(2.49541 1.5113e-05 4.13569e-06)
(2.45952 -5.99644e-05 1.49384e-06)
(2.45951 -2.87908e-05 4.50655e-06)
(2.42475 8.25345e-05 2.1118e-06)
(2.42475 1.90067e-05 4.36384e-06)
(2.39109 -8.20598e-05 1.0491e-06)
(2.39108 -3.39581e-05 4.85392e-06)
(2.35848 0.000109441 1.9613e-06)
(2.35848 2.33405e-05 4.58657e-06)
(2.32688 -0.000112235 6.38663e-07)
(2.32688 -3.95686e-05 5.24958e-06)
(2.29621 0.000142898 1.72543e-06)
(2.29621 2.78456e-05 4.91535e-06)
(2.26641 -0.000147247 4.52812e-07)
(2.26641 -4.52482e-05 5.7041e-06)
(2.23741 0.000175029 1.1962e-06)
(2.23741 3.2024e-05 5.55451e-06)
(2.20915 -0.000174178 2.52004e-07)
(2.20915 -5.0502e-05 6.21889e-06)
(2.18158 0.000198994 6.1159e-07)
(2.18158 3.53303e-05 6.26144e-06)
(2.15468 -0.000192331 3.50768e-08)
(2.15468 -5.483e-05 6.79215e-06)
(2.12843 0.000214083 -3.19102e-19)
(2.12843 3.72607e-05 7.03668e-06)
(2.10287 -0.000189388 5.53459e-07)
(2.10287 -5.77995e-05 6.90319e-06)
(2.07801 0.000208522 2.40721e-07)
(2.078 3.75388e-05 7.31444e-06)
(2.05387 -0.000176771 1.29496e-06)
(2.05387 -5.91742e-05 6.98644e-06)
(2.03048 0.000192349 5.03543e-07)
(2.03048 3.61373e-05 7.61734e-06)
(2.00782 -0.000153435 2.08219e-06)
(2.00782 -5.90456e-05 7.08713e-06)
(1.98589 0.00016537 7.88073e-07)
(1.98589 3.32326e-05 7.95937e-06)
(1.96468 -0.000123392 2.70678e-06)
(1.96468 -5.76954e-05 7.42088e-06)
(1.94415 0.000136117 1.30924e-06)
(1.94415 2.91359e-05 8.34892e-06)
(1.92427 -9.50453e-05 3.15935e-06)
(1.92426 -5.55615e-05 7.99918e-06)
(1.90495 0.000113138 2.08431e-06)
(1.90495 2.42905e-05 8.78408e-06)
(1.88607 -7.21211e-05 3.67534e-06)
(1.88606 -5.31291e-05 8.58515e-06)
(1.86747 9.52188e-05 2.87131e-06)
(1.86747 1.9081e-05 9.26052e-06)
(1.84899 -5.34634e-05 4.25682e-06)
(1.84899 -5.06865e-05 9.18204e-06)
(1.83044 8.13248e-05 3.67751e-06)
(1.83044 1.37026e-05 9.77449e-06)
(1.81162 -3.81436e-05 4.90135e-06)
(1.81161 -4.84189e-05 9.79252e-06)
(1.79235 7.0687e-05 4.51188e-06)
(1.79234 8.32284e-06 1.03228e-05)
(1.7725 -2.54619e-05 5.60443e-06)
(1.77249 -4.64916e-05 1.04178e-05)
(1.75197 6.26652e-05 5.37079e-06)
(1.75197 3.0255e-06 1.09029e-05)
(1.73078 -1.48153e-05 6.35893e-06)
(1.73077 -4.49755e-05 1.10598e-05)
(1.70894 5.67355e-05 6.25316e-06)
(1.70894 -2.17072e-06 1.15126e-05)
(1.6865 -5.72679e-06 7.16079e-06)
(1.6865 -4.39092e-05 1.17196e-05)
(1.66347 5.25369e-05 7.1653e-06)
(1.66347 -7.22256e-06 1.21506e-05)
(1.63981 2.14051e-06 8.00799e-06)
(1.6398 -4.33532e-05 1.23983e-05)
(1.61545 4.97854e-05 8.10576e-06)
(1.61545 -1.2116e-05 1.28155e-05)
(1.59032 9.07269e-06 8.89497e-06)
(1.59032 -4.3328e-05 1.30973e-05)
(1.56433 4.82122e-05 9.06857e-06)
(1.56432 -1.69044e-05 1.35073e-05)
(1.53738 1.53089e-05 9.81994e-06)
(1.53737 -4.38321e-05 1.38182e-05)
(1.50941 4.76656e-05 1.007e-05)
(1.5094 -2.15875e-05 1.42266e-05)
(1.48035 2.10438e-05 1.08049e-05)
(1.48034 -4.4857e-05 1.45638e-05)
(1.45015 4.8009e-05 1.11334e-05)
(1.45014 -2.61991e-05 1.49761e-05)
(1.41885 2.64399e-05 1.18683e-05)
(1.41884 -4.63886e-05 1.53384e-05)
(1.38656 4.90858e-05 1.22723e-05)
(1.38654 -3.08319e-05 1.57597e-05)
(1.35349 3.1667e-05 1.30273e-05)
(1.35347 -4.83791e-05 1.61475e-05)
(1.31991 5.0829e-05 1.35127e-05)
(1.31989 -3.55193e-05 1.65827e-05)
(1.28607 3.68646e-05 1.42996e-05)
(1.28606 -5.07922e-05 1.69968e-05)
(1.25217 5.31726e-05 1.48522e-05)
(1.25215 -4.03182e-05 1.74499e-05)
(1.21828 4.20683e-05 1.56513e-05)
(1.21827 -5.36837e-05 1.78912e-05)
(1.18438 5.6088e-05 1.62453e-05)
(1.18436 -4.52675e-05 1.83653e-05)
(1.15026 4.72584e-05 1.70375e-05)
(1.15024 -5.71564e-05 1.8835e-05)
(1.11576 5.96113e-05 1.7679e-05)
(1.11574 -5.03574e-05 1.93338e-05)
(1.08077 5.25603e-05 1.84929e-05)
(1.08074 -6.11645e-05 1.98343e-05)
(1.04532 6.37126e-05 1.92059e-05)
(1.0453 -5.56577e-05 2.03619e-05)
(1.00958 5.81341e-05 2.00776e-05)
(1.00955 -6.56281e-05 2.08968e-05)
(0.973702 6.83228e-05 2.08703e-05)
(0.973673 -6.12904e-05 2.14579e-05)
(0.937847 6.40541e-05 2.18098e-05)
(0.937817 -7.05559e-05 2.20307e-05)
(0.90215 7.34685e-05 2.2682e-05)
(0.902118 -6.72941e-05 2.27908e-05)
(0.86678 7.0303e-05 2.36806e-05)
(0.866746 -7.60535e-05 2.37881e-05)
(0.831948 7.91749e-05 2.46353e-05)
(0.831912 -7.37208e-05 2.47517e-05)
(0.797899 7.69964e-05 2.57139e-05)
(0.797861 -8.20998e-05 2.58306e-05)
(0.764832 8.5572e-05 2.67665e-05)
(0.764793 -8.05274e-05 2.6891e-05)
(0.732785 8.41061e-05 2.79019e-05)
(0.732744 -8.88224e-05 2.8028e-05)
(0.701607 9.26582e-05 2.9017e-05)
(0.701565 -8.78115e-05 2.91501e-05)
(0.670975 9.16631e-05 3.01793e-05)
(0.67093 -9.62959e-05 3.0315e-05)
(0.640447 0.000100424 3.13436e-05)
(0.640398 -9.5686e-05 3.14855e-05)
(0.609579 9.98101e-05 3.2562e-05)
(0.609525 -0.000104489 3.27071e-05)
(0.578004 0.000109031 3.38183e-05)
(0.577944 -0.000104102 3.39684e-05)
(0.545395 0.000108537 3.51076e-05)
(0.545328 -0.000113532 3.52607e-05)
(0.51151 0.000118473 3.647e-05)
(0.511433 -0.000113194 3.66262e-05)
(0.476409 0.000117953 3.78707e-05)
(0.476322 -0.000123453 3.80288e-05)
(0.44058 0.000128869 3.93912e-05)
(0.440483 -0.00012299 3.95496e-05)
(0.404861 0.000128175 4.09452e-05)
(0.404754 -0.000134292 4.11043e-05)
(0.370185 0.000140344 4.2636e-05)
(0.37007 -0.000133535 4.27926e-05)
(0.33736 0.000139104 4.42996e-05)
(0.337239 -0.00014633 4.44564e-05)
(0.307075 0.000153026 4.61415e-05)
(0.30695 -0.000144895 4.62939e-05)
(0.279788 0.000150939 4.79064e-05)
(0.279661 -0.000159558 4.80601e-05)
(0.255389 0.000167048 4.98602e-05)
(0.255259 -0.000157133 5.00084e-05)
(0.233058 0.000163623 5.16384e-05)
(0.23292 -0.000174223 5.17902e-05)
(0.211649 0.000182497 5.3644e-05)
(0.211498 -0.000170362 5.37882e-05)
(0.190337 0.000177119 5.54118e-05)
(0.190166 -0.000190553 5.55605e-05)
(0.169161 0.000199616 5.7555e-05)
(0.168972 -0.000184537 5.76907e-05)
(0.148915 0.000191511 5.94367e-05)
(0.148712 -0.000208652 5.95768e-05)
(0.130632 0.000218738 6.18897e-05)
(0.130426 -0.000199524 6.20112e-05)
(0.115095 0.000206921 6.39792e-05)
(0.1149 -0.000228579 6.41087e-05)
(0.102711 0.000239814 6.67406e-05)
(0.10254 -0.000215566 6.68484e-05)
(0.0936472 0.000223487 6.90024e-05)
(0.0935108 -0.000250364 6.91268e-05)
(0.087607 0.000263195 7.19821e-05)
(0.0875074 -0.000232486 7.2084e-05)
(0.0838462 0.000240758 7.41196e-05)
(0.0837777 -0.000274605 7.42504e-05)
(0.0815459 0.000289032 7.70962e-05)
(0.0814978 -0.000250297 7.72022e-05)
(0.0800142 0.000258616 7.89196e-05)
(0.079973 -0.000301557 7.90671e-05)
(0.0786236 0.000317466 8.1859e-05)
(0.0785725 -0.000269021 8.19747e-05)
(0.0766645 0.000277008 8.34552e-05)
(0.0765815 -0.000331403 8.36239e-05)
(0.0733078 0.000349191 8.66651e-05)
(0.0731636 -0.000288118 8.67882e-05)
(0.0677861 0.000295977 8.82017e-05)
(0.0675408 -0.000364219 8.83848e-05)
(0.059511 0.000384466 9.17281e-05)
(0.0591045 -0.000307474 9.18401e-05)
(0.0481323 0.000314868 9.29802e-05)
(0.0474666 -0.000400762 9.31518e-05)
(0.0336345 0.000423513 9.6763e-05)
(0.0325508 -0.000326978 9.68264e-05)
(0.0160608 0.000333511 9.77173e-05)
(0.0143536 -0.000441271 9.78336e-05)
(-0.00476782 0.000466972 0.000101945)
(-0.00713752 -0.000346158 0.000101911)
(-0.0290082 0.000351523 0.000102561)
(-0.0313144 -0.000486311 0.000102641)
(-0.0559105 0.000515034 0.000107287)
(-0.0576081 -0.000364167 0.000107426)
(-0.0845785 0.000368635 0.000107611)
(-0.085721 -0.000536601 0.000107922)
(-0.11479 0.000569145 0.000113129)
(-0.115619 -0.000380866 0.000113513)
(-0.146903 0.000384078 0.000112882)
(-0.147575 -0.000593392 0.000113521)
(-0.181065 0.00063047 0.000119216)
(-0.181643 -0.00039626 0.000119944)
(-0.216631 0.000397753 0.000118246)
(-0.217135 -0.00065793 0.000119357)
(-0.252313 0.000701034 0.000125652)
(-0.252748 -0.000410058 0.000126857)
(-0.286693 0.000409171 0.000123651)
(-0.287064 -0.000732382 0.00012541)
(-0.318779 0.000783387 0.000132338)
(-0.319093 -0.000422215 0.000134139)
(-0.34764 0.000417918 0.000128889)
(-0.347896 -0.000819352 0.000131463)
(-0.371608 0.000880942 0.000139153)
(-0.371799 -0.000432552 0.000141626)
(-0.388751 0.00042321 0.000133667)
(-0.388873 -0.000922121 0.000137203)
(-0.398221 0.000997895 0.000145916)
(-0.398278 -0.000440858 0.000149013)
(-0.401069 0.00042422 0.000137748)
(-0.401078 -0.00104404 0.000142288)
(-0.39992 0.0011387 0.000152399)
(-0.399906 -0.000447077 0.000155922)
(-0.397836 0.000418743 0.000140664)
(-0.397822 -0.00118925 0.000146288)
(-0.396999 0.0013091 0.00015877)
(-0.396999 -0.000450278 0.000162584)
(-0.397708 0.000405093 0.000142947)
(-0.397716 -0.0013608 0.000150754)
(-0.398713 0.00151572 0.000165405)
(-0.398715 -0.00044999 0.000169458)
(-0.39833 0.000379005 0.000143512)
(-0.398307 -0.00156386 0.000170642)
(-0.395087 0.00176708 0.000171038)
(-0.395022 -0.000446344 0.000178191)
(-0.38803 0.000336149 0.000140844)
(-0.38791 -0.00180268 0.000193634)
(-0.376977 0.00207366 0.000174523)
(-0.376796 -0.000440512 0.00020064)
(-0.362526 0.000269022 0.00013316)
(-0.362281 -0.0020825 0.00021989)
(-0.345279 0.0024494 0.000175777)
(-0.344958 -0.000433613 0.000225208)
(-0.324708 0.000168504 0.000121236)
(-0.32428 -0.00240684 0.000249616)
(-0.299894 0.00291259 0.000177636)
(-0.299325 -0.000426814 0.00025164)
(-0.271352 2.13883e-05 0.000106765)
(-0.270624 -0.00277949 0.000283061)
(-0.24077 0.00348562 0.00018186)
(-0.239886 -0.000422344 0.000279453)
(-0.210396 -0.000192062 8.81964e-05)
(-0.209384 -0.00320606 0.000320189)
(-0.182507 0.00419571 0.000187108)
(-0.18141 -0.000421834 0.000307977)
(-0.158177 -0.00049697 6.26043e-05)
(-0.157023 -0.00369263 0.000360793)
(-0.137003 0.00831945 0.00102589)
(-0.135849 -0.000430199 0.000158529)
(-0.117735 -0.00476213 0.000470694)
(-0.116666 -0.00356298 9.41093e-05)
(-0.101015 0.00866798 0.000538388)
(-0.100105 0.000167176 0.000131326)
(-0.0879671 -0.0058779 0.000517463)
(-0.0872702 -0.0033319 8.15698e-05)
(-0.0783118 0.00890525 0.000586758)
(-0.0777849 0.00075617 0.000100741)
(-0.069814 -0.00697461 0.000574353)
(-0.0693719 -0.00299757 6.24978e-05)
(-0.0606933 0.00900202 0.000640728)
(-0.0603267 0.00135908 6.59698e-05)
(-0.0522066 -0.00803818 0.000640806)
(-0.0519801 -0.00256113 3.65207e-05)
(-0.0471317 0.00892061 0.000696348)
(-0.0470435 0.00199382 2.40788e-05)
(0.0794552 -1.81212e-08 -1.97303e-21)
(0.0794549 2.52783e-08 1.93295e-06)
(0.239318 -3.92991e-08 1.81714e-10)
(0.239317 8.30858e-08 2.92832e-06)
(0.401293 -8.58846e-08 5.51457e-10)
(0.401292 1.34114e-07 2.67149e-06)
(0.565398 -1.47022e-07 1.13276e-09)
(0.565396 1.58755e-07 1.89594e-06)
(0.731646 -1.88382e-07 1.54446e-09)
(0.731643 1.72135e-07 1.11766e-06)
(0.90005 -2.03029e-07 1.83705e-09)
(0.900047 1.87676e-07 6.69257e-07)
(1.07063 -2.0895e-07 2.11409e-09)
(1.07063 2.00967e-07 4.41349e-07)
(1.24342 -2.13794e-07 2.43772e-09)
(1.24341 2.10065e-07 3.18534e-07)
(1.41845 -2.18367e-07 2.83248e-09)
(1.41844 2.16158e-07 2.45704e-07)
(1.59576 -2.21544e-07 3.29715e-09)
(1.59576 2.21671e-07 1.98619e-07)
(1.77542 -2.24996e-07 3.83332e-09)
(1.77542 2.25556e-07 1.6595e-07)
(1.95748 -2.27841e-07 4.44519e-09)
(1.95748 2.29115e-07 1.41925e-07)
(2.14201 -2.30368e-07 5.13326e-09)
(2.14201 2.32298e-07 1.23359e-07)
(2.32909 -2.32899e-07 5.90308e-09)
(2.32908 2.34959e-07 1.08365e-07)
(2.51878 -2.35075e-07 6.75934e-09)
(2.51878 2.37573e-07 9.57568e-08)
(2.71118 -2.37385e-07 7.70693e-09)
(2.71118 2.39738e-07 8.47473e-08)
(2.90636 -2.39255e-07 8.7506e-09)
(2.90636 2.42091e-07 7.47889e-08)
(3.10441 -2.41214e-07 9.89619e-09)
(3.10441 2.44152e-07 6.54822e-08)
(3.30541 -2.43288e-07 1.11526e-08)
(3.30541 2.45933e-07 5.65216e-08)
(3.50944 -2.45023e-07 1.25236e-08)
(3.50944 2.47919e-07 4.76651e-08)
(3.71658 -2.46649e-07 1.40151e-08)
(3.71658 2.49905e-07 3.87125e-08)
(3.92691 -2.48506e-07 1.56383e-08)
(3.9269 2.51571e-07 2.94894e-08)
(4.14048 -2.50581e-07 1.7402e-08)
(4.14048 2.52951e-07 1.98389e-08)
(4.35735 -2.51689e-07 9.56464e-09)
(4.35735 2.55239e-07 9.61917e-09)
(4.57758 -2.5361e-07 -1.35944e-09)
(4.57758 2.56673e-07 -1.30665e-09)
(4.80119 -2.55314e-07 -1.31263e-08)
(4.80118 2.58291e-07 -1.30751e-08)
(5.0282 -2.57377e-07 -2.58701e-08)
(5.0282 2.5953e-07 -2.58203e-08)
(5.25862 -2.58164e-07 -3.97226e-08)
(5.25861 2.62031e-07 -3.18115e-08)
(5.49242 -2.60446e-07 -5.48237e-08)
(5.49242 2.63034e-07 -3.47641e-08)
(5.72959 -2.61844e-07 -7.13201e-08)
(5.72959 2.64923e-07 -3.7929e-08)
(5.97006 -2.64128e-07 -8.93623e-08)
(5.97006 2.65937e-07 -4.13121e-08)
(6.21376 -2.64759e-07 -1.09105e-07)
(6.21376 2.68621e-07 -4.49341e-08)
(6.46058 -2.67205e-07 -1.30717e-07)
(6.46058 2.69513e-07 -4.88143e-08)
(6.7104 -2.68751e-07 -1.54379e-07)
(6.7104 2.71335e-07 -5.29565e-08)
(6.96307 -2.70764e-07 -1.80277e-07)
(6.96306 2.72725e-07 -5.73735e-08)
(7.21839 -2.71727e-07 -2.08609e-07)
(7.21839 2.75205e-07 -6.2091e-08)
(7.47617 -2.74165e-07 -2.39592e-07)
(7.47617 2.76257e-07 -6.71288e-08)
(7.73616 -2.759e-07 -2.41689e-07)
(7.73616 2.78065e-07 -7.24936e-08)
(7.99809 -2.77913e-07 -2.42271e-07)
(7.99809 2.79651e-07 -7.82016e-08)
(8.26166 -2.7911e-07 -2.43154e-07)
(8.26165 2.82118e-07 -8.42828e-08)
(8.52653 -2.81412e-07 -2.44329e-07)
(8.52653 2.83547e-07 -9.07642e-08)
(8.79234 -2.83497e-07 -2.45786e-07)
(8.79234 2.8527e-07 -9.76569e-08)
(9.05869 -2.85816e-07 -2.47519e-07)
(9.05869 2.86837e-07 -1.04974e-07)
(9.32516 -2.86502e-07 -2.4952e-07)
(9.32516 2.90124e-07 -1.12761e-07)
(9.59129 -2.9043e-07 -2.51785e-07)
(9.59129 2.90262e-07 -1.21032e-07)
(9.8566 -2.90511e-07 -2.54309e-07)
(9.85659 2.94345e-07 -1.29819e-07)
(10.1206 -2.95488e-07 -2.57088e-07)
(10.1206 2.93636e-07 -1.39132e-07)
(10.3826 -2.94067e-07 -2.60118e-07)
(10.3826 2.99436e-07 -1.49019e-07)
(10.6422 -2.98866e-07 -2.63395e-07)
(10.6422 2.99137e-07 -1.59536e-07)
(10.8988 -3.02296e-07 -2.66916e-07)
(10.8988 3.00322e-07 -1.70631e-07)
(11.1517 -3.0403e-07 -2.70675e-07)
(11.1517 3.03349e-07 -1.82321e-07)
(11.4003 -2.98143e-07 -2.74668e-07)
(11.4003 3.14119e-07 -1.94854e-07)
(11.6439 -3.20824e-07 -2.78889e-07)
(11.6439 2.9648e-07 -2.07984e-07)
(11.8819 -2.99298e-07 -2.8333e-07)
(11.8819 3.23191e-07 -2.21828e-07)
(12.1136 -3.20613e-07 -2.87982e-07)
(12.1136 3.0723e-07 -2.36563e-07)
(12.3383 -3.16106e-07 -2.92833e-07)
(12.3383 3.17258e-07 -2.51927e-07)
(12.5554 -3.14736e-07 -2.97872e-07)
(12.5554 3.24312e-07 -2.68238e-07)
(12.7641 -3.3167e-07 -3.03082e-07)
(12.7641 3.13262e-07 -2.85271e-07)
(12.9637 -3.17783e-07 -3.08445e-07)
(12.9637 3.33208e-07 -3.03113e-07)
(13.1536 -3.35573e-07 -3.21834e-07)
(13.1536 3.21689e-07 -3.21843e-07)
(13.3332 -3.26509e-07 -3.41394e-07)
(13.3332 3.37213e-07 -3.41404e-07)
(13.5017 -3.40941e-07 -3.61825e-07)
(13.5017 3.29466e-07 -3.61835e-07)
(13.6586 -3.43151e-07 -3.82837e-07)
(13.6586 3.3415e-07 -3.82848e-07)
(13.8033 -3.35411e-07 -4.04765e-07)
(13.8033 3.48999e-07 -4.04776e-07)
(13.9352 -3.52849e-07 -4.2753e-07)
(13.9352 3.38918e-07 -4.27542e-07)
(14.0539 -3.57322e-07 -4.50674e-07)
(14.0539 3.42013e-07 -4.50687e-07)
(14.1589 -3.43335e-07 -4.74658e-07)
(14.1589 3.63814e-07 -4.74671e-07)
(14.2498 -3.8103e-07 -4.98979e-07)
(14.2498 3.34169e-07 -4.98993e-07)
(14.3263 -3.35787e-07 -5.2405e-07)
(14.3263 3.87701e-07 -5.24065e-07)
(14.388 -4.08602e-07 -5.4926e-07)
(14.388 3.23413e-07 -5.49275e-07)
(14.435 -3.33828e-07 -5.7485e-07)
(14.435 4.06962e-07 -5.74866e-07)
(14.4669 -4.18625e-07 -6.00781e-07)
(14.4669 3.31175e-07 -6.00798e-07)
(14.4838 -3.50902e-07 -6.26722e-07)
(14.4838 4.08155e-07 -6.2674e-07)
(14.4857 -4.18575e-07 -6.52984e-07)
(14.4857 3.4997e-07 -6.53002e-07)
(14.4727 -3.70365e-07 -6.792e-07)
(14.4727 4.07917e-07 -6.79218e-07)
(14.4451 -4.21325e-07 -7.05628e-07)
(14.4451 3.66919e-07 -7.05648e-07)
(14.4032 -3.933e-07 -7.3182e-07)
(14.4032 4.05156e-07 -7.3184e-07)
(14.3472 -4.15682e-07 -7.58365e-07)
(14.3472 3.9322e-07 -7.58386e-07)
(14.2777 -4.21013e-07 -7.84697e-07)
(14.2777 3.98566e-07 -7.84718e-07)
(14.1951 -4.10664e-07 -8.11424e-07)
(14.1951 4.19844e-07 -8.11446e-07)
(14.1 -4.49849e-07 -8.37978e-07)
(14.1 3.91817e-07 -8.38001e-07)
(13.9931 -4.08845e-07 -8.64881e-07)
(13.9931 4.44244e-07 -8.64904e-07)
(13.8749 -4.66504e-07 -8.92047e-07)
(13.8749 3.98238e-07 -8.92071e-07)
(13.7463 -4.26046e-07 -9.19318e-07)
(13.7463 4.50637e-07 -9.19342e-07)
(13.6079 -4.69735e-07 -9.4713e-07)
(13.6079 4.19123e-07 -9.47155e-07)
(13.4605 -4.41849e-07 -9.75414e-07)
(13.4605 4.59498e-07 -9.75439e-07)
(13.3049 -4.85327e-07 -1.00415e-06)
(13.3049 4.28751e-07 -1.00417e-06)
(13.1419 -4.5268e-07 -1.03346e-06)
(13.1419 4.74488e-07 -1.03349e-06)
(12.9722 -5.01518e-07 -1.06333e-06)
(12.9722 4.3898e-07 -1.06335e-06)
(12.7966 -4.67412e-07 -1.09373e-06)
(12.7966 4.8683e-07 -1.09375e-06)
(12.6159 -5.06103e-07 -1.12513e-06)
(12.6159 4.62129e-07 -1.12516e-06)
(12.4308 -4.91971e-07 -1.15715e-06)
(12.4308 4.90727e-07 -1.15718e-06)
(12.2419 -5.15211e-07 -1.19007e-06)
(12.2419 4.82195e-07 -1.1901e-06)
(12.0501 -5.1749e-07 -1.22346e-06)
(12.0501 4.95192e-07 -1.22349e-06)
(11.8559 -5.11828e-07 -1.25819e-06)
(11.8559 5.16346e-07 -1.25822e-06)
(11.6599 -5.48256e-07 -1.29365e-06)
(11.6599 4.96093e-07 -1.29368e-06)
(11.4627 -5.31824e-07 -1.32965e-06)
(11.4627 5.28887e-07 -1.32969e-06)
(11.2648 -5.47859e-07 -1.36703e-06)
(11.2648 5.30038e-07 -1.36707e-06)
(11.0668 -5.68089e-07 -1.40492e-06)
(11.0668 5.27104e-07 -1.40495e-06)