/*--------------------------------*- C++ -*----------------------------------*\
| =========                 |                                                 |
| \\      /  F ield         | OpenFOAM: The Open Source CFD Toolbox           |
|  \\    /   O peration     | Version:  2012                                  |
|   \\  /    A nd           | Website:  www.openfoam.com                      |
|    \\/     M anipulation  |                                                 |
\*---------------------------------------------------------------------------*/
FoamFile
{
    version     2.0;
    format      ascii;
    class       volTensorField;
    location    "10030";
    object      grad(U);
}
// * * * * * * * * * * * * * * * * * * * * * * * * * * * * * * * * * * * * * //

dimensions      [0 0 -1 0 0 0 0];


internalField   nonuniform List<tensor> 
2560
(
(-7.3145e-17 -9.07624e-15 3.81132e-14 291.651 0 2.02674 0.423294 -1.3305e-30 0.00278057)
(0 0 0 291.447 -0.0157667 0.000207366 0.423293 -0.000371209 -0.00280479)
(0 4.40043e-20 4.27572e-14 290.095 0.0312768 -4.60554e-21 1.27092 5.39599e-05 8.67362e-19)
(0 -3.52034e-20 1.12651e-18 289.896 0.10281 -0.000164999 1.27092 5.46319e-05 -0.00428554)
(-5.51935e-17 -6.72291e-20 5.18747e-15 288.732 -0.0669359 -0.20071 1.72916 1.81398e-05 0.000598087)
(0 1.36627e-19 -2.22073e-18 288.543 0.0483397 -2.12508e-05 1.72807 1.96512e-05 -0.00413476)
(7.33168e-16 -3.05008e-19 1.11849e-18 287.362 -0.0444541 -0.6409 1.74595 -2.31606e-06 0.0031401)
(-5.60358e-16 3.05008e-19 -1.09445e-18 287.189 0.0380393 -1.27818e-06 1.74496 -1.3833e-08 -0.00334276)
(1.10465e-15 -3.72693e-19 1.61814e-18 285.975 -0.025834 -0.653045 1.76268 -1.94426e-06 0.00215818)
(0 4.06577e-19 -1.34845e-18 285.823 0.0264269 -8.05304e-06 1.76181 9.29753e-07 -0.00217733)
(9.56215e-16 -2.03263e-19 7.97476e-19 284.425 -0.0156957 -0.42312 1.77766 -1.05686e-06 0.00131265)
(2.75084e-15 2.71017e-19 -7.97476e-19 284.296 0.0160458 -4.65054e-06 1.77692 2.14186e-06 -0.00132429)
(-5.33456e-16 -1.35486e-19 0 282.491 -0.0101564 -0.229363 1.78971 -1.21952e-06 0.000844278)
(2.13415e-15 2.71099e-19 -1.31008e-19 282.386 0.0100892 -1.27643e-06 1.78912 2.21462e-06 -0.000851767)
(-1.71421e-15 2.03279e-19 -1.2913e-19 280.085 -0.00708147 -0.125665 1.79869 -1.47249e-06 0.000590101)
(2.62576e-15 -1.35561e-19 0 280.003 0.0071568 -4.43551e-07 1.79823 2.06775e-06 -0.000595336)
(1.82266e-15 -2.70966e-19 1.27279e-19 277.416 -0.00535323 -0.0740081 1.8072 -1.16028e-06 0.000442557)
(0 3.38583e-19 -1.27279e-19 277.357 0.00529755 -2.55105e-07 1.80688 2.55626e-06 -0.000446482)
(0 3.38876e-19 -6.27275e-20 274.92 -0.0041918 -0.0469522 1.81821 -1.70096e-06 0.000350011)
(0 -2.71125e-19 0 274.88 0.00434957 2.911e-07 1.81802 1.94572e-06 -0.000353116)
(-1.0284e-15 -4.7434e-19 1.79948e-19 272.668 -0.0034907 -0.0316852 1.8298 -8.06511e-07 0.000248089)
(0 4.7434e-19 -2.47314e-19 272.647 0.00326154 -3.04462e-07 1.82971 3.17099e-06 -0.000290542)
(1.15364e-15 -6.77626e-19 2.53328e-19 270.527 -0.00292554 -0.0224541 1.84221 -2.44778e-06 0.000175291)
(0 6.09869e-19 -2.13298e-19 270.522 0.00314657 -6.7146e-07 1.84222 1.19512e-06 -0.000246334)
(1.96834e-15 -1.35155e-19 6.00689e-20 268.618 -0.00237614 -0.0165701 1.85691 -1.30924e-07 0.00012915)
(-1.96834e-15 2.03202e-19 -6.00689e-20 268.626 0.0434146 0.000157245 1.85701 3.96784e-06 -0.000213759)
(-1.40631e-15 2.66436e-19 -1.01e-19 266.835 -0.0022074 -0.0125554 1.87109 0.000139514 9.88106e-05)
(5.62517e-15 2.40741e-34 5.92079e-20 266.854 -1.38803e-17 2.04106e-06 1.87125 0 -0.000188294)
(0 4.66874e-19 -1.16719e-19 264.753 -0.00196294 -0.00979077 1.88159 -1.28833e-05 7.6436e-05)
(0 -4.66874e-19 1.16719e-19 264.78 0.105653 0.000149467 1.8818 -0.000280156 -0.00016956)
(-1.66455e-15 0 -1.23774e-20 262.048 -0.00274116 -0.00774574 1.88671 0.00051546 6.22352e-05)
(6.65807e-15 -4.81482e-35 0 262.081 -2.00564e-17 8.15265e-06 1.88697 -5.0054e-35 -0.000152778)
(-1.85789e-15 -4.97943e-17 -1.41746e-19 258.636 2.99513e-17 -0.00620745 1.88656 0 4.90537e-05)
(-5.32395e-15 1.13422e-14 1.41746e-19 258.673 0.00764408 -0.000153374 1.88684 -2.78801e-05 -0.000141476)
(-1.83127e-15 1.45303e-18 -8.38287e-20 254.946 -0.00168512 -0.00511774 1.88696 0.000831332 4.14527e-05)
(-5.87401e-15 -3.47972e-19 8.38287e-20 254.984 -3.13607e-17 2.55652e-06 1.88725 0 -0.000130495)
(3.61004e-15 -1.1017e-19 5.50848e-20 251.981 -0.000856524 -0.00424534 1.89699 -0.00057253 3.42443e-05)
(0 1.02846e-29 -6.8856e-20 252.02 3.48912e-17 -5.32782e-06 1.89728 1.0842e-19 -0.00012238)
(2.18434e-15 1.08591e-18 -5.62177e-20 250.541 -0.00194586 -0.00355958 1.92013 0.000993865 2.94714e-05)
(-8.7372e-15 -5.54271e-19 9.50168e-20 250.579 -3.46419e-20 3.46353e-07 1.92042 0 -0.000114437)
(0 -2.14068e-19 -8.02757e-20 250.497 -0.000691673 -0.00301021 1.95188 -0.00110887 2.4724e-05)
(0 3.0666e-19 8.02757e-20 250.534 4.16142e-17 -6.93649e-06 1.95215 -2.1684e-19 -0.000108716)
(-2.44392e-15 -4.22001e-19 2.84548e-20 251.094 -0.00170653 -0.00256645 1.9858 0.00115567 2.17816e-05)
(0 -1.44445e-33 -5.27501e-20 251.128 -3.81237e-17 -5.79023e-07 1.98606 2.34257e-34 -0.000102726)
(4.23785e-15 2.07976e-19 1.31981e-19 251.718 -0.00024202 -0.00226405 2.01906 -0.00126924 1.8439e-05)
(0 0 -1.42984e-19 251.75 -1.44312e-35 0.00027205 2.0193 2.1684e-19 -9.85807e-05)
(0 1.84496e-18 -3.84366e-20 252.212 -0.00199263 -0.00189201 2.052 0.00158316 1.75738e-05)
(-1.08505e-14 -6.61083e-19 5.12488e-20 252.241 -5.50902e-20 5.73862e-06 2.05223 0 -9.25467e-05)
(2.85044e-15 -1.21234e-18 -5.24346e-20 252.633 -0.000268652 -0.00161633 2.08514 -0.00196325 1.29307e-05)
(0 4.81482e-35 6.31429e-20 252.659 3.68738e-32 -1.46482e-05 2.08536 -4.33681e-19 -9.08862e-05)
(-5.98125e-15 3.18658e-18 -1.19453e-19 252.962 -0.00234606 -0.0014014 2.11763 0.00222615 1.35414e-05)
(0 0 9.95806e-20 252.987 -7.45451e-17 1.23884e-05 2.11782 -1.71868e-34 -8.59057e-05)
(1.58328e-14 1.96307e-18 1.16917e-19 253.046 9.9562e-05 -0.0011668 2.14765 -0.00257979 9.71277e-06)
(1.86345e-14 0 -8.58842e-20 253.068 8.32667e-17 -0.000143759 2.14783 -3.25957e-30 -8.49903e-05)
(0 -3.86986e-18 7.25599e-20 252.685 -0.00238446 -0.00104327 2.17344 0.00267457 9.95528e-06)
(1.31153e-14 0 -7.25599e-20 252.705 -8.69843e-17 8.83199e-06 2.1736 0 -8.15291e-05)
(3.42676e-15 -1.14432e-18 -1.94186e-21 251.76 0.000630614 -0.000905481 2.1944 -0.00287521 7.86961e-06)
(0 3.98439e-19 0 251.778 7.0385e-18 3.96583e-06 2.19455 0 -8.04678e-05)
(-7.15297e-15 0 -4.26537e-20 250.39 -0.00262341 -0.000787922 2.21281 0.00297657 7.839e-06)
(-2.86117e-14 -4.1379e-18 2.34983e-20 250.406 -6.83545e-18 1.90624e-06 2.21294 0 -7.75336e-05)
(-3.727e-15 -1.11175e-18 -4.44977e-20 249.054 0.0011036 -0.000687778 2.23466 -0.00318338 6.01596e-06)
(-1.49079e-14 2.20605e-18 1.15807e-20 249.068 9.70342e-17 -1.435e-05 2.23477 0 -7.69761e-05)
(-5.98463e-15 4.018e-18 -6.84886e-20 248.536 -0.00299314 -0.000604331 2.26818 0.00328588 6.26738e-06)
(-9.52497e-15 -1.3702e-18 6.84886e-20 248.547 1.14183e-19 -2.8735e-06 2.26827 -4.33681e-19 -7.44835e-05)
(0 2.16022e-18 6.7507e-20 249.619 0.00171676 -0.000529709 2.32017 -0.00349164 4.66942e-06)
(1.61103e-14 -7.88861e-31 -6.7507e-20 249.628 -1.20994e-19 -1.75548e-05 2.32023 -4.33681e-19 -7.42414e-05)
(-4.17851e-15 0 -9.21444e-21 252.713 -0.00350375 -0.000466254 2.39273 0.00359423 5.06947e-06)
(0 -9.62965e-35 -2.21798e-20 252.719 -1.07155e-16 -1.86846e-06 2.39278 0 -7.20925e-05)
(-4.33209e-15 -2.79833e-18 -7.50003e-20 257.662 0.00232228 -0.000476941 2.48244 -0.00379571 3.61433e-06)
(0 1.92593e-34 6.55858e-20 257.666 1.37462e-17 0.000299289 2.48247 -8.67362e-19 -7.20709e-05)
(-4.49056e-15 3.44777e-18 -5.17497e-20 263.816 -0.00429633 -0.000345591 2.5818 0.00419517 5.42163e-06)
(-1.79622e-14 -2.33176e-18 2.15486e-20 263.818 -2.81928e-17 7.01163e-06 2.58181 0 -6.83763e-05)
(4.65583e-15 2.03901e-18 2.48223e-17 270.272 0.00296763 -0.000242563 2.68179 -0.00469873 1.18082e-06)
(0 -1.92593e-33 -3.18596e-20 270.273 5.55112e-17 0.00105487 2.6818 -2.8297e-34 -7.04041e-05)
(4.82905e-15 -4.01958e-18 3.8441e-20 276.157 -0.0051221 -0.000221843 2.77453 0.00610651 9.243e-06)
(0 -7.70372e-34 -3.1403e-20 276.158 0 2.20301e-05 2.77453 0 -6.05497e-05)
(-5.01031e-15 -1.32066e-18 6.46992e-35 280.878 0.00371145 -1.84314e-18 2.85566 -0.00765858 0)
(0 1.06231e-18 1.03176e-20 280.877 1.11288e-16 0.000442649 2.85565 8.67362e-19 -6.93217e-05)
(0 5.20691e-18 -3.05093e-20 284.348 -0.00581894 -9.87865e-05 2.92688 0.00944045 1.00482e-05)
(0 -1.31091e-18 3.05093e-20 284.346 -5.55112e-16 2.80587e-05 2.92686 0 -5.69239e-05)
(-5.39175e-15 -2.56614e-18 2.74029e-18 287.191 0.00441185 1.83637e-18 2.99839 -0.0114325 0)
(1.10561e-14 0 -1.0024e-20 287.187 -7.93017e-19 -0.000309591 2.99834 -1.73472e-18 -6.88432e-05)
(0 -1.26468e-17 3.95213e-20 290.849 -0.00634692 5.85161e-06 3.08973 0.0128541 7.45649e-06)
(2.23485e-14 6.31089e-30 -3.95213e-20 290.842 -7.78048e-16 2.32193e-05 3.08964 1.73472e-18 -5.86167e-05)
(6.76539e-16 -7.47933e-18 1.86357e-17 297.442 0.00505352 3.60971e-18 3.22725 -0.0145402 0)
(-1.80239e-14 8.06925e-18 5.84323e-20 297.431 0 -0.000734377 3.2271 -1.73472e-18 -6.88941e-05)
(5.97721e-15 -9.82951e-18 3.696e-20 309.288 -0.00678917 8.15188e-05 3.43728 0.0152144 4.27672e-06)
(0 0 -2.87974e-20 309.271 -3.88578e-16 1.2361e-05 3.43707 1.36412e-33 -6.36624e-05)
(3.74715e-15 4.84431e-18 4.64261e-18 328.184 0.00562066 -3.1877e-20 3.73779 -0.0161744 1.35525e-20)
(-9.92116e-15 1.54074e-33 -2.83847e-20 328.161 4.10701e-16 -0.000285843 3.73751 1.00843e-33 -6.93417e-05)
(-3.40043e-15 7.16232e-18 -1.93362e-20 354.82 -0.00734471 0.000135513 4.1329 0.0165703 3.32637e-06)
(2.55143e-14 -2.77334e-32 9.32594e-21 354.792 -4.16334e-16 8.08698e-06 4.13255 0 -6.61615e-05)
(9.6388e-15 4.70645e-18 6.19012e-18 388.637 0.00627518 1.70762e-18 4.61358 -0.0172537 0)
(1.67558e-14 3.08149e-33 -3.67691e-20 388.604 8.60423e-16 0.00015211 4.61318 -5.27033e-33 -7.00982e-05)
(-6.84251e-15 0 -8.40632e-21 428.162 -0.00804359 0.00018566 5.16263 0.0178057 4.81295e-06)
(0 -7.70372e-34 -1.81211e-20 428.125 0 1.01512e-05 5.1622 3.46945e-18 -6.59519e-05)
(-7.11736e-15 0 0 471.66 0.00704346 -1.0842e-19 5.76329 -0.0186498 0)
(0 3.08149e-32 -1.78613e-20 471.623 4.46995e-16 0.00332155 5.76287 6.34562e-34 -7.11683e-05)
(9.23027e-15 -4.50697e-18 1.76053e-20 517.658 -0.00789388 0.00026244 6.4023 0.0224452 2.49569e-05)
(0 4.62223e-32 -1.76053e-20 517.623 -6.6925e-16 5.7612e-05 6.40191 1.25093e-33 -4.31114e-05)
(-7.78136e-15 8.88474e-18 2.31907e-17 564.693 0.00771808 -1.51287e-18 7.06129 -0.0266214 0)
(-9.09798e-15 1.54074e-33 -4.33825e-20 564.663 -6.16503e-34 -0.00252306 7.06098 0 -7.27913e-05)
(0 2.18935e-17 -6.84172e-20 610.308 -0.00726666 0.000415203 7.70087 0.0277942 1.15282e-05)
(-3.27304e-14 -1.92907e-17 5.13129e-20 610.288 -6.12552e-16 0.000101788 7.70071 -3.46945e-18 -6.38088e-05)
(-8.64184e-15 2.58957e-17 4.93105e-20 649.714 0.00733872 0.000650818 8.24187 -0.0293328 4.38617e-06)
(2.57283e-14 -3.15544e-30 -6.74366e-20 649.709 1.30044e-15 6.42768e-05 8.24194 -6.17609e-30 -7.4835e-05)
(0 2.55245e-17 -4.98525e-20 674.612 -0.0071262 0.000785803 8.55065 0.0301861 1.525e-05)
(0 -7.70372e-34 4.98525e-20 674.631 -1.12653e-30 0.000270606 8.55106 -5.81491e-34 -6.72763e-05)
(-9.78014e-15 -1.67724e-17 -5.84413e-20 672.748 0.00469869 0.00102344 8.43589 -0.0313813 1.05587e-05)
(3.91201e-14 0 4.9138e-20 672.797 6.89765e-16 0.00120765 8.43674 6.93889e-18 -7.81797e-05)
(2.09429e-14 -1.65321e-17 4.23684e-20 629.011 -0.0082411 0.00154101 7.67253 0.0326149 2.90523e-05)
(4.18851e-14 -4.93038e-32 -3.22892e-20 629.098 -6.6387e-16 0.000475573 7.67392 9.61475e-33 -6.59533e-05)
(1.66862e-14 8.14755e-18 3.18264e-20 528.386 0.000426566 0.00190942 6.04872 -0.0342494 2.05127e-05)
(0 -4.93038e-32 -3.18264e-20 528.516 7.21645e-16 0.0015405 6.05072 -2.2614e-33 -8.52385e-05)
(-1.20121e-14 -8.03078e-18 1.2779e-20 360.293 -0.00806093 0.00253655 3.43272 0.0359643 4.65599e-05)
(0 1.07852e-31 -3.13702e-20 360.467 -1.55681e-15 0.000490774 3.43533 4.45798e-33 -6.80959e-05)
(-2.58461e-12 -2.3747e-17 -8.09308e-20 0.00692301 -0.00199041 0.00285523 4.63007e-05 -0.0382756 2.97008e-05)
(0 -3.08149e-33 9.27618e-20 3.82059e-30 -1.84263e-33 0.000835853 -7.64119e-30 3.68526e-33 -9.90807e-05)
(3.01367e-12 0 -3.38246e-21 -23.4567 -0.0030501 0.00316087 0.159158 0.0402892 5.62794e-05)
(0 0 0 -22.9909 -2.79616e-18 0.000139809 0.155998 0 -8.1258e-05)
(-1.1774e-14 7.6904e-18 4.78231e-20 -500.233 -0.00139575 0.00317833 4.52491 -0.0430958 3.10552e-05)
(4.7098e-14 0 -9.01219e-20 -499.965 8.68688e-16 -0.000781197 4.52133 6.93889e-18 -0.000119996)
(-1.04696e-14 1.51604e-17 -6.74082e-20 -829.99 0.00471399 0.00284473 9.28355 0.0449604 4.85409e-05)
(-1.55242e-14 -6.18463e-32 0 -829.719 -8.91299e-16 -0.00040057 9.27975 0 -0.000108159)
(-1.77139e-14 -2.98861e-17 -9.154e-20 -1124.59 -0.00151073 0.00252647 13.9365 -0.0476121 2.28791e-05)
(-3.54299e-14 2.64268e-17 5.83713e-20 -1124.33 3.30335e-18 -0.00210232 13.9327 0 -0.000143009)
(-1.41025e-14 -5.15511e-17 5.4973e-20 -1352.46 0.00945684 0.0017407 17.9657 0.0489192 2.72044e-05)
(5.6414e-14 0 -8.63021e-20 -1352.24 -9.40294e-16 -0.000720834 17.9622 6.93889e-18 -0.000140699)
(-1.55539e-14 -5.80712e-17 -2.32483e-19 -1492.93 -0.00532816 0.00129592 20.9447 -0.0508105 1.04797e-05)
(-2.81733e-14 1.41012e-17 1.7013e-19 -1492.75 1.94056e-15 -0.00176465 20.9417 -6.93889e-18 -0.000160882)
(-3.38271e-15 -5.72388e-17 2.67612e-18 -1539.2 0.00959914 3.03577e-18 22.6196 0.051551 0)
(1.35321e-14 0 -1.39743e-19 -1539.07 9.50845e-16 0.00196867 22.6174 -6.93889e-18 -0.00016291)
(-5.47451e-15 1.41046e-17 7.45527e-20 -1497.69 -0.0100146 -0.00011898 22.9374 -0.0509705 6.41437e-06)
(7.22156e-15 0 -5.50962e-20 -1497.63 3.48283e-17 0.000505618 22.936 -6.93889e-18 -0.000147255)
(0 -5.56098e-17 2.18961e-20 -1384.71 0.00788216 2.18961e-20 22.0269 0.0510887 0)
(1.38018e-15 0 -1.08613e-19 -1384.72 8.88178e-16 0.00104283 22.0266 5.60645e-30 -0.00015844)
(0 6.8516e-18 8.02922e-20 -1221.42 -0.0120434 -0.000509634 14.4415 -0.0502752 1.666e-05)
(1.75401e-15 6.16298e-33 -8.02922e-20 -1221.51 -9.4369e-16 0.000215732 14.4415 -6.93889e-18 -0.000135701)
(-8.64435e-16 6.7534e-18 0 -1029.23 0.00658229 -8.98829e-32 5.64655 0.0500688 2.71051e-20)
(0 -9.86076e-32 0 -1029.38 -1.19069e-31 0.00544788 5.64655 6.93889e-18 -0.000153161)
(4.26023e-16 -2.49623e-18 5.20047e-20 -826.394 -0.0099548 -0.0184654 -1.68518 -0.00568173 -5.36319e-05)
(-4.26023e-16 4.06236e-13 -1.8282e-17 -826.603 8.88178e-16 1.78893e-18 -1.68518 0 -6.77626e-21)
(0 0 -2.5248e-22 -626.5 0.00692675 -0.000193876 -7.4886 0.00502577 4.45503e-06)
(0 0 0 -626.742 8.38462e-17 -0.00611599 -7.4886 0 -5.42055e-06)
(0 1.61679e-18 -6.31559e-21 -438.326 -0.00779216 -0.00025393 -5.73862 -0.00441946 -5.00747e-06)
(-3.35484e-15 0 0 -438.573 -1.11022e-16 -1.89735e-19 -5.74266 4.33681e-19 -8.47033e-22)
(0 1.19521e-18 -3.11253e-21 -266.775 0.00635609 -0.000286165 -3.10454 0.00388802 4.44479e-06)
(-6.41049e-15 0 0 -267.012 -5.51013e-17 -0.000407602 -3.1084 4.33681e-19 -4.51883e-06)
(-4.63376e-13 0 0 -85.8156 -0.00611091 -0.000275199 -0.723056 -0.00341231 -4.0966e-06)
(0 0 0 -86.2458 2.77556e-17 -7.48648e-20 -0.72668 5.44973e-35 -8.75394e-38)
(-4.59971e-15 7.74132e-19 0 3.55271e-15 0.00554345 -0.000269164 0 0.00301468 3.33144e-06)
(1.22787e-12 -6.36089e-15 0 0.00808708 -1.38778e-17 -0.000410775 -6.91301e-05 0 -3.4087e-06)
(0 -1.90759e-19 0 132.788 -0.00502899 -1.26296e-05 -1.39045 -0.00267954 -2.96193e-06)
(0 5.24836e-15 -4.77545e-22 132.6 2.18176e-19 -1.40301e-20 -1.38707 0 -4.23516e-22)
(0 -5.64075e-19 7.70372e-34 227.613 0.00457835 -6.52263e-22 -3.22923 0.00236479 8.47033e-22)
(0 3.08149e-33 -2.93789e-21 227.442 -2.79332e-17 -0.000357456 -3.2261 -2.1684e-19 -3.78919e-06)
(4.45631e-16 -1.8533e-19 0 304.48 -0.00414416 1.21192e-05 -4.79278 -0.00211139 -1.66967e-06)
(0 1.8533e-19 -3.39824e-22 304.325 -0.0537074 3.39824e-22 -4.78988 -0.000983039 4.23516e-22)
(3.79745e-16 5.48022e-19 -2.48264e-35 364.695 0.003744 -1.77025e-19 -6.08842 0.00187677 -7.11052e-37)
(0 -2.52431e-15 4.28142e-21 364.558 -2.07067e-17 -0.000302315 -6.08578 0 -4.90412e-06)
(0 -5.1181e-20 0 409.913 -0.00345373 1.51305e-05 -5.26018 -0.00133266 1.59642e-06)
(0 0 0 409.798 -0.0314194 -7.40967e-05 -5.26018 -0.000599016 -9.28515e-07)
(0 -3.5495e-19 2.65237e-18 442.13 0.00315079 1.09415e-19 -1.29031 0.0015436 8.47033e-22)
(0 0 -1.38652e-21 442.047 -6.80072e-20 -0.00023818 -1.29031 0 -5.74138e-06)
(0 5.69507e-19 -4.23151e-21 463.555 -0.00274328 1.64447e-05 2.984 -0.000487062 3.5652e-06)
(0 -3.0613e-19 2.7333e-21 463.509 -0.0151502 7.15628e-05 2.984 -0.000380494 -3.88685e-06)
(-1.4125e-15 6.89697e-19 2.18076e-21 476.35 0.00265894 0 7.47871 0.00135853 0)
(1.4125e-15 -7.63992e-19 5.38826e-21 476.334 5.29634e-18 -8.81521e-06 7.47871 -5.42101e-20 -5.19383e-06)
(0 -3.09441e-17 0 482.372 -6.93889e-18 -0.000705733 9.48923 0 -8.37056e-06)
(0 2.12441e-19 0 482.379 -0.00407835 5.76908e-05 9.48956 -0.000279482 7.91827e-07)
(-1.01016e-15 -9.63223e-19 -1.30873e-21 483.002 0.00222562 5.76277e-05 9.59158 0.000345331 1.40721e-06)
(4.04029e-15 0 0 483.025 3.79542e-20 3.09669e-22 9.59219 0 4.23516e-22)
(-7.08408e-15 -4.80736e-17 6.44985e-22 479.04 -4.59755e-18 1.22511e-05 9.60726 0 4.18149e-07)
(-6.69375e-15 -4.1279e-19 -2.36021e-21 479.075 -0.00150756 -7.10168e-08 9.60808 -0.000265439 5.7873e-08)
(2.35076e-15 -4.88249e-19 -6.35741e-22 470.707 0.00179716 7.90044e-05 9.53126 0.000294367 4.07185e-07)
(9.40251e-15 0 1.13062e-21 470.751 0 1.78991e-05 9.53224 0 6.76415e-07)
(-8.2939e-15 -3.96227e-17 0 457.736 3.5432e-18 0.000139339 9.34975 0 -1.36379e-07)
(1.74053e-14 -6.81772e-19 3.83941e-22 457.787 -0.00289102 1.08803e-05 9.35086 -0.000221058 1.12207e-07)
(-3.7286e-15 0 0 439.554 0.00138141 0.000204849 9.04396 0.000248796 7.94511e-08)
(0 -1.40174e-16 0 439.61 3.43951e-18 0.000133771 9.04519 -2.71051e-20 9.17467e-09)
(-4.41856e-15 -1.73134e-17 0 415.491 3.0668e-18 0.000242354 8.59453 2.71051e-20 -1.2283e-07)
(0 1.55852e-19 0 415.552 -0.00252843 0.00023655 8.59586 -0.000184966 6.63623e-08)
(-5.09929e-15 -6.14471e-19 0 385.025 0.00100361 0.000268103 7.98693 0.000207249 7.11511e-08)
(2.03964e-14 0 0 385.088 -2.49986e-20 0.000267442 7.98833 0 -5.3774e-08)
(5.76046e-15 -4.65619e-17 0 348.004 -4.79688e-18 0.000285324 7.21656 0 -1.10444e-07)
(0 5.48883e-19 0 348.069 -0.00221058 0.00028623 7.21803 -0.000157027 6.09128e-08)
(0 -3.35803e-19 2.33197e-21 304.82 0.000758572 0.000283527 6.29223 0.00016924 6.1379e-08)
(0 -5.77779e-34 -2.33197e-21 304.887 1.972e-18 0.000282952 6.29374 7.50811e-35 -4.54689e-08)
(-6.97267e-15 -1.26412e-17 0 256.461 2.26071e-20 0.000267901 5.2368 -2.71051e-20 -9.89417e-08)
(0 4.04544e-19 0 256.528 -0.00187218 0.000268705 5.2383 -0.000134653 5.59905e-08)
(9.50261e-15 -1.21436e-18 4.5312e-21 204.479 0.000617923 0.000231809 4.08693 0.00013598 5.19992e-08)
(5.99638e-14 2.46519e-32 0 204.545 1.51788e-18 0.000231301 4.08841 1.35525e-20 -3.78131e-08)
(-9.36642e-15 -8.64283e-18 -4.46626e-21 150.906 0 0.000186057 2.89165 -2.71051e-20 -8.83284e-08)
(3.178e-14 1.96515e-19 0 150.969 -0.00144547 0.000186764 2.89306 -0.000115687 5.14643e-08)
(-8.31046e-15 9.33275e-19 -4.40224e-21 98.0526 0.000593131 0.00012961 1.70581 0.000110165 4.3432e-08)
(-3.32411e-14 -1.12744e-16 0 98.1109 -2.66885e-20 0.00012916 1.70713 0 -3.08392e-08)
(5.15501e-16 -4.97317e-18 7.93788e-20 48.2469 -1.35525e-18 6.677e-05 0.585451 0 -7.86783e-08)
(-3.43367e-14 -4.68628e-19 -1.48594e-18 48.2994 -0.0010649 4.24004e-05 0.586638 -9.75445e-05 4.72805e-08)
(8.32679e-14 4.10588e-19 1.57913e-19 7.37281e-13 0.000609076 1.28954e-05 7.10543e-15 9.13948e-05 3.58785e-08)
(0 -2.05294e-19 -4.27696e-21 0.0303292 8.45071e-19 1.937e-05 0.000366612 -1.35525e-20 -2.45506e-08)
(7.4703e-16 -6.79643e-18 2.1726e-19 -34.0319 1.0842e-18 -1.44291e-05 0.41735 0 -7.00223e-08)
(3.09216e-14 -2.02352e-19 0 -33.9483 -0.000798812 -4.78766e-22 0.416326 -7.92114e-05 -4.17651e-39)
(-9.01319e-15 1.00557e-18 -8.31047e-21 -63.5965 0.00057578 -5.72098e-05 1.25975 7.74871e-05 2.93001e-08)
(0 0 4.15524e-21 -63.567 1.90851e-20 -5.75667e-05 1.25891 1.35525e-20 -1.89703e-08)
(0 -5.07741e-18 0 -84.3017 -8.67362e-19 -7.54736e-05 1.90998 -1.35525e-20 -6.22799e-08)
(6.55398e-14 1.62189e-18 0 -84.2811 -0.0006275 -7.5019e-05 1.90935 -6.18138e-05 3.9769e-08)
(0 -3.39106e-19 0 -96.0805 0.000436617 -8.39773e-05 2.34968 6.6503e-05 2.36506e-08)
(6.37471e-14 -9.62965e-35 0 -96.069 7.75504e-19 -8.42869e-05 2.34927 8.42669e-35 -1.40279e-08)
(-1.55173e-14 1.68519e-34 0 -99.3069 6.40272e-19 -8.1333e-05 2.57368 1.15964e-35 -5.54968e-08)
(0 0 0 -99.3043 -0.00053733 -8.09399e-05 2.5735 -4.8046e-05 3.65376e-08)
(-7.57723e-15 -6.27534e-20 0 -94.7141 0.00029879 -7.35755e-05 2.5874 5.66973e-05 1.86803e-08)
(6.06178e-14 -9.62965e-35 0 -94.7199 -5.42101e-19 -7.38317e-05 2.58745 -5.47258e-35 -9.61933e-09)
(-6.71705e-16 -6.65338e-18 -3.86587e-21 -83.2856 -5.01458e-19 -6.10409e-05 2.40516 6.77626e-21 -4.96491e-08)
(8.10732e-15 6.10808e-19 3.86587e-21 -83.299 -0.000484937 -6.06905e-05 2.40542 -3.80231e-05 3.38049e-08)
(-7.34318e-15 0 0 -66.1392 0.000213071 -4.77412e-05 2.04742 4.72901e-05 1.41851e-08)
(0 0 0 -66.1592 -5.42101e-20 -4.79386e-05 2.04787 6.77626e-21 -5.54441e-09)
(-7.30707e-15 -9.62965e-35 0 -44.4526 0 -3.3037e-05 1.53831 -6.77626e-21 -4.4827e-08)
(2.92279e-14 -5.40843e-19 0 -44.4778 -0.000419914 -3.2711e-05 1.53893 -3.04814e-05 3.16886e-08)
(-1.44336e-13 3.99818e-19 0 -12.5282 0.000182851 -1.82429e-05 0.904658 3.87987e-05 9.83708e-09)
(2.93284e-14 0 -3.70202e-21 -12.5889 3.79471e-19 -1.83751e-05 0.905418 0 -1.59194e-09)
(-1.4719e-14 0 0 0.0186899 0 1.47389e-09 0.620343 -6.77626e-21 -4.10563e-08)
(8.59669e-17 6.93303e-20 0 1.56074e-14 -0.000317051 3.22341e-07 0.619457 -2.39487e-05 3.03322e-08)
(-1.48304e-14 5.43096e-19 3.59666e-21 35.8721 0.000147615 2.01664e-05 1.44815 3.24712e-05 5.41555e-09)
(0 -1.05623e-17 -3.59666e-21 35.8416 -3.25261e-19 2.01043e-05 1.44728 -3.38813e-21 2.49004e-09)
(1.48693e-14 -1.51823e-18 0 63.687 0 4.53549e-05 2.27282 0 -3.84673e-08)
(-2.9095e-14 5.38857e-19 0 63.6584 -0.000231504 4.5685e-05 2.27202 -1.85834e-05 2.98607e-08)
(7.32273e-15 -5.41617e-19 0 89.9363 0.000155758 7.66584e-05 3.05531 2.80572e-05 6.4775e-10)
(2.92913e-14 0 0 89.9113 0 7.66693e-05 3.05464 3.38813e-21 6.90368e-09)
(7.4377e-15 -3.52416e-18 0 113.332 -1.6263e-19 0.00011166 3.75432 0 -3.70969e-08)
(-2.97511e-14 5.42465e-19 0 113.312 -0.000249366 0.000112009 3.7538 -1.31258e-05 3.03811e-08)
(-7.61854e-15 4.03988e-19 6.78971e-21 132.62 9.47895e-05 0.000147091 4.32827 2.26337e-05 -4.56603e-09)
(3.04743e-14 4.81482e-35 -6.78971e-21 132.606 -1.6263e-19 0.000147174 4.32794 -1.74959e-35 1.18032e-08)
(-7.01749e-15 -1.63737e-19 0 146.646 0 0.000185565 4.73739 -1.69407e-21 -3.70358e-08)
(0 -3.37966e-19 0 146.638 -0.00018407 0.000185935 4.73727 -9.60396e-06 3.19572e-08)
(-1.38338e-14 6.06876e-19 -6.59648e-21 154.44 5.0108e-05 0.000224584 4.94729 1.88037e-05 -1.03144e-08)
(3.26466e-14 1.20371e-35 -6.59648e-21 154.439 -1.35525e-20 0.000224732 4.94738 -9.26923e-36 1.7235e-08)
(8.50698e-15 -1.31344e-18 0 155.323 -8.80914e-20 0.000265828 4.93277 0 -3.81809e-08)
(0 6.09556e-19 0 155.329 -0.000139195 0.000266213 4.93305 -7.60857e-06 3.45359e-08)
(0 5.41539e-19 0 149.007 8.06143e-05 0.000311433 4.68163 1.61036e-05 -1.64535e-08)
(-3.55362e-14 -3.83998e-18 0 149.018 -3.98767e-21 0.00031163 4.68208 1.69407e-21 2.31133e-08)
(-1.32475e-14 0 -6.31689e-21 135.66 5.35046e-20 0.000365379 4.19702 0 -4.03472e-08)
(0 2.71626e-19 0 135.676 -6.66211e-05 0.000365763 4.19761 -4.76942e-06 3.79088e-08)
(0 5.41693e-19 0 115.949 0.000147597 0.000432618 3.49998 1.55629e-05 -2.27794e-08)
(0 -5.51838e-18 -6.22635e-21 115.969 7.56307e-21 0.000432836 3.50067 1.69407e-21 2.91968e-08)
(1.0028e-14 -8.00064e-23 0 91.0335 1.35525e-20 0.000518167 2.62863 0 -4.31155e-08)
(0 -8.13168e-19 0 91.0549 8.62934e-06 0.000518527 2.62938 2.12486e-07 4.17004e-08)
(1.03482e-14 5.41399e-19 0 62.4831 0.0001813 0.000625464 1.63628 1.74354e-05 -2.88762e-08)
(0 -6.07506e-18 0 62.5055 -1.35525e-19 0.000625674 1.63706 0 3.51118e-08)
(-2.12147e-14 0 0 32.1591 1.0842e-19 0.000756683 0.58689 6.89217e-06 -4.60126e-08)
(4.24291e-14 0 0 32.1813 3.0245e-05 0.000756996 0.587653 6.35188e-06 4.54173e-08)
(5.27236e-15 0 0 0.00178617 9.80971e-05 0.000907456 3.14252e-05 2.00353e-05 -3.43577e-08)
(0 0 0 0.0114907 -1.5007e-34 0.000907633 0.000202163 3.38813e-21 4.04376e-08)
(1.67635e-14 -2.40741e-35 0 -25.2946 8.71657e-20 0.00107272 0.451494 1.12111e-05 -4.85684e-08)
(0 -3.38877e-19 -2.31711e-20 -25.2546 -5.09808e-05 0.00107297 0.45078 9.60864e-06 4.86149e-08)
(0 5.42425e-19 0 -50.3545 -9.95434e-05 0.00123902 1.41274 1.9777e-05 -3.88875e-08)
(0 -2.27996e-21 0 -50.3384 -1.30965e-19 0.00123916 1.4121 0 4.48796e-08)
(-1.18026e-14 -2.6769e-18 0 -69.8128 -1.21088e-05 0.00138954 2.24072 8.36591e-06 -5.06135e-08)
(-1.18026e-14 -3.39081e-19 -2.25116e-20 -69.7999 -0.000274656 0.00138973 2.24018 5.66044e-06 5.10868e-08)
(0 5.42243e-19 0 -83.7301 -0.000319519 0.00150657 2.89449 1.12939e-05 -4.24126e-08)
(6.71053e-14 1.54074e-33 0 -83.7207 -5.42101e-20 0.00150667 2.89408 2.70463e-33 4.83664e-08)
(-1.90926e-14 0 0 -92.0067 -0.000474776 0.00156837 3.35154 -2.84559e-06 -5.23628e-08)
(3.81854e-14 0 0 -92.0009 -0.0005218 0.00156853 3.35125 -6.71519e-06 5.30751e-08)
(9.25997e-15 -3.36835e-19 0 -95.0692 -0.000536106 0.00155365 3.6099 -6.7727e-06 -4.52372e-08)
(0 5.41631e-19 4.31149e-20 -95.0665 -0.000391528 0.00155374 3.60974 -1.16635e-05 5.12378e-08)
(0 2.70918e-19 0 -93.7573 -0.000567058 0.00144863 3.68644 -1.48389e-05 -5.41984e-08)
(-4.71146e-14 -6.90576e-20 0 -93.7574 -0.000612795 0.00144877 3.6864 -2.78375e-05 5.48542e-08)
(-8.75309e-15 -8.11059e-19 -4.18879e-20 -89.1787 -0.000504912 0.00124809 3.61277 -2.51182e-05 -4.77923e-08)
(3.50123e-14 8.79646e-19 4.18879e-20 -89.1808 -0.000533803 0.00124819 3.61282 -3.46867e-05 5.40081e-08)
(0 5.36738e-19 0 -82.5607 -0.000431045 0.00095492 3.43013 -9.31097e-06 -5.65328e-08)
(-1.08233e-14 -3.40622e-19 -4.12875e-20 -82.5641 -0.000476343 0.000955075 3.43025 -4.84076e-05 5.68801e-08)
(1.06682e-14 -3.3574e-19 0 -75.1076 -0.000237006 0.00058372 3.18438 -9.96322e-06 -5.05245e-08)
(0 5.39219e-19 0 -75.1116 -0.000270095 0.000583853 3.18454 -5.29401e-05 5.71561e-08)
(-8.18757e-15 1.92593e-34 0 -67.8676 6.98492e-19 1.18111e-05 2.92025 -6.77626e-21 -5.97617e-08)
(0 0 -4.58196e-39 -67.8713 -8.24161e-05 -1.65083e-23 2.92041 -5.87334e-05 0)
(-5.70696e-15 -1.21443e-18 1.17921e-18 -61.6446 0.000213545 -0.00011601 2.67612 -7.04215e-06 -5.35255e-08)
(6.42859e-14 1.35416e-18 8.4736e-18 -61.6476 0.000176709 -0.000116062 2.67627 -5.54947e-05 6.08569e-08)
(1.0216e-14 4.09195e-19 7.79418e-20 -56.9627 0.000402401 -0.000690683 2.48123 -1.0856e-05 -6.39412e-08)
(-1.0216e-14 -2.04597e-19 -7.79418e-20 -56.9646 0.000356119 -0.000690497 2.48134 -5.05647e-05 6.26612e-08)
(-1.00696e-14 4.12933e-19 -3.84124e-20 -54.0631 0.000569487 -0.00104772 2.35412 -2.33993e-05 -5.65432e-08)
(-1.00696e-14 -2.06466e-19 -3.84124e-20 -54.0638 0.000529295 -0.00104755 2.35417 -3.95328e-05 6.49955e-08)
(-2.2777e-14 -1.15005e-18 0 -52.9277 0.000634259 -0.00131985 2.30234 -1.53774e-05 -6.88452e-08)
(6.07388e-14 1.35356e-18 3.78618e-20 -52.9272 0.000586856 -0.00131967 2.30234 -2.68962e-05 6.61057e-08)
(0 -1.35515e-18 0 -53.3253 0.000652508 -0.00149114 2.32313 -2.59596e-06 -5.90854e-08)
(5.94261e-14 1.35515e-18 0 -53.3237 0.000609267 -0.00149099 2.32308 -1.30551e-05 6.918e-08)
(-7.24996e-15 6.77618e-19 0 -54.8757 0.000562657 -0.00155904 2.40529 1.47302e-05 -7.41052e-08)
(0 -4.74334e-19 0 -54.8733 0.000513903 -0.00155889 2.4052 1.0748e-06 6.93449e-08)
(7.05676e-15 -1.35511e-18 0 -57.1142 0.000472634 -0.00153155 2.53165 2.26375e-05 -6.04896e-08)
(5.64542e-14 1.35511e-18 0 -57.1113 0.000426613 -0.00153143 2.53153 1.08824e-05 7.29575e-08)
(0 -8.13026e-19 0 -59.5548 0.000302957 -0.00142582 2.68152 3.77134e-05 -7.95585e-08)
(2.73997e-14 9.16086e-19 0 -59.5518 0.000248742 -0.0014257 2.68138 5.75739e-06 7.19592e-08)
(6.63222e-15 -5.41588e-19 0 -61.7521 0.000151656 -0.00126701 2.83342 3.64382e-05 -6.01893e-08)
(0 5.41588e-19 0 -61.7492 0.00010307 -0.00126692 2.83328 3.9107e-06 7.60443e-08)
(2.1917e-14 1.38881e-19 0 -63.3414 2.80709e-05 -0.00107861 2.96796 4.65759e-05 -8.53961e-08)
(1.65288e-14 0 0 -63.3389 -1.59242e-19 -0.00107854 2.96783 3.38813e-21 7.38526e-08)
(8.97128e-15 4.06395e-19 0 -64.0611 -8.05127e-05 -0.000882228 3.06898 3.73573e-05 -5.7939e-08)
(-8.97128e-15 -2.01058e-19 0 -64.0593 -0.000131523 -0.000882169 3.06887 6.25997e-06 7.83364e-08)
(0 -3.37322e-19 0 -63.7691 -0.000142903 -0.000660629 3.12499 4.48473e-05 -9.20048e-08)
(2.38242e-14 5.48654e-19 8.43305e-21 -63.7681 -0.000196628 -0.00059281 3.12492 6.45733e-06 7.50532e-08)
(1.14763e-14 -4.73795e-19 0 -62.4404 -0.000180268 -0.000243781 3.13003 2.96449e-05 8.02222e-07)
(0 4.73795e-19 0 -62.4402 -0.000233616 -0.000179523 3.13 1.28759e-05 2.60964e-06)
(1.41217e-14 -8.80753e-19 5.41971e-23 -60.1478 -0.000176595 5.08073e-05 3.08334 3.85946e-05 6.65436e-06)
(2.21227e-14 8.14263e-19 3.70308e-21 -60.1484 -0.000232189 4.19928e-05 3.08335 1.03541e-05 2.13491e-06)
(0 -8.12609e-19 0 -57.0418 -0.000169922 5.0299e-05 2.98857 1.96132e-05 6.11489e-06)
(2.13458e-14 8.12609e-19 4.70977e-21 -57.0432 -0.000225534 4.14969e-05 2.98862 3.64785e-06 2.11545e-06)
(-5.15726e-15 0 -1.34808e-21 -53.3299 -0.000137263 5.02079e-05 2.85321 3.33199e-05 5.75406e-06)
(-2.0629e-14 2.71009e-19 -4.78868e-21 -53.3318 -0.000194777 4.08031e-05 2.8533 2.30348e-06 2.12483e-06)
(-1.32207e-14 -6.66892e-20 -9.67361e-21 -49.2475 -0.000110771 4.91237e-05 2.68757 1.07746e-05 5.13569e-06)
(0 3.3884e-19 0 -49.2499 -0.000168558 3.98306e-05 2.68769 -5.43901e-06 2.07414e-06)
(-4.84563e-15 -6.76667e-20 -2.14726e-21 -45.0348 -8.54114e-05 4.85776e-05 2.50326 3.18273e-05 4.77615e-06)
(-1.93824e-14 3.38334e-19 -4.96489e-21 -45.0374 -0.000144825 3.85566e-05 2.50339 -4.97277e-06 2.04981e-06)
(0 -4.23421e-19 7.6225e-21 -40.9215 -4.05552e-05 4.67438e-05 2.31242 3.67726e-06 4.06125e-06)
(0 4.74501e-19 0 -40.9241 -0.000115299 3.69772e-05 2.31256 -1.20811e-05 1.96226e-06)
(0 -4.05716e-19 0 -37.1157 -4.07416e-05 4.57152e-05 2.12697 3.43608e-05 3.71899e-06)