/*--------------------------------*- C++ -*----------------------------------*\
| =========                 |                                                 |
| \\      /  F ield         | OpenFOAM: The Open Source CFD Toolbox           |
|  \\    /   O peration     | Version:  2012                                  |
|   \\  /    A nd           | Website:  www.openfoam.com                      |
|    \\/     M anipulation  |                                                 |
\*---------------------------------------------------------------------------*/
FoamFile
{
    version     2.0;
    format      ascii;
    class       volVectorField;
    location    "4000";
    object      U;
}
// * * * * * * * * * * * * * * * * * * * * * * * * * * * * * * * * * * * * * //

dimensions      [0 1 -1 0 0 0 0];


internalField   nonuniform List<vector> 
2560
(
(0.00389645 -6.23514e-16 -1.42984e-17)
(0.00389645 3.60537e-19 2.99731e-18)
(0.0117455 -2.01014e-15 -8.02498e-19)
(0.0117455 -6.73065e-19 3.56231e-17)
(0.019708 -1.9668e-15 -9.21325e-19)
(0.019708 -4.52583e-19 3.66749e-17)
(0.0277854 -1.84195e-15 -6.4013e-19)
(0.0277854 -6.39823e-19 3.77609e-17)
(0.0359791 -1.82468e-15 -3.83928e-19)
(0.0359791 -8.38231e-19 3.88833e-17)
(0.0442906 -1.8282e-15 -1.72225e-19)
(0.0442906 -1.03761e-18 4.00441e-17)
(0.0527212 -1.82942e-15 1.81163e-20)
(0.0527212 -1.27297e-18 4.12455e-17)
(0.0612724 -1.82931e-15 1.96946e-19)
(0.0612724 -1.54882e-18 4.24885e-17)
(0.0699455 -1.8295e-15 3.7102e-19)
(0.0699455 -1.81583e-18 4.37735e-17)
(0.0787419 -1.82982e-15 5.4652e-19)
(0.0787419 -2.10888e-18 4.5101e-17)
(0.0876626 -1.82998e-15 7.28274e-19)
(0.0876626 -2.42549e-18 4.64731e-17)
(0.0967088 -1.83001e-15 9.19032e-19)
(0.0967088 -2.70994e-18 4.78884e-17)
(0.105881 -1.82996e-15 1.11994e-18)
(0.105881 -3.02343e-18 4.93464e-17)
(0.11518 -1.82982e-15 1.33189e-18)
(0.11518 -3.29448e-18 5.08467e-17)
(0.124605 -1.82965e-15 1.55533e-18)
(0.124605 -3.54799e-18 5.23875e-17)
(0.134155 -1.82945e-15 1.79043e-18)
(0.134155 -3.89516e-18 5.39661e-17)
(0.14383 -1.82923e-15 2.03743e-18)
(0.14383 -4.2927e-18 5.55797e-17)
(0.153626 -1.82897e-15 2.29632e-18)
(0.153626 -4.75859e-18 5.72188e-17)
(0.16354 -1.82878e-15 2.56725e-18)
(0.16354 -5.15282e-18 5.88773e-17)
(0.173567 -1.82861e-15 2.84922e-18)
(0.173567 -5.57281e-18 6.05465e-17)
(0.1837 -1.82828e-15 3.14238e-18)
(0.1837 -6.04334e-18 6.22183e-17)
(0.193932 -1.82803e-15 3.44639e-18)
(0.193932 -6.47614e-18 6.38803e-17)
(0.204251 -1.82797e-15 3.75995e-18)
(0.204251 -6.94326e-18 6.55194e-17)
(0.214647 -1.82775e-15 4.08137e-18)
(0.214647 -7.54148e-18 6.71175e-17)
(0.225105 -1.82722e-15 4.40948e-18)
(0.225105 -8.27934e-18 6.86575e-17)
(0.235608 -1.82699e-15 4.74313e-18)
(0.235608 -8.93596e-18 7.01275e-17)
(0.246141 -1.82681e-15 5.08026e-18)
(0.246141 -9.45105e-18 7.15098e-17)
(0.256683 -1.82645e-15 5.41946e-18)
(0.256683 -1.001e-17 7.27961e-17)
(0.267216 -1.82598e-15 5.75987e-18)
(0.267216 -1.06276e-17 7.39748e-17)
(0.277717 -1.82547e-15 6.10047e-18)
(0.277717 -1.14046e-17 7.50226e-17)
(0.288168 -1.82517e-15 6.44003e-18)
(0.288168 -1.21294e-17 7.59434e-17)
(0.298546 -1.82486e-15 6.77665e-18)
(0.298546 -1.28129e-17 7.67394e-17)
(0.308834 -1.82445e-15 7.10955e-18)
(0.308834 -1.34825e-17 7.74147e-17)
(0.319013 -1.824e-15 7.43893e-18)
(0.319013 -1.41329e-17 7.79677e-17)
(0.329065 -1.8232e-15 7.76542e-18)
(0.329065 -1.51711e-17 7.83939e-17)
(0.338977 -1.82243e-15 8.09057e-18)
(0.338977 -1.63658e-17 7.87109e-17)
(0.348736 -1.82172e-15 8.4121e-18)
(0.348736 -1.74361e-17 7.89225e-17)
(0.358332 -1.8209e-15 8.73203e-18)
(0.358332 -1.85297e-17 7.90446e-17)
(0.367755 -1.82012e-15 9.0499e-18)
(0.367755 -1.97577e-17 7.90826e-17)
(0.376999 -1.82003e-15 9.36746e-18)
(0.376999 -2.09831e-17 7.90509e-17)
(0.386061 -1.81762e-15 9.68554e-18)
(0.386061 -2.21431e-17 7.89721e-17)
(0.394936 -1.81743e-15 1.00064e-17)
(0.394936 -2.30556e-17 7.88558e-17)
(0.403624 -1.8163e-15 1.03305e-17)
(0.403624 -2.45829e-17 7.86998e-17)
(0.412125 -1.81508e-15 1.06585e-17)
(0.412125 -2.61786e-17 7.85131e-17)
(0.420441 -1.81406e-15 1.09901e-17)
(0.420441 -2.74858e-17 7.83087e-17)
(0.428572 -1.81288e-15 1.1326e-17)
(0.428572 -2.89393e-17 7.81042e-17)
(0.436523 -1.81169e-15 1.16682e-17)
(0.436523 -2.99706e-17 7.79008e-17)
(0.444297 -1.81069e-15 1.20159e-17)
(0.444297 -3.10996e-17 7.76933e-17)
(0.451899 -1.80955e-15 1.237e-17)
(0.451899 -3.25202e-17 7.74852e-17)
(0.459331 -1.80844e-15 1.27316e-17)
(0.459331 -3.3946e-17 7.72859e-17)
(0.466601 -1.80701e-15 1.30988e-17)
(0.466601 -3.54263e-17 7.70951e-17)
(0.473712 -1.80545e-15 1.34767e-17)
(0.473712 -3.70851e-17 7.6922e-17)
(0.480669 -1.80416e-15 1.3863e-17)
(0.480669 -3.85048e-17 7.67725e-17)
(0.487478 -1.80279e-15 1.42582e-17)
(0.487478 -4.01943e-17 7.66418e-17)
(0.494144 -1.80145e-15 1.46609e-17)
(0.494144 -4.19065e-17 7.65328e-17)
(0.500671 -1.80055e-15 1.50727e-17)
(0.500671 -4.26506e-17 7.64503e-17)
(0.507066 -1.80001e-15 1.54886e-17)
(0.507066 -4.34574e-17 7.63629e-17)
(0.513332 -1.79899e-15 1.59096e-17)
(0.513332 -4.50401e-17 7.62935e-17)
(0.519475 -1.79742e-15 1.63392e-17)
(0.519475 -4.63558e-17 7.62654e-17)
(0.525498 -1.79578e-15 1.67787e-17)
(0.525498 -4.77099e-17 7.62529e-17)
(0.531408 -1.79425e-15 1.72248e-17)
(0.531408 -4.87432e-17 7.62491e-17)
(0.537207 -1.79239e-15 1.76795e-17)
(0.537207 -4.95646e-17 7.62691e-17)
(0.5429 -1.79052e-15 1.81497e-17)
(0.5429 -5.1649e-17 7.63318e-17)
(0.548491 -1.78885e-15 1.86327e-17)
(0.548491 -5.24289e-17 7.63978e-17)
(0.553984 -1.78713e-15 1.91242e-17)
(0.553984 -5.35582e-17 7.65066e-17)
(0.559383 -1.78544e-15 1.96288e-17)
(0.559383 -5.55177e-17 7.66416e-17)
(0.56469 -1.7838e-15 2.01417e-17)
(0.56469 -5.64137e-17 7.67712e-17)
(0.569911 -1.78229e-15 2.06652e-17)
(0.569911 -5.76036e-17 7.6933e-17)
(0.575047 -1.78012e-15 2.11996e-17)
(0.575047 -5.90378e-17 7.70938e-17)
(0.580101 -1.77711e-15 2.17483e-17)
(0.580101 -6.06493e-17 7.72704e-17)
(0.585078 -1.77415e-15 2.23167e-17)
(0.585078 -6.2414e-17 7.74616e-17)
(0.589979 -1.77171e-15 2.28967e-17)
(0.589979 -6.44848e-17 7.76793e-17)
(0.594808 -1.7693e-15 2.34924e-17)
(0.594808 -6.64386e-17 7.79059e-17)
(0.599567 -1.76677e-15 2.41008e-17)
(0.599567 -6.78558e-17 7.81683e-17)
(0.604258 -1.76402e-15 2.47228e-17)
(0.604258 -6.95345e-17 7.8415e-17)
(0.608883 -1.76125e-15 2.53603e-17)
(0.608883 -7.17586e-17 7.8643e-17)
(0.613446 -1.75884e-15 2.60069e-17)
(0.613446 -7.42545e-17 7.88719e-17)
(0.617948 -1.75636e-15 2.66665e-17)
(0.617948 -7.73084e-17 7.91278e-17)
(0.622391 -1.75372e-15 2.7342e-17)
(0.622391 -8.03713e-17 7.93617e-17)
(0.626778 -1.75071e-15 2.80343e-17)
(0.626778 -8.30202e-17 7.95768e-17)
(0.631109 -1.74739e-15 2.8742e-17)
(0.631109 -8.61187e-17 7.98148e-17)
(0.635387 -1.7444e-15 2.94569e-17)
(0.635387 -9.00364e-17 7.99557e-17)
(0.639614 -1.74173e-15 3.01743e-17)
(0.639614 -9.26996e-17 8.01443e-17)
(0.643791 -1.73779e-15 3.08962e-17)
(0.643791 -9.56536e-17 8.03497e-17)
(0.64792 -1.73277e-15 3.16415e-17)
(0.64792 -9.9792e-17 8.05591e-17)
(0.652002 -1.72821e-15 3.24046e-17)
(0.652002 -1.02144e-16 8.06311e-17)
(0.656039 -1.72402e-15 3.31854e-17)
(0.656039 -1.05096e-16 8.07051e-17)
(0.660032 -1.72081e-15 3.39758e-17)
(0.660032 -1.07463e-16 8.07448e-17)
(0.663982 -1.71738e-15 3.47677e-17)
(0.663982 -1.08548e-16 8.08121e-17)
(0.667891 -1.71312e-15 3.55769e-17)
(0.667891 -1.11402e-16 8.09131e-17)
(0.671759 -1.70911e-15 3.63975e-17)
(0.671759 -1.15151e-16 8.084e-17)
(0.675589 -1.70468e-15 3.72346e-17)
(0.675589 -1.17755e-16 8.07827e-17)
(0.67938 -1.69908e-15 3.80835e-17)
(0.67938 -1.20782e-16 8.07179e-17)
(0.683135 -1.69365e-15 3.89553e-17)
(0.683135 -1.24639e-16 8.05641e-17)
(0.686854 -1.68945e-15 3.98435e-17)
(0.686854 -1.28296e-16 7.98092e-17)
(0.690537 -1.68429e-15 4.07355e-17)
(0.690537 -1.32012e-16 7.83555e-17)
(0.694187 -1.67821e-15 4.16449e-17)
(0.694187 -1.35205e-16 7.68988e-17)
(0.697803 -1.67265e-15 4.25694e-17)
(0.697803 -1.38916e-16 7.54397e-17)
(0.701387 -1.66733e-15 4.35096e-17)
(0.701387 -1.42445e-16 7.39147e-17)
(0.70494 -1.66282e-15 4.44778e-17)
(0.70494 -1.44997e-16 7.22863e-17)
(0.708462 -1.65741e-15 4.54561e-17)
(0.708462 -1.46607e-16 7.05712e-17)
(0.711953 -1.65079e-15 4.64661e-17)
(0.711953 -1.50329e-16 6.87773e-17)
(0.715416 -1.64465e-15 4.75007e-17)
(0.715416 -1.54737e-16 6.69128e-17)
(0.718849 -1.63972e-15 4.85514e-17)
(0.718849 -1.56359e-16 6.50282e-17)
(0.722255 -1.63454e-15 4.76842e-17)
(0.722255 -1.60684e-16 6.30854e-17)
(0.725633 -1.62846e-15 3.97131e-17)
(0.725633 -1.64531e-16 6.11654e-17)
(0.728984 -1.62189e-15 3.15257e-17)
(0.728984 -1.67709e-16 5.92421e-17)
(0.732309 -1.61533e-15 2.31468e-17)
(0.732309 -1.73233e-16 5.72289e-17)
(0.735609 -1.60974e-15 1.46028e-17)
(0.735609 -1.77172e-16 5.51275e-17)
(0.738883 -1.60333e-15 5.94055e-18)
(0.738883 -1.81214e-16 5.29968e-17)
(0.742132 -1.59597e-15 -2.88589e-18)
(0.742132 -1.86069e-16 5.08335e-17)
(0.745357 -1.58931e-15 -1.17908e-17)
(0.745357 -1.90068e-16 4.87085e-17)
(0.748558 -1.58348e-15 -2.08235e-17)
(0.748558 -1.95259e-16 4.65901e-17)
(0.751736 -1.57847e-15 -3.00662e-17)
(0.751736 -1.98285e-16 4.44288e-17)
(0.754891 -1.5725e-15 -3.94674e-17)
(0.754891 -2.01572e-16 4.22088e-17)
(0.758024 -1.56503e-15 -4.89539e-17)
(0.758024 -2.0555e-16 3.99837e-17)
(0.761134 -1.55807e-15 -5.86719e-17)
(0.761134 -2.08699e-16 3.76887e-17)
(0.764223 -1.5496e-15 -6.85363e-17)
(0.764223 -2.12912e-16 3.53489e-17)
(0.76729 -1.54e-15 -7.83532e-17)
(0.76729 -2.1607e-16 3.29646e-17)
(0.770336 -1.53366e-15 -8.8337e-17)
(0.770336 -2.20565e-16 3.06199e-17)
(0.773361 -1.531e-15 -9.85592e-17)
(0.773361 -2.22142e-16 2.81814e-17)
(0.776365 -1.52734e-15 -1.08834e-16)
(0.776365 -2.2349e-16 2.55758e-17)
(0.77935 -1.52205e-15 -1.19185e-16)
(0.77935 -2.27095e-16 2.28709e-17)
(0.782314 -1.51647e-15 -1.29765e-16)
(0.782314 -2.31012e-16 2.01575e-17)
(0.785259 -1.51249e-15 -1.39571e-16)
(0.785259 -2.32662e-16 1.73996e-17)
(0.788184 -1.50979e-15 -1.48238e-16)
(0.788184 -2.34585e-16 1.46263e-17)
(0.79109 -1.50442e-15 -1.56806e-16)
(0.79109 -2.37224e-16 1.18387e-17)
(0.793978 -1.49809e-15 -1.65522e-16)
(0.793978 -2.37014e-16 8.82216e-18)
(0.796846 -1.49075e-15 -1.74319e-16)
(0.796846 -2.40092e-16 5.45811e-18)
(0.799696 -1.48105e-15 -1.83126e-16)
(0.799696 -2.42408e-16 2.06567e-18)
(0.802528 -1.47401e-15 -1.91719e-16)
(0.802528 -2.4316e-16 -1.51969e-18)
(0.805341 -1.46737e-15 -2.00014e-16)
(0.805341 -2.45784e-16 -5.18107e-18)
(0.808137 -1.45817e-15 -2.0841e-16)
(0.808137 -2.51571e-16 -9.12249e-18)
(0.810915 -1.45074e-15 -2.17082e-16)
(0.810915 -2.5536e-16 -1.3164e-17)
(0.813675 -1.44228e-15 -2.25402e-16)
(0.813675 -2.55817e-16 -1.7213e-17)
(0.816418 -1.43358e-15 -2.33941e-16)
(0.816418 -2.58997e-16 -2.1226e-17)
(0.819143 -1.4269e-15 -2.42759e-16)
(0.819143 -2.64159e-16 -2.52693e-17)
(0.821852 -1.42117e-15 -2.51431e-16)
(0.821852 -2.67097e-16 -2.91252e-17)
(0.824543 -1.41444e-15 -2.6003e-16)
(0.824543 -2.67283e-16 -2.80378e-17)
(0.827218 -1.40303e-15 -2.68922e-16)
(0.827218 -2.70686e-16 -2.72981e-17)
(0.829876 -1.39267e-15 -2.78085e-16)
(0.829876 -2.75421e-16 -2.56429e-17)
(0.832517 -1.38423e-15 -2.86759e-16)
(0.832517 -2.77637e-16 -2.35548e-17)
(0.835141 -1.37484e-15 -2.948e-16)
(0.835141 -2.82901e-16 -2.23879e-17)
(0.83775 -1.36562e-15 -2.98477e-16)
(0.83775 -2.86879e-16 -2.07491e-17)
(0.840342 -1.35563e-15 -2.93244e-16)
(0.840342 -2.89543e-16 -1.83502e-17)
(0.842917 -1.34489e-15 -2.87834e-16)
(0.842917 -2.98878e-16 -1.56351e-17)
(0.845477 -1.33466e-15 -2.81989e-16)
(0.845477 -3.03631e-16 -1.30505e-17)
(0.848021 -1.3266e-15 -2.75476e-16)
(0.848021 -3.06187e-16 -1.06384e-17)
(0.850548 -1.32014e-15 -2.68431e-16)
(0.850548 -3.08122e-16 -7.81904e-18)
(0.85306 -1.31361e-15 -2.60863e-16)
(0.85306 -3.11344e-16 -4.72929e-18)
(0.855556 -1.30635e-15 -2.52944e-16)
(0.855556 -3.15351e-16 -1.36747e-18)
(0.858037 -1.29931e-15 -2.44924e-16)
(0.858037 -3.16158e-16 -1.77562e-20)
(0.860501 -1.29095e-15 -2.37029e-16)
(0.860501 -3.21771e-16 2.5842e-19)
(0.862951 -1.27864e-15 -2.29209e-16)
(0.862951 -3.27218e-16 1.75358e-19)
(0.865384 -1.26637e-15 -2.21865e-16)
(0.865384 -3.30171e-16 9.28564e-21)
(0.867802 -1.25832e-15 -2.1436e-16)
(0.867802 -3.35026e-16 -4.77681e-19)
(0.870205 -1.25219e-15 -2.06674e-16)
(0.870205 -3.34802e-16 -1.35379e-19)
(0.872593 -1.24372e-15 -1.98922e-16)
(0.872593 -3.33844e-16 9.53947e-19)
(0.874965 -1.22662e-15 -1.91579e-16)
(0.874965 -3.4415e-16 1.23057e-18)
(0.877322 -1.21165e-15 -1.85258e-16)
(0.877322 -3.54051e-16 9.48472e-19)
(0.879664 -1.20248e-15 -1.78924e-16)
(0.879664 -3.52126e-16 1.3255e-18)
(0.88199 -1.19875e-15 -1.73301e-16)
(0.88199 -3.51105e-16 1.5274e-18)
(0.884302 -1.19991e-15 -1.67731e-16)
(0.884302 -3.53675e-16 1.32221e-18)
(0.886598 -1.19849e-15 -1.62437e-16)
(0.886598 -3.54152e-16 9.49652e-19)
(0.888879 -1.19527e-15 -1.58127e-16)
(0.888879 -3.5598e-16 1.04415e-18)
(0.891146 -1.18759e-15 -1.54571e-16)
(0.891146 -3.57835e-16 1.08108e-18)
(0.893397 -1.18208e-15 -1.51524e-16)
(0.893397 -3.55077e-16 1.16458e-18)
(0.895634 -1.17767e-15 -1.49008e-16)
(0.895634 -3.52289e-16 8.11993e-19)
(0.897855 -1.17402e-15 -1.46869e-16)
(0.897855 -3.50991e-16 2.83919e-19)
(0.900062 -1.16909e-15 -1.44947e-16)
(0.900062 -3.47373e-16 5.15543e-19)
(0.902254 -1.16436e-15 -1.43767e-16)
(0.902254 -3.46439e-16 3.00865e-19)
(0.904431 -1.16184e-15 -1.42293e-16)
(0.904431 -3.45405e-16 -3.46384e-19)
(0.906593 -1.15833e-15 -1.40703e-16)
(0.906593 -3.42187e-16 -6.90775e-19)
(0.90874 -1.15509e-15 -1.38994e-16)
(0.90874 -3.433e-16 -1.36133e-18)
(0.910873 -1.15127e-15 -1.36465e-16)
(0.910873 -3.40013e-16 -2.49057e-18)
(0.912991 -1.14594e-15 -1.34332e-16)
(0.912991 -3.3991e-16 -2.35416e-18)
(0.915094 -1.13888e-15 -1.32495e-16)
(0.915094 -3.39957e-16 -2.3298e-18)
(0.917182 -1.13404e-15 -1.30324e-16)
(0.917182 -3.37494e-16 -2.70488e-18)
(0.919256 -1.13009e-15 -1.28298e-16)
(0.919256 -3.30226e-16 -2.84025e-18)
(0.921315 -1.12391e-15 -1.26049e-16)
(0.921315 -3.33365e-16 -3.0998e-18)
(0.92336 -1.11431e-15 -1.24712e-16)
(0.92336 -3.40507e-16 -2.76923e-18)
(0.925389 -1.10629e-15 -1.23608e-16)
(0.925389 -3.42676e-16 -2.72102e-18)
(0.927404 -1.09714e-15 -1.22498e-16)
(0.927404 -3.46445e-16 -2.92303e-18)
(0.929405 -1.08509e-15 -1.21919e-16)
(0.929405 -3.52035e-16 -2.58968e-18)
(0.931391 -1.07355e-15 -1.21779e-16)
(0.931391 -3.58859e-16 -2.50237e-18)
(0.933362 -1.06018e-15 -1.21387e-16)
(0.933362 -3.63402e-16 -2.98862e-18)
(0.935318 -1.04862e-15 -1.21483e-16)
(0.935318 -3.68783e-16 -3.19793e-18)
(0.93726 -1.0425e-15 -1.21359e-16)
(0.93726 -3.76141e-16 -3.67894e-18)
(0.939188 -1.03641e-15 -1.20546e-16)
(0.939188 -3.81775e-16 -4.01593e-18)
(0.9411 -1.02872e-15 -1.20079e-16)
(0.9411 -3.88974e-16 -4.05968e-18)
(0.942998 -1.02045e-15 -1.18769e-16)
(0.942998 -3.96329e-16 -4.52945e-18)
(0.944882 -1.01318e-15 -1.16975e-16)
(0.944882 -4.02123e-16 -5.19931e-18)
(0.946751 -1.00278e-15 -1.14423e-16)
(0.946751 -4.08072e-16 -5.67736e-18)
(0.948605 -9.92388e-16 -1.11888e-16)
(0.948605 -4.15742e-16 -5.5496e-18)
(0.950445 -9.82752e-16 -1.08847e-16)
(0.950445 -4.25977e-16 -5.72221e-18)
(0.95227 -9.70592e-16 -1.05789e-16)
(0.95227 -4.40804e-16 -6.5264e-18)
(0.954081 -9.63407e-16 -1.03291e-16)
(0.954081 -4.4403e-16 -6.33643e-18)
(0.955876 -9.60276e-16 -1.0235e-16)
(0.955876 -4.48865e-16 -5.32105e-18)
(0.957658 -9.52723e-16 -1.0201e-16)
(0.957658 -4.71308e-16 -5.19351e-18)
(0.959424 -9.49697e-16 -1.02989e-16)
(0.959424 -4.70612e-16 -5.04062e-18)
(0.961176 -9.40491e-16 -1.03641e-16)
(0.961176 -4.76425e-16 -5.13223e-18)
(0.962914 -9.26669e-16 -1.06971e-16)
(0.962914 -4.85364e-16 -3.2423e-18)
(0.964636 -9.22299e-16 -1.09467e-16)
(0.964636 -4.80612e-16 -3.92144e-18)
(0.966344 -9.22504e-16 -1.10314e-16)
(0.966344 -4.7638e-16 -4.5769e-18)
(0.968037 -9.18601e-16 -1.10662e-16)
(0.968037 -4.74104e-16 -4.85699e-18)
(0.969716 -9.14909e-16 -1.11247e-16)
(0.969716 -4.77556e-16 -4.74664e-18)
(0.97138 -9.04482e-16 -1.12363e-16)
(0.97138 -4.8328e-16 -4.84435e-18)
(0.973029 -8.96996e-16 -1.13455e-16)
(0.973029 -4.87199e-16 -5.03077e-18)
(0.974663 -8.87015e-16 -1.14696e-16)
(0.974663 -4.87307e-16 -5.5626e-18)
(0.976283 -8.82426e-16 -1.155e-16)
(0.976283 -4.87208e-16 -6.58335e-18)
(0.977887 -8.75009e-16 -1.16011e-16)
(0.977887 -4.90972e-16 -6.6845e-18)
(0.979477 -8.64949e-16 -1.1678e-16)
(0.979477 -5.03696e-16 -6.62221e-18)
(0.981052 -8.63054e-16 -1.17856e-16)
(0.981052 -5.09124e-16 -7.45855e-18)
(0.982612 -8.46008e-16 -1.19713e-16)
(0.982612 -5.10597e-16 -6.0931e-18)
(0.984157 -8.34652e-16 -1.23289e-16)
(0.984157 -5.1758e-16 -5.60094e-18)
(0.985687 -8.24426e-16 -1.28345e-16)
(0.985687 -5.19596e-16 -4.04518e-18)
(0.987202 -8.23189e-16 -1.31648e-16)
(0.987202 -5.22818e-16 -5.63458e-18)
(0.988702 -8.19549e-16 -1.32465e-16)
(0.988702 -5.31938e-16 -6.6255e-18)
(0.990187 -8.19098e-16 -1.33931e-16)
(0.990187 -5.26433e-16 -6.277e-18)
(0.991657 -8.10183e-16 -1.34646e-16)
(0.991657 -5.20246e-16 -5.41619e-18)
(0.993112 -8.02085e-16 -1.3221e-16)
(0.993112 -5.30149e-16 -7.79135e-18)
(0.994551 -8.09577e-16 -1.26605e-16)
(0.994551 -5.38271e-16 -8.68035e-18)
(0.995975 -8.0019e-16 -1.23325e-16)
(0.995975 -5.41049e-16 -6.81551e-18)
(0.997384 -8.05545e-16 -1.18504e-16)
(0.997384 -5.49436e-16 -7.41657e-18)
(0.998777 -8.00522e-16 -1.09887e-16)
(0.998777 -5.58321e-16 -9.99107e-18)
(1.00015 -8.00827e-16 -1.03399e-16)
(1.00015 -5.58693e-16 -9.66211e-18)
(1.00152 -7.9096e-16 -9.75085e-17)
(1.00152 -5.6744e-16 -7.77209e-18)
(1.00286 -7.77402e-16 -9.34428e-17)
(1.00286 -5.72812e-16 -7.39858e-18)
(1.00419 -7.72362e-16 -8.96992e-17)
(1.00419 -5.74044e-16 -7.90646e-18)
(1.00551 -7.74369e-16 -8.78107e-17)
(1.00551 -5.92428e-16 -7.78336e-18)
(1.00681 -7.97269e-16 -8.36928e-17)
(1.00681 -6.04415e-16 -6.98425e-18)
(1.00809 -7.99402e-16 -7.576e-17)
(1.00809 -5.98332e-16 -9.38189e-18)
(1.00936 -8.0509e-16 -6.86677e-17)
(1.00936 -6.07629e-16 -7.09319e-18)
(1.01061 -8.07967e-16 -6.26504e-17)
(1.01061 -6.28941e-16 -7.72852e-18)
(1.01185 -8.06386e-16 -5.72254e-17)
(1.01185 -6.29778e-16 -8.2851e-18)
(1.01307 -8.01689e-16 -5.18918e-17)
(1.01307 -6.35212e-16 -7.64062e-18)
(1.01427 -8.02191e-16 -4.70594e-17)
(1.01427 -6.44074e-16 -6.89606e-18)
(1.01546 -8.0102e-16 -4.35672e-17)
(1.01546 -6.44707e-16 -7.38859e-18)
(1.01663 -7.97838e-16 -4.07538e-17)
(1.01663 -6.51139e-16 -7.21479e-18)
(1.01778 -7.91609e-16 -3.96803e-17)
(1.01778 -6.46117e-16 -7.34612e-18)
(1.01892 -7.96426e-16 -3.95746e-17)
(1.01892 -6.51368e-16 -6.93216e-18)
(1.02004 -8.01393e-16 -3.9239e-17)
(1.02004 -6.5866e-16 -7.78323e-18)
(1.02114 -7.93218e-16 -3.79897e-17)
(1.02114 -6.51157e-16 -8.72808e-18)
(1.02223 -7.93722e-16 -3.98773e-17)
(1.02223 -6.55317e-16 -1.31141e-18)
(1.0233 -8.01542e-16 -3.6562e-17)
(1.0233 -6.61668e-16 1.08543e-17)
(1.02435 -7.86675e-16 -2.66478e-17)
(1.02435 -6.68642e-16 1.52017e-17)
(1.02538 -7.66572e-16 -2.23721e-17)
(1.02538 -6.70173e-16 1.3114e-17)
(1.0264 -7.3645e-16 5.06542e-18)
(1.0264 -6.64008e-16 8.76779e-18)
(1.0274 -7.13954e-16 1.79897e-17)
(1.0274 -6.57395e-16 6.42414e-18)
(1.02838 -6.93242e-16 1.2001e-17)
(1.02838 -6.56973e-16 3.88636e-18)
(1.02935 -6.86461e-16 8.58873e-18)
(1.02935 -6.455e-16 3.02368e-18)
(1.03029 -6.80053e-16 6.80327e-18)
(1.03029 -6.45524e-16 1.60324e-18)
(1.03122 -6.56252e-16 -7.66379e-18)
(1.03122 -6.45281e-16 6.26511e-18)
(1.03213 -6.53241e-16 -2.06996e-17)
(1.03213 -6.29612e-16 8.66101e-18)
(1.03303 -6.35009e-16 -3.29568e-17)
(1.03303 -6.13227e-16 6.68372e-18)
(1.0339 -6.15065e-16 -3.64993e-17)
(1.0339 -6.04128e-16 -4.13313e-18)
(1.03476 -6.08198e-16 -4.35015e-17)
(1.03476 -6.00676e-16 -4.40854e-18)
(1.0356 -6.13616e-16 -4.83568e-17)
(1.0356 -5.82152e-16 -5.27368e-18)
(1.03642 -6.273e-16 -4.49916e-17)
(1.03642 -5.5824e-16 -1.08162e-17)
(1.03722 -6.24928e-16 -4.59257e-17)
(1.03722 -5.46533e-16 -2.21831e-17)
(1.038 -6.24339e-16 -5.59277e-17)
(1.038 -5.52231e-16 -3.11536e-17)
(1.03876 -6.24787e-16 -6.21721e-17)
(1.03876 -5.76333e-16 -3.56793e-17)
(1.03951 -6.4065e-16 -7.1943e-17)
(1.03951 -5.92635e-16 -4.06122e-17)
(1.04024 -6.4046e-16 -8.25478e-17)
(1.04024 -5.95188e-16 -4.59711e-17)
(1.04094 -6.30439e-16 -9.74338e-17)
(1.04094 -6.07349e-16 -4.83704e-17)
(1.04163 -6.18368e-16 -9.76311e-17)
(1.04163 -6.06399e-16 -5.88436e-17)
(1.0423 -6.0644e-16 -1.02654e-16)
(1.0423 -6.00806e-16 -7.96369e-17)
(1.04296 -6.1733e-16 -1.00535e-16)
(1.04296 -5.94756e-16 -9.83059e-17)
(1.04359 -5.98804e-16 -9.25771e-17)
(1.04359 -5.82707e-16 -1.06048e-16)
(1.04421 -5.87203e-16 -9.35248e-17)
(1.04421 -5.67794e-16 -1.10672e-16)
(1.0448 -5.91277e-16 -9.19423e-17)
(1.0448 -5.72791e-16 -1.18624e-16)
(1.04538 -5.69347e-16 -8.7315e-17)
(1.04538 -6.02524e-16 -1.28948e-16)
(1.04594 -5.53925e-16 -9.08161e-17)
(1.04594 -6.13308e-16 -1.19999e-16)
(1.04649 -5.48751e-16 -8.93074e-17)
(1.04649 -5.79223e-16 -1.14048e-16)
(1.04701 -5.42259e-16 -9.12687e-17)
(1.04701 -5.65098e-16 -1.10855e-16)
(1.04752 -5.27753e-16 -9.65436e-17)
(1.04752 -5.245e-16 -1.09577e-16)
(1.04801 -5.14064e-16 -1.02506e-16)
(1.04801 -5.09119e-16 -1.18085e-16)
(1.04848 -4.96352e-16 -1.15547e-16)
(1.04848 -5.03043e-16 -1.17577e-16)
(1.04894 -4.84374e-16 -1.17245e-16)
(1.04894 -5.01748e-16 -1.23722e-16)
(1.04938 -4.76563e-16 -1.20458e-16)
(1.04938 -5.13577e-16 -1.26875e-16)
(1.0498 -4.68816e-16 -1.4047e-16)
(1.0498 -5.13985e-16 -1.12221e-16)
(1.05021 -4.84809e-16 -1.56403e-16)
(1.05021 -4.88134e-16 -1.10477e-16)
(1.0506 -4.89217e-16 -1.55468e-16)
(1.0506 -4.713e-16 -1.24028e-16)
(1.05098 -4.66936e-16 -1.631e-16)
(1.05098 -4.62205e-16 -1.2462e-16)
(1.05134 -4.47608e-16 -1.65557e-16)
(1.05134 -4.28958e-16 -1.0772e-16)
(1.05169 -4.45164e-16 -1.6036e-16)
(1.05169 -4.16041e-16 -1.14173e-16)
(1.05203 -4.46741e-16 -1.61131e-16)
(1.05203 -4.43119e-16 -1.21928e-16)
(1.05235 -4.5057e-16 -1.64719e-16)
(1.05235 -3.97059e-16 -1.2892e-16)
(1.05266 -3.79996e-16 -1.70648e-16)
(1.05266 -3.90098e-16 -1.19118e-16)
(1.05295 -3.89184e-16 -1.70144e-16)
(1.05295 -3.77769e-16 -1.12156e-16)
(1.05324 -4.04133e-16 -1.75987e-16)
(1.05324 -3.66823e-16 -1.26999e-16)
(1.05351 -4.14407e-16 -1.65039e-16)
(1.05351 -3.59826e-16 -1.42839e-16)
(1.05377 -3.57623e-16 -1.52762e-16)
(1.05377 -3.19466e-16 -1.47788e-16)
(1.05402 -3.38999e-16 -1.62774e-16)
(1.05402 -3.28475e-16 -1.48474e-16)
(1.05426 -3.72036e-16 -1.47064e-16)
(1.05426 -3.82418e-16 -1.56433e-16)
(1.05449 -3.52753e-16 -1.14093e-16)
(1.05449 -3.59907e-16 -1.4992e-16)
(1.05471 -3.0679e-16 -9.96533e-17)
(1.05471 -3.65648e-16 -1.357e-16)
(1.05492 -3.04907e-16 -9.59269e-17)
(1.05492 -3.49426e-16 -1.38012e-16)
(1.05512 -3.24465e-16 -6.37654e-17)
(1.05512 -3.19831e-16 -1.15948e-16)
(1.05531 -3.51187e-16 -4.51382e-17)
(1.05531 -3.32976e-16 -1.18311e-16)
(1.05549 -3.23381e-16 -3.108e-17)
(1.05549 -3.42669e-16 -1.21862e-16)
(1.05567 -3.6698e-16 -3.79063e-17)
(1.05567 -3.6872e-16 -1.03917e-16)
(1.05584 -3.48947e-16 -3.42832e-17)
(1.05584 -3.80896e-16 -8.90219e-17)
(1.05599 -3.24243e-16 -5.42835e-17)
(1.05599 -3.5558e-16 -5.89766e-17)
(1.05615 -3.5586e-16 -8.00451e-17)
(1.05615 -3.71632e-16 -6.93488e-17)
(1.05629 -3.90872e-16 -9.39502e-17)
(1.05629 -4.0438e-16 -6.19133e-17)
(1.05642 -4.14392e-16 -8.71795e-17)
(1.05642 -4.0128e-16 -4.52683e-17)
(1.05655 -4.04724e-16 -8.90124e-17)
(1.05655 -3.79473e-16 -1.60116e-17)
(1.05667 -3.52416e-16 -6.97735e-17)
(1.05667 -3.34334e-16 -2.83668e-17)
(1.05678 -3.57681e-16 -5.95119e-17)
(1.05678 -3.23339e-16 -1.77369e-17)
(1.05689 -3.66475e-16 -5.53005e-17)
(1.05689 -3.21179e-16 -2.57999e-17)
(1.05698 -3.99538e-16 -6.21077e-17)
(1.05698 -3.85996e-16 -4.25494e-17)
(1.05707 -3.98214e-16 -2.34956e-17)
(1.05707 -3.33206e-16 -7.4236e-17)
(1.05715 -3.28489e-16 -4.67608e-17)
(1.05715 -3.81882e-16 -6.20349e-17)
(1.05722 -3.3602e-16 -8.45475e-17)
(1.05722 -4.46365e-16 -5.12161e-17)
(1.05728 -3.85897e-16 -5.55016e-17)
(1.05728 -3.89248e-16 -6.17344e-17)
(1.05733 -3.69247e-16 -1.97626e-17)
(1.05733 -3.3703e-16 -6.36948e-17)
(1.05736 -3.2799e-16 1.50444e-17)
(1.05736 -3.52871e-16 -9.51612e-17)
(1.05739 -3.49237e-16 7.26722e-18)
(1.05739 -3.607e-16 -1.07529e-16)
(1.0574 -3.28197e-16 3.09261e-17)
(1.0574 -3.18113e-16 -1.08615e-16)
(0.00389645 2.2255e-19 1.63038e-18)
(0.00389645 1.6395e-19 6.36966e-18)
(0.0117455 -3.08874e-19 -1.43778e-17)
(0.0117455 -7.14753e-20 2.51026e-17)
(0.019708 -1.10617e-19 -1.4802e-17)
(0.019708 2.18343e-19 2.58357e-17)
(0.0277854 -1.59966e-19 -1.52402e-17)
(0.0277854 3.7546e-19 2.65871e-17)
(0.0359791 -1.90809e-19 -1.56928e-17)
(0.0359791 5.27546e-19 2.73584e-17)
(0.0442906 -2.10911e-19 -1.61599e-17)
(0.0442906 6.79916e-19 2.81497e-17)
(0.0527212 -2.47117e-19 -1.66424e-17)
(0.0527212 8.42783e-19 2.89619e-17)
(0.0612724 -2.66751e-19 -1.71407e-17)
(0.0612724 1.01589e-18 2.97955e-17)
(0.0699455 -2.61873e-19 -1.76545e-17)
(0.0699455 1.11102e-18 3.06501e-17)
(0.0787419 -3.17244e-19 -1.81844e-17)
(0.0787419 1.29517e-18 3.15255e-17)
(0.0876626 -4.08544e-19 -1.87313e-17)
(0.0876626 1.54004e-18 3.24227e-17)
(0.0967088 -4.97283e-19 -1.92946e-17)
(0.0967088 1.73185e-18 3.33395e-17)
(0.105881 -5.85856e-19 -1.9874e-17)
(0.105881 1.97577e-18 3.42752e-17)
(0.11518 -6.52927e-19 -2.04685e-17)
(0.11518 2.20991e-18 3.52287e-17)
(0.124605 -6.81324e-19 -2.10775e-17)
(0.124605 2.44392e-18 3.61976e-17)
(0.134155 -7.46664e-19 -2.16993e-17)
(0.134155 2.70841e-18 3.71776e-17)
(0.14383 -8.07959e-19 -2.23319e-17)
(0.14383 3.00468e-18 3.81667e-17)
(0.153626 -8.67329e-19 -2.29717e-17)
(0.153626 3.21559e-18 3.91586e-17)
(0.16354 -1.01045e-18 -2.36151e-17)
(0.16354 3.52025e-18 4.01475e-17)
(0.173567 -1.05684e-18 -2.42589e-17)
(0.173567 3.84975e-18 4.11277e-17)
(0.1837 -1.026e-18 -2.48983e-17)
(0.1837 4.08219e-18 4.20902e-17)
(0.193932 -1.02054e-18 -2.55272e-17)
(0.193932 4.32613e-18 4.30247e-17)
(0.204251 -1.01544e-18 -2.61395e-17)
(0.204251 4.67022e-18 4.392e-17)
(0.214647 -1.25045e-18 -2.67327e-17)
(0.214647 5.10024e-18 4.47664e-17)
(0.225105 -1.60897e-18 -2.73042e-17)
(0.225105 5.63751e-18 4.5556e-17)
(0.235608 -1.91218e-18 -2.78457e-17)
(0.235608 6.28584e-18 4.62811e-17)
(0.246141 -2.2717e-18 -2.83497e-17)
(0.246141 6.81766e-18 4.6927e-17)
(0.256683 -2.60574e-18 -2.88113e-17)
(0.256683 7.33976e-18 4.74862e-17)
(0.267216 -2.82698e-18 -2.92233e-17)
(0.267216 7.84586e-18 4.79522e-17)
(0.277717 -3.05692e-18 -2.95847e-17)
(0.277717 8.23599e-18 4.83128e-17)
(0.288168 -3.32473e-18 -2.98934e-17)
(0.288168 8.60527e-18 4.85736e-17)
(0.298546 -3.56166e-18 -3.01473e-17)
(0.298546 9.17196e-18 4.87279e-17)
(0.308834 -3.7251e-18 -3.03464e-17)
(0.308834 9.75838e-18 4.87735e-17)
(0.319013 -3.76234e-18 -3.04892e-17)
(0.319013 1.00116e-17 4.87158e-17)
(0.329065 -3.71117e-18 -3.05744e-17)
(0.329065 1.06405e-17 4.85634e-17)
(0.338977 -3.70472e-18 -3.0601e-17)
(0.338977 1.11984e-17 4.83242e-17)
(0.348736 -3.63277e-18 -3.05742e-17)
(0.348736 1.14727e-17 4.7995e-17)
(0.358332 -3.52928e-18 -3.0492e-17)
(0.358332 1.16087e-17 4.75871e-17)
(0.367755 -3.52208e-18 -3.03622e-17)
(0.367755 1.16449e-17 4.7117e-17)
(0.376999 -3.45354e-18 -3.019e-17)
(0.376999 1.20666e-17 4.65914e-17)
(0.386061 -3.31509e-18 -2.99757e-17)
(0.386061 1.25163e-17 4.60129e-17)
(0.394936 -3.2618e-18 -2.97194e-17)
(0.394936 1.25273e-17 4.53853e-17)
(0.403624 -3.63559e-18 -2.94266e-17)
(0.403624 1.27366e-17 4.47176e-17)
(0.412125 -4.39364e-18 -2.91113e-17)
(0.412125 1.38595e-17 4.40254e-17)
(0.420441 -5.27069e-18 -2.87812e-17)
(0.420441 1.46649e-17 4.33151e-17)
(0.428572 -5.96169e-18 -2.84405e-17)
(0.428572 1.56647e-17 4.25897e-17)
(0.436523 -6.63012e-18 -2.80881e-17)
(0.436523 1.67438e-17 4.18587e-17)
(0.444297 -7.45678e-18 -2.77248e-17)
(0.444297 1.76622e-17 4.11153e-17)
(0.451899 -8.25728e-18 -2.73636e-17)
(0.451899 1.8872e-17 4.03683e-17)
(0.459331 -9.19441e-18 -2.7001e-17)
(0.459331 2.01946e-17 3.96254e-17)
(0.466601 -1.01135e-17 -2.6635e-17)
(0.466601 2.10515e-17 3.88846e-17)
(0.473712 -1.09794e-17 -2.62608e-17)
(0.473712 2.1528e-17 3.81367e-17)
(0.480669 -1.17435e-17 -2.58808e-17)
(0.480669 2.18872e-17 3.73799e-17)
(0.487478 -1.25852e-17 -2.54967e-17)
(0.487478 2.25403e-17 3.66166e-17)
(0.494144 -1.32936e-17 -2.51171e-17)
(0.494144 2.39842e-17 3.58646e-17)
(0.500671 -1.3398e-17 -2.47393e-17)
(0.500671 2.46446e-17 3.51165e-17)
(0.507066 -1.33579e-17 -2.43675e-17)
(0.507066 2.48546e-17 3.43589e-17)
(0.513332 -1.34975e-17 -2.39975e-17)
(0.513332 2.52581e-17 3.35875e-17)
(0.519475 -1.36349e-17 -2.36228e-17)
(0.519475 2.49119e-17 3.27797e-17)
(0.525498 -1.42263e-17 -2.32541e-17)
(0.525498 2.47818e-17 3.1976e-17)
(0.531408 -1.48115e-17 -2.29078e-17)
(0.531408 2.52425e-17 3.11839e-17)
(0.537207 -1.47772e-17 -2.2572e-17)
(0.537207 2.6041e-17 3.03682e-17)
(0.5429 -1.46628e-17 -2.22306e-17)
(0.5429 2.64803e-17 2.95277e-17)
(0.548491 -1.51826e-17 -2.19044e-17)
(0.548491 2.69333e-17 2.86728e-17)
(0.553984 -1.62444e-17 -2.15924e-17)
(0.553984 2.76948e-17 2.78246e-17)
(0.559383 -1.71149e-17 -2.12858e-17)
(0.559383 2.75211e-17 2.69446e-17)
(0.56469 -1.74388e-17 -2.09946e-17)
(0.56469 2.80277e-17 2.60373e-17)
(0.569911 -1.76523e-17 -2.06872e-17)
(0.569911 2.8863e-17 2.51184e-17)
(0.575047 -1.75879e-17 -2.03951e-17)
(0.575047 2.86641e-17 2.41691e-17)
(0.580101 -1.73567e-17 -2.01017e-17)
(0.580101 2.85822e-17 2.32507e-17)
(0.585078 -1.75246e-17 -1.98003e-17)
(0.585078 2.87523e-17 2.23031e-17)
(0.589979 -1.74369e-17 -1.9497e-17)
(0.589979 2.87819e-17 2.13244e-17)
(0.594808 -1.76262e-17 -1.91882e-17)
(0.594808 2.87511e-17 2.02987e-17)
(0.599567 -1.79782e-17 -1.88659e-17)
(0.599567 2.90803e-17 1.92614e-17)
(0.604258 -1.84329e-17 -1.85419e-17)
(0.604258 2.92098e-17 1.82051e-17)
(0.608883 -1.94476e-17 -1.82139e-17)
(0.608883 2.91825e-17 1.71199e-17)
(0.613446 -2.05672e-17 -1.79132e-17)
(0.613446 3.01482e-17 1.60339e-17)
(0.617948 -2.13429e-17 -1.76015e-17)
(0.617948 3.12381e-17 1.49307e-17)
(0.622391 -2.1458e-17 -1.72979e-17)
(0.622391 3.18281e-17 1.38326e-17)
(0.626778 -2.13778e-17 -1.69636e-17)
(0.626778 3.19876e-17 1.27338e-17)
(0.631109 -2.15956e-17 -1.66137e-17)
(0.631109 3.14874e-17 1.1693e-17)
(0.635387 -2.26861e-17 -1.62226e-17)
(0.635387 3.0793e-17 1.05266e-17)
(0.639614 -2.41779e-17 -1.58274e-17)
(0.639614 3.18173e-17 9.30717e-18)
(0.643791 -2.46433e-17 -1.54345e-17)
(0.643791 3.32779e-17 8.12378e-18)
(0.64792 -2.41291e-17 -1.50113e-17)
(0.64792 3.26967e-17 7.04126e-18)