/*--------------------------------*- C++ -*----------------------------------*\
| =========                 |                                                 |
| \\      /  F ield         | OpenFOAM: The Open Source CFD Toolbox           |
|  \\    /   O peration     | Version:  2012                                  |
|   \\  /    A nd           | Website:  www.openfoam.com                      |
|    \\/     M anipulation  |                                                 |
\*---------------------------------------------------------------------------*/
FoamFile
{
    version     2.0;
    format      ascii;
    class       surfaceScalarField;
    location    "9000";
    object      phi;
}
// * * * * * * * * * * * * * * * * * * * * * * * * * * * * * * * * * * * * * //

dimensions      [0 3 -1 0 0 0 0];
oriented        oriented;


internalField   nonuniform List<scalar> 
5116
(
4.89054e-08
-2.93943e-18
1.60931e-21
1.36536e-21
7.19078e-22
1.49559e-07
-2.95784e-18
7.38304e-21
9.87678e-21
2.54537e-21
2.54592e-07
-2.97699e-18
7.67214e-21
1.86599e-20
2.65753e-21
3.6415e-07
-2.99685e-18
7.96364e-21
2.78091e-20
2.77448e-21
4.78383e-07
-3.01754e-18
8.26762e-21
3.71464e-20
2.89632e-21
5.9744e-07
-3.03881e-18
8.58353e-21
4.68121e-20
3.023e-21
7.21462e-07
-3.06096e-18
8.90978e-21
5.69263e-20
3.15429e-21
8.50574e-07
-3.08386e-18
9.24462e-21
6.7349e-20
3.28958e-21
9.84868e-07
-3.10742e-18
9.58509e-21
7.78575e-20
3.42779e-21
1.12439e-06
-3.13192e-18
9.92643e-21
8.90674e-20
3.56721e-21
1.2691e-06
-3.15746e-18
1.02619e-20
1.00595e-19
3.70536e-21
1.41888e-06
-3.18392e-18
1.05827e-20
1.12488e-19
3.83903e-21
1.57348e-06
-3.21085e-18
1.08784e-20
1.24469e-19
3.96436e-21
1.73252e-06
-3.23823e-18
1.1138e-20
1.37004e-19
4.07718e-21
1.8955e-06
-3.26625e-18
1.13507e-20
1.49357e-19
4.17345e-21
2.0618e-06
-3.29476e-18
1.1508e-20
1.6227e-19
4.24985e-21
2.23072e-06
-3.323e-18
1.16046e-20
1.74448e-19
4.30421e-21
2.40156e-06
-3.35183e-18
1.16393e-20
1.8725e-19
4.33589e-21
2.57362e-06
-3.38037e-18
1.1615e-20
2.0028e-19
4.34574e-21
2.74628e-06
-3.40844e-18
1.15378e-20
2.12132e-19
4.33589e-21
2.91901e-06
-3.43637e-18
1.14162e-20
2.24595e-19
4.30935e-21
3.0914e-06
-3.46433e-18
1.12597e-20
2.37027e-19
4.26955e-21
3.26316e-06
-3.49223e-18
1.10776e-20
2.49091e-19
4.21994e-21
3.43412e-06
-3.5178e-18
1.08786e-20
2.59871e-19
4.16373e-21
3.60419e-06
-3.54258e-18
1.067e-20
2.7007e-19
4.10372e-21
3.77334e-06
-3.56809e-18
1.04578e-20
2.81128e-19
4.04215e-21
3.94164e-06
-3.59341e-18
1.02466e-20
2.92941e-19
3.98079e-21
4.10917e-06
-3.61656e-18
1.00398e-20
3.02288e-19
3.92098e-21
4.27605e-06
-3.63865e-18
9.83995e-21
3.12127e-19
3.8637e-21
4.44243e-06
-3.66137e-18
9.64853e-21
3.2108e-19
3.80959e-21
4.60845e-06
-3.68296e-18
9.4666e-21
3.3068e-19
3.75908e-21
4.77428e-06
-3.70497e-18
9.29465e-21
3.39433e-19
3.71237e-21
4.94007e-06
-3.72646e-18
9.13288e-21
3.48791e-19
3.66959e-21
5.10599e-06
-3.74766e-18
8.98124e-21
3.57409e-19
3.63076e-21
5.27219e-06
-3.76762e-18
8.83947e-21
3.65384e-19
3.59582e-21
5.43881e-06
-3.7872e-18
8.70717e-21
3.73536e-19
3.56468e-21
5.60602e-06
-3.8073e-18
8.58389e-21
3.82311e-19
3.53719e-21
5.77394e-06
-3.82842e-18
8.46922e-21
3.91051e-19
3.51321e-21
5.94271e-06
-3.84678e-18
8.36267e-21
3.98878e-19
3.49264e-21
6.11245e-06
-3.86671e-18
8.2637e-21
4.06741e-19
3.47526e-21
6.2833e-06
-3.88543e-18
8.17188e-21
4.15012e-19
3.46092e-21
6.45537e-06
-3.905e-18
8.08676e-21
4.22488e-19
3.44944e-21
6.62877e-06
-3.92342e-18
8.00786e-21
4.30504e-19
3.44076e-21
6.80361e-06
-3.94394e-18
7.93475e-21
4.39707e-19
3.43468e-21
6.97999e-06
-3.9626e-18
7.86711e-21
4.46531e-19
3.43103e-21
7.15801e-06
-3.97939e-18
7.80449e-21
4.53468e-19
3.42981e-21
7.33778e-06
-3.99888e-18
7.74647e-21
4.60667e-19
3.4309e-21
7.51938e-06
-4.01645e-18
7.69284e-21
4.67996e-19
3.43409e-21
7.7029e-06
-4.03579e-18
7.64316e-21
4.75188e-19
3.43931e-21
7.88844e-06
-4.05749e-18
7.59718e-21
4.82954e-19
3.44636e-21
8.07607e-06
-4.07437e-18
7.55468e-21
4.90864e-19
3.45519e-21
8.26589e-06
-4.0917e-18
7.5153e-21
4.95059e-19
3.46568e-21
8.45798e-06
-4.11078e-18
7.4789e-21
5.0295e-19
3.47787e-21
8.65241e-06
-4.12666e-18
7.44532e-21
5.07785e-19
3.49162e-21
8.84927e-06
-4.14575e-18
7.41424e-21
5.14535e-19
3.50697e-21
9.04862e-06
-4.16412e-18
7.38559e-21
5.21177e-19
3.52364e-21
9.25056e-06
-4.18402e-18
7.35919e-21
5.27774e-19
3.54172e-21
9.45516e-06
-4.2016e-18
7.33488e-21
5.33622e-19
3.56098e-21
9.66248e-06
-4.2198e-18
7.31246e-21
5.3996e-19
3.58141e-21
9.87261e-06
-4.23677e-18
7.29176e-21
5.45412e-19
3.60294e-21
1.00856e-05
-4.25421e-18
7.27252e-21
5.52588e-19
3.62552e-21
1.03016e-05
-4.27016e-18
7.2548e-21
5.5921e-19
3.64899e-21
1.05206e-05
-4.28709e-18
7.23846e-21
5.65527e-19
3.6731e-21
1.07427e-05
-4.30424e-18
7.22337e-21
5.73234e-19
3.69809e-21
1.09679e-05
-4.31865e-18
7.20935e-21
5.80563e-19
3.72389e-21
1.11964e-05
-4.33508e-18
7.19584e-21
5.85958e-19
3.75041e-21
1.14283e-05
-4.35043e-18
7.18298e-21
5.92189e-19
3.77791e-21
1.16635e-05
-4.36835e-18
7.17057e-21
6.0083e-19
3.80616e-21
1.19022e-05
-4.38664e-18
7.15855e-21
6.06227e-19
3.83525e-21
1.21444e-05
-4.3987e-18
7.147e-21
6.13027e-19
3.86536e-21
1.23902e-05
-4.41427e-18
7.13542e-21
6.17574e-19
3.8963e-21
1.26398e-05
-4.42993e-18
7.12394e-21
6.23663e-19
3.92808e-21
1.2893e-05
-4.44418e-18
7.11233e-21
6.27353e-19
3.9605e-21
1.31502e-05
-4.45941e-18
7.10047e-21
6.37163e-19
3.99383e-21
1.34112e-05
-4.47431e-18
7.08844e-21
6.41235e-19
4.02768e-21
1.36763e-05
-4.48474e-18
7.076e-21
6.45841e-19
4.06234e-21
1.39454e-05
-4.50009e-18
7.06276e-21
6.49556e-19
4.09761e-21
1.42186e-05
-4.51624e-18
7.04908e-21
6.53089e-19
4.13336e-21
1.44961e-05
-4.5328e-18
7.03498e-21
6.56338e-19
4.16961e-21
1.47779e-05
-4.54693e-18
7.0205e-21
6.60244e-19
4.20626e-21
1.50641e-05
-4.55921e-18
7.00527e-21
6.6346e-19
4.24311e-21
1.53547e-05
-4.57346e-18
6.98883e-21
6.60318e-19
4.28004e-21
1.56499e-05
-4.58839e-18
6.97152e-21
6.63746e-19
4.31713e-21
1.59497e-05
-4.6011e-18
6.95274e-21
6.65152e-19
4.35473e-21
1.62542e-05
-4.61663e-18
6.93281e-21
6.63764e-19
4.39293e-21
1.65636e-05
-4.62636e-18
6.91193e-21
6.61293e-19
4.43185e-21
1.68778e-05
-4.63288e-18
6.88975e-21
6.58603e-19
4.47155e-21
1.7197e-05
-4.6469e-18
6.86571e-21
6.59477e-19
4.51189e-21
1.75213e-05
-4.65869e-18
6.84085e-21
6.58069e-19
4.55277e-21
1.78507e-05
-4.66995e-18
6.81479e-21
6.54655e-19
4.59454e-21
1.81853e-05
-4.68306e-18
6.78709e-21
6.52128e-19
4.63764e-21
1.85253e-05
-4.6935e-18
6.75857e-21
6.48702e-19
4.68124e-21
1.88707e-05
-4.7068e-18
6.72868e-21
6.52334e-19
4.72556e-21
1.92216e-05
-4.72149e-18
6.69777e-21
6.50948e-19
4.77031e-21
1.95782e-05
-4.73262e-18
6.6661e-21
6.50449e-19
4.81505e-21
1.99404e-05
-4.74472e-18
6.63245e-21
6.52737e-19
4.85974e-21
2.03085e-05
-4.75665e-18
6.59739e-21
6.5863e-19
4.90444e-21
2.06825e-05
-4.77124e-18
6.56104e-21
6.62226e-19
4.94889e-21
2.10625e-05
-4.78623e-18
6.52305e-21
6.67716e-19
4.99331e-21
2.14486e-05
-4.80195e-18
6.48377e-21
6.73215e-19
5.03677e-21
2.18409e-05
-4.811e-18
6.4427e-21
6.79183e-19
5.07935e-21
2.22395e-05
-4.82186e-18
6.39934e-21
6.81036e-19
5.12148e-21
2.26446e-05
-4.83199e-18
6.35353e-21
6.83775e-19
5.16378e-21
2.30561e-05
-4.84782e-18
6.30439e-21
6.89669e-19
5.20681e-21
2.34744e-05
-4.85754e-18
6.25489e-21
6.8873e-19
5.24997e-21
2.38994e-05
-4.87015e-18
6.20194e-21
6.91424e-19
5.29402e-21
2.43312e-05
-4.87983e-18
6.14749e-21
6.89019e-19
5.33841e-21
2.47701e-05
-4.88759e-18
6.08929e-21
6.89119e-19
5.3833e-21
2.5216e-05
-4.89876e-18
6.02842e-21
6.88597e-19
5.42741e-21
2.56692e-05
-4.90178e-18
5.96551e-21
6.87606e-19
5.47103e-21
2.61297e-05
-4.90883e-18
5.8987e-21
6.8617e-19
5.514e-21
2.65977e-05
-4.91661e-18
5.82981e-21
6.85094e-19
5.55653e-21
2.70732e-05
-4.92504e-18
5.75888e-21
6.8465e-19
5.59717e-21
2.75565e-05
-4.93083e-18
5.68604e-21
6.82488e-19
5.63567e-21
2.80476e-05
-4.93417e-18
5.60982e-21
6.75128e-19
5.67304e-21
2.85467e-05
-4.93549e-18
5.53007e-21
6.70175e-19
5.70987e-21
2.90538e-05
-4.93881e-18
5.44892e-21
6.65076e-19
5.74538e-21
2.95692e-05
-4.93651e-18
5.36539e-21
6.56091e-19
5.78061e-21
3.00929e-05
-4.93934e-18
5.27767e-21
6.50419e-19
5.81639e-21
3.06252e-05
-4.94443e-18
5.18746e-21
6.46109e-19
5.85241e-21
3.11661e-05
-4.94961e-18
5.09427e-21
6.29511e-19
5.88742e-21
3.17158e-05
-4.94865e-18
4.99633e-21
6.1855e-19
5.92368e-21
3.22744e-05
-4.94917e-18
4.893e-21
6.05255e-19
5.96083e-21
3.2842e-05
-4.95384e-18
4.79011e-21
5.97782e-19
5.99589e-21
3.34189e-05
-4.95217e-18
4.68522e-21
5.82963e-19
6.02941e-21
3.40052e-05
-4.94804e-18
4.57894e-21
5.65467e-19
6.0641e-21
3.4601e-05
-4.94699e-18
4.47133e-21
5.54338e-19
6.103e-21
3.52065e-05
-4.93929e-18
4.36241e-21
5.36397e-19
6.14017e-21
3.58218e-05
-4.94685e-18
4.25132e-21
5.3908e-19
6.17926e-21
3.64471e-05
-4.95012e-18
4.14319e-21
5.3328e-19
6.21353e-21
3.70825e-05
-4.95667e-18
4.03093e-21
5.38073e-19
6.24755e-21
3.77283e-05
-4.96851e-18
3.91555e-21
5.35387e-19
6.27647e-21
3.83846e-05
-4.97609e-18
3.80129e-21
5.36133e-19
6.3036e-21
3.90515e-05
-4.97946e-18
3.6839e-21
5.32658e-19
6.32738e-21
3.97292e-05
-4.97771e-18
3.55834e-21
5.34638e-19
6.35204e-21
4.0418e-05
-4.98529e-18
3.42823e-21
5.35156e-19
6.37228e-21
4.1118e-05
-4.98635e-18
3.29444e-21
5.27633e-19
6.38618e-21
4.18293e-05
-4.9914e-18
3.15559e-21
5.25288e-19
6.40112e-21
4.25521e-05
-4.99018e-18
3.01199e-21
5.17658e-19
6.4162e-21
4.32867e-05
-4.98091e-18
2.86583e-21
5.07257e-19
6.43104e-21
4.40333e-05
-4.97931e-18
2.71217e-21
5.0325e-19
6.44589e-21
4.47919e-05
-4.97728e-18
2.55707e-21
4.94479e-19
6.45968e-21
4.55629e-05
-4.96605e-18
2.4002e-21
4.82711e-19
6.47294e-21
4.63463e-05
-4.95505e-18
2.24145e-21
4.6568e-19
6.48344e-21
4.71425e-05
-4.95435e-18
2.0815e-21
4.58572e-19
6.4992e-21
4.79516e-05
-4.94414e-18
1.9255e-21
4.45176e-19
6.51016e-21
4.87738e-05
-4.93006e-18
1.7635e-21
4.24865e-19
6.51775e-21
4.96094e-05
-4.91638e-18
1.595e-21
4.11013e-19
6.52474e-21
5.04585e-05
-4.90677e-18
1.41701e-21
4.01163e-19
6.53345e-21
5.13213e-05
-4.89964e-18
1.23205e-21
3.88718e-19
6.5402e-21
5.21982e-05
-4.88572e-18
1.04684e-21
3.66027e-19
6.5387e-21
5.30892e-05
-4.87962e-18
8.58234e-22
3.49382e-19
6.54015e-21
5.39947e-05
-4.86862e-18
6.68199e-22
3.27428e-19
6.54474e-21
5.49149e-05
-4.8492e-18
4.77965e-22
3.16324e-19
6.5461e-21
5.585e-05
-4.84475e-18
2.84555e-22
3.05274e-19
6.54046e-21
5.68002e-05
-4.84291e-18
9.20935e-23
2.88509e-19
6.53311e-21
5.77658e-05
-4.83764e-18
-1.01464e-22
2.77928e-19
6.51764e-21
5.87471e-05
-4.82703e-18
-2.8575e-22
2.61241e-19
6.50748e-21
5.97442e-05
-4.8041e-18
-4.67106e-22
2.47066e-19
6.49431e-21
6.07574e-05
-4.77287e-18
-6.6164e-22
2.2758e-19
6.4665e-21
6.17871e-05
-4.72835e-18
-8.6376e-22
1.90791e-19
6.43243e-21
6.28334e-05
-4.70852e-18
-1.09745e-21
1.5053e-19
6.40323e-21
6.38966e-05
-4.67337e-18
-1.33403e-21
1.14928e-19
6.38112e-21
6.4977e-05
-4.66833e-18
-1.58913e-21
8.76537e-20
6.35722e-21
6.60749e-05
-4.68196e-18
-1.85567e-21
8.24404e-20
6.33456e-21
6.71905e-05
-4.66235e-18
-2.09511e-21
5.426e-20
6.28326e-21
6.83242e-05
-4.65266e-18
-2.35737e-21
3.48796e-20
6.2369e-21
6.94761e-05
-4.64087e-18
-2.61246e-21
1.8014e-20
6.18807e-21
7.06467e-05
-4.62812e-18
-2.8572e-21
3.71378e-21
6.1328e-21
7.18361e-05
-4.63002e-18
-3.10451e-21
-1.12962e-21
6.08004e-21
7.30448e-05
-4.61956e-18
-3.34428e-21
-2.41442e-20
6.03063e-21
7.4273e-05
-4.60269e-18
-3.58897e-21
-4.90849e-20
5.98069e-21
7.55209e-05
-4.59148e-18
-3.83138e-21
-7.46815e-20
5.9357e-21
7.6789e-05
-4.5661e-18
-4.05507e-21
-9.88467e-20
5.86821e-21
7.80776e-05
-4.53516e-18
-4.25536e-21
-1.30593e-19
5.79051e-21
7.93869e-05
-4.51781e-18
-4.45898e-21
-1.53026e-19
5.70568e-21
8.07174e-05
-4.50013e-18
-4.66486e-21
-1.7566e-19
5.58791e-21
8.20693e-05
-4.4755e-18
-4.87171e-21
-1.96098e-19
5.43263e-21
8.34429e-05
-4.44789e-18
-5.07799e-21
-2.23997e-19
5.26574e-21
8.48387e-05
-4.41628e-18
-5.28995e-21
-2.45281e-19
5.12427e-21
8.6257e-05
-4.38298e-18
-5.50236e-21
-2.7081e-19
4.9677e-21
8.7698e-05
-4.35199e-18
-5.703e-21
-3.01947e-19
4.81598e-21
8.91623e-05
-4.33361e-18
-5.91079e-21
-3.33022e-19
4.66974e-21
9.06502e-05
-4.3167e-18
-6.0843e-21
-3.61553e-19
4.57002e-21
9.21619e-05
-4.27806e-18
-6.22093e-21
-4.0307e-19
4.46372e-21
9.3698e-05
-4.25572e-18
-6.41735e-21
-4.33498e-19
4.36697e-21
9.52588e-05
-4.2248e-18
-6.61867e-21
-4.63913e-19
4.26391e-21
9.68446e-05
-4.20595e-18
-6.86381e-21
-5.00277e-19
4.15935e-21
9.8456e-05
-4.18258e-18
-7.08532e-21
-5.30499e-19
4.08991e-21
0.000100093
-4.16355e-18
-7.31404e-21
-5.61878e-19
4.00877e-21
0.000101757
-4.13144e-18
-7.51059e-21
-5.80284e-19
3.94015e-21
0.000103447
-4.0985e-18
-7.71539e-21
-6.1477e-19
3.84901e-21
0.000105164
-4.07826e-18
-7.94182e-21
-6.49182e-19
3.75406e-21
0.000106909
-4.04692e-18
-8.15417e-21
-6.67484e-19
3.69431e-21
0.000108682
-4.01068e-18
-8.39244e-21
-7.07033e-19
3.61212e-21
0.000110483
-3.9688e-18
-8.64463e-21
-7.46251e-19
3.50607e-21
0.000112314
-3.93538e-18
-8.9265e-21
-7.71719e-19
3.43649e-21
0.000114173
-3.90483e-18
-9.14199e-21
-8.00237e-19
3.33051e-21
0.000116063
-3.87674e-18
-9.35886e-21
-8.35515e-19
3.17479e-21
0.000117982
-3.82886e-18
-9.62105e-21
-8.75182e-19
3.01451e-21
0.000119933
-3.78185e-18
-9.89395e-21
-9.0148e-19
2.8458e-21
0.000121914
-3.7337e-18
-1.01726e-20
-9.24632e-19
2.59642e-21
0.000123927
-3.6634e-18
-1.03775e-20
-9.55771e-19
2.20798e-21
0.000125973
-3.64313e-18
-1.06811e-20
-1.00085e-18
1.85698e-21
0.000128051
-3.57698e-18
-1.09047e-20
-1.03275e-18
1.60296e-21
0.000130163
-3.55461e-18
-1.12362e-20
-1.04764e-18
1.40308e-21
0.000132308
-3.51349e-18
-1.15749e-20
-1.07722e-18
1.1754e-21
0.000134487
-3.46679e-18
-1.17445e-20
-1.12584e-18
9.70994e-22
0.000136702
-3.4309e-18
-1.19145e-20
-1.16375e-18
8.55532e-22
0.000138951
-3.38584e-18
-1.20486e-20
-1.19208e-18
7.707e-22
0.000141237
-3.34e-18
-1.21836e-20
-1.22653e-18
6.21578e-22
0.000143559
-3.26069e-18
-1.23206e-20
-1.23589e-18
4.41649e-22
0.000145918
-3.21463e-18
-1.26261e-20
-1.26225e-18
5.08046e-23
0.000148315
-3.18039e-18
-1.29356e-20
-1.28514e-18
-2.32111e-22
0.00015075
-3.13756e-18
-1.31532e-20
-1.33105e-18
-4.97172e-22
0.000153223
-3.10486e-18
-1.32374e-20
-1.36014e-18
-6.99457e-22
0.000155737
-3.04001e-18
-1.32107e-20
-1.38442e-18
-8.46969e-22
0.00015829
-3.01891e-18
-1.32528e-20
-1.40196e-18
-1.09261e-21
0.000160884
-2.99225e-18
-1.33195e-20
-1.40329e-18
-1.36278e-21
0.000163519
-2.94754e-18
-1.33106e-20
-1.42647e-18
-1.7522e-21
0.000166196
-2.89576e-18
-1.33721e-20
-1.45126e-18
-2.20026e-21
0.000168915
-2.85261e-18
-1.34001e-20
-1.46405e-18
-2.65242e-21
0.000171678
-2.83768e-18
-1.35397e-20
-1.48357e-18
-3.08918e-21
0.000174485
-2.80715e-18
-1.37284e-20
-1.48628e-18
-3.41611e-21
0.000177337
-2.75792e-18
-1.39421e-20
-1.50034e-18
-3.96406e-21
0.000180233
-2.72485e-18
-1.40004e-20
-1.53741e-18
-4.61134e-21
0.000183176
-2.68137e-18
-1.37435e-20
-1.53543e-18
-4.88314e-21
0.000186165
-2.64602e-18
-1.38523e-20
-1.53844e-18
-5.05675e-21
0.000189202
-2.57826e-18
-1.41479e-20
-1.55103e-18
-5.22419e-21
0.000192287
-2.53449e-18
-1.44835e-20
-1.56387e-18
-5.5035e-21
0.000195421
-2.54529e-18
-1.48672e-20
-1.57241e-18
-5.69835e-21
0.000198604
-2.5112e-18
-1.50236e-20
-1.56562e-18
-5.72882e-21
0.000201838
-2.47849e-18
-1.52489e-20
-1.53494e-18
-5.81822e-21
0.000205123
-2.42991e-18
-1.52695e-20
-1.54734e-18
-6.27528e-21
0.00020846
-2.39322e-18
-1.52758e-20
-1.55328e-18
-6.77471e-21
0.00021185
-2.36541e-18
-1.52392e-20
-1.54762e-18
-7.15287e-21
0.000215294
-2.3408e-18
-1.49631e-20
-1.52346e-18
-7.30616e-21
0.000218791
-2.28481e-18
-1.4628e-20
-1.52564e-18
-7.79811e-21
0.000222344
-2.26062e-18
-1.46282e-20
-1.50598e-18
-8.52713e-21
0.000225954
-2.24985e-18
-1.4712e-20
-1.48712e-18
-9.10874e-21
0.00022962
-2.20729e-18
-1.44851e-20
-1.462e-18
-9.709e-21
0.000233344
-2.19474e-18
-1.46906e-20
-1.47665e-18
-1.07126e-20
0.000237126
-2.16484e-18
-1.47915e-20
-1.46347e-18
-1.14979e-20
0.000240968
-2.13483e-18
-1.51476e-20
-1.46025e-18
-1.23996e-20
0.000244871
-2.13012e-18
-1.54655e-20
-1.52207e-18
-1.32717e-20
0.000248835
-2.07593e-18
-1.52795e-20
-1.50649e-18
-1.33854e-20
0.000252861
-2.02961e-18
-1.44226e-20
-1.45959e-18
-1.36733e-20
0.000256951
-1.87346e-18
-1.42155e-20
-1.47033e-18
-1.47509e-20
0.000261105
-1.86454e-18
-1.50399e-20
-1.48097e-18
-1.5276e-20
0.000265324
-1.81757e-18
-1.56893e-20
-1.41967e-18
-1.49591e-20
0.000269609
-1.8454e-18
-1.56238e-20
-1.38639e-18
-1.47482e-20
0.000273961
-1.81536e-18
-1.5098e-20
-1.37657e-18
-1.44539e-20
0.000278382
-1.78164e-18
-1.4907e-20
-1.41731e-18
-1.42655e-20
0.000282871
-1.72183e-18
-1.49431e-20
-1.43996e-18
-1.33088e-20
0.000287431
-1.71256e-18
-1.60215e-20
-1.44172e-18
-1.16732e-20
0.000292062
-1.63366e-18
-1.58992e-20
-1.52597e-18
-1.11208e-20
0.000296765
-1.65344e-18
-1.60963e-20
-1.56812e-18
-1.02527e-20
0.000301542
-1.6239e-18
-1.60704e-20
-1.54572e-18
-9.59511e-21
0.000306393
-1.65423e-18
-1.52703e-20
-1.55718e-18
-9.91537e-21
0.00031132
-1.65204e-18
-1.39708e-20
-1.56127e-18
-1.03825e-20
0.000316323
-1.60243e-18
-1.39412e-20
-1.57227e-18
-1.16579e-20
0.000321404
-1.62489e-18
-1.47488e-20
-1.55355e-18
-1.20193e-20
0.000326564
-1.61206e-18
-1.48432e-20
-1.56402e-18
-1.24302e-20
0.000331804
-1.56051e-18
-1.4963e-20
-1.49747e-18
-1.26477e-20
0.000337125
-1.55503e-18
-1.56699e-20
-1.51768e-18
-1.42456e-20
0.000342529
-1.50411e-18
-1.58622e-20
-1.50273e-18
-1.5524e-20
0.000348016
-1.49819e-18
-1.66415e-20
-1.49861e-18
-1.71271e-20
0.000353588
-1.50124e-18
-1.7147e-20
-1.51457e-18
-1.86648e-20
0.000359245
-1.40899e-18
-1.70178e-20
-1.45957e-18
-1.91817e-20
0.00036499
-1.48578e-18
-1.82063e-20
-1.36738e-18
-1.99158e-20
0.000370823
-1.47213e-18
-1.8468e-20
-1.34527e-18
-2.15619e-20
0.000376746
-1.40766e-18
-1.8692e-20
-1.42461e-18
-2.39893e-20
0.000382759
-1.39449e-18
-1.87888e-20
-1.36101e-18
-2.37141e-20
0.000388864
-1.29324e-18
-1.87675e-20
-1.39455e-18
-2.44328e-20
0.000395063
-1.36624e-18
-1.94519e-20
-1.32435e-18
-2.38213e-20
0.000401356
-1.28654e-18
-1.88279e-20
-1.25341e-18
-2.37103e-20
0.000407745
-1.25903e-18
-1.85594e-20
-1.22196e-18
-2.48274e-20
0.000414232
-1.28477e-18
-1.80572e-20
-1.30126e-18
-2.59224e-20
0.000420816
-1.2767e-18
-1.6774e-20
-1.31087e-18
-2.47581e-20
0.0004275
-1.21225e-18
-1.45641e-20
-1.28591e-18
-2.22129e-20
0.000434286
-1.18847e-18
-1.56759e-20
-1.16422e-18
-1.90381e-20
0.000441173
-1.11979e-18
-1.7841e-20
-1.18967e-18
-2.02412e-20
0.000448164
-1.09341e-18
-2.11805e-20
-1.1656e-18
-2.31261e-20
0.00045526
-1.02778e-18
-2.48969e-20
-1.13544e-18
-2.38013e-20
0.000462461
-1.09356e-18
-2.94309e-20
-1.02825e-18
-2.35649e-20
0.00046977
-1.02588e-18
-3.23616e-20
-1.02366e-18
-2.61137e-20
0.000477188
-1.05009e-18
-3.91907e-20
-9.85715e-19
-2.88648e-20
0.000484716
-1.01084e-18
-4.43133e-20
-1.0043e-18
-3.26466e-20
0.000492355
-1.07852e-18
-4.66886e-20
-1.05651e-18
-3.23155e-20
0.000500106
-1.11373e-18
-4.7361e-20
-1.08687e-18
-3.20501e-20
0.00050797
-1.21738e-18
-5.25965e-20
-1.02562e-18
-3.57182e-20
0.00051595
-1.1434e-18
-5.56181e-20
-1.06563e-18
-4.10095e-20
0.000524045
-1.09457e-18
-5.75143e-20
-1.101e-18
-4.23776e-20
0.000532258
-1.08509e-18
-5.92249e-20
-1.00453e-18
-4.81114e-20
0.000540588
-1.04536e-18
-5.78797e-20
-1.10924e-18
-5.76506e-20
0.000549038
-9.56214e-19
-5.71707e-20
-1.16989e-18
-6.21154e-20
0.000557608
-9.08294e-19
-6.13498e-20
-1.13668e-18
-6.32374e-20
0.000566299
-9.979e-19
-7.05691e-20
-1.10185e-18
-6.09947e-20
0.000575112
-9.50297e-19
-6.87892e-20
-1.0098e-18
-5.57942e-20
0.000584048
-1.17221e-18
-6.94238e-20
-1.01411e-18
-5.52533e-20
0.000593108
-1.14571e-18
-6.44529e-20
-1.03808e-18
-5.38689e-20
0.000602292
-1.22272e-18
-5.79061e-20
-1.05632e-18
-4.52706e-20
0.0006116
-1.04597e-18
-4.75088e-20
-1.20384e-18
-4.33118e-20
0.000621034
-1.11684e-18
-4.70116e-20
-1.17281e-18
-3.61231e-20
0.000630594
-1.29918e-18
-4.50565e-20
-1.19953e-18
-3.35266e-20
0.00064028
-1.26982e-18
-2.85661e-20
-1.12631e-18
-3.13599e-20
0.000650091
-1.12945e-18
-1.76651e-20
-1.1581e-18
-2.85719e-20
0.000660028
-1.02168e-18
-1.77758e-20
-9.14314e-19
-2.38078e-20
0.000670091
-9.24617e-19
-2.19663e-20
-8.71334e-19
-2.69951e-20
0.000680278
-9.13482e-19
-2.23958e-20
-9.38766e-19
-3.23507e-20
0.00069059
-7.98557e-19
-2.2329e-20
-8.65072e-19
-3.15574e-20
0.000701026
-8.29729e-19
-3.33883e-20
-8.20172e-19
-3.3943e-20
0.000711584
-7.77445e-19
-3.32617e-20
-7.33651e-19
-3.22406e-20
0.000722263
-7.47784e-19
-2.64296e-20
-7.60165e-19
-4.01605e-20
0.000733061
-6.83326e-19
-2.09552e-20
-7.54347e-19
-3.19311e-20
0.000743977
-6.38457e-19
-1.17122e-20
-6.05809e-19
-2.87288e-20
0.000755008
-6.88232e-19
-1.52341e-20
-6.71433e-19
-3.14848e-20
0.000766153
-5.88833e-19
-7.62156e-21
-5.99054e-19
-3.67795e-20
0.000777409
-6.52344e-19
-3.07567e-21
-5.71716e-19
-4.16122e-20
0.000788773
8.61955e-21
-6.21055e-19
-4.18405e-20
-5.69144e-19
4.89054e-08
1.30948e-21
1.01865e-21
1.49559e-07
7.34821e-21
4.90035e-21
2.54592e-07
1.35908e-20
8.96235e-21
3.6415e-07
2.0054e-20
1.31633e-20
4.78383e-07
2.68539e-20
1.75952e-20
5.9744e-07
3.39682e-20
2.20501e-20
7.21462e-07
4.12666e-20
2.66968e-20
8.50574e-07
4.87655e-20
3.16912e-20
9.84868e-07
5.63104e-20
3.71428e-20
1.12439e-06
6.4214e-20
4.26807e-20
1.2691e-06
7.23938e-20
4.82914e-20
1.41888e-06
8.10272e-20
5.4315e-20
1.57348e-06
8.96148e-20
6.0461e-20
1.73252e-06
9.84924e-20
6.67568e-20
1.8955e-06
1.07045e-19
7.35578e-20
2.0618e-06
1.16512e-19
8.01262e-20
2.23072e-06
1.26095e-19
8.62414e-20
2.40156e-06
1.35176e-19
9.32012e-20
2.57362e-06
1.45493e-19
9.96094e-20
2.74628e-06
1.55337e-19
1.06006e-19
2.91901e-06
1.65023e-19
1.12074e-19
3.0914e-06
1.74342e-19
1.17752e-19
3.26316e-06
1.84127e-19
1.24139e-19
3.43412e-06
1.92622e-19
1.31131e-19
3.60419e-06
2.01088e-19
1.37522e-19
3.77334e-06
2.08596e-19
1.43929e-19
3.94164e-06
2.16974e-19
1.50103e-19
4.10917e-06
2.2547e-19
1.55652e-19
4.27605e-06
2.32387e-19
1.61372e-19
4.44243e-06
2.40262e-19
1.67012e-19
4.60845e-06
2.47419e-19
1.72094e-19
4.77428e-06
2.5553e-19
1.77519e-19
4.94007e-06
2.63731e-19
1.83071e-19
5.10599e-06
2.71856e-19
1.87938e-19
5.27219e-06
2.79527e-19
1.93084e-19
5.43881e-06
2.86083e-19
1.97651e-19
5.60602e-06
2.93351e-19
2.02672e-19
5.77394e-06
2.99488e-19
2.08616e-19
5.94271e-06
3.06279e-19
2.13512e-19
6.11245e-06
3.13291e-19
2.18555e-19
6.2833e-06
3.21298e-19
2.22837e-19
6.45537e-06
3.26736e-19
2.27742e-19
6.62877e-06
3.32886e-19
2.32901e-19
6.80361e-06
3.39293e-19
2.37914e-19
6.97999e-06
3.45085e-19
2.44383e-19
7.15801e-06
3.513e-19
2.51482e-19
7.33778e-06
3.58129e-19
2.56418e-19
7.51938e-06
3.64022e-19
2.62452e-19
7.7029e-06
3.70124e-19
2.66854e-19
7.88844e-06
3.73641e-19
2.72633e-19
8.07607e-06
3.7871e-19
2.77672e-19
8.26589e-06
3.8549e-19
2.8278e-19
8.45798e-06
3.91294e-19
2.88864e-19
8.65241e-06
3.96841e-19
2.96761e-19
8.84927e-06
4.02954e-19
3.01141e-19
9.04862e-06
4.09059e-19
3.07876e-19
9.25056e-06
4.13911e-19
3.12272e-19
9.45516e-06
4.20525e-19
3.17263e-19
9.66248e-06
4.26237e-19
3.21734e-19
9.87261e-06
4.29029e-19
3.27736e-19
1.00856e-05
4.35161e-19
3.33883e-19
1.03016e-05
4.42274e-19
3.37451e-19
1.05206e-05
4.47964e-19
3.44349e-19
1.07427e-05
4.53388e-19
3.49765e-19
1.09679e-05
4.55464e-19
3.53358e-19
1.11964e-05
4.61373e-19
3.5878e-19
1.14283e-05
4.66573e-19
3.61467e-19
1.16635e-05
4.7004e-19
3.67395e-19
1.19022e-05
4.75682e-19
3.72226e-19
1.21444e-05
4.81284e-19
3.78034e-19
1.23902e-05
4.88003e-19
3.83805e-19
1.26398e-05
4.93446e-19
3.88224e-19
1.2893e-05
4.99431e-19
3.94005e-19
1.31502e-05
5.072e-19
4.00923e-19
1.34112e-05
5.12879e-19
4.07384e-19
1.36763e-05
5.17748e-19
4.13661e-19
1.39454e-05
5.23467e-19
4.18936e-19
1.42186e-05
5.29592e-19
4.24154e-19
1.44961e-05
5.36457e-19
4.29122e-19
1.47779e-05
5.42314e-19
4.34188e-19
1.50641e-05
5.44765e-19
4.40733e-19
1.53547e-05
5.51263e-19
4.42144e-19
1.56499e-05
5.52912e-19
4.51229e-19
1.59497e-05
5.60404e-19
4.57965e-19
1.62542e-05
5.65755e-19
4.64335e-19
1.65636e-05
5.72924e-19
4.71435e-19
1.68778e-05
5.77374e-19
4.77868e-19
1.7197e-05
5.83235e-19
4.86642e-19
1.75213e-05
5.88321e-19
4.94313e-19
1.78507e-05
5.89285e-19
5.05174e-19
1.81853e-05
5.95134e-19
5.117e-19
1.85253e-05
5.99921e-19
5.17504e-19
1.88707e-05
6.0543e-19
5.29543e-19
1.92216e-05
6.12373e-19
5.37227e-19
1.95782e-05
6.13834e-19
5.45529e-19
1.99404e-05
6.18584e-19
5.5303e-19
2.03085e-05
6.25532e-19
5.6005e-19
2.06825e-05
6.28683e-19
5.68837e-19
2.10625e-05
6.36404e-19
5.76681e-19
2.14486e-05
6.40666e-19
5.83162e-19
2.18409e-05
6.4763e-19
5.90989e-19
2.22395e-05
6.54504e-19
5.97161e-19
2.26446e-05
6.56543e-19
6.04233e-19
2.30561e-05
6.71046e-19
6.14297e-19
2.34744e-05
6.76215e-19
6.24001e-19
2.38994e-05
6.88642e-19
6.33346e-19
2.43312e-05
6.88493e-19
6.44063e-19
2.47701e-05
6.95379e-19
6.50597e-19
2.5216e-05
7.00414e-19
6.57185e-19
2.56692e-05
7.01087e-19
6.64943e-19
2.61297e-05
7.05261e-19
6.72451e-19
2.65977e-05
7.09182e-19
6.76186e-19
2.70732e-05
7.12887e-19
6.82804e-19
2.75565e-05
7.12387e-19
6.90943e-19
2.80476e-05
7.12598e-19
6.97839e-19
2.85467e-05
7.2221e-19
7.06864e-19
2.90538e-05
7.26598e-19
7.19582e-19
2.95692e-05
7.29062e-19
7.26414e-19
3.00929e-05
7.32768e-19
7.34241e-19
3.06252e-05
7.35873e-19
7.41417e-19
3.11661e-05
7.34881e-19
7.44097e-19
3.17158e-05
7.35635e-19
7.55791e-19
3.22744e-05
7.52076e-19
7.61877e-19
3.2842e-05
7.53537e-19
7.73931e-19
3.34189e-05
7.63547e-19
7.84324e-19
3.40052e-05
7.74094e-19
8.03613e-19
3.4601e-05
7.75676e-19
8.13266e-19
3.52065e-05
7.79806e-19
8.26514e-19
3.58218e-05
7.88478e-19
8.32021e-19
3.64471e-05
7.87023e-19
8.3845e-19
3.70825e-05
7.90468e-19
8.43351e-19
3.77283e-05
8.00283e-19
8.50551e-19
3.83846e-05
8.02074e-19
8.5584e-19
3.90515e-05
7.94887e-19
8.6366e-19
3.97292e-05
8.00632e-19
8.66899e-19
4.0418e-05
8.01281e-19
8.69824e-19
4.1118e-05
8.08941e-19
8.77307e-19
4.18293e-05
8.11639e-19
8.83333e-19
4.25521e-05
8.22156e-19
8.87502e-19
4.32867e-05
8.26683e-19
8.91351e-19
4.40333e-05
8.29647e-19
8.96948e-19
4.47919e-05
8.2976e-19
9.0343e-19
4.55629e-05
8.37827e-19
9.01852e-19
4.63463e-05
8.42491e-19
9.04515e-19
4.71425e-05
8.45548e-19
9.0694e-19
4.79516e-05
8.39178e-19
9.14882e-19
4.87738e-05
8.38308e-19
9.22648e-19
4.96094e-05
8.38424e-19
9.36176e-19
5.04585e-05
8.38065e-19
9.41962e-19
5.13213e-05
8.42808e-19
9.40585e-19
5.21982e-05
8.49387e-19
9.44962e-19
5.30892e-05
8.46615e-19
9.57828e-19
5.39947e-05
8.43791e-19
9.62645e-19
5.49149e-05
8.47014e-19
9.69155e-19
5.585e-05
8.47622e-19
9.84074e-19
5.68002e-05
8.4348e-19
9.83768e-19
5.77658e-05
8.55087e-19
9.99262e-19
5.87471e-05
8.65542e-19
9.97733e-19
5.97442e-05
8.63834e-19
9.98176e-19
6.07574e-05
8.67858e-19
1.00449e-18
6.17871e-05
8.57742e-19
9.96347e-19
6.28334e-05
8.62699e-19
9.98009e-19
6.38966e-05
8.73964e-19
1.00531e-18
6.4977e-05
8.70244e-19
1.02262e-18
6.60749e-05
8.78098e-19
1.02932e-18
6.71905e-05
8.636e-19
1.04242e-18
6.83242e-05
8.7713e-19
1.05156e-18
6.94761e-05
8.92991e-19
1.05189e-18
7.06467e-05
8.95546e-19
1.06209e-18
7.18361e-05
8.89604e-19
1.08577e-18
7.30448e-05
8.7736e-19
1.08371e-18
7.4273e-05
8.75572e-19
1.09181e-18
7.55209e-05
8.78774e-19
1.08654e-18
7.6789e-05
8.92368e-19
1.09627e-18
7.80776e-05
8.89241e-19
1.0957e-18
7.93869e-05
8.77949e-19
1.08863e-18
8.07174e-05
8.7346e-19
1.08868e-18
8.20693e-05
8.8139e-19
1.08809e-18
8.34429e-05
8.87344e-19
1.09377e-18
8.48387e-05
8.93973e-19
1.0957e-18
8.6257e-05
9.05473e-19
1.10728e-18
8.7698e-05
9.05645e-19
1.09997e-18
8.91623e-05
9.15893e-19
1.11144e-18
9.06502e-05
9.22075e-19
1.10376e-18
9.21619e-05
8.93847e-19
1.10437e-18
9.3698e-05
8.8094e-19
1.10158e-18
9.52588e-05
8.54943e-19
1.09828e-18
9.68446e-05
8.53311e-19
1.10947e-18
9.8456e-05
8.40531e-19
1.10243e-18
0.000100093
8.45697e-19
1.10562e-18
0.000101757
8.4784e-19
1.10666e-18
0.000103447
8.41209e-19
1.10003e-18
0.000105164
8.32042e-19
1.10195e-18
0.000106909
8.19053e-19
1.09619e-18
0.000108682
8.18365e-19
1.08451e-18
0.000110483
8.15195e-19
1.10037e-18
0.000112314
8.45161e-19
1.09671e-18
0.000114173
8.53982e-19
1.09252e-18
0.000116063
8.50187e-19
1.09248e-18
0.000117982
8.72659e-19
1.08744e-18
0.000119933
8.88309e-19
1.08274e-18
0.000121914
9.30599e-19
1.05928e-18
0.000123927
9.3372e-19
1.07592e-18
0.000125973
9.45448e-19
1.07923e-18
0.000128051
9.38301e-19
1.0832e-18
0.000130163
9.17793e-19
1.08695e-18
0.000132308
9.63448e-19
1.08936e-18
0.000134487
9.60914e-19
1.10344e-18
0.000136702
9.56953e-19
1.11259e-18
0.000138951
9.46553e-19
1.09326e-18
0.000141237
9.35719e-19
1.09515e-18
0.000143559
9.05753e-19
1.06539e-18
0.000145918
8.80901e-19
1.06807e-18
0.000148315
8.75572e-19
1.05186e-18
0.00015075
8.86736e-19
1.04001e-18
0.000153223
8.82902e-19
1.05201e-18
0.000155737
8.85842e-19
1.03213e-18
0.00015829
8.52467e-19
1.02385e-18
0.000160884
8.39318e-19
1.00334e-18
0.000163519
8.27657e-19
9.99472e-19
0.000166196
8.60477e-19
1.01504e-18
0.000168915
8.63635e-19
1.00499e-18
0.000171678
8.4255e-19
1.01066e-18
0.000174485
8.36124e-19
1.0084e-18
0.000177337
8.78363e-19
9.9099e-19
0.000180233
9.23039e-19
9.9721e-19
0.000183176
8.68768e-19
1.01017e-18
0.000186165
8.40881e-19
1.02366e-18
0.000189202
8.56891e-19
9.966e-19
0.000192287
8.52819e-19
9.8342e-19
0.000195421
8.44099e-19
9.84884e-19
0.000198604
8.25973e-19
9.78719e-19
0.000201838
8.44051e-19
9.57993e-19
0.000205123
8.48353e-19
9.26303e-19
0.00020846
8.41324e-19
9.04783e-19
0.00021185
8.55238e-19
9.21084e-19
0.000215294
8.52169e-19
9.07367e-19
0.000218791
8.32035e-19
8.85952e-19
0.000222344
8.01675e-19
8.98069e-19
0.000225954
8.08898e-19
8.81672e-19
0.00022962
7.5993e-19
8.64268e-19
0.000233344
7.36748e-19
8.58062e-19
0.000237126
7.03933e-19
8.38147e-19
0.000240968
7.02086e-19
8.22086e-19
0.000244871
7.01719e-19
7.85339e-19
0.000248835
7.54608e-19
7.78839e-19
0.000252861
6.74433e-19
7.37815e-19
0.000256951
6.90443e-19
7.01311e-19
0.000261105
6.77293e-19
7.0554e-19
0.000265324
7.34964e-19
7.09573e-19
0.000269609
7.07813e-19
7.0297e-19
0.000273961
6.78163e-19
6.87365e-19
0.000278382
6.54948e-19
7.03952e-19
0.000282871
6.03284e-19
7.41935e-19
0.000287431
6.74993e-19
7.07508e-19
0.000292062
6.98742e-19
7.2525e-19
0.000296765
6.61049e-19
7.21668e-19
0.000301542
7.04737e-19
6.95541e-19
0.000306393
6.93131e-19
6.93071e-19
0.00031132
6.13271e-19
6.30223e-19
0.000316323
5.95853e-19
6.31618e-19
0.000321404
5.93778e-19
6.18692e-19
0.000326564
5.82371e-19