/*--------------------------------*- C++ -*----------------------------------*\
| =========                 |                                                 |
| \\      /  F ield         | OpenFOAM: The Open Source CFD Toolbox           |
|  \\    /   O peration     | Version:  2012                                  |
|   \\  /    A nd           | Website:  www.openfoam.com                      |
|    \\/     M anipulation  |                                                 |
\*---------------------------------------------------------------------------*/
FoamFile
{
    version     2.0;
    format      ascii;
    class       volTensorField;
    location    "4000";
    object      grad(U);
}
// * * * * * * * * * * * * * * * * * * * * * * * * * * * * * * * * * * * * * //

dimensions      [0 0 -1 0 0 0 0];


internalField   nonuniform List<tensor> 
80
(
(-3.36348e-16 4.67722e-31 2.3899e-30 47.4415 -3.52077e-14 -4.15487e-13 1.93012 2.83726e-15 -4.21082e-15)
(0 -3.2879e-28 0 47.4415 0 6.20777e-14 1.93012 7.88861e-31 3.28938e-16)
(2.41963e-15 -6.2981e-28 -4.61071e-28 38.9655 -1.58188e-30 -7.11373e-31 6.98086 -6.31089e-30 3.15544e-30)
(0 1.14617e-29 -2.8026e-45 38.9655 -1.34695e-13 9.46633e-30 6.98086 -1.84009e-14 9.09112e-45)
(0 -3.43554e-30 -1.03066e-29 20.8382 1.47739e-13 3.05621e-14 6.41738 -1.99978e-14 -1.53675e-14)
(5.32787e-15 3.43554e-30 1.37422e-29 20.8382 4.53686e-14 -7.848e-14 6.41738 -6.08949e-15 2.9134e-15)
(0 0 0 7.14001 1.58665e-14 -1.9761e-14 3.5466 -1.56203e-14 -5.24863e-15)
(4.44977e-15 0 0 7.14001 -1.63749e-14 -8.09468e-14 3.5466 -1.1294e-14 3.36963e-15)
(3.43813e-15 -5.85838e-30 -9.87735e-30 2.44368 5.27469e-15 -5.00772e-14 2.2202 -5.61322e-15 -3.57897e-15)
(-2.78023e-15 2.46934e-30 0 2.44368 -2.0656e-15 -7.22725e-14 2.2202 -7.62715e-15 1.494e-15)
(-2.36715e-15 8.74137e-31 0 0.948812 4.43503e-15 -3.80651e-14 1.56616 -8.19879e-15 -4.42567e-16)
(0 0 0 0.948812 2.40136e-15 -4.74488e-14 1.56616 -3.45362e-15 -2.97628e-16)
(2.52272e-15 -5.4038e-32 -2.83979e-29 0.414562 2.3126e-15 -3.123e-14 1.22824 -1.09557e-14 6.31089e-29)
(0 0 0 0.414562 1.6337e-15 -3.12385e-14 1.22824 -7.57612e-15 9.46633e-29)
(0 0 -3.40482e-29 0.19891 6.28093e-16 -2.6532e-14 1.02519 -3.15014e-15 3.15544e-29)
(5.75264e-15 -2.88846e-30 3.40482e-29 0.19891 6.47238e-16 -2.66783e-14 1.02519 -2.49785e-15 6.31089e-29)
(-5.59957e-15 1.99589e-30 4.08227e-29 0.100608 9.21538e-16 -2.64888e-14 0.883493 -4.45197e-15 6.31089e-29)
(2.18154e-14 -4.36309e-30 0 0.100608 1.20801e-15 -2.64869e-14 0.883493 -5.83593e-15 1.89327e-28)
(1.18038e-18 8.88666e-36 -4.91434e-31 1.10328e-15 -2.46895e-17 8.71118e-17 7.10602e-15 1.98963e-16 5.7413e-15)
(1.16457e-14 -6.44597e-44 4.175e-31 2.20657e-15 -1.44941e-29 5.18079e-32 1.77642e-14 2.50755e-46 3.00841e-15)
(3.36348e-16 0 5.97475e-31 47.4415 -2.52577e-14 1.59427e-13 -1.93012 -6.20755e-15 4.21082e-15)
(0 0 -5.97475e-31 47.4415 -1.52884e-14 -3.87567e-14 -1.93012 -7.00596e-15 -3.28938e-16)
(0 0 1.1382e-29 38.9655 -4.21429e-14 -9.41668e-46 -6.98086 4.55947e-14 2.05039e-14)
(0 0 -2.17432e-30 38.9655 -3.29829e-14 -8.67747e-30 -6.98086 1.84009e-14 -1.95845e-15)
(-1.93404e-15 2.57666e-30 -1.03066e-29 20.8382 4.17818e-15 2.63015e-14 -6.41738 1.99978e-14 1.78771e-14)
(0 3.38035e-30 6.87108e-30 20.8382 7.88861e-31 8.53302e-14 -6.41738 6.08949e-15 -2.9134e-15)
(3.38431e-15 1.02978e-30 -8.23821e-30 7.14001 -5.73957e-15 6.53226e-14 -3.5466 1.72511e-14 5.24863e-15)
(-6.76861e-15 -2.05955e-30 8.23821e-30 7.14001 -7.1729e-15 7.87131e-14 -3.5466 1.1294e-14 -3.36963e-15)
(0 0 0 2.44368 -1.58822e-15 5.71912e-14 -2.2202 1.67795e-14 3.57897e-15)
(0 0 0 2.44368 -3.06673e-15 6.63613e-14 -2.2202 1.43627e-14 -1.494e-15)
(-9.66259e-16 0 0 0.948812 5.76844e-16 4.21518e-14 -1.56616 1.44976e-14 4.42567e-16)
(-9.46859e-15 1.48033e-30 0 0.948812 2.36901e-16 4.55108e-14 -1.56616 1.3516e-14 2.97628e-16)
(0 0 -2.83979e-29 0.414562 3.46264e-18 3.15487e-14 -1.22824 1.02447e-14 -6.31089e-29)
(-2.01817e-14 -6.2534e-30 0 0.414562 -3.60182e-30 3.14529e-14 -1.22824 1.12651e-14 -9.46633e-29)
(-4.79186e-15 -2.12801e-30 0 0.19891 -1.9116e-16 2.6532e-14 -1.02519 4.36679e-15 -3.15544e-29)
(-5.75264e-15 5.48597e-30 0 0.19891 -2.99975e-16 2.66783e-14 -1.02519 5.48557e-15 -6.31089e-29)
(-2.72692e-15 1.14881e-30 4.08227e-29 0.100608 3.30368e-16 2.73797e-14 -0.883493 1.59601e-15 -6.31089e-29)
(-1.09077e-14 7.22194e-30 -4.08227e-29 0.100608 2.75233e-16 2.69537e-14 -0.883493 1.32966e-15 -1.89327e-28)
(3.04391e-16 3.82384e-31 0 0 -2.8048e-17 0 0 -1.43223e-15 6.38977e-29)
(-1.49835e-16 -1.20628e-30 8.97025e-31 0 -5.24335e-17 -1.26939e-15 2.36076e-18 -1.07824e-15 -3.00841e-15)
(-2.91025e-15 1.05658e-42 1.50066e-31 -2.79253e-09 1.18872e-28 2.17605e-14 2.25025e-08 6.29828e-46 -2.81053e-15)
(1.16433e-14 -7.53599e-30 0 -2.79216e-09 -1.05119e-17 2.33233e-14 2.25025e-08 -8.47113e-17 -3.69903e-16)
(-2.72692e-15 0 0 -0.100608 2.29035e-16 3.06235e-15 0.883493 -9.77913e-16 9.30558e-16)
(-1.09077e-14 -9.90794e-32 0 -0.100608 9.86076e-32 2.4015e-15 0.883493 -1.06834e-15 7.31837e-16)
(0 -2.66001e-31 0 -0.19891 1.30765e-16 2.19098e-15 1.02519 -9.09559e-16 -1.21836e-15)
(4.79186e-15 -2.54292e-43 0 -0.19891 2.86292e-29 1.69719e-15 1.02519 1.97215e-31 -3.10153e-15)
(-5.04544e-15 1.10929e-31 8.87434e-31 -0.414562 3.63824e-16 3.28731e-15 1.22824 -1.00403e-15 -2.97856e-15)
(6.09422e-15 -5.54646e-32 0 -0.414562 -4.93038e-32 3.42394e-15 1.22824 -7.08189e-16 -1.77951e-15)
(0 6.93904e-32 -7.40165e-31 -0.948812 2.70712e-16 2.4526e-15 1.56616 -8.82298e-16 -1.29036e-16)
(0 -6.93904e-32 7.40165e-31 -0.948812 -4.80656e-16 2.52934e-15 1.56616 -9.36794e-16 -4.3559e-16)
(2.78023e-15 0 -5.97479e-31 -2.44368 -2.07266e-46 6.07422e-16 2.2202 -3.37822e-16 -3.79001e-16)
(8.48929e-15 0 0 -2.44368 0 1.78269e-15 2.2202 0 -3.57425e-16)
(-1.69215e-15 -1.28722e-31 0 -7.14001 -2.88972e-16 1.42048e-15 3.5466 -1.76899e-16 8.06421e-17)
(6.76862e-15 1.28722e-31 0 -7.14001 1.50285e-15 6.77922e-16 3.5466 -2.30442e-16 -3.24546e-18)
(0 -8.75812e-46 0 -20.8382 2.33303e-30 -7.78967e-16 6.41738 -4.93038e-32 4.09475e-16)
(-1.93404e-15 1.54143e-44 0 -20.8382 -1.76566e-30 -1.29143e-16 6.41738 2.46519e-32 4.76305e-16)
(0 2.93983e-31 -8.63529e-45 -38.9655 7.38468e-16 0 6.98086 -2.23518e-17 5.62301e-16)
(0 5.59651e-33 0 -38.9655 -7.6664e-16 4.03083e-15 6.98086 8.69012e-17 5.58832e-16)
(3.36348e-16 -5.83471e-34 0 -47.4415 -4.4978e-17 9.59986e-15 1.93012 -1.13483e-17 1.93733e-16)
(-3.36348e-16 1.16694e-33 0 -47.4415 -3.0637e-16 5.87028e-15 1.93012 -2.3163e-17 2.36373e-16)
(-6.88841e-15 0 -1.22363e-29 -2.79254e-09 -2.30725e-17 -2.17605e-14 -2.25025e-08 2.14785e-15 2.81053e-15)
(2.36076e-18 3.05907e-30 -6.64449e-30 -2.79235e-09 -6.25698e-17 -2.33233e-14 -2.25025e-08 7.66687e-16 3.69903e-16)
(2.72692e-15 0 0 -0.100608 1.82323e-16 -3.03807e-15 -0.883493 9.77913e-16 -9.30558e-16)
(-1.09077e-14 2.48854e-31 -5.10284e-30 -0.100608 1.72969e-16 -3.22273e-15 -0.883493 1.06834e-15 -7.31837e-16)
(-5.03205e-15 5.04907e-31 2.12801e-30 -0.19891 -1.74339e-31 -3.50715e-15 -1.02519 9.09559e-16 1.21836e-15)
(-1.05445e-14 1.33001e-31 0 -0.19891 -1.02744e-16 -3.19678e-15 -1.02519 1.61168e-15 3.10153e-15)
(-5.04544e-15 -1.53922e-31 0 -0.414562 -3.1694e-16 -1.99504e-15 -1.22824 7.59265e-16 2.97856e-15)
(-1.00909e-14 4.29998e-31 0 -0.414562 -1.55562e-16 -1.88526e-15 -1.22824 3.33239e-16 1.77951e-15)
(0 0 0 -0.948812 4.7108e-16 -7.2104e-16 -1.56616 5.03312e-16 1.29036e-16)
(0 0 2.10195e-45 -0.948812 4.11888e-45 -2.3232e-31 -1.56616 8.35235e-30 4.3559e-16)
(2.12232e-15 7.71668e-32 0 -2.44368 1.00284e-15 -6.22231e-16 -2.2202 3.37822e-16 3.95965e-16)
(-2.78023e-15 3.63624e-31 0 -2.44368 6.31439e-16 -9.79003e-16 -2.2202 4.7608e-16 3.57425e-16)
(0 4.82708e-32 -2.57444e-31 -7.14001 3.61835e-16 6.33903e-16 -3.5466 1.76899e-16 -8.06421e-17)
(0 -4.82708e-32 2.57444e-31 -7.14001 4.2431e-16 1.63494e-15 -3.5466 2.30442e-16 3.24546e-18)
(1.69692e-15 0 0 -20.8382 3.06395e-16 2.73042e-15 -6.41738 2.51574e-16 -4.09475e-16)
(3.39383e-15 0 0 -20.8382 2.84439e-16 2.19242e-15 -6.41738 -1.98795e-16 -4.76305e-16)
(1.61308e-15 -1.1193e-32 1.99382e-44 -38.9655 4.99708e-16 -1.48321e-43 -6.98086 2.23518e-17 3.59174e-29)
(0 -3.50325e-45 0 -38.9655 -5.35498e-44 -6.57007e-15 -6.98086 -6.44647e-30 -5.58832e-16)
(0 -4.66777e-33 -1.49369e-31 -47.4415 4.28974e-16 -1.78363e-14 -1.93012 1.13483e-17 -1.93733e-16)
(0 -7.00649e-46 0 -47.4415 -2.46519e-32 -1.47361e-14 -1.93012 2.24853e-30 -2.36373e-16)
)
;

boundaryField
{
    walls
    {
        type            extrapolatedCalculated;
        value           nonuniform List<tensor> 8((-3.36348e-16 4.67722e-31 2.3899e-30 47.9021 2.58248e-13 -3.51606e-13 1.93012 2.83726e-15 -4.21082e-15) (3.36348e-16 0 5.97475e-31 47.9021 4.98716e-14 1.42597e-13 -1.93012 -6.20755e-15 4.21082e-15) (0 -3.2879e-28 0 47.9021 2.93456e-13 -1.07287e-15 1.93012 7.88861e-31 3.28938e-16) (0 0 -5.97475e-31 47.9021 5.42941e-14 1.74001e-14 -1.93012 -7.00596e-15 -3.28938e-16) (3.36348e-16 -5.83471e-34 0 -47.9021 -3.57185e-17 7.11137e-15 1.93012 -1.13483e-17 1.93733e-16) (0 -4.66777e-33 -1.49369e-31 -47.9021 5.99004e-16 -1.67275e-14 -1.93012 1.13483e-17 -1.93733e-16) (-3.36348e-16 1.16694e-33 0 -47.9021 -1.33434e-16 2.50469e-15 1.93012 -2.3163e-17 2.36373e-16) (0 -7.00649e-46 0 -47.9021 1.28316e-15 -1.42374e-14 -1.93012 2.24853e-30 -2.36373e-16));
    }
    inlet
    {
        type            cyclic;
    }
    outlet
    {
        type            cyclic;
    }
    sides
    {
        type            empty;
    }
}


// ************************************************************************* //
