/*--------------------------------*- C++ -*----------------------------------*\
| =========                 |                                                 |
| \\      /  F ield         | OpenFOAM: The Open Source CFD Toolbox           |
|  \\    /   O peration     | Version:  2012                                  |
|   \\  /    A nd           | Website:  www.openfoam.com                      |
|    \\/     M anipulation  |                                                 |
\*---------------------------------------------------------------------------*/
FoamFile
{
    version     2.0;
    format      ascii;
    class       volScalarField;
    location    "4000";
    object      p;
}
// * * * * * * * * * * * * * * * * * * * * * * * * * * * * * * * * * * * * * //

dimensions      [0 2 -2 0 0 0 0];


internalField   nonuniform List<scalar> 
80
(
1.71398e-16
1.36927e-15
3.88554e-16
1.37031e-15
5.96931e-16
1.31158e-15
9.24637e-16
1.33669e-15
1.35625e-15
1.54482e-15
2.10251e-15
2.12281e-15
3.26264e-15
3.27039e-15
5.32888e-15
5.46725e-15
8.64516e-15
8.64674e-15
1.74831e-14
1.74906e-14
1.17153e-15
1.30322e-15
1.19125e-15
1.3193e-15
1.2382e-15
1.35256e-15
1.37723e-15
1.46341e-15
1.71339e-15
1.74628e-15
2.3678e-15
2.36262e-15
3.47209e-15
3.47505e-15
5.36367e-15
5.41413e-15
8.55558e-15
8.72273e-15
1.69589e-14
1.71853e-14
2.44576e-14
2.44424e-14
2.55362e-14
2.55346e-14
2.60352e-14
2.59836e-14
2.63545e-14
2.6379e-14
2.64042e-14
2.64076e-14
2.64253e-14
2.64289e-14
2.64351e-14
2.64413e-14
2.64397e-14
2.64447e-14
2.64397e-14
2.64447e-14
2.64396e-14
2.64448e-14
2.47638e-14
2.46873e-14
2.55442e-14
2.57075e-14
2.62364e-14
2.61864e-14
2.6355e-14
2.63575e-14
2.64027e-14
2.64053e-14
2.64216e-14
2.64315e-14
2.64247e-14
2.64311e-14
2.6424e-14
2.64312e-14
2.64239e-14
2.64312e-14
2.6424e-14
2.6431e-14
)
;

boundaryField
{
    walls
    {
        type            zeroGradient;
    }
    inlet
    {
        type            cyclic;
    }
    outlet
    {
        type            cyclic;
    }
    sides
    {
        type            empty;
    }
}


// ************************************************************************* //
