/*--------------------------------*- C++ -*----------------------------------*\
| =========                 |                                                 |
| \\      /  F ield         | OpenFOAM: The Open Source CFD Toolbox           |
|  \\    /   O peration     | Version:  2012                                  |
|   \\  /    A nd           | Website:  www.openfoam.com                      |
|    \\/     M anipulation  |                                                 |
\*---------------------------------------------------------------------------*/
FoamFile
{
    version     2.0;
    format      ascii;
    class       volScalarField;
    location    "9000";
    object      p;
}
// * * * * * * * * * * * * * * * * * * * * * * * * * * * * * * * * * * * * * //

dimensions      [0 2 -2 0 0 0 0];


internalField   nonuniform List<scalar> 
80
(
-2.24676e-16
-8.39051e-16
-4.33572e-16
-8.78597e-16
-6.39141e-16
-9.45697e-16
-9.78245e-16
-1.13548e-15
-1.48363e-15
-1.51342e-15
-2.23413e-15
-2.2432e-15
-3.65843e-15
-3.68443e-15
-7.01109e-15
-6.88312e-15
-1.30565e-14
-1.32517e-14
-2.35185e-14
-2.33093e-14
-1.0593e-15
-1.13796e-15
-1.06457e-15
-1.14207e-15
-1.09194e-15
-1.16673e-15
-1.21964e-15
-1.27326e-15
-1.55475e-15
-1.5773e-15
-2.25741e-15
-2.26529e-15
-3.66268e-15
-3.68851e-15
-7.01435e-15
-6.88383e-15
-1.31984e-14
-1.32002e-14
-2.38885e-14
-2.35851e-14
-3.92268e-14
-3.92335e-14
-4.45082e-14
-4.44943e-14
-4.59802e-14
-4.59234e-14
-4.64112e-14
-4.64123e-14
-4.65858e-14
-4.65869e-14
-4.66456e-14
-4.66496e-14
-4.66494e-14
-4.66598e-14
-4.66525e-14
-4.66557e-14
-4.66531e-14
-4.66557e-14
-4.66533e-14
-4.66558e-14
-3.8981e-14
-3.9018e-14
-4.44513e-14
-4.42159e-14
-4.59153e-14
-4.57301e-14
-4.64247e-14
-4.64435e-14
-4.66194e-14
-4.66218e-14
-4.6662e-14
-4.66642e-14
-4.66672e-14
-4.66714e-14
-4.66707e-14
-4.66718e-14
-4.66705e-14
-4.66715e-14
-4.66703e-14
-4.66715e-14
)
;

boundaryField
{
    walls
    {
        type            zeroGradient;
    }
    inlet
    {
        type            cyclic;
    }
    outlet
    {
        type            cyclic;
    }
    sides
    {
        type            empty;
    }
}


// ************************************************************************* //
