/*--------------------------------*- C++ -*----------------------------------*\
| =========                 |                                                 |
| \\      /  F ield         | OpenFOAM: The Open Source CFD Toolbox           |
|  \\    /   O peration     | Version:  2012                                  |
|   \\  /    A nd           | Website:  www.openfoam.com                      |
|    \\/     M anipulation  |                                                 |
\*---------------------------------------------------------------------------*/
FoamFile
{
    version     2.0;
    format      ascii;
    class       volTensorField;
    location    "12000";
    object      grad(U);
}
// * * * * * * * * * * * * * * * * * * * * * * * * * * * * * * * * * * * * * //

dimensions      [0 0 -1 0 0 0 0];


internalField   nonuniform List<tensor> 
2560
(
(0 -9.11219e-18 -2.17989e-24 30.0512 0 1.04015e-05 0.043504 -2.11758e-22 2.78764e-09)
(0 0 0 30.0512 -0.000298946 3.69483e-06 0.043504 -1.1927e-06 -1.8588e-08)
(0 2.66551e-17 9.34646e-19 30.0458 -5.07997e-26 1.75315e-06 0.131128 0 5.14924e-09)
(-1.80242e-17 2.17356e-23 8.59459e-24 30.0458 7.40024e-21 -3.08237e-07 0.131128 7.83107e-08 -9.90144e-08)
(-5.50843e-18 -4.69784e-18 -4.66501e-24 30.0406 -7.105e-05 7.78346e-07 0.180319 1.00077e-07 4.12077e-09)
(0 0 -8.4714e-24 30.0406 2.30518e-06 -2.53271e-06 0.180319 6.86911e-09 -1.09365e-07)
(5.26841e-17 -8.94918e-19 2.15456e-23 30.0349 -1.48122e-05 7.02193e-07 0.182904 -1.33309e-08 4.37248e-09)
(-3.50224e-17 4.17499e-24 -1.67e-23 30.0349 -1.30416e-05 -3.40823e-07 0.182904 1.25942e-08 -1.13067e-07)
(6.90408e-17 -1.63704e-19 3.29212e-23 30.0286 -7.79624e-08 7.3121e-07 0.185523 -2.39122e-10 4.60007e-09)
(-6.90408e-17 1.23455e-23 -2.46909e-23 30.0286 1.74895e-06 -2.3064e-07 0.185523 -9.2989e-09 -1.169e-07)
(1.10547e-16 -1.03162e-23 2.14351e-23 30.0211 -7.8595e-07 7.46503e-07 0.188169 -9.61122e-09 4.69229e-09)
(3.39967e-16 1.31826e-23 -1.62247e-23 30.0211 4.78507e-06 -1.76953e-08 0.188169 4.48425e-09 -1.20554e-07)
(1.18936e-17 -5.48406e-24 -5.37347e-24 30.0117 -1.82638e-06 7.49434e-07 0.190837 -1.34802e-08 4.7721e-09)
(1.53653e-16 1.39931e-23 -7.99608e-24 30.0117 2.82657e-06 9.50848e-08 0.190837 8.2428e-09 -1.23982e-07)
(-2.0028e-16 1.31952e-23 -2.12799e-23 29.9998 -2.30766e-06 7.51737e-07 0.193527 -1.61036e-08 4.85948e-09)
(2.72204e-16 -6.89629e-24 7.88147e-24 29.9998 2.41237e-06 1.11548e-07 0.193527 9.3933e-09 -1.27502e-07)
(2.11437e-16 -1.16552e-23 1.34203e-23 29.9857 -2.87253e-06 7.54938e-07 0.196244 -2.12706e-08 4.9538e-09)
(0 1.65081e-23 -7.76851e-24 29.9857 2.50159e-06 1.45933e-07 0.196244 1.00964e-08 -1.31099e-07)
(0 2.01001e-23 -7.65717e-24 29.9706 -2.17164e-06 7.55754e-07 0.198995 -7.26558e-09 5.01267e-09)
(-1.28466e-16 -1.24429e-23 0 29.9706 3.42455e-06 2.11471e-07 0.198995 1.00135e-08 -1.34737e-07)
(-1.07761e-16 -3.06251e-24 3.18413e-23 29.9542 4.23325e-22 7.54425e-07 0.201772 -3.30872e-24 5.08101e-09)
(-1.26625e-16 4.96479e-23 -4.52845e-23 29.9542 6.7534e-06 3.6751e-07 0.201772 1.61951e-08 -1.38342e-07)
(2.46182e-16 -7.06728e-23 5.79727e-23 29.936 -3.20933e-05 7.85878e-07 0.204575 3.34907e-09 5.58952e-09)
(-1.2481e-16 6.69532e-23 -5.20747e-23 29.936 5.29226e-05 1.43504e-06 0.204575 4.56941e-08 -1.41675e-07)
(0 -1.17322e-22 1.46652e-23 29.9159 -9.65676e-05 1.00303e-06 0.207404 7.48995e-08 8.24186e-09)
(0 1.75983e-22 -1.46652e-23 29.9159 0.000120361 5.75172e-06 0.207404 5.52178e-08 -1.41968e-07)
(-1.49172e-16 -6.75194e-24 -1.64966e-23 29.8932 -1.50463e-36 1.77796e-06 0.210249 4.86528e-08 1.66584e-08)
(5.96687e-16 1.17549e-37 0 29.8932 -6.77912e-21 1.4575e-05 0.210249 0 -1.31338e-07)
(0 8.54873e-23 -1.42479e-23 29.8664 7.99959e-05 3.49391e-06 0.213097 1.82083e-07 8.01874e-09)
(0 -8.54873e-23 1.42479e-23 29.8664 -0.000123915 2.16768e-05 0.213097 2.33858e-07 -1.03514e-07)
(-1.77757e-16 0 0 29.8342 -7.17732e-05 5.99864e-06 0.21594 -8.34313e-08 -2.27428e-16)
(7.1103e-16 0 0 29.8342 -6.74068e-05 1.69407e-21 0.21594 -2.59728e-08 -7.35279e-08)
(-2.32237e-16 -1.00785e-18 2.76848e-23 29.7958 1.35639e-20 8.50134e-06 0.218775 5.29396e-23 -3.10348e-16)
(-5.37155e-16 -1.10739e-22 -7.95111e-19 29.7958 -2.38299e-05 -1.09202e-06 0.218775 -2.64253e-07 -9.13881e-08)
(0 -3.49495e-20 -2.7288e-23 29.7522 3.06131e-05 1.4479e-05 0.221615 -1.13278e-07 4.00699e-08)
(-8.28537e-16 -1.09152e-22 2.7288e-23 29.7522 3.31684e-05 -1.5358e-05 0.221615 -2.04597e-07 -1.34901e-07)
(4.51255e-16 -4.03453e-23 8.06906e-23 29.7059 2.5357e-05 2.69663e-05 0.224484 -9.40782e-08 1.11617e-07)
(-2.25627e-16 -2.1293e-18 -5.37938e-23 29.7059 1.40583e-05 -2.00491e-05 0.224484 -2.30445e-08 -1.93788e-07)
(1.48942e-17 7.29063e-23 -1.32557e-22 29.6589 -5.41779e-06 3.61933e-05 0.227386 -7.68305e-08 2.18462e-07)
(-7.26757e-16 0 2.12091e-22 29.6589 -7.93659e-36 -2.29454e-05 0.227386 -1.03968e-09 -2.99707e-07)
(-4.38412e-16 -2.38818e-34 -2.61314e-22 29.6105 4.60209e-21 3.86976e-05 0.230305 2.64698e-23 3.08331e-07)
(4.38412e-16 -1.30657e-22 2.61314e-22 29.6105 1.20735e-05 -2.51935e-05 0.230305 -4.75375e-08 -4.2233e-07)
(-2.68237e-16 -3.21961e-23 8.91082e-23 29.558 4.88998e-05 3.84918e-05 0.233218 -7.11789e-09 2.95169e-07)
(0 5.7953e-23 -2.06055e-22 29.558 5.35931e-05 -1.37796e-05 0.233218 7.8657e-08 -5.01029e-07)
(5.67852e-16 -1.52326e-22 6.49556e-22 29.4993 5.63829e-05 5.44529e-06 0.236112 2.67267e-07 2.16575e-08)
(0 2.53877e-22 -6.6008e-22 29.4993 6.09737e-05 5.79346e-06 0.236112 3.58556e-07 -5.11866e-07)
(0 1.00095e-22 0 29.4336 9.87187e-06 -1.52619e-20 0.238982 4.51052e-07 0)
(-1.20001e-15 -1.98877e-18 4.50429e-22 29.4336 -1.90056e-23 1.98301e-05 0.238982 0 -4.77468e-07)
(3.16191e-16 9.86607e-23 -3.59173e-22 29.3609 -5.26115e-05 -1.55097e-05 0.241828 3.55275e-07 1.02423e-07)
(0 -9.93026e-19 3.94643e-22 29.3609 -3.99272e-05 3.06937e-05 0.241828 1.63454e-07 -3.96803e-07)
(-6.65162e-16 2.18805e-22 -3.71548e-22 29.2807 -8.16415e-05 -1.83414e-05 0.244641 3.21875e-08 1.51908e-07)
(0 -2.18805e-22 3.40363e-22 29.2807 -7.60891e-05 3.48616e-05 0.244641 1.40938e-07 -2.85524e-07)
(1.44955e-15 -2.39632e-22 3.07674e-22 29.1923 -6.59202e-05 -1.56179e-05 0.247412 -3.08477e-07 1.52809e-07)
(2.79338e-15 2.39632e-22 -1.91706e-22 29.1923 -6.04997e-05 2.27064e-05 0.247412 -1.93712e-07 -1.73105e-07)
(0 -2.01443e-19 9.4479e-23 29.095 -2.42079e-05 -9.01114e-06 0.250131 -1.03489e-07 1.1012e-07)
(1.46385e-15 1.88958e-22 -1.88958e-22 29.095 -2.48824e-05 8.55174e-06 0.250131 -3.87091e-07 -1.21601e-07)
(-3.98239e-16 -2.01028e-19 1.17731e-23 28.988 -1.77877e-20 -8.37599e-07 0.25279 0 4.34889e-08)
(0 0 0 28.988 2.51699e-06 4.72981e-06 0.25279 -4.25071e-07 -9.51737e-08)
(-8.00258e-16 1.3048e-22 -8.21368e-24 28.8715 9.44774e-06 7.32204e-06 0.255393 -5.01209e-08 9.98981e-08)
(-3.20103e-15 0 0 28.8715 1.54596e-05 1.29209e-06 0.255393 -3.85137e-07 -9.44532e-08)
(-4.17496e-16 1.82483e-22 0 28.7466 2.16535e-05 1.43786e-05 0.257948 -1.16648e-07 1.55545e-07)
(-1.66998e-15 -4.52373e-23 0 28.7466 2.78196e-05 -1.68146e-06 0.257948 -3.10985e-07 -1.18536e-07)
(0 2.22945e-22 -1.78356e-22 28.6152 4.44464e-05 1.87183e-05 0.260476 -2.71129e-07 1.82017e-07)
(-1.74018e-15 -2.22945e-22 1.78356e-22 28.6152 5.07045e-05 -7.90242e-06 0.260476 -1.59316e-07 -1.62777e-07)
(7.37356e-16 -2.52712e-22 2.63699e-22 28.4792 6.84179e-05 1.80872e-05 0.262986 -3.26064e-08 1.50194e-07)
(1.07372e-15 2.52712e-22 -2.63699e-22 28.4792 7.48496e-05 -1.34808e-05 0.262986 1.25541e-07 -2.35627e-07)
(-4.70672e-16 0 -3.44303e-23 28.3393 7.25165e-05 1.08874e-05 0.265478 3.38132e-07 5.21171e-08)
(0 8.66399e-23 -8.66399e-23 28.3393 7.92792e-05 -6.55187e-06 0.265478 5.04474e-07 -3.03951e-07)
(-4.88753e-16 1.70796e-22 3.17383e-37 28.1945 4.78966e-05 -9.30666e-21 0.267931 6.63131e-07 0)
(0 -1.70796e-22 2.56194e-22 28.1945 5.46041e-05 1.23311e-05 0.267931 3.35817e-07 -3.12483e-07)
(-5.07014e-16 0 -1.91147e-22 28.0422 5.27761e-06 -1.90496e-05 0.270311 8.09629e-07 9.84619e-08)
(-2.02806e-15 -1.38062e-18 1.68348e-22 28.0422 1.5907e-21 2.3145e-05 0.270311 2.11758e-22 -2.29482e-07)
(1.22144e-15 0 1.65935e-22 27.879 -3.6446e-05 -3.53658e-05 0.272579 7.31578e-07 1.56304e-07)
(-6.95984e-16 0 -1.65935e-22 27.879 -2.25684e-05 2.2781e-05 0.272579 1.09866e-07 -1.05392e-07)
(5.44076e-16 -2.45336e-22 0 27.7015 -6.37563e-05 -8.81937e-06 0.274697 4.76286e-07 -4.78804e-09)
(0 2.45336e-22 0 27.7015 -5.63009e-05 2.50248e-05 0.274697 4.59954e-07 1.15771e-08)
(-5.62868e-16 1.61213e-22 0 27.507 -7.56867e-05 2.67526e-05 0.276637 1.24609e-07 -8.97466e-09)
(0 -1.61213e-22 0 27.507 -6.83008e-05 2.78746e-05 0.276637 3.36545e-07 1.23725e-08)
(0 2.38354e-22 0 27.2942 -7.48942e-05 2.73851e-05 0.278385 -2.59266e-07 -9.61205e-09)
(0 -2.97942e-22 0 27.2942 -6.71619e-05 2.7796e-05 0.278385 -3.72485e-08 1.32499e-08)
(-6.0092e-16 9.25095e-23 0 27.0639 -6.01528e-05 2.45066e-05 0.279954 -5.0884e-07 -1.02659e-08)
(1.74675e-15 0 0 27.0639 -5.23896e-05 2.4931e-05 0.279954 -3.78958e-07 1.41276e-08)
(0 -4.05508e-19 0 26.819 -2.24142e-05 1.96412e-05 0.281378 -1.17282e-07 -1.09825e-08)
(2.48059e-15 4.6314e-22 0 26.819 -2.2193e-05 2.00742e-05 0.281378 -6.10267e-07 1.50915e-08)
(1.25071e-18 -3.74111e-22 0 26.5646 4.73715e-20 1.41698e-05 0.282714 1.05879e-22 -1.168e-08)
(-1.91971e-15 -4.56502e-22 0 26.5646 1.62778e-05 1.46118e-05 0.282714 -6.44074e-07 1.60313e-08)
(6.58924e-16 -2.87269e-22 0 26.3063 3.58849e-05 9.53679e-06 0.284015 -2.89518e-07 -1.24438e-08)
(0 2.2498e-22 0 26.3063 4.42736e-05 9.99207e-06 0.284015 -4.72892e-07 1.70622e-08)
(-6.78451e-16 -1.10878e-22 0 26.048 4.66965e-05 6.68403e-06 0.285309 -4.81842e-07 -1.32281e-08)
(0 1.84796e-22 0 26.048 5.51131e-05 7.15328e-06 0.285309 -2.043e-07 1.80915e-08)
(6.98072e-16 1.98654e-22 0 25.7906 6.07232e-05 6.29884e-06 0.286584 -1.98482e-07 -1.4082e-08)
(2.79229e-15 -9.93272e-23 -2.91436e-22 25.7906 6.92039e-05 6.77773e-06 0.286584 9.11465e-08 1.92209e-08)
(1.20485e-15 -1.43629e-22 2.87259e-22 25.5311 4.66921e-05 8.52349e-06 0.287788 2.22983e-07 -1.49326e-08)
(2.87116e-15 3.97238e-22 0 25.5311 5.49891e-05 8.99823e-06 0.287788 3.26708e-07 2.03265e-08)
(-7.37613e-16 -3.27992e-19 0 25.2642 4.09703e-05 1.33512e-05 0.288844 3.54556e-07 -1.57909e-08)
(0 1.41571e-22 0 25.2642 6.35082e-05 1.38142e-05 0.288844 6.69085e-07 2.14573e-08)
(-7.5754e-16 -9.56668e-19 0 24.984 0.000175292 2.48814e-05 0.289682 8.8124e-07 -1.66054e-08)
(0 0 0 24.984 0.000224832 2.53498e-05 0.289682 1.20913e-06 2.25194e-08)
(1.15378e-15 0 0 24.6855 0.000463247 5.31495e-05 0.290242 2.89466e-06 -1.75211e-08)
(-1.15378e-15 0 0 24.6855 0.000472 5.36281e-05 0.290242 3.23572e-06 2.37087e-08)
(-1.93492e-15 -1.08456e-21 -2.71141e-22 24.3643 0.000696102 0.000110448 0.290455 6.36702e-06 -1.84357e-08)
(0 0 0 24.3643 0.000704713 0.000110911 0.290455 6.72137e-06 2.48551e-08)
(0 0 0 24.0131 0.000835619 0.00020698 0.290192 1.05147e-05 -1.93216e-08)
(-3.27145e-15 -5.12929e-22 -5.34509e-22 24.0131 0.000846834 0.000207455 0.290192 1.06773e-05 2.59852e-08)
(-1.94302e-15 -1.19873e-21 0 23.6186 0.000750664 0.000345413 0.289215 7.88163e-06 -2.03241e-08)
(3.35254e-15 5.01161e-21 0 23.6186 0.000757046 0.000345867 0.289215 7.87439e-06 2.72985e-08)
(0 0 0 23.1573 0.000260216 0.000512431 0.287128 2.8451e-06 -2.14149e-08)
(0 -2.35409e-17 0 23.1573 0 0.000512638 0.287128 0 2.84326e-08)
(-8.78938e-16 -2.32966e-21 0 22.5946 -0.000467309 0.000672821 0.283375 2.94997e-06 -2.18361e-08)
(3.51575e-15 1.04213e-20 0 22.5946 -0.000216675 0.000672676 0.283375 1.3678e-06 2.83454e-08)
(1.79889e-15 0 0 21.888 -0.00172171 0.000774311 0.277306 1.23024e-05 -2.15012e-08)
(3.59777e-15 0 0 21.888 -0.00171494 0.000773771 0.277306 1.27254e-05 2.75198e-08)
(1.04289e-15 -2.48644e-22 3.9783e-21 20.9957 -0.00264015 0.000761813 0.268317 -2.32713e-06 -2.02667e-08)
(0 0 0 20.9957 -0.00264142 0.000760491 0.268317 -1.91403e-06 2.5372e-08)
(8.76873e-17 0 0 19.8898 -0.00291678 0.000599268 0.256055 -2.20331e-05 -1.72633e-08)
(-1.02794e-15 0 0 19.8898 -0.00292206 0.00059644 0.256055 -2.16251e-05 2.02008e-08)
(-1.92033e-15 4.49566e-21 -1.72855e-18 18.57 -0.00232396 0.000207105 0.240614 -2.45904e-05 -1.0794e-08)
(3.84065e-15 -8.53883e-21 0 18.57 -0.00234448 0.000192164 0.240614 -2.502e-05 9.43454e-09)
(-9.7935e-16 -1.09629e-17 0 17.074 -0.000500437 1.50193e-25 0.222657 -3.39556e-06 4.1359e-25)
(0 0 0 17.074 -0.000580646 -7.6327e-06 0.222657 -3.93979e-06 -1.19598e-08)
(-9.97472e-16 -1.48464e-34 0 15.4783 1.07657e-18 -0.000544466 0.203404 -6.77626e-21 2.84448e-08)
(3.98989e-15 -2.92525e-20 0 15.4783 0.000291714 -0.000563241 0.203404 -2.00812e-06 -5.11251e-08)
(-1.98448e-15 -2.57611e-17 0 13.8886 0.0028366 -0.00086234 0.18445 -1.98106e-05 8.12876e-08)
(0 0 0 13.8886 0.00268096 -0.000897368 0.18445 -1.87237e-05 -1.17485e-07)
(-2.05874e-15 0 0 12.4217 0.00537617 -0.000928936 0.167483 -5.60255e-06 1.49708e-07)
(-4.11748e-15 0 0 12.4217 0.00486653 -0.00100143 0.167483 -6.85658e-06 -2.64181e-07)
(-2.08574e-15 1.50463e-36 0 11.1819 -2.10378e-21 -0.000997185 0.153945 3.38813e-21 2.5041e-07)
(8.34296e-15 1.84069e-15 0 11.1819 -0.00193656 -0.00105716 0.153945 1.3921e-05 -6.05249e-07)
(-3.16447e-15 2.01125e-20 -6.6111e-22 10.2423 0.0222128 -0.000402603 0.14478 -0.000161999 4.59203e-07)
(-4.2193e-15 9.99238e-20 2.89309e-17 10.2423 1.37512e-17 -5.41288e-20 0.14478 0 0)
(-1.06549e-15 4.10956e-16 -2.88747e-18 9.634 1.04083e-17 0.000346479 0.14032 5.42101e-20 -4.52737e-07)
(4.26196e-15 9.18098e-21 6.55047e-22 9.634 0.0264507 0.000693424 0.14032 0.000235276 7.87531e-07)
(1.07523e-15 -1.354e-15 0 9.34656 -0.00203007 0.000754646 0.140327 7.79487e-06 -4.31373e-07)
(0 -3.85186e-34 0 9.34656 3.46945e-18 0.00067728 0.140327 5.46634e-06 5.50092e-07)
(8.89758e-16 0 -1.69708e-21 9.33693 0.00111474 0.000368457 0.144135 1.23649e-05 -1.86793e-07)
(3.44798e-15 2.90411e-21 1.69708e-21 9.33693 0.00162465 0.000299735 0.144135 1.47134e-05 2.75044e-07)
(1.75401e-15 8.92003e-18 0 9.54347 -0.000142673 0.000209966 0.150867 1.10237e-06 -7.87711e-08)
(2.61999e-15 1.50114e-20 0 9.54347 -2.55004e-05 0.000175968 0.150867 1.97031e-07 1.3878e-07)
(-1.72887e-15 -3.29756e-21 -1.64878e-21 9.90003 -0.00131351 2.79327e-05 0.159619 1.50793e-05 -3.14098e-08)
(4.41102e-15 0 0 9.90003 -0.00123445 1.69407e-21 0.159619 1.52939e-05 -1.84386e-37)
(0 0 0 10.3465 -0.000857179 -0.000103488 0.169592 6.96466e-06 -2.89842e-09)
(0 0 0 10.3465 -0.000820677 -0.000113496 0.169592 7.31132e-06 1.20811e-08)
(-2.2455e-15 0 0 10.8344 -0.000534322 -0.000168635 0.180157 1.60619e-06 1.2742e-08)
(0 0 0 10.8344 -0.000518379 -0.000174005 0.180157 2.00655e-06 -1.18204e-08)
(0 -1.18417e-21 0 11.3286 -0.000279546 -0.000190436 0.190858 -1.57338e-06 2.10063e-08)
(4.53506e-15 1.18417e-21 0 11.3286 -0.000274074 -0.000193269 0.190858 -1.14705e-06 -2.48364e-08)
(0 -7.46451e-19 0 11.8049 -5.07793e-05 -0.000186309 0.201374 -4.21719e-07 2.52448e-08)
(4.58219e-15 0 -3.11253e-21 11.8049 -9.59191e-05 -0.000187753 0.201374 -2.50679e-06 -3.16803e-08)
(-1.15812e-15 0 0 12.2478 5.20933e-20 -0.000169871 0.211485 4.23516e-22 2.73088e-08)
(0 0 0 12.2478 -8.49865e-07 -0.000170552 0.211485 -2.72969e-06 -3.51607e-08)
(1.17147e-15 -3.35779e-22 0 12.6472 3.70634e-05 -0.000150103 0.221026 -5.03939e-07 2.80885e-08)
(0 0 0 12.6472 3.26591e-05 -0.000150361 0.221026 -2.49695e-06 -3.66645e-08)
(1.5627e-15 -3.72576e-22 1.49031e-21 12.9961 3.04879e-05 -0.000131352 0.229873 -7.6525e-07 2.81764e-08)
(-1.5627e-15 -1.76157e-19 0 12.9961 2.25518e-05 -0.000131385 0.229873 -2.13972e-06 -3.71147e-08)
(1.5403e-15 -3.67237e-22 7.34473e-22 13.2902 2.41974e-05 -0.00011459 0.237928 -2.8894e-07 2.78939e-08)
(0 0 0 13.2902 1.88586e-05 -0.00011451 0.237928 -2.02263e-06 -3.6972e-08)
(-9.13616e-16 8.19425e-23 7.23946e-22 13.5273 2.39913e-05 -9.94057e-05 0.245132 -5.64666e-07 2.74447e-08)
(0 0 0 13.5273 1.87044e-05 -9.92757e-05 0.245132 -1.76796e-06 -3.65672e-08)
(-1.23205e-15 2.42264e-22 0 13.7069 7.60152e-06 -8.55946e-05 0.251452 -2.8999e-07 2.69114e-08)
(0 -1.58885e-19 0 13.7069 2.5411e-20 -8.54541e-05 0.251452 -1.65031e-06 -3.60263e-08)
(1.24875e-15 -2.85921e-22 0 13.8306 1.40814e-21 -7.25668e-05 0.256891 -4.23516e-22 2.63977e-08)
(-6.47e-15 0 0 13.8306 4.94767e-06 -7.24512e-05 0.256891 -1.68445e-06 -3.55137e-08)
(1.45388e-15 0 3.46631e-22 13.9014 2.83329e-05 -5.97892e-05 0.261477 -3.69939e-07 2.59453e-08)
(-6.51762e-15 0 0 13.9014 2.50971e-05 -5.97411e-05 0.261477 -1.52147e-06 -3.51294e-08)
(-1.28355e-15 6.34322e-22 0 13.9236 3.0161e-05 -4.80102e-05 0.265262 -6.888e-07 2.57825e-08)
(1.02684e-14 -3.41663e-22 0 13.9236 3.27723e-05 -4.81238e-05 0.265262 -1.1964e-06 -3.5058e-08)
(1.30154e-15 3.93427e-22 0 13.9018 2.40147e-05 -3.80182e-05 0.268295 -4.50434e-07 2.57702e-08)
(5.20615e-15 -5.05149e-22 0 13.9018 0.000106907 -3.86464e-05 0.268295 -8.89427e-07 -3.60482e-08)
(0 -8.5819e-20 0 13.8403 4.84244e-05 -4.42573e-05 0.27062 -4.71374e-07 2.95229e-08)
(0 0 0 13.8403 3.67087e-38 -9.95633e-06 0.27062 -1.32349e-23 -3.91794e-08)
(-1.33838e-15 -4.70324e-22 -2.04489e-22 13.7424 8.31121e-05 -3.93084e-06 0.27226 1.45335e-07 -9.9064e-08)
(5.35353e-15 4.70324e-22 0 13.7424 -5.88459e-05 2.52689e-23 0.27226 -2.85938e-08 2.64698e-23)
(-1.35714e-15 3.87971e-19 0 13.6103 3.57226e-05 4.04214e-05 0.273215 -6.16249e-07 -1.03012e-08)
(-8.13383e-15 1.45076e-18 0 13.6103 1.53761e-05 1.4091e-05 0.273215 3.40613e-07 1.92612e-08)
(1.37607e-15 -1.58935e-22 0 13.445 8.71577e-06 3.7539e-05 0.273464 5.97447e-07 -1.54512e-08)
(5.50426e-15 5.55919e-22 0 13.445 2.00466e-05 3.78863e-05 0.273464 2.03775e-07 2.50487e-08)
(-1.39511e-15 8.31174e-23 0 13.2464 8.04681e-21 4.54215e-05 0.272967 5.98924e-07 -1.74019e-08)
(5.58044e-15 1.84768e-22 0 13.2464 1.58822e-06 4.53857e-05 0.272967 1.63792e-08 2.553e-08)
(-1.41423e-15 0 0 13.0142 -6.70159e-06 5.32914e-05 0.271684 6.52125e-07 -1.77963e-08)
(0 -2.60792e-22 0 13.0142 -1.36829e-20 5.31875e-05 0.271684 -1.05879e-22 2.55249e-08)
(-1.43337e-15 0 0 12.748 -2.42445e-05 6.00359e-05 0.26958 4.61168e-07 -1.77636e-08)
(0 1.52199e-22 0 12.748 -2.719e-05 5.98995e-05 0.26958 4.21186e-07 2.51257e-08)
(-1.45249e-15 -2.6253e-22 0 12.4484 -3.79538e-05 6.42361e-05 0.266642 1.17109e-07 -1.74687e-08)
(5.80995e-15 3.37539e-22 0 12.4484 -4.09953e-05 6.40863e-05 0.266642 3.84955e-07 2.45588e-08)
(1.47151e-15 -1.47867e-22 0 12.1171 -4.41324e-05 6.48756e-05 0.262895 -3.77026e-07 -1.70369e-08)
(0 1.47867e-22 0 12.1171 -4.70709e-05 6.47198e-05 0.262895 -1.17901e-07 2.39042e-08)
(1.22262e-15 0 0 11.7578 -4.22968e-05 6.15606e-05 0.258404 -8.67628e-07 -1.65309e-08)
(0 1.45748e-22 0 11.7578 -4.5138e-05 6.14046e-05 0.258404 -6.16742e-07 2.31934e-08)
(-1.50902e-15 6.0623e-23 0 11.3756 -4.02901e-05 5.42378e-05 0.253278 -8.98038e-07 -1.59939e-08)
(0 0 0 11.3756 -4.30185e-05 5.40839e-05 0.253278 -1.09179e-06 2.24754e-08)
(2.37565e-15 -4.83243e-21 0 10.9773 -2.5896e-05 4.34169e-05 0.247666 -2.9546e-07 -1.54408e-08)
(1.2219e-14 5.14376e-22 0 10.9773 -2.8882e-05 4.32666e-05 0.247666 -1.51133e-06 2.17423e-08)
(-2.3416e-15 -2.28744e-20 0 10.5711 -5.98033e-06 3.04122e-05 0.241751 -6.92248e-08 -1.48869e-08)
(6.1815e-15 -1.50648e-22 0 10.5711 -1.04328e-05 3.02649e-05 0.241751 -1.45158e-06 2.10257e-08)
(-1.56299e-15 -1.26013e-35 -1.10056e-21 10.1655 2.31468e-20 1.6588e-05 0.235728 0 -1.43297e-08)
(-6.25194e-15 2.10532e-22 0 10.1655 2.77842e-06 1.64451e-05 0.235728 -1.39462e-06 2.02906e-08)
(-1.58017e-15 -5.85281e-23 1.08479e-21 9.76885 2.18312e-05 3.33818e-06 0.229793 -3.1436e-07 -1.37873e-08)
(-8.59563e-15 1.62445e-22 -1.48231e-19 9.76885 1.95393e-05 -1.0875e-23 0.229793 -1.33975e-06 0)
(-2.24236e-15 0 1.26434e-20 9.38881 3.00129e-05 -7.52875e-06 0.224125 -7.29066e-07 -1.32541e-08)
(0 0 0 9.38881 2.78105e-05 -6.11372e-06 0.224125 -1.28327e-06 1.88866e-08)
(-2.21022e-15 0 0 9.03161 3.38014e-05 -1.69487e-05 0.218874 -7.2204e-07 -1.27385e-08)
(6.45272e-15 0 -1.05391e-21 9.03161 3.17084e-05 -1.70769e-05 0.218874 -9.37091e-07 1.82179e-08)
(-2.72806e-15 3.89553e-22 -1.03881e-21 8.70179 3.664e-05 -2.27683e-05 0.214157 -6.77488e-07 -1.2228e-08)
(2.17854e-15 -2.59702e-22 0 8.70179 3.46439e-05 -2.28919e-05 0.214157 -4.82623e-07 1.75375e-08)
(2.14732e-15 -4.47965e-22 0 8.40214 2.95464e-05 -2.55608e-05 0.210046 -2.42424e-07 -1.17359e-08)
(1.10083e-14 4.47965e-22 0 8.40214 2.76449e-05 -2.56801e-05 0.210046 -5.36958e-08 1.6897e-08)
(0 -6.30778e-23 1.00924e-21 8.13364 2.1752e-05 -2.59043e-05 0.206576 5.23457e-08 -1.12492e-08)
(1.32761e-14 1.26156e-22 0 8.13364 1.99438e-05 -2.60188e-05 0.206576 2.35099e-07 1.62426e-08)
(-3.34847e-15 0 0 7.89576 1.50172e-05 -2.44048e-05 0.203747 2.99986e-07 -1.07847e-08)
(0 0 0 7.89576 1.32895e-05 -2.45148e-05 0.203747 2.25085e-07 1.56348e-08)
(-1.68868e-15 0 0 7.68679 6.38821e-06 -2.17655e-05 0.201529 4.27894e-07 -1.033e-08)
(1.35094e-14 6.39604e-22 0 7.68679 1.74855e-06 -2.18713e-05 0.201529 2.30484e-08 1.50126e-08)
(1.70289e-15 0 0 7.50406 2.11387e-06 -1.86099e-05 0.19987 4.5426e-07 -9.89009e-09)
(0 0 0 7.50406 4.83319e-07 -1.87123e-05 0.19987 6.46349e-09 1.44328e-08)
(-1.71693e-15 0 0 7.34434 -1.07377e-06 -1.53136e-05 0.198701 4.71722e-07 -9.45048e-09)
(0 0 0 7.34434 0 -1.54119e-05 0.198701 1.05879e-22 1.38318e-08)
(-1.73082e-15 0 0 7.20396 -1.41387e-06 -1.21113e-05 0.197939 4.1266e-07 -9.03421e-09)
(6.92328e-15 2.34213e-22 0 7.20396 -3.71225e-06 -1.22056e-05 0.197939 1.46003e-07 1.32822e-08)
(-3.68554e-15 -5.51303e-23 0 7.07895 4.32615e-36 -8.90056e-06 0.197488 3.97256e-07 -8.62618e-09)
(6.97846e-15 2.14015e-22 0 7.07895 -5.53563e-07 -8.9908e-06 0.197488 5.77539e-08 1.27118e-08)
(-3.51671e-15 0 0 6.96514 1.63986e-06 -5.45405e-06 0.197241 4.23922e-07 -8.23754e-09)
(0 0 0 6.96514 1.05082e-22 -5.54092e-06 0.197241 1.05879e-22 1.21937e-08)
(-3.65775e-15 0 0 6.85814 1.05243e-06 -1.74226e-06 0.197076 4.33093e-07 -7.8497e-09)
(0 0 -4.49583e-22 6.85814 -1.49812e-07 -1.82577e-06 0.197076 7.11397e-09 1.16486e-08)
(1.85866e-15 -6.80592e-20 4.43139e-22 6.75337 2.18615e-06 2.4975e-06 0.196863 4.44344e-07 -7.47977e-09)
(-9.00173e-15 -1.70418e-22 0 6.75337 4.62899e-06 2.41781e-06 0.196863 2.73464e-07 1.11559e-08)
(3.6315e-15 0 0 6.64616 4.36157e-06 7.49316e-06 0.196458 5.92893e-07 -7.1223e-09)
(5.36591e-15 0 0 6.64616 0 7.41761e-06 0.196458 1.05879e-22 1.06463e-08)
(1.81322e-15 0 0 6.53182 -3.46246e-06 1.27259e-05 0.195715 5.63142e-07 -6.78682e-09)
(-7.25288e-15 -3.37572e-22 0 6.53182 -4.49388e-06 1.26533e-05 0.195715 8.24292e-08 1.01918e-08)
(-1.82697e-15 -2.89658e-20 0 6.4059 0 1.78449e-05 0.194488 4.80013e-07 -6.45247e-09)
(7.30788e-15 2.30446e-22 0 6.4059 -2.55795e-06 1.77751e-05 0.194488 1.88152e-07 9.70623e-09)
(0 0 0 6.2645 -1.38648e-06 2.29705e-05 0.192645 5.07566e-07 -6.13026e-09)
(0 1.63394e-36 0 6.2645 -6.15261e-21 2.29034e-05 0.192645 1.05879e-22 9.27366e-09)
(-1.72923e-15 -1.0307e-22 -8.2456e-22 6.10446 -3.61622e-06 2.79698e-05 0.190078 4.29036e-07 -5.81497e-09)
(7.41778e-15 2.03635e-22 -8.2456e-22 6.10446 -4.48216e-06 2.79061e-05 0.190078 1.77571e-07 8.81316e-09)
(1.8681e-15 -5.72128e-21 0 5.92379 3.36166e-21 3.29091e-05 0.186712 3.87447e-07 -5.52041e-09)
(0 0 0 5.92379 -1.04345e-06 3.28483e-05 0.186712 1.02916e-07 8.41086e-09)
(0 0 0 5.72187 2.5285e-06 3.81812e-05 0.18252 4.15801e-07 -5.22925e-09)
(-7.52655e-15 -3.48812e-22 0 5.72187 1.7538e-06 3.81232e-05 0.18252 7.59034e-08 7.97913e-09)
(-3.31187e-15 -6.78091e-21 -1.57922e-21 5.4996 6.12596e-06 4.42754e-05 0.177523 4.62971e-07 -4.95219e-09)
(0 0 0 5.4996 6.18432e-06 4.42198e-05 0.177523 3.30847e-07 7.60302e-09)
(0 0 0 5.25944 1.1802e-05 5.18595e-05 0.171798 4.78786e-07 -4.68216e-09)
(0 0 0 5.25944 1.11122e-05 5.18068e-05 0.171798 4.07845e-07 7.19697e-09)
(1.92091e-15 4.75375e-23 0 5.00533 1.39032e-05 6.14931e-05 0.165474 5.07261e-07 -4.42773e-09)
(0 0 0 5.00533 1.32519e-05 6.14429e-05 0.165474 4.85784e-07 6.84819e-09)
(1.93333e-15 6.9799e-23 0 4.74239 1.61567e-05 7.35922e-05 0.158722 5.98052e-07 -4.17893e-09)
(0 -1.89036e-22 0 4.74239 1.55425e-05 7.35445e-05 0.158722 5.77542e-07 6.46908e-09)
(-3.89062e-15 -2.72957e-22 0 4.47649 1.24081e-05 8.81838e-05 0.151743 4.14389e-07 -3.94517e-09)
(7.78124e-15 6.93506e-22 0 4.47649 1.18265e-05 8.81381e-05 0.151743 2.40378e-07 6.14671e-09)
(-1.95681e-15 -1.56985e-22 0 4.21382 6.54713e-06 0.00010471 0.144751 3.9456e-07 -3.71482e-09)
(0 0 0 4.21382 6.0018e-06 0.000104667 0.144751 1.81571e-07 5.78971e-09)
(0 0 0 3.96026 -1.6385e-06 0.00012224 0.137954 3.76021e-07 -3.49112e-09)
(0 0 0 3.96026 -1.35525e-20 0.000122198 0.137954 -2.11758e-22 5.48575e-09)
(0 0 0 3.72099 -1.66629e-05 0.000139083 0.131533 3.58267e-07 -3.2787e-09)
(0 0 0 3.72099 -1.71457e-05 0.000139044 0.131533 3.3861e-07 5.15192e-09)
(-2.95064e-15 -1.75872e-22 -2.81395e-21 3.49996 -2.8918e-05 0.000153118 0.125634 8.90244e-07 -3.07961e-09)
(-2.95064e-15 0 0 3.49996 -2.93748e-05 0.000153081 0.125634 9.07461e-07 4.87638e-09)
(-2.90835e-15 0 0 3.29976 -4.15727e-05 0.000162235 0.120351 3.94981e-07 -2.88545e-09)
(1.59812e-14 0 0 3.29976 -4.19996e-05 0.000162201 0.120351 4.73522e-07 4.56818e-09)
(-4.0133e-15 0 0 3.1214 -5.50913e-05 0.000164081 0.115725 -5.39649e-07 -2.70013e-09)
(8.0266e-15 0 0 3.1214 -5.5491e-05 0.000164048 0.115725 -4.63428e-07 4.31357e-09)
(4.84081e-15 0 0 2.96444 -6.19736e-05 0.000156593 0.111743 -1.69261e-06 -2.52255e-09)
(0 0 0 2.96444 -6.23503e-05 0.000156561 0.111743 -1.61862e-06 4.02688e-09)
(0 0 0 2.82719 -6.01105e-05 0.000138802 0.108351 -2.22505e-06 -2.3513e-09)
(-8.09382e-15 3.38793e-22 0 2.82719 -6.04608e-05 0.000138772 0.108351 -2.23817e-06 3.79464e-09)
(-2.03138e-15 2.97585e-22 0 2.7071 -5.21175e-05 0.000110897 0.105461 -1.88928e-06 -2.19137e-09)
(5.38034e-15 -1.14412e-21 0 2.7071 -5.24532e-05 0.00011087 0.105461 -1.90268e-06 3.5297e-09)
(0 0 0 2.60106 -3.85542e-05 7.40806e-05 0.102966 -1.19539e-06 -2.03011e-09)
(0 0 0 2.60106 -3.8863e-05 7.40538e-05 0.102966 -1.20672e-06 3.32198e-09)
(2.66704e-15 -8.01914e-20 2.04519e-19 2.50582 -1.18864e-05 1.57661e-05 0.100751 -2.41603e-07 -1.87366e-09)
(0 0 0 2.50582 -1.24605e-05 1.57347e-05 0.100751 -2.53271e-07 3.07243e-09)
(-2.05377e-15 2.18172e-35 0 2.41837 7.82827e-20 -8.17082e-07 0.0987157 2.19504e-37 -1.73193e-09)
(0 0 -5.55274e-39 2.41837 6.48042e-06 -2.00058e-23 0.0987157 -2.30811e-07 4.1359e-25)
(-1.53063e-15 6.28256e-22 4.9422e-21 2.33617 3.04611e-05 -6.08708e-05 0.0967737 -8.06576e-07 -1.58589e-09)
(1.64871e-14 -4.92718e-21 0 2.33617 3.0215e-05 -6.0893e-05 0.0967737 -7.95385e-07 2.62254e-09)
(0 0 0 2.25732 4.97552e-05 -0.000101186 0.0948644 -1.74938e-06 -1.44445e-09)
(0 0 0 2.25732 4.95202e-05 -0.000101206 0.0948644 -1.73999e-06 2.44863e-09)
(-2.51739e-15 6.00193e-22 -4.80155e-21 2.18062 6.20997e-05 -0.000133346 0.0929538 -2.48023e-06 -1.31872e-09)
(0 0 0 2.18062 6.18741e-05 -0.000133365 0.0929538 -2.46965e-06 2.23677e-09)
(-6.24429e-15 0 0 2.10554 6.66289e-05 -0.000155265 0.0910342 -1.74555e-06 -1.18755e-09)
(1.66514e-14 0 0 2.10554 6.64257e-05 -0.000155283 0.0910342 -1.68707e-06 2.07196e-09)
(2.44575e-15 -7.2889e-23 0 2.03213 6.31223e-05 -0.000166172 0.0891213 -2.69778e-07 -1.06544e-09)
(1.42583e-14 7.2889e-23 0 2.03213 6.29298e-05 -0.000166189 0.0891213 -2.12573e-07 1.87276e-09)
(-2.09445e-15 0 0 1.96091 5.30648e-05 -0.000166621 0.0872479 1.05164e-06 -9.38887e-10)
(0 0 0 1.96091 5.2887e-05 -0.000166637 0.0872479 1.10774e-06 1.71795e-09)
(2.10076e-15 7.87124e-23 0 1.89267 4.03151e-05 -0.000158109 0.0854587 1.54808e-06 -8.19453e-10)
(1.68061e-14 6.99027e-22 0 1.89267 4.01491e-05 -0.000158124 0.0854587 1.54079e-06 1.52649e-09)
(0 0 0 1.82832 2.39937e-05 -0.000142874 0.0838027 6.66999e-07 -6.94312e-10)
(8.42767e-15 1.26769e-21 0 1.82832 2.38384e-05 -0.000142888 0.0838027 6.59914e-07 1.38432e-09)
(2.11294e-15 4.0903e-20 0 1.76874 6.4524e-06 -0.000123588 0.0823253 1.51519e-07 -5.75432e-10)
(0 0 0 1.76874 6.09906e-06 -0.000123601 0.0823253 1.43222e-07 1.20836e-09)
(4.23765e-15 8.74526e-22 0 1.71465 -2.61985e-06 -0.000102655 0.0810653 1.47883e-07 -4.55539e-10)
(8.4753e-15 1.82222e-21 0 1.71465 -2.75448e-06 -0.000102667 0.0810653 6.87805e-08 1.04513e-09)
(0 0 0 1.66652 -1.16215e-05 -8.20473e-05 0.0800497 4.03446e-07 -3.32525e-10)
(0 0 -1.06946e-21 1.66652 -1.17477e-05 -8.20586e-05 0.0800497 4.09705e-07 8.73061e-10)
(2.21067e-15 0 0 1.62452 -1.67469e-05 -6.32557e-05 0.0792906 7.22447e-07 -2.0469e-10)
(8.521e-15 1.14365e-21 0 1.62452 -1.68663e-05 -6.32666e-05 0.0792906 7.2839e-07 7.34879e-10)
(6.45063e-15 3.75945e-22 0 1.58851 -1.86364e-05 -4.71509e-05 0.0787849 9.21662e-07 -7.43563e-11)
(-2.17899e-15 0 0 1.58851 -1.87479e-05 -4.71609e-05 0.0787849 9.27428e-07 5.62685e-10)
(4.28909e-15 1.21832e-22 0 1.55805 -1.78931e-05 -3.40492e-05 0.078516 9.33006e-07 4.12052e-11)
(6.41755e-15 5.12658e-22 0 1.55805 -1.79974e-05 -3.40589e-05 0.078516 9.38333e-07 4.10982e-10)
(2.11698e-15 0 0 1.53248 -1.60349e-05 -2.38871e-05 0.0784541 8.73067e-07 1.9104e-10)
(6.47016e-15 3.03263e-22 0 1.53248 -1.61338e-05 -2.38962e-05 0.0784541 8.78269e-07 2.73758e-10)
(-2.15221e-15 -3.1113e-23 0 1.51091 -1.29776e-05 -1.63366e-05 0.0785588 7.68624e-07 2.26886e-10)
(-8.60885e-15 -1.49692e-22 0 1.51091 -1.30721e-05 -1.63457e-05 0.0785588 7.73554e-07 1.01304e-10)
(-6.27109e-15 -1.39167e-22 -1.22591e-22 1.49237 -1.01266e-05 -1.09305e-05 0.078783 5.78626e-07 4.44227e-10)
(0 0 0 1.49237 -1.02162e-05 -1.09389e-05 0.078783 5.83514e-07 1.16736e-10)
(-2.16306e-15 0 0 1.4758 -7.62508e-06 -7.21786e-06 0.0790754 4.67715e-07 1.00633e-10)
(-8.65223e-15 -1.29765e-23 0 1.4758 -7.71033e-06 -7.22631e-06 0.0790754 4.92924e-07 -1.29492e-10)
(1.99819e-15 0 0 1.46018 -5.21835e-06 -4.75941e-06 0.079383 2.77694e-07 6.81147e-10)
(0 0 0 1.46018 -5.30071e-06 -4.76748e-06 0.079383 3.30624e-07 5.48372e-10)
(0 0 2.93486e-23 1.4445 -3.55341e-06 -3.06869e-06 0.0796533 2.20213e-07 -1.48626e-09)
(1.73918e-14 0 0 1.4445 -3.63331e-06 -1.89187e-06 0.0796533 2.57276e-07 -9.33136e-11)
(-4.1208e-15 0 0 1.42787 -1.85474e-06 -1.16535e-06 0.0798371 2.23058e-08 3.07817e-09)
(1.06592e-14 0 0 1.42787 -1.92698e-06 0 0.0798371 8.86855e-08 6.61744e-24)
(-1.9135e-15 7.12835e-24 0 1.4095 -2.63666e-06 3.58014e-07 0.0798891 2.56237e-07 1.74427e-08)
(-8.74003e-15 -1.42567e-23 -5.51711e-23 1.4095 -2.70556e-06 -1.84341e-07 0.0798891 2.34528e-07 1.15699e-08)
(-1.88608e-15 4.21571e-23 0 1.38873 -7.00232e-07 7.38931e-07 0.0797711 -2.05856e-07 4.62873e-08)