/*--------------------------------*- C++ -*----------------------------------*\
| =========                 |                                                 |
| \\      /  F ield         | OpenFOAM: The Open Source CFD Toolbox           |
|  \\    /   O peration     | Version:  2012                                  |
|   \\  /    A nd           | Website:  www.openfoam.com                      |
|    \\/     M anipulation  |                                                 |
\*---------------------------------------------------------------------------*/
FoamFile
{
    version     2.0;
    format      ascii;
    class       volScalarField;
    location    "12000";
    object      nut;
}
// * * * * * * * * * * * * * * * * * * * * * * * * * * * * * * * * * * * * * //

dimensions      [0 2 -1 0 0 0 0];


internalField   nonuniform List<scalar> 
2560
(
1.01047e-13
1.01047e-13
1.0153e-13
1.0153e-13
4.21051e-13
4.21051e-13
2.77317e-12
2.77317e-12
1.25648e-11
1.25648e-11
4.22013e-11
4.22013e-11
1.1543e-10
1.1543e-10
2.72834e-10
2.72834e-10
5.78616e-10
5.78616e-10
1.12886e-09
1.12886e-09
2.06144e-09
2.06144e-09
3.56786e-09
3.56786e-09
5.90709e-09
5.90709e-09
9.42193e-09
9.42193e-09
1.45578e-08
1.45578e-08
2.18844e-08
2.18844e-08
3.21207e-08
3.21207e-08
4.6163e-08
4.6163e-08
6.51168e-08
6.51168e-08
9.03317e-08
9.03317e-08
1.23441e-07
1.23441e-07
1.66405e-07
1.66405e-07
2.21557e-07
2.21557e-07
2.91652e-07
2.91652e-07
3.79921e-07
3.79921e-07
4.90127e-07
4.90127e-07
6.26619e-07
6.26619e-07
7.94386e-07
7.94386e-07
9.99118e-07
9.99117e-07
1.24725e-06
1.24725e-06
1.54601e-06
1.54601e-06
1.90345e-06
1.90345e-06
2.32849e-06
2.32849e-06
2.8309e-06
2.8309e-06
3.42132e-06
3.42132e-06
4.11122e-06
4.11122e-06
4.91285e-06
4.91285e-06
5.8392e-06
5.8392e-06
6.90387e-06
6.90387e-06
8.12096e-06
8.12096e-06
9.50496e-06
9.50496e-06
1.10706e-05
1.10706e-05
1.28326e-05
1.28326e-05
1.48056e-05
1.48056e-05
1.70039e-05
1.70039e-05
1.94413e-05
1.94413e-05
2.21309e-05
2.21309e-05
2.5085e-05
2.5085e-05
2.83151e-05
2.83151e-05
3.18317e-05
3.18317e-05
3.56447e-05
3.56447e-05
3.9763e-05
3.9763e-05
4.41952e-05
4.41952e-05
4.89497e-05
4.89497e-05
5.4035e-05
5.4035e-05
5.94608e-05
5.94608e-05
6.52388e-05
6.52388e-05
7.13836e-05
7.13836e-05
7.79136e-05
7.79136e-05
8.48513e-05
8.48513e-05
9.22222e-05
9.22222e-05
0.000100053
0.000100053
0.000108368
0.000108368
0.000117185
0.000117185
0.000126518
0.000126518
0.000136367
0.000136367
0.000146723
0.000146723
0.000157568
0.000157568
0.000168873
0.000168873
0.000180602
0.000180602
0.000192711
0.000192711
0.000205152
0.000205152
0.000217873
0.000217873
0.000230819
0.000230819
0.000243937
0.000243937
0.000257172
0.000257172
0.000270472
0.000270472
0.000283788
0.000283788
0.000297075
0.000297075
0.000310288
0.000310288
0.000323391
0.000323391
0.000336349
0.000336349
0.000349133
0.000349133
0.000361717
0.000361717
0.000374079
0.000374079
0.0003862
0.0003862
0.000398064
0.000398064
0.000409661
0.000409661
0.00042098
0.00042098
0.000432016
0.000432016
0.000442768
0.000442768
0.000453237
0.000453237
0.000463431
0.000463431
0.000473361
0.000473361
0.000483043
0.000483043
0.000492498
0.000492498
0.000501748
0.000501748
0.000510821
0.000510821
0.000519742
0.000519742
0.000528541
0.000528541
0.000537242
0.000537242
0.000545871
0.000545871
0.000554446
0.000554446
0.000562987
0.000562987
0.000571504
0.000571504
0.000580007
0.000580007
0.000588499
0.000588499
0.00059698
0.00059698
0.000605445
0.000605445
0.000613886
0.000613886
0.00062229
0.00062229
0.000630643
0.000630643
0.000638928
0.000638928
0.000647128
0.000647128
0.000655225
0.000655225
0.000663201
0.000663201
0.000671045
0.000671045
0.000678746
0.000678746
0.000686302
0.000686302
0.000693717
0.000693717
0.000701003
0.000701003
0.000708181
0.000708181
0.000715283
0.000715283
0.000722345
0.000722345
0.000729413
0.000729413
0.000736538
0.000736538
0.000743773
0.000743773
0.000751174
0.000751174
0.000758795
0.000758794
0.000766688
0.000766688
0.000774904
0.000774904
0.000783488
0.000783488
0.000792484
0.000792484
0.000801929
0.000801929
0.000811859
0.000811859
0.000822306
0.000822306
0.000833301
0.000833301
0.000844874
0.000844874
0.000857054
0.000857054
0.00086987
0.00086987
0.000883353
0.000883353
0.000897532
0.000897532
0.000912439
0.000912439
0.000928104
0.000928104
0.000944559
0.000944559
0.000961831
0.000961831
0.000979949
0.000979949
0.000998938
0.000998938
0.00101882
0.00101882
0.00103961
0.00103961
0.00106133
0.00106133
0.00108399
0.00108399
0.00110759
0.00110759
0.00113215
0.00113215
0.00115765
0.00115765
0.00118411
0.00118411
0.00121151
0.00121151
0.00123986
0.00123986
0.00126915
0.00126915
0.00129937
0.00129937
0.00133053
0.00133053
0.00136263
0.00136263
0.00139567
0.00139567
0.00142965
0.00142965
0.00146458
0.00146458
0.00150048
0.00150048
0.00153735
0.00153735
0.00157521
0.00157521
0.00161408
0.00161408
0.00165396
0.00165396
0.00169487
0.00169487
0.00173682
0.00173682
0.00177979
0.00177979
0.00182378
0.00182378
0.00186877
0.00186877
0.00191472
0.00191472
0.0019616
0.0019616
0.00200934
0.00200934
0.00205787
0.00205787
0.0021071
0.0021071
0.00215692
0.00215692
0.00220719
0.00220719
0.00225779
0.00225779
0.00230855
0.00230855
0.00235931
0.00235931
0.00240988
0.00240988
0.0024601
0.0024601
0.00250978
0.00250978
0.00255876
0.00255876
0.00260689
0.00260689
0.00265403
0.00265403
0.00270008
0.00270008
0.00274496
0.00274496
0.0027886
0.0027886
0.00283099
0.00283099
0.00287212
0.00287212
0.00291201
0.00291201
0.0029507
0.0029507
0.00298827
0.00298827
0.00302479
0.00302479
0.00306035
0.00306035
0.00309504
0.00309504
0.00312898
0.00312898
0.00316229
0.00316229
0.00319506
0.00319506
0.00322744
0.00322744
0.00325952
0.00325952
0.00329145
0.00329145
0.00332335
0.00332335
0.00335535
0.00335535
0.00338758
0.00338758
0.0034202
0.0034202
0.00345335
0.00345335
0.00348718
0.00348718
0.00352186
0.00352186
0.00355754
0.00355754
0.00359439
0.00359439
0.00363255
0.00363255
0.00367216
0.00367216
0.00371337
0.00371337
0.00375626
0.00375626
0.00380094
0.00380094
0.00384745
0.00384745
0.00389583
0.00389583
0.00394607
0.00394607
0.00399812
0.00399812
0.0040519
0.0040519
0.00410727
0.00410727
0.00416407
0.00416407
0.00422206
0.00422206
0.004281
0.004281
0.0043406
0.0043406
0.00440054
0.00440054
0.00446052
0.00446052
0.00452023
0.00452023
0.00457942
0.00457942
0.00463786
0.00463786
0.0046954
0.0046954
0.00475194
0.00475194
0.00480745
0.00480745
0.00486197
0.00486197
0.00491556
0.00491556
0.00496835
0.00496835
0.00502047
0.00502047
0.00507207
0.00507207
0.00512327
0.00512327
0.0051742
0.0051742
0.00522495
0.00522495
0.00527559
0.00527559
0.00532616
0.00532616
0.00537665
0.00537665
0.00542705
0.00542705
0.00547731
0.00547731
0.00552734
0.00552734
0.00557708
0.00557708
0.00562641
0.00562641
0.00567524
0.00567524
0.00572346
0.00572346
0.00577096
0.00577096
0.00581766
0.00581766
0.00586347
0.00586347
0.00590832
0.00590832
0.00595217
0.00595217
0.00599498
0.00599498
0.00603675
0.00603675
0.00607748
0.00607748
0.00611721
0.00611721
0.00615599
0.00615599
0.00619388
0.00619388
0.00623096
0.00623096
0.00626729
0.00626729
0.00630295
0.00630295
0.00633801
0.00633801
0.00637254
0.00637254
0.00640658
0.00640658
0.00644018
0.00644018
0.00647338
0.00647338
0.00650621
0.00650621
0.00653871
0.00653871
0.00657093
0.00657093
0.00660291
0.00660291
0.00663473
0.00663473
0.00666645
0.00666645
0.00669815
0.00669815
0.0067299
0.0067299
0.00676179
0.00676179
0.00679388
0.00679388
0.0068262
0.0068262
0.00685877
0.00685877
0.00689159
0.00689159
0.00692461
0.00692461
0.00695776
0.00695776
0.00699094
0.00699094
0.00702401
0.00702401
0.00705684
0.00705684
0.00708926
0.00708926
0.00712112
0.00712112
0.00715229
0.00715229
0.00718264
0.00718264
0.00721211
0.00721211
0.00724065
0.00724065
0.00726828
0.00726828
0.00729508
0.00729508
0.00732114
0.00732114
0.0073466
0.0073466
0.00737161
0.00737161
0.00739634
0.00739634
0.00742091
0.00742091
0.00744539
0.00744539
0.00746979
0.00746979
0.00749399
0.00749399
0.00751779
0.00751779
0.00754078
0.00754078
0.00756243
0.00756243
0.007582
0.007582
0.00759861
0.00759861
0.0076113
0.0076113
0.00761914
0.00761914
0.00762152
0.00762152
0.00761658
0.00761658
1.01047e-13
1.01047e-13
1.0153e-13
1.0153e-13
4.21051e-13
4.21051e-13
2.77317e-12
2.77317e-12
1.25648e-11
1.25648e-11
4.22013e-11
4.22013e-11
1.1543e-10
1.1543e-10
2.72834e-10
2.72834e-10
5.78616e-10
5.78616e-10
1.12886e-09
1.12886e-09
2.06144e-09
2.06144e-09
3.56786e-09
3.56786e-09
5.90709e-09
5.90709e-09
9.42193e-09
9.42193e-09
1.45578e-08
1.45578e-08
2.18844e-08
2.18844e-08
3.21207e-08
3.21207e-08
4.6163e-08
4.6163e-08
6.51168e-08
6.51168e-08
9.03317e-08
9.03317e-08
1.23441e-07
1.23441e-07
1.66405e-07
1.66405e-07
2.21557e-07
2.21557e-07
2.91651e-07
2.91651e-07
3.79921e-07
3.79921e-07
4.90127e-07
4.90127e-07
6.26619e-07
6.26619e-07
7.94386e-07
7.94386e-07
9.99117e-07
9.99117e-07
1.24725e-06
1.24725e-06
1.54601e-06
1.54601e-06
1.90345e-06
1.90345e-06
2.32849e-06
2.32849e-06
2.8309e-06
2.8309e-06
3.42132e-06
3.42132e-06
4.11122e-06
4.11122e-06
4.91285e-06
4.91285e-06
5.8392e-06
5.8392e-06
6.90387e-06
6.90387e-06
8.12096e-06
8.12096e-06
9.50496e-06
9.50496e-06
1.10706e-05
1.10706e-05
1.28326e-05
1.28326e-05
1.48056e-05
1.48056e-05
1.70039e-05
1.70039e-05
1.94413e-05
1.94413e-05
2.21309e-05
2.21309e-05
2.5085e-05
2.5085e-05
2.83151e-05
2.83151e-05
3.18317e-05
3.18317e-05
3.56447e-05
3.56447e-05
3.9763e-05
3.9763e-05
4.41952e-05
4.41952e-05
4.89497e-05
4.89497e-05
5.4035e-05
5.4035e-05
5.94608e-05
5.94608e-05
6.52388e-05
6.52388e-05
7.13835e-05
7.13835e-05
7.79136e-05
7.79136e-05
8.48513e-05
8.48513e-05
9.22222e-05
9.22222e-05
0.000100053
0.000100053
0.000108367
0.000108367
0.000117185
0.000117185
0.000126518
0.000126518
0.000136367
0.000136367
0.000146723
0.000146723
0.000157568
0.000157568
0.000168873
0.000168873
0.000180602
0.000180602
0.000192711
0.000192711
0.000205152
0.000205152
0.000217873
0.000217873
0.000230819
0.000230819
0.000243937
0.000243937
0.000257172
0.000257172
0.000270472
0.000270472
0.000283788
0.000283788
0.000297075
0.000297075
0.000310288
0.000310288
0.000323391
0.000323391
0.000336349
0.000336349
0.000349133
0.000349133
0.000361717
0.000361717
0.000374079
0.000374079
0.0003862
0.0003862
0.000398064
0.000398064
0.000409661
0.000409661
0.00042098
0.00042098
0.000432016
0.000432016
0.000442768
0.000442768
0.000453237
0.000453237
0.000463431
0.000463431
0.000473361
0.000473361
0.000483043
0.000483043
0.000492497
0.000492497
0.000501748
0.000501748
0.000510821
0.000510821
0.000519742
0.000519742
0.000528541
0.000528541
0.000537242
0.000537242
0.000545871
0.000545871
0.000554446
0.000554446
0.000562987
0.000562987
0.000571504
0.000571504
0.000580007
0.000580007
0.000588499
0.000588499
0.00059698
0.00059698
0.000605445
0.000605445
0.000613886
0.000613886
0.00062229
0.00062229
0.000630643
0.000630643
0.000638928
0.000638928
0.000647128
0.000647128
0.000655224
0.000655224
0.000663201
0.000663201
0.000671045
0.000671045
0.000678746
0.000678746
0.000686302
0.000686302
0.000693717
0.000693717
0.000701003
0.000701003
0.000708181
0.000708181
0.000715283
0.000715283
0.000722345
0.000722345
0.000729413
0.000729413
0.000736538
0.000736538
0.000743773
0.000743773
0.000751174
0.000751174
0.000758794
0.000758794
0.000766688
0.000766688
0.000774904
0.000774904
0.000783488
0.000783488
0.000792484
0.000792484
0.000801929
0.000801929
0.000811859
0.000811859
0.000822306
0.000822306
0.000833301
0.000833301
0.000844874
0.000844874
0.000857054
0.000857054
0.00086987
0.00086987
0.000883353
0.000883353
0.000897532
0.000897532
0.000912439
0.000912439
0.000928104
0.000928104
0.000944558
0.000944558
0.000961831
0.000961831
0.000979949
0.000979949
0.000998938
0.000998938
0.00101882
0.00101882
0.00103961
0.00103961
0.00106133
0.00106133
0.00108399
0.00108399
0.00110759
0.00110759
0.00113215
0.00113215
0.00115765
0.00115765
0.00118411
0.00118411
0.00121151
0.00121151
0.00123986
0.00123986
0.00126915
0.00126915
0.00129937
0.00129937
0.00133053
0.00133053
0.00136263
0.00136263
0.00139567
0.00139567
0.00142965
0.00142965
0.00146458
0.00146458
0.00150048
0.00150048
0.00153735
0.00153735
0.00157521
0.00157521
0.00161408
0.00161408
0.00165396
0.00165396
0.00169487
0.00169487
0.00173682
0.00173682
0.00177979
0.00177979
0.00182378
0.00182378
0.00186877
0.00186877
0.00191472
0.00191472
0.0019616
0.0019616
0.00200934
0.00200934
0.00205787
0.00205787
0.0021071
0.0021071
0.00215692
0.00215692
0.00220719
0.00220719
0.00225779
0.00225779
0.00230855
0.00230855
0.00235931
0.00235931
0.00240988
0.00240988
0.0024601
0.0024601
0.00250978
0.00250978
0.00255876
0.00255876
0.00260689
0.00260689
0.00265403
0.00265403
0.00270008
0.00270008
0.00274496
0.00274496
0.0027886
0.0027886
0.00283099
0.00283099
0.00287212
0.00287212
0.00291201
0.00291201
0.0029507
0.0029507
0.00298827
0.00298827
0.00302479
0.00302479
0.00306034
0.00306034
0.00309504
0.00309504
0.00312898
0.00312898
0.00316229
0.00316229
0.00319506
0.00319506
0.00322744
0.00322744
0.00325952
0.00325952
0.00329145
0.00329145
0.00332335
0.00332335
0.00335535
0.00335535
0.00338758
0.00338758
0.0034202
0.0034202
0.00345335
0.00345335
0.00348718
0.00348718
0.00352186
0.00352186
0.00355754
0.00355754
0.00359439
0.00359439
0.00363255
0.00363255
0.00367216
0.00367216
0.00371337
0.00371337
0.00375626
0.00375626
0.00380094
0.00380094
0.00384745
0.00384745
0.00389583
0.00389583
0.00394607
0.00394607
0.00399812
0.00399812
0.0040519
0.0040519
0.00410727
0.00410727
0.00416406
0.00416406
0.00422206
0.00422206
0.004281
0.004281
0.0043406
0.0043406
0.00440054
0.00440054
0.00446052
0.00446052
0.00452023
0.00452023
0.00457942
0.00457942
0.00463786
0.00463786
0.0046954
0.0046954
0.00475194
0.00475194
0.00480745
0.00480745
0.00486196
0.00486196
0.00491556
0.00491556
0.00496835
0.00496835
0.00502047
0.00502047
0.00507207
0.00507207
0.00512327
0.00512327
0.0051742
0.0051742
0.00522495
0.00522495
0.00527559
0.00527559
0.00532616
0.00532616
0.00537665
0.00537665
0.00542705
0.00542705
0.00547731
0.00547731
0.00552734
0.00552734
0.00557708
0.00557708
0.00562641
0.00562641
0.00567524
0.00567524
0.00572346
0.00572346
0.00577096
0.00577096
0.00581766
0.00581766
0.00586347
0.00586347
0.00590832
0.00590832
0.00595217
0.00595217
0.00599498
0.00599498
0.00603675
0.00603675
0.00607748
0.00607748
0.00611721
0.00611721
0.00615599
0.00615599
0.00619388
0.00619388
0.00623096
0.00623096
0.00626729
0.00626729
0.00630295
0.00630295
0.00633801
0.00633801
0.00637254
0.00637254
0.00640658
0.00640658
0.00644018
0.00644018
0.00647338
0.00647338
0.00650621
0.00650621
0.00653871
0.00653871
0.00657093
0.00657093
0.00660291
0.00660291
0.00663473
0.00663473
0.00666645
0.00666645
0.00669814
0.00669814
0.0067299
0.0067299
0.00676179
0.00676179
0.00679388
0.00679388
0.0068262
0.0068262
0.00685877
0.00685877
0.00689159
0.00689159
0.00692461
0.00692461
0.00695776
0.00695776
0.00699094
0.00699094
0.00702401
0.00702401
0.00705684
0.00705684
0.00708926
0.00708926
0.00712112
0.00712112
0.00715229
0.00715229
0.00718264
0.00718264
0.0072121
0.0072121
0.00724065
0.00724065
0.00726828
0.00726828
0.00729508
0.00729508
0.00732113
0.00732113
0.0073466
0.0073466
0.00737161
0.00737161
0.00739634
0.00739634
0.00742091
0.00742091
0.00744539
0.00744539
0.00746978
0.00746978
0.00749399
0.00749399
0.00751778
0.00751778
0.00754078
0.00754078
0.00756243
0.00756243
0.007582
0.007582
0.00759861
0.00759861
0.0076113
0.0076113
0.00761914
0.00761914
0.00762152
0.00762152
0.00761658
0.00761658
0.00761658
0.00761658
0.00762153
0.00762153
0.00761915
0.00761915
0.00761132
0.00761132
0.00759863
0.00759863
0.00758202
0.00758202
0.00756245
0.00756245
0.00754081
0.00754081
0.00751781
0.00751781
0.00749401
0.00749401
0.00746979
0.00746979
0.00744539
0.00744539
0.00742091
0.00742091
0.00739634
0.00739634
0.00737161
0.00737161
0.0073466
0.0073466
0.00732115
0.00732115
0.0072951
0.0072951
0.00726831
0.00726831
0.00724067
0.00724067
0.00721213
0.00721213
0.00718267
0.00718267
0.00715232
0.00715232
0.00712116
0.00712116
0.00708929
0.00708929
0.00705687
0.00705687
0.00702404
0.00702404
0.00699096
0.00699096
0.00695778
0.00695778
0.00692462
0.00692462
0.00689159
0.00689159
0.00685877
0.00685877
0.00682619
0.00682619
0.00679387
0.00679387
0.00676179
0.00676179
0.0067299
0.0067299
0.00669815
0.00669815
0.00666645
0.00666645
0.00663474
0.00663474
0.00660292
0.00660292
0.00657093
0.00657093
0.00653872
0.00653872
0.00650622
0.00650622
0.00647339
0.00647339
0.00644019
0.00644019
0.00640659
0.00640659
0.00637255
0.00637255
0.00633803
0.00633803
0.00630296
0.00630296
0.0062673
0.0062673
0.00623097
0.00623097
0.00619389
0.00619389
0.006156
0.006156
0.00611722
0.00611722
0.00607749
0.00607749
0.00603675
0.00603675
0.00599498
0.00599498
0.00595217
0.00595217
0.00590832
0.00590832
0.00586346
0.00586346
0.00581765
0.00581765
0.00577095
0.00577095
0.00572344
0.00572344
0.00567522
0.00567522
0.0056264
0.0056264
0.00557707
0.00557707
0.00552733
0.00552733
0.0054773
0.0054773
0.00542704
0.00542704
0.00537665
0.00537665
0.00532615
0.00532615
0.00527559
0.00527559
0.00522495
0.00522495
0.0051742
0.0051742
0.00512327
0.00512327
0.00507206
0.00507206
0.00502046
0.00502046
0.00496834
0.00496834
0.00491554
0.00491554
0.00486195
0.00486195
0.00480744
0.00480744
0.00475193
0.00475193
0.00469539
0.00469539
0.00463785
0.00463785
0.00457942
0.00457942
0.00452023
0.00452023
0.00446052
0.00446052
0.00440054
0.00440054
0.0043406
0.0043406
0.00428101
0.00428101
0.00422206
0.00422206
0.00416407
0.00416407
0.00410727
0.00410727
0.0040519
0.0040519
0.00399812
0.00399812
0.00394607
0.00394607
0.00389583
0.00389583
0.00384745
0.00384745
0.00380093
0.00380093
0.00375626
0.00375626
0.00371336
0.00371336
0.00367216
0.00367216
0.00363254
0.00363254
0.00359438
0.00359438
0.00355753
0.00355753
0.00352185
0.00352185
0.00348717
0.00348717
0.00345334
0.00345334
0.00342019
0.00342019
0.00338758
0.00338758
0.00335534
0.00335534
0.00332334
0.00332334
0.00329145
0.00329145
0.00325952
0.00325952
0.00322743
0.00322743
0.00319506
0.00319506
0.00316228
0.00316228
0.00312898
0.00312898
0.00309503
0.00309503
0.00306034
0.00306034
0.00302478
0.00302478
0.00298826
0.00298826
0.00295069
0.00295069
0.002912
0.002912
0.00287211
0.00287211
0.00283098
0.00283098
0.00278859
0.00278859
0.00274495
0.00274495
0.00270007
0.00270007
0.00265402
0.00265402
0.00260688
0.00260688
0.00255875
0.00255875
0.00250977
0.00250977
0.00246009
0.00246009
0.00240987
0.00240987
0.0023593
0.0023593
0.00230854
0.00230854
0.00225778
0.00225778
0.00220718
0.00220718
0.00215691
0.00215691
0.00210709
0.00210709
0.00205787
0.00205787
0.00200934
0.00200934
0.0019616
0.0019616
0.00191472
0.00191472
0.00186876
0.00186876
0.00182377
0.00182377
0.00177978
0.00177978
0.00173681
0.00173681
0.00169487
0.00169487
0.00165396
0.00165396
0.00161408
0.00161408
0.00157521
0.00157521
0.00153735
0.00153735
0.00150047
0.00150047
0.00146458
0.00146458
0.00142965
0.00142965
0.00139567
0.00139567
0.00136263
0.00136263
0.00133053
0.00133053
0.00129937
0.00129937
0.00126915
0.00126915
0.00123986
0.00123986
0.00121151
0.00121151
0.00118411
0.00118411
0.00115765
0.00115765
0.00113215
0.00113215
0.0011076
0.0011076
0.00108399
0.00108399
0.00106134
0.00106134
0.00103962
0.00103962
0.00101883
0.00101883
0.000998944
0.000998944
0.000979956
0.000979956
0.000961838
0.000961838
0.000944566
0.000944566
0.000928112
0.000928112
0.000912447
0.000912447
0.000897541
0.000897541
0.000883362
0.000883362
0.000869879
0.000869879
0.000857063
0.000857063
0.000844883
0.000844883
0.00083331
0.00083331
0.000822315
0.000822315
0.000811868
0.000811868
0.000801939
0.000801939
0.000792494
0.000792494
0.000783499
0.000783499
0.000774915
0.000774915
0.0007667
0.0007667
0.000758806
0.000758806
0.000751186
0.000751186
0.000743786
0.000743786
0.000736551
0.000736551
0.000729427
0.000729427
0.000722359
0.000722359
0.000715297
0.000715297
0.000708197
0.000708197
0.000701019
0.000701019
0.000693734
0.000693734
0.00068632
0.00068632
0.000678765
0.000678765
0.000671065
0.000671065
0.000663222
0.000663222
0.000655246
0.000655246
0.00064715
0.00064715
0.000638951
0.000638951
0.000630667
0.000630667
0.000622314
0.000622314
0.00061391
0.00061391
0.00060547
0.00060547
0.000597006
0.000597006
0.000588525
0.000588525
0.000580033
0.000580033
0.000571531
0.000571531
0.000563014
0.000563014
0.000554474
0.000554474
0.000545898
0.000545898
0.00053727
0.00053727
0.000528569
0.000528569
0.00051977
0.00051977
0.000510848
0.000510848
0.000501775
0.000501775
0.000492524
0.000492524
0.000483069
0.000483069
0.000473387
0.000473387
0.000463457
0.000463457
0.000453263
0.000453263
0.000442794
0.000442794
0.000432043
0.000432043
0.000421007
0.000421007
0.000409687
0.000409688
0.000398091
0.000398091
0.000386226
0.000386226
0.000374104
0.000374104
0.000361742
0.000361742
0.000349158
0.000349158
0.000336374
0.000336374
0.000323415
0.000323415
0.000310311
0.000310311
0.000297097
0.000297097
0.00028381
0.00028381
0.000270494
0.000270494
0.000257193
0.000257193
0.000243957
0.000243957
0.000230839
0.000230839
0.000217892
0.000217892
0.000205171
0.000205171
0.000192729
0.000192729
0.000180619
0.000180619
0.000168889
0.000168889
0.000157583
0.000157583
0.000146737
0.000146737
0.00013638
0.00013638
0.00012653
0.00012653
0.000117196
0.000117196
0.000108377
0.000108377
0.000100061
0.000100061
9.2229e-05
9.2229e-05
8.48569e-05
8.48569e-05
7.79182e-05
7.79182e-05
7.13874e-05
7.13874e-05
6.5242e-05
6.5242e-05
5.94634e-05
5.94634e-05
5.40372e-05
5.40372e-05
4.89515e-05
4.89515e-05
4.41967e-05
4.41967e-05
3.97643e-05
3.97643e-05
3.56457e-05
3.56457e-05
3.18326e-05
3.18326e-05
2.83158e-05
2.83158e-05
2.50856e-05
2.50856e-05
2.21314e-05
2.21314e-05
1.94417e-05
1.94417e-05
1.70043e-05
1.70043e-05
1.48059e-05
1.48059e-05
1.28328e-05
1.28328e-05
1.10708e-05
1.10708e-05
9.50514e-06
9.50514e-06
8.1211e-06
8.1211e-06
6.90399e-06
6.90399e-06
5.83931e-06
5.83931e-06
4.91294e-06
4.91294e-06
4.11129e-06
4.11129e-06
3.42138e-06
3.42138e-06
2.83095e-06
2.83095e-06
2.32853e-06
2.32853e-06
1.90348e-06
1.90348e-06
1.54603e-06
1.54603e-06
1.24727e-06
1.24727e-06
9.99136e-07
9.99136e-07
7.944e-07
7.944e-07
6.2663e-07
6.2663e-07
4.90136e-07
4.90136e-07
3.79928e-07
3.79928e-07
2.91657e-07
2.91657e-07
2.21561e-07
2.21561e-07
1.66408e-07
1.66408e-07
1.23443e-07
1.23443e-07
9.03334e-08
9.03334e-08
6.51179e-08
6.51179e-08
4.61639e-08
4.61639e-08
3.21213e-08
3.21213e-08
2.18847e-08
2.18847e-08
1.4558e-08
1.4558e-08
9.42209e-09
9.42209e-09
5.9072e-09
5.9072e-09
3.56792e-09
3.56792e-09
2.06148e-09
2.06148e-09
1.12888e-09
1.12888e-09
5.78626e-10
5.78626e-10
2.72839e-10
2.72839e-10
1.15432e-10
1.15432e-10
4.2202e-11
4.2202e-11
1.2565e-11
1.2565e-11
2.77322e-12
2.77322e-12
4.21058e-13
4.21058e-13
1.01533e-13
1.01533e-13
1.0105e-13
1.0105e-13
0.00761658
0.00761658
0.00762153
0.00762153
0.00761915
0.00761915
0.00761132
0.00761132
0.00759863
0.00759863
0.00758202
0.00758202
0.00756245
0.00756245
0.00754081
0.00754081
0.00751781
0.00751781
0.00749401
0.00749401
0.00746979
0.00746979
0.00744539
0.00744539
0.0074209
0.0074209
0.00739634
0.00739634
0.00737161
0.00737161
0.0073466
0.0073466
0.00732115
0.00732115
0.0072951
0.0072951
0.00726831
0.00726831
0.00724067
0.00724067
0.00721213
0.00721213
0.00718267
0.00718267
0.00715232
0.00715232
0.00712116
0.00712116
0.00708929
0.00708929
0.00705687
0.00705687
0.00702404
0.00702404
0.00699096
0.00699096
0.00695778
0.00695778
0.00692462
0.00692462
0.00689159
0.00689159
0.00685877
0.00685877
0.00682619
0.00682619
0.00679387
0.00679387
0.00676179
0.00676179
0.0067299
0.0067299
0.00669815
0.00669815
0.00666645
0.00666645
0.00663473
0.00663473
0.00660292
0.00660292
0.00657093
0.00657093
0.00653872
0.00653872
0.00650622
0.00650622
0.00647339
0.00647339
0.00644019
0.00644019
0.00640659
0.00640659
0.00637255
0.00637255
0.00633803
0.00633803
0.00630296
0.00630296
0.0062673
0.0062673
0.00623097
0.00623097
0.00619389
0.00619389
0.006156
0.006156
0.00611722
0.00611722
0.00607749
0.00607749
0.00603675
0.00603675
0.00599498
0.00599498
0.00595217
0.00595217
0.00590832
0.00590832
0.00586346
0.00586346
0.00581765
0.00581765
0.00577095
0.00577095
0.00572344
0.00572344
0.00567522
0.00567522
0.0056264
0.0056264
0.00557707
0.00557707
0.00552733
0.00552733
0.00547729
0.00547729
0.00542704
0.00542704
0.00537664
0.00537664
0.00532615
0.00532615
0.00527559
0.00527559
0.00522495
0.00522495
0.0051742
0.0051742
0.00512327
0.00512327
0.00507206
0.00507206
0.00502046
0.00502046
0.00496834
0.00496834
0.00491554
0.00491554
0.00486195
0.00486195
0.00480743
0.00480743
0.00475193
0.00475193
0.00469539
0.00469539
0.00463785
0.00463785
0.00457941
0.00457941
0.00452023
0.00452023
0.00446052
0.00446052
0.00440054
0.00440054
0.0043406
0.0043406
0.00428101
0.00428101
0.00422206
0.00422206
0.00416407
0.00416407
0.00410727
0.00410727
0.00405189
0.00405189
0.00399812
0.00399812
0.00394607
0.00394607
0.00389583
0.00389583
0.00384745
0.00384745
0.00380093
0.00380093
0.00375626
0.00375626
0.00371336
0.00371336
0.00367216
0.00367216
0.00363254
0.00363254
0.00359438
0.00359438
0.00355753
0.00355753
0.00352185
0.00352185
0.00348717
0.00348717
0.00345334
0.00345334
0.00342019
0.00342019
0.00338758
0.00338758
0.00335534
0.00335534
0.00332334
0.00332334
0.00329145
0.00329145
0.00325952
0.00325952
0.00322743
0.00322743
0.00319506
0.00319506
0.00316228
0.00316228
0.00312898
0.00312898
0.00309503
0.00309503
0.00306034
0.00306034
0.00302478
0.00302478
0.00298826
0.00298826
0.00295069
0.00295069
0.002912
0.002912
0.00287211
0.00287211
0.00283098
0.00283098
0.00278859
0.00278859
0.00274495
0.00274495
0.00270007
0.00270007
0.00265402
0.00265402
0.00260688
0.00260688
0.00255875
0.00255875
0.00250977
0.00250977
0.00246009
0.00246009
0.00240987
0.00240987
0.0023593
0.0023593
0.00230854
0.00230854
0.00225778
0.00225778
0.00220718
0.00220718
0.00215691
0.00215691
0.00210709
0.00210709
0.00205787
0.00205787
0.00200934
0.00200934
0.0019616
0.0019616
0.00191472
0.00191472
0.00186876
0.00186876
0.00182377
0.00182377
0.00177978
0.00177978
0.00173681
0.00173681
0.00169487
0.00169487
0.00165396
0.00165396
0.00161407
0.00161407
0.00157521
0.00157521
0.00153735
0.00153735
0.00150047
0.00150047
0.00146458
0.00146458
0.00142965
0.00142965
0.00139567
0.00139567
0.00136263
0.00136263
0.00133053
0.00133053
0.00129937
0.00129937
0.00126915
0.00126915
0.00123986
0.00123986
0.00121151
0.00121151
0.00118411
0.00118411
0.00115765
0.00115765
0.00113215
0.00113215
0.0011076
0.0011076
0.00108399
0.00108399
0.00106134
0.00106134
0.00103962
0.00103962
0.00101883
0.00101883
0.000998944
0.000998944
0.000979956
0.000979956
0.000961838
0.000961838
0.000944566
0.000944566
0.000928112
0.000928112
0.000912447
0.000912447
0.00089754
0.00089754
0.000883361
0.000883361
0.000869879
0.000869879
0.000857063
0.000857063
0.000844883
0.000844883
0.00083331
0.00083331
0.000822315
0.000822315
0.000811868
0.000811868
0.000801939
0.000801939
0.000792494
0.000792494
0.000783499
0.000783499
0.000774915
0.000774915
0.000766699
0.000766699
0.000758806
0.000758806
0.000751186
0.000751186
0.000743786
0.000743786
0.000736551
0.000736551
0.000729427
0.000729427
0.000722359
0.000722359
0.000715297
0.000715297
0.000708197
0.000708197
0.000701019
0.000701019
0.000693734
0.000693734
0.00068632
0.00068632
0.000678765
0.000678765
0.000671064
0.000671064
0.000663222
0.000663222
0.000655246
0.000655246
0.00064715
0.00064715
0.000638951
0.000638951
0.000630666
0.000630666
0.000622314
0.000622314
0.00061391
0.00061391
0.00060547
0.00060547
0.000597006
0.000597006
0.000588525
0.000588525
0.000580033
0.000580033
0.000571531
0.000571531
0.000563014
0.000563014
0.000554474
0.000554474
0.000545898
0.000545898
0.00053727
0.00053727
0.000528569
0.000528569
0.00051977
0.00051977
0.000510848
0.000510848
0.000501775
0.000501775
0.000492524
0.000492524
0.000483069
0.000483069
0.000473387
0.000473387
0.000463457
0.000463457
0.000453263
0.000453263
0.000442794
0.000442794
0.000432043
0.000432043
0.000421007
0.000421007
0.000409687
0.000409687
0.000398091
0.000398091
0.000386225
0.000386225
0.000374104
0.000374104
0.000361742
0.000361742
0.000349158
0.000349158
0.000336374
0.000336374
0.000323415
0.000323415
0.000310311
0.000310311
0.000297097
0.000297097
0.00028381
0.00028381
0.000270493
0.000270493
0.000257193
0.000257193
0.000243957
0.000243957
0.000230839
0.000230839
0.000217892
0.000217892
0.000205171
0.000205171
0.000192729
0.000192729
0.000180619
0.000180619
0.000168889
0.000168889
0.000157583
0.000157583
0.000146737
0.000146737
0.00013638
0.00013638
0.00012653
0.00012653
0.000117196
0.000117196
0.000108377
0.000108377
0.000100061
0.000100061
9.2229e-05
9.2229e-05
8.48569e-05
8.48569e-05
7.79182e-05
7.79182e-05
7.13874e-05
7.13874e-05
6.5242e-05
6.5242e-05
5.94634e-05
5.94634e-05
5.40372e-05
5.40372e-05
4.89515e-05
4.89515e-05
4.41967e-05
4.41967e-05
3.97643e-05
3.97643e-05
3.56457e-05
3.56457e-05
3.18326e-05
3.18326e-05
2.83158e-05
2.83158e-05
2.50856e-05
2.50856e-05
2.21314e-05
2.21314e-05
1.94417e-05
1.94417e-05
1.70043e-05
1.70043e-05
1.48059e-05
1.48059e-05
1.28328e-05
1.28328e-05
1.10708e-05
1.10708e-05
9.50513e-06
9.50513e-06
8.1211e-06
8.1211e-06
6.90399e-06
6.90399e-06
5.83931e-06
5.83931e-06
4.91294e-06
4.91294e-06
4.11129e-06
4.11129e-06
3.42138e-06
3.42138e-06
2.83095e-06
2.83095e-06
2.32853e-06
2.32853e-06
1.90348e-06
1.90348e-06
1.54603e-06
1.54603e-06
1.24727e-06
1.24727e-06
9.99135e-07
9.99135e-07
7.944e-07
7.944e-07
6.2663e-07
6.2663e-07
4.90136e-07
4.90136e-07
3.79928e-07
3.79928e-07
2.91657e-07
2.91657e-07
2.21561e-07
2.21561e-07
1.66408e-07
1.66408e-07
1.23443e-07
1.23443e-07
9.03333e-08
9.03333e-08
6.51179e-08
6.51179e-08
4.61639e-08
4.61639e-08
3.21213e-08
3.21213e-08
2.18847e-08
2.18847e-08
1.4558e-08
1.4558e-08
9.42209e-09
9.42209e-09
5.9072e-09
5.9072e-09
3.56792e-09
3.56792e-09
2.06148e-09
2.06148e-09
1.12888e-09
1.12888e-09
5.78626e-10
5.78626e-10
2.72839e-10
2.72839e-10
1.15432e-10
1.15432e-10
4.22019e-11
4.22019e-11
1.2565e-11
1.2565e-11
2.77321e-12
2.77321e-12
4.21058e-13
4.21058e-13
1.01533e-13
1.01533e-13
1.0105e-13
1.0105e-13
)
;

boundaryField
{
    walls
    {