/*--------------------------------*- C++ -*----------------------------------*\
| =========                 |                                                 |
| \\      /  F ield         | OpenFOAM: The Open Source CFD Toolbox           |
|  \\    /   O peration     | Version:  2012                                  |
|   \\  /    A nd           | Website:  www.openfoam.com                      |
|    \\/     M anipulation  |                                                 |
\*---------------------------------------------------------------------------*/
FoamFile
{
    version     2.0;
    format      ascii;
    class       volScalarField;
    location    "12000";
    object      omega;
}
// * * * * * * * * * * * * * * * * * * * * * * * * * * * * * * * * * * * * * //

dimensions      [0 0 -1 0 0 0 0];


internalField   nonuniform List<scalar> 
2560
(
1.52415e+06
1.52415e+06
265169
265169
89885
89885
42384.8
42384.8
24022.6
24022.6
15256
15256
10456.2
10456.2
7566.02
7566.02
5700.58
5700.58
4431.27
4431.27
3531.09
3531.09
2871.09
2871.09
2373.8
2373.8
1990.46
1990.46
1689.22
1689.22
1448.54
1448.54
1253.48
1253.48
1093.41
1093.41
960.591
960.591
849.312
849.312
755.263
755.263
675.155
675.155
606.441
606.441
547.125
547.125
495.624
495.624
450.674
450.674
411.252
411.252
376.525
376.525
345.809
345.809
318.539
318.539
294.244
294.244
272.528
272.528
253.06
253.06
235.557
235.557
219.778
219.778
205.517
205.517
192.597
192.597
180.863
180.863
170.182
170.182
160.437
160.437
151.528
151.528
143.363
143.363
135.866
135.866
128.965
128.965
122.599
122.599
116.712
116.712
111.253
111.253
106.179
106.179
101.449
101.449
97.0256
97.0256
92.8766
92.8766
88.9725
88.9725
85.2869
85.2869
81.7968
81.7968
78.4825
78.4825
75.3278
75.3278
72.3211
72.3211
69.4551
69.4551
66.7275
66.7275
64.1396
64.1396
61.6955
61.6955
59.4002
59.4002
57.2576
57.2576
55.2698
55.2698
53.4356
53.4356
51.751
51.751
50.2096
50.2096
48.8031
48.8031
47.5216
47.5216
46.3544
46.3544
45.2903
45.2903
44.3179
44.3179
43.4262
43.4262
42.6043
42.6043
41.8422
41.8422
41.1302
41.1302
40.4598
40.4598
39.823
39.823
39.2129
39.2129
38.6231
38.6231
38.0483
38.0483
37.484
37.484
36.9262
36.9262
36.3717
36.3717
35.8179
35.8179
35.2626
35.2626
34.7041
34.7041
34.1412
34.1412
33.573
33.573
32.9989
32.9989
32.4189
32.4189
31.8331
31.8331
31.2422
31.2422
30.6472
30.6472
30.0492
30.0492
29.4498
29.4498
28.8505
28.8505
28.2531
28.2531
27.6593
27.6593
27.0707
27.0707
26.4886
26.4886
25.9142
25.9142
25.3486
25.3486
24.7924
24.7924
24.2461
24.2461
23.71
23.71
23.1839
23.1839
22.6677
22.6677
22.1609
22.1609
21.6632
21.6632
21.1739
21.1739
20.6922
20.6922
20.2174
20.2174
19.7489
19.7489
19.2857
19.2857
18.8274
18.8274
18.3734
18.3734
17.9233
17.9233
17.4769
17.4769
17.0342
17.0342
16.5954
16.5954
16.1609
16.1609
15.7312
15.7312
15.3071
15.3071
14.8892
14.8892
14.4784
14.4784
14.0754
14.0754
13.6809
13.6809
13.2955
13.2955
12.9197
12.9197
12.5538
12.5538
12.1981
12.1981
11.8527
11.8527
11.5175
11.5175
11.1926
11.1926
10.8779
10.8779
10.5731
10.5731
10.2781
10.2781
9.99266
9.99266
9.71669
9.71669
9.44997
9.44997
9.19231
9.19231
8.94355
8.94355
8.70352
8.70352
8.47205
8.47205
8.24897
8.24897
8.0341
8.0341
7.82723
7.82723
7.62817
7.62817
7.43669
7.43669
7.25254
7.25254
7.07547
7.07547
6.90522
6.90522
6.74152
6.74152
6.58411
6.58411
6.43272
6.43272
6.28708
6.28708
6.14694
6.14694
6.01207
6.01207
5.88224
5.88224
5.75727
5.75727
5.63696
5.63696
5.52117
5.52117
5.40975
5.40975
5.3026
5.3026
5.19963
5.19963
5.10075
5.10075
5.00591
5.00591
4.91505
4.91505
4.8281
4.8281
4.74503
4.74503
4.66577
4.66577
4.59026
4.59026
4.51839
4.51839
4.45009
4.45009
4.38522
4.38522
4.32364
4.32364
4.26519
4.26519
4.20968
4.20968
4.15687
4.15687
4.10653
4.10653
4.05838
4.05838
4.01211
4.01211
3.96742
3.96742
3.92397
3.92397
3.88142
3.88142
3.83944
3.83944
3.79771
3.79771
3.75593
3.75593
3.71383
3.71383
3.6712
3.6712
3.62785
3.62785
3.58364
3.58364
3.53848
3.53848
3.49233
3.49233
3.44519
3.44519
3.39707
3.39707
3.34805
3.34805
3.2982
3.2982
3.24763
3.24763
3.19644
3.19644
3.14476
3.14476
3.09271
3.09271
3.04042
3.04042
2.988
2.988
2.93558
2.93558
2.88328
2.88328
2.8312
2.8312
2.77947
2.77947
2.72818
2.72818
2.67745
2.67745
2.62738
2.62738
2.57807
2.57807
2.52963
2.52963
2.48216
2.48216
2.43575
2.43575
2.39049
2.39049
2.34646
2.34646
2.30373
2.30373
2.26237
2.26237
2.2224
2.2224
2.18387
2.18387
2.14678
2.14678
2.11113
2.11113
2.07689
2.07689
2.04402
2.04402
2.01246
2.01246
1.98213
1.98213
1.95292
1.95292
1.92473
1.92473
1.89741
1.89741
1.87082
1.87082
1.84482
1.84482
1.81926
1.81926
1.79402
1.79402
1.76896
1.76896
1.74402
1.74402
1.71911
1.71911
1.69422
1.69422
1.66932
1.66932
1.64443
1.64443
1.61959
1.61959
1.59484
1.59484
1.57023
1.57023
1.54581
1.54581
1.52163
1.52163
1.49773
1.49773
1.47414
1.47414
1.45089
1.45089
1.42797
1.42797
1.40541
1.40541
1.38318
1.38318
1.36128
1.36128
1.33969
1.33969
1.31839
1.31839
1.29735
1.29735
1.27655
1.27655
1.25597
1.25597
1.23559
1.23559
1.21539
1.21539
1.19536
1.19536
1.17548
1.17548
1.15575
1.15575
1.13616
1.13616
1.11672
1.11672
1.09744
1.09744
1.07832
1.07832
1.05939
1.05939
1.04065
1.04065
1.02212
1.02212
1.00382
1.00382
0.985766
0.985766
0.967968
0.967968
0.950439
0.950439
0.933189
0.933189
0.916225
0.916225
0.899556
0.899556
0.883187
0.883187
0.867123
0.867123
0.851373
0.851373
0.835944
0.835944
0.820845
0.820845
0.806085
0.806085
0.791676
0.791676
0.777626
0.777626
0.763945
0.763945
0.75064
0.75064
0.737718
0.737718
0.725179
0.725179
0.713025
0.713025
0.70125
0.70125
0.689849
0.689849
0.678813
0.678813
0.668132
0.668132
0.657794
0.657794
0.647788
0.647788
0.638103
0.638103
0.628734
0.628734
0.619675
0.619675
0.610926
0.610926
0.602492
0.602492
0.594384
0.594384
0.586616
0.586616
0.579206
0.579206
0.572176
0.572176
0.56555
0.56555
0.55935
0.55935
0.5536
0.5536
0.548317
0.548317
0.543515
0.543515
0.539201
0.539201
0.535373
0.535373
0.532019
0.532019
0.529116
0.529116
0.52663
0.52663
0.524517
0.524517
0.522728
0.522728
0.52122
0.52122
0.519975
0.519975
0.518885
0.518885
1.52415e+06
1.52415e+06
265169
265169
89885
89885
42384.8
42384.8
24022.6
24022.6
15256
15256
10456.2
10456.2
7566.02
7566.02
5700.58
5700.58
4431.27
4431.27
3531.09
3531.09
2871.09
2871.09
2373.8
2373.8
1990.46
1990.46
1689.22
1689.22
1448.54
1448.54
1253.48
1253.48
1093.41
1093.41
960.591
960.591
849.312
849.312
755.263
755.263
675.155
675.155
606.441
606.441
547.125
547.125
495.624
495.624
450.674
450.674
411.252
411.252
376.525
376.525
345.809
345.809
318.539
318.539
294.244
294.244
272.528
272.528
253.06
253.06
235.557
235.557
219.778
219.778
205.517
205.517
192.597
192.597
180.863
180.863
170.182
170.182
160.437
160.437
151.528
151.528
143.363
143.363
135.866
135.866
128.965
128.965
122.599
122.599
116.712
116.712
111.253
111.253
106.179
106.179
101.449
101.449
97.0256
97.0256
92.8766
92.8766
88.9725
88.9725
85.2869
85.2869
81.7968
81.7968
78.4825
78.4825
75.3278
75.3278
72.3211
72.3211
69.4551
69.4551
66.7275
66.7275
64.1396
64.1396
61.6955
61.6955
59.4001
59.4001
57.2576
57.2576
55.2698
55.2698
53.4356
53.4356
51.751
51.751
50.2096
50.2096
48.8031
48.8031
47.5216
47.5216
46.3544
46.3544
45.2903
45.2903
44.3179
44.3179
43.4262
43.4262
42.6043
42.6043
41.8422
41.8422
41.1302
41.1302
40.4598
40.4598
39.823
39.823
39.2129
39.2129
38.6231
38.6231
38.0483
38.0483
37.484
37.484
36.9262
36.9262
36.3717
36.3717
35.8179
35.8179
35.2626
35.2626
34.7041
34.7041
34.1412
34.1412
33.573
33.573
32.9989
32.9989
32.4189
32.4189
31.8331
31.8331
31.2422
31.2422
30.6472
30.6472
30.0492
30.0492
29.4498
29.4498
28.8505
28.8505
28.2531
28.2531
27.6593
27.6593
27.0707
27.0707
26.4886
26.4886
25.9142
25.9142
25.3486
25.3486
24.7924
24.7924
24.2461
24.2461
23.71
23.71
23.1839
23.1839
22.6677
22.6677
22.1609
22.1609
21.6632
21.6632
21.1739
21.1739
20.6922
20.6922
20.2174
20.2174
19.7489
19.7489
19.2857
19.2857
18.8274
18.8274
18.3734
18.3734
17.9233
17.9233
17.4769
17.4769
17.0342
17.0342
16.5954
16.5954
16.1609
16.1609
15.7312
15.7312
15.3071
15.3071
14.8892
14.8892
14.4784
14.4784
14.0754
14.0754
13.6809
13.6809
13.2955
13.2955
12.9197
12.9197
12.5538
12.5538
12.1981
12.1981
11.8527
11.8527
11.5175
11.5175
11.1926
11.1926
10.8778
10.8778
10.5731
10.5731
10.278
10.278
9.99266
9.99266
9.71669
9.71669
9.44997
9.44997
9.19231
9.19231
8.94355
8.94355
8.70352
8.70352
8.47205
8.47205
8.24897
8.24897
8.0341
8.0341
7.82723
7.82723
7.62817
7.62817
7.43669
7.43669
7.25254
7.25254
7.07547
7.07547
6.90522
6.90522
6.74152
6.74152
6.58411
6.58411
6.43272
6.43272
6.28707
6.28707
6.14694
6.14694
6.01207
6.01207
5.88224
5.88224
5.75727
5.75727
5.63696
5.63696
5.52117
5.52117
5.40975
5.40975
5.3026
5.3026
5.19963
5.19963
5.10075
5.10075
5.00591
5.00591
4.91505
4.91505
4.8281
4.8281
4.74503
4.74503
4.66577
4.66577
4.59026
4.59026
4.51839
4.51839
4.45009
4.45009
4.38522
4.38522
4.32364
4.32364
4.26519
4.26519
4.20968
4.20968
4.15687
4.15687
4.10653
4.10653
4.05838
4.05838
4.01211
4.01211
3.96742
3.96742
3.92397
3.92397
3.88142
3.88142
3.83944
3.83944
3.79771
3.79771
3.75593
3.75593
3.71383
3.71383
3.6712
3.6712
3.62785
3.62785
3.58364
3.58364
3.53848
3.53848
3.49233
3.49233
3.44519
3.44519
3.39707
3.39707
3.34805
3.34805
3.2982
3.2982
3.24763
3.24763
3.19644
3.19644
3.14476
3.14476
3.09271
3.09271
3.04042
3.04042
2.988
2.988
2.93558
2.93558
2.88328
2.88328
2.8312
2.8312
2.77947
2.77947
2.72818
2.72818
2.67745
2.67745
2.62738
2.62738
2.57807
2.57807
2.52963
2.52963
2.48216
2.48216
2.43575
2.43575
2.39049
2.39049
2.34646
2.34646
2.30373
2.30373
2.26237
2.26237
2.2224
2.2224
2.18387
2.18387
2.14678
2.14678
2.11113
2.11113
2.07689
2.07689
2.04402
2.04402
2.01246
2.01246
1.98213
1.98213
1.95292
1.95292
1.92473
1.92473
1.89741
1.89741
1.87082
1.87082
1.84482
1.84482
1.81926
1.81926
1.79402
1.79402
1.76896
1.76896
1.74402
1.74402
1.71911
1.71911
1.69422
1.69422
1.66932
1.66932
1.64443
1.64443
1.61959
1.61959
1.59484
1.59484
1.57023
1.57023
1.54581
1.54581
1.52163
1.52163
1.49773
1.49773
1.47414
1.47414
1.45089
1.45089
1.42797
1.42797
1.40541
1.40541
1.38318
1.38318
1.36128
1.36128
1.33969
1.33969
1.31839
1.31839
1.29735
1.29735
1.27655
1.27655
1.25597
1.25597
1.23559
1.23559
1.21539
1.21539
1.19536
1.19536
1.17548
1.17548
1.15575
1.15575
1.13616
1.13616
1.11672
1.11672
1.09744
1.09744
1.07832
1.07832
1.05939
1.05939
1.04065
1.04065
1.02212
1.02212
1.00382
1.00382
0.985766
0.985766
0.967968
0.967968
0.950439
0.950439
0.933189
0.933189
0.916225
0.916225
0.899556
0.899556
0.883187
0.883187
0.867123
0.867123
0.851373
0.851373
0.835944
0.835944
0.820845
0.820845
0.806085
0.806085
0.791676
0.791676
0.777626
0.777626
0.763945
0.763945
0.750641
0.750641
0.737718
0.737718
0.725179
0.725179
0.713025
0.713025
0.70125
0.70125
0.689849
0.689849
0.678813
0.678813
0.668132
0.668132
0.657794
0.657794
0.647788
0.647788
0.638104
0.638104
0.628734
0.628734
0.619675
0.619675
0.610926
0.610926
0.602492
0.602492
0.594384
0.594384
0.586616
0.586616
0.579206
0.579206
0.572176
0.572176
0.56555
0.56555
0.55935
0.559351
0.5536
0.5536
0.548317
0.548317
0.543515
0.543515
0.539201
0.539201
0.535373
0.535373
0.532019
0.532019
0.529116
0.529116
0.52663
0.52663
0.524517
0.524517
0.522728
0.522728
0.52122
0.52122
0.519975
0.519975
0.518886
0.518886
0.518886
0.518886
0.519976
0.519976
0.521221
0.521221
0.522729
0.522729
0.524519
0.524519
0.526632
0.526632
0.529119
0.529119
0.532022
0.532022
0.535376
0.535376
0.539203
0.539203
0.543517
0.543517
0.548318
0.548318
0.553601
0.553601
0.559351
0.559351
0.56555
0.56555
0.572177
0.572177
0.579208
0.579208
0.586618
0.586618
0.594387
0.594387
0.602495
0.602495
0.610929
0.610929
0.619678
0.619678
0.628738
0.628738
0.638108
0.638108
0.647792
0.647792
0.657797
0.657797
0.668135
0.668135
0.678816
0.678816
0.689851
0.689851
0.701251
0.701251
0.713025
0.713025
0.725179
0.725179
0.737717
0.737717
0.75064
0.75064
0.763945
0.763945
0.777626
0.777626
0.791677
0.791677
0.806087
0.806087
0.820846
0.820846
0.835946
0.835946
0.851375
0.851375
0.867125
0.867125
0.883188
0.883188
0.899558
0.899558
0.916227
0.916227
0.933191
0.933191
0.950441
0.950441
0.96797
0.96797
0.985769
0.985769
1.00382
1.00382
1.02212
1.02212
1.04065
1.04065
1.05939
1.05939
1.07832
1.07832
1.09744
1.09744
1.11672
1.11672
1.13616
1.13616
1.15574
1.15574
1.17548
1.17548
1.19536
1.19536
1.21539
1.21539
1.23559
1.23559
1.25597
1.25597
1.27655
1.27655
1.29735
1.29735
1.31838
1.31838
1.33969
1.33969
1.36128
1.36128
1.38318
1.38318
1.40541
1.40541
1.42797
1.42797
1.45089
1.45089
1.47414
1.47414
1.49773
1.49773
1.52163
1.52163
1.54581
1.54581
1.57023
1.57023
1.59484
1.59484
1.61959
1.61959
1.64443
1.64443
1.66931
1.66931
1.69421
1.69421
1.71911
1.71911
1.74402
1.74402
1.76897
1.76897
1.79402
1.79402
1.81927
1.81927
1.84482
1.84482
1.87082
1.87082
1.89741
1.89741
1.92473
1.92473
1.95293
1.95293
1.98213
1.98213
2.01246
2.01246
2.04402
2.04402
2.07689
2.07689
2.11113
2.11113
2.14678
2.14678
2.18387
2.18387
2.2224
2.2224
2.26237
2.26237
2.30373
2.30373
2.34646
2.34646
2.39049
2.39049
2.43575
2.43575
2.48216
2.48216
2.52963
2.52963
2.57807
2.57807
2.62738
2.62738
2.67745
2.67745
2.72818
2.72818
2.77947
2.77947
2.8312
2.8312
2.88328
2.88328
2.93558
2.93558
2.988
2.988
3.04042
3.04042
3.09271
3.09271
3.14476
3.14476
3.19645
3.19645
3.24763
3.24763
3.29821
3.29821
3.34806
3.34806
3.39708
3.39708
3.44519
3.44519
3.49234
3.49234
3.53848
3.53848
3.58364
3.58364
3.62785
3.62785
3.6712
3.6712
3.71384
3.71384
3.75593
3.75593
3.79771
3.79771
3.83945
3.83945
3.88143
3.88143
3.92398
3.92398
3.96743
3.96743
4.01213
4.01213
4.05839
4.05839
4.10654
4.10654
4.15689
4.15689
4.20969
4.20969
4.26521
4.26521
4.32366
4.32366
4.38524
4.38524
4.45011
4.45011
4.51842
4.51842
4.59028
4.59028
4.6658
4.6658
4.74506
4.74506
4.82813
4.82813
4.91507
4.91507
5.00594
5.00594
5.10079
5.10079
5.19966
5.19966
5.30264
5.30264
5.40979
5.40979
5.52121
5.52121
5.637
5.637
5.75731
5.75731
5.88229
5.88229
6.01211
6.01211
6.14699
6.14699
6.28713
6.28713
6.43277
6.43277
6.58417
6.58417
6.74158
6.74158
6.90528
6.90528
7.07553
7.07553
7.2526
7.2526
7.43676
7.43676
7.62825
7.62825
7.82731
7.82731
8.03418
8.03418
8.24906
8.24906
8.47214
8.47214
8.70361
8.70361
8.94364
8.94364
9.1924
9.1924
9.45006
9.45006
9.71679
9.71679
9.99276
9.99276
10.2781
10.2781
10.5731
10.5731
10.8779
10.8779
11.1927
11.1927
11.5176
11.5176
11.8528
11.8528
12.1982
12.1982
12.554
12.554
12.9199
12.9199
13.2957
13.2957
13.6811
13.6811
14.0756
14.0756
14.4786
14.4786
14.8894
14.8894
15.3072
15.3072
15.7314
15.7314
16.1611
16.1611
16.5956
16.5956
17.0344
17.0344
17.4771
17.4771
17.9235
17.9235
18.3736
18.3736
18.8277
18.8277
19.286
19.286
19.7492
19.7492
20.2178
20.2178
20.6926
20.6926
21.1743
21.1743
21.6636
21.6636
22.1613
22.1613
22.668
22.668
23.1843
23.1843
23.7104
23.7104
24.2465
24.2465
24.7928
24.7928
25.349
25.349
25.9146
25.9146
26.489
26.489
27.0711
27.0711
27.6597
27.6597
28.2535
28.2535
28.8508
28.8508
29.45
29.45
30.0494
30.0494
30.6474
30.6474
31.2424
31.2424
31.8333
31.8333
32.4191
32.4191
32.9992
32.9992
33.5733
33.5733
34.1415
34.1415
34.7044
34.7044
35.2628
35.2628
35.8181
35.8181
36.3718
36.3718
36.9263
36.9263
37.484
37.484
38.0483
38.0483
38.623
38.623
39.2127
39.2127
39.8229
39.8229
40.4596
40.4596
41.13
41.13
41.8419
41.8419
42.6041
42.6041
43.4259
43.4259
44.3175
44.3175
45.2898
45.2898
46.3538
46.3538
47.5208
47.5208
48.8022
48.8022
50.2085
50.2085
51.7497
51.7497
53.4341
53.4341
55.2681
55.2681
57.2558
57.2558
59.398
59.398
61.6931
61.6931
64.1369
64.1369
66.7247
66.7247
69.4524
69.4524
72.3184
72.3184
75.3252
75.3252
78.48
78.48
81.7946
81.7946
85.2849
85.2849
88.9707
88.9707
92.875
92.875
97.0242
97.0242
101.448
101.448
106.178
106.178
111.252
111.252
116.711
116.711
122.598
122.598
128.965
128.965
135.866
135.866
143.363
143.363
151.527
151.527
160.437
160.437
170.181
170.181
180.863
180.863
192.597
192.597
205.517
205.517
219.778
219.778
235.557
235.557
253.06
253.06
272.529
272.529
294.244
294.244
318.539
318.539
345.809
345.809
376.525
376.525
411.252
411.252
450.674
450.674
495.624
495.624
547.125
547.125
606.441
606.441
675.156
675.156
755.263
755.263
849.312
849.312
960.591
960.591
1093.41
1093.41
1253.48
1253.48
1448.54
1448.54
1689.22
1689.22
1990.46
1990.46
2373.8
2373.8
2871.09
2871.09
3531.09
3531.09
4431.27
4431.27
5700.58
5700.58
7566.02
7566.02
10456.2
10456.2
15256
15256
24022.6
24022.6
42384.8
42384.8
89885.2
89885.2
265169
265169
1.52416e+06
1.52416e+06
0.518886
0.518886
0.519976
0.519976
0.521221
0.521221
0.522729
0.522729
0.524519
0.524519
0.526632
0.526632
0.529119
0.529119
0.532022
0.532022
0.535376
0.535376
0.539203
0.539203
0.543517
0.543517
0.548318
0.548318
0.553601
0.553601
0.559351
0.559351
0.56555
0.56555
0.572178
0.572178
0.579208
0.579208
0.586619
0.586619
0.594387
0.594387
0.602495
0.602495
0.610929
0.610929
0.619678
0.619678
0.628738
0.628738
0.638108
0.638108
0.647792
0.647792
0.657797
0.657797
0.668135
0.668135
0.678816
0.678816
0.689851
0.689851
0.701252
0.701252
0.713025
0.713025
0.725179
0.725179
0.737717
0.737717
0.75064
0.75064
0.763945
0.763945
0.777626
0.777626
0.791677
0.791677
0.806087
0.806087
0.820847
0.820847
0.835946
0.835946
0.851375
0.851375
0.867125
0.867125
0.883188
0.883188
0.899558
0.899558
0.916227
0.916227
0.933191
0.933191
0.950441
0.950441
0.96797
0.96797
0.985769
0.985769
1.00382
1.00382
1.02212
1.02212
1.04065
1.04065
1.05939
1.05939
1.07832
1.07832
1.09744
1.09744
1.11672
1.11672
1.13616
1.13616
1.15574
1.15574
1.17548
1.17548
1.19536
1.19536
1.21539
1.21539
1.23559
1.23559
1.25597
1.25597
1.27655
1.27655
1.29735
1.29735
1.31838
1.31838
1.33969
1.33969
1.36128
1.36128
1.38318
1.38318
1.40541
1.40541
1.42797
1.42797
1.45089
1.45089
1.47414
1.47414
1.49773
1.49773
1.52163
1.52163
1.54581
1.54581
1.57023
1.57023
1.59484
1.59484
1.61959
1.61959
1.64443
1.64443
1.66931
1.66931
1.69421
1.69421
1.71911
1.71911
1.74402
1.74402
1.76897
1.76897
1.79402
1.79402
1.81927
1.81927
1.84482
1.84482
1.87082
1.87082
1.89741
1.89741
1.92473
1.92473
1.95293
1.95293
1.98213
1.98213
2.01246
2.01246
2.04402
2.04402
2.07689
2.07689
2.11113
2.11113
2.14678
2.14678
2.18387
2.18387
2.2224
2.2224
2.26237
2.26237
2.30373
2.30373
2.34646
2.34646
2.39049
2.39049
2.43575
2.43575
2.48216
2.48216
2.52963
2.52963
2.57807
2.57807
2.62738
2.62738
2.67745
2.67745
2.72818
2.72818
2.77947
2.77947
2.8312
2.8312
2.88328
2.88328
2.93558
2.93558
2.988
2.988
3.04042
3.04042
3.09271
3.09271
3.14476
3.14476
3.19644
3.19644
3.24763
3.24763
3.29821
3.29821
3.34805
3.34805
3.39708
3.39708
3.44519
3.44519
3.49234
3.49234
3.53848
3.53848
3.58364
3.58364
3.62785
3.62785
3.6712
3.6712
3.71384
3.71384
3.75593
3.75593
3.79771
3.79771
3.83945
3.83945
3.88143
3.88143
3.92398
3.92398
3.96743
3.96743
4.01213
4.01213
4.05839
4.05839
4.10654
4.10654
4.15689
4.15689
4.20969
4.20969
4.26521
4.26521
4.32366
4.32366
4.38524
4.38524
4.45011
4.45011
4.51842
4.51842
4.59028
4.59028
4.6658
4.6658
4.74506
4.74506
4.82813
4.82813
4.91507
4.91507
5.00594
5.00594
5.10079
5.10079
5.19966
5.19966
5.30264
5.30264
5.40979
5.40979
5.52121
5.52121
5.637
5.637
5.75731
5.75731
5.88229
5.88229
6.01211
6.01211
6.14699
6.14699
6.28713
6.28713
6.43277
6.43277
6.58417
6.58417
6.74158
6.74158
6.90528
6.90528
7.07553
7.07553
7.2526
7.2526
7.43676
7.43676
7.62825
7.62825
7.82731
7.82731
8.03418
8.03418
8.24906
8.24906
8.47214
8.47214
8.70361
8.70361
8.94364
8.94364
9.1924
9.1924
9.45006
9.45006
9.71679
9.71679
9.99276
9.99276
10.2781
10.2781
10.5731
10.5731
10.8779
10.8779
11.1927
11.1927
11.5176
11.5176
11.8528
11.8528
12.1982
12.1982
12.554
12.554
12.9199
12.9199
13.2957
13.2957
13.6811
13.6811
14.0756
14.0756
14.4786
14.4786
14.8894
14.8894
15.3072
15.3072
15.7314
15.7314
16.1611
16.1611
16.5956
16.5956
17.0344
17.0344
17.4771
17.4771
17.9235
17.9235
18.3736
18.3736
18.8277
18.8277
19.286
19.286
19.7492
19.7492
20.2178
20.2178
20.6926
20.6926
21.1743
21.1743
21.6636
21.6636
22.1613
22.1613
22.668
22.668
23.1843
23.1843
23.7104
23.7104
24.2465
24.2465
24.7928
24.7928
25.349
25.349
25.9146
25.9146
26.489
26.489
27.0711
27.0711
27.6597
27.6597
28.2535
28.2535
28.8508
28.8508
29.45
29.45
30.0494
30.0494
30.6474
30.6474
31.2424
31.2424
31.8333
31.8333
32.4191
32.4191
32.9992
32.9992
33.5733
33.5733
34.1415
34.1415
34.7044
34.7044
35.2628
35.2628
35.8181
35.8181
36.3718
36.3718
36.9263
36.9263
37.484
37.484
38.0483
38.0483
38.623
38.623
39.2127
39.2127
39.8229
39.8229
40.4596
40.4596
41.13
41.13
41.8419
41.8419
42.6041
42.6041
43.4259
43.4259
44.3175
44.3175
45.2898
45.2898
46.3538
46.3538
47.5208
47.5208
48.8022
48.8022
50.2085
50.2085
51.7497
51.7497
53.4341
53.4341
55.2681
55.2681
57.2557
57.2557
59.398
59.398
61.6931
61.6931
64.1369
64.1369
66.7247
66.7247
69.4524
69.4524
72.3184
72.3184
75.3252
75.3252
78.48
78.48
81.7946
81.7946
85.2849
85.2849
88.9707
88.9707
92.875
92.875
97.0242
97.0242
101.448
101.448
106.178
106.178
111.252
111.252
116.711
116.711
122.598
122.598
128.965
128.965
135.866
135.866
143.363
143.363
151.527
151.527
160.437
160.437
170.181
170.181
180.863
180.863
192.597
192.597
205.517
205.517
219.778
219.778
235.557
235.557
253.06
253.06
272.529
272.529
294.244
294.244
318.539
318.539
345.809
345.809
376.525
376.525
411.252
411.252
450.674
450.674
495.624
495.624
547.125
547.125
606.441
606.441
675.156
675.156
755.263
755.263
849.312
849.312
960.591
960.591
1093.41
1093.41
1253.48
1253.48
1448.54
1448.54
1689.22
1689.22
1990.46
1990.46
2373.8
2373.8
2871.09
2871.09
3531.09
3531.09
4431.27
4431.27
5700.58
5700.58
7566.02
7566.02
10456.2
10456.2
15256
15256
24022.6
24022.6
42384.8
42384.8
89885.2
89885.2
265169
265169
1.52416e+06
1.52416e+06
)
;

boundaryField
{
    walls
    {
        blending        binomial2;
        n               2;
        beta1           0.075;
        type            omegaWallFunction;
        value           nonuniform List<scalar> 8(1.52415e+06 1.52415e+06 1.52415e+06 1.52415e+06 1.52416e+06 1.52416e+06 1.52416e+06 1.52416e+06);
    }
    inlet
    {
        type            cyclic;
    }
    outlet
    {
        type            cyclic;
    }
    sides
    {
        type            empty;
    }
}


// ************************************************************************* //
