/*--------------------------------*- C++ -*----------------------------------*\
| =========                 |                                                 |
| \\      /  F ield         | OpenFOAM: The Open Source CFD Toolbox           |
|  \\    /   O peration     | Version:  2106                                  |
|   \\  /    A nd           | Website:  www.openfoam.com                      |
|    \\/     M anipulation  |                                                 |
\*---------------------------------------------------------------------------*/
FoamFile
{
    version     2.0;
    format      ascii;
    arch        "LSB;label=32;scalar=64";
    class       volTensorField;
    location    "16000";
    object      grad(U);
}
// * * * * * * * * * * * * * * * * * * * * * * * * * * * * * * * * * * * * * //

dimensions      [0 0 -1 0 0 0 0];

internalField   nonuniform List<tensor> 
2560
(
(0 2.0789e-30 -4.90387e-27 12.9422 -1.51782e-11 0 0.0187355 -1.09858e-14 -6.05041e-43)
(0 0 0 12.9422 -4.69791e-16 -3.47461e-18 0.0187355 -1.5057e-18 2.22035e-17)
(0 -8.25749e-25 4.00217e-32 12.9403 4.04586e-32 7.92749e-16 0.0564735 -6.31089e-30 -3.0707e-17)
(-9.01208e-18 0 -2.4013e-32 12.9403 2.37777e-16 -2.19242e-18 0.0564735 2.54777e-19 7.75282e-17)
(-2.37179e-18 -1.06159e-27 -6.6601e-29 12.9384 1.1569e-12 3.9445e-30 0.0776641 -3.4474e-15 1.2326e-32)
(0 1.61579e-29 1.57792e-32 12.9384 -1.71874e-16 4.11744e-19 0.0776641 -2.09282e-19 7.97698e-17)
(7.60572e-18 -1.91353e-29 -5.80523e-32 12.9365 6.76822e-13 4.9958e-16 0.0787816 -1.06651e-14 -4.91211e-18)
(0 1.59263e-29 4.66592e-32 12.9365 1.73663e-17 -3.59384e-18 0.0787816 -6.51318e-20 8.20488e-17)
(6.90408e-17 -1.67419e-27 -6.13206e-32 12.9346 1.55894e-27 -4.12627e-17 0.0799152 0 -1.62761e-18)
(-3.45204e-17 2.74716e-29 4.59904e-32 12.9346 2.09985e-17 -4.95386e-18 0.0799152 1.20562e-19 8.43686e-17)
(1.83007e-17 -2.37455e-29 -5.73922e-32 12.9326 1.49031e-13 -2.03565e-16 0.081065 -2.15759e-15 -9.00911e-19)
(1.46405e-16 2.32096e-29 4.53313e-32 12.9326 2.31562e-18 -4.80836e-18 0.081065 2.64808e-19 8.67327e-17)
(-2.37638e-17 -1.10324e-27 -2.06091e-30 12.9306 -1.49282e-27 -3.8896e-30 0.0822311 -6.31089e-30 0)
(9.50553e-17 1.90641e-29 1.48939e-32 12.9306 4.29274e-18 -4.87524e-18 0.0822311 3.98463e-19 8.91435e-17)
(-6.23629e-17 -1.03197e-28 -2.00442e-31 12.9287 1.86783e-15 9.80753e-17 0.083414 -5.98247e-18 -3.14125e-19)
(1.17222e-16 -7.51636e-30 -1.46804e-32 12.9287 1.4424e-17 -5.47886e-18 0.083414 6.92432e-19 9.15988e-17)
(1.00094e-16 -1.95222e-29 -7.00482e-32 12.9266 5.98346e-15 1.82898e-16 0.0846137 -5.46509e-17 -1.01904e-18)
(0 1.48173e-29 5.78799e-32 12.9266 2.33294e-17 -6.0339e-18 0.0846137 9.64049e-19 9.41003e-17)
(0 1.46049e-29 4.27878e-32 12.9246 2.24122e-15 2.22321e-16 0.0858305 -2.28922e-17 -1.36072e-18)
(-6.4233e-17 -7.30244e-30 -2.85252e-32 12.9246 -8.17705e-18 -6.44035e-18 0.0858305 1.14656e-18 9.66475e-17)
(-1.09726e-16 -1.68828e-29 -3.00935e-32 12.9226 5.85445e-16 2.48064e-16 0.0870647 -6.54449e-18 -1.57254e-18)
(0 2.15933e-29 4.21745e-32 12.9226 -4.75018e-17 -6.69269e-18 0.0870647 1.21742e-18 9.92379e-17)
(1.14686e-16 -4.01843e-29 -1.09038e-31 12.9205 7.41318e-17 2.69849e-16 0.0883165 -1.24975e-18 -1.74748e-18)
(-6.24049e-17 3.54731e-29 8.31401e-32 12.9205 -6.49715e-17 -7.53126e-18 0.0883165 1.2681e-18 1.01876e-16)
(1.23021e-16 -1.39859e-29 -1.36581e-32 12.9184 -5.47954e-17 2.90837e-16 0.0895862 -5.01949e-19 -1.91645e-18)
(-1.23021e-16 2.09788e-29 1.36581e-32 12.9184 -1.25891e-16 -7.90872e-18 0.0895862 1.21186e-18 1.04557e-16)
(-6.42711e-17 9.56912e-30 6.5791e-32 12.9163 -1.40741e-17 3.11916e-16 0.0908739 -4.91564e-20 -2.08979e-18)
(2.57084e-16 0 -4.0387e-32 12.9163 -1.74714e-16 -6.70854e-18 0.0908739 9.84072e-19 1.07287e-16)
(0 0 5.30775e-32 12.9142 1.17783e-30 3.33044e-16 0.0921799 -4.67029e-45 -2.26921e-18)
(0 -3.39696e-29 -5.30775e-32 12.9142 -1.82004e-16 -6.17091e-18 0.0921799 8.51083e-19 1.10068e-16)
(-7.66079e-17 4.71128e-30 1.18105e-32 12.912 4.59791e-17 3.5397e-16 0.0935046 -1.65295e-19 -2.45266e-18)
(3.06432e-16 0 0 12.912 -2.34275e-16 -6.83975e-18 0.0935046 7.33683e-19 1.12895e-16)
(0 2.64023e-29 7.73504e-32 12.9098 5.43563e-17 3.75052e-16 0.094848 -5.87938e-19 -2.63879e-18)
(-3.31639e-16 -2.64023e-29 -7.73504e-32 12.9098 -2.86506e-16 -8.46016e-18 0.094848 5.16185e-19 1.15769e-16)
(0 3.25298e-29 3.81209e-32 12.9076 -3.05132e-17 3.96165e-16 0.0962106 -6.6015e-19 -2.83431e-18)
(-3.57208e-16 -3.25298e-29 -3.81209e-32 12.9076 -2.67976e-16 -1.06098e-17 0.0962106 9.425e-20 1.1869e-16)
(1.12814e-16 -9.27825e-41 -2.50497e-32 12.9053 1.25612e-27 4.16946e-16 0.0975925 0 -3.03086e-18)
(0 1.92381e-29 2.50497e-32 12.9053 -3.10772e-16 -1.05575e-17 0.0975925 -1.20296e-19 1.21655e-16)
(1.02363e-16 2.05722e-29 3.79324e-32 12.9031 1.73661e-16 4.37984e-16 0.098994 -9.71801e-19 -3.23165e-18)
(-4.09454e-16 -3.1604e-29 -6.17266e-32 12.9031 -3.79714e-16 -9.15331e-18 0.098994 -5.81473e-19 1.24674e-16)
(0 3.11511e-29 7.30103e-32 12.9008 1.82218e-16 4.59557e-16 0.100415 -1.67901e-18 -3.44249e-18)
(0 -3.11511e-29 -7.30103e-32 12.9008 -3.89042e-16 -8.69159e-18 0.100415 -1.10334e-18 1.27746e-16)
(-1.15803e-16 -7.57101e-30 -1.27751e-32 12.8984 1.45934e-16 4.81249e-16 0.101857 -1.13349e-18 -3.66219e-18)
(0 2.45637e-29 3.59819e-32 12.8984 -4.12368e-16 -8.88314e-18 0.101857 -1.57825e-18 1.30871e-16)
(3.03267e-16 -4.37125e-29 -9.53186e-32 12.896 1.05389e-16 5.03088e-16 0.103319 -1.15508e-18 -3.88596e-18)
(0 4.84232e-29 9.45766e-32 12.896 -3.95329e-16 -1.00062e-17 0.103319 -2.20676e-18 1.34046e-16)
(0 2.49943e-29 3.49579e-32 12.8936 1.28117e-16 5.24583e-16 0.104801 -5.16967e-19 -4.11943e-18)
(-5.18525e-16 -3.57969e-29 -5.82632e-32 12.8936 -3.573e-16 -1.23628e-17 0.104801 -2.50882e-18 1.37269e-16)
(1.36695e-16 3.05733e-29 5.81292e-32 12.8912 3.40515e-16 5.46272e-16 0.106305 -2.32051e-18 -4.34925e-18)
(0 -3.52838e-29 -6.89137e-32 12.8912 -4.75323e-16 -1.35576e-17 0.106305 -2.47985e-18 1.40538e-16)
(-4.9166e-16 4.99949e-29 8.91666e-32 12.8887 3.59997e-16 5.6887e-16 0.10783 -3.26229e-18 -4.59784e-18)
(2.03941e-16 -4.05745e-29 -6.7926e-32 12.8887 -5.80503e-16 -1.15212e-17 0.10783 -3.27651e-18 1.43858e-16)
(6.54399e-16 -5.98369e-29 -1.09441e-31 12.8861 4.3897e-16 5.91116e-16 0.109376 -2.71449e-18 -4.85481e-18)
(1.008e-15 5.14195e-29 7.81112e-32 12.8861 -5.50967e-16 -8.19416e-18 0.109376 -4.53439e-18 1.47237e-16)
(0 -2.81569e-29 -5.4994e-32 12.8835 5.8696e-16 6.1343e-16 0.110944 -4.6986e-18 -5.11021e-18)
(6.33996e-16 3.37883e-29 5.4994e-32 12.8835 -4.74129e-16 -5.65561e-18 0.110944 -5.4653e-18 1.50679e-16)
(1.65977e-16 1.74931e-29 2.2468e-32 12.8809 5.34494e-16 6.36309e-16 0.112534 -5.34305e-18 -5.38136e-18)
(0 -1.11014e-29 -2.16823e-32 12.8809 -4.22007e-16 -1.3165e-17 0.112534 -5.92546e-18 1.54188e-16)
(-3.47123e-16 9.41932e-30 1.96856e-32 12.8782 5.62788e-16 6.59213e-16 0.114146 -3.91941e-18 -5.65972e-18)
(-1.38849e-15 0 0 12.8782 -6.20358e-16 -2.23526e-17 0.114146 -6.75849e-18 1.57711e-16)
(-3.70994e-16 2.08872e-29 5.17488e-32 12.8755 7.75133e-16 6.83239e-16 0.115781 -6.00117e-18 -5.94506e-18)
(-7.2502e-16 -1.07854e-29 -2.10653e-32 12.8755 -8.87718e-16 -2.0825e-17 0.115781 -8.93379e-18 1.61295e-16)
(0 3.18925e-29 6.229e-32 12.8727 8.65014e-16 7.07111e-16 0.117438 -7.85359e-18 -6.25766e-18)
(-7.56235e-16 -3.18925e-29 -6.229e-32 12.8727 -8.80157e-16 -1.36949e-17 0.117438 -1.11226e-17 1.64943e-16)
(0 -3.14354e-29 -5.11644e-32 12.8698 8.20745e-16 7.30395e-16 0.119119 -7.81714e-18 -6.55482e-18)
(7.87898e-16 3.14354e-29 5.11644e-32 12.8698 -7.64928e-16 -9.59617e-18 0.119119 -1.24093e-17 1.68679e-16)
(-2.05004e-16 4.70817e-30 8.85438e-33 12.8669 7.88472e-16 7.54473e-16 0.120823 -7.26406e-18 -6.87205e-18)
(0 5.16414e-30 0 12.8669 -8.25624e-16 -1.0551e-17 0.120823 -1.44276e-17 1.7247e-16)
(-2.13148e-16 3.01585e-29 3.83937e-32 12.8639 8.27138e-16 7.78619e-16 0.122551 -7.43996e-18 -7.19909e-18)
(0 -2.54506e-29 -2.9825e-32 12.8639 -8.36625e-16 -1.55072e-17 0.122551 -1.59319e-17 1.7632e-16)
(-2.21408e-16 1.9759e-29 2.78662e-32 12.8608 8.64826e-16 8.0219e-16 0.124303 -8.21367e-18 -7.53347e-18)
(-8.85633e-16 -1.00343e-29 -9.79916e-33 12.8608 -7.75862e-16 -2.41268e-17 0.124303 -1.65876e-17 1.80204e-16)
(5.77779e-16 -1.9543e-29 -1.76129e-32 12.8576 1.01928e-15 8.26033e-16 0.126079 -8.38652e-18 -7.86568e-18)
(-3.47992e-16 1.48358e-29 9.65871e-33 12.8576 -8.71396e-16 -2.37179e-17 0.126079 -1.79069e-17 1.84121e-16)
(2.38286e-16 -2.90784e-29 -2.66604e-32 12.8543 1.20203e-15 8.50845e-16 0.127879 -1.14837e-17 -8.22181e-18)
(0 2.43719e-29 1.90406e-32 12.8543 -1.12482e-15 -1.74927e-17 0.127879 -2.03287e-17 1.8811e-16)
(-2.46906e-16 2.39241e-29 2.13421e-32 12.8509 1.26096e-15 8.75582e-16 0.129704 -1.22687e-17 -8.58983e-18)
(0 -1.44136e-29 -4.69191e-33 12.8509 -1.35811e-15 -1.56789e-17 0.129704 -2.3677e-17 1.92167e-16)
(0 1.89426e-29 3.23727e-32 12.8474 1.32198e-15 9.00287e-16 0.131554 -1.30098e-17 -8.96206e-18)
(0 -2.8414e-29 -4.1622e-32 12.8474 -1.34758e-15 -1.59599e-17 0.131554 -2.60223e-17 1.96288e-16)
(-2.64517e-16 1.40406e-29 2.01821e-32 12.8438 1.2449e-15 9.25563e-16 0.133428 -1.3878e-17 -9.34746e-18)
(7.29603e-16 0 -4.55838e-33 12.8438 -1.14725e-15 -1.43952e-17 0.133428 -2.81842e-17 2.00462e-16)
(0 -3.22062e-29 -3.14514e-32 12.8401 1.2128e-15 9.49839e-16 0.135328 -1.17891e-17 -9.74982e-18)
(1.09405e-15 3.22062e-29 3.14514e-32 12.8401 -1.22082e-15 -1.50401e-17 0.135328 -3.07691e-17 2.04689e-16)
(2.82635e-16 1.34353e-29 1.20486e-32 12.8362 1.47056e-15 9.73863e-16 0.137254 -1.3608e-17 -1.01331e-17)
(-1.13054e-15 -2.72097e-29 -2.65719e-32 12.8362 -1.5761e-15 -2.2548e-17 0.137254 -3.43957e-17 2.08947e-16)
(2.91888e-16 -2.70531e-29 -1.83102e-32 12.8321 1.59068e-15 9.99132e-16 0.139205 -1.76476e-17 -1.05493e-17)
(0 2.23497e-29 1.30955e-32 12.8321 -1.57011e-15 -2.69888e-17 0.139205 -3.77594e-17 2.13225e-16)
(-3.01273e-16 -4.1087e-30 4.38328e-34 12.8279 1.58452e-15 1.02448e-15 0.141181 -1.66131e-17 -1.09783e-17)
(0 1.32176e-29 8.60523e-33 12.8279 -1.36402e-15 -2.31593e-17 0.141181 -4.12084e-17 2.17548e-16)
(3.10792e-16 3.98313e-30 -6.36242e-36 12.8235 1.71384e-15 1.04988e-15 0.143184 -1.80291e-17 -1.14164e-17)
(1.24317e-15 0 0 12.8235 -1.30721e-15 -1.81666e-17 0.143184 -4.3741e-17 2.21936e-16)
(3.01213e-16 -1.28415e-29 -8.36033e-33 12.8188 1.74104e-15 1.07476e-15 0.145212 -1.9988e-17 -1.1867e-17)
(9.8057e-16 1.7122e-29 8.36033e-33 12.8188 -1.41187e-15 -1.87457e-17 0.145212 -4.59039e-17 2.26376e-16)
(-3.30237e-16 4.82196e-31 3.19509e-33 12.814 1.68093e-15 1.09945e-15 0.147266 -1.91738e-17 -1.23146e-17)
(0 1.26574e-29 4.12025e-33 12.814 -1.59538e-15 -2.31293e-17 0.147266 -4.93595e-17 2.30858e-16)
(-3.40167e-16 4.70096e-30 3.8587e-33 12.8088 1.63337e-15 1.12482e-15 0.149346 -1.91914e-17 -1.86401e-17)
(0 8.31733e-30 2.0306e-33 12.8088 -1.62102e-15 -2.6212e-17 0.149346 -5.28504e-17 2.35406e-16)
(0 -1.22972e-29 -2.0015e-33 12.8034 1.6949e-15 1.14882e-15 0.151452 -1.86262e-17 -2.81483e-17)
(0 1.63963e-29 2.0015e-33 12.8034 -1.62924e-15 -2.98049e-17 0.151452 -5.5869e-17 2.4001e-16)
(-9.29074e-16 -3.38063e-30 -9.86404e-34 12.7977 2.27116e-15 1.17347e-15 0.153583 -2.12095e-17 -2.43557e-17)
(0 2.02016e-29 2.95921e-33 12.7977 -1.96244e-15 -3.19518e-17 0.153583 -6.10588e-17 2.44659e-16)
(0 3.9824e-29 1.94453e-33 12.7916 2.80331e-15 1.20042e-15 0.15574 -3.30063e-17 -2.03743e-17)
(-1.48323e-15 -3.58416e-29 -1.94453e-33 12.7916 -2.03844e-15 -2.57471e-17 0.15574 -6.84305e-17 2.4935e-16)
(-3.81312e-16 -2.67062e-29 1.91666e-33 12.7852 2.47023e-15 1.22682e-15 0.157923 -3.47919e-17 -1.62477e-17)
(1.52525e-15 3.53279e-29 -1.91666e-33 12.7852 -1.70874e-15 -2.52959e-17 0.157923 -7.42226e-17 2.54122e-16)
(-5.44523e-16 2.70835e-29 -6.13988e-33 12.7783 2.2022e-15 1.2517e-15 0.16013 -2.57427e-17 -1.19631e-17)
(5.44523e-16 -2.70835e-29 6.13988e-33 12.7783 -1.94564e-15 -3.14959e-17 0.16013 -7.81443e-17 2.58905e-16)
(-4.02765e-16 1.61368e-29 1.04834e-33 12.7709 2.38688e-15 9.86076e-32 0.162362 -2.90916e-17 -7.5541e-18)
(1.61106e-15 -1.14408e-29 3.72423e-33 12.7709 -2.18002e-15 -2.48821e-17 0.162362 -8.3171e-17 2.63746e-16)
(8.27437e-16 -3.19431e-29 1.98052e-28 12.7631 2.20548e-15 -3.86357e-16 0.164618 -3.11942e-17 -7.6738e-18)
(1.65487e-15 2.25537e-29 -3.67085e-33 12.7631 -2.09489e-15 -2.61229e-17 0.164618 -8.9549e-17 2.68708e-16)
(0 -1.48203e-29 -1.80912e-33 12.7547 2.15312e-15 -6.77751e-15 0.166897 -2.52629e-17 -2.86653e-17)
(0 2.22305e-29 3.61824e-33 12.7547 -2.37427e-15 -4.08937e-17 0.166897 -9.66642e-17 2.73686e-16)
(7.78839e-17 -9.91479e-30 -1.42655e-32 12.7456 2.78906e-15 -6.98244e-15 0.1692 -3.07371e-17 -5.06307e-17)
(-5.1397e-16 2.19119e-29 2.13983e-32 12.7456 -2.64384e-15 -4.03359e-17 0.1692 -1.05301e-16 2.78678e-16)
(-8.95008e-16 3.81772e-29 2.81221e-32 12.7359 3.1166e-15 -7.1627e-15 0.171524 -4.28936e-17 -7.35029e-17)
(1.79002e-15 -2.87971e-29 -3.51527e-32 12.7359 -2.7201e-15 -2.12692e-17 0.171524 -1.15144e-16 2.83743e-16)
(-4.5908e-16 4.68931e-30 0 12.7254 2.89424e-15 -7.3508e-15 0.17387 -4.04633e-17 -9.72368e-17)
(0 7.09608e-30 1.38595e-32 12.7254 -2.44359e-15 -2.38332e-17 0.17387 -1.25061e-16 2.88993e-16)
(-4.70817e-16 -2.30569e-30 -3.88034e-32 12.7141 2.95775e-15 -7.56163e-15 0.176235 -3.80713e-17 -1.06309e-16)
(1.88327e-15 1.39888e-29 6.83045e-32 12.7141 -2.12687e-15 -4.44133e-17 0.176235 -1.3252e-16 2.94175e-16)
(-4.82715e-16 2.53691e-29 5.90095e-32 12.7019 3.1901e-15 -7.76836e-15 0.17862 -4.341e-17 -1.10738e-16)
(0 -1.37883e-29 0 12.7019 -2.91357e-15 -4.52145e-17 0.17862 -1.37982e-16 2.99347e-16)
(-9.89551e-16 2.29612e-29 6.96462e-32 12.6887 3.16152e-15 -7.96656e-15 0.181021 -4.57247e-17 -1.15081e-16)
(-1.9791e-15 -1.35906e-29 -5.30884e-32 12.6887 -3.10447e-15 -3.19963e-17 0.181021 -1.49372e-16 3.04589e-16)
(-1.48533e-15 -1.74225e-29 -1.6006e-31 12.6744 3.15039e-15 -8.158e-15 0.183439 -4.38658e-17 -1.19527e-16)
(4.05601e-15 2.00938e-29 1.56983e-31 12.6744 -2.50939e-15 -3.12177e-17 0.183439 -1.57541e-16 3.0996e-16)
(-1.55818e-15 4.70593e-29 3.02656e-31 12.659 3.51929e-15 -8.35307e-15 0.18587 -4.67417e-17 -1.24184e-16)
(-2.07757e-15 -3.30096e-29 -2.57888e-31 12.659 -2.76765e-15 -4.38702e-17 0.18587 -1.66e-16 3.15301e-16)
(-1.44777e-15 -2.7856e-29 -2.35737e-31 12.6422 3.75665e-15 -8.54594e-15 0.188313 -5.59905e-17 -1.28778e-16)
(2.1278e-15 3.25365e-29 2.54192e-31 12.6422 -2.59878e-15 -5.53323e-17 0.188313 -1.79162e-16 3.20553e-16)
(5.44677e-16 -1.10932e-29 -1.22227e-31 12.6241 3.4876e-15 -8.75717e-15 0.190766 -5.5187e-17 -1.34211e-16)
(0 6.41404e-30 1.00219e-31 12.6241 -2.33205e-15 -6.16455e-17 0.190766 -1.86337e-16 3.25727e-16)
(0 -3.16105e-29 -3.4574e-31 12.6044 3.20804e-15 -8.97989e-15 0.193226 -4.94933e-17 -1.39385e-16)
(2.23029e-15 3.16105e-29 3.4574e-31 12.6044 -2.81122e-15 -4.5553e-17 0.193226 -1.93597e-16 3.30775e-16)
(0 -1.2463e-29 -1.46051e-31 12.5831 3.53403e-15 -9.18467e-15 0.19569 -4.82254e-17 -1.44517e-16)
(2.28255e-15 1.2463e-29 1.46051e-31 12.5831 -3.15074e-15 -2.04008e-17 0.19569 -2.0441e-16 3.35856e-16)
(-8.64435e-16 2.45687e-29 1.91943e-31 12.56 4.27463e-15 -9.36129e-15 0.198156 -6.10916e-17 -1.49046e-16)
(2.3355e-15 -6.14218e-30 -9.59716e-32 12.56 -3.10937e-15 -3.36425e-17 0.198156 -2.16361e-16 3.41001e-16)
(-8.52046e-16 3.63249e-29 3.78384e-31 12.5349 4.5279e-15 -9.52434e-15 0.20062 -7.30288e-17 -1.53975e-16)
(8.52046e-16 -3.63249e-29 -3.78384e-31 12.5349 -3.73052e-15 -5.835e-17 0.20062 -2.3042e-16 3.45744e-16)
(-1.22172e-15 1.53059e-29 8.47468e-32 12.5078 4.21878e-15 -9.71693e-15 0.203079 -7.09968e-17 -1.59673e-16)
(0 -5.96738e-30 0 12.5078 -3.82467e-15 -5.29603e-17 0.203079 -2.51223e-16 3.50299e-16)
(0 -2.94092e-29 -3.67616e-31 12.4784 4.016e-15 -9.91464e-15 0.205528 -6.51189e-17 -1.65006e-16)
(2.49846e-15 2.94092e-29 3.67616e-31 12.4784 -2.69955e-15 -5.61295e-17 0.205528 -2.66885e-16 3.54805e-16)
(0 1.73926e-29 2.7176e-31 12.4466 4.11341e-15 -1.01002e-14 0.207964 -6.63886e-17 -1.70561e-16)
(2.55415e-15 -1.15951e-29 -9.05867e-32 12.4466 -2.74626e-15 -5.68664e-17 0.207964 -2.75822e-16 3.58968e-16)
(-6.52632e-16 4.66392e-30 5.6364e-32 12.4123 4.35158e-15 -1.02855e-14 0.210382 -7.02859e-17 -1.7613e-16)
(0 5.71445e-30 8.92883e-32 12.4123 -3.43634e-15 -5.5138e-17 0.210382 -2.89964e-16 3.6305e-16)
(6.66898e-16 6.604e-30 2.02641e-31 12.3752 4.30746e-15 -1.046e-14 0.212778 -7.64187e-17 -1.81565e-16)
(-1.58542e-15 -5.63255e-30 -8.80086e-32 12.3752 -3.35093e-15 -6.41168e-17 0.212778 -3.0661e-16 3.66884e-16)
(7.8135e-16 -1.11036e-29 -2.60242e-31 12.3351 4.132e-15 -1.06288e-14 0.215146 -7.08253e-17 -1.8719e-16)
(-7.8135e-16 1.66555e-29 2.60242e-31 12.3351 -3.68582e-15 -6.38808e-17 0.215146 -3.17437e-16 3.70484e-16)
(1.5403e-15 -1.64168e-29 -2.56512e-31 12.292 4.31482e-15 -1.0815e-14 0.217482 -7.25262e-17 -1.93485e-16)
(0 1.64168e-29 2.56512e-31 12.292 -4.35169e-15 -5.42974e-17 0.217482 -3.32965e-16 3.73828e-16)
(-6.62307e-16 -1.47781e-30 -3.51068e-31 12.2456 4.58025e-15 -1.10034e-14 0.219779 -7.93811e-17 -1.99447e-16)
(0 1.61815e-29 5.05671e-31 12.2456 -4.00202e-15 -3.41884e-17 0.219779 -3.53061e-16 3.77164e-16)
(-2.22211e-15 2.06019e-29 2.49268e-31 12.1957 5.31309e-15 -1.11452e-14 0.222033 -8.4197e-17 -2.04328e-16)
(1.49647e-15 -1.59495e-29 -1.66141e-31 12.1957 -3.99874e-15 -4.7231e-17 0.222033 -3.70337e-16 3.80307e-16)
(7.40748e-16 5.9392e-31 -2.52684e-31 12.1423 5.62512e-15 -1.12878e-14 0.224237 -1.08447e-16 -2.1057e-16)
(-2.96299e-15 -5.24031e-30 1.6376e-31 12.1423 -5.13538e-15 -9.86267e-17 0.224237 -3.92267e-16 3.82934e-16)
(7.26938e-16 -1.03304e-29 -4.84238e-31 12.085 5.3155e-15 -1.14678e-14 0.226386 -9.82148e-17 -2.17072e-16)
(-3.75098e-15 1.54956e-29 4.84238e-31 12.085 -5.36956e-15 -7.96479e-17 0.226386 -4.19883e-16 3.84953e-16)
(-1.48795e-15 2.50078e-29 8.96884e-31 12.0237 5.68085e-15 -1.15853e-14 0.228472 -9.99951e-17 -2.21215e-16)
(6.17143e-15 -1.01823e-29 -4.77298e-31 12.0237 -4.53783e-15 5.36204e-18 0.228472 -4.43038e-16 3.87138e-16)
(-6.25497e-16 1.54347e-29 5.19465e-31 11.9584 5.98028e-15 -1.16733e-14 0.230491 -1.15013e-16 -2.26834e-16)
(4.56051e-15 -3.01092e-29 -7.84095e-31 11.9584 -4.57314e-15 5.87659e-18 0.230491 -4.62622e-16 3.89592e-16)
(0 -4.94628e-30 0 11.8887 5.80666e-15 -1.18011e-14 0.232435 -1.14499e-16 -2.32707e-16)
(0 9.89256e-30 3.09143e-31 11.8887 -4.31758e-15 -5.70969e-17 0.232435 -4.95074e-16 3.91434e-16)
(-1.32446e-16 -2.46206e-29 -1.09762e-30 11.8148 5.49755e-15 -1.19103e-14 0.234298 -1.11573e-16 -2.37823e-16)
(2.58823e-15 2.92523e-29 1.21885e-30 11.8148 -3.88502e-15 -9.47714e-17 0.234298 -5.19277e-16 3.92641e-16)
(-8.34607e-16 1.90466e-29 4.28441e-31 11.7363 5.79701e-15 -1.20077e-14 0.236076 -1.05554e-16 -2.43456e-16)
(-3.33843e-15 -9.61102e-30 0 11.7363 -4.59397e-15 -1.0735e-16 0.236076 -5.41997e-16 3.93074e-16)
(2.184e-15 -1.88343e-29 -5.79277e-31 11.6532 6.98305e-15 -1.2107e-14 0.23776 -1.2693e-16 -2.48856e-16)
(2.06977e-15 1.42099e-29 4.4406e-31 11.6532 -4.94663e-15 -7.06913e-17 0.23776 -5.61195e-16 3.93092e-16)
(-2.18117e-15 3.26281e-29 1.31004e-30 11.5655 7.65137e-15 -1.21375e-14 0.239347 -1.57221e-16 -2.51858e-16)
(4.78226e-15 -2.80125e-29 -1.16719e-30 11.5655 -5.5167e-15 -1.37949e-19 0.239347 -5.78193e-16 3.93154e-16)
(-8.83434e-16 9.77163e-33 -1.37171e-31 11.4731 7.16182e-15 -1.21305e-14 0.24083 -1.58418e-16 -2.55851e-16)
(0 4.60183e-30 2.87615e-31 11.4731 -6.16664e-15 -3.0718e-17 0.24083 -6.10914e-16 3.93299e-16)
(-8.99954e-16 4.61085e-30 1.58023e-31 11.376 6.72291e-15 -1.21748e-14 0.242204 -1.4119e-16 -2.61127e-16)
(0 4.53588e-30 2.83492e-31 11.376 -5.86716e-15 -7.28281e-17 0.242204 -6.38136e-16 3.92496e-16)
(-9.16585e-16 -1.77482e-29 -1.13255e-31 11.2741 7.37751e-15 -1.21775e-14 0.243465 -1.44287e-16 -2.63464e-16)
(3.66634e-15 2.68252e-29 5.58858e-31 11.2741 -5.59514e-15 -2.89892e-17 0.243465 -6.67189e-16 3.915e-16)
(9.3332e-16 -2.22243e-29 -1.00046e-30 11.1676 7.87521e-15 -1.21387e-14 0.244609 -1.73729e-16 -2.6707e-16)
(0 1.76271e-29 8.26273e-31 11.1676 -5.99845e-15 -4.02574e-17 0.244609 -6.98335e-16 3.90328e-16)
(1.22262e-15 -1.30309e-29 -5.42953e-31 11.0564 6.78979e-15 -1.21387e-14 0.245631 -1.70423e-16 -2.71178e-16)
(0 1.73745e-29 5.42953e-31 11.0564 -6.34036e-15 -7.35007e-17 0.245631 -7.3221e-16 3.8856e-16)
(2.38028e-16 -3.96695e-30 -3.44677e-31 10.9407 6.20227e-15 -1.21462e-14 0.24653 -1.30342e-16 -2.75236e-16)
(-1.2051e-15 1.28441e-29 1.07034e-30 10.9407 -5.44071e-15 -4.97834e-17 0.24653 -7.7078e-16 3.86106e-16)
(0 -3.37601e-29 -2.11e-30 10.8205 7.61497e-15 -1.20916e-14 0.247302 -1.48794e-16 -2.76611e-16)
(7.87256e-15 3.79801e-29 2.37375e-30 10.8205 -4.55759e-15 3.32762e-17 0.247302 -8.00839e-16 3.82962e-16)
(0 0 0 10.696 9.18052e-15 -1.19347e-14 0.247946 -1.99102e-16 -2.7598e-16)
(4.00456e-15 8.31905e-30 5.19941e-31 10.696 -5.89328e-15 6.87238e-17 0.247946 -8.2913e-16 3.79523e-16)
(-1.01827e-15 4.55664e-29 2.01075e-30 10.5674 9.02594e-15 -1.17284e-14 0.248461 -2.26167e-16 -2.74953e-16)
(-4.0731e-15 -3.68992e-29 -1.53747e-30 10.5674 -7.16475e-15 -2.91016e-17 0.248461 -8.7406e-16 3.75169e-16)
(1.0202e-16 2.07302e-29 9.82725e-31 10.4348 7.85015e-15 -1.16573e-14 0.248846 -1.9762e-16 -2.8065e-16)
(-5.27933e-15 -1.21234e-29 -5.05143e-31 10.4348 -6.63915e-15 -1.2969e-16 0.248846 -9.20944e-16 3.6938e-16)
(-1.12118e-15 1.19497e-29 9.95806e-31 10.2985 8.19869e-15 -1.16316e-14 0.249101 -1.76349e-16 -2.81758e-16)
(0 -3.98323e-30 -4.97903e-31 10.2985 -6.22718e-15 -8.00522e-17 0.249101 -9.51008e-16 3.6203e-16)
(-1.10511e-15 7.85227e-30 7.3615e-31 10.1587 9.74097e-15 -1.15165e-14 0.249227 -2.20383e-16 -2.83182e-16)
(4.27984e-15 0 -2.45383e-31 10.1587 -6.96467e-15 -3.63007e-18 0.249227 -9.81144e-16 3.55202e-16)
(-2.01603e-18 3.41621e-29 2.16702e-30 10.0157 9.66106e-15 -1.13381e-14 0.249227 -2.57721e-16 -2.81068e-16)
(0 -3.09589e-29 -1.93493e-30 10.0157 -7.49092e-15 3.0174e-17 0.249227 -1.02702e-15 3.48082e-16)
(0 -4.95872e-29 -3.3376e-30 9.86964 8.07017e-15 -1.11634e-14 0.249101 -2.22833e-16 -2.82594e-16)
(8.83652e-15 4.95872e-29 3.3376e-30 9.86964 -5.88483e-15 6.32358e-17 0.249101 -1.07748e-15 3.40975e-16)
(1.05827e-15 -1.12792e-29 -9.39932e-31 9.72091 7.73925e-15 -1.10488e-14 0.248853 -1.84361e-16 -2.83389e-16)
(7.9168e-15 1.50389e-29 9.39932e-31 9.72091 -5.63421e-15 3.67621e-17 0.248853 -1.10403e-15 3.3342e-16)
(-2.27841e-15 1.63715e-30 5.56543e-31 9.56977 8.31554e-15 -1.08631e-14 0.248486 -2.12286e-16 -2.81153e-16)
(0 7.41169e-30 0 9.56977 -6.75498e-15 9.92147e-18 0.248486 -1.14352e-15 3.24773e-16)
(-1.15651e-15 -2.78879e-30 2.87198e-31 9.41652 8.91849e-15 -1.06522e-14 0.248004 -2.19929e-16 -2.80486e-16)
(9.2521e-15 1.46109e-29 4.56591e-31 9.41652 -6.41027e-15 -1.46006e-17 0.248004 -1.19123e-15 3.15743e-16)
(1.1738e-15 -1.89061e-29 -1.19557e-30 9.26147 9.46906e-15 -1.0555e-14 0.247411 -2.50526e-16 -2.84152e-16)
(0 1.44015e-29 9.00094e-31 9.26147 -7.06797e-15 -8.44741e-17 0.247411 -1.23015e-15 3.06268e-16)
(-1.19107e-15 1.15942e-29 -1.39479e-31 9.10492 9.25941e-15 -1.05044e-14 0.246711 -2.56037e-16 -2.85938e-16)
(0 0 8.87193e-31 9.10492 -8.14857e-15 -8.70056e-17 0.246711 -1.28786e-15 2.9573e-16)
(-1.2083e-15 2.54785e-29 1.6248e-30 8.94719 9.66778e-15 -1.03894e-14 0.24591 -2.46404e-16 -2.86098e-16)
(4.83319e-15 -2.09875e-29 -1.31172e-30 8.94719 -7.87104e-15 6.59437e-17 0.24591 -1.35004e-15 2.85546e-16)
(-1.22549e-15 1.82681e-29 1.18436e-30 8.78856 1.06372e-14 -1.02024e-14 0.245013 -2.86186e-16 -2.83794e-16)
(2.96102e-15 -6.89555e-30 -4.30972e-31 8.78856 -8.02357e-15 1.21383e-16 0.245013 -1.39378e-15 2.7719e-16)
(-2.48525e-15 8.93058e-30 -1.86252e-31 8.62934 1.08051e-14 -9.97472e-15 0.244025 -3.08166e-16 -2.8148e-16)
(0 0 8.4959e-31 8.62934 -8.8509e-15 5.75753e-17 0.244025 -1.45858e-15 2.67564e-16)
(-3.14539e-15 1.78562e-29 1.59695e-30 8.46981 1.00569e-14 -9.74603e-15 0.242951 -3.04157e-16 -2.78863e-16)
(0 -6.69931e-30 -8.37413e-31 8.46981 -8.25088e-15 -1.51903e-17 0.242951 -1.53555e-15 2.57822e-16)
(0 -1.32066e-29 -4.12705e-31 8.31025 8.55642e-15 -9.63409e-15 0.241798 -2.73862e-16 -2.83148e-16)
(-5.1069e-15 1.98099e-29 4.12705e-31 8.31025 -6.04535e-15 -8.59641e-17 0.241798 -1.59552e-15 2.47093e-16)
(3.12569e-15 -2.39826e-29 -1.17136e-30 8.15093 7.70835e-15 -9.58338e-15 0.240571 -2.24902e-16 -2.84009e-16)
(3.34267e-15 1.95259e-29 8.13581e-31 8.15093 -4.77537e-15 -5.68704e-17 0.240571 -1.63206e-15 2.35181e-16)
(1.31055e-15 -1.7281e-29 -1.97092e-30 7.99209 7.7855e-15 -9.42603e-15 0.239275 -2.3133e-16 -2.81927e-16)
(-5.24218e-15 1.28307e-29 1.60384e-30 7.99209 -5.28473e-15 -4.95335e-17 0.239275 -1.66971e-15 2.23129e-16)
(-1.32734e-15 1.70898e-29 1.16624e-30 7.83399 7.94333e-15 -9.2811e-15 0.237917 -2.36156e-16 -2.83436e-16)
(5.30935e-15 -6.32341e-30 -3.95213e-31 7.83399 -5.93077e-15 -5.02233e-17 0.237917 -1.71339e-15 2.09818e-16)
(0 1.24656e-29 5.72071e-31 7.67683 9.37419e-15 -6.11381e-15 0.236501 -2.4779e-16 -9.44584e-17)
(0 -6.23278e-30 -3.89549e-31 7.67683 -6.21221e-15 2.26764e-17 0.236501 -1.75286e-15 1.96701e-16)
(-1.72923e-15 2.45738e-29 -1.36985e-29 7.52084 1.12413e-14 -8.45156e-16 0.235034 -3.32144e-16 -1.32475e-17)
(5.44262e-15 -6.14345e-30 -7.67931e-31 7.52084 -5.95562e-15 2.30533e-17 0.235034 -1.80182e-15 1.84624e-16)
(4.78606e-15 -2.25641e-29 -1.56047e-30 7.3662 1.09461e-14 -3.37584e-16 0.233521 -3.72964e-16 -8.18982e-18)
(-3.40889e-15 1.81662e-29 1.13539e-30 7.3662 -6.33566e-15 -2.29233e-17 0.233521 -1.85058e-15 1.71303e-16)
(0 1.19372e-29 -9.78326e-31 7.21309 9.41832e-15 -2.63899e-29 0.231967 -3.2296e-16 0)
(-7.25439e-15 -5.96861e-30 0 7.21309 -6.67725e-15 -4.7305e-17 0.231967 -1.91605e-15 1.58375e-16)
(-1.65593e-15 1.17661e-29 -3.39607e-31 7.06167 9.34793e-15 1.9566e-16 0.230376 -2.84577e-16 -3.20264e-18)
(0 0 7.35383e-31 7.06167 -6.55784e-15 -2.86572e-17 0.230376 -1.98208e-15 1.44261e-16)
(0 1.15975e-29 7.24843e-31 6.91209 9.88115e-15 4.9749e-16 0.228753 -3.27779e-16 -1.22962e-17)
(-1.6322e-15 -5.79874e-30 0 6.91209 -7.20294e-15 1.76089e-17 0.228753 -2.04263e-15 1.30231e-16)
(1.44222e-15 2.42071e-29 3.15275e-30 6.76448 9.90507e-15 7.5056e-16 0.227104 -3.2859e-16 -2.08115e-17)
(0 -2.85782e-29 -3.57227e-30 6.76448 -7.90411e-15 5.65521e-17 0.227104 -2.08093e-15 1.16109e-16)
(1.45821e-15 6.90537e-30 9.9191e-31 6.61895 9.75453e-15 9.90137e-16 0.225432 -3.39004e-16 -2.98351e-17)
(-3.1715e-15 0 -7.04214e-31 6.61895 -7.93699e-15 7.69811e-17 0.225432 -2.12504e-15 1.02505e-16)
(-2.94818e-15 8.71285e-30 8.27069e-31 6.47561 9.41021e-15 1.16242e-15 0.223741 -3.27849e-16 -3.79205e-17)
(5.89636e-15 0 0 6.47561 -7.68491e-15 1.25042e-16 0.223741 -2.17576e-15 8.84969e-17)
(-1.48985e-15 4.34616e-30 4.10855e-31 6.33453 9.57993e-15 1.24035e-15 0.222036 -3.24877e-16 -4.27463e-17)
(0 1.09468e-29 0 6.33453 -7.98929e-15 6.70047e-17 0.222036 -2.23194e-15 7.63121e-17)
(3.03708e-15 5.39493e-30 0 6.19581 9.29104e-15 1.27007e-15 0.220319 -3.49483e-16 -4.45559e-17)
(-3.03708e-15 -5.39493e-30 0 6.19581 -7.01585e-15 -9.7432e-17 0.220319 -2.30898e-15 6.25745e-17)
(0 1.06352e-29 6.64701e-31 6.05949 9.5969e-15 1.35243e-15 0.218594 -3.13618e-16 -4.61358e-17)
(0 -5.31761e-30 -6.64701e-31 6.05949 -6.08474e-15 -1.68345e-16 0.218594 -2.36528e-15 4.85144e-17)
(-2.95064e-15 1.57242e-29 1.31035e-30 5.92564 1.09525e-14 1.33612e-15 0.216864 -3.82037e-16 -5.18705e-17)
(0 0 0 5.92564 -6.33369e-15 -6.58994e-17 0.216864 -2.43503e-15 3.34401e-17)
(0 1.54988e-29 1.29157e-30 5.79429 9.88315e-15 1.22083e-15 0.215133 -4.23149e-16 -4.62794e-17)
(1.24138e-14 -5.16627e-30 -6.45784e-31 5.79429 -5.55074e-15 1.66243e-16 0.215133 -2.49927e-15 2.20137e-17)
(-3.13378e-15 1.36838e-29 7.98175e-31 5.66547 8.17956e-15 1.19384e-15 0.213402 -3.12921e-16 -4.47318e-17)
(6.26756e-15 -5.09222e-30 0 5.66547 -5.23161e-15 1.75083e-16 0.213402 -2.52223e-15 1.34369e-17)
(2.99473e-15 -1.93474e-29 -1.02392e-30 5.5392 8.78763e-15 1.25892e-15 0.211674 -3.05745e-16 -4.55784e-17)
(0 1.50577e-29 6.27405e-31 5.5392 -6.34701e-15 -1.18035e-16 0.211674 -2.55637e-15 4.50872e-18)
(0 4.9473e-30 6.18413e-31 5.4155 9.40294e-15 1.40635e-15 0.209952 -3.69091e-16 -5.10735e-17)
(-9.17254e-15 0 0 5.4155 -6.49814e-15 -1.90001e-16 0.209952 -2.62714e-15 -6.91897e-18)
(-1.61167e-15 -1.52426e-29 -2.04858e-30 5.29437 9.07627e-15 1.49314e-15 0.208237 -3.62957e-16 -5.8475e-17)
(6.44668e-15 1.95056e-29 3.04775e-30 5.29437 -6.18049e-15 3.80979e-17 0.208237 -2.68872e-15 -1.63872e-17)
(0 1.9226e-29 1.20163e-30 5.17581 8.00124e-15 1.52482e-15 0.206532 -3.53911e-16 -5.94749e-17)
(0 -9.61301e-30 3.26294e-33 5.17581 -6.41692e-15 1.63319e-31 0.206532 -2.74391e-15 -2.3512e-17)
(0 -1.42128e-29 -1.1844e-30 5.05982 6.84986e-15 1.73536e-15 0.204838 -2.86812e-16 -6.27456e-17)
(0 1.89505e-29 1.1844e-30 5.05982 -5.90015e-15 -1.30265e-16 0.204838 -2.80702e-15 -3.13845e-17)
(-1.65537e-15 8.92332e-30 -2.0577e-31 4.94637 6.91196e-15 1.95268e-15 0.203156 -2.69986e-16 -7.84593e-17)
(0 -4.66971e-30 5.83714e-31 4.94637 -4.57054e-15 -3.35881e-17 0.203156 -2.86586e-15 -4.21019e-17)
(1.84288e-15 -3.29397e-29 -3.27864e-30 4.83545 7.44175e-15 2.02245e-15 0.201489 -3.00373e-16 -8.26394e-17)
(1.07664e-14 4.1425e-29 -6.79619e-33 4.83545 -3.57407e-15 -3.26638e-31 0.201489 -2.8997e-15 -4.89717e-17)
(0 1.36104e-29 5.67102e-31 4.72704 8.81288e-15 2.07461e-15 0.199836 -3.22553e-16 -8.66395e-17)
(0 -4.53681e-30 0 4.72704 -5.04251e-15 -6.94377e-17 0.199836 -2.93084e-15 -5.74745e-17)
(0 1.78872e-29 2.23589e-30 4.62112 9.47795e-15 2.05502e-15 0.1982 -4.26431e-16 -8.95208e-17)
(0 -4.47179e-30 -1.11795e-30 4.62112 -5.75751e-15 -3.80435e-16 0.1982 -3.02369e-15 -7.00867e-17)
(-2.65462e-15 -1.82754e-29 -2.20963e-30 4.51764 8.35741e-15 1.9089e-15 0.196582 -3.89705e-16 -8.74771e-17)
(1.12145e-14 3.08539e-29 3.85673e-30 4.51764 -3.71541e-15 4.55842e-17 0.196582 -3.11134e-15 -7.96354e-17)
(0 -3.47562e-29 -4.34452e-30 4.41658 7.3985e-15 1.76047e-15 0.194981 -3.40287e-16 -7.92816e-17)
(1.38067e-14 3.47562e-29 -2.30381e-32 4.41658 -4.66136e-15 -1.04771e-30 0.194981 -3.13557e-15 -8.30034e-17)
(-1.73959e-15 2.13117e-29 2.50278e-30 4.3179 7.06761e-15 1.74025e-15 0.1934 -3.15486e-16 -7.67839e-17)
(0 -8.56451e-30 -1.60585e-30 4.3179 -7.2419e-15 -1.92106e-16 0.1934 -3.2197e-15 -9.11085e-17)
(1.75323e-15 -3.79406e-29 -4.05182e-30 4.22156 7.83083e-15 1.69157e-15 0.191837 -3.20276e-16 -7.97716e-17)