/*--------------------------------*- C++ -*----------------------------------*\
| =========                 |                                                 |
| \\      /  F ield         | OpenFOAM: The Open Source CFD Toolbox           |
|  \\    /   O peration     | Version:  2012                                  |
|   \\  /    A nd           | Website:  www.openfoam.com                      |
|    \\/     M anipulation  |                                                 |
\*---------------------------------------------------------------------------*/
FoamFile
{
    version     2.0;
    format      ascii;
    class       volScalarField;
    location    "13600";
    object      p;
}
// * * * * * * * * * * * * * * * * * * * * * * * * * * * * * * * * * * * * * //

dimensions      [0 2 -2 0 0 0 0];


internalField   nonuniform List<scalar> 
2560
(
4.0149e-09
0.00157615
-2.43548e-08
0.0015761
-2.24178e-07
0.00157589
-8.25075e-07
0.0015753
-2.20371e-06
0.00157393
-4.91442e-06
0.00157122
-9.61513e-06
0.00156652
-1.70916e-05
0.00155905
-2.82875e-05
0.00154785
-4.42749e-05
0.00153186
-6.6267e-05
0.00150987
-9.56252e-05
0.00148051
-0.000133836
0.0014423
-0.000182529
0.00139361
-0.000243477
0.00133266
-0.00031858
0.00125755
-0.000409869
0.00116626
-0.000519496
0.00105663
-0.000649775
0.000926348
-0.000803107
0.000773012
-0.000982002
0.000594115
-0.00118912
0.000386989
-0.00142728
0.000148836
-0.00169926
-0.000123148
-0.00200803
-0.00043192
-0.00235672
-0.000780615
-0.0027485
-0.0011724
-0.00318652
-0.00161043
-0.00367413
-0.00209803
-0.0042148
-0.00263871
-0.00481202
-0.00323593
-0.00546921
-0.00389312
-0.00619
-0.00461391
-0.00697815
-0.00540206
-0.0078373
-0.00626121
-0.00877111
-0.00719502
-0.00978341
-0.00820732
-0.0108781
-0.00930204
-0.012059
-0.0104829
-0.0133299
-0.0117538
-0.0146945
-0.0131184
-0.0161571
-0.014581
-0.0177214
-0.0161453
-0.0193911
-0.017815
-0.0211703
-0.0195942
-0.0230629
-0.0214868
-0.0250727
-0.0234966
-0.0272035
-0.0256273
-0.0294591
-0.0278829
-0.0318438
-0.0302676
-0.0343608
-0.0327846
-0.0370129
-0.0354367
-0.0398061
-0.0382299
-0.0427425
-0.0411662
-0.0458252
-0.044249
-0.0490597
-0.0474834
-0.0524472
-0.0508709
-0.0559931
-0.0544168
-0.0596994
-0.058123
-0.0635691
-0.0619927
-0.0676061
-0.0660297
-0.0718135
-0.070237
-0.0761948
-0.0746183
-0.0807505
-0.079174
-0.0854851
-0.0839085
-0.0904024
-0.0888258
-0.0955017
-0.093925
-0.100788
-0.0992111
-0.106261
-0.104684
-0.111925
-0.110348
-0.11778
-0.116203
-0.123828
-0.122251
-0.130072
-0.128495
-0.13651
-0.134933
-0.143145
-0.141568
-0.149978
-0.148401
-0.15701
-0.155433
-0.164238
-0.162661
-0.171666
-0.170088
-0.17929
-0.177712
-0.187113
-0.185535
-0.19513
-0.193553
-0.203344
-0.201766
-0.211751
-0.210174
-0.220349
-0.218771
-0.229137
-0.22756
-0.238114
-0.236536
-0.247275
-0.245697
-0.256618
-0.25504
-0.26614
-0.264562
-0.275836
-0.274257
-0.285703
-0.284125
-0.295738
-0.294159
-0.305935
-0.304357
-0.316288
-0.31471
-0.326796
-0.325217
-0.337451
-0.335872
-0.348245
-0.346666
-0.359177
-0.357598
-0.370236
-0.368657
-0.38142
-0.37984
-0.392721
-0.391142
-0.40413
-0.40255
-0.415641
-0.414062
-0.427248
-0.425669
-0.438942
-0.437362
-0.450717
-0.449137
-0.462563
-0.460983
-0.474474
-0.472894
-0.486442
-0.484861
-0.498456
-0.496875
-0.51051
-0.508929
-0.522597
-0.521016
-0.534705
-0.533124
-0.54683
-0.545249
-0.558959
-0.557378
-0.571087
-0.569506
-0.583204
-0.581623
-0.595303
-0.593722
-0.607374
-0.605792
-0.619408
-0.617827
-0.6314
-0.629818
-0.643339
-0.641757
-0.65522
-0.653638
-0.667032
-0.66545
-0.678769
-0.677186
-0.690424
-0.688841
-0.701986
-0.700403
-0.713453
-0.71187
-0.724813
-0.72323
-0.736063
-0.734479
-0.747192
-0.745608
-0.758198
-0.756615
-0.76907
-0.767486
-0.779805
-0.778221
-0.790393
-0.788809
-0.800834
-0.799249
-0.811114
-0.80953
-0.821237
-0.819652
-0.831187
-0.829602
-0.840969
-0.839383
-0.850568
-0.848982
-0.859991
-0.858405
-0.86922
-0.867635
-0.878268
-0.876681
-0.88711
-0.885525
-0.895768
-0.89418
-0.90421
-0.902624
-0.912465
-0.910876
-0.920495
-0.91891
-0.928338
-0.926748
-0.935947
-0.934361
-0.94337
-0.941778
-0.950549
-0.948963
-0.957545
-0.955952
-0.964288
-0.962703
-0.970854
-0.969259
-0.977155
-0.97557
-0.983287
-0.98169
-0.989143
-0.987559
-0.994843
-0.993242
-1.00025
-0.998668
-1.00552
-1.00391
-1.01048
-1.0089
-1.01532
-1.01371
-1.01982
-1.01825
-1.02425
-1.02263
-1.0283
-1.02673
-1.03231
-1.03068
-1.03591
-1.03435
-1.03952
-1.03788
-1.04267
-1.04111
-1.04589
-1.04424
-1.04858
-1.04705
-1.05144
-1.04976
-1.05367
-1.05216
-1.05618
-1.05448
-1.05796
-1.05648
-1.06016
-1.05842
-1.06148
-1.06003
-1.0634
-1.06161
-1.06424
-1.06285
-1.06593
-1.06407
-1.06645
-1.06497
-1.0678
-1.06585
-1.06814
-1.06643
-1.06902
-1.06697
-1.0692
-1.06725
-1.06963
-1.06745
-1.06965
-1.06745
-1.06929
-1.06733
-1.06915
-1.06706
-1.06838
-1.06662
-1.06809
-1.0661
-1.06692
-1.06536
-1.06649
-1.06459
-1.06502
-1.06357
-1.0644
-1.06255
-1.06279
-1.06128
-1.06182
-1.06002
-1.06007
-1.05851
-1.0588
-1.05703
-1.05688
-1.05529
-1.05533
-1.05358
-1.05326
-1.05164
-1.05145
-1.04972
-1.04921
-1.04757
-1.04716
-1.04544
-1.04476
-1.0431
-1.04249
-1.04077
-1.03993
-1.03825
-1.03745
-1.03573
-1.03473
-1.03303
-1.03206
-1.03033
-1.02918
-1.02747
-1.02633
-1.0246
-1.0233
-1.02158
-1.02027
-1.01854
-1.01709
-1.01536
-1.0139
-1.01215
-1.01055
-1.00881
-1.00718
-1.00543
-1.00367
-1.00192
-1.00012
-0.998355
-0.996436
-0.994667
-0.992698
-0.990918
-0.988834
-0.987052
-0.984918
-0.983125
-0.980891
-0.979093
-0.976807
-0.975
-0.972621
-0.970809
-0.968371
-0.96655
-0.964019
-0.962191
-0.959596
-0.95776
-0.955071
-0.953227
-0.95047
-0.948618
-0.945769
-0.943909
-0.940989
-0.93912
-0.936107
-0.934231
-0.93114
-0.929255
-0.926077
-0.924184
-0.92093
-0.919028
-0.915695
-0.913785
-0.910381
-0.908461
-0.904983
-0.903055
-0.899503
-0.897566
-0.893943
-0.891998
-0.888299
-0.886345
-0.882575
-0.880612
-0.876759
-0.874789
-0.870861
-0.868883
-0.864867
-0.862882
-0.858797
-0.856805
-0.852629
-0.850631
-0.846392
-0.844388
-0.84006
-0.83805
-0.833674
-0.831658
-0.8272
-0.82518
-0.820689
-0.818664
-0.814087
-0.812058
-0.807447
-0.805415
-0.800695
-0.79866
-0.793895
-0.791858
-0.786961
-0.784923
-0.779973
-0.777933
-0.772835
-0.770796
-0.765664
-0.763624
-0.758349
-0.756309
-0.751034
-0.748994
-0.74358
-0.741539
-0.736149
-0.734107
-0.728553
-0.72651
-0.720986
-0.718941
-0.713227
-0.71118
-0.705524
-0.703473
-0.697609
-0.695553
-0.689781
-0.687718
-0.68171
-0.679638
-0.673757
-0.671672
-0.66552
-0.663421
-0.657439
-0.655319
-0.649029
-0.646887
-0.640839
-0.638664
-0.632282
-0.630075
-0.624022
-0.621769
-0.615351
-0.613054
-0.607075
-0.604713
-0.598336
-0.595915
-0.590106
-0.587599
-0.581344
-0.578763
-0.573221
-0.570531
-0.56447
-0.561694
-0.556503
-0.553593
-0.547788
-0.544787
-0.540031
-0.536868
-0.531356
-0.528102
-0.523819
-0.520365
-0.51516
-0.51162
-0.507903
-0.504109
-0.499302
-0.495441
-0.492452
-0.48826
-0.484007
-0.479793
-0.477767
-0.473116
-0.46958
-0.464996
-0.464101
-0.458931
-0.456156
-0.451202
-0.451515
-0.445766
-0.443747
-0.438453
-0.440084
-0.433709
-0.432498
-0.426926
-0.430037
-0.422989
-0.408994
-0.416865
-0.406936
-0.413654
-0.400449
-0.408704
-0.398829
-0.406149
-0.393701
-0.402466
-0.392568
-0.400657
-0.388929
-0.398323
-0.388323
-0.397339
-0.386391
-0.396512
0.00157603
1.20104e-06
0.00157597
1.1686e-06
0.00157576
9.6818e-07
0.00157517
3.67293e-07
0.0015738
-1.01161e-06
0.0015711
-3.72316e-06
0.0015664
-8.42477e-06
0.00155892
-1.59031e-05
0.00154773
-2.71009e-05
0.00153174
-4.30914e-05
0.00150974
-6.50863e-05
0.00148038
-9.4449e-05
0.00144217
-0.000132664
0.00139347
-0.000181362
0.00133252
-0.000242315
0.00125741
-0.000317425
0.00116612
-0.00040872
0.00105649
-0.000518355
0.000926207
-0.000648642
0.000772869
-0.000801983
0.00059397
-0.000980886
0.000386841
-0.00118802
0.000148686
-0.00142618
-0.000123301
-0.00169817
-0.000432076
-0.00200695
-0.000780773
-0.00235565
-0.00117256
-0.00274745
-0.00161059
-0.00318549
-0.0020982
-0.0036731
-0.00263888
-0.00421379
-0.0032361
-0.00481102
-0.0038933
-0.00546822
-0.00461409
-0.00618903
-0.00540224
-0.00697719
-0.0062614
-0.00783636
-0.00719521
-0.00877018
-0.00820751
-0.0097825
-0.00930223
-0.0108772
-0.0104831
-0.0120582
-0.011754
-0.013329
-0.0131186
-0.0146937
-0.0145812
-0.0161563
-0.0161455
-0.0177206
-0.0178152
-0.0193903
-0.0195944
-0.0211696
-0.021487
-0.0230621
-0.0234968
-0.025072
-0.0256275
-0.0272028
-0.0278831
-0.0294584
-0.0302679
-0.0318431
-0.0327848
-0.0343601
-0.0354369
-0.0370122
-0.0382301
-0.0398055
-0.0411664
-0.0427418
-0.0442492
-0.0458246
-0.0474837
-0.0490591
-0.0508711
-0.0524467
-0.054417
-0.0559926
-0.0581233
-0.0596989
-0.0619929
-0.0635686
-0.0660299
-0.0676056
-0.0702372
-0.071813
-0.0746186
-0.0761944
-0.0791742
-0.0807501
-0.0839087
-0.0854846
-0.088826
-0.090402
-0.0939252
-0.0955013
-0.0992113
-0.100787
-0.104684
-0.10626
-0.110348
-0.111925
-0.116203
-0.11778
-0.122252
-0.123828
-0.128495
-0.130071
-0.134933
-0.136509
-0.141569
-0.143145
-0.148401
-0.149978
-0.155433
-0.15701
-0.162661
-0.164238
-0.170088
-0.171665
-0.177712
-0.179289
-0.185535
-0.187112
-0.193553
-0.19513
-0.201766
-0.203344
-0.210174
-0.211751
-0.218772
-0.220349
-0.22756
-0.229137
-0.236536
-0.238114
-0.245697
-0.247275
-0.255041
-0.256618
-0.264562
-0.26614
-0.274258
-0.275836
-0.284125
-0.285703
-0.29416
-0.295738
-0.304357
-0.305935
-0.31471
-0.316288
-0.325217
-0.326796
-0.335872
-0.337451
-0.346666
-0.348245
-0.357598
-0.359177
-0.368657
-0.370236
-0.379841
-0.38142
-0.391142
-0.392721
-0.402551
-0.40413
-0.414062
-0.415641
-0.425669
-0.427248
-0.437362
-0.438942
-0.449137
-0.450717
-0.460983
-0.462563
-0.472894
-0.474474
-0.484861
-0.486442
-0.496876
-0.498456
-0.508929
-0.51051
-0.521016
-0.522597
-0.533124
-0.534705
-0.545249
-0.54683
-0.557378
-0.558959
-0.569506
-0.571087
-0.581623
-0.583204
-0.593722
-0.595304
-0.605792
-0.607374
-0.617827
-0.619409
-0.629819
-0.631401
-0.641757
-0.64334
-0.653638
-0.65522
-0.66545
-0.667032
-0.677186
-0.678769
-0.688841
-0.690424
-0.700403
-0.701986
-0.71187
-0.713454
-0.72323
-0.724814
-0.734479
-0.736063
-0.745609
-0.747192
-0.756615
-0.758199
-0.767486
-0.76907
-0.778221
-0.779806
-0.788809
-0.790393
-0.799249
-0.800834
-0.80953
-0.811115
-0.819652
-0.821237
-0.829602
-0.831187
-0.839383
-0.84097
-0.848983
-0.850568
-0.858405
-0.859992
-0.867635
-0.869221
-0.876681
-0.878268
-0.885525
-0.887111
-0.89418
-0.895768
-0.902624
-0.90421
-0.910876
-0.912465
-0.91891
-0.920496
-0.926748
-0.928338
-0.934362
-0.935948
-0.941778
-0.94337
-0.948963
-0.95055
-0.955952
-0.957546
-0.962703
-0.964288
-0.969259
-0.970854
-0.97557
-0.977155
-0.98169
-0.983288
-0.987559
-0.989143
-0.993242
-0.994843
-0.998668
-1.00025
-1.00391
-1.00552
-1.0089
-1.01048
-1.01371
-1.01532
-1.01825
-1.01982
-1.02263
-1.02425
-1.02673
-1.0283
-1.03068
-1.03231
-1.03435
-1.03591
-1.03788
-1.03952
-1.04111
-1.04267
-1.04424
-1.04589
-1.04705
-1.04858
-1.04976
-1.05144
-1.05216
-1.05367
-1.05448
-1.05618
-1.05648
-1.05796
-1.05842
-1.06016
-1.06003
-1.06148
-1.06161
-1.0634
-1.06285
-1.06424
-1.06407
-1.06593
-1.06497
-1.06645
-1.06585
-1.0678
-1.06643
-1.06814
-1.06697
-1.06902
-1.06725
-1.0692
-1.06745
-1.06963
-1.06745
-1.06965
-1.06733
-1.0693
-1.06706
-1.06915
-1.06662
-1.06838
-1.0661
-1.06809
-1.06536
-1.06692
-1.06458
-1.06649
-1.06357
-1.06502
-1.06255
-1.0644
-1.06128
-1.06279
-1.06002
-1.06182
-1.05851
-1.06007
-1.05703
-1.0588
-1.05529
-1.05688
-1.05358
-1.05533
-1.05164
-1.05326
-1.04972
-1.05145
-1.04757
-1.04921
-1.04544
-1.04717
-1.0431
-1.04476
-1.04077
-1.04249
-1.03825
-1.03993
-1.03573
-1.03745
-1.03303
-1.03473
-1.03033
-1.03206
-1.02747
-1.02918
-1.0246
-1.02633
-1.02158
-1.0233
-1.01854
-1.02028
-1.01536
-1.01709
-1.01215
-1.0139
-1.00881
-1.01055
-1.00543
-1.00718
-1.00192
-1.00367
-0.998355
-1.00012
-0.994667
-0.996436
-0.990918
-0.992698
-0.987052
-0.988835
-0.983125
-0.984918
-0.979093
-0.980891
-0.975
-0.976807
-0.970808
-0.972621
-0.966549
-0.968371
-0.962191
-0.964019
-0.957759
-0.959597
-0.953227
-0.955071
-0.948617
-0.95047
-0.943909
-0.94577
-0.93912
-0.940989
-0.934231
-0.936108
-0.929255
-0.931141
-0.924184
-0.926078
-0.919027
-0.92093
-0.913785
-0.915696
-0.908461
-0.910381
-0.903055
-0.904984
-0.897566
-0.899503
-0.891998
-0.893944
-0.886344
-0.888299
-0.880612
-0.882575
-0.874788
-0.876759
-0.868883
-0.870862
-0.862882
-0.864868
-0.856805
-0.858798
-0.850631
-0.85263
-0.844387
-0.846393
-0.83805
-0.840061
-0.831658
-0.833675
-0.82518
-0.827201
-0.818664
-0.820689
-0.812058
-0.814087
-0.805415
-0.807448
-0.79866
-0.800695
-0.791858
-0.793896
-0.784923
-0.786962
-0.777933
-0.779973
-0.770795
-0.772836
-0.763624
-0.765665
-0.756309
-0.75835
-0.748994
-0.751035
-0.741539
-0.743581
-0.734107
-0.73615
-0.72651
-0.728553
-0.718941
-0.720987
-0.71118
-0.713227
-0.703472
-0.705525
-0.695553
-0.69761
-0.687718
-0.689782
-0.679638
-0.68171
-0.671672
-0.673758
-0.663421
-0.665521
-0.655319
-0.65744
-0.646887
-0.64903
-0.638664
-0.640839
-0.630075
-0.632283
-0.621769
-0.624023
-0.613053
-0.615352
-0.604713
-0.607075
-0.595915
-0.598337
-0.587599
-0.590107
-0.578763
-0.581345
-0.570531
-0.573222
-0.561694
-0.564471
-0.553592
-0.556504
-0.544786
-0.547789
-0.536867
-0.540032
-0.528101
-0.531357
-0.520365
-0.52382
-0.51162
-0.515161
-0.504108
-0.507904
-0.49544
-0.499302
-0.488259
-0.492453
-0.479793
-0.484008
-0.473116
-0.477768
-0.464995
-0.469581
-0.458931
-0.464102
-0.451201
-0.456157
-0.445766
-0.451516
-0.438453
-0.443748
-0.433708
-0.440085
-0.426925
-0.432499
-0.422989
-0.430038
-0.416865
-0.408993
-0.413654
-0.406935
-0.408704
-0.400448
-0.406149
-0.398827
-0.402466
-0.3937
-0.400658
-0.392567
-0.398322
-0.388928
-0.397339
-0.388322
-0.396512
-0.38639
-0.386391
-0.396512
-0.388322
-0.397338
-0.388928
-0.398322
-0.392569
-0.400656
-0.393702
-0.402466
-0.398831
-0.406145
-0.400452
-0.408705
-0.406936
-0.41365
-0.408994
-0.416862
-0.430016
-0.422987
-0.432477
-0.426925
-0.440063
-0.433707
-0.443726
-0.438451
-0.451496
-0.445766
-0.456137
-0.4512
-0.464081
-0.458927
-0.469559
-0.464991
-0.477747
-0.473112
-0.483986
-0.479787
-0.492435
-0.488257
-0.499283
-0.495435
-0.507886
-0.504103
-0.515141
-0.511613
-0.523799
-0.520356
-0.531336
-0.528092
-0.540017
-0.536863
-0.547769
-0.544777
-0.556488
-0.553587
-0.564454
-0.561686
-0.573201
-0.57052
-0.58133
-0.578757
-0.590091
-0.587592
-0.598325
-0.595911
-0.607059
-0.604705
-0.615341
-0.613051
-0.624004
-0.621759
-0.632265
-0.630065
-0.640823
-0.638655
-0.649011
-0.646875
-0.657426
-0.655312
-0.665504
-0.663411
-0.673743
-0.671664
-0.681695
-0.679629
-0.689768
-0.68771
-0.697592
-0.695542
-0.705511
-0.703465
-0.71321
-0.711168
-0.72097
-0.71893
-0.728536
-0.726498
-0.736134
-0.734097
-0.743562
-0.741526
-0.751023
-0.748987
-0.758335
-0.7563
-0.765646
-0.76361
-0.772821
-0.770787
-0.779957
-0.777923
-0.786949
-0.784916
-0.79388
-0.791848
-0.800678
-0.798649
-0.807429
-0.805402
-0.814078
-0.812054
-0.820675
-0.818655
-0.827189
-0.825174
-0.833661
-0.83165
-0.840049
-0.838044
-0.846376
-0.844376
-0.85261
-0.850616
-0.858786
-0.856799
-0.864853
-0.862873
-0.870852
-0.868879
-0.876742
-0.874776
-0.882556
-0.880598
-0.888284
-0.886335
-0.893924
-0.891984
-0.899485
-0.897553
-0.904967
-0.903043
-0.910368
-0.908453
-0.915685
-0.913779
-0.920922
-0.919024
-0.926067
-0.924178
-0.931127
-0.929246
-0.936095
-0.934223
-0.940973
-0.939109
-0.945753
-0.943898
-0.950459
-0.948611
-0.955054
-0.953215
-0.959577
-0.957745
-0.964007
-0.962184
-0.968357
-0.966541
-0.972601
-0.970793
-0.976792
-0.97499
-0.980875
-0.979082
-0.9849
-0.983112
-0.988818
-0.987039
-0.992689
-0.990913
-0.996426
-0.994662
-1.00011
-0.998344
-1.00366
-1.00191
-1.00717
-1.00542
-1.01054
-1.0088
-1.01388
-1.01214
-1.01708
-1.01535
-1.02026
-1.01853
-1.02328
-1.02157
-1.02632
-1.02459
-1.02916
-1.02746
-1.03204
-1.03032
-1.03471
-1.03303
-1.03744
-1.03572
-1.03991
-1.03824
-1.04248
-1.04076
-1.04475
-1.04309
-1.04715
-1.04542
-1.0492
-1.04756
-1.05144
-1.04971
-1.05324
-1.05163
-1.05532
-1.05357
-1.05687
-1.05529
-1.05878
-1.05702
-1.06005
-1.0585
-1.06181
-1.06001
-1.06277
-1.06127
-1.06438
-1.06254
-1.065
-1.06356
-1.06648
-1.06458
-1.06691
-1.06535
-1.06807
-1.06609
-1.06836
-1.06661
-1.06914
-1.06705
-1.06928
-1.06732
-1.06964
-1.06744
-1.06961
-1.06744
-1.06919
-1.06724
-1.06901
-1.06696
-1.06813
-1.06642
-1.06779
-1.06584
-1.06644
-1.06497
-1.06592
-1.06406
-1.06423
-1.06284
-1.06338
-1.0616
-1.06146
-1.06002
-1.06014
-1.05841
-1.05795
-1.05647
-1.05617
-1.05448
-1.05366
-1.05215
-1.05142
-1.04975
-1.04856
-1.04703
-1.04588
-1.04423
-1.04266
-1.04111
-1.03951
-1.03788
-1.03591
-1.03435
-1.0323
-1.03068
-1.02828
-1.02671
-1.02423
-1.02261
-1.0198
-1.01823
-1.01531
-1.01371
-1.01045
-1.00888
-1.0055
-1.0039
-1.00023
-0.99865
-0.994818
-0.99322
-0.989146
-0.987565
-0.98328
-0.981685
-0.977129
-0.975548
-0.970858
-0.969266
-0.964274
-0.962691
-0.957517
-0.955926
-0.950557
-0.948974
-0.943373
-0.941784
-0.935946
-0.934363
-0.928348
-0.926761
-0.920458
-0.918875
-0.912464
-0.910878
-0.904186
-0.902603
-0.895749
-0.894163
-0.887103
-0.88552
-0.878237
-0.876652
-0.86917
-0.867588
-0.859973
-0.858389
-0.850591
-0.849008
-0.84092
-0.839337
-0.831165
-0.829582
-0.821219
-0.819636
-0.811118
-0.809537
-0.800837
-0.799255
-0.790423
-0.788841
-0.779838
-0.778256
-0.769032
-0.76745
-0.758175
-0.756593
-0.747229
-0.745648
-0.736022
-0.734441
-0.724746
-0.723165
-0.71346
-0.71188
-0.70201
-0.70043
-0.690444
-0.688864
-0.678729
-0.677149
-0.667048
-0.665468
-0.655236
-0.653657
-0.643348
-0.641769
-0.631343
-0.629764
-0.61943
-0.617851
-0.607416
-0.605837
-0.595227
-0.593648
-0.583254
-0.581675
-0.571128
-0.569549
-0.558934
-0.557355
-0.546757
-0.545178
-0.534699
-0.53312
-0.522514
-0.520936
-0.510479
-0.508901
-0.498496
-0.496918
-0.486357
-0.484779
-0.474456
-0.472878
-0.462593
-0.461015
-0.450642
-0.449064
-0.438927
-0.43735
-0.427318
-0.425741
-0.415614
-0.414037
-0.404031
-0.402454
-0.392737
-0.39116
-0.381397
-0.37982
-0.37019
-0.368613
-0.35913
-0.357553
-0.348229
-0.346652
-0.337483
-0.335906
-0.326737
-0.32516
-0.31634
-0.314764
-0.305961
-0.304385
-0.295763
-0.294187
-0.285778
-0.284202
-0.275806
-0.274229
-0.266059
-0.264483
-0.25652
-0.254944
-0.24722
-0.245644
-0.238135
-0.236559
-0.229119
-0.227543
-0.220328
-0.218752
-0.211793
-0.210217
-0.203313
-0.201738
-0.195099
-0.193524
-0.187119
-0.185543
-0.179241
-0.177666
-0.171598
-0.170023
-0.164236
-0.162661
-0.15694
-0.155365
-0.149935
-0.14836
-0.143153
-0.141578
-0.136511
-0.134936
-0.130084
-0.128509
-0.12381
-0.122235
-0.117743
-0.116168
-0.111987
-0.110412
-0.106278
-0.104704
-0.100748
-0.0991736
-0.0955366
-0.093962
-0.0903758
-0.0888013
-0.085517
-0.0839424
-0.0807163
-0.0791417
-0.0762114
-0.0746369
-0.0717597
-0.0701852
-0.0676079
-0.0660335
-0.0636098
-0.0620355
-0.0596886
-0.0581143
-0.0560132
-0.054439
-0.0524322
-0.050858
-0.0490731
-0.0474989
-0.0458173
-0.0442431
-0.0427654
-0.0411912
-0.0398192
-0.038245
-0.0369729
-0.0353988
-0.0343256
-0.0327515
-0.0318527
-0.0302786
-0.0294862
-0.0279121
-0.0272012
-0.0256271
-0.0250289
-0.0234549
-0.0230761
-0.021502
-0.0211583
-0.0195842
-0.0193802
-0.0178062
-0.0176991
-0.0161251
-0.016153
-0.014579
-0.0146887
-0.0131148
-0.0133053
-0.0117314
-0.0120422
-0.0104682
-0.010862
-0.00928808
-0.00978197
-0.00820808
-0.00874397
-0.00717009
-0.00783304
-0.00625911
-0.00696342
-0.00538951
-0.00617226
-0.00459837
-0.00545278
-0.0038789
-0.0048036
-0.00322973
-0.00421496
-0.0026411
-0.00366538
-0.00209153
-0.0031706
-0.00159674
-0.0027344
-0.00116055
-0.00234323
-0.000769394
-0.00198697
-0.000413146
-0.00168471
-0.000110872
-0.00141218
0.000161657
-0.00117238
0.000401446
-0.000969188
0.000604641
-0.000792695
0.000781126
-0.0006374
0.00093642
-0.000505378
0.00106844
-0.000397146
0.00117667
-0.000306779
0.00126703
-0.00023029
0.00134352
-0.000168418
0.0014054
-0.000120302
0.00145351
-8.25196e-05
0.00149129
-5.25987e-05
0.00152121
-3.03424e-05
0.00154346
-1.4603e-05
0.0015592
-3.58092e-06
0.00157022
4.02081e-06
0.00157782
8.75235e-06
0.00158255
1.14169e-05
0.00158521
1.27747e-05
0.00158656
1.33872e-05
0.00158717
1.35985e-05
0.00158739
1.36381e-05
0.00158744
-0.396513
-0.38639
-0.397338
-0.388321
-0.398323
-0.388927
-0.400656
-0.392568
-0.402466
-0.393701
-0.406145
-0.39883
-0.408705
-0.400451
-0.41365
-0.406935
-0.416862
-0.408993
-0.422987
-0.430016
-0.426925
-0.432477
-0.433707
-0.440063
-0.438451
-0.443726
-0.445766
-0.451496
-0.451201
-0.456137
-0.458928
-0.464081
-0.464991
-0.469559
-0.473112
-0.477747
-0.479787
-0.483986
-0.488257
-0.492435
-0.495435
-0.499283
-0.504104
-0.507885
-0.511614
-0.515141
-0.520356
-0.523799
-0.528093
-0.531336
-0.536864
-0.540017
-0.544777
-0.547769
-0.553587
-0.556488
-0.561687
-0.564454
-0.57052
-0.573201
-0.578757
-0.58133
-0.587592
-0.590091
-0.595911
-0.598325
-0.604705
-0.607059
-0.613051
-0.615341
-0.621759
-0.624005
-0.630065
-0.632265
-0.638655
-0.640823
-0.646875
-0.649011
-0.655312
-0.657426
-0.663411
-0.665504
-0.671664
-0.673743
-0.679629
-0.681695
-0.68771
-0.689768
-0.695542
-0.697592
-0.703465
-0.705511
-0.711168
-0.71321
-0.71893
-0.72097
-0.726498
-0.728536
-0.734097
-0.736134
-0.741527
-0.743562
-0.748988
-0.751023
-0.7563
-0.758335
-0.76361
-0.765646
-0.770787
-0.772821
-0.777923
-0.779957
-0.784916
-0.786949
-0.791848
-0.79388
-0.798649
-0.800678
-0.805402
-0.807429
-0.812054
-0.814078
-0.818655
-0.820675
-0.825174
-0.82719
-0.83165
-0.833661
-0.838044
-0.840049
-0.844376
-0.846376
-0.850616
-0.85261
-0.856799
-0.858786
-0.862873
-0.864853
-0.86888
-0.870852
-0.874777
-0.876742
-0.880599
-0.882556
-0.886335
-0.888284
-0.891984
-0.893925
-0.897553
-0.899485
-0.903043
-0.904967
-0.908453
-0.910368
-0.91378
-0.915686
-0.919024
-0.920922
-0.924179
-0.926067
-0.929246
-0.931127
-0.934223
-0.936095
-0.939109
-0.940973
-0.943898
-0.945754
-0.948611
-0.950459
-0.953215
-0.955054
-0.957745
-0.959577
-0.962185
-0.964007
-0.966541
-0.968357
-0.970793
-0.972601
-0.97499
-0.976793
-0.979082
-0.980875
-0.983112
-0.9849
-0.98704
-0.988818
-0.990913
-0.992689
-0.994662
-0.996426
-0.998344
-1.00011
-1.00191
-1.00366
-1.00542
-1.00717
-1.0088
-1.01054
-1.01214
-1.01388
-1.01535
-1.01708
-1.01853
-1.02026
-1.02157
-1.02328
-1.02459
-1.02632
-1.02746
-1.02916
-1.03032
-1.03204
-1.03303
-1.03472
-1.03572
-1.03744
-1.03824
-1.03991
-1.04076
-1.04248
-1.04309
-1.04475
-1.04542
-1.04715
-1.04756
-1.0492
-1.04971
-1.05144
-1.05163
-1.05324
-1.05357
-1.05532
-1.05529
-1.05687
-1.05702
-1.05878
-1.0585
-1.06005
-1.06001
-1.06181
-1.06127
-1.06277
-1.06254
-1.06438
-1.06356
-1.065
-1.06458
-1.06648
-1.06535
-1.06691
-1.06609
-1.06807
-1.06661
-1.06836
-1.06705
-1.06914
-1.06732
-1.06928
-1.06744
-1.06964
-1.06744
-1.06961
-1.06724
-1.06919
-1.06696
-1.06901
-1.06642
-1.06813
-1.06584
-1.06779
-1.06497
-1.06644
-1.06406
-1.06592
-1.06284
-1.06423
-1.0616
-1.06338
-1.06002
-1.06146
-1.05841
-1.06014
-1.05647
-1.05795
-1.05448
-1.05617
-1.05215
-1.05366
-1.04975
-1.05142
-1.04703
-1.04856
-1.04423
-1.04588
-1.04111
-1.04266
-1.03788
-1.03951
-1.03435
-1.03591
-1.03068
-1.0323
-1.02671
-1.02828
-1.02262
-1.02423
-1.01823
-1.0198
-1.01371
-1.01531
-1.00888
-1.01045
-1.0039
-1.0055
-0.998651
-1.00023
-0.99322
-0.994818
-0.987566
-0.989146
-0.981685
-0.98328
-0.975548
-0.97713
-0.969266
-0.970859
-0.962692
-0.964274
-0.955927
-0.957517
-0.948975
-0.950557
-0.941784
-0.943373
-0.934364
-0.935947
-0.926761
-0.928348
-0.918875
-0.920458
-0.910878
-0.912464
-0.902603
-0.904186
-0.894163
-0.895749
-0.885521
-0.887103
-0.876652
-0.878237
-0.867588
-0.86917
-0.858389
-0.859973
-0.849008
-0.850591
-0.839337
-0.840921
-0.829583
-0.831165
-0.819636
-0.821219
-0.809537
-0.811118
-0.799255
-0.800838
-0.788841
-0.790423
-0.778256
-0.779838
-0.767451
-0.769032
-0.756594
-0.758175
-0.745648
-0.747229
-0.734442
-0.736022
-0.723165
-0.724746
-0.71188
-0.71346
-0.70043
-0.70201
-0.688864
-0.690444
-0.677149
-0.678729
-0.665468
-0.667048
-0.653657
-0.655237
-0.641769
-0.643348
-0.629764
-0.631343
-0.617851
-0.61943
-0.605838
-0.607417
-0.593648
-0.595227
-0.581676
-0.583254
-0.569549
-0.571128
-0.557355
-0.558934
-0.545178
-0.546757
-0.53312
-0.534699
-0.520936
-0.522514
-0.508901
-0.510479
-0.496919
-0.498496
-0.484779
-0.486357
-0.472878
-0.474456
-0.461015
-0.462593
-0.449064
-0.450642
-0.43735
-0.438927
-0.425741
-0.427318
-0.414037
-0.415615
-0.402454
-0.404031
-0.39116
-0.392737
-0.37982
-0.381397
-0.368614
-0.37019
-0.357553
-0.35913
-0.346652
-0.348229
-0.335906
-0.337483
-0.32516
-0.326737
-0.314764
-0.31634
-0.304385
-0.305961
-0.294187
-0.295763
-0.284202
-0.285778
-0.27423
-0.275806
-0.264483
-0.266059
-0.254944
-0.25652
-0.245644
-0.24722
-0.23656
-0.238135
-0.227544
-0.229119
-0.218752
-0.220328
-0.210218
-0.211793
-0.201738
-0.203313
-0.193524
-0.1951
-0.185544
-0.187119
-0.177666
-0.179241
-0.170023
-0.171598
-0.162661
-0.164236
-0.155365
-0.156941
-0.14836
-0.149935
-0.141578
-0.143153
-0.134936
-0.136511
-0.128509
-0.130084
-0.122235
-0.12381
-0.116169
-0.117743
-0.110413
-0.111987
-0.104704
-0.106278
-0.0991738
-0.100748
-0.0939623
-0.0955367
-0.0888015
-0.0903759
-0.0839427
-0.0855171
-0.079142
-0.0807164
-0.0746372
-0.0762115
-0.0701854
-0.0717598
-0.0660337
-0.067608
-0.0620357
-0.0636099
-0.0581145
-0.0596887
-0.0544392
-0.0560133
-0.0508582
-0.0524323
-0.0474991
-0.0490732
-0.0442433
-0.0458174
-0.0411914
-0.0427655
-0.0382452
-0.0398193
-0.035399
-0.036973
-0.0327517
-0.0343257
-0.0302788
-0.0318528
-0.0279123
-0.0294863
-0.0256273
-0.0272013
-0.0234551
-0.025029
-0.0215022
-0.0230762
-0.0195845
-0.0211584
-0.0178064
-0.0193803
-0.0161253
-0.0176992
-0.0145793
-0.0161531
-0.013115
-0.0146888
-0.0117316
-0.0133054
-0.0104685
-0.0120423
-0.0092883
-0.0108621
-0.00820831
-0.00978207
-0.00717031
-0.00874407
-0.00625933
-0.00783314
-0.00538974
-0.00696352
-0.0045986
-0.00617236
-0.00387912
-0.00545288
-0.00322995
-0.0048037
-0.00264133
-0.00421506
-0.00209175
-0.00366548
-0.00159696
-0.0031707
-0.00116077
-0.0027345
-0.000769616
-0.00234333
-0.000413368
-0.00198708
-0.000111094
-0.00168481
0.000161435
-0.00141228
0.000401224
-0.00117248
0.000604419
-0.000969289
0.000780904
-0.000792796
0.000936199
-0.000637502
0.00106822
-0.000505479
0.00117645
-0.000397247
0.00126681
-0.00030688
0.0013433
-0.000230391
0.00140517
-0.000168519
0.00145329
-0.000120403
0.00149107
-8.26209e-05
0.00152099
-5.27e-05
0.00154324
-3.04437e-05
0.00155898
-1.47042e-05
0.00157
-3.68221e-06
0.0015776
3.91953e-06
0.00158233
8.65105e-06
0.00158499
1.13156e-05
0.00158634
1.26734e-05
0.00158695
1.32858e-05
0.00158717
1.34971e-05
0.00158722
1.35368e-05
)
;

boundaryField
{
    walls
    {
        type            zeroGradient;
    }
    inlet
    {
        type            cyclic;
    }
    outlet
    {
        type            cyclic;
    }
    sides
    {
        type            empty;
    }
}


// ************************************************************************* //
