/*--------------------------------*- C++ -*----------------------------------*\
| =========                 |                                                 |
| \\      /  F ield         | OpenFOAM: The Open Source CFD Toolbox           |
|  \\    /   O peration     | Version:  2012                                  |
|   \\  /    A nd           | Website:  www.openfoam.com                      |
|    \\/     M anipulation  |                                                 |
\*---------------------------------------------------------------------------*/
FoamFile
{
    version     2.0;
    format      ascii;
    class       volVectorField;
    location    "13600";
    object      U;
}
// * * * * * * * * * * * * * * * * * * * * * * * * * * * * * * * * * * * * * //

dimensions      [0 1 -1 0 0 0 0];


internalField   nonuniform List<vector> 
2560
(
(0.0854132 1.36764e-08 -7.73321e-07)
(0.0854133 -8.1677e-09 4.53832e-22)
(0.257278 4.23059e-08 -1.16439e-06)
(0.257279 -9.7711e-09 -1.66285e-10)
(0.43143 5.98537e-08 -1.0271e-06)
(0.431431 -2.29512e-08 -5.41712e-10)
(0.607888 5.79492e-08 -6.85288e-07)
(0.607889 -5.65953e-08 -1.03297e-09)
(0.786669 5.67055e-08 -3.90172e-07)
(0.78667 -7.74597e-08 -1.35756e-09)
(0.967789 6.40497e-08 -2.32802e-07)
(0.96779 -8.07021e-08 -1.60901e-09)
(1.15127 7.05233e-08 -1.54357e-07)
(1.15127 -8.08488e-08 -1.86376e-09)
(1.33715 7.47973e-08 -1.11808e-07)
(1.33715 -8.15844e-08 -2.16842e-09)
(1.52547 7.72631e-08 -8.61412e-08)
(1.52547 -8.2906e-08 -2.53882e-09)
(1.71627 7.98455e-08 -6.91465e-08)
(1.71627 -8.34673e-08 -2.97289e-09)
(1.90962 8.13062e-08 -5.69779e-08)
(1.90962 -8.46491e-08 -3.47241e-09)
(2.10557 8.27764e-08 -4.76551e-08)
(2.10557 -8.55107e-08 -4.04156e-09)
(2.30419 8.40861e-08 -4.00689e-08)
(2.30419 -8.62744e-08 -4.68105e-09)
(2.50556 8.5082e-08 -3.3548e-08)
(2.50556 -8.7179e-08 -5.39625e-09)
(2.70976 8.61431e-08 -2.7658e-08)
(2.70976 -8.78655e-08 -6.19161e-09)
(2.91687 8.68871e-08 -2.20996e-08)
(2.91687 -8.87633e-08 -7.07178e-09)
(3.12696 8.7871e-08 -1.66536e-08)
(3.12696 -8.93256e-08 -8.04128e-09)
(3.34013 8.86535e-08 -1.11503e-08)
(3.34013 -9.00213e-08 -9.10557e-09)
(3.55644 8.9212e-08 -5.44931e-09)
(3.55645 -9.08776e-08 -5.47443e-09)
(3.776 9.0014e-08 5.69273e-10)
(3.776 -9.14452e-08 5.45419e-10)
(3.99885 9.08262e-08 7.01325e-09)
(3.99886 -9.19616e-08 6.99045e-09)
(4.22509 9.13955e-08 1.39853e-08)
(4.22509 -9.26908e-08 1.39635e-08)
(4.45476 9.16845e-08 1.83666e-08)
(4.45476 -9.36725e-08 2.15644e-08)
(4.68791 9.2872e-08 2.02687e-08)
(4.68791 -9.37398e-08 2.98894e-08)
(4.92459 9.32327e-08 2.23249e-08)
(4.9246 -9.46128e-08 3.90371e-08)
(5.16483 9.38286e-08 2.45405e-08)
(5.16483 -9.52462e-08 4.91119e-08)
(5.40863 9.40155e-08 2.6917e-08)
(5.40863 -9.62733e-08 6.022e-08)
(5.65599 9.54448e-08 2.9472e-08)
(5.65599 -9.60621e-08 7.24693e-08)
(5.90689 9.54151e-08 3.22193e-08)
(5.90689 -9.73012e-08 8.59772e-08)
(6.16127 9.62791e-08 3.51647e-08)
(6.16128 -9.76534e-08 9.28017e-08)
(6.41909 9.62532e-08 3.83128e-08)
(6.41909 -9.88962e-08 9.18827e-08)
(6.68024 9.78488e-08 4.16837e-08)
(6.68024 -9.85262e-08 9.11461e-08)
(6.94462 9.76974e-08 4.52944e-08)
(6.94462 -9.99117e-08 9.0577e-08)
(7.21208 9.84793e-08 4.91493e-08)
(7.21208 -1.00373e-07 9.01624e-08)
(7.48245 9.87693e-08 5.32594e-08)
(7.48245 -1.01342e-07 8.98919e-08)
(7.75554 1.00144e-07 5.76492e-08)
(7.75554 -1.0124e-07 8.97559e-08)
(8.03112 1.00093e-07 6.23363e-08)
(8.03112 -1.02583e-07 8.97471e-08)
(8.30893 1.00817e-07 6.73276e-08)
(8.30893 -1.03167e-07 8.98589e-08)
(8.58869 1.01226e-07 7.26373e-08)
(8.58869 -1.04091e-07 9.00859e-08)
(8.87007 1.02537e-07 7.82938e-08)
(8.87007 -1.04135e-07 9.04233e-08)
(9.15272 1.02752e-07 8.43211e-08)
(9.15272 -1.05301e-07 9.08676e-08)
(9.43627 1.03344e-07 9.07305e-08)
(9.43627 -1.06117e-07 9.14152e-08)
(9.72028 1.03627e-07 9.75324e-08)
(9.72028 -1.07272e-07 9.75321e-08)
(10.0043 1.05647e-07 1.0477e-07)
(10.0043 -1.06723e-07 1.0477e-07)
(10.2879 1.04526e-07 1.12456e-07)
(10.2879 -1.09347e-07 1.12456e-07)
(10.5705 1.07258e-07 1.20619e-07)
(10.5705 -1.08158e-07 1.20618e-07)
(10.8516 1.05266e-07 1.29268e-07)
(10.8516 -1.11727e-07 1.29268e-07)
(11.1307 1.09557e-07 1.38448e-07)
(11.1307 -1.09058e-07 1.38447e-07)
(11.4071 1.07861e-07 1.48209e-07)
(11.4071 -1.12418e-07 1.48208e-07)
(11.6802 1.07816e-07 1.58504e-07)
(11.6802 -1.14171e-07 1.58503e-07)
(11.9494 1.09118e-07 1.69346e-07)
(11.9494 -1.14632e-07 1.69345e-07)
(12.2141 1.17922e-07 1.80967e-07)
(12.2141 -1.07633e-07 1.80966e-07)
(12.4735 9.99385e-08 1.93137e-07)
(12.4735 -1.27483e-07 1.93136e-07)
(12.727 1.23434e-07 2.05963e-07)
(12.727 -1.05905e-07 2.05961e-07)
(12.9738 1.07015e-07 2.1961e-07)
(12.9738 -1.24304e-07 2.19608e-07)
(13.2134 1.14765e-07 2.33832e-07)
(13.2134 -1.186e-07 2.3383e-07)
(13.4448 1.19836e-07 2.48926e-07)
(13.4448 -1.15626e-07 2.48925e-07)
(13.6675 1.07677e-07 2.64683e-07)
(13.6675 -1.29964e-07 2.64681e-07)
(13.8808 1.24847e-07 2.81181e-07)
(13.8808 -1.15032e-07 2.81179e-07)
(14.0839 1.11931e-07 2.98496e-07)
(14.0839 -1.30271e-07 2.98493e-07)
(14.2762 1.25074e-07 3.16572e-07)
(14.2762 -1.19511e-07 3.1657e-07)
(14.457 1.15373e-07 3.35447e-07)
(14.457 -1.31684e-07 3.35445e-07)
(14.6256 1.18512e-07 3.54856e-07)
(14.6256 -1.31099e-07 3.54853e-07)
(14.7815 1.29455e-07 3.75106e-07)
(14.7815 -1.22772e-07 3.75103e-07)
(14.9242 1.19015e-07 3.96129e-07)
(14.9242 -1.35941e-07 3.96126e-07)
(15.0531 1.18633e-07 4.17497e-07)
(15.0531 -1.39114e-07 4.17494e-07)
(15.1676 1.37984e-07 4.39643e-07)
(15.1676 -1.22649e-07 4.3964e-07)
(15.2675 1.06718e-07 4.62099e-07)
(15.2675 -1.56892e-07 4.62095e-07)
(15.3524 1.55746e-07 4.85251e-07)
(15.3524 -1.10922e-07 4.85247e-07)
(15.4219 9.18986e-08 5.08532e-07)
(15.4219 -1.77921e-07 5.08527e-07)
(15.4758 1.68854e-07 5.32166e-07)
(15.4758 -1.04204e-07 5.32161e-07)
(15.5141 9.40974e-08 5.56118e-07)
(15.5141 -1.82291e-07 5.56113e-07)
(15.5367 1.64808e-07 5.80078e-07)
(15.5367 -1.14994e-07 5.80073e-07)
(15.5435 1.06395e-07 6.04337e-07)
(15.5435 -1.76917e-07 6.04332e-07)
(15.5347 1.59035e-07 6.28546e-07)
(15.5347 -1.27864e-07 6.2854e-07)
(15.5105 1.16833e-07 6.5295e-07)
(15.5105 -1.73752e-07 6.52944e-07)
(15.471 1.50566e-07 6.77119e-07)
(15.471 -1.43781e-07 6.77113e-07)
(15.4168 1.35734e-07 7.01606e-07)
(15.4168 -1.62477e-07 7.016e-07)
(15.3481 1.38241e-07 7.25871e-07)
(15.3481 -1.63906e-07 7.25864e-07)
(15.2655 1.54688e-07 7.50486e-07)
(15.2655 -1.51495e-07 7.50479e-07)
(15.1695 1.25523e-07 7.74908e-07)
(15.1695 -1.84774e-07 7.74901e-07)
(15.0607 1.71263e-07 7.99627e-07)
(15.0607 -1.43257e-07 7.99619e-07)
(14.9399 1.24791e-07 8.24552e-07)
(14.9399 -1.94014e-07 8.24545e-07)
(14.8076 1.70821e-07 8.49542e-07)
(14.8076 -1.52405e-07 8.49534e-07)
(14.6647 1.37228e-07 8.74992e-07)
(14.6647 -1.90465e-07 8.74985e-07)
(14.5119 1.72297e-07 9.00842e-07)
(14.5119 -1.60028e-07 9.00834e-07)
(14.35 1.39012e-07 9.27065e-07)
(14.35 -1.97968e-07 9.27057e-07)
(14.1797 1.79072e-07 9.53788e-07)
(14.1797 -1.62773e-07 9.53779e-07)
(14.002 1.41067e-07 9.80979e-07)
(14.002 -2.05635e-07 9.8097e-07)
(13.8176 1.83013e-07 1.00863e-06)
(13.8176 -1.68808e-07 1.00862e-06)
(13.6272 1.54716e-07 1.03716e-06)
(13.6272 -2.02182e-07 1.03715e-06)
(13.4317 1.78756e-07 1.06623e-06)
(13.4317 -1.83547e-07 1.06622e-06)
(13.2319 1.65132e-07 1.09609e-06)
(13.2319 -2.02476e-07 1.09608e-06)
(13.0283 1.74614e-07 1.12636e-06)
(13.0283 -1.98729e-07 1.12635e-06)
(12.8217 1.8804e-07 1.15783e-06)
(12.8217 -1.90851e-07 1.15782e-06)
(12.6128 1.66785e-07 1.18994e-06)
(12.6128 -2.18209e-07 1.18993e-06)
(12.4022 1.90482e-07 1.22253e-06)
(12.4022 -2.00325e-07 1.22252e-06)
(12.1904 1.88934e-07 1.25636e-06)
(12.1904 -2.08405e-07 1.25635e-06)
(11.9781 1.79115e-07 1.29063e-06)
(11.9781 -2.24298e-07 1.29061e-06)
(11.7656 2.09422e-07 1.32599e-06)
(11.7656 -2.01019e-07 1.32597e-06)
(11.5535 1.80507e-07 1.36222e-06)
(11.5535 -2.36285e-07 1.36221e-06)
(11.3422 2.06393e-07 1.39882e-06)
(11.3422 -2.17997e-07 1.3988e-06)
(11.132 2.02059e-07 1.43648e-06)
(11.132 -2.2896e-07 1.43647e-06)
(10.9234 2.09045e-07 1.47499e-06)
(10.9234 -2.30231e-07 1.47497e-06)
(10.7165 2.04001e-07 1.51402e-06)
(10.7165 -2.42172e-07 1.514e-06)
(10.5116 2.25992e-07 1.55402e-06)
(10.5116 -2.29218e-07 1.55401e-06)
(10.3091 2.03821e-07 1.59457e-06)
(10.3091 -2.5852e-07 1.59455e-06)
(10.109 2.38407e-07 1.6358e-06)
(10.109 -2.339e-07 1.63578e-06)
(9.91157 2.15265e-07 1.67788e-06)
(9.91157 -2.64353e-07 1.67786e-06)
(9.71695 2.36732e-07 1.72015e-06)
(9.71695 -2.53965e-07 1.72013e-06)
(9.52524 2.36333e-07 1.76323e-06)
(9.52524 -2.61771e-07 1.76321e-06)
(9.33655 2.45965e-07 1.80706e-06)
(9.33655 -2.64558e-07 1.80704e-06)
(9.15094 2.33715e-07 1.85087e-06)
(9.15094 -2.8418e-07 1.85085e-06)
(8.96847 2.75277e-07 1.89567e-06)
(8.96847 -2.56679e-07 1.89564e-06)
(8.78918 2.23991e-07 1.94024e-06)
(8.78918 -3.15101e-07 1.94022e-06)
(8.61308 3.0762e-07 1.98572e-06)
(8.61308 -2.47564e-07 1.98569e-06)
(8.44019 2.19433e-07 2.03113e-06)
(8.44019 -3.42367e-07 2.03112e-06)
(8.27051 3.32409e-07 2.07711e-06)
(8.27051 -2.48015e-07 2.07708e-06)
(8.10403 2.1756e-07 2.12276e-06)
(8.10403 -3.68554e-07 2.12274e-06)
(7.94071 3.59351e-07 2.16875e-06)
(7.94071 -2.48577e-07 2.16872e-06)
(7.78053 2.28454e-07 2.21497e-06)
(7.78053 -3.8367e-07 2.21496e-06)
(7.62347 3.68893e-07 2.2609e-06)
(7.62347 -2.691e-07 2.26086e-06)
(7.46947 2.52048e-07 2.30715e-06)
(7.46947 -3.87852e-07 2.30713e-06)
(7.3185 3.73627e-07 2.35279e-06)
(7.3185 -2.97347e-07 2.35274e-06)
(7.1705 2.76867e-07 2.39843e-06)
(7.1705 -3.92621e-07 2.39842e-06)
(7.02543 3.92752e-07 2.44403e-06)
(7.02543 -3.14542e-07 2.44397e-06)
(6.88324 2.78893e-07 2.48853e-06)
(6.88324 -4.22002e-07 2.48853e-06)
(6.74388 4.4006e-07 2.53374e-06)
(6.74388 -3.07411e-07 2.53366e-06)
(6.6073 2.63388e-07 2.57726e-06)
(6.6073 -4.70675e-07 2.57727e-06)
(6.47346 4.90461e-07 2.62098e-06)
(6.47346 -3.0168e-07 2.62088e-06)
(6.3423 2.61353e-07 2.66336e-06)
(6.3423 -5.07497e-07 2.66338e-06)
(6.2138 5.39154e-07 2.70606e-06)
(6.2138 -3.02949e-07 2.70593e-06)
(6.0879 2.45131e-07 2.74631e-06)
(6.0879 -5.5985e-07 2.74636e-06)
(5.96456 6.06668e-07 2.78702e-06)
(5.96456 -2.91691e-07 2.78686e-06)
(5.84376 2.28025e-07 2.82523e-06)
(5.84376 -6.13984e-07 2.8253e-06)
(5.72544 6.8006e-07 2.86414e-06)
(5.72544 -2.82138e-07 2.86393e-06)
(5.60959 1.96255e-07 2.89945e-06)
(5.60959 -6.82967e-07 2.89957e-06)
(5.49615 7.75654e-07 2.93592e-06)
(5.49615 -2.5962e-07 2.93564e-06)
(5.38511 1.48585e-07 2.96778e-06)
(5.3851 -7.6697e-07 2.96796e-06)
(5.27641 8.94366e-07 3.00146e-06)
(5.27641 -2.25386e-07 3.00109e-06)
(5.17005 8.39943e-08 3.02959e-06)
(5.17005 -8.65442e-07 3.02987e-06)
(5.06598 1.03803e-06 3.06048e-06)
(5.06598 -1.80446e-07 3.05998e-06)
(4.96419 -6.93687e-09 3.08424e-06)
(4.96419 -9.85525e-07 3.08465e-06)
(4.86464 1.2157e-06 3.11186e-06)
(4.86464 -1.19507e-07 3.11118e-06)
(4.76733 -1.30169e-07 3.13032e-06)
(4.76733 -1.12992e-06 3.13093e-06)
(4.67224 1.44634e-06 3.15508e-06)
(4.67224 -2.86493e-08 3.15416e-06)
(4.57934 -3.1171e-07 3.16752e-06)
(4.57934 -1.32002e-06 3.16839e-06)
(4.48863 1.74611e-06 3.18909e-06)
(4.48863 1.01527e-07 3.18782e-06)
(4.40009 -5.55136e-07 3.1951e-06)
(4.40009 -1.55286e-06 3.19636e-06)
(4.31372 2.11921e-06 3.21353e-06)
(4.31372 2.66064e-07 3.21178e-06)
(4.2295 -8.77903e-07 3.21168e-06)
(4.2295 -1.83669e-06 3.21348e-06)
(4.14742 2.59522e-06 3.22709e-06)
(4.14742 4.82129e-07 3.22466e-06)
(4.06748 -1.30855e-06 3.216e-06)
(4.06748 -2.18715e-06 3.21858e-06)
(3.98966 3.20619e-06 3.22895e-06)
(3.98966 7.64787e-07 3.22555e-06)
(3.91396 -1.88509e-06 3.20688e-06)
(3.91396 -2.62415e-06 3.21057e-06)
(3.84037 3.99453e-06 3.21803e-06)
(3.84037 1.13317e-06 3.21326e-06)
(3.76886 -2.65095e-06 3.183e-06)
(3.76886 -3.16576e-06 3.18829e-06)
(3.69941 5.00605e-06 3.19306e-06)
(3.69941 1.60101e-06 3.18633e-06)
(3.632 -3.65292e-06 3.14279e-06)
(3.632 -3.82311e-06 3.15035e-06)
(3.56657 6.30174e-06 3.15377e-06)
(3.56657 2.18474e-06 3.14426e-06)
(3.50309 -4.97782e-06 3.0841e-06)
(3.50309 -4.63279e-06 3.09492e-06)
(3.44147 7.99488e-06 3.09921e-06)
(3.44147 2.93571e-06 3.08574e-06)
(3.38164 -6.74861e-06 3.00561e-06)
(3.38164 -5.6477e-06 3.0211e-06)
(3.32351 1.02099e-05 3.02812e-06)
(3.32351 3.89295e-06 3.00898e-06)
(3.26698 -9.09375e-06 2.90502e-06)
(3.26698 -6.89808e-06 2.92722e-06)
(3.21196 1.31066e-05 2.94126e-06)
(3.21195 5.09647e-06 2.91398e-06)
(3.15833 -1.22268e-05 2.77888e-06)
(3.15833 -8.45882e-06 2.81075e-06)
(3.10602 1.69386e-05 2.83626e-06)
(3.10602 6.6322e-06 2.79727e-06)
(3.05494 -1.63913e-05 2.62622e-06)
(3.05493 -1.0378e-05 2.67204e-06)
(3.00503 2.19599e-05 2.71577e-06)
(3.00503 8.51818e-06 2.6599e-06)
(2.95626 -2.19197e-05 2.44193e-06)
(2.95626 -1.27119e-05 2.50792e-06)
(2.90862 2.85929e-05 2.57938e-06)
(2.90861 1.08443e-05 2.49909e-06)
(2.86211 -2.92712e-05 2.22376e-06)
(2.8621 -1.55285e-05 2.31901e-06)
(2.81675 3.73373e-05 2.43006e-06)
(2.81675 1.36402e-05 2.31436e-06)
(2.77258 -3.90304e-05 1.96602e-06)
(2.77258 -1.88574e-05 2.10378e-06)
(2.72961 4.89124e-05 2.27404e-06)
(2.72961 1.69583e-05 2.10685e-06)
(2.68787 -5.20548e-05 1.66456e-06)
(2.68787 -2.27659e-05 1.86427e-06)
(2.64737 6.42995e-05 2.11739e-06)
(2.64737 2.08314e-05 1.87511e-06)
(2.60809 -6.94614e-05 1.31167e-06)
(2.60809 -2.72436e-05 1.72912e-06)
(2.57003 8.48084e-05 1.97108e-06)
(2.57003 2.52152e-05 1.61898e-06)
(2.53315 -9.28074e-05 8.94347e-07)
(2.53315 -3.22337e-05 1.89454e-06)
(2.49741 0.00011229 1.8483e-06)
(2.49741 3.00211e-05 1.51811e-06)
(2.46276 -0.000124244 5.78837e-07)
(2.46276 -3.75746e-05 2.09549e-06)
(2.42911 0.000144611 1.57311e-06)
(2.42911 3.4964e-05 1.71142e-06)
(2.3964 -0.000157102 4.1002e-07)
(2.3964 -4.28922e-05 2.3388e-06)
(2.36457 0.000174161 1.09047e-06)
(2.36456 3.957e-05 2.11593e-06)
(2.33354 -0.00018262 2.27605e-07)
(2.33353 -4.7722e-05 2.62477e-06)
(2.30327 0.000196233 5.57903e-07)
(2.30327 4.33507e-05 2.56962e-06)
(2.27372 -0.000200183 3.04599e-08)
(2.27372 -5.16103e-05 2.95152e-06)
(2.24489 0.000210191 0)
(2.24489 4.58529e-05 3.07258e-06)
(2.21679 -0.00019844 5.09603e-07)
(2.21679 -5.41589e-05 2.83775e-06)
(2.18945 0.000205132 2.18668e-07)
(2.18944 4.68238e-05 3.1038e-06)
(2.16288 -0.000187894 1.18531e-06)
(2.16288 -5.51363e-05 2.68596e-06)
(2.1371 0.000190359 4.57256e-07)
(2.1371 4.62248e-05 3.14308e-06)
(2.11209 -0.000167614 1.90346e-06)
(2.11209 -5.45982e-05 2.53484e-06)
(2.08785 0.000165671 7.15449e-07)
(2.08785 4.41904e-05 3.20179e-06)
(2.06437 -0.000139676 2.55053e-06)
(2.06437 -5.27602e-05 2.50367e-06)
(2.0416 0.000135577 1.1078e-06)
(2.0416 4.09901e-05 3.28959e-06)
(2.0195 -0.000111831 2.95463e-06)
(2.0195 -5.0009e-05 2.76711e-06)
(1.99799 0.000111441 1.82023e-06)
(1.99799 3.70376e-05 3.40542e-06)
(1.97694 -8.92848e-05 3.41656e-06)
(1.97694 -4.68117e-05 3.0234e-06)
(1.95619 9.21436e-05 2.54361e-06)
(1.95619 3.27199e-05 3.54561e-06)
(1.93558 -7.09762e-05 3.93852e-06)
(1.93558 -4.34559e-05 3.56619e-06)
(1.9149 7.67169e-05 3.28444e-06)
(1.9149 2.82491e-05 3.70709e-06)
(1.89395 -5.60408e-05 4.51871e-06)
(1.89395 -4.01328e-05 4.23328e-06)
(1.87256 6.4429e-05 4.05072e-06)
(1.87256 2.38097e-05 4.31332e-06)
(1.85059 -4.38238e-05 5.15292e-06)
(1.85059 -3.70102e-05 4.9359e-06)
(1.82794 5.46712e-05 4.83959e-06)
(1.82794 1.9503e-05 5.04364e-06)
(1.80461 -3.37608e-05 5.83502e-06)
(1.80461 -3.41629e-05 5.6718e-06)
(1.78063 4.69369e-05 5.64997e-06)
(1.78063 1.53673e-05 5.80877e-06)
(1.75603 -2.54004e-05 6.56144e-06)
(1.75603 -3.1635e-05 6.44032e-06)
(1.73081 4.08674e-05 6.48775e-06)
(1.73081 1.14633e-05 6.61196e-06)
(1.70495 -1.84184e-05 7.3306e-06)
(1.70494 -2.94878e-05 7.24231e-06)
(1.67836 3.61729e-05 7.35161e-06)
(1.67836 7.82113e-06 7.44974e-06)
(1.65097 -1.25385e-05 8.1374e-06)
(1.65097 -2.77414e-05 8.07479e-06)
(1.62269 3.25805e-05 8.23631e-06)
(1.62268 4.40678e-06 8.31496e-06)
(1.59342 -7.53131e-06 8.98023e-06)
(1.59341 -2.63931e-05 8.93776e-06)
(1.56309 2.99263e-05 9.15673e-06)
(1.56309 1.23313e-06 9.22107e-06)
(1.53163 -3.21059e-06 9.87907e-06)
(1.53163 -2.54305e-05 9.85245e-06)
(1.499 2.80611e-05 1.0134e-05)
(1.499 -1.71941e-06 1.01881e-05)
(1.46522 5.77756e-07 1.08505e-05)
(1.46521 -2.4834e-05 1.08365e-05)
(1.43041 2.68189e-05 1.11805e-05)
(1.4304 -4.52422e-06 1.12274e-05)
(1.39478 3.99132e-06 1.19101e-05)
(1.39477 -2.45507e-05 1.19061e-05)
(1.35859 2.61158e-05 1.23197e-05)
(1.35858 -7.20088e-06 1.23618e-05)
(1.3221 7.15718e-06 1.30735e-05)
(1.32209 -2.45362e-05 1.30778e-05)
(1.28551 2.58695e-05 1.35492e-05)
(1.2855 -9.7896e-06 1.35884e-05)
(1.24888 1.01042e-05 1.431e-05)
(1.24888 -2.4828e-05 1.43211e-05)
(1.2122 2.60325e-05 1.48276e-05)
(1.21219 -1.23133e-05 1.48654e-05)
(1.17526 1.28081e-05 1.55783e-05)
(1.17526 -2.55054e-05 1.55953e-05)
(1.1379 2.66161e-05 1.61432e-05)
(1.1379 -1.47491e-05 1.61805e-05)
(1.10002 1.53736e-05 1.691e-05)
(1.10001 -2.65101e-05 1.6932e-05)
(1.06164 2.75711e-05 1.75436e-05)
(1.06163 -1.71453e-05 1.75813e-05)
(1.02294 1.79346e-05 1.83597e-05)
(1.02293 -2.77507e-05 1.83862e-05)
(0.98407 2.88116e-05 1.9069e-05)
(0.984058 -1.95954e-05 1.91077e-05)
(0.945197 2.05426e-05 1.99437e-05)
(0.945184 -2.92152e-05 1.99743e-05)
(0.906458 3.03382e-05 2.07285e-05)
(0.906445 -2.21142e-05 2.07686e-05)
(0.868026 2.31619e-05 2.16538e-05)
(0.868012 -3.09779e-05 2.16881e-05)
(0.830116 3.2149e-05 2.25168e-05)
(0.830101 -2.47251e-05 2.25586e-05)
(0.792976 2.58747e-05 2.35121e-05)
(0.792961 -3.29959e-05 2.35498e-05)
(0.756811 3.43368e-05 2.44677e-05)
(0.756795 -2.73621e-05 2.45113e-05)
(0.721662 2.86284e-05 2.5512e-05)
(0.721645 -3.5361e-05 2.55529e-05)
(0.687382 3.68733e-05 2.65285e-05)
(0.687364 -3.00847e-05 2.65742e-05)
(0.653652 3.14213e-05 2.75947e-05)
(0.653633 -3.81154e-05 2.76387e-05)
(0.620034 3.97227e-05 2.86605e-05)
(0.620014 -3.29635e-05 2.87084e-05)
(0.586088 3.43507e-05 2.97751e-05)
(0.586065 -4.12034e-05 2.98219e-05)
(0.551452 4.3004e-05 3.09299e-05)
(0.551427 -3.59182e-05 3.09795e-05)
(0.515802 3.73698e-05 3.21056e-05)
(0.515773 -4.47163e-05 3.21545e-05)
(0.478899 4.66811e-05 3.33621e-05)
(0.478866 -3.90287e-05 3.34126e-05)
(0.440808 4.05349e-05 3.46343e-05)
(0.440771 -4.86471e-05 3.4684e-05)
(0.402022 5.08262e-05 3.60398e-05)
(0.401979 -4.22739e-05 3.60896e-05)
(0.363382 4.39006e-05 3.74448e-05)
(0.363334 -5.29975e-05 3.74935e-05)
(0.325827 5.55161e-05 3.90107e-05)
(0.325775 -4.56361e-05 3.90582e-05)
(0.29017 4.73146e-05 4.05074e-05)
(0.290114 -5.7983e-05 4.05536e-05)
(0.257101 6.08231e-05 4.22183e-05)
(0.257042 -4.91087e-05 4.22623e-05)
(0.227084 5.0893e-05 4.37991e-05)
(0.22702 -6.3554e-05 4.38422e-05)
(0.200005 6.68265e-05 4.5623e-05)
(0.199938 -5.26798e-05 4.56631e-05)
(0.175044 5.45129e-05 4.72077e-05)
(0.174968 -6.98992e-05 4.72474e-05)
(0.15105 7.35662e-05 4.90932e-05)
(0.150962 -5.63759e-05 4.91289e-05)
(0.127192 5.8067e-05 5.06586e-05)
(0.127088 -7.71907e-05 5.06938e-05)
(0.103512 8.12283e-05 5.2687e-05)
(0.103386 -6.00775e-05 5.2716e-05)
(0.0808019 6.15545e-05 5.43443e-05)
(0.0806532 -8.54935e-05 5.43725e-05)
(0.0600978 9.00828e-05 5.6678e-05)
(0.0599262 -6.35787e-05 5.66978e-05)
(0.0421816 6.50069e-05 5.85124e-05)
(0.0419909 -9.48369e-05 5.85318e-05)
(0.0274552 0.000100057 6.11572e-05)
(0.0272527 -6.70116e-05 6.11672e-05)
(0.0160794 6.84685e-05 6.31356e-05)
(0.0158742 -0.000105232 6.31469e-05)
(0.00775124 0.000111454 6.60167e-05)
(0.00754975 -7.01251e-05 6.60187e-05)
(0.00171851 7.14441e-05 6.78641e-05)
(0.00152095 -0.00011722 6.78698e-05)
(-0.00284343 0.000124404 7.07814e-05)
(-0.00304274 -7.28414e-05 7.07777e-05)
(-0.00663019 7.37296e-05 7.23103e-05)
(-0.0068416 -0.000131026 7.23183e-05)
(-0.0102719 0.000139025 7.52375e-05)
(-0.0105103 -7.50778e-05 7.52378e-05)
(-0.0144841 7.51996e-05 7.65245e-05)
(-0.0147632 -0.00014684 7.65388e-05)
(-0.020108 0.00015596 7.97488e-05)
(-0.0204307 -7.62406e-05 7.97548e-05)
(-0.0279273 7.58012e-05 8.09322e-05)
(-0.0282784 -0.00016475 8.09579e-05)
(-0.0385487 0.000175465 8.44967e-05)
(-0.0388977 -7.61274e-05 8.45156e-05)
(-0.0523398 7.485e-05 8.53518e-05)
(-0.0526568 -0.000185487 8.54007e-05)
(-0.0693345 0.000197795 8.92037e-05)
(-0.0696075 -7.45593e-05 8.92498e-05)
(-0.0895019 7.21268e-05 8.96998e-05)
(-0.0897378 -0.000209347 8.97911e-05)
(-0.112937 0.000223599 9.40331e-05)
(-0.113148 -7.10172e-05 9.41267e-05)
(-0.139415 6.71855e-05 9.41918e-05)
(-0.139605 -0.000236914 9.43521e-05)
(-0.168255 0.000253552 9.92182e-05)
(-0.168429 -6.50422e-05 9.93866e-05)
(-0.198837 5.9584e-05 9.90228e-05)
(-0.198995 -0.000268855 9.92863e-05)
(-0.231014 0.000288667 0.000104906)
(-0.231162 -5.59702e-05 0.00010518)
(-0.2651 4.84484e-05 0.000104073)
(-0.265238 -0.000306385 0.00010448)
(-0.301189 0.000329853 0.00011085)
(-0.30132 -4.34012e-05 0.000111268)
(-0.338603 3.32618e-05 0.000109214)
(-0.338724 -0.000350489 0.000109824)
(-0.376022 0.000378689 0.000117141)
(-0.376132 -2.6494e-05 0.000117751)
(-0.412005 1.29749e-05 0.000114388)
(-0.412103 -0.000402873 0.000115271)
(-0.445546 0.000437069 0.000123674)
(-0.445631 -4.41961e-06 0.000124519)
(-0.475698 -1.3567e-05 0.000119386)
(-0.475769 -0.000465522 0.00012062)
(-0.50076 0.000507539 0.000130328)
(-0.500814 2.39629e-05 0.000131436)
(-0.518753 -4.79722e-05 0.000123935)
(-0.518789 -0.000540963 0.000125599)
(-0.528794 0.000593225 0.000136924)
(-0.528811 5.99855e-05 0.000138273)
(-0.531933 -9.19239e-05 0.000127801)
(-0.531936 -0.000631754 0.000129949)
(-0.530829 0.000697467 0.000143231)
(-0.530825 0.000104857 0.000144732)
(-0.528594 -0.000148259 0.000130559)
(-0.52859 -0.000741307 0.000133282)
(-0.527451 0.000824802 0.000149438)
(-0.52745 0.000160564 0.000151004)
(-0.5277 -0.000219246 0.000132771)
(-0.527701 -0.000872043 0.000136292)
(-0.528066 0.000980395 0.000155934)
(-0.528064 0.000228811 0.000157469)
(-0.526835 -0.000309594 0.000133469)
(-0.526825 -0.00102828 0.000138156)
(-0.52252 0.00117078 0.000161509)
(-0.522497 0.000311057 0.000162759)
(-0.514171 -0.000424081 0.000131222)
(-0.514131 -0.00121334 0.000137566)
(-0.50164 0.00140397 0.000165019)
(-0.501582 0.000408024 0.000165437)
(-0.485588 -0.000570331 0.000124338)
(-0.485511 -0.00143146 0.000133035)
(-0.466674 0.00169101 0.000166326)
(-0.466575 0.000520499 0.000164982)
(-0.444355 -0.000757327 0.000113521)
(-0.444225 -0.00168523 0.00012566)
(-0.417655 0.00204697 0.000168012)
(-0.417485 0.000649042 0.000163445)
(-0.387088 -0.000997995 0.000100234)
(-0.386875 -0.00197708 0.000124196)
(-0.354391 0.00249101 0.000171624)
(-0.354138 0.000792624 0.000161565)
(-0.321898 -0.00131167 8.28839e-05)
(-0.321619 -0.00231031 0.000144281)
(-0.291984 0.00304795 0.000176056)
(-0.291691 0.000949121 0.000157421)
(-0.26575 -0.00172352 5.8639e-05)
(-0.265453 -0.00268694 0.000167956)
(-0.242726 0.00505189 0.000515184)
(-0.242442 0.00111225 0.000149929)
(-0.221826 -0.00374583 0.000169079)
(-0.221576 -0.00282523 8.0812e-05)
(-0.203696 0.00551807 0.000213651)
(-0.203496 0.00151594 0.000128102)
(-0.189526 -0.00448492 0.000194833)
(-0.189382 -0.00290496 6.80259e-05)
(-0.178963 0.00590303 0.000239868)
(-0.17886 0.00190099 0.000100777)
(-0.16965 -0.00518635 0.000227563)
(-0.169568 -0.0029131 5.08837e-05)
(-0.159815 0.00618414 0.000271533)
(-0.159752 0.00227082 6.74865e-05)
(-0.150866 -0.00583783 0.000267709)
(-0.150832 -0.00283738 2.91989e-05)
(-0.145625 0.00633072 0.000307519)
(-0.145616 0.00262464 2.5127e-05)
(0.0854133 -8.15619e-09 -1.81555e-21)
(0.0854131 1.59913e-08 7.7397e-07)
(0.257279 -9.72702e-09 1.66306e-10)
(0.257278 4.71753e-08 1.16536e-06)
(0.431431 -2.28724e-08 5.41706e-10)
(0.43143 6.45263e-08 1.02796e-06)
(0.607889 -5.64839e-08 1.03302e-09)
(0.607888 6.24103e-08 6.85862e-07)
(0.78667 -7.73239e-08 1.35762e-09)
(0.786669 6.11916e-08 3.90499e-07)
(0.96779 -8.05575e-08 1.60911e-09)
(0.967789 6.85166e-08 2.32998e-07)
(1.15127 -8.0695e-08 1.86385e-09)
(1.15127 7.50039e-08 1.54488e-07)
(1.33715 -8.1429e-08 2.16854e-09)
(1.33715 7.92668e-08 1.11903e-07)
(1.52547 -8.27447e-08 2.53893e-09)
(1.52547 8.17454e-08 8.62157e-08)
(1.71627 -8.33051e-08 2.97303e-09)
(1.71627 8.43203e-08 6.92075e-08)
(1.90962 -8.44827e-08 3.47254e-09)
(1.90962 8.57906e-08 5.70296e-08)
(2.10557 -8.53434e-08 4.04171e-09)
(2.10557 8.7258e-08 4.77e-08)
(2.30419 -8.6104e-08 4.68119e-09)
(2.30419 8.85751e-08 4.01088e-08)
(2.50556 -8.70077e-08 5.3964e-09)
(2.50556 8.95694e-08 3.3584e-08)
(2.70976 -8.76917e-08 6.19174e-09)
(2.70976 9.0638e-08 2.76909e-08)
(2.91687 -8.85888e-08 7.07194e-09)
(2.91686 9.13829e-08 2.21299e-08)
(3.12696 -8.91491e-08 8.04142e-09)
(3.12696 9.23737e-08 1.66819e-08)
(3.34013 -8.98439e-08 9.10574e-09)
(3.34012 9.31579e-08 1.11769e-08)
(3.55645 -9.06986e-08 5.44931e-09)
(3.55644 9.37235e-08 5.47443e-09)
(3.776 -9.12656e-08 -5.69272e-10)
(3.776 9.45287e-08 -5.45419e-10)
(3.99886 -9.17806e-08 -7.01325e-09)
(3.99885 9.53479e-08 -6.99045e-09)
(4.22509 -9.25091e-08 -1.39853e-08)
(4.22509 9.5921e-08 -1.39635e-08)
(4.45476 -9.34898e-08 -2.15855e-08)
(4.45476 9.62173e-08 -1.83674e-08)
(4.68791 -9.35565e-08 -2.99097e-08)
(4.68791 9.74096e-08 -2.02693e-08)
(4.9246 -9.44287e-08 -3.90568e-08)
(4.92459 9.77776e-08 -2.23257e-08)
(5.16483 -9.50616e-08 -4.9131e-08)
(5.16483 9.83788e-08 -2.45411e-08)
(5.40863 -9.60882e-08 -6.02387e-08)
(5.40863 9.85732e-08 -2.69178e-08)
(5.65599 -9.58766e-08 -7.24875e-08)
(5.65599 1.00009e-07 -2.94727e-08)
(5.90689 -9.71154e-08 -8.5995e-08)
(5.90689 9.99863e-08 -3.22202e-08)
(6.16128 -9.74674e-08 -9.27917e-08)
(6.16127 1.00857e-07 -3.51654e-08)
(6.41909 -9.87102e-08 -9.18726e-08)
(6.41909 1.00839e-07 -3.83137e-08)
(6.68024 -9.83401e-08 -9.11359e-08)
(6.68024 1.02441e-07 -4.16844e-08)
(6.94462 -9.97259e-08 -9.05668e-08)
(6.94462 1.02298e-07 -4.52953e-08)
(7.21208 -1.00188e-07 -9.0152e-08)
(7.21208 1.03087e-07 -4.915e-08)
(7.48245 -1.01157e-07 -8.98813e-08)
(7.48245 1.03385e-07 -5.32603e-08)
(7.75554 -1.01056e-07 -8.97451e-08)
(7.75554 1.04768e-07 -5.76499e-08)
(8.03112 -1.02399e-07 -8.97363e-08)
(8.03112 1.04725e-07 -6.23373e-08)
(8.30893 -1.02984e-07 -8.98478e-08)
(8.30893 1.05458e-07 -6.73284e-08)
(8.58869 -1.03909e-07 -9.00747e-08)
(8.58869 1.05875e-07 -7.26384e-08)
(8.87007 -1.03953e-07 -9.04119e-08)
(8.87007 1.07195e-07 -7.82947e-08)
(9.15272 -1.05121e-07 -9.0856e-08)
(9.15272 1.07418e-07 -8.43222e-08)
(9.43627 -1.05938e-07 -9.14033e-08)
(9.43627 1.08019e-07 -9.07313e-08)
(9.72028 -1.07095e-07 -9.75323e-08)
(9.72028 1.08311e-07 -9.75335e-08)
(10.0043 -1.06548e-07 -1.0477e-07)
(10.0043 1.1034e-07 -1.04771e-07)
(10.2879 -1.09174e-07 -1.12456e-07)
(10.2879 1.09228e-07 -1.12457e-07)
(10.5705 -1.07986e-07 -1.20619e-07)
(10.5705 1.1197e-07 -1.2062e-07)
(10.8516 -1.11558e-07 -1.29268e-07)
(10.8516 1.09987e-07 -1.2927e-07)
(11.1307 -1.08892e-07 -1.38447e-07)
(11.1307 1.14288e-07 -1.38449e-07)
(11.4071 -1.12255e-07 -1.48208e-07)
(11.4071 1.12602e-07 -1.4821e-07)
(11.6802 -1.14011e-07 -1.58503e-07)
(11.6802 1.12566e-07 -1.58505e-07)
(11.9494 -1.14476e-07 -1.69345e-07)
(11.9494 1.13878e-07 -1.69348e-07)
(12.2141 -1.07479e-07 -1.80966e-07)
(12.2141 1.22692e-07 -1.80968e-07)
(12.4735 -1.27333e-07 -1.93136e-07)
(12.4735 1.04718e-07 -1.93138e-07)
(12.727 -1.05759e-07 -2.05961e-07)
(12.727 1.28225e-07 -2.05964e-07)
(12.9738 -1.24162e-07 -2.19608e-07)
(12.9738 1.11815e-07 -2.19611e-07)
(13.2134 -1.18462e-07 -2.3383e-07)
(13.2134 1.19576e-07 -2.33833e-07)
(13.4448 -1.15494e-07 -2.48925e-07)
(13.4448 1.24656e-07 -2.48928e-07)
(13.6675 -1.29836e-07 -2.64681e-07)
(13.6675 1.12508e-07 -2.64684e-07)
(13.8808 -1.14909e-07 -2.81179e-07)
(13.8808 1.29687e-07 -2.81183e-07)
(14.0839 -1.30153e-07 -2.98493e-07)
(14.0839 1.16782e-07 -2.98497e-07)
(14.2762 -1.194e-07 -3.1657e-07)
(14.2762 1.29933e-07 -3.16573e-07)
(14.457 -1.31578e-07 -3.35445e-07)
(14.457 1.20243e-07 -3.35449e-07)
(14.6256 -1.30999e-07 -3.54853e-07)
(14.6256 1.23391e-07 -3.54858e-07)
(14.7815 -1.22678e-07 -3.75103e-07)
(14.7815 1.34344e-07 -3.75108e-07)
(14.9242 -1.35854e-07 -3.96126e-07)
(14.9242 1.23912e-07 -3.9613e-07)
(15.0531 -1.39033e-07 -4.17494e-07)
(15.0531 1.23541e-07 -4.17498e-07)
(15.1676 -1.22575e-07 -4.3964e-07)
(15.1676 1.429e-07 -4.39645e-07)
(15.2675 -1.56824e-07 -4.62095e-07)
(15.2675 1.11643e-07 -4.621e-07)
(15.3524 -1.10862e-07 -4.85247e-07)
(15.3524 1.60679e-07 -4.85253e-07)
(15.4219 -1.77868e-07 -5.08527e-07)
(15.4219 9.68406e-08 -5.08533e-07)
(15.4758 -1.04158e-07 -5.32161e-07)
(15.4758 1.73803e-07 -5.32167e-07)
(15.5141 -1.82253e-07 -5.56113e-07)
(15.5141 9.90548e-08 -5.56119e-07)
(15.5367 -1.14963e-07 -5.80073e-07)
(15.5367 1.69773e-07 -5.80079e-07)
(15.5435 -1.76894e-07 -6.04332e-07)
(15.5435 1.11367e-07 -6.04339e-07)
(15.5347 -1.27849e-07 -6.2854e-07)
(15.5347 1.64013e-07 -6.28547e-07)
(15.5105 -1.73745e-07 -6.52944e-07)
(15.5105 1.21818e-07 -6.52951e-07)
(15.471 -1.43781e-07 -6.77113e-07)
(15.471 1.55556e-07 -6.7712e-07)
(15.4168 -1.62486e-07 -7.016e-07)
(15.4168 1.40731e-07 -7.01607e-07)
(15.3481 -1.63922e-07 -7.25864e-07)
(15.3481 1.43242e-07 -7.25872e-07)
(15.2655 -1.5152e-07 -7.50479e-07)
(15.2655 1.59694e-07 -7.50487e-07)
(15.1695 -1.84806e-07 -7.74901e-07)
(15.1695 1.30533e-07 -7.74909e-07)
(15.0607 -1.43297e-07 -7.99619e-07)
(15.0607 1.76277e-07 -7.99628e-07)
(14.9399 -1.94063e-07 -8.24545e-07)
(14.9399 1.29809e-07 -8.24554e-07)
(14.8076 -1.52462e-07 -8.49534e-07)
(14.8076 1.75842e-07 -8.49544e-07)
(14.6647 -1.9053e-07 -8.74985e-07)
(14.6647 1.42252e-07 -8.74994e-07)
(14.5119 -1.60101e-07 -9.00834e-07)
(14.5119 1.77323e-07 -9.00844e-07)
(14.35 -1.9805e-07 -9.27057e-07)
(14.35 1.44041e-07 -9.27067e-07)
(14.1797 -1.62863e-07 -9.53779e-07)
(14.1797 1.84102e-07 -9.53789e-07)
(14.002 -2.05733e-07 -9.8097e-07)
(14.002 1.46098e-07 -9.8098e-07)
(13.8176 -1.68915e-07 -1.00862e-06)
(13.8176 1.88046e-07 -1.00863e-06)
(13.6272 -2.02296e-07 -1.03715e-06)
(13.6272 1.59749e-07 -1.03716e-06)
(13.4318 -1.8367e-07 -1.06622e-06)
(13.4318 1.83789e-07 -1.06623e-06)
(13.2319 -2.02607e-07 -1.09608e-06)
(13.2319 1.70165e-07 -1.09609e-06)
(13.0283 -1.98868e-07 -1.12635e-06)
(13.0283 1.79648e-07 -1.12636e-06)
(12.8217 -1.90999e-07 -1.15782e-06)
(12.8217 1.93072e-07 -1.15783e-06)
(12.6128 -2.18364e-07 -1.18993e-06)
(12.6128 1.71818e-07 -1.18994e-06)
(12.4022 -2.00488e-07 -1.22252e-06)
(12.4022 1.95513e-07 -1.22253e-06)
(12.1904 -2.08576e-07 -1.25634e-06)
(12.1905 1.93965e-07 -1.25636e-06)
(11.9781 -2.24478e-07 -1.29061e-06)