/*--------------------------------*- C++ -*----------------------------------*\
| =========                 |                                                 |
| \\      /  F ield         | OpenFOAM: The Open Source CFD Toolbox           |
|  \\    /   O peration     | Version:  2106                                  |
|   \\  /    A nd           | Website:  www.openfoam.com                      |
|    \\/     M anipulation  |                                                 |
\*---------------------------------------------------------------------------*/
FoamFile
{
    version     2.0;
    format      ascii;
    arch        "LSB;label=32;scalar=64";
    class       surfaceScalarField;
    location    "14000";
    object      phi;
}
// * * * * * * * * * * * * * * * * * * * * * * * * * * * * * * * * * * * * * //

dimensions      [0 3 -1 0 0 0 0];

oriented        oriented;

internalField   nonuniform List<scalar> 
5116
(
2.68406e-08
-7.78963e-18
-1.67647e-22
-6.09584e-22
9.03236e-23
8.20805e-08
-7.78915e-18
-5.81899e-23
-1.21392e-21
1.82164e-22
1.39722e-07
-7.7887e-18
-5.6675e-23
-1.7836e-21
1.90215e-22
1.99847e-07
-7.78816e-18
-6.43678e-23
-2.44285e-21
1.98617e-22
2.62538e-07
-7.78759e-18
-7.08484e-23
-3.18423e-21
2.07387e-22
3.27884e-07
-7.78695e-18
-7.66629e-23
-3.90361e-21
2.1654e-22
3.95972e-07
-7.78629e-18
-8.24899e-23
-4.73854e-21
2.26091e-22
4.66894e-07
-7.78567e-18
-8.85296e-23
-5.52478e-21
2.36057e-22
5.40743e-07
-7.78498e-18
-9.48029e-23
-6.47646e-21
2.4645e-22
6.17617e-07
-7.78416e-18
-1.01361e-22
-7.27425e-21
2.57287e-22
6.97612e-07
-7.78341e-18
-1.08248e-22
-8.15985e-21
2.68576e-22
7.80826e-07
-7.78261e-18
-1.15487e-22
-9.11522e-21
2.8033e-22
8.6736e-07
-7.782e-18
-1.23094e-22
-1.01245e-20
2.92555e-22
9.5731e-07
-7.78116e-18
-1.31077e-22
-1.1118e-20
3.05254e-22
1.05077e-06
-7.78003e-18
-1.39441e-22
-1.2355e-20
3.18421e-22
1.14784e-06
-7.77902e-18
-1.48196e-22
-1.37857e-20
3.32046e-22
1.24861e-06
-7.77792e-18
-1.57333e-22
-1.48993e-20
3.4611e-22
1.35315e-06
-7.77652e-18
-1.66846e-22
-1.64991e-20
3.60578e-22
1.46153e-06
-7.77607e-18
-1.76725e-22
-1.7749e-20
3.75407e-22
1.57382e-06
-7.77485e-18
-1.86925e-22
-1.91599e-20
3.90536e-22
1.69004e-06
-7.77303e-18
-1.97429e-22
-2.0977e-20
4.05882e-22
1.81024e-06
-7.77164e-18
-2.08204e-22
-2.25079e-20
4.21365e-22
1.93439e-06
-7.77074e-18
-2.19205e-22
-2.41353e-20
4.36888e-22
2.0625e-06
-7.76902e-18
-2.30358e-22
-2.59199e-20
4.52337e-22
2.1945e-06
-7.76786e-18
-2.41622e-22
-2.74165e-20
4.6759e-22
2.33032e-06
-7.76665e-18
-2.52914e-22
-2.86467e-20
4.82498e-22
2.46986e-06
-7.76484e-18
-2.64159e-22
-3.05474e-20
4.9693e-22
2.61301e-06
-7.76272e-18
-2.75295e-22
-3.28217e-20
5.10763e-22
2.75962e-06
-7.76028e-18
-2.86257e-22
-3.49261e-20
5.239e-22
2.90953e-06
-7.75823e-18
-2.96998e-22
-3.67729e-20
5.36254e-22
3.06257e-06
-7.75651e-18
-3.0744e-22
-3.8524e-20
5.47733e-22
3.21857e-06
-7.7546e-18
-3.17538e-22
-4.0603e-20
5.58266e-22
3.37733e-06
-7.75357e-18
-3.27266e-22
-4.24041e-20
5.67832e-22
3.53869e-06
-7.75162e-18
-3.36593e-22
-4.45018e-20
5.76441e-22
3.70248e-06
-7.74853e-18
-3.45527e-22
-4.79246e-20
5.84127e-22
3.86855e-06
-7.74576e-18
-3.54119e-22
-5.06142e-20
5.90953e-22
4.03676e-06
-7.74308e-18
-3.62393e-22
-5.39366e-20
5.96965e-22
4.20699e-06
-7.73996e-18
-3.70353e-22
-5.652e-20
6.02253e-22
4.37914e-06
-7.73648e-18
-3.78067e-22
-5.93946e-20
6.06875e-22
4.55312e-06
-7.73357e-18
-3.85589e-22
-6.26538e-20
6.10919e-22
4.72887e-06
-7.7303e-18
-3.92947e-22
-6.50731e-20
6.14492e-22
4.90635e-06
-7.72727e-18
-4.00206e-22
-6.8596e-20
6.17654e-22
5.08552e-06
-7.72436e-18
-4.07437e-22
-7.19602e-20
6.20513e-22
5.26638e-06
-7.72134e-18
-4.14681e-22
-7.40723e-20
6.23135e-22
5.44891e-06
-7.71878e-18
-4.21978e-22
-7.79244e-20
6.25534e-22
5.63314e-06
-7.71624e-18
-4.29373e-22
-7.9171e-20
6.27837e-22
5.81909e-06
-7.71527e-18
-4.36923e-22
-8.08175e-20
6.30021e-22
6.00678e-06
-7.71417e-18
-4.44599e-22
-8.27823e-20
6.32173e-22
6.19626e-06
-7.71154e-18
-4.52438e-22
-8.49022e-20
6.34392e-22
6.38757e-06
-7.71088e-18
-4.60522e-22
-8.57708e-20
6.36678e-22
6.58077e-06
-7.7077e-18
-4.68812e-22
-8.81051e-20
6.39007e-22
6.77591e-06
-7.70504e-18
-4.77404e-22
-9.06368e-20
6.41434e-22
6.97305e-06
-7.70261e-18
-4.86297e-22
-9.15393e-20
6.43979e-22
7.17227e-06
-7.69898e-18
-4.95493e-22
-9.50033e-20
6.46652e-22
7.37362e-06
-7.69653e-18
-5.05053e-22
-9.71736e-20
6.4952e-22
7.57717e-06
-7.69514e-18
-5.14941e-22
-9.88718e-20
6.52544e-22
7.78299e-06
-7.69059e-18
-5.25134e-22
-1.01335e-19
6.55732e-22
7.99117e-06
-7.68835e-18
-5.35843e-22
-1.05663e-19
6.59021e-22
8.20176e-06
-7.68441e-18
-5.46916e-22
-1.08191e-19
6.62488e-22
8.41485e-06
-7.68097e-18
-5.58391e-22
-1.11983e-19
6.66078e-22
8.63051e-06
-7.6753e-18
-5.70228e-22
-1.16032e-19
6.69822e-22
8.84881e-06
-7.67152e-18
-5.82588e-22
-1.19412e-19
6.73745e-22
9.06984e-06
-7.66687e-18
-5.9546e-22
-1.24992e-19
6.77757e-22
9.29367e-06
-7.66587e-18
-6.08978e-22
-1.24788e-19
6.82173e-22
9.52037e-06
-7.6648e-18
-6.23018e-22
-1.23423e-19
6.86617e-22
9.75003e-06
-7.66735e-18
-6.37813e-22
-1.22534e-19
6.91207e-22
9.98272e-06
-7.66538e-18
-6.53076e-22
-1.23278e-19
6.9614e-22
1.02185e-05
-7.66616e-18
-6.69046e-22
-1.22485e-19
7.01387e-22
1.04575e-05
-7.6635e-18
-6.85793e-22
-1.2425e-19
7.06979e-22
1.06998e-05
-7.65957e-18
-7.03322e-22
-1.26237e-19
7.1302e-22
1.09454e-05
-7.65845e-18
-7.21679e-22
-1.28375e-19
7.19295e-22
1.11944e-05
-7.65585e-18
-7.40758e-22
-1.29841e-19
7.25765e-22
1.1447e-05
-7.65214e-18
-7.60636e-22
-1.3116e-19
7.32441e-22
1.17031e-05
-7.6495e-18
-7.81392e-22
-1.335e-19
7.39396e-22
1.19629e-05
-7.64722e-18
-8.0278e-22
-1.36485e-19
7.4671e-22
1.22265e-05
-7.64391e-18
-8.25017e-22
-1.364e-19
7.54383e-22
1.24939e-05
-7.63936e-18
-8.48178e-22
-1.39299e-19
7.62076e-22
1.27652e-05
-7.63905e-18
-8.72187e-22
-1.43551e-19
7.69948e-22
1.30405e-05
-7.63932e-18
-8.96758e-22
-1.46451e-19
7.78335e-22
1.33199e-05
-7.63509e-18
-9.21891e-22
-1.5047e-19
7.87196e-22
1.36035e-05
-7.63022e-18
-9.47924e-22
-1.53926e-19
7.96201e-22
1.38913e-05
-7.62721e-18
-9.74779e-22
-1.55983e-19
8.0551e-22
1.41835e-05
-7.62154e-18
-1.00207e-21
-1.60534e-19
8.1473e-22
1.44801e-05
-7.61202e-18
-1.03014e-21
-1.67671e-19
8.24338e-22
1.47812e-05
-7.60608e-18
-1.05927e-21
-1.72966e-19
8.34356e-22
1.50869e-05
-7.6007e-18
-1.089e-21
-1.77175e-19
8.44559e-22
1.53973e-05
-7.59601e-18
-1.11948e-21
-1.81669e-19
8.5475e-22
1.57125e-05
-7.59099e-18
-1.15091e-21
-1.8526e-19
8.65389e-22
1.60326e-05
-7.59042e-18
-1.1831e-21
-1.9041e-19
8.75787e-22
1.63577e-05
-7.58322e-18
-1.2162e-21
-1.92447e-19
8.8625e-22
1.66878e-05
-7.58107e-18
-1.25123e-21
-1.97952e-19
8.9651e-22
1.70231e-05
-7.57525e-18
-1.28677e-21
-2.02814e-19
9.06468e-22
1.73637e-05
-7.57411e-18
-1.32337e-21
-2.05417e-19
9.16339e-22
1.77096e-05
-7.57248e-18
-1.36005e-21
-2.10594e-19
9.26194e-22
1.8061e-05
-7.56696e-18
-1.39697e-21
-2.15703e-19
9.3586e-22
1.84179e-05
-7.55846e-18
-1.43455e-21
-2.20925e-19
9.45322e-22
1.87805e-05
-7.55071e-18
-1.47311e-21
-2.30128e-19
9.54516e-22
1.91488e-05
-7.539e-18
-1.51266e-21
-2.34303e-19
9.64308e-22
1.9523e-05
-7.53552e-18
-1.55337e-21
-2.43832e-19
9.74555e-22
1.99032e-05
-7.52491e-18
-1.59407e-21
-2.47505e-19
9.85297e-22
2.02894e-05
-7.51814e-18
-1.63639e-21
-2.50474e-19
9.9541e-22
2.06819e-05
-7.50798e-18
-1.67829e-21
-2.57771e-19
1.00474e-21
2.10806e-05
-7.50346e-18
-1.72211e-21
-2.67037e-19
1.01399e-21
2.14857e-05
-7.49469e-18
-1.76704e-21
-2.80276e-19
1.02399e-21
2.18974e-05
-7.48981e-18
-1.81323e-21
-2.89125e-19
1.03429e-21
2.23157e-05
-7.48084e-18
-1.86058e-21
-2.99327e-19
1.04475e-21
2.27407e-05
-7.47398e-18
-1.90866e-21
-3.10927e-19
1.05522e-21
2.31726e-05
-7.46626e-18
-1.95742e-21
-3.1504e-19
1.06515e-21
2.36115e-05
-7.4551e-18
-2.00818e-21
-3.24168e-19
1.07419e-21
2.40574e-05
-7.44519e-18
-2.06053e-21
-3.3191e-19
1.08294e-21
2.45107e-05
-7.43724e-18
-2.11334e-21
-3.40428e-19
1.09126e-21
2.49712e-05
-7.42516e-18
-2.16633e-21
-3.4642e-19
1.09949e-21
2.54393e-05
-7.41274e-18
-2.22064e-21
-3.54992e-19
1.10677e-21
2.59149e-05
-7.40891e-18
-2.27744e-21
-3.5942e-19
1.1138e-21
2.63983e-05
-7.40301e-18
-2.33485e-21
-3.63522e-19
1.12088e-21
2.68896e-05
-7.39387e-18
-2.39367e-21
-3.6439e-19
1.12774e-21
2.73889e-05
-7.38922e-18
-2.45472e-21
-3.66126e-19
1.13366e-21
2.78963e-05
-7.37564e-18
-2.51706e-21
-3.74305e-19
1.13768e-21
2.8412e-05
-7.36851e-18
-2.57992e-21
-3.79108e-19
1.14088e-21
2.89362e-05
-7.36008e-18
-2.64286e-21
-3.83942e-19
1.14393e-21
2.94689e-05
-7.34659e-18
-2.7065e-21
-3.89477e-19
1.14533e-21
3.00103e-05
-7.33567e-18
-2.77227e-21
-3.97598e-19
1.14601e-21
3.05605e-05
-7.3105e-18
-2.83848e-21
-4.18071e-19
1.14711e-21
3.11198e-05
-7.28682e-18
-2.90842e-21
-4.37613e-19
1.14901e-21
3.16882e-05
-7.28649e-18
-2.98177e-21
-4.41253e-19
1.15447e-21
3.2266e-05
-7.27356e-18
-3.05439e-21
-4.51289e-19
1.1582e-21
3.28532e-05
-7.27167e-18
-3.13031e-21
-4.53608e-19
1.16313e-21
3.34501e-05
-7.26166e-18
-3.20445e-21
-4.65152e-19
1.1652e-21
3.40567e-05
-7.24163e-18
-3.28123e-21
-4.70444e-19
1.16927e-21
3.46733e-05
-7.22965e-18
-3.36273e-21
-4.74652e-19
1.17086e-21
3.53001e-05
-7.21916e-18
-3.44571e-21
-4.82928e-19
1.1708e-21
3.59371e-05
-7.20952e-18
-3.52857e-21
-4.89831e-19
1.16953e-21
3.65846e-05
-7.19415e-18
-3.6123e-21
-4.98964e-19
1.16804e-21
3.72427e-05
-7.17282e-18
-3.69776e-21
-5.15153e-19
1.16482e-21
3.79116e-05
-7.16481e-18
-3.78757e-21
-5.29824e-19
1.16062e-21
3.85916e-05
-7.15034e-18
-3.87677e-21
-5.44026e-19
1.15629e-21
3.92827e-05
-7.13383e-18
-3.96821e-21
-5.60509e-19
1.1473e-21
3.99852e-05
-7.11489e-18
-4.06593e-21
-5.75827e-19
1.14017e-21
4.06992e-05
-7.09732e-18
-4.1699e-21
-5.87331e-19
1.13364e-21
4.1425e-05
-7.07546e-18
-4.28034e-21
-5.99353e-19
1.12537e-21
4.21627e-05
-7.05274e-18
-4.39754e-21
-6.16141e-19
1.11436e-21
4.29126e-05
-7.03536e-18
-4.51976e-21
-6.36903e-19
1.1035e-21
4.36748e-05
-7.0202e-18
-4.64886e-21
-6.43436e-19
1.08714e-21
4.44495e-05
-7.00911e-18
-4.78336e-21
-6.64245e-19
1.06212e-21
4.5237e-05
-6.98561e-18
-4.91686e-21
-6.88015e-19
1.0391e-21
4.60375e-05
-6.97012e-18
-5.05643e-21
-7.04349e-19
1.02104e-21
4.68511e-05
-6.95259e-18
-5.19919e-21
-7.20831e-19
1.00046e-21
4.76782e-05
-6.93199e-18
-5.34669e-21
-7.37417e-19
9.76147e-22
4.85188e-05
-6.90993e-18
-5.49657e-21
-7.65715e-19
9.54072e-22
4.93733e-05
-6.88739e-18
-5.64912e-21
-7.86938e-19
9.42585e-22
5.02419e-05
-6.8688e-18
-5.80082e-21
-8.09832e-19
9.27731e-22
5.11248e-05
-6.83833e-18
-5.95262e-21
-8.44362e-19
9.17413e-22
5.20222e-05
-6.81444e-18
-6.11289e-21
-8.62867e-19
9.1316e-22
5.29344e-05
-6.78143e-18
-6.27457e-21
-8.88172e-19
8.96931e-22
5.38616e-05
-6.75153e-18
-6.44181e-21
-9.14083e-19
8.88242e-22
5.4804e-05
-6.72369e-18
-6.60784e-21
-9.36249e-19
8.75556e-22
5.5762e-05
-6.70412e-18
-6.77431e-21
-9.63612e-19
8.53651e-22
5.67357e-05
-6.68917e-18
-6.93039e-21
-9.79865e-19
8.45199e-22
5.77255e-05
-6.66398e-18
-7.08573e-21
-9.94191e-19
8.36432e-22
5.87316e-05
-6.63359e-18
-7.24668e-21
-1.00496e-18
8.13602e-22
5.97542e-05
-6.59965e-18
-7.40939e-21
-1.02103e-18
7.80335e-22
6.07937e-05
-6.57473e-18
-7.57428e-21
-1.04966e-18
7.4782e-22
6.18502e-05
-6.53834e-18
-7.74305e-21
-1.09174e-18
7.26156e-22
6.29242e-05
-6.50431e-18
-7.90822e-21
-1.13374e-18
7.13463e-22
6.40158e-05
-6.4629e-18
-8.08922e-21
-1.17876e-18
7.1602e-22
6.51254e-05
-6.43138e-18
-8.27591e-21
-1.204e-18
7.38216e-22
6.62532e-05
-6.38716e-18
-8.45563e-21
-1.23885e-18
7.50728e-22
6.73996e-05
-6.35774e-18
-8.64516e-21
-1.27444e-18
7.53103e-22
6.85649e-05
-6.30992e-18
-8.8227e-21
-1.31134e-18
7.63727e-22
6.97493e-05
-6.26751e-18
-9.01311e-21
-1.35415e-18
7.68827e-22
7.09532e-05
-6.23979e-18
-9.21354e-21
-1.38238e-18
7.69906e-22
7.21768e-05
-6.23257e-18
-9.39861e-21
-1.38857e-18
7.81331e-22
7.34206e-05
-6.20406e-18
-9.55619e-21
-1.39412e-18
7.67052e-22
7.46848e-05
-6.18187e-18
-9.71289e-21
-1.41396e-18
7.20106e-22
7.59698e-05
-6.15608e-18
-9.86566e-21
-1.4199e-18
6.43036e-22
7.7276e-05
-6.12375e-18
-1.00235e-20
-1.44265e-18
5.45771e-22
7.86035e-05
-6.10425e-18
-1.01945e-20
-1.46577e-18
4.50425e-22
7.99529e-05
-6.07593e-18
-1.03445e-20
-1.47929e-18
3.15947e-22
8.13245e-05
-6.02451e-18
-1.05206e-20
-1.51731e-18
2.04692e-22
8.27185e-05
-6.01708e-18
-1.07394e-20
-1.52293e-18
1.66748e-22
8.41355e-05
-5.98194e-18
-1.09586e-20
-1.53818e-18
9.63455e-23
8.55757e-05
-5.94203e-18
-1.11894e-20
-1.55889e-18
2.68988e-23
8.70395e-05
-5.90572e-18
-1.14513e-20
-1.56784e-18
-3.45127e-23
8.85274e-05
-5.8852e-18
-1.17124e-20
-1.57712e-18
-8.65536e-23
9.00396e-05
-5.84637e-18
-1.19346e-20
-1.5988e-18
-1.59976e-22
9.15767e-05
-5.83405e-18
-1.21795e-20
-1.60517e-18
-2.37295e-22
9.3139e-05
-5.81159e-18
-1.23673e-20
-1.6268e-18
-3.45202e-22
9.47268e-05
-5.78576e-18
-1.25362e-20
-1.66527e-18
-4.46101e-22
9.63408e-05
-5.75233e-18
-1.2644e-20
-1.69033e-18
-5.05611e-22
9.79811e-05
-5.74047e-18
-1.27177e-20
-1.71134e-18
-5.78467e-22
9.96483e-05
-5.70589e-18
-1.27216e-20
-1.72899e-18
-6.35851e-22
0.000101343
-5.67632e-18
-1.27172e-20
-1.7412e-18
-7.16187e-22
0.000103065
-5.63147e-18
-1.27124e-20
-1.76188e-18
-8.51113e-22
0.000104816
-5.59712e-18
-1.27457e-20
-1.78294e-18
-9.80723e-22
0.000106595
-5.56032e-18
-1.28019e-20
-1.79426e-18
-1.07449e-21
0.000108403
-5.52923e-18
-1.29341e-20
-1.83206e-18
-1.20872e-21
0.000110241
-5.48594e-18
-1.31269e-20
-1.85535e-18
-1.29617e-21
0.000112109
-5.44643e-18
-1.32964e-20
-1.88559e-18
-1.35579e-21
0.000114007
-5.41732e-18
-1.34765e-20
-1.90263e-18
-1.41574e-21
0.000115937
-5.36576e-18
-1.3666e-20
-1.93238e-18
-1.53604e-21
0.000117898
-5.30227e-18
-1.38046e-20
-1.96459e-18
-1.62342e-21
0.000119891
-5.26046e-18
-1.39454e-20
-1.98163e-18
-1.70878e-21
0.000121916
-5.22267e-18
-1.40545e-20
-2.01519e-18
-1.80356e-21
0.000123975
-5.18117e-18
-1.41659e-20
-2.04492e-18
-1.76923e-21
0.000126067
-5.17199e-18
-1.43101e-20
-2.04157e-18
-1.74908e-21
0.000128194
-5.12189e-18
-1.43229e-20
-2.07455e-18
-1.84482e-21
0.000130355
-5.08447e-18
-1.43661e-20
-2.11112e-18
-1.86784e-21
0.000132551
-5.02788e-18
-1.44162e-20
-2.15486e-18
-1.72188e-21
0.000134783
-4.98673e-18
-1.44759e-20
-2.17407e-18
-1.48174e-21
0.000137052
-4.93504e-18
-1.45485e-20
-2.19748e-18
-1.25904e-21
0.000139357
-4.89826e-18
-1.46285e-20
-2.2191e-18
-1.0327e-21
0.0001417
-4.83994e-18
-1.46389e-20
-2.22457e-18
-8.79511e-22
0.000144081
-4.78548e-18
-1.47614e-20
-2.25553e-18
-9.59464e-22
0.000146501
-4.74051e-18
-1.48691e-20
-2.25782e-18
-1.113e-21
0.000148961
-4.69205e-18
-1.48625e-20
-2.27187e-18
-1.39201e-21
0.00015146
-4.62421e-18
-1.48756e-20
-2.30548e-18
-1.69918e-21
0.000154
-4.58337e-18
-1.49897e-20
-2.33558e-18
-1.98341e-21
0.000156581
-4.53746e-18
-1.50101e-20
-2.36063e-18
-2.44922e-21
0.000159204
-4.52274e-18
-1.51587e-20
-2.3873e-18
-2.87429e-21
0.00016187
-4.44537e-18
-1.51166e-20
-2.40889e-18
-3.20965e-21
0.000164579
-4.39998e-18
-1.52147e-20
-2.4343e-18
-3.67485e-21
0.000167332
-4.36356e-18
-1.51681e-20
-2.45943e-18
-4.289e-21
0.000170129
-4.31877e-18
-1.51086e-20
-2.51362e-18
-4.87009e-21
0.000172972
-4.26698e-18
-1.5142e-20
-2.52937e-18
-5.18463e-21
0.000175861
-4.22769e-18
-1.52599e-20
-2.51307e-18
-5.72612e-21
0.000178797
-4.15862e-18
-1.52407e-20
-2.55844e-18
-6.58538e-21
0.000181781
-4.07907e-18
-1.53101e-20
-2.60761e-18
-7.12707e-21
0.000184812
-4.05612e-18
-1.5823e-20
-2.6124e-18
-7.4122e-21
0.000187893
-4.02658e-18
-1.61383e-20
-2.58871e-18
-8.05809e-21
0.000191023
-3.97165e-18
-1.6457e-20
-2.59495e-18
-8.77061e-21
0.000194205
-3.95446e-18
-1.68475e-20
-2.61296e-18
-9.2202e-21
0.000197437
-3.89874e-18
-1.71233e-20
-2.60535e-18
-9.17297e-21
0.000200722
-3.86873e-18
-1.73551e-20
-2.61211e-18
-9.11299e-21
0.000204059
-3.7995e-18
-1.74701e-20
-2.59092e-18
-8.7876e-21
0.000207451
-3.78063e-18
-1.76609e-20
-2.5905e-18
-8.41618e-21
0.000210897
-3.72631e-18
-1.76037e-20
-2.61372e-18
-7.80065e-21
0.000214398
-3.68135e-18
-1.77807e-20
-2.62176e-18
-6.83991e-21
0.000217956
-3.65543e-18
-1.76586e-20
-2.60217e-18
-6.38815e-21
0.000221571
-3.65187e-18
-1.7499e-20
-2.60365e-18
-6.37207e-21
0.000225244
-3.64034e-18
-1.72489e-20
-2.5832e-18
-6.13456e-21
0.000228977
-3.60486e-18
-1.68034e-20
-2.56409e-18
-6.04704e-21
0.000232769
-3.60605e-18
-1.66581e-20
-2.53762e-18
-6.24845e-21
0.000236622
-3.57823e-18
-1.63158e-20
-2.50498e-18
-6.62771e-21
0.000240537
-3.53931e-18
-1.63732e-20
-2.48164e-18
-6.81554e-21
0.000244514
-3.46392e-18
-1.67103e-20
-2.54965e-18
-7.06074e-21
0.000248555
-3.42663e-18
-1.70927e-20
-2.60951e-18
-7.15631e-21
0.000252661
-3.39514e-18
-1.64867e-20
-2.58759e-18
-7.36073e-21
0.000256832
-3.25287e-18
-1.56256e-20
-2.67185e-18
-8.27459e-21
0.00026107
-3.21483e-18
-1.61303e-20
-2.68977e-18
-8.55562e-21
0.000265376
-3.17498e-18
-1.70595e-20
-2.66485e-18
-9.10992e-21
0.00026975
-3.15549e-18
-1.68667e-20
-2.69306e-18
-1.05871e-20
0.000274194
-3.07188e-18
-1.64252e-20
-2.71163e-18
-1.1675e-20
0.000278709
-3.04525e-18
-1.66521e-20
-2.73053e-18
-1.23976e-20
0.000283295
-3.06428e-18
-1.67913e-20
-2.70785e-18
-1.31554e-20
0.000287954
-3.04364e-18
-1.67524e-20
-2.75808e-18
-1.42641e-20
0.000292687
-2.98334e-18
-1.6416e-20
-2.71383e-18
-1.50249e-20
0.000297495
-2.92992e-18
-1.63067e-20
-2.77054e-18
-1.70047e-20
0.000302379
-2.87864e-18
-1.66894e-20
-2.79112e-18
-1.76158e-20
0.000307341
-2.86378e-18
-1.64409e-20
-2.6719e-18
-1.75333e-20
0.000312381
-2.82887e-18
-1.53289e-20
-2.69888e-18
-1.99162e-20
0.0003175
-2.79237e-18
-1.61181e-20
-2.68947e-18
-2.19399e-20
0.0003227
-2.7309e-18
-1.68408e-20
-2.72319e-18
-2.27292e-20
0.000327982
-2.81311e-18
-1.86524e-20
-2.70115e-18
-2.28069e-20
0.000333346
-2.6927e-18
-1.84253e-20
-2.63682e-18
-2.35873e-20
0.000338795
-2.67512e-18
-1.8715e-20
-2.6019e-18
-2.44529e-20
0.00034433
-2.61272e-18
-1.96566e-20
-2.57111e-18
-2.36408e-20
0.00034995
-2.57703e-18
-2.12114e-20
-2.56886e-18
-2.14911e-20
0.000355659
-2.55498e-18
-2.21088e-20
-2.49378e-18
-1.90837e-20
0.000361457
-2.48007e-18
-2.26546e-20
-2.53344e-18
-1.71211e-20
0.000367344
-2.41134e-18
-2.18598e-20
-2.52429e-18
-1.66577e-20
0.000373324
-2.41227e-18
-2.22088e-20
-2.48357e-18
-1.562e-20
0.000379396
-2.35487e-18
-2.01241e-20
-2.49877e-18
-1.7159e-20
0.000385562
-2.4023e-18
-1.98219e-20
-2.43484e-18
-1.63471e-20
0.000391823
-2.35511e-18
-1.83458e-20
-2.38094e-18
-1.54364e-20
0.000398181
-2.31629e-18
-1.78546e-20
-2.38326e-18
-1.42801e-20
0.000404637
-2.28543e-18
-1.84537e-20
-2.29177e-18
-1.3284e-20
0.000411191
-2.25524e-18
-2.07495e-20
-2.23812e-18
-1.39209e-20
0.000417846
-2.35607e-18
-2.36076e-20
-2.2605e-18
-1.6568e-20
0.000424603
-2.30164e-18
-2.31868e-20
-2.23927e-18
-1.7772e-20
0.000431462
-2.40007e-18
-2.25084e-20
-2.20904e-18
-1.85446e-20
0.000438426
-2.26646e-18
-1.84767e-20
-2.20441e-18
-1.88158e-20
0.000445495
-2.23883e-18
-1.73087e-20
-2.21018e-18
-2.01625e-20
0.00045267
-2.26113e-18
-1.68819e-20
-2.17621e-18
-2.22834e-20
0.000459954
-2.16268e-18
-1.51587e-20
-2.22985e-18
-2.64938e-20
0.000467347
-2.04429e-18
-1.60298e-20
-2.28747e-18
-2.79653e-20
0.00047485
-2.0384e-18
-1.78853e-20
-2.26851e-18
-2.65564e-20
0.000482465
-2.14238e-18
-2.27321e-20
-2.15806e-18
-2.57305e-20
0.000490193
-2.01188e-18
-2.63039e-20
-2.15621e-18
-2.92775e-20
0.000498035
-2.01392e-18
-2.68496e-20
-2.01379e-18
-2.92892e-20
0.000505992
-2.03201e-18
-2.45301e-20
-2.01321e-18
-2.99842e-20
0.000514065
-1.96439e-18
-2.46045e-20
-1.93746e-18
-2.8145e-20
0.000522256
-1.91288e-18
-2.50199e-20
-1.91765e-18
-2.85299e-20
0.000530565
-1.80444e-18
-2.33335e-20
-1.77847e-18
-2.46914e-20
0.000538993
-1.73059e-18
-2.58396e-20
-1.77285e-18
-2.43603e-20
0.000547543
-1.76992e-18
-2.93946e-20
-1.70494e-18
-2.31939e-20
0.000556213
-1.6906e-18
-2.56632e-20
-1.677e-18
-2.47243e-20
0.000565006
-1.4535e-18
-2.39566e-20
-1.50767e-18
-2.2289e-20
0.000573922
-1.45341e-18
-3.01967e-20
-1.55195e-18
-2.34379e-20
0.000582961
-1.2885e-18
-2.52947e-20
-1.51733e-18
-2.11959e-20
0.000592125
-1.48557e-18
-3.20298e-20
-1.46437e-18
-2.1931e-20
0.000601414
-1.40139e-18
-3.06357e-20
-1.38663e-18
-2.27899e-20
0.000610828
-1.39715e-18
-3.02525e-20
-1.38094e-18
-2.35515e-20
0.000620368
-1.34662e-18
-3.08253e-20
-1.34411e-18
-2.04898e-20
0.000630034
-1.30109e-18
-3.97954e-20
-1.28964e-18
-1.59724e-20
0.000639825
-1.40247e-18
-4.97734e-20
-1.3676e-18
-1.20452e-20
0.000649743
-1.29921e-18
-3.73156e-20
-1.38186e-18
-1.10405e-20
0.000659786
-1.40474e-18
-3.69581e-20
-1.19961e-18
-6.31034e-21
0.000669954
-1.42268e-18
-3.1673e-20
-1.0959e-18
-9.32252e-21
0.000680246
-1.31236e-18
-2.33069e-20
-1.04872e-18
-1.55836e-20
0.000690662
-1.09957e-18
-7.99674e-21
-1.21385e-18
-2.32453e-20
0.0007012
-1.08223e-18
-9.6887e-21
-1.2374e-18
-2.23236e-20
0.00071186
-1.136e-18
-1.5435e-20
-1.13227e-18
-2.09106e-20
0.00072264
-1.11256e-18
-7.26718e-21
-1.11014e-18
-1.33117e-20
0.000733537
-1.0455e-18
-5.61398e-21
-9.9938e-19
-5.61837e-21
0.00074455
-1.01447e-18
-7.02676e-21
-9.89069e-19
-5.86646e-22
0.000755677
-9.35498e-19
-8.10469e-21
-9.51744e-19
-4.90142e-21
0.000766915
-9.60354e-19
-5.96991e-21
-9.88292e-19
2.74758e-22
0.000778261
-9.43725e-19
-3.04269e-21
-9.51975e-19
1.28488e-20
0.000789712
-9.2147e-19
-3.01118e-21
-9.32519e-19
1.32141e-20
0.000801265
-6.1946e-21
-8.83153e-19
1.75821e-20
-8.74094e-19
2.68406e-08
-1.59118e-22
8.22415e-23
8.20805e-08
-2.86326e-22
3.34838e-22
1.39722e-07
-3.91046e-22
5.78964e-22
1.99847e-07
-5.13785e-22
8.59165e-22
2.62538e-07
-6.34539e-22
1.13859e-21
3.27884e-07
-7.53582e-22
1.40992e-21
3.95972e-07
-9.29049e-22
1.67633e-21
4.66894e-07
-1.08212e-21
2.00301e-21
5.40743e-07
-1.33366e-21
2.355e-21
6.17617e-07
-1.58105e-21
2.73384e-21
6.97612e-07
-1.83395e-21
3.12609e-21
7.80826e-07
-2.15492e-21
3.51091e-21
8.6736e-07
-2.44995e-21
3.78512e-21
9.5731e-07
-2.36073e-21
3.95046e-21
1.05077e-06
-2.59036e-21
4.07492e-21
1.14784e-06
-2.56062e-21
4.21831e-21
1.24861e-06
-2.69142e-21
4.6535e-21
1.35315e-06
-2.8168e-21
4.88272e-21
1.46153e-06
-2.67045e-21
5.54487e-21
1.57382e-06
-2.926e-21
5.65841e-21
1.69004e-06
-2.82388e-21
5.95833e-21
1.81024e-06
-3.32717e-21
6.7077e-21
1.93439e-06
-3.10798e-21
7.25809e-21
2.0625e-06
-3.43645e-21
7.91136e-21
2.1945e-06
-3.79315e-21
8.19309e-21
2.33032e-06
-4.18446e-21
8.99854e-21
2.46986e-06
-4.84863e-21
9.03191e-21
2.61301e-06
-5.10318e-21
9.36465e-21
2.75962e-06
-5.72904e-21
1.02842e-20
2.90953e-06
-5.67171e-21
1.06349e-20
3.06257e-06
-5.70162e-21
1.08312e-20
3.21857e-06
-5.69829e-21
1.12044e-20
3.37733e-06
-5.98083e-21
1.15732e-20
3.53869e-06
-5.83659e-21
1.22817e-20
3.70248e-06
-5.95522e-21
1.31234e-20
3.86855e-06
-6.48212e-21
1.39433e-20
4.03676e-06
-6.31703e-21
1.44817e-20
4.20699e-06
-6.94275e-21
1.44388e-20
4.37914e-06
-7.16633e-21
1.47837e-20
4.55312e-06
-6.99187e-21
1.62408e-20
4.72887e-06
-7.36308e-21
1.69426e-20
4.90635e-06
-8.99601e-21
1.74598e-20
5.08552e-06
-1.01942e-20
1.8677e-20
5.26638e-06
-1.04838e-20
1.88044e-20
5.44891e-06
-1.05608e-20
1.84564e-20
5.63314e-06
-1.11152e-20
1.81624e-20
5.81909e-06
-1.12069e-20
1.8365e-20
6.00678e-06
-1.08962e-20
1.98882e-20
6.19626e-06
-1.08888e-20
2.08277e-20
6.38757e-06
-1.2032e-20
2.14861e-20
6.58077e-06
-1.30018e-20
2.17583e-20
6.77591e-06
-1.38352e-20
2.16317e-20
6.97305e-06
-1.46766e-20
2.25154e-20
7.17227e-06
-1.53574e-20
2.36195e-20
7.37362e-06
-1.53589e-20
2.50283e-20
7.57717e-06
-1.52936e-20
2.63331e-20
7.78299e-06
-1.6688e-20
2.70008e-20
7.99117e-06
-1.6698e-20
2.79368e-20
8.20176e-06
-1.63371e-20
2.87088e-20
8.41485e-06
-1.58985e-20
2.93643e-20
8.63051e-06
-1.63582e-20
3.06975e-20
8.84881e-06
-1.70849e-20
3.08381e-20
9.06984e-06
-1.80789e-20
3.20439e-20
9.29367e-06
-1.88847e-20
2.89591e-20
9.52037e-06
-2.19248e-20
2.86586e-20
9.75003e-06
-2.22099e-20
3.0719e-20
9.98272e-06
-2.16938e-20
3.13715e-20
1.02185e-05
-2.44731e-20
3.30905e-20
1.04575e-05
-2.391e-20
3.35637e-20
1.06998e-05
-2.2883e-20
3.2533e-20
1.09454e-05
-2.32259e-20
3.2563e-20
1.11944e-05
-2.3698e-20
3.37608e-20
1.1447e-05
-2.43581e-20
3.51684e-20
1.17031e-05
-2.2109e-20
3.65755e-20
1.19629e-05
-2.38038e-20
3.79294e-20
1.22265e-05
-2.62764e-20
3.89136e-20
1.24939e-05
-2.62209e-20
3.94901e-20
1.27652e-05
-2.63122e-20
4.14387e-20
1.30405e-05
-2.67167e-20
4.35699e-20
1.33199e-05
-2.69739e-20
4.15169e-20
1.36035e-05
-2.75344e-20
4.36264e-20
1.38913e-05
-2.65654e-20
4.23496e-20
1.41835e-05
-2.73071e-20
4.30989e-20
1.44801e-05
-2.8718e-20
4.27821e-20
1.47812e-05
-2.89266e-20
4.31088e-20
1.50869e-05
-2.82002e-20
4.30101e-20
1.53973e-05
-2.88427e-20
4.75773e-20
1.57125e-05
-2.75111e-20
4.62957e-20
1.60326e-05
-2.99054e-20
4.63576e-20
1.63577e-05
-3.4112e-20
4.94789e-20
1.66878e-05
-3.28206e-20
5.04196e-20
1.70231e-05
-3.37501e-20
5.11015e-20
1.73637e-05
-3.2769e-20
5.39472e-20
1.77096e-05
-3.41733e-20
5.62046e-20
1.8061e-05
-3.44722e-20
5.78796e-20
1.84179e-05
-3.44876e-20
5.49514e-20
1.87805e-05
-3.70421e-20
5.40482e-20
1.91488e-05
-3.73049e-20
6.04893e-20
1.9523e-05
-3.5051e-20
6.47025e-20
1.99032e-05
-3.6081e-20
6.5384e-20
2.02894e-05
-2.8039e-20
6.58276e-20
2.06819e-05
-3.03701e-20
6.78265e-20
2.10806e-05
-3.17741e-20
7.12999e-20
2.14857e-05
-2.86126e-20
7.09493e-20
2.18974e-05
-2.77361e-20
7.47437e-20
2.23157e-05
-2.32901e-20
7.46673e-20
2.27407e-05
-2.32011e-20
7.37589e-20
2.31726e-05
-3.01079e-20
7.7825e-20
2.36115e-05
-3.28748e-20
7.93546e-20
2.40574e-05
-3.29855e-20
8.23563e-20
2.45107e-05
-3.34108e-20
8.30044e-20
2.49712e-05
-3.25174e-20
8.22843e-20
2.54393e-05
-3.41351e-20
8.19864e-20
2.59149e-05
-3.42168e-20
8.35654e-20
2.63983e-05
-3.63696e-20
8.44512e-20
2.68896e-05
-3.83298e-20
8.71255e-20
2.73889e-05
-4.03821e-20
8.51592e-20
2.78963e-05
-3.40534e-20
7.9207e-20
2.8412e-05
-3.44921e-20
8.01333e-20
2.89362e-05
-3.41669e-20
7.86099e-20
2.94689e-05
-3.50481e-20
7.88766e-20
3.00103e-05
-3.65287e-20
8.33422e-20
3.05605e-05
-3.78538e-20
8.26073e-20
3.11198e-05
-3.69404e-20
8.93086e-20
3.16882e-05
-3.92374e-20
8.91973e-20
3.2266e-05
-3.91945e-20
9.20058e-20
3.28532e-05
-3.68138e-20
9.03686e-20
3.34501e-05
-4.25506e-20
9.41253e-20
3.40567e-05
-4.63058e-20
8.75008e-20
3.46733e-05
-4.90491e-20
8.57544e-20
3.53001e-05
-4.82693e-20
8.59865e-20
3.59371e-05
-5.23375e-20
9.27357e-20
3.65846e-05
-5.3691e-20
9.41941e-20
3.72427e-05
-5.57877e-20
9.07751e-20
3.79116e-05
-5.78322e-20
9.54924e-20
3.85916e-05
-5.76712e-20
9.33935e-20
3.92827e-05
-6.30222e-20
9.95934e-20
3.99852e-05
-6.71804e-20
1.00704e-19
4.06992e-05
-7.34719e-20
1.06493e-19
4.1425e-05
-7.34692e-20
1.108e-19
4.21627e-05
-6.88782e-20
1.1211e-19
4.29126e-05
-7.39411e-20
1.0333e-19
4.36748e-05
-7.9242e-20
1.0277e-19
4.44495e-05
-7.8146e-20
9.91287e-20
4.5237e-05
-7.77727e-20
1.0069e-19
4.60375e-05
-8.06421e-20
9.88752e-20
4.68511e-05
-8.50986e-20
9.34679e-20
4.76782e-05
-8.22192e-20
9.56119e-20
4.85188e-05
-8.35363e-20
9.9531e-20
4.93733e-05
-8.30886e-20
9.6708e-20
5.02419e-05
-8.47322e-20
1.01809e-19
5.11248e-05
-8.70751e-20
9.68673e-20
5.20222e-05
-9e-20
8.64622e-20
5.29344e-05
-9.29934e-20
9.48577e-20
5.38616e-05
-9.22552e-20
9.23164e-20
5.4804e-05
-9.70064e-20
8.84136e-20
5.5762e-05
-9.34893e-20
1.00296e-19
5.67357e-05
-1.04092e-19
1.08546e-19
5.77255e-05
-1.13722e-19
1.1214e-19
5.87316e-05
-1.19984e-19
1.15747e-19
5.97542e-05
-1.23025e-19
1.11799e-19
6.07937e-05
-1.29469e-19
1.11848e-19
6.18502e-05
-1.10324e-19
1.08441e-19
6.29242e-05
-1.12804e-19
1.17298e-19
6.40158e-05
-1.05829e-19
1.28626e-19
6.51254e-05
-1.05446e-19
1.2783e-19
6.62532e-05
-1.11288e-19
1.20137e-19
6.73996e-05
-1.15242e-19
1.26111e-19
6.85649e-05
-1.26077e-19
1.16348e-19
6.97493e-05
-1.37568e-19
1.043e-19
7.09532e-05
-1.38142e-19
1.07812e-19
7.21768e-05
-1.4132e-19
1.03213e-19
7.34206e-05
-1.40448e-19
1.06516e-19
7.46848e-05
-1.41035e-19
9.89274e-20
7.59698e-05
-1.37992e-19
9.81968e-20
7.7276e-05
-1.33421e-19
9.73379e-20
7.86035e-05
-1.23214e-19
7.70158e-20
7.99529e-05
-1.40083e-19
9.0781e-20
8.13245e-05
-1.40282e-19
1.02318e-19
8.27185e-05
-1.54901e-19
8.76271e-20
8.41355e-05
-1.53284e-19
8.94255e-20
8.55757e-05
-1.58678e-19
8.36843e-20
8.70395e-05
-1.55929e-19
8.61845e-20
8.85274e-05
-1.56705e-19
8.02277e-20
9.00396e-05
-1.79974e-19
7.71495e-20
9.15767e-05
-1.89897e-19
6.11917e-20
9.3139e-05
-2.16621e-19
4.98122e-20
9.47268e-05
-2.18566e-19
4.91879e-20
9.63408e-05
-2.26092e-19
3.88156e-20
9.79811e-05
-2.30743e-19
4.76688e-20
9.96483e-05
-2.33052e-19
4.28012e-20
0.000101343
-2.41471e-19
2.53918e-20
0.000103065
-2.50579e-19
1.62153e-20
0.000104816
-2.50905e-19
1.90332e-20
0.000106595
-2.65448e-19
1.36064e-20
0.000108403
-2.82748e-19
1.98444e-20
0.000110241
-2.64851e-19
2.9059e-20
0.000112109
-2.68665e-19
3.22091e-20
0.000114007
-2.75759e-19
1.52267e-20
0.000115937
-2.40489e-19
1.74111e-20
0.000117898
-2.21373e-19
1.29827e-20
0.000119891
-2.13071e-19
1.36689e-20
0.000121916
-2.19556e-19
3.52377e-20
0.000123975
-2.41429e-19
7.31889e-21
0.000126067
-2.47026e-19
-6.78103e-21
0.000128194
-2.56748e-19
-1.40718e-23
0.000130355
-2.67769e-19
2.07195e-20
0.000132551
-2.6029e-19
2.37311e-20
0.000134783
-2.69591e-19
1.52909e-20
0.000137052
-2.75074e-19
-3.17864e-21
0.000139357
-2.83455e-19
-1.32855e-20
0.0001417
-3.23918e-19
-3.98123e-20
0.000144081
-3.33803e-19
-6.94208e-20
0.000146501
-3.23234e-19
-7.72268e-20
0.000148961
-3.40298e-19
-6.80103e-20
0.00015146
-3.54998e-19
-7.12824e-20
0.000154
-3.4676e-19
-1.12484e-19
0.000156581
-3.91046e-19
-1.00843e-19
0.000159204
-4.0217e-19
-9.31333e-20
0.00016187
-4.15735e-19
-1.06529e-19
0.000164579
-3.8848e-19
-1.16452e-19
0.000167332
-3.86157e-19
-1.34748e-19
0.000170129
-3.99049e-19
-1.41462e-19
0.000172972
-4.04793e-19
-1.62318e-19
0.000175861
-3.85108e-19
-1.85898e-19
0.000178797
-3.82157e-19
-1.83615e-19
0.000181781
-4.19133e-19
-1.73007e-19
0.000184812
-3.97091e-19
-2.17126e-19
0.000187893
-4.06467e-19
-2.15884e-19
0.000191023
-4.00394e-19
-2.22036e-19
0.000194205
-4.09598e-19
-2.01914e-19
0.000197437
-4.04979e-19
-2.06369e-19
0.000200722
-4.14771e-19
-1.80987e-19
0.000204059
-4.10242e-19
-1.83575e-19
0.000207451
-4.11388e-19
-1.96093e-19
0.000210897
-4.38137e-19
-1.89298e-19
0.000214398
-3.97665e-19
-2.34432e-19
0.000217956
-4.04862e-19
-2.44061e-19
0.000221571
-4.28949e-19
-2.47474e-19
0.000225244
-4.36666e-19
-2.82019e-19
0.000228977
-4.7972e-19
-2.98994e-19
0.000232769
-4.91797e-19
-3.17258e-19
0.000236622
-5.18073e-19
-2.85999e-19
0.000240537