/*--------------------------------*- C++ -*----------------------------------*\
| =========                 |                                                 |
| \\      /  F ield         | OpenFOAM: The Open Source CFD Toolbox           |
|  \\    /   O peration     | Version:  2012                                  |
|   \\  /    A nd           | Website:  www.openfoam.com                      |
|    \\/     M anipulation  |                                                 |
\*---------------------------------------------------------------------------*/
FoamFile
{
    version     2.0;
    format      ascii;
    class       volScalarField;
    location    "12900";
    object      omega;
}
// * * * * * * * * * * * * * * * * * * * * * * * * * * * * * * * * * * * * * //

dimensions      [0 0 -1 0 0 0 0];


internalField   nonuniform List<scalar> 
2560
(
1.52416e+06
1.52416e+06
264913
264913
88962.3
88962.2
41152.5
41152.5
23570.9
23570.9
15994.4
15994.4
12175.2
12175.2
9958.3
9958.3
8527.64
8527.64
7531.39
7531.39
6798.09
6798.09
6235.43
6235.43
5789.62
5789.62
5427.29
5427.29
5126.66
5126.66
4872.89
4872.89
4655.55
4655.55
4467.08
4467.08
4301.84
4301.84
4155.56
4155.56
4024.92
4024.92
3907.32
3907.32
3800.66
3800.66
3703.27
3703.27
3613.74
3613.74
3530.94
3530.94
3453.89
3453.88
3381.77
3381.77
3313.88
3313.88
3249.64
3249.64
3188.5
3188.5
3130.03
3130.03
3073.82
3073.82
3019.52
3019.52
2966.82
2966.82
2915.45
2915.45
2865.16
2865.16
2815.74
2815.74
2767
2767
2718.78
2718.77
2670.91
2670.91
2623.29
2623.29
2575.8
2575.8
2528.34
2528.34
2480.85
2480.85
2433.28
2433.28
2385.57
2385.56
2337.7
2337.7
2289.66
2289.66
2241.45
2241.45
2193.11
2193.11
2144.64
2144.64
2096.12
2096.12
2047.58
2047.58
1999.11
1999.11
1950.79
1950.79
1902.71
1902.71
1854.98
1854.98
1807.7
1807.7
1761
1761
1715.01
1715.01
1669.84
1669.84
1625.63
1625.63
1582.49
1582.49
1540.56
1540.56
1499.95
1499.95
1460.76
1460.76
1423.08
1423.08
1387
1387
1352.57
1352.57
1319.84
1319.84
1288.83
1288.83
1259.55
1259.54
1231.97
1231.97
1206.06
1206.06
1181.77
1181.77
1159.02
1159.02
1137.73
1137.73
1117.79
1117.79
1099.1
1099.1
1081.55
1081.55
1065.03
1065.03
1049.4
1049.4
1034.58
1034.58
1020.43
1020.43
1006.86
1006.86
993.767
993.767
981.062
981.062
968.663
968.663
956.496
956.495
944.495
944.495
932.604
932.604
920.775
920.775
908.969
908.969
897.152
897.152
885.298
885.298
873.388
873.388
861.408
861.408
849.348
849.348
837.203
837.203
824.972
824.972
812.658
812.658
800.264
800.264
787.798
787.798
775.269
775.269
762.685
762.685
750.058
750.058
737.4
737.4
724.723
724.723
712.038
712.038
699.359
699.359
686.697
686.697
674.065
674.065
661.473
661.473
648.933
648.933
636.456
636.456
624.052
624.052
611.729
611.729
599.498
599.498
587.366
587.366
575.341
575.341
563.43
563.43
551.639
551.639
539.975
539.975
528.441
528.441
517.044
517.044
505.788
505.787
494.675
494.675
483.709
483.709
472.894
472.893
462.23
462.23
451.722
451.722
441.37
441.369
431.175
431.175
421.139
421.139
411.263
411.263
401.547
401.547
391.992
391.992
382.598
382.598
373.365
373.365
364.293
364.293
355.382
355.382
346.63
346.63
338.038
338.038
329.605
329.605
321.33
321.33
313.213
313.213
305.252
305.251
297.446
297.446
289.795
289.794
282.297
282.297
274.951
274.951
267.757
267.757
260.714
260.714
253.819
253.819
247.073
247.073
240.473
240.473
234.02
234.02
227.711
227.711
221.546
221.546
215.522
215.522
209.64
209.639
203.896
203.896
198.289
198.289
192.818
192.818
187.481
187.481
182.274
182.274
177.196
177.196
172.245
172.245
167.417
167.417
162.71
162.71
158.122
158.122
153.65
153.65
149.292
149.292
145.045
145.045
140.907
140.907
136.877
136.877
132.952
132.952
129.13
129.13
125.41
125.41
121.79
121.789
118.267
118.267
114.841
114.841
111.509
111.509
108.269
108.269
105.121
105.12
102.061
102.06
99.0874
99.0872
96.1991
96.1989
93.3941
93.3939
90.6705
90.6703
88.0267
88.0265
85.4612
85.461
82.9726
82.9724
80.5595
80.5593
78.2206
78.2204
75.9547
75.9545
73.7606
73.7604
71.6372
71.637
69.5834
69.5832
67.5979
67.5977
65.6798
65.6796
63.8275
63.8273
62.04
62.0398
60.3155
60.3153
58.6527
58.6525
57.0498
57.0496
55.5051
55.5049
54.0167
54.0165
52.5829
52.5827
51.2021
51.2019
49.8725
49.8723
48.5924
48.5922
47.3602
47.36
46.1741
46.1739
45.032
45.0318
43.932
43.9319
42.872
42.8718
41.8496
41.8494
40.8625
40.8623
39.9081
39.9079
38.984
38.9838
38.0881
38.0879
37.2183
37.2181
36.3733
36.3731
35.5519
35.5517
34.7531
34.7529
33.976
33.9758
33.2197
33.2195
32.4829
32.4827
31.7641
31.7639
31.0618
31.0616
30.3745
30.3743
29.7011
29.7009
29.0407
29.0405
28.3925
28.3923
27.7562
27.756
27.1314
27.1312
26.5185
26.5182
25.9177
25.9174
25.3297
25.3295
24.755
24.7548
24.1938
24.1936
23.646
23.6458
23.1106
23.1104
22.5866
22.5864
22.072
22.0718
21.5648
21.5646
21.0625
21.0623
20.5631
20.5629
20.0652
20.0649
19.5686
19.5684
19.0744
19.0741
18.5844
18.5841
18.101
18.1007
17.6266
17.6263
17.1629
17.1626
16.7107
16.7104
16.2699
16.2695
15.84
15.8397
15.4211
15.4208
15.0137
15.0133
14.619
14.6186
14.2383
14.2379
13.8729
13.8725
13.5236
13.5232
13.1909
13.1905
12.8748
12.8744
12.5752
12.5749
12.2921
12.2919
12.0253
12.0252
11.7747
11.7746
11.5398
11.5399
11.32
11.3203
11.1145
11.1149
10.9218
10.9223
10.7401
10.7407
10.5675
10.5679
10.4023
10.402
10.242
10.241
10.0842
10.0827
9.92624
9.92468
9.76614
9.76473
9.60157
9.60033
9.43027
9.4292
9.25104
9.25011
9.06413
9.06331
8.87107
8.87034
8.67424
8.67359
8.477
8.47642
8.28351
8.283
8.0975
8.09706
7.92115
7.92077
7.75491
7.75457
7.59873
7.59842
7.45264
7.45235
7.31668
7.31641
7.19088
7.19064
7.0753
7.07508
6.96998
6.96979
6.87462
6.87448
6.78845
6.78836
6.71026
6.71022
6.63867
6.6387
6.57207
6.57216
6.50803
6.50818
6.44339
6.44357
6.37536
6.3755
6.30271
6.30276
6.22634
6.22627
6.14874
6.14854
6.07248
6.07222
5.99954
5.99924
5.93136
5.93106
5.8697
5.86945
5.81638
5.81619
5.77254
5.77242
5.73866
5.73859
5.71505
5.71501
5.70257
5.70256
1.52416e+06
1.52416e+06
264913
264913
88962.2
88962.3
41152.5
41152.5
23570.9
23570.9
15994.4
15994.4
12175.2
12175.2
9958.3
9958.3
8527.64
8527.64
7531.39
7531.39
6798.09
6798.09
6235.43
6235.43
5789.62
5789.62
5427.29
5427.29
5126.66
5126.66
4872.89
4872.89
4655.55
4655.55
4467.08
4467.08
4301.84
4301.84
4155.56
4155.56
4024.92
4024.92
3907.32
3907.32
3800.66
3800.66
3703.27
3703.27
3613.74
3613.74
3530.94
3530.94
3453.88
3453.89
3381.77
3381.77
3313.88
3313.88
3249.64
3249.64
3188.5
3188.5
3130.03
3130.03
3073.82
3073.82
3019.52
3019.52
2966.82
2966.82
2915.45
2915.45
2865.16
2865.16
2815.74
2815.74
2767
2767
2718.77
2718.78
2670.91
2670.91
2623.29
2623.29
2575.8
2575.8
2528.34
2528.34
2480.85
2480.85
2433.28
2433.28
2385.56
2385.57
2337.7
2337.7
2289.66
2289.66
2241.45
2241.45
2193.11
2193.11
2144.64
2144.64
2096.12
2096.12
2047.58
2047.58
1999.11
1999.11
1950.79
1950.79
1902.71
1902.71
1854.98
1854.98
1807.7
1807.7
1761
1761
1715.01
1715.01
1669.84
1669.84
1625.63
1625.63
1582.49
1582.49
1540.56
1540.56
1499.95
1499.95
1460.76
1460.76
1423.08
1423.08
1387
1387
1352.57
1352.57
1319.84
1319.84
1288.83
1288.83
1259.55
1259.55
1231.97
1231.97
1206.06
1206.06
1181.77
1181.77
1159.02
1159.02
1137.73
1137.73
1117.79
1117.79
1099.1
1099.1
1081.55
1081.55
1065.03
1065.03
1049.4
1049.4
1034.58
1034.58
1020.43
1020.43
1006.86
1006.86
993.767
993.767
981.062
981.062
968.663
968.663
956.495
956.495
944.494
944.495
932.604
932.604
920.775
920.775
908.969
908.969
897.152
897.152
885.298
885.298
873.388
873.388
861.408
861.408
849.348
849.348
837.203
837.203
824.972
824.972
812.658
812.658
800.264
800.264
787.798
787.798
775.269
775.269
762.685
762.685
750.058
750.058
737.4
737.4
724.723
724.723
712.038
712.038
699.359
699.359
686.697
686.697
674.065
674.065
661.473
661.473
648.933
648.933
636.456
636.456
624.052
624.052
611.729
611.729
599.498
599.498
587.366
587.366
575.341
575.341
563.43
563.43
551.639
551.639
539.975
539.975
528.441
528.441
517.044
517.044
505.787
505.788
494.675
494.675
483.709
483.709
472.893
472.894
462.23
462.23
451.722
451.722
441.369
441.369
431.175
431.175
421.139
421.139
411.263
411.263
401.547
401.547
391.992
391.992
382.598
382.598
373.365
373.365
364.293
364.293
355.382
355.382
346.63
346.63
338.038
338.038
329.605
329.605
321.33
321.33
313.213
313.213
305.251
305.252
297.446
297.446
289.794
289.795
282.297
282.297
274.951
274.951
267.757
267.757
260.714
260.714
253.819
253.819
247.073
247.073
240.473
240.473
234.02
234.02
227.711
227.711
221.546
221.546
215.522
215.522
209.639
209.64
203.896
203.896
198.289
198.289
192.818
192.818
187.481
187.481
182.274
182.274
177.196
177.196
172.245
172.245
167.417
167.417
162.71
162.71
158.122
158.122
153.65
153.65
149.292
149.292
145.045
145.045
140.907
140.907
136.877
136.877
132.952
132.952
129.13
129.13
125.41
125.41
121.789
121.79
118.267
118.267
114.841
114.841
111.509
111.509
108.269
108.269
105.12
105.121
102.06
102.061
99.0872
99.0873
96.1989
96.1991
93.3939
93.3941
90.6703
90.6705
88.0265
88.0267
85.461
85.4612
82.9724
82.9726
80.5593
80.5595
78.2204
78.2206
75.9545
75.9547
73.7604
73.7606
71.637
71.6372
69.5831
69.5833
67.5977
67.5979
65.6795
65.6797
63.8273
63.8275
62.0397
62.0399
60.3153
60.3155
58.6525
58.6527
57.0496
57.0498
55.5048
55.5051
54.0165
54.0167
52.5827
52.5829
51.2019
51.2021
49.8723
49.8725
48.5923
48.5925
47.36
47.3602
46.1739
46.1741
45.0318
45.032
43.9319
43.9321
42.8719
42.872
41.8495
41.8497
40.8623
40.8625
39.9079
39.9081
38.9839
38.9841
38.0879
38.0881
37.2182
37.2184
36.3732
36.3734
35.5517
35.5519
34.7529
34.7531
33.9759
33.9761
33.2196
33.2198
32.4828
32.483
31.764
31.7642
31.0617
31.0619
30.3744
30.3746
29.701
29.7012
29.0406
29.0408
28.3924
28.3926
27.7561
27.7563
27.1313
27.1316
26.5184
26.5186
25.9176
25.9178
25.3296
25.3298
24.7549
24.7551
24.1938
24.194
23.6459
23.6461
23.1106
23.1108
22.5865
22.5867
22.072
22.0722
21.5648
21.565
21.0625
21.0627
20.5631
20.5633
20.0651
20.0653
19.5685
19.5687
19.0742
19.0745
18.5842
18.5845
18.1008
18.1011
17.6263
17.6266
17.1626
17.1629
16.7104
16.7107
16.2696
16.2699
15.8397
15.8401
15.4208
15.4211
15.0133
15.0137
14.6186
14.619
14.2379
14.2383
13.8725
13.8729
13.5232
13.5236
13.1905
13.1909
12.8745
12.8748
12.575
12.5753
12.292
12.2922
12.0253
12.0254
11.7747
11.7748
11.54
11.5399
11.3205
11.3202
11.1151
11.1147
10.9226
10.922
10.741
10.7404
10.5682
10.5679
10.4024
10.4026
10.2413
10.2423
10.0831
10.0845
9.92501
9.92653
9.76502
9.76641
9.60057
9.60178
9.42937
9.43042
9.25019
9.25112
9.06332
9.06413
8.87028
8.87101
8.67348
8.67413
8.47629
8.47686
8.28287
8.28337
8.09695
8.09739
7.9207
7.92108
7.75453
7.75487
7.59841
7.59872
7.45236
7.45265
7.31645
7.31672
7.19071
7.19095
7.07519
7.0754
6.96995
6.97013
6.87469
6.87483
6.78863
6.78872
6.71054
6.71058
6.63906
6.63904
6.57255
6.57245
6.50856
6.50841
6.4439
6.44372
6.37575
6.37561
6.3029
6.30285
6.22631
6.22637
6.14848
6.14868
6.0721
6.07235
5.99907
5.99938
5.93088
5.93118
5.86928
5.86953
5.81604
5.81622
5.77229
5.77241
5.73848
5.73855
5.71493
5.71497
5.70251
5.70252
5.70249
5.70248
5.71482
5.71477
5.73825
5.73817
5.77189
5.77177
5.81551
5.81532
5.86858
5.86832
5.92994
5.92963
5.99785
5.99755
6.07038
6.07013
6.14606
6.14587
6.22313
6.22306
6.29911
6.29916
6.37151
6.37165
6.43949
6.43966
6.50439
6.50453
6.56888
6.56896
6.63593
6.63595
6.7079
6.70786
6.78641
6.78632
6.87289
6.87274
6.96858
6.96839
7.07425
7.07403
7.19018
7.18993
7.31632
7.31605
7.45262
7.45233
7.59905
7.59874
7.75555
7.75521
7.92211
7.92172
8.09875
8.09831
8.28501
8.2845
8.4788
8.47822
8.67633
8.67567
8.87328
8.87255
9.06623
9.06541
9.2528
9.25186
9.43147
9.4304
9.6022
9.60097
9.76639
9.76497
9.92622
9.92466
10.084
10.0825
10.2417
10.2407
10.4018
10.4016
10.567
10.5674
10.7394
10.74
10.9208
10.9214
11.1134
11.1138
11.3188
11.319
11.5384
11.5384
11.7732
11.7731
12.0238
12.0236
12.2905
12.2902
12.5735
12.5732
12.873
12.8726
13.189
13.1886
13.5217
13.5213
13.871
13.8706
14.2363
14.2359
14.617
14.6165
15.0117
15.0112
15.4191
15.4187
15.8382
15.8378
16.268
16.2677
16.7088
16.7085
17.1609
17.1606
17.6243
17.624
18.0985
18.0982
18.5817
18.5814
19.0717
19.0714
19.5659
19.5656
20.0623
20.0621
20.5599
20.5597
21.0592
21.059
21.5614
21.5612
22.0688
22.0686
22.5837
22.5835
23.1084
23.1082
23.6443
23.6441
24.1927
24.1925
24.7542
24.754
25.329
25.3288
25.9169
25.9167
26.5175
26.5173
27.1302
27.13
27.7548
27.7546
28.391
28.3908
29.039
29.0388
29.6994
29.6992
30.3728
30.3726
31.0602
31.06
31.7626
31.7624
32.4817
32.4815
33.2188
33.2186
33.9755
33.9753
34.7531
34.7529
35.5525
35.5523
36.3744
36.3742
37.2197
37.2195
38.0896
38.0894
38.9856
38.9854
39.9098
39.9096
40.8643
40.8641
41.8515
41.8514
42.874
42.8738
43.934
43.9339
45.0339
45.0337
46.1757
46.1755
47.3615
47.3613
48.5934
48.5932
49.8732
49.873
51.2025
51.2023
52.5832
52.583
54.0168
54.0166
55.5052
55.505
57.0499
57.0497
58.6529
58.6527
60.3157
60.3155
62.0402
62.04
63.8279
63.8277
65.6802
65.68
67.5984
67.5982
69.5839
69.5837
71.6377
71.6375
73.761
73.7608
75.9551
75.9549
78.2211
78.2209
80.5599
80.5597
82.973
82.9728
85.4616
85.4614
88.027
88.0268
90.6708
90.6706
93.3945
93.3943
96.1995
96.1993
99.0877
99.0875
102.061
102.061
105.121
105.121
108.269
108.269
111.509
111.509
114.841
114.84
118.267
118.267
121.789
121.789
125.409
125.409
129.13
129.129
132.951
132.951
136.876
136.876
140.907
140.906
145.044
145.044
149.291
149.291
153.649
153.649
158.121
158.121
162.709
162.709
167.416
167.416
172.244
172.244
177.195
177.195
182.273
182.273
187.48
187.48
192.817
192.817
198.288
198.288
203.895
203.895
209.638
209.638
215.521
215.521
221.544
221.544
227.709
227.709
234.018
234.018
240.471
240.471
247.071
247.071
253.817
253.817
260.711
260.711
267.755
267.755
274.949
274.949
282.294
282.294
289.792
289.792
297.443
297.443
305.249
305.249
313.21
313.21
321.327
321.327
329.602
329.602
338.035
338.035
346.627
346.627
355.379
355.379
364.291
364.291
373.363
373.363
382.596
382.596
391.991
391.991
401.546
401.546
411.262
411.262
421.138
421.138
431.174
431.174
441.368
441.368
451.72
451.72
462.229
462.229
472.892
472.892
483.708
483.708
494.673
494.673
505.786
505.786
517.042
517.042
528.439
528.439
539.972
539.972
551.635
551.635
563.425
563.425
575.335
575.335
587.359
587.359
599.489
599.489
611.719
611.719
624.039
624.039
636.44
636.44
648.915
648.915
661.452
661.452
674.042
674.042
686.674
686.674
699.335
699.335
712.013
712.013
724.698
724.697
737.375
737.375
750.032
750.032
762.659
762.658
775.242
775.242
787.769
787.769
800.234
800.234
812.627
812.627
824.941
824.941
837.171
837.171
849.316
849.316
861.378
861.378
873.359
873.359
885.269
885.269
897.122
897.122
908.937
908.937
920.738
920.738
932.558
932.558
944.437
944.437
956.426
956.426
968.586
968.586
980.98
980.98
993.681
993.681
1006.77
1006.77
1020.33
1020.33
1034.48
1034.48
1049.3
1049.3
1064.91
1064.91
1081.43
1081.43
1098.97
1098.97
1117.65
1117.65
1137.58
1137.58
1158.87
1158.87
1181.62
1181.62
1205.91
1205.91
1231.81
1231.81
1259.38
1259.38
1288.66
1288.66
1319.67
1319.67
1352.39
1352.39
1386.82
1386.82
1422.9
1422.9
1460.58
1460.58
1499.77
1499.77
1540.38
1540.38
1582.32
1582.32
1625.45
1625.45
1669.67
1669.67
1714.84
1714.84
1760.84
1760.84
1807.54
1807.54
1854.82
1854.82
1902.57
1902.57
1950.66
1950.66
1999
1999
2047.49
2047.49
2096.05
2096.05
2144.6
2144.6
2193.08
2193.08
2241.44
2241.44
2289.66
2289.66
2337.73
2337.72
2385.62
2385.62
2433.35
2433.35
2480.95
2480.95
2528.46
2528.46
2575.93
2575.93
2623.44
2623.44
2671.08
2671.08
2718.96
2718.96
2767.2
2767.2
2815.95
2815.95
2865.37
2865.37
2915.67
2915.66
2967.04
2967.04
3019.75
3019.74
3074.05
3074.05
3130.26
3130.26
3188.73
3188.73
3249.87
3249.87
3314.12
3314.12
3382.01
3382.01
3454.13
3454.13
3531.19
3531.19
3614
3614
3703.53
3703.52
3800.92
3800.92
3907.57
3907.57
4025.16
4025.16
4155.8
4155.8
4302.07
4302.07
4467.31
4467.31
4655.78
4655.78
4873.11
4873.11
5126.87
5126.87
5427.51
5427.51
5789.83
5789.83
6235.63
6235.63
6798.29
6798.29
7531.58
7531.58
8527.83
8527.83
9958.47
9958.47
12175.4
12175.4
15994.5
15994.5
23571
23571
41152.6
41152.6
88962.5
88962.5
264914
264914
1.52417e+06
1.52417e+06
5.70246
5.70247
5.71478
5.71482
5.7382
5.73827
5.7718
5.77192
5.81536
5.81554
5.86836
5.86861
5.92967
5.92997
5.99759
5.99789
6.07016
6.07041
6.14588
6.14608
6.22306
6.22312
6.29913
6.29908
6.37159
6.37145
6.43957
6.43941
6.50443
6.50428
6.56885
6.56876
6.63583
6.63582
6.70775
6.70779
6.78623
6.78632
6.87267
6.87281
6.96834
6.96852
7.07399
7.07421
7.18991
7.19016
7.31604
7.31631
7.45233
7.45262
7.59875
7.59906
7.75524
7.75558
7.92177
7.92215
8.09838
8.09882
8.28458
8.28509
8.47831
8.47889
8.67576
8.67641
8.87262
8.87335
9.06545
9.06627
9.25188
9.25281
9.43038
9.43144
9.60091
9.60214
9.76489
9.7663
9.92455
9.92611
10.0824
10.0839
10.2405
10.2415
10.4015
10.4017
10.5672
10.5668
10.7399
10.7392
10.9213
10.9207
11.1137
11.1133
11.3189
11.3187
11.5384
11.5383
11.7731
11.7731
12.0236
12.0237
12.2902
12.2904
12.5732
12.5735
12.8726
12.873
13.1887
13.189
13.5213
13.5217
13.8706
13.871
14.236
14.2364
14.6166
14.617
15.0113
15.0117
15.4188
15.4192
15.8379
15.8382
16.2677
16.2681
16.7085
16.7088
17.1606
17.1609
17.6241
17.6244
18.0982
18.0985
18.5815
18.5818
19.0715
19.0717
19.5656
19.5659
20.0621
20.0623
20.5597
20.5599
21.0589
21.0591
21.5612
21.5614
22.0686
22.0688
22.5835
22.5837
23.1081
23.1083
23.644
23.6442
24.1924
24.1926
24.7539
24.7541
25.3286
25.3289
25.9165
25.9167
26.5171
26.5173
27.1299
27.1301
27.7544
27.7546
28.3906
28.3908
29.0386
29.0388
29.699
29.6992
30.3725
30.3727
31.0598
31.06
31.7622
31.7624
32.4813
32.4815
33.2184
33.2186
33.9751
33.9753
34.7527
34.7529
35.5521
35.5523
36.374
36.3742
37.2192
37.2194
38.0892
38.0894
38.9852
38.9854
39.9093
39.9095
40.8638
40.864
41.8511
41.8513
42.8736
42.8738
43.9336
43.9338
45.0335
45.0337
46.1753
46.1755
47.3612
47.3614
48.5931
48.5933
49.8728
49.873
51.2021
51.2023
52.5828
52.583
54.0165
54.0167
55.5048
55.505
57.0496
57.0498
58.6525
58.6527
60.3154
60.3156
62.0399
62.0401
63.8276
63.8278
65.6799
65.6801
67.5981
67.5983
69.5836
69.5838
71.6374
71.6376
73.7607
73.761
75.9548
75.955
78.2208
78.221
80.5597
80.5599
82.9727
82.9729
85.4613
85.4615
88.0268
88.027
90.6706
90.6708
93.3942
93.3944
96.1993
96.1994
99.0874
99.0876
102.061
102.061
105.12
105.121
108.269
108.269
111.508
111.509
114.84
114.84
118.266
118.267
121.789
121.789
125.409
125.409
129.129
129.129
132.951
132.951
136.876
136.876
140.906
140.907
145.044
145.044
149.291
149.291
153.649
153.649
158.121
158.121
162.709
162.709
167.416
167.416
172.244
172.244
177.195
177.195
182.273
182.273
187.48
187.48
192.817
192.817
198.288
198.288
203.895
203.895
209.638
209.638
215.521
215.521
221.544
221.544
227.709
227.709
234.018
234.018
240.471
240.471
247.071
247.071
253.817
253.817
260.711
260.711
267.755
267.755
274.949
274.949
282.294
282.294
289.792
289.792
297.443
297.443
305.249
305.249
313.21
313.21
321.327
321.327
329.602
329.602
338.035
338.035
346.627
346.627
355.379
355.379
364.291
364.291
373.363
373.363
382.596
382.596
391.991
391.991
401.546
401.546
411.262
411.262
421.138
421.138
431.174
431.174
441.368
441.368
451.72
451.72
462.229
462.229
472.892
472.892
483.707
483.708
494.673
494.673
505.786
505.786
517.042
517.042
528.439
528.439
539.972
539.972
551.635
551.635
563.425
563.425
575.335
575.335
587.359
587.359
599.489
599.489
611.719
611.719
624.039
624.039
636.44
636.44
648.915
648.915
661.452
661.452
674.042
674.042
686.674
686.674
699.335
699.335
712.013
712.013
724.697
724.697
737.374
737.374
750.032
750.032
762.658
762.658
775.242
775.242
787.769
787.769
800.233
800.233
812.626
812.626
824.94
824.94
837.171
837.171
849.316
849.316
861.377
861.377
873.359
873.359
885.269
885.269
897.122
897.122
908.937
908.937
920.738
920.738
932.558
932.558
944.437
944.437
956.426
956.426
968.585
968.585
980.98
980.98
993.681
993.681
1006.77
1006.77
1020.33
1020.33
1034.48
1034.48
1049.3
1049.3
1064.91
1064.91
1081.43
1081.43
1098.97
1098.97
1117.65
1117.65
1137.58
1137.58
1158.87
1158.87
1181.62
1181.62
1205.91
1205.91
1231.81
1231.81
1259.38
1259.38
1288.66
1288.66
1319.67
1319.67
1352.39
1352.39
1386.82
1386.82
1422.9
1422.9
1460.58
1460.58
1499.77
1499.77
1540.38
1540.38
1582.32
1582.32
1625.45
1625.45
1669.67
1669.67
1714.84
1714.84
1760.84
1760.84
1807.54
1807.54
1854.82
1854.82
1902.57
1902.57
1950.66
1950.66
1999
1999
2047.49
2047.49
2096.05
2096.05
2144.6
2144.6
2193.08
2193.08
2241.44
2241.44
2289.66
2289.66
2337.72
2337.73
2385.62
2385.62
2433.35
2433.35
2480.95
2480.95
2528.46
2528.46
2575.93
2575.93
2623.44
2623.44
2671.08
2671.08
2718.96
2718.96
2767.2
2767.2
2815.94
2815.95
2865.37
2865.37
2915.66
2915.67
2967.04
2967.04
3019.74
3019.74
3074.05
3074.05
3130.26
3130.26
3188.73
3188.73
3249.87
3249.87
3314.12
3314.12
3382.01
3382.01
3454.13
3454.13
3531.19
3531.19
3614
3614
3703.52
3703.52
3800.92
3800.92
3907.57
3907.57
4025.16
4025.16
4155.79
4155.8
4302.07
4302.07
4467.31
4467.31
4655.78
4655.78
4873.11
4873.11
5126.87
5126.87
5427.51
5427.51
5789.83
5789.83
6235.63
6235.63
6798.29
6798.29
7531.58
7531.58
8527.83
8527.83
9958.47
9958.47
12175.4
12175.4
15994.5
15994.5
23571
23571
41152.6
41152.6
88962.5
88962.5
264914
264914
1.52417e+06
1.52417e+06
)
;

boundaryField
{
    walls
    {
        blending        binomial2;
        n               2;
        beta1           0.075;
        type            omegaWallFunction;
        value           nonuniform List<scalar> 8(1.52416e+06 1.52416e+06 1.52416e+06 1.52416e+06 1.52417e+06 1.52417e+06 1.52417e+06 1.52417e+06);
    }
    inlet
    {
        type            cyclic;
    }
    outlet
    {
        type            cyclic;
    }
    sides
    {
        type            empty;
    }
}


// ************************************************************************* //
