/*--------------------------------*- C++ -*----------------------------------*\
| =========                 |                                                 |
| \\      /  F ield         | OpenFOAM: The Open Source CFD Toolbox           |
|  \\    /   O peration     | Version:  2012                                  |
|   \\  /    A nd           | Website:  www.openfoam.com                      |
|    \\/     M anipulation  |                                                 |
\*---------------------------------------------------------------------------*/
FoamFile
{
    version     2.0;
    format      ascii;
    class       volScalarField;
    location    "12900";
    object      p;
}
// * * * * * * * * * * * * * * * * * * * * * * * * * * * * * * * * * * * * * //

dimensions      [0 2 -2 0 0 0 0];


internalField   nonuniform List<scalar> 
2560
(
9.27214e-09
0.00475289
6.08165e-10
0.00475282
-1.97687e-07
0.00475262
-8.13171e-07
0.00475204
-2.20527e-06
0.00475068
-4.9183e-06
0.00474798
-9.62135e-06
0.00474329
-1.70992e-05
0.00473582
-2.82952e-05
0.00472462
-4.42817e-05
0.00470864
-6.62727e-05
0.00468665
-9.56288e-05
0.00465729
-0.000133837
0.00461908
-0.000182527
0.00457039
-0.000243472
0.00450944
-0.000318571
0.00443434
-0.000409856
0.00434305
-0.000519479
0.00423342
-0.000649754
0.00410315
-0.000803081
0.00394982
-0.000981971
0.00377092
-0.00118909
0.0035638
-0.00142723
0.00332565
-0.00169921
0.00305368
-0.00200798
0.00274491
-0.00235666
0.00239622
-0.00274844
0.00200444
-0.00318646
0.00156642
-0.00367406
0.00107883
-0.00421473
0.000538161
-0.00481194
-5.90466e-05
-0.00546913
-0.000716232
-0.00618992
-0.00143701
-0.00697807
-0.00222515
-0.00783722
-0.00308429
-0.00877103
-0.00401809
-0.00978333
-0.00503037
-0.010878
-0.00612508
-0.012059
-0.00730596
-0.0133298
-0.00857677
-0.0146945
-0.00994142
-0.016157
-0.011404
-0.0177213
-0.0129682
-0.0193911
-0.0146379
-0.0211703
-0.0164171
-0.0230629
-0.0183097
-0.0250727
-0.0203195
-0.0272035
-0.0224502
-0.0294591
-0.0247057
-0.0318438
-0.0270904
-0.0343608
-0.0296074
-0.0370129
-0.0322594
-0.0398062
-0.0350526
-0.0427426
-0.0379889
-0.0458254
-0.0410716
-0.0490599
-0.044306
-0.0524474
-0.0476935
-0.0559933
-0.0512393
-0.0596996
-0.0549455
-0.0635694
-0.0588152
-0.0676064
-0.0628521
-0.0718138
-0.0670594
-0.0761952
-0.0714406
-0.0807509
-0.0759962
-0.0854855
-0.0807307
-0.0904029
-0.085648
-0.0955022
-0.0907471
-0.100788
-0.0960331
-0.106261
-0.101506
-0.111926
-0.10717
-0.117781
-0.113025
-0.123829
-0.119073
-0.130072
-0.125316
-0.136511
-0.131754
-0.143146
-0.13839
-0.149979
-0.145222
-0.157011
-0.152254
-0.164239
-0.159482
-0.171667
-0.166909
-0.179291
-0.174533
-0.187114
-0.182356
-0.195132
-0.190374
-0.203345
-0.198587
-0.211753
-0.206994
-0.220351
-0.215592
-0.229139
-0.22438
-0.238115
-0.233356
-0.247277
-0.242517
-0.25662
-0.251861
-0.266142
-0.261382
-0.275838
-0.271078
-0.285706
-0.280945
-0.29574
-0.290979
-0.305938
-0.301177
-0.316291
-0.311529
-0.326798
-0.322037
-0.337453
-0.332691
-0.348248
-0.343485
-0.359179
-0.354417
-0.370239
-0.365476
-0.381423
-0.37666
-0.392724
-0.387961
-0.404133
-0.399369
-0.415644
-0.41088
-0.427252
-0.422487
-0.438946
-0.434181
-0.45072
-0.445955
-0.462567
-0.457801
-0.474477
-0.469712
-0.486446
-0.481679
-0.49846
-0.493693
-0.510514
-0.505747
-0.522601
-0.517834
-0.53471
-0.529942
-0.546834
-0.542066
-0.558963
-0.554195
-0.571092
-0.566323
-0.583209
-0.57844
-0.595308
-0.590538
-0.607379
-0.602609
-0.619414
-0.614643
-0.631406
-0.626635
-0.643345
-0.638573
-0.655226
-0.650454
-0.667038
-0.662265
-0.678775
-0.674002
-0.69043
-0.685656
-0.701992
-0.697218
-0.713459
-0.708685
-0.72482
-0.720045
-0.736069
-0.731294
-0.747199
-0.742423
-0.758205
-0.753429
-0.769077
-0.7643
-0.779812
-0.775035
-0.790401
-0.785623
-0.800841
-0.796062
-0.811123
-0.806343
-0.821245
-0.816464
-0.831196
-0.826415
-0.840977
-0.836195
-0.850577
-0.845795
-0.86
-0.855216
-0.869231
-0.864447
-0.878277
-0.873492
-0.887121
-0.882337
-0.895777
-0.89099
-0.904222
-0.899436
-0.912474
-0.907685
-0.920508
-0.915721
-0.928348
-0.923557
-0.935961
-0.931172
-0.94338
-0.938586
-0.950564
-0.945773
-0.957555
-0.952759
-0.964304
-0.959512
-0.970864
-0.966065
-0.977172
-0.972379
-0.983298
-0.978495
-0.989161
-0.984368
-0.994853
-0.990046
-1.00027
-0.995476
-1.00553
-1.00072
-1.0105
-1.0057
-1.01533
-1.01051
-1.01985
-1.01505
-1.02426
-1.01943
-1.02833
-1.02354
-1.03232
-1.02748
-1.03594
-1.03115
-1.03953
-1.03468
-1.0427
-1.03792
-1.0459
-1.04103
-1.04862
-1.04385
-1.05144
-1.04656
-1.05372
-1.04896
-1.05618
-1.05127
-1.05801
-1.05328
-1.06016
-1.05521
-1.06153
-1.05683
-1.06339
-1.0584
-1.06431
-1.05965
-1.06592
-1.06086
-1.06644
-1.06177
-1.06779
-1.06264
-1.06813
-1.06322
-1.06901
-1.06375
-1.06919
-1.06404
-1.06961
-1.06423
-1.06964
-1.06424
-1.06929
-1.06411
-1.06914
-1.06384
-1.06838
-1.0634
-1.06809
-1.06287
-1.06693
-1.06214
-1.0665
-1.06135
-1.06509
-1.06034
-1.06441
-1.05931
-1.06286
-1.05805
-1.06185
-1.05678
-1.06014
-1.05528
-1.05883
-1.05378
-1.05696
-1.05205
-1.05538
-1.05033
-1.05334
-1.0484
-1.0515
-1.04646
-1.0493
-1.04432
-1.04723
-1.04217
-1.04485
-1.03984
-1.04256
-1.0375
-1.04002
-1.03498
-1.03753
-1.03245
-1.03483
-1.02976
-1.03215
-1.02704
-1.02928
-1.02419
-1.02643
-1.0213
-1.02341
-1.01828
-1.02039
-1.01523
-1.01722
-1.01205
-1.01402
-1.00883
-1.01069
-1.00549
-1.00732
-1.0021
-1.00382
-0.998586
-1.00027
-0.995012
-0.996599
-0.991321
-0.992863
-0.987561
-0.989012
-0.983691
-0.985099
-0.979754
-0.981083
-0.975717
-0.977004
-0.971614
-0.972829
-0.967416
-0.968585
-0.963147
-0.964244
-0.958782
-0.959828
-0.95434
-0.955313
-0.9498
-0.95072
-0.94518
-0.94603
-0.940463
-0.941257
-0.935663
-0.936387
-0.930765
-0.931429
-0.925779
-0.926376
-0.920698
-0.921239
-0.915532
-0.916015
-0.910279
-0.910711
-0.904945
-0.905323
-0.899528
-0.899854
-0.894028
-0.894305
-0.888449
-0.888672
-0.882786
-0.882957
-0.877042
-0.877154
-0.871209
-0.871265
-0.865291
-0.865283
-0.859281
-0.859221
-0.853192
-0.853065
-0.847011
-0.846835
-0.840755
-0.840515
-0.834411
-0.834135
-0.828007
-0.827674
-0.821524
-0.821167
-0.814994
-0.814579
-0.808384
-0.807942
-0.801727
-0.801204
-0.794971
-0.794405
-0.788154
-0.787487
-0.781219
-0.780497
-0.774213
-0.773377
-0.767077
-0.766204
-0.759887
-0.758908
-0.752575
-0.751591
-0.745238
-0.744159
-0.737788
-0.736722
-0.730331
-0.729151
-0.722741
-0.721577
-0.715145
-0.713845
-0.707395
-0.70613
-0.699659
-0.698242
-0.691757
-0.690394
-0.683893
-0.682347
-0.675842
-0.674361
-0.667852
-0.66615
-0.659637
-0.658037
-0.6515
-0.649664
-0.643103
-0.641444
-0.634832
-0.63294
-0.626275
-0.624656
-0.617902
-0.616056
-0.609213
-0.607763
-0.600784
-0.599118
-0.592006
-0.59088
-0.583576
-0.582235
-0.574754
-0.574113
-0.566382
-0.5655
-0.557556
-0.557539
-0.549289
-0.548979
-0.540498
-0.54123
-0.53239
-0.532725
-0.523646
-0.525202
-0.515693
-0.51673
-0.506975
-0.509497
-0.499213
-0.5011
-0.490581
-0.494287
-0.483112
-0.486055
-0.474696
-0.479864
-0.467695
-0.47189
-0.459648
-0.466472
-0.453228
-0.458725
-0.445606
-0.454149
-0.439793
-0.446549
-0.432631
-0.442941
-0.427511
-0.435488
-0.420919
-0.433053
-0.416636
-0.38808
-0.410712
-0.386098
-0.407125
-0.379373
-0.402534
-0.377806
-0.399572
-0.372478
-0.396273
-0.371376
-0.394112
-0.367594
-0.392084
-0.367001
-0.390882
-0.365007
-0.390184
0.00476557
3.29957e-05
0.00476551
3.29778e-05
0.00476531
3.27779e-05
0.00476472
3.21625e-05
0.00476337
3.07701e-05
0.00476067
2.80556e-05
0.00475598
2.33507e-05
0.0047485
1.58695e-05
0.00473731
4.66978e-06
0.00472132
-1.13226e-05
0.00469933
-3.33194e-05
0.00466997
-6.26839e-05
0.00463176
-0.0001009
0.00458307
-0.000149601
0.00452212
-0.000210556
0.00444702
-0.000285669
0.00435573
-0.000376966
0.00424611
-0.000486604
0.00411583
-0.000616894
0.0039625
-0.000770239
0.0037836
-0.000949145
0.00357648
-0.00115628
0.00333833
-0.00139445
0.00306635
-0.00166644
0.00275758
-0.00197523
0.0024089
-0.00232394
0.00201711
-0.00271574
0.0015791
-0.00315378
0.0010915
-0.00364141
0.000550829
-0.0041821
-4.63806e-05
-0.00477934
-0.000703567
-0.00543655
-0.00142435
-0.00615737
-0.00221249
-0.00694554
-0.00307163
-0.00780472
-0.00400543
-0.00873856
-0.00501772
-0.00975089
-0.00611242
-0.0108456
-0.00729331
-0.0120266
-0.00856411
-0.0132974
-0.00992877
-0.0146621
-0.0113913
-0.0161247
-0.0129556
-0.0176891
-0.0146253
-0.0193588
-0.0164045
-0.0211381
-0.018297
-0.0230307
-0.0203068
-0.0250406
-0.0224375
-0.0271714
-0.0246931
-0.029427
-0.0270778
-0.0318118
-0.0295947
-0.0343288
-0.0322468
-0.0369809
-0.0350399
-0.0397742
-0.0379763
-0.0427106
-0.041059
-0.0457934
-0.0442934
-0.049028
-0.0476809
-0.0524156
-0.0512267
-0.0559615
-0.0549329
-0.0596679
-0.0588025
-0.0635376
-0.0628395
-0.0675747
-0.0670467
-0.0717821
-0.071428
-0.0761635
-0.0759836
-0.0807193
-0.0807181
-0.0854539
-0.0856353
-0.0903713
-0.0907345
-0.0954707
-0.0960205
-0.100757
-0.101493
-0.10623
-0.107157
-0.111894
-0.113013
-0.117749
-0.11906
-0.123798
-0.125304
-0.130041
-0.131742
-0.136479
-0.138377
-0.143115
-0.14521
-0.149948
-0.152241
-0.15698
-0.159469
-0.164208
-0.166897
-0.171636
-0.174521
-0.17926
-0.182344
-0.187083
-0.190361
-0.195101
-0.198574
-0.203314
-0.206982
-0.211722
-0.21558
-0.22032
-0.224368
-0.229108
-0.233344
-0.238085
-0.242505
-0.247246
-0.251848
-0.256589
-0.26137
-0.266111
-0.271065
-0.275807
-0.280932
-0.285675
-0.290967
-0.295709
-0.301164
-0.305907
-0.311517
-0.31626
-0.322024
-0.326767
-0.332679
-0.337423
-0.343473
-0.348217
-0.354404
-0.359149
-0.365464
-0.370209
-0.376647
-0.381392
-0.387948
-0.392694
-0.399357
-0.404103
-0.410868
-0.415614
-0.422475
-0.427221
-0.434168
-0.438915
-0.445943
-0.45069
-0.457789
-0.462537
-0.469699
-0.474447
-0.481667
-0.486415
-0.493681
-0.49843
-0.505734
-0.510484
-0.517821
-0.522571
-0.529929
-0.534679
-0.542054
-0.546804
-0.554182
-0.558933
-0.56631
-0.571062
-0.578427
-0.583179
-0.590526
-0.595278
-0.602596
-0.607349
-0.61463
-0.619384
-0.626622
-0.631376
-0.638561
-0.643315
-0.650441
-0.655196
-0.662253
-0.667008
-0.673989
-0.678745
-0.685644
-0.6904
-0.697206
-0.701962
-0.708672
-0.71343
-0.720032
-0.72479
-0.731281
-0.736039
-0.74241
-0.747169
-0.753416
-0.758176
-0.764288
-0.769048
-0.775022
-0.779783
-0.78561
-0.790371
-0.796049
-0.800812
-0.80633
-0.811093
-0.816452
-0.821215
-0.826402
-0.831166
-0.836183
-0.840948
-0.845782
-0.850547
-0.855203
-0.85997
-0.864434
-0.869201
-0.873479
-0.878247
-0.882324
-0.887092
-0.890977
-0.895747
-0.899423
-0.904192
-0.907672
-0.912444
-0.915708
-0.920478
-0.923544
-0.928318
-0.931159
-0.935931
-0.938573
-0.94335
-0.94576
-0.950534
-0.952746
-0.957526
-0.959499
-0.964274
-0.966052
-0.970834
-0.972366
-0.977142
-0.978482
-0.983268
-0.984355
-0.989132
-0.990033
-0.994824
-0.995463
-1.00024
-1.0007
-1.0055
-1.00569
-1.01047
-1.0105
-1.0153
-1.01504
-1.01982
-1.01942
-1.02423
-1.02352
-1.0283
-1.02747
-1.03229
-1.03114
-1.03591
-1.03467
-1.0395
-1.03791
-1.04267
-1.04102
-1.04587
-1.04384
-1.04859
-1.04654
-1.05141
-1.04895
-1.05369
-1.05126
-1.05616
-1.05326
-1.05798
-1.0552
-1.06013
-1.05682
-1.0615
-1.05838
-1.06336
-1.05963
-1.06428
-1.06085
-1.06589
-1.06175
-1.06641
-1.06262
-1.06776
-1.06321
-1.0681
-1.06374
-1.06898
-1.06402
-1.06916
-1.06422
-1.06958
-1.06422
-1.06961
-1.0641
-1.06926
-1.06383
-1.06911
-1.06339
-1.06835
-1.06286
-1.06806
-1.06212
-1.0669
-1.06134
-1.06647
-1.06033
-1.06506
-1.0593
-1.06438
-1.05803
-1.06283
-1.05677
-1.06182
-1.05526
-1.06011
-1.05377
-1.0588
-1.05204
-1.05693
-1.05032
-1.05535
-1.04838
-1.05331
-1.04644
-1.05147
-1.04431
-1.04927
-1.04216
-1.0472
-1.03983
-1.04482
-1.03748
-1.04253
-1.03497
-1.03999
-1.03244
-1.0375
-1.02975
-1.0348
-1.02703
-1.03212
-1.02417
-1.02926
-1.02129
-1.0264
-1.01827
-1.02338
-1.01522
-1.02036
-1.01204
-1.01719
-1.00882
-1.01399
-1.00548
-1.01066
-1.00208
-1.00729
-0.998573
-1.00379
-0.994999
-1.00024
-0.991308
-0.99657
-0.987549
-0.992834
-0.983679
-0.988982
-0.979741
-0.985069
-0.975705
-0.981053
-0.971601
-0.976974
-0.967404
-0.972799
-0.963134
-0.968555
-0.958769
-0.964214
-0.954327
-0.959798
-0.949787
-0.955283
-0.945167
-0.95069
-0.940451
-0.946
-0.935651
-0.941228
-0.930753
-0.936357
-0.925767
-0.931399
-0.920686
-0.926346
-0.915519
-0.921209
-0.910266
-0.915985
-0.904932
-0.910681
-0.899516
-0.905294
-0.894016
-0.899824
-0.888437
-0.894275
-0.882774
-0.888642
-0.87703
-0.882927
-0.871196
-0.877124
-0.865279
-0.871235
-0.859269
-0.865253
-0.85318
-0.859191
-0.846999
-0.853035
-0.840743
-0.846805
-0.834399
-0.840485
-0.827995
-0.834105
-0.821512
-0.827644
-0.814982
-0.821137
-0.808373
-0.814548
-0.801716
-0.807912
-0.794959
-0.801174
-0.788143
-0.794375
-0.781207
-0.787456
-0.774201
-0.780467
-0.767065
-0.773347
-0.759875
-0.766174
-0.752563
-0.758878
-0.745227
-0.75156
-0.737777
-0.744128
-0.73032
-0.736692
-0.72273
-0.729121
-0.715134
-0.721547
-0.707383
-0.713814
-0.699647
-0.7061
-0.691745
-0.698212
-0.683882
-0.690364
-0.67583
-0.682317
-0.66784
-0.674331
-0.659626
-0.66612
-0.651489
-0.658007
-0.643092
-0.649634
-0.63482
-0.641414
-0.626263
-0.63291
-0.61789
-0.624626
-0.609201
-0.616026
-0.600772
-0.607734
-0.591994
-0.599088
-0.583565
-0.59085
-0.574743
-0.582205
-0.56637
-0.574083
-0.557545
-0.565469
-0.549278
-0.557508
-0.540488
-0.548948
-0.53238
-0.5412
-0.523636
-0.532694
-0.515682
-0.525171
-0.506967
-0.516699
-0.499203
-0.509466
-0.490573
-0.501068
-0.483103
-0.494255
-0.474689
-0.486022
-0.467686
-0.479831
-0.459644
-0.471856
-0.45322
-0.466437
-0.445603
-0.458689
-0.439787
-0.454113
-0.432631
-0.446511
-0.427507
-0.442903
-0.420921
-0.435447
-0.416634
-0.433012
-0.410718
-0.388143
-0.407127
-0.38616
-0.40254
-0.379437
-0.399578
-0.377869
-0.396278
-0.372542
-0.39412
-0.371439
-0.392089
-0.367658
-0.390891
-0.367066
-0.390188
-0.365072
-0.365007
-0.390183
-0.366999
-0.390882
-0.367592
-0.392083
-0.371375
-0.394112
-0.372477
-0.396272
-0.377807
-0.399569
-0.379374
-0.402535
-0.386095
-0.407121
-0.388078
-0.410709
-0.433016
-0.416634
-0.435452
-0.420918
-0.442905
-0.42751
-0.446513
-0.43263
-0.454115
-0.439793
-0.458692
-0.445604
-0.466438
-0.453223
-0.471856
-0.459642
-0.479832
-0.467688
-0.486022
-0.474687
-0.494258
-0.483106
-0.501069
-0.490573
-0.509468
-0.499205
-0.5167
-0.506965
-0.525171
-0.51568
-0.532694
-0.523633
-0.541205
-0.532382
-0.548949
-0.540485
-0.557513
-0.549279
-0.565473
-0.557544
-0.574083
-0.566366
-0.58221
-0.574744
-0.590855
-0.583565
-0.599096
-0.591997
-0.607737
-0.60077
-0.616036
-0.609205
-0.624628
-0.617886
-0.632913
-0.626259
-0.641419
-0.634817
-0.649637
-0.643086
-0.658014
-0.651487
-0.666125
-0.659622
-0.674338
-0.667838
-0.682323
-0.675827
-0.690371
-0.68388
-0.698216
-0.69174
-0.706107
-0.699646
-0.713818
-0.707378
-0.721551
-0.715129
-0.729124
-0.722725
-0.736697
-0.730317
-0.74413
-0.737771
-0.751569
-0.745227
-0.758884
-0.752561
-0.766175
-0.759868
-0.773353
-0.767063
-0.780472
-0.774198
-0.787464
-0.781207
-0.79438
-0.788139
-0.801177
-0.794955
-0.807913
-0.801709
-0.81456
-0.808376
-0.821143
-0.81498
-0.827653
-0.821513
-0.834111
-0.827994
-0.840494
-0.834401
-0.846808
-0.840739
-0.853036
-0.846992
-0.8592
-0.853181
-0.865259
-0.859268
-0.871246
-0.865282
-0.877126
-0.871191
-0.882928
-0.877023
-0.888647
-0.882771
-0.894276
-0.88843
-0.899826
-0.89401
-0.905297
-0.899511
-0.910688
-0.904932
-0.915995
-0.910268
-0.921221
-0.915523
-0.926356
-0.920688
-0.931406
-0.925765
-0.936365
-0.930752
-0.941232
-0.935647
-0.946004
-0.940447
-0.950699
-0.945168
-0.955287
-0.949783
-0.959799
-0.95432
-0.964222
-0.95877
-0.968561
-0.963132
-0.972799
-0.967396
-0.97698
-0.971598
-0.981058
-0.975701
-0.985071
-0.979735
-0.988986
-0.983673
-0.992845
-0.987551
-0.99658
-0.99131
-1.00025
-0.994996
-1.0038
-0.998574
-1.0073
-1.00208
-1.01067
-1.00547
-1.014
-1.00881
-1.0172
-1.01204
-1.02037
-1.01521
-1.02339
-1.01827
-1.02641
-1.02129
-1.02926
-1.02417
-1.03212
-1.02703
-1.03481
-1.02975
-1.03751
-1.03243
-1.03999
-1.03496
-1.04254
-1.03748
-1.04482
-1.03982
-1.0472
-1.04215
-1.04927
-1.0443
-1.05148
-1.04644
-1.05331
-1.04838
-1.05535
-1.05032
-1.05694
-1.05204
-1.05881
-1.05376
-1.06012
-1.05526
-1.06183
-1.05677
-1.06284
-1.05803
-1.06439
-1.0593
-1.06507
-1.06033
-1.06648
-1.06134
-1.06691
-1.06212
-1.06806
-1.06286
-1.06835
-1.06339
-1.06912
-1.06382
-1.06927
-1.06409
-1.06961
-1.06422
-1.06959
-1.06422
-1.06917
-1.06402
-1.06899
-1.06373
-1.06811
-1.0632
-1.06777
-1.06262
-1.06642
-1.06175
-1.0659
-1.06085
-1.06428
-1.05963
-1.06337
-1.05838
-1.06151
-1.05681
-1.06013
-1.05519
-1.05799
-1.05326
-1.05617
-1.05126
-1.05369
-1.04894
-1.05141
-1.04653
-1.04859
-1.04383
-1.04588
-1.04102
-1.04269
-1.03791
-1.03951
-1.03467
-1.03593
-1.03115
-1.0323
-1.02747
-1.0283
-1.02351
-1.02423
-1.01941
-1.01982
-1.01503
-1.01531
-1.0105
-1.01046
-1.00568
-1.0055
-1.00069
-1.00024
-0.995452
-0.994818
-0.990017
-0.989155
-0.984368
-0.98328
-0.978483
-0.977137
-0.97235
-0.970859
-0.966065
-0.96428
-0.959494
-0.957517
-0.952727
-0.950562
-0.945778
-0.943373
-0.938585
-0.93595
-0.931167
-0.928348
-0.923563
-0.920461
-0.91568
-0.912464
-0.90768
-0.904188
-0.899408
-0.895748
-0.890967
-0.887104
-0.882325
-0.878236
-0.873456
-0.86917
-0.864393
-0.859971
-0.855194
-0.85059
-0.845814
-0.840919
-0.836143
-0.831163
-0.826389
-0.821217
-0.816442
-0.811117
-0.806343
-0.800835
-0.796062
-0.790421
-0.785648
-0.779835
-0.775063
-0.769029
-0.764258
-0.758172
-0.753401
-0.747226
-0.742455
-0.736019
-0.731249
-0.724742
-0.719973
-0.713456
-0.708687
-0.702007
-0.697238
-0.69044
-0.685672
-0.678725
-0.673957
-0.667043
-0.662276
-0.655232
-0.650466
-0.643344
-0.638578
-0.631338
-0.626573
-0.619425
-0.61466
-0.607411
-0.602646
-0.595222
-0.590458
-0.583248
-0.578485
-0.571122
-0.566359
-0.558928
-0.554164
-0.546751
-0.541988
-0.534692
-0.52993
-0.522508
-0.517746
-0.510472
-0.505711
-0.49849
-0.493729
-0.48635
-0.481589
-0.474449
-0.469689
-0.462586
-0.457825
-0.450635
-0.445875
-0.43892
-0.43416
-0.427311
-0.422552
-0.415607
-0.410848
-0.404024
-0.399265
-0.392729
-0.387971
-0.38139
-0.376632
-0.370183
-0.365425
-0.359122
-0.354364
-0.348221
-0.343464
-0.337474
-0.332718
-0.326729
-0.321972
-0.316332
-0.311576
-0.305953
-0.301197
-0.295754
-0.290999
-0.285769
-0.281014
-0.275797
-0.271042
-0.26605
-0.261295
-0.256511
-0.251757
-0.247211
-0.242457
-0.238126
-0.233372
-0.22911
-0.224356
-0.220319
-0.215565
-0.211784
-0.20703
-0.203304
-0.198551
-0.19509
-0.190337
-0.187109
-0.182357
-0.179231
-0.174479
-0.171589
-0.166836
-0.164226
-0.159474
-0.156931
-0.152179
-0.149925
-0.145173
-0.143143
-0.138391
-0.136501
-0.13175
-0.130074
-0.125322
-0.1238
-0.119049
-0.117733
-0.112982
-0.111977
-0.107226
-0.106267
-0.101517
-0.100738
-0.095988
-0.0955253
-0.0907752
-0.0903659
-0.0856159
-0.0855056
-0.0807556
-0.0807063
-0.0759564
-0.0762
-0.0714503
-0.0717493
-0.0669998
-0.0675968
-0.0628473
-0.063599
-0.0588497
-0.0596777
-0.0549285
-0.0560021
-0.051253
-0.0524214
-0.0476724
-0.0490617
-0.0443129
-0.0458064
-0.0410576
-0.042754
-0.0380052
-0.0398082
-0.0350595
-0.0369615
-0.0322129
-0.0343146
-0.0295661
-0.0318412
-0.0270927
-0.0294752
-0.0247268
-0.0271895
-0.0224412
-0.0250179
-0.0202696
-0.0230643
-0.0183161
-0.0211471
-0.016399
-0.0193685
-0.0146204
-0.0176878
-0.0129397
-0.0161414
-0.0113934
-0.0146772
-0.00992927
-0.0132938
-0.00854593
-0.0120305
-0.00728263
-0.0108506
-0.00610273
-0.00977018
-0.00502238
-0.00873257
-0.0039848
-0.00782122
-0.00307342
-0.00695193
-0.00220418
-0.00616049
-0.00141277
-0.00544119
-0.00069349
-0.00479187
-4.41963e-05
-0.00420329
0.00054436
-0.00365367
0.00109397
-0.00315888
0.00158875
-0.0027227
0.00202492
-0.00233146
0.00241612
-0.00197527
0.0027723
-0.00167292
0.00307465
-0.00140044
0.00334712
-0.00116061
0.00358694
-0.000957425
0.00379012
-0.000780906
0.00396662
-0.000625621
0.00412191
-0.000493586
0.00425394
-0.000385352
0.00436216
-0.000294974
0.00445253
-0.000218488
0.00452901
-0.000156609
0.00459089
-0.000108491
0.004639
-7.07011e-05
0.00467678
-4.07824e-05
0.0047067
-1.85217e-05
0.00472896
-2.78027e-06
0.00474469
8.24637e-06
0.00475572
1.58476e-05
0.00476331
2.05818e-05
0.00476804
2.32501e-05
0.00477069
2.46179e-05
0.00477203
2.52428e-05
0.00477264
2.54574e-05
0.00477285
2.54889e-05
0.00477291
-0.390192
-0.365072
-0.390887
-0.367065
-0.392092
-0.367657
-0.394117
-0.371441
-0.396281
-0.372543
-0.399574
-0.377873
-0.402543
-0.379441
-0.407127
-0.386162
-0.410717
-0.388145
-0.416641
-0.432993
-0.420926
-0.435429
-0.427517
-0.442882
-0.432637
-0.446491
-0.4398
-0.454092
-0.445612
-0.458669
-0.45323
-0.466415
-0.459649
-0.471834
-0.467695
-0.479809
-0.474693
-0.486
-0.483112
-0.494236
-0.490578
-0.501048
-0.49921
-0.509447
-0.50697
-0.51668
-0.515684
-0.525151
-0.523637
-0.532674
-0.532386
-0.541185
-0.540488
-0.548929
-0.549282
-0.557494
-0.557547
-0.565454
-0.566368
-0.574064
-0.574746
-0.582192
-0.583567
-0.590836
-0.591999
-0.599079
-0.600772
-0.60772
-0.609207
-0.616019
-0.617888
-0.624611
-0.62626
-0.632896
-0.634818
-0.641402
-0.643087
-0.649619
-0.651488
-0.657997
-0.659623
-0.666107
-0.667838
-0.674321
-0.675828
-0.682306
-0.683881
-0.690354
-0.691741
-0.698199
-0.699647
-0.70609
-0.707379
-0.713801
-0.71513
-0.721534
-0.722726
-0.729107
-0.730318
-0.73668
-0.737772
-0.744113
-0.745228
-0.751552
-0.752562
-0.758867
-0.759869
-0.766158
-0.767064
-0.773336
-0.774199
-0.780455
-0.781208
-0.787447
-0.78814
-0.794363
-0.794956
-0.80116
-0.80171
-0.807896
-0.808377
-0.814542
-0.814981
-0.821126
-0.821514
-0.827636
-0.827995
-0.834094
-0.834401
-0.840477
-0.840739
-0.846791
-0.846992
-0.853019
-0.853182
-0.859182
-0.859268
-0.865242
-0.865283
-0.871229
-0.871192
-0.877109
-0.877023
-0.882911
-0.882771
-0.88863
-0.88843
-0.894259
-0.89401
-0.899809
-0.899511
-0.90528
-0.904932
-0.910671
-0.910269
-0.915978
-0.915524
-0.921204
-0.920688
-0.92634
-0.925766
-0.931389
-0.930753
-0.936348
-0.935647
-0.941215
-0.940447
-0.945987
-0.945168
-0.950682
-0.949783
-0.95527
-0.95432
-0.959782
-0.95877
-0.964206
-0.963133
-0.968545
-0.967396
-0.972783
-0.971599
-0.976963
-0.975701
-0.981041
-0.979735
-0.985055
-0.983674
-0.988969
-0.987551
-0.992828
-0.99131
-0.996564
-0.994996
-1.00023
-0.998574
-1.00379
-1.00208
-1.00728
-1.00547
-1.01065
-1.00881
-1.01398
-1.01204
-1.01718
-1.01521
-1.02035
-1.01827
-1.02338
-1.02129
-1.0264
-1.02417
-1.02925
-1.02703
-1.03211
-1.02975
-1.03479
-1.03243
-1.03749
-1.03496
-1.03998
-1.03748
-1.04252
-1.03982
-1.04481
-1.04215
-1.04718
-1.0443
-1.04926
-1.04644
-1.05147
-1.04838
-1.0533
-1.05032
-1.05534
-1.05204
-1.05692
-1.05376
-1.05879
-1.05526
-1.0601
-1.05677
-1.06181
-1.05803
-1.06282
-1.0593
-1.06437
-1.06033
-1.06505
-1.06134
-1.06646
-1.06212
-1.06689
-1.06286
-1.06805
-1.06338
-1.06834
-1.06382
-1.0691
-1.06409
-1.06925
-1.06422
-1.0696
-1.06422
-1.06957
-1.06402
-1.06915
-1.06373
-1.06897
-1.0632
-1.06809
-1.06262
-1.06775
-1.06175
-1.0664
-1.06084
-1.06589
-1.05963
-1.06427
-1.05838
-1.06335
-1.05681
-1.06149
-1.05519
-1.06012
-1.05326
-1.05798
-1.05126
-1.05615
-1.04894
-1.05368
-1.04653
-1.05139
-1.04383
-1.04858
-1.04102
-1.04586
-1.03791
-1.04267
-1.03466
-1.03949
-1.03115
-1.03591
-1.02747
-1.03228
-1.02351
-1.02828
-1.01941
-1.02421
-1.01503
-1.0198
-1.0105
-1.0153
-1.00568
-1.01045
-1.00069
-1.00548
-0.995452
-1.00022
-0.990017
-0.994803
-0.984367
-0.989139
-0.978483
-0.983264
-0.97235
-0.977121
-0.966065
-0.970843
-0.959494
-0.964264
-0.952727
-0.957501
-0.945778
-0.950546
-0.938585
-0.943357
-0.931167
-0.935934
-0.923563
-0.928332
-0.91568
-0.920445
-0.90768
-0.912448
-0.899408
-0.904172
-0.890967
-0.895732
-0.882325
-0.887088
-0.873456
-0.87822
-0.864393
-0.869155
-0.855194
-0.859956
-0.845814
-0.850574
-0.836143
-0.840903
-0.826389
-0.831148
-0.816442
-0.821201
-0.806343
-0.811101
-0.796062
-0.800819
-0.785648
-0.790405
-0.775063
-0.779819
-0.764258
-0.769014
-0.753401
-0.758156
-0.742456
-0.74721
-0.731249
-0.736003
-0.719973
-0.724727
-0.708688
-0.713441
-0.697239
-0.701991
-0.685672
-0.690425
-0.673958
-0.678709
-0.662276
-0.667028
-0.650466
-0.655217
-0.638578
-0.643328
-0.626573
-0.631323
-0.61466
-0.61941
-0.602647
-0.607396
-0.590458
-0.595207
-0.578485
-0.583233
-0.566359
-0.571107
-0.554165
-0.558912
-0.541989
-0.546736
-0.52993
-0.534677
-0.517746
-0.522493
-0.505711
-0.510457
-0.493729
-0.498475
-0.48159
-0.486335
-0.469689
-0.474434
-0.457826
-0.46257
-0.445876
-0.45062
-0.434161
-0.438905
-0.422552
-0.427296
-0.410849
-0.415592
-0.399266
-0.404009
-0.387972
-0.392714
-0.376632
-0.381374
-0.365425
-0.370167
-0.354365
-0.359107
-0.343465
-0.348206
-0.332718
-0.337459
-0.321973
-0.326714
-0.311576
-0.316317
-0.301198
-0.305938
-0.290999
-0.295739
-0.281015
-0.285754
-0.271043
-0.275782
-0.261296
-0.266035
-0.251758
-0.256496
-0.242457
-0.247196
-0.233373
-0.238111
-0.224357
-0.229095
-0.215566
-0.220304
-0.207031
-0.211769
-0.198552
-0.203289
-0.190338
-0.195075
-0.182357
-0.187094
-0.17448
-0.179217
-0.166837
-0.171574
-0.159475
-0.164211
-0.15218
-0.156916
-0.145174
-0.14991
-0.138392
-0.143128
-0.131751
-0.136486
-0.125323
-0.130059
-0.11905
-0.123785
-0.112983
-0.117718
-0.107227
-0.111962
-0.101518
-0.106253
-0.095989
-0.100724
-0.0907763
-0.0955107
-0.085617
-0.0903513
-0.0807567
-0.085491
-0.0759575
-0.0806917
-0.0714514
-0.0761855
-0.0670009
-0.0717348
-0.0628485
-0.0675822
-0.0588509
-0.0635845
-0.0549297
-0.0596632
-0.0512542
-0.0559876
-0.0476736
-0.0524069
-0.0443141
-0.0490473
-0.0410588
-0.045792
-0.0380065
-0.0427395
-0.0350608
-0.0397938
-0.0322142
-0.0369471
-0.0295674
-0.0343002
-0.027094
-0.0318268
-0.0247281
-0.0294608
-0.0224425
-0.0271752
-0.020271
-0.0250035
-0.0183174
-0.02305
-0.0164003
-0.0211328
-0.0146217
-0.0193542
-0.0129411
-0.0176735
-0.0113948
-0.0161272
-0.00993068
-0.014663
-0.00854735
-0.0132796
-0.00728406
-0.0120163
-0.00610418
-0.0108364
-0.00502384
-0.00975599
-0.00398627
-0.00871839
-0.00307491
-0.00780705
-0.00220567
-0.00693777
-0.00141427
-0.00614634
-0.000695007
-0.00542706
-4.57248e-05
-0.00477775
0.000542821
-0.00418918
0.00109242
-0.00363957
0.00158719
-0.00314479
0.00202335
-0.00270861
0.00241454
-0.00231739
0.00277071
-0.00196121
0.00307305
-0.00165886
0.00334551
-0.00138639
0.00358533
-0.00114657
0.0037885
-0.000943393
0.00396499
-0.000766882
0.00412027
-0.000611603
0.00425229
-0.000479574
0.00436051
-0.000371347
0.00445087
-0.000280974
0.00452735
-0.000204492
0.00458923
-0.000142618
0.00463733
-9.45033e-05
0.00467511
-5.67169e-05
0.00470502
-2.68012e-05
0.00472728
-4.54258e-06
0.00474302
1.11968e-05
0.00475404
2.22225e-05
0.00476163
2.98225e-05
0.00476636
3.45569e-05
0.00476901
3.72251e-05
0.00477036
3.85937e-05
0.00477096
3.9219e-05
0.00477117
3.94325e-05
0.00477123
3.9462e-05
)
;

boundaryField
{
    walls
    {
        type            zeroGradient;
    }
    inlet
    {
        type            cyclic;
    }
    outlet
    {
        type            cyclic;
    }
    sides
    {
        type            empty;
    }
}


// ************************************************************************* //
