/*--------------------------------*- C++ -*----------------------------------*\
| =========                 |                                                 |
| \\      /  F ield         | OpenFOAM: The Open Source CFD Toolbox           |
|  \\    /   O peration     | Version:  2106                                  |
|   \\  /    A nd           | Website:  www.openfoam.com                      |
|    \\/     M anipulation  |                                                 |
\*---------------------------------------------------------------------------*/
FoamFile
{
    version     2.0;
    format      ascii;
    arch        "LSB;label=32;scalar=64";
    class       volVectorField;
    location    "7000";
    object      U;
}
// * * * * * * * * * * * * * * * * * * * * * * * * * * * * * * * * * * * * * //

dimensions      [0 1 -1 0 0 0 0];

internalField   nonuniform List<vector> 
2560
(
(0.00372878 -8.56202e-16 -9.76644e-18)
(0.00372878 5.27296e-19 -1.78104e-21)
(0.0112397 -2.99263e-15 -2.1291e-17)
(0.0112397 -1.00172e-18 2.60954e-21)
(0.018859 -2.90705e-15 -2.27356e-17)
(0.018859 -6.7104e-19 3.33238e-21)
(0.0265879 -2.70172e-15 -2.38692e-17)
(0.0265879 -9.69752e-19 8.91695e-21)
(0.0344279 -2.72251e-15 -2.52559e-17)
(0.0344279 -1.27219e-18 1.53813e-20)
(0.0423806 -2.70135e-15 -2.68224e-17)
(0.0423806 -1.59158e-18 2.23082e-20)
(0.0504473 -2.70745e-15 -2.84859e-17)
(0.0504473 -1.9012e-18 2.9869e-20)
(0.0586295 -2.70803e-15 -3.02203e-17)
(0.0586295 -2.19672e-18 3.77745e-20)
(0.0669286 -2.70792e-15 -3.20205e-17)
(0.0669286 -2.48093e-18 4.69755e-20)
(0.0753458 -2.70792e-15 -3.38841e-17)
(0.0753458 -2.77319e-18 5.7098e-20)
(0.0838824 -2.70783e-15 -3.58094e-17)
(0.0838824 -3.07876e-18 6.83206e-20)
(0.0925394 -2.70762e-15 -3.77956e-17)
(0.0925394 -3.41236e-18 7.96783e-20)
(0.101318 -2.70737e-15 -3.9842e-17)
(0.101318 -3.76287e-18 9.2202e-20)
(0.110217 -2.70714e-15 -4.19478e-17)
(0.110217 -4.03292e-18 1.06196e-19)
(0.119238 -2.70691e-15 -4.41109e-17)
(0.119238 -4.33932e-18 1.20305e-19)
(0.12838 -2.7066e-15 -4.63287e-17)
(0.12838 -4.74137e-18 1.3406e-19)
(0.137641 -2.70627e-15 -4.85964e-17)
(0.137641 -5.10748e-18 1.51684e-19)
(0.147018 -2.70599e-15 -5.09088e-17)
(0.147018 -5.51491e-18 1.70709e-19)
(0.156509 -2.70575e-15 -5.3258e-17)
(0.156509 -5.90754e-18 1.91238e-19)
(0.166107 -2.70555e-15 -5.56351e-17)
(0.166107 -6.33097e-18 2.12465e-19)
(0.175807 -2.70525e-15 -5.80286e-17)
(0.175807 -6.78074e-18 2.33898e-19)
(0.185601 -2.70502e-15 -6.04246e-17)
(0.185601 -7.10599e-18 2.57221e-19)
(0.195478 -2.70497e-15 -6.28083e-17)
(0.195478 -7.33312e-18 2.85315e-19)
(0.205426 -2.70489e-15 -6.51626e-17)
(0.205426 -7.75353e-18 3.11953e-19)
(0.215431 -2.70468e-15 -6.74698e-17)
(0.215431 -8.19309e-18 3.43387e-19)
(0.225477 -2.7046e-15 -6.97109e-17)
(0.225477 -8.59357e-18 3.72961e-19)
(0.235548 -2.7045e-15 -7.18679e-17)
(0.235548 -9.15085e-18 3.98417e-19)
(0.245625 -2.70435e-15 -7.39239e-17)
(0.245625 -9.55732e-18 4.2656e-19)
(0.255688 -2.70416e-15 -7.5864e-17)
(0.255688 -9.81269e-18 4.57832e-19)
(0.265716 -2.70392e-15 -7.7675e-17)
(0.265716 -1.01361e-17 4.97207e-19)
(0.27569 -2.70371e-15 -7.9348e-17)
(0.27569 -1.04343e-17 5.40985e-19)
(0.28559 -2.70345e-15 -8.08765e-17)
(0.28559 -1.08277e-17 5.80647e-19)
(0.295397 -2.70333e-15 -8.22596e-17)
(0.295397 -1.10612e-17 6.16878e-19)
(0.305094 -2.70335e-15 -8.34993e-17)
(0.305094 -1.11299e-17 6.52313e-19)
(0.314665 -2.70326e-15 -8.46e-17)
(0.314665 -1.15585e-17 6.86593e-19)
(0.324096 -2.70311e-15 -8.55688e-17)
(0.324096 -1.2158e-17 7.31729e-19)
(0.333376 -2.70329e-15 -8.6415e-17)
(0.333376 -1.23649e-17 7.85141e-19)
(0.342494 -2.70365e-15 -8.71526e-17)
(0.342494 -1.23312e-17 8.31099e-19)
(0.351443 -2.70385e-15 -8.77934e-17)
(0.351443 -1.24905e-17 8.81938e-19)
(0.360217 -2.70391e-15 -8.83495e-17)
(0.360217 -1.27025e-17 9.25316e-19)
(0.368812 -2.70407e-15 -8.88342e-17)
(0.368812 -1.30161e-17 9.6644e-19)
(0.377226 -2.70439e-15 -8.92588e-17)
(0.377226 -1.29881e-17 1.01416e-18)
(0.385459 -2.70461e-15 -8.96367e-17)
(0.385459 -1.32356e-17 1.05973e-18)
(0.393509 -2.70457e-15 -8.99784e-17)
(0.393509 -1.37779e-17 1.11706e-18)
(0.40138 -2.7045e-15 -9.02938e-17)
(0.40138 -1.40857e-17 1.17403e-18)
(0.409074 -2.70454e-15 -9.05917e-17)
(0.409074 -1.45385e-17 1.21521e-18)
(0.416593 -2.70476e-15 -9.08811e-17)
(0.416593 -1.48076e-17 1.25911e-18)
(0.423941 -2.70519e-15 -9.1169e-17)
(0.423941 -1.51542e-17 1.31121e-18)
(0.431123 -2.70549e-15 -9.14606e-17)
(0.431123 -1.56399e-17 1.36804e-18)
(0.438144 -2.70581e-15 -9.17612e-17)
(0.438144 -1.61858e-17 1.41602e-18)
(0.445007 -2.70602e-15 -9.20785e-17)
(0.445007 -1.67461e-17 1.47249e-18)
(0.451718 -2.70577e-15 -9.24139e-17)
(0.451718 -1.75098e-17 1.53652e-18)
(0.458282 -2.70559e-15 -9.27705e-17)
(0.458282 -1.81262e-17 1.59284e-18)
(0.464703 -2.70557e-15 -9.3152e-17)
(0.464703 -1.86572e-17 1.65094e-18)
(0.470987 -2.70563e-15 -9.35603e-17)
(0.470987 -1.9576e-17 1.69784e-18)
(0.477139 -2.70546e-15 -9.39988e-17)
(0.477139 -2.00567e-17 1.75053e-18)
(0.483163 -2.70517e-15 -9.44715e-17)
(0.483163 -2.04849e-17 1.81805e-18)
(0.489064 -2.70558e-15 -9.49838e-17)
(0.489064 -2.09927e-17 1.89844e-18)
(0.494847 -2.70585e-15 -9.55376e-17)
(0.494847 -2.09379e-17 1.96415e-18)
(0.500516 -2.70569e-15 -9.58778e-17)
(0.500516 -2.13859e-17 2.02085e-18)
(0.506075 -2.70552e-15 -9.52884e-17)
(0.506075 -2.23453e-17 2.06156e-18)
(0.511528 -2.70532e-15 -9.47234e-17)
(0.511528 -2.2877e-17 2.13982e-18)
(0.51688 -2.7054e-15 -9.42087e-17)
(0.51688 -2.42585e-17 2.21601e-18)
(0.522135 -2.70608e-15 -9.37187e-17)
(0.522135 -2.40487e-17 2.28568e-18)
(0.527295 -2.70731e-15 -9.32779e-17)
(0.527295 -2.34391e-17 2.36455e-18)
(0.532365 -2.7084e-15 -9.28556e-17)
(0.532365 -2.32977e-17 2.47832e-18)
(0.537347 -2.70975e-15 -9.24666e-17)
(0.537347 -2.20023e-17 2.59626e-18)
(0.542246 -2.71103e-15 -9.21198e-17)
(0.542246 -2.15266e-17 2.67685e-18)
(0.547063 -2.71183e-15 -9.17677e-17)
(0.547063 -2.12645e-17 2.76052e-18)
(0.551803 -2.71226e-15 -9.15333e-17)
(0.551803 -2.05547e-17 2.85469e-18)
(0.556467 -2.71208e-15 -9.12785e-17)
(0.556467 -2.00792e-17 2.95966e-18)
(0.56106 -2.71253e-15 -9.10474e-17)
(0.56106 -2.04208e-17 3.07241e-18)
(0.565582 -2.71377e-15 -9.08338e-17)
(0.565582 -1.9282e-17 3.18862e-18)
(0.570037 -2.71462e-15 -9.06706e-17)
(0.570037 -1.90918e-17 3.26022e-18)
(0.574426 -2.71499e-15 -9.05195e-17)
(0.574426 -1.95955e-17 3.33012e-18)
(0.578753 -2.71482e-15 -9.04121e-17)
(0.578753 -2.04343e-17 3.39837e-18)
(0.58302 -2.71485e-15 -9.02898e-17)
(0.58302 -2.04205e-17 3.46019e-18)
(0.587227 -2.71585e-15 -9.02068e-17)
(0.587227 -1.99889e-17 3.50822e-18)
(0.591379 -2.71669e-15 -9.01341e-17)
(0.591379 -2.02638e-17 3.54545e-18)
(0.595475 -2.71666e-15 -9.01359e-17)
(0.595475 -2.07068e-17 3.6117e-18)
(0.599518 -2.71617e-15 -9.01289e-17)
(0.599518 -2.12092e-17 3.68226e-18)
(0.60351 -2.71602e-15 -9.00906e-17)
(0.60351 -2.21809e-17 3.73851e-18)
(0.607453 -2.71613e-15 -9.01508e-17)
(0.607453 -2.22934e-17 3.7747e-18)
(0.611347 -2.71577e-15 -9.02192e-17)
(0.611347 -2.26918e-17 3.86373e-18)
(0.615195 -2.71515e-15 -9.02951e-17)
(0.615195 -2.46298e-17 3.96068e-18)
(0.618998 -2.71435e-15 -9.03923e-17)
(0.618998 -2.55012e-17 4.03133e-18)
(0.622758 -2.7139e-15 -9.05359e-17)
(0.622758 -2.63558e-17 4.10016e-18)
(0.626474 -2.71457e-15 -9.0694e-17)
(0.626474 -2.65259e-17 4.12739e-18)
(0.63015 -2.71513e-15 -9.09313e-17)
(0.63015 -2.6278e-17 4.15291e-18)
(0.633786 -2.71453e-15 -9.11555e-17)
(0.633786 -2.7851e-17 4.2332e-18)
(0.637383 -2.71322e-15 -9.14463e-17)
(0.637383 -2.9563e-17 4.27327e-18)
(0.640943 -2.71172e-15 -9.17683e-17)
(0.640943 -3.11174e-17 4.32375e-18)
(0.644466 -2.7117e-15 -9.20097e-17)
(0.644466 -3.18512e-17 4.42346e-18)
(0.647954 -2.71297e-15 -9.23444e-17)
(0.647954 -3.26476e-17 4.43997e-18)
(0.651407 -2.71354e-15 -9.27165e-17)
(0.651407 -3.47407e-17 4.48805e-18)
(0.654827 -2.71342e-15 -9.31178e-17)
(0.654827 -3.69417e-17 4.53834e-18)
(0.658214 -2.71201e-15 -9.35335e-17)
(0.658214 -3.84754e-17 4.65978e-18)
(0.661569 -2.71011e-15 -9.41045e-17)
(0.661569 -4.15474e-17 4.72234e-18)
(0.664893 -2.70863e-15 -9.46153e-17)
(0.664893 -4.50426e-17 4.78138e-18)
(0.668188 -2.70763e-15 -9.5099e-17)
(0.668188 -4.76249e-17 4.79111e-18)
(0.671453 -2.70606e-15 -9.56807e-17)
(0.671453 -5.06208e-17 4.85211e-18)
(0.67469 -2.70244e-15 -9.6405e-17)
(0.67469 -5.54903e-17 4.95329e-18)
(0.677899 -2.69968e-15 -9.69741e-17)
(0.677899 -5.98372e-17 5.04529e-18)
(0.681081 -2.69821e-15 -9.76418e-17)
(0.681081 -6.12706e-17 5.11744e-18)
(0.684236 -2.69633e-15 -9.84313e-17)
(0.684236 -6.58347e-17 5.14783e-18)
(0.687366 -2.6935e-15 -9.92045e-17)
(0.687366 -7.00769e-17 5.21666e-18)
(0.690471 -2.68993e-15 -9.99221e-17)
(0.690471 -7.32052e-17 5.26425e-18)
(0.693551 -2.68664e-15 -1.0074e-16)
(0.693551 -7.92162e-17 5.31912e-18)
(0.696607 -2.68467e-15 -1.01666e-16)
(0.696607 -8.28117e-17 5.3668e-18)
(0.69964 -2.68348e-15 -1.02625e-16)
(0.69964 -8.41423e-17 5.36174e-18)
(0.702651 -2.6821e-15 -1.0366e-16)
(0.702651 -8.64707e-17 5.34766e-18)
(0.705638 -2.68026e-15 -1.04799e-16)
(0.705638 -8.83884e-17 5.31255e-18)
(0.708605 -2.68119e-15 -1.05801e-16)
(0.708605 -9.06492e-17 5.23978e-18)
(0.71155 -2.67989e-15 -1.07e-16)
(0.71155 -9.21519e-17 5.1438e-18)
(0.714474 -2.67509e-15 -1.08259e-16)
(0.714474 -9.53304e-17 5.10889e-18)
(0.717378 -2.67248e-15 -1.09742e-16)
(0.717378 -9.97223e-17 5.03897e-18)
(0.720262 -2.66931e-15 -1.11116e-16)
(0.720262 -1.02399e-16 5.02455e-18)
(0.723127 -2.66483e-15 -1.12695e-16)
(0.723127 -1.06206e-16 4.94092e-18)
(0.725972 -2.65991e-15 -1.14143e-16)
(0.725972 -1.10012e-16 4.95723e-18)
(0.728799 -2.65531e-15 -1.15635e-16)
(0.728799 -1.1377e-16 4.95139e-18)
(0.731608 -2.65053e-15 -1.17369e-16)
(0.731608 -1.17459e-16 4.86936e-18)
(0.734399 -2.64579e-15 -1.19074e-16)
(0.734399 -1.22298e-16 4.93255e-18)
(0.737173 -2.63988e-15 -1.20813e-16)
(0.737173 -1.27483e-16 5.00165e-18)
(0.739929 -2.63395e-15 -1.22605e-16)
(0.739929 -1.32529e-16 4.34846e-18)
(0.742669 -2.63078e-15 -1.2456e-16)
(0.742669 -1.36191e-16 7.1687e-19)
(0.745393 -2.62735e-15 -1.2655e-16)
(0.745393 -1.38739e-16 -2.76591e-18)
(0.7481 -2.62384e-15 -1.28751e-16)
(0.7481 -1.41808e-16 -6.51123e-18)
(0.750791 -2.61929e-15 -1.30849e-16)
(0.750791 -1.44873e-16 -1.043e-17)
(0.753467 -2.61241e-15 -1.33229e-16)
(0.753467 -1.50007e-16 -1.44452e-17)
(0.756128 -2.60606e-15 -1.35644e-16)
(0.756128 -1.54451e-16 -1.85936e-17)
(0.758774 -2.60133e-15 -1.38089e-16)
(0.758774 -1.57816e-16 -2.2343e-17)
(0.761405 -2.59679e-15 -1.40465e-16)
(0.761405 -1.62497e-16 -2.61921e-17)
(0.764022 -2.59146e-15 -1.43212e-16)
(0.764022 -1.68541e-16 -3.07117e-17)
(0.766625 -2.58638e-15 -1.46038e-16)
(0.766625 -1.72343e-16 -3.52493e-17)
(0.769215 -2.58155e-15 -1.49126e-16)
(0.769215 -1.75876e-16 -3.95095e-17)
(0.77179 -2.5779e-15 -1.51961e-16)
(0.77179 -1.8044e-16 -4.39554e-17)
(0.774353 -2.57412e-15 -1.55376e-16)
(0.774353 -1.86577e-16 -4.88739e-17)
(0.776902 -2.57065e-15 -1.58237e-16)
(0.776902 -1.91361e-16 -5.32965e-17)
(0.779438 -2.56729e-15 -1.61521e-16)
(0.779438 -1.96356e-16 -5.77924e-17)
(0.781962 -2.56065e-15 -1.65155e-16)
(0.781962 -2.06078e-16 -6.26966e-17)
(0.784473 -2.55451e-15 -1.68457e-16)
(0.784473 -2.11066e-16 -6.80645e-17)
(0.786972 -2.5479e-15 -1.72027e-16)
(0.786972 -2.13267e-16 -7.29035e-17)
(0.78946 -2.53977e-15 -1.75877e-16)
(0.78946 -2.22838e-16 -7.79385e-17)
(0.791935 -2.53202e-15 -1.79633e-16)
(0.791935 -2.31442e-16 -8.34271e-17)
(0.794399 -2.52513e-15 -1.83461e-16)
(0.794399 -2.35431e-16 -8.8965e-17)
(0.796851 -2.51733e-15 -1.87301e-16)
(0.796851 -2.45029e-16 -9.43332e-17)
(0.799292 -2.50712e-15 -1.91486e-16)
(0.799292 -2.52902e-16 -1.0043e-16)
(0.801722 -2.49799e-15 -1.95867e-16)
(0.801722 -2.60426e-16 -1.06383e-16)
(0.804141 -2.49104e-15 -2.00169e-16)
(0.804141 -2.68509e-16 -1.1254e-16)
(0.80655 -2.48367e-15 -2.04633e-16)
(0.80655 -2.77099e-16 -1.18881e-16)
(0.808948 -2.47439e-15 -2.09007e-16)
(0.808948 -2.87368e-16 -1.25362e-16)
(0.811336 -2.4641e-15 -2.13705e-16)
(0.811336 -2.93135e-16 -1.31706e-16)
(0.813713 -2.45325e-15 -2.18735e-16)
(0.813713 -3.02603e-16 -1.38277e-16)
(0.81608 -2.44136e-15 -2.24343e-16)
(0.81608 -3.12662e-16 -1.45296e-16)
(0.818438 -2.42815e-15 -2.29584e-16)
(0.818438 -3.20772e-16 -1.5242e-16)
(0.820785 -2.41842e-15 -2.34694e-16)
(0.820785 -3.31481e-16 -1.60312e-16)
(0.823123 -2.41063e-15 -2.39631e-16)
(0.823123 -3.39157e-16 -1.68248e-16)
(0.825452 -2.39992e-15 -2.45108e-16)
(0.825452 -3.45992e-16 -1.75077e-16)
(0.827771 -2.38513e-15 -2.51082e-16)
(0.827771 -3.58026e-16 -1.82389e-16)
(0.830081 -2.36902e-15 -2.56866e-16)
(0.830081 -3.70626e-16 -1.90985e-16)
(0.832382 -2.35299e-15 -2.63039e-16)
(0.832382 -3.78206e-16 -1.99335e-16)
(0.834673 -2.33787e-15 -2.67888e-16)
(0.834673 -3.89229e-16 -2.07177e-16)
(0.836956 -2.32615e-15 -2.73309e-16)
(0.836956 -4.01666e-16 -2.15598e-16)
(0.839231 -2.31365e-15 -2.79846e-16)
(0.839231 -4.14512e-16 -2.24773e-16)
(0.841496 -2.30372e-15 -2.85417e-16)
(0.841496 -4.25339e-16 -2.32938e-16)
(0.843753 -2.29371e-15 -2.91652e-16)
(0.843753 -4.34187e-16 -2.42657e-16)
(0.846002 -2.28232e-15 -2.98573e-16)
(0.846002 -4.44195e-16 -2.51924e-16)
(0.848242 -2.26768e-15 -3.04387e-16)
(0.848242 -4.54844e-16 -2.60939e-16)
(0.850475 -2.2503e-15 -3.10882e-16)
(0.850475 -4.67451e-16 -2.70931e-16)
(0.852699 -2.23707e-15 -3.17487e-16)
(0.852699 -4.79316e-16 -2.80434e-16)
(0.854915 -2.22194e-15 -3.23872e-16)
(0.854915 -4.91796e-16 -2.89653e-16)
(0.857123 -2.20442e-15 -3.30961e-16)
(0.857123 -5.00988e-16 -2.99872e-16)
(0.859324 -2.19117e-15 -3.38516e-16)
(0.859324 -5.11647e-16 -3.11258e-16)
(0.861517 -2.17584e-15 -3.45122e-16)
(0.861517 -5.25076e-16 -3.21166e-16)
(0.863702 -2.15683e-15 -3.52987e-16)
(0.863702 -5.35807e-16 -3.31976e-16)
(0.86588 -2.14009e-15 -3.60218e-16)
(0.86588 -5.43484e-16 -3.43533e-16)
(0.86805 -2.12169e-15 -3.67733e-16)
(0.86805 -5.60045e-16 -3.54993e-16)
(0.870213 -2.10476e-15 -3.75898e-16)
(0.870213 -5.75094e-16 -3.66129e-16)
(0.872368 -2.09246e-15 -3.83487e-16)
(0.872368 -5.81414e-16 -3.76844e-16)
(0.874517 -2.08359e-15 -3.92044e-16)
(0.874517 -5.87195e-16 -3.88789e-16)
(0.876658 -2.07404e-15 -4.01098e-16)
(0.876658 -5.91725e-16 -4.01637e-16)
(0.878792 -2.06592e-15 -4.09144e-16)
(0.878792 -5.96581e-16 -4.14208e-16)
(0.88092 -2.0613e-15 -4.1667e-16)
(0.88092 -5.99727e-16 -4.27575e-16)
(0.88304 -2.05013e-15 -4.25907e-16)
(0.88304 -6.04559e-16 -4.39109e-16)
(0.885154 -2.03671e-15 -4.34888e-16)
(0.885154 -6.12083e-16 -4.38866e-16)
(0.887261 -2.02607e-15 -4.43955e-16)
(0.887261 -6.17409e-16 -4.39179e-16)
(0.889361 -2.01705e-15 -4.52757e-16)
(0.889361 -6.23378e-16 -4.39025e-16)
(0.891454 -2.00978e-15 -4.62295e-16)
(0.891454 -6.29624e-16 -4.3844e-16)
(0.893541 -2.0013e-15 -4.72422e-16)
(0.893541 -6.29979e-16 -4.37606e-16)
(0.895622 -1.99462e-15 -4.82172e-16)
(0.895622 -6.26792e-16 -4.3695e-16)
(0.897696 -1.98362e-15 -4.92537e-16)
(0.897696 -6.29411e-16 -4.37127e-16)
(0.899763 -1.96972e-15 -5.03408e-16)
(0.899763 -6.34599e-16 -4.36256e-16)
(0.901825 -1.9571e-15 -5.12921e-16)
(0.901825 -6.35931e-16 -4.35249e-16)
(0.90388 -1.9421e-15 -5.2365e-16)
(0.90388 -6.37616e-16 -4.33598e-16)
(0.905928 -1.92794e-15 -5.35015e-16)
(0.905928 -6.4323e-16 -4.32888e-16)
(0.907971 -1.91479e-15 -5.4679e-16)
(0.907971 -6.54884e-16 -4.32591e-16)
(0.910007 -1.89899e-15 -5.58355e-16)
(0.910007 -6.53083e-16 -4.29373e-16)
(0.912038 -1.88194e-15 -5.68779e-16)
(0.912038 -6.54589e-16 -4.26607e-16)
(0.914062 -1.86789e-15 -5.81105e-16)
(0.914062 -6.70098e-16 -4.25685e-16)
(0.916081 -1.85228e-15 -5.92302e-16)
(0.916081 -6.71591e-16 -4.25305e-16)
(0.918093 -1.82986e-15 -6.0625e-16)
(0.918093 -6.77564e-16 -4.21999e-16)
(0.9201 -1.80272e-15 -6.06751e-16)
(0.9201 -6.87381e-16 -4.20952e-16)
(0.9221 -1.78258e-15 -6.02691e-16)
(0.9221 -6.97969e-16 -4.2059e-16)
(0.924095 -1.76979e-15 -5.98655e-16)
(0.924095 -7.07126e-16 -4.18537e-16)
(0.926084 -1.75493e-15 -5.93508e-16)
(0.926084 -7.14782e-16 -4.17767e-16)
(0.928068 -1.73804e-15 -5.8919e-16)
(0.928068 -7.29329e-16 -4.15625e-16)
(0.930045 -1.72702e-15 -5.85181e-16)
(0.930045 -7.46213e-16 -4.13596e-16)
(0.932017 -1.70852e-15 -5.7842e-16)
(0.932017 -7.59054e-16 -4.10999e-16)
(0.933984 -1.68749e-15 -5.73602e-16)
(0.933984 -7.6742e-16 -4.06965e-16)
(0.935944 -1.68006e-15 -5.68558e-16)
(0.935944 -7.8307e-16 -4.02854e-16)
(0.937899 -1.66809e-15 -5.64763e-16)
(0.937899 -7.96997e-16 -3.96868e-16)
(0.939849 -1.65326e-15 -5.59679e-16)
(0.939849 -8.12009e-16 -3.93303e-16)
(0.941793 -1.63843e-15 -5.49514e-16)
(0.941793 -8.22667e-16 -3.90532e-16)
(0.943731 -1.62188e-15 -5.40135e-16)
(0.943731 -8.32384e-16 -3.81791e-16)
(0.945664 -1.60738e-15 -5.33366e-16)
(0.945664 -8.45497e-16 -3.74246e-16)
(0.947591 -1.593e-15 -5.28799e-16)
(0.947591 -8.56186e-16 -3.685e-16)
(0.949513 -1.57796e-15 -5.21878e-16)
(0.949513 -8.71309e-16 -3.66786e-16)
(0.95143 -1.56534e-15 -5.1248e-16)
(0.95143 -8.9178e-16 -3.63546e-16)
(0.953341 -1.55945e-15 -5.03825e-16)
(0.953341 -8.98391e-16 -3.5638e-16)
(0.955247 -1.55154e-15 -4.98024e-16)
(0.955247 -9.04813e-16 -3.48654e-16)
(0.957147 -1.53658e-15 -4.87082e-16)
(0.957147 -9.27992e-16 -3.46073e-16)
(0.959042 -1.52652e-15 -4.75385e-16)
(0.959042 -9.37733e-16 -3.37714e-16)
(0.960932 -1.51518e-15 -4.6452e-16)
(0.960932 -9.41418e-16 -3.2773e-16)
(0.962816 -1.49886e-15 -4.56634e-16)
(0.962816 -9.54931e-16 -3.18893e-16)
(0.964694 -1.47931e-15 -4.4702e-16)
(0.964694 -9.6759e-16 -3.20461e-16)
(0.966568 -1.45893e-15 -4.37774e-16)
(0.966568 -9.71398e-16 -3.24723e-16)
(0.968436 -1.44413e-15 -4.29463e-16)
(0.968436 -9.78724e-16 -3.2369e-16)
(0.970299 -1.43634e-15 -4.21414e-16)
(0.970299 -9.86537e-16 -3.2166e-16)
(0.972156 -1.42854e-15 -4.17846e-16)
(0.972156 -9.85147e-16 -3.24651e-16)
(0.974008 -1.41755e-15 -4.18773e-16)
(0.974008 -9.92907e-16 -3.33166e-16)
(0.975854 -1.41826e-15 -4.21511e-16)
(0.975854 -1.00905e-15 -3.32879e-16)
(0.977695 -1.41803e-15 -4.17754e-16)
(0.977695 -1.00405e-15 -3.33598e-16)
(0.979531 -1.40665e-15 -4.16614e-16)
(0.979531 -1.00094e-15 -3.35953e-16)
(0.981361 -1.39866e-15 -4.15751e-16)
(0.981361 -1.01283e-15 -3.42137e-16)
(0.983186 -1.38537e-15 -4.13369e-16)
(0.983186 -1.01124e-15 -3.44231e-16)
(0.985006 -1.36916e-15 -4.13059e-16)
(0.985006 -1.01252e-15 -3.44382e-16)
(0.98682 -1.35867e-15 -4.12445e-16)
(0.98682 -1.01223e-15 -3.43668e-16)
(0.988628 -1.35061e-15 -4.08792e-16)
(0.988628 -1.00701e-15 -3.47861e-16)
(0.990431 -1.34606e-15 -4.10347e-16)
(0.990431 -1.01152e-15 -3.57196e-16)
(0.992228 -1.3367e-15 -4.0713e-16)
(0.992228 -1.00588e-15 -3.64671e-16)
(0.99402 -1.32477e-15 -4.02914e-16)
(0.99402 -1.0089e-15 -3.68885e-16)
(0.995806 -1.31215e-15 -4.02685e-16)
(0.995806 -1.01542e-15 -3.74599e-16)
(0.997587 -1.30927e-15 -4.06634e-16)
(0.997587 -1.00475e-15 -3.75245e-16)
(0.999362 -1.31173e-15 -4.127e-16)
(0.999362 -9.90503e-16 -3.80014e-16)
(1.00113 -1.29353e-15 -4.16075e-16)
(1.00113 -9.87626e-16 -3.90262e-16)
(1.00289 -1.27511e-15 -4.20809e-16)
(1.00289 -1.01229e-15 -3.91848e-16)
(1.00465 -1.26184e-15 -4.09409e-16)
(1.00465 -1.04291e-15 -3.95744e-16)
(1.0064 -1.23617e-15 -4.20902e-16)
(1.0064 -1.05977e-15 -4.04994e-16)
(1.00815 -1.21907e-15 -4.32938e-16)
(1.00815 -1.06669e-15 -4.19669e-16)
(1.00989 -1.20666e-15 -4.41743e-16)
(1.00989 -1.08124e-15 -4.34086e-16)
(1.01162 -1.19798e-15 -4.30023e-16)
(1.01162 -1.08306e-15 -4.46991e-16)
(1.01335 -1.18308e-15 -4.24849e-16)
(1.01335 -1.07898e-15 -4.55799e-16)
(1.01507 -1.16455e-15 -4.33766e-16)
(1.01507 -1.08387e-15 -4.62834e-16)
(1.01678 -1.14496e-15 -4.38302e-16)
(1.01678 -1.08634e-15 -4.76599e-16)
(1.01849 -1.12833e-15 -4.59476e-16)
(1.01849 -1.07929e-15 -4.86394e-16)
(1.02019 -1.1185e-15 -4.62339e-16)
(1.02019 -1.0767e-15 -4.88785e-16)
(1.02189 -1.11114e-15 -4.78598e-16)
(1.02189 -1.06943e-15 -4.821e-16)
(1.02358 -1.10945e-15 -4.88673e-16)
(1.02358 -1.06943e-15 -4.92199e-16)
(1.02526 -1.0966e-15 -4.72919e-16)
(1.02526 -1.05747e-15 -4.92631e-16)
(1.02694 -1.1074e-15 -4.59025e-16)
(1.02694 -1.04801e-15 -4.95868e-16)
(1.0286 -1.08805e-15 -4.68172e-16)
(1.0286 -1.05519e-15 -4.97731e-16)
(1.03026 -1.07231e-15 -4.69898e-16)
(1.03026 -1.0601e-15 -4.8699e-16)
(1.03192 -1.05222e-15 -4.68988e-16)
(1.03192 -1.06227e-15 -4.75517e-16)
(1.03356 -1.0483e-15 -4.64102e-16)
(1.03356 -1.03733e-15 -4.73199e-16)
(1.0352 -1.03146e-15 -4.66476e-16)
(1.0352 -1.0209e-15 -4.6762e-16)
(1.03683 -1.01325e-15 -4.63572e-16)
(1.03683 -1.0084e-15 -4.7224e-16)
(1.03845 -9.86916e-16 -4.71752e-16)
(1.03845 -9.79776e-16 -4.74734e-16)
(1.04007 -9.95044e-16 -4.74031e-16)
(1.04007 -9.68144e-16 -4.81183e-16)
(1.04167 -9.52619e-16 -4.72192e-16)
(1.04167 -9.56983e-16 -4.73032e-16)
(1.04327 -9.30537e-16 -4.79095e-16)
(1.04327 -9.38319e-16 -4.64628e-16)
(1.04486 -9.20819e-16 -4.83927e-16)
(1.04486 -9.35441e-16 -4.67359e-16)
(1.04644 -9.09865e-16 -4.90247e-16)
(1.04644 -9.33632e-16 -4.67214e-16)
(1.04801 -9.37033e-16 -4.86793e-16)
(1.04801 -9.20687e-16 -4.34727e-16)
(1.04957 -9.32283e-16 -4.85061e-16)
(1.04957 -9.07694e-16 -4.13202e-16)
(1.05112 -9.17742e-16 -4.62905e-16)
(1.05112 -8.93958e-16 -4.26945e-16)
(1.05266 -8.91868e-16 -4.45933e-16)
(1.05266 -8.68877e-16 -4.0663e-16)
(1.05419 -8.8015e-16 -4.32656e-16)
(1.05419 -8.52827e-16 -4.34066e-16)
(1.05571 -8.66873e-16 -4.19941e-16)
(1.05571 -9.1228e-16 -4.35303e-16)
(1.05722 -8.55359e-16 -3.99764e-16)
(1.05722 -8.59898e-16 -4.21117e-16)
(1.05872 -8.45307e-16 -3.83012e-16)
(1.05872 -8.52789e-16 -3.71929e-16)
(1.06021 -8.26561e-16 -3.85733e-16)
(1.06021 -8.35716e-16 -3.34924e-16)
(1.06168 -8.20316e-16 -3.81817e-16)
(1.06168 -8.30189e-16 -3.42613e-16)
(1.06314 -8.1032e-16 -3.82872e-16)
(1.06314 -8.33872e-16 -3.60636e-16)
(1.06459 -8.25395e-16 -3.8027e-16)
(1.06459 -8.0697e-16 -3.45873e-16)
(1.06602 -8.29212e-16 -3.73554e-16)
(1.06602 -7.6124e-16 -3.28404e-16)
(1.06744 -8.27839e-16 -3.73406e-16)
(1.06744 -7.67698e-16 -3.36394e-16)
(1.06885 -8.09802e-16 -3.68967e-16)
(1.06885 -7.98776e-16 -3.52535e-16)
(1.07024 -7.91207e-16 -3.62499e-16)
(1.07024 -7.94924e-16 -3.67185e-16)
(1.07162 -7.87953e-16 -3.52398e-16)
(1.07162 -7.53042e-16 -3.53895e-16)
(1.07297 -7.76694e-16 -3.11667e-16)
(1.07297 -7.70592e-16 -3.57184e-16)
(1.07431 -7.55638e-16 -2.96937e-16)
(1.07431 -7.36218e-16 -3.98171e-16)
(1.07564 -7.30807e-16 -2.89338e-16)
(1.07564 -7.29271e-16 -4.15387e-16)
(1.07694 -6.90629e-16 -2.99563e-16)
(1.07694 -7.01609e-16 -4.23551e-16)
(1.07823 -6.51776e-16 -3.1512e-16)
(1.07823 -7.0918e-16 -3.97358e-16)
(1.07949 -6.16106e-16 -3.29385e-16)
(1.07949 -6.7889e-16 -3.27518e-16)
(1.08073 -6.065e-16 -3.14596e-16)
(1.08073 -6.60287e-16 -2.92165e-16)
(1.08195 -5.82172e-16 -3.00707e-16)
(1.08195 -6.43302e-16 -2.84062e-16)
(1.08315 -5.83867e-16 -3.22925e-16)
(1.08315 -5.61744e-16 -2.25465e-16)
(1.08432 -5.65511e-16 -2.95761e-16)
(1.08432 -5.45236e-16 -2.13539e-16)
(1.08546 -5.35163e-16 -2.98752e-16)
(1.08546 -5.51317e-16 -2.37882e-16)
(1.08658 -4.84478e-16 -3.04052e-16)
(1.08658 -4.83453e-16 -2.50413e-16)
(1.08766 -4.88437e-16 -2.68969e-16)
(1.08766 -4.68852e-16 -2.25085e-16)
(1.08872 -4.79265e-16 -1.96229e-16)
(1.08872 -4.63962e-16 -2.21901e-16)
(1.08974 -4.2815e-16 -1.92937e-16)
(1.08974 -4.18016e-16 -2.31238e-16)
(1.09072 -4.2473e-16 -2.2101e-16)
(1.09072 -4.42336e-16 -2.57789e-16)
(1.09167 -4.62454e-16 -2.22826e-16)
(1.09167 -4.72174e-16 -2.1075e-16)
(1.09258 -4.26418e-16 -2.06156e-16)
(1.09258 -4.50571e-16 -1.69939e-16)
(1.09345 -3.95118e-16 -1.94939e-16)
(1.09345 -3.85452e-16 -1.74253e-16)
(1.09427 -3.44107e-16 -1.92056e-16)
(1.09427 -3.47225e-16 -2.12655e-16)
(1.09504 -3.31909e-16 -1.54151e-16)
(1.09504 -3.14492e-16 -1.85953e-16)
(1.09576 -3.63361e-16 -1.09921e-16)
(1.09576 -2.90766e-16 -1.91531e-16)
(1.09643 -3.6097e-16 -1.0507e-16)
(1.09643 -3.34921e-16 -2.13761e-16)
(1.09704 -3.13287e-16 -1.08024e-16)
(1.09704 -3.47803e-16 -1.36341e-16)
(1.09759 -3.54263e-16 -9.90796e-17)
(1.09759 -3.07067e-16 -1.48306e-16)
(1.09807 -3.51482e-16 -1.03206e-16)
(1.09807 -2.99448e-16 -1.30551e-16)
(1.09849 -3.04183e-16 -5.76881e-17)
(1.09849 -3.00054e-16 -1.78381e-16)
(1.09882 -2.97176e-16 -7.1739e-17)
(1.09882 -3.36331e-16 -2.39228e-16)
(1.09908 -2.77747e-16 -5.5727e-17)
(1.09908 -3.12705e-16 -2.59286e-16)
(1.09926 -2.89954e-16 -6.69435e-17)
(1.09926 -3.05774e-16 -2.65809e-16)
(1.09935 -2.87413e-16 -6.36704e-17)
(1.09935 -2.69079e-16 -2.77702e-16)
(0.00372878 3.18562e-19 1.33164e-21)
(0.00372878 2.27538e-19 2.28498e-17)
(0.0112397 -4.60809e-19 1.22576e-21)
(0.0112397 -1.0895e-19 4.02603e-17)
(0.018859 -2.10322e-19 1.91704e-21)
(0.018859 1.52918e-19 4.14454e-17)
(0.0265879 -3.05465e-19 5.78281e-22)
(0.0265879 2.37877e-19 4.26697e-17)
(0.0344279 -3.92125e-19 -1.40677e-21)
(0.0344279 3.25252e-19 4.39348e-17)
(0.0423806 -4.67841e-19 -3.48395e-21)
(0.0423806 4.10105e-19 4.52424e-17)
(0.0504473 -5.5216e-19 -5.54294e-21)
(0.0504473 4.98149e-19 4.65939e-17)
(0.0586295 -6.46634e-19 -7.80625e-21)
(0.0586295 6.46701e-19 4.79908e-17)
(0.0669286 -7.21824e-19 -9.72521e-21)
(0.0669286 7.45188e-19 4.9434e-17)
(0.0753458 -7.93694e-19 -1.21712e-20)
(0.0753458 8.13298e-19 5.09245e-17)
(0.0838824 -8.80128e-19 -1.49473e-20)
(0.0838824 9.34406e-19 5.24632e-17)
(0.0925394 -9.74058e-19 -1.76167e-20)
(0.0925394 1.05161e-18 5.405e-17)
(0.101318 -1.07207e-18 -2.04876e-20)
(0.101318 1.17301e-18 5.56846e-17)
(0.110217 -1.15265e-18 -2.4023e-20)
(0.110217 1.28573e-18 5.73658e-17)
(0.119238 -1.21893e-18 -2.76778e-20)
(0.119238 1.40976e-18 5.90914e-17)
(0.12838 -1.24962e-18 -3.34365e-20)
(0.12838 1.56875e-18 6.08583e-17)
(0.137641 -1.22834e-18 -3.85595e-20)
(0.137641 1.75033e-18 6.26622e-17)
(0.147018 -1.27934e-18 -4.26648e-20)
(0.147018 1.90011e-18 6.44964e-17)
(0.156509 -1.38362e-18 -4.78479e-20)
(0.156509 2.167e-18 6.63531e-17)
(0.166107 -1.43276e-18 -5.22981e-20)
(0.166107 2.40148e-18 6.82222e-17)
(0.175807 -1.46941e-18 -5.95188e-20)
(0.175807 2.52599e-18 7.0092e-17)
(0.185601 -1.50087e-18 -6.7023e-20)
(0.185601 2.74976e-18 7.19486e-17)
(0.195478 -1.38569e-18 -7.60202e-20)
(0.195478 2.99892e-18 7.37762e-17)
(0.205426 -1.4205e-18 -8.09535e-20)
(0.205426 3.26735e-18 7.55573e-17)
(0.215431 -1.50401e-18 -8.82255e-20)
(0.215431 3.4589e-18 7.72747e-17)
(0.225477 -1.49113e-18 -1.01069e-19)
(0.225477 3.68678e-18 7.89105e-17)
(0.235548 -1.61601e-18 -1.12155e-19)
(0.235548 3.82461e-18 8.04485e-17)
(0.245625 -1.74126e-18 -1.1907e-19)
(0.245625 4.02291e-18 8.18744e-17)
(0.255688 -1.77216e-18 -1.287e-19)
(0.255688 4.33634e-18 8.31745e-17)
(0.265716 -1.80554e-18 -1.41778e-19)
(0.265716 4.50765e-18 8.43387e-17)
(0.27569 -1.86742e-18 -1.56941e-19)
(0.27569 4.68862e-18 8.53604e-17)
(0.28559 -1.8197e-18 -1.6753e-19)
(0.28559 5.11677e-18 8.62386e-17)
(0.295397 -1.73635e-18 -1.76352e-19)
(0.295397 5.53447e-18 8.69758e-17)
(0.305094 -1.61935e-18 -1.94132e-19)
(0.305094 5.56406e-18 8.75768e-17)
(0.314665 -1.51969e-18 -2.11215e-19)
(0.314665 5.81863e-18 8.80512e-17)
(0.324096 -1.43236e-18 -2.82534e-19)
(0.324096 6.07729e-18 8.84119e-17)
(0.333376 -1.41495e-18 -4.7385e-19)
(0.333376 6.34807e-18 8.8672e-17)
(0.342494 -1.47575e-18 -6.68712e-19)
(0.342494 6.67229e-18 8.88447e-17)
(0.351443 -1.44328e-18 -8.57282e-19)
(0.351443 6.96502e-18 8.89444e-17)
(0.360217 -1.44189e-18 -1.04618e-18)
(0.360217 7.42959e-18 8.89848e-17)
(0.368812 -1.22372e-18 -1.2541e-18)
(0.368812 7.80527e-18 8.89829e-17)
(0.377226 -9.10911e-19 -1.4614e-18)
(0.377226 7.88495e-18 8.89529e-17)
(0.385459 -7.64305e-19 -1.6564e-18)
(0.385459 8.07908e-18 8.89062e-17)
(0.393509 -7.21594e-19 -1.84693e-18)
(0.393509 8.79782e-18 8.88532e-17)
(0.40138 -7.87528e-19 -2.04123e-18)
(0.40138 8.8892e-18 8.88057e-17)
(0.409074 -8.30486e-19 -2.23531e-18)
(0.409074 9.43252e-18 8.87721e-17)
(0.416593 -8.2456e-19 -2.43714e-18)
(0.416593 1.01247e-17 8.87613e-17)
(0.423941 -6.17106e-19 -2.64137e-18)
(0.423941 1.01622e-17 8.87798e-17)
(0.431123 -5.02347e-19 -2.84581e-18)
(0.431123 1.04718e-17 8.88339e-17)
(0.438144 -7.46309e-19 -3.03845e-18)
(0.438144 1.11782e-17 8.89284e-17)
(0.445007 -1.05637e-18 -3.23087e-18)
(0.445007 1.16323e-17 8.90694e-17)
(0.451718 -1.10448e-18 -3.41937e-18)
(0.451718 1.20642e-17 8.92596e-17)
(0.458282 -9.5635e-19 -3.61353e-18)
(0.458282 1.24513e-17 8.95007e-17)
(0.464703 -8.24047e-19 -2.88968e-18)
(0.464703 1.28831e-17 8.97964e-17)
(0.470987 -8.0089e-19 -1.67275e-18)
(0.470987 1.37514e-17 9.0148e-17)
(0.477139 -7.23714e-19 -4.69651e-19)
(0.477139 1.41657e-17 9.05591e-17)
(0.483163 -9.07272e-19 7.4167e-19)
(0.483163 1.45476e-17 9.10258e-17)
(0.489064 -8.69535e-19 1.93552e-18)
(0.489064 1.50265e-17 9.1549e-17)
(0.494847 -3.59945e-19 3.1427e-18)
(0.494847 1.5177e-17 9.21299e-17)
(0.500516 -4.73756e-19 4.37402e-18)
(0.500516 1.53047e-17 9.277e-17)
(0.506075 -7.55734e-19 5.59991e-18)
(0.506075 1.53761e-17 9.34732e-17)
(0.511528 -9.20601e-19 6.82106e-18)
(0.511528 1.60486e-17 9.42412e-17)
(0.51688 -1.01041e-18 8.04779e-18)
(0.51688 1.66341e-17 9.50737e-17)
(0.522135 -7.92942e-19 9.27307e-18)
(0.522135 1.70621e-17 9.59744e-17)
(0.527295 -6.42222e-19 1.05457e-17)
(0.527295 1.75238e-17 9.69429e-17)
(0.532365 -5.90528e-19 1.1784e-17)
(0.532365 1.73667e-17 9.79831e-17)
(0.537347 -3.81711e-19 1.30199e-17)
(0.537347 1.80305e-17 9.90906e-17)
(0.542246 -2.0782e-19 1.42869e-17)
(0.542246 1.84924e-17 1.00266e-16)
(0.547063 1.41347e-19 1.55621e-17)
(0.547063 1.83007e-17 1.01517e-16)
(0.551803 3.05049e-19 1.68248e-17)
(0.551803 1.8939e-17 1.02839e-16)
(0.556467 3.38532e-19 1.81211e-17)
(0.556467 1.95211e-17 1.04231e-16)
(0.56106 7.95087e-19 1.94304e-17)
(0.56106 1.95761e-17 1.05693e-16)
(0.565582 1.06048e-18 2.07406e-17)
(0.565582 1.98409e-17 1.07227e-16)
(0.570037 1.7243e-18 2.20368e-17)
(0.570037 2.0433e-17 1.0883e-16)
(0.574426 2.39754e-18 2.33844e-17)
(0.574426 2.15736e-17 1.10509e-16)
(0.578753 2.6958e-18 2.4731e-17)
(0.578753 2.24324e-17 1.12257e-16)
(0.58302 3.26961e-18 2.61069e-17)
(0.58302 2.33456e-17 1.14077e-16)
(0.587227 4.06287e-18 2.7465e-17)
(0.587227 2.41544e-17 1.15968e-16)
(0.591379 5.17556e-18 2.8789e-17)
(0.591379 2.48417e-17 1.17922e-16)
(0.595475 6.21535e-18 3.02177e-17)
(0.595475 2.55912e-17 1.19953e-16)
(0.599518 6.79755e-18 3.1641e-17)
(0.599518 2.54557e-17 1.22066e-16)
(0.60351 6.80691e-18 3.30714e-17)
(0.60351 2.53704e-17 1.24259e-16)
(0.607453 7.04493e-18 3.4524e-17)