/*--------------------------------*- C++ -*----------------------------------*\
| =========                 |                                                 |
| \\      /  F ield         | OpenFOAM: The Open Source CFD Toolbox           |
|  \\    /   O peration     | Version:  2012                                  |
|   \\  /    A nd           | Website:  www.openfoam.com                      |
|    \\/     M anipulation  |                                                 |
\*---------------------------------------------------------------------------*/
FoamFile
{
    version     2.0;
    format      ascii;
    class       volScalarField;
    location    "16000";
    object      p;
}
// * * * * * * * * * * * * * * * * * * * * * * * * * * * * * * * * * * * * * //

dimensions      [0 2 -2 0 0 0 0];


internalField   nonuniform List<scalar> 
80
(
-2.30429e-16
-6.91215e-16
-4.33345e-16
-7.27894e-16
-6.11322e-16
-8.21975e-16
-9.11818e-16
-1.02611e-15
-1.38742e-15
-1.4199e-15
-2.08716e-15
-2.11622e-15
-3.38111e-15
-3.35115e-15
-6.07988e-15
-5.94859e-15
-1.0733e-14
-1.06971e-14
-2.07524e-14
-2.07057e-14
-1.02073e-15
-1.07646e-15
-1.02433e-15
-1.07956e-15
-1.04678e-15
-1.10016e-15
-1.14789e-15
-1.19624e-15
-1.44038e-15
-1.46317e-15
-2.08937e-15
-2.06819e-15
-3.29019e-15
-3.28292e-15
-6.09085e-15
-6.08432e-15
-1.09299e-14
-1.07565e-14
-2.12161e-14
-2.09818e-14
-3.31895e-14
-3.31969e-14
-3.55969e-14
-3.55886e-14
-3.49585e-14
-3.48618e-14
-3.48522e-14
-3.48467e-14
-3.48422e-14
-3.48395e-14
-3.48463e-14
-3.48371e-14
-3.48375e-14
-3.48352e-14
-3.4834e-14
-3.4833e-14
-3.48337e-14
-3.48327e-14
-3.48336e-14
-3.48327e-14
-3.2945e-14
-3.2983e-14
-3.55643e-14
-3.55279e-14
-3.48925e-14
-3.47234e-14
-3.48437e-14
-3.48357e-14
-3.48359e-14
-3.48327e-14
-3.48321e-14
-3.48208e-14
-3.48325e-14
-3.4844e-14
-3.4835e-14
-3.48436e-14
-3.48356e-14
-3.48432e-14
-3.48355e-14
-3.48431e-14
)
;

boundaryField
{
    walls
    {
        type            zeroGradient;
    }
    inlet
    {
        type            cyclic;
    }
    outlet
    {
        type            cyclic;
    }
    sides
    {
        type            empty;
    }
}


// ************************************************************************* //
