/*--------------------------------*- C++ -*----------------------------------*\
| =========                 |                                                 |
| \\      /  F ield         | OpenFOAM: The Open Source CFD Toolbox           |
|  \\    /   O peration     | Version:  2012                                  |
|   \\  /    A nd           | Website:  www.openfoam.com                      |
|    \\/     M anipulation  |                                                 |
\*---------------------------------------------------------------------------*/
FoamFile
{
    version     2.0;
    format      ascii;
    class       surfaceScalarField;
    location    "4000";
    object      phi;
}
// * * * * * * * * * * * * * * * * * * * * * * * * * * * * * * * * * * * * * //

dimensions      [0 3 -1 0 0 0 0];
oriented        oriented;


internalField   nonuniform List<scalar> 
5116
(
5.64256e-08
-6.15766e-18
-3.1121e-22
-1.04078e-21
1.19941e-22
1.72563e-07
-6.1542e-18
-1.07713e-21
-3.383e-21
-2.46335e-23
2.93755e-07
-6.1506e-18
-1.11194e-21
-5.84025e-21
-2.56838e-23
4.20166e-07
-6.14683e-18
-1.15318e-21
-8.38061e-21
-2.67507e-23
5.51963e-07
-6.14316e-18
-1.19389e-21
-1.10655e-20
-2.78303e-23
6.89309e-07
-6.1393e-18
-1.23502e-21
-1.36144e-20
-2.89185e-23
8.3235e-07
-6.13529e-18
-1.27713e-21
-1.64106e-20
-3.00099e-23
9.81205e-07
-6.13054e-18
-1.32006e-21
-1.94194e-20
-3.10903e-23
1.13594e-06
-6.12651e-18
-1.36312e-21
-2.19444e-20
-3.21331e-23
1.29654e-06
-6.12218e-18
-1.40537e-21
-2.47694e-20
-3.31186e-23
1.46288e-06
-6.11728e-18
-1.44556e-21
-2.79359e-20
-3.40086e-23
1.63468e-06
-6.11281e-18
-1.4822e-21
-3.15129e-20
-3.47544e-23
1.81151e-06
-6.10774e-18
-1.51359e-21
-3.505e-20
-3.53184e-23
1.99278e-06
-6.10263e-18
-1.53813e-21
-3.85879e-20
-3.56577e-23
2.17772e-06
-6.09712e-18
-1.55452e-21
-4.21735e-20
-3.57484e-23
2.36551e-06
-6.09162e-18
-1.56198e-21
-4.61702e-20
-3.5561e-23
2.55525e-06
-6.08619e-18
-1.5604e-21
-4.99357e-20
-3.50826e-23
2.74611e-06
-6.08158e-18
-1.55032e-21
-5.30666e-20
-3.43365e-23
2.93733e-06
-6.07747e-18
-1.53279e-21
-5.59779e-20
-3.33517e-23
3.12829e-06
-6.07323e-18
-1.50917e-21
-5.91203e-20
-3.21527e-23
3.31852e-06
-6.06808e-18
-1.48096e-21
-6.28675e-20
-3.07955e-23
3.50771e-06
-6.06303e-18
-1.44961e-21
-6.62498e-20
-2.93014e-23
3.69566e-06
-6.05939e-18
-1.4164e-21
-6.97081e-20
-2.76946e-23
3.88231e-06
-6.05474e-18
-1.38236e-21
-7.26607e-20
-2.5992e-23
4.06767e-06
-6.05097e-18
-1.34834e-21
-7.49608e-20
-2.42115e-23
4.25185e-06
-6.04667e-18
-1.3149e-21
-7.78027e-20
-2.23994e-23
4.43496e-06
-6.04247e-18
-1.28246e-21
-8.00698e-20
-2.0557e-23
4.61718e-06
-6.03865e-18
-1.25133e-21
-8.2827e-20
-1.86818e-23
4.79868e-06
-6.03492e-18
-1.22164e-21
-8.57495e-20
-1.6757e-23
4.97966e-06
-6.03138e-18
-1.19349e-21
-8.78304e-20
-1.4769e-23
5.16031e-06
-6.02665e-18
-1.16688e-21
-8.97356e-20
-1.27166e-23
5.34083e-06
-6.02358e-18
-1.14183e-21
-9.18371e-20
-1.06131e-23
5.52141e-06
-6.0196e-18
-1.11827e-21
-9.45171e-20
-8.45125e-24
5.70223e-06
-6.0166e-18
-1.09616e-21
-9.59298e-20
-6.20178e-24
5.88346e-06
-6.0133e-18
-1.07538e-21
-9.85054e-20
-3.85717e-24
6.06528e-06
-6.00882e-18
-1.0559e-21
-9.97189e-20
-1.40578e-24
6.24784e-06
-6.0053e-18
-1.03766e-21
-1.01939e-19
1.12905e-24
6.4313e-06
-6.0036e-18
-1.02056e-21
-1.04282e-19
3.80688e-24
6.6158e-06
-6.00121e-18
-1.0045e-21
-1.06082e-19
6.66266e-24
6.80148e-06
-5.99877e-18
-9.89355e-22
-1.07372e-19
9.626e-24
6.98846e-06
-5.99649e-18
-9.75108e-22
-1.07791e-19
1.27306e-23
7.17689e-06
-5.99372e-18
-9.61632e-22
-1.10221e-19
1.59393e-23
7.36686e-06
-5.99193e-18
-9.4893e-22
-1.11491e-19
1.93381e-23
7.5585e-06
-5.99086e-18
-9.36891e-22
-1.12099e-19
2.28748e-23
7.75192e-06
-5.98756e-18
-9.25399e-22
-1.13846e-19
2.6434e-23
7.94722e-06
-5.98467e-18
-9.14446e-22
-1.15871e-19
3.01382e-23
8.14451e-06
-5.98198e-18
-9.03947e-22
-1.15637e-19
3.40125e-23
8.34388e-06
-5.97912e-18
-8.93868e-22
-1.16929e-19
3.79253e-23
8.54542e-06
-5.97612e-18
-8.84193e-22
-1.18808e-19
4.2024e-23
8.74924e-06
-5.97183e-18
-8.75e-22
-1.19503e-19
4.63424e-23
8.95541e-06
-5.96887e-18
-8.66274e-22
-1.2116e-19
5.08994e-23
9.16403e-06
-5.96405e-18
-8.5803e-22
-1.23139e-19
5.58316e-23
9.37519e-06
-5.95976e-18
-8.50352e-22
-1.24009e-19
6.10801e-23
9.58896e-06
-5.95736e-18
-8.43155e-22
-1.25669e-19
6.66378e-23
9.80543e-06
-5.9525e-18
-8.36379e-22
-1.26645e-19
7.25628e-23
1.00247e-05
-5.94867e-18
-8.30131e-22
-1.29971e-19
7.88355e-23
1.02468e-05
-5.94582e-18
-8.24393e-22
-1.31666e-19
8.56606e-23
1.04718e-05
-5.94139e-18
-8.19053e-22
-1.32075e-19
9.28171e-23
1.06999e-05
-5.9373e-18
-8.14156e-22
-1.34986e-19
1.0027e-22
1.09311e-05
-5.93323e-18
-8.09809e-22
-1.36232e-19
1.08406e-22
1.11654e-05
-5.92909e-18
-8.05939e-22
-1.39855e-19
1.17117e-22
1.1403e-05
-5.92637e-18
-8.02462e-22
-1.39325e-19
1.26521e-22
1.16439e-05
-5.92463e-18
-7.99336e-22
-1.40448e-19
1.36228e-22
1.18882e-05
-5.92033e-18
-7.96498e-22
-1.43577e-19
1.46426e-22
1.2136e-05
-5.91792e-18
-7.93927e-22
-1.45166e-19
1.57151e-22
1.23873e-05
-5.91213e-18
-7.91591e-22
-1.48614e-19
1.68189e-22
1.26423e-05
-5.9095e-18
-7.89464e-22
-1.51144e-19
1.79791e-22
1.2901e-05
-5.90611e-18
-7.87365e-22
-1.55343e-19
1.91654e-22
1.31634e-05
-5.90391e-18
-7.85334e-22
-1.58864e-19
2.04074e-22
1.34297e-05
-5.90043e-18
-7.83345e-22
-1.59982e-19
2.1705e-22
1.37e-05
-5.89831e-18
-7.81425e-22
-1.61043e-19
2.30439e-22
1.39742e-05
-5.8953e-18
-7.79649e-22
-1.64727e-19
2.44145e-22
1.42526e-05
-5.89084e-18
-7.78101e-22
-1.67687e-19
2.5848e-22
1.45351e-05
-5.88931e-18
-7.7698e-22
-1.66877e-19
2.73524e-22
1.48218e-05
-5.88829e-18
-7.75863e-22
-1.67735e-19
2.8905e-22
1.51129e-05
-5.88622e-18
-7.75017e-22
-1.70037e-19
3.05175e-22
1.54084e-05
-5.88275e-18
-7.74552e-22
-1.75195e-19
3.21962e-22
1.57083e-05
-5.87762e-18
-7.74444e-22
-1.77777e-19
3.39615e-22
1.60129e-05
-5.87482e-18
-7.74911e-22
-1.81499e-19
3.58073e-22
1.6322e-05
-5.87279e-18
-7.75557e-22
-1.84003e-19
3.7746e-22
1.66359e-05
-5.86983e-18
-7.76453e-22
-1.8679e-19
3.9757e-22
1.69546e-05
-5.86425e-18
-7.77533e-22
-1.9252e-19
4.1826e-22
1.72782e-05
-5.86023e-18
-7.78632e-22
-1.97038e-19
4.39518e-22
1.76067e-05
-5.85734e-18
-7.7994e-22
-1.99697e-19
4.61673e-22
1.79404e-05
-5.85429e-18
-7.81156e-22
-2.07413e-19
4.84867e-22
1.82791e-05
-5.85081e-18
-7.82078e-22
-2.12592e-19
5.09057e-22
1.86231e-05
-5.84644e-18
-7.83364e-22
-2.09092e-19
5.3375e-22
1.89725e-05
-5.84286e-18
-7.84702e-22
-2.12592e-19
5.58359e-22
1.93272e-05
-5.84149e-18
-7.86353e-22
-2.16481e-19
5.83201e-22
1.96875e-05
-5.83612e-18
-7.88092e-22
-2.21004e-19
6.08631e-22
2.00533e-05
-5.83285e-18
-7.9081e-22
-2.22726e-19
6.34778e-22
2.04248e-05
-5.82628e-18
-7.93696e-22
-2.26345e-19
6.60922e-22
2.08021e-05
-5.82148e-18
-7.97177e-22
-2.32569e-19
6.87793e-22
2.11853e-05
-5.81647e-18
-8.0106e-22
-2.3795e-19
7.16501e-22
2.15745e-05
-5.81263e-18
-8.05517e-22
-2.40958e-19
7.4644e-22
2.19697e-05
-5.81095e-18
-8.11356e-22
-2.44078e-19
7.77237e-22
2.23711e-05
-5.79931e-18
-8.18297e-22
-2.47264e-19
8.09927e-22
2.27787e-05
-5.78881e-18
-8.27471e-22
-2.54404e-19
8.444e-22
2.31928e-05
-5.7834e-18
-8.39034e-22
-2.60129e-19
8.80963e-22
2.36133e-05
-5.78131e-18
-8.51468e-22
-2.59805e-19
9.1852e-22
2.40403e-05
-5.78101e-18
-8.64137e-22
-2.5756e-19
9.55583e-22
2.44741e-05
-5.77452e-18
-8.75753e-22
-2.58548e-19
9.92691e-22
2.49146e-05
-5.77237e-18
-8.88166e-22
-2.57675e-19
1.03077e-21
2.5362e-05
-5.77064e-18
-9.0123e-22
-2.62435e-19
1.07049e-21
2.58164e-05
-5.76449e-18
-9.13403e-22
-2.62264e-19
1.11147e-21
2.6278e-05
-5.76302e-18
-9.27204e-22
-2.68412e-19
1.15238e-21
2.67467e-05
-5.75779e-18
-9.40663e-22
-2.70494e-19
1.19474e-21
2.72228e-05
-5.75154e-18
-9.55439e-22
-2.75068e-19
1.23676e-21
2.77063e-05
-5.74135e-18
-9.71339e-22
-2.83577e-19
1.2801e-21
2.81974e-05
-5.73525e-18
-9.89793e-22
-2.85445e-19
1.32418e-21
2.86962e-05
-5.72746e-18
-1.00886e-21
-2.90477e-19
1.36705e-21
2.92028e-05
-5.72079e-18
-1.03098e-21
-2.9446e-19
1.41086e-21
2.97174e-05
-5.71581e-18
-1.05615e-21
-2.98264e-19
1.45567e-21
3.02399e-05
-5.71238e-18
-1.08316e-21
-2.99259e-19
1.50064e-21
3.07707e-05
-5.70476e-18
-1.11163e-21
-3.10073e-19
1.54491e-21
3.13098e-05
-5.69926e-18
-1.14148e-21
-3.26036e-19
1.59075e-21
3.18572e-05
-5.68237e-18
-1.17135e-21
-3.39165e-19
1.6394e-21
3.24133e-05
-5.66938e-18
-1.20493e-21
-3.52446e-19
1.68944e-21
3.2978e-05
-5.66559e-18
-1.24134e-21
-3.58276e-19
1.73976e-21
3.35516e-05
-5.65882e-18
-1.27643e-21
-3.72843e-19
1.79036e-21
3.41342e-05
-5.63851e-18
-1.31172e-21
-3.87303e-19
1.84197e-21
3.47258e-05
-5.62571e-18
-1.35228e-21
-4.09436e-19
1.89766e-21
3.53267e-05
-5.6122e-18
-1.39608e-21
-4.24301e-19
1.95915e-21
3.59369e-05
-5.59908e-18
-1.43948e-21
-4.39878e-19
2.02178e-21
3.65567e-05
-5.58557e-18
-1.4851e-21
-4.58343e-19
2.08708e-21
3.71862e-05
-5.57128e-18
-1.53377e-21
-4.83228e-19
2.15696e-21
3.78255e-05
-5.56597e-18
-1.5832e-21
-4.91346e-19
2.23573e-21
3.84747e-05
-5.56097e-18
-1.63349e-21
-4.8111e-19
2.3155e-21
3.91341e-05
-5.5525e-18
-1.68244e-21
-4.86513e-19
2.39086e-21
3.98037e-05
-5.54747e-18
-1.73515e-21
-4.84173e-19
2.46987e-21
4.04838e-05
-5.54126e-18
-1.78956e-21
-4.82117e-19
2.54777e-21
4.11745e-05
-5.53809e-18
-1.84538e-21
-4.85539e-19
2.62146e-21
4.18759e-05
-5.53022e-18
-1.90276e-21
-4.85845e-19
2.69312e-21
4.25882e-05
-5.51662e-18
-1.96109e-21
-4.91643e-19
2.76127e-21
4.33116e-05
-5.49918e-18
-2.02459e-21
-4.98039e-19
2.8267e-21
4.40463e-05
-5.49497e-18
-2.09012e-21
-5.01348e-19
2.8903e-21
4.47923e-05
-5.47907e-18
-2.15822e-21
-5.0889e-19
2.94765e-21
4.555e-05
-5.477e-18
-2.23419e-21
-5.10667e-19
3.00177e-21
4.63194e-05
-5.46675e-18
-2.30996e-21
-5.27128e-19
3.05337e-21
4.71008e-05
-5.44817e-18
-2.38743e-21
-5.40706e-19
3.10797e-21
4.78943e-05
-5.43225e-18
-2.47263e-21
-5.54405e-19
3.16045e-21
4.87001e-05
-5.41707e-18
-2.56035e-21
-5.56688e-19
3.21372e-21
4.95184e-05
-5.39182e-18
-2.65189e-21
-5.72947e-19
3.25699e-21
5.03493e-05
-5.37158e-18
-2.75475e-21
-5.82501e-19
3.30006e-21
5.11932e-05
-5.36027e-18
-2.86277e-21
-6.00507e-19
3.34234e-21
5.20501e-05
-5.341e-18
-2.97313e-21
-6.23948e-19
3.38317e-21
5.29202e-05
-5.31303e-18
-3.09344e-21
-6.39405e-19
3.423e-21
5.38038e-05
-5.29515e-18
-3.22353e-21
-6.54607e-19
3.45677e-21
5.47011e-05
-5.27441e-18
-3.35869e-21
-6.69695e-19
3.48208e-21
5.56122e-05
-5.26031e-18
-3.49864e-21
-6.84339e-19
3.50384e-21
5.65374e-05
-5.2477e-18
-3.63915e-21
-6.97145e-19
3.51936e-21
5.74769e-05
-5.23982e-18
-3.7857e-21
-7.07596e-19
3.535e-21
5.84308e-05
-5.22451e-18
-3.93072e-21
-7.24429e-19
3.55196e-21
5.93995e-05
-5.1996e-18
-4.07843e-21
-7.37831e-19
3.57445e-21
6.03831e-05
-5.18235e-18
-4.23069e-21
-7.50768e-19
3.5994e-21
6.13819e-05
-5.16477e-18
-4.38058e-21
-7.87459e-19
3.61487e-21
6.2396e-05
-5.1446e-18
-4.53629e-21
-8.06604e-19
3.64344e-21
6.34258e-05
-5.10583e-18
-4.67525e-21
-8.48651e-19
3.66551e-21
6.44714e-05
-5.06181e-18
-4.80915e-21
-8.81184e-19
3.68733e-21
6.55331e-05
-5.00163e-18
-4.94783e-21
-9.24388e-19
3.70359e-21
6.6611e-05
-4.98158e-18
-5.0966e-21
-9.42345e-19
3.72448e-21
6.77056e-05
-4.9604e-18
-5.24124e-21
-9.61486e-19
3.74608e-21
6.88169e-05
-4.96412e-18
-5.39142e-21
-9.74878e-19
3.7823e-21
6.99453e-05
-4.94706e-18
-5.52784e-21
-9.98331e-19
3.79839e-21
7.1091e-05
-4.93891e-18
-5.66634e-21
-1.00695e-18
3.80058e-21
7.22543e-05
-4.91985e-18
-5.77671e-21
-1.02731e-18
3.77855e-21
7.34354e-05
-4.90346e-18
-5.88669e-21
-1.05437e-18
3.76735e-21
7.46345e-05
-4.88661e-18
-5.99512e-21
-1.07612e-18
3.74855e-21
7.58521e-05
-4.85688e-18
-6.10937e-21
-1.09444e-18
3.71735e-21
7.70882e-05
-4.84889e-18
-6.22879e-21
-1.10517e-18
3.69233e-21
7.83433e-05
-4.81928e-18
-6.3511e-21
-1.12376e-18
3.64511e-21
7.96175e-05
-4.79604e-18
-6.48161e-21
-1.15267e-18
3.58337e-21
8.09112e-05
-4.76511e-18
-6.62468e-21
-1.18517e-18
3.52232e-21
8.22247e-05
-4.73256e-18
-6.7953e-21
-1.20437e-18
3.46406e-21
8.35582e-05
-4.70006e-18
-6.96364e-21
-1.23743e-18
3.39192e-21
8.4912e-05
-4.67158e-18
-7.15663e-21
-1.26701e-18
3.33346e-21
8.62865e-05
-4.64726e-18
-7.34598e-21
-1.27263e-18
3.27763e-21
8.76819e-05
-4.5944e-18
-7.50354e-21
-1.30639e-18
3.15338e-21
8.90985e-05
-4.57594e-18
-7.66927e-21
-1.33718e-18
3.02619e-21
9.05367e-05
-4.53922e-18
-7.83831e-21
-1.3766e-18
2.936e-21
9.19968e-05
-4.51238e-18
-8.01144e-21
-1.41133e-18
2.82903e-21
9.34791e-05
-4.48031e-18
-8.16406e-21
-1.44235e-18
2.70392e-21
9.49839e-05
-4.45134e-18
-8.336e-21
-1.47605e-18
2.5874e-21
9.65116e-05
-4.41869e-18
-8.52511e-21
-1.50756e-18
2.48504e-21
9.80624e-05
-4.39373e-18
-8.69903e-21
-1.52475e-18
2.35461e-21
9.96368e-05
-4.36202e-18
-8.89483e-21
-1.56566e-18
2.20302e-21
0.000101235
-4.32862e-18
-9.09558e-21
-1.5945e-18
2.05283e-21
0.000102858
-4.28903e-18
-9.33011e-21
-1.63332e-18
1.90182e-21
0.000104505
-4.24975e-18
-9.55834e-21
-1.66365e-18
1.74235e-21
0.000106177
-4.22649e-18
-9.80983e-21
-1.70118e-18
1.57377e-21
0.000107874
-4.18144e-18
-1.00465e-20
-1.71559e-18
1.41464e-21
0.000109597
-4.15214e-18
-1.03017e-20
-1.73651e-18
1.24626e-21
0.000111346
-4.11007e-18
-1.05316e-20
-1.77114e-18
1.01256e-21
0.000113121
-4.06708e-18
-1.07465e-20
-1.80429e-18
8.02802e-22
0.000114923
-4.02954e-18
-1.1004e-20
-1.83497e-18
6.19047e-22
0.000116753
-3.99913e-18
-1.12429e-20
-1.86437e-18
4.13066e-22
0.00011861
-3.95883e-18
-1.14654e-20
-1.89918e-18
2.3481e-22
0.000120494
-3.91558e-18
-1.16339e-20
-1.92025e-18
1.07072e-22
0.000122408
-3.87537e-18
-1.17717e-20
-1.94107e-18
-4.14892e-23
0.00012435
-3.82781e-18
-1.18942e-20
-1.97036e-18
-2.02594e-22
0.000126321
-3.76405e-18
-1.20078e-20
-1.9997e-18
-2.82642e-22
0.000128322
-3.71742e-18
-1.21879e-20
-2.01485e-18
-3.9463e-22
0.000130353
-3.69392e-18
-1.23412e-20
-2.0288e-18
-5.41598e-22
0.000132415
-3.65022e-18
-1.24578e-20
-2.0443e-18
-5.99285e-22
0.000134507
-3.59402e-18
-1.25107e-20
-2.07675e-18
-6.98828e-22
0.000136631
-3.53248e-18
-1.26633e-20
-2.1129e-18
-8.1106e-22
0.000138786
-3.50817e-18
-1.29004e-20
-2.11338e-18
-7.97696e-22
0.000140974
-3.45174e-18
-1.30534e-20
-2.13873e-18
-9.41239e-22
0.000143195
-3.41209e-18
-1.33002e-20
-2.15973e-18
-1.12809e-21
0.000145449
-3.36993e-18
-1.34517e-20
-2.18207e-18
-1.34373e-21
0.000147736
-3.3293e-18
-1.35385e-20
-2.19587e-18
-1.66092e-21
0.000150058
-3.2743e-18
-1.35231e-20
-2.22597e-18
-2.07263e-21
0.000152415
-3.23451e-18
-1.35898e-20
-2.2174e-18
-2.43755e-21
0.000154806
-3.17519e-18
-1.38196e-20
-2.22969e-18
-2.83004e-21
0.000157233
-3.11643e-18
-1.40528e-20
-2.23436e-18
-3.21222e-21
0.000159696
-3.07425e-18
-1.42223e-20
-2.26422e-18
-3.6204e-21
0.000162196
-3.02687e-18
-1.42745e-20
-2.26265e-18
-3.94505e-21
0.000164733
-2.99206e-18
-1.45081e-20
-2.26845e-18
-4.30231e-21
0.000167308
-2.98907e-18
-1.48921e-20
-2.27715e-18
-4.66171e-21
0.000169921
-2.94704e-18
-1.50886e-20
-2.24454e-18
-4.94938e-21
0.000172573
-2.88832e-18
-1.53285e-20
-2.25379e-18
-5.3182e-21
0.000175264
-2.85309e-18
-1.54555e-20
-2.25605e-18
-5.82039e-21
0.000177995
-2.84809e-18
-1.56223e-20
-2.24386e-18
-6.26862e-21
0.000180767
-2.81939e-18
-1.5689e-20
-2.23957e-18
-6.52161e-21
0.000183579
-2.75517e-18
-1.5733e-20
-2.23128e-18
-6.93147e-21
0.000186433
-2.74193e-18
-1.56733e-20
-2.2529e-18
-7.43031e-21
0.000189329
-2.68114e-18
-1.50426e-20
-2.27381e-18
-7.64888e-21
0.000192268
-2.71523e-18
-1.48426e-20
-2.25717e-18
-7.60437e-21
0.00019525
-2.6574e-18
-1.47001e-20
-2.20918e-18
-7.37195e-21
0.000198276
-2.69484e-18
-1.48241e-20
-2.22647e-18
-7.4896e-21
0.000201346
-2.66163e-18
-1.46841e-20
-2.23984e-18
-7.4515e-21
0.000204462
-2.65679e-18
-1.46828e-20
-2.17683e-18
-7.47724e-21
0.000207623
-2.63677e-18
-1.50741e-20
-2.20026e-18
-7.74019e-21
0.000210831
-2.59931e-18
-1.52366e-20
-2.20272e-18
-8.01718e-21
0.000214086
-2.63585e-18
-1.52862e-20
-2.13004e-18
-8.00141e-21
0.000217389
-2.55678e-18
-1.5214e-20
-2.13549e-18
-8.02637e-21
0.000220739
-2.52033e-18
-1.55246e-20
-2.1209e-18
-8.11896e-21
0.000224139
-2.48656e-18
-1.57503e-20
-2.09805e-18
-8.43294e-21
0.000227588
-2.45162e-18
-1.62806e-20
-2.0749e-18
-9.1489e-21
0.000231088
-2.44261e-18
-1.68323e-20
-2.06053e-18
-9.79823e-21
0.000234639
-2.4382e-18
-1.70885e-20
-2.04247e-18
-1.01531e-20
0.000238241
-2.42777e-18
-1.68321e-20
-2.00689e-18
-1.03364e-20
0.000241896
-2.3829e-18
-1.58555e-20
-2.00599e-18
-1.06879e-20
0.000245604
-2.34686e-18
-1.51672e-20
-2.02997e-18
-1.07722e-20
0.000249365
-2.30371e-18
-1.44816e-20
-2.05834e-18
-1.05024e-20
0.000253181
-2.28202e-18
-1.38332e-20
-2.09772e-18
-9.84915e-21
0.000257052
-2.28716e-18
-1.26622e-20
-1.99445e-18
-9.65036e-21
0.00026098
-2.16399e-18
-1.17325e-20
-2.02629e-18
-1.10474e-20
0.000264964
-2.16823e-18
-1.19371e-20
-2.0072e-18
-1.20395e-20
0.000269005
-2.10315e-18
-1.21023e-20
-2.0099e-18
-1.29877e-20
0.000273105
-2.11281e-18
-1.22099e-20
-2.00248e-18
-1.39248e-20
0.000277264
-2.14018e-18
-1.26211e-20
-2.02392e-18
-1.46972e-20
0.000281482
-2.14976e-18
-1.32986e-20
-2.00349e-18
-1.43953e-20
0.000285762
-2.07569e-18
-1.3292e-20
-2.02447e-18
-1.4242e-20
0.000290102
-2.10338e-18
-1.49093e-20
-2.02221e-18
-1.35482e-20
0.000294505
-2.05627e-18
-1.54613e-20
-2.06769e-18
-1.29754e-20
0.000298971
-1.95466e-18
-1.56321e-20
-2.07821e-18
-1.26383e-20
0.0003035
-1.96635e-18
-1.76063e-20
-2.08001e-18
-1.23844e-20
0.000308095
-1.93614e-18
-1.86958e-20
-2.06834e-18
-1.18388e-20
0.000312755
-1.88217e-18
-1.89791e-20
-2.06521e-18
-1.2761e-20
0.000317481
-1.88351e-18
-2.02744e-20
-2.07249e-18
-1.28475e-20
0.000322275
-1.9772e-18
-2.13861e-20
-1.9725e-18
-1.15624e-20
0.000327137
-2.00501e-18
-2.13571e-20
-2.0204e-18
-1.1734e-20
0.000332068
-1.96906e-18
-2.06194e-20
-1.94535e-18
-1.1792e-20
0.000337069
-1.94507e-18
-2.02669e-20
-1.94773e-18
-1.32402e-20
0.000342142
-1.95728e-18
-2.02596e-20
-1.9263e-18
-1.50712e-20
0.000347286
-1.93287e-18
-1.95794e-20
-1.89871e-18
-1.73482e-20
0.000352503
-1.94173e-18
-1.99556e-20
-1.85189e-18
-1.88839e-20
0.000357794
-1.94705e-18
-1.95773e-20
-1.80884e-18
-1.98164e-20
0.000363159
-1.8832e-18
-1.80995e-20
-1.83986e-18
-2.02868e-20
0.000368601
-1.8655e-18
-1.81584e-20
-1.83133e-18
-2.01322e-20
0.00037412
-1.88725e-18
-1.78575e-20
-1.82994e-18
-2.08721e-20
0.000379716
-1.86972e-18
-1.61756e-20
-1.86286e-18
-2.24257e-20
0.000385392
-1.80899e-18
-1.45843e-20
-1.897e-18
-2.2309e-20
0.000391148
-1.76438e-18
-1.36984e-20
-1.81909e-18
-2.03182e-20
0.000396985
-1.76657e-18
-1.4864e-20
-1.79377e-18
-1.78094e-20
0.000402905
-1.77378e-18
-1.56063e-20
-1.71678e-18
-1.81132e-20
0.000408908
-1.75934e-18
-1.66197e-20
-1.84985e-18
-1.91714e-20
0.000414996
-1.76046e-18
-1.45088e-20
-1.83869e-18
-1.95758e-20
0.00042117
-1.72078e-18
-1.41966e-20
-1.83902e-18
-1.60015e-20
0.000427431
-1.79901e-18
-1.80515e-20
-1.74076e-18
-1.30437e-20
0.00043378
-1.78502e-18
-2.06582e-20
-1.78114e-18
-1.30869e-20
0.00044022
-1.71415e-18
-2.25139e-20
-1.77055e-18
-1.65487e-20
0.00044675
-1.71624e-18
-2.56486e-20
-1.82392e-18
-1.72795e-20
0.000453372
-1.773e-18
-2.73677e-20
-1.72632e-18
-1.44571e-20
0.000460088
-1.74511e-18
-2.57391e-20
-1.71783e-18
-1.44582e-20
0.0004669
-1.81188e-18
-2.67387e-20
-1.74995e-18
-1.65736e-20
0.000473807
-1.80111e-18
-2.68029e-20
-1.70934e-18
-1.99288e-20
0.000480813
-1.80994e-18
-3.0075e-20
-1.72766e-18
-2.17457e-20
0.000487917
-1.78385e-18
-3.16208e-20
-1.78919e-18
-2.53441e-20
0.000495123
-1.71831e-18
-3.47887e-20
-1.72792e-18
-2.6179e-20
0.00050243
-1.75983e-18
-3.60823e-20
-1.68366e-18
-2.79404e-20
0.000509842
-1.63956e-18
-3.4167e-20
-1.59066e-18
-2.75577e-20
0.000517358
-1.55545e-18
-3.19262e-20
-1.56234e-18
-2.62293e-20
0.000524982
-1.56228e-18
-2.95264e-20
-1.52554e-18
-2.253e-20
0.000532713
-1.50185e-18
-2.14417e-20
-1.46926e-18
-2.12844e-20
0.000540555
-1.28049e-18
-1.47902e-20
-1.44852e-18
-1.85178e-20
0.000548508
-1.23489e-18
-1.93165e-20
-1.35484e-18
-9.89751e-21
0.000556574
-1.23068e-18
-2.07643e-20
-1.28339e-18
1.5881e-21
0.000564755
-1.22664e-18
-2.27611e-20
-1.20586e-18
4.73404e-21
0.000573053
-1.10077e-18
-1.76706e-20
-1.21023e-18
-1.40763e-21
0.000581469
-1.14648e-18
-1.78369e-20
-1.13957e-18
6.44005e-23
0.000590004
-1.10715e-18
-1.11311e-20
-1.15559e-18
-5.97586e-21
0.000598661
-1.15577e-18
-1.09152e-20
-1.03155e-18
-8.99687e-21
0.000607441
-1.13626e-18
-9.72167e-21
-1.07981e-18
-1.2942e-20
0.000616346
-1.01937e-18
-8.59385e-21
-1.06639e-18
-1.10348e-20
0.000625378
-1.01024e-18
-1.18423e-20
-1.04143e-18
-6.20895e-21
0.000634538
-9.46854e-19
-6.42937e-21
-9.28801e-19
-8.24572e-21
0.000643828
-8.09219e-19
-1.94679e-21
-6.67562e-19
-1.09504e-20
0.000653249
-7.61229e-19
5.01832e-21
-7.44271e-19
-2.30963e-20
0.000662805
-7.32917e-19
5.56066e-22
-7.1585e-19
-2.15306e-20
0.000672495
-7.43267e-19
-3.30605e-21
-6.08525e-19
-2.06227e-20
0.000682322
-7.15109e-19
3.42062e-21
-7.46931e-19
-2.04023e-20
0.000692288
-5.94728e-19
9.78923e-21
-7.23107e-19
-1.11239e-20
0.000702394
-6.18288e-19
9.96437e-21
-6.75627e-19
-5.95456e-21
0.000712642
-6.11488e-19
1.07691e-20
-6.99278e-19
-1.6691e-20
0.000723033
-6.63393e-19
1.24988e-20
-7.58198e-19
-2.31903e-20
0.000733569
-6.48373e-19
1.42386e-20
-5.64832e-19
-1.79511e-20
0.000744252
-6.21759e-19
1.83469e-20
-5.71625e-19
-2.93924e-20
0.000755082
2.28378e-20
-5.99353e-19
-2.89467e-20
-6.1677e-19
5.64256e-08
-2.50046e-22
6.00765e-23
1.72563e-07
-1.03539e-21
-2.52966e-22
2.93755e-07
-1.84195e-21
-6.14844e-22
4.20166e-07
-2.71954e-21
-9.35972e-22
5.51963e-07
-3.52884e-21
-1.39066e-21
6.89309e-07
-4.2401e-21
-1.94309e-21
8.3235e-07
-5.05914e-21
-2.48985e-21
9.81205e-07
-5.9342e-21
-2.61298e-21
1.13594e-06
-6.96641e-21
-2.99455e-21
1.29654e-06
-7.99692e-21
-3.23468e-21
1.46288e-06
-9.46173e-21
-3.14861e-21
1.63468e-06
-1.0683e-20
-3.84388e-21
1.81151e-06
-1.20708e-20
-4.16923e-21
1.99278e-06
-1.27303e-20
-5.20751e-21
2.17772e-06
-1.38593e-20
-5.4833e-21
2.36551e-06
-1.43731e-20
-5.2985e-21
2.55525e-06
-1.62075e-20
-5.555e-21
2.74611e-06
-1.77342e-20
-5.65513e-21
2.93733e-06
-1.82327e-20
-4.88059e-21
3.12829e-06
-1.96263e-20
-5.53595e-21
3.31852e-06
-2.03436e-20
-5.97457e-21
3.50771e-06
-2.1545e-20
-6.0391e-21
3.69566e-06
-2.22274e-20
-6.3375e-21
3.88231e-06
-2.4917e-20
-6.30008e-21
4.06767e-06
-2.55679e-20
-7.00763e-21
4.25185e-06
-2.61917e-20
-7.93954e-21
4.43496e-06
-2.81625e-20
-8.84777e-21
4.61718e-06
-2.91079e-20
-9.63204e-21
4.79868e-06
-3.02716e-20
-1.0096e-20
4.97966e-06
-3.09142e-20
-1.00627e-20
5.16031e-06
-3.19255e-20
-1.01238e-20
5.34083e-06
-3.23679e-20
-1.02651e-20
5.52141e-06
-3.32765e-20
-1.15755e-20
5.70223e-06
-3.3053e-20
-1.15048e-20
5.88346e-06
-3.41511e-20
-1.07963e-20
6.06528e-06
-3.53063e-20
-1.00727e-20
6.24784e-06
-3.63475e-20
-9.9235e-21
6.4313e-06
-3.74292e-20
-1.03907e-20
6.6158e-06
-3.6465e-20
-1.20166e-20
6.80148e-06
-3.75385e-20
-1.03825e-20
6.98846e-06
-3.7148e-20
-1.09409e-20
7.17689e-06
-3.89995e-20
-1.15317e-20
7.36686e-06
-4.04363e-20
-1.13505e-20
7.5585e-06
-4.1073e-20
-1.37107e-20
7.75192e-06
-4.09812e-20
-1.27794e-20
7.94722e-06
-4.03624e-20
-1.09535e-20
8.14451e-06
-4.07872e-20
-1.17422e-20
8.34388e-06
-4.08493e-20
-1.01604e-20
8.54542e-06
-4.32935e-20
-9.39398e-21
8.74924e-06
-4.43687e-20
-9.16105e-21
8.95541e-06
-4.60395e-20
-7.10142e-21
9.16403e-06
-4.73353e-20
-7.66246e-21
9.37519e-06
-4.74148e-20
-8.44835e-21
9.58896e-06
-4.80697e-20
-7.52401e-21
9.80543e-06
-4.88893e-20
-6.8724e-21
1.00247e-05
-5.04852e-20
-5.16786e-21
1.02468e-05
-5.04817e-20
-6.21942e-21
1.04718e-05
-4.9504e-20
-8.32455e-21
1.06999e-05
-5.12757e-20
-6.96193e-21
1.09311e-05
-5.26461e-20
-6.3127e-21
1.11654e-05
-5.32139e-20
-4.68291e-21
1.1403e-05
-5.47917e-20
-5.0398e-21
1.16439e-05
-5.66255e-20
-4.14152e-21
1.18882e-05
-5.62167e-20
-5.805e-21
1.2136e-05
-5.81442e-20
-8.23958e-21
1.23873e-05
-5.78832e-20
-6.06928e-21
1.26423e-05
-5.86974e-20
-5.93818e-21
1.2901e-05
-5.89727e-20
-3.96248e-21
1.31634e-05
-5.93276e-20
-4.00636e-21
1.34297e-05
-5.86603e-20
-3.49707e-21
1.37e-05
-5.91016e-20
-4.67371e-21
1.39742e-05
-5.84844e-20
-4.97305e-21
1.42526e-05
-5.92952e-20
-4.43692e-21
1.45351e-05
-5.59859e-20
-3.15646e-21
1.48218e-05
-5.63376e-20
-1.65489e-21
1.51129e-05
-5.77931e-20
-5.36881e-22
1.54084e-05
-5.77972e-20
-4.20765e-22
1.57083e-05
-5.85152e-20
-2.66327e-22
1.60129e-05
-5.63861e-20
-1.01625e-22
1.6322e-05
-5.70738e-20
-3.63715e-23
1.66359e-05
-5.84727e-20
8.82702e-22
1.69546e-05
-5.61785e-20
-1.90256e-21
1.72782e-05
-5.71668e-20
-3.67237e-21
1.76067e-05
-5.6803e-20
-3.24014e-21
1.79404e-05
-5.40304e-20
-5.96817e-21
1.82791e-05
-5.60463e-20
-7.68806e-21
1.86231e-05
-5.33977e-20
-5.51299e-21
1.89725e-05
-5.47665e-20
-8.0047e-21
1.93272e-05
-5.65905e-20
-8.6554e-21
1.96875e-05
-6.34653e-20
-7.45302e-21
2.00533e-05
-6.527e-20
-8.61717e-21
2.04248e-05
-6.58133e-20
-9.33074e-21
2.08021e-05
-6.55242e-20
-5.42591e-21
2.11853e-05
-6.4066e-20
-4.6867e-21
2.15745e-05
-6.63074e-20
-7.35888e-21
2.19697e-05
-6.75983e-20
-6.86196e-21
2.23711e-05
-6.85325e-20
-8.12717e-21
2.27787e-05
-7.29188e-20
-6.26109e-21
2.31928e-05
-7.19829e-20
-3.566e-21
2.36133e-05
-7.15485e-20
-4.77292e-21
2.40403e-05
-6.63279e-20
-3.82343e-21
2.44741e-05
-6.50033e-20
-1.84069e-21
2.49146e-05
-6.6524e-20
4.68137e-21
2.5362e-05
-5.90424e-20
8.50996e-21
2.58164e-05
-5.99141e-20
1.02938e-20
2.6278e-05
-5.55038e-20
1.30611e-20
2.67467e-05
-5.84447e-20
1.55894e-20
2.72228e-05
-5.75336e-20
2.40511e-20
2.77063e-05
-5.87543e-20
2.2658e-20
2.81974e-05
-5.43266e-20
1.91265e-20
2.86962e-05
-5.9709e-20
2.16116e-20
2.92028e-05
-6.35177e-20
2.68813e-20
2.97174e-05
-6.30699e-20
3.0232e-20
3.02399e-05
-6.30358e-20
3.12793e-20
3.07707e-05
-6.07245e-20
3.50031e-20
3.13098e-05
-5.90156e-20
4.15402e-20
3.18572e-05
-6.14826e-20
4.42659e-20
3.24133e-05
-6.44392e-20
3.90745e-20
3.2978e-05
-6.18026e-20
4.28843e-20
3.35516e-05
-5.97381e-20
4.4125e-20
3.41342e-05
-6.02555e-20
5.45265e-20
3.47258e-05
-6.11838e-20
6.49849e-20
3.53267e-05
-5.07047e-20
6.94053e-20
3.59369e-05
-4.95049e-20
7.3452e-20
3.65567e-05
-4.60784e-20
7.51687e-20
3.71862e-05
-3.22132e-20
8.19807e-20
3.78255e-05
-2.94734e-20
8.00169e-20
3.84747e-05
-2.04559e-20
8.12788e-20
3.91341e-05
-2.30697e-20
8.79063e-20
3.98037e-05
-2.35049e-20
8.84774e-20
4.04838e-05
-2.14217e-20
8.45175e-20
4.11745e-05
-2.53342e-20
8.44272e-20
4.18759e-05
-2.67252e-20
8.74047e-20
4.25882e-05
-3.33556e-20
8.70088e-20
4.33116e-05
-2.60768e-20
9.26708e-20
4.40463e-05
-3.15547e-20
9.56568e-20
4.47923e-05
-3.43341e-20
9.59013e-20
4.555e-05
-2.94655e-20
9.94114e-20
4.63194e-05
-2.30886e-20
1.06051e-19
4.71008e-05
-2.3971e-20
1.04376e-19
4.78943e-05
-1.82759e-20
1.05778e-19
4.87001e-05
-1.64389e-20
1.04606e-19
4.95184e-05
-1.80844e-20
1.08998e-19
5.03493e-05
-1.37241e-20
1.10983e-19
5.11932e-05
-1.47365e-20
1.12663e-19
5.20501e-05
-2.4096e-20
1.1729e-19
5.29202e-05
-2.31688e-20
1.20939e-19
5.38038e-05
-2.15047e-20
1.19061e-19
5.47011e-05
-2.14343e-20
1.215e-19
5.56122e-05
-2.25009e-20
1.1991e-19
5.65374e-05
-2.78141e-20
1.20122e-19
5.74769e-05
-2.79389e-20
1.22013e-19
5.84308e-05
-3.46907e-20
1.30136e-19
5.93995e-05
-3.58735e-20
1.36485e-19
6.03831e-05
-3.48759e-20
1.36489e-19
6.13819e-05
-5.2148e-20
1.53871e-19
6.2396e-05
-4.51109e-20
1.62195e-19
6.34258e-05
-3.70146e-20
1.60481e-19
6.44714e-05
-3.72892e-20
1.71985e-19
6.55331e-05
-2.53455e-20
1.72255e-19
6.6611e-05
-2.65459e-20
1.68583e-19
6.77056e-05
-2.99978e-20
1.85145e-19
6.88169e-05
-2.97648e-20
1.79076e-19
6.99453e-05
-2.14614e-20
1.69643e-19
7.1091e-05
-4.3358e-22
1.65695e-19
7.22543e-05
-4.24952e-21
1.84902e-19
7.34354e-05
-8.15007e-21
1.81331e-19
7.46345e-05
-2.21634e-20
1.7615e-19
7.58521e-05
-2.22856e-20
1.88523e-19
7.70882e-05
-4.29468e-20
1.84138e-19
7.83433e-05
-4.60681e-20
1.70735e-19
7.96175e-05
-5.0968e-20
1.59617e-19
8.09112e-05
-5.99731e-20
1.55839e-19
8.22247e-05
-5.14588e-20
1.56936e-19
8.35582e-05
-6.53727e-20
1.54062e-19
8.4912e-05
-6.49686e-20
1.46652e-19
8.62865e-05
-5.61857e-20
1.32374e-19
8.76819e-05
-4.46123e-20
1.26115e-19
8.90985e-05
-5.81002e-20
1.41888e-19
9.05367e-05
-5.33336e-20
1.32521e-19
9.19968e-05
-3.98071e-20
1.30859e-19
9.34791e-05
-4.40076e-20
1.38475e-19
9.49839e-05
-5.48682e-20
1.35824e-19
9.65116e-05
-4.76201e-20
1.16404e-19
9.80624e-05
-7.37827e-20
1.25767e-19
9.96368e-05
-8.60455e-20
1.14848e-19
0.000101235
-1.12712e-19
1.103e-19
0.000102858
-1.10514e-19
9.64625e-20
0.000104505
-1.21119e-19
9.25614e-20
0.000106177
-1.26544e-19
8.94318e-20
0.000107874
-1.2297e-19
1.00629e-19
0.000109597
-1.17129e-19
7.78484e-20
0.000111346
-1.10085e-19
7.67566e-20
0.000113121
-1.21807e-19
7.64127e-20
0.000114923
-1.07842e-19
6.34513e-20
0.000116753
-1.08303e-19
6.70021e-20
0.00011861
-8.98579e-20
7.06891e-20
0.000120494
-7.30358e-20
6.79022e-20
0.000122408
-5.57097e-20
6.24366e-20
0.00012435
-3.64896e-20
8.41476e-20
0.000126321
-3.57649e-20
7.00567e-20
0.000128322
-1.97687e-20
5.93435e-20
0.000130353
-2.87889e-20
7.83281e-20
0.000132415
-1.45303e-20
4.87518e-20
0.000134507
-3.55429e-20
3.38353e-20
0.000136631
-4.17891e-20
6.77791e-20
0.000138786
-3.74336e-20
3.81144e-20
0.000140974
-5.71356e-20
2.87515e-20
0.000143195
-4.31333e-20
3.11609e-20
0.000145449
-4.77542e-20
2.49889e-21
0.000147736
-4.79546e-20
3.72109e-21
0.000150058
-8.3193e-20
1.51381e-20
0.000152415
-1.46786e-19
7.60497e-21
0.000154806
-1.33454e-19
-1.10689e-20
0.000157233
-1.06551e-19
-2.30415e-20
0.000159696
-8.90359e-20
-2.91038e-20
0.000162196
-1.2396e-19
-2.8568e-20
0.000164733
-1.64262e-19
-4.1702e-20
0.000167308
-1.66904e-19
-6.01996e-20
0.000169921
-1.72042e-19
-5.28181e-20
0.000172573
-1.18702e-19
-8.26995e-20
0.000175264
-1.16828e-19
-9.61661e-20
0.000177995
-1.26141e-19
-6.21021e-20
0.000180767
-1.2238e-19
-7.12555e-20
0.000183579
-6.03099e-20
-9.23568e-20
0.000186433
2.29919e-20
-1.12719e-19
0.000189329
-2.12627e-20
-1.18012e-19
0.000192268
-8.8123e-20
-8.07539e-20
0.00019525
-9.72614e-20
-1.11728e-19
0.000198276
-1.09695e-19
-1.27229e-19
0.000201346
-1.1707e-19
-1.55497e-19
0.000204462
-1.95766e-19
-1.13203e-19
0.000207623
-1.66596e-19
-1.17286e-19
0.000210831
-1.4572e-19
-8.16613e-20
0.000214086
-2.01238e-19
-4.04944e-20
0.000217389
-2.03075e-19
-6.90657e-20
0.000220739
-1.77887e-19
-8.04659e-20
0.000224139
-2.07923e-19
-1.08808e-19
0.000227588
-2.17446e-19
-1.24483e-19
0.000231088
-2.23011e-19
-1.40992e-19
0.000234639
-2.30585e-19
-1.39901e-19
0.000238241
-2.32693e-19