/*--------------------------------*- C++ -*----------------------------------*\
| =========                 |                                                 |
| \\      /  F ield         | OpenFOAM: The Open Source CFD Toolbox           |
|  \\    /   O peration     | Version:  2012                                  |
|   \\  /    A nd           | Website:  www.openfoam.com                      |
|    \\/     M anipulation  |                                                 |
\*---------------------------------------------------------------------------*/
FoamFile
{
    version     2.0;
    format      ascii;
    class       volSymmTensorField;
    location    "4000";
    object      turbulenceProperties:R;
}
// * * * * * * * * * * * * * * * * * * * * * * * * * * * * * * * * * * * * * //

dimensions      [0 2 -2 0 0 0 0];


internalField   nonuniform List<symmTensor> 
2560
(
(1.32459e-06 -6.04028e-10 -8.74374e-13 1.32459e-06 2.09104e-24 1.32459e-06)
(1.32459e-06 -6.04028e-10 -8.74374e-13 1.32459e-06 -1.27665e-28 1.32459e-06)
(3.13276e-07 -8.21043e-10 -3.58299e-12 3.13276e-07 3.3821e-25 3.13276e-07)
(3.13276e-07 -8.21043e-10 -3.58299e-12 3.13276e-07 -1.77637e-28 3.13276e-07)
(9.14524e-07 -7.06918e-09 -4.24332e-11 9.14524e-07 1.66361e-24 9.14524e-07)
(9.14524e-07 -7.06918e-09 -4.24332e-11 9.14524e-07 -6.77284e-28 9.14524e-07)
(3.18157e-06 -5.21242e-08 -3.17416e-10 3.18157e-06 1.32595e-23 3.18157e-06)
(3.18157e-06 -5.21242e-08 -3.17416e-10 3.18157e-06 -4.8145e-27 3.18157e-06)
(8.27743e-06 -2.3895e-07 -1.47616e-09 8.27743e-06 4.96932e-23 8.27743e-06)
(8.27743e-06 -2.3895e-07 -1.47616e-09 8.27743e-06 -9.32497e-27 8.27743e-06)
(1.76823e-05 -8.01631e-07 -5.02353e-09 1.76823e-05 1.65058e-22 1.76823e-05)
(1.76823e-05 -8.01631e-07 -5.02353e-09 1.76823e-05 3.5843e-26 1.76823e-05)
(3.31108e-05 -2.17975e-06 -1.38548e-08 3.31108e-05 4.46651e-22 3.31108e-05)
(3.31108e-05 -2.17975e-06 -1.38548e-08 3.31108e-05 3.40908e-25 3.31108e-05)
(5.64727e-05 -5.0978e-06 -3.28589e-08 5.64727e-05 1.03839e-21 5.64727e-05)
(5.64727e-05 -5.0978e-06 -3.28589e-08 5.64727e-05 9.02726e-25 5.64727e-05)
(8.98166e-05 -1.06326e-05 -6.94828e-08 8.98166e-05 2.11002e-21 8.98166e-05)
(8.98166e-05 -1.06326e-05 -6.94828e-08 8.98166e-05 1.86088e-24 8.98166e-05)
(0.000135239 -2.02417e-05 -1.34061e-07 0.000135239 3.81989e-21 0.000135239)
(0.000135239 -2.02417e-05 -1.34061e-07 0.000135239 5.94939e-24 0.000135239)
(0.000194743 -3.57168e-05 -2.39644e-07 0.000194743 6.20405e-21 0.000194743)
(0.000194743 -3.57168e-05 -2.39644e-07 0.000194743 1.66653e-23 0.000194743)
(0.000270056 -5.90325e-05 -4.01083e-07 0.000270056 9.0062e-21 0.000270056)
(0.000270056 -5.90325e-05 -4.01083e-07 0.000270056 3.52518e-23 0.000270056)
(0.000362401 -9.2082e-05 -6.33254e-07 0.000362401 1.15293e-20 0.000362401)
(0.000362401 -9.2082e-05 -6.33254e-07 0.000362401 6.80021e-23 0.000362401)
(0.000472277 -0.000136337 -9.48675e-07 0.000472277 1.25782e-20 0.000472277)
(0.000472277 -0.000136337 -9.48675e-07 0.000472277 1.42331e-22 0.000472277)
(0.000599292 -0.000192513 -1.35508e-06 0.000599292 1.06107e-20 0.000599292)
(0.000599292 -0.000192513 -1.35508e-06 0.000599292 2.78196e-22 0.000599292)
(0.000742096 -0.000260356 -1.85369e-06 0.000742096 2.42882e-22 0.000742096)
(0.000742096 -0.000260356 -1.85369e-06 0.000742096 4.30834e-22 0.000742096)
(0.000898454 -0.000338613 -2.43884e-06 0.000898454 -3.45149e-21 0.000898454)
(0.000898454 -0.000338613 -2.43884e-06 0.000898454 5.97485e-22 0.000898454)
(0.00106546 -0.000425224 -3.09896e-06 0.00106546 -2.58456e-20 0.00106546)
(0.00106546 -0.000425224 -3.09896e-06 0.00106546 8.52618e-22 0.00106546)
(0.00123982 -0.000517641 -3.81859e-06 0.00123982 -4.87402e-20 0.00123982)
(0.00123982 -0.000517641 -3.81859e-06 0.00123982 1.17529e-21 0.00123982)
(0.00141816 -0.000613198 -4.58075e-06 0.00141816 -7.50507e-20 0.00141816)
(0.00141816 -0.000613198 -4.58075e-06 0.00141816 1.75776e-21 0.00141816)
(0.00159731 -0.000709418 -5.36895e-06 0.00159731 -1.02849e-19 0.00159731)
(0.00159731 -0.000709418 -5.36895e-06 0.00159731 2.58467e-21 0.00159731)
(0.00177451 -0.000804211 -6.16864e-06 0.00177451 -1.30305e-19 0.00177451)
(0.00177451 -0.000804211 -6.16864e-06 0.00177451 3.22209e-21 0.00177451)
(0.00194745 -0.000895962 -6.96792e-06 0.00194745 -1.5589e-19 0.00194745)
(0.00194745 -0.000895962 -6.96792e-06 0.00194745 3.67935e-21 0.00194745)
(0.00211439 -0.000983532 -7.7577e-06 0.00211439 -1.78076e-19 0.00211439)
(0.00211439 -0.000983532 -7.7577e-06 0.00211439 4.22259e-21 0.00211439)
(0.00227405 -0.0010662 -8.53149e-06 0.00227405 -1.96033e-19 0.00227405)
(0.00227405 -0.0010662 -8.53149e-06 0.00227405 5.29866e-21 0.00227405)
(0.00242561 -0.00114358 -9.28503e-06 0.00242561 -2.09798e-19 0.00242561)
(0.00242561 -0.00114358 -9.28503e-06 0.00242561 7.07926e-21 0.00242561)
(0.00256859 -0.00121554 -1.00158e-05 0.00256859 -2.18705e-19 0.00256859)
(0.00256859 -0.00121554 -1.00158e-05 0.00256859 9.00233e-21 0.00256859)
(0.00270281 -0.00128213 -1.07226e-05 0.00270281 -2.23389e-19 0.00270281)
(0.00270281 -0.00128213 -1.07226e-05 0.00270281 1.02588e-20 0.00270281)
(0.00282828 -0.00134354 -1.14051e-05 0.00282828 -2.24075e-19 0.00282828)
(0.00282828 -0.00134354 -1.14051e-05 0.00282828 1.04255e-20 0.00282828)
(0.00294519 -0.00140001 -1.20639e-05 0.00294519 -2.20762e-19 0.00294519)
(0.00294519 -0.00140001 -1.20639e-05 0.00294519 1.06151e-20 0.00294519)
(0.00305383 -0.00145183 -1.26998e-05 0.00305383 -2.13929e-19 0.00305383)
(0.00305383 -0.00145183 -1.26998e-05 0.00305383 1.22822e-20 0.00305383)
(0.00315456 -0.00149931 -1.33138e-05 0.00315456 -2.04172e-19 0.00315456)
(0.00315456 -0.00149931 -1.33138e-05 0.00315456 1.5383e-20 0.00315456)
(0.00324777 -0.00154276 -1.39074e-05 0.00324777 -1.91709e-19 0.00324777)
(0.00324777 -0.00154276 -1.39074e-05 0.00324777 1.81039e-20 0.00324777)
(0.00333388 -0.00158248 -1.44818e-05 0.00333388 -1.76839e-19 0.00333388)
(0.00333388 -0.00158248 -1.44818e-05 0.00333388 2.023e-20 0.00333388)
(0.00341331 -0.00161877 -1.50383e-05 0.00341331 -1.6e-19 0.00341331)
(0.00341331 -0.00161877 -1.50383e-05 0.00341331 2.10155e-20 0.00341331)
(0.00348647 -0.00165189 -1.55783e-05 0.00348647 -1.40634e-19 0.00348647)
(0.00348647 -0.00165189 -1.55783e-05 0.00348647 2.13767e-20 0.00348647)
(0.00355377 -0.00168209 -1.6103e-05 0.00355377 -1.20155e-19 0.00355377)
(0.00355377 -0.00168209 -1.6103e-05 0.00355377 2.31995e-20 0.00355377)
(0.00361559 -0.0017096 -1.66136e-05 0.00361559 -9.91959e-20 0.00361559)
(0.00361559 -0.0017096 -1.66136e-05 0.00361559 2.55411e-20 0.00361559)
(0.00367229 -0.00173463 -1.71112e-05 0.00367229 -7.68023e-20 0.00367229)
(0.00367229 -0.00173463 -1.71112e-05 0.00367229 2.80956e-20 0.00367229)
(0.00372421 -0.00175737 -1.75967e-05 0.00372421 -5.20004e-20 0.00372421)
(0.00372421 -0.00175737 -1.75967e-05 0.00372421 3.09109e-20 0.00372421)
(0.00377166 -0.001778 -1.80711e-05 0.00377166 -2.67592e-20 0.00377166)
(0.00377166 -0.001778 -1.80711e-05 0.00377166 3.46204e-20 0.00377166)
(0.00381495 -0.00179667 -1.85352e-05 0.00381495 -5.8763e-22 0.00381495)
(0.00381495 -0.00179667 -1.85352e-05 0.00381495 3.45778e-20 0.00381495)
(0.00385433 -0.00181353 -1.89898e-05 0.00385433 2.65658e-20 0.00385433)
(0.00385433 -0.00181353 -1.89898e-05 0.00385433 3.09988e-20 0.00385433)
(0.00389008 -0.00182871 -1.94357e-05 0.00389008 5.39022e-20 0.00389008)
(0.00389008 -0.00182871 -1.94357e-05 0.00389008 3.22473e-20 0.00389008)
(0.00392241 -0.00184232 -1.98734e-05 0.00392241 8.4016e-20 0.00392241)
(0.00392241 -0.00184232 -1.98734e-05 0.00392241 4.02286e-20 0.00392241)
(0.00395155 -0.00185448 -2.03035e-05 0.00395155 1.14087e-19 0.00395155)
(0.00395155 -0.00185448 -2.03035e-05 0.00395155 4.45847e-20 0.00395155)
(0.0039777 -0.00186528 -2.07266e-05 0.0039777 1.44243e-19 0.0039777)
(0.0039777 -0.00186528 -2.07266e-05 0.0039777 4.40117e-20 0.0039777)
(0.00400103 -0.00187481 -2.11431e-05 0.00400103 1.74635e-19 0.00400103)
(0.00400103 -0.00187481 -2.11431e-05 0.00400103 4.58774e-20 0.00400103)
(0.00402173 -0.00188315 -2.15534e-05 0.00402173 2.04623e-19 0.00402173)
(0.00402173 -0.00188315 -2.15534e-05 0.00402173 4.74568e-20 0.00402173)
(0.00403994 -0.00189038 -2.1958e-05 0.00403994 2.37441e-19 0.00403994)
(0.00403994 -0.00189038 -2.1958e-05 0.00403994 4.6347e-20 0.00403994)
(0.00405581 -0.00189656 -2.23572e-05 0.00405581 2.67787e-19 0.00405581)
(0.00405581 -0.00189656 -2.23572e-05 0.00405581 4.50186e-20 0.00405581)
(0.00406948 -0.00190176 -2.27514e-05 0.00406948 2.98541e-19 0.00406948)
(0.00406948 -0.00190176 -2.27514e-05 0.00406948 4.7973e-20 0.00406948)
(0.00408107 -0.00190603 -2.31407e-05 0.00408107 3.31605e-19 0.00408107)
(0.00408107 -0.00190603 -2.31407e-05 0.00408107 5.63587e-20 0.00408107)
(0.00409069 -0.00190942 -2.35255e-05 0.00409069 3.61756e-19 0.00409069)
(0.00409069 -0.00190942 -2.35255e-05 0.00409069 6.27619e-20 0.00409069)
(0.00409846 -0.00191199 -2.3906e-05 0.00409846 3.9364e-19 0.00409846)
(0.00409846 -0.00191199 -2.3906e-05 0.00409846 6.70708e-20 0.00409846)
(0.00410447 -0.00191377 -2.42824e-05 0.00410447 4.28889e-19 0.00410447)
(0.00410447 -0.00191377 -2.42824e-05 0.00410447 6.65336e-20 0.00410447)
(0.00410881 -0.00191482 -2.46549e-05 0.00410881 4.15823e-19 0.00410881)
(0.00410881 -0.00191482 -2.46549e-05 0.00410881 6.05649e-20 0.00410881)
(0.00411156 -0.00191516 -2.50236e-05 0.00411156 3.31825e-19 0.00411156)
(0.00411156 -0.00191516 -2.50236e-05 0.00411156 6.92954e-20 0.00411156)
(0.00411282 -0.00191484 -2.53888e-05 0.00411282 2.91932e-19 0.00411282)
(0.00411282 -0.00191484 -2.53888e-05 0.00411282 8.23715e-20 0.00411282)
(0.00411265 -0.00191388 -2.57506e-05 0.00411265 3.1876e-19 0.00411265)
(0.00411265 -0.00191388 -2.57506e-05 0.00411265 8.90631e-20 0.00411265)
(0.00411113 -0.00191232 -2.6109e-05 0.00411113 3.46402e-19 0.00411113)
(0.00411113 -0.00191232 -2.6109e-05 0.00411113 8.31357e-20 0.00411113)
(0.00410832 -0.00191019 -2.64642e-05 0.00410832 3.75116e-19 0.00410832)
(0.00410832 -0.00191019 -2.64642e-05 0.00410832 7.11437e-20 0.00410832)
(0.00410427 -0.00190751 -2.68163e-05 0.00410427 4.05307e-19 0.00410427)
(0.00410427 -0.00190751 -2.68163e-05 0.00410427 8.72185e-20 0.00410427)
(0.00409906 -0.00190431 -2.71654e-05 0.00409906 4.35232e-19 0.00409906)
(0.00409906 -0.00190431 -2.71654e-05 0.00409906 9.86308e-20 0.00409906)
(0.00409272 -0.00190061 -2.75116e-05 0.00409272 4.67741e-19 0.00409272)
(0.00409272 -0.00190061 -2.75116e-05 0.00409272 9.33421e-20 0.00409272)
(0.00408532 -0.00189643 -2.78549e-05 0.00408532 5.02223e-19 0.00408532)
(0.00408532 -0.00189643 -2.78549e-05 0.00408532 9.49539e-20 0.00408532)
(0.00407691 -0.0018918 -2.81953e-05 0.00407691 5.34569e-19 0.00407691)
(0.00407691 -0.0018918 -2.81953e-05 0.00407691 1.0509e-19 0.00407691)
(0.00406752 -0.00188674 -2.8533e-05 0.00406752 5.56388e-19 0.00406752)
(0.00406752 -0.00188674 -2.8533e-05 0.00406752 1.25613e-19 0.00406752)
(0.00405719 -0.00188126 -2.8868e-05 0.00405719 5.92229e-19 0.00405719)
(0.00405719 -0.00188126 -2.8868e-05 0.00405719 1.29739e-19 0.00405719)
(0.00404598 -0.00187538 -2.92003e-05 0.00404598 6.27298e-19 0.00404598)
(0.00404598 -0.00187538 -2.92003e-05 0.00404598 1.09135e-19 0.00404598)
(0.00403392 -0.00186912 -2.953e-05 0.00403392 6.53628e-19 0.00403392)
(0.00403392 -0.00186912 -2.953e-05 0.00403392 1.0023e-19 0.00403392)
(0.00402104 -0.0018625 -2.9857e-05 0.00402104 6.89605e-19 0.00402104)
(0.00402104 -0.0018625 -2.9857e-05 0.00402104 1.22811e-19 0.00402104)
(0.00400739 -0.00185553 -3.01814e-05 0.00400739 7.21047e-19 0.00400739)
(0.00400739 -0.00185553 -3.01814e-05 0.00400739 1.41188e-19 0.00400739)
(0.00399298 -0.00184822 -3.05033e-05 0.00399298 7.5416e-19 0.00399298)
(0.00399298 -0.00184822 -3.05033e-05 0.00399298 1.34195e-19 0.00399298)
(0.00397786 -0.00184059 -3.08226e-05 0.00397786 7.79406e-19 0.00397786)
(0.00397786 -0.00184059 -3.08226e-05 0.00397786 1.19605e-19 0.00397786)
(0.00396206 -0.00183266 -3.11393e-05 0.00396206 8.15016e-19 0.00396206)
(0.00396206 -0.00183266 -3.11393e-05 0.00396206 1.23449e-19 0.00396206)
(0.0039456 -0.00182443 -3.14535e-05 0.0039456 8.53034e-19 0.0039456)
(0.0039456 -0.00182443 -3.14535e-05 0.0039456 1.43595e-19 0.0039456)
(0.0039285 -0.00181591 -3.17652e-05 0.0039285 8.93255e-19 0.0039285)
(0.0039285 -0.00181591 -3.17652e-05 0.0039285 1.64718e-19 0.0039285)
(0.00391081 -0.00180713 -3.20743e-05 0.00391081 9.31396e-19 0.00391081)
(0.00391081 -0.00180713 -3.20743e-05 0.00391081 1.72247e-19 0.00391081)
(0.00389253 -0.00179809 -3.23809e-05 0.00389253 9.56462e-19 0.00389253)
(0.00389253 -0.00179809 -3.23809e-05 0.00389253 1.4125e-19 0.00389253)
(0.0038737 -0.0017888 -3.26849e-05 0.0038737 9.88516e-19 0.0038737)
(0.0038737 -0.0017888 -3.26849e-05 0.0038737 1.30454e-19 0.0038737)
(0.00385435 -0.00177927 -3.29864e-05 0.00385435 1.03816e-18 0.00385435)
(0.00385435 -0.00177927 -3.29864e-05 0.00385435 1.81974e-19 0.00385435)
(0.00383448 -0.00176952 -3.32853e-05 0.00383448 1.07033e-18 0.00383448)
(0.00383448 -0.00176952 -3.32853e-05 0.00383448 2.13585e-19 0.00383448)
(0.00381412 -0.00175955 -3.35816e-05 0.00381412 1.09433e-18 0.00381412)
(0.00381412 -0.00175955 -3.35816e-05 0.00381412 2.13642e-19 0.00381412)
(0.0037933 -0.00174936 -3.38753e-05 0.0037933 1.14152e-18 0.0037933)
(0.0037933 -0.00174936 -3.38753e-05 0.0037933 2.18985e-19 0.0037933)
(0.00377203 -0.00173898 -3.41665e-05 0.00377203 1.18229e-18 0.00377203)
(0.00377203 -0.00173898 -3.41665e-05 0.00377203 1.8267e-19 0.00377203)
(0.00375033 -0.00172841 -3.4455e-05 0.00375033 1.20917e-18 0.00375033)
(0.00375033 -0.00172841 -3.4455e-05 0.00375033 1.72814e-19 0.00375033)
(0.00372823 -0.00171766 -3.47409e-05 0.00372823 1.24974e-18 0.00372823)
(0.00372823 -0.00171766 -3.47409e-05 0.00372823 2.27365e-19 0.00372823)
(0.00370573 -0.00170674 -3.50242e-05 0.00370573 1.29737e-18 0.00370573)
(0.00370573 -0.00170674 -3.50242e-05 0.00370573 2.4042e-19 0.00370573)
(0.00368286 -0.00169565 -3.53048e-05 0.00368286 1.35676e-18 0.00368286)
(0.00368286 -0.00169565 -3.53048e-05 0.00368286 2.19138e-19 0.00368286)
(0.00365963 -0.0016844 -3.55827e-05 0.00365963 1.42153e-18 0.00365963)
(0.00365963 -0.0016844 -3.55827e-05 0.00365963 2.36229e-19 0.00365963)
(0.00363606 -0.001673 -3.58579e-05 0.00363606 1.4498e-18 0.00363606)
(0.00363606 -0.001673 -3.58579e-05 0.00363606 2.72432e-19 0.00363606)
(0.00361217 -0.00166146 -3.61304e-05 0.00361217 1.48925e-18 0.00361217)
(0.00361217 -0.00166146 -3.61304e-05 0.00361217 2.60314e-19 0.00361217)
(0.00358796 -0.00164979 -3.64002e-05 0.00358796 1.53147e-18 0.00358796)
(0.00358796 -0.00164979 -3.64002e-05 0.00358796 2.25884e-19 0.00358796)
(0.00356346 -0.00163799 -3.66672e-05 0.00356346 1.53657e-18 0.00356346)
(0.00356346 -0.00163799 -3.66672e-05 0.00356346 2.64311e-19 0.00356346)
(0.00353869 -0.00162606 -3.69314e-05 0.00353869 1.59721e-18 0.00353869)
(0.00353869 -0.00162606 -3.69314e-05 0.00353869 3.43107e-19 0.00353869)
(0.00351364 -0.00161402 -3.71927e-05 0.00351364 1.71013e-18 0.00351364)
(0.00351364 -0.00161402 -3.71927e-05 0.00351364 3.38882e-19 0.00351364)
(0.00348834 -0.00160188 -3.74513e-05 0.00348834 1.74574e-18 0.00348834)
(0.00348834 -0.00160188 -3.74513e-05 0.00348834 2.71142e-19 0.00348834)
(0.00346281 -0.00158963 -3.7707e-05 0.00346281 1.75943e-18 0.00346281)
(0.00346281 -0.00158963 -3.7707e-05 0.00346281 2.49523e-19 0.00346281)
(0.00343704 -0.00157728 -3.79598e-05 0.00343704 1.80221e-18 0.00343704)
(0.00343704 -0.00157728 -3.79598e-05 0.00343704 2.84302e-19 0.00343704)
(0.00341106 -0.00156485 -3.82098e-05 0.00341106 1.88527e-18 0.00341106)
(0.00341106 -0.00156485 -3.82098e-05 0.00341106 3.05149e-19 0.00341106)
(0.00338489 -0.00155233 -3.84568e-05 0.00338489 1.9301e-18 0.00338489)
(0.00338489 -0.00155233 -3.84568e-05 0.00338489 3.2558e-19 0.00338489)
(0.00335852 -0.00153974 -3.87008e-05 0.00335852 1.94141e-18 0.00335852)
(0.00335852 -0.00153974 -3.87008e-05 0.00335852 3.67276e-19 0.00335852)
(0.00333197 -0.00152707 -3.89419e-05 0.00333197 2.02468e-18 0.00333197)
(0.00333197 -0.00152707 -3.89419e-05 0.00333197 3.33086e-19 0.00333197)
(0.00330526 -0.00151433 -3.918e-05 0.00330526 2.11557e-18 0.00330526)
(0.00330526 -0.00151433 -3.918e-05 0.00330526 3.25678e-19 0.00330526)
(0.00327839 -0.00150153 -3.94151e-05 0.00327839 2.12787e-18 0.00327839)
(0.00327839 -0.00150153 -3.94151e-05 0.00327839 3.37283e-19 0.00327839)
(0.00325137 -0.00148868 -3.96472e-05 0.00325137 2.17489e-18 0.00325137)
(0.00325137 -0.00148868 -3.96472e-05 0.00325137 2.8297e-19 0.00325137)
(0.00322422 -0.00147577 -3.98762e-05 0.00322422 2.28476e-18 0.00322422)
(0.00322422 -0.00147577 -3.98762e-05 0.00322422 3.0335e-19 0.00322422)
(0.00319695 -0.00146282 -4.01021e-05 0.00319695 2.36082e-18 0.00319695)
(0.00319695 -0.00146282 -4.01021e-05 0.00319695 3.79145e-19 0.00319695)
(0.00316957 -0.00144982 -4.03249e-05 0.00316957 2.41225e-18 0.00316957)
(0.00316957 -0.00144982 -4.03249e-05 0.00316957 4.11568e-19 0.00316957)
(0.00314208 -0.00143679 -4.05446e-05 0.00314208 2.46804e-18 0.00314208)
(0.00314208 -0.00143679 -4.05446e-05 0.00314208 4.37714e-19 0.00314208)
(0.00311449 -0.00142373 -4.07612e-05 0.00311449 2.52003e-18 0.00311449)
(0.00311449 -0.00142373 -4.07612e-05 0.00311449 4.59502e-19 0.00311449)
(0.00308682 -0.00141063 -4.09746e-05 0.00308682 2.55999e-18 0.00308682)
(0.00308682 -0.00141063 -4.09746e-05 0.00308682 4.76662e-19 0.00308682)
(0.00305908 -0.00139751 -4.11848e-05 0.00305908 2.62671e-18 0.00305908)
(0.00305908 -0.00139751 -4.11848e-05 0.00305908 4.76414e-19 0.00305908)
(0.00303126 -0.00138438 -4.13918e-05 0.00303126 2.73786e-18 0.00303126)
(0.00303126 -0.00138438 -4.13918e-05 0.00303126 4.71128e-19 0.00303126)
(0.00300339 -0.00137122 -4.15955e-05 0.00300339 2.84373e-18 0.00300339)
(0.00300339 -0.00137122 -4.15955e-05 0.00300339 4.5357e-19 0.00300339)
(0.00297547 -0.00135806 -4.17961e-05 0.00297547 2.98009e-18 0.00297547)
(0.00297547 -0.00135806 -4.17961e-05 0.00297547 4.62614e-19 0.00297547)
(0.00294751 -0.00134488 -4.19933e-05 0.00294751 3.00348e-18 0.00294751)
(0.00294751 -0.00134488 -4.19933e-05 0.00294751 5.04286e-19 0.00294751)
(0.00291951 -0.00133171 -4.21873e-05 0.00291951 2.99244e-18 0.00291951)
(0.00291951 -0.00133171 -4.21873e-05 0.00291951 5.63134e-19 0.00291951)
(0.00289149 -0.00131853 -4.2378e-05 0.00289149 3.14184e-18 0.00289149)
(0.00289149 -0.00131853 -4.2378e-05 0.00289149 6.10004e-19 0.00289149)
(0.00286345 -0.00130536 -4.25654e-05 0.00286345 3.26684e-18 0.00286345)
(0.00286345 -0.00130536 -4.25654e-05 0.00286345 6.09021e-19 0.00286345)
(0.0028354 -0.00129219 -4.27495e-05 0.0028354 3.32261e-18 0.0028354)
(0.0028354 -0.00129219 -4.27495e-05 0.0028354 5.89222e-19 0.0028354)
(0.00280735 -0.00127903 -4.29302e-05 0.00280735 3.36559e-18 0.00280735)
(0.00280735 -0.00127903 -4.29302e-05 0.00280735 6.10364e-19 0.00280735)
(0.0027793 -0.00126589 -4.31075e-05 0.0027793 3.50607e-18 0.0027793)
(0.0027793 -0.00126589 -4.31075e-05 0.0027793 6.63082e-19 0.0027793)
(0.00275127 -0.00125276 -4.32815e-05 0.00275127 3.58343e-18 0.00275127)
(0.00275127 -0.00125276 -4.32815e-05 0.00275127 6.56135e-19 0.00275127)
(0.00272325 -0.00123966 -4.34521e-05 0.00272325 3.57598e-18 0.00272325)
(0.00272325 -0.00123966 -4.34521e-05 0.00272325 6.2609e-19 0.00272325)
(0.00269526 -0.00122658 -4.36192e-05 0.00269526 3.5996e-18 0.00269526)
(0.00269526 -0.00122658 -4.36192e-05 0.00269526 7.02948e-19 0.00269526)
(0.00266729 -0.00121352 -4.3783e-05 0.00266729 3.66165e-18 0.00266729)
(0.00266729 -0.00121352 -4.3783e-05 0.00266729 8.52821e-19 0.00266729)
(0.00263937 -0.00120049 -4.39433e-05 0.00263937 3.80567e-18 0.00263937)
(0.00263937 -0.00120049 -4.39433e-05 0.00263937 8.73799e-19 0.00263937)
(0.00261149 -0.0011875 -4.41002e-05 0.00261149 3.95127e-18 0.00261149)
(0.00261149 -0.0011875 -4.41002e-05 0.00261149 8.33147e-19 0.00261149)
(0.00258366 -0.00117454 -4.42536e-05 0.00258366 3.95447e-18 0.00258366)
(0.00258366 -0.00117454 -4.42536e-05 0.00258366 8.44816e-19 0.00258366)
(0.00255589 -0.00116162 -4.44036e-05 0.00255589 4.03747e-18 0.00255589)
(0.00255589 -0.00116162 -4.44036e-05 0.00255589 8.82718e-19 0.00255589)
(0.00252817 -0.00114874 -4.455e-05 0.00252817 4.20962e-18 0.00252817)
(0.00252817 -0.00114874 -4.455e-05 0.00252817 9.39162e-19 0.00252817)
(0.00250053 -0.0011359 -4.4693e-05 0.00250053 4.35717e-18 0.00250053)
(0.00250053 -0.0011359 -4.4693e-05 0.00250053 9.11988e-19 0.00250053)
(0.00247296 -0.0011231 -4.48325e-05 0.00247296 4.42672e-18 0.00247296)
(0.00247296 -0.0011231 -4.48325e-05 0.00247296 8.713e-19 0.00247296)
(0.00244546 -0.00111035 -4.49685e-05 0.00244546 4.55411e-18 0.00244546)
(0.00244546 -0.00111035 -4.49685e-05 0.00244546 9.35349e-19 0.00244546)
(0.00241805 -0.00109766 -4.5101e-05 0.00241805 4.61142e-18 0.00241805)
(0.00241805 -0.00109766 -4.5101e-05 0.00241805 9.70298e-19 0.00241805)
(0.00239073 -0.00108501 -4.52299e-05 0.00239073 4.75074e-18 0.00239073)
(0.00239073 -0.00108501 -4.52299e-05 0.00239073 9.50424e-19 0.00239073)
(0.0023635 -0.00107242 -4.53554e-05 0.0023635 5.02987e-18 0.0023635)
(0.0023635 -0.00107242 -4.53554e-05 0.0023635 9.52714e-19 0.0023635)
(0.00233637 -0.00105989 -4.54773e-05 0.00233637 5.03462e-18 0.00233637)
(0.00233637 -0.00105989 -4.54773e-05 0.00233637 1.02671e-18 0.00233637)
(0.00230934 -0.00104741 -4.55956e-05 0.00230934 5.10949e-18 0.00230934)
(0.00230934 -0.00104741 -4.55956e-05 0.00230934 1.05602e-18 0.00230934)
(0.00228241 -0.00103499 -4.57104e-05 0.00228241 5.3108e-18 0.00228241)
(0.00228241 -0.00103499 -4.57104e-05 0.00228241 1.08096e-18 0.00228241)
(0.0022556 -0.00102264 -4.58216e-05 0.0022556 5.46512e-18 0.0022556)
(0.0022556 -0.00102264 -4.58216e-05 0.0022556 1.16285e-18 0.0022556)
(0.0022289 -0.00101035 -4.59293e-05 0.0022289 5.55011e-18 0.0022289)
(0.0022289 -0.00101035 -4.59293e-05 0.0022289 1.19205e-18 0.0022289)
(0.00220232 -0.00099812 -4.60334e-05 0.00220232 5.65056e-18 0.00220232)
(0.00220232 -0.00099812 -4.60334e-05 0.00220232 1.18264e-18 0.00220232)
(0.00217587 -0.000985961 -4.6134e-05 0.00217587 5.7639e-18 0.00217587)
(0.00217587 -0.000985961 -4.6134e-05 0.00217587 1.20552e-18 0.00217587)
(0.00214954 -0.000973871 -4.6231e-05 0.00214954 5.94815e-18 0.00214954)
(0.00214954 -0.000973871 -4.6231e-05 0.00214954 1.60242e-18 0.00214954)
(0.00212334 -0.000961851 -4.63244e-05 0.00212334 6.02051e-18 0.00212334)
(0.00212334 -0.000961851 -4.63244e-05 0.00212334 2.27878e-18 0.00212334)
(0.00209728 -0.000949902 -4.64142e-05 0.00209728 6.1201e-18 0.00209728)
(0.00209728 -0.000949902 -4.64142e-05 0.00209728 2.66072e-18 0.00209728)
(0.00207135 -0.000938027 -4.65005e-05 0.00207135 6.20265e-18 0.00207135)
(0.00207135 -0.000938027 -4.65005e-05 0.00207135 2.72225e-18 0.00207135)
(0.00204557 -0.000926226 -4.65831e-05 0.00204557 6.34228e-18 0.00204557)
(0.00204557 -0.000926226 -4.65831e-05 0.00204557 2.79997e-18 0.00204557)
(0.00201992 -0.000914501 -4.66622e-05 0.00201992 6.58891e-18 0.00201992)
(0.00201992 -0.000914501 -4.66622e-05 0.00201992 2.8106e-18 0.00201992)
(0.00199443 -0.000902853 -4.67377e-05 0.00199443 6.72431e-18 0.00199443)
(0.00199443 -0.000902853 -4.67377e-05 0.00199443 2.90935e-18 0.00199443)
(0.00196908 -0.000891283 -4.68096e-05 0.00196908 6.69649e-18 0.00196908)
(0.00196908 -0.000891283 -4.68096e-05 0.00196908 3.16555e-18 0.00196908)
(0.00194389 -0.000879792 -4.68779e-05 0.00194389 6.81123e-18 0.00194389)
(0.00194389 -0.000879792 -4.68779e-05 0.00194389 3.55312e-18 0.00194389)
(0.00191885 -0.000868381 -4.69426e-05 0.00191885 7.16975e-18 0.00191885)
(0.00191885 -0.000868381 -4.69426e-05 0.00191885 3.53267e-18 0.00191885)
(0.00189397 -0.000857052 -4.70038e-05 0.00189397 7.43261e-18 0.00189397)
(0.00189397 -0.000857052 -4.70038e-05 0.00189397 3.25783e-18 0.00189397)
(0.00186925 -0.000845804 -4.70613e-05 0.00186925 7.56229e-18 0.00186925)
(0.00186925 -0.000845804 -4.70613e-05 0.00186925 3.19059e-18 0.00186925)
(0.00184469 -0.00083464 -4.71153e-05 0.00184469 7.59696e-18 0.00184469)
(0.00184469 -0.00083464 -4.71153e-05 0.00184469 3.63269e-18 0.00184469)
(0.0018203 -0.000823559 -4.71656e-05 0.0018203 7.75282e-18 0.0018203)
(0.0018203 -0.000823559 -4.71656e-05 0.0018203 3.96122e-18 0.0018203)
(0.00179607 -0.000812563 -4.72124e-05 0.00179607 7.76448e-18 0.00179607)
(0.00179607 -0.000812563 -4.72124e-05 0.00179607 3.75905e-18 0.00179607)
(0.00177201 -0.000801653 -4.72555e-05 0.00177201 8.07096e-18 0.00177201)
(0.00177201 -0.000801653 -4.72555e-05 0.00177201 4.1354e-18 0.00177201)
(0.00174812 -0.000790828 -4.72951e-05 0.00174812 8.36288e-18 0.00174812)
(0.00174812 -0.000790828 -4.72951e-05 0.00174812 4.39803e-18 0.00174812)
(0.00172441 -0.000780091 -4.73311e-05 0.00172441 7.98532e-18 0.00172441)
(0.00172441 -0.000780091 -4.73311e-05 0.00172441 4.31697e-18 0.00172441)
(0.00170087 -0.00076944 -4.73635e-05 0.00170087 8.20526e-18 0.00170087)
(0.00170087 -0.00076944 -4.73635e-05 0.00170087 4.53037e-18 0.00170087)
(0.0016775 -0.000758877 -4.73922e-05 0.0016775 8.71641e-18 0.0016775)
(0.0016775 -0.000758877 -4.73922e-05 0.0016775 4.74741e-18 0.0016775)
(0.00165431 -0.000748403 -4.74174e-05 0.00165431 8.55406e-18 0.00165431)
(0.00165431 -0.000748403 -4.74174e-05 0.00165431 4.60769e-18 0.00165431)
(0.0016313 -0.000738017 -4.7439e-05 0.0016313 8.76675e-18 0.0016313)
(0.0016313 -0.000738017 -4.7439e-05 0.0016313 4.752e-18 0.0016313)
(0.00160847 -0.000727721 -4.7457e-05 0.00160847 9.05091e-18 0.00160847)
(0.00160847 -0.000727721 -4.7457e-05 0.00160847 5.02038e-18 0.00160847)
(0.00158582 -0.000717513 -4.74714e-05 0.00158582 8.50614e-18 0.00158582)
(0.00158582 -0.000717513 -4.74714e-05 0.00158582 5.07573e-18 0.00158582)
(0.00156335 -0.000707396 -4.74822e-05 0.00156335 2.22079e-19 0.00156335)
(0.00156335 -0.000707396 -4.74822e-05 0.00156335 5.31e-18 0.00156335)
(0.00154107 -0.000697369 -4.74894e-05 0.00154107 -4.22729e-19 0.00154107)
(0.00154107 -0.000697369 -4.74894e-05 0.00154107 5.60024e-18 0.00154107)
(0.00151897 -0.000687431 -4.7493e-05 0.00151897 -4.16605e-19 0.00151897)
(0.00151897 -0.000687431 -4.7493e-05 0.00151897 5.71785e-18 0.00151897)
(0.00149705 -0.000677585 -4.7493e-05 0.00149705 -3.3494e-19 0.00149705)
(0.00149705 -0.000677585 -4.7493e-05 0.00149705 5.93905e-18 0.00149705)
(0.00147532 -0.000667829 -4.74893e-05 0.00147532 -5.07687e-19 0.00147532)
(0.00147532 -0.000667829 -4.74893e-05 0.00147532 6.11303e-18 0.00147532)
(0.00145378 -0.000658163 -4.74821e-05 0.00145378 -6.19652e-19 0.00145378)
(0.00145378 -0.000658163 -4.74821e-05 0.00145378 6.27783e-18 0.00145378)
(0.00143242 -0.000648589 -4.74713e-05 0.00143242 -9.79495e-19 0.00143242)
(0.00143242 -0.000648589 -4.74713e-05 0.00143242 6.83365e-18 0.00143242)
(0.00141125 -0.000639105 -4.74568e-05 0.00141125 -1.09843e-18 0.00141125)
(0.00141125 -0.000639105 -4.74568e-05 0.00141125 6.70033e-18 0.00141125)
(0.00139027 -0.000629712 -4.74387e-05 0.00139027 -8.92458e-19 0.00139027)
(0.00139027 -0.000629712 -4.74387e-05 0.00139027 6.52547e-18 0.00139027)
(0.00136948 -0.00062041 -4.7417e-05 0.00136948 -9.77637e-19 0.00136948)
(0.00136948 -0.00062041 -4.7417e-05 0.00136948 7.00117e-18 0.00136948)
(0.00134887 -0.000611199 -4.73916e-05 0.00134887 -1.05139e-18 0.00134887)
(0.00134887 -0.000611199 -4.73916e-05 0.00134887 7.35712e-18 0.00134887)
(0.00132845 -0.000602078 -4.73626e-05 0.00132845 -1.41817e-18 0.00132845)
(0.00132845 -0.000602078 -4.73626e-05 0.00132845 7.65175e-18 0.00132845)
(0.00130823 -0.000593048 -4.733e-05 0.00130823 -1.55525e-18 0.00130823)
(0.00130823 -0.000593048 -4.733e-05 0.00130823 7.70354e-18 0.00130823)
(0.00128819 -0.000584108 -4.72937e-05 0.00128819 -1.72112e-18 0.00128819)
(0.00128819 -0.000584108 -4.72937e-05 0.00128819 7.86069e-18 0.00128819)
(0.00126834 -0.000575259 -4.72537e-05 0.00126834 -2.13302e-18 0.00126834)
(0.00126834 -0.000575259 -4.72537e-05 0.00126834 8.32677e-18 0.00126834)
(0.00124867 -0.000566499 -4.72101e-05 0.00124867 -2.28767e-18 0.00124867)
(0.00124867 -0.000566499 -4.72101e-05 0.00124867 8.5099e-18 0.00124867)
(0.0012292 -0.00055783 -4.71628e-05 0.0012292 -2.51185e-18 0.0012292)
(0.0012292 -0.00055783 -4.71628e-05 0.0012292 8.7172e-18 0.0012292)
(0.00120992 -0.000549249 -4.71118e-05 0.00120992 -2.52327e-18 0.00120992)
(0.00120992 -0.000549249 -4.71118e-05 0.00120992 9.06953e-18 0.00120992)
(0.00119082 -0.000540758 -4.70571e-05 0.00119082 -2.49097e-18 0.00119082)
(0.00119082 -0.000540758 -4.70571e-05 0.00119082 9.10297e-18 0.00119082)
(0.00117191 -0.000532356 -4.69987e-05 0.00117191 -2.72598e-18 0.00117191)
(0.00117191 -0.000532356 -4.69987e-05 0.00117191 9.44199e-18 0.00117191)
(0.00115319 -0.000524042 -4.69365e-05 0.00115319 -2.97885e-18 0.00115319)
(0.00115319 -0.000524042 -4.69365e-05 0.00115319 1.002e-17 0.00115319)
(0.00113465 -0.000515816 -4.68706e-05 0.00113465 -3.36292e-18 0.00113465)
(0.00113465 -0.000515816 -4.68706e-05 0.00113465 1.02264e-17 0.00113465)
(0.00111631 -0.000507678 -4.6801e-05 0.00111631 -3.15882e-18 0.00111631)
(0.00111631 -0.000507678 -4.6801e-05 0.00111631 9.8859e-18 0.00111631)
(0.00109814 -0.000499628 -4.67275e-05 0.00109814 -2.92779e-18 0.00109814)
(0.00109814 -0.000499628 -4.67275e-05 0.00109814 9.93885e-18 0.00109814)
(0.00108017 -0.000491664 -4.66503e-05 0.00108017 -3.66787e-18 0.00108017)
(0.00108017 -0.000491664 -4.66503e-05 0.00108017 1.10205e-17 0.00108017)
(0.00106238 -0.000483787 -4.65693e-05 0.00106238 -4.03513e-18 0.00106238)
(0.00106238 -0.000483787 -4.65693e-05 0.00106238 1.13634e-17 0.00106238)
(0.00104477 -0.000475996 -4.64844e-05 0.00104477 -3.20217e-18 0.00104477)
(0.00104477 -0.000475996 -4.64844e-05 0.00104477 1.02137e-17 0.00104477)
(0.00102734 -0.00046829 -4.63957e-05 0.00102734 -2.82789e-18 0.00102734)
(0.00102734 -0.00046829 -4.63957e-05 0.00102734 1.07769e-17 0.00102734)
(0.0010101 -0.000460669 -4.63032e-05 0.0010101 -3.89943e-18 0.0010101)
(0.0010101 -0.000460669 -4.63032e-05 0.0010101 1.24964e-17 0.0010101)
(0.000993042 -0.000453133 -4.62067e-05 0.000993042 -4.06723e-18 0.000993042)
(0.000993042 -0.000453133 -4.62067e-05 0.000993042 1.23007e-17 0.000993042)
(0.000976164 -0.000445681 -4.61063e-05 0.000976164 -3.15059e-18 0.000976164)
(0.000976164 -0.000445681 -4.61063e-05 0.000976164 1.33221e-17 0.000976164)
(0.000959466 -0.000438313 -4.6002e-05 0.000959466 -2.99523e-18 0.000959466)