/*--------------------------------*- C++ -*----------------------------------*\
| =========                 |                                                 |
| \\      /  F ield         | OpenFOAM: The Open Source CFD Toolbox           |
|  \\    /   O peration     | Version:  2012                                  |
|   \\  /    A nd           | Website:  www.openfoam.com                      |
|    \\/     M anipulation  |                                                 |
\*---------------------------------------------------------------------------*/
FoamFile
{
    version     2.0;
    format      ascii;
    class       volTensorField;
    location    "17000";
    object      grad(U);
}
// * * * * * * * * * * * * * * * * * * * * * * * * * * * * * * * * * * * * * //

dimensions      [0 0 -1 0 0 0 0];


internalField   nonuniform List<tensor> 
320
(
(0 -1.38169e-27 3.52888e-33 35.7196 -1.26111e-12 -1.26218e-29 0.401626 -1.34193e-14 2.54282e-17)
(0 -2.14231e-30 -1.33894e-31 35.7196 -7.54712e-15 -3.09449e-15 0.401626 -4.11006e-16 1.66073e-15)
(-2.67923e-16 1.9037e-29 2.04181e-29 35.6745 -4.75425e-13 1.25464e-13 1.25425 -1.92159e-14 2.22907e-15)
(0 -2.2465e-28 2.37963e-30 35.6745 -1.57224e-30 -5.19257e-15 1.25425 4.93038e-32 4.55078e-15)
(0 -5.18321e-28 8.45839e-31 35.6001 -1.25782e-28 6.54656e-14 2.1505 3.15544e-30 3.08547e-15)
(-3.43631e-17 3.38335e-30 -8.45839e-31 35.6001 -1.89031e-14 -5.68743e-15 2.1505 -8.91275e-17 5.53478e-15)
(-1.23606e-16 1.28598e-29 -1.50326e-30 35.3813 1.38227e-13 7.26175e-14 2.39697 -1.52259e-14 4.25852e-15)
(-4.94424e-16 -9.01959e-30 7.51632e-31 35.3813 -8.60183e-15 -7.95461e-15 2.39697 -9.44444e-17 6.55912e-15)
(-7.52009e-16 5.34335e-30 -1.33584e-30 34.6452 7.7279e-15 6.89869e-14 2.61057 -1.68469e-15 4.95154e-15)
(7.52009e-16 -1.06867e-29 2.67167e-30 34.6452 -1.3502e-14 -9.21103e-15 2.61057 -1.57237e-16 7.49766e-15)
(0 -1.32629e-29 2.37411e-30 32.6978 7.88861e-31 5.48915e-14 2.69972 -3.15544e-30 3.89179e-15)
(-3.43247e-15 4.74823e-30 -3.56117e-30 32.6978 -1.76957e-14 -9.35623e-15 2.69972 -3.19162e-16 8.05956e-15)
(0 4.21939e-30 1.05485e-30 29.0462 1.56562e-15 3.46586e-14 2.59748 -1.3274e-16 2.34493e-15)
(2.52231e-15 0 -3.16454e-30 29.0462 -1.99459e-14 -8.16085e-15 2.59748 -5.51459e-16 7.96918e-15)
(-1.68945e-15 2.43849e-29 -8.60209e-30 24.1651 7.85549e-16 1.8165e-14 2.35314 -1.54386e-16 1.32729e-15)
(0 -1.87472e-29 6.56153e-30 24.1651 -2.07977e-14 -6.74347e-15 2.35314 -8.58842e-16 7.25023e-15)
(-1.87566e-15 3.85357e-45 -9.16258e-30 19.2107 5.03265e-29 1.06368e-14 2.07208 -3.93332e-46 1.11987e-15)
(-4.18804e-15 -1.66592e-29 7.49666e-30 19.2107 -2.11719e-14 -5.88806e-15 2.07208 -1.31857e-15 6.16531e-15)
(-3.33352e-15 8.88228e-30 -2.96076e-30 15.0091 1.62234e-14 9.72959e-15 1.81821 -2.53838e-15 1.43e-15)
(0 -2.96076e-30 1.48038e-30 15.0091 -1.9761e-14 -5.34849e-15 1.81821 -1.79798e-15 4.97358e-15)
(-1.3813e-15 2.43543e-30 -1.08731e-30 11.745 1.25982e-14 1.14863e-14 1.6084 -1.62924e-15 1.96481e-15)
(5.52521e-15 2.631e-30 -2.631e-30 11.745 -1.84675e-14 -4.99119e-15 1.6084 -2.21201e-15 3.79142e-15)
(0 0 0 9.27966 1.39038e-14 1.3604e-14 1.43932 -2.08657e-15 2.55241e-15)
(0 0 -2.33797e-30 9.27966 -1.7715e-14 -4.68904e-15 1.43932 -2.78467e-15 2.65923e-15)
(7.03968e-16 -6.15416e-30 2.02898e-30 7.41707 1.45333e-14 1.53974e-14 1.30291 -2.52038e-15 3.19488e-15)
(6.5407e-15 4.15515e-30 -3.11636e-30 7.41707 -1.71896e-14 -4.4954e-15 1.30291 -3.42178e-15 1.58447e-15)
(1.74104e-15 1.68927e-30 -7.39704e-31 5.99371 1.50892e-14 1.68263e-14 1.19157 -2.89043e-15 3.86596e-15)
(0 0 1.84618e-30 5.99371 -1.6076e-14 -3.95229e-15 1.19157 -4.16266e-15 5.24575e-16)
(-1.83653e-15 -4.76935e-30 3.41626e-30 4.88996 1.47136e-14 -1.06432e-29 1.0992 -3.43825e-15 0)
(1.46923e-14 1.31245e-29 -1.31245e-29 4.88996 -1.32144e-14 -3.41315e-15 1.0992 -5.00123e-15 -4.36753e-16)
(0 0 2.16497e-29 4.02139 1.29827e-14 -1.48886e-14 1.02123 -3.47296e-15 1.96691e-15)
(0 0 7.00649e-46 4.02139 -1.16613e-14 3.58162e-30 1.02123 -5.83153e-15 -1.61853e-45)
(0 -5.1819e-30 3.88642e-30 3.32866 1.05561e-14 -3.57135e-14 0.954248 -3.38216e-15 9.77838e-15)
(8.01515e-15 5.1819e-30 -5.1819e-30 3.32866 -1.10302e-14 1.09214e-14 0.954248 -6.64372e-15 -1.38803e-15)
(-2.59225e-15 9.20952e-30 -3.45357e-30 2.76961 8.96402e-15 -2.63526e-14 0.895715 -2.86462e-15 7.18688e-15)
(0 0 2.30238e-30 2.76961 -7.24239e-15 9.07452e-15 0.895715 -7.49034e-15 3.03776e-16)
(0 4.0919e-30 -1.53446e-30 2.31391 8.76301e-15 -1.17586e-14 0.843762 -3.15096e-15 5.41421e-15)
(1.71799e-14 0 1.02297e-30 2.31391 -3.1291e-15 -1.80603e-15 0.843762 -7.91649e-15 3.79036e-16)
(-2.21252e-15 1.28918e-30 8.90097e-31 1.93936 6.94745e-15 -1.06935e-15 0.797004 -3.46684e-15 1.56024e-15)
(0 0 -2.2726e-30 1.93936 -1.91426e-15 -3.98416e-15 0.797004 -8.23345e-15 -4.83825e-17)
(2.27374e-15 -4.63826e-30 2.61767e-30 1.62942 6.31602e-15 1.7346e-15 0.754423 -2.35528e-15 8.65772e-16)
(0 3.23118e-30 3.50325e-46 1.62942 -4.8479e-16 4.30779e-32 0.754423 -8.99706e-15 -2.8026e-46)
(7.89583e-15 -7.97595e-30 1.2344e-30 1.3716 6.23736e-15 3.89817e-15 0.715273 -3.75042e-15 3.47142e-15)
(0 0 -7.17825e-31 1.3716 -3.51857e-16 1.5615e-14 0.715273 -8.06437e-15 1.98125e-15)
(0 0 0 1.15626 3.88205e-15 7.09315e-15 0.679014 -2.89296e-15 5.19682e-15)
(-9.54472e-15 2.65856e-30 0 1.15626 2.64523e-16 1.35445e-14 0.679014 -4.38101e-15 4.72053e-15)
(0 0 0 0.97585 3.22625e-15 5.91125e-15 0.645256 -1.72666e-15 2.68917e-15)
(9.75193e-15 -3.01399e-30 0 0.97585 2.62473e-15 1.18293e-14 0.645256 -3.8833e-15 7.42413e-15)
(-4.97427e-15 2.24573e-30 -1.37584e-31 0.824376 3.79544e-15 5.80228e-15 0.613705 -2.71646e-15 6.40405e-15)
(0 0 0 0.824376 2.02593e-15 9.39385e-15 0.613705 -3.57465e-15 5.37997e-15)
(0 0 0 0.69698 2.93543e-15 7.09108e-15 0.584134 -3.11169e-15 5.7627e-15)
(0 0 0 0.69698 1.1709e-15 7.07591e-15 0.584134 -1.04605e-15 5.75226e-15)
(0 0 3.18199e-30 0.589681 1.53738e-15 4.35661e-15 0.55634 -1.86714e-15 2.48184e-15)
(0 0 -3.18199e-30 0.589681 1.67788e-15 6.13417e-15 0.55634 -1.48537e-15 4.87479e-15)
(0 -2.13585e-31 0 0.499179 1.951e-15 2.06977e-15 0.530118 -1.06309e-15 2.00105e-15)
(0 0 0 0.499179 1.60582e-15 -8.05057e-30 0.530118 -1.7819e-15 0)
(0 0 2.96723e-31 0.422714 3.02661e-15 4.35314e-30 0.505234 -4.29372e-15 0)
(1.06428e-14 -4.90201e-30 -2.51266e-30 0.422714 1.5605e-15 -4.66859e-15 0.505234 -1.71413e-15 2.15166e-16)
(0 -2.23281e-30 0 0.357962 1.69602e-15 -3.36345e-15 0.481402 -3.0569e-15 2.03839e-16)
(8.28231e-15 -2.67017e-30 -4.46562e-30 0.357962 1.68269e-15 -1.27781e-15 0.481402 -2.13844e-15 -1.44032e-15)
(0 0 0 0.302955 1.62513e-15 -3.04455e-15 0.458251 -1.53466e-15 4.70155e-16)
(1.09427e-14 -4.41245e-30 0 0.302955 2.61809e-15 1.97648e-15 0.458251 -2.52913e-15 1.12737e-16)
(3.97025e-15 0 3.52629e-30 0.256017 1.98552e-15 3.00575e-16 0.435287 -3.63721e-15 -1.2359e-15)
(1.8195e-14 -1.53871e-30 1.12104e-44 0.256017 2.43557e-15 4.95102e-30 0.435287 -5.79563e-15 0)
(0 0 0 0.215711 9.25826e-16 3.57142e-15 0.411839 -3.28212e-15 1.54485e-15)
(0 0 0 0.215711 6.05111e-16 1.07616e-15 0.411839 -2.52487e-15 5.89761e-16)
(-2.83615e-15 9.76635e-31 0 0.180787 1.8776e-16 2.52298e-15 0.386956 -2.07783e-16 -1.66947e-15)
(0 0 0 0.180787 1.73974e-29 1.15967e-15 0.386956 0 -1.44079e-15)
(-2.78594e-15 0 -7.00649e-46 0.150123 1.3497e-15 -1.02862e-45 0.359223 -2.58895e-15 0)
(-2.78594e-15 1.23721e-30 0 0.150123 1.43559e-15 -7.50995e-16 0.359223 -3.18893e-15 -1.28507e-15)
(0 6.43544e-32 4.39764e-30 0.12265 1.22492e-16 -3.60911e-15 0.326378 -4.23127e-15 -7.73236e-16)
(6.63402e-15 5.90482e-31 -4.39764e-30 0.12265 8.99051e-16 -3.17766e-15 0.326378 -4.01074e-15 1.71097e-15)
(-2.92479e-15 1.78025e-31 0 0.0972232 -5.64021e-16 -2.05663e-15 0.284463 -3.60024e-15 -1.69806e-15)
(0 0 0 0.0972232 -1.47787e-16 -3.10968e-15 0.284463 -4.83763e-15 -2.47833e-15)
(-2.95265e-15 6.69116e-31 1.7363e-30 0.0723863 -9.46583e-16 -1.49411e-15 0.225954 -3.28238e-15 8.94653e-16)
(-1.57204e-14 2.37259e-30 -1.7363e-30 0.0723863 -1.15151e-15 -1.0733e-15 0.225954 -4.1362e-15 4.38308e-16)
(6.9487e-15 0 0 0.0460878 -1.61637e-16 1.53217e-15 0.136982 -1.84569e-15 -5.97195e-16)
(-6.9487e-15 0 0 0.0460878 -2.62248e-17 1.84128e-15 0.136982 -1.07383e-15 -1.24069e-15)
(3.01218e-15 -2.19939e-30 -2.74215e-30 0 9.36337e-16 -2.27741e-16 9.96345e-19 -2.10441e-15 -3.60863e-15)
(0 1.37108e-30 -1.47206e-31 0 1.2302e-15 -4.93038e-32 3.55371e-15 -3.27081e-15 -1.06073e-15)
(0 0 2.67788e-31 35.7196 9.18201e-16 2.71235e-14 -0.401626 1.34193e-14 -2.54282e-17)
(0 0 -5.35577e-31 35.7196 1.41917e-15 2.71886e-13 -0.401626 4.11006e-16 -1.66073e-15)
(0 0 -1.23738e-30 35.6745 5.58065e-15 9.70299e-29 -1.25425 2.03656e-14 -2.22907e-15)
(0 0 -4.02347e-30 35.6745 5.13164e-15 1.62811e-13 -1.25425 -3.16163e-16 -4.16157e-15)
(0 0 1.69168e-30 35.6001 4.44864e-15 5.18255e-15 -2.1505 2.51343e-14 -3.08547e-15)
(-3.43631e-17 0 -2.24857e-30 35.6001 3.64772e-15 7.61662e-14 -2.1505 8.91275e-17 -4.53158e-15)
(4.23131e-16 4.6977e-32 0 35.3813 6.32474e-15 5.90224e-15 -2.39697 2.1233e-14 -4.25852e-15)
(4.94424e-16 -4.6977e-32 4.23369e-30 35.3813 6.58118e-15 6.93965e-14 -2.39697 9.44444e-17 -4.34847e-15)
(2.60287e-16 0 0 34.6452 6.4594e-15 6.00191e-15 -2.61057 2.07033e-14 -5.61097e-15)
(0 0 0 34.6452 7.42959e-15 5.1456e-14 -2.61057 1.57237e-16 -2.99004e-15)
(1.09731e-15 1.48382e-31 4.74823e-30 32.6978 6.08822e-15 5.14916e-15 -2.69972 2.0756e-14 -6.96125e-15)
(-4.76898e-15 -1.48382e-31 1.47666e-28 32.6978 8.07878e-15 1.02598e-14 -2.69972 3.19162e-16 -4.16147e-16)
(0 2.63712e-31 3.16454e-30 29.0462 4.81123e-15 3.51934e-15 -2.59748 2.06013e-14 -8.02966e-15)
(0 -2.63712e-31 0 29.0462 8.21941e-15 0 -2.59748 5.51459e-16 -1.57772e-30)
(-1.68945e-15 0 3.74945e-30 24.1651 2.79343e-15 2.24888e-15 -2.35314 2.04661e-14 -8.67917e-15)
(-4.43427e-15 -2.3434e-31 -6.57089e-30 24.1651 6.03834e-15 -2.79546e-14 -2.35314 8.58842e-16 -2.16757e-15)
(4.79834e-15 4.16481e-31 -3.33185e-30 19.2107 1.97096e-15 1.60292e-15 -2.07208 2.04229e-14 -9.06254e-15)
(-4.18804e-15 0 5.27537e-30 19.2107 4.9449e-15 -3.33889e-14 -2.07208 1.31857e-15 -3.66432e-15)
(0 0 0 15.0091 3.06211e-15 1.51591e-15 -1.81821 1.97164e-14 -9.38296e-15)
(4.90408e-15 3.70095e-31 1.97631e-30 15.0091 5.96671e-15 -3.11544e-14 -1.81821 1.79798e-15 -4.0802e-15)
(-1.48112e-15 -3.28875e-31 1.3155e-30 11.745 2.24138e-15 1.69919e-15 -1.6084 1.91784e-14 -9.79972e-15)
(-2.96224e-15 -6.5775e-31 -2.631e-30 11.745 5.11632e-15 -2.66652e-14 -1.6084 2.21201e-15 -3.79142e-15)
(0 0 0 9.27966 -3.08379e-16 1.25106e-15 -1.43932 1.86295e-14 -1.03564e-14)
(-6.06549e-15 0 1.16899e-30 9.27966 3.07525e-15 -2.21432e-14 -1.43932 2.78467e-15 -2.65923e-15)
(-1.63518e-15 0 -5.19394e-31 7.41707 -5.55171e-16 5.10119e-16 -1.30291 1.80571e-14 -1.10303e-14)
(6.5407e-15 0 1.55818e-30 7.41707 2.3906e-15 -1.85414e-14 -1.30291 3.42178e-15 -1.58447e-15)
(1.74104e-15 0 0 5.99371 1.0706e-15 1.68789e-16 -1.19157 1.73243e-14 -1.1839e-14)
(6.96414e-15 0 0 5.99371 2.92657e-45 -1.54788e-14 -1.19157 4.16266e-15 -5.24575e-16)
(1.83653e-15 0 -9.47181e-32 4.88996 2.45608e-15 2.56412e-16 -1.0992 1.63575e-14 -1.2813e-14)
(-1.84711e-15 6.74155e-31 -4.10141e-31 4.88996 -6.89605e-16 -1.79278e-14 -1.0992 5.00123e-15 4.36753e-16)
(0 3.64461e-31 0 4.02139 1.25779e-15 1.0863e-15 -1.02123 1.53035e-14 -1.23548e-14)
(0 0 0 4.02139 -7.79779e-16 -9.37363e-15 -1.02123 5.83153e-15 2.01725e-15)
(0 0 -3.23869e-31 3.32866 -1.47949e-15 9.57557e-16 -0.954248 1.44904e-14 -9.77838e-15)
(-2.91715e-15 8.75812e-47 0 3.32866 -1.18209e-46 3.75219e-15 -0.954248 6.64372e-15 1.38803e-15)
(2.07812e-15 0 0 2.76961 -2.39615e-15 -2.20411e-17 -0.895715 1.39715e-14 -7.18688e-15)
(0 0 0 2.76961 -5.13583e-16 2.05763e-15 -0.895715 7.49034e-15 -3.03776e-16)
(0 1.02297e-30 0 2.31391 -2.32378e-15 -4.23146e-16 -0.843762 1.33878e-14 -5.41421e-15)
(8.58994e-15 -1.02297e-30 0 2.31391 -8.52177e-16 9.29623e-17 -0.843762 7.91649e-15 -3.79036e-16)
(-2.21252e-15 0 0 1.93936 -2.62772e-15 -2.34405e-16 -0.797004 1.27564e-14 -4.9719e-15)
(-2.04697e-15 6.00001e-30 0 1.93936 -1.87334e-15 1.71799e-15 -0.797004 8.23345e-15 4.83825e-17)
(2.27374e-15 2.01949e-31 0 1.62942 -2.3996e-15 -2.09984e-16 -0.754423 1.24944e-14 -5.17612e-15)
(-1.81899e-14 -2.01949e-31 -4.03897e-31 1.62942 -3.07166e-15 1.31778e-15 -0.754423 8.99706e-15 7.76022e-17)
(7.89583e-15 1.79456e-31 0 1.3716 -1.04561e-15 -1.13328e-15 -0.715273 1.17969e-14 -5.33258e-15)
(-3.2328e-15 -1.79456e-31 -7.17825e-31 1.3716 -2.73931e-16 2.11881e-15 -0.715273 9.0388e-15 -1.98125e-15)
(0 3.18938e-31 -6.60008e-30 1.15626 -1.43121e-15 1.08961e-29 -0.679014 1.11015e-14 -5.94482e-15)
(-1.90894e-14 9.45876e-45 -1.4212e-30 1.15626 -1.686e-29 4.48951e-15 -0.679014 9.17025e-15 -3.44043e-15)
(-2.43798e-15 1.3108e-30 2.83416e-30 0.97585 -2.41069e-15 -2.76124e-15 -0.645256 1.10977e-14 -7.40032e-15)
(-1.95039e-14 -1.13366e-30 -2.73464e-30 0.97585 -2.49494e-15 -3.63406e-15 -0.645256 9.31282e-15 -7.00321e-15)
(2.48713e-15 0 0 0.824376 -1.7249e-15 -8.1716e-15 -0.613705 1.08076e-14 -6.89975e-15)
(-1.2217e-14 0 -1.25925e-31 0.824376 -3.14727e-15 -1.35343e-14 -0.613705 9.10552e-15 -7.34068e-15)
(0 4.476e-31 0 0.69698 -1.96572e-15 -9.76708e-15 -0.584134 1.02928e-14 -6.50037e-15)
(-1.01353e-14 -4.476e-31 0 0.69698 -4.48175e-15 -1.02035e-14 -0.584134 9.79442e-15 -5.75226e-15)
(0 0 0 0.589681 -2.44717e-15 -1.00573e-14 -0.55634 1.04287e-14 -5.72622e-15)
(-1.03128e-14 0 0 0.589681 -3.54414e-15 -9.26639e-15 -0.55634 1.0533e-14 -6.10969e-15)
(5.24091e-15 0 0 0.499179 -2.10603e-15 -8.71272e-15 -0.530118 1.07439e-14 -3.6641e-15)
(0 0 0 0.499179 -1.65409e-15 -1.06216e-14 -0.530118 1.06621e-14 -4.09577e-15)
(0 0 0 0.422714 -2.32682e-15 -2.11742e-15 -0.505234 1.02361e-14 -2.13812e-15)
(0 0 -3.96322e-30 0.422714 -2.01174e-15 -9.9699e-16 -0.505234 1.05448e-14 -2.15166e-16)
(0 0 0 0.357962 -1.26117e-15 7.58212e-16 -0.481402 1.03516e-14 -2.03839e-16)
(0 0 -8.75812e-47 0.357962 -1.66425e-15 9.86076e-32 -0.481402 1.09709e-14 0)
(4.46786e-15 0 0 0.302955 5.00062e-16 1.34028e-15 -0.458251 9.83234e-15 -4.70155e-16)
(6.47483e-15 -3.91319e-31 0 0.302955 1.24272e-16 2.97598e-15 -0.458251 9.77296e-15 -1.12737e-16)
(5.54132e-15 -2.98465e-31 -2.12188e-31 0.256017 -4.65275e-47 5.73886e-16 -0.435287 7.55271e-15 5.01496e-16)
(1.10826e-14 -2.0845e-30 -1.76315e-30 0.256017 -3.14656e-17 1.18559e-15 -0.435287 5.01457e-15 -2.45179e-15)
(2.80412e-15 -7.88821e-31 0 0.215711 1.1986e-16 -3.6528e-15 -0.411839 2.57373e-15 -1.54485e-15)
(2.24329e-14 -8.05347e-30 0 0.215711 7.27231e-16 -5.02439e-15 -0.411839 1.20557e-15 -5.89761e-16)
(-2.9897e-16 3.07108e-31 5.11672e-30 0.180787 8.77146e-16 -4.87455e-16 -0.386956 4.80777e-15 5.39438e-16)
(0 1.39227e-30 -3.87982e-30 0.180787 1.6596e-15 -5.9682e-16 -0.386956 6.00244e-15 6.60465e-16)
(8.0907e-17 1.4425e-30 0 0.150123 4.25405e-16 2.48076e-15 -0.359223 3.6322e-15 -1.57001e-15)
(-1.14674e-14 -2.31081e-31 2.18953e-46 0.150123 0 1.89149e-44 -0.359223 5.57313e-15 3.9443e-31)
(5.79266e-15 -1.31353e-30 0 0.12265 4.71934e-16 1.21747e-15 -0.326378 6.61381e-16 7.73236e-16)
(1.15853e-14 -1.74753e-30 0 0.12265 -3.2187e-18 2.62855e-15 -0.326378 1.66724e-15 -1.71097e-15)
(2.92479e-15 8.96901e-32 -4.55948e-31 0.0972232 0 1.37428e-16 -0.284463 4.88304e-15 2.16734e-16)
(-1.6099e-14 1.27377e-30 5.03592e-45 0.0972232 -6.29562e-16 0 -0.284463 4.83763e-15 9.0719e-30)
(2.95265e-15 -9.47875e-31 0 0.0723863 -9.31238e-16 2.25012e-15 -0.225954 1.6527e-15 -8.94653e-16)
(-1.57204e-14 5.95198e-30 1.7363e-30 0.0723863 -2.36587e-17 1.92337e-15 -0.225954 4.19881e-17 -4.38308e-16)
(-4.9367e-16 0 0 0.0460878 1.13777e-44 -3.74212e-15 -0.136982 1.61031e-30 5.97195e-16)
(0 0 0 0.0460878 2.15558e-16 -2.64675e-15 -0.136982 5.70966e-16 1.24069e-15)
(1.99269e-18 -1.46346e-30 -7.00649e-46 0 1.27038e-15 -3.93677e-44 3.5567e-15 2.85516e-15 1.47712e-30)
(7.97076e-18 -2.66387e-31 0 7.90687e-15 8.35239e-16 4.7728e-16 -1.77636e-14 1.8772e-15 1.06073e-15)
(-3.0072e-15 6.85538e-31 0 -1.53541e-09 1.89409e-16 1.09081e-16 3.45039e-09 -3.96774e-15 -1.8469e-15)
(-3.98538e-18 -6.85538e-31 0 -1.53521e-09 -1.08104e-16 1.38689e-15 3.45038e-09 -3.41871e-15 3.56064e-16)
(-2.98068e-15 4.76349e-31 6.17168e-30 -0.0460878 -1.95075e-16 6.47557e-15 0.136982 -1.49067e-15 9.34522e-16)
(4.97402e-15 -5.35296e-43 9.24857e-44 -0.0460878 6.02502e-29 -1.01906e-29 0.136982 1.57772e-30 -2.48603e-45)
(2.95265e-15 0 2.81901e-31 -0.0723863 9.90572e-16 -3.9443e-31 0.225954 -7.90459e-15 -2.03131e-15)
(-1.57204e-14 2.23688e-30 0 -0.0723863 1.03467e-15 -3.76236e-15 0.225954 -5.23984e-15 -4.62667e-15)
(-2.92479e-15 5.35415e-31 0 -0.0972232 2.95823e-31 -4.86969e-15 0.284463 -4.46782e-15 -2.31581e-15)
(2.33984e-14 -1.66372e-31 0 -0.0972232 8.8308e-16 -3.10971e-16 0.284463 -4.90141e-15 -8.38807e-16)
(-4.9513e-15 0 0 -0.12265 -9.78871e-17 2.7626e-16 0.326378 -8.46739e-16 1.18118e-15)
(-1.15853e-14 1.75162e-46 -1.48462e-30 -0.12265 -1.0841e-63 0 0.326378 -1.45715e-15 0)
(2.86685e-15 -2.66474e-31 0 -0.150123 1.24558e-16 -1.66871e-15 0.359223 -6.66551e-16 -1.40205e-15)
(-1.70393e-14 2.06309e-30 0 -0.150123 3.30095e-29 -2.90752e-15 0.359223 -7.88861e-31 6.99068e-16)
(3.13512e-15 -7.17844e-31 5.47382e-47 -0.180787 3.69012e-16 0 0.386956 -4.08363e-16 3.9443e-31)
(0 -2.45094e-31 0 -0.180787 2.32305e-16 -3.89654e-15 0.386956 -2.35919e-15 2.1086e-16)
(0 -3.91693e-31 7.83386e-31 -0.215711 -3.28724e-17 -3.36015e-15 0.411839 -1.42081e-15 -6.23687e-16)
(0 0 -7.83386e-31 -0.215711 1.39471e-29 -2.54521e-15 0.411839 -8.63806e-16 4.9948e-16)
(-2.77066e-15 0 0 -0.256017 4.93038e-31 -2.2463e-15 0.435287 -4.47001e-47 -1.30874e-16)
(0 0 0 -0.256017 6.35442e-16 2.51351e-16 0.435287 -1.59734e-15 -1.26575e-15)
(-2.73567e-15 -2.48016e-31 -1.98413e-30 -0.302955 1.7259e-15 -2.11549e-15 0.458251 -1.48841e-15 -4.13959e-16)
(1.09427e-14 4.96032e-31 3.50325e-44 -0.302955 1.45359e-15 3.95425e-30 0.458251 -1.72077e-15 0)
(5.02785e-15 1.39551e-31 2.79102e-31 -0.357962 4.0291e-16 -1.46454e-15 0.481402 -2.40507e-17 -5.10507e-16)
(-2.41064e-14 -2.09326e-31 0 -0.357962 -5.80731e-16 -2.86814e-15 0.481402 4.60697e-16 -1.35387e-15)
(0 -3.14083e-31 0 -0.422714 -2.9083e-16 -9.56758e-16 0.505234 -1.17348e-15 -6.52912e-17)
(0 0 0 -0.422714 -3.16466e-16 -9.38158e-17 0.505234 -1.94055e-16 5.75271e-17)
(0 0 0 -0.499179 5.29203e-17 -3.79981e-16 0.530118 -8.11145e-16 3.85134e-17)
(1.04818e-14 -1.21738e-43 0 -0.499179 -1.37104e-29 -7.35906e-16 0.530118 -1.97215e-31 -2.1079e-16)
(2.57821e-15 -4.37906e-47 0 -0.589681 6.56859e-47 3.6869e-16 0.55634 0 2.4597e-16)
(1.03128e-14 0 0 -0.589681 1.33637e-15 1.77371e-15 0.55634 -7.34984e-16 -4.09481e-16)
(2.53382e-15 9.40694e-31 -6.714e-31 -0.69698 -3.9443e-31 1.06356e-15 0.584134 -5.68154e-16 -1.05129e-16)
(2.02706e-14 -1.119e-31 0 -0.69698 7.3868e-16 0 0.584134 -5.06107e-16 -1.2326e-32)
(0 6.29626e-32 3.18323e-46 -0.824376 1.20028e-16 0 0.613705 -7.33897e-16 -5.51639e-17)
(-9.94854e-15 0 -2.5185e-31 -0.824376 -2.46519e-32 -2.30199e-15 0.613705 -4.19865e-16 2.38833e-16)
(2.43798e-15 7.0854e-32 -2.12562e-31 -0.97585 6.39493e-16 -2.51657e-15 0.645256 -3.82537e-16 -3.53391e-16)
(9.75193e-15 3.95867e-44 2.12562e-31 -0.97585 -4.44366e-30 -1.55881e-15 0.645256 3.05035e-46 -2.01238e-16)
(-2.38618e-15 0 0 -1.15626 -5.9174e-17 1.13812e-15 0.679014 -7.73638e-17 -2.37856e-16)
(9.54472e-15 -5.47382e-48 0 -1.15626 1.89081e-31 -6.8337e-16 0.679014 1.92593e-34 2.02232e-17)
(-2.33152e-15 0 6.15802e-31 -1.3716 4.93038e-32 3.9443e-31 0.715273 -2.65876e-63 0)
(0 9.25321e-32 0 -1.3716 -1.13377e-17 2.3447e-16 0.715273 -2.29031e-17 7.33978e-17)
(5.91172e-15 -5.04871e-32 1.15326e-31 -1.62942 1.17348e-15 -2.16826e-16 0.754423 -1.60502e-17 6.34554e-17)
(5.45696e-15 5.04871e-32 -1.00974e-31 -1.62942 5.87871e-16 8.66691e-16 0.754423 1.75767e-16 9.4205e-17)
(-2.21252e-15 0 1.1363e-31 -1.93936 1.13124e-15 3.28814e-16 0.797004 2.75871e-17 -2.1215e-18)
(-4.09395e-15 -5.6815e-32 -3.37195e-32 -1.93936 3.49626e-30 2.05944e-30 0.797004 0 0)
(-2.14749e-15 0 -6.80396e-45 -2.31391 1.08039e-15 7.65748e-31 0.843762 1.99357e-16 -1.2326e-32)
(0 0 -1.27872e-31 -2.31391 -1.2671e-15 -2.18277e-16 0.843762 -3.97734e-17 -9.87554e-17)
(0 1.35502e-45 1.43899e-31 -2.76961 0 -1.48796e-15 0.895715 0 -1.17501e-16)
(0 -7.19493e-32 0 -2.76961 -6.41844e-16 1.22651e-15 0.895715 -1.69033e-16 3.03365e-17)
(9.13363e-16 -1.96172e-30 0 -3.32866 -1.92647e-15 -1.00022e-15 0.954248 -7.87928e-17 -4.41691e-16)
(0 1.77116e-32 5.20232e-44 -3.32866 -7.35534e-17 2.9289e-30 0.954248 -1.41515e-16 -2.46519e-32)
(0 5.6947e-32 0 -4.02139 -1.06375e-15 -7.6531e-16 1.02123 -1.724e-16 -3.59429e-16)
(-3.28277e-15 -1.01694e-32 0 -4.02139 0 -1.02923e-15 1.02123 -7.32781e-17 9.565e-17)
(1.83653e-15 -6.69838e-31 0 -4.88996 -2.88098e-30 -1.0089e-15 1.0992 4.93038e-32 -3.81886e-16)
(-7.34614e-15 -2.56338e-32 -1.02535e-31 -4.88996 -2.07581e-16 -1.2832e-15 1.0992 -2.67749e-17 4.46871e-17)
(1.74104e-15 0 0 -5.99371 9.47585e-16 -6.7536e-16 1.19157 -1.46171e-16 -3.5609e-16)
(6.96414e-15 0 -5.76933e-32 -5.99371 7.88125e-16 -9.41444e-16 1.19157 -8.84257e-19 8.34521e-18)
(0 -3.04332e-32 -6.49243e-32 -7.41707 7.67324e-16 -6.26251e-16 1.30291 6.8848e-18 -3.41803e-16)
(0 0 6.49243e-32 -7.41707 -9.86076e-32 -6.33236e-16 1.30291 4.60087e-46 -2.04409e-17)
(0 -1.82654e-32 -3.65308e-32 -9.27966 4.90884e-16 -3.81175e-16 1.43932 -4.28879e-18 -3.24993e-16)
(2.63232e-15 1.82654e-32 1.09592e-31 -9.27966 -1.84199e-15 -6.04517e-16 1.43932 -1.13674e-16 -8.4999e-17)
(-2.7626e-15 2.05547e-32 -8.22188e-32 -11.745 4.20543e-16 -9.22966e-17 1.6084 -6.67575e-17 -3.04623e-16)
(5.52521e-15 0 4.11094e-32 -11.745 9.7356e-31 -2.6339e-16 1.6084 -1.2326e-32 -8.82754e-17)
(0 -1.15655e-32 9.25237e-32 -15.0091 2.91413e-17 -1.21404e-17 1.81821 -3.27123e-17 -3.03743e-16)
(-6.57084e-15 1.15655e-32 -9.25237e-32 -15.0091 1.20022e-15 9.37679e-17 1.81821 -6.19962e-17 -5.45951e-17)
(-1.04701e-15 2.05268e-47 0 -19.2107 -1.62363e-30 -8.48647e-17 2.07208 0 -3.18551e-16)
(0 6.50752e-33 0 -19.2107 4.65565e-16 -1.35585e-31 2.07208 2.42214e-17 -5.70302e-17)
(8.44723e-16 -7.83491e-33 -5.85851e-32 -24.1651 2.61038e-16 -1.8311e-17 2.35314 -4.01168e-17 -3.25658e-16)
(0 -4.88959e-33 5.85851e-32 -24.1651 -9.51918e-32 -3.08564e-16 2.35314 -3.52332e-17 -7.84008e-17)
(-6.30578e-16 1.04062e-33 0 -29.0462 2.19901e-16 -1.80446e-17 2.59748 -1.49981e-17 -3.1178e-16)
(2.52231e-15 0 3.2964e-32 -29.0462 9.47953e-17 -5.71606e-16 2.59748 -2.69568e-17 -8.16066e-17)
(1.33651e-15 -6.95541e-33 -3.70955e-32 -32.6978 2.81636e-16 -2.34208e-16 2.69972 -2.45859e-17 -2.86122e-16)
(3.79729e-16 9.27388e-33 7.4191e-32 -32.6978 1.51532e-16 -1.08375e-15 2.69972 1.50286e-18 -7.38622e-17)
(2.60287e-16 -1.5e-32 -8.34898e-32 -34.6452 1.41279e-16 -4.23864e-16 2.61057 -2.13016e-17 -2.47209e-16)
(1.04115e-15 1.17408e-32 8.34898e-32 -34.6452 -2.34383e-17 -1.54316e-15 2.61057 5.75191e-18 -6.66047e-17)
(-1.23606e-16 -9.15043e-31 0 -35.3813 9.53342e-18 -5.23044e-16 2.39697 -3.05347e-19 -2.04293e-16)
(0 2.93606e-33 2.34885e-32 -35.3813 -2.23638e-17 -1.68007e-15 2.39697 2.93595e-18 -5.60252e-17)
(8.59076e-18 -1.65203e-33 0 -35.6001 3.51248e-16 -5.05815e-16 2.1505 -6.21198e-18 -1.64981e-16)
(3.43631e-17 1.65203e-33 2.64325e-32 -35.6001 1.71447e-17 -1.62176e-15 2.1505 2.94805e-18 -4.67169e-17)
(0 2.10242e-30 1.48727e-32 -35.6745 -2.46519e-32 -1.27364e-15 1.25425 -3.80963e-18 -1.32439e-16)
(-2.67923e-16 0 -2.97454e-32 -35.6745 -9.35847e-18 -3.27763e-15 1.25425 2.50529e-18 -3.71081e-17)
(0 1.30756e-34 -2.0921e-33 -35.7196 1.93291e-17 -1.19053e-15 0.401627 4.94785e-20 -2.51922e-17)
(0 5.54247e-35 4.18419e-33 -35.7196 6.16298e-33 -4.02295e-15 0.401627 3.99377e-19 -1.35714e-17)
(-7.62025e-17 1.14283e-31 2.74215e-30 -1.53522e-09 2.51171e-16 1.98533e-15 -3.45041e-09 3.96774e-15 1.8469e-15)
(-6.17079e-15 1.26726e-31 -1.37108e-30 -1.53541e-09 7.86991e-18 -3.83662e-16 -3.45039e-09 3.41871e-15 -3.56064e-16)
(-2.98068e-15 -1.21536e-44 0 -0.0460878 -1.36837e-30 -6.73761e-15 -0.136982 4.92312e-15 -9.34522e-16)
(0 -7.71461e-31 -3.08584e-30 -0.0460878 -1.42479e-15 -4.61602e-15 -0.136982 5.97744e-15 -1.14736e-15)
(-6.86246e-15 0 0 -0.0723863 -1.01048e-44 -3.05236e-45 -0.225954 6.31089e-30 -7.09975e-30)
(-1.18106e-14 4.66857e-30 0 -0.0723863 4.47663e-17 2.96095e-15 -0.225954 2.42321e-15 4.62667e-15)
(-7.32464e-15 0 5.86177e-30 -0.0972232 1.8614e-15 8.95262e-15 -0.284463 4.46782e-15 2.31581e-15)
(0 9.76962e-31 1.95392e-30 -0.0972232 1.69367e-15 4.42757e-15 -0.284463 5.07722e-15 8.38807e-16)
(2.89633e-15 -1.52347e-31 2.19882e-30 -0.12265 1.47621e-15 -1.18803e-16 -0.326378 2.85763e-15 -4.0175e-15)
(0 2.75758e-31 -1.06907e-30 -0.12265 5.84917e-16 -7.88861e-31 -0.326378 3.45344e-15 -1.92586e-15)
(0 0 0 -0.150123 2.74715e-45 -2.19772e-44 -0.359223 2.58669e-15 -5.52203e-30)
(-1.14674e-14 1.79387e-30 0 -0.150123 5.7012e-16 1.56536e-15 -0.359223 1.04218e-15 -6.99068e-16)
(3.13512e-15 0 0 -0.180787 -7.18645e-16 2.37526e-15 -0.386956 9.96232e-16 -2.19781e-15)
(-3.13512e-15 1.81392e-31 1.39227e-30 -0.180787 0 3.75758e-15 -0.386956 2.32215e-15 -2.1086e-16)
(6.33218e-15 0 8.75812e-47 -0.215711 0 8.75812e-47 -0.411839 3.9443e-31 0)
(-1.47445e-14 6.65168e-31 0 -0.215711 -3.0615e-16 9.20491e-16 -0.411839 1.23585e-15 -4.9948e-16)
(2.77066e-15 -9.69893e-32 -8.81573e-31 -0.256017 1.28514e-15 2.43394e-15 -0.435287 2.17814e-15 1.30874e-16)
(-1.10826e-14 0 0 -0.256017 0 0 -0.435287 2.76101e-30 -7.88861e-31)
(0 -2.48016e-31 0 -0.302955 1.95384e-15 1.64077e-15 -0.458251 1.48841e-15 4.13959e-16)
(-1.09427e-14 -2.44213e-31 9.92065e-31 -0.302955 1.89964e-15 1.8803e-15 -0.458251 1.47514e-15 -4.45209e-16)
(2.88419e-15 0 0 -0.357962 -1.69889e-16 2.01613e-15 -0.481402 2.40507e-17 5.10507e-16)
(0 -7.00649e-45 -9.48064e-31 -0.357962 1.97215e-31 1.66899e-15 -0.481402 -1.28184e-29 1.15168e-15)
(5.32139e-15 9.21088e-32 0 -0.422714 -8.47383e-16 1.81927e-15 -0.505234 6.56632e-16 6.52912e-17)
(-1.84565e-14 -3.14083e-31 0 -0.422714 -1.90829e-15 2.29464e-15 -0.505234 8.174e-16 -7.34922e-17)
(2.62046e-15 5.09827e-32 0 -0.499179 3.42871e-16 9.6243e-16 -0.530118 8.11145e-16 -3.85134e-17)
(7.29824e-15 0 0 -0.499179 -6.47906e-16 -1.41189e-16 -0.530118 1.54366e-15 2.1079e-16)
(-1.00439e-15 0 -5.96622e-31 -0.589681 0 -7.33371e-16 -0.55634 8.26464e-16 -2.4597e-16)
(3.5826e-15 0 5.96622e-31 -0.589681 7.35798e-16 -1.11474e-15 -0.55634 7.34984e-16 4.09481e-16)
(2.53382e-15 -1.71485e-32 0 -0.69698 -6.9954e-16 -1.70845e-15 -0.584134 4.44586e-16 1.05129e-16)
(-4.03163e-15 -5.80225e-45 7.8823e-46 -0.69698 -6.52938e-31 8.82301e-32 -0.584134 5.06107e-16 -6.8389e-17)
(0 3.06534e-46 7.00649e-46 -0.824376 1.11844e-45 2.23688e-45 -0.613705 5.47716e-31 1.19877e-30)
(-9.94854e-15 0 2.5185e-31 -0.824376 3.70324e-17 1.50265e-15 -0.613705 4.19865e-16 -2.38833e-16)
(2.43798e-15 -7.0854e-32 0 -0.97585 1.28477e-15 2.0507e-15 -0.645256 3.82537e-16 3.53391e-16)
(0 -1.75162e-46 -2.20621e-30 -0.97585 4.93038e-32 3.55035e-16 -0.645256 5.24428e-16 1.20631e-16)
(2.38618e-15 0 0 -1.15626 8.4538e-16 1.20358e-15 -0.679014 7.73638e-17 2.37856e-16)
(0 5.08402e-34 0 -1.15626 -6.16298e-33 1.56011e-15 -0.679014 -9.15855e-19 -2.02232e-17)
(2.33152e-15 0 0 -1.3716 0 7.0764e-17 -0.715273 1.24389e-16 -3.27128e-16)
(9.32607e-15 -4.09336e-30 0 -1.3716 6.38179e-17 3.41581e-17 -0.715273 1.71224e-17 -7.33978e-17)
(0 3.78653e-32 0 -1.62942 -5.52053e-16 -1.16631e-15 -0.754423 1.60502e-17 -1.66869e-16)
(0 -2.52436e-32 -7.03666e-31 -1.62942 3.6376e-16 -3.17797e-16 -0.754423 -1.75767e-16 -9.4205e-17)
(2.21252e-15 -2.3244e-32 -3.86151e-31 -1.93936 0 -9.38437e-18 -0.797004 -2.75871e-17 1.98821e-18)
(-1.08971e-14 0 1.1363e-31 -1.93936 -8.183e-16 -5.26243e-16 -0.797004 -2.13475e-16 -1.21487e-16)
(-2.14749e-15 0 0 -2.31391 -1.09331e-16 -6.14143e-16 -0.843762 -1.99357e-16 -9.40185e-17)
(-1.08935e-14 3.19679e-32 1.36243e-31 -2.31391 -7.25794e-16 -1.56454e-16 -0.843762 3.97734e-17 8.36747e-17)
(2.07812e-15 0 -1.43899e-31 -2.76961 3.622e-16 -1.75386e-15 -0.895715 -2.19357e-16 1.17501e-16)
(0 3.50325e-46 1.43899e-31 -2.76961 1.2326e-32 4.03962e-16 -0.895715 5.18317e-31 -3.03365e-17)
(-2.91715e-15 7.43651e-32 -1.4013e-45 -3.32866 2.03953e-16 -3.28886e-44 -0.954248 7.87928e-17 2.40196e-30)
(-8.01515e-15 1.61934e-31 -4.85803e-31 -3.32866 7.33801e-16 -4.23304e-17 -0.954248 1.41515e-16 -1.73209e-16)
(5.2064e-15 -2.27788e-32 3.64461e-31 -4.02139 -5.31974e-16 1.17127e-15 -1.02123 1.724e-16 3.59429e-16)
(-1.09773e-14 2.27788e-32 -3.64461e-31 -4.02139 1.06597e-15 6.82423e-17 -1.02123 7.32781e-17 -9.565e-17)
(3.67307e-15 -8.6469e-33 -3.74441e-32 -4.88996 5.37857e-16 1.06159e-15 -1.0992 2.57134e-16 2.46979e-16)
(-7.34614e-15 1.13181e-30 0 -4.88996 5.74545e-16 5.46861e-16 -1.0992 2.67749e-17 -4.46871e-17)
(-4.15724e-15 1.08175e-32 2.30773e-31 -5.99371 1.8881e-15 1.05309e-15 -1.19157 1.46171e-16 2.51269e-16)
(0 0 -1.15387e-31 -5.99371 -1.04446e-43 3.21403e-16 -1.19157 8.84257e-19 -8.34521e-18)
(1.63518e-15 9.54655e-31 -2.08343e-32 -7.41707 0 9.63309e-16 -1.30291 5.85098e-30 1.91675e-16)
(-6.5407e-15 3.24621e-32 0 -7.41707 -8.27496e-16 -3.96462e-16 -1.30291 -6.58266e-17 2.04409e-17)
(2.63232e-15 -3.8814e-32 0 -9.27966 -1.34445e-15 8.35066e-16 -1.43932 4.28879e-18 1.66979e-16)
(-8.69781e-15 0 0 -9.27966 2.46519e-32 -1.75085e-16 -1.43932 -3.516e-31 8.4999e-17)
(0 0 0 -11.745 -5.4429e-16 3.66885e-16 -1.6084 3.98428e-17 1.11453e-16)
(0 -1.4013e-45 0 -11.745 0 7.08509e-16 -1.6084 1.09613e-16 8.82754e-17)
(-1.22602e-15 5.64028e-33 3.44843e-32 -15.0091 4.6905e-17 -2.16201e-16 -1.81821 1.57757e-17 5.52573e-17)
(0 -1.34498e-29 0 -15.0091 1.04205e-16 3.53827e-16 -1.81821 6.7784e-18 5.45951e-17)
(1.04701e-15 5.44102e-33 -1.72178e-31 -19.2107 1.45733e-16 -2.3232e-16 -2.07208 4.15269e-17 1.3429e-17)
(-6.0637e-15 0 0 -19.2107 -1.26674e-44 -4.14456e-16 -2.07208 -1.34353e-30 5.70302e-17)
(8.44723e-16 0 0 -24.1651 4.92084e-16 -9.16406e-45 -2.35314 4.38044e-17 1.88279e-30)
(-3.37889e-15 8.40779e-45 1.1717e-31 -24.1651 -1.69279e-43 -1.49041e-16 -2.35314 1.56909e-29 7.84008e-17)
(1.26116e-15 -1.24881e-32 -7.38423e-32 -29.0462 -2.75242e-45 8.99433e-16 -2.59748 2.24965e-17 4.57353e-17)
(2.52231e-15 0 0 -29.0462 7.36107e-16 6.85187e-16 -2.59748 2.69568e-17 8.16066e-17)
(4.29059e-16 9.17094e-33 -2.38268e-32 -32.6978 -3.59689e-16 1.84544e-15 -2.69972 1.7897e-17 1.14431e-16)