/*--------------------------------*- C++ -*----------------------------------*\
| =========                 |                                                 |
| \\      /  F ield         | OpenFOAM: The Open Source CFD Toolbox           |
|  \\    /   O peration     | Version:  2012                                  |
|   \\  /    A nd           | Website:  www.openfoam.com                      |
|    \\/     M anipulation  |                                                 |
\*---------------------------------------------------------------------------*/
FoamFile
{
    version     2.0;
    format      ascii;
    class       volScalarField;
    location    "17000";
    object      omega;
}
// * * * * * * * * * * * * * * * * * * * * * * * * * * * * * * * * * * * * * //

dimensions      [0 0 -1 0 0 0 0];


internalField   nonuniform List<scalar> 
320
(
23917.3
23917.3
3909.99
3909.99
1202.35
1202.35
513.887
513.887
269.866
269.866
164.909
164.909
112.538
112.538
82.1475
82.1475
62.1506
62.1506
48.0429
48.0429
37.7568
37.7568
30.1042
30.1042
24.3129
24.3129
19.86
19.86
16.3852
16.3852
13.6371
13.6371
11.4378
11.4378
9.65932
9.65932
8.20839
8.20839
7.01569
7.01569
6.029
6.029
5.20831
5.20831
4.52254
4.52254
3.94715
3.94715
3.46256
3.46256
3.05293
3.05293
2.70532
2.70532
2.40901
2.40901
2.15507
2.15507
1.93599
1.93599
1.74534
1.74534
1.57755
1.57755
1.42775
1.42775
1.29161
1.29161
1.16529
1.16529
1.04556
1.04556
0.930387
0.930387
0.820483
0.820483
0.723356
0.723356
0.660154
0.660154
23917.3
23917.3
3909.99
3909.99
1202.35
1202.35
513.887
513.887
269.866
269.866
164.909
164.909
112.538
112.538
82.1475
82.1475
62.1506
62.1506
48.0429
48.0429
37.7568
37.7568
30.1042
30.1042
24.3129
24.3129
19.86
19.86
16.3852
16.3852
13.6371
13.6371
11.4378
11.4378
9.65932
9.65932
8.20839
8.20839
7.01569
7.01569
6.029
6.029
5.20831
5.20831
4.52254
4.52254
3.94715
3.94715
3.46256
3.46256
3.05293
3.05293
2.70532
2.70532
2.40901
2.40901
2.15507
2.15507
1.93599
1.93599
1.74534
1.74534
1.57755
1.57755
1.42775
1.42775
1.29161
1.29161
1.16529
1.16529
1.04556
1.04556
0.930387
0.930387
0.820483
0.820483
0.723356
0.723356
0.660154
0.660154
0.660154
0.660154
0.723356
0.723356
0.820483
0.820483
0.930387
0.930387
1.04556
1.04556
1.16529
1.16529
1.29161
1.29161
1.42775
1.42775
1.57755
1.57755
1.74534
1.74534
1.93599
1.93599
2.15507
2.15507
2.40901
2.40901
2.70532
2.70532
3.05293
3.05293
3.46256
3.46256
3.94715
3.94715
4.52254
4.52254
5.20831
5.20831
6.029
6.029
7.01569
7.01569
8.20839
8.20839
9.65932
9.65932
11.4378
11.4378
13.6371
13.6371
16.3852
16.3852
19.86
19.86
24.3129
24.3129
30.1042
30.1042
37.7568
37.7568
48.0429
48.0429
62.1506
62.1506
82.1475
82.1475
112.538
112.538
164.909
164.909
269.866
269.866
513.887
513.887
1202.35
1202.35
3909.99
3909.99
23917.3
23917.3
0.660154
0.660154
0.723356
0.723356
0.820483
0.820483
0.930387
0.930387
1.04556
1.04556
1.16529
1.16529
1.29161
1.29161
1.42775
1.42775
1.57755
1.57755
1.74534
1.74534
1.93599
1.93599
2.15507
2.15507
2.40901
2.40901
2.70532
2.70532
3.05293
3.05293
3.46256
3.46256
3.94715
3.94715
4.52254
4.52254
5.20831
5.20831
6.029
6.029
7.01569
7.01569
8.20839
8.20839
9.65932
9.65932
11.4378
11.4378
13.6371
13.6371
16.3852
16.3852
19.86
19.86
24.3129
24.3129
30.1042
30.1042
37.7568
37.7568
48.0429
48.0429
62.1506
62.1506
82.1475
82.1475
112.538
112.538
164.909
164.909
269.866
269.866
513.887
513.887
1202.35
1202.35
3909.99
3909.99
23917.3
23917.3
)
;

boundaryField
{
    walls
    {
        blending        binomial2;
        n               2;
        beta1           0.075;
        type            omegaWallFunction;
        value           nonuniform List<scalar> 8(23917.3 23917.3 23917.3 23917.3 23917.3 23917.3 23917.3 23917.3);
    }
    inlet
    {
        type            cyclic;
    }
    outlet
    {
        type            cyclic;
    }
    sides
    {
        type            empty;
    }
}


// ************************************************************************* //
