/*--------------------------------*- C++ -*----------------------------------*\
| =========                 |                                                 |
| \\      /  F ield         | OpenFOAM: The Open Source CFD Toolbox           |
|  \\    /   O peration     | Version:  2012                                  |
|   \\  /    A nd           | Website:  www.openfoam.com                      |
|    \\/     M anipulation  |                                                 |
\*---------------------------------------------------------------------------*/
FoamFile
{
    version     2.0;
    format      ascii;
    class       surfaceScalarField;
    location    "17000";
    object      phi;
}
// * * * * * * * * * * * * * * * * * * * * * * * * * * * * * * * * * * * * * //

dimensions      [0 3 -1 0 0 0 0];
oriented        oriented;


internalField   nonuniform List<scalar> 
636
(
1.12832e-06
-5.35904e-18
-2.97452e-21
-2.23166e-20
4.66561e-21
3.96529e-06
-5.3809e-18
1.80149e-20
-3.18313e-20
1.46209e-20
7.87111e-06
-5.4046e-18
2.14277e-20
-5.01667e-20
2.01548e-20
1.31625e-05
-5.41662e-18
2.34866e-20
-8.65219e-20
2.72166e-20
2.0212e-05
-5.41667e-18
2.48525e-20
-1.43162e-19
3.55258e-20
2.93632e-05
-5.39861e-18
2.47168e-20
-2.30421e-19
4.37684e-20
4.07452e-05
-5.35805e-18
2.21892e-20
-3.48656e-19
4.98477e-20
5.41909e-05
-5.30329e-18
1.74902e-20
-4.77891e-19
5.26161e-20
6.94842e-05
-5.21002e-18
1.15276e-20
-6.25448e-19
5.25917e-20
8.66172e-05
-5.09385e-18
4.76868e-21
-7.89064e-19
5.08892e-20
0.000105792
-4.9726e-18
-2.42858e-21
-9.57518e-19
4.80656e-20
0.000127332
-4.83232e-18
-9.8873e-21
-1.14831e-18
4.43843e-20
0.000151631
-4.65328e-18
-1.78939e-20
-1.33402e-18
3.97771e-20
0.00017913
-4.46966e-18
-2.65656e-20
-1.56474e-18
3.38241e-20
0.000210324
-4.23227e-18
-3.5341e-20
-1.76689e-18
2.67356e-20
0.000245761
-4.04751e-18
-4.36829e-20
-1.93247e-18
1.84676e-20
0.000286053
-3.8233e-18
-4.96028e-20
-2.16653e-18
7.56971e-21
0.000331883
-3.65343e-18
-5.57028e-20
-2.315e-18
-3.14589e-21
0.00038402
-3.43504e-18
-6.09232e-20
-2.36959e-18
-1.46239e-20
0.000443324
-3.23055e-18
-6.73421e-20
-2.47371e-18
-2.88191e-20
0.000510764
-3.10607e-18
-7.39041e-20
-2.40273e-18
-4.35084e-20
0.000587432
-2.81842e-18
-7.97581e-20
-2.4958e-18
-6.86951e-20
0.000674556
-2.69954e-18
-9.97592e-20
-2.44313e-18
-8.99123e-20
0.000773521
-2.58965e-18
-1.16516e-19
-2.31147e-18
-1.15513e-19
0.00088589
-2.394e-18
-1.35413e-19
-2.23793e-18
-1.38927e-19
0.00101343
-2.15389e-18
-1.51975e-19
-2.18477e-18
-1.56057e-19
0.00115812
-2.20899e-18
-1.82354e-19
-2.09847e-18
-1.87713e-19
0.00132223
-1.9886e-18
-1.47293e-19
-1.92655e-18
-2.06153e-19
0.00150826
-1.66626e-18
-1.46264e-19
-1.84918e-18
-2.43287e-19
0.00171909
-1.60549e-18
-2.0302e-19
-1.70885e-18
-2.22403e-19
0.00195792
-1.48972e-18
-2.63355e-19
-1.50942e-18
-2.62014e-19
0.00222834
-1.28259e-18
-1.27422e-19
-1.12654e-18
-9.07818e-20
0.00253439
-1.05088e-18
8.51023e-21
-1.14423e-18
-2.19622e-19
0.00288052
-9.96037e-19
-2.03547e-19
-9.57151e-19
-3.27802e-19
0.00327167
-6.55865e-19
3.07603e-20
-7.68279e-19
-1.44304e-19
0.00371319
-7.65788e-19
-2.40535e-19
-6.22409e-19
6.27561e-20
0.00421076
-7.78763e-19
-1.18871e-19
-8.07406e-19
-2.68067e-19
0.00477007
-1.04869e-18
2.40906e-19
-1.04434e-18
1.40907e-19
0.00539614
-1.04077e-18
4.86795e-20
-1.051e-18
5.0099e-20
0.0060917
2.22876e-19
-5.83147e-19
4.12557e-19
-5.62417e-19
1.12832e-06
-7.2066e-22
2.44741e-21
3.96529e-06
1.90929e-20
1.51647e-20
7.87111e-06
4.32439e-20
3.06291e-20
1.31625e-05
6.48535e-20
5.86901e-20
2.0212e-05
9.31352e-20
8.81556e-20
2.93632e-05
1.20392e-19
1.26775e-19
4.07452e-05
1.47872e-19
1.82049e-19
5.41909e-05
1.79103e-19
2.17976e-19
6.94842e-05
1.8559e-19
2.64356e-19
8.66172e-05
2.18197e-19
3.02788e-19
0.000105792
2.54489e-19
3.61888e-19
0.000127332
2.352e-19
3.9579e-19
0.000151631
2.24443e-19
4.23356e-19
0.00017913
2.33476e-19
4.28674e-19
0.000210324
2.77018e-19
4.23177e-19
0.000245761
3.21366e-19
3.86699e-19
0.000286053
2.64842e-19
4.07669e-19
0.000331883
2.19262e-19
3.94309e-19
0.00038402
1.50002e-19
3.63708e-19
0.000443324
1.0692e-19
2.80207e-19
0.000510764
1.5558e-20
1.76071e-19
0.000587432
-4.57473e-20
1.76572e-19
0.000674556
-4.55778e-20
1.2802e-19
0.000773521
-1.99846e-19
5.60078e-20
0.00088589
-2.41122e-19
-8.97184e-20
0.00101343
-3.6023e-19
-4.03414e-19
0.00115812
-4.78336e-19
-5.70123e-19
0.00132223
-6.74589e-19
-6.98839e-19
0.00150826
-7.97543e-19
-7.77416e-19
0.00171909
-9.80052e-19
-1.03898e-18
0.00195792
-8.12379e-19
-7.89038e-19
0.00222834
-8.96606e-19
-1.06516e-18
0.00253439
-1.01112e-18
-9.84357e-19
0.00288052
-5.64802e-19
-5.28057e-19
0.00327167
-6.46674e-19
-4.84006e-19
0.00371319
-6.0437e-19
-6.59149e-19
0.00421076
-6.10318e-19
-6.21219e-19
0.00477007
-1.14907e-18
-1.13676e-18
0.00539614
-1.11613e-18
-1.08804e-18
0.0060917
-5.37548e-19
-5.32598e-19
0.0060917
-7.0192e-19
-1.42844e-19
-9.26719e-19
-1.40961e-19
0.00539614
-1.29663e-18
1.7719e-19
-1.02496e-18
4.34499e-19
0.00477007
-6.60592e-19
1.48895e-19
-7.38536e-19
-5.804e-20
0.00421076
-5.8212e-19
-2.82866e-19
-5.48238e-19
-1.94149e-19
0.00371319
-4.71898e-19
4.2028e-20
-4.73519e-19
-1.82336e-19
0.00327167
-4.27046e-19
-2.82793e-19
-4.86962e-19
-8.15157e-20
0.00288052
-2.15315e-19
4.17428e-20
-2.29348e-19
-3.59424e-20
0.00253439
-4.28965e-19
-1.54521e-19
-3.5451e-19
-5.84269e-20
0.00222834
-3.54375e-19
-9.72281e-20
-3.65236e-19
-1.52593e-19
0.00195792
-1.6134e-19
-1.08245e-19
-4.19231e-20
-1.48034e-19
0.00171909
-1.08465e-19
-2.89463e-20
-1.32372e-19
-1.11713e-19
0.00150826
-1.50136e-19
1.03942e-21
-1.91748e-19
-3.09451e-20
0.00132223
-1.54005e-19
1.78536e-21
-2.20696e-19
-1.33426e-20
0.00115812
-1.55366e-19
1.06374e-20
-1.56856e-19
1.27546e-21
0.00101343
-8.06138e-20
2.42826e-20
-8.24591e-20
-4.50488e-21
0.00088589
-3.83541e-20
2.58276e-21
-2.55657e-20
1.42031e-21
0.000773521
-1.8513e-20
-2.3029e-21
-3.57851e-20
1.56911e-21
0.000674556
-2.25298e-20
4.99522e-22
5.50492e-20
5.78419e-21
0.000587432
5.02851e-20
7.4173e-21
3.97628e-20
4.43626e-21
0.000510764
1.54784e-20
6.70055e-21
6.16911e-20
1.61695e-21
0.000443324
4.64921e-20
5.08195e-21
5.9184e-20
-6.81498e-22
0.00038402
9.93847e-20
1.21205e-21
9.06022e-21
-1.49974e-21
0.000331883
7.81889e-20
-2.82228e-21
7.46678e-21
-1.7852e-21
0.000286053
-1.89084e-20
-5.67801e-21
5.20325e-21
-2.72022e-21
0.000245761
-3.96806e-20
-4.32154e-21
-2.46902e-21
-2.58455e-21
0.000210324
-4.11569e-20
-3.85488e-21
4.60519e-21
-1.74567e-21
0.00017913
-2.61395e-20
-3.14934e-21
7.05262e-21
-1.40063e-21
0.000151631
-1.73184e-20
-2.3919e-21
1.18987e-20
-1.3744e-21
0.000127332
-1.4417e-20
-1.87214e-21
-2.59405e-20
-1.47565e-21
0.000105792
-6.94218e-21
-1.70773e-21
-2.12458e-20
-1.24485e-21
8.66172e-05
-5.33156e-21
-1.62706e-21
1.69298e-21
-1.15272e-21
6.94842e-05
-6.48091e-21
-1.51198e-21
1.27293e-21
-1.16734e-21
5.41909e-05
-7.01145e-21
-1.38772e-21
-2.97292e-21
-1.11279e-21
4.07452e-05
-4.4257e-21
-1.20971e-21
-1.001e-21
-1.002e-21
2.93632e-05
-2.67033e-21
-9.89311e-22
6.9061e-22
-8.44768e-22
2.0212e-05
-3.09495e-21
-7.71796e-22
-7.31734e-22
-6.60145e-22
1.31626e-05
-1.85422e-21
-5.67591e-22
4.55698e-22
-4.88544e-22
7.87112e-06
-6.35476e-23
-4.08114e-22
-4.16508e-22
-3.53894e-22
3.96529e-06
-1.11742e-22
-2.9203e-22
3.16941e-23
-2.5203e-22
1.12832e-06
-6.3137e-23
-6.325e-23
0.0060917
-3.07243e-19
-4.98561e-19
0.00539614
-1.17828e-18
-1.07983e-18
0.00477007
-8.89361e-19
-8.76859e-19
0.00421076
-5.14978e-19
-6.56664e-19
0.00371319
-6.75352e-19
-4.4496e-19
0.00327167
-2.39276e-19
-4.3774e-19
0.00288052
-4.40906e-19
-2.25987e-19
0.00253439
-3.14507e-19
-4.00683e-19
0.00222834
-2.85891e-19
-3.56986e-19
0.00195792
3.28921e-20
-5.3299e-21
0.00171909
2.71629e-20
1.40574e-19
0.00150826
-7.26503e-20
-6.91733e-20
0.00132223
-6.09956e-20
-1.22484e-19
0.00115812
-3.50995e-20
-1.41216e-19
0.00101343
-1.78304e-19
-5.41447e-20
0.00088589
-8.12103e-20
-3.00077e-20
0.000773521
-3.946e-20
-4.33518e-20
0.000674556
9.54853e-21
-3.27475e-20
0.000587432
1.04118e-20
-2.42089e-20
0.000510764
-2.70806e-20
-7.19664e-21
0.000443324
-4.12803e-20
-1.50478e-20
0.00038402
-1.96562e-20
-4.71634e-20
0.000331883
-4.75795e-20
-6.26249e-20
0.000286053
1.89036e-20
-3.35703e-20
0.000245761
-4.13571e-20
5.47059e-22
0.000210324
-1.622e-20
5.23378e-21
0.00017913
1.73739e-20
-3.50546e-21
0.000151631
2.66968e-20
-1.05075e-20
0.000127332
-5.68881e-21
2.46789e-21
0.000105792
-1.11493e-20
-1.10688e-20
8.66172e-05
-2.27966e-21
-8.77106e-21
6.94842e-05
-7.15422e-21
-1.53733e-21
5.41909e-05
-1.91826e-21
-5.75465e-21
4.07452e-05
1.98841e-21
-3.51351e-21
2.93632e-05
-7.42831e-21
8.63705e-22
2.0212e-05
-8.78152e-22
1.46855e-21
1.31626e-05
-1.62362e-22
4.9655e-22
7.87112e-06
-1.36573e-21
1.21393e-21
3.96529e-06
-3.40898e-22
2.3952e-22
1.12832e-06
)
;

boundaryField
{
    walls
    {
        type            calculated;
        value           uniform 0;
    }
    inlet
    {
        type            cyclic;
        value           nonuniform List<scalar> 
160
(
-1.12832e-06
-3.96529e-06
-7.87111e-06
-1.31625e-05
-2.0212e-05
-2.93632e-05
-4.07452e-05
-5.41909e-05
-6.94842e-05
-8.66172e-05
-0.000105792
-0.000127332
-0.000151631
-0.00017913
-0.000210324
-0.000245761
-0.000286053
-0.000331883
-0.00038402
-0.000443324
-0.000510764
-0.000587432
-0.000674556
-0.000773521
-0.00088589
-0.00101343
-0.00115812
-0.00132223
-0.00150826
-0.00171909
-0.00195792
-0.00222834
-0.00253439
-0.00288052
-0.00327167
-0.00371319
-0.00421076
-0.00477007
-0.00539614
-0.0060917
-1.12832e-06
-3.96529e-06
-7.87111e-06
-1.31625e-05
-2.0212e-05
-2.93632e-05
-4.07452e-05
-5.41909e-05
-6.94842e-05
-8.66172e-05
-0.000105792
-0.000127332
-0.000151631
-0.00017913
-0.000210324
-0.000245761
-0.000286053
-0.000331883
-0.00038402
-0.000443324
-0.000510764
-0.000587432
-0.000674556
-0.000773521
-0.00088589
-0.00101343
-0.00115812
-0.00132223
-0.00150826
-0.00171909
-0.00195792
-0.00222834
-0.00253439
-0.00288052
-0.00327167
-0.00371319
-0.00421076
-0.00477007
-0.00539614
-0.0060917
-0.0060917
-0.00539614
-0.00477007
-0.00421076
-0.00371319
-0.00327167
-0.00288052
-0.00253439
-0.00222834
-0.00195792
-0.00171909
-0.00150826
-0.00132223
-0.00115812
-0.00101343
-0.00088589
-0.000773521
-0.000674556
-0.000587432
-0.000510764
-0.000443324
-0.00038402
-0.000331883
-0.000286053
-0.000245761
-0.000210324
-0.00017913
-0.000151631
-0.000127332
-0.000105792
-8.66172e-05
-6.94842e-05
-5.41909e-05
-4.07452e-05
-2.93632e-05
-2.0212e-05
-1.31626e-05
-7.87112e-06
-3.96529e-06
-1.12832e-06
-0.0060917
-0.00539614
-0.00477007
-0.00421076
-0.00371319
-0.00327167
-0.00288052
-0.00253439
-0.00222834
-0.00195792
-0.00171909
-0.00150826
-0.00132223
-0.00115812
-0.00101343
-0.00088589
-0.000773521
-0.000674556
-0.000587432
-0.000510764
-0.000443324
-0.00038402
-0.000331883
-0.000286053
-0.000245761
-0.000210324
-0.00017913
-0.000151631
-0.000127332
-0.000105792
-8.66172e-05
-6.94842e-05
-5.41909e-05
-4.07452e-05
-2.93632e-05
-2.0212e-05
-1.31626e-05
-7.87112e-06
-3.96529e-06
-1.12832e-06
)
;
    }
    outlet
    {
        type            cyclic;
        value           nonuniform List<scalar> 
160
(
1.12832e-06
3.96529e-06
7.87111e-06
1.31625e-05
2.0212e-05
2.93632e-05
4.07452e-05
5.41909e-05
6.94842e-05
8.66172e-05
0.000105792
0.000127332
0.000151631
0.00017913
0.000210324
0.000245761
0.000286053
0.000331883
0.00038402
0.000443324
0.000510764
0.000587432
0.000674556
0.000773521
0.00088589
0.00101343
0.00115812
0.00132223
0.00150826
0.00171909
0.00195792
0.00222834
0.00253439
0.00288052
0.00327167
0.00371319
0.00421076
0.00477007
0.00539614
0.0060917
1.12832e-06
3.96529e-06
7.87111e-06
1.31625e-05
2.0212e-05
2.93632e-05
4.07452e-05
5.41909e-05
6.94842e-05
8.66172e-05
0.000105792
0.000127332
0.000151631
0.00017913
0.000210324
0.000245761
0.000286053
0.000331883
0.00038402
0.000443324
0.000510764
0.000587432
0.000674556
0.000773521
0.00088589
0.00101343
0.00115812
0.00132223
0.00150826
0.00171909
0.00195792
0.00222834
0.00253439
0.00288052
0.00327167
0.00371319
0.00421076
0.00477007
0.00539614
0.0060917
0.0060917
0.00539614
0.00477007
0.00421076
0.00371319
0.00327167
0.00288052
0.00253439
0.00222834
0.00195792
0.00171909
0.00150826
0.00132223
0.00115812
0.00101343
0.00088589
0.000773521
0.000674556
0.000587432
0.000510764
0.000443324
0.00038402
0.000331883
0.000286053
0.000245761
0.000210324
0.00017913
0.000151631
0.000127332
0.000105792
8.66172e-05
6.94842e-05
5.41909e-05
4.07452e-05
2.93632e-05
2.0212e-05
1.31626e-05
7.87112e-06
3.96529e-06
1.12832e-06
0.0060917
0.00539614
0.00477007
0.00421076
0.00371319
0.00327167
0.00288052
0.00253439
0.00222834
0.00195792
0.00171909
0.00150826
0.00132223
0.00115812
0.00101343
0.00088589
0.000773521
0.000674556
0.000587432
0.000510764
0.000443324
0.00038402
0.000331883
0.000286053
0.000245761
0.000210324
0.00017913
0.000151631
0.000127332
0.000105792
8.66172e-05
6.94842e-05
5.41909e-05
4.07452e-05
2.93632e-05
2.0212e-05
1.31626e-05
7.87112e-06
3.96529e-06
1.12832e-06
)
;
    }
    sides
    {
        type            empty;
        value           nonuniform List<scalar> 0();
    }
}


// ************************************************************************* //
