/*--------------------------------*- C++ -*----------------------------------*\
| =========                 |                                                 |
| \\      /  F ield         | OpenFOAM: The Open Source CFD Toolbox           |
|  \\    /   O peration     | Version:  2012                                  |
|   \\  /    A nd           | Website:  www.openfoam.com                      |
|    \\/     M anipulation  |                                                 |
\*---------------------------------------------------------------------------*/
FoamFile
{
    version     2.0;
    format      ascii;
    class       volVectorField;
    location    "17000";
    object      U;
}
// * * * * * * * * * * * * * * * * * * * * * * * * * * * * * * * * * * * * * //

dimensions      [0 1 -1 0 0 0 0];


internalField   nonuniform List<vector> 
320
(
(0.0200813 -1.3364e-15 -3.68401e-17)
(0.0200813 -3.7867e-17 -4.00996e-32)
(0.0627125 -2.04498e-15 2.02446e-16)
(0.0627125 2.4588e-17 -7.3907e-18)
(0.11062 -2.52538e-15 2.81776e-16)
(0.11062 -1.81852e-17 -1.30297e-17)
(0.164382 -2.14473e-15 3.90507e-16)
(0.164382 -2.72242e-17 -2.38858e-17)
(0.224307 -2.10261e-15 5.15311e-16)
(0.224307 -4.63298e-17 -3.87436e-17)
(0.289571 -2.12041e-15 6.391e-16)
(0.289571 -7.65454e-17 -5.7304e-17)
(0.357064 -2.11709e-15 7.36394e-16)
(0.357064 -1.18816e-16 -7.67454e-17)
(0.422001 -2.11323e-15 7.95017e-16)
(0.422001 -1.67995e-16 -9.44516e-17)
(0.480829 -2.11329e-15 8.282e-16)
(0.480829 -2.26176e-16 -1.11335e-16)
(0.532631 -2.04983e-15 8.56196e-16)
(0.532631 -2.90754e-16 -1.28504e-16)
(0.578087 -2.0091e-15 8.91946e-16)
(0.578087 -3.5468e-16 -1.46155e-16)
(0.618297 -1.95693e-15 9.41067e-16)
(0.618297 -4.26398e-16 -1.65117e-16)
(0.65428 -1.89392e-15 1.00488e-15)
(0.65428 -5.00765e-16 -1.84825e-16)
(0.686852 -1.82166e-15 1.08475e-15)
(0.686852 -5.86413e-16 -2.06931e-16)
(0.716642 -1.73571e-15 1.1814e-15)
(0.716642 -6.68245e-16 -2.25868e-16)
(0.744122 -1.64888e-15 1.13223e-15)
(0.744122 -7.41008e-16 -2.47137e-16)
(0.769652 -1.56433e-15 8.63105e-16)
(0.769652 -8.22834e-16 -2.06546e-16)
(0.793509 -1.49271e-15 6.01744e-16)
(0.793509 -9.0501e-16 -7.15136e-17)
(0.815902 -1.41394e-15 4.27357e-16)
(0.815902 -9.41292e-16 -6.21408e-17)
(0.836996 -1.32727e-15 3.88351e-16)
(0.836996 -9.63065e-16 -1.08821e-16)
(0.856921 -1.26839e-15 4.0817e-16)
(0.856921 -9.81661e-16 -1.4599e-16)
(0.875781 -1.17463e-15 4.29814e-16)
(0.875781 -9.73017e-16 5.20405e-17)
(0.893663 -1.1023e-15 5.166e-16)
(0.893663 -9.92777e-16 2.74397e-16)
(0.910638 -1.05914e-15 6.4652e-16)
(0.910638 -9.62053e-16 4.58747e-16)
(0.92677 -9.91224e-16 7.1375e-16)
(0.92677 -9.01858e-16 6.78405e-16)
(0.942112 -9.13432e-16 8.73851e-16)
(0.942112 -8.87281e-16 8.12904e-16)
(0.956716 -8.66754e-16 1.01792e-15)
(0.956716 -8.50147e-16 9.85089e-16)
(0.970624 -8.40176e-16 1.07996e-15)
(0.970624 -8.05599e-16 1.10696e-15)
(0.983877 -7.32833e-16 1.12999e-15)
(0.983877 -7.62746e-16 9.70155e-16)
(0.996508 -6.56411e-16 9.64591e-16)
(0.996508 -7.09285e-16 8.19891e-16)
(1.00854 -6.18044e-16 9.04083e-16)
(1.00854 -6.46057e-16 8.95288e-16)
(1.02 -5.27114e-16 7.2094e-16)
(1.02 -5.01166e-16 9.73539e-16)
(1.03088 -4.45061e-16 9.54949e-16)
(1.03088 -4.38044e-16 8.52403e-16)
(1.04118 -4.40648e-16 1.06483e-15)
(1.04118 -4.45842e-16 1.10118e-15)
(1.05085 -3.75924e-16 1.23788e-15)
(1.05085 -3.66119e-16 1.13327e-15)
(1.05983 -2.70142e-16 8.45065e-16)
(1.05983 -2.65851e-16 9.97776e-16)
(1.06799 -2.74158e-16 7.49623e-16)
(1.06799 -2.44795e-16 6.77014e-16)
(1.0751 -3.64164e-16 5.12355e-16)
(1.0751 -3.68812e-16 5.16825e-16)
(1.08075 -4.41398e-16 4.97579e-16)
(1.08075 -4.46421e-16 4.94672e-16)
(1.08418 -3.88788e-16 8.39384e-16)
(1.08418 -3.6465e-16 9.10385e-16)
(0.0200813 -5.53267e-18 3.93829e-17)
(0.0200813 -3.23357e-18 1.66073e-16)
(0.0627125 8.41908e-18 2.04612e-17)
(0.0627125 7.02832e-18 4.62469e-16)
(0.11062 1.19477e-17 2.67715e-17)
(0.11062 9.27249e-18 5.66508e-16)
(0.164382 2.14319e-17 3.53452e-17)
(0.164382 1.77798e-17 6.79797e-16)
(0.224307 3.22861e-17 4.5786e-17)
(0.224307 3.06061e-17 7.88509e-16)
(0.289571 4.48125e-17 5.70253e-17)
(0.289571 4.46292e-17 8.6326e-16)
(0.357064 5.69581e-17 6.65717e-17)
(0.357064 6.36704e-17 8.73664e-16)
(0.422001 6.66272e-17 7.28994e-17)
(0.422001 8.21111e-17 8.19474e-16)
(0.480829 7.09941e-17 7.80541e-17)
(0.480829 9.43192e-17 7.27866e-16)
(0.532631 7.81867e-17 8.20994e-17)
(0.532631 1.10956e-16 6.25861e-16)
(0.578087 9.12593e-17 8.80258e-17)
(0.578087 1.33479e-16 5.25297e-16)
(0.618297 9.39837e-17 9.45745e-17)
(0.618297 1.47932e-16 4.3104e-16)
(0.65428 8.82184e-17 9.81566e-17)
(0.65428 1.58588e-16 3.43273e-16)
(0.686852 8.92373e-17 9.91507e-17)
(0.686852 1.70146e-16 2.59389e-16)
(0.716642 9.99591e-17 9.99032e-17)
(0.716642 1.68122e-16 1.82193e-16)
(0.744122 1.18533e-16 1.03255e-16)
(0.744122 1.57854e-16 4.54121e-17)
(0.769652 1.15289e-16 1.14733e-16)
(0.769652 1.58462e-16 6.77431e-17)
(0.793509 9.55667e-17 1.16944e-16)
(0.793509 1.55976e-16 1.01891e-16)
(0.815902 7.51611e-17 1.14064e-16)
(0.815902 1.49643e-16 1.00044e-16)
(0.836996 5.16333e-17 1.08839e-16)
(0.836996 1.39721e-16 1.03983e-16)
(0.856921 1.89491e-17 1.09442e-16)
(0.856921 8.19552e-17 1.3823e-16)
(0.875781 -5.06642e-18 1.03443e-16)
(0.875781 6.91374e-17 1.46084e-16)
(0.893663 -7.85259e-18 7.78824e-17)
(0.893663 7.57515e-17 1.97656e-16)
(0.910638 -5.06376e-17 9.35121e-17)
(0.910638 3.07713e-17 2.83666e-16)
(0.92677 -8.95312e-17 -2.37748e-17)
(0.92677 -8.69389e-18 5.56631e-17)
(0.942112 -1.15849e-16 -2.23814e-16)
(0.942112 -9.21614e-17 -2.37679e-16)
(0.956716 -1.76114e-16 -4.45296e-16)
(0.956716 -2.03158e-16 -3.7412e-16)
(0.970624 -2.34215e-16 -7.13554e-16)
(0.970624 -2.60614e-16 -6.97382e-16)
(0.983877 -2.9078e-16 -9.16179e-16)
(0.983877 -2.91735e-16 -9.48639e-16)
(0.996508 -3.78745e-16 -9.44207e-16)
(0.996508 -3.87803e-16 -9.63922e-16)
(1.00854 -3.72236e-16 -8.57067e-16)
(1.00854 -4.01733e-16 -8.84015e-16)
(1.02 -3.38296e-16 -8.4453e-16)
(1.02 -3.75802e-16 -7.28361e-16)
(1.03088 -3.80718e-16 -8.00464e-16)
(1.03088 -4.07905e-16 -7.93426e-16)
(1.04118 -3.20453e-16 -1.23178e-15)
(1.04118 -2.95781e-16 -1.24526e-15)
(1.05085 -2.85119e-16 -1.08088e-15)
(1.05085 -2.26791e-16 -1.26177e-15)
(1.05983 -2.68585e-16 -9.22388e-16)
(1.05983 -2.26904e-16 -8.26679e-16)
(1.06799 -2.14147e-16 -9.19429e-16)
(1.06799 -2.38968e-16 -9.24847e-16)
(1.0751 -4.46223e-16 -4.2289e-16)
(1.0751 -4.72217e-16 -4.72994e-16)
(1.08075 -4.87541e-16 -5.57299e-16)
(1.08075 -4.73267e-16 -6.18741e-16)
(1.08418 -4.16162e-16 -1.20025e-15)
(1.08418 -4.26337e-16 -1.01646e-15)
(1.08418 -2.30101e-16 4.26238e-16)
(1.08418 -1.74755e-16 5.23624e-16)
(1.08075 -3.39752e-16 8.39528e-16)
(1.08075 -3.77019e-16 1.18319e-15)
(1.0751 -2.79104e-16 1.69353e-15)
(1.0751 -3.19778e-16 9.6056e-16)
(1.06799 -1.66987e-16 5.1027e-16)
(1.06799 -1.97243e-16 5.2786e-16)
(1.05983 -1.87186e-16 8.36527e-16)
(1.05983 -1.62426e-16 8.66056e-16)
(1.05085 -1.82191e-16 5.83167e-16)
(1.05085 -1.98854e-16 7.04364e-16)
(1.04118 -1.71981e-16 6.1207e-16)
(1.04118 -1.21173e-16 5.06125e-16)
(1.03088 -1.36461e-16 3.75911e-16)
(1.03088 -1.14866e-16 2.75091e-16)
(1.02 -1.71078e-16 2.73736e-16)
(1.02 -1.31144e-16 2.44039e-16)
(1.00854 -1.00219e-16 1.79168e-16)
(1.00854 -6.42427e-17 2.92374e-16)
(0.996508 -3.66274e-17 1.08077e-16)
(0.996508 -1.71029e-17 8.36743e-17)
(0.983877 -6.68817e-17 7.58172e-17)
(0.983877 -9.6834e-17 8.22361e-17)
(0.970624 -5.68374e-17 4.90833e-17)
(0.970624 -1.01685e-16 4.90547e-17)
(0.956716 -6.304e-17 5.32877e-17)
(0.956716 -4.77058e-17 4.06743e-17)
(0.942112 -1.77307e-17 6.64097e-17)
(0.942112 -3.45688e-17 1.29223e-16)
(0.92677 -2.31903e-17 9.79635e-17)
(0.92677 -1.62288e-17 8.86058e-17)
(0.910638 -1.4005e-17 1.44215e-17)
(0.910638 -3.6656e-17 4.15829e-17)
(0.893663 -1.64918e-18 7.91479e-18)
(0.893663 1.7553e-17 3.33543e-17)
(0.875781 -1.4316e-17 4.61463e-17)
(0.875781 1.47431e-17 2.11825e-17)
(0.856921 5.99992e-18 4.456e-17)
(0.856921 1.69528e-17 3.79392e-17)
(0.836996 1.43667e-17 4.1088e-17)
(0.836996 2.82246e-17 4.25616e-17)
(0.815902 2.9564e-17 5.07517e-17)
(0.815902 1.26056e-17 2.93824e-17)
(0.793509 3.52669e-17 4.0474e-17)
(0.793509 3.95816e-18 3.72132e-17)
(0.769652 -3.56063e-18 2.60998e-17)
(0.769652 1.5025e-18 4.96314e-17)
(0.744122 -1.07206e-17 2.48312e-17)
(0.744122 2.65206e-18 4.41306e-17)
(0.716642 -1.76285e-17 1.64112e-17)
(0.716642 -9.53555e-19 3.6179e-17)
(0.686852 -1.35389e-17 1.2709e-17)
(0.686852 -5.06997e-20 2.90198e-17)
(0.65428 -7.83837e-18 9.34586e-18)
(0.65428 6.91083e-18 2.61075e-17)
(0.618297 -6.18696e-18 6.85236e-18)
(0.618297 -4.05356e-18 2.31522e-17)
(0.578087 -3.83591e-18 6.10303e-18)
(0.578087 -8.63893e-18 2.10759e-17)
(0.532631 -3.01811e-18 6.1309e-18)
(0.532631 -3.18454e-18 2.11002e-17)
(0.480829 -3.56582e-18 6.03156e-18)
(0.480829 -6.58982e-19 2.16546e-17)
(0.422001 -2.56291e-18 5.65661e-18)
(0.422001 -3.61984e-19 2.10708e-17)
(0.357064 -2.18795e-18 5.90098e-18)
(0.357064 -7.95623e-19 2.00928e-17)
(0.289571 -1.57331e-18 5.60604e-18)
(0.289571 -1.68572e-21 1.84981e-17)
(0.224307 -1.04077e-18 4.97106e-18)
(0.224307 5.03688e-20 1.57642e-17)
(0.164382 -1.03313e-18 4.09265e-18)
(0.164382 -7.56634e-20 1.29413e-17)
(0.11062 -3.7204e-19 3.29126e-18)
(0.11062 -3.13086e-20 1.03684e-17)
(0.0627125 -1.54581e-20 2.64392e-18)
(0.0627125 -2.46438e-20 8.29592e-18)
(0.0200813 -2.72865e-20 1.77266e-19)
(0.0200813 -5.29176e-20 1.1661e-18)
(1.08418 -1.66673e-16 -6.10928e-16)
(1.08418 -1.67115e-16 -4.88018e-16)
(1.08075 -1.5256e-16 -7.46075e-16)
(1.08075 -3.01338e-16 -1.06846e-15)
(1.0751 -5.11354e-16 -1.89666e-15)
(1.0751 -4.50774e-16 -1.42323e-15)
(1.06799 -2.79795e-16 -7.41851e-16)
(1.06799 -3.10479e-16 -6.11741e-16)
(1.05983 -2.08354e-16 -4.34776e-16)
(1.05983 -1.82919e-16 -6.7347e-16)
(1.05085 -7.64789e-17 -7.23373e-16)
(1.05085 -1.728e-16 -6.34457e-16)
(1.04118 -1.47076e-16 -3.92289e-16)
(1.04118 -1.14746e-16 -4.85039e-16)
(1.03088 -1.59441e-16 -4.3828e-16)
(1.03088 -1.28545e-16 -2.25143e-16)
(1.02 -1.16624e-16 -2.86823e-16)
(1.02 -1.44713e-16 -3.70614e-16)
(1.00854 -4.86226e-17 -2.20563e-16)
(1.00854 -1.07834e-16 -2.47853e-16)
(0.996508 3.42224e-17 -1.59127e-16)
(0.996508 6.31726e-17 -2.19061e-16)
(0.983877 -5.0466e-17 -8.23463e-17)
(0.983877 1.5094e-17 -7.48869e-17)
(0.970624 -2.42771e-17 -4.5232e-17)
(0.970624 -5.26804e-17 -7.01337e-17)
(0.956716 -1.96064e-17 -2.86906e-17)
(0.956716 -2.57926e-17 -8.16224e-17)
(0.942112 -3.90847e-17 -7.69226e-17)
(0.942112 -1.60418e-17 -1.22384e-16)
(0.92677 -5.01994e-17 -1.0348e-16)
(0.92677 -2.57577e-17 -6.47224e-17)
(0.910638 -2.42487e-17 -4.97607e-17)
(0.910638 -1.57868e-17 -6.17067e-17)
(0.893663 -6.0872e-18 -3.17004e-17)
(0.893663 -1.74615e-17 -3.1332e-17)
(0.875781 1.87708e-18 -1.34335e-17)
(0.875781 -1.70334e-17 -1.38428e-17)
(0.856921 -7.60493e-18 -2.7873e-17)
(0.856921 6.2383e-19 -2.85187e-17)
(0.836996 -1.1608e-17 -4.13001e-17)
(0.836996 -6.87707e-18 -3.04129e-17)
(0.815902 -9.62837e-18 -4.13499e-17)
(0.815902 -1.6583e-17 -3.9258e-17)
(0.793509 -1.33312e-17 -5.22241e-17)
(0.793509 -2.08615e-17 -3.41795e-17)
(0.769652 -4.31865e-18 -7.02689e-17)
(0.769652 -1.5654e-17 -3.23105e-17)
(0.744122 -6.51935e-18 -6.07742e-17)
(0.744122 -9.97987e-18 -3.45656e-17)
(0.716642 -1.12002e-17 -5.45997e-17)
(0.716642 -1.72394e-18 -3.17103e-17)
(0.686852 -1.07816e-18 -4.8318e-17)
(0.686852 -3.77261e-20 -2.81853e-17)
(0.65428 8.52685e-18 -4.35261e-17)
(0.65428 -3.28167e-19 -2.81516e-17)
(0.618297 5.75808e-18 -3.93516e-17)
(0.618297 -7.31384e-18 -3.16521e-17)
(0.578087 -2.83984e-18 -3.65653e-17)
(0.578087 -2.32238e-18 -2.99034e-17)
(0.532631 -2.62371e-18 -3.65052e-17)
(0.532631 -3.01508e-18 -2.65598e-17)
(0.480829 -2.52765e-18 -3.78866e-17)
(0.480829 3.08113e-18 -2.73576e-17)
(0.422001 -1.81754e-18 -3.82224e-17)
(0.422001 -3.16134e-18 -2.89109e-17)
(0.357064 -6.16975e-20 -3.7079e-17)
(0.357064 -1.90006e-18 -2.82535e-17)
(0.289571 -1.12588e-18 -3.42182e-17)
(0.289571 1.51972e-19 -2.58843e-17)
(0.224307 -1.55791e-18 -2.96919e-17)
(0.224307 5.24822e-19 -2.24247e-17)
(0.164382 -3.63242e-19 -2.4522e-17)
(0.164382 3.69259e-19 -1.85438e-17)
(0.11062 -2.49158e-19 -1.97893e-17)
(0.11062 3.26113e-19 -1.50401e-17)
(0.0627125 -3.65505e-19 -1.58879e-17)
(0.0627125 2.75173e-19 -1.20067e-17)
(0.0200813 3.22344e-20 -2.69649e-18)
(0.0200813 9.28552e-20 -2.52324e-18)
)
;

boundaryField
{
    walls
    {
        type            fixedValue;
        value           uniform (0 0 0);
    }
    inlet
    {
        type            cyclic;
    }
    outlet
    {
        type            cyclic;
    }
    sides
    {
        type            empty;
    }
}


// ************************************************************************* //
