/*--------------------------------*- C++ -*----------------------------------*\
| =========                 |                                                 |
| \\      /  F ield         | OpenFOAM: The Open Source CFD Toolbox           |
|  \\    /   O peration     | Version:  2012                                  |
|   \\  /    A nd           | Website:  www.openfoam.com                      |
|    \\/     M anipulation  |                                                 |
\*---------------------------------------------------------------------------*/
FoamFile
{
    version     2.0;
    format      ascii;
    class       volScalarField;
    location    "15200";
    object      nut;
}
// * * * * * * * * * * * * * * * * * * * * * * * * * * * * * * * * * * * * * //

dimensions      [0 2 -1 0 0 0 0];


internalField   nonuniform List<scalar> 
2560
(
5.35356e-09
5.35356e-09
7.42027e-07
7.42027e-07
1.5393e-05
1.5393e-05
0.000101333
0.000101333
0.000313038
0.000313038
0.000631182
0.000631182
0.00101904
0.00101904
0.00145294
0.00145294
0.00191907
0.00191907
0.00240884
0.00240884
0.00291649
0.00291649
0.00343793
0.00343793
0.00397007
0.00397007
0.00451053
0.00451053
0.0050574
0.0050574
0.00560908
0.00560908
0.00616425
0.00616425
0.00672177
0.00672177
0.00728063
0.00728063
0.00783996
0.00783996
0.00839896
0.00839896
0.00895689
0.00895689
0.0095131
0.0095131
0.010067
0.010067
0.0106179
0.0106179
0.0111653
0.0111653
0.0117088
0.0117088
0.0122476
0.0122476
0.0127815
0.0127815
0.0133099
0.0133099
0.0138323
0.0138323
0.0143483
0.0143483
0.0148574
0.0148574
0.0153593
0.0153593
0.0158535
0.0158535
0.0163396
0.0163396
0.0168173
0.0168173
0.0172861
0.0172861
0.0177458
0.0177458
0.018196
0.018196
0.0186364
0.0186364
0.0190669
0.0190669
0.0194872
0.0194872
0.0198972
0.0198972
0.0202968
0.0202968
0.0206858
0.0206858
0.0210645
0.0210645
0.0214328
0.0214328
0.0217911
0.0217911
0.0221395
0.0221395
0.0224785
0.0224785
0.0228087
0.0228087
0.0231307
0.0231307
0.0234452
0.0234452
0.0237533
0.0237533
0.0240561
0.0240561
0.0243549
0.0243549
0.0246511
0.0246511
0.0249464
0.0249464
0.0252427
0.0252427
0.025542
0.025542
0.0258465
0.0258465
0.0261586
0.0261586
0.0264808
0.0264808
0.0268158
0.0268158
0.0271663
0.0271663
0.0275349
0.0275349
0.0279244
0.0279244
0.0283373
0.0283373
0.028776
0.028776
0.0292428
0.0292428
0.0297394
0.0297394
0.0302672
0.0302672
0.0308273
0.0308273
0.0314202
0.0314202
0.0320459
0.0320459
0.0327038
0.0327038
0.0333927
0.0333927
0.0341111
0.0341111
0.0348569
0.0348569
0.0356277
0.0356277
0.0364206
0.0364206
0.0372328
0.0372328
0.0380608
0.0380608
0.0389015
0.0389015
0.0397514
0.0397514
0.0406071
0.0406071
0.0414655
0.0414655
0.0423234
0.0423234
0.0431778
0.0431778
0.0440259
0.0440259
0.0448651
0.0448651
0.0456932
0.0456932
0.046508
0.046508
0.0473076
0.0473076
0.0480905
0.0480905
0.0488551
0.0488551
0.0496004
0.0496004
0.0503253
0.0503253
0.0510291
0.0510291
0.0517112
0.0517112
0.052371
0.052371
0.0530085
0.0530085
0.0536233
0.0536233
0.0542155
0.0542155
0.0547851
0.0547851
0.0553323
0.0553323
0.0558574
0.0558574
0.0563606
0.0563606
0.0568424
0.0568424
0.0573032
0.0573032
0.0577433
0.0577433
0.0581634
0.0581634
0.0585638
0.0585638
0.0589452
0.0589452
0.0593081
0.0593081
0.0596529
0.0596529
0.0599803
0.0599803
0.0602908
0.0602908
0.0605848
0.0605848
0.060863
0.060863
0.0611257
0.0611257
0.0613735
0.0613735
0.0616069
0.0616069
0.0618262
0.0618262
0.0620319
0.0620319
0.0622244
0.0622244
0.0624041
0.0624041
0.0625714
0.0625714
0.0627265
0.0627265
0.0628699
0.0628699
0.0630019
0.0630019
0.0631227
0.0631227
0.0632326
0.0632326
0.063332
0.063332
0.063421
0.063421
0.0634999
0.0634999
0.063569
0.063569
0.0636284
0.0636284
0.0636784
0.0636784
0.0637192
0.0637192
0.0637511
0.0637511
0.0637741
0.0637741
0.0637885
0.0637885
0.0637945
0.0637945
0.0637922
0.0637922
0.0637819
0.0637819
0.0637638
0.0637638
0.063738
0.063738
0.0637048
0.0637048
0.0636644
0.0636644
0.0636169
0.0636169
0.0635627
0.0635627
0.063502
0.063502
0.063435
0.063435
0.0633621
0.0633621
0.0632835
0.0632835
0.0631995
0.0631995
0.0631104
0.0631104
0.0630166
0.0630166
0.0629184
0.0629184
0.0628161
0.0628161
0.0627101
0.0627101
0.0626005
0.0626005
0.0624877
0.0624877
0.062372
0.062372
0.0622536
0.0622536
0.0621325
0.0621325
0.0620091
0.0620091
0.0618834
0.0618834
0.0617556
0.0617556
0.0616258
0.0616258
0.0614942
0.0614942
0.0613609
0.0613609
0.0612261
0.0612261
0.0610901
0.0610901
0.0609531
0.0609531
0.0608154
0.0608154
0.0606774
0.0606774
0.0605395
0.0605395
0.060402
0.060402
0.0602652
0.0602652
0.0601298
0.0601298
0.059996
0.059996
0.0598642
0.0598642
0.0597349
0.0597349
0.0596086
0.0596086
0.0594855
0.0594855
0.0593662
0.0593662
0.0592512
0.0592512
0.0591409
0.0591409
0.059036
0.059036
0.058937
0.058937
0.0588447
0.0588447
0.0587598
0.0587598
0.0586831
0.0586831
0.0586156
0.0586156
0.0585581
0.0585581
0.0585117
0.0585117
0.0584773
0.0584773
0.0584559
0.0584559
0.0584487
0.0584487
0.0584566
0.0584566
0.0584805
0.0584805
0.0585212
0.0585212
0.0585797
0.0585797
0.0586564
0.0586564
0.058752
0.058752
0.0588669
0.0588669
0.0590017
0.0590017
0.0591567
0.0591567
0.0593322
0.0593322
0.0595287
0.0595287
0.0597462
0.0597462
0.0599848
0.0599848
0.0602443
0.0602443
0.0605242
0.0605242
0.0608239
0.0608239
0.0611424
0.0611424
0.0614785
0.0614785
0.0618307
0.0618307
0.0621973
0.0621973
0.0625768
0.0625768
0.0629678
0.0629678
0.0633692
0.0633692
0.0637801
0.0637801
0.0641999
0.0641999
0.0646278
0.0646278
0.065063
0.065063
0.0655039
0.0655039
0.065949
0.065949
0.0663962
0.0663962
0.0668436
0.0668436
0.0672895
0.0672895
0.0677324
0.0677324
0.0681714
0.0681714
0.0686054
0.0686054
0.0690342
0.0690342
0.0694579
0.0694579
0.0698773
0.0698774
0.0702937
0.0702937
0.070708
0.070708
0.0711211
0.0711211
0.0715326
0.0715326
0.0719412
0.0719412
0.0723444
0.0723445
0.0727386
0.0727386
0.0731188
0.0731189
0.0734796
0.0734797
0.0738156
0.0738156
0.0741232
0.0741232
0.0744015
0.0744016
0.0746526
0.0746527
0.074881
0.0748811
0.0750934
0.0750935
0.0752968
0.0752969
0.0754972
0.0754973
0.0756991
0.0756992
0.0759044
0.0759044
0.0761129
0.0761129
0.0763243
0.0763243
0.0765415
0.0765414
0.0767706
0.0767705
0.0770191
0.077019
0.0772949
0.0772949
0.0776053
0.0776053
0.0779563
0.0779563
0.0783522
0.0783522
0.0787964
0.0787964
0.0792914
0.0792914
0.0798389
0.0798389
0.0804392
0.0804392
0.081091
0.0810911
0.0817911
0.0817911
0.0825332
0.0825333
0.0833093
0.0833093
0.0841088
0.0841089
0.0849192
0.0849192
0.085726
0.085726
0.086515
0.086515
0.0872741
0.0872741
0.0879921
0.0879921
0.088656
0.088656
0.0892507
0.0892507
0.0897614
0.0897614
0.0901797
0.0901797
0.0905066
0.0905066
0.0907517
0.0907517
0.0909308
0.0909308
0.0910681
0.0910681
0.0911949
0.0911949
0.091342
0.091342
0.0915289
0.0915289
0.091764
0.091764
0.0920494
0.0920494
0.0923873
0.0923873
0.0927802
0.0927802
0.0932301
0.0932301
0.0937387
0.0937388
0.0943056
0.0943056
0.0949256
0.0949257
0.0955876
0.0955877
0.0962749
0.096275
0.0969693
0.0969693
0.097649
0.0976491
0.098283
0.0982831
0.0988309
0.098831
0.0992554
0.0992555
0.0995368
0.0995369
0.0996801
0.0996802
0.0997104
0.0997105
0.0996566
0.0996566
0.0995406
0.0995406
0.0993812
0.0993812
0.0992024
0.0992024
0.0990288
0.0990289
0.0988763
0.0988765
0.0987507
0.0987509
0.0986557
0.0986559
0.0986013
0.0986015
5.35356e-09
5.35356e-09
7.42027e-07
7.42027e-07
1.5393e-05
1.5393e-05
0.000101333
0.000101333
0.000313038
0.000313038
0.000631182
0.000631182
0.00101904
0.00101904
0.00145294
0.00145294
0.00191907
0.00191907
0.00240884
0.00240884
0.00291649
0.00291649
0.00343793
0.00343793
0.00397007
0.00397007
0.00451053
0.00451053
0.0050574
0.0050574
0.00560908
0.00560908
0.00616425
0.00616425
0.00672177
0.00672177
0.00728064
0.00728064
0.00783996
0.00783996
0.00839896
0.00839896
0.00895689
0.00895689
0.00951311
0.00951311
0.010067
0.010067
0.0106179
0.0106179
0.0111653
0.0111653
0.0117088
0.0117088
0.0122476
0.0122476
0.0127815
0.0127815
0.0133099
0.0133099
0.0138323
0.0138323
0.0143483
0.0143483
0.0148574
0.0148574
0.0153593
0.0153593
0.0158535
0.0158535
0.0163396
0.0163396
0.0168173
0.0168173
0.0172861
0.0172861
0.0177458
0.0177458
0.018196
0.018196
0.0186364
0.0186364
0.0190669
0.0190669
0.0194872
0.0194872
0.0198972
0.0198972
0.0202968
0.0202968
0.0206858
0.0206858
0.0210645
0.0210645
0.0214329
0.0214329
0.0217911
0.0217911
0.0221395
0.0221395
0.0224785
0.0224785
0.0228087
0.0228087
0.0231307
0.0231307
0.0234452
0.0234452
0.0237533
0.0237533
0.0240561
0.0240561
0.0243549
0.0243549
0.0246511
0.0246511
0.0249464
0.0249464
0.0252427
0.0252427
0.025542
0.025542
0.0258465
0.0258465
0.0261586
0.0261586
0.0264808
0.0264808
0.0268158
0.0268158
0.0271663
0.0271663
0.0275349
0.0275349
0.0279244
0.0279244
0.0283373
0.0283373
0.028776
0.028776
0.0292428
0.0292428
0.0297394
0.0297394
0.0302672
0.0302672
0.0308273
0.0308273
0.0314202
0.0314202
0.0320459
0.0320459
0.0327038
0.0327038
0.0333927
0.0333927
0.0341111
0.0341111
0.0348569
0.0348569
0.0356277
0.0356277
0.0364206
0.0364206
0.0372327
0.0372327
0.0380608
0.0380608
0.0389015
0.0389015
0.0397514
0.0397514
0.0406071
0.0406071
0.0414655
0.0414655
0.0423234
0.0423234
0.0431778
0.0431778
0.0440259
0.0440259
0.0448651
0.0448651
0.0456932
0.0456932
0.046508
0.046508
0.0473076
0.0473076
0.0480904
0.0480904
0.0488551
0.0488551
0.0496004
0.0496004
0.0503253
0.0503253
0.0510291
0.0510291
0.0517112
0.0517112
0.052371
0.052371
0.0530085
0.0530085
0.0536233
0.0536233
0.0542155
0.0542155
0.0547851
0.0547851
0.0553323
0.0553323
0.0558574
0.0558574
0.0563606
0.0563606
0.0568424
0.0568424
0.0573031
0.0573031
0.0577433
0.0577433
0.0581634
0.0581634
0.0585638
0.0585638
0.0589452
0.0589452
0.0593081
0.0593081
0.0596529
0.0596529
0.0599803
0.0599803
0.0602908
0.0602908
0.0605848
0.0605848
0.060863
0.060863
0.0611257
0.0611257
0.0613735
0.0613735
0.0616068
0.0616068
0.0618262
0.0618262
0.0620319
0.0620319
0.0622244
0.0622244
0.0624041
0.0624041
0.0625714
0.0625714
0.0627265
0.0627265
0.0628699
0.0628699
0.0630019
0.0630019
0.0631227
0.0631227
0.0632326
0.0632326
0.063332
0.063332
0.063421
0.063421
0.0634999
0.0634999
0.063569
0.063569
0.0636284
0.0636284
0.0636784
0.0636784
0.0637192
0.0637192
0.0637511
0.0637511
0.0637741
0.0637741
0.0637885
0.0637885
0.0637945
0.0637945
0.0637922
0.0637922
0.0637819
0.0637819
0.0637638
0.0637638
0.063738
0.063738
0.0637048
0.0637048
0.0636644
0.0636644
0.0636169
0.0636169
0.0635627
0.0635627
0.063502
0.063502
0.063435
0.063435
0.0633621
0.0633621
0.0632834
0.0632834
0.0631995
0.0631995
0.0631104
0.0631104
0.0630166
0.0630166
0.0629184
0.0629184
0.0628161
0.0628161
0.06271
0.06271
0.0626005
0.0626005
0.0624877
0.0624877
0.062372
0.062372
0.0622536
0.0622536
0.0621325
0.0621325
0.0620091
0.0620091
0.0618834
0.0618834
0.0617556
0.0617556
0.0616258
0.0616258
0.0614942
0.0614942
0.0613609
0.0613609
0.0612261
0.0612261
0.0610901
0.0610901
0.0609531
0.0609531
0.0608154
0.0608154
0.0606774
0.0606774
0.0605395
0.0605395
0.0604019
0.0604019
0.0602652
0.0602652
0.0601298
0.0601298
0.059996
0.059996
0.0598642
0.0598642
0.0597349
0.0597349
0.0596086
0.0596086
0.0594855
0.0594855
0.0593662
0.0593662
0.0592512
0.0592512
0.0591409
0.0591409
0.059036
0.059036
0.058937
0.058937
0.0588447
0.0588447
0.0587598
0.0587598
0.0586831
0.0586831
0.0586156
0.0586156
0.0585581
0.0585581
0.0585117
0.0585117
0.0584773
0.0584773
0.0584559
0.0584559
0.0584487
0.0584487
0.0584566
0.0584566
0.0584805
0.0584805
0.0585212
0.0585212
0.0585797
0.0585797
0.0586564
0.0586564
0.058752
0.058752
0.058867
0.058867
0.0590017
0.0590017
0.0591567
0.0591567
0.0593322
0.0593322
0.0595287
0.0595287
0.0597462
0.0597462
0.0599848
0.0599848
0.0602443
0.0602443
0.0605243
0.0605243
0.060824
0.060824
0.0611425
0.0611425
0.0614785
0.0614785
0.0618307
0.0618307
0.0621973
0.0621973
0.0625769
0.0625769
0.0629679
0.0629679
0.0633693
0.0633693
0.0637802
0.0637802
0.0641999
0.0641999
0.0646279
0.0646279
0.065063
0.065063
0.065504
0.065504
0.0659491
0.0659491
0.0663963
0.0663963
0.0668437
0.0668437
0.0672895
0.0672895
0.0677325
0.0677325
0.0681715
0.0681714
0.0686055
0.0686055
0.0690343
0.0690343
0.069458
0.069458
0.0698774
0.0698774
0.0702938
0.0702938
0.0707081
0.0707081
0.0711212
0.0711212
0.0715327
0.0715327
0.0719413
0.0719413
0.0723446
0.0723445
0.0727387
0.0727387
0.073119
0.0731189
0.0734797
0.0734797
0.0738157
0.0738156
0.0741233
0.0741232
0.0744016
0.0744015
0.0746527
0.0746526
0.0748812
0.0748811
0.0750935
0.0750934
0.0752969
0.0752968
0.0754973
0.0754972
0.0756992
0.0756992
0.0759044
0.0759044
0.0761129
0.0761129
0.0763243
0.0763244
0.0765415
0.0765415
0.0767705
0.0767706
0.077019
0.0770191
0.0772949
0.0772949
0.0776053
0.0776054
0.0779563
0.0779563
0.0783522
0.0783522
0.0787964
0.0787964
0.0792915
0.0792915
0.0798389
0.0798389
0.0804393
0.0804392
0.0810911
0.0810911
0.0817912
0.0817911
0.0825334
0.0825333
0.0833094
0.0833094
0.084109
0.0841089
0.0849193
0.0849193
0.0857261
0.0857261
0.0865151
0.0865151
0.0872742
0.0872742
0.0879921
0.0879921
0.088656
0.088656
0.0892507
0.0892507
0.0897614
0.0897614
0.0901796
0.0901796
0.0905065
0.0905065
0.0907516
0.0907516
0.0909307
0.0909307
0.091068
0.091068
0.0911948
0.0911948
0.0913419
0.0913419
0.0915289
0.0915289
0.0917639
0.0917639
0.0920494
0.0920494
0.0923873
0.0923873
0.0927802
0.0927802
0.0932302
0.0932301
0.0937388
0.0937388
0.0943057
0.0943056
0.0949257
0.0949257
0.0955877
0.0955876
0.0962751
0.096275
0.0969694
0.0969693
0.0976491
0.097649
0.0982831
0.098283
0.098831
0.0988309
0.0992555
0.0992554
0.0995369
0.0995368
0.0996801
0.0996801
0.0997104
0.0997104
0.0996566
0.0996565
0.0995405
0.0995405
0.0993812
0.0993811
0.0992024
0.0992023
0.0990289
0.0990288
0.0988764
0.0988763
0.0987509
0.0987507
0.0986559
0.0986557
0.0986015
0.0986013
0.0986008
0.098601
0.0986542
0.0986544
0.098748
0.0987482
0.0988717
0.0988718
0.0990226
0.0990227
0.0991941
0.0991942
0.0993704
0.0993705
0.0995277
0.0995277
0.0996394
0.0996394
0.0996862
0.0996863
0.0996492
0.0996492
0.0995008
0.0995008
0.0992156
0.0992157
0.0987895
0.0987896
0.0982436
0.0982437
0.0976139
0.097614
0.0969387
0.0969388
0.0962482
0.0962483
0.0955641
0.0955642
0.0949052
0.0949053
0.0942886
0.0942887
0.0937255
0.0937255
0.0932205
0.0932206
0.092774
0.092774
0.0923844
0.0923845
0.0920497
0.0920497
0.0917673
0.0917673
0.0915352
0.0915352
0.091351
0.091351
0.0912065
0.0912065
0.0910825
0.0910825
0.0909478
0.0909477
0.0907698
0.0907698
0.0905242
0.0905242
0.090195
0.090195
0.089773
0.089773
0.0892586
0.0892586
0.0886613
0.0886613
0.0879955
0.0879955
0.0872763
0.0872763
0.0865161
0.0865161
0.0857259
0.085726
0.0849181
0.0849181
0.0841065
0.0841065
0.0833056
0.0833056
0.0825284
0.0825284
0.0817851
0.0817851
0.0810841
0.0810842
0.0804316
0.0804317
0.0798309
0.0798309
0.0792832
0.0792832
0.078788
0.078788
0.0783436
0.0783436
0.0779476
0.0779475
0.0775966
0.0775966
0.0772863
0.0772862
0.0770105
0.0770105
0.0767621
0.076762
0.0765331
0.076533
0.0763163
0.0763162
0.0761055
0.0761054
0.0758973
0.0758973
0.075692
0.0756921
0.0754899
0.07549
0.0752889
0.075289
0.0750848
0.0750849
0.0748721
0.0748722
0.0746436
0.0746437
0.0743925
0.0743926
0.0741137
0.0741138
0.0738055
0.0738055
0.0734691
0.0734691
0.0731084
0.0731084
0.0727285
0.0727286
0.0723352
0.0723353
0.0719333
0.0719333
0.0715261
0.0715261
0.0711158
0.0711159
0.0707036
0.0707036
0.0702895
0.0702895
0.0698731
0.0698731
0.0694534
0.0694534
0.0690294
0.0690294
0.0686004
0.0686004
0.0681662
0.0681663
0.0677271
0.0677272
0.0672842
0.0672842
0.0668385
0.0668385
0.0663913
0.0663913
0.0659443
0.0659443
0.0654996
0.0654996
0.0650591
0.0650592
0.0646246
0.0646246
0.0641975
0.0641975
0.0637786
0.0637786
0.0633683
0.0633683
0.0629674
0.0629674
0.0625767
0.0625767
0.0621975
0.0621975
0.061831
0.061831
0.0614791
0.0614791
0.0611433
0.0611433
0.060825
0.060825
0.0605254
0.0605254
0.0602455
0.0602455
0.0599858
0.0599858
0.059747
0.059747
0.0595293
0.0595293
0.0593327
0.0593327
0.059157
0.059157
0.0590019
0.0590019
0.0588672
0.0588672
0.0587523
0.0587523
0.0586568
0.0586568
0.0585801
0.0585801
0.0585218
0.0585218
0.0584811
0.0584811
0.0584573
0.0584573
0.0584495
0.0584495
0.0584569
0.0584569
0.0584783
0.0584783
0.0585127
0.0585127
0.0585592
0.0585592
0.0586167
0.0586167
0.0586843
0.0586843
0.0587609
0.0587609
0.0588458
0.0588458
0.0589382
0.0589382
0.0590372
0.0590372
0.0591422
0.0591422
0.0592525
0.0592525
0.0593676
0.0593676
0.0594868
0.0594868
0.0596099
0.0596099
0.0597362
0.0597362
0.0598655
0.0598655
0.0599972
0.0599972
0.0601311
0.0601311
0.0602665
0.0602665
0.0604032
0.0604032
0.0605408
0.0605408
0.0606788
0.0606788
0.0608167
0.0608167
0.0609544
0.0609544
0.0610915
0.0610915
0.0612275
0.0612275
0.0613623
0.0613623
0.0614957
0.0614957
0.0616273
0.0616273
0.0617571
0.0617571
0.061885
0.061885
0.0620107
0.0620107
0.0621342
0.0621342
0.0622553
0.0622553
0.0623738
0.0623738
0.0624895
0.0624895
0.0626023
0.0626023
0.0627119
0.0627119
0.062818
0.062818
0.0629203
0.0629203
0.0630185
0.0630185
0.0631123
0.0631123
0.0632014
0.0632014
0.0632854
0.0632854
0.0633641
0.0633641
0.0634371
0.0634371
0.0635041
0.0635041
0.0635648
0.0635648
0.0636191
0.0636191
0.0636665
0.0636665
0.063707
0.063707
0.0637403
0.0637403
0.0637661
0.0637661
0.0637843
0.0637843
0.0637946
0.0637946
0.063797
0.063797
0.063791
0.063791
0.0637767
0.0637767
0.0637538
0.0637538
0.063722
0.063722
0.0636813
0.0636813
0.0636314
0.0636314
0.063572
0.063572
0.063503
0.063503
0.0634242
0.0634242
0.0633352
0.0633352
0.0632359
0.0632359
0.063126
0.063126
0.0630053
0.0630053
0.0628733
0.0628733
0.06273
0.06273
0.0625749
0.0625749
0.0624077
0.0624077
0.062228
0.062228
0.0620355
0.0620355
0.0618298
0.0618298
0.0616105
0.0616105
0.0613771
0.0613771
0.0611293
0.0611293
0.0608665
0.0608665
0.0605884
0.0605884
0.0602942
0.0602942
0.0599837
0.0599837
0.0596562
0.0596562
0.0593112
0.0593112
0.0589482
0.0589482
0.0585667
0.0585667
0.0581661
0.0581661
0.0577461
0.0577461
0.0573059
0.0573059
0.0568452
0.0568452
0.0563634
0.0563634
0.0558602
0.0558602
0.0553351
0.0553351
0.0547879
0.0547879
0.0542183
0.0542183
0.0536261
0.0536261
0.0530112
0.0530112
0.0523738
0.0523738
0.0517139
0.0517139
0.0510319
0.0510319
0.0503282
0.0503282
0.0496033
0.0496033
0.0488581
0.0488581
0.0480936
0.0480936
0.0473108
0.0473108
0.0465111
0.0465111
0.0456962
0.0456962
0.0448678
0.0448678
0.0440282
0.0440282
0.0431797
0.0431797
0.042325
0.042325
0.0414669
0.0414669
0.0406084
0.0406084
0.0397524
0.0397524
0.0389023
0.0389023
0.0380614
0.0380614
0.037233
0.037233
0.0364206
0.0364206
0.0356273
0.0356273
0.0348562
0.0348562
0.0341101
0.0341101
0.0333914
0.0333914
0.0327022
0.0327022
0.0320441
0.0320441
0.0314182
0.0314182
0.030825
0.030825
0.0302646
0.0302646
0.0297365
0.0297365
0.0292397
0.0292397
0.0287727
0.0287727
0.0283337
0.0283337
0.0279206
0.0279206
0.027531
0.027531
0.0271622
0.0271622
0.0268117
0.0268117
0.0264766
0.0264766
0.0261543
0.0261543
0.025842
0.025842
0.0255374
0.0255374
0.025238
0.025238
0.0249417
0.0249417
0.0246464
0.0246464
0.0243502
0.0243502
0.0240515
0.0240515
0.0237488
0.0237488
0.0234408
0.0234408
0.0231264
0.0231264
0.0228046
0.0228046
0.0224746
0.0224746
0.0221357
0.0221357
0.0217874
0.0217874
0.0214293
0.0214293
0.0210612
0.0210612
0.0206827
0.0206827
0.0202937
0.0202937
0.0198944
0.0198944
0.0194845
0.0194845
0.0190644
0.0190644
0.0186341
0.0186341
0.0181937
0.0181937
0.0177437
0.0177437
0.0172841
0.0172841
0.0168154
0.0168154
0.0163379
0.0163379
0.0158519
0.0158519
0.0153578
0.0153578
0.014856
0.014856
0.014347
0.014347
0.013831
0.013831
0.0133087
0.0133087
0.0127804
0.0127804
0.0122466
0.0122466
0.0117078
0.0117078
0.0111645
0.0111645
0.0106172
0.0106172
0.0100663
0.0100663
0.00951252
0.00951252
0.00895637
0.00895637
0.00839849
0.00839849
0.00783955
0.00783955
0.00728027
0.00728027
0.00672145
0.00672145
0.00616398
0.00616398
0.00560885
0.00560885
0.0050572
0.0050572
0.00451037
0.00451037
0.00396994
0.00396994
0.00343783
0.00343783
0.00291642
0.00291642
0.00240879
0.00240879
0.00191904
0.00191904
0.00145292
0.00145292
0.00101903
0.00101903
0.000631176
0.000631176
0.000313037
0.000313037
0.000101333
0.000101333
1.5393e-05
1.5393e-05
7.42023e-07
7.42023e-07
5.35364e-09
5.35364e-09
0.098601
0.0986008
0.0986544
0.0986542
0.0987482
0.098748
0.0988719
0.0988717
0.0990227
0.0990226
0.0991942
0.0991941
0.0993705
0.0993704
0.0995277
0.0995277
0.0996394
0.0996394
0.0996863
0.0996862
0.0996493
0.0996492
0.0995008
0.0995008
0.0992157
0.0992156
0.0987896
0.0987895
0.0982437
0.0982436
0.097614
0.0976139
0.0969387
0.0969387
0.0962483
0.0962482
0.0955642
0.0955641
0.0949053
0.0949052
0.0942887
0.0942886
0.0937255
0.0937255
0.0932205
0.0932205
0.092774
0.092774
0.0923845
0.0923845
0.0920497
0.0920497
0.0917674
0.0917673
0.0915352
0.0915352
0.091351
0.091351
0.0912066
0.0912066
0.0910826
0.0910826
0.0909478
0.0909478
0.0907698
0.0907699
0.0905243
0.0905243
0.0901951
0.0901951
0.0897731
0.0897731
0.0892587
0.0892586
0.0886613
0.0886613
0.0879955
0.0879955
0.0872763
0.0872763
0.0865161
0.0865161
0.085726
0.0857259
0.0849181
0.0849181
0.0841065
0.0841064
0.0833056
0.0833056
0.0825284
0.0825283
0.0817851
0.081785
0.0810842
0.0810841
0.0804317
0.0804316
0.0798309
0.0798309
0.0792832
0.0792832
0.078788
0.078788
0.0783436
0.0783436
0.0779476
0.0779476
0.0775966
0.0775966
0.0772863
0.0772863
0.0770105
0.0770106
0.076762
0.0767621
0.0765331
0.0765331
0.0763163
0.0763164
0.0761055
0.0761056
0.0758974
0.0758974
0.0756922
0.0756921
0.07549
0.0754899
0.0752891
0.075289
0.075085
0.0750849
0.0748723
0.0748722
0.0746438
0.0746437
0.0743926
0.0743926
0.0741139
0.0741138
0.0738056
0.0738056
0.0734692
0.0734691
0.0731085
0.0731084
0.0727286
0.0727286
0.0723353
0.0723353
0.0719334
0.0719333
0.0715262
0.0715261
0.0711159
0.0711159
0.0707036
0.0707036
0.0702895
0.0702895
0.0698731
0.0698731
0.0694534
0.0694534
0.0690294
0.0690294
0.0686004
0.0686004
0.0681662
0.0681662
0.0677271
0.0677271
0.0672841
0.0672841
0.0668384
0.0668384
0.0663912
0.0663912
0.0659442
0.0659442
0.0654995
0.0654995
0.0650591
0.0650591
0.0646246
0.0646246
0.0641974
0.0641974
0.0637785
0.0637785
0.0633682
0.0633682
0.0629673
0.0629673
0.0625766
0.0625766
0.0621974
0.0621974
0.0618309
0.0618309
0.061479
0.061479
0.0611432
0.0611432
0.0608249
0.0608249
0.0605253
0.0605253
0.0602454
0.0602454
0.0599858
0.0599857
0.059747
0.059747
0.0595293
0.0595293
0.0593326
0.0593326
0.0591569
0.0591569
0.0590019
0.0590019
0.0588671
0.0588671
0.0587522
0.0587522
0.0586567
0.0586567
0.0585801
0.0585801
0.0585217
0.0585217
0.058481
0.058481
0.0584573
0.0584573
0.0584495
0.0584495
0.0584568
0.0584568
0.0584782
0.0584782
0.0585126
0.0585126
0.0585591
0.0585591
0.0586166
0.0586166
0.0586842
0.0586842
0.0587609
0.0587609
0.0588458
0.0588458
0.0589381
0.0589381
0.0590372
0.0590372
0.0591421
0.0591421
0.0592525
0.0592525
0.0593675
0.0593675
0.0594868
0.0594868
0.0596099
0.0596099
0.0597362
0.0597362
0.0598655
0.0598655
0.0599972
0.0599972
0.060131
0.060131
0.0602665
0.0602665
0.0604032
0.0604032
0.0605408
0.0605408
0.0606787
0.0606787
0.0608167
0.0608167
0.0609544
0.0609544
0.0610915
0.0610915
0.0612275
0.0612275
0.0613623
0.0613623
0.0614956
0.0614956
0.0616273
0.0616273
0.0617571
0.0617571
0.061885
0.061885
0.0620107
0.0620107
0.0621342
0.0621342
0.0622553
0.0622553
0.0623738
0.0623738
0.0624895
0.0624895
0.0626023
0.0626023
0.0627119
0.0627119
0.062818
0.062818
0.0629203
0.0629203
0.0630185
0.0630185
0.0631123
0.0631123
0.0632014
0.0632014
0.0632854
0.0632854
0.0633641
0.0633641
0.0634371
0.0634371
0.0635041
0.0635041
0.0635648
0.0635648
0.0636191
0.0636191
0.0636665
0.0636665
0.063707
0.063707
0.0637403
0.0637403
0.0637661
0.0637661
0.0637843
0.0637843
0.0637946
0.0637946
0.0637969
0.0637969
0.063791
0.063791
0.0637767
0.0637767
0.0637538
0.0637538
0.063722
0.063722
0.0636813
0.0636813
0.0636313
0.0636313
0.063572
0.063572
0.063503
0.063503
0.0634242
0.0634242
0.0633352
0.0633352
0.0632359
0.0632359
0.063126
0.063126
0.0630053
0.0630053
0.0628733
0.0628733
0.06273
0.06273
0.0625749
0.0625749
0.0624077
0.0624077
0.062228
0.062228
0.0620355
0.0620355
0.0618298
0.0618298
0.0616105
0.0616105
0.0613771
0.0613771
0.0611293
0.0611293
0.0608665
0.0608665
0.0605884
0.0605884
0.0602942
0.0602942
0.0599837
0.0599837
0.0596562
0.0596562
0.0593112
0.0593112
0.0589482
0.0589482
0.0585667
0.0585667
0.0581661
0.0581661
0.0577461
0.0577461
0.0573059
0.0573059
0.0568452
0.0568452
0.0563634
0.0563634
0.0558602
0.0558602
0.0553351
0.0553351
0.0547879
0.0547879
0.0542183
0.0542183
0.0536261
0.0536261
0.0530112
0.0530112
0.0523738
0.0523738
0.0517139
0.0517139
0.0510319
0.0510319
0.0503282
0.0503282
0.0496033
0.0496033
0.0488581
0.0488581
0.0480935
0.0480935
0.0473107
0.0473107
0.0465111
0.0465111
0.0456962
0.0456962
0.0448678
0.0448678
0.0440282
0.0440282
0.0431797
0.0431797
0.042325
0.042325
0.0414669
0.0414669
0.0406084
0.0406084
0.0397524
0.0397524
0.0389023
0.0389023
0.0380614
0.0380614
0.037233
0.037233
0.0364206
0.0364206
0.0356273
0.0356273
0.0348562
0.0348562
0.0341101
0.0341101
0.0333914
0.0333914
0.0327022
0.0327022
0.0320441
0.0320441
0.0314182
0.0314182
0.030825
0.030825
0.0302646
0.0302646
0.0297365
0.0297365
0.0292397
0.0292397
0.0287727
0.0287727
0.0283337
0.0283337
0.0279206
0.0279206
0.027531
0.027531
0.0271622
0.0271622
0.0268117
0.0268117
0.0264766
0.0264766
0.0261543
0.0261543
0.0258421
0.0258421
0.0255374
0.0255374
0.025238
0.025238
0.0249417
0.0249417
0.0246464
0.0246464
0.0243502
0.0243502
0.0240515
0.0240515
0.0237488
0.0237488
0.0234408
0.0234408
0.0231264
0.0231264
0.0228046
0.0228046
0.0224746
0.0224746
0.0221357
0.0221357
0.0217874
0.0217874
0.0214293
0.0214293
0.0210612
0.0210612
0.0206827
0.0206827
0.0202937
0.0202937
0.0198944
0.0198944
0.0194846
0.0194846
0.0190644
0.0190644
0.0186341
0.0186341
0.0181937
0.0181937
0.0177437
0.0177437
0.0172841
0.0172841
0.0168154
0.0168154
0.0163379
0.0163379
0.0158519
0.0158519
0.0153578
0.0153578
0.014856
0.014856
0.014347
0.014347
0.013831
0.013831
0.0133087
0.0133087
0.0127804
0.0127804
0.0122466
0.0122466
0.0117078
0.0117078
0.0111645
0.0111645
0.0106172
0.0106172
0.0100663
0.0100663
0.00951252
0.00951252
0.00895637
0.00895637
0.00839849
0.00839849
0.00783955
0.00783955
0.00728027
0.00728027
0.00672145
0.00672145
0.00616398
0.00616398
0.00560885
0.00560885
0.0050572
0.0050572
0.00451037
0.00451037
0.00396994
0.00396994
0.00343783
0.00343783
0.00291642
0.00291642
0.00240879
0.00240879
0.00191904
0.00191904
0.00145292
0.00145292
0.00101903
0.00101903
0.000631176
0.000631176
0.000313037
0.000313037
0.000101333
0.000101333
1.5393e-05
1.5393e-05
7.42023e-07
7.42023e-07
5.35364e-09
5.35364e-09
)
;

boundaryField
{
    walls
    {
        type            nutUWallFunction;
        blending        stepwise;
        Cmu             0.09;
        kappa           0.41;
        E               9.8;
        value           uniform 0;
    }
    inlet
    {
        type            cyclic;
    }
    outlet
    {
        type            cyclic;
    }
    sides
    {
        type            empty;
    }
}


// ************************************************************************* //
