/*--------------------------------*- C++ -*----------------------------------*\
| =========                 |                                                 |
| \\      /  F ield         | OpenFOAM: The Open Source CFD Toolbox           |
|  \\    /   O peration     | Version:  2012                                  |
|   \\  /    A nd           | Website:  www.openfoam.com                      |
|    \\/     M anipulation  |                                                 |
\*---------------------------------------------------------------------------*/
FoamFile
{
    version     2.0;
    format      ascii;
    class       volScalarField;
    location    "15200";
    object      omega;
}
// * * * * * * * * * * * * * * * * * * * * * * * * * * * * * * * * * * * * * //

dimensions      [0 0 -1 0 0 0 0];


internalField   nonuniform List<scalar> 
2560
(
1.52416e+06
1.52416e+06
264575
264575
88235.4
88235.4
41202.8
41202.8
24670.6
24670.6
17542.9
17542.9
13814.4
13814.4
11562.5
11562.5
10061.1
10061.1
8988.74
8988.74
8183.52
8183.52
7555.76
7555.76
7051.85
7051.85
6637.8
6637.8
6291.04
6291.04
5995.94
5995.94
5741.38
5741.38
5519.17
5519.17
5323.19
5323.19
5148.71
5148.71
4992.07
4992.07
4850.36
4850.36
4721.23
4721.23
4602.77
4602.77
4493.4
4493.4
4391.82
4391.82
4296.91
4296.91
4207.75
4207.75
4123.53
4123.53
4043.55
4043.55
3967.22
3967.22
3894.02
3894.02
3823.48
3823.48
3755.21
3755.21
3688.84
3688.84
3624.06
3624.06
3560.59
3560.59
3498.2
3498.2
3436.65
3436.65
3375.76
3375.76
3315.37
3315.37
3255.34
3255.34
3195.53
3195.53
3135.86
3135.86
3076.23
3076.23
3016.59
3016.59
2956.89
2956.89
2897.11
2897.11
2837.23
2837.23
2777.25
2777.25
2717.21
2717.21
2657.13
2657.13
2597.07
2597.07
2537.1
2537.1
2477.29
2477.29
2417.73
2417.73
2358.53
2358.53
2299.8
2299.8
2241.67
2241.67
2184.25
2184.25
2127.7
2127.7
2072.14
2072.14
2017.71
2017.71
1964.56
1964.56
1912.81
1912.81
1862.6
1862.6
1814.04
1814.04
1767.25
1767.25
1722.31
1722.31
1679.3
1679.3
1638.28
1638.28
1599.29
1599.29
1562.35
1562.35
1527.44
1527.44
1494.55
1494.55
1463.63
1463.63
1434.61
1434.61
1407.41
1407.41
1381.92
1381.92
1358.05
1358.05
1335.67
1335.67
1314.66
1314.66
1294.88
1294.88
1276.21
1276.21
1258.52
1258.52
1241.68
1241.68
1225.57
1225.57
1210.09
1210.09
1195.11
1195.11
1180.56
1180.56
1166.32
1166.32
1152.34
1152.34
1138.52
1138.52
1124.83
1124.83
1111.19
1111.19
1097.56
1097.56
1083.91
1083.91
1070.21
1070.21
1056.44
1056.44
1042.57
1042.57
1028.59
1028.59
1014.51
1014.51
1000.3
1000.3
985.986
985.986
971.557
971.557
957.024
957.024
942.396
942.396
927.682
927.682
912.895
912.895
898.047
898.047
883.152
883.152
868.225
868.225
853.279
853.279
838.329
838.329
823.389
823.389
808.474
808.474
793.596
793.596
778.769
778.769
764.005
764.005
749.317
749.317
734.717
734.717
720.213
720.213
705.817
705.817
691.539
691.539
677.385
677.385
663.365
663.365
649.486
649.486
635.754
635.754
622.176
622.176
608.756
608.756
595.499
595.499
582.411
582.411
569.494
569.494
556.753
556.753
544.19
544.19
531.807
531.807
519.607
519.607
507.593
507.593
495.764
495.764
484.123
484.123
472.671
472.671
461.408
461.408
450.334
450.334
439.45
439.45
428.756
428.756
418.252
418.252
407.937
407.937
397.811
397.811
387.873
387.873
378.123
378.123
368.56
368.56
359.184
359.184
349.993
349.993
340.986
340.986
332.163
332.163
323.522
323.522
315.063
315.063
306.783
306.783
298.682
298.682
290.759
290.759
283.012
283.012
275.439
275.439
268.039
268.039
260.809
260.809
253.748
253.748
246.853
246.853
240.122
240.122
233.552
233.552
227.14
227.14
220.884
220.884
214.781
214.781
208.827
208.827
203.02
203.02
197.357
197.357
191.835
191.835
186.453
186.453
181.207
181.207
176.095
176.095
171.114
171.114
166.264
166.264
161.54
161.54
156.942
156.942
152.466
152.466
148.112
148.112
143.875
143.875
139.755
139.755
135.748
135.748
131.853
131.853
128.067
128.067
124.388
124.388
120.813
120.813
117.341
117.341
113.97
113.97
110.698
110.698
107.523
107.523
104.444
104.444
101.458
101.458
98.5644
98.5644
95.7616
95.7616
93.0479
93.0479
90.4219
90.4219
87.882
87.882
85.4265
85.4265
83.0537
83.0537
80.7617
80.7617
78.5485
78.5485
76.4121
76.4121
74.3504
74.3504
72.361
72.361
70.442
70.442
68.5912
68.5912
66.8065
66.8065
65.086
65.0859
63.4274
63.4273
61.8286
61.8285
60.2873
60.2873
58.8011
58.8011
57.3674
57.3674
55.9837
55.9837
54.6471
54.6471
53.3548
53.3548
52.1039
52.1039
50.892
50.892
49.7166
49.7166
48.5759
48.5759
47.4683
47.4683
46.3924
46.3924
45.3469
45.3469
44.3304
44.3304
43.3411
43.3411
42.3772
42.3772
41.4368
41.4368
40.5182
40.5182
39.6197
39.6197
38.7401
38.7401
37.8784
37.8784
37.0338
37.0338
36.2057
36.2057
35.3939
35.3939
34.5987
34.5987
33.8203
33.8203
33.059
33.059
32.315
32.315
31.5876
31.5876
30.876
30.876
30.1788
30.1788
29.494
29.494
28.8194
28.8194
28.1524
28.1524
27.4909
27.491
26.8336
26.8336
26.1801
26.1801
25.5314
25.5314
24.8893
24.8893
24.256
24.256
23.6339
23.6339
23.0248
23.0249
22.4299
22.4299
21.8493
21.8493
21.2825
21.2825
20.729
20.729
20.1893
20.1893
19.6647
19.6646
19.1566
19.1566
18.6667
18.6667
18.1962
18.1962
17.7459
17.7459
17.3162
17.3161
16.9071
16.9071
16.5186
16.5186
16.1505
16.1505
15.8023
15.8023
15.4733
15.4733
15.1623
15.1623
14.8678
14.8678
14.5879
14.5879
14.3205
14.3205
14.0631
14.0631
13.8131
13.8131
13.568
13.568
13.3257
13.3256
13.0844
13.0844
12.8423
12.8423
12.5971
12.5971
12.3468
12.3467
12.0904
12.0904
11.8286
11.8286
11.563
11.563
11.2963
11.2963
11.0319
11.0319
10.774
10.774
10.5265
10.5264
10.2915
10.2915
10.0699
10.0699
9.86148
9.86147
9.66635
9.66634
9.48453
9.48452
9.31608
9.31607
9.16101
9.161
9.0192
9.01919
8.89008
8.89007
8.77252
8.77251
8.66495
8.66494
8.56568
8.56568
8.47283
8.47282
8.38363
8.38363
8.29459
8.29459
8.2026
8.2026
8.10622
8.10622
8.00633
8.00633
7.90554
7.90553
7.80672
7.80671
7.71209
7.71208
7.62354
7.62354
7.54335
7.54335
7.47381
7.47382
7.41645
7.41645
7.372
7.37201
7.34107
7.34108
7.32484
7.32486
1.52416e+06
1.52416e+06
264575
264575
88235.4
88235.4
41202.8
41202.8
24670.6
24670.6
17542.9
17542.9
13814.4
13814.4
11562.5
11562.5
10061.1
10061.1
8988.74
8988.74
8183.52
8183.52
7555.76
7555.76
7051.85
7051.85
6637.8
6637.8
6291.04
6291.04
5995.94
5995.94
5741.38
5741.38
5519.17
5519.17
5323.18
5323.19
5148.71
5148.71
4992.07
4992.07
4850.36
4850.36
4721.23
4721.23
4602.77
4602.77
4493.4
4493.4
4391.82
4391.82
4296.91
4296.91
4207.75
4207.75
4123.53
4123.53
4043.55
4043.55
3967.22
3967.22
3894.02
3894.02
3823.48
3823.48
3755.21
3755.21
3688.84
3688.84
3624.06
3624.06
3560.59
3560.59
3498.2
3498.2
3436.65
3436.65
3375.76
3375.76
3315.37
3315.37
3255.34
3255.34
3195.53
3195.53
3135.86
3135.86
3076.23
3076.23
3016.59
3016.59
2956.89
2956.89
2897.11
2897.11
2837.23
2837.23
2777.25
2777.25
2717.21
2717.21
2657.13
2657.13
2597.07
2597.07
2537.1
2537.1
2477.29
2477.29
2417.73
2417.73
2358.53
2358.53
2299.8
2299.8
2241.67
2241.67
2184.25
2184.25
2127.7
2127.7
2072.14
2072.14
2017.71
2017.71
1964.56
1964.56
1912.81
1912.81
1862.6
1862.6
1814.04
1814.04
1767.25
1767.25
1722.31
1722.31
1679.3
1679.3
1638.28
1638.28
1599.29
1599.29
1562.35
1562.35
1527.44
1527.44
1494.55
1494.55
1463.63
1463.63
1434.61
1434.61
1407.41
1407.41
1381.92
1381.92
1358.05
1358.05
1335.67
1335.67
1314.66
1314.66
1294.88
1294.88
1276.21
1276.21
1258.52
1258.52
1241.68
1241.68
1225.57
1225.57
1210.09
1210.09
1195.11
1195.11
1180.56
1180.56
1166.32
1166.32
1152.34
1152.34
1138.52
1138.52
1124.83
1124.83
1111.19
1111.19
1097.56
1097.56
1083.91
1083.91
1070.21
1070.21
1056.44
1056.44
1042.57
1042.57
1028.59
1028.59
1014.51
1014.51
1000.3
1000.3
985.986
985.986
971.557
971.557
957.024
957.024
942.396
942.396
927.682
927.682
912.895
912.895
898.047
898.047
883.152
883.152
868.225
868.225
853.279
853.279
838.329
838.329
823.389
823.389
808.474
808.474
793.596
793.596
778.769
778.769
764.005
764.005
749.317
749.317
734.717
734.717
720.213
720.213
705.817
705.817
691.539
691.539
677.385
677.385
663.365
663.365
649.486
649.486
635.754
635.754
622.176
622.176
608.756
608.756
595.499
595.499
582.411
582.411
569.494
569.494
556.753
556.753
544.19
544.19
531.807
531.807
519.607
519.607
507.593
507.593
495.764
495.764
484.123
484.123
472.671
472.671
461.408
461.408
450.334
450.334
439.45
439.45
428.756
428.756
418.252
418.252
407.937
407.937
397.811
397.811
387.873
387.873
378.123
378.123
368.56
368.56
359.184
359.184
349.993
349.993
340.986
340.986
332.163
332.163
323.522
323.522
315.063
315.063
306.783
306.783
298.682
298.682
290.759
290.759
283.012
283.012
275.439
275.439
268.039
268.039
260.809
260.809
253.748
253.748
246.853
246.853
240.122
240.122
233.552
233.552
227.14
227.14
220.884
220.884
214.781
214.781
208.827
208.827
203.02
203.02
197.357
197.357
191.835
191.835
186.453
186.453
181.207
181.207
176.095
176.095
171.114
171.114
166.264
166.264
161.54
161.54
156.942
156.942
152.466
152.466
148.112
148.112
143.875
143.875
139.755
139.755
135.748
135.748
131.853
131.853
128.067
128.067
124.388
124.388
120.813
120.813
117.341
117.341
113.97
113.97
110.698
110.698
107.523
107.523
104.444
104.444
101.458
101.458
98.5644
98.5644
95.7616
95.7616
93.0479
93.0479
90.4219
90.4219
87.882
87.882
85.4265
85.4265
83.0537
83.0537
80.7617
80.7617
78.5485
78.5485
76.4121
76.4121
74.3504
74.3504
72.361
72.361
70.442
70.442
68.5912
68.5912
66.8065
66.8065
65.086
65.086
63.4274
63.4274
61.8286
61.8286
60.2873
60.2873
58.8011
58.8011
57.3674
57.3674
55.9837
55.9837
54.6471
54.6471
53.3548
53.3548
52.104
52.104
50.892
50.892
49.7167
49.7167
48.576
48.576
47.4684
47.4684
46.3925
46.3925
45.347
45.347
44.3304
44.3304
43.3411
43.3411
42.3772
42.3773
41.4369
41.4369
40.5182
40.5182
39.6197
39.6198
38.7402
38.7402
37.8785
37.8785
37.0338
37.0338
36.2057
36.2057
35.3939
35.3939
34.5987
34.5987
33.8203
33.8203
33.0591
33.0591
32.315
32.315
31.5876
31.5876
30.8761
30.8761
30.1788
30.1788
29.494
29.494
28.8194
28.8194
28.1524
28.1524
27.491
27.491
26.8336
26.8336
26.1802
26.1801
25.5315
25.5314
24.8893
24.8893
24.256
24.256
23.6339
23.6339
23.0249
23.0249
22.4299
22.4299
21.8493
21.8493
21.2825
21.2825
20.729
20.729
20.1893
20.1893
19.6646
19.6647
19.1566
19.1566
18.6667
18.6667
18.1962
18.1962
17.7459
17.7459
17.3161
17.3162
16.9071
16.9071
16.5186
16.5186
16.1505
16.1505
15.8023
15.8023
15.4733
15.4733
15.1623
15.1623
14.8678
14.8678
14.5879
14.5879
14.3205
14.3205
14.0631
14.0632
13.8131
13.8131
13.568
13.568
13.3257
13.3257
13.0844
13.0844
12.8423
12.8423
12.5971
12.5971
12.3467
12.3468
12.0904
12.0904
11.8286
11.8286
11.563
11.563
11.2963
11.2963
11.0319
11.0319
10.774
10.774
10.5264
10.5264
10.2915
10.2915
10.0699
10.0699
9.86147
9.86148
9.66634
9.66635
9.48453
9.48453
9.31607
9.31608
9.16101
9.16101
9.01919
9.0192
8.89008
8.89008
8.77252
8.77252
8.66495
8.66495
8.56569
8.56569
8.47283
8.47283
8.38364
8.38364
8.29459
8.29459
8.2026
8.2026
8.10622
8.10622
8.00632
8.00633
7.90552
7.90553
7.8067
7.80671
7.71207
7.71208
7.62353
7.62353
7.54335
7.54335
7.47381
7.47381
7.41645
7.41644
7.372
7.37199
7.34108
7.34107
7.32486
7.32484
7.32482
7.32483
7.34101
7.34102
7.37187
7.37188
7.41621
7.41621
7.47348
7.47348
7.54288
7.54288
7.62289
7.62289
7.71129
7.71128
7.80558
7.80557
7.90383
7.90382
8.00406
8.00405
8.10352
8.10352
8.19958
8.19957
8.29144
8.29144
8.38068
8.38067
8.47027
8.47027
8.56354
8.56354
8.66315
8.66314
8.771
8.77099
8.88882
8.88881
9.01823
9.01823
9.16037
9.16036
9.31575
9.31575
9.48451
9.4845
9.66662
9.66661
9.86203
9.86202
10.0707
10.0707
10.2926
10.2926
10.5278
10.5278
10.7756
10.7756
11.0337
11.0337
11.2984
11.2984
11.5652
11.5652
11.8306
11.8306
12.0921
12.0921
12.3478
12.3478
12.5975
12.5975
12.8423
12.8423
13.0841
13.0841
13.3251
13.3251
13.5673
13.5673
13.8122
13.8122
14.0621
14.0621
14.3192
14.3192
14.5864
14.5864
14.866
14.866
15.1603
15.1603
15.4712
15.4712
15.8001
15.8001
16.1483
16.1483
16.5163
16.5163
16.9048
16.9048
17.3139
17.3138
17.7436
17.7436
18.1939
18.1939
18.6645
18.6644
19.1544
19.1544
19.6624
19.6624
20.1871
20.1871
20.7269
20.7269
21.2806
21.2805
21.8475
21.8474
22.4281
22.4281
23.0229
23.0229
23.6318
23.6318
24.2536
24.2536
24.8868
24.8868
25.5289
25.5289
26.1776
26.1776
26.8309
26.8309
27.4879
27.4879
28.1492
28.1492
28.8161
28.8161
29.4909
29.4909
30.1761
30.1761
30.8739
30.8739
31.5861
31.5861
32.314
32.314
33.0584
33.0584
33.8197
33.8196
34.5979
34.5979
35.3929
35.3929
36.2045
36.2045
37.0324
37.0324
37.8769
37.8769
38.7385
38.7385
39.618
39.618
40.5165
40.5165
41.4352
41.4352
42.3756
42.3756
43.3397
43.3397
44.3293
44.3293
45.3463
45.3463
46.3923
46.3923
47.4688
47.4688
48.5768
48.5768
49.7177
49.7177
50.8932
50.8932
52.1053
52.1053
53.3562
53.3562
54.6486
54.6486
55.9853
55.9853
57.3691
57.3691
58.8027
58.8027
60.2888
60.2888
61.8298
61.8298
63.4283
63.4283
65.0866
65.0866
66.8069
66.8069
68.5913
68.5913
70.4419
70.4419
72.3608
72.3608
74.3501
74.3501
76.4119
76.4119
78.5483
78.5483
80.7615
80.7615
83.0535
83.0535
85.4265
85.4265
87.8821
87.8821
90.4221
90.422
93.0481
93.0481
95.7617
95.7617
98.5644
98.5644
101.458
101.458
104.444
104.444
107.523
107.523
110.698
110.698
113.97
113.97
117.341
117.341
120.813
120.813
124.387
124.387
128.066
128.066
131.852
131.852
135.748
135.748
139.754
139.754
143.874
143.874
148.111
148.111
152.465
152.465
156.941
156.941
161.539
161.539
166.262
166.262
171.113
171.113
176.093
176.093
181.205
181.205
186.451
186.451
191.834
191.834
197.355
197.355
203.018
203.018
208.825
208.825
214.779
214.779
220.882
220.882
227.138
227.138
233.55
233.55
240.12
240.12
246.851
246.851
253.746
253.746
260.807
260.807
268.036
268.036
275.436
275.436
283.009
283.009
290.756
290.756
298.679
298.679
306.78
306.78
315.059
315.059
323.518
323.518
332.159
332.159
340.982
340.982
349.989
349.989
359.18
359.18
368.556
368.556
378.118
378.118
387.868
387.868
397.806
397.806
407.932
407.932
418.246
418.246
428.751
428.751
439.445
439.445
450.329
450.329
461.403
461.403
472.666
472.666
484.119
484.119
495.76
495.76
507.589
507.589
519.604
519.604
531.803
531.803
544.185
544.185
556.748
556.748
569.49
569.49
582.406
582.406
595.494
595.494
608.75
608.75
622.17
622.17
635.749
635.749
649.48
649.48
663.359
663.359
677.378
677.378
691.531
691.531
705.808
705.808
720.203
720.203
734.705
734.705
749.304
749.304
763.99
763.99
778.752
778.752
793.576
793.576
808.451
808.451
823.364
823.364
838.301
838.301
853.249
853.249
868.194
868.194
883.121
883.121
898.014
898.014
912.861
912.861
927.648
927.648
942.361
942.361
956.989
956.989
971.521
971.521
985.948
985.948
1000.26
1000.26
1014.47
1014.47
1028.55
1028.55
1042.53
1042.53
1056.4
1056.4
1070.17
1070.17
1083.87
1083.87
1097.52
1097.52
1111.14
1111.14
1124.78
1124.78
1138.47
1138.47
1152.28
1152.28
1166.25
1166.25
1180.48
1180.48
1195.03
1195.03
1209.99
1209.99
1225.48
1225.48
1241.58
1241.58
1258.41
1258.41
1276.09
1276.09
1294.76
1294.76
1314.52
1314.52
1335.53
1335.53
1357.9
1357.9
1381.77
1381.77
1407.24
1407.24
1434.44
1434.44
1463.45
1463.45
1494.37
1494.37
1527.25
1527.25
1562.15
1562.15
1599.09
1599.09
1638.08
1638.08
1679.09
1679.09
1722.09
1722.09
1767.03
1767.03
1813.82
1813.82
1862.38
1862.38
1912.59
1912.59
1964.34
1964.34
2017.5
2017.5
2071.93
2071.93
2127.49
2127.49
2184.05
2184.05
2241.47
2241.47
2299.61
2299.61
2358.35
2358.35
2417.57
2417.57
2477.14
2477.14
2536.97
2536.97
2596.97
2596.97
2657.06
2657.06
2717.16
2717.16
2777.22
2777.22
2837.21
2837.21
2897.12
2897.12
2956.93
2956.93
3016.65
3016.65
3076.32
3076.32
3135.97
3135.97
3195.66
3195.66
3255.49
3255.49
3315.54
3315.54
3375.95
3375.95
3436.85
3436.85
3498.41
3498.41
3560.82
3560.82
3624.29
3624.29
3689.08
3689.08
3755.46
3755.46
3823.74
3823.74
3894.28
3894.28
3967.49
3967.49
4043.82
4043.82
4123.8
4123.8
4208.04
4208.04
4297.21
4297.21
4392.12
4392.12
4493.7
4493.7
4603.07
4603.07
4721.53
4721.53
4850.66
4850.66
4992.37
4992.37
5149
5149
5323.47
5323.47
5519.46
5519.46
5741.66
5741.66
5996.22
5996.22
6291.31
6291.31
6638.07
6638.07
7052.11
7052.11
7556.02
7556.02
8183.77
8183.77
8988.99
8988.99
10061.4
10061.4
11562.7
11562.7
13814.6
13814.6
17543.1
17543.1
24670.8
24670.8
41203
41203
88235.7
88235.7
264575
264575
1.52417e+06
1.52417e+06
7.32483
7.32482
7.34102
7.34101
7.37188
7.37187
7.41621
7.41621
7.47348
7.47348
7.54289
7.54289
7.62289
7.6229
7.71129
7.71129
7.80558
7.80558
7.90382
7.90383
8.00406
8.00406
8.10352
8.10352
8.19957
8.19958
8.29144
8.29144
8.38067
8.38068
8.47027
8.47027
8.56353
8.56354
8.66314
8.66314
8.77099
8.77099
8.88881
8.88881
9.01823
9.01823
9.16036
9.16037
9.31575
9.31575
9.4845
9.48451
9.66661
9.66662
9.86202
9.86203
10.0707
10.0707
10.2926
10.2926
10.5278
10.5278
10.7756
10.7756
11.0337
11.0338
11.2984
11.2984
11.5652
11.5652
11.8306
11.8307
12.0921
12.0921
12.3478
12.3478
12.5975
12.5975
12.8423
12.8423
13.0841
13.0841
13.3251
13.3251
13.5673
13.5673
13.8122
13.8122
14.062
14.0621
14.3192
14.3192
14.5864
14.5864
14.866
14.866
15.1603
15.1603
15.4712
15.4712
15.8001
15.8001
16.1483
16.1483
16.5163
16.5163
16.9048
16.9048
17.3138
17.3139
17.7436
17.7436
18.1939
18.1939
18.6645
18.6645
19.1544
19.1544
19.6624
19.6625
20.1871
20.1871
20.7269
20.727
21.2806
21.2806
21.8475
21.8475
22.4281
22.4281
23.023
23.023
23.6319
23.6318
24.2537
24.2536
24.8868
24.8868
25.5289
25.5289
26.1776
26.1776
26.8309
26.8309
27.488
27.4879
28.1492
28.1492
28.8162
28.8162
29.491
29.491
30.1761
30.1761
30.8739
30.8739
31.5861
31.5861
32.314
32.314
33.0583
33.0584
33.8196
33.8196
34.5979
34.5979
35.3929
35.3929
36.2044
36.2045
37.0324
37.0324
37.8769
37.8769
38.7384
38.7384
39.6179
39.6179
40.5164
40.5164
41.4351
41.4351
42.3756
42.3756
43.3397
43.3397
44.3292
44.3293
45.3462
45.3462
46.3922
46.3922
47.4687
47.4687
48.5767
48.5767
49.7176
49.7176
50.8932
50.8932
52.1052
52.1052
53.3561
53.3561
54.6485
54.6485
55.9852
55.9852
57.369
57.369
58.8026
58.8026
60.2887
60.2887
61.8297
61.8297
63.4282
63.4282
65.0865
65.0865
66.8068
66.8068
68.5912
68.5912
70.4418
70.4418
72.3607
72.3608
74.35
74.35
76.4118
76.4118
78.5482
78.5482
80.7614
80.7614
83.0535
83.0535
85.4264
85.4264
87.882
87.882
90.422
90.422
93.048
93.048
95.7616
95.7616
98.5644
98.5644
101.458
101.458
104.444
104.444
107.523
107.523
110.698
110.698
113.97
113.97
117.341
117.341
120.813
120.813
124.387
124.387
128.066
128.066
131.852
131.852
135.747
135.747
139.754
139.754
143.874
143.874
148.111
148.111
152.465
152.465
156.941
156.941
161.539
161.539
166.262
166.262
171.113
171.113
176.093
176.093
181.205
181.205
186.451
186.451
191.834
191.834
197.355
197.355
203.018
203.018
208.825
208.825
214.779
214.779
220.882
220.882
227.138
227.138
233.55
233.55
240.12
240.12
246.851
246.851
253.746
253.746
260.806
260.806
268.036
268.036
275.436
275.436
283.009
283.009
290.756
290.756
298.679
298.679
306.78
306.78
315.059
315.059
323.518
323.518
332.159
332.159
340.982
340.982
349.989
349.989
359.18
359.18
368.556
368.556
378.118
378.118
387.868
387.868
397.806
397.806
407.932
407.932
418.246
418.246
428.751
428.751
439.445
439.445
450.329
450.329
461.403
461.403
472.666
472.666
484.119
484.119
495.76
495.76
507.589
507.589
519.603
519.603
531.803
531.803
544.185
544.185
556.748
556.748
569.49
569.49
582.406
582.406
595.494
595.494
608.75
608.75
622.17
622.17
635.749
635.749
649.48
649.48
663.359
663.359
677.378
677.378
691.531
691.531
705.808
705.808
720.203
720.203
734.705
734.705
749.304
749.304
763.99
763.99
778.752
778.752
793.576
793.576
808.451
808.451
823.364
823.364
838.301
838.301
853.249
853.249
868.194
868.194
883.121
883.121
898.014
898.014
912.861
912.861
927.648
927.648
942.361
942.361
956.989
956.989
971.521
971.521
985.948
985.948
1000.26
1000.26
1014.47
1014.47
1028.55
1028.55
1042.53
1042.53
1056.4
1056.4
1070.17
1070.17
1083.87
1083.87
1097.52
1097.52
1111.14
1111.14
1124.78
1124.78
1138.47
1138.47
1152.28
1152.28
1166.25
1166.25
1180.47
1180.47
1195.02
1195.02
1209.99
1209.99
1225.48
1225.48
1241.58
1241.58
1258.41
1258.41
1276.09
1276.09
1294.76
1294.76
1314.52
1314.52
1335.53
1335.53
1357.9
1357.9
1381.77
1381.77
1407.24
1407.24
1434.44
1434.44
1463.45
1463.45
1494.37
1494.37
1527.25
1527.25
1562.15
1562.15
1599.09
1599.09
1638.08
1638.08
1679.09
1679.09
1722.09
1722.09
1767.03
1767.03
1813.82
1813.82
1862.38
1862.38
1912.59
1912.59
1964.34
1964.34
2017.5
2017.5
2071.93
2071.93
2127.49
2127.49
2184.05
2184.05
2241.47
2241.47
2299.61
2299.61
2358.35
2358.35
2417.57
2417.57
2477.14
2477.14
2536.97
2536.97
2596.97
2596.97
2657.06
2657.06
2717.16
2717.16
2777.22
2777.22
2837.21
2837.21
2897.12
2897.12
2956.93
2956.93
3016.65
3016.65
3076.32
3076.32
3135.97
3135.97
3195.66
3195.66
3255.49
3255.49
3315.54
3315.54
3375.95
3375.95
3436.85
3436.85
3498.41
3498.41
3560.82
3560.82
3624.29
3624.29
3689.08
3689.08
3755.46
3755.46
3823.74
3823.74
3894.28
3894.28
3967.49
3967.49
4043.82
4043.82
4123.8
4123.8
4208.04
4208.04
4297.21
4297.21
4392.12
4392.12
4493.7
4493.7
4603.07
4603.07
4721.53
4721.53
4850.66
4850.66
4992.37
4992.37
5149
5149
5323.47
5323.47
5519.46
5519.46
5741.66
5741.66
5996.22
5996.22
6291.31
6291.31
6638.07
6638.07
7052.11
7052.11
7556.02
7556.02
8183.77
8183.77
8988.99
8988.99
10061.4
10061.4
11562.7
11562.7
13814.6
13814.6
17543.1
17543.1
24670.8
24670.8
41203
41203
88235.7
88235.7
264575
264575
1.52417e+06
1.52417e+06
)
;

boundaryField
{
    walls
    {
        blending        binomial2;
        n               2;
        beta1           0.075;
        type            omegaWallFunction;
        value           nonuniform List<scalar> 8(1.52416e+06 1.52416e+06 1.52416e+06 1.52416e+06 1.52417e+06 1.52417e+06 1.52417e+06 1.52417e+06);
    }
    inlet
    {
        type            cyclic;
    }
    outlet
    {
        type            cyclic;
    }
    sides
    {
        type            empty;
    }
}


// ************************************************************************* //
