/*--------------------------------*- C++ -*----------------------------------*\
| =========                 |                                                 |
| \\      /  F ield         | OpenFOAM: The Open Source CFD Toolbox           |
|  \\    /   O peration     | Version:  2012                                  |
|   \\  /    A nd           | Website:  www.openfoam.com                      |
|    \\/     M anipulation  |                                                 |
\*---------------------------------------------------------------------------*/
FoamFile
{
    version     2.0;
    format      ascii;
    class       volVectorField;
    location    "15200";
    object      U;
}
// * * * * * * * * * * * * * * * * * * * * * * * * * * * * * * * * * * * * * //

dimensions      [0 1 -1 0 0 0 0];


internalField   nonuniform List<vector> 
2560
(
(0.0991385 8.78796e-09 -7.67791e-08)
(0.0991385 -2.72537e-09 4.52888e-22)
(0.298654 2.14828e-08 -1.13537e-07)
(0.298654 8.36038e-09 -1.59229e-10)
(0.500857 1.62562e-08 -9.13322e-08)
(0.500857 1.00668e-08 -4.88121e-10)
(0.705774 8.35744e-10 -5.34687e-08)
(0.705774 -7.27605e-09 -8.1566e-10)
(0.913427 -2.97254e-09 -2.86079e-08)
(0.913427 -1.33632e-08 -1.0337e-09)
(1.12384 7.33059e-10 -1.66594e-08)
(1.12384 -1.04165e-08 -1.23257e-09)
(1.33705 2.8836e-09 -1.06185e-08)
(1.33705 -8.75115e-09 -1.45358e-09)
(1.55309 4.42765e-09 -7.04979e-09)
(1.55309 -7.62422e-09 -1.72314e-09)
(1.77201 4.81713e-09 -4.56827e-09)
(1.77201 -7.52455e-09 -2.04657e-09)
(1.99387 5.73235e-09 -2.57591e-09)
(1.99387 -6.86752e-09 -2.42312e-09)
(2.21873 5.85923e-09 -7.78875e-10)
(2.21873 -6.9555e-09 -8.15114e-10)
(2.44665 6.18546e-09 9.8883e-10)
(2.44665 -6.81809e-09 9.5707e-10)
(2.6777 6.46025e-09 2.83263e-09)
(2.6777 -6.71616e-09 2.80425e-09)
(2.91197 6.56044e-09 4.82955e-09)
(2.91197 -6.77208e-09 4.80381e-09)
(3.14952 6.77534e-09 6.40225e-09)
(3.14952 -6.70346e-09 7.01818e-09)
(3.39045 6.76946e-09 7.23591e-09)
(3.39045 -6.84594e-09 9.50238e-09)
(3.63482 7.0014e-09 8.15136e-09)
(3.63482 -6.74382e-09 1.16437e-08)
(3.88272 7.10145e-09 9.15568e-09)
(3.88272 -6.76772e-09 1.1005e-08)
(4.13423 7.0212e-09 1.02515e-08)
(4.13423 -6.96733e-09 1.04694e-08)
(4.38942 7.18924e-09 1.14434e-08)
(4.38942 -6.91465e-09 1.14435e-08)
(4.64835 7.35257e-09 1.274e-08)
(4.64835 -6.86353e-09 1.27402e-08)
(4.91108 7.36294e-09 1.41484e-08)
(4.91108 -6.96373e-09 1.41486e-08)
(5.17766 7.09063e-09 1.5669e-08)
(5.17766 -7.343e-09 1.56692e-08)
(5.44813 7.66009e-09 1.73116e-08)
(5.44813 -6.88037e-09 1.73118e-08)
(5.72252 7.4537e-09 1.90878e-08)
(5.72252 -7.1918e-09 1.9088e-08)
(6.00084 7.5386e-09 2.10019e-08)
(6.00084 -7.21142e-09 2.10021e-08)
(6.28307 7.17974e-09 2.30556e-08)
(6.28307 -7.67367e-09 2.30558e-08)
(6.5692 7.99671e-09 2.52637e-08)
(6.5692 -6.96013e-09 2.52639e-08)
(6.85918 7.44297e-09 2.76384e-08)
(6.85918 -7.61758e-09 2.76386e-08)
(7.15293 7.78697e-09 3.01844e-08)
(7.15293 -7.37724e-09 3.01845e-08)
(7.45038 7.224e-09 3.29061e-08)
(7.45038 -8.04403e-09 3.29063e-08)
(7.7514 8.20221e-09 3.58202e-08)
(7.7514 -7.17044e-09 3.58203e-08)
(8.05586 7.51868e-09 3.89419e-08)
(8.05586 -7.9596e-09 3.89422e-08)
(8.36357 7.79538e-09 4.22745e-08)
(8.36357 -7.78953e-09 4.22746e-08)
(8.67434 7.47755e-09 4.58277e-08)
(8.67434 -8.21472e-09 4.58279e-08)
(8.98793 8.25972e-09 4.96223e-08)
(8.98793 -7.54156e-09 4.96224e-08)
(9.30409 7.62802e-09 5.36735e-08)
(9.30409 -8.28372e-09 5.36738e-08)
(9.62251 7.84617e-09 5.79868e-08)
(9.62251 -8.17822e-09 5.7987e-08)
(9.94288 7.58337e-09 6.25747e-08)
(9.94288 -8.55447e-09 6.25749e-08)
(10.2648 8.30357e-09 6.74608e-08)
(10.2648 -7.95076e-09 6.74609e-08)
(10.588 7.8377e-09 7.2666e-08)
(10.588 -8.53463e-09 7.26662e-08)
(10.9118 7.93944e-09 7.81993e-08)
(10.9118 -8.55429e-09 7.81994e-08)
(11.236 7.48223e-09 8.40697e-08)
(11.236 -9.1338e-09 8.40699e-08)
(11.56 8.82459e-09 9.03135e-08)
(11.56 -7.91842e-09 9.03137e-08)
(11.8833 7.09426e-09 9.69414e-08)
(11.8833 -9.77655e-09 9.69416e-08)
(12.2052 9.06144e-09 1.03977e-07)
(12.2052 -7.94308e-09 1.03978e-07)
(12.5254 6.51667e-09 1.11429e-07)
(12.5254 -1.06212e-08 1.11429e-07)
(12.843 9.82511e-09 1.19332e-07)
(12.843 -7.45341e-09 1.19332e-07)
(13.1575 7.48209e-09 1.27733e-07)
(13.1575 -9.9377e-09 1.27733e-07)
(13.4683 7.03457e-09 1.36586e-07)
(13.4683 -1.05321e-08 1.36586e-07)
(13.7745 7.22056e-09 1.45905e-07)
(13.7745 -1.04986e-08 1.45905e-07)
(14.0756 1.43781e-08 1.55886e-07)
(14.0756 -3.49321e-09 1.55886e-07)
(14.3708 -2.08486e-09 1.66331e-07)
(14.3708 -2.01169e-08 1.66331e-07)
(14.6594 1.76111e-08 1.77331e-07)
(14.6594 -5.84785e-10 1.77331e-07)
(14.9406 2.63204e-09 1.89029e-07)
(14.9406 -1.57326e-08 1.89029e-07)
(15.2136 8.42971e-09 2.01208e-07)
(15.2136 -1.01137e-08 2.01208e-07)
(15.4778 1.22806e-08 2.14128e-07)
(15.4778 -6.43755e-09 2.14128e-07)
(15.7323 4.7989e-10 2.27603e-07)
(15.7323 -1.84266e-08 2.27603e-07)
(15.9765 1.50947e-08 2.41705e-07)
(15.9765 -4.00165e-09 2.41705e-07)
(16.2095 2.21698e-09 2.56494e-07)
(16.2095 -1.70802e-08 2.56494e-07)
(16.4306 1.36429e-08 2.71927e-07)
(16.4306 -5.85507e-09 2.71927e-07)
(16.6392 3.17069e-09 2.88032e-07)
(16.6392 -1.65385e-08 2.88032e-07)
(16.8346 6.24327e-09 3.04587e-07)
(16.8346 -1.36867e-08 3.04587e-07)
(17.0161 1.31036e-08 3.21852e-07)
(17.0161 -7.0449e-09 3.21852e-07)
(17.1831 4.86593e-09 3.39776e-07)
(17.1831 -1.55174e-08 3.39776e-07)
(17.3351 1.42619e-09 3.57987e-07)
(17.3351 -1.91976e-08 3.57987e-07)
(17.4715 1.93044e-08 3.76866e-07)
(17.4715 -1.55708e-09 3.76866e-07)
(17.5919 -1.13676e-08 3.96005e-07)
(17.5919 -3.24927e-08 3.96005e-07)
(17.6959 3.25443e-08 4.15745e-07)
(17.6959 1.11694e-08 4.15745e-07)
(17.7832 -2.66816e-08 4.35595e-07)
(17.7832 -4.83344e-08 4.35595e-07)
(17.8535 4.14829e-08 4.5575e-07)
(17.8535 1.95659e-08 4.5575e-07)
(17.9065 -2.73247e-08 4.76183e-07)
(17.9065 -4.95376e-08 4.76182e-07)
(17.9423 3.5329e-08 4.96619e-07)
(17.9423 1.28405e-08 4.96619e-07)
(17.9607 -1.92047e-08 5.17315e-07)
(17.9607 -4.20081e-08 5.17315e-07)
(17.9618 2.73242e-08 5.37955e-07)
(17.9618 4.23536e-09 5.37955e-07)
(17.9458 -1.26191e-08 5.58759e-07)
(17.9458 -3.60426e-08 5.58759e-07)
(17.9129 1.67073e-08 5.79336e-07)
(17.9129 -7.01019e-09 5.79336e-07)
(17.8633 1.19902e-09 6.00173e-07)
(17.8633 -2.28752e-08 6.00173e-07)
(17.7975 2.56834e-09 6.20779e-07)
(17.7975 -2.18105e-08 6.20779e-07)
(17.7158 1.49579e-08 6.41659e-07)
(17.7158 -9.7954e-09 6.41658e-07)
(17.6189 -1.20223e-08 6.62319e-07)
(17.6189 -3.70851e-08 6.62319e-07)
(17.5073 2.64712e-08 6.83194e-07)
(17.5073 1.00196e-09 6.83193e-07)
(17.3816 -1.6392e-08 7.04181e-07)
(17.3816 -4.21661e-08 7.04181e-07)
(17.2426 2.31756e-08 7.25171e-07)
(17.2426 -3.04328e-09 7.25171e-07)
(17.0909 -9.53912e-09 7.46485e-07)
(17.0909 -3.60536e-08 7.46485e-07)
(16.9274 2.12761e-08 7.68079e-07)
(16.9274 -5.72799e-09 7.68079e-07)
(16.7529 -1.18606e-08 7.8992e-07)
(16.7529 -3.91429e-08 7.8992e-07)
(16.5682 2.36878e-08 8.12121e-07)
(16.5682 -4.14217e-09 8.12121e-07)
(16.3741 -1.40617e-08 8.3465e-07)
(16.3741 -4.21422e-08 8.3465e-07)
(16.1714 2.34686e-08 8.57503e-07)
(16.1714 -5.2304e-09 8.57502e-07)
(15.9611 -6.54442e-09 8.81044e-07)
(15.9611 -3.5455e-08 8.81044e-07)
(15.744 1.60746e-08 9.04972e-07)
(15.744 -1.35448e-08 9.04971e-07)
(15.5208 -1.99117e-09 9.29512e-07)
(15.5208 -3.17611e-08 9.29512e-07)
(15.2925 8.63754e-09 9.54341e-07)
(15.2925 -2.19612e-08 9.5434e-07)
(15.0597 1.28289e-08 9.80124e-07)
(15.0597 -1.78359e-08 9.80124e-07)
(14.8232 -2.01015e-09 1.00641e-06)
(14.8232 -3.36486e-08 1.00641e-06)
(14.5838 9.89199e-09 1.03303e-06)
(14.5838 -2.17021e-08 1.03303e-06)
(14.342 1.26557e-08 1.06067e-06)
(14.342 -2.01061e-08 1.06067e-06)
(14.0987 -5.19121e-09 1.08863e-06)
(14.0987 -3.7741e-08 1.08863e-06)
(13.8543 2.5802e-08 1.11748e-06)
(13.8543 -8.17232e-09 1.11748e-06)
(13.6095 -9.95952e-09 1.14701e-06)
(13.6095 -4.34974e-08 1.14701e-06)
(13.3647 1.89681e-08 1.17684e-06)
(13.3647 -1.63247e-08 1.17684e-06)
(13.1205 1.734e-09 1.20751e-06)
(13.1205 -3.2819e-08 1.20751e-06)
(12.8773 1.67982e-08 1.23889e-06)
(12.8773 -1.99389e-08 1.23889e-06)
(12.6355 -3.7154e-09 1.27066e-06)
(12.6355 -3.93004e-08 1.27066e-06)
(12.3954 2.6574e-08 1.30326e-06)
(12.3954 -1.17591e-08 1.30326e-06)
(12.1575 -1.16896e-08 1.33626e-06)
(12.1575 -4.83135e-08 1.33626e-06)
(11.9219 3.2486e-08 1.36987e-06)
(11.9219 -7.62547e-09 1.36986e-06)
(11.6889 -1.07645e-08 1.40411e-06)
(11.6889 -4.84165e-08 1.40412e-06)
(11.4588 2.65896e-08 1.43858e-06)
(11.4588 -1.55221e-08 1.43857e-06)
(11.2317 -2.80683e-09 1.47364e-06)
(11.2317 -4.14519e-08 1.47364e-06)
(11.0078 2.99237e-08 1.5094e-06)
(11.0078 -1.44597e-08 1.50939e-06)
(10.7873 -1.58874e-08 1.54506e-06)
(10.7873 -5.54534e-08 1.54506e-06)
(10.5702 5.02415e-08 1.58164e-06)
(10.5702 3.2507e-09 1.58163e-06)
(10.3566 -3.63053e-08 1.61792e-06)
(10.3566 -7.66721e-08 1.61793e-06)
(10.1466 7.3337e-08 1.65508e-06)
(10.1466 2.3321e-08 1.65507e-06)
(9.94019 -5.39823e-08 1.69206e-06)
(9.94019 -9.496e-08 1.69207e-06)
(9.73749 9.04591e-08 1.72967e-06)
(9.73749 3.68925e-08 1.72965e-06)
(9.53847 -7.12155e-08 1.76683e-06)
(9.53847 -1.1252e-07 1.76685e-06)
(9.34313 1.09842e-07 1.80449e-06)
(9.34313 5.20622e-08 1.80447e-06)
(9.15147 -7.99393e-08 1.84212e-06)
(9.15147 -1.21157e-07 1.84214e-06)
(8.96346 1.15455e-07 1.87976e-06)
(8.96346 5.26156e-08 1.87974e-06)
(8.77907 -8.06724e-08 1.9174e-06)
(8.77907 -1.21215e-07 1.91743e-06)
(8.59826 1.18168e-07 1.95487e-06)
(8.59826 4.91865e-08 1.95483e-06)
(8.42101 -8.3584e-08 1.99198e-06)
(8.42101 -1.22624e-07 1.99202e-06)
(8.24725 1.3446e-07 2.02948e-06)
(8.24725 5.79377e-08 2.02943e-06)
(8.07695 -1.09362e-07 2.06561e-06)
(8.07695 -1.45751e-07 2.06566e-06)
(7.91005 1.76359e-07 2.10286e-06)
(7.91005 9.04836e-08 2.1028e-06)
(7.7465 -1.54422e-07 2.13813e-06)
(7.7465 -1.86575e-07 2.1382e-06)
(7.58626 2.23671e-07 2.17425e-06)
(7.58626 1.26081e-07 2.17416e-06)
(7.42926 -1.93957e-07 2.2085e-06)
(7.42926 -2.19704e-07 2.2086e-06)
(7.27546 2.73229e-07 2.24389e-06)
(7.27546 1.60832e-07 2.24376e-06)
(7.12482 -2.52085e-07 2.27628e-06)
(7.12482 -2.68463e-07 2.27642e-06)
(6.97728 3.43134e-07 2.31017e-06)
(6.97728 2.11865e-07 2.31e-06)
(6.83279 -3.19237e-07 2.34073e-06)
(6.83279 -3.22209e-07 2.34092e-06)
(6.69133 4.24005e-07 2.3733e-06)
(6.69133 2.68482e-07 2.37307e-06)
(6.55283 -4.08627e-07 2.40129e-06)
(6.55283 -3.92696e-07 2.40155e-06)
(6.41726 5.31063e-07 2.43207e-06)
(6.41726 3.44158e-07 2.43175e-06)
(6.28457 -5.23468e-07 2.45697e-06)
(6.28457 -4.81201e-07 2.45733e-06)
(6.15472 6.67165e-07 2.48572e-06)
(6.15472 4.39436e-07 2.48529e-06)
(6.02767 -6.67299e-07 2.50724e-06)
(6.02767 -5.88647e-07 2.50774e-06)
(5.90339 8.36465e-07 2.53402e-06)
(5.90339 5.55346e-07 2.53343e-06)
(5.78184 -8.51242e-07 2.55155e-06)
(5.78184 -7.22613e-07 2.55223e-06)
(5.66299 1.04977e-06 2.57606e-06)
(5.66299 6.98493e-07 2.57525e-06)
(5.54682 -1.08434e-06 2.58872e-06)
(5.54682 -8.87346e-07 2.58967e-06)
(5.43329 1.3269e-06 2.61143e-06)
(5.43329 8.83016e-07 2.6103e-06)
(5.32239 -1.39315e-06 2.61847e-06)
(5.32239 -1.10292e-06 2.61978e-06)
(5.21409 1.68633e-06 2.63925e-06)
(5.21409 1.11974e-06 2.6377e-06)
(5.10837 -1.7868e-06 2.64018e-06)
(5.10837 -1.36967e-06 2.64199e-06)
(5.00522 2.13784e-06 2.65927e-06)
(5.00522 1.4081e-06 2.65711e-06)
(4.90462 -2.28733e-06 2.65267e-06)
(4.90462 -1.69769e-06 2.65519e-06)
(4.80654 2.71376e-06 2.67042e-06)
(4.80654 1.76638e-06 2.66744e-06)
(4.71099 -2.92766e-06 2.65488e-06)
(4.71099 -2.10371e-06 2.65838e-06)
(4.61793 3.45033e-06 2.67207e-06)
(4.61793 2.21176e-06 2.66793e-06)
(4.52736 -3.75075e-06 2.6458e-06)
(4.52736 -2.60858e-06 2.65067e-06)
(4.43925 4.39465e-06 2.66338e-06)
(4.43925 2.76542e-06 2.65762e-06)
(4.35358 -4.80659e-06 2.62431e-06)
(4.35358 -3.23215e-06 2.63108e-06)
(4.27032 5.59945e-06 2.64336e-06)
(4.27032 3.44468e-06 2.63533e-06)
(4.18943 -6.15108e-06 2.58904e-06)
(4.18943 -3.98919e-06 2.59849e-06)
(4.11087 7.13332e-06 2.61187e-06)
(4.11087 4.2698e-06 2.60067e-06)
(4.03457 -7.87707e-06 2.53816e-06)
(4.03457 -4.91611e-06 2.55137e-06)
(3.96047 9.11234e-06 2.56824e-06)
(3.96047 5.2906e-06 2.55258e-06)
(3.88846 -1.01121e-05 2.4705e-06)
(3.88846 -6.0631e-06 2.48899e-06)
(3.81847 1.16672e-05 2.51155e-06)
(3.81847 6.54676e-06 2.48961e-06)
(3.75038 -1.29942e-05 2.38404e-06)
(3.75038 -7.46162e-06 2.40998e-06)
(3.68408 1.49635e-05 2.44257e-06)
(3.68408 8.07884e-06 2.41177e-06)
(3.61948 -1.6738e-05 2.2758e-06)
(3.61948 -9.17969e-06 2.31226e-06)
(3.55647 1.92521e-05 2.35951e-06)
(3.55647 9.96479e-06 2.31619e-06)
(3.49497 -2.15912e-05 2.14481e-06)
(3.49497 -1.12622e-05 2.19616e-06)
(3.43491 2.47922e-05 2.26477e-06)
(3.43491 1.22251e-05 2.20371e-06)
(3.37625 -2.78839e-05 1.98662e-06)
(3.37625 -1.37586e-05 2.05911e-06)
(3.31898 3.19921e-05 2.15825e-06)
(3.31898 1.49371e-05 2.07198e-06)
(3.26309 -3.60623e-05 1.79913e-06)
(3.26309 -1.67252e-05 1.90168e-06)
(3.2086 4.13355e-05 2.04269e-06)
(3.2086 1.81246e-05 1.92052e-06)
(3.15552 -4.66877e-05 1.57734e-06)
(3.15552 -2.01811e-05 1.72276e-06)
(3.10388 5.34999e-05 1.92354e-06)
(3.10388 2.18241e-05 1.75013e-06)
(3.05369 -6.05603e-05 1.31751e-06)
(3.05369 -2.41695e-05 1.52419e-06)
(3.00495 6.93927e-05 1.80618e-06)
(3.00495 2.60478e-05 1.55942e-06)
(2.95765 -7.87079e-05 1.01294e-06)
(2.95765 -2.86593e-05 1.30744e-06)
(2.91177 9.02051e-05 1.69999e-06)
(2.91177 3.07321e-05 1.34797e-06)
(2.86726 -0.000102534 6.52598e-07)
(2.86726 -3.35679e-05 1.0733e-06)
(2.82409 0.000117585 1.61612e-06)
(2.82409 3.57624e-05 1.11262e-06)
(2.78218 -0.00013394 4.75421e-07)
(2.78218 -3.87086e-05 8.26255e-07)
(2.74146 0.000147309 1.30167e-06)
(2.74146 4.08459e-05 8.48253e-07)
(2.70184 -0.00016221 3.36631e-07)
(2.70184 -4.37309e-05 5.66591e-07)
(2.66326 0.000172524 9.0162e-07)
(2.66326 4.55627e-05 5.53063e-07)
(2.62563 -0.00018441 1.8664e-07)
(2.62563 -4.82351e-05 6.97915e-07)
(2.58892 0.000191525 4.61076e-07)
(2.58892 4.95183e-05 6.1163e-07)
(2.55307 -0.000200052 2.44128e-08)
(2.55307 -5.18522e-05 8.74511e-07)
(2.51807 0.000203811 0)
(2.51807 5.23448e-05 9.28543e-07)
(2.48393 -0.000199727 4.23315e-07)
(2.48393 -5.42523e-05 6.77718e-07)
(2.45066 0.000200313 1.7988e-07)
(2.45066 5.38295e-05 8.46475e-07)
(2.41828 -0.00019214 9.82019e-07)
(2.41828 -5.52264e-05 5.51939e-07)
(2.38679 0.000188769 3.75899e-07)
(2.38679 5.39175e-05 7.6263e-07)
(2.35618 -0.000176508 1.57696e-06)
(2.35618 -5.47852e-05 9.89958e-07)
(2.32642 0.000168978 5.87842e-07)
(2.32642 5.26803e-05 1.06753e-06)
(2.2975 -0.000152676 2.20468e-06)
(2.2975 -5.30545e-05 1.45344e-06)
(2.26936 0.000140818 8.14543e-07)
(2.26936 5.03105e-05 1.48421e-06)
(2.24196 -0.000126656 2.55511e-06)
(2.24196 -5.03265e-05 1.93537e-06)
(2.21522 0.000116863 1.38417e-06)
(2.21522 4.71454e-05 1.93839e-06)
(2.18898 -0.000104859 2.9281e-06)
(2.18898 -4.70097e-05 2.43497e-06)
(2.16309 9.71951e-05 1.98884e-06)
(2.16309 4.35394e-05 2.42929e-06)
(2.13737 -8.69208e-05 3.35046e-06)
(2.13737 -4.33785e-05 2.95973e-06)
(2.1116 8.1017e-05 2.60862e-06)
(2.1116 3.97097e-05 2.95729e-06)
(2.08559 -7.21284e-05 3.82128e-06)
(2.08559 -3.96264e-05 3.51304e-06)
(2.05916 6.77135e-05 3.25001e-06)
(2.05916 3.58481e-05 3.52495e-06)
(2.03214 -5.99307e-05 4.33753e-06)
(2.03214 -3.59238e-05 4.09546e-06)
(2.00444 5.67623e-05 3.91066e-06)
(2.00444 3.20739e-05 4.12666e-06)
(1.97605 -4.98456e-05 4.89459e-06)
(1.97605 -3.23607e-05 4.70533e-06)
(1.94698 4.77203e-05 4.58976e-06)
(1.94698 2.84512e-05 4.75889e-06)
(1.91727 -4.14795e-05 5.48985e-06)
(1.91727 -2.89964e-05 5.34255e-06)
(1.88692 4.02639e-05 5.29225e-06)
(1.88692 2.50559e-05 5.42431e-06)
(1.85587 -3.4545e-05 6.12216e-06)
(1.85587 -2.58987e-05 6.00803e-06)
(1.82406 3.41277e-05 6.01733e-06)
(1.82406 2.19354e-05 6.12023e-06)
(1.79139 -2.87943e-05 6.78762e-06)
(1.79139 -2.30981e-05 6.69961e-06)
(1.75776 2.90596e-05 6.76071e-06)
(1.75776 1.90804e-05 6.84079e-06)
(1.72308 -2.40188e-05 7.48501e-06)
(1.72308 -2.06017e-05 7.41747e-06)
(1.68728 2.48976e-05 7.53475e-06)
(1.68728 1.6517e-05 7.59706e-06)
(1.65027 -2.00467e-05 8.23082e-06)
(1.65027 -1.84054e-05 8.17927e-06)
(1.61201 2.14934e-05 8.35693e-06)
(1.61201 1.42416e-05 8.4055e-06)
(1.57251 -1.67353e-05 9.0387e-06)
(1.57251 -1.64952e-05 8.99961e-06)
(1.5319 1.86864e-05 9.23723e-06)
(1.5319 1.22033e-05 9.27519e-06)
(1.49039 -1.39418e-05 9.92108e-06)
(1.49039 -1.48267e-05 9.89168e-06)
(1.44823 1.63859e-05 1.0195e-05)
(1.44823 1.03949e-05 1.02249e-05)
(1.40569 -1.15508e-05 1.08909e-05)
(1.40568 -1.33607e-05 1.0869e-05)
(1.36294 1.4503e-05 1.12281e-05)
(1.36294 8.79139e-06 1.12518e-05)
(1.32009 -9.53081e-06 1.19224e-05)
(1.32009 -1.21241e-05 1.19062e-05)
(1.27708 1.29797e-05 1.23022e-05)
(1.27708 7.38153e-06 1.23212e-05)
(1.23374 -7.89826e-06 1.29811e-05)
(1.23374 -1.1177e-05 1.29694e-05)
(1.1899 1.18087e-05 1.34073e-05)
(1.1899 6.19206e-06 1.34227e-05)
(1.14545 -6.56459e-06 1.4093e-05)
(1.14545 -1.0464e-05 1.40848e-05)
(1.10044 1.09332e-05 1.45828e-05)
(1.10044 5.19107e-06 1.45956e-05)
(1.05503 -5.42003e-06 1.53031e-05)
(1.05503 -9.90108e-06 1.52977e-05)
(1.00939 1.02668e-05 1.5862e-05)
(1.00939 4.30996e-06 1.58728e-05)
(0.963695 -4.42586e-06 1.66247e-05)
(0.963694 -9.46938e-06 1.66214e-05)
(0.918083 9.79623e-06 1.72521e-05)
(0.918082 3.54766e-06 1.72614e-05)
(0.872735 -3.61934e-06 1.80506e-05)
(0.872733 -9.22195e-06 1.80489e-05)
(0.827874 9.50681e-06 1.8749e-05)
(0.827872 2.89771e-06 1.87572e-05)
(0.783755 -2.94309e-06 1.95993e-05)
(0.783753 -9.11412e-06 1.95989e-05)
(0.740592 9.46403e-06 2.03813e-05)
(0.74059 2.43057e-06 2.03886e-05)
(0.698433 -2.45458e-06 2.12663e-05)
(0.698431 -9.21377e-06 2.12669e-05)
(0.657141 9.63356e-06 2.21064e-05)
(0.657139 2.11449e-06 2.21131e-05)
(0.616405 -2.17205e-06 2.30036e-05)
(0.616402 -9.5479e-06 2.3005e-05)
(0.575794 9.97598e-06 2.38933e-05)
(0.575791 1.9108e-06 2.38995e-05)
(0.534875 -2.03437e-06 2.48244e-05)
(0.534872 -1.0063e-05 2.48264e-05)
(0.493296 1.05821e-05 2.57977e-05)
(0.493292 1.90962e-06 2.58034e-05)
(0.450739 -2.10431e-06 2.67718e-05)
(0.450735 -1.08288e-05 2.67743e-05)
(0.406973 1.14146e-05 2.78399e-05)
(0.406968 2.07169e-06 2.78451e-05)
(0.362072 -2.36337e-06 2.88842e-05)
(0.362066 -1.18335e-05 2.88868e-05)
(0.316534 1.25268e-05 3.00864e-05)
(0.316528 2.44719e-06 3.0091e-05)
(0.27121 -2.80077e-06 3.12281e-05)
(0.271202 -1.30733e-05 3.12305e-05)
(0.227045 1.39765e-05 3.25751e-05)
(0.227036 3.09008e-06 3.2579e-05)
(0.184857 -3.58499e-06 3.37774e-05)
(0.184846 -1.47234e-05 3.37794e-05)
(0.145343 1.58201e-05 3.52598e-05)
(0.145329 4.05158e-06 3.52628e-05)
(0.108967 -4.66651e-06 3.65155e-05)
(0.108949 -1.67414e-05 3.65169e-05)
(0.0756195 1.81237e-05 3.81126e-05)
(0.0755949 5.39256e-06 3.81145e-05)
(0.0444753 -6.20016e-06 3.93539e-05)
(0.0444399 -1.92885e-05 3.93546e-05)
(0.0143807 2.09264e-05 4.10287e-05)
(0.0143319 7.14672e-06 4.10296e-05)
(-0.0155045 -8.33174e-06 4.22261e-05)
(-0.0155592 -2.25195e-05 4.2226e-05)
(-0.0451478 2.4393e-05 4.40376e-05)
(-0.0451906 9.47667e-06 4.40386e-05)
(-0.0737498 -1.11273e-05 4.52774e-05)
(-0.0737783 -2.65009e-05 4.5279e-05)
(-0.100274 2.87712e-05 4.73813e-05)
(-0.100292 1.26168e-05 4.73838e-05)
(-0.123939 -1.46267e-05 4.87397e-05)
(-0.123952 -3.12841e-05 4.87433e-05)
(-0.144347 3.40307e-05 5.11549e-05)
(-0.144357 1.65283e-05 5.11591e-05)
(-0.161343 -1.88665e-05 5.26026e-05)
(-0.16135 -3.69154e-05 5.26085e-05)
(-0.175236 4.04681e-05 5.52811e-05)
(-0.175241 2.14962e-05 5.52871e-05)
(-0.18679 -2.43391e-05 5.65828e-05)
(-0.186794 -4.38967e-05 5.65911e-05)
(-0.196839 4.82463e-05 5.93718e-05)
(-0.196843 2.76719e-05 5.93795e-05)
(-0.206088 -3.12935e-05 6.03645e-05)
(-0.206092 -5.24859e-05 6.03754e-05)
(-0.215177 5.75336e-05 6.32526e-05)
(-0.21518 3.52117e-05 6.32621e-05)
(-0.224824 -3.99428e-05 6.39809e-05)
(-0.224828 -6.29044e-05 6.3995e-05)
(-0.235871 6.89428e-05 6.72226e-05)
(-0.235875 4.47157e-05 6.72344e-05)
(-0.249097 -5.04352e-05 6.77908e-05)
(-0.249102 -7.53094e-05 6.78092e-05)
(-0.265101 8.27762e-05 7.14434e-05)
(-0.265107 5.64706e-05 7.14583e-05)
(-0.284251 -6.34682e-05 7.1649e-05)
(-0.284257 -9.04076e-05 7.16734e-05)
(-0.306582 9.93413e-05 7.56905e-05)
(-0.306589 7.07637e-05 7.57099e-05)
(-0.332061 -7.9377e-05 7.5487e-05)
(-0.332069 -0.000108547 7.55202e-05)
(-0.360773 0.000119278 8.01029e-05)
(-0.360781 8.82052e-05 8.01288e-05)
(-0.392468 -9.87308e-05 7.94797e-05)
(-0.392477 -0.000130313 7.95256e-05)
(-0.426442 0.000143244 8.48723e-05)
(-0.426451 0.000109408 8.49071e-05)
(-0.462043 -0.000122156 8.37788e-05)
(-0.462051 -0.000156356 8.38426e-05)
(-0.499099 0.000172166 9.01136e-05)
(-0.499107 0.000135232 9.01595e-05)
(-0.537894 -0.000150723 8.82642e-05)
(-0.537902 -0.000187772 8.8353e-05)
(-0.578497 0.000206862 9.56048e-05)
(-0.578505 0.000166399 9.56639e-05)
(-0.62019 -0.000185287 9.28044e-05)
(-0.620198 -0.000225448 9.29289e-05)
(-0.661612 0.000248689 0.000101404)
(-0.66162 0.000204117 0.000101477)
(-0.701277 -0.000227283 9.7319e-05)
(-0.701284 -0.000270841 9.74945e-05)
(-0.738138 0.000299211 0.000107403)
(-0.738144 0.000249727 0.000107489)
(-0.771209 -0.000278363 0.000101615)
(-0.771214 -0.000325601 0.000101863)
(-0.798741 0.000360497 0.000113506)
(-0.798745 0.000304965 0.000113593)
(-0.818709 -0.000340676 0.000105463)
(-0.818712 -0.000391802 0.000105818)
(-0.830201 0.000435066 0.000119576)
(-0.830202 0.000371843 0.000119636)
(-0.834269 -0.000416514 0.000108675)
(-0.83427 -0.000471514 0.000109183)
(-0.833611 0.000525612 0.00012543)
(-0.83361 0.000452305 0.000125408)
(-0.831392 -0.00050918 0.000110895)
(-0.831392 -0.000567545 0.000111637)
(-0.829887 0.000635888 0.000131258)
(-0.829887 0.000548952 0.000131062)
(-0.829421 -0.000621557 0.00011263)
(-0.829421 -0.000681803 0.000113755)
(-0.828712 0.000770166 0.000137432)
(-0.828712 0.000664181 0.000136895)
(-0.826032 -0.000758819 0.000113051)
(-0.826031 -0.000817632 0.000114819)
(-0.819876 0.00093384 0.000142916)
(-0.819874 0.000800226 0.000141729)
(-0.809288 -0.000926499 0.000110885)
(-0.809284 -0.000977204 0.000113745)
(-0.794133 0.00113369 0.000146733)
(-0.794127 0.000958558 0.000144326)
(-0.775104 -0.00113305 0.000104598)
(-0.775097 -0.00116301 0.000109325)
(-0.752895 0.00137959 0.000148813)
(-0.752886 0.00114023 0.000144187)
(-0.726961 -0.00138896 9.46745e-05)
(-0.72695 -0.00137527 0.000102598)
(-0.696302 0.00168583 0.000151493)
(-0.696287 0.00134508 0.000142932)
(-0.661462 -0.00170978 8.21221e-05)
(-0.661444 -0.00161236 9.547e-05)
(-0.624266 0.00207221 0.000156314)
(-0.624245 0.00156962 0.000140942)
(-0.587182 -0.00211924 6.51239e-05)
(-0.58716 -0.00187033 8.75499e-05)
(-0.552746 0.00256783 0.000162818)
(-0.552723 0.0018056 0.000136003)
(-0.52217 -0.00260549 5.21254e-05)
(-0.522147 -0.00213914 7.8031e-05)
(-0.495036 0.00311014 0.000159589)
(-0.495014 0.00204787 0.000126432)
(-0.470453 -0.00310451 4.60944e-05)
(-0.470432 -0.00240384 6.70448e-05)
(-0.449125 0.00360819 0.000142494)
(-0.449107 0.00229158 0.000111542)
(-0.432296 -0.00357241 3.84549e-05)
(-0.432281 -0.00264745 5.41655e-05)
(-0.419573 0.00412688 0.000139238)
(-0.419561 0.00252613 9.02897e-05)
(-0.408505 -0.00408669 3.35363e-05)
(-0.408496 -0.00283341 3.90965e-05)
(-0.397298 0.00448014 8.93638e-05)
(-0.397291 0.00275424 6.147e-05)
(-0.387424 -0.0044793 5.7876e-05)
(-0.387421 -0.00295319 2.19424e-05)
(-0.381738 0.00473266 8.59775e-05)
(-0.381737 0.00294476 2.32163e-05)
(0.0991385 -2.73799e-09 -1.76834e-21)
(0.0991385 9.96905e-09 7.73304e-08)
(0.298654 8.30498e-09 1.59168e-10)
(0.298654 2.40297e-08 1.14351e-07)
(0.500857 1.0045e-08 4.88083e-10)
(0.500857 1.86664e-08 9.19887e-08)
(0.705774 -7.28463e-09 8.1564e-10)
(0.705774 3.05806e-09 5.38559e-08)
(0.913427 -1.33643e-08 1.03369e-09)
(0.913427 -7.67444e-10 2.88188e-08)
(1.12384 -1.04153e-08 1.23257e-09)
(1.12384 2.91921e-09 1.67867e-08)
(1.33705 -8.74842e-09 1.45358e-09)
(1.33705 5.06703e-09 1.07052e-08)
(1.55309 -7.62115e-09 1.72315e-09)
(1.55309 6.60516e-09 7.11432e-09)
(1.77201 -7.5211e-09 2.04657e-09)
(1.77201 6.99544e-09 4.61941e-09)
(1.99387 -6.86409e-09 2.42313e-09)
(1.99387 7.90732e-09 2.61826e-09)
(2.21873 -6.9519e-09 7.78875e-10)
(2.21873 8.0354e-09 8.15113e-10)
(2.44665 -6.8145e-09 -9.8883e-10)
(2.44665 8.35992e-09 -9.5707e-10)
(2.6777 -6.71247e-09 -2.83263e-09)
(2.6777 8.63524e-09 -2.80425e-09)
(2.91197 -6.7684e-09 -4.82955e-09)
(2.91197 8.73375e-09 -4.80381e-09)
(3.14952 -6.69968e-09 -7.04182e-09)
(3.14952 8.94912e-09 -6.40248e-09)
(3.39045 -6.84213e-09 -9.52432e-09)
(3.39045 8.94222e-09 -7.23609e-09)
(3.63482 -6.73991e-09 -1.16377e-08)
(3.63482 9.17433e-09 -8.1516e-09)
(3.88272 -6.7638e-09 -1.09993e-08)
(3.88272 9.27334e-09 -9.15586e-09)
(4.13423 -6.96332e-09 -1.0464e-08)
(4.13423 9.1933e-09 -1.02517e-08)
(4.38942 -6.91059e-09 -1.14435e-08)
(4.38942 9.36069e-09 -1.14435e-08)
(4.64835 -6.85938e-09 -1.27402e-08)
(4.64834 9.52404e-09 -1.27402e-08)
(4.91108 -6.95954e-09 -1.41486e-08)
(4.91108 9.5337e-09 -1.41486e-08)
(5.17766 -7.33872e-09 -1.56692e-08)
(5.17766 9.26144e-09 -1.56692e-08)
(5.44813 -6.87604e-09 -1.73118e-08)
(5.44813 9.83047e-09 -1.73118e-08)
(5.72252 -7.18739e-09 -1.90881e-08)
(5.72252 9.62402e-09 -1.90881e-08)
(6.00084 -7.20695e-09 -2.10021e-08)
(6.00084 9.70846e-09 -2.10021e-08)
(6.28307 -7.66912e-09 -2.30558e-08)
(6.28307 9.34958e-09 -2.30559e-08)
(6.5692 -6.95551e-09 -2.52639e-08)
(6.5692 1.01663e-08 -2.52639e-08)
(6.85917 -7.61288e-09 -2.76386e-08)
(6.85917 9.61244e-09 -2.76387e-08)
(7.15293 -7.37248e-09 -3.01845e-08)
(7.15293 9.95614e-09 -3.01846e-08)
(7.45038 -8.03919e-09 -3.29063e-08)
(7.45038 9.39308e-09 -3.29064e-08)
(7.7514 -7.16554e-09 -3.58203e-08)
(7.7514 1.03711e-08 -3.58204e-08)
(8.05586 -7.95462e-09 -3.89422e-08)
(8.05586 9.68746e-09 -3.89422e-08)
(8.36357 -7.78448e-09 -4.22746e-08)
(8.36357 9.96398e-09 -4.22747e-08)
(8.67434 -8.20959e-09 -4.5828e-08)
(8.67434 9.64602e-09 -4.5828e-08)
(8.98793 -7.53637e-09 -4.96224e-08)
(8.98793 1.04281e-08 -4.96225e-08)
(9.30409 -8.27846e-09 -5.36738e-08)
(9.30409 9.79625e-09 -5.36738e-08)
(9.62251 -8.17289e-09 -5.7987e-08)
(9.62251 1.00143e-08 -5.79871e-08)
(9.94288 -8.54908e-09 -6.25749e-08)
(9.94288 9.75134e-09 -6.2575e-08)
(10.2648 -7.94529e-09 -6.74609e-08)
(10.2648 1.04715e-08 -6.7461e-08)
(10.5879 -8.52909e-09 -7.26662e-08)
(10.5879 1.00054e-08 -7.26663e-08)
(10.9118 -8.54869e-09 -7.81994e-08)
(10.9118 1.01072e-08 -7.81995e-08)
(11.236 -9.12813e-09 -8.40699e-08)
(11.236 9.64973e-09 -8.407e-08)
(11.56 -7.91268e-09 -9.03137e-08)
(11.56 1.09921e-08 -9.03138e-08)
(11.8833 -9.77075e-09 -9.69416e-08)
(11.8833 9.26155e-09 -9.69417e-08)
(12.2052 -7.93722e-09 -1.03978e-07)
(12.2052 1.12287e-08 -1.03978e-07)
(12.5254 -1.06153e-08 -1.11429e-07)
(12.5254 8.68372e-09 -1.11429e-07)
(12.843 -7.44741e-09 -1.19332e-07)
(12.843 1.19922e-08 -1.19333e-07)
(13.1575 -9.93163e-09 -1.27733e-07)
(13.1575 9.64892e-09 -1.27733e-07)
(13.4683 -1.0526e-08 -1.36586e-07)
(13.4683 9.20145e-09 -1.36586e-07)
(13.7745 -1.04924e-08 -1.45905e-07)
(13.7745 9.38717e-09 -1.45905e-07)
(14.0756 -3.48692e-09 -1.55886e-07)
(14.0756 1.65448e-08 -1.55886e-07)
(14.3708 -2.01106e-08 -1.66331e-07)
(14.3708 8.15121e-11 -1.66332e-07)
(14.6594 -5.78352e-10 -1.77331e-07)
(14.6594 1.97775e-08 -1.77331e-07)
(14.9406 -1.57261e-08 -1.89029e-07)
(14.9406 4.79818e-09 -1.89029e-07)
(15.2136 -1.01071e-08 -2.01208e-07)
(15.2136 1.05959e-08 -2.01208e-07)
(15.4778 -6.43087e-09 -2.14128e-07)
(15.4778 1.44465e-08 -2.14129e-07)
(15.7323 -1.84198e-08 -2.27603e-07)
(15.7323 2.64583e-09 -2.27603e-07)
(15.9765 -3.99478e-09 -2.41705e-07)
(15.9765 1.72603e-08 -2.41705e-07)
(16.2095 -1.70732e-08 -2.56494e-07)
(16.2095 4.38264e-09 -2.56494e-07)
(16.4306 -5.84799e-09 -2.71927e-07)
(16.4306 1.58082e-08 -2.71927e-07)
(16.6392 -1.65313e-08 -2.88032e-07)
(16.6392 5.33605e-09 -2.88032e-07)
(16.8346 -1.36794e-08 -3.04587e-07)
(16.8346 8.40832e-09 -3.04587e-07)
(17.0161 -7.03749e-09 -3.21852e-07)
(17.0161 1.52687e-08 -3.21853e-07)
(17.1831 -1.55099e-08 -3.39776e-07)
(17.1831 7.03073e-09 -3.39777e-07)
(17.3351 -1.919e-08 -3.57987e-07)
(17.3351 3.59101e-09 -3.57987e-07)
(17.4715 -1.5494e-09 -3.76866e-07)
(17.4715 2.14689e-08 -3.76867e-07)
(17.5919 -3.24849e-08 -3.96005e-07)
(17.5919 -9.20298e-09 -3.96005e-07)
(17.6959 1.11773e-08 -4.15745e-07)
(17.6959 3.47087e-08 -4.15746e-07)
(17.7832 -4.83265e-08 -4.35595e-07)
(17.7832 -2.45172e-08 -4.35595e-07)
(17.8535 1.95739e-08 -4.5575e-07)
(17.8535 4.36471e-08 -4.55751e-07)
(17.9065 -4.95296e-08 -4.76182e-07)
(17.9065 -2.51604e-08 -4.76183e-07)
(17.9423 1.28485e-08 -4.96619e-07)
(17.9423 3.74931e-08 -4.96619e-07)
(17.9607 -4.20002e-08 -5.17315e-07)
(17.9607 -1.70406e-08 -5.17316e-07)
(17.9618 4.24317e-09 -5.37955e-07)
(17.9618 2.94882e-08 -5.37955e-07)
(17.9458 -3.60349e-08 -5.58759e-07)
(17.9458 -1.0455e-08 -5.5876e-07)
(17.9129 -7.00264e-09 -5.79336e-07)
(17.9129 1.88712e-08 -5.79337e-07)
(17.8633 -2.28677e-08 -6.00173e-07)
(17.8633 3.36298e-09 -6.00174e-07)
(17.7975 -2.18034e-08 -6.20779e-07)
(17.7975 4.73222e-09 -6.2078e-07)
(17.7158 -9.78855e-09 -6.41658e-07)
(17.7158 1.71218e-08 -6.41659e-07)
(17.6189 -3.70787e-08 -6.62319e-07)
(17.6189 -9.85852e-09 -6.6232e-07)
(17.5073 1.00812e-09 -6.83193e-07)
(17.5073 2.8635e-08 -6.83194e-07)
(17.3816 -4.21605e-08 -7.04181e-07)
(17.3816 -1.42284e-08 -7.04182e-07)
(17.2426 -3.03815e-09 -7.25171e-07)
(17.2426 2.53392e-08 -7.25172e-07)
(17.0909 -3.6049e-08 -7.46485e-07)
(17.0909 -7.37563e-09 -7.46486e-07)
(16.9274 -5.72385e-09 -7.68079e-07)
(16.9274 2.34395e-08 -7.6808e-07)
(16.7529 -3.91396e-08 -7.8992e-07)
(16.7529 -9.69738e-09 -7.89921e-07)
(16.5682 -4.13946e-09 -8.12121e-07)
(16.5682 2.5851e-08 -8.12122e-07)
(16.3741 -4.21402e-08 -8.3465e-07)
(16.3741 -1.18988e-08 -8.34651e-07)
(16.1714 -5.22914e-09 -8.57502e-07)
(16.1714 2.56314e-08 -8.57503e-07)
(15.9611 -3.54547e-08 -8.81044e-07)
(15.9611 -4.38191e-09 -8.81044e-07)
(15.744 -1.35454e-08 -9.04971e-07)
(15.744 1.8237e-08 -9.04973e-07)
(15.5208 -3.17626e-08 -9.29512e-07)
(15.5208 1.70858e-10 -9.29513e-07)
(15.2925 -2.19635e-08 -9.5434e-07)
(15.2925 1.07994e-08 -9.54341e-07)
(15.0597 -1.78392e-08 -9.80124e-07)
(15.0597 1.49904e-08 -9.80125e-07)
(14.8232 -3.3653e-08 -1.00641e-06)
(14.8232 1.51059e-10 -1.00641e-06)
(14.5838 -2.17075e-08 -1.03303e-06)
(14.5838 1.20527e-08 -1.03303e-06)
(14.342 -2.01125e-08 -1.06067e-06)
(14.342 1.48161e-08 -1.06067e-06)