/*--------------------------------*- C++ -*----------------------------------*\
| =========                 |                                                 |
| \\      /  F ield         | OpenFOAM: The Open Source CFD Toolbox           |
|  \\    /   O peration     | Version:  2012                                  |
|   \\  /    A nd           | Website:  www.openfoam.com                      |
|    \\/     M anipulation  |                                                 |
\*---------------------------------------------------------------------------*/
FoamFile
{
    version     2.0;
    format      ascii;
    class       volScalarField;
    location    "12600";
    object      nut;
}
// * * * * * * * * * * * * * * * * * * * * * * * * * * * * * * * * * * * * * //

dimensions      [0 2 -1 0 0 0 0];


internalField   nonuniform List<scalar> 
2560
(
1.87144e-09
1.87145e-09
2.41412e-07
2.41413e-07
5.08367e-06
5.08368e-06
3.75704e-05
3.75705e-05
0.000141007
0.000141008
0.000331736
0.000331736
0.000590868
0.000590869
0.000896809
0.000896809
0.00123516
0.00123516
0.00159687
0.00159687
0.00197601
0.00197601
0.00236848
0.00236848
0.00277126
0.00277126
0.00318207
0.00318208
0.00359913
0.00359913
0.00402096
0.00402096
0.00444636
0.00444636
0.00487431
0.00487431
0.00530391
0.00530391
0.00573439
0.00573439
0.00616506
0.00616506
0.00659527
0.00659527
0.00702446
0.00702446
0.00745209
0.00745209
0.00787765
0.00787765
0.00830067
0.00830067
0.00872069
0.00872069
0.00913727
0.00913727
0.00954999
0.00954999
0.00995844
0.00995844
0.0103622
0.0103622
0.0107609
0.0107609
0.0111542
0.0111542
0.0115416
0.0115416
0.0119228
0.0119228
0.0122975
0.0122975
0.0126653
0.0126653
0.0130258
0.0130258
0.0133788
0.0133788
0.013724
0.013724
0.0140611
0.0140611
0.0143899
0.0143899
0.01471
0.01471
0.0150215
0.0150215
0.0153241
0.0153241
0.0156178
0.0156178
0.0159026
0.0159026
0.0161784
0.0161784
0.0164454
0.0164454
0.0167039
0.0167039
0.016954
0.016954
0.0171963
0.0171963
0.0174311
0.0174311
0.0176592
0.0176592
0.0178812
0.0178812
0.0180981
0.0180981
0.018311
0.018311
0.018521
0.018521
0.0187296
0.0187296
0.0189381
0.0189381
0.0191485
0.0191485
0.0193624
0.0193624
0.0195819
0.0195819
0.019809
0.019809
0.020046
0.020046
0.020295
0.020295
0.0205583
0.0205583
0.0208379
0.0208379
0.0211358
0.0211358
0.021454
0.021454
0.0217939
0.0217939
0.0221567
0.0221567
0.0225433
0.0225433
0.0229542
0.0229542
0.0233894
0.0233894
0.0238482
0.0238483
0.02433
0.02433
0.0248332
0.0248332
0.0253562
0.0253562
0.0258969
0.0258969
0.0264531
0.0264531
0.0270223
0.0270223
0.0276019
0.0276019
0.0281893
0.0281893
0.0287817
0.0287817
0.0293767
0.0293767
0.0299717
0.0299717
0.0305644
0.0305644
0.0311527
0.0311527
0.0317344
0.0317344
0.0323079
0.0323079
0.0328715
0.0328715
0.0334239
0.0334239
0.0339639
0.0339639
0.0344904
0.0344904
0.0350027
0.0350027
0.0355001
0.0355001
0.0359822
0.0359822
0.0364485
0.0364485
0.0368989
0.0368989
0.0373332
0.0373332
0.0377514
0.0377514
0.0381536
0.0381536
0.03854
0.03854
0.0389107
0.0389107
0.0392659
0.0392659
0.0396061
0.0396061
0.0399316
0.0399316
0.0402426
0.0402426
0.0405395
0.0405395
0.0408229
0.0408229
0.0410929
0.0410929
0.0413501
0.0413501
0.0415949
0.0415949
0.0418276
0.0418276
0.0420486
0.0420486
0.0422584
0.0422584
0.0424572
0.0424572
0.0426454
0.0426454
0.0428234
0.0428234
0.0429916
0.0429916
0.0431501
0.0431501
0.0432993
0.0432993
0.0434396
0.0434396
0.0435711
0.0435711
0.043694
0.043694
0.0438088
0.0438088
0.0439154
0.0439154
0.0440143
0.0440143
0.0441055
0.0441055
0.0441892
0.0441892
0.0442655
0.0442656
0.0443348
0.0443348
0.044397
0.044397
0.0444524
0.0444524
0.0445011
0.0445011
0.0445431
0.0445431
0.0445787
0.0445787
0.0446079
0.0446079
0.0446309
0.0446309
0.0446477
0.0446477
0.0446585
0.0446585
0.0446634
0.0446634
0.0446624
0.0446624
0.0446557
0.0446557
0.0446433
0.0446433
0.0446254
0.0446254
0.0446021
0.0446021
0.0445736
0.0445736
0.0445399
0.0445399
0.0445011
0.0445011
0.0444575
0.0444575
0.0444092
0.0444092
0.0443564
0.0443564
0.0442993
0.0442993
0.044238
0.044238
0.0441728
0.0441728
0.044104
0.044104
0.0440317
0.0440317
0.0439562
0.0439562
0.0438779
0.0438779
0.0437969
0.0437969
0.0437134
0.0437134
0.0436278
0.0436278
0.0435401
0.0435401
0.0434506
0.0434506
0.0433595
0.0433595
0.0432668
0.0432668
0.0431727
0.0431727
0.0430771
0.0430771
0.0429803
0.0429803
0.0428821
0.0428821
0.0427828
0.0427828
0.0426824
0.0426824
0.042581
0.042581
0.0424788
0.0424788
0.042376
0.042376
0.0422727
0.0422727
0.0421693
0.0421693
0.0420661
0.0420661
0.0419632
0.0419632
0.0418611
0.0418611
0.04176
0.04176
0.0416603
0.0416603
0.0415622
0.0415622
0.0414661
0.0414661
0.0413724
0.0413724
0.0412812
0.0412812
0.041193
0.041193
0.041108
0.041108
0.0410268
0.0410268
0.0409497
0.0409497
0.0408772
0.0408772
0.0408099
0.0408099
0.0407485
0.0407485
0.0406935
0.0406935
0.0406457
0.0406457
0.0406059
0.0406059
0.0405749
0.0405749
0.0405535
0.0405535
0.0405426
0.0405426
0.0405431
0.0405431
0.0405557
0.0405557
0.0405812
0.0405812
0.0406204
0.0406204
0.0406737
0.0406737
0.0407418
0.0407418
0.040825
0.0408251
0.0409237
0.0409237
0.0410382
0.0410382
0.0411686
0.0411687
0.0413154
0.0413154
0.0414786
0.0414786
0.0416582
0.0416583
0.0418543
0.0418543
0.0420664
0.0420665
0.0422942
0.0422942
0.0425367
0.0425368
0.0427932
0.0427932
0.0430622
0.0430622
0.0433422
0.0433423
0.0436318
0.0436319
0.0439295
0.0439296
0.0442338
0.0442339
0.044544
0.0445441
0.0448594
0.0448595
0.0451796
0.0451797
0.0455043
0.0455044
0.0458327
0.0458328
0.046164
0.0461641
0.0464967
0.0464968
0.0468291
0.0468292
0.0471598
0.0471599
0.0474875
0.0474876
0.0478112
0.0478113
0.0481302
0.0481304
0.0484442
0.0484444
0.0487532
0.0487534
0.049058
0.0490581
0.0493597
0.0493599
0.04966
0.0496602
0.0499604
0.0499606
0.0502619
0.0502621
0.0505648
0.050565
0.0508679
0.0508681
0.0511692
0.0511694
0.0514653
0.0514655
0.0517516
0.0517519
0.0520228
0.0520231
0.0522737
0.052274
0.0525008
0.0525011
0.0527034
0.0527036
0.0528838
0.052884
0.0530469
0.0530471
0.0531995
0.0531997
0.0533488
0.053349
0.0535007
0.0535009
0.0536585
0.0536587
0.0538231
0.0538234
0.0539947
0.0539949
0.054174
0.0541742
0.0543647
0.0543649
0.0545722
0.0545724
0.0548034
0.0548036
0.0550644
0.0550647
0.0553607
0.055361
0.0556958
0.0556963
0.0560724
0.0560729
0.0564921
0.0564928
0.0569566
0.0569574
0.0574672
0.0574683
0.0580251
0.0580264
0.0586305
0.0586322
0.0592823
0.0592844
0.059977
0.0599796
0.0607084
0.0607118
0.0614682
0.0614722
0.062245
0.0622496
0.0630254
0.0630303
0.0637955
0.0637996
0.0645479
0.0645498
0.0652734
0.0652723
0.0659562
0.0659529
0.0665727
0.0665685
0.0671048
0.0671007
0.067542
0.0675384
0.0678837
0.0678806
0.0681379
0.0681352
0.0683193
0.0683172
0.0684516
0.06845
0.0685664
0.0685653
0.0686942
0.0686935
0.0688543
0.068854
0.0690514
0.0690515
0.0692869
0.0692871
0.0695625
0.0695629
0.06988
0.0698807
0.0702407
0.0702416
0.070646
0.070647
0.0710969
0.0710982
0.0715917
0.0715935
0.0721235
0.0721258
0.0726801
0.072683
0.0732468
0.0732504
0.0738057
0.0738102
0.0743289
0.0743343
0.0747786
0.0747847
0.0751191
0.0751254
0.075332
0.0753378
0.0754236
0.0754286
0.0754197
0.0754235
0.0753479
0.0753508
0.0752289
0.0752305
0.0750783
0.0750783
0.0749194
0.0749183
0.0747728
0.0747713
0.0746489
0.0746474
0.0745499
0.0745487
0.0744757
0.0744749
0.0744328
0.0744325
1.87145e-09
1.87145e-09
2.41413e-07
2.41412e-07
5.08368e-06
5.08367e-06
3.75705e-05
3.75705e-05
0.000141008
0.000141008
0.000331736
0.000331736
0.000590869
0.000590868
0.000896809
0.000896809
0.00123516
0.00123516
0.00159687
0.00159687
0.00197601
0.00197601
0.00236848
0.00236848
0.00277126
0.00277126
0.00318208
0.00318208
0.00359913
0.00359913
0.00402096
0.00402096
0.00444636
0.00444636
0.00487431
0.00487431
0.00530391
0.00530391
0.00573439
0.00573439
0.00616506
0.00616506
0.00659528
0.00659527
0.00702447
0.00702446
0.00745209
0.00745209
0.00787765
0.00787765
0.00830067
0.00830067
0.00872069
0.00872069
0.00913727
0.00913727
0.00954999
0.00954999
0.00995844
0.00995844
0.0103622
0.0103622
0.0107609
0.0107609
0.0111542
0.0111542
0.0115416
0.0115416
0.0119228
0.0119228
0.0122975
0.0122975
0.0126653
0.0126653
0.0130258
0.0130258
0.0133788
0.0133788
0.013724
0.013724
0.0140611
0.0140611
0.0143899
0.0143899
0.0147101
0.0147101
0.0150215
0.0150215
0.0153241
0.0153241
0.0156178
0.0156178
0.0159026
0.0159026
0.0161784
0.0161784
0.0164454
0.0164454
0.0167039
0.0167039
0.016954
0.016954
0.0171963
0.0171963
0.0174311
0.0174311
0.0176592
0.0176592
0.0178812
0.0178812
0.0180981
0.0180981
0.018311
0.018311
0.018521
0.018521
0.0187296
0.0187296
0.0189381
0.0189381
0.0191485
0.0191485
0.0193624
0.0193624
0.0195819
0.0195819
0.019809
0.019809
0.020046
0.020046
0.020295
0.020295
0.0205583
0.0205583
0.0208379
0.0208379
0.0211358
0.0211358
0.021454
0.021454
0.0217939
0.0217939
0.0221567
0.0221567
0.0225433
0.0225433
0.0229542
0.0229542
0.0233894
0.0233894
0.0238482
0.0238482
0.02433
0.02433
0.0248332
0.0248332
0.0253562
0.0253562
0.0258969
0.0258969
0.0264531
0.0264531
0.0270223
0.0270223
0.0276019
0.0276019
0.0281893
0.0281893
0.0287817
0.0287817
0.0293767
0.0293767
0.0299717
0.0299717
0.0305644
0.0305644
0.0311526
0.0311526
0.0317344
0.0317344
0.0323079
0.0323079
0.0328715
0.0328715
0.0334239
0.0334239
0.0339639
0.0339639
0.0344904
0.0344904
0.0350027
0.0350027
0.0355001
0.0355001
0.0359822
0.0359822
0.0364485
0.0364485
0.0368989
0.0368989
0.0373332
0.0373332
0.0377514
0.0377514
0.0381536
0.0381536
0.03854
0.03854
0.0389106
0.0389106
0.0392659
0.0392659
0.0396061
0.0396061
0.0399315
0.0399315
0.0402426
0.0402426
0.0405395
0.0405395
0.0408228
0.0408228
0.0410929
0.0410929
0.0413501
0.0413501
0.0415949
0.0415949
0.0418276
0.0418276
0.0420486
0.0420486
0.0422584
0.0422584
0.0424572
0.0424572
0.0426454
0.0426454
0.0428234
0.0428234
0.0429916
0.0429916
0.0431501
0.0431501
0.0432993
0.0432993
0.0434396
0.0434396
0.043571
0.043571
0.043694
0.043694
0.0438088
0.0438088
0.0439154
0.0439154
0.0440143
0.0440143
0.0441054
0.0441054
0.0441891
0.0441891
0.0442655
0.0442655
0.0443348
0.0443348
0.044397
0.044397
0.0444524
0.0444524
0.0445011
0.0445011
0.0445431
0.0445431
0.0445787
0.0445787
0.0446079
0.0446079
0.0446309
0.0446309
0.0446477
0.0446477
0.0446585
0.0446585
0.0446634
0.0446634
0.0446624
0.0446624
0.0446556
0.0446556
0.0446433
0.0446433
0.0446254
0.0446254
0.0446021
0.0446021
0.0445736
0.0445736
0.0445399
0.0445399
0.0445011
0.0445011
0.0444575
0.0444575
0.0444092
0.0444092
0.0443564
0.0443564
0.0442993
0.0442993
0.044238
0.044238
0.0441728
0.0441728
0.044104
0.044104
0.0440317
0.0440317
0.0439562
0.0439562
0.0438779
0.0438779
0.0437968
0.0437968
0.0437134
0.0437134
0.0436277
0.0436277
0.0435401
0.0435401
0.0434506
0.0434506
0.0433595
0.0433595
0.0432668
0.0432668
0.0431727
0.0431727
0.0430771
0.0430771
0.0429802
0.0429802
0.0428821
0.0428821
0.0427828
0.0427828
0.0426824
0.0426824
0.042581
0.042581
0.0424788
0.0424788
0.042376
0.042376
0.0422727
0.0422727
0.0421693
0.0421693
0.0420661
0.0420661
0.0419632
0.0419632
0.0418611
0.0418611
0.04176
0.04176
0.0416603
0.0416603
0.0415622
0.0415622
0.0414661
0.0414661
0.0413723
0.0413723
0.0412812
0.0412812
0.0411929
0.0411929
0.041108
0.041108
0.0410268
0.0410268
0.0409496
0.0409496
0.0408772
0.0408772
0.0408099
0.0408099
0.0407484
0.0407484
0.0406934
0.0406934
0.0406456
0.0406456
0.0406058
0.0406058
0.0405748
0.0405748
0.0405534
0.0405534
0.0405425
0.0405425
0.040543
0.040543
0.0405556
0.0405556
0.0405811
0.0405811
0.0406203
0.0406203
0.0406737
0.0406737
0.0407418
0.0407418
0.040825
0.040825
0.0409237
0.0409237
0.0410381
0.0410381
0.0411686
0.0411686
0.0413153
0.0413153
0.0414785
0.0414785
0.0416582
0.0416581
0.0418542
0.0418542
0.0420664
0.0420663
0.0422941
0.0422941
0.0425367
0.0425367
0.0427931
0.0427931
0.0430621
0.0430621
0.0433422
0.0433422
0.0436318
0.0436318
0.0439294
0.0439294
0.0442338
0.0442338
0.044544
0.0445439
0.0448594
0.0448593
0.0451796
0.0451795
0.0455043
0.0455042
0.0458327
0.0458327
0.046164
0.046164
0.0464967
0.0464966
0.0468291
0.0468291
0.0471599
0.0471598
0.0474876
0.0474875
0.0478113
0.0478112
0.0481303
0.0481302
0.0484443
0.0484442
0.0487534
0.0487533
0.0490581
0.049058
0.0493599
0.0493598
0.0496602
0.0496601
0.0499606
0.0499605
0.0502622
0.0502621
0.0505651
0.0505649
0.0508682
0.0508681
0.0511696
0.0511694
0.0514657
0.0514655
0.0517521
0.0517519
0.0520233
0.0520231
0.0522742
0.052274
0.0525013
0.0525011
0.0527039
0.0527037
0.0528843
0.0528841
0.0530474
0.0530473
0.0532
0.0531999
0.0533493
0.0533492
0.0535012
0.053501
0.053659
0.0536588
0.0538236
0.0538235
0.0539951
0.053995
0.0541745
0.0541744
0.0543651
0.054365
0.0545726
0.0545726
0.0548038
0.0548037
0.0550649
0.0550648
0.0553612
0.055361
0.0556964
0.0556962
0.0560731
0.0560728
0.0564929
0.0564926
0.0569576
0.0569571
0.0574684
0.0574678
0.0580266
0.0580258
0.0586323
0.0586313
0.0592845
0.0592831
0.0599797
0.0599779
0.0607118
0.0607095
0.0614723
0.0614694
0.0622497
0.0622463
0.0630304
0.0630267
0.0637998
0.0637968
0.0645502
0.0645492
0.0652728
0.0652746
0.0659536
0.0659573
0.0665694
0.0665736
0.0671016
0.0671055
0.0675393
0.0675426
0.0678814
0.067884
0.0681359
0.068138
0.0683177
0.0683193
0.0684503
0.0684515
0.0685655
0.0685663
0.0686937
0.0686941
0.0688542
0.0688544
0.0690517
0.0690517
0.0692873
0.0692872
0.0695632
0.0695629
0.069881
0.0698807
0.070242
0.0702416
0.0706475
0.070647
0.0710989
0.0710981
0.0715943
0.0715933
0.0721267
0.0721255
0.072684
0.0726825
0.0732516
0.0732496
0.0738114
0.0738088
0.0743355
0.0743323
0.0747855
0.0747819
0.0751259
0.075122
0.0753378
0.075334
0.0754282
0.0754246
0.0754229
0.0754197
0.0753502
0.0753475
0.07523
0.0752281
0.0750779
0.0750771
0.0749181
0.0749183
0.0747712
0.0747718
0.0746473
0.0746481
0.0745487
0.0745493
0.0744749
0.0744751
0.0744326
0.0744326
0.0744318
0.0744316
0.0744727
0.0744719
0.074545
0.0745438
0.0746415
0.0746401
0.074763
0.0747617
0.074907
0.0749061
0.0750628
0.0750629
0.0752104
0.0752119
0.0753244
0.0753273
0.0753889
0.0753926
0.0753859
0.0753907
0.0752893
0.0752949
0.075073
0.075079
0.0747314
0.0747373
0.0742844
0.0742896
0.0737662
0.0737706
0.0732125
0.073216
0.0726504
0.0726531
0.0720979
0.0721001
0.07157
0.0715717
0.0710794
0.0710807
0.0706329
0.0706339
0.070232
0.0702328
0.0698756
0.0698762
0.0695622
0.0695626
0.0692906
0.0692909
0.0690591
0.0690591
0.0688657
0.0688655
0.0687092
0.0687085
0.0685845
0.0685833
0.068473
0.0684713
0.0683438
0.0683416
0.0681639
0.0681612
0.0679094
0.0679062
0.0675656
0.0675618
0.0671245
0.0671202
0.0665885
0.0665842
0.0659692
0.0659658
0.0652847
0.0652836
0.0645584
0.0645602
0.0638052
0.0638092
0.0630341
0.0630389
0.0622528
0.0622574
0.0614749
0.0614788
0.060714
0.0607172
0.0599814
0.059984
0.0592857
0.0592877
0.058633
0.0586346
0.0580268
0.058028
0.0574682
0.0574692
0.0569569
0.0569577
0.0564918
0.0564924
0.0560714
0.0560719
0.0556943
0.0556947
0.0553587
0.055359
0.0550619
0.0550622
0.0548004
0.0548006
0.0545689
0.0545691
0.054361
0.0543611
0.0541703
0.0541705
0.0539911
0.0539913
0.0538195
0.0538197
0.0536545
0.0536547
0.0534961
0.0534963
0.0533435
0.0533437
0.0531932
0.0531934
0.05304
0.0530402
0.0528767
0.0528769
0.052696
0.0526963
0.0524929
0.0524932
0.052265
0.0522653
0.0520135
0.0520138
0.0517422
0.0517425
0.0514562
0.0514565
0.0511609
0.0511611
0.0508608
0.050861
0.050559
0.0505592
0.0502574
0.0502576
0.0499566
0.0499568
0.0496564
0.0496566
0.049356
0.0493561
0.049054
0.0490541
0.0487489
0.0487491
0.0484396
0.0484398
0.0481254
0.0481256
0.0478062
0.0478064
0.0474825
0.0474826
0.047155
0.0471551
0.0468244
0.0468245
0.0464921
0.0464923
0.0461599
0.04616
0.0458291
0.0458292
0.0455013
0.0455014
0.0451774
0.0451775
0.0448581
0.0448582
0.0445433
0.0445434
0.0442336
0.0442337
0.0439296
0.0439297
0.0436322
0.0436323
0.0433428
0.0433428
0.0430629
0.043063
0.0427942
0.0427942
0.0425379
0.042538
0.0422955
0.0422955
0.0420677
0.0420678
0.0418554
0.0418555
0.0416592
0.0416592
0.0414793
0.0414794
0.041316
0.041316
0.041169
0.0411691
0.0410385
0.0410385
0.040924
0.040924
0.0408254
0.0408254
0.0407422
0.0407422
0.0406742
0.0406742
0.0406209
0.0406209
0.0405818
0.0405818
0.0405564
0.0405564
0.0405439
0.0405439
0.0405435
0.0405435
0.0405544
0.0405544
0.0405758
0.0405758
0.0406069
0.0406069
0.0406467
0.0406467
0.0406945
0.0406945
0.0407495
0.0407495
0.040811
0.040811
0.0408783
0.0408783
0.0409508
0.0409508
0.0410279
0.0410279
0.0411092
0.0411092
0.0411942
0.0411942
0.0412824
0.0412824
0.0413736
0.0413736
0.0414673
0.0414673
0.0415634
0.0415634
0.0416614
0.0416614
0.0417612
0.0417612
0.0418623
0.0418623
0.0419644
0.0419644
0.0420673
0.0420673
0.0421705
0.0421705
0.0422739
0.0422739
0.0423772
0.0423772
0.0424801
0.0424801
0.0425823
0.0425823
0.0426837
0.0426837
0.0427841
0.0427841
0.0428834
0.0428834
0.0429816
0.0429816
0.0430785
0.0430785
0.0431741
0.0431741
0.0432683
0.0432683
0.043361
0.043361
0.0434522
0.0434522
0.0435417
0.0435417
0.0436293
0.0436293
0.043715
0.043715
0.0437985
0.0437985
0.0438795
0.0438795
0.0439579
0.0439579
0.0440333
0.0440333
0.0441056
0.0441056
0.0441745
0.0441745
0.0442397
0.0442397
0.044301
0.044301
0.0443582
0.0443582
0.044411
0.044411
0.0444593
0.0444593
0.044503
0.044503
0.0445417
0.0445417
0.0445755
0.0445755
0.0446041
0.0446041
0.0446274
0.0446274
0.0446453
0.0446453
0.0446577
0.0446577
0.0446645
0.0446645
0.0446655
0.0446655
0.0446608
0.0446608
0.04465
0.04465
0.0446333
0.0446333
0.0446104
0.0446104
0.0445813
0.0445813
0.0445458
0.0445458
0.0445038
0.0445038
0.0444552
0.0444552
0.0443998
0.0443998
0.0443376
0.0443376
0.0442684
0.0442684
0.044192
0.044192
0.0441084
0.0441084
0.0440173
0.0440173
0.0439185
0.0439185
0.0438119
0.0438119
0.0436972
0.0436972
0.0435742
0.0435742
0.0434427
0.0434427
0.0433025
0.0433025
0.0431532
0.0431532
0.0429946
0.0429946
0.0428265
0.0428265
0.0426484
0.0426484
0.0424601
0.0424601
0.0422612
0.0422612
0.0420513
0.0420513
0.0418301
0.0418301
0.0415973
0.0415973
0.0413525
0.0413525
0.0410953
0.0410953
0.0408252
0.0408252
0.0405419
0.0405419
0.0402449
0.0402449
0.0399339
0.0399339
0.0396085
0.0396085
0.0392684
0.0392684
0.0389131
0.0389131
0.0385424
0.0385424
0.038156
0.038156
0.0377538
0.0377538
0.0373356
0.0373356
0.0369013
0.0369013
0.036451
0.036451
0.0359848
0.0359848
0.0355028
0.0355028
0.0350055
0.0350055
0.0344932
0.0344932
0.0339666
0.0339666
0.0334265
0.0334265
0.0328739
0.0328739
0.0323099
0.0323099
0.031736
0.031736
0.031154
0.031154
0.0305656
0.0305656
0.0299727
0.0299727
0.0293776
0.0293776
0.0287824
0.0287824
0.0281897
0.0281897
0.0276021
0.0276021
0.0270222
0.0270222
0.0264528
0.0264528
0.0258963
0.0258963
0.0253552
0.0253553
0.024832
0.024832
0.0243286
0.0243286
0.0238467
0.0238467
0.0233876
0.0233876
0.0229522
0.0229522
0.0225412
0.0225412
0.0221543
0.0221543
0.0217913
0.0217913
0.0214513
0.0214513
0.0211329
0.0211329
0.0208348
0.0208348
0.0205551
0.0205551
0.0202918
0.0202918
0.0200427
0.0200427
0.0198057
0.0198057
0.0195785
0.0195785
0.0193589
0.0193589
0.0191449
0.0191449
0.0189345
0.0189345
0.0187259
0.0187259
0.0185173
0.0185173
0.0183074
0.0183074
0.0180946
0.0180946
0.0178777
0.0178777
0.0176558
0.0176558
0.0174278
0.0174278
0.0171932
0.0171932
0.0169511
0.0169511
0.016701
0.016701
0.0164427
0.0164427
0.0161758
0.0161758
0.0159001
0.0159001
0.0156155
0.0156155
0.015322
0.015322
0.0150195
0.0150195
0.0147082
0.0147082
0.0143881
0.0143881
0.0140595
0.0140595
0.0137225
0.0137225
0.0133774
0.0133774
0.0130245
0.0130245
0.012664
0.012664
0.0122963
0.0122963
0.0119217
0.0119217
0.0115406
0.0115406
0.0111532
0.0111532
0.0107601
0.0107601
0.0103614
0.0103614
0.00995768
0.00995769
0.0095493
0.0095493
0.00913665
0.00913665
0.00872014
0.00872014
0.00830018
0.00830018
0.00787723
0.00787723
0.00745172
0.00745172
0.00702414
0.00702414
0.00659499
0.00659499
0.00616481
0.00616481
0.00573417
0.00573418
0.00530372
0.00530372
0.00487415
0.00487415
0.00444623
0.00444623
0.00402085
0.00402085
0.00359904
0.00359904
0.00318201
0.00318201
0.00277121
0.00277121
0.00236844
0.00236844
0.00197599
0.00197599
0.00159686
0.00159686
0.00123515
0.00123515
0.000896809
0.000896809
0.000590871
0.000590871
0.000331739
0.000331739
0.00014101
0.00014101
3.75711e-05
3.75712e-05
5.08377e-06
5.08378e-06
2.41416e-07
2.41417e-07
1.87152e-09
1.87152e-09
0.0744317
0.0744319
0.0744722
0.074473
0.0745441
0.0745455
0.0746405
0.074642
0.0747621
0.0747636
0.0749067
0.0749077
0.0750635
0.0750634
0.0752127
0.0752108
0.0753279
0.0753246
0.0753931
0.0753888
0.0753908
0.0753854
0.0752946
0.0752882
0.0750782
0.0750714
0.074736
0.0747294
0.0742881
0.0742822
0.073769
0.073764
0.0732144
0.0732104
0.0726517
0.0726485
0.0720988
0.0720963
0.0715707
0.0715688
0.07108
0.0710784
0.0706334
0.0706322
0.0702325
0.0702316
0.069876
0.0698753
0.0695625
0.069562
0.0692909
0.0692906
0.0690593
0.0690593
0.0688658
0.0688661
0.068709
0.0687097
0.0685839
0.0685852
0.0684719
0.0684738
0.0683421
0.0683445
0.0681615
0.0681644
0.0679063
0.0679097
0.0675616
0.0675656
0.0671198
0.0671241
0.0665836
0.0665878
0.0659651
0.0659683
0.0652827
0.0652836
0.0645593
0.0645571
0.0638082
0.0638038
0.0630379
0.0630327
0.0622564
0.0622514
0.0614779
0.0614736
0.0607163
0.0607128
0.0599832
0.0599804
0.059287
0.0592848
0.058634
0.0586322
0.0580276
0.0580262
0.0574688
0.0574677
0.0569574
0.0569565
0.0564922
0.0564915
0.0560718
0.0560712
0.0556946
0.0556942
0.0553589
0.0553586
0.0550622
0.0550619
0.0548007
0.0548005
0.0545692
0.054569
0.0543613
0.0543611
0.0541707
0.0541704
0.0539915
0.0539912
0.0538199
0.0538196
0.0536549
0.0536546
0.0534965
0.0534963
0.0533438
0.0533436
0.0531936
0.0531933
0.0530403
0.0530401
0.052877
0.0528767
0.0526964
0.0526961
0.0524932
0.0524929
0.0522652
0.0522649
0.0520138
0.0520134
0.0517424
0.0517421
0.0514564
0.051456
0.051161
0.0511607
0.0508609
0.0508606
0.0505591
0.0505588
0.0502574
0.0502571
0.0499565
0.0499563
0.0496563
0.0496561
0.0493559
0.0493557
0.0490539
0.0490537
0.0487488
0.0487486
0.0484395
0.0484393
0.0481253
0.0481251
0.0478061
0.0478059
0.0474823
0.0474822
0.0471548
0.0471546
0.0468242
0.0468241
0.0464919
0.0464918
0.0461597
0.0461595
0.0458289
0.0458288
0.0455011
0.0455009
0.0451772
0.0451771
0.0448579
0.0448578
0.0445431
0.044543
0.0442334
0.0442333
0.0439294
0.0439293
0.043632
0.0436319
0.0433426
0.0433425
0.0430627
0.0430626
0.042794
0.0427939
0.0425378
0.0425377
0.0422953
0.0422952
0.0420676
0.0420675
0.0418553
0.0418552
0.041659
0.041659
0.0414792
0.0414791
0.0413158
0.0413158
0.0411689
0.0411689
0.0410384
0.0410383
0.0409239
0.0409239
0.0408253
0.0408252
0.0407421
0.0407421
0.0406741
0.0406741
0.0406208
0.0406208
0.0405817
0.0405817
0.0405563
0.0405563
0.0405438
0.0405438
0.0405434
0.0405434
0.0405544
0.0405544
0.0405758
0.0405758
0.0406068
0.0406068
0.0406466
0.0406466
0.0406945
0.0406945
0.0407495
0.0407495
0.040811
0.040811
0.0408782
0.0408783
0.0409507
0.0409508
0.0410279
0.0410279
0.0411092
0.0411092
0.0411942
0.0411942
0.0412824
0.0412824
0.0413735
0.0413735
0.0414673
0.0414673
0.0415634
0.0415634
0.0416614
0.0416614
0.0417611
0.0417611
0.0418622
0.0418622
0.0419644
0.0419644
0.0420672
0.0420672
0.0421705
0.0421705
0.0422739
0.0422739
0.0423772
0.0423772
0.04248
0.04248
0.0425823
0.0425823
0.0426837
0.0426837
0.0427841
0.0427841
0.0428834
0.0428834
0.0429816
0.0429816
0.0430785
0.0430785
0.0431741
0.0431741
0.0432683
0.0432683
0.043361
0.043361
0.0434522
0.0434522
0.0435417
0.0435417
0.0436293
0.0436293
0.043715
0.043715
0.0437985
0.0437985
0.0438795
0.0438795
0.0439579
0.0439579
0.0440333
0.0440333
0.0441056
0.0441056
0.0441745
0.0441745
0.0442397
0.0442397
0.044301
0.044301
0.0443582
0.0443582
0.044411
0.044411
0.0444593
0.0444593
0.0445029
0.0445029
0.0445417
0.0445417
0.0445755
0.0445755
0.0446041
0.0446041
0.0446274
0.0446274
0.0446453
0.0446453
0.0446577
0.0446577
0.0446645
0.0446645
0.0446655
0.0446655
0.0446607
0.0446607
0.04465
0.04465
0.0446333
0.0446333
0.0446104
0.0446104
0.0445813
0.0445813
0.0445458
0.0445458
0.0445038
0.0445038
0.0444552
0.0444552
0.0443998
0.0443998
0.0443376
0.0443376
0.0442684
0.0442684
0.044192
0.044192
0.0441084
0.0441084
0.0440173
0.0440173
0.0439185
0.0439185
0.0438119
0.0438119
0.0436972
0.0436972
0.0435742
0.0435742
0.0434427
0.0434427
0.0433025
0.0433025
0.0431532
0.0431532
0.0429946
0.0429946
0.0428265
0.0428265
0.0426484
0.0426484
0.0424601
0.0424601
0.0422612
0.0422612
0.0420513
0.0420513
0.0418301
0.0418301
0.0415973
0.0415973
0.0413525
0.0413525
0.0410953
0.0410953
0.0408252
0.0408252
0.0405419
0.0405419
0.0402449
0.0402449
0.0399339
0.0399339
0.0396085
0.0396085
0.0392684
0.0392684
0.0389131
0.0389131
0.0385424
0.0385423
0.038156
0.038156
0.0377538
0.0377538
0.0373356
0.0373356
0.0369013
0.0369013
0.036451
0.036451
0.0359848
0.0359848
0.0355028
0.0355028
0.0350055
0.0350055
0.0344932
0.0344932
0.0339666
0.0339666
0.0334265
0.0334265
0.0328739
0.0328739
0.0323099
0.0323099
0.031736
0.031736
0.031154
0.031154
0.0305656
0.0305656
0.0299727
0.0299727
0.0293776
0.0293775
0.0287824
0.0287824
0.0281897
0.0281897
0.0276021
0.0276021
0.0270222
0.0270222
0.0264527
0.0264527
0.0258963
0.0258962
0.0253552
0.0253552
0.024832
0.024832
0.0243286
0.0243286
0.0238467
0.0238467
0.0233876
0.0233876
0.0229522
0.0229522
0.0225412
0.0225411
0.0221543
0.0221543
0.0217913
0.0217913
0.0214513
0.0214512
0.0211329
0.0211329
0.0208348
0.0208348
0.0205551
0.0205551
0.0202918
0.0202918
0.0200427
0.0200427
0.0198057
0.0198057
0.0195785
0.0195785
0.0193589
0.0193589
0.0191449
0.0191449
0.0189345
0.0189345
0.0187259
0.0187259
0.0185174
0.0185174
0.0183074
0.0183074
0.0180946
0.0180946
0.0178777
0.0178777
0.0176558
0.0176558
0.0174279
0.0174279
0.0171932
0.0171932
0.0169511
0.0169511
0.016701
0.016701
0.0164427
0.0164427
0.0161758
0.0161758
0.0159001
0.0159001
0.0156155
0.0156155
0.015322
0.015322
0.0150195
0.0150195
0.0147082
0.0147082
0.0143881
0.0143881
0.0140595
0.0140595
0.0137225
0.0137225
0.0133774
0.0133774
0.0130245
0.0130245
0.012664
0.012664
0.0122963
0.0122963
0.0119217
0.0119217
0.0115406
0.0115406
0.0111532
0.0111532
0.0107601
0.0107601
0.0103614
0.0103614
0.00995769
0.00995769
0.0095493
0.0095493
0.00913665
0.00913665
0.00872014
0.00872014
0.00830018
0.00830018
0.00787723
0.00787723
0.00745172
0.00745172
0.00702414
0.00702414
0.00659499
0.00659499
0.00616481
0.00616481
0.00573418
0.00573417
0.00530372
0.00530372
0.00487415
0.00487415
0.00444623
0.00444623
0.00402085
0.00402085
0.00359904
0.00359904
0.00318201
0.00318201
0.00277121
0.00277121
0.00236844
0.00236844
0.00197599
0.00197599
0.00159686
0.00159686
0.00123515
0.00123515
0.000896809
0.000896809
0.000590871
0.00059087
0.000331739
0.000331738
0.00014101
0.00014101
3.75712e-05
3.75711e-05
5.08378e-06
5.08376e-06
2.41417e-07
2.41416e-07
1.87152e-09
1.87152e-09
)
;

boundaryField
{
    walls
    {
        type            nutUWallFunction;
        blending        stepwise;
        Cmu             0.09;
        kappa           0.41;
        E               9.8;
        value           uniform 0;
    }
    inlet
    {
        type            cyclic;
    }
    outlet
    {
        type            cyclic;
    }
    sides
    {
        type            empty;
    }
}


// ************************************************************************* //
