/*--------------------------------*- C++ -*----------------------------------*\
| =========                 |                                                 |
| \\      /  F ield         | OpenFOAM: The Open Source CFD Toolbox           |
|  \\    /   O peration     | Version:  2012                                  |
|   \\  /    A nd           | Website:  www.openfoam.com                      |
|    \\/     M anipulation  |                                                 |
\*---------------------------------------------------------------------------*/
FoamFile
{
    version     2.0;
    format      ascii;
    class       volScalarField;
    location    "12600";
    object      omega;
}
// * * * * * * * * * * * * * * * * * * * * * * * * * * * * * * * * * * * * * //

dimensions      [0 0 -1 0 0 0 0];


internalField   nonuniform List<scalar> 
2560
(
1.52416e+06
1.52416e+06
264951
264951
89070.3
89070.2
41208.5
41208.5
23463.8
23463.8
15785.6
15785.6
11932.9
11932.9
9712.28
9712.28
8288.4
8288.4
7302
7301.99
6578.92
6578.92
6025.95
6025.95
5588.99
5588.99
5234.66
5234.66
4941.22
4941.22
4693.95
4693.95
4482.49
4482.49
4299.35
4299.35
4138.99
4138.99
3997.18
3997.18
3870.68
3870.67
3756.91
3756.91
3653.83
3653.83
3559.79
3559.79
3473.42
3473.42
3393.6
3393.6
3319.39
3319.39
3249.98
3249.98
3184.69
3184.69
3122.94
3122.94
3064.22
3064.22
3008.09
3008.09
2954.15
2954.15
2902.07
2902.07
2851.54
2851.54
2802.29
2802.29
2754.09
2754.09
2706.73
2706.73
2660.02
2660.02
2613.8
2613.8
2567.92
2567.92
2522.26
2522.26
2476.71
2476.71
2431.19
2431.19
2385.63
2385.63
2339.96
2339.96
2294.14
2294.14
2248.16
2248.16
2201.99
2201.99
2155.65
2155.65
2109.15
2109.15
2062.53
2062.53
2015.82
2015.82
1969.1
1969.1
1922.42
1922.42
1875.87
1875.87
1829.56
1829.55
1783.56
1783.56
1738.01
1738.01
1693.01
1693.01
1648.69
1648.69
1605.17
1605.17
1562.57
1562.57
1521.03
1521.03
1480.66
1480.66
1441.57
1441.57
1403.87
1403.87
1367.64
1367.64
1332.96
1332.96
1299.9
1299.9
1268.48
1268.48
1238.74
1238.74
1210.66
1210.66
1184.24
1184.24
1159.44
1159.44
1136.19
1136.19
1114.42
1114.42
1094.05
1094.05
1074.98
1074.98
1057.1
1057.1
1040.29
1040.29
1024.46
1024.46
1009.47
1009.47
995.231
995.23
981.623
981.623
968.55
968.55
955.915
955.915
943.634
943.634
931.627
931.627
919.826
919.826
908.169
908.169
896.605
896.605
885.089
885.089
873.584
873.584
862.062
862.062
850.499
850.499
838.878
838.878
827.187
827.187
815.42
815.42
803.573
803.573
791.646
791.646
779.643
779.643
767.569
767.569
755.431
755.431
743.238
743.238
731.001
731.001
718.73
718.73
706.437
706.437
694.133
694.133
681.831
681.831
669.542
669.542
657.278
657.278
645.051
645.051
632.87
632.87
620.748
620.748
608.693
608.693
596.715
596.715
584.823
584.823
573.025
573.025
561.329
561.329
549.741
549.741
538.269
538.269
526.918
526.918
515.693
515.693
504.599
504.599
493.641
493.64
482.821
482.821
472.143
472.143
461.611
461.611
451.226
451.226
440.991
440.991
430.907
430.907
420.976
420.976
411.199
411.199
401.577
401.577
392.11
392.11
382.799
382.799
373.645
373.645
364.646
364.646
355.804
355.804
347.118
347.118
338.587
338.587
330.211
330.211
321.99
321.989
313.921
313.921
306.006
306.006
298.242
298.242
290.629
290.629
283.165
283.165
275.851
275.851
268.684
268.684
261.665
261.664
254.79
254.79
248.061
248.061
241.475
241.475
235.031
235.031
228.729
228.729
222.567
222.567
216.544
216.544
210.658
210.658
204.91
204.91
199.296
199.296
193.816
193.816
188.468
188.468
183.25
183.249
178.159
178.159
173.195
173.195
168.354
168.354
163.634
163.634
159.033
159.032
154.547
154.547
150.176
150.175
145.915
145.915
141.763
141.763
137.718
137.718
133.777
133.777
129.939
129.939
126.202
126.202
122.563
122.563
119.021
119.021
115.575
115.575
112.222
112.222
108.962
108.961
105.791
105.791
102.709
102.709
99.7129
99.7128
96.8019
96.8017
93.9738
93.9737
91.2269
91.2267
88.5593
88.5592
85.9695
85.9693
83.4558
83.4557
81.0169
81.0167
78.6513
78.6511
76.3577
76.3576
74.135
74.1349
71.982
71.9818
69.8975
69.8974
67.8806
67.8804
65.93
65.9299
64.0448
64.0447
62.2239
62.2237
60.4659
60.4658
58.7698
58.7696
57.1339
57.1338
55.5569
55.5568
54.0371
54.037
52.5729
52.5728
51.1625
51.1623
49.8042
49.8041
48.4964
48.4962
47.2374
47.2373
46.0257
46.0255
44.8595
44.8594
43.7372
43.7371
42.6569
42.6568
41.6167
41.6165
40.6143
40.6142
39.6477
39.6475
38.7144
38.7142
37.812
37.8119
36.9382
36.9381
36.0909
36.0907
35.2681
35.268
34.4685
34.4683
33.691
33.6908
32.9347
32.9345
32.1988
32.1987
31.4825
31.4823
30.7844
30.7843
30.1033
30.1031
29.4375
29.4373
28.7858
28.7856
28.147
28.1469
27.5204
27.5202
26.9052
26.905
26.301
26.3009
25.7078
25.7076
25.1256
25.1254
24.555
24.5548
23.9966
23.9964
23.451
23.4508
22.9184
22.9183
22.3987
22.3985
21.891
21.8909
21.3942
21.394
20.9065
20.9063
20.4257
20.4256
19.9496
19.9494
19.4758
19.4757
19.0032
19.003
18.5316
18.5314
18.0619
18.0617
17.5962
17.5959
17.1367
17.1364
16.6858
16.6855
16.2453
16.245
15.8159
15.8156
15.3976
15.3973
14.9899
14.9896
14.5927
14.5924
14.2066
14.2063
13.8329
13.8326
13.4728
13.4724
13.1274
13.1271
12.7976
12.7973
12.4837
12.4834
12.1856
12.1854
11.9034
11.9032
11.6369
11.6367
11.3859
11.3857
11.1503
11.1502
10.9298
10.9297
10.724
10.724
10.5319
10.532
10.3522
10.3524
10.1833
10.1836
10.0231
10.0235
9.86919
9.86968
9.71924
9.71961
9.57205
9.57207
9.42617
9.42572
9.27921
9.27843
9.12764
9.12672
8.96894
8.96804
8.80184
8.80101
8.62657
8.62583
8.44462
8.44396
8.25835
8.25776
8.07112
8.07061
7.88717
7.88673
7.71026
7.70989
7.54262
7.5423
7.38458
7.3843
7.23609
7.23583
7.09719
7.09695
6.96792
6.9677
6.8483
6.8481
6.73838
6.73821
6.63823
6.63809
6.54766
6.54756
6.466
6.46595
6.39213
6.39213
6.32475
6.32481
6.26229
6.26244
6.20235
6.20258
6.14165
6.14194
6.07724
6.07754
6.00774
6.008
5.93404
5.93424
5.8587
5.8588
5.78433
5.78438
5.71294
5.71291
5.64604
5.6459
5.58572
5.58553
5.53383
5.53363
5.49134
5.49117
5.45862
5.45849
5.43589
5.43581
5.42392
5.42388
1.52416e+06
1.52416e+06
264951
264951
89070.2
89070.2
41208.5
41208.5
23463.8
23463.8
15785.6
15785.6
11932.9
11932.9
9712.28
9712.28
8288.4
8288.4
7301.99
7301.99
6578.92
6578.92
6025.94
6025.95
5588.99
5588.99
5234.66
5234.66
4941.22
4941.22
4693.95
4693.95
4482.48
4482.49
4299.35
4299.35
4138.99
4138.99
3997.18
3997.18
3870.67
3870.67
3756.91
3756.91
3653.83
3653.83
3559.79
3559.79
3473.42
3473.42
3393.6
3393.6
3319.39
3319.39
3249.98
3249.98
3184.69
3184.69
3122.94
3122.94
3064.22
3064.22
3008.09
3008.09
2954.15
2954.15
2902.07
2902.07
2851.54
2851.54
2802.29
2802.29
2754.09
2754.09
2706.73
2706.73
2660.02
2660.02
2613.8
2613.8
2567.92
2567.92
2522.26
2522.26
2476.71
2476.71
2431.19
2431.19
2385.63
2385.63
2339.96
2339.96
2294.14
2294.14
2248.16
2248.16
2201.99
2201.99
2155.65
2155.65
2109.15
2109.15
2062.53
2062.53
2015.82
2015.82
1969.1
1969.1
1922.42
1922.42
1875.87
1875.87
1829.56
1829.56
1783.56
1783.56
1738.01
1738.01
1693.01
1693.01
1648.69
1648.69
1605.17
1605.17
1562.57
1562.57
1521.03
1521.03
1480.66
1480.66
1441.57
1441.57
1403.87
1403.87
1367.64
1367.64
1332.96
1332.96
1299.9
1299.9
1268.48
1268.48
1238.74
1238.74
1210.66
1210.66
1184.24
1184.25
1159.44
1159.44
1136.19
1136.19
1114.42
1114.42
1094.05
1094.05
1074.98
1074.98
1057.1
1057.1
1040.29
1040.29
1024.46
1024.46
1009.47
1009.47
995.23
995.23
981.623
981.623
968.55
968.55
955.915
955.915
943.634
943.634
931.627
931.627
919.826
919.826
908.169
908.169
896.605
896.605
885.088
885.088
873.584
873.584
862.062
862.062
850.498
850.498
838.878
838.878
827.187
827.187
815.42
815.42
803.573
803.573
791.646
791.646
779.643
779.643
767.569
767.569
755.431
755.431
743.238
743.238
731.001
731.001
718.73
718.73
706.437
706.437
694.133
694.133
681.831
681.831
669.542
669.542
657.278
657.278
645.051
645.051
632.87
632.87
620.748
620.748
608.693
608.693
596.715
596.715
584.823
584.823
573.025
573.025
561.329
561.329
549.741
549.741
538.269
538.269
526.918
526.918
515.693
515.693
504.599
504.599
493.64
493.64
482.821
482.821
472.143
472.143
461.611
461.611
451.226
451.226
440.991
440.991
430.907
430.907
420.976
420.976
411.199
411.199
401.577
401.577
392.11
392.11
382.799
382.799
373.645
373.645
364.646
364.646
355.804
355.804
347.118
347.118
338.587
338.587
330.211
330.211
321.989
321.989
313.921
313.921
306.005
306.006
298.242
298.242
290.629
290.629
283.165
283.165
275.851
275.851
268.684
268.684
261.664
261.664
254.79
254.79
248.061
248.061
241.475
241.475
235.031
235.031
228.729
228.729
222.567
222.567
216.544
216.544
210.658
210.658
204.91
204.91
199.296
199.296
193.816
193.816
188.468
188.468
183.249
183.249
178.159
178.159
173.195
173.195
168.354
168.354
163.634
163.634
159.032
159.032
154.547
154.547
150.175
150.175
145.915
145.915
141.763
141.763
137.718
137.718
133.777
133.777
129.939
129.939
126.201
126.202
122.563
122.563
119.021
119.021
115.575
115.575
112.222
112.222
108.961
108.961
105.791
105.791
102.708
102.708
99.7126
99.7127
96.8016
96.8017
93.9735
93.9736
91.2266
91.2267
88.559
88.5591
85.9692
85.9693
83.4555
83.4556
81.0166
81.0167
78.651
78.6511
76.3574
76.3575
74.1347
74.1348
71.9817
71.9818
69.8972
69.8973
67.8802
67.8803
65.9297
65.9298
64.0445
64.0446
62.2235
62.2236
60.4656
60.4657
58.7694
58.7695
57.1336
57.1336
55.5566
55.5566
54.0368
54.0369
52.5725
52.5726
51.1621
51.1622
49.8038
49.8039
48.496
48.4961
47.237
47.2371
46.0253
46.0254
44.8591
44.8592
43.7368
43.7369
42.6565
42.6566
41.6163
41.6164
40.6139
40.614
39.6473
39.6474
38.714
38.7141
37.8116
37.8117
36.9378
36.9379
36.0905
36.0906
35.2677
35.2678
34.4681
34.4682
33.6906
33.6907
32.9343
32.9344
32.1985
32.1985
31.4821
31.4822
30.7841
30.7841
30.1029
30.103
29.4371
29.4372
28.7854
28.7855
28.1467
28.1468
27.52
27.5201
26.9048
26.9049
26.3007
26.3008
25.7074
25.7075
25.1252
25.1253
24.5547
24.5547
23.9963
23.9964
23.4507
23.4508
22.9181
22.9182
22.3984
22.3985
21.8908
21.8908
21.3939
21.394
20.9062
20.9063
20.4255
20.4256
19.9493
19.9494
19.4756
19.4757
19.003
19.0031
18.5313
18.5314
18.0617
18.0618
17.5959
17.596
17.1364
17.1365
16.6855
16.6856
16.245
16.2451
15.8156
15.8157
15.3973
15.3974
14.9895
14.9897
14.5923
14.5925
14.2063
14.2064
13.8325
13.8327
13.4724
13.4725
13.127
13.1272
12.7972
12.7974
12.4833
12.4835
12.1853
12.1854
11.9031
11.9032
11.6366
11.6367
11.3856
11.3857
11.1501
11.1501
10.9297
10.9297
10.7239
10.7239
10.5319
10.5318
10.3524
10.3521
10.1836
10.1832
10.0235
10.023
9.86961
9.86914
9.71956
9.71919
9.57204
9.57199
9.42572
9.4261
9.27845
9.27913
9.12677
9.12754
8.96809
8.96882
8.80106
8.80169
8.62586
8.62639
8.44397
8.44442
8.25775
8.25812
8.07058
8.07089
7.88668
7.88694
7.70984
7.71004
7.54225
7.54242
7.38425
7.3844
7.23579
7.23592
7.09691
7.09703
6.96767
6.96778
6.84808
6.84818
6.73819
6.73828
6.63809
6.63816
6.54758
6.54763
6.46598
6.466
6.39218
6.39217
6.32487
6.32482
6.26251
6.26241
6.20264
6.20249
6.14199
6.14179
6.07755
6.07734
6.00798
6.00777
5.93419
5.934
5.85873
5.85857
5.78431
5.78418
5.71285
5.71276
5.64586
5.64584
5.58549
5.58555
5.5336
5.53368
5.49114
5.49122
5.45848
5.45853
5.4358
5.43582
5.42389
5.42389
5.42387
5.42383
5.43573
5.43565
5.45836
5.45824
5.49093
5.49076
5.53326
5.53308
5.58499
5.58482
5.64509
5.64497
5.71178
5.71175
5.78279
5.78284
5.85656
5.85667
5.93135
5.93154
6.00463
6.00489
6.07385
6.07414
6.13819
6.13846
6.19913
6.19935
6.25952
6.25967
6.32243
6.3225
6.39021
6.39021
6.46442
6.46437
6.54641
6.54631
6.63733
6.63719
6.73784
6.73768
6.84812
6.84794
6.9681
6.96789
7.09772
7.09749
7.23697
7.23672
7.38579
7.38552
7.54416
7.54385
7.71212
7.71176
7.88929
7.88887
8.07356
8.07306
8.26108
8.2605
8.44746
8.4468
8.62928
8.62853
8.80416
8.80333
8.97064
8.96973
9.12872
9.1278
9.27984
9.27906
9.42653
9.4261
9.57227
9.5723
9.71933
9.71971
9.86914
9.86963
10.0229
10.0233
10.1829
10.1833
10.3517
10.3519
10.5312
10.5313
10.7231
10.7231
10.9288
10.9287
11.1492
11.149
11.3847
11.3845
11.6356
11.6354
11.902
11.9018
12.1842
12.1839
12.4821
12.4818
12.7959
12.7957
13.1257
13.1254
13.471
13.4707
13.831
13.8307
14.2047
14.2044
14.5908
14.5905
14.9881
14.9878
15.3958
15.3955
15.8141
15.8138
16.2433
16.243
16.6836
16.6833
17.1341
17.1339
17.5935
17.5932
18.0592
18.059
18.5288
18.5286
19.0002
19
19.4725
19.4723
19.946
19.9459
20.4222
20.422
20.9031
20.903
21.3912
21.391
21.8886
21.8884
22.3968
22.3967
22.9171
22.917
23.45
23.4499
23.9957
23.9955
24.554
24.5538
25.1244
25.1242
25.7063
25.7062
26.2994
26.2993
26.9034
26.9033
27.5185
27.5183
28.1451
28.1449
28.7839
28.7838
29.4357
29.4355
30.1015
30.1014
30.7829
30.7828
31.4813
31.4812
32.1981
32.198
32.9345
32.9344
33.6914
33.6912
34.4693
34.4692
35.2692
35.2691
36.0922
36.0921
36.9397
36.9395
37.8135
37.8134
38.716
38.7158
39.6494
39.6493
40.6161
40.616
41.6185
41.6183
42.6587
42.6585
43.7387
43.7385
44.8607
44.8605
46.0265
46.0264
47.2379
47.2378
48.4966
48.4965
49.8043
49.8041
51.1625
51.1623
52.5729
52.5727
54.0371
54.037
55.5569
55.5568
57.134
57.1338
58.7699
58.7697
60.4662
60.466
62.2242
62.224
64.0452
64.0451
65.9305
65.9303
67.881
67.8808
69.8979
69.8977
71.9824
71.9822
74.1354
74.1353
76.3581
76.358
78.6516
78.6515
81.0172
81.017
83.4561
83.456
85.9698
85.9696
88.5597
88.5595
91.2272
91.2271
93.9741
93.974
96.802
96.8019
99.7129
99.7128
102.709
102.708
105.791
105.791
108.961
108.961
112.222
112.222
115.575
115.575
119.021
119.021
122.562
122.562
126.201
126.201
129.939
129.938
133.777
133.777
137.717
137.717
141.762
141.762
145.914
145.914
150.175
150.175
154.546
154.546
159.032
159.031
163.633
163.633
168.353
168.353
173.194
173.194
178.158
178.158
183.249
183.249
188.467
188.467
193.815
193.815
199.295
199.295
204.909
204.908
210.657
210.657
216.542
216.542
222.565
222.565
228.727
228.727
235.029
235.029
241.473
241.473
248.059
248.059
254.788
254.788
261.662
261.662
268.682
268.682
275.849
275.849
283.163
283.163
290.626
290.626
298.239
298.239
306.003
306.003
313.919
313.919
321.987
321.987
330.209
330.209
338.585
338.585
347.116
347.116
355.803
355.803
364.645
364.645
373.644
373.644
382.799
382.799
392.11
392.11
401.576
401.576
411.199
411.198
420.976
420.975
430.906
430.906
440.99
440.99
451.225
451.225
461.61
461.61
472.143
472.143
482.82
482.82
493.64
493.64
504.598
504.598
515.691
515.691
526.915
526.915
538.266
538.266
549.737
549.737
561.323
561.323
573.018
573.018
584.814
584.814
596.704
596.704
608.679
608.679
620.731
620.731
632.851
632.851
645.03
645.03
657.257
657.257
669.52
669.52
681.808
681.808
694.11
694.11
706.413
706.413
718.706
718.705
730.976
730.976
743.213
743.213
755.404
755.404
767.54
767.54
779.614
779.614
791.617
791.617
803.543
803.543
815.391
815.391
827.16
827.16
838.851
838.851
850.472
850.472
862.035
862.035
873.555
873.555
885.054
885.054
896.562
896.562
908.115
908.115
919.76
919.76
931.552
931.552
943.555
943.555
955.833
955.833
968.463
968.463
981.532
981.532
995.134
995.134
1009.37
1009.37
1024.34
1024.34
1040.17
1040.17
1056.97
1056.97
1074.84
1074.84
1093.91
1093.91
1114.28
1114.28
1136.04
1136.04
1159.29
1159.29
1184.09
1184.09
1210.51
1210.51
1238.57
1238.57
1268.31
1268.31
1299.73
1299.73
1332.79
1332.79
1367.47
1367.47
1403.69
1403.69
1441.4
1441.4
1480.49
1480.49
1520.86
1520.86
1562.41
1562.41
1605
1605
1648.52
1648.52
1692.85
1692.85
1737.85
1737.85
1783.42
1783.42
1829.42
1829.42
1875.76
1875.75
1922.31
1922.31
1969.01
1969.01
2015.76
2015.76
2062.49
2062.49
2109.13
2109.13
2155.64
2155.64
2202
2202
2248.19
2248.19
2294.2
2294.2
2340.03
2340.03
2385.72
2385.72
2431.31
2431.31
2476.85
2476.85
2522.41
2522.41
2568.08
2568.08
2613.98
2613.98
2660.21
2660.21
2706.93
2706.93
2754.3
2754.3
2802.5
2802.5
2851.75
2851.75
2902.29
2902.29
2954.38
2954.37
3008.31
3008.31
3064.45
3064.45
3123.17
3123.17
3184.92
3184.92
3250.21
3250.21
3319.63
3319.63
3393.85
3393.85
3473.67
3473.67
3560.04
3560.03
3654.08
3654.08
3757.15
3757.15
3870.91
3870.91
3997.41
3997.41
4139.21
4139.21
4299.57
4299.57
4482.7
4482.7
4694.16
4694.16
4941.43
4941.43
5234.86
5234.86
5589.19
5589.19
6026.14
6026.14
6579.12
6579.12
7302.18
7302.18
8288.58
8288.58
9712.45
9712.45
11933
11933
15785.8
15785.8
23463.9
23463.9
41208.6
41208.6
89070.5
89070.5
264952
264952
1.52417e+06
1.52417e+06
5.42384
5.42388
5.43567
5.43576
5.45826
5.45841
5.4908
5.49099
5.53313
5.53334
5.58487
5.58508
5.64503
5.64517
5.71183
5.71186
5.78291
5.78285
5.85673
5.8566
5.93157
5.93135
6.00488
6.00459
6.07408
6.07376
6.13838
6.13807
6.19924
6.19899
6.25955
6.25939
6.32238
6.32231
6.39011
6.39011
6.46429
6.46435
6.54625
6.54636
6.63715
6.63731
6.73766
6.73785
6.84794
6.84815
6.96791
6.96815
7.09752
7.09778
7.23676
7.23705
7.38558
7.38589
7.54393
7.54428
7.71185
7.71227
7.88897
7.88946
8.07317
8.07374
8.2606
8.26125
8.44688
8.44761
8.62858
8.62939
8.80333
8.80423
8.9697
8.97066
9.12774
9.1287
9.27897
9.27978
9.42599
9.42644
9.57218
9.57215
9.71958
9.7192
9.86951
9.869
10.0232
10.0228
10.1832
10.1828
10.3518
10.3516
10.5312
10.5311
10.723
10.723
10.9287
10.9288
11.149
11.1492
11.3845
11.3847
11.6354
11.6356
11.9018
11.9021
12.1839
12.1842
12.4819
12.4822
12.7957
12.7961
13.1255
13.1258
13.4708
13.4711
13.8308
13.8312
14.2045
14.2049
14.5906
14.591
14.9879
14.9882
15.3956
15.396
15.8139
15.8142
16.2431
16.2435
16.6834
16.6837
17.134
17.1343
17.5933
17.5936
18.059
18.0593
18.5286
18.5289
19.0001
19.0003
19.4724
19.4726
19.9459
19.9461
20.4221
20.4222
20.9029
20.9031
21.391
21.3912
21.8884
21.8885
22.3966
22.3968
22.9169
22.9171
23.4498
23.45
23.9955
23.9957
24.5537
24.5539
25.1241
25.1243
25.7061
25.7063
26.2992
26.2993
26.9032
26.9034
27.5182
27.5184
28.1448
28.145
28.7836
28.7838
29.4354
29.4356
30.1012
30.1014
30.7826
30.7828
31.481
31.4812
32.1978
32.198
32.9342
32.9344
33.6911
33.6912
34.469
34.4692
35.2689
35.2691
36.0919
36.092
36.9394
36.9395
37.8132
37.8134
38.7157
38.7158
39.6491
39.6493
40.6158
40.616
41.6182
41.6184
42.6584
42.6585
43.7384
43.7386
44.8604
44.8606
46.0262
46.0264
47.2377
47.2378
48.4964
48.4965
49.804
49.8042
51.1622
51.1624
52.5726
52.5728
54.0369
54.0371
55.5567
55.5569
57.1337
57.1339
58.7697
58.7698
60.466
60.4661
62.224
62.2242
64.045
64.0452
65.9303
65.9304
67.8808
67.8809
69.8977
69.8979
71.9822
71.9823
74.1352
74.1354
76.358
76.3581
78.6515
78.6516
81.017
81.0172
83.4559
83.4561
85.9696
85.9698
88.5595
88.5597
91.2271
91.2272
93.9739
93.9741
96.8019
96.802
99.7128
99.7129
102.708
102.709
105.791
105.791
108.961
108.961
112.222
112.222
115.575
115.575
119.021
119.021
122.562
122.562
126.201
126.201
129.938
129.939
133.777
133.777
137.717
137.717
141.762
141.762
145.914
145.914
150.174
150.175
154.546
154.546
159.031
159.032
163.633
163.633
168.353
168.353
173.194
173.194
178.158
178.158
183.249
183.249
188.467
188.467
193.815
193.815
199.295
199.295
204.908
204.909
210.657
210.657
216.542
216.542
222.565
222.565
228.727
228.727
235.029
235.029
241.473
241.473
248.059
248.059
254.788
254.788
261.662
261.662
268.682
268.682
275.849
275.849
283.163
283.163
290.626
290.626
298.239
298.239
306.003
306.003
313.919
313.919
321.987
321.987
330.209
330.209
338.585
338.585
347.116
347.116
355.803
355.803
364.645
364.645
373.644
373.644
382.799
382.799
392.11
392.11
401.576
401.576
411.198
411.198
420.975
420.975
430.906
430.906
440.99
440.99
451.225
451.225
461.61
461.61
472.143
472.143
482.82
482.82
493.64
493.64
504.598
504.598
515.691
515.691
526.915
526.915
538.265
538.266
549.737
549.737
561.323
561.323
573.017
573.018
584.814
584.814
596.704
596.704
608.678
608.679
620.731
620.731
632.851
632.851
645.03
645.03
657.257
657.257
669.52
669.52
681.808
681.808
694.109
694.11
706.413
706.413
718.705
718.705
730.976
730.976
743.213
743.213
755.404
755.404
767.54
767.54
779.614
779.614
791.617
791.617
803.543
803.543
815.391
815.391
827.16
827.16
838.851
838.851
850.472
850.472
862.035
862.035
873.555
873.555
885.054
885.054
896.562
896.562
908.114
908.115
919.759
919.759
931.552
931.552
943.554
943.554
955.833
955.833
968.463
968.463
981.532
981.532
995.134
995.134
1009.37
1009.37
1024.34
1024.34
1040.17
1040.17
1056.97
1056.97
1074.84
1074.84
1093.91
1093.91
1114.28
1114.28
1136.04
1136.04
1159.29
1159.29
1184.09
1184.09
1210.51
1210.51
1238.57
1238.57
1268.31
1268.31
1299.73
1299.73
1332.79
1332.79
1367.47
1367.47
1403.69
1403.69
1441.4
1441.4
1480.49
1480.49
1520.86
1520.86
1562.41
1562.41
1605
1605
1648.52
1648.53
1692.85
1692.85
1737.85
1737.85
1783.42
1783.42
1829.42
1829.42
1875.76
1875.76
1922.31
1922.32
1969.01
1969.01
2015.76
2015.76
2062.49
2062.49
2109.13
2109.13
2155.64
2155.64
2202
2202
2248.19
2248.19
2294.2
2294.2
2340.03
2340.03
2385.72
2385.72
2431.31
2431.31
2476.85
2476.85
2522.41
2522.41
2568.08
2568.08
2613.98
2613.98
2660.21
2660.21
2706.93
2706.93
2754.3
2754.3
2802.5
2802.5
2851.75
2851.75
2902.29
2902.29
2954.37
2954.37
3008.31
3008.31
3064.45
3064.45
3123.17
3123.17
3184.92
3184.92
3250.21
3250.21
3319.63
3319.63
3393.84
3393.85
3473.67
3473.67
3560.03
3560.03
3654.07
3654.08
3757.15
3757.15
3870.91
3870.91
3997.41
3997.41
4139.21
4139.21
4299.57
4299.57
4482.7
4482.7
4694.16
4694.16
4941.43
4941.43
5234.86
5234.86
5589.19
5589.19
6026.14
6026.14
6579.11
6579.11
7302.18
7302.18
8288.58
8288.58
9712.45
9712.45
11933
11933
15785.8
15785.8
23463.9
23463.9
41208.6
41208.6
89070.5
89070.5
264952
264952
1.52417e+06
1.52417e+06
)
;

boundaryField
{
    walls
    {
        blending        binomial2;
        n               2;
        beta1           0.075;
        type            omegaWallFunction;
        value           nonuniform List<scalar> 8(1.52416e+06 1.52416e+06 1.52416e+06 1.52416e+06 1.52417e+06 1.52417e+06 1.52417e+06 1.52417e+06);
    }
    inlet
    {
        type            cyclic;
    }
    outlet
    {
        type            cyclic;
    }
    sides
    {
        type            empty;
    }
}


// ************************************************************************* //
