/*--------------------------------*- C++ -*----------------------------------*\
| =========                 |                                                 |
| \\      /  F ield         | OpenFOAM: The Open Source CFD Toolbox           |
|  \\    /   O peration     | Version:  2012                                  |
|   \\  /    A nd           | Website:  www.openfoam.com                      |
|    \\/     M anipulation  |                                                 |
\*---------------------------------------------------------------------------*/
FoamFile
{
    version     2.0;
    format      ascii;
    class       surfaceScalarField;
    location    "12600";
    object      phi;
}
// * * * * * * * * * * * * * * * * * * * * * * * * * * * * * * * * * * * * * //

dimensions      [0 3 -1 0 0 0 0];
oriented        oriented;


internalField   nonuniform List<scalar> 
5116
(
5.43843e-07
1.18136e-10
-3.37417e-11
-5.42335e-11
3.13138e-12
1.66183e-06
2.4849e-10
-5.20384e-11
-1.37818e-10
4.79644e-12
2.82702e-06
3.72357e-10
-4.92249e-11
-2.16837e-10
4.53704e-12
4.04089e-06
4.65186e-10
-3.71213e-11
-2.76454e-10
3.42149e-12
5.30489e-06
5.22991e-10
-2.29184e-11
-3.13227e-10
2.11245e-12
6.62055e-06
5.57833e-10
-1.40066e-11
-3.3573e-10
1.29104e-12
7.98946e-06
5.81538e-10
-9.33688e-12
-3.507e-10
8.60626e-13
9.41332e-06
5.98377e-10
-6.81248e-12
-3.61651e-10
6.27943e-13
1.0894e-05
6.11992e-10
-5.32869e-12
-3.70188e-10
4.91176e-13
1.24334e-05
6.22765e-10
-4.38487e-12
-3.77242e-10
4.0418e-13
1.40336e-05
6.32403e-10
-3.7454e-12
-3.83237e-10
3.45238e-13
1.56969e-05
6.40447e-10
-3.29059e-12
-3.88533e-10
3.03315e-13
1.74255e-05
6.4809e-10
-2.9548e-12
-3.9326e-10
2.72364e-13
1.9222e-05
6.54662e-10
-2.69967e-12
-3.97607e-10
2.48847e-13
2.10889e-05
6.61166e-10
-2.50147e-12
-4.01605e-10
2.30579e-13
2.3029e-05
6.66857e-10
-2.34487e-12
-4.05382e-10
2.16145e-13
2.5045e-05
6.72647e-10
-2.21957e-12
-4.08928e-10
2.04595e-13
2.714e-05
6.77775e-10
-2.11841e-12
-4.1234e-10
1.95272e-13
2.93169e-05
6.83106e-10
-2.03631e-12
-4.15591e-10
1.87704e-13
3.15788e-05
6.87866e-10
-1.96953e-12
-4.18764e-10
1.8155e-13
3.3929e-05
6.9289e-10
-1.91531e-12
-4.21819e-10
1.76553e-13
3.63706e-05
6.97408e-10
-1.87155e-12
-4.24834e-10
1.7252e-13
3.89069e-05
7.02234e-10
-1.83664e-12
-4.27763e-10
1.69303e-13
4.15413e-05
7.066e-10
-1.80932e-12
-4.30677e-10
1.66786e-13
4.4277e-05
7.11305e-10
-1.7886e-12
-4.33527e-10
1.64878e-13
4.71172e-05
7.15585e-10
-1.7737e-12
-4.36383e-10
1.63506e-13
5.00653e-05
7.20229e-10
-1.764e-12
-4.39193e-10
1.62614e-13
5.31244e-05
7.24476e-10
-1.759e-12
-4.42025e-10
1.62154e-13
5.62974e-05
7.29105e-10
-1.75828e-12
-4.44825e-10
1.62091e-13
5.95873e-05
7.33363e-10
-1.76154e-12
-4.47659e-10
1.62394e-13
6.29969e-05
7.38019e-10
-1.76851e-12
-4.50474e-10
1.63039e-13
6.65285e-05
7.42324e-10
-1.77899e-12
-4.53335e-10
1.64008e-13
7.01846e-05
7.47042e-10
-1.79281e-12
-4.56188e-10
1.65287e-13
7.39672e-05
7.51428e-10
-1.80986e-12
-4.59097e-10
1.66862e-13
7.78779e-05
7.56242e-10
-1.83003e-12
-4.62008e-10
1.68727e-13
8.19181e-05
7.60742e-10
-1.85328e-12
-4.64986e-10
1.70874e-13
8.60887e-05
7.65682e-10
-1.87954e-12
-4.67975e-10
1.73302e-13
9.03905e-05
7.70325e-10
-1.90882e-12
-4.7104e-10
1.76007e-13
9.48233e-05
7.75422e-10
-1.9411e-12
-4.74126e-10
1.7899e-13
9.93869e-05
7.8024e-10
-1.9764e-12
-4.77298e-10
1.82253e-13
0.00010408
7.85525e-10
-2.01475e-12
-4.805e-10
1.85797e-13
0.000108902
7.90548e-10
-2.05619e-12
-4.83798e-10
1.89627e-13
0.000113849
7.96052e-10
-2.10077e-12
-4.87136e-10
1.93748e-13
0.00011892
8.01313e-10
-2.14856e-12
-4.9058e-10
1.98167e-13
0.000124111
8.07069e-10
-2.19963e-12
-4.94075e-10
2.02889e-13
0.000129417
8.12601e-10
-2.25407e-12
-4.97686e-10
2.07922e-13
0.000134834
8.18643e-10
-2.31194e-12
-5.01358e-10
2.13275e-13
0.000140356
8.24481e-10
-2.37336e-12
-5.05158e-10
2.18955e-13
0.000145977
8.30845e-10
-2.43839e-12
-5.0903e-10
2.24972e-13
0.000151689
8.37026e-10
-2.50714e-12
-5.13042e-10
2.31333e-13
0.000157484
8.43751e-10
-2.57968e-12
-5.17138e-10
2.38047e-13
0.000163353
8.50314e-10
-2.65611e-12
-5.21385e-10
2.45121e-13
0.000169287
8.57439e-10
-2.73649e-12
-5.25729e-10
2.52563e-13
0.000175275
8.64424e-10
-2.82089e-12
-5.30238e-10
2.60378e-13
0.000181306
8.7199e-10
-2.90933e-12
-5.34856e-10
2.6857e-13
0.000187367
8.79438e-10
-3.00185e-12
-5.39651e-10
2.77141e-13
0.000193445
8.87487e-10
-3.09842e-12
-5.44568e-10
2.8609e-13
0.000199528
8.9544e-10
-3.19902e-12
-5.49675e-10
2.95415e-13
0.0002056
9.04013e-10
-3.30356e-12
-5.54917e-10
3.05108e-13
0.000211647
9.12511e-10
-3.41193e-12
-5.60361e-10
3.15158e-13
0.000217654
9.21647e-10
-3.52395e-12
-5.65952e-10
3.25551e-13
0.000223604
9.30728e-10
-3.63942e-12
-5.71756e-10
3.36267e-13
0.000229482
9.40463e-10
-3.75805e-12
-5.77717e-10
3.47282e-13
0.00023527
9.50159e-10
-3.87956e-12
-5.83902e-10
3.58567e-13
0.000240953
9.60523e-10
-4.00356e-12
-5.90251e-10
3.7009e-13
0.000246514
9.70861e-10
-4.12968e-12
-5.96831e-10
3.81813e-13
0.000251936
9.81876e-10
-4.25748e-12
-6.03582e-10
3.937e-13
0.000257204
9.92874e-10
-4.38655e-12
-6.10567e-10
4.0571e-13
0.000262303
1.00455e-09
-4.51643e-12
-6.17726e-10
4.17804e-13
0.000267217
1.01622e-09
-4.64677e-12
-6.25121e-10
4.29946e-13
0.000271932
1.02858e-09
-4.77718e-12
-6.3269e-10
4.42105e-13
0.000276436
1.04092e-09
-4.90742e-12
-6.40496e-10
4.54254e-13
0.000280718
1.05394e-09
-5.03727e-12
-6.48474e-10
4.66376e-13
0.000284765
1.06696e-09
-5.16667e-12
-6.56686e-10
4.78464e-13
0.00028857
1.08065e-09
-5.29563e-12
-6.65069e-10
4.90521e-13
0.000292126
1.09433e-09
-5.42434e-12
-6.73684e-10
5.02563e-13
0.000295425
1.10869e-09
-5.55304e-12
-6.8247e-10
5.14613e-13
0.000298465
1.12305e-09
-5.68214e-12
-6.91488e-10
5.26709e-13
0.000301243
1.13809e-09
-5.8121e-12
-7.00678e-10
5.38894e-13
0.000303757
1.15312e-09
-5.94351e-12
-7.10104e-10
5.51223e-13
0.00030601
1.16885e-09
-6.07698e-12
-7.19707e-10
5.63755e-13
0.000308002
1.18459e-09
-6.21321e-12
-7.29553e-10
5.76551e-13
0.00030974
1.20104e-09
-6.3529e-12
-7.39585e-10
5.89681e-13
0.000311228
1.21752e-09
-6.4968e-12
-7.49874e-10
6.03211e-13
0.000312473
1.23473e-09
-6.64564e-12
-7.60362e-10
6.17211e-13
0.000313483
1.25201e-09
-6.80017e-12
-7.71124e-10
6.3175e-13
0.000314267
1.27004e-09
-6.96109e-12
-7.82104e-10
6.46898e-13
0.000314835
1.28817e-09
-7.12915e-12
-7.9338e-10
6.6272e-13
0.000315198
1.3071e-09
-7.30502e-12
-8.04896e-10
6.79283e-13
0.000315366
1.32617e-09
-7.4894e-12
-8.16736e-10
6.96651e-13
0.000315352
1.34608e-09
-7.68293e-12
-8.28843e-10
7.14886e-13
0.000315166
1.36618e-09
-7.88629e-12
-8.41305e-10
7.34048e-13
0.000314822
1.38717e-09
-8.10008e-12
-8.54066e-10
7.54202e-13
0.000314331
1.40841e-09
-8.32496e-12
-8.67217e-10
7.75402e-13
0.000313704
1.43059e-09
-8.56154e-12
-8.80702e-10
7.97714e-13
0.000312953
1.45308e-09
-8.81045e-12
-8.94617e-10
8.21194e-13
0.000312089
1.47658e-09
-9.0723e-12
-9.08906e-10
8.45902e-13
0.000311123
1.50046e-09
-9.34773e-12
-9.23668e-10
8.71895e-13
0.000310066
1.52541e-09
-9.63738e-12
-9.38848e-10
8.99243e-13
0.000308927
1.55082e-09
-9.94191e-12
-9.54548e-10
9.27999e-13
0.000307715
1.57738e-09
-1.0262e-11
-9.70714e-10
9.58239e-13
0.00030644
1.60448e-09
-1.05982e-11
-9.87454e-10
9.90015e-13
0.000305108
1.6328e-09
-1.09515e-11
-1.00471e-09
1.02341e-12
0.000303728
1.66176e-09
-1.13223e-11
-1.0226e-09
1.05848e-12
0.000302307
1.69203e-09
-1.17117e-11
-1.04106e-09
1.09532e-12
0.00030085
1.72302e-09
-1.21202e-11
-1.06021e-09
1.13397e-12
0.000299364
1.75543e-09
-1.25487e-11
-1.08e-09
1.17456e-12
0.000297854
1.78867e-09
-1.29982e-11
-1.10055e-09
1.21713e-12
0.000296324
1.82343e-09
-1.34695e-11
-1.1218e-09
1.26181e-12
0.000294778
1.85914e-09
-1.39635e-11
-1.14389e-09
1.30863e-12
0.000293221
1.89648e-09
-1.44812e-11
-1.16675e-09
1.35776e-12
0.000291655
1.93489e-09
-1.50237e-11
-1.19053e-09
1.40922e-12
0.000290084
1.97505e-09
-1.5592e-11
-1.21516e-09
1.46322e-12
0.00028851
2.01642e-09
-1.61872e-11
-1.24079e-09
1.51974e-12
0.000286934
2.05969e-09
-1.68106e-11
-1.26737e-09
1.57904e-12
0.000285359
2.10431e-09
-1.74634e-11
-1.29504e-09
1.64108e-12
0.000283787
2.15097e-09
-1.81469e-11
-1.32374e-09
1.70619e-12
0.000282218
2.19914e-09
-1.88623e-11
-1.35365e-09
1.77426e-12
0.000280654
2.24952e-09
-1.96114e-11
-1.3847e-09
1.84573e-12
0.000279095
2.30159e-09
-2.03954e-11
-1.41706e-09
1.92038e-12
0.000277543
2.35604e-09
-2.12161e-11
-1.45067e-09
1.99881e-12
0.000275997
2.41237e-09
-2.20748e-11
-1.48572e-09
2.08067e-12
0.000274458
2.47127e-09
-2.29738e-11
-1.52215e-09
2.16674e-12
0.000272926
2.53227e-09
-2.39143e-11
-1.56014e-09
2.25646e-12
0.000271402
2.59605e-09
-2.48991e-11
-1.59966e-09
2.35094e-12
0.000269885
2.66215e-09
-2.5929e-11
-1.64088e-09
2.44928e-12
0.000268376
2.73128e-09
-2.70077e-11
-1.68378e-09
2.55301e-12
0.000266875
2.80297e-09
-2.81356e-11
-1.72854e-09
2.66077e-12
0.000265381
2.87794e-09
-2.93172e-11
-1.77514e-09
2.77472e-12
0.000263896
2.95575e-09
-3.05525e-11
-1.82378e-09
2.89277e-12
0.000262419
3.03712e-09
-3.1847e-11
-1.87444e-09
3.01802e-12
0.000260951
3.12164e-09
-3.32e-11
-1.92734e-09
3.14732e-12
0.000259493
3.21002e-09
-3.46185e-11
-1.98245e-09
3.2851e-12
0.000258044
3.30187e-09
-3.61006e-11
-2.04001e-09
3.42668e-12
0.000256606
3.39794e-09
-3.76556e-11
-2.1e-09
3.5784e-12
0.000255179
3.49783e-09
-3.92793e-11
-2.16267e-09
3.73332e-12
0.000253765
3.60231e-09
-4.09842e-11
-2.22802e-09
3.90061e-12
0.000252362
3.71102e-09
-4.27634e-11
-2.29629e-09
4.07e-12
0.000250974
3.82472e-09
-4.46336e-11
-2.36751e-09
4.25478e-12
0.000249599
3.94309e-09
-4.65832e-11
-2.44193e-09
4.43975e-12
0.00024824
4.06691e-09
-4.86355e-11
-2.51959e-09
4.64427e-12
0.000246898
4.19586e-09
-5.07721e-11
-2.60076e-09
4.84592e-12
0.000245574
4.33078e-09
-5.30255e-11
-2.6855e-09
5.0729e-12
0.000244269
4.47134e-09
-5.53671e-11
-2.77406e-09
5.29216e-12
0.000242984
4.61843e-09
-5.78428e-11
-2.86657e-09
5.54494e-12
0.000241723
4.77174e-09
-6.04087e-11
-2.96326e-09
5.78248e-12
0.000240486
4.93219e-09
-6.31305e-11
-3.0643e-09
6.06521e-12
0.000239276
5.09948e-09
-6.59416e-11
-3.16991e-09
6.32122e-12
0.000238096
5.27461e-09
-6.89364e-11
-3.28032e-09
6.63922e-12
0.000236947
5.45724e-09
-7.20147e-11
-3.39573e-09
6.91304e-12
0.000235832
5.64848e-09
-7.53131e-11
-3.51644e-09
7.27322e-12
0.000234753
5.84796e-09
-7.86815e-11
-3.6426e-09
7.56287e-12
0.000233715
6.0569e-09
-8.23188e-11
-3.77465e-09
7.97444e-12
0.000232718
6.27487e-09
-8.60004e-11
-3.91262e-09
8.27582e-12
0.000231767
6.50327e-09
-9.00172e-11
-4.05713e-09
8.75129e-12
0.000230863
6.74154e-09
-9.40342e-11
-4.20806e-09
9.05699e-12
0.00023001
6.99134e-09
-9.84787e-11
-4.36629e-09
9.61371e-12
0.00022921
7.25188e-09
-1.02851e-10
-4.53145e-09
9.91121e-12
0.000228464
7.52519e-09
-1.07781e-10
-4.70478e-09
1.05737e-11
0.000227774
7.81016e-09
-1.12523e-10
-4.88555e-09
1.08426e-11
0.000227138
8.10935e-09
-1.18009e-10
-5.07551e-09
1.16458e-11
0.000226557
8.4211e-09
-1.23127e-10
-5.27337e-09
1.18537e-11
0.000226027
8.74877e-09
-1.29259e-10
-5.48168e-09
1.28488e-11
0.000225547
9.08984e-09
-1.34745e-10
-5.69825e-09
1.29448e-11
0.000225111
9.44886e-09
-1.4164e-10
-5.9268e-09
1.42075e-11
0.000224715
9.82202e-09
-1.4746e-10
-6.16382e-09
1.41118e-11
0.000224354
1.02156e-08
-1.55275e-10
-6.41475e-09
1.57526e-11
0.000224025
1.06238e-08
-1.61361e-10
-6.67406e-09
1.53438e-11
0.000223722
1.10556e-08
-1.70312e-10
-6.94979e-09
1.75287e-11
0.000223444
1.1502e-08
-1.76535e-10
-7.23335e-09
1.66188e-11
0.000223191
1.19759e-08
-1.86922e-10
-7.53664e-09
1.95973e-11
0.000222963
1.2464e-08
-1.93061e-10
-7.84644e-09
1.78972e-11
0.000222763
1.29847e-08
-2.05317e-10
-8.18052e-09
2.20463e-11
0.000222596
1.35178e-08
-2.11004e-10
-8.51858e-09
1.91114e-11
0.000222467
1.40908e-08
-2.25757e-10
-8.88723e-09
2.50031e-11
0.000222381
1.46724e-08
-2.30397e-10
-9.25543e-09
2.01492e-11
0.000222344
1.53038e-08
-2.48574e-10
-9.66324e-09
2.86553e-11
0.000222358
1.59374e-08
-2.51212e-10
-1.00631e-08
2.08283e-11
0.000222427
1.66346e-08
-2.74198e-10
-1.05157e-08
3.32837e-11
0.000222553
1.7323e-08
-2.73323e-10
-1.09483e-08
2.0856e-11
0.000222737
1.80951e-08
-3.03212e-10
-1.14528e-08
3.93125e-11
0.000222977
1.88403e-08
-2.96445e-10
-1.19179e-08
1.97662e-11
0.000223273
1.96989e-08
-3.36429e-10
-1.24837e-08
4.73895e-11
0.00022362
2.05146e-08
-3.24579e-10
-1.29934e-08
2.20227e-11
0.000224013
2.14739e-08
-3.74823e-10
-1.36324e-08
5.82923e-11
0.000224448
2.24215e-08
-3.7356e-10
-1.42452e-08
4.22623e-11
0.000224923
2.34972e-08
-4.18887e-10
-1.49707e-08
7.23148e-11
0.000225434
2.45956e-08
-4.29326e-10
-1.57029e-08
6.6637e-11
0.00022598
2.58043e-08
-4.68909e-10
-1.65284e-08
8.95404e-11
0.000226561
2.7074e-08
-4.9238e-10
-1.73976e-08
9.54402e-11
0.000227184
2.83383e-08
-4.93712e-10
-1.82427e-08
7.8218e-11
0.000227854
2.96966e-08
-5.28411e-10
-1.91629e-08
9.38436e-11
0.000228575
3.10137e-08
-5.1811e-10
-2.00215e-08
6.33197e-11
0.000229352
3.24696e-08
-5.68002e-10
-2.09983e-08
9.24634e-11
0.000230187
3.38453e-08
-5.44945e-10
-2.18725e-08
4.74015e-11
0.000231082
3.54113e-08
-6.12346e-10
-2.29148e-08
9.22788e-11
0.00023204
3.69024e-08
-5.91301e-10
-2.38572e-08
4.67591e-11
0.000233059
3.85937e-08
-6.6224e-10
-2.49761e-08
9.39142e-11
0.000234138
4.02463e-08
-6.5365e-10
-2.60296e-08
5.90842e-11
0.000235269
4.20782e-08
-7.17876e-10
-2.72363e-08
9.73888e-11
0.000236437
4.39022e-08
-7.19849e-10
-2.84065e-08
7.12542e-11
0.000237627
4.58901e-08
-7.79287e-10
-2.97124e-08
1.02586e-10
0.000238815
4.78963e-08
-7.90295e-10
-3.10059e-08
8.3529e-11
0.000239977
5.0056e-08
-8.46525e-10
-3.24221e-08
1.0943e-10
0.000241084
5.22563e-08
-8.65355e-10
-3.38464e-08
9.61457e-11
0.000242111
5.46035e-08
-9.19669e-10
-3.53843e-08
1.17885e-10
0.000243034
5.70109e-08
-9.45341e-10
-3.69478e-08
1.09344e-10
0.000243837
5.95617e-08
-9.98829e-10
-3.8619e-08
1.27947e-10
0.000244515
6.219e-08
-1.03058e-09
-4.03308e-08
1.23297e-10
0.000245068
6.49609e-08
-1.08416e-09
-4.21473e-08
1.39643e-10
0.000245497
6.78248e-08
-1.12142e-09
-4.40176e-08
1.38236e-10
0.000245798
7.08328e-08
-1.17583e-09
-4.59916e-08
1.53032e-10
0.000245962
7.39481e-08
-1.21818e-09
-4.80314e-08
1.54369e-10
0.000245974
7.72108e-08
-1.27408e-09
-5.01758e-08
1.68201e-10
0.000245814
8.05942e-08
-1.32123e-09
-5.23971e-08
1.71913e-10
0.000245461
8.41301e-08
-1.3792e-09
-5.47257e-08
1.85271e-10
0.000244896
8.77997e-08
-1.43104e-09
-5.71415e-08
1.91098e-10
0.000244098
9.16285e-08
-1.49165e-09
-5.96688e-08
2.04403e-10
0.000243045
9.56041e-08
-1.54821e-09
-6.22936e-08
2.12181e-10
0.000241721
9.97474e-08
-1.61206e-09
-6.50356e-08
2.25803e-10
0.000240121
1.04051e-07
-1.67356e-09
-6.78857e-08
2.35452e-10
0.000238255
1.08533e-07
-1.74134e-09
-7.08602e-08
2.49731e-10
0.000236153
1.1319e-07
-1.80815e-09
-7.39539e-08
2.61244e-10
0.000233851
1.18037e-07
-1.88056e-09
-7.71809e-08
2.76497e-10
0.000231393
1.23075e-07
-1.95313e-09
-8.0539e-08
2.89923e-10
0.000228807
1.28317e-07
-2.03084e-09
-8.40407e-08
3.06446e-10
0.000226106
1.33768e-07
-2.10961e-09
-8.76865e-08
3.21879e-10
0.000223281
1.39439e-07
-2.19326e-09
-9.14875e-08
3.39956e-10
0.000220291
1.45337e-07
-2.27876e-09
-9.54465e-08
3.57536e-10
0.000217097
1.51473e-07
-2.36907e-09
-9.95741e-08
3.77458e-10
0.00021367
1.57856e-07
-2.46201e-09
-1.03875e-07
3.97376e-10
0.000210011
1.64499e-07
-2.5599e-09
-1.0836e-07
4.19457e-10
0.000206144
1.71411e-07
-2.66119e-09
-1.13035e-07
4.41958e-10
0.000202097
1.78606e-07
-2.7677e-09
-1.17912e-07
4.66536e-10
0.000197897
1.86097e-07
-2.87833e-09
-1.22998e-07
4.91905e-10
0.00019357
1.93897e-07
-2.99452e-09
-1.28306e-07
5.19331e-10
0.000189151
2.02021e-07
-3.1155e-09
-1.33844e-07
5.47882e-10
0.000184683
2.10484e-07
-3.24237e-09
-1.39625e-07
5.78515e-10
0.000180224
2.19301e-07
-3.37461e-09
-1.4566e-07
6.10576e-10
0.000175822
2.28489e-07
-3.51302e-09
-1.51962e-07
6.44768e-10
0.000171491
2.38065e-07
-3.65724e-09
-1.58543e-07
6.80671e-10
0.000167201
2.48045e-07
-3.80785e-09
-1.65416e-07
7.18775e-10
0.000162879
2.58448e-07
-3.96475e-09
-1.72595e-07
7.58875e-10
0.00015842
2.69291e-07
-4.12841e-09
-1.80093e-07
8.01272e-10
0.000153711
2.80596e-07
-4.29908e-09
-1.87926e-07
8.45984e-10
0.000148651
2.92381e-07
-4.47724e-09
-1.96109e-07
8.93121e-10
0.000143146
3.04671e-07
-4.66358e-09
-2.0466e-07
9.42957e-10
0.000137117
3.17487e-07
-4.8586e-09
-2.13595e-07
9.95379e-10
0.00013056
3.3086e-07
-5.06352e-09
-2.22937e-07
1.05096e-09
0.000123582
3.44814e-07
-5.27869e-09
-2.32704e-07
1.10929e-09
0.000116396
3.59385e-07
-5.50561e-09
-2.42921e-07
1.17128e-09
0.000109248
3.746e-07
-5.74398e-09
-2.53611e-07
1.23608e-09
0.000102367
3.90498e-07
-5.99533e-09
-2.648e-07
1.30502e-09
9.59634e-05
4.07108e-07
-6.25829e-09
-2.7651e-07
1.37664e-09
9.01912e-05
4.24468e-07
-6.53458e-09
-2.8877e-07
1.45288e-09
8.50501e-05
4.42607e-07
-6.82179e-09
-3.01601e-07
1.53148e-09
8.0331e-05
4.61564e-07
-7.12251e-09
-3.15031e-07
1.61533e-09
7.57163e-05
4.81364e-07
-7.43353e-09
-3.29081e-07
1.70111e-09
7.09646e-05
5.0205e-07
-7.75899e-09
-3.43782e-07
1.79291e-09
6.60865e-05
5.23647e-07
-8.09442e-09
-3.59153e-07
1.88583e-09
6.13266e-05
5.462e-07
-8.44546e-09
-3.75227e-07
1.98566e-09
5.702e-05
5.6973e-07
-8.80527e-09
-3.9202e-07
2.08542e-09
5.34415e-05
5.94286e-07
-9.1812e-09
-4.09569e-07
2.19332e-09
5.07588e-05
6.1988e-07
-9.56333e-09
-4.27883e-07
2.29969e-09
4.90697e-05
6.46563e-07
-9.96195e-09
-4.47002e-07
2.41615e-09
4.83216e-05
6.74341e-07
-1.03638e-08
-4.66928e-07
2.5295e-09
4.83057e-05
7.0327e-07
-1.07838e-08
-4.87711e-07
2.65602e-09
4.87749e-05
7.33348e-07
-1.12042e-08
-5.09346e-07
2.77741e-09
4.95113e-05
7.6464e-07
-1.16456e-08
-5.31891e-07
2.91609e-09
5.03065e-05
7.97136e-07
-1.20839e-08
-5.55334e-07
3.04637e-09
5.09094e-05
8.30914e-07
-1.25473e-08
-5.79747e-07
3.19919e-09
5.10105e-05
8.65947e-07
-1.30024e-08
-6.05101e-07
3.33829e-09
5.03039e-05
9.0233e-07
-1.34876e-08
-6.31485e-07
3.50633e-09
4.85311e-05
9.40013e-07
-1.39576e-08
-6.58849e-07
3.65201e-09
4.55063e-05
9.79111e-07
-1.44642e-08
-6.87301e-07
3.83451e-09
4.11574e-05
1.01955e-06
-1.49473e-08
-7.16758e-07
3.98179e-09
3.54341e-05
1.06146e-06
-1.54764e-08
-7.47356e-07
4.1762e-09
2.82367e-05
1.10474e-06
-1.59732e-08
-7.78971e-07
4.31783e-09
1.95906e-05
1.14957e-06
-1.6528e-08
-8.11776e-07
4.51986e-09
9.70675e-06
1.19579e-06
-1.7041e-08
-8.45595e-07
4.64545e-09
-1.21509e-06
1.24362e-06
-1.76211e-08
-8.80633e-07
4.84753e-09
-1.31629e-05
1.29285e-06
-1.81477e-08
-9.16661e-07
4.94814e-09
-2.63192e-05
1.344e-06
-1.88253e-08
-9.54189e-07
5.2228e-09
-4.07848e-05
1.3969e-06
-1.94697e-08
-9.92992e-07
5.37516e-09
-5.63262e-05
1.45223e-06
-2.03111e-08
-1.03376e-06
5.77075e-09
-7.24115e-05
1.50982e-06
-2.11274e-08
-1.07623e-06
5.99837e-09
-8.84205e-05
1.57057e-06
-2.21991e-08
-1.12134e-06
6.57706e-09
-0.000103891
1.63422e-06
-2.32275e-08
-1.16866e-06
6.89281e-09
-0.000118359
1.70197e-06
-2.45882e-08
-1.21953e-06
7.72837e-09
-0.00013098
1.77328e-06
-2.5841e-08
-1.27313e-06
8.12247e-09
-0.000140732
1.8498e-06
-2.75348e-08
-1.33139e-06
9.30015e-09
-0.000147065
1.93043e-06
-2.89722e-08
-1.39278e-06
9.7142e-09
-0.000150352
2.01747e-06
-3.10197e-08
-1.46009e-06
1.13193e-08
-0.000151789
2.10892e-06
-3.25605e-08
-1.53062e-06
1.16361e-08
-0.000152881
2.20815e-06
-3.5014e-08
-1.6086e-06
1.37939e-08
-0.000154756
2.31183e-06
-3.6582e-08
-1.68958e-06
1.387e-08
-0.000157613
2.42515e-06
-3.95853e-08
-1.7801e-06
1.68149e-08
-0.000160815
2.5427e-06
-4.10889e-08
-1.87303e-06
1.6462e-08
-0.000163451
2.67256e-06
-4.49002e-08
-1.97853e-06
2.05683e-08
-0.00016466
2.80583e-06
-4.61321e-08
-2.08511e-06
1.94478e-08
-0.000163833
2.9552e-06
-5.1126e-08
-2.20857e-06
2.52378e-08
-0.000160757
3.10597e-06
-5.16752e-08
-2.33042e-06
2.27639e-08
-0.000155683
3.27818e-06
-5.83959e-08
-2.47515e-06
3.09607e-08
-0.000148852
3.44792e-06
-5.76141e-08
-2.61352e-06
2.62524e-08
-0.000139852
3.64669e-06
-6.68767e-08
-2.78328e-06
3.7883e-08
-0.000127965
3.83663e-06
-6.38385e-08
-2.93895e-06
2.97058e-08
-0.000113375
4.06614e-06
-7.67541e-08
-3.13784e-06
4.61276e-08
-9.69823e-05
4.27752e-06
-7.02315e-08
-3.31107e-06
3.28391e-08
-8.01902e-05
4.54188e-06
-8.80795e-08
-3.54288e-06
5.56501e-08
-6.44384e-05
4.77409e-06
-7.66793e-08
-3.71491e-06
1.7047e-08
-5.05154e-05
5.07711e-06
-1.00853e-07
-3.9552e-06
3.79151e-08
-3.79281e-05
4.63649e-06
1.47901e-07
-3.54617e-06
-1.16659e-07
-2.65921e-05
4.2352e-06
1.34335e-07
-3.17697e-06
-1.02666e-07
-1.66707e-05
3.73889e-06
1.66697e-07
-2.7154e-06
-1.3226e-07
-9.06312e-06
3.27219e-06
1.56469e-07
-2.28406e-06
-1.21385e-07
-3.49551e-06
2.71408e-06
1.87473e-07
-1.76415e-06
-1.4946e-07
1.55684e-06
2.16922e-06
1.82741e-07
-1.25832e-06
-1.43877e-07
7.43463e-06
1.54391e-06
2.10018e-07
-6.75041e-07
-1.68103e-07
1.3162e-05
9.12144e-07
2.11943e-07
-8.63872e-08
-1.68935e-07
1.67719e-05
2.35728e-07
2.10287e-07
-1.89997e-07
5.69664e-07
5.4388e-07
-5.65225e-11
2.57936e-11
1.66188e-06
-1.43668e-10
6.5517e-11
2.82708e-06
-2.26086e-10
1.03109e-10
4.04093e-06
-2.88239e-10
1.31452e-10
5.30492e-06
-3.26605e-10
1.48961e-10
6.62057e-06
-3.50061e-10
1.59653e-10
7.98947e-06
-3.6569e-10
1.66788e-10
9.41333e-06
-3.77103e-10
1.71984e-10
1.0894e-05
-3.86024e-10
1.76057e-10
1.24334e-05
-3.93373e-10
1.79399e-10
1.40336e-05
-3.99645e-10
1.82261e-10
1.56969e-05
-4.05163e-10
1.84767e-10
1.74255e-05
-4.10113e-10
1.87024e-10
1.9222e-05
-4.14644e-10
1.89078e-10
2.10889e-05
-4.18835e-10
1.90989e-10
2.3029e-05
-4.22773e-10
1.92771e-10
2.5045e-05
-4.26494e-10
1.94465e-10
2.714e-05
-4.30055e-10
1.96073e-10
2.93169e-05
-4.3347e-10
1.97627e-10
3.15788e-05
-4.36782e-10
1.99121e-10
3.3929e-05
-4.39997e-10
2.00582e-10
3.63706e-05
-4.43146e-10
2.02e-10
3.89069e-05
-4.4623e-10
2.034e-10
4.15413e-05
-4.49277e-10
2.0477e-10
4.4277e-05
-4.52282e-10
2.06132e-10
4.71172e-05
-4.55271e-10
2.07474e-10
5.00653e-05
-4.58236e-10
2.08816e-10
5.31244e-05
-4.61203e-10
2.10146e-10
5.62974e-05
-4.6416e-10
2.11483e-10
5.95873e-05
-4.67132e-10
2.12814e-10
6.29968e-05
-4.70108e-10
2.14158e-10
6.65285e-05
-4.73113e-10
2.15501e-10
7.01846e-05
-4.76131e-10
2.16862e-10
7.39671e-05
-4.7919e-10
2.18227e-10
7.78778e-05
-4.82273e-10
2.19616e-10
8.1918e-05
-4.85407e-10
2.21012e-10
8.60887e-05
-4.88576e-10
2.22438e-10
9.03905e-05
-4.91806e-10
2.23875e-10
9.48233e-05
-4.95081e-10
2.25346e-10
9.93869e-05
-4.98427e-10
2.26833e-10
0.00010408
-5.01828e-10
2.28359e-10
0.000108902
-5.05311e-10
2.29904e-10
0.000113849
-5.0886e-10
2.31494e-10
0.00011892
-5.12502e-10
2.33108e-10
0.000124111
-5.1622e-10
2.34771e-10
0.000129417
-5.20043e-10
2.36464e-10
0.000134834
-5.23953e-10
2.3821e-10
0.000140356
-5.27981e-10
2.39991e-10
0.000145977
-5.32108e-10
2.41832e-10
0.000151689
-5.36366e-10
2.43712e-10
0.000157484
-5.40735e-10
2.45657e-10
0.000163353
-5.45248e-10
2.47648e-10
0.000169287
-5.49886e-10
2.4971e-10
0.000175275
-5.54682e-10
2.51823e-10
0.000181306
-5.59616e-10
2.54013e-10
0.000187367
-5.64723e-10
2.56261e-10
0.000193445
-5.6998e-10
2.58592e-10
0.000199528
-5.75426e-10
2.60985e-10
0.0002056
-5.81035e-10
2.63469e-10
0.000211647
-5.86846e-10
2.6602e-10
0.000217654
-5.92834e-10
2.68667e-10
0.000223604
-5.99036e-10
2.71387e-10
0.000229482
-6.05424e-10
2.74209e-10
0.00023527
-6.12039e-10
2.77106e-10
0.000240953
-6.18848e-10
2.8011e-10
0.000246514
-6.25895e-10
2.83192e-10
0.000251936
-6.3314e-10
2.86384e-10
0.000257204
-6.40631e-10
2.89656e-10
0.000262303
-6.48321e-10
2.93039e-10
0.000267217
-6.56263e-10
2.96501e-10
0.000271932
-6.64402e-10
3.00077e-10
0.000276437
-6.72798e-10
3.03729e-10
0.000280718
-6.81387e-10
3.07495e-10
0.000284765
-6.90236e-10
3.11337e-10
0.000288571
-6.99273e-10
3.15292e-10
0.000292126
-7.08574e-10
3.19319e-10
0.000295425
-7.18059e-10
3.23461e-10
0.000298465
-7.27815e-10
3.27674e-10
0.000301243
-7.37752e-10
3.32004e-10
0.000303757
-7.47968e-10
3.36404e-10
0.00030601
-7.5837e-10
3.40925e-10
0.000308003
-7.69065e-10
3.45518e-10
0.00030974
-7.79949e-10
3.50238e-10
0.000311228
-7.91146e-10
3.55034e-10
0.000312473
-8.02545e-10
3.59964e-10
0.000313483
-8.14279e-10
3.64978e-10
0.000314267
-8.26229e-10
3.70136e-10
0.000314835
-8.38545e-10
3.75386e-10
0.000315198
-8.51098e-10
3.80793e-10
0.000315366
-8.64049e-10
3.86302e-10
0.000315352
-8.77261e-10
3.91984e-10
0.000315167
-8.90909e-10
3.9778e-10
0.000314822
-9.04848e-10
4.03766e-10
0.000314331
-9.19265e-10
4.09881e-10
0.000313704
-9.34005e-10
4.16204e-10
0.000312953
-9.4927e-10
4.22674e-10
0.000312089
-9.64895e-10
4.29372e-10
0.000311124
-9.81096e-10
4.36235e-10
0.000310066
-9.97697e-10
4.4335e-10
0.000308927
-1.01493e-09
4.50651e-10
0.000307715
-1.03261e-09
4.58228e-10
0.00030644
-1.05097e-09
4.66013e-10
0.000305108
-1.06984e-09
4.74102e-10
0.000303728
-1.08946e-09
4.82425e-10
0.000302307
-1.10962e-09
4.91079e-10
0.00030085
-1.13061e-09
4.99995e-10
0.000299364
-1.15222e-09
5.09275e-10
0.000297854
-1.17471e-09
5.18847e-10
0.000296324
-1.19789e-09
5.28816e-10
0.000294779
-1.22204e-09
5.3911e-10
0.000293221
-1.24694e-09
5.49839e-10
0.000291656
-1.2729e-09
5.60928e-10
0.000290084
-1.2997e-09
5.72494e-10
0.00028851
-1.32765e-09
5.84458e-10
0.000286934
-1.35651e-09
5.96942e-10
0.00028536
-1.38664e-09
6.09868e-10
0.000283787
-1.41777e-09
6.23362e-10
0.000282218
-1.45028e-09
6.37345e-10
0.000280654
-1.4839e-09
6.51948e-10
0.000279095
-1.519e-09
6.6709e-10
0.000277543
-1.55534e-09
6.8291e-10
0.000275997
-1.5933e-09
6.99325e-10
0.000274458
-1.63262e-09
7.1648e-10
0.000272926
-1.67369e-09
7.34291e-10
0.000271402
-1.71626e-09
7.5291e-10
0.000269885
-1.76075e-09
7.72253e-10
0.000268376
-1.80689e-09
7.92478e-10
0.000266875
-1.85511e-09
8.13501e-10
0.000265382
-1.90515e-09
8.35487e-10
0.000263896
-1.95745e-09
8.58352e-10
0.00026242
-2.01176e-09
8.8227e-10
0.000260952
-2.06854e-09
9.07155e-10
0.000259493
-2.12752e-09
9.33191e-10
0.000258045
-2.18919e-09
9.60291e-10
0.000256606
-2.25331e-09
9.88652e-10
0.00025518
-2.32034e-09
1.01818e-09
0.000253765
-2.39006e-09
1.04909e-09
0.000252363
-2.46297e-09
1.08129e-09
0.000250974
-2.53885e-09
1.115e-09
0.0002496
-2.61819e-09
1.15013e-09
0.000248241
-2.70081e-09
1.18691e-09
0.000246898
-2.78721e-09
1.22525e-09
0.000245574
-2.87723e-09
1.2654e-09
0.000244269
-2.97137e-09
1.30727e-09
0.000242985
-3.0695e-09
1.35113e-09
0.000241723
-3.17213e-09
1.39687e-09
0.000240487
-3.27917e-09
1.44481e-09
0.000239277
-3.3911e-09
1.4948e-09
0.000238096
-3.50792e-09
1.54722e-09
0.000236947
-3.63007e-09
1.60188e-09
0.000235832
-3.75763e-09
1.65924e-09
0.000234754
-3.89099e-09
1.71902e-09
0.000233715
-4.03036e-09
1.7818e-09
0.000232719
-4.17602e-09
1.84721e-09
0.000231767
-4.32837e-09
1.91598e-09
0.000230864
-4.48752e-09
1.98756e-09
0.000230011
-4.65413e-09
2.06291e-09
0.000229211
-4.82808e-09
2.14126e-09
0.000228465
-5.0104e-09
2.22389e-09
0.000227774
-5.20057e-09
2.30965e-09
0.000227139
-5.40017e-09
2.40032e-09
0.000226557
-5.60809e-09
2.49416e-09
0.000226028
-5.82672e-09
2.59373e-09
0.000225547
-6.05407e-09
2.69641e-09
0.000225111
-6.29369e-09
2.80585e-09
0.000224715
-6.54223e-09
2.91812e-09
0.000224355
-6.80503e-09
3.03854e-09
0.000224025
-7.07668e-09
3.16119e-09
0.000223723
-7.36513e-09
3.29391e-09
0.000223445
-7.66188e-09
3.4277e-09
0.000223192
-7.9788e-09
3.57426e-09
0.000222963
-8.30272e-09
3.71991e-09
0.000222764
-8.65138e-09
3.88218e-09
0.000222597
-9.00451e-09
4.04028e-09
0.000222468
-9.38878e-09
4.22059e-09
0.000222382
-9.77306e-09
4.39147e-09
0.000222344
-1.01976e-08
4.59279e-09
0.000222359
-1.06146e-08
4.77628e-09
0.000222428
-1.10851e-08
5.00248e-09
0.000222554
-1.15359e-08
5.19745e-09
0.000222738
-1.20595e-08
5.45378e-09
0.000222979
-1.2544e-08
5.65796e-09
0.000223274
-1.31302e-08
5.95173e-09
0.000223621
-1.36611e-08
6.17651e-09
0.000224014
-1.4322e-08
6.51748e-09
0.00022445
-1.49574e-08
6.81804e-09
0.000224924
-1.57062e-08
7.21684e-09
0.000225435
-1.64626e-08
7.60699e-09
0.000225981
-1.73131e-08
8.07464e-09
0.000226563
-1.82081e-08
8.5691e-09
0.000227186
-1.90794e-08
9.02151e-09
0.000227856
-2.00269e-08
9.53058e-09
0.000228576
-2.09132e-08
9.95858e-09
0.000229354
-2.19187e-08
1.04844e-08
0.000230188
-2.28221e-08
1.08867e-08
0.000231084
-2.38947e-08
1.14345e-08
0.000232042
-2.48673e-08
1.18588e-08
0.000233062
-2.60181e-08
1.24363e-08
0.00023414
-2.71037e-08
1.29232e-08
0.000235271
-2.83442e-08
1.35377e-08
0.00023644
-2.95483e-08
1.40886e-08
0.00023763
-3.08898e-08
1.47472e-08
0.000238818
-3.22191e-08
1.53643e-08
0.00023998
-3.36728e-08
1.60737e-08
0.000241087
-3.51347e-08
1.676e-08
0.000242114
-3.67117e-08
1.7527e-08
0.000243037
-3.83144e-08
1.82861e-08
0.000243841
-4.00262e-08
1.91175e-08
0.000244519
-4.17784e-08
1.99536e-08
0.000245072
-4.36364e-08
2.08564e-08
0.000245502
-4.55479e-08
2.17745e-08
0.000245804
-4.75639e-08
2.27557e-08
0.000245968
-4.96449e-08
2.37614e-08
0.00024598
-5.1831e-08
2.48285e-08
0.00024582
-5.40927e-08
2.59281e-08
0.000245468
-5.64614e-08
2.70888e-08
0.000244903
-5.89158e-08
2.82895e-08
0.000244105
-6.14807e-08
2.95522e-08
0.000243052
-6.41411e-08
3.08618e-08
0.000241729
-6.69169e-08
3.22357e-08
0.000240129
-6.9798e-08
3.36633e-08
0.000238264
-7.2801e-08
3.51584e-08
0.000236162
-7.59197e-08
3.67142e-08
0.000233861
-7.91682e-08
3.8342e-08
0.000231403
-8.25435e-08
4.00376e-08
0.000228817
-8.60579e-08
4.18106e-08
0.000226118
-8.9711e-08
4.3659e-08
0.000223292
-9.35138e-08
4.55913e-08
0.000220303
-9.7468e-08
4.76071e-08
0.000217109
-1.01584e-07
4.97141e-08
0.000213683
-1.05866e-07
5.19136e-08
0.000210025
-1.10323e-07
5.42128e-08
0.000206158
-1.14961e-07
5.66143e-08
0.000202111
-1.19791e-07
5.91254e-08
0.000197912
-1.2482e-07
6.17498e-08
0.000193586
-1.30058e-07
6.44947e-08
0.000189166
-1.35514e-07
6.73652e-08
0.0001847
-1.41199e-07
7.03687e-08
0.000180241
-1.47124e-07
7.3511e-08
0.00017584
-1.53299e-07
7.67998e-08
0.000171509
-1.59735e-07
8.02419e-08
0.00016722
-1.66446e-07
8.38451e-08
0.000162898
-1.73442e-07
8.7617e-08
0.00015844
-1.80736e-07
9.15658e-08
0.00015373
-1.88342e-07
9.57002e-08
0.000148671
-1.96273e-07
1.00029e-07
0.000143167
-2.04545e-07
1.04563e-07
0.000137137
-2.13175e-07
1.0931e-07
0.000130579
-2.2218e-07
1.14285e-07
0.000123602
-2.31579e-07
1.19497e-07
0.000116415
-2.41395e-07
1.2496e-07
0.000109267
-2.51648e-07
1.30687e-07
0.000102386
-2.62363e-07
1.36693e-07
9.59826e-05
-2.7356e-07
1.4299e-07
9.02106e-05
-2.85265e-07
1.49594e-07
8.50695e-05
-2.97496e-07
1.56517e-07
8.03502e-05
-3.10281e-07
1.63777e-07
7.57347e-05