/*--------------------------------*- C++ -*----------------------------------*\
| =========                 |                                                 |
| \\      /  F ield         | OpenFOAM: The Open Source CFD Toolbox           |
|  \\    /   O peration     | Version:  2012                                  |
|   \\  /    A nd           | Website:  www.openfoam.com                      |
|    \\/     M anipulation  |                                                 |
\*---------------------------------------------------------------------------*/
FoamFile
{
    version     2.0;
    format      ascii;
    class       volVectorField;
    location    "12600";
    object      U;
}
// * * * * * * * * * * * * * * * * * * * * * * * * * * * * * * * * * * * * * //

dimensions      [0 1 -1 0 0 0 0];


internalField   nonuniform List<vector> 
2560
(
(0.0751446 3.20846e-08 -2.33098e-06)
(0.0751448 -1.18637e-08 4.55241e-22)
(0.226324 9.90612e-08 -3.54339e-06)
(0.226324 -2.2477e-08 -1.68391e-10)
(0.379489 1.52352e-07 -3.3035e-06)
(0.37949 -4.54085e-08 -5.73905e-10)
(0.534656 1.79341e-07 -2.45488e-06)
(0.534657 -9.13567e-08 -1.23792e-09)
(0.691836 1.9317e-07 -1.49303e-06)
(0.691838 -1.27438e-07 -1.71926e-09)
(0.851041 2.09027e-07 -8.98356e-07)
(0.851043 -1.39884e-07 -2.04345e-09)
(1.01229 2.23808e-07 -5.89095e-07)
(1.01229 -1.42766e-07 -2.33855e-09)
(1.1756 2.34015e-07 -4.22321e-07)
(1.1756 -1.45219e-07 -2.67684e-09)
(1.34101 2.40857e-07 -3.24056e-07)
(1.34102 -1.48092e-07 -3.09054e-09)
(1.50857 2.46942e-07 -2.61045e-07)
(1.50858 -1.49819e-07 -3.57997e-09)
(1.67833 2.51263e-07 -2.17705e-07)
(1.67833 -1.52108e-07 -4.14599e-09)
(1.85034 2.55162e-07 -1.86128e-07)
(1.85034 -1.53932e-07 -4.79311e-09)
(2.02467 2.58657e-07 -1.61977e-07)
(2.02467 -1.55547e-07 -5.52129e-09)
(2.20139 2.6156e-07 -1.427e-07)
(2.2014 -1.57265e-07 -6.3365e-09)
(2.38059 2.64413e-07 -1.26704e-07)
(2.38059 -1.58683e-07 -7.24332e-09)
(2.56233 2.6677e-07 -1.12945e-07)
(2.56233 -1.603e-07 -8.24708e-09)
(2.74671 2.69327e-07 -1.00699e-07)
(2.74671 -1.61496e-07 -9.35243e-09)
(2.9338 2.71559e-07 -8.94472e-08)
(2.9338 -1.62826e-07 -1.05658e-08)
(3.1237 2.73501e-07 -7.87981e-08)
(3.1237 -1.64305e-07 -1.18962e-08)
(3.31648 2.75645e-07 -6.84456e-08)
(3.31648 -1.65454e-07 -1.33481e-08)
(3.51223 2.77803e-07 -5.8142e-08)
(3.51223 -1.66497e-07 -1.49272e-08)
(3.71101 2.79596e-07 -4.76746e-08)
(3.71102 -1.67819e-07 -1.66457e-08)
(3.91291 2.81111e-07 -3.68567e-08)
(3.91291 -1.69361e-07 -1.85126e-08)
(4.11797 2.83559e-07 -2.55216e-08)
(4.11797 -1.69914e-07 -2.05293e-08)
(4.32625 2.85135e-07 -1.3512e-08)
(4.32625 -1.71307e-07 -2.27085e-08)
(4.53779 2.86863e-07 -6.72707e-10)
(4.53779 -1.7251e-07 -2.50663e-08)
(4.75261 2.88236e-07 1.31458e-08)
(4.75261 -1.74056e-07 -2.19912e-08)
(4.97072 2.90897e-07 2.80904e-08)
(4.97072 -1.74299e-07 -6.44533e-09)
(5.19211 2.92024e-07 3.69003e-08)
(5.19211 -1.76073e-07 1.02864e-08)
(5.41676 2.9403e-07 4.02476e-08)
(5.41676 -1.76968e-07 2.8374e-08)
(5.64463 2.95173e-07 4.38272e-08)
(5.64463 -1.78736e-07 4.79886e-08)
(5.87563 2.9802e-07 4.76579e-08)
(5.87563 -1.78817e-07 6.93044e-08)
(6.10969 2.99036e-07 5.17634e-08)
(6.10969 -1.80745e-07 9.25076e-08)
(6.34668 3.0097e-07 5.61447e-08)
(6.34668 -1.81786e-07 1.17797e-07)
(6.58646 3.02516e-07 6.08183e-08)
(6.58646 -1.83239e-07 1.45376e-07)
(6.82886 3.05147e-07 6.58085e-08)
(6.82886 -1.83651e-07 1.7546e-07)
(7.07368 3.0634e-07 7.11395e-08)
(7.07368 -1.85534e-07 2.08281e-07)
(7.32069 3.08256e-07 7.68154e-08)
(7.32069 -1.86748e-07 2.33741e-07)
(7.56963 3.10023e-07 8.28567e-08)
(7.56963 -1.88156e-07 2.34288e-07)
(7.82022 3.12633e-07 8.92919e-08)
(7.82022 -1.88782e-07 2.35132e-07)
(8.07213 3.14245e-07 9.61532e-08)
(8.07214 -1.90461e-07 2.36261e-07)
(8.32502 3.16058e-07 1.03449e-07)
(8.32502 -1.92013e-07 2.37667e-07)
(8.5785 3.17835e-07 1.11198e-07)
(8.57851 -1.93662e-07 2.39342e-07)
(8.83216 3.21289e-07 1.19443e-07)
(8.83217 -1.93723e-07 2.41281e-07)
(9.08556 3.21578e-07 1.28205e-07)
(9.08556 -1.97017e-07 2.43478e-07)
(9.33823 3.25856e-07 1.37514e-07)
(9.33823 -1.96425e-07 2.4593e-07)
(9.58966 3.25273e-07 1.47384e-07)
(9.58966 -2.0077e-07 2.48632e-07)
(9.83932 3.31354e-07 1.57862e-07)
(9.83932 -1.98563e-07 2.51581e-07)
(10.0867 3.31229e-07 1.69013e-07)
(10.0867 -2.02661e-07 2.54773e-07)
(10.3311 3.32409e-07 1.80779e-07)
(10.3311 -2.05563e-07 2.58204e-07)
(10.5721 3.35834e-07 1.93182e-07)
(10.5721 -2.06345e-07 2.61871e-07)
(10.8089 3.4715e-07 2.0648e-07)
(10.8089 -1.99347e-07 2.65769e-07)
(11.041 3.28698e-07 2.20419e-07)
(11.041 -2.22261e-07 2.6989e-07)
(11.2677 3.56937e-07 2.35119e-07)
(11.2677 -1.98606e-07 2.7423e-07)
(11.4883 3.40183e-07 2.5077e-07)
(11.4883 -2.20102e-07 2.78778e-07)
(11.7022 3.50898e-07 2.67095e-07)
(11.7022 -2.1427e-07 2.83524e-07)
(11.9087 3.58349e-07 2.84431e-07)
(11.9087 -2.11854e-07 2.88455e-07)
(12.1071 3.46941e-07 3.02541e-07)
(12.1071 -2.28471e-07 3.02527e-07)
(12.2968 3.67862e-07 3.21516e-07)
(12.2968 -2.1292e-07 3.21502e-07)
(12.477 3.56149e-07 3.41441e-07)
(12.477 -2.30191e-07 3.41427e-07)
(12.6472 3.72229e-07 3.62256e-07)
(12.6472 -2.19833e-07 3.6224e-07)
(12.8067 3.64667e-07 3.84e-07)
(12.8067 -2.33327e-07 3.83984e-07)
(12.955 3.69114e-07 4.06369e-07)
(12.955 -2.34995e-07 4.06352e-07)
(13.0914 3.85702e-07 4.29715e-07)
(13.0914 -2.24709e-07 4.29698e-07)
(13.2155 3.74276e-07 4.53954e-07)
(13.2155 -2.42671e-07 4.53936e-07)
(13.3267 3.78679e-07 4.78599e-07)
(13.3267 -2.44986e-07 4.78581e-07)
(13.4246 4.00759e-07 5.04137e-07)
(13.4246 -2.29838e-07 5.04118e-07)
(13.5089 3.70801e-07 5.30036e-07)
(13.5089 -2.66956e-07 5.30016e-07)
(13.5792 4.26204e-07 5.56729e-07)
(13.5792 -2.18909e-07 5.56708e-07)
(13.6353 3.598e-07 5.83568e-07)
(13.6353 -2.92901e-07 5.83547e-07)
(13.6771 4.46856e-07 6.10811e-07)
(13.6771 -2.13636e-07 6.10788e-07)
(13.7043 3.6837e-07 6.38412e-07)
(13.7043 -3.00146e-07 6.3839e-07)
(13.7171 4.48485e-07 6.66029e-07)
(13.7171 -2.28253e-07 6.66004e-07)
(13.7155 3.8855e-07 6.93982e-07)
(13.7155 -2.96644e-07 6.93958e-07)
(13.6995 4.48749e-07 7.21896e-07)
(13.6995 -2.45095e-07 7.2187e-07)
(13.6696 4.06692e-07 7.50036e-07)
(13.6696 -2.96039e-07 7.5001e-07)
(13.6258 4.46451e-07 7.77941e-07)
(13.6258 -2.65355e-07 7.77914e-07)
(13.5687 4.3474e-07 8.06229e-07)
(13.5687 -2.86393e-07 8.06202e-07)
(13.4987 4.40156e-07 8.34315e-07)
(13.4987 -2.90473e-07 8.34286e-07)
(13.4163 4.63158e-07 8.62836e-07)
(13.4163 -2.7723e-07 8.62808e-07)
(13.3221 4.33702e-07 8.91205e-07)
(13.3221 -3.16625e-07 8.91175e-07)
(13.2166 4.89299e-07 9.19966e-07)
(13.2166 -2.71228e-07 9.19936e-07)
(13.1007 4.41212e-07 9.49044e-07)
(13.1007 -3.29713e-07 9.49012e-07)
(12.975 4.96414e-07 9.7826e-07)
(12.975 -2.85175e-07 9.78229e-07)
(12.8402 4.64062e-07 1.00809e-06)
(12.8402 -3.28405e-07 1.00806e-06)
(12.697 5.06263e-07 1.03846e-06)
(12.697 -2.97365e-07 1.03842e-06)
(12.5464 4.74923e-07 1.06934e-06)
(12.5464 -3.40096e-07 1.0693e-06)
(12.3889 5.22722e-07 1.10087e-06)
(12.3889 -3.03998e-07 1.10084e-06)
(12.2254 4.86419e-07 1.13303e-06)
(12.2254 -3.52247e-07 1.13299e-06)
(12.0566 5.36453e-07 1.16578e-06)
(12.0566 -3.14504e-07 1.16575e-06)
(11.8833 5.11688e-07 1.19965e-06)
(11.8833 -3.51828e-07 1.19961e-06)
(11.7061 5.41269e-07 1.23419e-06)
(11.7061 -3.35188e-07 1.23416e-06)
(11.5257 5.33705e-07 1.26973e-06)
(11.5257 -3.55974e-07 1.26969e-06)
(11.3428 5.46735e-07 1.3058e-06)
(11.3428 -3.56622e-07 1.30576e-06)
(11.1579 5.70832e-07 1.34333e-06)
(11.1579 -3.4646e-07 1.34329e-06)
(10.9716 5.48405e-07 1.38165e-06)
(10.9716 -3.83387e-07 1.38161e-06)
(10.7845 5.85017e-07 1.42058e-06)
(10.7845 -3.61501e-07 1.42054e-06)
(10.5971 5.85342e-07 1.46099e-06)
(10.5971 -3.76599e-07 1.46095e-06)
(10.4097 5.84028e-07 1.50197e-06)
(10.4097 -3.93491e-07 1.50193e-06)
(10.2228 6.20961e-07 1.54425e-06)
(10.2228 -3.73001e-07 1.5442e-06)
(10.0368 5.98722e-07 1.58759e-06)
(10.0368 -4.11773e-07 1.58754e-06)
(9.8519 6.29946e-07 1.63136e-06)
(9.8519 -3.98127e-07 1.63131e-06)
(9.6685 6.37816e-07 1.67643e-06)
(9.6685 -4.07816e-07 1.67638e-06)
(9.48683 6.46316e-07 1.72247e-06)
(9.48683 -4.18167e-07 1.72242e-06)
(9.3071 6.55148e-07 1.76917e-06)
(9.30709 -4.2801e-07 1.76912e-06)
(9.1295 6.80127e-07 1.817e-06)
(9.1295 -4.23308e-07 1.81695e-06)
(8.9542 6.71237e-07 1.8655e-06)
(8.9542 -4.52073e-07 1.86544e-06)
(8.78134 7.09488e-07 1.91479e-06)
(8.78134 -4.35699e-07 1.91473e-06)
(8.61102 7.02267e-07 1.9651e-06)
(8.61102 -4.64074e-07 1.96504e-06)
(8.44334 7.2326e-07 2.0156e-06)
(8.44334 -4.66777e-07 2.01554e-06)
(8.27836 7.46116e-07 2.0671e-06)
(8.27836 -4.66401e-07 2.06703e-06)
(8.11614 7.50673e-07 2.11942e-06)
(8.11614 -4.87624e-07 2.11935e-06)
(7.95672 7.64044e-07 2.17177e-06)
(7.95671 -4.98102e-07 2.17171e-06)
(7.80011 8.02474e-07 2.22522e-06)
(7.80011 -4.87828e-07 2.22515e-06)
(7.64633 7.75661e-07 2.27847e-06)
(7.64632 -5.39892e-07 2.2784e-06)
(7.49537 8.58803e-07 2.33269e-06)
(7.49537 -4.87634e-07 2.33262e-06)
(7.34723 7.95508e-07 2.38693e-06)
(7.34723 -5.77565e-07 2.38686e-06)
(7.2019 9.07345e-07 2.44171e-06)
(7.20189 -4.9979e-07 2.44163e-06)
(7.05933 8.20883e-07 2.49622e-06)
(7.05933 -6.14184e-07 2.49614e-06)
(6.91951 9.59551e-07 2.55099e-06)
(6.91951 -5.13315e-07 2.5509e-06)
(6.78239 8.63964e-07 2.60615e-06)
(6.78239 -6.37955e-07 2.60607e-06)
(6.64795 9.92388e-07 2.66081e-06)
(6.64795 -5.51778e-07 2.66071e-06)
(6.51613 9.25147e-07 2.71601e-06)
(6.51613 -6.48883e-07 2.71592e-06)
(6.38689 1.02046e-06 2.77029e-06)
(6.38689 -6.01178e-07 2.77017e-06)
(6.26019 9.91599e-07 2.82477e-06)
(6.26019 -6.60222e-07 2.82468e-06)
(6.13598 1.06604e-06 2.87895e-06)
(6.13598 -6.3992e-07 2.87882e-06)
(6.01422 1.0358e-06 2.93211e-06)
(6.01422 -6.99909e-07 2.93202e-06)
(5.89486 1.14505e-06 2.98575e-06)
(5.89486 -6.52876e-07 2.98561e-06)
(5.77785 1.06473e-06 3.0378e-06)
(5.77785 -7.61395e-07 3.03771e-06)
(5.66317 1.22763e-06 3.08961e-06)
(5.66317 -6.70827e-07 3.08945e-06)
(5.55077 1.11578e-06 3.14037e-06)
(5.55076 -8.07682e-07 3.14027e-06)
(5.44061 1.30766e-06 3.19088e-06)
(5.4406 -7.00965e-07 3.19069e-06)
(5.33265 1.15749e-06 3.2392e-06)
(5.33265 -8.70587e-07 3.23911e-06)
(5.22688 1.40867e-06 3.28726e-06)
(5.22688 -7.21046e-07 3.28703e-06)
(5.12325 1.20694e-06 3.33327e-06)
(5.12325 -9.33301e-07 3.33319e-06)
(5.02175 1.51449e-06 3.37906e-06)
(5.02175 -7.48779e-07 3.37879e-06)
(4.92233 1.24961e-06 3.42179e-06)
(4.92233 -1.01048e-06 3.42173e-06)
(4.82497 1.64316e-06 3.46454e-06)
(4.82497 -7.68011e-07 3.4642e-06)
(4.72964 1.28617e-06 3.50338e-06)
(4.72964 -1.10138e-06 3.50335e-06)
(4.63633 1.7942e-06 3.54262e-06)
(4.63633 -7.81586e-07 3.5422e-06)
(4.545 1.31803e-06 3.5773e-06)
(4.545 -1.20417e-06 3.57733e-06)
(4.45563 1.96771e-06 3.61295e-06)
(4.45563 -7.92361e-07 3.61243e-06)
(4.36821 1.33735e-06 3.6428e-06)
(4.36821 -1.32582e-06 3.64291e-06)
(4.28272 2.17167e-06 3.67423e-06)
(4.28272 -7.96112e-07 3.67355e-06)
(4.19915 1.34116e-06 3.69826e-06)
(4.19915 -1.4677e-06 3.69848e-06)
(4.11748 2.42499e-06 3.72582e-06)
(4.11747 -7.7885e-07 3.72493e-06)
(4.0377 1.30381e-06 3.74329e-06)
(4.0377 -1.65284e-06 3.7437e-06)
(3.95981 2.74228e-06 3.76647e-06)
(3.9598 -7.3236e-07 3.76529e-06)
(3.88379 1.22728e-06 3.77706e-06)
(3.88379 -1.87511e-06 3.77774e-06)
(3.80965 3.12282e-06 3.79572e-06)
(3.80965 -6.65898e-07 3.79414e-06)
(3.73738 1.09875e-06 3.79796e-06)
(3.73738 -2.14112e-06 3.79904e-06)
(3.66697 3.59428e-06 3.81201e-06)
(3.66697 -5.63229e-07 3.80985e-06)
(3.59842 8.94198e-07 3.80453e-06)
(3.59842 -2.46552e-06 3.8062e-06)
(3.53172 4.18519e-06 3.8143e-06)
(3.53172 -4.11322e-07 3.81133e-06)
(3.46687 5.80842e-07 3.7954e-06)
(3.46687 -2.86738e-06 3.79795e-06)
(3.40387 4.93378e-06 3.80126e-06)
(3.40386 -1.9311e-07 3.79712e-06)
(3.34268 1.22544e-07 3.76908e-06)
(3.34268 -3.36279e-06 3.7729e-06)
(3.28331 5.87906e-06 3.77132e-06)
(3.28331 1.01247e-07 3.7655e-06)
(3.22572 -5.16898e-07 3.72376e-06)
(3.22572 -3.9589e-06 3.72943e-06)
(3.16988 7.07366e-06 3.72404e-06)
(3.16988 4.83913e-07 3.71582e-06)
(3.11573 -1.416e-06 3.65696e-06)
(3.11573 -4.69225e-06 3.66535e-06)
(3.06321 8.6268e-06 3.65818e-06)
(3.06321 1.00766e-06 3.64649e-06)
(3.01225 -2.69026e-06 3.56723e-06)
(3.01225 -5.61785e-06 3.57961e-06)
(2.96277 1.06549e-05 3.57208e-06)
(2.96276 1.70957e-06 3.55536e-06)
(2.91466 -4.4544e-06 3.45199e-06)
(2.91465 -6.76311e-06 3.47022e-06)
(2.86783 1.33077e-05 3.46646e-06)
(2.86783 2.62741e-06 3.44242e-06)
(2.82219 -6.91437e-06 3.30735e-06)
(2.82219 -8.20845e-06 3.33416e-06)
(2.77765 1.68367e-05 3.33829e-06)
(2.77765 3.85394e-06 3.30354e-06)
(2.73415 -1.03015e-05 3.13237e-06)
(2.73414 -1.00036e-05 3.17183e-06)
(2.69161 2.14825e-05 3.19039e-06)
(2.69161 5.40242e-06 3.22941e-06)
(2.65003 -1.49376e-05 2.92137e-06)
(2.65002 -1.2209e-05 3.38323e-06)
(2.60937 2.76678e-05 3.02191e-06)
(2.60937 7.3734e-06 3.43011e-06)
(2.56967 -2.12768e-05 2.67207e-06)
(2.56967 -1.49031e-05 3.6142e-06)
(2.53094 3.58894e-05 2.83592e-06)
(2.53094 9.80013e-06 3.64023e-06)
(2.49323 -2.99023e-05 2.37822e-06)
(2.49322 -1.81235e-05 3.86611e-06)
(2.45654 4.68826e-05 2.63926e-06)
(2.45654 1.27494e-05 3.85832e-06)
(2.42092 -4.1696e-05 2.03549e-06)
(2.42092 -2.1961e-05 4.14293e-06)
(2.38638 6.16677e-05 2.43845e-06)
(2.38637 1.6275e-05 4.0817e-06)
(2.3529 -5.78204e-05 1.63544e-06)
(2.3529 -2.64271e-05 4.45012e-06)
(2.32049 8.16256e-05 2.24574e-06)
(2.32049 2.03539e-05 4.30585e-06)
(2.28913 -7.99286e-05 1.1634e-06)
(2.28912 -3.14962e-05 4.79543e-06)
(2.25876 0.000108747 2.07593e-06)
(2.25875 2.49321e-05 4.52344e-06)
(2.22934 -0.00011035 6.8877e-07)
(2.22933 -3.70427e-05 5.19009e-06)
(2.2008 0.000143546 1.85629e-06)
(2.20079 2.97456e-05 4.81233e-06)
(2.17306 -0.000147683 4.88247e-07)
(2.17306 -4.26782e-05 5.64695e-06)
(2.14608 0.000177792 1.2876e-06)
(2.14608 3.42692e-05 5.46764e-06)
(2.1198 -0.000176345 2.71594e-07)
(2.1198 -4.78685e-05 6.16802e-06)
(2.09416 0.000203272 6.58798e-07)
(2.09416 3.79086e-05 6.19512e-06)
(2.06915 -0.00019557 3.76459e-08)
(2.06914 -5.20643e-05 6.75097e-06)
(2.04474 0.000219207 3.43909e-19)
(2.04474 4.01161e-05 6.99507e-06)
(2.02097 -0.000192048 5.96851e-07)
(2.02097 -5.47918e-05 6.83346e-06)
(1.99788 0.00021287 2.59614e-07)
(1.99788 4.05954e-05 7.25677e-06)
(1.97547 -0.000178109 1.39493e-06)
(1.97547 -5.57993e-05 6.88474e-06)
(1.95378 0.000195115 5.43253e-07)
(1.95378 3.93309e-05 7.54433e-06)
(1.93279 -0.000152653 2.24145e-06)
(1.93279 -5.51991e-05 6.954e-06)
(1.9125 0.000165753 8.50451e-07)
(1.9125 3.65368e-05 7.87371e-06)
(1.8929 -0.00012091 2.86859e-06)
(1.8929 -5.33179e-05 7.31743e-06)
(1.87397 0.000135845 1.45935e-06)
(1.87397 3.25688e-05 8.2526e-06)
(1.85566 -9.1883e-05 3.3598e-06)
(1.85565 -5.06354e-05 7.89321e-06)
(1.83789 0.000112556 2.29123e-06)
(1.83789 2.79086e-05 8.67822e-06)
(1.82055 -6.8549e-05 3.91974e-06)
(1.82055 -4.76572e-05 8.47471e-06)
(1.80349 9.45684e-05 3.13562e-06)
(1.80348 2.29583e-05 9.14563e-06)
(1.78653 -4.9659e-05 4.55027e-06)
(1.78653 -4.46749e-05 9.06548e-06)
(1.76949 8.07675e-05 4.00046e-06)
(1.76949 1.79166e-05 9.65064e-06)
(1.75217 -3.4217e-05 5.24847e-06)
(1.75217 -4.18712e-05 9.66829e-06)
(1.73442 7.03321e-05 4.89546e-06)
(1.73441 1.29555e-05 1.01897e-05)
(1.71607 -2.14785e-05 6.00924e-06)
(1.71607 -3.9406e-05 1.02848e-05)
(1.69707 6.25835e-05 5.81672e-06)
(1.69706 8.1526e-06 1.07599e-05)
(1.6774 -1.08062e-05 6.82474e-06)
(1.67739 -3.73388e-05 1.09165e-05)
(1.6571 5.69696e-05 6.76301e-06)
(1.65709 3.52348e-06 1.1359e-05)
(1.63621 -1.69953e-06 7.69042e-06)
(1.6362 -3.56994e-05 1.1565e-05)
(1.61474 5.31142e-05 7.74104e-06)
(1.61473 -8.89062e-07 1.19854e-05)
(1.59265 6.19078e-06 8.60401e-06)
(1.59265 -3.45416e-05 1.22313e-05)
(1.5699 5.07237e-05 8.74918e-06)
(1.5699 -5.07206e-06 1.26378e-05)
(1.5464 1.31598e-05 9.55943e-06)
(1.54639 -3.38776e-05 1.29165e-05)
(1.52205 4.95199e-05 9.78093e-06)
(1.52204 -9.08301e-06 1.33159e-05)
(1.49678 1.94528e-05 1.05547e-05)
(1.49677 -3.36973e-05 1.36227e-05)
(1.47051 4.93498e-05 1.08538e-05)
(1.47051 -1.29199e-05 1.40206e-05)
(1.44319 2.52683e-05 1.16136e-05)
(1.44318 -3.39842e-05 1.43527e-05)
(1.41475 5.00753e-05 1.19929e-05)
(1.41475 -1.66162e-05 1.47545e-05)
(1.38525 3.07708e-05 1.27561e-05)
(1.38524 -3.47167e-05 1.51109e-05)
(1.35479 5.15357e-05 1.3213e-05)
(1.35478 -2.02665e-05 1.55219e-05)
(1.32358 3.6134e-05 1.40009e-05)
(1.32357 -3.58371e-05 1.59031e-05)
(1.2919 5.36658e-05 1.45424e-05)
(1.29189 -2.39006e-05 1.63282e-05)
(1.26 4.14999e-05 1.53671e-05)
(1.25999 -3.73004e-05 1.67353e-05)
(1.22806 5.64004e-05 1.59783e-05)
(1.22805 -2.75724e-05 1.71784e-05)
(1.19618 4.68997e-05 1.68185e-05)
(1.19616 -3.916e-05 1.76123e-05)
(1.1643 5.97133e-05 1.7472e-05)
(1.16428 -3.13155e-05 1.80767e-05)
(1.13224 5.2306e-05 1.83069e-05)
(1.13223 -4.15198e-05 1.85387e-05)
(1.09984 6.36474e-05 1.90095e-05)
(1.09982 -3.51097e-05 1.90965e-05)
(1.06696 5.78479e-05 1.98694e-05)
(1.06694 -4.43237e-05 1.99489e-05)
(1.03366 6.81738e-05 2.06475e-05)
(1.03364 -3.90193e-05 2.07409e-05)
(1.00009 6.36919e-05 2.15711e-05)
(1.00007 -4.74778e-05 2.16603e-05)
(0.966404 7.32211e-05 2.24336e-05)
(0.966381 -4.31637e-05 2.25342e-05)
(0.93276 6.99127e-05 2.34315e-05)
(0.932736 -5.0983e-05 2.35303e-05)
(0.899292 7.88208e-05 2.43785e-05)
(0.899266 -4.75712e-05 2.4487e-05)
(0.866165 7.64873e-05 2.5441e-05)
(0.866138 -5.49427e-05 2.55495e-05)
(0.833589 8.50016e-05 2.6476e-05)
(0.83356 -5.22833e-05 2.65929e-05)
(0.801805 8.35351e-05 2.76251e-05)
(0.801775 -5.93232e-05 2.77436e-05)
(0.771012 9.19053e-05 2.87646e-05)
(0.770981 -5.72385e-05 2.88906e-05)
(0.741242 9.10217e-05 2.99748e-05)
(0.74121 -6.42498e-05 3.01038e-05)
(0.712343 9.95316e-05 3.11806e-05)
(0.71231 -6.25251e-05 3.13165e-05)
(0.683987 9.89751e-05 3.24189e-05)
(0.683952 -6.97899e-05 3.2559e-05)
(0.65573 0.000107872 3.36764e-05)
(0.655692 -6.82469e-05 3.38227e-05)
(0.627121 0.000107544 3.49735e-05)
(0.62708 -7.58967e-05 3.5125e-05)
(0.597792 0.000117102 3.6329e-05)
(0.597746 -7.43334e-05 3.64855e-05)
(0.567409 0.00011671 3.77005e-05)
(0.567358 -8.26967e-05 3.78625e-05)
(0.535726 0.000127219 3.91698e-05)
(0.535668 -8.09061e-05 3.93349e-05)
(0.502801 0.000126588 4.06592e-05)
(0.502736 -9.02033e-05 4.08296e-05)
(0.469117 0.000138352 4.22995e-05)
(0.469045 -8.79743e-05 4.24702e-05)
(0.43551 0.000137296 4.39522e-05)
(0.435432 -9.84428e-05 4.41279e-05)
(0.402913 0.000150644 4.57779e-05)
(0.402831 -9.55579e-05 4.59509e-05)
(0.372134 0.000148721 4.75463e-05)
(0.372048 -0.000107695 4.77254e-05)
(0.343859 0.000164239 4.95371e-05)
(0.343773 -0.000103697 4.9711e-05)
(0.318549 0.000161075 5.14105e-05)
(0.318463 -0.00011793 5.15931e-05)
(0.29609 0.000179292 5.35235e-05)
(0.296005 -0.000112428 5.36994e-05)
(0.275659 0.000174289 5.54042e-05)
(0.275572 -0.000129395 5.55932e-05)
(0.256107 0.000195907 5.75744e-05)
(0.256015 -0.000121841 5.77537e-05)
(0.236604 0.000188315 5.94343e-05)
(0.236504 -0.000142318 5.96303e-05)
(0.217193 0.000214363 6.17541e-05)
(0.217084 -0.000131857 6.19337e-05)
(0.198669 0.000203236 6.37239e-05)
(0.198558 -0.000156795 6.39237e-05)
(0.182076 0.000235037 6.63788e-05)
(0.181969 -0.000142302 6.65547e-05)
(0.168204 0.000219174 6.85552e-05)
(0.168108 -0.000172882 6.87593e-05)
(0.157467 0.0002579 7.15435e-05)
(0.157389 -0.000153404 7.17183e-05)
(0.150038 0.000236269 7.38837e-05)
(0.149982 -0.000190605 7.41005e-05)
(0.145624 0.00028336 7.71101e-05)
(0.145589 -0.000164951 7.72932e-05)
(0.143482 0.000254026 7.92922e-05)
(0.143465 -0.000210606 7.95368e-05)
(0.142795 0.000311613 8.25232e-05)
(0.142789 -0.000176938 8.27265e-05)
(0.142871 0.00027231 8.43414e-05)
(0.14287 -0.000233166 8.46283e-05)
(0.143087 0.000342853 8.75454e-05)
(0.143084 -0.000189378 8.77768e-05)
(0.142733 0.00029105 8.90889e-05)
(0.142719 -0.000258491 8.94285e-05)
(0.140979 0.000377876 9.25999e-05)
(0.140942 -0.000201695 9.28595e-05)
(0.137052 0.000310285 9.40412e-05)
(0.136982 -0.000286676 9.44341e-05)
(0.130354 0.000417017 9.79113e-05)
(0.130239 -0.000213785 9.81832e-05)
(0.120515 0.000329311 9.9002e-05)
(0.120339 -0.000318543 9.94315e-05)
(0.107491 0.000460582 0.000103171)
(0.107233 -0.000225562 0.00010342)
(0.0913007 0.000347955 0.000103893)
(0.0909253 -0.000354358 0.000104323)
(0.0718493 0.000509271 0.000108586)
(0.0712971 -0.000236517 0.000108759)
(0.0493672 0.000365771 0.000108992)
(0.0485478 -0.000394656 0.00010937)
(0.0245258 0.000563731 0.000114451)
(0.0233311 -0.000246166 0.000114482)
(-0.00212119 0.000382343 0.00011454)
(-0.00370151 -0.000440018 0.000114801)
(-0.0306853 0.000625093 0.000120825)
(-0.0321955 -0.00025396 0.000120692)
(-0.0614117 0.000396101 0.000120029)
(-0.0625864 -0.000490862 0.000120584)
(-0.0942779 0.000694246 0.000127208)
(-0.0951567 -0.000259675 0.000127337)
(-0.128607 0.000407368 0.000125629)
(-0.129289 -0.000548657 0.00012662)
(-0.163131 0.000772902 0.000134002)
(-0.163681 -0.000262723 0.000134481)
(-0.196454 0.00041546 0.00013133)
(-0.196905 -0.000615119 0.000132941)
(-0.227599 0.000863576 0.000141124)
(-0.227969 -0.00026313 0.00014201)
(-0.255641 0.000419691 0.000136917)
(-0.255938 -0.000692152 0.000139348)
(-0.278901 0.000969643 0.000148445)
(-0.27912 -0.000260924 0.000149725)
(-0.295418 0.000418901 0.000142068)
(-0.295558 -0.00078205 0.000145522)
(-0.304326 0.00109523 0.000155748)
(-0.304392 -0.000256317 0.000157252)
(-0.306693 0.000411823 0.000146507)
(-0.306703 -0.000886793 0.000151113)
(-0.305199 0.0012446 0.000162758)
(-0.305182 -0.000249977 0.000164132)
(-0.302983 0.000395718 0.000149734)
(-0.302966 -0.00100882 0.000155692)
(-0.302292 0.00142329 0.000169651)
(-0.302293 -0.000241997 0.000170552)
(-0.303447 0.000368324 0.000152321)
(-0.303463 -0.00114883 0.000160173)
(-0.305175 0.00163772 0.000176839)
(-0.305188 -0.000233456 0.000176918)
(-0.305737 0.000324318 0.000153099)
(-0.305727 -0.00130898 0.000163736)
(-0.303603 0.00189655 0.000183015)
(-0.303549 -0.000226802 0.000181522)
(-0.297769 0.000257753 0.000150409)
(-0.297657 -0.0014893 0.000178546)
(-0.288023 0.00221079 0.00018699)
(-0.287846 -0.00022649 0.000182498)
(-0.274958 0.000158713 0.000142295)
(-0.27471 -0.00168967 0.000200948)
(-0.259171 0.00259542 0.000188702)
(-0.258839 -0.0002378 0.000195217)
(-0.240062 1.50986e-05 0.000129551)
(-0.239608 -0.00190698 0.000226285)
(-0.216611 0.00307008 0.000191183)
(-0.215989 -0.000266774 0.000213134)
(-0.189271 -0.00018957 0.000114009)
(-0.188443 -0.00213747 0.000254664)
(-0.159753 0.00365801 0.000196239)
(-0.158702 -0.000320594 0.000230724)
(-0.130358 -0.00047698 9.42657e-05)
(-0.129085 -0.00237945 0.000285676)
(-0.103472 0.00438519 0.000202176)
(-0.102 -0.000404115 0.000247354)
(-0.0801568 -0.000873907 6.76333e-05)
(-0.0784834 -0.00261855 0.000318552)
(-0.0599836 0.00806727 0.000923868)
(-0.0581092 -0.000497248 0.000142828)
(-0.041877 -0.00468677 0.000410677)
(-0.0398275 -0.00237761 0.000118631)
(-0.0264142 0.0084816 0.000502305)
(-0.0243172 -0.000130464 0.000119119)
(-0.0146178 -0.00578453 0.000464725)
(-0.0127616 -0.00206799 0.000100329)
(-0.00610396 0.00877092 0.000548827)
(-0.0046719 0.000269313 9.36457e-05)
(0.00148728 -0.00684984 0.000527309)
(0.0024829 -0.00170784 7.29663e-05)
(0.00996903 0.00890853 0.000597334)
(0.0105867 0.000734378 6.55942e-05)
(0.0179986 -0.00787001 0.000594175)
(0.0183131 -0.00130109 3.93349e-05)
(0.0227809 0.00887523 0.000651396)
(0.0229215 0.00125885 2.52915e-05)
(0.0751448 -1.25237e-08 -1.39315e-21)
(0.0751446 1.3453e-08 3.1377e-06)
(0.226324 -2.35821e-08 1.69799e-10)
(0.226324 4.30086e-08 4.7666e-06)
(0.37949 -4.8413e-08 5.73078e-10)
(0.379489 6.06358e-08 4.44425e-06)
(0.534657 -9.56724e-08 1.23684e-09)
(0.534656 5.67457e-08 3.30345e-06)
(0.691838 -1.32569e-07 1.71887e-09)
(0.691837 4.93099e-08 2.0103e-06)
(0.851043 -1.45475e-07 2.04341e-09)
(0.851041 5.33715e-08 1.21098e-06)
(1.01229 -1.48653e-07 2.33861e-09)
(1.01229 6.06246e-08 7.95682e-07)
(1.1756 -1.51322e-07 2.67688e-09)
(1.1756 6.54614e-08 5.72233e-07)
(1.34102 -1.54357e-07 3.09061e-09)
(1.34101 6.81775e-08 4.41182e-07)
(1.50858 -1.56218e-07 3.58e-09)
(1.50857 7.09502e-08 3.57836e-07)
(1.67833 -1.58619e-07 4.14604e-09)
(1.67833 7.24587e-08 3.0127e-07)
(1.85034 -1.60542e-07 4.79312e-09)
(1.85034 7.39298e-08 2.60891e-07)
(2.02467 -1.62246e-07 5.52133e-09)
(2.02467 7.52484e-08 2.3091e-07)
(2.20139 -1.64045e-07 6.33651e-09)
(2.20139 7.61903e-08 2.07565e-07)
(2.38059 -1.65538e-07 7.24336e-09)
(2.38059 7.72228e-08 1.85947e-07)
(2.56233 -1.67225e-07 8.24709e-09)
(2.56233 7.78905e-08 1.67683e-07)
(2.74671 -1.68488e-07 9.35247e-09)
(2.74671 7.88473e-08 1.5177e-07)
(2.9338 -1.69883e-07 1.05658e-08)
(2.9338 7.95641e-08 1.37492e-07)
(3.1237 -1.71424e-07 1.18963e-08)
(3.1237 8.00462e-08 1.2432e-07)
(3.31648 -1.72634e-07 1.33481e-08)
(3.31648 8.07873e-08 1.11844e-07)
(3.51223 -1.73737e-07 1.49273e-08)
(3.51223 8.15778e-08 9.97412e-08)
(3.71101 -1.75117e-07 1.66457e-08)
(3.71101 8.20442e-08 8.77413e-08)
(3.91291 -1.76717e-07 1.85127e-08)
(3.91291 8.22517e-08 7.56129e-08)
(4.11797 -1.77328e-07 2.05293e-08)
(4.11797 8.34197e-08 6.31547e-08)
(4.32625 -1.78777e-07 1.3512e-08)
(4.32625 8.37249e-08 5.01814e-08)
(4.53779 -1.80039e-07 6.72707e-10)
(4.53779 8.42025e-08 3.65161e-08)
(4.75261 -1.81642e-07 -1.31458e-08)
(4.75261 8.43243e-08 2.19912e-08)
(4.97072 -1.81943e-07 -2.80904e-08)
(4.97072 8.57447e-08 6.44533e-09)
(5.19211 -1.83775e-07 -4.43138e-08)
(5.19211 8.56294e-08 -1.02864e-08)
(5.41676 -1.8473e-07 -6.19766e-08)
(5.41676 8.63923e-08 -2.8374e-08)
(5.64463 -1.86557e-07 -8.12411e-08)
(5.64462 8.62892e-08 -4.38221e-08)
(5.87563 -1.867e-07 -1.02275e-07)
(5.87563 8.788e-08 -4.76534e-08)
(6.10969 -1.88688e-07 -1.25259e-07)
(6.10969 8.76358e-08 -5.17581e-08)
(6.34668 -1.89793e-07 -1.50386e-07)
(6.34668 8.82908e-08 -5.614e-08)
(6.58646 -1.9131e-07 -1.77857e-07)
(6.58646 8.85519e-08 -6.08128e-08)
(6.82886 -1.91788e-07 -2.07883e-07)
(6.82885 8.98737e-08 -6.58037e-08)
(7.07368 -1.93739e-07 -2.40693e-07)
(7.07367 8.97486e-08 -7.11339e-08)
(7.32069 -1.95021e-07 -2.76537e-07)
(7.32069 9.03153e-08 -7.68104e-08)
(7.56963 -1.96499e-07 -3.09911e-07)
(7.56963 9.07222e-08 -8.28509e-08)
(7.82022 -1.97199e-07 -3.11025e-07)
(7.82022 9.19342e-08 -8.92867e-08)
(8.07213 -1.98951e-07 -3.12515e-07)
(8.07213 9.21372e-08 -9.61472e-08)
(8.32502 -2.00582e-07 -3.14372e-07)
(8.32502 9.24931e-08 -1.03444e-07)
(8.5785 -2.02308e-07 -3.16584e-07)
(8.5785 9.28035e-08 -1.11191e-07)
(8.83216 -2.02453e-07 -3.19146e-07)
(8.83216 9.47344e-08 -1.19437e-07)
(9.08556 -2.05829e-07 -3.22049e-07)
(9.08556 9.34857e-08 -1.28199e-07)
(9.33823 -2.05326e-07 -3.25289e-07)
(9.33823 9.61695e-08 -1.37508e-07)
(9.58966 -2.09759e-07 -3.28859e-07)
(9.58965 9.39665e-08 -1.47377e-07)
(9.83932 -2.07648e-07 -3.32756e-07)
(9.83932 9.8374e-08 -1.57856e-07)
(10.0867 -2.1184e-07 -3.36974e-07)
(10.0867 9.65345e-08 -1.69006e-07)
(10.3311 -2.14844e-07 -3.41509e-07)
(10.3311 9.59492e-08 -1.80773e-07)
(10.5721 -2.15727e-07 -3.46354e-07)
(10.5721 9.7561e-08 -1.93174e-07)
(10.8089 -2.08841e-07 -3.51505e-07)
(10.8089 1.07005e-07 -2.06474e-07)
(11.041 -2.31862e-07 -3.56952e-07)
(11.041 8.66254e-08 -2.20412e-07)
(11.2677 -2.08328e-07 -3.62687e-07)
(11.2677 1.12882e-07 -2.35112e-07)
(11.4883 -2.29939e-07 -3.68697e-07)
(11.4883 9.40714e-08 -2.50762e-07)
(11.7022 -2.24239e-07 -3.74969e-07)
(11.7022 1.02681e-07 -2.67087e-07)
(11.9087 -2.21947e-07 -3.81485e-07)
(11.9087 1.07942e-07 -2.84423e-07)
(12.1071 -2.38706e-07 -3.88226e-07)
(12.1071 9.42817e-08 -3.02533e-07)
(12.2968 -2.23289e-07 -3.95167e-07)
(12.2968 1.12875e-07 -3.21508e-07)
(12.477 -2.40714e-07 -4.0228e-07)
(12.477 9.87495e-08 -3.41433e-07)
(12.6472 -2.30502e-07 -4.09532e-07)
(12.6472 1.12353e-07 -3.62247e-07)
(12.8067 -2.44163e-07 -4.16889e-07)
(12.8067 1.02206e-07 -3.83991e-07)
(12.955 -2.45986e-07 -4.24309e-07)
(12.955 1.04015e-07 -4.06359e-07)
(13.0914 -2.35882e-07 -4.3175e-07)
(13.0914 1.17849e-07 -4.29706e-07)
(13.2155 -2.5401e-07 -4.53938e-07)
(13.2155 1.03596e-07 -4.53944e-07)
(13.3267 -2.56523e-07 -4.78583e-07)
(13.3267 1.05075e-07 -4.7859e-07)
(13.4246 -2.41555e-07 -5.0412e-07)
(13.4246 1.24141e-07 -5.04127e-07)
(13.5089 -2.78886e-07 -5.30018e-07)
(13.5089 9.10685e-08 -5.30026e-07)
(13.5792 -2.31033e-07 -5.5671e-07)
(13.5792 1.43275e-07 -5.56718e-07)
(13.6353 -3.05255e-07 -5.8355e-07)
(13.6353 7.35577e-08 -5.83558e-07)
(13.6771 -2.26199e-07 -6.10791e-07)
(13.6771 1.57231e-07 -6.10799e-07)
(13.7043 -3.12955e-07 -6.38393e-07)
(13.7043 7.52333e-08 -6.38402e-07)
(13.7171 -2.41287e-07 -6.66008e-07)
(13.7171 1.5178e-07 -6.66017e-07)
(13.7155 -3.09944e-07 -6.93962e-07)
(13.7155 8.81336e-08 -6.93971e-07)
(13.6995 -2.58637e-07 -7.21874e-07)
(13.6995 1.4458e-07 -7.21883e-07)
(13.6696 -3.09864e-07 -7.50014e-07)
(13.6696 9.86099e-08 -7.50024e-07)
(13.6258 -2.79442e-07 -7.77918e-07)
(13.6258 1.34432e-07 -7.77928e-07)
(13.5687 -3.00782e-07 -8.06206e-07)
(13.5687 1.18605e-07 -8.06216e-07)
(13.4987 -3.05144e-07 -8.3429e-07)
(13.4987 1.19897e-07 -8.34301e-07)
(13.4163 -2.92223e-07 -8.62812e-07)
(13.4163 1.38587e-07 -8.62823e-07)
(13.3221 -3.31923e-07 -8.91179e-07)
(13.3221 1.048e-07 -8.91191e-07)
(13.2167 -2.86868e-07 -9.19941e-07)
(13.2167 1.55895e-07 -9.19953e-07)
(13.1007 -3.4568e-07 -9.49017e-07)
(13.1007 1.03258e-07 -9.49029e-07)
(12.975 -3.01506e-07 -9.78234e-07)
(12.975 1.53759e-07 -9.78247e-07)
(12.8402 -3.45088e-07 -1.00806e-06)
(12.8402 1.16629e-07 -1.00808e-06)
(12.697 -3.14435e-07 -1.03843e-06)
(12.697 1.53911e-07 -1.03844e-06)
(12.5464 -3.57545e-07 -1.06931e-06)
(12.5464 1.17551e-07 -1.06932e-06)
(12.3889 -3.21858e-07 -1.10084e-06)
(12.3889 1.60198e-07 -1.10086e-06)
(12.2254 -3.70515e-07 -1.133e-06)
(12.2254 1.18613e-07 -1.13301e-06)
(12.0566 -3.33208e-07 -1.16576e-06)
(12.0566 1.6324e-07 -1.16577e-06)
(11.8833 -3.70969e-07 -1.19962e-06)
(11.8833 1.32904e-07 -1.19963e-06)
(11.7061 -3.54792e-07 -1.23416e-06)
(11.7061 1.568e-07 -1.23418e-06)
(11.5257 -3.76048e-07 -1.2697e-06)
(11.5257 1.4335e-07 -1.26972e-06)
(11.3428 -3.77186e-07 -1.30577e-06)
(11.3428 1.50385e-07 -1.30579e-06)
(11.1579 -3.67529e-07 -1.34329e-06)
(11.1579 1.68261e-07 -1.34331e-06)
(10.9716 -4.04974e-07 -1.38162e-06)
(10.9716 1.39478e-07 -1.38163e-06)
(10.7845 -3.8363e-07 -1.42055e-06)
(10.7845 1.69516e-07 -1.42056e-06)
(10.5971 -3.99276e-07 -1.46096e-06)
(10.5971 1.63083e-07 -1.46098e-06)
(10.4097 -4.16748e-07 -1.50194e-06)
(10.4097 1.548e-07 -1.50195e-06)