/*--------------------------------*- C++ -*----------------------------------*\
| =========                 |                                                 |
| \\      /  F ield         | OpenFOAM: The Open Source CFD Toolbox           |
|  \\    /   O peration     | Version:  2012                                  |
|   \\  /    A nd           | Website:  www.openfoam.com                      |
|    \\/     M anipulation  |                                                 |
\*---------------------------------------------------------------------------*/
FoamFile
{
    version     2.0;
    format      ascii;
    class       volTensorField;
    location    "4000";
    object      grad(U);
}
// * * * * * * * * * * * * * * * * * * * * * * * * * * * * * * * * * * * * * //

dimensions      [0 0 -1 0 0 0 0];


internalField   nonuniform List<tensor> 
320
(
(0 -6.18129e-27 5.35577e-31 35.7196 -1.43988e-12 -3.02433e-13 0.401626 -7.79184e-15 -8.67399e-16)
(0 -3.56324e-28 -2.67788e-31 35.7196 0 2.33225e-15 0.401626 9.86076e-32 6.97328e-16)
(-2.67923e-16 -8.31415e-27 7.61482e-30 35.6745 6.05414e-28 -2.39979e-13 1.25425 -6.31089e-30 -4.2802e-15)
(0 -4.56889e-29 -6.66297e-30 35.6745 -3.74514e-14 4.00479e-15 1.25425 -6.94947e-16 -1.16673e-15)
(0 -2.03001e-29 -2.53752e-30 35.6001 3.33799e-13 -1.37498e-13 2.1505 -2.35874e-14 -5.74937e-15)
(-3.43631e-17 2.03001e-29 3.38335e-30 35.6001 -1.46632e-14 4.40789e-15 2.1505 -7.31369e-16 -1.35172e-15)
(-1.23606e-16 2.17527e-29 3.00653e-30 35.3813 1.36862e-13 -1.43707e-13 2.39697 -1.384e-14 -7.54067e-15)
(-4.94424e-16 -6.01306e-30 -1.50326e-30 35.3813 -3.28529e-14 5.96235e-15 2.39697 -1.23805e-15 -1.46375e-15)
(0 2.13734e-29 2.67167e-30 34.6452 4.05869e-14 -1.35196e-13 2.61057 -3.05844e-15 -9.59132e-15)
(0 -2.67167e-29 -5.34335e-30 34.6452 -3.99039e-14 5.80767e-15 2.61057 -1.98799e-15 -1.4843e-15)
(1.33651e-15 -9.49645e-30 -2.37411e-30 32.6978 4.96194e-14 -1.03446e-13 2.69972 -2.77651e-15 -7.04189e-15)
(-4.76898e-15 1.89929e-29 7.12234e-30 32.6978 -4.26632e-14 4.71956e-15 2.69972 -2.95441e-15 -1.38476e-15)
(0 0 2.10969e-30 29.0462 6.96516e-14 -5.94764e-14 2.59748 -5.43046e-15 -3.61518e-15)
(2.52231e-15 8.43877e-30 2.10969e-30 29.0462 -4.17844e-14 3.65716e-15 2.59748 -4.04266e-15 -1.15392e-15)
(-1.68945e-15 3.07426e-29 2.04305e-29 24.1651 6.83275e-14 -2.52524e-14 2.35314 -7.40279e-15 -1.44529e-15)
(0 -2.24967e-29 -1.68725e-29 24.1651 -3.8101e-14 3.07223e-15 2.35314 -5.17497e-15 -8.17269e-16)
(-1.87566e-15 3.33185e-29 1.99911e-29 19.2107 5.40907e-14 -1.07783e-14 2.07208 -6.58792e-15 -1.02185e-15)
(-4.18804e-15 -2.66548e-29 -1.66592e-29 19.2107 -3.35514e-14 2.77283e-15 2.07208 -6.31691e-15 -4.47462e-16)
(0 1.77646e-29 5.92152e-30 15.0091 4.7024e-14 -9.97818e-15 1.81821 -5.8767e-15 -1.60904e-15)
(0 -5.92152e-30 -2.96076e-30 15.0091 -2.99697e-14 2.73426e-15 1.81821 -7.42849e-15 -9.83229e-17)
(-1.3813e-15 3.73341e-30 -7.95046e-31 11.745 4.24633e-14 -1.41055e-14 1.6084 -6.38888e-15 -2.5783e-15)
(5.52521e-15 0 5.262e-30 11.745 -2.81114e-14 3.03913e-15 1.6084 -8.57865e-15 2.02974e-16)
(0 -9.35188e-30 0 9.27966 3.54424e-14 -1.8742e-14 1.43932 -6.02303e-15 -3.66115e-15)
(0 1.87038e-29 4.67594e-30 9.27966 -2.58089e-14 3.36614e-15 1.43932 -9.87072e-15 4.82608e-16)
(7.03968e-16 -4.79275e-30 -6.51688e-30 7.41707 2.98861e-14 -2.26494e-14 1.30291 -5.63237e-15 -4.80475e-15)
(6.5407e-15 8.31031e-30 8.38744e-30 7.41707 -2.21239e-14 3.27512e-15 1.30291 -1.11165e-14 6.1387e-16)
(1.74104e-15 3.99028e-30 1.85215e-30 5.99371 2.57761e-14 -2.54662e-14 1.19157 -5.43804e-15 -5.88548e-15)
(0 0 -3.69237e-30 5.99371 -1.81761e-14 3.07423e-15 1.19157 -1.23311e-14 6.72388e-16)
(-1.83653e-15 -3.31014e-30 -4.2039e-45 4.88996 2.24654e-14 1.88307e-29 1.0992 -5.31024e-15 8.01833e-46)
(1.28452e-14 6.56225e-30 2.31497e-29 4.88996 -1.52987e-14 3.29627e-15 1.0992 -1.34677e-14 8.88193e-16)
(3.28277e-15 -1.16627e-29 -5.83137e-30 4.02139 2.05583e-14 5.43328e-14 1.02123 -5.23456e-15 -1.40631e-14)
(0 1.16627e-29 0 4.02139 -1.45868e-14 -2.67169e-30 1.02123 -1.47414e-14 -1.97215e-31)
(0 -1.03638e-29 -5.1819e-30 3.32866 1.85029e-14 4.89106e-14 0.954248 -5.65384e-15 -1.38939e-14)
(8.01515e-15 0 5.1819e-30 3.32866 -1.23718e-14 -1.79469e-14 0.954248 -1.62738e-14 -9.82374e-17)
(0 4.60476e-30 6.90714e-30 2.76961 1.56268e-14 3.16014e-14 0.895715 -5.3301e-15 -1.0184e-14)
(-2.59225e-15 0 -2.30238e-30 2.76961 -7.98932e-15 -7.27687e-15 0.895715 -1.74852e-14 -1.12378e-15)
(0 0 2.04595e-30 2.31391 1.25332e-14 1.20866e-14 0.843762 -5.11459e-15 -6.28743e-15)
(1.71799e-14 0 0 2.31391 -3.92145e-15 -3.04595e-15 0.843762 -1.81642e-14 -1.30267e-15)
(-1.65548e-16 2.65251e-30 -2.88947e-30 1.93936 1.01545e-14 3.6337e-15 0.797004 -4.27422e-15 -2.597e-15)
(-2.04697e-15 0 3.63616e-30 1.93936 -2.17409e-15 -5.04296e-15 0.797004 -1.57348e-14 -1.53857e-15)
(-1.36425e-15 -2.54001e-30 -5.71772e-30 1.62942 8.38224e-15 -1.29044e-15 0.754423 -4.33485e-15 -1.70152e-15)
(3.63798e-15 0 4.84676e-30 1.62942 -3.53627e-16 -1.1575e-14 0.754423 -1.03726e-14 -2.48013e-15)
(4.66303e-15 -1.07735e-29 -2.85426e-30 1.3716 5.88304e-15 4.70274e-30 0.715273 -3.61673e-15 0)
(0 0 0 1.3716 8.11197e-16 -1.68979e-14 0.715273 -7.55359e-15 -4.52635e-15)
(0 0 0 1.15626 5.00723e-15 -1.45737e-15 0.679014 -2.63933e-15 -2.67884e-15)
(-9.54472e-15 8.02485e-30 0 1.15626 3.48342e-16 -1.36141e-14 0.679014 -4.94166e-15 -7.45427e-15)
(2.55279e-15 0 -2.26733e-30 0.97585 4.22472e-15 -3.63935e-15 0.645256 -3.45614e-15 -2.24156e-15)
(9.75193e-15 -9.89606e-30 9.8256e-31 0.97585 1.74123e-15 -7.84904e-15 0.645256 -1.90174e-15 -6.8577e-15)
(-4.97427e-15 5.16053e-30 1.42751e-30 0.824376 2.33282e-15 -3.28054e-15 0.613705 -2.21224e-15 -2.80926e-15)
(0 0 0 0.824376 2.73238e-15 -5.59287e-15 0.613705 -2.04638e-15 -4.3965e-15)
(0 0 0 0.69698 2.607e-15 -3.32838e-15 0.584134 -1.30195e-15 -2.92616e-15)
(0 0 0 0.69698 3.46403e-15 -5.46643e-15 0.584134 -2.57192e-15 -5.72422e-15)
(0 0 -3.4238e-31 0.589681 3.5399e-15 -1.31102e-15 0.55634 -3.30301e-15 -6.34807e-16)
(0 0 0 0.589681 2.13906e-15 -5.09972e-15 0.55634 -3.92965e-15 -4.05463e-15)
(0 -5.65518e-30 -5.65518e-30 0.499179 2.34e-15 7.58034e-16 0.530118 -3.56887e-15 -2.80986e-15)
(3.18358e-15 0 1.09476e-46 0.499179 -2.84216e-16 1.10998e-29 0.530118 -6.36307e-16 7.88861e-31)
(0 0 0 0.422714 1.09162e-15 1.92983e-16 0.505234 -2.42983e-15 -1.61691e-15)
(1.06428e-14 0 0 0.422714 4.53595e-30 2.74992e-15 0.505234 -3.15544e-30 -1.65943e-15)
(2.51392e-15 0 0 0.357962 1.50912e-15 -3.56168e-15 0.481402 -1.26566e-15 -8.63234e-16)
(8.28231e-15 -8.99826e-30 4.46562e-30 0.357962 2.6739e-15 -3.52163e-15 0.481402 -4.0688e-15 1.3416e-16)
(4.46786e-15 0 -8.06254e-31 0.302955 3.44467e-15 -1.90521e-16 0.458251 -3.0022e-15 -1.47946e-16)
(6.47483e-15 -9.02128e-30 3.75427e-30 0.302955 3.19155e-15 -1.37533e-15 0.458251 -3.26421e-15 -1.06799e-15)
(0 0 0 0.256017 3.29451e-15 -3.88723e-15 0.435287 -7.99165e-15 8.3369e-16)
(2.21653e-14 -1.18732e-29 3.52629e-30 0.256017 3.17003e-15 -3.65313e-15 0.435287 -6.8613e-15 1.38829e-16)
(0 3.13355e-30 -1.6137e-30 0.215711 8.35323e-16 0 0.411839 -3.24417e-15 0)
(0 -3.13355e-30 1.32954e-30 0.215711 9.92875e-16 -1.27401e-15 0.411839 -4.05379e-15 -1.05303e-15)
(-2.83615e-15 3.16343e-43 0 0.180787 7.12089e-29 3.24306e-16 0.386956 2.90052e-46 -1.21334e-15)
(0 0 1.34608e-31 0.180787 5.60964e-17 -9.86076e-32 0.386956 -6.20786e-17 9.69953e-16)
(-2.78594e-15 2.47441e-30 4.94882e-30 0.150123 1.04902e-15 -1.82778e-15 0.359223 -2.95936e-15 1.44482e-15)
(0 0 4.94882e-30 0.150123 1.04639e-15 -9.58446e-16 0.359223 -2.06602e-15 -6.71659e-16)
(0 0 0 0.12265 9.82671e-16 -3.3334e-15 0.326378 -2.22276e-15 -4.20402e-17)
(1.15853e-14 -5.7849e-30 0 0.12265 1.266e-15 -3.35378e-15 0.326378 -3.21414e-15 1.01925e-16)
(-2.92479e-15 1.32666e-30 -2.88574e-32 0.0972232 4.64339e-16 -1.42824e-15 0.284463 -3.35242e-15 -5.25717e-16)
(0 0 -2.66247e-44 0.0972232 2.89856e-17 6.32495e-30 0.284463 -3.92461e-15 -1.39719e-45)
(9.57156e-16 1.52231e-30 -2.1906e-31 0.0723863 8.28402e-16 5.62177e-17 0.225954 -1.90009e-15 1.30228e-15)
(-1.57204e-14 7.63898e-30 1.02012e-30 0.0723863 7.19656e-16 2.41358e-16 0.225954 -2.5532e-15 2.88665e-15)
(0 0 0 0.0460878 2.0117e-15 3.38111e-15 0.136982 -5.65347e-15 1.4925e-15)
(0 0 0 0.0460878 2.0269e-15 4.99167e-15 0.136982 -6.00323e-15 -1.05741e-16)
(3.01218e-15 1.21858e-31 -6.57226e-30 0 4.41135e-16 1.0057e-15 9.96345e-19 -3.96188e-15 -2.2603e-15)
(0 0 5.48431e-30 7.9034e-15 9.89022e-17 5.31946e-15 1.77646e-14 -4.68133e-15 9.89302e-17)
(-7.53757e-17 4.32534e-30 2.67788e-31 35.7196 1.92482e-28 8.2351e-14 -0.401626 7.79184e-15 8.67399e-16)
(0 0 -4.52655e-28 35.7196 -1.30337e-15 0 -0.401626 -2.83839e-16 4.52655e-28)
(-2.67923e-16 5.94908e-32 -1.72523e-30 35.6745 -1.20284e-14 4.24212e-14 -1.25425 4.96588e-14 4.2802e-15)
(2.67923e-16 -5.94908e-32 1.86979e-30 35.6745 -4.88564e-15 -3.58346e-14 -1.25425 6.94947e-16 9.06324e-16)
(-4.76165e-16 5.28649e-32 -1.00443e-30 35.6001 -1.01821e-14 2.36099e-14 -2.1505 4.38534e-14 5.74937e-15)
(-3.43631e-17 1.55443e-29 1.0496e-30 35.6001 -3.04563e-15 -1.49948e-14 -2.1505 7.31369e-16 7.94187e-16)
(4.23131e-16 -1.87908e-31 1.2214e-30 35.3813 -1.41964e-14 2.28424e-14 -2.39697 4.05984e-14 7.54067e-15)
(7.12923e-17 1.87908e-31 -2.22367e-30 35.3813 -5.93294e-15 -1.027e-14 -2.39697 1.23805e-15 5.04485e-16)
(2.60287e-16 0 0 34.6452 -1.51981e-14 1.91015e-14 -2.61057 4.00863e-14 9.63865e-15)
(0 0 -5.17129e-29 34.6452 -7.36125e-15 -4.54749e-16 -2.61057 1.98799e-15 1.63908e-17)
(1.09731e-15 2.96764e-31 -1.78058e-30 32.6978 -1.52358e-14 1.1683e-14 -2.69972 3.96902e-14 1.17244e-14)
(-3.43247e-15 -2.96764e-31 0 32.6978 -7.81581e-15 -5.68533e-43 -2.69972 2.95441e-15 3.9443e-31)
(0 5.27423e-31 -7.40102e-30 29.0462 -1.38181e-14 -3.9443e-31 -2.59748 3.86539e-14 1.33325e-14)
(0 0 2.10969e-30 29.0462 -6.80719e-15 8.63886e-15 -2.59748 4.04266e-15 5.76153e-16)
(-2.74482e-15 0 -3.76653e-30 24.1651 -1.21701e-14 -2.18992e-15 -2.35314 3.71119e-14 1.42644e-14)
(-3.37889e-15 0 7.03021e-31 24.1651 -6.16364e-15 1.06432e-14 -2.35314 5.17497e-15 8.17269e-16)
(2.92267e-15 -1.66592e-30 3.74833e-30 19.2107 -1.11753e-14 -5.70374e-15 -2.07208 3.57818e-14 1.47661e-14)
(-4.18804e-15 8.32962e-31 -2.91537e-30 19.2107 -5.46535e-15 9.68598e-15 -2.07208 6.31691e-15 4.47462e-16)
(0 0 0 15.0091 -8.92394e-15 -5.90381e-15 -1.81821 3.46424e-14 1.5214e-14)
(4.90408e-15 0 -5.55142e-31 15.0091 -4.76544e-15 7.30836e-15 -1.81821 7.42849e-15 9.83229e-17)
(-1.48112e-15 1.97325e-30 -1.3155e-30 11.745 -6.79271e-15 -4.90521e-15 -1.6084 3.3291e-14 1.58078e-14)
(0 0 6.5775e-31 11.745 -5.13751e-15 4.91438e-15 -1.6084 8.57865e-15 -2.02974e-16)
(0 0 0 9.27966 -7.23645e-15 -4.35189e-15 -1.43932 3.20371e-14 1.66184e-14)
(-6.06549e-15 0 -2.92246e-31 9.27966 -5.03198e-15 3.31543e-15 -1.43932 9.87072e-15 -4.82608e-16)
(-1.63518e-15 -1.03879e-30 7.79091e-31 7.41707 -6.82256e-15 -4.41696e-15 -1.30291 3.0979e-14 1.77278e-14)
(6.5407e-15 1.03879e-30 -1.03879e-30 7.41707 -4.43716e-15 1.81562e-15 -1.30291 1.11165e-14 -7.5282e-16)
(1.74104e-15 -9.23092e-31 9.23092e-31 5.99371 -4.39407e-15 -4.00163e-15 -1.19157 2.98977e-14 1.91456e-14)
(6.96414e-15 9.23092e-31 -9.23092e-31 5.99371 -4.40623e-15 -1.52708e-16 -1.19157 1.23311e-14 -9.5023e-16)
(1.83653e-15 8.20282e-31 -6.15211e-31 4.88996 -1.77217e-15 -3.43147e-15 -1.0992 2.87442e-14 2.08168e-14)
(0 0 0 4.88996 -5.16414e-15 4.97424e-30 -1.0992 1.34677e-14 -1.05195e-15)
(0 -7.28922e-31 5.46691e-31 4.02139 -1.14247e-16 -2.06239e-15 -1.02123 2.74607e-14 1.75043e-14)
(0 7.28922e-31 -5.46691e-31 4.02139 -6.5389e-15 3.0153e-15 -1.02123 1.47414e-14 -1.7429e-15)
(0 0 -4.85803e-31 3.32866 -1.38886e-15 2.90029e-16 -0.954248 2.6035e-14 1.38939e-14)
(0 0 3.23869e-31 3.32866 -6.21167e-15 -1.65933e-15 -0.954248 1.62738e-14 9.82374e-17)
(2.07812e-15 0 8.92858e-31 2.76961 -3.77261e-15 4.4521e-16 -0.895715 2.49357e-14 1.0184e-14)
(0 0 -5.75595e-31 2.76961 -3.49812e-15 -2.20856e-16 -0.895715 1.74852e-14 1.12378e-15)
(0 1.02297e-30 -1.32393e-30 2.31391 -4.24968e-15 0 -0.843762 2.40653e-14 8.59347e-15)
(8.58994e-15 -1.02297e-30 1.27872e-30 2.31391 -1.50517e-15 8.6062e-16 -0.843762 1.81642e-14 1.30267e-15)
(-2.21252e-15 0 -4.5452e-31 1.93936 -3.43595e-15 -5.54394e-16 -0.797004 2.33875e-14 7.97745e-15)
(0 4.87257e-30 2.2726e-31 1.93936 -2.16896e-15 -3.18232e-16 -0.797004 1.84858e-14 1.53857e-15)
(2.27374e-15 0 -2.01949e-31 1.62942 -1.51821e-15 -6.60313e-16 -0.754423 2.26376e-14 7.9774e-15)
(-1.81899e-14 1.61559e-30 2.01949e-31 1.62942 -4.08038e-15 -6.83447e-16 -0.754423 1.9311e-14 2.48013e-15)
(4.66303e-15 0 -5.38369e-31 1.3716 2.52036e-16 -5.92118e-16 -0.715273 2.17425e-14 8.4717e-15)
(0 2.8713e-30 1.79456e-31 1.3716 -1.20157e-15 -1.44772e-15 -0.715273 1.95058e-14 4.52635e-15)
(0 0 -7.54248e-31 1.15626 -1.42093e-15 -1.2092e-15 -0.679014 2.10006e-14 8.38337e-15)
(-1.90894e-14 2.03188e-44 2.39204e-31 1.15626 -3.56642e-29 -2.00927e-15 -0.679014 1.93979e-14 7.45427e-15)
(-2.43798e-15 2.26733e-30 -2.21419e-30 0.97585 -3.57347e-15 4.45391e-15 -0.645256 2.06848e-14 9.47523e-15)
(-1.95039e-14 -2.26733e-30 1.9662e-30 0.97585 -2.7136e-15 2.84289e-15 -0.645256 1.97289e-14 9.17213e-15)
(2.48713e-15 0 0 0.824376 -2.72933e-15 9.07275e-15 -0.613705 2.0805e-14 7.95241e-15)
(-9.94854e-15 2.0148e-30 0 0.824376 -2.54026e-15 1.09892e-14 -0.613705 1.97076e-14 9.0465e-15)
(0 0 0 0.69698 -1.79495e-15 7.23209e-15 -0.584134 2.08308e-14 7.31261e-15)
(-1.01353e-14 0 0 0.69698 -2.77843e-15 1.07877e-14 -0.584134 1.96535e-14 6.99524e-15)
(0 1.59099e-30 -1.59099e-30 0.589681 -1.32731e-15 8.59095e-15 -0.55634 2.04305e-14 6.24765e-15)
(-1.38954e-14 3.18199e-30 0 0.589681 -2.82147e-15 9.95925e-15 -0.55634 1.94008e-14 6.8705e-15)
(5.24091e-15 0 0 0.499179 -1.15098e-15 7.72407e-15 -0.530118 1.97425e-14 4.00753e-15)
(0 0 0 0.499179 -2.05545e-15 9.13499e-15 -0.530118 2.00363e-14 4.51039e-15)
(0 0 0 0.422714 -1.85174e-15 5.09219e-15 -0.505234 1.90824e-14 1.61691e-15)
(-2.82901e-15 0 -2.51266e-30 0.422714 -1.78123e-15 4.92616e-15 -0.505234 2.05509e-14 1.65943e-15)
(0 0 0 0.357962 -1.39402e-15 4.41971e-15 -0.481402 1.49554e-14 8.63234e-16)
(0 0 0 0.357962 -1.02344e-15 4.10905e-15 -0.481402 1.40027e-14 -1.3416e-16)
(4.46786e-15 1.98413e-30 0 0.302955 -9.37329e-17 4.46935e-15 -0.458251 1.10842e-14 1.08219e-15)
(6.47483e-15 -4.98976e-30 0 0.302955 2.24037e-16 4.01435e-15 -0.458251 1.05267e-14 1.45348e-15)
(5.54132e-15 -3.82131e-30 0 0.256017 3.87541e-16 3.94948e-15 -0.435287 3.76103e-15 -8.3369e-16)
(1.10826e-14 -7.16791e-30 0 0.256017 4.4427e-16 4.29928e-15 -0.435287 4.64317e-15 -1.38829e-16)
(2.80412e-15 -2.1291e-30 4.51892e-31 0.215711 1.13355e-15 -5.91646e-31 -0.411839 1.20414e-15 1.26451e-15)
(2.24329e-14 -1.69481e-29 0 0.215711 6.7632e-16 4.28167e-15 -0.411839 1.13935e-15 1.05303e-15)
(-2.9897e-16 1.3598e-30 -5.56909e-30 0.180787 1.24808e-15 1.98502e-15 -0.386956 5.3281e-15 1.21334e-15)
(-6.27023e-15 2.78454e-30 7.00649e-46 0.180787 9.07282e-16 -9.86076e-32 -0.386956 3.75911e-15 2.38337e-30)
(8.0907e-17 0 -4.94882e-30 0.150123 0 2.96461e-15 -0.359223 3.77785e-15 -1.44482e-15)
(-1.14674e-14 8.86788e-30 0 0.150123 7.98106e-16 1.47057e-16 -0.359223 3.47598e-15 6.71659e-16)
(8.41357e-16 -6.00975e-30 0 0.12265 1.84982e-16 1.8851e-15 -0.326378 4.84076e-16 4.20402e-17)
(1.65366e-14 -3.99345e-30 0 0.12265 6.69216e-16 2.91353e-15 -0.326378 2.48029e-15 -1.01925e-16)
(2.92479e-15 -1.4561e-30 0 0.0972232 2.6656e-16 2.52214e-15 -0.284463 2.30719e-15 5.25717e-16)
(-1.6099e-14 1.72596e-30 -7.8157e-30 0.0972232 -2.46519e-32 3.85907e-15 -0.284463 3.10921e-15 1.42425e-15)
(2.95265e-15 -1.66505e-30 0 0.0723863 5.41264e-16 -1.66602e-15 -0.225954 9.60602e-16 -1.30228e-15)
(-1.57204e-14 1.75162e-45 -4.59801e-45 0.0723863 1.97215e-31 -3.9443e-31 -0.225954 4.73317e-30 -1.14385e-29)
(2.98068e-15 -5.16694e-31 0 0.0460878 2.36017e-15 -6.13048e-15 -0.136982 6.18635e-15 -1.4925e-15)
(0 1.54292e-30 0 0.0460878 2.21928e-15 -6.4819e-15 -0.136982 9.14419e-15 1.05741e-16)
(2.93299e-15 8.39705e-31 -2.74215e-30 7.9034e-15 3.89015e-16 -4.94555e-15 -1.77596e-14 3.96188e-15 4.55667e-15)
(0 0 0 -3.53618e-31 1.05579e-15 -5.34974e-15 0 4.68133e-15 -9.89302e-17)
(8.01879e-17 0 2.74215e-30 -1.55907e-09 -6.60293e-16 6.36466e-15 3.50357e-09 -4.11037e-15 2.32774e-15)
(-3.09137e-15 0 -2.74215e-30 -1.55887e-09 -3.78298e-16 3.87209e-15 3.50356e-09 -1.99975e-15 -1.85865e-16)
(-2.98068e-15 2.16016e-31 -1.54292e-30 -0.0460878 -1.17476e-15 3.67912e-16 0.136982 -5.11314e-15 2.23665e-15)
(8.44837e-15 0 1.54292e-30 -0.0460878 -1.00129e-15 -1.18628e-15 0.136982 -6.27647e-15 3.08209e-15)
(2.95265e-15 -1.15866e-30 0 -0.0723863 -2.52299e-16 -3.05955e-15 0.225954 -1.68124e-15 3.74645e-15)
(-1.57204e-14 7.3411e-30 2.23344e-30 -0.0723863 -2.97493e-16 -2.43958e-30 0.225954 -5.27973e-16 0)
(-2.92479e-15 1.72756e-30 1.07194e-43 -0.0972232 6.11314e-16 1.20724e-29 0.284463 -3.70021e-15 -1.97215e-31)
(2.33984e-14 -7.20929e-30 0 -0.0972232 1.17197e-15 4.32254e-16 0.284463 -3.2425e-15 -2.13892e-15)
(0 1.09941e-30 2.19882e-30 -0.12265 3.01027e-16 1.01909e-15 0.326378 -3.07015e-15 -1.80664e-17)
(-1.65366e-14 2.40797e-30 0 -0.12265 2.84742e-16 1.50045e-15 0.326378 -4.10008e-15 -4.99972e-16)
(2.86685e-15 -1.13541e-30 0 -0.150123 4.897e-16 1.05577e-15 0.359223 -6.09844e-16 -1.07478e-15)
(-1.42533e-14 3.92129e-30 0 -0.150123 6.27406e-29 8.92216e-16 0.359223 -7.88861e-31 1.01324e-15)
(3.13512e-15 -1.39227e-30 1.22132e-30 -0.180787 1.57564e-15 1.40008e-15 0.386956 -4.38946e-15 1.2958e-15)
(0 6.96136e-31 0 -0.180787 1.50062e-15 1.70624e-15 0.386956 -4.91531e-15 -7.72538e-16)
(3.52806e-15 -7.83386e-31 0 -0.215711 9.58134e-16 4.45204e-15 0.411839 -2.20212e-15 -3.20561e-16)
(0 0 0 -0.215711 7.77782e-16 2.58624e-15 0.411839 -1.90483e-15 6.75609e-16)
(-2.77066e-15 1.12577e-31 0 -0.256017 1.46671e-15 1.37316e-15 0.435287 -2.86031e-15 -5.39435e-17)
(0 0 -4.40786e-31 -0.256017 1.36909e-15 3.77784e-16 0.435287 -1.1964e-15 -8.4629e-16)
(-2.73567e-15 6.08002e-32 -9.3741e-31 -0.302955 5.34956e-16 -1.42137e-29 0.458251 -1.88841e-15 -1.97215e-31)
(1.09427e-14 0 9.92065e-31 -0.302955 8.66207e-45 1.47794e-15 0.458251 -1.90887e-15 -1.60315e-16)
(5.02785e-15 0 2.80962e-31 -0.357962 -9.77547e-16 2.62229e-15 0.481402 -4.95902e-16 7.43604e-17)
(-2.41064e-14 -7.35013e-31 -5.58203e-31 -0.357962 -1.13684e-15 1.76489e-15 0.481402 -9.9234e-16 1.18737e-15)
(0 0 0 -0.422714 -3.01538e-16 2.35772e-15 0.505234 -7.19121e-16 1.5504e-15)
(0 5.60519e-45 -4.71124e-31 -0.422714 -4.93038e-31 6.39724e-16 0.505234 -1.04559e-45 -1.49938e-17)
(0 0 0 -0.499179 1.23339e-15 -6.17096e-16 0.530118 -1.19465e-15 -7.34464e-17)
(1.04818e-14 -2.67286e-31 1.76724e-31 -0.499179 1.79805e-15 8.54215e-16 0.530118 -1.011e-15 2.70572e-16)
(2.57821e-15 0 0 -0.589681 1.22639e-15 -6.2357e-16 0.55634 -9.4059e-16 -2.44479e-16)
(1.03128e-14 0 0 -0.589681 1.92962e-15 -2.76715e-16 0.55634 -8.41462e-16 2.589e-16)
(2.53382e-15 -1.119e-31 -4.71587e-31 -0.69698 4.58646e-16 -5.5343e-16 0.584134 -6.30893e-16 -3.41366e-16)
(2.02706e-14 1.119e-31 2.238e-31 -0.69698 8.82072e-16 -1.24944e-16 0.584134 -4.32798e-16 -2.05276e-16)
(0 -4.37906e-47 -1.4316e-46 -0.824376 4.93038e-32 0 0.613705 -9.86076e-32 -4.93038e-32)
(-1.2217e-14 -3.53529e-31 0 -0.824376 0 -4.9157e-16 0.613705 -6.51915e-16 -1.06771e-16)
(-1.14803e-16 -7.0854e-32 1.41708e-31 -0.97585 1.30757e-15 2.06342e-15 0.645255 -4.86e-16 2.8319e-16)
(1.23047e-14 7.0854e-32 8.75812e-45 -0.97585 9.78579e-16 -9.7661e-31 0.645255 -4.83823e-16 1.4098e-46)
(-2.38618e-15 0 0 -1.15626 7.43887e-16 6.10444e-17 0.679014 -8.02179e-17 2.50929e-17)
(9.54472e-15 -1.09476e-47 0 -1.15626 -7.58943e-31 1.33161e-15 0.679014 1.2326e-32 1.59375e-16)
(-2.33152e-15 2.91969e-31 0 -1.3716 -5.44352e-16 -4.67878e-16 0.715273 1.94883e-17 1.08749e-17)
(0 -1.1216e-32 0 -1.3716 -1.08031e-15 5.95646e-16 0.715273 -4.52137e-16 1.63657e-16)
(5.91172e-15 -5.21142e-31 -1.51461e-31 -1.62942 -4.25878e-30 -6.89012e-16 0.754423 0 1.50596e-17)
(5.45696e-15 5.04871e-32 1.51461e-31 -1.62942 7.28399e-16 -7.76192e-16 0.754423 -2.60251e-16 2.9211e-16)
(-2.21252e-15 6.03659e-32 -1.1363e-31 -1.93936 1.20038e-15 -3.03941e-16 0.797004 -2.268e-16 3.31609e-16)
(0 -7.34952e-33 1.1363e-31 -1.93936 4.45717e-31 -1.24329e-16 0.797004 3.08149e-33 -2.6341e-17)
(-4.45102e-15 3.19679e-32 0 -2.31391 8.08026e-16 -8.44002e-16 0.843762 -1.23199e-16 3.13959e-16)
(2.30353e-15 -6.39359e-32 -1.34875e-44 -2.31391 -1.78114e-16 -1.51803e-30 0.843762 -3.35331e-17 -2.46519e-32)
(2.59225e-15 8.17969e-47 -7.96111e-31 -2.76961 0 0 0.895715 -1.6437e-16 4.6652e-18)
(0 -2.6981e-32 2.87797e-31 -2.76961 3.31124e-16 1.30693e-16 0.895715 1.83199e-17 -7.97881e-17)
(3.83051e-15 -1.01209e-32 -1.61934e-31 -3.32866 -1.1824e-15 -1.58365e-17 0.954248 -3.19557e-16 -5.378e-17)
(-2.91715e-15 -3.03627e-32 0 -3.32866 -3.89519e-16 1.82995e-16 0.954248 9.75209e-17 -2.54149e-16)
(0 4.55576e-32 -3.07801e-32 -4.02139 -9.36453e-16 -1.52619e-30 1.02123 -3.55646e-16 -2.46519e-32)
(0 0 0 -4.02139 6.73792e-16 5.16646e-16 1.02123 -7.87493e-17 -1.07417e-16)
(3.68364e-15 -1.17243e-31 0 -4.88996 -2.20536e-30 1.8051e-15 1.0992 0 -1.55006e-16)
(-9.19325e-15 0 0 -4.88996 -6.15984e-44 -1.14117e-16 1.0992 9.62475e-46 -1.45341e-16)
(1.74104e-15 0 0 -5.99371 9.79433e-16 1.25894e-15 1.19157 -9.26824e-17 -8.67841e-17)
(6.96414e-15 5.07998e-33 -1.26319e-31 -5.99371 -2.22878e-16 1.51703e-17 1.19157 2.6322e-17 -1.58256e-18)
(0 -3.24621e-32 6.49243e-32 -7.41707 3.91813e-17 7.00885e-16 1.30291 -2.0335e-17 -7.48962e-17)
(0 2.75108e-30 0 -7.41707 -6.95062e-16 1.33483e-15 1.30291 6.44328e-17 -1.44803e-16)
(2.63232e-15 -2.73981e-32 0 -9.27966 -1.00171e-15 7.72148e-16 1.43932 1.03319e-17 -3.25173e-17)
(0 4.56635e-32 0 -9.27966 -1.08807e-15 8.64949e-16 1.43932 2.1431e-17 -1.37534e-16)
(-2.7626e-15 -3.42114e-48 -8.22188e-32 -11.745 -2.95823e-31 3.52213e-16 1.6084 1.2326e-32 -5.10663e-17)
(5.52521e-15 9.93156e-32 8.22188e-32 -11.745 -4.58882e-16 4.28591e-16 1.6084 -1.53863e-17 -1.15545e-16)
(0 3.46964e-32 9.25237e-32 -15.0091 1.26739e-15 7.57356e-17 1.81821 -7.55112e-17 -2.51275e-17)
(-4.90408e-15 -1.15655e-32 0 -15.0091 -3.51577e-16 4.74359e-17 1.81821 -6.16808e-18 -1.05149e-16)
(-1.04701e-15 0 7.04704e-33 -19.2107 1.18537e-15 -7.28031e-17 2.07208 -3.18085e-17 -1.25897e-17)
(0 6.50752e-33 5.20601e-32 -19.2107 4.71294e-16 7.66361e-17 2.07208 -2.21798e-18 -1.09478e-16)
(8.44723e-16 -1.14424e-32 -1.90519e-32 -24.1651 5.11079e-16 -4.18607e-31 2.35314 -1.7905e-17 0)
(0 -1.36846e-48 5.85851e-32 -24.1651 2.86107e-31 4.08184e-16 2.35314 1.58795e-48 -1.02469e-16)
(-6.30578e-16 0 -1.56127e-31 -29.0462 -1.41966e-16 4.23829e-16 2.59748 -1.71085e-17 -1.93456e-17)
(2.52231e-15 6.18074e-33 0 -29.0462 -1.57332e-16 6.83516e-16 2.59748 2.20658e-19 -8.62389e-17)
(6.68253e-16 -5.29122e-59 0 -32.6978 -6.14912e-31 1.07654e-15 2.69972 0 -6.36162e-17)
(1.71624e-15 2.0694e-32 0 -32.6978 -2.81471e-16 9.01487e-16 2.69972 1.45669e-17 -7.47463e-17)
(2.60287e-16 -2.10355e-32 -1.25235e-31 -34.6452 4.74553e-16 1.75395e-15 2.61057 -7.84062e-18 -6.10664e-17)
(1.04115e-15 1.92418e-32 4.17449e-32 -34.6452 -3.78423e-16 1.16615e-15 2.61057 4.59566e-18 -6.06927e-17)
(-1.23606e-16 -6.58352e-31 0 -35.3813 1.06307e-16 2.10179e-15 2.39697 -3.40492e-18 -4.99542e-17)
(0 2.20205e-33 0 -35.3813 -2.4289e-16 1.25376e-15 2.39697 1.96283e-18 -4.99349e-17)
(8.59076e-18 -6.19511e-34 -7.92974e-32 -35.6001 2.1229e-16 2.01503e-15 2.1505 -1.47558e-18 -4.05733e-17)
(5.10528e-16 1.23902e-33 7.92974e-32 -35.6001 -1.08818e-16 1.21753e-15 2.1505 1.03127e-18 -4.07764e-17)
(2.67923e-16 4.64772e-34 -6.92593e-30 -35.6745 2.14594e-17 4.11635e-15 1.25425 -1.18869e-18 -3.30328e-17)
(-2.67923e-16 -5.80965e-34 0 -35.6745 -4.55614e-17 3.10856e-15 1.25425 1.41469e-18 -3.20648e-17)
(-7.53757e-17 -2.28823e-34 4.03092e-30 -35.7196 1.03455e-16 4.93119e-15 0.401627 -1.22309e-19 -1.76171e-17)
(7.53757e-17 -1.01144e-34 -2.24557e-29 -35.7196 -7.01489e-49 1.98461e-15 0.401627 -7.28819e-19 2.49696e-18)
(3.01119e-15 1.09476e-47 -6.85538e-30 -1.55889e-09 0 -3.34443e-15 -3.50359e-09 4.11037e-15 -2.32774e-15)
(-3.0834e-15 6.85538e-31 4.11323e-30 -1.55908e-09 -3.75738e-16 -2.45901e-15 -3.5036e-09 4.58835e-15 1.85865e-16)
(-2.98068e-15 0 0 -0.0460878 -1.81301e-15 3.89717e-16 -0.136982 6.6697e-15 -2.23665e-15)
(0 0 0 -0.0460878 -1.60978e-15 0 -0.136982 6.27647e-15 -2.62994e-31)
(-2.95265e-15 1.43191e-30 0 -0.0723863 -1.13023e-16 2.06136e-44 -0.225954 2.00586e-16 -7.09975e-30)
(-1.57204e-14 5.15115e-30 0 -0.0723863 0 -1.79034e-15 -0.225954 6.31089e-30 2.74673e-16)
(-7.32464e-15 3.10237e-30 -1.95392e-30 -0.0972232 4.15906e-16 -4.85304e-16 -0.284463 8.33371e-16 1.33703e-15)
(0 0 0 -0.0972232 1.33196e-15 -4.44116e-16 -0.284463 3.00857e-15 2.13892e-15)
(2.89633e-15 -2.02379e-30 2.01509e-60 -0.12265 1.10654e-15 0 -0.326378 1.737e-15 1.80664e-17)
(0 1.72574e-30 -2.19882e-30 -0.12265 2.16937e-30 7.43506e-16 -0.326378 5.49864e-15 4.99972e-16)
(0 1.23721e-30 0 -0.150123 2.12789e-15 1.61552e-16 -0.359223 4.31395e-15 1.07478e-15)
(-1.14674e-14 4.26374e-30 -2.35241e-30 -0.150123 1.73603e-16 -4.86882e-16 -0.359223 1.61186e-15 -6.06335e-16)
(0 1.21252e-31 -3.50325e-46 -0.180787 0 2.28612e-44 -0.386956 4.38946e-15 1.44929e-45)
(-3.13512e-15 5.09029e-31 0 -0.180787 1.13134e-15 -1.839e-15 -0.386956 1.25198e-15 7.72538e-16)
(2.80412e-15 -2.93043e-32 0 -0.215711 0 -5.71167e-15 -0.411839 0 3.20561e-16)
(-1.47445e-14 -1.4013e-45 -7.83386e-31 -0.215711 1.97215e-31 -2.83935e-15 -0.411839 3.75201e-15 -6.75609e-16)
(2.77066e-15 -5.45455e-31 0 -0.256017 5.88323e-16 -2.96e-15 -0.435287 5.14113e-16 5.39435e-17)
(-1.10826e-14 1.22052e-30 0 -0.256017 4.22428e-16 -1.18537e-15 -0.435287 1.37914e-15 8.4629e-16)
(0 -4.96032e-31 4.96032e-31 -0.302955 3.18464e-15 1.34673e-15 -0.458251 1.88841e-15 1.60032e-15)
(-1.09427e-14 5.35157e-31 -2.47901e-31 -0.302955 1.90812e-15 8.441e-16 -0.458251 1.83839e-15 1.60315e-16)
(2.88419e-15 0 0 -0.357962 0 0 -0.481402 4.95902e-16 0)
(0 3.13989e-31 2.31569e-30 -0.357962 8.37935e-16 -3.32928e-16 -0.481402 9.9234e-16 -2.29736e-16)
(1.09794e-14 -3.14083e-31 -2.35565e-32 -0.422714 -1.41952e-15 -1.82546e-15 -0.505234 1.94379e-15 -1.11936e-15)
(-2.41145e-14 0 9.42249e-31 -0.422714 -8.51287e-16 -2.30449e-15 -0.505234 2.18622e-15 1.49938e-17)
(2.62046e-15 -6.47846e-32 0 -0.499179 6.53486e-16 -2.51965e-15 -0.530118 1.18691e-15 7.34464e-17)
(1.04818e-14 -5.76589e-31 -3.53449e-31 -0.499179 8.03051e-16 -3.83732e-16 -0.530118 1.09052e-15 -2.70572e-16)
(2.57821e-15 0 0 -0.589681 6.36573e-16 -2.98729e-16 -0.55634 9.4059e-16 2.44479e-16)
(0 2.712e-31 5.07433e-31 -0.589681 1.23024e-15 -3.18512e-16 -0.55634 8.41462e-16 -1.54226e-16)
(6.56545e-15 3.26746e-32 0 -0.69698 1.37204e-16 5.19882e-16 -0.584134 4.63176e-16 5.14211e-16)
(-4.03163e-15 -4.81696e-45 0 -0.69698 -5.58361e-31 -6.47784e-16 -0.584134 4.32798e-16 2.05276e-16)
(0 -1.25925e-31 1.59956e-31 -0.824376 2.60286e-17 -3.9443e-31 -0.613705 6.63993e-16 2.88152e-16)
(-9.94854e-15 0 0 -0.824376 0 7.10502e-16 -0.613705 -2.85962e-30 1.06771e-16)
(2.43798e-15 -1.4267e-32 0 -0.97585 4.50114e-16 -1.28546e-15 -0.645255 3.83195e-16 -2.8319e-16)
(0 0 -1.75162e-46 -0.97585 1.26123e-15 0 -0.645255 4.83823e-16 1.15257e-16)
(2.38618e-15 0 7.97345e-32 -1.15626 8.70529e-16 -9.15331e-16 -0.679014 8.02179e-17 -2.50929e-17)
(0 0 -7.97345e-32 -1.15626 -2.28408e-16 -4.60638e-16 -0.679014 -8.54493e-17 -1.59375e-16)
(5.56431e-15 3.4826e-31 -1.79456e-31 -1.3716 8.79726e-17 4.34527e-16 -0.715273 -1.94883e-17 -1.08749e-17)
(6.09327e-15 -8.75812e-47 1.91099e-31 -1.3716 6.16298e-33 -2.26172e-16 -0.715273 -9.89686e-32 -1.42683e-16)
(0 -4.61991e-45 2.01949e-31 -1.62942 -5.19433e-31 2.11153e-15 -0.754423 2.23095e-16 -1.50596e-17)
(0 7.57307e-32 4.48987e-31 -1.62942 1.30252e-15 -4.2958e-16 -0.754423 2.60251e-16 -1.0242e-16)
(4.2595e-15 -4.89346e-31 1.1083e-30 -1.93936 -9.86076e-32 1.97215e-31 -0.797004 0 0)
(-1.08971e-14 0 0 -1.93936 1.08347e-16 -6.47485e-16 -0.797004 -2.64794e-17 1.56449e-16)
(1.56047e-16 0 -8.51173e-31 -2.31391 -5.21773e-16 -2.27228e-16 -0.843762 1.23199e-16 -4.27797e-17)
(-1.08935e-14 -6.60166e-31 1.27872e-31 -2.31391 3.50629e-16 -5.15866e-17 -0.843762 6.60121e-17 1.70915e-16)
(4.67037e-15 -1.43899e-31 1.43899e-31 -2.76961 -9.51418e-16 -1.62981e-15 -0.895715 1.6437e-16 -4.6652e-18)
(-2.59225e-15 1.43899e-31 -1.43899e-31 -2.76961 1.61507e-15 -7.21793e-16 -0.895715 -1.83199e-17 7.97881e-17)
(-2.91715e-15 -8.75812e-47 -5.6677e-31 -3.32866 -4.56159e-45 -1.5509e-15 -0.954248 2.80315e-31 5.378e-17)
(-5.098e-15 -3.59083e-45 4.85803e-31 -3.32866 0 -2.4147e-16 -0.954248 6.48345e-30 2.54149e-16)
(1.92363e-15 1.58301e-31 -9.11152e-32 -4.02139 1.27287e-15 -1.05243e-15 -1.02123 1.83213e-16 2.21794e-16)
(-7.69451e-15 -1.8223e-31 9.11152e-32 -4.02139 -1.22208e-15 2.24554e-16 -1.02123 7.87493e-17 1.07417e-16)
(3.67307e-15 0 0 -4.88996 1.99594e-15 -6.54321e-16 -1.0992 2.81609e-16 1.55006e-16)
(-7.34614e-15 0 0 -4.88996 -6.26015e-16 -9.45793e-16 -1.0992 -1.2097e-16 1.45341e-16)
(-2.07862e-15 -2.88466e-32 -1.7308e-31 -5.99371 1.45922e-15 -6.29697e-16 -1.19157 9.26824e-17 8.67841e-17)
(0 -8.40779e-45 1.15387e-31 -5.99371 3.27024e-31 -6.78039e-16 -1.19157 -6.1456e-17 2.29139e-16)
(-7.03968e-16 8.11553e-33 -6.49243e-32 -7.41707 1.04556e-15 -8.27015e-17 -1.30291 2.0335e-17 8.542e-17)
(-6.5407e-15 -8.11553e-33 0 -7.41707 5.75011e-16 -3.9567e-16 -1.30291 -1.49011e-16 1.44803e-16)
(0 3.77694e-46 1.80507e-32 -9.27966 4.93038e-32 -2.19126e-31 -1.43932 6.83756e-31 3.25173e-17)
(-8.69781e-15 1.82654e-32 3.65308e-32 -9.27966 -8.42648e-16 -4.9924e-16 -1.43932 -2.1431e-17 1.37534e-16)
(2.96224e-15 2.3124e-32 4.11094e-32 -11.745 -8.07022e-16 -7.70857e-16 -1.6084 7.00619e-17 5.10663e-17)
(0 0 -4.11094e-32 -11.745 2.46519e-32 4.48114e-18 -1.6084 0 1.15545e-16)
(-1.22602e-15 0 0 -15.0091 -6.34755e-16 -2.53436e-16 -1.81821 7.55112e-17 6.3522e-17)
(0 -2.89137e-33 0 -15.0091 5.4924e-16 3.24938e-17 -1.81821 6.16808e-18 1.05149e-16)
(1.04701e-15 -1.62688e-33 1.71057e-49 -19.2107 -2.19188e-16 5.98659e-48 -2.07208 3.18085e-17 6.3369e-17)
(-4.18804e-15 1.62688e-33 5.20601e-32 -19.2107 -7.12822e-17 -1.87181e-17 -2.07208 2.21798e-18 1.09478e-16)
(8.44723e-16 -2.74618e-33 -2.92926e-32 -24.1651 -2.39944e-16 -1.56306e-16 -2.35314 1.7905e-17 6.86415e-17)