/*--------------------------------*- C++ -*----------------------------------*\
| =========                 |                                                 |
| \\      /  F ield         | OpenFOAM: The Open Source CFD Toolbox           |
|  \\    /   O peration     | Version:  2012                                  |
|   \\  /    A nd           | Website:  www.openfoam.com                      |
|    \\/     M anipulation  |                                                 |
\*---------------------------------------------------------------------------*/
FoamFile
{
    version     2.0;
    format      ascii;
    class       volScalarField;
    location    "4000";
    object      p;
}
// * * * * * * * * * * * * * * * * * * * * * * * * * * * * * * * * * * * * * //

dimensions      [0 2 -2 0 0 0 0];


internalField   nonuniform List<scalar> 
320
(
4.4322e-16
4.69511e-15
9.83828e-16
4.69596e-15
1.12016e-15
4.69378e-15
1.16227e-15
4.69062e-15
1.23601e-15
4.68454e-15
1.32622e-15
4.67213e-15
1.42296e-15
4.65089e-15
1.52865e-15
4.62083e-15
1.64721e-15
4.58227e-15
1.77898e-15
4.53606e-15
1.92421e-15
4.48254e-15
2.08184e-15
4.42493e-15
2.2497e-15
4.36357e-15
2.42874e-15
4.30166e-15
2.61411e-15
4.23993e-15
2.80038e-15
4.18256e-15
2.99202e-15
4.13851e-15
3.18551e-15
4.10625e-15
3.36614e-15
4.0891e-15
3.54698e-15
4.09819e-15
3.71192e-15
4.13581e-15
3.86501e-15
4.19999e-15
4.04953e-15
4.26033e-15
4.20608e-15
4.36658e-15
4.38403e-15
4.50025e-15
4.58967e-15
4.65283e-15
4.80326e-15
4.82742e-15
5.00148e-15
5.0058e-15
5.23176e-15
5.22051e-15
5.47698e-15
5.51544e-15
5.75858e-15
5.77884e-15
6.0817e-15
6.111e-15
6.3603e-15
6.3683e-15
6.77213e-15
6.77295e-15
7.13508e-15
7.14635e-15
7.50649e-15
7.52673e-15
7.93072e-15
7.93456e-15
8.41002e-15
8.44123e-15
8.77927e-15
8.78966e-15
8.91369e-15
8.9165e-15
3.54803e-15
3.98964e-15
3.54929e-15
3.99043e-15
3.55107e-15
3.99167e-15
3.55408e-15
3.99369e-15
3.55856e-15
3.9967e-15
3.56463e-15
4.00102e-15
3.57326e-15
4.00706e-15
3.58475e-15
4.01546e-15
3.59975e-15
4.02644e-15
3.62135e-15
4.0409e-15
3.64995e-15
4.06042e-15
3.68494e-15
4.08408e-15
3.72818e-15
4.11085e-15
3.7807e-15
4.14556e-15
3.84212e-15
4.1894e-15
3.91163e-15
4.23951e-15
3.98969e-15
4.29417e-15
4.07318e-15
4.35697e-15
4.1699e-15
4.42528e-15
4.28212e-15
4.50918e-15
4.39859e-15
4.59778e-15
4.52192e-15
4.69272e-15
4.64584e-15
4.80134e-15
4.77074e-15
4.89948e-15
4.90313e-15
5.00449e-15
5.06679e-15
5.10439e-15
5.22276e-15
5.24874e-15
5.37182e-15
5.37266e-15
5.52535e-15
5.54096e-15
5.70583e-15
5.72567e-15
5.89647e-15
5.95175e-15
6.12836e-15
6.14609e-15
6.3988e-15
6.4224e-15
6.84851e-15
6.83838e-15
7.13525e-15
7.19326e-15
7.46247e-15
7.47117e-15
7.92078e-15
7.92261e-15
8.39638e-15
8.40461e-15
8.82354e-15
8.87183e-15
9.07533e-15
8.94298e-15
8.83673e-15
8.94417e-15
8.80799e-15
8.80995e-15
8.76027e-15
8.76117e-15
8.67581e-15
8.7468e-15
8.63773e-15
8.73944e-15
8.614e-15
8.7292e-15
8.54942e-15
8.68248e-15
8.58887e-15
8.58612e-15
8.60726e-15
8.60771e-15
8.59461e-15
8.58376e-15
8.55076e-15
8.60694e-15
8.56619e-15
8.57745e-15
8.57344e-15
8.59169e-15
8.56466e-15
8.57555e-15
8.54802e-15
8.56342e-15
8.55393e-15
8.58553e-15
8.54797e-15
8.55742e-15
8.54001e-15
8.54562e-15
8.53143e-15
8.53499e-15
8.52287e-15
8.53648e-15
8.52307e-15
8.5393e-15
8.52204e-15
8.53835e-15
8.51606e-15
8.54236e-15
8.51273e-15
8.54009e-15
8.51497e-15
8.54274e-15
8.51582e-15
8.54008e-15
8.51575e-15
8.53427e-15
8.51638e-15
8.53075e-15
8.51545e-15
8.52898e-15
8.51632e-15
8.52859e-15
8.51689e-15
8.5288e-15
8.51686e-15
8.52835e-15
8.51673e-15
8.52771e-15
8.51666e-15
8.52748e-15
8.51653e-15
8.52746e-15
8.51654e-15
8.52747e-15
8.51657e-15
8.52751e-15
8.51652e-15
8.52754e-15
8.51649e-15
8.5276e-15
8.51649e-15
8.52761e-15
8.98494e-15
9.06828e-15
8.80978e-15
8.79475e-15
8.77231e-15
8.91631e-15
8.88981e-15
8.88641e-15
8.63916e-15
8.73449e-15
8.65018e-15
8.74848e-15
8.59854e-15
8.73021e-15
8.61254e-15
8.61253e-15
8.64654e-15
8.66841e-15
8.67351e-15
8.67249e-15
8.63621e-15
8.61809e-15
8.56201e-15
8.60618e-15
8.59115e-15
8.59444e-15
8.58201e-15
8.58655e-15
8.57563e-15
8.58391e-15
8.57182e-15
8.58808e-15
8.55218e-15
8.56844e-15
8.54407e-15
8.55541e-15
8.53506e-15
8.53467e-15
8.52714e-15
8.53703e-15
8.51906e-15
8.55004e-15
8.51775e-15
8.54724e-15
8.52256e-15
8.53883e-15
8.52997e-15
8.53193e-15
8.53022e-15
8.53234e-15
8.53063e-15
8.52952e-15
8.53401e-15
8.5282e-15
8.53361e-15
8.52808e-15
8.53124e-15
8.52786e-15
8.53028e-15
8.52664e-15
8.53041e-15
8.52638e-15
8.53024e-15
8.52686e-15
8.53015e-15
8.52661e-15
8.53012e-15
8.52621e-15
8.53013e-15
8.52623e-15
8.53032e-15
8.52624e-15
8.53026e-15
8.52623e-15
8.53023e-15
8.52621e-15
8.53029e-15
8.52618e-15
8.53031e-15
8.52615e-15
)
;

boundaryField
{
    walls
    {
        type            zeroGradient;
    }
    inlet
    {
        type            cyclic;
    }
    outlet
    {
        type            cyclic;
    }
    sides
    {
        type            empty;
    }
}


// ************************************************************************* //
