/*--------------------------------*- C++ -*----------------------------------*\
| =========                 |                                                 |
| \\      /  F ield         | OpenFOAM: The Open Source CFD Toolbox           |
|  \\    /   O peration     | Version:  2012                                  |
|   \\  /    A nd           | Website:  www.openfoam.com                      |
|    \\/     M anipulation  |                                                 |
\*---------------------------------------------------------------------------*/
FoamFile
{
    version     2.0;
    format      ascii;
    class       surfaceScalarField;
    location    "4000";
    object      phi;
}
// * * * * * * * * * * * * * * * * * * * * * * * * * * * * * * * * * * * * * //

dimensions      [0 3 -1 0 0 0 0];
oriented        oriented;


internalField   nonuniform List<scalar> 
636
(
1.12832e-06
-1.05036e-17
-1.27161e-20
-3.49089e-20
1.963e-21
3.96529e-06
-1.03733e-17
-4.28829e-20
-1.18252e-19
-3.86971e-21
7.87111e-06
-1.02059e-17
-5.49392e-20
-2.25439e-19
-5.16084e-21
1.31625e-05
-9.98864e-18
-7.02732e-20
-3.62859e-19
-6.60258e-21
2.0212e-05
-9.71767e-18
-8.7397e-20
-5.34266e-19
-7.99835e-21
2.93632e-05
-9.40423e-18
-1.03784e-19
-7.33712e-19
-9.0216e-21
4.07452e-05
-9.04517e-18
-1.15521e-19
-9.73494e-19
-9.33051e-21
5.41909e-05
-8.66656e-18
-1.20616e-19
-1.22275e-18
-8.85023e-21
6.94842e-05
-8.28239e-18
-1.20697e-19
-1.46605e-18
-7.85097e-21
8.66172e-05
-7.88644e-18
-1.18483e-19
-1.70522e-18
-6.66739e-21
0.000105792
-7.51536e-18
-1.15597e-19
-1.96965e-18
-5.62546e-21
0.000127332
-7.12826e-18
-1.12398e-19
-2.2415e-18
-4.7719e-21
0.000151631
-6.80343e-18
-1.09438e-19
-2.49195e-18
-3.98077e-21
0.00017913
-6.45876e-18
-1.0641e-19
-2.71876e-18
-3.9067e-21
0.000210324
-6.12834e-18
-1.0331e-19
-2.9434e-18
-5.37041e-21
0.000245761
-5.78032e-18
-1.00137e-19
-3.17942e-18
-8.07556e-21
0.000286053
-5.4391e-18
-9.59737e-20
-3.44768e-18
-1.31092e-20
0.000331883
-5.12066e-18
-9.05953e-20
-3.56913e-18
-2.04448e-20
0.00038402
-4.81803e-18
-8.66933e-20
-3.71469e-18
-3.01254e-20
0.000443324
-4.57394e-18
-8.66665e-20
-3.70302e-18
-4.10255e-20
0.000510764
-4.24063e-18
-9.0266e-20
-3.78578e-18
-5.80058e-20
0.000587432
-4.17038e-18
-1.06297e-19
-3.66812e-18
-7.79484e-20
0.000674556
-3.87202e-18
-1.11736e-19
-3.7199e-18
-1.10498e-19
0.000773521
-3.74869e-18
-1.23014e-19
-3.63441e-18
-1.25892e-19
0.00088589
-3.61939e-18
-1.38915e-19
-3.52866e-18
-1.33432e-19
0.00101343
-3.56392e-18
-1.63047e-19
-3.33123e-18
-1.3411e-19
0.00115812
-3.24655e-18
-1.55863e-19
-3.11701e-18
-1.52198e-19
0.00132223
-3.07676e-18
-1.8014e-19
-3.21719e-18
-1.88555e-19
0.00150826
-3.03981e-18
-1.91117e-19
-3.16804e-18
-2.03645e-19
0.00171909
-2.90776e-18
-1.74676e-19
-2.7756e-18
-1.38521e-19
0.00195792
-2.65205e-18
-1.12989e-19
-2.67181e-18
-1.69221e-19
0.00222834
-2.08348e-18
-8.93451e-21
-2.12971e-18
-3.16453e-20
0.00253439
-2.24027e-18
-1.12287e-19
-2.1857e-18
-5.25612e-20
0.00288052
-2.00614e-18
4.84225e-20
-2.04896e-18
8.62726e-20
0.00327167
-1.80699e-18
2.42868e-19
-1.8515e-18
-5.37935e-20
0.00371319
-1.70505e-18
2.02177e-20
-1.62733e-18
5.71526e-20
0.00421076
-1.60059e-18
3.1202e-20
-1.62271e-18
4.44547e-20
0.00477007
-1.46402e-18
1.53588e-19
-1.47065e-18
3.70445e-19
0.00539614
-8.39691e-19
-1.55229e-19
-8.0941e-19
-3.09668e-19
0.0060917
-6.05167e-19
-7.02649e-19
-3.24775e-19
-8.5938e-19
1.12832e-06
-9.27102e-21
-1.16541e-21
3.96529e-06
-4.24677e-20
-1.35894e-20
7.87111e-06
-8.79191e-20
-3.01803e-20
1.31625e-05
-1.44942e-19
-5.15285e-20
2.0212e-05
-2.06162e-19
-8.46157e-20
2.93632e-05
-2.8532e-19
-1.23074e-19
4.07452e-05
-3.67736e-19
-1.66816e-19
5.41909e-05
-4.42493e-19
-2.09648e-19
6.94842e-05
-5.37967e-19
-2.46006e-19
8.66172e-05
-6.16496e-19
-2.93586e-19
0.000105792
-6.62082e-19
-3.49436e-19
0.000127332
-7.45843e-19
-3.83958e-19
0.000151631
-8.34901e-19
-4.3901e-19
0.00017913
-8.85239e-19
-5.10377e-19
0.000210324
-9.20494e-19
-5.59725e-19
0.000245761
-8.97196e-19
-6.79188e-19
0.000286053
-9.04673e-19
-8.26013e-19
0.000331883
-1.01041e-18
-8.56114e-19
0.00038402
-1.11954e-18
-9.11285e-19
0.000443324
-1.19524e-18
-9.70201e-19
0.000510764
-1.26279e-18
-1.11483e-18
0.000587432
-1.23027e-18
-1.1705e-18
0.000674556
-1.24485e-18
-1.14442e-18
0.000773521
-1.44073e-18
-1.2868e-18
0.00088589
-1.60085e-18
-1.4144e-18
0.00101343
-1.65849e-18
-1.59689e-18
0.00115812
-1.76169e-18
-1.70442e-18
0.00132223
-1.7803e-18
-1.90912e-18
0.00150826
-1.96705e-18
-1.97667e-18
0.00171909
-2.0762e-18
-2.1199e-18
0.00195792
-2.10532e-18
-2.06638e-18
0.00222834
-2.05862e-18
-2.03978e-18
0.00253439
-1.96891e-18
-1.94536e-18
0.00288052
-1.66213e-18
-1.92202e-18
0.00327167
-1.77089e-18
-1.60255e-18
0.00371319
-1.67684e-18
-1.58999e-18
0.00421076
-1.63595e-18
-1.59557e-18
0.00477007
-1.60048e-18
-1.7339e-18
0.00539614
-9.45574e-19
-8.40174e-19
0.0060917
-4.7168e-19
-6.74618e-19
0.0060917
-8.21778e-19
-3.60709e-19
-6.40423e-19
-3.03298e-19
0.00539614
-9.89248e-19
-3.44949e-19
-9.88652e-19
-1.26328e-19
0.00477007
-1.13066e-18
-3.55314e-20
-1.24809e-18
-2.51831e-19
0.00421076
-9.28764e-19
-2.38633e-19
-8.57808e-19
-5.85593e-20
0.00371319
-9.71997e-19
4.82186e-20
-9.40126e-19
-1.3935e-19
0.00327167
-6.9203e-19
-1.89825e-19
-6.42561e-19
1.58221e-20
0.00288052
-3.99909e-19
-2.74418e-20
-4.16624e-19
-8.94676e-20
0.00253439
-4.46009e-19
-1.99394e-20
-5.16406e-19
-2.70443e-20
0.00222834
-2.68679e-19
-3.50455e-20
-2.55344e-19
-3.79767e-20
0.00195792
-1.05356e-19
-8.59677e-20
-2.07514e-19
-1.37757e-20
0.00171909
-2.87773e-19
-6.01484e-20
-2.18189e-19
4.06888e-20
0.00150826
-2.91753e-19
2.13273e-20
-3.94343e-19
-8.2794e-21
0.00132223
-1.97912e-19
5.23595e-22
-2.18614e-19
2.25916e-20
0.00115812
-5.23702e-20
-8.50811e-21
-3.36482e-20
1.1814e-20
0.00101343
-1.09741e-19
-2.57897e-20
-8.55683e-20
-1.30905e-20
0.00088589
-1.12339e-19
-1.54277e-20
8.47083e-21
3.3782e-21
0.000773521
-1.21414e-20
-2.98636e-21
-2.35772e-21
-6.3365e-21
0.000674556
7.45552e-21
-4.67465e-21
4.35126e-20
-4.28666e-21
0.000587432
1.76006e-20
-7.20975e-22
-6.30771e-20
-8.86074e-22
0.000510764
-4.17054e-20
1.93686e-21
2.05656e-20
3.92581e-21
0.000443324
-2.04948e-20
5.22002e-21
4.26924e-21
-1.02344e-21
0.00038402
2.73466e-20
5.54104e-21
-5.50626e-20
-1.68649e-21
0.000331883
5.30733e-21
2.69326e-21
3.31511e-21
1.04504e-21
0.000286053
-1.11276e-20
1.75699e-21
-3.04797e-20
1.21881e-21
0.000245761
-3.07031e-20
2.60561e-22
1.38463e-20
1.72851e-21
0.000210324
-2.72481e-20
-2.57185e-22
4.45428e-20
1.34273e-21
0.00017913
-2.03707e-20
-8.37899e-22
3.20407e-20
5.23297e-22
0.000151631
-1.21025e-21
-7.9596e-22
1.39587e-20
1.51545e-22
0.000127332
-3.1053e-20
-7.20085e-22
8.51327e-21
1.00492e-22
0.000105792
-2.97934e-20
-5.19277e-22
6.94677e-22
5.81128e-23
8.66172e-05
-1.27637e-20
-4.5991e-22
-7.74822e-22
5.7595e-23
6.94842e-05
-5.65987e-21
-4.51737e-22
5.25807e-21
3.61607e-23
5.41909e-05
-5.78915e-21
-4.39043e-22
5.35941e-21
3.42589e-23
4.07452e-05
-2.03219e-21
-3.9625e-22
4.43872e-21
4.67523e-23
2.93632e-05
-2.24712e-21
-3.38333e-22
3.48886e-21
4.61407e-23
2.0212e-05
-3.12483e-21
-2.70893e-22
1.27423e-21
4.25583e-23
1.31626e-05
-8.6694e-22
-2.0108e-22
7.83825e-22
3.74488e-23
7.87112e-06
1.3477e-22
-1.46023e-22
2.69248e-22
3.08148e-23
3.96529e-06
-4.22096e-22
-1.04957e-22
3.12411e-22
2.37773e-23
1.12832e-06
-4.9493e-23
6.0442e-24
0.0060917
-5.86458e-19
-3.84388e-19
0.00539614
-9.36806e-19
-1.0704e-18
0.00477007
-1.27828e-18
-1.23658e-18
0.00421076
-7.82625e-19
-8.94306e-19
0.00371319
-1.06197e-18
-7.97935e-19
0.00327167
-5.38288e-19
-6.50469e-19
0.00288052
-4.43286e-19
-3.68524e-19
0.00253439
-5.90918e-19
-6.09553e-19
0.00222834
-4.69528e-19
-4.00284e-19
0.00195792
-7.19206e-20
-1.69137e-19
0.00171909
2.36356e-20
-1.80384e-19
0.00150826
-2.34298e-19
-1.83736e-19
0.00132223
-1.22931e-19
-1.52106e-19
0.00115812
-7.23225e-20
-9.60453e-20
0.00101343
-7.24697e-20
-3.79732e-20
0.00088589
-5.19862e-20
-1.05947e-19
0.000773521
-7.54034e-20
-5.27985e-20
0.000674556
-6.16221e-22
-1.63113e-21
0.000587432
2.15931e-20
-1.45676e-20
0.000510764
-8.43721e-21
-9.01026e-20
0.000443324
-3.68238e-20
-4.80314e-20
0.00038402
-8.01847e-20
5.78575e-21
0.000331883
-4.25363e-20
8.18566e-21
0.000286053
-8.10089e-20
1.00042e-21
0.000245761
-3.46187e-20
-3.16086e-22
0.000210324
-4.09233e-20
-6.63843e-21
0.00017913
-8.90282e-22
8.79416e-22
0.000151631
1.7668e-20
5.17792e-21
0.000127332
1.8107e-20
-6.48232e-21
0.000105792
2.0779e-21
-4.84213e-21
8.66172e-05
3.18987e-21
-4.89915e-21
6.94842e-05
1.30629e-21
1.57913e-23
5.41909e-05
-2.20537e-22
5.35773e-22
4.07452e-05
-1.04264e-21
-2.06833e-21
2.93632e-05
-4.03785e-21
-9.29367e-22
2.0212e-05
-1.0601e-21
-9.48854e-22
1.31626e-05
-8.72173e-23
-5.23293e-23
7.87112e-06
-3.38248e-22
-1.8069e-22
3.96529e-06
-1.01095e-22
-2.63581e-23
1.12832e-06
)
;

boundaryField
{
    walls
    {
        type            calculated;
        value           uniform 0;
    }
    inlet
    {
        type            cyclic;
        value           nonuniform List<scalar> 
160
(
-1.12832e-06
-3.96529e-06
-7.87111e-06
-1.31625e-05
-2.0212e-05
-2.93632e-05
-4.07452e-05
-5.41909e-05
-6.94842e-05
-8.66172e-05
-0.000105792
-0.000127332
-0.000151631
-0.00017913
-0.000210324
-0.000245761
-0.000286053
-0.000331883
-0.00038402
-0.000443324
-0.000510764
-0.000587432
-0.000674556
-0.000773521
-0.00088589
-0.00101343
-0.00115812
-0.00132223
-0.00150826
-0.00171909
-0.00195792
-0.00222834
-0.00253439
-0.00288052
-0.00327167
-0.00371319
-0.00421076
-0.00477007
-0.00539614
-0.0060917
-1.12832e-06
-3.96529e-06
-7.87111e-06
-1.31625e-05
-2.0212e-05
-2.93632e-05
-4.07452e-05
-5.41909e-05
-6.94842e-05
-8.66172e-05
-0.000105792
-0.000127332
-0.000151631
-0.00017913
-0.000210324
-0.000245761
-0.000286053
-0.000331883
-0.00038402
-0.000443324
-0.000510764
-0.000587432
-0.000674556
-0.000773521
-0.00088589
-0.00101343
-0.00115812
-0.00132223
-0.00150826
-0.00171909
-0.00195792
-0.00222834
-0.00253439
-0.00288052
-0.00327167
-0.00371319
-0.00421076
-0.00477007
-0.00539614
-0.0060917
-0.0060917
-0.00539614
-0.00477007
-0.00421076
-0.00371319
-0.00327167
-0.00288052
-0.00253439
-0.00222834
-0.00195792
-0.00171909
-0.00150826
-0.00132223
-0.00115812
-0.00101343
-0.00088589
-0.000773521
-0.000674556
-0.000587432
-0.000510764
-0.000443324
-0.00038402
-0.000331883
-0.000286053
-0.000245761
-0.000210324
-0.00017913
-0.000151631
-0.000127332
-0.000105792
-8.66172e-05
-6.94842e-05
-5.41909e-05
-4.07452e-05
-2.93632e-05
-2.0212e-05
-1.31626e-05
-7.87112e-06
-3.96529e-06
-1.12832e-06
-0.0060917
-0.00539614
-0.00477007
-0.00421076
-0.00371319
-0.00327167
-0.00288052
-0.00253439
-0.00222834
-0.00195792
-0.00171909
-0.00150826
-0.00132223
-0.00115812
-0.00101343
-0.00088589
-0.000773521
-0.000674556
-0.000587432
-0.000510764
-0.000443324
-0.00038402
-0.000331883
-0.000286053
-0.000245761
-0.000210324
-0.00017913
-0.000151631
-0.000127332
-0.000105792
-8.66172e-05
-6.94842e-05
-5.41909e-05
-4.07452e-05
-2.93632e-05
-2.0212e-05
-1.31626e-05
-7.87112e-06
-3.96529e-06
-1.12832e-06
)
;
    }
    outlet
    {
        type            cyclic;
        value           nonuniform List<scalar> 
160
(
1.12832e-06
3.96529e-06
7.87111e-06
1.31625e-05
2.0212e-05
2.93632e-05
4.07452e-05
5.41909e-05
6.94842e-05
8.66172e-05
0.000105792
0.000127332
0.000151631
0.00017913
0.000210324
0.000245761
0.000286053
0.000331883
0.00038402
0.000443324
0.000510764
0.000587432
0.000674556
0.000773521
0.00088589
0.00101343
0.00115812
0.00132223
0.00150826
0.00171909
0.00195792
0.00222834
0.00253439
0.00288052
0.00327167
0.00371319
0.00421076
0.00477007
0.00539614
0.0060917
1.12832e-06
3.96529e-06
7.87111e-06
1.31625e-05
2.0212e-05
2.93632e-05
4.07452e-05
5.41909e-05
6.94842e-05
8.66172e-05
0.000105792
0.000127332
0.000151631
0.00017913
0.000210324
0.000245761
0.000286053
0.000331883
0.00038402
0.000443324
0.000510764
0.000587432
0.000674556
0.000773521
0.00088589
0.00101343
0.00115812
0.00132223
0.00150826
0.00171909
0.00195792
0.00222834
0.00253439
0.00288052
0.00327167
0.00371319
0.00421076
0.00477007
0.00539614
0.0060917
0.0060917
0.00539614
0.00477007
0.00421076
0.00371319
0.00327167
0.00288052
0.00253439
0.00222834
0.00195792
0.00171909
0.00150826
0.00132223
0.00115812
0.00101343
0.00088589
0.000773521
0.000674556
0.000587432
0.000510764
0.000443324
0.00038402
0.000331883
0.000286053
0.000245761
0.000210324
0.00017913
0.000151631
0.000127332
0.000105792
8.66172e-05
6.94842e-05
5.41909e-05
4.07452e-05
2.93632e-05
2.0212e-05
1.31626e-05
7.87112e-06
3.96529e-06
1.12832e-06
0.0060917
0.00539614
0.00477007
0.00421076
0.00371319
0.00327167
0.00288052
0.00253439
0.00222834
0.00195792
0.00171909
0.00150826
0.00132223
0.00115812
0.00101343
0.00088589
0.000773521
0.000674556
0.000587432
0.000510764
0.000443324
0.00038402
0.000331883
0.000286053
0.000245761
0.000210324
0.00017913
0.000151631
0.000127332
0.000105792
8.66172e-05
6.94842e-05
5.41909e-05
4.07452e-05
2.93632e-05
2.0212e-05
1.31626e-05
7.87112e-06
3.96529e-06
1.12832e-06
)
;
    }
    sides
    {
        type            empty;
        value           nonuniform List<scalar> 0();
    }
}


// ************************************************************************* //
