/*--------------------------------*- C++ -*----------------------------------*\
| =========                 |                                                 |
| \\      /  F ield         | OpenFOAM: The Open Source CFD Toolbox           |
|  \\    /   O peration     | Version:  2106                                  |
|   \\  /    A nd           | Website:  www.openfoam.com                      |
|    \\/     M anipulation  |                                                 |
\*---------------------------------------------------------------------------*/
FoamFile
{
    version     2.0;
    format      ascii;
    arch        "LSB;label=32;scalar=64";
    class       surfaceScalarField;
    location    "4000";
    object      phi;
}
// * * * * * * * * * * * * * * * * * * * * * * * * * * * * * * * * * * * * * //

dimensions      [0 3 -1 0 0 0 0];

oriented        oriented;

internalField   nonuniform List<scalar> 
5116
(
2.96188e-08
-7.1206e-18
-3.74387e-22
-8.3537e-22
4.81185e-24
9.05813e-08
-7.11593e-18
-1.62017e-21
-3.59189e-21
-2.62502e-22
1.54198e-07
-7.11109e-18
-1.67416e-21
-6.4662e-21
-2.74083e-22
2.20557e-07
-7.10611e-18
-1.73367e-21
-9.42928e-21
-2.86151e-22
2.89749e-07
-7.10104e-18
-1.79258e-21
-1.24424e-20
-2.98726e-22
3.61867e-07
-7.09572e-18
-1.85239e-21
-1.56558e-20
-3.11828e-22
4.37007e-07
-7.09022e-18
-1.91424e-21
-1.8915e-20
-3.25477e-22
5.15268e-07
-7.08453e-18
-1.97837e-21
-2.23652e-20
-3.39692e-22
5.9675e-07
-7.07861e-18
-2.04479e-21
-2.58283e-20
-3.54489e-22
6.81555e-07
-7.0724e-18
-2.11352e-21
-2.94053e-20
-3.69884e-22
7.69787e-07
-7.06624e-18
-2.18459e-21
-3.30306e-20
-3.85893e-22
8.61551e-07
-7.05995e-18
-2.25803e-21
-3.67122e-20
-4.02522e-22
9.5695e-07
-7.05341e-18
-2.3338e-21
-4.05034e-20
-4.19777e-22
1.05609e-06
-7.04666e-18
-2.41187e-21
-4.45377e-20
-4.37655e-22
1.15906e-06
-7.0395e-18
-2.4921e-21
-4.88904e-20
-4.56138e-22
1.26596e-06
-7.03222e-18
-2.57434e-21
-5.32106e-20
-4.75198e-22
1.37688e-06
-7.02451e-18
-2.65832e-21
-5.75471e-20
-4.94795e-22
1.49189e-06
-7.01638e-18
-2.74372e-21
-6.24811e-20
-5.14862e-22
1.61104e-06
-7.00849e-18
-2.83011e-21
-6.72887e-20
-5.35315e-22
1.7344e-06
-6.99998e-18
-2.91693e-21
-7.22617e-20
-5.56058e-22
1.86197e-06
-6.9913e-18
-3.00357e-21
-7.74747e-20
-5.76968e-22
1.99376e-06
-6.98276e-18
-3.08928e-21
-8.25211e-20
-5.97904e-22
2.12976e-06
-6.97457e-18
-3.17324e-21
-8.75019e-20
-6.18713e-22
2.26989e-06
-6.96549e-18
-3.25459e-21
-9.2832e-20
-6.39214e-22
2.41409e-06
-6.95645e-18
-3.33245e-21
-9.83175e-20
-6.59209e-22
2.56225e-06
-6.9468e-18
-3.40597e-21
-1.03509e-19
-6.78516e-22
2.71423e-06
-6.93679e-18
-3.47434e-21
-1.09291e-19
-6.96973e-22
2.86988e-06
-6.92611e-18
-3.53688e-21
-1.15216e-19
-7.14401e-22
3.02902e-06
-6.91557e-18
-3.59303e-21
-1.20412e-19
-7.3067e-22
3.19147e-06
-6.9051e-18
-3.64239e-21
-1.2644e-19
-7.45691e-22
3.35703e-06
-6.89424e-18
-3.68472e-21
-1.32653e-19
-7.59376e-22
3.52552e-06
-6.88328e-18
-3.71998e-21
-1.38753e-19
-7.71711e-22
3.69673e-06
-6.87204e-18
-3.7483e-21
-1.45138e-19
-7.82701e-22
3.87049e-06
-6.86109e-18
-3.76996e-21
-1.50435e-19
-7.92365e-22
4.04664e-06
-6.85036e-18
-3.78538e-21
-1.55979e-19
-8.00786e-22
4.22502e-06
-6.83999e-18
-3.79507e-21
-1.60301e-19
-8.08069e-22
4.40553e-06
-6.83052e-18
-3.79961e-21
-1.6528e-19
-8.14329e-22
4.58803e-06
-6.81935e-18
-3.79953e-21
-1.70947e-19
-8.19653e-22
4.77246e-06
-6.80946e-18
-3.79549e-21
-1.75316e-19
-8.24122e-22
4.95875e-06
-6.79865e-18
-3.78803e-21
-1.81067e-19
-8.27895e-22
5.14685e-06
-6.78796e-18
-3.77775e-21
-1.86498e-19
-8.31062e-22
5.33674e-06
-6.77782e-18
-3.76514e-21
-1.91803e-19
-8.33703e-22
5.52839e-06
-6.7668e-18
-3.75067e-21
-1.96793e-19
-8.35873e-22
5.72183e-06
-6.75727e-18
-3.7348e-21
-2.01731e-19
-8.37662e-22
5.91706e-06
-6.74761e-18
-3.71785e-21
-2.06246e-19
-8.39185e-22
6.11412e-06
-6.73654e-18
-3.70014e-21
-2.11816e-19
-8.40531e-22
6.31304e-06
-6.7255e-18
-3.68198e-21
-2.17402e-19
-8.41712e-22
6.51386e-06
-6.71539e-18
-3.66365e-21
-2.23152e-19
-8.42727e-22
6.71664e-06
-6.70522e-18
-3.64525e-21
-2.28446e-19
-8.43601e-22
6.92145e-06
-6.69531e-18
-3.62695e-21
-2.34372e-19
-8.4439e-22
7.12833e-06
-6.68438e-18
-3.60884e-21
-2.39521e-19
-8.45122e-22
7.33737e-06
-6.67318e-18
-3.59105e-21
-2.44715e-19
-8.45862e-22
7.54862e-06
-6.66253e-18
-3.57376e-21
-2.50837e-19
-8.46602e-22
7.76217e-06
-6.65268e-18
-3.5569e-21
-2.56555e-19
-8.47332e-22
7.97809e-06
-6.64455e-18
-3.54054e-21
-2.60877e-19
-8.47991e-22
8.19646e-06
-6.6375e-18
-3.52469e-21
-2.63606e-19
-8.48737e-22
8.41735e-06
-6.63117e-18
-3.50917e-21
-2.68541e-19
-8.49622e-22
8.64084e-06
-6.62368e-18
-3.49395e-21
-2.71819e-19
-8.50587e-22
8.86702e-06
-6.61247e-18
-3.47909e-21
-2.78208e-19
-8.51705e-22
9.09597e-06
-6.60486e-18
-3.46477e-21
-2.82426e-19
-8.52787e-22
9.32777e-06
-6.59668e-18
-3.45081e-21
-2.86443e-19
-8.53963e-22
9.5625e-06
-6.58822e-18
-3.43715e-21
-2.89579e-19
-8.55116e-22
9.80024e-06
-6.57971e-18
-3.42372e-21
-2.94923e-19
-8.56518e-22
1.00411e-05
-6.57287e-18
-3.41058e-21
-2.97832e-19
-8.57798e-22
1.02851e-05
-6.56534e-18
-3.39755e-21
-3.01101e-19
-8.59216e-22
1.05324e-05
-6.55678e-18
-3.38479e-21
-3.06134e-19
-8.60887e-22
1.0783e-05
-6.55093e-18
-3.37207e-21
-3.095e-19
-8.62481e-22
1.10371e-05
-6.54288e-18
-3.35926e-21
-3.10706e-19
-8.64446e-22
1.12947e-05
-6.53752e-18
-3.3464e-21
-3.1603e-19
-8.66572e-22
1.15559e-05
-6.52571e-18
-3.33328e-21
-3.20687e-19
-8.6869e-22
1.18208e-05
-6.51728e-18
-3.32017e-21
-3.26382e-19
-8.71009e-22
1.20894e-05
-6.50882e-18
-3.30697e-21
-3.30687e-19
-8.73463e-22
1.23619e-05
-6.4994e-18
-3.29378e-21
-3.36339e-19
-8.75924e-22
1.26384e-05
-6.49085e-18
-3.28054e-21
-3.41127e-19
-8.7824e-22
1.29189e-05
-6.48194e-18
-3.26719e-21
-3.45637e-19
-8.80373e-22
1.32035e-05
-6.47314e-18
-3.25383e-21
-3.50764e-19
-8.8194e-22
1.34923e-05
-6.46503e-18
-3.24064e-21
-3.55502e-19
-8.83076e-22
1.37855e-05
-6.4594e-18
-3.22758e-21
-3.61257e-19
-8.83827e-22
1.4083e-05
-6.45612e-18
-3.21436e-21
-3.6557e-19
-8.84113e-22
1.4385e-05
-6.44329e-18
-3.20054e-21
-3.74555e-19
-8.84001e-22
1.46915e-05
-6.43345e-18
-3.18707e-21
-3.77109e-19
-8.8311e-22
1.50028e-05
-6.42824e-18
-3.17358e-21
-3.82582e-19
-8.81709e-22
1.53188e-05
-6.42594e-18
-3.15943e-21
-3.7933e-19
-8.79828e-22
1.56396e-05
-6.42032e-18
-3.14483e-21
-3.826e-19
-8.77178e-22
1.59653e-05
-6.41312e-18
-3.12975e-21
-3.84708e-19
-8.73504e-22
1.62961e-05
-6.40787e-18
-3.11397e-21
-3.85792e-19
-8.69019e-22
1.66321e-05
-6.39766e-18
-3.09708e-21
-3.87527e-19
-8.64203e-22
1.69732e-05
-6.39079e-18
-3.07964e-21
-3.91351e-19
-8.58579e-22
1.73197e-05
-6.38875e-18
-3.06144e-21
-3.89235e-19
-8.51872e-22
1.76716e-05
-6.38138e-18
-3.04191e-21
-3.9215e-19
-8.44851e-22
1.8029e-05
-6.37401e-18
-3.02169e-21
-3.95675e-19
-8.36778e-22
1.83921e-05
-6.36474e-18
-3.00054e-21
-3.96752e-19
-8.28165e-22
1.87609e-05
-6.35327e-18
-2.97877e-21
-4.05854e-19
-8.18901e-22
1.91355e-05
-6.34854e-18
-2.95694e-21
-4.09259e-19
-8.07868e-22
1.9516e-05
-6.33652e-18
-2.93384e-21
-4.16045e-19
-7.96387e-22
1.99026e-05
-6.32883e-18
-2.91093e-21
-4.19161e-19
-7.8418e-22
2.02953e-05
-6.31636e-18
-2.88708e-21
-4.22607e-19
-7.71251e-22
2.06943e-05
-6.30627e-18
-2.86334e-21
-4.28615e-19
-7.56678e-22
2.10996e-05
-6.30076e-18
-2.83975e-21
-4.34766e-19
-7.4078e-22
2.15114e-05
-6.29081e-18
-2.81514e-21
-4.35474e-19
-7.24411e-22
2.19298e-05
-6.28242e-18
-2.79053e-21
-4.38299e-19
-7.07562e-22
2.23548e-05
-6.26851e-18
-2.76513e-21
-4.43011e-19
-6.88967e-22
2.27867e-05
-6.25626e-18
-2.74013e-21
-4.49927e-19
-6.6889e-22
2.32255e-05
-6.24396e-18
-2.71643e-21
-4.58804e-19
-6.45296e-22
2.36714e-05
-6.23568e-18
-2.69319e-21
-4.65603e-19
-6.19006e-22
2.41244e-05
-6.22123e-18
-2.67037e-21
-4.75791e-19
-5.90595e-22
2.45847e-05
-6.21168e-18
-2.64803e-21
-4.83949e-19
-5.58355e-22
2.50524e-05
-6.19785e-18
-2.62557e-21
-4.91629e-19
-5.24991e-22
2.55276e-05
-6.18512e-18
-2.60408e-21
-4.98258e-19
-4.89053e-22
2.60105e-05
-6.18258e-18
-2.58476e-21
-4.97456e-19
-4.49777e-22
2.65012e-05
-6.17582e-18
-2.56345e-21
-5.03378e-19
-4.09514e-22
2.69997e-05
-6.16697e-18
-2.54116e-21
-5.01303e-19
-3.66772e-22
2.75063e-05
-6.15996e-18
-2.51861e-21
-5.06647e-19
-3.23129e-22
2.80211e-05
-6.15308e-18
-2.49634e-21
-5.11365e-19
-2.77906e-22
2.85442e-05
-6.14473e-18
-2.47425e-21
-5.20504e-19
-2.30499e-22
2.90757e-05
-6.14e-18
-2.45211e-21
-5.21977e-19
-1.80786e-22
2.96158e-05
-6.13243e-18
-2.42692e-21
-5.21474e-19
-1.29687e-22
3.01646e-05
-6.11886e-18
-2.40141e-21
-5.24006e-19
-7.77386e-23
3.07222e-05
-6.11016e-18
-2.37443e-21
-5.25736e-19
-2.54578e-23
3.12889e-05
-6.09943e-18
-2.347e-21
-5.25424e-19
2.95776e-23
3.18646e-05
-6.07738e-18
-2.3199e-21
-5.26992e-19
8.55358e-23
3.24497e-05
-6.0639e-18
-2.29532e-21
-5.33158e-19
1.42608e-22
3.30442e-05
-6.0552e-18
-2.26933e-21
-5.41584e-19
2.01585e-22
3.36483e-05
-6.03982e-18
-2.24468e-21
-5.43397e-19
2.62756e-22
3.42621e-05
-6.02221e-18
-2.22221e-21
-5.52068e-19
3.26239e-22
3.48859e-05
-6.00456e-18
-2.20283e-21
-5.65174e-19
3.92587e-22
3.55196e-05
-5.99725e-18
-2.18347e-21
-5.68614e-19
4.66301e-22
3.61636e-05
-5.98297e-18
-2.16514e-21
-5.76943e-19
5.45527e-22
3.68179e-05
-5.97619e-18
-2.1503e-21
-5.83431e-19
6.32743e-22
3.74828e-05
-5.96956e-18
-2.13894e-21
-5.87905e-19
7.25297e-22
3.81584e-05
-5.95442e-18
-2.12881e-21
-6.02524e-19
8.26259e-22
3.88448e-05
-5.95335e-18
-2.12738e-21
-6.02116e-19
9.41059e-22
3.95423e-05
-5.95047e-18
-2.12634e-21
-6.00413e-19
1.06163e-21
4.0251e-05
-5.94194e-18
-2.12506e-21
-6.05115e-19
1.18339e-21
4.0971e-05
-5.93708e-18
-2.12582e-21
-6.08871e-19
1.31044e-21
4.17026e-05
-5.94198e-18
-2.12757e-21
-6.14616e-19
1.44067e-21
4.2446e-05
-5.93398e-18
-2.12649e-21
-6.24581e-19
1.57142e-21
4.32012e-05
-5.93656e-18
-2.12961e-21
-6.30222e-19
1.71037e-21
4.39686e-05
-5.92571e-18
-2.12862e-21
-6.36388e-19
1.85181e-21
4.47483e-05
-5.91634e-18
-2.13148e-21
-6.426e-19
1.99874e-21
4.55404e-05
-5.91575e-18
-2.13388e-21
-6.53872e-19
2.14286e-21
4.63452e-05
-5.89233e-18
-2.13127e-21
-6.70559e-19
2.29222e-21
4.71629e-05
-5.88624e-18
-2.13645e-21
-6.73809e-19
2.44313e-21
4.79936e-05
-5.86028e-18
-2.14007e-21
-6.97861e-19
2.59114e-21
4.88376e-05
-5.84626e-18
-2.15202e-21
-7.13381e-19
2.75122e-21
4.9695e-05
-5.8361e-18
-2.16206e-21
-7.18181e-19
2.91591e-21
5.05662e-05
-5.82177e-18
-2.16987e-21
-7.38686e-19
3.07564e-21
5.14512e-05
-5.80195e-18
-2.17742e-21
-7.57893e-19
3.23988e-21
5.23502e-05
-5.78603e-18
-2.18945e-21
-7.77496e-19
3.41359e-21
5.32636e-05
-5.7727e-18
-2.20242e-21
-7.93341e-19
3.59645e-21
5.41916e-05
-5.74617e-18
-2.21887e-21
-8.18725e-19
3.78681e-21
5.51342e-05
-5.73724e-18
-2.24788e-21
-8.30084e-19
3.98549e-21
5.60918e-05
-5.72695e-18
-2.28088e-21
-8.42743e-19
4.18559e-21
5.70646e-05
-5.69658e-18
-2.31858e-21
-8.53894e-19
4.38601e-21
5.80529e-05
-5.68173e-18
-2.371e-21
-8.69788e-19
4.59035e-21
5.90567e-05
-5.66666e-18
-2.43192e-21
-8.89579e-19
4.79572e-21
6.00765e-05
-5.66626e-18
-2.50664e-21
-9.02423e-19
5.01018e-21
6.11124e-05
-5.63194e-18
-2.56511e-21
-9.31791e-19
5.22699e-21
6.21646e-05
-5.57335e-18
-2.64713e-21
-9.7427e-19
5.45323e-21
6.32335e-05
-5.56229e-18
-2.75542e-21
-9.73896e-19
5.67672e-21
6.43192e-05
-5.5449e-18
-2.85489e-21
-9.74533e-19
5.87802e-21
6.54221e-05
-5.55048e-18
-2.96897e-21
-9.75577e-19
6.08162e-21
6.65423e-05
-5.5455e-18
-3.0641e-21
-9.75939e-19
6.28213e-21
6.76801e-05
-5.54142e-18
-3.15283e-21
-9.9187e-19
6.45962e-21
6.88359e-05
-5.53076e-18
-3.26621e-21
-9.94152e-19
6.62924e-21
7.00098e-05
-5.51477e-18
-3.38844e-21
-1.01519e-18
6.78546e-21
7.12021e-05
-5.49373e-18
-3.52781e-21
-1.03244e-18
6.93173e-21
7.24131e-05
-5.496e-18
-3.70494e-21
-1.0407e-18
7.06208e-21
7.36431e-05
-5.46951e-18
-3.87313e-21
-1.05023e-18
7.16263e-21
7.48924e-05
-5.46051e-18
-4.06509e-21
-1.05993e-18
7.2252e-21
7.61612e-05
-5.45647e-18
-4.24358e-21
-1.08342e-18
7.24222e-21
7.74499e-05
-5.42951e-18
-4.39665e-21
-1.09958e-18
7.23056e-21
7.87587e-05
-5.40141e-18
-4.56964e-21
-1.11766e-18
7.21083e-21
8.00879e-05
-5.38034e-18
-4.7548e-21
-1.14106e-18
7.15424e-21
8.14378e-05
-5.35671e-18
-4.92251e-21
-1.16659e-18
7.05425e-21
8.28088e-05
-5.31875e-18
-5.09098e-21
-1.18325e-18
6.94626e-21
8.42011e-05
-5.28929e-18
-5.27338e-21
-1.21683e-18
6.81151e-21
8.5615e-05
-5.26074e-18
-5.46186e-21
-1.24278e-18
6.65148e-21
8.7051e-05
-5.21741e-18
-5.66113e-21
-1.25699e-18
6.48536e-21
8.85092e-05
-5.19192e-18
-5.89249e-21
-1.29361e-18
6.32484e-21
8.999e-05
-5.15542e-18
-6.11211e-21
-1.32004e-18
6.14195e-21
9.14938e-05
-5.10644e-18
-6.32127e-21
-1.33672e-18
5.94747e-21
9.30209e-05
-5.07618e-18
-6.53887e-21
-1.35293e-18
5.7426e-21
9.45717e-05
-5.0319e-18
-6.75255e-21
-1.39126e-18
5.5579e-21
9.61464e-05
-4.99318e-18
-6.93227e-21
-1.4147e-18
5.38391e-21
9.77454e-05
-4.94176e-18
-7.12499e-21
-1.45307e-18
5.18368e-21
9.93691e-05
-4.9001e-18
-7.34453e-21
-1.47693e-18
4.99379e-21
0.000101018
-4.85785e-18
-7.59146e-21
-1.50538e-18
4.8053e-21
0.000102692
-4.81452e-18
-7.799e-21
-1.532e-18
4.62109e-21
0.000104392
-4.79379e-18
-8.01727e-21
-1.56069e-18
4.43095e-21
0.000106118
-4.75721e-18
-8.20111e-21
-1.59682e-18
4.26181e-21
0.00010787
-4.71728e-18
-8.37033e-21
-1.64631e-18
4.13553e-21
0.00010965
-4.68041e-18
-8.54451e-21
-1.68394e-18
4.0564e-21
0.000111457
-4.64176e-18
-8.72804e-21
-1.72478e-18
3.9995e-21
0.000113291
-4.60542e-18
-8.94145e-21
-1.76798e-18
3.94293e-21
0.000115153
-4.56466e-18
-9.2081e-21
-1.82326e-18
3.85885e-21
0.000117044
-4.52879e-18
-9.4825e-21
-1.84432e-18
3.82061e-21
0.000118964
-4.5107e-18
-9.65965e-21
-1.89701e-18
3.74306e-21
0.000120914
-4.46086e-18
-9.80741e-21
-1.92869e-18
3.67126e-21
0.000122892
-4.42699e-18
-1.00487e-20
-1.96506e-18
3.49561e-21
0.000124902
-4.36782e-18
-1.02692e-20
-2.01618e-18
3.22797e-21
0.000126941
-4.32351e-18
-1.05127e-20
-2.06018e-18
2.99441e-21
0.000129012
-4.27463e-18
-1.0658e-20
-2.10302e-18
2.74337e-21
0.000131114
-4.23631e-18
-1.08477e-20
-2.10702e-18
2.46389e-21
0.000133248
-4.18766e-18
-1.09794e-20
-2.16086e-18
2.10238e-21
0.000135414
-4.14165e-18
-1.11571e-20
-2.20366e-18
1.73307e-21
0.000137614
-4.11462e-18
-1.13323e-20
-2.2319e-18
1.30032e-21
0.000139846
-4.07159e-18
-1.14144e-20
-2.26379e-18
8.75628e-22
0.000142112
-3.98633e-18
-1.14849e-20
-2.33811e-18
5.57535e-22
0.000144413
-3.94401e-18
-1.16274e-20
-2.36478e-18
3.82112e-22
0.000146748
-3.91773e-18
-1.17024e-20
-2.38013e-18
9.78864e-23
0.000149118
-3.87532e-18
-1.16219e-20
-2.39978e-18
-1.67476e-22
0.000151524
-3.82624e-18
-1.15756e-20
-2.43932e-18
-5.61275e-22
0.000153967
-3.79323e-18
-1.17129e-20
-2.45748e-18
-8.23661e-22
0.000156446
-3.71823e-18
-1.1832e-20
-2.48153e-18
-1.08707e-21
0.000158962
-3.67628e-18
-1.19761e-20
-2.50075e-18
-1.35423e-21
0.000161516
-3.64242e-18
-1.21362e-20
-2.52524e-18
-1.69803e-21
0.000164108
-3.61313e-18
-1.23134e-20
-2.54624e-18
-2.09364e-21
0.000166739
-3.56253e-18
-1.26201e-20
-2.56728e-18
-2.63694e-21
0.000169409
-3.53573e-18
-1.30054e-20
-2.61129e-18
-3.01774e-21
0.000172119
-3.51045e-18
-1.33884e-20
-2.631e-18
-3.30116e-21
0.00017487
-3.47619e-18
-1.36517e-20
-2.64466e-18
-3.7749e-21
0.000177661
-3.46763e-18
-1.40332e-20
-2.63944e-18
-4.13053e-21
0.000180494
-3.40558e-18
-1.42769e-20
-2.65965e-18
-4.53017e-21
0.000183369
-3.39038e-18
-1.47517e-20
-2.65136e-18
-5.11522e-21
0.000186287
-3.33052e-18
-1.5045e-20
-2.65889e-18
-5.97025e-21
0.000189248
-3.31526e-18
-1.53531e-20
-2.66952e-18
-6.74651e-21
0.000192253
-3.31447e-18
-1.57394e-20
-2.66284e-18
-7.06476e-21
0.000195303
-3.22952e-18
-1.59689e-20
-2.68142e-18
-7.50863e-21
0.000198397
-3.19301e-18
-1.64163e-20
-2.68692e-18
-8.06338e-21
0.000201537
-3.21497e-18
-1.68098e-20
-2.68618e-18
-8.46758e-21
0.000204723
-3.23282e-18
-1.68787e-20
-2.69539e-18
-8.40574e-21
0.000207956
-3.13822e-18
-1.65762e-20
-2.67632e-18
-8.25551e-21
0.000211237
-3.10526e-18
-1.64892e-20
-2.6318e-18
-8.42779e-21
0.000214566
-3.07887e-18
-1.63013e-20
-2.59126e-18
-8.80294e-21
0.000217943
-3.06008e-18
-1.61944e-20
-2.58484e-18
-9.23216e-21
0.000221371
-3.08854e-18
-1.61051e-20
-2.52665e-18
-9.50632e-21
0.000224848
-2.98786e-18
-1.54946e-20
-2.51898e-18
-1.04314e-20
0.000228375
-2.95632e-18
-1.58849e-20
-2.53934e-18
-1.10527e-20
0.000231955
-3.0033e-18
-1.64694e-20
-2.47676e-18
-1.10591e-20
0.000235586
-2.98221e-18
-1.68666e-20
-2.4631e-18
-1.1476e-20
0.00023927
-2.96628e-18
-1.71363e-20
-2.45264e-18
-1.20863e-20
0.000243008
-2.90264e-18
-1.74617e-20
-2.50301e-18
-1.2579e-20
0.000246799
-2.89059e-18
-1.82823e-20
-2.45125e-18
-1.25984e-20
0.000250646
-2.92547e-18
-1.89174e-20
-2.44505e-18
-1.31032e-20
0.000254548
-2.86859e-18
-1.88785e-20
-2.47251e-18
-1.36618e-20
0.000258506
-2.84234e-18
-1.84762e-20
-2.52122e-18
-1.44126e-20
0.000262522
-2.78286e-18
-1.79306e-20
-2.52228e-18
-1.50134e-20
0.000266595
-2.69313e-18
-1.78975e-20
-2.5413e-18
-1.47825e-20
0.000270727
-2.67531e-18
-1.77655e-20
-2.57044e-18
-1.44169e-20
0.000274917
-2.67285e-18
-1.65967e-20
-2.59697e-18
-1.42645e-20
0.000279168
-2.693e-18
-1.6036e-20
-2.56719e-18
-1.37914e-20
0.00028348
-2.67537e-18
-1.58644e-20
-2.59384e-18
-1.36176e-20
0.000287853
-2.62298e-18
-1.57764e-20
-2.57728e-18
-1.3227e-20
0.000292288
-2.61365e-18
-1.70405e-20
-2.50581e-18
-1.31399e-20
0.000296786
-2.62967e-18
-1.64071e-20
-2.54643e-18
-1.49248e-20
0.000301349
-2.62198e-18
-1.57588e-20
-2.52263e-18
-1.67987e-20
0.000305976
-2.60654e-18
-1.59952e-20
-2.5543e-18
-1.9343e-20
0.000310668
-2.54323e-18
-1.52622e-20
-2.51097e-18
-2.05644e-20
0.000315427
-2.52767e-18
-1.48416e-20
-2.52108e-18
-2.17987e-20
0.000320253
-2.54335e-18
-1.56118e-20
-2.51803e-18
-2.22208e-20
0.000325147
-2.52709e-18
-1.54144e-20
-2.51237e-18
-2.244e-20
0.00033011
-2.51671e-18
-1.51948e-20
-2.48658e-18
-2.30719e-20
0.000335142
-2.52539e-18
-1.4465e-20
-2.45438e-18
-2.44727e-20
0.000340246
-2.44041e-18
-1.51266e-20
-2.46444e-18
-2.44154e-20
0.00034542
-2.3752e-18
-1.611e-20
-2.47105e-18
-2.46532e-20
0.000350668
-2.39785e-18
-1.77991e-20
-2.42467e-18
-2.50959e-20
0.000355988
-2.35926e-18
-1.75287e-20
-2.43025e-18
-2.53264e-20
0.000361384
-2.29308e-18
-1.81159e-20
-2.40463e-18
-2.45215e-20
0.000366854
-2.37436e-18
-1.8428e-20
-2.30748e-18
-2.46493e-20
0.000372401
-2.36267e-18
-1.824e-20
-2.27275e-18
-2.42467e-20
0.000378025
-2.29261e-18
-1.75109e-20
-2.3205e-18
-2.58535e-20
0.000383727
-2.3094e-18
-1.91004e-20
-2.30569e-18
-2.44393e-20
0.000389509
-2.29067e-18
-2.02848e-20
-2.29218e-18
-2.19553e-20
0.000395371
-2.26916e-18
-1.91455e-20
-2.28333e-18
-2.13765e-20
0.000401315
-2.21828e-18
-1.8462e-20
-2.20295e-18
-1.98142e-20
0.000407341
-2.19852e-18
-1.90716e-20
-2.20961e-18
-1.9429e-20
0.000413452
-2.18732e-18
-1.9411e-20
-2.19624e-18
-1.8773e-20
0.000419647
-2.15953e-18
-1.95258e-20
-2.16574e-18
-1.81577e-20
0.000425928
-2.1414e-18
-1.98703e-20
-2.17852e-18
-1.53787e-20
0.000432297
-2.11282e-18
-2.06519e-20
-2.13817e-18
-1.14131e-20
0.000438755
-2.06263e-18
-1.93428e-20
-2.13023e-18
-1.15807e-20
0.000445303
-2.02052e-18
-2.01252e-20
-2.16901e-18
-1.3987e-20
0.000451941
-2.08618e-18
-2.37622e-20
-2.08128e-18
-1.34472e-20
0.000458673
-2.14993e-18
-2.71663e-20
-1.98811e-18
-1.22355e-20
0.000465498
-2.13561e-18
-2.62339e-20
-1.99041e-18
-1.31573e-20
0.000472419
-2.11422e-18
-2.16531e-20
-2.10263e-18
-2.00545e-20
0.000479436
-2.13839e-18
-1.87251e-20
-2.09318e-18
-2.49158e-20
0.000486552
-2.09289e-18
-1.55679e-20
-2.07629e-18
-2.56573e-20
0.000493767
-2.02611e-18
-1.16761e-20
-2.05672e-18
-2.77861e-20
0.000501084
-1.93523e-18
-1.11769e-20
-1.91965e-18
-2.76888e-20
0.000508503
-1.90938e-18
-1.02488e-20
-1.89779e-18
-2.96469e-20
0.000516026
-1.79218e-18
-6.08052e-21
-1.81053e-18
-2.63155e-20
0.000523656
-1.70803e-18
-9.12623e-21
-1.76358e-18
-2.39093e-20
0.000531392
-1.65881e-18
-1.1861e-20
-1.67694e-18
-2.18723e-20
0.000539238
-1.59101e-18
-1.21693e-20
-1.65472e-18
-2.23834e-20
0.000547195
-1.58755e-18
-1.45215e-20
-1.47573e-18
-2.38442e-20
0.000555264
-1.4913e-18
-1.69617e-20
-1.5613e-18
-2.5428e-20
0.000563447
-1.40718e-18
-1.58549e-20
-1.37601e-18
-1.93161e-20
0.000571745
-1.38868e-18
-1.73699e-20
-1.40273e-18
-2.61911e-20
0.000580161
-1.34318e-18
-1.82136e-20
-1.34583e-18
-3.20846e-20
0.000588696
-1.36739e-18
-1.79127e-20
-1.27994e-18
-3.26105e-20
0.000597352
-1.31565e-18
-1.68185e-20
-1.30023e-18
-2.69053e-20
0.000606131
-1.26786e-18
-1.40848e-20
-1.3354e-18
-1.56631e-20
0.000615034
-1.3215e-18
-1.25591e-20
-1.28697e-18
-7.45528e-21
0.000624062
-1.29991e-18
-4.47016e-21
-1.28611e-18
-3.30923e-21
0.000633219
-1.26019e-18
-4.68734e-21
-1.18557e-18
2.67777e-21
0.000642505
-1.17475e-18
-3.77174e-21
-1.21605e-18
-3.29413e-21
0.000651923
-1.14477e-18
-8.61189e-21
-1.11095e-18
-5.3107e-21
0.000661473
-1.05911e-18
-9.10101e-21
-1.15508e-18
-1.24473e-20
0.000671158
-1.03992e-18
-1.73536e-20
-1.05289e-18
-1.29233e-20
0.00068098
-1.02125e-18
-2.39147e-20
-1.06943e-18
-1.9596e-20
0.00069094
-1.03698e-18
-2.80383e-20
-1.01195e-18
-2.2066e-20
0.000701039
-9.2861e-19
-2.6488e-20
-8.84284e-19
-2.69396e-20
0.000711279
-9.12357e-19
-2.07575e-20
-8.57759e-19
-2.82005e-20
0.000721663
-8.47599e-19
-6.1566e-21
-8.53124e-19
-3.97018e-20
0.00073219
-8.03092e-19
1.35186e-20
-8.92894e-19
-4.23151e-20
0.000742864
-7.33459e-19
1.18894e-20
-7.65924e-19
-2.80226e-20
0.000753685
-7.83902e-19
1.59535e-20
-7.91015e-19
-2.39311e-20
0.000764654
2.14135e-20
-7.82479e-19
-1.75364e-20
-7.87416e-19
2.96188e-08
-2.94179e-22
-7.42611e-23
9.05813e-08
-1.56999e-21
-6.77011e-22
1.54198e-07
-2.89663e-21
-1.28986e-21
2.20557e-07
-4.2978e-21
-1.90595e-21
2.89749e-07
-5.76918e-21
-2.53903e-21
3.61867e-07
-7.1543e-21
-3.34887e-21
4.37007e-07
-8.62402e-21
-4.19636e-21
5.15268e-07
-1.022e-20
-4.91946e-21
5.9675e-07
-1.17989e-20
-5.65703e-21
6.81555e-07
-1.343e-20
-6.51318e-21
7.69787e-07
-1.52302e-20
-7.23988e-21
8.61551e-07
-1.70764e-20
-8.15327e-21
9.5695e-07
-1.9065e-20
-9.12003e-21
1.05609e-06
-2.09835e-20
-1.00432e-20
1.15906e-06
-2.29549e-20
-1.11459e-20
1.26596e-06
-2.46406e-20
-1.222e-20
1.37688e-06
-2.67337e-20
-1.27673e-20
1.49189e-06
-2.89149e-20
-1.37844e-20
1.61104e-06
-3.09416e-20
-1.49899e-20
1.7344e-06
-3.3265e-20
-1.6152e-20
1.86197e-06
-3.52963e-20
-1.7526e-20
1.99376e-06
-3.76339e-20
-1.92671e-20
2.12976e-06
-4.00431e-20
-2.06941e-20
2.26989e-06
-4.2744e-20
-2.13779e-20
2.41409e-06
-4.58574e-20
-2.22203e-20
2.56225e-06
-4.88059e-20
-2.35985e-20
2.71423e-06
-5.19642e-20
-2.49402e-20
2.86988e-06
-5.53428e-20
-2.67442e-20
3.02902e-06
-5.84544e-20
-2.83011e-20
3.19147e-06
-6.11326e-20
-2.95912e-20
3.35703e-06
-6.37398e-20
-3.13715e-20
3.52552e-06
-6.63914e-20
-3.27931e-20
3.69673e-06
-6.92179e-20
-3.45731e-20
3.87049e-06
-7.21243e-20
-3.60982e-20
4.04664e-06
-7.55615e-20
-3.79128e-20
4.22502e-06
-7.92086e-20
-3.8758e-20
4.40553e-06
-8.18798e-20
-3.99194e-20
4.58803e-06
-8.48797e-20
-4.15846e-20
4.77246e-06
-8.75189e-20
-4.34031e-20
4.95875e-06
-9.02011e-20
-4.5175e-20
5.14685e-06
-9.27542e-20
-4.7145e-20
5.33674e-06
-9.56426e-20
-4.86333e-20
5.52839e-06
-9.98493e-20
-4.91876e-20
5.72183e-06
-1.03331e-19
-5.10758e-20
5.91706e-06
-1.06151e-19
-5.35466e-20
6.11412e-06
-1.09314e-19
-5.54398e-20
6.31304e-06
-1.13443e-19
-5.64611e-20
6.51386e-06
-1.16136e-19
-5.73449e-20
6.71664e-06
-1.19033e-19
-5.78234e-20
6.92145e-06
-1.22684e-19
-5.91068e-20
7.12833e-06
-1.25643e-19
-6.07713e-20
7.33737e-06
-1.30389e-19
-6.20353e-20
7.54862e-06
-1.3281e-19
-6.42777e-20
7.76217e-06
-1.36247e-19
-6.32712e-20
7.97809e-06
-1.41226e-19
-6.46855e-20
8.19646e-06
-1.42408e-19
-6.66697e-20
8.41735e-06
-1.44637e-19
-6.80323e-20
8.64084e-06
-1.46539e-19
-6.94838e-20
8.86702e-06
-1.48934e-19
-7.13664e-20
9.09597e-06
-1.51302e-19
-7.37436e-20
9.32777e-06
-1.53159e-19
-7.32288e-20
9.5625e-06
-1.53726e-19
-7.66485e-20
9.80024e-06
-1.5656e-19
-7.60196e-20
1.00411e-05
-1.58582e-19
-7.81295e-20
1.02851e-05
-1.64198e-19
-8.04022e-20
1.05324e-05
-1.65505e-19
-7.81824e-20
1.0783e-05
-1.6865e-19
-8.21006e-20
1.10371e-05
-1.71009e-19
-8.16827e-20
1.12947e-05
-1.72947e-19
-8.40092e-20
1.15559e-05
-1.73033e-19
-8.79852e-20
1.18208e-05
-1.74528e-19
-9.11749e-20
1.20894e-05
-1.76997e-19
-9.21025e-20
1.23619e-05
-1.78505e-19
-9.41786e-20
1.26384e-05
-1.79304e-19
-9.62773e-20
1.29189e-05
-1.8045e-19
-9.42844e-20
1.32035e-05
-1.83664e-19
-9.52251e-20
1.34923e-05
-1.86609e-19
-9.68144e-20
1.37855e-05
-1.88612e-19
-9.96524e-20
1.4083e-05
-1.8741e-19
-1.02112e-19
1.4385e-05
-1.88103e-19
-1.05834e-19
1.46915e-05
-1.90583e-19
-1.07233e-19
1.50028e-05
-1.92533e-19
-1.13142e-19
1.53188e-05
-1.99326e-19
-1.10267e-19
1.56396e-05
-2.02447e-19
-1.13031e-19
1.59653e-05
-2.02537e-19
-1.16519e-19
1.62961e-05
-2.01023e-19
-1.22967e-19
1.66321e-05
-2.02769e-19
-1.23898e-19
1.69732e-05
-2.0779e-19
-1.22669e-19
1.73197e-05
-2.10975e-19
-1.24066e-19
1.76716e-05
-2.14586e-19
-1.22911e-19
1.8029e-05
-2.16809e-19
-1.25208e-19
1.83921e-05
-2.1841e-19
-1.27366e-19
1.87609e-05
-2.2262e-19
-1.28404e-19
1.91355e-05
-2.23892e-19
-1.29903e-19
1.9516e-05
-2.29394e-19
-1.32095e-19
1.99026e-05
-2.31388e-19
-1.35116e-19
2.02953e-05
-2.36109e-19
-1.33504e-19
2.06943e-05
-2.42563e-19
-1.34069e-19
2.10996e-05
-2.43875e-19
-1.37052e-19
2.15114e-05
-2.46949e-19
-1.36505e-19
2.19298e-05
-2.46134e-19
-1.33693e-19
2.23548e-05
-2.45699e-19
-1.37639e-19
2.27867e-05
-2.52584e-19
-1.34147e-19
2.32255e-05
-2.53241e-19
-1.33863e-19
2.36714e-05
-2.54924e-19
-1.3401e-19
2.41244e-05
-2.50934e-19
-1.30188e-19
2.45847e-05
-2.49536e-19
-1.35685e-19
2.50524e-05
-2.49478e-19
-1.34292e-19
2.55276e-05
-2.57147e-19
-1.31063e-19
2.60105e-05
-2.5577e-19
-1.31267e-19
2.65012e-05
-2.55984e-19
-1.32571e-19
2.69997e-05
-2.55486e-19
-1.32818e-19
2.75063e-05
-2.591e-19
-1.35848e-19
2.80211e-05
-2.62031e-19
-1.38129e-19
2.85442e-05
-2.6272e-19
-1.4395e-19
2.90757e-05
-2.55158e-19
-1.43429e-19
2.96158e-05
-2.57349e-19
-1.41805e-19
3.01646e-05
-2.512e-19
-1.49339e-19
3.07222e-05
-2.54549e-19
-1.49036e-19
3.12889e-05
-2.5747e-19
-1.50017e-19
3.18646e-05
-2.58706e-19
-1.49927e-19
3.24497e-05
-2.57172e-19
-1.46529e-19
3.30442e-05
-2.69549e-19
-1.39399e-19
3.36483e-05
-2.73438e-19
-1.30765e-19
3.42621e-05
-2.73051e-19
-1.3166e-19
3.48859e-05
-2.61679e-19
-1.2216e-19
3.55196e-05
-2.65462e-19
-1.11087e-19
3.61636e-05
-2.66825e-19
-1.02552e-19
3.68179e-05
-2.72144e-19
-1.08716e-19
3.74828e-05
-2.70734e-19
-1.06278e-19
3.81584e-05
-2.80469e-19
-9.69851e-20
3.88448e-05
-2.82023e-19
-9.32792e-20
3.95423e-05
-2.81948e-19
-9.71454e-20
4.0251e-05
-2.83386e-19
-9.46962e-20
4.0971e-05
-2.8634e-19
-9.04526e-20
4.17026e-05
-2.86645e-19
-8.96509e-20
4.2446e-05
-2.86955e-19
-8.03771e-20
4.32012e-05
-2.7942e-19
-8.39492e-20
4.39686e-05
-2.80231e-19
-7.47197e-20
4.47483e-05
-2.75397e-19
-8.24797e-20
4.55404e-05
-2.72066e-19
-8.07522e-20
4.63452e-05
-2.73129e-19
-8.40767e-20
4.71629e-05
-2.74242e-19
-8.26744e-20
4.79936e-05
-2.77715e-19
-8.17764e-20
4.88376e-05
-2.7433e-19
-8.12116e-20
4.9695e-05
-2.76425e-19
-8.09483e-20
5.05662e-05
-2.77794e-19
-7.81935e-20
5.14512e-05
-2.75489e-19
-7.18137e-20
5.23502e-05
-2.69516e-19
-7.32929e-20
5.32636e-05
-2.69175e-19
-6.75585e-20
5.41916e-05
-2.63795e-19
-7.22615e-20
5.51342e-05
-2.61819e-19
-7.24024e-20
5.60918e-05
-2.64944e-19
-7.02148e-20
5.70646e-05
-2.6389e-19
-6.59996e-20
5.80529e-05
-2.65593e-19
-6.73766e-20
5.90567e-05
-2.74959e-19
-5.79885e-20
6.00765e-05
-2.63301e-19
-5.19516e-20
6.11124e-05
-2.7173e-19
-4.46721e-20
6.21646e-05
-2.63172e-19
-5.23981e-20
6.32335e-05
-2.61123e-19
-5.07598e-20
6.43192e-05
-2.74955e-19
-4.39425e-20
6.54221e-05
-2.67586e-19
-4.19707e-20
6.65423e-05
-2.53418e-19
-5.06182e-20
6.76801e-05
-2.63551e-19
-5.36946e-20
6.88359e-05
-2.55187e-19
-4.23036e-20
7.00098e-05
-2.52583e-19
-4.05774e-20
7.12021e-05
-2.63235e-19
-3.36034e-20
7.24131e-05
-2.58266e-19
-3.02634e-20
7.36431e-05
-2.62172e-19
-3.4508e-20
7.48924e-05
-2.60081e-19
-4.00566e-20
7.61612e-05
-2.63853e-19
-4.89271e-20
7.74499e-05
-2.79724e-19
-3.12838e-20
7.87587e-05
-2.83914e-19
-3.05273e-20
8.00879e-05
-2.75671e-19
-3.65337e-20
8.14378e-05
-2.78424e-19
-2.9163e-20
8.28088e-05
-2.75639e-19
-2.82859e-20
8.42011e-05
-2.7701e-19
-3.10377e-20
8.5615e-05
-2.81729e-19
-3.10972e-20
8.7051e-05
-2.86354e-19
-1.89473e-20
8.85092e-05
-2.81313e-19
-3.13439e-20
8.999e-05
-2.67582e-19
-3.00354e-20
9.14938e-05
-2.51987e-19
-3.40642e-20
9.30209e-05
-2.55282e-19
-2.62479e-20
9.45717e-05
-2.37418e-19
-3.69991e-20
9.61464e-05
-2.59194e-19
-4.5111e-20
9.77454e-05
-2.8012e-19
-5.28238e-20
9.93691e-05
-3.08417e-19
-5.30403e-20
0.000101018
-2.92531e-19
-5.34336e-20
0.000102692
-2.96757e-19
-5.557e-20
0.000104392
-2.98439e-19
-4.53461e-20
0.000106118
-2.9179e-19
-2.90465e-20
0.00010787
-2.93176e-19
-2.16273e-20
0.00010965
-2.96236e-19
-1.80828e-20
0.000111457
-2.93189e-19
-2.44459e-20
0.000113291
-2.97222e-19
-3.56359e-20
0.000115153
-2.81387e-19
-3.38492e-20
0.000117044
-2.3708e-19
-3.22847e-20
0.000118964
-2.3743e-19
-2.35954e-20
0.000120914
-2.42365e-19
-3.28644e-20
0.000122892
-2.20492e-19
-3.54396e-20
0.000124902
-1.99401e-19
-2.25032e-21
0.000126941
-1.56036e-19
7.14003e-21
0.000129012
-1.6752e-19
-7.84558e-22
0.000131114
-1.61748e-19
-7.38151e-21
0.000133248
-1.79439e-19
-3.29155e-20
0.000135414
-1.87306e-19
-5.4611e-20
0.000137614
-1.90024e-19
-5.51293e-20
0.000139846
-1.94638e-19
-3.89639e-20
0.000142112
-1.81077e-19
-6.43715e-20
0.000144413
-1.79153e-19
-1.19684e-19
0.000146748
-1.68334e-19
-1.00379e-19
0.000149118
-1.93237e-19
-1.23774e-19
0.000151524
-2.46774e-19
-1.2204e-19
0.000153967
-2.48025e-19
-1.30432e-19
0.000156446
-2.18071e-19
-1.37812e-19
0.000158962
-2.24844e-19
-1.50545e-19
0.000161516
-2.31755e-19
-1.50227e-19
0.000164108
-2.68769e-19
-1.75708e-19
0.000166739
-2.73375e-19
-1.47699e-19
0.000169409
-2.7209e-19
-1.34621e-19
0.000172119
-2.40637e-19
-1.45841e-19
0.00017487
-2.44429e-19
-1.34042e-19
0.000177661
-2.26014e-19
-1.37293e-19
0.000180494
-2.23619e-19
-1.53003e-19
0.000183369
-1.94805e-19
-1.77316e-19
0.000186287
-1.70899e-19
-1.95478e-19
0.000189248
-2.00984e-19
-1.4467e-19
0.000192253
-2.1012e-19
-1.50615e-19
0.000195303
-1.99045e-19
-1.84301e-19
0.000198397
-1.81775e-19
-1.9063e-19
0.000201537
-1.8305e-19
-1.48928e-19
0.000204723
-1.81467e-19
-1.67747e-19
0.000207956
-1.56605e-19
-2.09837e-19
0.000211237
-1.44696e-19
-2.16871e-19
0.000214566
-1.59095e-19