/*--------------------------------*- C++ -*----------------------------------*\
| =========                 |                                                 |
| \\      /  F ield         | OpenFOAM: The Open Source CFD Toolbox           |
|  \\    /   O peration     | Version:  2012                                  |
|   \\  /    A nd           | Website:  www.openfoam.com                      |
|    \\/     M anipulation  |                                                 |
\*---------------------------------------------------------------------------*/
FoamFile
{
    version     2.0;
    format      ascii;
    class       volTensorField;
    location    "19000";
    object      grad(U);
}
// * * * * * * * * * * * * * * * * * * * * * * * * * * * * * * * * * * * * * //

dimensions      [0 0 -1 0 0 0 0];


internalField   nonuniform List<tensor> 
1280
(
(1.8364e-17 -3.13161e-30 -7.12746e-44 32.5769 -4.35235e-12 3.15544e-30 0.0939262 -6.84501e-15 -5.13577e-28)
(-1.8364e-17 4.17548e-30 1.63105e-32 32.5769 -7.07323e-16 6.09236e-18 0.0939262 -2.14484e-19 1.77812e-16)
(3.56794e-17 -3.78046e-26 6.81194e-28 32.5674 -4.77948e-13 1.11719e-14 0.284484 -2.83664e-15 6.63054e-17)
(0 -2.02814e-29 1.26759e-31 32.5674 -1.79475e-16 -5.90101e-18 0.284484 -1.55328e-18 2.98183e-16)
(1.97282e-16 3.50325e-46 9.02379e-32 32.5576 5.057e-29 7.14612e-15 0.403601 -3.15544e-30 1.08947e-16)
(4.2734e-17 1.18214e-29 -6.157e-32 32.5576 3.39912e-16 -2.08256e-17 0.403601 2.63461e-18 3.15979e-16)
(1.34685e-16 -1.3398e-29 1.49531e-31 32.5475 2.71942e-13 8.69716e-15 0.41533 -8.30298e-15 1.09851e-16)
(1.61804e-16 1.5312e-29 -1.79437e-31 32.5475 5.09837e-17 -1.76423e-17 0.41533 5.5867e-18 3.34891e-16)
(6.42063e-17 -2.64748e-27 9.55261e-32 32.5369 -1.82845e-15 8.51378e-15 0.427393 -1.1837e-17 1.10626e-16)
(2.56825e-16 7.43741e-30 -1.1621e-31 32.5369 -8.88423e-17 -1.80021e-17 0.427393 8.18408e-18 3.54974e-16)
(-9.21413e-17 2.40507e-30 -1.08054e-32 32.5258 -4.46855e-15 8.51392e-15 0.439797 -1.0868e-16 1.16406e-16)
(3.68565e-16 0 0 32.5258 -1.45037e-16 -1.94848e-17 0.439797 1.05703e-17 3.76314e-16)
(1.26064e-16 -6.86429e-29 4.15677e-32 32.5137 -6.70411e-16 8.72899e-15 0.452545 -4.59893e-18 1.23211e-16)
(4.83557e-16 0 -5.48346e-32 32.5137 -3.19923e-16 -2.12642e-17 0.452545 1.37807e-17 3.99005e-16)
(-2.39903e-16 6.81846e-30 -5.32692e-32 32.5 -1.18235e-15 8.98257e-15 0.465633 -2.91531e-17 1.30616e-16)
(0 -3.40923e-30 0 32.5 -4.57644e-16 -2.44613e-17 0.465633 1.65236e-17 4.23128e-16)
(-1.80922e-16 -1.74529e-29 3.43685e-31 32.4836 -2.32229e-15 9.25999e-15 0.479052 -3.85051e-17 1.38744e-16)
(7.23688e-16 2.31833e-29 -4.65736e-31 32.4836 -3.9791e-16 -3.0941e-17 0.479052 1.89996e-17 4.48695e-16)
(6.65061e-16 -8.85523e-30 7.16868e-32 32.463 -2.31258e-15 9.56073e-15 0.492776 -3.05968e-17 1.47539e-16)
(3.96231e-16 9.65206e-30 -5.02712e-32 32.463 -4.97434e-16 -3.61224e-17 0.492776 2.24311e-17 4.75724e-16)
(0 -3.12551e-30 2.4418e-31 32.4356 -1.93362e-15 9.87282e-15 0.506764 -2.89541e-17 1.56775e-16)
(9.78041e-16 6.25101e-30 -3.41852e-31 32.4356 -5.91728e-16 -4.082e-17 0.506764 2.63106e-17 5.04408e-16)
(5.76931e-16 -3.64912e-30 6.70478e-32 32.3979 -1.57024e-15 1.01797e-14 0.520949 -2.07275e-17 1.66212e-16)
(1.11082e-15 9.10884e-30 -1.89767e-31 32.3979 -7.35145e-16 -4.79349e-17 0.520949 3.09544e-17 5.3465e-16)
(8.30239e-16 -5.8992e-30 2.76525e-31 32.3449 -1.02931e-15 1.04675e-14 0.535231 -1.27612e-17 1.75661e-16)
(1.24749e-15 8.8488e-30 -3.687e-31 32.3449 -1.09252e-15 -5.10639e-17 0.535231 3.42302e-17 5.66456e-16)
(-3.47035e-16 -9.03694e-30 3.22712e-31 32.2701 -8.28852e-16 1.07211e-14 0.549466 -1.51281e-17 1.84772e-16)
(1.38814e-15 8.59618e-30 -2.68631e-31 32.2701 -1.36813e-15 -5.42265e-17 0.549466 3.64367e-17 5.99918e-16)
(-3.8322e-16 2.42493e-30 -3.98496e-32 32.1649 -8.53255e-16 1.09196e-14 0.56346 -1.43788e-17 1.93104e-16)
(0 2.78359e-30 -8.69873e-32 32.1649 -1.30724e-15 -6.54053e-17 0.56346 3.78107e-17 6.34709e-16)
(7.61144e-16 -5.40826e-30 8.4504e-32 32.0191 -1.07724e-15 1.10459e-14 0.576965 -2.41237e-17 2.00356e-16)
(0 8.11238e-30 -8.4504e-32 32.0191 -9.225e-16 -9.24215e-17 0.576965 3.91791e-17 6.70538e-16)
(-4.58716e-16 7.67719e-30 -1.32072e-31 31.8203 -1.18727e-15 1.10772e-14 0.589671 -1.9329e-17 2.05784e-16)
(-7.39415e-16 0 0 31.8203 -1.17436e-15 -1.17933e-16 0.589671 4.04473e-17 7.07223e-16)
(4.9803e-16 -1.00796e-29 2.15317e-31 31.5551 -8.88079e-16 1.09913e-14 0.601218 -1.41067e-17 2.09014e-16)
(0 1.02077e-29 -1.59496e-31 31.5551 -1.74495e-15 -1.20666e-16 0.601218 3.57786e-17 7.44339e-16)
(6.978e-16 -7.43725e-30 3.09886e-31 31.2094 -8.80141e-16 1.07684e-14 0.611212 -2.01689e-17 2.09272e-16)
(2.15344e-15 7.43725e-30 -3.09886e-31 31.2094 -1.58066e-15 -1.29158e-16 0.611212 3.46977e-17 7.81479e-16)
(-5.79656e-16 -3.36039e-30 -2.1959e-31 30.7702 -1.25827e-16 1.04008e-14 0.619252 -1.2578e-18 2.06564e-16)
(2.31862e-15 2.40831e-30 0 30.7702 -1.73516e-15 -1.34608e-16 0.619252 4.49224e-17 8.17726e-16)
(0 1.68156e-44 -1.46222e-31 30.2267 2.37135e-28 9.89639e-15 0.624964 0 2.00687e-16)
(-3.80439e-15 0 0 30.2267 -2.03076e-15 -1.52125e-16 0.624964 5.03778e-17 8.52699e-16)
(0 -9.09108e-30 5.68193e-31 29.5723 2.09069e-17 9.26395e-15 0.628049 -6.18203e-18 1.91693e-16)
(2.65908e-15 1.13639e-29 -5.68193e-31 29.5723 -2.20477e-15 -1.61465e-16 0.628049 5.49102e-17 8.84996e-16)
(-7.08313e-16 -1.61149e-44 1.84366e-31 28.8059 2.21379e-28 8.5243e-15 0.628316 6.73651e-46 1.79922e-16)
(0 8.83155e-30 -5.51972e-31 28.8059 -3.03768e-15 -1.47982e-16 0.628316 5.50698e-17 9.1463e-16)
(0 -8.57943e-30 6.70268e-31 27.9323 1.14626e-15 7.71625e-15 0.625707 -1.40944e-17 1.66313e-16)
(0 1.07243e-29 -8.04321e-31 27.9323 -3.14083e-15 -1.4572e-16 0.625707 4.059e-17 9.4115e-16)
(-1.59288e-15 -1.18325e-29 6.9802e-31 26.9625 9.55644e-16 6.89093e-15 0.620309 -3.77106e-17 1.51949e-16)
(3.18576e-15 1.6669e-29 -9.11586e-31 26.9625 -2.59509e-15 -1.35127e-16 0.620309 3.17341e-17 9.64433e-16)
(-8.40588e-16 1.8615e-29 -1.12601e-30 25.9126 9.72257e-17 6.07564e-15 0.61234 -5.99601e-18 1.36875e-16)
(-3.36235e-15 -1.61931e-29 1.01207e-30 25.9126 -2.8555e-15 -1.76154e-16 0.61234 2.65776e-17 9.84647e-16)
(-8.84496e-16 1.36627e-44 -1.20592e-31 24.8021 1.99108e-28 5.29737e-15 0.602121 0 1.22338e-16)
(0 1.96636e-30 0 24.8021 -3.3943e-15 -2.10129e-16 0.602121 1.33105e-17 1.00019e-15)
(1.07536e-15 -1.52818e-29 1.19389e-30 23.6522 1.39036e-15 4.60562e-15 0.590038 -3.16674e-17 1.09654e-16)
(2.63645e-15 1.52818e-29 -1.19389e-30 23.6522 -3.66704e-15 -1.86397e-16 0.590038 -2.53426e-18 1.01247e-15)
(0 -1.48455e-29 6.95883e-31 22.4837 1.71361e-15 4.01589e-15 0.576505 -3.85213e-17 9.85808e-17)
(3.88309e-15 1.48455e-29 -6.95883e-31 22.4837 -3.86061e-15 -1.79855e-16 0.576505 -1.53845e-17 1.02218e-15)
(-2.0256e-15 1.20281e-29 -9.4965e-31 21.3159 2.04365e-15 3.53425e-15 0.561927 -5.05768e-17 9.00872e-17)
(4.0512e-15 -3.60543e-30 4.50678e-31 21.3159 -3.55881e-15 -1.85446e-16 0.561927 -3.28539e-17 1.02872e-15)
(-1.05391e-15 -1.09787e-30 7.77301e-32 20.1652 1.86341e-15 3.15684e-15 0.54668 -5.87077e-17 8.34023e-17)
(4.21563e-15 3.5025e-30 -2.18906e-31 20.1652 -3.6243e-15 -2.10165e-16 0.54668 -4.56155e-17 1.03226e-15)
(-2.05173e-15 1.26121e-29 -5.70482e-31 19.0448 2.55911e-15 2.86173e-15 0.53109 -4.35368e-17 7.85098e-17)
(0 -6.80502e-30 2.12657e-31 19.0448 -4.37657e-15 -2.26032e-16 0.53109 -6.36468e-17 1.03348e-15)
(1.53833e-15 6.04489e-30 -3.80144e-31 17.9647 4.70902e-15 2.65127e-15 0.515428 -1.02166e-16 7.59336e-17)
(4.53212e-15 -1.32215e-29 8.26344e-31 17.9647 -5.37022e-15 -1.97528e-16 0.515428 -8.05982e-17 1.03368e-15)
(-1.17095e-15 2.37482e-30 -1.51868e-31 16.9321 4.43784e-15 2.53213e-15 0.499913 -1.73242e-16 7.59407e-17)
(0 3.21101e-30 -4.01377e-31 16.9321 -5.11504e-15 -1.73478e-16 0.499913 -1.19022e-16 1.03316e-15)
(-1.20775e-15 8.62063e-30 -5.4517e-31 15.9511 1.70202e-15 2.45566e-15 0.484712 -9.17553e-17 7.56717e-17)
(4.83098e-15 -3.11935e-30 1.94959e-31 15.9511 -2.82025e-15 -2.59554e-16 0.484712 -1.49185e-16 1.03212e-15)
(1.24343e-15 -1.14834e-29 3.47918e-31 15.0241 5.07252e-16 2.38465e-15 0.469945 -1.21777e-17 7.58898e-17)
(4.97371e-15 9.09088e-30 -1.89393e-31 15.0241 -1.55432e-15 -3.04567e-16 0.469945 -1.45761e-16 1.02826e-15)
(0 -1.76628e-29 1.47189e-30 14.1516 1.23362e-15 2.35362e-15 0.455698 -2.0177e-17 7.81251e-17)
(5.11206e-15 1.47189e-29 -1.47189e-30 14.1516 -2.08914e-15 -2.88373e-16 0.455698 -1.425e-16 1.02345e-15)
(-2.92143e-15 1.95375e-29 -1.59431e-30 13.3329 2.80519e-15 2.37762e-15 0.442026 -7.264e-17 8.2055e-17)
(-3.63623e-15 -1.71585e-29 1.42987e-30 13.3329 -3.59799e-15 -3.12122e-16 0.442026 -1.50107e-16 1.01833e-15)
(1.34402e-15 5.96588e-30 -5.98019e-33 12.5665 3.74808e-15 2.41626e-15 0.42896 -1.1692e-16 8.55025e-17)
(-8.50394e-15 -2.77811e-30 0 12.5665 -4.38558e-15 -3.33606e-16 0.42896 -1.78869e-16 1.012e-15)
(-1.37551e-15 1.04549e-29 -6.76601e-31 11.8501 3.6495e-15 2.48413e-15 0.416511 -1.43298e-16 9.18635e-17)
(5.50204e-15 -5.3976e-30 3.3735e-31 11.8501 -3.88137e-15 -2.71404e-16 0.416511 -2.0842e-16 1.0063e-15)
(-2.81211e-15 -8.39467e-30 4.71323e-31 11.1811 3.0912e-15 2.58421e-15 0.40468 -1.16755e-16 9.80616e-17)
(1.12484e-14 7.86526e-30 -4.91579e-31 11.1811 -4.16849e-15 -1.47372e-16 0.40468 -2.36824e-16 1.00193e-15)
(-1.43569e-15 2.35322e-30 -1.7781e-31 10.5569 3.42165e-15 2.67991e-15 0.393455 -1.10229e-16 1.04685e-16)
(5.74276e-15 0 0 10.5569 -5.93483e-15 -1.22303e-16 0.393455 -2.53693e-16 9.97936e-16)
(0 7.4226e-30 -3.09275e-31 9.9746 4.08824e-15 2.76934e-15 0.382819 -1.49073e-16 1.10973e-16)
(0 -2.4742e-30 0 9.9746 -6.60038e-15 -1.28645e-16 0.382819 -2.95018e-16 9.9401e-16)
(-2.98486e-15 4.66834e-30 -3.72909e-31 9.43135 4.15153e-15 2.84923e-15 0.37275 -1.69453e-16 1.17423e-16)
(5.96972e-15 2.40357e-30 0 9.43135 -6.22786e-15 -1.45659e-16 0.37275 -3.48484e-16 9.89018e-16)
(-4.55885e-15 1.39948e-29 -1.74117e-30 8.92443 3.80403e-15 2.9236e-15 0.363223 -1.63109e-16 1.23815e-16)
(0 -7.00485e-30 1.16747e-30 8.92443 -6.58142e-15 -1.41073e-16 0.363223 -4.05389e-16 9.84008e-16)
(-5.38273e-16 -8.95718e-30 1.74143e-31 8.45122 4.59019e-15 2.98192e-15 0.354211 -1.50475e-16 1.29451e-16)
(1.23686e-14 1.13415e-29 -5.67073e-31 8.45122 -6.09106e-15 -9.25217e-17 0.354211 -4.58148e-16 9.80774e-16)
(-1.57183e-15 -2.10333e-30 7.37363e-32 8.00924 6.26577e-15 3.05675e-15 0.345687 -2.40568e-16 1.37836e-16)
(0 8.81414e-30 -5.50884e-31 8.00924 -5.7847e-15 -1.6176e-16 0.345687 -5.04737e-16 9.78611e-16)
(-1.59694e-15 2.28186e-30 -2.0728e-31 7.59616 7.20443e-15 3.1641e-15 0.337624 -3.08049e-16 1.46971e-16)
(0 2.14063e-30 -2.67579e-31 7.59616 -6.33439e-15 -2.49055e-16 0.337624 -5.51491e-16 9.7103e-16)
(0 -2.07952e-30 1.03976e-30 7.20981 7.81938e-15 3.26866e-15 0.329996 -3.40607e-16 1.55882e-16)
(0 6.23856e-30 -1.03976e-30 7.20981 -6.94894e-15 -2.59752e-16 0.329996 -6.16811e-16 9.61682e-16)
(-6.29166e-16 3.82193e-30 -5.37328e-31 6.84816 6.3755e-15 3.35545e-15 0.322775 -3.8421e-16 1.64133e-16)
(6.5813e-15 0 2.52519e-31 6.84816 -5.60238e-15 -2.21468e-16 0.322775 -7.10232e-16 9.54102e-16)
(-1.66867e-15 1.0102e-29 -1.2094e-30 6.50937 3.08097e-15 3.39725e-15 0.315939 -2.21244e-16 1.6934e-16)
(1.33494e-14 0 4.9062e-31 6.50937 -3.98223e-15 -2.58012e-16 0.315939 -7.33636e-16 9.50522e-16)
(2.14648e-15 -3.81291e-30 7.14921e-31 6.1917 1.8987e-15 3.3774e-15 0.309462 -7.90556e-17 1.71886e-16)
(0 7.62583e-30 -1.19154e-30 6.1917 -4.64255e-15 -3.55482e-16 0.309462 -8.00569e-16 9.4237e-16)
(0 -1.48163e-29 1.62053e-30 5.89359 2.54934e-15 3.36334e-15 0.303324 -1.13249e-16 1.77956e-16)
(1.37105e-14 1.48163e-29 -1.62053e-30 5.89359 -3.8708e-15 -2.54601e-16 0.303324 -8.65013e-16 9.30043e-16)
(-1.73567e-15 2.24274e-30 -2.82018e-32 5.61358 3.66553e-15 3.39595e-15 0.297503 -1.52425e-16 1.85679e-16)
(6.94269e-15 3.59832e-30 -6.74685e-31 5.61358 -2.8602e-15 -1.78126e-16 0.297503 -8.7108e-16 9.20614e-16)
(1.75708e-15 1.2737e-30 -1.7441e-31 5.35033 4.68009e-15 3.39408e-15 0.291979 -2.41242e-16 1.8836e-16)
(-1.96785e-15 0 0 5.35033 -4.53673e-15 -2.73799e-16 0.291979 -8.88314e-16 9.12251e-16)
(-7.24588e-15 1.34243e-29 -2.50839e-30 5.10261 4.7616e-15 3.39965e-15 0.286734 -2.74954e-16 1.97393e-16)
(1.91167e-15 -6.79161e-30 1.6979e-30 5.10261 -6.50036e-15 -9.96319e-17 0.286734 -9.37542e-16 9.02692e-16)
(0 1.31954e-29 -2.06179e-30 4.86932 4.14681e-15 3.45782e-15 0.281751 -2.6501e-16 2.06484e-16)
(0 -1.31954e-29 2.06179e-30 4.86932 -4.90962e-15 -9.76719e-17 0.281751 -1.03615e-15 8.99162e-16)
(3.60815e-15 -6.40937e-30 8.01171e-31 4.64941 4.15301e-15 3.47943e-15 0.277014 -2.18511e-16 2.11802e-16)
(3.66731e-15 6.40937e-30 -1.20176e-30 4.64941 -2.9013e-15 -2.50755e-16 0.277014 -1.06256e-15 8.93734e-16)
(1.83871e-15 7.15797e-30 -4.83271e-31 4.44194 5.73848e-15 3.50097e-15 0.272508 -2.81571e-16 2.21502e-16)
(-1.75257e-15 -6.2264e-30 3.8915e-31 4.44194 -4.30035e-15 -2.94143e-16 0.272508 -1.0967e-15 8.86613e-16)
(-1.85822e-15 2.14762e-30 -3.03342e-31 4.24604 7.81337e-15 3.56478e-15 0.268218 -4.30591e-16 2.3268e-16)
(7.43287e-15 0 -3.37954e-31 4.24604 -5.89705e-15 -1.28882e-16 0.268218 -1.15021e-15 8.84153e-16)
(-3.30788e-15 5.87597e-30 -7.34496e-31 4.06091 8.92055e-15 3.6498e-15 0.264131 -5.66509e-16 2.46022e-16)
(0 -2.93798e-30 3.67248e-31 4.06091 -7.49242e-15 -1.23431e-16 0.264131 -1.22787e-15 8.55986e-16)
(0 0 3.56764e-31 3.88582 7.62552e-15 3.74166e-15 0.260236 -6.03561e-16 2.59135e-16)
(0 5.70822e-30 -3.56764e-31 3.88582 -7.39201e-15 -6.73336e-17 0.260236 -1.38163e-15 8.16847e-16)
(3.82967e-15 -1.25199e-29 1.69768e-30 3.7201 4.64755e-15 3.82037e-15 0.256522 -4.2295e-16 2.71791e-16)
(7.65935e-15 8.3179e-30 -1.03974e-30 3.7201 -4.25923e-15 -8.1263e-17 0.256522 -1.4704e-15 7.83109e-16)
(3.03259e-15 -8.08044e-30 1.68342e-30 3.56311 3.30751e-15 3.84098e-15 0.252976 -2.19764e-16 2.7758e-16)
(7.73251e-15 8.08044e-30 -1.68342e-30 3.56311 -3.25263e-15 -9.68669e-17 0.252976 -1.46992e-15 7.48405e-16)
(0 0 0 3.41429 4.83819e-15 3.87368e-15 0.24959 -2.53724e-16 2.92884e-16)
(0 2.61659e-30 -6.54147e-31 3.41429 -3.60414e-15 -1.34644e-16 0.24959 -1.52597e-15 7.2048e-16)
(0 -1.27094e-29 1.90642e-30 3.27311 6.24696e-15 3.97068e-15 0.246355 -4.61512e-16 3.09049e-16)
(7.87568e-15 1.27094e-29 -1.90642e-30 3.27311 -3.6714e-15 -1.67855e-16 0.246355 -1.57985e-15 6.89204e-16)
(0 -1.23466e-29 2.46932e-30 3.13909 6.48824e-15 4.00486e-15 0.243262 -4.8547e-16 3.15762e-16)
(0 1.23466e-29 -2.69005e-30 3.13909 -5.40295e-15 -6.62115e-17 0.243262 -1.69893e-15 6.59059e-16)
(-4.00747e-15 1.1287e-29 -1.34868e-30 3.01176 7.97821e-15 3.98632e-15 0.240302 -5.27227e-16 3.24457e-16)
(0 -7.19649e-30 5.99707e-31 3.01176 -5.71272e-15 -1.02441e-16 0.240302 -1.83118e-15 6.29426e-16)
(-2.62374e-15 4.66069e-30 -5.82587e-31 2.89072 9.15493e-15 3.9878e-15 0.237468 -7.57185e-16 3.34841e-16)
(8.0832e-15 -2.33035e-30 5.61067e-46 2.89072 -4.72372e-15 2.02146e-30 0.237468 -1.88015e-15 6.04078e-16)
(-2.03766e-15 4.23954e-30 -9.60165e-31 2.77558 8.88273e-15 3.97934e-15 0.234754 -7.56029e-16 3.42346e-16)
(0 2.26382e-30 -5.65955e-31 2.77558 -5.53641e-15 -7.66075e-17 0.234754 -1.95817e-15 5.91345e-16)
(2.05431e-15 -6.35189e-30 1.50341e-30 2.66598 8.58359e-15 3.94415e-15 0.232152 -7.55346e-16 3.48556e-16)
(0 4.39839e-30 -1.0996e-30 2.66598 -6.61434e-15 -1.72058e-16 0.232152 -2.06397e-15 5.71349e-16)
(-2.07076e-15 1.93216e-30 -4.12413e-31 2.56159 7.33927e-15 3.93606e-15 0.229656 -7.47951e-16 3.61283e-16)
(0 2.13641e-30 -1.06821e-30 2.56159 -6.43724e-15 -9.57246e-17 0.229656 -2.21764e-15 5.55903e-16)
(2.33672e-15 -4.15084e-30 1.55657e-30 2.4621 4.99651e-15 3.96621e-15 0.227261 -5.72752e-16 3.75021e-16)
(0 6.22626e-30 1.75162e-46 2.4621 -5.82343e-15 0 0.227261 -2.36987e-15 5.46737e-16)
(-2.10312e-15 -2.07339e-30 5.81129e-31 2.36724 3.6979e-15 4.01882e-15 0.224962 -3.51365e-16 3.93027e-16)
(0 8.06469e-30 -1.51213e-30 2.36724 -3.60895e-15 3.39644e-17 0.224962 -2.51613e-15 5.53557e-16)
(2.11903e-15 -3.89945e-30 4.3319e-31 2.27672 3.09138e-15 4.11912e-15 0.222752 -3.55167e-16 4.17403e-16)
(6.27093e-15 1.95861e-30 0 2.27672 -1.26372e-15 -1.66237e-16 0.222752 -2.54431e-15 5.53311e-16)
(1.4928e-17 -7.52391e-30 2.44308e-30 2.19031 1.66808e-15 4.16989e-15 0.220627 -2.51288e-16 4.26895e-16)
(8.53914e-15 7.6108e-30 7.49224e-32 2.19031 -2.31105e-15 6.16298e-33 0.220627 -2.57885e-15 5.39872e-16)
(-2.15038e-15 2.70555e-30 -2.30006e-30 2.10777 1.61194e-15 4.20309e-15 0.218583 -8.39785e-17 4.49316e-16)
(-2.08109e-15 -3.69676e-30 9.24191e-31 2.10777 -3.21862e-15 -1.046e-16 0.218583 -2.68441e-15 5.46916e-16)
(-2.16582e-15 1.89654e-30 -4.60164e-31 2.02889 5.14005e-15 4.30867e-15 0.216616 -4.89421e-16 4.75334e-16)
(8.66327e-15 0 7.37715e-32 2.02889 -2.77356e-15 1.35585e-30 0.216616 -2.72328e-15 5.3158e-16)
(0 3.48871e-30 -1.30826e-30 1.95347 5.76099e-15 4.45576e-15 0.214721 -6.15014e-16 5.09071e-16)
(0 0 4.36088e-31 1.95347 -4.63116e-15 1.73516e-18 0.214721 -2.82043e-15 5.31813e-16)
(0 1.01673e-29 -3.38911e-30 1.88133 6.28701e-15 4.57775e-15 0.212894 -6.5774e-16 5.31817e-16)
(-8.78506e-15 -1.01673e-29 3.38911e-30 1.88133 -5.37669e-15 -2.19363e-16 0.212894 -3.01496e-15 5.22643e-16)
(2.21128e-15 -8.34802e-30 2.96503e-30 1.81228 5.73113e-15 4.72099e-15 0.211132 -7.73016e-16 5.73441e-16)
(8.84513e-15 6.58472e-30 -3.287e-30 1.81228 -4.03962e-15 -9.8339e-17 0.211132 -3.11687e-15 5.0507e-16)
(2.22617e-15 -8.16594e-30 2.91389e-30 1.74616 3.66564e-15 4.81249e-15 0.209432 -5.64985e-16 5.85894e-16)
(0 6.39674e-30 -2.39878e-30 1.74616 -3.37691e-15 -1.04351e-16 0.209432 -3.20663e-15 4.9702e-16)
(2.24093e-15 -1.11122e-29 4.41821e-30 1.68283 3.14069e-15 4.81051e-15 0.207789 -3.14306e-16 6.07142e-16)
(8.96371e-15 9.32119e-30 -3.61335e-30 1.68283 -3.12965e-15 -3.13001e-17 0.207789 -3.34658e-15 4.77837e-16)
(0 6.03672e-30 -3.77295e-30 1.62213 4.08666e-15 4.81129e-15 0.206202 -4.66609e-16 6.21038e-16)
(-9.02227e-15 -6.03672e-30 3.77295e-30 1.62213 -4.16995e-15 -2.69407e-16 0.206202 -3.52099e-15 4.75801e-16)
(-2.27009e-15 1.73314e-30 -5.98575e-31 1.56394 4.13894e-15 4.08244e-15 0.204667 -5.78037e-16 4.49047e-16)
(0 0 -7.33048e-31 1.56394 -4.32649e-15 -5.45696e-16 0.204667 -3.69014e-15 4.50301e-16)
(2.2845e-15 3.97572e-30 4.99854e-30 1.50812 5.61177e-15 1.0058e-29 0.203181 -5.08373e-16 -7.88861e-31)
(9.13798e-15 -5.69697e-30 2.18953e-47 1.50812 -3.94766e-15 -2.46519e-32 0.203181 -3.83285e-15 4.01072e-16)
(5.41435e-15 -1.26811e-29 6.03418e-30 1.45455 4.8023e-15 -1.13627e-15 0.201742 -1.01669e-15 7.90837e-17)
(9.19518e-15 8.3015e-30 -2.76717e-30 1.45455 -4.67274e-15 3.72971e-19 0.201742 -4.01144e-15 3.8043e-16)
(3.02661e-15 -5.37634e-30 2.01613e-30 1.40314 4.05177e-15 -2.43076e-15 0.200346 -3.10024e-16 2.97339e-16)
(0 5.37634e-30 -2.01613e-30 1.40314 -4.66852e-15 -2.56563e-16 0.200346 -4.20696e-15 3.42969e-16)
(0 -2.61143e-30 1.95857e-30 1.35376 5.40201e-15 -2.40176e-15 0.198993 -8.59077e-16 4.00763e-16)
(9.3083e-15 2.61143e-30 8.23484e-32 1.35376 -2.44667e-15 5.42342e-31 0.198993 -4.39522e-15 2.96691e-16)
(-4.68213e-15 5.72351e-30 -3.07771e-30 1.30632 5.5525e-15 -1.39469e-15 0.197678 -7.32687e-16 3.0639e-16)
(9.36427e-15 -2.53688e-30 6.3422e-31 1.30632 -2.3827e-15 -2.81568e-16 0.197678 -4.48094e-15 2.75455e-16)
(0 2.46446e-30 -3.08057e-30 1.26074 5.67022e-15 -6.59776e-16 0.196401 -9.5668e-16 1.14353e-16)
(0 -7.39337e-30 2.71563e-32 1.26074 -4.62791e-15 5.93243e-45 0.196401 -4.60924e-15 1.95682e-16)
(0 -2.3941e-30 3.23803e-30 1.21691 4.34553e-15 -1.13816e-15 0.195158 -8.13723e-16 9.15588e-17)
(0 2.3941e-30 -2.3941e-30 1.21691 -5.33624e-15 3.9893e-16 0.195158 -4.80077e-15 2.00674e-16)
(-9.52988e-15 6.14622e-30 -1.6729e-30 1.17476 1.24926e-15 -2.26016e-15 0.193947 -5.81212e-16 3.5723e-16)
(-1.90598e-14 2.32575e-30 0 1.17476 -4.93258e-15 -3.4323e-16 0.193947 -5.14345e-15 1.82576e-16)
(1.47719e-16 -3.50325e-46 1.15078e-30 1.13421 1.89745e-29 -2.7165e-15 0.192767 -1.57772e-30 3.91919e-16)
(7.04056e-15 2.25936e-30 -1.69452e-30 1.13421 -2.86233e-15 -5.15139e-16 0.192767 -5.33904e-15 1.32182e-16)
(-2.47119e-15 2.19486e-30 -1.64614e-30 1.09519 4.00681e-15 -2.79344e-15 0.191616 -8.10589e-16 5.36416e-16)
(9.63851e-15 0 7.61816e-33 1.09519 -1.67206e-15 8.68193e-32 0.191616 -5.38342e-15 5.48947e-17)
(-4.84616e-15 2.9893e-30 -2.58241e-30 1.05762 3.42539e-15 -1.95284e-15 0.190491 -5.92603e-16 4.42696e-16)
(9.69232e-15 0 5.3305e-31 1.05762 -2.01911e-15 -1.25595e-16 0.190491 -5.48081e-15 5.97741e-17)
(-2.43645e-15 5.62046e-30 -2.05012e-30 1.02145 4.07992e-15 -1.48772e-15 0.189391 -6.45773e-16 2.60231e-16)
(-2.33211e-15 0 4.8083e-32 1.02145 -3.11141e-15 4.93038e-31 0.189391 -5.73165e-15 0)
(2.44974e-15 -3.4343e-30 1.98763e-30 0.986599 4.38326e-15 -1.82747e-15 0.188314 -8.74955e-16 2.93566e-16)
(9.79897e-15 0 -2.0122e-30 0.986599 -3.04436e-15 1.99415e-15 0.188314 -5.82831e-15 3.77353e-17)
(2.46296e-15 2.503e-30 -1.50224e-30 0.95302 2.47242e-15 -1.60324e-15 0.187258 -8.02127e-16 4.07736e-16)
(0 -3.90951e-30 2.44344e-30 0.95302 -3.10443e-15 1.92759e-15 0.187258 -5.97046e-15 1.7173e-16)
(-6.76131e-16 -8.25288e-31 4.84006e-31 0.920653 1.60719e-15 -7.85385e-16 0.186221 -1.63003e-16 2.21407e-16)
(-9.90437e-15 0 -4.74737e-31 0.920653 -3.29629e-15 8.88321e-16 0.186221 -6.11497e-15 2.28772e-16)
(0 0 -9.22369e-31 0.889445 2.92995e-15 1.4423e-17 0.185201 -6.5878e-16 1.04301e-16)
(7.87963e-15 0 9.22369e-31 0.889445 -1.83347e-15 -6.7246e-16 0.185201 -6.33866e-15 1.40661e-16)
(4.03539e-15 -3.58415e-30 3.50325e-46 0.859346 3.15764e-15 0 0.184197 -5.63399e-16 3.9443e-31)
(0 0 -1.79208e-30 0.859346 -1.28248e-15 -9.73185e-16 0.184197 -6.52339e-15 9.71211e-17)
(0 3.48183e-30 -1.30569e-30 0.830308 1.89231e-15 -3.66829e-16 0.183208 -7.97387e-16 2.22634e-16)
(0 0 4.35229e-31 0.830308 2.26274e-16 -1.01718e-15 0.183208 -6.76179e-15 1.03013e-16)
(0 2.18312e-30 -1.69122e-30 0.802285 2.53357e-16 6.29923e-16 0.18223 -2.88519e-17 2.24795e-16)
(0 0 8.45608e-31 0.802285 5.2505e-16 -1.25124e-15 0.18223 -6.72753e-15 4.42934e-18)
(0 0 2.46267e-32 0.775235 3.13311e-15 -2.07977e-31 0.181263 -5.42276e-16 -7.88861e-31)
(0 0 9.46576e-46 0.775235 -1.13048e-15 3.23027e-33 0.181263 -6.74232e-15 0)
(-6.14735e-15 4.48675e-30 -3.64995e-30 0.749115 3.82766e-15 -1.32368e-16 0.180305 -9.3249e-16 7.22791e-17)
(3.59395e-15 -3.19207e-30 3.19207e-30 0.749115 1.38567e-16 3.1364e-15 0.180305 -7.04657e-15 1.90362e-16)
(0 3.10094e-30 -1.75162e-46 0.723888 3.66902e-15 -3.69779e-30 0.179354 -9.14788e-16 3.9443e-31)
(0 0 7.75235e-31 0.723888 1.65673e-15 3.27274e-15 0.179354 -6.89906e-15 3.13333e-16)
(2.57862e-15 -1.23904e-30 4.32389e-31 0.699514 2.78642e-15 -2.3417e-16 0.178409 -9.08117e-16 1.14837e-16)
(-3.39168e-15 3.01241e-30 0 0.699514 5.23371e-16 3.96663e-15 0.178409 -6.815e-15 5.03922e-16)
(-7.03718e-16 -4.2222e-30 2.63615e-30 0.67596 1.9794e-15 -2.52108e-17 0.177467 -5.11292e-16 3.31834e-18)
(3.29485e-15 2.92641e-30 -1.46321e-30 0.67596 9.68018e-16 3.5062e-15 0.177467 -6.88687e-15 8.05239e-16)
(0 0 -7.10718e-31 0.65319 1.28873e-15 -7.96348e-16 0.176527 -5.31141e-16 1.32326e-16)
(7.21352e-15 0 0 0.65319 1.72579e-15 2.45253e-15 0.176527 -6.51076e-15 1.01283e-15)
(0 0 -1.38086e-30 0.631173 1.62867e-16 -1.43269e-15 0.175587 -1.61961e-16 3.01721e-16)
(-2.40371e-14 0 1.38086e-30 0.631173 7.98614e-16 2.86614e-15 0.175587 -6.74698e-15 1.14878e-15)
(0 0 -1.34144e-30 0.609877 0 -1.52592e-15 0.174645 -1.57772e-30 5.00448e-16)
(0 2.68287e-30 6.70718e-31 0.609877 4.87347e-16 5.35323e-15 0.174645 -6.86829e-15 1.42689e-15)
(-2.64052e-15 1.22412e-30 -3.74365e-31 0.589274 3.50771e-15 -2.12586e-15 0.173699 -6.11091e-16 3.74042e-16)
(0 2.60628e-30 0 0.589274 -1.57865e-15 5.81465e-15 0.173699 -6.74159e-15 1.90917e-15)
(0 -2.53188e-30 6.3297e-31 0.569334 4.36877e-15 -2.69424e-15 0.172748 -1.47506e-15 8.90165e-16)
(0 2.53188e-30 0 0.569334 -2.63619e-15 3.91815e-15 0.172748 -7.1072e-15 2.26774e-15)
(0 0 0 0.550031 3.33535e-15 -2.21355e-15 0.171789 -1.17922e-15 7.47316e-16)
(0 2.4596e-30 -6.149e-31 0.550031 -1.62142e-16 3.60393e-15 0.171789 -6.22911e-15 2.46241e-15)
(-5.35376e-15 2.23542e-30 -3.97208e-31 0.531338 3.60853e-15 -5.84748e-16 0.17082 -9.06157e-16 6.37712e-16)
(1.07075e-14 -9.28223e-31 1.01934e-30 0.531338 6.17067e-16 3.09474e-15 0.17082 -5.74692e-15 7.5527e-16)
(0 0 4.37906e-47 0.513231 3.54871e-15 -7.55387e-46 0.169838 -1.42829e-15 -4.14213e-47)
(1.07555e-14 -1.8167e-30 1.30188e-30 0.513231 -1.02511e-15 1.54941e-15 0.169838 -4.28595e-15 2.66115e-16)
(0 2.25491e-30 0 0.495686 3.42301e-15 8.42777e-17 0.168842 -9.19906e-16 6.29592e-16)
(0 -2.25491e-30 -8.15957e-31 0.495686 -6.69062e-16 -4.93038e-32 0.168842 -2.70925e-15 3.9443e-31)
(-2.46632e-15 2.19053e-30 -8.75812e-47 0.47868 9.58706e-16 -1.67633e-30 0.16783 -1.42632e-15 9.27386e-47)
(-2.46632e-15 0 -1.09527e-30 0.47868 1.3159e-15 -2.38717e-17 0.16783 -1.49515e-15 9.98485e-17)
(0 -7.00649e-46 1.064e-30 0.462191 3.9443e-31 -5.25156e-16 0.166798 0 8.24601e-16)
(0 2.128e-30 0 0.462191 1.02522e-15 0 0.166798 -2.99986e-15 0)
(4.08644e-16 1.2809e-30 1.37046e-31 0.446198 5.13691e-15 1.67403e-15 0.165743 -2.43068e-15 8.6333e-16)
(0 2.06725e-30 0 0.446198 9.77507e-16 -1.90941e-16 0.165743 -5.80495e-16 2.3626e-16)
(-7.75669e-15 1.75663e-30 -3.88595e-31 0.430679 3.2091e-15 1.96607e-15 0.164664 -1.38274e-15 6.4186e-16)
(1.09912e-14 -1.91772e-30 7.35224e-31 0.430679 9.7866e-16 -6.86964e-16 0.164664 -7.27599e-16 5.67371e-16)
(4.39304e-15 0 9.75451e-31 0.415616 2.11112e-15 2.07827e-15 0.163557 -1.13662e-15 1.00473e-15)
(0 -1.9509e-30 -9.75451e-31 0.415616 -6.27727e-16 9.12172e-16 0.163557 -5.16311e-16 1.5887e-15)
(0 0 -3.76599e-45 0.400989 -3.34114e-15 1.73548e-30 0.162418 -3.35868e-15 3.9443e-31)
(1.10836e-14 -4.27391e-30 -9.0524e-31 0.400989 -4.08772e-16 3.98612e-15 0.162418 -8.30796e-17 1.86128e-15)
(1.10739e-14 -9.09742e-30 9.20551e-31 0.38678 -2.38818e-29 -2.00916e-15 0.161245 0 1.40682e-15)
(0 0 -1.0093e-30 0.38678 -8.82985e-16 -6.11809e-30 0.161245 -1.03734e-15 3.9443e-31)
(-2.79368e-15 7.57425e-31 0 0.37297 -6.64587e-17 -2.12101e-15 0.160033 -2.55116e-15 1.10376e-15)
(0 0 0 0.37297 3.77004e-29 9.58702e-16 0.160033 0 1.37007e-15)
(1.1075e-15 5.98401e-31 2.60623e-30 0.359542 -2.69937e-15 -2.31826e-15 0.158779 -5.98429e-16 3.93744e-16)
(-3.91247e-15 1.73748e-30 -4.66551e-31 0.359542 1.42523e-15 -1.37829e-29 0.158779 -1.05519e-15 3.9443e-31)
(-3.80077e-15 3.50325e-46 0 0.346479 5.49737e-30 -3.88244e-16 0.157478 -1.57772e-30 -7.32298e-17)
(0 0 0 0.346479 8.42116e-16 -2.01776e-15 0.157478 -2.36694e-15 1.12566e-15)
(3.69227e-15 0 0 0.333765 1.11644e-15 -6.68436e-16 0.156125 -8.08902e-16 4.01634e-17)
(-1.50014e-14 3.82949e-30 -2.71883e-31 0.333765 -2.16547e-16 -1.45682e-15 0.156125 -1.60376e-15 7.10189e-16)
(0 -1.06826e-30 0 0.321382 9.58607e-16 9.59484e-16 0.154716 -2.31807e-16 -3.06143e-16)
(-1.13532e-14 4.14584e-30 -9.00162e-31 0.321382 4.52423e-17 -1.53272e-15 0.154716 -1.11842e-15 6.57954e-16)
(6.33371e-15 -1.00704e-30 0 0.309315 1.42846e-15 9.34252e-16 0.153245 -1.31121e-15 2.24836e-16)
(-3.48447e-15 0 -7.73707e-31 0.309315 -1.59717e-16 -5.37006e-16 0.153245 -4.75726e-16 4.81324e-16)
(-2.86009e-15 1.00391e-30 0 0.297548 -1.28677e-15 -1.3222e-15 0.151705 -1.43446e-15 -2.75882e-16)
(0 0 0 0.297548 -1.92683e-15 7.63978e-31 0.151705 -1.51422e-15 4.93038e-32)
(0 0 0 0.286065 -5.53626e-16 -1.75934e-15 0.15009 -5.36352e-16 -7.90408e-16)
(0 1.10352e-44 0 0.286065 -4.93038e-30 4.57382e-16 0.15009 -9.54755e-47 3.15092e-16)
(2.88149e-15 -1.25258e-30 -1.41863e-30 0.274851 1.81991e-15 -1.25985e-15 0.148394 -8.8392e-16 -1.27504e-15)
(1.1526e-14 -5.06509e-30 -3.50325e-45 0.274851 3.16389e-16 7.22349e-31 0.148394 -5.97278e-16 -4.93038e-32)
(-5.78408e-15 -7.08065e-31 6.89068e-31 0.263889 -1.34043e-15 1.04944e-15 0.146606 -2.64852e-15 -1.06112e-15)
(0 3.16297e-30 -6.89068e-31 0.263889 -4.8757e-17 -2.43499e-15 0.146606 -1.36275e-17 -7.12235e-17)
(-8.93186e-15 0 2.50147e-31 0.253164 -9.46633e-30 -3.51758e-16 0.144719 -8.8339e-46 -4.47072e-16)
(2.92492e-14 -1.01207e-29 0 0.253164 -9.09394e-16 3.17352e-16 0.144719 -1.04792e-15 -2.10469e-16)
(0 0 0 0.24266 -1.89094e-15 3.99887e-16 0.142722 -2.75546e-15 -1.72765e-15)
(-1.16512e-14 5.82565e-30 8.40779e-45 0.24266 -1.27136e-15 -1.86954e-30 0.142722 -4.49551e-16 4.93038e-32)
(-2.92299e-15 2.25259e-43 7.0023e-31 0.23236 -5.07291e-29 4.71695e-16 0.140605 -1.57772e-30 -4.20072e-16)
(1.1692e-14 -5.87576e-30 0 0.23236 -9.24755e-17 -2.90721e-15 0.140605 -1.23937e-15 3.23838e-17)
(2.59455e-15 1.40677e-30 0 0.222247 6.13545e-17 -1.14199e-15 0.138353 -8.56202e-16 -1.13541e-16)
(-5.52761e-15 0 0 0.222247 4.48334e-16 -2.54578e-15 0.138353 -7.31503e-16 -8.30756e-17)
(5.36981e-15 -9.98088e-32 0 0.212305 -1.00506e-28 -1.08465e-15 0.135954 -1.57772e-30 -2.39371e-17)
(1.1772e-14 -5.23172e-30 0 0.212305 -7.19679e-16 3.32387e-16 0.135954 -1.74722e-15 -6.2399e-16)
(2.26373e-15 -8.14543e-31 -2.67718e-32 0.202515 6.43896e-16 -1.50591e-15 0.133391 -8.02124e-16 7.87547e-16)
(-5.21651e-15 2.3166e-30 0 0.202515 -4.78247e-30 2.42355e-15 0.133391 1.57772e-30 -6.59821e-17)
(0 -4.87172e-31 0 0.192858 1.26743e-16 -6.89869e-16 0.130644 -4.33865e-17 5.50758e-16)
(0 0 0 0.192858 4.56624e-16 -5.06174e-30 0.130644 -8.552e-16 0)
(0 -2.18622e-30 0 0.183313 1.41286e-15 8.04075e-16 0.127694 -6.87971e-16 4.02438e-16)
(-1.18876e-14 4.62249e-30 0 0.183313 5.29798e-29 -3.54497e-15 0.127694 0 5.3188e-16)
(0 -2.1238e-30 9.34036e-32 0.173858 1.66772e-15 2.7917e-30 0.124516 -1.57061e-15 0)
(4.78238e-15 0 0 0.173858 2.23999e-16 -1.63624e-15 0.124516 -8.12516e-17 -1.40875e-17)
(4.64585e-15 0 0 0.16447 1.81425e-15 -2.59002e-15 0.121082 -1.93923e-15 -6.97109e-16)
(0 0 0 0.16447 1.97005e-15 -2.32336e-16 0.121082 -7.35601e-16 8.67525e-17)
(0 0 5.01068e-31 0.155123 2.44218e-15 -1.74155e-16 0.117359 -1.61286e-15 -3.77084e-16)
(1.19969e-14 -3.87829e-30 -5.01068e-31 0.155123 2.36407e-15 4.54068e-16 0.117359 -4.20772e-15 2.15725e-16)
(-3.00793e-15 1.09987e-30 0 0.145787 9.816e-16 -2.66401e-16 0.113311 -2.14967e-15 -1.50956e-16)
(0 0 0 0.145787 -9.47076e-29 1.11966e-15 0.113311 0 7.42146e-16)
(-6.03282e-15 4.47638e-30 -4.72868e-31 0.136432 -1.0993e-15 -7.82519e-16 0.108893 -1.16204e-15 -7.9509e-19)
(1.20656e-14 -5.75999e-30 9.10844e-44 0.136432 1.95931e-15 1.02371e-29 0.108893 -7.98e-16 -1.97215e-31)