/*--------------------------------*- C++ -*----------------------------------*\
| =========                 |                                                 |
| \\      /  F ield         | OpenFOAM: The Open Source CFD Toolbox           |
|  \\    /   O peration     | Version:  2012                                  |
|   \\  /    A nd           | Website:  www.openfoam.com                      |
|    \\/     M anipulation  |                                                 |
\*---------------------------------------------------------------------------*/
FoamFile
{
    version     2.0;
    format      ascii;
    class       volScalarField;
    location    "19000";
    object      p;
}
// * * * * * * * * * * * * * * * * * * * * * * * * * * * * * * * * * * * * * //

dimensions      [0 2 -2 0 0 0 0];


internalField   nonuniform List<scalar> 
1280
(
7.59452e-16
5.66797e-15
1.6381e-15
5.66767e-15
1.70881e-15
5.66712e-15
1.54675e-15
5.66628e-15
1.43732e-15
5.66514e-15
1.35859e-15
5.66366e-15
1.28277e-15
5.66184e-15
1.20844e-15
5.65966e-15
1.13748e-15
5.65708e-15
1.07009e-15
5.65411e-15
1.0058e-15
5.65073e-15
9.44259e-16
5.64688e-15
8.8535e-16
5.64259e-15
8.28935e-16
5.6378e-15
7.74834e-16
5.63259e-15
7.22921e-16
5.62689e-15
6.73334e-16
5.62038e-15
6.25874e-16
5.61313e-15
5.80392e-16
5.6053e-15
5.37017e-16
5.59675e-15
4.95283e-16
5.58757e-15
4.5513e-16
5.57726e-15
4.16501e-16
5.56612e-15
3.79233e-16
5.55425e-15
3.4295e-16
5.54147e-15
3.07639e-16
5.52769e-15
2.73317e-16
5.51256e-15
2.39675e-16
5.4962e-15
2.06788e-16
5.47884e-15
1.74519e-16
5.46035e-15
1.42497e-16
5.44058e-15
1.10871e-16
5.41941e-15
7.9826e-17
5.39669e-15
4.86101e-17
5.3728e-15
1.74159e-17
5.34778e-15
-1.38311e-17
5.32047e-15
-4.33858e-17
5.29175e-15
-7.21509e-17
5.26135e-15
-1.00794e-16
5.22865e-15
-1.29051e-16
5.19266e-15
-1.57323e-16
5.1554e-15
-1.84645e-16
5.11766e-15
-2.11062e-16
5.07887e-15
-2.37005e-16
5.03842e-15
-2.62571e-16
4.99604e-15
-2.88264e-16
4.953e-15
-3.1184e-16
4.91029e-15
-3.35818e-16
4.8653e-15
-3.60397e-16
4.81815e-15
-3.82375e-16
4.76816e-15
-4.05345e-16
4.71807e-15
-4.27794e-16
4.66727e-15
-4.46303e-16
4.6133e-15
-4.60978e-16
4.55816e-15
-4.74787e-16
4.50214e-15
-4.86066e-16
4.44165e-15
-4.98952e-16
4.38078e-15
-5.10843e-16
4.31887e-15
-5.1699e-16
4.2542e-15
-5.2271e-16
4.18602e-15
-5.294e-16
4.1198e-15
-5.40663e-16
4.05175e-15
-5.51693e-16
3.98436e-15
-5.60764e-16
3.91699e-15
-5.6499e-16
3.84678e-15
-5.69192e-16
3.7741e-15
-5.71607e-16
3.70161e-15
-5.74992e-16
3.62749e-15
-5.77601e-16
3.55217e-15
-5.82318e-16
3.47846e-15
-5.87441e-16
3.40221e-15
-5.91233e-16
3.32627e-15
-5.99142e-16
3.25361e-15
-6.04697e-16
3.18004e-15
-6.08605e-16
3.10374e-15
-6.14061e-16
3.0228e-15
-6.0693e-16
2.94771e-15
-6.05304e-16
2.86412e-15
-6.02441e-16
2.7851e-15
-5.99114e-16
2.70113e-15
-5.98642e-16
2.61013e-15
-6.04399e-16
2.52286e-15
-5.99124e-16
2.43478e-15
-5.88641e-16
2.35156e-15
-5.78846e-16
2.25275e-15
-5.75658e-16
2.14909e-15
-5.74516e-16
2.05674e-15
-5.60096e-16
1.96551e-15
-5.48934e-16
1.86485e-15
-5.41546e-16
1.77091e-15
-5.43957e-16
1.67309e-15
-5.51419e-16
1.59326e-15
-5.48498e-16
1.5046e-15
-5.63185e-16
1.39614e-15
-5.57725e-16
1.28971e-15
-5.54195e-16
1.20137e-15
-5.58573e-16
1.1088e-15
-5.71324e-16
1.01158e-15
-5.76307e-16
9.26119e-16
-5.90805e-16
8.46777e-16
-5.93247e-16
7.51211e-16
-6.00515e-16
6.66421e-16
-5.96012e-16
5.97311e-16
-6.02553e-16
5.20667e-16
-5.97813e-16
4.35593e-16
-5.81463e-16
3.63192e-16
-5.75563e-16
3.02053e-16
-5.79911e-16
2.2819e-16
-5.71348e-16
1.51216e-16
-5.60116e-16
9.16194e-17
-5.45489e-16
4.77207e-17
-5.26786e-16
-2.79519e-17
-4.78081e-16
-1.39054e-16
-4.62173e-16
-2.01383e-16
-4.52735e-16
-2.53861e-16
-4.47015e-16
-3.23057e-16
-4.52869e-16
-3.79012e-16
-4.68342e-16
-4.02047e-16
-4.70317e-16
-4.16235e-16
-5.05148e-16
-4.57123e-16
-4.92413e-16
-4.90835e-16
-5.22037e-16
-5.21428e-16
-5.71427e-16
-5.6077e-16
-6.19354e-16
-5.73751e-16
-6.93445e-16
-5.81486e-16
-6.84692e-16
-5.774e-16
-7.32594e-16
-5.83682e-16
-7.02767e-16
-6.18402e-16
-7.0494e-16
-5.96215e-16
-7.1913e-16
-6.295e-16
-7.19505e-16
-6.4996e-16
-7.52104e-16
-6.83464e-16
-7.23711e-16
-6.83748e-16
-7.2017e-16
-6.77443e-16
-7.20166e-16
-6.63566e-16
-6.81703e-16
-6.59278e-16
-6.72964e-16
-6.21792e-16
-6.02035e-16
-5.72834e-16
-5.58492e-16
-5.14182e-16
-5.22072e-16
-5.10661e-16
-4.34828e-16
-4.5526e-16
-3.73528e-16
-3.74949e-16
-3.18136e-16
-3.10513e-16
-2.75637e-16
-2.53874e-16
-2.5843e-16
-1.968e-16
-2.28992e-16
-1.27056e-16
-1.87287e-16
-1.24025e-16
-1.747e-16
-1.11851e-16
-1.51024e-16
-9.64142e-17
-1.10377e-16
-7.68992e-17
-9.26919e-17
-5.50626e-17
-5.47676e-17
-2.67772e-17
-3.18489e-17
1.53396e-17
1.16557e-17
3.6591e-17
-1.39672e-17
6.76811e-17
9.50283e-18
9.41907e-17
8.37915e-17
1.20277e-16
1.73023e-16
1.62074e-16
2.08193e-16
1.85869e-16
2.22202e-16
2.34116e-16
2.70108e-15
2.86938e-15
2.70103e-15
2.86935e-15
2.70089e-15
2.86929e-15
2.70065e-15
2.86918e-15
2.70027e-15
2.869e-15
2.69977e-15
2.86876e-15
2.69918e-15
2.8685e-15
2.6984e-15
2.86821e-15
2.6976e-15
2.8678e-15
2.69666e-15
2.86728e-15
2.69556e-15
2.86681e-15
2.69439e-15
2.86622e-15
2.6931e-15
2.86555e-15
2.69171e-15
2.86488e-15
2.69026e-15
2.86406e-15
2.68878e-15
2.86304e-15
2.6869e-15
2.86205e-15
2.68483e-15
2.86099e-15
2.6826e-15
2.85999e-15
2.68033e-15
2.85877e-15
2.67792e-15
2.8575e-15
2.6755e-15
2.85566e-15
2.67278e-15
2.85355e-15
2.66972e-15
2.85151e-15
2.66655e-15
2.8494e-15
2.66292e-15
2.84718e-15
2.65895e-15
2.84437e-15
2.65509e-15
2.84128e-15
2.65052e-15
2.83849e-15
2.64544e-15
2.83513e-15
2.63986e-15
2.83102e-15
2.63374e-15
2.82663e-15
2.6272e-15
2.82207e-15
2.62038e-15
2.81718e-15
2.61242e-15
2.8125e-15
2.60416e-15
2.80687e-15
2.59561e-15
2.80021e-15
2.58614e-15
2.79404e-15
2.57607e-15
2.78677e-15
2.56572e-15
2.77933e-15
2.5541e-15
2.77171e-15
2.54116e-15
2.76391e-15
2.52797e-15
2.75556e-15
2.51418e-15
2.74553e-15
2.49944e-15
2.73487e-15
2.48414e-15
2.72472e-15
2.4683e-15
2.71513e-15
2.45156e-15
2.70285e-15
2.43308e-15
2.6886e-15
2.41285e-15
2.67486e-15
2.39262e-15
2.66343e-15
2.36976e-15
2.65173e-15
2.3488e-15
2.63704e-15
2.32429e-15
2.62111e-15
2.29808e-15
2.60675e-15
2.27497e-15
2.58923e-15
2.25024e-15
2.57139e-15
2.22392e-15
2.55125e-15
2.19705e-15
2.53078e-15
2.16864e-15
2.50898e-15
2.13769e-15
2.48374e-15
2.1116e-15
2.46135e-15
2.08202e-15
2.43656e-15
2.04894e-15
2.41042e-15
2.01786e-15
2.37852e-15
1.98669e-15
2.34298e-15
1.9533e-15
2.31048e-15
1.92229e-15
2.28115e-15
1.89382e-15
2.24586e-15
1.86809e-15
2.20681e-15
1.84295e-15
2.171e-15
1.8186e-15
2.13373e-15
1.79524e-15
2.09015e-15
1.77072e-15
2.04249e-15
1.74529e-15
2.0004e-15
1.71917e-15
1.95899e-15
1.69014e-15
1.91324e-15
1.66342e-15
1.87055e-15
1.63427e-15
1.83344e-15
1.60034e-15
1.79438e-15
1.56435e-15
1.7508e-15
1.52395e-15
1.70783e-15
1.48449e-15
1.67336e-15
1.44091e-15
1.62673e-15
1.4091e-15
1.57313e-15
1.38429e-15
1.52829e-15
1.33511e-15
1.48698e-15
1.29882e-15
1.45487e-15
1.26493e-15
1.41082e-15
1.22838e-15
1.36028e-15
1.1841e-15
1.31951e-15
1.1431e-15
1.28894e-15
1.10556e-15
1.24722e-15
1.07179e-15
1.19453e-15
1.02044e-15
1.15298e-15
9.7904e-16
1.11781e-15
9.31099e-16
1.08409e-15
8.93248e-16
1.03599e-15
8.54919e-16
9.68212e-16
8.16974e-16
9.08451e-16
7.74669e-16
8.79148e-16
7.33623e-16
8.47803e-16
6.93951e-16
8.09808e-16
6.55814e-16
7.77161e-16
6.30775e-16
7.39555e-16
5.96813e-16
6.86261e-16
5.5452e-16
6.51583e-16
5.1516e-16
6.25231e-16
4.78584e-16
5.86009e-16
4.56421e-16
5.35015e-16
4.27006e-16
4.94966e-16
3.79261e-16
4.43158e-16
3.47496e-16
4.15164e-16
2.9609e-16
3.90641e-16
2.46213e-16
3.49443e-16
1.96758e-16
3.04872e-16
1.69966e-16
2.58973e-16
1.32143e-16
2.23876e-16
1.0645e-16
1.77443e-16
8.25218e-17
1.30404e-16
5.13514e-17
9.40404e-17
1.27001e-17
3.41809e-17
-3.12884e-17
-1.54096e-17
-7.89184e-17
-4.25417e-17
-1.30719e-16
-9.1639e-17
-1.84828e-16
-1.39386e-16
-2.20013e-16
-1.86139e-16
-2.56885e-16
-1.86529e-16
-2.77892e-16
-2.27738e-16
-3.28034e-16
-2.6668e-16
-3.3892e-16
-3.00854e-16
-3.78196e-16
-3.32324e-16
-4.46281e-16
-3.58382e-16
-4.36327e-16
-3.73252e-16
-4.14727e-16
-4.275e-16
-3.67229e-16
-4.4162e-16
-4.00078e-16
-3.78785e-16
-3.65186e-16
-3.62153e-16
-3.32596e-16
-3.49149e-16
-3.45935e-16
-2.99297e-16
-3.7449e-16
-2.89143e-16
-3.19766e-16
-2.41705e-16
-2.29181e-16
-2.32e-16
-1.26751e-16
-2.1323e-16
-1.25556e-16
-1.63959e-16
-1.91006e-16
-1.20774e-16
-1.27682e-16
-5.58546e-17
-7.74656e-17
-5.73111e-18
-8.29616e-17
-1.02991e-17
-5.39227e-17
-2.22922e-17
-2.6123e-17
-1.23273e-17
-3.88268e-17
-3.66938e-17
-8.0614e-19
-1.3978e-17
5.00061e-17
4.47994e-17
1.54449e-17
5.47053e-17
1.715e-17
8.09732e-17
1.33425e-16
1.37563e-16
2.12819e-16
2.01557e-16
1.63451e-16
2.21706e-16
2.11747e-16
2.90064e-16
2.31835e-16
2.22039e-16
2.07226e-16
2.3408e-16
1.89967e-16
2.45758e-16
1.91565e-16
3.67853e-16
1.07084e-16
3.02235e-16
2.16096e-16
2.36156e-16
1.98751e-16
2.62753e-16
2.54299e-16
3.04594e-16
2.10004e-16
2.73418e-16
2.13464e-16
2.67534e-16
2.20189e-16
2.29486e-16
2.10113e-16
2.2998e-16
1.75659e-16
2.2145e-16
2.34986e-16
2.12694e-16
2.85779e-16
2.79462e-16
2.80353e-16
2.88296e-16
2.22841e-16
2.94466e-16
2.76705e-16
3.15412e-16
2.91575e-16
3.61892e-16
3.09251e-16
3.50502e-16
3.41663e-16
3.68728e-16
3.92074e-16
4.15981e-16
3.9453e-16
4.4613e-16
4.12054e-16
4.64026e-16
4.20224e-16
4.69694e-16
4.42251e-16
4.83288e-16
4.78101e-16
4.9711e-16
4.80562e-16
5.06242e-16
5.20937e-16
5.32848e-16
5.08884e-16
5.52126e-16
4.63624e-16
5.46259e-16
4.74431e-16
5.45237e-16
4.50133e-16
5.27595e-16
4.61627e-16
5.43172e-16
4.65013e-16
4.99529e-16
4.64309e-16
4.82561e-16
4.60269e-16
4.66308e-16
4.78382e-16
4.73308e-16
4.73491e-16
4.79357e-16
4.6808e-16
4.50276e-16
4.40805e-16
4.31956e-16
4.37229e-16
4.25373e-16
4.34048e-16
4.18378e-16
4.09043e-16
4.22526e-16
3.95608e-16
4.16012e-16
3.81388e-16
4.22178e-16
3.76682e-16
4.30163e-16
3.69386e-16
4.29237e-16
3.70859e-16
4.07863e-16
3.71048e-16
3.87697e-16
3.70786e-16
3.90496e-16
3.69785e-16
4.16504e-16
3.44258e-16
4.32532e-16
3.38433e-16
4.28977e-16
3.29323e-16
4.05808e-16
3.28368e-16
3.96237e-16
3.24638e-16
3.76871e-16
3.41529e-16
3.69713e-16
3.57012e-16
3.73985e-16
3.71266e-16
3.78124e-16
3.62285e-16
3.70702e-16
3.63785e-16
3.74051e-16
3.7005e-16
3.76886e-16
3.81186e-16
3.79117e-16
3.86311e-16
3.7505e-16
3.85745e-16
3.81136e-16
3.73979e-16
3.80947e-16
3.72804e-16
3.80205e-16
3.76703e-16
3.95321e-16
3.74595e-16
4.10019e-16
3.71762e-16
4.08399e-16
3.68213e-16
4.1231e-16
3.63923e-16
4.21776e-16
3.64118e-16
4.20861e-16
3.58149e-16
4.20272e-16
3.51386e-16
4.20035e-16
3.43822e-16
4.30719e-16
3.45809e-16
4.3672e-16
3.46869e-16
4.32949e-16
3.47118e-16
4.29764e-16
3.49216e-16
4.32233e-16
3.48097e-16
4.30092e-16
3.48917e-16
4.25915e-16
3.51727e-16
4.22197e-16
3.54072e-16
4.16392e-16
3.56026e-16
4.10923e-16
3.52762e-16
4.10605e-16
3.54106e-16
4.08063e-16
3.57615e-16
4.05721e-16
3.56137e-16
3.98778e-16
3.54521e-16
3.9437e-16
3.52787e-16
3.97107e-16
3.48623e-16
3.95304e-16
3.46647e-16
3.95914e-16
3.44545e-16
3.87598e-16
3.42339e-16
3.83934e-16
3.40037e-16
3.73791e-16
3.35486e-16
3.66007e-16
3.31976e-16
3.60504e-16
3.30548e-16
3.56158e-16
3.26977e-16
3.5502e-16
3.24407e-16
3.52892e-16
3.23823e-16
3.5183e-16
3.20188e-16
3.50801e-16
3.1752e-16
3.49809e-16
3.15787e-16
3.46932e-16
3.14962e-16
3.45073e-16
3.12234e-16
3.43266e-16
3.10409e-16
3.41512e-16
3.11242e-16
3.39809e-16
3.09382e-16
3.37279e-16
3.09229e-16
3.34813e-16
3.09039e-16
3.34085e-16
3.08818e-16
3.31741e-16
3.07769e-16
3.31054e-16
3.05934e-16
3.31949e-16
3.04492e-16
3.30545e-16
3.04911e-16
3.29553e-16
3.06012e-16
3.30035e-16
3.06356e-16
3.30157e-16
3.05984e-16
3.29938e-16
3.06595e-16
3.30061e-16
3.07169e-16
3.30506e-16
3.07394e-16
3.31566e-16
3.07595e-16
3.32295e-16
3.07773e-16
3.32123e-16
3.0793e-16
3.31674e-16
3.07791e-16
3.31795e-16
3.07642e-16
3.32185e-16
3.07484e-16
3.32174e-16
3.07445e-16
3.32167e-16
3.0752e-16
3.32286e-16
3.07339e-16
3.32163e-16
3.07271e-16
3.31926e-16
3.07311e-16
3.32162e-16
3.0711e-16
3.32512e-16
3.07017e-16
3.32404e-16
3.07143e-16
3.32298e-16
3.07148e-16
3.32308e-16
3.07031e-16
3.32433e-16
3.07078e-16
3.32562e-16
3.0712e-16
3.32576e-16
3.06979e-16
3.32652e-16
3.06949e-16
3.3273e-16
3.06851e-16
3.32812e-16
3.06809e-16
3.3277e-16
3.06761e-16
3.32793e-16
3.0674e-16
3.32818e-16
3.06646e-16
3.32913e-16
3.06579e-16
3.32941e-16
3.06579e-16
3.32935e-16
3.06538e-16
3.32948e-16
3.06512e-16
3.3302e-16
3.0652e-16
3.33036e-16
3.06465e-16
3.33073e-16
3.06437e-16
3.33112e-16
3.06415e-16
3.33143e-16
3.06412e-16
3.33163e-16
3.06406e-16
3.3318e-16
3.06403e-16
3.33179e-16
2.04734e-16
2.79774e-16
2.88063e-16
2.88641e-16
3.46404e-16
3.14864e-16
3.22368e-16
3.42724e-16
2.74809e-16
3.26054e-16
2.93181e-16
2.94106e-16
3.78679e-16
3.25578e-16
3.86031e-16
2.98435e-16
3.16464e-16
2.79462e-16
3.32949e-16
2.94541e-16
2.91786e-16
2.99774e-16
3.09153e-16
3.21066e-16
3.87806e-16
3.14446e-16
3.33741e-16
2.98923e-16
3.54077e-16
3.34005e-16
2.9451e-16
3.23232e-16
3.24775e-16
3.25345e-16
3.20411e-16
3.79524e-16
3.30706e-16
3.8457e-16
3.09075e-16
3.81007e-16
3.43108e-16
3.7287e-16
3.47216e-16
3.95213e-16
3.85063e-16
4.24939e-16
4.1458e-16
4.36295e-16
4.40478e-16
4.72769e-16
4.86411e-16
5.62262e-16
5.71304e-16
5.98561e-16
5.64244e-16
6.46316e-16
5.75249e-16
6.67871e-16
5.77649e-16
6.63167e-16
5.50108e-16
6.28733e-16
5.42038e-16
5.61193e-16
5.12041e-16
4.96718e-16
4.63367e-16
4.76164e-16
4.84082e-16
5.00602e-16
5.04126e-16
5.03117e-16
4.79079e-16
4.82989e-16
4.77937e-16
4.8732e-16
4.76051e-16
4.92921e-16
4.61334e-16
4.41829e-16
4.47757e-16
4.12492e-16
4.4839e-16
4.15215e-16
4.16494e-16
4.03925e-16
3.8486e-16
4.1475e-16
3.85795e-16
4.15378e-16
3.84936e-16
4.2912e-16
3.82002e-16
4.2202e-16
3.77344e-16
4.28154e-16
3.59109e-16
4.24929e-16
3.60997e-16
4.24773e-16
3.71712e-16
4.16311e-16
3.69305e-16
4.21457e-16
3.65092e-16
4.05562e-16
3.71343e-16
4.02017e-16
3.99971e-16
4.10422e-16
3.95096e-16
4.19179e-16
3.79126e-16
4.17527e-16
3.9691e-16
4.17401e-16
4.26134e-16
4.18357e-16
4.22429e-16
4.19643e-16
4.19353e-16
4.3256e-16
4.27814e-16
4.46346e-16
4.30923e-16
4.55559e-16
4.34129e-16
4.60341e-16
4.26224e-16
4.6626e-16
4.18021e-16
4.68019e-16
4.20355e-16
4.71208e-16
4.16787e-16
4.75775e-16
4.23667e-16
4.87255e-16
4.24554e-16
4.78314e-16
4.25088e-16
4.59638e-16
4.2013e-16
4.6333e-16
4.20383e-16
4.6775e-16
4.25784e-16
4.67522e-16
4.151e-16
4.67923e-16
4.09541e-16
4.63732e-16
4.03798e-16
4.54959e-16
4.03145e-16
4.46752e-16
3.97187e-16
4.49358e-16
3.91071e-16
4.47221e-16
3.87329e-16
4.42976e-16
3.8083e-16
4.36606e-16
3.7414e-16
4.30641e-16
3.74776e-16
4.25057e-16
3.75197e-16
4.27264e-16
3.72935e-16
4.34685e-16
3.58192e-16
4.37501e-16
3.5294e-16
4.33432e-16
3.54603e-16
4.32204e-16
3.51166e-16
4.2659e-16
3.49825e-16
4.21371e-16
3.45897e-16
4.21182e-16
3.44054e-16
4.21291e-16
3.46545e-16
4.17118e-16
3.48795e-16
4.1098e-16
3.50847e-16
4.00661e-16
3.52751e-16
3.99443e-16
3.52353e-16
4.00568e-16
3.49717e-16
3.98614e-16
3.50203e-16
3.93662e-16
3.50612e-16
3.88914e-16
3.50961e-16
3.88462e-16
3.46195e-16
3.90146e-16
3.4643e-16
3.86933e-16
3.45635e-16
3.83873e-16
3.44814e-16
3.80952e-16
3.41137e-16
3.80056e-16
3.39349e-16
3.78327e-16
3.40294e-16
3.76707e-16
3.38514e-16
3.74294e-16
3.35869e-16
3.73743e-16
3.33252e-16
3.7241e-16
3.31502e-16
3.72005e-16
3.32219e-16
3.70031e-16
3.32095e-16
3.68957e-16
3.31171e-16
3.69519e-16
3.30629e-16
3.68593e-16
3.30452e-16
3.67366e-16
3.29901e-16
3.66212e-16
3.28997e-16
3.65479e-16
3.28784e-16
3.65144e-16
3.2823e-16
3.66178e-16
3.27676e-16
3.65928e-16
3.27122e-16
3.66029e-16
3.2657e-16
3.6646e-16
3.26314e-16
3.66317e-16
3.25765e-16
3.66206e-16
3.25219e-16
3.65847e-16
3.24944e-16
3.65791e-16
3.24664e-16
3.66282e-16
3.24506e-16
3.66654e-16
3.23969e-16
3.66914e-16
3.23675e-16
3.67067e-16
3.23613e-16
3.67474e-16
3.22957e-16
3.68009e-16
3.22761e-16
3.68209e-16
3.22556e-16
3.68196e-16
3.2257e-16
3.68312e-16
3.22576e-16
3.68557e-16
3.22458e-16
3.68647e-16
3.22273e-16
3.68636e-16
3.22253e-16
3.68695e-16
3.22286e-16
3.68828e-16
3.22251e-16
3.68914e-16
3.22147e-16
3.69075e-16
3.2216e-16
3.6906e-16
3.22006e-16
3.69022e-16
3.21909e-16
3.69092e-16
3.21873e-16
3.69174e-16
3.21795e-16
3.69301e-16
3.21782e-16
3.6933e-16
3.21783e-16
3.69313e-16
3.2178e-16
3.69282e-16
3.21675e-16
3.69278e-16
3.21623e-16
3.69299e-16
3.21639e-16
3.69306e-16
3.21609e-16
3.69319e-16
3.21576e-16
3.69327e-16
3.21555e-16
3.69334e-16
3.21554e-16
3.69335e-16
)
;

boundaryField
{
    walls
    {
        type            zeroGradient;
    }
    inlet
    {
        type            cyclic;
    }
    outlet
    {
        type            cyclic;
    }
    sides
    {
        type            empty;
    }
}


// ************************************************************************* //
