/*--------------------------------*- C++ -*----------------------------------*\
| =========                 |                                                 |
| \\      /  F ield         | OpenFOAM: The Open Source CFD Toolbox           |
|  \\    /   O peration     | Version:  2012                                  |
|   \\  /    A nd           | Website:  www.openfoam.com                      |
|    \\/     M anipulation  |                                                 |
\*---------------------------------------------------------------------------*/
FoamFile
{
    version     2.0;
    format      ascii;
    class       surfaceScalarField;
    location    "15100";
    object      phi;
}
// * * * * * * * * * * * * * * * * * * * * * * * * * * * * * * * * * * * * * //

dimensions      [0 3 -1 0 0 0 0];
oriented        oriented;


internalField   nonuniform List<scalar> 
5116
(
7.11847e-07
-2.54246e-12
-1.18208e-12
-3.43511e-12
1.17449e-12
2.1756e-06
2.70343e-12
-1.77641e-12
-8.73631e-12
1.76503e-12
3.70163e-06
7.06561e-12
-1.46148e-12
-1.31462e-11
1.45212e-12
5.29192e-06
9.81301e-12
-8.80164e-13
-1.58046e-11
8.74529e-13
6.94847e-06
1.13028e-11
-4.87241e-13
-1.72735e-11
4.84122e-13
8.67337e-06
1.22515e-11
-2.98287e-13
-1.81678e-11
2.96378e-13
1.04688e-05
1.28505e-11
-2.05857e-13
-1.87858e-11
2.0454e-13
1.23371e-05
1.33436e-11
-1.55456e-13
-1.92496e-11
1.54463e-13
1.42808e-05
1.36978e-11
-1.25002e-13
-1.9624e-11
1.24204e-13
1.63023e-05
1.4035e-11
-1.05085e-13
-1.99367e-11
1.04414e-13
1.84045e-05
1.4287e-11
-9.12682e-14
-2.021e-11
9.06866e-14
2.05901e-05
1.45508e-11
-8.1251e-14
-2.04515e-11
8.07342e-14
2.28621e-05
1.47525e-11
-7.37419e-14
-2.06724e-11
7.32735e-14
2.52237e-05
1.49761e-11
-6.79668e-14
-2.08742e-11
6.75361e-14
2.7678e-05
1.51467e-11
-6.34384e-14
-2.10643e-11
6.30371e-14
3.02285e-05
1.5345e-11
-5.98347e-14
-2.12419e-11
5.94572e-14
3.28784e-05
1.54973e-11
-5.69367e-14
-2.14125e-11
5.65784e-14
3.56314e-05
1.56796e-11
-5.45896e-14
-2.15744e-11
5.42471e-14
3.84912e-05
1.58188e-11
-5.26823e-14
-2.17324e-11
5.23526e-14
4.14613e-05
1.59902e-11
-5.1132e-14
-2.18839e-11
5.08132e-14
4.45457e-05
1.61218e-11
-4.98775e-14
-2.20334e-11
4.95674e-14
4.7748e-05
1.62863e-11
-4.8871e-14
-2.21782e-11
4.85683e-14
5.1072e-05
1.64122e-11
-4.80763e-14
-2.23223e-11
4.77796e-14
5.45217e-05
1.65721e-11
-4.74645e-14
-2.24629e-11
4.71728e-14
5.81007e-05
1.66953e-11
-4.70133e-14
-2.26038e-11
4.67253e-14
6.18129e-05
1.68528e-11
-4.67041e-14
-2.27421e-11
4.64194e-14
6.56617e-05
1.69744e-11
-4.6523e-14
-2.28815e-11
4.62406e-14
6.96509e-05
1.71308e-11
-4.6458e-14
-2.3019e-11
4.61774e-14
7.37838e-05
1.72526e-11
-4.65001e-14
-2.31583e-11
4.62204e-14
7.80635e-05
1.74096e-11
-4.66413e-14
-2.32964e-11
4.63623e-14
8.24931e-05
1.75324e-11
-4.68762e-14
-2.34368e-11
4.6597e-14
8.70754e-05
1.76908e-11
-4.71993e-14
-2.35765e-11
4.69198e-14
9.18127e-05
1.7816e-11
-4.76076e-14
-2.3719e-11
4.73269e-14
9.67073e-05
1.7977e-11
-4.80974e-14
-2.38614e-11
4.78156e-14
0.000101761
1.81053e-11
-4.86675e-14
-2.40071e-11
4.83837e-14
0.000106975
1.82697e-11
-4.93156e-14
-2.4153e-11
4.90299e-14
0.00011235
1.84022e-11
-5.00415e-14
-2.43028e-11
4.97531e-14
0.000117887
1.85712e-11
-5.08441e-14
-2.44533e-11
5.05529e-14
0.000123585
1.87087e-11
-5.17242e-14
-2.4608e-11
5.14295e-14
0.000129445
1.88831e-11
-5.26813e-14
-2.4764e-11
5.23832e-14
0.000135464
1.90266e-11
-5.37171e-14
-2.49246e-11
5.34148e-14
0.00014164
1.92073e-11
-5.48317e-14
-2.50869e-11
5.45252e-14
0.000147972
1.93578e-11
-5.60273e-14
-2.52545e-11
5.57159e-14
0.000154455
1.95458e-11
-5.73045e-14
-2.54241e-11
5.69883e-14
0.000161086
1.97042e-11
-5.86661e-14
-2.55995e-11
5.83442e-14
0.00016786
1.99004e-11
-6.01128e-14
-2.57774e-11
5.97854e-14
0.000174771
2.00678e-11
-6.16478e-14
-2.59617e-11
6.1314e-14
0.000181812
2.02734e-11
-6.32721e-14
-2.61491e-11
6.29321e-14
0.000188976
2.04507e-11
-6.49887e-14
-2.63432e-11
6.46416e-14
0.000196255
2.06668e-11
-6.67988e-14
-2.65411e-11
6.64447e-14
0.00020364
2.08553e-11
-6.87052e-14
-2.67463e-11
6.83432e-14
0.00021112
2.1083e-11
-7.07089e-14
-2.69558e-11
7.03393e-14
0.000218685
2.12837e-11
-7.28128e-14
-2.71732e-11
7.24345e-14
0.000226323
2.15242e-11
-7.50167e-14
-2.73955e-11
7.463e-14
0.000234021
2.17384e-11
-7.73226e-14
-2.76264e-11
7.69265e-14
0.000241765
2.1993e-11
-7.97293e-14
-2.78626e-11
7.93241e-14
0.000249542
2.22217e-11
-8.22382e-14
-2.81082e-11
8.18229e-14
0.000257335
2.24915e-11
-8.48471e-14
-2.83596e-11
8.4422e-14
0.000265129
2.27363e-11
-8.75552e-14
-2.8621e-11
8.71193e-14
0.000272908
2.30225e-11
-9.03579e-14
-2.88888e-11
8.99118e-14
0.000280654
2.32842e-11
-9.32531e-14
-2.91672e-11
9.27956e-14
0.00028835
2.35879e-11
-9.62342e-14
-2.94525e-11
9.57659e-14
0.000295976
2.38676e-11
-9.9296e-14
-2.97489e-11
9.8816e-14
0.000303516
2.41897e-11
-1.0243e-13
-3.00526e-11
1.01939e-13
0.000310949
2.44882e-11
-1.0563e-13
-3.0368e-11
1.05127e-13
0.000318258
2.48295e-11
-1.08884e-13
-3.06909e-11
1.08369e-13
0.000325422
2.51474e-11
-1.12184e-13
-3.10258e-11
1.11657e-13
0.000332424
2.55084e-11
-1.15518e-13
-3.13684e-11
1.1498e-13
0.000339246
2.58463e-11
-1.18877e-13
-3.17232e-11
1.18328e-13
0.000345869
2.62273e-11
-1.22251e-13
-3.20859e-11
1.21691e-13
0.000352276
2.6585e-11
-1.2563e-13
-3.24609e-11
1.25059e-13
0.000358452
2.6986e-11
-1.29007e-13
-3.28438e-11
1.28425e-13
0.00036438
2.73639e-11
-1.32376e-13
-3.32388e-11
1.31783e-13
0.000370046
2.77849e-11
-1.35731e-13
-3.36417e-11
1.35129e-13
0.000375439
2.81824e-11
-1.39075e-13
-3.40567e-11
1.38463e-13
0.000380545
2.86231e-11
-1.42407e-13
-3.44796e-11
1.41785e-13
0.000385356
2.90405e-11
-1.45732e-13
-3.49144e-11
1.45101e-13
0.000389862
2.95011e-11
-1.49057e-13
-3.5357e-11
1.48417e-13
0.000394058
2.9938e-11
-1.52392e-13
-3.58118e-11
1.51743e-13
0.000397937
3.04184e-11
-1.55748e-13
-3.62743e-11
1.55091e-13
0.000401497
3.08754e-11
-1.59142e-13
-3.67492e-11
1.58476e-13
0.000404737
3.13763e-11
-1.62586e-13
-3.72319e-11
1.61912e-13
0.000407656
3.18538e-11
-1.661e-13
-3.77277e-11
1.65417e-13
0.000410256
3.23759e-11
-1.69698e-13
-3.82315e-11
1.69007e-13
0.000412542
3.28751e-11
-1.73402e-13
-3.87491e-11
1.72702e-13
0.000414518
3.34197e-11
-1.77226e-13
-3.92752e-11
1.76518e-13
0.00041619
3.39419e-11
-1.81195e-13
-3.98161e-11
1.80477e-13
0.000417567
3.45107e-11
-1.85319e-13
-4.03663e-11
1.84593e-13
0.000418656
3.50581e-11
-1.89625e-13
-4.09323e-11
1.88888e-13
0.000419469
3.56533e-11
-1.94122e-13
-4.15086e-11
1.93376e-13
0.000420016
3.62281e-11
-1.98836e-13
-4.21022e-11
1.98079e-13
0.000420309
3.6852e-11
-2.03774e-13
-4.27071e-11
2.03006e-13
0.000420359
3.7457e-11
-2.08967e-13
-4.33309e-11
2.08186e-13
0.00042018
3.81127e-11
-2.14414e-13
-4.39674e-11
2.13621e-13
0.000419785
3.87513e-11
-2.2015e-13
-4.46246e-11
2.19343e-13
0.000419187
3.9442e-11
-2.26172e-13
-4.52962e-11
2.25352e-13
0.000418399
4.01176e-11
-2.3252e-13
-4.59901e-11
2.31684e-13
0.000417434
4.08472e-11
-2.39181e-13
-4.67005e-11
2.3833e-13
0.000416306
4.15638e-11
-2.46206e-13
-4.74353e-11
2.45338e-13
0.000415028
4.23363e-11
-2.53574e-13
-4.81885e-11
2.5269e-13
0.000413613
4.30981e-11
-2.61346e-13
-4.89685e-11
2.60443e-13
0.000412072
4.39181e-11
-2.69488e-13
-4.97691e-11
2.68566e-13
0.000410417
4.47303e-11
-2.78078e-13
-5.0599e-11
2.77135e-13
0.00040866
4.56027e-11
-2.87064e-13
-5.14521e-11
2.861e-13
0.000406811
4.64701e-11
-2.9655e-13
-5.23371e-11
2.95562e-13
0.000404881
4.74004e-11
-3.06457e-13
-5.32481e-11
3.05446e-13
0.000402879
4.83291e-11
-3.16921e-13
-5.41938e-11
3.15885e-13
0.000400815
4.9323e-11
-3.27829e-13
-5.51686e-11
3.26767e-13
0.000398695
5.03188e-11
-3.39363e-13
-5.61813e-11
3.38272e-13
0.000396529
5.13829e-11
-3.51356e-13
-5.72264e-11
3.50237e-13
0.000394323
5.24531e-11
-3.64058e-13
-5.83127e-11
3.62907e-13
0.000392083
5.35943e-11
-3.77228e-13
-5.94352e-11
3.76046e-13
0.000389816
5.47459e-11
-3.9121e-13
-6.06024e-11
3.89993e-13
0.000387527
5.59717e-11
-4.05656e-13
-6.18101e-11
4.04405e-13
0.000385221
5.7213e-11
-4.21041e-13
-6.30663e-11
4.19751e-13
0.000382901
5.85319e-11
-4.36868e-13
-6.43674e-11
4.35541e-13
0.000380572
5.98713e-11
-4.53795e-13
-6.57212e-11
4.52425e-13
0.000378238
6.12921e-11
-4.71114e-13
-6.71248e-11
4.69702e-13
0.0003759
6.27398e-11
-4.89739e-13
-6.85858e-11
4.88281e-13
0.000373561
6.42725e-11
-5.08667e-13
-7.0102e-11
5.07163e-13
0.000371225
6.58385e-11
-5.29172e-13
-7.16805e-11
5.27617e-13
0.000368892
6.74936e-11
-5.49828e-13
-7.33201e-11
5.48223e-13
0.000366563
6.919e-11
-5.72419e-13
-7.50275e-11
5.70758e-13
0.000364241
7.09792e-11
-5.94925e-13
-7.68024e-11
5.93208e-13
0.000361927
7.28181e-11
-6.19844e-13
-7.86509e-11
6.18066e-13
0.000359621
7.4754e-11
-6.44318e-13
-8.05742e-11
6.42478e-13
0.000357323
7.67501e-11
-6.71852e-13
-8.25775e-11
6.69946e-13
0.000355036
7.88466e-11
-6.98402e-13
-8.46634e-11
6.96428e-13
0.000352758
8.10146e-11
-7.28896e-13
-8.68362e-11
7.26849e-13
0.000350492
8.32868e-11
-7.57608e-13
-8.91002e-11
7.55487e-13
0.000348238
8.56442e-11
-7.91479e-13
-9.1459e-11
7.89278e-13
0.000345995
8.81084e-11
-8.22402e-13
-9.3918e-11
8.20119e-13
0.000343766
9.06733e-11
-8.60165e-13
-9.64808e-11
8.57795e-13
0.00034155
9.33475e-11
-8.93291e-13
-9.91533e-11
8.90831e-13
0.000339349
9.61414e-11
-9.35595e-13
-1.0194e-10
9.33039e-13
0.000337164
9.9045e-11
-9.70816e-13
-1.04846e-10
9.68162e-13
0.000334994
1.0209e-10
-1.01849e-12
-1.07879e-10
1.01574e-12
0.000332842
1.05244e-10
-1.05556e-12
-1.11041e-10
1.05269e-12
0.000330708
1.08567e-10
-1.10968e-12
-1.14343e-10
1.1067e-12
0.000328592
1.11994e-10
-1.14812e-12
-1.17785e-10
1.14502e-12
0.000326497
1.15622e-10
-1.21009e-12
-1.21385e-10
1.20686e-12
0.000324423
1.19347e-10
-1.24912e-12
-1.25132e-10
1.24577e-12
0.000322372
1.23314e-10
-1.32084e-12
-1.29059e-10
1.31734e-12
0.000320345
1.27362e-10
-1.3592e-12
-1.33139e-10
1.35556e-12
0.000318344
1.31703e-10
-1.4432e-12
-1.37429e-10
1.43941e-12
0.000316371
1.36102e-10
-1.47894e-12
-1.41872e-10
1.47499e-12
0.000314429
1.40858e-10
-1.57873e-12
-1.46561e-10
1.57461e-12
0.000312519
1.45638e-10
-1.60886e-12
-1.51398e-10
1.60458e-12
0.000310643
1.50856e-10
-1.72926e-12
-1.56532e-10
1.72479e-12
0.000308805
1.56045e-10
-1.74934e-12
-1.61796e-10
1.74468e-12
0.000307008
1.61781e-10
-1.89709e-12
-1.67425e-10
1.89223e-12
0.000305253
1.67409e-10
-1.90049e-12
-1.73149e-10
1.89543e-12
0.000303544
1.73724e-10
-2.08506e-12
-1.79331e-10
2.07978e-12
0.000301885
1.79819e-10
-2.06202e-12
-1.85548e-10
2.05651e-12
0.000300277
1.86789e-10
-2.29682e-12
-1.92354e-10
2.29107e-12
0.000298725
1.93375e-10
-2.23299e-12
-1.99093e-10
2.22698e-12
0.00029723
2.0109e-10
-2.5371e-12
-2.06607e-10
2.53083e-12
0.000295796
2.08185e-10
-2.41144e-12
-2.13891e-10
2.4049e-12
0.000294424
2.16755e-10
-2.81217e-12
-2.22216e-10
2.80534e-12
0.000293115
2.24365e-10
-2.59389e-12
-2.3006e-10
2.58676e-12
0.000291869
2.33926e-10
-3.13053e-12
-2.39322e-10
3.12308e-12
0.000290686
2.42039e-10
-2.77457e-12
-2.47723e-10
2.76679e-12
0.000289563
2.52765e-10
-3.50384e-12
-2.58086e-10
3.49571e-12
0.000288498
2.6134e-10
-2.94427e-12
-2.67011e-10
2.93578e-12
0.000287486
2.73453e-10
-3.94839e-12
-2.78688e-10
3.93951e-12
0.000286523
2.82405e-10
-3.08863e-12
-2.88063e-10
3.07936e-12
0.000285604
2.962e-10
-4.4872e-12
-3.01335e-10
4.4775e-12
0.000284726
3.05374e-10
-3.18565e-12
-3.11019e-10
3.17553e-12
0.000283883
3.21245e-10
-5.15317e-12
-3.26266e-10
5.14258e-12
0.000283074
3.30383e-10
-3.20193e-12
-3.36018e-10
3.19088e-12
0.000282299
3.48873e-10
-5.99382e-12
-3.53764e-10
5.98224e-12
0.000281558
3.57565e-10
-3.08698e-12
-3.6319e-10
3.0749e-12
0.000280854
3.79416e-10
-7.07813e-12
-3.84167e-10
7.06547e-12
0.000280192
3.87023e-10
-2.76475e-12
-3.92643e-10
2.75155e-12
0.000279577
4.13297e-10
-8.50707e-12
-4.1789e-10
8.49323e-12
0.000279013
4.18832e-10
-2.12086e-12
-4.24446e-10
2.10643e-12
0.000278506
4.51047e-10
-1.04293e-11
-4.55447e-10
1.04141e-11
0.000278059
4.52996e-10
-9.83305e-13
-4.58597e-10
9.67531e-13
0.000277675
4.93325e-10
-1.30647e-11
-4.97502e-10
1.30481e-11
0.000277356
4.89239e-10
9.06641e-13
-4.94978e-10
-9.23904e-13
0.000277102
5.40765e-10
-1.67406e-11
-5.44925e-10
1.67224e-11
0.000276913
5.26945e-10
3.93863e-12
-5.33284e-10
-3.95753e-12
0.000276784
5.93449e-10
-2.19455e-11
-5.98878e-10
2.19256e-11
0.000276714
6.06447e-10
-4.3628e-12
-6.12103e-10
4.34201e-12
0.000276695
6.93219e-10
-2.89356e-11
-6.98704e-10
2.89139e-11
0.000276724
7.46376e-10
-1.77234e-11
-7.51966e-10
1.77007e-11
0.000276797
8.59872e-10
-3.78307e-11
-8.65284e-10
3.78069e-11
0.00027691
9.61016e-10
-3.36822e-11
-9.66381e-10
3.36573e-11
0.000277062
1.10719e-09
-4.87052e-11
-1.11235e-09
4.86791e-11
0.000277252
1.26456e-09
-5.24371e-11
-1.26967e-09
5.24099e-11
0.000277485
1.38137e-09
-3.89867e-11
-1.38652e-09
3.89583e-11
0.000277766
1.52919e-09
-4.92823e-11
-1.53434e-09
4.92526e-11
0.000278098
1.60832e-09
-2.64191e-11
-1.61351e-09
2.6388e-11
0.000278485
1.74571e-09
-4.57999e-11
-1.75084e-09
4.57674e-11
0.000278927
1.78337e-09
-1.25874e-11
-1.78857e-09
1.25536e-11
0.000279426
1.91053e-09
-4.2447e-11
-1.91578e-09
4.24116e-11
0.000279983
1.90391e-09
2.13627e-12
-1.9094e-09
-2.17313e-12
0.000280595
2.02415e-09
-3.98623e-11
-2.02877e-09
3.98238e-11
0.000281257
2.03005e-09
-2.55964e-12
-2.03654e-09
2.51968e-12
0.000281963
2.14603e-09
-3.81268e-11
-2.15061e-09
3.80848e-11
0.000282694
2.16783e-09
-7.83949e-12
-2.17429e-09
7.79589e-12
0.000283433
2.28073e-09
-3.71562e-11
-2.28537e-09
3.71105e-11
0.000284156
2.31739e-09
-1.27338e-11
-2.32376e-09
1.26862e-11
0.000284834
2.42929e-09
-3.68696e-11
-2.43392e-09
3.68198e-11
0.000285439
2.47992e-09
-1.73356e-11
-2.48615e-09
1.72838e-11
0.00028594
2.59267e-09
-3.71994e-11
-2.59725e-09
3.71453e-11
0.000286313
2.65662e-09
-2.17262e-11
-2.66266e-09
2.16699e-11
0.000286538
2.77189e-09
-3.80897e-11
-2.77639e-09
3.80309e-11
0.00028661
2.84872e-09
-2.59777e-11
-2.85455e-09
2.59166e-11
0.000286523
2.96808e-09
-3.9494e-11
-2.97247e-09
3.94302e-11
0.000286276
3.05755e-09
-3.01549e-11
-3.06314e-09
3.00887e-11
0.000285864
3.18242e-09
-4.13735e-11
-3.18669e-09
4.13045e-11
0.000285272
3.28447e-09
-3.43165e-11
-3.28982e-09
3.42448e-11
0.000284483
3.4162e-09
-4.36971e-11
-3.42033e-09
4.36224e-11
0.000283475
3.53093e-09
-3.85159e-11
-3.53603e-09
3.84383e-11
0.000282223
3.6708e-09
-4.64418e-11
-3.67477e-09
4.63611e-11
0.000280704
3.79846e-09
-4.28031e-11
-3.80329e-09
4.27194e-11
0.000278896
3.94769e-09
-4.95933e-11
-3.95149e-09
4.95063e-11
0.000276772
4.08869e-09
-4.72269e-11
-4.09324e-09
4.71367e-11
0.000274314
4.24849e-09
-5.31472e-11
-4.2521e-09
5.30535e-11
0.000271514
4.40339e-09
-5.18394e-11
-4.40765e-09
5.17422e-11
0.000268379
4.575e-09
-5.71093e-11
-4.57841e-09
5.70084e-11
0.000264934
4.7445e-09
-5.66898e-11
-4.74846e-09
5.65851e-11
0.000261217
4.92919e-09
-6.14936e-11
-4.93237e-09
6.1385e-11
0.000257266
5.11414e-09
-6.1826e-11
-5.11779e-09
6.17134e-11
0.000253108
5.31325e-09
-6.63193e-11
-5.31619e-09
6.62026e-11
0.000248755
5.51466e-09
-6.73019e-11
-5.51798e-09
6.71808e-11
0.000244193
5.72958e-09
-7.16096e-11
-5.73226e-09
7.14841e-11
0.000239383
5.94863e-09
-7.31672e-11
-5.9516e-09
7.30371e-11
0.000234282
6.18085e-09
-7.7395e-11
-6.18324e-09
7.72601e-11
0.000228861
6.41885e-09
-7.94767e-11
-6.42145e-09
7.93368e-11
0.000223121
6.66998e-09
-8.37175e-11
-6.67206e-09
8.35726e-11
0.000217083
6.92845e-09
-8.62928e-11
-6.93068e-09
8.61425e-11
0.000210776
7.20027e-09
-9.06294e-11
-7.20202e-09
9.04736e-11
0.000204228
7.48093e-09
-9.36824e-11
-7.48275e-09
9.35208e-11
0.000197463
7.77538e-09
-9.81875e-11
-7.77677e-09
9.802e-11
0.000190517
8.08015e-09
-1.01713e-10
-8.08154e-09
1.01539e-10
0.000183435
8.39934e-09
-1.0645e-10
-8.40034e-09
1.0627e-10
0.000176274
8.73033e-09
-1.10448e-10
-8.73126e-09
1.10261e-10
0.000169085
9.07653e-09
-1.1547e-10
-9.07711e-09
1.15276e-10
0.000161881
9.43602e-09
-1.19944e-10
-9.43646e-09
1.19743e-10
0.000154636
9.81164e-09
-1.25294e-10
-9.81178e-09
1.25085e-10
0.000147278
1.02021e-08
-1.30252e-10
-1.0202e-08
1.30035e-10
0.000139703
1.06097e-08
-1.3597e-10
-1.06093e-08
1.35745e-10
0.000131802
1.10336e-08
-1.4143e-10
-1.1033e-08
1.41196e-10
0.000123476
1.1476e-08
-1.47568e-10
-1.14751e-08
1.47326e-10
0.000114634
1.19364e-08
-1.53566e-10
-1.19351e-08
1.53315e-10
0.000105198
1.24165e-08
-1.6019e-10
-1.24151e-08
1.59928e-10
9.51679e-05
1.29166e-08
-1.66783e-10
-1.29147e-08
1.66512e-10
8.46553e-05
1.3438e-08
-1.73971e-10
-1.3436e-08
1.73689e-10
7.38732e-05
1.39814e-08
-1.81223e-10
-1.39788e-08
1.8093e-10
6.30729e-05
1.4548e-08
-1.89041e-10
-1.45453e-08
1.88736e-10
5.24858e-05
1.51387e-08
-1.9699e-10
-1.51353e-08
1.96673e-10
4.23224e-05
1.57544e-08
-2.05464e-10
-1.57511e-08
2.05134e-10
3.27397e-05
1.63965e-08
-2.14103e-10
-1.63923e-08
2.1376e-10
2.37379e-05
1.70654e-08
-2.23214e-10
-1.70613e-08
2.22856e-10
1.51078e-05
1.77628e-08
-2.32507e-10
-1.77576e-08
2.32135e-10
6.53037e-06
1.84886e-08
-2.4222e-10
-1.84837e-08
2.41832e-10
-2.23703e-06
1.92447e-08
-2.52112e-10
-1.92386e-08
2.5171e-10
-1.11856e-05
2.00311e-08
-2.62429e-10
-2.00253e-08
2.62009e-10
-2.00731e-05
2.08509e-08
-2.73322e-10
-2.08438e-08
2.72886e-10
-2.85673e-05
2.1704e-08
-2.84707e-10
-2.16973e-08
2.84252e-10
-3.63974e-05
2.25942e-08
-2.9677e-10
-2.25859e-08
2.96298e-10
-4.34002e-05
2.35209e-08
-3.09272e-10
-2.35131e-08
3.08781e-10
-4.94834e-05
2.44884e-08
-3.22528e-10
-2.44789e-08
3.22018e-10
-5.47056e-05
2.54954e-08
-3.36113e-10
-2.54866e-08
3.35582e-10
-5.92822e-05
2.6547e-08
-3.50543e-10
-2.65362e-08
3.49993e-10
-6.34671e-05
2.76411e-08
-3.6516e-10
-2.76311e-08
3.64588e-10
-6.74845e-05
2.87834e-08
-3.8078e-10
-2.87712e-08
3.80189e-10
-7.15492e-05
2.99711e-08
-3.96427e-10
-2.99599e-08
3.95812e-10
-7.59177e-05
3.12112e-08
-4.13333e-10
-3.11975e-08
4.12698e-10
-8.09053e-05
3.24997e-08
-4.30087e-10
-3.24872e-08
4.29427e-10
-8.68224e-05
3.38454e-08
-4.48518e-10
-3.38302e-08
4.47838e-10
-9.39303e-05
3.52433e-08
-4.6662e-10
-3.52295e-08
4.65915e-10
-0.000102416
3.67048e-08
-4.87096e-10
-3.66879e-08
4.86369e-10
-0.000112349
3.82238e-08
-5.07062e-10
-3.82086e-08
5.06308e-10
-0.000123775
3.98156e-08
-5.30489e-10
-3.9797e-08
5.29713e-10
-0.000136787
4.14727e-08
-5.53145e-10
-4.14559e-08
5.52341e-10
-0.000151348
4.3216e-08
-5.80923e-10
-4.31952e-08
5.80095e-10
-0.000167232
4.50358e-08
-6.07436e-10
-4.5017e-08
6.06578e-10
-0.000184218
4.6961e-08
-6.41529e-10
-4.69377e-08
6.40647e-10
-0.000202276
4.89781e-08
-6.73245e-10
-4.89569e-08
6.72329e-10
-0.000221563
5.1128e-08
-7.16288e-10
-5.11013e-08
7.15345e-10
-0.000242151
5.33899e-08
-7.54818e-10
-5.3365e-08
7.5384e-10
-0.000263773
5.58236e-08
-8.10749e-10
-5.5792e-08
8.09743e-10
-0.00028586
5.83948e-08
-8.57955e-10
-5.8365e-08
8.56912e-10
-0.000307752
6.11937e-08
-9.32279e-10
-6.11556e-08
9.31206e-10
-0.000328951
6.41585e-08
-9.89127e-10
-6.4122e-08
9.88014e-10
-0.000348957
6.7428e-08
-1.08906e-09
-6.73822e-08
1.08791e-09
-0.000366888
7.08877e-08
-1.15417e-09
-7.08437e-08
1.15298e-09
-0.000381676
7.47589e-08
-1.28956e-09
-7.47047e-08
1.28833e-09
-0.000392734
7.88255e-08
-1.35656e-09
-7.87735e-08
1.35527e-09
-0.000400407
8.34522e-08
-1.54148e-09
-8.33897e-08
1.54015e-09
-0.000405882
8.82372e-08
-1.59621e-09
-8.81778e-08
1.59483e-09
-0.000410657
9.38028e-08
-1.85468e-09
-9.37333e-08
1.85325e-09
-0.000415862
9.94156e-08
-1.87228e-09
-9.935e-08
1.87078e-09
-0.000421681
1.06162e-07
-2.24839e-09
-1.06086e-07
2.24684e-09
-0.000427466
1.12706e-07
-2.18295e-09
-1.12636e-07
2.18132e-09
-0.000432287
1.20973e-07
-2.75583e-09
-1.20894e-07
2.75414e-09
-0.000435284
1.28522e-07
-2.51771e-09
-1.28447e-07
2.51595e-09
-0.000435851
1.38799e-07
-3.42658e-09
-1.38712e-07
3.42477e-09
-0.000433803
1.47337e-07
-2.8463e-09
-1.47249e-07
2.84444e-09
-0.000429424
1.60346e-07
-4.33644e-09
-1.60239e-07
4.33455e-09
-0.000423007
1.69673e-07
-3.10725e-09
-1.69564e-07
3.1053e-09
-0.000414155
1.8648e-07
-5.60894e-09
-1.8638e-07
5.60691e-09
-0.000402167
1.96002e-07
-3.18924e-09
-1.95966e-07
3.18704e-09
-0.00038725
2.183e-07
-7.44089e-09
-2.18262e-07
7.43835e-09
-0.000370377
2.27078e-07
-2.89922e-09
-2.26923e-07
2.89639e-09
-0.000353018
2.58131e-07
-1.01367e-08
-2.57213e-07
1.01334e-08
-0.000336717
2.64198e-07
-1.92293e-09
-2.62866e-07
1.91987e-09
-0.000322334
2.95274e-07
-1.03897e-08
-2.94024e-07
1.03872e-08
-0.000309654
2.94749e-07
3.95133e-11
-2.94117e-07
-4.09982e-11
-0.000298212
3.12991e-07
-6.95904e-09
-3.15372e-07
6.95848e-09
-0.0002885
3.0144e-07
3.17624e-09
-3.06103e-07
-3.17742e-09
-0.000281471
3.10127e-07
-2.09813e-09
-3.12255e-07
2.09488e-09
-0.000276942
2.65282e-07
1.57594e-08
-2.64676e-07
-1.57572e-08
-0.000273372
2.27711e-07
1.25125e-08
-2.26907e-07
-1.25106e-08
-0.000269512
1.58647e-07
2.29981e-08
-1.57861e-07
-2.29955e-08
-0.000266427
9.32772e-08
2.1702e-08
-9.27871e-08
-2.16989e-08
-0.000266195
3.23234e-08
-3.81848e-09
-3.23197e-08
4.10331e-09
7.11849e-07
-3.51291e-12
3.52348e-12
2.17561e-06
-8.81055e-12
8.82042e-12
3.70164e-06
-1.31761e-11
1.31733e-11
5.29192e-06
-1.58078e-11
1.57882e-11
6.94847e-06
-1.72631e-11
1.72368e-11
8.67337e-06
-1.8153e-11
1.81244e-11
1.04688e-05
-1.87678e-11
1.87367e-11
1.23371e-05
-1.92313e-11
1.91996e-11
1.42808e-05
-1.96045e-11
1.95716e-11
1.63023e-05
-1.99176e-11
1.98846e-11
1.84045e-05
-2.01901e-11
2.01563e-11
2.05901e-05
-2.04321e-11
2.03984e-11
2.28621e-05
-2.06523e-11
2.06179e-11
2.52237e-05
-2.08547e-11
2.08204e-11
2.7678e-05
-2.10441e-11
2.10093e-11
3.02285e-05
-2.12223e-11
2.11876e-11
3.28784e-05
-2.13922e-11
2.13571e-11
3.56314e-05
-2.15548e-11
2.15198e-11
3.84912e-05
-2.1712e-11
2.16766e-11
4.14613e-05
-2.18642e-11
2.1829e-11
4.45457e-05
-2.20131e-11
2.19775e-11
4.77479e-05
-2.21586e-11
2.21231e-11
5.1072e-05
-2.23021e-11
2.22663e-11
5.45217e-05
-2.24433e-11
2.24077e-11
5.81007e-05
-2.25836e-11
2.25477e-11
6.18128e-05
-2.27226e-11
2.26869e-11
6.56617e-05
-2.28615e-11
2.28254e-11
6.96509e-05
-2.29997e-11
2.29639e-11
7.37838e-05
-2.31385e-11
2.31024e-11
7.80635e-05
-2.32772e-11
2.32414e-11
8.24931e-05
-2.34171e-11
2.33809e-11
8.70754e-05
-2.35575e-11
2.35216e-11
9.18127e-05
-2.36995e-11
2.36634e-11
9.67073e-05
-2.38426e-11
2.38067e-11
0.000101761
-2.39878e-11
2.39516e-11
0.000106975
-2.41345e-11
2.40986e-11
0.00011235
-2.42837e-11
2.42475e-11
0.000117887
-2.4435e-11
2.43991e-11
0.000123585
-2.45892e-11
2.4553e-11
0.000129445
-2.47459e-11
2.471e-11
0.000135464
-2.4906e-11
2.48699e-11
0.00014164
-2.50691e-11
2.50333e-11
0.000147972
-2.52361e-11
2.52e-11
0.000154455
-2.54066e-11
2.53707e-11
0.000161086
-2.55814e-11
2.55453e-11
0.00016786
-2.57602e-11
2.57244e-11
0.000174771
-2.59438e-11
2.59078e-11
0.000181812
-2.6132e-11
2.60963e-11
0.000188976
-2.63256e-11
2.62896e-11
0.000196255
-2.65242e-11
2.64886e-11
0.00020364
-2.67288e-11
2.6693e-11
0.00021112
-2.69391e-11
2.69035e-11
0.000218685
-2.71559e-11
2.71201e-11
0.000226323
-2.73789e-11
2.73435e-11
0.000234021
-2.76091e-11
2.75734e-11
0.000241765
-2.78461e-11
2.78109e-11
0.000249542
-2.80909e-11
2.80554e-11
0.000257335
-2.83431e-11
2.83081e-11
0.000265129
-2.86036e-11
2.85684e-11
0.000272908
-2.88722e-11
2.88375e-11
0.000280654
-2.91496e-11
2.91147e-11
0.00028835
-2.94357e-11
2.94013e-11
0.000295976
-2.97311e-11
2.96964e-11
0.000303516
-3.00356e-11
3.00014e-11
0.000310949
-3.03499e-11
3.03153e-11
0.000318258
-3.06736e-11
3.06395e-11
0.000325422
-3.10075e-11
3.09729e-11
0.000332424
-3.13509e-11
3.13168e-11
0.000339246
-3.17046e-11
3.16701e-11
0.000345869
-3.20681e-11
3.2034e-11
0.000352276
-3.24422e-11
3.24073e-11
0.000358452
-3.2826e-11
3.27911e-11
0.00036438
-3.32202e-11
3.31846e-11
0.000370046
-3.36242e-11
3.35883e-11
0.000375439
-3.40387e-11
3.40016e-11
0.000380545
-3.44626e-11
3.44251e-11
0.000385356
-3.48969e-11
3.48582e-11
0.000389862
-3.53406e-11
3.53013e-11
0.000394058
-3.57956e-11
3.57541e-11
0.000397937
-3.62592e-11
3.6217e-11
0.000401497
-3.67346e-11
3.66897e-11
0.000404737
-3.72185e-11
3.71731e-11
0.000407656
-3.77154e-11
3.76663e-11
0.000410257
-3.82204e-11
3.81708e-11
0.000412542
-3.87391e-11
3.86856e-11
0.000414518
-3.92663e-11
3.92125e-11
0.00041619
-3.98094e-11
3.97503e-11
0.000417567
-4.03605e-11
4.03012e-11
0.000418656
-4.0929e-11
4.0864e-11
0.000419469
-4.1506e-11
4.14412e-11
0.000420016
-4.2103e-11
4.20312e-11
0.000420309
-4.27085e-11
4.26371e-11
0.000420359
-4.33357e-11
4.32572e-11
0.00042018
-4.39726e-11
4.38949e-11
0.000419785
-4.46342e-11
4.45481e-11
0.000419187
-4.53059e-11
4.52208e-11
0.000418399
-4.60045e-11
4.59109e-11
0.000417434
-4.67146e-11
4.66223e-11
0.000416306
-4.7455e-11
4.7353e-11
0.000415028
-4.82077e-11
4.81073e-11
0.000413613
-4.89932e-11
4.88832e-11
0.000412072
-4.97929e-11
4.9685e-11
0.000410417
-5.06293e-11
5.05107e-11
0.00040866
-5.14811e-11
5.13648e-11
0.000406811
-5.23727e-11
5.22456e-11
0.000404881
-5.32819e-11
5.31576e-11
0.00040288
-5.4235e-11
5.40991e-11
0.000400815
-5.52077e-11
5.50748e-11
0.000398695
-5.62278e-11
5.60835e-11
0.000396529
-5.72702e-11
5.71293e-11
0.000394323
-5.83647e-11
5.82116e-11
0.000392083
-5.94842e-11
5.93346e-11
0.000389816
-6.06597e-11
6.04982e-11
0.000387527
-6.18637e-11
6.17058e-11
0.000385221
-6.31288e-11
6.29586e-11
0.000382901
-6.44259e-11
6.42591e-11
0.000380572
-6.57887e-11
6.561e-11
0.000378238
-6.71878e-11
6.70127e-11
0.0003759
-6.86583e-11
6.84711e-11
0.000373562
-7.01696e-11
6.99855e-11
0.000371225
-7.17576e-11
7.15622e-11
0.000368892
-7.3392e-11
7.31992e-11
0.000366564
-7.51092e-11
7.49056e-11
0.000364242
-7.68785e-11
7.66766e-11
0.000361927
-7.8737e-11
7.85255e-11
0.000359621
-8.06543e-11
8.04433e-11
0.000357323
-8.26678e-11
8.24486e-11
0.000355036
-8.47474e-11
8.45269e-11
0.000352759
-8.69305e-11
8.6704e-11
0.000350492
-8.91879e-11
8.8958e-11
0.000348238
-9.15572e-11
9.13238e-11
0.000345995
-9.40094e-11
9.37698e-11
0.000343766
-9.65828e-11
9.6343e-11
0.000341551
-9.92483e-11
9.89989e-11
0.00033935
-1.02046e-10
1.018e-10
0.000337164
-1.04945e-10
1.04685e-10
0.000334995
-1.07988e-10
1.07738e-10
0.000332842
-1.11143e-10
1.10873e-10
0.000330708
-1.14456e-10
1.14202e-10
0.000328593
-1.1789e-10
1.17611e-10
0.000326497
-1.21501e-10
1.21245e-10
0.000324423
-1.2524e-10
1.24951e-10
0.000322372
-1.29179e-10
1.28922e-10
0.000320345
-1.33251e-10
1.32951e-10
0.000318344
-1.37551e-10
1.37296e-10
0.000316372
-1.41987e-10
1.41677e-10
0.000314429
-1.46687e-10
1.46436e-10
0.000312519
-1.51517e-10
1.51196e-10
0.000310643
-1.56661e-10
1.56417e-10
0.000308806
-1.61918e-10
1.61586e-10
0.000307008
-1.67558e-10
1.67323e-10
0.000305253
-1.73274e-10
1.7293e-10
0.000303545
-1.79468e-10
1.79246e-10
0.000301885
-1.85677e-10
1.8532e-10
0.000300278
-1.92494e-10
1.92289e-10
0.000298725
-1.99226e-10
1.98853e-10
0.00029723
-2.06751e-10
2.06567e-10
0.000295796
-2.14028e-10
2.1364e-10
0.000294424
-2.22364e-10
2.22206e-10
0.000293115
-2.30201e-10
2.29794e-10
0.000291869
-2.39475e-10
2.39351e-10
0.000290686
-2.47868e-10
2.4744e-10
0.000289563
-2.58243e-10
2.5816e-10
0.000288498
-2.67162e-10
2.66711e-10
0.000287486
-2.7885e-10
2.78817e-10
0.000286523
-2.88219e-10
2.87743e-10
0.000285605
-3.01502e-10
3.01529e-10
0.000284726
-3.11181e-10
3.10676e-10
0.000283883
-3.26439e-10
3.26538e-10
0.000283075
-3.36186e-10
3.35648e-10
0.000282299
-3.53943e-10
3.54125e-10
0.000281558
-3.63364e-10
3.62788e-10
0.000280854
-3.84353e-10
3.84624e-10
0.000280193
-3.92824e-10
3.92198e-10
0.000279577
-4.18082e-10
4.18453e-10
0.000279014
-4.24635e-10
4.23953e-10
0.000278507
-4.55648e-10
4.56141e-10
0.00027806
-4.58796e-10
4.58047e-10
0.000277676
-4.97712e-10
4.98339e-10
0.000277356
-4.95186e-10
4.94207e-10
0.000277103
-5.45145e-10
5.45728e-10
0.000276913
-5.33503e-10
5.32001e-10
0.000276785
-5.99108e-10
5.98505e-10
0.000276714
-6.12332e-10
6.11441e-10
0.000276695
-6.98946e-10
6.98175e-10
0.000276724
-7.52208e-10
7.51258e-10
0.000276797
-8.65538e-10
8.647e-10
0.000276911
-9.66637e-10
9.65734e-10
0.000277063
-1.11262e-09
1.11183e-09
0.000277253
-1.26995e-09
1.26912e-09
0.000277486
-1.3868e-09
1.38593e-09
0.000277767
-1.53463e-09
1.53372e-09
0.000278098
-1.61382e-09
1.61283e-09
0.000278485
-1.75115e-09
1.75016e-09
0.000278928
-1.78889e-09
1.78778e-09
0.000279427
-1.91611e-09
1.91487e-09
0.000279984
-1.90974e-09
1.90822e-09
0.000280595
-2.02912e-09
2.02838e-09
0.000281258
-2.03691e-09
2.03414e-09
0.000281963
-2.15099e-09
2.15003e-09
0.000282695
-2.17468e-09
2.17176e-09
0.000283434
-2.28577e-09
2.28458e-09
0.000284157
-2.32419e-09
2.32116e-09
0.000284835
-2.43436e-09
2.43298e-09
0.000285439
-2.48661e-09
2.48353e-09
0.000285941
-2.59773e-09
2.59618e-09
0.000286314
-2.66315e-09
2.66004e-09
0.000286539
-2.77691e-09
2.77522e-09
0.00028661
-2.85509e-09
2.85195e-09
0.000286524
-2.97303e-09
2.9712e-09
0.000286277
-3.06373e-09
3.06056e-09
0.000285864
-3.1873e-09
3.18532e-09
0.000285273
-3.29046e-09
3.28725e-09
0.000284484
-3.42099e-09
3.41886e-09
0.000283476
-3.53672e-09
3.53346e-09
0.000282224
-3.67549e-09
3.67319e-09
0.000280705
-3.80404e-09
3.80072e-09
0.000278897
-3.95227e-09
3.9498e-09
0.000276773
-4.09406e-09
4.09066e-09
0.000274315
-4.25296e-09
4.25031e-09
0.000271515
-4.40855e-09
4.40505e-09
0.000268379
-4.57934e-09
4.57649e-09
0.000264935
-4.74944e-09
4.74583e-09
0.000261218
-4.9334e-09
4.93034e-09
0.000257266
-5.11886e-09
5.11511e-09
0.000253109
-5.3173e-09
5.31403e-09
0.000248755
-5.51915e-09
5.51525e-09
0.000244193
-5.73348e-09
5.72997e-09
0.000239383
-5.95287e-09
5.9488e-09
0.000234282
-6.18457e-09
6.1808e-09
0.000228861
-6.42285e-09
6.41858e-09
0.000223121
-6.67352e-09
6.66948e-09
0.000217083
-6.9322e-09
6.92771e-09
0.000210776
-7.20361e-09
7.19929e-09
0.000204227
-7.48441e-09
7.47969e-09
0.000197463
-7.7785e-09
7.77387e-09
0.000190516
-8.08335e-09
8.07836e-09
0.000183434
-8.40223e-09
8.39726e-09
0.000176273
-8.73323e-09
8.72795e-09
0.000169083
-9.07918e-09
9.07384e-09
0.000161879
-9.43861e-09
9.43301e-09
0.000154634
-9.81403e-09
9.8083e-09
0.000147275
-1.02043e-08
1.01984e-08
0.000139701
-1.06118e-08
1.06056e-08
0.000131799
-1.10355e-08
1.10292e-08
0.000123473
-1.14778e-08
1.14712e-08
0.00011463
-1.19379e-08
1.19312e-08
0.000105194
-1.2418e-08
1.24109e-08
9.51641e-05
-1.29177e-08
1.29105e-08
8.46513e-05
-1.34391e-08
1.34315e-08
7.3869e-05
-1.39821e-08
1.39744e-08
6.30686e-05
-1.45487e-08
1.45405e-08
5.24813e-05
-1.51389e-08
1.51307e-08
4.23178e-05
-1.57548e-08
1.57459e-08
3.27351e-05
-1.63962e-08
1.63875e-08
2.37333e-05