/*--------------------------------*- C++ -*----------------------------------*\
| =========                 |                                                 |
| \\      /  F ield         | OpenFOAM: The Open Source CFD Toolbox           |
|  \\    /   O peration     | Version:  2106                                  |
|   \\  /    A nd           | Website:  www.openfoam.com                      |
|    \\/     M anipulation  |                                                 |
\*---------------------------------------------------------------------------*/
FoamFile
{
    version     2.0;
    format      ascii;
    arch        "LSB;label=32;scalar=64";
    class       volTensorField;
    location    "10000";
    object      grad(U);
}
// * * * * * * * * * * * * * * * * * * * * * * * * * * * * * * * * * * * * * //

dimensions      [0 0 -1 0 0 0 0];

internalField   nonuniform List<tensor> 
2560
(
(0 -6.10919e-25 0 92.9043 0 4.40808e-13 0.13449 0 2.38685e-16)
(0 -1.19683e-28 1.56724e-26 92.9043 -2.29487e-41 5.15206e-13 0.13449 -9.45376e-45 3.29591e-16)
(0 2.04911e-30 0 92.8924 -4.7578e-12 2.54704e-13 0.405391 -5.27659e-15 8.14383e-16)
(-7.20966e-17 -1.02455e-30 5.3595e-31 92.8924 7.65782e-16 5.50706e-14 0.405391 3.62691e-19 1.61751e-16)
(-1.70243e-17 -2.56084e-25 -5.04935e-31 92.8798 8.07853e-28 2.24379e-14 0.557522 0 8.40786e-16)
(0 1.61579e-29 5.04935e-31 92.8798 3.97021e-15 2.75324e-14 0.557522 1.21237e-17 1.66454e-16)
(5.45985e-17 -7.96317e-30 0 92.8654 1.91052e-12 2.29876e-14 0.565532 -2.14493e-14 8.70618e-16)
(0 7.96317e-30 0 92.8654 3.03633e-15 2.79082e-14 0.565532 1.70235e-17 1.71065e-16)
(1.38082e-16 -2.35471e-29 0 92.8459 -8.42621e-14 2.24041e-14 0.573614 -6.21043e-16 8.99359e-16)
(0 1.56981e-29 0 92.8459 2.7733e-15 2.82351e-14 0.573614 1.70008e-17 1.75371e-16)
(4.03603e-16 -1.07129e-29 4.83534e-31 92.8149 -7.00562e-14 2.2358e-14 0.581709 -2.48254e-16 9.28179e-16)
(1.05118e-15 7.75605e-30 1.20593e-30 92.8149 2.91621e-15 2.8456e-14 0.581709 1.93139e-17 1.78846e-16)
(-1.7065e-16 -6.01952e-28 0 92.7599 -8.14789e-15 2.24035e-14 0.589718 -2.57228e-17 9.5759e-16)
(6.82602e-16 7.63895e-30 6.2214e-31 92.7599 3.20104e-15 2.849e-14 0.589718 2.11218e-17 1.80941e-16)
(-2.10494e-16 1.05283e-29 0 92.6612 -5.64394e-15 2.2242e-14 0.597475 -4.67368e-17 9.8746e-16)
(5.77517e-16 -3.73869e-30 1.73069e-31 92.6612 3.24596e-15 2.8232e-14 0.597475 2.04594e-17 1.80754e-16)
(2.50944e-16 -1.04173e-29 4.63039e-31 92.4889 -9.32859e-15 2.17475e-14 0.604737 -7.47172e-17 1.01739e-15)
(0 7.40863e-30 4.63039e-31 92.4889 3.2734e-15 2.75408e-14 0.604737 2.20997e-17 1.77192e-16)
(0 1.09537e-29 4.56403e-31 92.2022 -1.15577e-14 2.08226e-14 0.611169 -7.7715e-17 1.04688e-15)
(-1.02773e-15 -7.30244e-30 -4.56403e-31 92.2022 3.45584e-15 2.6253e-14 0.611169 2.3482e-17 1.68944e-16)
(-3.33703e-16 -4.18579e-30 -4.49861e-31 91.7494 -1.13651e-14 1.93542e-14 0.61635 -7.43105e-17 1.07527e-15)
(0 7.19778e-30 4.49861e-31 91.7494 3.4064e-15 2.4226e-14 0.61635 2.20808e-17 1.55067e-16)
(3.75993e-16 -2.42975e-29 -4.43414e-31 91.0704 -1.08868e-14 1.72481e-14 0.61979 -7.34518e-17 1.10164e-15)
(0 1.77365e-29 4.43414e-31 91.0704 3.11159e-15 2.1342e-14 0.61979 2.01393e-17 1.34464e-16)
(4.92084e-16 -1.04894e-29 0 90.1026 -1.09926e-14 1.44671e-14 0.620981 -7.7955e-17 1.12503e-15)
(0 1.04894e-29 4.37058e-31 90.1026 3.23062e-15 1.75442e-14 0.620981 2.43787e-17 1.06931e-16)
(-4.62136e-16 1.33544e-29 4.30794e-31 88.7887 -1.13417e-14 1.10567e-14 0.619455 -8.05155e-17 1.14438e-15)
(1.84854e-15 -6.84233e-30 3.77682e-31 88.7887 3.72042e-15 1.2912e-14 0.619455 2.76219e-17 7.32168e-17)
(0 1.01909e-29 4.2462e-31 87.0866 -1.1146e-14 7.15741e-15 0.61487 -7.74456e-17 1.1587e-15)
(0 -1.01909e-29 -4.2462e-31 87.0866 3.82929e-15 7.64658e-15 0.61487 2.66472e-17 3.48887e-17)
(-5.49503e-16 3.01946e-30 0 84.9785 -1.04265e-14 2.99544e-15 0.607067 -7.24525e-17 1.16724e-15)
(2.19801e-15 6.84358e-32 0 84.9785 3.27674e-15 -5.99265e-29 0.607067 2.04275e-17 -1.97215e-31)
(0 1.65014e-29 0 82.476 -1.0585e-14 -1.15802e-15 0.596108 -8.2043e-17 1.16961e-15)
(-2.37259e-15 -1.65767e-29 -2.9722e-28 82.476 2.84754e-15 -1.57251e-15 0.596108 2.11207e-17 5.73538e-18)
(-9.15633e-16 1.62649e-29 0 79.6202 -1.21529e-14 -5.03573e-15 0.582273 -9.79501e-17 1.16581e-15)
(-1.63009e-15 -1.63381e-29 -8.31664e-31 79.6202 3.86423e-15 -8.69129e-15 0.582273 3.61835e-17 4.59041e-17)
(9.02509e-16 -9.61907e-30 8.01589e-31 76.4764 -1.31123e-14 -8.41448e-15 0.566016 -9.89573e-17 1.15629e-15)
(0 9.61907e-30 0 76.4764 4.63495e-15 -1.31622e-14 0.566016 3.3397e-17 8.30058e-17)
(7.20881e-16 1.27783e-29 0 73.1245 -1.23436e-14 -1.11449e-14 0.547894 -8.90236e-17 1.1418e-15)
(-2.88352e-15 -1.90539e-29 -7.71935e-31 73.1245 4.22006e-15 -1.67605e-14 0.547894 3.08767e-17 1.14874e-16)
(0 1.55755e-29 7.78776e-31 69.6496 -1.16121e-14 -1.31664e-14 0.528496 -9.04676e-17 1.1234e-15)
(0 -1.55755e-29 -7.78776e-31 69.6496 4.13572e-15 -1.94206e-14 0.528496 3.30623e-17 1.40655e-16)
(-8.01054e-16 3.02534e-30 0 66.1319 -1.19896e-14 -1.45032e-14 0.508382 -9.75946e-17 1.10207e-15)
(0 3.07046e-30 7.67614e-31 66.1319 3.99112e-15 -2.11526e-14 0.508382 2.94973e-17 1.59655e-16)
(1.27171e-17 -2.72358e-29 0 62.6412 -1.16223e-14 -1.52317e-14 0.48804 -8.7231e-17 1.07881e-15)
(0 3.02645e-29 7.56613e-31 62.6412 3.12431e-15 -2.20551e-14 0.48804 2.01404e-17 1.72132e-16)
(0 1.78984e-29 3.72884e-31 59.2333 -1.00039e-14 -1.54509e-14 0.467868 -7.41419e-17 1.0544e-15)
(-3.50327e-15 -2.10059e-29 -1.03759e-30 59.2333 2.50343e-15 -2.22747e-14 0.467868 2.02671e-17 1.78793e-16)
(9.11015e-16 2.04886e-29 3.6754e-31 55.9494 -9.24717e-15 -1.52694e-14 0.44817 -7.7305e-17 1.02955e-15)
(0 -2.35225e-29 -3.6754e-31 55.9494 2.16242e-15 -2.19703e-14 0.44817 1.51057e-17 1.80745e-16)
(-1.8895e-15 2.6362e-29 7.24544e-31 52.8174 -8.56256e-15 -1.47895e-14 0.429162 -6.48574e-17 1.0049e-15)
(0 -2.02872e-29 -7.24544e-31 52.8174 1.63807e-15 -2.12924e-14 0.429162 1.20863e-17 1.79011e-16)
(4.5393e-15 -4.05414e-29 0 49.8538 -7.32753e-15 -1.41035e-14 0.410986 -5.8602e-17 9.80942e-16)
(6.20828e-15 3.45621e-29 1.57329e-30 49.8538 2.12455e-15 -2.03548e-14 0.410986 2.38074e-17 1.74694e-16)
(-1.5851e-15 -2.25256e-29 0 47.0666 -6.95271e-15 -1.32902e-14 0.393725 -6.03014e-17 9.58021e-16)
(4.03187e-15 2.26735e-29 5.93158e-31 47.0666 2.73568e-15 -1.92529e-14 0.393725 2.29666e-17 1.68338e-16)
(1.03755e-15 5.28417e-30 6.93835e-31 44.4565 -6.92174e-15 -1.24051e-14 0.377416 -5.97773e-17 9.36304e-16)
(0 -5.55068e-30 -6.93835e-31 44.4565 1.88263e-15 -1.80325e-14 0.377416 9.59787e-18 1.60832e-16)
(-2.13174e-15 1.1555e-29 0 42.0201 -7.2351e-15 -1.14871e-14 0.362064 -6.76233e-17 9.15821e-16)
(-8.52695e-15 -5.80092e-30 -1.13573e-30 42.0201 1.30074e-15 -1.67493e-14 0.362064 1.33232e-17 1.51942e-16)
(-1.09299e-15 8.43689e-30 0 39.7505 -7.21056e-15 -1.05689e-14 0.34765 -6.1087e-17 8.96686e-16)
(-5.88988e-15 -1.65327e-31 -8.94451e-31 39.7505 1.7825e-15 -1.54841e-14 0.34765 1.85443e-17 1.42795e-16)
(0 2.39194e-29 0 37.6391 -6.38825e-15 -9.67275e-15 0.33414 -5.45987e-17 8.78995e-16)
(-4.47596e-15 -2.40875e-29 -5.48073e-31 37.6391 2.26403e-15 -1.42839e-14 0.33414 2.25005e-17 1.33636e-16)
(0 -2.09569e-29 -3.27452e-31 35.6762 -6.07741e-15 -8.81085e-15 0.321492 -5.71217e-17 8.62836e-16)
(4.57572e-15 2.11302e-29 8.66762e-31 35.6762 2.45336e-15 -1.31596e-14 0.321492 2.25927e-17 1.25075e-16)
(-1.16788e-15 3.04821e-30 0 33.8515 -5.85736e-15 -7.99302e-15 0.309657 -5.20649e-17 8.48112e-16)
(0 2.58207e-30 0 33.8515 2.04756e-15 -1.2065e-14 0.309657 1.55376e-17 1.16737e-16)
(-1.19091e-15 2.08652e-29 0 32.1551 -5.3596e-15 -7.22254e-15 0.298583 -4.93097e-17 8.34652e-16)
(0 -1.78154e-29 0 32.1551 1.42008e-15 -1.10213e-14 0.298583 1.12972e-17 1.08178e-16)
(-1.21306e-15 1.05752e-29 0 30.5771 -5.5539e-15 -6.49864e-15 0.288221 -5.73464e-17 8.2245e-16)
(-4.85225e-15 -5.20969e-30 -5.18253e-31 30.5771 1.35909e-15 -1.00444e-14 0.288221 1.48137e-17 1.00269e-16)
(1.23441e-15 -1.5413e-29 0 29.1082 -6.1079e-15 -5.82459e-15 0.278519 -6.16204e-17 8.11518e-16)
(0 1.23632e-29 0 29.1082 2.26741e-15 -9.13673e-15 0.278519 2.9444e-17 9.24604e-17)
(2.62701e-15 -2.25476e-29 0 27.7396 -6.61592e-15 -5.20236e-15 0.26943 -6.91356e-17 8.01757e-16)
(-1.37202e-15 1.94975e-29 0 27.7396 3.02379e-15 -8.31033e-15 0.26943 3.02991e-17 8.54033e-17)
(-1.27487e-15 7.85656e-30 0 26.4633 -6.74182e-15 -4.62656e-15 0.260909 -6.59672e-17 7.92958e-16)
(-1.35235e-15 0 -3.00283e-31 26.4633 2.32321e-15 -7.52481e-15 0.260909 1.61628e-17 7.87243e-17)
(0 1.4207e-29 0 25.2715 -6.31196e-15 -4.08906e-15 0.252913 -6.23562e-17 7.85213e-16)
(0 -2.36783e-29 0 25.2715 1.66319e-15 -6.81181e-15 0.252913 1.7668e-17 7.20465e-17)
(-1.31268e-15 7.72253e-30 0 24.1576 -5.98614e-15 -3.58781e-15 0.245404 -6.11291e-17 7.78722e-16)
(5.25071e-15 2.09841e-31 2.04583e-31 24.1576 2.37036e-15 -6.18732e-15 0.245404 3.13312e-17 6.64267e-17)
(0 -2.76053e-29 0 23.1151 -5.51415e-15 -3.12469e-15 0.238344 -5.42324e-17 7.73295e-16)
(5.32275e-15 1.23708e-28 4.93147e-31 23.1151 8.03483e-16 -5.59477e-15 0.238344 4.20423e-18 6.11799e-17)
(7.16742e-17 1.05461e-29 0 22.1383 -4.95103e-15 -2.69989e-15 0.2317 -5.08753e-17 7.68708e-16)
(-4.11611e-15 -1.8374e-29 -7.74011e-31 22.1383 3.09178e-16 -5.00588e-15 0.2317 2.34756e-18 5.58804e-17)
(1.36509e-15 -1.19988e-29 0 21.2219 -5.10894e-15 -2.30675e-15 0.225441 -5.92477e-17 7.64863e-16)
(0 8.93989e-30 0 21.2219 7.7684e-16 -4.46475e-15 0.225441 1.44755e-17 5.03764e-17)
(1.09873e-15 -5.75171e-30 0 20.3612 -5.4638e-15 -1.94219e-15 0.219538 -6.01778e-17 7.62001e-16)
(-2.48029e-15 1.32176e-29 0 20.3612 1.36949e-15 -3.9948e-15 0.219538 1.54637e-17 4.57749e-17)
(1.39756e-15 -3.06138e-30 2.71421e-31 19.5517 -5.54398e-15 -1.60698e-15 0.213965 -6.27742e-17 7.59817e-16)
(5.59025e-15 2.43953e-31 2.14533e-31 19.5517 1.64422e-15 -3.57558e-15 0.213965 2.10356e-17 4.1506e-17)
(2.4097e-15 -8.56098e-30 0 18.7896 -5.79697e-15 -1.2992e-15 0.208699 -6.76734e-17 7.5831e-16)
(3.24286e-15 8.8042e-30 4.84889e-31 18.7896 1.03218e-15 -3.18468e-15 0.208699 3.75419e-17 3.77525e-17)
(-1.42831e-15 3.06272e-30 0 18.0712 -6.46372e-15 -1.01286e-15 0.203717 -7.99415e-17 7.57606e-16)
(0 0 0 18.0712 3.65323e-16 -2.79523e-15 0.203717 5.88042e-17 3.3864e-17)
(-1.4431e-15 7.22258e-30 -3.37607e-34 17.3932 -7.43928e-15 -7.48283e-16 0.199 -9.24096e-17 7.55004e-16)
(0 0 0 17.3932 1.57881e-15 -2.43444e-15 0.199 9.5826e-17 2.99051e-17)
(2.30757e-15 -8.19813e-30 2.56191e-31 16.7527 -7.13676e-15 -5.05405e-16 0.194528 -7.51246e-17 7.35828e-16)
(0 8.19813e-30 0 16.7527 3.38528e-15 -2.0772e-15 0.194528 1.04432e-16 2.64409e-17)
(-3.74611e-15 7.11161e-30 -5.10667e-31 16.1469 -6.42384e-15 -2.72666e-16 0.190285 -7.80014e-17 7.1809e-16)
(0 8.08063e-30 2.5252e-31 16.1469 3.57664e-15 -1.74557e-15 0.190285 8.9087e-17 2.23275e-17)
(-2.24189e-15 1.9912e-29 0 15.5733 -6.32817e-15 -5.47411e-17 0.186255 -7.49952e-17 7.00726e-16)
(-5.94153e-15 -2.01691e-29 -7.35015e-31 15.5733 2.78023e-15 -1.46679e-15 0.186255 8.69643e-17 1.92541e-17)
(7.10925e-16 -1.26252e-29 -2.5618e-31 15.0296 -6.0674e-15 1.50705e-16 0.182424 -7.38425e-17 6.8395e-16)
(3.78559e-15 1.99034e-29 7.32691e-31 15.0296 2.10218e-15 -1.20163e-15 0.182424 6.05049e-17 1.61915e-17)
(0 2.32144e-29 2.41817e-31 14.5138 -6.31797e-15 3.45198e-16 0.17878 -8.34738e-17 6.67553e-16)
(0 -2.32144e-29 -2.41817e-31 14.5138 1.89355e-15 -9.8005e-16 0.17878 4.84198e-17 1.32658e-17)
(-1.52489e-15 1.4521e-29 -1.62627e-32 14.0239 -6.13303e-15 5.26446e-16 0.175309 -7.1302e-17 6.50965e-16)
(6.09955e-15 -1.11578e-29 4.90401e-31 14.0239 3.06561e-15 -7.75152e-16 0.175309 7.69726e-17 1.11109e-17)
(3.07502e-15 -1.36772e-29 -1.96813e-31 13.5582 -6.10737e-15 6.95809e-16 0.172 -8.52568e-17 6.34689e-16)
(6.15005e-15 7.82387e-30 7.27397e-31 13.5582 3.0549e-15 -5.50417e-16 0.172 5.55205e-17 8.44295e-18)
(2.08577e-15 -3.70508e-30 0 13.1151 -7.17295e-15 8.51134e-16 0.168844 -1.01287e-16 6.19043e-16)
(-2.08577e-15 3.70508e-30 2.31567e-31 13.1151 1.71076e-15 -3.20469e-16 0.168844 2.19866e-17 5.63732e-18)
(-1.56202e-15 -7.87214e-30 -2.46096e-32 12.6931 -7.14679e-15 9.92605e-16 0.165831 -8.70595e-17 6.04244e-16)
(0 1.46079e-29 0 12.6931 2.22131e-15 -1.14997e-16 0.165831 4.18644e-17 2.67039e-18)
(-3.14785e-15 2.05764e-29 1.70215e-31 12.2909 -5.66355e-15 1.12638e-15 0.162952 -6.42861e-17 5.89841e-16)
(6.2957e-15 -2.48596e-29 2.75217e-31 12.2909 2.72526e-15 5.11364e-17 0.162952 3.09625e-17 1.72807e-18)
(-1.58561e-15 3.08997e-30 -3.01775e-32 11.9073 -4.75478e-15 1.2592e-15 0.1602 -6.47656e-17 5.7548e-16)
(0 3.54804e-30 0 11.9073 2.04074e-15 2.08713e-16 0.1602 2.43773e-17 3.95262e-18)
(-1.5971e-15 -4.06378e-31 -3.30082e-32 11.5409 -4.8112e-15 2.07024e-15 0.157566 -6.77342e-17 5.61331e-16)
(6.38838e-15 7.3493e-30 5.02197e-31 11.5409 1.79189e-15 3.6145e-16 0.157566 2.49675e-17 6.01493e-18)
(-1.60838e-15 1.34329e-29 1.76233e-31 11.1909 -4.75289e-15 4.57447e-15 0.155043 -6.50218e-17 5.28291e-16)
(0 -1.10171e-32 -2.15442e-31 11.1909 1.33147e-29 5.23278e-16 0.155043 9.86076e-32 8.62206e-18)
(-3.23895e-15 1.29773e-29 -1.07639e-31 10.8562 -4.88394e-15 6.35935e-15 0.152626 -7.34597e-17 4.47816e-16)
(-6.47789e-15 -7.13205e-30 -5.05755e-31 10.8562 1.17505e-15 6.58739e-16 0.152626 5.47116e-17 1.00583e-17)
(5.09826e-16 -1.72557e-29 -5.5577e-31 10.5359 -5.05294e-15 6.3996e-15 0.150308 -7.18215e-17 3.6672e-16)
(9.27249e-15 2.08051e-29 1.43456e-30 10.5359 3.2098e-15 7.61919e-16 0.150308 3.74589e-17 1.1863e-17)
(-4.92337e-15 3.56996e-29 1.62568e-31 10.2292 -4.6803e-15 6.45521e-15 0.148084 -6.46616e-17 2.8571e-16)
(-6.5645e-15 -9.23554e-29 -1.33529e-30 10.2292 -2.67209e-29 9.01241e-16 0.148084 9.86076e-32 1.44468e-17)
(-1.6517e-15 -1.31669e-29 -5.04933e-31 9.93527 -3.88421e-15 6.53651e-15 0.145949 -5.01927e-17 2.04698e-16)
(6.60678e-15 1.98985e-29 5.12645e-31 9.93527 7.37203e-16 1.03797e-15 0.145949 2.43709e-17 1.62868e-17)
(1.66211e-15 -6.31175e-30 1.13241e-31 9.65341 -2.92644e-15 6.58941e-15 0.143897 -3.7588e-17 1.22967e-16)
(0 -7.00649e-46 0 9.65341 -1.03174e-31 1.15824e-15 0.143897 9.86076e-32 1.85075e-17)
(0 -2.21274e-29 0 9.38294 -3.43372e-15 6.60723e-15 0.141925 -6.72288e-17 1.01436e-16)
(6.68946e-15 2.24976e-29 5.19174e-31 9.38294 -7.51784e-16 1.26856e-15 0.141925 5.76095e-17 2.0149e-17)
(1.75401e-15 -9.34724e-30 3.89468e-31 9.12323 -4.03673e-15 6.61849e-15 0.140028 -5.74613e-17 1.0313e-16)
(6.72991e-15 9.7119e-30 5.12912e-31 9.12323 1.47438e-15 1.34913e-15 0.140028 7.26717e-17 3.96663e-17)
(-3.45774e-15 1.53555e-29 -7.67773e-31 8.87371 -2.82818e-15 6.66258e-15 0.138202 -3.10279e-17 1.058e-16)
(6.76979e-15 -5.76329e-30 4.726e-31 8.87371 1.86341e-15 1.46553e-15 0.138202 6.72521e-17 1.21238e-16)
(0 2.42166e-29 0 8.63384 -2.82479e-15 6.7105e-15 0.136443 -5.90357e-17 1.07687e-16)
(0 -2.42166e-29 0 8.63384 3.21559e-16 1.60242e-15 0.136443 8.48596e-17 2.02622e-16)
(-3.42397e-15 6.21771e-30 -2.6861e-31 8.40309 -3.32325e-15 6.7488e-15 0.134749 -4.81411e-17 1.10144e-16)
(0 0 0 8.40309 1.6636e-16 1.7198e-15 0.134749 1.0541e-16 2.83733e-16)
(0 -2.35274e-29 0 8.18101 -2.77318e-15 6.79112e-15 0.133115 -4.26231e-17 1.12237e-16)
(6.88624e-15 2.38923e-29 3.54642e-31 8.18101 3.1514e-16 1.76272e-15 0.133115 1.14436e-16 3.6493e-16)
(0 5.79755e-30 -3.62347e-31 7.96715 -3.00845e-15 6.81518e-15 0.13154 -5.74237e-17 1.14175e-16)
(5.2922e-15 -2.55451e-30 3.14291e-31 7.96715 -2.67136e-16 1.80384e-15 0.13154 1.63959e-16 4.48398e-16)
(-1.74035e-15 2.5584e-31 -1.45805e-31 7.76109 -2.92159e-15 6.86851e-15 0.13002 -4.09228e-17 1.17335e-16)
(0 8.57168e-30 0 7.76109 -7.81933e-16 1.90864e-15 0.13002 2.10415e-16 5.31402e-16)
(1.74958e-15 2.51783e-30 1.49735e-31 7.56246 -2.26945e-15 6.94524e-15 0.128552 -3.66453e-17 1.20163e-16)
(0 -2.81628e-30 0 7.56246 -8.33005e-16 2.01701e-15 0.128552 2.36894e-16 6.15568e-16)
(0 -2.77591e-30 0 7.37087 -2.12185e-15 6.98789e-15 0.127134 -3.6964e-17 1.22263e-16)
(0 2.77591e-30 0 7.37087 -1.40472e-15 2.08031e-15 0.127134 2.91773e-16 6.99914e-16)
(0 -1.36806e-29 3.42016e-31 7.186 -2.79495e-15 7.0093e-15 0.125764 -6.15803e-17 1.24442e-16)
(0 1.36806e-29 0 7.186 -2.5592e-15 2.12402e-15 0.125764 3.6275e-16 7.85823e-16)
(1.00144e-15 -4.56209e-30 1.20805e-32 7.00752 -3.57405e-15 6.99454e-15 0.124439 -6.60681e-17 1.25313e-16)
(-1.51823e-15 1.07876e-29 0 7.00752 -1.69074e-15 2.19364e-15 0.124439 4.46862e-16 8.7185e-16)
(-1.78543e-15 1.37515e-29 -1.66385e-31 6.83514 -2.76321e-15 7.06373e-15 0.123158 -3.37976e-17 1.30612e-16)
(0 -1.0633e-29 0 6.83514 -5.99905e-16 2.20539e-15 0.123158 5.04045e-16 9.57241e-16)
(1.79415e-15 -8.35489e-30 1.74059e-31 6.66856 -2.80697e-15 6.55103e-15 0.121918 -6.96233e-17 1.10004e-16)
(-7.1766e-15 5.09662e-30 -3.59992e-31 6.66856 -1.24995e-15 2.33811e-15 0.121918 5.46334e-16 1.04788e-15)
(0 -7.74781e-30 6.4736e-30 6.50754 -4.16067e-15 2.0901e-29 0.120717 -8.56295e-17 1.97215e-31)
(-7.2111e-15 7.62865e-30 -5.638e-33 6.50754 1.03813e-15 2.54812e-15 0.120717 5.83676e-16 1.11188e-15)
(-1.81131e-15 1.33026e-29 -8.12017e-31 6.3518 -3.91307e-15 -5.47563e-15 0.119555 -6.22281e-17 1.03645e-16)
(1.44905e-14 -7.32919e-30 1.99912e-31 6.3518 4.96444e-15 2.50815e-15 0.119555 5.48392e-16 9.5921e-16)
(1.81977e-15 1.89866e-30 1.72342e-31 6.20112 -3.81652e-15 -5.42956e-15 0.118429 -8.44057e-17 1.03491e-16)
(7.27906e-15 -1.48405e-29 1.9178e-31 6.20112 3.72045e-15 2.46567e-15 0.118429 4.81094e-16 8.0989e-16)
(0 4.94628e-30 0 6.05528 -4.39718e-15 -6.01956e-15 0.117337 -8.68246e-17 1.049e-16)
(0 0 0 6.05528 2.33792e-15 2.4812e-15 0.117337 4.5117e-16 6.56168e-16)
(-1.83642e-15 -1.15011e-29 -1.61014e-31 5.91406 -4.31741e-15 -7.10875e-15 0.116279 -8.37039e-17 1.29662e-16)
(4.60109e-15 1.97584e-29 3.94179e-31 5.91406 2.76231e-15 2.03823e-15 0.116279 4.39308e-16 4.78725e-16)
(-1.84463e-15 7.93845e-30 -7.53693e-31 5.77727 -3.15387e-15 -7.54118e-15 0.115252 -4.23971e-17 1.51312e-16)
(-7.37854e-15 -5.07356e-30 -5.03268e-31 5.77727 1.36285e-15 1.67266e-15 0.115252 4.41343e-16 2.94787e-16)
(1.85277e-15 -1.26071e-29 1.48166e-31 5.64472 -2.00013e-15 -7.40314e-15 0.114256 -3.89037e-17 1.50917e-16)
(7.41108e-15 9.73328e-30 6.13998e-31 5.64472 1.85556e-15 1.72712e-15 0.114256 4.67918e-16 1.09447e-16)
(-1.86083e-15 2.18049e-29 -1.45001e-31 5.51623 -2.63696e-15 -7.30279e-15 0.11329 -7.01003e-17 1.5009e-16)
(7.44333e-15 -1.8407e-29 6.6227e-31 5.51623 2.3282e-15 1.76562e-15 0.11329 4.91957e-16 3.70306e-17)
(-1.86882e-15 7.73582e-30 -1.25874e-31 5.39163 -3.07482e-15 -7.31593e-15 0.112351 -5.85016e-17 2.64655e-16)
(0 -4.60183e-30 0 5.39163 6.20371e-16 1.80582e-15 0.112351 4.67028e-16 3.85563e-17)
(-1.87675e-15 3.13296e-30 -9.56125e-32 5.27076 -3.24876e-15 -7.27472e-15 0.111439 -7.95928e-17 4.58253e-16)
(0 4.53588e-30 0 5.27076 7.24798e-16 1.84578e-15 0.111439 4.98111e-16 3.98246e-17)
(-1.8846e-15 -1.02755e-29 -6.54756e-32 5.15348 -3.51113e-15 -7.14039e-15 0.110553 -7.15994e-17 6.51911e-16)
(7.53841e-15 1.81449e-29 6.84743e-31 5.15348 2.04509e-15 1.88491e-15 0.110553 5.49154e-16 4.13836e-17)
(1.89239e-15 -1.63593e-29 3.51253e-32 5.03964 -3.44361e-15 -7.03996e-15 0.109692 -7.89523e-17 8.47049e-16)
(0 1.32204e-29 0 5.03964 2.39901e-15 1.93552e-15 0.109692 5.46396e-16 4.3219e-17)
(2.44524e-15 -8.68725e-30 0 4.9291 -3.3928e-15 -6.95749e-15 0.108854 -7.14274e-17 1.04419e-15)
(-2.44524e-15 8.68725e-30 5.42953e-31 4.9291 1.23798e-15 1.9869e-15 0.108854 5.35993e-16 4.48906e-17)
(-1.90779e-15 -5.41231e-30 0 4.82173 -2.43502e-15 -6.89819e-15 0.10804 -3.78673e-17 1.05102e-15)
(0 1.28441e-29 0 4.82173 -1.87249e-16 2.01737e-15 0.10804 5.53339e-16 4.58657e-17)
(2.37565e-15 -1.00455e-29 0 4.71742 -2.76496e-28 -6.80253e-15 0.107248 0 1.02734e-15)
(1.29475e-14 3.01152e-29 1.96911e-30 4.71742 6.47628e-16 2.02544e-15 0.107248 5.50565e-16 4.65766e-17)
(0 -4.15952e-30 -2.5997e-31 4.61604 8.4285e-17 -6.7903e-15 0.106477 -1.23782e-17 1.00561e-15)
(7.69177e-15 8.62267e-30 7.29798e-31 4.61604 5.23887e-16 2.03888e-15 0.106477 5.38696e-16 4.7836e-17)
(-1.93043e-15 3.59425e-29 0 4.51749 -1.57977e-15 -6.77682e-15 0.105726 -6.59963e-17 9.83063e-16)
(-7.72174e-15 -2.89742e-29 -9.94209e-31 4.51749 -1.11595e-15 2.08431e-15 0.105726 5.97044e-16 5.00908e-17)
(3.37091e-16 1.12288e-29 7.57715e-31 4.42166 -2.44947e-15 -6.60694e-15 0.104996 -5.06299e-17 9.60542e-16)
(-7.75149e-15 -8.30037e-30 -1.25297e-30 4.42166 -9.05247e-16 2.14164e-15 0.104996 7.09122e-16 5.19891e-17)
(0 7.96645e-30 4.97903e-31 4.32844 -1.8177e-15 -6.42951e-15 0.104284 -3.71605e-17 9.38901e-16)
(0 -3.98323e-30 -4.97903e-31 4.32844 7.28118e-16 2.17494e-15 0.104284 8.50984e-16 5.318e-17)
(0 3.50325e-46 2.45383e-31 4.23775 2.56873e-28 -6.24983e-15 0.10359 2.93351e-46 9.19017e-16)
(5.60014e-15 -7.69602e-30 2.79027e-31 4.23775 5.116e-16 2.20106e-15 0.10359 8.81314e-16 5.48029e-17)
(-2.1867e-16 2.7813e-29 0 4.1495 8.99905e-16 -6.22017e-15 0.102914 -1.66015e-17 8.96481e-16)
(0 -2.70891e-29 -4.83733e-31 4.1495 -1.37404e-15 2.237e-15 0.102914 9.46057e-16 5.65392e-17)
(0 -3.43296e-29 -1.192e-30 4.06358 -9.9733e-17 -6.31971e-15 0.102255 -3.37519e-17 8.73515e-16)
(1.57368e-14 3.4487e-29 2.77606e-30 4.06358 -8.40484e-16 2.26993e-15 0.102255 1.02183e-15 5.80832e-17)
(0 -7.51946e-30 0 3.97993 -1.47032e-15 -6.22352e-15 0.101613 -4.16223e-17 8.48418e-16)
(1.57943e-14 7.62259e-30 1.6059e-30 3.97993 -1.72455e-15 2.29577e-15 0.101613 1.0931e-15 5.95288e-17)
(-3.96285e-15 6.72623e-44 0 3.89847 2.48572e-28 -6.12597e-15 0.100986 -3.15544e-30 8.24964e-16)
(0 -3.70584e-30 0 3.89847 -2.95981e-15 2.33765e-15 0.100986 1.19479e-15 6.19767e-17)
(-1.98852e-15 -7.12893e-30 0 3.81911 8.54931e-17 -6.05949e-15 0.100375 -1.12692e-18 8.00095e-16)
(1.59081e-14 7.30546e-30 1.63465e-30 3.81911 -1.4749e-15 2.38757e-15 0.100375 1.20091e-15 6.39239e-17)
(1.99557e-15 -1.39351e-29 -2.25023e-31 3.74179 1.85174e-15 -5.96465e-15 0.0997783 -5.52216e-17 7.76713e-16)
(0 1.08011e-29 2.25023e-31 3.74179 -2.59581e-15 2.41976e-15 0.0997783 1.22075e-15 6.55268e-17)
(-2.00257e-15 3.13258e-30 0 3.66643 7.7945e-16 -5.95833e-15 0.099196 -4.375e-17 7.53395e-16)
(0 7.09755e-30 0 3.66643 -3.63632e-15 2.47018e-15 0.099196 1.21453e-15 6.85523e-17)
(-2.00953e-15 0 4.37239e-31 3.59298 0 -6.00622e-15 0.0986274 -3.15544e-30 7.31178e-16)
(8.03813e-15 -1.04937e-29 3.99358e-31 3.59298 -2.20949e-15 2.52677e-15 0.0986274 1.20656e-15 7.05847e-17)
(-7.55269e-17 6.58114e-30 4.30972e-31 3.52136 7.31033e-16 -5.97299e-15 0.0980721 -1.76117e-17 7.06263e-16)
(6.12488e-15 0 4.13121e-31 3.52136 -2.00582e-15 2.56239e-15 0.0980721 1.21203e-15 7.25648e-17)
(-4.04666e-15 2.86174e-30 0 3.45152 1.64205e-15 -5.87416e-15 0.0975297 -2.32647e-17 6.82862e-16)
(0 3.39836e-30 0 3.45152 -3.05409e-15 2.60615e-15 0.0975297 1.2002e-15 7.51506e-17)
(-2.03017e-15 6.46788e-30 4.18707e-31 3.3834 2.51006e-15 -5.86151e-15 0.0969998 -7.83941e-17 6.59464e-16)
(0 0 -4.18707e-31 3.3834 -3.55878e-15 2.65885e-15 0.0969998 1.17515e-15 7.77426e-17)
(3.71732e-15 -6.60329e-30 -4.12705e-31 3.31694 1.56331e-15 -5.82698e-15 0.0964819 -6.58344e-17 6.3772e-16)
(-1.18652e-14 6.60329e-30 -2.4717e-31 3.31694 -2.7949e-15 2.72198e-15 0.0964819 1.1666e-15 8.1061e-17)
(2.04374e-15 -6.37551e-30 -4.0679e-31 3.25209 1.59614e-15 -5.8035e-15 0.0959756 -2.50632e-17 6.16322e-16)
(8.17496e-15 3.25432e-30 1.28249e-30 3.25209 -3.43708e-15 2.76774e-15 0.0959756 1.1754e-15 8.27478e-17)
(2.05047e-15 -9.52666e-30 -6.0144e-31 3.18881 2.1168e-15 -5.86528e-15 0.0954806 -6.97199e-17 5.94537e-16)
(-8.20188e-15 6.41536e-30 -2.84098e-31 3.18881 -3.89935e-15 2.78576e-15 0.0954806 1.14979e-15 8.45255e-17)
(-2.05716e-15 1.57566e-29 1.97607e-31 3.12703 1.62015e-15 -5.78991e-15 0.0949965 -5.72858e-17 5.69274e-16)
(6.44877e-15 -9.48512e-30 6.97952e-31 3.12703 -1.81877e-15 2.80913e-15 0.0949965 1.136e-15 8.66057e-17)
(0 1.24656e-29 5.84323e-31 3.06671 1.20008e-15 -5.7998e-15 0.094523 -4.12889e-17 5.47494e-16)
(-1.75437e-15 -6.23278e-30 -5.84323e-31 3.06671 -1.07977e-15 2.83654e-15 0.094523 1.15414e-15 8.87077e-17)
(-3.45845e-15 1.22869e-29 -2.22348e-29 3.00782 1.00896e-15 -2.24973e-15 0.0940597 -3.28149e-17 5.22906e-16)
(8.28177e-15 -3.07172e-30 3.3973e-31 3.00782 -7.29595e-16 2.85713e-15 0.0940597 1.16348e-15 9.04429e-17)
(3.78148e-15 -1.52182e-29 -1.33158e-29 2.95029 7.40133e-16 -1.04637e-16 0.0936063 -3.04285e-17 5.37648e-16)
(-1.70444e-15 1.21108e-29 7.56925e-31 2.95029 -1.17434e-15 2.87355e-15 0.0936063 1.18033e-15 9.23583e-17)
(0 -1.86881e-30 -7.7482e-32 2.89411 1.02589e-15 4.80246e-30 0.0931625 -1.65515e-17 5.58317e-16)
(-1.00144e-14 -2.9843e-30 -1.6821e-30 2.89411 -1.43786e-15 2.90347e-15 0.0931625 1.17332e-15 9.50371e-17)
(-3.31187e-15 8.82459e-30 -3.67691e-31 2.83921 2.92168e-15 6.0776e-17 0.0927281 -9.07862e-17 5.38041e-16)
(0 0 7.35383e-31 2.83921 2.004e-16 2.93478e-15 0.0927281 1.18088e-15 9.71288e-17)
(0 2.89937e-30 1.08726e-30 2.78557 2.13671e-15 -4.01572e-17 0.0923026 -1.00578e-16 5.14717e-16)
(0 0 -7.24843e-31 2.78557 2.04935e-16 2.96545e-15 0.0923026 1.20898e-15 9.98736e-17)
(2.10307e-15 1.97725e-29 1.42891e-30 2.73315 1.15932e-15 -7.69022e-17 0.0918859 -4.09245e-17 4.92579e-16)
(0 -2.28625e-29 -1.42891e-30 2.73315 -4.59017e-16 2.99684e-15 0.0918859 1.24967e-15 1.02104e-16)
(2.1095e-15 8.1813e-30 2.43325e-31 2.68191 9.48029e-16 -9.4753e-18 0.0914777 -3.7177e-17 4.71006e-16)
(-3.1715e-15 -8.45057e-30 -7.04214e-31 2.68191 -2.90097e-17 3.01938e-15 0.0914777 1.25848e-15 1.04352e-16)
(-4.23181e-15 6.17189e-30 0 2.63182 9.10978e-16 -5.83283e-17 0.0910777 -2.7572e-17 4.51974e-16)
(8.46362e-15 0 9.89137e-31 2.63182 -5.02691e-16 3.03161e-15 0.0910777 1.25501e-15 1.0595e-16)
(-2.12228e-15 1.77393e-30 -4.15692e-31 2.58284 2.02785e-15 -4.35885e-18 0.0906856 -3.56773e-17 4.31759e-16)
(0 5.47338e-30 3.42086e-31 2.58284 -2.65803e-15 3.03748e-15 0.0906856 1.26181e-15 1.07825e-16)
(-3.03708e-15 8.0924e-30 -4.37906e-47 2.53495 4.91093e-15 3.21399e-30 0.0903014 -1.19311e-16 4.1339e-16)
(0 -8.0924e-30 -6.74366e-31 2.53495 -3.18139e-15 3.04237e-15 0.0903014 1.22853e-15 1.09405e-16)
(-2.99355e-15 1.06352e-29 9.97052e-31 2.48811 6.03781e-15 -5.90288e-17 0.0899246 -2.32133e-16 3.95061e-16)
(0 -7.97641e-30 -6.64701e-31 2.48811 -3.05726e-15 3.07352e-15 0.0899246 1.22327e-15 1.13256e-16)
(-2.95064e-15 1.04828e-29 6.55174e-31 2.4423 5.37642e-15 -9.59649e-17 0.0895552 -2.05025e-16 3.74964e-16)
(0 -2.6207e-30 -6.55174e-31 2.4423 -3.36523e-15 3.14353e-15 0.0895552 1.20906e-15 1.17792e-16)
(-2.90835e-15 7.74941e-30 9.68676e-31 2.39747 4.64751e-15 -7.32888e-17 0.0891928 -1.89975e-16 3.55025e-16)
(1.718e-14 -2.58314e-30 1.10652e-30 2.39747 -2.67163e-15 3.19837e-15 0.0891928 1.18868e-15 1.20693e-16)
(-4.30747e-15 6.06824e-30 0 2.35362 2.99667e-15 -1.75954e-16 0.0888373 -1.56291e-16 3.35027e-16)
(8.61495e-15 0 1.05108e-30 2.35362 -1.8322e-15 3.21065e-15 0.0888373 1.1877e-15 1.22178e-16)
(4.98553e-15 -1.30802e-29 -1.03168e-30 2.31071 2.67954e-15 -1.48501e-16 0.0884884 -6.97591e-17 3.14008e-16)
(-2.82558e-15 1.00385e-29 9.41108e-31 2.31071 -2.56957e-15 3.2862e-15 0.0884884 1.19526e-15 1.30068e-16)
(0 4.9473e-30 6.18413e-31 2.26871 3.72439e-15 -1.11585e-16 0.0881461 -1.36355e-16 2.97912e-16)
(-1.14496e-14 0 -1.38431e-30 2.26871 -3.763e-15 3.38088e-15 0.0881461 1.18612e-15 1.33182e-16)
(-2.1723e-15 -1.64881e-29 -2.26912e-30 2.22761 4.09717e-15 -1.60287e-17 0.0878101 -1.53743e-16 2.82864e-16)
(8.6892e-15 2.4382e-29 2.91804e-30 2.22761 -2.51659e-15 3.41452e-15 0.0878101 1.17449e-15 1.36555e-16)
(0 9.61301e-30 -3.76774e-32 2.18737 5.01991e-15 1.88061e-30 0.0874801 -1.70009e-16 2.71494e-16)
(-2.70582e-15 -4.8065e-30 -9.01219e-31 2.18737 -2.59435e-15 3.44093e-15 0.0874801 1.18315e-15 1.39215e-16)
(0 -9.47523e-30 -2.96101e-31 2.14798 4.65054e-15 1.42644e-16 0.0871562 -2.32732e-16 2.61635e-16)
(0 9.47523e-30 8.88302e-31 2.14798 -4.9389e-15 3.47365e-15 0.0871562 1.16548e-15 1.43235e-16)
(-2.19065e-15 7.66483e-30 -2.91857e-31 2.1094 3.12431e-15 1.84879e-16 0.086838 -1.4474e-16 2.51661e-16)
(0 -4.66971e-30 2.91857e-31 2.1094 -5.32257e-15 3.48274e-15 0.086838 1.10223e-15 1.44049e-16)
(-1.80229e-15 -2.16358e-29 -2.30139e-30 2.07163 4.10009e-15 2.66354e-16 0.0865254 -1.12742e-16 2.41102e-16)
(1.75737e-14 3.22195e-29 5.46447e-30 2.07163 -4.49143e-15 3.46513e-15 0.0865254 1.06354e-15 1.45947e-16)
(0 4.53681e-30 8.50652e-31 2.03464 5.58273e-15 3.16772e-16 0.0862183 -2.31232e-16 2.31412e-16)
(0 0 -8.50652e-31 2.03464 -5.20948e-15 3.45856e-15 0.0862183 1.04037e-15 1.47706e-16)
(0 8.94358e-30 5.58974e-31 1.99841 3.17061e-15 1.44402e-16 0.0859165 -2.42839e-16 2.16425e-16)
(0 0 -8.3846e-31 1.99841 -3.25744e-15 3.48488e-15 0.0859165 9.62564e-16 1.52506e-16)
(-6.64437e-15 -1.75133e-29 -2.47933e-30 1.96292 1.87686e-16 2.29405e-17 0.0856199 -2.87216e-17 1.95644e-16)
(1.77183e-14 3.08539e-29 5.42252e-30 1.96292 4.47193e-16 3.55264e-15 0.0856199 9.77768e-16 1.57997e-16)
(0 -6.22259e-45 -2.98686e-30 1.92815 0 8.88267e-17 0.0853283 0 1.75986e-16)
(1.77662e-14 3.47562e-29 5.41699e-30 1.92815 -1.15174e-15 3.58734e-15 0.0853283 1.04005e-15 1.60071e-16)
(-2.22673e-15 1.5823e-29 1.07056e-30 1.89409 1.64789e-16 1.76666e-17 0.0850416 -4.05088e-17 1.55632e-16)
(0 -8.56451e-30 -1.60585e-30 1.89409 -2.58929e-15 3.62807e-15 0.0850416 1.00975e-15 1.66317e-16)
(2.23267e-15 -3.25211e-29 -2.63805e-30 1.86071 -8.29273e-16 -8.17901e-17 0.0847596 -4.96795e-17 1.3166e-16)
(1.78614e-14 2.95462e-29 5.14112e-30 1.86071 -7.5725e-16 3.70221e-15 0.0847596 9.76009e-16 1.71575e-16)
(0 -4.02068e-30 -2.91342e-31 1.828 -1.19304e-29 3.08149e-33 0.0844823 -3.15544e-30 1.0938e-16)
(8.95437e-15 2.08019e-29 3.35242e-30 1.828 -2.17778e-15 3.75972e-15 0.0844823 9.85606e-16 1.76552e-16)
(2.24449e-15 -1.92383e-29 -1.02519e-30 1.79594 8.14781e-16 -3.69683e-17 0.0842095 -1.91332e-17 8.97022e-17)
(0 1.23023e-29 1.02519e-30 1.79594 -4.07352e-15 3.81678e-15 0.0842095 9.37969e-16 1.82e-16)
(4.50074e-15 -1.89804e-30 -3.7051e-32 1.76452 1.84662e-15 1.1648e-30 0.083941 -7.87844e-17 6.67452e-17)
(9.00149e-15 -4.04198e-30 3.06449e-31 1.76452 -3.7121e-15 3.86933e-15 0.083941 8.9984e-16 1.86768e-16)
(-2.24282e-15 3.98405e-30 9.96012e-31 1.73372 1.79607e-15 -2.47933e-18 0.0836768 -9.73258e-17 4.82996e-17)
(0 0 -9.96012e-31 1.73372 -3.76423e-15 3.92552e-15 0.0836768 8.84369e-16 1.92803e-16)
(2.21067e-15 -3.92695e-30 -4.90868e-31 1.70353 1.58065e-15 -4.2269e-17 0.0834167 -7.61695e-17 2.75911e-17)