/*--------------------------------*- C++ -*----------------------------------*\
| =========                 |                                                 |
| \\      /  F ield         | OpenFOAM: The Open Source CFD Toolbox           |
|  \\    /   O peration     | Version:  2012                                  |
|   \\  /    A nd           | Website:  www.openfoam.com                      |
|    \\/     M anipulation  |                                                 |
\*---------------------------------------------------------------------------*/
FoamFile
{
    version     2.0;
    format      ascii;
    class       surfaceScalarField;
    location    "18000";
    object      phi;
}
// * * * * * * * * * * * * * * * * * * * * * * * * * * * * * * * * * * * * * //

dimensions      [0 3 -1 0 0 0 0];
oriented        oriented;


internalField   nonuniform List<scalar> 
5116
(
1.6972e-08
-7.46466e-18
-4.47561e-22
-8.25132e-22
-3.95779e-23
5.19017e-08
-7.46059e-18
-1.43664e-21
-3.22933e-21
-2.1396e-22
8.835e-08
-7.45644e-18
-1.47785e-21
-5.67472e-21
-2.23452e-22
1.26368e-07
-7.45214e-18
-1.52681e-21
-8.22602e-21
-2.3337e-22
1.6601e-07
-7.44772e-18
-1.57707e-21
-1.0842e-20
-2.43735e-22
2.07329e-07
-7.44313e-18
-1.62899e-21
-1.35278e-20
-2.54569e-22
2.50383e-07
-7.4384e-18
-1.68314e-21
-1.63303e-20
-2.65895e-22
2.95229e-07
-7.43351e-18
-1.73956e-21
-1.91388e-20
-2.77734e-22
3.41927e-07
-7.42851e-18
-1.79818e-21
-2.20804e-20
-2.90112e-22
3.90538e-07
-7.42325e-18
-1.85898e-21
-2.51101e-20
-3.03052e-22
4.41128e-07
-7.41796e-18
-1.92197e-21
-2.82373e-20
-3.16579e-22
4.9376e-07
-7.41251e-18
-1.98719e-21
-3.15179e-20
-3.30719e-22
5.48503e-07
-7.40683e-18
-2.05471e-21
-3.49047e-20
-3.45497e-22
6.05425e-07
-7.40066e-18
-2.12457e-21
-3.84457e-20
-3.60942e-22
6.64598e-07
-7.39434e-18
-2.19686e-21
-4.2179e-20
-3.77081e-22
7.26095e-07
-7.38798e-18
-2.27165e-21
-4.59113e-20
-3.9394e-22
7.89992e-07
-7.3814e-18
-2.34899e-21
-4.96317e-20
-4.11549e-22
8.56364e-07
-7.37434e-18
-2.42898e-21
-5.37925e-20
-4.29939e-22
9.25292e-07
-7.36758e-18
-2.51168e-21
-5.77628e-20
-4.49135e-22
9.96855e-07
-7.36003e-18
-2.59715e-21
-6.19742e-20
-4.69169e-22
1.07114e-06
-7.35285e-18
-2.68545e-21
-6.6246e-20
-4.90066e-22
1.14822e-06
-7.34511e-18
-2.77663e-21
-7.04591e-20
-5.11858e-22
1.22818e-06
-7.33762e-18
-2.87074e-21
-7.50687e-20
-5.34572e-22
1.31112e-06
-7.32929e-18
-2.96777e-21
-7.98693e-20
-5.58226e-22
1.39712e-06
-7.32065e-18
-3.06777e-21
-8.49609e-20
-5.82836e-22
1.48626e-06
-7.31195e-18
-3.17071e-21
-8.99237e-20
-6.08419e-22
1.57863e-06
-7.30304e-18
-3.27655e-21
-9.50623e-20
-6.34987e-22
1.67431e-06
-7.29369e-18
-3.38523e-21
-1.00287e-19
-6.62546e-22
1.77339e-06
-7.28412e-18
-3.49666e-21
-1.05862e-19
-6.91098e-22
1.87596e-06
-7.27422e-18
-3.6107e-21
-1.11391e-19
-7.20634e-22
1.98208e-06
-7.26365e-18
-3.72719e-21
-1.17027e-19
-7.51144e-22
2.09184e-06
-7.25386e-18
-3.84591e-21
-1.22093e-19
-7.82603e-22
2.2053e-06
-7.24309e-18
-3.96659e-21
-1.27883e-19
-8.14991e-22
2.32253e-06
-7.23246e-18
-4.08893e-21
-1.34054e-19
-8.4824e-22
2.4436e-06
-7.22062e-18
-4.21256e-21
-1.40606e-19
-8.82276e-22
2.56854e-06
-7.20883e-18
-4.3371e-21
-1.47263e-19
-9.17031e-22
2.69741e-06
-7.19624e-18
-4.46211e-21
-1.5421e-19
-9.52427e-22
2.83024e-06
-7.1833e-18
-4.58709e-21
-1.6149e-19
-9.8835e-22
2.96705e-06
-7.1697e-18
-4.71153e-21
-1.69159e-19
-1.02466e-21
3.10787e-06
-7.15695e-18
-4.83489e-21
-1.76023e-19
-1.06124e-21
3.25269e-06
-7.14378e-18
-4.95658e-21
-1.83513e-19
-1.09801e-21
3.40151e-06
-7.12974e-18
-5.07601e-21
-1.90994e-19
-1.13481e-21
3.55433e-06
-7.11574e-18
-5.19264e-21
-1.99112e-19
-1.17151e-21
3.7111e-06
-7.10174e-18
-5.30597e-21
-2.06938e-19
-1.20796e-21
3.87181e-06
-7.08719e-18
-5.41545e-21
-2.14839e-19
-1.24408e-21
4.03641e-06
-7.07298e-18
-5.52063e-21
-2.2094e-19
-1.27971e-21
4.20486e-06
-7.0589e-18
-5.62111e-21
-2.29178e-19
-1.31479e-21
4.3771e-06
-7.04292e-18
-5.7166e-21
-2.3724e-19
-1.34914e-21
4.55308e-06
-7.02741e-18
-5.80686e-21
-2.45123e-19
-1.38265e-21
4.73274e-06
-7.01194e-18
-5.89168e-21
-2.54117e-19
-1.4153e-21
4.91603e-06
-6.99485e-18
-5.97093e-21
-2.62373e-19
-1.447e-21
5.10287e-06
-6.97745e-18
-6.04461e-21
-2.72466e-19
-1.47775e-21
5.29323e-06
-6.9602e-18
-6.11272e-21
-2.80816e-19
-1.50752e-21
5.48705e-06
-6.94292e-18
-6.17527e-21
-2.90162e-19
-1.53634e-21
5.68427e-06
-6.92399e-18
-6.23243e-21
-3.00175e-19
-1.5642e-21
5.88485e-06
-6.9063e-18
-6.28442e-21
-3.09473e-19
-1.59106e-21
6.08876e-06
-6.8895e-18
-6.33143e-21
-3.18784e-19
-1.61692e-21
6.29596e-06
-6.87232e-18
-6.37365e-21
-3.28549e-19
-1.64187e-21
6.50643e-06
-6.85596e-18
-6.41139e-21
-3.36936e-19
-1.66587e-21
6.72014e-06
-6.8394e-18
-6.44491e-21
-3.45057e-19
-1.68902e-21
6.9371e-06
-6.82347e-18
-6.47443e-21
-3.53853e-19
-1.7114e-21
7.15729e-06
-6.80631e-18
-6.50022e-21
-3.62034e-19
-1.73302e-21
7.38071e-06
-6.78955e-18
-6.52259e-21
-3.70842e-19
-1.75406e-21
7.60738e-06
-6.77266e-18
-6.54176e-21
-3.80315e-19
-1.77446e-21
7.83731e-06
-6.75481e-18
-6.55803e-21
-3.90813e-19
-1.79419e-21
8.07052e-06
-6.73592e-18
-6.57174e-21
-4.00013e-19
-1.8133e-21
8.30704e-06
-6.71762e-18
-6.58299e-21
-4.08422e-19
-1.83192e-21
8.5469e-06
-6.70004e-18
-6.59209e-21
-4.16705e-19
-1.85016e-21
8.79014e-06
-6.68164e-18
-6.5992e-21
-4.25559e-19
-1.8681e-21
9.03679e-06
-6.66171e-18
-6.60448e-21
-4.31497e-19
-1.88571e-21
9.28692e-06
-6.64271e-18
-6.60825e-21
-4.39828e-19
-1.90331e-21
9.54057e-06
-6.62481e-18
-6.61066e-21
-4.48946e-19
-1.92084e-21
9.79779e-06
-6.60863e-18
-6.61184e-21
-4.58611e-19
-1.9383e-21
1.00586e-05
-6.5906e-18
-6.61174e-21
-4.65556e-19
-1.95573e-21
1.03232e-05
-6.57366e-18
-6.61054e-21
-4.73821e-19
-1.97333e-21
1.05915e-05
-6.55628e-18
-6.60839e-21
-4.81818e-19
-1.99084e-21
1.08636e-05
-6.54215e-18
-6.60538e-21
-4.91466e-19
-2.00822e-21
1.11396e-05
-6.52597e-18
-6.60148e-21
-4.98065e-19
-2.02534e-21
1.14196e-05
-6.50995e-18
-6.59708e-21
-5.0772e-19
-2.04227e-21
1.17037e-05
-6.4887e-18
-6.59221e-21
-5.19816e-19
-2.05865e-21
1.19918e-05
-6.47029e-18
-6.58754e-21
-5.28529e-19
-2.07408e-21
1.22842e-05
-6.45433e-18
-6.58303e-21
-5.36948e-19
-2.08886e-21
1.25808e-05
-6.43552e-18
-6.57809e-21
-5.4452e-19
-2.10309e-21
1.28818e-05
-6.41561e-18
-6.57325e-21
-5.55665e-19
-2.11618e-21
1.31873e-05
-6.39949e-18
-6.56831e-21
-5.63251e-19
-2.12841e-21
1.34972e-05
-6.38553e-18
-6.56279e-21
-5.68481e-19
-2.14e-21
1.38118e-05
-6.3667e-18
-6.55649e-21
-5.74582e-19
-2.15175e-21
1.41311e-05
-6.35058e-18
-6.54995e-21
-5.81182e-19
-2.16343e-21
1.44553e-05
-6.33479e-18
-6.54315e-21
-5.87815e-19
-2.1747e-21
1.47843e-05
-6.31928e-18
-6.5359e-21
-5.95719e-19
-2.18589e-21
1.51183e-05
-6.30178e-18
-6.52841e-21
-6.02517e-19
-2.19643e-21
1.54574e-05
-6.28016e-18
-6.5208e-21
-6.12571e-19
-2.20682e-21
1.58016e-05
-6.26248e-18
-6.51356e-21
-6.26893e-19
-2.21645e-21
1.61512e-05
-6.24301e-18
-6.50642e-21
-6.41408e-19
-2.22449e-21
1.65061e-05
-6.22194e-18
-6.49974e-21
-6.55508e-19
-2.23126e-21
1.68665e-05
-6.20192e-18
-6.49371e-21
-6.6608e-19
-2.23693e-21
1.72325e-05
-6.18654e-18
-6.48735e-21
-6.723e-19
-2.2417e-21
1.76042e-05
-6.17116e-18
-6.4809e-21
-6.80533e-19
-2.246e-21
1.79817e-05
-6.15675e-18
-6.47518e-21
-6.85513e-19
-2.24928e-21
1.83651e-05
-6.1426e-18
-6.46924e-21
-6.92995e-19
-2.25233e-21
1.87545e-05
-6.12718e-18
-6.46283e-21
-6.94208e-19
-2.25414e-21
1.91501e-05
-6.109e-18
-6.45583e-21
-7.02666e-19
-2.2554e-21
1.95518e-05
-6.0948e-18
-6.44913e-21
-7.08596e-19
-2.25602e-21
1.996e-05
-6.07979e-18
-6.44202e-21
-7.13729e-19
-2.25562e-21
2.03746e-05
-6.06555e-18
-6.43471e-21
-7.21435e-19
-2.25436e-21
2.07958e-05
-6.04945e-18
-6.42769e-21
-7.25781e-19
-2.25254e-21
2.12236e-05
-6.03296e-18
-6.4209e-21
-7.35304e-19
-2.25054e-21
2.16584e-05
-6.01811e-18
-6.41427e-21
-7.44052e-19
-2.24819e-21
2.21e-05
-6.00142e-18
-6.40752e-21
-7.50421e-19
-2.24482e-21
2.25488e-05
-5.98514e-18
-6.40194e-21
-7.58953e-19
-2.23997e-21
2.30047e-05
-5.96614e-18
-6.39665e-21
-7.66635e-19
-2.23382e-21
2.3468e-05
-5.94836e-18
-6.39149e-21
-7.75976e-19
-2.22684e-21
2.39387e-05
-5.93355e-18
-6.38668e-21
-7.8754e-19
-2.21855e-21
2.4417e-05
-5.91793e-18
-6.38162e-21
-7.96501e-19
-2.2085e-21
2.4903e-05
-5.89811e-18
-6.37688e-21
-8.04626e-19
-2.19764e-21
2.53969e-05
-5.8835e-18
-6.37377e-21
-8.15343e-19
-2.18615e-21
2.58988e-05
-5.85884e-18
-6.37073e-21
-8.25498e-19
-2.1724e-21
2.64088e-05
-5.83608e-18
-6.3727e-21
-8.3562e-19
-2.15682e-21
2.69271e-05
-5.82062e-18
-6.3769e-21
-8.45835e-19
-2.14074e-21
2.74538e-05
-5.8031e-18
-6.38033e-21
-8.5677e-19
-2.12387e-21
2.79891e-05
-5.77834e-18
-6.38369e-21
-8.67465e-19
-2.1061e-21
2.85331e-05
-5.76177e-18
-6.38882e-21
-8.79868e-19
-2.08653e-21
2.9086e-05
-5.74398e-18
-6.39324e-21
-8.92905e-19
-2.06486e-21
2.96479e-05
-5.72578e-18
-6.39795e-21
-9.04379e-19
-2.04163e-21
3.0219e-05
-5.708e-18
-6.40232e-21
-9.18323e-19
-2.01717e-21
3.07994e-05
-5.68972e-18
-6.4063e-21
-9.32739e-19
-1.9894e-21
3.13893e-05
-5.66909e-18
-6.40875e-21
-9.48604e-19
-1.95734e-21
3.19888e-05
-5.64462e-18
-6.41095e-21
-9.56771e-19
-1.92575e-21
3.25982e-05
-5.62263e-18
-6.41161e-21
-9.69839e-19
-1.89473e-21
3.32175e-05
-5.59704e-18
-6.41325e-21
-9.72757e-19
-1.86294e-21
3.3847e-05
-5.57802e-18
-6.41582e-21
-9.89086e-19
-1.8352e-21
3.44869e-05
-5.56274e-18
-6.42022e-21
-1.00065e-18
-1.80441e-21
3.51373e-05
-5.54052e-18
-6.42262e-21
-1.00871e-18
-1.77625e-21
3.57983e-05
-5.51662e-18
-6.42345e-21
-1.01979e-18
-1.7499e-21
3.64702e-05
-5.49446e-18
-6.4246e-21
-1.04202e-18
-1.72285e-21
3.71532e-05
-5.46649e-18
-6.42533e-21
-1.0531e-18
-1.69142e-21
3.78474e-05
-5.44708e-18
-6.4335e-21
-1.07639e-18
-1.66277e-21
3.8553e-05
-5.43144e-18
-6.44479e-21
-1.09311e-18
-1.62649e-21
3.92702e-05
-5.40332e-18
-6.45289e-21
-1.11161e-18
-1.58622e-21
3.99993e-05
-5.37942e-18
-6.46046e-21
-1.12122e-18
-1.54321e-21
4.07403e-05
-5.36906e-18
-6.46695e-21
-1.1322e-18
-1.50306e-21
4.14936e-05
-5.34719e-18
-6.46672e-21
-1.14661e-18
-1.46037e-21
4.22593e-05
-5.33069e-18
-6.46687e-21
-1.15443e-18
-1.42045e-21
4.30376e-05
-5.31823e-18
-6.47107e-21
-1.15934e-18
-1.38001e-21
4.38288e-05
-5.30163e-18
-6.47402e-21
-1.16904e-18
-1.33832e-21
4.4633e-05
-5.29354e-18
-6.47834e-21
-1.16996e-18
-1.29489e-21
4.54505e-05
-5.27612e-18
-6.47931e-21
-1.17393e-18
-1.2565e-21
4.62815e-05
-5.25777e-18
-6.48706e-21
-1.17967e-18
-1.21609e-21
4.71262e-05
-5.24415e-18
-6.50475e-21
-1.18449e-18
-1.17024e-21
4.79849e-05
-5.23032e-18
-6.52294e-21
-1.19624e-18
-1.1222e-21
4.88577e-05
-5.21545e-18
-6.54184e-21
-1.19789e-18
-1.07438e-21
4.9745e-05
-5.19422e-18
-6.56434e-21
-1.20648e-18
-1.02897e-21
5.06469e-05
-5.17694e-18
-6.58453e-21
-1.22028e-18
-9.88881e-22
5.15637e-05
-5.1406e-18
-6.60567e-21
-1.23149e-18
-9.54072e-22
5.24957e-05
-5.12766e-18
-6.63528e-21
-1.24402e-18
-9.21103e-22
5.3443e-05
-5.11129e-18
-6.6603e-21
-1.25391e-18
-8.94054e-22
5.4406e-05
-5.09372e-18
-6.68361e-21
-1.27226e-18
-8.82122e-22
5.5385e-05
-5.07606e-18
-6.69621e-21
-1.28845e-18
-8.61255e-22
5.63801e-05
-5.05269e-18
-6.71037e-21
-1.2976e-18
-8.40977e-22
5.73916e-05
-5.02435e-18
-6.72357e-21
-1.31321e-18
-8.40864e-22
5.84199e-05
-5.00228e-18
-6.73531e-21
-1.32608e-18
-8.43695e-22
5.94651e-05
-4.97837e-18
-6.73905e-21
-1.3433e-18
-8.56228e-22
6.05277e-05
-4.95898e-18
-6.75614e-21
-1.36414e-18
-8.68984e-22
6.16078e-05
-4.9277e-18
-6.77594e-21
-1.37737e-18
-8.8511e-22
6.27057e-05
-4.91201e-18
-6.81366e-21
-1.39708e-18
-9.02331e-22
6.38218e-05
-4.88988e-18
-6.85508e-21
-1.41604e-18
-9.08732e-22
6.49563e-05
-4.86517e-18
-6.9089e-21
-1.42065e-18
-9.21111e-22
6.61096e-05
-4.84617e-18
-6.9891e-21
-1.4558e-18
-9.31457e-22
6.72819e-05
-4.82552e-18
-7.07071e-21
-1.47319e-18
-9.2061e-22
6.84736e-05
-4.81497e-18
-7.15864e-21
-1.49272e-18
-9.1039e-22
6.9685e-05
-4.7962e-18
-7.25073e-21
-1.5158e-18
-8.94512e-22
7.09163e-05
-4.77629e-18
-7.35565e-21
-1.51881e-18
-8.69063e-22
7.21681e-05
-4.74644e-18
-7.47497e-21
-1.53075e-18
-8.65476e-22
7.34404e-05
-4.73339e-18
-7.61043e-21
-1.54879e-18
-8.83709e-22
7.47338e-05
-4.70717e-18
-7.72081e-21
-1.57804e-18
-9.18532e-22
7.60486e-05
-4.67794e-18
-7.8433e-21
-1.59433e-18
-9.32166e-22
7.73851e-05
-4.65413e-18
-7.97398e-21
-1.61336e-18
-9.51713e-22
7.87436e-05
-4.62295e-18
-8.07647e-21
-1.63656e-18
-9.75523e-22
8.01245e-05
-4.58897e-18
-8.19903e-21
-1.65919e-18
-9.76679e-22
8.15282e-05
-4.56128e-18
-8.33805e-21
-1.67899e-18
-9.58795e-22
8.29551e-05
-4.52384e-18
-8.48342e-21
-1.70396e-18
-9.62805e-22
8.44055e-05
-4.48884e-18
-8.60895e-21
-1.72619e-18
-9.58553e-22
8.58799e-05
-4.47731e-18
-8.73312e-21
-1.74742e-18
-9.42734e-22
8.73786e-05
-4.43803e-18
-8.83417e-21
-1.75677e-18
-8.95946e-22
8.89019e-05
-4.39881e-18
-8.92003e-21
-1.77698e-18
-8.81695e-22
9.04504e-05
-4.37676e-18
-8.98758e-21
-1.78149e-18
-8.74085e-22
9.20244e-05
-4.34434e-18
-9.04549e-21
-1.81181e-18
-9.10067e-22
9.36243e-05
-4.29991e-18
-9.09068e-21
-1.83914e-18
-9.35746e-22
9.52507e-05
-4.27178e-18
-9.14306e-21
-1.86877e-18
-9.68286e-22
9.69037e-05
-4.23081e-18
-9.18495e-21
-1.88866e-18
-1.00562e-21
9.85841e-05
-4.18941e-18
-9.26227e-21
-1.90014e-18
-1.0236e-21
0.000100292
-4.14717e-18
-9.35057e-21
-1.92949e-18
-1.08231e-21
0.000102028
-4.0984e-18
-9.47164e-21
-1.9547e-18
-1.1448e-21
0.000103793
-4.06279e-18
-9.60821e-21
-1.99009e-18
-1.18738e-21
0.000105587
-4.02971e-18
-9.74106e-21
-2.00618e-18
-1.19565e-21
0.00010741
-3.98445e-18
-9.88991e-21
-2.02887e-18
-1.21661e-21
0.000109263
-3.9462e-18
-1.00932e-20
-2.05793e-18
-1.22156e-21
0.000111147
-3.88879e-18
-1.02067e-20
-2.09896e-18
-1.19803e-21
0.000113061
-3.84104e-18
-1.03546e-20
-2.121e-18
-1.17378e-21
0.000115007
-3.79652e-18
-1.05629e-20
-2.15379e-18
-1.17623e-21
0.000116985
-3.71968e-18
-1.07476e-20
-2.18535e-18
-1.17747e-21
0.000118996
-3.71235e-18
-1.10175e-20
-2.18594e-18
-1.15003e-21
0.000121039
-3.69026e-18
-1.11583e-20
-2.17329e-18
-1.21744e-21
0.000123117
-3.69776e-18
-1.13072e-20
-2.16809e-18
-1.26448e-21
0.000125228
-3.68541e-18
-1.13225e-20
-2.16247e-18
-1.3094e-21
0.000127374
-3.69064e-18
-1.13358e-20
-2.16398e-18
-1.35238e-21
0.000129555
-3.6673e-18
-1.12862e-20
-2.15251e-18
-1.33273e-21
0.000131771
-3.65222e-18
-1.12842e-20
-2.15032e-18
-1.24489e-21
0.000134024
-3.63451e-18
-1.13351e-20
-2.1624e-18
-1.09092e-21
0.000136314
-3.61311e-18
-1.14265e-20
-2.16541e-18
-8.81667e-22
0.000138642
-3.6226e-18
-1.15845e-20
-2.16006e-18
-6.1873e-22
0.000141008
-3.62761e-18
-1.15278e-20
-2.14189e-18
-6.1454e-22
0.000143412
-3.59508e-18
-1.1433e-20
-2.15769e-18
-7.37934e-22
0.000145856
-3.5789e-18
-1.14331e-20
-2.12274e-18
-7.57961e-22
0.000148339
-3.53757e-18
-1.14052e-20
-2.16807e-18
-9.83434e-22
0.000150864
-3.53989e-18
-1.13449e-20
-2.14577e-18
-1.14317e-21
0.000153429
-3.52534e-18
-1.11658e-20
-2.15208e-18
-1.37342e-21
0.000156037
-3.50711e-18
-1.0972e-20
-2.17245e-18
-1.68573e-21
0.000158687
-3.46539e-18
-1.07814e-20
-2.20594e-18
-1.93433e-21
0.00016138
-3.45509e-18
-1.06522e-20
-2.19658e-18
-1.92911e-21
0.000164117
-3.43902e-18
-1.05885e-20
-2.23313e-18
-1.88266e-21
0.000166899
-3.41784e-18
-1.05554e-20
-2.24265e-18
-1.83133e-21
0.000169726
-3.40389e-18
-1.07218e-20
-2.24907e-18
-1.74651e-21
0.000172599
-3.37867e-18
-1.08828e-20
-2.25867e-18
-1.63605e-21
0.000175519
-3.35442e-18
-1.11301e-20
-2.24497e-18
-1.65483e-21
0.000178487
-3.32901e-18
-1.1296e-20
-2.25328e-18
-1.81244e-21
0.000181503
-3.30956e-18
-1.14831e-20
-2.25959e-18
-1.64222e-21
0.000184568
-3.28629e-18
-1.16677e-20
-2.26266e-18
-1.47532e-21
0.000187683
-3.25724e-18
-1.18067e-20
-2.25135e-18
-1.55273e-21
0.000190848
-3.25869e-18
-1.18981e-20
-2.24443e-18
-1.79566e-21
0.000194065
-3.22974e-18
-1.17801e-20
-2.24613e-18
-2.04979e-21
0.000197334
-3.2298e-18
-1.19472e-20
-2.24996e-18
-2.10876e-21
0.000200656
-3.20742e-18
-1.17837e-20
-2.25288e-18
-2.41488e-21
0.000204032
-3.19265e-18
-1.15355e-20
-2.2487e-18
-2.86833e-21
0.000207462
-3.1821e-18
-1.14557e-20
-2.26916e-18
-3.45927e-21
0.000210949
-3.17493e-18
-1.13481e-20
-2.26071e-18
-3.81535e-21
0.000214491
-3.11858e-18
-1.12018e-20
-2.26244e-18
-4.00921e-21
0.000218091
-3.13278e-18
-1.11555e-20
-2.24439e-18
-4.26818e-21
0.000221749
-3.10454e-18
-1.09061e-20
-2.23995e-18
-4.95799e-21
0.000225466
-3.07095e-18
-1.06415e-20
-2.25947e-18
-5.5345e-21
0.000229243
-3.02481e-18
-1.04353e-20
-2.28468e-18
-5.84731e-21
0.000233081
-3.02242e-18
-1.05921e-20
-2.25031e-18
-6.00537e-21
0.000236981
-3.00686e-18
-1.04833e-20
-2.23296e-18
-6.4402e-21
0.000240944
-3.00414e-18
-1.03261e-20
-2.18391e-18
-7.16971e-21
0.00024497
-2.9936e-18
-9.83545e-21
-2.21771e-18
-8.45972e-21
0.000249062
-2.92069e-18
-9.36635e-21
-2.24385e-18
-8.40563e-21
0.000253219
-2.86078e-18
-8.40653e-21
-2.28702e-18
-8.65857e-21
0.000257442
-2.7794e-18
-7.3793e-21
-2.19628e-18
-9.05003e-21
0.000261734
-2.70516e-18
-6.40415e-21
-2.22065e-18
-9.68998e-21
0.000266094
-2.66395e-18
-6.09461e-21
-2.16792e-18
-9.44418e-21
0.000270524
-2.58771e-18
-5.51254e-21
-2.15859e-18
-9.46751e-21
0.000275025
-2.56184e-18
-4.92542e-21
-2.18245e-18
-9.22522e-21
0.000279598
-2.49062e-18
-4.18031e-21
-2.1884e-18
-8.76133e-21
0.000284243
-2.4539e-18
-4.45753e-21
-2.17562e-18
-7.5778e-21
0.000288963
-2.38241e-18
-4.57369e-21
-2.10215e-18
-7.00552e-21
0.000293758
-2.34601e-18
-4.89336e-21
-2.10715e-18
-7.35775e-21
0.00029863
-2.31644e-18
-5.2952e-21
-2.11337e-18
-7.99345e-21
0.000303578
-2.26656e-18
-5.56274e-21
-2.1125e-18
-8.43032e-21
0.000308606
-2.25321e-18
-5.52898e-21
-2.03455e-18
-8.27475e-21
0.000313713
-2.17714e-18
-5.89294e-21
-1.9891e-18
-8.34869e-21
0.000318901
-2.17364e-18
-7.45779e-21
-1.99216e-18
-8.75029e-21
0.000324171
-2.13864e-18
-7.85981e-21
-1.96582e-18
-7.69394e-21
0.000329524
-2.05391e-18
-7.39875e-21
-1.96602e-18
-7.68501e-21
0.000334961
-2.03608e-18
-6.59605e-21
-1.88172e-18
-8.56736e-21
0.000340484
-1.99954e-18
-5.61516e-21
-1.8262e-18
-1.05122e-20
0.000346094
-1.82345e-18
-4.39957e-21
-1.80817e-18
-1.31177e-20
0.000351792
-1.82189e-18
-5.40945e-21
-1.81029e-18
-1.56882e-20
0.00035758
-1.79443e-18
-5.48548e-21
-1.73368e-18
-1.69472e-20
0.000363457
-1.65305e-18
-5.33105e-21
-1.77164e-18
-1.67556e-20
0.000369427
-1.66195e-18
-6.64068e-21
-1.74875e-18
-1.56108e-20
0.00037549
-1.60663e-18
-7.27013e-21
-1.70762e-18
-1.4274e-20
0.000381646
-1.6006e-18
-8.40096e-21
-1.68001e-18
-1.36175e-20
0.000387899
-1.64691e-18
-8.56275e-21
-1.64628e-18
-1.41899e-20
0.000394248
-1.58996e-18
-7.04694e-21
-1.63958e-18
-1.44619e-20
0.000400695
-1.59131e-18
-6.27836e-21
-1.56205e-18
-1.41258e-20
0.000407242
-1.5553e-18
-4.10015e-21
-1.53448e-18
-1.35124e-20
0.00041389
-1.51094e-18
-4.94057e-21
-1.5099e-18
-1.21162e-20
0.000420639
-1.52716e-18
-5.1778e-21
-1.50144e-18
-1.25304e-20
0.000427492
-1.49508e-18
-4.89533e-21
-1.48519e-18
-1.17513e-20
0.000434449
-1.53629e-18
-3.19314e-21
-1.41427e-18
-9.74134e-21
0.000441512
-1.50791e-18
5.8179e-22
-1.42322e-18
-8.18199e-21
0.000448682
-1.49519e-18
1.17477e-21
-1.4038e-18
-5.18022e-21
0.00045596
-1.46426e-18
6.74788e-22
-1.36039e-18
-4.05044e-21
0.000463348
-1.47019e-18
-1.82867e-22
-1.40886e-18
-4.00863e-21
0.000470847
-1.32936e-18
3.27482e-21
-1.51349e-18
-4.10804e-21
0.000478458
-1.36948e-18
1.48186e-21
-1.5666e-18
3.61703e-22
0.000486182
-1.48298e-18
7.91397e-22
-1.43937e-18
2.97094e-21
0.00049402
-1.42495e-18
1.42176e-22
-1.39467e-18
1.57079e-21
0.000501975
-1.46231e-18
2.71478e-21
-1.35311e-18
2.51724e-21
0.000510046
-1.32883e-18
5.66414e-21
-1.3584e-18
1.00387e-21
0.000518235
-1.3162e-18
8.21109e-23
-1.25962e-18
-8.78941e-22
0.000526543
-1.34504e-18
-7.01859e-21
-1.2378e-18
-5.46494e-21
0.000534971
-1.27555e-18
-9.39759e-21
-1.26216e-18
-1.23318e-20
0.00054352
-1.21653e-18
-1.33037e-20
-1.28492e-18
-2.00041e-20
0.000552191
-1.27436e-18
-1.93322e-20
-1.32006e-18
-2.63723e-20
0.000560984
-1.17768e-18
-2.13109e-20
-1.30572e-18
-3.45918e-20
0.000569902
-1.07515e-18
-2.87964e-20
-1.33518e-18
-4.27884e-20
0.000578943
-1.31897e-18
-3.95354e-20
-1.37558e-18
-4.25448e-20
0.00058811
-1.29331e-18
-3.39171e-20
-1.40974e-18
-3.84603e-20
0.000597402
-1.39197e-18
-3.88517e-20
-1.30497e-18
-3.81204e-20
0.00060682
-1.37956e-18
-4.63529e-20
-1.3321e-18
-3.81906e-20
0.000616365
-1.43206e-18
-4.78377e-20
-1.40599e-18
-3.30902e-20
0.000626036
-1.40639e-18
-4.35323e-20
-1.40266e-18
-2.94942e-20
0.000635834
-1.41851e-18
-4.55658e-20
-1.41297e-18
-2.72584e-20
0.000645758
-1.68054e-18
-4.63763e-20
-1.39652e-18
-2.40401e-20
0.000655809
-1.5423e-18
-3.237e-20
-1.51154e-18
-2.32017e-20
0.000665985
-1.51825e-18
-2.84385e-20
-1.51607e-18
-2.2021e-20
0.000676287
-1.5612e-18
-3.48079e-20
-1.52736e-18
-2.13001e-20
0.000686714
-1.5375e-18
-4.35081e-20
-1.50547e-18
-2.01303e-20
0.000697264
-1.50469e-18
-5.09314e-20
-1.55048e-18
-2.11807e-20
0.000707936
-1.45165e-18
-5.3086e-20
-1.57937e-18
-2.60897e-20
0.000718729
-1.47764e-18
-6.09479e-20
-1.59067e-18
-2.6833e-20
0.00072964
-1.50337e-18
-5.02817e-20
-1.53123e-18
-2.65896e-20
0.000740669
-1.47978e-18
-5.08256e-20
-1.39229e-18
-2.97715e-20
0.000751812
-1.44911e-18
-4.12755e-20
-1.37293e-18
-4.308e-20
0.000763067
-1.40102e-18
-5.07525e-20
-1.36e-18
-4.76966e-20
0.000774431
-1.39736e-18
-4.48382e-20
-1.41313e-18
-5.27466e-20
0.000785901
-1.35554e-18
-4.00239e-20
-1.39552e-18
-4.44475e-20
0.000797473
-1.34772e-18
-4.06463e-20
-1.3737e-18
-3.82042e-20
0.000809144
-4.019e-20
-1.43775e-18
-3.83233e-20
-1.27875e-18
1.6972e-08
-3.97159e-22
-9.04233e-23
5.19017e-08
-1.65836e-21
-4.8485e-22
8.835e-08
-2.95096e-21
-9.00708e-22
1.26368e-07
-4.30381e-21
-1.28831e-21
1.6601e-07
-5.68382e-21
-1.71285e-21
2.07329e-07
-7.11991e-21
-2.16584e-21
2.50383e-07
-8.60967e-21
-2.68705e-21
2.95229e-07
-1.01035e-20
-3.27348e-21
3.41927e-07
-1.16549e-20
-3.83945e-21
3.90538e-07
-1.32215e-20
-4.42881e-21
4.41128e-07
-1.48421e-20
-4.9843e-21
4.9376e-07
-1.65342e-20
-5.58664e-21
5.48503e-07
-1.82346e-20
-6.38466e-21
6.05425e-07
-1.99917e-20
-7.04678e-21
6.64598e-07
-2.18191e-20
-7.78615e-21
7.26095e-07
-2.36646e-20
-8.45222e-21
7.89992e-07
-2.56089e-20
-9.1609e-21
8.56364e-07
-2.77288e-20
-9.91022e-21
9.25292e-07
-2.96469e-20
-1.06927e-20
9.96855e-07
-3.18755e-20
-1.14495e-20
1.07114e-06
-3.38743e-20
-1.23971e-20
1.14822e-06
-3.61996e-20
-1.34237e-20
1.22818e-06
-3.82472e-20
-1.44886e-20
1.31112e-06
-4.08613e-20
-1.54239e-20
1.39712e-06
-4.32309e-20
-1.64549e-20
1.48626e-06
-4.60138e-20
-1.73585e-20
1.57863e-06
-4.89235e-20
-1.85529e-20
1.67431e-06
-5.1515e-20
-1.98812e-20
1.77339e-06
-5.43938e-20
-2.12009e-20
1.87596e-06
-5.72469e-20
-2.2618e-20
1.98208e-06
-6.00488e-20
-2.38225e-20
2.09184e-06
-6.30855e-20
-2.51876e-20
2.2053e-06
-6.62477e-20
-2.68832e-20
2.32253e-06
-6.94383e-20
-2.85224e-20
2.4436e-06
-7.25729e-20
-3.02491e-20
2.56854e-06
-7.62779e-20
-3.21013e-20
2.69741e-06
-7.97062e-20
-3.39939e-20
2.83024e-06
-8.35002e-20
-3.56523e-20
2.96705e-06
-8.69627e-20
-3.73168e-20
3.10787e-06
-9.06959e-20
-3.89619e-20
3.25269e-06
-9.42478e-20
-4.13187e-20
3.40151e-06
-9.87384e-20
-4.34788e-20
3.55433e-06
-1.04206e-19
-4.52349e-20
3.7111e-06
-1.08398e-19
-4.75172e-20
3.87181e-06
-1.12551e-19
-4.9503e-20
4.03641e-06
-1.16687e-19
-5.12825e-20
4.20486e-06
-1.22267e-19
-5.29858e-20
4.3771e-06
-1.26585e-19
-5.44398e-20
4.55308e-06
-1.31175e-19
-5.6284e-20
4.73274e-06
-1.36474e-19
-5.81968e-20
4.91603e-06
-1.4164e-19
-5.98907e-20
5.10287e-06
-1.46488e-19
-6.3241e-20
5.29323e-06
-1.50905e-19
-6.5805e-20
5.48705e-06
-1.56401e-19
-6.78133e-20
5.68427e-06
-1.61274e-19
-6.95578e-20
5.88485e-06
-1.66851e-19
-7.16607e-20
6.08876e-06
-1.72115e-19
-7.41999e-20
6.29596e-06
-1.77203e-19
-7.67732e-20
6.50643e-06
-1.82385e-19
-7.99496e-20
6.72014e-06
-1.86686e-19
-8.34368e-20
6.9371e-06
-1.91681e-19
-8.61585e-20
7.15729e-06
-1.96498e-19
-8.95575e-20
7.38071e-06
-2.00867e-19
-9.23844e-20
7.60738e-06
-2.06909e-19
-9.54403e-20
7.83731e-06
-2.1432e-19
-9.93546e-20
8.07052e-06
-2.18861e-19
-1.02968e-19
8.30704e-06
-2.25168e-19
-1.06291e-19
8.5469e-06
-2.30667e-19
-1.10793e-19
8.79014e-06
-2.34678e-19
-1.14659e-19
9.03679e-06
-2.38932e-19
-1.18865e-19
9.28692e-06
-2.43419e-19
-1.2247e-19
9.54057e-06
-2.48904e-19
-1.261e-19
9.79779e-06
-2.54707e-19
-1.30863e-19
1.00586e-05
-2.59345e-19
-1.35767e-19
1.03232e-05
-2.65111e-19
-1.3916e-19
1.05915e-05
-2.69943e-19
-1.4216e-19
1.08636e-05
-2.74746e-19
-1.46244e-19
1.11396e-05
-2.80724e-19
-1.50352e-19
1.14196e-05
-2.84912e-19
-1.55014e-19
1.17037e-05
-2.90759e-19
-1.58144e-19
1.19918e-05
-2.99561e-19
-1.60883e-19
1.22842e-05
-3.03996e-19
-1.65359e-19
1.25808e-05
-3.11433e-19
-1.65072e-19
1.28818e-05
-3.16316e-19
-1.71629e-19
1.31873e-05
-3.20149e-19
-1.74944e-19
1.34972e-05
-3.23346e-19
-1.81607e-19
1.38118e-05
-3.27394e-19
-1.85351e-19
1.41311e-05
-3.34559e-19
-1.85847e-19
1.44553e-05
-3.39578e-19
-1.9059e-19
1.47843e-05
-3.4586e-19
-1.91177e-19
1.51183e-05
-3.50489e-19
-1.95713e-19
1.54574e-05
-3.53817e-19
-2.02669e-19
1.58016e-05
-3.58389e-19
-2.09081e-19
1.61512e-05
-3.64202e-19
-2.16709e-19
1.65061e-05
-3.69223e-19
-2.24558e-19
1.68665e-05
-3.68611e-19
-2.31611e-19
1.72325e-05
-3.74964e-19
-2.38001e-19
1.76042e-05
-3.86734e-19
-2.39749e-19
1.79817e-05
-3.9153e-19
-2.40532e-19
1.83651e-05
-3.95323e-19
-2.38977e-19
1.87545e-05
-3.97965e-19
-2.38721e-19
1.91501e-05
-4.01747e-19
-2.45549e-19
1.95518e-05
-4.04989e-19
-2.49567e-19
1.996e-05
-4.08958e-19
-2.50871e-19
2.03746e-05
-4.13786e-19
-2.55233e-19
2.07958e-05
-4.16213e-19
-2.59492e-19
2.12236e-05
-4.18692e-19
-2.64027e-19
2.16584e-05
-4.20493e-19
-2.65753e-19
2.21e-05
-4.26888e-19
-2.65639e-19
2.25488e-05
-4.3105e-19
-2.67762e-19
2.30047e-05
-4.32577e-19
-2.7272e-19
2.3468e-05
-4.34871e-19
-2.75825e-19
2.39387e-05
-4.3697e-19
-2.7773e-19
2.4417e-05
-4.40531e-19
-2.83248e-19
2.4903e-05
-4.46348e-19
-2.87765e-19
2.53969e-05
-4.5095e-19
-2.8669e-19
2.58988e-05
-4.64524e-19
-2.87248e-19
2.64088e-05
-4.6994e-19
-2.94302e-19
2.69271e-05
-4.73748e-19
-2.99533e-19
2.74538e-05
-4.78005e-19
-3.03809e-19
2.79891e-05
-4.82358e-19
-3.0839e-19
2.85331e-05
-4.86817e-19
-3.13893e-19
2.9086e-05
-4.93419e-19
-3.16953e-19
2.96479e-05
-4.97212e-19
-3.19242e-19
3.0219e-05
-4.99943e-19
-3.17957e-19
3.07994e-05
-5.00779e-19
-3.10948e-19
3.13893e-05
-5.08424e-19
-3.15851e-19
3.19888e-05
-5.09817e-19
-3.11596e-19
3.25982e-05
-5.20559e-19
-3.12752e-19
3.32175e-05
-5.23952e-19
-3.17956e-19
3.3847e-05
-5.3347e-19
-3.14282e-19
3.44869e-05
-5.38763e-19
-3.22433e-19
3.51373e-05
-5.40752e-19
-3.25899e-19
3.57983e-05
-5.44313e-19
-3.29693e-19
3.64702e-05
-5.44435e-19
-3.34234e-19
3.71532e-05
-5.53455e-19
-3.41447e-19
3.78474e-05
-5.57413e-19
-3.42001e-19
3.8553e-05
-5.53293e-19
-3.4799e-19
3.92702e-05
-5.47007e-19
-3.51535e-19
3.99993e-05
-5.45083e-19
-3.57496e-19
4.07403e-05
-5.46977e-19
-3.56862e-19
4.14936e-05
-5.49801e-19
-3.67342e-19
4.22593e-05
-5.60932e-19
-3.69681e-19
4.30376e-05
-5.65465e-19
-3.7898e-19
4.38288e-05
-5.6933e-19
-3.89004e-19
4.4633e-05
-5.72268e-19
-3.97037e-19
4.54505e-05
-5.80859e-19
-3.94434e-19
4.62815e-05
-5.8848e-19
-3.90449e-19
4.71262e-05
-5.87518e-19
-3.93316e-19
4.79849e-05
-5.90666e-19
-4.01128e-19
4.88577e-05
-5.97623e-19
-4.0252e-19
4.9745e-05
-5.91974e-19
-4.10226e-19
5.06469e-05
-5.98517e-19
-4.16727e-19
5.15637e-05
-5.97483e-19
-4.18258e-19
5.24957e-05
-6.00614e-19
-4.20117e-19
5.3443e-05
-6.05899e-19
-4.28115e-19
5.4406e-05
-6.00836e-19
-4.18163e-19
5.5385e-05
-6.10167e-19
-4.17612e-19
5.63801e-05
-6.13189e-19
-4.26704e-19
5.73916e-05
-6.18513e-19
-4.25852e-19
5.84199e-05
-6.20738e-19
-4.4276e-19
5.94651e-05
-6.36088e-19
-4.48162e-19
6.05277e-05
-6.31947e-19
-4.53445e-19
6.16078e-05
-6.24062e-19
-4.53575e-19
6.27057e-05
-6.23246e-19
-4.53611e-19
6.38218e-05
-6.31223e-19
-4.68963e-19
6.49563e-05
-6.49351e-19
-4.56394e-19
6.61096e-05
-6.51067e-19
-4.61832e-19
6.72819e-05
-6.54545e-19
-4.70703e-19
6.84736e-05
-6.68819e-19
-4.67755e-19
6.9685e-05
-6.87924e-19
-4.70091e-19
7.09163e-05
-7.01823e-19
-4.77501e-19
7.21681e-05
-7.04605e-19
-4.8384e-19
7.34404e-05
-6.94205e-19
-4.93297e-19
7.47338e-05
-6.96897e-19
-4.99144e-19
7.60486e-05
-6.96738e-19
-5.105e-19
7.73851e-05
-6.84331e-19
-5.08571e-19
7.87436e-05
-6.9846e-19
-5.07439e-19
8.01245e-05
-7.02186e-19
-5.1259e-19
8.15282e-05
-7.07457e-19
-5.21227e-19
8.29551e-05
-6.90502e-19
-5.11502e-19
8.44055e-05
-6.89003e-19
-5.10039e-19
8.58799e-05
-7.05003e-19
-5.06869e-19
8.73786e-05
-7.06471e-19
-5.20787e-19
8.89019e-05
-7.07339e-19
-5.19287e-19
9.04504e-05
-7.33732e-19
-5.3117e-19
9.20244e-05
-7.51339e-19
-5.36288e-19
9.36243e-05
-7.65149e-19
-5.38157e-19
9.52507e-05
-7.76437e-19
-5.41576e-19
9.69037e-05
-7.89242e-19
-5.31772e-19
9.85841e-05
-7.85946e-19
-5.44431e-19
0.000100292
-7.97288e-19
-5.56619e-19
0.000102028
-7.97452e-19
-5.61154e-19
0.000103793
-7.98242e-19
-5.66706e-19
0.000105587
-8.08633e-19
-5.63799e-19
0.00010741
-8.23686e-19
-5.60035e-19
0.000109263
-7.88246e-19
-5.57104e-19
0.000111147
-7.80798e-19
-5.62686e-19
0.000113061
-7.82777e-19
-5.6487e-19
0.000115007
-7.57703e-19
-5.69255e-19
0.000116985
-7.464e-19
-5.56964e-19
0.000118996
-7.25336e-19
-5.67436e-19
0.000121039
-7.30971e-19
-5.45819e-19
0.000123117
-7.12477e-19
-5.59885e-19
0.000125228
-7.18608e-19
-5.69186e-19
0.000127374
-7.2835e-19
-5.61492e-19
0.000129555
-7.45422e-19
-5.4354e-19
0.000131771
-7.5836e-19
-5.2413e-19
0.000134024
-7.56076e-19
-5.24328e-19
0.000136314
-7.61244e-19
-5.23179e-19
0.000138642
-7.3022e-19
-5.66993e-19
0.000141008
-7.54159e-19
-5.58511e-19
0.000143412
-7.76845e-19
-5.48924e-19
0.000145856
-7.75423e-19
-5.6251e-19
0.000148339
-7.47241e-19
-5.89894e-19
0.000150864
-7.50615e-19
-5.82811e-19
0.000153429
-7.5756e-19
-5.9842e-19
0.000156037
-7.64545e-19
-6.07566e-19
0.000158687
-7.64572e-19
-6.02737e-19
0.00016138
-7.87883e-19
-5.75647e-19
0.000164117
-7.88874e-19
-5.89672e-19
0.000166899
-8.14008e-19
-6.07115e-19
0.000169726
-8.08493e-19
-6.14291e-19
0.000172599
-8.11066e-19
-6.15203e-19
0.000175519
-7.88759e-19
-6.20463e-19
0.000178487
-7.90801e-19
-5.99724e-19
0.000181503
-7.91041e-19
-6.09091e-19
0.000184568
-7.85561e-19
-6.28717e-19
0.000187683
-7.88461e-19
-6.37526e-19
0.000190848
-7.97326e-19
-6.49277e-19
0.000194065
-8.43558e-19
-6.35265e-19
0.000197334
-8.22802e-19
-6.66029e-19
0.000200656
-8.11823e-19
-6.70269e-19
0.000204032
-8.36632e-19
-6.90956e-19
0.000207462
-8.30485e-19