/*--------------------------------*- C++ -*----------------------------------*\
| =========                 |                                                 |
| \\      /  F ield         | OpenFOAM: The Open Source CFD Toolbox           |
|  \\    /   O peration     | Version:  2012                                  |
|   \\  /    A nd           | Website:  www.openfoam.com                      |
|    \\/     M anipulation  |                                                 |
\*---------------------------------------------------------------------------*/
FoamFile
{
    version     2.0;
    format      ascii;
    class       volTensorField;
    location    "20000";
    object      grad(U);
}
// * * * * * * * * * * * * * * * * * * * * * * * * * * * * * * * * * * * * * //

dimensions      [0 0 -1 0 0 0 0];


internalField   nonuniform List<tensor> 
80
(
(0 0 0 47.4415 3.00519e-13 1.43418e-13 1.93012 6.86226e-15 2.71611e-15)
(0 0 0 47.4415 -1.77514e-14 1.48434e-13 1.93012 3.47233e-15 1.09862e-15)
(8.06542e-16 3.17591e-28 1.47208e-28 38.9655 1.11915e-30 -1.22403e-29 6.98086 0 1.57772e-30)
(1.61308e-15 -2.8026e-45 -3.79794e-30 38.9655 -1.89327e-29 3.9128e-15 6.98086 -5.58175e-45 5.25983e-16)
(0 6.87108e-30 0 20.8382 -1.06481e-13 -3.10588e-14 6.41738 1.87899e-14 8.23899e-15)
(3.39383e-15 -6.87108e-30 0 20.8382 6.06246e-14 9.94704e-31 6.41738 6.37435e-15 0)
(0 -2.05955e-30 2.05955e-30 7.14001 -2.28349e-14 -1.57475e-14 3.5466 1.61829e-14 5.01357e-15)
(6.76861e-15 0 -2.05955e-30 7.14001 7.95162e-16 -1.95354e-14 3.5466 8.15902e-15 6.59719e-15)
(6.57904e-16 4.93868e-30 0 2.44368 -1.03419e-14 -6.1789e-15 2.2202 1.34428e-14 3.83317e-15)
(0 -2.46934e-30 1.23467e-30 2.44368 1.49147e-15 -1.07824e-14 2.2202 9.459e-15 3.5293e-15)
(-2.36715e-15 -7.82277e-31 0 0.948812 -8.59833e-16 -5.22379e-15 1.56616 8.1603e-15 -2.46519e-30)
(0 0 0 0.948812 1.20723e-16 -9.32013e-15 1.56616 9.37121e-15 -1.47911e-30)
(2.52272e-15 2.28642e-30 0 0.414562 -3.17523e-16 -5.56889e-15 1.22824 7.99636e-15 6.90253e-30)
(0 0 0 0.414562 -4.19176e-16 -6.88224e-15 1.22824 7.9377e-15 -3.17486e-15)
(-4.79186e-15 -1.06809e-30 0 0.19891 4.21022e-16 -5.21645e-15 1.02519 9.9536e-15 -7.88861e-30)
(1.05445e-14 0 2.12801e-30 0.19891 4.57636e-31 -4.02027e-15 1.02519 9.55029e-15 1.18329e-29)
(-5.59957e-15 -4.40349e-30 -1.09072e-45 0.100608 -3.85473e-17 2.25774e-46 0.883493 9.78273e-16 7.85945e-30)
(2.18154e-14 1.43815e-29 5.00978e-30 0.100608 1.01406e-16 1.3326e-16 0.883493 1.46035e-15 -1.58005e-29)
(1.18038e-18 -7.586e-31 5.3355e-31 0 -2.24308e-15 0 5.90189e-19 5.85303e-15 2.94025e-46)
(0 7.8995e-31 -1.44446e-30 5.17173e-29 -2.03523e-15 -9.63048e-16 5.90189e-19 5.22962e-15 -2.59465e-16)
(3.36348e-16 2.98737e-31 0 47.4415 1.55906e-14 -1.35523e-14 -1.93012 -6.86226e-15 -2.71611e-15)
(0 0 -2.98737e-31 47.4415 8.19583e-15 -1.10869e-13 -1.93012 -3.47233e-15 -1.09862e-15)
(0 -2.2386e-31 -8.59624e-30 38.9655 9.31271e-15 -7.74462e-15 -6.98086 -3.22574e-14 -1.09966e-14)
(0 2.2386e-31 -2.44901e-30 38.9655 8.51494e-15 -1.26218e-29 -6.98086 6.81948e-15 -2.20587e-15)
(-1.93404e-15 -1.71777e-30 -1.71777e-30 20.8382 2.26673e-14 4.89945e-15 -6.41738 -1.87899e-14 -8.23899e-15)
(0 8.58885e-31 2.57666e-30 20.8382 1.89139e-14 3.84507e-14 -6.41738 -6.37435e-15 -7.1676e-15)
(3.38431e-15 0 -1.80211e-30 7.14001 8.62897e-15 2.59971e-15 -3.5466 -1.61829e-14 -5.01357e-15)
(-6.76861e-15 -2.20352e-30 2.317e-30 7.14001 7.18529e-15 1.14805e-14 -3.5466 -4.18951e-15 -6.59719e-15)
(0 0 -1.08034e-30 2.44368 3.25401e-15 -7.91703e-16 -2.2202 -3.07258e-15 -3.83317e-15)
(0 0 1.08034e-30 2.44368 4.40744e-15 3.94324e-16 -2.2202 -9.459e-15 -3.5293e-15)
(2.36715e-15 1.55709e-30 -1.64032e-32 0.948812 7.04659e-16 4.95706e-16 -1.56616 -8.937e-16 2.5308e-30)
(-9.46859e-15 1.75162e-45 -1.39391e-30 0.948812 -3.9443e-31 1.80051e-16 -1.56616 2.88332e-30 8.52036e-32)
(0 -1.79576e-30 0 0.414562 -4.78104e-16 5.56889e-15 -1.22824 -8.30074e-16 -6.90253e-30)
(-2.01817e-14 -1.11714e-29 0 0.414562 -1.01551e-15 5.96644e-15 -1.22824 -2.73023e-15 3.17486e-15)
(0 0 0 0.19891 -1.21556e-16 5.21645e-15 -1.02519 -7.24025e-15 7.88861e-30)
(-1.05445e-14 -8.29697e-31 0 0.19891 -2.67562e-18 5.39102e-15 -1.02519 -8.05564e-15 -1.18329e-29)
(-8.47221e-15 -1.93098e-30 0 0.100608 -8.72482e-17 -1.2761e-46 -0.883493 -4.21498e-16 8.81234e-31)
(-1.09077e-14 -1.09476e-46 -5.10284e-30 0.100608 -4.93038e-32 -1.3326e-16 -0.883493 -3.07504e-32 1.56795e-29)
(3.04391e-16 2.2943e-30 0 0 -1.9615e-15 1.07407e-15 0 -5.85303e-15 -3.84464e-15)
(-1.49835e-16 -1.52954e-30 1.33123e-44 6.93889e-18 -2.43733e-15 3.9443e-31 3.55507e-15 -5.22962e-15 2.04493e-29)
(-2.91025e-15 1.77054e-42 3.87508e-31 -2.79257e-09 1.99288e-28 -1.97215e-31 2.25028e-08 8.62601e-46 2.79229e-15)
(1.16433e-14 -1.22498e-29 0 -2.7922e-09 2.57635e-17 -2.12736e-16 2.25028e-08 -2.07618e-16 1.03125e-15)
(-2.72692e-15 2.8026e-45 0 -0.100608 -1.97215e-31 9.14789e-15 0.883493 0 7.13221e-16)
(-1.09077e-14 -4.28684e-30 0 -0.100608 2.44795e-16 9.11067e-15 0.883493 1.18261e-15 -1.38858e-15)
(4.79186e-15 -4.30697e-32 3.66335e-31 -0.19891 -1.93866e-16 3.28079e-17 1.02519 4.06612e-16 9.50155e-17)
(0 0 3.41917e-43 -0.19891 7.74235e-44 -3.85182e-29 1.02519 1.35178e-17 0)
(-5.04544e-15 -1.3842e-32 0 -0.414562 6.40455e-17 -1.86332e-15 1.22824 1.11194e-16 -3.69079e-16)
(1.00909e-14 0 0 -0.414562 3.05783e-16 0 1.22824 1.84961e-16 3.15014e-15)
(3.33341e-15 2.77562e-31 3.70082e-31 -0.948812 4.37134e-17 -4.68582e-16 1.56616 -5.52603e-16 -6.48086e-16)
(-3.33341e-15 -3.1956e-32 -8.84038e-32 -0.948812 -7.76386e-45 -1.26997e-44 1.56616 -1.15134e-16 -3.18508e-16)
(0 0 0 -2.44368 -6.40666e-30 -1.49288e-44 2.2202 0 -2.02264e-16)
(8.48929e-15 -3.85834e-32 0 -2.44368 -1.00244e-16 -1.18417e-15 2.2202 -2.76077e-16 8.10633e-17)
(6.26696e-16 0 0 -7.14001 -5.96569e-16 -1.88706e-15 3.5466 2.39307e-16 -2.67383e-16)
(4.44977e-15 0 0 -7.14001 8.36407e-16 -9.02034e-18 3.5466 1.97386e-16 4.3792e-16)
(0 -4.69055e-32 1.07361e-31 -20.8382 -4.97158e-16 4.79739e-16 6.41738 2.57051e-16 -3.20101e-16)
(-1.93404e-15 -1.75162e-45 -1.07361e-31 -20.8382 -6.44103e-31 1.32262e-15 6.41738 0 3.61963e-16)
(0 1.1193e-32 0 -38.9655 -5.67656e-16 -1.09664e-15 6.98086 8.79564e-17 -2.66499e-16)
(0 0 0 -38.9655 -1.55273e-15 -6.03613e-30 6.98086 -8.2268e-17 9.86076e-32)
(3.36348e-16 -7.02571e-46 -1.49369e-31 -47.4415 0 -8.05982e-15 1.93012 -3.08149e-33 4.52551e-17)
(0 1.16694e-32 1.49369e-31 -47.4415 -5.4878e-16 -1.22706e-14 1.93012 1.17075e-17 4.67994e-16)
(-3.44421e-15 6.11814e-30 -1.4013e-45 -2.79257e-09 1.49666e-16 0 -2.25028e-08 1.2061e-15 9.39429e-30)
(2.36076e-18 -4.09849e-32 2.76024e-34 -2.79239e-09 1.57425e-16 1.08685e-15 -2.25028e-08 1.26863e-15 -1.03125e-15)
(-3.01836e-15 9.96898e-31 -5.10284e-30 -0.100608 2.53288e-16 -9.48231e-15 -0.883493 -1.22364e-15 -7.13221e-16)
(-1.09077e-14 -7.22887e-30 0 -0.100608 1.97215e-31 -8.5655e-15 -0.883493 -2.38139e-29 1.38858e-15)
(-2.40195e-16 -1.09208e-31 -3.70564e-31 -0.19891 -6.8145e-16 2.05759e-42 -1.02519 -4.06612e-16 -6.67548e-16)
(-1.53363e-14 -1.27411e-31 -5.09241e-32 -0.19891 -5.26258e-16 -2.04008e-15 -1.02519 -1.35178e-17 -2.16838e-15)
(-5.04544e-15 4.5065e-32 3.49427e-30 -0.414562 -7.58673e-16 1.21482e-15 -1.22824 -1.80908e-16 3.69079e-16)
(-1.00909e-14 -4.5065e-32 0 -0.414562 -4.20504e-16 -1.397e-43 -1.22824 -1.84961e-16 -5.32404e-30)
(0 -2.62743e-45 0 -0.948812 -2.26545e-45 8.03238e-16 -1.56616 4.73317e-30 6.48086e-16)
(0 -1.85041e-31 1.4013e-45 -0.948812 -5.05016e-17 1.0083e-43 -1.56616 1.15134e-16 -1.00065e-29)
(-6.57904e-16 -1.92917e-32 3.08667e-31 -2.44368 1.00384e-15 1.60048e-15 -2.2202 -3.60663e-16 2.02264e-16)
(0 5.78751e-32 0 -2.44368 8.55717e-16 2.37935e-15 -2.2202 2.76077e-16 -8.10633e-17)
(-2.31885e-15 -3.21805e-32 7.72332e-31 -7.14001 2.64561e-16 1.58033e-15 -3.5466 -2.39307e-16 2.67383e-16)
(2.31885e-15 3.21805e-32 -7.72332e-31 -7.14001 -3.79223e-16 4.70249e-16 -3.5466 -1.97386e-16 -4.3792e-16)
(1.69692e-15 2.07539e-45 0 -20.8382 0 -3.57074e-16 -6.41738 2.71171e-30 3.20101e-16)
(3.39383e-15 -2.79305e-32 0 -20.8382 -2.46519e-32 7.09252e-17 -6.41738 -5.03151e-17 -3.61963e-16)
(0 2.2386e-32 -1.13372e-44 -38.9655 -1.35419e-15 8.43378e-44 -6.98086 -8.79564e-17 -2.04233e-29)
(0 -6.15616e-32 8.95442e-32 -38.9655 1.68755e-15 1.22175e-15 -6.98086 8.2268e-17 -6.57404e-16)
(-3.36348e-16 -5.83471e-33 1.86711e-31 -47.4415 -6.25412e-16 9.83655e-15 -1.93012 1.72845e-17 -4.52551e-17)
(0 6.41818e-33 -1.49369e-31 -47.4415 1.13236e-15 6.10701e-16 -1.93012 -1.17075e-17 -4.67994e-16)
)
;

boundaryField
{
    walls
    {
        type            extrapolatedCalculated;
        value           nonuniform List<tensor> 8((0 0 0 47.9021 3.00519e-13 1.39118e-13 1.93012 6.86226e-15 2.71611e-15) (3.36348e-16 2.98737e-31 0 47.9021 4.00979e-14 -4.30003e-15 -1.93012 -6.86226e-15 -2.71611e-15) (0 0 0 47.9021 1.46599e-13 1.12479e-13 1.93012 3.47233e-15 1.09862e-15) (0 0 -2.98737e-31 47.9021 2.57548e-14 -5.7947e-14 -1.93012 -3.47233e-15 -1.09862e-15) (3.36348e-16 -7.02571e-46 -1.49369e-31 -47.9021 9.75393e-16 -1.1984e-14 1.93012 -3.08149e-33 4.52551e-17) (-3.36348e-16 -5.83471e-33 1.86711e-31 -47.9021 -1.17454e-16 9.73774e-15 -1.93012 1.72845e-17 -4.52551e-17) (0 1.16694e-32 1.49369e-31 -47.9021 -8.90281e-16 -2.33756e-14 1.93012 1.17075e-17 4.67994e-16) (0 6.41818e-33 -1.49369e-31 -47.9021 3.09165e-16 1.46088e-16 -1.93012 -1.17075e-17 -4.67994e-16));
    }
    inlet
    {
        type            cyclic;
    }
    outlet
    {
        type            cyclic;
    }
    sides
    {
        type            empty;
    }
}


// ************************************************************************* //
