/*--------------------------------*- C++ -*----------------------------------*\
| =========                 |                                                 |
| \\      /  F ield         | OpenFOAM: The Open Source CFD Toolbox           |
|  \\    /   O peration     | Version:  2012                                  |
|   \\  /    A nd           | Website:  www.openfoam.com                      |
|    \\/     M anipulation  |                                                 |
\*---------------------------------------------------------------------------*/
FoamFile
{
    version     2.0;
    format      ascii;
    class       volScalarField;
    location    "20000";
    object      p;
}
// * * * * * * * * * * * * * * * * * * * * * * * * * * * * * * * * * * * * * //

dimensions      [0 2 -2 0 0 0 0];


internalField   nonuniform List<scalar> 
80
(
-1.18362e-16
-3.90425e-17
-1.97411e-16
-4.87661e-17
-2.31417e-16
-1.32336e-16
-2.94535e-16
-2.44661e-16
-4.33017e-16
-4.15024e-16
-6.11916e-16
-6.24377e-16
-9.49287e-16
-9.70017e-16
-1.45548e-15
-1.29697e-15
-2.43986e-15
-2.47145e-15
-5.58787e-15
-5.56503e-15
-4.08084e-16
-4.00173e-16
-4.01499e-16
-3.94876e-16
-3.92805e-16
-3.91993e-16
-3.90307e-16
-3.8174e-16
-4.17571e-16
-3.84597e-16
-4.98099e-16
-4.9393e-16
-8.04696e-16
-8.05921e-16
-1.44164e-15
-1.39018e-15
-2.50162e-15
-2.50523e-15
-6.14353e-15
-5.83963e-15
-7.13053e-16
-7.12714e-16
-1.35129e-15
-1.35817e-15
-1.08543e-15
-1.07767e-15
-9.27726e-16
-9.26257e-16
-8.62469e-16
-8.61981e-16
-8.31789e-16
-8.29461e-16
-8.19041e-16
-8.10616e-16
-8.14066e-16
-8.0664e-16
-8.13012e-16
-8.06716e-16
-8.12745e-16
-8.06758e-16
-4.38497e-16
-4.37014e-16
-1.37497e-15
-1.24264e-15
-1.10647e-15
-9.52792e-16
-9.25549e-16
-9.19176e-16
-8.606e-16
-8.61138e-16
-8.25539e-16
-8.3205e-16
-8.22203e-16
-8.4169e-16
-8.27078e-16
-8.38261e-16
-8.27842e-16
-8.37348e-16
-8.27651e-16
-8.37205e-16
)
;

boundaryField
{
    walls
    {
        type            zeroGradient;
    }
    inlet
    {
        type            cyclic;
    }
    outlet
    {
        type            cyclic;
    }
    sides
    {
        type            empty;
    }
}


// ************************************************************************* //
