/*--------------------------------*- C++ -*----------------------------------*\
| =========                 |                                                 |
| \\      /  F ield         | OpenFOAM: The Open Source CFD Toolbox           |
|  \\    /   O peration     | Version:  2012                                  |
|   \\  /    A nd           | Website:  www.openfoam.com                      |
|    \\/     M anipulation  |                                                 |
\*---------------------------------------------------------------------------*/
FoamFile
{
    version     2.0;
    format      ascii;
    class       surfaceScalarField;
    location    "20000";
    object      phi;
}
// * * * * * * * * * * * * * * * * * * * * * * * * * * * * * * * * * * * * * //

dimensions      [0 3 -1 0 0 0 0];
oriented        oriented;


internalField   nonuniform List<scalar> 
156
(
1.94427e-05
5.68304e-18
7.00888e-20
-1.93848e-20
5.48905e-20
0.000117301
4.55753e-18
4.3401e-19
4.86016e-19
1.52305e-19
0.000351242
3.41913e-18
4.79826e-19
8.76376e-19
2.21944e-19
0.000735933
2.45467e-18
5.24466e-19
1.19281e-18
3.31944e-19
0.00136592
1.41152e-18
4.01651e-19
1.22953e-18
3.41608e-19
0.00242291
1.28216e-18
1.12824e-19
1.30364e-18
7.42578e-20
0.00421161
1.05798e-18
-2.63766e-19
9.15316e-19
-4.03121e-19
0.0072477
1.14674e-18
7.88443e-20
1.15423e-18
-1.60853e-19
0.0123994
1.84612e-18
3.85672e-19
1.82762e-18
4.9034e-19
0.0211285
3.87281e-18
-1.91699e-18
1.91838e-18
-1.90243e-18
1.94427e-05
6.75802e-20
5.8855e-20
0.000117301
4.07276e-19
3.08592e-19
0.000351242
9.44847e-19
6.06457e-19
0.000735933
1.28881e-18
1.09255e-18
0.00136592
1.58572e-18
1.58178e-18
0.00242291
1.84199e-18
1.87228e-18
0.00421161
1.55125e-18
1.42658e-18
0.0072477
1.30325e-18
1.37734e-18
0.0123994
1.87335e-18
1.84381e-18
0.0211285
-2.15695e-18
-2.10535e-18
0.0211285
-5.48285e-19
-1.50246e-18
-5.26774e-19
-1.50983e-18
0.0123994
6.0693e-20
6.60668e-19
5.60098e-20
2.25116e-19
0.0072477
6.57659e-20
3.33569e-19
5.98494e-20
-2.98406e-19
0.00421161
6.05634e-21
-8.1969e-20
-2.05184e-20
-1.89454e-19
0.00242291
-4.63375e-20
-1.00707e-19
1.94042e-20
-1.05168e-19
0.00136592
5.38623e-20
-2.38688e-20
-1.98111e-20
-1.52888e-20
0.000735933
1.47603e-20
2.09405e-22
3.40902e-20
2.04754e-20
0.000351242
1.6162e-20
8.11673e-21
1.84231e-20
1.52869e-20
0.000117301
1.88181e-21
7.79232e-21
1.03894e-20
1.20672e-20
1.94427e-05
2.43206e-21
4.74389e-21
0.0211285
-5.42019e-19
-5.34032e-19
0.0123994
1.8898e-19
1.45073e-19
0.0072477
5.71067e-20
1.01985e-19
0.00421161
-2.37125e-19
-2.46265e-19
0.00242291
-1.86116e-19
-1.20487e-19
0.00136592
4.36643e-21
-2.35396e-20
0.000735933
3.82293e-20
-7.14608e-20
0.000351242
2.76774e-20
-3.89169e-20
0.000117301
-1.12682e-21
-8.12515e-21
1.94427e-05
)
;

boundaryField
{
    walls
    {
        type            calculated;
        value           uniform 0;
    }
    inlet
    {
        type            cyclic;
        value           nonuniform List<scalar> 
40
(
-1.94427e-05
-0.000117301
-0.000351242
-0.000735933
-0.00136592
-0.00242291
-0.00421161
-0.0072477
-0.0123994
-0.0211285
-1.94427e-05
-0.000117301
-0.000351242
-0.000735933
-0.00136592
-0.00242291
-0.00421161
-0.0072477
-0.0123994
-0.0211285
-0.0211285
-0.0123994
-0.0072477
-0.00421161
-0.00242291
-0.00136592
-0.000735933
-0.000351242
-0.000117301
-1.94427e-05
-0.0211285
-0.0123994
-0.0072477
-0.00421161
-0.00242291
-0.00136592
-0.000735933
-0.000351242
-0.000117301
-1.94427e-05
)
;
    }
    outlet
    {
        type            cyclic;
        value           nonuniform List<scalar> 
40
(
1.94427e-05
0.000117301
0.000351242
0.000735933
0.00136592
0.00242291
0.00421161
0.0072477
0.0123994
0.0211285
1.94427e-05
0.000117301
0.000351242
0.000735933
0.00136592
0.00242291
0.00421161
0.0072477
0.0123994
0.0211285
0.0211285
0.0123994
0.0072477
0.00421161
0.00242291
0.00136592
0.000735933
0.000351242
0.000117301
1.94427e-05
0.0211285
0.0123994
0.0072477
0.00421161
0.00242291
0.00136592
0.000735933
0.000351242
0.000117301
1.94427e-05
)
;
    }
    sides
    {
        type            empty;
        value           nonuniform List<scalar> 0();
    }
}


// ************************************************************************* //
