/*--------------------------------*- C++ -*----------------------------------*\
| =========                 |                                                 |
| \\      /  F ield         | OpenFOAM: The Open Source CFD Toolbox           |
|  \\    /   O peration     | Version:  2012                                  |
|   \\  /    A nd           | Website:  www.openfoam.com                      |
|    \\/     M anipulation  |                                                 |
\*---------------------------------------------------------------------------*/
FoamFile
{
    version     2.0;
    format      ascii;
    class       surfaceScalarField;
    location    "12000";
    object      phi;
}
// * * * * * * * * * * * * * * * * * * * * * * * * * * * * * * * * * * * * * //

dimensions      [0 3 -1 0 0 0 0];
oriented        oriented;


internalField   nonuniform List<scalar> 
2556
(
6.76928e-08
-5.83161e-18
-5.98802e-22
-1.53012e-21
9.39551e-23
2.11053e-07
-5.82385e-18
-2.60227e-21
-6.37933e-21
-2.28293e-22
3.67013e-07
-5.81586e-18
-2.75232e-21
-1.14619e-20
-2.48535e-22
5.36439e-07
-5.80714e-18
-2.91642e-21
-1.69675e-20
-2.70236e-22
7.20251e-07
-5.79801e-18
-3.07529e-21
-2.26535e-20
-2.93457e-22
9.19427e-07
-5.78845e-18
-3.23537e-21
-2.88274e-20
-3.1826e-22
1.13501e-06
-5.77868e-18
-3.40215e-21
-3.48062e-20
-3.4471e-22
1.36809e-06
-5.76799e-18
-3.57715e-21
-4.18127e-20
-3.72892e-22
1.61983e-06
-5.75701e-18
-3.76093e-21
-4.86291e-20
-4.02828e-22
1.89147e-06
-5.74547e-18
-3.95395e-21
-5.58226e-20
-4.34586e-22
2.18428e-06
-5.73283e-18
-4.15671e-21
-6.38084e-20
-4.68204e-22
2.4996e-06
-5.72053e-18
-4.36949e-21
-7.15263e-20
-5.0362e-22
2.8388e-06
-5.70712e-18
-4.59222e-21
-7.99804e-20
-5.4084e-22
3.20328e-06
-5.69308e-18
-4.82444e-21
-8.88897e-20
-5.79731e-22
3.59442e-06
-5.6778e-18
-5.06522e-21
-9.81558e-20
-6.20071e-22
4.01357e-06
-5.66225e-18
-5.31301e-21
-1.07663e-19
-6.61552e-22
4.46198e-06
-5.64522e-18
-5.5654e-21
-1.18358e-19
-7.03677e-22
4.94078e-06
-5.62952e-18
-5.81926e-21
-1.28552e-19
-7.45824e-22
5.45087e-06
-5.61202e-18
-6.07023e-21
-1.39289e-19
-7.87435e-22
5.99292e-06
-5.59448e-18
-6.31367e-21
-1.50185e-19
-8.2754e-22
6.56729e-06
-5.57438e-18
-6.54409e-21
-1.6284e-19
-8.65383e-22
7.17403e-06
-5.55412e-18
-6.75626e-21
-1.76284e-19
-8.9969e-22
7.81286e-06
-5.53549e-18
-6.94522e-21
-1.87185e-19
-9.29448e-22
8.48322e-06
-5.51366e-18
-7.1068e-21
-2.00432e-19
-9.54197e-22
9.18435e-06
-5.48902e-18
-7.23883e-21
-2.16378e-19
-9.72951e-22
9.91536e-06
-5.4686e-18
-7.33992e-21
-2.29128e-19
-9.85044e-22
1.06753e-05
-5.44534e-18
-7.40994e-21
-2.43992e-19
-9.90517e-22
1.14633e-05
-5.42387e-18
-7.45109e-21
-2.54663e-19
-9.89612e-22
1.22786e-05
-5.40068e-18
-7.46505e-21
-2.70106e-19
-9.83133e-22
1.31206e-05
-5.37703e-18
-7.45512e-21
-2.84612e-19
-9.70263e-22
1.39889e-05
-5.35517e-18
-7.42489e-21
-2.98198e-19
-9.50643e-22
1.48835e-05
-5.33239e-18
-7.37736e-21
-3.11208e-19
-9.25125e-22
1.58044e-05
-5.30204e-18
-7.31581e-21
-3.28966e-19
-8.94047e-22
1.67519e-05
-5.28084e-18
-7.24446e-21
-3.39656e-19
-8.57415e-22
1.77265e-05
-5.26026e-18
-7.16358e-21
-3.51205e-19
-8.16264e-22
1.87287e-05
-5.24457e-18
-7.07532e-21
-3.64939e-19
-7.6965e-22
1.97595e-05
-5.22602e-18
-6.98101e-21
-3.79958e-19
-7.16182e-22
2.08197e-05
-5.20142e-18
-6.88136e-21
-3.99326e-19
-6.57721e-22
2.19104e-05
-5.17369e-18
-6.7799e-21
-4.15863e-19
-5.93304e-22
2.30325e-05
-5.14982e-18
-6.67867e-21
-4.26734e-19
-5.22804e-22
2.41875e-05
-5.13416e-18
-6.57645e-21
-4.3555e-19
-4.48108e-22
2.53764e-05
-5.10885e-18
-6.47124e-21
-4.55152e-19
-3.69482e-22
2.66007e-05
-5.0857e-18
-6.3681e-21
-4.69446e-19
-2.82965e-22
2.78617e-05
-5.06634e-18
-6.26629e-21
-4.78475e-19
-1.90188e-22
2.91608e-05
-5.04505e-18
-6.16921e-21
-4.92432e-19
-8.99364e-23
3.04997e-05
-5.03369e-18
-6.07615e-21
-5.01441e-19
1.62172e-23
3.18797e-05
-5.0203e-18
-5.98441e-21
-5.09275e-19
1.29643e-22
3.33025e-05
-4.99556e-18
-5.89547e-21
-5.3182e-19
2.55704e-22
3.47697e-05
-4.98227e-18
-5.81615e-21
-5.45694e-19
3.96911e-22
3.62831e-05
-4.94566e-18
-5.73644e-21
-5.65773e-19
5.46695e-22
3.78443e-05
-4.92047e-18
-5.66941e-21
-5.91726e-19
7.08175e-22
3.94551e-05
-4.91666e-18
-5.60278e-21
-6.05495e-19
8.83834e-22
4.11174e-05
-4.89831e-18
-5.5314e-21
-6.10854e-19
1.0657e-21
4.2833e-05
-4.88375e-18
-5.45662e-21
-6.22475e-19
1.24631e-21
4.4604e-05
-4.85704e-18
-5.36846e-21
-6.38209e-19
1.42312e-21
4.64322e-05
-4.83187e-18
-5.28712e-21
-6.50033e-19
1.59308e-21
4.83198e-05
-4.80898e-18
-5.21059e-21
-6.70821e-19
1.75657e-21
5.0269e-05
-4.78702e-18
-5.1375e-21
-6.77957e-19
1.92577e-21
5.22817e-05
-4.75461e-18
-5.06739e-21
-6.98067e-19
2.0862e-21
5.43604e-05
-4.73228e-18
-5.00779e-21
-7.23968e-19
2.26097e-21
5.65074e-05
-4.72013e-18
-4.94769e-21
-7.23586e-19
2.46857e-21
5.87249e-05
-4.70013e-18
-4.888e-21
-7.39928e-19
2.66189e-21
6.10156e-05
-4.67984e-18
-4.81685e-21
-7.58405e-19
2.85332e-21
6.33818e-05
-4.65326e-18
-4.72729e-21
-7.81134e-19
3.04113e-21
6.58263e-05
-4.62358e-18
-4.63279e-21
-7.98185e-19
3.23874e-21
6.83517e-05
-4.59913e-18
-4.56463e-21
-8.24914e-19
3.43577e-21
7.09608e-05
-4.55526e-18
-4.49585e-21
-8.53357e-19
3.6461e-21
7.36564e-05
-4.50172e-18
-4.49273e-21
-9.10241e-19
3.88045e-21
7.64415e-05
-4.4571e-18
-4.57964e-21
-9.47087e-19
4.18902e-21
7.93192e-05
-4.44167e-18
-4.72273e-21
-9.53695e-19
4.5511e-21
8.22926e-05
-4.43637e-18
-4.88198e-21
-9.57778e-19
4.89402e-21
8.5365e-05
-4.40661e-18
-4.99902e-21
-9.8646e-19
5.20435e-21
8.85395e-05
-4.38746e-18
-5.16405e-21
-1.02249e-18
5.51209e-21
9.18198e-05
-4.36399e-18
-5.35073e-21
-1.04607e-18
5.83361e-21
9.52094e-05
-4.33699e-18
-5.56197e-21
-1.06746e-18
6.13073e-21
9.87119e-05
-4.34012e-18
-5.81497e-21
-1.0866e-18
6.39776e-21
0.000102331
-4.3064e-18
-5.99526e-21
-1.13039e-18
6.66853e-21
0.000106071
-4.27475e-18
-6.20895e-21
-1.16722e-18
6.96564e-21
0.000109935
-4.2268e-18
-6.40358e-21
-1.20298e-18
7.28042e-21
0.000113929
-4.17551e-18
-6.6534e-21
-1.23905e-18
7.60195e-21
0.000118055
-4.14906e-18
-7.03269e-21
-1.27353e-18
7.88933e-21
0.000122319
-4.10939e-18
-7.42782e-21
-1.32334e-18
8.09754e-21
0.000126725
-4.06463e-18
-7.91931e-21
-1.36686e-18
8.22792e-21
0.000131278
-4.03396e-18
-8.45312e-21
-1.40668e-18
8.4154e-21
0.000135982
-3.99495e-18
-8.99723e-21
-1.47535e-18
8.57271e-21
0.000140843
-3.93956e-18
-9.69684e-21
-1.52493e-18
8.62775e-21
0.000145866
-3.89213e-18
-1.04189e-20
-1.56933e-18
8.76687e-21
0.000151055
-3.89211e-18
-1.1303e-20
-1.60244e-18
8.93246e-21
0.000156418
-3.8564e-18
-1.18636e-20
-1.65351e-18
8.93637e-21
0.000161959
-3.80299e-18
-1.22061e-20
-1.66675e-18
8.9127e-21
0.000167684
-3.75043e-18
-1.2677e-20
-1.72321e-18
8.64687e-21
0.000173599
-3.72059e-18
-1.32534e-20
-1.79203e-18
8.0975e-21
0.00017971
-3.67738e-18
-1.37185e-20
-1.83019e-18
7.8242e-21
0.000186025
-3.68619e-18
-1.44911e-20
-1.87397e-18
7.50734e-21
0.000192549
-3.60744e-18
-1.45166e-20
-1.88588e-18
6.97881e-21
0.000199289
-3.5406e-18
-1.46445e-20
-1.94808e-18
6.34371e-21
0.000206252
-3.46549e-18
-1.50522e-20
-1.968e-18
6.0381e-21
0.000213446
-3.43728e-18
-1.57748e-20
-2.00586e-18
5.45416e-21
0.000220879
-3.35201e-18
-1.61206e-20
-2.068e-18
5.01145e-21
0.000228556
-3.33702e-18
-1.6748e-20
-2.08188e-18
4.25727e-21
0.000236488
-3.27324e-18
-1.73921e-20
-2.1416e-18
2.7689e-21
0.000244682
-3.20694e-18
-1.83606e-20
-2.14106e-18
2.02894e-21
0.000253146
-3.14321e-18
-1.92061e-20
-2.1161e-18
6.81463e-22
0.000261889
-3.09219e-18
-2.02605e-20
-2.1155e-18
-1.42066e-21
0.00027092
-2.9942e-18
-2.13323e-20
-2.16068e-18
-4.03657e-21
0.000280249
-2.96396e-18
-2.24036e-20
-2.20661e-18
-5.54273e-21
0.000289884
-2.8763e-18
-2.29854e-20
-2.25002e-18
-6.86289e-21
0.000299836
-2.8332e-18
-2.41302e-20
-2.22212e-18
-7.92823e-21
0.000310115
-2.79043e-18
-2.53215e-20
-2.23802e-18
-9.46609e-21
0.000320731
-2.69653e-18
-2.7287e-20
-2.22604e-18
-9.33234e-21
0.000331695
-2.7441e-18
-2.95768e-20
-2.16575e-18
-9.23744e-21
0.000343018
-2.69824e-18
-3.01918e-20
-2.0972e-18
-9.4243e-21
0.000354712
-2.67106e-18
-3.12292e-20
-2.08179e-18
-1.21835e-20
0.000366787
-2.52998e-18
-3.12266e-20
-2.12896e-18
-1.4918e-20
0.000379257
-2.47239e-18
-3.39796e-20
-2.05815e-18
-1.58716e-20
0.000392133
-2.33795e-18
-3.37426e-20
-2.07444e-18
-1.93053e-20
0.000405428
-2.30205e-18
-3.45218e-20
-2.06682e-18
-2.26113e-20
0.000419155
-2.2233e-18
-3.45077e-20
-2.06217e-18
-2.4968e-20
0.000433329
-2.14883e-18
-3.45831e-20
-2.001e-18
-2.64683e-20
0.000447961
-2.07777e-18
-3.2197e-20
-2.01624e-18
-2.97946e-20
0.000463068
-1.96568e-18
-3.14355e-20
-1.93232e-18
-3.11846e-20
0.000478663
-1.89787e-18
-3.10095e-20
-1.88732e-18
-3.19208e-20
0.000494761
-1.8473e-18
-3.06577e-20
-1.90957e-18
-3.26601e-20
0.000511378
-1.85145e-18
-3.16283e-20
-1.92377e-18
-3.17619e-20
0.00052853
-1.82901e-18
-3.58378e-20
-1.94966e-18
-2.91659e-20
0.000546232
-1.85235e-18
-4.18632e-20
-2.02242e-18
-2.37148e-20
0.000564501
-2.08481e-18
-4.7448e-20
-1.88805e-18
-1.48692e-20
0.000583355
-2.03019e-18
-4.15593e-20
-1.747e-18
-1.65989e-20
0.00060281
-1.89588e-18
-3.61678e-20
-1.82843e-18
-2.23436e-20
0.000622884
-1.86884e-18
-3.6473e-20
-1.86993e-18
-2.14659e-20
0.000643596
-1.88481e-18
-3.43351e-20
-1.81778e-18
-2.38931e-20
0.000664963
-1.84501e-18
-2.63093e-20
-1.80174e-18
-3.11444e-20
0.000687005
-1.88116e-18
-2.17107e-20
-1.73537e-18
-3.51251e-20
0.000709741
-1.73809e-18
-1.76997e-20
-1.77731e-18
-4.66219e-20
0.000733191
-1.77595e-18
-2.06999e-20
-1.72617e-18
-4.74459e-20
0.000757373
-1.67786e-18
-2.29922e-20
-1.86945e-18
-4.61285e-20
0.000782309
-1.71684e-18
-2.07043e-20
-1.77787e-18
-3.47711e-20
0.000808018
-1.65888e-18
-1.22477e-20
-1.7549e-18
-2.89718e-20
0.000834521
-1.70423e-18
-1.67829e-20
-1.63755e-18
-2.60269e-20
0.000861838
-1.69674e-18
-1.32042e-20
-1.67286e-18
-3.33861e-20
0.00088999
-1.73417e-18
-8.79996e-21
-1.6687e-18
-2.4602e-20
0.000918998
-1.65975e-18
4.16173e-21
-1.64202e-18
-3.68309e-20
0.000948882
-1.55559e-18
-1.05805e-21
-1.6834e-18
-2.66737e-20
0.000979661
-1.62257e-18
-2.46932e-20
-1.54501e-18
-6.12553e-21
0.00101136
-1.58532e-18
-1.48211e-20
-1.50139e-18
-7.43035e-22
0.00104399
-1.34691e-18
-1.22321e-20
-1.61327e-18
-3.57422e-21
0.00107757
-1.47751e-18
-5.64304e-21
-1.52175e-18
-1.75278e-21
0.00111212
-1.44594e-18
-1.39386e-21
-1.51969e-18
1.00556e-21
0.00114765
-1.35718e-18
1.34761e-20
-1.3364e-18
2.81562e-20
0.00118419
-1.32422e-18
2.96605e-20
-1.25475e-18
1.79379e-20
0.00122173
-1.24523e-18
2.1255e-20
-1.33879e-18
2.16996e-20
0.00126028
-1.17912e-18
3.4051e-20
-9.90005e-19
4.86979e-20
0.00129986
-8.61666e-19
4.24607e-20
-9.61115e-19
-3.61469e-21
0.00134046
-8.54925e-19
-8.49145e-21
-8.53826e-19
9.38151e-22
0.00138207
-9.23597e-19
1.17866e-20
-8.50987e-19
-1.03717e-20
0.00142468
-6.9288e-19
6.94582e-20
-6.89151e-19
-5.72598e-20
0.00146827
-7.12177e-19
-2.90316e-20
-7.02835e-19
-5.48661e-20
0.00151281
-6.33613e-19
-3.84163e-20
-6.73461e-19
2.84847e-20
0.00155827
-6.92666e-19
1.02448e-19
-7.42723e-19
6.57932e-20
0.00160461
5.65177e-20
-8.81882e-19
4.724e-20
-8.35346e-19
6.76928e-08
-5.58644e-22
-1.3026e-23
2.11053e-07
-2.85877e-21
-6.78107e-22
3.67013e-07
-5.23948e-21
-1.34305e-21
5.36439e-07
-7.58014e-21
-2.05677e-21
7.20251e-07
-1.00962e-20
-2.62783e-21
9.19427e-07
-1.29912e-20
-3.31133e-21
1.13501e-06
-1.57296e-20
-4.0199e-21
1.36809e-06
-1.89408e-20
-5.07408e-21
1.61983e-06
-2.20424e-20
-6.16675e-21
1.89147e-06
-2.54333e-20
-7.47653e-21
2.18428e-06
-2.88232e-20
-8.42621e-21
2.4996e-06
-3.24913e-20
-9.79066e-21
2.8388e-06
-3.58956e-20
-1.12685e-20
3.20328e-06
-3.96431e-20
-1.28819e-20
3.59442e-06
-4.35538e-20
-1.46979e-20
4.01357e-06
-4.74348e-20
-1.57865e-20
4.46198e-06
-5.13094e-20
-1.77399e-20
4.94078e-06
-5.49129e-20
-2.09552e-20
5.45087e-06
-6.06172e-20
-2.27972e-20
5.99292e-06
-6.51209e-20
-2.54622e-20
6.56729e-06
-6.97055e-20
-2.70141e-20
7.17403e-06
-7.48816e-20
-2.9526e-20
7.81286e-06
-8.04649e-20
-3.2435e-20
8.48322e-06
-8.76844e-20
-3.58048e-20
9.18435e-06
-9.22004e-20
-4.00655e-20
9.91536e-06
-9.93262e-20
-4.12215e-20
1.06753e-05
-1.08519e-19
-4.52763e-20
1.14633e-05
-1.14732e-19
-4.90115e-20
1.22786e-05
-1.2021e-19
-5.29618e-20
1.31206e-05
-1.25644e-19
-5.4469e-20
1.39889e-05
-1.31606e-19
-5.66992e-20
1.48835e-05
-1.37633e-19
-5.76053e-20
1.58044e-05
-1.42244e-19
-6.28652e-20
1.67519e-05
-1.4497e-19
-6.54827e-20
1.77265e-05
-1.4734e-19
-6.71254e-20
1.87287e-05
-1.53309e-19
-6.67342e-20
1.97595e-05
-1.54193e-19
-7.25765e-20
2.08197e-05
-1.57481e-19
-7.67169e-20
2.19104e-05
-1.61659e-19
-7.71469e-20
2.30325e-05
-1.62806e-19
-8.10765e-20
2.41875e-05
-1.62624e-19
-8.46959e-20
2.53764e-05
-1.65191e-19
-8.44823e-20
2.66007e-05
-1.67911e-19
-8.52553e-20
2.78617e-05
-1.7963e-19
-8.12661e-20
2.91608e-05
-1.8296e-19
-8.64893e-20
3.04997e-05
-1.88657e-19
-8.91523e-20
3.18797e-05
-1.93516e-19
-8.35399e-20
3.33025e-05
-1.99251e-19
-8.66506e-20
3.47697e-05
-1.98959e-19
-9.06655e-20
3.62831e-05
-1.98973e-19
-9.17847e-20
3.78443e-05
-1.87823e-19
-9.56249e-20
3.94551e-05
-1.93176e-19
-9.89939e-20
4.11174e-05
-1.89171e-19
-9.84852e-20
4.2833e-05
-1.76694e-19
-1.01411e-19
4.4604e-05
-1.81261e-19
-1.0715e-19
4.64322e-05
-1.82767e-19
-1.05919e-19
4.83198e-05
-1.8381e-19
-1.03142e-19
5.0269e-05
-1.85797e-19
-1.0612e-19
5.22817e-05
-1.86916e-19
-9.85926e-20
5.43604e-05
-1.90763e-19
-8.10114e-20
5.65074e-05
-2.08229e-19
-7.77856e-20
5.87249e-05
-2.09409e-19
-7.75864e-20
6.10156e-05
-2.08577e-19
-8.21754e-20
6.33818e-05
-2.09857e-19
-7.67119e-20
6.58263e-05
-2.24934e-19
-6.86725e-20
6.83517e-05
-2.198e-19
-6.51312e-20
7.09608e-05
-2.25335e-19
-6.26478e-20
7.36564e-05
-2.23471e-19
-6.5019e-20
7.64415e-05
-2.07754e-19
-6.65024e-20
7.93192e-05
-2.02835e-19
-6.5236e-20
8.22926e-05
-1.85204e-19
-6.10901e-20
8.5365e-05
-1.9249e-19
-6.9607e-20
8.85395e-05
-1.95633e-19
-7.25132e-20
9.18198e-05
-1.94601e-19
-6.87736e-20
9.52094e-05
-2.05961e-19
-7.12578e-20
9.87119e-05
-2.08927e-19
-6.64287e-20
0.000102331
-2.15735e-19
-6.54352e-20
0.000106071
-2.12235e-19
-6.12458e-20
0.000109935
-2.15479e-19
-5.20919e-20
0.000113929
-2.27799e-19
-4.02779e-20
0.000118055
-2.26989e-19
-3.8699e-20
0.000122319
-2.35349e-19
-6.28699e-20
0.000126725
-2.2583e-19
-6.40589e-20
0.000131278
-2.18424e-19
-6.12811e-20
0.000135982
-2.35618e-19
-8.67295e-20
0.000140843
-2.20128e-19
-6.83684e-20
0.000145866
-2.45359e-19
-5.48798e-20
0.000151055
-2.29719e-19
-6.61208e-20
0.000156418
-2.10222e-19
-7.94354e-20
0.000161959
-2.24876e-19
-6.69151e-20
0.000167684
-2.38507e-19
-8.86978e-20
0.000173599
-2.33652e-19
-5.84362e-20
0.00017971
-2.66374e-19
-3.26923e-20
0.000186025
-2.24626e-19
-3.83111e-20
0.000192549
-2.20406e-19
-3.13544e-20
0.000199289
-2.47078e-19
-2.29766e-20
0.000206252
-2.7566e-19
-5.26346e-20
0.000213446
-2.80644e-19
-6.34578e-20
0.000220879
-2.83607e-19
-8.82309e-20
0.000228556
-3.02499e-19
-8.76207e-20
0.000236488
-3.05188e-19
-7.67751e-20
0.000244682
-2.82843e-19
-1.51926e-19
0.000253146
-2.85738e-19
-1.87099e-19
0.000261889
-2.81088e-19
-2.16328e-19
0.00027092
-2.47016e-19
-1.85735e-19
0.000280249
-2.4969e-19
-2.06608e-19
0.000289884
-2.49078e-19
-2.1207e-19
0.000299836
-2.62066e-19
-2.34518e-19
0.000310115
-3.19999e-19
-1.81606e-19
0.000320731
-2.97462e-19
-2.10823e-19
0.000331695
-3.1302e-19
-1.79048e-19
0.000343018
-3.34099e-19
-2.1608e-19
0.000354712
-3.17838e-19
-2.31884e-19
0.000366787
-3.93748e-19
-2.44731e-19
0.000379257
-3.31192e-19
-3.02507e-19
0.000392133
-3.45282e-19
-3.68574e-19
0.000405428
-3.94775e-19
-3.95228e-19
0.000419155
-4.2934e-19
-4.19338e-19
0.000433329
-3.8745e-19
-4.67132e-19
0.000447961
-5.01163e-19
-5.00047e-19
0.000463068
-5.15295e-19
-5.10959e-19
0.000478663
-5.30104e-19
-5.57818e-19
0.000494761
-5.57796e-19
-5.78849e-19
0.000511378
-6.39324e-19
-5.89353e-19
0.00052853
-6.63997e-19
-6.1059e-19
0.000546232
-6.87909e-19
-6.43984e-19
0.000564501
-7.31543e-19
-7.36187e-19
0.000583355
-7.75054e-19
-7.25454e-19
0.00060281
-8.12819e-19
-7.23787e-19
0.000622884
-8.10256e-19
-8.40449e-19
0.000643596
-8.06451e-19
-9.06552e-19
0.000664963
-8.67049e-19
-8.73039e-19
0.000687005
-9.45671e-19
-9.8967e-19
0.000709741
-9.38153e-19
-9.40978e-19
0.000733191
-9.69066e-19
-8.47108e-19
0.000757373
-8.39975e-19
-9.37532e-19
0.000782309
-8.61171e-19
-1.02173e-18
0.000808018
-9.47204e-19
-1.03149e-18
0.000834521
-9.26375e-19
-9.66128e-19
0.000861838
-9.79123e-19
-9.21893e-19
0.00088999
-1.02369e-18
-1.21225e-18
0.000918998
-1.1747e-18
-1.01181e-18
0.000948882
-1.24165e-18
-9.69166e-19
0.000979661
-1.06235e-18
-9.9766e-19
0.00101136
-1.16457e-18
-1.14148e-18
0.00104399
-1.02834e-18
-1.28064e-18
0.00107757
-1.26744e-18
-1.26451e-18
0.00111212
-1.21865e-18
-1.2568e-18
0.00114765
-1.08823e-18
-1.27312e-18
0.00118419
-1.16332e-18
-1.07077e-18
0.00122173
-1.02444e-18
-1.02949e-18
0.00126028
-1.01973e-18
-1.04097e-18
0.00129986
-9.89007e-19
-8.36587e-19
0.00134046
-6.90714e-19
-8.37199e-19
0.00138207
-6.71713e-19
-9.42844e-19
0.00142468
-1.09272e-18
-6.77633e-19
0.00146827
-9.01991e-19
-5.92413e-19
0.00151281
-4.06813e-19
-7.56864e-19
0.00155827
-9.52806e-19
-8.67181e-19
0.00160461
-8.13392e-19
-8.39839e-19
0.00160461
-7.00727e-19
9.23184e-20
-6.71371e-19
5.05997e-20
0.00155827
-7.78761e-19
-5.4748e-21
-6.54668e-19
4.33514e-20
0.00151281
-8.37959e-19
-5.46576e-20
-6.8481e-19
1.40301e-20
0.00146827
-3.55735e-19
-2.17983e-20
-7.87842e-19
-3.88344e-20
0.00142468
-9.0061e-19
-1.38071e-19
-8.27213e-19
-5.81953e-20
0.00138207
-8.64473e-19
-9.6072e-20
-5.34991e-19
-3.74438e-20
0.00134046
-7.54033e-19
-7.48859e-20
-6.74997e-19
-8.01978e-20
0.00129986
-6.15137e-19
-6.25334e-20
-7.03397e-19
-7.42292e-20
0.00126028
-4.04642e-19
-2.71948e-20
-6.72328e-19
-4.56177e-20
0.00122173
-4.82744e-19
-4.18878e-20
-4.01694e-19
1.4713e-20
0.00118419
-2.84008e-19
1.39348e-21
-3.90986e-19
2.63313e-20
0.00114765
-2.87722e-19
-6.44984e-21
-2.19071e-19
2.79421e-20
0.00111212
-2.97077e-19
-2.69806e-20
-2.31953e-19
1.03904e-20
0.00107757
-4.28795e-19
-3.47881e-20
-2.67031e-19
3.00566e-20
0.00104399
-2.85433e-19
2.63238e-21
-3.8256e-19
1.14402e-20
0.00101136
-3.17464e-19
1.30824e-20
-4.22319e-19
4.58977e-22
0.000979661
-4.32047e-19
5.76226e-22
-4.34356e-19
-9.67997e-21
0.000948882
-4.49808e-19
2.00676e-22
-4.07281e-19
-2.63375e-20
0.000918998
-4.59829e-19
-6.57759e-21
-4.74171e-19
-3.18934e-20
0.00088999
-3.81685e-19
-9.6526e-21
-4.46335e-19
-1.70142e-20
0.000861838
-3.84948e-19
-1.62397e-20
-4.3776e-19
-8.78784e-21
0.000834521
-3.54408e-19
-1.6046e-20
-3.43829e-19
4.47405e-22
0.000808018
-2.63471e-19
-1.70752e-21
-2.46419e-19
1.28396e-20
0.000782309
-1.5647e-19
1.56569e-21
-2.19476e-19
2.29458e-20
0.000757373
-2.86931e-19
1.19623e-21
-2.17183e-19
1.85711e-20
0.000733191
-2.52257e-19
-2.51407e-21
-1.73343e-19
1.51478e-20
0.000709741
-1.7739e-19
1.60739e-21
-2.56979e-19
-1.50781e-21
0.000687005
-3.62882e-19
5.17966e-21
-2.46949e-19
-7.18288e-21
0.000664963
-3.32619e-19
1.27908e-20
-1.83987e-19
-3.39043e-21
0.000643596
-9.52291e-20
1.90961e-20
-1.9219e-19
-5.11512e-21
0.000622884
-7.29263e-20
1.44997e-20
-1.0433e-19
2.62005e-21
0.00060281
-5.57237e-20
1.50665e-20
-9.76177e-20
1.02978e-22
0.000583355
-1.73221e-19
1.13095e-20
-1.33254e-19
-3.69043e-21
0.000564501
-1.97233e-19
1.37124e-20
-1.96316e-19
-3.56704e-21
0.000546232
-2.28974e-19
1.2147e-20
-2.11579e-19
-6.38766e-21
0.00052853
-2.62493e-19
1.19769e-20
-9.20703e-20
-6.31684e-21
0.000511378
-2.08547e-19
1.11535e-20
-1.73905e-19
-4.23512e-21
0.000494761
-1.26916e-19
1.24559e-20
-2.26369e-19
-9.36288e-22
0.000478663
-1.41114e-19
1.02927e-20
-1.76275e-19
9.52841e-22
0.000463068
-1.52849e-19
7.24793e-21
-2.1852e-19
2.99329e-21
0.000447961
-1.27232e-19
6.50934e-21
-2.08249e-19
4.72077e-21
0.000433329
-1.22969e-19
3.49246e-21
-1.49938e-19
5.42161e-21
0.000419155
-1.60903e-19
2.78265e-21
-1.91481e-19
4.87612e-21
0.000405428
-1.37611e-19
2.77681e-21
-1.04374e-19
5.80484e-21
0.000392133
-1.43051e-19
1.90402e-21
-1.30411e-19
3.83173e-21
0.000379257
-1.45986e-19
2.9817e-21
-1.30178e-19
3.14155e-21
0.000366787
-1.40257e-19
3.18548e-21
-1.22881e-19
2.16705e-21
0.000354712
-1.17663e-19
3.897e-21
-1.10006e-19
6.30349e-22
0.000343018
-1.18943e-19
3.69699e-21
-7.39739e-20
2.67455e-22
0.000331695
-1.36926e-19
3.1516e-21
-1.06862e-19
-1.2359e-21
0.000320731
-1.29604e-19
3.23157e-21
-1.09106e-19
-8.87164e-22
0.000310115
-8.6093e-20
2.51394e-21
-8.99447e-20
-7.47014e-22
0.000299836
-9.07203e-20
2.14391e-21
-1.16347e-19
-4.84731e-22
0.000289884
-6.18499e-20
1.95478e-21
-1.14604e-19
-1.0442e-23
0.000280249
-6.9692e-20
8.67017e-22
-1.23223e-19
-3.56069e-22
0.00027092
-7.12803e-20
3.24049e-22
-9.25876e-20
-7.06971e-22
0.000261889
-1.4008e-19
5.77593e-22
-8.23004e-20
-1.34486e-21
0.000253146
-1.24228e-19
1.1293e-21
-8.15465e-20
-2.65489e-21
0.000244682
-1.03016e-19
9.17103e-22
-1.50155e-19
-2.71169e-21
0.000236488
-7.51338e-20
5.87487e-22
-1.51372e-19
-2.12362e-21
0.000228556
-6.63821e-20
3.31454e-22
-1.25842e-19
-2.11079e-21
0.000220879
-8.87434e-20
3.40245e-22
-8.67339e-20
-2.10272e-21
0.000213446
-7.67835e-20
4.7283e-22
-7.69541e-20
-1.94904e-21
0.000206252
-7.07797e-20
5.46177e-22
-9.6619e-20
-2.18708e-21
0.000199289
-7.51136e-20
6.63782e-22
-8.83714e-20
-2.09734e-21
0.000192549
-4.14706e-20
6.10743e-22
-1.26291e-19
-1.87706e-21
0.000186025
-6.77639e-20
3.50163e-22
-1.09447e-19
-1.40291e-21
0.00017971
-9.59326e-20
4.9904e-22
-1.01043e-19
-1.13022e-21
0.000173599
-6.02997e-20
7.28705e-22
-8.62056e-20
-1.04209e-21
0.000167684
-5.01956e-20
5.81064e-22
-1.06687e-19
-7.9572e-22
0.000161959
-4.81068e-20
5.17e-22
-9.95719e-20
-5.98247e-22
0.000156418
-5.03851e-20
5.2041e-22
-1.15385e-19
-5.71642e-22
0.000151055
-7.60331e-20
3.99145e-22
-6.82619e-20
-5.21555e-22
0.000145866
-6.59462e-20
3.41848e-22
-8.63058e-20
-7.52648e-22
0.000140843
-5.52858e-20
2.9038e-22
-4.05493e-20
-8.8747e-22
0.000135982
-5.794e-20
1.74125e-22
-6.36907e-20
-1.17618e-21
0.000131278
-2.12982e-20
9.30608e-23
-5.04351e-20
-1.17555e-21
0.000126725
-3.82699e-20
-6.53663e-25
-5.0827e-20
-1.19075e-21
0.000122319
-2.75082e-20
-1.68085e-23
-5.95669e-20
-1.2679e-21
0.000118055
-4.24825e-20
-5.9998e-23
-2.69104e-20
-1.13701e-21
0.000113929
-4.62299e-20
-4.36589e-23
-3.56188e-20
-1.07942e-21
0.000109935
-4.17563e-20
-2.09681e-24
-2.84407e-20
-9.92372e-22
0.000106071
-3.54357e-20
1.76915e-24
-3.31537e-20
-9.34982e-22
0.000102331
-2.83154e-20
-7.0903e-23
-2.65992e-20
-8.80283e-22
9.87119e-05
-2.51224e-20
-1.3216e-22
-3.00464e-20
-8.93487e-22
9.52094e-05
-3.45413e-20
-1.64044e-22
-3.23057e-20
-9.21074e-22
9.18199e-05
-2.40088e-20
-1.11929e-22
-4.11502e-20
-9.01638e-22
8.85396e-05
-3.94735e-20
-1.29327e-22
-4.83286e-20
-8.54174e-22
8.53649e-05
-2.28387e-20
-1.33928e-22
-3.54624e-20
-8.04888e-22
8.22926e-05
-1.48693e-20
-1.53966e-22
-3.47895e-20
-7.61788e-22
7.93192e-05
-1.47827e-20
-1.60126e-22
-3.29849e-20
-7.11474e-22
7.64415e-05
-3.32473e-20
-1.63965e-22
-2.16496e-20
-6.61956e-22
7.36564e-05
-2.4074e-20
-1.65975e-22
-2.00143e-20
-6.4603e-22
7.09608e-05
-3.1353e-20
-2.01703e-22
-2.30086e-20
-6.06774e-22
6.83517e-05
-2.82946e-20
-2.13302e-22
-3.84018e-20
-5.33892e-22
6.58263e-05
-2.99393e-20
-2.35944e-22
-2.22102e-20
-4.21385e-22
6.33818e-05
-3.51978e-20
-2.56002e-22
-2.8464e-20
-3.58986e-22
6.10155e-05
-2.82014e-20
-2.62428e-22
-3.00477e-20
-3.08027e-22
5.87249e-05
-3.37731e-20
-2.58884e-22
-2.46699e-20
-2.47475e-22
5.65074e-05
-3.23793e-20
-2.50633e-22
-2.43672e-20
-1.9136e-22
5.43604e-05
-3.14629e-20
-2.35722e-22
-2.53609e-20
-1.48182e-22
5.22817e-05
-3.94966e-20
-2.17857e-22
-1.96385e-20
-1.27288e-22
5.0269e-05
-2.30894e-20
-1.83364e-22
-2.28762e-20
-1.19947e-22
4.83199e-05
-2.30276e-20
-1.67972e-22
-1.93795e-20
-1.06786e-22
4.64322e-05
-2.36619e-20
-1.52472e-22
-1.70803e-20
-9.64093e-23
4.4604e-05
-2.04273e-20
-1.35382e-22
-2.30328e-20
-9.88442e-23
4.2833e-05
-1.1045e-20
-1.20409e-22
-1.75437e-20
-9.90249e-23
4.11174e-05
-1.35579e-20
-1.1562e-22
-2.08232e-20
-1.04229e-22
3.94551e-05
-8.90445e-21
-1.16939e-22
-2.01895e-20
-9.88791e-23
3.78442e-05
-7.27349e-21
-1.10716e-22
-2.30523e-20
-9.10909e-23
3.62831e-05
-3.41813e-21
-1.03112e-22
-2.3173e-20
-8.24114e-23
3.47697e-05
-1.55077e-21
-9.83958e-23
-2.28312e-20
-7.11676e-23
3.33025e-05
-6.38273e-22
-9.20266e-23
-2.46324e-20
-6.19261e-23
3.18797e-05
-4.91126e-21
-8.72119e-23
-2.27396e-20
-5.34611e-23
3.04997e-05
-5.13609e-21
-8.37588e-23
-1.60363e-20
-4.26079e-23
2.91609e-05
-4.53363e-21
-8.01851e-23
-1.69059e-20
-3.45537e-23
2.78617e-05
-2.8747e-21
-7.83153e-23
-1.7237e-20
-2.61876e-23
2.66007e-05
-2.70719e-21
-7.64962e-23
-1.69572e-20
-1.73235e-23
2.53764e-05
-2.14479e-21
-7.37492e-23
-1.77847e-20
-1.0272e-23
2.41875e-05
-2.23822e-21
-7.00964e-23
-9.76591e-21
-4.46556e-24
2.30325e-05
-4.54576e-21
-6.84093e-23
-1.04434e-20
-2.16566e-24
2.19104e-05
-2.95487e-21
-6.5636e-23
-1.15561e-20
-1.60959e-26
2.08197e-05
-2.66425e-21
-6.339e-23
-1.0569e-20
3.45566e-24
1.97595e-05
-1.68526e-21
-6.13266e-23
-7.27317e-21
5.66351e-24
1.87287e-05
-1.14875e-21
-5.94201e-23
-4.85851e-21
5.80948e-24
1.77265e-05
-7.33684e-22
-5.8464e-23
-2.08569e-21
6.21541e-24
1.67519e-05
1.85208e-22
-5.75445e-23
-2.77382e-21
5.2951e-24
1.58044e-05
-1.33383e-21
-5.64209e-23
-3.62082e-21
4.68833e-24
1.48836e-05
-6.29142e-23
-5.4826e-23
-2.69206e-21
4.14767e-24
1.39889e-05
-5.14282e-22
-5.3582e-23
7.66776e-22
3.21045e-24
1.31206e-05
-1.76305e-21
-5.21874e-23
3.24085e-21
2.14972e-24
1.22786e-05
-1.31575e-22
-5.00007e-23
2.95541e-21
1.13412e-24
1.14633e-05
2.21162e-22
-4.81727e-23
2.20815e-21
3.29176e-25
1.06753e-05
-3.9431e-22
-4.65525e-23
1.01372e-21
-7.73667e-25
9.91536e-06
6.73164e-22
-4.46526e-23
6.00179e-22
-1.22395e-24
9.18435e-06
-2.6372e-21
-4.34761e-23
3.18654e-21
-1.40644e-24
8.48322e-06
-1.68046e-21
-4.16732e-23
2.99541e-21
-2.02167e-24
7.81285e-06
-1.92241e-21
-3.96382e-23
2.7154e-21
-2.60888e-24
7.17403e-06
-1.30877e-21
-3.74725e-23
1.81768e-21
-3.04762e-24
6.56729e-06
-2.70908e-21
-3.51692e-23
1.90739e-21
-3.35328e-24
5.99292e-06
-2.12898e-21
-3.25586e-23
2.09477e-21
-3.424e-24
5.45088e-06
-1.07064e-21
-3.01648e-23
1.67472e-21
-3.52783e-24
4.94078e-06
-1.46601e-21
-2.79779e-23
1.15731e-21
-3.51529e-24
4.46199e-06
-1.00005e-21
-2.57768e-23
1.50908e-21
-3.43515e-24
4.01356e-06
-9.48039e-22
-2.37292e-23
1.04884e-21
-3.42689e-24
3.59442e-06
-7.98778e-22
-2.18937e-23
5.45389e-22
-3.27147e-24
3.20328e-06
-6.32182e-22
-2.01654e-23
4.5676e-22
-3.0596e-24
2.8388e-06
-6.90538e-22
-1.85972e-23
4.88958e-22
-2.91296e-24
2.4996e-06
-3.98633e-22
-1.71419e-23
7.99189e-22
-2.76109e-24
2.18428e-06
-8.23529e-22
-1.58102e-23
4.47608e-22
-2.63398e-24
1.89148e-06
-6.97914e-22
-1.45329e-23
3.69815e-22
-2.48867e-24
1.61983e-06
-9.3567e-22
-1.33579e-23
2.05282e-22
-2.32878e-24
1.36809e-06
-8.47088e-22
-1.22481e-23
2.5887e-22
-2.16171e-24
1.13501e-06
-2.7959e-22
-1.12106e-23
1.58513e-22
-2.01101e-24
9.19428e-07
-1.04034e-22
-1.02784e-23
9.28077e-23
-1.88251e-24
7.2025e-07
-2.50585e-23
-9.43127e-24
-5.58257e-23
-1.74921e-24
5.36439e-07
-1.1291e-22
-8.64086e-24
1.89286e-23
-1.61693e-24
3.67013e-07
-2.18406e-23
-7.91239e-24
-2.17632e-23
-1.49331e-24
2.11053e-07
-1.85786e-23
-7.25014e-24
1.19346e-23
-1.37457e-24
6.7693e-08
-2.738e-24
-1.73985e-24
0.00160461
-1.10688e-18
-7.75188e-19
0.00155827
-1.03343e-18
-8.21745e-19
0.00151281
-6.90394e-19
-8.51351e-19
0.00146827
-6.86844e-19
-7.87069e-19
0.00142468
-6.84962e-19
-7.08511e-19
0.00138207
-7.48135e-19
-7.60324e-19
0.00134046
-6.86124e-19
-7.11859e-19
0.00129986
-5.0826e-19
-6.11339e-19
0.00126028
-5.89409e-19
-4.19592e-19
0.00122173
-3.98704e-19
-4.36756e-19
0.00118419
-4.44329e-19
-5.23944e-19
0.00114765
-4.40837e-19
-4.17378e-19
0.00111212
-3.15491e-19
-1.48634e-19
0.00107757
-1.54343e-19
-3.71915e-19
0.00104399
-1.36199e-19
-2.94325e-19
0.00101136
-2.42231e-19
-2.0112e-19
0.000979661
-2.5667e-19
-2.99762e-19
0.000948882
-3.64907e-19
-3.25327e-19
0.000918998
-3.6069e-19
-2.60636e-19
0.00088999
-3.18531e-19
-2.97095e-19
0.000861838
-3.03032e-19
-3.24083e-19
0.000834521
-2.06933e-19
-2.37428e-19
0.000808018
-2.77715e-19
-2.00507e-19
0.000782309
-2.1777e-19
-2.88769e-19
0.000757373
-3.66551e-19
-1.83374e-19
0.000733191
-1.79032e-19
-3.33692e-19
0.000709741
-7.21174e-20
-3.42793e-19
0.000687005
-1.84633e-19
-2.10927e-19
0.000664963
-1.47692e-19
-1.97592e-19
0.000643596
-6.88816e-20
-5.23183e-21
0.000622884
5.42172e-20
-6.7499e-20
0.00060281
1.18931e-20
-8.77523e-20
0.000583355
1.24569e-20
-4.35541e-21
0.000564501
-1.03951e-19
-8.6605e-20
0.000546232
-1.29375e-19
-1.42728e-19
0.00052853
-2.19979e-19
-4.81774e-20
0.000511378
-1.34747e-19
-5.02408e-20
0.000494761
-1.45867e-19
-1.62822e-19
0.000478663
-1.98463e-19
-1.48496e-19
0.000463068
-1.4018e-19
-1.59912e-19
0.000447961
-1.9095e-19
-1.57215e-19
0.000433329
-1.30639e-19
-1.33808e-19
0.000419155
-1.37877e-19
-1.3503e-19
0.000405428
-1.67312e-19
-1.76562e-19
0.000392133
-1.36836e-19
-1.64977e-19
0.000379257
-1.74764e-19
-1.80798e-19
0.000366787
-1.48599e-19
-2.03081e-19
0.000354712
-1.90853e-19
-1.29941e-19
0.000343018
-2.10159e-19
-1.45915e-19
0.000331695
-1.81086e-19
-1.03738e-19
0.000320731
-2.10455e-19
-1.44261e-19
0.000310115
-1.5823e-19
-1.4588e-19
0.000299836
-1.63907e-19
-1.52194e-19
0.000289884
-1.85341e-19
-1.72632e-19
0.000280249
-1.32435e-19
-1.80564e-19
0.00027092
-4.42133e-20
-1.73966e-19
0.000261889
-6.32746e-20
-2.11e-19
0.000253146
-1.0297e-19
-1.29632e-19
0.000244682
-9.85063e-20
-1.34379e-19
0.000236488
-7.78317e-20
-1.41487e-19
0.000228556
-6.64963e-20
-1.23049e-19
0.000220879
-9.46706e-20
-1.02248e-19
0.000213446
-9.66046e-20
-1.25467e-19
0.000206252
-8.54018e-20
-9.51239e-20
0.000199289
-1.08017e-19
-8.06042e-20
0.000192549
-1.0429e-19
-8.71132e-20
0.000186025
-8.11749e-20
-9.32759e-20
0.00017971
-1.06344e-19
-1.2077e-19
0.000173599
-1.47905e-19
-9.11036e-20
0.000167684
-1.27561e-19
-1.00179e-19
0.000161959
-9.57326e-20
-9.17942e-20
0.000156418
-1.07503e-19
-9.00329e-20
0.000151055
-1.07459e-19
-9.74519e-20
0.000145866
-8.18055e-20
-9.36455e-20
0.000140843
-8.16276e-20
-8.80218e-20
0.000135982
-8.19558e-20
-6.32566e-20
0.000131278
-6.16755e-20
-4.71044e-20
0.000126725
-6.68963e-20
-4.9953e-20
0.000122319
-5.91452e-20
-1.80716e-20
0.000118055
-5.3627e-20
-2.38644e-20
0.000113929
-4.46297e-20
-2.31077e-20
0.000109935