/*--------------------------------*- C++ -*----------------------------------*\
| =========                 |                                                 |
| \\      /  F ield         | OpenFOAM: The Open Source CFD Toolbox           |
|  \\    /   O peration     | Version:  2012                                  |
|   \\  /    A nd           | Website:  www.openfoam.com                      |
|    \\/     M anipulation  |                                                 |
\*---------------------------------------------------------------------------*/
FoamFile
{
    version     2.0;
    format      ascii;
    class       volScalarField;
    location    "13000";
    object      nut;
}
// * * * * * * * * * * * * * * * * * * * * * * * * * * * * * * * * * * * * * //

dimensions      [0 2 -1 0 0 0 0];


internalField   nonuniform List<scalar> 
5120
(
6.41706e-15
6.41706e-15
5.5359e-15
5.5359e-15
7.27229e-15
7.27229e-15
2.34933e-14
2.34933e-14
9.07612e-14
9.07612e-14
2.90254e-13
2.90254e-13
7.72092e-13
7.72092e-13
1.78402e-12
1.78402e-12
3.70457e-12
3.70457e-12
7.08106e-12
7.08106e-12
1.26725e-11
1.26725e-11
2.14979e-11
2.14979e-11
3.48908e-11
3.48908e-11
5.4559e-11
5.4559e-11
8.26521e-11
8.26521e-11
1.21835e-10
1.21835e-10
1.75371e-10
1.75371e-10
2.47209e-10
2.47209e-10
3.42086e-10
3.42086e-10
4.65631e-10
4.65631e-10
6.24485e-10
6.24485e-10
8.26432e-10
8.26432e-10
1.08053e-09
1.08053e-09
1.39728e-09
1.39728e-09
1.78877e-09
1.78877e-09
2.26887e-09
2.26887e-09
2.8534e-09
2.8534e-09
3.56038e-09
3.56038e-09
4.41021e-09
4.41021e-09
5.42593e-09
5.42593e-09
6.63347e-09
6.63347e-09
8.06192e-09
8.06192e-09
9.74385e-09
9.74385e-09
1.17156e-08
1.17156e-08
1.40176e-08
1.40176e-08
1.66947e-08
1.66947e-08
1.97966e-08
1.97966e-08
2.33783e-08
2.33783e-08
2.75004e-08
2.75004e-08
3.22295e-08
3.22295e-08
3.76387e-08
3.76387e-08
4.38084e-08
4.38084e-08
5.08261e-08
5.08261e-08
5.87877e-08
5.87877e-08
6.77974e-08
6.77974e-08
7.79687e-08
7.79687e-08
8.94246e-08
8.94246e-08
1.02299e-07
1.02299e-07
1.16735e-07
1.16735e-07
1.3289e-07
1.3289e-07
1.5093e-07
1.5093e-07
1.71038e-07
1.71038e-07
1.93405e-07
1.93405e-07
2.18242e-07
2.18242e-07
2.45769e-07
2.45769e-07
2.76225e-07
2.76225e-07
3.09863e-07
3.09863e-07
3.46952e-07
3.46952e-07
3.87779e-07
3.87779e-07
4.32647e-07
4.32647e-07
4.81877e-07
4.81877e-07
5.35809e-07
5.35809e-07
5.948e-07
5.948e-07
6.59227e-07
6.59227e-07
7.29483e-07
7.29483e-07
8.05983e-07
8.05983e-07
8.89159e-07
8.89159e-07
9.79462e-07
9.79462e-07
1.07736e-06
1.07736e-06
1.18335e-06
1.18335e-06
1.29792e-06
1.29792e-06
1.4216e-06
1.4216e-06
1.55494e-06
1.55494e-06
1.69848e-06
1.69848e-06
1.85279e-06
1.85279e-06
2.01847e-06
2.01847e-06
2.19609e-06
2.19609e-06
2.38627e-06
2.38627e-06
2.58962e-06
2.58962e-06
2.80678e-06
2.80678e-06
3.03836e-06
3.03836e-06
3.285e-06
3.285e-06
3.54734e-06
3.54734e-06
3.82601e-06
3.82601e-06
4.12167e-06
4.12167e-06
4.43493e-06
4.43493e-06
4.76643e-06
4.76643e-06
5.11679e-06
5.11679e-06
5.48662e-06
5.48662e-06
5.87652e-06
5.87652e-06
6.28708e-06
6.28708e-06
6.71888e-06
6.71888e-06
7.17246e-06
7.17246e-06
7.64836e-06
7.64836e-06
8.14711e-06
8.14711e-06
8.66918e-06
8.66918e-06
9.21505e-06
9.21505e-06
9.78517e-06
9.78517e-06
1.03799e-05
1.03799e-05
1.09998e-05
1.09998e-05
1.1645e-05
1.1645e-05
1.2316e-05
1.2316e-05
1.3013e-05
1.3013e-05
1.37364e-05
1.37364e-05
1.44863e-05
1.44863e-05
1.5263e-05
1.5263e-05
1.60666e-05
1.60666e-05
1.68974e-05
1.68974e-05
1.77554e-05
1.77554e-05
1.86407e-05
1.86407e-05
1.95534e-05
1.95534e-05
2.04935e-05
2.04935e-05
2.1461e-05
2.1461e-05
2.2456e-05
2.2456e-05
2.34783e-05
2.34783e-05
2.45279e-05
2.45279e-05
2.56047e-05
2.56047e-05
2.67086e-05
2.67086e-05
2.78395e-05
2.78395e-05
2.89971e-05
2.89971e-05
3.01813e-05
3.01813e-05
3.1392e-05
3.1392e-05
3.26289e-05
3.26289e-05
3.38917e-05
3.38917e-05
3.51803e-05
3.51803e-05
3.64944e-05
3.64944e-05
3.78337e-05
3.78337e-05
3.91979e-05
3.91979e-05
4.05868e-05
4.05868e-05
4.20001e-05
4.20001e-05
4.34373e-05
4.34373e-05
4.48983e-05
4.48983e-05
4.63827e-05
4.63827e-05
4.78902e-05
4.78902e-05
4.94204e-05
4.94204e-05
5.09731e-05
5.09731e-05
5.25478e-05
5.25478e-05
5.41442e-05
5.41442e-05
5.5762e-05
5.5762e-05
5.74009e-05
5.74009e-05
5.90605e-05
5.90605e-05
6.07404e-05
6.07404e-05
6.24403e-05
6.24403e-05
6.41598e-05
6.41598e-05
6.58987e-05
6.58987e-05
6.76565e-05
6.76565e-05
6.94329e-05
6.94329e-05
7.12275e-05
7.12275e-05
7.30401e-05
7.30401e-05
7.48703e-05
7.48703e-05
7.67177e-05
7.67177e-05
7.85821e-05
7.85821e-05
8.0463e-05
8.0463e-05
8.23602e-05
8.23602e-05
8.42732e-05
8.42732e-05
8.62019e-05
8.62019e-05
8.81459e-05
8.81459e-05
9.01048e-05
9.01048e-05
9.20783e-05
9.20783e-05
9.40662e-05
9.40662e-05
9.60681e-05
9.60681e-05
9.80837e-05
9.80837e-05
0.000100113
0.000100113
0.000102155
0.000102155
0.00010421
0.00010421
0.000106277
0.000106277
0.000108357
0.000108357
0.000110449
0.000110449
0.000112552
0.000112552
0.000114667
0.000114667
0.000116793
0.000116793
0.00011893
0.00011893
0.000121077
0.000121077
0.000123235
0.000123235
0.000125402
0.000125402
0.00012758
0.00012758
0.000129767
0.000129767
0.000131963
0.000131963
0.000134169
0.000134169
0.000136383
0.000136383
0.000138606
0.000138606
0.000140837
0.000140837
0.000143076
0.000143076
0.000145323
0.000145323
0.000147577
0.000147577
0.000149839
0.000149839
0.000152108
0.000152108
0.000154384
0.000154384
0.000156667
0.000156667
0.000158956
0.000158956
0.000161251
0.000161251
0.000163552
0.000163552
0.00016586
0.00016586
0.000168172
0.000168172
0.000170491
0.000170491
0.000172814
0.000172814
0.000175142
0.000175142
0.000177475
0.000177475
0.000179813
0.000179813
0.000182155
0.000182155
0.000184502
0.000184502
0.000186852
0.000186852
0.000189206
0.000189206
0.000191564
0.000191564
0.000193925
0.000193925
0.000196289
0.000196289
0.000198656
0.000198656
0.000201027
0.000201027
0.0002034
0.0002034
0.000205775
0.000205775
0.000208153
0.000208153
0.000210533
0.000210533
0.000212914
0.000212914
0.000215298
0.000215298
0.000217683
0.000217683
0.00022007
0.00022007
0.000222458
0.000222458
0.000224847
0.000224847
0.000227237
0.000227237
0.000229628
0.000229628
0.000232019
0.000232019
0.000234411
0.000234411
0.000236803
0.000236803
0.000239195
0.000239195
0.000241588
0.000241588
0.00024398
0.00024398
0.000246371
0.000246371
0.000248763
0.000248763
0.000251153
0.000251153
0.000253543
0.000253543
0.000255932
0.000255932
0.000258319
0.000258319
0.000260706
0.000260706
0.000263091
0.000263091
0.000265474
0.000265474
0.000267856
0.000267856
0.000270236
0.000270236
0.000272614
0.000272614
0.00027499
0.00027499
0.000277364
0.000277364
0.000279735
0.000279735
0.000282103
0.000282103
0.000284469
0.000284469
0.000286833
0.000286833
0.000289193
0.000289193
0.00029155
0.00029155
0.000293904
0.000293904
0.000296254
0.000296254
0.000298601
0.000298601
0.000300945
0.000300945
0.000303285
0.000303285
0.00030562
0.00030562
0.000307952
0.000307952
0.00031028
0.00031028
0.000312603
0.000312603
0.000314922
0.000314922
0.000317237
0.000317237
0.000319547
0.000319547
0.000321852
0.000321852
0.000324153
0.000324153
0.000326448
0.000326448
0.000328738
0.000328738
0.000331023
0.000331023
0.000333303
0.000333303
0.000335577
0.000335577
0.000337846
0.000337846
0.000340109
0.000340109
0.000342366
0.000342366
0.000344618
0.000344618
0.000346863
0.000346863
0.000349102
0.000349102
0.000351335
0.000351335
0.000353562
0.000353562
0.000355782
0.000355782
0.000357996
0.000357996
0.000360203
0.000360203
0.000362403
0.000362403
0.000364597
0.000364597
0.000366783
0.000366783
0.000368962
0.000368962
0.000371135
0.000371135
0.0003733
0.0003733
0.000375457
0.000375457
0.000377608
0.000377608
0.00037975
0.00037975
0.000381885
0.000381885
0.000384012
0.000384012
0.000386132
0.000386132
0.000388244
0.000388244
0.000390347
0.000390347
0.000392443
0.000392443
0.00039453
0.00039453
0.000396609
0.000396609
0.00039868
0.00039868
0.000400742
0.000400742
0.000402796
0.000402796
0.000404841
0.000404841
0.000406877
0.000406877
0.000408905
0.000408905
0.000410924
0.000410924
0.000412934
0.000412934
0.000414935
0.000414935
0.000416927
0.000416927
0.00041891
0.00041891
0.000420884
0.000420884
0.000422848
0.000422848
0.000424804
0.000424804
0.000426749
0.000426749
0.000428686
0.000428686
0.000430613
0.000430613
0.00043253
0.00043253
0.000434438
0.000434438
0.000436336
0.000436336
0.000438224
0.000438224
0.000440102
0.000440102
0.000441971
0.000441971
0.00044383
0.00044383
0.000445679
0.000445679
0.000447517
0.000447517
0.000449346
0.000449346
0.000451165
0.000451165
0.000452974
0.000452974
0.000454772
0.000454772
0.00045656
0.00045656
0.000458339
0.000458339
0.000460106
0.000460106
0.000461864
0.000461864
0.000463611
0.000463611
0.000465348
0.000465348
0.000467075
0.000467075
0.000468791
0.000468791
0.000470497
0.000470497
0.000472193
0.000472193
0.000473878
0.000473878
0.000475553
0.000475553
0.000477217
0.000477217
0.000478871
0.000478871
0.000480514
0.000480514
0.000482147
0.000482147
0.00048377
0.00048377
0.000485382
0.000485382
0.000486984
0.000486984
0.000488576
0.000488576
0.000490157
0.000490157
0.000491728
0.000491728
0.000493288
0.000493288
0.000494838
0.000494838
0.000496378
0.000496378
0.000497908
0.000497908
0.000499428
0.000499428
0.000500938
0.000500938
0.000502437
0.000502437
0.000503927
0.000503927
0.000505407
0.000505407
0.000506877
0.000506877
0.000508337
0.000508337
0.000509787
0.000509787
0.000511228
0.000511228
0.000512659
0.000512659
0.000514081
0.000514081
0.000515494
0.000515494
0.000516897
0.000516897
0.000518291
0.000518291
0.000519676
0.000519676
0.000521052
0.000521052
0.00052242
0.00052242
0.000523779
0.000523779
0.000525129
0.000525129
0.000526471
0.000526471
0.000527805
0.000527805
0.000529131
0.000529131
0.000530449
0.000530449
0.000531759
0.000531759
0.000533063
0.000533063
0.000534358
0.000534358
0.000535647
0.000535647
0.000536929
0.000536929
0.000538204
0.000538204
0.000539473
0.000539473
0.000540736
0.000540736
0.000541994
0.000541994
0.000543245
0.000543245
0.000544491
0.000544491
0.000545733
0.000545733
0.00054697
0.00054697
0.000548202
0.000548202
0.00054943
0.00054943
0.000550655
0.000550655
0.000551876
0.000551876
0.000553095
0.000553095
0.000554311
0.000554311
0.000555525
0.000555525
0.000556737
0.000556737
0.000557948
0.000557948
0.000559158
0.000559158
0.000560368
0.000560368
0.000561578
0.000561578
0.000562789
0.000562789
0.000564002
0.000564002
0.000565216
0.000565216
0.000566432
0.000566432
0.000567652
0.000567652
0.000568875
0.000568875
0.000570102
0.000570102
0.000571335
0.000571335
0.000572573
0.000572573
0.000573818
0.000573818
0.00057507
0.00057507
0.000576331
0.000576331
0.0005776
0.0005776
0.000578879
0.000578879
0.000580169
0.000580169
0.00058147
0.00058147
0.000582784
0.000582784
0.000584111
0.000584111
0.000585454
0.000585454
0.000586812
0.000586812
0.000588187
0.000588187
0.000589581
0.000589581
0.000590994
0.000590994
0.000592427
0.000592427
0.000593883
0.000593883
0.000595363
0.000595363
0.000596867
0.000596867
0.000598398
0.000598398
0.000599957
0.000599957
0.000601546
0.000601546
0.000603167
0.000603167
0.000604821
0.000604821
0.000606511
0.000606511
0.000608237
0.000608237
0.000610004
0.000610004
0.000611811
0.000611811
0.000613663
0.000613663
0.00061556
0.00061556
0.000617506
0.000617506
0.000619504
0.000619504
0.000621555
0.000621555
0.000623662
0.000623662
0.000625829
0.000625829
0.000628059
0.000628059
0.000630354
0.000630354
0.000632718
0.000632718
0.000635154
0.000635154
0.000637666
0.000637666
0.000640258
0.000640258
0.000642933
0.000642933
0.000645696
0.000645696
0.000648551
0.000648551
0.000651502
0.000651502
0.000654553
0.000654553
0.00065771
0.00065771
0.000660978
0.000660978
0.000664361
0.000664361
0.000667866
0.000667866
0.000671497
0.000671497
0.000675261
0.000675261
0.000679163
0.000679163
0.000683211
0.000683211
0.000687409
0.000687409
0.000691767
0.000691767
0.000696289
0.000696289
0.000700984
0.000700984
0.00070586
0.00070586
0.000710923
0.000710923
0.000716183
0.000716183
0.000721648
0.000721648
0.000727325
0.000727325
0.000733225
0.000733225
0.000739357
0.000739357
0.000745729
0.000745729
0.000752352
0.000752352
0.000759236
0.000759236
0.00076639
0.00076639
0.000773826
0.000773826
0.000781554
0.000781554
0.000789585
0.000789585
0.000797931
0.000797931
0.000806602
0.000806602
0.000815611
0.000815611
0.000824968
0.000824968
0.000834687
0.000834687
0.000844778
0.000844778
0.000855254
0.000855254
0.000866127
0.000866127
0.000877409
0.000877409
0.000889112
0.000889112
0.000901249
0.000901249
0.000913831
0.000913831
0.00092687
0.00092687
0.000940378
0.000940378
0.000954367
0.000954367
0.000968847
0.000968847
0.000983831
0.000983831
0.000999329
0.000999329
0.00101535
0.00101535
0.00103191
0.00103191
0.00104901
0.00104901
0.00106666
0.00106666
0.00108488
0.00108488
0.00110366
0.00110366
0.00112303
0.00112303
0.00114297
0.00114297
0.00116351
0.00116351
0.00118465
0.00118465
0.00120638
0.00120638
0.00122873
0.00122873
0.00125168
0.00125168
0.00127524
0.00127524
0.00129942
0.00129942
0.00132422
0.00132422
0.00134963
0.00134963
0.00137566
0.00137566
0.0014023
0.0014023
0.00142956
0.00142956
0.00145743
0.00145743
0.00148591
0.00148591
0.00151499
0.00151499
0.00154466
0.00154466
0.00157494
0.00157494
0.0016058
0.0016058
0.00163724
0.00163724
0.00166926
0.00166926
0.00170184
0.00170184
0.00173497
0.00173497
0.00176865
0.00176865
0.00180288
0.00180288
0.00183762
0.00183762
0.00187288
0.00187288
0.00190865
0.00190865
0.00194491
0.00194491
0.00198164
0.00198164
0.00201885
0.00201885
0.0020565
0.0020565
0.0020946
0.0020946
0.00213312
0.00213312
0.00217205
0.00217205
0.00221138
0.00221138
0.00225109
0.00225109
0.00229116
0.00229116
0.00233159
0.00233159
0.00237235
0.00237234
0.00241342
0.00241342
0.0024548
0.0024548
0.00249647
0.00249647
0.0025384
0.0025384
0.00258059
0.00258059
0.00262301
0.00262301
0.00266565
0.00266565
0.0027085
0.0027085
0.00275153
0.00275153
0.00279473
0.00279473
0.00283808
0.00283808
0.00288156
0.00288156
0.00292516
0.00292516
0.00296887
0.00296887
0.00301265
0.00301265
0.0030565
0.0030565
0.0031004
0.0031004
0.00314434
0.00314434
0.00318828
0.00318828
0.00323223
0.00323223
0.00327615
0.00327615
0.00332005
0.00332005
0.00336388
0.00336388
0.00340765
0.00340765
0.00345134
0.00345134
0.00349492
0.00349492
0.00353839
0.00353839
0.00358172
0.00358172
0.0036249
0.0036249
0.00366791
0.00366791
0.00371074
0.00371074
0.00375337
0.00375337
0.00379579
0.00379579
0.00383797
0.00383797
0.00387992
0.00387992
0.0039216
0.0039216
0.003963
0.003963
0.00400412
0.00400412
0.00404492
0.00404492
0.00408541
0.00408541
0.00412556
0.00412556
0.00416536
0.00416536
0.0042048
0.0042048
0.00424385
0.00424385
0.00428252
0.00428252
0.00432077
0.00432077
0.0043586
0.0043586
0.004396
0.004396
0.00443295
0.00443295
0.00446944
0.00446944
0.00450545
0.00450545
0.00454097
0.00454097
0.00457598
0.00457598
0.00461048
0.00461048
0.00464446
0.00464446
0.00467789
0.00467789
0.00471077
0.00471077
0.00474308
0.00474308
0.00477481
0.00477481
0.00480595
0.00480595
0.00483649
0.00483649
0.00486641
0.00486641
0.0048957
0.0048957
0.00492436
0.00492436
0.00495237
0.00495237
0.00497971
0.00497971
0.00500638
0.00500638
0.00503237
0.00503237
0.00505766
0.00505766
0.00508225
0.00508225
0.00510612
0.00510612
0.00512926
0.00512926
0.00515166
0.00515166
0.00517332
0.00517332
0.00519422
0.00519422
0.00521435
0.00521435
0.0052337
0.0052337
0.00525227
0.00525227
0.00527004
0.00527004
0.005287
0.005287
0.00530315
0.00530315
0.00531847
0.00531847
0.00533296
0.00533296
0.00534661
0.00534661
0.0053594
0.0053594
0.00537134
0.00537134
0.00538241
0.00538241
0.0053926
0.0053926
0.0054019
0.0054019
0.00541031
0.00541031
0.00541782
0.00541782
0.00542442
0.00542442
0.0054301
0.0054301
0.00543486
0.00543486
0.00543868
0.00543868
0.00544156
0.00544156
0.00544349
0.00544349
0.00544445
0.00544445
6.41706e-15
6.41706e-15
5.5359e-15
5.5359e-15
7.27229e-15
7.27229e-15
2.34933e-14
2.34933e-14
9.07612e-14
9.07612e-14
2.90254e-13
2.90254e-13
7.72092e-13
7.72092e-13
1.78402e-12
1.78402e-12
3.70457e-12
3.70457e-12
7.08106e-12
7.08106e-12
1.26725e-11
1.26725e-11
2.14979e-11
2.14979e-11
3.48908e-11
3.48908e-11
5.4559e-11
5.4559e-11
8.26521e-11
8.26521e-11
1.21835e-10
1.21835e-10
1.75371e-10
1.75371e-10
2.47209e-10
2.47209e-10
3.42086e-10
3.42086e-10
4.65631e-10
4.65631e-10
6.24485e-10
6.24485e-10
8.26432e-10
8.26432e-10
1.08053e-09
1.08053e-09
1.39728e-09
1.39728e-09
1.78877e-09
1.78877e-09
2.26887e-09
2.26887e-09
2.8534e-09
2.8534e-09
3.56038e-09
3.56038e-09
4.41021e-09
4.41021e-09
5.42593e-09
5.42593e-09
6.63347e-09
6.63347e-09
8.06192e-09
8.06192e-09
9.74385e-09
9.74385e-09
1.17156e-08
1.17156e-08
1.40176e-08
1.40176e-08
1.66947e-08
1.66947e-08
1.97966e-08
1.97966e-08
2.33783e-08
2.33783e-08
2.75004e-08
2.75004e-08
3.22295e-08
3.22295e-08
3.76387e-08
3.76387e-08
4.38084e-08
4.38084e-08
5.08261e-08
5.08261e-08
5.87877e-08
5.87877e-08
6.77974e-08
6.77974e-08
7.79687e-08
7.79687e-08
8.94246e-08
8.94246e-08
1.02299e-07
1.02299e-07
1.16735e-07
1.16735e-07
1.3289e-07
1.3289e-07
1.5093e-07
1.5093e-07
1.71038e-07
1.71038e-07
1.93405e-07
1.93405e-07
2.18242e-07
2.18242e-07
2.45769e-07
2.45769e-07
2.76225e-07
2.76225e-07
3.09863e-07
3.09863e-07
3.46952e-07
3.46952e-07
3.87779e-07
3.87779e-07
4.32647e-07
4.32647e-07
4.81877e-07
4.81877e-07
5.35809e-07
5.35809e-07
5.948e-07
5.948e-07
6.59227e-07
6.59227e-07
7.29483e-07
7.29483e-07
8.05983e-07
8.05983e-07
8.89159e-07
8.89159e-07
9.79462e-07
9.79462e-07
1.07736e-06
1.07736e-06
1.18335e-06
1.18335e-06
1.29792e-06
1.29792e-06
1.4216e-06
1.4216e-06
1.55494e-06
1.55494e-06
1.69848e-06
1.69848e-06
1.85279e-06
1.85279e-06
2.01847e-06
2.01847e-06
2.19609e-06
2.19609e-06
2.38627e-06
2.38627e-06
2.58962e-06
2.58962e-06
2.80678e-06
2.80678e-06
3.03836e-06
3.03836e-06
3.285e-06
3.285e-06
3.54734e-06
3.54734e-06
3.82601e-06
3.82601e-06
4.12167e-06
4.12167e-06
4.43493e-06
4.43493e-06
4.76643e-06
4.76643e-06
5.11679e-06
5.11679e-06
5.48662e-06
5.48662e-06
5.87652e-06
5.87652e-06
6.28708e-06
6.28708e-06
6.71888e-06
6.71888e-06
7.17246e-06
7.17246e-06
7.64836e-06
7.64836e-06
8.14711e-06
8.14711e-06
8.66918e-06
8.66918e-06
9.21505e-06
9.21505e-06
9.78517e-06
9.78517e-06
1.03799e-05
1.03799e-05
1.09998e-05
1.09998e-05
1.1645e-05
1.1645e-05
1.2316e-05
1.2316e-05
1.3013e-05
1.3013e-05
1.37364e-05
1.37364e-05
1.44863e-05
1.44863e-05
1.5263e-05
1.5263e-05
1.60666e-05
1.60666e-05
1.68974e-05
1.68974e-05
1.77554e-05
1.77554e-05
1.86407e-05
1.86407e-05
1.95534e-05
1.95534e-05
2.04935e-05
2.04935e-05
2.1461e-05
2.1461e-05
2.2456e-05
2.2456e-05
2.34783e-05
2.34783e-05
2.45279e-05
2.45279e-05
2.56047e-05
2.56047e-05
2.67086e-05
2.67086e-05
2.78395e-05
2.78395e-05
2.89971e-05
2.89971e-05
3.01813e-05
3.01813e-05
3.1392e-05
3.1392e-05
3.26289e-05
3.26289e-05
3.38917e-05
3.38917e-05
3.51803e-05
3.51803e-05
3.64944e-05
3.64944e-05
3.78337e-05
3.78337e-05
3.91979e-05
3.91979e-05
4.05868e-05
4.05868e-05
4.20001e-05
4.20001e-05
4.34373e-05
4.34373e-05
4.48983e-05
4.48983e-05
4.63827e-05
4.63827e-05
4.78902e-05
4.78902e-05
4.94204e-05
4.94204e-05
5.09731e-05
5.09731e-05
5.25478e-05
5.25478e-05
5.41442e-05
5.41442e-05
5.5762e-05
5.5762e-05
5.74009e-05
5.74009e-05
5.90605e-05
5.90605e-05
6.07404e-05
6.07404e-05
6.24403e-05
6.24403e-05
6.41598e-05
6.41598e-05
6.58987e-05
6.58987e-05
6.76565e-05
6.76565e-05
6.94329e-05
6.94329e-05
7.12275e-05
7.12275e-05
7.30401e-05
7.30401e-05
7.48703e-05
7.48703e-05
7.67177e-05
7.67177e-05
7.85821e-05
7.85821e-05
8.0463e-05
8.0463e-05
8.23602e-05
8.23602e-05
8.42732e-05
8.42732e-05
8.62019e-05
8.62019e-05
8.81459e-05
8.81459e-05
9.01048e-05
9.01048e-05
9.20783e-05
9.20783e-05
9.40662e-05
9.40662e-05
9.60681e-05
9.60681e-05
9.80837e-05
9.80837e-05
0.000100113
0.000100113
0.000102155
0.000102155
0.00010421
0.00010421
0.000106277
0.000106277
0.000108357
0.000108357
0.000110449
0.000110449
0.000112552
0.000112552
0.000114667
0.000114667
0.000116793
0.000116793
0.00011893
0.00011893
0.000121077
0.000121077
0.000123235
0.000123235
0.000125402
0.000125402
0.00012758
0.00012758
0.000129767
0.000129767
0.000131963
0.000131963
0.000134169
0.000134169
0.000136383
0.000136383
0.000138606
0.000138606
0.000140837
0.000140837
0.000143076
0.000143076
0.000145323
0.000145323
0.000147577
0.000147577
0.000149839
0.000149839
0.000152108
0.000152108
0.000154384
0.000154384
0.000156667
0.000156667
0.000158956
0.000158956
0.000161251
0.000161251
0.000163552
0.000163552
0.00016586
0.00016586
0.000168172
0.000168172
0.000170491
0.000170491
0.000172814
0.000172814
0.000175142
0.000175142
0.000177475
0.000177475
0.000179813
0.000179813
0.000182155
0.000182155
0.000184502
0.000184502
0.000186852
0.000186852
0.000189206
0.000189206
0.000191564
0.000191564
0.000193925
0.000193925
0.000196289
0.000196289
0.000198656
0.000198656
0.000201027
0.000201027
0.0002034
0.0002034
0.000205775
0.000205775
0.000208153
0.000208153
0.000210533
0.000210533
0.000212914
0.000212914
0.000215298
0.000215298
0.000217683
0.000217683
0.00022007
0.00022007
0.000222458
0.000222458
0.000224847
0.000224847
0.000227237
0.000227237
0.000229628
0.000229628
0.000232019
0.000232019
0.000234411
0.000234411
0.000236803
0.000236803
0.000239195
0.000239195
0.000241588
0.000241588
0.00024398
0.00024398
0.000246371
0.000246371
0.000248763
0.000248763
0.000251153
0.000251153
0.000253543
0.000253543
0.000255932
0.000255932
0.000258319
0.000258319
0.000260706
0.000260706
0.000263091
0.000263091
0.000265474
0.000265474
0.000267856
0.000267856
0.000270236
0.000270236
0.000272614
0.000272614
0.00027499
0.00027499
0.000277364
0.000277364
0.000279735
0.000279735
0.000282103
0.000282103
0.000284469
0.000284469
0.000286833
0.000286833
0.000289193
0.000289193
0.00029155
0.00029155
0.000293904
0.000293904
0.000296254
0.000296254
0.000298601
0.000298601
0.000300945
0.000300945
0.000303285
0.000303285
0.00030562
0.00030562
0.000307952
0.000307952
0.00031028
0.00031028
0.000312603
0.000312603
0.000314922
0.000314922
0.000317237
0.000317237
0.000319547
0.000319547
0.000321852
0.000321852
0.000324153
0.000324153
0.000326448
0.000326448
0.000328738
0.000328738
0.000331023
0.000331023
0.000333303
0.000333303
0.000335577
0.000335577
0.000337846
0.000337846
0.000340109
0.000340109
0.000342366
0.000342366
0.000344618
0.000344618
0.000346863
0.000346863
0.000349102
0.000349102
0.000351335
0.000351335
0.000353562
0.000353562
0.000355782
0.000355782
0.000357996
0.000357996
0.000360203
0.000360203
0.000362403
0.000362403
0.000364597
0.000364597
0.000366783
0.000366783
0.000368962
0.000368962
0.000371135
0.000371135
0.0003733
0.0003733
0.000375457
0.000375457
0.000377608
0.000377608
0.00037975
0.00037975
0.000381885
0.000381885
0.000384012
0.000384012
0.000386132
0.000386132
0.000388244
0.000388244
0.000390347
0.000390347
0.000392443
0.000392443
0.00039453
0.00039453
0.000396609
0.000396609
0.00039868
0.00039868
0.000400742
0.000400742
0.000402796
0.000402796
0.000404841
0.000404841
0.000406877
0.000406877
0.000408905
0.000408905
0.000410924
0.000410924
0.000412934
0.000412934
0.000414935
0.000414935
0.000416927
0.000416927
0.00041891
0.00041891
0.000420884
0.000420884
0.000422848
0.000422848
0.000424804
0.000424804
0.000426749
0.000426749
0.000428686
0.000428686
0.000430613
0.000430613
0.00043253
0.00043253
0.000434438
0.000434438
0.000436336
0.000436336
0.000438224
0.000438224
0.000440102
0.000440102
0.000441971
0.000441971
0.00044383
0.00044383
0.000445679
0.000445679
0.000447517
0.000447517
0.000449346
0.000449346
0.000451165
0.000451165
0.000452974
0.000452974
0.000454772
0.000454772
0.00045656
0.00045656
0.000458339
0.000458339
0.000460106
0.000460106
0.000461864
0.000461864
0.000463611
0.000463611
0.000465348
0.000465348
0.000467075
0.000467075
0.000468791
0.000468791
0.000470497
0.000470497
0.000472193
0.000472193
0.000473878
0.000473878
0.000475553
0.000475553
0.000477217
0.000477217
0.000478871
0.000478871
0.000480514
0.000480514
0.000482147
0.000482147
0.00048377
0.00048377
0.000485382
0.000485382
0.000486984
0.000486984
0.000488576
0.000488576
0.000490157
0.000490157
0.000491728
0.000491728
0.000493288
0.000493288
0.000494838
0.000494838
0.000496378
0.000496378
0.000497908
0.000497908
0.000499428
0.000499428
0.000500938
0.000500938
0.000502437
0.000502437
0.000503927
0.000503927
0.000505407
0.000505407
0.000506877
0.000506877
0.000508337
0.000508337
0.000509787
0.000509787
0.000511228
0.000511228
0.000512659
0.000512659
0.000514081
0.000514081
0.000515494
0.000515494
0.000516897
0.000516897
0.000518291
0.000518291
0.000519676
0.000519676
0.000521052
0.000521052
0.00052242
0.00052242
0.000523779
0.000523779
0.000525129
0.000525129
0.000526471
0.000526471
0.000527805
0.000527805
0.000529131
0.000529131
0.000530449
0.000530449
0.000531759
0.000531759
0.000533063
0.000533063
0.000534358
0.000534358
0.000535647
0.000535647
0.000536929
0.000536929
0.000538204
0.000538204
0.000539473
0.000539473
0.000540736
0.000540736
0.000541994
0.000541994
0.000543245
0.000543245
0.000544491
0.000544491
0.000545733
0.000545733
0.00054697
0.00054697
0.000548202
0.000548202
0.00054943
0.00054943
0.000550655
0.000550655
0.000551876
0.000551876
0.000553095
0.000553095
0.000554311
0.000554311
0.000555525
0.000555525
0.000556737
0.000556737
0.000557948
0.000557948
0.000559158
0.000559158
0.000560368
0.000560368
0.000561578
0.000561578
0.000562789
0.000562789
0.000564002
0.000564002
0.000565216
0.000565216
0.000566432
0.000566432
0.000567652
0.000567652
0.000568875
0.000568875
0.000570102
0.000570102
0.000571335
0.000571335
0.000572573
0.000572573
0.000573818
0.000573818
0.00057507
0.00057507
0.000576331
0.000576331
0.0005776
0.0005776
0.000578879
0.000578879
0.000580169
0.000580169
0.00058147
0.00058147
0.000582784
0.000582784
0.000584111
0.000584111
0.000585454
0.000585454
0.000586812
0.000586812
0.000588187
0.000588187
0.000589581
0.000589581
0.000590994
0.000590994
0.000592427
0.000592427
0.000593883
0.000593883
0.000595363
0.000595363
0.000596867
0.000596867
0.000598398
0.000598398
0.000599957
0.000599957
0.000601546
0.000601546
0.000603167
0.000603167
0.000604821
0.000604821
0.000606511
0.000606511
0.000608237
0.000608237
0.000610004
0.000610004
0.000611811
0.000611811
0.000613663
0.000613663
0.00061556
0.00061556
0.000617506
0.000617506
0.000619504
0.000619504
0.000621555
0.000621555
0.000623662
0.000623662
0.000625829
0.000625829
0.000628059
0.000628059
0.000630354
0.000630354
0.000632718
0.000632718
0.000635154
0.000635154
0.000637666
0.000637666
0.000640258
0.000640258
0.000642933
0.000642933
0.000645696
0.000645696
0.000648551
0.000648551
0.000651502
0.000651502
0.000654553
0.000654553
0.00065771
0.00065771
0.000660978
0.000660978
0.000664361
0.000664361
0.000667866
0.000667866
0.000671497
0.000671497
0.000675261
0.000675261
0.000679163
0.000679163
0.000683211
0.000683211
0.000687409
0.000687409
0.000691767
0.000691767
0.000696289
0.000696289
0.000700984
0.000700984
0.00070586
0.00070586
0.000710923
0.000710923
0.000716183
0.000716183
0.000721648
0.000721648
0.000727325
0.000727325
0.000733225
0.000733225
0.000739357
0.000739357
0.000745729
0.000745729
0.000752352
0.000752352
0.000759236
0.000759236
0.00076639
0.00076639
0.000773826
0.000773826
0.000781554
0.000781554
0.000789585
0.000789585
0.000797931
0.000797931
0.000806602
0.000806602
0.000815611
0.000815611
0.000824968
0.000824968
0.000834687
0.000834687
0.000844778
0.000844778
0.000855254
0.000855254
0.000866127
0.000866127
0.000877409
0.000877409
0.000889112
0.000889112
0.000901249
0.000901249
0.000913831
0.000913831
0.00092687
0.00092687
0.000940378
0.000940378
0.000954367
0.000954367
0.000968847
0.000968847
0.000983831
0.000983831
0.000999329
0.000999329
0.00101535
0.00101535
0.00103191
0.00103191
0.00104901
0.00104901
0.00106666
0.00106666
0.00108488
0.00108488
0.00110366
0.00110366
0.00112303
0.00112303
0.00114297
0.00114297
0.00116351
0.00116351
0.00118465
0.00118465
0.00120638
0.00120638
0.00122873
0.00122873
0.00125168
0.00125168
0.00127524
0.00127524
0.00129942
0.00129942
0.00132422
0.00132422
0.00134963
0.00134963
0.00137566
0.00137566
0.0014023
0.0014023
0.00142956
0.00142956
0.00145743
0.00145743
0.00148591
0.00148591
0.00151499
0.00151499
0.00154466
0.00154466
0.00157494
0.00157494
0.0016058
0.0016058
0.00163724
0.00163724
0.00166926
0.00166926
0.00170184
0.00170184
0.00173497
0.00173497
0.00176865
0.00176865
0.00180288
0.00180288
0.00183762
0.00183762
0.00187288
0.00187288
0.00190865
0.00190865
0.00194491
0.00194491
0.00198164
0.00198164
0.00201885
0.00201885
0.0020565
0.0020565
0.0020946
0.0020946
0.00213312
0.00213312
0.00217205
0.00217205
0.00221138
0.00221138
0.00225109
0.00225109
0.00229116
0.00229116
0.00233159
0.00233159
0.00237234
0.00237234
0.00241342
0.00241342
0.0024548
0.0024548
0.00249647
0.00249647
0.0025384
0.0025384
0.00258059
0.00258059
0.00262301
0.00262301
0.00266565
0.00266565
0.0027085
0.0027085
0.00275153
0.00275153
0.00279473
0.00279473
0.00283808
0.00283808
0.00288156
0.00288156
0.00292516
0.00292516
0.00296887
0.00296887
0.00301265
0.00301265
0.0030565
0.0030565
0.0031004
0.0031004
0.00314434
0.00314434
0.00318828
0.00318828
0.00323223
0.00323223
0.00327615
0.00327615
0.00332005
0.00332005
0.00336388
0.00336388
0.00340765
0.00340765
0.00345134
0.00345134
0.00349492
0.00349492
0.00353839
0.00353839
0.00358172
0.00358172
0.0036249
0.0036249
0.00366791
0.00366791
0.00371074
0.00371074
0.00375337
0.00375337
0.00379579
0.00379579
0.00383797
0.00383797
0.00387992
0.00387992
0.0039216
0.0039216
0.003963
0.003963
0.00400412
0.00400412
0.00404492
0.00404492
0.00408541
0.00408541
0.00412556
0.00412556
0.00416536
0.00416536
0.0042048
0.0042048
0.00424385
0.00424385
0.00428252
0.00428252
0.00432077
0.00432077
0.0043586
0.0043586
0.004396
0.004396
0.00443295
0.00443295
0.00446944
0.00446944
0.00450545
0.00450545
0.00454097
0.00454097
0.00457598
0.00457598
0.00461048
0.00461048
0.00464446
0.00464446
0.00467789
0.00467789
0.00471077
0.00471077
0.00474308
0.00474308
0.00477481
0.00477481
0.00480595
0.00480595
0.00483649
0.00483649
0.00486641
0.00486641
0.0048957
0.0048957
0.00492436
0.00492436
0.00495237
0.00495237
0.00497971
0.00497971