/*--------------------------------*- C++ -*----------------------------------*\
| =========                 |                                                 |
| \\      /  F ield         | OpenFOAM: The Open Source CFD Toolbox           |
|  \\    /   O peration     | Version:  2012                                  |
|   \\  /    A nd           | Website:  www.openfoam.com                      |
|    \\/     M anipulation  |                                                 |
\*---------------------------------------------------------------------------*/
FoamFile
{
    version     2.0;
    format      ascii;
    class       volScalarField;
    location    "13000";
    object      omega;
}
// * * * * * * * * * * * * * * * * * * * * * * * * * * * * * * * * * * * * * //

dimensions      [0 0 -1 0 0 0 0];


internalField   nonuniform List<scalar> 
5120
(
5.74144e+06
5.74144e+06
1.00316e+06
1.00316e+06
342360
342360
162650
162650
92893.1
92893.1
59447.9
59447.9
41057.6
41057.6
29936.8
29936.8
22728
22728
17801.9
17801.9
14293.1
14293.1
11709.3
11709.3
9753.91
9753.91
8239.82
8239.82
7044.54
7044.54
6085.13
6085.13
5303.89
5303.89
4659.64
4659.64
4122.43
4122.43
3670.01
3670.01
3285.63
3285.63
2956.44
2956.44
2672.47
2672.47
2425.92
2425.92
2210.57
2210.57
2021.44
2021.44
1854.51
1854.51
1706.48
1706.48
1574.65
1574.65
1456.78
1456.78
1351
1351
1255.75
1255.75
1169.7
1169.7
1091.72
1091.72
1020.87
1020.87
956.319
956.319
897.359
897.359
843.379
843.379
793.851
793.851
748.312
748.312
706.357
706.357
667.632
667.632
631.825
631.825
598.66
598.66
567.892
567.892
539.305
539.305
512.706
512.706
487.923
487.923
464.801
464.801
443.201
443.201
422.999
422.999
404.084
404.084
386.354
386.354
369.717
369.717
354.09
354.09
339.398
339.398
325.572
325.572
312.551
312.551
300.275
300.275
288.695
288.695
277.761
277.761
267.43
267.43
257.661
257.661
248.418
248.418
239.667
239.667
231.375
231.375
223.515
223.515
216.058
216.058
208.98
208.98
202.258
202.258
195.871
195.871
189.798
189.798
184.022
184.022
178.524
178.524
173.288
173.288
168.301
168.301
163.546
163.546
159.013
159.013
154.687
154.687
150.558
150.558
146.614
146.614
142.846
142.846
139.244
139.244
135.799
135.799
132.503
132.503
129.348
129.348
126.325
126.325
123.429
123.429
120.652
120.652
117.988
117.988
115.431
115.431
112.976
112.976
110.618
110.618
108.35
108.35
106.169
106.169
104.07
104.07
102.049
102.049
100.102
100.102
98.2249
98.2249
96.4141
96.4141
94.6663
94.6663
92.9783
92.9783
91.347
91.347
89.7696
89.7696
88.2434
88.2434
86.7658
86.7658
85.3343
85.3343
83.9466
83.9466
82.6007
82.6007
81.2943
81.2943
80.0256
80.0256
78.7928
78.7928
77.594
77.594
76.4278
76.4278
75.2924
75.2924
74.1866
74.1866
73.1088
73.1088
72.0578
72.0578
71.0324
71.0324
70.0315
70.0315
69.0539
69.0539
68.0986
68.0986
67.1647
67.1647
66.2513
66.2513
65.3574
65.3574
64.4823
64.4823
63.6253
63.6253
62.7856
62.7856
61.9625
61.9625
61.1555
61.1555
60.3638
60.3638
59.587
59.587
58.8245
58.8245
58.0758
58.0758
57.3404
57.3404
56.6179
56.6179
55.9079
55.9079
55.2099
55.2099
54.5236
54.5236
53.8486
53.8486
53.1846
53.1846
52.5312
52.5312
51.8882
51.8882
51.2552
51.2552
50.632
50.632
50.0184
50.0184
49.414
49.414
48.8186
48.8186
48.232
48.232
47.6541
47.6541
47.0845
47.0845
46.5231
46.5231
45.9696
45.9696
45.424
45.424
44.8861
44.8861
44.3556
44.3556
43.8324
43.8324
43.3164
43.3164
42.8074
42.8074
42.3053
42.3053
41.8099
41.8099
41.3211
41.3211
40.8387
40.8387
40.3628
40.3628
39.893
39.893
39.4294
39.4294
38.9718
38.9718
38.52
38.52
38.0741
38.0741
37.6338
37.6338
37.1992
37.1992
36.77
36.77
36.3462
36.3462
35.9277
35.9277
35.5145
35.5145
35.1064
35.1064
34.7033
34.7033
34.3052
34.3052
33.912
33.912
33.5236
33.5236
33.1399
33.1399
32.7609
32.7609
32.3864
32.3864
32.0165
32.0165
31.6511
31.6511
31.29
31.29
30.9332
30.9332
30.5807
30.5807
30.2323
30.2323
29.8881
29.8881
29.5479
29.5479
29.2118
29.2118
28.8796
28.8796
28.5512
28.5512
28.2267
28.2267
27.906
27.906
27.589
27.589
27.2757
27.2757
26.966
26.966
26.6599
26.6599
26.3573
26.3573
26.0581
26.0581
25.7624
25.7624
25.4701
25.4701
25.1811
25.1811
24.8954
24.8954
24.6129
24.6129
24.3336
24.3336
24.0575
24.0575
23.7845
23.7845
23.5146
23.5146
23.2477
23.2477
22.9837
22.9837
22.7228
22.7228
22.4648
22.4648
22.2096
22.2096
21.9573
21.9573
21.7078
21.7078
21.4611
21.4611
21.2171
21.2171
20.9758
20.9758
20.7372
20.7372
20.5012
20.5012
20.2678
20.2678
20.037
20.037
19.8087
19.8087
19.583
19.583
19.3597
19.3597
19.1389
19.1389
18.9204
18.9204
18.7044
18.7044
18.4907
18.4907
18.2794
18.2794
18.0704
18.0704
17.8636
17.8636
17.6591
17.6591
17.4568
17.4568
17.2568
17.2568
17.0589
17.0589
16.8631
16.8631
16.6695
16.6695
16.478
16.478
16.2885
16.2885
16.1011
16.1011
15.9157
15.9157
15.7323
15.7323
15.551
15.551
15.3715
15.3715
15.194
15.194
15.0185
15.0185
14.8448
14.8448
14.673
14.673
14.503
14.503
14.3349
14.3349
14.1686
14.1686
14.0041
14.0041
13.8413
13.8413
13.6804
13.6804
13.5211
13.5211
13.3636
13.3636
13.2077
13.2077
13.0536
13.0536
12.9011
12.9011
12.7502
12.7502
12.601
12.601
12.4533
12.4533
12.3073
12.3073
12.1628
12.1628
12.0199
12.0199
11.8786
11.8786
11.7387
11.7387
11.6004
11.6004
11.4636
11.4636
11.3282
11.3282
11.1943
11.1943
11.0618
11.0618
10.9308
10.9308
10.8012
10.8012
10.6729
10.6729
10.5461
10.5461
10.4207
10.4207
10.2965
10.2965
10.1738
10.1738
10.0523
10.0523
9.93223
9.93223
9.8134
9.8134
9.69587
9.69587
9.57961
9.57961
9.46461
9.46461
9.35085
9.35085
9.23833
9.23833
9.12704
9.12704
9.01695
9.01695
8.90805
8.90805
8.80034
8.80034
8.69381
8.69381
8.58843
8.58843
8.4842
8.4842
8.3811
8.3811
8.27913
8.27913
8.17827
8.17827
8.07851
8.07851
7.97984
7.97984
7.88225
7.88225
7.78572
7.78572
7.69025
7.69025
7.59582
7.59582
7.50243
7.50243
7.41006
7.41006
7.31871
7.31871
7.22835
7.22835
7.13899
7.13899
7.0506
7.0506
6.96319
6.96319
6.87674
6.87674
6.79124
6.79124
6.70668
6.70668
6.62305
6.62305
6.54035
6.54035
6.45855
6.45855
6.37766
6.37766
6.29766
6.29766
6.21854
6.21854
6.14029
6.14029
6.06291
6.06291
5.98639
5.98639
5.91071
5.91071
5.83587
5.83587
5.76186
5.76186
5.68867
5.68867
5.61629
5.61629
5.54471
5.54471
5.47393
5.47393
5.40393
5.40393
5.33471
5.33471
5.26626
5.26626
5.19857
5.19857
5.13163
5.13163
5.06544
5.06544
4.99999
4.99999
4.93526
4.93526
4.87125
4.87125
4.80796
4.80796
4.74537
4.74537
4.68348
4.68348
4.62228
4.62228
4.56176
4.56176
4.50191
4.50191
4.44274
4.44274
4.38422
4.38422
4.32636
4.32636
4.26915
4.26915
4.21257
4.21257
4.15663
4.15663
4.10131
4.10131
4.04661
4.04661
3.99252
3.99252
3.93903
3.93903
3.88614
3.88614
3.83385
3.83385
3.78214
3.78214
3.731
3.731
3.68044
3.68044
3.63045
3.63045
3.58101
3.58101
3.53212
3.53212
3.48378
3.48378
3.43599
3.43599
3.38872
3.38872
3.34199
3.34199
3.29577
3.29577
3.25008
3.25008
3.20489
3.20489
3.16021
3.16021
3.11603
3.11603
3.07234
3.07234
3.02914
3.02914
2.98642
2.98642
2.94417
2.94417
2.9024
2.9024
2.86109
2.86109
2.82025
2.82025
2.77986
2.77986
2.73992
2.73992
2.70042
2.70042
2.66137
2.66137
2.62275
2.62275
2.58455
2.58455
2.54679
2.54679
2.50944
2.50944
2.47251
2.47251
2.43599
2.43599
2.39987
2.39987
2.36416
2.36416
2.32884
2.32884
2.29392
2.29392
2.25938
2.25938
2.22522
2.22522
2.19145
2.19145
2.15805
2.15805
2.12502
2.12502
2.09235
2.09235
2.06005
2.06005
2.02811
2.02811
1.99652
1.99652
1.96528
1.96528
1.93439
1.93439
1.90384
1.90384
1.87363
1.87363
1.84375
1.84375
1.81421
1.81421
1.78499
1.78499
1.7561
1.7561
1.72753
1.72753
1.69928
1.69928
1.67135
1.67135
1.64373
1.64373
1.61641
1.61641
1.5894
1.5894
1.5627
1.5627
1.53629
1.53629
1.51018
1.51018
1.48437
1.48437
1.45884
1.45884
1.43361
1.43361
1.40866
1.40866
1.384
1.384
1.35962
1.35962
1.33552
1.33552
1.31169
1.31169
1.28814
1.28814
1.26486
1.26486
1.24186
1.24186
1.21912
1.21912
1.19665
1.19665
1.17445
1.17445
1.15251
1.15251
1.13083
1.13083
1.10941
1.10941
1.08825
1.08825
1.06735
1.06735
1.04671
1.04671
1.02632
1.02632
1.00618
1.00618
0.986303
0.986303
0.966673
0.966673
0.947295
0.947295
0.928167
0.928167
0.909288
0.909288
0.890658
0.890658
0.872276
0.872276
0.854141
0.854141
0.836253
0.836253
0.818612
0.818612
0.801217
0.801217
0.784067
0.784067
0.767163
0.767163
0.750503
0.750503
0.734088
0.734088
0.717918
0.717918
0.701992
0.701992
0.68631
0.68631
0.670872
0.670872
0.655678
0.655678
0.640728
0.640728
0.626021
0.626021
0.611557
0.611557
0.597337
0.597337
0.58336
0.58336
0.569626
0.569626
0.556134
0.556134
0.542886
0.542886
0.529879
0.529879
0.517114
0.517114
0.504591
0.504591
0.492308
0.492308
0.480266
0.480266
0.468464
0.468464
0.4569
0.4569
0.445575
0.445575
0.434487
0.434487
0.423635
0.423635
0.413019
0.413019
0.402636
0.402636
0.392486
0.392486
0.382567
0.382567
0.372877
0.372877
0.363415
0.363415
0.354178
0.354178
0.345165
0.345165
0.336374
0.336374
0.327802
0.327802
0.319446
0.319446
0.311305
0.311305
0.303375
0.303375
0.295655
0.295655
0.288139
0.288139
0.280827
0.280827
0.273714
0.273714
0.266798
0.266798
0.260074
0.260074
0.25354
0.25354
0.247192
0.247192
0.241027
0.241027
0.23504
0.23504
0.229228
0.229228
0.223588
0.223588
0.218115
0.218115
0.212805
0.212805
0.207656
0.207656
0.202662
0.202662
0.197821
0.197821
0.193127
0.193127
0.188578
0.188578
0.18417
0.18417
0.179898
0.179898
0.175759
0.175759
0.171749
0.171749
0.167864
0.167864
0.164101
0.164101
0.160456
0.160456
0.156926
0.156926
0.153507
0.153507
0.150196
0.150196
0.146988
0.146988
0.143882
0.143882
0.140874
0.140874
0.13796
0.13796
0.135138
0.135138
0.132405
0.132405
0.129757
0.129757
0.127192
0.127192
0.124708
0.124708
0.1223
0.1223
0.119968
0.119968
0.117708
0.117708
0.115518
0.115518
0.113395
0.113395
0.111338
0.111338
0.109344
0.109344
0.10741
0.10741
0.105536
0.105536
0.103718
0.103718
0.101955
0.101955
0.100245
0.100245
0.0985866
0.0985866
0.0969773
0.0969773
0.0954159
0.0954159
0.0939006
0.0939006
0.0924299
0.0924299
0.0910024
0.0910024
0.0896164
0.0896164
0.0882707
0.0882707
0.0869639
0.0869639
0.0856947
0.0856947
0.0844619
0.0844619
0.0832641
0.0832642
0.0821004
0.0821004
0.0809696
0.0809696
0.0798705
0.0798705
0.0788022
0.0788022
0.0777637
0.0777637
0.076754
0.076754
0.0757721
0.0757721
0.0748173
0.0748173
0.0738886
0.0738886
0.0729853
0.0729853
0.0721065
0.0721065
0.0712514
0.0712514
0.0704194
0.0704194
0.0696098
0.0696098
0.0688218
0.0688218
0.0680549
0.0680549
0.0673084
0.0673084
0.0665816
0.0665816
0.0658741
0.0658741
0.0651853
0.0651853
0.0645145
0.0645145
0.0638615
0.0638615
0.0632255
0.0632255
0.0626062
0.0626062
0.0620031
0.0620031
0.0614158
0.0614158
0.0608438
0.0608438
0.0602868
0.0602868
0.0597443
0.0597443
0.0592161
0.0592161
0.0587017
0.0587017
0.0582007
0.0582007
0.057713
0.057713
0.0572382
0.0572382
0.0567759
0.0567759
0.0563259
0.0563259
0.0558879
0.0558879
0.0554617
0.0554617
0.055047
0.055047
0.0546435
0.0546435
0.0542512
0.0542512
0.0538696
0.0538696
0.0534987
0.0534987
0.0531383
0.0531383
0.0527881
0.0527881
0.052448
0.052448
0.0521178
0.0521178
0.0517974
0.0517974
0.0514866
0.0514866
0.0511853
0.0511853
0.0508935
0.0508935
0.0506108
0.0506108
0.0503373
0.0503373
0.0500729
0.0500729
0.0498175
0.0498175
0.0495709
0.0495709
0.0493331
0.0493331
0.0491041
0.0491041
0.0488837
0.0488837
0.048672
0.048672
0.0484688
0.0484688
0.0482743
0.0482743
0.0480882
0.0480882
0.0479107
0.0479107
0.0477416
0.0477416
0.0475811
0.0475811
0.0474291
0.0474291
0.0472855
0.0472855
0.0471505
0.0471505
0.0470241
0.0470241
0.0469062
0.0469062
0.0467969
0.0467969
0.0466964
0.0466964
0.0466045
0.0466045
0.0465215
0.0465215
0.0464473
0.0464473
0.046382
0.046382
0.0463258
0.0463258
0.0462786
0.0462786
0.0462407
0.0462407
0.0462121
0.0462121
0.0461929
0.0461929
0.0461832
0.0461832
5.74144e+06
5.74144e+06
1.00316e+06
1.00316e+06
342360
342360
162650
162650
92893.1
92893.1
59447.9
59447.9
41057.6
41057.6
29936.8
29936.8
22728
22728
17801.9
17801.9
14293.1
14293.1
11709.3
11709.3
9753.91
9753.91
8239.82
8239.82
7044.54
7044.54
6085.13
6085.13
5303.89
5303.89
4659.64
4659.64
4122.43
4122.43
3670.01
3670.01
3285.63
3285.63
2956.44
2956.44
2672.47
2672.47
2425.92
2425.92
2210.57
2210.57
2021.44
2021.44
1854.51
1854.51
1706.48
1706.48
1574.65
1574.65
1456.78
1456.78
1351
1351
1255.75
1255.75
1169.7
1169.7
1091.72
1091.72
1020.87
1020.87
956.319
956.319
897.359
897.359
843.379
843.379
793.851
793.851
748.312
748.312
706.357
706.357
667.632
667.632
631.825
631.825
598.66
598.66
567.892
567.892
539.305
539.305
512.706
512.706
487.923
487.923
464.801
464.801
443.201
443.201
422.999
422.999
404.084
404.084
386.354
386.354
369.717
369.717
354.09
354.09
339.398
339.398
325.572
325.572
312.551
312.551
300.275
300.275
288.695
288.695
277.761
277.761
267.43
267.43
257.661
257.661
248.418
248.418
239.667
239.667
231.375
231.375
223.515
223.515
216.058
216.058
208.98
208.98
202.258
202.258
195.871
195.871
189.798
189.798
184.022
184.022
178.524
178.524
173.288
173.288
168.301
168.301
163.546
163.546
159.013
159.013
154.687
154.687
150.558
150.558
146.614
146.614
142.846
142.846
139.244
139.244
135.799
135.799
132.503
132.503
129.348
129.348
126.325
126.325
123.429
123.429
120.652
120.652
117.988
117.988
115.431
115.431
112.976
112.976
110.618
110.618
108.35
108.35
106.169
106.169
104.07
104.07
102.049
102.049
100.102
100.102
98.2249
98.2249
96.4141
96.4141
94.6663
94.6663
92.9783
92.9783
91.347
91.347
89.7696
89.7696
88.2434
88.2434
86.7658
86.7658
85.3343
85.3343
83.9466
83.9466
82.6007
82.6007
81.2943
81.2943
80.0256
80.0256
78.7928
78.7928
77.594
77.594
76.4278
76.4278
75.2924
75.2924
74.1866
74.1866
73.1088
73.1088
72.0578
72.0578
71.0324
71.0324
70.0315
70.0315
69.0539
69.0539
68.0986
68.0986
67.1647
67.1647
66.2513
66.2513
65.3574
65.3574
64.4823
64.4823
63.6253
63.6253
62.7856
62.7856
61.9625
61.9625
61.1555
61.1555
60.3638
60.3638
59.587
59.587
58.8245
58.8245
58.0758
58.0758
57.3404
57.3404
56.6179
56.6179
55.9079
55.9079
55.2099
55.2099
54.5236
54.5236
53.8486
53.8486
53.1846
53.1846
52.5312
52.5312
51.8882
51.8882
51.2552
51.2552
50.632
50.632
50.0184
50.0184
49.414
49.414
48.8186
48.8186
48.232
48.232
47.6541
47.6541
47.0845
47.0845
46.5231
46.5231
45.9696
45.9696
45.424
45.424
44.8861
44.8861
44.3556
44.3556
43.8324
43.8324
43.3164
43.3164
42.8074
42.8074
42.3053
42.3053
41.8099
41.8099
41.3211
41.3211
40.8387
40.8387
40.3628
40.3628
39.893
39.893
39.4294
39.4294
38.9718
38.9718
38.52
38.52
38.0741
38.0741
37.6338
37.6338
37.1992
37.1992
36.77
36.77
36.3462
36.3462
35.9277
35.9277
35.5145
35.5145
35.1064
35.1064
34.7033
34.7033
34.3052
34.3052
33.912
33.912
33.5236
33.5236
33.1399
33.1399
32.7609
32.7609
32.3864
32.3864
32.0165
32.0165
31.6511
31.6511
31.29
31.29
30.9332
30.9332
30.5807
30.5807
30.2323
30.2323
29.8881
29.8881
29.5479
29.5479
29.2118
29.2118
28.8796
28.8796
28.5512
28.5512
28.2267
28.2267
27.906
27.906
27.589
27.589
27.2757
27.2757
26.966
26.966
26.6599
26.6599
26.3573
26.3573
26.0581
26.0581
25.7624
25.7624
25.4701
25.4701
25.1811
25.1811
24.8954
24.8954
24.6129
24.6129
24.3336
24.3336
24.0575
24.0575
23.7845
23.7845
23.5146
23.5146
23.2477
23.2477
22.9837
22.9837
22.7228
22.7228
22.4648
22.4648
22.2096
22.2096
21.9573
21.9573
21.7078
21.7078
21.4611
21.4611
21.2171
21.2171
20.9758
20.9758
20.7372
20.7372
20.5012
20.5012
20.2678
20.2678
20.037
20.037
19.8087
19.8087
19.583
19.583
19.3597
19.3597
19.1389
19.1389
18.9204
18.9204
18.7044
18.7044
18.4907
18.4907
18.2794
18.2794
18.0704
18.0704
17.8636
17.8636
17.6591
17.6591
17.4568
17.4568
17.2568
17.2568
17.0589
17.0589
16.8631
16.8631
16.6695
16.6695
16.478
16.478
16.2885
16.2885
16.1011
16.1011
15.9157
15.9157
15.7323
15.7323
15.551
15.551
15.3715
15.3715
15.194
15.194
15.0185
15.0185
14.8448
14.8448
14.673
14.673
14.503
14.503
14.3349
14.3349
14.1686
14.1686
14.0041
14.0041
13.8413
13.8413
13.6804
13.6804
13.5211
13.5211
13.3636
13.3636
13.2077
13.2077
13.0536
13.0536
12.9011
12.9011
12.7502
12.7502
12.601
12.601
12.4533
12.4533
12.3073
12.3073
12.1628
12.1628
12.0199
12.0199
11.8786
11.8786
11.7387
11.7387
11.6004
11.6004
11.4636
11.4636
11.3282
11.3282
11.1943
11.1943
11.0618
11.0618
10.9308
10.9308
10.8012
10.8012
10.6729
10.6729
10.5461
10.5461
10.4207
10.4207
10.2965
10.2965
10.1738
10.1738
10.0523
10.0523
9.93223
9.93223
9.8134
9.8134
9.69587
9.69587
9.57961
9.57961
9.46461
9.46461
9.35085
9.35085
9.23833
9.23833
9.12704
9.12704
9.01695
9.01695
8.90805
8.90805
8.80034
8.80034
8.69381
8.69381
8.58843
8.58843
8.4842
8.4842
8.3811
8.3811
8.27913
8.27913
8.17827
8.17827
8.07851
8.07851
7.97984
7.97984
7.88225
7.88225
7.78572
7.78572
7.69025
7.69025
7.59582
7.59582
7.50243
7.50243
7.41006
7.41006
7.31871
7.31871
7.22835
7.22835
7.13899
7.13899
7.0506
7.0506
6.96319
6.96319
6.87674
6.87674
6.79124
6.79124
6.70668
6.70668
6.62305
6.62305
6.54035
6.54035
6.45855
6.45855
6.37766
6.37766
6.29766
6.29766
6.21854
6.21854
6.14029
6.14029
6.06291
6.06291
5.98639
5.98639
5.91071
5.91071
5.83587
5.83587
5.76186
5.76186
5.68867
5.68867
5.61629
5.61629
5.54471
5.54471
5.47393
5.47393
5.40393
5.40393
5.33471
5.33471
5.26626
5.26626
5.19857
5.19857
5.13163
5.13163
5.06544
5.06544
4.99999
4.99999
4.93526
4.93526
4.87125
4.87125
4.80796
4.80796
4.74537
4.74537
4.68348
4.68348
4.62228
4.62228
4.56176
4.56176
4.50191
4.50191
4.44274
4.44274
4.38422
4.38422
4.32636
4.32636
4.26915
4.26915
4.21257
4.21257
4.15663
4.15663
4.10131
4.10131
4.04661
4.04661
3.99252
3.99252
3.93903
3.93903
3.88614
3.88614
3.83385
3.83385
3.78214
3.78214
3.731
3.731
3.68044
3.68044
3.63045
3.63045
3.58101
3.58101
3.53212
3.53212
3.48378
3.48378
3.43599
3.43599
3.38872
3.38872
3.34199
3.34199
3.29577
3.29577
3.25008
3.25008
3.20489
3.20489
3.16021
3.16021
3.11603
3.11603
3.07234
3.07234
3.02914
3.02914
2.98642
2.98642
2.94417
2.94417
2.9024
2.9024
2.86109
2.86109
2.82025
2.82025
2.77986
2.77986
2.73992
2.73992
2.70042
2.70042
2.66137
2.66137
2.62275
2.62275
2.58455
2.58455
2.54679
2.54679
2.50944
2.50944
2.47251
2.47251
2.43599
2.43599
2.39987
2.39987
2.36416
2.36416
2.32884
2.32884
2.29392
2.29392
2.25938
2.25938
2.22522
2.22522
2.19145
2.19145
2.15805
2.15805
2.12502
2.12502
2.09235
2.09235
2.06005
2.06005
2.02811
2.02811
1.99652
1.99652
1.96528
1.96528
1.93439
1.93439
1.90384
1.90384
1.87363
1.87363
1.84375
1.84375
1.81421
1.81421
1.78499
1.78499
1.7561
1.7561
1.72753
1.72753
1.69928
1.69928
1.67135
1.67135
1.64373
1.64373
1.61641
1.61641
1.5894
1.5894
1.5627
1.5627
1.53629
1.53629
1.51018
1.51018
1.48437
1.48437
1.45884
1.45884
1.43361
1.43361
1.40866
1.40866
1.384
1.384
1.35962
1.35962
1.33552
1.33552
1.31169
1.31169
1.28814
1.28814
1.26486
1.26486
1.24186
1.24186
1.21912
1.21912
1.19665
1.19665
1.17445
1.17445
1.15251
1.15251
1.13083
1.13083
1.10941
1.10941
1.08825
1.08825
1.06735
1.06735
1.04671
1.04671
1.02632
1.02632
1.00618
1.00618
0.986303
0.986303
0.966673
0.966673
0.947295
0.947295
0.928167
0.928167
0.909288
0.909288
0.890658
0.890658
0.872276
0.872276
0.854141
0.854141
0.836253
0.836253
0.818612
0.818612
0.801217
0.801217
0.784067
0.784067
0.767163
0.767163
0.750503
0.750503
0.734088
0.734088
0.717918
0.717918
0.701992
0.701992
0.68631
0.68631
0.670872
0.670872
0.655678
0.655678
0.640728
0.640728
0.626021
0.626021
0.611557
0.611557
0.597337
0.597337
0.58336
0.58336
0.569626
0.569626
0.556134
0.556134
0.542886
0.542886
0.529879
0.529879
0.517114
0.517114
0.504591
0.504591
0.492308
0.492308
0.480266
0.480266
0.468464
0.468464
0.4569
0.4569
0.445575
0.445575
0.434487
0.434487
0.423635
0.423635
0.413019
0.413019
0.402636
0.402636
0.392486
0.392486
0.382567
0.382567
0.372877
0.372877
0.363415
0.363415
0.354178
0.354178
0.345165
0.345165
0.336374
0.336374
0.327802
0.327802
0.319446
0.319446
0.311305
0.311305
0.303375
0.303375
0.295655
0.295655
0.288139
0.288139
0.280827
0.280827
0.273714
0.273714
0.266798
0.266798
0.260074
0.260074
0.25354
0.25354
0.247192
0.247192
0.241027
0.241027
0.23504
0.23504
0.229228
0.229228
0.223588
0.223588
0.218115
0.218115
0.212805
0.212805
0.207656
0.207656
0.202662
0.202662
0.197821
0.197821
0.193127
0.193127
0.188578
0.188578
0.18417
0.18417
0.179898
0.179898
0.175759
0.175759
0.171749
0.171749
0.167864
0.167864
0.164101
0.164101
0.160456
0.160456
0.156926
0.156926
0.153507
0.153507
0.150196
0.150196
0.146988
0.146988
0.143882
0.143882
0.140874
0.140874
0.13796
0.13796
0.135138
0.135138
0.132405
0.132405
0.129757
0.129757
0.127192
0.127192
0.124708
0.124708
0.1223
0.1223
0.119968
0.119968
0.117708
0.117708
0.115518
0.115518
0.113395
0.113395
0.111338
0.111338
0.109344
0.109344
0.10741
0.10741
0.105536
0.105536
0.103718
0.103718
0.101955
0.101955
0.100245
0.100245
0.0985866
0.0985866
0.0969773
0.0969773
0.0954159
0.0954159
0.0939006
0.0939006
0.0924299
0.0924299
0.0910024
0.0910024
0.0896164
0.0896164
0.0882707
0.0882707
0.0869639
0.0869639
0.0856947
0.0856947
0.0844619
0.0844619
0.0832642
0.0832642
0.0821004
0.0821004
0.0809696
0.0809696
0.0798705
0.0798705
0.0788022
0.0788022
0.0777637
0.0777637
0.076754
0.076754
0.0757721
0.0757721
0.0748173
0.0748173
0.0738886
0.0738886
0.0729853
0.0729853
0.0721065
0.0721065
0.0712514
0.0712514
0.0704194
0.0704194
0.0696098
0.0696098
0.0688218
0.0688218
0.0680549
0.0680549
0.0673084
0.0673084
0.0665816
0.0665816
0.0658741
0.0658741
0.0651853
0.0651853
0.0645145
0.0645145
0.0638615
0.0638615
0.0632255
0.0632255
0.0626062
0.0626062
0.0620031
0.0620031
0.0614158
0.0614158
0.0608438
0.0608438
0.0602868
0.0602868
0.0597443
0.0597443
0.0592161
0.0592161
0.0587017
0.0587017
0.0582007
0.0582007
0.057713
0.057713
0.0572382
0.0572382
0.0567759
0.0567759
0.0563259
0.0563259
0.0558879
0.0558879
0.0554617
0.0554617
0.055047
0.055047
0.0546435
0.0546435
0.0542512
0.0542512
0.0538696
0.0538696
0.0534987
0.0534987
0.0531383
0.0531383
0.0527881
0.0527881
0.052448
0.052448
0.0521178
0.0521178
0.0517974
0.0517974
0.0514866
0.0514866
0.0511853
0.0511853
0.0508935
0.0508935
0.0506108
0.0506108
0.0503373
0.0503373
0.0500729
0.0500729
0.0498175
0.0498175
0.0495709
0.0495709
0.0493331
0.0493331
0.0491041
0.0491041
0.0488837
0.0488837
0.048672
0.048672
0.0484688
0.0484688
0.0482743
0.0482743
0.0480882
0.0480882
0.0479107
0.0479107
0.0477416
0.0477416
0.0475811
0.0475811
0.0474291
0.0474291
0.0472855
0.0472855
0.0471505
0.0471505
0.0470241
0.0470241
0.0469062
0.0469062
0.0467969
0.0467969
0.0466964
0.0466964
0.0466045
0.0466045
0.0465215
0.0465215
0.0464473
0.0464473
0.046382
0.046382
0.0463258
0.0463258
0.0462786
0.0462786
0.0462407
0.0462407
0.0462121
0.0462121
0.0461929
0.0461929
0.0461832
0.0461832
0.0461832
0.0461832
0.0461929
0.0461929
0.0462121
0.0462121
0.0462407
0.0462407
0.0462786
0.0462786
0.0463258
0.0463258
0.046382
0.046382
0.0464473
0.0464473
0.0465215
0.0465215
0.0466045
0.0466045
0.0466964
0.0466964
0.0467969
0.0467969
0.0469062
0.0469062
0.0470241
0.0470241
0.0471505
0.0471505
0.0472855
0.0472855
0.047429
0.0474291
0.0475811
0.0475811
0.0477416
0.0477416
0.0479107
0.0479107
0.0480882
0.0480882
0.0482743
0.0482743
0.0484688
0.0484688
0.048672
0.048672
0.0488837
0.0488837
0.049104
0.049104
0.0493331
0.0493331
0.0495708
0.0495708
0.0498174
0.0498174
0.0500729
0.0500729
0.0503373
0.0503373
0.0506108
0.0506108
0.0508934
0.0508934
0.0511853
0.0511853
0.0514866
0.0514866
0.0517973
0.0517973
0.0521177
0.0521177
0.0524479
0.0524479
0.052788
0.052788
0.0531382
0.0531382
0.0534987
0.0534987
0.0538696
0.0538696
0.0542511
0.0542511
0.0546435
0.0546435
0.0550469
0.0550469
0.0554616
0.0554616
0.0558878
0.0558878
0.0563258
0.0563258
0.0567758
0.0567758
0.0572381
0.0572381
0.0577129
0.0577129
0.0582007
0.0582007
0.0587016
0.0587016
0.059216
0.059216
0.0597442
0.0597442
0.0602867
0.0602867
0.0608437
0.0608437
0.0614157
0.0614157
0.062003
0.062003
0.0626061
0.0626061
0.0632254
0.0632254
0.0638613
0.0638613
0.0645144
0.0645144
0.0651851
0.0651851
0.065874
0.065874
0.0665815
0.0665815
0.0673082
0.0673082
0.0680547
0.0680547
0.0688217
0.0688217
0.0696096
0.0696096
0.0704192
0.0704192
0.0712512
0.0712512
0.0721062
0.0721062
0.072985
0.072985
0.0738884
0.0738884
0.0748171
0.0748171
0.0757719
0.0757719
0.0767537
0.0767537
0.0777634
0.0777634
0.0788019
0.0788019
0.0798702
0.0798702
0.0809693
0.0809693
0.0821001
0.0821001
0.0832638
0.0832638
0.0844615
0.0844615
0.0856944
0.0856944
0.0869636
0.0869636
0.0882704
0.0882704
0.089616
0.089616
0.091002
0.091002
0.0924295
0.0924295
0.0939002
0.0939002
0.0954155
0.0954155
0.0969769
0.0969769
0.0985861
0.0985861
0.100245
0.100245
0.101955
0.101955
0.103718
0.103718
0.105535
0.105535
0.10741
0.10741
0.109343
0.109343
0.111338
0.111338
0.113395
0.113395
0.115517
0.115517
0.117707
0.117707
0.119967
0.119967
0.1223
0.1223
0.124707
0.124707
0.127192
0.127192
0.129757
0.129757
0.132404
0.132404
0.135138
0.135138
0.13796
0.13796
0.140873
0.140873
0.143882
0.143882
0.146988
0.146988
0.150195
0.150195
0.153506
0.153506
0.156925
0.156925
0.160455
0.160455
0.1641
0.1641
0.167863
0.167863
0.171748
0.171748
0.175758
0.175758
0.179897
0.179897
0.184169
0.184169
0.188577
0.188577
0.193126
0.193126
0.19782
0.19782
0.202661
0.202661
0.207655
0.207655
0.212804
0.212804
0.218114
0.218114
0.223587
0.223587
0.229227
0.229227
0.235039
0.235039
0.241025
0.241025
0.247191
0.247191
0.253539
0.253539
0.260073
0.260073
0.266796
0.266796
0.273713
0.273713
0.280826
0.280826
0.288138
0.288138
0.295653
0.295653
0.303374
0.303374
0.311304
0.311304
0.319445
0.319445
0.327801
0.327801
0.336373
0.336373
0.345164
0.345164
0.354177
0.354177
0.363414
0.363414
0.372876
0.372876
0.382566
0.382566
0.392485
0.392485
0.402635
0.402635
0.413018
0.413018
0.423634
0.423634
0.434486
0.434486
0.445574
0.445574
0.456899
0.456899
0.468463
0.468463
0.480265
0.480265
0.492307
0.492307
0.50459
0.50459
0.517113
0.517113
0.529878
0.529878
0.542885
0.542885
0.556134
0.556134
0.569625
0.569625
0.583359
0.583359
0.597336
0.597336
0.611556
0.611556
0.62602
0.62602
0.640727
0.640727
0.655677
0.655677
0.670871
0.670871
0.686309
0.686309
0.701991
0.701991
0.717917
0.717917
0.734088
0.734088
0.750503
0.750503
0.767162
0.767162
0.784067
0.784067
0.801216
0.801216
0.818612
0.818612
0.836253
0.836253
0.854141
0.854141
0.872275
0.872275
0.890657
0.890657
0.909287
0.909287
0.928166
0.928166
0.947294
0.947294
0.966673
0.966673
0.986302
0.986302
1.00618
1.00618
1.02632
1.02632
1.04671
1.04671
1.06735
1.06735
1.08825
1.08825
1.10941
1.10941
1.13083
1.13083
1.15251
1.15251
1.17445
1.17445
1.19665
1.19665
1.21912
1.21912
1.24186
1.24186
1.26486
1.26486
1.28814
1.28814
1.31169
1.31169
1.33552
1.33552
1.35962
1.35962
1.384
1.384
1.40866
1.40866
1.43361
1.43361
1.45884
1.45884
1.48437
1.48437
1.51018
1.51018
1.53629
1.53629
1.5627
1.5627
1.5894
1.5894
1.61641
1.61641
1.64373
1.64373
1.67135
1.67135
1.69928
1.69928
1.72753
1.72753
1.7561
1.7561
1.78499
1.78499
1.81421
1.81421
1.84375
1.84375
1.87363
1.87363
1.90384
1.90384
1.93439
1.93439
1.96528
1.96528
1.99652
1.99652
2.02811
2.02811
2.06005
2.06005
2.09235
2.09235
2.12502
2.12502
2.15805
2.15805
2.19145
2.19145
2.22522
2.22522
2.25938
2.25938
2.29392
2.29392
2.32884
2.32884
2.36416
2.36416
2.39987
2.39987
2.43599
2.43599
2.47251
2.47251
2.50944
2.50944
2.54679
2.54679
2.58455
2.58455
2.62274
2.62274
2.66137
2.66137
2.70042
2.70042
2.73992
2.73992
2.77986
2.77986
2.82025
2.82025
2.86109
2.86109
2.9024
2.9024
2.94417
2.94417
2.98641
2.98641
3.02913
3.02913
3.07234
3.07234
3.11603
3.11603
3.16021
3.16021
3.20489
3.20489
3.25008
3.25008
3.29577
3.29577
3.34199
3.34199
3.38872
3.38872
3.43599
3.43599
3.48378
3.48378
3.53212
3.53212
3.58101
3.58101
3.63044
3.63044
3.68044
3.68044
3.731
3.731
3.78214
3.78214
3.83385
3.83385
3.88614
3.88614
3.93903
3.93903
3.99252
3.99252
4.04661
4.04661
4.10131
4.10131
4.15663
4.15663
4.21257
4.21257
4.26915
4.26915
4.32636
4.32636
4.38422
4.38422
4.44274
4.44274
4.50191
4.50191
4.56176
4.56176
4.62227
4.62227
4.68348
4.68348
4.74537
4.74537
4.80796
4.80796
4.87125
4.87125
4.93526
4.93526
4.99998
4.99998
5.06544
5.06544
5.13163
5.13163
5.19857
5.19857
5.26626
5.26626
5.33471
5.33471
5.40393
5.40393
5.47393
5.47393
5.54471
5.54471
5.61629
5.61629
5.68867
5.68867
5.76186
5.76186
5.83587
5.83587
5.91071
5.91071
5.98639
5.98639
6.06291
6.06291
6.14029
6.14029
6.21854
6.21854
6.29765
6.29765
6.37766
6.37766
6.45855
6.45855
6.54035
6.54035
6.62305
6.62305
6.70668
6.70668
6.79124
6.79124
6.87674
6.87674
6.96319
6.96319
7.0506
7.0506
7.13899
7.13899
7.22835
7.22835
7.31871
7.31871
7.41006
7.41006
7.50243
7.50243
7.59582
7.59582
7.69025
7.69025
7.78572
7.78572
7.88225
7.88225
7.97984
7.97984
8.07851
8.07851
8.17827
8.17827
8.27913
8.27913
8.3811
8.3811
8.4842
8.4842
8.58843
8.58843
8.69381
8.69381
8.80034
8.80034
8.90805
8.90805
9.01695
9.01695
9.12704
9.12704
9.23833
9.23833
9.35085
9.35085
9.46461
9.46461
9.57961
9.57961
9.69587
9.69587
9.8134
9.8134
9.93223
9.93223
10.0523
10.0523
10.1738
10.1738
10.2965
10.2965
10.4207
10.4207
10.5461
10.5461
10.6729
10.6729
10.8012
10.8012
10.9308
10.9308
11.0618
11.0618
11.1943
11.1943
11.3282
11.3282
11.4636
11.4636
11.6004
11.6004
11.7387
11.7387
11.8786
11.8786
12.0199
12.0199
12.1628
12.1628
12.3073
12.3073
12.4533
12.4533
12.601
12.601
12.7502
12.7502
12.9011
12.9011
13.0536
13.0536
13.2077
13.2077
13.3636
13.3636
13.5211
13.5211
13.6804
13.6804
13.8413
13.8413
14.0041
14.0041
14.1686
14.1686
14.3349
14.3349
14.503
14.503
14.673
14.673
14.8448
14.8448
15.0185
15.0185
15.194
15.194
15.3715
15.3715
15.551
15.551
15.7323
15.7323
15.9157
15.9157
16.1011
16.1011
16.2885
16.2885
16.4779
16.4779
16.6695
16.6695
16.8631
16.8631
17.0589
17.0589
17.2568
17.2568
17.4568
17.4568
17.6591
17.6591
17.8636
17.8636
18.0704
18.0704
18.2794
18.2794
18.4907
18.4907
18.7044
18.7044
18.9204
18.9204
19.1388
19.1388
19.3597
19.3597
19.583
19.583
19.8087
19.8087
20.037
20.037
20.2678
20.2678
20.5012
20.5012
20.7372
20.7372
20.9758
20.9758
21.2171
21.2171
21.4611
21.4611
21.7078
21.7078
21.9573
21.9573
22.2096
22.2096
22.4648
22.4648
22.7228
22.7228
22.9837
22.9837
23.2477
23.2477
23.5146
23.5146
23.7845
23.7845
24.0575
24.0575
24.3336
24.3336
24.6129
24.6129
24.8954
24.8954
25.1811
25.1811
25.4701
25.4701
25.7624
25.7624
26.0581
26.0581
26.3573
26.3573
26.6599
26.6599
26.966
26.966
27.2757
27.2757
27.589
27.589
27.906
27.906
28.2267
28.2267
28.5512
28.5512
28.8796
28.8796
29.2118
29.2118
29.5479
29.5479
29.8881
29.8881
30.2323
30.2323