/*--------------------------------*- C++ -*----------------------------------*\
| =========                 |                                                 |
| \\      /  F ield         | OpenFOAM: The Open Source CFD Toolbox           |
|  \\    /   O peration     | Version:  2106                                  |
|   \\  /    A nd           | Website:  www.openfoam.com                      |
|    \\/     M anipulation  |                                                 |
\*---------------------------------------------------------------------------*/
FoamFile
{
    version     2.0;
    format      ascii;
    arch        "LSB;label=32;scalar=64";
    class       volScalarField;
    location    "2000";
    object      p;
}
// * * * * * * * * * * * * * * * * * * * * * * * * * * * * * * * * * * * * * //

dimensions      [0 2 -2 0 0 0 0];

internalField   nonuniform List<scalar> 
2560
(
5.23001e-15
4.39843e-14
1.08563e-14
4.39839e-14
1.19551e-14
4.39837e-14
1.19896e-14
4.39838e-14
1.21859e-14
4.39841e-14
1.25896e-14
4.39845e-14
1.30333e-14
4.39851e-14
1.34723e-14
4.3986e-14
1.39059e-14
4.3987e-14
1.43355e-14
4.39882e-14
1.47601e-14
4.39895e-14
1.51789e-14
4.39909e-14
1.55918e-14
4.39926e-14
1.59986e-14
4.39943e-14
1.63994e-14
4.39963e-14
1.6794e-14
4.39985e-14
1.71828e-14
4.40009e-14
1.75656e-14
4.40034e-14
1.79426e-14
4.40061e-14
1.8314e-14
4.4009e-14
1.86797e-14
4.4012e-14
1.90397e-14
4.40152e-14
1.9394e-14
4.40188e-14
1.97433e-14
4.40223e-14
2.0087e-14
4.40259e-14
2.04253e-14
4.40297e-14
2.07581e-14
4.40337e-14
2.1086e-14
4.40381e-14
2.14088e-14
4.40428e-14
2.17265e-14
4.40475e-14
2.20393e-14
4.40523e-14
2.2347e-14
4.40569e-14
2.26498e-14
4.40618e-14
2.29478e-14
4.40671e-14
2.32412e-14
4.40725e-14
2.35297e-14
4.40784e-14
2.38135e-14
4.40843e-14
2.40929e-14
4.40902e-14
2.43683e-14
4.40961e-14
2.46391e-14
4.41021e-14
2.49054e-14
4.41082e-14
2.51674e-14
4.41144e-14
2.54251e-14
4.4121e-14
2.56784e-14
4.41278e-14
2.59275e-14
4.41348e-14
2.61724e-14
4.41421e-14
2.64129e-14
4.41496e-14
2.66499e-14
4.41574e-14
2.68825e-14
4.41654e-14
2.71111e-14
4.41734e-14
2.73365e-14
4.41816e-14
2.7558e-14
4.41899e-14
2.77755e-14
4.4198e-14
2.79894e-14
4.42063e-14
2.81999e-14
4.42148e-14
2.84069e-14
4.42234e-14
2.86108e-14
4.42319e-14
2.88116e-14
4.42402e-14
2.9009e-14
4.42482e-14
2.92029e-14
4.42566e-14
2.93936e-14
4.4265e-14
2.95812e-14
4.42736e-14
2.97653e-14
4.42817e-14
2.99467e-14
4.42896e-14
3.0125e-14
4.4298e-14
3.03e-14
4.43063e-14
3.04717e-14
4.43149e-14
3.06408e-14
4.43232e-14
3.08067e-14
4.43316e-14
3.09707e-14
4.43402e-14
3.11313e-14
4.43484e-14
3.12888e-14
4.43565e-14
3.14439e-14
4.43642e-14
3.15968e-14
4.43719e-14
3.17468e-14
4.43799e-14
3.18938e-14
4.43879e-14
3.20382e-14
4.43957e-14
3.21805e-14
4.4403e-14
3.23206e-14
4.44102e-14
3.24583e-14
4.44178e-14
3.2593e-14
4.44257e-14
3.27254e-14
4.44323e-14
3.28564e-14
4.44382e-14
3.29848e-14
4.44442e-14
3.31106e-14
4.44513e-14
3.32349e-14
4.44574e-14
3.33576e-14
4.44628e-14
3.34784e-14
4.44668e-14
3.35976e-14
4.44709e-14
3.37153e-14
4.44752e-14
3.38312e-14
4.44784e-14
3.39449e-14
4.44816e-14
3.40564e-14
4.44847e-14
3.41664e-14
4.44873e-14
3.4275e-14
4.44886e-14
3.43815e-14
4.44901e-14
3.44875e-14
4.44914e-14
3.45918e-14
4.44928e-14
3.46935e-14
4.44933e-14
3.47947e-14
4.4492e-14
3.48948e-14
4.44896e-14
3.49942e-14
4.44873e-14
3.50902e-14
4.44847e-14
3.51858e-14
4.4482e-14
3.52807e-14
4.44791e-14
3.53742e-14
4.44749e-14
3.54666e-14
4.44707e-14
3.55582e-14
4.44654e-14
3.56489e-14
4.4459e-14
3.5738e-14
4.44525e-14
3.58258e-14
4.44457e-14
3.5912e-14
4.44387e-14
3.59972e-14
4.44306e-14
3.60821e-14
4.44211e-14
3.6166e-14
4.44117e-14
3.62501e-14
4.4401e-14
3.63328e-14
4.43891e-14
3.64153e-14
4.43766e-14
3.64966e-14
4.43637e-14
3.65784e-14
4.43501e-14
3.66595e-14
4.4335e-14
3.6739e-14
4.43195e-14
3.68185e-14
4.43032e-14
3.68978e-14
4.42868e-14
3.69767e-14
4.42696e-14
3.70556e-14
4.42522e-14
3.71345e-14
4.42337e-14
3.72131e-14
4.42145e-14
3.72919e-14
4.41935e-14
3.73695e-14
4.41716e-14
3.74466e-14
4.41502e-14
3.75227e-14
4.41294e-14
3.75995e-14
4.41077e-14
3.7676e-14
4.40843e-14
3.77522e-14
4.40607e-14
3.78282e-14
4.40368e-14
3.7905e-14
4.40112e-14
3.79805e-14
4.39852e-14
3.80572e-14
4.39596e-14
3.8133e-14
4.39328e-14
3.82069e-14
4.39046e-14
3.82803e-14
4.38768e-14
3.83542e-14
4.38485e-14
3.84274e-14
4.38193e-14
3.85007e-14
4.37898e-14
3.85736e-14
4.37603e-14
3.86464e-14
4.37298e-14
3.87189e-14
4.36991e-14
3.87903e-14
4.36684e-14
3.88615e-14
4.36373e-14
3.89329e-14
4.36051e-14
3.90056e-14
4.35719e-14
3.9077e-14
4.35392e-14
3.91477e-14
4.3506e-14
3.92144e-14
4.34729e-14
3.92814e-14
4.34377e-14
3.93491e-14
4.34015e-14
3.9418e-14
4.33668e-14
3.94868e-14
4.3333e-14
3.95547e-14
4.32973e-14
3.96207e-14
4.32626e-14
3.96852e-14
4.3229e-14
3.97509e-14
4.31957e-14
3.98173e-14
4.31624e-14
3.98813e-14
4.31289e-14
3.9947e-14
4.30948e-14
4.00115e-14
4.30616e-14
4.00741e-14
4.30294e-14
4.01365e-14
4.2997e-14
4.01977e-14
4.29654e-14
4.02591e-14
4.29352e-14
4.03202e-14
4.29051e-14
4.03796e-14
4.28757e-14
4.0437e-14
4.28474e-14
4.04937e-14
4.28196e-14
4.05491e-14
4.27927e-14
4.06038e-14
4.27667e-14
4.06582e-14
4.27414e-14
4.0712e-14
4.27177e-14
4.07657e-14
4.26945e-14
4.08183e-14
4.26726e-14
4.08699e-14
4.2651e-14
4.09204e-14
4.26294e-14
4.09728e-14
4.26088e-14
4.10244e-14
4.25878e-14
4.10727e-14
4.25685e-14
4.11194e-14
4.25512e-14
4.11646e-14
4.25357e-14
4.12106e-14
4.25202e-14
4.12543e-14
4.25072e-14
4.12968e-14
4.24966e-14
4.1339e-14
4.24854e-14
4.13802e-14
4.24735e-14
4.14219e-14
4.24652e-14
4.14626e-14
4.24585e-14
4.15035e-14
4.24475e-14
4.15396e-14
4.24425e-14
4.15745e-14
4.24422e-14
4.16084e-14
4.24443e-14
4.16414e-14
4.24461e-14
4.16735e-14
4.24526e-14
4.1705e-14
4.246e-14
4.17374e-14
4.24668e-14
4.17708e-14
4.24757e-14
4.18057e-14
4.24851e-14
4.18422e-14
4.24949e-14
4.18763e-14
4.25095e-14
4.19126e-14
4.25228e-14
4.19517e-14
4.25345e-14
4.19906e-14
4.25493e-14
4.20297e-14
4.25692e-14
4.20711e-14
4.25849e-14
4.21152e-14
4.25918e-14
4.2163e-14
4.26053e-14
4.22171e-14
4.2617e-14
4.22675e-14
4.26374e-14
4.23213e-14
4.266e-14
4.23744e-14
4.26797e-14
4.24245e-14
4.27062e-14
4.2477e-14
4.27424e-14
4.25296e-14
4.27722e-14
4.25854e-14
4.28036e-14
4.26391e-14
4.28456e-14
4.26936e-14
4.2902e-14
4.27525e-14
4.29476e-14
4.28163e-14
4.29811e-14
4.28821e-14
4.30302e-14
4.29427e-14
4.3096e-14
4.30095e-14
4.31721e-14
4.30746e-14
4.3239e-14
4.31463e-14
4.33001e-14
4.32251e-14
4.33725e-14
4.33071e-14
4.34707e-14
4.33923e-14
4.35447e-14
4.34762e-14
4.36073e-14
4.35589e-14
4.36928e-14
4.36507e-14
4.37713e-14
4.37414e-14
4.38584e-14
4.38311e-14
4.39324e-14
4.39255e-14
4.40205e-14
4.4025e-14
4.41234e-14
4.41235e-14
4.42117e-14
4.42275e-14
4.4309e-14
4.43243e-14
4.4441e-14
4.4426e-14
4.4545e-14
4.45324e-14
4.46729e-14
4.46295e-14
4.47722e-14
4.47448e-14
4.48696e-14
4.4837e-14
4.49644e-14
4.49338e-14
4.50711e-14
4.50351e-14
4.51609e-14
4.51262e-14
4.52928e-14
4.52361e-14
4.54086e-14
4.53344e-14
4.55694e-14
4.54663e-14
4.56688e-14
4.55856e-14
4.57515e-14
4.57254e-14
4.58481e-14
4.58711e-14
4.59742e-14
4.59906e-14
4.61301e-14
4.61162e-14
4.62345e-14
4.62493e-14
4.63358e-14
4.6357e-14
4.64332e-14
4.64731e-14
4.65262e-14
4.65985e-14
4.66488e-14
4.67509e-14
4.67838e-14
4.68792e-14
4.69134e-14
4.69657e-14
4.7002e-14
4.70798e-14
4.71016e-14
4.72221e-14
4.72107e-14
4.73237e-14
4.73461e-14
4.74189e-14
4.74562e-14
4.75251e-14
4.74883e-14
4.76101e-14
4.7528e-14
4.77474e-14
4.76454e-14
4.78309e-14
4.78761e-14
4.79438e-14
4.79947e-14
4.80317e-14
4.80382e-14
4.81139e-14
4.80758e-14
4.82096e-14
4.81766e-14
4.83005e-14
4.83221e-14
4.83835e-14
4.84631e-14
4.84727e-14
4.85157e-14
4.8517e-14
4.85664e-14
4.85692e-14
4.86311e-14
4.86796e-14
4.87452e-14
4.88117e-14
4.88048e-14
4.88312e-14
4.88584e-14
4.89117e-14
4.8907e-14
4.90029e-14
4.89816e-14
4.90541e-14
4.90645e-14
4.91156e-14
4.91577e-14
4.91682e-14
4.91765e-14
4.92481e-14
4.92518e-14
4.9288e-14
4.92815e-14
4.93212e-14
4.92989e-14
4.93812e-14
4.93709e-14
4.94328e-14
4.94322e-14
4.94424e-14
4.94475e-14
4.95045e-14
4.95484e-14
4.95191e-14
4.95147e-14
4.95832e-14
4.95641e-14
4.96305e-14
4.966e-14
4.97191e-14
4.97136e-14
4.9761e-14
4.98452e-14
4.98099e-14
4.98481e-14
4.98994e-14
4.99036e-14
4.99454e-14
4.99468e-14
4.99792e-14
4.99807e-14
5.00014e-14
5.00643e-14
5.00333e-14
5.01143e-14
5.00729e-14
5.0134e-14
5.00646e-14
5.01208e-14
5.0124e-14
5.01301e-14
5.01168e-14
5.01849e-14
5.01458e-14
5.0175e-14
5.02151e-14
5.01524e-14
5.02294e-14
5.02104e-14
5.02408e-14
5.02728e-14
5.02746e-14
5.02615e-14
5.02852e-14
5.03032e-14
4.05619e-14
4.21438e-14
4.05618e-14
4.21437e-14
4.05618e-14
4.21437e-14
4.05619e-14
4.21436e-14
4.05621e-14
4.21435e-14
4.05625e-14
4.21434e-14
4.0563e-14
4.21433e-14
4.05635e-14
4.21433e-14
4.05642e-14
4.21432e-14
4.0565e-14
4.21431e-14
4.05658e-14
4.2143e-14
4.05668e-14
4.21429e-14
4.05679e-14
4.21428e-14
4.05691e-14
4.21427e-14
4.05704e-14
4.21425e-14
4.05719e-14
4.21424e-14
4.05734e-14
4.21423e-14
4.05751e-14
4.21422e-14
4.05768e-14
4.21421e-14
4.05787e-14
4.2142e-14
4.05807e-14
4.21419e-14
4.05827e-14
4.21418e-14
4.05851e-14
4.21419e-14
4.05874e-14
4.21419e-14
4.05901e-14
4.21417e-14
4.05928e-14
4.21413e-14
4.05955e-14
4.21411e-14
4.05985e-14
4.2141e-14
4.06017e-14
4.2141e-14
4.06049e-14
4.21409e-14
4.06083e-14
4.21405e-14
4.06119e-14
4.214e-14
4.06156e-14
4.21398e-14
4.06197e-14
4.21397e-14
4.06237e-14
4.21395e-14
4.06279e-14
4.21394e-14
4.06322e-14
4.21392e-14
4.06367e-14
4.21388e-14
4.06413e-14
4.21384e-14
4.06462e-14
4.21379e-14
4.06513e-14
4.21377e-14
4.06561e-14
4.21378e-14
4.06618e-14
4.21375e-14
4.06676e-14
4.21374e-14
4.06739e-14
4.2137e-14
4.06804e-14
4.21366e-14
4.06873e-14
4.21365e-14
4.06942e-14
4.21363e-14
4.07011e-14
4.21359e-14
4.07079e-14
4.21355e-14
4.07151e-14
4.21353e-14
4.07219e-14
4.21354e-14
4.07296e-14
4.21354e-14
4.07372e-14
4.21354e-14
4.07448e-14
4.21356e-14
4.07523e-14
4.21362e-14
4.07601e-14
4.21367e-14
4.07683e-14
4.21373e-14
4.07767e-14
4.21377e-14
4.07849e-14
4.21381e-14
4.07936e-14
4.21384e-14
4.08026e-14
4.2139e-14
4.08117e-14
4.21401e-14
4.08206e-14
4.21412e-14
4.08295e-14
4.21426e-14
4.08394e-14
4.21437e-14
4.0849e-14
4.21451e-14
4.0859e-14
4.21469e-14
4.08685e-14
4.21485e-14
4.08781e-14
4.21501e-14
4.08878e-14
4.21521e-14
4.08978e-14
4.21545e-14
4.09087e-14
4.21565e-14
4.09202e-14
4.21587e-14
4.09311e-14
4.21613e-14
4.09428e-14
4.21627e-14
4.09544e-14
4.21649e-14
4.09665e-14
4.2167e-14
4.0979e-14
4.21684e-14
4.09902e-14
4.21705e-14
4.10026e-14
4.21728e-14
4.10154e-14
4.21747e-14
4.10283e-14
4.21767e-14
4.10408e-14
4.21796e-14
4.10541e-14
4.21825e-14
4.10675e-14
4.21854e-14
4.10809e-14
4.21885e-14
4.1094e-14
4.21916e-14
4.11071e-14
4.21953e-14
4.11202e-14
4.21996e-14
4.11338e-14
4.22039e-14
4.11474e-14
4.22084e-14
4.11609e-14
4.22128e-14
4.11744e-14
4.22171e-14
4.11886e-14
4.2222e-14
4.12032e-14
4.22271e-14
4.12183e-14
4.2233e-14
4.12335e-14
4.22391e-14
4.12492e-14
4.22442e-14
4.12646e-14
4.22497e-14
4.12809e-14
4.2256e-14
4.12956e-14
4.22628e-14
4.13116e-14
4.22694e-14
4.13281e-14
4.22761e-14
4.13432e-14
4.22835e-14
4.13585e-14
4.22911e-14
4.13727e-14
4.2299e-14
4.13878e-14
4.23073e-14
4.14029e-14
4.23151e-14
4.14182e-14
4.23233e-14
4.14336e-14
4.23321e-14
4.14484e-14
4.23409e-14
4.14625e-14
4.23498e-14
4.14767e-14
4.23593e-14
4.14916e-14
4.23688e-14
4.15066e-14
4.23786e-14
4.15208e-14
4.23886e-14
4.15352e-14
4.23994e-14
4.15507e-14
4.24096e-14
4.15664e-14
4.24195e-14
4.15823e-14
4.24293e-14
4.15985e-14
4.24385e-14
4.16149e-14
4.24479e-14
4.16315e-14
4.24584e-14
4.16485e-14
4.24692e-14
4.16661e-14
4.24802e-14
4.16828e-14
4.24919e-14
4.16995e-14
4.25041e-14
4.1716e-14
4.25166e-14
4.17337e-14
4.25282e-14
4.1751e-14
4.25411e-14
4.1768e-14
4.25554e-14
4.17845e-14
4.25696e-14
4.18015e-14
4.25828e-14
4.18189e-14
4.2596e-14
4.18364e-14
4.26097e-14
4.18543e-14
4.26234e-14
4.18712e-14
4.26373e-14
4.1888e-14
4.26515e-14
4.19048e-14
4.26652e-14
4.19219e-14
4.26786e-14
4.1938e-14
4.2692e-14
4.19554e-14
4.27065e-14
4.19723e-14
4.27213e-14
4.19888e-14
4.27355e-14
4.20052e-14
4.27494e-14
4.20221e-14
4.27638e-14
4.20387e-14
4.27793e-14
4.20555e-14
4.2794e-14
4.20716e-14
4.28086e-14
4.20871e-14
4.28232e-14
4.21023e-14
4.28378e-14
4.21184e-14
4.2852e-14
4.21348e-14
4.28661e-14
4.21514e-14
4.28782e-14
4.21684e-14
4.2889e-14
4.21863e-14
4.28998e-14
4.22028e-14
4.29111e-14
4.22202e-14
4.29232e-14
4.22379e-14
4.29353e-14
4.2256e-14
4.29471e-14
4.22744e-14
4.29579e-14
4.22949e-14
4.29668e-14
4.2313e-14
4.29772e-14
4.23331e-14
4.29881e-14
4.2352e-14
4.29983e-14
4.23707e-14
4.30079e-14
4.23898e-14
4.30171e-14
4.24084e-14
4.30259e-14
4.24268e-14
4.30344e-14
4.24463e-14
4.30437e-14
4.24662e-14
4.30518e-14
4.24867e-14
4.30592e-14
4.25066e-14
4.30682e-14
4.25256e-14
4.30778e-14
4.25446e-14
4.30869e-14
4.25647e-14
4.30958e-14
4.25845e-14
4.31054e-14
4.26043e-14
4.31149e-14
4.26244e-14
4.31232e-14
4.26447e-14
4.31326e-14
4.26636e-14
4.31421e-14
4.26823e-14
4.31523e-14
4.27008e-14
4.31601e-14
4.27186e-14
4.31683e-14
4.27393e-14
4.31753e-14
4.27595e-14
4.31828e-14
4.27827e-14
4.31888e-14
4.28039e-14
4.31954e-14
4.28262e-14
4.32037e-14
4.28481e-14
4.32095e-14
4.28703e-14
4.32139e-14
4.28923e-14
4.32196e-14
4.29141e-14
4.32256e-14
4.29365e-14
4.32314e-14
4.29618e-14
4.32345e-14
4.29862e-14
4.32396e-14
4.30085e-14
4.3248e-14
4.30324e-14
4.32561e-14
4.30581e-14
4.32613e-14
4.30832e-14
4.32699e-14
4.31066e-14
4.3282e-14
4.31281e-14
4.3299e-14
4.31519e-14
4.33158e-14
4.31767e-14
4.33323e-14
4.32027e-14
4.33529e-14
4.32282e-14
4.33749e-14
4.3255e-14
4.3395e-14
4.32831e-14
4.34164e-14
4.33073e-14
4.34444e-14
4.33326e-14
4.34723e-14
4.33552e-14
4.35039e-14
4.33826e-14
4.35316e-14
4.34149e-14
4.35613e-14
4.34461e-14
4.35952e-14
4.34714e-14
4.36337e-14
4.34993e-14
4.36655e-14
4.35297e-14
4.36998e-14
4.35677e-14
4.37418e-14
4.36086e-14
4.37787e-14
4.36522e-14
4.38184e-14
4.36929e-14
4.38548e-14
4.37364e-14
4.38999e-14
4.37827e-14
4.39414e-14
4.38351e-14
4.3982e-14
4.38871e-14
4.40247e-14
4.3935e-14
4.40586e-14
4.39972e-14
4.40975e-14
4.40552e-14
4.41571e-14
4.41207e-14
4.42141e-14
4.41815e-14
4.42679e-14
4.42503e-14
4.43048e-14
4.4314e-14
4.43775e-14
4.43861e-14
4.4441e-14
4.44572e-14
4.44991e-14
4.45271e-14
4.45664e-14
4.46165e-14
4.46116e-14
4.46839e-14
4.46808e-14
4.47775e-14
4.47643e-14
4.48533e-14
4.48568e-14
4.4939e-14
4.49414e-14
4.50288e-14
4.50233e-14
4.51167e-14
4.51145e-14
4.52151e-14
4.52218e-14
4.53111e-14
4.5313e-14
4.54178e-14
4.53738e-14
4.54821e-14
4.5442e-14
4.55573e-14
4.55456e-14
4.56428e-14
4.56298e-14
4.57391e-14
4.57081e-14
4.58173e-14
4.57942e-14
4.59064e-14
4.58886e-14
4.59761e-14
4.60064e-14
4.60552e-14
4.61186e-14
4.61743e-14
4.62408e-14
4.62548e-14
4.63261e-14
4.63593e-14
4.64059e-14
4.64725e-14
4.65119e-14
4.65284e-14
4.66277e-14
4.65897e-14
4.67381e-14
4.67047e-14
4.68279e-14
4.6807e-14
4.69128e-14
4.69139e-14
4.69751e-14
4.70095e-14
4.70988e-14
4.7127e-14
4.72165e-14
4.72311e-14
4.73454e-14
4.73379e-14
4.74691e-14
4.74473e-14
4.76067e-14
4.75403e-14
4.76895e-14
4.76163e-14
4.77874e-14
4.76915e-14
4.78655e-14
4.77654e-14
4.79056e-14
4.78565e-14
4.79246e-14
4.79501e-14
4.80089e-14
4.80277e-14
4.81579e-14
4.81399e-14
4.82295e-14
4.82524e-14
4.82928e-14
4.83683e-14
4.83462e-14
4.84556e-14
4.84591e-14
4.85489e-14
4.85255e-14
4.86498e-14
4.8578e-14
4.8708e-14
4.86654e-14
4.87573e-14
4.87899e-14
4.88647e-14
4.8869e-14
4.89801e-14
4.89199e-14
4.90375e-14
4.89722e-14
4.90532e-14
4.90605e-14
4.91105e-14
4.91554e-14
4.91885e-14
4.91915e-14
4.92203e-14
4.92694e-14
4.92716e-14
4.93919e-14
4.93195e-14
4.94968e-14
4.93935e-14
4.95581e-14
4.946e-14
4.95758e-14
4.95238e-14
4.95469e-14
4.95935e-14
4.95969e-14
4.96381e-14
4.97225e-14
4.97169e-14
4.97354e-14
4.97403e-14
4.973e-14
4.984e-14
4.97967e-14
4.9958e-14
4.9872e-14
5.00058e-14
4.99215e-14
5.0017e-14
5.00067e-14
5.00444e-14
5.00738e-14
5.01145e-14
5.00933e-14
5.01102e-14
5.01237e-14
5.01469e-14
5.01064e-14
5.01691e-14
5.01543e-14
5.0204e-14
5.02404e-14
5.02168e-14
5.02814e-14
5.02328e-14
5.03109e-14
5.02489e-14
5.03324e-14
5.0237e-14
5.03206e-14
5.02792e-14
5.04198e-14
5.03127e-14
5.04114e-14
5.03154e-14
5.04628e-14
5.03036e-14
5.04742e-14
5.02434e-14
5.056e-14
5.02452e-14
5.06065e-14
5.02411e-14
5.06289e-14
5.02964e-14
5.03756e-14
5.03028e-14
5.03892e-14
5.03022e-14
5.0457e-14
5.03044e-14
5.04352e-14
5.02854e-14
5.04012e-14
5.03042e-14
5.04388e-14
5.03571e-14
5.04094e-14
5.03714e-14
5.04104e-14
5.04346e-14
5.04407e-14
5.04687e-14
5.05288e-14
5.04907e-14
5.05416e-14
5.05606e-14
5.05922e-14
5.05929e-14
5.06448e-14
5.06175e-14
5.07017e-14
5.06614e-14
5.07677e-14
5.07246e-14
5.08138e-14
5.07838e-14
5.08365e-14
5.0813e-14
5.08937e-14
5.08388e-14
5.09257e-14
5.08901e-14
5.09012e-14
5.09093e-14
5.09358e-14
5.09584e-14
5.09986e-14
5.10053e-14
5.10923e-14
5.10464e-14
5.11254e-14
5.10477e-14
5.11626e-14
5.11044e-14
5.124e-14
5.11822e-14
5.12596e-14
5.12553e-14
5.12826e-14
5.1295e-14
5.1407e-14
5.1327e-14
5.14712e-14
5.1383e-14
5.14071e-14
5.14385e-14
5.141e-14
5.14797e-14
5.14778e-14
5.14888e-14
5.15082e-14
5.15343e-14
5.1556e-14
5.15638e-14
5.15876e-14
5.16106e-14
5.15145e-14
5.15948e-14
5.15023e-14
5.16046e-14
5.15336e-14
5.15676e-14
5.15909e-14
5.1548e-14
5.1591e-14
5.15619e-14
5.16247e-14
5.15909e-14
5.16768e-14
5.15618e-14
5.16411e-14
5.15811e-14
5.16417e-14
5.15966e-14
5.16228e-14
5.16104e-14
5.15649e-14
5.16075e-14
5.15542e-14
5.16421e-14
5.15734e-14
5.16614e-14
5.1622e-14
5.16465e-14
5.16295e-14
5.16142e-14
5.15626e-14
5.15829e-14
5.15624e-14
5.1587e-14
5.16112e-14
5.1555e-14
5.15876e-14
5.15216e-14
5.15803e-14
5.15031e-14
5.1642e-14
5.1497e-14
5.1672e-14
5.14679e-14
5.16559e-14
5.14321e-14
5.16294e-14
5.14223e-14
5.16266e-14
5.14548e-14
5.15802e-14
5.14159e-14
5.15536e-14
5.14044e-14
5.15786e-14
5.14186e-14
5.15585e-14
5.14117e-14
5.15247e-14
5.13852e-14
5.14926e-14
5.13553e-14
5.14779e-14
5.13372e-14
5.14808e-14
5.13151e-14
5.14408e-14
5.13044e-14
5.14172e-14
5.12905e-14
5.13947e-14
5.12597e-14
5.13737e-14
5.12401e-14
5.13404e-14
5.12043e-14
5.13221e-14
5.11791e-14
5.13452e-14
5.11634e-14
5.13439e-14
5.11438e-14
5.12939e-14
5.11335e-14
5.12591e-14
5.11446e-14
5.12627e-14
5.1141e-14
5.12676e-14
5.11292e-14
5.12741e-14
5.11203e-14
5.12491e-14
5.1109e-14
5.12373e-14
5.10903e-14
5.12382e-14
5.10847e-14
5.12208e-14
5.10767e-14
5.1196e-14
5.10621e-14
5.1183e-14
5.10552e-14
5.11807e-14
5.10465e-14
5.11668e-14
5.10531e-14
5.11505e-14
5.10539e-14
5.11481e-14
5.10493e-14
5.11428e-14
5.10511e-14
5.11273e-14
5.10516e-14
5.11094e-14
5.10477e-14
5.1117e-14
5.1053e-14
5.11082e-14
5.10572e-14
5.11002e-14
5.10607e-14
5.10897e-14
5.10636e-14
5.10769e-14
5.10605e-14
5.10756e-14
5.106e-14
5.1077e-14
5.10566e-14
5.10731e-14
5.10531e-14
5.10693e-14
5.10494e-14
5.1068e-14
5.10435e-14
5.1069e-14
5.10353e-14
5.1072e-14
5.10353e-14
5.10628e-14
5.1033e-14
5.10598e-14
5.10324e-14
5.10607e-14
5.10315e-14
5.1058e-14
5.10287e-14
5.10572e-14
5.10273e-14
5.10497e-14
5.10274e-14
5.10457e-14
5.10272e-14
5.1048e-14
5.10269e-14
5.10487e-14
5.10263e-14
5.10436e-14
5.10256e-14
5.10386e-14
5.10247e-14
5.10364e-14
5.10237e-14
5.10354e-14
5.10251e-14
5.10344e-14
5.10239e-14
5.10359e-14
5.10225e-14
5.1036e-14
5.10223e-14
5.10373e-14
5.10207e-14
5.10374e-14
5.10178e-14
5.10409e-14
5.1017e-14
5.10404e-14
5.10177e-14
5.10387e-14
5.10161e-14
5.10382e-14
5.10148e-14
5.10394e-14
5.10139e-14
5.10406e-14
5.10139e-14
5.10407e-14
5.10121e-14
5.10409e-14
5.10122e-14
5.10416e-14
5.10132e-14
5.10428e-14
5.10124e-14
5.10426e-14
5.10119e-14
5.10412e-14
5.10128e-14
5.1041e-14
5.10125e-14
5.10429e-14
5.10136e-14
5.10437e-14
5.1014e-14
5.1043e-14
5.10132e-14
5.10434e-14
5.10137e-14
5.10433e-14
5.10141e-14
5.10426e-14
5.10149e-14
5.1042e-14
5.10155e-14
5.10415e-14
5.1016e-14
5.10404e-14
5.10168e-14
5.10393e-14
5.10165e-14
5.10387e-14
5.10176e-14
5.10376e-14
5.10181e-14
5.10359e-14
5.10169e-14
5.10348e-14
5.10166e-14
5.10337e-14
5.10163e-14
5.10331e-14
5.10158e-14
5.10331e-14
5.10163e-14
5.10319e-14
5.10162e-14
5.10313e-14
5.1016e-14
5.10306e-14
5.10157e-14
5.10294e-14
5.10153e-14
5.10281e-14
5.10143e-14
5.1028e-14
5.10143e-14
5.10273e-14
5.10148e-14
5.10259e-14
5.10135e-14
5.1027e-14
5.10122e-14
5.10274e-14
5.10119e-14
5.10284e-14
5.10115e-14
5.10288e-14
5.10129e-14
5.10298e-14
5.10124e-14
5.10302e-14
5.10106e-14
5.10288e-14
5.10096e-14
5.10279e-14
5.10086e-14
5.1028e-14
5.10081e-14
5.10291e-14
5.10069e-14
5.10299e-14
5.10056e-14
5.103e-14
5.10046e-14
5.10305e-14
5.10041e-14
5.10313e-14
5.10029e-14
5.10308e-14
5.1002e-14
5.10303e-14
5.10014e-14
5.10322e-14
5.10017e-14
5.10338e-14
5.10009e-14
5.10347e-14
5.10004e-14
5.1035e-14
5.09998e-14
5.1036e-14
5.09991e-14
5.10367e-14
5.09981e-14
5.10366e-14
5.09973e-14
5.1037e-14
5.09975e-14
5.10381e-14
5.09974e-14
5.10389e-14
5.09972e-14
5.10398e-14
5.09969e-14
5.10406e-14
5.09965e-14
5.10408e-14
5.09965e-14
5.10409e-14
5.09965e-14
5.10419e-14
5.0996e-14
5.10433e-14
5.09958e-14
5.10444e-14
5.09956e-14
5.1045e-14
5.09954e-14
5.10453e-14
5.09951e-14
5.10465e-14
5.09947e-14
5.10477e-14
5.09943e-14
5.1049e-14
5.09938e-14
5.10498e-14
5.09942e-14
5.10507e-14
5.09946e-14
5.10521e-14
5.0994e-14
5.10536e-14
5.09938e-14
5.10555e-14
5.09935e-14
5.1057e-14
5.09932e-14
5.10584e-14
5.09929e-14
5.10595e-14
5.09928e-14
5.10607e-14
5.09928e-14
5.10622e-14
5.09931e-14
5.10635e-14
5.09931e-14
5.10638e-14
5.09931e-14
5.10644e-14
5.09932e-14
5.10658e-14
5.09934e-14
5.10673e-14
5.09932e-14
5.1068e-14
5.09935e-14
5.10688e-14
5.09944e-14
5.10693e-14
5.09947e-14
5.10704e-14
5.09949e-14
5.10721e-14
5.09952e-14
5.1073e-14
5.09956e-14
5.10737e-14
5.09958e-14
5.1075e-14
5.09959e-14
5.10763e-14
5.09964e-14
5.10771e-14
5.09967e-14
5.10779e-14
5.0998e-14
5.10787e-14
5.09987e-14
5.10802e-14
5.0999e-14
5.10821e-14
5.0999e-14
5.1083e-14
5.09986e-14
5.1083e-14
5.09992e-14
5.10833e-14
5.10001e-14
5.10837e-14
5.10003e-14
5.10848e-14
5.10012e-14
5.10852e-14
5.10024e-14
5.10853e-14
5.10025e-14
5.10848e-14
5.10032e-14
5.10844e-14
5.10044e-14
5.10842e-14
5.10054e-14
5.10842e-14
5.10072e-14
5.10834e-14
5.10086e-14
5.10827e-14
5.101e-14
5.10821e-14
5.1011e-14
5.10812e-14
5.1013e-14
5.108e-14
5.10153e-14
5.10791e-14
5.10169e-14
5.10781e-14
5.10181e-14
5.10772e-14
5.10191e-14
5.10764e-14
5.10205e-14
5.10757e-14
5.10222e-14
5.10747e-14
5.10234e-14
5.10729e-14
5.10242e-14
5.10721e-14
5.1025e-14
5.10721e-14
5.10258e-14
5.10717e-14
5.10267e-14
5.10717e-14
5.1027e-14
5.10716e-14
5.10268e-14
5.10716e-14
5.10274e-14
5.10713e-14
5.10275e-14
5.10712e-14
5.10276e-14
5.10713e-14
5.10278e-14
5.10719e-14
5.10278e-14
5.10724e-14
5.10279e-14
5.10722e-14
5.10279e-14
5.10722e-14
5.10285e-14
5.10724e-14
5.10284e-14
5.10728e-14
5.10285e-14
5.10732e-14
5.10288e-14
5.10738e-14
5.10294e-14
5.10743e-14
5.10298e-14
5.10745e-14
5.10303e-14
5.10746e-14
5.10306e-14
5.10749e-14
5.10309e-14
5.10752e-14
5.10311e-14
5.10755e-14
5.10315e-14
5.1076e-14
5.1032e-14
5.10765e-14
5.10325e-14
5.10769e-14
5.10326e-14
5.10774e-14
5.10326e-14
5.1078e-14
5.10327e-14
5.10783e-14
5.10327e-14
5.10789e-14
5.10328e-14
5.10792e-14
5.10328e-14
5.10794e-14
5.10329e-14
5.10798e-14
5.1033e-14
5.10803e-14
5.10331e-14
5.10806e-14
5.10331e-14
5.10807e-14
5.1033e-14
5.1081e-14
5.10331e-14
5.10811e-14
5.10331e-14
5.10812e-14
5.10332e-14
5.1081e-14
5.10331e-14
5.10809e-14
5.1033e-14
5.1081e-14
5.10331e-14
5.10811e-14
5.10333e-14
5.10811e-14
5.10332e-14
5.10814e-14
5.10331e-14
5.10816e-14
5.1033e-14
5.10816e-14
5.1033e-14
5.10817e-14
5.10331e-14
5.10818e-14
5.10331e-14
5.1082e-14
5.1033e-14
5.10821e-14
5.1033e-14
5.10823e-14
5.1033e-14
5.10823e-14
5.1033e-14
5.10824e-14
5.10329e-14
5.10825e-14
5.10329e-14
5.10825e-14
5.1033e-14
5.10825e-14
5.1033e-14
5.10826e-14
5.1033e-14
5.10826e-14
5.1033e-14
5.10826e-14
5.1033e-14
5.10826e-14
5.1033e-14
5.10826e-14
5.1033e-14
5.10827e-14
5.1033e-14
5.10827e-14
5.1033e-14
5.10827e-14
5.1033e-14
5.10827e-14
5.1033e-14
5.10827e-14
5.01959e-14
5.05779e-14
5.02164e-14
5.05802e-14
5.03094e-14
5.04908e-14
5.03189e-14
5.04883e-14
5.03035e-14
5.04314e-14
5.03552e-14
5.04524e-14
5.0397e-14
5.04886e-14
5.04289e-14
5.04861e-14
5.04281e-14
5.04675e-14
5.05389e-14
5.04558e-14
5.05772e-14
5.05172e-14
5.0629e-14
5.06295e-14
5.06251e-14
5.06851e-14
5.06463e-14
5.07203e-14
5.06608e-14
5.07961e-14
5.06294e-14
5.08584e-14
5.06608e-14
5.08865e-14
5.07247e-14
5.09415e-14
5.07939e-14
5.09584e-14
5.08768e-14
5.10255e-14
5.09131e-14
5.10815e-14
5.09339e-14
5.11284e-14
5.09686e-14
5.11669e-14
5.10499e-14
5.11937e-14
5.10865e-14
5.12361e-14
5.11457e-14
5.12945e-14
5.11612e-14
5.13342e-14
5.11961e-14
5.1357e-14
5.12845e-14
5.14292e-14
5.1328e-14
5.15136e-14
5.13583e-14
5.15102e-14
5.14117e-14
5.14867e-14
5.14072e-14
5.15577e-14
5.14076e-14
5.15544e-14
5.14486e-14
5.15621e-14
5.15327e-14
5.15948e-14
5.1524e-14
5.16494e-14
5.15053e-14
5.16623e-14
5.15105e-14
5.17423e-14
5.15357e-14
5.177e-14
5.15474e-14
5.17617e-14
5.15478e-14
5.17334e-14
5.15921e-14
5.17712e-14
5.16275e-14
5.17844e-14
5.1621e-14
5.18267e-14
5.16238e-14
5.18111e-14
5.16366e-14
5.17724e-14
5.16439e-14
5.17264e-14
5.16484e-14
5.17416e-14
5.16671e-14
5.17999e-14
5.16625e-14
5.176e-14
5.16723e-14
5.16911e-14
5.16292e-14
5.1732e-14
5.15833e-14
5.17621e-14
5.15838e-14
5.17309e-14
5.15622e-14
5.17251e-14
5.15185e-14
5.17274e-14
5.15201e-14
5.16862e-14
5.15339e-14
5.16167e-14
5.1563e-14
5.15837e-14
5.15427e-14
5.16014e-14
5.15559e-14
5.16369e-14
5.15517e-14
5.16588e-14
5.15464e-14
5.16685e-14
5.15237e-14
5.16826e-14
5.14985e-14
5.16546e-14
5.14707e-14
5.15854e-14
5.14416e-14
5.15522e-14
5.14113e-14
5.15841e-14
5.13933e-14
5.16056e-14
5.13864e-14
5.15745e-14
5.13619e-14
5.15064e-14
5.13498e-14
5.14864e-14
5.1336e-14
5.14709e-14
5.13207e-14
5.14597e-14
5.12909e-14
5.14528e-14
5.12597e-14
5.14502e-14
5.12521e-14
5.14267e-14
5.12363e-14
5.13707e-14
5.12073e-14
5.13437e-14
5.12127e-14
5.13027e-14
5.12171e-14
5.12991e-14
5.11985e-14
5.12914e-14
5.11904e-14
5.12588e-14
5.11769e-14
5.1244e-14
5.11634e-14
5.12308e-14
5.11451e-14
5.12386e-14
5.11266e-14
5.12335e-14
5.1117e-14
5.12121e-14
5.11156e-14
5.11884e-14
5.11096e-14
5.11752e-14
5.11033e-14
5.11838e-14
5.11045e-14
5.11736e-14
5.11051e-14
5.11573e-14
5.11018e-14
5.11496e-14
5.11019e-14
5.11464e-14
5.10952e-14
5.11407e-14
5.10916e-14
5.11358e-14
5.1091e-14
5.11349e-14
5.10931e-14
5.11317e-14
5.1092e-14
5.11292e-14
5.10935e-14
5.11247e-14
5.10872e-14
5.11184e-14
5.10809e-14
5.11129e-14
5.10771e-14
5.11127e-14
5.10733e-14
5.11174e-14
5.10673e-14
5.11203e-14
5.10613e-14
5.11176e-14
5.10611e-14
5.11097e-14
5.10607e-14
5.11102e-14
5.10582e-14
5.11077e-14
5.10573e-14
5.11039e-14
5.10562e-14
5.11008e-14
5.1055e-14
5.10967e-14
5.10567e-14
5.10962e-14
5.10567e-14
5.10991e-14
5.10565e-14
5.1098e-14
5.10563e-14
5.10931e-14
5.10558e-14
5.10928e-14
5.10567e-14
5.10903e-14
5.10586e-14
5.10868e-14
5.1058e-14
5.10837e-14
5.10586e-14
5.10821e-14
5.10567e-14
5.10808e-14
5.1056e-14
5.10798e-14
5.10576e-14
5.10778e-14
5.1058e-14
5.10794e-14
5.1059e-14
5.10801e-14
5.10594e-14
5.10793e-14
5.10587e-14
5.10781e-14
5.10608e-14
5.10792e-14
5.10629e-14
5.108e-14
5.10644e-14
5.10808e-14
5.10628e-14
5.10824e-14
5.10654e-14
5.10846e-14
5.1067e-14
5.10859e-14
5.10671e-14
5.10868e-14
5.10677e-14
5.10873e-14
5.10688e-14
5.10879e-14
5.10721e-14
5.10881e-14
5.10733e-14
5.10874e-14
5.1074e-14
5.10863e-14
5.10748e-14
5.10843e-14
5.10756e-14
5.10828e-14
5.10781e-14
5.10814e-14
5.10796e-14
5.10806e-14
5.10802e-14
5.10809e-14
5.10792e-14
5.10813e-14
5.10804e-14
5.10801e-14
5.10817e-14
5.10774e-14
5.10804e-14
5.10763e-14
5.10814e-14
5.10763e-14
5.10824e-14
5.10758e-14
5.1084e-14
5.10742e-14
5.1083e-14
5.10748e-14
5.10832e-14
5.10749e-14
5.10835e-14
5.1074e-14
5.10833e-14
5.10724e-14
5.10832e-14
5.10709e-14
5.10837e-14
5.10705e-14
5.10843e-14
5.10708e-14
5.10844e-14
5.10698e-14
5.10852e-14
5.10677e-14
5.10849e-14
5.10668e-14
5.10858e-14
5.10665e-14
5.10845e-14
5.10667e-14
5.10844e-14
5.10658e-14
5.10826e-14
5.10648e-14
5.1082e-14
5.10645e-14
5.10828e-14
5.10635e-14
5.1082e-14
5.10628e-14
5.10804e-14
5.10621e-14
5.10795e-14
5.10621e-14
5.1079e-14
5.1062e-14
5.10785e-14
5.10623e-14
5.10774e-14
5.10619e-14
5.1076e-14
5.10615e-14
5.10749e-14
5.10611e-14
5.1075e-14
5.10604e-14
5.10737e-14
5.10604e-14
5.10725e-14
5.10593e-14
5.10712e-14
5.10578e-14
5.10711e-14
5.10567e-14
5.10711e-14
5.10563e-14
5.1071e-14
5.10555e-14
5.10699e-14
5.1055e-14
5.10685e-14
5.1055e-14
5.10678e-14
5.10552e-14
5.10672e-14
5.10552e-14
5.1067e-14
5.10535e-14
5.10664e-14
5.10527e-14
5.10666e-14
5.10526e-14
5.10661e-14
5.10528e-14
5.10656e-14
5.10535e-14
5.10639e-14
5.10542e-14
5.10643e-14
5.10541e-14
5.10643e-14
5.10523e-14
5.10643e-14
5.10518e-14
5.1063e-14
5.1052e-14
5.10626e-14
5.10515e-14
5.10619e-14
5.10509e-14
5.10615e-14
5.10511e-14
5.10612e-14
5.10505e-14
5.10614e-14
5.10503e-14
5.10616e-14
5.10497e-14
5.10618e-14
5.1049e-14
5.1062e-14
5.10488e-14
5.1063e-14
5.10477e-14
5.1063e-14
5.10472e-14
5.10633e-14
5.1047e-14
5.10631e-14
5.10467e-14
5.1063e-14
5.10462e-14
5.10631e-14
5.10454e-14
5.10635e-14
5.10446e-14
5.10642e-14
5.10443e-14
5.10647e-14
5.10437e-14
5.10649e-14
5.10428e-14
5.10648e-14
5.10422e-14
5.10648e-14
5.10416e-14
5.10648e-14
5.10409e-14
5.10648e-14
5.10408e-14
5.10651e-14
5.10407e-14
5.10652e-14
5.10402e-14
5.10661e-14
5.10398e-14
5.10665e-14
5.10399e-14
5.10672e-14
5.10403e-14
5.10676e-14
5.10404e-14
5.10684e-14
5.10409e-14
5.10692e-14
5.10413e-14
5.10706e-14
5.10417e-14
5.10718e-14
5.10424e-14
5.1072e-14
5.10424e-14
5.10725e-14
5.10425e-14
5.10735e-14
5.10429e-14
5.10747e-14
5.10433e-14
5.1076e-14
5.10436e-14
5.1077e-14
5.1044e-14
5.10779e-14
5.10436e-14
5.10793e-14
5.10436e-14
5.10805e-14
5.10445e-14
5.10816e-14
5.10453e-14
5.10826e-14
5.10458e-14
5.10837e-14
5.10461e-14
5.10849e-14
5.10471e-14
5.10861e-14
5.10476e-14
5.10864e-14
5.10475e-14
5.10881e-14
5.10476e-14
5.10883e-14
5.10486e-14
5.10884e-14
5.10495e-14
5.10885e-14
5.105e-14
5.1089e-14
5.10506e-14
5.10895e-14
5.10513e-14
5.10901e-14
5.10514e-14
5.10907e-14
5.10515e-14
5.10906e-14
5.10525e-14
5.10905e-14
5.1053e-14
5.10906e-14
5.10529e-14
5.10908e-14
5.10527e-14
5.10915e-14
5.10528e-14
5.10916e-14
5.10533e-14
5.10913e-14
5.10539e-14
5.10917e-14
5.10538e-14
5.10914e-14
5.10541e-14
5.10913e-14
5.10548e-14
5.1091e-14