/*--------------------------------*- C++ -*----------------------------------*\
| =========                 |                                                 |
| \\      /  F ield         | OpenFOAM: The Open Source CFD Toolbox           |
|  \\    /   O peration     | Version:  2012                                  |
|   \\  /    A nd           | Website:  www.openfoam.com                      |
|    \\/     M anipulation  |                                                 |
\*---------------------------------------------------------------------------*/
FoamFile
{
    version     2.0;
    format      ascii;
    class       volScalarField;
    location    "17000";
    object      k;
}
// * * * * * * * * * * * * * * * * * * * * * * * * * * * * * * * * * * * * * //

dimensions      [0 2 -2 0 0 0 0];


internalField   nonuniform List<scalar> 
2560
(
0.00506579
0.00506286
0.143257
0.143181
1.00125
1.00076
3.19259
3.1913
6.13714
6.13526
8.98508
8.98288
11.5358
11.5334
13.8295
13.827
15.9282
15.9256
17.88
17.8772
19.7192
19.7163
21.4705
21.4675
23.152
23.1489
24.7776
24.7744
26.358
26.3547
27.9015
27.8981
29.4152
29.4117
30.9048
30.9012
32.3751
32.3715
33.8304
33.8267
35.2742
35.2704
36.7096
36.7057
38.1393
38.1353
39.5657
39.5616
40.9912
40.987
42.4177
42.4134
43.8472
43.8429
45.2815
45.2771
46.7224
46.7179
48.1715
48.1669
49.6304
49.6257
51.1008
51.096
52.5841
52.5791
54.0816
54.0766
55.5947
55.5895
57.1244
57.1191
58.6716
58.6662
60.2373
60.2318
61.8224
61.8168
63.428
63.4222
65.055
65.0491
66.7047
66.6987
68.3781
68.3719
70.076
70.0696
71.7987
71.7922
73.5457
73.5391
75.3155
75.3088
77.1055
77.0985
78.9115
78.9044
80.7282
80.721
82.5491
82.5417
84.3664
84.3588
86.1716
86.1639
87.957
87.9491
89.7177
89.7097
91.4563
91.448
93.1865
93.1779
94.9355
94.9266
96.7386
96.7293
98.627
98.6173
100.603
100.593
102.604
102.594
104.518
104.508
106.189
106.178
107.453
107.443
108.182
108.173
108.313
108.304
107.856
107.848
106.885
106.878
105.513
105.507
103.866
103.86
102.059
102.055
100.191
100.187
98.3315
98.3274
96.5277
96.5237
94.8055
94.8016
93.1713
93.1675
91.62
91.6163
90.1381
90.1346
88.7075
88.7042
87.3086
87.3056
85.9223
85.9196
84.5318
84.5296
83.1228
83.121
81.6838
81.6824
80.2058
80.2049
78.6823
78.6818
77.109
77.1089
75.4839
75.4841
73.8077
73.8081
72.0838
72.0844
70.3188
70.3196
68.5226
68.5235
66.7076
66.7087
64.8884
64.8895
63.08
63.0811
61.2964
61.2975
59.5498
59.5509
57.8487
57.8498
56.1984
56.1994
54.6004
54.6014
53.054
53.0549
51.5562
51.5572
50.1042
50.1051
48.6952
48.696
47.3278
47.3286
46.0018
46.0026
44.7182
44.719
43.4785
43.4792
42.2843
42.285
41.1368
41.1375
40.0359
40.0365
38.9792
38.9798
37.963
37.9636
36.9816
36.9822
36.028
36.0285
35.0948
35.0954
34.1753
34.1759
33.2644
33.2649
32.3595
32.3601
31.4614
31.4619
30.5734
30.5739
29.7014
29.7019
28.8521
28.8526
28.0316
28.0321
27.2445
27.2449
26.4927
26.4931
25.7755
25.7759
25.0895
25.0899
24.4301
24.4305
23.7926
23.7929
23.1729
23.1732
22.5684
22.5687
21.9777
21.978
21.401
21.4013
20.8392
20.8395
20.2937
20.2939
19.7657
19.766
19.2566
19.2568
18.767
18.7672
18.2971
18.2973
17.8469
17.847
17.4156
17.4158
17.0025
17.0027
16.6062
16.6063
16.2253
16.2255
15.8585
15.8586
15.5043
15.5044
15.1617
15.1618
14.83
14.8301
14.5091
14.5092
14.1992
14.1992
13.9008
13.9008
13.6148
13.6148
13.3423
13.3423
13.0844
13.0844
12.8422
12.8422
12.6167
12.6167
12.4087
12.4086
12.2186
12.2185
12.0468
12.0467
11.8935
11.8933
11.7583
11.7581
11.6409
11.6406
11.5404
11.5401
11.4555
11.4551
11.3843
11.3839
11.3247
11.3242
11.2734
11.2729
11.2271
11.2265
11.1816
11.181
11.1326
11.1319
11.0757
11.0749
11.007
11.0062
10.9236
10.9228
10.8238
10.8231
10.7078
10.7072
10.5777
10.5772
10.4376
10.4373
10.293
10.2928
10.1502
10.1501
10.0156
10.0156
9.89483
9.89478
9.79159
9.79152
9.70735
9.70728
9.64116
9.6411
9.58944
9.58942
9.54699
9.54706
9.5077
9.50789
9.46553
9.46587
9.41508
9.41554
9.35207
9.35261
9.27373
9.27431
9.17899
9.17956
9.06819
9.06874
8.94285
8.94337
8.80529
8.80577
8.65837
8.65881
8.5052
8.50558
8.34888
8.34922
8.19242
8.19272
8.03855
8.03881
7.88973
7.88996
7.74809
7.74829
7.61543
7.6156
7.49325
7.49339
7.38276
7.38287
7.28489
7.28498
7.20032
7.20039
7.12946
7.12952
7.07242
7.07245
7.02895
7.02897
6.99837
6.99837
6.9795
6.97949
6.97056
6.97053
6.96911
6.96907
6.97206
6.97201
6.97571
6.97564
6.97586
6.97579
6.96814
6.96806
6.94827
6.94818
6.91249
6.9124
6.85802
6.85793
6.78344
6.78335
6.68902
6.68894
6.57688
6.57681
6.45083
6.45078
6.31602
6.316
6.17824
6.17824
6.04313
6.04314
5.91507
5.91509
5.79695
5.79697
5.68886
5.68887
5.58912
5.58914
5.49485
5.49488
5.40269
5.40273
5.30986
5.30991
5.21473
5.21479
5.1171
5.11715
5.01807
5.01812
4.91963
4.91968
4.82411
4.82415
4.73361
4.73365
4.64972
4.64975
4.57331
4.57333
4.50461
4.50463
4.44346
4.44348
4.38946
4.38947
4.34225
4.34226
4.30161
4.30162
4.26749
4.26749
4.23992
4.23993
4.21894
4.21895
4.20448
4.20448
4.19629
4.19629
4.19393
4.19393
4.19686
4.19686
4.20445
4.20445
4.2161
4.2161
4.23129
4.23129
4.24963
4.24963
4.27091
4.27091
4.29506
4.29506
4.32219
4.32219
4.3525
4.3525
4.38627
4.38627
4.42382
4.42382
4.46541
4.46541
4.51123
4.51123
4.56139
4.56138
4.61588
4.61588
4.67462
4.67462
4.73752
4.73752
4.80445
4.80444
4.87532
4.87532
4.95008
4.95008
5.02869
5.02869
5.11114
5.11114
5.19743
5.19743
5.28756
5.28756
5.38152
5.38151
5.4793
5.47929
5.58088
5.58087
5.68623
5.68623
5.79532
5.79532
5.90813
5.90813
6.02467
6.02467
6.14499
6.14499
6.26921
6.26921
6.39751
6.39751
6.53014
6.53013
6.66734
6.66734
6.80937
6.80937
6.95646
6.95646
7.10876
7.10876
7.26636
7.26636
7.42929
7.42929
7.5976
7.5976
7.77135
7.77135
7.95063
7.95063
8.13565
8.13565
8.32666
8.32666
8.524
8.524
8.72808
8.72808
8.93934
8.93934
9.15825
9.15825
9.38528
9.38528
9.62093
9.62093
9.86567
9.86567
10.12
10.12
10.3843
10.3843
10.6592
10.6592
10.9451
10.9451
11.2422
11.2422
11.5507
11.5507
11.8699
11.8699
12.1968
12.1968
12.5204
12.5204
12.8008
12.8008
12.7839
12.7839
0.00506395
0.00506558
0.14321
0.143251
1.00095
1.00122
3.19182
3.1925
6.13601
6.13702
8.98375
8.98495
11.5343
11.5357
13.828
13.8294
15.9266
15.9281
17.8783
17.8799
19.7174
19.7191
21.4686
21.4704
23.1501
23.1519
24.7756
24.7775
26.3559
26.3578
27.8994
27.9014
29.413
29.4151
30.9025
30.9047
32.3728
32.375
33.8281
33.8303
35.2718
35.2741
36.7071
36.7095
38.1367
38.1392
39.5631
39.5656
40.9885
40.9911
42.415
42.4176
43.8444
43.8471
45.2787
45.2815
46.7195
46.7223
48.1685
48.1714
49.6274
49.6304
51.0977
51.1007
52.5809
52.584
54.0784
54.0816
55.5914
55.5947
57.121
57.1243
58.6681
58.6716
60.2337
60.2373
61.8188
61.8224
63.4242
63.428
65.0512
65.055
66.7008
66.7047
68.3741
68.3781
70.0719
70.076
71.7945
71.7986
73.5414
73.5457
75.3111
75.3155
77.101
77.1055
78.9069
78.9115
80.7235
80.7282
82.5443
82.5491
84.3615
84.3664
86.1666
86.1716
87.9518
87.957
89.7124
89.7178
91.4508
91.4563
93.1808
93.1865
94.9296
94.9355
96.7324
96.7386
98.6205
98.627
100.596
100.603
102.597
102.604
104.511
104.518
106.182
106.189
107.446
107.453
108.176
108.182
108.307
108.313
107.85
107.856
106.88
106.885
105.509
105.513
103.862
103.866
102.056
102.06
100.188
100.191
98.3289
98.3319
96.5251
96.528
94.803
94.8058
93.1689
93.1716
91.6177
91.6203
90.136
90.1385
88.7055
88.7079
87.3068
87.309
85.9209
85.9227
84.5307
84.5322
83.122
83.1232
81.6834
81.6842
80.2057
80.2062
78.6826
78.6828
77.1095
77.1095
75.4847
75.4845
73.8087
73.8082
72.0849
72.0843
70.32
70.3193
68.5238
68.5231
66.7089
66.7081
64.8897
64.8889
63.0813
63.0804
61.2977
61.2969
59.551
59.5503
57.8499
57.8492
56.1995
56.1988
54.6015
54.6008
53.055
53.0544
51.5573
51.5566
50.1052
50.1046
48.6962
48.6956
47.3287
47.3282
46.0028
46.0022
44.7191
44.7186
43.4793
43.4788
42.2851
42.2846
41.1376
41.1372
40.0366
40.0362
38.98
38.9796
37.9637
37.9633
36.9823
36.9819
36.0287
36.0283
35.0955
35.0951
34.176
34.1756
33.265
33.2647
32.3602
32.3598
31.462
31.4616
30.574
30.5737
29.702
29.7017
28.8526
28.8523
28.0321
28.0318
27.245
27.2447
26.4931
26.4929
25.776
25.7757
25.0899
25.0897
24.4305
24.4303
23.793
23.7928
23.1733
23.1731
22.5687
22.5686
21.978
21.9779
21.4013
21.4012
20.8395
20.8394
20.2939
20.2938
19.766
19.7659
19.2568
19.2567
18.7672
18.7671
18.2973
18.2972
17.8471
17.847
17.4158
17.4157
17.0027
17.0026
16.6064
16.6063
16.2255
16.2254
15.8586
15.8585
15.5044
15.5043
15.1618
15.1617
14.8301
14.8301
14.5092
14.5092
14.1992
14.1992
13.9008
13.9008
13.6148
13.6148
13.3423
13.3423
13.0844
13.0844
12.8422
12.8423
12.6167
12.6167
12.4086
12.4087
12.2185
12.2186
12.0467
12.0468
11.8933
11.8935
11.7582
11.7583
11.6407
11.6409
11.5402
11.5404
11.4552
11.4554
11.384
11.3843
11.3243
11.3246
11.273
11.2734
11.2267
11.2271
11.1811
11.1816
11.132
11.1325
11.0751
11.0756
11.0064
11.0069
10.9229
10.9235
10.8232
10.8237
10.7073
10.7077
10.5773
10.5777
10.4373
10.4376
10.2928
10.293
10.1501
10.1502
10.0156
10.0156
9.89477
9.89482
9.79152
9.79157
9.70728
9.70733
9.64111
9.64114
9.58942
9.58942
9.54704
9.54698
9.50785
9.5077
9.4658
9.46555
9.41544
9.41511
9.35249
9.35211
9.27417
9.27377
9.17942
9.17902
9.06859
9.06822
8.94321
8.94287
8.80561
8.8053
8.65866
8.65838
8.50544
8.50519
8.34908
8.34887
8.19258
8.19239
8.03868
8.03852
7.88984
7.8897
7.74817
7.74805
7.61548
7.61538
7.49327
7.49319
7.38275
7.38268
7.28486
7.2848
7.20026
7.20023
7.12938
7.12936
7.07231
7.0723
7.02882
7.02881
6.99821
6.99822
6.97932
6.97934
6.97035
6.97038
6.96889
6.96893
6.97182
6.97187
6.97545
6.97551
6.9756
6.97567
6.96788
6.96796
6.94801
6.9481
6.91225
6.91234
6.8578
6.85789
6.78325
6.78334
6.68887
6.68896
6.57676
6.57684
6.45075
6.45081
6.31598
6.31601
6.17823
6.17824
6.04312
6.04312
5.91506
5.91505
5.79692
5.79691
5.6888
5.68879
5.58905
5.58903
5.49478
5.49475
5.40264
5.4026
5.30983
5.30978
5.21473
5.21467
5.11712
5.11706
5.01811
5.01806
4.91969
4.91964
4.82416
4.82412
4.73367
4.73363
4.64976
4.64973
4.57333
4.57331
4.50462
4.5046
4.44347
4.44345
4.38946
4.38945
4.34224
4.34223
4.30159
4.30159
4.26747
4.26746
4.23989
4.23989
4.21891
4.2189
4.20443
4.20443
4.19623
4.19623
4.19387
4.19387
4.19679
4.1968
4.20439
4.20439
4.21604
4.21605
4.23125
4.23125
4.24961
4.24961
4.2709
4.2709
4.29507
4.29507
4.3222
4.32221
4.35252
4.35252
4.3863
4.3863
4.42385
4.42385
4.46543
4.46544
4.51125
4.51126
4.5614
4.5614
4.61588
4.61589
4.67463
4.67463
4.73752
4.73752
4.80444
4.80445
4.87531
4.87532
4.95007
4.95008
5.02868
5.02869
5.11113
5.11114
5.19742
5.19743
5.28755
5.28755
5.3815
5.38151
5.47928
5.47929
5.58086
5.58087
5.68621
5.68622
5.79531
5.79531
5.90812
5.90813
6.02466
6.02467
6.14498
6.14499
6.2692
6.26921
6.39751
6.39751
6.53013
6.53014
6.66733
6.66734
6.80936
6.80937
6.95644
6.95646
7.10874
7.10875
7.26634
7.26635
7.42927
7.42928
7.59758
7.59759
7.77132
7.77133
7.95061
7.95062
8.13563
8.13564
8.32664
8.32665
8.52399
8.524
8.72806
8.72808
8.93932
8.93933
9.15823
9.15824
9.38526
9.38527
9.6209
9.62091
9.86563
9.86564
10.1199
10.1199
10.3843
10.3843
10.6591
10.6592
10.945
10.945
11.2421
11.2421
11.5505
11.5505
11.8696
11.8697
12.1964
12.1965
12.5199
12.5199
12.8003
12.8003
12.7834
12.7834
12.784
12.784
12.8011
12.8011
12.5208
12.5208
12.1972
12.1972
11.8703
11.8703
11.5511
11.5511
11.2426
11.2426
10.9455
10.9455
10.6596
10.6596
10.3847
10.3847
10.1203
10.1203
9.866
9.866
9.62125
9.62126
9.3856
9.3856
9.15857
9.15857
8.93967
8.93967
8.72843
8.72843
8.52435
8.52436
8.32701
8.32701
8.13598
8.13599
7.95096
7.95097
7.77168
7.77169
7.59795
7.59796
7.42966
7.42966
7.26673
7.26673
7.10913
7.10913
6.95683
6.95683
6.80974
6.80974
6.6677
6.6677
6.5305
6.5305
6.39789
6.39789
6.26959
6.2696
6.14538
6.14538
6.02505
6.02505
5.90849
5.90849
5.79565
5.79565
5.68653
5.68653
5.58115
5.58116
5.47956
5.47956
5.38177
5.38177
5.2878
5.2878
5.19766
5.19766
5.11136
5.11136
5.02889
5.02889
4.95026
4.95026
4.87548
4.87548
4.80459
4.80459
4.73764
4.73764
4.67473
4.67473
4.61596
4.61596
4.56145
4.56145
4.51128
4.51128
4.46543
4.46544
4.42383
4.42383
4.38625
4.38625
4.35245
4.35245
4.32211
4.32211
4.29496
4.29496
4.27078
4.27078
4.24946
4.24946
4.23105
4.23105
4.21581
4.21581
4.20411
4.20411
4.19649
4.19649
4.19354
4.19354
4.19587
4.19587
4.20403
4.20403
4.21846
4.21846
4.23941
4.2394
4.26693
4.26692
4.30101
4.301
4.3416
4.34159
4.38878
4.38876
4.44275
4.44273
4.50387
4.50385
4.57254
4.57252
4.64894
4.64891
4.73281
4.73277
4.82329
4.82325
4.91885
4.91879
5.01734
5.01728
5.11644
5.11638
5.21415
5.21409
5.30934
5.30928
5.40223
5.40217
5.49444
5.4944
5.58875
5.58872
5.68851
5.68849
5.79665
5.79662
5.9148
5.91477
6.04288
6.04286
6.17803
6.17802
6.31584
6.31586
6.45073
6.45077
6.57688
6.57694
6.68907
6.68915
6.78348
6.78357
6.85805
6.85814
6.91249
6.91258
6.94823
6.94832
6.9681
6.96818
6.97584
6.97591
6.9757
6.97576
6.97207
6.97212
6.96912
6.96916
6.97055
6.97057
6.97947
6.97948
6.99832
6.99832
7.02888
7.02886
7.07233
7.07229
7.12936
7.1293
7.2002
7.20012
7.28474
7.28464
7.38259
7.38247
7.49307
7.49292
7.61524
7.61506
7.74789
7.74768
7.88952
7.88927
8.03833
8.03804
8.19219
8.19186
8.34867
8.34829
8.50501
8.50458
8.65822
8.65774
8.80515
8.80462
8.94271
8.94212
9.06805
9.06743
9.17886
9.17821
9.27357
9.27293
9.35182
9.35121
9.41465
9.41413
9.46485
9.46447
9.50677
9.50655
9.54588
9.54579
9.58822
9.58823
9.63987
9.63992
9.70601
9.70607
9.79021
9.79026
9.89342
9.89346
10.0142
10.0142
10.1487
10.1488
10.2913
10.2915
10.4357
10.4361
10.5756
10.5761
10.7055
10.7062
10.8214
10.8222
10.9212
10.922
11.0045
11.0053
11.0731
11.0739
11.13
11.1307
11.179
11.1797
11.2245
11.2251
11.2707
11.2714
11.3219
11.3225
11.3816
11.382
11.4526
11.4531
11.5375
11.5379
11.638
11.6383
11.7553
11.7556
11.8904
11.8906
12.0436
12.0438
12.2153
12.2154
12.4053
12.4054
12.6132
12.6133
12.8386
12.8386
13.0806
13.0806
13.3384
13.3383
13.6107
13.6107
13.8965
13.8965
14.1948
14.1947
14.5045
14.5044
14.8252
14.8251
15.1566
15.1565
15.499
15.4988
15.8529
15.8528
16.2196
16.2194
16.6002
16.6
16.9962
16.9961
17.4092
17.409
17.8401
17.8399
18.2901
18.2899
18.7598
18.7595
19.2492
19.2489
19.7581
19.7578
20.2857
20.2854
20.831
20.8306
21.3924
21.3921
21.9687
21.9683
22.5589
22.5586
23.163
23.1627
23.7823
23.7819
24.4193
24.4189
25.0784
25.0779
25.764
25.7635
26.4807
26.4802
27.2321
27.2316
28.0188
28.0182
28.8388
28.8382
29.6877
29.6871
30.5593
30.5586
31.4467
31.4461
32.3444
32.3437
33.2488
33.2481
34.1592
34.1585
35.0782
35.0775
36.0108
36.0101
36.9639
36.9632
37.9448
37.944
38.9604
38.9596
40.0164
40.0156
41.1167
41.1159
42.2635
42.2626
43.457
43.456
44.696
44.695
45.9789
45.9779
47.3042
47.3031
48.6708
48.6697
50.079
50.0779
51.5303
51.5291
53.0272
53.026
54.5729
54.5716
56.1701
56.1687
57.8196
57.8183
59.5198
59.5184
61.2656
61.2641
63.0482
63.0467
64.8557
64.8543
66.6741
66.6726
68.4882
68.4869
70.2838
70.2826
72.0482
72.0472
73.7715
73.7707
75.4468
75.4462
77.0705
77.0703
78.6423
78.6425
80.1642
80.1649
81.6406
81.6417
83.0779
83.0795
84.4851
84.4872
85.8738
85.8764
87.2583
87.2612
88.6555
88.6587
90.0845
90.0879
91.5648
91.5684
93.1146
93.1183
94.7474
94.7512
96.4681
96.472
98.2705
98.2745
100.128
100.133
101.995
102
103.8
103.805
105.446
105.452
106.816
106.823
107.787
107.795
108.243
108.253
108.113
108.123
107.384
107.395
106.12
106.131
104.45
104.461
102.536
102.547
100.536
100.547
98.5621
98.5724
96.675
96.6848
94.873
94.8824
93.1253
93.1343
91.3964
91.4052
89.6593
89.6678
87.9002
87.9084
86.1165
86.1246
84.313
84.321
82.4972
82.505
80.6776
80.6853
78.8622
78.8697
77.0575
77.0649
75.2689
75.2761
73.5003
73.5073
71.7545
71.7614
70.033
70.0397
68.3362
68.3428
66.6639
66.6704
65.0153
65.0216
63.3893
63.3955
61.7848
61.7908
60.2006
60.2065
58.6358
58.6416
57.0895
57.0951
55.5607
55.5662
54.0485
54.0539
52.5518
52.5571
51.0693
51.0745
49.5998
49.6048
48.1416
48.1466
46.6934
46.6982
45.2533
45.2581
43.8198
43.8245
42.3911
42.3957
40.9654
40.9699
39.5408
39.5451
38.1151
38.1194
36.6862
36.6904
35.2516
35.2557
33.8086
33.8126
32.3541
32.358
30.8845
30.8884
29.3958
29.3995
27.8829
27.8866
26.3402
26.3438
24.7607
24.7642
23.136
23.1394
21.4553
21.4586
19.705
19.7082
17.8668
17.8699
15.9161
15.919
13.8184
13.8213
11.5259
11.5286
8.97661
8.97904
6.13042
6.13251
3.18832
3.18976
0.999705
1.00026
0.143026
0.143112
0.00505755
0.00506092
12.7835
12.7835
12.8006
12.8006
12.5203
12.5203
12.1968
12.1968
11.87
11.87
11.5509
11.5509
11.2424
11.2424
10.9453
10.9454
10.6595
10.6595
10.3846
10.3847
10.1203
10.1203
9.86596
9.86598
9.62123
9.62124
9.38558
9.38559
9.15855
9.15856
8.93966
8.93967
8.72841
8.72842
8.52434
8.52435
8.32699
8.327
8.13597
8.13598
7.95094
7.95095
7.77166
7.77167
7.59793
7.59794
7.42963
7.42964
7.2667
7.26671
7.10911
7.10912
6.95681
6.95682
6.80972
6.80973
6.66769
6.6677
6.5305
6.5305
6.39788
6.39789
6.26959
6.2696
6.14537
6.14538
6.02504
6.02504
5.90848
5.90848
5.79563
5.79564
5.68651
5.68652
5.58114
5.58115
5.47955
5.47955
5.38176
5.38176
5.28779
5.2878
5.19765
5.19766
5.11135
5.11136
5.02888
5.02889
4.95026
4.95026
4.87548
4.87548
4.80459
4.80459
4.73764
4.73765
4.67474
4.67474
4.61598
4.61598
4.56147
4.56147
4.5113
4.51131
4.46547
4.46547
4.42386
4.42386
4.38629
4.38629
4.35248
4.35248
4.32214
4.32214
4.29498
4.29498
4.27078
4.27078
4.24944
4.24944
4.23102
4.23102
4.21577
4.21577
4.20407
4.20407
4.19644
4.19644
4.19349
4.19349
4.19583
4.19583
4.204
4.20401
4.21845
4.21845
4.2394
4.2394
4.26694
4.26694
4.30102
4.30102
4.34162
4.34162
4.3888
4.38881
4.44278
4.44279
4.50391
4.50392
4.5726
4.57261
4.64901
4.64902
4.73289
4.7329
4.82338
4.8234
4.91893
4.91895
5.01742
5.01744
5.1165
5.11652
5.21419
5.21421
5.30936
5.30938
5.40223
5.40225
5.49445
5.49446
5.58878
5.58879
5.68857
5.68857
5.79673
5.79674
5.91491
5.91492
6.04302
6.04303
6.17819
6.1782
6.31603
6.31602
6.45092
6.4509
6.57706
6.57703
6.68922
6.68918
6.78359
6.78354
6.85811
6.85806
6.9125
6.91245
6.9482
6.94815
6.96803
6.96798
6.97574
6.9757
6.97558
6.97554
6.97193
6.9719
6.96897
6.96895
6.97039
6.97038
6.97931
6.97932
6.99817
6.99818
7.02873
7.02875
7.07218
7.07222
7.12921
7.12926
7.20005
7.20012
7.28459
7.28468
7.38243
7.38254
7.4929
7.49303
7.61505
7.61521
7.74767
7.74786
7.88927
7.88949
8.03804
8.0383
8.19186
8.19216
8.34829
8.34863
8.50458
8.50496
8.65774
8.65816
8.80461
8.80508
8.94211
8.94262
9.06741
9.06796
9.17818
9.17875
9.27288
9.27345
9.35115
9.35169
9.41406
9.41452
9.46439
9.46472
9.50645
9.50664
9.54569
9.54576
9.58813
9.58812
9.63983
9.63978
9.70599
9.70593
9.79019
9.79015
9.89341
9.89337
10.0142
10.0141
10.1487
10.1486
10.2915
10.2913
10.4361
10.4357
10.5761
10.5756
10.7062
10.7055
10.8222
10.8214
10.9219
10.9211
11.0053
11.0045
11.0738
11.0731
11.1307
11.1299
11.1796
11.1789
11.225
11.2244
11.2713
11.2707
11.3224
11.3219
11.382
11.3815
11.453
11.4526
11.5378
11.5375
11.6382
11.6379
11.7555
11.7553
11.8905
11.8903
12.0437
12.0436
12.2154
12.2152
12.4053
12.4052
12.6132
12.6132
12.8386
12.8386
13.0806
13.0806
13.3383
13.3383
13.6106
13.6107
13.8964
13.8965
14.1946
14.1947
14.5044
14.5045
14.8251
14.8252
15.1564
15.1566
15.4988
15.4989
15.8527
15.8529
16.2194
16.2195
16.6
16.6001
16.996
16.9962
17.4089
17.4091
17.8399
17.8401
18.2899
18.2901
18.7595
18.7597
19.2489
19.2491
19.7578
19.758
20.2854
20.2857
20.8306
20.8309
21.392
21.3924
21.9683
21.9686
22.5585
22.5589
23.1627
23.163
23.7819
23.7822
24.4189
24.4193
25.0779
25.0783
25.7635
25.764
26.4802
26.4807
27.2316
27.2321
28.0182
28.0188
28.8382
28.8388
29.6871
29.6877
30.5586
30.5593
31.4461
31.4467
32.3437
32.3444
33.2481
33.2488
34.1585
34.1592
35.0775
35.0782
36.0101
36.0108
36.9632
36.9639
37.944
37.9448
38.9596
38.9604
40.0156
40.0164
41.1159
41.1167
42.2626
42.2635
43.4561
43.457
44.695
44.696
45.9779
45.9789
47.3031
47.3042
48.6697
48.6708
50.0779
50.079
51.5291
51.5303
53.026
53.0272
54.5716
54.5729
56.1688
56.1701
57.8183
57.8197
59.5184
59.5199
61.2642
61.2656
63.0468
63.0482
64.8543
64.8558
66.6727
66.6741
68.4869
68.4882
70.2826
70.2838
72.0472
72.0482
73.7707
73.7715
75.4463
75.4468
77.0704
77.0706
78.6426
78.6423
80.1649
80.1643
81.6417
81.6406
83.0795
83.0779
84.4872
84.4851
85.8764
85.8738
87.2613
87.2583
88.6588
88.6555
90.088
90.0845
91.5685
91.5649
93.1184
93.1147
94.7512
94.7474
96.4721
96.4682
98.2746
98.2705
100.133
100.128
102
101.995
103.805
103.8
105.452
105.446
106.823
106.816
107.795
107.787
108.253
108.244
108.123
108.113
107.395
107.384
106.131
106.12
104.461
104.45
102.547
102.536
100.547
100.536
98.5724
98.5622
96.6848
96.675
94.8825
94.8731
93.1343
93.1253
91.4052
91.3965
89.6679
89.6594
87.9085
87.9002
86.1247
86.1166
84.321
84.3131
82.5051
82.4973
80.6853
80.6777
78.8697
78.8622
77.0649
77.0576
75.2761
75.269
73.5074
73.5003
71.7614
71.7545
70.0397
70.033
68.3428
68.3363
66.6704
66.664
65.0217
65.0154
63.3955
63.3894
61.7908
61.7848
60.2065
60.2006
58.6416
58.6358
57.0952
57.0895
55.5663
55.5607
54.0539
54.0485
52.5571
52.5518
51.0745
51.0693
49.6049
49.5998
48.1466
48.1417
46.6983
46.6934
45.2581
45.2534
43.8245
43.8199
42.3957
42.3912
40.9699
40.9654
39.5452
39.5408
38.1194
38.1151
36.6904
36.6862
35.2557
35.2516
33.8126
33.8086
32.358
32.3541
30.8884
30.8846
29.3995
29.3958
27.8866
27.8829
26.3438
26.3402
24.7642
24.7607
23.1394
23.136
21.4586
21.4553
19.7082
19.705
17.8699
17.8668
15.919
15.9161
13.8213
13.8185
11.5286
11.526
8.97904
8.97661
6.13251
6.13043
3.18976
3.18833
1.00026
0.999706
0.143112
0.143026
0.00506092
0.00505756
)
;

boundaryField
{
    walls
    {
        type            kqRWallFunction;
        value           nonuniform List<scalar> 8(0.00506579 0.00506395 0.00506286 0.00506558 0.00505755 0.00506092 0.00506092 0.00505756);
    }
    inlet
    {
        type            cyclic;
    }
    outlet
    {
        type            cyclic;
    }
    sides
    {
        type            empty;
    }
}


// ************************************************************************* //
