/*--------------------------------*- C++ -*----------------------------------*\
| =========                 |                                                 |
| \\      /  F ield         | OpenFOAM: The Open Source CFD Toolbox           |
|  \\    /   O peration     | Version:  2106                                  |
|   \\  /    A nd           | Website:  www.openfoam.com                      |
|    \\/     M anipulation  |                                                 |
\*---------------------------------------------------------------------------*/
FoamFile
{
    version     2.0;
    format      ascii;
    arch        "LSB;label=32;scalar=64";
    class       volSymmTensorField;
    location    "14000";
    object      turbulenceProperties:R;
}
// * * * * * * * * * * * * * * * * * * * * * * * * * * * * * * * * * * * * * //

dimensions      [0 2 -2 0 0 0 0];

internalField   nonuniform List<symmTensor> 
2560
(
(6.37947e-08 -1.02426e-12 -1.48276e-15 6.37947e-08 2.14931e-26 6.37947e-08)
(6.37947e-08 -1.02426e-12 -1.48276e-15 6.37947e-08 5.44338e-27 6.37947e-08)
(1.00461e-08 -9.26971e-13 -4.04546e-15 1.00461e-08 3.55306e-27 1.00461e-08)
(1.00461e-08 -9.26971e-13 -4.04546e-15 1.00461e-08 3.5508e-27 1.00461e-08)
(7.7043e-09 -2.09686e-12 -1.25866e-14 7.7043e-09 5.00369e-27 7.7043e-09)
(7.7043e-09 -2.09686e-12 -1.25866e-14 7.7043e-09 9.12613e-28 7.7043e-09)
(1.92923e-08 -1.11336e-11 -6.7802e-14 1.92923e-08 1.0407e-26 1.92923e-08)
(1.92923e-08 -1.11336e-11 -6.7802e-14 1.92923e-08 5.48387e-27 1.92923e-08)
(4.80203e-08 -4.88878e-11 -3.0205e-13 4.80203e-08 7.41169e-26 4.80203e-08)
(4.80203e-08 -4.88878e-11 -3.0205e-13 4.80203e-08 1.47663e-26 4.80203e-08)
(1.0181e-07 -1.63185e-10 -1.02289e-12 1.0181e-07 2.90328e-25 1.0181e-07)
(1.0181e-07 -1.63185e-10 -1.02289e-12 1.0181e-07 4.96529e-26 1.0181e-07)
(1.90533e-07 -4.45525e-10 -2.83328e-12 1.90533e-07 8.08738e-25 1.90533e-07)
(1.90533e-07 -4.45525e-10 -2.83328e-12 1.90533e-07 1.36529e-25 1.90533e-07)
(3.25635e-07 -1.05216e-09 -6.78842e-12 3.25635e-07 1.95013e-24 3.25635e-07)
(3.25635e-07 -1.05216e-09 -6.78842e-12 3.25635e-07 3.24616e-25 3.25635e-07)
(5.2009e-07 -2.23012e-09 -1.45977e-11 5.2009e-07 4.21597e-24 5.2009e-07)
(5.2009e-07 -2.23012e-09 -1.45977e-11 5.2009e-07 6.92461e-25 5.2009e-07)
(7.8845e-07 -4.34882e-09 -2.888e-11 7.8845e-07 8.37687e-24 7.8845e-07)
(7.8845e-07 -4.34882e-09 -2.888e-11 7.8845e-07 1.35927e-24 7.8845e-07)
(1.14692e-06 -7.93808e-09 -5.34824e-11 1.14692e-06 1.55757e-23 1.14692e-06)
(1.14692e-06 -7.93808e-09 -5.34824e-11 1.14692e-06 2.49709e-24 1.14692e-06)
(1.61343e-06 -1.37332e-08 -9.38724e-11 1.61343e-06 2.74446e-23 1.61343e-06)
(1.61343e-06 -1.37332e-08 -9.38724e-11 1.61343e-06 4.34632e-24 1.61343e-06)
(2.20776e-06 -2.27286e-08 -1.57618e-10 2.20776e-06 4.62536e-23 2.20776e-06)
(2.20776e-06 -2.27286e-08 -1.57618e-10 2.20776e-06 7.23627e-24 2.20776e-06)
(2.95163e-06 -3.62396e-08 -2.54969e-10 2.95163e-06 7.50905e-23 2.95163e-06)
(2.95163e-06 -3.62396e-08 -2.54969e-10 2.95163e-06 1.16061e-23 2.95163e-06)
(3.86885e-06 -5.59762e-08 -3.99554e-10 3.86885e-06 1.14396e-22 3.86885e-06)
(3.86885e-06 -5.59762e-08 -3.99554e-10 3.86885e-06 1.80324e-23 3.86885e-06)
(4.98537e-06 -8.41262e-08 -6.09217e-10 4.98537e-06 1.66683e-22 4.98537e-06)
(4.98537e-06 -8.41262e-08 -6.09217e-10 4.98537e-06 2.725e-23 4.98537e-06)
(6.3295e-06 -1.23453e-07 -9.07008e-10 6.3295e-06 2.44771e-22 6.3295e-06)
(6.3295e-06 -1.23453e-07 -9.07008e-10 6.3295e-06 4.01893e-23 6.3295e-06)
(7.93201e-06 -1.77407e-07 -1.32235e-09 7.93201e-06 3.57665e-22 7.93201e-06)
(7.93201e-06 -1.77407e-07 -1.32235e-09 7.93201e-06 5.80299e-23 7.93201e-06)
(9.82625e-06 -2.50249e-07 -1.89243e-09 9.82625e-06 5.13007e-22 9.82625e-06)
(9.82625e-06 -2.50249e-07 -1.89243e-09 9.82625e-06 8.22294e-23 9.82625e-06)
(1.20483e-05 -3.47201e-07 -2.66376e-09 1.20483e-05 7.23704e-22 1.20483e-05)
(1.20483e-05 -3.47201e-07 -2.66376e-09 1.20483e-05 1.14677e-22 1.20483e-05)
(1.46373e-05 -4.746e-07 -3.6941e-09 1.46373e-05 1.00567e-21 1.46373e-05)
(1.46373e-05 -4.746e-07 -3.6941e-09 1.46373e-05 1.5759e-22 1.46373e-05)
(1.76352e-05 -6.40084e-07 -5.05457e-09 1.76352e-05 1.37843e-21 1.76352e-05)
(1.76352e-05 -6.40084e-07 -5.05457e-09 1.76352e-05 2.13657e-22 1.76352e-05)
(2.10874e-05 -8.52795e-07 -6.83216e-09 2.10874e-05 1.86647e-21 2.10874e-05)
(2.10874e-05 -8.52795e-07 -6.83216e-09 2.10874e-05 2.8605e-22 2.10874e-05)
(2.50425e-05 -1.1236e-06 -9.13253e-09 2.50425e-05 2.49934e-21 2.50425e-05)
(2.50425e-05 -1.1236e-06 -9.13253e-09 2.50425e-05 3.78286e-22 2.50425e-05)
(2.95529e-05 -1.46535e-06 -1.20833e-08 2.95529e-05 3.3116e-21 2.95529e-05)
(2.95529e-05 -1.46535e-06 -1.20833e-08 2.95529e-05 4.94939e-22 2.95529e-05)
(3.46745e-05 -1.89314e-06 -1.58376e-08 3.46745e-05 4.3456e-21 3.46745e-05)
(3.46745e-05 -1.89314e-06 -1.58376e-08 3.46745e-05 6.41833e-22 3.46745e-05)
(4.0467e-05 -2.4246e-06 -2.05782e-08 4.0467e-05 5.65247e-21 4.0467e-05)
(4.0467e-05 -2.4246e-06 -2.05782e-08 4.0467e-05 8.25369e-22 4.0467e-05)
(4.69944e-05 -3.08022e-06 -2.65223e-08 4.69944e-05 7.29083e-21 4.69944e-05)
(4.69944e-05 -3.08022e-06 -2.65223e-08 4.69944e-05 1.05215e-21 4.69944e-05)
(5.43246e-05 -3.88371e-06 -3.39261e-08 5.43246e-05 9.33062e-21 5.43246e-05)
(5.43246e-05 -3.88371e-06 -3.39261e-08 5.43246e-05 1.32899e-21 5.43246e-05)
(6.25298e-05 -4.8623e-06 -4.3091e-08 6.25298e-05 1.18549e-20 6.25298e-05)
(6.25298e-05 -4.8623e-06 -4.3091e-08 6.25298e-05 1.66463e-21 6.25298e-05)
(7.16865e-05 -6.04718e-06 -5.43691e-08 7.16865e-05 1.49552e-20 7.16865e-05)
(7.16865e-05 -6.04718e-06 -5.43691e-08 7.16865e-05 2.0733e-21 7.16865e-05)
(8.18756e-05 -7.47381e-06 -6.817e-08 8.18756e-05 1.87411e-20 8.18756e-05)
(8.18756e-05 -7.47381e-06 -6.817e-08 8.18756e-05 2.56923e-21 8.18756e-05)
(9.31824e-05 -9.18236e-06 -8.4968e-08 9.31824e-05 2.33365e-20 9.31824e-05)
(9.31824e-05 -9.18236e-06 -8.4968e-08 9.31824e-05 3.16178e-21 9.31824e-05)
(0.000105697 -1.1218e-05 -1.05309e-07 0.000105697 2.88863e-20 0.000105697)
(0.000105697 -1.1218e-05 -1.05309e-07 0.000105697 3.86109e-21 0.000105697)
(0.000119513 -1.36315e-05 -1.29818e-07 0.000119513 3.55471e-20 0.000119513)
(0.000119513 -1.36315e-05 -1.29818e-07 0.000119513 4.68497e-21 0.000119513)
(0.000134728 -1.64791e-05 -1.59207e-07 0.000134728 4.34786e-20 0.000134728)
(0.000134728 -1.64791e-05 -1.59207e-07 0.000134728 5.65046e-21 0.000134728)
(0.000151446 -1.98231e-05 -1.94283e-07 0.000151446 5.2878e-20 0.000151446)
(0.000151446 -1.98231e-05 -1.94283e-07 0.000151446 6.78066e-21 0.000151446)
(0.000169771 -2.3732e-05 -2.35955e-07 0.000169771 6.39709e-20 0.000169771)
(0.000169771 -2.3732e-05 -2.35955e-07 0.000169771 8.09221e-21 0.000169771)
(0.000189813 -2.82808e-05 -2.8524e-07 0.000189813 7.6983e-20 0.000189813)
(0.000189813 -2.82808e-05 -2.8524e-07 0.000189813 9.60327e-21 0.000189813)
(0.000211684 -3.35503e-05 -3.4327e-07 0.000211684 9.21305e-20 0.000211684)
(0.000211684 -3.35503e-05 -3.4327e-07 0.000211684 1.13362e-20 0.000211684)
(0.000235497 -3.96279e-05 -4.11294e-07 0.000235497 1.09657e-19 0.000235497)
(0.000235497 -3.96279e-05 -4.11294e-07 0.000235497 1.33027e-20 0.000235497)
(0.000261369 -4.66063e-05 -4.90686e-07 0.000261369 1.29817e-19 0.000261369)
(0.000261369 -4.66063e-05 -4.90686e-07 0.000261369 1.54934e-20 0.000261369)
(0.000289414 -5.45839e-05 -5.82938e-07 0.000289414 1.52877e-19 0.000289414)
(0.000289414 -5.45839e-05 -5.82938e-07 0.000289414 1.79039e-20 0.000289414)
(0.000319748 -6.36633e-05 -6.89667e-07 0.000319748 1.79071e-19 0.000319748)
(0.000319748 -6.36633e-05 -6.89667e-07 0.000319748 2.06405e-20 0.000319748)
(0.000352484 -7.39508e-05 -8.126e-07 0.000352484 2.08585e-19 0.000352484)
(0.000352484 -7.39508e-05 -8.126e-07 0.000352484 2.37021e-20 0.000352484)
(0.000387733 -8.55548e-05 -9.53575e-07 0.000387733 2.41609e-19 0.000387733)
(0.000387733 -8.55548e-05 -9.53575e-07 0.000387733 2.69601e-20 0.000387733)
(0.000425601 -9.85848e-05 -1.11452e-06 0.000425601 2.78392e-19 0.000425601)
(0.000425601 -9.85848e-05 -1.11452e-06 0.000425601 3.03685e-20 0.000425601)
(0.000466188 -0.000113149 -1.29745e-06 0.000466188 3.18942e-19 0.000466188)
(0.000466188 -0.000113149 -1.29745e-06 0.000466188 3.39629e-20 0.000466188)
(0.000509586 -0.000129354 -1.50442e-06 0.000509586 3.63078e-19 0.000509586)
(0.000509586 -0.000129354 -1.50442e-06 0.000509586 3.77829e-20 0.000509586)
(0.000555876 -0.000147299 -1.73753e-06 0.000555876 4.11143e-19 0.000555876)
(0.000555876 -0.000147299 -1.73753e-06 0.000555876 4.1762e-20 0.000555876)
(0.000605132 -0.000167079 -1.99889e-06 0.000605132 4.62977e-19 0.000605132)
(0.000605132 -0.000167079 -1.99889e-06 0.000605132 4.58545e-20 0.000605132)
(0.000657409 -0.000188777 -2.29056e-06 0.000657409 5.18021e-19 0.000657409)
(0.000657409 -0.000188777 -2.29056e-06 0.000657409 5.02426e-20 0.000657409)
(0.000712754 -0.000212466 -2.61457e-06 0.000712754 5.7631e-19 0.000712754)
(0.000712754 -0.000212466 -2.61457e-06 0.000712754 5.47507e-20 0.000712754)
(0.000771191 -0.000238203 -2.97283e-06 0.000771191 6.3734e-19 0.000771191)
(0.000771191 -0.000238203 -2.97283e-06 0.000771191 5.91141e-20 0.000771191)
(0.000832731 -0.00026603 -3.36711e-06 0.000832731 7.00143e-19 0.000832731)
(0.000832731 -0.00026603 -3.36711e-06 0.000832731 6.31306e-20 0.000832731)
(0.000897363 -0.000295971 -3.79905e-06 0.000897363 7.64469e-19 0.000897363)
(0.000897363 -0.000295971 -3.79905e-06 0.000897363 6.64473e-20 0.000897363)
(0.000965058 -0.000328029 -4.27005e-06 0.000965058 8.30059e-19 0.000965058)
(0.000965058 -0.000328029 -4.27005e-06 0.000965058 6.94318e-20 0.000965058)
(0.00103577 -0.000362188 -4.7813e-06 0.00103577 8.96271e-19 0.00103577)
(0.00103577 -0.000362188 -4.7813e-06 0.00103577 7.23919e-20 0.00103577)
(0.00110941 -0.00039841 -5.33373e-06 0.00110941 9.61567e-19 0.00110941)
(0.00110941 -0.00039841 -5.33373e-06 0.00110941 7.47455e-20 0.00110941)
(0.00118591 -0.000436637 -5.928e-06 0.00118591 1.02498e-18 0.00118591)
(0.00118591 -0.000436637 -5.928e-06 0.00118591 7.56671e-20 0.00118591)
(0.00126514 -0.00047679 -6.56449e-06 0.00126514 1.08719e-18 0.00126514)
(0.00126514 -0.00047679 -6.56449e-06 0.00126514 7.61475e-20 0.00126514)
(0.00134698 -0.00051877 -7.24329e-06 0.00134698 1.14729e-18 0.00134698)
(0.00134698 -0.00051877 -7.24329e-06 0.00134698 7.69646e-20 0.00134698)
(0.00143127 -0.00056246 -7.9642e-06 0.00143127 1.20367e-18 0.00143127)
(0.00143127 -0.00056246 -7.9642e-06 0.00143127 7.6908e-20 0.00143127)
(0.00151785 -0.000607728 -8.72674e-06 0.00151785 1.25627e-18 0.00151785)
(0.00151785 -0.000607728 -8.72674e-06 0.00151785 7.48772e-20 0.00151785)
(0.00160654 -0.000654429 -9.53019e-06 0.00160654 1.30638e-18 0.00160654)
(0.00160654 -0.000654429 -9.53019e-06 0.00160654 7.15376e-20 0.00160654)
(0.00169714 -0.000702406 -1.03736e-05 0.00169714 1.35046e-18 0.00169714)
(0.00169714 -0.000702406 -1.03736e-05 0.00169714 6.72305e-20 0.00169714)
(0.00178945 -0.000751493 -1.12557e-05 0.00178945 1.38929e-18 0.00178945)
(0.00178945 -0.000751493 -1.12557e-05 0.00178945 6.36589e-20 0.00178945)
(0.00188325 -0.000801521 -1.21752e-05 0.00188325 4.70318e-19 0.00188325)
(0.00188325 -0.000801521 -1.21752e-05 0.00188325 5.99882e-20 0.00188325)
(0.00197833 -0.000852318 -1.31306e-05 0.00197833 1.14347e-20 0.00197833)
(0.00197833 -0.000852318 -1.31306e-05 0.00197833 5.27915e-20 0.00197833)
(0.00207448 -0.000903712 -1.41202e-05 0.00207448 -1.06135e-19 0.00207448)
(0.00207448 -0.000903712 -1.41202e-05 0.00207448 4.52897e-20 0.00207448)
(0.00217146 -0.000955531 -1.51423e-05 0.00217146 -1.97485e-19 0.00217146)
(0.00217146 -0.000955531 -1.51423e-05 0.00217146 4.01828e-20 0.00217146)
(0.00226906 -0.00100761 -1.61952e-05 0.00226906 -2.95523e-19 0.00226906)
(0.00226906 -0.00100761 -1.61952e-05 0.00226906 3.61921e-20 0.00226906)
(0.00236707 -0.0010598 -1.7277e-05 0.00236707 -3.94215e-19 0.00236707)
(0.00236707 -0.0010598 -1.7277e-05 0.00236707 3.18968e-20 0.00236707)
(0.00246528 -0.00111193 -1.8386e-05 0.00246528 -4.95912e-19 0.00246528)
(0.00246528 -0.00111193 -1.8386e-05 0.00246528 2.50022e-20 0.00246528)
(0.00256349 -0.00116388 -1.95204e-05 0.00256349 -6.00991e-19 0.00256349)
(0.00256349 -0.00116388 -1.95204e-05 0.00256349 1.3713e-20 0.00256349)
(0.0026615 -0.00121551 -2.06784e-05 0.0026615 -7.05861e-19 0.0026615)
(0.0026615 -0.00121551 -2.06784e-05 0.0026615 2.69546e-21 0.0026615)
(0.00275913 -0.0012667 -2.18586e-05 0.00275913 -8.11294e-19 0.00275913)
(0.00275913 -0.0012667 -2.18586e-05 0.00275913 -4.01632e-21 0.00275913)
(0.00285622 -0.00131735 -2.30592e-05 0.00285622 -9.17361e-19 0.00285622)
(0.00285622 -0.00131735 -2.30592e-05 0.00285622 -8.89853e-21 0.00285622)
(0.0029526 -0.00136735 -2.42788e-05 0.0029526 -1.02652e-18 0.0029526)
(0.0029526 -0.00136735 -2.42788e-05 0.0029526 -1.49509e-20 0.0029526)
(0.00304812 -0.00141663 -2.55161e-05 0.00304812 -1.1332e-18 0.00304812)
(0.00304812 -0.00141663 -2.55161e-05 0.00304812 5.91504e-20 0.00304812)
(0.00314266 -0.0014651 -2.67698e-05 0.00314266 -1.23684e-18 0.00314266)
(0.00314266 -0.0014651 -2.67698e-05 0.00314266 1.91377e-19 0.00314266)
(0.00323608 -0.0015127 -2.80386e-05 0.00323608 -1.34367e-18 0.00323608)
(0.00323608 -0.0015127 -2.80386e-05 0.00323608 2.65462e-19 0.00323608)
(0.00332828 -0.00155938 -2.93216e-05 0.00332828 -1.44815e-18 0.00332828)
(0.00332828 -0.00155938 -2.93216e-05 0.00332828 2.97642e-19 0.00332828)
(0.00341916 -0.00160509 -3.06179e-05 0.00341916 -1.53978e-18 0.00341916)
(0.00341916 -0.00160509 -3.06179e-05 0.00341916 3.17591e-19 0.00341916)
(0.00350863 -0.0016498 -3.19265e-05 0.00350863 -1.62569e-18 0.00350863)
(0.00350863 -0.0016498 -3.19265e-05 0.00350863 3.42546e-19 0.00350863)
(0.00359661 -0.00169348 -3.32468e-05 0.00359661 -1.71706e-18 0.00359661)
(0.00359661 -0.00169348 -3.32468e-05 0.00359661 3.79269e-19 0.00359661)
(0.00368305 -0.0017361 -3.4578e-05 0.00368305 -1.80389e-18 0.00368305)
(0.00368305 -0.0017361 -3.4578e-05 0.00368305 4.21553e-19 0.00368305)
(0.00376788 -0.00177766 -3.59197e-05 0.00376788 -1.89639e-18 0.00376788)
(0.00376788 -0.00177766 -3.59197e-05 0.00376788 4.72732e-19 0.00376788)
(0.00385107 -0.00181815 -3.72714e-05 0.00385107 -1.98895e-18 0.00385107)
(0.00385107 -0.00181815 -3.72714e-05 0.00385107 5.261e-19 0.00385107)
(0.00393256 -0.00185755 -3.86327e-05 0.00393256 -2.05293e-18 0.00393256)
(0.00393256 -0.00185755 -3.86327e-05 0.00393256 5.74582e-19 0.00393256)
(0.00401234 -0.00189588 -4.00033e-05 0.00401234 -2.11676e-18 0.00401234)
(0.00401234 -0.00189588 -4.00033e-05 0.00401234 6.40194e-19 0.00401234)
(0.00409039 -0.00193313 -4.13829e-05 0.00409039 -2.20161e-18 0.00409039)
(0.00409039 -0.00193313 -4.13829e-05 0.00409039 7.09592e-19 0.00409039)
(0.00416668 -0.00196932 -4.27714e-05 0.00416668 -2.2816e-18 0.00416668)
(0.00416668 -0.00196932 -4.27714e-05 0.00416668 7.64047e-19 0.00416668)
(0.00424121 -0.00200446 -4.41687e-05 0.00424121 -2.35185e-18 0.00424121)
(0.00424121 -0.00200446 -4.41687e-05 0.00424121 8.51498e-19 0.00424121)
(0.00431399 -0.00203856 -4.55747e-05 0.00431399 -2.42285e-18 0.00431399)
(0.00431399 -0.00203856 -4.55747e-05 0.00431399 9.74671e-19 0.00431399)
(0.004385 -0.00207164 -4.69894e-05 0.004385 -2.47029e-18 0.004385)
(0.004385 -0.00207164 -4.69894e-05 0.004385 1.05887e-18 0.004385)
(0.00445426 -0.00210372 -4.84128e-05 0.00445426 -2.49421e-18 0.00445426)
(0.00445426 -0.00210372 -4.84128e-05 0.00445426 1.10468e-18 0.00445426)
(0.00452179 -0.00213482 -4.98449e-05 0.00452179 -2.5261e-18 0.00452179)
(0.00452179 -0.00213482 -4.98449e-05 0.00452179 1.16101e-18 0.00452179)
(0.00458758 -0.00216495 -5.1286e-05 0.00458758 -2.57554e-18 0.00458758)
(0.00458758 -0.00216495 -5.1286e-05 0.00458758 1.25689e-18 0.00458758)
(0.00465167 -0.00219415 -5.27361e-05 0.00465167 -2.62388e-18 0.00465167)
(0.00465167 -0.00219415 -5.27361e-05 0.00465167 1.39498e-18 0.00465167)
(0.00471407 -0.00222243 -5.41954e-05 0.00471407 -2.67533e-18 0.00471407)
(0.00471407 -0.00222243 -5.41954e-05 0.00471407 1.51395e-18 0.00471407)
(0.00477481 -0.00224981 -5.56641e-05 0.00477481 -2.70197e-18 0.00477481)
(0.00477481 -0.00224981 -5.56641e-05 0.00477481 1.61743e-18 0.00477481)
(0.00483391 -0.00227633 -5.71424e-05 0.00483391 -2.69873e-18 0.00483391)
(0.00483391 -0.00227633 -5.71424e-05 0.00483391 1.69439e-18 0.00483391)
(0.0048914 -0.00230199 -5.86304e-05 0.0048914 -2.75266e-18 0.0048914)
(0.0048914 -0.00230199 -5.86304e-05 0.0048914 1.75404e-18 0.0048914)
(0.00494729 -0.00232683 -6.01286e-05 0.00494729 -2.7898e-18 0.00494729)
(0.00494729 -0.00232683 -6.01286e-05 0.00494729 1.85154e-18 0.00494729)
(0.00500164 -0.00235087 -6.16371e-05 0.00500164 -2.81274e-18 0.00500164)
(0.00500164 -0.00235087 -6.16371e-05 0.00500164 1.93454e-18 0.00500164)
(0.00505445 -0.00237413 -6.31562e-05 0.00505445 -2.87168e-18 0.00505445)
(0.00505445 -0.00237413 -6.31562e-05 0.00505445 2.05469e-18 0.00505445)
(0.00510577 -0.00239664 -6.46861e-05 0.00510577 -2.88288e-18 0.00510577)
(0.00510577 -0.00239664 -6.46861e-05 0.00510577 2.19099e-18 0.00510577)
(0.00515563 -0.00241841 -6.62273e-05 0.00515563 -2.87458e-18 0.00515563)
(0.00515563 -0.00241841 -6.62273e-05 0.00515563 2.28341e-18 0.00515563)
(0.00520405 -0.00243947 -6.778e-05 0.00520405 -2.88211e-18 0.00520405)
(0.00520405 -0.00243947 -6.778e-05 0.00520405 2.41602e-18 0.00520405)
(0.00525107 -0.00245984 -6.93445e-05 0.00525107 -2.91045e-18 0.00525107)
(0.00525107 -0.00245984 -6.93445e-05 0.00525107 2.56195e-18 0.00525107)
(0.00529672 -0.00247954 -7.09211e-05 0.00529672 -2.93207e-18 0.00529672)
(0.00529672 -0.00247954 -7.09211e-05 0.00529672 2.70184e-18 0.00529672)
(0.00534102 -0.00249859 -7.25101e-05 0.00534102 -2.9275e-18 0.00534102)
(0.00534102 -0.00249859 -7.25101e-05 0.00534102 2.85873e-18 0.00534102)
(0.00538402 -0.00251701 -7.41119e-05 0.00538402 -2.94714e-18 0.00538402)
(0.00538402 -0.00251701 -7.41119e-05 0.00538402 3.01966e-18 0.00538402)
(0.00542574 -0.00253482 -7.57269e-05 0.00542574 -2.99165e-18 0.00542574)
(0.00542574 -0.00253482 -7.57269e-05 0.00542574 3.2139e-18 0.00542574)
(0.00546622 -0.00255205 -7.73553e-05 0.00546622 -3.02094e-18 0.00546622)
(0.00546622 -0.00255205 -7.73553e-05 0.00546622 3.39717e-18 0.00546622)
(0.00550547 -0.00256869 -7.89974e-05 0.00550547 -3.0495e-18 0.00550547)
(0.00550547 -0.00256869 -7.89974e-05 0.00550547 3.55388e-18 0.00550547)
(0.00554354 -0.00258479 -8.06537e-05 0.00554354 -3.07789e-18 0.00554354)
(0.00554354 -0.00258479 -8.06537e-05 0.00554354 3.71912e-18 0.00554354)
(0.00558044 -0.00260034 -8.23245e-05 0.00558044 -3.15175e-18 0.00558044)
(0.00558044 -0.00260034 -8.23245e-05 0.00558044 3.82333e-18 0.00558044)
(0.00561622 -0.00261537 -8.401e-05 0.00561622 -3.2112e-18 0.00561622)
(0.00561622 -0.00261537 -8.401e-05 0.00561622 4.0302e-18 0.00561622)
(0.00565089 -0.0026299 -8.57107e-05 0.00565089 -3.2038e-18 0.00565089)
(0.00565089 -0.0026299 -8.57107e-05 0.00565089 4.25554e-18 0.00565089)
(0.00568449 -0.00264393 -8.74268e-05 0.00568449 -3.25554e-18 0.00568449)
(0.00568449 -0.00264393 -8.74268e-05 0.00568449 4.42446e-18 0.00568449)
(0.00571704 -0.00265749 -8.91588e-05 0.00571704 -3.30179e-18 0.00571704)
(0.00571704 -0.00265749 -8.91588e-05 0.00571704 4.69546e-18 0.00571704)
(0.00574857 -0.00267058 -9.09069e-05 0.00574857 -3.42804e-18 0.00574857)
(0.00574857 -0.00267058 -9.09069e-05 0.00574857 5.05305e-18 0.00574857)
(0.00577909 -0.00268323 -9.26715e-05 0.00577909 -3.52895e-18 0.00577909)
(0.00577909 -0.00268323 -9.26715e-05 0.00577909 5.32845e-18 0.00577909)
(0.00580864 -0.00269544 -9.44529e-05 0.00580864 -3.67397e-18 0.00580864)
(0.00580864 -0.00269544 -9.44529e-05 0.00580864 5.46668e-18 0.00580864)
(0.00583725 -0.00270723 -9.62515e-05 0.00583725 -3.84445e-18 0.00583725)
(0.00583725 -0.00270723 -9.62515e-05 0.00583725 5.77176e-18 0.00583725)
(0.00586492 -0.0027186 -9.80676e-05 0.00586492 -4.03519e-18 0.00586492)
(0.00586492 -0.0027186 -9.80676e-05 0.00586492 6.10209e-18 0.00586492)
(0.00589169 -0.00272958 -9.99015e-05 0.00589169 -4.0277e-18 0.00589169)
(0.00589169 -0.00272958 -9.99015e-05 0.00589169 6.38933e-18 0.00589169)
(0.00591758 -0.00274017 -0.000101754 0.00591758 -3.95548e-18 0.00591758)
(0.00591758 -0.00274017 -0.000101754 0.00591758 6.60097e-18 0.00591758)
(0.0059426 -0.00275038 -0.000103624 0.0059426 -4.12055e-18 0.0059426)
(0.0059426 -0.00275038 -0.000103624 0.0059426 6.6953e-18 0.0059426)
(0.00596679 -0.00276022 -0.000105514 0.00596679 -4.19243e-18 0.00596679)
(0.00596679 -0.00276022 -0.000105514 0.00596679 6.80168e-18 0.00596679)
(0.00599015 -0.00276971 -0.000107422 0.00599015 -4.21374e-18 0.00599015)
(0.00599015 -0.00276971 -0.000107422 0.00599015 7.16292e-18 0.00599015)
(0.00601271 -0.00277884 -0.00010935 0.00601271 -4.33739e-18 0.00601271)
(0.00601271 -0.00277884 -0.00010935 0.00601271 7.47466e-18 0.00601271)
(0.00603448 -0.00278764 -0.000111298 0.00603448 -4.41652e-18 0.00603448)
(0.00603448 -0.00278764 -0.000111298 0.00603448 7.67345e-18 0.00603448)
(0.00605549 -0.00279611 -0.000113266 0.00605549 -4.31181e-18 0.00605549)
(0.00605549 -0.00279611 -0.000113266 0.00605549 8.06191e-18 0.00605549)
(0.00607574 -0.00280425 -0.000115254 0.00607574 -4.22454e-18 0.00607574)
(0.00607574 -0.00280425 -0.000115254 0.00607574 8.35117e-18 0.00607574)
(0.00609526 -0.00281209 -0.000117263 0.00609526 -4.53221e-18 0.00609526)
(0.00609526 -0.00281209 -0.000117263 0.00609526 8.42916e-18 0.00609526)
(0.00611407 -0.00281961 -0.000119293 0.00611407 -4.77823e-18 0.00611407)
(0.00611407 -0.00281961 -0.000119293 0.00611407 8.57695e-18 0.00611407)
(0.00613217 -0.00282684 -0.000121344 0.00613217 -4.58859e-18 0.00613217)
(0.00613217 -0.00282684 -0.000121344 0.00613217 8.96928e-18 0.00613217)
(0.00614959 -0.00283377 -0.000123417 0.00614959 -4.51197e-18 0.00614959)
(0.00614959 -0.00283377 -0.000123417 0.00614959 9.17852e-18 0.00614959)
(0.00616633 -0.00284042 -0.000125512 0.00616633 -4.34054e-18 0.00616633)
(0.00616633 -0.00284042 -0.000125512 0.00616633 9.20614e-18 0.00616633)
(0.00618241 -0.00284678 -0.000127629 0.00618241 -4.10057e-18 0.00618241)
(0.00618241 -0.00284678 -0.000127629 0.00618241 9.53761e-18 0.00618241)
(0.00619785 -0.00285288 -0.000129769 0.00619785 -4.04633e-18 0.00619785)
(0.00619785 -0.00285288 -0.000129769 0.00619785 9.73647e-18 0.00619785)
(0.00621265 -0.00285871 -0.000131931 0.00621265 -3.91751e-18 0.00621265)
(0.00621265 -0.00285871 -0.000131931 0.00621265 9.66367e-18 0.00621265)
(0.00622683 -0.00286427 -0.000134117 0.00622683 -3.95972e-18 0.00622683)
(0.00622683 -0.00286427 -0.000134117 0.00622683 9.90503e-18 0.00622683)
(0.00624041 -0.00286958 -0.000136326 0.00624041 -3.97633e-18 0.00624041)
(0.00624041 -0.00286958 -0.000136326 0.00624041 1.03686e-17 0.00624041)
(0.00625338 -0.00287463 -0.000138558 0.00625338 -4.08527e-18 0.00625338)
(0.00625338 -0.00287463 -0.000138558 0.00625338 1.0722e-17 0.00625338)
(0.00626576 -0.00287944 -0.000140815 0.00626576 -4.10644e-18 0.00626576)
(0.00626576 -0.00287944 -0.000140815 0.00626576 1.08579e-17 0.00626576)
(0.00627757 -0.002884 -0.000143096 0.00627757 -4.15402e-18 0.00627757)
(0.00627757 -0.002884 -0.000143096 0.00627757 1.09827e-17 0.00627757)
(0.0062888 -0.00288833 -0.000145401 0.0062888 -4.14874e-18 0.0062888)
(0.0062888 -0.00288833 -0.000145401 0.0062888 1.104e-17 0.0062888)
(0.00629948 -0.00289242 -0.000147731 0.00629948 -4.18712e-18 0.00629948)
(0.00629948 -0.00289242 -0.000147731 0.00629948 1.11645e-17 0.00629948)
(0.00630961 -0.00289628 -0.000150086 0.00630961 -4.0551e-18 0.00630961)
(0.00630961 -0.00289628 -0.000150086 0.00630961 1.16437e-17 0.00630961)
(0.0063192 -0.00289992 -0.000152466 0.0063192 -3.5721e-18 0.0063192)
(0.0063192 -0.00289992 -0.000152466 0.0063192 1.20761e-17 0.0063192)
(0.00632825 -0.00290333 -0.000154871 0.00632825 -3.6032e-18 0.00632825)
(0.00632825 -0.00290333 -0.000154871 0.00632825 1.26823e-17 0.00632825)
(0.00633678 -0.00290652 -0.000157303 0.00633678 -3.81111e-18 0.00633678)
(0.00633678 -0.00290652 -0.000157303 0.00633678 1.35876e-17 0.00633678)
(0.0063448 -0.00290949 -0.00015976 0.0063448 -4.4348e-18 0.0063448)
(0.0063448 -0.00290949 -0.00015976 0.0063448 1.35567e-17 0.0063448)
(0.0063523 -0.00291225 -0.000162243 0.0063523 -4.59965e-18 0.0063523)
(0.0063523 -0.00291225 -0.000162243 0.0063523 1.32429e-17 0.0063523)
(0.0063593 -0.00291479 -0.000164753 0.0063593 -3.60476e-18 0.0063593)
(0.0063593 -0.00291479 -0.000164753 0.0063593 1.38434e-17 0.0063593)
(0.0063658 -0.00291713 -0.000167289 0.0063658 -2.69275e-18 0.0063658)
(0.0063658 -0.00291713 -0.000167289 0.0063658 1.46792e-17 0.0063658)
(0.00637181 -0.00291926 -0.000169852 0.00637181 -2.7771e-18 0.00637181)
(0.00637181 -0.00291926 -0.000169852 0.00637181 1.50063e-17 0.00637181)
(0.00637733 -0.00292119 -0.000172443 0.00637733 -2.83887e-18 0.00637733)
(0.00637733 -0.00292119 -0.000172443 0.00637733 1.30534e-17 0.00637733)
(0.00638238 -0.00292291 -0.00017506 0.00638238 -2.40337e-18 0.00638238)
(0.00638238 -0.00292291 -0.00017506 0.00638238 8.541e-18 0.00638238)
(0.00638695 -0.00292444 -0.000177705 0.00638695 -2.65353e-18 0.00638695)
(0.00638695 -0.00292444 -0.000177705 0.00638695 6.47091e-18 0.00638695)
(0.00639105 -0.00292577 -0.000180377 0.00639105 -3.68806e-18 0.00639105)
(0.00639105 -0.00292577 -0.000180377 0.00639105 6.95768e-18 0.00639105)
(0.00639469 -0.0029269 -0.000183077 0.00639469 -4.3707e-18 0.00639469)
(0.00639469 -0.0029269 -0.000183077 0.00639469 7.42438e-18 0.00639469)
(0.00639787 -0.00292783 -0.000185805 0.00639787 -4.36179e-18 0.00639787)
(0.00639787 -0.00292783 -0.000185805 0.00639787 7.78799e-18 0.00639787)
(0.00640059 -0.00292857 -0.000188561 0.00640059 -4.2304e-18 0.00640059)
(0.00640059 -0.00292857 -0.000188561 0.00640059 7.7057e-18 0.00640059)
(0.00640286 -0.00292912 -0.000191345 0.00640286 -4.15014e-18 0.00640286)
(0.00640286 -0.00292912 -0.000191345 0.00640286 8.01272e-18 0.00640286)
(0.00640468 -0.00292948 -0.000194157 0.00640468 -2.96517e-18 0.00640468)
(0.00640468 -0.00292948 -0.000194157 0.00640468 8.82997e-18 0.00640468)
(0.00640606 -0.00292965 -0.000196998 0.00640606 -1.92019e-18 0.00640606)
(0.00640606 -0.00292965 -0.000196998 0.00640606 9.48641e-18 0.00640606)
(0.00640699 -0.00292962 -0.000199868 0.00640699 -2.60161e-18 0.00640699)
(0.00640699 -0.00292962 -0.000199868 0.00640699 9.50194e-18 0.00640699)
(0.00640749 -0.00292942 -0.000202766 0.00640749 -3.48194e-18 0.00640749)
(0.00640749 -0.00292942 -0.000202766 0.00640749 1.02189e-17 0.00640749)
(0.00640755 -0.00292902 -0.000205693 0.00640755 -3.40514e-18 0.00640755)
(0.00640755 -0.00292902 -0.000205693 0.00640755 1.13292e-17 0.00640755)
(0.00640718 -0.00292844 -0.000208649 0.00640718 -3.17813e-18 0.00640718)
(0.00640718 -0.00292844 -0.000208649 0.00640718 1.13024e-17 0.00640718)
(0.00640638 -0.00292767 -0.000211633 0.00640638 -3.65804e-18 0.00640638)
(0.00640638 -0.00292767 -0.000211633 0.00640638 1.11004e-17 0.00640638)
(0.00640515 -0.00292671 -0.000214647 0.00640515 -3.17986e-18 0.00640515)
(0.00640515 -0.00292671 -0.000214647 0.00640515 1.17894e-17 0.00640515)
(0.00640349 -0.00292557 -0.000217689 0.00640349 -2.45436e-18 0.00640349)
(0.00640349 -0.00292557 -0.000217689 0.00640349 1.26732e-17 0.00640349)
(0.00640141 -0.00292425 -0.000220761 0.00640141 -1.07362e-18 0.00640141)
(0.00640141 -0.00292425 -0.000220761 0.00640141 1.20613e-17 0.00640141)
(0.0063989 -0.00292274 -0.000223861 0.0063989 -8.54218e-19 0.0063989)
(0.0063989 -0.00292274 -0.000223861 0.0063989 1.14338e-17 0.0063989)
(0.00639597 -0.00292105 -0.000226991 0.00639597 -1.78766e-18 0.00639597)
(0.00639597 -0.00292105 -0.000226991 0.00639597 1.22874e-17 0.00639597)
(0.00639263 -0.00291917 -0.00023015 0.00639263 -1.36242e-18 0.00639263)
(0.00639263 -0.00291917 -0.00023015 0.00639263 1.33267e-17 0.00639263)
(0.00638886 -0.00291711 -0.000233337 0.00638886 -1.29805e-18 0.00638886)
(0.00638886 -0.00291711 -0.000233337 0.00638886 1.32915e-17 0.00638886)
(0.00638468 -0.00291486 -0.000236554 0.00638468 -1.88686e-18 0.00638468)
(0.00638468 -0.00291486 -0.000236554 0.00638468 1.28596e-17 0.00638468)
(0.00638007 -0.00291243 -0.000239799 0.00638007 -1.93934e-18 0.00638007)
(0.00638007 -0.00291243 -0.000239799 0.00638007 1.39365e-17 0.00638007)
(0.00637506 -0.00290982 -0.000243073 0.00637506 -2.6838e-18 0.00637506)
(0.00637506 -0.00290982 -0.000243073 0.00637506 1.49426e-17 0.00637506)
(0.00636962 -0.00290702 -0.000246376 0.00636962 -3.65071e-18 0.00636962)
(0.00636962 -0.00290702 -0.000246376 0.00636962 1.52907e-17 0.00636962)
(0.00636377 -0.00290403 -0.000249707 0.00636377 -3.91332e-18 0.00636377)
(0.00636377 -0.00290403 -0.000249707 0.00636377 1.58664e-17 0.00636377)
(0.00635751 -0.00290086 -0.000253067 0.00635751 -3.93997e-18 0.00635751)
(0.00635751 -0.00290086 -0.000253067 0.00635751 1.86125e-17 0.00635751)
(0.00635083 -0.0028975 -0.000256455 0.00635083 -2.84878e-18 0.00635083)
(0.00635083 -0.0028975 -0.000256455 0.00635083 2.14601e-17 0.00635083)
(0.00634373 -0.00289395 -0.000259871 0.00634373 -3.83461e-18 0.00634373)
(0.00634373 -0.00289395 -0.000259871 0.00634373 2.18844e-17 0.00634373)
(0.00633622 -0.00289022 -0.000263315 0.00633622 -5.76648e-18 0.00633622)
(0.00633622 -0.00289022 -0.000263315 0.00633622 2.26714e-17 0.00633622)
(0.00632829 -0.00288629 -0.000266786 0.00632829 -4.45988e-18 0.00632829)
(0.00632829 -0.00288629 -0.000266786 0.00632829 2.36814e-17 0.00632829)
(0.00631995 -0.00288218 -0.000270285 0.00631995 -2.07084e-18 0.00631995)
(0.00631995 -0.00288218 -0.000270285 0.00631995 2.27818e-17 0.00631995)
(0.00631119 -0.00287788 -0.000273811 0.00631119 -2.63763e-18 0.00631119)
(0.00631119 -0.00287788 -0.000273811 0.00631119 2.21605e-17 0.00631119)
(0.00630201 -0.00287339 -0.000277364 0.00630201 -3.21339e-18 0.00630201)
(0.00630201 -0.00287339 -0.000277364 0.00630201 2.47474e-17 0.00630201)
(0.00629242 -0.0028687 -0.000280943 0.00629242 -1.43114e-18 0.00629242)
(0.00629242 -0.0028687 -0.000280943 0.00629242 2.61574e-17 0.00629242)
(0.0062824 -0.00286382 -0.000284548 0.0062824 -5.50062e-19 0.0062824)
(0.0062824 -0.00286382 -0.000284548 0.0062824 2.50487e-17 0.0062824)
(0.00627197 -0.00285875 -0.000288179 0.00627197 -1.75525e-18 0.00627197)
(0.00627197 -0.00285875 -0.000288179 0.00627197 2.63862e-17 0.00627197)