/*--------------------------------*- C++ -*----------------------------------*\
| =========                 |                                                 |
| \\      /  F ield         | OpenFOAM: The Open Source CFD Toolbox           |
|  \\    /   O peration     | Version:  2106                                  |
|   \\  /    A nd           | Website:  www.openfoam.com                      |
|    \\/     M anipulation  |                                                 |
\*---------------------------------------------------------------------------*/
FoamFile
{
    version     2.0;
    format      ascii;
    arch        "LSB;label=32;scalar=64";
    class       volVectorField;
    location    "14000";
    object      U;
}
// * * * * * * * * * * * * * * * * * * * * * * * * * * * * * * * * * * * * * //

dimensions      [0 1 -1 0 0 0 0];

internalField   nonuniform List<vector> 
2560
(
(0.00171565 -3.00811e-16 -3.10209e-17)
(0.00171565 2.2078e-19 -9.11706e-18)
(0.00517139 -3.97764e-15 -1.29884e-16)
(0.00517139 -1.25051e-18 -3.49441e-17)
(0.00867685 -2.56714e-15 -1.36554e-16)
(0.00867685 -1.94335e-18 -3.55949e-17)
(0.0122327 -2.68361e-15 -1.3905e-16)
(0.0122327 -3.05389e-18 -3.80236e-17)
(0.0158398 -2.65065e-15 -1.43262e-16)
(0.0158398 -4.19262e-18 -3.91028e-17)
(0.0194988 -2.64921e-15 -1.49677e-16)
(0.0194988 -5.35359e-18 -4.02039e-17)
(0.0232104 -2.65167e-15 -1.56345e-16)
(0.0232104 -6.54172e-18 -4.13268e-17)
(0.0269754 -2.65071e-15 -1.6325e-16)
(0.0269754 -7.7574e-18 -4.24718e-17)
(0.0307946 -2.64896e-15 -1.70391e-16)
(0.0307946 -9.00081e-18 -4.36386e-17)
(0.0346687 -2.64703e-15 -1.77772e-16)
(0.0346687 -1.02601e-17 -4.48275e-17)
(0.0385986 -2.64495e-15 -1.85399e-16)
(0.0385986 -1.15363e-17 -4.60395e-17)
(0.0425851 -2.64275e-15 -1.93278e-16)
(0.0425851 -1.28529e-17 -4.72739e-17)
(0.0466288 -2.64046e-15 -2.01418e-16)
(0.0466288 -1.4211e-17 -4.85313e-17)
(0.0507308 -2.63812e-15 -2.09825e-16)
(0.0507308 -1.55827e-17 -4.98116e-17)
(0.0548917 -2.63573e-15 -2.18507e-16)
(0.0548917 -1.69913e-17 -5.11154e-17)
(0.0591125 -2.63329e-15 -2.26918e-16)
(0.0591125 -1.83985e-17 -5.24428e-17)
(0.063394 -2.63081e-15 -2.35317e-16)
(0.063394 -1.98351e-17 -5.37935e-17)
(0.067737 -2.62824e-15 -2.43982e-16)
(0.067737 -2.13865e-17 -5.51674e-17)
(0.0721424 -2.62559e-15 -2.52918e-16)
(0.0721424 -2.29369e-17 -5.65643e-17)
(0.0766111 -2.62294e-15 -2.62135e-16)
(0.0766111 -2.44778e-17 -5.79843e-17)
(0.0811439 -2.62021e-15 -2.71641e-16)
(0.0811439 -2.6073e-17 -5.943e-17)
(0.0857417 -2.61744e-15 -2.81442e-16)
(0.0857417 -2.76439e-17 -6.08997e-17)
(0.0904053 -2.6147e-15 -2.91543e-16)
(0.0904053 -2.91748e-17 -6.23959e-17)
(0.0951357 -2.6118e-15 -3.0196e-16)
(0.0951357 -3.08282e-17 -6.39159e-17)
(0.0999337 -2.60875e-15 -3.12693e-16)
(0.0999337 -3.25462e-17 -6.54588e-17)
(0.1048 -2.6057e-15 -3.23752e-16)
(0.1048 -3.42782e-17 -6.70246e-17)
(0.109736 -2.60251e-15 -3.35143e-16)
(0.109736 -3.60451e-17 -6.86159e-17)
(0.114742 -2.59928e-15 -3.46876e-16)
(0.114742 -3.77586e-17 -7.02312e-17)
(0.119818 -2.59608e-15 -3.58954e-16)
(0.119818 -3.94751e-17 -7.18705e-17)
(0.124966 -2.59278e-15 -3.71387e-16)
(0.124966 -4.13263e-17 -7.35289e-17)
(0.130187 -2.58939e-15 -3.84178e-16)
(0.130187 -4.31918e-17 -7.5206e-17)
(0.13548 -2.58584e-15 -3.9733e-16)
(0.13548 -4.51269e-17 -7.69059e-17)
(0.140847 -2.58235e-15 -4.10847e-16)
(0.140847 -4.7024e-17 -7.86288e-17)
(0.146289 -2.57886e-15 -4.24735e-16)
(0.146289 -4.88811e-17 -8.03708e-17)
(0.151804 -2.57518e-15 -4.38997e-16)
(0.151804 -5.09486e-17 -8.21281e-17)
(0.157395 -2.57139e-15 -4.53629e-16)
(0.157395 -5.31281e-17 -8.39001e-17)
(0.16306 -2.56755e-15 -4.68624e-16)
(0.16306 -5.52967e-17 -8.56829e-17)
(0.168801 -2.56382e-15 -4.83982e-16)
(0.168801 -5.71992e-17 -8.74791e-17)
(0.174617 -2.55999e-15 -4.99703e-16)
(0.174617 -5.9079e-17 -8.92832e-17)
(0.180508 -2.55592e-15 -5.15773e-16)
(0.180508 -6.12028e-17 -9.10959e-17)
(0.186473 -2.55174e-15 -5.32179e-16)
(0.186473 -6.33228e-17 -9.29122e-17)
(0.192512 -2.54749e-15 -5.48906e-16)
(0.192512 -6.54226e-17 -9.47299e-17)
(0.198624 -2.54308e-15 -5.65936e-16)
(0.198624 -6.78008e-17 -9.65357e-17)
(0.204808 -2.53863e-15 -5.83251e-16)
(0.204808 -7.00986e-17 -9.8325e-17)
(0.211063 -2.53431e-15 -6.00827e-16)
(0.211063 -7.23464e-17 -1.00108e-16)
(0.217386 -2.52982e-15 -6.18633e-16)
(0.217386 -7.47601e-17 -1.01872e-16)
(0.223776 -2.52496e-15 -6.3663e-16)
(0.223776 -7.72312e-17 -1.03607e-16)
(0.230231 -2.51993e-15 -6.54796e-16)
(0.230231 -7.98689e-17 -1.05299e-16)
(0.236747 -2.51503e-15 -6.73077e-16)
(0.236747 -8.25052e-17 -1.06943e-16)
(0.243322 -2.51018e-15 -6.91428e-16)
(0.243322 -8.49455e-17 -1.08537e-16)
(0.249953 -2.50519e-15 -7.09824e-16)
(0.249953 -8.73101e-17 -1.10076e-16)
(0.256636 -2.49999e-15 -7.282e-16)
(0.256636 -8.98213e-17 -1.11552e-16)
(0.263366 -2.49475e-15 -7.46503e-16)
(0.263366 -9.21348e-17 -1.12976e-16)
(0.27014 -2.48937e-15 -7.647e-16)
(0.27014 -9.45715e-17 -1.14332e-16)
(0.276953 -2.48378e-15 -7.8272e-16)
(0.276953 -9.75473e-17 -1.15616e-16)
(0.2838 -2.47813e-15 -8.00505e-16)
(0.2838 -1.00201e-16 -1.16807e-16)
(0.290675 -2.47256e-15 -8.18015e-16)
(0.290675 -1.02977e-16 -1.17897e-16)
(0.297573 -2.467e-15 -8.35212e-16)
(0.297573 -1.06203e-16 -1.18885e-16)
(0.304489 -2.46138e-15 -8.52051e-16)
(0.304489 -1.08783e-16 -1.1978e-16)
(0.311418 -2.4558e-15 -8.68471e-16)
(0.311418 -1.11472e-16 -1.20568e-16)
(0.318352 -2.45028e-15 -8.84438e-16)
(0.318352 -1.1397e-16 -1.21229e-16)
(0.325287 -2.4446e-15 -8.99941e-16)
(0.325287 -1.1623e-16 -1.21791e-16)
(0.332216 -2.43849e-15 -9.14937e-16)
(0.332216 -1.19562e-16 -1.22257e-16)
(0.339134 -2.43221e-15 -9.29398e-16)
(0.339134 -1.22384e-16 -1.22608e-16)
(0.346036 -2.4256e-15 -9.43321e-16)
(0.346036 -1.25703e-16 -1.22838e-16)
(0.352916 -2.41901e-15 -9.56712e-16)
(0.352916 -1.29137e-16 -1.22945e-16)
(0.359768 -2.41289e-15 -9.69523e-16)
(0.359768 -1.31649e-16 -1.22933e-16)
(0.366588 -2.4071e-15 -9.81801e-16)
(0.366588 -1.3446e-16 -1.22843e-16)
(0.373371 -2.40123e-15 -9.83753e-16)
(0.373371 -1.37373e-16 -1.22644e-16)
(0.380113 -2.39486e-15 -9.83161e-16)
(0.380113 -1.4031e-16 -1.22323e-16)
(0.38681 -2.38836e-15 -9.8197e-16)
(0.38681 -1.43149e-16 -1.2191e-16)
(0.393457 -2.38229e-15 -9.80192e-16)
(0.393457 -1.46e-16 -1.21422e-16)
(0.400052 -2.37609e-15 -9.77886e-16)
(0.400052 -1.48945e-16 -1.20866e-16)
(0.406592 -2.36951e-15 -9.751e-16)
(0.406592 -1.51838e-16 -1.2024e-16)
(0.413074 -2.36303e-15 -9.71857e-16)
(0.413074 -1.54805e-16 -1.19525e-16)
(0.419495 -2.35655e-15 -9.68216e-16)
(0.419495 -1.57841e-16 -1.18704e-16)
(0.425853 -2.34989e-15 -9.64211e-16)
(0.425853 -1.60643e-16 -1.17806e-16)
(0.432147 -2.34317e-15 -9.59879e-16)
(0.432147 -1.63813e-16 -1.16859e-16)
(0.438376 -2.33686e-15 -9.55251e-16)
(0.438376 -1.67371e-16 -1.15856e-16)
(0.444537 -2.33093e-15 -9.5035e-16)
(0.444537 -1.70698e-16 -1.1479e-16)
(0.450631 -2.32463e-15 -9.45231e-16)
(0.450631 -1.74294e-16 -1.14371e-16)
(0.456657 -2.31821e-15 -9.39885e-16)
(0.456657 -1.7824e-16 -1.14298e-16)
(0.462613 -2.31219e-15 -9.34346e-16)
(0.462613 -1.81302e-16 -1.14314e-16)
(0.468501 -2.30568e-15 -9.28656e-16)
(0.468501 -1.84558e-16 -1.14324e-16)
(0.47432 -2.29838e-15 -9.22865e-16)
(0.47432 -1.89121e-16 -1.14318e-16)
(0.480069 -2.29128e-15 -9.16972e-16)
(0.480069 -1.93004e-16 -1.14317e-16)
(0.485751 -2.28449e-15 -9.10993e-16)
(0.485751 -1.97175e-16 -1.14386e-16)
(0.491364 -2.27831e-15 -9.04963e-16)
(0.491364 -2.00718e-16 -1.1448e-16)
(0.496909 -2.27251e-15 -8.98837e-16)
(0.496909 -2.0236e-16 -1.14689e-16)
(0.502388 -2.26655e-15 -8.92663e-16)
(0.502388 -2.04972e-16 -1.14942e-16)
(0.5078 -2.26037e-15 -8.86551e-16)
(0.5078 -2.08406e-16 -1.15253e-16)
(0.513147 -2.25431e-15 -8.80387e-16)
(0.513147 -2.11191e-16 -1.15689e-16)
(0.51843 -2.24805e-15 -8.74184e-16)
(0.51843 -2.14111e-16 -1.16186e-16)
(0.523649 -2.24205e-15 -8.67945e-16)
(0.523649 -2.16751e-16 -1.16702e-16)
(0.528806 -2.23688e-15 -8.61743e-16)
(0.528806 -2.19166e-16 -1.17445e-16)
(0.533901 -2.23065e-15 -8.55527e-16)
(0.533901 -2.22013e-16 -1.18364e-16)
(0.538936 -2.22332e-15 -8.49379e-16)
(0.538936 -2.24737e-16 -1.19285e-16)
(0.543912 -2.21582e-15 -8.43318e-16)
(0.543912 -2.28769e-16 -1.20189e-16)
(0.54883 -2.20896e-15 -8.3732e-16)
(0.54883 -2.33262e-16 -1.21115e-16)
(0.553691 -2.20299e-15 -8.31358e-16)
(0.553691 -2.35757e-16 -1.22208e-16)
(0.558496 -2.19677e-15 -8.25472e-16)
(0.558496 -2.37032e-16 -1.23519e-16)
(0.563246 -2.18917e-15 -8.1955e-16)
(0.563246 -2.4064e-16 -1.24882e-16)
(0.567943 -2.18107e-15 -8.13749e-16)
(0.567943 -2.449e-16 -1.26365e-16)
(0.572587 -2.17412e-15 -8.08067e-16)
(0.572587 -2.47234e-16 -1.27762e-16)
(0.57718 -2.16778e-15 -8.02346e-16)
(0.57718 -2.51574e-16 -1.29244e-16)
(0.581723 -2.16118e-15 -7.96785e-16)
(0.581723 -2.55162e-16 -1.3076e-16)
(0.586217 -2.15409e-15 -7.91186e-16)
(0.586217 -2.58021e-16 -1.3229e-16)
(0.590663 -2.14642e-15 -7.85592e-16)
(0.590663 -2.63094e-16 -1.34015e-16)
(0.595062 -2.13882e-15 -7.8013e-16)
(0.595062 -2.67291e-16 -1.35755e-16)
(0.599415 -2.13117e-15 -7.74771e-16)
(0.599415 -2.70842e-16 -1.37501e-16)
(0.603724 -2.12375e-15 -7.6947e-16)
(0.603724 -2.74486e-16 -1.39427e-16)
(0.607988 -2.11633e-15 -7.64206e-16)
(0.607988 -2.78241e-16 -1.41377e-16)
(0.612211 -2.10878e-15 -7.59007e-16)
(0.612211 -2.83882e-16 -1.43464e-16)
(0.616391 -2.10105e-15 -7.53921e-16)
(0.616391 -2.88147e-16 -1.45599e-16)
(0.620531 -2.09309e-15 -7.48807e-16)
(0.620531 -2.92237e-16 -1.47875e-16)
(0.624631 -2.08469e-15 -7.43719e-16)
(0.624631 -2.96486e-16 -1.50289e-16)
(0.628692 -2.07698e-15 -7.38635e-16)
(0.628692 -2.98459e-16 -1.52823e-16)
(0.632715 -2.06936e-15 -7.33645e-16)
(0.632715 -3.02123e-16 -1.55456e-16)
(0.636701 -2.06171e-15 -7.2862e-16)
(0.636701 -3.05049e-16 -1.58174e-16)
(0.640651 -2.05523e-15 -7.23538e-16)
(0.640651 -3.06857e-16 -1.60818e-16)
(0.644565 -2.0483e-15 -7.18547e-16)
(0.644565 -3.09e-16 -1.63871e-16)
(0.648445 -2.04224e-15 -7.13589e-16)
(0.648445 -3.11397e-16 -1.66864e-16)
(0.652291 -2.035e-15 -7.08631e-16)
(0.652291 -3.13763e-16 -1.70079e-16)
(0.656105 -2.02851e-15 -7.03582e-16)
(0.656105 -3.16103e-16 -1.7353e-16)
(0.659886 -2.02169e-15 -6.98437e-16)
(0.659886 -3.17633e-16 -1.77418e-16)
(0.663636 -2.01514e-15 -6.93204e-16)
(0.663636 -3.19563e-16 -1.81294e-16)
(0.667355 -2.00888e-15 -6.87794e-16)
(0.667355 -3.23127e-16 -1.85232e-16)
(0.671044 -2.00417e-15 -6.82235e-16)
(0.671044 -3.24083e-16 -1.89548e-16)
(0.674705 -1.99618e-15 -6.76543e-16)
(0.674705 -3.2569e-16 -1.94075e-16)
(0.678336 -1.98442e-15 -6.70888e-16)
(0.678336 -3.30667e-16 -1.9881e-16)
(0.68194 -1.97519e-15 -6.65222e-16)
(0.68194 -3.36126e-16 -2.03448e-16)
(0.685516 -1.96566e-15 -6.59433e-16)
(0.685516 -3.41186e-16 -2.08001e-16)
(0.689066 -1.95378e-15 -6.53666e-16)
(0.689066 -3.4648e-16 -2.1249e-16)
(0.692589 -1.94186e-15 -6.47745e-16)
(0.692589 -3.50568e-16 -2.17531e-16)
(0.696087 -1.93266e-15 -6.41764e-16)
(0.696087 -3.53726e-16 -2.22361e-16)
(0.699561 -1.92347e-15 -6.35964e-16)
(0.699561 -3.58463e-16 -2.27489e-16)
(0.70301 -1.91179e-15 -6.30344e-16)
(0.70301 -3.65465e-16 -2.32831e-16)
(0.706435 -1.90402e-15 -6.24642e-16)
(0.706435 -3.69347e-16 -2.38131e-16)
(0.709837 -1.89676e-15 -6.18688e-16)
(0.709837 -3.74092e-16 -2.43189e-16)
(0.713217 -1.8844e-15 -6.12532e-16)
(0.713217 -3.83316e-16 -2.48393e-16)
(0.716574 -1.87256e-15 -6.06689e-16)
(0.716574 -3.89705e-16 -2.53808e-16)
(0.71991 -1.85988e-15 -6.00841e-16)
(0.71991 -3.95125e-16 -2.58972e-16)
(0.723225 -1.84662e-15 -5.95405e-16)
(0.723225 -4.04417e-16 -2.63973e-16)
(0.726518 -1.83443e-15 -5.9013e-16)
(0.726518 -4.13039e-16 -2.6931e-16)
(0.729792 -1.82076e-15 -5.84978e-16)
(0.729792 -4.20076e-16 -2.74112e-16)
(0.733046 -1.80761e-15 -5.7992e-16)
(0.733046 -4.29466e-16 -2.78714e-16)
(0.73628 -1.79462e-15 -5.74772e-16)
(0.73628 -4.36514e-16 -2.834e-16)
(0.739496 -1.78464e-15 -5.69746e-16)
(0.739496 -4.42267e-16 -2.88416e-16)
(0.742693 -1.77519e-15 -5.64693e-16)
(0.742693 -4.45959e-16 -2.93419e-16)
(0.745872 -1.76373e-15 -5.59727e-16)
(0.745872 -4.51813e-16 -2.98202e-16)
(0.749033 -1.75057e-15 -5.54418e-16)
(0.749033 -4.60264e-16 -3.02863e-16)
(0.752177 -1.73831e-15 -5.49343e-16)
(0.752177 -4.64256e-16 -3.07164e-16)
(0.755303 -1.72659e-15 -5.44083e-16)
(0.755303 -4.71201e-16 -3.11525e-16)
(0.758414 -1.71148e-15 -5.39397e-16)
(0.758414 -4.78593e-16 -3.16211e-16)
(0.761508 -1.69618e-15 -5.34848e-16)
(0.761508 -4.83434e-16 -3.20801e-16)
(0.764586 -1.68472e-15 -5.301e-16)
(0.764586 -4.92242e-16 -3.26115e-16)
(0.767648 -1.67631e-15 -5.25554e-16)
(0.767648 -4.98469e-16 -3.31844e-16)
(0.770696 -1.66621e-15 -5.19852e-16)
(0.770696 -5.02819e-16 -3.36482e-16)
(0.773728 -1.65144e-15 -5.14828e-16)
(0.773728 -5.12132e-16 -3.41014e-16)
(0.776746 -1.63211e-15 -5.10703e-16)
(0.776746 -5.21742e-16 -3.4613e-16)
(0.779749 -1.61609e-15 -5.0705e-16)
(0.779749 -5.25399e-16 -3.51635e-16)
(0.782739 -1.60415e-15 -5.03131e-16)
(0.782739 -5.30762e-16 -3.56782e-16)
(0.785715 -1.59087e-15 -4.99844e-16)
(0.785715 -5.4139e-16 -3.57555e-16)
(0.788677 -1.58146e-15 -4.96655e-16)
(0.788677 -5.45985e-16 -3.52785e-16)
(0.791627 -1.57927e-15 -4.93333e-16)
(0.791627 -5.4686e-16 -3.48895e-16)
(0.794563 -1.57586e-15 -4.88957e-16)
(0.794563 -5.50414e-16 -3.44617e-16)
(0.797487 -1.57069e-15 -4.84152e-16)
(0.797487 -5.52292e-16 -3.41003e-16)
(0.800398 -1.56559e-15 -4.79608e-16)
(0.800398 -5.55623e-16 -3.36929e-16)
(0.803298 -1.5596e-15 -4.751e-16)
(0.803298 -5.60186e-16 -3.32627e-16)
(0.806185 -1.55455e-15 -4.70623e-16)
(0.806185 -5.61089e-16 -3.28412e-16)
(0.809061 -1.55045e-15 -4.68615e-16)
(0.809061 -5.63957e-16 -3.25311e-16)
(0.811926 -1.54595e-15 -4.66305e-16)
(0.811926 -5.6667e-16 -3.2171e-16)
(0.814779 -1.54263e-15 -4.62915e-16)
(0.814779 -5.65723e-16 -3.17857e-16)
(0.817621 -1.53709e-15 -4.5907e-16)
(0.817621 -5.67228e-16 -3.1515e-16)
(0.820453 -1.52758e-15 -4.55542e-16)
(0.820453 -5.73422e-16 -3.12872e-16)
(0.823274 -1.52002e-15 -4.51575e-16)
(0.823274 -5.75592e-16 -3.09442e-16)
(0.826085 -1.51141e-15 -4.47407e-16)
(0.826085 -5.83048e-16 -3.06052e-16)
(0.828885 -1.50349e-15 -4.44221e-16)
(0.828885 -5.91055e-16 -3.03069e-16)
(0.831676 -1.49201e-15 -4.41539e-16)
(0.831676 -5.94864e-16 -3.0048e-16)
(0.834457 -1.48106e-15 -4.4045e-16)
(0.834457 -6.02526e-16 -2.95487e-16)
(0.837229 -1.47433e-15 -4.38229e-16)
(0.837229 -6.07109e-16 -2.90895e-16)
(0.839991 -1.46442e-15 -4.36015e-16)
(0.839991 -6.11962e-16 -2.86894e-16)
(0.842743 -1.45504e-15 -4.34092e-16)
(0.842743 -6.15033e-16 -2.83383e-16)
(0.845487 -1.44983e-15 -4.32065e-16)
(0.845487 -6.16434e-16 -2.78498e-16)
(0.848222 -1.44196e-15 -4.29695e-16)
(0.848222 -6.22185e-16 -2.73481e-16)
(0.850948 -1.434e-15 -4.2713e-16)
(0.850948 -6.25171e-16 -2.69692e-16)
(0.853666 -1.42908e-15 -4.23332e-16)
(0.853666 -6.28388e-16 -2.65813e-16)
(0.856375 -1.42294e-15 -4.19481e-16)
(0.856375 -6.34674e-16 -2.61895e-16)
(0.859076 -1.41695e-15 -4.14979e-16)
(0.859076 -6.38207e-16 -2.58083e-16)
(0.861769 -1.40672e-15 -4.11114e-16)
(0.861769 -6.43426e-16 -2.58505e-16)
(0.864453 -1.39879e-15 -4.07882e-16)
(0.864453 -6.51554e-16 -2.58972e-16)
(0.86713 -1.39428e-15 -4.02567e-16)
(0.86713 -6.55044e-16 -2.58967e-16)
(0.869799 -1.38219e-15 -3.96387e-16)
(0.869799 -6.56009e-16 -2.60061e-16)
(0.872461 -1.36801e-15 -3.92105e-16)
(0.872461 -6.61888e-16 -2.61164e-16)
(0.875115 -1.35754e-15 -3.8992e-16)
(0.875115 -6.73248e-16 -2.59428e-16)
(0.877762 -1.34677e-15 -3.85233e-16)
(0.877762 -6.88269e-16 -2.58113e-16)
(0.880401 -1.33873e-15 -3.81937e-16)
(0.880401 -6.90136e-16 -2.59651e-16)
(0.883034 -1.33012e-15 -3.81043e-16)
(0.883034 -6.9488e-16 -2.60268e-16)
(0.885659 -1.31918e-15 -3.79208e-16)
(0.885659 -7.12498e-16 -2.58986e-16)
(0.888277 -1.31012e-15 -3.75601e-16)
(0.888277 -7.16388e-16 -2.60039e-16)
(0.890889 -1.29524e-15 -3.74632e-16)
(0.890889 -7.21985e-16 -2.6065e-16)
(0.893494 -1.27807e-15 -3.74357e-16)
(0.893494 -7.28505e-16 -2.61489e-16)
(0.896092 -1.26586e-15 -3.72495e-16)
(0.896092 -7.35077e-16 -2.63025e-16)
(0.898683 -1.25522e-15 -3.72553e-16)
(0.898683 -7.44372e-16 -2.65231e-16)
(0.901268 -1.2543e-15 -3.74041e-16)
(0.901268 -7.37316e-16 -2.64687e-16)
(0.903847 -1.24809e-15 -3.7216e-16)
(0.903847 -7.32399e-16 -2.66215e-16)
(0.906419 -1.2363e-15 -3.72459e-16)
(0.906419 -7.41524e-16 -2.66785e-16)
(0.908985 -1.23526e-15 -3.73127e-16)
(0.908985 -7.4153e-16 -2.64659e-16)
(0.911545 -1.23302e-15 -3.72129e-16)
(0.911545 -7.33518e-16 -2.64035e-16)
(0.914099 -1.22395e-15 -3.71136e-16)
(0.914099 -7.32075e-16 -2.65914e-16)
(0.916647 -1.21609e-15 -3.73336e-16)
(0.916647 -7.2759e-16 -2.63455e-16)
(0.919189 -1.21699e-15 -3.71841e-16)
(0.919189 -7.23917e-16 -2.57806e-16)
(0.921724 -1.21414e-15 -3.65297e-16)
(0.921724 -7.18626e-16 -2.57104e-16)
(0.924254 -1.20214e-15 -3.59996e-16)
(0.924254 -7.17949e-16 -2.57915e-16)
(0.926779 -1.19032e-15 -3.59197e-16)
(0.926779 -7.21389e-16 -2.58704e-16)
(0.929297 -1.17649e-15 -3.60942e-16)
(0.929297 -7.22512e-16 -2.59821e-16)
(0.931809 -1.1653e-15 -3.61347e-16)
(0.931809 -7.28619e-16 -2.56827e-16)
(0.934316 -1.15953e-15 -3.58561e-16)
(0.934316 -7.34119e-16 -2.56182e-16)
(0.936817 -1.14424e-15 -3.57756e-16)
(0.936817 -7.33547e-16 -2.60209e-16)
(0.939313 -1.13782e-15 -3.63133e-16)
(0.939313 -7.32837e-16 -2.57393e-16)
(0.941803 -1.13741e-15 -3.60604e-16)
(0.941803 -7.41216e-16 -2.53765e-16)
(0.944287 -1.13536e-15 -3.57178e-16)
(0.944287 -7.41961e-16 -2.52802e-16)
(0.946766 -1.13653e-15 -3.55185e-16)
(0.946766 -7.3358e-16 -2.54472e-16)
(0.949239 -1.13316e-15 -3.54947e-16)
(0.949239 -7.40795e-16 -2.52069e-16)
(0.951706 -1.13249e-15 -3.49594e-16)
(0.951706 -7.48624e-16 -2.47855e-16)
(0.954168 -1.13181e-15 -3.39981e-16)
(0.954168 -7.46766e-16 -2.49313e-16)
(0.956625 -1.12865e-15 -3.33997e-16)
(0.956625 -7.56358e-16 -2.49393e-16)
(0.959075 -1.12341e-15 -3.27312e-16)
(0.959075 -7.60648e-16 -2.52921e-16)
(0.961521 -1.12363e-15 -3.25667e-16)
(0.961521 -7.5834e-16 -2.49542e-16)
(0.96396 -1.12073e-15 -3.18363e-16)
(0.96396 -7.63057e-16 -2.44957e-16)
(0.966394 -1.12035e-15 -3.10949e-16)
(0.966394 -7.73133e-16 -2.41515e-16)
(0.968823 -1.12824e-15 -3.04419e-16)
(0.968823 -7.66943e-16 -2.44675e-16)
(0.971246 -1.13681e-15 -3.01887e-16)
(0.971246 -7.61841e-16 -2.35801e-16)
(0.973663 -1.14689e-15 -2.89702e-16)
(0.973663 -7.69035e-16 -2.24502e-16)
(0.976074 -1.14633e-15 -2.7555e-16)
(0.976074 -7.59183e-16 -2.22392e-16)
(0.97848 -1.13998e-15 -2.66352e-16)
(0.97848 -7.55011e-16 -2.15235e-16)
(0.98088 -1.1362e-15 -2.54944e-16)
(0.98088 -7.61731e-16 -2.09632e-16)
(0.983274 -1.14295e-15 -2.47693e-16)
(0.983274 -7.59375e-16 -1.94384e-16)
(0.985663 -1.15492e-15 -2.29164e-16)
(0.985663 -7.52527e-16 -1.81749e-16)
(0.988045 -1.15149e-15 -2.09304e-16)
(0.988045 -7.48305e-16 -1.71711e-16)
(0.990421 -1.13721e-15 -1.95805e-16)
(0.990421 -7.65357e-16 -1.54489e-16)
(0.992792 -1.11304e-15 -1.77641e-16)
(0.992792 -7.89872e-16 -1.45683e-16)
(0.995156 -1.08513e-15 -1.70681e-16)
(0.995156 -7.95629e-16 -1.40267e-16)
(0.997514 -1.06361e-15 -1.66529e-16)
(0.997514 -8.02341e-16 -1.37935e-16)
(0.999865 -1.03614e-15 -1.63849e-16)
(0.999865 -8.04328e-16 -1.38348e-16)
(1.00221 -1.01073e-15 -1.6298e-16)
(1.00221 -8.11985e-16 -1.33965e-16)
(1.00455 -9.93329e-16 -1.55119e-16)
(1.00455 -8.21669e-16 -1.24072e-16)
(1.00688 -9.60811e-16 -1.45448e-16)
(1.00688 -8.11753e-16 -1.12282e-16)
(1.00921 -9.44592e-16 -1.42945e-16)
(1.00921 -7.9757e-16 -1.07703e-16)
(1.01153 -9.37652e-16 -1.39437e-16)
(1.01153 -7.88271e-16 -9.46473e-17)
(1.01384 -9.20124e-16 -1.29886e-16)
(1.01384 -7.75968e-16 -9.18806e-17)
(1.01614 -9.05319e-16 -1.23461e-16)
(1.01614 -7.81855e-16 -9.15726e-17)
(1.01844 -8.87486e-16 -1.19011e-16)
(1.01844 -7.81934e-16 -9.56311e-17)
(1.02073 -8.7238e-16 -1.27587e-16)
(1.02073 -7.72383e-16 -9.38104e-17)
(1.02301 -8.71747e-16 -1.33512e-16)
(1.02301 -7.58641e-16 -1.01395e-16)
(1.02528 -8.60045e-16 -1.25517e-16)
(1.02528 -7.57422e-16 -1.08754e-16)
(1.02755 -8.37875e-16 -1.27187e-16)
(1.02755 -7.67398e-16 -1.06194e-16)
(1.02981 -8.26896e-16 -1.43352e-16)
(1.02981 -7.58596e-16 -1.00299e-16)
(1.03206 -8.11665e-16 -1.34398e-16)
(1.03206 -7.48945e-16 -9.9557e-17)
(1.0343 -7.93512e-16 -1.2629e-16)
(1.0343 -7.55362e-16 -9.79908e-17)
(1.03653 -7.85836e-16 -1.43592e-16)
(1.03653 -7.47278e-16 -9.62647e-17)
(1.03876 -7.92996e-16 -1.54191e-16)
(1.03876 -7.39616e-16 -9.12107e-17)
(1.04097 -7.86259e-16 -1.35573e-16)
(1.04097 -7.34458e-16 -8.56094e-17)
(1.04318 -7.796e-16 -1.28213e-16)
(1.04318 -7.15839e-16 -9.38687e-17)
(1.04537 -7.6898e-16 -1.14602e-16)
(1.04537 -7.25447e-16 -9.71781e-17)
(1.04756 -7.4495e-16 -1.21349e-16)
(1.04756 -7.12263e-16 -8.56065e-17)
(1.04973 -7.40512e-16 -1.20694e-16)
(1.04973 -6.69046e-16 -8.42983e-17)
(1.0519 -7.35147e-16 -1.0569e-16)
(1.0519 -6.56264e-16 -9.13889e-17)
(1.05405 -7.17403e-16 -1.09277e-16)
(1.05405 -6.4641e-16 -8.99939e-17)
(1.05619 -6.94838e-16 -1.00308e-16)
(1.05619 -6.44077e-16 -9.8464e-17)
(1.05832 -6.52152e-16 -9.87562e-17)
(1.05832 -6.79899e-16 -1.13468e-16)
(1.06044 -6.24448e-16 -1.05971e-16)
(1.06044 -7.04274e-16 -1.17605e-16)
(1.06255 -6.24318e-16 -9.86594e-17)
(1.06255 -6.91744e-16 -1.10479e-16)
(1.06464 -6.40678e-16 -1.00498e-16)
(1.06464 -6.53647e-16 -1.08748e-16)
(1.06672 -6.49721e-16 -1.02785e-16)
(1.06672 -6.29934e-16 -1.08252e-16)
(1.06879 -6.29769e-16 -1.00244e-16)
(1.06879 -6.26423e-16 -1.09302e-16)
(1.07084 -6.25911e-16 -1.14942e-16)
(1.07084 -6.25536e-16 -1.15776e-16)
(1.07288 -6.31151e-16 -1.27202e-16)
(1.07288 -6.18201e-16 -1.24562e-16)
(1.0749 -6.44341e-16 -1.31908e-16)
(1.0749 -6.0908e-16 -1.32537e-16)
(1.0769 -6.38487e-16 -1.0675e-16)
(1.0769 -6.07319e-16 -1.3197e-16)
(1.07889 -6.36742e-16 -1.12053e-16)
(1.07889 -5.99971e-16 -1.22481e-16)
(1.08086 -6.33035e-16 -1.25509e-16)
(1.08086 -6.03423e-16 -1.37918e-16)
(1.08282 -6.35755e-16 -1.57289e-16)
(1.08282 -6.15929e-16 -1.57811e-16)
(1.08475 -6.37398e-16 -1.72434e-16)
(1.08475 -6.06575e-16 -1.70215e-16)
(1.08667 -6.01535e-16 -1.67659e-16)
(1.08667 -6.56219e-16 -1.90373e-16)
(1.08857 -6.13962e-16 -1.85119e-16)
(1.08857 -6.79661e-16 -1.86161e-16)
(1.09044 -6.4905e-16 -1.73507e-16)
(1.09044 -6.80076e-16 -2.13828e-16)
(1.09229 -6.31575e-16 -1.81001e-16)
(1.09229 -6.43241e-16 -2.16602e-16)
(1.09412 -6.20339e-16 -1.77869e-16)
(1.09412 -6.26362e-16 -2.12437e-16)
(1.09593 -6.07267e-16 -1.55379e-16)
(1.09593 -5.99391e-16 -2.16735e-16)
(1.09771 -6.10423e-16 -1.83398e-16)
(1.09771 -5.46214e-16 -2.26885e-16)
(1.09947 -5.81814e-16 -1.72351e-16)
(1.09947 -5.29716e-16 -2.5114e-16)
(1.1012 -5.37925e-16 -1.64347e-16)
(1.1012 -5.33822e-16 -2.46968e-16)
(1.1029 -4.90276e-16 -1.90211e-16)
(1.1029 -5.41957e-16 -2.17334e-16)
(1.10457 -4.74062e-16 -1.83555e-16)
(1.10457 -5.01176e-16 -1.86727e-16)
(1.10621 -4.83193e-16 -1.74333e-16)
(1.10621 -4.68015e-16 -2.04443e-16)
(1.10781 -4.45847e-16 -2.32527e-16)
(1.10781 -4.84297e-16 -2.33936e-16)
(1.10939 -3.95151e-16 -2.84703e-16)
(1.10939 -4.41688e-16 -2.4772e-16)
(1.11092 -4.47771e-16 -2.87732e-16)
(1.11092 -4.6256e-16 -2.82831e-16)
(1.11242 -4.6819e-16 -3.59261e-16)
(1.11242 -5.21409e-16 -3.40188e-16)
(1.11388 -4.71107e-16 -4.47625e-16)
(1.11388 -4.76054e-16 -3.55938e-16)
(1.11529 -5.0056e-16 -4.61162e-16)
(1.11529 -4.82243e-16 -3.62387e-16)
(1.11667 -5.1134e-16 -4.05247e-16)
(1.11667 -5.14682e-16 -3.71146e-16)
(1.11799 -4.88575e-16 -4.32613e-16)
(1.11799 -4.8689e-16 -3.63093e-16)
(1.11927 -4.3885e-16 -4.56263e-16)
(1.11927 -4.79901e-16 -3.9984e-16)
(1.12049 -5.41855e-16 -4.13213e-16)
(1.12049 -4.94558e-16 -3.81395e-16)
(1.12166 -5.55442e-16 -3.44389e-16)
(1.12166 -4.98396e-16 -4.10655e-16)
(1.12278 -5.49046e-16 -3.33461e-16)
(1.12278 -5.04904e-16 -4.05505e-16)
(1.12383 -4.7154e-16 -3.41628e-16)
(1.12383 -4.65695e-16 -3.67205e-16)
(1.12481 -4.11661e-16 -3.40511e-16)
(1.12481 -4.62184e-16 -3.34812e-16)
(1.12573 -4.25589e-16 -3.75793e-16)
(1.12573 -4.77557e-16 -3.39969e-16)
(1.12658 -4.12542e-16 -4.11952e-16)
(1.12658 -5.10222e-16 -3.47088e-16)
(1.12735 -5.36486e-16 -3.28229e-16)
(1.12735 -5.18203e-16 -3.28457e-16)
(1.12804 -5.02425e-16 -3.49294e-16)
(1.12804 -4.99773e-16 -3.10813e-16)
(1.12865 -4.39995e-16 -3.27286e-16)
(1.12865 -5.36358e-16 -3.38563e-16)
(1.12916 -4.96553e-16 -3.53143e-16)
(1.12916 -5.43213e-16 -3.4954e-16)
(1.12959 -5.24576e-16 -3.27052e-16)
(1.12959 -5.03341e-16 -3.16256e-16)
(1.12991 -4.94939e-16 -2.78553e-16)
(1.12991 -4.54719e-16 -2.52394e-16)
(1.13014 -4.94294e-16 -2.44768e-16)
(1.13014 -4.43017e-16 -2.81451e-16)
(1.13025 -4.45464e-16 -2.0504e-16)
(1.13025 -4.14865e-16 -1.97187e-16)
(0.00171565 1.26102e-19 4.75997e-18)
(0.00171565 3.68528e-20 -4.5216e-19)
(0.00517139 -6.6954e-19 1.4455e-17)
(0.00517139 -1.5665e-19 -5.37374e-18)
(0.00867685 -1.04926e-18 1.47845e-17)
(0.00867685 -2.30147e-19 -5.52816e-18)
(0.0122327 -1.65564e-18 1.59243e-17)
(0.0122327 -3.63336e-19 -5.68585e-18)
(0.0158398 -2.27192e-18 1.71156e-17)
(0.0158398 -5.0679e-19 -5.84632e-18)
(0.0194988 -2.90058e-18 1.82863e-17)
(0.0194988 -6.69428e-19 -6.00977e-18)
(0.0232104 -3.54963e-18 1.94901e-17)
(0.0232104 -8.41997e-19 -6.17616e-18)
(0.0269754 -4.21438e-18 2.0738e-17)
(0.0269754 -1.00649e-18 -6.34608e-18)
(0.0307946 -4.87712e-18 2.20257e-17)
(0.0307946 -1.19117e-18 -6.51907e-18)
(0.0346687 -5.53808e-18 2.33523e-17)
(0.0346687 -1.38473e-18 -6.6943e-18)
(0.0385986 -6.21991e-18 2.47212e-17)
(0.0385986 -1.58119e-18 -6.87355e-18)
(0.0425851 -6.93198e-18 2.58387e-17)
(0.0425851 -1.79207e-18 -7.05534e-18)
(0.0466288 -7.66635e-18 2.75243e-17)
(0.0466288 -1.99886e-18 -7.24002e-18)
(0.0507308 -8.41723e-18 2.90869e-17)
(0.0507308 -2.23012e-18 -7.42722e-18)
(0.0548917 -9.17882e-18 3.06336e-17)
(0.0548917 -2.46842e-18 -7.61753e-18)
(0.0591125 -9.94364e-18 3.22278e-17)
(0.0591125 -2.71108e-18 -7.81083e-18)
(0.063394 -1.07262e-17 3.38712e-17)
(0.063394 -2.9381e-18 -8.0075e-18)
(0.067737 -1.15443e-17 3.55627e-17)
(0.067737 -3.17951e-18 -8.20624e-18)
(0.0721424 -1.235e-17 3.73055e-17)
(0.0721424 -3.43343e-18 -8.40826e-18)
(0.0766111 -1.31609e-17 3.90995e-17)
(0.0766111 -3.71575e-18 -8.61074e-18)
(0.0811439 -1.40038e-17 4.09471e-17)
(0.0811439 -4.0507e-18 -8.81655e-18)
(0.0857417 -1.48675e-17 4.2851e-17)
(0.0857417 -4.38685e-18 -9.02346e-18)
(0.0904053 -1.57448e-17 4.48111e-17)
(0.0904053 -4.7367e-18 -9.23499e-18)
(0.0951357 -1.66863e-17 4.68288e-17)
(0.0951357 -5.11208e-18 -9.44909e-18)
(0.0999337 -1.76698e-17 4.89009e-17)
(0.0999337 -5.43152e-18 -9.66412e-18)
(0.1048 -1.86798e-17 5.10311e-17)
(0.1048 -5.71423e-18 -9.87822e-18)
(0.109736 -1.97396e-17 5.32239e-17)
(0.109736 -6.1163e-18 -1.00931e-17)
(0.114742 -2.07991e-17 5.54787e-17)
(0.114742 -6.54242e-18 -1.03095e-17)
(0.119818 -2.18068e-17 5.77963e-17)
(0.119818 -6.91073e-18 -1.05303e-17)
(0.124966 -2.28566e-17 6.01758e-17)
(0.124966 -7.35377e-18 -1.07527e-17)
(0.130187 -2.39381e-17 6.26164e-17)
(0.130187 -7.83227e-18 -1.09699e-17)
(0.13548 -2.50152e-17 6.51241e-17)
(0.13548 -8.29009e-18 -1.11841e-17)
(0.140847 -2.61998e-17 6.76973e-17)
(0.140847 -8.81749e-18 -1.14001e-17)
(0.146289 -2.73534e-17 7.03334e-17)
(0.146289 -9.43037e-18 -1.16166e-17)
(0.151804 -2.84703e-17 7.30369e-17)
(0.151804 -9.89534e-18 -1.18288e-17)
(0.157395 -2.96576e-17 7.58065e-17)
(0.157395 -1.03726e-17 -1.20412e-17)
(0.16306 -3.07947e-17 7.86377e-17)
(0.16306 -1.09657e-17 -1.2246e-17)
(0.168801 -3.19052e-17 8.15367e-17)
(0.168801 -1.16845e-17 -1.24518e-17)
(0.174617 -3.31317e-17 8.44943e-17)
(0.174617 -1.2422e-17 -1.26481e-17)
(0.180508 -3.44156e-17 8.75108e-17)
(0.180508 -1.29358e-17 -1.28371e-17)
(0.186473 -3.57647e-17 9.05869e-17)
(0.186473 -1.33981e-17 -1.30179e-17)
(0.192512 -3.71567e-17 9.37259e-17)
(0.192512 -1.40128e-17 -1.31972e-17)
(0.198624 -3.86242e-17 9.69136e-17)
(0.198624 -1.46521e-17 -1.33689e-17)
(0.204808 -4.01958e-17 1.00137e-16)
(0.204808 -1.52773e-17 -1.35185e-17)
(0.211063 -4.17182e-17 1.0341e-16)
(0.211063 -1.61506e-17 -1.36634e-17)
(0.217386 -4.32442e-17 1.06719e-16)
(0.217386 -1.66623e-17 -1.37931e-17)
(0.223776 -4.48624e-17 1.10059e-16)
(0.223776 -1.70376e-17 -1.39099e-17)
(0.230231 -4.65006e-17 1.13422e-16)
(0.230231 -1.77462e-17 -1.40151e-17)
(0.236747 -4.80823e-17 1.16798e-16)
(0.236747 -1.85051e-17 -1.40982e-17)
(0.243322 -4.97294e-17 1.20185e-16)
(0.243322 -1.9102e-17 -1.4162e-17)
(0.249953 -5.13857e-17 1.23567e-16)
(0.249953 -1.98423e-17 -1.42043e-17)
(0.256636 -5.31244e-17 1.26946e-16)
(0.256636 -2.08464e-17 -1.42125e-17)
(0.263366 -5.4937e-17 1.30309e-16)
(0.263366 -2.19615e-17 -1.42044e-17)
(0.27014 -5.65929e-17 1.33648e-16)
(0.27014 -2.30164e-17 -1.41651e-17)
(0.276953 -5.8315e-17 1.3696e-16)
(0.276953 -2.37274e-17 -1.40941e-17)
(0.2838 -6.01337e-17 1.40234e-16)
(0.2838 -2.45747e-17 -1.40081e-17)
(0.290675 -6.20566e-17 1.43445e-16)
(0.290675 -2.57134e-17 -1.38775e-17)
(0.297573 -6.40485e-17 1.46591e-16)
(0.297573 -2.67852e-17 -1.37134e-17)
(0.304489 -6.59402e-17 1.49679e-16)
(0.304489 -2.79235e-17 -1.35325e-17)
(0.311418 -6.80191e-17 1.52669e-16)
(0.311418 -2.8879e-17 -1.3308e-17)
(0.318352 -6.99495e-17 1.55559e-16)
(0.318352 -2.99501e-17 -1.30392e-17)
(0.325287 -7.16671e-17 1.58365e-16)
(0.325287 -3.10037e-17 -1.27245e-17)
(0.332216 -7.35666e-17 1.61095e-16)
(0.332216 -3.23061e-17 -1.23962e-17)
(0.339134 -7.57558e-17 1.63714e-16)
(0.339134 -3.36001e-17 -1.20137e-17)
(0.346036 -7.82246e-17 1.66239e-16)
(0.346036 -3.44366e-17 -1.15988e-17)
(0.352916 -8.04732e-17 1.68636e-16)
(0.352916 -3.55055e-17 -1.11601e-17)
(0.359768 -8.28578e-17 1.70929e-16)
(0.359768 -3.62061e-17 -1.06511e-17)
(0.366588 -8.55003e-17 1.73126e-16)
(0.366588 -3.70493e-17 -1.01322e-17)
(0.373371 -8.77754e-17 1.75203e-16)
(0.373371 -3.81898e-17 -9.58455e-18)
(0.380113 -8.98408e-17 1.77146e-16)
(0.380113 -3.91919e-17 -8.97107e-18)
(0.38681 -9.16052e-17 1.79002e-16)
(0.38681 -4.06989e-17 -8.31826e-18)
(0.393457 -9.3151e-17 1.80776e-16)
(0.393457 -4.23368e-17 -7.64115e-18)
(0.400052 -9.48774e-17 1.82448e-16)
(0.400052 -4.36806e-17 -6.92584e-18)
(0.406592 -9.63839e-17 1.84035e-16)
(0.406592 -4.48069e-17 -6.19003e-18)
(0.413074 -9.80872e-17 1.85549e-16)
(0.413074 -4.54739e-17 -5.44436e-18)
(0.419495 -9.97663e-17 1.86939e-16)
(0.419495 -4.64783e-17 -4.65148e-18)
(0.425853 -1.01377e-16 1.88234e-16)
(0.425853 -4.73443e-17 -3.80718e-18)
(0.432147 -1.03382e-16 1.89437e-16)
(0.432147 -4.81548e-17 -2.92732e-18)