/*--------------------------------*- C++ -*----------------------------------*\
| =========                 |                                                 |
| \\      /  F ield         | OpenFOAM: The Open Source CFD Toolbox           |
|  \\    /   O peration     | Version:  2012                                  |
|   \\  /    A nd           | Website:  www.openfoam.com                      |
|    \\/     M anipulation  |                                                 |
\*---------------------------------------------------------------------------*/
FoamFile
{
    version     2.0;
    format      ascii;
    class       volTensorField;
    location    "14400";
    object      grad(U);
}
// * * * * * * * * * * * * * * * * * * * * * * * * * * * * * * * * * * * * * //

dimensions      [0 0 -1 0 0 0 0];


internalField   nonuniform List<tensor> 
2560
(
(2.9258e-16 -4.35978e-23 -6.02996e-17 1278.87 0.000136904 -0.00240694 1.8522 5.56783e-08 -3.5298e-06)
(-2.9258e-16 2.5483e-18 0 1278.87 -3.38813e-21 -5.55597e-07 1.8522 7.37275e-08 3.53956e-06)
(1.15355e-15 2.55681e-18 -2.99841e-17 1277.45 5.02917e-05 5.714e-24 5.57946 1.47714e-07 -8.47033e-22)
(-1.15355e-15 0 -2.20021e-21 1277.45 7.49144e-06 -1.74938e-06 5.57946 3.45527e-07 5.28917e-06)
(-2.36126e-16 -4.70198e-38 -3.86194e-22 1275.98 -1.41053e-20 0.000838857 7.65521 -1.16656e-38 -3.31422e-06)
(0 -1.35542e-22 1.62651e-21 1275.98 -9.16816e-05 -2.5158e-06 7.65521 3.42009e-07 4.45411e-06)
(7.53217e-16 2.338e-22 -5.34399e-22 1274.42 -4.76583e-05 0.000965687 7.75678 -4.57613e-08 -2.75693e-06)
(0 -2.338e-22 5.34399e-22 1274.42 -0.000117463 -2.17086e-06 7.75678 -8.81744e-09 2.76689e-06)
(4.41861e-15 3.62134e-22 -1.31685e-21 1272.78 5.56731e-06 0.000606568 7.85922 -1.94994e-07 -1.5153e-06)
(0 6.41889e-18 1.05348e-21 1272.79 -6.86258e-25 -1.56079e-06 7.85922 0 1.52082e-06)
(1.80821e-15 1.62247e-22 -3.89393e-22 1271.09 2.80776e-05 0.000296798 7.96279 -1.36015e-07 -8.96207e-07)
(1.44656e-14 -3.27692e-22 5.1919e-22 1271.09 6.86743e-06 -1.46201e-06 7.96279 -3.79173e-08 8.99521e-07)
(-2.34616e-15 1.27937e-22 -1.27937e-22 1269.39 1.99098e-05 0.000149855 8.06782 -8.63338e-08 -5.8945e-07)
(9.38463e-15 -2.56968e-22 2.55874e-22 1269.39 5.20726e-06 -1.64712e-06 8.06782 -4.76315e-08 5.91684e-07)
(1.34018e-15 -2.6797e-22 6.30518e-23 1267.73 1.14337e-05 8.49973e-05 8.17463 -5.68649e-08 -4.18898e-07)
(7.33328e-15 1.95764e-22 0 1267.73 2.87435e-07 -1.96454e-06 8.17464 -1.79111e-08 4.20549e-07)
(3.44327e-15 2.01981e-22 -1.24296e-22 1266.16 8.19224e-06 5.4167e-05 8.28353 -4.8956e-08 -3.11375e-07)
(4.17069e-15 0 1.24296e-22 1266.16 5.28328e-23 -2.29565e-06 8.28353 0 3.12675e-07)
(0 -2.64172e-22 1.22515e-22 1264.71 6.46576e-06 3.81917e-05 8.39479 -3.16584e-08 -2.35654e-07)
(0 1.99086e-22 -6.12573e-23 1264.71 -7.31419e-07 -2.61749e-06 8.39479 4.91566e-09 2.36726e-07)
(-4.56932e-15 3.9624e-22 -9.05691e-23 1263.4 4.04306e-06 2.94049e-05 8.50866 -3.01649e-08 -1.76961e-07)
(0 -3.9624e-22 1.20759e-22 1263.4 -2.06784e-06 -2.94782e-06 8.50866 6.39847e-09 1.77875e-07)
(5.14353e-15 5.98859e-22 -1.48785e-22 1262.28 4.1108e-06 2.44595e-05 8.62535 -2.50208e-08 -1.27512e-07)
(0 -5.31906e-22 8.9271e-23 1262.28 -1.257e-06 -3.28306e-06 8.62535 1.14788e-08 1.28311e-07)
(0 2.01647e-22 -8.79915e-23 1261.35 3.13947e-06 2.17555e-05 8.74504 -2.04809e-08 -8.28567e-08)
(1.57467e-14 -2.67641e-22 8.79915e-23 1261.35 -1.6404e-06 -3.6254e-06 8.74504 1.60073e-08 8.35696e-08)
(1.44531e-15 -2.63805e-22 0 1260.63 2.72345e-06 2.0469e-05 8.86786 -1.98813e-08 -4.01487e-08)
(1.75003e-14 1.98757e-22 0 1260.63 -1.61921e-06 -3.42757e-06 8.86786 1.65485e-08 4.07946e-08)
(7.64927e-15 -5.30733e-22 0 1260.12 2.24562e-06 2.01451e-05 8.9939 -1.65966e-08 -3.63148e-15)
(-7.64927e-15 5.30733e-22 8.75812e-47 1260.12 -1.73764e-06 5.2905e-32 8.9939 1.98191e-08 -3.9443e-31)
(-7.51916e-15 0 0 1259.81 2.16032e-06 2.05198e-05 9.1232 -1.81053e-08 -1.20184e-15)
(3.00766e-14 0 0 1259.81 -1.48533e-06 2.05417e-05 9.1232 1.82582e-08 -1.08127e-15)
(0 -5.95223e-22 0 1259.7 2.36673e-06 2.14342e-05 9.25575 -1.43239e-08 1.37961e-15)
(-3.25353e-14 5.95223e-22 0 1259.7 -1.09973e-06 2.1452e-05 9.25575 2.20205e-08 1.2138e-15)
(0 -7.28248e-22 0 1259.77 1.37136e-06 2.27941e-05 9.39145 -1.34914e-08 4.22089e-15)
(-3.50289e-14 7.28248e-22 0 1259.77 -1.9027e-06 2.28088e-05 9.39145 2.28033e-08 3.86744e-15)
(1.44402e-14 1.2776e-22 5.37938e-23 1259.99 1.48333e-06 1.67531e-05 9.53017 -1.63011e-08 7.41946e-15)
(0 -2.62245e-22 0 1259.99 -1.6272e-06 2.4551e-05 9.53017 1.9971e-08 6.92069e-15)
(1.00313e-14 -5.28571e-22 0 1260.32 2.12615e-06 8.57873e-06 9.6717 -1.39774e-08 -2.94407e-08)
(-4.01251e-14 7.27406e-22 -5.30227e-23 1260.32 -8.47916e-07 2.66365e-05 9.6717 2.22481e-08 2.89984e-08)
(0 -7.93741e-22 0 1260.74 1.61542e-06 7.48295e-06 9.81578 -1.14121e-08 -6.8809e-08)
(0 7.93741e-22 0 1260.74 -1.24199e-06 2.90456e-05 9.81578 2.47862e-08 6.83843e-08)
(-1.13432e-14 1.39235e-20 -1.03027e-22 1261.18 0 7.98571e-06 9.96204 -1.254e-08 -1.1276e-07)
(0 -2.64008e-22 1.54541e-22 1261.18 -2.36421e-06 3.17715e-05 9.96204 2.36115e-08 1.12352e-07)
(1.616e-15 9.23478e-22 0 1261.6 1.84149e-06 8.49975e-06 10.1101 -1.91542e-08 -1.62066e-07)
(0 4.70943e-24 2.03102e-22 1261.6 -3.69373e-38 3.48021e-05 10.1101 1.69675e-08 1.6167e-07)
(0 2.00938e-19 1.00095e-22 1261.95 6.93828e-08 9.05416e-06 10.2594 -8.36704e-09 -2.17391e-07)
(-5.07789e-14 7.94507e-22 -4.56039e-19 1261.95 -5.79668e-07 1.9797e-05 10.2594 2.77094e-08 7.98834e-08)
(2.66278e-14 -7.9391e-22 2.95982e-22 1262.14 6.77945e-07 9.63219e-06 10.4095 -1.3423e-08 -2.1803e-07)
(-1.3242e-14 7.9391e-22 -3.71864e-19 1262.14 -1.85713e-06 0 10.4095 2.262e-08 2.64698e-23)
(-2.81745e-14 8.94521e-21 2.9174e-22 1262.12 0 1.02072e-05 10.5596 -1.3128e-08 -1.88619e-07)
(0 9.26882e-22 -2.9174e-22 1262.12 -2.18778e-06 -3.99925e-06 10.5596 2.28679e-08 3.58076e-08)
(7.0128e-14 9.25579e-22 -2.87559e-22 1261.81 2.10792e-06 1.08056e-05 10.7091 -2.13148e-08 -1.59021e-07)
(1.18394e-13 4.06499e-24 4.301e-22 1261.81 5.29396e-22 -3.36006e-06 10.7091 1.46457e-08 3.05955e-08)
(-2.53615e-14 5.33268e-20 -1.88958e-22 1261.14 0 1.14523e-05 10.8573 -5.42441e-09 -1.28923e-07)
(6.20871e-14 -7.94214e-22 5.71123e-23 1261.14 -7.53126e-07 -2.80435e-06 10.8573 3.04898e-08 2.60047e-08)
(1.62549e-14 -2.64824e-22 0 1260.01 4.02676e-07 1.21198e-05 11.0032 -1.76755e-08 -9.80662e-08)
(-2.4998e-14 2.52568e-24 -1.8625e-22 1260.01 2.53845e-39 -2.31766e-06 11.0032 1.81994e-08 2.19201e-08)
(-3.39972e-14 0 0 1258.35 5.29396e-23 1.27881e-05 11.1459 -1.20297e-08 -6.62965e-08)
(-1.35989e-13 0 -5.32942e-23 1258.35 -1.91873e-06 -1.88839e-06 11.1459 2.37969e-08 1.82616e-08)
(-1.77528e-14 -2.62942e-22 0 1256.07 1.88898e-06 1.34853e-05 11.2845 -2.43774e-08 -3.34766e-08)
(-7.1011e-14 5.28869e-20 -1.00741e-22 1256.07 3.70577e-22 -1.35777e-06 11.2844 1.14084e-08 1.49518e-08)
(0 9.98334e-20 0 1253.08 0 1.42353e-05 11.4179 -5.23274e-09 -4.56321e-12)
(-7.40691e-14 7.9424e-22 0 1253.08 -6.54749e-07 6.79696e-06 11.4179 3.05051e-08 -2.38216e-12)
(0 7.93844e-22 0 1249.3 -5.58038e-08 1.50042e-05 11.545 -2.01142e-08 -5.09639e-12)
(7.71676e-14 -2.18036e-19 0 1249.3 -5.41047e-07 1.50042e-05 11.545 1.55795e-08 -2.54324e-12)
(-2.00764e-14 2.45131e-20 0 1244.63 0 1.57781e-05 11.6646 -1.60623e-08 -4.40267e-12)
(0 -1.32667e-22 0 1244.63 -1.44883e-06 1.5778e-05 11.6646 1.95812e-08 -2.72896e-12)
(-2.08704e-14 -6.61835e-22 0 1238.99 1.93415e-06 1.65957e-05 11.7757 -2.30694e-08 -4.86678e-12)
(0 3.89538e-20 0 1238.99 0 1.65957e-05 11.7757 1.25286e-08 -2.96428e-12)
(2.35172e-14 3.61636e-20 0 1232.3 0 1.74673e-05 11.877 -8.28679e-09 -4.17541e-12)
(-1.31884e-13 3.31436e-22 0 1232.3 -9.99562e-07 1.74673e-05 11.877 2.72613e-08 -3.14216e-12)
(2.2485e-14 2.6446e-22 0 1224.47 -2.31323e-08 1.83566e-05 11.9671 -2.19638e-08 -4.64123e-12)
(0 -2.6446e-22 0 1224.47 -1.2277e-06 1.83566e-05 11.9671 1.35355e-08 -3.38603e-12)
(2.33046e-14 6.91771e-20 0 1215.42 -4.23516e-22 1.92556e-05 12.0449 -1.93721e-08 -3.90326e-12)
(0 -5.29005e-22 0 1215.42 -1.44613e-06 1.92555e-05 12.0449 1.60751e-08 -3.60572e-12)
(-2.49388e-15 -2.67009e-22 0 1205.08 1.86197e-06 2.02028e-05 12.109 -2.5071e-08 -4.31604e-12)
(-2.16376e-14 1.43305e-24 -3.22426e-22 1205.08 3.17637e-22 2.02028e-05 12.109 1.03262e-08 -3.90744e-12)
(0 1.20146e-19 0 1193.39 -4.23516e-22 2.12132e-05 12.1581 -1.19185e-08 -3.58848e-12)
(0 6.62921e-22 0 1193.39 -8.10357e-07 2.12132e-05 12.1581 2.34269e-08 -4.11274e-12)
(-2.5804e-14 -1.32152e-22 0 1180.26 1.41666e-07 2.2253e-05 12.191 -2.18302e-08 -3.96613e-12)
(1.03216e-13 6.60761e-23 0 1180.26 -2.15073e-06 2.2253e-05 12.191 1.34624e-08 -4.45887e-12)
(0 1.13826e-20 0 1165.65 0 2.32962e-05 12.2062 -2.21658e-08 -3.17116e-12)
(1.06591e-13 -7.96022e-22 0 1165.65 -2.09233e-06 2.32962e-05 12.2062 1.30731e-08 -4.72707e-12)
(2.74953e-14 -4.61257e-22 0 1149.49 2.67128e-06 2.43968e-05 12.2025 -3.16764e-08 -3.52785e-12)
(-1.09981e-13 0 0 1149.49 0 2.43967e-05 12.2025 3.50864e-09 -5.10074e-12)
(2.83453e-14 1.71654e-20 0 1131.75 -1.32349e-22 2.55555e-05 12.1788 -5.83877e-09 -2.67739e-12)
(0 -3.30439e-22 0 1131.75 -2.11918e-06 2.55554e-05 12.1787 2.92928e-08 -5.42074e-12)
(-2.91966e-14 2.67954e-22 0 1112.39 1.34299e-06 2.67446e-05 12.1336 -4.22968e-08 -3.05208e-12)
(0 0 0 1112.39 2.11758e-22 2.67446e-05 12.1336 6.4114e-38 -5.78721e-12)
(3.0048e-14 4.85217e-25 0 1091.37 2.4294e-38 2.79563e-05 12.066 -3.49636e-09 -2.13307e-12)
(8.1076e-14 1.98654e-22 0 1091.37 -2.47526e-06 2.79562e-05 12.066 3.15234e-08 -6.17195e-12)
(0 3.23166e-22 0 1068.67 2.3292e-06 2.92123e-05 11.9748 -5.71338e-08 -2.39875e-12)
(1.23592e-13 9.40395e-38 0 1068.67 -1.0985e-21 2.92122e-05 11.9748 -1.30486e-37 -6.65558e-12)
(-3.17449e-14 6.96405e-20 0 1044.28 0 3.05798e-05 11.8588 1.65436e-24 -1.55328e-12)
(0 -2.65445e-22 0 1044.28 4.2035e-07 3.05798e-05 11.8588 4.49587e-08 -6.96352e-12)
(-3.25874e-14 0 0 1018.2 -4.19789e-06 3.19071e-05 11.7172 -3.91924e-08 -1.75653e-12)
(0 -2.00591e-22 0 1018.2 -6.66694e-06 3.1907e-05 11.7172 -4.34405e-09 -7.52328e-12)
(0 3.26662e-22 0 990.422 5.17315e-07 3.31334e-05 11.5489 -5.25401e-08 -1.01232e-12)
(3.69211e-14 -4.64203e-22 0 990.422 -9.0353e-07 3.31333e-05 11.5489 -5.3065e-09 -7.72653e-12)
(-1.07036e-13 2.71141e-22 -5.42282e-22 960.981 1.41089e-05 3.46924e-05 11.3536 -4.76764e-08 -1.0786e-12)
(3.63919e-14 0 0 960.981 -3.23369e-38 3.46922e-05 11.3536 -1.65436e-24 -8.4358e-12)
(-3.58703e-14 1.40943e-23 -5.34509e-22 929.9 -1.68702e-21 3.62056e-05 11.1302 -1.32349e-23 2.78937e-13)
(-1.40284e-13 8.68578e-22 0 929.9 -1.77343e-05 3.62054e-05 11.1302 1.36236e-07 -9.24997e-12)
(-3.58784e-14 7.90273e-22 -5.26848e-22 897.196 6.28073e-06 3.74778e-05 10.8781 -2.50108e-07 1.27523e-13)
(1.43514e-13 4.81482e-35 0 897.196 8.86394e-21 3.74777e-05 10.8781 -9.23096e-35 -9.89263e-12)
(0 2.10637e-19 0 862.93 -1.7174e-21 3.91071e-05 10.5972 2.64698e-23 1.14382e-12)
(0 8.43858e-22 0 862.93 6.85076e-06 3.91071e-05 10.5972 2.02711e-07 -1.03643e-11)
(-3.74506e-14 -4.47873e-22 0 827.161 -1.46159e-05 4.0566e-05 10.287 -1.53644e-07 4.64764e-13)
(1.49802e-13 0 0 827.161 0 4.05659e-05 10.287 0 -1.04974e-11)
(7.64231e-14 5.32109e-22 0 789.943 1.70884e-05 4.20425e-05 9.94725 -3.02009e-08 1.78028e-12)
(1.52846e-13 -5.32109e-22 0 789.943 1.43486e-05 4.20423e-05 9.94725 4.23707e-09 -1.12681e-11)
(6.67448e-14 6.57826e-24 0 751.361 -3.28913e-24 4.35942e-05 9.57826 6.61744e-24 2.08467e-12)
(0 -5.36138e-22 0 751.361 -1.44388e-05 4.3594e-05 9.57826 8.17756e-08 -1.24122e-11)
(-7.25669e-14 2.4508e-22 0 711.506 5.24803e-06 4.49066e-05 9.1801 -2.02065e-07 3.33437e-12)
(3.28941e-14 -5.64237e-37 0 711.506 7.21142e-21 4.49064e-05 9.1801 -1.27544e-37 -1.31187e-11)
(-8.07381e-14 -1.20371e-35 0 670.483 -1.70114e-21 4.63843e-05 8.75341 0 3.04842e-12)
(1.61476e-13 8.60583e-22 0 670.483 1.47426e-06 4.63842e-05 8.75341 1.36172e-07 -1.3701e-11)
(-4.10396e-14 0 0 628.402 -1.50959e-06 4.78381e-05 8.29863 -1.67137e-07 4.40846e-12)
(0 -4.70198e-38 0 628.402 8.56258e-22 4.78379e-05 8.29863 -2.64698e-23 -1.4523e-11)
(-4.16823e-14 6.05452e-20 0 585.379 1.27959e-21 4.92181e-05 7.81654 0 4.53992e-12)
(1.66729e-13 -5.28058e-22 0 585.379 2.21831e-08 4.9218e-05 7.81654 9.93079e-08 -1.5563e-11)
(-4.22952e-14 -3.46993e-22 0 541.539 -1.03984e-05 5.02513e-05 7.3081 -1.49505e-07 5.42668e-12)
(0 2.02413e-22 0 541.539 -3.38012e-21 5.02511e-05 7.3081 -1.32349e-23 -1.59194e-11)
(-8.57527e-14 -6.55538e-22 0 497.028 1.63094e-05 5.12957e-05 6.77482 -9.93934e-08 5.67694e-12)
(-1.71505e-13 1.68215e-19 0 497.028 1.10874e-05 5.12955e-05 6.77482 -6.53817e-08 -1.7119e-11)
(-8.68474e-14 1.46937e-39 -8.9898e-22 452.009 -4.20425e-24 5.26128e-05 6.21827 1.32349e-23 7.22361e-12)
(3.47389e-13 -7.93631e-22 0 452.009 -3.93138e-06 5.26126e-05 6.21827 9.4545e-08 -1.81493e-11)
(-7.23415e-14 -9.96857e-22 0 406.624 -1.57873e-05 5.32607e-05 5.6397 -1.35896e-07 6.59207e-12)
(-2.35207e-13 2.88503e-20 0 406.624 -1.8624e-05 5.32605e-05 5.6397 -1.02004e-07 -1.8521e-11)
(-4.44098e-14 9.27983e-22 -8.73396e-22 361.04 2.17807e-05 5.38825e-05 5.0415 -1.91993e-07 8.72722e-12)
(1.77639e-13 -1.92593e-34 0 361.04 -2.19485e-23 5.38823e-05 5.0415 -3.86478e-34 -2.01535e-11)
(-1.29274e-14 4.59322e-23 0 315.446 -3.38813e-21 5.44427e-05 4.42589 0 8.49672e-12)
(5.77725e-14 -5.11146e-22 0 315.446 -1.95857e-05 5.44426e-05 4.42589 1.99264e-07 -2.09824e-11)
(0 1.06067e-21 0 270.015 1.90327e-05 5.48718e-05 3.79512 -4.68425e-07 1.01024e-11)
(1.80959e-13 0 0 270.015 6.77626e-21 5.48715e-05 3.79512 5.29396e-23 -2.21019e-11)
(0 9.62965e-35 0 224.926 -3.32692e-21 5.50739e-05 3.15187 5.29396e-23 1.01619e-11)
(2.38498e-13 -4.70462e-22 0 224.926 -2.21627e-05 5.50737e-05 3.15187 4.74741e-07 -2.32858e-11)
(-5.53239e-14 -3.09146e-22 -1.64878e-21 180.365 1.22698e-05 5.48491e-05 2.4989 -8.00234e-07 1.19721e-11)
(1.28283e-13 -9.40395e-38 0 180.365 7.38233e-38 5.48489e-05 2.4989 1.05879e-22 -2.46261e-11)
(0 6.20327e-20 0 136.527 -1.09246e-20 5.48445e-05 1.83949 0 1.15563e-11)
(0 1.11729e-21 0 136.527 -1.67279e-06 5.48444e-05 1.83949 6.59325e-07 -2.53909e-11)
(-9.27724e-14 0 0 93.5922 -7.95674e-06 5.4433e-05 1.17635 -8.1987e-07 1.32089e-11)
(0 0 0 93.5922 -1.70498e-20 5.44329e-05 1.17635 0 -2.65851e-11)
(-1.05958e-13 4.38376e-19 0 51.7397 8.40249e-21 5.3996e-05 0.513009 0 1.26385e-11)
(2.92198e-13 -1.08549e-21 0 51.7397 9.41595e-06 5.39958e-05 0.513009 5.22293e-07 -2.72548e-11)
(2.38461e-13 -4.86334e-22 0 0.00839534 -9.63686e-06 5.34929e-05 6.97227e-05 -6.54239e-07 1.45129e-11)
(1.34447e-13 0 -3.11253e-21 0.00838514 1.00782e-20 5.34928e-05 6.9638e-05 1.43483e-37 -2.86752e-11)
(1.26806e-13 1.70147e-19 0 -17.4766 -6.77626e-21 5.28703e-05 0.147252 0 1.40513e-11)
(0 -1.91745e-22 0 -17.4766 6.69963e-06 5.28701e-05 0.147252 3.47487e-07 -2.94935e-11)
(4.64897e-14 -4.72493e-22 0 -65.5953 -1.21983e-05 5.20522e-05 0.801377 -5.23756e-07 1.60448e-11)
(0 1.03016e-18 0 -65.5953 0 5.20521e-05 0.801378 0 -3.10249e-11)
(5.00064e-14 5.93378e-19 1.49031e-21 -101.462 -2.35066e-23 5.13627e-05 1.44617 0 1.50927e-11)
(-5.00064e-14 -5.35579e-22 0 -101.462 1.49206e-05 5.13626e-05 1.44617 1.1795e-07 -3.13905e-11)
(4.92896e-14 3.67237e-22 2.93789e-21 -135.469 -1.55806e-05 5.06949e-05 2.07811 -2.39618e-07 1.63361e-11)
(0 -7.52316e-37 0 -135.47 6.80491e-21 5.06947e-05 2.07811 3.7591e-37 -3.21567e-11)
(-4.30078e-14 2.26233e-22 2.89578e-21 -167.514 1.7588e-05 5.00504e-05 2.69412 -2.19856e-07 1.61383e-11)
(0 8.12891e-19 0 -167.514 7.54342e-07 5.00502e-05 2.69412 -6.73368e-09 -3.32879e-11)
(-4.54842e-14 -2.82119e-37 0 -197.509 -1.31136e-21 4.94442e-05 3.2915 -7.43175e-38 1.86738e-11)
(0 5.29603e-22 0 -197.509 -1.89257e-05 4.9444e-05 3.2915 7.57313e-08 -3.53201e-11)
(4.51359e-14 0 0 -225.38 1.41101e-05 4.87752e-05 3.86752 -5.34525e-07 1.74937e-11)
(-2.27744e-13 2.78349e-22 0 -225.38 1.39175e-22 4.8775e-05 3.86752 0 -3.54818e-11)
(0 3.84135e-23 0 -251.064 -3.77323e-21 4.85071e-05 4.41965 0 2.00537e-11)
(-1.7901e-13 -5.19947e-22 0 -251.064 -6.42275e-06 4.8507e-05 4.41965 3.0986e-07 -3.75077e-11)
(-9.01937e-14 -7.68742e-22 0 -274.533 -3.11759e-06 4.80032e-05 4.94546 -6.31038e-07 1.83943e-11)
(3.54692e-13 0 -2.7333e-21 -274.533 0 4.80031e-05 4.94546 -1.05879e-22 -3.71791e-11)
(-1.31031e-15 4.31787e-19 0 -295.775 0 4.77396e-05 5.44337 2.64698e-23 2.09224e-11)
(2.20759e-13 1.22078e-21 0 -295.775 6.08823e-06 4.77395e-05 5.44337 2.26675e-07 -3.91387e-11)
(0 0 0 -314.789 -1.22805e-06 4.77874e-05 5.91153 -4.87903e-07 1.91487e-11)
(0 9.40395e-37 0 -314.789 6.77626e-21 4.77872e-05 5.91153 5.29396e-23 -3.86902e-11)
(-4.29133e-14 -5.87747e-39 0 -331.603 1.956e-23 4.77413e-05 6.34855 0 2.24506e-11)
(1.71653e-13 -1.18603e-21 0 -331.603 -4.26594e-06 4.77411e-05 6.34855 1.73881e-07 -4.1396e-11)
(-8.56727e-14 -5.64362e-22 0 -346.264 3.48033e-06 4.77747e-05 6.75371 -5.4286e-07 2.03295e-11)
(-1.69554e-13 2.84728e-20 0 -346.264 1.76649e-22 4.77746e-05 6.75371 0 -4.05764e-11)
(4.18423e-14 5.01807e-23 0 -358.83 -2.48678e-21 4.78846e-05 7.1264 0 2.40597e-11)
(1.67369e-13 -5.16539e-22 0 -358.83 -4.07651e-06 4.78844e-05 7.1264 2.13679e-07 -4.36839e-11)
(-4.1277e-14 -1.01827e-21 0 -369.366 6.75518e-07 4.79424e-05 7.46618 -5.9605e-07 2.15943e-11)
(1.65108e-13 -1.03444e-36 0 -369.366 7.70146e-21 4.79422e-05 7.46618 -9.77199e-38 -4.25066e-11)
(-4.06951e-14 -2.93874e-39 0 -377.95 2.2742e-23 4.83564e-05 7.77296 2.64698e-23 2.56705e-11)
(0 0 0 -377.95 5.86641e-06 4.83563e-05 7.77296 1.96711e-07 -4.59423e-11)
(-4.00987e-14 0 0 -384.674 -6.37582e-06 4.88175e-05 8.04675 -4.40729e-07 2.23607e-11)
(0 -3.76158e-37 0 -384.674 3.44474e-21 4.88173e-05 8.04675 5.29396e-23 -4.38959e-11)
(-7.97601e-14 8.3836e-20 0 -389.645 0 4.91748e-05 8.28821 -8.06379e-09 2.77711e-11)
(1.57961e-13 -1.0595e-21 0 -389.645 2.44195e-06 4.91747e-05 8.28821 2.47322e-08 -4.86535e-11)
(3.88713e-14 6.65403e-22 0 -392.974 -6.02145e-06 4.94149e-05 8.49819 -3.49284e-07 2.3264e-11)
(0 1.88079e-37 0 -392.974 4.39247e-23 4.94147e-05 8.49819 -5.29396e-23 -4.53957e-11)
(3.91239e-14 4.00807e-22 0 -394.766 1.62624e-05 4.99637e-05 8.67754 -1.82397e-07 2.97029e-11)
(-3.91239e-14 -5.10118e-22 0 -394.766 1.20386e-05 4.99635e-05 8.67754 -1.49638e-07 -5.11774e-11)
(9.52139e-16 0 0 -395.133 -1.47274e-35 5.06929e-05 8.82714 -3.58219e-08 2.52082e-11)
(-3.85632e-14 -5.29742e-22 0 -395.133 -1.29223e-05 5.06926e-05 8.82714 -3.08416e-09 -4.79132e-11)
(3.80105e-14 1.77e-21 0 -394.203 -1.03999e-06 5.08091e-05 8.94839 -4.28188e-07 3.31024e-11)
(2.95786e-13 0 0 -394.203 -5.0822e-21 5.08091e-05 8.94839 -7.27506e-35 -5.5156e-11)
(-3.74657e-14 1.75001e-19 -4.46626e-21 -392.087 5.98839e-07 5.13854e-05 9.04294 -1.03792e-07 2.49502e-11)
(1.45331e-13 -2.79141e-22 0 -392.087 1.07142e-05 5.13852e-05 9.04294 -7.10866e-08 -4.82205e-11)
(-7.26195e-14 -2.17466e-37 0 -388.895 -1.54735e-21 5.19159e-05 9.11186 -1.3094e-07 3.62704e-11)
(-1.42763e-13 1.58206e-21 0 -388.895 -1.61005e-05 5.19157e-05 9.11186 -9.82474e-08 -5.88985e-11)
(-3.50492e-14 -9.49188e-22 0 -384.744 1.30329e-05 5.23007e-05 9.15679 -4.32091e-07 2.70977e-11)
(-1.76596e-13 1.66291e-22 0 -384.744 4.87406e-21 5.23003e-05 9.15679 -5.29396e-23 -5.09381e-11)
(0 1.8135e-23 0 -379.743 -1.44604e-21 5.29995e-05 9.17949 0 4.07006e-11)
(-3.58777e-14 4.00965e-22 0 -379.743 -6.2095e-06 5.29994e-05 9.17949 1.63339e-07 -6.39121e-11)
(0 -6.58696e-22 0 -374 -5.00265e-06 5.31286e-05 9.18149 -5.36222e-07 2.77559e-11)
(1.35087e-13 4.42715e-19 0 -374 4.94243e-21 5.31283e-05 9.18149 -1.05879e-22 -5.21812e-11)
(-3.65751e-14 1.38673e-19 -8.31047e-21 -367.615 0 5.33807e-05 9.16463 -4.24664e-08 4.50746e-11)
(0 1.85038e-21 0 -367.615 8.06737e-06 5.33807e-05 9.16463 -9.834e-09 -6.88868e-11)
(0 2.78378e-21 0 -360.676 -6.41655e-07 5.39677e-05 9.13034 -2.8266e-07 2.7797e-11)
(2.60075e-13 0 0 -360.676 -5.0822e-21 5.39672e-05 9.13034 -1.37909e-34 -5.28329e-11)
(3.38646e-14 6.01853e-36 0 -353.274 0 5.41444e-05 9.0802 -1.18659e-07 5.15098e-11)
(2.5509e-13 -9.30397e-22 0 -353.274 -6.74624e-06 5.41444e-05 9.0802 -8.60575e-08 -7.59552e-11)
(-6.25392e-14 0 0 -345.493 9.21573e-06 5.4403e-05 9.0159 -3.97041e-07 2.79362e-11)
(0 0 0 -345.493 7.6233e-21 5.44024e-05 9.0159 0 -5.36196e-11)
(-3.066e-14 2.30586e-37 0 -337.41 -8.30773e-22 5.46492e-05 8.93887 1.07857e-52 5.95159e-11)
(2.4528e-13 -5.28563e-22 0 -337.41 -8.46001e-06 5.46493e-05 8.93888 9.11518e-08 -8.46287e-11)
(3.00581e-14 8.4566e-22 0 -329.095 5.6375e-06 5.469e-05 8.85068 -5.62463e-07 2.70056e-11)
(0 3.00927e-36 0 -329.095 1.08379e-20 5.46893e-05 8.85068 -2.34718e-37 -5.33821e-11)
(-2.94644e-14 4.20511e-20 0 -320.609 4.05886e-23 5.49204e-05 8.75271 2.64698e-23 6.9433e-11)
(0 -5.35847e-22 0 -320.609 -1.0144e-06 5.49206e-05 8.75271 1.78769e-07 -9.52611e-11)
(-2.88792e-14 -9.38963e-22 0 -312.012 -3.83387e-06 5.48147e-05 8.64609 -5.30581e-07 2.43676e-11)
(1.15517e-13 6.62478e-22 0 -312.012 -3.52637e-21 5.48139e-05 8.64609 0 -5.14888e-11)
(-5.93578e-14 1.8971e-19 0 -303.356 0 5.46692e-05 8.53228 -2.94148e-08 8.14011e-11)
(1.13212e-13 3.97678e-22 0 -303.356 4.39171e-06 5.46695e-05 8.53228 3.08097e-09 -1.07993e-10)
(-5.54718e-14 0 0 -294.681 3.37844e-06 5.48818e-05 8.41232 -3.40093e-07 1.94891e-11)
(0 0 0 -294.681 -8.53822e-23 5.48807e-05 8.41232 -5.29396e-23 -4.74058e-11)
(-2.71783e-14 8.17786e-36 0 -286.031 0 5.45531e-05 8.28706 -1.43689e-08 9.76075e-11)
(-3.0171e-14 6.60325e-22 0 -286.031 -1.14543e-05 5.45535e-05 8.28706 1.80856e-08 -1.25015e-10)
(5.94771e-14 6.64709e-22 0 -277.443 1.55539e-05 5.43749e-05 8.15776 -5.97811e-07 1.24049e-11)
(-1.06521e-13 9.40395e-38 0 -277.443 0 5.43736e-05 8.15776 -7.94403e-38 -4.11704e-11)
(2.60917e-14 9.92257e-23 0 -268.946 -1.69407e-21 5.40676e-05 8.02523 0 1.18591e-10)
(1.04367e-13 -1.03737e-21 0 -268.946 -1.59871e-05 5.40683e-05 8.02523 3.89909e-07 -1.46865e-10)
(2.55629e-14 8.61055e-22 0 -260.563 1.65704e-05 5.37008e-05 7.89019 -1.00487e-06 1.0025e-12)
(-1.02252e-13 4.56092e-36 0 -260.563 8.20041e-21 5.36991e-05 7.89019 -4.45777e-38 -3.06607e-11)
(-2.50439e-14 0 0 -252.319 -1.96286e-36 5.34368e-05 7.75337 -2.98916e-38 1.45926e-10)
(1.00176e-13 4.24357e-22 0 -252.319 -1.2966e-05 5.34378e-05 7.75337 8.08393e-07 -1.75108e-10)
(0 -1.04569e-21 0 -244.232 1.1382e-05 5.29689e-05 7.61547 -1.34056e-06 -1.66938e-11)
(0 -3.19734e-36 0 -244.232 1.28403e-20 5.29668e-05 7.61547 0 -1.39012e-11)
(-5.53353e-14 -2.35099e-38 -6.59648e-21 -236.317 -8.47033e-22 5.23485e-05 7.47709 0 1.81743e-10)
(9.614e-14 6.1842e-22 0 -236.317 -1.16938e-05 5.235e-05 7.47709 1.08088e-06 -2.11878e-10)
(2.3545e-14 1.01593e-21 0 -228.586 1.20749e-05 5.16182e-05 7.33868 -1.65205e-06 -4.21702e-11)
(0 0 0 -228.586 1.43996e-20 5.16154e-05 7.33868 -1.40988e-37 1.0609e-11)
(0 1.63687e-20 0 -221.046 1.16467e-20 5.11963e-05 7.20076 0 2.29585e-10)
(-9.22579e-14 4.00547e-22 0 -221.046 -4.95335e-06 5.11984e-05 7.20076 1.38264e-06 -2.60702e-10)
(-5.29899e-14 3.94806e-22 -6.31689e-21 -213.704 2.13482e-06 5.04406e-05 7.06355 -1.75999e-06 -7.99798e-11)
(0 -4.13774e-36 0 -213.704 -1.48791e-20 5.0437e-05 7.06355 -2.11758e-22 4.74174e-11)
(-2.61152e-14 1.16751e-19 0 -206.567 0 4.97276e-05 6.92749 0 2.93103e-10)
(0 3.89147e-22 0 -206.567 1.03779e-06 4.97305e-05 6.92749 1.36007e-06 -3.25239e-10)
(2.16789e-14 -2.30142e-21 0 -199.636 -1.98465e-07 4.88849e-05 6.79288 -1.66991e-06 -1.34261e-10)
(0 3.03341e-19 0 -199.636 2.66505e-20 4.88803e-05 6.79288 -2.11758e-22 1.00672e-10)
(2.12352e-14 1.02705e-19 0 -192.911 3.35901e-22 4.78547e-05 6.65994 0 3.78249e-10)
(0 5.67108e-22 0 -192.911 4.03983e-07 4.78588e-05 6.65994 1.24235e-06 -4.1143e-10)
(-4.16008e-14 0 0 -186.392 7.72097e-06 4.71679e-05 6.52877 -1.59511e-06 -2.11777e-10)
(8.32016e-14 0 0 -186.392 -2.41198e-20 4.71617e-05 6.52877 -2.4082e-37 1.77118e-10)
(-2.03743e-14 0 0 -180.075 -8.47033e-22 4.59014e-05 6.3995 0 4.93726e-10)
(0 -5.50968e-22 0 -180.075 -1.24647e-05 4.5907e-05 6.3995 1.3787e-06 -5.27997e-10)
(0 -3.62048e-22 0 -173.957 2.19943e-05 4.50588e-05 6.27227 -1.97607e-06 -3.21015e-10)
(-2.42966e-14 0 0 -173.957 1.35525e-20 4.50507e-05 6.27227 0 2.8525e-10)
(0 4.81482e-35 0 -168.033 1.10359e-21 4.39243e-05 6.14699 0 6.50966e-10)
(0 3.56859e-22 0 -168.033 -2.17029e-05 4.3932e-05 6.14699 2.02005e-06 -6.86363e-10)
(0 -7.03488e-22 -5.6279e-21 -162.299 2.30233e-05 4.25814e-05 6.02376 -2.72349e-06 -4.75211e-10)
(0 1.05324e-35 -1.12558e-20 -162.299 1.93818e-20 4.25707e-05 6.02376 0 4.38279e-10)
(0 3.72205e-22 0 -156.746 -2.43848e-21 4.14061e-05 5.90257 0 8.64032e-10)
(1.26765e-13 3.46703e-22 0 -156.746 -1.53929e-05 4.14167e-05 5.90257 2.71394e-06 -9.00613e-10)
(-3.67384e-14 0 0 -151.369 2.19609e-05 4.03497e-05 5.78322 -3.28334e-06 -6.93525e-10)
(7.34769e-14 -3.76158e-37 0 -151.369 -9.0246e-22 4.03356e-05 5.78322 -4.23516e-22 6.55378e-10)
(4.0597e-14 4.63938e-22 0 -146.163 0 3.87584e-05 5.66578 8.47033e-22 1.15553e-09)
(0 -2.02101e-21 0 -146.163 -2.24846e-05 3.87728e-05 5.66578 3.37487e-06 -1.19333e-09)
(0 -1.32803e-21 0 -141.121 3.05616e-05 3.73064e-05 5.55019 -4.16236e-06 -9.98645e-10)
(-9.27738e-14 2.86615e-21 -1.06242e-20 -141.121 1.14646e-21 3.72876e-05 5.55019 -8.47033e-22 9.59223e-10)
(-1.72619e-14 -1.22251e-36 0 -136.236 -2.41123e-21 3.58145e-05 5.43632 8.47033e-22 1.55521e-09)
(4.70862e-14 -3.92699e-21 0 -136.236 -2.28995e-05 3.58342e-05 5.43632 4.37544e-06 -1.59429e-09)
(0 -1.29024e-21 0 -131.504 3.30405e-05 3.4522e-05 5.32414 -5.12833e-06 -1.42748e-09)
(-2.16466e-14 -1.02503e-35 0 -131.504 3.67183e-20 3.44969e-05 5.32414 9.81572e-38 1.38674e-09)
(2.13363e-14 0 0 -126.92 -4.90136e-21 3.2713e-05 5.2136 8.47033e-22 2.10474e-09)
(0 -1.90762e-21 0 -126.92 -2.92363e-05 3.27397e-05 5.2136 5.48365e-06 -2.14512e-09)
(-1.62225e-14 0 0 -122.48 4.26989e-05 3.1215e-05 5.1047 -6.43851e-06 -2.0272e-09)
(0 1.24609e-35 0 -122.48 4.48951e-20 3.11814e-05 5.1047 0 1.98509e-09)
(9.67697e-15 -2.25695e-36 9.8844e-21 -118.179 -3.86599e-21 2.92459e-05 4.99743 -2.68257e-37 2.86254e-09)
(1.27125e-13 -6.17775e-21 0 -118.179 -3.53357e-05 2.92824e-05 4.99743 6.99592e-06 -2.90424e-09)
(-2.0432e-14 0 0 -114.011 5.2395e-05 2.76854e-05 4.89167 -8.12397e-06 -2.86644e-09)
(0 0 -9.74273e-21 -114.011 4.49221e-21 2.76403e-05 4.89167 -1.69407e-21 2.82293e-09)
(-2.01391e-14 3.11123e-35 -9.60309e-21 -109.972 -5.6047e-20 2.56822e-05 4.78738 4.3177e-51 3.91003e-09)
(0 1.20039e-21 0 -109.972 -4.09593e-05 2.57318e-05 4.78738 8.92953e-06 -3.95306e-09)
(-2.49616e-14 2.36636e-21 9.46546e-21 -106.055 6.25848e-05 2.421e-05 4.68449 -1.02115e-05 -4.04093e-09)
(1.19499e-13 -9.62965e-35 0 -106.055 -1.13021e-20 2.41493e-05 4.68449 -1.19611e-34 3.99599e-09)
(0 9.62965e-35 0 -102.255 0 2.20311e-05 4.58285 1.69407e-21 5.3614e-09)
(1.17068e-13 -9.32979e-21 0 -102.255 -4.93134e-05 2.20986e-05 4.58285 1.13169e-05 -5.40575e-09)
(-1.43364e-14 2.23754e-22 0 -98.5686 7.61628e-05 2.04677e-05 4.48241 -1.12658e-05 -5.68435e-09)
(-1.92856e-14 1.78285e-21 0 -98.5686 8.84466e-20 2.03858e-05 4.48241 0 5.63791e-09)
(1.4046e-14 1.98274e-21 0 -94.9887 -4.81352e-34 1.80137e-05 4.38305 1.69407e-21 7.37616e-09)
(1.12368e-13 -9.06427e-21 0 -94.9887 -5.84092e-05 1.81056e-05 4.38305 1.43184e-05 -7.42183e-09)
(0 0 0 -91.5107 9.67289e-05 1.67143e-05 4.28465 -9.90988e-06 -7.98553e-09)
(5.50495e-14 0 0 -91.5107 8.5872e-20 1.66036e-05 4.28465 -1.79892e-34 7.93749e-09)
(3.19535e-14 5.06185e-21 0 -88.1302 -9.82965e-20 1.40815e-05 4.1871 0 1.01802e-08)
(-1.84682e-14 0 0 -88.1302 -7.52673e-05 1.42066e-05 4.1871 1.82684e-05 -1.02272e-08)
(2.643e-14 -3.60745e-21 0 -84.8431 0.00012256 1.27612e-05 4.09032 -7.75835e-06 -1.12091e-08)
(5.28599e-14 0 -8.68008e-21 -84.8431 1.21973e-19 1.26112e-05 4.09032 0 1.11593e-08)
(-1.79426e-14 1.55627e-34 5.49456e-20 -81.6457 1.29965e-20 5.29693e-06 3.99422 3.38813e-21 1.40898e-08)
(0 0 -9.02336e-21 -81.6457 -9.0096e-05 1.0232e-05 3.99422 2.34434e-05 -1.41381e-08)
(1.76854e-14 0 8.43305e-21 -78.535 0.000148931 8.8901e-06 3.89877 -4.49757e-06 -1.57302e-08)
(5.07755e-14 3.00927e-36 0 -78.535 3.14188e-19 8.68553e-06 3.89877 3.38813e-21 1.56788e-08)
(2.48862e-14 1.65766e-20 1.29301e-19 -75.5081 -3.52366e-19 0 3.80388 0 0)
(0 0 0 -75.5081 -0.000107192 3.14798e-06 3.80388 2.98926e-05 -1.96256e-08)
(2.93809e-14 -9.36449e-21 8.19305e-21 -72.5625 1.98111e-19 4.76593e-06 3.70956 0 -2.21038e-08)
(3.16131e-14 -1.96953e-18 0 -72.5625 1.30423e-05 4.48808e-06 3.70956 -3.29192e-07 2.20506e-08)
(1.69358e-14 1.05682e-20 1.41094e-20 -69.6958 -4.06576e-19 4.23516e-22 3.61576 0 0)
(3.09078e-14 -1.61512e-20 0 -69.6959 -0.000128852 1.62089e-06 3.61576 3.81066e-05 -2.72965e-08)
(-1.17294e-14 7.52316e-37 0 -66.9062 0 5.85045e-07 3.52246 -6.77626e-21 -3.10543e-08)
(-4.69178e-14 1.97968e-20 0 -66.9062 0.000125016 2.06783e-07 3.52246 -7.27744e-06 3.09989e-08)
(-2.79582e-14 -1.57986e-34 -1.21958e-37 -64.1921 -2.82642e-19 -2.21123e-22 3.42967 -6.77626e-21 -1.46338e-39)
(0 0 0 -64.1921 -0.000156067 -2.91084e-06 3.42968 4.85916e-05 -3.80438e-08)
(-1.12856e-14 -5.86807e-35 0 -61.5531 2.71051e-19 -3.72237e-06 3.33742 -6.77626e-21 -4.36419e-08)
(-4.51422e-14 2.08642e-20 0 -61.5531 0.000153529 -4.23919e-06 3.33742 -1.71839e-05 4.35843e-08)
(0 3.85186e-34 0 -58.9897 0 0 3.24581 0 6.61744e-24)
(0 0 0 -58.9897 -0.000187616 -7.57067e-06 3.24581 6.20031e-05 -5.31521e-08)
(1.57564e-14 -9.6994e-21 0 -56.5037 5.42101e-20 -8.19306e-06 3.15499 -1.35525e-20 -6.13945e-08)
(7.11774e-14 -4.29494e-20 0 -56.5037 0.000184946 -8.9007e-06 3.15499 -3.11755e-05 6.13345e-08)
(-1.06665e-14 3.00927e-36 -2.93874e-39 -54.0985 0 0 3.0652 3.04176e-36 1.32349e-23)
(4.2666e-14 0 0 -54.0985 -0.000220779 -1.06555e-05 3.0652 7.89987e-05 -7.44363e-08)
(-1.5308e-14 -1.23372e-20 -1.45989e-20 -51.7786 4.87891e-19 -1.24844e-05 2.9768 0 -8.64767e-08)
(-4.18889e-14 2.11266e-20 0 -51.7786 0.0002198 -1.34555e-05 2.9768 -5.08103e-05 8.64142e-08)
(-1.50886e-14 4.99538e-34 5.40727e-37 -49.5499 -9.13716e-19 -9.50514e-22 2.89019 -1.16007e-35 2.64698e-23)
(0 2.87792e-20 -5.78226e-20 -49.5499 -0.000263256 -1.45345e-05 2.8902 0.00010042 -1.04489e-07)
(-4.77167e-15 3.48499e-35 -1.41834e-20 -47.4186 6.278e-20 -1.68159e-05 2.80591 -1.35525e-20 -1.21983e-07)
(4.04027e-14 -1.93293e-20 0 -47.4186 0.000268337 -1.81516e-05 2.80591 -7.82433e-05 1.21918e-07)
(1.46592e-14 0 4.81482e-35 -45.3901 -7.09976e-20 -8.15787e-23 2.72445 0 0)