/*--------------------------------*- C++ -*----------------------------------*\
| =========                 |                                                 |
| \\      /  F ield         | OpenFOAM: The Open Source CFD Toolbox           |
|  \\    /   O peration     | Version:  2012                                  |
|   \\  /    A nd           | Website:  www.openfoam.com                      |
|    \\/     M anipulation  |                                                 |
\*---------------------------------------------------------------------------*/
FoamFile
{
    version     2.0;
    format      ascii;
    class       volScalarField;
    location    "14400";
    object      omega;
}
// * * * * * * * * * * * * * * * * * * * * * * * * * * * * * * * * * * * * * //

dimensions      [0 0 -1 0 0 0 0];


internalField   nonuniform List<scalar> 
2560
(
1.52416e+06
1.52416e+06
264700
264700
88462.4
88462.4
41106.8
41106.8
24257.4
24257.4
17022.9
17022.9
13284.4
13284.4
11051.9
11051.9
9576.72
9576.72
8530.22
8530.22
7748.61
7748.61
7141.84
7141.84
6656.47
6656.47
6258.83
6258.83
5926.63
5926.63
5644.55
5644.55
5401.69
5401.69
5190.08
5190.08
5003.73
5003.73
4838.09
4838.09
4689.6
4689.6
4555.44
4555.44
4433.35
4433.35
4321.49
4321.49
4218.34
4218.34
4122.64
4122.64
4033.33
4033.33
3949.5
3949.5
3870.4
3870.4
3795.36
3795.36
3723.79
3723.79
3655.21
3655.21
3589.16
3589.16
3525.27
3525.27
3463.18
3463.18
3402.61
3402.61
3343.28
3343.28
3284.95
3284.95
3227.42
3227.42
3170.51
3170.51
3114.05
3114.05
3057.91
3057.91
3001.96
3001.96
2946.12
2946.12
2890.3
2890.3
2834.45
2834.45
2778.51
2778.51
2722.46
2722.46
2666.29
2666.29
2610.01
2610.01
2553.63
2553.63
2497.2
2497.2
2440.75
2440.75
2384.36
2384.36
2328.11
2328.11
2272.07
2272.07
2216.36
2216.36
2161.08
2161.08
2106.35
2106.35
2052.3
2052.3
1999.05
1999.05
1946.75
1946.75
1895.53
1895.53
1845.51
1845.51
1796.85
1796.85
1749.64
1749.64
1704.03
1704.03
1660.09
1660.09
1617.93
1617.93
1577.62
1577.62
1539.21
1539.21
1502.73
1502.73
1468.19
1468.19
1435.6
1435.6
1404.91
1404.91
1376.08
1376.08
1349.04
1349.04
1323.71
1323.71
1299.99
1299.99
1277.77
1277.77
1256.93
1256.93
1237.35
1237.35
1218.9
1218.9
1201.46
1201.46
1184.91
1184.91
1169.12
1169.12
1153.98
1153.98
1139.39
1139.39
1125.24
1125.24
1111.45
1111.45
1097.93
1097.93
1084.61
1084.61
1071.42
1071.42
1058.32
1058.32
1045.25
1045.25
1032.17
1032.17
1019.06
1019.06
1005.88
1005.88
992.621
992.621
979.268
979.268
965.813
965.813
952.252
952.252
938.583
938.583
924.811
924.811
910.94
910.94
896.98
896.98
882.938
882.938
868.828
868.828
854.66
854.66
840.449
840.449
826.206
826.206
811.947
811.947
797.685
797.685
783.433
783.433
769.206
769.206
755.015
755.015
740.875
740.875
726.796
726.796
712.791
712.791
698.871
698.871
685.044
685.044
671.323
671.323
657.714
657.714
644.226
644.226
630.868
630.868
617.645
617.645
604.564
604.564
591.63
591.63
578.85
578.85
566.227
566.227
553.765
553.765
541.468
541.468
529.339
529.339
517.381
517.381
505.596
505.596
493.986
493.986
482.553
482.553
471.298
471.298
460.222
460.222
449.327
449.327
438.612
438.612
428.078
428.078
417.725
417.725
407.553
407.553
397.561
397.561
387.75
387.75
378.119
378.119
368.667
368.667
359.394
359.394
350.298
350.298
341.379
341.379
332.637
332.637
324.069
324.069
315.676
315.676
307.455
307.455
299.407
299.407
291.529
291.529
283.821
283.821
276.281
276.281
268.908
268.908
261.701
261.701
254.657
254.657
247.776
247.776
241.056
241.056
234.493
234.493
228.087
228.087
221.835
221.835
215.733
215.733
209.78
209.78
203.972
203.972
198.308
198.308
192.783
192.783
187.396
187.396
182.143
182.143
177.023
177.023
172.032
172.032
167.168
167.168
162.43
162.43
157.814
157.814
153.32
153.32
148.944
148.944
144.685
144.685
140.54
140.54
136.507
136.507
132.585
132.585
128.771
128.771
125.063
125.063
121.459
121.459
117.956
117.956
114.553
114.553
111.248
111.248
108.037
108.037
104.921
104.921
101.896
101.896
98.9623
98.9622
96.1169
96.1169
93.3589
93.3588
90.6866
90.6866
88.0989
88.0988
85.5941
85.5941
83.171
83.1709
80.828
80.828
78.5637
78.5637
76.3764
76.3764
74.2644
74.2644
72.2259
72.2259
70.2588
70.2588
68.3613
68.3612
66.5311
66.5311
64.7663
64.7663
63.0649
63.0649
61.425
61.425
59.8447
59.8446
58.3218
58.3218
56.8545
56.8545
55.4405
55.4404
54.0775
54.0774
52.763
52.763
51.4946
51.4946
50.2696
50.2696
49.0853
49.0853
47.9389
47.9389
46.828
46.828
45.7505
45.7504
44.7044
44.7044
43.6884
43.6884
42.7012
42.7012
41.7417
41.7416
40.8084
40.8084
39.9
39.8999
39.0145
39.0145
38.1503
38.1503
37.3057
37.3056
36.4792
36.4791
35.6696
35.6696
34.8761
34.8761
34.0979
34.0979
33.3346
33.3346
32.5861
32.5861
31.8527
31.8527
31.1349
31.1348
30.4328
30.4328
29.7468
29.7467
29.0763
29.0762
28.4204
28.4204
27.7779
27.7779
27.1468
27.1468
26.525
26.525
25.9099
25.9099
25.2994
25.2994
24.6921
24.6921
24.0879
24.0879
23.4876
23.4876
22.8931
22.8932
22.3068
22.3068
21.7309
21.731
21.1674
21.1674
20.6169
20.6169
20.0793
20.0794
19.5542
19.5543
19.042
19.042
18.5434
18.5433
18.0594
18.0593
17.5912
17.5911
17.1404
17.1403
16.708
16.7079
16.2948
16.2947
15.901
15.901
15.5268
15.5268
15.1721
15.172
14.8366
14.8365
14.5199
14.5199
14.2215
14.2214
13.9403
13.9403
13.675
13.6749
13.4237
13.4237
13.1845
13.1845
12.9549
12.9549
12.7324
12.7324
12.5145
12.5145
12.2991
12.2991
12.0845
12.0845
11.8686
11.8686
11.6492
11.6492
11.4243
11.4242
11.1927
11.1926
10.9549
10.9548
10.7126
10.7126
10.4684
10.4683
10.2256
10.2256
9.9885
9.98845
9.76088
9.76083
9.54493
9.54489
9.34128
9.34124
9.14989
9.14985
8.97077
8.97073
8.80397
8.80394
8.64956
8.64953
8.50757
8.50754
8.37789
8.37786
8.26004
8.26002
8.15297
8.15295
8.05519
8.05518
7.96512
7.96511
7.88093
7.88092
7.79999
7.79999
7.71889
7.71888
7.63462
7.6346
7.54581
7.54579
7.45337
7.45334
7.3599
7.35986
7.26822
7.26818
7.18043
7.18039
7.09831
7.09827
7.02396
7.02393
6.95953
6.95952
6.90643
6.90643
6.86531
6.86531
6.83667
6.83669
6.82162
6.82164
1.52416e+06
1.52416e+06
264700
264700
88462.4
88462.4
41106.8
41106.8
24257.4
24257.4
17022.9
17022.9
13284.4
13284.4
11051.9
11051.9
9576.72
9576.72
8530.22
8530.22
7748.61
7748.61
7141.84
7141.84
6656.47
6656.47
6258.83
6258.83
5926.63
5926.63
5644.55
5644.55
5401.69
5401.69
5190.08
5190.08
5003.73
5003.73
4838.09
4838.09
4689.6
4689.6
4555.44
4555.44
4433.35
4433.35
4321.49
4321.49
4218.34
4218.34
4122.64
4122.64
4033.33
4033.33
3949.5
3949.5
3870.4
3870.4
3795.36
3795.36
3723.79
3723.79
3655.21
3655.21
3589.16
3589.16
3525.27
3525.27
3463.18
3463.18
3402.61
3402.61
3343.28
3343.28
3284.95
3284.95
3227.42
3227.42
3170.51
3170.51
3114.05
3114.05
3057.91
3057.91
3001.96
3001.96
2946.12
2946.12
2890.3
2890.3
2834.45
2834.45
2778.51
2778.51
2722.46
2722.46
2666.29
2666.29
2610.01
2610.01
2553.63
2553.63
2497.2
2497.2
2440.75
2440.75
2384.36
2384.36
2328.11
2328.11
2272.07
2272.07
2216.36
2216.36
2161.08
2161.08
2106.35
2106.35
2052.3
2052.3
1999.05
1999.05
1946.75
1946.75
1895.53
1895.53
1845.51
1845.51
1796.85
1796.85
1749.64
1749.64
1704.03
1704.03
1660.09
1660.09
1617.93
1617.93
1577.62
1577.62
1539.21
1539.21
1502.73
1502.73
1468.19
1468.19
1435.6
1435.6
1404.91
1404.91
1376.08
1376.08
1349.04
1349.04
1323.71
1323.71
1299.99
1299.99
1277.77
1277.77
1256.93
1256.93
1237.35
1237.35
1218.9
1218.9
1201.46
1201.46
1184.91
1184.91
1169.12
1169.12
1153.98
1153.98
1139.39
1139.39
1125.24
1125.24
1111.45
1111.45
1097.93
1097.93
1084.61
1084.61
1071.42
1071.42
1058.32
1058.32
1045.25
1045.25
1032.17
1032.17
1019.06
1019.06
1005.88
1005.88
992.621
992.621
979.268
979.268
965.813
965.813
952.252
952.252
938.583
938.583
924.811
924.811
910.94
910.94
896.98
896.98
882.938
882.938
868.828
868.828
854.66
854.66
840.449
840.449
826.206
826.206
811.947
811.947
797.685
797.685
783.433
783.433
769.206
769.206
755.015
755.015
740.875
740.875
726.796
726.796
712.791
712.791
698.871
698.871
685.044
685.044
671.323
671.323
657.714
657.714
644.226
644.226
630.868
630.868
617.645
617.645
604.564
604.564
591.63
591.63
578.85
578.85
566.226
566.227
553.765
553.765
541.468
541.468
529.339
529.339
517.38
517.381
505.596
505.596
493.986
493.986
482.553
482.553
471.298
471.298
460.222
460.222
449.327
449.327
438.612
438.612
428.078
428.078
417.725
417.725
407.553
407.553
397.561
397.561
387.75
387.75
378.119
378.119
368.667
368.667
359.394
359.394
350.298
350.298
341.379
341.379
332.637
332.637
324.069
324.069
315.676
315.676
307.455
307.455
299.407
299.407
291.529
291.529
283.821
283.821
276.281
276.281
268.908
268.908
261.701
261.701
254.657
254.657
247.776
247.776
241.056
241.056
234.493
234.493
228.087
228.087
221.835
221.835
215.733
215.733
209.78
209.78
203.972
203.972
198.308
198.308
192.783
192.783
187.396
187.396
182.143
182.143
177.023
177.023
172.032
172.032
167.168
167.168
162.43
162.43
157.814
157.814
153.32
153.32
148.944
148.944
144.685
144.685
140.54
140.54
136.507
136.507
132.585
132.585
128.771
128.771
125.063
125.063
121.459
121.459
117.956
117.956
114.553
114.553
111.248
111.248
108.037
108.037
104.921
104.921
101.896
101.896
98.9622
98.9623
96.1169
96.1169
93.3588
93.3589
90.6866
90.6866
88.0988
88.0988
85.5941
85.5941
83.1709
83.171
80.828
80.828
78.5637
78.5637
76.3764
76.3764
74.2644
74.2644
72.2259
72.2259
70.2588
70.2588
68.3612
68.3613
66.5311
66.5311
64.7663
64.7663
63.0649
63.0649
61.425
61.425
59.8446
59.8447
58.3218
58.3219
56.8545
56.8545
55.4405
55.4405
54.0774
54.0775
52.763
52.763
51.4946
51.4947
50.2696
50.2697
49.0853
49.0853
47.9389
47.939
46.828
46.8281
45.7505
45.7505
44.7044
44.7044
43.6884
43.6884
42.7012
42.7013
41.7417
41.7417
40.8085
40.8085
39.9
39.9
39.0146
39.0146
38.1504
38.1504
37.3057
37.3057
36.4792
36.4792
35.6697
35.6697
34.8761
34.8762
34.0979
34.098
33.3346
33.3347
32.5862
32.5862
31.8528
31.8528
31.1349
31.1349
30.4329
30.4329
29.7468
29.7468
29.0763
29.0763
28.4205
28.4205
27.778
27.778
27.1469
27.1469
26.525
26.525
25.9099
25.9099
25.2994
25.2994
24.6921
24.6921
24.0879
24.0879
23.4877
23.4876
22.8932
22.8932
22.3068
22.3068
21.731
21.731
21.1675
21.1674
20.6169
20.6169
20.0794
20.0793
19.5543
19.5542
19.042
19.042
18.5433
18.5434
18.0593
18.0594
17.5911
17.5912
17.1403
17.1404
16.7079
16.708
16.2947
16.2948
15.901
15.9011
15.5268
15.5268
15.172
15.1721
14.8365
14.8366
14.5199
14.5199
14.2215
14.2215
13.9403
13.9403
13.675
13.675
13.4237
13.4238
13.1845
13.1845
12.955
12.955
12.7324
12.7325
12.5145
12.5145
12.2991
12.2992
12.0845
12.0845
11.8686
11.8686
11.6492
11.6493
11.4242
11.4243
11.1926
11.1926
10.9548
10.9549
10.7125
10.7126
10.4683
10.4684
10.2255
10.2256
9.98843
9.98848
9.76081
9.76086
9.54487
9.54492
9.34123
9.34127
9.14985
9.14989
8.97073
8.97076
8.80394
8.80398
8.64953
8.64956
8.50755
8.50758
8.37788
8.3779
8.26004
8.26006
8.15297
8.15299
8.0552
8.05521
7.96512
7.96514
7.88094
7.88095
7.8
7.80001
7.71889
7.7189
7.63461
7.63462
7.54579
7.54581
7.45333
7.45337
7.35985
7.35989
7.26816
7.2682
7.18038
7.18042
7.09826
7.09829
7.02392
7.02394
6.9595
6.95951
6.90642
6.90642
6.8653
6.8653
6.83668
6.83667
6.82164
6.82162
6.82159
6.8216
6.83658
6.83659
6.86512
6.86513
6.9061
6.9061
6.95907
6.95906
7.02333
7.02331
7.09747
7.09744
7.17942
7.17938
7.26684
7.2668
7.35793
7.35789
7.45083
7.4508
7.54283
7.54281
7.63132
7.63131
7.71548
7.71547
7.79679
7.79678
7.87814
7.87813
7.96276
7.96274
8.0532
8.05318
8.15128
8.15126
8.25863
8.25861
8.3768
8.37677
8.50682
8.50679
8.64915
8.64912
8.80389
8.80385
8.97099
8.97096
9.15042
9.15038
9.3421
9.34206
9.54603
9.54599
9.76226
9.76221
9.99014
9.99009
10.2275
10.2275
10.4706
10.4705
10.7149
10.7149
10.957
10.957
11.1944
11.1944
11.4254
11.4254
11.6498
11.6498
11.8688
11.8687
12.0843
12.0843
12.2987
12.2987
12.514
12.5139
12.7317
12.7317
12.9541
12.954
13.1834
13.1834
13.4224
13.4224
13.6735
13.6734
13.9386
13.9386
14.2197
14.2196
14.518
14.518
14.8346
14.8345
15.1701
15.17
15.5248
15.5247
15.899
15.8989
16.2927
16.2926
16.7059
16.7058
17.1383
17.1382
17.5891
17.589
18.0573
18.0572
18.5413
18.5413
19.04
19.04
19.5524
19.5525
20.0775
20.0776
20.6151
20.6152
21.1655
21.1656
21.7289
21.7289
22.3044
22.3045
22.8906
22.8907
23.4851
23.4851
24.0853
24.0853
24.6894
24.6894
25.2963
25.2963
25.9066
25.9066
26.5217
26.5217
27.1438
27.1438
27.7752
27.7752
28.4183
28.4182
29.0747
29.0747
29.7457
29.7457
30.4322
30.4321
31.1342
31.1342
31.852
31.852
32.5852
32.5852
33.3334
33.3334
34.0965
34.0965
34.8746
34.8746
35.6679
35.6679
36.4774
36.4774
37.304
37.304
38.1487
38.1487
39.013
39.013
39.8986
39.8986
40.8074
40.8074
41.741
41.741
42.7011
42.7011
43.6889
43.6888
44.7053
44.7053
45.7516
45.7516
46.8294
46.8293
47.9403
47.9403
49.0868
49.0867
50.2712
50.2712
51.4963
51.4963
52.7648
52.7647
54.0792
54.0792
55.4421
55.4421
56.8559
56.8558
58.3229
58.3229
59.8454
59.8454
61.4255
61.4254
63.0651
63.065
64.7663
64.7662
66.531
66.5309
68.3611
68.3611
70.2587
70.2587
72.2258
72.2257
74.2643
74.2643
76.3764
76.3764
78.5638
78.5637
80.8282
80.8281
83.1712
83.1711
85.5943
85.5943
88.099
88.099
90.6868
90.6867
93.359
93.3589
96.117
96.117
98.9624
98.9623
101.896
101.896
104.921
104.921
108.037
108.037
111.247
111.247
114.553
114.553
117.956
117.956
121.459
121.459
125.063
125.063
128.771
128.771
132.585
132.585
136.507
136.507
140.539
140.539
144.684
144.684
148.943
148.943
153.319
153.319
157.813
157.813
162.429
162.429
167.167
167.167
172.03
172.03
177.021
177.021
182.142
182.142
187.394
187.394
192.781
192.781
198.306
198.306
203.971
203.971
209.778
209.778
215.731
215.731
221.833
221.833
228.085
228.085
234.491
234.491
241.054
241.054
247.774
247.774
254.655
254.655
261.698
261.698
268.905
268.905
276.278
276.278
283.818
283.818
291.526
291.526
299.403
299.403
307.452
307.452
315.672
315.672
324.065
324.065
332.633
332.633
341.375
341.375
350.294
350.294
359.389
359.389
368.663
368.663
378.115
378.115
387.746
387.746
397.557
397.557
407.548
407.548
417.72
417.72
428.074
428.074
438.608
438.608
449.323
449.323
460.219
460.219
471.295
471.295
482.55
482.55
493.983
493.983
505.592
505.592
517.377
517.377
529.335
529.335
541.464
541.464
553.76
553.76
566.222
566.222
578.845
578.845
591.626
591.626
604.559
604.559
617.639
617.639
630.862
630.862
644.22
644.22
657.706
657.706
671.314
671.314
685.035
685.035
698.859
698.859
712.778
712.778
726.781
726.781
740.857
740.857
754.995
754.995
769.182
769.182
783.407
783.407
797.657
797.657
811.919
811.918
826.177
826.177
840.418
840.418
854.629
854.629
868.797
868.797
882.906
882.906
896.947
896.947
910.907
910.907
924.776
924.776
938.546
938.546
952.214
952.214
965.775
965.775
979.23
979.23
992.582
992.582
1005.84
1005.84
1019.02
1019.02
1032.13
1032.13
1045.21
1045.21
1058.28
1058.28
1071.38
1071.38
1084.56
1084.56
1097.86
1097.86
1111.37
1111.37
1125.16
1125.16
1139.3
1139.3
1153.89
1153.89
1169.02
1169.02
1184.8
1184.8
1201.35
1201.35
1218.78
1218.78
1237.22
1237.22
1256.79
1256.79
1277.62
1277.62
1299.84
1299.84
1323.55
1323.55
1348.88
1348.88
1375.91
1375.91
1404.73
1404.73
1435.42
1435.42
1468.01
1468.01
1502.54
1502.54
1539.01
1539.01
1577.42
1577.42
1617.73
1617.73
1659.89
1659.89
1703.82
1703.82
1749.44
1749.44
1796.64
1796.64
1845.31
1845.31
1895.33
1895.33
1946.55
1946.55
1998.86
1998.86
2052.1
2052.1
2106.16
2106.16
2160.9
2160.9
2216.2
2216.2
2271.92
2271.92
2327.97
2327.97
2384.25
2384.25
2440.66
2440.66
2497.13
2497.13
2553.59
2553.59
2609.98
2609.98
2666.28
2666.28
2722.48
2722.48
2778.55
2778.55
2834.51
2834.51
2890.39
2890.39
2946.23
2946.23
3002.09
3002.09
3058.06
3058.06
3114.22
3114.22
3170.7
3170.7
3227.63
3227.63
3285.17
3285.17
3343.5
3343.5
3402.84
3402.84
3463.42
3463.42
3525.51
3525.51
3589.41
3589.41
3655.46
3655.46
3724.05
3724.05
3795.61
3795.61
3870.67
3870.67
3949.78
3949.78
4033.61
4033.61
4122.92
4122.92
4218.63
4218.63
4321.78
4321.78
4433.64
4433.64
4555.73
4555.73
4689.89
4689.89
4838.37
4838.37
5004.01
5004.01
5190.35
5190.35
5401.96
5401.96
5644.82
5644.82
5926.89
5926.89
6259.08
6259.08
6656.72
6656.72
7142.08
7142.08
7748.85
7748.85
8530.45
8530.45
9576.94
9576.94
11052.1
11052.1
13284.6
13284.6
17023
17023
24257.5
24257.5
41106.9
41106.9
88462.6
88462.6
264701
264701
1.52417e+06
1.52417e+06
6.8216
6.82159
6.83659
6.83658
6.86513
6.86512
6.9061
6.9061
6.95906
6.95908
7.02332
7.02334
7.09745
7.09748
7.17939
7.17942
7.2668
7.26684
7.3579
7.35794
7.4508
7.45083
7.54281
7.54284
7.63131
7.63132
7.71547
7.71548
7.79677
7.79678
7.87813
7.87814
7.96274
7.96275
8.05317
8.05319
8.15125
8.15127
8.2586
8.25863
8.37677
8.37679
8.50678
8.50681
8.64911
8.64915
8.80385
8.80389
8.97096
8.971
9.15038
9.15042
9.34206
9.3421
9.546
9.54604
9.76222
9.76227
9.99011
9.99015
10.2275
10.2276
10.4705
10.4706
10.7149
10.7149
10.957
10.957
11.1944
11.1944
11.4254
11.4254
11.6498
11.6498
11.8687
11.8688
12.0843
12.0843
12.2987
12.2987
12.5139
12.5139
12.7317
12.7317
12.954
12.954
13.1834
13.1834
13.4224
13.4224
13.6734
13.6735
13.9386
13.9386
14.2196
14.2197
14.5179
14.518
14.8345
14.8346
15.17
15.1701
15.5247
15.5248
15.8989
15.899
16.2926
16.2927
16.7058
16.7059
17.1382
17.1383
17.589
17.5892
18.0572
18.0573
18.5413
18.5413
19.0401
19.0401
19.5525
19.5524
20.0776
20.0776
20.6152
20.6151
21.1656
21.1655
21.729
21.7289
22.3045
22.3045
22.8907
22.8907
23.4852
23.4851
24.0854
24.0853
24.6894
24.6894
25.2964
25.2964
25.9067
25.9067
26.5218
26.5218
27.1438
27.1438
27.7752
27.7752
28.4182
28.4183
29.0747
29.0747
29.7457
29.7457
30.4321
30.4321
31.1342
31.1342
31.8519
31.852
32.5851
32.5851
33.3333
33.3334
34.0965
34.0965
34.8745
34.8745
35.6678
35.6679
36.4773
36.4773
37.3039
37.3039
38.1486
38.1486
39.0129
39.0129
39.8985
39.8985
40.8073
40.8073
41.7409
41.7409
42.701
42.701
43.6887
43.6888
44.7051
44.7052
45.7515
45.7515
46.8292
46.8292
47.9402
47.9402
49.0866
49.0867
50.2711
50.2711
51.4962
51.4962
52.7646
52.7647
54.0791
54.0791
55.442
55.442
56.8557
56.8558
58.3228
58.3228
59.8453
59.8453
61.4253
61.4254
63.0649
63.065
64.7661
64.7662
66.5308
66.5309
68.361
68.361
70.2586
70.2586
72.2257
72.2257
74.2642
74.2642
76.3763
76.3763
78.5637
78.5637
80.828
80.8281
83.1711
83.1711
85.5942
85.5942
88.0989
88.099
90.6867
90.6867
93.3589
93.3589
96.1169
96.117
98.9623
98.9623
101.896
101.896
104.921
104.921
108.037
108.037
111.247
111.247
114.553
114.553
117.956
117.956
121.459
121.459
125.063
125.063
128.771
128.771
132.585
132.585
136.507
136.507
140.539
140.539
144.683
144.684
148.943
148.943
153.319
153.319
157.813
157.813
162.428
162.429
167.167
167.167
172.03
172.03
177.021
177.021
182.142
182.142
187.394
187.394
192.781
192.781
198.306
198.306
203.97
203.97
209.778
209.778
215.731
215.731
221.833
221.833
228.085
228.085
234.491
234.491
241.054
241.054
247.774
247.774
254.655
254.655
261.698
261.698
268.905
268.905
276.278
276.278
283.818
283.818
291.526
291.526
299.403
299.403
307.452
307.452
315.672
315.672
324.065
324.065
332.633
332.633
341.375
341.375
350.294
350.294
359.389
359.389
368.663
368.663
378.115
378.115
387.746
387.746
397.557
397.557
407.548
407.548
417.72
417.72
428.074
428.074
438.608
438.608
449.323
449.323
460.219
460.219
471.295
471.295
482.55
482.55
493.983
493.983
505.592
505.592
517.377
517.377
529.335
529.335
541.464
541.464
553.76
553.76
566.222
566.222
578.845
578.845
591.626
591.626
604.559
604.559
617.639
617.639
630.862
630.862
644.22
644.22
657.706
657.706
671.314
671.314
685.034
685.034
698.859
698.859
712.778
712.778
726.781
726.781
740.857
740.857
754.995
754.995
769.182
769.182
783.407
783.407
797.657
797.657
811.918
811.918
826.177
826.177
840.418
840.418
854.629
854.629
868.796
868.796
882.906
882.906
896.947
896.947
910.907
910.907
924.776
924.776
938.546
938.546
952.214
952.214
965.775
965.775
979.229
979.229
992.582
992.582
1005.84
1005.84
1019.02
1019.02
1032.13
1032.13
1045.21
1045.21
1058.28
1058.28
1071.38
1071.38
1084.56
1084.56
1097.86
1097.86
1111.37
1111.37
1125.16
1125.16
1139.3
1139.3
1153.89
1153.89
1169.02
1169.02
1184.8
1184.8
1201.35
1201.35
1218.78
1218.78
1237.22
1237.22
1256.79
1256.79
1277.62
1277.62
1299.84
1299.84
1323.55
1323.55
1348.88
1348.88
1375.91
1375.91
1404.73
1404.73
1435.42
1435.42
1468.01
1468.01
1502.54
1502.54
1539.01
1539.01
1577.42
1577.42
1617.73
1617.73
1659.89
1659.89
1703.82
1703.82
1749.44
1749.44
1796.64
1796.64
1845.31
1845.31
1895.33
1895.33
1946.55
1946.55
1998.86
1998.86
2052.1
2052.1
2106.16
2106.16
2160.9
2160.9
2216.2
2216.2
2271.92
2271.92
2327.97
2327.97
2384.25
2384.25
2440.66
2440.66
2497.13
2497.13
2553.59
2553.59
2609.98
2609.98
2666.28
2666.28
2722.48
2722.48
2778.55
2778.55
2834.51
2834.51
2890.39
2890.39
2946.23
2946.23
3002.09
3002.09
3058.06
3058.06
3114.22
3114.22
3170.7
3170.7
3227.63
3227.63
3285.17
3285.17
3343.5
3343.5
3402.84
3402.84
3463.42
3463.42
3525.51
3525.51
3589.41
3589.41
3655.46
3655.46
3724.05
3724.05
3795.61
3795.61
3870.67
3870.67
3949.78
3949.78
4033.61
4033.61
4122.92
4122.92
4218.63
4218.63
4321.78
4321.78
4433.64
4433.64
4555.73
4555.73
4689.89
4689.89
4838.37
4838.37
5004.01
5004.01
5190.35
5190.35
5401.96
5401.96
5644.82
5644.82
5926.89
5926.89
6259.08
6259.08
6656.72
6656.72
7142.08
7142.08
7748.85
7748.85
8530.45
8530.45
9576.94
9576.94
11052.1
11052.1
13284.6
13284.6
17023
17023
24257.5
24257.5
41106.9
41106.9
88462.6
88462.6
264701
264701
1.52417e+06
1.52417e+06
)
;

boundaryField
{
    walls
    {
        blending        binomial2;
        n               2;
        beta1           0.075;
        type            omegaWallFunction;
        value           nonuniform List<scalar> 8(1.52416e+06 1.52416e+06 1.52416e+06 1.52416e+06 1.52417e+06 1.52417e+06 1.52417e+06 1.52417e+06);
    }
    inlet
    {
        type            cyclic;
    }
    outlet
    {
        type            cyclic;
    }
    sides
    {
        type            empty;
    }
}


// ************************************************************************* //
