/*--------------------------------*- C++ -*----------------------------------*\
| =========                 |                                                 |
| \\      /  F ield         | OpenFOAM: The Open Source CFD Toolbox           |
|  \\    /   O peration     | Version:  2106                                  |
|   \\  /    A nd           | Website:  www.openfoam.com                      |
|    \\/     M anipulation  |                                                 |
\*---------------------------------------------------------------------------*/
FoamFile
{
    version     2.0;
    format      ascii;
    arch        "LSB;label=32;scalar=64";
    class       volTensorField;
    location    "3000";
    object      grad(U);
}
// * * * * * * * * * * * * * * * * * * * * * * * * * * * * * * * * * * * * * //

dimensions      [0 0 -1 0 0 0 0];

internalField   nonuniform List<tensor> 
2560
(
(-1.82862e-17 -1.80537e-25 -1.62414e-32 54.8083 -1.18214e-11 1.8215e-13 0.079338 -1.55931e-14 6.9067e-17)
(0 -2.0789e-30 7.98749e-27 54.8083 5.83974e-16 1.89562e-14 0.079338 -9.82451e-18 6.56199e-17)
(-3.60483e-17 -1.2221e-25 3.05529e-26 54.8063 -2.18234e-12 6.62747e-14 0.239161 -6.40984e-15 1.94659e-16)
(0 -8.1937e-30 0 54.8063 3.33979e-15 5.27048e-14 0.239161 9.80944e-18 3.67338e-16)
(-1.00355e-17 2.8026e-45 1.57415e-31 54.8045 1.1988e-27 3.58561e-14 0.328989 9.91449e-46 2.33002e-16)
(0 8.07896e-30 -5.04935e-31 54.8045 3.72005e-15 3.12132e-15 0.328989 1.9344e-17 3.77873e-16)
(3.22008e-17 -1.009e-29 3.47066e-31 54.8032 7.7205e-13 3.93801e-14 0.333766 -8.32657e-15 2.43285e-16)
(0 7.96317e-30 -2.48849e-31 54.8032 5.70664e-15 3.10277e-15 0.333766 3.17485e-17 3.88541e-16)
(2.76163e-16 -1.56981e-29 9.81129e-31 54.8021 4.31698e-14 4.03991e-14 0.338613 -9.5643e-16 2.5242e-16)
(0 1.17736e-29 -7.35847e-31 54.8021 5.65668e-15 3.10482e-15 0.338613 3.51105e-17 3.99393e-16)
(2.13604e-16 -3.87075e-28 5.89834e-31 54.8012 -4.14125e-14 4.13593e-14 0.343531 -1.28865e-16 2.6245e-16)
(6.2001e-16 7.75901e-30 -4.83534e-31 54.8012 5.77946e-15 3.10902e-15 0.343531 3.68389e-17 4.10437e-16)
(-1.00646e-16 -4.45031e-28 3.6588e-31 54.8002 -1.03361e-27 4.23238e-14 0.34852 3.15544e-30 2.72082e-16)
(4.02585e-16 7.64456e-30 -7.14905e-31 54.8002 5.79173e-15 3.11377e-15 0.34852 3.6295e-17 4.21667e-16)
(-1.24128e-16 1.07761e-29 -8.20031e-31 54.7988 -2.93617e-15 4.31906e-14 0.353577 -3.99113e-17 2.81325e-16)
(4.96511e-16 -3.73138e-30 7.04659e-31 54.7988 5.64005e-15 3.11804e-15 0.353577 3.59606e-17 4.33095e-16)
(4.08619e-16 -1.06642e-29 8.14783e-31 54.7965 -8.71331e-15 4.39871e-14 0.358699 -7.35863e-17 2.90479e-16)
(-2.60668e-16 7.40863e-30 -4.63039e-31 54.7965 5.74356e-15 3.11584e-15 0.358699 3.87134e-17 4.44711e-16)
(0 1.46049e-29 -6.84604e-31 54.7925 -1.19003e-14 4.47469e-14 0.363881 -8.34128e-17 2.99659e-16)
(0 -7.30244e-30 2.28201e-31 54.7925 5.93334e-15 3.11117e-15 0.363881 3.95347e-17 4.56482e-16)
(-1.96645e-16 -1.11381e-29 5.44278e-31 54.7856 -1.2617e-14 4.54782e-14 0.369114 -8.53991e-17 3.08844e-16)
(-2.53249e-16 1.79945e-29 -1.12465e-30 54.7856 5.8123e-15 3.10432e-15 0.369114 3.82164e-17 4.68432e-16)
(4.71145e-16 -2.80902e-29 1.46621e-30 54.7744 -1.28624e-14 4.6173e-14 0.374387 -8.92121e-17 3.17936e-16)
(0 2.48312e-29 -8.86827e-31 54.7744 5.6744e-15 3.0895e-15 0.374387 3.88075e-17 4.80512e-16)
(2.46042e-16 -1.04894e-29 4.37058e-31 54.7569 -1.31211e-14 4.68171e-14 0.379684 -9.14891e-17 3.26825e-16)
(-2.46042e-16 1.04894e-29 -4.37058e-31 54.7569 5.81521e-15 3.06903e-15 0.379684 4.12891e-17 4.92706e-16)
(-2.72379e-16 1.01558e-29 -1.00944e-30 54.7306 -1.30244e-14 4.73943e-14 0.384983 -9.04642e-17 3.35371e-16)
(1.08952e-15 -3.37076e-30 4.30794e-31 54.7306 5.73825e-15 3.04144e-15 0.384983 3.88612e-17 5.04987e-16)
(0 2.37787e-29 -1.69848e-30 54.6921 -1.28446e-14 4.78818e-14 0.390257 -9.16018e-17 3.43359e-16)
(0 -2.37787e-29 1.69848e-30 54.6921 5.45475e-15 3.00272e-15 0.390257 3.8451e-17 5.17322e-16)
(-3.24717e-16 -3.42967e-30 -1.67647e-31 54.6376 -1.2923e-14 4.68134e-14 0.395471 -9.42498e-17 3.2972e-16)
(1.29887e-15 6.79021e-30 0 54.6376 5.28655e-15 2.94553e-15 0.395471 3.75634e-17 5.29662e-16)
(0 2.3102e-29 2.38368e-28 54.5623 -1.30546e-14 2.1888e-14 0.400583 -9.62204e-17 7.98318e-17)
(-1.4058e-15 -2.32063e-29 1.65014e-30 54.5623 4.92641e-15 2.87049e-15 0.400583 3.4285e-17 5.41914e-16)
(0 2.92768e-29 -2.03311e-30 54.4607 -1.33991e-14 1.56141e-14 0.405541 -1.02146e-16 1.51796e-16)
(-1.51423e-15 -2.93856e-29 2.03311e-30 54.4607 5.08143e-15 2.77246e-15 0.405541 4.0975e-17 5.54031e-16)
(4.51255e-16 -6.41271e-30 1.20238e-30 54.3263 -1.38775e-14 2.91797e-14 0.410285 -1.06276e-16 2.8736e-16)
(0 6.41271e-30 -1.20238e-30 54.3263 5.38912e-15 2.65312e-15 0.410285 3.99432e-17 5.65862e-16)
(4.33888e-16 1.88476e-29 -9.91212e-31 54.1521 -1.34064e-14 3.76904e-14 0.414747 -9.79085e-17 2.86844e-16)
(-1.73555e-15 -2.85745e-29 1.97525e-30 54.1521 4.88501e-15 2.5215e-15 0.414747 3.44394e-17 5.77319e-16)
(0 2.49208e-29 -1.94694e-30 53.9304 -1.24709e-14 3.69406e-14 0.418851 -9.48239e-17 2.84104e-16)
(0 -2.49208e-29 1.94694e-30 53.9304 4.60975e-15 2.37039e-15 0.418851 3.68278e-17 5.88318e-16)
(-4.90652e-16 -5.93417e-30 -2.07166e-31 53.6532 -1.32479e-14 3.58862e-14 0.422517 -1.13049e-16 2.78592e-16)
(0 1.22818e-29 -3.83807e-31 53.6532 5.16292e-15 2.18959e-15 0.422517 4.41858e-17 5.98723e-16)
(1.18421e-15 -3.00121e-29 3.19674e-30 53.3125 -1.46737e-14 3.45721e-14 0.425661 -1.20451e-16 2.71368e-16)
(0 3.3291e-29 -3.02645e-30 53.3125 5.73305e-15 1.96419e-15 0.425661 4.70427e-17 6.08414e-16)
(0 2.08815e-29 -1.49154e-30 52.9008 -1.40709e-14 3.30002e-14 0.428201 -1.06561e-16 2.61198e-16)
(-2.19487e-15 -2.99953e-29 1.86442e-30 52.9008 5.76883e-15 1.69856e-15 0.428201 4.60618e-17 6.17135e-16)
(5.78173e-16 2.02366e-29 -1.62766e-30 52.4113 -1.3153e-14 3.11253e-14 0.430057 -1.08838e-16 2.48393e-16)
(0 -2.35225e-29 1.8377e-30 52.4113 5.27579e-15 1.41491e-15 0.430057 4.02886e-17 6.24724e-16)
(-1.21572e-15 3.55566e-29 -3.33013e-30 51.8386 -1.35643e-14 2.8966e-14 0.431161 -1.16566e-16 2.32715e-16)
(0 -2.89818e-29 2.89818e-30 51.8386 4.7374e-15 1.12798e-15 0.431161 3.84016e-17 6.31021e-16)
(1.91321e-15 -3.27224e-29 3.52327e-30 51.179 -1.40933e-14 2.65882e-14 0.431457 -1.21007e-16 2.15299e-16)
(5.1019e-15 2.61053e-29 -3.5708e-30 51.179 4.94197e-15 8.28674e-16 0.431457 4.49419e-17 6.35996e-16)
(0 -2.53413e-29 2.11177e-30 50.4311 -1.40911e-14 2.40734e-14 0.430908 -1.19942e-16 1.96217e-16)
(2.67101e-15 2.83642e-29 -2.81569e-30 50.4311 5.47973e-15 4.95585e-16 0.430908 4.8789e-17 6.39519e-16)
(-8.33399e-17 -5.21247e-31 2.34174e-31 49.5954 -1.34768e-14 2.14341e-14 0.429494 -1.13818e-16 1.75486e-16)
(0 0 0 49.5954 5.21004e-15 1.31387e-16 0.429494 4.15456e-17 6.41488e-16)
(-1.45593e-15 6.59879e-30 2.04403e-31 48.6753 -1.28782e-14 1.87189e-14 0.427218 -1.12842e-16 1.53827e-16)
(-5.82373e-15 -4.74626e-31 -6.8389e-31 48.6753 4.42044e-15 -2.36287e-16 0.427218 3.62195e-17 6.41718e-16)
(-7.58043e-16 1.67836e-29 -9.18951e-31 47.6762 -1.26698e-14 1.60176e-14 0.424104 -1.13403e-16 1.32039e-16)
(-4.55008e-15 -8.33701e-30 0 47.6762 3.91995e-15 -5.69493e-16 0.424104 3.37605e-17 6.40125e-16)
(0 2.65771e-29 -2.65771e-30 46.6057 -1.25604e-14 1.33935e-14 0.420197 -1.14153e-16 1.10449e-16)
(-3.15205e-15 -2.68346e-29 2.65771e-30 46.6057 3.80567e-15 -8.49079e-16 0.420197 3.51951e-17 6.3686e-16)
(0 -2.61962e-29 2.61962e-30 45.4729 -1.2406e-14 1.08999e-14 0.415557 -1.13867e-16 8.97411e-17)
(3.27126e-15 2.64655e-29 -2.61962e-30 45.4729 3.80306e-15 -1.12486e-15 0.415557 3.47012e-17 6.32167e-16)
(-8.47384e-16 8.47272e-30 -2.56926e-31 44.2885 -1.25902e-14 8.60207e-15 0.410258 -1.20955e-16 7.05242e-17)
(0 0 -6.45518e-31 44.2885 4.15379e-15 -1.41698e-15 0.410258 4.28136e-17 6.25921e-16)
(-8.76667e-16 2.36732e-29 -2.1685e-30 43.0634 -1.23365e-14 6.53543e-15 0.404385 -1.12368e-16 5.29884e-17)
(0 -2.03605e-29 1.9088e-30 43.0634 4.61292e-15 -1.679e-15 0.404385 4.4467e-17 6.18072e-16)
(-2.31782e-15 1.83676e-29 -2.14345e-30 41.8091 -1.16e-14 4.65621e-15 0.398027 -1.1026e-16 3.62593e-17)
(-3.62244e-15 -1.03413e-29 1.25429e-30 41.8091 4.0616e-15 -1.90482e-15 0.398027 3.34091e-17 6.08872e-16)
(9.34165e-16 -1.32094e-29 8.8167e-31 40.5367 -1.13891e-14 3.0387e-15 0.391274 -1.11523e-16 2.28147e-17)
(0 9.89052e-30 -6.18158e-31 40.5367 3.68771e-15 -2.06625e-15 0.391274 3.8436e-17 5.98331e-16)
(2.33431e-15 -2.28207e-29 2.70161e-30 39.2567 -1.07389e-14 1.75162e-15 0.384216 -1.00552e-16 1.17095e-17)
(-1.37202e-15 1.94975e-29 -2.43719e-30 39.2567 3.88477e-15 -2.2099e-15 0.384216 3.83092e-17 5.86998e-16)
(-9.89965e-16 1.29359e-29 7.65687e-30 37.9787 -9.70309e-15 3.44561e-16 0.376935 -9.38782e-17 1.7265e-18)
(0 -4.80452e-30 6.00565e-31 37.9787 3.46797e-15 -2.36915e-15 0.376935 3.11474e-17 5.74439e-16)
(0 1.4207e-29 0 36.7112 -9.67489e-15 -5.19909e-29 0.369509 -1.0292e-16 0)
(0 -2.36783e-29 2.36783e-30 36.7112 3.02919e-15 -2.46928e-15 0.369509 3.04441e-17 5.60865e-16)
(-1.04383e-15 3.33103e-30 -8.45684e-31 35.4616 -9.98644e-15 -8.66019e-16 0.362009 -1.03102e-16 6.04435e-18)
(4.17533e-15 5.03416e-30 0 35.4616 3.39812e-15 -2.52656e-15 0.362009 3.97262e-17 5.46663e-16)
(0 -1.84035e-29 2.87555e-30 34.236 -9.70102e-15 -1.31043e-15 0.354495 -9.99172e-17 1.18637e-17)
(4.27998e-15 1.87932e-29 -2.87555e-30 34.236 3.01467e-15 -2.59799e-15 0.354495 2.3252e-17 5.31918e-16)
(1.09563e-15 5.73168e-30 -1.44236e-30 33.0394 -9.42607e-15 -1.57422e-15 0.34702 -1.00241e-16 1.55905e-17)
(-4.38252e-15 -1.85403e-29 2.83434e-30 33.0394 2.22588e-15 -2.68091e-15 0.34702 2.40187e-17 5.16526e-16)
(1.12073e-15 -1.22818e-29 8.15328e-31 31.8757 -9.26035e-15 -1.69884e-15 0.339628 -9.92481e-17 1.78535e-17)
(0 8.93989e-30 -5.58743e-31 31.8757 2.49114e-15 -2.73504e-15 0.339628 2.96892e-17 5.0045e-16)
(-1.14531e-15 -1.06093e-30 8.46366e-31 30.7478 -9.06705e-15 -1.69004e-15 0.332355 -9.89224e-17 1.87514e-17)
(0 8.81176e-30 -1.6522e-30 30.7478 2.47075e-15 -2.76548e-15 0.332355 2.42733e-17 4.83974e-16)
(1.16936e-15 5.33582e-30 -2.88976e-31 29.6578 -8.25713e-15 -1.57954e-15 0.325231 -8.40655e-17 1.81826e-17)
(3.45507e-15 -3.9115e-30 5.42841e-31 29.6578 2.47078e-15 -2.77494e-15 0.325231 3.05595e-17 4.6697e-16)
(0 -8.56098e-30 5.35061e-31 28.6069 -7.6519e-15 -1.37228e-15 0.318278 -8.81056e-17 1.68327e-17)
(4.77157e-15 9.00974e-30 -5.35061e-31 28.6069 2.41925e-15 -2.7892e-15 0.318278 2.38167e-17 4.49741e-16)
(-1.21592e-15 3.35235e-30 2.75426e-31 27.5958 -8.21095e-15 -1.09522e-15 0.311514 -9.93803e-17 1.40185e-17)
(0 4.21914e-30 -5.27392e-31 27.5958 1.98601e-15 -2.84113e-15 0.311514 2.14948e-17 4.32181e-16)
(-1.23844e-15 3.35733e-30 -7.71107e-31 26.6247 -7.94669e-15 -7.9169e-16 0.30495 -8.45228e-17 1.09563e-17)
(0 0 0 26.6247 1.73885e-15 -2.87487e-15 0.30495 5.78472e-17 4.14054e-16)
(0 -4.09906e-30 1.02477e-30 25.6932 -6.81908e-15 -4.06562e-16 0.298596 -7.56088e-17 7.34973e-18)
(0 4.09906e-30 -1.02477e-30 25.6932 1.94184e-15 -2.88192e-15 0.298596 1.15257e-16 3.95566e-16)
(-2.4193e-15 3.36548e-30 7.59648e-31 24.8006 -5.99543e-15 4.48073e-17 0.292455 -6.72254e-17 3.27109e-18)
(0 8.08063e-30 -1.51512e-30 24.8006 1.57877e-15 -2.90092e-15 0.292455 1.54991e-16 3.76746e-16)
(-1.12095e-15 2.78768e-29 -3.4846e-30 23.9461 -5.61446e-15 4.67581e-16 0.286531 -6.85444e-17 8.06989e-18)
(-5.21269e-15 -2.43036e-29 2.9868e-30 23.9461 9.64061e-16 -2.90689e-15 0.286531 2.08442e-16 3.57504e-16)
(-1.32385e-15 -2.01836e-29 2.20581e-30 23.1286 -5.71053e-15 9.03177e-16 0.280822 -7.15686e-17 1.41307e-17)
(5.29539e-15 2.78739e-29 -2.94399e-30 23.1286 3.48908e-16 -2.90576e-15 0.280822 2.47137e-16 3.38023e-16)
(0 1.93453e-29 -3.38543e-30 22.3469 -5.37222e-15 1.38987e-15 0.275326 -6.20711e-17 2.05076e-17)
(0 -1.93453e-29 3.38543e-30 22.3469 -1.3664e-15 -2.88683e-15 0.275326 2.77611e-16 3.18096e-16)
(-1.36393e-15 7.18552e-30 -1.19834e-30 21.5995 -5.06468e-15 1.85661e-15 0.27004 -6.5843e-17 2.64158e-17)
(5.45573e-15 -3.46791e-30 9.53403e-31 21.5995 -6.30827e-16 -2.84591e-15 0.27004 3.46687e-16 2.98086e-16)
(2.76675e-15 -1.80221e-29 1.89724e-30 20.8852 -5.24767e-15 2.30013e-15 0.264958 -6.86112e-17 3.25529e-17)
(5.5335e-15 1.16138e-29 -1.40961e-30 20.8852 7.01237e-16 -2.86259e-15 0.264958 3.77315e-16 2.78041e-16)
(2.08577e-15 -7.41016e-30 9.2627e-31 20.2024 -4.50573e-15 2.80876e-15 0.260076 -4.83483e-17 4.05052e-17)
(0 7.41016e-30 -9.2627e-31 20.2024 -8.01511e-16 -2.8671e-15 0.260076 4.16808e-16 2.57254e-16)
(-1.42114e-15 -7.57643e-30 2.14856e-31 19.5498 -3.08998e-15 3.34138e-15 0.255387 -3.30186e-17 4.76529e-17)
(0 1.46079e-29 -9.12994e-31 19.5498 -1.56906e-15 -2.83153e-15 0.255387 4.97322e-16 2.36401e-16)
(-2.87896e-15 2.11562e-29 -1.38188e-30 18.926 -2.68514e-15 3.78818e-15 0.250884 -3.88557e-17 5.37314e-17)
(5.75793e-15 -2.13383e-29 1.79982e-30 18.926 -1.48237e-15 -2.78876e-15 0.250884 5.38064e-16 2.15322e-16)
(-1.45749e-15 3.3809e-30 -6.83885e-31 18.3294 -2.59161e-15 4.20223e-15 0.24656 -3.14289e-17 6.03683e-17)
(0 3.54804e-30 0 18.3294 -1.67135e-15 -2.7811e-15 0.24656 5.85576e-16 1.93948e-16)
(4.93567e-16 3.38106e-30 1.97373e-31 17.7589 -2.30224e-15 4.65563e-15 0.242408 -3.19682e-17 6.78805e-17)
(3.93196e-15 3.70565e-30 -8.74297e-31 17.7589 -1.4487e-15 -2.79251e-15 0.242408 6.30467e-16 1.72082e-16)
(-1.49255e-15 1.02751e-29 -1.10108e-30 17.213 -2.18095e-15 5.13153e-15 0.238421 -2.89366e-17 7.5528e-17)
(0 -3.44706e-30 4.30883e-31 17.213 -2.28583e-15 -2.76566e-15 0.238421 6.64318e-16 1.49774e-16)
(-4.93196e-15 2.37526e-29 -1.7526e-30 16.6904 -1.69966e-15 5.52247e-15 0.234592 -1.91647e-17 8.10295e-17)
(-4.12578e-15 -1.71346e-29 1.27412e-30 16.6904 -2.38936e-15 -2.78028e-15 0.234592 7.37166e-16 1.27675e-16)
(-1.16753e-15 -6.63543e-30 2.87138e-30 16.1901 -1.73407e-15 5.94709e-15 0.230914 -3.07809e-17 9.00389e-17)
(1.0326e-14 1.02888e-29 -2.51172e-30 16.1901 -1.67717e-15 -2.80517e-15 0.230914 7.83987e-16 1.04691e-16)
(-4.62878e-15 3.98536e-29 -4.43033e-30 15.7108 -1.96459e-15 6.39621e-15 0.227379 -2.64996e-17 9.66001e-17)
(-6.1717e-15 -2.97949e-29 3.71358e-30 15.7108 -1.96436e-15 -2.81267e-15 0.227379 8.49245e-16 8.11742e-17)
(2.72468e-16 -1.9946e-29 3.01465e-30 15.2513 -4.57539e-28 6.78971e-15 0.223982 0 1.04408e-16)
(4.40506e-15 1.95782e-29 -3.66036e-30 15.2513 -2.01266e-15 -2.25216e-15 0.223982 9.01079e-16 5.75936e-17)
(1.57517e-15 -9.79662e-30 2.24391e-30 14.8108 -4.85314e-16 7.15707e-15 0.220714 -1.52501e-17 1.10541e-16)
(0 6.41404e-30 0 14.8108 -2.4445e-15 4.93038e-32 0.220714 9.76098e-16 3.70728e-17)
(0 -2.84495e-29 2.37079e-30 14.388 -1.03216e-15 7.50541e-15 0.217571 -1.62001e-17 1.18155e-16)
(6.36369e-15 2.84495e-29 -2.37079e-30 14.388 -2.6221e-15 1.08826e-15 0.217571 1.0092e-15 2.70764e-17)
(0 -9.07149e-30 1.16841e-30 13.9822 -3.38413e-30 7.96318e-15 0.214546 -3.15544e-30 1.2803e-16)
(6.42575e-15 9.34724e-30 -1.94734e-30 13.9822 -2.0891e-15 1.70451e-15 0.214546 1.00926e-15 1.68549e-17)
(-1.72887e-15 1.22844e-29 -2.30332e-30 13.5924 8.72559e-16 8.35513e-15 0.211633 -8.60428e-18 1.33995e-16)
(6.48692e-15 -3.07109e-30 7.67773e-31 13.5924 -2.04758e-15 3.13163e-15 0.211633 1.01184e-15 1.06291e-17)
(0 2.42166e-29 -3.02707e-30 13.2177 7.23046e-16 8.66311e-15 0.208826 -1.88293e-17 1.41649e-16)
(0 -2.42166e-29 3.02707e-30 13.2177 -3.13767e-15 3.97847e-15 0.208826 1.00948e-15 1.304e-17)
(-3.30334e-15 9.74268e-30 -4.86658e-31 12.8575 5.48131e-17 8.96465e-15 0.206121 -4.06548e-18 1.47723e-16)
(0 -2.98369e-30 0 12.8575 -3.60886e-15 4.02431e-15 0.206121 9.98205e-16 2.38962e-17)
(0 -3.37954e-30 2.94092e-30 12.5108 4.162e-28 9.30366e-15 0.203511 0 1.56979e-16)
(6.66534e-15 2.35274e-29 -2.94092e-30 12.5108 -2.25144e-15 4.11103e-15 0.203511 9.91801e-16 2.67557e-17)
(-1.63186e-15 8.69632e-30 -2.17408e-30 12.1771 1.18852e-16 9.66033e-15 0.200991 -1.43754e-17 1.63985e-16)
(6.72322e-15 -5.79755e-30 1.44939e-30 12.1771 -1.11168e-15 4.18146e-15 0.200991 9.97663e-16 2.79156e-17)
(-1.69509e-15 -5.29928e-31 4.67435e-31 11.8556 -1.06095e-16 9.97102e-15 0.198558 -8.93925e-19 1.72125e-16)
(0 2.85723e-30 -1.42861e-30 11.8556 -1.06493e-15 4.22966e-15 0.198558 1.00644e-15 2.8754e-17)
(-1.46165e-15 7.00649e-46 -1.15961e-30 11.5458 3.03645e-43 1.02619e-14 0.196207 -6.31089e-30 1.78806e-16)
(0 -5.63255e-30 7.04069e-31 11.5458 -8.97009e-16 4.30927e-15 0.196207 1.00544e-15 2.98207e-17)
(3.1254e-15 -1.11036e-29 1.38796e-30 11.2469 -4.34423e-16 1.0558e-14 0.193933 -1.8159e-17 1.87515e-16)
(0 1.11036e-29 -1.38796e-30 11.2469 -6.90181e-16 4.41314e-15 0.193933 1.01104e-15 3.12307e-17)
(3.0806e-15 -8.20838e-30 1.36806e-30 10.9586 -1.56857e-15 1.0857e-14 0.191732 -3.71834e-17 1.94643e-16)
(0 8.20838e-30 -2.05209e-30 10.9586 -1.00033e-15 4.51681e-15 0.191732 1.02384e-15 3.28806e-17)
(-4.64523e-16 1.34847e-30 1.51512e-30 10.6802 -2.36938e-15 1.11683e-14 0.189601 -4.74925e-17 2.04203e-16)
(0 5.39382e-30 -2.02268e-30 10.6802 -9.09725e-16 4.60096e-15 0.189601 1.03914e-15 3.47673e-17)
(1.229e-15 1.40101e-29 -2.24966e-30 10.4112 -1.63942e-15 1.14907e-14 0.187535 -1.48472e-17 2.12111e-16)
(-2.99293e-15 -1.0633e-29 1.99369e-30 10.4112 -1.10585e-15 4.65099e-15 0.187535 1.0538e-15 3.66921e-17)
(1.77722e-15 -5.50612e-30 2.8619e-29 10.1513 -3.37868e-30 6.90023e-15 0.185531 0 6.33997e-17)
(-8.5839e-15 -5.24031e-30 0 10.1513 -2.94591e-15 4.7799e-15 0.185531 1.04881e-15 3.87234e-17)
(0 -2.17754e-29 2.87026e-31 9.89986 9.70192e-16 -3.04785e-29 0.183587 -9.04379e-18 0)
(-7.16146e-15 1.03304e-29 -1.93695e-30 9.89986 -2.33254e-15 4.92098e-15 0.183587 1.02962e-15 4.18511e-17)
(-1.80337e-15 8.46205e-30 -2.17918e-30 9.65662 2.51472e-15 -3.82338e-15 0.181698 -4.16992e-17 7.40504e-17)
(1.44269e-14 0 6.36397e-31 9.65662 -8.148e-16 4.96764e-15 0.181698 1.04162e-15 4.47991e-17)
(1.81623e-15 6.66887e-30 -1.61814e-30 9.42113 2.79111e-15 -3.536e-15 0.179861 -5.35151e-17 7.05582e-17)
(7.26491e-15 -2.00728e-29 2.5091e-30 9.42113 -4.24252e-15 5.0246e-15 0.179861 1.04812e-15 4.822e-17)
(0 -4.94628e-30 0 9.19305 3.65926e-15 -3.14983e-15 0.178075 -5.36053e-17 6.51103e-17)
(0 9.89256e-30 -1.23657e-30 9.19305 -5.58955e-15 5.10215e-15 0.178075 1.00825e-15 5.19797e-17)
(-4.58615e-15 -1.61436e-29 2.79494e-30 8.97203 4.5402e-15 -2.79403e-15 0.176336 -8.91316e-17 5.74793e-17)
(7.36622e-15 2.43769e-29 -3.04712e-30 8.97203 -4.61082e-15 5.13623e-15 0.176336 1.00098e-15 5.62299e-17)
(-4.55929e-15 8.16039e-30 -2.64888e-30 8.75774 4.41446e-15 -2.57188e-15 0.174641 -9.02283e-17 5.28603e-17)
(-7.4161e-15 0 1.20138e-30 8.75774 -6.2577e-15 5.2368e-15 0.174641 9.90377e-16 6.0221e-17)
(1.86637e-15 -8.08994e-30 2.60813e-30 8.54988 5.53187e-15 -2.30343e-15 0.172988 -8.66665e-17 5.01949e-17)
(7.46549e-15 4.73664e-30 -2.36832e-30 8.54988 -6.11472e-15 5.41564e-15 0.172988 9.6741e-16 6.59147e-17)
(-4.50687e-15 1.7348e-29 -2.56852e-30 8.34817 6.42552e-15 -1.98184e-15 0.171375 -1.38636e-16 4.34143e-17)
(1.01427e-14 -1.40062e-29 2.33437e-30 8.34817 -5.74787e-15 5.42104e-15 0.171375 9.56746e-16 7.23104e-17)
(-1.89071e-15 -1.26273e-30 3.47013e-31 8.15233 4.92632e-15 -1.76398e-15 0.1698 -1.26338e-16 3.83026e-17)
(0 4.60183e-30 -5.75229e-31 8.15233 -7.38835e-15 5.44172e-15 0.1698 9.28032e-16 7.69746e-17)
(-1.90271e-15 3.34429e-30 -2.21982e-31 7.96212 3.92443e-15 -1.49714e-15 0.16826 -7.94971e-17 3.55023e-17)
(0 4.53588e-30 -1.13397e-30 7.96212 -7.19479e-15 5.59803e-15 0.16826 9.00491e-16 8.38189e-17)
(-4.43146e-15 -1.00717e-29 2.01901e-30 7.77728 3.32124e-15 -1.27302e-15 0.166754 -8.71894e-17 2.80123e-17)
(7.65836e-15 1.34126e-29 -2.23543e-30 7.77728 -4.6405e-15 5.64589e-15 0.166754 8.81263e-16 9.12166e-17)
(4.40717e-15 -1.2157e-29 1.31152e-30 7.5976 1.33121e-15 -1.18966e-15 0.165279 -5.56533e-17 2.68173e-17)
(-2.4808e-15 8.81357e-30 -1.1017e-30 7.5976 -2.11633e-15 5.66555e-15 0.165279 8.6471e-16 9.81119e-17)
(2.44524e-15 -8.68725e-30 1.08591e-30 7.42286 -5.26634e-16 -1.05381e-15 0.163834 -2.56909e-17 2.51633e-17)
(0 4.34363e-30 -1.62886e-30 7.42286 -1.73292e-15 5.83405e-15 0.163834 8.65429e-16 1.05895e-16)
(-1.9496e-15 3.3499e-30 -1.9695e-31 7.25287 -9.34439e-16 -9.32673e-16 0.162418 -1.62759e-17 2.15357e-17)
(0 4.28137e-30 -1.07034e-30 7.25287 -1.90214e-15 6.05928e-15 0.162418 8.61846e-16 1.1538e-16)
(2.37565e-15 -3.35344e-30 3.69251e-30 7.08742 2.93949e-28 -6.89446e-16 0.161028 0 2.04115e-17)
(1.56885e-14 3.37601e-29 -4.22001e-30 7.08742 -4.61642e-16 6.19587e-15 0.161028 8.62382e-16 1.26287e-16)
(-2.3416e-15 4.15952e-30 -5.19941e-31 6.92634 2.92695e-15 -2.88822e-16 0.159663 -5.67413e-17 1.09854e-17)
(7.8897e-15 4.15952e-30 0 6.92634 -1.35181e-15 6.16879e-15 0.159663 8.74181e-16 1.36949e-16)
(-1.98369e-15 3.20365e-29 -3.76626e-30 6.76946 2.81723e-15 -1.29371e-16 0.158322 -7.89418e-17 2.32501e-18)
(-7.93476e-15 -2.45994e-29 3.07493e-30 6.76946 -3.33809e-15 6.20363e-15 0.158322 8.62312e-16 1.46223e-16)
(2.80104e-16 1.54625e-29 -1.68721e-30 6.61662 2.5248e-15 -1.12671e-16 0.157003 -5.32116e-17 3.76255e-18)
(-7.97944e-15 -1.21234e-29 1.01029e-30 6.61662 -3.08219e-15 6.46365e-15 0.157003 8.54848e-16 1.58163e-16)
(-2.24236e-15 1.19497e-29 -9.95806e-31 6.46767 3.25826e-15 1.37996e-17 0.155706 -6.72163e-17 2.28668e-18)
(0 -7.96645e-30 0 6.46767 -2.28813e-15 6.67761e-15 0.155706 8.6167e-16 1.72127e-16)
(0 7.85227e-30 -1.96307e-30 6.32246 4.31053e-15 3.20308e-16 0.154428 -9.04917e-17 1.35067e-17)
(8.06766e-15 -3.92614e-30 9.81534e-31 6.32246 -2.62235e-15 6.79709e-15 0.154428 8.72632e-16 1.87268e-16)
(-2.32927e-15 2.76415e-29 -3.72083e-30 6.18085 4.69551e-15 5.72559e-16 0.153168 -1.21179e-16 1.49988e-17)
(0 -2.32192e-29 2.9024e-30 6.18085 -3.70372e-15 6.94495e-15 0.153168 8.66288e-16 2.01961e-16)
(0 -3.8144e-29 4.768e-30 6.04273 3.68262e-15 6.47684e-16 0.151926 -1.12441e-16 1.77231e-17)
(1.63088e-14 3.8144e-29 -4.768e-30 6.04273 -3.13268e-15 7.09423e-15 0.151926 8.4623e-16 2.19275e-16)
(2.11654e-15 -7.51946e-30 9.39932e-31 5.90795 2.66931e-15 9.12257e-16 0.150701 -7.32147e-17 2.90895e-17)
(1.63945e-14 7.51946e-30 -9.39932e-31 5.90795 -3.84812e-15 7.23125e-15 0.150701 8.51099e-16 2.38328e-16)
(-4.11989e-15 2.92124e-30 -2.50273e-31 5.77642 2.5526e-15 1.25227e-15 0.149491 -6.3451e-17 3.60413e-17)
(0 3.70584e-30 0 5.77642 -4.37922e-15 7.39538e-15 0.149491 8.28321e-16 2.57056e-16)
(-2.07048e-15 -3.44048e-31 -1.17606e-31 5.64802 3.5681e-15 1.45942e-15 0.148296 -6.92495e-17 4.09433e-17)
(1.65639e-14 7.30546e-30 0 5.64802 -3.43579e-15 7.49697e-15 0.148296 8.05134e-16 2.77896e-16)
(2.08094e-15 -1.04964e-29 1.00958e-30 5.52264 4.65264e-15 1.64978e-15 0.147115 -1.19242e-16 4.73537e-17)
(0 7.20075e-30 -9.00094e-31 5.52264 -5.41948e-15 7.56093e-15 0.147115 7.94183e-16 2.96088e-16)
(-2.09131e-15 6.83625e-30 -1.87575e-30 5.40019 4.91233e-15 1.88908e-15 0.145947 -1.29715e-16 5.5224e-17)
(0 0 0 5.40019 -5.81251e-15 7.83766e-15 0.145947 7.49179e-16 3.16371e-16)
(-2.10159e-15 1.02763e-29 -9.67173e-31 5.28057 5.62957e-15 2.22798e-15 0.14479 -1.36931e-16 6.7536e-17)
(8.40637e-15 -6.99582e-30 8.74477e-31 5.28057 -4.13161e-15 8.05199e-15 0.14479 7.13932e-16 3.39882e-16)
(-2.1118e-15 1.01645e-29 -1.80817e-30 5.16369 5.69411e-15 2.62797e-15 0.143645 -1.73292e-16 7.93478e-17)
(8.4472e-15 -3.44778e-30 0 5.16369 -4.77886e-15 8.10611e-15 0.143645 6.92516e-16 3.629e-16)
(-4.24385e-15 3.14019e-30 -1.52301e-31 5.04947 4.92903e-15 2.99254e-15 0.142511 -1.44574e-16 9.03256e-17)
(0 3.39836e-30 0 5.04947 -5.41433e-15 8.14226e-15 0.142511 6.51431e-16 3.86303e-16)
(-2.13197e-15 6.61725e-30 -1.74465e-30 4.93782 4.6449e-15 3.10898e-15 0.141387 -1.34694e-16 8.84158e-17)
(0 0 0 4.93782 -5.64317e-15 8.21876e-15 0.141387 6.08896e-16 4.08734e-16)
(1.85866e-15 -6.60329e-30 8.25411e-31 4.82867 4.66984e-15 3.06109e-15 0.140273 -1.32354e-16 9.01579e-17)
(-8.56774e-15 6.60329e-30 -8.25411e-31 4.82867 -5.23783e-15 8.42187e-15 0.140273 5.58911e-16 4.3366e-16)
(3.98384e-15 -9.76532e-30 1.68225e-30 4.72195 5.71056e-15 3.08409e-15 0.139167 -1.40106e-16 9.23763e-17)
(6.77526e-15 6.50865e-30 -1.62716e-30 4.72195 -5.04328e-15 8.58016e-15 0.139167 5.2574e-16 4.60437e-16)
(2.16163e-15 -1.28639e-29 8.49548e-31 4.61758 6.4103e-15 3.10855e-15 0.13807 -1.98269e-16 9.42786e-17)
(-8.64652e-15 9.62304e-30 -8.0192e-31 4.61758 -5.82761e-15 8.73928e-15 0.13807 4.80313e-16 4.8936e-16)
(-2.17136e-15 9.55727e-30 -8.30319e-31 4.5155 5.61723e-15 3.13786e-15 0.13698 -1.86528e-16 9.68804e-17)
(8.68545e-15 -3.16171e-30 0 4.5155 -5.26667e-15 8.85965e-15 0.13698 4.38696e-16 5.20568e-16)
(0 1.24656e-29 -1.5582e-30 4.41564 6.1806e-15 3.3717e-15 0.135898 -1.55417e-16 1.11597e-16)
(-3.50874e-15 -9.34917e-30 0 4.41564 -5.70009e-15 8.9801e-15 0.135898 4.2696e-16 5.48239e-16)
(-3.45845e-15 1.22869e-29 -3.07172e-30 4.31795 7.60864e-15 3.48695e-15 0.134823 -2.27062e-16 1.06997e-16)
(8.76238e-15 -6.14345e-30 7.67931e-31 4.31795 -5.66938e-15 9.0869e-15 0.134823 3.91844e-16 5.78386e-16)
(2.2001e-15 -1.22855e-29 1.52781e-30 4.22235 6.70738e-15 3.43059e-15 0.133755 -2.50157e-16 1.11255e-16)
(0 9.0831e-30 -1.51385e-30 4.22235 -5.99611e-15 9.05445e-15 0.133755 3.64161e-16 6.07947e-16)
(-3.36003e-15 8.95291e-30 -7.46076e-31 4.12881 6.61779e-15 3.64682e-15 0.132692 -1.75966e-16 1.24187e-16)
(-8.83811e-15 -5.96861e-30 0 4.12881 -7.28878e-15 9.26487e-15 0.132692 3.04852e-16 6.37391e-16)
(-3.31187e-15 2.94153e-30 -1.47077e-30 4.03727 8.16456e-15 3.7975e-15 0.131635 -2.51661e-16 9.61733e-17)
(0 5.88306e-30 0 4.03727 -6.75383e-15 9.47657e-15 0.131635 2.50728e-16 6.73686e-16)
(-3.2644e-15 8.69812e-30 -1.44969e-30 3.94766 7.24687e-15 3.69179e-15 0.130584 -2.8313e-16 3.92861e-17)
(0 -5.79874e-30 0 3.94766 -7.49548e-15 9.53401e-15 0.130584 1.92567e-16 7.10454e-16)
(2.23737e-15 1.96765e-29 -2.14336e-30 3.85995 7.03928e-15 3.75069e-15 0.129537 -1.97632e-16 -2.28764e-17)
(0 -2.28625e-29 2.14336e-30 3.85995 -9.05598e-15 9.70147e-15 0.129537 1.26582e-16 7.48722e-16)
(2.2465e-15 1.09181e-29 0 3.77409 8.42143e-15 3.93938e-15 0.128496 -2.77333e-16 -8.55956e-17)
(0 -8.45057e-30 0 3.77409 -8.41442e-15 9.85807e-15 0.128496 5.92519e-17 7.89156e-16)
(-4.51112e-15 3.52589e-30 0 3.69004 7.48916e-15 4.05921e-15 0.127459 -2.98607e-16 -1.48352e-16)
(9.02225e-15 2.77648e-30 0 3.69004 -7.25766e-15 1.00037e-14 0.127459 -1.5523e-18 8.3294e-16)
(-2.26455e-15 5.88742e-30 0 3.60774 6.48602e-15 4.19718e-15 0.126426 -2.20319e-16 -2.12262e-16)
(0 0 -1.36834e-30 3.60774 -8.55118e-15 1.00211e-14 0.126426 -5.7596e-17 8.77692e-16)
(0 5.39493e-30 -1.34873e-30 3.52715 7.75889e-15 4.20114e-15 0.125397 -2.36246e-16 -2.79083e-16)
(0 -5.39493e-30 0 3.52715 -9.3318e-15 1.00496e-14 0.125397 -1.57609e-16 9.20352e-16)
(0 1.06352e-29 -1.3294e-30 3.44825 9.22207e-15 4.21014e-15 0.124372 -3.18314e-16 -3.50731e-16)
(0 -5.31761e-30 0 3.44825 -8.96837e-15 1.0359e-14 0.124372 -2.22749e-16 9.65758e-16)
(0 5.24139e-30 -1.31035e-30 3.37098 7.83655e-15 4.19317e-15 0.123351 -3.49924e-16 -4.11099e-16)
(0 0 0 3.37098 -7.97602e-15 1.07876e-14 0.123351 -2.90039e-16 1.01706e-15)
(0 0 -1.29157e-30 3.29531 4.60799e-15 4.42424e-15 0.122333 -2.25077e-16 -4.04428e-16)
(1.54899e-14 0 0 3.29531 -4.67697e-15 1.10374e-14 0.122333 -3.52627e-16 1.07652e-15)
(-4.61682e-15 6.25379e-30 0 3.22121 2.78218e-15 4.77234e-15 0.121318 -1.17709e-16 -3.89539e-16)
(9.23364e-15 0 0 3.22121 -3.07043e-15 1.10184e-14 0.121318 -3.41879e-16 1.13596e-15)
(5.14255e-15 -1.3166e-29 1.25481e-30 3.14864 2.42681e-15 4.90172e-15 0.120307 -9.25586e-17 -3.74608e-16)
(0 1.00385e-29 0 3.14864 -4.58337e-15 1.09639e-14 0.120307 -3.64907e-16 1.19282e-15)
(0 4.9473e-30 0 3.07756 3.46346e-15 4.99858e-15 0.119298 -9.36879e-17 -3.52711e-16)
(-9.30182e-15 0 0 3.07756 -3.95493e-15 1.12651e-14 0.119298 -4.55136e-16 1.25119e-15)
(-2.33387e-15 -1.15201e-29 1.2191e-30 3.00795 5.03559e-15 5.0309e-15 0.118292 -1.76568e-16 -3.28285e-16)
(9.33549e-15 1.95056e-29 -1.2191e-30 3.00795 -1.28038e-15 1.1603e-14 0.118292 -4.91106e-16 1.316e-15)
(0 9.61301e-30 0 2.93977 4.62146e-15 4.98306e-15 0.117289 -2.21518e-16 -3.05594e-16)
(0 -4.8065e-30 0 2.93977 -1.37113e-15 1.16352e-14 0.117289 -4.90173e-16 1.38594e-15)
(0 -4.73761e-30 1.1844e-30 2.87299 3.74283e-15 4.94578e-15 0.116289 -1.48311e-16 -2.84425e-16)
(0 4.73761e-30 -1.1844e-30 2.87299 -3.29969e-15 1.18578e-14 0.116289 -5.24839e-16 1.4559e-15)
(-2.35871e-15 7.76433e-30 0 2.80758 5.03733e-15 4.8218e-15 0.115291 -1.56051e-16 -2.61889e-16)
(0 -4.66971e-30 0 2.80758 -3.1591e-15 1.22707e-14 0.115291 -6.06102e-16 1.53695e-15)
(4.48584e-16 -2.60868e-29 3.45209e-30 2.74352 6.32739e-15 4.75779e-15 0.114295 -2.6021e-16 -2.41911e-16)
(1.89348e-14 2.76167e-29 -2.30139e-30 2.74352 -2.65389e-15 1.23131e-14 0.114295 -6.56152e-16 1.61892e-15)
(0 9.07362e-30 0 2.68077 7.3231e-15 5.02149e-15 0.113302 -2.69367e-16 -2.17058e-16)
(0 -9.07362e-30 0 2.68077 -4.68762e-15 1.22926e-14 0.113302 -6.89828e-16 1.6958e-15)
(-2.51739e-15 1.34154e-29 -1.11795e-30 2.61931 7.52502e-15 4.84613e-15 0.112311 -3.52985e-16 -1.89957e-16)
(-2.51739e-15 -4.47179e-30 0 2.61931 -3.71958e-15 1.27858e-14 0.112311 -7.62924e-16 1.78045e-15)
(-4.69121e-15 -1.73393e-29 2.20385e-30 2.55911 6.48942e-15 4.65584e-15 0.111322 -2.94777e-16 -1.74497e-16)
(1.91267e-14 3.08539e-29 -2.20385e-30 2.55911 -6.2976e-16 1.32284e-14 0.111322 -7.73531e-16 1.88242e-15)
(0 -2.60671e-29 2.17226e-30 2.50015 7.48638e-15 4.88638e-15 0.110335 -2.72167e-16 -1.53975e-16)
(1.91896e-14 2.60671e-29 -2.17226e-30 2.50015 -3.73453e-15 1.31944e-14 0.110335 -7.6533e-16 1.98355e-15)
(-4.81719e-15 1.58474e-29 0 2.4424 8.54773e-15 4.74449e-15 0.10935 -3.92445e-16 -1.3429e-16)
(0 -8.56451e-30 0 2.4424 -6.75232e-15 1.33761e-14 0.10935 -8.53482e-16 2.08579e-15)
(2.41422e-15 -2.83177e-29 0 2.38584 7.53676e-15 4.55124e-15 0.108368 -3.76301e-16 -1.20835e-16)
(1.93138e-14 2.53253e-29 0 2.38584 -3.67942e-15 1.38424e-14 0.108368 -9.41319e-16 2.19966e-15)
(2.34209e-15 -1.66415e-29 0 2.33044 6.39718e-15 4.59058e-15 0.107387 -3.11013e-16 -1.03782e-16)
(7.34542e-15 1.66415e-29 2.55901e-31 2.33044 -2.95303e-15 1.40045e-14 0.107387 -9.42138e-16 1.8601e-15)
(4.73798e-15 -1.11953e-29 2.05038e-30 2.27619 7.59755e-15 4.61565e-15 0.106409 -2.8105e-16 -8.65428e-17)
(-2.30852e-15 8.20151e-30 -2.05038e-30 2.27619 -4.81644e-15 1.41786e-14 0.106409 -9.80891e-16 1.42287e-15)
(4.87397e-15 -5.92234e-30 0 2.22305 9.21551e-15 4.66444e-15 0.105433 -4.33695e-16 -6.61874e-17)