/*--------------------------------*- C++ -*----------------------------------*\
| =========                 |                                                 |
| \\      /  F ield         | OpenFOAM: The Open Source CFD Toolbox           |
|  \\    /   O peration     | Version:  2106                                  |
|   \\  /    A nd           | Website:  www.openfoam.com                      |
|    \\/     M anipulation  |                                                 |
\*---------------------------------------------------------------------------*/
FoamFile
{
    version     2.0;
    format      ascii;
    arch        "LSB;label=32;scalar=64";
    class       volScalarField;
    location    "4000";
    object      p;
}
// * * * * * * * * * * * * * * * * * * * * * * * * * * * * * * * * * * * * * //

dimensions      [0 2 -2 0 0 0 0];

internalField   nonuniform List<scalar> 
2560
(
3.39416e-15
8.4707e-16
7.06534e-15
8.46291e-16
7.29031e-15
8.45128e-16
6.57847e-15
8.433e-16
6.02935e-15
8.40775e-16
5.64688e-15
8.37539e-16
5.30229e-15
8.33598e-16
4.96371e-15
8.28944e-16
4.63205e-15
8.23581e-16
4.30823e-15
8.17511e-16
3.99131e-15
8.10746e-16
3.68066e-15
8.03284e-16
3.376e-15
7.9512e-16
3.07716e-15
7.86269e-16
2.78394e-15
7.76731e-16
2.49623e-15
7.66578e-16
2.21402e-15
7.55766e-16
1.93715e-15
7.44268e-16
1.66555e-15
7.32114e-16
1.39929e-15
7.19306e-16
1.1382e-15
7.0585e-16
8.82149e-16
6.91803e-16
6.31144e-16
6.77143e-16
3.85219e-16
6.61821e-16
1.44115e-16
6.45899e-16
-9.21864e-17
6.29305e-16
-3.23832e-16
6.12176e-16
-5.5067e-16
5.94544e-16
-7.72848e-16
5.76439e-16
-9.90464e-16
5.57749e-16
-1.20366e-15
5.38413e-16
-1.4124e-15
5.18422e-16
-1.61667e-15
4.97813e-16
-1.81654e-15
4.76717e-16
-2.0121e-15
4.55121e-16
-2.20358e-15
4.33063e-16
-2.39095e-15
4.10359e-16
-2.57417e-15
3.87179e-16
-2.7533e-15
3.63518e-16
-2.92873e-15
3.39413e-16
-3.10046e-15
3.14901e-16
-3.26843e-15
2.90182e-16
-3.43274e-15
2.65047e-16
-3.59323e-15
2.39375e-16
-3.74986e-15
2.12898e-16
-3.90288e-15
1.85895e-16
-4.05247e-15
1.58636e-16
-4.19821e-15
1.31008e-16
-4.34064e-15
1.02829e-16
-4.47971e-15
7.42884e-17
-4.61533e-15
4.53546e-17
-4.74793e-15
1.59975e-17
-4.87764e-15
-1.3601e-17
-5.00411e-15
-4.37484e-17
-5.12761e-15
-7.41266e-17
-5.24822e-15
-1.04766e-16
-5.36586e-15
-1.35693e-16
-5.48024e-15
-1.67131e-16
-5.592e-15
-1.99037e-16
-5.70148e-15
-2.30854e-16
-5.80854e-15
-2.62805e-16
-5.9129e-15
-2.94979e-16
-6.01503e-15
-3.27587e-16
-6.11493e-15
-3.60219e-16
-6.21232e-15
-3.93204e-16
-6.30768e-15
-4.26744e-16
-6.40074e-15
-4.60676e-16
-6.49139e-15
-4.95194e-16
-6.57984e-15
-5.29906e-16
-6.66574e-15
-5.65008e-16
-6.75034e-15
-6.00118e-16
-6.83294e-15
-6.3577e-16
-6.91375e-15
-6.71925e-16
-6.99275e-15
-7.08094e-16
-7.07028e-15
-7.44356e-16
-7.14607e-15
-7.81119e-16
-7.2198e-15
-8.18563e-16
-7.29178e-15
-8.5621e-16
-7.36275e-15
-8.94242e-16
-7.43236e-15
-9.31753e-16
-7.50048e-15
-9.69576e-16
-7.56764e-15
-1.00832e-15
-7.63347e-15
-1.04708e-15
-7.69828e-15
-1.08603e-15
-7.76194e-15
-1.12471e-15
-7.82452e-15
-1.1635e-15
-7.88673e-15
-1.20214e-15
-7.94803e-15
-1.24188e-15
-8.00805e-15
-1.28181e-15
-8.06687e-15
-1.32168e-15
-8.12477e-15
-1.36228e-15
-8.18142e-15
-1.40378e-15
-8.23771e-15
-1.44507e-15
-8.2931e-15
-1.48694e-15
-8.34743e-15
-1.52977e-15
-8.40142e-15
-1.57308e-15
-8.45428e-15
-1.61511e-15
-8.50716e-15
-1.65643e-15
-8.56033e-15
-1.69848e-15
-8.61194e-15
-1.74226e-15
-8.66249e-15
-1.78643e-15
-8.71119e-15
-1.83179e-15
-8.7594e-15
-1.87783e-15
-8.8072e-15
-1.92362e-15
-8.85334e-15
-1.9691e-15
-8.89922e-15
-2.01548e-15
-8.94446e-15
-2.06139e-15
-8.98959e-15
-2.10717e-15
-9.03423e-15
-2.15363e-15
-9.07848e-15
-2.19979e-15
-9.12241e-15
-2.24557e-15
-9.16699e-15
-2.29044e-15
-9.21187e-15
-2.33561e-15
-9.25537e-15
-2.38188e-15
-9.29891e-15
-2.42782e-15
-9.34214e-15
-2.47376e-15
-9.38427e-15
-2.52138e-15
-9.42539e-15
-2.56968e-15
-9.46739e-15
-2.6181e-15
-9.50814e-15
-2.66609e-15
-9.54773e-15
-2.71575e-15
-9.58943e-15
-2.76474e-15
-9.63065e-15
-2.81426e-15
-9.67105e-15
-2.86374e-15
-9.71031e-15
-2.91485e-15
-9.74991e-15
-2.96609e-15
-9.78951e-15
-3.01734e-15
-9.82699e-15
-3.07115e-15
-9.86247e-15
-3.12738e-15
-9.89881e-15
-3.185e-15
-9.93524e-15
-3.24202e-15
-9.97099e-15
-3.29648e-15
-1.00044e-14
-3.35366e-15
-1.00374e-14
-3.4125e-15
-1.00729e-14
-3.4692e-15
-1.01075e-14
-3.52721e-15
-1.01421e-14
-3.58636e-15
-1.01788e-14
-3.64466e-15
-1.0215e-14
-3.69919e-15
-1.02492e-14
-3.75883e-15
-1.0285e-14
-3.82339e-15
-1.03192e-14
-3.88632e-15
-1.03517e-14
-3.94832e-15
-1.0383e-14
-4.01644e-15
-1.04149e-14
-4.08323e-15
-1.04468e-14
-4.14848e-15
-1.0478e-14
-4.21468e-15
-1.05087e-14
-4.28342e-15
-1.05391e-14
-4.35447e-15
-1.05703e-14
-4.42492e-15
-1.06009e-14
-4.49632e-15
-1.06273e-14
-4.56665e-15
-1.06544e-14
-4.6357e-15
-1.06779e-14
-4.70857e-15
-1.07035e-14
-4.78501e-15
-1.07268e-14
-4.86565e-15
-1.07456e-14
-4.94937e-15
-1.07619e-14
-5.02977e-15
-1.07749e-14
-5.11015e-15
-1.07894e-14
-5.19644e-15
-1.08039e-14
-5.28491e-15
-1.08176e-14
-5.37184e-15
-1.08291e-14
-5.46052e-15
-1.08386e-14
-5.54899e-15
-1.08481e-14
-5.63879e-15
-1.08527e-14
-5.73314e-15
-1.08594e-14
-5.8267e-15
-1.08668e-14
-5.92101e-15
-1.08734e-14
-6.01928e-15
-1.0881e-14
-6.11625e-15
-1.08882e-14
-6.21176e-15
-1.08936e-14
-6.30903e-15
-1.09006e-14
-6.41121e-15
-1.09079e-14
-6.51482e-15
-1.09139e-14
-6.61806e-15
-1.09156e-14
-6.72412e-15
-1.09182e-14
-6.83124e-15
-1.09169e-14
-6.93935e-15
-1.09183e-14
-7.04515e-15
-1.09178e-14
-7.14862e-15
-1.09155e-14
-7.25612e-15
-1.09131e-14
-7.36284e-15
-1.09125e-14
-7.46877e-15
-1.09089e-14
-7.57236e-15
-1.09071e-14
-7.67522e-15
-1.09042e-14
-7.77739e-15
-1.09003e-14
-7.882e-15
-1.0897e-14
-7.9845e-15
-1.08927e-14
-8.085e-15
-1.08892e-14
-8.1821e-15
-1.08849e-14
-8.27592e-15
-1.08815e-14
-8.36962e-15
-1.08759e-14
-8.46329e-15
-1.08697e-14
-8.5497e-15
-1.08644e-14
-8.632e-15
-1.08587e-14
-8.72205e-15
-1.08553e-14
-8.80688e-15
-1.08514e-14
-8.88384e-15
-1.08471e-14
-8.96175e-15
-1.08437e-14
-9.04219e-15
-1.08399e-14
-9.11543e-15
-1.08441e-14
-9.18733e-15
-1.0845e-14
-9.25808e-15
-1.08428e-14
-9.32786e-15
-1.08402e-14
-9.39693e-15
-1.084e-14
-9.46005e-15
-1.08393e-14
-9.52292e-15
-1.0841e-14
-9.58306e-15
-1.08422e-14
-9.64336e-15
-1.0843e-14
-9.70138e-15
-1.0846e-14
-9.75476e-15
-1.08485e-14
-9.80897e-15
-1.08531e-14
-9.8668e-15
-1.08571e-14
-9.92078e-15
-1.08606e-14
-9.96611e-15
-1.08634e-14
-1.00132e-14
-1.08682e-14
-1.00573e-14
-1.08749e-14
-1.01036e-14
-1.08859e-14
-1.01425e-14
-1.08914e-14
-1.01766e-14
-1.0899e-14
-1.0211e-14
-1.09039e-14
-1.02506e-14
-1.09133e-14
-1.02835e-14
-1.09152e-14
-1.03195e-14
-1.09264e-14
-1.03564e-14
-1.09397e-14
-1.03895e-14
-1.09506e-14
-1.04214e-14
-1.09614e-14
-1.04521e-14
-1.09654e-14
-1.04795e-14
-1.09763e-14
-1.05083e-14
-1.09872e-14
-1.05387e-14
-1.09983e-14
-1.05662e-14
-1.09983e-14
-1.05865e-14
-1.10052e-14
-1.06087e-14
-1.10144e-14
-1.06375e-14
-1.10171e-14
-1.06618e-14
-1.1022e-14
-1.06885e-14
-1.10268e-14
-1.07157e-14
-1.10334e-14
-1.07457e-14
-1.10372e-14
-1.07768e-14
-1.1038e-14
-1.08095e-14
-1.10376e-14
-1.08508e-14
-1.10333e-14
-1.08928e-14
-1.10369e-14
-1.09196e-14
-1.10482e-14
-1.09401e-14
-1.10545e-14
-1.09632e-14
-1.10597e-14
-1.09849e-14
-1.10634e-14
-1.10183e-14
-1.10776e-14
-1.10431e-14
-1.10938e-14
-1.10679e-14
-1.11078e-14
-1.10846e-14
-1.11151e-14
-1.10976e-14
-1.11282e-14
-1.11112e-14
-1.11428e-14
-1.11255e-14
-1.11674e-14
-1.11405e-14
-1.11897e-14
-1.11602e-14
-1.12054e-14
-1.11803e-14
-1.12229e-14
-1.11967e-14
-1.12469e-14
-1.12006e-14
-1.12736e-14
-1.12172e-14
-1.12815e-14
-1.12465e-14
-1.13008e-14
-1.12672e-14
-1.13227e-14
-1.12968e-14
-1.13381e-14
-1.13132e-14
-1.13469e-14
-1.13344e-14
-1.13575e-14
-1.13472e-14
-1.13744e-14
-1.13797e-14
-1.1397e-14
-1.13955e-14
-1.1416e-14
-1.14037e-14
-1.14413e-14
-1.14135e-14
-1.1459e-14
-1.14341e-14
-1.14785e-14
-1.14712e-14
-1.14993e-14
-1.15055e-14
-1.15159e-14
-1.15167e-14
-1.15391e-14
-1.15084e-14
-1.15545e-14
-1.15161e-14
-1.15676e-14
-1.15451e-14
-1.15887e-14
-1.15691e-14
-1.1601e-14
-1.1577e-14
-1.16161e-14
-1.15738e-14
-1.16172e-14
-1.15635e-14
-1.16283e-14
-1.15804e-14
-1.16431e-14
-1.16075e-14
-1.16612e-14
-1.16215e-14
-1.1658e-14
-1.1628e-14
-1.16516e-14
-1.16396e-14
-1.16663e-14
-1.16704e-14
-1.16686e-14
-1.16828e-14
-1.16569e-14
-1.16773e-14
-1.1664e-14
-1.16671e-14
-1.16631e-14
-1.16374e-14
-1.16698e-14
-1.16414e-14
-1.16565e-14
-1.16234e-14
-1.16516e-14
-1.16253e-14
-1.16405e-14
-1.16186e-14
-1.16228e-14
-1.1602e-14
-1.16126e-14
-1.15896e-14
-1.161e-14
-1.16118e-14
-1.15985e-14
-1.1581e-14
-1.15944e-14
-1.15999e-14
-1.15817e-14
-1.15948e-14
-1.15915e-14
-1.15674e-14
-1.15804e-14
-1.15446e-14
-1.1579e-14
-1.15089e-14
-1.15911e-14
-1.15197e-14
-1.15549e-14
-1.1513e-14
-1.15298e-14
-1.15078e-14
-1.15297e-14
-1.14736e-14
-1.14951e-14
-1.14536e-14
-1.14724e-14
-1.1451e-14
-1.14581e-14
-1.14355e-14
-1.14696e-14
-1.14401e-14
-1.14277e-14
-1.14315e-14
-1.14246e-14
-1.13803e-14
-1.14343e-14
-1.13957e-14
-1.14061e-14
-1.14298e-14
-1.14115e-14
-1.13982e-14
-1.1403e-14
-1.13624e-14
-1.14008e-14
-1.13841e-14
-1.14004e-14
-1.13853e-14
-5.41524e-15
-5.70344e-15
-5.4156e-15
-5.70351e-15
-5.41615e-15
-5.70362e-15
-5.41704e-15
-5.70381e-15
-5.41825e-15
-5.7041e-15
-5.41981e-15
-5.70448e-15
-5.42173e-15
-5.70496e-15
-5.42399e-15
-5.70552e-15
-5.4266e-15
-5.70618e-15
-5.42955e-15
-5.70697e-15
-5.43283e-15
-5.70785e-15
-5.43642e-15
-5.70891e-15
-5.44034e-15
-5.71006e-15
-5.44454e-15
-5.71133e-15
-5.44906e-15
-5.71268e-15
-5.45388e-15
-5.71414e-15
-5.45904e-15
-5.71569e-15
-5.46448e-15
-5.71735e-15
-5.47023e-15
-5.71911e-15
-5.47634e-15
-5.72102e-15
-5.48276e-15
-5.72297e-15
-5.48958e-15
-5.72501e-15
-5.49661e-15
-5.72711e-15
-5.50403e-15
-5.72938e-15
-5.5116e-15
-5.73192e-15
-5.51944e-15
-5.73468e-15
-5.52765e-15
-5.73746e-15
-5.53608e-15
-5.74027e-15
-5.54476e-15
-5.74311e-15
-5.55379e-15
-5.74614e-15
-5.5632e-15
-5.74944e-15
-5.57292e-15
-5.75278e-15
-5.58291e-15
-5.75606e-15
-5.59311e-15
-5.75935e-15
-5.60372e-15
-5.76282e-15
-5.61462e-15
-5.76644e-15
-5.62578e-15
-5.77023e-15
-5.63723e-15
-5.77408e-15
-5.64889e-15
-5.77829e-15
-5.66087e-15
-5.7826e-15
-5.67307e-15
-5.78685e-15
-5.68582e-15
-5.79112e-15
-5.69868e-15
-5.79566e-15
-5.71174e-15
-5.8004e-15
-5.72506e-15
-5.80517e-15
-5.73872e-15
-5.81013e-15
-5.75246e-15
-5.81522e-15
-5.76644e-15
-5.82035e-15
-5.78057e-15
-5.82582e-15
-5.79499e-15
-5.83143e-15
-5.8094e-15
-5.83716e-15
-5.82409e-15
-5.84303e-15
-5.83883e-15
-5.84903e-15
-5.85382e-15
-5.85524e-15
-5.869e-15
-5.8616e-15
-5.88435e-15
-5.8681e-15
-5.89993e-15
-5.87489e-15
-5.91547e-15
-5.88184e-15
-5.93137e-15
-5.88894e-15
-5.94748e-15
-5.8966e-15
-5.96354e-15
-5.90454e-15
-5.97981e-15
-5.91266e-15
-5.99641e-15
-5.92058e-15
-6.01332e-15
-5.92918e-15
-6.03055e-15
-5.93784e-15
-6.04747e-15
-5.9467e-15
-6.06471e-15
-5.95624e-15
-6.08225e-15
-5.96563e-15
-6.09997e-15
-5.97559e-15
-6.11775e-15
-5.98601e-15
-6.13583e-15
-5.99654e-15
-6.15386e-15
-6.00742e-15
-6.17207e-15
-6.01844e-15
-6.19036e-15
-6.02972e-15
-6.20904e-15
-6.04117e-15
-6.22824e-15
-6.05311e-15
-6.24729e-15
-6.06535e-15
-6.26664e-15
-6.07767e-15
-6.28628e-15
-6.09053e-15
-6.30665e-15
-6.10393e-15
-6.32709e-15
-6.11745e-15
-6.34784e-15
-6.13133e-15
-6.3691e-15
-6.14536e-15
-6.39044e-15
-6.15955e-15
-6.41188e-15
-6.17414e-15
-6.43383e-15
-6.18934e-15
-6.4563e-15
-6.20455e-15
-6.47887e-15
-6.22061e-15
-6.50174e-15
-6.23669e-15
-6.52471e-15
-6.25282e-15
-6.54736e-15
-6.26984e-15
-6.57075e-15
-6.28694e-15
-6.59423e-15
-6.30475e-15
-6.61782e-15
-6.32373e-15
-6.6415e-15
-6.34281e-15
-6.6655e-15
-6.36139e-15
-6.68981e-15
-6.37926e-15
-6.71357e-15
-6.39835e-15
-6.7372e-15
-6.41953e-15
-6.76071e-15
-6.44091e-15
-6.78409e-15
-6.46119e-15
-6.80862e-15
-6.48213e-15
-6.83171e-15
-6.50287e-15
-6.85379e-15
-6.52472e-15
-6.877e-15
-6.54726e-15
-6.8996e-15
-6.57095e-15
-6.92333e-15
-6.59494e-15
-6.94818e-15
-6.61706e-15
-6.97239e-15
-6.64213e-15
-6.99596e-15
-6.66754e-15
-7.01974e-15
-6.69245e-15
-7.04417e-15
-6.71817e-15
-7.06879e-15
-6.74517e-15
-7.09314e-15
-6.77216e-15
-7.11722e-15
-6.79958e-15
-7.141e-15
-6.82612e-15
-7.16669e-15
-6.85315e-15
-7.19205e-15
-6.88111e-15
-7.21751e-15
-6.90781e-15
-7.2435e-15
-6.93548e-15
-7.26911e-15
-6.96326e-15
-7.29476e-15
-6.99206e-15
-7.31954e-15
-7.02191e-15
-7.34432e-15
-7.05103e-15
-7.36818e-15
-7.08035e-15
-7.39108e-15
-7.11033e-15
-7.41617e-15
-7.141e-15
-7.44071e-15
-7.17104e-15
-7.46466e-15
-7.20137e-15
-7.488e-15
-7.23293e-15
-7.51342e-15
-7.2612e-15
-7.53908e-15
-7.28894e-15
-7.56494e-15
-7.31797e-15
-7.59099e-15
-7.34742e-15
-7.61628e-15
-7.37459e-15
-7.64169e-15
-7.40132e-15
-7.66538e-15
-7.42763e-15
-7.69093e-15
-7.45537e-15
-7.71741e-15
-7.48184e-15
-7.74388e-15
-7.50889e-15
-7.76848e-15
-7.53925e-15
-7.79571e-15
-7.56662e-15
-7.82282e-15
-7.59011e-15
-7.84975e-15
-7.61518e-15
-7.87469e-15
-7.64276e-15
-7.90029e-15
-7.67016e-15
-7.9256e-15
-7.6947e-15
-7.9497e-15
-7.71731e-15
-7.97343e-15
-7.74072e-15
-7.99766e-15
-7.76584e-15
-8.02323e-15
-7.79001e-15
-8.0483e-15
-7.81594e-15
-8.07371e-15
-7.84006e-15
-8.09764e-15
-7.86241e-15
-8.12183e-15
-7.88746e-15
-8.14623e-15
-7.91255e-15
-8.16989e-15
-7.93506e-15
-8.19629e-15
-7.95676e-15
-8.22188e-15
-7.97679e-15
-8.24574e-15
-7.99779e-15
-8.2722e-15
-8.01888e-15
-8.30034e-15
-8.04005e-15
-8.3249e-15
-8.06649e-15
-8.35278e-15
-8.09127e-15
-8.37874e-15
-8.11265e-15
-8.40962e-15
-8.1358e-15
-8.43853e-15
-8.15727e-15
-8.46715e-15
-8.17873e-15
-8.49376e-15
-8.20184e-15
-8.52172e-15
-8.22826e-15
-8.55097e-15
-8.24952e-15
-8.57813e-15
-8.2723e-15
-8.59984e-15
-8.29823e-15
-8.61941e-15
-8.32391e-15
-8.6434e-15
-8.34602e-15
-8.66515e-15
-8.37111e-15
-8.68624e-15
-8.39746e-15
-8.71151e-15
-8.42013e-15
-8.7344e-15
-8.44554e-15
-8.75487e-15
-8.47521e-15
-8.77609e-15
-8.50264e-15
-8.80274e-15
-8.5278e-15
-8.82682e-15
-8.55377e-15
-8.85144e-15
-8.58203e-15
-8.87812e-15
-8.60934e-15
-8.90211e-15
-8.63405e-15
-8.92494e-15
-8.66072e-15
-8.94504e-15
-8.68767e-15
-8.96847e-15
-8.71787e-15
-8.99208e-15
-8.74661e-15
-9.0158e-15
-8.77682e-15
-9.04107e-15
-8.80688e-15
-9.0678e-15
-8.8352e-15
-9.09148e-15
-8.86165e-15
-9.11505e-15
-8.88907e-15
-9.13552e-15
-8.92171e-15
-9.15575e-15
-8.95505e-15
-9.18424e-15
-8.98467e-15
-9.21084e-15
-9.01907e-15
-9.23123e-15
-9.05951e-15
-9.25381e-15
-9.09317e-15
-9.27842e-15
-9.12287e-15
-9.30773e-15
-9.14854e-15
-9.33336e-15
-9.17832e-15
-9.35802e-15
-9.21203e-15
-9.37892e-15
-9.24405e-15
-9.40136e-15
-9.27703e-15
-9.43056e-15
-9.31087e-15
-9.46101e-15
-9.34544e-15
-9.49263e-15
-9.37796e-15
-9.52797e-15
-9.40831e-15
-9.56439e-15
-9.43634e-15
-9.59673e-15
-9.46958e-15
-9.61989e-15
-9.50523e-15
-9.64403e-15
-9.53555e-15
-9.67659e-15
-9.55797e-15
-9.70999e-15
-9.58489e-15
-9.73678e-15
-9.61848e-15
-9.75694e-15
-9.64864e-15
-9.78263e-15
-9.67783e-15
-9.80638e-15
-9.71325e-15
-9.83529e-15
-9.74513e-15
-9.86201e-15
-9.78059e-15
-9.8864e-15
-9.82195e-15
-9.90593e-15
-9.86448e-15
-9.93436e-15
-9.89657e-15
-9.97378e-15
-9.93229e-15
-1.00009e-14
-9.96914e-15
-1.00271e-14
-1.00002e-14
-1.00616e-14
-1.00233e-14
-1.00929e-14
-1.00564e-14
-1.01255e-14
-1.00903e-14
-1.01527e-14
-1.01136e-14
-1.01834e-14
-1.01375e-14
-1.02155e-14
-1.01706e-14
-1.02423e-14
-1.02039e-14
-1.02725e-14
-1.02353e-14
-1.03084e-14
-1.02604e-14
-1.03349e-14
-1.02832e-14
-1.03608e-14
-1.03121e-14
-1.0386e-14
-1.03405e-14
-1.04086e-14
-1.03726e-14
-1.04304e-14
-1.0404e-14
-1.04471e-14
-1.04304e-14
-1.04671e-14
-1.04561e-14
-1.04902e-14
-1.04854e-14
-1.05246e-14
-1.0514e-14
-1.05496e-14
-1.05418e-14
-1.05693e-14
-1.0577e-14
-1.05918e-14
-1.06074e-14
-1.06294e-14
-1.06288e-14
-1.06616e-14
-1.06492e-14
-1.06889e-14
-1.06768e-14
-1.07196e-14
-1.06989e-14
-1.07456e-14
-1.07236e-14
-1.0784e-14
-1.07511e-14
-1.08094e-14
-1.0781e-14
-1.08261e-14
-1.08048e-14
-1.08595e-14
-1.08314e-14
-1.08884e-14
-1.08563e-14
-1.09084e-14
-1.08883e-14
-1.09278e-14
-1.09277e-14
-1.09505e-14
-1.09622e-14
-1.09761e-14
-1.09875e-14
-1.10001e-14
-1.10079e-14
-1.1032e-14
-1.10187e-14
-1.10683e-14
-1.10279e-14
-1.10964e-14
-1.10389e-14
-1.11261e-14
-1.10556e-14
-1.11534e-14
-1.1068e-14
-1.11838e-14
-1.10901e-14
-1.12077e-14
-1.1127e-14
-1.12196e-14
-1.11743e-14
-1.12275e-14
-1.1208e-14
-1.12565e-14
-1.12185e-14
-1.12758e-14
-1.12424e-14
-1.1296e-14
-1.12642e-14
-1.13114e-14
-1.12835e-14
-1.13272e-14
-1.12946e-14
-1.13495e-14
-1.13085e-14
-1.13614e-14
-1.13311e-14
-1.13801e-14
-1.1352e-14
-1.13999e-14
-1.13592e-14
-1.14028e-14
-1.13817e-14
-1.14057e-14
-1.14026e-14
-1.14139e-14
-1.14295e-14
-1.14399e-14
-1.14447e-14
-1.14519e-14
-1.14464e-14
-1.1464e-14
-1.14534e-14
-1.14976e-14
-1.14383e-14
-1.15024e-14
-1.14245e-14
-1.1507e-14
-1.14111e-14
-1.14985e-14
-1.14102e-14
-1.14906e-14
-1.14231e-14
-1.14816e-14
-1.14519e-14
-1.14831e-14
-1.1457e-14
-1.14811e-14
-1.14389e-14
-1.14618e-14
-1.14407e-14
-1.14681e-14
-1.14635e-14
-1.14381e-14
-1.14653e-14
-1.14134e-14
-1.14322e-14
-1.14256e-14
-1.14241e-14
-1.14614e-14
-1.14086e-14
-1.14649e-14
-1.13965e-14
-1.14375e-14
-1.14032e-14
-1.14376e-14
-1.13998e-14
-1.14191e-14
-1.14021e-14
-1.13961e-14
-1.13963e-14
-1.13814e-14
-1.13532e-14
-1.13796e-14
-1.13497e-14
-1.13593e-14
-1.1336e-14
-1.13355e-14
-1.13294e-14
-1.13367e-14
-1.13311e-14
-1.13325e-14
-1.1292e-14
-1.13441e-14
-1.12909e-14
-1.1357e-14
-1.1241e-14
-1.14002e-14
-1.12098e-14
-1.1405e-14
-1.11849e-14
-1.14116e-14
-1.11944e-14
-1.1421e-14
-1.11864e-14
-1.14009e-14
-1.13673e-14
-1.14205e-14
-1.13739e-14
-1.14302e-14
-1.13366e-14
-1.14269e-14
-1.13229e-14
-1.1412e-14
-1.13629e-14
-1.13763e-14
-1.1332e-14
-1.13499e-14
-1.13461e-14
-1.13424e-14
-1.13461e-14
-1.13193e-14
-1.13318e-14
-1.13105e-14
-1.12694e-14
-1.1324e-14
-1.12793e-14
-1.13285e-14
-1.12798e-14
-1.13415e-14
-1.12715e-14
-1.13637e-14
-1.12857e-14
-1.13644e-14
-1.13065e-14
-1.13569e-14
-1.13219e-14
-1.13682e-14
-1.13512e-14
-1.13972e-14
-1.13499e-14
-1.14157e-14
-1.13622e-14
-1.14252e-14
-1.1402e-14
-1.14546e-14
-1.14277e-14
-1.14429e-14
-1.1425e-14
-1.14498e-14
-1.14103e-14
-1.14464e-14
-1.14259e-14
-1.1461e-14
-1.14277e-14
-1.14644e-14
-1.14293e-14
-1.14715e-14
-1.14451e-14
-1.14812e-14
-1.14612e-14
-1.14925e-14
-1.1449e-14
-1.15212e-14
-1.14641e-14
-1.15406e-14
-1.15331e-14
-1.15473e-14
-1.15631e-14
-1.15661e-14
-1.15697e-14
-1.16039e-14
-1.15918e-14
-1.16348e-14
-1.16076e-14
-1.16603e-14
-1.16287e-14
-1.16939e-14
-1.16795e-14
-1.1734e-14
-1.1717e-14
-1.17561e-14
-1.17532e-14
-1.17837e-14
-1.17773e-14
-1.18048e-14
-1.18131e-14
-1.18302e-14
-1.1838e-14
-1.18482e-14
-1.18577e-14
-1.1887e-14
-1.1889e-14
-1.1903e-14
-1.19093e-14
-1.19235e-14
-1.19301e-14
-1.19428e-14
-1.19777e-14
-1.19653e-14
-1.2006e-14
-1.19752e-14
-1.20209e-14
-1.19879e-14
-1.20177e-14
-1.19993e-14
-1.20312e-14
-1.2014e-14
-1.2051e-14
-1.20369e-14
-1.20483e-14
-1.20496e-14
-1.20417e-14
-1.20625e-14
-1.20541e-14
-1.20755e-14
-1.20617e-14
-1.20843e-14
-1.20508e-14
-1.20939e-14
-1.20618e-14
-1.21042e-14
-1.2072e-14
-1.21152e-14
-1.20857e-14
-1.21181e-14
-1.20945e-14
-1.21299e-14
-1.21074e-14
-1.21506e-14
-1.21204e-14
-1.21549e-14
-1.21288e-14
-1.21643e-14
-1.21325e-14
-1.21748e-14
-1.21401e-14
-1.21904e-14
-1.21471e-14
-1.21945e-14
-1.21532e-14
-1.21955e-14
-1.21585e-14
-1.22017e-14
-1.21674e-14
-1.22045e-14
-1.21759e-14
-1.22038e-14
-1.2184e-14
-1.22078e-14
-1.21919e-14
-1.22204e-14
-1.21995e-14
-1.22336e-14
-1.22111e-14
-1.22388e-14
-1.22137e-14
-1.22488e-14
-1.2216e-14
-1.22679e-14
-1.22262e-14
-1.22752e-14
-1.22357e-14
-1.22662e-14
-1.22359e-14
-1.22706e-14
-1.22336e-14
-1.22755e-14
-1.22305e-14
-1.22833e-14
-1.22289e-14
-1.22856e-14
-1.22308e-14
-1.22845e-14
-1.22341e-14
-1.22885e-14
-1.22365e-14
-1.22957e-14
-1.22383e-14
-1.23038e-14
-1.2237e-14
-1.22973e-14
-1.22393e-14
-1.22961e-14
-1.22431e-14
-1.22978e-14
-1.2244e-14
-1.23002e-14
-1.22397e-14
-1.2301e-14
-1.22438e-14
-1.23024e-14
-1.22519e-14
-1.23042e-14
-1.22573e-14
-1.23065e-14
-1.22551e-14
-1.23092e-14
-1.22618e-14
-1.231e-14
-1.22681e-14
-1.23135e-14
-1.2274e-14
-1.23197e-14
-1.2282e-14
-1.23214e-14
-1.22873e-14
-1.23259e-14
-1.22899e-14
-1.23307e-14
-1.22972e-14
-1.23358e-14
-1.23042e-14
-1.23437e-14
-1.2306e-14
-1.23494e-14
-1.23076e-14
-1.23503e-14
-1.2314e-14
-1.23542e-14
-1.23176e-14
-1.23557e-14
-1.2321e-14
-1.23576e-14
-1.23242e-14
-1.23596e-14
-1.23247e-14
-1.23646e-14
-1.23249e-14
-1.23672e-14
-1.23302e-14
-1.23674e-14
-1.23381e-14
-1.23731e-14
-1.23323e-14
-1.23791e-14
-1.23318e-14
-1.23799e-14
-1.23419e-14
-1.23837e-14
-1.23491e-14
-1.23848e-14
-1.23535e-14
-1.2389e-14
-1.23549e-14
-1.23904e-14
-1.23562e-14
-1.23921e-14
-1.23574e-14
-1.23953e-14
-1.23584e-14
-1.23958e-14
-1.23606e-14
-1.23994e-14
-1.23641e-14
-1.24032e-14
-1.23631e-14
-1.24027e-14
-1.23692e-14
-1.24009e-14
-1.23782e-14
-1.2411e-14
-1.23811e-14
-1.24168e-14
-1.2381e-14
-1.24167e-14
-1.23837e-14
-1.24228e-14
-1.23848e-14
-1.2429e-14
-1.23888e-14
-1.24324e-14
-1.23896e-14
-1.24343e-14
-1.23886e-14
-1.24349e-14
-1.23969e-14
-1.24387e-14
-1.24066e-14
-1.24441e-14
-1.24068e-14
-1.24481e-14
-1.24069e-14
-1.24522e-14
-1.24069e-14
-1.24565e-14
-1.24099e-14
-1.24609e-14
-1.24128e-14
-1.24654e-14
-1.24172e-14
-1.24668e-14
-1.24248e-14
-1.247e-14
-1.24273e-14
-1.24716e-14
-1.24298e-14
-1.24733e-14
-1.24339e-14
-1.24735e-14
-1.24379e-14
-1.2477e-14
-1.24419e-14
-1.24773e-14
-1.24441e-14
-1.24794e-14
-1.24497e-14
-1.24831e-14
-1.24552e-14
-1.24853e-14
-1.24607e-14
-1.24908e-14
-1.24593e-14
-1.24948e-14
-1.24596e-14
-1.24988e-14
-1.24565e-14
-1.25029e-14
-1.24532e-14
-1.25071e-14
-1.24482e-14
-1.25114e-14
-1.24499e-14
-1.25141e-14
-1.24516e-14
-1.25169e-14
-1.24531e-14
-1.25189e-14
-1.24546e-14
-1.25202e-14
-1.24568e-14
-1.25259e-14
-1.24589e-14
-1.253e-14
-1.24618e-14
-1.25333e-14
-1.24611e-14
-1.25367e-14
-1.24603e-14
-1.25366e-14
-1.24584e-14
-1.25394e-14
-1.24609e-14
-1.25458e-14
-1.24669e-14
-1.25506e-14
-1.24701e-14
-1.25527e-14
-1.24723e-14
-1.2555e-14
-1.24717e-14
-1.25601e-14
-1.2471e-14
-1.25635e-14
-1.24738e-14
-1.2567e-14
-1.24747e-14
-1.25688e-14
-1.24746e-14
-1.25726e-14
-1.2478e-14
-1.25746e-14
-1.24813e-14
-1.25767e-14
-1.248e-14
-1.2578e-14
-1.24777e-14
-1.25795e-14
-1.24807e-14
-1.25801e-14
-1.24827e-14
-1.25826e-14
-1.24828e-14
-1.25852e-14
-1.24837e-14
-1.2587e-14
-1.24881e-14
-1.25889e-14
-1.24898e-14
-1.25899e-14
-1.24895e-14
-1.2592e-14
-1.24892e-14
-1.2595e-14
-1.24887e-14
-1.25982e-14
-1.24891e-14
-1.25996e-14
-1.24912e-14
-1.26001e-14
-1.24941e-14
-1.26008e-14
-1.24952e-14
-1.26024e-14
-1.24953e-14
-1.26032e-14
-1.24948e-14
-1.26032e-14
-1.24966e-14
-1.26032e-14
-1.24982e-14
-1.26033e-14
-1.24994e-14
-1.26035e-14
-1.24996e-14
-1.26037e-14
-1.25006e-14
-1.26049e-14
-1.25016e-14
-1.26052e-14
-1.25021e-14
-1.26047e-14
-1.25025e-14
-1.26061e-14
-1.25011e-14
-1.26074e-14
-1.24996e-14
-1.2608e-14
-1.24995e-14
-1.26086e-14
-1.25001e-14
-1.26092e-14
-1.25003e-14
-1.26095e-14
-1.25004e-14
-1.26089e-14
-1.25009e-14
-1.26088e-14
-1.25014e-14
-1.26092e-14
-1.25023e-14
-1.26087e-14
-1.25035e-14
-1.26092e-14
-1.2503e-14
-1.26097e-14
-1.25029e-14
-1.26099e-14
-1.25044e-14
-1.26091e-14
-1.2506e-14
-1.2608e-14
-1.25066e-14
-1.26078e-14
-1.25059e-14
-1.26073e-14
-1.25064e-14
-1.26071e-14
-1.25074e-14
-1.2607e-14
-1.25078e-14
-1.26067e-14
-1.25077e-14
-1.26065e-14
-1.25083e-14
-1.2606e-14
-1.25093e-14
-1.26054e-14
-1.25105e-14
-1.26046e-14
-1.25113e-14
-1.2604e-14
-1.25112e-14
-1.26039e-14
-1.25111e-14
-1.26036e-14
-1.25115e-14
-1.26033e-14
-1.25133e-14
-1.26031e-14
-1.25143e-14
-1.26028e-14
-1.25148e-14
-1.26026e-14
-1.25151e-14
-1.26024e-14
-1.25155e-14
-1.2602e-14
-1.25161e-14
-1.2602e-14
-1.25171e-14
-1.26023e-14
-1.25174e-14
-1.26023e-14
-1.25171e-14
-1.26024e-14
-1.25167e-14
-1.26025e-14
-1.25168e-14
-1.26028e-14
-1.25166e-14
-1.26032e-14
-1.25167e-14
-1.26031e-14
-1.25171e-14
-1.2603e-14
-1.25174e-14
-1.26028e-14
-1.25174e-14
-1.26026e-14
-1.25176e-14
-1.26026e-14
-1.25176e-14
-1.26025e-14
-1.25178e-14
-1.26024e-14
-1.2518e-14
-1.26022e-14
-1.25182e-14
-1.26018e-14
-1.2519e-14
-1.26017e-14
-1.25193e-14
-1.26018e-14
-1.25192e-14
-1.26017e-14
-1.25188e-14
-1.26016e-14
-1.25186e-14
-1.26013e-14
-1.25188e-14
-1.26013e-14
-1.2519e-14
-1.26012e-14
-1.25188e-14
-1.26013e-14
-1.25187e-14
-1.26012e-14
-1.25187e-14
-1.26012e-14
-1.25181e-14
-1.26012e-14
-1.25178e-14
-1.26013e-14
-1.25176e-14
-1.26012e-14
-1.25176e-14
-1.26008e-14
-1.25174e-14
-1.26009e-14
-1.25172e-14
-1.26009e-14
-1.2517e-14
-1.26008e-14
-1.25167e-14
-1.26006e-14
-1.25164e-14
-1.26005e-14
-1.25164e-14
-1.26005e-14
-1.25163e-14
-1.26004e-14
-1.25161e-14
-1.26005e-14
-1.25159e-14
-1.26006e-14
-1.25157e-14
-1.26007e-14
-1.25154e-14
-1.26006e-14
-1.25151e-14
-1.26005e-14
-1.25149e-14
-1.26006e-14
-1.25147e-14
-1.26007e-14
-1.25146e-14
-1.26008e-14
-1.25145e-14
-1.26009e-14
-1.25142e-14
-1.26009e-14
-1.25141e-14
-1.26008e-14
-1.25141e-14
-1.26008e-14
-1.2514e-14
-1.26007e-14
-1.25138e-14
-1.26007e-14
-1.25138e-14
-1.26007e-14
-1.25137e-14
-1.26007e-14
-1.25136e-14
-1.26006e-14
-1.25135e-14
-1.26006e-14
-1.25135e-14
-1.26005e-14
-1.25135e-14
-1.26005e-14
-1.25136e-14
-1.26005e-14
-1.25136e-14
-1.26005e-14
-1.25135e-14
-1.26004e-14
-1.25134e-14
-1.26004e-14
-1.25133e-14
-1.26004e-14
-1.25132e-14
-1.26004e-14
-1.25132e-14
-1.26003e-14
-1.25132e-14
-1.26003e-14
-1.25132e-14
-1.26003e-14
-1.25131e-14
-1.26003e-14
-1.25131e-14
-1.26002e-14
-1.2513e-14
-1.26002e-14
-1.2513e-14
-1.26001e-14
-1.2513e-14
-1.26001e-14
-1.2513e-14
-1.26e-14
-1.25131e-14
-1.26e-14
-1.25131e-14
-1.26e-14
-1.25131e-14
-1.25999e-14
-1.25131e-14
-1.25999e-14
-1.25131e-14
-1.25999e-14
-1.25131e-14
-1.25999e-14
-1.25131e-14
-1.25999e-14
-1.25131e-14
-1.25999e-14
-1.25131e-14
-1.25999e-14
-1.2513e-14
-1.25999e-14
-1.25131e-14
-1.25999e-14
-1.2513e-14
-1.14383e-14
-1.12056e-14
-1.1431e-14
-1.12056e-14
-1.13613e-14
-1.12718e-14
-1.13504e-14
-1.12854e-14
-1.13435e-14
-1.13195e-14
-1.13351e-14
-1.13134e-14
-1.13269e-14
-1.13028e-14
-1.13205e-14
-1.13191e-14
-1.13293e-14
-1.13333e-14
-1.13052e-14
-1.13481e-14
-1.12917e-14
-1.13405e-14
-1.12866e-14
-1.13264e-14
-1.13234e-14
-1.13036e-14
-1.13286e-14
-1.12968e-14
-1.13354e-14
-1.1287e-14
-1.13783e-14
-1.12869e-14
-1.13677e-14
-1.12911e-14
-1.13812e-14
-1.12999e-14
-1.13863e-14
-1.13294e-14
-1.13799e-14
-1.13201e-14
-1.13926e-14
-1.13166e-14
-1.14095e-14
-1.13163e-14
-1.14179e-14
-1.13331e-14
-1.14171e-14
-1.1354e-14
-1.14355e-14
-1.13661e-14
-1.14436e-14
-1.13698e-14
-1.14567e-14
-1.13796e-14
-1.14752e-14
-1.14095e-14
-1.1484e-14
-1.13894e-14
-1.14993e-14
-1.13883e-14
-1.15217e-14
-1.14321e-14
-1.15493e-14
-1.1479e-14
-1.15814e-14
-1.15042e-14
-1.16185e-14
-1.15483e-14
-1.16405e-14
-1.15858e-14
-1.16529e-14
-1.16122e-14
-1.16926e-14
-1.16542e-14
-1.17338e-14
-1.17049e-14
-1.17638e-14
-1.17282e-14
-1.18014e-14
-1.17546e-14
-1.18355e-14
-1.17773e-14
-1.18613e-14
-1.18189e-14
-1.18782e-14
-1.18456e-14
-1.18915e-14
-1.187e-14
-1.19167e-14
-1.1887e-14
-1.19432e-14
-1.19126e-14
-1.19551e-14
-1.19413e-14
-1.19729e-14
-1.19733e-14
-1.19855e-14
-1.19939e-14
-1.19875e-14
-1.19987e-14
-1.19991e-14
-1.20085e-14
-1.20101e-14
-1.20279e-14
-1.20298e-14
-1.20231e-14
-1.20494e-14
-1.20224e-14
-1.20602e-14
-1.20344e-14
-1.20765e-14
-1.20405e-14
-1.20938e-14
-1.20403e-14
-1.21083e-14
-1.20381e-14
-1.21162e-14
-1.20558e-14
-1.21305e-14
-1.20578e-14
-1.21471e-14
-1.20528e-14
-1.21494e-14
-1.20575e-14
-1.21459e-14
-1.20761e-14
-1.21401e-14
-1.20964e-14
-1.21523e-14
-1.2102e-14
-1.21657e-14
-1.21145e-14
-1.2176e-14
-1.21295e-14
-1.21872e-14
-1.21346e-14
-1.2187e-14
-1.2134e-14
-1.2192e-14
-1.21403e-14
-1.21982e-14
-1.21493e-14
-1.22096e-14
-1.21654e-14
-1.22093e-14
-1.21845e-14
-1.2218e-14
-1.21946e-14
-1.22272e-14
-1.22042e-14
-1.22368e-14
-1.22091e-14
-1.22469e-14
-1.22134e-14
-1.22534e-14
-1.22213e-14
-1.22604e-14
-1.22329e-14
-1.2272e-14
-1.22354e-14
-1.2278e-14
-1.22352e-14
-1.22717e-14
-1.22299e-14
-1.22726e-14
-1.22305e-14
-1.22762e-14
-1.22348e-14
-1.22761e-14
-1.22384e-14
-1.22764e-14
-1.22372e-14
-1.22772e-14
-1.22332e-14
-1.22808e-14
-1.22352e-14
-1.22893e-14
-1.22388e-14
-1.22984e-14
-1.22418e-14
-1.23084e-14
-1.22417e-14
-1.23079e-14
-1.22409e-14
-1.23129e-14
-1.22392e-14
-1.23235e-14
-1.22435e-14
-1.23259e-14
-1.22493e-14
-1.23245e-14
-1.22518e-14
-1.23312e-14
-1.22583e-14
-1.23292e-14
-1.22688e-14
-1.23303e-14
-1.2274e-14
-1.23321e-14
-1.22738e-14
-1.23297e-14
-1.22803e-14
-1.23302e-14
-1.22839e-14
-1.23385e-14
-1.22896e-14
-1.23474e-14
-1.22973e-14
-1.23493e-14
-1.22996e-14
-1.23516e-14
-1.22965e-14
-1.23519e-14
-1.22979e-14
-1.23526e-14
-1.23039e-14
-1.23589e-14
-1.23096e-14
-1.23578e-14
-1.23123e-14
-1.23596e-14
-1.23146e-14
-1.2367e-14
-1.2314e-14
-1.23749e-14
-1.23157e-14
-1.23805e-14
-1.23249e-14
-1.23839e-14
-1.23257e-14
-1.23878e-14
-1.23234e-14
-1.23948e-14
-1.23262e-14
-1.23967e-14
-1.23368e-14
-1.23991e-14
-1.23388e-14
-1.24019e-14
-1.23432e-14
-1.23994e-14
-1.23501e-14
-1.24028e-14
-1.23568e-14
-1.24008e-14
-1.23633e-14
-1.24062e-14
-1.23682e-14
-1.24119e-14
-1.2373e-14
-1.24119e-14
-1.23762e-14
-1.24151e-14
-1.23734e-14
-1.24185e-14
-1.23734e-14
-1.24222e-14
-1.23807e-14
-1.24276e-14
-1.23892e-14
-1.24317e-14
-1.23887e-14
-1.24375e-14
-1.23865e-14
-1.2439e-14
-1.23902e-14
-1.24453e-14
-1.23952e-14
-1.24473e-14
-1.23955e-14
-1.2451e-14
-1.23987e-14
-1.24565e-14
-1.24065e-14
-1.24622e-14
-1.2411e-14
-1.2465e-14
-1.24122e-14
-1.24664e-14
-1.24085e-14
-1.24712e-14
-1.24078e-14
-1.24746e-14
-1.24101e-14
-1.24799e-14
-1.24122e-14
-1.24822e-14
-1.24174e-14
-1.24814e-14
-1.24192e-14
-1.24857e-14
-1.24191e-14
-1.24869e-14
-1.24206e-14
-1.24916e-14
-1.24202e-14
-1.24932e-14
-1.24246e-14
-1.24916e-14
-1.24355e-14
-1.24952e-14
-1.2443e-14
-1.2499e-14
-1.24403e-14
-1.24995e-14
-1.24425e-14
-1.25019e-14
-1.24462e-14
-1.25061e-14
-1.24448e-14
-1.25104e-14
-1.24431e-14
-1.25149e-14
-1.24431e-14
-1.25213e-14
-1.24464e-14
-1.25262e-14
-1.24513e-14
-1.25277e-14
-1.24526e-14
-1.25294e-14
-1.24537e-14
-1.25312e-14
-1.24574e-14
-1.25331e-14
-1.2461e-14
-1.25343e-14
-1.24645e-14
-1.25338e-14
-1.24643e-14
-1.25361e-14
-1.24641e-14
-1.25358e-14
-1.24673e-14
-1.25392e-14
-1.24686e-14
-1.25401e-14
-1.24716e-14
-1.25383e-14
-1.24737e-14
-1.25393e-14
-1.24757e-14
-1.25439e-14