/*--------------------------------*- C++ -*----------------------------------*\
| =========                 |                                                 |
| \\      /  F ield         | OpenFOAM: The Open Source CFD Toolbox           |
|  \\    /   O peration     | Version:  2012                                  |
|   \\  /    A nd           | Website:  www.openfoam.com                      |
|    \\/     M anipulation  |                                                 |
\*---------------------------------------------------------------------------*/
FoamFile
{
    version     2.0;
    format      ascii;
    class       volTensorField;
    location    "6000";
    object      grad(U);
}
// * * * * * * * * * * * * * * * * * * * * * * * * * * * * * * * * * * * * * //

dimensions      [0 0 -1 0 0 0 0];


internalField   nonuniform List<tensor> 
5120
(
(0 -8.36783e-25 3.24143e-32 52.2291 -3.56435e-11 -5.2731e-13 0.0378835 -1.2926e-14 -1.39197e-16)
(-4.5619e-18 -6.43499e-28 -6.38847e-28 52.2291 -1.23442e-16 -7.63323e-15 0.0378835 -1.03323e-19 -1.55575e-17)
(0 0 4.41146e-31 52.2213 6.46238e-27 -4.43015e-14 0.113916 1.16818e-44 -6.4728e-17)
(0 -1.64769e-29 -2.57452e-31 52.2213 -3.39329e-15 -5.58406e-15 0.113916 -2.7762e-18 -1.60255e-16)
(3.0937e-17 -2.73608e-29 -1.90506e-31 52.2082 3.87139e-12 -1.97861e-14 0.154196 -1.04085e-14 -5.16979e-17)
(0 2.45379e-29 2.55603e-31 52.2082 -3.54545e-15 -1.90412e-16 0.154196 -5.465e-18 -1.62566e-16)
(-3.57147e-17 1.62411e-29 2.53768e-31 52.1893 2.16612e-12 -1.81427e-14 0.155246 -1.23879e-14 -5.58884e-17)
(0 -8.12057e-30 -1.26884e-31 52.1893 -3.77525e-15 -1.78851e-16 0.155246 -8.52314e-18 -1.64898e-16)
(2.62178e-17 -6.27276e-29 -9.49275e-31 52.1645 -9.31451e-15 -1.9199e-14 0.156286 -4.71006e-16 -5.87795e-17)
(1.04871e-16 5.64358e-29 7.55837e-31 52.1645 -3.76343e-15 -1.67096e-16 0.156286 -1.16273e-17 -1.67253e-16)
(-3.69196e-17 3.03441e-29 4.44329e-31 52.1338 -1.29552e-13 -1.97667e-14 0.157315 -3.07696e-16 -6.01271e-17)
(7.72711e-17 -1.60087e-29 -2.50136e-31 52.1338 -3.79671e-15 -1.55487e-16 0.157315 -1.47514e-17 -1.69629e-16)
(-4.76942e-17 1.96182e-44 3.1922e-31 52.0974 4.22218e-27 -2.00084e-14 0.158334 6.31089e-30 -6.11025e-17)
(0 -1.58938e-29 -2.4834e-31 52.0974 -3.89111e-15 -1.43426e-16 0.158334 -1.79467e-17 -1.72027e-16)
(-1.27941e-16 5.37169e-29 5.65769e-31 52.0552 1.30906e-14 -2.01979e-14 0.159341 -3.95031e-17 -6.21607e-17)
(-1.64764e-16 -4.73389e-29 -4.93114e-31 52.0552 -3.90118e-15 -1.30465e-16 0.159341 -2.12773e-17 -1.74448e-16)
(-6.94592e-17 -1.45653e-30 7.44623e-32 52.0074 9.19057e-15 -2.04007e-14 0.160337 -4.03866e-17 -6.32408e-17)
(0 1.56663e-29 1.22393e-31 52.0074 -3.84957e-15 -1.17378e-16 0.160337 -2.44779e-17 -1.76891e-16)
(-1.60896e-16 6.71978e-29 8.81698e-31 51.9539 5.00307e-15 -2.0602e-14 0.161322 -1.60175e-17 -6.43135e-17)
(-3.21793e-16 -5.44384e-29 -7.29086e-31 51.9539 -3.82324e-15 -1.0471e-16 0.161322 -2.77906e-17 -1.79356e-16)
(1.3583e-16 0 -1.20642e-31 51.8948 5.23994e-15 -2.07988e-14 0.162295 -1.49536e-17 -6.53908e-17)
(5.96226e-16 7.72107e-30 2.41283e-31 51.8948 -3.81932e-15 -9.13909e-17 0.162295 -3.11131e-17 -1.81844e-16)
(1.02635e-16 -6.3787e-30 -1.99872e-31 51.8303 5.98421e-15 -2.09947e-14 0.163257 -1.77325e-17 -6.64823e-17)
(-4.1054e-16 7.66563e-30 2.39551e-31 51.8303 -3.9505e-15 -7.7873e-17 0.163257 -3.44962e-17 -1.84353e-16)
(9.37763e-17 -5.14524e-30 7.37453e-32 51.7602 6.32801e-15 -2.11916e-14 0.164207 -1.98624e-17 -6.75904e-17)
(5.89213e-16 -7.61058e-30 -2.37831e-31 51.7602 -4.00547e-15 -6.47964e-17 0.164207 -3.81535e-17 -1.86885e-16)
(0 0 0 51.6848 6.36522e-15 -2.13903e-14 0.165145 -2.01728e-17 -6.87179e-17)
(5.00382e-16 7.55593e-30 1.18061e-31 51.6848 -4.00324e-15 -5.06708e-17 0.165145 -4.16986e-17 -1.89439e-16)
(-1.27515e-16 3.11315e-29 2.65605e-31 51.604 6.45792e-15 -2.15907e-14 0.16607 -2.03887e-17 -6.98628e-17)
(0 -1.50033e-29 -1.17214e-31 51.604 -4.04456e-15 -3.49614e-17 0.16607 -4.53104e-17 -1.92016e-16)
(-4.09869e-16 2.87196e-29 5.53573e-31 51.5179 6.55717e-15 -2.17927e-14 0.166984 -2.10628e-17 -7.10259e-17)
(5.91292e-16 -7.4478e-30 -1.16372e-31 51.5179 -3.8974e-15 -1.96382e-17 0.166984 -4.89212e-17 -1.94614e-16)
(1.59285e-16 -6.37563e-30 2.53654e-32 51.4265 6.62383e-15 -2.19961e-14 0.167884 -2.13288e-17 -7.22066e-17)
(1.27428e-15 0 -1.15536e-31 51.4265 -3.83209e-15 -5.2581e-18 0.167884 -5.22513e-17 -1.97233e-16)
(5.16592e-16 -2.20237e-29 -3.4412e-31 51.33 6.79258e-15 -2.22013e-14 0.168772 -2.18041e-17 -7.34077e-17)
(0 2.20237e-29 4.58826e-31 51.33 -4.0149e-15 1.03933e-17 0.168772 -5.57931e-17 -1.99876e-16)
(-2.56441e-16 2.18655e-29 5.69414e-31 51.2283 6.98443e-15 -2.24079e-14 0.169648 -2.27492e-17 -7.46246e-17)
(0 0 -2.27766e-31 51.2283 -4.12203e-15 2.80806e-17 0.169648 -5.95608e-17 -2.02543e-16)
(-3.88105e-16 5.61642e-29 8.71685e-31 51.1216 6.92116e-15 -2.26154e-14 0.17051 -2.33926e-17 -7.58593e-17)
(0 -4.3417e-29 -6.7839e-31 51.1216 -4.18829e-15 4.50514e-17 0.17051 -6.32903e-17 -2.05228e-16)
(-2.05766e-16 1.35573e-29 6.60147e-31 51.0098 6.74897e-15 -2.28247e-14 0.171359 -2.26569e-17 -7.71156e-17)
(0 0 -2.24506e-31 51.0098 -4.1288e-15 6.14277e-17 0.171359 -6.7089e-17 -2.07936e-16)
(6.86037e-16 -3.4143e-29 -6.48097e-31 50.8931 6.68361e-15 -2.30357e-14 0.172195 -2.25741e-17 -7.83901e-17)
(8.70162e-16 2.13978e-29 5.57235e-31 50.8931 -3.98575e-15 7.92103e-17 0.172195 -7.07677e-17 -2.10665e-16)
(0 7.08139e-30 1.10647e-31 50.7716 6.58613e-15 -2.32482e-14 0.173017 -2.25431e-17 -7.96849e-17)
(0 0 1.10647e-31 50.7716 -4.13223e-15 9.90216e-17 0.173017 -7.45548e-17 -2.13416e-16)
(2.47365e-16 0 2.19704e-31 50.6452 6.58587e-15 -2.34622e-14 0.173826 -2.22366e-17 -8.09994e-17)
(-9.65072e-16 0 -2.19704e-31 50.6452 -4.27135e-15 1.19097e-16 0.173826 -7.86229e-17 -2.16185e-16)
(-2.45589e-16 2.09402e-29 4.36254e-31 50.514 6.60536e-15 -2.36775e-14 0.174621 -2.28686e-17 -8.23324e-17)
(0 -6.98006e-30 0 50.514 -4.22894e-15 1.36659e-16 0.174621 -8.27036e-17 -2.18972e-16)
(-7.95683e-16 5.37611e-29 7.65065e-31 50.3782 6.39129e-15 -2.38942e-14 0.175402 -2.26944e-17 -8.36863e-17)
(0 -3.46497e-29 -4.33121e-31 50.3782 -3.98604e-15 1.54529e-16 0.175402 -8.66478e-17 -2.21782e-16)
(0 -2.06405e-29 -4.30011e-31 50.2377 6.10697e-15 -2.41128e-14 0.17617 -2.17079e-17 -8.50626e-17)
(2.21834e-15 2.06405e-29 4.30011e-31 50.2377 -3.60022e-15 1.74995e-16 0.17617 -9.01277e-17 -2.24614e-16)
(-2.89412e-16 -7.29183e-30 -9.78159e-32 50.0926 6.09482e-15 -2.43331e-14 0.176923 -2.1027e-17 -8.64599e-17)
(1.15765e-15 1.36615e-29 4.26923e-31 50.0926 -3.62508e-15 1.94469e-16 0.176923 -9.32635e-17 -2.2746e-16)
(0 0 -2.11929e-31 49.9431 6.4544e-15 -2.45545e-14 0.177662 -2.19371e-17 -8.78749e-17)
(1.20634e-15 6.78171e-30 4.23857e-31 49.9431 -4.01835e-15 2.14036e-16 0.177662 -9.7199e-17 -2.30328e-16)
(0 1.3466e-29 6.3122e-31 49.7891 6.79088e-15 -2.4777e-14 0.178386 -2.38943e-17 -8.93125e-17)
(-1.25525e-15 -2.69321e-29 -8.41627e-31 49.7891 -4.27418e-15 2.35272e-16 0.178386 -1.0182e-16 -2.33216e-16)
(-6.52185e-16 3.2789e-29 6.64736e-31 49.6307 6.80753e-15 -2.50005e-14 0.179096 -2.46705e-17 -9.07659e-17)
(0 -2.0054e-29 -4.17792e-31 49.6307 -4.26008e-15 2.53756e-16 0.179096 -1.06346e-16 -2.36117e-16)
(0 1.32733e-29 2.07396e-31 49.468 6.7611e-15 -2.52253e-14 0.179792 -2.43616e-17 -9.22461e-17)
(1.35369e-15 -6.63666e-30 0 49.468 -4.15989e-15 2.73221e-16 0.179792 -1.11008e-16 -2.39042e-16)
(3.50804e-16 -6.56674e-29 -1.57026e-30 49.3011 6.88351e-15 -2.54524e-14 0.180472 -2.46907e-17 -9.37492e-17)
(1.40322e-15 5.93011e-29 1.23544e-30 49.3011 -3.96874e-15 2.94887e-16 0.180472 -1.15376e-16 -2.41985e-16)
(-7.26469e-16 -3.5216e-31 -5.54294e-31 49.1301 7.0173e-15 -2.56807e-14 0.181138 -2.5613e-17 -9.52719e-17)
(2.90588e-15 6.54169e-30 4.08856e-31 49.1301 -4.02493e-15 3.15459e-16 0.181138 -1.19386e-16 -2.44946e-16)
(-1.28976e-15 1.93543e-29 7.43429e-31 48.9549 7.06075e-15 -2.59099e-14 0.181789 -2.60374e-17 -9.68157e-17)
(2.4169e-15 -1.29894e-29 -6.0888e-31 48.9549 -4.11189e-15 3.35934e-16 0.181789 -1.23946e-16 -2.47927e-16)
(-7.76478e-16 -6.61582e-30 -5.31133e-31 48.7757 7.02138e-15 -2.61404e-14 0.182425 -2.63081e-17 -9.83822e-17)
(3.10591e-15 1.28962e-29 4.03005e-31 48.7757 -3.97845e-15 3.59388e-16 0.182425 -1.27983e-16 -2.50931e-16)
(9.0097e-16 -2.56071e-29 -4.00111e-31 48.5925 7.10124e-15 -2.6373e-14 0.183045 -2.61203e-17 -9.99771e-17)
(0 2.56071e-29 4.00111e-31 48.5925 -4.15698e-15 3.84429e-16 0.183045 -1.32139e-16 -2.53951e-16)
(-8.60679e-16 1.90743e-29 7.39221e-31 48.4054 7.16154e-15 -2.66071e-14 0.183651 -2.72929e-17 -1.0159e-16)
(0 -6.3558e-30 -3.97238e-31 48.4054 -4.20727e-15 4.04656e-16 0.183651 -1.36695e-16 -2.56986e-16)
(-4.2609e-16 6.36207e-30 1.46402e-31 48.2145 6.93351e-15 -2.68426e-14 0.184241 -2.6958e-17 -1.03232e-16)
(0 1.26203e-29 1.97193e-31 48.2145 -4.03283e-15 4.23752e-16 0.184241 -1.41275e-16 -2.60044e-16)
(0 -6.26485e-30 0 48.0198 6.82465e-15 -2.70805e-14 0.184815 -2.59429e-17 -1.049e-16)
(0 6.26485e-30 0 48.0198 -4.18663e-15 4.48215e-16 0.184815 -1.45904e-16 -2.63127e-16)
(4.51541e-16 3.71782e-29 1.20796e-30 47.8214 6.76536e-15 -2.73201e-14 0.185374 -2.65097e-17 -1.06592e-16)
(-1.80616e-15 -4.3539e-29 -1.36059e-30 47.8214 -4.3201e-15 4.74027e-16 0.185374 -1.50974e-16 -2.66224e-16)
(8.9887e-16 -2.48859e-29 -5.41779e-31 47.6194 6.62414e-15 -2.75615e-14 0.185918 -2.58589e-17 -1.08312e-16)
(-4.34541e-16 1.85256e-29 3.8595e-31 47.6194 -4.02232e-15 4.95462e-16 0.185918 -1.55975e-16 -2.69335e-16)
(0 0 1.91589e-31 47.4139 6.67978e-15 -2.78041e-14 0.186446 -2.57895e-17 -1.10052e-16)
(0 1.22617e-29 0 47.4139 -3.96174e-15 5.1623e-16 0.186446 -1.60175e-16 -2.72466e-16)
(4.28323e-16 -1.21737e-29 -3.80427e-31 47.2048 6.84638e-15 -2.80482e-14 0.186958 -2.66729e-17 -1.11822e-16)
(0 1.21737e-29 3.80427e-31 47.2048 -4.19237e-15 5.41365e-16 0.186958 -1.65071e-16 -2.75617e-16)
(-5.02926e-16 -5.72804e-30 -4.00799e-31 46.9924 6.93261e-15 -2.82939e-14 0.187454 -2.74865e-17 -1.13615e-16)
(0 6.04312e-30 3.77695e-31 46.9924 -4.03925e-15 5.68098e-16 0.187454 -1.70452e-16 -2.78783e-16)
(-5.15867e-16 6.35751e-30 -2.05822e-31 46.7766 6.72089e-15 -2.85412e-14 0.187934 -2.77497e-17 -1.15437e-16)
(0 5.99972e-30 5.62474e-31 46.7766 -3.94717e-15 5.89387e-16 0.187934 -1.75063e-16 -2.81957e-16)
(-5.28843e-16 1.23138e-29 1.72635e-31 46.5575 6.43618e-15 -2.87903e-14 0.188398 -2.61803e-17 -1.17284e-16)
(0 0 3.7229e-31 46.5575 -4.08128e-15 6.10119e-16 0.188398 -1.80257e-16 -2.85158e-16)
(8.32303e-16 -1.77416e-29 -3.69617e-31 46.3352 6.64123e-15 -2.90409e-14 0.188846 -2.58429e-17 -1.19162e-16)
(-8.32303e-16 1.77416e-29 3.69617e-31 46.3352 -3.95843e-15 6.37706e-16 0.188846 -1.85224e-16 -2.88383e-16)
(0 -5.8714e-30 -5.50444e-31 46.1098 6.73811e-15 -2.92934e-14 0.189278 -2.82358e-17 -1.21065e-16)
(0 5.8714e-30 5.50444e-31 46.1098 -4.34409e-15 6.64391e-16 0.189278 -1.89425e-16 -2.91618e-16)
(-1.13595e-15 7.10028e-29 2.18847e-30 45.8813 6.60956e-15 -2.95474e-14 0.189693 -2.70155e-17 -1.22996e-16)
(-2.27189e-15 -5.82924e-29 -1.82164e-30 45.8813 -4.63426e-15 6.84167e-16 0.189693 -1.95645e-16 -2.94864e-16)
(-5.81081e-16 -3.99445e-29 -8.98001e-31 45.6498 6.80378e-15 -2.98027e-14 0.190093 -2.75801e-17 -1.24955e-16)
(4.64865e-15 5.78738e-29 1.44684e-30 45.6498 -3.95348e-15 6.08692e-16 0.190093 -2.01418e-16 -2.98133e-16)
(5.94218e-16 -5.23201e-29 -1.98648e-30 45.4154 6.88963e-15 -3.00602e-14 0.190476 -2.90293e-17 -1.26948e-16)
(2.37687e-15 4.59666e-29 -4.18596e-32 45.4154 -3.93187e-15 -1.9968e-29 0.190476 -2.056e-16 -3.0163e-16)
(-6.07384e-16 6.35279e-30 -1.61785e-31 45.1781 7.21672e-15 -3.03192e-14 0.190843 -2.87026e-17 -1.28963e-16)
(0 1.14091e-29 7.1307e-31 45.1781 -4.21025e-15 -1.54013e-17 0.190843 -2.10928e-16 -3.05748e-16)
(0 0 0 44.938 7.72942e-15 -3.05789e-14 0.191193 -3.22215e-17 -1.31006e-16)
(2.48231e-15 0 3.53975e-31 44.938 -4.49879e-15 -1.41523e-17 0.191193 -2.16206e-16 -3.0917e-16)
(-1.2676e-15 5.76838e-29 2.16242e-30 44.6953 7.74257e-15 -3.08394e-14 0.191527 -3.34937e-17 -1.33074e-16)
(-2.53519e-15 -4.49834e-29 -1.75716e-30 44.6953 -4.98816e-15 -1.81814e-17 0.191527 -2.2204e-16 -3.12547e-16)
(-1.29409e-15 1.82812e-29 4.13326e-31 44.4498 7.625e-15 -3.1101e-14 0.191844 -3.28023e-17 -1.35173e-16)
(2.58818e-15 0 3.48909e-31 44.4498 -4.7075e-15 -2.12504e-17 0.191844 -2.28157e-16 -3.1595e-16)
(0 1.10849e-29 3.46404e-31 44.2018 7.36357e-15 -3.13652e-14 0.192145 -3.29622e-17 -1.3731e-16)
(0 0 0 44.2018 -4.60323e-15 -1.22979e-17 0.192145 -2.33521e-16 -3.19368e-16)
(-6.73607e-16 2.28559e-29 9.02767e-31 43.9513 6.99697e-15 -3.16315e-14 0.192429 -3.09993e-17 -1.39474e-16)
(-3.46886e-15 -5.50266e-30 -1.39502e-30 43.9513 -4.71863e-15 -6.92512e-18 0.192429 -2.39093e-16 -3.22772e-16)
(0 -6.00946e-29 -2.04868e-30 43.6983 6.58357e-15 -3.18995e-14 0.192697 -3.02214e-17 -1.41674e-16)
(2.74769e-15 6.00946e-29 2.04868e-30 43.6983 -4.14222e-15 -2.30863e-17 0.192697 -2.44607e-16 -3.26216e-16)
(1.5267e-15 -5.96631e-29 -2.03397e-30 43.4429 6.08913e-15 -3.217e-14 0.192948 -2.77927e-17 -1.43909e-16)
(4.07537e-15 5.96631e-29 2.03397e-30 43.4429 -3.65797e-15 -2.69278e-17 0.192948 -2.49533e-16 -3.29685e-16)
(0 1.61549e-29 6.73121e-31 43.1853 6.09168e-15 -3.24413e-14 0.193182 -2.62551e-17 -1.46164e-16)
(0 -5.38497e-30 -3.3656e-31 43.1853 -4.20601e-15 -1.4671e-17 0.193182 -2.54954e-16 -3.33168e-16)
(2.54352e-17 -2.57323e-29 -1.4384e-30 42.9254 6.42981e-15 -3.27124e-14 0.1934 -2.82192e-17 -1.48448e-16)
(-2.90796e-15 1.60389e-29 9.14569e-31 42.9254 -4.80694e-15 -5.97817e-18 0.1934 -2.61613e-16 -3.36635e-16)
(0 2.12316e-29 9.95232e-31 42.6633 6.98366e-15 -3.29848e-14 0.193601 -2.96924e-17 -1.50767e-16)
(2.96152e-15 -1.59237e-29 -3.31744e-31 42.6633 -4.81721e-15 -1.9269e-17 0.193601 -2.67393e-16 -3.40125e-16)
(0 2.10792e-29 9.88086e-31 42.3991 7.38164e-15 -3.32581e-14 0.193786 -3.3671e-17 -1.5311e-16)
(3.01516e-15 -1.58094e-29 -6.58724e-31 42.3991 -5.09532e-15 -2.73102e-17 0.193786 -2.73681e-16 -3.43636e-16)
(-7.67213e-16 -2.50497e-29 -1.71586e-30 42.1329 7.2572e-15 -3.35333e-14 0.193953 -3.37729e-17 -1.55497e-16)
(0 3.66236e-29 1.96198e-30 42.1329 -5.12033e-15 -2.35733e-17 0.193953 -2.80805e-16 -3.4714e-16)
(1.46209e-15 -3.63606e-29 -1.94789e-30 41.8647 7.21792e-15 -3.38099e-14 0.194104 -3.30106e-17 -1.57906e-16)
(1.66051e-15 3.63606e-29 1.94789e-30 41.8647 -4.71458e-15 -2.20154e-17 0.194104 -2.86876e-16 -3.50645e-16)
(-2.24569e-15 2.1811e-29 1.54497e-30 41.5946 7.67424e-15 -3.40872e-14 0.194238 -3.38977e-17 -1.60353e-16)
(0 -1.03142e-29 -6.44635e-31 41.5946 -4.28611e-15 -1.26825e-17 0.194238 -2.94368e-16 -3.54147e-16)
(8.69794e-17 9.02195e-30 1.01941e-30 41.3227 8.23356e-15 -3.43682e-14 0.194355 -3.77656e-17 -1.6285e-16)
(-1.44116e-15 0 -3.20003e-31 41.3227 -3.92053e-15 -7.80706e-18 0.194355 -2.99967e-16 -3.5764e-16)
(-2.96726e-15 5.71698e-29 3.12492e-30 41.049 8.57827e-15 -3.46515e-14 0.194456 -3.96686e-17 -1.65374e-16)
(-1.85332e-15 -4.06662e-29 -2.54164e-30 41.049 -4.58681e-15 -1.86247e-17 0.194456 -3.05118e-16 -3.6116e-16)
(-2.3793e-15 4.29519e-29 1.80298e-30 40.7735 8.66678e-15 -3.49342e-14 0.19454 -4.15907e-17 -1.67921e-16)
(-2.62779e-15 -3.02806e-29 -1.26169e-30 40.7735 -5.64178e-15 -1.55839e-17 0.19454 -3.13669e-16 -3.64685e-16)
(-1.69601e-15 6.27744e-29 3.05684e-30 40.4965 7.92533e-15 -3.52175e-14 0.194607 -4.1092e-17 -1.70508e-16)
(-3.39202e-15 -5.01053e-29 -2.50527e-30 40.4965 -5.28876e-15 -1.50334e-17 0.194607 -3.2044e-16 -3.68209e-16)
(1.40021e-15 -9.94911e-30 -6.21819e-31 40.2179 7.09391e-15 -3.5504e-14 0.194658 -3.50439e-17 -1.73141e-16)
(3.44601e-15 9.94911e-30 6.21819e-31 40.2179 -4.32014e-15 -2.33535e-17 0.194658 -3.26235e-16 -3.71739e-16)
(-8.75004e-16 6.33383e-30 -2.2357e-32 39.9377 7.22155e-15 -3.57923e-14 0.194692 -3.36123e-17 -1.75804e-16)
(3.50002e-15 9.87766e-30 9.26031e-31 39.9377 -4.19341e-15 -2.20826e-17 0.194692 -3.31763e-16 -3.75283e-16)
(0 0 0 39.6561 7.63555e-15 -3.60811e-14 0.194709 -3.68015e-17 -1.78501e-16)
(3.55404e-15 9.80673e-30 6.12921e-31 39.6561 -4.43399e-15 -1.72339e-17 0.194709 -3.37892e-16 -3.788e-16)
(-1.80404e-15 1.26626e-29 5.94391e-31 39.3731 7.64982e-15 -3.63705e-14 0.194709 -3.81802e-17 -1.81229e-16)
(3.60809e-15 0 0 39.3731 -4.704e-15 -1.91411e-17 0.194709 -3.44492e-16 -3.82316e-16)
(-9.15534e-16 6.33037e-30 6.04838e-31 39.0888 7.48959e-15 -3.66611e-14 0.194693 -3.74774e-17 -1.83999e-16)
(3.66214e-15 9.6664e-30 0 39.0888 -4.58301e-15 -2.24667e-17 0.194693 -3.505e-16 -3.85817e-16)
(0 0 -5.99811e-31 38.8033 7.37645e-15 -3.69536e-14 0.19466 -3.71326e-17 -1.86806e-16)
(3.71619e-15 0 5.99811e-31 38.8033 -4.41396e-15 -2.24433e-17 0.19466 -3.57812e-16 -3.89308e-16)
(0 9.52807e-30 0 38.5165 7.72467e-15 -3.72482e-14 0.194611 -3.68821e-17 -1.89658e-16)
(3.77025e-15 -9.52807e-30 0 38.5165 -4.41948e-15 -1.28802e-17 0.194611 -3.64255e-16 -3.9278e-16)
(-1.33133e-15 9.45965e-30 5.91228e-31 38.2287 8.06567e-15 -3.75448e-14 0.194545 -4.12037e-17 -1.92548e-16)
(3.8243e-15 -9.45965e-30 -5.91228e-31 38.2287 -4.47888e-15 -1.23959e-17 0.194545 -3.68321e-16 -3.96217e-16)
(-9.69586e-16 3.45006e-29 1.4999e-30 37.9397 7.55392e-15 -3.78428e-14 0.194463 -4.09014e-17 -1.95477e-16)
(0 -1.87834e-29 -1.17396e-30 37.9397 -4.23323e-15 -1.81584e-17 0.194463 -3.74679e-16 -3.99652e-16)
(9.83094e-16 1.23236e-29 2.50804e-31 37.6497 7.11914e-15 -3.81434e-14 0.194364 -3.65358e-17 -1.98459e-16)
(3.93237e-15 -1.86486e-29 0 37.6497 -3.78833e-15 -2.05575e-17 0.194364 -3.80384e-16 -4.03053e-16)
(0 1.85146e-29 2.31433e-30 37.3588 7.38015e-15 -3.84443e-14 0.194249 -3.69887e-17 -2.01457e-16)
(-3.98639e-15 -3.70293e-29 -2.89291e-30 37.3588 -4.71524e-15 -9.04803e-18 0.194249 -3.86323e-16 -4.06458e-16)
(0 5.51451e-29 2.87214e-30 37.067 8.10688e-15 -3.87443e-14 0.194118 -3.97912e-17 -2.04495e-16)
(-4.04037e-15 -5.51451e-29 -2.87214e-30 37.067 -6.44619e-15 1.10828e-17 0.194118 -3.94822e-16 -4.09809e-16)
(-2.60624e-16 4.84294e-29 2.50089e-30 36.7744 8.19885e-15 -3.90466e-14 0.19397 -4.51676e-17 -2.07583e-16)
(-6.90446e-15 -5.47491e-29 -1.14665e-31 36.7744 -6.65954e-15 -2.17307e-29 0.19397 -4.06249e-16 -4.13124e-16)
(0 9.05932e-30 0 36.481 7.09647e-15 -3.93528e-14 0.193806 -4.13429e-17 -2.10731e-16)
(8.29652e-15 -9.05932e-30 0 36.481 -4.67791e-15 -4.23603e-17 0.193806 -4.1661e-16 -4.16485e-16)
(2.15292e-16 -1.16692e-29 -7.60732e-31 36.1869 6.17615e-15 -3.96616e-14 0.193626 -3.40632e-17 -2.13914e-16)
(8.40431e-15 1.79885e-29 1.12428e-30 36.1869 -4.10422e-15 -3.76368e-17 0.193626 -4.2275e-16 -4.19856e-16)
(-1.064e-15 -2.61071e-30 3.70169e-31 35.8922 6.36122e-15 -3.99721e-14 0.19343 -3.20541e-17 -2.17151e-16)
(0 8.92968e-30 5.58105e-31 35.8922 -5.20227e-15 -4.23201e-18 0.19343 -4.30473e-16 -4.23147e-16)
(-1.07745e-15 5.06452e-29 3.14738e-30 35.5969 7.62054e-15 -4.02823e-14 0.193218 -3.65607e-17 -2.20402e-16)
(0 -4.43278e-29 -5.9174e-32 35.5969 -5.6662e-15 -2.17915e-29 0.193218 -4.3908e-16 -4.26394e-16)
(-2.32965e-15 5.03243e-29 3.68444e-30 35.301 8.42349e-15 -4.05914e-14 0.19299 -4.62475e-17 -2.23698e-16)
(1.23876e-15 -4.40095e-29 -3.30071e-30 35.301 -5.9295e-15 -2.2852e-17 0.19299 -4.49794e-16 -4.29664e-16)
(1.10432e-15 -6.31367e-30 -3.90659e-31 35.0046 8.20114e-15 -4.09042e-14 0.192745 -4.59079e-17 -2.27061e-16)
(3.18741e-15 0 0 35.0046 -5.66769e-15 -3.1228e-17 0.192745 -4.60179e-16 -4.32949e-16)
(1.01443e-15 2.20784e-29 2.45808e-30 34.7079 8.17575e-15 -4.12204e-14 0.192486 -4.44599e-17 -2.30467e-16)
(1.22103e-15 -5.20556e-29 -3.25348e-30 34.7079 -5.3731e-15 -1.55762e-17 0.192486 -4.69445e-16 -4.36208e-16)
(0 1.72273e-29 1.61506e-30 34.4108 8.36401e-15 -4.15371e-14 0.19221 -4.62915e-17 -2.33911e-16)
(-4.52449e-15 -8.61363e-30 -5.38352e-31 34.4108 -5.80917e-15 5.57537e-19 0.19221 -4.79203e-16 -4.39401e-16)
(1.1445e-15 1.07938e-29 1.19134e-30 34.1133 8.7656e-15 -4.18546e-14 0.191919 -4.72176e-17 -2.37401e-16)
(-4.578e-15 -1.71036e-29 0 34.1133 -6.32296e-15 0 0.191919 -4.88459e-16 -4.42564e-16)
(1.15786e-15 1.91632e-29 1.17245e-30 33.8157 8.99909e-15 -4.21758e-14 0.191612 -5.1502e-17 -2.40963e-16)
(0 -1.69807e-29 -2.31532e-30 33.8157 -5.9117e-15 -8.11106e-18 0.191612 -5.00112e-16 -4.45719e-16)
(0 -1.68588e-29 -1.58051e-30 33.5178 8.51723e-15 -4.24996e-14 0.19129 -5.05609e-17 -2.4456e-16)
(4.6848e-15 1.68588e-29 2.10735e-30 33.5178 -4.99089e-15 -3.7222e-17 0.19129 -5.08696e-16 -4.4889e-16)
(-1.19123e-15 -2.92325e-29 -1.223e-30 33.2198 8.58869e-15 -4.28233e-14 0.190953 -4.67251e-17 -2.482e-16)
(3.56027e-15 4.18443e-29 2.61527e-30 33.2198 -5.79617e-15 -3.56641e-17 0.190953 -5.15523e-16 -4.52058e-16)
(-2.39564e-15 3.75335e-29 4.00048e-30 32.9217 9.31318e-15 -4.31465e-14 0.1906 -5.21202e-17 -2.5187e-16)
(-4.79127e-15 -2.49263e-29 -3.11579e-30 32.9217 -7.95008e-15 -1.40079e-17 0.1906 -5.27792e-16 -4.55175e-16)
(-2.37205e-15 4.7547e-29 3.54361e-30 32.6235 9.17479e-15 -4.34731e-14 0.190232 -5.58305e-17 -2.5563e-16)
(-3.68342e-15 -4.12455e-29 -5.38723e-30 32.6235 -7.94565e-15 -1.48998e-18 0.190232 -5.41562e-16 -4.58212e-16)
(-7.17264e-17 -1.82689e-29 -1.07663e-30 32.3254 8.34283e-15 -4.33177e-14 0.189849 -5.12554e-17 -2.53693e-16)
(4.89739e-15 2.45696e-29 2.04747e-30 32.3254 -6.00205e-15 -3.66086e-17 0.189849 -5.54655e-16 -4.61267e-16)
(0 -3.25242e-29 -3.04915e-30 32.0274 8.01775e-15 -3.17033e-14 0.189451 -4.68236e-17 -1.21293e-16)
(3.80596e-15 4.06553e-29 3.55734e-30 32.0274 -5.07021e-15 -2.73635e-17 0.189451 -5.65565e-16 -4.6432e-16)
(0 -2.4218e-29 -1.51363e-30 31.7295 7.6391e-15 -2.04276e-14 0.189039 -4.81357e-17 -1.22385e-16)
(0 2.4218e-29 2.01817e-30 31.7295 -4.85703e-15 8.19966e-18 0.189039 -5.74924e-16 -4.6726e-16)
(-2.39193e-15 1.43128e-29 2.49685e-30 31.4318 6.6923e-15 -2.04758e-14 0.188612 -4.29702e-17 -1.23636e-16)
(0 0 -1.00184e-30 31.4318 -3.76813e-15 1.3521e-17 0.188612 -5.83434e-16 -4.70102e-16)
(-2.55421e-15 1.25957e-29 9.93847e-31 31.1342 6.66587e-15 -2.05373e-14 0.18817 -3.74176e-17 -1.24908e-16)
(5.10842e-15 0 -6.56358e-32 31.1342 -2.69478e-15 -4.33888e-29 0.18817 -5.91644e-16 -4.72956e-16)
(0 1.58e-29 1.975e-30 30.837 7.83242e-15 -2.05973e-14 0.187714 -4.32731e-17 -1.26166e-16)
(5.1609e-15 -7.90001e-30 -9.87501e-31 30.837 -2.9316e-15 -1.73964e-17 0.187714 -5.95824e-16 -4.75808e-16)
(-2.00821e-15 2.50799e-29 1.94652e-30 30.5401 8.31367e-15 -2.0684e-14 0.187243 -5.22317e-17 -1.2779e-16)
(5.21326e-15 -1.56866e-29 -4.90205e-31 30.5401 -3.45936e-15 -4.36326e-18 0.187243 -5.99702e-16 -4.7864e-16)
(1.09592e-15 -7.78696e-30 -1.94674e-30 30.2436 7.62244e-15 -2.07452e-14 0.186759 -4.98313e-17 -1.28757e-16)
(0 7.78696e-30 2.43342e-30 30.2436 -3.71059e-15 1.39024e-17 0.186759 -6.09155e-16 -4.81369e-16)
(0 4.63862e-29 3.86552e-30 29.9474 7.46698e-15 -2.07749e-14 0.18626 -4.44112e-17 -1.30017e-16)
(0 -4.63862e-29 -1.14227e-30 29.9474 -4.54881e-15 -2.1575e-29 0.18626 -6.14421e-16 -4.84086e-16)
(1.3424e-15 -2.16413e-29 -2.43523e-30 29.6518 7.34651e-15 -2.08253e-14 0.185747 -4.86114e-17 -1.3126e-16)
(0 1.53511e-29 2.3986e-30 29.6518 -4.42858e-15 -5.4259e-19 0.185747 -6.21581e-16 -4.86826e-16)
(-2.71072e-15 3.54405e-29 1.99318e-30 29.3567 6.98587e-15 -2.08972e-14 0.185221 -4.3539e-17 -1.32816e-16)
(3.27649e-15 -1.52408e-29 0 29.3567 -3.57752e-15 -2.84924e-17 0.185221 -6.32493e-16 -4.89603e-16)
(0 2.26971e-29 1.41857e-30 29.0621 7.12342e-15 -2.09833e-14 0.184681 -4.47434e-17 -1.34266e-16)
(5.47316e-15 -1.51314e-29 -4.72855e-31 29.0621 -4.41439e-15 -3.22357e-17 0.184681 -6.41061e-16 -4.92425e-16)
(1.38118e-15 1.62477e-29 1.34944e-30 28.7682 7.161e-15 -2.10673e-14 0.184128 -4.59282e-17 -1.35825e-16)
(5.52472e-15 -1.50227e-29 -9.3892e-31 28.7682 -5.27725e-15 -1.29269e-17 0.184128 -6.55178e-16 -4.95201e-16)
(-4.19815e-15 5.96594e-29 4.66089e-30 28.4748 6.80056e-15 -2.11507e-14 0.183561 -4.58765e-17 -1.37297e-16)
(4.19815e-15 -5.96594e-29 -4.66089e-30 28.4748 -4.68532e-15 -3.06319e-18 0.183561 -6.65136e-16 -4.97918e-16)
(1.40685e-15 -5.07076e-29 -4.23866e-30 28.1822 6.82721e-15 -2.12019e-14 0.182982 -4.19238e-17 -1.38464e-16)
(5.62741e-15 4.44232e-29 3.70193e-30 28.1822 -4.32372e-15 6.42603e-20 0.182982 -6.70744e-16 -5.00578e-16)
(3.60949e-15 2.63254e-29 2.43062e-30 27.8904 8.62419e-15 -2.12698e-14 0.182389 -4.68904e-17 -1.40183e-16)
(0 -3.67535e-29 -1.3965e-31 27.8904 -5.12486e-15 -2.132e-29 0.182389 -6.81652e-16 -5.03141e-16)
(-2.05418e-15 1.45958e-29 1.82448e-30 27.5993 9.54829e-15 -2.13764e-14 0.181783 -6.61587e-17 -1.41886e-16)
(5.72949e-15 -7.29792e-30 -9.1224e-31 27.5993 -5.69556e-15 -1.88663e-17 0.181783 -6.90694e-16 -5.05663e-16)
(0 -4.34731e-29 -3.62276e-30 27.309 8.15525e-15 -2.14856e-14 0.181165 -5.98087e-17 -1.43674e-16)
(5.78029e-15 4.34731e-29 3.62276e-30 27.309 -5.35187e-15 -1.67276e-17 0.181165 -6.99101e-16 -5.08118e-16)
(-1.45773e-15 -8.11003e-30 -1.24457e-30 27.0196 8.26587e-15 -2.1561e-14 0.180534 -4.85381e-17 -1.4496e-16)
(5.83092e-15 2.15804e-29 3.59674e-30 27.0196 -6.03855e-15 -1.38258e-17 0.180534 -7.07723e-16 -5.10419e-16)
(-2.55014e-15 4.37196e-29 4.79827e-30 26.7311 9.99101e-15 -2.16765e-14 0.179891 -6.21631e-17 -1.47323e-16)
(2.01024e-15 -4.28509e-29 -4.46364e-30 26.7311 -8.14509e-15 -1.57214e-17 0.179891 -7.21403e-16 -5.12683e-16)
(0 -1.41811e-29 -8.86317e-31 26.4436 9.74452e-15 -2.17969e-14 0.179236 -7.25878e-17 -1.48705e-16)
(0 2.12716e-29 1.77263e-30 26.4436 -7.12251e-15 -1.76627e-17 0.179236 -7.37671e-16 -5.14854e-16)
(1.98148e-15 -2.81585e-29 -4.39976e-30 26.157 8.68093e-15 -2.18699e-14 0.178569 -5.97059e-17 -1.50465e-16)
(9.98212e-15 2.81585e-29 4.39976e-30 26.157 -4.58273e-15 -3.12077e-17 0.178569 -7.47575e-16 -5.16936e-16)
(0 6.98907e-30 2.6209e-30 25.8715 8.82379e-15 -2.19812e-14 0.17789 -5.904e-17 -1.52402e-16)
(-1.96725e-15 0 -1.74727e-30 25.8715 -5.41013e-15 4.55472e-18 0.17789 -7.59742e-16 -5.18937e-16)
(0 1.38778e-29 2.60208e-30 25.587 8.75079e-15 -2.20483e-14 0.177199 -6.25482e-17 -1.53585e-16)
(-8.03462e-15 -6.93888e-30 -1.73472e-30 25.587 -5.57974e-15 3.13135e-17 0.177199 -7.75507e-16 -5.20705e-16)
(-1.53277e-15 1.31546e-29 3.16447e-30 25.3037 8.80669e-15 -2.21211e-14 0.176497 -5.88803e-17 -1.55635e-16)
(6.13107e-15 0 -7.25121e-32 25.3037 -5.377e-15 -2.07501e-29 0.176497 -7.85906e-16 -5.22505e-16)
(1.54511e-15 1.42563e-29 2.83404e-30 25.0214 8.27137e-15 -2.22665e-14 0.175784 -6.42405e-17 -1.57869e-16)
(0 -4.10375e-29 -4.27474e-30 25.0214 -5.53785e-15 -3.23133e-17 0.175784 -7.9944e-16 -5.24295e-16)
(5.38011e-15 -4.70054e-29 -4.83467e-30 24.7403 6.62228e-15 -2.23685e-14 0.175059 -5.2171e-17 -1.59347e-16)
(2.40695e-15 4.07428e-29 3.39524e-30 24.7403 -3.76741e-15 8.06584e-18 0.175059 -8.11526e-16 -5.25934e-16)
(1.89762e-15 -2.02251e-29 -1.68543e-30 24.4605 7.19013e-15 -2.23818e-14 0.174324 -4.17027e-17 -1.60351e-16)
(-1.89762e-15 2.02251e-29 1.68543e-30 24.4605 -4.97268e-15 3.9472e-17 0.174324 -8.17192e-16 -5.27351e-16)
(0 2.67732e-29 1.67332e-30 24.1819 8.93044e-15 -2.24586e-14 0.173578 -6.10687e-17 -1.6277e-16)
(-6.32744e-15 -4.01598e-29 -2.68365e-31 24.1819 -7.55479e-15 -2.03987e-29 0.173578 -8.28804e-16 -5.28676e-16)
(-2.91156e-15 1.87672e-29 9.85636e-31 23.9045 8.99666e-15 -2.2614e-14 0.172821 -6.74365e-17 -1.64938e-16)
(6.37604e-15 -1.32905e-29 0 23.9045 -7.4044e-15 -4.26391e-17 0.172821 -8.39898e-16 -5.29983e-16)
(-3.21221e-15 -1.38809e-29 -2.90255e-30 23.6284 8.46725e-15 -2.27618e-14 0.172054 -6.29183e-17 -1.67299e-16)
(6.42443e-15 1.97925e-29 2.47407e-30 23.6284 -6.58469e-15 -3.63862e-17 0.172054 -8.54252e-16 -5.31187e-16)
(3.6874e-15 -1.31003e-29 -8.18767e-31 23.3537 7.4705e-15 -2.28801e-14 0.171277 -6.06604e-17 -1.69078e-16)
(6.47262e-15 1.31003e-29 8.18767e-31 23.3537 -4.76362e-15 1.80867e-17 0.171277 -8.65894e-16 -5.32176e-16)
(1.83046e-15 -1.95093e-29 -1.62578e-30 23.0804 6.18819e-15 -2.29106e-14 0.170489 -4.91251e-17 -1.70181e-16)
(-1.83046e-15 1.95093e-29 1.62578e-30 23.0804 -3.28529e-15 5.33548e-17 0.170489 -8.71684e-16 -5.32872e-16)
(0 3.87384e-29 5.64935e-30 22.8084 5.84515e-15 -2.29416e-14 0.169692 -4.24842e-17 -1.71996e-16)
(0 -3.87384e-29 -5.64935e-30 22.8084 -4.20043e-15 3.10629e-17 0.169692 -8.82261e-16 -5.33576e-16)
(-3.30795e-15 1.25055e-29 1.26324e-30 22.5379 6.13318e-15 -2.30309e-14 0.168886 -4.47034e-17 -1.73998e-16)
(0 0 0 22.5379 -4.46049e-15 1.45661e-17 0.168886 -8.93257e-16 -5.34265e-16)
(5.12292e-15 -2.52307e-29 -2.06967e-30 22.2688 6.59947e-15 -2.31017e-14 0.16807 -4.74437e-17 -1.75569e-16)
(4.87192e-15 1.2728e-29 7.95501e-31 22.2688 -3.03952e-15 2.96061e-18 0.16807 -9.00842e-16 -5.34858e-16)
(0 -4.42282e-29 -3.94894e-30 22.0012 6.50297e-15 -2.31505e-14 0.167244 -5.24336e-17 -1.7727e-16)
(6.71034e-15 4.42282e-29 3.94894e-30 22.0012 -3.27794e-15 3.21376e-17 0.167244 -9.06574e-16 -5.35448e-16)
(1.76568e-15 -2.50918e-29 -3.13647e-30 21.7351 6.45643e-15 -2.31772e-14 0.16641 -4.66564e-17 -1.78529e-16)
(-1.76568e-15 3.13647e-29 3.13647e-30 21.7351 -4.31736e-15 4.6946e-17 0.16641 -9.1905e-16 -5.35859e-16)
(0 -1.24558e-29 0 21.4706 7.47675e-15 -2.32143e-14 0.165567 -5.24779e-17 -1.8042e-16)
(6.80388e-15 1.24558e-29 -7.4431e-32 21.4706 -4.00601e-15 -1.92562e-29 0.165567 -9.30845e-16 -5.36332e-16)
(-3.45298e-15 -2.46717e-29 -3.20512e-30 21.2076 7.74338e-15 -2.33136e-14 0.164715 -6.31671e-17 -1.82673e-16)
(6.8503e-15 4.32822e-29 3.86448e-30 21.2076 -4.88366e-15 -4.04181e-18 0.164715 -9.38333e-16 -5.36851e-16)
(1.72791e-15 -1.22775e-29 -7.67346e-31 20.9461 7.2104e-15 -2.34315e-14 0.163855 -5.74073e-17 -1.84895e-16)
(0 1.22775e-29 7.67346e-31 20.9461 -5.43683e-15 1.63611e-17 0.163855 -9.54607e-16 -5.37273e-16)
(6.90223e-15 -3.68631e-29 -3.6273e-30 20.6863 7.08693e-15 -2.34891e-14 0.162987 -5.56931e-17 -1.8624e-16)
(3.51145e-15 2.43788e-29 2.28551e-30 20.6863 -3.70503e-15 6.19691e-17 0.162987 -9.67588e-16 -5.37465e-16)
(0 -6.05092e-30 -2.2691e-30 20.4282 7.4436e-15 -2.34895e-14 0.162111 -5.6283e-17 -1.87584e-16)
(0 6.05092e-30 2.2691e-30 20.4282 -4.31449e-15 6.31888e-17 0.162111 -9.74279e-16 -5.37448e-16)
(-5.14032e-15 4.22834e-29 5.93914e-30 20.1717 8.55536e-15 -2.35703e-14 0.161227 -6.21984e-17 -1.90244e-16)
(3.38191e-15 -3.60448e-29 -7.52129e-31 20.1717 -4.84811e-15 3.72251e-29 0.161227 -9.89075e-16 -5.37458e-16)
(0 -4.77147e-29 -5.96433e-30 19.9168 9.54861e-15 -2.37176e-14 0.160335 -7.49853e-17 -1.92696e-16)
(1.41578e-14 4.77147e-29 5.96433e-30 19.9168 -4.05373e-15 6.19121e-18 0.160335 -1.00087e-15 -5.37493e-16)