/*--------------------------------*- C++ -*----------------------------------*\
| =========                 |                                                 |
| \\      /  F ield         | OpenFOAM: The Open Source CFD Toolbox           |
|  \\    /   O peration     | Version:  2012                                  |
|   \\  /    A nd           | Website:  www.openfoam.com                      |
|    \\/     M anipulation  |                                                 |
\*---------------------------------------------------------------------------*/
FoamFile
{
    version     2.0;
    format      ascii;
    class       volScalarField;
    location    "6000";
    object      k;
}
// * * * * * * * * * * * * * * * * * * * * * * * * * * * * * * * * * * * * * //

dimensions      [0 2 -2 0 0 0 0];


internalField   nonuniform List<scalar> 
5120
(
1.166e-07
1.166e-07
1.7201e-08
1.7201e-08
5.19847e-09
5.19847e-09
2.32874e-09
2.32874e-09
1.42864e-09
1.42864e-09
1.22951e-09
1.22951e-09
1.42431e-09
1.42431e-09
1.94157e-09
1.94157e-09
2.78649e-09
2.78649e-09
3.99573e-09
3.99573e-09
5.62206e-09
5.62206e-09
7.72836e-09
7.72836e-09
1.03851e-08
1.03851e-08
1.3669e-08
1.3669e-08
1.76628e-08
1.76628e-08
2.24548e-08
2.24548e-08
2.8139e-08
2.8139e-08
3.4815e-08
3.4815e-08
4.25881e-08
4.25881e-08
5.15695e-08
5.15695e-08
6.18762e-08
6.18762e-08
7.36315e-08
7.36315e-08
8.6965e-08
8.6965e-08
1.02013e-07
1.02013e-07
1.18917e-07
1.18917e-07
1.37828e-07
1.37828e-07
1.58902e-07
1.58902e-07
1.82302e-07
1.82302e-07
2.08199e-07
2.08199e-07
2.36772e-07
2.36772e-07
2.68207e-07
2.68207e-07
3.02698e-07
3.02698e-07
3.40446e-07
3.40446e-07
3.81662e-07
3.81662e-07
4.26564e-07
4.26564e-07
4.75378e-07
4.75378e-07
5.2834e-07
5.2834e-07
5.85693e-07
5.85693e-07
6.47689e-07
6.47689e-07
7.14588e-07
7.14588e-07
7.86662e-07
7.86662e-07
8.64186e-07
8.64186e-07
9.47449e-07
9.47449e-07
1.03674e-06
1.03674e-06
1.13238e-06
1.13238e-06
1.23466e-06
1.23466e-06
1.34391e-06
1.34391e-06
1.46045e-06
1.46045e-06
1.58463e-06
1.58463e-06
1.71678e-06
1.71678e-06
1.85725e-06
1.85725e-06
2.00641e-06
2.00641e-06
2.16461e-06
2.16461e-06
2.33222e-06
2.33222e-06
2.50962e-06
2.50962e-06
2.69718e-06
2.69718e-06
2.89529e-06
2.89529e-06
3.10433e-06
3.10433e-06
3.32468e-06
3.32468e-06
3.55675e-06
3.55675e-06
3.80092e-06
3.80092e-06
4.05759e-06
4.05759e-06
4.32713e-06
4.32713e-06
4.60995e-06
4.60995e-06
4.90642e-06
4.90642e-06
5.21693e-06
5.21693e-06
5.54186e-06
5.54186e-06
5.88157e-06
5.88157e-06
6.23644e-06
6.23644e-06
6.60682e-06
6.60682e-06
6.99305e-06
6.99305e-06
7.39547e-06
7.39547e-06
7.81441e-06
7.81441e-06
8.25017e-06
8.25017e-06
8.70306e-06
8.70306e-06
9.17335e-06
9.17335e-06
9.66132e-06
9.66132e-06
1.01672e-05
1.01672e-05
1.06912e-05
1.06912e-05
1.12336e-05
1.12336e-05
1.17946e-05
1.17946e-05
1.23742e-05
1.23742e-05
1.29727e-05
1.29727e-05
1.35902e-05
1.35902e-05
1.42268e-05
1.42268e-05
1.48825e-05
1.48825e-05
1.55574e-05
1.55574e-05
1.62515e-05
1.62515e-05
1.69648e-05
1.69648e-05
1.76972e-05
1.76972e-05
1.84487e-05
1.84487e-05
1.92192e-05
1.92192e-05
2.00086e-05
2.00086e-05
2.08166e-05
2.08166e-05
2.16432e-05
2.16432e-05
2.24881e-05
2.24881e-05
2.3351e-05
2.3351e-05
2.42317e-05
2.42317e-05
2.51299e-05
2.51299e-05
2.60452e-05
2.60452e-05
2.69774e-05
2.69774e-05
2.79259e-05
2.79259e-05
2.88903e-05
2.88903e-05
2.98703e-05
2.98703e-05
3.08654e-05
3.08654e-05
3.1875e-05
3.1875e-05
3.28986e-05
3.28986e-05
3.39357e-05
3.39357e-05
3.49856e-05
3.49856e-05
3.60479e-05
3.60479e-05
3.71219e-05
3.71219e-05
3.82069e-05
3.82069e-05
3.93023e-05
3.93023e-05
4.04074e-05
4.04074e-05
4.15215e-05
4.15215e-05
4.26439e-05
4.26439e-05
4.37738e-05
4.37738e-05
4.49106e-05
4.49106e-05
4.60534e-05
4.60534e-05
4.72016e-05
4.72016e-05
4.83543e-05
4.83543e-05
4.95107e-05
4.95107e-05
5.067e-05
5.067e-05
5.18315e-05
5.18315e-05
5.29944e-05
5.29944e-05
5.41578e-05
5.41578e-05
5.53209e-05
5.53209e-05
5.64829e-05
5.64829e-05
5.7643e-05
5.7643e-05
5.88004e-05
5.88004e-05
5.99542e-05
5.99542e-05
6.11037e-05
6.11037e-05
6.22481e-05
6.22481e-05
6.33866e-05
6.33866e-05
6.45184e-05
6.45184e-05
6.56426e-05
6.56426e-05
6.67586e-05
6.67586e-05
6.78655e-05
6.78655e-05
6.89627e-05
6.89627e-05
7.00494e-05
7.00494e-05
7.11248e-05
7.11248e-05
7.21883e-05
7.21883e-05
7.32391e-05
7.32391e-05
7.42766e-05
7.42766e-05
7.53002e-05
7.53002e-05
7.63091e-05
7.63091e-05
7.73027e-05
7.73027e-05
7.82805e-05
7.82805e-05
7.92418e-05
7.92418e-05
8.01861e-05
8.01861e-05
8.11128e-05
8.11128e-05
8.20214e-05
8.20214e-05
8.29114e-05
8.29114e-05
8.37823e-05
8.37823e-05
8.46337e-05
8.46337e-05
8.5465e-05
8.5465e-05
8.6276e-05
8.6276e-05
8.70661e-05
8.70661e-05
8.7835e-05
8.7835e-05
8.85824e-05
8.85824e-05
8.9308e-05
8.9308e-05
9.00114e-05
9.00114e-05
9.06923e-05
9.06923e-05
9.13506e-05
9.13506e-05
9.19859e-05
9.19859e-05
9.25981e-05
9.25981e-05
9.3187e-05
9.3187e-05
9.37524e-05
9.37524e-05
9.42942e-05
9.42942e-05
9.48123e-05
9.48123e-05
9.53066e-05
9.53066e-05
9.5777e-05
9.5777e-05
9.62235e-05
9.62235e-05
9.6646e-05
9.6646e-05
9.70446e-05
9.70446e-05
9.74192e-05
9.74192e-05
9.777e-05
9.777e-05
9.80969e-05
9.80969e-05
9.84001e-05
9.84001e-05
9.86796e-05
9.86796e-05
9.89356e-05
9.89356e-05
9.91683e-05
9.91683e-05
9.93777e-05
9.93777e-05
9.9564e-05
9.9564e-05
9.97275e-05
9.97275e-05
9.98684e-05
9.98684e-05
9.99869e-05
9.99869e-05
0.000100083
0.000100083
0.000100158
0.000100158
0.00010021
0.00010021
0.000100242
0.000100242
0.000100252
0.000100252
0.000100242
0.000100242
0.000100211
0.000100211
0.00010016
0.00010016
0.000100089
0.000100089
9.99992e-05
9.99992e-05
9.98902e-05
9.98902e-05
9.97626e-05
9.97626e-05
9.96167e-05
9.96167e-05
9.94531e-05
9.94531e-05
9.9272e-05
9.9272e-05
9.90739e-05
9.90739e-05
9.88592e-05
9.88592e-05
9.86283e-05
9.86283e-05
9.83816e-05
9.83816e-05
9.81197e-05
9.81197e-05
9.78428e-05
9.78428e-05
9.75515e-05
9.75515e-05
9.72463e-05
9.72463e-05
9.69275e-05
9.69275e-05
9.65955e-05
9.65955e-05
9.6251e-05
9.6251e-05
9.58942e-05
9.58942e-05
9.55257e-05
9.55257e-05
9.51459e-05
9.51459e-05
9.47553e-05
9.47553e-05
9.43543e-05
9.43543e-05
9.39433e-05
9.39433e-05
9.35229e-05
9.35229e-05
9.30934e-05
9.30934e-05
9.26553e-05
9.26553e-05
9.2209e-05
9.2209e-05
9.17551e-05
9.17551e-05
9.12938e-05
9.12938e-05
9.08257e-05
9.08257e-05
9.03512e-05
9.03512e-05
8.98706e-05
8.98706e-05
8.93845e-05
8.93845e-05
8.88932e-05
8.88932e-05
8.83971e-05
8.83971e-05
8.78967e-05
8.78967e-05
8.73923e-05
8.73923e-05
8.68843e-05
8.68843e-05
8.63731e-05
8.63731e-05
8.58591e-05
8.58591e-05
8.53427e-05
8.53427e-05
8.48242e-05
8.48242e-05
8.43039e-05
8.43039e-05
8.37823e-05
8.37823e-05
8.32597e-05
8.32597e-05
8.27364e-05
8.27364e-05
8.22127e-05
8.22127e-05
8.16889e-05
8.16889e-05
8.11655e-05
8.11655e-05
8.06427e-05
8.06427e-05
8.01207e-05
8.01207e-05
7.95999e-05
7.95999e-05
7.90806e-05
7.90806e-05
7.8563e-05
7.8563e-05
7.80474e-05
7.80474e-05
7.75341e-05
7.75341e-05
7.70234e-05
7.70234e-05
7.65154e-05
7.65154e-05
7.60104e-05
7.60104e-05
7.55087e-05
7.55087e-05
7.50105e-05
7.50105e-05
7.4516e-05
7.4516e-05
7.40254e-05
7.40254e-05
7.35389e-05
7.35389e-05
7.30567e-05
7.30567e-05
7.2579e-05
7.2579e-05
7.2106e-05
7.2106e-05
7.16379e-05
7.16379e-05
7.11748e-05
7.11748e-05
7.0717e-05
7.0717e-05
7.02644e-05
7.02644e-05
6.98175e-05
6.98175e-05
6.93761e-05
6.93761e-05
6.89406e-05
6.89406e-05
6.8511e-05
6.8511e-05
6.80875e-05
6.80875e-05
6.76702e-05
6.76702e-05
6.72591e-05
6.72591e-05
6.68546e-05
6.68546e-05
6.64565e-05
6.64565e-05
6.60651e-05
6.60651e-05
6.56805e-05
6.56805e-05
6.53027e-05
6.53027e-05
6.49319e-05
6.49319e-05
6.45681e-05
6.45681e-05
6.42114e-05
6.42114e-05
6.38619e-05
6.38619e-05
6.35196e-05
6.35196e-05
6.31848e-05
6.31848e-05
6.28574e-05
6.28574e-05
6.25374e-05
6.25374e-05
6.22251e-05
6.22251e-05
6.19204e-05
6.19204e-05
6.16234e-05
6.16234e-05
6.13342e-05
6.13342e-05
6.10529e-05
6.10529e-05
6.07794e-05
6.07794e-05
6.05139e-05
6.05139e-05
6.02565e-05
6.02565e-05
6.00071e-05
6.00071e-05
5.97659e-05
5.97659e-05
5.95329e-05
5.95329e-05
5.93081e-05
5.93081e-05
5.90917e-05
5.90917e-05
5.88837e-05
5.88837e-05
5.86842e-05
5.86842e-05
5.84932e-05
5.84932e-05
5.83107e-05
5.83107e-05
5.8137e-05
5.8137e-05
5.7972e-05
5.7972e-05
5.78157e-05
5.78157e-05
5.76684e-05
5.76684e-05
5.753e-05
5.753e-05
5.74006e-05
5.74006e-05
5.72803e-05
5.72803e-05
5.71693e-05
5.71693e-05
5.70675e-05
5.70675e-05
5.6975e-05
5.6975e-05
5.68921e-05
5.68921e-05
5.68187e-05
5.68187e-05
5.67549e-05
5.67549e-05
5.67009e-05
5.67009e-05
5.66567e-05
5.66567e-05
5.66224e-05
5.66224e-05
5.65983e-05
5.65983e-05
5.65842e-05
5.65842e-05
5.65805e-05
5.65805e-05
5.65871e-05
5.65871e-05
5.66043e-05
5.66043e-05
5.6632e-05
5.6632e-05
5.66704e-05
5.66704e-05
5.67197e-05
5.67197e-05
5.67799e-05
5.67799e-05
5.68511e-05
5.68511e-05
5.69335e-05
5.69335e-05
5.70271e-05
5.70271e-05
5.71321e-05
5.71321e-05
5.72485e-05
5.72485e-05
5.73763e-05
5.73763e-05
5.75158e-05
5.75158e-05
5.76669e-05
5.76669e-05
5.78297e-05
5.78297e-05
5.80042e-05
5.80042e-05
5.81905e-05
5.81905e-05
5.83885e-05
5.83885e-05
5.85983e-05
5.85983e-05
5.88199e-05
5.88199e-05
5.90531e-05
5.90531e-05
5.9298e-05
5.9298e-05
5.95544e-05
5.95544e-05
5.98223e-05
5.98223e-05
6.01014e-05
6.01014e-05
6.03917e-05
6.03917e-05
6.06929e-05
6.06929e-05
6.10048e-05
6.10048e-05
6.13273e-05
6.13273e-05
6.16599e-05
6.16599e-05
6.20024e-05
6.20024e-05
6.23546e-05
6.23546e-05
6.27159e-05
6.27159e-05
6.30861e-05
6.30861e-05
6.34647e-05
6.34647e-05
6.38513e-05
6.38513e-05
6.42455e-05
6.42455e-05
6.46467e-05
6.46467e-05
6.50545e-05
6.50545e-05
6.54684e-05
6.54684e-05
6.58879e-05
6.58879e-05
6.63124e-05
6.63124e-05
6.67414e-05
6.67414e-05
6.71744e-05
6.71744e-05
6.76109e-05
6.76109e-05
6.80503e-05
6.80503e-05
6.84922e-05
6.84922e-05
6.89359e-05
6.89359e-05
6.93812e-05
6.93812e-05
6.98274e-05
6.98274e-05
7.02742e-05
7.02742e-05
7.07211e-05
7.07211e-05
7.11678e-05
7.11678e-05
7.16139e-05
7.16139e-05
7.2059e-05
7.2059e-05
7.25028e-05
7.25028e-05
7.29451e-05
7.29451e-05
7.33856e-05
7.33856e-05
7.38242e-05
7.38242e-05
7.42606e-05
7.42606e-05
7.46947e-05
7.46947e-05
7.51264e-05
7.51264e-05
7.55556e-05
7.55556e-05
7.59822e-05
7.59822e-05
7.64062e-05
7.64062e-05
7.68276e-05
7.68276e-05
7.72464e-05
7.72464e-05
7.76626e-05
7.76626e-05
7.80763e-05
7.80763e-05
7.84876e-05
7.84876e-05
7.88966e-05
7.88966e-05
7.93033e-05
7.93033e-05
7.97079e-05
7.97079e-05
8.01106e-05
8.01106e-05
8.05114e-05
8.05114e-05
8.09105e-05
8.09105e-05
8.13082e-05
8.13082e-05
8.17045e-05
8.17045e-05
8.20996e-05
8.20996e-05
8.24937e-05
8.24937e-05
8.28871e-05
8.28871e-05
8.32798e-05
8.32798e-05
8.3672e-05
8.3672e-05
8.4064e-05
8.4064e-05
8.4456e-05
8.4456e-05
8.4848e-05
8.4848e-05
8.52404e-05
8.52404e-05
8.56333e-05
8.56333e-05
8.60268e-05
8.60268e-05
8.64212e-05
8.64212e-05
8.68167e-05
8.68167e-05
8.72133e-05
8.72133e-05
8.76114e-05
8.76114e-05
8.8011e-05
8.8011e-05
8.84123e-05
8.84123e-05
8.88156e-05
8.88156e-05
8.92208e-05
8.92208e-05
8.96283e-05
8.96283e-05
9.00382e-05
9.00382e-05
9.04506e-05
9.04506e-05
9.08656e-05
9.08656e-05
9.12835e-05
9.12835e-05
9.17043e-05
9.17043e-05
9.21282e-05
9.21282e-05
9.25553e-05
9.25553e-05
9.29858e-05
9.29858e-05
9.34197e-05
9.34197e-05
9.38572e-05
9.38572e-05
9.42984e-05
9.42984e-05
9.47435e-05
9.47435e-05
9.51925e-05
9.51925e-05
9.56456e-05
9.56456e-05
9.61028e-05
9.61028e-05
9.65642e-05
9.65642e-05
9.703e-05
9.703e-05
9.75002e-05
9.75002e-05
9.7975e-05
9.7975e-05
9.84544e-05
9.84544e-05
9.89385e-05
9.89385e-05
9.94273e-05
9.94273e-05
9.99211e-05
9.99211e-05
0.00010042
0.00010042
0.000100923
0.000100923
0.000101432
0.000101432
0.000101946
0.000101946
0.000102465
0.000102465
0.000102989
0.000102989
0.000103519
0.000103519
0.000104054
0.000104054
0.000104594
0.000104594
0.00010514
0.00010514
0.000105691
0.000105691
0.000106247
0.000106247
0.00010681
0.00010681
0.000107377
0.000107377
0.000107951
0.000107951
0.000108529
0.000108529
0.000109114
0.000109114
0.000109704
0.000109704
0.0001103
0.0001103
0.000110901
0.000110901
0.000111508
0.000111508
0.00011212
0.00011212
0.000112738
0.000112738
0.000113362
0.000113362
0.000113991
0.000113991
0.000114625
0.000114625
0.000115265
0.000115265
0.000115911
0.000115911
0.000116562
0.000116562
0.000117218
0.000117218
0.000117879
0.000117879
0.000118546
0.000118546
0.000119218
0.000119218
0.000119895
0.000119895
0.000120577
0.000120577
0.000121265
0.000121265
0.000121957
0.000121957
0.000122653
0.000122653
0.000123355
0.000123355
0.000124061
0.000124061
0.000124772
0.000124772
0.000125487
0.000125487
0.000126206
0.000126206
0.00012693
0.00012693
0.000127658
0.000127658
0.000128389
0.000128389
0.000129125
0.000129125
0.000129864
0.000129864
0.000130606
0.000130606
0.000131352
0.000131352
0.000132101
0.000132101
0.000132854
0.000132854
0.000133609
0.000133609
0.000134367
0.000134367
0.000135127
0.000135127
0.00013589
0.00013589
0.000136655
0.000136655
0.000137421
0.000137421
0.00013819
0.00013819
0.00013896
0.00013896
0.000139732
0.000139732
0.000140504
0.000140504
0.000141278
0.000141278
0.000142052
0.000142052
0.000142827
0.000142827
0.000143602
0.000143602
0.000144377
0.000144377
0.000145152
0.000145152
0.000145926
0.000145926
0.000146699
0.000146699
0.000147471
0.000147471
0.000148242
0.000148242
0.000149012
0.000149012
0.000149779
0.000149779
0.000150545
0.000150545
0.000151307
0.000151307
0.000152068
0.000152068
0.000152825
0.000152825
0.000153579
0.000153579
0.000154329
0.000154329
0.000155075
0.000155075
0.000155817
0.000155817
0.000156554
0.000156554
0.000157286
0.000157286
0.000158013
0.000158013
0.000158735
0.000158735
0.000159451
0.000159451
0.00016016
0.00016016
0.000160863
0.000160863
0.000161558
0.000161558
0.000162247
0.000162247
0.000162928
0.000162928
0.0001636
0.0001636
0.000164265
0.000164265
0.000164921
0.000164921
0.000165567
0.000165567
0.000166205
0.000166205
0.000166832
0.000166832
0.000167449
0.000167449
0.000168056
0.000168056
0.000168652
0.000168652
0.000169236
0.000169236
0.000169809
0.000169809
0.00017037
0.00017037
0.000170919
0.000170919
0.000171454
0.000171454
0.000171977
0.000171977
0.000172486
0.000172486
0.000172982
0.000172982
0.000173463
0.000173463
0.00017393
0.00017393
0.000174382
0.000174382
0.000174818
0.000174818
0.000175239
0.000175239
0.000175644
0.000175644
0.000176033
0.000176033
0.000176405
0.000176405
0.00017676
0.00017676
0.000177099
0.000177099
0.000177419
0.000177419
0.000177722
0.000177722
0.000178007
0.000178007
0.000178273
0.000178273
0.00017852
0.00017852
0.000178749
0.000178749
0.000178959
0.000178959
0.000179149
0.000179149
0.000179319
0.000179319
0.00017947
0.00017947
0.0001796
0.0001796
0.000179711
0.000179711
0.000179801
0.000179801
0.00017987
0.00017987
0.000179919
0.000179919
0.000179947
0.000179947
0.000179955
0.000179955
0.000179941
0.000179941
0.000179906
0.000179906
0.000179851
0.000179851
0.000179775
0.000179775
0.000179677
0.000179677
0.000179559
0.000179559
0.000179421
0.000179421
0.000179261
0.000179261
0.000179081
0.000179081
0.000178881
0.000178881
0.000178661
0.000178661
0.000178421
0.000178421
0.000178162
0.000178162
0.000177883
0.000177883
0.000177586
0.000177586
0.00017727
0.00017727
0.000176936
0.000176936
0.000176585
0.000176585
0.000176217
0.000176217
0.000175833
0.000175833
0.000175433
0.000175433
0.000175018
0.000175018
0.000174588
0.000174588
0.000174146
0.000174146
0.00017369
0.00017369
0.000173223
0.000173223
0.000172745
0.000172745
0.000172257
0.000172257
0.000171761
0.000171761
0.000171256
0.000171256
0.000170746
0.000170746
0.000170229
0.000170229
0.000169709
0.000169709
0.000169186
0.000169186
0.000168662
0.000168662
0.000168138
0.000168138
0.000167615
0.000167615
0.000167095
0.000167095
0.00016658
0.00016658
0.000166071
0.000166071
0.00016557
0.00016557
0.000165078
0.000165078
0.000164598
0.000164598
0.000164131
0.000164131
0.000163678
0.000163678
0.000163241
0.000163241
0.000162823
0.000162823
0.000162425
0.000162425
0.000162048
0.000162048
0.000161695
0.000161695
0.000161367
0.000161367
0.000161066
0.000161066
0.000160793
0.000160793
0.000160551
0.000160551
0.000160339
0.000160339
0.00016016
0.00016016
0.000160015
0.000160015
0.000159905
0.000159905
0.000159831
0.000159831
0.000159793
0.000159793
1.166e-07
1.166e-07
1.7201e-08
1.7201e-08
5.19847e-09
5.19847e-09
2.32874e-09
2.32874e-09
1.42864e-09
1.42864e-09
1.22951e-09
1.22951e-09
1.42431e-09
1.42431e-09
1.94157e-09
1.94157e-09
2.78649e-09
2.78649e-09
3.99573e-09
3.99573e-09
5.62206e-09
5.62206e-09
7.72836e-09
7.72836e-09
1.03851e-08
1.03851e-08
1.3669e-08
1.3669e-08
1.76628e-08
1.76628e-08
2.24548e-08
2.24548e-08
2.8139e-08
2.8139e-08
3.4815e-08
3.4815e-08
4.25881e-08
4.25881e-08
5.15695e-08
5.15695e-08
6.18762e-08
6.18762e-08
7.36315e-08
7.36315e-08
8.6965e-08
8.6965e-08
1.02013e-07
1.02013e-07
1.18917e-07
1.18917e-07
1.37828e-07
1.37828e-07
1.58902e-07
1.58902e-07
1.82302e-07
1.82302e-07
2.08199e-07
2.08199e-07
2.36772e-07
2.36772e-07
2.68207e-07
2.68207e-07
3.02698e-07
3.02698e-07
3.40446e-07
3.40446e-07
3.81662e-07
3.81662e-07
4.26564e-07
4.26564e-07
4.75378e-07
4.75378e-07
5.2834e-07
5.2834e-07
5.85693e-07
5.85693e-07
6.47689e-07
6.47689e-07
7.14588e-07
7.14588e-07
7.86662e-07
7.86662e-07
8.64186e-07
8.64186e-07
9.47449e-07
9.47449e-07
1.03674e-06
1.03674e-06
1.13238e-06
1.13238e-06
1.23466e-06
1.23466e-06
1.34391e-06
1.34391e-06
1.46045e-06
1.46045e-06
1.58463e-06
1.58463e-06
1.71678e-06
1.71678e-06
1.85725e-06
1.85725e-06
2.00641e-06
2.00641e-06
2.16461e-06
2.16461e-06
2.33222e-06
2.33222e-06
2.50962e-06
2.50962e-06
2.69718e-06
2.69718e-06
2.89529e-06
2.89529e-06
3.10433e-06
3.10433e-06
3.32468e-06
3.32468e-06
3.55675e-06
3.55675e-06
3.80092e-06
3.80092e-06
4.05759e-06
4.05759e-06
4.32713e-06
4.32713e-06
4.60995e-06
4.60995e-06
4.90642e-06
4.90642e-06
5.21693e-06
5.21693e-06
5.54186e-06
5.54186e-06
5.88157e-06
5.88157e-06
6.23644e-06
6.23644e-06
6.60682e-06
6.60682e-06
6.99305e-06
6.99305e-06
7.39547e-06
7.39547e-06
7.81441e-06
7.81441e-06
8.25017e-06
8.25017e-06
8.70306e-06
8.70306e-06
9.17335e-06
9.17335e-06
9.66132e-06
9.66132e-06
1.01672e-05
1.01672e-05
1.06912e-05
1.06912e-05
1.12336e-05
1.12336e-05
1.17946e-05
1.17946e-05
1.23742e-05
1.23742e-05
1.29727e-05
1.29727e-05
1.35902e-05
1.35902e-05
1.42268e-05
1.42268e-05
1.48825e-05
1.48825e-05
1.55574e-05
1.55574e-05
1.62515e-05
1.62515e-05
1.69648e-05
1.69648e-05
1.76972e-05
1.76972e-05
1.84487e-05
1.84487e-05
1.92192e-05
1.92192e-05
2.00086e-05
2.00086e-05
2.08166e-05
2.08166e-05
2.16432e-05
2.16432e-05
2.24881e-05
2.24881e-05
2.3351e-05
2.3351e-05
2.42317e-05
2.42317e-05
2.51299e-05
2.51299e-05
2.60452e-05
2.60452e-05
2.69774e-05
2.69774e-05
2.79259e-05
2.79259e-05
2.88903e-05
2.88903e-05
2.98703e-05
2.98703e-05
3.08654e-05
3.08654e-05
3.1875e-05
3.1875e-05
3.28986e-05
3.28986e-05
3.39357e-05
3.39357e-05
3.49856e-05
3.49856e-05
3.60479e-05
3.60479e-05
3.71219e-05
3.71219e-05
3.82069e-05
3.82069e-05
3.93023e-05
3.93023e-05
4.04074e-05
4.04074e-05
4.15215e-05
4.15215e-05
4.26439e-05
4.26439e-05
4.37738e-05
4.37738e-05
4.49106e-05
4.49106e-05
4.60534e-05
4.60534e-05
4.72016e-05
4.72016e-05
4.83543e-05
4.83543e-05
4.95107e-05
4.95107e-05
5.067e-05
5.067e-05
5.18315e-05
5.18315e-05
5.29944e-05
5.29944e-05
5.41578e-05
5.41578e-05
5.53209e-05
5.53209e-05
5.64829e-05
5.64829e-05
5.7643e-05
5.7643e-05
5.88004e-05
5.88004e-05
5.99542e-05
5.99542e-05
6.11037e-05
6.11037e-05
6.22481e-05
6.22481e-05
6.33866e-05
6.33866e-05
6.45184e-05
6.45184e-05
6.56426e-05
6.56426e-05
6.67586e-05
6.67586e-05
6.78655e-05
6.78655e-05
6.89627e-05
6.89627e-05
7.00494e-05
7.00494e-05
7.11248e-05
7.11248e-05
7.21883e-05
7.21883e-05
7.32391e-05
7.32391e-05
7.42766e-05
7.42766e-05
7.53002e-05
7.53002e-05
7.63091e-05
7.63091e-05
7.73027e-05
7.73027e-05
7.82805e-05
7.82805e-05
7.92418e-05
7.92418e-05
8.01861e-05
8.01861e-05
8.11128e-05
8.11128e-05
8.20214e-05
8.20214e-05
8.29114e-05
8.29114e-05
8.37823e-05
8.37823e-05
8.46337e-05
8.46337e-05
8.5465e-05
8.5465e-05
8.6276e-05
8.6276e-05
8.70661e-05
8.70661e-05
8.7835e-05
8.7835e-05
8.85824e-05
8.85824e-05
8.9308e-05
8.9308e-05
9.00114e-05
9.00114e-05
9.06923e-05
9.06923e-05
9.13506e-05
9.13506e-05
9.19859e-05
9.19859e-05
9.25981e-05
9.25981e-05
9.3187e-05
9.3187e-05
9.37524e-05
9.37524e-05
9.42942e-05
9.42942e-05
9.48123e-05
9.48123e-05
9.53066e-05
9.53066e-05
9.5777e-05
9.5777e-05
9.62235e-05
9.62235e-05
9.6646e-05
9.6646e-05
9.70446e-05
9.70446e-05
9.74192e-05
9.74192e-05
9.777e-05
9.777e-05
9.80969e-05
9.80969e-05
9.84001e-05
9.84001e-05
9.86796e-05
9.86796e-05
9.89356e-05
9.89356e-05
9.91683e-05
9.91683e-05
9.93777e-05
9.93777e-05
9.9564e-05
9.9564e-05
9.97275e-05
9.97275e-05
9.98684e-05
9.98684e-05
9.99869e-05
9.99869e-05
0.000100083
0.000100083
0.000100158
0.000100158
0.00010021
0.00010021
0.000100242
0.000100242
0.000100252
0.000100252
0.000100242
0.000100242
0.000100211
0.000100211
0.00010016
0.00010016
0.000100089
0.000100089
9.99992e-05
9.99992e-05
9.98902e-05
9.98902e-05
9.97626e-05
9.97626e-05
9.96167e-05
9.96167e-05
9.94531e-05
9.94531e-05
9.9272e-05
9.9272e-05
9.90739e-05
9.90739e-05
9.88592e-05
9.88592e-05
9.86283e-05
9.86283e-05
9.83816e-05
9.83816e-05
9.81197e-05
9.81197e-05
9.78428e-05
9.78428e-05
9.75515e-05
9.75515e-05
9.72463e-05
9.72463e-05
9.69275e-05
9.69275e-05
9.65955e-05
9.65955e-05
9.6251e-05
9.6251e-05
9.58942e-05
9.58942e-05
9.55257e-05
9.55257e-05
9.51459e-05
9.51459e-05
9.47553e-05
9.47553e-05
9.43543e-05
9.43543e-05
9.39433e-05
9.39433e-05
9.35229e-05
9.35229e-05
9.30934e-05
9.30934e-05
9.26553e-05
9.26553e-05
9.2209e-05
9.2209e-05
9.17551e-05
9.17551e-05
9.12938e-05
9.12938e-05
9.08257e-05
9.08257e-05
9.03512e-05
9.03512e-05
8.98706e-05
8.98706e-05
8.93845e-05
8.93845e-05
8.88932e-05
8.88932e-05
8.83971e-05
8.83971e-05
8.78967e-05
8.78967e-05
8.73923e-05
8.73923e-05
8.68843e-05
8.68843e-05
8.63731e-05
8.63731e-05
8.58591e-05
8.58591e-05
8.53427e-05
8.53427e-05
8.48242e-05
8.48242e-05
8.43039e-05
8.43039e-05
8.37823e-05
8.37823e-05
8.32597e-05
8.32597e-05
8.27364e-05
8.27364e-05
8.22127e-05
8.22127e-05
8.16889e-05
8.16889e-05
8.11655e-05
8.11655e-05
8.06427e-05
8.06427e-05
8.01207e-05
8.01207e-05
7.95999e-05
7.95999e-05
7.90806e-05
7.90806e-05
7.8563e-05
7.8563e-05
7.80474e-05
7.80474e-05
7.75341e-05
7.75341e-05
7.70234e-05
7.70234e-05
7.65154e-05
7.65154e-05
7.60104e-05
7.60104e-05
7.55087e-05
7.55087e-05
7.50105e-05
7.50105e-05
7.4516e-05
7.4516e-05
7.40254e-05
7.40254e-05
7.35389e-05
7.35389e-05
7.30567e-05
7.30567e-05
7.2579e-05
7.2579e-05
7.2106e-05
7.2106e-05
7.16379e-05
7.16379e-05
7.11748e-05
7.11748e-05
7.0717e-05
7.0717e-05
7.02644e-05
7.02644e-05
6.98175e-05
6.98175e-05
6.93761e-05
6.93761e-05
6.89406e-05
6.89406e-05
6.8511e-05
6.8511e-05
6.80875e-05
6.80875e-05
6.76702e-05
6.76702e-05
6.72591e-05
6.72591e-05
6.68546e-05
6.68546e-05
6.64565e-05
6.64565e-05
6.60651e-05
6.60651e-05
6.56805e-05
6.56805e-05
6.53027e-05
6.53027e-05
6.49319e-05
6.49319e-05
6.45681e-05
6.45681e-05
6.42114e-05
6.42114e-05
6.38619e-05
6.38619e-05
6.35196e-05
6.35196e-05
6.31848e-05
6.31848e-05
6.28574e-05
6.28574e-05
6.25374e-05
6.25374e-05
6.22251e-05
6.22251e-05
6.19204e-05
6.19204e-05
6.16234e-05
6.16234e-05
6.13342e-05
6.13342e-05
6.10529e-05
6.10529e-05
6.07794e-05
6.07794e-05
6.05139e-05
6.05139e-05
6.02565e-05
6.02565e-05
6.00071e-05
6.00071e-05
5.97659e-05
5.97659e-05
5.95329e-05
5.95329e-05
5.93081e-05
5.93081e-05
5.90917e-05
5.90917e-05
5.88837e-05
5.88837e-05
5.86842e-05
5.86842e-05
5.84932e-05
5.84932e-05
5.83107e-05
5.83107e-05
5.8137e-05
5.8137e-05
5.7972e-05
5.7972e-05
5.78157e-05
5.78157e-05
5.76684e-05
5.76684e-05
5.753e-05
5.753e-05
5.74006e-05
5.74006e-05
5.72803e-05
5.72803e-05
5.71693e-05
5.71693e-05
5.70675e-05
5.70675e-05
5.6975e-05
5.6975e-05
5.68921e-05
5.68921e-05
5.68187e-05
5.68187e-05
5.67549e-05
5.67549e-05
5.67009e-05
5.67009e-05
5.66567e-05
5.66567e-05
5.66224e-05
5.66224e-05
5.65983e-05
5.65983e-05
5.65842e-05
5.65842e-05
5.65805e-05
5.65805e-05
5.65871e-05
5.65871e-05
5.66043e-05
5.66043e-05
5.6632e-05
5.6632e-05
5.66704e-05
5.66704e-05
5.67197e-05
5.67197e-05
5.67799e-05
5.67799e-05
5.68511e-05
5.68511e-05
5.69335e-05
5.69335e-05
5.70271e-05
5.70271e-05
5.71321e-05
5.71321e-05
5.72485e-05
5.72485e-05
5.73763e-05
5.73763e-05
5.75158e-05
5.75158e-05
5.76669e-05
5.76669e-05
5.78297e-05
5.78297e-05
5.80042e-05
5.80042e-05
5.81905e-05
5.81905e-05
5.83885e-05
5.83885e-05
5.85983e-05
5.85983e-05
5.88199e-05
5.88199e-05
5.90531e-05
5.90531e-05
5.9298e-05
5.9298e-05
5.95544e-05
5.95544e-05
5.98223e-05
5.98223e-05
6.01014e-05
6.01014e-05
6.03917e-05
6.03917e-05
6.06929e-05
6.06929e-05
6.10048e-05
6.10048e-05
6.13273e-05
6.13273e-05
6.16599e-05
6.16599e-05
6.20024e-05
6.20024e-05
6.23546e-05
6.23546e-05
6.27159e-05
6.27159e-05
6.30861e-05
6.30861e-05
6.34647e-05
6.34647e-05
6.38513e-05
6.38513e-05
6.42455e-05
6.42455e-05
6.46467e-05
6.46467e-05
6.50545e-05
6.50545e-05
6.54684e-05
6.54684e-05
6.58879e-05
6.58879e-05
6.63124e-05
6.63124e-05
6.67414e-05
6.67414e-05
6.71744e-05
6.71744e-05
6.76109e-05
6.76109e-05
6.80503e-05
6.80503e-05
6.84922e-05
6.84922e-05
6.89359e-05
6.89359e-05
6.93812e-05
6.93812e-05
6.98274e-05
6.98274e-05
7.02742e-05
7.02742e-05
7.07211e-05
7.07211e-05
7.11678e-05
7.11678e-05
7.16139e-05
7.16139e-05
7.2059e-05
7.2059e-05
7.25028e-05
7.25028e-05
7.29451e-05
7.29451e-05
7.33856e-05
7.33856e-05
7.38242e-05
7.38242e-05
7.42606e-05
7.42606e-05
7.46947e-05
7.46947e-05
7.51264e-05
7.51264e-05
7.55556e-05
7.55556e-05
7.59822e-05
7.59822e-05
7.64062e-05
7.64062e-05
7.68276e-05
7.68276e-05
7.72464e-05
7.72464e-05
7.76626e-05
7.76626e-05
7.80763e-05
7.80763e-05
7.84876e-05
7.84876e-05
7.88966e-05
7.88966e-05
7.93033e-05
7.93033e-05
7.97079e-05
7.97079e-05
8.01106e-05
8.01106e-05
8.05114e-05
8.05114e-05
8.09105e-05
8.09105e-05
8.13082e-05
8.13082e-05
8.17045e-05
8.17045e-05
8.20996e-05
8.20996e-05
8.24937e-05
8.24937e-05
8.28871e-05
8.28871e-05
8.32798e-05
8.32798e-05
8.3672e-05
8.3672e-05
8.4064e-05
8.4064e-05
8.4456e-05
8.4456e-05
8.4848e-05
8.4848e-05
8.52404e-05
8.52404e-05
8.56333e-05
8.56333e-05
8.60268e-05
8.60268e-05
8.64212e-05
8.64212e-05
8.68167e-05
8.68167e-05
8.72133e-05
8.72133e-05
8.76114e-05
8.76114e-05
8.8011e-05
8.8011e-05
8.84123e-05
8.84123e-05
8.88156e-05
8.88156e-05
8.92208e-05
8.92208e-05
8.96283e-05
8.96283e-05
9.00382e-05
9.00382e-05
9.04506e-05
9.04506e-05
9.08656e-05
9.08656e-05
9.12835e-05
9.12835e-05
9.17043e-05
9.17043e-05
9.21282e-05
9.21282e-05
9.25553e-05
9.25553e-05
9.29858e-05
9.29858e-05
9.34197e-05
9.34197e-05
9.38572e-05
9.38572e-05
9.42984e-05
9.42984e-05
9.47435e-05
9.47435e-05
9.51925e-05
9.51925e-05
9.56456e-05
9.56456e-05
9.61028e-05
9.61028e-05
9.65642e-05
9.65642e-05
9.703e-05
9.703e-05
9.75002e-05
9.75002e-05
9.7975e-05
9.7975e-05
9.84544e-05
9.84544e-05
9.89385e-05
9.89385e-05
9.94273e-05
9.94273e-05
9.99211e-05
9.99211e-05
0.00010042
0.00010042
0.000100923
0.000100923
0.000101432
0.000101432
0.000101946
0.000101946
0.000102465
0.000102465
0.000102989
0.000102989
0.000103519
0.000103519
0.000104054
0.000104054
0.000104594
0.000104594
0.00010514
0.00010514
0.000105691
0.000105691
0.000106247
0.000106247
0.00010681
0.00010681
0.000107377
0.000107377
0.000107951
0.000107951
0.000108529
0.000108529
0.000109114
0.000109114
0.000109704
0.000109704
0.0001103
0.0001103
0.000110901
0.000110901
0.000111508
0.000111508
0.00011212
0.00011212
0.000112738
0.000112738
0.000113362
0.000113362
0.000113991
0.000113991
0.000114625
0.000114625
0.000115265
0.000115265
0.000115911
0.000115911
0.000116562
0.000116562
0.000117218
0.000117218
0.000117879
0.000117879
0.000118546
0.000118546
0.000119218
0.000119218
0.000119895
0.000119895
0.000120577
0.000120577
0.000121265
0.000121265
0.000121957
0.000121957
0.000122653
0.000122653
0.000123355
0.000123355
0.000124061
0.000124061
0.000124772
0.000124772
0.000125487
0.000125487
0.000126206
0.000126206
0.00012693
0.00012693
0.000127658
0.000127658
0.000128389
0.000128389
0.000129125
0.000129125
0.000129864
0.000129864
0.000130606
0.000130606
0.000131352
0.000131352
0.000132101
0.000132101
0.000132854
0.000132854
0.000133609
0.000133609
0.000134367
0.000134367
0.000135127
0.000135127
0.00013589
0.00013589
0.000136655
0.000136655
0.000137421
0.000137421
0.00013819
0.00013819
0.00013896
0.00013896
0.000139732
0.000139732
0.000140504
0.000140504
0.000141278
0.000141278
0.000142052
0.000142052
0.000142827
0.000142827
0.000143602
0.000143602
0.000144377
0.000144377
0.000145152
0.000145152
0.000145926
0.000145926
0.000146699
0.000146699
0.000147471
0.000147471
0.000148242
0.000148242
0.000149012
0.000149012
0.000149779
0.000149779
0.000150545
0.000150545
0.000151307
0.000151307
0.000152068
0.000152068
0.000152825
0.000152825
0.000153579
0.000153579
0.000154329
0.000154329
0.000155075
0.000155075
0.000155817
0.000155817
0.000156554
0.000156554
0.000157286
0.000157286
0.000158013
0.000158013
0.000158735
0.000158735
0.000159451
0.000159451
0.00016016
0.00016016
0.000160863
0.000160863
0.000161558
0.000161558
0.000162247
0.000162247
0.000162928
0.000162928
0.0001636
0.0001636
0.000164265
0.000164265
0.000164921
0.000164921
0.000165567
0.000165567
0.000166205
0.000166205
0.000166832
0.000166832
0.000167449
0.000167449
0.000168056
0.000168056
0.000168652
0.000168652
0.000169236
0.000169236
0.000169809
0.000169809
0.00017037
0.00017037
0.000170919
0.000170919
0.000171454
0.000171454
0.000171977
0.000171977
0.000172486
0.000172486
0.000172982
0.000172982
0.000173463
0.000173463
0.00017393
0.00017393
0.000174382
0.000174382
0.000174818
0.000174818
0.000175239
0.000175239
0.000175644
0.000175644
0.000176033
0.000176033
0.000176405
0.000176405
0.00017676
0.00017676
0.000177099
0.000177099
0.000177419
0.000177419
0.000177722
0.000177722
0.000178007
0.000178007
0.000178273
0.000178273
0.00017852
0.00017852
0.000178749
0.000178749
0.000178959
0.000178959
0.000179149
0.000179149
0.000179319
0.000179319
0.00017947
0.00017947
0.0001796
0.0001796
0.000179711
0.000179711
0.000179801
0.000179801
0.00017987
0.00017987
0.000179919
0.000179919
0.000179947
0.000179947
0.000179955
0.000179955
0.000179941
0.000179941
0.000179906
0.000179906
0.000179851
0.000179851
0.000179775
0.000179775
0.000179677
0.000179677
0.000179559
0.000179559
0.000179421