/*--------------------------------*- C++ -*----------------------------------*\
| =========                 |                                                 |
| \\      /  F ield         | OpenFOAM: The Open Source CFD Toolbox           |
|  \\    /   O peration     | Version:  2012                                  |
|   \\  /    A nd           | Website:  www.openfoam.com                      |
|    \\/     M anipulation  |                                                 |
\*---------------------------------------------------------------------------*/
FoamFile
{
    version     2.0;
    format      ascii;
    class       volVectorField;
    location    "6000";
    object      U;
}
// * * * * * * * * * * * * * * * * * * * * * * * * * * * * * * * * * * * * * //

dimensions      [0 1 -1 0 0 0 0];


internalField   nonuniform List<vector> 
5120
(
(0.00189417 -1.2926e-15 -1.66753e-17)
(0.00189417 -4.47658e-21 -2.76817e-19)
(0.00569581 -5.16051e-15 -5.99716e-17)
(0.00569581 -2.58269e-19 -1.07549e-18)
(0.00952421 -4.9003e-15 -6.15898e-17)
(0.00952421 -5.00221e-19 -1.08987e-18)
(0.0133791 -4.5906e-15 -6.28823e-17)
(0.0133791 -7.80171e-19 -1.10351e-18)
(0.0172603 -4.5803e-15 -6.42795e-17)
(0.0172603 -1.05982e-18 -1.11637e-18)
(0.0211674 -4.59207e-15 -6.5749e-17)
(0.0211674 -1.34207e-18 -1.12845e-18)
(0.0251003 -4.59976e-15 -6.72522e-17)
(0.0251003 -1.6308e-18 -1.13975e-18)
(0.0290587 -4.59878e-15 -6.87797e-17)
(0.0290587 -1.93149e-18 -1.15018e-18)
(0.0330422 -4.59777e-15 -7.03337e-17)
(0.0330422 -2.22596e-18 -1.15966e-18)
(0.0370506 -4.59737e-15 -7.19148e-17)
(0.0370506 -2.52306e-18 -1.16821e-18)
(0.0410837 -4.59699e-15 -7.35226e-17)
(0.0410837 -2.81771e-18 -1.17586e-18)
(0.045141 -4.59655e-15 -7.51574e-17)
(0.045141 -3.11851e-18 -1.18245e-18)
(0.0492225 -4.59605e-15 -7.68194e-17)
(0.0492225 -3.43811e-18 -1.18808e-18)
(0.0533276 -4.59555e-15 -7.85092e-17)
(0.0533276 -3.752e-18 -1.1927e-18)
(0.0574563 -4.59504e-15 -8.02271e-17)
(0.0574563 -4.07589e-18 -1.19615e-18)
(0.061608 -4.59451e-15 -8.19737e-17)
(0.061608 -4.40099e-18 -1.1983e-18)
(0.0657826 -4.59398e-15 -8.37493e-17)
(0.0657826 -4.70571e-18 -1.19932e-18)
(0.0699797 -4.59343e-15 -8.55545e-17)
(0.0699797 -5.02486e-18 -1.19916e-18)
(0.074199 -4.59286e-15 -8.73897e-17)
(0.074199 -5.36408e-18 -1.19761e-18)
(0.0784402 -4.59228e-15 -8.92553e-17)
(0.0784402 -5.70562e-18 -1.19451e-18)
(0.082703 -4.59171e-15 -9.11518e-17)
(0.082703 -6.06084e-18 -1.19011e-18)
(0.0869869 -4.59115e-15 -9.30797e-17)
(0.0869869 -6.39733e-18 -1.18421e-18)
(0.0912918 -4.59059e-15 -9.50394e-17)
(0.0912918 -6.73348e-18 -1.17674e-18)
(0.0956172 -4.59003e-15 -9.70316e-17)
(0.0956172 -7.09984e-18 -1.16738e-18)
(0.0999629 -4.58946e-15 -9.90565e-17)
(0.0999629 -7.46477e-18 -1.15634e-18)
(0.104328 -4.58889e-15 -1.01115e-16)
(0.104328 -7.82912e-18 -1.1438e-18)
(0.108713 -4.58835e-15 -1.03207e-16)
(0.108713 -8.157e-18 -1.1295e-18)
(0.113118 -4.58782e-15 -1.05334e-16)
(0.113118 -8.4589e-18 -1.11318e-18)
(0.117541 -4.58727e-15 -1.07495e-16)
(0.117541 -8.79593e-18 -1.09522e-18)
(0.121982 -4.58668e-15 -1.09692e-16)
(0.121982 -9.17227e-18 -1.07518e-18)
(0.126442 -4.58606e-15 -1.11925e-16)
(0.126442 -9.5601e-18 -1.05315e-18)
(0.130919 -4.58545e-15 -1.14194e-16)
(0.130919 -9.93935e-18 -1.02948e-18)
(0.135414 -4.58483e-15 -1.165e-16)
(0.135414 -1.03146e-17 -1.00359e-18)
(0.139926 -4.58419e-15 -1.18844e-16)
(0.139926 -1.06643e-17 -9.75605e-19)
(0.144454 -4.58354e-15 -1.21226e-16)
(0.144454 -1.10553e-17 -9.45536e-19)
(0.148999 -4.58288e-15 -1.23646e-16)
(0.148999 -1.14263e-17 -9.13337e-19)
(0.15356 -4.58223e-15 -1.26106e-16)
(0.15356 -1.1798e-17 -8.78437e-19)
(0.158136 -4.58155e-15 -1.28605e-16)
(0.158136 -1.22081e-17 -8.41045e-19)
(0.162727 -4.58087e-15 -1.31145e-16)
(0.162727 -1.25947e-17 -8.01794e-19)
(0.167333 -4.58023e-15 -1.33726e-16)
(0.167333 -1.29773e-17 -7.60203e-19)
(0.171954 -4.57956e-15 -1.36348e-16)
(0.171954 -1.33993e-17 -7.15665e-19)
(0.176588 -4.57892e-15 -1.39013e-16)
(0.176588 -1.38134e-17 -6.68457e-19)
(0.181236 -4.57827e-15 -1.41721e-16)
(0.181236 -1.41832e-17 -6.19079e-19)
(0.185897 -4.57761e-15 -1.44472e-16)
(0.185897 -1.45913e-17 -5.67093e-19)
(0.190571 -4.57692e-15 -1.47267e-16)
(0.190571 -1.50123e-17 -5.12009e-19)
(0.195257 -4.57622e-15 -1.50108e-16)
(0.195257 -1.53958e-17 -4.53925e-19)
(0.199956 -4.57557e-15 -1.52994e-16)
(0.199956 -1.58043e-17 -3.93755e-19)
(0.204666 -4.57492e-15 -1.55926e-16)
(0.204666 -1.62205e-17 -3.30623e-19)
(0.209387 -4.57422e-15 -1.58905e-16)
(0.209387 -1.66099e-17 -2.63944e-19)
(0.214119 -4.57354e-15 -1.61932e-16)
(0.214119 -1.71115e-17 -1.94404e-19)
(0.218861 -4.57285e-15 -1.65006e-16)
(0.218861 -1.75667e-17 -1.22659e-19)
(0.223613 -4.57213e-15 -1.6813e-16)
(0.223613 -1.79335e-17 -6.78644e-20)
(0.228375 -4.57141e-15 -1.71304e-16)
(0.228375 -1.83907e-17 -6.97021e-20)
(0.233146 -4.5706e-15 -1.74528e-16)
(0.233146 -1.88218e-17 -7.11127e-20)
(0.237926 -4.56977e-15 -1.77803e-16)
(0.237926 -1.93472e-17 -7.27106e-20)
(0.242714 -4.56895e-15 -1.8113e-16)
(0.242714 -1.98897e-17 -7.50074e-20)
(0.24751 -4.56812e-15 -1.84509e-16)
(0.24751 -2.0362e-17 -7.72926e-20)
(0.252314 -4.56735e-15 -1.87942e-16)
(0.252314 -2.08896e-17 -7.76713e-20)
(0.257125 -4.56659e-15 -1.91429e-16)
(0.257125 -2.13941e-17 -7.97196e-20)
(0.261942 -4.5659e-15 -1.94971e-16)
(0.261942 -2.18019e-17 -8.27616e-20)
(0.266766 -4.56524e-15 -1.98569e-16)
(0.266766 -2.22059e-17 -8.56951e-20)
(0.271595 -4.56454e-15 -2.02223e-16)
(0.271595 -2.27425e-17 -8.60316e-20)
(0.27643 -4.56379e-15 -2.05934e-16)
(0.27643 -2.32882e-17 -8.71241e-20)
(0.28127 -4.56295e-15 -2.09703e-16)
(0.28127 -2.3835e-17 -9.05445e-20)
(0.286115 -4.56211e-15 -2.13531e-16)
(0.286115 -2.44523e-17 -9.336e-20)
(0.290964 -4.56128e-15 -2.17418e-16)
(0.290964 -2.50128e-17 -9.59672e-20)
(0.295817 -4.56043e-15 -2.21366e-16)
(0.295817 -2.55447e-17 -9.84612e-20)
(0.300673 -4.55949e-15 -2.25375e-16)
(0.300673 -2.6013e-17 -9.89201e-20)
(0.305531 -4.5585e-15 -2.29446e-16)
(0.305531 -2.64663e-17 -1.01024e-19)
(0.310393 -4.55746e-15 -2.3358e-16)
(0.310393 -2.70998e-17 -1.03331e-19)
(0.315256 -4.55643e-15 -2.37778e-16)
(0.315256 -2.78122e-17 -1.04738e-19)
(0.320121 -4.55556e-15 -2.42041e-16)
(0.320121 -2.83698e-17 -1.06946e-19)
(0.324988 -4.55472e-15 -2.4637e-16)
(0.324988 -2.88573e-17 -1.10393e-19)
(0.329855 -4.5538e-15 -2.50765e-16)
(0.329855 -2.9392e-17 -1.12322e-19)
(0.334723 -4.55284e-15 -2.55227e-16)
(0.334723 -2.99459e-17 -1.14625e-19)
(0.339591 -4.5519e-15 -2.59758e-16)
(0.339591 -3.05553e-17 -1.17055e-19)
(0.344458 -4.55098e-15 -2.64358e-16)
(0.344458 -3.1087e-17 -1.20223e-19)
(0.349325 -4.55005e-15 -2.69028e-16)
(0.349325 -3.16627e-17 -1.22683e-19)
(0.35419 -4.54902e-15 -2.73769e-16)
(0.35419 -3.22035e-17 -1.23471e-19)
(0.359053 -4.548e-15 -2.78583e-16)
(0.359053 -3.28027e-17 -1.25852e-19)
(0.363915 -4.54709e-15 -2.8347e-16)
(0.363915 -3.32882e-17 -1.28126e-19)
(0.368774 -4.54616e-15 -2.88432e-16)
(0.368774 -3.37809e-17 -1.31162e-19)
(0.37363 -4.54517e-15 -2.93468e-16)
(0.37363 -3.45153e-17 -1.30465e-19)
(0.378483 -4.54404e-15 -2.9858e-16)
(0.378483 -3.54701e-17 -1.28254e-19)
(0.383333 -4.54301e-15 -3.0377e-16)
(0.383333 -3.62718e-17 -1.3189e-19)
(0.388178 -4.54215e-15 -3.09038e-16)
(0.388178 -3.67119e-17 -1.39525e-19)
(0.393018 -4.54135e-15 -3.14386e-16)
(0.393018 -3.73711e-17 -1.41945e-19)
(0.397854 -4.54044e-15 -3.19815e-16)
(0.397854 -3.81148e-17 -1.40652e-19)
(0.402685 -4.53928e-15 -3.25325e-16)
(0.402685 -3.89099e-17 -1.42254e-19)
(0.407509 -4.53813e-15 -3.30917e-16)
(0.407509 -3.97367e-17 -1.46914e-19)
(0.412328 -4.53702e-15 -3.36594e-16)
(0.412328 -4.0471e-17 -1.50855e-19)
(0.41714 -4.53587e-15 -3.42356e-16)
(0.41714 -4.12277e-17 -1.51223e-19)
(0.421945 -4.53468e-15 -3.48203e-16)
(0.421945 -4.2095e-17 -1.50696e-19)
(0.426743 -4.5334e-15 -3.54138e-16)
(0.426743 -4.30078e-17 -1.51271e-19)
(0.431534 -4.53213e-15 -3.60162e-16)
(0.431534 -4.37707e-17 -1.55594e-19)
(0.436316 -4.53097e-15 -3.66276e-16)
(0.436316 -4.44328e-17 -1.61908e-19)
(0.44109 -4.52966e-15 -3.72481e-16)
(0.44109 -4.54393e-17 -1.65844e-19)
(0.445855 -4.52827e-15 -3.78778e-16)
(0.445855 -4.67374e-17 -1.65953e-19)
(0.45061 -4.52699e-15 -3.85169e-16)
(0.45061 -4.77571e-17 -1.69812e-19)
(0.455357 -4.52581e-15 -3.91511e-16)
(0.455357 -4.85007e-17 -1.76725e-19)
(0.460093 -4.52461e-15 -3.94544e-16)
(0.460093 -4.92583e-17 -1.77893e-19)
(0.464819 -4.52354e-15 -3.97603e-16)
(0.464819 -4.99489e-17 -1.74263e-19)
(0.469534 -4.5226e-15 -4.00694e-16)
(0.469534 -5.03893e-17 -1.73247e-19)
(0.474238 -4.52152e-15 -4.03817e-16)
(0.474238 -5.0764e-17 -1.752e-19)
(0.478931 -4.52021e-15 -4.06971e-16)
(0.478931 -5.12832e-17 -1.78554e-19)
(0.483612 -4.51897e-15 -4.10166e-16)
(0.483612 -5.18259e-17 -1.7652e-19)
(0.488281 -4.51786e-15 -4.13385e-16)
(0.488281 -5.24306e-17 -1.74255e-19)
(0.492938 -4.51664e-15 -4.16635e-16)
(0.492938 -5.32431e-17 -1.74297e-19)
(0.497582 -4.51555e-15 -4.19917e-16)
(0.497582 -5.38187e-17 -1.76837e-19)
(0.502212 -4.51444e-15 -4.23237e-16)
(0.502212 -5.43732e-17 -1.83313e-19)
(0.506829 -4.51329e-15 -4.26594e-16)
(0.506829 -5.52244e-17 -1.87085e-19)
(0.511432 -4.51214e-15 -4.29989e-16)
(0.511432 -5.60645e-17 -1.87444e-19)
(0.516021 -4.51109e-15 -4.33422e-16)
(0.516021 -5.67364e-17 -1.88075e-19)
(0.520596 -4.50992e-15 -4.36883e-16)
(0.520596 -5.74706e-17 -1.87418e-19)
(0.525156 -4.50827e-15 -4.40388e-16)
(0.525156 -5.84156e-17 -1.89261e-19)
(0.5297 -4.50677e-15 -4.43935e-16)
(0.5297 -5.93494e-17 -1.93651e-19)
(0.534229 -4.50556e-15 -4.47527e-16)
(0.534229 -6.01935e-17 -1.94808e-19)
(0.538743 -4.504e-15 -4.51151e-16)
(0.538743 -6.13715e-17 -1.98287e-19)
(0.54324 -4.50219e-15 -4.54834e-16)
(0.54324 -6.29405e-17 -2.00101e-19)
(0.547721 -4.5007e-15 -4.58552e-16)
(0.547721 -6.37872e-17 -2.04293e-19)
(0.552185 -4.49922e-15 -4.62313e-16)
(0.552185 -6.45072e-17 -2.10782e-19)
(0.556632 -4.49766e-15 -4.66123e-16)
(0.556632 -6.56523e-17 -2.02671e-19)
(0.561062 -4.49618e-15 -4.69963e-16)
(0.561062 -6.64418e-17 -1.99937e-19)
(0.565475 -4.49458e-15 -4.73854e-16)
(0.565475 -6.75324e-17 -2.07285e-19)
(0.569869 -4.49327e-15 -4.778e-16)
(0.569869 -6.83902e-17 -2.11299e-19)
(0.574246 -4.49223e-15 -4.81784e-16)
(0.574246 -6.88667e-17 -2.04386e-19)
(0.578604 -4.4907e-15 -4.85793e-16)
(0.578604 -7.01689e-17 -1.97203e-19)
(0.582943 -4.48902e-15 -4.89862e-16)
(0.582943 -7.15843e-17 -2.0381e-19)
(0.587264 -4.48745e-15 -4.93986e-16)
(0.587264 -7.28508e-17 -2.12658e-19)
(0.591565 -4.48593e-15 -4.98168e-16)
(0.591565 -7.39866e-17 -2.17071e-19)
(0.595847 -4.4847e-15 -5.02395e-16)
(0.595847 -7.45997e-17 -2.05954e-19)
(0.600109 -4.48364e-15 -5.0665e-16)
(0.600109 -7.52028e-17 -1.97329e-19)
(0.604352 -4.48252e-15 -5.10949e-16)
(0.604352 -7.61672e-17 -1.94392e-19)
(0.608574 -4.48134e-15 -5.15299e-16)
(0.608574 -7.68771e-17 -1.9186e-19)
(0.612776 -4.48002e-15 -5.19689e-16)
(0.612776 -7.7316e-17 -1.9158e-19)
(0.616957 -4.47886e-15 -5.2412e-16)
(0.616957 -7.81274e-17 -1.79572e-19)
(0.621117 -4.47755e-15 -5.28584e-16)
(0.621117 -7.89731e-17 -1.73584e-19)
(0.625256 -4.47597e-15 -5.33094e-16)
(0.625256 -7.96754e-17 -1.74641e-19)
(0.629374 -4.47453e-15 -5.37661e-16)
(0.629374 -8.08763e-17 -1.75156e-19)
(0.63347 -4.47314e-15 -5.42283e-16)
(0.63347 -8.18065e-17 -1.68198e-19)
(0.637545 -4.47173e-15 -5.46939e-16)
(0.637545 -8.23384e-17 -1.5064e-19)
(0.641598 -4.47018e-15 -5.51629e-16)
(0.641598 -8.35255e-17 -1.43094e-19)
(0.645629 -4.4683e-15 -5.56385e-16)
(0.645629 -8.42796e-17 -1.49159e-19)
(0.649637 -4.46632e-15 -5.61202e-16)
(0.649637 -8.51621e-17 -1.40542e-19)
(0.653623 -4.46436e-15 -5.66066e-16)
(0.653623 -8.63599e-17 -1.26252e-19)
(0.657586 -4.46252e-15 -5.70984e-16)
(0.657586 -8.70419e-17 -1.23825e-19)
(0.661526 -4.46058e-15 -5.75962e-16)
(0.661526 -8.78869e-17 -1.23988e-19)
(0.665444 -4.45846e-15 -5.80998e-16)
(0.665444 -8.86479e-17 -1.05014e-19)
(0.669338 -4.45652e-15 -5.86079e-16)
(0.669338 -8.97849e-17 -9.06483e-20)
(0.673209 -4.45481e-15 -5.91204e-16)
(0.673209 -9.06504e-17 -9.0567e-20)
(0.677056 -4.45292e-15 -5.96395e-16)
(0.677056 -9.17108e-17 -8.66079e-20)
(0.68088 -4.45076e-15 -6.01636e-16)
(0.68088 -9.32166e-17 -7.71545e-20)
(0.68468 -4.44858e-15 -6.06927e-16)
(0.68468 -9.45079e-17 -8.50308e-20)
(0.688456 -4.44626e-15 -6.12295e-16)
(0.688456 -9.60498e-17 -8.14339e-20)
(0.692208 -4.44437e-15 -6.17712e-16)
(0.692208 -9.72685e-17 -5.41217e-20)
(0.695936 -4.44236e-15 -6.23155e-16)
(0.695936 -9.85467e-17 -3.97204e-20)
(0.69964 -4.44027e-15 -6.28672e-16)
(0.69964 -1.00386e-16 -5.46615e-20)
(0.703319 -4.43811e-15 -6.34268e-16)
(0.703319 -1.01996e-16 -6.70634e-20)
(0.706973 -4.43557e-15 -6.39937e-16)
(0.706973 -1.03787e-16 -6.39743e-20)
(0.710603 -4.43329e-15 -6.45665e-16)
(0.710603 -1.05822e-16 -3.81814e-20)
(0.714208 -4.43096e-15 -6.51451e-16)
(0.714208 -1.07318e-16 -4.21399e-20)
(0.717789 -4.42871e-15 -6.57327e-16)
(0.717789 -1.09021e-16 -5.84484e-20)
(0.721344 -4.42624e-15 -6.63275e-16)
(0.721344 -1.1164e-16 -6.70894e-20)
(0.724874 -4.42405e-15 -6.69311e-16)
(0.724874 -1.13019e-16 -4.69843e-20)
(0.728379 -4.42259e-15 -6.754e-16)
(0.728379 -1.13439e-16 -3.58841e-20)
(0.731859 -4.42097e-15 -6.81556e-16)
(0.731859 -1.14381e-16 -2.37427e-20)
(0.735314 -4.41924e-15 -6.87758e-16)
(0.735314 -1.15216e-16 6.94686e-21)
(0.738744 -4.41738e-15 -6.93997e-16)
(0.738744 -1.16328e-16 3.31534e-20)
(0.742147 -4.41542e-15 -7.00285e-16)
(0.742147 -1.17009e-16 3.4253e-20)
(0.745526 -4.41356e-15 -7.06659e-16)
(0.745526 -1.17711e-16 3.54431e-20)
(0.748879 -4.4116e-15 -7.13085e-16)
(0.748879 -1.18823e-16 6.29124e-20)
(0.752206 -4.40931e-15 -7.19551e-16)
(0.752206 -1.20154e-16 9.70816e-20)
(0.755508 -4.40685e-15 -7.26071e-16)
(0.755508 -1.21662e-16 1.05431e-19)
(0.758784 -4.40467e-15 -7.32674e-16)
(0.758784 -1.23322e-16 1.11882e-19)
(0.762034 -4.40236e-15 -7.39336e-16)
(0.762034 -1.24688e-16 1.26797e-19)
(0.765259 -4.40002e-15 -7.46048e-16)
(0.765259 -1.2609e-16 1.33707e-19)
(0.768457 -4.39784e-15 -7.52843e-16)
(0.768457 -1.2705e-16 1.43462e-19)
(0.77163 -4.39517e-15 -7.59681e-16)
(0.77163 -1.28811e-16 1.78779e-19)
(0.774777 -4.39224e-15 -7.66579e-16)
(0.774777 -1.30819e-16 2.11082e-19)
(0.777899 -4.38972e-15 -7.73539e-16)
(0.777899 -1.3207e-16 2.395e-19)
(0.780994 -4.38683e-15 -7.80557e-16)
(0.780994 -1.34368e-16 2.43194e-19)
(0.784064 -4.38339e-15 -7.87661e-16)
(0.784064 -1.35861e-16 2.37383e-19)
(0.787107 -4.38196e-15 -7.94851e-16)
(0.787107 -1.38552e-16 2.76526e-19)
(0.790125 -4.37854e-15 -8.0207e-16)
(0.790125 -1.41297e-16 3.03826e-19)
(0.793117 -4.37598e-15 -8.09392e-16)
(0.793117 -1.42097e-16 3.16441e-19)
(0.796083 -4.3733e-15 -8.16765e-16)
(0.796083 -1.44081e-16 3.37201e-19)
(0.799024 -4.36998e-15 -8.24205e-16)
(0.799024 -1.45885e-16 3.70136e-19)
(0.801938 -4.36673e-15 -8.31756e-16)
(0.801938 -1.47823e-16 3.98713e-19)
(0.804827 -4.36331e-15 -8.39369e-16)
(0.804827 -1.49894e-16 4.28987e-19)
(0.80769 -4.36076e-15 -8.47048e-16)
(0.80769 -1.5107e-16 4.77686e-19)
(0.810527 -4.3592e-15 -8.54768e-16)
(0.810527 -1.51751e-16 5.28333e-19)
(0.813338 -4.35706e-15 -8.6252e-16)
(0.813338 -1.52331e-16 5.43573e-19)
(0.816124 -4.35516e-15 -8.7035e-16)
(0.816124 -1.5358e-16 5.7729e-19)
(0.818884 -4.35282e-15 -8.782e-16)
(0.818884 -1.54945e-16 6.34004e-19)
(0.821619 -4.3504e-15 -8.86095e-16)
(0.821619 -1.56606e-16 6.76831e-19)
(0.824327 -4.34768e-15 -8.94057e-16)
(0.824327 -1.57782e-16 7.03652e-19)
(0.827011 -4.34412e-15 -9.02067e-16)
(0.827011 -1.59287e-16 7.34341e-19)
(0.829669 -4.3404e-15 -9.10126e-16)
(0.829669 -1.60866e-16 7.55167e-19)
(0.832301 -4.33684e-15 -9.18296e-16)
(0.832301 -1.62181e-16 8.1148e-19)
(0.834909 -4.33375e-15 -9.26488e-16)
(0.834909 -1.63687e-16 8.70599e-19)
(0.837491 -4.33061e-15 -9.34703e-16)
(0.837491 -1.65341e-16 9.28176e-19)
(0.840047 -4.32754e-15 -9.42961e-16)
(0.840047 -1.67129e-16 9.41518e-19)
(0.842579 -4.32438e-15 -9.51293e-16)
(0.842579 -1.6813e-16 9.46625e-19)
(0.845085 -4.32096e-15 -9.59696e-16)
(0.845085 -1.69916e-16 9.83129e-19)
(0.847567 -4.31697e-15 -9.68156e-16)
(0.847567 -1.72625e-16 1.03303e-18)
(0.850024 -4.31273e-15 -9.76687e-16)
(0.850024 -1.75009e-16 1.07848e-18)
(0.852455 -4.30887e-15 -9.85293e-16)
(0.852455 -1.77476e-16 1.12439e-18)
(0.854862 -4.30547e-15 -9.93945e-16)
(0.854862 -1.79337e-16 1.18918e-18)
(0.857245 -4.30261e-15 -1.00263e-15)
(0.857245 -1.8058e-16 1.25464e-18)
(0.859602 -4.29983e-15 -1.01137e-15)
(0.859602 -1.82186e-16 1.31293e-18)
(0.861936 -4.29705e-15 -1.02016e-15)
(0.861936 -1.84152e-16 1.3529e-18)
(0.864244 -4.29465e-15 -1.02899e-15)
(0.864244 -1.86287e-16 1.38513e-18)
(0.866529 -4.29177e-15 -1.03787e-15)
(0.866529 -1.87059e-16 1.44078e-18)
(0.868789 -4.28764e-15 -1.04676e-15)
(0.868789 -1.89727e-16 1.54701e-18)
(0.871026 -4.28354e-15 -1.05566e-15)
(0.871026 -1.93158e-16 1.63799e-18)
(0.873238 -4.28023e-15 -1.06461e-15)
(0.873238 -1.94306e-16 1.66955e-18)
(0.875426 -4.27646e-15 -1.07359e-15)
(0.875426 -1.9672e-16 1.71572e-18)
(0.877591 -4.272e-15 -1.08259e-15)
(0.877591 -1.99288e-16 1.74807e-18)
(0.879732 -4.26865e-15 -1.09167e-15)
(0.879732 -2.02056e-16 1.75357e-18)
(0.881849 -4.26522e-15 -1.10079e-15)
(0.881849 -2.06414e-16 1.81364e-18)
(0.883943 -4.26071e-15 -1.10991e-15)
(0.883943 -2.09353e-16 1.91699e-18)
(0.886013 -4.25596e-15 -1.11905e-15)
(0.886013 -2.1199e-16 1.96029e-18)
(0.88806 -4.25103e-15 -1.12827e-15)
(0.88806 -2.16507e-16 1.97304e-18)
(0.890085 -4.24662e-15 -1.13752e-15)
(0.890085 -2.21453e-16 2.00163e-18)
(0.892086 -4.24155e-15 -1.1468e-15)
(0.892086 -2.25762e-16 2.02081e-18)
(0.894064 -4.23622e-15 -1.15617e-15)
(0.894064 -2.30248e-16 2.07589e-18)
(0.896019 -4.23107e-15 -1.16556e-15)
(0.896019 -2.34803e-16 2.10761e-18)
(0.897952 -4.22535e-15 -1.17501e-15)
(0.897952 -2.40181e-16 2.15568e-18)
(0.899863 -4.22087e-15 -1.1845e-15)
(0.899863 -2.44488e-16 2.24891e-18)
(0.901751 -4.21717e-15 -1.19402e-15)
(0.901751 -2.45649e-16 2.3247e-18)
(0.903617 -4.21411e-15 -1.20348e-15)
(0.903617 -2.49962e-16 2.38755e-18)
(0.90546 -4.21125e-15 -1.21294e-15)
(0.90546 -2.51201e-16 2.40186e-18)
(0.907282 -4.20705e-15 -1.22244e-15)
(0.907282 -2.53948e-16 2.43786e-18)
(0.909082 -4.20359e-15 -1.23198e-15)
(0.909082 -2.57327e-16 2.46246e-18)
(0.91086 -4.19975e-15 -1.24147e-15)
(0.91086 -2.61651e-16 2.4967e-18)
(0.912617 -4.19432e-15 -1.25094e-15)
(0.912617 -2.64707e-16 2.51081e-18)
(0.914352 -4.19019e-15 -1.26045e-15)
(0.914352 -2.68309e-16 2.53888e-18)
(0.916066 -4.18559e-15 -1.26999e-15)
(0.916066 -2.72265e-16 2.59435e-18)
(0.917759 -4.1796e-15 -1.27953e-15)
(0.917759 -2.77238e-16 2.60324e-18)
(0.91943 -4.17382e-15 -1.28916e-15)
(0.91943 -2.83184e-16 2.65733e-18)
(0.921081 -4.16821e-15 -1.29878e-15)
(0.921081 -2.87365e-16 2.67531e-18)
(0.922711 -4.16219e-15 -1.30842e-15)
(0.922711 -2.92497e-16 2.68779e-18)
(0.92432 -4.15638e-15 -1.31808e-15)
(0.92432 -2.97411e-16 2.7014e-18)
(0.925909 -4.1501e-15 -1.32768e-15)
(0.925909 -3.02164e-16 2.70031e-18)
(0.927478 -4.14283e-15 -1.33734e-15)
(0.927478 -3.07654e-16 2.7002e-18)
(0.929026 -4.13503e-15 -1.34706e-15)
(0.929026 -3.13444e-16 2.72419e-18)
(0.930555 -4.12729e-15 -1.35679e-15)
(0.930555 -3.19353e-16 2.7426e-18)
(0.932063 -4.12019e-15 -1.36651e-15)
(0.932063 -3.25418e-16 2.73198e-18)
(0.933552 -4.11236e-15 -1.37625e-15)
(0.933552 -3.31377e-16 2.75999e-18)
(0.935021 -4.10527e-15 -1.38597e-15)
(0.935021 -3.37827e-16 2.77532e-18)
(0.936471 -4.09917e-15 -1.3956e-15)
(0.936471 -3.43444e-16 2.7705e-18)
(0.937901 -4.09359e-15 -1.40521e-15)
(0.937901 -3.46728e-16 2.73794e-18)
(0.939312 -4.08847e-15 -1.4148e-15)
(0.939312 -3.50632e-16 2.73032e-18)
(0.940704 -4.08246e-15 -1.42435e-15)
(0.940704 -3.55209e-16 2.74092e-18)
(0.942078 -4.07631e-15 -1.43384e-15)
(0.942078 -3.60363e-16 2.74795e-18)
(0.943432 -4.07018e-15 -1.44323e-15)
(0.943432 -3.65616e-16 2.73161e-18)
(0.944768 -4.06318e-15 -1.45258e-15)
(0.944768 -3.70835e-16 2.7662e-18)
(0.946085 -4.05685e-15 -1.46188e-15)
(0.946085 -3.75912e-16 2.78505e-18)
(0.947385 -4.05127e-15 -1.47112e-15)
(0.947385 -3.81449e-16 2.7878e-18)
(0.948665 -4.04518e-15 -1.48031e-15)
(0.948665 -3.87549e-16 2.80985e-18)
(0.949928 -4.03756e-15 -1.48939e-15)
(0.949928 -3.94007e-16 2.82592e-18)
(0.951173 -4.02875e-15 -1.49851e-15)
(0.951173 -4.0077e-16 2.85923e-18)
(0.952401 -4.02087e-15 -1.50765e-15)
(0.952401 -4.06946e-16 2.87886e-18)
(0.95361 -4.01315e-15 -1.51669e-15)
(0.95361 -4.13137e-16 2.86361e-18)
(0.954802 -4.00368e-15 -1.52569e-15)
(0.954802 -4.2045e-16 2.88403e-18)
(0.955977 -3.99325e-15 -1.5347e-15)
(0.955977 -4.28674e-16 2.87442e-18)
(0.957135 -3.98346e-15 -1.54364e-15)
(0.957135 -4.35841e-16 2.85556e-18)
(0.958275 -3.97455e-15 -1.55261e-15)
(0.958275 -4.41315e-16 2.8705e-18)
(0.959399 -3.9669e-15 -1.56139e-15)
(0.959399 -4.47864e-16 2.80299e-18)
(0.960506 -3.95975e-15 -1.57e-15)
(0.960506 -4.53459e-16 2.75266e-18)
(0.961596 -3.95258e-15 -1.57851e-15)
(0.961596 -4.58791e-16 2.74741e-18)
(0.96267 -3.94427e-15 -1.58693e-15)
(0.96267 -4.65084e-16 2.77439e-18)
(0.963728 -3.93523e-15 -1.59512e-15)
(0.963728 -4.7124e-16 2.77827e-18)
(0.964769 -3.9272e-15 -1.60322e-15)
(0.964769 -4.77367e-16 2.76426e-18)
(0.965794 -3.91759e-15 -1.61124e-15)
(0.965794 -4.83759e-16 2.81714e-18)
(0.966803 -3.90872e-15 -1.61915e-15)
(0.966803 -4.91465e-16 2.83263e-18)
(0.967797 -3.90012e-15 -1.62684e-15)
(0.967797 -4.99882e-16 2.82428e-18)
(0.968775 -3.88863e-15 -1.63458e-15)
(0.968775 -5.06195e-16 2.83518e-18)
(0.969737 -3.87773e-15 -1.64219e-15)
(0.969737 -5.14292e-16 2.85694e-18)
(0.970684 -3.86647e-15 -1.64961e-15)
(0.970684 -5.24417e-16 2.8369e-18)
(0.971615 -3.85377e-15 -1.65701e-15)
(0.971615 -5.32216e-16 2.82452e-18)
(0.972532 -3.84059e-15 -1.66436e-15)
(0.972532 -5.40458e-16 2.87976e-18)
(0.973433 -3.82821e-15 -1.67162e-15)
(0.973433 -5.49563e-16 2.87172e-18)
(0.974319 -3.81818e-15 -1.67869e-15)
(0.974319 -5.57192e-16 2.77788e-18)
(0.975191 -3.80712e-15 -1.68552e-15)
(0.975191 -5.63662e-16 2.73362e-18)
(0.976048 -3.79555e-15 -1.69213e-15)
(0.976048 -5.71167e-16 2.68782e-18)
(0.97689 -3.78474e-15 -1.69857e-15)
(0.97689 -5.7967e-16 2.65896e-18)
(0.977718 -3.77379e-15 -1.70476e-15)
(0.977718 -5.88752e-16 2.63497e-18)
(0.978532 -3.76399e-15 -1.71063e-15)
(0.978532 -5.94126e-16 2.61907e-18)
(0.979332 -3.75263e-15 -1.71648e-15)
(0.979332 -6.02593e-16 2.63362e-18)
(0.980117 -3.74118e-15 -1.72207e-15)
(0.980117 -6.12386e-16 2.64739e-18)
(0.980889 -3.7303e-15 -1.7273e-15)
(0.980889 -6.19887e-16 2.63796e-18)
(0.981647 -3.71744e-15 -1.73242e-15)
(0.981647 -6.28522e-16 2.64354e-18)
(0.982391 -3.70448e-15 -1.73737e-15)
(0.982391 -6.3763e-16 2.65149e-18)
(0.983122 -3.69101e-15 -1.74209e-15)
(0.983122 -6.49066e-16 2.63889e-18)
(0.983839 -3.67791e-15 -1.74665e-15)
(0.983839 -6.57285e-16 2.69448e-18)
(0.984542 -3.66644e-15 -1.75094e-15)
(0.984542 -6.63759e-16 2.67339e-18)
(0.985233 -3.65417e-15 -1.75495e-15)
(0.985233 -6.73071e-16 2.61416e-18)
(0.98591 -3.63921e-15 -1.75849e-15)
(0.98591 -6.82353e-16 2.51252e-18)
(0.986575 -3.62552e-15 -1.76194e-15)
(0.986575 -6.92644e-16 2.55102e-18)
(0.987226 -3.61186e-15 -1.76528e-15)
(0.987226 -7.04956e-16 2.61974e-18)
(0.987865 -3.59515e-15 -1.76818e-15)
(0.987865 -7.17977e-16 2.62975e-18)
(0.988491 -3.58192e-15 -1.7707e-15)
(0.988491 -7.27438e-16 2.66305e-18)
(0.989104 -3.57249e-15 -1.77289e-15)
(0.989104 -7.3106e-16 2.55237e-18)
(0.989705 -3.56259e-15 -1.77458e-15)
(0.989705 -7.37983e-16 2.3719e-18)
(0.990293 -3.54997e-15 -1.77565e-15)
(0.990293 -7.47579e-16 -1.60911e-18)
(0.990869 -3.53713e-15 -1.77619e-15)
(0.990869 -7.54606e-16 -7.1285e-18)
(0.991433 -3.52489e-15 -1.77641e-15)
(0.991433 -7.62189e-16 -1.27293e-17)
(0.991985 -3.51031e-15 -1.77609e-15)
(0.991985 -7.7139e-16 -1.82617e-17)
(0.992525 -3.49659e-15 -1.77513e-15)
(0.992525 -7.79566e-16 -2.40466e-17)
(0.993052 -3.48256e-15 -1.77397e-15)
(0.993052 -7.8837e-16 -2.99957e-17)
(0.993569 -3.46809e-15 -1.77237e-15)
(0.993569 -7.98906e-16 -3.59726e-17)
(0.994073 -3.4527e-15 -1.77037e-15)
(0.994073 -8.07851e-16 -4.20761e-17)
(0.994566 -3.43597e-15 -1.76824e-15)
(0.994566 -8.16972e-16 -4.82802e-17)
(0.995047 -3.42023e-15 -1.76581e-15)
(0.995047 -8.283e-16 -5.18005e-17)
(0.995517 -3.40548e-15 -1.76292e-15)
(0.995517 -8.37445e-16 -5.4652e-17)
(0.995975 -3.38925e-15 -1.75993e-15)
(0.995975 -8.48233e-16 -5.74845e-17)
(0.996422 -3.37202e-15 -1.75628e-15)
(0.996422 -8.61518e-16 -6.03184e-17)
(0.996858 -3.35585e-15 -1.75218e-15)
(0.996858 -8.72566e-16 -6.32056e-17)
(0.997283 -3.3408e-15 -1.7477e-15)
(0.997283 -8.81701e-16 -6.62231e-17)
(0.997697 -3.32398e-15 -1.74278e-15)
(0.997697 -8.9283e-16 -6.92689e-17)
(0.998101 -3.30444e-15 -1.73766e-15)
(0.998101 -9.0531e-16 -7.22852e-17)
(0.998493 -3.28665e-15 -1.73226e-15)
(0.998493 -9.16987e-16 -7.5245e-17)
(0.998875 -3.2662e-15 -1.72647e-15)
(0.998875 -9.29425e-16 -7.8112e-17)
(0.999246 -3.2469e-15 -1.72035e-15)
(0.999246 -9.42179e-16 -8.09874e-17)
(0.999606 -3.23028e-15 -1.71379e-15)
(0.999606 -9.55208e-16 -8.38684e-17)
(0.999957 -3.21182e-15 -1.70644e-15)
(0.999957 -9.66782e-16 -8.6868e-17)
(1.0003 -3.19351e-15 -1.69863e-15)
(1.0003 -9.79088e-16 -8.98198e-17)
(1.00063 -3.17586e-15 -1.69046e-15)
(1.00063 -9.92391e-16 -9.27456e-17)
(1.00095 -3.15997e-15 -1.68202e-15)
(1.00095 -1.00494e-15 -9.55579e-17)
(1.00126 -3.14349e-15 -1.6727e-15)
(1.00126 -1.0185e-15 -9.82858e-17)
(1.00156 -3.12636e-15 -1.66277e-15)
(1.00156 -1.03243e-15 -1.00857e-16)
(1.00185 -3.10704e-15 -1.65268e-15)
(1.00185 -1.04485e-15 -1.03309e-16)
(1.00213 -3.08566e-15 -1.64215e-15)
(1.00213 -1.05783e-15 -1.05801e-16)
(1.0024 -3.06593e-15 -1.63095e-15)
(1.0024 -1.07021e-15 -1.0828e-16)
(1.00266 -3.04623e-15 -1.6191e-15)
(1.00266 -1.08277e-15 -1.10708e-16)
(1.00291 -3.02569e-15 -1.607e-15)
(1.00291 -1.09832e-15 -1.13029e-16)
(1.00315 -3.00468e-15 -1.59441e-15)
(1.00315 -1.1111e-15 -1.15124e-16)
(1.00339 -2.98799e-15 -1.58142e-15)
(1.00339 -1.12047e-15 -1.1713e-16)
(1.00361 -2.97445e-15 -1.56733e-15)
(1.00361 -1.13157e-15 -1.19043e-16)
(1.00383 -2.957e-15 -1.55209e-15)
(1.00383 -1.1395e-15 -1.20969e-16)
(1.00403 -2.93654e-15 -1.53649e-15)
(1.00403 -1.14602e-15 -1.22862e-16)
(1.00423 -2.91801e-15 -1.52052e-15)
(1.00423 -1.15578e-15 -1.24591e-16)
(1.00442 -2.9055e-15 -1.50362e-15)
(1.00442 -1.16204e-15 -1.26244e-16)
(1.0046 -2.89529e-15 -1.48525e-15)
(1.0046 -1.16486e-15 -1.28046e-16)
(1.00478 -2.87898e-15 -1.46585e-15)
(1.00478 -1.17224e-15 -1.30062e-16)
(1.00494 -2.85972e-15 -1.44637e-15)
(1.00494 -1.18382e-15 -1.32041e-16)
(1.0051 -2.84059e-15 -1.42582e-15)
(1.0051 -1.19692e-15 -1.33963e-16)
(1.00525 -2.8222e-15 -1.40522e-15)
(1.00525 -1.20916e-15 -1.35475e-16)
(1.0054 -2.80723e-15 -1.38431e-15)
(1.0054 -1.21963e-15 -1.36669e-16)
(1.00553 -2.78967e-15 -1.36221e-15)
(1.00553 -1.22801e-15 -1.37875e-16)
(1.00566 -2.76817e-15 -1.33984e-15)
(1.00566 -1.23806e-15 -1.38871e-16)
(1.00578 -2.74817e-15 -1.31686e-15)
(1.00578 -1.24873e-15 -1.39648e-16)
(1.0059 -2.72949e-15 -1.29355e-15)
(1.0059 -1.25975e-15 -1.40177e-16)
(1.00601 -2.71039e-15 -1.27013e-15)
(1.00601 -1.27292e-15 -1.40581e-16)
(1.00611 -2.69273e-15 -1.24636e-15)
(1.00611 -1.28384e-15 -1.40833e-16)
(1.00621 -2.67559e-15 -1.22214e-15)
(1.00621 -1.29455e-15 -1.411e-16)
(1.0063 -2.65712e-15 -1.1976e-15)
(1.0063 -1.30479e-15 -1.41285e-16)
(1.00638 -2.63847e-15 -1.17315e-15)
(1.00638 -1.31294e-15 -1.41066e-16)
(1.00646 -2.62176e-15 -1.14831e-15)
(1.00646 -1.32219e-15 -1.40842e-16)
(1.00654 -2.60528e-15 -1.12315e-15)
(1.00654 -1.32994e-15 -1.40306e-16)
(1.00661 -2.58868e-15 -1.09812e-15)
(1.00661 -1.33468e-15 -1.39466e-16)
(1.00667 -2.57353e-15 -1.0723e-15)
(1.00667 -1.34206e-15 -1.3888e-16)
(1.00673 -2.55742e-15 -1.04676e-15)
(1.00673 -1.34921e-15 -1.38259e-16)
(1.00679 -2.54039e-15 -1.02169e-15)
(1.00679 -1.35815e-15 -1.37216e-16)
(1.00684 -2.52432e-15 -9.9663e-16)
(1.00684 -1.3643e-15 -1.35738e-16)
(1.00689 -2.50907e-15 -9.71431e-16)
(1.00689 -1.36769e-15 -1.3429e-16)
(1.00693 -2.49369e-15 -9.46739e-16)
(1.00693 -1.37431e-15 -1.32698e-16)
(1.00697 -2.47735e-15 -9.21595e-16)
(1.00697 -1.38187e-15 -1.3097e-16)
(1.00701 -2.46189e-15 -8.97478e-16)
(1.00701 -1.38489e-15 -1.28785e-16)
(1.00704 -2.4473e-15 -8.73803e-16)
(1.00704 -1.38903e-15 -1.26677e-16)
(1.00708 -2.43301e-15 -8.50774e-16)
(1.00708 -1.39667e-15 -1.24634e-16)
(1.0071 -2.41827e-15 -8.26843e-16)
(1.0071 -1.40405e-15 -1.22587e-16)
(1.00713 -2.40224e-15 -8.03739e-16)
(1.00713 -1.41257e-15 -1.20545e-16)
(1.00716 -2.38713e-15 -7.81425e-16)
(1.00716 -1.41926e-15 -1.18287e-16)
(1.00718 -2.37332e-15 -7.59243e-16)
(1.00718 -1.42436e-15 -1.16056e-16)
(1.0072 -2.35875e-15 -7.36942e-16)
(1.0072 -1.42995e-15 -1.13895e-16)
(1.00722 -2.34452e-15 -7.15543e-16)
(1.00722 -1.44141e-15 -1.11531e-16)
(1.00723 -2.33035e-15 -6.95038e-16)
(1.00723 -1.45031e-15 -1.09364e-16)
(1.00725 -2.31696e-15 -6.74775e-16)
(1.00725 -1.45741e-15 -1.07649e-16)
(1.00726 -2.30578e-15 -6.55036e-16)
(1.00726 -1.4644e-15 -1.05829e-16)
(1.00728 -2.29514e-15 -6.35986e-16)
(1.00728 -1.46771e-15 -1.04022e-16)
(1.00729 -2.28564e-15 -6.1704e-16)
(1.00729 -1.47215e-15 -1.02405e-16)
(1.0073 -2.27754e-15 -5.98409e-16)
(1.0073 -1.47884e-15 -1.0102e-16)
(1.00731 -2.26928e-15 -5.80468e-16)
(1.00731 -1.48469e-15 -9.95676e-17)
(1.00732 -2.25917e-15 -5.6332e-16)
(1.00732 -1.48968e-15 -9.83769e-17)
(1.00733 -2.24871e-15 -5.469e-16)
(1.00733 -1.49255e-15 -9.7004e-17)
(1.00734 -2.23929e-15 -5.31229e-16)
(1.00734 -1.49594e-15 -9.5672e-17)
(1.00735 -2.23192e-15 -5.15875e-16)
(1.00735 -1.50621e-15 -9.38035e-17)
(1.00736 -2.22302e-15 -5.00523e-16)
(1.00736 -1.51001e-15 -9.20084e-17)
(1.00737 -2.21039e-15 -4.86676e-16)
(1.00737 -1.51055e-15 -8.9867e-17)
(1.00737 -2.19689e-15 -4.72656e-16)
(1.00737 -1.51733e-15 -8.77229e-17)
(1.00738 -2.18554e-15 -4.5912e-16)
(1.00738 -1.52402e-15 -8.56579e-17)
(1.00739 -2.17564e-15 -4.46594e-16)
(1.00739 -1.52929e-15 -8.3569e-17)
(1.0074 -2.16419e-15 -4.35651e-16)
(1.0074 -1.53839e-15 -8.14068e-17)
(1.00741 -2.16103e-15 -4.23557e-16)
(1.00741 -1.54618e-15 -7.91468e-17)
(1.00742 -2.15067e-15 -4.12314e-16)
(1.00742 -1.5483e-15 -7.67914e-17)
(1.00743 -2.13965e-15 -4.01812e-16)
(1.00743 -1.54784e-15 -7.39905e-17)
(1.00744 -2.13108e-15 -3.92292e-16)
(1.00744 -1.55031e-15 -7.16469e-17)
(1.00745 -2.12258e-15 -3.81803e-16)
(1.00745 -1.54925e-15 -6.95939e-17)