/*--------------------------------*- C++ -*----------------------------------*\
| =========                 |                                                 |
| \\      /  F ield         | OpenFOAM: The Open Source CFD Toolbox           |
|  \\    /   O peration     | Version:  2012                                  |
|   \\  /    A nd           | Website:  www.openfoam.com                      |
|    \\/     M anipulation  |                                                 |
\*---------------------------------------------------------------------------*/
FoamFile
{
    version     2.0;
    format      ascii;
    class       volTensorField;
    location    "1000";
    object      grad(U);
}
// * * * * * * * * * * * * * * * * * * * * * * * * * * * * * * * * * * * * * //

dimensions      [0 0 -1 0 0 0 0];


internalField   nonuniform List<tensor> 
2560
(
(0 6.23671e-30 -6.40163e-27 133.194 -1.39102e-11 -3.49273e-13 0.192803 -1.00729e-14 -3.91055e-16)
(0 -4.15781e-30 -6.49658e-32 133.194 -7.2589e-15 8.66931e-15 0.192803 -2.04652e-17 3.88654e-16)
(0 -7.0336e-25 -6.39078e-27 133.194 3.6663e-32 -2.535e-14 0.581208 -6.31089e-30 -7.44565e-17)
(0 -4.09822e-30 -1.28069e-31 133.194 -2.55961e-15 7.4883e-15 0.581208 2.0397e-18 1.54678e-15)
(-2.438e-17 -4.82349e-30 1.27311e-31 133.196 1.37878e-12 -1.09058e-14 0.799588 -8.29371e-15 -5.53969e-17)
(0 1.61579e-29 2.52467e-31 133.196 -1.34555e-14 3.17843e-16 0.799588 -2.21561e-17 1.59132e-15)
(3.5843e-16 -1.89215e-29 -3.78579e-31 133.196 6.248e-13 -9.38999e-15 0.811201 -8.13946e-15 -5.81738e-17)
(-2.80179e-16 1.59263e-29 2.48849e-31 133.196 -9.88888e-15 2.09686e-16 0.811201 -3.37185e-17 1.63674e-15)
(2.76163e-16 -2.74716e-29 -4.90565e-31 133.183 -1.00652e-13 -9.75124e-15 0.822855 -5.87075e-16 -6.1484e-17)
(0 2.35471e-29 3.67923e-31 133.183 -1.02952e-14 1.284e-16 0.822855 -4.61183e-17 1.68296e-15)
(1.88424e-16 -2.76016e-27 -4.97901e-31 133.135 -2.22066e-14 -9.86026e-15 0.834351 -6.91013e-17 -6.12446e-17)
(1.50739e-15 1.16048e-29 3.6265e-31 133.135 -1.05319e-14 4.98418e-17 0.834351 -5.93933e-17 1.72968e-15)
(-2.44793e-16 -2.73253e-44 1.94112e-32 133.007 1.32108e-27 -9.53276e-15 0.845341 -6.31089e-30 -5.91194e-17)
(9.79173e-16 1.52513e-29 2.38302e-31 133.007 -1.06224e-14 -3.08486e-17 0.845341 -7.2602e-17 1.77632e-15)
(-3.02071e-16 1.91866e-29 4.94428e-31 132.735 1.70691e-14 -8.88203e-15 0.855282 -1.09989e-16 -5.46412e-17)
(6.79367e-16 -7.51636e-30 -2.34886e-31 132.735 -1.08936e-14 -1.31829e-16 0.855282 -8.47461e-17 1.82191e-15)
(3.6029e-16 -1.15598e-29 -4.93173e-31 132.224 1.56129e-14 -7.80667e-15 0.863413 -1.08684e-16 -4.67722e-17)
(5.21336e-16 1.11129e-29 4.63039e-31 132.224 -1.14131e-14 -2.45885e-16 0.863413 -9.86666e-17 1.86492e-15)
(0 1.82561e-29 3.42302e-31 131.355 1.39527e-14 -6.19178e-15 0.868792 -9.41462e-17 -3.47916e-17)
(-5.13864e-16 -7.30244e-30 -1.14101e-31 131.355 -1.16694e-14 -3.73111e-16 0.868792 -1.13104e-16 1.9034e-15)
(-4.79518e-16 -2.10432e-29 -2.95936e-31 129.996 1.36386e-14 -3.99386e-15 0.870384 -8.98155e-17 -1.85234e-17)
(0 2.51922e-29 6.74792e-31 129.996 -1.20279e-14 -5.22283e-16 0.870384 -1.27817e-16 1.93491e-15)
(5.4035e-16 -3.60721e-29 -1.56463e-28 128.02 1.37425e-14 -4.65526e-29 0.867233 -9.26705e-17 -1.97215e-31)
(0 2.83785e-29 6.65121e-31 128.02 -1.25996e-14 -6.74821e-16 0.867233 -1.45104e-16 1.95693e-15)
(0 -1.74823e-29 -1.12994e-28 125.337 1.38986e-14 4.09361e-16 0.858665 -9.3868e-17 -1.40928e-18)
(9.84168e-16 2.09788e-29 3.27794e-31 125.337 -1.26144e-14 -8.30842e-16 0.858665 -1.63074e-16 1.96725e-15)
(-6.63269e-16 1.7926e-29 4.76488e-31 121.913 1.40952e-14 4.99494e-15 0.844457 -9.75501e-17 -2.36506e-17)
(2.65308e-15 -3.44635e-30 -1.07699e-31 121.913 -1.26192e-14 -9.8438e-16 0.844457 -1.81467e-16 1.96439e-15)
(0 2.03818e-29 8.4924e-31 117.788 1.36889e-14 8.00006e-15 0.824915 -9.93845e-17 -4.6296e-17)
(0 -2.03818e-29 -8.4924e-31 117.788 -1.23601e-14 -1.12452e-15 0.824915 -2.00597e-16 1.94799e-15)
(-7.85162e-16 7.87769e-31 1.42383e-31 113.066 1.33661e-14 1.05684e-14 0.800811 -9.46061e-17 -6.72475e-17)
(3.14065e-15 3.34827e-30 0 113.066 -1.19414e-14 -1.24871e-15 0.800811 -2.17453e-16 1.91889e-15)
(9.28947e-16 1.98017e-29 7.21937e-31 107.905 1.31775e-14 1.25364e-14 0.773233 -9.76206e-17 -8.4853e-17)
(-4.30718e-15 -1.98017e-29 -7.21937e-31 107.905 -1.2309e-14 -1.36514e-15 0.773233 -2.32418e-16 1.87895e-15)
(0 2.60238e-29 6.09934e-31 102.48 1.20163e-14 1.38455e-14 0.743382 -9.46057e-17 -9.8138e-17)
(-3.60941e-15 -2.60238e-29 -6.09934e-31 102.48 -1.1739e-14 -1.45407e-15 0.743382 -2.51517e-16 1.83052e-15)
(1.80502e-15 -1.28254e-29 -4.00795e-31 96.9606 1.18874e-14 1.45292e-14 0.712403 -8.31676e-17 -1.06855e-16)
(0 1.28254e-29 3.00596e-31 96.9606 -1.12741e-14 -1.50555e-15 0.712403 -2.67862e-16 1.7763e-15)
(1.01199e-15 1.4836e-29 2.76866e-31 91.4941 1.29536e-14 1.46838e-14 0.681271 -9.54284e-17 -1.11356e-16)
(-4.04795e-15 -2.52832e-29 -6.91338e-31 91.4941 -1.19908e-14 -1.54154e-15 0.681271 -2.87064e-16 1.71878e-15)
(1.75365e-15 2.49208e-29 8.76123e-31 86.1928 1.24628e-14 1.44261e-14 0.650738 -1.01965e-16 -1.12358e-16)
(-1.75365e-15 -2.49208e-29 -8.76123e-31 86.1928 -1.15729e-14 -1.554e-15 0.650738 -3.05543e-16 1.66e-15)
(-1.11273e-15 -2.01791e-30 -1.79722e-31 81.1351 1.1257e-14 1.38728e-14 0.62134 -9.05823e-17 -1.10605e-16)
(0 1.22818e-29 3.83807e-31 81.1351 -1.06482e-14 -7.98088e-16 0.62134 -3.17972e-16 1.60174e-15)
(5.44019e-16 -3.82483e-29 -9.36573e-31 76.3686 1.04241e-14 1.31303e-14 0.593418 -8.5907e-17 -1.06909e-16)
(0 3.63174e-29 8.51189e-31 76.3686 -9.84085e-15 -4.96212e-18 0.593418 -3.31604e-16 1.54821e-15)
(1.67932e-15 1.78984e-29 3.72884e-31 71.9168 1.05782e-14 1.22833e-14 0.567164 -7.98877e-17 -1.01947e-16)
(-6.49749e-15 -2.38646e-29 -5.59326e-31 71.9168 -8.62096e-15 5.4032e-18 0.567164 -3.47693e-16 1.49619e-15)
(1.2473e-15 1.94057e-29 4.55128e-31 67.7852 1.08204e-14 1.13991e-14 0.542654 -9.09301e-17 -9.62712e-17)
(0 -2.35225e-29 -5.5131e-31 67.7852 -8.63358e-15 -1.93689e-17 0.542654 -3.63649e-16 1.44511e-15)
(-2.57622e-15 3.7212e-29 8.19665e-31 63.9671 9.86058e-15 1.05162e-14 0.519886 -8.62223e-17 -9.03478e-17)
(0 -2.89818e-29 -6.33976e-31 63.9671 -8.93136e-15 2.17861e-17 0.519886 -3.81048e-16 1.39711e-15)
(5.58948e-15 -4.09102e-29 -8.94224e-31 60.4481 9.64044e-15 9.65463e-15 0.498806 -7.75318e-17 -8.43175e-17)
(1.06169e-14 3.42797e-29 6.2489e-31 60.4481 -8.35644e-15 9.27022e-17 0.498806 -3.99527e-16 1.35246e-15)
(0 -2.25256e-29 -4.39952e-31 57.2091 1.06573e-14 8.83622e-15 0.479327 -8.50105e-17 -7.8367e-17)
(5.45771e-15 2.81569e-29 5.27943e-31 57.2091 -9.01437e-15 9.71391e-17 0.479327 -4.16378e-16 1.31111e-15)
(1.40018e-15 1.25445e-29 8.91166e-32 54.2293 1.10949e-14 8.07272e-15 0.461347 -9.73181e-17 -7.26909e-17)
(0 -1.11014e-29 0 54.2293 -1.01781e-14 4.32984e-17 0.461347 -4.32345e-16 1.27274e-15)
(-2.86899e-15 8.21101e-30 1.63873e-31 51.4872 1.0718e-14 7.36746e-15 0.444753 -9.5147e-17 -6.73207e-17)
(-1.1476e-14 0 0 51.4872 -1.01692e-14 -9.87579e-19 0.444753 -4.53691e-16 1.23731e-15)
(-1.46748e-15 1.48882e-29 2.48221e-31 48.9616 9.95982e-15 6.72685e-15 0.429434 -9.34869e-17 -6.23169e-17)
(-7.38785e-15 -5.39271e-30 -8.4261e-32 48.9616 -8.95101e-15 -1.93759e-17 0.429434 -4.80113e-16 1.20458e-15)
(1.49616e-15 2.65771e-29 4.15267e-31 46.6326 9.64977e-15 6.13435e-15 0.41528 -8.42974e-17 -5.77703e-17)
(-7.49314e-15 -2.65771e-29 -4.15267e-31 46.6326 -8.02638e-15 1.95319e-17 0.41528 -4.9873e-16 1.17432e-15)
(0 -2.61962e-29 -4.09315e-31 44.4814 1.06085e-14 5.59021e-15 0.402188 -9.05675e-17 -5.33304e-17)
(6.11952e-15 2.61962e-29 4.09315e-31 44.4814 -8.64877e-15 9.9387e-17 0.402188 -5.18565e-16 1.14651e-15)
(-1.55947e-15 4.09288e-30 7.37623e-32 42.4909 1.051e-14 5.10165e-15 0.390059 -1.04517e-16 -4.93886e-17)
(0 5.16414e-30 1.61379e-31 42.4909 -8.99714e-15 1.03728e-16 0.390059 -5.41855e-16 1.12107e-15)
(-1.5881e-15 2.44525e-29 3.10627e-31 40.6456 9.49151e-15 4.65511e-15 0.378804 -9.13687e-17 -4.57161e-17)
(0 -2.03605e-29 -2.386e-31 40.6456 -8.43637e-15 1.81926e-17 0.378804 -5.56586e-16 1.09758e-15)
(-1.61583e-15 1.91419e-29 3.83958e-31 38.9312 9.3087e-15 4.24505e-15 0.368341 -8.81714e-17 -4.23262e-17)
(-6.46334e-15 -5.01717e-30 -1.56787e-31 38.9312 -7.98653e-15 -2.37385e-17 0.368341 -5.72333e-16 1.07562e-15)
(-1.14119e-15 -1.89238e-29 -1.46131e-31 37.335 9.21185e-15 3.87096e-15 0.358593 -9.05109e-17 -3.91277e-17)
(2.78393e-15 1.48358e-29 7.72697e-32 37.335 -7.14435e-15 4.38873e-17 0.358593 -5.87378e-16 1.05535e-15)
(1.66889e-15 -2.35837e-29 -2.95901e-31 35.8456 7.62861e-15 3.52725e-15 0.349493 -8.88546e-17 -3.62286e-17)
(0 1.94975e-29 2.28487e-31 35.8456 -6.03225e-15 8.38007e-17 0.349493 -6.06279e-16 1.03687e-15)
(-1.69432e-15 1.36975e-29 1.41142e-31 34.4528 6.24419e-15 3.20657e-15 0.340978 -6.16571e-17 -3.34342e-17)
(-2.7047e-15 -4.80452e-30 0 34.4528 -5.22462e-15 -7.20472e-19 0.340978 -6.22387e-16 1.01964e-15)
(0 1.4207e-29 2.21984e-31 33.1473 7.17366e-15 2.91844e-15 0.332992 -6.35079e-17 -3.08159e-17)
(0 -1.89426e-29 -2.95979e-31 33.1473 -5.15569e-15 -3.50938e-17 0.332992 -6.26656e-16 1.00324e-15)
(-1.74324e-15 8.74906e-30 6.35964e-32 31.921 8.55185e-15 2.66107e-15 0.325484 -8.25008e-17 -2.8512e-17)
(4.34523e-15 0 0 31.921 -5.38681e-15 4.42035e-17 0.325484 -6.36701e-16 9.87999e-16)
(-2.59007e-15 -2.30044e-29 -3.59444e-31 30.7665 8.89669e-15 2.42422e-15 0.318408 -9.4007e-17 -2.63706e-17)
(9.6573e-15 2.30044e-29 3.59444e-31 30.7665 -6.21095e-15 7.11361e-17 0.318408 -6.52399e-16 9.73939e-16)
(1.78983e-15 9.5285e-30 8.0369e-32 29.6773 8.47144e-15 2.20364e-15 0.311722 -9.21876e-17 -2.43538e-17)
(-7.15932e-15 -1.81398e-29 -2.83434e-31 29.6773 -6.63994e-15 -5.61748e-18 0.311722 -6.71106e-16 9.6071e-16)
(1.81234e-15 -1.74843e-29 -2.69852e-31 28.6475 7.92083e-15 2.00242e-15 0.305388 -8.76651e-17 -2.24251e-17)
(0 1.34098e-29 2.09529e-31 28.6475 -5.49431e-15 -4.86755e-17 0.305388 -6.8057e-16 9.47946e-16)
(-1.83436e-15 -4.73916e-30 5.93276e-32 27.6718 7.3913e-15 1.81983e-15 0.299374 -8.29401e-17 -2.0701e-17)
(0 1.32176e-29 6.88419e-32 27.6718 -5.07084e-15 -1.07857e-17 0.299374 -6.951e-16 9.35883e-16)
(1.85593e-15 8.95761e-30 7.735e-32 26.7456 7.91218e-15 1.64681e-15 0.293646 -7.85753e-17 -1.9062e-17)
(4.97898e-15 -4.34273e-30 -6.78552e-32 26.7456 -4.38518e-15 1.83421e-17 0.293646 -7.05791e-16 9.24557e-16)
(0 -1.28415e-29 -6.68826e-32 25.8646 8.65753e-15 1.49008e-15 0.288179 -9.70039e-17 -1.74429e-17)
(7.50826e-15 1.28415e-29 6.68826e-32 25.8646 -4.61992e-15 1.1451e-17 0.288179 -7.09901e-16 9.13806e-16)
(-1.89779e-15 -1.57303e-31 5.64947e-32 25.025 7.78236e-15 1.34909e-15 0.282946 -9.77667e-17 -1.60689e-17)
(0 1.26574e-29 6.5924e-32 25.025 -6.59644e-15 4.72763e-18 0.282946 -7.27461e-16 9.0341e-16)
(-1.91812e-15 4.06231e-30 1.20565e-31 24.2234 7.46322e-15 1.21119e-15 0.277925 -7.97256e-17 -1.47125e-17)
(0 8.31733e-30 0 24.2234 -7.16774e-15 1.33283e-17 0.277925 -7.48207e-16 8.93561e-16)
(0 -1.22972e-29 -6.40479e-32 23.4569 8.6014e-15 1.07736e-15 0.273096 -9.3187e-17 -1.33233e-17)
(2.30757e-15 1.63963e-29 6.40479e-32 23.4569 -6.12114e-15 3.43724e-17 0.273096 -7.62474e-16 8.84057e-16)
(-1.95767e-15 -4.02668e-30 1.16994e-31 22.7225 9.74546e-15 9.59599e-16 0.268438 -1.08994e-16 -1.19767e-17)
(0 1.61613e-29 6.31299e-32 22.7225 -6.4228e-15 -1.35784e-17 0.268438 -7.76449e-16 8.75148e-16)
(-2.24189e-15 1.9912e-29 3.11125e-31 22.018 9.9245e-15 8.52731e-16 0.263936 -1.23383e-16 -1.08864e-17)
(-7.90768e-15 -1.9912e-29 -2.489e-31 22.018 -7.04549e-15 -3.57643e-17 0.263936 -8.08498e-16 8.66078e-16)
(-4.2056e-15 -1.9506e-29 -1.93208e-31 21.3411 8.92748e-15 7.45526e-16 0.259574 -1.16547e-16 -9.72467e-18)
(7.98336e-15 2.74773e-29 2.45333e-31 21.3411 -6.17472e-15 2.36305e-17 0.259574 -8.37909e-16 8.5738e-16)
(0 1.93453e-29 3.02271e-31 20.6897 8.49943e-15 6.39654e-16 0.255337 -1.0236e-16 -8.55622e-18)
(0 -1.93453e-29 -3.02271e-31 20.6897 -6.89539e-15 4.58791e-17 0.255337 -8.55193e-16 8.4893e-16)
(-2.03273e-15 1.92957e-29 1.69626e-31 20.0621 8.95368e-15 5.3412e-16 0.251214 -1.0923e-16 -7.35534e-18)
(8.13092e-15 -1.52545e-29 -1.19175e-31 20.0621 -6.59587e-15 5.65328e-17 0.251214 -8.69558e-16 8.40726e-16)
(4.10144e-15 -2.31106e-29 -2.75516e-31 19.4566 9.41225e-15 4.2969e-16 0.247193 -1.16912e-16 -6.12267e-18)
(8.20288e-15 1.50358e-29 1.76201e-31 19.4566 -5.78851e-15 7.16696e-17 0.247193 -8.82008e-16 8.32566e-16)
(0 -7.41016e-30 -1.15784e-31 18.8718 9.36431e-15 3.2855e-16 0.243264 -1.24263e-16 -4.87608e-18)
(2.08577e-15 1.11152e-29 1.15784e-31 18.8718 -7.53992e-15 4.90705e-17 0.243264 -9.00018e-16 8.2457e-16)
(-2.08583e-15 3.78593e-31 -6.59241e-32 18.3063 9.33965e-15 2.333e-16 0.239416 -1.19082e-16 -3.65424e-18)
(0 1.09559e-29 1.71186e-31 18.3063 -8.00976e-15 1.82467e-17 0.239416 -9.26097e-16 8.16385e-16)
(-4.20594e-15 2.60494e-29 3.19991e-31 17.759 1.01468e-14 1.4254e-16 0.235642 -1.27248e-16 -2.48907e-18)
(8.41187e-15 -2.15978e-29 -2.81221e-31 17.759 -7.29345e-15 3.90786e-17 0.235642 -9.54976e-16 8.08165e-16)
(-2.11983e-15 4.01932e-30 -8.58722e-33 17.2288 1.05058e-14 5.5236e-17 0.231934 -1.44319e-16 -1.31567e-18)
(0 1.06441e-29 1.10876e-31 17.2288 -7.31503e-15 1.0145e-16 0.231934 -9.83127e-16 8.00042e-16)
(-2.13643e-15 -6.47527e-30 -8.53437e-33 16.7147 9.84805e-15 -3.16676e-17 0.228286 -1.4079e-16 -1.05612e-18)
(8.54573e-15 1.39888e-29 1.63931e-31 16.7147 -6.24622e-15 7.79281e-17 0.228286 -1.00474e-15 7.9215e-16)
(-2.15277e-15 1.09084e-29 9.9092e-32 16.2158 9.05835e-15 -1.17144e-16 0.22469 -1.30304e-16 -2.22483e-18)
(-1.94052e-15 0 0 16.2158 -7.16785e-15 -5.36248e-17 0.22469 -1.01454e-15 7.83998e-16)
(-2.425e-15 2.84099e-29 3.01145e-31 15.7313 9.46509e-15 -1.96709e-16 0.221141 -1.22693e-16 -3.35847e-18)
(-1.05881e-14 -2.0386e-29 -2.12354e-31 15.7313 -7.38697e-15 -1.64291e-17 0.221141 -1.04862e-15 7.75251e-16)
(-6.25467e-15 -1.20848e-29 -1.74391e-31 15.2605 1.10192e-14 -2.63341e-16 0.217635 -1.45733e-16 -4.21988e-18)
(1.74775e-14 2.00938e-29 1.56983e-31 15.2605 -6.20847e-15 8.49578e-17 0.217635 -1.07537e-15 7.67283e-16)
(-6.60081e-15 3.83994e-29 5.40999e-31 14.8027 1.11252e-14 -3.31773e-16 0.214167 -1.71299e-16 -5.46768e-18)
(-1.06594e-14 -2.64077e-29 -4.1262e-31 14.8027 -8.69354e-15 5.02947e-18 0.214167 -1.10043e-15 7.59311e-16)
(-4.04725e-15 -1.55251e-29 -2.12144e-31 14.3573 1.09495e-14 -4.02934e-16 0.210732 -1.53115e-16 -6.46493e-18)
(8.86243e-15 1.95219e-29 2.54192e-31 14.3573 -1.00428e-14 3.0299e-17 0.210732 -1.14207e-15 7.50641e-16)
(2.2307e-15 -2.32319e-29 -1.91606e-31 13.9237 1.14098e-14 -4.71244e-16 0.207328 -1.71081e-16 -7.69389e-18)
(0 1.92421e-29 1.50329e-31 13.9237 -1.06295e-14 1.45441e-16 0.207328 -1.17234e-15 7.42744e-16)
(0 -1.89663e-29 -2.96349e-31 13.5016 1.11793e-14 -5.45754e-16 0.203951 -1.71521e-16 -8.94064e-18)
(8.98223e-15 1.89663e-29 2.96349e-31 13.5016 -1.09754e-14 1.75145e-16 0.203951 -1.20769e-15 7.34473e-16)
(0 -6.2315e-30 -1.46051e-31 13.0903 1.15646e-14 -6.24018e-16 0.200599 -1.6902e-16 -1.03557e-17)
(9.0407e-15 1.2463e-29 1.46051e-31 13.0903 -9.26534e-15 1.95031e-16 0.200599 -1.24514e-15 7.26154e-16)
(-3.45774e-15 1.84265e-29 2.39929e-31 12.6896 1.26967e-14 -7.04217e-16 0.197269 -1.8854e-16 -1.17355e-17)
(9.09823e-15 -6.14218e-30 -1.43957e-31 12.6896 -8.96209e-15 1.03758e-16 0.197269 -1.27684e-15 7.17736e-16)
(0 1.81624e-29 2.3649e-31 12.2989 1.24835e-14 -7.81089e-16 0.193958 -2.0973e-16 -1.31223e-17)
(0 -1.81624e-29 -2.3649e-31 12.2989 -1.12756e-14 3.28806e-18 0.193958 -1.31864e-15 7.08098e-16)
(-4.60524e-15 1.95061e-30 1.68575e-31 11.9181 1.21283e-14 -8.54697e-16 0.190666 -1.87229e-16 -1.44722e-17)
(0 5.96738e-30 -9.32403e-32 11.9181 -1.2339e-14 7.06601e-17 0.190666 -1.37869e-15 6.98124e-16)
(0 -2.35274e-29 -1.83808e-31 11.5467 1.36508e-14 -9.14105e-16 0.18739 -2.04326e-16 -1.54661e-17)
(9.26522e-15 2.35274e-29 1.83808e-31 11.5467 -1.08512e-14 2.00548e-16 0.18739 -1.43077e-15 6.88671e-16)
(0 1.15951e-29 4.52933e-32 11.1844 1.31031e-14 -9.56349e-16 0.18413 -2.42931e-16 -1.63097e-17)
(6.05531e-15 -5.79755e-30 0 11.1844 -9.20966e-15 1.57705e-16 0.18413 -1.47511e-15 6.80027e-16)
(-2.34299e-15 3.94031e-30 -8.77207e-33 10.8311 1.08347e-14 -9.99587e-16 0.180884 -1.91982e-16 -1.7387e-17)
(0 5.71445e-30 8.92883e-32 10.8311 -8.55967e-15 4.31812e-17 0.180884 -1.5166e-15 6.70333e-16)
(2.35599e-15 7.32511e-30 9.68645e-32 10.4864 1.17948e-14 -1.06173e-15 0.177651 -1.73041e-16 -1.89278e-17)
(0 -5.63255e-30 -4.40043e-32 10.4864 -9.57685e-15 9.69465e-18 0.177651 -1.55413e-15 6.60392e-16)
(3.1254e-15 -5.55182e-30 -1.30121e-31 10.1501 1.3702e-14 -1.11447e-15 0.174431 -2.30674e-16 -1.9739e-17)
(0 1.11036e-29 1.30121e-31 10.1501 -1.24139e-14 9.87081e-17 0.174431 -1.59182e-15 6.50442e-16)
(0 -5.47225e-30 -8.55039e-32 9.82195 1.29154e-14 -1.15553e-15 0.171224 -2.44753e-16 -2.0938e-17)
(0 1.09445e-29 8.55039e-32 9.82195 -1.41178e-14 2.50808e-16 0.171224 -1.66351e-15 6.41427e-16)
(-1.75082e-15 2.43628e-30 -5.95356e-32 9.50182 1.23239e-14 -1.20044e-15 0.168028 -2.09543e-16 -2.19323e-17)
(0 1.07876e-29 1.26418e-31 9.50182 -1.29287e-14 2.41109e-16 0.168028 -1.73217e-15 6.33182e-16)
(-2.40573e-15 1.45367e-29 2.40515e-31 9.1895 1.2415e-14 -1.23763e-15 0.164843 -2.30648e-16 -2.29085e-17)
(0 -1.0633e-29 -2.07676e-31 9.1895 -1.08141e-14 1.18083e-16 0.164843 -1.78366e-15 6.2439e-16)
(2.41761e-15 -3.89818e-30 -3.20766e-32 8.88481 1.13961e-14 -1.29577e-15 0.16167 -2.19008e-16 -2.47271e-17)
(-1.26205e-14 0 0 8.88481 -1.00073e-14 -9.49416e-17 0.16167 -1.83749e-15 6.1508e-16)
(0 -1.03304e-29 -1.61413e-31 8.58758 1.02149e-14 -1.36988e-15 0.158509 -1.99685e-16 -2.6363e-17)
(-9.71708e-15 1.54956e-29 1.61413e-31 8.58758 -9.38537e-15 -5.7239e-17 0.158509 -1.89804e-15 6.03484e-16)
(-2.44071e-15 2.42587e-29 1.76139e-31 8.29765 9.70174e-15 -4.00514e-15 0.155359 -1.81062e-16 -1.25865e-16)
(1.95257e-14 -1.01823e-29 -7.95496e-32 8.29765 -7.54271e-15 1.88875e-16 0.155359 -1.94204e-15 5.93149e-16)
(2.45192e-15 1.11665e-29 3.13638e-31 8.01487 1.06515e-14 -1.18453e-14 0.15222 -1.85979e-16 -2.69453e-16)
(9.80769e-15 -2.00728e-29 -3.92047e-31 8.01487 -9.21613e-15 2.07223e-16 0.15222 -1.97065e-15 5.82914e-16)
(0 0 0 7.73911 1.27152e-14 -1.72692e-14 0.149094 -2.2308e-16 -3.41063e-16)
(0 4.94628e-30 7.72856e-32 7.73911 -9.70862e-15 1.08245e-16 0.149094 -2.04863e-15 5.72219e-16)
(-5.2183e-15 -1.56421e-29 -5.24188e-31 7.47022 1.31238e-14 -1.75063e-14 0.14598 -2.72368e-16 -3.49325e-16)
(9.89478e-15 2.43769e-29 5.33246e-31 7.47022 -7.90433e-15 -2.92403e-17 0.14598 -2.09595e-15 5.60215e-16)
(2.21007e-16 1.34675e-29 3.1762e-31 7.20807 1.21329e-14 -1.78118e-14 0.142879 -2.45872e-16 -3.64637e-16)
(-1.26423e-14 -4.80551e-30 -2.25258e-31 7.20807 -9.84606e-15 -9.01849e-17 0.142879 -2.13579e-15 5.46542e-16)
(2.4946e-15 -1.80616e-29 -3.23089e-31 6.95255 1.2927e-14 -1.8123e-14 0.139791 -2.40346e-16 -3.72304e-16)
(9.97839e-15 1.42099e-29 2.9604e-31 6.95255 -1.0538e-14 1.44603e-16 0.139791 -2.19283e-15 5.32181e-16)
(1.23546e-16 2.25124e-29 6.20349e-31 6.70352 1.38583e-14 -1.82752e-14 0.136717 -2.85596e-16 -3.81644e-16)
(7.39063e-15 -1.8675e-29 -5.83594e-31 6.70352 -1.01232e-14 2.66292e-16 0.136717 -2.22554e-15 5.19337e-16)
(-2.51464e-15 3.8295e-30 4.63273e-32 6.46088 1.45265e-14 -1.85135e-14 0.133657 -2.86083e-16 -3.93256e-16)
(0 0 0 6.46088 -1.06518e-14 4.1995e-17 0.133657 -2.28822e-15 5.0476e-16)
(-2.52433e-15 8.35195e-30 -8.59319e-32 6.2245 1.55638e-14 -1.88757e-14 0.130613 -3.22133e-16 -4.08314e-16)
(0 4.53588e-30 2.83492e-31 6.2245 -9.60806e-15 -8.97892e-17 0.130613 -2.34457e-15 4.88007e-16)
(-5.05069e-15 -9.60891e-30 -3.5323e-31 5.99428 1.63715e-14 -1.92676e-14 0.127583 -3.38823e-16 -4.21782e-16)
(1.01353e-14 1.78835e-29 4.19144e-31 5.99428 -8.92245e-15 -6.09111e-19 0.127583 -2.39155e-15 4.70281e-16)
(2.54309e-15 -1.70088e-29 -6.27311e-31 5.77011 1.65407e-14 -1.95938e-14 0.12457 -3.66619e-16 -4.34631e-16)
(0 1.32204e-29 5.50848e-31 5.77011 -9.95729e-15 6.17069e-17 0.12457 -2.45507e-15 4.52899e-16)
(0 -4.34363e-30 -2.71477e-31 5.55188 1.54581e-14 -1.99794e-14 0.121574 -3.56195e-16 -4.51361e-16)
(0 4.34363e-30 2.71477e-31 5.55188 -1.20915e-14 -4.92411e-17 0.121574 -2.52169e-15 4.34944e-16)
(-2.561e-15 -5.06609e-31 -1.69782e-31 5.33948 1.49894e-14 -2.04368e-14 0.118595 -3.29011e-16 -4.68088e-16)
(0 1.28441e-29 5.35171e-31 5.33948 -1.23927e-14 1.83879e-17 0.118595 -2.60993e-15 4.14759e-16)
(0 -3.37601e-29 -2.11e-30 5.13282 1.59083e-14 -2.08246e-14 0.115635 -3.4539e-16 -4.82412e-16)
(2.29327e-14 3.79801e-29 2.11e-30 5.13282 -9.01971e-15 2.80828e-16 0.115635 -2.69287e-15 3.95663e-16)
(-2.3416e-15 0 2.5997e-31 4.93179 1.57664e-14 -2.10604e-14 0.112694 -3.80891e-16 -4.92793e-16)
(1.03123e-14 1.24786e-29 2.5997e-31 4.93179 -8.55707e-15 2.2841e-16 0.112694 -2.73823e-15 3.76784e-16)
(-4.89434e-15 3.24378e-29 1.67187e-30 4.73629 1.34234e-14 -2.13622e-14 0.109772 -3.48891e-16 -5.10827e-16)
(-1.03452e-14 -2.45994e-29 -1.28122e-30 4.73629 -1.03496e-14 -1.25947e-16 0.109772 -2.80674e-15 3.55714e-16)
(-3.19351e-16 1.18234e-29 1.40909e-30 4.54623 1.19112e-14 -2.19443e-14 0.106871 -2.81183e-16 -5.35168e-16)
(-1.26522e-14 -4.04115e-30 -1.01029e-30 4.54623 -9.13649e-15 -2.75754e-16 0.106871 -2.87514e-15 3.31718e-16)
(0 3.98323e-30 7.46855e-31 4.3615 1.26757e-14 -2.26066e-14 0.103991 -2.8652e-16 -5.58047e-16)
(0 0 -2.48952e-31 4.3615 -7.88093e-15 -1.42507e-16 0.103991 -2.91483e-15 3.06898e-16)
(0 1.17784e-29 9.81534e-31 4.18202 1.56704e-14 -2.32034e-14 0.101133 -3.2665e-16 -5.80335e-16)
(1.0439e-14 -7.85227e-30 -4.90767e-31 4.18202 -9.77782e-15 -4.5439e-17 0.101133 -2.96727e-15 2.81803e-16)
(4.38612e-16 2.72742e-29 2.7151e-30 4.00768 1.82974e-14 -2.373e-14 0.0982981 -4.42884e-16 -6.00794e-16)
(-2.17854e-15 -2.70891e-29 -2.41867e-30 4.00768 -1.24368e-14 -5.60329e-18 0.0982981 -3.04586e-15 2.56859e-16)
(0 -3.05152e-29 -3.8144e-30 3.8384 1.80267e-14 -2.42269e-14 0.0954863 -4.67908e-16 -6.22605e-16)
(2.09949e-14 3.05152e-29 3.8144e-30 3.8384 -1.17564e-14 2.30933e-16 0.0954863 -3.14432e-15 2.31756e-16)
(0 -1.12792e-29 -1.4099e-30 3.67407 1.69553e-14 -2.46266e-14 0.0926986 -4.42094e-16 -6.39015e-16)
(2.31675e-14 7.51946e-30 1.4099e-30 3.67407 -1.17185e-14 2.7154e-16 0.0926986 -3.20578e-15 2.10161e-16)
(-5.27638e-15 7.28723e-30 4.67719e-31 3.51461 1.49766e-14 -2.51796e-14 0.0899359 -4.26331e-16 -6.69791e-16)
(0 0 0 3.51461 -1.16607e-14 -6.90979e-17 0.0899359 -3.30243e-15 1.87066e-16)
(-2.64481e-15 7.29406e-30 -6.62695e-31 3.35992 1.45464e-14 -2.59025e-14 0.0871988 -3.51466e-16 -6.96126e-16)
(2.11585e-14 0 1.36977e-30 3.35992 -8.56496e-15 -1.13553e-16 0.0871988 -3.41152e-15 1.60861e-16)
(2.65124e-15 -1.44179e-29 -1.16771e-30 3.20992 1.61109e-14 -2.65318e-14 0.084488 -4.15971e-16 -7.2332e-16)
(0 1.08011e-29 9.00094e-31 3.20992 -9.53736e-15 -8.79507e-17 0.084488 -3.45962e-15 1.36018e-16)
(-2.65747e-15 3.59982e-30 1.17212e-30 3.06451 1.63303e-14 -2.7245e-14 0.0818044 -4.4606e-16 -7.55505e-16)
(0 3.54877e-30 4.43597e-31 3.06451 -1.16528e-14 -1.11767e-16 0.0818044 -3.5546e-15 1.08745e-16)
(-2.66352e-15 1.40808e-29 2.05374e-30 2.9236 1.62163e-14 -2.78316e-14 0.0791485 -4.40147e-16 -7.77044e-16)
(1.06541e-14 -1.04937e-29 -1.74895e-30 2.9236 -9.52154e-15 -6.58574e-18 0.0791485 -3.66373e-15 8.22575e-17)
(-2.66938e-15 1.39133e-29 1.61635e-30 2.78712 1.75277e-14 -2.84372e-14 0.0765211 -4.52803e-16 -8.1171e-16)
(1.06775e-14 -3.44778e-30 0 2.78712 -9.53734e-15 -2.85507e-17 0.0765211 -3.72607e-15 5.52721e-17)
(-5.35009e-15 7.08737e-30 6.89736e-31 2.65496 2.00816e-14 -2.90301e-14 0.0739228 -5.2683e-16 -8.33651e-16)
(0 0 0 2.65496 -1.23554e-14 -6.60382e-17 0.0739228 -3.83164e-15 1.40481e-17)
(-2.68053e-15 1.02155e-29 2.87803e-30 2.52704 2.13056e-14 -2.9517e-14 0.0713545 -6.11855e-16 -8.63689e-16)
(0 -3.34965e-30 -8.37413e-31 2.52704 -1.52292e-14 -1.01891e-16 0.0713545 -3.94618e-15 -1.36085e-18)
(0 -6.60329e-30 -1.65082e-30 2.40328 1.97714e-14 -3.00598e-14 0.0688166 -6.1315e-16 -8.89966e-16)
(-1.07433e-14 6.60329e-30 1.65082e-30 2.40328 -1.39108e-14 1.5388e-17 0.0688166 -4.06482e-15 -2.88511e-17)
(2.69096e-15 -1.32604e-29 -2.85329e-30 2.28359 1.81453e-14 -3.05255e-14 0.06631 -5.39635e-16 -9.16745e-16)
(1.07638e-14 9.76297e-30 0 2.28359 -1.13919e-14 1.2326e-32 0.06631 -4.15894e-15 -5.33676e-17)
(2.6959e-15 -6.69022e-30 -2.04103e-30 2.16789 1.83081e-14 -3.1018e-14 0.0638351 -5.34173e-16 -9.45821e-16)
(-1.07836e-14 3.20768e-30 1.60384e-30 2.16789 -1.28833e-14 -8.33125e-17 0.0638351 -4.28145e-15 -8.02674e-17)
(-2.70067e-15 9.78329e-30 2.83386e-30 2.05609 1.88583e-14 -3.15535e-14 0.0613928 -5.65294e-16 -9.7646e-16)
(1.08027e-14 -6.32341e-30 -1.58085e-30 2.05609 -1.27435e-14 -8.98005e-17 0.0613928 -4.4227e-15 -1.0753e-16)
(0 6.23278e-30 3.11639e-30 1.94812 1.92326e-14 -3.20305e-14 0.0589835 -5.83576e-16 -1.00322e-15)
(0 -6.23278e-30 -2.33729e-30 1.94812 -1.1996e-14 3.30253e-17 0.0589835 -4.52978e-15 -1.35329e-16)
(-3.45845e-15 6.14345e-30 3.07172e-30 1.84388 1.9068e-14 -3.23354e-14 0.0566079 -6.05156e-16 -1.02432e-15)
(1.08388e-14 0 -6.20486e-33 1.84388 -1.14383e-14 0 0.0566079 -4.66364e-15 -1.61005e-16)
(2.71394e-15 -1.5515e-29 -2.05978e-30 1.74329 1.88451e-14 -3.26854e-14 0.0542666 -5.90276e-16 -1.05504e-15)
(0 1.21108e-29 1.51385e-30 1.74329 -1.23011e-14 -2.78512e-17 0.0542666 -4.77937e-15 -1.89555e-16)
(0 0 2.9843e-30 1.64628 1.99722e-14 -3.3087e-14 0.0519601 -6.08602e-16 -1.08042e-15)
(-1.08721e-14 0 -2.99005e-32 1.64628 -1.44004e-14 -2.46519e-32 0.0519601 -4.9174e-15 -2.15456e-16)
(-3.31187e-15 5.88306e-30 7.35383e-31 1.55277 1.98822e-14 -3.24965e-14 0.0496889 -6.80829e-16 -1.047e-15)
(0 5.88306e-30 1.47077e-30 1.55277 -1.43962e-14 -1.94547e-16 0.0496889 -5.06198e-15 -2.44958e-16)
(0 5.79874e-30 -1.10012e-28 1.46267 1.76193e-14 -1.22463e-14 0.0474537 -6.20497e-16 -2.03368e-16)
(-3.2644e-15 -5.79874e-30 -1.58351e-31 1.46267 -1.27999e-14 -2.04931e-17 0.0474537 -5.21822e-15 -2.68975e-16)
(-4.88312e-16 1.38184e-29 4.94518e-30 1.3759 1.765e-14 -5.85674e-15 0.0452548 -5.49368e-16 -1.9124e-16)
(3.21762e-15 -1.71469e-29 -6.14112e-30 1.3759 -1.1881e-14 -7.97046e-17 0.0452548 -5.33503e-15 -2.92886e-16)
(-4.38756e-16 2.34216e-30 2.04048e-30 1.2924 1.88271e-14 -5.31996e-15 0.0430928 -6.40753e-16 -1.72358e-16)
(0 0 -1.40843e-30 1.2924 -1.13738e-14 -8.38097e-17 0.0430928 -5.47096e-15 -3.1776e-16)
(-5.47206e-15 6.53833e-30 1.74526e-31 1.21207 1.92566e-14 -4.71459e-15 0.0409681 -6.46529e-16 -1.54545e-16)
(1.09441e-14 0 1.38824e-30 1.21207 -1.07202e-14 -1.8722e-18 0.0409681 -5.61038e-15 -3.41547e-16)
(-2.73916e-15 -2.23444e-30 7.86325e-31 1.13485 2.01229e-14 -4.11028e-15 0.0388811 -6.89533e-16 -1.3457e-16)
(0 5.47338e-30 0 1.13485 -1.30934e-14 -7.59584e-46 0.0388811 -5.72824e-15 -3.6489e-16)
(0 5.39493e-30 1.34873e-30 1.06065 2.15761e-14 -3.43509e-15 0.0368323 -7.26875e-16 -1.10514e-16)
(-3.03708e-15 -5.39493e-30 -1.34873e-30 1.06065 -1.45386e-14 -1.23067e-17 0.0368323 -5.89831e-15 -3.87158e-16)
(0 1.06352e-29 2.6588e-30 0.989413 2.38263e-14 -2.75732e-15 0.0348222 -8.14238e-16 -8.90604e-17)
(0 0 -1.3294e-30 0.989413 -1.50159e-14 -2.56407e-16 0.0348222 -6.05608e-15 -4.09511e-16)
(-5.90128e-15 1.04828e-29 5.24139e-30 0.921054 2.37163e-14 -2.15724e-15 0.0328511 -9.12348e-16 -6.93311e-17)
(0 0 -2.6207e-30 0.921054 -1.44775e-14 -9.56597e-17 0.0328511 -6.256e-15 -4.33012e-16)
(0 1.03325e-29 5.16627e-30 0.855506 2.03462e-14 -1.31661e-15 0.0309196 -8.29951e-16 -2.85381e-17)
(2.20017e-14 -5.16627e-30 -3.8747e-30 0.855506 -1.10947e-14 3.40716e-16 0.0309196 -6.42176e-15 -4.48972e-16)
(-5.50524e-15 6.23743e-30 0 0.792702 1.79395e-14 0 0.0290283 -6.85978e-16 -7.88861e-31)
(1.10105e-14 0 0 0.792702 -1.12405e-14 2.81288e-16 0.0290283 -6.52302e-15 -4.60238e-16)
(2.75489e-15 -3.09823e-30 -9.61829e-30 0.732578 1.89129e-14 6.07079e-16 0.0271778 -6.7089e-16 -1.16471e-17)
(0 0 0 0.732578 -1.37828e-14 0 0.0271778 -6.70199e-15 -4.73842e-16)
(0 0 0 0.675074 2.03545e-14 2.43854e-15 0.0253689 -7.81315e-16 -6.87975e-17)
(-1.10281e-14 4.9473e-30 1.23683e-30 0.675074 -1.34996e-14 -3.11479e-16 0.0253689 -6.90274e-15 -4.91233e-16)
(-2.75904e-15 -6.72453e-30 -4.0956e-30 0.620137 2.07213e-14 3.67889e-15 0.0236029 -8.036e-16 -1.21441e-16)
(1.10361e-14 9.75279e-30 6.09549e-30 0.620137 -1.27068e-14 4.84826e-17 0.0236029 -7.06514e-15 -5.04722e-16)
(0 4.8065e-30 3.60488e-30 0.56772 2.13296e-14 4.83299e-15 0.0218809 -8.33388e-16 -1.69501e-16)
(0 0 -3.1995e-32 0.56772 -1.45158e-14 3.54987e-30 0.0218809 -7.23446e-15 -5.08789e-16)
(0 -9.47523e-30 -3.55321e-30 0.517785 2.16089e-14 6.14307e-15 0.0202049 -8.76246e-16 -2.18159e-16)
(0 4.73761e-30 4.73761e-30 0.517785 -1.70359e-14 1.71634e-17 0.0202049 -7.41479e-15 -5.12961e-16)
(-2.76429e-15 2.94612e-30 7.36604e-31 0.470305 2.08835e-14 7.51743e-15 0.0185769 -8.8067e-16 -2.81755e-16)
(0 0 0 0.470305 -1.56082e-14 3.87185e-16 0.0185769 -7.61962e-15 -5.11102e-16)
(-3.49327e-16 -1.7157e-29 -7.76899e-30 0.425262 1.85752e-14 9.03101e-15 0.0169999 -8.41644e-16 -3.38739e-16)
(1.95353e-14 1.84111e-29 8.05487e-30 0.425262 -1.13826e-14 5.46168e-16 0.0169999 -7.77338e-15 -4.9798e-16)
(-2.554e-15 9.07362e-30 1.1342e-30 0.382655 1.64507e-14 1.10471e-14 0.0154773 -7.11897e-16 -4.17594e-16)
(0 -4.53681e-30 0 0.382655 -1.19116e-14 -3.08149e-33 0.0154773 -7.86959e-15 -4.83566e-16)
(-2.51739e-15 8.94358e-30 4.47179e-30 0.342492 1.50035e-14 1.32917e-14 0.0140133 -6.84611e-16 -5.21076e-16)
(0 0 -2.23589e-30 0.342492 -1.27362e-14 1.59694e-17 0.0140133 -8.04073e-15 -4.75171e-16)
(-5.82759e-15 -8.90388e-30 -5.81971e-30 0.304797 1.47956e-14 1.55135e-14 0.0126126 -6.07187e-16 -6.24579e-16)
(1.96758e-14 1.76308e-29 7.71347e-30 0.304797 -1.00552e-14 5.82935e-16 0.0126126 -8.17683e-15 -4.55568e-16)
(2.44575e-15 -1.30336e-29 -7.60291e-30 0.269602 1.79499e-14 1.74966e-14 0.0112807 -6.86366e-16 -7.31914e-16)
(1.97198e-14 1.30336e-29 7.60291e-30 0.269602 -1.27218e-14 6.58561e-16 0.0112807 -8.23932e-15 -4.29121e-16)
(-2.77165e-15 7.1106e-30 2.69842e-30 0.236947 2.02668e-14 1.90445e-14 0.0100234 -9.06664e-16 -8.19975e-16)
(0 0 -1.07056e-30 0.236947 -1.47147e-14 4.65338e-16 0.0100234 -8.40359e-15 -3.99718e-16)
(2.77251e-15 -1.54636e-29 -7.90684e-30 0.206869 1.87191e-14 2.04143e-14 0.00884643 -9.16396e-16 -8.936e-16)
(2.21801e-14 1.26626e-29 7.38654e-30 0.206869 -1.07976e-14 5.15367e-16 0.00884643 -8.57972e-15 -3.67938e-16)