/*--------------------------------*- C++ -*----------------------------------*\
| =========                 |                                                 |
| \\      /  F ield         | OpenFOAM: The Open Source CFD Toolbox           |
|  \\    /   O peration     | Version:  2012                                  |
|   \\  /    A nd           | Website:  www.openfoam.com                      |
|    \\/     M anipulation  |                                                 |
\*---------------------------------------------------------------------------*/
FoamFile
{
    version     2.0;
    format      ascii;
    class       volScalarField;
    location    "1000";
    object      k;
}
// * * * * * * * * * * * * * * * * * * * * * * * * * * * * * * * * * * * * * //

dimensions      [0 2 -2 0 0 0 0];


internalField   nonuniform List<scalar> 
2560
(
3.03942e-06
3.03942e-06
7.55946e-07
7.55946e-07
2.36636e-06
2.36636e-06
8.28837e-06
8.28837e-06
2.15791e-05
2.15791e-05
4.60918e-05
4.60918e-05
8.62564e-05
8.62564e-05
0.000146931
0.000146931
0.00023317
0.00023317
0.000349862
0.000349862
0.000501208
0.000501208
0.00069009
0.00069009
0.000917447
0.000917447
0.00118182
0.00118182
0.00147928
0.00147928
0.00180373
0.00180373
0.00214764
0.00214764
0.00250293
0.00250293
0.00286177
0.00286177
0.00321724
0.00321724
0.00356364
0.00356364
0.00389662
0.00389662
0.00421311
0.00421311
0.00451113
0.00451113
0.00478959
0.00478959
0.00504808
0.00504808
0.00528667
0.00528667
0.00550579
0.00550579
0.00570607
0.00570607
0.0058883
0.0058883
0.00605331
0.00605331
0.00620196
0.00620196
0.00633512
0.00633512
0.00645361
0.00645361
0.00655821
0.00655821
0.00664969
0.00664969
0.00672872
0.00672872
0.00679596
0.00679596
0.00685201
0.00685201
0.00689743
0.00689743
0.00693274
0.00693274
0.00695842
0.00695842
0.00697493
0.00697493
0.0069827
0.0069827
0.00698211
0.00698211
0.00697355
0.00697355
0.00695737
0.00695737
0.00693391
0.00693391
0.00690351
0.00690351
0.00686647
0.00686647
0.0068231
0.0068231
0.00677369
0.00677369
0.00671853
0.00671853
0.00665791
0.00665791
0.00659208
0.00659208
0.00652133
0.00652133
0.00644592
0.00644592
0.00636611
0.00636611
0.00628216
0.00628216
0.00619432
0.00619432
0.00610285
0.00610285
0.00600799
0.00600799
0.00590999
0.00590999
0.00580909
0.00580909
0.00570553
0.00570553
0.00559954
0.00559954
0.00549137
0.00549137
0.00538123
0.00538123
0.00526936
0.00526936
0.00515597
0.00515597
0.00504128
0.00504128
0.0049255
0.0049255
0.00480884
0.00480884
0.00469151
0.00469151
0.00457368
0.00457368
0.00445557
0.00445557
0.00433734
0.00433734
0.00421918
0.00421918
0.00410126
0.00410126
0.00398375
0.00398375
0.0038668
0.0038668
0.00375057
0.00375057
0.00363519
0.00363519
0.00352081
0.00352081
0.00340756
0.00340756
0.00329556
0.00329556
0.00318493
0.00318493
0.00307577
0.00307577
0.00296818
0.00296818
0.00286227
0.00286227
0.00275811
0.00275811
0.00265579
0.00265579
0.00255537
0.00255537
0.00245693
0.00245693
0.00236053
0.00236053
0.0022662
0.0022662
0.00217401
0.00217401
0.00208399
0.00208399
0.00199618
0.00199618
0.00191059
0.00191059
0.00182726
0.00182726
0.00174619
0.00174619
0.00166741
0.00166741
0.00159091
0.00159091
0.0015167
0.0015167
0.00144477
0.00144477
0.00137511
0.00137511
0.00130772
0.00130772
0.00124258
0.00124258
0.00117966
0.00117966
0.00111895
0.00111895
0.00106042
0.00106042
0.00100404
0.00100404
0.00094979
0.00094979
0.000897624
0.000897624
0.000847513
0.000847513
0.00079942
0.00079942
0.000753308
0.000753308
0.000709138
0.000709138
0.000666869
0.000666869
0.000626463
0.000626463
0.000587876
0.000587876
0.000551069
0.000551069
0.000516001
0.000516001
0.00048263
0.00048263
0.000450915
0.000450915
0.000420817
0.000420817
0.000392296
0.000392296
0.000365313
0.000365313
0.000339829
0.000339829
0.000315809
0.000315809
0.000293215
0.000293215
0.000272013
0.000272013
0.000252166
0.000252167
0.000233642
0.000233642
0.000216406
0.000216406
0.000200425
0.000200425
0.000185664
0.000185664
0.000172087
0.000172087
0.00015966
0.00015966
0.000148341
0.000148341
0.000138091
0.000138091
0.000128863
0.000128863
0.000120608
0.000120608
0.000113274
0.000113274
0.000106801
0.000106801
0.000101128
0.000101128
9.61893e-05
9.61893e-05
9.19173e-05
9.19173e-05
8.82438e-05
8.82438e-05
8.51017e-05
8.51017e-05
8.24263e-05
8.24263e-05
8.01565e-05
8.01565e-05
7.82364e-05
7.82364e-05
7.66153e-05
7.66153e-05
7.52485e-05
7.52485e-05
7.40968e-05
7.40968e-05
7.31263e-05
7.31263e-05
7.23083e-05
7.23083e-05
7.16183e-05
7.16183e-05
7.10359e-05
7.10359e-05
7.05438e-05
7.05438e-05
7.01277e-05
7.01277e-05
6.97757e-05
6.97757e-05
6.94779e-05
6.94779e-05
6.92261e-05
6.92261e-05
6.90133e-05
6.90133e-05
6.88338e-05
6.88338e-05
6.8683e-05
6.8683e-05
6.85569e-05
6.85569e-05
6.84521e-05
6.84521e-05
6.83658e-05
6.83658e-05
6.82958e-05
6.82958e-05
6.82401e-05
6.82401e-05
6.81971e-05
6.81971e-05
6.81653e-05
6.81653e-05
6.81436e-05
6.81436e-05
6.81311e-05
6.81311e-05
6.81269e-05
6.81269e-05
6.81303e-05
6.81303e-05
6.81407e-05
6.81407e-05
6.81577e-05
6.81577e-05
6.81808e-05
6.81808e-05
6.82097e-05
6.82097e-05
6.82442e-05
6.82442e-05
6.82839e-05
6.82839e-05
6.83288e-05
6.83288e-05
6.83786e-05
6.83786e-05
6.84333e-05
6.84333e-05
6.84927e-05
6.84927e-05
6.85569e-05
6.85569e-05
6.86258e-05
6.86258e-05
6.86994e-05
6.86994e-05
6.87776e-05
6.87776e-05
6.88606e-05
6.88606e-05
6.89483e-05
6.89483e-05
6.90408e-05
6.90408e-05
6.91381e-05
6.91381e-05
6.92403e-05
6.92403e-05
6.93475e-05
6.93475e-05
6.94598e-05
6.94598e-05
6.95772e-05
6.95772e-05
6.96999e-05
6.96999e-05
6.98279e-05
6.98279e-05
6.99614e-05
6.99614e-05
7.01004e-05
7.01004e-05
7.02451e-05
7.02451e-05
7.03955e-05
7.03955e-05
7.05519e-05
7.05519e-05
7.07142e-05
7.07142e-05
7.08827e-05
7.08827e-05
7.10573e-05
7.10573e-05
7.12383e-05
7.12383e-05
7.14258e-05
7.14258e-05
7.16197e-05
7.16197e-05
7.18204e-05
7.18204e-05
7.20278e-05
7.20278e-05
7.2242e-05
7.2242e-05
7.24632e-05
7.24632e-05
7.26914e-05
7.26914e-05
7.29267e-05
7.29267e-05
7.31692e-05
7.31692e-05
7.3419e-05
7.3419e-05
7.3676e-05
7.3676e-05
7.39404e-05
7.39404e-05
7.42122e-05
7.42122e-05
7.44913e-05
7.44913e-05
7.47779e-05
7.47779e-05
7.5072e-05
7.5072e-05
7.53734e-05
7.53734e-05
7.56823e-05
7.56823e-05
7.59984e-05
7.59984e-05
7.63219e-05
7.63219e-05
7.66527e-05
7.66527e-05
7.69905e-05
7.69905e-05
7.73354e-05
7.73354e-05
7.76872e-05
7.76872e-05
7.80458e-05
7.80458e-05
7.8411e-05
7.8411e-05
7.87826e-05
7.87826e-05
7.91604e-05
7.91604e-05
7.95441e-05
7.95441e-05
7.99336e-05
7.99336e-05
8.03285e-05
8.03285e-05
8.07285e-05
8.07285e-05
8.11334e-05
8.11334e-05
8.15427e-05
8.15427e-05
8.1956e-05
8.1956e-05
8.23729e-05
8.23729e-05
8.27931e-05
8.27931e-05
8.3216e-05
8.3216e-05
8.3641e-05
8.3641e-05
8.40678e-05
8.40678e-05
8.44957e-05
8.44957e-05
8.49241e-05
8.49242e-05
8.53525e-05
8.53525e-05
8.57801e-05
8.57801e-05
8.62062e-05
8.62062e-05
8.66302e-05
8.66302e-05
8.70513e-05
8.70513e-05
8.74687e-05
8.74687e-05
8.78817e-05
8.78817e-05
8.82893e-05
8.82893e-05
8.86907e-05
8.86907e-05
8.9085e-05
8.9085e-05
8.94713e-05
8.94713e-05
8.98486e-05
8.98487e-05
9.02161e-05
9.02161e-05
9.05726e-05
9.05726e-05
9.09172e-05
9.09172e-05
9.12488e-05
9.12488e-05
9.15664e-05
9.15664e-05
9.18689e-05
9.18689e-05
9.21553e-05
9.21553e-05
9.24245e-05
9.24245e-05
9.26754e-05
9.26754e-05
9.29069e-05
9.29069e-05
9.3118e-05
9.3118e-05
9.33075e-05
9.33075e-05
9.34746e-05
9.34746e-05
9.36181e-05
9.36181e-05
9.3737e-05
9.3737e-05
9.38305e-05
9.38305e-05
9.38976e-05
9.38976e-05
9.39374e-05
9.39374e-05
9.39492e-05
9.39493e-05
9.39323e-05
9.39324e-05
9.38861e-05
9.38861e-05
9.381e-05
9.381e-05
9.37036e-05
9.37036e-05
9.35665e-05
9.35666e-05
9.33988e-05
9.33988e-05
9.32003e-05
9.32003e-05
9.29712e-05
9.29712e-05
9.27119e-05
9.27119e-05
9.24229e-05
9.24229e-05
9.21051e-05
9.21051e-05
9.17593e-05
9.17593e-05
9.1387e-05
9.1387e-05
9.09896e-05
9.09896e-05
9.05691e-05
9.05691e-05
9.01276e-05
9.01276e-05
8.96677e-05
8.96677e-05
8.91922e-05
8.91922e-05
8.87043e-05
8.87043e-05
8.82078e-05
8.82078e-05
8.77065e-05
8.77065e-05
8.72049e-05
8.7205e-05
8.67079e-05
8.67079e-05
8.62204e-05
8.62204e-05
8.57479e-05
8.5748e-05
8.52963e-05
8.52964e-05
8.48716e-05
8.48716e-05
8.44798e-05
8.44798e-05
8.41272e-05
8.41273e-05
8.38201e-05
8.38201e-05
8.35644e-05
8.35644e-05
8.33657e-05
8.33658e-05
8.32293e-05
8.32293e-05
8.31593e-05
8.31593e-05
3.03942e-06
3.03942e-06
7.55946e-07
7.55946e-07
2.36636e-06
2.36636e-06
8.28837e-06
8.28837e-06
2.15791e-05
2.15791e-05
4.60918e-05
4.60918e-05
8.62564e-05
8.62564e-05
0.000146931
0.000146931
0.00023317
0.00023317
0.000349862
0.000349862
0.000501208
0.000501208
0.00069009
0.00069009
0.000917447
0.000917447
0.00118182
0.00118182
0.00147928
0.00147928
0.00180373
0.00180373
0.00214764
0.00214764
0.00250293
0.00250293
0.00286177
0.00286177
0.00321724
0.00321724
0.00356364
0.00356364
0.00389662
0.00389662
0.00421311
0.00421311
0.00451113
0.00451113
0.00478959
0.00478959
0.00504808
0.00504808
0.00528667
0.00528667
0.00550579
0.00550579
0.00570607
0.00570607
0.0058883
0.0058883
0.00605331
0.00605331
0.00620196
0.00620196
0.00633512
0.00633512
0.00645361
0.00645361
0.00655821
0.00655821
0.00664969
0.00664969
0.00672872
0.00672872
0.00679596
0.00679596
0.00685201
0.00685201
0.00689743
0.00689743
0.00693274
0.00693274
0.00695842
0.00695842
0.00697493
0.00697493
0.0069827
0.0069827
0.00698211
0.00698211
0.00697355
0.00697355
0.00695737
0.00695737
0.00693391
0.00693391
0.00690351
0.00690351
0.00686647
0.00686647
0.0068231
0.0068231
0.00677369
0.00677369
0.00671853
0.00671853
0.00665791
0.00665791
0.00659208
0.00659208
0.00652133
0.00652133
0.00644592
0.00644592
0.00636611
0.00636611
0.00628216
0.00628216
0.00619432
0.00619432
0.00610285
0.00610285
0.00600799
0.00600799
0.00590999
0.00590999
0.00580909
0.00580909
0.00570553
0.00570553
0.00559954
0.00559954
0.00549137
0.00549137
0.00538123
0.00538123
0.00526936
0.00526936
0.00515597
0.00515597
0.00504128
0.00504128
0.0049255
0.0049255
0.00480884
0.00480884
0.00469151
0.00469151
0.00457368
0.00457368
0.00445557
0.00445557
0.00433734
0.00433734
0.00421918
0.00421918
0.00410126
0.00410126
0.00398375
0.00398375
0.0038668
0.0038668
0.00375057
0.00375057
0.00363519
0.00363519
0.00352081
0.00352081
0.00340756
0.00340756
0.00329556
0.00329556
0.00318493
0.00318493
0.00307577
0.00307577
0.00296818
0.00296818
0.00286227
0.00286227
0.00275811
0.00275811
0.00265579
0.00265579
0.00255537
0.00255537
0.00245693
0.00245693
0.00236053
0.00236053
0.0022662
0.0022662
0.00217401
0.00217401
0.00208399
0.00208399
0.00199618
0.00199618
0.00191059
0.00191059
0.00182726
0.00182726
0.00174619
0.00174619
0.00166741
0.00166741
0.00159091
0.00159091
0.0015167
0.0015167
0.00144477
0.00144477
0.00137511
0.00137511
0.00130772
0.00130772
0.00124258
0.00124258
0.00117966
0.00117966
0.00111895
0.00111895
0.00106042
0.00106042
0.00100404
0.00100404
0.00094979
0.00094979
0.000897624
0.000897624
0.000847513
0.000847513
0.00079942
0.00079942
0.000753308
0.000753308
0.000709138
0.000709138
0.000666869
0.000666869
0.000626463
0.000626463
0.000587876
0.000587876
0.000551069
0.000551069
0.000516001
0.000516001
0.00048263
0.00048263
0.000450915
0.000450915
0.000420817
0.000420817
0.000392296
0.000392296
0.000365313
0.000365313
0.000339829
0.000339829
0.000315809
0.000315809
0.000293215
0.000293215
0.000272013
0.000272013
0.000252166
0.000252167
0.000233642
0.000233642
0.000216406
0.000216407
0.000200425
0.000200425
0.000185664
0.000185664
0.000172087
0.000172087
0.00015966
0.00015966
0.000148341
0.000148341
0.000138091
0.000138091
0.000128863
0.000128863
0.000120608
0.000120608
0.000113274
0.000113274
0.000106801
0.000106801
0.000101128
0.000101128
9.61893e-05
9.61893e-05
9.19173e-05
9.19173e-05
8.82438e-05
8.82439e-05
8.51017e-05
8.51017e-05
8.24263e-05
8.24263e-05
8.01565e-05
8.01565e-05
7.82364e-05
7.82364e-05
7.66153e-05
7.66153e-05
7.52485e-05
7.52485e-05
7.40968e-05
7.40968e-05
7.31263e-05
7.31263e-05
7.23083e-05
7.23083e-05
7.16183e-05
7.16183e-05
7.10359e-05
7.10359e-05
7.05438e-05
7.05438e-05
7.01277e-05
7.01277e-05
6.97757e-05
6.97757e-05
6.94779e-05
6.94779e-05
6.92261e-05
6.92261e-05
6.90133e-05
6.90133e-05
6.88338e-05
6.88338e-05
6.8683e-05
6.8683e-05
6.85569e-05
6.85569e-05
6.84521e-05
6.84521e-05
6.83658e-05
6.83658e-05
6.82958e-05
6.82958e-05
6.82401e-05
6.82401e-05
6.81971e-05
6.81971e-05
6.81653e-05
6.81653e-05
6.81436e-05
6.81436e-05
6.81311e-05
6.81311e-05
6.81269e-05
6.81269e-05
6.81303e-05
6.81303e-05
6.81407e-05
6.81407e-05
6.81577e-05
6.81577e-05
6.81808e-05
6.81808e-05
6.82097e-05
6.82097e-05
6.82442e-05
6.82442e-05
6.82839e-05
6.82839e-05
6.83288e-05
6.83288e-05
6.83786e-05
6.83786e-05
6.84333e-05
6.84333e-05
6.84927e-05
6.84927e-05
6.85569e-05
6.85569e-05
6.86258e-05
6.86258e-05
6.86994e-05
6.86994e-05
6.87776e-05
6.87776e-05
6.88606e-05
6.88606e-05
6.89483e-05
6.89483e-05
6.90408e-05
6.90408e-05
6.91381e-05
6.91381e-05
6.92403e-05
6.92403e-05
6.93475e-05
6.93475e-05
6.94598e-05
6.94598e-05
6.95772e-05
6.95772e-05
6.96999e-05
6.96999e-05
6.98279e-05
6.98279e-05
6.99614e-05
6.99614e-05
7.01004e-05
7.01004e-05
7.02451e-05
7.02451e-05
7.03955e-05
7.03955e-05
7.05519e-05
7.05519e-05
7.07142e-05
7.07142e-05
7.08827e-05
7.08827e-05
7.10573e-05
7.10573e-05
7.12383e-05
7.12383e-05
7.14258e-05
7.14258e-05
7.16197e-05
7.16197e-05
7.18204e-05
7.18204e-05
7.20278e-05
7.20278e-05
7.2242e-05
7.2242e-05
7.24632e-05
7.24632e-05
7.26914e-05
7.26914e-05
7.29267e-05
7.29267e-05
7.31692e-05
7.31692e-05
7.3419e-05
7.3419e-05
7.3676e-05
7.3676e-05
7.39404e-05
7.39404e-05
7.42122e-05
7.42122e-05
7.44913e-05
7.44913e-05
7.47779e-05
7.47779e-05
7.5072e-05
7.5072e-05
7.53734e-05
7.53734e-05
7.56823e-05
7.56823e-05
7.59984e-05
7.59984e-05
7.63219e-05
7.63219e-05
7.66527e-05
7.66527e-05
7.69905e-05
7.69905e-05
7.73354e-05
7.73354e-05
7.76872e-05
7.76872e-05
7.80458e-05
7.80458e-05
7.8411e-05
7.8411e-05
7.87826e-05
7.87826e-05
7.91604e-05
7.91604e-05
7.95441e-05
7.95441e-05
7.99336e-05
7.99336e-05
8.03285e-05
8.03285e-05
8.07285e-05
8.07285e-05
8.11334e-05
8.11334e-05
8.15427e-05
8.15427e-05
8.1956e-05
8.1956e-05
8.23729e-05
8.23729e-05
8.27931e-05
8.27931e-05
8.3216e-05
8.3216e-05
8.3641e-05
8.3641e-05
8.40678e-05
8.40678e-05
8.44957e-05
8.44957e-05
8.49242e-05
8.49242e-05
8.53525e-05
8.53525e-05
8.57801e-05
8.57801e-05
8.62062e-05
8.62062e-05
8.66302e-05
8.66302e-05
8.70513e-05
8.70513e-05
8.74687e-05
8.74687e-05
8.78817e-05
8.78817e-05
8.82893e-05
8.82893e-05
8.86907e-05
8.86907e-05
8.9085e-05
8.9085e-05
8.94713e-05
8.94713e-05
8.98487e-05
8.98487e-05
9.02161e-05
9.02161e-05
9.05726e-05
9.05726e-05
9.09172e-05
9.09172e-05
9.12488e-05
9.12488e-05
9.15664e-05
9.15664e-05
9.18689e-05
9.18689e-05
9.21553e-05
9.21553e-05
9.24245e-05
9.24245e-05
9.26754e-05
9.26754e-05
9.29069e-05
9.29069e-05
9.3118e-05
9.3118e-05
9.33075e-05
9.33076e-05
9.34746e-05
9.34746e-05
9.36181e-05
9.36181e-05
9.3737e-05
9.3737e-05
9.38305e-05
9.38305e-05
9.38976e-05
9.38976e-05
9.39374e-05
9.39374e-05
9.39493e-05
9.39493e-05
9.39324e-05
9.39324e-05
9.38861e-05
9.38861e-05
9.381e-05
9.381e-05
9.37036e-05
9.37036e-05
9.35666e-05
9.35666e-05
9.33988e-05
9.33988e-05
9.32003e-05
9.32003e-05
9.29712e-05
9.29713e-05
9.27119e-05
9.2712e-05
9.2423e-05
9.2423e-05
9.21051e-05
9.21051e-05
9.17593e-05
9.17594e-05
9.1387e-05
9.1387e-05
9.09897e-05
9.09897e-05
9.05691e-05
9.05692e-05
9.01277e-05
9.01277e-05
8.96677e-05
8.96677e-05
8.91922e-05
8.91922e-05
8.87044e-05
8.87044e-05
8.82078e-05
8.82078e-05
8.77066e-05
8.77066e-05
8.7205e-05
8.7205e-05
8.67079e-05
8.67079e-05
8.62204e-05
8.62204e-05
8.5748e-05
8.5748e-05
8.52964e-05
8.52964e-05
8.48716e-05
8.48716e-05
8.44799e-05
8.44799e-05
8.41273e-05
8.41273e-05
8.38202e-05
8.38202e-05
8.35645e-05
8.35645e-05
8.33658e-05
8.33658e-05
8.32293e-05
8.32293e-05
8.31593e-05
8.31593e-05
8.31593e-05
8.31593e-05
8.32293e-05
8.32293e-05
8.33658e-05
8.33658e-05
8.35644e-05
8.35645e-05
8.38202e-05
8.38202e-05
8.41273e-05
8.41273e-05
8.44799e-05
8.44799e-05
8.48716e-05
8.48717e-05
8.52964e-05
8.52964e-05
8.5748e-05
8.57481e-05
8.62205e-05
8.62205e-05
8.6708e-05
8.6708e-05
8.72051e-05
8.72051e-05
8.77067e-05
8.77067e-05
8.82079e-05
8.82079e-05
8.87045e-05
8.87045e-05
8.91924e-05
8.91924e-05
8.96679e-05
8.96679e-05
9.01279e-05
9.01279e-05
9.05694e-05
9.05694e-05
9.09899e-05
9.09899e-05
9.13873e-05
9.13873e-05
9.17596e-05
9.17596e-05
9.21054e-05
9.21054e-05
9.24233e-05
9.24233e-05
9.27123e-05
9.27123e-05
9.29716e-05
9.29716e-05
9.32007e-05
9.32007e-05
9.33992e-05
9.33992e-05
9.3567e-05
9.3567e-05
9.3704e-05
9.3704e-05
9.38104e-05
9.38105e-05
9.38866e-05
9.38866e-05
9.39328e-05
9.39328e-05
9.39497e-05
9.39498e-05
9.39379e-05
9.39379e-05
9.38981e-05
9.38981e-05
9.3831e-05
9.3831e-05
9.37375e-05
9.37376e-05
9.36186e-05
9.36186e-05
9.34751e-05
9.34751e-05
9.33081e-05
9.33081e-05
9.31185e-05
9.31185e-05
9.29074e-05
9.29074e-05
9.26759e-05
9.26759e-05
9.2425e-05
9.2425e-05
9.21558e-05
9.21558e-05
9.18694e-05
9.18694e-05
9.15669e-05
9.15669e-05
9.12493e-05
9.12493e-05
9.09177e-05
9.09177e-05
9.05731e-05
9.05731e-05
9.02166e-05
9.02166e-05
8.98491e-05
8.98491e-05
8.94718e-05
8.94718e-05
8.90855e-05
8.90855e-05
8.86911e-05
8.86911e-05
8.82897e-05
8.82897e-05
8.78821e-05
8.78821e-05
8.74692e-05
8.74692e-05
8.70517e-05
8.70517e-05
8.66306e-05
8.66306e-05
8.62066e-05
8.62066e-05
8.57805e-05
8.57805e-05
8.53529e-05
8.53529e-05
8.49245e-05
8.49245e-05
8.44961e-05
8.44961e-05
8.40682e-05
8.40682e-05
8.36414e-05
8.36414e-05
8.32163e-05
8.32163e-05
8.27934e-05
8.27934e-05
8.23732e-05
8.23733e-05
8.19563e-05
8.19563e-05
8.15429e-05
8.15429e-05
8.11337e-05
8.11337e-05
8.07288e-05
8.07288e-05
8.03288e-05
8.03288e-05
7.99339e-05
7.99339e-05
7.95444e-05
7.95444e-05
7.91606e-05
7.91606e-05
7.87828e-05
7.87828e-05
7.84112e-05
7.84112e-05
7.8046e-05
7.8046e-05
7.76874e-05
7.76874e-05
7.73356e-05
7.73356e-05
7.69907e-05
7.69907e-05
7.66528e-05
7.66528e-05
7.63221e-05
7.63221e-05
7.59986e-05
7.59986e-05
7.56824e-05
7.56824e-05
7.53736e-05
7.53736e-05
7.50721e-05
7.50721e-05
7.47781e-05
7.47781e-05
7.44915e-05
7.44915e-05
7.42123e-05
7.42123e-05
7.39405e-05
7.39405e-05
7.36761e-05
7.36761e-05
7.34191e-05
7.34191e-05
7.31693e-05
7.31693e-05
7.29268e-05
7.29268e-05
7.26915e-05
7.26915e-05
7.24633e-05
7.24633e-05
7.22421e-05
7.22421e-05
7.20279e-05
7.20279e-05
7.18205e-05
7.18205e-05
7.16198e-05
7.16198e-05
7.14258e-05
7.14258e-05
7.12384e-05
7.12384e-05
7.10574e-05
7.10574e-05
7.08827e-05
7.08827e-05
7.07143e-05
7.07143e-05
7.05519e-05
7.05519e-05
7.03956e-05
7.03956e-05
7.02451e-05
7.02451e-05
7.01005e-05
7.01005e-05
6.99614e-05
6.99614e-05
6.9828e-05
6.9828e-05
6.96999e-05
6.96999e-05
6.95773e-05
6.95773e-05
6.94598e-05
6.94598e-05
6.93476e-05
6.93476e-05
6.92404e-05
6.92404e-05
6.91381e-05
6.91381e-05
6.90408e-05
6.90408e-05
6.89483e-05
6.89483e-05
6.88606e-05
6.88606e-05
6.87777e-05
6.87777e-05
6.86994e-05
6.86994e-05
6.86258e-05
6.86258e-05
6.8557e-05
6.8557e-05
6.84928e-05
6.84928e-05
6.84333e-05
6.84333e-05
6.83786e-05
6.83786e-05
6.83288e-05
6.83288e-05
6.82839e-05
6.82839e-05
6.82442e-05
6.82442e-05
6.82097e-05
6.82097e-05
6.81808e-05
6.81808e-05
6.81577e-05
6.81577e-05
6.81407e-05
6.81407e-05
6.81303e-05
6.81303e-05
6.81269e-05
6.81269e-05
6.81311e-05
6.81311e-05
6.81436e-05
6.81436e-05
6.81653e-05
6.81653e-05
6.81971e-05
6.81971e-05
6.82401e-05
6.82401e-05
6.82958e-05
6.82958e-05
6.83658e-05
6.83658e-05
6.84521e-05
6.84521e-05
6.85569e-05
6.85569e-05
6.8683e-05
6.8683e-05
6.88338e-05
6.88338e-05
6.90132e-05
6.90132e-05
6.9226e-05
6.9226e-05
6.94779e-05
6.94779e-05
6.97757e-05
6.97757e-05
7.01277e-05
7.01277e-05
7.05437e-05
7.05437e-05
7.10358e-05
7.10358e-05
7.16183e-05
7.16183e-05
7.23082e-05
7.23082e-05
7.31262e-05
7.31262e-05
7.40967e-05
7.40967e-05
7.52484e-05
7.52484e-05
7.66152e-05
7.66152e-05
7.82362e-05
7.82362e-05
8.01562e-05
8.01562e-05
8.2426e-05
8.2426e-05
8.51014e-05
8.51014e-05
8.82435e-05
8.82435e-05
9.19168e-05
9.19168e-05
9.61888e-05
9.61888e-05
0.000101127
0.000101127
0.0001068
0.0001068
0.000113273
0.000113273
0.000120607
0.000120608
0.000128862
0.000128862
0.00013809
0.00013809
0.00014834
0.00014834
0.000159659
0.000159659
0.000172086
0.000172087
0.000185663
0.000185663
0.000200424
0.000200424
0.000216405
0.000216405
0.000233641
0.000233641
0.000252165
0.000252166
0.000272012
0.000272012
0.000293214
0.000293214
0.000315808
0.000315808
0.000339829
0.000339829
0.000365312
0.000365312
0.000392295
0.000392295
0.000420816
0.000420816
0.000450914
0.000450914
0.000482629
0.000482629
0.000516
0.000516
0.000551069
0.000551069
0.000587876
0.000587876
0.000626462
0.000626462
0.000666869
0.000666869
0.000709137
0.000709137
0.000753308
0.000753308
0.00079942
0.00079942
0.000847512
0.000847512
0.000897623
0.000897623
0.000949789
0.000949789
0.00100404
0.00100404
0.00106042
0.00106042
0.00111895
0.00111895
0.00117966
0.00117966
0.00124258
0.00124258
0.00130772
0.00130772
0.00137511
0.00137511
0.00144477
0.00144477
0.0015167
0.0015167
0.00159091
0.00159091
0.00166741
0.00166741
0.00174619
0.00174619
0.00182726
0.00182726
0.00191059
0.00191059
0.00199618
0.00199618
0.00208399
0.00208399
0.00217401
0.00217401
0.0022662
0.0022662
0.00236053
0.00236053
0.00245693
0.00245693
0.00255537
0.00255537
0.00265579
0.00265579
0.00275811
0.00275811
0.00286227
0.00286227
0.00296818
0.00296818
0.00307577
0.00307577
0.00318493
0.00318493
0.00329556
0.00329556
0.00340756
0.00340756
0.00352081
0.00352081
0.00363519
0.00363519
0.00375056
0.00375056
0.0038668
0.0038668
0.00398375
0.00398375
0.00410126
0.00410126
0.00421918
0.00421918
0.00433734
0.00433734
0.00445557
0.00445557
0.00457368
0.00457368
0.00469151
0.00469151
0.00480884
0.00480884
0.0049255
0.0049255
0.00504128
0.00504128
0.00515597
0.00515597
0.00526936
0.00526936
0.00538123
0.00538123
0.00549137
0.00549137
0.00559954
0.00559954
0.00570552
0.00570552
0.00580908
0.00580908
0.00590999
0.00590999
0.00600799
0.00600799
0.00610285
0.00610285
0.00619432
0.00619432
0.00628216
0.00628216
0.00636611
0.00636611
0.00644592
0.00644592
0.00652133
0.00652133
0.00659208
0.00659208
0.00665791
0.00665791
0.00671853
0.00671853
0.00677369
0.00677369
0.0068231
0.0068231
0.00686647
0.00686647
0.00690351
0.00690351
0.00693391
0.00693391
0.00695737
0.00695737
0.00697355
0.00697355
0.00698211
0.00698211
0.0069827
0.0069827
0.00697493
0.00697493
0.00695842
0.00695842
0.00693274
0.00693274
0.00689743
0.00689743
0.00685201
0.00685201
0.00679596
0.00679596
0.00672872
0.00672872
0.00664969
0.00664969
0.00655822
0.00655822
0.00645361
0.00645361
0.00633512
0.00633512
0.00620196
0.00620196
0.00605331
0.00605331
0.0058883
0.0058883
0.00570608
0.00570608
0.00550579
0.00550579
0.00528667
0.00528667
0.00504808
0.00504808
0.0047896
0.0047896
0.00451114
0.00451114
0.00421311
0.00421311
0.00389662
0.00389662
0.00356364
0.00356364
0.00321724
0.00321724
0.00286178
0.00286178
0.00250293
0.00250293
0.00214764
0.00214764
0.00180373
0.00180373
0.00147928
0.00147928
0.00118182
0.00118182
0.000917448
0.000917448
0.000690091
0.000690091
0.000501208
0.000501208
0.000349862
0.000349862
0.00023317
0.00023317
0.000146931
0.000146931
8.62565e-05
8.62565e-05
4.60918e-05
4.60918e-05
2.15791e-05
2.15791e-05
8.28836e-06
8.28836e-06
2.36636e-06
2.36636e-06
7.55941e-07
7.55941e-07
3.0394e-06
3.0394e-06
8.31593e-05
8.31593e-05
8.32293e-05
8.32294e-05
8.33658e-05
8.33659e-05
8.35645e-05
8.35645e-05
8.38202e-05
8.38202e-05
8.41273e-05
8.41274e-05
8.44799e-05
8.44799e-05
8.48717e-05
8.48717e-05
8.52965e-05
8.52965e-05
8.57481e-05
8.57481e-05
8.62205e-05
8.62205e-05
8.6708e-05
8.6708e-05
8.72051e-05
8.72051e-05
8.77067e-05
8.77067e-05
8.8208e-05
8.8208e-05
8.87045e-05
8.87046e-05
8.91924e-05
8.91924e-05
8.96679e-05
8.9668e-05
9.01279e-05
9.01279e-05
9.05694e-05
9.05694e-05
9.09899e-05
9.099e-05
9.13873e-05
9.13873e-05
9.17597e-05
9.17597e-05
9.21054e-05
9.21054e-05
9.24233e-05
9.24233e-05
9.27123e-05
9.27123e-05
9.29716e-05
9.29717e-05
9.32007e-05
9.32007e-05
9.33992e-05
9.33993e-05
9.3567e-05
9.3567e-05
9.3704e-05
9.3704e-05
9.38105e-05
9.38105e-05
9.38866e-05
9.38866e-05
9.39329e-05
9.39329e-05
9.39498e-05
9.39498e-05
9.39379e-05
9.3938e-05
9.38981e-05
9.38981e-05
9.3831e-05
9.3831e-05
9.37376e-05
9.37376e-05
9.36186e-05
9.36186e-05
9.34751e-05
9.34751e-05
9.33081e-05
9.33081e-05
9.31185e-05
9.31185e-05
9.29074e-05
9.29074e-05
9.26759e-05
9.26759e-05
9.2425e-05
9.2425e-05
9.21558e-05
9.21558e-05
9.18694e-05
9.18695e-05
9.15669e-05
9.15669e-05
9.12493e-05
9.12493e-05
9.09177e-05
9.09177e-05
9.05731e-05
9.05731e-05
9.02166e-05
9.02166e-05
8.98491e-05
8.98491e-05
8.94718e-05
8.94718e-05
8.90855e-05
8.90855e-05
8.86911e-05
8.86911e-05
8.82897e-05
8.82897e-05
8.78821e-05
8.78821e-05
8.74692e-05
8.74692e-05
8.70517e-05
8.70517e-05
8.66306e-05
8.66306e-05
8.62066e-05
8.62066e-05
8.57805e-05
8.57805e-05
8.53529e-05
8.53529e-05
8.49245e-05
8.49245e-05
8.44961e-05
8.44961e-05
8.40682e-05
8.40682e-05
8.36414e-05
8.36414e-05
8.32163e-05
8.32163e-05
8.27934e-05
8.27934e-05
8.23733e-05
8.23733e-05
8.19563e-05
8.19563e-05
8.15429e-05
8.15429e-05
8.11337e-05
8.11337e-05
8.07288e-05
8.07288e-05
8.03288e-05
8.03288e-05
7.99339e-05
7.99339e-05
7.95444e-05
7.95444e-05
7.91606e-05
7.91606e-05
7.87828e-05
7.87828e-05
7.84112e-05
7.84112e-05
7.8046e-05
7.8046e-05
7.76874e-05
7.76874e-05
7.73356e-05
7.73356e-05
7.69907e-05
7.69907e-05
7.66528e-05
7.66528e-05
7.63221e-05
7.63221e-05
7.59986e-05
7.59986e-05
7.56824e-05
7.56824e-05
7.53736e-05
7.53736e-05
7.50721e-05
7.50721e-05
7.47781e-05
7.47781e-05
7.44915e-05
7.44915e-05
7.42123e-05
7.42123e-05
7.39405e-05
7.39405e-05
7.36761e-05
7.36761e-05
7.34191e-05
7.34191e-05
7.31693e-05
7.31693e-05
7.29268e-05
7.29268e-05
7.26915e-05
7.26915e-05
7.24633e-05
7.24633e-05
7.22421e-05
7.22421e-05
7.20279e-05
7.20279e-05
7.18205e-05
7.18205e-05
7.16198e-05
7.16198e-05
7.14258e-05
7.14258e-05
7.12384e-05
7.12384e-05
7.10574e-05
7.10574e-05
7.08827e-05
7.08827e-05
7.07143e-05
7.07143e-05
7.05519e-05
7.05519e-05
7.03956e-05
7.03956e-05
7.02451e-05
7.02451e-05
7.01005e-05
7.01005e-05
6.99614e-05
6.99614e-05
6.9828e-05
6.9828e-05
6.96999e-05
6.96999e-05
6.95773e-05
6.95773e-05
6.94598e-05
6.94598e-05
6.93476e-05
6.93476e-05
6.92404e-05
6.92404e-05
6.91381e-05
6.91381e-05
6.90408e-05
6.90408e-05
6.89483e-05
6.89483e-05
6.88606e-05
6.88606e-05
6.87777e-05
6.87777e-05
6.86994e-05
6.86994e-05
6.86258e-05
6.86258e-05
6.8557e-05
6.8557e-05
6.84928e-05
6.84928e-05
6.84333e-05
6.84333e-05
6.83786e-05
6.83786e-05
6.83288e-05
6.83288e-05
6.82839e-05
6.82839e-05
6.82442e-05
6.82442e-05
6.82097e-05
6.82097e-05
6.81808e-05
6.81808e-05
6.81577e-05
6.81577e-05
6.81407e-05
6.81407e-05
6.81303e-05
6.81303e-05
6.81269e-05
6.81269e-05
6.81311e-05
6.81311e-05
6.81436e-05
6.81436e-05
6.81653e-05
6.81653e-05
6.81971e-05
6.81971e-05
6.82401e-05
6.82401e-05
6.82958e-05
6.82958e-05
6.83658e-05
6.83658e-05
6.84521e-05
6.84521e-05
6.85569e-05
6.85569e-05
6.8683e-05
6.8683e-05
6.88338e-05
6.88338e-05
6.90132e-05
6.90132e-05
6.9226e-05
6.9226e-05
6.94779e-05
6.94779e-05
6.97757e-05
6.97757e-05
7.01277e-05
7.01277e-05
7.05437e-05
7.05437e-05
7.10358e-05
7.10358e-05
7.16183e-05
7.16183e-05
7.23082e-05
7.23082e-05
7.31262e-05
7.31262e-05
7.40967e-05
7.40967e-05
7.52484e-05
7.52484e-05
7.66152e-05
7.66152e-05
7.82362e-05
7.82362e-05
8.01562e-05
8.01562e-05
8.2426e-05
8.2426e-05
8.51014e-05
8.51014e-05
8.82435e-05
8.82435e-05
9.19168e-05
9.19168e-05
9.61888e-05
9.61888e-05
0.000101127
0.000101127
0.0001068
0.0001068
0.000113273
0.000113273
0.000120607
0.000120608
0.000128862
0.000128862
0.00013809
0.00013809
0.00014834
0.00014834
0.000159659
0.000159659
0.000172086
0.000172087
0.000185663
0.000185663
0.000200424
0.000200424
0.000216405
0.000216405
0.000233641
0.000233641
0.000252165
0.000252166
0.000272012
0.000272012
0.000293214
0.000293214
0.000315808
0.000315808
0.000339829
0.000339829
0.000365312
0.000365312
0.000392295
0.000392295
0.000420816
0.000420816
0.000450914
0.000450914
0.000482629
0.000482629
0.000516
0.000516
0.000551069
0.000551069
0.000587876
0.000587876
0.000626462
0.000626462
0.000666869
0.000666869
0.000709137
0.000709137
0.000753308
0.000753308
0.00079942
0.00079942
0.000847512
0.000847512
0.000897623
0.000897623
0.000949789
0.000949789
0.00100404
0.00100404
0.00106042
0.00106042
0.00111895
0.00111895
0.00117966
0.00117966
0.00124258
0.00124258
0.00130772
0.00130772
0.00137511
0.00137511
0.00144477
0.00144477
0.0015167
0.0015167
0.00159091
0.00159091
0.00166741
0.00166741
0.00174619
0.00174619
0.00182726
0.00182726
0.00191059
0.00191059
0.00199618
0.00199618
0.00208399
0.00208399
0.00217401
0.00217401
0.0022662
0.0022662
0.00236053
0.00236053
0.00245693
0.00245693
0.00255537
0.00255537
0.00265579
0.00265579
0.00275811
0.00275811
0.00286227
0.00286227
0.00296818
0.00296818
0.00307577
0.00307577
0.00318493
0.00318493
0.00329556
0.00329556
0.00340756
0.00340756
0.00352081
0.00352081
0.00363519
0.00363519
0.00375056
0.00375056
0.0038668
0.0038668
0.00398375
0.00398375
0.00410126
0.00410126
0.00421918
0.00421918
0.00433734
0.00433734
0.00445557
0.00445557
0.00457368
0.00457368
0.00469151
0.00469151
0.00480884
0.00480884
0.0049255
0.0049255
0.00504128
0.00504128
0.00515597
0.00515597
0.00526936
0.00526936
0.00538123
0.00538123
0.00549137
0.00549137
0.00559954
0.00559954
0.00570552
0.00570552
0.00580908
0.00580908
0.00590999
0.00590999
0.00600799
0.00600799
0.00610285
0.00610285
0.00619432
0.00619432
0.00628216
0.00628216
0.00636611
0.00636611
0.00644592
0.00644592
0.00652133
0.00652133
0.00659208
0.00659208
0.00665791
0.00665791
0.00671853
0.00671853
0.00677369
0.00677369
0.0068231
0.0068231
0.00686647
0.00686647
0.00690351
0.00690351
0.00693391
0.00693391
0.00695737
0.00695737
0.00697355
0.00697355
0.00698211
0.00698211
0.0069827
0.0069827
0.00697493
0.00697493
0.00695842
0.00695842
0.00693274
0.00693274
0.00689743
0.00689743
0.00685201
0.00685201
0.00679596
0.00679596
0.00672872
0.00672872
0.00664969
0.00664969
0.00655822
0.00655822
0.00645361
0.00645361
0.00633512
0.00633512
0.00620196
0.00620196
0.00605331
0.00605331
0.0058883
0.0058883
0.00570608
0.00570608
0.00550579
0.00550579
0.00528667
0.00528667
0.00504808
0.00504808
0.0047896
0.0047896
0.00451114