/*--------------------------------*- C++ -*----------------------------------*\
| =========                 |                                                 |
| \\      /  F ield         | OpenFOAM: The Open Source CFD Toolbox           |
|  \\    /   O peration     | Version:  2012                                  |
|   \\  /    A nd           | Website:  www.openfoam.com                      |
|    \\/     M anipulation  |                                                 |
\*---------------------------------------------------------------------------*/
FoamFile
{
    version     2.0;
    format      ascii;
    class       volVectorField;
    location    "16500";
    object      U;
}
// * * * * * * * * * * * * * * * * * * * * * * * * * * * * * * * * * * * * * //

dimensions      [0 1 -1 0 0 0 0];


internalField   nonuniform List<vector> 
2560
(
(0.108655 9.446e-09 -4.27864e-08)
(0.108656 -2.63515e-09 4.48617e-22)
(0.327343 2.11655e-08 -6.22038e-08)
(0.327343 8.83654e-09 -1.58882e-10)
(0.548997 1.29573e-08 -4.66035e-08)
(0.548997 8.56478e-09 -4.42525e-10)
(0.773647 -1.37408e-09 -2.53166e-08)
(0.773647 -6.52168e-09 -6.92735e-10)
(1.00132 -2.82439e-09 -1.31591e-08)
(1.00132 -9.29958e-09 -8.75177e-10)
(1.23205 4.92666e-10 -7.50314e-09)
(1.23205 -6.14537e-09 -1.05245e-09)
(1.46587 1.95433e-09 -4.54875e-09)
(1.46587 -4.98999e-09 -1.25642e-09)
(1.70282 3.19603e-09 -2.67211e-09)
(1.70282 -3.90841e-09 -1.50558e-09)
(1.94296 3.36776e-09 -1.23507e-09)
(1.94296 -3.90105e-09 -1.14775e-09)
(2.18634 4.11609e-09 4.34099e-11)
(2.18634 -3.2619e-09 1.16136e-10)
(2.43304 4.14102e-09 1.3079e-09)
(2.43304 -3.35995e-09 1.3704e-09)
(2.68311 4.38805e-09 2.64679e-09)
(2.68311 -3.19638e-09 2.70175e-09)
(2.93663 4.5809e-09 4.1211e-09)
(2.93663 -3.09951e-09 4.17034e-09)
(3.19368 4.63228e-09 5.07273e-09)
(3.19368 -3.11956e-09 5.82523e-09)
(3.45433 4.78847e-09 5.76401e-09)
(3.45433 -3.04285e-09 6.80517e-09)
(3.71866 4.75171e-09 6.52573e-09)
(3.71866 -3.14514e-09 6.52533e-09)
(3.98676 4.92838e-09 7.36251e-09)
(3.98676 -3.03751e-09 7.362e-09)
(4.25869 4.99473e-09 8.28019e-09)
(4.25869 -3.03128e-09 8.27979e-09)
(4.53453 4.88871e-09 9.28191e-09)
(4.53453 -3.20054e-09 9.28139e-09)
(4.81434 5.02498e-09 1.03713e-08)
(4.81434 -3.12155e-09 1.03709e-08)
(5.09819 5.13658e-09 1.15569e-08)
(5.09819 -3.06878e-09 1.15563e-08)
(5.38613 5.13762e-09 1.28445e-08)
(5.38613 -3.12289e-09 1.28441e-08)
(5.6782 4.84784e-09 1.42353e-08)
(5.6782 -3.46855e-09 1.42347e-08)
(5.97443 5.36608e-09 1.57375e-08)
(5.97443 -3.00442e-09 1.57371e-08)
(6.27483 5.12993e-09 1.73625e-08)
(6.27483 -3.2953e-09 1.73619e-08)
(6.5794 5.21492e-09 1.91135e-08)
(6.5794 -3.26332e-09 1.9113e-08)
(6.88813 4.83305e-09 2.09927e-08)
(6.88813 -3.69891e-09 2.09921e-08)
(7.20096 5.59269e-09 2.3013e-08)
(7.20096 -2.99228e-09 2.30126e-08)
(7.51786 5.02683e-09 2.51864e-08)
(7.51786 -3.612e-09 2.51858e-08)
(7.83872 5.36124e-09 2.75162e-08)
(7.83872 -3.33073e-09 2.75157e-08)
(8.16344 4.78134e-09 3.00074e-08)
(8.16344 -3.96442e-09 3.00068e-08)
(8.49188 5.69905e-09 3.26743e-08)
(8.49188 -3.10069e-09 3.26739e-08)
(8.82389 5.00502e-09 3.55318e-08)
(8.82389 -3.84945e-09 3.55312e-08)
(9.15926 5.28538e-09 3.85818e-08)
(9.15926 -3.62419e-09 3.85813e-08)
(9.49779 4.92115e-09 4.18341e-08)
(9.49779 -4.04393e-09 4.18334e-08)
(9.8392 5.66666e-09 4.53067e-08)
(9.8392 -3.35496e-09 4.53062e-08)
(10.1832 5.0107e-09 4.90144e-08)
(10.1832 -4.06808e-09 4.90138e-08)
(10.5295 5.24548e-09 5.29613e-08)
(10.5295 -3.89188e-09 5.29607e-08)
(10.8777 4.91924e-09 5.71593e-08)
(10.8777 -4.27665e-09 5.71586e-08)
(11.2275 5.61978e-09 6.16293e-08)
(11.2275 -3.63678e-09 6.16287e-08)
(11.5784 5.09753e-09 6.63909e-08)
(11.5784 -4.21997e-09 6.63902e-08)
(11.9299 5.24346e-09 7.14514e-08)
(11.9299 -4.13749e-09 7.14508e-08)
(12.2817 4.71403e-09 7.68195e-08)
(12.2817 -4.72979e-09 7.68188e-08)
(12.633 6.00862e-09 8.25276e-08)
(12.633 -3.50172e-09 8.2527e-08)
(12.9835 4.29753e-09 8.85857e-08)
(12.9835 -5.27855e-09 8.8585e-08)
(13.3324 6.17801e-09 9.50148e-08)
(13.3324 -3.46831e-09 9.50142e-08)
(13.6793 3.70749e-09 1.01822e-07)
(13.6793 -6.00725e-09 1.01821e-07)
(14.0233 6.82192e-09 1.0904e-07)
(14.0233 -2.96663e-09 1.09039e-07)
(14.364 4.52932e-09 1.16709e-07)
(14.364 -5.33173e-09 1.16708e-07)
(14.7005 4.21211e-09 1.24789e-07)
(14.7005 -5.72644e-09 1.24788e-07)
(15.0322 4.22703e-09 1.33291e-07)
(15.0322 -5.78995e-09 1.3329e-07)
(15.3583 1.08556e-08 1.42393e-07)
(15.3583 7.58998e-10 1.42392e-07)
(15.678 -4.32497e-09 1.51916e-07)
(15.678 -1.45041e-08 1.51916e-07)
(15.9907 1.37031e-08 1.6194e-07)
(15.9907 3.4375e-09 1.61939e-07)
(16.2955 -1.72707e-11 1.72597e-07)
(16.2955 -1.03688e-08 1.72596e-07)
(16.5916 5.1525e-09 1.83686e-07)
(16.5916 -5.29483e-09 1.83685e-07)
(16.8782 8.83096e-09 1.95448e-07)
(16.8782 -1.70388e-09 1.95447e-07)
(17.1546 -2.2927e-09 2.07708e-07)
(17.1546 -1.2928e-08 2.07707e-07)
(17.42 1.1431e-08 2.20537e-07)
(17.42 6.9946e-10 2.20536e-07)
(17.6736 -8.81918e-10 2.33983e-07)
(17.6736 -1.17207e-08 2.33983e-07)
(17.9147 1.01136e-08 2.48014e-07)
(17.9147 -8.26226e-10 2.48013e-07)
(18.1425 -1.75027e-10 2.62651e-07)
(18.1425 -1.12272e-08 2.6265e-07)
(18.3564 3.3673e-09 2.77695e-07)
(18.3564 -7.79788e-09 2.77693e-07)
(18.5556 8.69938e-09 2.9338e-07)
(18.5556 -2.58066e-09 2.93379e-07)
(18.7395 2.14709e-09 3.09665e-07)
(18.7395 -9.25249e-09 3.09664e-07)
(18.9076 -2.18225e-09 3.26206e-07)
(18.9076 -1.37115e-08 3.26205e-07)
(19.0593 1.53831e-08 3.43359e-07)
(19.0593 3.73756e-09 3.43358e-07)
(19.1941 -1.41017e-08 3.60745e-07)
(19.1941 -2.58931e-08 3.60744e-07)
(19.3116 2.75005e-08 3.78683e-07)
(19.3116 1.5589e-08 3.78682e-07)
(19.4114 -2.82632e-08 3.96721e-07)
(19.4114 -4.03296e-08 3.9672e-07)
(19.4932 3.55987e-08 4.15041e-07)
(19.4932 2.3407e-08 4.15039e-07)
(19.5569 -2.89438e-08 4.33615e-07)
(19.5569 -4.13034e-08 4.33614e-07)
(19.6022 2.98056e-08 4.52192e-07)
(19.6022 1.73188e-08 4.52191e-07)
(19.6292 -2.15141e-08 4.71009e-07)
(19.6292 -3.41833e-08 4.71008e-07)
(19.6378 2.2194e-08 4.89769e-07)
(19.6378 9.39798e-09 4.89768e-07)
(19.6281 -1.53785e-08 5.08679e-07)
(19.6281 -2.83736e-08 5.08678e-07)
(19.6003 1.21025e-08 5.27369e-07)
(19.6003 -1.01637e-09 5.27368e-07)
(19.5548 -2.58988e-09 5.46291e-07)
(19.5548 -1.5928e-08 5.46289e-07)
(19.4918 -1.256e-09 5.6498e-07)
(19.4918 -1.47145e-08 5.64979e-07)
(19.4117 1.01663e-08 5.83906e-07)
(19.4117 -3.53081e-09 5.83904e-07)
(19.3152 -1.50312e-08 6.02603e-07)
(19.3152 -2.88373e-08 6.02602e-07)
(19.2026 2.08493e-08 6.21474e-07)
(19.2026 6.77073e-09 6.21473e-07)
(19.0748 -1.94684e-08 6.40414e-07)
(19.0748 -3.36335e-08 6.40412e-07)
(18.9323 1.80074e-08 6.59327e-07)
(18.9323 3.52703e-09 6.59325e-07)
(18.7759 -1.36587e-08 6.78496e-07)
(18.7759 -2.81947e-08 6.78494e-07)
(18.6064 1.64006e-08 6.97887e-07)
(18.6064 1.49632e-09 6.97885e-07)
(18.4246 -1.61767e-08 7.1746e-07)
(18.4246 -3.10923e-08 7.17459e-07)
(18.2313 1.87017e-08 7.37327e-07)
(18.2313 3.34743e-09 7.37325e-07)
(18.0273 -1.85844e-08 7.57448e-07)
(18.0273 -3.38891e-08 7.57447e-07)
(17.8137 1.86111e-08 7.77828e-07)
(17.8137 2.77841e-09 7.77826e-07)
(17.5911 -1.21893e-08 7.9879e-07)
(17.5911 -2.78914e-08 7.98789e-07)
(17.3606 1.20296e-08 8.20071e-07)
(17.3606 -4.31683e-09 8.20069e-07)
(17.1229 -8.5312e-09 8.41864e-07)
(17.1229 -2.46347e-08 8.41863e-07)
(16.879 5.47221e-09 8.63889e-07)
(16.879 -1.14276e-08 8.63887e-07)
(16.6296 4.32326e-09 8.86738e-07)
(16.6296 -1.21895e-08 8.86737e-07)
(16.3755 -3.87871e-09 9.10014e-07)
(16.3755 -2.13767e-08 9.10012e-07)
(16.1176 9.5509e-10 9.33559e-07)
(16.1176 -1.59638e-08 9.33557e-07)
(15.8566 9.81264e-09 9.58006e-07)
(15.8566 -8.34893e-09 9.58003e-07)
(15.5932 -1.35619e-08 9.82694e-07)
(15.5932 -3.0875e-08 9.82693e-07)
(15.328 2.22683e-08 1.00818e-06)
(15.328 3.37175e-09 1.00818e-06)
(15.0617 -1.89288e-08 1.03425e-06)
(15.0617 -3.66221e-08 1.03425e-06)
(14.7949 1.68467e-08 1.06057e-06)
(14.7949 -2.87347e-09 1.06057e-06)
(14.5282 -9.65018e-09 1.08762e-06)
(14.5282 -2.76977e-08 1.08762e-06)
(14.262 1.58298e-08 1.1153e-06)
(14.262 -4.82214e-09 1.1153e-06)
(13.9968 -1.60859e-08 1.1433e-06)
(13.9968 -3.44432e-08 1.1433e-06)
(13.7331 2.58329e-08 1.17206e-06)
(13.7331 4.11278e-09 1.17206e-06)
(13.4713 -2.51149e-08 1.20113e-06)
(13.4713 -4.37171e-08 1.20113e-06)
(13.2116 3.26685e-08 1.23077e-06)
(13.2116 9.71065e-09 1.23077e-06)
(12.9544 -2.65253e-08 1.26094e-06)
(12.9544 -4.52775e-08 1.26094e-06)
(12.7 2.92804e-08 1.29134e-06)
(12.7 4.87041e-09 1.29133e-06)
(12.4487 -2.2104e-08 1.32221e-06)
(12.4487 -4.0872e-08 1.32222e-06)
(12.2005 3.4676e-08 1.35378e-06)
(12.2005 8.54411e-09 1.35377e-06)
(11.9558 -3.71687e-08 1.38517e-06)
(11.9558 -5.57628e-08 1.38517e-06)
(11.7147 5.59185e-08 1.41747e-06)
(11.7147 2.77207e-08 1.41746e-06)
(11.4772 -5.95254e-08 1.4494e-06)
(11.4772 -7.76855e-08 1.44941e-06)
(11.2435 8.03598e-08 1.48224e-06)
(11.2435 4.96573e-08 1.48222e-06)
(11.0136 -8.02538e-08 1.51478e-06)
(11.0136 -9.76226e-08 1.51479e-06)
(10.7877 1.00289e-07 1.54803e-06)
(10.7877 6.65176e-08 1.54801e-06)
(10.5658 -1.01566e-07 1.58073e-06)
(10.5658 -1.17658e-07 1.58075e-06)
(10.3478 1.23257e-07 1.61404e-06)
(10.3478 8.56917e-08 1.61401e-06)
(10.1339 -1.16461e-07 1.64714e-06)
(10.1339 -1.30621e-07 1.64717e-06)
(9.92389 1.35165e-07 1.68048e-06)
(9.92389 9.28656e-08 1.68044e-06)
(9.71789 -1.25697e-07 1.71357e-06)
(9.71789 -1.3704e-07 1.7136e-06)
(9.51585 1.46074e-07 1.74678e-06)
(9.51585 9.78222e-08 1.74674e-06)
(9.31772 -1.38754e-07 1.77938e-06)
(9.31772 -1.46094e-07 1.77943e-06)
(9.12348 1.71129e-07 1.81268e-06)
(9.12348 1.15337e-07 1.81261e-06)
(8.93307 -1.74579e-07 1.84436e-06)
(8.93307 -1.76322e-07 1.84443e-06)
(8.74646 2.21556e-07 1.8775e-06)
(8.74646 1.56144e-07 1.87741e-06)
(8.56358 -2.30477e-07 1.90838e-06)
(8.56358 -2.24487e-07 1.90847e-06)
(8.38439 2.79855e-07 1.94057e-06)
(8.38439 2.021e-07 1.94046e-06)
(8.20885 -2.84897e-07 1.97048e-06)
(8.20885 -2.68328e-07 1.97061e-06)
(8.03689 3.43861e-07 2.00211e-06)
(8.03689 2.50197e-07 2.00196e-06)
(7.86847 -3.60121e-07 2.0303e-06)
(7.86847 -3.2918e-07 2.03047e-06)
(7.70354 4.30559e-07 2.06069e-06)
(7.70354 3.16299e-07 2.06049e-06)
(7.54205 -4.48531e-07 2.08715e-06)
(7.54205 -3.98165e-07 2.08738e-06)
(7.38394 5.32576e-07 2.11651e-06)
(7.38394 3.91548e-07 2.11623e-06)
(7.22917 -5.63041e-07 2.14054e-06)
(7.22917 -4.86509e-07 2.14086e-06)
(7.07768 6.64734e-07 2.16846e-06)
(7.07768 4.88786e-07 2.16808e-06)
(6.92944 -7.07903e-07 2.18959e-06)
(6.92944 -5.96223e-07 2.19002e-06)
(6.78438 8.31093e-07 2.21589e-06)
(6.78438 6.09446e-07 2.21538e-06)
(6.64248 -8.87955e-07 2.2338e-06)
(6.64248 -7.29145e-07 2.23439e-06)
(6.50367 1.0372e-06 2.25859e-06)
(6.50367 7.55569e-07 2.25789e-06)
(6.36794 -1.11516e-06 2.27268e-06)
(6.36794 -8.93236e-07 2.27349e-06)
(6.23523 1.29494e-06 2.29576e-06)
(6.23523 9.34365e-07 2.29481e-06)
(6.10551 -1.40008e-06 2.30518e-06)
(6.10551 -1.09369e-06 2.30628e-06)
(5.97876 1.6247e-06 2.32703e-06)
(5.97876 1.15998e-06 2.32573e-06)
(5.85493 -1.76942e-06 2.33104e-06)
(5.85493 -1.35005e-06 2.33255e-06)
(5.73402 2.04628e-06 2.35165e-06)
(5.73402 1.44383e-06 2.34987e-06)
(5.61598 -2.235e-06 2.34968e-06)
(5.61598 -1.66448e-06 2.35175e-06)
(5.5008 2.57242e-06 2.36938e-06)
(5.5008 1.78745e-06 2.36694e-06)
(5.38845 -2.82089e-06 2.36005e-06)
(5.38845 -2.04812e-06 2.3629e-06)
(5.27892 3.23681e-06 2.37931e-06)
(5.27892 2.20944e-06 2.37595e-06)
(5.17217 -3.56187e-06 2.36119e-06)
(5.17217 -2.51833e-06 2.36512e-06)
(5.06819 4.07767e-06 2.38089e-06)
(5.06819 2.72773e-06 2.37627e-06)
(4.96696 -4.50273e-06 2.35218e-06)
(4.96696 -3.0964e-06 2.35759e-06)
(4.86845 5.14414e-06 2.37338e-06)
(4.86845 3.36409e-06 2.36702e-06)
(4.77263 -5.69594e-06 2.332e-06)
(4.77263 -3.80306e-06 2.33945e-06)
(4.67947 6.49185e-06 2.35596e-06)
(4.67947 4.13716e-06 2.34718e-06)
(4.58893 -7.20085e-06 2.2994e-06)
(4.58893 -4.65475e-06 2.3097e-06)
(4.50095 8.19237e-06 2.32855e-06)
(4.50095 5.06842e-06 2.31641e-06)
(4.41547 -9.11168e-06 2.25273e-06)
(4.41547 -5.68741e-06 2.26698e-06)
(4.33241 1.03617e-05 2.29059e-06)
(4.33241 6.20585e-06 2.27379e-06)
(4.25168 -1.15559e-05 2.19089e-06)
(4.25168 -6.94935e-06 2.21065e-06)
(4.17318 1.31312e-05 2.24132e-06)
(4.17318 7.58844e-06 2.21801e-06)
(4.09679 -1.46727e-05 2.11204e-06)
(4.09679 -8.47211e-06 2.1395e-06)
(4.02241 1.66665e-05 2.18151e-06)
(4.02241 9.25574e-06 2.1491e-06)
(3.94993 -1.86732e-05 2.01348e-06)
(3.94993 -1.03194e-05 2.05168e-06)
(3.87924 2.1212e-05 2.10964e-06)
(3.87924 1.128e-05 2.0645e-06)
(3.81025 -2.38008e-05 1.89423e-06)
(3.81025 -1.25337e-05 1.94751e-06)
(3.7429 2.70236e-05 2.02795e-06)
(3.7429 1.36816e-05 1.96494e-06)
(3.67714 -3.03767e-05 1.75028e-06)
(3.67714 -1.51602e-05 1.82473e-06)
(3.61294 3.44941e-05 1.93643e-06)
(3.61294 1.65296e-05 1.8483e-06)
(3.5503 -3.88293e-05 1.57964e-06)
(3.5503 -1.82482e-05 1.68391e-06)
(3.48923 4.40876e-05 1.83763e-06)
(3.48923 1.98433e-05 1.7141e-06)
(3.42974 -4.96947e-05 1.37776e-06)
(3.42974 -2.18115e-05 1.52409e-06)
(3.37185 5.64455e-05 1.73654e-06)
(3.37185 2.36503e-05 1.56298e-06)
(3.31557 -6.37251e-05 1.14119e-06)
(3.31557 -2.58813e-05 1.34704e-06)
(3.2609 7.24174e-05 1.63804e-06)
(3.2609 2.79518e-05 1.3936e-06)
(3.2078 -8.18795e-05 8.63895e-07)
(3.2078 -3.04177e-05 1.15418e-06)
(3.15627 9.31087e-05 1.55054e-06)
(3.15627 3.26762e-05 1.20545e-06)
(3.10626 -0.000105453 5.36028e-07)
(3.10626 -3.53285e-05 9.46376e-07)
(3.05772 0.000120032 1.48398e-06)
(3.05772 3.76995e-05 9.95544e-07)
(3.01056 -0.00013618 4.21873e-07)
(3.01056 -4.04217e-05 7.278e-07)
(2.96472 0.000148158 1.15876e-06)
(2.96472 4.27325e-05 7.59389e-07)
(2.9201 -0.000161866 2.98739e-07)
(2.9201 -4.53666e-05 4.98203e-07)
(2.87662 0.000171124 8.02204e-07)
(2.87662 4.73875e-05 4.95957e-07)
(2.83422 -0.000182142 1.65655e-07)
(2.83422 -4.97997e-05 5.85353e-07)
(2.79284 0.000188555 4.09988e-07)
(2.79284 5.13171e-05 5.11615e-07)
(2.75241 -0.000196587 2.16578e-08)
(2.75241 -5.33965e-05 7.40908e-07)
(2.71293 0.000200015 9.09281e-20)
(2.71293 5.41972e-05 7.90739e-07)
(2.6744 -0.000196846 3.76422e-07)
(2.6744 -5.58651e-05 5.63977e-07)
(2.63683 0.000197452 1.59648e-07)
(2.63683 5.58371e-05 7.14511e-07)
(2.60022 -0.00019065 8.73552e-07)
(2.60022 -5.70133e-05 4.89177e-07)
(2.56458 0.000187736 3.33503e-07)
(2.56458 5.61776e-05 6.35672e-07)
(2.52988 -0.000177293 1.40349e-06)
(2.52988 -5.68366e-05 8.8003e-07)
(2.49611 0.000170674 5.21367e-07)
(2.49611 5.52651e-05 9.46103e-07)
(2.46323 -0.000156621 1.96323e-06)
(2.46323 -5.54246e-05 1.29416e-06)
(2.43119 0.000146142 7.2225e-07)
(2.43119 5.32436e-05 1.31326e-06)
(2.39994 -0.000132687 2.34135e-06)
(2.39994 -5.3005e-05 1.72574e-06)
(2.36938 0.000122657 1.15962e-06)
(2.36938 5.03963e-05 1.71307e-06)
(2.33937 -0.000111233 2.66873e-06)
(2.33937 -4.99318e-05 2.17303e-06)
(2.30974 0.000103154 1.70117e-06)
(2.30974 4.70395e-05 2.1462e-06)
(2.2803 -9.33868e-05 3.03988e-06)
(2.2803 -4.64712e-05 2.64229e-06)
(2.25085 8.69271e-05 2.25658e-06)
(2.25085 4.33907e-05 2.61307e-06)
(2.22117 -7.85129e-05 3.45424e-06)
(2.22117 -4.28185e-05 3.13666e-06)
(2.19108 7.34269e-05 2.83159e-06)
(2.19108 3.9643e-05 3.11607e-06)
(2.16041 -6.61171e-05 3.90936e-06)
(2.16041 -3.91464e-05 3.65674e-06)
(2.12907 6.21821e-05 3.4241e-06)
(2.12907 3.59225e-05 3.65028e-06)
(2.09703 -5.57622e-05 4.40138e-06)
(2.09703 -3.5554e-05 4.20124e-06)
(2.06431 5.27891e-05 4.03344e-06)
(2.06431 3.23046e-05 4.21266e-06)
(2.03094 -4.70883e-05 4.92813e-06)
(2.03094 -3.21104e-05 4.77021e-06)
(1.9969 4.49489e-05 4.66406e-06)
(1.9969 2.8872e-05 4.80565e-06)
(1.96215 -3.98285e-05 5.48877e-06)
(1.96215 -2.88901e-05 5.36464e-06)
(1.92661 3.8414e-05 5.31534e-06)
(1.92661 2.56801e-05 5.42691e-06)
(1.89018 -3.37509e-05 6.07996e-06)
(1.89018 -2.59316e-05 5.98276e-06)
(1.85277 3.29482e-05 5.98354e-06)
(1.85277 2.27314e-05 6.07128e-06)
(1.81427 -2.86585e-05 6.70067e-06)
(1.81427 -2.32507e-05 6.62485e-06)
(1.7746 2.83959e-05 6.67967e-06)
(1.7746 2.00577e-05 6.7486e-06)
(1.73369 -2.43877e-05 7.36563e-06)
(1.73369 -2.0851e-05 7.3067e-06)
(1.69147 2.46144e-05 7.41933e-06)
(1.69147 1.76622e-05 7.47347e-06)
(1.64798 -2.08014e-05 8.08695e-06)
(1.64798 -1.87254e-05 8.04132e-06)
(1.60332 2.14503e-05 8.21132e-06)
(1.60332 1.55051e-05 8.25389e-06)
(1.55771 -1.77624e-05 8.87565e-06)
(1.55771 -1.68384e-05 8.84044e-06)
(1.5114 1.88131e-05 9.07283e-06)
(1.5114 1.35831e-05 9.1064e-06)
(1.46465 -1.51597e-05 9.74311e-06)
(1.46465 -1.51571e-05 9.71606e-06)
(1.41765 1.6616e-05 1.00019e-05)
(1.41765 1.1876e-05 1.00284e-05)
(1.37048 -1.2959e-05 1.06661e-05)
(1.37048 -1.37068e-05 1.06455e-05)
(1.32311 1.48008e-05 1.09677e-05)
(1.32311 1.03758e-05 1.09889e-05)
(1.27536 -1.11686e-05 1.16141e-05)
(1.27536 -1.25426e-05 1.15984e-05)
(1.22706 1.33538e-05 1.19614e-05)
(1.22706 9.10763e-06 1.19784e-05)
(1.1781 -9.704e-06 1.261e-05)
(1.1781 -1.16152e-05 1.25981e-05)
(1.12853 1.2219e-05 1.30181e-05)
(1.12853 8.04368e-06 1.30319e-05)
(1.07853 -8.46259e-06 1.36937e-05)
(1.07853 -1.08494e-05 1.36849e-05)
(1.02826 1.13146e-05 1.41672e-05)
(1.02825 7.12305e-06 1.41785e-05)
(0.977887 -7.40633e-06 1.48769e-05)
(0.977886 -1.02278e-05 1.48705e-05)
(0.927571 1.06247e-05 1.54151e-05)
(0.92757 6.34525e-06 1.54245e-05)
(0.877491 -6.566e-06 1.61531e-05)
(0.87749 -9.79773e-06 1.61485e-05)
(0.827874 1.01332e-05 1.6758e-05)
(0.827873 5.70518e-06 1.67659e-05)
(0.77898 -5.88869e-06 1.75389e-05)
(0.778979 -9.51895e-06 1.75358e-05)
(0.731028 9.89656e-06 1.82219e-05)
(0.731027 5.26682e-06 1.82286e-05)
(0.68407 -5.42496e-06 1.90304e-05)
(0.684068 -9.45226e-06 1.90284e-05)
(0.637974 9.88249e-06 1.9769e-05)
(0.637972 5.00305e-06 1.97748e-05)
(0.592433 -5.19107e-06 2.05852e-05)
(0.592431 -9.62212e-06 2.0584e-05)
(0.547022 1.00548e-05 2.13721e-05)
(0.54702 4.88085e-06 2.13772e-05)
(0.501314 -5.13296e-06 2.22155e-05)
(0.501311 -9.98126e-06 2.2215e-05)
(0.454959 1.04946e-05 2.30812e-05)
(0.454956 4.98292e-06 2.30856e-05)
(0.407645 -5.30808e-06 2.39597e-05)
(0.407642 -1.0593e-05 2.39596e-05)
(0.359146 1.11686e-05 2.4914e-05)
(0.359142 5.27666e-06 2.49179e-05)
(0.309539 -5.70191e-06 2.58511e-05)
(0.309535 -1.14483e-05 2.58513e-05)
(0.259328 1.21251e-05 2.6929e-05)
(0.259322 5.81015e-06 2.69322e-05)
(0.209366 -6.30752e-06 2.7948e-05)
(0.209359 -1.25452e-05 2.79481e-05)
(0.160603 1.34176e-05 2.91588e-05)
(0.160593 6.63555e-06 2.91613e-05)
(0.113859 -7.27918e-06 3.02261e-05)
(0.113846 -1.40432e-05 3.0226e-05)
(0.0698341 1.50979e-05 3.15621e-05)
(0.0698148 7.80321e-06 3.15639e-05)
(0.0289938 -8.57665e-06 3.26711e-05)
(0.0289664 -1.59067e-05 3.26706e-05)
(-0.00877352 1.72279e-05 3.41115e-05)
(-0.00880632 9.3722e-06 3.41126e-05)
(-0.0442982 -1.03425e-05 3.51908e-05)
(-0.0443243 -1.82834e-05 3.519e-05)
(-0.0787295 1.98422e-05 3.66974e-05)
(-0.0787474 1.13795e-05 3.66991e-05)
(-0.112903 -1.27111e-05 3.77364e-05)
(-0.112915 -2.13137e-05 3.77366e-05)
(-0.146783 2.30958e-05 3.93845e-05)
(-0.146792 1.39711e-05 3.93871e-05)
(-0.179582 -1.57452e-05 4.04632e-05)
(-0.179589 -2.50628e-05 4.04647e-05)
(-0.210268 2.72119e-05 4.23836e-05)
(-0.210273 1.7364e-05 4.23874e-05)
(-0.238062 -1.9487e-05 4.35645e-05)
(-0.238067 -2.95795e-05 4.35676e-05)
(-0.26257 3.21676e-05 4.57761e-05)
(-0.262573 2.1528e-05 4.57812e-05)
(-0.283636 -2.39743e-05 4.70344e-05)
(-0.283639 -3.49083e-05 4.70392e-05)
(-0.301574 3.82311e-05 4.94972e-05)
(-0.301576 2.67238e-05 4.95037e-05)
(-0.317149 -2.96521e-05 5.06237e-05)
(-0.317151 -4.15011e-05 5.06304e-05)
(-0.3312 4.55505e-05 5.32032e-05)
(-0.331201 3.30914e-05 5.32112e-05)
(-0.344431 -3.67467e-05 5.40527e-05)
(-0.344433 -4.95914e-05 5.40616e-05)
(-0.357484 5.42773e-05 5.67403e-05)
(-0.357486 4.07741e-05 5.67501e-05)
(-0.371079 -4.5451e-05 5.73537e-05)
(-0.371081 -5.93797e-05 5.7365e-05)
(-0.386057 6.49603e-05 6.03791e-05)
(-0.386059 5.03115e-05 6.03911e-05)
(-0.403194 -5.58976e-05 6.08515e-05)
(-0.403197 -7.10064e-05 6.08661e-05)
(-0.42309 7.78687e-05 6.42681e-05)
(-0.423092 6.19618e-05 6.42829e-05)
(-0.446103 -6.87098e-05 6.44193e-05)
(-0.446106 -8.51043e-05 6.44383e-05)
(-0.472265 9.32736e-05 6.82077e-05)
(-0.472268 7.59814e-05 6.82265e-05)
(-0.501533 -8.41849e-05 6.79964e-05)
(-0.501536 -0.000101982 6.80216e-05)
(-0.533981 0.000111741 7.23213e-05)
(-0.533984 9.29166e-05 7.23454e-05)
(-0.569347 -0.000102827 7.17374e-05)
(-0.56935 -0.00012216 7.1771e-05)
(-0.606909 0.000133848 7.67761e-05)
(-0.606913 0.000113314 7.68074e-05)
(-0.646 -0.000125187 7.57733e-05)
(-0.646004 -0.000146209 7.58186e-05)
(-0.68643 0.000160405 8.16682e-05)
(-0.686434 0.000137944 8.17085e-05)
(-0.728463 -0.000152209 7.99889e-05)
(-0.728467 -0.0001751 8.00501e-05)
(-0.772147 0.00019211 8.67861e-05)
(-0.772152 0.000167442 8.68375e-05)
(-0.816744 -0.000184631 8.42554e-05)
(-0.816748 -0.0002096 8.43388e-05)
(-0.860869 0.000230123 9.21663e-05)
(-0.860873 0.00020288 9.22309e-05)
(-0.903018 -0.00022369 8.84895e-05)
(-0.903022 -0.00025098 8.86041e-05)
(-0.942126 0.000275758 9.76992e-05)
(-0.942129 0.00024544 9.77774e-05)
(-0.977188 -0.000270789 9.25162e-05)
(-0.977191 -0.000300668 9.26744e-05)
(-1.00644 0.000330743 0.000103294)
(-1.00645 0.000296656 0.000103382)
(-1.02786 -0.000327735 9.61419e-05)
(-1.02786 -0.000360465 9.63621e-05)
(-1.04051 0.000397149 0.000108834)
(-1.04051 0.000358308 0.00010892)
(-1.04545 -0.000396401 9.92167e-05)
(-1.04545 -0.000432166 9.95257e-05)
(-1.04538 0.000477139 0.000114157)
(-1.04538 0.000432125 0.000114214)
(-1.04348 -0.000479496 0.000101435)
(-1.04348 -0.000518257 0.000101878)
(-1.04201 0.000573734 0.000119426)
(-1.04201 0.000520458 0.000119406)
(-1.04131 -0.000579215 0.000103274)
(-1.04131 -0.000620439 0.000103938)
(-1.04011 0.000690264 0.00012496)
(-1.04011 0.000625534 0.000124773)
(-1.03668 -0.000699646 0.000104004)
(-1.03668 -0.00074181 0.000105039)
(-1.02952 0.00083083 0.000129782)
(-1.02952 0.000749564 0.00012925)
(-1.01769 -0.000844904 0.000102493)
(-1.01768 -0.000884567 0.000104171)
(-1.00104 0.00100042 0.000132941)
(-1.00104 0.000894282 0.000131727)
(-0.980299 -0.00102133 9.73857e-05)
(-0.980295 -0.00105147 0.000100188)
(-0.956166 0.00120631 0.000134295)
(-0.956161 0.00106138 0.000131775)
(-0.928117 -0.00123649 8.91951e-05)
(-0.928111 -0.00124359 9.39819e-05)
(-0.895173 0.00145913 0.000135866)
(-0.895165 0.00125191 0.000130917)
(-0.857912 -0.00150172 7.89333e-05)
(-0.857902 -0.00146083 8.7224e-05)
(-0.818195 0.00177355 0.000138915)
(-0.818184 0.00146434 0.000129548)
(-0.778547 -0.00183506 6.50752e-05)
(-0.778534 -0.00170149 7.94964e-05)
(-0.74155 0.00217108 0.000142916)
(-0.741538 0.00169319 0.000125692)
(-0.708482 -0.0022501 4.80981e-05)
(-0.708469 -0.00195837 7.00344e-05)
(-0.67897 0.0026577 0.000145181)
(-0.678958 0.00192962 0.000117668)
(-0.652174 -0.00269615 4.24651e-05)
(-0.652162 -0.00221663 5.94585e-05)
(-0.628836 0.00310633 0.000129529)
(-0.628825 0.00217011 0.000104251)
(-0.610238 -0.00311273 3.52361e-05)
(-0.610229 -0.00245777 4.75886e-05)
(-0.59601 0.00349971 0.000108015)
(-0.596003 0.00240066 8.46276e-05)
(-0.583718 -0.00349048 2.61268e-05)
(-0.583713 -0.00266242 3.39002e-05)
(-0.571578 0.00389683 9.96002e-05)
(-0.571573 0.00260965 5.86335e-05)
(-0.56107 -0.00390071 4.94869e-05)
(-0.561067 -0.00279102 1.86323e-05)
(-0.555061 0.00412393 7.37904e-05)
(-0.55506 0.00279225 2.22221e-05)
(0.108655 -2.60389e-09 -1.80131e-21)
(0.108655 9.60778e-09 4.17196e-08)
(0.327343 8.97135e-09 1.59017e-10)
(0.327343 2.13788e-08 6.06511e-08)
(0.548997 8.61865e-09 4.42595e-10)
(0.548997 1.31899e-08 4.54349e-08)
(0.773647 -6.49549e-09 6.92768e-10)
(0.773647 -1.07315e-09 2.46732e-08)
(1.00132 -9.28761e-09 8.75188e-10)
(1.00132 -2.47497e-09 1.28136e-08)
(1.23205 -6.13759e-09 1.05245e-09)
(1.23205 8.87711e-10 7.29245e-09)
(1.46587 -4.98457e-09 1.25642e-09)
(1.46587 2.34732e-09 4.40344e-09)
(1.70282 -3.90337e-09 1.50556e-09)
(1.70282 3.60067e-09 2.5628e-09)
(1.94296 -3.89628e-09 1.23507e-09)
(1.94296 3.76827e-09 1.14775e-09)
(2.18634 -3.25676e-09 -4.34099e-11)
(2.18634 4.52307e-09 -1.16136e-10)
(2.43304 -3.35473e-09 -1.3079e-09)
(2.43304 4.544e-09 -1.3704e-09)
(2.68311 -3.19078e-09 -2.64679e-09)
(2.68311 4.79414e-09 -2.70174e-09)
(2.93663 -3.09375e-09 -4.1211e-09)
(2.93663 4.98467e-09 -4.17034e-09)
(3.19368 -3.1134e-09 -5.78048e-09)
(3.19368 5.03915e-09 -5.07235e-09)
(3.45433 -3.03654e-09 -6.83465e-09)
(3.45433 5.19326e-09 -5.7635e-09)
(3.71866 -3.1385e-09 -6.52532e-09)
(3.71866 5.15818e-09 -6.52534e-09)
(3.98675 -3.03067e-09 -7.36198e-09)
(3.98675 5.33351e-09 -7.362e-09)
(4.25869 -3.02409e-09 -8.27978e-09)
(4.25869 5.40156e-09 -8.2798e-09)
(4.53452 -3.19315e-09 -9.28137e-09)
(4.53452 5.2942e-09 -9.28139e-09)
(4.81434 -3.11385e-09 -1.03709e-08)
(4.81434 5.43131e-09 -1.03709e-08)
(5.09819 -3.06083e-09 -1.15563e-08)
(5.09819 5.54204e-09 -1.15563e-08)
(5.38613 -3.11461e-09 -1.28441e-08)
(5.38613 5.54399e-09 -1.28441e-08)
(5.6782 -3.46004e-09 -1.42347e-08)
(5.6782 5.25331e-09 -1.42347e-08)
(5.97443 -2.99559e-09 -1.57371e-08)
(5.97443 5.7719e-09 -1.57371e-08)
(6.27483 -3.28622e-09 -1.73619e-08)
(6.27483 5.5351e-09 -1.73619e-08)
(6.5794 -3.25392e-09 -1.9113e-08)
(6.5794 5.62047e-09 -1.9113e-08)
(6.88813 -3.68925e-09 -2.09921e-08)
(6.88813 5.23793e-09 -2.09921e-08)
(7.20096 -2.98232e-09 -2.30126e-08)
(7.20096 5.99755e-09 -2.30126e-08)
(7.51785 -3.60177e-09 -2.51858e-08)
(7.51785 5.43121e-09 -2.51858e-08)
(7.83872 -3.32018e-09 -2.75157e-08)
(7.83872 5.76564e-09 -2.75157e-08)
(8.16344 -3.9536e-09 -3.00067e-08)
(8.16344 5.18526e-09 -3.00068e-08)
(8.49188 -3.08957e-09 -3.26738e-08)
(8.49188 6.10272e-09 -3.26739e-08)
(8.82389 -3.83805e-09 -3.55311e-08)
(8.82389 5.40833e-09 -3.55312e-08)
(9.15926 -3.61248e-09 -3.85813e-08)
(9.15926 5.68845e-09 -3.85813e-08)
(9.49779 -4.03193e-09 -4.18334e-08)
(9.49779 5.32387e-09 -4.18335e-08)
(9.8392 -3.34265e-09 -4.53062e-08)
(9.8392 6.06894e-09 -4.53062e-08)
(10.1832 -4.05548e-09 -4.90137e-08)
(10.1832 5.41271e-09 -4.90138e-08)
(10.5295 -3.87895e-09 -5.29607e-08)
(10.5295 5.64702e-09 -5.29607e-08)
(10.8777 -4.26342e-09 -5.71585e-08)
(10.8777 5.32055e-09 -5.71586e-08)
(11.2275 -3.62322e-09 -6.16287e-08)
(11.2275 6.02053e-09 -6.16288e-08)
(11.5784 -4.20609e-09 -6.63901e-08)
(11.5784 5.49809e-09 -6.63902e-08)
(11.9299 -4.12327e-09 -7.14508e-08)
(11.9299 5.6434e-09 -7.14508e-08)
(12.2817 -4.71523e-09 -7.68188e-08)
(12.2817 5.11383e-09 -7.68188e-08)
(12.633 -3.48682e-09 -8.2527e-08)
(12.633 6.40774e-09 -8.25271e-08)
(12.9835 -5.26328e-09 -8.85849e-08)
(12.9835 4.69652e-09 -8.8585e-08)
(13.3324 -3.45267e-09 -9.50142e-08)
(13.3324 6.57625e-09 -9.50143e-08)
(13.6793 -5.99123e-09 -1.01821e-07)
(13.6793 4.10566e-09 -1.01821e-07)
(14.0233 -2.95024e-09 -1.09039e-07)
(14.0233 7.21932e-09 -1.09039e-07)
(14.364 -5.31493e-09 -1.16708e-07)
(14.364 4.92664e-09 -1.16708e-07)
(14.7005 -5.70923e-09 -1.24788e-07)
(14.7005 4.60858e-09 -1.24788e-07)
(15.0322 -5.77232e-09 -1.3329e-07)
(15.0322 4.62347e-09 -1.3329e-07)
(15.3583 7.77046e-10 -1.42392e-07)
(15.3583 1.12512e-08 -1.42392e-07)
(15.678 -1.44855e-08 -1.51916e-07)
(15.678 -3.9294e-09 -1.51916e-07)
(15.9907 3.45647e-09 -1.61939e-07)
(15.9907 1.40977e-08 -1.61939e-07)
(16.2955 -1.03494e-08 -1.72596e-07)
(16.2955 3.77387e-10 -1.72596e-07)
(16.5916 -5.2749e-09 -1.83685e-07)
(16.5916 5.54627e-09 -1.83685e-07)
(16.8782 -1.68345e-09 -1.95447e-07)
(16.8782 9.22471e-09 -1.95447e-07)
(17.1546 -1.2907e-08 -2.07707e-07)
(17.1546 -1.8999e-09 -2.07707e-07)
(17.42 7.20909e-10 -2.20536e-07)
(17.42 1.18238e-08 -2.20536e-07)
(17.6736 -1.16988e-08 -2.33983e-07)
(17.6736 -4.90008e-10 -2.33983e-07)
(17.9147 -8.03732e-10 -2.48013e-07)
(17.9147 1.05056e-08 -2.48013e-07)
(18.1425 -1.12042e-08 -2.6265e-07)
(18.1425 2.16008e-10 -2.6265e-07)
(18.3564 -7.77425e-09 -2.77693e-07)
(18.3564 3.75829e-09 -2.77694e-07)
(18.5556 -2.55643e-09 -2.93379e-07)
(18.5556 9.08945e-09 -2.93379e-07)
(18.7395 -9.22762e-09 -3.09664e-07)
(18.7395 2.53708e-09 -3.09664e-07)
(18.9076 -1.3686e-08 -3.26205e-07)
(18.9076 -1.79317e-09 -3.26205e-07)
(19.0593 3.7638e-09 -3.43358e-07)
(19.0593 1.57719e-08 -3.43358e-07)
(19.1941 -2.58661e-08 -3.60744e-07)
(19.1941 -1.37138e-08 -3.60745e-07)
(19.3116 1.56167e-08 -3.78682e-07)
(19.3116 2.78881e-08 -3.78682e-07)
(19.4114 -4.03012e-08 -3.9672e-07)
(19.4114 -2.78764e-08 -3.9672e-07)
(19.4932 2.34363e-08 -4.15039e-07)
(19.4932 3.59851e-08 -4.1504e-07)
(19.5569 -4.12732e-08 -4.33613e-07)
(19.5569 -2.85585e-08 -4.33614e-07)
(19.6022 1.73501e-08 -4.52191e-07)
(19.6022 3.01905e-08 -4.52191e-07)
(19.6292 -3.4151e-08 -4.71008e-07)
(19.6292 -2.11301e-08 -4.71008e-07)
(19.6378 9.43166e-09 -4.89767e-07)
(19.6378 2.25774e-08 -4.89768e-07)
(19.6281 -2.83387e-08 -5.08678e-07)
(19.6281 -1.4996e-08 -5.08678e-07)
(19.6003 -9.80076e-10 -5.27368e-07)
(19.6003 1.24843e-08 -5.27368e-07)
(19.5548 -1.58904e-08 -5.46289e-07)
(19.5548 -2.20897e-09 -5.4629e-07)
(19.4918 -1.46752e-08 -5.64979e-07)
(19.4918 -8.75748e-10 -5.64979e-07)
(19.4117 -3.4898e-09 -5.83904e-07)
(19.4117 1.05455e-08 -5.83905e-07)
(19.3152 -2.87943e-08 -6.02602e-07)
(19.3152 -1.46525e-08 -6.02602e-07)
(19.2026 6.81545e-09 -6.21473e-07)
(19.2026 2.12271e-08 -6.21473e-07)
(19.0748 -3.35865e-08 -6.40412e-07)
(19.0748 -1.90913e-08 -6.40412e-07)
(18.9323 3.57623e-09 -6.59325e-07)
(18.9323 1.83836e-08 -6.59326e-07)
(18.7759 -2.81431e-08 -6.78495e-07)
(18.7759 -1.32831e-08 -6.78495e-07)
(18.6064 1.54999e-09 -6.97885e-07)
(18.6064 1.67752e-08 -6.97886e-07)
(18.4246 -3.10358e-08 -7.17459e-07)
(18.4246 -1.58026e-08 -7.17459e-07)
(18.2313 3.40656e-09 -7.37325e-07)
(18.2313 1.90749e-08 -7.37326e-07)
(18.0273 -3.3827e-08 -7.57447e-07)
(18.0273 -1.82117e-08 -7.57447e-07)
(17.8137 2.84312e-09 -7.77826e-07)
(17.8137 1.89829e-08 -7.77827e-07)
(17.5911 -2.78233e-08 -7.98789e-07)
(17.5911 -1.18178e-08 -7.98789e-07)
(17.3606 -4.24568e-09 -8.20069e-07)
(17.3606 1.24003e-08 -8.2007e-07)
(17.1229 -2.45602e-08 -8.41863e-07)
(17.1229 -8.16089e-09 -8.41863e-07)
(16.879 -1.13501e-08 -8.63887e-07)
(16.879 5.84158e-09 -8.63888e-07)
(16.6296 -1.21083e-08 -8.86737e-07)
(16.6296 4.69251e-09 -8.86737e-07)
(16.3755 -2.12921e-08 -9.10012e-07)
(16.3755 -3.51025e-09 -9.10013e-07)
(16.1176 -1.58753e-08 -9.33558e-07)
(16.1176 1.32346e-09 -9.33557e-07)
(15.8566 -8.25718e-09 -9.58004e-07)
(15.8566 1.01802e-08 -9.58005e-07)
(15.5932 -3.07792e-08 -9.82693e-07)
(15.5932 -1.31943e-08 -9.82692e-07)