/*--------------------------------*- C++ -*----------------------------------*\
| =========                 |                                                 |
| \\      /  F ield         | OpenFOAM: The Open Source CFD Toolbox           |
|  \\    /   O peration     | Version:  2012                                  |
|   \\  /    A nd           | Website:  www.openfoam.com                      |
|    \\/     M anipulation  |                                                 |
\*---------------------------------------------------------------------------*/
FoamFile
{
    version     2.0;
    format      ascii;
    class       volSymmTensorField;
    location    "3000";
    object      turbulenceProperties:R;
}
// * * * * * * * * * * * * * * * * * * * * * * * * * * * * * * * * * * * * * //

dimensions      [0 2 -2 0 0 0 0];


internalField   nonuniform List<symmTensor> 
2560
(
(3.84383e-07 -4.33316e-11 -6.27251e-14 3.84383e-07 1.82966e-25 3.84383e-07)
(3.84383e-07 -4.33316e-11 -6.27251e-14 3.84383e-07 6.98938e-30 3.84383e-07)
(7.04823e-08 -4.56672e-11 -1.99283e-13 7.04823e-08 1.78725e-26 7.04823e-08)
(7.04823e-08 -4.56672e-11 -1.99283e-13 7.04823e-08 3.81382e-30 7.04823e-08)
(1.18155e-07 -2.25832e-10 -1.35564e-12 1.18155e-07 6.56252e-26 1.18155e-07)
(1.18155e-07 -2.25832e-10 -1.35564e-12 1.18155e-07 -6.75606e-31 1.18155e-07)
(3.80663e-07 -1.54281e-09 -9.39588e-12 3.80663e-07 3.53061e-25 3.80663e-07)
(3.80663e-07 -1.54281e-09 -9.39588e-12 3.80663e-07 3.02242e-28 3.80663e-07)
(9.81806e-07 -7.01987e-09 -4.33733e-11 9.81806e-07 2.15984e-24 9.81806e-07)
(9.81806e-07 -7.01987e-09 -4.33733e-11 9.81806e-07 2.62507e-27 9.81806e-07)
(2.09539e-06 -2.3586e-08 -1.47847e-10 2.09539e-06 5.56261e-24 2.09539e-06)
(2.09539e-06 -2.3586e-08 -1.47847e-10 2.09539e-06 1.18467e-26 2.09539e-06)
(3.92766e-06 -6.44823e-08 -4.10077e-10 3.92766e-06 1.54013e-23 3.92766e-06)
(3.92766e-06 -6.44823e-08 -4.10077e-10 3.92766e-06 4.10422e-26 3.92766e-06)
(6.71495e-06 -1.52272e-07 -9.82449e-10 6.71495e-06 3.71146e-23 6.71495e-06)
(6.71495e-06 -1.52272e-07 -9.82449e-10 6.71495e-06 1.14937e-25 6.71495e-06)
(1.07238e-05 -3.22496e-07 -2.11092e-09 1.07238e-05 8.02065e-23 1.07238e-05)
(1.07238e-05 -3.22496e-07 -2.11092e-09 1.07238e-05 2.81236e-25 1.07238e-05)
(1.62515e-05 -6.27982e-07 -4.17014e-09 1.62515e-05 1.58639e-22 1.62515e-05)
(1.62515e-05 -6.27982e-07 -4.17014e-09 1.62515e-05 6.26076e-25 1.62515e-05)
(2.36265e-05 -1.1438e-06 -7.70554e-09 2.36265e-05 2.93181e-22 2.36265e-05)
(2.36265e-05 -1.1438e-06 -7.70554e-09 2.36265e-05 1.3171e-24 2.36265e-05)
(3.32088e-05 -1.97277e-06 -1.34824e-08 3.32088e-05 5.12292e-22 3.32088e-05)
(3.32088e-05 -1.97277e-06 -1.34824e-08 3.32088e-05 2.55332e-24 3.32088e-05)
(4.5389e-05 -3.25126e-06 -2.25409e-08 4.5389e-05 8.53608e-22 4.5389e-05)
(4.5389e-05 -3.25126e-06 -2.25409e-08 4.5389e-05 4.67425e-24 4.5389e-05)
(6.05876e-05 -5.15515e-06 -3.62555e-08 6.05876e-05 1.36532e-21 6.05876e-05)
(6.05876e-05 -5.15515e-06 -3.62555e-08 6.05876e-05 8.34036e-24 6.05876e-05)
(7.92516e-05 -7.90515e-06 -5.63946e-08 7.92516e-05 2.10651e-21 7.92516e-05)
(7.92516e-05 -7.90515e-06 -5.63946e-08 7.92516e-05 1.42882e-23 7.92516e-05)
(0.000101851 -1.17712e-05 -8.51763e-08 0.000101851 3.14465e-21 0.000101851)
(0.000101851 -1.17712e-05 -8.51763e-08 0.000101851 2.37904e-23 0.000101851)
(0.000128872 -1.70745e-05 -1.25312e-07 0.000128872 4.55477e-21 0.000128872)
(0.000128872 -1.70745e-05 -1.25312e-07 0.000128872 3.69412e-23 0.000128872)
(0.000160807 -2.41874e-05 -1.80032e-07 0.000160807 6.40987e-21 0.000160807)
(0.000160807 -2.41874e-05 -1.80032e-07 0.000160807 5.46184e-23 0.000160807)
(0.000198147 -3.3528e-05 -2.53075e-07 0.000198147 8.77312e-21 0.000198147)
(0.000198147 -3.3528e-05 -2.53075e-07 0.000198147 8.12584e-23 0.000198147)
(0.000241363 -4.55509e-05 -3.48643e-07 0.000241363 1.16953e-20 0.000241363)
(0.000241363 -4.55509e-05 -3.48643e-07 0.000241363 1.23955e-22 0.000241363)
(0.000290892 -6.07318e-05 -4.71306e-07 0.000290892 1.51813e-20 0.000290892)
(0.000290892 -6.07318e-05 -4.71306e-07 0.000290892 1.86183e-22 0.000290892)
(0.000347117 -7.95462e-05 -6.25848e-07 0.000347117 1.91733e-20 0.000347117)
(0.000347117 -7.95462e-05 -6.25848e-07 0.000347117 2.58235e-22 0.000347117)
(0.000410348 -0.000102444 -8.17068e-07 0.000410348 2.35591e-20 0.000410348)
(0.000410348 -0.000102444 -8.17068e-07 0.000410348 3.47289e-22 0.000410348)
(0.0004808 -0.00012982 -1.04954e-06 0.0004808 2.81582e-20 0.0004808)
(0.0004808 -0.00012982 -1.04954e-06 0.0004808 4.7986e-22 0.0004808)
(0.000558574 -0.000161983 -1.32733e-06 0.000558574 3.27116e-20 0.000558574)
(0.000558574 -0.000161983 -1.32733e-06 0.000558574 6.53769e-22 0.000558574)
(0.000643645 -0.000199131 -1.65375e-06 0.000643645 3.68407e-20 0.000643645)
(0.000643645 -0.000199131 -1.65375e-06 0.000643645 8.73578e-22 0.000643645)
(0.000735848 -0.000241325 -2.03114e-06 0.000735848 4.02277e-20 0.000735848)
(0.000735848 -0.000241325 -2.03114e-06 0.000735848 1.1413e-21 0.000735848)
(0.000834876 -0.000288479 -2.46063e-06 0.000834876 4.25182e-20 0.000834876)
(0.000834876 -0.000288479 -2.46063e-06 0.000834876 1.43495e-21 0.000834876)
(0.000940283 -0.000340358 -2.94214e-06 0.000940283 4.33733e-20 0.000940283)
(0.000940283 -0.000340358 -2.94214e-06 0.000940283 1.74725e-21 0.000940283)
(0.0010515 -0.000396588 -3.47432e-06 0.0010515 4.25282e-20 0.0010515)
(0.0010515 -0.000396588 -3.47432e-06 0.0010515 2.12896e-21 0.0010515)
(0.00116784 -0.000456672 -4.05466e-06 0.00116784 3.98674e-20 0.00116784)
(0.00116784 -0.000456672 -4.05466e-06 0.00116784 2.71254e-21 0.00116784)
(0.00128854 -0.000520019 -4.67967e-06 0.00128854 3.53939e-20 0.00128854)
(0.00128854 -0.000520019 -4.67967e-06 0.00128854 3.43639e-21 0.00128854)
(0.00141277 -0.000585979 -5.34509e-06 0.00141277 2.91252e-20 0.00141277)
(0.00141277 -0.000585979 -5.34509e-06 0.00141277 4.3332e-21 0.00141277)
(0.00153967 -0.00065387 -6.04613e-06 0.00153967 2.13525e-20 0.00153967)
(0.00153967 -0.00065387 -6.04613e-06 0.00153967 5.45786e-21 0.00153967)
(0.00166839 -0.000723014 -6.77775e-06 0.00166839 1.18308e-20 0.00166839)
(0.00166839 -0.000723014 -6.77775e-06 0.00166839 6.58449e-21 0.00166839)
(0.00179808 -0.000792761 -7.53484e-06 0.00179808 2.02398e-21 0.00179808)
(0.00179808 -0.000792761 -7.53484e-06 0.00179808 7.93605e-21 0.00179808)
(0.00192795 -0.000862509 -8.31247e-06 0.00192795 -7.68632e-21 0.00192795)
(0.00192795 -0.000862509 -8.31247e-06 0.00192795 9.45152e-21 0.00192795)
(0.00205726 -0.000931721 -9.10598e-06 0.00205726 -1.7884e-20 0.00205726)
(0.00205726 -0.000931721 -9.10598e-06 0.00205726 1.09276e-20 0.00205726)
(0.00218532 -0.000999928 -9.91111e-06 0.00218532 -2.74424e-20 0.00218532)
(0.00218532 -0.000999928 -9.91111e-06 0.00218532 1.27383e-20 0.00218532)
(0.00231156 -0.00106674 -1.07241e-05 0.00231156 -3.60197e-20 0.00231156)
(0.00231156 -0.00106674 -1.07241e-05 0.00231156 1.45933e-20 0.00231156)
(0.00243544 -0.00113183 -1.15416e-05 0.00243544 -4.37367e-20 0.00243544)
(0.00243544 -0.00113183 -1.15416e-05 0.00243544 1.68016e-20 0.00243544)
(0.00255654 -0.00119495 -1.23607e-05 0.00255654 -4.96883e-20 0.00255654)
(0.00255654 -0.00119495 -1.23607e-05 0.00255654 1.91864e-20 0.00255654)
(0.00267448 -0.00125592 -1.31792e-05 0.00267448 -5.36193e-20 0.00267448)
(0.00267448 -0.00125592 -1.31792e-05 0.00267448 2.11567e-20 0.00267448)
(0.00278897 -0.00131458 -1.39952e-05 0.00278897 -5.58178e-20 0.00278897)
(0.00278897 -0.00131458 -1.39952e-05 0.00278897 2.37621e-20 0.00278897)
(0.0028998 -0.00137087 -1.48069e-05 0.0028998 -5.59984e-20 0.0028998)
(0.0028998 -0.00137087 -1.48069e-05 0.0028998 2.72632e-20 0.0028998)
(0.00300677 -0.00142472 -1.56134e-05 0.00300677 -5.35229e-20 0.00300677)
(0.00300677 -0.00142472 -1.56134e-05 0.00300677 3.0433e-20 0.00300677)
(0.00310978 -0.00147613 -1.64135e-05 0.00310978 -4.93384e-20 0.00310978)
(0.00310978 -0.00147613 -1.64135e-05 0.00310978 3.33109e-20 0.00310978)
(0.00320875 -0.00152509 -1.72067e-05 0.00320875 -4.40979e-20 0.00320875)
(0.00320875 -0.00152509 -1.72067e-05 0.00320875 3.64356e-20 0.00320875)
(0.00330363 -0.00157165 -1.79926e-05 0.00330363 -3.62147e-20 0.00330363)
(0.00330363 -0.00157165 -1.79926e-05 0.00330363 3.99306e-20 0.00330363)
(0.00339443 -0.00161585 -1.87707e-05 0.00339443 -2.56664e-20 0.00339443)
(0.00339443 -0.00161585 -1.87707e-05 0.00339443 4.34829e-20 0.00339443)
(0.00348116 -0.00165775 -1.9541e-05 0.00348116 -1.23358e-20 0.00348116)
(0.00348116 -0.00165775 -1.9541e-05 0.00348116 4.73618e-20 0.00348116)
(0.00356387 -0.0016974 -2.03035e-05 0.00356387 3.42699e-21 0.00356387)
(0.00356387 -0.0016974 -2.03035e-05 0.00356387 5.12041e-20 0.00356387)
(0.0036426 -0.0017349 -2.1058e-05 0.0036426 1.81909e-20 0.0036426)
(0.0036426 -0.0017349 -2.1058e-05 0.0036426 5.52675e-20 0.0036426)
(0.00371744 -0.0017703 -2.18048e-05 0.00371744 3.54787e-20 0.00371744)
(0.00371744 -0.0017703 -2.18048e-05 0.00371744 6.08688e-20 0.00371744)
(0.00378847 -0.00180369 -2.2544e-05 0.00378847 5.60084e-20 0.00378847)
(0.00378847 -0.00180369 -2.2544e-05 0.00378847 6.41557e-20 0.00378847)
(0.00385576 -0.00183514 -2.32758e-05 0.00385576 7.71396e-20 0.00385576)
(0.00385576 -0.00183514 -2.32758e-05 0.00385576 6.65495e-20 0.00385576)
(0.00391943 -0.00186474 -2.40004e-05 0.00391943 1.00711e-19 0.00391943)
(0.00391943 -0.00186474 -2.40004e-05 0.00391943 7.07702e-20 0.00391943)
(0.00397956 -0.00189254 -2.47179e-05 0.00397956 1.26792e-19 0.00397956)
(0.00397956 -0.00189254 -2.47179e-05 0.00397956 7.64248e-20 0.00397956)
(0.00403625 -0.00191863 -2.54286e-05 0.00403625 1.53676e-19 0.00403625)
(0.00403625 -0.00191863 -2.54286e-05 0.00403625 8.26216e-20 0.00403625)
(0.00408961 -0.00194306 -2.61326e-05 0.00408961 1.82373e-19 0.00408961)
(0.00408961 -0.00194306 -2.61326e-05 0.00408961 8.92575e-20 0.00408961)
(0.00413973 -0.00196592 -2.68303e-05 0.00413973 2.13555e-19 0.00413973)
(0.00413973 -0.00196592 -2.68303e-05 0.00413973 9.21601e-20 0.00413973)
(0.00418671 -0.00198726 -2.75217e-05 0.00418671 2.43883e-19 0.00418671)
(0.00418671 -0.00198726 -2.75217e-05 0.00418671 9.5629e-20 0.00418671)
(0.00423065 -0.00200714 -2.82071e-05 0.00423065 2.75312e-19 0.00423065)
(0.00423065 -0.00200714 -2.82071e-05 0.00423065 1.04844e-19 0.00423065)
(0.00427165 -0.00202562 -2.88866e-05 0.00427165 3.07147e-19 0.00427165)
(0.00427165 -0.00202562 -2.88866e-05 0.00427165 1.0892e-19 0.00427165)
(0.00430978 -0.00204274 -2.95603e-05 0.00430978 3.40844e-19 0.00430978)
(0.00430978 -0.00204274 -2.95603e-05 0.00430978 1.14215e-19 0.00430978)
(0.00434516 -0.00205857 -3.02283e-05 0.00434516 3.78597e-19 0.00434516)
(0.00434516 -0.00205857 -3.02283e-05 0.00434516 1.19918e-19 0.00434516)
(0.00437785 -0.00207315 -3.08908e-05 0.00437785 4.13985e-19 0.00437785)
(0.00437785 -0.00207315 -3.08908e-05 0.00437785 1.26698e-19 0.00437785)
(0.00440794 -0.00208652 -3.15478e-05 0.00440794 4.51136e-19 0.00440794)
(0.00440794 -0.00208652 -3.15478e-05 0.00440794 1.36768e-19 0.00440794)
(0.00443551 -0.00209872 -3.21995e-05 0.00443551 4.92572e-19 0.00443551)
(0.00443551 -0.00209872 -3.21995e-05 0.00443551 1.447e-19 0.00443551)
(0.00446065 -0.0021098 -3.28457e-05 0.00446065 5.38482e-19 0.00446065)
(0.00446065 -0.0021098 -3.28457e-05 0.00446065 1.51775e-19 0.00446065)
(0.00448341 -0.00211978 -3.34866e-05 0.00448341 5.8587e-19 0.00448341)
(0.00448341 -0.00211978 -3.34866e-05 0.00448341 1.5556e-19 0.00448341)
(0.00450387 -0.00212872 -3.41222e-05 0.00450387 6.26209e-19 0.00450387)
(0.00450387 -0.00212872 -3.41222e-05 0.00450387 1.6183e-19 0.00450387)
(0.00452211 -0.00213663 -3.47524e-05 0.00452211 6.67555e-19 0.00452211)
(0.00452211 -0.00213663 -3.47524e-05 0.00452211 1.73771e-19 0.00452211)
(0.00453818 -0.00214356 -3.53773e-05 0.00453818 7.20961e-19 0.00453818)
(0.00453818 -0.00214356 -3.53773e-05 0.00453818 1.84673e-19 0.00453818)
(0.00455215 -0.00214952 -3.59967e-05 0.00455215 7.70222e-19 0.00455215)
(0.00455215 -0.00214952 -3.59967e-05 0.00455215 1.91115e-19 0.00455215)
(0.00456407 -0.00215455 -3.66106e-05 0.00456407 8.17428e-19 0.00456407)
(0.00456407 -0.00215455 -3.66106e-05 0.00456407 2.05558e-19 0.00456407)
(0.00457401 -0.00215868 -3.7219e-05 0.00457401 8.63033e-19 0.00457401)
(0.00457401 -0.00215868 -3.7219e-05 0.00457401 2.19963e-19 0.00457401)
(0.00458202 -0.00216192 -3.78217e-05 0.00458202 9.00426e-19 0.00458202)
(0.00458202 -0.00216192 -3.78217e-05 0.00458202 2.31718e-19 0.00458202)
(0.00458815 -0.00216431 -3.84187e-05 0.00458815 9.48981e-19 0.00458815)
(0.00458815 -0.00216431 -3.84187e-05 0.00458815 2.44749e-19 0.00458815)
(0.00459245 -0.00216586 -3.90098e-05 0.00459245 1.00204e-18 0.00459245)
(0.00459245 -0.00216586 -3.90098e-05 0.00459245 2.42577e-19 0.00459245)
(0.00459498 -0.0021666 -3.95949e-05 0.00459498 1.05483e-18 0.00459498)
(0.00459498 -0.0021666 -3.95949e-05 0.00459498 2.51273e-19 0.00459498)
(0.00459578 -0.00216654 -4.01739e-05 0.00459578 1.11167e-18 0.00459578)
(0.00459578 -0.00216654 -4.01739e-05 0.00459578 2.76436e-19 0.00459578)
(0.0045949 -0.00216572 -4.07467e-05 0.0045949 1.17408e-18 0.0045949)
(0.0045949 -0.00216572 -4.07467e-05 0.0045949 2.8975e-19 0.0045949)
(0.00459238 -0.00216414 -4.1313e-05 0.00459238 1.24043e-18 0.00459238)
(0.00459238 -0.00216414 -4.1313e-05 0.00459238 2.9309e-19 0.00459238)
(0.00458826 -0.00216183 -4.18728e-05 0.00458826 1.29074e-18 0.00458826)
(0.00458826 -0.00216183 -4.18728e-05 0.00458826 3.09571e-19 0.00458826)
(0.00458259 -0.0021588 -4.24258e-05 0.00458259 1.34674e-18 0.00458259)
(0.00458259 -0.0021588 -4.24258e-05 0.00458259 3.20945e-19 0.00458259)
(0.00457541 -0.00215507 -4.2972e-05 0.00457541 1.41141e-18 0.00457541)
(0.00457541 -0.00215507 -4.2972e-05 0.00457541 3.41776e-19 0.00457541)
(0.00456675 -0.00215066 -4.3511e-05 0.00456675 1.46497e-18 0.00456675)
(0.00456675 -0.00215066 -4.3511e-05 0.00456675 3.70075e-19 0.00456675)
(0.00455667 -0.00214559 -4.40428e-05 0.00455667 1.51209e-18 0.00455667)
(0.00455667 -0.00214559 -4.40428e-05 0.00455667 3.77327e-19 0.00455667)
(0.00454518 -0.00213986 -4.45672e-05 0.00454518 1.56607e-18 0.00454518)
(0.00454518 -0.00213986 -4.45672e-05 0.00454518 3.99387e-19 0.00454518)
(0.00453234 -0.00213351 -4.50839e-05 0.00453234 1.62529e-18 0.00453234)
(0.00453234 -0.00213351 -4.50839e-05 0.00453234 4.26405e-19 0.00453234)
(0.00451817 -0.00212653 -4.55928e-05 0.00451817 1.68254e-18 0.00451817)
(0.00451817 -0.00212653 -4.55928e-05 0.00451817 4.41837e-19 0.00451817)
(0.00450272 -0.00211896 -4.60937e-05 0.00450272 1.73989e-18 0.00450272)
(0.00450272 -0.00211896 -4.60937e-05 0.00450272 4.50758e-19 0.00450272)
(0.00448601 -0.0021108 -4.65864e-05 0.00448601 1.78608e-18 0.00448601)
(0.00448601 -0.0021108 -4.65864e-05 0.00448601 4.65296e-19 0.00448601)
(0.00446809 -0.00210206 -4.70706e-05 0.00446809 1.84579e-18 0.00446809)
(0.00446809 -0.00210206 -4.70706e-05 0.00446809 4.77705e-19 0.00446809)
(0.00444898 -0.00209277 -4.75463e-05 0.00444898 1.88943e-18 0.00444898)
(0.00444898 -0.00209277 -4.75463e-05 0.00444898 4.72787e-19 0.00444898)
(0.00442872 -0.00208294 -4.80132e-05 0.00442872 1.95182e-18 0.00442872)
(0.00442872 -0.00208294 -4.80132e-05 0.00442872 4.66031e-19 0.00442872)
(0.00440734 -0.00207258 -4.84711e-05 0.00440734 2.02851e-18 0.00440734)
(0.00440734 -0.00207258 -4.84711e-05 0.00440734 4.61171e-19 0.00440734)
(0.00438487 -0.0020617 -4.89198e-05 0.00438487 2.07985e-18 0.00438487)
(0.00438487 -0.0020617 -4.89198e-05 0.00438487 4.73454e-19 0.00438487)
(0.00436135 -0.00205033 -4.93591e-05 0.00436135 2.14042e-18 0.00436135)
(0.00436135 -0.00205033 -4.93591e-05 0.00436135 4.83432e-19 0.00436135)
(0.0043368 -0.00203848 -4.97889e-05 0.0043368 2.20554e-18 0.0043368)
(0.0043368 -0.00203848 -4.97889e-05 0.0043368 4.79233e-19 0.0043368)
(0.00431126 -0.00202615 -5.0209e-05 0.00431126 2.28502e-18 0.00431126)
(0.00431126 -0.00202615 -5.0209e-05 0.00431126 4.91808e-19 0.00431126)
(0.00428476 -0.00201337 -5.06192e-05 0.00428476 2.36947e-18 0.00428476)
(0.00428476 -0.00201337 -5.06192e-05 0.00428476 5.09313e-19 0.00428476)
(0.00425733 -0.00200015 -5.10192e-05 0.00425733 2.4441e-18 0.00425733)
(0.00425733 -0.00200015 -5.10192e-05 0.00425733 5.06505e-19 0.00425733)
(0.004229 -0.0019865 -5.1409e-05 0.004229 2.51655e-18 0.004229)
(0.004229 -0.0019865 -5.1409e-05 0.004229 5.22275e-19 0.004229)
(0.0041998 -0.00197244 -5.17884e-05 0.0041998 2.59353e-18 0.0041998)
(0.0041998 -0.00197244 -5.17884e-05 0.0041998 5.36311e-19 0.0041998)
(0.00416976 -0.00195798 -5.21572e-05 0.00416976 2.68741e-18 0.00416976)
(0.00416976 -0.00195798 -5.21572e-05 0.00416976 5.33742e-19 0.00416976)
(0.00413891 -0.00194314 -5.25152e-05 0.00413891 2.77411e-18 0.00413891)
(0.00413891 -0.00194314 -5.25152e-05 0.00413891 5.64064e-19 0.00413891)
(0.00410728 -0.00192792 -5.28623e-05 0.00410728 2.85004e-18 0.00410728)
(0.00410728 -0.00192792 -5.28623e-05 0.00410728 5.92754e-19 0.00410728)
(0.0040749 -0.00191235 -5.31984e-05 0.0040749 2.95466e-18 0.0040749)
(0.0040749 -0.00191235 -5.31984e-05 0.0040749 5.95603e-19 0.0040749)
(0.00404179 -0.00189644 -5.35233e-05 0.00404179 3.04742e-18 0.00404179)
(0.00404179 -0.00189644 -5.35233e-05 0.00404179 6.01223e-19 0.00404179)
(0.00400798 -0.00188019 -5.38369e-05 0.00400798 3.12573e-18 0.00400798)
(0.00400798 -0.00188019 -5.38369e-05 0.00400798 6.23035e-19 0.00400798)
(0.00397351 -0.00186364 -5.4139e-05 0.00397351 3.21035e-18 0.00397351)
(0.00397351 -0.00186364 -5.4139e-05 0.00397351 6.56296e-19 0.00397351)
(0.00393841 -0.00184678 -5.44295e-05 0.00393841 3.28224e-18 0.00393841)
(0.00393841 -0.00184678 -5.44295e-05 0.00393841 6.95352e-19 0.00393841)
(0.00390269 -0.00182963 -5.47084e-05 0.00390269 3.38525e-18 0.00390269)
(0.00390269 -0.00182963 -5.47084e-05 0.00390269 7.4632e-19 0.00390269)
(0.00386639 -0.00181221 -5.49755e-05 0.00386639 3.07794e-18 0.00386639)
(0.00386639 -0.00181221 -5.49755e-05 0.00386639 7.69655e-19 0.00386639)
(0.00382954 -0.00179453 -5.52306e-05 0.00382954 3.0951e-18 0.00382954)
(0.00382954 -0.00179453 -5.52306e-05 0.00382954 7.51919e-19 0.00382954)
(0.00379216 -0.00177661 -5.54738e-05 0.00379216 3.50996e-18 0.00379216)
(0.00379216 -0.00177661 -5.54738e-05 0.00379216 7.43175e-19 0.00379216)
(0.00375428 -0.00175845 -5.5705e-05 0.00375428 3.56188e-18 0.00375428)
(0.00375428 -0.00175845 -5.5705e-05 0.00375428 6.78883e-19 0.00375428)
(0.00371593 -0.00174007 -5.5924e-05 0.00371593 3.72425e-18 0.00371593)
(0.00371593 -0.00174007 -5.5924e-05 0.00371593 5.9339e-19 0.00371593)
(0.00367713 -0.00172149 -5.61307e-05 0.00367713 3.81894e-18 0.00367713)
(0.00367713 -0.00172149 -5.61307e-05 0.00367713 6.24418e-19 0.00367713)
(0.00363791 -0.00170271 -5.63252e-05 0.00363791 3.81383e-18 0.00363791)
(0.00363791 -0.00170271 -5.63252e-05 0.00363791 6.30208e-19 0.00363791)
(0.00359829 -0.00168375 -5.65074e-05 0.00359829 3.94282e-18 0.00359829)
(0.00359829 -0.00168375 -5.65074e-05 0.00359829 6.12385e-19 0.00359829)
(0.00355831 -0.00166463 -5.66772e-05 0.00355831 4.09149e-18 0.00355831)
(0.00355831 -0.00166463 -5.66772e-05 0.00355831 6.41151e-19 0.00355831)
(0.00351799 -0.00164535 -5.68346e-05 0.00351799 4.1879e-18 0.00351799)
(0.00351799 -0.00164535 -5.68346e-05 0.00351799 6.87473e-19 0.00351799)
(0.00347735 -0.00162592 -5.69796e-05 0.00347735 4.34112e-18 0.00347735)
(0.00347735 -0.00162592 -5.69796e-05 0.00347735 6.64501e-19 0.00347735)
(0.00343641 -0.00160637 -5.71121e-05 0.00343641 4.45734e-18 0.00343641)
(0.00343641 -0.00160637 -5.71121e-05 0.00343641 6.23834e-19 0.00343641)
(0.00339521 -0.0015867 -5.72321e-05 0.00339521 4.59464e-18 0.00339521)
(0.00339521 -0.0015867 -5.72321e-05 0.00339521 6.07847e-19 0.00339521)
(0.00335377 -0.00156693 -5.73396e-05 0.00335377 4.76977e-18 0.00335377)
(0.00335377 -0.00156693 -5.73396e-05 0.00335377 7.07695e-19 0.00335377)
(0.0033121 -0.00154706 -5.74347e-05 0.0033121 4.91985e-18 0.0033121)
(0.0033121 -0.00154706 -5.74347e-05 0.0033121 9.3451e-19 0.0033121)
(0.00327024 -0.00152711 -5.75173e-05 0.00327024 4.93138e-18 0.00327024)
(0.00327024 -0.00152711 -5.75173e-05 0.00327024 9.15996e-19 0.00327024)
(0.00322821 -0.00150709 -5.75874e-05 0.00322821 5.05823e-18 0.00322821)
(0.00322821 -0.00150709 -5.75874e-05 0.00322821 7.23846e-19 0.00322821)
(0.00318603 -0.00148701 -5.76451e-05 0.00318603 5.20741e-18 0.00318603)
(0.00318603 -0.00148701 -5.76451e-05 0.00318603 7.48753e-19 0.00318603)
(0.00314372 -0.00146688 -5.76905e-05 0.00314372 5.2192e-18 0.00314372)
(0.00314372 -0.00146688 -5.76905e-05 0.00314372 8.63724e-19 0.00314372)
(0.0031013 -0.00144671 -5.77234e-05 0.0031013 5.32526e-18 0.0031013)
(0.0031013 -0.00144671 -5.77234e-05 0.0031013 8.3197e-19 0.0031013)
(0.0030588 -0.00142652 -5.77441e-05 0.0030588 5.46539e-18 0.0030588)
(0.0030588 -0.00142652 -5.77441e-05 0.0030588 7.84056e-19 0.0030588)
(0.00301624 -0.00140632 -5.77525e-05 0.00301624 5.51941e-18 0.00301624)
(0.00301624 -0.00140632 -5.77525e-05 0.00301624 9.81029e-19 0.00301624)
(0.00297363 -0.00138611 -5.77488e-05 0.00297363 5.56683e-18 0.00297363)
(0.00297363 -0.00138611 -5.77488e-05 0.00297363 1.04329e-18 0.00297363)
(0.00293101 -0.0013659 -5.77329e-05 0.00293101 5.86307e-18 0.00293101)
(0.00293101 -0.0013659 -5.77329e-05 0.00293101 7.8944e-19 0.00293101)
(0.00288838 -0.00134571 -5.77049e-05 0.00288838 5.93024e-18 0.00288838)
(0.00288838 -0.00134571 -5.77049e-05 0.00288838 8.38707e-19 0.00288838)
(0.00284577 -0.00132554 -5.7665e-05 0.00284577 5.90298e-18 0.00284577)
(0.00284577 -0.00132554 -5.7665e-05 0.00284577 1.09167e-18 0.00284577)
(0.0028032 -0.00130541 -5.76133e-05 0.0028032 6.09288e-18 0.0028032)
(0.0028032 -0.00130541 -5.76133e-05 0.0028032 9.42026e-19 0.0028032)
(0.00276068 -0.00128531 -5.75497e-05 0.00276068 6.14057e-18 0.00276068)
(0.00276068 -0.00128531 -5.75497e-05 0.00276068 8.26847e-19 0.00276068)
(0.00271824 -0.00126527 -5.74745e-05 0.00271824 5.59551e-18 0.00271824)
(0.00271824 -0.00126527 -5.74745e-05 0.00271824 9.65468e-19 0.00271824)
(0.00267589 -0.00124529 -5.73876e-05 0.00267589 5.02772e-18 0.00267589)
(0.00267589 -0.00124529 -5.73876e-05 0.00267589 9.2314e-19 0.00267589)
(0.00263365 -0.00122538 -5.72894e-05 0.00263365 4.77709e-18 0.00263365)
(0.00263365 -0.00122538 -5.72894e-05 0.00263365 8.81586e-19 0.00263365)
(0.00259154 -0.00120555 -5.71797e-05 0.00259154 4.73524e-18 0.00259154)
(0.00259154 -0.00120555 -5.71797e-05 0.00259154 9.48107e-19 0.00259154)
(0.00254957 -0.00118579 -5.70589e-05 0.00254957 4.70198e-18 0.00254957)
(0.00254957 -0.00118579 -5.70589e-05 0.00254957 1.00206e-18 0.00254957)
(0.00250775 -0.00116613 -5.69269e-05 0.00250775 4.53787e-18 0.00250775)
(0.00250775 -0.00116613 -5.69269e-05 0.00250775 1.07141e-18 0.00250775)
(0.00246611 -0.00114657 -5.6784e-05 0.00246611 4.53346e-18 0.00246611)
(0.00246611 -0.00114657 -5.6784e-05 0.00246611 1.15699e-18 0.00246611)
(0.00242466 -0.00112712 -5.66303e-05 0.00242466 4.45635e-18 0.00242466)
(0.00242466 -0.00112712 -5.66303e-05 0.00242466 1.26171e-18 0.00242466)
(0.00238341 -0.00110778 -5.64658e-05 0.00238341 4.48914e-18 0.00238341)
(0.00238341 -0.00110778 -5.64658e-05 0.00238341 1.2657e-18 0.00238341)
(0.00234237 -0.00108856 -5.62909e-05 0.00234237 4.72669e-18 0.00234237)
(0.00234237 -0.00108856 -5.62909e-05 0.00234237 1.17263e-18 0.00234237)
(0.00230157 -0.00106946 -5.61055e-05 0.00230157 4.97486e-18 0.00230157)
(0.00230157 -0.00106946 -5.61055e-05 0.00230157 1.15095e-18 0.00230157)
(0.00226101 -0.0010505 -5.59099e-05 0.00226101 4.96687e-18 0.00226101)
(0.00226101 -0.0010505 -5.59099e-05 0.00226101 1.31044e-18 0.00226101)
(0.0022207 -0.00103167 -5.57042e-05 0.0022207 4.65839e-18 0.0022207)
(0.0022207 -0.00103167 -5.57042e-05 0.0022207 1.49083e-18 0.0022207)
(0.00218066 -0.00101299 -5.54886e-05 0.00218066 4.60622e-18 0.00218066)
(0.00218066 -0.00101299 -5.54886e-05 0.00218066 1.49174e-18 0.00218066)
(0.0021409 -0.00099445 -5.52632e-05 0.0021409 4.9252e-18 0.0021409)
(0.0021409 -0.00099445 -5.52632e-05 0.0021409 1.39681e-18 0.0021409)
(0.00210143 -0.000976069 -5.50282e-05 0.00210143 4.90787e-18 0.00210143)
(0.00210143 -0.000976069 -5.50282e-05 0.00210143 1.3581e-18 0.00210143)
(0.00206226 -0.000957845 -5.47838e-05 0.00206226 5.10779e-18 0.00206226)
(0.00206226 -0.000957845 -5.47838e-05 0.00206226 1.38452e-18 0.00206226)
(0.00202339 -0.000939784 -5.45301e-05 0.00202339 5.51931e-18 0.00202339)
(0.00202339 -0.000939784 -5.45301e-05 0.00202339 1.52483e-18 0.00202339)
(0.00198485 -0.00092189 -5.42673e-05 0.00198485 5.00865e-18 0.00198485)
(0.00198485 -0.00092189 -5.42673e-05 0.00198485 1.64813e-18 0.00198485)
(0.00194664 -0.000904167 -5.39957e-05 0.00194664 4.09087e-18 0.00194664)
(0.00194664 -0.000904167 -5.39957e-05 0.00194664 1.73376e-18 0.00194664)
(0.00190876 -0.000886618 -5.37152e-05 0.00190876 3.9534e-18 0.00190876)
(0.00190876 -0.000886618 -5.37152e-05 0.00190876 1.71985e-18 0.00190876)
(0.00187123 -0.000869248 -5.34262e-05 0.00187123 3.60747e-18 0.00187123)
(0.00187123 -0.000869248 -5.34262e-05 0.00187123 1.78478e-18 0.00187123)
(0.00183405 -0.00085206 -5.31288e-05 0.00183405 2.7787e-18 0.00183405)
(0.00183405 -0.00085206 -5.31288e-05 0.00183405 1.84233e-18 0.00183405)
(0.00179723 -0.000835056 -5.28232e-05 0.00179723 2.56967e-18 0.00179723)
(0.00179723 -0.000835056 -5.28232e-05 0.00179723 1.6588e-18 0.00179723)
(0.00176077 -0.00081824 -5.25096e-05 0.00176077 2.20005e-18 0.00176077)
(0.00176077 -0.00081824 -5.25096e-05 0.00176077 1.70311e-18 0.00176077)
(0.00172469 -0.000801614 -5.21881e-05 0.00172469 1.94881e-18 0.00172469)
(0.00172469 -0.000801614 -5.21881e-05 0.00172469 1.79144e-18 0.00172469)
(0.00168899 -0.000785181 -5.18589e-05 0.00168899 1.82942e-18 0.00168899)
(0.00168899 -0.000785181 -5.18589e-05 0.00168899 1.71037e-18 0.00168899)
(0.00165367 -0.000768943 -5.15222e-05 0.00165367 1.4249e-18 0.00165367)
(0.00165367 -0.000768943 -5.15222e-05 0.00165367 1.7709e-18 0.00165367)
(0.00161875 -0.000752902 -5.11782e-05 0.00161875 1.10635e-18 0.00161875)
(0.00161875 -0.000752902 -5.11782e-05 0.00161875 1.90614e-18 0.00161875)
(0.00158421 -0.00073706 -5.08271e-05 0.00158421 9.37583e-19 0.00158421)
(0.00158421 -0.00073706 -5.08271e-05 0.00158421 1.93226e-18 0.00158421)
(0.00155008 -0.000721418 -5.0469e-05 0.00155008 1.44809e-19 0.00155008)
(0.00155008 -0.000721418 -5.0469e-05 0.00155008 1.92644e-18 0.00155008)
(0.00151635 -0.000705978 -5.01041e-05 0.00151635 2.53303e-19 0.00151635)
(0.00151635 -0.000705978 -5.01041e-05 0.00151635 2.06855e-18 0.00151635)
(0.00148302 -0.000690741 -4.97326e-05 0.00148302 2.71199e-19 0.00148302)
(0.00148302 -0.000690741 -4.97326e-05 0.00148302 2.16661e-18 0.00148302)
(0.00145011 -0.000675709 -4.93547e-05 0.00145011 -4.1124e-19 0.00145011)
(0.00145011 -0.000675709 -4.93547e-05 0.00145011 2.27781e-18 0.00145011)
(0.0014176 -0.000660882 -4.89705e-05 0.0014176 -6.14836e-19 0.0014176)
(0.0014176 -0.000660882 -4.89705e-05 0.0014176 2.26714e-18 0.0014176)
(0.00138552 -0.00064626 -4.85803e-05 0.00138552 -7.87552e-19 0.00138552)
(0.00138552 -0.00064626 -4.85803e-05 0.00138552 2.36624e-18 0.00138552)
(0.00135384 -0.000631846 -4.81841e-05 0.00135384 -1.11948e-18 0.00135384)
(0.00135384 -0.000631846 -4.81841e-05 0.00135384 2.52911e-18 0.00135384)
(0.00132259 -0.000617638 -4.77822e-05 0.00132259 -1.17403e-18 0.00132259)
(0.00132259 -0.000617638 -4.77822e-05 0.00132259 2.50066e-18 0.00132259)
(0.00129176 -0.000603637 -4.73747e-05 0.00129176 -1.57676e-18 0.00129176)
(0.00129176 -0.000603637 -4.73747e-05 0.00129176 2.58139e-18 0.00129176)
(0.00126135 -0.000589844 -4.69618e-05 0.00126135 -1.99274e-18 0.00126135)
(0.00126135 -0.000589844 -4.69618e-05 0.00126135 2.57459e-18 0.00126135)
(0.00123137 -0.000576258 -4.65437e-05 0.00123137 -2.08613e-18 0.00123137)
(0.00123137 -0.000576258 -4.65437e-05 0.00123137 2.60764e-18 0.00123137)
(0.00120181 -0.000562879 -4.61205e-05 0.00120181 -2.23231e-18 0.00120181)
(0.00120181 -0.000562879 -4.61205e-05 0.00120181 2.73476e-18 0.00120181)
(0.00117267 -0.000549708 -4.56924e-05 0.00117267 -2.23732e-18 0.00117267)
(0.00117267 -0.000549708 -4.56924e-05 0.00117267 2.73928e-18 0.00117267)
(0.00114396 -0.000536742 -4.52596e-05 0.00114396 -2.61313e-18 0.00114396)
(0.00114396 -0.000536742 -4.52596e-05 0.00114396 2.88826e-18 0.00114396)
(0.00111567 -0.000523983 -4.48221e-05 0.00111567 -3.3002e-18 0.00111567)
(0.00111567 -0.000523983 -4.48221e-05 0.00111567 3.03724e-18 0.00111567)
(0.00108781 -0.000511429 -4.43803e-05 0.00108781 -3.63224e-18 0.00108781)
(0.00108781 -0.000511429 -4.43803e-05 0.00108781 2.98835e-18 0.00108781)
(0.00106038 -0.00049908 -4.39341e-05 0.00106038 -3.7201e-18 0.00106038)
(0.00106038 -0.00049908 -4.39341e-05 0.00106038 3.06715e-18 0.00106038)
(0.00103337 -0.000486934 -4.34839e-05 0.00103337 -3.72561e-18 0.00103337)
(0.00103337 -0.000486934 -4.34839e-05 0.00103337 3.2652e-18 0.00103337)
(0.00100678 -0.000474992 -4.30296e-05 0.00100678 -3.59767e-18 0.00100678)
(0.00100678 -0.000474992 -4.30296e-05 0.00100678 3.38708e-18 0.00100678)
(0.000980618 -0.000463251 -4.25716e-05 0.000980618 -3.50307e-18 0.000980618)
(0.000980618 -0.000463251 -4.25716e-05 0.000980618 3.47024e-18 0.000980618)
(0.000954878 -0.000451711 -4.21099e-05 0.000954878 -4.11997e-18 0.000954878)
(0.000954878 -0.000451711 -4.21099e-05 0.000954878 3.75653e-18 0.000954878)
(0.000929561 -0.000440371 -4.16447e-05 0.000929561 -4.59611e-18 0.000929561)
(0.000929561 -0.000440371 -4.16447e-05 0.000929561 4.0253e-18 0.000929561)
(0.000904666 -0.000429229 -4.11761e-05 0.000904666 -4.6374e-18 0.000904666)
(0.000904666 -0.000429229 -4.11761e-05 0.000904666 4.09447e-18 0.000904666)
(0.000880191 -0.000418284 -4.07044e-05 0.000880191 -4.40936e-18 0.000880191)
(0.000880191 -0.000418284 -4.07044e-05 0.000880191 3.93114e-18 0.000880191)
(0.000856136 -0.000407535 -4.02295e-05 0.000856136 -4.18023e-18 0.000856136)
(0.000856136 -0.000407535 -4.02295e-05 0.000856136 4.00577e-18 0.000856136)
(0.0008325 -0.00039698 -3.97518e-05 0.0008325 -4.88342e-18 0.0008325)
(0.0008325 -0.00039698 -3.97518e-05 0.0008325 4.50524e-18 0.0008325)
(0.000809282 -0.000386618 -3.92712e-05 0.000809282 -5.2492e-18 0.000809282)
(0.000809282 -0.000386618 -3.92712e-05 0.000809282 3.90265e-18 0.000809282)
(0.00078648 -0.000376448 -3.87881e-05 0.00078648 -4.296e-18 0.00078648)