/*--------------------------------*- C++ -*----------------------------------*\
| =========                 |                                                 |
| \\      /  F ield         | OpenFOAM: The Open Source CFD Toolbox           |
|  \\    /   O peration     | Version:  2012                                  |
|   \\  /    A nd           | Website:  www.openfoam.com                      |
|    \\/     M anipulation  |                                                 |
\*---------------------------------------------------------------------------*/
FoamFile
{
    version     2.0;
    format      ascii;
    class       volScalarField;
    location    "1000";
    object      k;
}
// * * * * * * * * * * * * * * * * * * * * * * * * * * * * * * * * * * * * * //

dimensions      [0 2 -2 0 0 0 0];


internalField   nonuniform List<scalar> 
1280
(
5.91431e-07
5.91431e-07
1.07611e-07
1.07611e-07
1.84651e-07
1.84651e-07
6.14134e-07
6.14134e-07
1.63028e-06
1.63028e-06
3.57883e-06
3.57883e-06
6.89962e-06
6.89962e-06
1.21339e-05
1.21339e-05
1.99362e-05
1.99362e-05
3.10883e-05
3.10883e-05
4.65135e-05
4.65135e-05
6.72897e-05
6.72897e-05
9.46598e-05
9.46598e-05
0.000130037
0.000130037
0.000175
0.000175
0.000231276
0.000231276
0.000300698
0.000300698
0.000385151
0.000385151
0.000486469
0.000486469
0.000606324
0.000606324
0.000746074
0.000746074
0.000906612
0.000906612
0.00108822
0.00108822
0.00129045
0.00129045
0.0015121
0.0015121
0.00175119
0.00175119
0.00200511
0.00200511
0.00227072
0.00227072
0.00254463
0.00254463
0.00282331
0.00282331
0.00310335
0.00310335
0.00338154
0.00338154
0.00365504
0.00365504
0.00392139
0.00392139
0.00417854
0.00417854
0.00442484
0.00442484
0.00465901
0.00465901
0.00488013
0.00488013
0.00508751
0.00508751
0.00528074
0.00528074
0.00545959
0.00545959
0.00562401
0.00562401
0.00577403
0.00577403
0.00590983
0.00590983
0.00603163
0.00603163
0.00613971
0.00613971
0.00623442
0.00623442
0.00631612
0.00631612
0.00638518
0.00638518
0.006442
0.006442
0.00648701
0.00648701
0.00652062
0.00652062
0.00654325
0.00654325
0.00655531
0.00655531
0.00655724
0.00655724
0.00654946
0.00654946
0.00653239
0.00653239
0.00650643
0.00650643
0.00647202
0.00647202
0.00642955
0.00642955
0.00637943
0.00637943
0.00632206
0.00632206
0.00625784
0.00625784
0.00618715
0.00618715
0.00611039
0.00611039
0.00602792
0.00602792
0.00594012
0.00594012
0.00584736
0.00584736
0.00574999
0.00574999
0.00564836
0.00564836
0.00554281
0.00554281
0.00543368
0.00543368
0.00532128
0.00532128
0.00520594
0.00520594
0.00508797
0.00508797
0.00496764
0.00496764
0.00484527
0.00484527
0.00472111
0.00472111
0.00459543
0.00459543
0.0044685
0.0044685
0.00434056
0.00434056
0.00421185
0.00421185
0.00408258
0.00408258
0.00395298
0.00395298
0.00382325
0.00382325
0.00369358
0.00369358
0.00356417
0.00356417
0.00343519
0.00343519
0.0033068
0.0033068
0.00317917
0.00317917
0.00305244
0.00305244
0.00292677
0.00292677
0.00280228
0.00280228
0.00267912
0.00267912
0.0025574
0.0025574
0.00243724
0.00243724
0.00231878
0.00231878
0.00220212
0.00220212
0.00208738
0.00208738
0.00197467
0.00197467
0.00186412
0.00186412
0.00175585
0.00175585
0.00164998
0.00164998
0.00154665
0.00154665
0.00144601
0.00144601
0.00134819
0.00134819
0.00125338
0.00125338
0.00116174
0.00116174
0.00107347
0.00107347
0.000988778
0.000988778
0.00090787
0.00090787
0.000830977
0.000830977
0.000758332
0.000758332
0.000690167
0.000690167
0.000626704
0.000626704
0.000568147
0.000568147
0.000514664
0.000514664
0.000466373
0.000466373
0.000423325
0.000423325
0.000385486
0.000385486
0.000352728
0.000352728
0.000324823
0.000324823
0.000301445
0.000301445
0.00028219
0.00028219
0.000266596
0.000266597
0.000254179
0.000254179
0.000244456
0.000244456
0.000236972
0.000236972
0.000231319
0.000231319
0.00022714
0.00022714
0.000224135
0.000224135
0.000222053
0.000222053
0.000220691
0.000220691
0.000219884
0.000219884
0.000219497
0.000219497
0.000219425
0.000219425
0.000219579
0.000219579
0.000219889
0.000219889
0.000220296
0.000220296
0.000220751
0.000220751
0.000221216
0.000221216
0.000221655
0.000221655
0.00022204
0.00022204
0.000222348
0.000222348
0.000222558
0.000222558
0.000222657
0.000222657
0.000222632
0.000222632
0.000222477
0.000222477
0.00022219
0.00022219
0.000221774
0.000221774
0.000221236
0.000221236
0.000220592
0.000220592
0.000219863
0.000219863
0.000219075
0.000219075
0.000218264
0.000218264
0.00021747
0.00021747
0.00021674
0.00021674
0.000216123
0.000216123
0.000215669
0.000215669
0.000215424
0.000215424
5.91431e-07
5.91431e-07
1.07611e-07
1.07611e-07
1.84651e-07
1.84651e-07
6.14134e-07
6.14134e-07
1.63028e-06
1.63028e-06
3.57883e-06
3.57883e-06
6.89962e-06
6.89962e-06
1.21339e-05
1.21339e-05
1.99362e-05
1.99362e-05
3.10883e-05
3.10883e-05
4.65135e-05
4.65135e-05
6.72897e-05
6.72897e-05
9.46598e-05
9.46598e-05
0.000130037
0.000130037
0.000175
0.000175
0.000231276
0.000231276
0.000300698
0.000300698
0.000385151
0.000385151
0.000486469
0.000486469
0.000606324
0.000606324
0.000746074
0.000746074
0.000906612
0.000906612
0.00108822
0.00108822
0.00129045
0.00129045
0.0015121
0.0015121
0.00175119
0.00175119
0.00200511
0.00200511
0.00227072
0.00227072
0.00254463
0.00254463
0.00282331
0.00282331
0.00310335
0.00310335
0.00338154
0.00338154
0.00365504
0.00365504
0.00392139
0.00392139
0.00417854
0.00417854
0.00442484
0.00442484
0.00465901
0.00465901
0.00488013
0.00488013
0.00508751
0.00508751
0.00528074
0.00528074
0.00545959
0.00545959
0.00562401
0.00562401
0.00577403
0.00577403
0.00590983
0.00590983
0.00603163
0.00603163
0.00613971
0.00613971
0.00623442
0.00623442
0.00631612
0.00631612
0.00638518
0.00638518
0.006442
0.006442
0.00648701
0.00648701
0.00652062
0.00652062
0.00654325
0.00654325
0.00655531
0.00655531
0.00655724
0.00655724
0.00654946
0.00654946
0.00653239
0.00653239
0.00650643
0.00650643
0.00647202
0.00647202
0.00642955
0.00642955
0.00637943
0.00637943
0.00632206
0.00632206
0.00625784
0.00625784
0.00618715
0.00618715
0.00611039
0.00611039
0.00602792
0.00602792
0.00594012
0.00594012
0.00584736
0.00584736
0.00574999
0.00574999
0.00564836
0.00564836
0.00554281
0.00554281
0.00543368
0.00543368
0.00532128
0.00532128
0.00520594
0.00520594
0.00508797
0.00508797
0.00496764
0.00496764
0.00484527
0.00484527
0.00472111
0.00472111
0.00459543
0.00459543
0.0044685
0.0044685
0.00434056
0.00434056
0.00421185
0.00421185
0.00408258
0.00408258
0.00395298
0.00395298
0.00382325
0.00382325
0.00369358
0.00369358
0.00356417
0.00356417
0.00343519
0.00343519
0.0033068
0.0033068
0.00317917
0.00317917
0.00305244
0.00305244
0.00292677
0.00292677
0.00280228
0.00280228
0.00267912
0.00267912
0.0025574
0.0025574
0.00243724
0.00243724
0.00231878
0.00231878
0.00220212
0.00220212
0.00208738
0.00208738
0.00197467
0.00197467
0.00186412
0.00186412
0.00175585
0.00175585
0.00164998
0.00164998
0.00154665
0.00154665
0.00144601
0.00144601
0.00134819
0.00134819
0.00125338
0.00125338
0.00116174
0.00116174
0.00107347
0.00107347
0.000988778
0.000988778
0.00090787
0.00090787
0.000830978
0.000830978
0.000758332
0.000758332
0.000690167
0.000690167
0.000626704
0.000626704
0.000568147
0.000568147
0.000514664
0.000514664
0.000466373
0.000466373
0.000423325
0.000423325
0.000385486
0.000385486
0.000352729
0.000352729
0.000324823
0.000324823
0.000301445
0.000301445
0.00028219
0.00028219
0.000266597
0.000266597
0.000254179
0.000254179
0.000244456
0.000244456
0.000236972
0.000236972
0.000231319
0.000231319
0.00022714
0.00022714
0.000224135
0.000224135
0.000222053
0.000222053
0.000220691
0.000220691
0.000219884
0.000219884
0.000219497
0.000219497
0.000219425
0.000219425
0.000219579
0.000219579
0.000219889
0.000219889
0.000220296
0.000220296
0.000220751
0.000220751
0.000221216
0.000221216
0.000221655
0.000221655
0.00022204
0.00022204
0.000222348
0.000222348
0.000222558
0.000222558
0.000222657
0.000222657
0.000222632
0.000222632
0.000222477
0.000222477
0.00022219
0.00022219
0.000221774
0.000221774
0.000221236
0.000221236
0.000220592
0.000220592
0.000219863
0.000219863
0.000219075
0.000219075
0.000218264
0.000218264
0.00021747
0.00021747
0.00021674
0.00021674
0.000216123
0.000216123
0.000215669
0.000215669
0.000215424
0.000215424
0.000215425
0.000215425
0.00021567
0.00021567
0.000216124
0.000216124
0.000216742
0.000216742
0.000217473
0.000217473
0.000218268
0.000218268
0.000219079
0.000219079
0.000219867
0.000219867
0.000220597
0.000220597
0.000221241
0.000221241
0.000221779
0.000221779
0.000222195
0.000222195
0.000222483
0.000222483
0.000222638
0.000222638
0.000222663
0.000222663
0.000222564
0.000222564
0.000222353
0.000222353
0.000222046
0.000222046
0.00022166
0.00022166
0.000221221
0.000221221
0.000220757
0.000220757
0.000220301
0.000220301
0.000219894
0.000219894
0.000219584
0.000219584
0.00021943
0.00021943
0.000219502
0.000219502
0.000219888
0.000219888
0.000220695
0.000220695
0.000222057
0.000222057
0.000224138
0.000224138
0.000227143
0.000227143
0.000231321
0.000231321
0.000236974
0.000236974
0.000244457
0.000244457
0.00025418
0.00025418
0.000266596
0.000266596
0.000282188
0.000282188
0.000301443
0.000301443
0.00032482
0.00032482
0.000352725
0.000352725
0.000385482
0.000385482
0.00042332
0.00042332
0.000466368
0.000466368
0.000514659
0.000514659
0.000568142
0.000568142
0.000626699
0.000626699
0.000690162
0.000690162
0.000758327
0.000758327
0.000830973
0.000830973
0.000907866
0.000907866
0.000988774
0.000988774
0.00107347
0.00107347
0.00116174
0.00116174
0.00125338
0.00125338
0.00134819
0.00134819
0.001446
0.001446
0.00154665
0.00154665
0.00164998
0.00164998
0.00175585
0.00175585
0.00186412
0.00186412
0.00197467
0.00197467
0.00208737
0.00208737
0.00220211
0.00220211
0.00231878
0.00231878
0.00243724
0.00243724
0.00255739
0.00255739
0.00267911
0.00267911
0.00280228
0.00280228
0.00292676
0.00292676
0.00305244
0.00305244
0.00317916
0.00317916
0.0033068
0.0033068
0.00343518
0.00343518
0.00356417
0.00356417
0.00369358
0.00369358
0.00382325
0.00382325
0.00395298
0.00395298
0.00408258
0.00408258
0.00421184
0.00421184
0.00434056
0.00434056
0.0044685
0.0044685
0.00459543
0.00459543
0.0047211
0.0047211
0.00484526
0.00484526
0.00496764
0.00496764
0.00508796
0.00508796
0.00520594
0.00520594
0.00532128
0.00532128
0.00543368
0.00543368
0.00554281
0.00554281
0.00564836
0.00564836
0.00574999
0.00574999
0.00584736
0.00584736
0.00594012
0.00594012
0.00602792
0.00602792
0.00611039
0.00611039
0.00618715
0.00618715
0.00625784
0.00625784
0.00632206
0.00632206
0.00637943
0.00637943
0.00642955
0.00642955
0.00647202
0.00647202
0.00650644
0.00650644
0.00653239
0.00653239
0.00654947
0.00654947
0.00655725
0.00655725
0.00655532
0.00655532
0.00654325
0.00654325
0.00652063
0.00652063
0.00648702
0.00648702
0.00644201
0.00644201
0.00638518
0.00638518
0.00631613
0.00631613
0.00623443
0.00623443
0.00613973
0.00613973
0.00603164
0.00603164
0.00590984
0.00590984
0.00577404
0.00577404
0.00562402
0.00562402
0.00545961
0.00545961
0.00528075
0.00528075
0.00508752
0.00508752
0.00488014
0.00488014
0.00465903
0.00465903
0.00442485
0.00442485
0.00417855
0.00417855
0.0039214
0.0039214
0.00365506
0.00365506
0.00338155
0.00338155
0.00310336
0.00310336
0.00282333
0.00282333
0.00254464
0.00254464
0.00227074
0.00227074
0.00200512
0.00200512
0.0017512
0.0017512
0.00151211
0.00151211
0.00129046
0.00129046
0.00108823
0.00108823
0.000906618
0.000906618
0.000746079
0.000746079
0.000606328
0.000606328
0.000486473
0.000486473
0.000385154
0.000385154
0.000300701
0.000300701
0.000231277
0.000231277
0.000175002
0.000175002
0.000130038
0.000130038
9.46606e-05
9.46606e-05
6.72902e-05
6.72902e-05
4.65139e-05
4.65139e-05
3.10886e-05
3.10886e-05
1.99363e-05
1.99363e-05
1.2134e-05
1.2134e-05
6.89969e-06
6.89969e-06
3.57886e-06
3.57886e-06
1.63029e-06
1.63029e-06
6.1414e-07
6.1414e-07
1.84652e-07
1.84652e-07
1.07612e-07
1.07612e-07
5.91435e-07
5.91435e-07
0.000215425
0.000215425
0.00021567
0.00021567
0.000216124
0.000216124
0.000216742
0.000216742
0.000217473
0.000217473
0.000218268
0.000218268
0.000219079
0.000219079
0.000219867
0.000219867
0.000220597
0.000220597
0.000221241
0.000221241
0.000221779
0.000221779
0.000222195
0.000222195
0.000222483
0.000222483
0.000222638
0.000222638
0.000222663
0.000222663
0.000222564
0.000222564
0.000222353
0.000222353
0.000222046
0.000222046
0.00022166
0.00022166
0.000221221
0.000221221
0.000220757
0.000220757
0.000220301
0.000220301
0.000219894
0.000219894
0.000219584
0.000219584
0.00021943
0.00021943
0.000219502
0.000219502
0.000219888
0.000219888
0.000220695
0.000220695
0.000222057
0.000222057
0.000224138
0.000224138
0.000227143
0.000227143
0.000231321
0.000231322
0.000236974
0.000236974
0.000244457
0.000244457
0.00025418
0.00025418
0.000266596
0.000266596
0.000282189
0.000282189
0.000301443
0.000301443
0.00032482
0.00032482
0.000352725
0.000352725
0.000385482
0.000385482
0.00042332
0.00042332
0.000466368
0.000466368
0.000514659
0.000514659
0.000568142
0.000568142
0.000626699
0.000626699
0.000690162
0.000690162
0.000758328
0.000758328
0.000830973
0.000830973
0.000907866
0.000907866
0.000988775
0.000988775
0.00107347
0.00107347
0.00116174
0.00116174
0.00125338
0.00125338
0.00134819
0.00134819
0.001446
0.001446
0.00154665
0.00154665
0.00164998
0.00164998
0.00175585
0.00175585
0.00186412
0.00186412
0.00197467
0.00197467
0.00208737
0.00208737
0.00220212
0.00220212
0.00231878
0.00231878
0.00243724
0.00243724
0.00255739
0.00255739
0.00267911
0.00267911
0.00280228
0.00280228
0.00292676
0.00292676
0.00305244
0.00305244
0.00317916
0.00317916
0.0033068
0.0033068
0.00343518
0.00343518
0.00356417
0.00356417
0.00369358
0.00369358
0.00382325
0.00382325
0.00395298
0.00395298
0.00408258
0.00408258
0.00421184
0.00421184
0.00434056
0.00434056
0.0044685
0.0044685
0.00459543
0.00459543
0.0047211
0.0047211
0.00484526
0.00484526
0.00496764
0.00496764
0.00508796
0.00508796
0.00520594
0.00520594
0.00532128
0.00532128
0.00543368
0.00543368
0.00554281
0.00554281
0.00564836
0.00564836
0.00574999
0.00574999
0.00584736
0.00584736
0.00594012
0.00594012
0.00602792
0.00602792
0.00611039
0.00611039
0.00618715
0.00618715
0.00625784
0.00625784
0.00632206
0.00632206
0.00637943
0.00637943
0.00642955
0.00642955
0.00647202
0.00647202
0.00650644
0.00650644
0.00653239
0.00653239
0.00654947
0.00654947
0.00655725
0.00655725
0.00655532
0.00655532
0.00654325
0.00654325
0.00652063
0.00652063
0.00648702
0.00648702
0.00644201
0.00644201
0.00638518
0.00638518
0.00631613
0.00631613
0.00623443
0.00623443
0.00613973
0.00613973
0.00603164
0.00603164
0.00590984
0.00590984
0.00577404
0.00577404
0.00562402
0.00562402
0.00545961
0.00545961
0.00528075
0.00528075
0.00508752
0.00508752
0.00488014
0.00488014
0.00465903
0.00465903
0.00442485
0.00442485
0.00417855
0.00417855
0.0039214
0.0039214
0.00365506
0.00365506
0.00338155
0.00338155
0.00310336
0.00310336
0.00282333
0.00282333
0.00254464
0.00254464
0.00227074
0.00227074
0.00200512
0.00200512
0.0017512
0.0017512
0.00151211
0.00151211
0.00129046
0.00129046
0.00108823
0.00108823
0.000906618
0.000906618
0.000746079
0.000746079
0.000606328
0.000606328
0.000486473
0.000486473
0.000385154
0.000385154
0.000300701
0.000300701
0.000231277
0.000231277
0.000175002
0.000175002
0.000130038
0.000130038
9.46606e-05
9.46606e-05
6.72902e-05
6.72902e-05
4.65139e-05
4.65139e-05
3.10886e-05
3.10886e-05
1.99363e-05
1.99363e-05
1.2134e-05
1.2134e-05
6.89969e-06
6.89969e-06
3.57886e-06
3.57886e-06
1.63029e-06
1.63029e-06
6.1414e-07
6.1414e-07
1.84652e-07
1.84652e-07
1.07612e-07
1.07612e-07
5.91435e-07
5.91435e-07
)
;

boundaryField
{
    walls
    {
        type            kqRWallFunction;
        value           nonuniform List<scalar> 8(5.91431e-07 5.91431e-07 5.91431e-07 5.91431e-07 5.91435e-07 5.91435e-07 5.91435e-07 5.91435e-07);
    }
    inlet
    {
        type            cyclic;
    }
    outlet
    {
        type            cyclic;
    }
    sides
    {
        type            empty;
    }
}


// ************************************************************************* //
