/*--------------------------------*- C++ -*----------------------------------*\
| =========                 |                                                 |
| \\      /  F ield         | OpenFOAM: The Open Source CFD Toolbox           |
|  \\    /   O peration     | Version:  2012                                  |
|   \\  /    A nd           | Website:  www.openfoam.com                      |
|    \\/     M anipulation  |                                                 |
\*---------------------------------------------------------------------------*/
FoamFile
{
    version     2.0;
    format      ascii;
    class       volScalarField;
    location    "1000";
    object      omega;
}
// * * * * * * * * * * * * * * * * * * * * * * * * * * * * * * * * * * * * * //

dimensions      [0 0 -1 0 0 0 0];


internalField   nonuniform List<scalar> 
1280
(
363430
363430
62686.4
62686.4
20959.2
20959.2
9734.62
9734.62
5432.52
5432.52
3396.96
3396.96
2292.69
2292.69
1634.07
1634.07
1213.15
1213.15
929.689
929.689
730.869
730.869
586.814
586.814
479.656
479.656
398.202
398.202
335.161
335.161
285.625
285.625
246.195
246.195
214.454
214.454
188.644
188.644
167.464
167.464
149.929
149.929
135.285
135.285
122.947
122.947
112.456
112.456
103.451
103.451
95.6462
95.6462
88.8162
88.8162
82.783
82.783
77.4065
77.4065
72.5764
72.5764
68.2059
68.2059
64.2266
64.2266
60.5839
60.5839
57.2343
57.2343
54.1424
54.1424
51.279
51.279
48.6199
48.6199
46.1445
46.1445
43.8352
43.8352
41.6767
41.6767
39.6558
39.6558
37.7604
37.7604
35.9802
35.9802
34.3057
34.3057
32.7285
32.7285
31.2409
31.2409
29.836
29.836
28.5077
28.5077
27.2502
27.2502
26.0585
26.0585
24.9279
24.9279
23.8541
23.8541
22.8332
22.8332
21.8617
21.8617
20.9365
20.9365
20.0545
20.0545
19.213
19.213
18.4096
18.4096
17.6421
17.6421
16.9082
16.9082
16.2061
16.2061
15.5341
15.5341
14.8905
14.8905
14.2738
14.2738
13.6826
13.6826
13.1156
13.1156
12.5716
12.5716
12.0495
12.0495
11.5483
11.5483
11.0669
11.0669
10.6045
10.6045
10.1601
10.1601
9.73307
9.73307
9.32254
9.32254
8.92781
8.92781
8.54821
8.54821
8.18308
8.18308
7.83182
7.83182
7.49384
7.49384
7.16858
7.16858
6.8555
6.8555
6.55411
6.55411
6.2639
6.2639
5.98441
5.98441
5.71518
5.71518
5.45578
5.45578
5.20579
5.20579
4.9648
4.9648
4.73241
4.73241
4.50826
4.50826
4.29197
4.29197
4.0832
4.0832
3.88159
3.88159
3.68683
3.68683
3.49859
3.49859
3.31657
3.31657
3.14049
3.14049
2.97008
2.97008
2.80506
2.80506
2.64521
2.64521
2.49031
2.49031
2.34015
2.34015
2.19457
2.19457
2.05342
2.05342
1.91657
1.91657
1.78396
1.78396
1.65553
1.65553
1.53129
1.53129
1.41126
1.41126
1.29555
1.29555
1.18427
1.18427
1.07761
1.07761
0.975797
0.975797
0.879079
0.879079
0.787744
0.787744
0.702089
0.702089
0.622399
0.622399
0.548928
0.548928
0.481868
0.481868
0.421321
0.421321
0.367275
0.367275
0.319586
0.319586
0.277975
0.277975
0.242041
0.242041
0.211286
0.211286
0.185151
0.185151
0.163055
0.163055
0.144429
0.144429
0.128745
0.128745
0.115528
0.115528
0.104368
0.104368
0.0949119
0.0949119
0.0868684
0.0868684
0.0799946
0.0799946
0.0740915
0.0740915
0.0689961
0.0689961
0.0645753
0.0645753
0.0607202
0.0607202
0.0573417
0.0573417
0.0543667
0.0543667
0.0517347
0.0517347
0.0493959
0.0493959
0.0473091
0.0473091
0.04544
0.04544
0.0437599
0.0437599
0.0422452
0.0422452
0.0408762
0.0408762
0.0396365
0.0396365
0.0385129
0.0385129
0.0374948
0.0374948
0.0365737
0.0365737
0.0357435
0.0357435
0.0349998
0.0349998
0.0343404
0.0343404
0.0337645
0.0337645
0.0332732
0.0332732
0.0328692
0.0328692
0.0325567
0.0325567
0.0323412
0.0323412
0.0322295
0.0322295
363430
363430
62686.4
62686.4
20959.2
20959.2
9734.62
9734.62
5432.52
5432.52
3396.96
3396.96
2292.69
2292.69
1634.07
1634.07
1213.15
1213.15
929.689
929.689
730.869
730.869
586.814
586.814
479.656
479.656
398.202
398.202
335.161
335.161
285.625
285.625
246.195
246.195
214.454
214.454
188.644
188.644
167.464
167.464
149.929
149.929
135.285
135.285
122.947
122.947
112.456
112.456
103.451
103.451
95.6462
95.6462
88.8162
88.8162
82.783
82.783
77.4065
77.4065
72.5764
72.5764
68.2059
68.2059
64.2266
64.2266
60.5839
60.5839
57.2343
57.2343
54.1424
54.1424
51.279
51.279
48.6199
48.6199
46.1445
46.1445
43.8352
43.8352
41.6767
41.6767
39.6558
39.6558
37.7604
37.7604
35.9802
35.9802
34.3057
34.3057
32.7285
32.7285
31.2409
31.2409
29.836
29.836
28.5077
28.5077
27.2502
27.2502
26.0585
26.0585
24.9279
24.9279
23.8541
23.8541
22.8332
22.8332
21.8617
21.8617
20.9365
20.9365
20.0545
20.0545
19.213
19.213
18.4096
18.4096
17.6421
17.6421
16.9082
16.9082
16.2061
16.2061
15.5341
15.5341
14.8905
14.8905
14.2738
14.2738
13.6826
13.6826
13.1156
13.1156
12.5716
12.5716
12.0495
12.0495
11.5483
11.5483
11.0669
11.0669
10.6045
10.6045
10.1601
10.1601
9.73307
9.73307
9.32254
9.32254
8.92781
8.92781
8.54821
8.54821
8.18308
8.18308
7.83182
7.83182
7.49384
7.49384
7.16858
7.16858
6.8555
6.8555
6.55411
6.55411
6.2639
6.2639
5.98441
5.98441
5.71518
5.71518
5.45578
5.45578
5.20579
5.20579
4.9648
4.9648
4.73241
4.73241
4.50826
4.50826
4.29197
4.29197
4.0832
4.0832
3.88159
3.88159
3.68683
3.68683
3.49859
3.49859
3.31657
3.31657
3.14049
3.14049
2.97008
2.97008
2.80506
2.80506
2.64521
2.64521
2.49031
2.49031
2.34015
2.34015
2.19457
2.19457
2.05342
2.05342
1.91657
1.91657
1.78396
1.78396
1.65553
1.65553
1.53129
1.53129
1.41127
1.41127
1.29555
1.29555
1.18427
1.18427
1.07761
1.07761
0.975797
0.975797
0.879079
0.879079
0.787745
0.787745
0.702089
0.702089
0.622399
0.622399
0.548929
0.548929
0.481869
0.481869
0.421322
0.421322
0.367275
0.367276
0.319586
0.319586
0.277975
0.277975
0.242042
0.242042
0.211287
0.211287
0.185151
0.185151
0.163055
0.163055
0.144429
0.144429
0.128745
0.128745
0.115528
0.115529
0.104368
0.104368
0.094912
0.094912
0.0868685
0.0868685
0.0799947
0.0799947
0.0740915
0.0740915
0.0689961
0.0689961
0.0645753
0.0645753
0.0607202
0.0607202
0.0573418
0.0573418
0.0543667
0.0543667
0.0517347
0.0517347
0.0493959
0.0493959
0.0473091
0.0473091
0.04544
0.04544
0.0437599
0.0437599
0.0422452
0.0422452
0.0408762
0.0408762
0.0396365
0.0396365
0.0385129
0.0385129
0.0374948
0.0374948
0.0365737
0.0365737
0.0357435
0.0357435
0.0349998
0.0349998
0.0343404
0.0343404
0.0337645
0.0337645
0.0332732
0.0332732
0.0328692
0.0328692
0.0325567
0.0325567
0.0323412
0.0323412
0.0322295
0.0322295
0.0322295
0.0322295
0.0323412
0.0323412
0.0325567
0.0325567
0.0328692
0.0328692
0.0332732
0.0332732
0.0337645
0.0337645
0.0343404
0.0343404
0.0349998
0.0349998
0.0357434
0.0357435
0.0365737
0.0365737
0.0374947
0.0374947
0.0385128
0.0385128
0.0396363
0.0396363
0.040876
0.040876
0.0422449
0.0422449
0.0437596
0.0437596
0.0454395
0.0454395
0.0473086
0.0473086
0.0493953
0.0493953
0.0517339
0.0517339
0.0543657
0.0543657
0.0573406
0.0573406
0.0607189
0.0607189
0.0645737
0.0645737
0.0689942
0.0689942
0.0740893
0.0740893
0.079992
0.079992
0.0868653
0.0868653
0.0949083
0.0949083
0.104363
0.104363
0.115523
0.115524
0.128739
0.128739
0.144422
0.144422
0.163047
0.163047
0.185143
0.185143
0.211277
0.211277
0.242031
0.242031
0.277964
0.277964
0.319574
0.319574
0.367262
0.367263
0.421308
0.421309
0.481855
0.481855
0.548915
0.548916
0.622387
0.622387
0.702077
0.702077
0.787733
0.787733
0.879069
0.879069
0.975787
0.975788
1.07761
1.07761
1.18426
1.18426
1.29554
1.29554
1.41126
1.41126
1.53128
1.53128
1.65553
1.65553
1.78396
1.78396
1.91657
1.91657
2.05341
2.05341
2.19457
2.19457
2.34015
2.34015
2.4903
2.4903
2.64521
2.64521
2.80505
2.80505
2.97007
2.97007
3.14049
3.14049
3.31656
3.31656
3.49858
3.49858
3.68682
3.68682
3.88158
3.88158
4.08319
4.08319
4.29196
4.29196
4.50825
4.50825
4.7324
4.7324
4.96478
4.96478
5.20577
5.20577
5.45577
5.45577
5.71517
5.71517
5.98439
5.98439
6.26388
6.26388
6.55409
6.55409
6.85549
6.85549
7.16856
7.16856
7.49382
7.49382
7.8318
7.8318
8.18306
8.18306
8.54819
8.54819
8.92779
8.92779
9.32252
9.32252
9.73305
9.73305
10.1601
10.1601
10.6044
10.6044
11.0669
11.0669
11.5483
11.5483
12.0495
12.0495
12.5716
12.5716
13.1156
13.1156
13.6826
13.6826
14.2738
14.2738
14.8905
14.8905
15.5341
15.5341
16.2061
16.2061
16.9082
16.9082
17.642
17.642
18.4096
18.4096
19.213
19.213
20.0545
20.0545
20.9365
20.9365
21.8617
21.8617
22.8332
22.8332
23.854
23.854
24.9279
24.9279
26.0585
26.0585
27.2502
27.2502
28.5077
28.5077
29.836
29.836
31.2409
31.2409
32.7285
32.7285
34.3057
34.3057
35.9802
35.9802
37.7604
37.7604
39.6558
39.6558
41.6767
41.6767
43.8352
43.8352
46.1445
46.1445
48.6199
48.6199
51.279
51.279
54.1424
54.1424
57.2343
57.2343
60.5839
60.5839
64.2266
64.2266
68.2059
68.2059
72.5764
72.5764
77.4065
77.4065
82.7831
82.7831
88.8163
88.8163
95.6463
95.6463
103.451
103.451
112.456
112.456
122.947
122.947
135.285
135.285
149.929
149.929
167.464
167.464
188.644
188.644
214.454
214.454
246.195
246.195
285.625
285.625
335.161
335.161
398.202
398.202
479.656
479.656
586.814
586.814
730.869
730.869
929.689
929.689
1213.15
1213.15
1634.07
1634.07
2292.69
2292.69
3396.96
3396.96
5432.52
5432.52
9734.62
9734.62
20959.2
20959.2
62686.3
62686.3
363429
363429
0.0322296
0.0322296
0.0323412
0.0323412
0.0325567
0.0325567
0.0328692
0.0328692
0.0332732
0.0332732
0.0337645
0.0337645
0.0343404
0.0343404
0.0349998
0.0349998
0.0357435
0.0357435
0.0365737
0.0365737
0.0374947
0.0374947
0.0385128
0.0385128
0.0396364
0.0396364
0.040876
0.040876
0.042245
0.042245
0.0437596
0.0437596
0.0454396
0.0454396
0.0473086
0.0473086
0.0493953
0.0493953
0.0517339
0.0517339
0.0543657
0.0543657
0.0573406
0.0573406
0.0607189
0.0607189
0.0645737
0.0645737
0.0689942
0.0689942
0.0740893
0.0740893
0.0799921
0.0799921
0.0868654
0.0868654
0.0949084
0.0949084
0.104363
0.104363
0.115524
0.115524
0.128739
0.128739
0.144422
0.144422
0.163047
0.163047
0.185143
0.185143
0.211277
0.211277
0.242031
0.242031
0.277964
0.277964
0.319574
0.319574
0.367263
0.367263
0.421309
0.421309
0.481856
0.481856
0.548916
0.548916
0.622387
0.622387
0.702077
0.702078
0.787734
0.787734
0.879069
0.879069
0.975788
0.975788
1.07761
1.07761
1.18426
1.18426
1.29554
1.29554
1.41126
1.41126
1.53128
1.53128
1.65553
1.65553
1.78396
1.78396
1.91657
1.91657
2.05341
2.05341
2.19457
2.19457
2.34015
2.34015
2.4903
2.4903
2.64521
2.64521
2.80506
2.80506
2.97007
2.97007
3.14049
3.14049
3.31656
3.31656
3.49858
3.49858
3.68682
3.68682
3.88158
3.88158
4.08319
4.08319
4.29196
4.29196
4.50825
4.50825
4.7324
4.7324
4.96478
4.96478
5.20577
5.20577
5.45577
5.45577
5.71517
5.71517
5.98439
5.98439
6.26388
6.26388
6.55409
6.55409
6.85549
6.85549
7.16856
7.16856
7.49382
7.49382
7.8318
7.8318
8.18306
8.18306
8.54819
8.54819
8.92779
8.92779
9.32252
9.32252
9.73305
9.73305
10.1601
10.1601
10.6044
10.6044
11.0669
11.0669
11.5483
11.5483
12.0495
12.0495
12.5716
12.5716
13.1156
13.1156
13.6826
13.6826
14.2738
14.2738
14.8905
14.8905
15.5341
15.5341
16.2061
16.2061
16.9082
16.9082
17.642
17.642
18.4096
18.4096
19.213
19.213
20.0545
20.0545
20.9365
20.9365
21.8617
21.8617
22.8332
22.8332
23.854
23.854
24.9279
24.9279
26.0585
26.0585
27.2502
27.2502
28.5077
28.5077
29.836
29.836
31.2409
31.2409
32.7285
32.7285
34.3057
34.3057
35.9802
35.9802
37.7604
37.7604
39.6558
39.6558
41.6767
41.6767
43.8352
43.8352
46.1445
46.1445
48.6199
48.6199
51.279
51.279
54.1424
54.1424
57.2343
57.2343
60.5839
60.5839
64.2266
64.2266
68.2059
68.2059
72.5764
72.5764
77.4065
77.4065
82.7831
82.7831
88.8163
88.8163
95.6463
95.6463
103.451
103.451
112.456
112.456
122.947
122.947
135.285
135.285
149.929
149.929
167.464
167.464
188.644
188.644
214.454
214.454
246.195
246.195
285.625
285.625
335.161
335.161
398.202
398.202
479.656
479.656
586.814
586.814
730.869
730.869
929.689
929.689
1213.15
1213.15
1634.07
1634.07
2292.69
2292.69
3396.96
3396.96
5432.52
5432.52
9734.62
9734.62
20959.2
20959.2
62686.3
62686.3
363429
363429
)
;

boundaryField
{
    walls
    {
        blending        binomial2;
        n               2;
        beta1           0.075;
        type            omegaWallFunction;
        value           nonuniform List<scalar> 8(363430 363430 363430 363430 363429 363429 363429 363429);
    }
    inlet
    {
        type            cyclic;
    }
    outlet
    {
        type            cyclic;
    }
    sides
    {
        type            empty;
    }
}


// ************************************************************************* //
