/*--------------------------------*- C++ -*----------------------------------*\
| =========                 |                                                 |
| \\      /  F ield         | OpenFOAM: The Open Source CFD Toolbox           |
|  \\    /   O peration     | Version:  2012                                  |
|   \\  /    A nd           | Website:  www.openfoam.com                      |
|    \\/     M anipulation  |                                                 |
\*---------------------------------------------------------------------------*/
FoamFile
{
    version     2.0;
    format      ascii;
    class       surfaceScalarField;
    location    "3000";
    object      phi;
}
// * * * * * * * * * * * * * * * * * * * * * * * * * * * * * * * * * * * * * //

dimensions      [0 3 -1 0 0 0 0];
oriented        oriented;


internalField   nonuniform List<scalar> 
5116
(
1.42081e-07
-7.62966e-18
-1.98942e-21
-4.26303e-21
-4.32618e-23
4.34508e-07
-7.60551e-18
-8.64077e-21
-1.80535e-20
-1.7724e-21
7.3958e-07
-7.58043e-18
-8.98344e-21
-3.2124e-20
-1.84658e-21
1.05717e-06
-7.55444e-18
-9.30536e-21
-4.69282e-20
-1.91583e-21
1.38564e-06
-7.52803e-18
-9.5302e-21
-6.17365e-20
-1.96573e-21
1.72031e-06
-7.50159e-18
-9.55714e-21
-7.70143e-20
-1.97508e-21
2.05308e-06
-7.47595e-18
-9.31187e-21
-9.14555e-20
-1.92809e-21
2.37474e-06
-7.45145e-18
-8.81219e-21
-1.05215e-19
-1.82819e-21
2.67853e-06
-7.429e-18
-8.15983e-21
-1.17975e-19
-1.69631e-21
2.96174e-06
-7.4078e-18
-7.46946e-21
-1.29937e-19
-1.55616e-21
3.22491e-06
-7.38874e-18
-6.8179e-21
-1.40471e-19
-1.42372e-21
3.47026e-06
-7.3718e-18
-6.2394e-21
-1.50169e-19
-1.30617e-21
3.7005e-06
-7.35588e-18
-5.74112e-21
-1.59264e-19
-1.20507e-21
3.91822e-06
-7.3409e-18
-5.31757e-21
-1.67311e-19
-1.11935e-21
4.12572e-06
-7.32682e-18
-4.95891e-21
-1.75e-19
-1.04702e-21
4.3249e-06
-7.31456e-18
-4.65489e-21
-1.81214e-19
-9.85972e-22
4.51737e-06
-7.3023e-18
-4.39627e-21
-1.88222e-19
-9.34333e-22
4.70443e-06
-7.29086e-18
-4.17529e-21
-1.94437e-19
-8.90509e-22
4.88715e-06
-7.28234e-18
-3.98552e-21
-1.99497e-19
-8.53199e-22
5.06643e-06
-7.27041e-18
-3.82172e-21
-2.06395e-19
-8.21329e-22
5.24301e-06
-7.26021e-18
-3.67974e-21
-2.11773e-19
-7.94031e-22
5.41752e-06
-7.2501e-18
-3.55615e-21
-2.17407e-19
-7.70615e-22
5.59048e-06
-7.24344e-18
-3.4482e-21
-2.22275e-19
-7.5048e-22
5.76236e-06
-7.23281e-18
-3.35354e-21
-2.28911e-19
-7.33177e-22
5.93353e-06
-7.22394e-18
-3.27041e-21
-2.33202e-19
-7.18274e-22
6.10434e-06
-7.21595e-18
-3.19722e-21
-2.37617e-19
-7.05522e-22
6.27509e-06
-7.20948e-18
-3.13265e-21
-2.42549e-19
-6.94646e-22
6.44603e-06
-7.20251e-18
-3.07563e-21
-2.46521e-19
-6.85414e-22
6.6174e-06
-7.19473e-18
-3.02524e-21
-2.50327e-19
-6.77648e-22
6.78941e-06
-7.18732e-18
-2.98071e-21
-2.5439e-19
-6.71204e-22
6.96224e-06
-7.17985e-18
-2.94138e-21
-2.57893e-19
-6.65946e-22
7.13607e-06
-7.17272e-18
-2.90668e-21
-2.61845e-19
-6.61776e-22
7.31104e-06
-7.1651e-18
-2.87611e-21
-2.66267e-19
-6.58612e-22
7.48731e-06
-7.15837e-18
-2.84928e-21
-2.69797e-19
-6.56302e-22
7.665e-06
-7.14814e-18
-2.8258e-21
-2.76567e-19
-6.54778e-22
7.84423e-06
-7.13951e-18
-2.8055e-21
-2.81336e-19
-6.53902e-22
8.02513e-06
-7.13137e-18
-2.78805e-21
-2.86089e-19
-6.53669e-22
8.20779e-06
-7.12183e-18
-2.77321e-21
-2.91381e-19
-6.53997e-22
8.39233e-06
-7.11402e-18
-2.76077e-21
-2.95122e-19
-6.54758e-22
8.57884e-06
-7.10552e-18
-2.75058e-21
-2.99239e-19
-6.55971e-22
8.7674e-06
-7.09621e-18
-2.74246e-21
-3.03299e-19
-6.57608e-22
8.95811e-06
-7.08971e-18
-2.73624e-21
-3.06864e-19
-6.59645e-22
9.15106e-06
-7.08132e-18
-2.7317e-21
-3.10331e-19
-6.6204e-22
9.34631e-06
-7.07222e-18
-2.72883e-21
-3.15032e-19
-6.64823e-22
9.54397e-06
-7.06556e-18
-2.72748e-21
-3.18539e-19
-6.67945e-22
9.74409e-06
-7.05662e-18
-2.72746e-21
-3.23599e-19
-6.71368e-22
9.94676e-06
-7.04798e-18
-2.72882e-21
-3.28918e-19
-6.74978e-22
1.01521e-05
-7.03951e-18
-2.73142e-21
-3.33228e-19
-6.78744e-22
1.036e-05
-7.02992e-18
-2.73523e-21
-3.38813e-19
-6.82659e-22
1.05708e-05
-7.0224e-18
-2.74015e-21
-3.44887e-19
-6.8663e-22
1.07844e-05
-7.01564e-18
-2.74604e-21
-3.46406e-19
-6.9063e-22
1.10008e-05
-7.00793e-18
-2.75284e-21
-3.50048e-19
-6.94824e-22
1.12203e-05
-7.0022e-18
-2.76045e-21
-3.52498e-19
-6.99109e-22
1.14428e-05
-6.99387e-18
-2.76875e-21
-3.55651e-19
-7.03462e-22
1.16684e-05
-6.98887e-18
-2.77772e-21
-3.56986e-19
-7.07857e-22
1.18971e-05
-6.98286e-18
-2.78732e-21
-3.59178e-19
-7.12387e-22
1.21291e-05
-6.97724e-18
-2.79756e-21
-3.6311e-19
-7.16921e-22
1.23644e-05
-6.9739e-18
-2.80843e-21
-3.6344e-19
-7.21441e-22
1.26031e-05
-6.96463e-18
-2.8197e-21
-3.66823e-19
-7.26049e-22
1.28452e-05
-6.95824e-18
-2.83163e-21
-3.69762e-19
-7.30487e-22
1.30908e-05
-6.95207e-18
-2.84395e-21
-3.73175e-19
-7.34839e-22
1.334e-05
-6.94499e-18
-2.85655e-21
-3.76622e-19
-7.39078e-22
1.35929e-05
-6.93824e-18
-2.86923e-21
-3.78471e-19
-7.43494e-22
1.38494e-05
-6.92926e-18
-2.88233e-21
-3.82814e-19
-7.47797e-22
1.41097e-05
-6.92163e-18
-2.89577e-21
-3.83037e-19
-7.52184e-22
1.43738e-05
-6.91483e-18
-2.90955e-21
-3.8342e-19
-7.56793e-22
1.46418e-05
-6.90763e-18
-2.92364e-21
-3.88049e-19
-7.61416e-22
1.49139e-05
-6.90033e-18
-2.93786e-21
-3.92074e-19
-7.6596e-22
1.51899e-05
-6.89376e-18
-2.95235e-21
-3.93331e-19
-7.70284e-22
1.54701e-05
-6.88237e-18
-2.96717e-21
-4.01816e-19
-7.74395e-22
1.57544e-05
-6.86846e-18
-2.9828e-21
-4.11795e-19
-7.77813e-22
1.6043e-05
-6.85762e-18
-2.99923e-21
-4.21245e-19
-7.80906e-22
1.63359e-05
-6.85147e-18
-3.01633e-21
-4.21105e-19
-7.83409e-22
1.66333e-05
-6.8457e-18
-3.03353e-21
-4.2089e-19
-7.86032e-22
1.6935e-05
-6.8425e-18
-3.0508e-21
-4.22763e-19
-7.88634e-22
1.72414e-05
-6.83664e-18
-3.06792e-21
-4.23177e-19
-7.90885e-22
1.75523e-05
-6.83236e-18
-3.0852e-21
-4.23772e-19
-7.92976e-22
1.78679e-05
-6.82646e-18
-3.1023e-21
-4.23144e-19
-7.94889e-22
1.81883e-05
-6.82359e-18
-3.11925e-21
-4.23687e-19
-7.96523e-22
1.85135e-05
-6.81623e-18
-3.13592e-21
-4.2444e-19
-7.97737e-22
1.88436e-05
-6.80954e-18
-3.15301e-21
-4.22637e-19
-7.98122e-22
1.91788e-05
-6.80765e-18
-3.17018e-21
-4.23919e-19
-7.98545e-22
1.9519e-05
-6.79597e-18
-3.18656e-21
-4.28468e-19
-7.98737e-22
1.98643e-05
-6.78891e-18
-3.20297e-21
-4.2834e-19
-7.98055e-22
2.02149e-05
-6.77967e-18
-3.21875e-21
-4.31677e-19
-7.97001e-22
2.05708e-05
-6.77124e-18
-3.23479e-21
-4.35368e-19
-7.94852e-22
2.0932e-05
-6.76287e-18
-3.25048e-21
-4.35663e-19
-7.9206e-22
2.12988e-05
-6.75281e-18
-3.26535e-21
-4.3843e-19
-7.8917e-22
2.16711e-05
-6.74558e-18
-3.27899e-21
-4.43543e-19
-7.85788e-22
2.20491e-05
-6.73566e-18
-3.29175e-21
-4.46501e-19
-7.81581e-22
2.24328e-05
-6.72331e-18
-3.30341e-21
-4.51897e-19
-7.76832e-22
2.28223e-05
-6.71622e-18
-3.31407e-21
-4.53926e-19
-7.71506e-22
2.32177e-05
-6.70862e-18
-3.32352e-21
-4.59389e-19
-7.65728e-22
2.36191e-05
-6.69967e-18
-3.33169e-21
-4.62491e-19
-7.59183e-22
2.40266e-05
-6.69158e-18
-3.33893e-21
-4.66112e-19
-7.52764e-22
2.44403e-05
-6.67841e-18
-3.34573e-21
-4.71897e-19
-7.45929e-22
2.48603e-05
-6.66341e-18
-3.35197e-21
-4.77963e-19
-7.38116e-22
2.52866e-05
-6.64397e-18
-3.35807e-21
-4.88958e-19
-7.28835e-22
2.57194e-05
-6.6317e-18
-3.36498e-21
-4.98258e-19
-7.17253e-22
2.61587e-05
-6.61567e-18
-3.37222e-21
-5.04768e-19
-7.04224e-22
2.66047e-05
-6.60083e-18
-3.38058e-21
-5.14926e-19
-6.89494e-22
2.70574e-05
-6.58029e-18
-3.38879e-21
-5.22193e-19
-6.7278e-22
2.75171e-05
-6.57014e-18
-3.39943e-21
-5.25662e-19
-6.53663e-22
2.79836e-05
-6.56588e-18
-3.41038e-21
-5.25946e-19
-6.32516e-22
2.84573e-05
-6.55713e-18
-3.41914e-21
-5.31718e-19
-6.10455e-22
2.8938e-05
-6.5469e-18
-3.42855e-21
-5.35951e-19
-5.86086e-22
2.94261e-05
-6.539e-18
-3.43728e-21
-5.40843e-19
-5.60457e-22
2.99216e-05
-6.53163e-18
-3.44564e-21
-5.48121e-19
-5.33816e-22
3.04245e-05
-6.51939e-18
-3.45384e-21
-5.58334e-19
-5.05609e-22
3.0935e-05
-6.50727e-18
-3.46258e-21
-5.54902e-19
-4.7528e-22
3.14532e-05
-6.49831e-18
-3.47111e-21
-5.60242e-19
-4.44532e-22
3.19793e-05
-6.48525e-18
-3.48101e-21
-5.67e-19
-4.1142e-22
3.25133e-05
-6.4757e-18
-3.4919e-21
-5.70957e-19
-3.75783e-22
3.30554e-05
-6.46873e-18
-3.50305e-21
-5.69457e-19
-3.38784e-22
3.36056e-05
-6.44952e-18
-3.51287e-21
-5.81759e-19
-2.99902e-22
3.41641e-05
-6.43163e-18
-3.5229e-21
-5.87765e-19
-2.57608e-22
3.4731e-05
-6.41884e-18
-3.53402e-21
-5.99534e-19
-2.13595e-22
3.53065e-05
-6.40048e-18
-3.5451e-21
-6.05345e-19
-1.66271e-22
3.58906e-05
-6.37951e-18
-3.55605e-21
-6.1838e-19
-1.17115e-22
3.64835e-05
-6.36544e-18
-3.56727e-21
-6.32551e-19
-6.42611e-23
3.70853e-05
-6.34442e-18
-3.58018e-21
-6.39223e-19
-5.43292e-24
3.76962e-05
-6.32838e-18
-3.5984e-21
-6.5273e-19
6.0237e-23
3.83163e-05
-6.3122e-18
-3.61965e-21
-6.70373e-19
1.29649e-22
3.89456e-05
-6.3063e-18
-3.64093e-21
-6.72223e-19
2.03072e-22
3.95844e-05
-6.29876e-18
-3.66174e-21
-6.76174e-19
2.78133e-22
4.02328e-05
-6.29401e-18
-3.68127e-21
-6.78959e-19
3.56157e-22
4.08909e-05
-6.28344e-18
-3.69626e-21
-6.82448e-19
4.36679e-22
4.15589e-05
-6.26693e-18
-3.71286e-21
-6.92417e-19
5.18501e-22
4.22368e-05
-6.24333e-18
-3.73156e-21
-6.96328e-19
6.01646e-22
4.2925e-05
-6.23208e-18
-3.7553e-21
-7.05422e-19
6.9135e-22
4.36234e-05
-6.22101e-18
-3.78179e-21
-7.12704e-19
7.88401e-22
4.43322e-05
-6.21889e-18
-3.80915e-21
-7.28242e-19
8.86665e-22
4.50517e-05
-6.2039e-18
-3.8335e-21
-7.36121e-19
9.87969e-22
4.57819e-05
-6.19128e-18
-3.85891e-21
-7.52056e-19
1.09013e-21
4.6523e-05
-6.17517e-18
-3.88427e-21
-7.66827e-19
1.19724e-21
4.72752e-05
-6.15899e-18
-3.90806e-21
-7.7709e-19
1.3052e-21
4.80386e-05
-6.1439e-18
-3.93259e-21
-7.94559e-19
1.40968e-21
4.88133e-05
-6.1304e-18
-3.95393e-21
-8.13702e-19
1.51949e-21
4.95997e-05
-6.10867e-18
-3.97009e-21
-8.30279e-19
1.63631e-21
5.03977e-05
-6.07657e-18
-3.99023e-21
-8.55822e-19
1.75573e-21
5.12076e-05
-6.05462e-18
-4.01982e-21
-8.76668e-19
1.87923e-21
5.20296e-05
-6.03827e-18
-4.05464e-21
-8.88634e-19
2.01353e-21
5.28638e-05
-6.02611e-18
-4.09886e-21
-9.00276e-19
2.14967e-21
5.37104e-05
-6.00563e-18
-4.14691e-21
-9.16549e-19
2.28781e-21
5.45696e-05
-5.99959e-18
-4.2034e-21
-9.24309e-19
2.43362e-21
5.54415e-05
-5.97557e-18
-4.25701e-21
-9.42585e-19
2.57848e-21
5.63264e-05
-5.94905e-18
-4.31736e-21
-9.59769e-19
2.72387e-21
5.72245e-05
-5.92346e-18
-4.38298e-21
-9.82289e-19
2.86987e-21
5.81358e-05
-5.91495e-18
-4.45711e-21
-1.00613e-18
3.02439e-21
5.90607e-05
-5.9035e-18
-4.52654e-21
-1.02267e-18
3.18711e-21
5.99992e-05
-5.87976e-18
-4.58764e-21
-1.04292e-18
3.34462e-21
6.09517e-05
-5.86131e-18
-4.65102e-21
-1.06641e-18
3.5023e-21
6.19182e-05
-5.84062e-18
-4.71267e-21
-1.06379e-18
3.66123e-21
6.28991e-05
-5.81163e-18
-4.77179e-21
-1.08518e-18
3.79281e-21
6.38945e-05
-5.79702e-18
-4.83525e-21
-1.09261e-18
3.92951e-21
6.49045e-05
-5.79224e-18
-4.89379e-21
-1.10649e-18
4.05598e-21
6.59296e-05
-5.78312e-18
-4.94004e-21
-1.12315e-18
4.17141e-21
6.69697e-05
-5.7499e-18
-4.96881e-21
-1.13353e-18
4.28124e-21
6.80252e-05
-5.71772e-18
-4.99836e-21
-1.1573e-18
4.37853e-21
6.90962e-05
-5.66544e-18
-5.04708e-21
-1.19176e-18
4.47796e-21
7.01831e-05
-5.61468e-18
-5.11375e-21
-1.21783e-18
4.58692e-21
7.1286e-05
-5.59878e-18
-5.20887e-21
-1.23111e-18
4.70074e-21
7.24051e-05
-5.5811e-18
-5.3026e-21
-1.25921e-18
4.79693e-21
7.35407e-05
-5.5395e-18
-5.37748e-21
-1.29569e-18
4.88041e-21
7.4693e-05
-5.53042e-18
-5.46971e-21
-1.31008e-18
4.97492e-21
7.58622e-05
-5.48926e-18
-5.52792e-21
-1.33508e-18
5.05122e-21
7.70487e-05
-5.45512e-18
-5.58899e-21
-1.36777e-18
5.13397e-21
7.82526e-05
-5.42454e-18
-5.6522e-21
-1.39881e-18
5.21567e-21
7.94741e-05
-5.37707e-18
-5.72547e-21
-1.42654e-18
5.29661e-21
8.07136e-05
-5.35143e-18
-5.81474e-21
-1.46039e-18
5.37114e-21
8.19713e-05
-5.31792e-18
-5.91281e-21
-1.49959e-18
5.46685e-21
8.32474e-05
-5.27808e-18
-6.04178e-21
-1.52883e-18
5.5753e-21
8.45422e-05
-5.226e-18
-6.20379e-21
-1.56589e-18
5.68695e-21
8.5856e-05
-5.18064e-18
-6.40288e-21
-1.59811e-18
5.79783e-21
8.7189e-05
-5.148e-18
-6.60026e-21
-1.62912e-18
5.88622e-21
8.85415e-05
-5.10293e-18
-6.7948e-21
-1.667e-18
5.97395e-21
8.99138e-05
-5.06708e-18
-6.99812e-21
-1.70768e-18
6.06735e-21
9.13061e-05
-5.02712e-18
-7.18364e-21
-1.74699e-18
6.13771e-21
9.27188e-05
-4.98743e-18
-7.37385e-21
-1.77632e-18
6.19921e-21
9.4152e-05
-4.94546e-18
-7.57011e-21
-1.82682e-18
6.23184e-21
9.56063e-05
-4.90224e-18
-7.76773e-21
-1.85687e-18
6.22947e-21
9.70816e-05
-4.85824e-18
-7.9549e-21
-1.90892e-18
6.16181e-21
9.85785e-05
-4.82027e-18
-8.12902e-21
-1.95053e-18
6.05132e-21
0.000100097
-4.78198e-18
-8.2915e-21
-2.00328e-18
5.94364e-21
0.000101638
-4.71929e-18
-8.40924e-21
-2.05642e-18
5.79541e-21
0.000103201
-4.66861e-18
-8.57088e-21
-2.10314e-18
5.62648e-21
0.000104787
-4.63298e-18
-8.74181e-21
-2.13726e-18
5.4594e-21
0.000106396
-4.60319e-18
-8.89808e-21
-2.17484e-18
5.28691e-21
0.000108028
-4.56559e-18
-9.02551e-21
-2.21294e-18
5.10592e-21
0.000109684
-4.53033e-18
-9.15349e-21
-2.26146e-18
4.89138e-21
0.000111364
-4.48721e-18
-9.28482e-21
-2.29756e-18
4.68363e-21
0.000113068
-4.43911e-18
-9.41428e-21
-2.32112e-18
4.46322e-21
0.000114797
-4.37958e-18
-9.56499e-21
-2.37107e-18
4.17306e-21
0.000116551
-4.33386e-18
-9.69987e-21
-2.40751e-18
3.85057e-21
0.000118331
-4.29004e-18
-9.83551e-21
-2.45295e-18
3.53464e-21
0.000120136
-4.23438e-18
-9.96845e-21
-2.49388e-18
3.22797e-21
0.000121967
-4.19781e-18
-1.01242e-20
-2.52391e-18
2.93686e-21
0.000123824
-4.17974e-18
-1.02207e-20
-2.54634e-18
2.62483e-21
0.000125708
-4.13053e-18
-1.02344e-20
-2.5777e-18
2.23635e-21
0.000127619
-4.08352e-18
-1.0291e-20
-2.61059e-18
1.80421e-21
0.000129558
-4.00007e-18
-1.02829e-20
-2.62512e-18
1.29939e-21
0.000131525
-3.93573e-18
-1.03676e-20
-2.65095e-18
6.58214e-22
0.000133519
-3.86005e-18
-1.04346e-20
-2.67578e-18
2.61129e-23
0.000135543
-3.84492e-18
-1.05995e-20
-2.69039e-18
-5.28874e-22
0.000137595
-3.75388e-18
-1.06806e-20
-2.70319e-18
-1.00316e-21
0.000139677
-3.73943e-18
-1.10067e-20
-2.69201e-18
-1.41827e-21
0.000141788
-3.70201e-18
-1.1323e-20
-2.67923e-18
-2.00563e-21
0.00014393
-3.66795e-18
-1.16548e-20
-2.68919e-18
-2.6596e-21
0.000146102
-3.63272e-18
-1.20582e-20
-2.69946e-18
-3.30766e-21
0.000148305
-3.5665e-18
-1.25021e-20
-2.72993e-18
-3.95329e-21
0.00015054
-3.52229e-18
-1.30005e-20
-2.72647e-18
-4.56105e-21
0.000152807
-3.48712e-18
-1.359e-20
-2.74043e-18
-5.23128e-21
0.000155105
-3.47558e-18
-1.41363e-20
-2.76062e-18
-5.94205e-21
0.000157437
-3.4233e-18
-1.45518e-20
-2.77605e-18
-6.43526e-21
0.000159801
-3.39391e-18
-1.48811e-20
-2.80841e-18
-6.74899e-21
0.000162199
-3.35989e-18
-1.49831e-20
-2.79809e-18
-6.86858e-21
0.000164631
-3.33694e-18
-1.49776e-20
-2.82665e-18
-7.09084e-21
0.000167097
-3.31559e-18
-1.52476e-20
-2.80834e-18
-7.22536e-21
0.000169599
-3.31681e-18
-1.56487e-20
-2.80518e-18
-7.43611e-21
0.000172135
-3.27357e-18
-1.59315e-20
-2.79006e-18
-7.56514e-21
0.000174708
-3.28861e-18
-1.63757e-20
-2.8011e-18
-7.73497e-21
0.000177317
-3.26021e-18
-1.66131e-20
-2.79107e-18
-8.01473e-21
0.000179963
-3.27475e-18
-1.70274e-20
-2.75641e-18
-8.2649e-21
0.000182646
-3.26001e-18
-1.73555e-20
-2.74312e-18
-8.66756e-21
0.000185367
-3.19718e-18
-1.76798e-20
-2.7808e-18
-9.32704e-21
0.000188126
-3.183e-18
-1.79096e-20
-2.74911e-18
-9.86876e-21
0.000190925
-3.17563e-18
-1.76968e-20
-2.73386e-18
-1.03222e-20
0.000193762
-3.10155e-18
-1.74254e-20
-2.73094e-18
-1.07398e-20
0.00019664
-3.04816e-18
-1.73588e-20
-2.6996e-18
-1.11801e-20
0.000199559
-2.99189e-18
-1.72556e-20
-2.71504e-18
-1.17903e-20
0.000202518
-2.94419e-18
-1.72251e-20
-2.71476e-18
-1.22706e-20
0.00020552
-2.89008e-18
-1.72315e-20
-2.76843e-18
-1.26768e-20
0.000208564
-2.84091e-18
-1.7475e-20
-2.72517e-18
-1.28669e-20
0.000211651
-2.79009e-18
-1.78466e-20
-2.71867e-18
-1.35422e-20
0.000214781
-2.75864e-18
-1.83769e-20
-2.7015e-18
-1.39967e-20
0.000217956
-2.73171e-18
-1.86674e-20
-2.65003e-18
-1.47179e-20
0.000221176
-2.70396e-18
-1.89245e-20
-2.6599e-18
-1.51673e-20
0.000224442
-2.71902e-18
-1.89364e-20
-2.62069e-18
-1.53978e-20
0.000227754
-2.68159e-18
-1.88788e-20
-2.60871e-18
-1.59222e-20
0.000231113
-2.65508e-18
-1.87601e-20
-2.58485e-18
-1.61325e-20
0.000234519
-2.62406e-18
-1.90309e-20
-2.59346e-18
-1.60616e-20
0.000237975
-2.60123e-18
-1.9162e-20
-2.55672e-18
-1.58253e-20
0.000241479
-2.58641e-18
-1.93243e-20
-2.57791e-18
-1.59152e-20
0.000245034
-2.59004e-18
-1.95004e-20
-2.54012e-18
-1.5327e-20
0.00024864
-2.59619e-18
-1.96589e-20
-2.58918e-18
-1.40927e-20
0.000252297
-2.59506e-18
-1.9458e-20
-2.57454e-18
-1.23856e-20
0.000256007
-2.56141e-18
-1.87922e-20
-2.56245e-18
-1.14782e-20
0.000259769
-2.51317e-18
-1.84656e-20
-2.52657e-18
-1.19108e-20
0.000263586
-2.51246e-18
-1.88864e-20
-2.46941e-18
-1.22972e-20
0.000267458
-2.47697e-18
-1.87461e-20
-2.43402e-18
-1.32987e-20
0.000271386
-2.45432e-18
-1.81614e-20
-2.48392e-18
-1.45763e-20
0.00027537
-2.44554e-18
-1.76778e-20
-2.41312e-18
-1.52111e-20
0.000279412
-2.43896e-18
-1.70707e-20
-2.4348e-18
-1.68245e-20
0.000283512
-2.41824e-18
-1.75341e-20
-2.39785e-18
-1.67679e-20
0.000287672
-2.43094e-18
-1.80664e-20
-2.35986e-18
-1.6631e-20
0.000291892
-2.37601e-18
-1.80665e-20
-2.3772e-18
-1.57506e-20
0.000296173
-2.41575e-18
-1.89076e-20
-2.28734e-18
-1.54884e-20
0.000300516
-2.38364e-18
-1.88978e-20
-2.30866e-18
-1.61528e-20
0.000304922
-2.38196e-18
-1.88098e-20
-2.28693e-18
-1.58362e-20
0.000309393
-2.39037e-18
-1.78459e-20
-2.28122e-18
-1.58846e-20
0.000313928
-2.31605e-18
-1.74413e-20
-2.36128e-18
-1.61109e-20
0.00031853
-2.34103e-18
-1.7352e-20
-2.30875e-18
-1.52901e-20
0.000323198
-2.31978e-18
-1.7101e-20
-2.36288e-18
-1.58168e-20
0.000327935
-2.35083e-18
-1.52117e-20
-2.27804e-18
-1.68464e-20
0.00033274
-2.3428e-18
-1.44416e-20
-2.29569e-18
-1.73521e-20
0.000337616
-2.29976e-18
-1.31896e-20
-2.27888e-18
-1.77373e-20
0.000342563
-2.28985e-18
-1.21941e-20
-2.26655e-18
-1.82588e-20
0.000347582
-2.27436e-18
-1.30915e-20
-2.23891e-18
-1.78997e-20
0.000352675
-2.24461e-18
-1.31059e-20
-2.2655e-18
-1.71518e-20
0.000357841
-2.22593e-18
-1.34774e-20
-2.23512e-18
-1.54992e-20
0.000363084
-2.21453e-18
-1.41124e-20
-2.24907e-18
-1.49197e-20
0.000368403
-2.22996e-18
-1.51077e-20
-2.20302e-18
-1.56451e-20
0.0003738
-2.24379e-18
-1.51454e-20
-2.20706e-18
-1.84976e-20
0.000379276
-2.14013e-18
-1.46293e-20
-2.29762e-18
-2.10158e-20
0.000384832
-2.13548e-18
-1.61895e-20
-2.24664e-18
-2.13272e-20
0.00039047
-2.17603e-18
-1.75817e-20
-2.21989e-18
-1.95928e-20
0.00039619
-2.13141e-18
-1.8358e-20
-2.24073e-18
-1.80246e-20
0.000401994
-2.2542e-18
-2.14439e-20
-2.2159e-18
-1.64488e-20
0.000407882
-2.22562e-18
-1.98035e-20
-2.22665e-18
-1.88427e-20
0.000413857
-2.22802e-18
-2.15942e-20
-2.23414e-18
-1.73083e-20
0.00041992
-2.21083e-18
-2.14989e-20
-2.1403e-18
-1.41992e-20
0.000426071
-2.14258e-18
-2.2548e-20
-2.19726e-18
-1.37288e-20
0.000432312
-2.16061e-18
-2.35831e-20
-2.22057e-18
-1.67765e-20
0.000438645
-2.13323e-18
-2.55036e-20
-2.22503e-18
-1.60882e-20
0.00044507
-2.19589e-18
-2.75011e-20
-2.12629e-18
-1.39559e-20
0.000451589
-2.15e-18
-2.55498e-20
-2.13658e-18
-1.46189e-20
0.000458204
-2.24526e-18
-2.60156e-20
-2.15782e-18
-1.71226e-20
0.000464915
-2.2284e-18
-2.39574e-20
-2.15599e-18
-1.9946e-20
0.000471724
-2.19643e-18
-2.09151e-20
-2.18091e-18
-1.82681e-20
0.000478633
-2.22914e-18
-1.95486e-20
-2.1612e-18
-1.56837e-20
0.000485643
-2.20191e-18
-1.86185e-20
-2.07073e-18
-1.51813e-20
0.000492755
-2.15677e-18
-1.72528e-20
-2.09222e-18
-1.95636e-20
0.000499971
-2.00187e-18
-1.4456e-20
-2.08775e-18
-1.79605e-20
0.000507292
-1.96808e-18
-1.32122e-20
-2.03352e-18
-1.53874e-20
0.00051472
-1.9495e-18
-1.14677e-20
-1.92149e-18
-1.58565e-20
0.000522256
-1.78621e-18
-7.48896e-21
-1.9543e-18
-1.94021e-20
0.000529901
-1.66747e-18
-1.08432e-20
-1.7945e-18
-2.11692e-20
0.000537658
-1.71478e-18
-1.73178e-20
-1.79582e-18
-2.29394e-20
0.000545528
-1.6475e-18
-1.58221e-20
-1.6373e-18
-2.34557e-20
0.000553512
-1.54467e-18
-2.01002e-20
-1.60244e-18
-2.89446e-20
0.000561611
-1.55444e-18
-2.83414e-20
-1.53547e-18
-3.31516e-20
0.000569828
-1.56523e-18
-3.39973e-20
-1.58494e-18
-3.32739e-20
0.000578164
-1.48816e-18
-3.29671e-20
-1.48835e-18
-3.28289e-20
0.000586621
-1.37606e-18
-3.13426e-20
-1.40401e-18
-3.23574e-20
0.000595199
-1.40635e-18
-3.64344e-20
-1.36152e-18
-3.13387e-20
0.000603902
-1.23615e-18
-2.94742e-20
-1.35018e-18
-3.13571e-20
0.000612729
-1.21558e-18
-2.8998e-20
-1.33617e-18
-2.51932e-20
0.000621684
-1.32309e-18
-2.78619e-20
-1.1492e-18
-1.47423e-20
0.000630767
-1.15226e-18
-2.10517e-20
-1.00565e-18
-7.80942e-21
0.000639981
-1.06814e-18
-1.67616e-20
-1.10854e-18
-1.13493e-20
0.000649326
-1.06351e-18
-1.92714e-20
-1.12345e-18
-8.8522e-21
0.000658805
-1.03958e-18
-2.08215e-20
-1.10164e-18
-8.15065e-21
0.00066842
-1.04314e-18
-2.33348e-20
-1.08651e-18
-5.29789e-21
0.000678171
-9.02571e-19
-2.57002e-20
-8.22204e-19
-8.88686e-21
0.00068806
-9.03979e-19
-2.64942e-20
-8.67695e-19
-1.62655e-20
0.00069809
-8.2635e-19
-1.74073e-20
-7.99508e-19
-2.17509e-20
0.000708262
-9.12062e-19
-6.40546e-21
-8.92557e-19
-1.74037e-20
0.000718577
-8.35446e-19
6.88625e-21
-8.78324e-19
-6.96484e-21
0.000729037
-8.51399e-19
1.28991e-20
-8.45095e-19
-1.16424e-20
0.000739643
1.73454e-20
-8.36291e-19
-1.26502e-20
-8.58941e-19
1.42081e-07
-1.59117e-21
-4.8881e-22
4.34508e-07
-8.40357e-21
-4.06473e-21
7.3958e-07
-1.54442e-20
-7.735e-21
1.05717e-06
-2.30033e-20
-1.15009e-20
1.38564e-06
-3.03522e-20
-1.51941e-20
1.72031e-06
-3.79756e-20
-1.90602e-20
2.05308e-06
-4.57197e-20
-2.28853e-20
2.37474e-06
-5.26491e-20
-2.67307e-20
2.67853e-06
-5.84978e-20
-3.04106e-20
2.96174e-06
-6.44393e-20
-3.34782e-20
3.22491e-06
-6.927e-20
-3.60646e-20
3.47026e-06
-7.46877e-20
-3.85339e-20
3.7005e-06
-7.95667e-20
-4.09018e-20
3.91822e-06
-8.38646e-20
-4.36518e-20
4.12572e-06
-8.77392e-20
-4.53394e-20
4.3249e-06
-9.06023e-20
-4.66805e-20
4.51737e-06
-9.47413e-20
-4.89719e-20
4.70443e-06
-9.80024e-20
-5.10503e-20
4.88715e-06
-1.0046e-19
-5.16204e-20
5.06643e-06
-1.03188e-19
-5.38682e-20
5.24301e-06
-1.05642e-19
-5.58702e-20
5.41752e-06
-1.08422e-19
-5.66396e-20
5.59048e-06
-1.09852e-19
-5.8465e-20
5.76236e-06
-1.13375e-19
-5.89144e-20
5.93353e-06
-1.16526e-19
-6.01958e-20
6.10434e-06
-1.1887e-19
-6.10222e-20
6.27509e-06
-1.22453e-19
-6.29251e-20
6.44603e-06
-1.24999e-19
-6.41945e-20
6.6174e-06
-1.27484e-19
-6.62114e-20
6.78941e-06
-1.2989e-19
-6.81088e-20
6.96224e-06
-1.31852e-19
-6.89096e-20
7.13607e-06
-1.33353e-19
-7.05645e-20
7.31104e-06
-1.35731e-19
-7.14858e-20
7.48731e-06
-1.3756e-19
-7.30349e-20
7.665e-06
-1.39665e-19
-7.40526e-20
7.84423e-06
-1.41652e-19
-7.5323e-20
8.02513e-06
-1.43373e-19
-7.69055e-20
8.20779e-06
-1.44232e-19
-7.73955e-20
8.39233e-06
-1.47378e-19
-7.75203e-20
8.57884e-06
-1.49581e-19
-7.67261e-20
8.7674e-06
-1.51267e-19
-7.83116e-20
8.95811e-06
-1.52942e-19
-8.04557e-20
9.15106e-06
-1.57571e-19
-8.25555e-20
9.34631e-06
-1.59599e-19
-8.48437e-20
9.54397e-06
-1.60874e-19
-8.67251e-20
9.74409e-06
-1.64571e-19
-8.73543e-20
9.94676e-06
-1.66374e-19
-8.91007e-20
1.01521e-05
-1.69937e-19
-8.99576e-20
1.036e-05
-1.71906e-19
-8.88402e-20
1.05708e-05
-1.74403e-19
-8.86044e-20
1.07844e-05
-1.7873e-19
-8.90786e-20
1.10008e-05
-1.81495e-19
-8.98897e-20
1.12203e-05
-1.84267e-19
-9.06858e-20
1.14428e-05
-1.84958e-19
-9.01446e-20
1.16684e-05
-1.88192e-19
-9.0484e-20
1.18971e-05
-1.90547e-19
-9.08578e-20
1.21291e-05
-1.94632e-19
-9.184e-20
1.23644e-05
-1.96026e-19
-9.29076e-20
1.26031e-05
-1.98569e-19
-9.3764e-20
1.28452e-05
-2.00433e-19
-9.5729e-20
1.30908e-05
-2.01979e-19
-9.64014e-20
1.334e-05
-2.00033e-19
-1.01155e-19
1.35929e-05
-2.05983e-19
-9.93767e-20
1.38494e-05
-2.08704e-19
-1.05243e-19
1.41097e-05
-2.13001e-19
-1.08836e-19
1.43738e-05
-2.1773e-19
-1.08685e-19
1.46418e-05
-2.19043e-19
-1.09919e-19
1.49139e-05
-2.22139e-19
-1.09685e-19
1.51899e-05
-2.26022e-19
-1.08917e-19
1.54701e-05
-2.3164e-19
-1.06913e-19
1.57544e-05
-2.33587e-19
-1.11891e-19
1.6043e-05
-2.36171e-19
-1.13675e-19
1.63359e-05
-2.36485e-19
-1.18355e-19
1.66333e-05
-2.38608e-19
-1.20381e-19
1.6935e-05
-2.39992e-19
-1.20339e-19
1.72414e-05
-2.43612e-19
-1.2206e-19
1.75523e-05
-2.44425e-19
-1.24283e-19
1.78679e-05
-2.43887e-19
-1.26599e-19
1.81883e-05
-2.43867e-19
-1.30211e-19
1.85135e-05
-2.4848e-19
-1.29111e-19
1.88436e-05
-2.53825e-19
-1.33557e-19
1.91788e-05
-2.56496e-19
-1.36963e-19
1.9519e-05
-2.58258e-19
-1.38792e-19
1.98643e-05
-2.58552e-19
-1.42183e-19
2.02149e-05
-2.6682e-19
-1.3967e-19
2.05708e-05
-2.69309e-19
-1.41033e-19
2.0932e-05
-2.69021e-19
-1.44339e-19
2.12988e-05
-2.66016e-19
-1.46714e-19
2.16711e-05
-2.70007e-19
-1.49161e-19
2.20491e-05
-2.7065e-19
-1.49423e-19
2.24328e-05
-2.70241e-19
-1.5019e-19
2.28223e-05
-2.72262e-19
-1.52659e-19
2.32177e-05
-2.74427e-19
-1.55712e-19
2.36191e-05
-2.77871e-19
-1.58782e-19
2.40266e-05
-2.85189e-19
-1.57918e-19
2.44403e-05
-2.87681e-19
-1.60213e-19
2.48603e-05
-2.91125e-19
-1.62769e-19
2.52866e-05
-2.93606e-19
-1.63287e-19
2.57194e-05
-2.93927e-19
-1.65562e-19
2.61587e-05
-2.94587e-19
-1.6573e-19
2.66047e-05
-2.90553e-19
-1.70676e-19
2.70574e-05
-2.96296e-19
-1.71068e-19
2.75171e-05
-2.99506e-19
-1.72684e-19
2.79836e-05
-2.93549e-19
-1.74184e-19
2.84573e-05
-2.98029e-19
-1.71577e-19
2.8938e-05
-2.9509e-19
-1.74539e-19
2.94261e-05
-2.97588e-19
-1.74176e-19
2.99216e-05
-3.01258e-19
-1.73671e-19
3.04245e-05
-3.0336e-19
-1.75635e-19
3.0935e-05
-3.01651e-19
-1.73195e-19
3.14532e-05
-3.09907e-19
-1.74301e-19
3.19793e-05
-3.09959e-19
-1.7749e-19
3.25133e-05
-3.11771e-19
-1.83729e-19
3.30554e-05
-3.11626e-19
-1.84611e-19
3.36056e-05
-3.08093e-19
-1.89962e-19
3.41641e-05
-3.11184e-19
-1.9253e-19
3.4731e-05
-3.13341e-19
-1.9399e-19
3.53065e-05
-3.11237e-19
-1.98857e-19
3.58906e-05
-3.07932e-19
-2.0421e-19
3.64835e-05
-3.10315e-19
-2.02393e-19
3.70853e-05
-3.15762e-19
-1.93653e-19
3.76962e-05
-3.18546e-19
-1.98926e-19
3.83163e-05
-3.11698e-19
-2.01512e-19
3.89456e-05
-3.11924e-19
-2.01907e-19
3.95844e-05
-3.05325e-19
-2.04718e-19
4.02328e-05
-2.92683e-19
-2.0564e-19
4.08909e-05
-2.99655e-19
-2.06354e-19
4.15589e-05
-3.05632e-19
-2.11552e-19
4.22368e-05
-3.12398e-19
-2.00995e-19
4.2925e-05
-3.21638e-19
-1.94469e-19
4.36234e-05
-3.23276e-19
-1.98265e-19
4.43322e-05
-3.25938e-19
-2.01096e-19
4.50517e-05
-3.30577e-19
-1.99544e-19
4.57819e-05
-3.35837e-19
-1.96778e-19
4.6523e-05
-3.34665e-19
-1.98548e-19
4.72752e-05
-3.37967e-19
-2.01329e-19
4.80386e-05
-3.30555e-19
-1.97462e-19
4.88133e-05
-3.20159e-19
-1.97504e-19
4.95997e-05
-3.19371e-19
-2.00953e-19
5.03977e-05
-3.1479e-19
-2.10789e-19
5.12076e-05
-3.11052e-19
-2.0726e-19
5.20296e-05
-3.19111e-19
-2.09072e-19
5.28638e-05
-3.1812e-19
-2.11222e-19
5.37104e-05
-3.23205e-19
-2.14205e-19
5.45696e-05
-3.26902e-19
-2.14793e-19
5.54415e-05
-3.3377e-19
-2.1502e-19
5.63264e-05
-3.35093e-19
-2.14868e-19
5.72245e-05
-3.39751e-19
-2.10195e-19
5.81358e-05
-3.42388e-19
-2.09032e-19
5.90607e-05
-3.41087e-19
-2.10436e-19
5.99992e-05
-3.43435e-19
-2.05607e-19
6.09517e-05
-3.44864e-19
-2.01156e-19
6.19182e-05
-3.45118e-19
-2.06392e-19
6.28991e-05
-3.44779e-19
-1.93169e-19
6.38945e-05
-3.41036e-19
-1.87479e-19
6.49045e-05
-3.37682e-19
-1.89328e-19
6.59296e-05
-3.26834e-19
-1.9551e-19
6.69697e-05
-3.13672e-19
-2.04496e-19
6.80252e-05
-3.2543e-19
-1.9478e-19
6.90962e-05
-3.25709e-19
-1.86927e-19
7.01831e-05
-3.42732e-19
-1.90115e-19
7.1286e-05
-3.56055e-19
-1.97279e-19
7.24051e-05
-3.43608e-19
-1.99784e-19
7.35407e-05
-3.43024e-19
-1.84606e-19
7.4693e-05
-3.31512e-19
-1.80247e-19
7.58622e-05
-3.32684e-19
-1.65689e-19
7.70487e-05
-3.32978e-19
-1.64884e-19
7.82526e-05
-3.41144e-19
-1.65107e-19
7.94741e-05
-3.35484e-19
-1.70629e-19
8.07136e-05
-3.45546e-19
-1.56456e-19
8.19713e-05
-3.70383e-19
-1.64467e-19
8.32474e-05
-3.88024e-19
-1.67028e-19
8.45422e-05
-3.95363e-19
-1.67546e-19
8.5856e-05
-3.81653e-19
-1.74787e-19
8.7189e-05
-3.76774e-19
-1.71375e-19
8.85415e-05
-3.6694e-19
-1.63205e-19
8.99138e-05
-3.50742e-19
-1.57811e-19
9.13061e-05
-3.47106e-19
-1.53984e-19
9.27188e-05
-3.45327e-19
-1.57472e-19
9.4152e-05
-3.42528e-19
-1.63298e-19
9.56063e-05
-3.34898e-19
-1.68525e-19
9.70816e-05
-3.26012e-19
-1.93092e-19
9.85785e-05
-3.30761e-19
-1.85001e-19
0.000100097
-3.20624e-19
-2.04928e-19
0.000101638
-3.40127e-19
-2.06753e-19
0.000103201
-3.51677e-19
-2.05312e-19
0.000104787
-3.609e-19
-2.04575e-19
0.000106396
-3.64589e-19
-2.04604e-19
0.000108028
-3.74831e-19
-2.13927e-19
0.000109684
-3.88782e-19
-2.15326e-19
0.000111364
-3.92315e-19
-2.10377e-19
0.000113068
-4.07108e-19
-2.15074e-19
0.000114797
-3.94031e-19
-2.39808e-19
0.000116551
-3.95049e-19
-2.40446e-19
0.000118331
-3.91708e-19
-2.45239e-19
0.000120136
-3.86437e-19
-2.50354e-19
0.000121967
-3.71209e-19
-2.57582e-19
0.000123824
-3.63831e-19
-2.62549e-19
0.000125708
-3.64764e-19
-2.67188e-19
0.000127619
-3.27798e-19
-2.82978e-19
0.000129558
-3.18069e-19
-2.96246e-19
0.000131525
-2.87575e-19
-2.85321e-19
0.000133519
-2.91318e-19
-2.73532e-19
0.000135543
-2.93333e-19
-2.61302e-19
0.000137595
-3.12895e-19
-2.43164e-19
0.000139677
-3.1359e-19
-2.65071e-19
0.000141788
-2.99089e-19
-2.61841e-19
0.00014393
-3.04885e-19
-2.61482e-19
0.000146102
-3.11589e-19
-2.6603e-19
0.000148305
-3.08163e-19
-2.92723e-19
0.00015054
-3.45628e-19
-2.97127e-19
0.000152807
-3.66433e-19
-3.24075e-19
0.000155105
-3.98981e-19
-3.23194e-19
0.000157437
-3.98735e-19
-3.22888e-19
0.000159801
-3.78209e-19
-3.28583e-19
0.000162199
-3.71613e-19
-3.59627e-19
0.000164631
-4.43213e-19
-3.80399e-19
0.000167097
-4.77917e-19
-3.99428e-19
0.000169599
-4.83644e-19
-3.98876e-19
0.000172135
-4.92026e-19
-3.8845e-19
0.000174708
-4.78189e-19
-4.11447e-19
0.000177317
-5.00624e-19
-4.15072e-19
0.000179963
-5.17788e-19
-4.23443e-19
0.000182646
-5.30722e-19
-4.41616e-19
0.000185367
-4.94265e-19
-4.66532e-19
0.000188126
-4.62799e-19
-4.54196e-19
0.000190925
-5.03967e-19
-4.43553e-19
0.000193762
-5.16498e-19
-4.52892e-19
0.00019664
-5.183e-19
-4.80907e-19
0.000199559
-5.37616e-19
-5.11348e-19
0.000202518
-5.48785e-19
-5.21993e-19
0.00020552
-5.84451e-19
-5.48852e-19
0.000208564
-6.05387e-19
-5.74031e-19
0.000211651
-6.19019e-19
-5.49644e-19
0.000214781
-5.89521e-19
-6.146e-19
0.000217956
-5.92617e-19
-5.74376e-19
0.000221176