/*--------------------------------*- C++ -*----------------------------------*\
| =========                 |                                                 |
| \\      /  F ield         | OpenFOAM: The Open Source CFD Toolbox           |
|  \\    /   O peration     | Version:  2012                                  |
|   \\  /    A nd           | Website:  www.openfoam.com                      |
|    \\/     M anipulation  |                                                 |
\*---------------------------------------------------------------------------*/
FoamFile
{
    version     2.0;
    format      ascii;
    class       volTensorField;
    location    "11700";
    object      grad(U);
}
// * * * * * * * * * * * * * * * * * * * * * * * * * * * * * * * * * * * * * //

dimensions      [0 0 -1 0 0 0 0];


internalField   nonuniform List<tensor> 
2560
(
(0 -1.26226e-14 1.13042e-13 388.494 0 3.10139 0.563291 -5.42101e-20 0.00508134)
(0 0 0 388.041 0.0185924 0.000251872 0.563292 -0.0003826 -0.00506625)
(0 9.68094e-20 8.19722e-15 386.937 0.00343665 -1.38857e-17 1.69296 5.90486e-05 1.73472e-18)
(-2.88386e-16 -7.04068e-20 1.12651e-18 386.495 0.137744 -0.000166196 1.69297 5.85886e-05 -0.00730463)
(-7.28058e-17 -1.69157e-19 0 385.567 -0.0770867 -1.51339 2.31044 2.95287e-05 0.00530592)
(0 3.03615e-19 -1.11036e-18 385.148 0.0566171 -5.26444e-05 2.30801 2.86197e-05 -0.00529017)
(7.89895e-16 -2.71475e-19 1.09445e-18 384.193 -0.0419418 -1.26557 2.33568 -1.38769e-06 0.00281345)
(-5.60358e-16 2.71475e-19 -1.09445e-18 383.806 0.0322881 -1.91753e-05 2.33344 -2.74338e-06 -0.0028051)
(1.10465e-15 -4.06643e-19 1.07876e-18 382.824 -0.0171174 -0.62513 2.36121 9.42438e-07 0.00148835)
(0 4.06577e-19 -8.09072e-19 382.476 0.0177604 -6.47007e-06 2.35918 -1.39993e-06 -0.00148393)
(1.63721e-15 -2.03263e-19 1.32913e-19 381.336 -0.0107063 -0.280709 2.38545 7.46709e-07 0.000901437)
(3.30034e-15 2.71017e-19 -1.32913e-19 381.028 0.0107078 -1.17866e-06 2.38365 -8.13732e-07 -0.00089876)
(3.62391e-16 -1.35486e-19 2.62015e-19 379.521 -0.00738493 -0.140085 2.40729 1.05948e-06 0.000617043)
(1.77096e-15 2.71035e-19 -3.93023e-19 379.253 0.007297 -3.75775e-07 2.40571 -5.44164e-07 -0.00061521)
(-8.75134e-16 2.71123e-19 -2.5826e-19 377.292 -0.00542812 -0.0792009 2.42656 5.39265e-07 0.00046011)
(3.5013e-15 -2.03279e-19 1.2913e-19 377.062 0.00556946 -1.20037e-07 2.4252 -1.19038e-06 -0.000458743)
(1.04078e-15 -2.03286e-19 6.36396e-20 374.852 -0.00429918 -0.0493861 2.44586 1.58203e-06 0.000363808)
(0 2.71059e-19 -6.36396e-20 374.66 0.00427803 -3.79338e-08 2.44472 -4.05603e-07 -0.000362728)
(0 2.71002e-19 -6.27275e-20 372.629 -0.00352412 -0.0330947 2.46812 5.01694e-07 0.000255776)
(0 -2.03252e-19 0 372.472 0.00365542 -3.13705e-08 2.46719 -1.72894e-06 -0.000298974)
(-1.37538e-15 -4.06474e-19 1.44198e-19 370.687 -0.0029733 -0.0233973 2.49133 2.07296e-06 0.000180095)
(0 4.7434e-19 -1.54571e-19 370.562 0.00297908 -1.6048e-08 2.4906 -3.72713e-07 -0.000254083)
(3.5418e-15 -9.48653e-19 2.56136e-19 368.877 -0.00251287 -0.0172304 2.51568 5.31313e-07 0.000132586)
(-1.99696e-15 8.80926e-19 -2.13298e-19 368.783 0.0027101 -1.42661e-09 2.51513 -2.01136e-06 -0.000221036)
(1.96834e-15 -2.03202e-19 3.00344e-20 367.305 -0.00234026 -0.0131303 2.54251 2.79983e-06 0.000101057)
(-1.96834e-15 2.71014e-19 -3.00344e-20 367.239 0.041193 0.000144733 2.54214 -2.94831e-07 -0.000195846)
(-1.88842e-15 3.25644e-19 -1.02194e-19 365.846 -0.0025157 -0.0102105 2.56884 0.000135257 7.95997e-05)
(5.61366e-15 2.52778e-34 5.92079e-20 365.805 -1.38801e-17 1.83401e-06 2.56863 0 -0.000175504)
(0 -2.2957e-17 -1.45898e-19 364.053 -0.000893372 -0.00815763 2.59138 -3.16565e-06 6.2928e-05)
(0 -6.41952e-19 1.45898e-19 364.034 0.11734 0.00019113 2.59132 -0.000268811 -0.000160321)
(-2.241e-15 0 -1.30213e-20 361.578 -0.00282027 -0.00656268 2.60823 0.00055461 5.26232e-05)
(8.96398e-15 0 0 361.577 -2.133e-17 6.63358e-06 2.60829 -5.32325e-35 -0.000146013)
(0 -3.65343e-17 -1.41746e-19 358.311 3.27727e-17 -0.00532392 2.61929 0 4.16692e-05)
(-9.68172e-15 5.47941e-16 1.41746e-19 358.327 0.0866959 -0.000213516 2.61946 -0.000316205 -0.000136812)
(0 1.67657e-18 -8.38287e-20 354.658 -0.00203483 -0.0044669 2.63018 0.000903385 3.59609e-05)
(-1.04026e-14 -3.75306e-19 8.38287e-20 354.688 -3.38241e-17 2.31677e-06 2.63045 -1.0842e-19 -0.000127431)
(3.61004e-15 -2.20339e-19 5.50848e-20 351.604 -0.000549207 -0.00374942 2.64982 -0.00016744 3.01128e-05)
(0 1.18845e-29 -6.8856e-20 351.645 3.69088e-17 -4.70359e-06 2.65017 0 -0.00012034)
(2.95996e-15 1.08591e-18 -5.57132e-20 349.932 -0.002294 -0.0031761 2.68156 0.00104143 2.61619e-05)
(-1.18396e-14 -5.77046e-19 1.08591e-19 349.981 -3.60654e-20 8.26499e-07 2.68197 0 -0.000113416)
(0 -2.14068e-19 -8.02757e-20 349.507 -0.000312558 -0.00270982 2.72083 -0.000642804 2.21968e-05)
(0 3.14811e-19 8.02757e-20 349.562 3.81442e-17 -5.96458e-06 2.72128 0 -0.000108289)
(-3.3238e-15 -6.33001e-19 1.47682e-20 349.576 -0.00219684 -0.00232822 2.76121 0.00117842 1.9669e-05)
(0 -1.54074e-33 -3.95625e-20 349.637 -4.15925e-17 -2.3328e-07 2.76171 2.34257e-34 -0.000102998)
(6.7124e-15 2.13628e-20 1.3151e-19 349.542 0.000181277 -0.00207404 2.79999 -0.00111415 1.68196e-05)
(0 -9.62965e-35 -1.42984e-19 349.607 -1.44312e-35 0.000271287 2.80052 -1.1545e-34 -9.92011e-05)
(0 2.25495e-18 -6.4061e-20 349.277 -0.00253619 -0.00173899 2.83778 0.00158232 1.61718e-05)
(-1.47961e-14 -6.57993e-19 1.02498e-19 349.344 -5.48328e-20 5.32231e-06 2.83833 2.1684e-19 -9.36818e-05)
(-2.73021e-15 -4.04114e-19 -6.45831e-20 348.88 0.000320885 -0.00151615 2.87547 -0.00193925 1.18653e-05)
(6.62101e-15 4.81482e-35 7.57714e-20 348.948 3.65281e-32 7.26009e-05 2.87603 -2.1684e-19 -9.22131e-05)
(-1.46965e-14 3.18658e-18 -1.20249e-19 348.39 -0.00295594 -0.00130293 2.9127 0.00229733 1.297e-05)
(6.52611e-15 0 9.95806e-20 348.457 -7.66992e-17 1.10532e-05 2.91326 -1.76834e-34 -8.71707e-05)
(1.28471e-14 2.35568e-18 1.18532e-19 347.718 0.000776463 -0.00106326 2.9483 -0.00271789 8.64471e-06)
(3.42583e-14 -1.57772e-30 -8.58842e-20 347.785 8.32667e-17 -0.000245387 2.94886 4.33681e-19 -8.68061e-05)
(0 -3.09589e-18 6.04666e-20 346.742 -0.00314444 -0.000979509 2.98122 0.00281066 9.28104e-06)
(1.79293e-14 0 -6.04666e-20 346.807 -9.11795e-17 7.21558e-06 2.98176 0 -8.37196e-05)
(4.68505e-15 -1.14432e-18 -2.52957e-20 345.426 0.00138153 -0.000853383 3.01167 -0.00298098 7.45533e-06)
(0 4.1396e-19 1.192e-20 345.487 1.0349e-19 3.0159e-06 3.01218 0 -8.26154e-05)
(-9.77946e-15 0 -2.02324e-20 343.972 -0.00351965 -0.000744628 3.04276 0.00307998 7.34889e-06)
(-3.91173e-14 -4.27163e-18 0 344.029 1.06791e-19 1.82468e-06 3.04325 4.33681e-19 -8.00063e-05)
(-5.09553e-15 -7.41168e-19 -2.18284e-20 342.941 0.00197508 -0.000651188 3.08136 -0.00325559 5.74563e-06)
(-2.03819e-14 2.26037e-18 0 342.994 9.70315e-17 -1.17062e-05 3.0818 -4.33681e-19 -7.93556e-05)
(0 3.65273e-18 -9.13181e-20 343.194 -0.0040366 -0.000572108 3.1365 0.00335655 5.88351e-06)
(-2.12066e-14 -1.39662e-18 9.13181e-20 343.241 1.16385e-19 -2.01781e-06 3.1369 0 -7.71497e-05)
(5.89885e-15 2.16022e-18 6.7507e-20 345.577 0.00271757 -0.000501272 3.21574 -0.0035317 4.47086e-06)
(1.61344e-14 0 -6.7507e-20 345.617 6.8163e-18 -1.45489e-05 3.21608 -4.33681e-19 -7.67955e-05)
(-5.71678e-15 0 -9.76798e-21 350.551 -0.00470622 -0.000440112 3.32181 0.00363387 4.74444e-06)
(0 -1.92593e-34 -1.10899e-20 350.585 -1.08118e-16 -1.35588e-06 3.3221 0 -7.49098e-05)
(-5.92926e-15 -2.09874e-18 -6.45821e-20 357.995 0.00349259 -0.000458763 3.45177 -0.00380654 3.45308e-06)
(0 0 5.46548e-20 358.023 1.37457e-17 0.00031854 3.45202 7.33495e-35 -7.47694e-05)
(-1.74461e-14 4.13733e-18 -5.22829e-20 367.268 -0.00564174 -0.000325171 3.59841 0.00422597 5.23883e-06)
(-2.45936e-14 -2.34476e-18 2.15486e-20 367.291 -4.39643e-19 6.76233e-06 3.5986 8.67362e-19 -7.12149e-05)
(6.37671e-15 1.35934e-18 2.697e-17 377.458 0.00432816 -0.000199561 3.75274 -0.00472113 9.71489e-07)
(0 -3.85186e-33 -4.24795e-20 377.476 1.11022e-16 0.00104012 3.7529 -1.88647e-34 -7.32222e-05)
(6.61575e-15 -4.01958e-18 3.89908e-20 387.651 -0.00662033 -0.000209965 3.90666 0.00614387 9.10196e-06)
(0 -7.70372e-34 -3.1403e-20 387.665 0 2.1573e-05 3.90678 -8.67362e-19 -6.35683e-05)
(-6.86622e-15 -1.32066e-18 0 397.189 0.00523587 -2.03288e-18 4.05523 -0.00767765 8.74913e-50)
(0 1.06577e-18 2.06353e-20 397.199 2.22311e-16 0.000430987 4.05531 0 -7.22149e-05)
(-1.06638e-14 6.50864e-18 -3.05093e-20 405.886 -0.00746691 -9.68686e-05 4.19923 0.00947963 1.00055e-05)
(1.06638e-14 -1.31528e-18 5.08488e-20 405.892 -5.55112e-16 2.7441e-05 4.19927 1.73472e-18 -6.0052e-05)
(-7.39843e-15 -2.56614e-18 2.6386e-18 414.235 0.00606003 1.93801e-18 4.34751 -0.0114479 0)
(2.95937e-14 0 -1.0024e-20 414.237 -7.94502e-19 -0.000321543 4.3475 -1.73472e-18 -7.17584e-05)
(0 -1.26468e-17 4.94016e-20 423.511 -0.00812177 1.1698e-07 4.51781 0.0128929 7.36714e-06)
(3.07059e-14 0 -4.94016e-20 423.508 -6.67028e-16 2.24391e-05 4.51774 1.73472e-18 -6.18115e-05)
(7.95992e-15 -7.47933e-18 1.76954e-17 435.636 0.0067805 3.74549e-18 4.7342 -0.0145483 0)
(-3.18397e-14 8.07708e-18 5.84323e-20 435.627 6.59921e-43 -0.000721374 4.73406 0 -7.17876e-05)
(8.24872e-15 -9.82951e-18 3.74966e-20 452.69 -0.00865978 7.2456e-05 5.02022 0.0152667 4.25109e-06)
(0 0 -2.87974e-20 452.674 -4.16334e-16 1.17784e-05 5.02001 -1.73472e-18 -6.6734e-05)
(-8.54567e-15 0 4.54365e-18 476.204 0.00740553 -5.02324e-21 5.39055 -0.0162116 1.35525e-20)
(0 0 -1.89231e-20 476.182 4.11798e-16 -0.000309148 5.39028 6.72284e-34 -7.21916e-05)
(8.85655e-15 7.16232e-18 -1.87667e-20 506.573 -0.00926959 0.000125991 5.84558 0.0166305 3.17414e-06)
(3.54264e-14 -2.77334e-32 9.32594e-21 506.547 -4.02456e-16 7.17869e-06 5.84527 0 -6.93466e-05)
(0 2.35322e-18 5.77808e-18 542.92 0.00809117 1.81604e-18 6.37209 -0.0172768 0)
(3.67566e-14 0 -3.67691e-20 542.893 8.46545e-16 0.000144984 6.37178 -4.62169e-33 -7.28971e-05)
(-9.55126e-15 0 -8.98292e-21 583.44 -0.0099886 0.000175184 6.94836 0.0178456 4.60758e-06)
(0 -7.70372e-34 -1.81211e-20 583.415 0 9.1538e-06 6.94808 3.46945e-18 -6.91361e-05)
(-9.9495e-15 0 0 626.061 0.00885068 0 7.55284 -0.0186469 0)
(0 3.08149e-32 -1.78613e-20 626.041 4.47074e-16 0.00329731 7.55266 6.34562e-34 -7.39059e-05)
(0 -4.50697e-18 0 668.971 -0.00993117 0.000244515 8.16728 0.0224462 2.4558e-05)
(0 3.08149e-32 -1.76053e-20 668.962 -4.47204e-16 5.62816e-05 8.16725 -3.46945e-18 -4.63826e-05)
(-1.08716e-14 4.44237e-18 1.64652e-17 710.382 0.00937342 -1.8379e-18 8.76824 -0.0265622 0)
(0 1.54074e-33 -3.4706e-20 710.389 -6.16503e-34 -0.00147698 8.76845 -3.46945e-18 -7.5419e-05)
(-1.79352e-14 2.18935e-17 -6.84172e-20 747.527 -0.0092059 0.000376745 9.31125 0.0288028 1.72132e-05)
(-4.56185e-14 -1.99845e-17 5.13129e-20 747.556 -6.68132e-16 9.85951e-05 9.31175 0 -5.90721e-05)
(5.68291e-15 2.58957e-17 5.00513e-18 775.327 0.00867318 0.000649185 9.71205 -0.0313625 3.98147e-06)
(3.03021e-14 0 -6.74366e-20 775.386 1.38343e-15 -0.00111753 9.71299 -1.00068e-29 -7.73489e-05)
(0 2.12704e-17 -8.30876e-20 785.22 -0.00856344 0.0006874 9.83202 0.032189 1.31936e-05)
(0 -7.70372e-34 8.30876e-20 785.319 -9.48871e-31 0.000223941 9.83353 6.93889e-18 -7.10695e-05)
(-1.33843e-14 -1.67724e-17 -4.26701e-20 764.713 0.0058299 0.000885172 9.47497 -0.0332988 9.12829e-06)
(5.3536e-14 0 3.27587e-20 764.861 7.32087e-16 0.000998647 9.47719 0 -8.03428e-05)
(4.53078e-14 -1.65321e-17 2.88525e-20 698.496 -0.00877625 0.00131345 8.41134 0.0344417 2.46315e-05)
(3.98273e-14 -5.54668e-32 -1.61446e-20 698.701 -7.47011e-16 0.000394362 8.41439 6.93889e-18 -7.02107e-05)
(0 8.14755e-18 4.77396e-20 571.406 0.00152671 0.00162052 6.42541 -0.0359147 1.74344e-05)
(0 -5.23853e-32 -4.77396e-20 571.678 7.77156e-16 0.00127248 6.42942 -2.2614e-33 -8.64164e-05)
(1.6977e-14 -1.60616e-17 1.10667e-20 372.813 -0.00781533 0.0021411 3.38307 0.0374567 3.91798e-05)
(-3.28941e-14 1.07852e-31 -4.70553e-20 373.155 -1.61242e-15 0.00040715 3.38809 6.68697e-33 -7.22499e-05)
(-2.12969e-12 -1.58314e-17 -6.66804e-20 0.401248 -0.0013359 0.00241059 0.00268352 -0.039488 2.52068e-05)
(0 3.08149e-33 7.73015e-20 5.27635e-30 5.55112e-17 0.000690025 -1.05527e-29 -6.93889e-18 -9.81327e-05)
(2.60709e-12 0 -5.03683e-21 -103.024 -0.00278261 0.00266852 0.699034 0.0412776 4.73789e-05)
(0 3.08149e-33 0 -102.133 -5.83752e-17 0.000117207 0.69299 6.93889e-18 -8.34608e-05)
(-1.54048e-14 7.6904e-18 2.60254e-21 -600.839 -0.00177361 0.00268903 5.614 -0.0437169 2.65141e-05)
(6.16229e-14 0 -4.50609e-20 -600.296 8.81374e-16 -0.000647672 5.60697 5.50251e-33 -0.00011578)
(-1.39007e-14 1.51604e-17 -3.86828e-20 -972.789 0.00458215 0.00241172 10.969 0.0453829 4.09635e-05)
(-1.55242e-14 -6.18483e-32 0 -972.194 -8.91327e-16 -0.0003306 10.9611 -6.93889e-18 -0.000106124)
(-8.78169e-15 -2.24146e-17 -1.19713e-19 -1309.15 -0.00278143 0.00214134 16.2447 -0.0476923 1.95719e-05)
(-6.34733e-14 2.64758e-17 8.7557e-20 -1308.52 3.30947e-18 -0.00174623 16.236 0 -0.000135207)
(-1.98944e-14 -3.68222e-17 5.55261e-20 -1575.98 0.00942707 0.00147209 20.8928 0.0488953 2.27799e-05)
(7.95881e-14 0 -8.63021e-20 -1575.32 -9.12541e-16 -0.000597142 20.8835 4.58755e-30 -0.000133442)
(-2.32729e-14 -5.08123e-17 -2.00793e-19 -1749.96 -0.00681003 0.00108186 24.4487 -0.0505705 8.67863e-06)
(-4.59021e-14 1.40368e-17 1.41775e-19 -1749.29 1.93169e-15 -0.00146196 24.439 0 -0.00015021)
(-5.61008e-15 -5.0084e-17 1.94878e-18 -1821.81 0.0102982 2.83248e-18 26.6172 0.0513037 0)
(2.24457e-14 0 -1.39743e-19 -1821.17 9.78565e-16 0.00161971 26.6075 6.93889e-18 -0.000151878)
(3.61991e-15 2.11569e-17 1.01152e-19 -1796.04 -0.0114286 -0.000131678 27.3068 -0.0509374 5.7409e-06)
(0 -6.16298e-33 -8.26442e-20 -1795.47 3.48249e-17 0.000413612 27.2976 -6.93889e-18 -0.000138873)
(0 -5.56098e-17 2.05629e-20 -1687.91 0.0094415 -3.36472e-20 26.6176 0.0511587 0)
(7.47979e-15 0 -1.35766e-19 -1687.47 8.88178e-16 0.000860676 26.6097 4.66342e-30 -0.000147935)
(0 6.8516e-18 8.02922e-20 -1518.6 -0.0135762 -0.000469882 24.7888 -0.0505901 1.46879e-05)
(1.61419e-15 0 -8.02922e-20 -1518.35 -9.4369e-16 0.000146725 24.7832 -6.93889e-18 -0.000128923)
(0 1.35068e-17 -3.00927e-36 -1310.43 0.00874343 -2.2529e-33 16.6284 0.0505522 2.71051e-20)
(-3.45774e-15 1.2326e-32 0 -1310.44 -9.54409e-33 6.70559e-05 16.6284 -9.54409e-33 -0.000143401)
(0 -4.65963e-17 -1.04009e-19 -1083.35 -0.0128731 -0.000408411 7.15777 -0.0500745 1.48112e-05)
(0 1.65217e-14 1.04009e-19 -1083.67 -1.69309e-15 -4.53397e-06 7.15772 0 -0.000124537)
(0 0 4.87501e-34 -853.03 0.00807447 -3.44992e-18 -0.593378 0.0500178 5.4191e-36)
(0 0 0 -853.679 8.95119e-16 0.00327474 -0.593419 -6.93889e-18 -0.000140426)
(0 4.04198e-19 -3.15779e-20 -630.494 -0.00965615 -0.0168366 -6.60037 -0.00295719 -3.70987e-05)
(0 0 0 -631.372 0 1.24683e-18 -6.60041 4.33681e-19 2.70497e-33)
(0 1.19521e-18 -1.55627e-21 -422.734 0.00826676 -0.000239966 -5.40723 0.00250685 3.26599e-06)
(-3.04592e-15 0 0 -423.699 -6.90414e-17 -0.00431955 -5.42365 -5.78803e-34 -3.26599e-06)
(1.55011e-15 2.39106e-19 0 -233.727 -0.00781359 -0.000224825 -2.44866 -0.000365139 -3.28616e-06)
(0 0 0 -234.696 2.77556e-17 -5.41255e-20 -2.46488 4.0263e-35 -6.3289e-38)
(-2.13008e-12 7.74132e-19 -3.02395e-21 0 0.00716482 -0.000220424 -1.77636e-15 0.00174883 2.56741e-06)
(4.20944e-12 -5.00478e-15 0 -1.64742 0 -0.000310065 -0.0140825 2.1684e-19 -2.56742e-06)
(-1.75247e-12 -2.08567e-16 0 26.1747 3.93736e-19 -0.000196451 -0.227001 2.1684e-19 -2.59944e-06)
(3.56083e-12 1.90759e-19 -3.60744e-22 24.3804 -0.0641538 -1.39133e-20 -0.21144 -0.00142112 0)
(0 -3.7605e-19 1.46895e-21 205.571 0.00601838 -0.000189565 -2.59766 0.00117737 1.7774e-06)
(0 1.54074e-33 -1.46895e-21 204.765 -7.10194e-18 -0.000285815 -2.58297 -1.02099e-33 -1.77741e-06)
(2.76804e-16 -8.54309e-17 -1.44789e-21 308.925 -9.98304e-19 -0.00016629 -4.65213 -1.0842e-19 -1.81007e-06)
(0 1.8533e-19 -2.51196e-22 308.198 -0.0415915 2.51196e-22 -4.63848 -0.000946121 0)
(2.13172e-16 6.39359e-19 0 392.128 0.00503691 -0.000157727 -6.39095 0.000784938 1.09372e-06)
(0 -1.94576e-15 0 391.504 -1.37692e-17 -0.000237931 -6.37866 0 -1.09372e-06)
(0 -2.10552e-16 0 456.811 7.79487e-19 -0.000134309 -4.01739 -1.0842e-19 -1.12065e-06)
(0 0 -6.2208e-22 456.334 -0.0240827 -3.1104e-22 -4.01737 -0.000635836 0)
(0 -4.43688e-19 3.46631e-22 505.043 0.00429377 -0.000121385 0.467139 0.000539732 5.33924e-07)
(0 -3.85186e-34 0 504.773 -7.45436e-20 -0.000184062 0.467171 1.0842e-19 -1.98393e-07)
(0 -5.51339e-17 6.83326e-22 539.188 6.50521e-18 -9.64079e-05 5.39897 5.42101e-20 -5.51331e-07)
(0 -4.37329e-19 0 539.134 -0.0114923 0 5.39901 -0.000456342 1.05879e-22)
(0 6.89697e-19 1.0103e-21 561.594 0.00366805 -8.52612e-05 10.6675 0.000408224 1.38085e-07)
(0 -8.95613e-19 -7.65332e-22 561.702 6.1841e-18 8.68749e-06 10.6675 0 7.81443e-07)
(0 -4.51429e-17 0 574.298 -4.77049e-18 -6.87488e-05 11.3435 0 -1.43321e-07)
(0 8.49765e-20 0 574.512 -0.00305001 4.21892e-05 11.3485 -0.000368831 8.61854e-07)
(-1.43307e-15 -1.25638e-18 -1.96309e-21 578.871 0.00311712 -2.0352e-06 11.525 0.000358491 -5.36659e-07)
(5.72911e-15 0 -9.62965e-35 579.143 4.93765e-20 3.20186e-22 11.5308 0 0)
(-7.63685e-15 -7.33091e-17 6.44985e-22 576.325 -4.81845e-18 8.19267e-05 11.573 0 -1.61668e-08)
(-8.90202e-15 -3.30232e-19 -1.33832e-21 576.617 -0.00134541 -3.95154e-06 11.5789 -0.000348399 3.41522e-07)
(3.04171e-15 -6.10311e-19 0 567.117 0.00260568 9.71436e-05 11.4855 0.000328317 1.14615e-08)
(1.21637e-14 -9.62965e-35 6.33146e-22 567.403 4.33681e-19 1.2209e-05 11.4912 5.42101e-20 3.10346e-07)
(-3.87116e-15 -6.09685e-17 1.25326e-21 551.255 4.41986e-18 0.000124032 11.2529 5.42101e-20 -1.59966e-08)
(1.54817e-14 -8.42189e-19 -9.68682e-22 551.52 -0.00256563 1.26381e-05 11.2582 -0.00030208 2.10275e-07)
(-4.70647e-15 -3.95294e-20 0 528.474 0.00213241 0.000146403 10.8616 0.000286983 9.23569e-09)
(0 -1.25271e-16 0 528.713 3.86369e-18 7.87578e-05 10.8664 -5.42101e-20 3.04359e-07)
(-5.53845e-15 -2.61578e-17 0 498.453 3.93926e-18 0.000172901 10.2986 0 -1.60511e-08)
(0 2.7274e-19 0 498.663 -0.00226217 0.000143385 10.3028 -0.000263252 1.61072e-08)
(-6.35623e-15 -5.37662e-19 -1.20014e-21 461.034 0.0017136 0.000187937 9.55619 0.000249142 7.00212e-09)
(2.54228e-14 -1.2326e-32 0 461.218 1.8267e-19 0.00018792 9.55992 0 -7.03865e-09)
(7.14697e-15 -6.87092e-17 0 416.444 -5.88638e-18 0.000198671 8.63731 0 -1.61958e-08)
(0 5.29956e-19 0 416.605 -0.00199959 0.000198899 8.64063 -0.000231371 1.6255e-08)
(9.78098e-15 -3.35803e-19 0 365.434 0.00141396 0.000193386 7.55797 0.000214411 4.82258e-09)
(0 -7.70372e-34 0 365.576 2.63142e-18 0.000193378 7.56093 7.76701e-35 -4.86271e-09)
(-8.58872e-15 -1.87665e-17 0 309.318 2.79376e-20 0.000180388 6.34764 0 -1.64143e-08)
(0 5.5165e-19 0 309.443 -0.00172018 0.000180598 6.35029 -0.00020439 1.64784e-08)
(0 -1.34123e-18 2.2656e-21 249.914 0.00120641 0.00015133 5.04858 0.000183604 2.74252e-09)
(7.36738e-14 2.46519e-32 0 250.024 2.1684e-18 0.000151324 5.05095 1.84424e-32 -2.78847e-09)
(-9.36642e-15 -1.41544e-17 -2.23313e-21 189.459 0 0.000118048 3.71405 -2.71051e-20 -1.66161e-08)
(3.89794e-14 2.8584e-19 0 189.556 -0.00138264 0.000118235 3.71616 -0.000180652 1.66877e-08)
(-1.94172e-14 1.19741e-18 -2.20112e-21 130.397 0.00109127 7.64054e-05 2.40185 0.000158538 8.37497e-10)
(-4.07391e-14 -1.13989e-16 0 130.481 -4.31141e-20 7.63936e-05 2.4037 0 -8.9212e-10)
(-1.4229e-15 -1.0361e-17 3.73888e-19 75.1289 -1.84314e-18 5.63139e-06 1.16975 0 -1.6726e-08)
(-4.20901e-14 -4.51271e-19 -1.75491e-18 75.2011 -0.00108591 -6.78559e-21 1.17134 -0.000158333 0)
(4.58375e-13 5.30343e-19 0 5.85926 0.00101168 -1.27273e-07 0.0708252 0.000138788 -8.46652e-10)
(0 -3.27163e-19 -4.27696e-21 5.96865 1.48028e-18 -1.46242e-07 0.0721476 0 7.79967e-10)
(3.56855e-13 -1.66471e-17 5.2554e-19 -0.0115444 1.51788e-18 -5.47166e-06 0.000141575 0 -1.67187e-08)
(6.31089e-30 -2.19214e-19 1.46937e-39 -8.56776e-13 -0.000875148 -1.85633e-22 -7.47407e-30 -0.000136782 -1.61936e-39)
(-6.83426e-15 1.19671e-18 -4.15524e-21 -48.4486 0.000906391 -5.12261e-05 0.851498 0.000122729 -2.31221e-09)
(0 0 0 -48.4121 -1.83732e-19 -5.12497e-05 0.850451 0 2.22899e-09)
(0 -1.37848e-17 0 -71.5208 -1.19262e-18 -6.18437e-05 1.56481 1.35525e-20 -1.66204e-08)
(8.3093e-14 1.83486e-18 0 -71.496 -0.000732619 -6.17262e-05 1.56405 -0.000116782 1.67389e-08)
(8.46616e-15 -1.93775e-19 0 -84.8839 0.000740559 -6.71462e-05 2.04985 0.000109004 -3.6129e-09)
(8.14164e-14 0 0 -84.8706 1.22188e-18 -6.71679e-05 2.04937 1.35525e-20 3.50739e-09)
(-1.99653e-14 2.88889e-34 0 -88.8912 1.11098e-18 -6.3792e-05 2.30015 -1.35525e-20 -1.65131e-08)
(0 1.27332e-19 0 -88.8888 -0.000645011 -6.36847e-05 2.29996 -0.000100069 1.66592e-08)
(-9.81898e-15 0 0 -84.2561 0.000587444 -5.84064e-05 2.31967 9.64714e-05 -4.84995e-09)
(7.85517e-14 -3.85186e-34 0 -84.2639 -9.75782e-19 -5.84177e-05 2.31975 -5.34789e-35 4.71436e-09)
(9.69928e-15 -1.54067e-17 0 -71.9577 -8.44367e-19 -4.89117e-05 2.12137 0 -1.65105e-08)
(0 4.02051e-19 0 -71.9744 -0.000582138 -4.88043e-05 2.1217 -8.6586e-05 1.6693e-08)
(-9.63458e-15 1.37177e-19 0 -53.1399 0.000478569 -4.02164e-05 1.72496 8.46672e-05 -6.15445e-09)
(0 -4.81482e-35 0 -53.1642 -1.0842e-19 -4.02081e-05 1.72553 1.35525e-20 5.97866e-09)
(-9.63355e-15 -9.62965e-35 0 -29.05 0 -2.9764e-05 1.15484 -6.60096e-35 -1.6745e-08)
(3.85338e-14 -4.65726e-19 0 -29.0801 -0.000511928 -2.96457e-05 1.15559 -7.53907e-05 1.69752e-08)
(-2.96149e-14 3.99818e-19 0 -0.00156355 0.000412824 -2.04651e-05 0.439476 7.39414e-05 -7.67772e-09)
(3.88087e-14 6.01853e-36 0 -0.00212429 6.50521e-19 -2.04286e-05 0.440377 0 7.44847e-09)
(-1.92207e-14 0 0 27.4848 -5.42101e-20 -8.29065e-06 1.29656 -1.35525e-20 -1.7352e-08)
(0 6.56813e-20 0 27.415 -0.000420544 -5.95232e-06 1.29555 -6.54674e-05 1.76444e-08)
(-9.56895e-15 4.02826e-19 0 61.4389 0.00034984 3.88263e-06 2.24279 6.50494e-05 -9.57367e-09)
(0 -1.44283e-17 0 61.4043 -5.96311e-19 3.95465e-06 2.24181 0 9.27394e-09)
(0 -5.37275e-18 0 92.9408 0 1.96503e-05 3.18548 -6.77626e-21 -1.84581e-08)
(-3.83754e-14 4.75045e-19 0 92.9091 -0.000343227 1.98181e-05 3.18461 -5.68685e-05 1.88313e-08)
(9.69081e-15 -5.38123e-19 0 122.631 0.000318387 3.78807e-05 4.07835 5.77795e-05 -1.19762e-08)
(3.87637e-14 0 0 122.604 5.42101e-20 3.79924e-05 4.07763 6.77626e-21 1.15838e-08)
(9.86346e-15 -7.86438e-18 0 148.996 -4.33681e-19 5.86025e-05 4.87326 0 -2.01515e-08)
(-3.94541e-14 4.75302e-19 0 148.975 -0.000331043 5.88023e-05 4.87274 -4.8786e-05 2.06298e-08)
(-1.01114e-14 4.00593e-19 0 170.592 0.000250703 7.82587e-05 5.52289 5.03297e-05 -1.49663e-08)
(4.04459e-14 1.20371e-34 -3.39486e-21 170.578 -4.33681e-19 7.841e-05 5.52259 -3.05847e-35 1.44524e-08)
(0 -1.35413e-18 0 186.131 -2.71051e-20 9.9788e-05 5.98331 -6.77626e-21 -2.24627e-08)
(0 -4.08236e-19 0 186.125 -0.000270527 0.000100017 5.98324 -4.23756e-05 2.30772e-08)
(-2.76676e-14 6.72841e-19 -3.29824e-21 194.573 0.000197475 0.000120282 6.21786 4.42527e-05 -1.85422e-08)
(4.32535e-14 2.40741e-35 0 194.574 -2.71051e-20 0.000120466 6.21801 -6.77626e-21 1.78691e-08)
(1.12472e-14 -4.62471e-18 0 195.235 -2.98156e-19 0.000141946 6.20101 0 -2.5315e-08)
(0 4.74641e-19 0 195.243 -0.000224808 0.000142196 6.20136 -3.73327e-05 2.61066e-08)
(0 5.38335e-19 0 187.879 0.000191513 0.000164733 5.92179 3.92297e-05 -2.25914e-08)
(-4.68646e-14 -6.50136e-18 0 187.892 1.76969e-20 0.000164937 5.92232 6.77626e-21 2.17096e-08)
(-1.32475e-14 -1.01917e-18 -3.15845e-21 172.759 2.1684e-19 0.00019196 5.38553 -3.38813e-21 -2.85155e-08)
(0 2.71626e-19 0 172.777 -0.000166669 0.000192214 5.38619 -3.22433e-05 2.95374e-08)
(0 5.41693e-19 0 150.645 0.000207458 0.000225202 4.61564 3.5778e-05 -2.68969e-08)
(0 -6.72026e-18 0 150.667 -1.03972e-20 0.000225407 4.6164 0 2.57415e-08)
(1.31361e-14 -3.37336e-20 0 122.786 0 0.000268071 3.65216 -3.38813e-21 -3.17694e-08)
(0 -1.08627e-18 0 122.809 -0.000111289 0.000268312 3.65298 -2.63986e-05 3.30902e-08)
(1.35426e-14 5.38375e-19 0 90.8203 0.000205207 0.00032121 2.54941 3.39364e-05 -3.11737e-08)
(0 -6.31547e-18 0 90.8444 -2.43945e-19 0.000321397 2.55024 0 2.966e-08)
(-2.77661e-14 0 0 56.6467 2.37169e-19 0.000386376 1.37143 2.30785e-36 -3.47366e-08)
(5.55317e-14 0 0 56.6705 -8.85128e-05 0.000386587 1.37225 -2.03978e-05 3.64428e-08)
(7.80251e-14 0 0 10.5662 0.000141915 0.000459947 0.185898 3.27078e-05 -3.51456e-08)
(0 0 0 10.61 -1.5007e-34 0.000460103 0.186669 3.38813e-21 3.31628e-08)
(2.43643e-13 -1.60763e-18 0 -0.0191225 -8.13152e-20 0.000539669 0.000341325 0 -3.71319e-08)
(-1.57772e-30 -3.38877e-19 -1.15855e-20 -7.94032e-13 -0.000120893 0.00053984 0 -1.64072e-05 3.9332e-08)
(0 5.42425e-19 0 -39.8512 2.41516e-05 0.000617337 0.941196 3.02062e-05 -3.86439e-08)
(0 -2.00229e-19 0 -39.8332 1.83464e-19 0.000617456 0.940498 0 3.60495e-08)
(-1.18026e-14 -2.25905e-18 -2.25116e-20 -64.6587 2.97286e-21 0.000684671 1.95276 -1.69407e-21 -3.88104e-08)
(0 -3.37674e-19 -1.12558e-20 -64.6436 -0.000224708 0.000684803 1.95216 -1.6548e-05 4.1642e-08)
(0 5.40856e-19 0 -84.1109 -9.57039e-05 0.000731935 2.8051 2.37768e-05 -4.16702e-08)
(8.39083e-14 0 -2.2189e-20 -84.099 -1.0842e-19 0.000732023 2.80461 8.55722e-34 3.82821e-08)
(-2.61272e-14 0 0 -97.9437 0 0.000749089 3.47083 -1.69407e-21 -3.97983e-08)
(5.22546e-14 0 0 -97.935 -0.000333372 0.00074919 3.47044 -2.11469e-05 4.34403e-08)
(1.27249e-14 -3.38857e-19 2.15575e-20 -106.387 -0.000203075 0.000725788 3.94122 1.30353e-05 -4.4398e-08)
(0 -9.62965e-35 0 -106.381 -2.71051e-20 0.000725856 3.94095 0 3.99881e-08)
(0 -4.24305e-18 0 -110.076 1.6924e-19 0.00065737 4.22516 0 -4.02419e-08)
(-4.95692e-14 -6.90576e-20 0 -110.073 -0.00035465 0.000657453 4.225 -2.99845e-05 4.49315e-08)
(-1.2074e-14 -1.08385e-18 0 -109.934 -0.000177977 0.000542898 4.34601 1.18453e-06 -4.70866e-08)
(4.82958e-14 7.70372e-34 0 -109.933 1.8913e-33 0.000542958 4.34593 -7.89865e-06 4.13738e-08)
(0 -2.56927e-18 0 -107.043 -2.1684e-19 0.00038667 4.33759 6.77626e-21 -4.0286e-08)
(-1.08233e-14 -3.40622e-19 -4.12875e-20 -107.044 -0.000262612 0.000386745 4.33758 -3.80799e-05 4.63405e-08)
(0 -4.06958e-19 4.06958e-20 -102.524 -3.99087e-05 0.000197566 4.24001 -7.2566e-06 -4.99956e-08)
(0 -4.79313e-21 0 -102.525 -2.35813e-19 0.000197627 4.24005 -1.72691e-05 4.26347e-08)
(-1.12295e-14 1.30903e-34 0 -97.3996 4.77138e-19 -9.01199e-06 4.09451 -6.77626e-21 -3.99792e-08)
(0 0 -9.29972e-38 -97.4013 -5.67518e-05 -3.35058e-22 4.09458 -4.0792e-05 0)
(-1.15913e-14 -1.49502e-18 1.97688e-20 -92.5108 0.000171171 -0.000216201 3.93847 -7.34489e-06 -5.33062e-08)
(8.78233e-14 -2.56134e-21 0 -92.5123 -1.35525e-19 -0.000216141 3.93854 -1.84564e-05 4.38694e-08)
(2.0432e-14 -3.96235e-21 0 -88.4649 2.05585e-19 -0.000405214 3.80236 0 -3.92094e-08)
(-2.0432e-14 -2.04597e-19 0 -88.4658 0.000150613 -0.000405146 3.80241 -3.47595e-05 4.93618e-08)
(-1.00696e-14 4.08131e-19 -1.92062e-20 -85.6202 0.00032037 -0.000561276 3.70784 1.51362e-06 -5.71109e-08)
(0 -1.60361e-19 0 -85.6203 -5.42101e-20 -0.000561221 3.70786 -1.09067e-05 4.50593e-08)
(-3.07201e-14 6.24423e-35 0 -84.0925 1.11682e-19 -0.000673231 3.66692 1.8684e-36 -3.77273e-08)
(8.19203e-14 1.62569e-18 0 -84.0918 0.000246042 -0.000673172 3.66691 -2.21485e-05 5.08651e-08)
(0 -1.6263e-18 0 -83.787 0.000335915 -0.000736248 3.68198 1.4995e-05 -6.1443e-08)
(7.98597e-14 0 0 -83.7854 5.47683e-20 -0.000736206 3.68193 4.66134e-33 4.60875e-08)
(-9.71343e-15 9.40395e-38 0 -84.4485 1.82462e-20 -0.000751053 3.74705 1.13884e-37 -3.52123e-08)
(0 -4.73598e-19 0 -84.4464 0.000200053 -0.000751009 3.74697 -8.51185e-06 5.21615e-08)
(-7.25285e-17 -1.62477e-18 0 -85.7176 0.000236635 -0.000723491 3.84978 2.70581e-05 -6.63539e-08)
(8.49611e-14 1.54074e-33 0 -85.715 0 -0.000723465 3.84967 0 4.68111e-08)
(0 -7.52316e-36 0 -87.1866 1.35525e-20 -0.000662454 3.97347 5.83346e-06 -3.13357e-08)
(3.65567e-14 1.08385e-18 0 -87.1838 7.67729e-05 -0.000662428 3.97334 9.64609e-07 5.31131e-08)
(-3.96859e-16 -5.41588e-19 0 -88.4594 8.47386e-05 -0.000580364 4.09955 3.41015e-05 -7.19957e-08)
(9.23408e-15 0 0 -88.4567 -8.80914e-20 -0.000580355 4.09942 -7.51604e-35 4.71394e-08)
(1.70594e-14 -4.10418e-21 0 -89.193 1.28749e-19 -0.000487782 4.21029 7.39344e-06 -2.57996e-08)
(3.41189e-14 -2.71253e-19 0 -89.1907 -4.38706e-05 -0.000487774 4.21017 3.55596e-06 5.36631e-08)
(0 4.06395e-19 0 -89.1241 -1.88018e-05 -0.000394459 4.29006 3.60437e-05 -7.86726e-08)
(0 -1.92593e-34 -4.27784e-21 -89.1222 -8.36514e-21 -0.000394464 4.28996 0 4.70816e-08)
(0 -8.92637e-19 4.21653e-21 -88.0918 2.71051e-20 -0.000307546 4.32691 3.5458e-06 -1.83233e-08)
(3.16625e-14 6.10342e-19 0 -88.0906 -0.00011332 -0.000252744 4.32683 1.18905e-06 5.38366e-08)
(1.52362e-14 -5.4237e-19 0 -86.0437 -6.01993e-05 -0.000231895 4.31374 3.51907e-05 -8.68591e-08)
(0 0 0 -86.0433 -6.77626e-20 -7.29727e-05 4.3137 7.5269e-35 1.4005e-06)
(1.59234e-14 -1.31386e-18 -4.09652e-21 -83.0247 -1.52372e-20 -0.000169317 4.24836 0 -8.61171e-09)
(2.93296e-14 1.08404e-18 6.0195e-21 -83.0251 -0.000121875 1.12337e-05 4.24836 -3.33109e-06 5.52732e-07)
(-1.69358e-14 -1.08415e-18 -6.05672e-21 -79.1642 -5.34937e-05 -0.000120147 4.13308 3.45668e-05 -9.71808e-08)
(4.51822e-14 0 9.03875e-21 -79.1653 -3.73421e-20 1.10647e-05 4.13312 4.31923e-34 5.80823e-07)
(-6.80782e-15 -2.36219e-19 0 -74.6609 0 -6.24185e-05 3.97451 -1.69407e-21 3.71314e-09)
(-2.72312e-14 2.02977e-19 -3.78796e-21 -74.6626 -0.000100395 1.08771e-05 3.97458 -7.66127e-06 5.49289e-07)
(-1.47989e-14 -4.90362e-22 -1.96145e-21 -69.7577 -2.7151e-05 -7.3926e-06 3.78277 3.58831e-05 4.30609e-07)
(0 0 1.96145e-21 -69.7598 -1.35525e-20 1.06511e-05 3.78288 3.76324e-35 5.73836e-07)
(-6.3537e-15 -1.60985e-19 0 -64.7191 -8.80914e-20 6.75801e-06 3.57023 0 1.30784e-06)
(-2.54147e-14 2.70667e-19 -2.83718e-21 -64.7215 -7.5538e-05 1.04137e-05 3.57036 -1.07412e-05 5.39795e-07)
(7.99277e-15 -2.71075e-19 -1.90563e-21 -59.8151 -3.78582e-06 7.26447e-06 3.35073 3.95946e-05 1.59633e-06)
(0 0 3.81125e-21 -59.8175 2.63269e-34 1.01187e-05 3.35086 -5.17171e-07 5.58407e-07)
(0 -1.07e-19 -1.87831e-21 -55.3069 0 6.57724e-06 3.13877 0 2.20445e-06)
(4.7706e-14 6.09513e-19 1.3728e-20 -55.309 -5.52615e-05 9.83699e-06 3.1389 -1.26362e-05 5.24362e-07)
(-5.78499e-15 5.41995e-19 3.70278e-21 -51.4346 1.23259e-05 7.19171e-06 2.94893 4.57792e-05 2.21981e-06)