/*--------------------------------*- C++ -*----------------------------------*\
| =========                 |                                                 |
| \\      /  F ield         | OpenFOAM: The Open Source CFD Toolbox           |
|  \\    /   O peration     | Version:  2012                                  |
|   \\  /    A nd           | Website:  www.openfoam.com                      |
|    \\/     M anipulation  |                                                 |
\*---------------------------------------------------------------------------*/
FoamFile
{
    version     2.0;
    format      ascii;
    class       volVectorField;
    location    "11700";
    object      U;
}
// * * * * * * * * * * * * * * * * * * * * * * * * * * * * * * * * * * * * * //

dimensions      [0 1 -1 0 0 0 0];


internalField   nonuniform List<vector> 
2560
(
(0.0281811 -2.61922e-05 0.000508188)
(0.0281481 -1.20714e-05 5.4901e-08)
(0.0846976 -1.18206e-05 0.000732656)
(0.0845991 1.76687e-05 1.77491e-08)
(0.141835 -2.53844e-05 0.000530598)
(0.141672 2.82476e-05 6.27196e-09)
(0.199596 -3.47611e-05 0.000281347)
(0.199372 3.45086e-05 2.11463e-09)
(0.257988 -3.802e-05 0.000148835)
(0.257708 3.79888e-05 4.93232e-10)
(0.317018 -4.0002e-05 9.01438e-05)
(0.316688 3.99449e-05 1.39317e-10)
(0.376654 -4.1347e-05 6.17044e-05)
(0.376279 4.13166e-05 1.28943e-10)
(0.436836 -4.23308e-05 4.6011e-05)
(0.436422 4.22454e-05 1.99738e-11)
(0.4975 -4.30839e-05 3.63809e-05)
(0.497052 4.30999e-05 9.18016e-11)
(0.558647 -4.3727e-05 2.99865e-05)
(0.55817 4.36332e-05 6.51327e-12)
(0.62035 -4.42448e-05 2.54841e-05)
(0.619849 4.4306e-05 8.26246e-11)
(0.682633 -4.47212e-05 2.21695e-05)
(0.682114 4.46271e-05 -3.79761e-21)
(0.745525 -4.50967e-05 1.96431e-05)
(0.744993 4.52276e-05 8.33384e-11)
(0.809088 -4.55272e-05 1.76531e-05)
(0.808546 5.89027e-05 5.01872e-08)
(0.873309 -4.59755e-05 1.60799e-05)
(0.872762 1.90975e-05 -3.08815e-37)
(0.938093 -4.60547e-05 1.47643e-05)
(0.937545 0.000101363 1.19136e-07)
(1.0033 -4.69956e-05 1.37225e-05)
(1.00275 -3.91217e-05 6.69764e-10)
(1.06878 -4.63939e-05 1.28235e-05)
(1.06824 0.000136578 4.2417e-08)
(1.13454 -4.77628e-05 1.20707e-05)
(1.134 -5.19488e-05 9.26229e-10)
(1.20078 -4.65817e-05 1.14167e-05)
(1.20025 0.000150568 4.12417e-08)
(1.26782 -4.86601e-05 1.08617e-05)
(1.2673 -6.47302e-05 6.57081e-10)
(1.33584 -4.66731e-05 1.037e-05)
(1.33534 0.000164357 3.95103e-08)
(1.40487 -4.95564e-05 9.94952e-06)
(1.40438 -7.74102e-05 3.611e-36)
(1.47487 -4.65585e-05 9.54523e-06)
(1.47439 0.000204631 1.48768e-07)
(1.54582 -5.06308e-05 9.24859e-06)
(1.54535 -0.000143454 1.5733e-21)
(1.6177 -4.6367e-05 8.92435e-06)
(1.61725 0.000275939 1.80869e-07)
(1.69052 -5.19295e-05 8.70823e-06)
(1.69008 -0.00022002 1.99412e-09)
(1.76423 -4.59566e-05 8.4762e-06)
(1.7638 0.00032686 7.93186e-08)
(1.83876 -5.33703e-05 8.28982e-06)
(1.83835 -0.000244889 3.97683e-09)
(1.91405 -4.52452e-05 8.1061e-06)
(1.91365 0.000353078 8.17317e-08)
(1.99012 -5.50485e-05 7.96246e-06)
(1.98973 -0.000270674 3.65493e-09)
(2.06715 -4.42145e-05 7.81537e-06)
(2.06678 0.000379704 7.76032e-08)
(2.14556 -5.70475e-05 7.7036e-06)
(2.1452 -0.000296287 1.65912e-09)
(2.22596 -4.27701e-05 7.58499e-06)
(2.2256 0.000405989 7.19737e-08)
(2.309 -5.9465e-05 7.49866e-06)
(2.30865 -0.000321354 1.25219e-21)
(2.3953 -4.08635e-05 7.36769e-06)
(2.39496 0.000463291 2.24771e-07)
(2.48526 -6.24623e-05 7.3434e-06)
(2.48492 -0.000409817 3.98471e-37)
(2.57908 -3.84271e-05 7.11585e-06)
(2.57874 0.000652644 7.38064e-07)
(2.67674 -6.61053e-05 7.24226e-06)
(2.67641 -0.000701828 0)
(2.77812 -3.53821e-05 6.99212e-06)
(2.7778 0.000983173 9.66322e-07)
(2.8831 -7.03755e-05 7.19629e-06)
(2.88278 -0.00107459 1.17961e-21)
(2.99179 -3.1725e-05 7.01481e-06)
(2.99146 0.00132084 8.13332e-07)
(3.10474 -7.52181e-05 7.19899e-06)
(3.10441 -0.00137978 0)
(3.22309 -2.74669e-05 7.13298e-06)
(3.22276 0.00155396 4.39427e-07)
(3.3486 -8.06103e-05 7.23926e-06)
(3.34826 -0.00154072 -1.1589e-21)
(3.48336 -2.26183e-05 7.23039e-06)
(3.48302 0.00168549 2.75667e-07)
(3.6295 -8.66296e-05 7.30974e-06)
(3.62915 -0.00164122 1.99316e-36)
(3.7888 -1.71038e-05 7.29544e-06)
(3.78844 0.00180149 3.6181e-07)
(3.96251 -9.33814e-05 7.41063e-06)
(3.96214 -0.00177148 -2.11333e-37)
(4.15133 -1.08339e-05 6.94806e-06)
(4.15096 0.00225527 2.28973e-06)
(4.35552 -0.000100457 7.56201e-06)
(4.35514 -0.00255594 1.15974e-21)
(4.57472 -3.90493e-06 7.36396e-06)
(4.57435 0.00288401 1.43657e-06)
(4.8075 -0.000107466 7.79429e-06)
(4.80715 -0.00302896 3.91462e-08)
(5.0503 2.95891e-06 7.89383e-06)
(5.04997 0.00321576 7.66522e-07)
(5.2961 -0.000114439 8.22367e-06)
(5.29581 -0.00321562 1.68923e-07)
(5.53298 8.37298e-06 8.45187e-06)
(5.53274 0.00343561 1.41021e-06)
(5.74326 -0.000121886 9.06766e-06)
(5.7431 -0.00346977 4.05278e-07)
(5.9039 1.12663e-05 9.50352e-06)
(5.90384 0.00373422 2.25764e-06)
(5.98847 -0.000129012 1.0483e-05)
(5.98854 -0.00381997 6.48691e-07)
(5.971 1.24061e-05 1.11132e-05)
(5.97121 0.00411516 2.74587e-06)
(5.83065 -0.00013297 1.22977e-05)
(5.83104 -0.0042389 6.98302e-07)
(5.55642 1.32902e-05 1.29605e-05)
(5.55701 0.00452481 2.32656e-06)
(5.15031 -0.000131874 1.39846e-05)
(5.15111 -0.00463754 4.42057e-07)
(4.62798 1.3416e-05 1.44739e-05)
(4.62902 0.00487592 1.10767e-06)
(4.01677 -0.00012716 1.50434e-05)
(4.01805 -0.00493007 0)
(3.35134 1.04574e-05 1.52604e-05)
(3.35286 0.00511971 4.98111e-08)
(2.66867 -0.000121486 1.51168e-05)
(2.67042 -0.00497245 1.20643e-06)
(2.00323 3.73446e-06 1.51629e-05)
(2.00518 0.00511194 3.45736e-07)
(1.38351 -0.000116064 1.47957e-05)
(1.3856 -0.00494314 1.87919e-06)
(0.830345 -5.08961e-06 1.48025e-05)
(0.83249 0.00506011 4.37631e-07)
(0.356842 -0.000110774 1.44322e-05)
(0.358927 -0.00489687 1.9531e-06)
(-0.0306161 -1.38652e-05 1.44807e-05)
(-0.0287284 0.00501544 4.11962e-07)
(-0.330801 -0.000105621 9.53958e-07)
(-0.329242 -0.000190303 4.63697e-06)
(-0.54612 -2.04928e-05 7.94991e-07)
(-0.544951 0.000270977 4.68392e-07)
(-0.6813 -9.99434e-05 7.5553e-07)
(-0.680543 -0.000109072 1.08415e-06)
(-0.742517 -2.59689e-05 6.04756e-07)
(-0.742165 0.000200648 3.48016e-07)
(-0.736842 -9.48499e-05 5.67929e-07)
(-0.736879 -4.72195e-05 8.27873e-07)
(-0.6719 -3.06796e-05 4.33681e-07)
(-0.672305 0.00014821 2.55941e-07)
(-0.555597 -9.04492e-05 4.01877e-07)
(-0.556343 -4.11942e-06 5.82883e-07)
(-0.395823 -3.47451e-05 2.84624e-07)
(-0.396876 0.000113028 1.75253e-07)
(-0.200213 -8.66644e-05 2.597e-07)
(-0.201523 2.31252e-05 3.71765e-07)
(0.0241045 -3.82888e-05 1.60686e-07)
(0.0226133 9.20476e-05 1.40848e-07)
(0.270732 -8.33362e-05 1.47167e-07)
(0.26917 3.77472e-05 2.023e-07)
(0.534146 -4.1286e-05 6.90449e-08)
(0.532605 8.18897e-05 1.91319e-07)
(0.809652 -8.04027e-05 6.59024e-08)
(0.808195 4.35658e-05 2.10855e-07)
(1.09324 -4.38307e-05 1.68234e-09)
(1.09191 7.94564e-05 2.32402e-07)
(1.38136 -7.78337e-05 6.48117e-08)
(1.38018 4.30411e-05 2.23864e-07)
(1.67069 -4.60253e-05 8.34467e-08)
(1.66965 7.86281e-05 2.28538e-07)
(1.95783 -7.56283e-05 1.64006e-07)
(1.95693 4.54687e-05 2.36296e-07)
(2.23915 -4.79821e-05 2.11118e-07)
(2.23838 7.64452e-05 2.41553e-07)
(2.51069 -7.37829e-05 3.17613e-07)
(2.51004 4.75074e-05 3.19222e-07)
(2.76816 -4.97752e-05 3.94438e-07)
(2.76761 7.44472e-05 3.93734e-07)
(3.00706 -7.22732e-05 5.20364e-07)
(3.00661 4.91872e-05 5.21987e-07)
(3.22299 -5.14225e-05 6.11252e-07)
(3.22263 7.26139e-05 6.10765e-07)
(3.41194 -7.09976e-05 7.34965e-07)
(3.41165 5.06113e-05 7.36611e-07)
(3.57063 -5.28827e-05 8.13791e-07)
(3.57041 7.09852e-05 8.13512e-07)
(3.69685 -6.98746e-05 9.07735e-07)
(3.69668 5.18638e-05 9.09401e-07)
(3.7897 -5.40642e-05 9.50065e-07)
(3.78958 6.96512e-05 9.49975e-07)
(3.84975 -6.88136e-05 9.975e-07)
(3.84968 5.30367e-05 9.99178e-07)
(3.87899 -5.49874e-05 9.94656e-07)
(3.87896 6.85896e-05 9.94734e-07)
(3.88076 -6.77829e-05 9.97387e-07)
(3.88076 5.41633e-05 9.99064e-07)
(3.85947 -5.5733e-05 9.59174e-07)
(3.8595 6.77183e-05 9.59397e-07)
(3.82035 -6.68222e-05 9.33744e-07)
(3.8204 5.5205e-05 9.35413e-07)
(3.76911 -5.63679e-05 8.80912e-07)
(3.76917 6.69688e-05 8.81264e-07)
(3.7116 -6.60189e-05 8.47898e-07)
(3.71167 5.60758e-05 8.49558e-07)
(3.65361 -5.69486e-05 7.97908e-07)
(3.65367 6.6283e-05 7.98381e-07)
(3.60058 -6.53708e-05 7.71077e-07)
(3.60063 5.67791e-05 7.72739e-07)
(3.55745 -5.74978e-05 7.32412e-07)
(3.55749 6.56371e-05 7.33012e-07)
(3.52858 -6.48313e-05 7.16679e-07)
(3.5286 5.73626e-05 7.18368e-07)
(3.51759 -5.79973e-05 6.91373e-07)
(3.51759 6.50476e-05 6.92122e-07)
(3.52733 -6.43499e-05 6.88259e-07)
(3.5273 5.78775e-05 6.90013e-07)
(3.55974 -5.84088e-05 6.79587e-07)
(3.55969 6.45517e-05 6.80519e-07)
(3.61581 -6.39298e-05 6.94007e-07)
(3.61574 5.83217e-05 6.95877e-07)
(3.69545 -5.87426e-05 7.08242e-07)
(3.69535 6.41381e-05 7.09407e-07)
(3.79741 -6.35308e-05 7.50253e-07)
(3.79729 5.87359e-05 7.523e-07)
(3.91924 -5.90885e-05 7.96235e-07)
(3.91911 6.37161e-05 7.97689e-07)
(4.05731 -6.32108e-05 8.69627e-07)
(4.05718 5.90628e-05 8.71915e-07)
(4.2069 -5.93687e-05 9.50461e-07)
(4.20676 6.33628e-05 9.5226e-07)
(4.36234 -6.29549e-05 1.05836e-06)
(4.36221 5.93177e-05 1.06095e-06)
(4.51737 -5.9599e-05 1.17626e-06)
(4.51724 6.30615e-05 1.17845e-06)
(4.66541 -6.26924e-05 1.32436e-06)
(4.6653 5.95717e-05 1.32728e-06)
(4.80005 -5.97534e-05 1.4906e-06)
(4.79996 6.28375e-05 1.4932e-06)
(4.91544 -6.23882e-05 1.69864e-06)
(4.91537 5.98605e-05 1.70191e-06)
(5.00675 -5.98302e-05 1.94251e-06)
(5.00669 6.26919e-05 1.9455e-06)
(5.07048 -6.2072e-05 2.24812e-06)
(5.07045 6.01543e-05 2.25172e-06)
(5.10477 -5.98793e-05 2.61297e-06)
(5.10475 6.25742e-05 2.61632e-06)
(5.10941 -6.18524e-05 3.05792e-06)
(5.10942 6.03451e-05 3.06179e-06)
(5.08588 -5.99956e-05 3.57678e-06)
(5.08591 6.23893e-05 3.58043e-06)
(5.03707 -6.18354e-05 4.17643e-06)
(5.0371 6.0327e-05 4.18053e-06)
(4.96694 -6.03121e-05 4.83511e-06)
(4.96699 6.20034e-05 4.83899e-06)
(4.88017 -6.20372e-05 5.54106e-06)
(4.88023 6.00839e-05 5.54533e-06)
(4.78164 -6.08487e-05 6.2517e-06)
(4.7817 6.13963e-05 6.25578e-06)
(4.67601 -6.24469e-05 6.93331e-06)
(4.67608 5.96269e-05 6.93771e-06)
(4.56736 -6.14461e-05 7.53063e-06)
(4.56743 6.07267e-05 7.53486e-06)
(4.45892 -6.28155e-05 8.00451e-06)
(4.45899 5.92055e-05 8.00903e-06)
(4.35292 -6.18794e-05 8.30405e-06)
(4.35299 6.02189e-05 8.30843e-06)
(4.25055 -6.29108e-05 8.40464e-06)
(4.25062 5.90518e-05 8.40929e-06)
(4.15209 -6.19027e-05 8.28356e-06)
(4.15216 6.0118e-05 8.28809e-06)
(4.05703 -6.25648e-05 7.95079e-06)
(4.0571 5.93343e-05 7.95557e-06)
(3.96434 -6.14885e-05 7.42205e-06)
(3.9644 6.04514e-05 7.42672e-06)
(3.87266 -6.18855e-05 6.74103e-06)
(3.87273 5.99446e-05 6.74592e-06)
(3.78062 -6.08551e-05 5.95043e-06)
(3.78068 6.10002e-05 5.95523e-06)
(3.68694 -6.11505e-05 5.10876e-06)
(3.68701 6.06053e-05 5.11375e-06)
(3.59069 -6.0308e-05 4.26147e-06)
(3.59077 6.1459e-05 4.26637e-06)
(3.49136 -6.0619e-05 3.45849e-06)
(3.49143 6.1057e-05 3.46354e-06)
(3.38887 -6.00309e-05 2.72868e-06)
(3.38895 6.16439e-05 2.73363e-06)
(3.28361 -6.04271e-05 2.09634e-06)
(3.28369 6.11634e-05 2.10142e-06)
(3.17636 -6.00326e-05 1.56733e-06)
(3.17644 6.15456e-05 1.5723e-06)
(3.06819 -6.04786e-05 1.14368e-06)
(3.06827 6.10208e-05 1.14874e-06)
(2.96034 -6.02036e-05 8.13843e-07)
(2.96043 6.12733e-05 9.54172e-07)
(2.85413 -6.06335e-05 5.67356e-07)
(2.85422 6.07692e-05 9.68703e-07)
(2.75081 -6.03998e-05 3.86958e-07)
(2.75089 6.09708e-05 9.82521e-07)
(2.65145 -6.07748e-05 2.60077e-07)
(2.65153 6.05253e-05 9.97042e-07)
(2.55688 -6.05441e-05 2.25462e-07)
(2.55696 6.07146e-05 1.01077e-06)
(2.46762 -6.08503e-05 2.40954e-07)
(2.4677 6.03416e-05 1.02512e-06)
(2.38385 -6.06244e-05 2.4344e-07)
(2.38393 6.05165e-05 1.03861e-06)
(2.30538 -6.08639e-05 2.60769e-07)
(2.30546 6.02138e-05 1.05257e-06)
(2.23166 -6.06495e-05 2.61423e-07)
(2.23173 6.03677e-05 1.06568e-06)
(2.16178 -6.08324e-05 2.80988e-07)
(2.16185 6.01252e-05 1.07905e-06)
(2.09453 -6.06557e-05 2.85197e-07)
(2.0946 6.02314e-05 1.09169e-06)
(2.02841 -6.07959e-05 3.01443e-07)
(2.02848 6.00357e-05 1.10432e-06)
(1.96167 -6.05772e-05 3.12386e-07)
(1.96174 6.01735e-05 1.11649e-06)
(1.8924 -6.07832e-05 3.14396e-07)
(1.89248 5.99167e-05 1.12838e-06)
(1.81855 -6.05384e-05 3.30809e-07)
(1.81864 6.00689e-05 1.14019e-06)
(1.73808 -6.07244e-05 3.30382e-07)
(1.73818 5.9838e-05 1.15153e-06)
(1.649 -6.04974e-05 3.49178e-07)
(1.64911 5.99595e-05 1.16323e-06)
(1.54951 -6.06655e-05 3.4991e-07)
(1.54964 5.97532e-05 1.17448e-06)
(1.43817 -6.04533e-05 3.67343e-07)
(1.43832 5.98461e-05 1.18653e-06)
(1.31394 -6.06067e-05 3.69022e-07)
(1.31413 5.96622e-05 1.19835e-06)
(1.17638 -6.04058e-05 3.85186e-07)
(1.17661 5.97282e-05 1.21148e-06)
(1.02573 -6.05478e-05 3.87628e-07)
(1.02602 5.95648e-05 1.22477e-06)
(0.862992 -6.03551e-05 4.02619e-07)
(0.863357 5.96051e-05 1.23987e-06)
(0.689987 -6.04881e-05 4.05661e-07)
(0.690468 5.94606e-05 1.25565e-06)
(0.509352 -6.03002e-05 4.19553e-07)
(0.509999 5.94765e-05 1.27364e-06)
(0.324498 -6.04272e-05 4.23029e-07)
(0.325363 5.93491e-05 1.29283e-06)
(0.139523 -6.02401e-05 4.35833e-07)
(0.140622 5.9342e-05 1.31437e-06)
(-0.0409068 -6.0366e-05 4.39513e-07)
(-0.0396948 5.92319e-05 1.33743e-06)
(-0.211783 -6.01772e-05 4.51718e-07)
(-0.21076 5.92028e-05 1.36184e-06)
(-0.368225 -6.02885e-05 4.58141e-07)
(-0.367481 5.90942e-05 1.38569e-06)
(-0.505452 -6.0116e-05 4.71677e-07)
(-0.504954 5.90637e-05 1.41043e-06)
(-0.619083 -6.02072e-05 4.80568e-07)
(-0.618768 5.89466e-05 1.43432e-06)
(-0.705408 -6.00496e-05 4.94878e-07)
(-0.70522 5.89168e-05 1.45848e-06)
(-0.761567 -6.01225e-05 5.05633e-07)
(-0.761472 5.87881e-05 1.48149e-06)
(-0.785771 -5.9978e-05 5.19922e-07)
(-0.785752 5.87624e-05 1.50439e-06)
(-0.777377 -6.00338e-05 5.31438e-07)
(-0.777426 5.86191e-05 1.52618e-06)
(-0.736884 -5.99042e-05 5.45332e-07)
(-0.737006 5.85976e-05 1.54797e-06)
(-0.665943 -5.99407e-05 5.5517e-07)
(-0.666152 5.84393e-05 1.56926e-06)
(-0.567204 -5.98267e-05 5.70037e-07)
(-0.567536 5.84241e-05 1.59122e-06)
(-0.444169 -5.98447e-05 5.78608e-07)
(-0.444678 5.82462e-05 1.61375e-06)
(-0.300951 -5.97459e-05 5.93442e-07)
(-0.301703 5.8241e-05 1.63783e-06)
(-0.142029 -5.97448e-05 6.01838e-07)
(-0.14303 5.80388e-05 1.66373e-06)
(0.0278826 -5.96646e-05 6.1521e-07)
(0.0268198 5.80479e-05 1.69189e-06)
(0.204203 -5.96453e-05 6.23856e-07)
(0.203357 5.78227e-05 1.72208e-06)
(0.382812 -5.95608e-05 6.40179e-07)
(0.382211 5.78242e-05 1.75099e-06)
(0.559905 -5.95516e-05 6.53235e-07)
(0.559488 5.75985e-05 1.78257e-06)
(0.732179 -5.945e-05 6.73134e-07)
(0.731882 5.75884e-05 1.81238e-06)
(0.896886 -5.94526e-05 6.91021e-07)
(0.896666 5.73579e-05 1.84511e-06)
(1.05184 -5.93344e-05 7.14709e-07)
(1.05167 5.73374e-05 1.87526e-06)
(1.19546 -5.93433e-05 7.37548e-07)
(1.19533 5.71056e-05 1.90845e-06)
(1.32666 -5.92085e-05 7.64954e-07)
(1.32655 5.70757e-05 1.93806e-06)
(1.44481 -5.92305e-05 7.92634e-07)
(1.44473 5.68347e-05 1.97083e-06)
(1.5497 -5.90615e-05 8.23468e-07)
(1.54963 5.6814e-05 1.99885e-06)
(1.6414 -5.91052e-05 9.67196e-07)
(1.64134 5.65543e-05 2.03031e-06)
(1.72017 -5.89021e-05 1.1758e-06)
(1.72012 5.65435e-05 2.05573e-06)
(1.7864 -5.89628e-05 1.40719e-06)
(1.78637 5.62703e-05 2.0851e-06)
(1.8405 -5.87266e-05 1.66075e-06)
(1.84047 5.62684e-05 2.10706e-06)
(1.88277 -5.88093e-05 1.92949e-06)
(1.88275 5.59777e-05 2.13382e-06)
(1.91339 -5.85439e-05 2.2103e-06)
(1.91337 5.59806e-05 2.19052e-06)
(1.93227 -5.86448e-05 2.49431e-06)
(1.93226 5.56783e-05 2.47408e-06)
(1.93907 -5.83762e-05 2.7754e-06)
(1.93907 5.56589e-05 2.75393e-06)
(1.93317 -5.84768e-05 3.04775e-06)
(1.93317 5.53666e-05 3.02615e-06)
(1.91369 -5.82263e-05 3.30403e-06)
(1.9137 5.53015e-05 3.28137e-06)
(1.87959 -5.83299e-05 3.54244e-06)
(1.87961 5.50201e-05 3.52006e-06)
(1.82974 -5.80844e-05 3.76089e-06)
(1.82977 5.4919e-05 3.73769e-06)
(1.76312 -5.82069e-05 3.96007e-06)
(1.76316 5.46378e-05 3.93772e-06)
(1.67894 -5.79547e-05 4.14465e-06)
(1.67899 5.45075e-05 4.12179e-06)
(1.57682 -5.80993e-05 4.3196e-06)
(1.57688 5.42289e-05 4.29832e-06)
(1.45695 -5.78137e-05 4.49515e-06)
(1.45702 5.40894e-05 4.47371e-06)
(1.32025 -5.79985e-05 4.67503e-06)
(1.32034 5.38016e-05 4.65603e-06)
(1.16844 -5.76459e-05 4.87297e-06)
(1.16855 5.36773e-05 4.85416e-06)
(1.00412 -5.78889e-05 5.08709e-06)
(1.00425 5.33689e-05 5.07162e-06)
(0.830712 -5.74559e-05 5.33e-06)
(0.83088 5.32615e-05 5.31499e-06)
(0.652445 -5.77499e-05 5.59474e-06)
(0.652661 5.29462e-05 5.58393e-06)
(0.474166 -5.72503e-05 5.88619e-06)
(0.474457 5.28281e-05 5.87592e-06)
(0.301175 -5.75849e-05 6.19306e-06)
(0.301591 5.2522e-05 6.18767e-06)
(0.138959 -5.70376e-05 6.51244e-06)
(0.139557 5.23593e-05 6.50737e-06)
(-0.00705033 -5.74109e-05 6.83042e-06)
(-0.00629449 5.20714e-05 6.83058e-06)
(-0.131747 -5.68182e-05 7.14003e-06)
(-0.131144 5.18702e-05 7.13942e-06)
(-0.231097 -5.72417e-05 7.42765e-06)
(-0.230741 5.15052e-05 7.42299e-06)
(-0.302101 -5.65877e-05 7.69102e-06)
(-0.301926 5.13721e-05 7.68623e-06)
(-0.343055 -5.71032e-05 7.91419e-06)
(-0.342988 5.08573e-05 7.90635e-06)
(-0.353755 -5.6353e-05 8.10833e-06)
(-0.353761 5.08248e-05 8.10135e-06)
(-0.335581 -5.69641e-05 8.26131e-06)
(-0.335653 5.01589e-05 8.25257e-06)
(-0.29149 -5.61407e-05 8.38994e-06)
(-0.291644 5.02008e-05 8.38323e-06)
(-0.22572 -5.67993e-05 8.49597e-06)
(-0.226 4.94333e-05 8.48884e-06)
(-0.143525 -5.59138e-05 8.59426e-06)
(-0.143972 4.95347e-05 8.59024e-06)
(-0.0508088 -5.66126e-05 8.68756e-06)
(-0.051375 4.86712e-05 8.68413e-06)
(0.0463007 -5.56742e-05 8.78793e-06)
(0.0458238 4.88323e-05 8.78841e-06)
(0.142099 -5.63895e-05 8.89901e-06)
(0.141776 4.7865e-05 8.89558e-06)
(0.23154 -5.53862e-05 9.02766e-06)
(0.231334 4.80927e-05 9.02284e-06)
(0.310504 -5.6171e-05 9.16551e-06)
(0.310373 4.70005e-05 9.15679e-06)
(0.376109 -5.50523e-05 9.32509e-06)
(0.376024 4.73319e-05 9.31532e-06)
(0.42679 -5.59427e-05 9.48568e-06)
(0.426736 4.60797e-05 9.47254e-06)
(0.462268 -5.47106e-05 9.66059e-06)
(0.462236 4.65138e-05 9.64706e-06)
(0.483448 -5.57146e-05 9.8304e-06)
(0.483433 4.50959e-05 9.81434e-06)
(0.492227 -5.43456e-05 1.00133e-05)
(0.492223 4.56561e-05 9.99755e-06)
(0.491198 -5.54968e-05 1.01847e-05)
(0.491202 4.40418e-05 1.01673e-05)
(0.483362 -5.39675e-05 1.03712e-05)
(0.483371 4.4751e-05 1.03547e-05)
(0.471827 -5.52791e-05 1.05466e-05)
(0.471838 4.29295e-05 1.0529e-05)
(0.459519 -5.35884e-05 1.07414e-05)
(0.45953 4.37878e-05 1.07249e-05)
(0.449027 -5.50517e-05 1.09322e-05)
(0.449035 4.17705e-05 1.09148e-05)
(0.442456 -5.31794e-05 1.11494e-05)
(0.442459 4.27971e-05 1.11329e-05)
(0.44129 -5.48387e-05 1.13594e-05)
(0.441288 4.05423e-05 1.13418e-05)
(0.446413 -5.27495e-05 1.1602e-05)
(0.446405 4.1772e-05 1.15849e-05)
(0.458175 -5.46216e-05 1.1837e-05)
(0.458161 3.92666e-05 1.18185e-05)
(0.476466 -5.22952e-05 1.2105e-05)
(0.476448 4.07199e-05 1.20864e-05)
(0.500776 -5.44183e-05 1.23558e-05)
(0.500755 3.79299e-05 1.23352e-05)
(0.530295 -5.18294e-05 1.26378e-05)
(0.530272 3.96333e-05 1.26165e-05)
(0.563985 -5.42369e-05 1.28951e-05)
(0.563962 3.6531e-05 1.28715e-05)
(0.600725 -5.13331e-05 1.31868e-05)
(0.600702 3.85389e-05 1.31619e-05)
(0.639278 -5.40966e-05 1.34397e-05)
(0.639256 3.50589e-05 1.34124e-05)
(0.678376 -5.0826e-05 1.37313e-05)
(0.678356 3.74254e-05 1.37023e-05)
(0.716757 -5.39688e-05 1.39783e-05)
(0.716739 3.35519e-05 1.3947e-05)
(0.75314 -5.03444e-05 1.42605e-05)
(0.753125 3.62667e-05 1.42274e-05)
(0.786399 -5.38368e-05 1.45001e-05)
(0.786386 3.20374e-05 1.44649e-05)
(0.81553 -4.9875e-05 1.47683e-05)
(0.81552 3.50865e-05 1.47314e-05)
(0.839686 -5.37521e-05 1.49826e-05)
(0.839679 3.04748e-05 1.49441e-05)
(0.858333 -4.94028e-05 1.52302e-05)
(0.858328 3.39107e-05 1.51902e-05)
(0.871303 -5.3697e-05 1.54128e-05)
(0.871299 2.88927e-05 1.5372e-05)
(0.878754 -4.89567e-05 1.56218e-05)
(0.878753 3.272e-05 1.55798e-05)
(0.881152 -5.36908e-05 1.57554e-05)
(0.881152 2.72811e-05 1.57133e-05)
(0.879239 -4.85354e-05 1.59178e-05)
(0.879241 3.15241e-05 1.58747e-05)
(0.873973 -5.37273e-05 1.60006e-05)
(0.873975 2.56542e-05 1.59582e-05)
(0.866376 -4.81445e-05 1.6116e-05)
(0.866379 3.03238e-05 1.60726e-05)
(0.857367 -5.38285e-05 1.61492e-05)
(0.85737 2.39965e-05 1.61071e-05)
(0.847712 -4.7775e-05 1.62327e-05)
(0.847715 2.91332e-05 1.61893e-05)
(0.837911 -5.39814e-05 1.6238e-05)
(0.837913 2.2326e-05 1.61965e-05)
(0.828108 -4.74517e-05 1.63096e-05)
(0.828111 2.79319e-05 1.62663e-05)
(0.818225 -5.41649e-05 1.6318e-05)
(0.818228 2.06687e-05 1.62771e-05)
(0.807951 -4.71634e-05 1.64057e-05)
(0.807954 2.67348e-05 1.63625e-05)
(0.796798 -5.44067e-05 1.64321e-05)
(0.796801 1.90017e-05 1.6392e-05)
(0.784337 -4.68912e-05 1.65538e-05)
(0.78434 2.55645e-05 1.65107e-05)
(0.770239 -5.47013e-05 1.6603e-05)
(0.770243 1.73354e-05 1.6564e-05)
(0.754366 -4.66602e-05 1.67452e-05)
(0.754371 2.43991e-05 1.67025e-05)
(0.736871 -5.50403e-05 1.67974e-05)
(0.736876 1.56822e-05 1.67598e-05)
(0.71817 -4.64844e-05 1.69265e-05)
(0.718176 2.3227e-05 1.68844e-05)
(0.698962 -5.54324e-05 1.69395e-05)
(0.698967 1.40367e-05 1.69038e-05)
(0.680111 -4.63771e-05 1.70103e-05)
(0.680116 2.20361e-05 1.69689e-05)
(0.66266 -5.5882e-05 1.69416e-05)
(0.662664 1.23974e-05 1.69079e-05)
(0.647679 -4.63392e-05 1.69172e-05)
(0.647682 2.08264e-05 1.68762e-05)
(0.636078 -5.64104e-05 1.67332e-05)
(0.63608 1.07459e-05 1.67012e-05)
(0.628653 -4.63699e-05 1.66004e-05)
(0.628654 1.96006e-05 1.6559e-05)
(0.626023 -5.7011e-05 1.63045e-05)
(0.626022 9.09413e-06 1.62735e-05)
(0.628483 -4.64696e-05 1.60791e-05)
(0.628482 1.83623e-05 1.6036e-05)
(0.636008 -5.76809e-05 1.5694e-05)
(0.636005 7.45365e-06 1.56631e-05)
(0.648323 -4.66639e-05 1.54028e-05)
(0.648319 1.70937e-05 1.53565e-05)
(0.664919 -5.84092e-05 1.49714e-05)
(0.664915 5.84965e-06 1.49395e-05)
(0.685071 -4.69508e-05 1.46616e-05)
(0.685066 1.58096e-05 1.46105e-05)
(0.707912 -5.92089e-05 1.42221e-05)
(0.707907 4.28984e-06 1.41884e-05)
(0.732507 -4.73581e-05 1.39271e-05)
(0.732503 1.45005e-05 1.38696e-05)
(0.757856 -6.00825e-05 1.35152e-05)
(0.757851 2.79977e-06 1.34795e-05)
(0.783025 -4.79035e-05 1.32666e-05)
(0.78302 1.3172e-05 1.32014e-05)
(0.807224 -6.10467e-05 1.29051e-05)
(0.80722 1.39767e-06 1.28676e-05)
(0.829766 -4.86148e-05 1.27203e-05)
(0.829763 1.1825e-05 1.26461e-05)
(0.850181 -6.21188e-05 1.24212e-05)
(0.850179 1.08289e-07 1.23828e-05)
(0.868335 -4.951e-05 1.2309e-05)
(0.868333 1.04743e-05 1.22247e-05)
(0.884347 -6.33143e-05 1.20651e-05)
(0.884345 -1.03581e-06 1.20271e-05)
(0.898653 -5.06191e-05 1.20007e-05)
(0.898651 9.12695e-06 1.19046e-05)
(0.912034 -6.46571e-05 1.17623e-05)
(0.912032 -2.00397e-06 1.17262e-05)
(0.925627 -5.19804e-05 1.16759e-05)
(0.925625 7.78618e-06 1.1566e-05)
(0.940998 -6.61651e-05 1.23718e-05)
(0.940996 -2.75093e-06 1.13168e-05)
(0.960265 -5.36507e-05 1.11203e-05)
(0.960262 6.44399e-06 1.09927e-05)
(0.98641 -6.78706e-05 1.33203e-05)
(0.986405 -3.23301e-06 1.0537e-05)
(1.02351 -5.56997e-05 1.00432e-05)
(1.02351 5.0939e-06 9.89153e-06)
(1.07754 -5.1614e-05 9.11233e-06)
(1.07754 -3.43807e-06 9.08539e-06)
(1.1578 -3.94404e-05 8.14883e-06)
(1.1578 3.94449e-06 8.02247e-06)
(1.27902 -3.4394e-05 6.78284e-06)
(1.27901 -3.58202e-06 6.75718e-06)
(1.46266 -2.20561e-05 5.33989e-06)
(1.46265 3.02335e-06 5.24317e-06)
(1.73957 -1.59782e-05 3.58364e-06)
(1.73957 -3.72318e-06 3.56266e-06)
(2.25043 -3.4078e-06 1.72688e-06)
(2.25043 2.11784e-06 1.67816e-06)
(0.028148 -1.20562e-05 -5.48701e-08)
(0.028181 -2.61886e-05 -0.00050668)
(0.0845988 1.77254e-05 -1.77593e-08)
(0.0846976 -1.18098e-05 -0.000730481)
(0.141671 2.83373e-05 -6.29846e-09)
(0.141834 -2.53856e-05 -0.000529023)
(0.199372 3.46223e-05 -2.12306e-09)
(0.199595 -3.47829e-05 -0.000280512)
(0.257707 3.81143e-05 -4.94472e-10)
(0.257987 -3.81288e-05 -0.000148393)
(0.316687 4.00767e-05 -1.39759e-10)
(0.317018 -4.00263e-05 -8.98762e-05)
(0.376278 4.14529e-05 -1.29378e-10)
(0.376654 -4.1371e-05 -6.15212e-05)
(0.43642 4.23847e-05 -2.00295e-11)
(0.436836 -4.23644e-05 -4.58744e-05)
(0.49705 4.32421e-05 -9.20421e-11)
(0.4975 -4.31405e-05 -3.62728e-05)
(0.558168 4.37772e-05 -6.57054e-12)
(0.558646 -4.38061e-05 -2.98974e-05)
(0.619848 4.44521e-05 -8.27378e-11)
(0.620349 -4.43433e-05 -2.54084e-05)
(0.682113 4.47743e-05 -3.54713e-21)
(0.682632 -4.48282e-05 -2.21036e-05)
(0.744991 4.53767e-05 -8.32475e-11)
(0.745524 -4.52571e-05 -1.95846e-05)
(0.808544 5.90529e-05 -5.01883e-08)
(0.809087 -4.54971e-05 -1.76006e-05)
(0.87276 1.92484e-05 -5.44148e-19)
(0.873308 -4.59786e-05 -1.60321e-05)
(0.937543 0.000101516 -1.19133e-07)
(0.938092 -4.60833e-05 -1.47204e-05)
(1.00275 -3.8968e-05 -6.69776e-10)
(1.0033 -4.70268e-05 -1.36819e-05)
(1.06824 0.000136732 -4.242e-08)
(1.06878 -4.64327e-05 -1.27855e-05)
(1.134 -5.1794e-05 -9.26236e-10)
(1.13453 -4.78006e-05 -1.20349e-05)
(1.20025 0.000150725 -4.12417e-08)
(1.20078 -4.66168e-05 -1.13828e-05)
(1.2673 -6.45736e-05 -6.57145e-10)
(1.26782 -4.86925e-05 -1.08296e-05)
(1.33533 0.000164515 -3.95103e-08)
(1.33584 -4.67027e-05 -1.03393e-05)
(1.40438 -7.72521e-05 5.89544e-19)
(1.40487 -4.95849e-05 -9.92011e-06)
(1.47439 0.00020479 -1.48768e-07)
(1.47487 -4.65859e-05 -9.51694e-06)
(1.54535 -0.000143294 1.72886e-36)
(1.54581 -5.06584e-05 -9.22131e-06)
(1.61725 0.0002761 -1.80869e-07)
(1.6177 -4.63945e-05 -8.89794e-06)
(1.69008 -0.00021986 -1.99416e-09)
(1.69052 -5.19577e-05 -8.68261e-06)
(1.7638 0.000327023 -7.93189e-08)
(1.76423 -4.59852e-05 -8.45128e-06)
(1.83834 -0.000244728 -3.97681e-09)
(1.83876 -5.33999e-05 -8.26552e-06)
(1.91365 0.000353243 -8.17322e-08)
(1.91405 -4.52752e-05 -8.08236e-06)
(1.98973 -0.000270511 -3.65495e-09)
(1.99012 -5.50793e-05 -7.93922e-06)
(2.06678 0.00037987 -7.76033e-08)
(2.06715 -4.42458e-05 -7.79258e-06)
(2.1452 -0.000296123 -1.6592e-09)
(2.14556 -5.70795e-05 -7.68121e-06)
(2.2256 0.000406157 -7.19736e-08)
(2.22596 -4.28025e-05 -7.56295e-06)
(2.30865 -0.000321189 -4.63204e-19)
(2.309 -5.94979e-05 -7.47694e-06)
(2.39495 0.00046346 -2.24772e-07)
(2.3953 -4.08967e-05 -7.34626e-06)
(2.48492 -0.00040965 0)
(2.48526 -6.2496e-05 -7.32222e-06)
(2.57874 0.000652815 -7.38064e-07)
(2.57908 -3.8461e-05 -7.09489e-06)
(2.67641 -0.00070166 -3.27505e-19)
(2.67674 -6.61396e-05 -7.22149e-06)
(2.77779 0.000983345 -9.66322e-07)
(2.77812 -3.54165e-05 -6.97152e-06)
(2.88277 -0.00107442 -3.53884e-21)
(2.8831 -7.04103e-05 -7.17584e-06)
(2.99146 0.00132101 -8.13332e-07)
(2.99179 -3.176e-05 -6.99448e-06)
(3.10441 -0.00137961 -3.0417e-18)
(3.10474 -7.52534e-05 -7.17876e-06)
(3.22276 0.00155414 -4.39428e-07)
(3.22309 -2.75023e-05 -7.11283e-06)
(3.34826 -0.00154055 -1.1589e-21)
(3.3486 -8.0646e-05 -7.21916e-06)
(3.48302 0.00168567 -2.75668e-07)
(3.48336 -2.26541e-05 -7.21033e-06)
(3.62915 -0.00164105 -1.15515e-21)
(3.6295 -8.66657e-05 -7.28971e-06)
(3.78844 0.00180167 -3.61811e-07)
(3.7888 -1.714e-05 -7.27542e-06)
(3.96214 -0.00177131 -4.62183e-21)
(3.96251 -9.34179e-05 -7.39059e-06)
(4.15096 0.00225546 -2.28973e-06)
(4.15133 -1.08703e-05 -6.92799e-06)
(4.35514 -0.00255577 -3.47921e-21)
(4.35552 -0.000100494 -7.5419e-06)
(4.57435 0.00288419 -1.43657e-06)
(4.57472 -3.9417e-06 -7.34379e-06)
(4.80715 -0.00302878 -3.91463e-08)
(4.8075 -0.000107503 -7.77404e-06)
(5.04997 0.00321595 -7.66523e-07)
(5.0503 2.92181e-06 -7.87347e-06)
(5.29581 -0.00321544 -1.68923e-07)
(5.29611 -0.000114477 -8.2032e-06)
(5.53274 0.00343579 -1.41021e-06)
(5.53298 8.33554e-06 -8.43128e-06)
(5.7431 -0.00346959 -4.05278e-07)
(5.74326 -0.000121924 -9.04692e-06)
(5.90384 0.00373441 -2.25764e-06)
(5.9039 1.12285e-05 -9.48263e-06)
(5.98854 -0.00381979 -6.48691e-07)
(5.98848 -0.00012905 -1.0462e-05)
(5.97122 0.00411535 -2.74588e-06)
(5.971 1.2368e-05 -1.1092e-05)
(5.83104 -0.00423872 -6.98302e-07)
(5.83065 -0.000133009 -1.22763e-05)
(5.55702 0.004525 -2.32656e-06)
(5.55643 1.32517e-05 -1.29389e-05)
(5.15112 -0.00463736 -4.42057e-07)
(5.15031 -0.000131913 -1.39628e-05)
(4.62903 0.00487612 -1.10767e-06)
(4.62799 1.3377e-05 -1.44518e-05)
(4.01806 -0.00492989 -2.82355e-18)
(4.01677 -0.0001272 -1.5021e-05)
(3.35287 0.00511991 -4.98108e-08)
(3.35134 1.0418e-05 -1.52376e-05)
(2.67043 -0.00497226 -1.20643e-06)
(2.66867 -0.000121526 -1.50937e-05)
(2.00519 0.00511213 -3.45736e-07)
(2.00323 3.69459e-06 -1.51392e-05)
(1.38561 -0.00494294 -1.87919e-06)
(1.38351 -0.000116105 -1.47715e-05)
(0.832498 0.00506031 -4.3763e-07)
(0.830348 -5.12999e-06 -1.47777e-05)
(0.358934 -0.00489668 -1.9531e-06)
(0.356845 -0.000110815 -1.44068e-05)
(-0.0287217 0.00501564 -4.11962e-07)
(-0.0306136 -1.39061e-05 -1.44546e-05)
(-0.329236 -0.000190098 -4.66383e-06)
(-0.330799 -0.000105662 -9.53958e-07)
(-0.544947 0.000271178 -4.68392e-07)
(-0.546118 -2.05344e-05 -7.94991e-07)
(-0.680539 -0.000108864 -1.08415e-06)
(-0.681299 -9.99855e-05 -7.55531e-07)
(-0.742163 0.000200851 -3.48016e-07)
(-0.742516 -2.60111e-05 -6.04757e-07)
(-0.736878 -4.70084e-05 -8.27873e-07)
(-0.736841 -9.48927e-05 -5.6793e-07)
(-0.672305 0.000148417 -2.55941e-07)
(-0.6719 -3.07225e-05 -4.33682e-07)
(-0.556344 -3.90464e-06 -5.82884e-07)
(-0.555597 -9.04927e-05 -4.01878e-07)
(-0.396878 0.000113239 -1.75253e-07)
(-0.395823 -3.47888e-05 -2.84625e-07)
(-0.201526 2.3344e-05 -3.71765e-07)
(-0.200213 -8.67087e-05 -2.59701e-07)
(0.0226094 9.2262e-05 -1.07294e-07)
(0.0241038 -3.83333e-05 -1.60687e-07)
(0.269166 3.79704e-05 -2.023e-07)
(0.27073 -8.33814e-05 -1.47168e-07)
(0.5326 8.21083e-05 -5.52364e-08)
(0.534145 -4.13313e-05 -6.90458e-08)
(0.80819 4.37937e-05 -8.02345e-08)
(0.80965 -8.04489e-05 -6.59032e-08)
(1.0919 7.96798e-05 -5.53482e-08)
(1.09324 -4.38769e-05 -1.68343e-09)
(1.38017 4.32741e-05 -6.64284e-08)
(1.38136 -7.7881e-05 -6.48105e-08)
(1.66964 7.8857e-05 -8.23005e-08)
(1.67069 -4.60726e-05 -8.34459e-08)
(1.95692 4.57065e-05 -1.65606e-07)
(1.95782 -7.56767e-05 -1.64004e-07)
(2.23838 7.66804e-05 -2.10195e-07)
(2.23915 -4.80305e-05 -2.11117e-07)
(2.51004 4.77504e-05 -3.19218e-07)
(2.51069 -7.38327e-05 -3.17611e-07)
(2.76761 7.46894e-05 -3.93738e-07)
(2.76815 -4.98247e-05 -3.94438e-07)
(3.00661 4.94359e-05 -5.21983e-07)
(3.00706 -7.23243e-05 -5.20361e-07)
(3.22262 7.28636e-05 -6.10769e-07)
(3.22299 -5.14733e-05 -6.11251e-07)
(3.41165 5.08664e-05 -7.36607e-07)
(3.41194 -7.10504e-05 -7.34963e-07)
(3.5704 7.12431e-05 -8.13517e-07)
(3.57063 -5.29348e-05 -8.13791e-07)
(3.69668 5.21259e-05 -9.09397e-07)
(3.69685 -6.99291e-05 -9.07732e-07)