/*--------------------------------*- C++ -*----------------------------------*\
| =========                 |                                                 |
| \\      /  F ield         | OpenFOAM: The Open Source CFD Toolbox           |
|  \\    /   O peration     | Version:  2012                                  |
|   \\  /    A nd           | Website:  www.openfoam.com                      |
|    \\/     M anipulation  |                                                 |
\*---------------------------------------------------------------------------*/
FoamFile
{
    version     2.0;
    format      ascii;
    class       volScalarField;
    location    "12500";
    object      omega;
}
// * * * * * * * * * * * * * * * * * * * * * * * * * * * * * * * * * * * * * //

dimensions      [0 0 -1 0 0 0 0];


internalField   nonuniform List<scalar> 
2560
(
1.52417e+06
1.52417e+06
263858
263861
87319.4
87322.3
41651.2
41651.9
25857.5
25857.1
18779.4
18778.7
14890.3
14889.6
12444.6
12443.9
10762.7
10762
9532.21
9531.59
8590.77
8590.19
7845.81
7845.27
7240.7
7240.2
6738.86
6738.39
6315.57
6315.13
5953.5
5953.08
5640.15
5639.76
5366.27
5365.9
5124.84
5124.49
4910.46
4910.12
4718.87
4718.54
4546.69
4546.38
4391.19
4390.89
4250.15
4249.86
4121.73
4121.45
4004.4
4004.14
3896.9
3896.64
3798.13
3797.88
3707.18
3706.94
3623.27
3623.03
3545.71
3545.47
3473.92
3473.69
3407.39
3407.16
3345.66
3345.44
3288.35
3288.13
3235.08
3234.87
3185.54
3185.33
3139.45
3139.24
3096.55
3096.34
3056.6
3056.39
3019.41
3019.2
2984.79
2984.59
2952.59
2952.38
2922.64
2922.44
2894.8
2894.6
2868.92
2868.72
2844.85
2844.65
2822.44
2822.23
2801.53
2801.32
2781.97
2781.76
2763.6
2763.39
2746.29
2746.07
2729.91
2729.69
2714.37
2714.15
2699.65
2699.43
2685.8
2685.57
2673.02
2672.78
2661.59
2661.35
2651.87
2651.62
2644.04
2643.78
2638.02
2637.75
2633.01
2632.74
2627.72
2627.44
2620.45
2620.16
2609.47
2609.19
2593.42
2593.14
2571.52
2571.25
2543.74
2543.48
2510.68
2510.43
2473.33
2473.1
2432.9
2432.68
2390.56
2390.37
2347.39
2347.21
2304.22
2304.04
2261.66
2261.5
2220.12
2219.96
2179.82
2179.67
2140.79
2140.64
2102.95
2102.81
2066.16
2066.03
2030.21
2030.09
1994.91
1994.8
1960.03
1959.94
1925.41
1925.32
1890.86
1890.79
1856.26
1856.2
1821.51
1821.46
1786.52
1786.48
1751.26
1751.22
1715.7
1715.67
1679.88
1679.86
1643.86
1643.84
1607.72
1607.7
1571.59
1571.58
1535.62
1535.6
1499.95
1499.94
1464.73
1464.72
1430.09
1430.08
1396.12
1396.11
1362.89
1362.89
1330.44
1330.43
1298.77
1298.77
1267.88
1267.88
1237.75
1237.74
1208.35
1208.35
1179.69
1179.69
1151.76
1151.76
1124.55
1124.55
1098.08
1098.08
1072.36
1072.36
1047.37
1047.37
1023.1
1023.1
999.525
999.526
976.589
976.59
954.231
954.232
932.374
932.376
910.943
910.945
889.868
889.87
869.098
869.101
848.608
848.612
828.403
828.407
808.517
808.52
789.004
789.008
769.932
769.936
751.365
751.369
733.353
733.357
715.929
715.933
699.091
699.095
682.815
682.819
667.062
667.066
651.786
651.789
636.939
636.942
622.483
622.487
608.391
608.395
594.646
594.649
581.239
581.242
568.17
568.173
555.44
555.443
543.051
543.054
531.002
531.005
519.291
519.294
507.912
507.915
496.855
496.858
486.108
486.11
475.655
475.657
465.482
465.484
455.574
455.577
445.919
445.921
436.506
436.508
427.329
427.331
418.386
418.387
409.679
409.68
401.212
401.213
392.993
392.994
385.031
385.032
377.334
377.334
369.91
369.91
362.766
362.766
355.906
355.905
349.331
349.33
343.041
343.04
337.032
337.03
331.297
331.294
325.823
325.82
320.596
320.593
315.596
315.592
310.796
310.792
306.167
306.162
301.672
301.666
297.27
297.264
292.919
292.912
288.574
288.566
284.195
284.188
279.749
279.742
275.211
275.206
270.576
270.573
265.849
265.849
261.056
261.057
256.234
256.236
251.431
251.434
246.705
246.708
242.111
242.113
237.694
237.696
233.489
233.49
229.512
229.513
225.76
225.76
222.206
222.205
218.812
218.811
215.53
215.528
212.308
212.307
209.099
209.098
205.859
205.86
202.56
202.562
199.183
199.187
195.72
195.724
192.172
192.177
188.552
188.557
184.879
184.883
181.174
181.178
177.463
177.467
173.771
173.774
170.121
170.124
166.535
166.537
163.031
163.034
159.627
159.629
156.336
156.338
153.168
153.169
150.131
150.132
147.231
147.232
144.471
144.471
141.851
141.852
139.37
139.371
137.022
137.022
134.797
134.797
132.682
132.682
130.657
130.656
128.698
128.698
126.779
126.778
124.868
124.867
122.933
122.932
120.944
120.943
118.875
118.874
116.708
116.707
114.435
114.433
112.057
112.056
109.593
109.592
107.066
107.066
104.508
104.508
101.95
101.951
99.4249
99.4254
96.9576
96.958
94.5641
94.5643
92.2494
92.2495
90.0086
90.0086
87.8295
87.8294
85.6968
85.6966
83.5958
83.5955
81.5158
81.5156
79.4528
79.4529
77.4089
77.4092
75.3898
75.3903
73.4031
73.4035
71.4577
71.4581
69.5612
69.5616
67.7192
67.7195
65.9345
65.9348
64.2082
64.2084
62.5397
62.5398
60.928
60.9282
59.3722
59.3724
57.8715
57.8716
56.4251
56.4252
55.0325
55.0326
53.6927
53.6928
52.4043
52.4043
51.1655
51.1656
49.9742
49.9743
48.8282
48.8282
47.7249
47.7249
46.6622
46.6623
45.6383
45.6384
44.6517
44.6518
43.7014
43.7014
42.7868
42.7868
41.9076
41.9076
41.0639
41.0639
40.2557
40.2557
39.4831
39.4831
38.7459
38.7459
38.0436
38.0436
37.3755
37.3755
36.7408
36.7409
36.1385
36.1385
35.5674
35.5674
35.0265
35.0265
34.5149
34.5149
34.0316
34.0316
33.5757
33.5757
33.1465
33.1465
32.7431
32.7431
32.3648
32.3648
32.0108
32.0108
31.6803
31.6803
31.3727
31.3727
31.0871
31.0871
30.8229
30.8229
30.5796
30.5796
30.3567
30.3567
30.154
30.154
29.9712
29.9712
29.8083
29.8083
29.6653
29.6653
29.542
29.542
29.4385
29.4385
29.3544
29.3544
29.2896
29.2896
29.2436
29.2436
29.2161
29.2161
29.2069
29.2069
29.2158
29.2158
29.2428
29.2428
29.288
29.288
29.3517
29.3517
29.4342
29.4342
29.5361
29.5361
29.6579
29.6579
29.8001
29.8001
29.9634
29.9634
30.1483
30.1483
30.3554
30.3554
30.5852
30.5852
30.8382
30.8382
31.1146
31.1146
31.414
31.414
31.7345
31.7345
32.0711
32.0711
32.4117
32.4117
32.7292
32.7292
32.9666
32.9666
32.9341
32.9341
1.52417e+06
1.52417e+06
263861
263858
87322.4
87319.4
41651.9
41651.2
25857.1
25857.5
18778.7
18779.4
14889.6
14890.3
12443.9
12444.6
10762
10762.7
9531.59
9532.21
8590.19
8590.77
7845.27
7845.81
7240.2
7240.7
6738.39
6738.86
6315.13
6315.57
5953.08
5953.5
5639.76
5640.15
5365.9
5366.27
5124.49
5124.84
4910.12
4910.46
4718.54
4718.87
4546.38
4546.69
4390.89
4391.19
4249.86
4250.15
4121.45
4121.73
4004.13
4004.4
3896.64
3896.9
3797.88
3798.13
3706.93
3707.18
3623.03
3623.27
3545.47
3545.71
3473.69
3473.92
3407.16
3407.39
3345.44
3345.66
3288.13
3288.35
3234.87
3235.08
3185.33
3185.54
3139.24
3139.45
3096.34
3096.55
3056.39
3056.6
3019.2
3019.41
2984.59
2984.79
2952.38
2952.59
2922.44
2922.64
2894.6
2894.8
2868.72
2868.92
2844.65
2844.85
2822.23
2822.44
2801.32
2801.53
2781.76
2781.97
2763.39
2763.6
2746.07
2746.29
2729.69
2729.91
2714.15
2714.37
2699.43
2699.65
2685.57
2685.8
2672.78
2673.02
2661.35
2661.59
2651.62
2651.87
2643.78
2644.04
2637.75
2638.02
2632.74
2633.01
2627.44
2627.72
2620.16
2620.45
2609.19
2609.47
2593.14
2593.42
2571.25
2571.52
2543.48
2543.74
2510.43
2510.68
2473.1
2473.33
2432.68
2432.9
2390.37
2390.56
2347.21
2347.39
2304.04
2304.22
2261.5
2261.66
2219.96
2220.12
2179.67
2179.82
2140.64
2140.79
2102.81
2102.95
2066.03
2066.16
2030.09
2030.21
1994.8
1994.91
1959.94
1960.03
1925.32
1925.41
1890.79
1890.86
1856.2
1856.26
1821.46
1821.51
1786.48
1786.52
1751.22
1751.26
1715.67
1715.7
1679.86
1679.88
1643.84
1643.86
1607.7
1607.72
1571.58
1571.59
1535.6
1535.62
1499.94
1499.95
1464.72
1464.73
1430.08
1430.09
1396.11
1396.12
1362.89
1362.89
1330.43
1330.44
1298.77
1298.77
1267.88
1267.88
1237.74
1237.75
1208.35
1208.35
1179.69
1179.69
1151.76
1151.76
1124.55
1124.55
1098.08
1098.08
1072.36
1072.36
1047.37
1047.37
1023.1
1023.1
999.525
999.525
976.59
976.589
954.232
954.231
932.376
932.374
910.945
910.943
889.87
889.868
869.101
869.098
848.611
848.608
828.407
828.403
808.52
808.517
789.008
789.004
769.936
769.932
751.369
751.365
733.357
733.353
715.933
715.929
699.095
699.091
682.819
682.815
667.066
667.062
651.789
651.785
636.942
636.939
622.486
622.483
608.394
608.391
594.649
594.645
581.242
581.239
568.173
568.169
555.442
555.439
543.053
543.05
531.004
531.001
519.294
519.291
507.914
507.912
496.857
496.855
486.109
486.107
475.657
475.654
465.484
465.481
455.576
455.574
445.92
445.918
436.507
436.505
427.33
427.328
418.387
418.385
409.679
409.678
401.212
401.211
392.993
392.992
385.031
385.03
377.334
377.333
369.909
369.909
362.765
362.765
355.904
355.905
349.329
349.33
343.039
343.041
337.03
337.032
331.293
331.296
325.819
325.822
320.592
320.596
315.591
315.595
310.791
310.796
306.161
306.167
301.665
301.672
297.263
297.27
292.911
292.918
288.566
288.573
284.187
284.195
279.741
279.748
275.206
275.211
270.572
270.575
265.848
265.849
261.057
261.056
256.235
256.233
251.433
251.431
246.707
246.705
242.112
242.11
237.695
237.694
233.49
233.489
229.512
229.511
225.759
225.759
222.204
222.205
218.81
218.811
215.527
215.529
212.306
212.307
209.097
209.097
205.859
205.858
202.561
202.559
199.186
199.182
195.723
195.719
192.176
192.171
188.556
188.552
184.883
184.878
181.178
181.174
177.467
177.463
173.774
173.771
170.124
170.12
166.537
166.534
163.033
163.031
159.629
159.627
156.337
156.336
153.169
153.167
150.132
150.13
147.231
147.23
144.471
144.47
141.851
141.85
139.37
139.369
137.021
137.021
134.796
134.796
132.68
132.68
130.655
130.655
128.696
128.697
126.777
126.778
124.865
124.867
122.93
122.932
120.941
120.943
118.872
118.874
116.706
116.708
114.432
114.434
112.055
112.057
109.592
109.593
107.066
107.066
104.509
104.508
101.951
101.95
99.4256
99.4251
96.958
96.9577
94.5643
94.5641
92.2493
92.2493
90.0083
90.0083
87.829
87.8292
85.6961
85.6965
83.5951
83.5955
81.5153
81.5155
79.4527
79.4526
77.4092
77.4088
75.3903
75.3898
73.4036
73.4031
71.4582
71.4577
69.5617
69.5613
67.7196
67.7193
65.9349
65.9345
64.2085
64.2082
62.5399
62.5397
60.9282
60.928
59.3724
59.3722
57.8716
57.8715
56.4252
56.4251
55.0326
55.0324
53.6927
53.6926
52.4043
52.4042
51.1655
51.1654
49.9742
49.9741
48.8281
48.828
47.7248
47.7248
46.6622
46.6621
45.6383
45.6383
44.6517
44.6517
43.7014
43.7014
42.7868
42.7868
41.9077
41.9076
41.064
41.0639
40.2558
40.2558
39.4832
39.4831
38.7459
38.7459
38.0436
38.0436
37.3756
37.3755
36.7409
36.7408
36.1385
36.1385
35.5674
35.5674
35.0265
35.0265
34.5149
34.5149
34.0316
34.0316
33.5757
33.5757
33.1465
33.1465
32.7431
32.7431
32.3648
32.3648
32.0108
32.0108
31.6803
31.6803
31.3727
31.3727
31.0871
31.0871
30.8229
30.8229
30.5796
30.5796
30.3567
30.3567
30.154
30.154
29.9712
29.9712
29.8083
29.8083
29.6653
29.6653
29.542
29.542
29.4385
29.4385
29.3544
29.3544
29.2896
29.2896
29.2436
29.2436
29.2161
29.2161
29.2069
29.2069
29.2158
29.2158
29.2428
29.2428
29.288
29.288
29.3516
29.3516
29.4342
29.4342
29.5361
29.5361
29.6579
29.6579
29.8001
29.8001
29.9634
29.9634
30.1482
30.1482
30.3553
30.3553
30.5851
30.5851
30.838
30.838
31.1144
31.1144
31.4137
31.4137
31.734
31.734
32.0705
32.0705
32.4111
32.4111
32.7285
32.7285
32.966
32.9659
32.9336
32.9336
32.9342
32.9342
32.9667
32.9667
32.7294
32.7294
32.4118
32.4118
32.0712
32.0712
31.7347
31.7347
31.4142
31.4142
31.1148
31.1148
30.8384
30.8384
30.5854
30.5854
30.3556
30.3556
30.1485
30.1485
29.9635
29.9635
29.8003
29.8003
29.658
29.658
29.5362
29.5362
29.4344
29.4344
29.3518
29.3518
29.2881
29.2881
29.2429
29.2429
29.2159
29.2159
29.207
29.207
29.2162
29.2162
29.2437
29.2437
29.2897
29.2897
29.3545
29.3545
29.4385
29.4385
29.542
29.542
29.6653
29.6653
29.8083
29.8083
29.9712
29.9712
30.1539
30.1539
30.3566
30.3566
30.5795
30.5795
30.8227
30.8227
31.0868
31.0868
31.3723
31.3723
31.6799
31.6799
32.0103
32.0103
32.3642
32.3642
32.7425
32.7425
33.1458
33.1458
33.5749
33.5749
34.0307
34.0307
34.514
34.514
35.0255
35.0255
35.5663
35.5663
36.1373
36.1373
36.7396
36.7396
37.3742
37.3742
38.0421
38.0421
38.7443
38.7443
39.4815
39.4815
40.254
40.254
41.062
41.0621
41.9056
41.9057
42.7847
42.7847
43.6992
43.6992
44.6494
44.6495
45.6359
45.6359
46.6596
46.6596
47.722
47.7221
48.8252
48.8252
49.9712
49.9712
51.1624
51.1624
52.4011
52.4011
53.6894
53.6895
55.0291
55.0292
56.4217
56.4218
57.8679
57.868
59.3685
59.3687
60.9242
60.9244
62.5358
62.536
64.2042
64.2044
65.9304
65.9307
67.715
67.7153
69.5569
69.5573
71.4532
71.4536
73.3986
73.3991
75.3854
75.3859
77.4047
77.405
79.4489
79.4489
81.5121
81.5119
83.5923
83.5921
85.6936
85.6934
87.8266
87.8264
90.0058
90.0058
92.2467
92.2469
94.5616
94.5618
96.9552
96.9556
99.4226
99.4232
101.948
101.949
104.506
104.507
107.065
107.065
109.592
109.591
112.057
112.055
114.434
114.432
116.708
116.706
118.874
118.873
120.943
120.941
122.932
122.93
124.867
124.866
126.778
126.777
128.697
128.696
130.655
130.655
132.68
132.68
134.795
134.795
137.02
137.02
139.367
139.368
141.848
141.849
144.467
144.468
147.227
147.228
150.127
150.128
153.163
153.165
156.331
156.333
159.622
159.624
163.026
163.028
166.529
166.531
170.115
170.118
173.764
173.768
177.456
177.46
181.167
181.171
184.871
184.876
188.545
188.549
192.164
192.169
195.711
195.716
199.174
199.178
202.551
202.553
205.849
205.85
209.089
209.088
212.298
212.296
215.518
215.517
218.8
218.799
222.194
222.194
225.748
225.748
229.5
229.501
233.477
233.478
237.682
237.684
242.098
242.1
246.693
246.695
251.419
251.421
256.221
256.223
261.043
261.044
265.836
265.836
270.563
270.56
275.199
275.193
279.736
279.728
284.182
284.174
288.56
288.552
292.905
292.897
297.256
297.249
301.657
301.651
306.152
306.146
310.78
310.775
315.579
315.575
320.579
320.575
325.805
325.802
331.278
331.276
337.013
337.011
343.021
343.02
349.31
349.309
355.884
355.883
362.743
362.743
369.886
369.887
377.309
377.31
385.005
385.006
392.966
392.967
401.184
401.185
409.649
409.651
418.355
418.356
427.296
427.298
436.471
436.473
445.883
445.885
455.536
455.539
465.442
465.445
475.613
475.616
486.064
486.067
496.81
496.813
507.866
507.869
519.243
519.246
530.952
530.955
542.999
543.003
555.387
555.391
568.116
568.119
581.183
581.186
594.587
594.59
608.329
608.333
622.419
622.422
636.871
636.875
651.715
651.719
666.989
666.993
682.74
682.744
699.014
699.018
715.849
715.853
733.271
733.275
751.28
751.284
769.844
769.848
788.914
788.918
808.425
808.429
828.309
828.313
848.512
848.516
869
869.003
889.767
889.77
910.84
910.843
932.27
932.273
954.125
954.127
976.482
976.484
999.415
999.416
1022.99
1022.99
1047.25
1047.25
1072.24
1072.24
1097.96
1097.96
1124.43
1124.43
1151.63
1151.63
1179.56
1179.56
1208.22
1208.22
1237.61
1237.61
1267.74
1267.74
1298.63
1298.63
1330.3
1330.29
1362.75
1362.74
1395.97
1395.96
1429.94
1429.93
1464.58
1464.57
1499.79
1499.78
1535.46
1535.45
1571.43
1571.41
1607.56
1607.54
1643.69
1643.67
1679.72
1679.7
1715.54
1715.51
1751.1
1751.06
1786.36
1786.31
1821.34
1821.29
1856.09
1856.03
1890.68
1890.6
1925.22
1925.13
1959.84
1959.74
1994.71
1994.59
2030
2029.88
2065.94
2065.81
2102.73
2102.58
2140.56
2140.41
2179.58
2179.43
2219.88
2219.71
2261.41
2261.24
2303.96
2303.78
2347.13
2346.94
2390.31
2390.1
2432.63
2432.41
2473.07
2472.83
2510.42
2510.16
2543.5
2543.22
2571.28
2570.99
2593.18
2592.89
2609.25
2608.95
2620.22
2619.92
2627.49
2627.2
2632.78
2632.5
2637.8
2637.52
2643.82
2643.55
2651.65
2651.38
2661.37
2661.11
2672.79
2672.54
2685.58
2685.34
2699.43
2699.19
2714.16
2713.93
2729.7
2729.47
2746.09
2745.86
2763.4
2763.18
2781.77
2781.55
2801.34
2801.12
2822.26
2822.04
2844.67
2844.45
2868.74
2868.53
2894.62
2894.41
2922.46
2922.25
2952.41
2952.2
2984.62
2984.4
3019.23
3019.01
3056.42
3056.2
3096.36
3096.14
3139.26
3139.04
3185.35
3185.13
3234.89
3234.66
3288.15
3287.92
3345.46
3345.22
3407.17
3406.94
3473.7
3473.46
3545.48
3545.23
3623.03
3622.78
3706.93
3706.68
3797.87
3797.61
3896.63
3896.36
4004.13
4003.85
4121.44
4121.15
4249.85
4249.55
4390.87
4390.56
4546.36
4546.03
4718.52
4718.18
4910.09
4909.73
5124.45
5124.08
5365.86
5365.47
5639.72
5639.3
5953.03
5952.6
6315.07
6314.61
6738.33
6737.84
7240.13
7239.6
7845.19
7844.62
8590.1
8589.49
9531.47
9530.82
10761.9
10761.2
12443.7
12443
14889.4
14888.6
18778.3
18777.6
25856.5
25856.1
41650.5
41651.3
87319.9
87322.9
263859
263862
1.52418e+06
1.52418e+06
32.9336
32.9336
32.966
32.966
32.7287
32.7287
32.4112
32.4112
32.0707
32.0707
31.7342
31.7342
31.4138
31.4139
31.1146
31.1146
30.8383
30.8383
30.5853
30.5853
30.3555
30.3555
30.1484
30.1484
29.9635
29.9635
29.8002
29.8002
29.658
29.658
29.5362
29.5362
29.4343
29.4343
29.3518
29.3518
29.2881
29.2881
29.2429
29.2429
29.2159
29.2159
29.207
29.207
29.2162
29.2162
29.2437
29.2437
29.2896
29.2896
29.3545
29.3545
29.4385
29.4385
29.542
29.542
29.6653
29.6653
29.8083
29.8083
29.9712
29.9712
30.1539
30.1539
30.3567
30.3566
30.5795
30.5795
30.8227
30.8227
31.0868
31.0868
31.3723
31.3723
31.6799
31.6799
32.0103
32.0103
32.3642
32.3642
32.7425
32.7425
33.1458
33.1458
33.5749
33.5749
34.0307
34.0307
34.514
34.514
35.0255
35.0255
35.5663
35.5663
36.1373
36.1373
36.7396
36.7396
37.3742
37.3742
38.0422
38.0422
38.7444
38.7444
39.4815
39.4815
40.2541
40.254
41.0621
41.0621
41.9057
41.9056
42.7847
42.7847
43.6992
43.6992
44.6494
44.6494
45.6358
45.6358
46.6595
46.6595
47.722
47.7219
48.8251
48.8251
49.9711
49.9711
51.1623
51.1623
52.4011
52.401
53.6894
53.6893
55.0292
55.0291
56.4218
56.4216
57.8681
57.8679
59.3687
59.3685
60.9244
60.9242
62.536
62.5358
64.2045
64.2042
65.9308
65.9305
67.7154
67.7151
69.5574
69.557
71.4537
71.4532
73.3991
73.3986
75.3859
75.3854
77.405
77.4046
79.4488
79.4487
81.5116
81.5119
83.5917
83.5921
85.693
85.6933
87.8261
87.8263
90.0055
90.0056
92.2467
92.2467
94.5618
94.5616
96.9557
96.9553
99.4234
99.4229
101.949
101.948
104.507
104.506
107.065
107.065
109.591
109.592
112.055
112.056
114.432
114.434
116.705
116.707
118.872
118.874
120.94
120.942
122.929
122.93
124.864
124.865
126.775
126.776
128.695
128.696
130.653
130.654
132.678
132.678
134.794
134.794
137.019
137.018
139.367
139.366
141.848
141.847
144.467
144.466
147.227
147.226
150.128
150.126
153.164
153.163
156.333
156.331
159.624
159.622
163.028
163.026
166.531
166.528
170.117
170.114
173.768
173.764
177.46
177.456
181.171
181.167
184.876
184.871
188.549
188.544
192.168
192.163
195.715
195.71
199.177
199.173
202.552
202.55
205.849
205.848
209.087
209.087
212.295
212.297
215.516
215.517
218.798
218.799
222.193
222.193
225.747
225.747
229.5
229.5
233.478
233.477
237.683
237.682
242.1
242.098
246.695
246.693
251.421
251.418
256.223
256.22
261.044
261.043
265.835
265.836
270.559
270.563
275.193
275.198
279.728
279.735
284.173
284.181
288.551
288.56
292.896
292.904
297.248
297.255
301.65
301.656
306.145
306.151
310.775
310.78
315.574
315.579
320.575
320.578
325.801
325.805
331.275
331.278
337.01
337.012
343.019
343.021
349.308
349.31
355.883
355.883
362.742
362.743
369.886
369.886
377.309
377.309
385.005
385.005
392.967
392.966
401.184
401.183
409.65
409.649
418.356
418.354
427.297
427.296
436.473
436.471
445.884
445.882
455.538
455.536
465.444
465.442
475.615
475.613
486.066
486.064
496.813
496.81
507.868
507.865
519.246
519.243
530.955
530.952
543.002
542.999
555.39
555.387
568.119
568.115
581.186
581.182
594.59
594.586
608.333
608.329
622.422
622.419
636.875
636.871
651.719
651.715
666.993
666.989
682.744
682.74
699.017
699.013
715.853
715.849
733.275
733.271
751.284
751.28
769.848
769.844
788.918
788.914
808.429
808.425
828.313
828.309
848.515
848.512
869.003
869
889.77
889.768
910.843
910.841
932.273
932.271
954.127
954.126
976.483
976.482
999.416
999.416
1022.99
1022.99
1047.25
1047.25
1072.24
1072.24
1097.96
1097.96
1124.43
1124.43
1151.63
1151.63
1179.56
1179.57
1208.22
1208.22
1237.61
1237.61
1267.74
1267.74
1298.63
1298.63
1330.29
1330.3
1362.74
1362.75
1395.96
1395.97
1429.93
1429.94
1464.57
1464.58
1499.78
1499.79
1535.45
1535.46
1571.41
1571.43
1607.54
1607.56
1643.67
1643.7
1679.7
1679.72
1715.51
1715.55
1751.06
1751.1
1786.31
1786.36
1821.29
1821.34
1856.03
1856.09
1890.6
1890.68
1925.13
1925.22
1959.74
1959.84
1994.59
1994.71
2029.88
2030.01
2065.81
2065.94
2102.58
2102.73
2140.41
2140.56
2179.43
2179.59
2219.71
2219.88
2261.24
2261.42
2303.78
2303.97
2346.94
2347.14
2390.1
2390.31
2432.41
2432.64
2472.83
2473.07
2510.16
2510.42
2543.22
2543.5
2570.99
2571.28
2592.89
2593.19
2608.95
2609.25
2619.93
2620.22
2627.2
2627.49
2632.5
2632.79
2637.52
2637.8
2643.55
2643.83
2651.38
2651.65
2661.12
2661.37
2672.55
2672.8
2685.34
2685.58
2699.2
2699.43
2713.93
2714.16
2729.48
2729.71
2745.86
2746.09
2763.18
2763.41
2781.56
2781.78
2801.12
2801.34
2822.04
2822.26
2844.46
2844.67
2868.53
2868.75
2894.41
2894.63
2922.25
2922.47
2952.2
2952.42
2984.4
2984.62
3019.02
3019.23
3056.2
3056.42
3096.15
3096.37
3139.05
3139.27
3185.13
3185.36
3234.66
3234.89
3287.92
3288.15
3345.23
3345.46
3406.94
3407.18
3473.46
3473.7
3545.23
3545.48
3622.78
3623.03
3706.68
3706.94
3797.61
3797.88
3896.36
3896.64
4003.85
4004.13
4121.15
4121.44
4249.55
4249.85
4390.56
4390.88
4546.03
4546.36
4718.18
4718.52
4909.74
4910.09
5124.08
5124.46
5365.47
5365.86
5639.31
5639.72
5952.6
5953.04
6314.61
6315.08
6737.84
6738.34
7239.6
7240.14
7844.63
7845.2
8589.5
8590.11
9530.82
9531.48
10761.2
10761.9
12443
12443.7
14888.6
14889.4
18777.6
18778.3
25856.1
25856.5
41651.3
41650.6
87322.9
87319.9
263862
263859
1.52418e+06
1.52418e+06
)
;

boundaryField
{
    walls
    {
        blending        binomial2;
        n               2;
        beta1           0.075;
        type            omegaWallFunction;
        value           nonuniform List<scalar> 8(1.52417e+06 1.52417e+06 1.52417e+06 1.52417e+06 1.52418e+06 1.52418e+06 1.52418e+06 1.52418e+06);
    }
    inlet
    {
        type            cyclic;
    }
    outlet
    {
        type            cyclic;
    }
    sides
    {
        type            empty;
    }
}


// ************************************************************************* //
