/*--------------------------------*- C++ -*----------------------------------*\
| =========                 |                                                 |
| \\      /  F ield         | OpenFOAM: The Open Source CFD Toolbox           |
|  \\    /   O peration     | Version:  2106                                  |
|   \\  /    A nd           | Website:  www.openfoam.com                      |
|    \\/     M anipulation  |                                                 |
\*---------------------------------------------------------------------------*/
FoamFile
{
    version     2.0;
    format      ascii;
    arch        "LSB;label=32;scalar=64";
    class       volVectorField;
    location    "15000";
    object      U;
}
// * * * * * * * * * * * * * * * * * * * * * * * * * * * * * * * * * * * * * //

dimensions      [0 1 -1 0 0 0 0];

internalField   nonuniform List<vector> 
2560
(
(0.00171942 -1.09758e-15 1.62091e-18)
(0.00171942 1.62152e-19 -1.08396e-33)
(0.00518274 -2.91936e-15 4.93901e-17)
(0.00518274 -6.41164e-20 4.55386e-21)
(0.0086959 -3.01487e-15 5.41676e-17)
(0.0086959 6.25481e-19 2.84733e-21)
(0.0122596 -2.77235e-15 4.98231e-17)
(0.0122596 1.04919e-18 3.1255e-21)
(0.0158746 -2.72778e-15 5.1871e-17)
(0.0158746 1.48108e-18 3.48429e-21)
(0.0195415 -2.75727e-15 5.43934e-17)
(0.0195415 1.92257e-18 4.05674e-21)
(0.0232613 -2.76539e-15 5.69679e-17)
(0.0232613 2.36835e-18 4.90409e-21)
(0.0270345 -2.76703e-15 5.96192e-17)
(0.0270345 2.82654e-18 5.7912e-21)
(0.0308619 -2.76816e-15 6.23552e-17)
(0.0308619 3.29401e-18 6.64726e-21)
(0.0347444 -2.76924e-15 6.51815e-17)
(0.0347444 3.75518e-18 7.46528e-21)
(0.0386828 -2.77026e-15 6.81026e-17)
(0.0386828 4.21827e-18 8.36903e-21)
(0.0426777 -2.77125e-15 7.11224e-17)
(0.0426777 4.70253e-18 9.26347e-21)
(0.04673 -2.77226e-15 7.42446e-17)
(0.04673 5.18936e-18 9.90996e-21)
(0.0508406 -2.7733e-15 7.74726e-17)
(0.0508406 5.70703e-18 1.06289e-20)
(0.0550103 -2.77434e-15 8.08099e-17)
(0.0550103 6.23226e-18 1.09213e-20)
(0.0592398 -2.77539e-15 8.42601e-17)
(0.0592398 6.73429e-18 1.13558e-20)
(0.06353 -2.77608e-15 8.78266e-17)
(0.06353 7.25485e-18 1.20595e-20)
(0.0678818 -2.77787e-15 9.15126e-17)
(0.0678818 7.75507e-18 1.20397e-20)
(0.072296 -2.77867e-15 9.53217e-17)
(0.072296 8.31151e-18 1.23176e-20)
(0.0767735 -2.77983e-15 9.92577e-17)
(0.0767735 8.85439e-18 1.1906e-20)
(0.0813152 -2.78094e-15 1.03324e-16)
(0.0813152 9.3448e-18 1.20232e-20)
(0.0859219 -2.78213e-15 1.07526e-16)
(0.0859219 9.89486e-18 1.20655e-20)
(0.0905944 -2.78338e-15 1.11865e-16)
(0.0905944 1.05023e-17 1.12445e-20)
(0.0953336 -2.78465e-15 1.16346e-16)
(0.0953336 1.10541e-17 9.77343e-21)
(0.10014 -2.78589e-15 1.20973e-16)
(0.10014 1.15793e-17 8.49252e-21)
(0.105016 -2.78722e-15 1.25749e-16)
(0.105016 1.21862e-17 6.64269e-21)
(0.10996 -2.78856e-15 1.30678e-16)
(0.10996 1.27834e-17 3.83522e-21)
(0.114975 -2.78978e-15 1.35764e-16)
(0.114975 1.33104e-17 1.06708e-20)
(0.12006 -2.79102e-15 1.4101e-16)
(0.12006 1.38858e-17 1.46613e-19)
(0.125217 -2.79234e-15 1.46418e-16)
(0.125217 1.44715e-17 2.89044e-19)
(0.130446 -2.79374e-15 1.51992e-16)
(0.130446 1.51171e-17 4.40701e-19)
(0.135748 -2.79515e-15 1.57735e-16)
(0.135748 1.57665e-17 6.05531e-19)
(0.141124 -2.79667e-15 1.63647e-16)
(0.141124 1.64339e-17 7.89383e-19)
(0.146573 -2.79822e-15 1.69731e-16)
(0.146573 1.7125e-17 9.8421e-19)
(0.152097 -2.79976e-15 1.75928e-16)
(0.152097 1.77313e-17 1.19231e-18)
(0.157696 -2.80133e-15 1.8086e-16)
(0.157696 1.83185e-17 1.41186e-18)
(0.16337 -2.80298e-15 1.85902e-16)
(0.16337 1.89884e-17 1.64486e-18)
(0.169119 -2.80454e-15 1.91061e-16)
(0.169119 1.96688e-17 1.89528e-18)
(0.174943 -2.80589e-15 1.96335e-16)
(0.174943 2.00728e-17 2.1603e-18)
(0.180842 -2.80737e-15 2.01712e-16)
(0.180842 2.0546e-17 2.44133e-18)
(0.186815 -2.80905e-15 2.07189e-16)
(0.186815 2.12312e-17 2.7338e-18)
(0.192862 -2.81065e-15 2.12765e-16)
(0.192862 2.19372e-17 3.04547e-18)
(0.198981 -2.8123e-15 2.18427e-16)
(0.198981 2.23929e-17 3.37618e-18)
(0.205173 -2.81407e-15 2.24172e-16)
(0.205173 2.28806e-17 3.71679e-18)
(0.211435 -2.81578e-15 2.29989e-16)
(0.211435 2.34588e-17 4.07449e-18)
(0.217765 -2.81755e-15 2.35869e-16)
(0.217765 2.40191e-17 4.45588e-18)
(0.224162 -2.81932e-15 2.41793e-16)
(0.224162 2.46123e-17 4.85961e-18)
(0.230624 -2.82123e-15 2.47757e-16)
(0.230624 2.51166e-17 5.28664e-18)
(0.237148 -2.82314e-15 2.53746e-16)
(0.237148 2.56349e-17 5.71931e-18)
(0.24373 -2.82489e-15 2.59733e-16)
(0.24373 2.61033e-17 6.17522e-18)
(0.250368 -2.82657e-15 2.65721e-16)
(0.250368 2.67068e-17 6.65098e-18)
(0.257058 -2.82799e-15 2.71689e-16)
(0.257058 2.69353e-17 7.13861e-18)
(0.263795 -2.82947e-15 2.77596e-16)
(0.263795 2.70385e-17 7.66441e-18)
(0.270576 -2.83128e-15 2.83447e-16)
(0.270576 2.75453e-17 8.19691e-18)
(0.277396 -2.83321e-15 2.89227e-16)
(0.277396 2.80616e-17 8.73613e-18)
(0.28425 -2.83527e-15 2.94891e-16)
(0.28425 2.87762e-17 9.29116e-18)
(0.291132 -2.8374e-15 3.00436e-16)
(0.291132 2.93071e-17 9.84337e-18)
(0.298038 -2.83924e-15 3.05876e-16)
(0.298038 2.93658e-17 1.04071e-17)
(0.304961 -2.84064e-15 3.11179e-16)
(0.304961 2.93833e-17 1.09961e-17)
(0.311897 -2.84226e-15 3.16298e-16)
(0.311897 2.93524e-17 1.15925e-17)
(0.318839 -2.8441e-15 3.21251e-16)
(0.318839 2.94804e-17 1.21832e-17)
(0.325782 -2.84565e-15 3.26026e-16)
(0.325782 2.97007e-17 1.2776e-17)
(0.332719 -2.84702e-15 3.30608e-16)
(0.332719 2.92082e-17 1.3384e-17)
(0.339646 -2.84851e-15 3.34999e-16)
(0.339646 2.97291e-17 1.39972e-17)
(0.346556 -2.85015e-15 3.39185e-16)
(0.346556 3.01311e-17 1.46102e-17)
(0.353445 -2.85184e-15 3.43164e-16)
(0.353445 2.9636e-17 1.52325e-17)
(0.360306 -2.85327e-15 3.46937e-16)
(0.360306 2.93862e-17 1.58534e-17)
(0.367136 -2.85481e-15 3.50504e-16)
(0.367136 2.92298e-17 1.64972e-17)
(0.373928 -2.85664e-15 3.53858e-16)
(0.373928 2.96607e-17 1.71267e-17)
(0.38068 -2.85826e-15 3.57064e-16)
(0.38068 2.99422e-17 1.77477e-17)
(0.387387 -2.85963e-15 3.60055e-16)
(0.387387 2.94679e-17 1.83794e-17)
(0.394045 -2.86072e-15 3.62899e-16)
(0.394045 2.84442e-17 1.90406e-17)
(0.400651 -2.86173e-15 3.65548e-16)
(0.400651 2.79764e-17 1.96985e-17)
(0.407202 -2.86258e-15 3.68066e-16)
(0.407202 2.7717e-17 2.03738e-17)
(0.413694 -2.86285e-15 3.70448e-16)
(0.413694 2.66118e-17 2.10542e-17)
(0.420127 -2.86382e-15 3.72654e-16)
(0.420127 2.60183e-17 2.1726e-17)
(0.426497 -2.86575e-15 3.74742e-16)
(0.426497 2.6303e-17 2.23663e-17)
(0.432803 -2.86719e-15 3.76737e-16)
(0.432803 2.5896e-17 2.30471e-17)
(0.439044 -2.86862e-15 3.78617e-16)
(0.439044 2.54041e-17 2.37446e-17)
(0.445218 -2.87017e-15 3.80448e-16)
(0.445218 2.50653e-17 2.44533e-17)
(0.451324 -2.87116e-15 3.82169e-16)
(0.451324 2.41466e-17 2.51687e-17)
(0.457362 -2.87232e-15 3.83783e-16)
(0.457362 2.22774e-17 2.58849e-17)
(0.463332 -2.87298e-15 3.85441e-16)
(0.463332 2.13352e-17 2.66484e-17)
(0.469233 -2.87276e-15 3.87005e-16)
(0.469233 2.08002e-17 2.74585e-17)
(0.475065 -2.87264e-15 3.88514e-16)
(0.475065 1.84405e-17 2.82414e-17)
(0.480828 -2.87237e-15 3.90044e-16)
(0.480828 1.67368e-17 2.90001e-17)
(0.486522 -2.8719e-15 3.91563e-16)
(0.486522 1.52595e-17 2.97554e-17)
(0.492149 -2.87117e-15 3.9301e-16)
(0.492149 1.29416e-17 3.04689e-17)
(0.497708 -2.87063e-15 3.9451e-16)
(0.497708 1.16538e-17 3.12541e-17)
(0.5032 -2.87088e-15 3.96008e-16)
(0.5032 1.04604e-17 3.20211e-17)
(0.508626 -2.87124e-15 3.97503e-16)
(0.508626 8.80888e-18 3.26966e-17)
(0.513986 -2.87131e-15 3.99054e-16)
(0.513986 7.40206e-18 3.34107e-17)
(0.519283 -2.87108e-15 4.00603e-16)
(0.519283 5.69778e-18 3.41746e-17)
(0.524516 -2.87115e-15 4.02163e-16)
(0.524516 4.51423e-18 3.4837e-17)
(0.529686 -2.87129e-15 4.0383e-16)
(0.529686 2.60259e-18 3.55107e-17)
(0.534795 -2.87041e-15 4.05452e-16)
(0.534795 3.38963e-19 3.62908e-17)
(0.539844 -2.87003e-15 4.07253e-16)
(0.539844 -2.76241e-19 3.71343e-17)
(0.544833 -2.87001e-15 4.09028e-16)
(0.544833 -1.95543e-18 3.79143e-17)
(0.549764 -2.86946e-15 4.10849e-16)
(0.549764 -4.11373e-18 3.85913e-17)
(0.554638 -2.86914e-15 4.12744e-16)
(0.554638 -5.38996e-18 3.93058e-17)
(0.559456 -2.86873e-15 4.14679e-16)
(0.559456 -6.86675e-18 4.02215e-17)
(0.56422 -2.866e-15 4.16926e-16)
(0.56422 -1.05396e-17 4.12069e-17)
(0.56893 -2.86275e-15 4.19004e-16)
(0.56893 -1.42865e-17 4.22763e-17)
(0.573587 -2.86137e-15 4.21111e-16)
(0.573587 -1.50874e-17 4.33444e-17)
(0.578193 -2.8601e-15 4.23451e-16)
(0.578193 -1.77239e-17 4.43919e-17)
(0.582749 -2.85837e-15 4.25848e-16)
(0.582749 -2.12072e-17 4.54719e-17)
(0.587256 -2.85519e-15 4.28278e-16)
(0.587256 -2.43312e-17 4.66557e-17)
(0.591714 -2.85221e-15 4.30765e-16)
(0.591714 -2.82902e-17 4.79273e-17)
(0.596126 -2.84897e-15 4.33443e-16)
(0.596126 -3.26918e-17 4.91198e-17)
(0.600491 -2.84399e-15 4.3622e-16)
(0.600491 -3.76169e-17 5.05778e-17)
(0.604812 -2.83914e-15 4.39047e-16)
(0.604812 -4.1799e-17 5.20206e-17)
(0.609089 -2.83482e-15 4.41963e-16)
(0.609089 -4.53195e-17 5.33635e-17)
(0.613323 -2.82994e-15 4.44889e-16)
(0.613323 -5.00034e-17 5.46595e-17)
(0.617515 -2.82466e-15 4.47971e-16)
(0.617515 -5.46503e-17 5.61388e-17)
(0.621666 -2.81901e-15 4.51145e-16)
(0.621666 -6.02448e-17 5.77265e-17)
(0.625777 -2.81326e-15 4.54384e-16)
(0.625777 -6.57159e-17 5.92895e-17)
(0.629849 -2.80747e-15 4.57666e-16)
(0.629849 -7.10859e-17 6.08367e-17)
(0.633883 -2.80318e-15 4.61068e-16)
(0.633883 -7.55996e-17 6.24497e-17)
(0.63788 -2.79942e-15 4.64462e-16)
(0.63788 -7.86033e-17 6.40907e-17)
(0.641841 -2.79446e-15 4.67873e-16)
(0.641841 -8.37312e-17 6.57315e-17)
(0.645766 -2.78946e-15 4.71724e-16)
(0.645766 -8.76134e-17 6.71193e-17)
(0.649656 -2.78512e-15 4.75272e-16)
(0.649656 -9.13059e-17 6.86921e-17)
(0.653512 -2.78031e-15 4.79047e-16)
(0.653512 -9.51638e-17 7.0111e-17)
(0.657335 -2.77472e-15 4.82962e-16)
(0.657335 -1.00274e-16 7.16806e-17)
(0.661126 -2.76964e-15 4.87151e-16)
(0.661126 -1.06311e-16 7.33575e-17)
(0.664885 -2.76345e-15 4.91415e-16)
(0.664885 -1.12798e-16 7.51481e-17)
(0.668613 -2.75684e-15 4.95599e-16)
(0.668613 -1.19618e-16 7.68199e-17)
(0.672311 -2.74957e-15 4.99975e-16)
(0.672311 -1.24855e-16 7.85611e-17)
(0.67598 -2.74415e-15 5.04446e-16)
(0.67598 -1.29027e-16 8.03752e-17)
(0.67962 -2.74187e-15 5.08725e-16)
(0.67962 -1.29495e-16 8.1981e-17)
(0.683232 -2.73848e-15 5.13432e-16)
(0.683232 -1.3134e-16 8.36545e-17)
(0.686816 -2.73333e-15 5.18024e-16)
(0.686816 -1.35914e-16 8.54161e-17)
(0.690373 -2.72715e-15 5.22758e-16)
(0.690373 -1.41051e-16 8.66799e-17)
(0.693904 -2.7196e-15 5.28046e-16)
(0.693904 -1.44985e-16 9.07963e-17)
(0.69741 -2.71142e-15 5.32997e-16)
(0.69741 -1.47592e-16 9.65547e-17)
(0.70089 -2.70427e-15 5.38112e-16)
(0.70089 -1.52785e-16 1.02428e-16)
(0.704346 -2.69804e-15 5.43636e-16)
(0.704346 -1.59822e-16 1.08485e-16)
(0.707777 -2.6904e-15 5.49026e-16)
(0.707777 -1.64759e-16 1.14674e-16)
(0.711186 -2.68449e-15 5.54429e-16)
(0.711186 -1.68668e-16 1.20552e-16)
(0.714571 -2.67562e-15 5.60326e-16)
(0.714571 -1.76437e-16 1.26826e-16)
(0.717934 -2.6658e-15 5.66377e-16)
(0.717934 -1.82593e-16 1.33532e-16)
(0.721275 -2.65479e-15 5.72501e-16)
(0.721275 -1.88238e-16 1.39931e-16)
(0.724594 -2.64124e-15 5.7877e-16)
(0.724594 -1.96977e-16 1.46367e-16)
(0.727893 -2.63467e-15 5.855e-16)
(0.727893 -2.03682e-16 1.53413e-16)
(0.731171 -2.62241e-15 5.92401e-16)
(0.731171 -2.10197e-16 1.60395e-16)
(0.734429 -2.60899e-15 5.9892e-16)
(0.734429 -2.21622e-16 1.67419e-16)
(0.737667 -2.59789e-15 6.06005e-16)
(0.737667 -2.30841e-16 1.74592e-16)
(0.740886 -2.58714e-15 6.13389e-16)
(0.740886 -2.39608e-16 1.82195e-16)
(0.744087 -2.57622e-15 6.20681e-16)
(0.744087 -2.5027e-16 1.89866e-16)
(0.747269 -2.56425e-15 6.28434e-16)
(0.747269 -2.61575e-16 1.97605e-16)
(0.750433 -2.54932e-15 6.36018e-16)
(0.750433 -2.75494e-16 2.05463e-16)
(0.753579 -2.53557e-15 6.44284e-16)
(0.753579 -2.86223e-16 2.13181e-16)
(0.756708 -2.52137e-15 6.52379e-16)
(0.756708 -2.98689e-16 2.20929e-16)
(0.75982 -2.50291e-15 6.60842e-16)
(0.75982 -3.10795e-16 2.28977e-16)
(0.762916 -2.48443e-15 6.68567e-16)
(0.762916 -3.21734e-16 2.37143e-16)
(0.765995 -2.46879e-15 6.77143e-16)
(0.765995 -3.37565e-16 2.45936e-16)
(0.769059 -2.45566e-15 6.86118e-16)
(0.769059 -3.52708e-16 2.54973e-16)
(0.772107 -2.44154e-15 6.95339e-16)
(0.772107 -3.65234e-16 2.6329e-16)
(0.77514 -2.42646e-15 6.90696e-16)
(0.77514 -3.79135e-16 2.7191e-16)
(0.778158 -2.40937e-15 6.86069e-16)
(0.778158 -3.91022e-16 2.81218e-16)
(0.781161 -2.39089e-15 6.81419e-16)
(0.781161 -4.00398e-16 2.90757e-16)
(0.78415 -2.37312e-15 6.76713e-16)
(0.78415 -4.14242e-16 3.00025e-16)
(0.787125 -2.35564e-15 6.72364e-16)
(0.787125 -4.3282e-16 3.08901e-16)
(0.790087 -2.33873e-15 6.67506e-16)
(0.790087 -4.49881e-16 3.18273e-16)
(0.793035 -2.32389e-15 6.62671e-16)
(0.793035 -4.5855e-16 3.27857e-16)
(0.795969 -2.30828e-15 6.57327e-16)
(0.795969 -4.65805e-16 3.37653e-16)
(0.798891 -2.29476e-15 6.515e-16)
(0.798891 -4.71091e-16 3.47992e-16)
(0.8018 -2.28089e-15 6.45601e-16)
(0.8018 -4.81164e-16 3.58405e-16)
(0.804697 -2.26823e-15 6.40838e-16)
(0.804697 -4.9317e-16 3.68573e-16)
(0.807582 -2.25099e-15 6.35439e-16)
(0.807582 -5.00608e-16 3.7873e-16)
(0.810455 -2.23454e-15 6.29864e-16)
(0.810455 -5.1254e-16 3.89071e-16)
(0.813316 -2.21692e-15 6.24153e-16)
(0.813316 -5.19384e-16 3.99486e-16)
(0.816165 -2.20318e-15 6.19212e-16)
(0.816165 -5.18573e-16 4.1016e-16)
(0.819003 -2.19113e-15 6.14785e-16)
(0.819003 -5.24606e-16 4.21704e-16)
(0.821831 -2.17729e-15 6.08943e-16)
(0.821831 -5.37527e-16 4.33745e-16)
(0.824647 -2.16207e-15 6.03518e-16)
(0.824647 -5.46296e-16 4.46262e-16)
(0.827453 -2.1435e-15 5.98181e-16)
(0.827453 -5.5949e-16 4.58779e-16)
(0.830248 -2.12691e-15 5.92585e-16)
(0.830248 -5.74714e-16 4.71656e-16)
(0.833033 -2.1101e-15 5.86812e-16)
(0.833033 -5.87235e-16 4.83682e-16)
(0.835809 -2.09154e-15 5.81819e-16)
(0.835809 -6.01487e-16 4.94817e-16)
(0.838574 -2.07115e-15 5.76645e-16)
(0.838574 -6.15742e-16 5.07184e-16)
(0.841329 -2.05312e-15 5.70402e-16)
(0.841329 -6.26859e-16 5.20315e-16)
(0.844075 -2.03366e-15 5.64443e-16)
(0.844075 -6.34988e-16 5.33855e-16)
(0.846812 -2.01088e-15 5.58438e-16)
(0.846812 -6.42763e-16 5.46191e-16)
(0.84954 -1.99173e-15 5.51504e-16)
(0.84954 -6.55241e-16 5.58405e-16)
(0.852258 -1.97227e-15 5.45789e-16)
(0.852258 -6.65775e-16 5.7173e-16)
(0.854968 -1.95139e-15 5.40394e-16)
(0.854968 -6.78558e-16 5.86023e-16)
(0.857669 -1.93016e-15 5.35256e-16)
(0.857669 -6.9712e-16 6.00113e-16)
(0.860361 -1.91171e-15 5.30165e-16)
(0.860361 -7.10771e-16 6.13987e-16)
(0.863045 -1.89542e-15 5.2553e-16)
(0.863045 -7.23051e-16 6.27697e-16)
(0.865721 -1.87756e-15 5.21636e-16)
(0.865721 -7.34652e-16 6.41515e-16)
(0.868388 -1.85853e-15 5.16425e-16)
(0.868388 -7.43754e-16 6.56e-16)
(0.871048 -1.83506e-15 5.11069e-16)
(0.871048 -7.53162e-16 6.71621e-16)
(0.8737 -1.81047e-15 5.06402e-16)
(0.8737 -7.65546e-16 6.86718e-16)
(0.876344 -1.78956e-15 5.00614e-16)
(0.876344 -7.77343e-16 7.00795e-16)
(0.87898 -1.77055e-15 4.96134e-16)
(0.87898 -7.9012e-16 7.17794e-16)
(0.881608 -1.7501e-15 4.9232e-16)
(0.881608 -7.9644e-16 7.3478e-16)
(0.88423 -1.7275e-15 4.85727e-16)
(0.88423 -8.06043e-16 7.49639e-16)
(0.886844 -1.70846e-15 4.80343e-16)
(0.886844 -8.24191e-16 7.50842e-16)
(0.889451 -1.69057e-15 4.75577e-16)
(0.889451 -8.27517e-16 7.35018e-16)
(0.89205 -1.66604e-15 4.70026e-16)
(0.89205 -8.33468e-16 7.21686e-16)
(0.894643 -1.6433e-15 4.62239e-16)
(0.894643 -8.41712e-16 7.13605e-16)
(0.897229 -1.62756e-15 4.55989e-16)
(0.897229 -8.44814e-16 7.04469e-16)
(0.899808 -1.61447e-15 4.48577e-16)
(0.899808 -8.46289e-16 6.94534e-16)
(0.90238 -1.60371e-15 4.41122e-16)
(0.90238 -8.39145e-16 6.849e-16)
(0.904945 -1.58574e-15 4.34144e-16)
(0.904945 -8.35252e-16 6.73711e-16)
(0.907504 -1.5678e-15 4.252e-16)
(0.907504 -8.38889e-16 6.63214e-16)
(0.910057 -1.55138e-15 4.16274e-16)
(0.910057 -8.42488e-16 6.52691e-16)
(0.912603 -1.53446e-15 4.07335e-16)
(0.912603 -8.4448e-16 6.42515e-16)
(0.915142 -1.51858e-15 4.01768e-16)
(0.915142 -8.44552e-16 6.33604e-16)
(0.917676 -1.50215e-15 3.94497e-16)
(0.917676 -8.34669e-16 6.24973e-16)
(0.920203 -1.48543e-15 3.86537e-16)
(0.920203 -8.31287e-16 6.13355e-16)
(0.922724 -1.4675e-15 3.80199e-16)
(0.922724 -8.31119e-16 5.98028e-16)
(0.925239 -1.45569e-15 3.76107e-16)
(0.925239 -8.28324e-16 5.83067e-16)
(0.927747 -1.43542e-15 3.76058e-16)
(0.927747 -8.29374e-16 5.67138e-16)
(0.93025 -1.41324e-15 3.68994e-16)
(0.93025 -8.33274e-16 5.56643e-16)
(0.932747 -1.40122e-15 3.63246e-16)
(0.932747 -8.37301e-16 5.45267e-16)
(0.935238 -1.38787e-15 3.57828e-16)
(0.935238 -8.42141e-16 5.32919e-16)
(0.937722 -1.37177e-15 3.54973e-16)
(0.937722 -8.35988e-16 5.24737e-16)
(0.940201 -1.35861e-15 3.49663e-16)
(0.940201 -8.291e-16 5.16305e-16)
(0.942675 -1.34391e-15 3.45821e-16)
(0.942675 -8.38407e-16 5.0491e-16)
(0.945142 -1.33283e-15 3.3877e-16)
(0.945142 -8.36734e-16 4.94925e-16)
(0.947604 -1.32381e-15 3.34843e-16)
(0.947604 -8.31226e-16 4.86049e-16)
(0.950059 -1.3099e-15 3.32485e-16)
(0.950059 -8.36681e-16 4.77348e-16)
(0.952509 -1.29951e-15 3.28138e-16)
(0.952509 -8.33248e-16 4.68958e-16)
(0.954954 -1.28916e-15 3.20333e-16)
(0.954954 -8.16977e-16 4.56654e-16)
(0.957392 -1.27092e-15 3.15353e-16)
(0.957392 -8.22206e-16 4.39605e-16)
(0.959825 -1.25054e-15 3.13395e-16)
(0.959825 -8.27375e-16 4.28017e-16)
(0.962252 -1.23826e-15 3.10326e-16)
(0.962252 -8.2175e-16 4.21868e-16)
(0.964673 -1.22813e-15 3.07286e-16)
(0.964673 -8.25643e-16 4.15064e-16)
(0.967088 -1.21903e-15 3.03524e-16)
(0.967088 -8.30202e-16 4.04404e-16)
(0.969498 -1.21358e-15 2.95673e-16)
(0.969498 -8.15186e-16 3.91162e-16)
(0.971902 -1.20508e-15 2.87513e-16)
(0.971902 -8.0864e-16 3.80768e-16)
(0.9743 -1.19651e-15 2.8269e-16)
(0.9743 -8.18802e-16 3.65242e-16)
(0.976692 -1.18241e-15 2.77028e-16)
(0.976692 -8.09494e-16 3.50338e-16)
(0.979078 -1.16804e-15 2.68656e-16)
(0.979078 -8.11101e-16 3.39924e-16)
(0.981459 -1.15946e-15 2.6821e-16)
(0.981459 -8.19146e-16 3.23277e-16)
(0.983833 -1.14849e-15 2.59859e-16)
(0.983833 -8.18109e-16 3.1502e-16)
(0.986201 -1.1422e-15 2.55775e-16)
(0.986201 -8.17979e-16 3.08482e-16)
(0.988564 -1.13208e-15 2.47938e-16)
(0.988564 -8.02996e-16 2.99695e-16)
(0.99092 -1.12076e-15 2.40077e-16)
(0.99092 -8.02803e-16 2.9003e-16)
(0.99327 -1.11014e-15 2.29319e-16)
(0.99327 -8.10871e-16 2.78082e-16)
(0.995613 -1.10079e-15 2.23521e-16)
(0.995613 -7.99283e-16 2.6475e-16)
(0.997951 -1.10293e-15 2.08425e-16)
(0.997951 -7.85546e-16 2.6227e-16)
(1.00028 -1.09344e-15 1.97515e-16)
(1.00028 -7.77381e-16 2.48656e-16)
(1.00261 -1.06497e-15 1.95138e-16)
(1.00261 -7.92111e-16 2.30159e-16)
(1.00492 -1.02789e-15 1.83289e-16)
(1.00492 -8.08568e-16 2.18872e-16)
(1.00723 -9.88481e-16 1.81118e-16)
(1.00723 -7.82404e-16 2.1684e-16)
(1.00954 -9.58393e-16 1.75029e-16)
(1.00954 -7.50754e-16 2.11977e-16)
(1.01184 -9.16751e-16 1.71778e-16)
(1.01184 -7.30159e-16 2.05313e-16)
(1.01413 -8.89958e-16 1.64469e-16)
(1.01413 -7.13264e-16 1.93284e-16)
(1.01641 -8.85286e-16 1.5054e-16)
(1.01641 -7.15355e-16 1.96906e-16)
(1.01869 -8.69612e-16 1.47434e-16)
(1.01869 -7.07208e-16 1.92991e-16)
(1.02095 -8.48024e-16 1.54525e-16)
(1.02095 -7.0129e-16 1.89219e-16)
(1.02321 -8.23619e-16 1.60802e-16)
(1.02321 -6.91832e-16 1.91415e-16)
(1.02547 -7.99827e-16 1.56964e-16)
(1.02547 -6.81594e-16 1.88392e-16)
(1.02771 -7.94082e-16 1.50015e-16)
(1.02771 -6.75025e-16 1.82107e-16)
(1.02995 -7.90769e-16 1.63253e-16)
(1.02995 -6.69e-16 1.68861e-16)
(1.03218 -7.57966e-16 1.56289e-16)
(1.03218 -6.59871e-16 1.69246e-16)
(1.0344 -7.47109e-16 1.34966e-16)
(1.0344 -6.47613e-16 1.68308e-16)
(1.03661 -7.40054e-16 1.55113e-16)
(1.03661 -6.33141e-16 1.70794e-16)
(1.03881 -7.20016e-16 1.52057e-16)
(1.03881 -6.39863e-16 1.74595e-16)
(1.041 -7.11041e-16 1.53686e-16)
(1.041 -6.6068e-16 1.52067e-16)
(1.04318 -6.94092e-16 1.6544e-16)
(1.04318 -6.58708e-16 1.3053e-16)
(1.04536 -6.98683e-16 1.50603e-16)
(1.04536 -6.51639e-16 1.39188e-16)
(1.04752 -6.71986e-16 1.68446e-16)
(1.04752 -6.52052e-16 1.3835e-16)
(1.04967 -6.58973e-16 1.62631e-16)
(1.04967 -6.41221e-16 1.42065e-16)
(1.05182 -6.33682e-16 1.41261e-16)
(1.05182 -6.35886e-16 1.4339e-16)
(1.05395 -6.15557e-16 1.40993e-16)
(1.05395 -6.10109e-16 1.39082e-16)
(1.05607 -5.876e-16 1.49974e-16)
(1.05607 -6.00263e-16 1.28142e-16)
(1.05818 -5.63911e-16 1.647e-16)
(1.05818 -6.21216e-16 1.21199e-16)
(1.06027 -5.6456e-16 1.46525e-16)
(1.06027 -6.106e-16 1.3409e-16)
(1.06236 -5.74941e-16 1.2001e-16)
(1.06236 -5.79206e-16 1.16931e-16)
(1.06443 -5.83093e-16 1.09829e-16)
(1.06443 -5.63807e-16 9.926e-17)
(1.06649 -5.61722e-16 9.99756e-17)
(1.06649 -5.59064e-16 1.03585e-16)
(1.06853 -5.38581e-16 9.09483e-17)
(1.06853 -5.50778e-16 1.14581e-16)
(1.07056 -5.29252e-16 1.04306e-16)
(1.07056 -5.47111e-16 1.16422e-16)
(1.07258 -5.26626e-16 7.5608e-17)
(1.07258 -5.38204e-16 1.30817e-16)
(1.07458 -5.47242e-16 7.39107e-17)
(1.07458 -5.30109e-16 1.29707e-16)
(1.07656 -5.95564e-16 4.05537e-17)
(1.07656 -5.26648e-16 1.48054e-16)
(1.07853 -5.5615e-16 2.86011e-17)
(1.07853 -5.23363e-16 1.24914e-16)
(1.08048 -5.51037e-16 3.8324e-17)
(1.08048 -5.22994e-16 1.18535e-16)
(1.08241 -5.41178e-16 5.84668e-17)
(1.08241 -5.19275e-16 1.14271e-16)
(1.08433 -5.09877e-16 6.57297e-17)
(1.08433 -5.7359e-16 8.55648e-17)
(1.08622 -4.62805e-16 7.09217e-17)
(1.08622 -5.44764e-16 1.13442e-16)
(1.0881 -4.76439e-16 7.8905e-17)
(1.0881 -5.26179e-16 1.41787e-16)
(1.08996 -5.00789e-16 5.7684e-17)
(1.08996 -5.18659e-16 1.43087e-16)
(1.09179 -5.03078e-16 8.29847e-17)
(1.09179 -4.59156e-16 9.91932e-17)
(1.0936 -4.82134e-16 1.18041e-16)
(1.0936 -4.75726e-16 7.49425e-17)
(1.09539 -5.21292e-16 7.64305e-17)
(1.09539 -4.96751e-16 1.0153e-16)
(1.09715 -4.93951e-16 1.06624e-16)
(1.09715 -4.92073e-16 9.76037e-17)
(1.09889 -5.0543e-16 9.05868e-17)
(1.09889 -4.7542e-16 1.21602e-16)
(1.1006 -4.79137e-16 8.32058e-17)
(1.1006 -4.48246e-16 1.04537e-16)
(1.10228 -4.39074e-16 1.20937e-16)
(1.10228 -4.47294e-16 1.19438e-16)
(1.10393 -3.95746e-16 1.00383e-16)
(1.10393 -4.47182e-16 1.53771e-16)
(1.10555 -4.44165e-16 7.68115e-17)
(1.10555 -4.13936e-16 1.5095e-16)
(1.10714 -4.18786e-16 1.3123e-16)
(1.10714 -4.1422e-16 1.10219e-16)
(1.1087 -3.97209e-16 1.1977e-16)
(1.1087 -3.80977e-16 1.48509e-16)
(1.11022 -3.80699e-16 1.0684e-16)
(1.11022 -3.70674e-16 1.17352e-16)
(1.1117 -3.68866e-16 1.30851e-16)
(1.1117 -3.912e-16 1.47422e-16)
(1.11314 -3.41951e-16 1.83666e-16)
(1.11314 -3.34615e-16 1.53123e-16)
(1.11454 -3.92955e-16 1.76594e-16)
(1.11454 -3.636e-16 1.70598e-16)
(1.1159 -3.79575e-16 1.61163e-16)
(1.1159 -3.96707e-16 1.85762e-16)
(1.11721 -3.5684e-16 2.13393e-16)
(1.11721 -3.7896e-16 2.01834e-16)
(1.11847 -4.23325e-16 2.03544e-16)
(1.11847 -3.50782e-16 2.34976e-16)
(1.11969 -4.38526e-16 2.15233e-16)
(1.11969 -3.7022e-16 1.55841e-16)
(1.12084 -3.95491e-16 1.68372e-16)
(1.12084 -4.09787e-16 1.75624e-16)
(1.12194 -3.91105e-16 1.79133e-16)
(1.12194 -3.90597e-16 1.89065e-16)
(1.12298 -3.71938e-16 2.16911e-16)
(1.12298 -3.52419e-16 1.68951e-16)
(1.12396 -3.57836e-16 2.24141e-16)
(1.12396 -3.65451e-16 1.49428e-16)
(1.12487 -3.60434e-16 2.41327e-16)
(1.12487 -3.9537e-16 1.83228e-16)
(1.12571 -4.3677e-16 2.31185e-16)
(1.12571 -4.25419e-16 2.27277e-16)
(1.12647 -4.01159e-16 1.80683e-16)
(1.12647 -4.02064e-16 2.31013e-16)
(1.12715 -4.3264e-16 1.92747e-16)
(1.12715 -3.7341e-16 2.30159e-16)
(1.12775 -4.33971e-16 1.91739e-16)
(1.12775 -4.27435e-16 2.545e-16)
(1.12827 -3.93729e-16 1.92329e-16)
(1.12827 -4.25509e-16 2.62382e-16)
(1.12868 -4.48201e-16 2.06475e-16)
(1.12868 -4.15727e-16 2.18539e-16)
(1.12901 -4.4251e-16 2.15624e-16)
(1.12901 -4.33913e-16 2.0621e-16)
(1.12923 -4.50163e-16 1.82974e-16)
(1.12923 -4.50048e-16 1.83973e-16)
(1.12934 -4.41449e-16 1.58732e-16)
(1.12934 -4.16033e-16 1.6379e-16)
(0.00171942 9.33595e-20 -7.24932e-19)
(0.00171942 4.28264e-20 5.84738e-18)
(0.00518274 5.08282e-20 1.19262e-17)
(0.00518274 4.84992e-20 2.24746e-17)
(0.0086959 3.91068e-19 1.28362e-17)
(0.0086959 1.82547e-19 2.31373e-17)
(0.0122596 6.46678e-19 1.17833e-17)
(0.0122596 2.97656e-19 2.38211e-17)
(0.0158746 9.10627e-19 1.0898e-17)
(0.0158746 4.17536e-19 2.4527e-17)
(0.0195415 1.1899e-18 7.45592e-18)
(0.0195415 5.36343e-19 2.52558e-17)
(0.0232613 1.46998e-18 3.723e-18)
(0.0232613 6.57786e-19 2.60084e-17)
(0.0270345 1.74586e-18 -1.44288e-19)
(0.0270345 8.0336e-19 2.6786e-17)
(0.0308619 2.03337e-18 -4.16195e-18)
(0.0308619 9.43175e-19 2.75889e-17)
(0.0347444 2.32523e-18 -8.33802e-18)
(0.0347444 1.1044e-18 2.84183e-17)
(0.0386828 2.62526e-18 -1.12303e-17)
(0.0386828 1.28546e-18 2.9275e-17)
(0.0426777 2.93283e-18 -1.15724e-17)
(0.0426777 1.45705e-18 3.01594e-17)
(0.04673 3.23449e-18 -1.19261e-17)
(0.04673 1.6375e-18 3.10729e-17)
(0.0508406 3.54569e-18 -1.22924e-17)
(0.0508406 1.80297e-18 3.20166e-17)
(0.0550103 3.84052e-18 -1.26708e-17)
(0.0550103 1.9877e-18 3.29912e-17)
(0.0592398 4.14111e-18 -1.30633e-17)
(0.0592398 2.22169e-18 3.39979e-17)
(0.06353 4.4752e-18 -1.34686e-17)
(0.06353 2.52209e-18 3.50375e-17)
(0.0678818 4.78153e-18 -1.38888e-17)
(0.0678818 2.79996e-18 3.61107e-17)
(0.072296 5.09146e-18 -1.43231e-17)
(0.072296 3.05209e-18 3.72192e-17)
(0.0767735 5.44901e-18 -1.4771e-17)
(0.0767735 3.3099e-18 3.83625e-17)
(0.0813152 5.807e-18 -1.52355e-17)
(0.0813152 3.56932e-18 3.95438e-17)
(0.0859219 6.16884e-18 -1.57156e-17)
(0.0859219 3.86448e-18 4.07631e-17)
(0.0905944 6.59573e-18 -1.62142e-17)
(0.0905944 4.15093e-18 4.20234e-17)
(0.0953336 7.03887e-18 -1.67274e-17)
(0.0953336 4.41004e-18 4.33227e-17)
(0.10014 7.4118e-18 -1.72567e-17)
(0.10014 4.68277e-18 4.46611e-17)
(0.105016 7.77153e-18 -1.78e-17)
(0.105016 4.97517e-18 4.6039e-17)
(0.10996 8.16488e-18 -1.83595e-17)
(0.10996 5.19908e-18 4.73851e-17)
(0.114975 8.60668e-18 -1.89383e-17)
(0.114975 5.46004e-18 4.87124e-17)
(0.12006 9.01915e-18 -1.95344e-17)
(0.12006 5.89964e-18 5.00739e-17)
(0.125217 9.3343e-18 -2.01491e-17)
(0.125217 6.33346e-18 5.14645e-17)
(0.130446 9.74009e-18 -2.07787e-17)
(0.130446 6.64499e-18 5.28853e-17)
(0.135748 1.02108e-17 -2.25883e-17)
(0.135748 7.01023e-18 5.43434e-17)
(0.141124 1.04856e-17 -2.46506e-17)
(0.141124 7.49726e-18 5.58346e-17)
(0.146573 1.07832e-17 -2.6786e-17)
(0.146573 7.92286e-18 5.73559e-17)
(0.152097 1.12099e-17 -2.8996e-17)
(0.152097 8.51144e-18 5.89063e-17)
(0.157696 1.163e-17 -3.12824e-17)
(0.157696 9.11934e-18 6.04885e-17)
(0.16337 1.21966e-17 -3.36452e-17)
(0.16337 9.62165e-18 6.20995e-17)
(0.169119 1.27564e-17 -3.60909e-17)
(0.169119 1.00528e-17 6.37413e-17)
(0.174943 1.32887e-17 -3.86083e-17)
(0.174943 1.04288e-17 6.54031e-17)
(0.180842 1.38709e-17 -4.12038e-17)
(0.180842 1.10062e-17 6.70929e-17)
(0.186815 1.45202e-17 -4.3876e-17)
(0.186815 1.15396e-17 6.88055e-17)
(0.192862 1.51647e-17 -4.66322e-17)
(0.192862 1.19067e-17 7.05419e-17)
(0.198981 1.57829e-17 -4.9463e-17)
(0.198981 1.22919e-17 7.2294e-17)
(0.205173 1.64046e-17 -5.23628e-17)
(0.205173 1.28334e-17 7.40566e-17)
(0.211435 1.69285e-17 -5.53379e-17)
(0.211435 1.33958e-17 7.58308e-17)
(0.217765 1.73939e-17 -5.83863e-17)
(0.217765 1.43437e-17 7.76108e-17)
(0.224162 1.77529e-17 -6.15055e-17)
(0.224162 1.5359e-17 7.93932e-17)
(0.230624 1.81408e-17 -6.4692e-17)
(0.230624 1.62423e-17 8.11727e-17)
(0.237148 1.86032e-17 -6.7936e-17)
(0.237148 1.72541e-17 8.29288e-17)
(0.24373 1.88726e-17 -7.12382e-17)
(0.24373 1.84722e-17 8.46751e-17)
(0.250368 1.91172e-17 -7.45846e-17)
(0.250368 1.96212e-17 8.63971e-17)
(0.257058 1.96271e-17 -7.79757e-17)
(0.257058 2.04343e-17 8.8085e-17)
(0.263795 2.04406e-17 -8.14086e-17)
(0.263795 2.08262e-17 8.97453e-17)
(0.270576 2.127e-17 -8.48648e-17)
(0.270576 2.13885e-17 9.13547e-17)
(0.277396 2.20212e-17 -8.83371e-17)
(0.277396 2.26628e-17 9.29151e-17)
(0.28425 2.29831e-17 -9.18219e-17)
(0.28425 2.35427e-17 9.44249e-17)
(0.291132 2.38127e-17 -9.53012e-17)
(0.291132 2.41566e-17 9.58672e-17)
(0.298038 2.45151e-17 -9.87701e-17)
(0.298038 2.51056e-17 9.7247e-17)
(0.304961 2.53567e-17 -1.02234e-16)
(0.304961 2.58337e-17 9.85558e-17)
(0.311897 2.62143e-17 -1.05673e-16)
(0.311897 2.65288e-17 9.97797e-17)
(0.318839 2.72634e-17 -1.09085e-16)
(0.318839 2.75357e-17 1.0093e-16)
(0.325782 2.8338e-17 -1.12464e-16)
(0.325782 2.8689e-17 1.01992e-16)
(0.332719 2.91556e-17 -1.1583e-16)
(0.332719 2.94875e-17 1.02987e-16)
(0.339646 2.94586e-17 -1.19143e-16)
(0.339646 3.07189e-17 1.03866e-16)
(0.346556 2.91698e-17 -1.22427e-16)
(0.346556 3.25189e-17 1.04668e-16)
(0.353445 2.88935e-17 -1.25651e-16)
(0.353445 3.42595e-17 1.05372e-16)
(0.360306 2.88162e-17 -1.28827e-16)
(0.360306 3.63396e-17 1.0597e-16)
(0.367136 2.88554e-17 -1.31969e-16)
(0.367136 3.79651e-17 1.06496e-16)
(0.373928 2.9137e-17 -1.35046e-16)
(0.373928 3.93022e-17 1.069e-16)
(0.38068 2.95877e-17 -1.38039e-16)
(0.38068 4.07737e-17 1.07203e-16)
(0.387387 3.02979e-17 -1.40989e-16)
(0.387387 4.18548e-17 1.07442e-16)
(0.394045 3.12757e-17 -1.43894e-16)
(0.394045 4.2713e-17 1.07602e-16)
(0.400651 3.19641e-17 -1.46733e-16)
(0.400651 4.3674e-17 1.0766e-16)
(0.407202 3.2704e-17 -1.49535e-16)
(0.407202 4.48e-17 1.07658e-16)
(0.413694 3.35985e-17 -1.52319e-16)
(0.413694 4.56964e-17 1.07575e-16)
(0.420127 3.44476e-17 -1.55038e-16)
(0.420127 4.62651e-17 1.07396e-16)
(0.426497 3.53061e-17 -1.57719e-16)
(0.426497 4.76983e-17 1.07162e-16)
(0.432803 3.60504e-17 -1.60366e-16)
(0.432803 4.89073e-17 1.06859e-16)
(0.439044 3.65051e-17 -1.62976e-16)
(0.439044 5.01231e-17 1.06477e-16)
(0.445218 3.71824e-17 -1.65597e-16)
(0.445218 5.19715e-17 1.0605e-16)
(0.451324 3.78005e-17 -1.68202e-16)
(0.451324 5.31879e-17 1.05563e-16)
(0.457362 3.82342e-17 -1.70804e-16)
(0.457362 5.3822e-17 1.05014e-16)
(0.463332 3.90843e-17 -1.73392e-16)
(0.463332 5.4784e-17 1.04386e-16)
(0.469233 4.00022e-17 -1.76007e-16)
(0.469233 5.64416e-17 1.03732e-16)
(0.475065 4.08953e-17 -1.78618e-16)
(0.475065 5.75487e-17 1.03011e-16)
(0.480828 4.1408e-17 -1.81239e-16)
(0.480828 5.93931e-17 1.02227e-16)
(0.486522 4.1583e-17 -1.83869e-16)
(0.486522 6.08784e-17 1.01408e-16)
(0.492149 4.18008e-17 -1.86473e-16)
(0.492149 6.23939e-17 1.00497e-16)
(0.497708 4.22939e-17 -1.89103e-16)
(0.497708 6.48672e-17 9.95915e-17)
(0.5032 4.19203e-17 -1.91756e-16)
(0.5032 6.62941e-17 9.86487e-17)
(0.508626 4.12259e-17 -1.94319e-16)
(0.508626 6.80034e-17 9.7595e-17)
(0.513986 4.16518e-17 -1.96957e-16)