/*--------------------------------*- C++ -*----------------------------------*\
| =========                 |                                                 |
| \\      /  F ield         | OpenFOAM: The Open Source CFD Toolbox           |
|  \\    /   O peration     | Version:  2012                                  |
|   \\  /    A nd           | Website:  www.openfoam.com                      |
|    \\/     M anipulation  |                                                 |
\*---------------------------------------------------------------------------*/
FoamFile
{
    version     2.0;
    format      ascii;
    class       volScalarField;
    location    "11000";
    object      p;
}
// * * * * * * * * * * * * * * * * * * * * * * * * * * * * * * * * * * * * * //

dimensions      [0 2 -2 0 0 0 0];


internalField   nonuniform List<scalar> 
320
(
5.94793e-16
6.34951e-15
1.30703e-15
6.34318e-15
1.4321e-15
6.32959e-15
1.41591e-15
6.30804e-15
1.44522e-15
6.27607e-15
1.50797e-15
6.22981e-15
1.58976e-15
6.16631e-15
1.68919e-15
6.08492e-15
1.80746e-15
5.98591e-15
1.94425e-15
5.86962e-15
2.09959e-15
5.73733e-15
2.26929e-15
5.5933e-15
2.45089e-15
5.44131e-15
2.64617e-15
5.27915e-15
2.84609e-15
5.11749e-15
3.04453e-15
4.96089e-15
3.24564e-15
4.81266e-15
3.45024e-15
4.67153e-15
3.63067e-15
4.55168e-15
3.78849e-15
4.46869e-15
3.93575e-15
4.41184e-15
4.0751e-15
4.37e-15
4.17264e-15
4.3777e-15
4.24968e-15
4.3875e-15
4.37614e-15
4.42233e-15
4.47809e-15
4.50347e-15
4.53634e-15
4.55682e-15
4.61683e-15
4.61699e-15
4.69847e-15
4.68207e-15
4.76791e-15
4.79228e-15
4.85165e-15
4.89093e-15
4.90462e-15
4.96563e-15
5.04704e-15
5.10065e-15
5.21676e-15
5.22365e-15
5.42043e-15
5.43981e-15
5.35614e-15
5.40792e-15
5.35592e-15
5.36726e-15
5.6079e-15
5.6363e-15
5.93052e-15
5.88203e-15
6.12194e-15
6.11756e-15
4.63542e-15
5.25754e-15
4.6357e-15
5.25786e-15
4.63599e-15
5.25837e-15
4.63659e-15
5.25909e-15
4.63776e-15
5.26008e-15
4.63951e-15
5.26139e-15
4.64251e-15
5.26291e-15
4.64655e-15
5.26469e-15
4.65158e-15
5.26626e-15
4.66057e-15
5.2673e-15
4.67219e-15
5.26912e-15
4.68502e-15
5.26945e-15
4.70187e-15
5.267e-15
4.72598e-15
5.26294e-15
4.75322e-15
5.26081e-15
4.7824e-15
5.25676e-15
4.81542e-15
5.25476e-15
4.85279e-15
5.23854e-15
4.89183e-15
5.21929e-15
4.93478e-15
5.21174e-15
4.96088e-15
5.20112e-15
4.98991e-15
5.17985e-15
5.01537e-15
5.17623e-15
5.02898e-15
5.16395e-15
5.03511e-15
5.1502e-15
5.06109e-15
5.09516e-15
5.05206e-15
5.05937e-15
5.05093e-15
5.03248e-15
5.02639e-15
5.03586e-15
5.02635e-15
4.99666e-15
5.02585e-15
5.02603e-15
5.01592e-15
5.02507e-15
5.08029e-15
5.08716e-15
5.32658e-15
5.31103e-15
5.44152e-15
5.29039e-15
5.32322e-15
5.30345e-15
5.42322e-15
5.45626e-15
5.53801e-15
5.54562e-15
5.92443e-15
5.93587e-15
6.22943e-15
6.09117e-15
6.45093e-15
6.45362e-15
6.58036e-15
6.66882e-15
6.65215e-15
6.71603e-15
6.3543e-15
6.34607e-15
6.31132e-15
6.30086e-15
6.24929e-15
6.40607e-15
6.0366e-15
6.21506e-15
6.07697e-15
6.05965e-15
6.10429e-15
6.0865e-15
6.03791e-15
6.06963e-15
6.03783e-15
6.07099e-15
6.03043e-15
6.05685e-15
6.04703e-15
6.06573e-15
6.04997e-15
6.05185e-15
6.0807e-15
6.0712e-15
6.10748e-15
6.11332e-15
6.11549e-15
6.09741e-15
6.11524e-15
6.10372e-15
6.11768e-15
6.11886e-15
6.12021e-15
6.1229e-15
6.12202e-15
6.13687e-15
6.1266e-15
6.13752e-15
6.12569e-15
6.13887e-15
6.12385e-15
6.14467e-15
6.13105e-15
6.15101e-15
6.13369e-15
6.15146e-15
6.13693e-15
6.14832e-15
6.14079e-15
6.14833e-15
6.13964e-15
6.14851e-15
6.13949e-15
6.1498e-15
6.13967e-15
6.15065e-15
6.13973e-15
6.15039e-15
6.13971e-15
6.15025e-15
6.13949e-15
6.15049e-15
6.13924e-15
6.15065e-15
6.13927e-15
6.15065e-15
6.13934e-15
6.15056e-15
6.13935e-15
6.15049e-15
6.13933e-15
6.15049e-15
6.13932e-15
6.15044e-15
6.60793e-15
6.60499e-15
6.55767e-15
6.59995e-15
6.64553e-15
6.65511e-15
6.6476e-15
6.57994e-15
6.34504e-15
6.30668e-15
6.28031e-15
6.32194e-15
6.14641e-15
6.16097e-15
6.12089e-15
6.14302e-15
6.09798e-15
6.10738e-15
6.05955e-15
6.10436e-15
6.09405e-15
6.06511e-15
6.03256e-15
6.04928e-15
6.05207e-15
6.04435e-15
6.07534e-15
6.06798e-15
6.10524e-15
6.08956e-15
6.11086e-15
6.10675e-15
6.10342e-15
6.10611e-15
6.10759e-15
6.10708e-15
6.11081e-15
6.10817e-15
6.12432e-15
6.11873e-15
6.12773e-15
6.1373e-15
6.13474e-15
6.13728e-15
6.13717e-15
6.13335e-15
6.14363e-15
6.13686e-15
6.14004e-15
6.13961e-15
6.14002e-15
6.13882e-15
6.14291e-15
6.1393e-15
6.14188e-15
6.14206e-15
6.14098e-15
6.14225e-15
6.14115e-15
6.14141e-15
6.14217e-15
6.14149e-15
6.14232e-15
6.14227e-15
6.14247e-15
6.14227e-15
6.1426e-15
6.14211e-15
6.14273e-15
6.1422e-15
6.143e-15
6.14222e-15
6.14302e-15
6.14222e-15
6.14296e-15
6.14225e-15
6.14299e-15
6.14227e-15
6.14297e-15
6.1423e-15
)
;

boundaryField
{
    walls
    {
        type            zeroGradient;
    }
    inlet
    {
        type            cyclic;
    }
    outlet
    {
        type            cyclic;
    }
    sides
    {
        type            empty;
    }
}


// ************************************************************************* //
