/*--------------------------------*- C++ -*----------------------------------*\
| =========                 |                                                 |
| \\      /  F ield         | OpenFOAM: The Open Source CFD Toolbox           |
|  \\    /   O peration     | Version:  2012                                  |
|   \\  /    A nd           | Website:  www.openfoam.com                      |
|    \\/     M anipulation  |                                                 |
\*---------------------------------------------------------------------------*/
FoamFile
{
    version     2.0;
    format      ascii;
    class       surfaceScalarField;
    location    "11000";
    object      phi;
}
// * * * * * * * * * * * * * * * * * * * * * * * * * * * * * * * * * * * * * //

dimensions      [0 3 -1 0 0 0 0];
oriented        oriented;


internalField   nonuniform List<scalar> 
636
(
1.12832e-06
-1.41003e-17
-1.47925e-20
-4.52331e-20
3.77816e-21
3.96529e-06
-1.39863e-17
-2.99028e-20
-1.34545e-19
6.11437e-21
7.87111e-06
-1.38371e-17
-3.96875e-20
-2.52142e-19
8.58032e-21
1.31625e-05
-1.36327e-17
-5.40161e-20
-4.13387e-19
1.18721e-20
2.0212e-05
-1.33614e-17
-7.09863e-20
-6.30266e-19
1.593e-20
2.93632e-05
-1.30219e-17
-8.84457e-20
-9.05495e-19
2.0146e-20
4.07452e-05
-1.26191e-17
-1.02896e-19
-1.22589e-18
2.3416e-20
5.41909e-05
-1.21767e-17
-1.1212e-19
-1.58032e-18
2.49361e-20
6.94842e-05
-1.17193e-17
-1.17222e-19
-1.95067e-18
2.47793e-20
8.66172e-05
-1.12624e-17
-1.20707e-19
-2.30839e-18
2.33673e-20
0.000105792
-1.07702e-17
-1.23885e-19
-2.68354e-18
2.0604e-20
0.000127332
-1.02881e-17
-1.2759e-19
-3.06846e-18
1.65627e-20
0.000151631
-9.819e-18
-1.31967e-19
-3.41546e-18
1.10455e-20
0.00017913
-9.30682e-18
-1.37008e-19
-3.78327e-18
2.97511e-21
0.000210324
-8.83246e-18
-1.42487e-19
-4.10057e-18
-8.18867e-21
0.000245761
-8.35364e-18
-1.4828e-19
-4.43024e-18
-2.28978e-20
0.000286053
-7.91992e-18
-1.53884e-19
-4.66158e-18
-4.20566e-20
0.000331883
-7.4037e-18
-1.58848e-19
-4.89998e-18
-6.53097e-20
0.00038402
-6.90528e-18
-1.66039e-19
-5.1236e-18
-9.07878e-20
0.000443324
-6.54328e-18
-1.76684e-19
-5.22021e-18
-1.17778e-19
0.000510764
-6.21112e-18
-1.84747e-19
-5.23238e-18
-1.42213e-19
0.000587432
-5.73162e-18
-1.87783e-19
-5.28585e-18
-1.70666e-19
0.000674556
-5.44477e-18
-2.00901e-19
-5.18817e-18
-1.97616e-19
0.000773521
-5.32499e-18
-2.13329e-19
-5.06123e-18
-2.19832e-19
0.00088589
-5.002e-18
-2.0279e-19
-4.90144e-18
-2.3779e-19
0.00101343
-4.6087e-18
-2.0553e-19
-4.58525e-18
-2.16087e-19
0.00115812
-4.36677e-18
-2.00785e-19
-4.39804e-18
-2.04148e-19
0.00132223
-4.28045e-18
-2.11414e-19
-4.15322e-18
-1.85484e-19
0.00150826
-4.02398e-18
-1.70975e-19
-4.1821e-18
-2.031e-19
0.00171909
-3.97285e-18
-1.82605e-19
-4.07232e-18
-6.10513e-20
0.00195792
-3.4631e-18
-1.43548e-19
-3.54046e-18
7.73679e-20
0.00222834
-3.6647e-18
-2.01662e-19
-3.66163e-18
-7.95962e-20
0.00253439
-3.65653e-18
-7.67036e-20
-3.49885e-18
5.42161e-20
0.00288052
-3.40246e-18
-2.54296e-20
-3.41091e-18
1.91928e-20
0.00327167
-2.76083e-18
-2.97827e-20
-2.77602e-18
2.82407e-19
0.00371319
-2.44751e-18
-1.66317e-20
-2.4101e-18
3.90023e-20
0.00421076
-2.48019e-18
-3.37753e-19
-2.44005e-18
-3.74956e-19
0.00477007
-2.49518e-18
6.94576e-21
-2.50669e-18
-5.19798e-20
0.00539614
-2.2759e-18
1.70108e-20
-2.30652e-18
-9.6769e-20
0.0060917
3.75643e-20
-1.95154e-18
3.20464e-19
-1.95747e-18
1.12832e-06
-1.03143e-20
-6.73411e-22
3.96529e-06
-2.91156e-20
-4.85933e-21
7.87111e-06
-5.52494e-20
-8.20126e-21
1.31625e-05
-9.26111e-20
-1.53233e-20
2.0212e-05
-1.38045e-19
-2.55486e-20
2.93632e-05
-2.05318e-19
-2.95746e-20
4.07452e-05
-2.66603e-19
-4.65939e-20
5.41909e-05
-3.17874e-19
-7.5007e-20
6.94842e-05
-4.12698e-19
-8.89177e-20
8.66172e-05
-4.59196e-19
-1.27122e-19
0.000105792
-5.3632e-19
-1.38437e-19
0.000127332
-6.31383e-19
-1.5939e-19
0.000151631
-7.51942e-19
-2.10957e-19
0.00017913
-8.06215e-19
-2.97152e-19
0.000210324
-8.79204e-19
-3.71421e-19
0.000245761
-9.44657e-19
-5.05539e-19
0.000286053
-1.05298e-18
-5.57843e-19
0.000331883
-1.14598e-18
-6.4018e-19
0.00038402
-1.24003e-18
-8.0279e-19
0.000443324
-1.3067e-18
-8.87672e-19
0.000510764
-1.37946e-18
-1.13618e-18
0.000587432
-1.49403e-18
-1.36612e-18
0.000674556
-1.64303e-18
-1.50829e-18
0.000773521
-1.82566e-18
-1.78358e-18
0.00088589
-2.07537e-18
-1.84974e-18
0.00101343
-2.15869e-18
-2.1222e-18
0.00115812
-2.47559e-18
-2.4014e-18
0.00132223
-2.61193e-18
-2.64769e-18
0.00150826
-2.90147e-18
-2.70285e-18
0.00171909
-3.07722e-18
-3.0107e-18
0.00195792
-2.98261e-18
-3.24023e-18
0.00222834
-3.30205e-18
-3.34344e-18
0.00253439
-3.48504e-18
-3.42043e-18
0.00288052
-3.10896e-18
-2.93969e-18
0.00327167
-2.57337e-18
-2.74315e-18
0.00371319
-2.60497e-18
-2.59501e-18
0.00421076
-2.40648e-18
-2.37635e-18
0.00477007
-2.58935e-18
-2.6162e-18
0.00539614
-2.37695e-18
-2.32248e-18
0.0060917
-1.77588e-18
-1.81478e-18
0.0060917
-1.6901e-18
-2.31367e-19
-1.63941e-18
-1.41685e-19
0.00539614
-8.1603e-19
1.56524e-19
-8.87745e-19
-2.16119e-19
0.00477007
-5.02027e-19
-9.80157e-20
-4.55805e-19
1.48238e-19
0.00421076
-2.13706e-19
-4.85699e-19
-1.41511e-19
-4.92929e-19
0.00371319
-1.13488e-19
-2.95522e-20
-2.15722e-19
-1.2269e-19
0.00327167
2.40005e-19
-4.98047e-22
2.28863e-19
2.13575e-19
0.00288052
-1.57203e-19
-2.00149e-19
-6.14944e-20
9.05031e-20
0.00253439
-2.01919e-19
-5.2029e-20
-2.39238e-19
-6.15617e-20
0.00222834
-4.9024e-20
-1.56496e-20
-9.2644e-20
3.44667e-20
0.00195792
-1.19415e-19
3.71803e-20
-3.99701e-20
1.49477e-20
0.00171909
-1.04915e-19
-2.01238e-20
-1.90573e-19
5.92868e-20
0.00150826
-2.06711e-19
2.52162e-20
-1.89287e-19
2.64235e-20
0.00132223
-1.58458e-19
3.07794e-21
-2.01196e-19
2.01581e-20
0.00115812
-2.60261e-19
-1.93365e-20
-1.34723e-19
1.45319e-21
0.00101343
-8.92453e-20
-7.62448e-21
-1.10574e-19
9.85683e-21
0.00088589
-7.30022e-20
2.97138e-21
4.45922e-20
1.0435e-20
0.000773521
1.0457e-20
9.08796e-21
-9.46333e-20
-6.20001e-21
0.000674556
5.38581e-21
4.18455e-21
-5.67718e-20
-7.78617e-22
0.000587432
-7.94832e-20
2.08441e-21
-2.41981e-20
4.54846e-21
0.000510764
7.47162e-21
3.12791e-21
-3.86829e-20
5.01195e-21
0.000443324
7.48109e-21
1.82397e-21
1.55419e-20
2.25774e-21
0.00038402
1.78317e-20
9.84966e-22
-2.51158e-20
1.11799e-21
0.000331883
-3.04456e-20
4.34841e-22
-5.23177e-20
3.08699e-21
0.000286053
-5.02741e-20
4.47432e-22
-6.46325e-20
3.35571e-21
0.000245761
-4.16213e-20
1.44748e-21
-1.71415e-20
4.37768e-21
0.000210324
-3.33277e-20
1.58379e-21
-1.1e-21
4.39845e-21
0.00017913
-4.13339e-20
1.30329e-21
-6.2523e-21
3.89003e-21
0.000151631
9.53333e-21
1.18337e-21
3.38299e-21
3.23442e-21
0.000127332
3.18196e-21
8.32873e-22
-1.57294e-20
2.91655e-21
0.000105792
8.75946e-22
5.5983e-22
-9.06862e-21
2.69474e-21
8.66172e-05
-5.7878e-21
3.68752e-22
-2.28442e-21
2.45025e-21
6.94842e-05
-3.9041e-22
3.11188e-22
-3.67042e-21
2.13038e-21
5.41909e-05
1.69558e-21
2.52965e-22
-7.42469e-21
1.88879e-21
4.07452e-05
3.81855e-21
1.98673e-22
-4.57125e-21
1.63852e-21
2.93632e-05
-1.43143e-21
1.42035e-22
1.35115e-21
1.33032e-21
2.0212e-05
-2.62827e-21
1.00511e-22
2.68901e-21
1.01015e-21
1.31626e-05
-1.97488e-21
7.29107e-23
1.50605e-21
7.31699e-22
7.87112e-06
-6.84463e-22
5.29012e-23
3.4766e-23
5.19444e-22
3.96529e-06
-5.71953e-23
3.75944e-23
2.21573e-22
3.67117e-22
1.12832e-06
-9.15547e-24
4.7326e-23
0.0060917
-1.04874e-18
-1.14063e-18
0.00539614
-7.11974e-19
-6.29577e-19
0.00477007
-7.91664e-19
-8.07113e-19
0.00421076
-1.59803e-21
3.79918e-20
0.00371319
2.54106e-21
8.64958e-20
0.00327167
1.40605e-19
2.45844e-19
0.00288052
2.92437e-20
-6.13441e-20
0.00253439
-9.51563e-20
-1.88e-20
0.00222834
2.27246e-20
-1.83377e-19
0.00195792
-2.30542e-19
-8.82199e-21
0.00171909
1.09164e-19
-1.25869e-19
0.00150826
-1.68667e-19
-1.00498e-19
0.00132223
-2.15304e-19
-2.33094e-19
0.00115812
-2.19633e-19
-1.03394e-19
0.00101343
-5.95553e-20
-1.63694e-19
0.00088589
-6.64521e-20
-1.24081e-19
0.000773521
-1.02901e-19
-1.30538e-19
0.000674556
-9.05879e-20
-1.03222e-19
0.000587432
-1.23679e-19
-7.91319e-20
0.000510764
-9.34469e-20
-1.47361e-19
0.000443324
-9.64456e-20
-9.20626e-20
0.00038402
-6.71784e-20
-3.22761e-20
0.000331883
-7.159e-20
-7.6289e-20
0.000286053
-1.95367e-20
-3.56087e-20
0.000245761
-2.48475e-20
-2.93241e-20
0.000210324
-2.70468e-20
-2.90217e-20
0.00017913
-1.60199e-20
-4.15033e-20
0.000151631
6.97589e-21
-1.53561e-21
0.000127332
-3.26254e-21
-1.40442e-20
0.000105792
-9.12123e-21
-1.08182e-20
8.66172e-05
-9.14246e-22
-2.11398e-20
6.94842e-05
-6.99415e-21
-6.44175e-21
5.41909e-05
-8.7842e-21
-4.25107e-21
4.07452e-05
-8.82996e-21
-2.91929e-21
2.93632e-05
-8.16384e-21
4.57623e-22
2.0212e-05
-4.28633e-21
-1.67311e-21
1.31626e-05
-1.40185e-21
-1.7195e-21
7.87112e-06
-5.01288e-22
-4.25067e-22
3.96529e-06
5.26207e-23
1.4956e-23
1.12832e-06
)
;

boundaryField
{
    walls
    {
        type            calculated;
        value           uniform 0;
    }
    inlet
    {
        type            cyclic;
        value           nonuniform List<scalar> 
160
(
-1.12832e-06
-3.96529e-06
-7.87111e-06
-1.31625e-05
-2.0212e-05
-2.93632e-05
-4.07452e-05
-5.41909e-05
-6.94842e-05
-8.66172e-05
-0.000105792
-0.000127332
-0.000151631
-0.00017913
-0.000210324
-0.000245761
-0.000286053
-0.000331883
-0.00038402
-0.000443324
-0.000510764
-0.000587432
-0.000674556
-0.000773521
-0.00088589
-0.00101343
-0.00115812
-0.00132223
-0.00150826
-0.00171909
-0.00195792
-0.00222834
-0.00253439
-0.00288052
-0.00327167
-0.00371319
-0.00421076
-0.00477007
-0.00539614
-0.0060917
-1.12832e-06
-3.96529e-06
-7.87111e-06
-1.31625e-05
-2.0212e-05
-2.93632e-05
-4.07452e-05
-5.41909e-05
-6.94842e-05
-8.66172e-05
-0.000105792
-0.000127332
-0.000151631
-0.00017913
-0.000210324
-0.000245761
-0.000286053
-0.000331883
-0.00038402
-0.000443324
-0.000510764
-0.000587432
-0.000674556
-0.000773521
-0.00088589
-0.00101343
-0.00115812
-0.00132223
-0.00150826
-0.00171909
-0.00195792
-0.00222834
-0.00253439
-0.00288052
-0.00327167
-0.00371319
-0.00421076
-0.00477007
-0.00539614
-0.0060917
-0.0060917
-0.00539614
-0.00477007
-0.00421076
-0.00371319
-0.00327167
-0.00288052
-0.00253439
-0.00222834
-0.00195792
-0.00171909
-0.00150826
-0.00132223
-0.00115812
-0.00101343
-0.00088589
-0.000773521
-0.000674556
-0.000587432
-0.000510764
-0.000443324
-0.00038402
-0.000331883
-0.000286053
-0.000245761
-0.000210324
-0.00017913
-0.000151631
-0.000127332
-0.000105792
-8.66172e-05
-6.94842e-05
-5.41909e-05
-4.07452e-05
-2.93632e-05
-2.0212e-05
-1.31626e-05
-7.87112e-06
-3.96529e-06
-1.12832e-06
-0.0060917
-0.00539614
-0.00477007
-0.00421076
-0.00371319
-0.00327167
-0.00288052
-0.00253439
-0.00222834
-0.00195792
-0.00171909
-0.00150826
-0.00132223
-0.00115812
-0.00101343
-0.00088589
-0.000773521
-0.000674556
-0.000587432
-0.000510764
-0.000443324
-0.00038402
-0.000331883
-0.000286053
-0.000245761
-0.000210324
-0.00017913
-0.000151631
-0.000127332
-0.000105792
-8.66172e-05
-6.94842e-05
-5.41909e-05
-4.07452e-05
-2.93632e-05
-2.0212e-05
-1.31626e-05
-7.87112e-06
-3.96529e-06
-1.12832e-06
)
;
    }
    outlet
    {
        type            cyclic;
        value           nonuniform List<scalar> 
160
(
1.12832e-06
3.96529e-06
7.87111e-06
1.31625e-05
2.0212e-05
2.93632e-05
4.07452e-05
5.41909e-05
6.94842e-05
8.66172e-05
0.000105792
0.000127332
0.000151631
0.00017913
0.000210324
0.000245761
0.000286053
0.000331883
0.00038402
0.000443324
0.000510764
0.000587432
0.000674556
0.000773521
0.00088589
0.00101343
0.00115812
0.00132223
0.00150826
0.00171909
0.00195792
0.00222834
0.00253439
0.00288052
0.00327167
0.00371319
0.00421076
0.00477007
0.00539614
0.0060917
1.12832e-06
3.96529e-06
7.87111e-06
1.31625e-05
2.0212e-05
2.93632e-05
4.07452e-05
5.41909e-05
6.94842e-05
8.66172e-05
0.000105792
0.000127332
0.000151631
0.00017913
0.000210324
0.000245761
0.000286053
0.000331883
0.00038402
0.000443324
0.000510764
0.000587432
0.000674556
0.000773521
0.00088589
0.00101343
0.00115812
0.00132223
0.00150826
0.00171909
0.00195792
0.00222834
0.00253439
0.00288052
0.00327167
0.00371319
0.00421076
0.00477007
0.00539614
0.0060917
0.0060917
0.00539614
0.00477007
0.00421076
0.00371319
0.00327167
0.00288052
0.00253439
0.00222834
0.00195792
0.00171909
0.00150826
0.00132223
0.00115812
0.00101343
0.00088589
0.000773521
0.000674556
0.000587432
0.000510764
0.000443324
0.00038402
0.000331883
0.000286053
0.000245761
0.000210324
0.00017913
0.000151631
0.000127332
0.000105792
8.66172e-05
6.94842e-05
5.41909e-05
4.07452e-05
2.93632e-05
2.0212e-05
1.31626e-05
7.87112e-06
3.96529e-06
1.12832e-06
0.0060917
0.00539614
0.00477007
0.00421076
0.00371319
0.00327167
0.00288052
0.00253439
0.00222834
0.00195792
0.00171909
0.00150826
0.00132223
0.00115812
0.00101343
0.00088589
0.000773521
0.000674556
0.000587432
0.000510764
0.000443324
0.00038402
0.000331883
0.000286053
0.000245761
0.000210324
0.00017913
0.000151631
0.000127332
0.000105792
8.66172e-05
6.94842e-05
5.41909e-05
4.07452e-05
2.93632e-05
2.0212e-05
1.31626e-05
7.87112e-06
3.96529e-06
1.12832e-06
)
;
    }
    sides
    {
        type            empty;
        value           nonuniform List<scalar> 0();
    }
}


// ************************************************************************* //
