/*--------------------------------*- C++ -*----------------------------------*\
| =========                 |                                                 |
| \\      /  F ield         | OpenFOAM: The Open Source CFD Toolbox           |
|  \\    /   O peration     | Version:  2012                                  |
|   \\  /    A nd           | Website:  www.openfoam.com                      |
|    \\/     M anipulation  |                                                 |
\*---------------------------------------------------------------------------*/
FoamFile
{
    version     2.0;
    format      ascii;
    class       volVectorField;
    location    "11000";
    object      U;
}
// * * * * * * * * * * * * * * * * * * * * * * * * * * * * * * * * * * * * * //

dimensions      [0 1 -1 0 0 0 0];


internalField   nonuniform List<vector> 
320
(
(0.0200813 -1.6919e-15 -1.70252e-16)
(0.0200813 2.6486e-18 1.16478e-32)
(0.0627125 -6.35422e-15 -4.16431e-16)
(0.0627125 -4.51832e-17 1.5817e-18)
(0.11062 -6.071e-15 -5.37366e-16)
(0.11062 -7.3541e-17 8.34101e-19)
(0.164382 -5.2516e-15 -6.72579e-16)
(0.164382 -1.24826e-16 9.15115e-19)
(0.224307 -5.38867e-15 -8.27167e-16)
(0.224307 -2.00196e-16 -1.72047e-19)
(0.289571 -5.2788e-15 -9.75689e-16)
(0.289571 -3.06282e-16 -3.83707e-18)
(0.357064 -5.13405e-15 -1.08086e-15)
(0.357064 -4.3164e-16 -9.74672e-18)
(0.422001 -4.9595e-15 -1.12917e-15)
(0.422001 -5.68564e-16 -1.59232e-17)
(0.480829 -4.77448e-15 -1.1419e-15)
(0.480829 -7.14042e-16 -2.08254e-17)
(0.532631 -4.59016e-15 -1.14806e-15)
(0.532631 -8.60215e-16 -2.43723e-17)
(0.578087 -4.3999e-15 -1.16358e-15)
(0.578087 -1.00422e-15 -2.73542e-17)
(0.618297 -4.20631e-15 -1.19431e-15)
(0.618297 -1.15556e-15 -2.80724e-17)
(0.65428 -4.01621e-15 -1.24196e-15)
(0.65428 -1.30208e-15 -2.7047e-17)
(0.686852 -3.81832e-15 -1.30711e-15)
(0.686852 -1.44888e-15 -2.73606e-17)
(0.716642 -3.62144e-15 -1.38684e-15)
(0.716642 -1.58121e-15 -2.22856e-17)
(0.744122 -3.43614e-15 -1.40937e-15)
(0.744122 -1.71124e-15 -1.38661e-16)
(0.769652 -3.24856e-15 -8.28081e-16)
(0.769652 -1.82506e-15 -2.26314e-16)
(0.793509 -3.05969e-15 -7.59589e-16)
(0.793509 -1.92275e-15 -3.12301e-16)
(0.815902 -2.85592e-15 -7.05542e-16)
(0.815902 -2.01149e-15 -3.85782e-16)
(0.836996 -2.68174e-15 -6.6716e-16)
(0.836996 -2.06592e-15 -4.44731e-16)
(0.856921 -2.5517e-15 -6.1991e-16)
(0.856921 -2.10024e-15 -4.77189e-16)
(0.875781 -2.3807e-15 -5.59917e-16)
(0.875781 -2.09963e-15 -5.08879e-16)
(0.893663 -2.23023e-15 -5.32313e-16)
(0.893663 -2.09887e-15 -5.23611e-16)
(0.910638 -2.13248e-15 -5.02288e-16)
(0.910638 -2.06084e-15 -5.176e-16)
(0.92677 -2.06502e-15 -4.24295e-16)
(0.92677 -1.99005e-15 -4.97526e-16)
(0.942112 -1.9259e-15 -3.82134e-16)
(0.942112 -1.89639e-15 -4.01762e-16)
(0.956716 -1.77944e-15 -3.31734e-16)
(0.956716 -1.78353e-15 -3.3729e-16)
(0.970624 -1.72241e-15 -3.10391e-16)
(0.970624 -1.7081e-15 -2.72321e-16)
(0.983877 -1.65531e-15 -2.23062e-16)
(0.983877 -1.66007e-15 -2.64974e-16)
(0.996508 -1.58259e-15 -2.11702e-16)
(0.996508 -1.63326e-15 -7.07794e-17)
(1.00854 -1.49175e-15 -1.47886e-16)
(1.00854 -1.53509e-15 7.97059e-17)
(1.02 -1.42284e-15 -2.58357e-16)
(1.02 -1.43136e-15 -2.51948e-16)
(1.03088 -1.42444e-15 -2.09504e-16)
(1.03088 -1.38758e-15 -5.77317e-17)
(1.04118 -1.39468e-15 -2.31327e-16)
(1.04118 -1.3563e-15 -2.51358e-16)
(1.05085 -1.1786e-15 -1.91322e-17)
(1.05085 -1.12207e-15 9.44552e-18)
(1.05983 -9.72193e-16 2.67348e-16)
(1.05983 -9.75651e-16 2.72245e-16)
(1.06799 -9.00326e-16 -1.57181e-16)
(1.06799 -8.96377e-16 -1.22127e-16)
(1.0751 -1.06137e-15 -3.86029e-16)
(1.0751 -1.06022e-15 -3.78616e-16)
(1.08075 -8.90432e-16 -3.4617e-16)
(1.08075 -8.95828e-16 -3.80319e-16)
(1.08418 -9.61294e-16 1.44815e-16)
(1.08418 -9.42347e-16 1.5077e-16)
(0.0200813 1.64864e-18 7.99809e-17)
(0.0200813 1.95507e-18 1.34484e-16)
(0.0627125 -1.09935e-17 1.59273e-16)
(0.0627125 -3.47945e-18 1.93402e-16)
(0.11062 -1.62429e-17 1.98595e-16)
(0.11062 -2.49839e-18 2.41174e-16)
(0.164382 -2.88297e-17 2.44664e-16)
(0.164382 -4.88739e-18 2.96533e-16)
(0.224307 -4.61089e-17 2.94134e-16)
(0.224307 -8.3518e-18 3.53573e-16)
(0.289571 -6.92964e-17 3.37723e-16)
(0.289571 -1.20728e-17 3.97347e-16)
(0.357064 -9.47785e-17 3.62514e-16)
(0.357064 -1.56233e-17 4.10404e-16)
(0.422001 -1.17779e-16 3.66088e-16)
(0.422001 -2.25302e-17 3.88369e-16)
(0.480829 -1.46825e-16 3.57503e-16)
(0.480829 -3.30332e-17 3.42944e-16)
(0.532631 -1.72784e-16 3.43299e-16)
(0.532631 -4.20972e-17 2.87383e-16)
(0.578087 -1.97886e-16 3.32164e-16)
(0.578087 -4.82949e-17 2.25177e-16)
(0.618297 -2.32106e-16 3.21563e-16)
(0.618297 -5.82776e-17 1.6085e-16)
(0.65428 -2.75406e-16 3.08926e-16)
(0.65428 -7.46447e-17 9.5322e-17)
(0.686852 -3.11824e-16 2.93483e-16)
(0.686852 -9.77182e-17 -2.50501e-17)
(0.716642 -3.35305e-16 2.81392e-16)
(0.716642 -1.32105e-16 -5.66704e-17)
(0.744122 -3.63039e-16 2.67341e-16)
(0.744122 -1.74158e-16 -6.51921e-17)
(0.769652 -4.01734e-16 2.58e-16)
(0.769652 -2.39426e-16 -7.93705e-17)
(0.793509 -4.39541e-16 2.35807e-16)
(0.793509 -2.43041e-16 -8.21124e-17)
(0.815902 -4.742e-16 2.01941e-16)
(0.815902 -2.90433e-16 -8.71673e-17)
(0.836996 -5.08221e-16 1.7282e-16)
(0.836996 -3.2796e-16 -1.07176e-16)
(0.856921 -5.43322e-16 1.38303e-16)
(0.856921 -4.11898e-16 -1.06303e-16)
(0.875781 -5.73659e-16 1.20642e-16)
(0.875781 -5.04904e-16 -1.27856e-16)
(0.893663 -6.20575e-16 1.18028e-16)
(0.893663 -5.66514e-16 -1.56775e-16)
(0.910638 -7.02888e-16 1.06297e-16)
(0.910638 -6.69367e-16 -1.54943e-16)
(0.92677 -7.86058e-16 9.23478e-17)
(0.92677 -7.51677e-16 -1.7919e-16)
(0.942112 -8.42485e-16 -8.94993e-17)
(0.942112 -7.87934e-16 -1.60547e-16)
(0.956716 -9.339e-16 -2.16145e-16)
(0.956716 -9.12632e-16 -2.05969e-16)
(0.970624 -1.04019e-15 -2.90181e-16)
(0.970624 -1.01398e-15 -2.52954e-16)
(0.983877 -1.092e-15 -3.04107e-16)
(0.983877 -1.08971e-15 -3.01199e-16)
(0.996508 -1.20716e-15 -3.60009e-16)
(0.996508 -1.15663e-15 -2.41203e-16)
(1.00854 -1.23853e-15 -3.3542e-16)
(1.00854 -1.2454e-15 -2.09932e-16)
(1.02 -1.25533e-15 -7.54371e-17)
(1.02 -1.32088e-15 -2.13923e-16)
(1.03088 -1.30154e-15 3.27819e-16)
(1.03088 -1.31237e-15 2.40577e-16)
(1.04118 -1.30271e-15 2.46483e-16)
(1.04118 -1.14678e-15 -1.38577e-17)
(1.05085 -1.12174e-15 -2.2822e-16)
(1.05085 -1.14078e-15 -4.34022e-17)
(1.05983 -1.0045e-15 -2.57701e-16)
(1.05983 -9.55744e-16 -4.10852e-17)
(1.06799 -9.97355e-16 -1.72432e-17)
(1.06799 -9.70416e-16 -4.49267e-17)
(1.0751 -1.06408e-15 3.82476e-16)
(1.0751 -1.04135e-15 3.9321e-16)
(1.08075 -9.22341e-16 3.3986e-16)
(1.08075 -9.36114e-16 2.29595e-16)
(1.08418 -9.4965e-16 -4.90878e-17)
(1.08418 -1.01719e-15 1.37328e-17)
(1.08418 -7.46011e-16 -7.70048e-17)
(1.08418 -7.4324e-16 3.76213e-17)
(1.08075 -5.07164e-16 7.48291e-16)
(1.08075 -4.6583e-16 6.49766e-16)
(1.0751 -3.50372e-16 -8.25584e-17)
(1.0751 -4.81066e-16 0)
(1.06799 -1.6144e-16 -2.57144e-16)
(1.06799 -1.75526e-16 -5.22813e-16)
(1.05983 -8.59016e-17 7.67313e-17)
(1.05983 -4.40477e-17 1.66823e-16)
(1.05085 3.09113e-17 -1.3306e-16)
(1.05085 -1.16684e-16 5.30241e-18)
(1.04118 -5.78899e-17 -1.91995e-16)
(1.04118 9.82561e-17 -4.50276e-16)
(1.03088 -7.20334e-17 -2.70352e-17)
(1.03088 -1.00804e-16 -1.44035e-16)
(1.02 -9.54842e-17 -1.49521e-30)
(1.02 -9.52112e-17 3.15535e-17)
(1.00854 -5.61655e-17 -6.77493e-17)
(1.00854 1.91711e-18 1.53994e-17)
(0.996508 -3.09141e-17 -2.33304e-17)
(0.996508 -3.35101e-17 5.48329e-17)
(0.983877 -7.01287e-17 -1.23513e-17)
(0.983877 -1.09993e-16 3.11358e-17)
(0.970624 -7.82845e-17 4.76856e-18)
(0.970624 -9.72694e-17 -1.4744e-30)
(0.956716 -5.92321e-17 -4.43333e-17)
(0.956716 -7.07101e-17 -5.03837e-18)
(0.942112 -7.78463e-17 -1.83923e-17)
(0.942112 -3.57556e-17 -3.57743e-17)
(0.92677 -3.00442e-17 8.37607e-18)
(0.92677 1.39095e-17 7.14227e-18)
(0.910638 -6.15537e-18 1.07129e-17)
(0.910638 -4.18874e-17 -3.09317e-17)
(0.893663 9.11078e-18 -1.36947e-18)
(0.893663 -2.2683e-17 -2.05755e-17)
(0.875781 -1.65682e-17 3.18869e-18)
(0.875781 -1.94771e-17 -8.43789e-18)
(0.856921 -6.71476e-18 1.04955e-17)
(0.856921 -1.0808e-17 -1.59711e-17)
(0.836996 3.51631e-18 1.47531e-19)
(0.836996 2.48528e-17 8.08243e-18)
(0.815902 6.44393e-18 1.03948e-19)
(0.815902 -3.2149e-18 2.59599e-18)
(0.793509 -2.08246e-18 -1.08838e-18)
(0.793509 -1.38777e-17 -2.15954e-18)
(0.769652 9.22052e-18 5.03735e-19)
(0.769652 -2.48905e-17 -7.65789e-18)
(0.744122 -1.81707e-17 -1.07055e-17)
(0.744122 2.5263e-18 5.4852e-18)
(0.716642 -2.21094e-17 -9.09347e-18)
(0.716642 -1.58488e-17 7.99451e-18)
(0.686852 -1.4538e-17 7.2996e-19)
(0.686852 -3.31378e-18 8.99544e-18)
(0.65428 -6.59582e-18 -7.40931e-19)
(0.65428 3.52661e-18 1.696e-17)
(0.618297 -8.62287e-19 -4.73578e-18)
(0.618297 -5.69717e-18 1.54646e-17)
(0.578087 1.29544e-18 -8.79268e-18)
(0.578087 -4.27477e-18 1.35214e-17)
(0.532631 -1.3116e-18 -1.04068e-17)
(0.532631 2.31282e-18 1.39977e-17)
(0.480829 -1.49301e-18 -1.02982e-17)
(0.480829 -1.07935e-18 1.43083e-17)
(0.422001 5.14382e-19 -1.04226e-17)
(0.422001 -4.49758e-18 1.42507e-17)
(0.357064 1.36375e-18 -1.08342e-17)
(0.357064 -2.56211e-18 1.32321e-17)
(0.289571 -1.16483e-18 -1.04783e-17)
(0.289571 7.16944e-19 1.20649e-17)
(0.224307 -6.92519e-19 -8.89628e-18)
(0.224307 -1.16005e-19 1.01475e-17)
(0.164382 -9.81491e-19 -7.27211e-18)
(0.164382 7.92053e-19 8.10498e-18)
(0.11062 -5.22818e-19 -5.86132e-18)
(0.11062 2.95881e-19 6.48513e-18)
(0.0627125 -1.44831e-19 -4.66757e-18)
(0.0627125 -4.57906e-20 5.18502e-18)
(0.0200813 6.87668e-20 -1.54958e-18)
(0.0200813 -1.85431e-19 3.41742e-19)
(1.08418 -5.12794e-16 -3.4682e-17)
(1.08418 -5.35864e-16 7.31575e-18)
(1.08075 -3.77312e-16 -6.81265e-16)
(1.08075 -4.00213e-16 -7.7098e-16)
(1.0751 -3.85538e-16 -2.82578e-16)
(1.0751 -4.73025e-16 6.26741e-17)
(1.06799 -2.91236e-16 1.49317e-30)
(1.06799 -1.62998e-16 9.01677e-18)
(1.05983 -2.47189e-17 5.24038e-16)
(1.05983 -1.10805e-16 2.33114e-16)
(1.05085 2.65104e-17 4.98815e-17)
(1.05085 2.80887e-17 1.37199e-16)
(1.04118 5.11817e-17 1.82522e-16)
(1.04118 -2.32626e-18 3.17372e-16)
(1.03088 -9.73971e-18 -4.55071e-18)
(1.03088 -4.67473e-18 2.77704e-17)
(1.02 -2.79686e-17 -3.93782e-17)
(1.02 -5.03434e-17 7.82762e-17)
(1.00854 -5.1153e-17 3.81897e-17)
(1.00854 -7.25121e-17 7.16583e-18)
(0.996508 -3.63894e-17 -2.66153e-17)
(0.996508 4.48396e-18 5.33944e-17)
(0.983877 -3.67671e-17 9.28055e-17)
(0.983877 -4.56341e-17 -2.82005e-17)
(0.970624 -8.84572e-17 3.12179e-17)
(0.970624 -6.92805e-17 3.00075e-17)
(0.956716 -8.88468e-17 4.8618e-17)
(0.956716 -5.97661e-17 1.24728e-17)
(0.942112 -3.38279e-17 -1.73828e-17)
(0.942112 -5.82534e-17 3.44124e-17)
(0.92677 -2.78877e-17 -1.96594e-17)
(0.92677 -5.08306e-17 1.46908e-17)
(0.910638 -3.59099e-17 6.21985e-18)
(0.910638 -5.53171e-17 -9.10066e-18)
(0.893663 -3.92953e-17 5.24721e-18)
(0.893663 -4.88278e-17 -2.79236e-18)
(0.875781 -4.42204e-17 1.35107e-17)
(0.875781 -2.46551e-17 8.28168e-18)
(0.856921 -3.97671e-17 -6.16753e-20)
(0.856921 -3.97413e-17 2.40194e-17)
(0.836996 -3.77123e-17 -1.78545e-18)
(0.836996 -7.27832e-18 -7.09083e-31)
(0.815902 -3.32477e-17 -6.69222e-19)
(0.815902 -3.75525e-17 -9.53926e-18)
(0.793509 -2.78385e-17 7.36206e-18)
(0.793509 -2.12273e-17 1.90982e-18)
(0.769652 -3.22794e-18 -2.46734e-33)
(0.769652 -1.8693e-17 4.99417e-18)
(0.744122 -1.16091e-17 -1.03751e-18)
(0.744122 -1.19868e-17 2.01623e-17)
(0.716642 -8.88616e-18 2.58318e-18)
(0.716642 -1.53044e-17 1.96718e-17)
(0.686852 6.05221e-18 -3.78346e-31)
(0.686852 -8.60169e-18 1.37852e-17)
(0.65428 -1.45805e-18 -2.68254e-18)
(0.65428 -7.88551e-18 1.05611e-17)
(0.618297 1.54015e-18 -4.63432e-18)
(0.618297 1.46064e-18 1.06528e-17)
(0.578087 -2.13436e-18 -4.18066e-18)
(0.578087 -5.82034e-18 1.23715e-17)
(0.532631 1.67579e-18 -4.57125e-18)
(0.532631 -1.15142e-18 1.54619e-17)
(0.480829 -2.25908e-18 -4.66793e-18)
(0.480829 -3.72059e-18 1.46711e-17)
(0.422001 -3.30313e-18 -4.386e-18)
(0.422001 -3.27479e-18 1.43528e-17)
(0.357064 -3.76707e-18 -3.8573e-18)
(0.357064 -2.0525e-18 1.47625e-17)
(0.289571 -3.34331e-18 -3.29552e-18)
(0.289571 2.1199e-20 1.41378e-17)
(0.224307 -2.7807e-19 -2.95656e-18)
(0.224307 -4.12458e-19 1.22094e-17)
(0.164382 -1.69028e-18 -2.41859e-18)
(0.164382 -4.08275e-19 9.96294e-18)
(0.11062 -2.50779e-19 -1.92347e-18)
(0.11062 -3.91621e-19 8.00239e-18)
(0.0627125 -4.33472e-20 -1.56016e-18)
(0.0627125 -9.2626e-20 6.41045e-18)
(0.0200813 5.85912e-20 -1.04059e-19)
(0.0200813 2.03548e-20 1.33457e-18)
)
;

boundaryField
{
    walls
    {
        type            fixedValue;
        value           uniform (0 0 0);
    }
    inlet
    {
        type            cyclic;
    }
    outlet
    {
        type            cyclic;
    }
    sides
    {
        type            empty;
    }
}


// ************************************************************************* //
