/*--------------------------------*- C++ -*----------------------------------*\
| =========                 |                                                 |
| \\      /  F ield         | OpenFOAM: The Open Source CFD Toolbox           |
|  \\    /   O peration     | Version:  2012                                  |
|   \\  /    A nd           | Website:  www.openfoam.com                      |
|    \\/     M anipulation  |                                                 |
\*---------------------------------------------------------------------------*/
FoamFile
{
    version     2.0;
    format      ascii;
    class       volScalarField;
    location    "11000";
    object      nut;
}
// * * * * * * * * * * * * * * * * * * * * * * * * * * * * * * * * * * * * * //

dimensions      [0 2 -1 0 0 0 0];


internalField   nonuniform List<scalar> 
2560
(
5.00327e-10
5.00327e-10
5.63893e-08
5.63892e-08
1.19046e-06
1.19046e-06
9.2181e-06
9.2181e-06
4.03055e-05
4.03055e-05
0.000116466
0.000116466
0.000246361
0.000246361
0.000421984
0.000421984
0.000631421
0.000631421
0.000865291
0.000865291
0.00111712
0.00111712
0.00138243
0.00138243
0.00165808
0.00165808
0.00194171
0.00194171
0.00223154
0.00223154
0.00252616
0.00252616
0.00282443
0.00282443
0.00312541
0.00312541
0.00342828
0.00342828
0.00373236
0.00373236
0.00403704
0.00403704
0.00434177
0.00434177
0.00464604
0.00464604
0.00494941
0.00494941
0.00525146
0.00525146
0.00555177
0.00555177
0.00584996
0.00584996
0.00614568
0.00614568
0.00643855
0.00643855
0.00672824
0.00672824
0.00701439
0.00701439
0.00729669
0.00729669
0.00757479
0.00757479
0.00784838
0.00784838
0.00811713
0.00811713
0.00838073
0.00838073
0.00863887
0.00863887
0.00889126
0.00889126
0.00913761
0.00913761
0.00937764
0.00937764
0.00961111
0.00961111
0.00983776
0.00983776
0.0100574
0.0100574
0.0102698
0.0102698
0.0104749
0.0104749
0.0106725
0.0106725
0.0108626
0.0108626
0.0110451
0.0110451
0.0112201
0.0112201
0.0113878
0.0113878
0.0115483
0.0115483
0.0117019
0.0117019
0.011849
0.011849
0.0119901
0.0119901
0.0121257
0.0121257
0.0122566
0.0122566
0.0123837
0.0123837
0.0125079
0.0125079
0.0126304
0.0126304
0.0127524
0.0127524
0.0128753
0.0128753
0.0130006
0.0130006
0.0131299
0.0131299
0.0132649
0.0132649
0.0134074
0.0134074
0.0135589
0.0135589
0.0137213
0.0137213
0.0138959
0.0138959
0.0140843
0.0140843
0.0142874
0.0142874
0.0145062
0.0145062
0.0147412
0.0147412
0.0149926
0.0149926
0.0152601
0.0152601
0.0155433
0.0155433
0.0158411
0.0158411
0.0161525
0.0161525
0.0164759
0.0164759
0.0168097
0.0168097
0.017152
0.017152
0.0175011
0.0175011
0.0178549
0.0178549
0.0182117
0.0182117
0.0185697
0.0185697
0.0189271
0.0189271
0.0192824
0.0192824
0.0196342
0.0196342
0.0199812
0.0199812
0.0203224
0.0203224
0.0206568
0.0206568
0.0209837
0.0209837
0.0213024
0.0213024
0.0216124
0.0216124
0.0219133
0.0219133
0.0222048
0.0222048
0.0224869
0.0224869
0.0227592
0.0227592
0.0230219
0.0230219
0.023275
0.023275
0.0235185
0.0235185
0.0237525
0.0237525
0.0239772
0.0239772
0.0241928
0.0241928
0.0243995
0.0243995
0.0245974
0.0245974
0.0247868
0.0247868
0.0249679
0.0249679
0.025141
0.025141
0.0253063
0.0253063
0.0254639
0.0254639
0.0256142
0.0256142
0.0257574
0.0257574
0.0258937
0.0258937
0.0260233
0.0260233
0.0261463
0.0261463
0.0262631
0.0262631
0.0263738
0.0263738
0.0264786
0.0264786
0.0265777
0.0265777
0.0266712
0.0266712
0.0267594
0.0267594
0.0268422
0.0268422
0.02692
0.02692
0.0269928
0.0269928
0.0270607
0.0270607
0.0271239
0.0271239
0.0271825
0.0271825
0.0272365
0.0272365
0.0272861
0.0272861
0.0273313
0.0273313
0.0273722
0.0273722
0.0274089
0.0274089
0.0274414
0.0274414
0.0274698
0.0274698
0.0274941
0.0274941
0.0275145
0.0275145
0.0275309
0.0275309
0.0275434
0.0275434
0.027552
0.027552
0.0275569
0.0275569
0.0275579
0.0275579
0.0275553
0.0275553
0.027549
0.027549
0.027539
0.027539
0.0275255
0.0275255
0.0275084
0.0275084
0.0274878
0.0274878
0.0274638
0.0274638
0.0274364
0.0274364
0.0274058
0.0274058
0.0273719
0.0273719
0.027335
0.027335
0.027295
0.027295
0.0272522
0.0272522
0.0272066
0.0272066
0.0271584
0.0271584
0.0271078
0.0271078
0.027055
0.027055
0.0270001
0.0270001
0.0269433
0.0269433
0.0268848
0.0268848
0.0268249
0.0268249
0.0267636
0.0267636
0.0267012
0.0267012
0.0266378
0.0266378
0.0265735
0.0265735
0.0265084
0.0265084
0.0264426
0.0264426
0.026376
0.026376
0.0263088
0.0263088
0.0262408
0.0262408
0.0261722
0.0261722
0.0261028
0.0261028
0.0260328
0.0260328
0.0259621
0.0259621
0.0258909
0.0258909
0.0258193
0.0258193
0.0257474
0.0257474
0.0256754
0.0256754
0.0256034
0.0256034
0.0255318
0.0255318
0.0254607
0.0254607
0.0253903
0.0253903
0.0253208
0.0253208
0.0252526
0.0252526
0.0251857
0.0251857
0.0251204
0.0251204
0.0250569
0.0250569
0.0249953
0.0249953
0.024936
0.024936
0.0248792
0.0248792
0.0248252
0.0248252
0.0247743
0.0247743
0.0247271
0.0247271
0.0246838
0.0246838
0.0246451
0.0246451
0.0246114
0.0246114
0.0245834
0.0245834
0.0245618
0.0245618
0.0245471
0.0245471
0.02454
0.02454
0.0245412
0.0245412
0.0245514
0.0245514
0.024571
0.024571
0.0246006
0.0246006
0.0246406
0.0246406
0.0246913
0.0246913
0.0247531
0.0247531
0.024826
0.024826
0.0249102
0.0249102
0.0250059
0.0250059
0.0251131
0.0251131
0.0252318
0.0252318
0.0253621
0.0253621
0.0255037
0.0255037
0.0256562
0.0256562
0.0258193
0.0258193
0.025992
0.025992
0.0261734
0.0261734
0.0263623
0.0263623
0.0265572
0.0265572
0.0267568
0.0267568
0.0269597
0.0269597
0.0271648
0.0271648
0.0273715
0.0273715
0.0275797
0.0275797
0.0277894
0.0277894
0.0280006
0.0280006
0.0282132
0.0282132
0.0284266
0.0284266
0.0286398
0.0286398
0.0288517
0.0288517
0.0290612
0.0290612
0.0292676
0.0292676
0.0294703
0.0294703
0.0296693
0.0296693
0.0298646
0.0298646
0.030057
0.030057
0.0302475
0.0302475
0.0304379
0.0304379
0.0306304
0.0306304
0.0308267
0.0308267
0.0310283
0.0310283
0.0312357
0.0312357
0.0314484
0.0314484
0.0316647
0.0316647
0.0318818
0.0318818
0.0320955
0.0320955
0.0323006
0.0323006
0.032492
0.032492
0.0326663
0.0326663
0.0328229
0.0328229
0.0329644
0.0329644
0.0330959
0.0330959
0.0332244
0.0332244
0.0333566
0.0333566
0.0334979
0.0334979
0.0336511
0.0336511
0.0338169
0.0338169
0.0339951
0.0339951
0.0341863
0.0341863
0.0343932
0.0343932
0.0346205
0.0346205
0.0348727
0.0348727
0.0351537
0.0351537
0.0354647
0.0354647
0.0358051
0.0358051
0.0361737
0.0361737
0.0365698
0.0365698
0.036993
0.036993
0.037444
0.037444
0.0379247
0.0379247
0.0384373
0.0384373
0.0389836
0.0389836
0.0395634
0.0395634
0.0401734
0.0401734
0.0408079
0.0408079
0.0414584
0.0414584
0.0421135
0.0421135
0.0427612
0.0427612
0.0433908
0.0433908
0.0439923
0.0439923
0.0445533
0.0445532
0.0450571
0.0450571
0.0454854
0.0454854
0.0458245
0.0458245
0.0460701
0.0460701
0.0462272
0.0462272
0.0463074
0.0463074
0.0463308
0.0463308
0.0463269
0.0463269
0.0463249
0.0463249
0.0463413
0.0463413
0.0463777
0.0463777
0.0464338
0.0464338
0.0465127
0.0465127
0.0466157
0.0466157
0.0467404
0.0467404
0.0468857
0.0468857
0.0470539
0.0470539
0.0472497
0.0472497
0.0474741
0.0474741
0.0477232
0.0477232
0.0479907
0.0479907
0.0482655
0.0482655
0.0485256
0.0485256
0.0487376
0.0487376
0.0488702
0.0488702
0.0489108
0.0489108
0.0488721
0.0488721
0.0487817
0.0487817
0.0486632
0.0486632
0.0485303
0.0485303
0.048394
0.0483941
0.0482672
0.0482673
0.0481587
0.0481588
0.0480715
0.0480715
0.0480043
0.0480044
0.0479545
0.0479546
0.0479258
0.0479259
5.00327e-10
5.00327e-10
5.63893e-08
5.63892e-08
1.19046e-06
1.19046e-06
9.2181e-06
9.2181e-06
4.03055e-05
4.03055e-05
0.000116466
0.000116466
0.000246361
0.000246361
0.000421984
0.000421984
0.000631421
0.000631421
0.000865291
0.000865291
0.00111712
0.00111712
0.00138243
0.00138243
0.00165808
0.00165808
0.00194171
0.00194171
0.00223154
0.00223154
0.00252616
0.00252616
0.00282443
0.00282443
0.00312541
0.00312541
0.00342828
0.00342828
0.00373237
0.00373237
0.00403704
0.00403704
0.00434177
0.00434177
0.00464604
0.00464604
0.00494942
0.00494942
0.00525146
0.00525146
0.00555177
0.00555177
0.00584996
0.00584996
0.00614568
0.00614568
0.00643855
0.00643855
0.00672824
0.00672824
0.00701439
0.00701439
0.00729669
0.00729669
0.00757479
0.00757479
0.00784838
0.00784838
0.00811713
0.00811713
0.00838073
0.00838073
0.00863887
0.00863887
0.00889126
0.00889126
0.00913761
0.00913761
0.00937765
0.00937765
0.00961111
0.00961111
0.00983776
0.00983776
0.0100574
0.0100574
0.0102698
0.0102698
0.0104749
0.0104749
0.0106725
0.0106725
0.0108626
0.0108626
0.0110451
0.0110451
0.0112201
0.0112201
0.0113878
0.0113878
0.0115483
0.0115483
0.0117019
0.0117019
0.011849
0.011849
0.0119901
0.0119901
0.0121257
0.0121257
0.0122566
0.0122566
0.0123837
0.0123837
0.0125079
0.0125079
0.0126304
0.0126304
0.0127524
0.0127524
0.0128753
0.0128753
0.0130006
0.0130006
0.0131299
0.0131299
0.0132649
0.0132649
0.0134074
0.0134074
0.0135589
0.0135589
0.0137213
0.0137213
0.0138959
0.0138959
0.0140843
0.0140843
0.0142874
0.0142874
0.0145062
0.0145062
0.0147412
0.0147412
0.0149926
0.0149926
0.0152601
0.0152601
0.0155433
0.0155433
0.0158411
0.0158411
0.0161525
0.0161525
0.0164759
0.0164759
0.0168097
0.0168097
0.017152
0.017152
0.0175011
0.0175011
0.0178549
0.0178549
0.0182117
0.0182117
0.0185697
0.0185697
0.0189271
0.0189271
0.0192824
0.0192824
0.0196342
0.0196342
0.0199812
0.0199812
0.0203224
0.0203224
0.0206568
0.0206568
0.0209837
0.0209837
0.0213024
0.0213024
0.0216124
0.0216124
0.0219133
0.0219133
0.0222048
0.0222048
0.0224869
0.0224869
0.0227592
0.0227592
0.0230219
0.0230219
0.023275
0.023275
0.0235185
0.0235185
0.0237525
0.0237525
0.0239772
0.0239772
0.0241928
0.0241928
0.0243995
0.0243995
0.0245974
0.0245974
0.0247868
0.0247868
0.0249679
0.0249679
0.025141
0.025141
0.0253063
0.0253063
0.0254639
0.0254639
0.0256142
0.0256142
0.0257574
0.0257574
0.0258937
0.0258937
0.0260233
0.0260233
0.0261463
0.0261463
0.0262631
0.0262631
0.0263738
0.0263738
0.0264786
0.0264786
0.0265777
0.0265777
0.0266712
0.0266712
0.0267594
0.0267594
0.0268422
0.0268422
0.02692
0.02692
0.0269928
0.0269928
0.0270607
0.0270607
0.0271239
0.0271239
0.0271825
0.0271825
0.0272365
0.0272365
0.0272861
0.0272861
0.0273313
0.0273313
0.0273722
0.0273722
0.0274089
0.0274089
0.0274414
0.0274414
0.0274698
0.0274698
0.0274941
0.0274941
0.0275144
0.0275144
0.0275308
0.0275308
0.0275433
0.0275433
0.027552
0.027552
0.0275569
0.0275569
0.0275579
0.0275579
0.0275553
0.0275553
0.027549
0.027549
0.027539
0.027539
0.0275255
0.0275255
0.0275084
0.0275084
0.0274878
0.0274878
0.0274638
0.0274638
0.0274364
0.0274364
0.0274058
0.0274058
0.0273719
0.0273719
0.027335
0.027335
0.027295
0.027295
0.0272522
0.0272522
0.0272066
0.0272066
0.0271584
0.0271584
0.0271078
0.0271078
0.027055
0.027055
0.0270001
0.0270001
0.0269433
0.0269433
0.0268848
0.0268848
0.0268248
0.0268248
0.0267636
0.0267636
0.0267012
0.0267012
0.0266378
0.0266378
0.0265735
0.0265735
0.0265084
0.0265084
0.0264426
0.0264426
0.026376
0.026376
0.0263088
0.0263088
0.0262408
0.0262408
0.0261722
0.0261722
0.0261028
0.0261028
0.0260328
0.0260328
0.0259621
0.0259621
0.0258909
0.0258909
0.0258193
0.0258193
0.0257474
0.0257474
0.0256753
0.0256753
0.0256034
0.0256034
0.0255318
0.0255318
0.0254606
0.0254606
0.0253903
0.0253903
0.0253208
0.0253208
0.0252526
0.0252526
0.0251857
0.0251857
0.0251204
0.0251204
0.0250569
0.0250569
0.0249953
0.0249953
0.024936
0.024936
0.0248792
0.0248792
0.0248252
0.0248252
0.0247743
0.0247743
0.024727
0.024727
0.0246838
0.0246838
0.024645
0.024645
0.0246114
0.0246114
0.0245834
0.0245834
0.0245617
0.0245617
0.024547
0.024547
0.02454
0.02454
0.0245412
0.0245412
0.0245513
0.0245513
0.0245709
0.0245709
0.0246005
0.0246005
0.0246405
0.0246405
0.0246913
0.0246913
0.024753
0.024753
0.0248259
0.0248259
0.0249101
0.0249101
0.0250058
0.0250058
0.0251129
0.0251129
0.0252317
0.0252317
0.0253619
0.0253619
0.0255035
0.0255035
0.0256561
0.0256561
0.0258191
0.0258191
0.0259918
0.0259918
0.0261732
0.0261732
0.0263621
0.0263621
0.026557
0.026557
0.0267566
0.0267566
0.0269595
0.0269595
0.0271646
0.0271646
0.0273714
0.0273713
0.0275795
0.0275795
0.0277892
0.0277892
0.0280004
0.0280004
0.028213
0.028213
0.0284264
0.0284264
0.0286396
0.0286396
0.0288515
0.0288515
0.029061
0.029061
0.0292674
0.0292674
0.0294702
0.0294702
0.0296691
0.0296691
0.0298645
0.0298645
0.0300568
0.0300568
0.0302473
0.0302473
0.0304378
0.0304378
0.0306302
0.0306302
0.0308265
0.0308265
0.0310281
0.0310281
0.0312356
0.0312355
0.0314483
0.0314483
0.0316646
0.0316646
0.0318817
0.0318817
0.0320954
0.0320954
0.0323005
0.0323005
0.032492
0.032492
0.0326663
0.0326663
0.0328229
0.0328229
0.0329645
0.0329644
0.033096
0.033096
0.0332245
0.0332245
0.0333568
0.0333568
0.0334981
0.0334981
0.0336513
0.0336513
0.0338171
0.0338171
0.0339952
0.0339952
0.0341864
0.0341864
0.0343934
0.0343934
0.0346206
0.0346206
0.0348727
0.0348727
0.0351537
0.0351537
0.0354646
0.0354646
0.035805
0.035805
0.0361736
0.0361736
0.0365696
0.0365696
0.0369927
0.0369927
0.0374437
0.0374437
0.0379243
0.0379243
0.0384368
0.0384368
0.038983
0.038983
0.0395626
0.0395625
0.0401724
0.0401724
0.0408068
0.0408068
0.0414572
0.0414571
0.0421122
0.0421122
0.0427599
0.0427598
0.0433895
0.0433894
0.0439911
0.043991
0.0445522
0.0445522
0.0450563
0.0450563
0.045485
0.0454849
0.0458244
0.0458244
0.0460704
0.0460704
0.0462279
0.0462278
0.0463083
0.0463083
0.0463317
0.0463317
0.0463277
0.0463277
0.0463255
0.0463255
0.0463417
0.0463417
0.046378
0.046378
0.0464339
0.0464339
0.0465127
0.0465127
0.0466157
0.0466157
0.0467403
0.0467403
0.0468855
0.0468854
0.0470535
0.0470535
0.0472491
0.047249
0.0474732
0.0474732
0.047722
0.047722
0.0479892
0.0479892
0.0482639
0.0482638
0.048524
0.0485239
0.0487362
0.0487362
0.0488694
0.0488693
0.0489105
0.0489105
0.0488723
0.0488723
0.0487822
0.0487822
0.0486639
0.0486639
0.048531
0.048531
0.0483947
0.0483947
0.0482677
0.0482677
0.048159
0.048159
0.0480717
0.0480716
0.0480044
0.0480043
0.0479545
0.0479545
0.0479258
0.0479257
0.047925
0.0479251
0.0479521
0.0479522
0.0480003
0.0480004
0.0480649
0.048065
0.0481496
0.0481497
0.0482556
0.0482556
0.0483796
0.0483796
0.0485131
0.0485132
0.0486423
0.0486424
0.0487544
0.0487544
0.0488381
0.0488381
0.0488716
0.0488716
0.0488274
0.0488274
0.0486934
0.0486934
0.0484839
0.0484839
0.0482294
0.0482294
0.0479608
0.0479608
0.0476992
0.0476992
0.0474556
0.0474556
0.0472365
0.0472365
0.047046
0.047046
0.0468826
0.0468826
0.0467418
0.0467418
0.0466213
0.0466213
0.0465227
0.0465227
0.046448
0.046448
0.046396
0.046396
0.0463635
0.0463635
0.0463508
0.0463508
0.0463564
0.0463564
0.046364
0.046364
0.0463438
0.0463438
0.046265
0.046265
0.0461071
0.0461071
0.0458586
0.0458586
0.0455151
0.0455151
0.0450828
0.0450828
0.0445763
0.0445763
0.0440137
0.0440137
0.0434115
0.0434115
0.0427812
0.0427812
0.0421329
0.0421329
0.0414772
0.0414772
0.040826
0.040826
0.0401906
0.0401906
0.0395798
0.0395798
0.0389993
0.0389993
0.0384523
0.0384523
0.0379389
0.0379389
0.0374573
0.0374573
0.0370053
0.0370053
0.036581
0.036581
0.0361839
0.0361839
0.0358143
0.0358143
0.0354727
0.0354727
0.0351605
0.0351605
0.0348784
0.0348784
0.0346251
0.0346251
0.0343968
0.0343968
0.0341891
0.0341891
0.0339974
0.0339974
0.0338185
0.0338185
0.0336518
0.0336518
0.0334975
0.0334975
0.033355
0.033355
0.0332215
0.0332215
0.0330921
0.0330921
0.03296
0.03296
0.032818
0.032818
0.0326605
0.0326605
0.0324852
0.0324852
0.0322929
0.0322929
0.0320876
0.0320876
0.0318741
0.0318741
0.0316576
0.0316576
0.0314423
0.0314423
0.0312309
0.0312309
0.0310245
0.0310245
0.0308236
0.0308236
0.0306274
0.0306274
0.0304349
0.0304349
0.0302441
0.0302441
0.0300532
0.0300532
0.0298606
0.0298606
0.0296651
0.0296651
0.0294659
0.0294659
0.029263
0.029263
0.0290568
0.0290568
0.0288474
0.0288474
0.0286357
0.0286357
0.0284228
0.0284228
0.0282099
0.0282099
0.027998
0.027998
0.0277876
0.0277876
0.0275788
0.0275788
0.0273712
0.0273712
0.0271649
0.0271649
0.0269601
0.0269601
0.0267575
0.0267575
0.0265581
0.0265581
0.0263634
0.0263634
0.0261747
0.0261747
0.0259935
0.0259935
0.0258209
0.0258209
0.0256579
0.0256579
0.0255051
0.0255051
0.0253633
0.0253633
0.0252329
0.0252329
0.0251139
0.0251139
0.0250065
0.0250065
0.0249108
0.0249108
0.0248265
0.0248265
0.0247536
0.0247536
0.0246919
0.0246919
0.0246412
0.0246412
0.0246013
0.0246013
0.0245717
0.0245717
0.0245522
0.0245522
0.0245422
0.0245422
0.024541
0.024541
0.0245482
0.0245482
0.0245629
0.0245629
0.0245845
0.0245845
0.0246125
0.0246125
0.0246462
0.0246462
0.024685
0.024685
0.0247282
0.0247282
0.0247755
0.0247755
0.0248264
0.0248264
0.0248805
0.0248805
0.0249373
0.0249373
0.0249966
0.0249966
0.0250582
0.0250582
0.0251217
0.0251217
0.0251869
0.0251869
0.0252538
0.0252538
0.025322
0.025322
0.0253915
0.0253915
0.0254619
0.0254619
0.025533
0.025533
0.0256046
0.0256046
0.0256766
0.0256766
0.0257486
0.0257486
0.0258205
0.0258205
0.0258922
0.0258922
0.0259634
0.0259634
0.0260341
0.0260341
0.0261041
0.0261041
0.0261735
0.0261735
0.0262422
0.0262422
0.0263101
0.0263101
0.0263774
0.0263774
0.026444
0.026444
0.0265099
0.0265099
0.026575
0.026575
0.0266393
0.0266393
0.0267027
0.0267027
0.0267652
0.0267652
0.0268264
0.0268264
0.0268864
0.0268864
0.0269449
0.0269449
0.0270016
0.0270016
0.0270566
0.0270566
0.0271094
0.0271094
0.02716
0.02716
0.0272082
0.0272082
0.0272538
0.0272538
0.0272967
0.0272967
0.0273366
0.0273366
0.0273736
0.0273736
0.0274075
0.0274075
0.0274381
0.0274381
0.0274655
0.0274655
0.0274896
0.0274896
0.0275102
0.0275102
0.0275273
0.0275273
0.0275409
0.0275409
0.0275509
0.0275509
0.0275573
0.0275573
0.02756
0.02756
0.027559
0.027559
0.0275542
0.0275542
0.0275456
0.0275456
0.0275332
0.0275332
0.0275169
0.0275169
0.0274966
0.0274966
0.0274722
0.0274722
0.0274439
0.0274439
0.0274114
0.0274114
0.0273748
0.0273748
0.0273339
0.0273339
0.0272888
0.0272888
0.0272393
0.0272393
0.0271853
0.0271853
0.0271268
0.0271268
0.0270636
0.0270636
0.0269957
0.0269957
0.0269229
0.0269229
0.0268451
0.0268451
0.0267622
0.0267622
0.026674
0.026674
0.0265804
0.0265804
0.0264813
0.0264813
0.0263764
0.0263764
0.0262656
0.0262656
0.0261486
0.0261486
0.0260255
0.0260255
0.0258958
0.0258958
0.0257596
0.0257596
0.0256164
0.0256164
0.0254661
0.0254661
0.0253084
0.0253084
0.0251432
0.0251432
0.0249701
0.0249701
0.024789
0.024789
0.0245996
0.0245996
0.0244016
0.0244016
0.0241949
0.0241949
0.0239794
0.0239794
0.0237547
0.0237547
0.0235206
0.0235206
0.0232772
0.0232772
0.0230243
0.0230243
0.0227616
0.0227616
0.0224893
0.0224893
0.0222073
0.0222073
0.0219158
0.0219158
0.0216147
0.0216147
0.0213045
0.0213045
0.0209854
0.0209854
0.0206582
0.0206582
0.0203235
0.0203235
0.0199821
0.0199821
0.019635
0.019635
0.0192831
0.0192831
0.0189276
0.0189276
0.01857
0.01857
0.0182119
0.0182119
0.0178548
0.0178548
0.0175007
0.0175007
0.0171514
0.0171514
0.0168089
0.0168089
0.0164749
0.0164749
0.0161514
0.0161514
0.0158399
0.0158399
0.0155419
0.0155419
0.0152587
0.0152587
0.014991
0.014991
0.0147395
0.0147395
0.0145044
0.0145044
0.0142856
0.0142856
0.0140823
0.0140823
0.013894
0.013894
0.0137192
0.0137192
0.0135568
0.0135568
0.0134052
0.0134052
0.0132628
0.0132628
0.0131277
0.0131277
0.0129983
0.0129983
0.012873
0.012873
0.01275
0.01275
0.012628
0.012628
0.0125056
0.0125056
0.0123814
0.0123814
0.0122544
0.0122544
0.0121235
0.0121235
0.011988
0.011988
0.0118471
0.0118471
0.0117001
0.0117001
0.0115466
0.0115466
0.0113862
0.0113862
0.0112186
0.0112186
0.0110437
0.0110437
0.0108613
0.0108613
0.0106713
0.0106713
0.0104738
0.0104738
0.0102689
0.0102689
0.0100565
0.0100565
0.009837
0.009837
0.00961043
0.00961043
0.00937706
0.00937706
0.0091371
0.0091371
0.0088908
0.0088908
0.00863846
0.00863846
0.00838037
0.00838037
0.00811681
0.00811681
0.00784809
0.00784809
0.00757454
0.00757454
0.00729646
0.00729646
0.00701418
0.00701418
0.00672804
0.00672804
0.00643838
0.00643838
0.00614554
0.00614554
0.00584986
0.00584986
0.0055517
0.0055517
0.00525142
0.00525142
0.0049494
0.0049494
0.00464604
0.00464604
0.00434178
0.00434178
0.00403706
0.00403706
0.00373239
0.00373239
0.00342832
0.00342832
0.00312544
0.00312544
0.00282447
0.00282447
0.0025262
0.0025262
0.00223158
0.00223158
0.00194175
0.00194175
0.00165812
0.00165812
0.00138247
0.00138247
0.00111715
0.00111715
0.000865323
0.000865323
0.000631449
0.000631449
0.000422006
0.000422006
0.000246376
0.000246376
0.000116475
0.000116475
4.03091e-05
4.03091e-05
9.21895e-06
9.21896e-06
1.19057e-06
1.19057e-06
5.63944e-08
5.63944e-08
5.0037e-10
5.0037e-10
0.047925
0.0479249
0.0479522
0.0479521
0.0480004
0.0480003
0.0480651
0.0480651
0.0481499
0.0481499
0.0482561
0.0482561
0.0483802
0.0483802
0.0485139
0.0485139
0.048643
0.048643
0.0487549
0.0487549
0.0488382
0.0488383
0.0488712
0.0488712
0.0488265
0.0488265
0.048692
0.048692
0.0484823
0.0484822
0.0482278
0.0482278
0.0479594
0.0479593
0.047698
0.047698
0.0474547
0.0474547
0.0472359
0.0472359
0.0470456
0.0470456
0.0468824
0.0468824
0.0467417
0.0467417
0.0466213
0.0466213
0.0465228
0.0465228
0.0464482
0.0464482
0.0463963
0.0463963
0.0463639
0.0463639
0.0463514
0.0463514
0.0463572
0.0463572
0.0463649
0.0463649
0.0463446
0.0463446
0.0462656
0.0462656
0.0461074
0.0461074
0.0458586
0.0458585
0.0455147
0.0455146
0.045082
0.045082
0.0445753
0.0445752
0.0440125
0.0440125
0.0434102
0.0434101
0.0427799
0.0427799
0.0421316
0.0421316
0.041476
0.041476
0.0408249
0.0408249
0.0401897
0.0401896
0.0395791
0.039579
0.0389987
0.0389987
0.0384518
0.0384518
0.0379385
0.0379385
0.0374571
0.037457
0.0370051
0.037005
0.0365808
0.0365808
0.0361838
0.0361838
0.0358142
0.0358142
0.0354727
0.0354727
0.0351605
0.0351605
0.0348784
0.0348784
0.0346252
0.0346252
0.0343969
0.0343969
0.0341893
0.0341893
0.0339976
0.0339976
0.0338187
0.0338187
0.033652
0.033652
0.0334977
0.0334977
0.0333552
0.0333552
0.0332216
0.0332216
0.0330922
0.0330922
0.0329601
0.0329601
0.0328181
0.032818
0.0326606
0.0326606
0.0324851
0.0324851
0.0322929
0.0322929
0.0320875
0.0320875
0.031874
0.031874
0.0316575
0.0316575
0.0314422
0.0314422
0.0312307
0.0312307
0.0310244
0.0310244
0.0308234
0.0308234
0.0306273
0.0306273
0.0304347
0.0304347
0.0302439
0.0302439
0.0300531
0.0300531
0.0298605
0.0298605
0.0296649
0.0296649
0.0294657
0.0294657
0.0292629
0.0292629
0.0290566
0.0290566
0.0288472
0.0288472
0.0286355
0.0286355
0.0284226
0.0284226
0.0282098
0.0282098
0.0279978
0.0279978
0.0277874
0.0277874
0.0275786
0.0275786
0.0273711
0.0273711
0.0271647
0.0271647
0.02696
0.02696
0.0267573
0.0267573
0.0265579
0.0265579
0.0263632
0.0263632
0.0261746
0.0261746
0.0259934
0.0259934
0.0258208
0.0258208
0.0256577
0.0256577
0.025505
0.025505
0.0253632
0.0253632
0.0252327
0.0252327
0.0251138
0.0251138
0.0250064
0.0250064
0.0249107
0.0249107
0.0248264
0.0248264
0.0247536
0.0247536
0.0246919
0.0246919
0.0246412
0.0246412
0.0246012
0.0246012
0.0245717
0.0245717
0.0245522
0.0245522
0.0245421
0.0245421
0.024541
0.024541
0.0245481
0.0245481
0.0245628
0.0245628
0.0245845
0.0245845
0.0246125
0.0246125
0.0246462
0.0246462
0.0246849
0.0246849
0.0247282
0.0247282
0.0247755
0.0247755
0.0248264
0.0248264
0.0248804
0.0248804
0.0249373
0.0249373
0.0249966
0.0249966
0.0250582
0.0250582
0.0251216
0.0251216
0.0251869
0.0251869
0.0252538
0.0252538
0.025322
0.025322
0.0253915
0.0253915
0.0254618
0.0254618
0.025533
0.025533
0.0256046
0.0256046
0.0256766
0.0256766
0.0257486
0.0257486
0.0258205
0.0258205
0.0258922
0.0258922
0.0259634
0.0259634
0.0260341
0.0260341
0.0261041
0.0261041
0.0261735
0.0261735
0.0262422
0.0262422
0.0263101
0.0263101
0.0263774
0.0263774
0.026444
0.026444
0.0265099
0.0265099
0.026575
0.026575
0.0266393
0.0266393
0.0267027
0.0267027
0.0267652
0.0267652
0.0268264
0.0268264
0.0268864
0.0268864
0.0269448
0.0269448
0.0270016
0.0270016
0.0270566
0.0270566
0.0271094
0.0271094
0.02716
0.02716
0.0272082
0.0272082
0.0272538
0.0272538
0.0272966
0.0272966
0.0273366
0.0273366
0.0273736
0.0273736
0.0274075
0.0274075
0.0274381
0.0274381
0.0274655
0.0274655
0.0274896
0.0274896
0.0275102
0.0275102
0.0275273
0.0275273
0.0275409
0.0275409
0.0275509
0.0275509
0.0275573
0.0275573
0.02756
0.02756
0.027559
0.027559
0.0275542
0.0275542
0.0275456
0.0275456
0.0275332
0.0275332
0.0275169
0.0275169
0.0274965
0.0274965
0.0274722
0.0274722
0.0274439
0.0274439
0.0274114
0.0274114
0.0273748
0.0273748
0.0273339
0.0273339
0.0272888
0.0272888
0.0272393
0.0272393
0.0271853
0.0271853
0.0271268
0.0271268
0.0270636
0.0270636
0.0269957
0.0269957
0.0269229
0.0269229
0.0268451
0.0268451
0.0267622
0.0267622
0.026674
0.026674
0.0265804
0.0265804
0.0264813
0.0264813
0.0263764
0.0263764
0.0262656
0.0262656
0.0261486
0.0261486
0.0260255
0.0260255
0.0258958
0.0258958
0.0257596
0.0257596
0.0256164
0.0256164
0.025466
0.025466
0.0253084
0.0253084
0.0251432
0.0251432
0.0249701
0.0249701
0.024789
0.024789
0.0245996
0.0245996
0.0244016
0.0244016
0.0241949
0.0241949
0.0239793
0.0239793
0.0237546
0.0237546
0.0235206
0.0235206
0.0232772
0.0232772
0.0230243
0.0230243
0.0227616
0.0227616
0.0224893
0.0224893
0.0222073
0.0222073
0.0219158
0.0219158
0.0216147
0.0216147
0.0213045
0.0213045
0.0209854
0.0209854
0.0206582
0.0206582
0.0203235
0.0203235
0.0199821
0.0199821
0.019635
0.019635
0.0192831
0.0192831
0.0189276
0.0189276
0.01857
0.01857
0.0182119
0.0182119
0.0178548
0.0178548
0.0175007
0.0175007
0.0171514
0.0171514
0.0168089
0.0168089
0.0164749
0.0164749
0.0161514
0.0161514
0.0158399
0.0158399
0.0155419
0.0155419
0.0152587
0.0152587
0.014991
0.014991
0.0147395
0.0147395
0.0145044
0.0145044
0.0142856
0.0142856
0.0140823
0.0140823
0.013894
0.013894
0.0137192
0.0137192
0.0135568
0.0135568
0.0134052
0.0134052
0.0132628
0.0132628
0.0131277
0.0131277
0.0129983
0.0129983
0.012873
0.012873
0.01275
0.01275
0.012628
0.012628
0.0125056
0.0125056
0.0123814
0.0123814
0.0122544
0.0122544
0.0121236
0.0121236
0.011988
0.011988
0.0118471
0.0118471
0.0117001
0.0117001
0.0115466
0.0115466
0.0113862
0.0113862
0.0112186
0.0112186
0.0110437
0.0110437
0.0108613
0.0108613
0.0106713
0.0106713
0.0104738
0.0104738
0.0102689
0.0102689
0.0100565
0.0100565
0.009837
0.009837
0.00961043
0.00961043
0.00937706
0.00937706
0.0091371
0.0091371
0.0088908
0.0088908
0.00863846
0.00863846
0.00838037
0.00838037
0.00811681
0.00811681
0.00784809
0.00784809
0.00757454
0.00757454
0.00729646
0.00729646
0.00701418
0.00701418
0.00672804
0.00672804
0.00643838
0.00643838
0.00614554
0.00614554
0.00584987
0.00584987
0.0055517
0.0055517
0.00525142
0.00525142
0.0049494
0.0049494
0.00464604
0.00464604
0.00434178
0.00434178
0.00403706
0.00403706
0.00373239
0.00373239
0.00342832
0.00342832
0.00312545
0.00312545
0.00282447
0.00282447
0.0025262
0.0025262
0.00223158
0.00223158
0.00194175
0.00194175
0.00165812
0.00165812
0.00138247
0.00138247
0.00111715
0.00111715
0.000865323
0.000865323
0.000631449
0.000631449
0.000422006
0.000422006
0.000246376
0.000246376
0.000116475
0.000116475
4.03091e-05
4.03091e-05
9.21895e-06
9.21895e-06
1.19057e-06
1.19057e-06
5.63943e-08
5.63943e-08
5.00369e-10
5.00369e-10
)
;

boundaryField
{
    walls
    {
        type            nutUWallFunction;
        blending        stepwise;
        Cmu             0.09;
        kappa           0.41;
        E               9.8;
        value           uniform 0;
    }
    inlet
    {
        type            cyclic;
    }
    outlet
    {
        type            cyclic;
    }
    sides
    {
        type            empty;
    }
}


// ************************************************************************* //
