/*--------------------------------*- C++ -*----------------------------------*\
| =========                 |                                                 |
| \\      /  F ield         | OpenFOAM: The Open Source CFD Toolbox           |
|  \\    /   O peration     | Version:  2012                                  |
|   \\  /    A nd           | Website:  www.openfoam.com                      |
|    \\/     M anipulation  |                                                 |
\*---------------------------------------------------------------------------*/
FoamFile
{
    version     2.0;
    format      ascii;
    class       volScalarField;
    location    "11000";
    object      p;
}
// * * * * * * * * * * * * * * * * * * * * * * * * * * * * * * * * * * * * * //

dimensions      [0 2 -2 0 0 0 0];


internalField   nonuniform List<scalar> 
2560
(
3.15442e-09
-3.74936e-05
-4.07408e-08
-3.75227e-05
-2.43568e-07
-3.77107e-05
-8.6149e-07
-3.83207e-05
-2.26164e-06
-3.9721e-05
-4.95993e-06
-4.24207e-05
-9.64512e-06
-4.71057e-05
-1.71221e-05
-5.45823e-05
-2.83187e-05
-6.57793e-05
-4.43084e-05
-8.1769e-05
-6.63028e-05
-0.000103764
-9.56637e-05
-0.000133125
-0.000133877
-0.000171338
-0.000182574
-0.000220036
-0.000243525
-0.000280987
-0.000318633
-0.000356095
-0.000409926
-0.000447388
-0.000519559
-0.000557021
-0.000649842
-0.000687305
-0.000803181
-0.000840644
-0.00098208
-0.00101954
-0.00118921
-0.00122667
-0.00142737
-0.00146483
-0.00169936
-0.00173682
-0.00200813
-0.0020456
-0.00235683
-0.0023943
-0.00274862
-0.00278609
-0.00318665
-0.00322412
-0.00367426
-0.00371173
-0.00421495
-0.00425241
-0.00481217
-0.00484964
-0.00546937
-0.00550684
-0.00619017
-0.00622764
-0.00697832
-0.00701579
-0.00783749
-0.00787496
-0.0087713
-0.00880877
-0.00978361
-0.00982108
-0.0108783
-0.0109158
-0.0120592
-0.0120967
-0.0133301
-0.0133676
-0.0146948
-0.0147322
-0.0161573
-0.0161948
-0.0177216
-0.0177591
-0.0193914
-0.0194289
-0.0211706
-0.0212081
-0.0230632
-0.0231007
-0.025073
-0.0251105
-0.0272038
-0.0272412
-0.0294593
-0.0294968
-0.0318441
-0.0318816
-0.0343611
-0.0343986
-0.0370132
-0.0370507
-0.0398064
-0.0398439
-0.0427427
-0.0427802
-0.0458255
-0.045863
-0.04906
-0.0490975
-0.0524475
-0.052485
-0.0559934
-0.0560309
-0.0596997
-0.0597372
-0.0635694
-0.0636069
-0.0676064
-0.0676439
-0.0718137
-0.0718512
-0.0761951
-0.0762326
-0.0807507
-0.0807883
-0.0854853
-0.0855228
-0.0904026
-0.0904401
-0.0955019
-0.0955394
-0.100788
-0.100825
-0.106261
-0.106298
-0.111925
-0.111963
-0.11778
-0.117818
-0.123828
-0.123866
-0.130072
-0.130109
-0.13651
-0.136547
-0.143145
-0.143183
-0.149978
-0.150016
-0.15701
-0.157047
-0.164238
-0.164276
-0.171665
-0.171703
-0.17929
-0.179327
-0.187112
-0.18715
-0.19513
-0.195168
-0.203344
-0.203381
-0.211751
-0.211789
-0.220349
-0.220387
-0.229137
-0.229175
-0.238113
-0.238151
-0.247275
-0.247312
-0.256618
-0.256656
-0.26614
-0.266177
-0.275835
-0.275873
-0.285703
-0.28574
-0.295737
-0.295775
-0.305935
-0.305972
-0.316288
-0.316325
-0.326795
-0.326833
-0.33745
-0.337488
-0.348244
-0.348282
-0.359176
-0.359213
-0.370235
-0.370273
-0.381419
-0.381456
-0.39272
-0.392758
-0.404129
-0.404167
-0.41564
-0.415678
-0.427247
-0.427285
-0.438941
-0.438979
-0.450716
-0.450753
-0.462562
-0.4626
-0.474472
-0.47451
-0.48644
-0.486478
-0.498454
-0.498492
-0.510509
-0.510546
-0.522595
-0.522633
-0.534704
-0.534741
-0.546828
-0.546866
-0.558957
-0.558995
-0.571085
-0.571123
-0.583202
-0.58324
-0.595301
-0.595339
-0.607372
-0.60741
-0.619406
-0.619444
-0.631398
-0.631436
-0.643337
-0.643375
-0.655218
-0.655256
-0.66703
-0.667067
-0.678767
-0.678804
-0.690421
-0.690459
-0.701984
-0.702021
-0.71345
-0.713488
-0.724811
-0.724849
-0.736059
-0.736097
-0.74719
-0.747227
-0.758195
-0.758233
-0.769068
-0.769105
-0.779801
-0.779839
-0.79039
-0.790428
-0.80083
-0.800867
-0.811112
-0.81115
-0.821232
-0.82127
-0.831184
-0.831222
-0.840964
-0.841002
-0.850565
-0.850603
-0.859985
-0.860023
-0.869218
-0.869256
-0.878261
-0.878299
-0.887109
-0.887147
-0.89576
-0.895798
-0.904209
-0.904247
-0.912456
-0.912493
-0.920495
-0.920533
-0.928328
-0.928365
-0.935947
-0.935986
-0.943358
-0.943396
-0.95055
-0.950588
-0.957532
-0.957569
-0.96429
-0.964329
-0.970838
-0.970875
-0.977159
-0.977198
-0.983269
-0.983306
-0.989149
-0.989188
-0.994821
-0.994857
-1.00026
-1.0003
-1.00549
-1.00553
-1.01049
-1.01053
-1.01529
-1.01532
-1.01984
-1.01988
-1.02421
-1.02424
-1.02832
-1.02837
-1.03227
-1.0323
-1.03594
-1.03599
-1.03947
-1.03949
-1.0427
-1.04276
-1.04583
-1.04585
-1.04863
-1.04869
-1.05136
-1.05137
-1.05373
-1.0538
-1.05609
-1.05609
-1.05803
-1.05812
-1.06005
-1.06003
-1.06156
-1.06168
-1.06327
-1.06322
-1.06435
-1.0645
-1.06579
-1.06569
-1.06641
-1.06662
-1.06764
-1.06747
-1.06798
-1.06807
-1.06885
-1.06859
-1.06903
-1.06889
-1.06945
-1.06908
-1.06947
-1.06909
-1.06912
-1.06896
-1.06897
-1.0687
-1.06821
-1.06826
-1.06791
-1.06773
-1.06682
-1.067
-1.06633
-1.06622
-1.06509
-1.06522
-1.06425
-1.06418
-1.06284
-1.06293
-1.06169
-1.06165
-1.0601
-1.06017
-1.05868
-1.05865
-1.05691
-1.05696
-1.05522
-1.05522
-1.05327
-1.05331
-1.05135
-1.05135
-1.04921
-1.04924
-1.04707
-1.04707
-1.04474
-1.04477
-1.0424
-1.04241
-1.0399
-1.03992
-1.03736
-1.03738
-1.03469
-1.03471
-1.03197
-1.03198
-1.02913
-1.02915
-1.02624
-1.02625
-1.02324
-1.02326
-1.02018
-1.0202
-1.01703
-1.01705
-1.0138
-1.01382
-1.01048
-1.0105
-1.00709
-1.0071
-1.00359
-1.00361
-1.00002
-1.00004
-0.996349
-0.996367
-0.992592
-0.99261
-0.988739
-0.988758
-0.984806
-0.984825
-0.980787
-0.980806
-0.97669
-0.976708
-0.972509
-0.972527
-0.968247
-0.968265
-0.963899
-0.963917
-0.959466
-0.959484
-0.954942
-0.95496
-0.950332
-0.95035
-0.945632
-0.94565
-0.940843
-0.940861
-0.935961
-0.935979
-0.930988
-0.931005
-0.925922
-0.92594
-0.920769
-0.920787
-0.915531
-0.915549
-0.910212
-0.910229
-0.90481
-0.904827
-0.899326
-0.899343
-0.893761
-0.893778
-0.888114
-0.888131
-0.882383
-0.8824
-0.876567
-0.876584
-0.870661
-0.870678
-0.864668
-0.864685
-0.858589
-0.858606
-0.852425
-0.852442
-0.846177
-0.846194
-0.839851
-0.839868
-0.833452
-0.833469
-0.826987
-0.827004
-0.820461
-0.820478
-0.813871
-0.813888
-0.807214
-0.807231
-0.800478
-0.800495
-0.793658
-0.793675
-0.786745
-0.786761
-0.779732
-0.779748
-0.772621
-0.772638
-0.76542
-0.765437
-0.758138
-0.758154
-0.750786
-0.750803
-0.743372
-0.743389
-0.735896
-0.735912
-0.728349
-0.728365
-0.720726
-0.720743
-0.713026
-0.713042
-0.705255
-0.705271
-0.697411
-0.697427
-0.689499
-0.689515
-0.681513
-0.681528
-0.673455
-0.673471
-0.665319
-0.665335
-0.657108
-0.657124
-0.648819
-0.648834
-0.640468
-0.640483
-0.632054
-0.632069
-0.623596
-0.623611
-0.615096
-0.61511
-0.606576
-0.60659
-0.59804
-0.598054
-0.589512
-0.589526
-0.580993
-0.581006
-0.572508
-0.572522
-0.564051
-0.564064
-0.555648
-0.555661
-0.547292
-0.547305
-0.539011
-0.539023
-0.530776
-0.530788
-0.522608
-0.522619
-0.514489
-0.514499
-0.506466
-0.506477
-0.498531
-0.49854
-0.49075
-0.49076
-0.483133
-0.483141
-0.475757
-0.475766
-0.468608
-0.468614
-0.461738
-0.461746
-0.455103
-0.455106
-0.448751
-0.448757
-0.442648
-0.442648
-0.436874
-0.436877
-0.431409
-0.431404
-0.426333
-0.426333
-0.421626
-0.421614
-0.417359
-0.417354
-0.41351
-0.413489
-0.410148
-0.410134
-0.407266
-0.407236
-0.404907
-0.404882
-0.403065
-0.403025
-0.4018
-0.401763
-0.401146
-0.401102
-0.00012803
-0.000171368
-0.00012806
-0.000171398
-0.000128248
-0.000171586
-0.000128857
-0.000172195
-0.000130258
-0.000173596
-0.000132958
-0.000176296
-0.000137643
-0.000180981
-0.000145119
-0.000188458
-0.000156316
-0.000199655
-0.000172306
-0.000215644
-0.000194301
-0.000237639
-0.000223662
-0.000267
-0.000261875
-0.000305214
-0.000310573
-0.000353911
-0.000371524
-0.000414863
-0.000446632
-0.000489971
-0.000537925
-0.000581264
-0.000647558
-0.000690898
-0.000777842
-0.000821181
-0.000931181
-0.000974521
-0.00111008
-0.00115342
-0.00131721
-0.00136055
-0.00155537
-0.00159871
-0.00182736
-0.0018707
-0.00213613
-0.00217947
-0.00248483
-0.00252817
-0.00287663
-0.00291997
-0.00331466
-0.003358
-0.00380227
-0.00384561
-0.00434295
-0.00438629
-0.00494017
-0.00498352
-0.00559738
-0.00564072
-0.00631817
-0.00636152
-0.00710633
-0.00714967
-0.00796549
-0.00800884
-0.00889931
-0.00894265
-0.00991162
-0.00995496
-0.0110063
-0.0110497
-0.0121873
-0.0122306
-0.0134581
-0.0135014
-0.0148228
-0.0148661
-0.0162853
-0.0163287
-0.0178496
-0.017893
-0.0195194
-0.0195627
-0.0212986
-0.021342
-0.0231912
-0.0232345
-0.025201
-0.0252444
-0.0273318
-0.0273751
-0.0295874
-0.0296307
-0.0319721
-0.0320155
-0.0344891
-0.0345324
-0.0371412
-0.0371845
-0.0399344
-0.0399778
-0.0428708
-0.0429141
-0.0459536
-0.0459969
-0.049188
-0.0492314
-0.0525756
-0.0526189
-0.0561214
-0.0561648
-0.0598277
-0.0598711
-0.0636974
-0.0637408
-0.0677344
-0.0677778
-0.0719418
-0.0719851
-0.0763231
-0.0763665
-0.0808788
-0.0809221
-0.0856134
-0.0856567
-0.0905306
-0.090574
-0.0956299
-0.0956733
-0.100916
-0.100959
-0.106389
-0.106432
-0.112053
-0.112097
-0.117908
-0.117952
-0.123956
-0.124
-0.1302
-0.130243
-0.136638
-0.136681
-0.143273
-0.143317
-0.150106
-0.15015
-0.157138
-0.157181
-0.164366
-0.164409
-0.171794
-0.171837
-0.179418
-0.179461
-0.18724
-0.187284
-0.195258
-0.195302
-0.203472
-0.203515
-0.211879
-0.211923
-0.220477
-0.220521
-0.229265
-0.229309
-0.238241
-0.238285
-0.247403
-0.247446
-0.256746
-0.25679
-0.266268
-0.266311
-0.275963
-0.276007
-0.285831
-0.285874
-0.295865
-0.295909
-0.306063
-0.306106
-0.316416
-0.316459
-0.326923
-0.326966
-0.337578
-0.337621
-0.348372
-0.348416
-0.359304
-0.359347
-0.370363
-0.370407
-0.381547
-0.38159
-0.392848
-0.392892
-0.404257
-0.4043
-0.415768
-0.415812
-0.427375
-0.427419
-0.439069
-0.439113
-0.450844
-0.450887
-0.46269
-0.462734
-0.4746
-0.474644
-0.486568
-0.486612
-0.498582
-0.498626
-0.510637
-0.51068
-0.522723
-0.522767
-0.534832
-0.534875
-0.546956
-0.547
-0.559085
-0.559129
-0.571213
-0.571257
-0.58333
-0.583374
-0.595429
-0.595473
-0.6075
-0.607544
-0.619534
-0.619578
-0.631526
-0.63157
-0.643465
-0.643509
-0.655346
-0.65539
-0.667158
-0.667201
-0.678895
-0.678938
-0.690549
-0.690593
-0.702112
-0.702155
-0.713578
-0.713622
-0.724939
-0.724983
-0.736188
-0.736231
-0.747318
-0.747361
-0.758323
-0.758367
-0.769196
-0.769239
-0.779929
-0.779973
-0.790519
-0.790562
-0.800958
-0.801001
-0.81124
-0.811283
-0.82136
-0.821404
-0.831313
-0.831356
-0.841092
-0.841136
-0.850693
-0.850737
-0.860113
-0.860157
-0.869347
-0.86939
-0.878389
-0.878433
-0.887237
-0.88728
-0.895888
-0.895932
-0.904337
-0.90438
-0.912584
-0.912628
-0.920623
-0.920666
-0.928456
-0.9285
-0.936076
-0.936119
-0.943486
-0.94353
-0.950679
-0.950722
-0.957659
-0.957704
-0.964419
-0.964462
-0.970965
-0.97101
-0.977288
-0.97733
-0.983396
-0.983441
-0.989279
-0.989321
-0.994948
-0.994993
-1.00039
-1.00043
-1.00562
-1.00567
-1.01062
-1.01066
-1.01541
-1.01546
-1.01997
-1.02001
-1.02433
-1.02438
-1.02846
-1.02849
-1.03239
-1.03244
-1.03608
-1.03611
-1.03958
-1.03964
-1.04285
-1.04287
-1.04594
-1.046
-1.04878
-1.0488
-1.05146
-1.05153
-1.05389
-1.0539
-1.05618
-1.05627
-1.05821
-1.05821
-1.06012
-1.06022
-1.06177
-1.06174
-1.06331
-1.06344
-1.06459
-1.06452
-1.06578
-1.06596
-1.06671
-1.06658
-1.06756
-1.06781
-1.06816
-1.06815
-1.06868
-1.06902
-1.06898
-1.0692
-1.06917
-1.06962
-1.06918
-1.06964
-1.06905
-1.06929
-1.06879
-1.06914
-1.06835
-1.06838
-1.06782
-1.06809
-1.06709
-1.06699
-1.06631
-1.06651
-1.06531
-1.06526
-1.06427
-1.06442
-1.06302
-1.06301
-1.06174
-1.06186
-1.06026
-1.06028
-1.05874
-1.05885
-1.05705
-1.05708
-1.0553
-1.0554
-1.0534
-1.05344
-1.05144
-1.05152
-1.04933
-1.04938
-1.04716
-1.04724
-1.04486
-1.04492
-1.0425
-1.04257
-1.04001
-1.04007
-1.03746
-1.03753
-1.0348
-1.03486
-1.03207
-1.03214
-1.02924
-1.0293
-1.02634
-1.02641
-1.02335
-1.02341
-1.02029
-1.02036
-1.01713
-1.0172
-1.01391
-1.01398
-1.01059
-1.01066
-1.00719
-1.00726
-1.0037
-1.00377
-1.00013
-1.0002
-0.996454
-0.996524
-0.992696
-0.992767
-0.988844
-0.988915
-0.984911
-0.984982
-0.980891
-0.980964
-0.976793
-0.976866
-0.972613
-0.972686
-0.96835
-0.968424
-0.964002
-0.964076
-0.959568
-0.959643
-0.955045
-0.95512
-0.950434
-0.95051
-0.945734
-0.94581
-0.940945
-0.941022
-0.936062
-0.93614
-0.931088
-0.931166
-0.926023
-0.926101
-0.920869
-0.920949
-0.915631
-0.915711
-0.910311
-0.910392
-0.904909
-0.90499
-0.899424
-0.899507
-0.893859
-0.893942
-0.888211
-0.888295
-0.88248
-0.882565
-0.876663
-0.876749
-0.870758
-0.870844
-0.864764
-0.864851
-0.858685
-0.858773
-0.85252
-0.852609
-0.846272
-0.846362
-0.839944
-0.840035
-0.833546
-0.833638
-0.82708
-0.827173
-0.820554
-0.820648
-0.813962
-0.814057
-0.807306
-0.807403
-0.800568
-0.800665
-0.793749
-0.793848
-0.786833
-0.786933
-0.779822
-0.779923
-0.772707
-0.77281
-0.765509
-0.765613
-0.758222
-0.758327
-0.750875
-0.750982
-0.743454
-0.743563
-0.735983
-0.736095
-0.728427
-0.728541
-0.720812
-0.720929
-0.713101
-0.713219
-0.70534
-0.705461
-0.697481
-0.697605
-0.689582
-0.68971
-0.681577
-0.681707
-0.673538
-0.673671
-0.665378
-0.665514
-0.657191
-0.657331
-0.648871
-0.649014
-0.640551
-0.640698
-0.632098
-0.632247
-0.62368
-0.623835
-0.61513
-0.615286
-0.606663
-0.606824
-0.598064
-0.598226
-0.589604
-0.589772
-0.581005
-0.581172
-0.572607
-0.572782
-0.564048
-0.564221
-0.555755
-0.555938
-0.547272
-0.547449
-0.53913
-0.539323
-0.530734
-0.530917
-0.522742
-0.522946
-0.51442
-0.514608
-0.50662
-0.506838
-0.49843
-0.498622
-0.490928
-0.491164
-0.482993
-0.483186
-0.475965
-0.476225
-0.46842
-0.468612
-0.461982
-0.462276
-0.454858
-0.455042
-0.449036
-0.449381
-0.442336
-0.4425
-0.437199
-0.437628
-0.431024
-0.43114
-0.426692
-0.427263
-0.421173
-0.421183
-0.417726
-0.41854
-0.413014
-0.412803
-0.410464
-0.411085
-0.406781
-0.406183
-0.405097
-0.40499
-0.402657
-0.401498
-0.401799
-0.400864
-0.400898
-0.398992
-0.401146
-0.401103
-0.401799
-0.401763
-0.403065
-0.403025
-0.404907
-0.404882
-0.407266
-0.407236
-0.410147
-0.410132
-0.413511
-0.41349
-0.417358
-0.417352
-0.421625
-0.421612
-0.426334
-0.426333
-0.43141
-0.431404
-0.436874
-0.436877
-0.442649
-0.442649
-0.448753
-0.448759
-0.455105
-0.455108
-0.461738
-0.461745
-0.468607
-0.468612
-0.475757
-0.475765
-0.483131
-0.483139
-0.490752
-0.490762
-0.498531
-0.49854
-0.506467
-0.506477
-0.514488
-0.514498
-0.522605
-0.522616
-0.530774
-0.530785
-0.539013
-0.539025
-0.54729
-0.547302
-0.555649
-0.555662
-0.564051
-0.564063
-0.572505
-0.572518
-0.580995
-0.581007
-0.589513
-0.589526
-0.598044
-0.598057
-0.606576
-0.606589
-0.615101
-0.615115
-0.623594
-0.623608
-0.632052
-0.632066
-0.640467
-0.640482
-0.648816
-0.648831
-0.65711
-0.657125
-0.665319
-0.665333
-0.673456
-0.67347
-0.681513
-0.681528
-0.6895
-0.689515
-0.69741
-0.697425
-0.705257
-0.705272
-0.713025
-0.71304
-0.720725
-0.72074
-0.728347
-0.728362
-0.735896
-0.735911
-0.743369
-0.743385
-0.75079
-0.750805
-0.758138
-0.758154
-0.765416
-0.765431
-0.772621
-0.772637
-0.779731
-0.779747
-0.786747
-0.786763
-0.793658
-0.793673
-0.800476
-0.800491
-0.807211
-0.807226
-0.813877
-0.813892
-0.820462
-0.820477
-0.826991
-0.827006
-0.833454
-0.833469
-0.839855
-0.83987
-0.846176
-0.846191
-0.852421
-0.852436
-0.858593
-0.858608
-0.86467
-0.864685
-0.870668
-0.870682
-0.876565
-0.87658
-0.88238
-0.882394
-0.888114
-0.888129
-0.893757
-0.893772
-0.899323
-0.899338
-0.904809
-0.904823
-0.910215
-0.910229
-0.915537
-0.915551
-0.920777
-0.920791
-0.925928
-0.925942
-0.93099
-0.931004
-0.935965
-0.935979
-0.940843
-0.940858
-0.945632
-0.945646
-0.950337
-0.950351
-0.954942
-0.954956
-0.959463
-0.959477
-0.963904
-0.963917
-0.96825
-0.968264
-0.972506
-0.972519
-0.976691
-0.976705
-0.980788
-0.980802
-0.984805
-0.984819
-0.988739
-0.988753
-0.992599
-0.992613
-0.996356
-0.996369
-1.00002
-1.00004
-1.0036
-1.00361
-1.00709
-1.0071
-1.01048
-1.0105
-1.0138
-1.01382
-1.01703
-1.01704
-1.02019
-1.0202
-1.02325
-1.02326
-1.02624
-1.02626
-1.02914
-1.02915
-1.03197
-1.03198
-1.0347
-1.03471
-1.03736
-1.03738
-1.0399
-1.03991
-1.04239
-1.04241
-1.04476
-1.04476
-1.04706
-1.04708
-1.04922
-1.04922
-1.05133
-1.05136
-1.05329
-1.05328
-1.0552
-1.05524
-1.05694
-1.05692
-1.05864
-1.05869
-1.06016
-1.06012
-1.06164
-1.06171
-1.06292
-1.06286
-1.06416
-1.06427
-1.0652
-1.0651
-1.0662
-1.06635
-1.06699
-1.06684
-1.06772
-1.06793
-1.06824
-1.06822
-1.06868
-1.06899
-1.06894
-1.06914
-1.06907
-1.06949
-1.06906
-1.06947
-1.06887
-1.06905
-1.06857
-1.06886
-1.06805
-1.06799
-1.06745
-1.06765
-1.0666
-1.06643
-1.06567
-1.0658
-1.06448
-1.06436
-1.0632
-1.06329
-1.06166
-1.06158
-1.06001
-1.06007
-1.05811
-1.05805
-1.05608
-1.05611
-1.05378
-1.05374
-1.05135
-1.05137
-1.04867
-1.04864
-1.04583
-1.04585
-1.04275
-1.04273
-1.03948
-1.03948
-1.03598
-1.03596
-1.03228
-1.03228
-1.02834
-1.02833
-1.02422
-1.02422
-1.01986
-1.01985
-1.01531
-1.01531
-1.0105
-1.01049
-1.0055
-1.0055
-1.00027
-1.00027
-0.994828
-0.994823
-0.989188
-0.989179
-0.983293
-0.983288
-0.977169
-0.977161
-0.970875
-0.970869
-0.964311
-0.964304
-0.957536
-0.95753
-0.950593
-0.950586
-0.943394
-0.943388
-0.935981
-0.935974
-0.92837
-0.928364
-0.920492
-0.920485
-0.912488
-0.912481
-0.904219
-0.904212
-0.895774
-0.895767
-0.887135
-0.887128
-0.878263
-0.878257
-0.869201
-0.869194
-0.860001
-0.859994
-0.85062
-0.850614
-0.840949
-0.840943
-0.831194
-0.831188
-0.821248
-0.821242
-0.811148
-0.811142
-0.800867
-0.800861
-0.790453
-0.790446
-0.779867
-0.779861
-0.769062
-0.769056
-0.758204
-0.758198
-0.747259
-0.747253
-0.736052
-0.736046
-0.724777
-0.724771
-0.713489
-0.713483
-0.702042
-0.702036
-0.690474
-0.690467
-0.67876
-0.678754
-0.667077
-0.667071
-0.655268
-0.655262
-0.643379
-0.643373
-0.631374
-0.631368
-0.619462
-0.619455
-0.607446
-0.607439
-0.59526
-0.595254
-0.583283
-0.583277
-0.571161
-0.571155
-0.558963
-0.558956
-0.54679
-0.546784
-0.534728
-0.534721
-0.522547
-0.522541
-0.510509
-0.510503
-0.498528
-0.498522
-0.486388
-0.486382
-0.474488
-0.474482
-0.462623
-0.462617
-0.450674
-0.450668
-0.438958
-0.438952
-0.42735
-0.427344
-0.415645
-0.415639
-0.404064
-0.404058
-0.392768
-0.392762
-0.38143
-0.381423
-0.370222
-0.370216
-0.359161
-0.359155
-0.348262
-0.348256
-0.337513
-0.337507
-0.326771
-0.326764
-0.316371
-0.316365
-0.305994
-0.305988
-0.295795
-0.295789
-0.28581
-0.285804
-0.275838
-0.275832
-0.266091
-0.266085
-0.256553
-0.256547
-0.247252
-0.247246
-0.238168
-0.238162
-0.229151
-0.229145
-0.220361
-0.220355
-0.211825
-0.211818
-0.203347
-0.203341
-0.195131
-0.195125
-0.187152
-0.187146
-0.179273
-0.179267
-0.171632
-0.171626
-0.164268
-0.164262
-0.156974
-0.156968
-0.149967
-0.149961
-0.143186
-0.14318
-0.136544
-0.136538
-0.130116
-0.13011
-0.123843
-0.123837
-0.117775
-0.117769
-0.112022
-0.112016
-0.106309
-0.106303
-0.100785
-0.100779
-0.0955656
-0.0955595
-0.0904136
-0.0904076
-0.0855455
-0.0855394
-0.0807539
-0.0807478
-0.0762409
-0.0762348
-0.0717958
-0.0717897
-0.0676396
-0.0676335
-0.0636435
-0.0636374
-0.0597225
-0.0597165
-0.0560454
-0.0560393
-0.0524671
-0.0524611
-0.0491048
-0.0490987
-0.0458523
-0.0458462
-0.0427974
-0.0427913
-0.0398538
-0.0398477
-0.0370052
-0.0369992
-0.0343603
-0.0343542
-0.0318848
-0.0318787
-0.0295211
-0.0295151
-0.0272329
-0.0272268
-0.0250644
-0.0250583
-0.0231075
-0.0231014
-0.0211935
-0.0211874
-0.0194123
-0.0194062
-0.0177336
-0.0177275
-0.016186
-0.0161799
-0.0147223
-0.0147162
-0.0133392
-0.0133332
-0.012075
-0.0120689
-0.0108965
-0.0108905
-0.00981429
-0.00980822
-0.00877885
-0.00877278
-0.00786539
-0.00785931
-0.00699787
-0.0069918
-0.00620515
-0.00619908
-0.00548676
-0.00548069
-0.00483693
-0.00483086
-0.0042486
-0.00424253
-0.00369894
-0.00369287
-0.00320412
-0.00319805
-0.00276809
-0.00276202
-0.00237657
-0.00237051
-0.00202083
-0.00201476
-0.00171805
-0.00171198
-0.00144589
-0.00143981
-0.00120591
-0.00119983
-0.00100281
-0.000996734
-0.000826233
-0.000820162
-0.000671004
-0.00066493
-0.000538968
-0.000532893
-0.000430735
-0.000424662
-0.000340345
-0.000334274
-0.000263892
-0.000257818
-0.000202013
-0.000195935
-0.000153896
-0.000147822
-0.00011609
-0.000110019
-8.62033e-05
-8.01293e-05
-6.39387e-05
-5.78621e-05
-4.81965e-05
-4.21229e-05
-3.71579e-05
-3.10859e-05
-2.95827e-05
-2.35084e-05
-2.48611e-05
-1.87869e-05
-2.21998e-05
-1.61269e-05
-2.08215e-05
-1.4749e-05
-2.02015e-05
-1.41229e-05
-2.0003e-05
-1.3911e-05
-1.99702e-05
-1.38613e-05
-0.400898
-0.398992
-0.401799
-0.400864
-0.402656
-0.401498
-0.405097
-0.40499
-0.406781
-0.406184
-0.410463
-0.411087
-0.413015
-0.412805
-0.417724
-0.418536
-0.421171
-0.421181
-0.426691
-0.427261
-0.431025
-0.43114
-0.437198
-0.437627
-0.442337
-0.4425
-0.449036
-0.449381
-0.454859
-0.455043
-0.461981
-0.462274
-0.468418
-0.46861
-0.475964
-0.476223
-0.48299
-0.483184
-0.490929
-0.491165
-0.498429
-0.498621
-0.506619
-0.506837
-0.514419
-0.514606
-0.522738
-0.522942
-0.530731
-0.530914
-0.539131
-0.539324
-0.547269
-0.547446
-0.555756
-0.555939
-0.564047
-0.56422
-0.572602
-0.572778
-0.581005
-0.581173
-0.589603
-0.589772
-0.598067
-0.598229
-0.606662
-0.606823
-0.615134
-0.615291
-0.623677
-0.623832
-0.632095
-0.632244
-0.640549
-0.640697
-0.648866
-0.64901
-0.657191
-0.657332
-0.665376
-0.665513
-0.673537
-0.673671
-0.681576
-0.681707
-0.689583
-0.68971
-0.697478
-0.697603
-0.70534
-0.705462
-0.713097
-0.713217
-0.720809
-0.720926
-0.728423
-0.728538
-0.735981
-0.736094
-0.743449
-0.743559
-0.750876
-0.750985
-0.758221
-0.758327
-0.765504
-0.765609
-0.772706
-0.772809
-0.77982
-0.779922
-0.786833
-0.786934
-0.793747
-0.793847
-0.800564
-0.800662
-0.807301
-0.807399
-0.813966
-0.814062
-0.820553
-0.820648
-0.827081
-0.827176
-0.833546
-0.833639
-0.839946
-0.840039
-0.846268
-0.84636
-0.852513
-0.852603
-0.858686
-0.858776
-0.864763
-0.864852
-0.870761
-0.87085
-0.876659
-0.876746
-0.882474
-0.882561
-0.888209
-0.888295
-0.893852
-0.893938
-0.899418
-0.899503
-0.904904
-0.904988
-0.91031
-0.910394
-0.915633
-0.915716
-0.920873
-0.920955
-0.926024
-0.926106
-0.931087
-0.931168
-0.936062
-0.936142
-0.940941
-0.941021
-0.94573
-0.945809
-0.950435
-0.950514
-0.955039
-0.955118
-0.959561
-0.959639
-0.964002
-0.96408
-0.968348
-0.968426
-0.972604
-0.972681
-0.97679
-0.976867
-0.980887
-0.980963
-0.984904
-0.98498
-0.988838
-0.988914
-0.992698
-0.992774
-0.996455
-0.99653
-1.00012
-1.0002
-1.0037
-1.00378
-1.00719
-1.00727
-1.01058
-1.01066
-1.0139
-1.01398
-1.01713
-1.01721
-1.02029
-1.02036
-1.02335
-1.02342
-1.02635
-1.02642
-1.02923
-1.02931
-1.03207
-1.03214
-1.03479
-1.03487
-1.03746
-1.03753
-1.04
-1.04008
-1.0425
-1.04257
-1.04485
-1.04493
-1.04717
-1.04723
-1.04931
-1.0494
-1.05145
-1.05151
-1.05337
-1.05346
-1.05533
-1.05537
-1.05701
-1.05712
-1.05878
-1.05881
-1.06021
-1.06033
-1.0618
-1.06181
-1.06294
-1.06309
-1.06436
-1.06433
-1.06519
-1.06537
-1.06644
-1.06637
-1.06693
-1.06716
-1.06802
-1.06789
-1.06831
-1.06842
-1.06908
-1.06885
-1.06922
-1.06912
-1.06958
-1.06925
-1.06955
-1.06923
-1.06913
-1.06904
-1.06895
-1.06875
-1.06808
-1.06823
-1.06774
-1.06762
-1.06652
-1.06677
-1.06589
-1.06584
-1.06445
-1.06465
-1.06338
-1.06337
-1.06167
-1.06183
-1.06015
-1.06018
-1.05814
-1.05828
-1.0562
-1.05625
-1.05383
-1.05395
-1.05146
-1.05152
-1.04873
-1.04884
-1.04594
-1.04601
-1.04281
-1.04292
-1.03957
-1.03965
-1.03605
-1.03615
-1.03237
-1.03245
-1.02842
-1.02851
-1.02431
-1.02439
-1.01993
-1.02003
-1.0154
-1.01548
-1.01058
-1.01067
-1.00559
-1.00568
-1.00035
-1.00045
-0.994912
-0.994999
-0.989268
-0.989359
-0.983377
-0.983464
-0.97725
-0.97734
-0.970958
-0.971046
-0.964393
-0.964482
-0.957619
-0.957707
-0.950675
-0.950764
-0.943477
-0.943565
-0.936063
-0.936152
-0.928453
-0.928541
-0.920574
-0.920663
-0.91257
-0.912659
-0.904301
-0.90439
-0.895857
-0.895945
-0.887217
-0.887306
-0.878346
-0.878434
-0.869284
-0.869372
-0.860084
-0.860172
-0.850703
-0.850791
-0.841032
-0.84112
-0.831277
-0.831365
-0.821331
-0.821419
-0.811231
-0.811319
-0.80095
-0.801038
-0.790536
-0.790624
-0.77995
-0.780038
-0.769145
-0.769233
-0.758287
-0.758375
-0.747342
-0.74743
-0.736135
-0.736223
-0.72486
-0.724948
-0.713573
-0.71366
-0.702125
-0.702213
-0.690557
-0.690644
-0.678844
-0.678931
-0.66716
-0.667248
-0.655351
-0.655439
-0.643462
-0.64355
-0.631457
-0.631545
-0.619545
-0.619633
-0.607529
-0.607617
-0.595344
-0.595431
-0.583366
-0.583454
-0.571244
-0.571332
-0.559046
-0.559133
-0.546874
-0.546961
-0.534811
-0.534898
-0.52263
-0.522718
-0.510592
-0.51068
-0.498612
-0.498699
-0.486471
-0.486559
-0.474571
-0.474659
-0.462707
-0.462794
-0.450758
-0.450845
-0.439041
-0.439129
-0.427434
-0.427521
-0.415729
-0.415816
-0.404147
-0.404235
-0.392852
-0.392939
-0.381513
-0.3816
-0.370306
-0.370393
-0.359244
-0.359332
-0.348346
-0.348433
-0.337597
-0.337684
-0.326854
-0.326941
-0.316455
-0.316542
-0.306078
-0.306165
-0.295878
-0.295966
-0.285894
-0.285981
-0.275922
-0.276009
-0.266174
-0.266261
-0.256637
-0.256724
-0.247336
-0.247423
-0.238252
-0.238339
-0.229235
-0.229322
-0.220445
-0.220532
-0.211908
-0.211995
-0.20343
-0.203518
-0.195215
-0.195302
-0.187236
-0.187323
-0.179357
-0.179444
-0.171716
-0.171803
-0.164351
-0.164438
-0.157058
-0.157145
-0.150051
-0.150138
-0.143269
-0.143357
-0.136628
-0.136715
-0.1302
-0.130287
-0.123927
-0.124014
-0.117859
-0.117946
-0.112105
-0.112192
-0.106393
-0.10648
-0.100868
-0.100955
-0.0956492
-0.0957362
-0.0904972
-0.0905842
-0.0856291
-0.0857161
-0.0808375
-0.0809245
-0.0763245
-0.0764115
-0.0718794
-0.0719664
-0.0677232
-0.0678102
-0.0637271
-0.063814
-0.0598061
-0.0598931
-0.056129
-0.0562159
-0.0525508
-0.0526377
-0.0491884
-0.0492753
-0.0459359
-0.0460229
-0.042881
-0.0429679
-0.0399374
-0.0400243
-0.0370889
-0.0371758
-0.0344439
-0.0345308
-0.0319684
-0.0320554
-0.0296048
-0.0296917
-0.0273165
-0.0274034
-0.025148
-0.0252349
-0.0231911
-0.023278
-0.0212771
-0.0213641
-0.0194959
-0.0195828
-0.0178172
-0.0179042
-0.0162696
-0.0163565
-0.0148059
-0.0148928
-0.0134229
-0.0135098
-0.0121586
-0.0122455
-0.0109802
-0.0110671
-0.00989792
-0.00998484
-0.00886248
-0.0089494
-0.00794902
-0.00803595
-0.00708151
-0.00716843
-0.00628879
-0.0063757
-0.0055704
-0.00565731
-0.00492057
-0.00500748
-0.00433224
-0.00441914
-0.00378258
-0.00386949
-0.00328776
-0.00337468
-0.00285173
-0.00293864
-0.00246021
-0.00254711
-0.00210447
-0.00219137
-0.00180168
-0.0018886
-0.00152952
-0.00161643
-0.00128954
-0.00137645
-0.00108644
-0.00117336
-0.000909872
-0.000996778
-0.000754641
-0.00084155
-0.000622604
-0.000709516
-0.000514373
-0.000601282
-0.000423984
-0.000510889
-0.000347529
-0.000434435
-0.000285648
-0.000372558
-0.000237533
-0.000324441
-0.000199729
-0.000286634
-0.000169841
-0.000256746
-0.000147575
-0.000234482
-0.000131834
-0.000218741
-0.000120796
-0.000207701
-0.00011322
-0.000200125
-0.000108497
-0.000195403
-0.000105836
-0.00019274
-0.000104458
-0.000191362
-0.000103838
-0.000190742
-0.00010364
-0.000190544
-0.000103607
-0.000190513
)
;

boundaryField
{
    walls
    {
        type            zeroGradient;
    }
    inlet
    {
        type            cyclic;
    }
    outlet
    {
        type            cyclic;
    }
    sides
    {
        type            empty;
    }
}


// ************************************************************************* //
