/*--------------------------------*- C++ -*----------------------------------*\
| =========                 |                                                 |
| \\      /  F ield         | OpenFOAM: The Open Source CFD Toolbox           |
|  \\    /   O peration     | Version:  2012                                  |
|   \\  /    A nd           | Website:  www.openfoam.com                      |
|    \\/     M anipulation  |                                                 |
\*---------------------------------------------------------------------------*/
FoamFile
{
    version     2.0;
    format      ascii;
    class       volVectorField;
    location    "11000";
    object      U;
}
// * * * * * * * * * * * * * * * * * * * * * * * * * * * * * * * * * * * * * //

dimensions      [0 1 -1 0 0 0 0];


internalField   nonuniform List<vector> 
2560
(
(0.0533822 -3.81388e-09 6.28594e-08)
(0.0533822 8.95614e-09 1.02548e-07)
(0.160721 3.17327e-09 9.6544e-08)
(0.160721 2.59706e-08 1.57455e-07)
(0.26941 2.99079e-08 9.71683e-08)
(0.26941 3.74564e-08 1.58275e-07)
(0.379457 2.78812e-08 9.04212e-08)
(0.379457 3.2236e-08 1.46741e-07)
(0.490864 4.0091e-09 7.21932e-08)
(0.490863 9.49481e-09 1.16209e-07)
(0.603628 -1.7676e-08 5.10065e-08)
(0.603628 -1.11744e-08 8.08886e-08)
(0.71775 -2.15787e-08 3.60146e-08)
(0.71775 -1.48022e-08 5.57714e-08)
(0.833236 -1.71036e-08 2.75278e-08)
(0.833236 -1.03064e-08 4.12371e-08)
(0.9501 -1.45872e-08 2.31794e-08)
(0.9501 -7.57978e-09 3.3323e-08)
(1.06837 -1.18172e-08 2.1279e-08)
(1.06837 -4.73119e-09 2.92162e-08)
(1.18808 -1.07264e-08 2.09311e-08)
(1.18808 -3.54835e-09 2.74207e-08)
(1.30928 -9.79082e-09 2.16914e-08)
(1.30928 -2.54565e-09 2.71801e-08)
(1.43201 -8.96289e-09 2.33421e-08)
(1.43201 -1.65399e-09 2.81078e-08)
(1.55636 -8.67107e-09 2.57856e-08)
(1.55636 -1.30936e-09 2.80003e-08)
(1.68238 -8.23236e-09 2.41331e-08)
(1.68238 -8.18977e-10 2.52411e-08)
(1.81015 -8.25089e-09 2.20548e-08)
(1.81015 -7.92484e-10 2.30675e-08)
(1.93975 -7.82651e-09 2.03863e-08)
(1.93975 -3.26441e-10 2.13223e-08)
(2.07128 -7.72514e-09 1.93652e-08)
(2.07128 -1.83096e-10 1.98992e-08)
(2.20481 -7.92768e-09 2.14459e-08)
(2.20481 -3.49177e-10 2.1446e-08)
(2.34045 -7.76115e-09 2.37101e-08)
(2.34045 -1.44523e-10 2.37102e-08)
(2.47827 -7.41774e-09 2.61746e-08)
(2.47827 2.32481e-10 2.61747e-08)
(2.61837 -7.67266e-09 2.88511e-08)
(2.61837 1.33205e-11 2.88512e-08)
(2.76083 -8.11573e-09 3.17402e-08)
(2.76083 -3.97605e-10 3.17402e-08)
(2.90574 -7.34663e-09 3.48596e-08)
(2.90574 4.04509e-10 3.48596e-08)
(3.05316 -7.58002e-09 3.82324e-08)
(3.05316 2.02993e-10 3.82324e-08)
(3.20317 -7.86763e-09 4.18651e-08)
(3.20317 -5.28466e-11 4.18652e-08)
(3.35581 -8.31024e-09 4.57617e-08)
(3.35581 -4.63581e-10 4.57618e-08)
(3.51112 -7.2427e-09 4.995e-08)
(3.51112 6.33387e-10 4.99501e-08)
(3.66915 -7.9955e-09 5.44545e-08)
(3.66915 -8.71431e-11 5.44546e-08)
(3.82989 -7.92966e-09 5.92832e-08)
(3.82989 9.84413e-12 5.92833e-08)
(3.99335 -8.63726e-09 6.44459e-08)
(3.99335 -6.67606e-10 6.4446e-08)
(4.15951 -7.38189e-09 6.99746e-08)
(4.15951 6.19075e-10 6.99746e-08)
(4.32831 -8.30006e-09 7.59e-08)
(4.32831 -2.68377e-10 7.59001e-08)
(4.49969 -8.42892e-09 8.22285e-08)
(4.49969 -3.64132e-10 8.22286e-08)
(4.67356 -8.61514e-09 8.89811e-08)
(4.67356 -5.20661e-10 8.89812e-08)
(4.84981 -7.80019e-09 9.61982e-08)
(4.84981 3.27943e-10 9.61983e-08)
(5.02829 -8.55426e-09 1.03912e-07)
(5.02829 -3.94897e-10 1.03912e-07)
(5.20883 -8.88894e-09 1.12135e-07)
(5.20883 -6.95247e-10 1.12135e-07)
(5.39125 -8.85011e-09 1.20894e-07)
(5.39125 -6.24062e-10 1.20894e-07)
(5.5753 -8.33565e-09 1.30238e-07)
(5.5753 -7.45107e-11 1.30238e-07)
(5.76074 -8.53664e-09 1.40211e-07)
(5.76074 -2.41984e-10 1.40211e-07)
(5.94727 -9.42306e-09 1.50833e-07)
(5.94727 -1.09199e-09 1.50833e-07)
(6.13459 -9.34238e-09 1.62129e-07)
(6.13459 -9.74802e-10 1.62129e-07)
(6.32233 -8.17796e-09 1.74172e-07)
(6.32233 2.24897e-10 1.74172e-07)
(6.51014 -1.01719e-08 1.86992e-07)
(6.51014 -1.7293e-09 1.86992e-07)
(6.6976 -8.21237e-09 2.00639e-07)
(6.6976 2.67696e-10 2.00639e-07)
(6.88429 -1.13877e-08 2.15139e-07)
(6.88429 -2.8665e-09 2.15139e-07)
(7.06973 -7.2106e-09 2.30568e-07)
(7.06973 1.34945e-09 2.30568e-07)
(7.25345 -9.67652e-09 2.47025e-07)
(7.25345 -1.07205e-09 2.47025e-07)
(7.43494 -1.31145e-08 2.64431e-07)
(7.43494 -4.47009e-09 2.64431e-07)
(7.61366 -1.02473e-08 2.82828e-07)
(7.61366 -1.55267e-09 2.82828e-07)
(7.78907 4.81228e-10 3.02601e-07)
(7.78907 9.2107e-09 3.02601e-07)
(7.9606 -2.85617e-08 3.23381e-07)
(7.9606 -1.97655e-08 3.23381e-07)
(8.12768 6.76636e-09 3.45361e-07)
(8.12768 1.55848e-08 3.45362e-07)
(8.28971 -2.07621e-08 3.6881e-07)
(8.28971 -1.18746e-08 3.6881e-07)
(8.4461 -1.0034e-08 3.93352e-07)
(8.4461 -1.09388e-09 3.93352e-07)
(8.59626 -4.16417e-09 4.19458e-07)
(8.59626 4.81502e-09 4.19459e-07)
(8.73958 -2.42313e-08 4.46814e-07)
(8.73958 -1.51781e-08 4.46815e-07)
(8.8755 -7.71938e-10 4.75528e-07)
(8.8755 8.31855e-09 4.75529e-07)
(9.00343 -1.99961e-08 5.05748e-07)
(9.00343 -1.0829e-08 5.05748e-07)
(9.12282 -5.30663e-09 5.37361e-07)
(9.12282 3.91046e-09 5.37361e-07)
(9.23316 -1.77061e-08 5.70437e-07)
(9.23316 -8.42369e-09 5.70437e-07)
(9.33393 -2.16928e-08 6.04497e-07)
(9.33393 -1.23273e-08 6.04498e-07)
(9.4247 2.75e-09 6.40076e-07)
(9.4247 1.21413e-08 6.40076e-07)
(9.50504 -2.71983e-08 6.76997e-07)
(9.50504 -1.76923e-08 6.76997e-07)
(9.57459 -1.84764e-08 7.14569e-07)
(9.57459 -8.92486e-09 7.14569e-07)
(9.63306 -2.57048e-09 7.53439e-07)
(9.63306 7.06503e-09 7.53439e-07)
(9.68021 -4.12775e-08 7.92864e-07)
(9.68021 -3.15586e-08 7.92864e-07)
(9.71586 1.97045e-08 8.33419e-07)
(9.71586 2.94721e-08 8.33419e-07)
(9.73994 -7.00792e-08 8.74179e-07)
(9.73994 -6.01745e-08 8.7418e-07)
(9.75242 3.50095e-08 9.15498e-07)
(9.75242 4.49253e-08 9.15498e-07)
(9.75337 -7.1786e-08 9.57325e-07)
(9.75337 -6.17092e-08 9.57326e-07)
(9.74294 2.26117e-08 9.99183e-07)
(9.74294 3.27139e-08 9.99183e-07)
(9.72136 -5.84214e-08 1.04154e-06)
(9.72136 -4.81803e-08 1.04154e-06)
(9.68894 8.73584e-09 1.08394e-06)
(9.68894 1.90361e-08 1.08394e-06)
(9.64605 -5.00362e-08 1.12672e-06)
(9.64605 -3.96209e-08 1.12672e-06)
(9.59314 -8.85652e-09 1.16935e-06)
(9.59314 1.64985e-09 1.16935e-06)
(9.53072 -2.82812e-08 1.21268e-06)
(9.53072 -1.76777e-08 1.21268e-06)
(9.45935 -3.28762e-08 1.256e-06)
(9.45935 -2.21544e-08 1.256e-06)
(9.37963 -6.81398e-09 1.30018e-06)
(9.37963 3.9785e-09 1.30018e-06)
(9.2922 -5.83341e-08 1.34449e-06)
(9.2922 -4.73822e-08 1.34449e-06)
(9.19772 1.1037e-08 1.38967e-06)
(9.19772 2.20347e-08 1.38967e-06)
(9.09685 -6.4568e-08 1.43571e-06)
(9.09685 -5.33947e-08 1.43571e-06)
(8.99028 2.85334e-10 1.48231e-06)
(8.99028 1.15224e-08 1.48231e-06)
(8.87866 -4.95163e-08 1.5302e-06)
(8.87866 -3.81233e-08 1.5302e-06)
(8.76266 -6.5231e-09 1.57927e-06)
(8.76266 4.96042e-09 1.57927e-06)
(8.64292 -5.42429e-08 1.62947e-06)
(8.64292 -4.26075e-08 1.62947e-06)
(8.52001 -3.84222e-09 1.68102e-06)
(8.52001 7.88903e-09 1.68102e-06)
(8.39453 -5.96532e-08 1.73383e-06)
(8.39453 -4.77577e-08 1.73383e-06)
(8.267 -5.88511e-09 1.78789e-06)
(8.267 6.10943e-09 1.78789e-06)
(8.13793 -4.57262e-08 1.84391e-06)
(8.13793 -3.35647e-08 1.84391e-06)
(8.00777 -2.23782e-08 1.90127e-06)
(8.00777 -1.00959e-08 1.90127e-06)
(7.87694 -3.83609e-08 1.96037e-06)
(7.87694 -2.59259e-08 1.96037e-06)
(7.74581 -3.92637e-08 2.02053e-06)
(7.74581 -2.66657e-08 2.02053e-06)
(7.61472 -8.82357e-09 2.08311e-06)
(7.61472 3.89234e-09 2.08311e-06)
(7.48399 -6.40539e-08 2.14711e-06)
(7.48399 -5.11353e-08 2.14711e-06)
(7.35385 -1.56524e-08 2.21221e-06)
(7.35385 -2.6071e-09 2.21221e-06)
(7.22456 -3.66258e-08 2.27974e-06)
(7.22456 -2.33849e-08 2.27974e-06)
(7.09632 -4.71754e-08 2.34827e-06)
(7.09632 -3.37705e-08 2.34827e-06)
(6.96929 -1.33259e-08 2.41891e-06)
(6.96929 2.52089e-10 2.41891e-06)
(6.84362 -5.62091e-08 2.49129e-06)
(6.84362 -4.24316e-08 2.4913e-06)
(6.71945 -3.36014e-08 2.56442e-06)
(6.71945 -1.96354e-08 2.56442e-06)
(6.59686 -2.92076e-08 2.63962e-06)
(6.59686 -1.50417e-08 2.63962e-06)
(6.47596 -4.46534e-08 2.71639e-06)
(6.47596 -3.02869e-08 2.71639e-06)
(6.35681 -3.84293e-08 2.79424e-06)
(6.35681 -2.383e-08 2.79424e-06)
(6.23946 -3.11698e-08 2.87387e-06)
(6.23946 -1.63772e-08 2.87387e-06)
(6.12396 -5.18519e-08 2.95457e-06)
(6.12396 -3.67899e-08 2.95457e-06)
(6.01034 -2.77146e-08 3.0365e-06)
(6.01034 -1.24632e-08 3.0365e-06)
(5.89862 -4.42727e-08 3.12008e-06)
(5.89862 -2.8714e-08 3.12008e-06)
(5.78881 -5.23776e-08 3.20392e-06)
(5.78881 -3.6622e-08 3.20392e-06)
(5.68091 -1.88391e-08 3.28936e-06)
(5.68091 -2.75567e-09 3.28936e-06)
(5.57494 -5.96874e-08 3.37604e-06)
(5.57494 -4.34004e-08 3.37604e-06)
(5.47088 -3.68889e-08 3.46283e-06)
(5.47088 -2.0209e-08 3.46283e-06)
(5.36872 -3.31154e-08 3.55124e-06)
(5.36872 -1.62759e-08 3.55124e-06)
(5.26845 -6.76872e-08 3.63943e-06)
(5.26845 -5.0351e-08 3.63943e-06)
(5.17005 -4.21786e-09 3.72901e-06)
(5.17005 1.32003e-08 3.72901e-06)
(5.07349 -8.89174e-08 3.81873e-06)
(5.07349 -7.08565e-08 3.81873e-06)
(4.97876 7.38158e-09 3.90914e-06)
(4.97876 2.54189e-08 3.90914e-06)
(4.88582 -1.05613e-07 3.99924e-06)
(4.88582 -8.6757e-08 3.99924e-06)
(4.79466 1.97439e-08 4.08959e-06)
(4.79466 3.84329e-08 4.08959e-06)
(4.70523 -9.87106e-08 4.18071e-06)
(4.70523 -7.89785e-08 4.18071e-06)
(4.61752 -4.73106e-09 4.27081e-06)
(4.61752 1.46543e-08 4.27081e-06)
(4.53149 -6.74311e-08 4.36195e-06)
(4.53149 -4.67295e-08 4.36195e-06)
(4.4471 -4.42013e-08 4.45137e-06)
(4.4471 -2.41023e-08 4.45137e-06)
(4.36433 -3.14961e-08 4.54138e-06)
(4.36433 -9.67059e-09 4.54139e-06)
(4.28314 -6.50222e-08 4.63053e-06)
(4.28314 -4.4246e-08 4.63053e-06)
(4.20352 -3.40983e-08 4.71847e-06)
(4.20352 -1.09468e-08 4.71847e-06)
(4.12542 -4.35882e-08 4.80665e-06)
(4.12542 -2.21849e-08 4.80665e-06)
(4.04882 -6.36475e-08 4.89287e-06)
(4.04882 -3.89253e-08 4.89287e-06)
(3.9737 -2.93867e-08 4.97798e-06)
(3.9737 -7.45852e-09 4.97798e-06)
(3.90003 -5.97836e-08 5.06222e-06)
(3.90003 -3.31707e-08 5.06223e-06)
(3.8278 -3.4218e-08 5.14511e-06)
(3.8278 -1.19328e-08 5.1451e-06)
(3.75699 -7.22979e-08 5.2256e-06)
(3.75699 -4.3356e-08 5.22561e-06)
(3.68758 -2.29539e-08 5.30436e-06)
(3.68758 -6.15991e-10 5.30434e-06)
(3.61955 -7.22645e-08 5.38134e-06)
(3.61955 -4.0384e-08 5.38136e-06)
(3.5529 -2.50793e-08 5.45623e-06)
(3.5529 -3.16247e-09 5.45621e-06)
(3.4876 -8.10522e-08 5.52824e-06)
(3.4876 -4.53804e-08 5.52827e-06)
(3.42364 -1.58997e-08 5.59791e-06)
(3.42364 4.83763e-09 5.59788e-06)
(3.361 -9.46825e-08 5.66407e-06)
(3.361 -5.40003e-08 5.66412e-06)
(3.29968 -1.67371e-09 5.72768e-06)
(3.29968 1.67196e-08 5.72763e-06)
(3.23966 -1.06961e-07 5.7877e-06)
(3.23966 -5.95293e-08 5.78776e-06)
(3.18093 1.08323e-08 5.84496e-06)
(3.18093 2.51114e-08 5.84488e-06)
(3.12349 -1.2517e-07 5.89793e-06)
(3.12349 -6.84757e-08 5.89803e-06)
(3.06732 2.56184e-08 5.94762e-06)
(3.06732 3.30991e-08 5.9475e-06)
(3.01242 -1.46684e-07 5.99218e-06)
(3.01242 -7.70621e-08 5.99233e-06)
(2.95878 6.18158e-08 6.03461e-06)
(2.95878 5.84411e-08 6.03443e-06)
(2.90642 -2.03184e-07 6.06989e-06)
(2.90642 -1.15257e-07 6.07013e-06)
(2.85532 1.28814e-07 6.10385e-06)
(2.85532 1.0847e-07 6.10357e-06)
(2.80549 -2.78706e-07 6.12975e-06)
(2.80549 -1.64548e-07 6.13011e-06)
(2.75694 2.07395e-07 6.15453e-06)
(2.75694 1.60917e-07 6.15409e-06)
(2.70965 -3.77233e-07 6.16921e-06)
(2.70965 -2.25151e-07 6.16975e-06)
(2.66364 3.19173e-07 6.18397e-06)
(2.66364 2.32825e-07 6.18331e-06)
(2.61891 -5.15272e-07 6.18595e-06)
(2.61891 -3.07932e-07 6.18679e-06)
(2.57546 4.80561e-07 6.19035e-06)
(2.57546 3.33749e-07 6.18933e-06)
(2.5333 -7.16639e-07 6.17785e-06)
(2.5333 -4.2824e-07 6.17912e-06)
(2.49242 7.1546e-07 6.17126e-06)
(2.49242 4.77269e-07 6.16969e-06)
(2.45282 -1.00166e-06 6.14253e-06)
(2.45282 -5.93694e-07 6.14449e-06)
(2.41449 1.03837e-06 6.12382e-06)
(2.41449 6.62372e-07 6.12141e-06)
(2.3774 -1.37905e-06 6.07718e-06)
(2.3774 -7.93888e-07 6.0802e-06)
(2.34154 1.47196e-06 6.04696e-06)
(2.34154 8.88261e-07 6.04323e-06)
(2.30687 -1.91096e-06 5.97798e-06)
(2.30687 -1.06203e-06 5.98264e-06)
(2.27331 2.11317e-06 5.93813e-06)
(2.27331 1.2163e-06 5.93237e-06)
(2.24082 -2.70052e-06 5.84281e-06)
(2.24082 -1.45737e-06 5.85001e-06)
(2.20932 3.04866e-06 5.79408e-06)
(2.20932 1.67922e-06 5.78513e-06)
(2.17872 -3.82585e-06 5.66788e-06)
(2.17872 -1.99148e-06 5.67905e-06)
(2.14893 4.39239e-06 5.61524e-06)
(2.14893 2.30888e-06 5.60134e-06)
(2.11988 -5.48397e-06 5.44738e-06)
(2.11988 -2.75983e-06 5.46477e-06)
(2.09149 6.38981e-06 5.39585e-06)
(2.09149 3.22535e-06 5.37418e-06)
(2.0637 -7.8753e-06 5.18063e-06)
(2.0637 -3.8078e-06 5.20774e-06)
(2.03646 9.22581e-06 5.13959e-06)
(2.03646 4.42175e-06 5.10572e-06)
(2.00975 -1.13046e-05 4.85926e-06)
(2.00975 -5.20246e-06 4.90168e-06)
(1.98358 1.33368e-05 4.8439e-06)
(1.98358 6.03985e-06 4.79082e-06)
(1.95796 -1.62418e-05 4.48084e-06)
(1.95796 -7.04801e-06 4.5474e-06)
(1.93295 1.9221e-05 4.51237e-06)
(1.93295 8.12418e-06 4.42895e-06)
(1.90858 -2.33049e-05 4.03654e-06)
(1.90858 -9.39849e-06 4.1413e-06)
(1.88489 2.77008e-05 4.15456e-06)
(1.88489 1.07953e-05 4.02304e-06)
(1.86191 -3.35346e-05 3.52083e-06)
(1.86191 -1.24207e-05 3.68624e-06)
(1.83967 3.99974e-05 3.77949e-06)
(1.83967 1.41857e-05 3.57144e-06)
(1.81817 -4.83664e-05 2.92125e-06)
(1.81817 -1.61921e-05 3.18332e-06)
(1.79742 5.78631e-05 3.40579e-06)
(1.79742 1.83521e-05 3.07557e-06)
(1.77741 -6.99938e-05 2.21456e-06)
(1.77741 -2.07866e-05 2.63124e-06)
(1.7581 8.40211e-05 3.05732e-06)
(1.7581 2.33666e-05 2.53129e-06)
(1.73945 -0.000101723 1.37147e-06)
(1.73945 -2.61884e-05 2.03641e-06)
(1.7214 0.000122437 2.76853e-06)
(1.7214 2.90329e-05 1.92746e-06)
(1.70389 -0.000148342 8.04494e-07)
(1.70389 -3.198e-05 1.4054e-06)
(1.68687 0.000167466 2.0958e-06)
(1.68687 3.47082e-05 1.25091e-06)
(1.6703 -0.000193096 4.4507e-07)
(1.6703 -3.73894e-05 1.07352e-06)
(1.65414 0.000204398 1.07989e-06)
(1.65414 3.94458e-05 8.05464e-07)
(1.63837 -0.000222851 5.76302e-08)
(1.63837 -4.14706e-05 1.43733e-06)
(1.623 0.000225843 0)
(1.623 4.22477e-05 1.51252e-06)
(1.60806 -0.000215044 9.93261e-07)
(1.60806 -4.33539e-05 9.3218e-07)
(1.59359 0.000210113 4.30211e-07)
(1.59359 4.26175e-05 1.2931e-06)
(1.57963 -0.000190445 2.28912e-06)
(1.57963 -4.26983e-05 1.3104e-06)
(1.56621 0.00017579 9.02692e-07)
(1.56621 4.07073e-05 1.63105e-06)
(1.55334 -0.000151062 3.49094e-06)
(1.55334 -3.99177e-05 2.31604e-06)
(1.54102 0.000129973 1.59195e-06)
(1.54102 3.7124e-05 2.58619e-06)
(1.52927 -0.000111722 4.20807e-06)
(1.52927 -3.58029e-05 3.36864e-06)
(1.51805 9.61131e-05 2.9172e-06)
(1.51805 3.26126e-05 3.62574e-06)
(1.50736 -8.26761e-05 5.06281e-06)
(1.50736 -3.11532e-05 4.46644e-06)
(1.49713 7.11242e-05 4.2435e-06)
(1.49713 2.78962e-05 4.74558e-06)
(1.48725 -6.13073e-05 6.03505e-06)
(1.48725 -2.65832e-05 5.61387e-06)
(1.47758 5.27325e-05 5.5872e-06)
(1.47758 2.34266e-05 5.94087e-06)
(1.46799 -4.5574e-05 7.12307e-06)
(1.46799 -2.23471e-05 6.82746e-06)
(1.45828 3.91411e-05 6.96348e-06)
(1.45828 1.93386e-05 7.21111e-06)
(1.4483 -3.39514e-05 8.31879e-06)
(1.4483 -1.85434e-05 8.11264e-06)
(1.43788 2.91081e-05 8.38869e-06)
(1.43788 1.57532e-05 8.56102e-06)
(1.42691 -2.53918e-05 9.61038e-06)
(1.42691 -1.52671e-05 9.46755e-06)
(1.41532 2.1679e-05 9.85686e-06)
(1.41532 1.26728e-05 9.9761e-06)
(1.40313 -1.90549e-05 1.09833e-05)
(1.40313 -1.24775e-05 1.08849e-05)
(1.39038 1.61134e-05 1.13649e-05)
(1.39038 1.0024e-05 1.1447e-05)
(1.37715 -1.43237e-05 1.24285e-05)
(1.37715 -1.01132e-05 1.23612e-05)
(1.36345 1.19537e-05 1.29229e-05)
(1.36345 7.8112e-06 1.29791e-05)
(1.34926 -1.08215e-05 1.39415e-05)
(1.34926 -8.18095e-06 1.38957e-05)
(1.33455 8.8648e-06 1.45269e-05)
(1.33455 6.01653e-06 1.45653e-05)
(1.31924 -8.24751e-06 1.55115e-05)
(1.31924 -6.64195e-06 1.54806e-05)
(1.30326 6.52011e-06 1.61658e-05)
(1.30326 4.52954e-06 1.61919e-05)
(1.28653 -6.36643e-06 1.71356e-05)
(1.28653 -5.43907e-06 1.71148e-05)
(1.26901 4.77851e-06 1.78679e-05)
(1.26901 3.35539e-06 1.78856e-05)
(1.25061 -5.00404e-06 1.88536e-05)
(1.25061 -4.51814e-06 1.88397e-05)
(1.23132 3.50358e-06 1.96752e-05)
(1.23132 2.456e-06 1.96873e-05)
(1.21116 -4.02686e-06 2.07002e-05)
(1.21116 -3.82623e-06 2.0691e-05)
(1.19026 2.50344e-06 2.16139e-05)
(1.19026 1.70517e-06 2.16221e-05)
(1.16883 -3.27467e-06 2.2709e-05)
(1.16883 -3.25662e-06 2.27029e-05)
(1.14713 1.72172e-06 2.37322e-05)
(1.14713 1.08983e-06 2.37379e-05)
(1.12541 -2.6267e-06 2.4914e-05)
(1.12541 -2.72388e-06 2.49101e-05)
(1.10387 1.08281e-06 2.60273e-05)
(1.10387 5.6302e-07 2.60312e-05)
(1.08256 -2.13178e-06 2.72577e-05)
(1.08256 -2.30009e-06 2.72552e-05)
(1.06146 5.56619e-07 2.84193e-05)
(1.06146 1.1349e-07 2.8422e-05)
(1.04035 -1.92413e-06 2.96613e-05)
(1.04035 -2.13507e-06 2.96597e-05)
(1.01906 2.09852e-07 3.08848e-05)
(1.01906 -1.795e-07 3.08868e-05)
(0.997451 -1.88173e-06 3.21851e-05)
(0.997451 -2.11695e-06 3.21842e-05)
(0.975563 -1.84697e-08 3.35159e-05)
(0.975563 -3.69015e-07 3.35174e-05)
(0.95353 -1.82111e-06 3.4936e-05)
(0.95353 -2.06871e-06 3.49355e-05)
(0.931501 -2.72311e-07 3.63912e-05)
(0.931501 -5.94013e-07 3.63923e-05)
(0.909619 -1.70555e-06 3.7947e-05)
(0.909618 -1.95787e-06 3.79468e-05)
(0.888001 -5.46346e-07 3.95277e-05)
(0.888001 -8.45898e-07 3.95285e-05)
(0.866802 -1.65492e-06 4.12016e-05)
(0.866802 -1.90717e-06 4.12016e-05)
(0.846215 -8.54745e-07 4.29118e-05)
(0.846215 -1.13675e-06 4.29125e-05)
(0.82647 -1.5575e-06 4.47363e-05)
(0.82647 -1.80682e-06 4.47364e-05)
(0.80775 -1.04425e-06 4.65978e-05)
(0.80775 -1.31196e-06 4.65984e-05)
(0.790072 -1.55005e-06 4.85256e-05)
(0.790072 -1.79496e-06 4.85258e-05)
(0.773269 -1.20302e-06 5.04685e-05)
(0.773269 -1.45898e-06 5.0469e-05)
(0.756997 -1.66759e-06 5.24395e-05)
(0.756997 -1.90748e-06 5.24398e-05)
(0.740792 -1.44327e-06 5.44319e-05)
(0.740792 -1.68971e-06 5.44323e-05)
(0.724185 -1.75014e-06 5.64916e-05)
(0.724185 -1.98519e-06 5.64919e-05)
(0.706787 -1.59607e-06 5.8602e-05)
(0.706787 -1.83502e-06 5.86025e-05)
(0.688241 -1.90475e-06 6.0777e-05)
(0.688241 -2.13576e-06 6.07773e-05)
(0.668277 -1.8012e-06 6.30302e-05)
(0.668276 -2.03483e-06 6.30306e-05)
(0.646927 -2.03642e-06 6.54005e-05)
(0.646927 -2.26471e-06 6.54008e-05)
(0.62465 -2.0132e-06 6.78937e-05)
(0.62465 -2.24382e-06 6.78941e-05)
(0.602257 -2.04679e-06 7.05477e-05)
(0.602257 -2.2743e-06 7.0548e-05)
(0.580657 -2.20309e-06 7.3305e-05)
(0.580657 -2.43314e-06 7.33054e-05)
(0.560633 -2.21527e-06 7.61737e-05)
(0.560633 -2.4445e-06 7.6174e-05)
(0.542853 -2.37472e-06 7.9145e-05)
(0.542853 -2.60713e-06 7.91454e-05)
(0.527756 -2.29987e-06 8.22022e-05)
(0.527756 -2.53377e-06 8.22026e-05)
(0.515209 -2.54286e-06 8.52843e-05)
(0.515209 -2.7811e-06 8.52847e-05)
(0.504373 -2.48259e-06 8.83617e-05)
(0.504373 -2.72485e-06 8.83621e-05)
(0.494083 -2.82057e-06 9.14151e-05)
(0.494083 -3.06876e-06 9.14155e-05)
(0.4835 -2.88402e-06 9.4468e-05)
(0.4835 -3.13909e-06 9.44685e-05)
(0.472665 -3.07682e-06 9.76099e-05)
(0.472665 -3.34e-06 9.76104e-05)
(0.462381 -3.39096e-06 0.000100856)
(0.462381 -3.66425e-06 0.000100857)
(0.453701 -3.06167e-06 0.000104344)
(0.453701 -3.34587e-06 0.000104345)
(0.447434 -3.79182e-06 0.000107945)
(0.447433 -4.08985e-06 0.000107946)
(0.444012 -3.20053e-06 0.000111729)
(0.444012 -3.51292e-06 0.000111729)
(0.443636 -3.80014e-06 0.000115635)
(0.443636 -4.13081e-06 0.000115636)
(0.446042 -3.27673e-06 0.000119526)
(0.446042 -3.62585e-06 0.000119527)
(0.450523 -4.05068e-06 0.000123294)
(0.450523 -4.42363e-06 0.000123295)
(0.456305 -3.44434e-06 0.000126917)
(0.456305 -3.84063e-06 0.000126917)
(0.462748 -4.54797e-06 0.000130321)
(0.462748 -4.97491e-06 0.000130322)
(0.469286 -3.92453e-06 0.000133606)
(0.469286 -4.38086e-06 0.000133607)
(0.475271 -5.12228e-06 0.000136873)
(0.475271 -5.61787e-06 0.000136874)
(0.479934 -4.095e-06 0.000140272)
(0.479934 -4.62688e-06 0.000140274)
(0.482565 -5.37468e-06 0.000143732)
(0.482565 -5.95723e-06 0.000143733)
(0.482625 -4.12897e-06 0.000147212)
(0.482625 -4.7554e-06 0.000147214)
(0.479796 -5.93578e-06 0.000150548)
(0.479796 -6.62759e-06 0.00015055)
(0.474072 -4.31607e-06 0.000153886)
(0.474072 -5.05993e-06 0.000153889)
(0.465495 -6.51477e-06 0.000157168)
(0.465495 -7.34286e-06 0.00015717)
(0.453964 -4.43904e-06 0.000160578)
(0.453964 -5.3271e-06 0.000160581)
(0.43968 -7.11758e-06 0.000164032)
(0.43968 -8.1144e-06 0.000164034)
(0.423273 -4.49429e-06 0.000167746)
(0.423273 -5.55744e-06 0.00016775)
(0.405288 -7.61928e-06 0.000171589)
(0.405288 -8.8235e-06 0.000171591)
(0.385757 -4.24855e-06 0.000175711)
(0.385756 -5.5219e-06 0.000175716)
(0.364229 -8.46569e-06 0.000179772)
(0.364229 -9.92323e-06 0.000179775)
(0.340448 -4.08031e-06 0.000184172)
(0.340448 -5.60362e-06 0.000184178)
(0.31493 -9.25575e-06 0.000188624)
(0.31493 -1.10212e-05 0.000188627)
(0.288826 -3.82048e-06 0.000193491)
(0.288825 -5.63839e-06 0.000193498)
(0.263415 -1.01964e-05 0.000198349)
(0.263414 -1.23349e-05 0.000198351)
(0.239551 -3.56368e-06 0.000203614)
(0.23955 -5.72581e-06 0.000203622)
(0.218045 -1.12594e-05 0.000208764)
(0.218045 -1.38481e-05 0.000208765)
(0.200494 -3.18418e-06 0.000214249)
(0.200494 -5.74547e-06 0.00021426)
(0.188796 -1.26506e-05 0.000219325)
(0.188796 -1.5781e-05 0.000219324)
(0.183758 -2.5187e-06 0.000224674)
(0.183758 -5.53889e-06 0.000224689)
(0.184234 -1.40491e-05 0.00022932)
(0.184235 -1.78305e-05 0.000229318)
(0.18746 -1.93902e-06 0.000234098)
(0.18746 -5.4832e-06 0.000234118)
(0.19022 -1.61748e-05 0.000238096)
(0.19022 -2.07425e-05 0.000238092)
(0.190221 -8.6158e-07 0.00024285)
(0.190221 -5.00383e-06 0.000242878)
(0.187153 -1.76093e-05 0.000246974)
(0.187153 -2.31359e-05 0.000246965)
(0.182346 7.11685e-07 0.000251549)
(0.182345 -4.11334e-06 0.000251588)
(0.177606 -1.96529e-05 0.000254583)
(0.177606 -2.63528e-05 0.000254568)
(0.174548 2.66283e-06 0.000257771)
(0.174548 -2.93909e-06 0.000257825)
(0.174261 -2.16329e-05 0.000258553)
(0.174261 -2.97656e-05 0.000258527)
(0.177036 4.17988e-06 0.000258766)
(0.177036 -2.30521e-06 0.000258841)
(0.182351 -2.46448e-05 0.000255989)
(0.182352 -3.45257e-05 0.000255948)
(0.189702 5.41306e-06 0.000253383)
(0.189703 -2.08404e-06 0.000253491)
(0.199835 -2.74619e-05 0.000248582)
(0.199837 -3.94821e-05 0.000248519)
(0.213968 7.39663e-06 0.000245194)
(0.21397 -1.29196e-06 0.00024535)
(0.231767 -2.91705e-05 0.000239882)
(0.231769 -4.3813e-05 0.000239789)
(0.251632 9.75729e-06 0.000235886)
(0.251634 -4.15029e-07 0.000236118)
(0.271311 -3.06875e-05 0.000228811)
(0.271313 -4.85428e-05 0.000228673)
(0.288521 1.10732e-05 0.00022233)
(0.288522 -1.1518e-06 0.000222678)
(0.302279 -3.13476e-05 0.000212234)
(0.30228 -5.3031e-05 0.000212027)
(0.313281 1.17251e-05 0.000202431)
(0.313282 -3.79003e-06 0.000202939)
(0.322656 -3.0632e-05 0.000188761)
(0.322657 -5.63528e-05 0.000188474)
(0.329956 1.21899e-05 0.000175202)
(0.329956 -9.45352e-06 0.000175891)
(0.334155 -2.81282e-05 0.00015737)
(0.334155 -5.64311e-05 0.000157057)
(0.33589 1.13676e-05 0.000138726)
(0.335891 -1.50626e-05 0.000139513)
(0.337832 -2.36693e-05 0.000116705)
(0.337832 -4.98611e-05 0.000116454)
(0.341977 1.29191e-05 9.36118e-05)
(0.341978 -1.03984e-05 9.43125e-05)
(0.347003 -1.83933e-05 6.60026e-05)
(0.347003 -3.35554e-05 6.5864e-05)
(0.35019 1.4736e-05 3.4885e-05)
(0.35019 4.52469e-06 3.5251e-05)
(0.0533822 9.05427e-09 -6.28594e-08)
(0.0533822 9.30602e-09 -5.72596e-11)
(0.160721 2.64533e-08 -9.6544e-08)
(0.160721 2.7226e-08 -5.67085e-10)
(0.26941 3.84284e-08 -9.71683e-08)
(0.26941 4.01676e-08 -1.84439e-09)
(0.379457 3.36538e-08 -9.04212e-08)
(0.379457 3.63035e-08 -3.90391e-09)
(0.490863 1.12758e-08 -7.21932e-08)
(0.490863 1.44225e-08 -5.88377e-09)
(0.603628 -9.095e-09 -5.10065e-08)
(0.603628 -5.35217e-09 -6.93096e-09)
(0.71775 -1.25394e-08 -3.60146e-08)
(0.71775 -8.46981e-09 -7.31286e-09)
(0.833235 -7.91933e-09 -2.75278e-08)
(0.833235 -3.62776e-09 -7.59927e-09)
(0.9501 -5.10041e-09 -2.17631e-08)
(0.9501 -6.43298e-10 -8.02952e-09)
(1.06837 -2.18087e-09 -1.70293e-08)
(1.06837 2.40446e-09 -8.64254e-09)
(1.18808 -9.38806e-10 -1.39234e-08)
(1.18808 3.75163e-09 -9.4329e-09)
(1.30928 1.12951e-10 -1.17758e-08)
(1.30927 4.89165e-09 -1.03833e-08)
(1.43201 1.04838e-09 -1.1489e-08)
(1.43201 5.90546e-09 -1.1489e-08)
(1.55636 1.43144e-09 -1.2748e-08)
(1.55636 6.35637e-09 -1.27481e-08)
(1.68238 1.95748e-09 -1.41611e-08)
(1.68237 6.94574e-09 -1.41611e-08)
(1.81015 2.01596e-09 -1.57301e-08)
(1.81015 7.06274e-09 -1.57302e-08)
(1.93975 2.51289e-09 -1.74612e-08)
(1.93975 7.61238e-09 -1.74612e-08)
(2.07128 2.68469e-09 -1.93652e-08)
(2.07128 7.83601e-09 -1.93652e-08)
(2.20481 2.54619e-09 -2.1446e-08)
(2.20481 7.7459e-09 -2.1446e-08)
(2.34044 2.77706e-09 -2.37102e-08)
(2.34044 8.02309e-09 -2.37102e-08)
(2.47827 3.17958e-09 -2.61747e-08)
(2.47827 8.46984e-09 -2.61747e-08)
(2.61837 2.98512e-09 -2.88512e-08)
(2.61837 8.321e-09 -2.88512e-08)
(2.76083 2.59838e-09 -3.17402e-08)
(2.76083 7.97389e-09 -3.17402e-08)
(2.90574 3.42421e-09 -3.48596e-08)
(2.90574 8.84335e-09 -3.48597e-08)
(3.05316 3.24607e-09 -3.82324e-08)
(3.05316 8.70594e-09 -3.82324e-08)
(3.20317 3.01337e-09 -4.18651e-08)
(3.20317 8.51311e-09 -4.18652e-08)
(3.35581 2.62556e-09 -4.57618e-08)
(3.35581 8.16585e-09 -4.57618e-08)
(3.51112 3.74536e-09 -4.99501e-08)
(3.51112 9.3248e-09 -4.99501e-08)
(3.66915 3.0476e-09 -5.44546e-08)
(3.66915 8.66808e-09 -5.44546e-08)
(3.82989 3.16741e-09 -5.92833e-08)
(3.82989 8.8266e-09 -5.92833e-08)
(3.99335 2.51276e-09 -6.4446e-08)
(3.99335 8.21149e-09 -6.4446e-08)
(4.1595 3.82243e-09 -6.99746e-08)
(4.1595 9.56162e-09 -6.99746e-08)
(4.3283 2.95805e-09 -7.59001e-08)
(4.3283 8.73738e-09 -7.59001e-08)
(4.49969 2.88566e-09 -8.22286e-08)
(4.49969 8.705e-09 -8.22286e-08)
(4.67356 2.75263e-09 -8.89811e-08)
(4.67356 8.61303e-09 -8.89812e-08)
(4.84981 3.62512e-09 -9.61982e-08)
(4.84981 9.52656e-09 -9.61983e-08)
(5.02829 2.9264e-09 -1.03912e-07)
(5.02829 8.86998e-09 -1.03912e-07)
(5.20883 2.65064e-09 -1.12135e-07)
(5.20883 8.63625e-09 -1.12135e-07)
(5.39125 2.74672e-09 -1.20894e-07)
(5.39125 8.7756e-09 -1.20894e-07)
(5.5753 3.32169e-09 -1.30238e-07)
(5.5753 9.39365e-09 -1.30238e-07)
(5.76073 3.18007e-09 -1.40211e-07)
(5.76073 9.29864e-09 -1.40211e-07)
(5.94727 2.3565e-09 -1.50833e-07)
(5.94727 8.51712e-09 -1.50833e-07)
(6.13458 2.50066e-09 -1.62129e-07)
(6.13458 8.71184e-09 -1.62129e-07)
(6.32233 3.72796e-09 -1.74172e-07)
(6.32233 9.98269e-09 -1.74172e-07)
(6.51014 1.80205e-09 -1.86992e-07)
(6.51014 8.1086e-09 -1.86992e-07)
(6.6976 3.82804e-09 -2.00639e-07)
(6.6976 1.01822e-08 -2.00639e-07)
(6.88429 7.23588e-10 -2.15139e-07)
(6.88429 7.13067e-09 -2.15139e-07)
(7.06973 4.97009e-09 -2.30568e-07)
(7.06973 1.14257e-08 -2.30568e-07)
(7.25345 2.58001e-09 -2.47025e-07)
(7.25345 9.09767e-09 -2.47025e-07)
(7.43494 -7.85669e-10 -2.64431e-07)
(7.43494 5.77541e-09 -2.64431e-07)
(7.61366 2.16501e-09 -2.82828e-07)
(7.61366 8.79381e-09 -2.82828e-07)
(7.78907 1.29628e-08 -3.02601e-07)
(7.78907 1.96547e-08 -3.02601e-07)
(7.9606 -1.59782e-08 -3.23381e-07)
(7.9606 -9.25206e-09 -3.23381e-07)
(8.12768 1.9409e-08 -3.45362e-07)
(8.12768 2.62331e-08 -3.45362e-07)
(8.28971 -8.01293e-09 -3.6881e-07)
(8.28971 -1.15232e-09 -3.6881e-07)
(8.4461 2.80714e-09 -3.93352e-07)
(8.4461 9.75326e-09 -3.93352e-07)
(8.59626 8.75601e-09 -4.19458e-07)
(8.59626 1.57646e-08 -4.19459e-07)
(8.73958 -1.11949e-08 -4.46814e-07)
(8.73958 -4.12343e-09 -4.46815e-07)
(8.8755 1.23445e-08 -4.75529e-07)
(8.8755 1.95044e-08 -4.75529e-07)
(9.00343 -6.75799e-09 -5.05748e-07)
(9.00343 4.70097e-10 -5.05748e-07)
(9.12282 8.02732e-09 -5.37361e-07)
(9.12282 1.53338e-08 -5.37361e-07)
(9.23316 -4.25865e-09 -5.70437e-07)
(9.23316 3.13748e-09 -5.70437e-07)
(9.33393 -8.11303e-09 -6.04497e-07)
(9.33393 -6.46118e-10 -6.04497e-07)
(9.4247 1.6407e-08 -6.40076e-07)
(9.4247 2.39834e-08 -6.40076e-07)
(9.50504 -1.33739e-08 -6.76997e-07)
(9.50504 -5.7397e-09 -6.76997e-07)
(9.57459 -4.55143e-09 -7.14569e-07)
(9.57459 3.21478e-09 -7.14569e-07)
(9.63306 1.14947e-08 -7.53439e-07)
(9.63306 1.93283e-08 -7.53439e-07)
(9.68021 -2.70703e-08 -7.92864e-07)
(9.68021 -1.91325e-08 -7.92864e-07)
(9.71587 3.40203e-08 -8.33419e-07)
(9.71587 4.20883e-08 -8.3342e-07)
(9.73994 -5.5564e-08 -8.74179e-07)
(9.73994 -4.74489e-08 -8.7418e-07)
(9.75242 4.95996e-08 -9.15498e-07)
(9.75242 5.78998e-08 -9.15498e-07)
(9.75338 -5.69691e-08 -9.57325e-07)
(9.75338 -4.86343e-08 -9.57326e-07)
(9.74295 3.75217e-08 -9.99183e-07)
(9.74295 4.60386e-08 -9.99183e-07)
(9.72137 -4.33032e-08 -1.04154e-06)
(9.72137 -3.47205e-08 -1.04154e-06)
(9.68894 2.39849e-08 -1.08394e-06)
(9.68894 3.27283e-08 -1.08394e-06)
(9.64606 -3.45991e-08 -1.12672e-06)
(9.64606 -2.57617e-08 -1.12672e-06)
(9.59315 6.7471e-09 -1.16935e-06)
(9.59315 1.57273e-08 -1.16935e-06)
(9.53072 -1.25038e-08 -1.21268e-06)
(9.53072 -3.39246e-09 -1.21268e-06)
(9.45935 -1.6901e-08 -1.256e-06)
(9.45935 -7.66806e-09 -1.256e-06)
(9.37964 9.3123e-09 -1.30018e-06)
(9.37964 1.87045e-08 -1.30018e-06)
(9.2922 -4.19647e-08 -1.34449e-06)
(9.2922 -3.24727e-08 -1.34449e-06)
(9.19772 2.75366e-08 -1.38967e-06)
(9.19772 3.72243e-08 -1.38967e-06)
(9.09685 -4.78049e-08 -1.43571e-06)
(9.09685 -3.80246e-08 -1.43571e-06)
(8.99028 1.72009e-08 -1.48231e-06)
(8.99028 2.71747e-08 -1.48231e-06)
(8.87866 -3.23522e-08 -1.5302e-06)
(8.87866 -2.22521e-08 -1.5302e-06)
(8.76267 1.08248e-08 -1.57927e-06)
(8.76267 2.11007e-08 -1.57927e-06)
(8.64292 -3.66457e-08 -1.62947e-06)
(8.64292 -2.6227e-08 -1.62947e-06)
(8.52002 1.39493e-08 -1.68102e-06)
(8.52002 2.45577e-08 -1.68102e-06)
(8.39454 -4.15945e-08 -1.73383e-06)
(8.39454 -3.08428e-08 -1.73383e-06)
(8.26701 1.23766e-08 -1.78789e-06)
(8.26701 2.33263e-08 -1.78789e-06)
(8.13793 -2.71889e-08 -1.84391e-06)
(8.13793 -1.60715e-08 -1.84391e-06)
(8.00777 -3.60979e-09 -1.90127e-06)
(8.00777 7.69475e-09 -1.90127e-06)
(7.87694 -1.93249e-08 -1.96037e-06)
(7.87694 -7.826e-09 -1.96037e-06)
(7.74581 -1.99474e-08 -2.02053e-06)
(7.74581 -8.26075e-09 -2.02053e-06)
(7.61473 1.07322e-08 -2.08311e-06)
(7.61473 2.26399e-08 -2.08311e-06)
(7.48399 -4.41705e-08 -2.14711e-06)
(7.48399 -3.20858e-08 -2.14712e-06)
(7.35386 4.4868e-09 -2.21221e-06)
(7.35386 1.68141e-08 -2.21221e-06)
(7.22456 -1.61579e-08 -2.27974e-06)
(7.22456 -3.61646e-09 -2.27974e-06)
(7.09632 -2.64061e-08 -2.34827e-06)
(7.09632 -1.36443e-08 -2.34827e-06)