/*--------------------------------*- C++ -*----------------------------------*\
| =========                 |                                                 |
| \\      /  F ield         | OpenFOAM: The Open Source CFD Toolbox           |
|  \\    /   O peration     | Version:  2012                                  |
|   \\  /    A nd           | Website:  www.openfoam.com                      |
|    \\/     M anipulation  |                                                 |
\*---------------------------------------------------------------------------*/
FoamFile
{
    version     2.0;
    format      ascii;
    class       volSymmTensorField;
    location    "5000";
    object      turbulenceProperties:R;
}
// * * * * * * * * * * * * * * * * * * * * * * * * * * * * * * * * * * * * * //

dimensions      [0 2 -2 0 0 0 0];


internalField   nonuniform List<symmTensor> 
2560
(
(4.51146e-08 -6.09228e-13 -8.81897e-16 4.51146e-08 1.9979e-28 4.51146e-08)
(4.51146e-08 -6.09228e-13 -8.81897e-16 4.51146e-08 1.71105e-43 4.51146e-08)
(6.95242e-09 -5.3961e-13 -2.35476e-15 6.95242e-09 6.25223e-28 6.95242e-09)
(6.95242e-09 -5.3961e-13 -2.35476e-15 6.95242e-09 1.06091e-28 6.95242e-09)
(4.35307e-09 -9.96671e-13 -5.9829e-15 4.35307e-09 7.7887e-28 4.35307e-09)
(4.35307e-09 -9.96671e-13 -5.9829e-15 4.35307e-09 9.80933e-29 4.35307e-09)
(9.60936e-09 -4.66558e-12 -2.84142e-14 9.60936e-09 6.37237e-28 9.60936e-09)
(9.60936e-09 -4.66558e-12 -2.84142e-14 9.60936e-09 4.66912e-28 9.60936e-09)
(2.34052e-08 -2.00491e-11 -1.23878e-13 2.34052e-08 3.9991e-27 2.34052e-08)
(2.34052e-08 -2.00491e-11 -1.23878e-13 2.34052e-08 2.04042e-27 2.34052e-08)
(4.94354e-08 -6.6678e-11 -4.17978e-13 4.94354e-08 1.08939e-26 4.94354e-08)
(4.94354e-08 -6.6678e-11 -4.17978e-13 4.94354e-08 6.90159e-27 4.94354e-08)
(9.24721e-08 -1.81975e-10 -1.15732e-12 9.24721e-08 2.89808e-26 9.24721e-08)
(9.24721e-08 -1.81975e-10 -1.15732e-12 9.24721e-08 1.91573e-26 9.24721e-08)
(1.58097e-07 -4.29957e-10 -2.77419e-12 1.58097e-07 6.87625e-26 1.58097e-07)
(1.58097e-07 -4.29957e-10 -2.77419e-12 1.58097e-07 4.60366e-26 1.58097e-07)
(2.52673e-07 -9.12034e-10 -5.97026e-12 2.52673e-07 1.48062e-25 2.52673e-07)
(2.52673e-07 -9.12034e-10 -5.97026e-12 2.52673e-07 9.93362e-26 2.52673e-07)
(3.83365e-07 -1.7802e-09 -1.18228e-11 3.83365e-07 2.93193e-25 3.83365e-07)
(3.83365e-07 -1.7802e-09 -1.18228e-11 3.83365e-07 1.97223e-25 3.83365e-07)
(5.58186e-07 -3.25298e-09 -2.19182e-11 5.58186e-07 5.44992e-25 5.58186e-07)
(5.58186e-07 -3.25298e-09 -2.19182e-11 5.58186e-07 3.66519e-25 5.58186e-07)
(7.86048e-07 -5.63451e-09 -3.85169e-11 7.86048e-07 9.61536e-25 7.86048e-07)
(7.86048e-07 -5.63451e-09 -3.85169e-11 7.86048e-07 6.45675e-25 7.86048e-07)
(1.07683e-06 -9.33727e-09 -6.47569e-11 1.07683e-06 1.62348e-24 1.07683e-06)
(1.07683e-06 -9.33727e-09 -6.47569e-11 1.07683e-06 1.08817e-24 1.07683e-06)
(1.44142e-06 -1.49088e-08 -1.04901e-10 1.44142e-06 2.64207e-24 1.44142e-06)
(1.44142e-06 -1.49088e-08 -1.04901e-10 1.44142e-06 1.76711e-24 1.44142e-06)
(1.89183e-06 -2.30632e-08 -1.64637e-10 1.89183e-06 4.16719e-24 1.89183e-06)
(1.89183e-06 -2.30632e-08 -1.64637e-10 1.89183e-06 2.78102e-24 1.89183e-06)
(2.44123e-06 -3.47178e-08 -2.51439e-10 2.44123e-06 6.39383e-24 2.44123e-06)
(2.44123e-06 -3.47178e-08 -2.51439e-10 2.44123e-06 4.25838e-24 2.44123e-06)
(3.10407e-06 -5.1036e-08 -3.74998e-10 3.10407e-06 9.58062e-24 3.10407e-06)
(3.10407e-06 -5.1036e-08 -3.74998e-10 3.10407e-06 6.36309e-24 3.10407e-06)
(3.89613e-06 -7.34764e-08 -5.47737e-10 3.89613e-06 1.40622e-23 3.89613e-06)
(3.89613e-06 -7.34764e-08 -5.47737e-10 3.89613e-06 9.31221e-24 3.89613e-06)
(4.83464e-06 -1.0385e-07 -7.85421e-10 4.83464e-06 2.02464e-23 4.83464e-06)
(4.83464e-06 -1.0385e-07 -7.85421e-10 4.83464e-06 1.33796e-23 4.83464e-06)
(5.93838e-06 -1.44385e-07 -1.10787e-09 5.93838e-06 2.86697e-23 5.93838e-06)
(5.93838e-06 -1.44385e-07 -1.10787e-09 5.93838e-06 1.89149e-23 5.93838e-06)
(7.22777e-06 -1.97802e-07 -1.53983e-09 7.22777e-06 4.0007e-23 7.22777e-06)
(7.22777e-06 -1.97802e-07 -1.53983e-09 7.22777e-06 2.63667e-23 7.22777e-06)
(8.725e-06 -2.674e-07 -2.1119e-09 8.725e-06 5.50789e-23 8.725e-06)
(8.725e-06 -2.674e-07 -2.1119e-09 8.725e-06 3.62656e-23 8.725e-06)
(1.04541e-05 -3.57148e-07 -2.86175e-09 1.04541e-05 7.48545e-23 1.04541e-05)
(1.04541e-05 -3.57148e-07 -2.86175e-09 1.04541e-05 4.92715e-23 1.04541e-05)
(1.24412e-05 -4.71799e-07 -3.83543e-09 1.24412e-05 1.00563e-22 1.24412e-05)
(1.24412e-05 -4.71799e-07 -3.83543e-09 1.24412e-05 6.62284e-23 1.24412e-05)
(1.47143e-05 -6.17011e-07 -5.08887e-09 1.47143e-05 1.33858e-22 1.47143e-05)
(1.47143e-05 -6.17011e-07 -5.08887e-09 1.47143e-05 8.81166e-23 1.47143e-05)
(1.7304e-05 -7.99479e-07 -6.6897e-09 1.7304e-05 1.76445e-22 1.7304e-05)
(1.7304e-05 -7.99479e-07 -6.6897e-09 1.7304e-05 1.16104e-22 1.7304e-05)
(2.0243e-05 -1.02709e-06 -8.71927e-09 2.0243e-05 2.30452e-22 2.0243e-05)
(2.0243e-05 -1.02709e-06 -8.71927e-09 2.0243e-05 1.51671e-22 2.0243e-05)
(2.35666e-05 -1.3091e-06 -1.12749e-08 2.35666e-05 2.98813e-22 2.35666e-05)
(2.35666e-05 -1.3091e-06 -1.12749e-08 2.35666e-05 1.96514e-22 2.35666e-05)
(2.73128e-05 -1.65629e-06 -1.44726e-08 2.73128e-05 3.84508e-22 2.73128e-05)
(2.73128e-05 -1.65629e-06 -1.44726e-08 2.73128e-05 2.52715e-22 2.73128e-05)
(3.15223e-05 -2.0812e-06 -1.84499e-08 3.15223e-05 4.90854e-22 3.15223e-05)
(3.15223e-05 -2.0812e-06 -1.84499e-08 3.15223e-05 3.22647e-22 3.15223e-05)
(3.62388e-05 -2.59833e-06 -2.33692e-08 3.62388e-05 6.22534e-22 3.62388e-05)
(3.62388e-05 -2.59833e-06 -2.33692e-08 3.62388e-05 4.09229e-22 3.62388e-05)
(4.15088e-05 -3.22438e-06 -2.94214e-08 4.15088e-05 7.84714e-22 4.15088e-05)
(4.15088e-05 -3.22438e-06 -2.94214e-08 4.15088e-05 5.16159e-22 4.15088e-05)
(4.73824e-05 -3.9785e-06 -3.683e-08 4.73824e-05 9.83233e-22 4.73824e-05)
(4.73824e-05 -3.9785e-06 -3.683e-08 4.73824e-05 6.47241e-22 4.73824e-05)
(5.39126e-05 -4.88255e-06 -4.58558e-08 5.39126e-05 1.22525e-21 5.39126e-05)
(5.39126e-05 -4.88255e-06 -4.58558e-08 5.39126e-05 8.06977e-22 5.39126e-05)
(6.11558e-05 -5.96137e-06 -5.68011e-08 6.11558e-05 1.31423e-21 6.11558e-05)
(6.11558e-05 -5.96137e-06 -5.68011e-08 6.11558e-05 1.00034e-21 6.11558e-05)
(6.91719e-05 -7.24308e-06 -7.00155e-08 6.91719e-05 3.97185e-24 6.91719e-05)
(6.91719e-05 -7.24308e-06 -7.00155e-08 6.91719e-05 1.23378e-21 6.91719e-05)
(7.80243e-05 -8.75934e-06 -8.59015e-08 7.80243e-05 -4.65894e-21 7.80243e-05)
(7.80243e-05 -8.75934e-06 -8.59015e-08 7.80243e-05 1.51347e-21 7.80243e-05)
(8.778e-05 -1.05456e-05 -1.0492e-07 8.778e-05 -5.77766e-21 8.778e-05)
(8.778e-05 -1.05456e-05 -1.0492e-07 8.778e-05 1.84719e-21 8.778e-05)
(9.85091e-05 -1.26415e-05 -1.27596e-07 9.85091e-05 -7.14166e-21 9.85091e-05)
(9.85091e-05 -1.26415e-05 -1.27596e-07 9.85091e-05 2.24506e-21 9.85091e-05)
(0.000110286 -1.50909e-05 -1.54527e-07 0.000110286 -8.78876e-21 0.000110286)
(0.000110286 -1.50909e-05 -1.54527e-07 0.000110286 2.71664e-21 0.000110286)
(0.000123187 -1.79423e-05 -1.86385e-07 0.000123187 -1.07564e-20 0.000123187)
(0.000123187 -1.79423e-05 -1.86385e-07 0.000123187 3.26959e-21 0.000123187)
(0.000137292 -2.12487e-05 -2.23928e-07 0.000137292 -1.30942e-20 0.000137292)
(0.000137292 -2.12487e-05 -2.23928e-07 0.000137292 3.91543e-21 0.000137292)
(0.000152686 -2.5068e-05 -2.67999e-07 0.000152686 -1.58672e-20 0.000152686)
(0.000152686 -2.5068e-05 -2.67999e-07 0.000152686 4.67439e-21 0.000152686)
(0.000169453 -2.9463e-05 -3.19538e-07 0.000169453 -1.91475e-20 0.000169453)
(0.000169453 -2.9463e-05 -3.19538e-07 0.000169453 5.55155e-21 0.000169453)
(0.000187682 -3.45009e-05 -3.7958e-07 0.000187682 -2.30118e-20 0.000187682)
(0.000187682 -3.45009e-05 -3.7958e-07 0.000187682 6.55566e-21 0.000187682)
(0.000207462 -4.02535e-05 -4.49262e-07 0.000207462 -2.75465e-20 0.000207462)
(0.000207462 -4.02535e-05 -4.49262e-07 0.000207462 7.72724e-21 0.000207462)
(0.000228884 -4.67969e-05 -5.2982e-07 0.000228884 -3.28048e-20 0.000228884)
(0.000228884 -4.67969e-05 -5.2982e-07 0.000228884 9.07217e-21 0.000228884)
(0.000252039 -5.42107e-05 -6.22594e-07 0.000252039 -3.88973e-20 0.000252039)
(0.000252039 -5.42107e-05 -6.22594e-07 0.000252039 1.06159e-20 0.000252039)
(0.000277018 -6.25773e-05 -7.2902e-07 0.000277018 -4.59455e-20 0.000277018)
(0.000277018 -6.25773e-05 -7.2902e-07 0.000277018 1.23334e-20 0.000277018)
(0.000303912 -7.19814e-05 -8.50626e-07 0.000303912 -5.39724e-20 0.000303912)
(0.000303912 -7.19814e-05 -8.50626e-07 0.000303912 1.42376e-20 0.000303912)
(0.000332806 -8.25089e-05 -9.89025e-07 0.000332806 -6.31308e-20 0.000332806)
(0.000332806 -8.25089e-05 -9.89025e-07 0.000332806 1.6391e-20 0.000332806)
(0.000363784 -9.42453e-05 -1.1459e-06 0.000363784 -7.36063e-20 0.000363784)
(0.000363784 -9.42453e-05 -1.1459e-06 0.000363784 1.8795e-20 0.000363784)
(0.000396927 -0.000107275 -1.323e-06 0.000396927 -8.53585e-20 0.000396927)
(0.000396927 -0.000107275 -1.323e-06 0.000396927 2.14351e-20 0.000396927)
(0.000432307 -0.000121679 -1.5221e-06 0.000432307 -8.75738e-20 0.000432307)
(0.000432307 -0.000121679 -1.5221e-06 0.000432307 2.43513e-20 0.000432307)
(0.000469991 -0.000137534 -1.745e-06 0.000469991 -6.07939e-20 0.000469991)
(0.000469991 -0.000137534 -1.745e-06 0.000469991 2.7467e-20 0.000469991)
(0.000510036 -0.000154911 -1.99351e-06 0.000510036 -3.8094e-20 0.000510036)
(0.000510036 -0.000154911 -1.99351e-06 0.000510036 3.08956e-20 0.000510036)
(0.000552489 -0.000173871 -2.26939e-06 0.000552489 -4.2763e-20 0.000552489)
(0.000552489 -0.000173871 -2.26939e-06 0.000552489 3.45269e-20 0.000552489)
(0.000597388 -0.000194467 -2.57435e-06 0.000597388 -4.79955e-20 0.000597388)
(0.000597388 -0.000194467 -2.57435e-06 0.000597388 3.83086e-20 0.000597388)
(0.000644757 -0.000216741 -2.91002e-06 0.000644757 -5.36024e-20 0.000644757)
(0.000644757 -0.000216741 -2.91002e-06 0.000644757 4.25716e-20 0.000644757)
(0.000694605 -0.000240721 -3.2779e-06 0.000694605 -5.96977e-20 0.000694605)
(0.000694605 -0.000240721 -3.2779e-06 0.000694605 4.68609e-20 0.000694605)
(0.00074693 -0.000266422 -3.67938e-06 0.00074693 -6.58888e-20 0.00074693)
(0.00074693 -0.000266422 -3.67938e-06 0.00074693 5.12567e-20 0.00074693)
(0.000801712 -0.000293842 -4.11565e-06 0.000801712 -7.19847e-20 0.000801712)
(0.000801712 -0.000293842 -4.11565e-06 0.000801712 5.5759e-20 0.000801712)
(0.000858917 -0.000322966 -4.58774e-06 0.000858917 -7.87486e-20 0.000858917)
(0.000858917 -0.000322966 -4.58774e-06 0.000858917 6.02326e-20 0.000858917)
(0.000918493 -0.000353762 -5.09646e-06 0.000918493 -8.57521e-20 0.000918493)
(0.000918493 -0.000353762 -5.09646e-06 0.000918493 6.54713e-20 0.000918493)
(0.000980375 -0.000386182 -5.64241e-06 0.000980375 -9.31489e-20 0.000980375)
(0.000980375 -0.000386182 -5.64241e-06 0.000980375 7.11081e-20 0.000980375)
(0.00104448 -0.000420164 -6.22596e-06 0.00104448 -1.014e-19 0.00104448)
(0.00104448 -0.000420164 -6.22596e-06 0.00104448 7.61593e-20 0.00104448)
(0.00111071 -0.00045563 -6.84724e-06 0.00111071 -1.09184e-19 0.00111071)
(0.00111071 -0.00045563 -6.84724e-06 0.00111071 8.14041e-20 0.00111071)
(0.00117895 -0.000492489 -7.50616e-06 0.00117895 -1.17117e-19 0.00117895)
(0.00117895 -0.000492489 -7.50616e-06 0.00117895 8.69424e-20 0.00117895)
(0.00124908 -0.000530639 -8.20241e-06 0.00124908 -1.24865e-19 0.00124908)
(0.00124908 -0.000530639 -8.20241e-06 0.00124908 9.30052e-20 0.00124908)
(0.00132096 -0.000569968 -8.93547e-06 0.00132096 -1.33261e-19 0.00132096)
(0.00132096 -0.000569968 -8.93547e-06 0.00132096 9.87802e-20 0.00132096)
(0.00139444 -0.000610355 -9.70462e-06 0.00139444 -1.42454e-19 0.00139444)
(0.00139444 -0.000610355 -9.70462e-06 0.00139444 1.05494e-19 0.00139444)
(0.00146936 -0.000651673 -1.0509e-05 0.00146936 -1.51566e-19 0.00146936)
(0.00146936 -0.000651673 -1.0509e-05 0.00146936 1.11124e-19 0.00146936)
(0.00154557 -0.00069379 -1.13474e-05 0.00154557 -1.61068e-19 0.00154557)
(0.00154557 -0.00069379 -1.13474e-05 0.00154557 1.16328e-19 0.00154557)
(0.00162288 -0.000736572 -1.22189e-05 0.00162288 -1.70244e-19 0.00162288)
(0.00162288 -0.000736572 -1.22189e-05 0.00162288 1.23917e-19 0.00162288)
(0.00170113 -0.000779886 -1.3122e-05 0.00170113 -1.79405e-19 0.00170113)
(0.00170113 -0.000779886 -1.3122e-05 0.00170113 1.30832e-19 0.00170113)
(0.00178014 -0.000823598 -1.40554e-05 0.00178014 -1.89729e-19 0.00178014)
(0.00178014 -0.000823598 -1.40554e-05 0.00178014 1.37298e-19 0.00178014)
(0.00185973 -0.000867576 -1.50176e-05 0.00185973 -1.75129e-19 0.00185973)
(0.00185973 -0.000867576 -1.50176e-05 0.00185973 1.43623e-19 0.00185973)
(0.00193972 -0.000911695 -1.60073e-05 0.00193972 1.70785e-19 0.00193972)
(0.00193972 -0.000911695 -1.60073e-05 0.00193972 1.49861e-19 0.00193972)
(0.00201994 -0.000955832 -1.70227e-05 0.00201994 5.37279e-19 0.00201994)
(0.00201994 -0.000955832 -1.70227e-05 0.00201994 1.55962e-19 0.00201994)
(0.00210023 -0.000999872 -1.80626e-05 0.00210023 5.83432e-19 0.00210023)
(0.00210023 -0.000999872 -1.80626e-05 0.00210023 1.63315e-19 0.00210023)
(0.00218041 -0.00104371 -1.91253e-05 0.00218041 6.3215e-19 0.00218041)
(0.00218041 -0.00104371 -1.91253e-05 0.00218041 1.74259e-19 0.00218041)
(0.00226033 -0.00108723 -2.02094e-05 0.00226033 6.80438e-19 0.00226033)
(0.00226033 -0.00108723 -2.02094e-05 0.00226033 1.80952e-19 0.00226033)
(0.00233984 -0.00113036 -2.13134e-05 0.00233984 7.31189e-19 0.00233984)
(0.00233984 -0.00113036 -2.13134e-05 0.00233984 1.87606e-19 0.00233984)
(0.00241878 -0.00117299 -2.24361e-05 0.00241878 7.82109e-19 0.00241878)
(0.00241878 -0.00117299 -2.24361e-05 0.00241878 2.01459e-19 0.00241878)
(0.00249703 -0.00121506 -2.35759e-05 0.00249703 8.30938e-19 0.00249703)
(0.00249703 -0.00121506 -2.35759e-05 0.00249703 2.0874e-19 0.00249703)
(0.00257445 -0.00125649 -2.47317e-05 0.00257445 8.82447e-19 0.00257445)
(0.00257445 -0.00125649 -2.47317e-05 0.00257445 2.18827e-19 0.00257445)
(0.00265092 -0.00129721 -2.59023e-05 0.00265092 9.38774e-19 0.00265092)
(0.00265092 -0.00129721 -2.59023e-05 0.00265092 2.32756e-19 0.00265092)
(0.00272634 -0.00133718 -2.70865e-05 0.00272634 9.91706e-19 0.00272634)
(0.00272634 -0.00133718 -2.70865e-05 0.00272634 2.43332e-19 0.00272634)
(0.00280058 -0.00137633 -2.82831e-05 0.00280058 1.05152e-18 0.00280058)
(0.00280058 -0.00137633 -2.82831e-05 0.00280058 2.6056e-19 0.00280058)
(0.00287357 -0.00141464 -2.94912e-05 0.00287357 1.11808e-18 0.00287357)
(0.00287357 -0.00141464 -2.94912e-05 0.00287357 2.74241e-19 0.00287357)
(0.00294522 -0.00145205 -3.07098e-05 0.00294522 1.18147e-18 0.00294522)
(0.00294522 -0.00145205 -3.07098e-05 0.00294522 2.87546e-19 0.00294522)
(0.00301543 -0.00148853 -3.1938e-05 0.00301543 1.24759e-18 0.00301543)
(0.00301543 -0.00148853 -3.1938e-05 0.00301543 3.03238e-19 0.00301543)
(0.00308416 -0.00152407 -3.31749e-05 0.00308416 1.31985e-18 0.00308416)
(0.00308416 -0.00152407 -3.31749e-05 0.00308416 3.20665e-19 0.00308416)
(0.00315132 -0.00155863 -3.44197e-05 0.00315132 1.31469e-18 0.00315132)
(0.00315132 -0.00155863 -3.44197e-05 0.00315132 3.30338e-19 0.00315132)
(0.00321687 -0.0015922 -3.56716e-05 0.00321687 6.54362e-19 0.00321687)
(0.00321687 -0.0015922 -3.56716e-05 0.00321687 3.60251e-19 0.00321687)
(0.00328075 -0.00162477 -3.693e-05 0.00328075 2.01272e-21 0.00328075)
(0.00328075 -0.00162477 -3.693e-05 0.00328075 3.76262e-19 0.00328075)
(0.00334292 -0.00165631 -3.81942e-05 0.00334292 -3.55675e-21 0.00334292)
(0.00334292 -0.00165631 -3.81942e-05 0.00334292 4.04628e-19 0.00334292)
(0.00340334 -0.00168684 -3.94635e-05 0.00340334 -7.31848e-21 0.00340334)
(0.00340334 -0.00168684 -3.94635e-05 0.00340334 4.20476e-19 0.00340334)
(0.00346199 -0.00171633 -4.07374e-05 0.00346199 1.29377e-20 0.00346199)
(0.00346199 -0.00171633 -4.07374e-05 0.00346199 4.3999e-19 0.00346199)
(0.00351884 -0.00174479 -4.20153e-05 0.00351884 2.78252e-20 0.00351884)
(0.00351884 -0.00174479 -4.20153e-05 0.00351884 4.42169e-19 0.00351884)
(0.00357386 -0.00177222 -4.32966e-05 0.00357386 4.15831e-21 0.00357386)
(0.00357386 -0.00177222 -4.32966e-05 0.00357386 4.73355e-19 0.00357386)
(0.00362704 -0.00179861 -4.4581e-05 0.00362704 2.19507e-21 0.00362704)
(0.00362704 -0.00179861 -4.4581e-05 0.00362704 4.88699e-19 0.00362704)
(0.00367837 -0.00182398 -4.58678e-05 0.00367837 1.44348e-20 0.00367837)
(0.00367837 -0.00182398 -4.58678e-05 0.00367837 5.05223e-19 0.00367837)
(0.00372783 -0.00184833 -4.71566e-05 0.00372783 1.81827e-20 0.00372783)
(0.00372783 -0.00184833 -4.71566e-05 0.00372783 5.1942e-19 0.00372783)
(0.00377542 -0.00187166 -4.8447e-05 0.00377542 2.24588e-20 0.00377542)
(0.00377542 -0.00187166 -4.8447e-05 0.00377542 5.05943e-19 0.00377542)
(0.00382115 -0.00189398 -4.97385e-05 0.00382115 1.54342e-20 0.00382115)
(0.00382115 -0.00189398 -4.97385e-05 0.00382115 5.17822e-19 0.00382115)
(0.00386501 -0.0019153 -5.10308e-05 0.00386501 8.05601e-21 0.00386501)
(0.00386501 -0.0019153 -5.10308e-05 0.00386501 5.34431e-19 0.00386501)
(0.003907 -0.00193563 -5.23234e-05 0.003907 -1.43571e-20 0.003907)
(0.003907 -0.00193563 -5.23234e-05 0.003907 5.40714e-19 0.003907)
(0.00394714 -0.00195498 -5.3616e-05 0.00394714 -3.37462e-20 0.00394714)
(0.00394714 -0.00195498 -5.3616e-05 0.00394714 5.60255e-19 0.00394714)
(0.00398542 -0.00197335 -5.49082e-05 0.00398542 -1.71983e-20 0.00398542)
(0.00398542 -0.00197335 -5.49082e-05 0.00398542 5.81788e-19 0.00398542)
(0.00402187 -0.00199077 -5.61996e-05 0.00402187 -2.4959e-20 0.00402187)
(0.00402187 -0.00199077 -5.61996e-05 0.00402187 6.21175e-19 0.00402187)
(0.0040565 -0.00200724 -5.74899e-05 0.0040565 -3.77483e-20 0.0040565)
(0.0040565 -0.00200724 -5.74899e-05 0.0040565 6.48965e-19 0.0040565)
(0.00408931 -0.00202278 -5.87786e-05 0.00408931 -8.3299e-21 0.00408931)
(0.00408931 -0.00202278 -5.87786e-05 0.00408931 6.4678e-19 0.00408931)
(0.00412032 -0.00203739 -6.00655e-05 0.00412032 -1.67687e-20 0.00412032)
(0.00412032 -0.00203739 -6.00655e-05 0.00412032 6.63382e-19 0.00412032)
(0.00414956 -0.0020511 -6.13502e-05 0.00414956 -2.23079e-20 0.00414956)
(0.00414956 -0.0020511 -6.13502e-05 0.00414956 6.7425e-19 0.00414956)
(0.00417704 -0.00206391 -6.26324e-05 0.00417704 -3.27255e-20 0.00417704)
(0.00417704 -0.00206391 -6.26324e-05 0.00417704 6.59085e-19 0.00417704)
(0.00420278 -0.00207583 -6.39117e-05 0.00420278 -5.13669e-20 0.00420278)
(0.00420278 -0.00207583 -6.39117e-05 0.00420278 6.77053e-19 0.00420278)
(0.0042268 -0.00208689 -6.51877e-05 0.0042268 -2.50285e-20 0.0042268)
(0.0042268 -0.00208689 -6.51877e-05 0.0042268 7.1773e-19 0.0042268)
(0.00424912 -0.00209709 -6.64603e-05 0.00424912 -2.16461e-20 0.00424912)
(0.00424912 -0.00209709 -6.64603e-05 0.00424912 7.51021e-19 0.00424912)
(0.00426977 -0.00210645 -6.7729e-05 0.00426977 -7.81479e-21 0.00426977)
(0.00426977 -0.00210645 -6.7729e-05 0.00426977 7.86337e-19 0.00426977)
(0.00428876 -0.00211498 -6.89934e-05 0.00428876 4.16349e-20 0.00428876)
(0.00428876 -0.00211498 -6.89934e-05 0.00428876 8.10379e-19 0.00428876)
(0.00430612 -0.0021227 -7.02534e-05 0.00430612 4.18895e-20 0.00430612)
(0.00430612 -0.0021227 -7.02534e-05 0.00430612 8.24349e-19 0.00430612)
(0.00432188 -0.00212961 -7.15085e-05 0.00432188 3.35315e-20 0.00432188)
(0.00432188 -0.00212961 -7.15085e-05 0.00432188 8.46117e-19 0.00432188)
(0.00433606 -0.00213575 -7.27584e-05 0.00433606 2.76087e-20 0.00433606)
(0.00433606 -0.00213575 -7.27584e-05 0.00433606 8.66653e-19 0.00433606)
(0.00434868 -0.0021411 -7.40028e-05 0.00434868 3.73621e-20 0.00434868)
(0.00434868 -0.0021411 -7.40028e-05 0.00434868 8.74348e-19 0.00434868)
(0.00435977 -0.00214571 -7.52415e-05 0.00435977 4.57933e-21 0.00435977)
(0.00435977 -0.00214571 -7.52415e-05 0.00435977 8.71986e-19 0.00435977)
(0.00436936 -0.00214956 -7.6474e-05 0.00436936 -2.39875e-20 0.00436936)
(0.00436936 -0.00214956 -7.6474e-05 0.00436936 8.94484e-19 0.00436936)
(0.00437746 -0.00215269 -7.77e-05 0.00437746 7.50043e-21 0.00437746)
(0.00437746 -0.00215269 -7.77e-05 0.00437746 9.14593e-19 0.00437746)
(0.00438412 -0.00215511 -7.89193e-05 0.00438412 2.51886e-20 0.00438412)
(0.00438412 -0.00215511 -7.89193e-05 0.00438412 9.23482e-19 0.00438412)
(0.00438935 -0.00215682 -8.01316e-05 0.00438935 5.72551e-20 0.00438935)
(0.00438935 -0.00215682 -8.01316e-05 0.00438935 9.31413e-19 0.00438935)
(0.00439318 -0.00215785 -8.13364e-05 0.00439318 8.0709e-20 0.00439318)
(0.00439318 -0.00215785 -8.13364e-05 0.00439318 9.49735e-19 0.00439318)
(0.00439564 -0.0021582 -8.25336e-05 0.00439564 3.81237e-21 0.00439564)
(0.00439564 -0.0021582 -8.25336e-05 0.00439564 9.81164e-19 0.00439564)
(0.00439675 -0.0021579 -8.37228e-05 0.00439675 -1.06179e-19 0.00439675)
(0.00439675 -0.0021579 -8.37228e-05 0.00439675 1.02733e-18 0.00439675)
(0.00439654 -0.00215695 -8.49037e-05 0.00439654 -3.6116e-21 0.00439654)
(0.00439654 -0.00215695 -8.49037e-05 0.00439654 1.09416e-18 0.00439654)
(0.00439504 -0.00215537 -8.60759e-05 0.00439504 2.99409e-20 0.00439504)
(0.00439504 -0.00215537 -8.60759e-05 0.00439504 1.13378e-18 0.00439504)
(0.00439228 -0.00215318 -8.72393e-05 0.00439228 -6.00308e-20 0.00439228)
(0.00439228 -0.00215318 -8.72393e-05 0.00439228 1.14751e-18 0.00439228)
(0.00438828 -0.00215038 -8.83935e-05 0.00438828 -6.8988e-20 0.00438828)
(0.00438828 -0.00215038 -8.83935e-05 0.00438828 1.18751e-18 0.00438828)
(0.00438306 -0.00214699 -8.95382e-05 0.00438306 -4.01973e-20 0.00438306)
(0.00438306 -0.00214699 -8.95382e-05 0.00438306 1.22478e-18 0.00438306)
(0.00437667 -0.00214303 -9.06731e-05 0.00437667 -8.92348e-21 0.00437667)
(0.00437667 -0.00214303 -9.06731e-05 0.00437667 1.24331e-18 0.00437667)
(0.00436911 -0.00213851 -9.1798e-05 0.00436911 1.66604e-21 0.00436911)
(0.00436911 -0.00213851 -9.1798e-05 0.00436911 1.28507e-18 0.00436911)
(0.00436042 -0.00213344 -9.29125e-05 0.00436042 5.07432e-20 0.00436042)
(0.00436042 -0.00213344 -9.29125e-05 0.00436042 1.35895e-18 0.00436042)
(0.00435063 -0.00212784 -9.40164e-05 0.00435063 1.37884e-19 0.00435063)
(0.00435063 -0.00212784 -9.40164e-05 0.00435063 1.42217e-18 0.00435063)
(0.00433977 -0.00212172 -9.51094e-05 0.00433977 2.66389e-19 0.00433977)
(0.00433977 -0.00212172 -9.51094e-05 0.00433977 1.46278e-18 0.00433977)
(0.00432785 -0.00211509 -9.61912e-05 0.00432785 2.10593e-19 0.00432785)
(0.00432785 -0.00211509 -9.61912e-05 0.00432785 1.50393e-18 0.00432785)
(0.0043149 -0.00210797 -9.72615e-05 0.0043149 1.37442e-19 0.0043149)
(0.0043149 -0.00210797 -9.72615e-05 0.0043149 1.53651e-18 0.0043149)
(0.00430096 -0.00210037 -9.83202e-05 0.00430096 1.94644e-19 0.00430096)
(0.00430096 -0.00210037 -9.83202e-05 0.00430096 1.57312e-18 0.00430096)
(0.00428605 -0.00209231 -9.93669e-05 0.00428605 2.63864e-19 0.00428605)
(0.00428605 -0.00209231 -9.93669e-05 0.00428605 1.59923e-18 0.00428605)
(0.00427019 -0.00208379 -0.000100401 0.00427019 2.33422e-19 0.00427019)
(0.00427019 -0.00208379 -0.000100401 0.00427019 1.59413e-18 0.00427019)
(0.00425341 -0.00207483 -0.000101423 0.00425341 1.71834e-19 0.00425341)
(0.00425341 -0.00207483 -0.000101423 0.00425341 1.63408e-18 0.00425341)
(0.00423573 -0.00206545 -0.000102433 0.00423573 3.15906e-19 0.00423573)
(0.00423573 -0.00206545 -0.000102433 0.00423573 1.70645e-18 0.00423573)
(0.00421719 -0.00205565 -0.000103429 0.00421719 4.2131e-19 0.00421719)
(0.00421719 -0.00205565 -0.000103429 0.00421719 1.77177e-18 0.00421719)
(0.0041978 -0.00204545 -0.000104412 0.0041978 3.14571e-19 0.0041978)
(0.0041978 -0.00204545 -0.000104412 0.0041978 1.85378e-18 0.0041978)
(0.00417759 -0.00203487 -0.000105382 0.00417759 6.68548e-20 0.00417759)
(0.00417759 -0.00203487 -0.000105382 0.00417759 1.97147e-18 0.00417759)
(0.00415659 -0.00202391 -0.000106338 0.00415659 2.31151e-19 0.00415659)
(0.00415659 -0.00202391 -0.000106338 0.00415659 2.04559e-18 0.00415659)
(0.00413482 -0.00201258 -0.00010728 0.00413482 9.33413e-20 0.00413482)
(0.00413482 -0.00201258 -0.00010728 0.00413482 2.08642e-18 0.00413482)
(0.0041123 -0.00200091 -0.000108208 0.0041123 3.89574e-19 0.0041123)
(0.0041123 -0.00200091 -0.000108208 0.0041123 2.19335e-18 0.0041123)
(0.00408907 -0.00198889 -0.000109122 0.00408907 -8.28704e-20 0.00408907)
(0.00408907 -0.00198889 -0.000109122 0.00408907 2.29666e-18 0.00408907)
(0.00406513 -0.00197655 -0.000110021 0.00406513 -3.76462e-21 0.00406513)
(0.00406513 -0.00197655 -0.000110021 0.00406513 -3.85968e-19 0.00406513)
(0.00404053 -0.0019639 -0.000110906 0.00404053 2.22037e-19 0.00404053)
(0.00404053 -0.0019639 -0.000110906 0.00404053 -3.35444e-18 0.00404053)
(0.00401527 -0.00195094 -0.000111775 0.00401527 3.74028e-19 0.00401527)
(0.00401527 -0.00195094 -0.000111775 0.00401527 -4.66915e-18 0.00401527)
(0.00398939 -0.00193769 -0.00011263 0.00398939 3.21161e-19 0.00398939)
(0.00398939 -0.00193769 -0.00011263 0.00398939 -4.52233e-18 0.00398939)
(0.0039629 -0.00192417 -0.000113469 0.0039629 2.6079e-19 0.0039629)
(0.0039629 -0.00192417 -0.000113469 0.0039629 -4.54294e-18 0.0039629)
(0.00393583 -0.00191037 -0.000114293 0.00393583 3.86387e-20 0.00393583)
(0.00393583 -0.00191037 -0.000114293 0.00393583 -4.7663e-18 0.00393583)
(0.00390821 -0.00189632 -0.000115101 0.00390821 8.97445e-20 0.00390821)
(0.00390821 -0.00189632 -0.000115101 0.00390821 -4.96452e-18 0.00390821)
(0.00388005 -0.00188203 -0.000115894 0.00388005 5.92136e-20 0.00388005)
(0.00388005 -0.00188203 -0.000115894 0.00388005 -5.20718e-18 0.00388005)
(0.00385137 -0.0018675 -0.00011667 0.00385137 -3.47312e-20 0.00385137)
(0.00385137 -0.0018675 -0.00011667 0.00385137 -5.22869e-18 0.00385137)
(0.0038222 -0.00185275 -0.000117431 0.0038222 4.3781e-20 0.0038222)
(0.0038222 -0.00185275 -0.000117431 0.0038222 -5.06575e-18 0.0038222)
(0.00379256 -0.00183778 -0.000118175 0.00379256 -3.68907e-20 0.00379256)
(0.00379256 -0.00183778 -0.000118175 0.00379256 -5.00402e-18 0.00379256)
(0.00376247 -0.00182261 -0.000118903 0.00376247 1.30085e-19 0.00376247)
(0.00376247 -0.00182261 -0.000118903 0.00376247 -5.01593e-18 0.00376247)
(0.00373195 -0.00180726 -0.000119614 0.00373195 8.67405e-20 0.00373195)
(0.00373195 -0.00180726 -0.000119614 0.00373195 -4.95621e-18 0.00373195)
(0.00370103 -0.00179172 -0.000120309 0.00370103 -6.93127e-20 0.00370103)
(0.00370103 -0.00179172 -0.000120309 0.00370103 -4.9902e-18 0.00370103)
(0.00366971 -0.001776 -0.000120987 0.00366971 4.21712e-20 0.00366971)
(0.00366971 -0.001776 -0.000120987 0.00366971 -5.17757e-18 0.00366971)
(0.00363802 -0.00176013 -0.000121648 0.00363802 3.18479e-19 0.00363802)
(0.00363802 -0.00176013 -0.000121648 0.00363802 -5.07274e-18 0.00363802)
(0.00360598 -0.00174411 -0.000122292 0.00360598 2.7865e-19 0.00360598)
(0.00360598 -0.00174411 -0.000122292 0.00360598 -5.15261e-18 0.00360598)
(0.00357362 -0.00172794 -0.000122919 0.00357362 1.80635e-19 0.00357362)
(0.00357362 -0.00172794 -0.000122919 0.00357362 -5.31208e-18 0.00357362)
(0.00354094 -0.00171164 -0.000123528 0.00354094 2.47285e-19 0.00354094)
(0.00354094 -0.00171164 -0.000123528 0.00354094 -5.12046e-18 0.00354094)
(0.00350796 -0.00169521 -0.00012412 0.00350796 5.05136e-19 0.00350796)
(0.00350796 -0.00169521 -0.00012412 0.00350796 -5.3028e-18 0.00350796)
(0.00347471 -0.00167867 -0.000124695 0.00347471 3.54703e-19 0.00347471)
(0.00347471 -0.00167867 -0.000124695 0.00347471 -5.23899e-18 0.00347471)
(0.00344121 -0.00166203 -0.000125253 0.00344121 4.30114e-19 0.00344121)
(0.00344121 -0.00166203 -0.000125253 0.00344121 -4.92592e-18 0.00344121)
(0.00340746 -0.00164529 -0.000125792 0.00340746 6.6415e-19 0.00340746)
(0.00340746 -0.00164529 -0.000125792 0.00340746 -4.79985e-18 0.00340746)
(0.00337349 -0.00162846 -0.000126315 0.00337349 5.76949e-19 0.00337349)
(0.00337349 -0.00162846 -0.000126315 0.00337349 -4.67863e-18 0.00337349)
(0.00333932 -0.00161155 -0.000126819 0.00333932 4.32555e-19 0.00333932)
(0.00333932 -0.00161155 -0.000126819 0.00333932 -4.91662e-18 0.00333932)
(0.00330495 -0.00159456 -0.000127306 0.00330495 2.88378e-19 0.00330495)
(0.00330495 -0.00159456 -0.000127306 0.00330495 -4.98158e-18 0.00330495)
(0.00327042 -0.00157751 -0.000127774 0.00327042 3.47586e-19 0.00327042)
(0.00327042 -0.00157751 -0.000127774 0.00327042 -4.84806e-18 0.00327042)
(0.00323572 -0.00156041 -0.000128225 0.00323572 5.00801e-19 0.00323572)
(0.00323572 -0.00156041 -0.000128225 0.00323572 -4.8785e-18 0.00323572)
(0.00320088 -0.00154325 -0.000128658 0.00320088 7.11757e-19 0.00320088)
(0.00320088 -0.00154325 -0.000128658 0.00320088 -4.68869e-18 0.00320088)
(0.00316592 -0.00152606 -0.000129072 0.00316592 6.52553e-19 0.00316592)
(0.00316592 -0.00152606 -0.000129072 0.00316592 -4.37288e-18 0.00316592)
(0.00313085 -0.00150883 -0.000129469 0.00313085 4.6191e-19 0.00313085)
(0.00313085 -0.00150883 -0.000129469 0.00313085 -4.41824e-18 0.00313085)
(0.00309567 -0.00149157 -0.000129847 0.00309567 2.46672e-19 0.00309567)
(0.00309567 -0.00149157 -0.000129847 0.00309567 -4.80489e-18 0.00309567)
(0.00306042 -0.00147429 -0.000130208 0.00306042 4.78174e-19 0.00306042)
(0.00306042 -0.00147429 -0.000130208 0.00306042 -5.07717e-18 0.00306042)
(0.00302509 -0.001457 -0.00013055 0.00302509 7.74791e-19 0.00302509)
(0.00302509 -0.001457 -0.00013055 0.00302509 -5.13126e-18 0.00302509)
(0.00298971 -0.0014397 -0.000130874 0.00298971 7.84906e-19 0.00298971)
(0.00298971 -0.0014397 -0.000130874 0.00298971 -4.87575e-18 0.00298971)
(0.00295429 -0.00142239 -0.000131179 0.00295429 8.078e-19 0.00295429)
(0.00295429 -0.00142239 -0.000131179 0.00295429 -4.35273e-18 0.00295429)
(0.00291883 -0.0014051 -0.000131467 0.00291883 5.83742e-19 0.00291883)
(0.00291883 -0.0014051 -0.000131467 0.00291883 -3.92677e-19 0.00291883)
(0.00288336 -0.00138781 -0.000131735 0.00288336 6.72152e-19 0.00288336)
(0.00288336 -0.00138781 -0.000131735 0.00288336 3.60394e-18 0.00288336)
(0.00284788 -0.00137054 -0.000131986 0.00284788 6.1418e-19 0.00284788)
(0.00284788 -0.00137054 -0.000131986 0.00284788 4.71949e-18 0.00284788)
(0.00281241 -0.00135329 -0.000132218 0.00281241 5.34685e-19 0.00281241)
(0.00281241 -0.00135329 -0.000132218 0.00281241 4.69742e-18 0.00281241)
(0.00277696 -0.00133608 -0.000132432 0.00277696 7.55e-19 0.00277696)
(0.00277696 -0.00133608 -0.000132432 0.00277696 4.67848e-18 0.00277696)
(0.00274153 -0.00131889 -0.000132628 0.00274153 5.2871e-19 0.00274153)
(0.00274153 -0.00131889 -0.000132628 0.00274153 5.27081e-18 0.00274153)