/*--------------------------------*- C++ -*----------------------------------*\
| =========                 |                                                 |
| \\      /  F ield         | OpenFOAM: The Open Source CFD Toolbox           |
|  \\    /   O peration     | Version:  2012                                  |
|   \\  /    A nd           | Website:  www.openfoam.com                      |
|    \\/     M anipulation  |                                                 |
\*---------------------------------------------------------------------------*/
FoamFile
{
    version     2.0;
    format      ascii;
    class       volScalarField;
    location    "13900";
    object      nut;
}
// * * * * * * * * * * * * * * * * * * * * * * * * * * * * * * * * * * * * * //

dimensions      [0 2 -1 0 0 0 0];


internalField   nonuniform List<scalar> 
2560
(
3.43917e-09
3.43917e-09
4.63791e-07
4.63791e-07
9.70871e-06
9.70871e-06
6.78872e-05
6.78872e-05
0.000228471
0.000228471
0.000489484
0.000489484
0.000820131
0.000820131
0.00119703
0.00119703
0.00160606
0.00160606
0.00203849
0.00203849
0.00248852
0.00248852
0.00295209
0.00295209
0.00342616
0.00342616
0.00390841
0.00390841
0.00439697
0.00439697
0.00489034
0.00489034
0.00538723
0.00538723
0.00588656
0.00588656
0.00638738
0.00638738
0.00688886
0.00688886
0.00739024
0.00739024
0.00789085
0.00789085
0.00839005
0.00839005
0.00888726
0.00888726
0.00938194
0.00938194
0.00987356
0.00987356
0.0103616
0.0103616
0.0108457
0.0108457
0.0113252
0.0113252
0.0117998
0.0117998
0.012269
0.012269
0.0127324
0.0127324
0.0131896
0.0131896
0.0136402
0.0136402
0.0140837
0.0140837
0.0145199
0.0145199
0.0149483
0.0149483
0.0153686
0.0153686
0.0157805
0.0157805
0.0161837
0.0161837
0.0165778
0.0165778
0.0169627
0.0169627
0.0173381
0.0173381
0.017704
0.017704
0.0180601
0.0180601
0.0184064
0.0184064
0.0187429
0.0187429
0.0190698
0.0190698
0.0193871
0.0193871
0.0196952
0.0196952
0.0199944
0.0199944
0.0202851
0.0202851
0.0205679
0.0205679
0.0208437
0.0208437
0.0211131
0.0211131
0.0213773
0.0213773
0.0216375
0.0216375
0.021895
0.021895
0.0221513
0.0221513
0.0224082
0.0224082
0.0226675
0.0226675
0.0229313
0.0229313
0.0232017
0.0232017
0.0234812
0.0234812
0.0237721
0.0237721
0.0240769
0.0240769
0.0243981
0.0243981
0.0247382
0.0247382
0.0250994
0.0250994
0.0254839
0.0254839
0.0258936
0.0258936
0.0263301
0.0263301
0.0267945
0.0267945
0.0272875
0.0272875
0.0278095
0.0278095
0.0283602
0.0283602
0.0289388
0.0289388
0.0295442
0.0295442
0.0301746
0.0301746
0.0308281
0.0308281
0.0315022
0.0315022
0.0321942
0.0321942
0.0329013
0.0329013
0.0336205
0.0336205
0.0343488
0.0343488
0.035083
0.035083
0.0358203
0.0358203
0.0365577
0.0365577
0.0372925
0.0372925
0.0380222
0.0380222
0.0387445
0.0387445
0.0394571
0.0394571
0.0401583
0.0401583
0.0408462
0.0408462
0.0415195
0.0415195
0.0421769
0.0421769
0.0428173
0.0428173
0.0434398
0.0434398
0.0440439
0.0440439
0.044629
0.044629
0.0451947
0.0451947
0.0457409
0.0457409
0.0462673
0.0462673
0.0467741
0.0467741
0.0472613
0.0472613
0.0477291
0.0477291
0.0481778
0.0481778
0.0486076
0.0486076
0.049019
0.049019
0.0494123
0.0494123
0.0497879
0.0497879
0.0501463
0.0501463
0.050488
0.050488
0.0508134
0.0508134
0.0511229
0.0511229
0.0514172
0.0514172
0.0516967
0.0516967
0.0519617
0.0519617
0.0522129
0.0522129
0.0524505
0.0524505
0.0526751
0.0526751
0.0528871
0.0528871
0.0530869
0.0530869
0.0532748
0.0532748
0.0534512
0.0534512
0.0536165
0.0536165
0.0537709
0.0537709
0.0539149
0.0539149
0.0540486
0.0540486
0.0541724
0.0541724
0.0542864
0.0542864
0.054391
0.054391
0.0544864
0.0544864
0.0545728
0.0545728
0.0546504
0.0546504
0.0547194
0.0547194
0.05478
0.05478
0.0548324
0.0548324
0.0548767
0.0548767
0.0549131
0.0549131
0.0549418
0.0549418
0.0549629
0.0549629
0.0549765
0.0549765
0.0549829
0.0549829
0.0549821
0.0549821
0.0549744
0.0549744
0.0549598
0.0549598
0.0549385
0.0549385
0.0549107
0.0549107
0.0548765
0.0548765
0.0548362
0.0548362
0.0547898
0.0547898
0.0547377
0.0547377
0.05468
0.05468
0.054617
0.054617
0.0545488
0.0545489
0.0544759
0.0544759
0.0543983
0.0543983
0.0543165
0.0543165
0.0542306
0.0542306
0.0541411
0.0541411
0.0540482
0.0540482
0.0539521
0.0539521
0.0538531
0.0538531
0.0537515
0.0537515
0.0536474
0.0536474
0.0535412
0.0535412
0.0534328
0.0534328
0.0533225
0.0533225
0.0532104
0.0532104
0.0530965
0.0530965
0.052981
0.052981
0.0528639
0.0528639
0.0527454
0.0527454
0.0526258
0.0526258
0.052505
0.052505
0.0523835
0.0523835
0.0522615
0.0522615
0.0521392
0.0521392
0.0520171
0.0520171
0.0518953
0.0518953
0.0517744
0.0517744
0.0516546
0.0516546
0.0515364
0.0515364
0.0514201
0.0514201
0.051306
0.051306
0.0511946
0.0511946
0.0510863
0.0510863
0.0509813
0.0509813
0.0508802
0.0508802
0.0507834
0.0507834
0.0506914
0.0506914
0.0506048
0.0506048
0.0505243
0.0505243
0.0504504
0.0504504
0.0503841
0.0503841
0.050326
0.050326
0.0502772
0.0502772
0.0502383
0.0502383
0.0502105
0.0502105
0.0501947
0.0501947
0.0501917
0.0501917
0.0502026
0.0502026
0.0502282
0.0502282
0.0502693
0.0502693
0.0503265
0.0503265
0.0504005
0.0504005
0.0504918
0.0504918
0.0506007
0.0506007
0.0507277
0.0507277
0.0508731
0.0508731
0.0510373
0.0510373
0.0512204
0.0512204
0.0514225
0.0514226
0.0516438
0.0516438
0.0518838
0.0518838
0.0521422
0.0521422
0.0524182
0.0524182
0.0527108
0.0527108
0.0530188
0.0530188
0.0533407
0.0533407
0.0536749
0.0536749
0.0540198
0.0540198
0.054374
0.0543741
0.0547366
0.0547367
0.0551068
0.0551068
0.055484
0.055484
0.0558676
0.0558677
0.0562569
0.056257
0.0566506
0.0566506
0.0570471
0.0570471
0.0574445
0.0574445
0.0578411
0.0578412
0.0582354
0.0582355
0.0586263
0.0586263
0.0590126
0.0590126
0.0593938
0.0593939
0.0597697
0.0597698
0.0601408
0.0601408
0.0605079
0.060508
0.0608725
0.0608726
0.0612359
0.061236
0.0615989
0.061599
0.0619614
0.0619615
0.0623223
0.0623224
0.0626792
0.0626793
0.0630286
0.0630287
0.0633657
0.0633659
0.0636852
0.0636854
0.0639817
0.0639819
0.0642518
0.064252
0.0644946
0.0644949
0.0647125
0.0647127
0.06491
0.0649103
0.0650939
0.0650942
0.0652714
0.0652718
0.0654485
0.0654489
0.0656286
0.0656291
0.0658125
0.0658131
0.0660003
0.0660008
0.0661927
0.0661932
0.0663932
0.0663937
0.0666089
0.0666093
0.0668471
0.0668474
0.0671151
0.0671152
0.0674186
0.0674186
0.0677627
0.0677628
0.0681512
0.0681513
0.068587
0.068587
0.0690721
0.0690722
0.0696081
0.0696082
0.0701957
0.0701959
0.0708343
0.0708345
0.0715212
0.0715214
0.0722514
0.0722516
0.0730173
0.0730175
0.0738092
0.0738093
0.0746148
0.074615
0.0754201
0.0754202
0.0762108
0.0762109
0.0769746
0.0769747
0.0777002
0.0777002
0.0783742
0.0783742
0.0789806
0.0789806
0.079504
0.0795039
0.0799348
0.0799347
0.0802733
0.0802732
0.0805284
0.0805283
0.0807155
0.0807154
0.0808582
0.0808581
0.0809878
0.0809877
0.0811347
0.0811347
0.0813182
0.0813183
0.0815452
0.0815452
0.0818173
0.0818174
0.0821366
0.0821368
0.0825054
0.0825055
0.0829253
0.0829255
0.0833979
0.0833982
0.0839232
0.0839235
0.0844972
0.0844976
0.0851099
0.0851103
0.0857462
0.0857467
0.0863891
0.0863897
0.0870188
0.0870195
0.0876059
0.0876067
0.088112
0.0881127
0.0885016
0.0885023
0.0887566
0.088757
0.0888832
0.0888834
0.0889067
0.0889067
0.0888555
0.0888554
0.08875
0.0887498
0.0886068
0.0886066
0.0884473
0.0884472
0.0882937
0.0882937
0.0881599
0.08816
0.0880501
0.0880503
0.0879666
0.0879669
0.0879182
0.0879185
3.43917e-09
3.43917e-09
4.63791e-07
4.63791e-07
9.70871e-06
9.70871e-06
6.78872e-05
6.78872e-05
0.000228471
0.000228471
0.000489484
0.000489484
0.000820131
0.000820131
0.00119703
0.00119703
0.00160606
0.00160606
0.00203849
0.00203849
0.00248852
0.00248852
0.00295209
0.00295209
0.00342616
0.00342616
0.00390841
0.00390841
0.00439697
0.00439697
0.00489034
0.00489034
0.00538723
0.00538723
0.00588656
0.00588656
0.00638738
0.00638738
0.00688886
0.00688886
0.00739024
0.00739024
0.00789085
0.00789085
0.00839005
0.00839005
0.00888726
0.00888726
0.00938194
0.00938194
0.00987356
0.00987356
0.0103616
0.0103616
0.0108457
0.0108457
0.0113252
0.0113252
0.0117998
0.0117998
0.012269
0.012269
0.0127324
0.0127324
0.0131896
0.0131896
0.0136402
0.0136402
0.0140837
0.0140837
0.0145199
0.0145199
0.0149483
0.0149483
0.0153686
0.0153686
0.0157805
0.0157805
0.0161837
0.0161837
0.0165778
0.0165778
0.0169627
0.0169627
0.0173381
0.0173381
0.017704
0.017704
0.0180601
0.0180601
0.0184064
0.0184064
0.0187429
0.0187429
0.0190698
0.0190698
0.0193871
0.0193871
0.0196952
0.0196952
0.0199944
0.0199944
0.0202851
0.0202851
0.0205679
0.0205679
0.0208437
0.0208437
0.0211131
0.0211131
0.0213773
0.0213773
0.0216375
0.0216375
0.021895
0.021895
0.0221513
0.0221513
0.0224082
0.0224082
0.0226675
0.0226675
0.0229313
0.0229313
0.0232017
0.0232017
0.0234812
0.0234812
0.0237721
0.0237721
0.0240769
0.0240769
0.0243981
0.0243981
0.0247382
0.0247382
0.0250994
0.0250994
0.0254839
0.0254839
0.0258936
0.0258936
0.0263301
0.0263301
0.0267945
0.0267945
0.0272875
0.0272875
0.0278095
0.0278095
0.0283602
0.0283602
0.0289388
0.0289388
0.0295442
0.0295442
0.0301746
0.0301746
0.0308281
0.0308281
0.0315022
0.0315022
0.0321942
0.0321942
0.0329013
0.0329013
0.0336205
0.0336205
0.0343488
0.0343488
0.035083
0.035083
0.0358203
0.0358203
0.0365577
0.0365577
0.0372925
0.0372925
0.0380222
0.0380222
0.0387445
0.0387445
0.0394571
0.0394571
0.0401583
0.0401583
0.0408462
0.0408462
0.0415195
0.0415195
0.0421769
0.0421769
0.0428173
0.0428173
0.0434398
0.0434398
0.0440439
0.0440439
0.044629
0.044629
0.0451947
0.0451947
0.0457409
0.0457409
0.0462673
0.0462673
0.0467741
0.0467741
0.0472613
0.0472613
0.0477291
0.0477291
0.0481778
0.0481778
0.0486076
0.0486076
0.049019
0.049019
0.0494123
0.0494123
0.0497879
0.0497879
0.0501463
0.0501463
0.050488
0.050488
0.0508134
0.0508133
0.0511229
0.0511229
0.0514172
0.0514172
0.0516967
0.0516967
0.0519617
0.0519617
0.0522128
0.0522128
0.0524505
0.0524505
0.0526751
0.0526751
0.0528871
0.0528871
0.0530869
0.0530869
0.0532748
0.0532748
0.0534512
0.0534512
0.0536165
0.0536165
0.0537709
0.0537709
0.0539149
0.0539149
0.0540486
0.0540486
0.0541724
0.0541724
0.0542864
0.0542864
0.054391
0.054391
0.0544864
0.0544864
0.0545728
0.0545728
0.0546504
0.0546504
0.0547194
0.0547194
0.05478
0.05478
0.0548324
0.0548324
0.0548767
0.0548767
0.0549131
0.0549131
0.0549418
0.0549418
0.0549628
0.0549628
0.0549765
0.0549765
0.0549829
0.0549829
0.0549821
0.0549821
0.0549744
0.0549744
0.0549598
0.0549598
0.0549385
0.0549385
0.0549107
0.0549107
0.0548765
0.0548765
0.0548362
0.0548362
0.0547898
0.0547898
0.0547377
0.0547377
0.05468
0.05468
0.054617
0.054617
0.0545488
0.0545488
0.0544759
0.0544759
0.0543983
0.0543983
0.0543165
0.0543165
0.0542306
0.0542306
0.0541411
0.0541411
0.0540481
0.0540481
0.0539521
0.0539521
0.0538531
0.0538531
0.0537515
0.0537515
0.0536474
0.0536474
0.0535412
0.0535412
0.0534328
0.0534328
0.0533225
0.0533225
0.0532104
0.0532104
0.0530965
0.0530965
0.052981
0.052981
0.0528639
0.0528639
0.0527454
0.0527454
0.0526258
0.0526258
0.052505
0.052505
0.0523835
0.0523835
0.0522615
0.0522615
0.0521392
0.0521392
0.0520171
0.0520171
0.0518953
0.0518953
0.0517744
0.0517744
0.0516546
0.0516546
0.0515364
0.0515364
0.0514201
0.0514201
0.051306
0.051306
0.0511946
0.0511946
0.0510863
0.0510863
0.0509813
0.0509813
0.0508802
0.0508802
0.0507834
0.0507834
0.0506914
0.0506914
0.0506048
0.0506048
0.0505242
0.0505242
0.0504504
0.0504504
0.0503841
0.0503841
0.050326
0.050326
0.0502772
0.0502772
0.0502383
0.0502383
0.0502105
0.0502105
0.0501947
0.0501947
0.0501917
0.0501917
0.0502026
0.0502026
0.0502282
0.0502282
0.0502693
0.0502693
0.0503265
0.0503265
0.0504005
0.0504005
0.0504918
0.0504918
0.0506007
0.0506007
0.0507277
0.0507277
0.0508731
0.0508731
0.0510373
0.0510373
0.0512204
0.0512204
0.0514226
0.0514226
0.0516438
0.0516438
0.0518839
0.0518839
0.0521422
0.0521422
0.0524182
0.0524182
0.0527109
0.0527108
0.0530189
0.0530188
0.0533408
0.0533407
0.0536749
0.0536749
0.0540198
0.0540198
0.0543741
0.0543741
0.0547367
0.0547367
0.0551069
0.0551069
0.0554841
0.0554841
0.0558678
0.0558677
0.0562571
0.056257
0.0566507
0.0566507
0.0570472
0.0570472
0.0574446
0.0574446
0.0578413
0.0578412
0.0582356
0.0582356
0.0586264
0.0586264
0.0590128
0.0590127
0.059394
0.059394
0.0597699
0.0597699
0.060141
0.0601409
0.0605081
0.0605081
0.0608727
0.0608727
0.0612361
0.0612361
0.0615991
0.061599
0.0619617
0.0619616
0.0623226
0.0623225
0.0626795
0.0626794
0.0630289
0.0630287
0.0633661
0.0633659
0.0636855
0.0636853
0.063982
0.0639819
0.0642521
0.0642519
0.064495
0.0644948
0.0647128
0.0647126
0.0649104
0.0649101
0.0650943
0.065094
0.0652718
0.0652715
0.065449
0.0654486
0.0656291
0.0656286
0.0658131
0.0658126
0.0660009
0.0660003
0.0661933
0.0661927
0.0663937
0.0663932
0.0666093
0.0666089
0.0668474
0.0668472
0.0671152
0.0671151
0.0674187
0.0674186
0.0677628
0.0677628
0.0681514
0.0681513
0.0685871
0.0685871
0.0690723
0.0690722
0.0696084
0.0696083
0.0701961
0.0701959
0.0708347
0.0708345
0.0715217
0.0715215
0.0722519
0.0722517
0.0730179
0.0730177
0.0738098
0.0738096
0.0746154
0.0746153
0.0754206
0.0754205
0.0762113
0.0762112
0.0769751
0.076975
0.0777006
0.0777005
0.0783745
0.0783744
0.0789808
0.0789808
0.0795039
0.079504
0.0799346
0.0799347
0.0802731
0.0802732
0.0805281
0.0805282
0.0807151
0.0807152
0.0808578
0.0808579
0.0809874
0.0809875
0.0811344
0.0811345
0.0813181
0.0813181
0.0815452
0.0815451
0.0818174
0.0818173
0.0821368
0.0821367
0.0825056
0.0825054
0.0829256
0.0829254
0.0833984
0.0833981
0.0839238
0.0839235
0.084498
0.0844976
0.0851108
0.0851103
0.0857472
0.0857466
0.0863902
0.0863896
0.08702
0.0870193
0.0876071
0.0876063
0.088113
0.0881123
0.0885024
0.0885018
0.088757
0.0887566
0.0888833
0.0888831
0.0889065
0.0889065
0.088855
0.0888551
0.0887494
0.0887496
0.0886062
0.0886064
0.0884468
0.0884469
0.0882934
0.0882934
0.0881597
0.0881596
0.0880501
0.0880499
0.0879667
0.0879664
0.0879184
0.0879181
0.0879174
0.0879177
0.0879644
0.0879647
0.0880462
0.0880464
0.0881535
0.0881536
0.0882851
0.0882851
0.088436
0.0884359
0.0885924
0.0885922
0.0887329
0.0887327
0.0888336
0.0888335
0.0888777
0.0888777
0.0888473
0.0888475
0.0887156
0.088716
0.0884569
0.0884575
0.0880659
0.0880666
0.0875621
0.0875629
0.0869797
0.0869804
0.0863548
0.0863554
0.0857162
0.0857167
0.0850836
0.085084
0.0844744
0.0844748
0.0839044
0.0839047
0.0833832
0.0833834
0.0829147
0.0829149
0.0824988
0.0824989
0.0821339
0.082134
0.0818183
0.0818184
0.0815498
0.0815498
0.0813263
0.0813263
0.081146
0.081146
0.0810018
0.0810018
0.0808752
0.0808751
0.0807352
0.0807351
0.0805494
0.0805493
0.0802939
0.0802938
0.0799531
0.079953
0.0795185
0.0795185
0.0789915
0.0789915
0.0783825
0.0783825
0.0777067
0.0777067
0.07698
0.07698
0.0762151
0.0762152
0.0754234
0.0754235
0.0746171
0.0746173
0.0738103
0.0738105
0.0730172
0.0730174
0.0722501
0.0722503
0.0715188
0.071519
0.070831
0.0708312
0.0701918
0.070192
0.0696037
0.0696038
0.0690672
0.0690673
0.0685818
0.0685819
0.0681458
0.0681458
0.067757
0.067757
0.0674126
0.0674127
0.067109
0.0671091
0.066841
0.0668413
0.0666026
0.066603
0.0663869
0.0663874
0.0661866
0.0661872
0.0659946
0.0659952
0.065807
0.0658076
0.0656229
0.0656234
0.0654424
0.0654428
0.0652647
0.065265
0.0650864
0.0650867
0.064902
0.0649023
0.0647044
0.0647046
0.0644864
0.0644866
0.0642431
0.0642433
0.0639722
0.0639724
0.0636752
0.0636754
0.0633558
0.0633559
0.063019
0.0630191
0.0626704
0.0626705
0.0623148
0.0623149
0.0619553
0.0619554
0.061594
0.0615941
0.0612318
0.0612318
0.0608686
0.0608687
0.0605039
0.060504
0.0601365
0.0601366
0.0597652
0.0597653
0.059389
0.0593891
0.0590077
0.0590077
0.0586211
0.0586212
0.0582303
0.0582304
0.0578362
0.0578362
0.0574397
0.0574397
0.0570424
0.0570425
0.0566464
0.0566464
0.0562532
0.0562533
0.0558646
0.0558646
0.0554817
0.0554818
0.0551054
0.0551054
0.0547359
0.0547359
0.0543737
0.0543737
0.0540198
0.0540198
0.0536751
0.0536752
0.0533411
0.0533412
0.0530195
0.0530195
0.0527117
0.0527118
0.0524193
0.0524193
0.0521434
0.0521434
0.0518851
0.0518851
0.0516449
0.0516449
0.0514235
0.0514235
0.0512211
0.0512211
0.0510378
0.0510378
0.0508735
0.0508735
0.050728
0.050728
0.050601
0.050601
0.0504921
0.0504921
0.0504009
0.0504009
0.050327
0.050327
0.0502698
0.0502698
0.0502289
0.0502289
0.0502034
0.0502034
0.0501926
0.0501926
0.0501956
0.0501956
0.0502115
0.0502115
0.0502393
0.0502393
0.0502782
0.0502782
0.0503271
0.0503271
0.0503852
0.0503852
0.0504516
0.0504516
0.0505254
0.0505254
0.050606
0.050606
0.0506926
0.0506926
0.0507846
0.0507846
0.0508815
0.0508815
0.0509826
0.0509826
0.0510876
0.0510876
0.0511959
0.0511959
0.0513073
0.0513073
0.0514213
0.0514213
0.0515376
0.0515376
0.0516559
0.0516559
0.0517756
0.0517756
0.0518966
0.0518966
0.0520183
0.0520183
0.0521405
0.0521405
0.0522628
0.0522628
0.0523849
0.0523849
0.0525064
0.0525064
0.0526271
0.0526271
0.0527468
0.0527468
0.0528653
0.0528653
0.0529824
0.0529824
0.0530979
0.0530979
0.0532119
0.0532119
0.053324
0.053324
0.0534344
0.0534344
0.0535428
0.0535428
0.0536491
0.0536491
0.0537532
0.0537532
0.0538548
0.0538548
0.0539538
0.0539538
0.0540499
0.0540499
0.0541429
0.0541429
0.0542324
0.0542324
0.0543183
0.0543183
0.0544001
0.0544001
0.0544777
0.0544777
0.0545507
0.0545507
0.0546189
0.0546189
0.0546819
0.0546819
0.0547397
0.0547397
0.0547918
0.0547918
0.0548382
0.0548382
0.0548785
0.0548785
0.0549128
0.0549128
0.0549406
0.0549406
0.0549619
0.0549619
0.0549766
0.0549766
0.0549844
0.0549844
0.0549852
0.0549852
0.0549789
0.0549789
0.0549653
0.0549653
0.0549443
0.0549443
0.0549157
0.0549157
0.0548794
0.0548794
0.0548352
0.0548352
0.0547829
0.0547829
0.0547224
0.0547224
0.0546534
0.0546534
0.0545759
0.0545759
0.0544895
0.0544895
0.0543942
0.0543942
0.0542896
0.0542896
0.0541756
0.0541756
0.0540519
0.0540519
0.0539182
0.0539182
0.0537743
0.0537743
0.0536199
0.0536199
0.0534546
0.0534546
0.0532782
0.0532782
0.0530903
0.0530903
0.0528905
0.0528905
0.0526785
0.0526785
0.0524538
0.0524538
0.0522161
0.0522161
0.0519649
0.0519649
0.0516997
0.0516997
0.0514201
0.0514201
0.0511257
0.0511257
0.050816
0.050816
0.0504905
0.0504905
0.0501489
0.0501489
0.0497904
0.0497904
0.0494148
0.0494148
0.0490216
0.0490216
0.0486102
0.0486102
0.0481804
0.0481804
0.0477318
0.0477318
0.047264
0.047264
0.0467767
0.0467767
0.0462699
0.0462699
0.0457435
0.0457435
0.0451973
0.0451973
0.0446316
0.0446316
0.0440466
0.0440466
0.0434426
0.0434426
0.0428201
0.0428201
0.0421798
0.0421798
0.0415225
0.0415225
0.0408492
0.0408492
0.0401611
0.0401611
0.0394597
0.0394597
0.0387467
0.0387467
0.038024
0.038024
0.037294
0.037294
0.036559
0.036559
0.0358214
0.0358214
0.035084
0.035084
0.0343495
0.0343495
0.0336211
0.0336211
0.0329016
0.0329016
0.0321942
0.0321942
0.0315018
0.0315018
0.0308275
0.0308275
0.0301737
0.0301737
0.029543
0.029543
0.0289374
0.0289374
0.0283585
0.0283585
0.0278076
0.0278076
0.0272854
0.0272854
0.0267921
0.0267921
0.0263275
0.0263275
0.0258908
0.0258908
0.0254808
0.0254808
0.0250961
0.0250961
0.0247348
0.0247348
0.0243946
0.0243946
0.0240732
0.0240732
0.0237683
0.0237683
0.0234773
0.0234773
0.0231978
0.0231978
0.0229272
0.0229272
0.0226634
0.0226634
0.022404
0.022404
0.0221471
0.0221471
0.0218908
0.0218908
0.0216333
0.0216333
0.0213732
0.0213732
0.021109
0.021109
0.0208397
0.0208397
0.0205641
0.0205641
0.0202814
0.0202814
0.0199908
0.0199908
0.0196918
0.0196918
0.0193838
0.0193838
0.0190667
0.0190667
0.01874
0.01874
0.0184036
0.0184036
0.0180574
0.0180574
0.0177015
0.0177015
0.0173358
0.0173358
0.0169605
0.0169605
0.0165757
0.0165757
0.0161817
0.0161817
0.0157787
0.0157787
0.0153669
0.0153669
0.0149467
0.0149467
0.0145184
0.0145184
0.0140824
0.0140824
0.0136389
0.0136389
0.0131884
0.0131884
0.0127313
0.0127313
0.0122679
0.0122679
0.0117988
0.0117988
0.0113243
0.0113243
0.0108448
0.0108448
0.0103609
0.0103609
0.00987288
0.00987288
0.00938134
0.00938134
0.00888673
0.00888673
0.00838957
0.00838957
0.00789043
0.00789043
0.00738987
0.00738987
0.00688853
0.00688853
0.0063871
0.0063871
0.00588631
0.00588631
0.00538702
0.00538702
0.00489016
0.00489016
0.00439683
0.00439683
0.00390829
0.00390829
0.00342607
0.00342607
0.00295202
0.00295202
0.00248847
0.00248847
0.00203845
0.00203845
0.00160604
0.00160604
0.00119702
0.00119702
0.000820126
0.000820126
0.000489483
0.000489483
0.000228471
0.000228471
6.78876e-05
6.78876e-05
9.70877e-06
9.70877e-06
4.63792e-07
4.63793e-07
3.43926e-09
3.43926e-09
0.0879177
0.0879174
0.0879647
0.0879645
0.0880465
0.0880463
0.0881537
0.0881536
0.0882853
0.0882852
0.088436
0.0884362
0.0885924
0.0885926
0.0887328
0.0887331
0.0888337
0.0888338
0.0888778
0.0888778
0.0888476
0.0888474
0.088716
0.0887156
0.0884575
0.0884569
0.0880665
0.0880658
0.0875627
0.087562
0.0869802
0.0869795
0.0863552
0.0863546
0.0857165
0.085716
0.0850838
0.0850834
0.0844747
0.0844743
0.0839045
0.0839042
0.0833833
0.0833831
0.0829148
0.0829146
0.0824989
0.0824987
0.082134
0.0821339
0.0818185
0.0818184
0.0815499
0.0815498
0.0813264
0.0813264
0.0811461
0.0811461
0.081002
0.081002
0.0808753
0.0808754
0.0807353
0.0807355
0.0805496
0.0805497
0.080294
0.0802941
0.0799532
0.0799533
0.0795186
0.0795186
0.0789915
0.0789915
0.0783825
0.0783824
0.0777066
0.0777066
0.0769799
0.0769799
0.0762151
0.076215
0.0754233
0.0754232
0.0746171
0.074617
0.0738103
0.0738101
0.0730172
0.073017
0.0722501
0.0722499
0.0715189
0.0715187
0.0708311
0.0708309
0.0701919
0.0701917
0.0696037
0.0696036
0.0690673
0.0690672
0.0685819
0.0685818
0.0681458
0.0681458
0.067757
0.067757
0.0674127
0.0674127
0.0671092
0.0671091
0.0668413
0.0668411
0.0666031
0.0666027
0.0663875
0.066387
0.0661873
0.0661867
0.0659953
0.0659947
0.0658077
0.0658071
0.0656235
0.065623
0.065443
0.0654426
0.0652652
0.0652648
0.0650868
0.0650865
0.0649024
0.0649021
0.0647047
0.0647045
0.0644867
0.0644865
0.0642433
0.0642431
0.0639725
0.0639723
0.0636754
0.0636753
0.063356
0.0633558
0.0630191
0.063019
0.0626706
0.0626704
0.0623149
0.0623148
0.0619554
0.0619553
0.061594
0.0615939
0.0612318
0.0612317
0.0608686
0.0608686
0.0605039
0.0605038
0.0601365
0.0601364
0.0597652
0.0597651
0.059389
0.0593889
0.0590076
0.0590075
0.0586211
0.058621
0.0582302
0.0582302
0.0578361
0.057836
0.0574396
0.0574395
0.0570423
0.0570423
0.0566462
0.0566462
0.0562531
0.0562531
0.0558645
0.0558644
0.0554816
0.0554816
0.0551053
0.0551052
0.0547357
0.0547357
0.0543736
0.0543735
0.0540196
0.0540196
0.053675
0.053675
0.053341
0.053341
0.0530193
0.0530193
0.0527116
0.0527116
0.0524192
0.0524192
0.0521433
0.0521433
0.0518849
0.0518849
0.0516448
0.0516447
0.0514233
0.0514233
0.051221
0.051221
0.0510377
0.0510377
0.0508734
0.0508734
0.0507279
0.0507279
0.0506009
0.0506009
0.050492
0.050492
0.0504009
0.0504008
0.0503269
0.0503269
0.0502698
0.0502698
0.0502288
0.0502288
0.0502033
0.0502033
0.0501925
0.0501925
0.0501955
0.0501955
0.0502114
0.0502114
0.0502393
0.0502393
0.0502781
0.0502781
0.050327
0.050327
0.0503851
0.0503851
0.0504515
0.0504515
0.0505254
0.0505254
0.0506059
0.0506059
0.0506925
0.0506925
0.0507846
0.0507846
0.0508814
0.0508814
0.0509826
0.0509826
0.0510875
0.0510875
0.0511959
0.0511959
0.0513073
0.0513073
0.0514213
0.0514213
0.0515376
0.0515376
0.0516558
0.0516558
0.0517756
0.0517756
0.0518966
0.0518966
0.0520183
0.0520183
0.0521405
0.0521405
0.0522628
0.0522628
0.0523848
0.0523848
0.0525064
0.0525064
0.0526271
0.0526271
0.0527468
0.0527468
0.0528653
0.0528653
0.0529823
0.0529823
0.0530979
0.0530979
0.0532118
0.0532118
0.053324
0.053324
0.0534344
0.0534344
0.0535428
0.0535428
0.0536491
0.0536491
0.0537532
0.0537532
0.0538548
0.0538548
0.0539538
0.0539538
0.0540499
0.0540499
0.0541429
0.0541429
0.0542324
0.0542324
0.0543183
0.0543183
0.0544001
0.0544001
0.0544777
0.0544777
0.0545507
0.0545507
0.0546189
0.0546189
0.0546819
0.0546819
0.0547397
0.0547397
0.0547918
0.0547918
0.0548382
0.0548382
0.0548785
0.0548785
0.0549127
0.0549127
0.0549406
0.0549406
0.0549619
0.0549619
0.0549766
0.0549766
0.0549844
0.0549844
0.0549852
0.0549852
0.0549789
0.0549789
0.0549653
0.0549653
0.0549443
0.0549443
0.0549157
0.0549157
0.0548794
0.0548794
0.0548352
0.0548352
0.0547829
0.0547829
0.0547224
0.0547224
0.0546534
0.0546534
0.0545759
0.0545759
0.0544895
0.0544895
0.0543942
0.0543942
0.0542896
0.0542896
0.0541755
0.0541755
0.0540519
0.0540519
0.0539182
0.0539182
0.0537743
0.0537743
0.0536199
0.0536199
0.0534546
0.0534546
0.0532782
0.0532782
0.0530903
0.0530903
0.0528905
0.0528905
0.0526785
0.0526784
0.0524538
0.0524538
0.0522161
0.0522161
0.0519648
0.0519648
0.0516997
0.0516997
0.0514201
0.0514201
0.0511257
0.0511257
0.050816
0.050816
0.0504905
0.0504905
0.0501489
0.0501489
0.0497904
0.0497904
0.0494148
0.0494148
0.0490215
0.0490215
0.0486102
0.0486102
0.0481804
0.0481804
0.0477318
0.0477318
0.047264
0.047264
0.0467767
0.0467767
0.0462699
0.0462699
0.0457435
0.0457434
0.0451973
0.0451973
0.0446316
0.0446316
0.0440466
0.0440466
0.0434426
0.0434426
0.0428201
0.0428201
0.0421798
0.0421798
0.0415225
0.0415225
0.0408491
0.0408491
0.0401611
0.0401611
0.0394597
0.0394597
0.0387466
0.0387466
0.038024
0.038024
0.037294
0.037294
0.036559
0.036559
0.0358214
0.0358214
0.035084
0.035084
0.0343495
0.0343495
0.033621
0.033621
0.0329016
0.0329016
0.0321942
0.0321942
0.0315018
0.0315018
0.0308274
0.0308274
0.0301737
0.0301737
0.029543
0.029543
0.0289373
0.0289373
0.0283585
0.0283585
0.0278076
0.0278076
0.0272854
0.0272854
0.0267921
0.0267921
0.0263275
0.0263275
0.0258908
0.0258908
0.0254808
0.0254808
0.0250961
0.0250961
0.0247348
0.0247348
0.0243946
0.0243946
0.0240732
0.0240732
0.0237683
0.0237683
0.0234773
0.0234773
0.0231978
0.0231978
0.0229272
0.0229272
0.0226634
0.0226634
0.022404
0.022404
0.0221471
0.0221471
0.0218908
0.0218908
0.0216333
0.0216333
0.0213732
0.0213732
0.021109
0.021109
0.0208397
0.0208397
0.0205641
0.0205641
0.0202814
0.0202814
0.0199908
0.0199908
0.0196918
0.0196918
0.0193838
0.0193838
0.0190667
0.0190667
0.01874
0.01874
0.0184036
0.0184036
0.0180574
0.0180574
0.0177015
0.0177015
0.0173358
0.0173358
0.0169605
0.0169605
0.0165757
0.0165757
0.0161817
0.0161817
0.0157787
0.0157787
0.0153669
0.0153669
0.0149467
0.0149467
0.0145184
0.0145184
0.0140824
0.0140824
0.0136389
0.0136389
0.0131884
0.0131884
0.0127313
0.0127313
0.0122679
0.0122679
0.0117988
0.0117988
0.0113243
0.0113243
0.0108448
0.0108448
0.0103609
0.0103609
0.00987288
0.00987288
0.00938134
0.00938134
0.00888673
0.00888673
0.00838957
0.00838957
0.00789043
0.00789043
0.00738987
0.00738987
0.00688853
0.00688853
0.0063871
0.0063871
0.00588631
0.00588631
0.00538702
0.00538702
0.00489016
0.00489016
0.00439683
0.00439683
0.00390829
0.00390829
0.00342607
0.00342607
0.00295202
0.00295202
0.00248847
0.00248847
0.00203845
0.00203845
0.00160604
0.00160604
0.00119702
0.00119702
0.000820126
0.000820126
0.000489483
0.000489483
0.000228471
0.000228471
6.78876e-05
6.78875e-05
9.70877e-06
9.70876e-06
4.63792e-07
4.63792e-07
3.43926e-09
3.43926e-09
)
;

boundaryField
{
    walls
    {
        type            nutUWallFunction;
        blending        stepwise;
        Cmu             0.09;
        kappa           0.41;
        E               9.8;
        value           uniform 0;
    }
    inlet
    {
        type            cyclic;
    }
    outlet
    {
        type            cyclic;
    }
    sides
    {
        type            empty;
    }
}


// ************************************************************************* //
