/*--------------------------------*- C++ -*----------------------------------*\
| =========                 |                                                 |
| \\      /  F ield         | OpenFOAM: The Open Source CFD Toolbox           |
|  \\    /   O peration     | Version:  2012                                  |
|   \\  /    A nd           | Website:  www.openfoam.com                      |
|    \\/     M anipulation  |                                                 |
\*---------------------------------------------------------------------------*/
FoamFile
{
    version     2.0;
    format      ascii;
    class       volSymmTensorField;
    location    "12800";
    object      turbulenceProperties:R;
}
// * * * * * * * * * * * * * * * * * * * * * * * * * * * * * * * * * * * * * //

dimensions      [0 2 -2 0 0 0 0];


internalField   nonuniform List<symmTensor> 
2560
(
(0.00212178 -2.22984e-06 -3.22986e-09 0.00212178 3.93427e-11 0.00212178)
(0.00212179 -2.22986e-06 -3.22988e-09 0.00212179 1.23279e-15 0.00212179)
(0.0479882 -0.00028976 -1.2658e-06 0.0479882 -1.26707e-13 0.0479882)
(0.0479883 -0.000289762 -1.26581e-06 0.0479883 3.85241e-13 0.0479883)
(0.339239 -0.00608913 -3.65275e-05 0.339239 -2.38564e-08 0.339239)
(0.33924 -0.00608917 -3.65277e-05 0.33924 1.58766e-11 0.33924)
(1.15069 -0.0445843 -0.000271329 1.15069 -2.89564e-07 1.15069)
(1.15069 -0.0445846 -0.000271331 1.15069 1.43009e-10 1.15069)
(2.42385 -0.164038 -0.00101277 2.42385 -8.66699e-07 2.42385)
(2.42386 -0.164039 -0.00101277 2.42386 4.15085e-10 2.42386)
(3.79166 -0.378603 -0.00237141 3.79166 -1.11599e-06 3.79166)
(3.79166 -0.378604 -0.00237142 3.79166 7.60559e-10 3.79166)
(5.06864 -0.665255 -0.00422747 5.06864 -1.01039e-06 5.06864)
(5.06864 -0.665257 -0.00422749 5.06864 1.30914e-09 5.06864)
(6.23422 -1.00033 -0.00644937 6.23422 -8.34888e-07 6.23422)
(6.23423 -1.00034 -0.00644939 6.23423 2.2479e-09 6.23423)
(7.3069 -1.36853 -0.00895194 7.3069 -6.875e-07 7.3069)
(7.30691 -1.36853 -0.00895195 7.30691 3.59771e-09 7.30691)
(8.30637 -1.76038 -0.0116834 8.30637 -5.76725e-07 8.30637)
(8.30638 -1.76038 -0.0116834 8.30638 5.27133e-09 8.30638)
(9.24775 -2.16979 -0.0146112 9.24775 -4.94658e-07 9.24775)
(9.24776 -2.16979 -0.0146112 9.24776 7.34226e-09 9.24776)
(10.142 -2.59265 -0.0177144 10.142 -4.33735e-07 10.142)
(10.142 -2.59265 -0.0177144 10.142 9.7801e-09 10.142)
(10.9971 -3.02608 -0.0209787 10.9971 -3.88594e-07 10.9971)
(10.9971 -3.02608 -0.0209787 10.9971 1.26059e-08 10.9971)
(11.8187 -3.46797 -0.0243947 11.8187 -3.55677e-07 11.8187)
(11.8187 -3.46797 -0.0243947 11.8187 1.58847e-08 11.8187)
(12.6113 -3.91677 -0.0279556 12.6113 -3.32686e-07 12.6113)
(12.6113 -3.91677 -0.0279556 12.6113 1.9603e-08 12.6113)
(13.3779 -4.37125 -0.031657 13.3779 -3.18065e-07 13.3779)
(13.3779 -4.37125 -0.0316569 13.3779 2.38101e-08 13.3779)
(14.121 -4.83046 -0.0354954 14.121 -3.10885e-07 14.121)
(14.121 -4.83045 -0.0354953 14.121 2.8482e-08 14.121)
(14.8423 -5.29356 -0.0394683 14.8423 -3.10515e-07 14.8423)
(14.8423 -5.29355 -0.0394682 14.8423 3.37337e-08 14.8423)
(15.5431 -5.75982 -0.0435734 15.5431 -3.16608e-07 15.5431)
(15.5431 -5.75982 -0.0435734 15.5431 3.9566e-08 15.5431)
(16.2241 -6.22856 -0.0478086 16.2241 -3.29035e-07 16.2241)
(16.2241 -6.22856 -0.0478086 16.2241 4.58935e-08 16.2241)
(16.8861 -6.69908 -0.0521713 16.8861 -3.47789e-07 16.8861)
(16.8861 -6.69907 -0.0521713 16.8861 5.2863e-08 16.8861)
(17.5292 -7.17063 -0.0566583 17.5292 -3.72969e-07 17.5292)
(17.5292 -7.17063 -0.0566582 17.5292 6.05976e-08 17.5292)
(18.1536 -7.64241 -0.0612653 18.1536 -4.04714e-07 18.1536)
(18.1536 -7.64241 -0.0612653 18.1536 6.89358e-08 18.1536)
(18.7591 -8.11354 -0.0659876 18.7591 -4.43434e-07 18.7591)
(18.7591 -8.11353 -0.0659875 18.7591 7.77621e-08 18.7591)
(19.3454 -8.58301 -0.0708184 19.3454 -4.8928e-07 19.3454)
(19.3454 -8.583 -0.0708183 19.3454 -1.29581e-07 19.3454)
(19.912 -9.04969 -0.0757496 19.912 -5.42813e-07 19.912)
(19.912 -9.04968 -0.0757495 19.912 -4.60474e-07 19.912)
(20.4585 -9.51231 -0.0807717 20.4585 -6.04253e-07 20.4585)
(20.4585 -9.51231 -0.0807716 20.4585 -6.04919e-07 20.4585)
(20.984 -9.96951 -0.0858734 20.984 -6.74355e-07 20.984)
(20.984 -9.96951 -0.0858733 20.984 -6.7484e-07 20.984)
(21.4877 -10.4198 -0.0910409 21.4877 -5.0843e-07 21.4877)
(21.4877 -10.4198 -0.0910409 21.4877 -7.53599e-07 21.4877)
(21.9689 -10.8613 -0.0962585 21.9689 -2.31723e-07 21.9689)
(21.9689 -10.8613 -0.0962585 21.9689 -8.42204e-07 21.9689)
(22.4265 -11.2924 -0.101509 22.4265 -1.72781e-07 22.4265)
(22.4265 -11.2924 -0.101509 22.4265 -9.4076e-07 22.4265)
(22.8595 -11.7111 -0.106772 22.8595 -1.89501e-07 22.8595)
(22.8595 -11.7111 -0.106772 22.8595 -1.05047e-06 22.8595)
(23.2669 -12.1153 -0.112026 23.2669 -2.06891e-07 23.2669)
(23.2669 -12.1153 -0.112026 23.2669 -1.17141e-06 23.2669)
(23.6476 -12.5028 -0.117246 23.6476 -2.25109e-07 23.6476)
(23.6476 -12.5028 -0.117246 23.6476 -1.30487e-06 23.6476)
(24.0004 -12.8714 -0.122406 24.0004 -2.4449e-07 24.0004)
(24.0004 -12.8714 -0.122406 24.0004 -1.45111e-06 24.0004)
(24.3244 -13.2187 -0.127478 24.3244 -2.65601e-07 24.3244)
(24.3244 -13.2187 -0.127478 24.3244 -1.6114e-06 24.3244)
(24.6184 -13.5424 -0.132431 24.6184 -2.87284e-07 24.6184)
(24.6184 -13.5424 -0.132431 24.6184 -1.78611e-06 24.6184)
(24.8814 -13.84 -0.137232 24.8814 -3.0996e-07 24.8814)
(24.8814 -13.84 -0.137232 24.8814 -1.97654e-06 24.8814)
(25.1124 -14.1091 -0.141849 25.1124 -3.34012e-07 25.1124)
(25.1124 -14.1091 -0.141849 25.1124 -2.18317e-06 25.1124)
(25.3107 -14.3474 -0.146247 25.3107 -3.6002e-07 25.3107)
(25.3106 -14.3474 -0.146247 25.3106 -3.79517e-07 25.3106)
(25.4753 -14.5525 -0.150389 25.4753 -3.86915e-07 25.4753)
(25.4753 -14.5525 -0.150389 25.4753 -1.52564e-07 25.4753)
(25.6058 -14.7222 -0.154237 25.6058 -4.14598e-07 25.6058)
(25.6058 -14.7222 -0.154237 25.6058 -1.24949e-07 25.6058)
(25.7016 -14.8543 -0.157755 25.7016 -4.43915e-07 25.7016)
(25.7016 -14.8543 -0.157755 25.7016 -1.47513e-07 25.7016)
(25.7623 -14.9469 -0.160907 25.7623 -4.74951e-07 25.7623)
(25.7623 -14.9469 -0.160907 25.7623 -1.70284e-07 25.7623)
(25.788 -14.9982 -0.163654 25.788 -5.07273e-07 25.788)
(25.788 -14.9982 -0.163654 25.788 -1.92054e-07 25.788)
(25.7786 -15.0065 -0.16596 25.7786 -5.40279e-07 25.7786)
(25.7786 -15.0065 -0.16596 25.7786 -2.14155e-07 25.7786)
(25.7344 -14.9706 -0.167791 25.7344 -5.75454e-07 25.7344)
(25.7344 -14.9706 -0.167791 25.7344 -2.35809e-07 25.7344)
(25.6562 -14.8893 -0.169113 25.6562 -6.13401e-07 25.6562)
(25.6562 -14.8893 -0.169112 25.6562 -2.56895e-07 25.6562)
(25.5446 -14.7616 -0.169892 25.5446 -6.51377e-07 25.5446)
(25.5446 -14.7616 -0.169892 25.5446 -2.76661e-07 25.5446)
(25.4008 -14.5871 -0.170099 25.4008 -6.87213e-07 25.4008)
(25.4008 -14.5871 -0.170099 25.4008 -2.96374e-07 25.4008)
(25.2261 -14.3656 -0.169714 25.2261 -7.31236e-07 25.2261)
(25.2261 -14.3656 -0.169714 25.2261 -3.17246e-07 25.2261)
(25.0224 -14.0973 -0.168708 25.0224 -7.74166e-07 25.0224)
(25.0224 -14.0973 -0.168708 25.0224 -3.38095e-07 25.0224)
(24.7914 -13.7822 -0.167056 24.7914 -8.09372e-07 24.7914)
(24.7914 -13.7822 -0.167056 24.7914 -3.54311e-07 24.7914)
(24.5356 -13.4212 -0.164753 24.5356 -8.6043e-07 24.5356)
(24.5356 -13.4212 -0.164753 24.5356 -3.74999e-07 24.5356)
(24.2574 -13.0154 -0.161777 24.2574 -9.02895e-07 24.2574)
(24.2574 -13.0154 -0.161777 24.2574 -3.87725e-07 24.2574)
(23.9597 -12.5659 -0.158121 23.9597 -9.50936e-07 23.9597)
(23.9597 -12.5659 -0.15812 23.9597 -4.01862e-07 23.9597)
(23.6456 -12.0745 -0.153782 23.6456 -9.97597e-07 23.6456)
(23.6456 -12.0745 -0.153782 23.6456 -4.17034e-07 23.6456)
(23.3184 -11.5429 -0.148759 23.3184 -1.03766e-06 23.3184)
(23.3184 -11.5429 -0.148759 23.3184 -4.28246e-07 23.3184)
(22.9816 -10.9734 -0.143058 22.9816 -1.0878e-06 22.9816)
(22.9816 -10.9734 -0.143058 22.9816 -4.40364e-07 22.9816)
(22.6388 -10.3684 -0.136683 22.6388 -1.13344e-06 22.6388)
(22.6388 -10.3684 -0.136683 22.6388 -4.46668e-07 22.6388)
(22.294 -9.73004 -0.129645 22.294 -1.182e-06 22.294)
(22.294 -9.73003 -0.129645 22.294 -4.53681e-07 22.294)
(21.9509 -9.06094 -0.121954 21.9509 -1.21973e-06 21.9509)
(21.9509 -9.06094 -0.121954 21.9509 -4.53381e-07 21.9509)
(21.6134 -8.36382 -0.11363 21.6134 -1.2604e-06 21.6134)
(21.6134 -8.36382 -0.11363 21.6134 -4.57603e-07 21.6134)
(21.2855 -7.64159 -0.104695 21.2855 -1.30931e-06 21.2855)
(21.2855 -7.64159 -0.104695 21.2855 -4.57873e-07 21.2855)
(20.9707 -6.89663 -0.0951564 20.9707 -1.33968e-06 20.9707)
(20.9707 -6.89663 -0.0951564 20.9707 -4.47762e-07 20.9707)
(20.6729 -6.13156 -0.0850449 20.6729 -1.37234e-06 20.6729)
(20.6729 -6.13155 -0.0850449 20.6729 -4.45313e-07 20.6729)
(20.3951 -5.34929 -0.0743829 20.3951 -1.40693e-06 20.3951)
(20.3951 -5.34928 -0.0743829 20.3951 -8.20817e-07 20.3951)
(20.1405 -4.55224 -0.0631893 20.1405 -1.42804e-06 20.1405)
(20.1405 -4.55224 -0.0631892 20.1405 -1.32814e-06 20.1405)
(19.9117 -3.7428 -0.0514888 19.9117 -1.46289e-06 19.9117)
(19.9116 -3.74279 -0.0514888 19.9117 -1.47293e-06 19.9116)
(19.7108 -2.9234 -0.0393054 19.7108 -1.46056e-06 19.7108)
(19.7108 -2.92339 -0.0393054 19.7108 -1.47866e-06 19.7108)
(19.5396 -2.09663 -0.0266719 19.5396 -1.50164e-06 19.5396)
(19.5396 -2.09663 -0.0266718 19.5396 -1.51686e-06 19.5396)
(19.3992 -1.26487 -0.0136082 19.3992 -1.49591e-06 19.3992)
(19.3992 -1.26486 -0.0136081 19.3992 -1.51509e-06 19.3992)
(19.2903 -0.0187838 -0.000153762 19.2903 -1.52917e-06 19.2903)
(19.2903 -0.0187763 -0.000153701 19.2903 -1.54108e-06 19.2903)
(19.2129 0.000200133 -1.66209e-06 19.2129 -1.52766e-06 19.2129)
(19.2129 0.000207723 -1.72513e-06 19.2129 -1.54292e-06 19.2129)
(19.1666 1.23421 -0.0139144 19.1666 -1.55472e-06 19.1666)
(19.1666 1.23422 -0.0139144 19.1666 -1.56218e-06 19.1666)
(19.1503 2.05921 -0.0283283 19.1503 -1.54985e-06 19.1503)
(19.1503 2.05922 -0.0283283 19.1503 -1.56213e-06 19.1503)
(19.1623 2.87486 -0.0430358 19.1623 -1.57461e-06 19.1623)
(19.1623 2.87487 -0.0430359 19.1623 -1.57576e-06 19.1623)
(19.2008 3.67741 -0.0579698 19.2008 -1.58454e-06 19.2008)
(19.2008 3.67741 -0.0579699 19.2008 -1.58124e-06 19.2008)
(19.2632 4.46327 -0.0730634 19.2632 -1.60057e-06 19.2632)
(19.2632 4.46328 -0.0730635 19.2632 -1.60512e-06 19.2632)
(19.3468 5.22872 -0.0882476 19.3468 -1.62353e-06 19.3468)
(19.3468 5.22873 -0.0882476 19.3468 -1.62408e-06 19.3468)
(19.4487 5.96974 -0.103442 19.4487 -1.62605e-06 19.4487)
(19.4487 5.96974 -0.103442 19.4487 -1.64068e-06 19.4487)
(19.5656 6.68214 -0.118558 19.5656 -1.67185e-06 19.5656)
(19.5656 6.68214 -0.118558 19.5656 -1.67984e-06 19.5656)
(19.6944 7.36216 -0.1335 19.6944 -1.67755e-06 19.6944)
(19.6944 7.36216 -0.1335 19.6944 -1.69571e-06 19.6944)
(19.8315 8.0062 -0.148188 19.8315 -1.72824e-06 19.8315)
(19.8315 8.0062 -0.148188 19.8315 -1.73323e-06 19.8315)
(19.9739 8.61062 -0.162524 19.9739 -1.75889e-06 19.9739)
(19.9739 8.61063 -0.162524 19.9739 -1.77231e-06 19.9739)
(20.1182 9.17257 -0.176417 20.1182 -1.81347e-06 20.1182)
(20.1182 9.17258 -0.176417 20.1182 -1.81641e-06 20.1182)
(20.2614 9.68975 -0.189791 20.2614 -1.84191e-06 20.2614)
(20.2614 9.68975 -0.189791 20.2614 -1.8577e-06 20.2614)
(20.4005 10.1601 -0.202571 20.4005 -1.90491e-06 20.4005)
(20.4005 10.1601 -0.202572 20.4005 -1.90924e-06 20.4005)
(20.533 10.5821 -0.214686 20.533 -1.93163e-06 20.533)
(20.533 10.5821 -0.214687 20.533 -1.94994e-06 20.533)
(20.6564 10.9547 -0.226075 20.6564 -2.00892e-06 20.6564)
(20.6564 10.9547 -0.226075 20.6564 -2.01253e-06 20.6564)
(20.7685 11.2775 -0.23668 20.7685 -2.05719e-06 20.7685)
(20.7685 11.2775 -0.23668 20.7685 -2.0697e-06 20.7685)
(20.8674 11.5511 -0.246469 20.8674 -2.12618e-06 20.8674)
(20.8674 11.5511 -0.24647 20.8674 -2.1226e-06 20.8674)
(20.9515 11.7762 -0.255419 20.9515 -2.16813e-06 20.9515)
(20.9515 11.7762 -0.255419 20.9515 -2.16925e-06 20.9515)
(21.0194 11.954 -0.263509 21.0194 -2.23515e-06 21.0194)
(21.0194 11.954 -0.263509 21.0194 -2.24071e-06 21.0194)
(21.0702 12.0861 -0.270725 21.0702 -2.31175e-06 21.0702)
(21.0702 12.0861 -0.270725 21.0702 -2.31038e-06 21.0702)
(21.103 12.1748 -0.277074 21.103 -2.33851e-06 21.103)
(21.103 12.1748 -0.277074 21.103 -2.3553e-06 21.103)
(21.1171 12.2224 -0.282578 21.1171 -2.42043e-06 21.1171)
(21.1171 12.2224 -0.282579 21.1171 -2.41407e-06 21.1171)
(21.1123 12.2313 -0.287242 21.1123 -2.47478e-06 21.1123)
(21.1123 12.2313 -0.287242 21.1124 -2.46822e-06 21.1123)
(21.0885 12.2044 -0.291095 21.0885 -2.51907e-06 21.0885)
(21.0885 12.2044 -0.291095 21.0885 -2.53154e-06 21.0885)
(21.0457 12.1445 -0.294174 21.0457 -2.59834e-06 21.0457)
(21.0457 12.1445 -0.294174 21.0457 -2.59903e-06 21.0457)
(20.984 12.0549 -0.296514 20.984 -2.62e-06 20.984)
(20.984 12.0549 -0.296514 20.984 -2.637e-06 20.984)
(20.904 11.9383 -0.298162 20.904 -2.67945e-06 20.904)
(20.904 11.9383 -0.298162 20.904 -2.67205e-06 20.904)
(20.806 11.7975 -0.299156 20.806 -2.73492e-06 20.806)
(20.806 11.7975 -0.299156 20.806 -2.72728e-06 20.806)
(20.6906 11.6354 -0.299537 20.6906 -2.771e-06 20.6906)
(20.6906 11.6354 -0.299537 20.6906 -2.76315e-06 20.6906)
(20.5586 11.4548 -0.299359 20.5586 -2.80813e-06 20.5586)
(20.5586 11.4548 -0.299359 20.5586 -2.81308e-06 20.5586)
(20.4107 11.2582 -0.298664 20.4107 -2.85566e-06 20.4107)
(20.4107 11.2582 -0.298664 20.4107 -2.84937e-06 20.4107)
(20.2477 11.0483 -0.297502 20.2477 -2.8666e-06 20.2477)
(20.2477 11.0483 -0.297502 20.2477 -2.88235e-06 20.2477)
(20.0705 10.8272 -0.295918 20.0705 -2.91812e-06 20.0705)
(20.0705 10.8272 -0.295918 20.0705 -2.91447e-06 20.0705)
(19.8799 10.597 -0.29395 19.8799 -2.92223e-06 19.8799)
(19.8799 10.597 -0.29395 19.8799 -2.91786e-06 19.8799)
(19.6768 10.3597 -0.291648 19.6768 -2.94287e-06 19.6768)
(19.6768 10.3597 -0.291648 19.6768 -2.93355e-06 19.6768)
(19.4621 10.1169 -0.289047 19.4621 -2.9791e-06 19.4621)
(19.4621 10.1169 -0.289047 19.4621 -2.96949e-06 19.4621)
(19.2367 9.87027 -0.286176 19.2367 -2.97376e-06 19.2367)
(19.2367 9.87027 -0.286176 19.2367 -2.96391e-06 19.2367)
(19.0015 9.62137 -0.283081 19.0015 -2.97799e-06 19.0015)
(19.0015 9.62137 -0.283081 19.0015 -2.98876e-06 19.0015)
(18.7573 9.37134 -0.279792 18.7573 -2.98936e-06 18.7573)
(18.7573 9.37134 -0.279792 18.7573 -2.98829e-06 18.7573)
(18.505 9.12124 -0.276334 18.505 -2.95547e-06 18.505)
(18.505 9.12124 -0.276334 18.505 -2.98439e-06 18.505)
(18.2454 8.87209 -0.272735 18.2454 -2.98512e-06 18.2454)
(18.2454 8.87209 -0.272735 18.2454 -3.00238e-06 18.2454)
(17.9792 8.62477 -0.269021 17.9792 -2.92965e-06 17.9792)
(17.9792 8.62477 -0.269021 17.9792 -2.97232e-06 17.9792)
(17.7073 8.37999 -0.265214 17.7073 -2.95146e-06 17.7073)
(17.7073 8.37999 -0.265214 17.7073 -2.97847e-06 17.7073)
(17.4303 8.13837 -0.261334 17.4303 -2.8675e-06 17.4303)
(17.4303 8.13837 -0.261334 17.4303 -2.92181e-06 17.4303)
(17.1489 7.90037 -0.2574 17.1489 -2.91001e-06 17.1489)
(17.1489 7.90037 -0.257401 17.1489 -2.94748e-06 17.1489)
(16.8639 7.66637 -0.253423 16.8638 -2.82315e-06 16.8639)
(16.8638 7.66637 -0.253423 16.8638 -2.87664e-06 16.8638)
(16.5756 7.43681 -0.249418 16.5756 -2.84702e-06 16.5756)
(16.5756 7.43681 -0.249418 16.5756 -2.8755e-06 16.5756)
(16.2849 7.21196 -0.245401 16.2849 -2.76664e-06 16.2849)
(16.2849 7.21196 -0.245401 16.2849 -2.80648e-06 16.2849)
(15.9921 6.99195 -0.241381 15.9921 -2.75754e-06 15.9921)
(15.9921 6.99195 -0.241381 15.9921 -2.7696e-06 15.9921)
(15.6979 6.77688 -0.237363 15.6979 -2.69906e-06 15.6979)
(15.6979 6.77688 -0.237363 15.6979 -2.72363e-06 15.6979)
(15.4026 6.56684 -0.233354 15.4026 -2.65995e-06 15.4026)
(15.4026 6.56684 -0.233354 15.4026 -2.66726e-06 15.4026)
(15.1067 6.3618 -0.229361 15.1067 -2.58305e-06 15.1067)
(15.1067 6.36181 -0.229361 15.1067 -2.61518e-06 15.1067)
(14.8107 6.16172 -0.225381 14.8107 -2.55789e-06 14.8107)
(14.8107 6.16172 -0.225381 14.8107 -2.58597e-06 14.8107)
(14.5148 5.96658 -0.221422 14.5148 -2.42544e-06 14.5148)
(14.5148 5.96658 -0.221422 14.5148 -2.48249e-06 14.5148)
(14.2196 5.7762 -0.217483 14.2196 -2.42203e-06 14.2196)
(14.2196 5.77621 -0.217483 14.2196 -2.47001e-06 14.2196)
(13.9252 5.59047 -0.213559 13.9252 -2.2943e-06 13.9252)
(13.9252 5.59047 -0.213559 13.9252 -2.36106e-06 13.9252)
(13.632 5.40934 -0.209654 13.632 -2.27612e-06 13.632)
(13.632 5.40934 -0.209654 13.632 -2.33717e-06 13.632)
(13.3403 5.23267 -0.205767 13.3402 -2.10094e-06 13.3403)
(13.3402 5.23267 -0.205767 13.3402 -2.19019e-06 13.3402)
(13.0503 5.06032 -0.201896 13.0503 -2.11082e-06 13.0503)
(13.0503 5.06032 -0.201896 13.0503 -2.19839e-06 13.0503)
(12.7623 4.89222 -0.198041 12.7623 -1.9222e-06 12.7623)
(12.7623 4.89222 -0.198041 12.7623 -2.03193e-06 12.7623)
(12.4765 4.72832 -0.194203 12.4765 -1.93443e-06 12.4765)
(12.4765 4.72832 -0.194203 12.4765 -2.04701e-06 12.4765)
(12.1931 4.56857 -0.190383 12.1931 -1.69988e-06 12.1931)
(12.1931 4.56857 -0.190384 12.1931 -1.84124e-06 12.1931)
(11.9123 4.41289 -0.186585 11.9123 -1.73516e-06 11.9123)
(11.9123 4.41289 -0.186585 11.9123 -1.88651e-06 11.9123)
(11.6343 4.26115 -0.182806 11.6343 -1.45195e-06 11.6343)
(11.6343 4.26115 -0.182806 11.6343 -1.6357e-06 11.6343)
(11.3593 4.11326 -0.179045 11.3593 -1.52898e-06 11.3593)
(11.3592 4.11326 -0.179045 11.3593 -1.73153e-06 11.3592)
(11.0873 3.96908 -0.175302 11.0873 -1.196e-06 11.0873)
(11.0873 3.96908 -0.175302 11.0873 -1.43171e-06 11.0873)
(10.8185 3.82849 -0.171573 10.8185 -1.31685e-06 10.8185)
(10.8185 3.82849 -0.171573 10.8185 -1.58189e-06 10.8185)
(10.5531 3.69137 -0.167857 10.5531 -9.06629e-07 10.5531)
(10.5531 3.69137 -0.167857 10.5531 -1.21077e-06 10.5531)
(10.2912 3.55757 -0.164153 10.2912 -1.08283e-06 10.2912)
(10.2912 3.55757 -0.164153 10.2912 -1.42729e-06 10.2912)
(10.0328 3.42697 -0.160455 10.0328 -5.96738e-07 10.0328)
(10.0328 3.42697 -0.160455 10.0328 -9.88007e-07 10.0328)
(9.77814 3.29944 -0.156762 9.77814 -8.537e-07 9.77814)
(9.77813 3.29944 -0.156762 9.77814 -1.30938e-06 9.77813)
(9.52719 3.1749 -0.153072 9.52718 -2.33441e-07 9.52719)
(9.52719 3.1749 -0.153072 9.52719 -7.52548e-07 9.52719)
(9.28008 3.05327 -0.149384 9.28008 -6.20954e-07 9.28008)
(9.28007 3.05327 -0.149384 9.28008 -1.23005e-06 9.28007)
(9.03688 2.93447 -0.145696 9.03687 1.63398e-07 9.03688)
(9.03688 2.93447 -0.145697 9.03688 -5.20841e-07 9.03688)
(8.79766 2.81846 -0.14201 8.79766 -1.16307e-07 8.79766)
(8.79766 2.81846 -0.14201 8.79767 -1.11405e-06 8.79766)
(8.56251 2.70519 -0.138324 8.56249 6.22062e-07 8.56251)
(8.5625 2.7052 -0.138324 8.5625 -2.7341e-07 8.5625)
(8.33145 2.59463 -0.134641 8.33145 -1.9559e-23 8.33145)
(8.33144 2.59463 -0.134641 8.33145 -1.16211e-06 8.33144)
(8.10457 2.48674 -0.13096 8.10455 1.14859e-06 8.10457)
(8.10456 2.48674 -0.13096 8.10456 -2.14397e-08 8.10456)
(7.8819 2.38153 -0.127285 7.8819 1.64683e-22 7.8819)
(7.88189 2.38153 -0.127285 7.8819 -1.2206e-06 7.88189)
(7.66351 2.27902 -0.123618 7.66349 1.77015e-06 7.66351)
(7.6635 2.27902 -0.123618 7.6635 2.39422e-07 7.6635)
(7.44942 2.17929 -0.119965 7.44942 -3.1143e-22 7.44942)
(7.44941 2.17929 -0.119965 7.44943 -1.48296e-06 7.44941)
(7.23971 2.08248 -0.116335 7.23968 2.51202e-06 7.23971)
(7.23969 2.08248 -0.116335 7.23969 5.11864e-07 7.23969)
(7.03436 1.98877 -0.11274 7.03436 -2.80959e-37 7.03436)
(7.03435 1.98877 -0.11274 7.03437 -1.8933e-06 7.03435)
(6.83346 1.89842 -0.109199 6.83343 3.3734e-06 6.83346)
(6.83345 1.89842 -0.109199 6.83345 7.7694e-07 6.83345)
(6.63698 1.81173 -0.10573 6.63698 3.5466e-23 6.63698)
(6.63697 1.81173 -0.10573 6.63699 -2.22545e-06 6.63697)
(6.44498 1.729 -0.102359 6.44494 4.41741e-06 6.44498)
(6.44496 1.729 -0.102359 6.44496 -3.60368e-07 6.44496)
(6.25742 1.65051 -0.0991097 6.25742 1.32392e-06 6.25742)
(6.25741 1.65051 -0.0991097 6.25744 -6.96433e-06 6.25741)
(6.07435 1.57647 -0.0960043 6.07429 5.72248e-06 6.07435)
(6.07433 1.57647 -0.0960044 6.07433 -3.46027e-06 6.07433)
(5.89568 1.50701 -0.0930627 5.89568 1.64382e-06 5.89568)
(5.89567 1.50701 -0.0930628 5.8957 -8.70134e-06 5.89567)
(5.72147 1.44211 -0.0902975 5.7214 7.31451e-06 5.72147)
(5.72144 1.44211 -0.0902975 5.72144 -3.56525e-06 5.72144)
(5.55158 1.3816 -0.0877145 5.55158 1.99392e-06 5.55158)
(5.55156 1.3816 -0.0877146 5.55161 -1.03904e-05 5.55156)
(5.38607 1.32522 -0.0853056 5.38598 9.3688e-06 5.38607)
(5.38603 1.32522 -0.0853056 5.38603 -3.66753e-06 5.38603)
(5.22475 1.27254 -0.0830636 5.22475 2.32995e-06 5.22475)
(5.22473 1.27254 -0.0830637 5.22478 -1.25968e-05 5.22473)
(5.06769 1.22296 -0.0809616 5.06758 8.46779e-06 5.0677)
(5.06765 1.22296 -0.0809617 5.06765 -3.76538e-06 5.06765)
(4.91467 1.17577 -0.0789626 4.91467 2.71349e-06 4.91467)
(4.91465 1.17578 -0.0789627 4.9147 -1.54267e-05 4.91464)
(4.76577 1.13031 -0.0770238 4.76562 4.93647e-06 4.76577)
(4.76571 1.13031 -0.0770239 4.76571 -3.85594e-06 4.76571)
(4.62072 1.08597 -0.0751087 4.62072 3.09503e-06 4.62072)
(4.62069 1.08597 -0.0751088 4.62076 -1.91025e-05 4.62069)
(4.4796 1.04227 -0.0731788 4.4796 2.33494e-06 4.4796)
(4.47961 1.04227 -0.0731789 4.47956 -4.08738e-07 4.47961)
(4.34228 0.998981 -0.071208 4.34228 3.5183e-06 4.34228)
(4.34225 0.998982 -0.0712081 4.34232 -2.38426e-05 4.34225)
(4.2087 0.95609 -0.0691917 4.2087 2.40234e-06 4.2087)
(4.20871 0.956091 -0.0691918 4.20866 9.9496e-06 4.20871)
(4.07879 0.913696 -0.0671317 4.07879 3.95444e-06 4.07879)
(4.07876 0.913697 -0.0671318 4.07885 -2.9982e-05 4.07876)
(3.9525 0.871999 -0.0650395 3.9525 2.39477e-06 3.95251)
(3.95252 0.872 -0.0650395 3.95246 2.52353e-05 3.95252)
(3.82978 0.831324 -0.0629327 3.82978 4.44417e-06 3.82978)
(3.82974 0.831324 -0.0629327 3.82984 -3.79642e-05 3.82974)
(3.71056 0.791901 -0.0608433 3.71056 2.25926e-06 3.71057)
(3.71058 0.791902 -0.0608433 3.71051 3.78096e-05 3.71058)
(3.59481 0.753923 -0.058777 3.59481 5.04422e-06 3.59482)
(3.59477 0.753924 -0.0587771 3.59488 -4.83483e-05 3.59477)
(3.48247 0.71776 -0.0567626 3.48247 1.98641e-06 3.48248)
(3.48249 0.717761 -0.0567626 3.48242 4.9313e-05 3.48249)
(3.37349 0.683663 -0.0548352 3.37349 4.79752e-06 3.3735)
(3.37345 0.683663 -0.0548353 3.37356 -6.19325e-05 3.37345)
(3.26782 0.651822 -0.0530079 3.26782 2.5463e-06 3.26783)
(3.26784 0.651823 -0.053008 3.26777 6.4391e-05 3.26784)
(3.16541 0.622367 -0.0513095 3.16541 1.86556e-06 3.16542)
(3.16537 0.622368 -0.0513096 3.16548 -7.8718e-05 3.16537)
(3.06619 0.595113 -0.0497444 3.06619 5.89915e-06 3.0662)
(3.06621 0.595114 -0.0497445 3.06615 8.21107e-05 3.06621)
(2.97011 0.569833 -0.0482917 2.97011 2.01555e-06 2.97012)
(2.97008 0.569834 -0.0482918 2.97017 -9.49489e-05 2.97007)
(2.8771 0.546287 -0.0469476 2.8771 6.2349e-06 2.87711)
(2.87711 0.546288 -0.0469477 2.87707 9.14767e-05 2.87711)
(2.78711 0.524164 -0.0456869 2.78711 2.17162e-06 2.78711)
(2.78708 0.524165 -0.045687 2.78715 -0.000106991 2.78708)
(2.70006 0.503084 -0.0444917 2.70006 6.24201e-06 2.70006)
(2.70006 0.503085 -0.0444918 2.70005 9.6056e-05 2.70005)
(2.6159 0.482382 -0.043322 2.6159 -5.08434e-06 2.6159)
(2.61588 0.482383 -0.0433222 2.61592 -0.00010673 2.61588)
(2.53456 0.461721 -0.0421056 2.53456 -2.42832e-06 2.53457)
(2.53455 0.461722 -0.0421057 2.53458 0.000100661 2.53455)
(2.45601 0.44123 -0.0408555 2.45601 -7.07117e-06 2.45602)
(2.456 0.441231 -0.0408556 2.45601 -0.000103887 2.456)
(2.38018 0.420962 -0.0395805 2.38018 -2.62899e-06 2.38019)
(2.38016 0.420962 -0.0395806 2.38022 9.5081e-05 2.38015)
(2.30704 0.4012 -0.0382808 2.30704 -7.20356e-06 2.30704)
(2.30704 0.401201 -0.0382808 2.30702 -9.57211e-05 2.30704)
(2.23654 0.382118 -0.0370095 2.23654 -2.81489e-06 2.23654)
(2.2365 0.382119 -0.0370095 2.23659 8.41233e-05 2.2365)
(2.16864 0.363659 -0.0357478 2.16864 -5.15102e-06 2.16865)
(2.16865 0.363659 -0.0357479 2.16861 -8.22878e-05 2.16865)
(2.10331 0.346136 -0.0345073 2.10331 -5.17562e-06 2.10332)
(2.10327 0.346137 -0.0345073 2.10337 7.00528e-05 2.10327)
(2.04051 0.329785 -0.0333416 2.04051 -3.82338e-06 2.04052)
(2.04053 0.329785 -0.0333417 2.04048 -6.80875e-05 2.04053)
(1.98022 0.314839 -0.0322492 1.98022 -6.85018e-06 1.98023)
(1.98018 0.31484 -0.0322492 1.98029 4.02348e-05 1.98018)
(1.92239 0.302029 -0.0312876 1.92239 -4.28214e-06 1.9224)
(1.9224 0.30203 -0.0312877 1.92235 -5.63512e-05 1.9224)
(1.86699 0.291853 -0.0305594 1.86699 -6.72147e-06 1.867)
(1.86695 0.291855 -0.0305596 1.86706 4.14031e-06 1.86695)
(1.81399 0.284487 -0.0300828 1.81399 -4.72366e-06 1.81399)
(1.814 0.28449 -0.030083 1.81395 -4.80148e-05 1.814)
(1.76325 0.280231 -0.0298993 1.76349 1.37174e-05 1.76326)
(1.76332 0.280234 -0.0298996 1.76332 -5.79711e-06 1.76332)
(1.71497 0.279113 -0.0300563 1.71497 -5.1223e-06 1.71498)
(1.71498 0.279117 -0.0300567 1.71494 -4.31154e-05 1.71498)
(1.66879 0.280847 -0.030541 1.66897 2.85122e-05 1.6688)
(1.66885 0.280852 -0.0305415 1.66885 -5.98798e-06 1.66884)
(1.62491 0.284964 -0.0313323 1.62491 -5.45797e-06 1.62492)
(1.62492 0.28497 -0.0313328 1.62489 -3.8699e-05 1.62492)
(1.58305 0.2907 -0.0323742 1.58317 2.25323e-05 1.58305)
(1.58308 0.290706 -0.0323749 1.58308 -6.14966e-06 1.58308)
(1.5433 0.296967 -0.0335725 1.5433 -5.72442e-06 1.54331)
(1.54331 0.296974 -0.0335732 1.54328 -3.32907e-05 1.5433)
(1.50545 0.302927 -0.0347882 1.50554 1.75874e-05 1.50546)
(1.50548 0.302934 -0.034789 1.50548 -6.29088e-06 1.50547)
(1.46955 0.3083 -0.035971 1.46955 -5.94962e-06 1.46955)
(1.46955 0.308308 -0.0359718 1.46954 -2.88159e-05 1.46955)
(1.43541 0.313262 -0.0371036 1.43547 1.34235e-05 1.43542)
(1.43543 0.31327 -0.0371045 1.43543 -6.41829e-06 1.43543)
(1.40307 0.318374 -0.0382409 1.40307 -6.15381e-06 1.40308)
(1.40307 0.318382 -0.0382418 1.40306 -2.51305e-05 1.40306)
(1.37237 0.324127 -0.0394618 1.3724 9.97673e-06 1.37238)
(1.37238 0.324136 -0.0394629 1.37238 -6.53828e-06 1.37238)
(1.3433 0.330844 -0.0408114 1.3433 -6.31447e-06 1.34331)
(1.34329 0.330854 -0.0408126 1.3433 -2.21173e-05 1.34329)
(1.31574 0.338696 -0.0423333 1.31575 7.16265e-06 1.31575)
(1.31574 0.338708 -0.0423347 1.31574 -6.65953e-06 1.31574)
(1.28963 0.347645 -0.0440393 1.28963 -6.46132e-06 1.28964)
(1.28962 0.347658 -0.0440409 1.28964 -1.96415e-05 1.28962)
(1.26487 0.357523 -0.0459211 1.26486 4.72125e-06 1.26487)
(1.26486 0.357537 -0.0459228 1.26486 -6.7936e-06 1.26486)
(1.24135 0.368276 -0.0479566 1.24135 -6.76033e-06 1.24136)
(1.24134 0.368292 -0.0479586 1.24137 -1.7649e-05 1.24134)
(1.21899 0.379692 -0.050166 1.21897 2.52465e-06 1.219)
(1.21899 0.379709 -0.0501682 1.21899 -6.9542e-06 1.21898)
(1.19765 0.391053 -0.0524827 1.19765 -7.17978e-06 1.19766)
(1.19764 0.391071 -0.0524851 1.19767 -1.60803e-05 1.19763)
(1.17723 0.401336 -0.0547853 1.1772 5.7324e-07 1.17724)
(1.17722 0.401354 -0.0547878 1.17722 -7.15466e-06 1.17722)
(1.15759 0.409357 -0.0569115 1.15759 -7.70411e-06 1.1576)
(1.15758 0.409375 -0.0569141 1.15762 -1.48364e-05 1.15757)
(1.13866 0.414257 -0.0586779 1.13862 -1.30421e-06 1.13867)
(1.13865 0.414274 -0.0586805 1.13865 -7.40059e-06 1.13864)
(1.12031 0.415811 -0.0599974 1.12031 -8.33134e-06 1.12032)
(1.12029 0.415828 -0.0599999 1.12034 -1.38757e-05 1.12029)
(1.10252 0.41453 -0.0608554 1.10247 -2.9878e-06 1.10253)
(1.10251 0.414546 -0.0608579 1.10251 -7.68552e-06 1.1025)
(1.0852 0.411573 -0.0613776 1.0852 -8.72298e-06 1.08521)
(1.08518 0.41159 -0.0613801 1.08523 -1.31373e-05 1.08518)
(1.06837 0.408398 -0.0617506 1.06832 -4.18419e-06 1.06838)
(1.06835 0.408417 -0.0617533 1.06835 -7.9999e-06 1.06835)
(1.05194 0.406645 -0.0622084 1.05194 -8.81634e-06 1.05195)
(1.05192 0.406666 -0.0622114 1.05198 -1.25913e-05 1.05192)
(1.03594 0.407129 -0.0630193 1.03588 -5.04169e-06 1.03595)
(1.03592 0.407153 -0.0630227 1.03592 -8.34666e-06 1.03592)
(1.02024 0.409328 -0.064185 1.02024 -9.12325e-06 1.02025)
(1.02022 0.409355 -0.064189 1.02029 -1.22788e-05 1.02021)
(1.00485 0.41189 -0.065567 1.00478 -6.04559e-06 1.00486)
(1.00483 0.411918 -0.0655714 1.00483 -8.74099e-06 1.00483)
(0.989617 0.413237 -0.0668912 0.989617 -9.79228e-06 0.989625)
(0.989592 0.413266 -0.066896 0.989668 -1.21727e-05 0.989589)
(0.974563 0.412629 -0.0679235 0.974484 -7.24299e-06 0.974572)
(0.974537 0.412659 -0.0679284 0.974537 -9.19023e-06 0.974534)
(0.959538 0.410083 -0.0686398 0.959538 -1.05474e-05 0.959547)
(0.959512 0.410113 -0.0686447 0.959594 -1.21815e-05 0.959508)
(0.944614 0.405801 -0.0690423 0.944528 -8.43932e-06 0.944623)
(0.944586 0.405831 -0.0690474 0.944586 -9.68615e-06 0.944583)
(0.929655 0.399757 -0.0691707 0.929655 -1.12188e-05 0.929664)
(0.929626 0.399786 -0.0691758 0.929716 -1.22901e-05 0.929622)
(0.91477 0.391551 -0.06895 0.914676 -9.4685e-06 0.914778)
(0.914739 0.391579 -0.068955 0.914739 -1.02126e-05 0.914735)
(0.899845 0.380808 -0.0682885 0.899845 -1.20008e-05 0.899853)
(0.899813 0.380834 -0.0682932 0.89991 -1.24682e-05 0.899809)
(0.885037 0.367657 -0.0671117 0.884934 -1.06452e-05 0.885045)
(0.885003 0.367681 -0.0671161 0.885004 -1.07169e-05 0.884999)
(0.870265 0.353341 -0.065502 0.870255 -1.31478e-05 0.870273)
(0.870227 0.353365 -0.0655062 0.870333 -1.27831e-05 0.870223)
(0.855717 0.339854 -0.0637953 0.855606 -1.13257e-05 0.855725)
(0.855671 0.339882 -0.0637999 0.8557 -9.91313e-06 0.855666)
(0.841321 0.329179 -0.0623755 0.841287 -1.45851e-05 0.841329)
(0.841272 0.329214 -0.0623811 0.841387 -1.31765e-05 0.841268)
(0.827223 0.322858 -0.0616142 0.827104 -1.15862e-05 0.827231)
(0.827168 0.322905 -0.0616219 0.827218 -9.3637e-06 0.827163)
(0.81332 0.321451 -0.0617714 0.813266 -1.5977e-05 0.813328)
(0.813262 0.321512 -0.0617817 0.813386 -1.361e-05 0.813258)
(0.799673 0.32442 -0.06287 0.799544 -1.21772e-05 0.799681)
(0.799611 0.324499 -0.0628836 0.799675 -9.14968e-06 0.799606)
(0.78612 0.331018 -0.0647546 0.786057 -1.71774e-05 0.786128)
(0.786057 0.331116 -0.064772 0.786191 -1.42512e-05 0.786052)
(0.772654 0.340479 -0.0673566 0.772514 -1.27618e-05 0.772661)
(0.772587 0.340597 -0.0673783 0.772658 -9.3279e-06 0.772582)
(0.759047 0.350654 -0.0704953 0.75898 -1.83953e-05 0.759054)
(0.75898 0.350785 -0.070521 0.759124 -1.50841e-05 0.758975)
(0.745255 0.357691 -0.0735145 0.745104 -1.37121e-05 0.745262)
(0.745184 0.357828 -0.0735428 0.745255 -9.93419e-06 0.745178)
(0.73104 0.357629 -0.0754796 0.730975 -1.98184e-05 0.731047)
(0.730969 0.357758 -0.075508 0.731123 -1.617e-05 0.730963)
(0.716448 0.348352 -0.0756019 0.716285 -1.48288e-05 0.716455)
(0.716372 0.348461 -0.0756276 0.716439 -1.09183e-05 0.716366)
(0.701358 0.330286 -0.0736462 0.701307 -2.02421e-05 0.701365)