/*--------------------------------*- C++ -*----------------------------------*\
| =========                 |                                                 |
| \\      /  F ield         | OpenFOAM: The Open Source CFD Toolbox           |
|  \\    /   O peration     | Version:  2012                                  |
|   \\  /    A nd           | Website:  www.openfoam.com                      |
|    \\/     M anipulation  |                                                 |
\*---------------------------------------------------------------------------*/
FoamFile
{
    version     2.0;
    format      ascii;
    class       volTensorField;
    location    "15500";
    object      grad(U);
}
// * * * * * * * * * * * * * * * * * * * * * * * * * * * * * * * * * * * * * //

dimensions      [0 0 -1 0 0 0 0];


internalField   nonuniform List<tensor> 
2560
(
(0 -3.48782e-23 -1.38185e-17 1400.92 9.85089e-05 -0.000473213 2.02887 5.66624e-08 -7.23616e-07)
(-2.9258e-16 3.72129e-18 0 1400.92 3.38813e-21 -5.46163e-07 2.02887 7.20892e-08 7.23737e-07)
(1.15355e-15 1.9728e-18 -3.98943e-18 1399.5 -3.38844e-21 1.15415e-24 6.11206 0 0)
(-1.15355e-15 0 -2.75027e-22 1399.5 4.20397e-05 -1.62061e-06 6.11206 3.19515e-07 1.06468e-06)
(-2.58472e-16 -7.84103e-25 -2.71085e-22 1398.03 -6.99884e-05 0.000194744 8.38787 2.34497e-07 -8.3878e-07)
(0 0 4.06627e-22 1398.03 -5.22421e-05 -2.09461e-06 8.38787 2.70867e-07 8.38904e-07)
(8.24923e-16 3.33999e-23 -2.672e-22 1396.47 -6.04512e-05 0.000194018 8.5001 -7.85878e-08 -4.76984e-07)
(0 -3.33999e-23 2.672e-22 1396.47 -6.87321e-05 -1.70255e-06 8.5001 -5.00844e-08 4.77056e-07)
(2.20931e-15 0 -2.30449e-22 1394.84 1.63017e-06 0.000109373 8.61338 -1.61676e-07 -2.48039e-07)
(0 1.30477e-18 1.64606e-22 1394.84 5.08162e-21 -1.30703e-06 8.61338 -2.64698e-23 2.48079e-07)
(1.98078e-15 1.62247e-23 -6.48988e-23 1393.15 1.82117e-05 5.22871e-05 8.72801 -9.43668e-08 -1.38372e-07)
(1.58462e-14 -3.24494e-23 6.48988e-23 1393.15 1.46706e-05 -1.31566e-06 8.72801 -6.61161e-08 1.38396e-07)
(-2.57027e-15 1.59922e-23 -1.59922e-23 1391.47 1.09378e-05 2.76387e-05 8.84428 -5.94443e-08 -8.16233e-08)
(1.02811e-14 -3.19843e-23 3.19843e-23 1391.47 8.30919e-06 -1.5223e-06 8.84428 -3.13379e-08 8.16395e-08)
(-3.16756e-15 6.46295e-20 1.57629e-23 1389.83 4.17933e-06 1.73105e-05 8.96249 -3.35845e-08 -4.64669e-08)
(1.26702e-14 2.75852e-23 0 1389.83 3.69717e-06 -1.81261e-06 8.96249 -5.5155e-09 4.6479e-08)
(3.77274e-15 1.94213e-23 -7.76851e-24 1388.27 3.70422e-06 1.27622e-05 9.08293 -2.95259e-08 -2.04397e-08)
(0 -4.27268e-23 0 1388.27 8.30113e-07 -1.55246e-06 9.08293 -1.48463e-09 2.04494e-08)
(0 7.38628e-20 0 1386.82 1.21214e-06 1.07798e-05 9.20584 -1.43011e-08 -1.23605e-15)
(0 2.48858e-23 1.46937e-39 1386.82 1.68908e-06 0 9.20584 1.37589e-08 0)
(-5.0073e-15 5.84925e-23 0 1385.52 1.2033e-06 1.00993e-05 9.33144 -1.42406e-08 -2.72178e-16)
(0 1.17549e-38 0 1385.52 5.55865e-22 1.00999e-05 9.33144 1.38329e-08 -2.46779e-16)
(5.63696e-15 9.857e-23 0 1384.38 1.63725e-06 1.01687e-05 9.45992 -9.78755e-09 7.07644e-16)
(0 -9.857e-23 0 1384.38 6.97483e-07 1.01691e-05 9.45992 1.83299e-08 6.54625e-16)
(0 2.47476e-23 7.33262e-24 1383.42 9.77778e-07 1.07249e-05 9.59143 -6.29913e-09 1.77856e-15)
(1.57467e-14 -4.1246e-23 0 1383.42 1.36513e-07 1.07252e-05 9.59143 2.18548e-08 1.67111e-15)
(8.59902e-15 -4.15583e-23 0 1382.64 8.00091e-07 9.33627e-06 9.72607 -5.95065e-09 2.99851e-15)
(1.21669e-14 -1.46937e-38 0 1382.64 8.84404e-22 1.16371e-05 9.72607 2.22583e-08 2.84702e-15)
(1.52985e-14 1.9699e-20 0 1382.04 0 6.06799e-06 9.8639 -3.31644e-09 -8.09369e-09)
(-1.52985e-14 9.97352e-23 0 1382.04 -1.9137e-07 1.28339e-05 9.8639 2.4944e-08 8.0888e-09)
(-8.24261e-15 0 0 1381.62 5.36031e-07 4.75503e-06 10.0049 -4.85518e-09 -2.40306e-08)
(3.29704e-14 0 0 1381.62 -8.99973e-22 1.00348e-05 10.0049 2.34713e-08 2.40263e-08)
(1.48632e-14 -9.94922e-23 0 1381.37 8.21265e-07 5.14415e-06 10.1491 -1.72868e-09 -2.74675e-08)
(-5.05305e-14 9.94922e-23 -2.59758e-19 1381.37 2.19993e-07 -9.35911e-25 10.1491 2.66598e-08 3.30872e-24)
(0 0 0 1381.25 -1.65436e-24 5.54688e-06 10.2962 -1.06795e-09 -1.18195e-08)
(-3.84026e-14 9.89189e-23 0 1381.25 -5.80648e-07 -1.75168e-06 10.2962 2.73931e-08 1.13552e-08)
(2.88803e-14 3.194e-23 2.68969e-23 1381.24 1.582e-07 5.95599e-06 10.4462 -3.95395e-09 -7.84058e-13)
(0 5.61386e-20 0 1381.24 -9.52912e-22 2.90935e-06 10.4462 2.45775e-08 -4.16944e-13)
(1.09979e-14 -8.2848e-23 0 1381.31 7.80557e-07 6.38614e-06 10.5989 -1.86628e-09 -7.27793e-13)
(-4.39918e-14 9.94177e-23 0 1381.31 2.68172e-07 6.38614e-06 10.5989 2.67436e-08 -3.34098e-13)
(0 1.30133e-20 0 1381.4 1.20701e-08 6.8426e-06 10.7538 3.47962e-11 -7.45735e-13)
(0 9.92177e-23 0 1381.4 -1.16256e-07 6.8426e-06 10.7538 2.87222e-08 -4.21743e-13)
(-1.24363e-14 -2.29589e-41 0 1381.48 -8.79673e-37 7.30337e-06 10.9106 -8.84412e-10 -6.90331e-13)
(0 -6.6002e-23 0 1381.48 -1.18944e-06 7.30335e-06 10.9106 2.78867e-08 -3.57681e-13)
(1.40884e-14 1.47566e-22 5.07754e-23 1381.48 6.52104e-07 7.7746e-06 11.0688 -7.48328e-09 -6.48705e-13)
(0 5.93155e-24 0 1381.48 -5.98613e-39 7.7746e-06 11.0688 2.13707e-08 -4.78258e-13)
(0 8.50689e-20 0 1381.34 1.0579e-22 8.28275e-06 11.2279 -4.1359e-25 -6.60639e-13)
(-5.56696e-14 9.93133e-23 0 1381.34 3.77233e-07 8.28276e-06 11.2279 3.15227e-08 -3.68461e-13)
(1.46744e-14 -9.86607e-23 0 1381 -3.57794e-07 8.81256e-06 11.3874 -2.7587e-09 -6.29032e-13)
(0 9.25701e-20 0 1381 -1.12184e-07 8.81255e-06 11.3874 2.62719e-08 -4.5646e-13)
(-4.78046e-15 2.92847e-25 0 1380.38 0 9.33979e-06 11.5464 -2.11019e-09 -6.07023e-13)
(-2.61045e-14 1.32195e-22 0 1380.38 -1.12973e-06 9.33977e-06 11.5464 2.70133e-08 -4.01248e-13)
(4.86652e-14 1.48272e-22 9.58529e-23 1379.4 9.80374e-07 9.8883e-06 11.7043 -1.04599e-08 -5.09839e-13)
(1.29774e-13 5.20618e-24 0 1379.4 6.17766e-22 9.8883e-06 11.7043 1.87573e-08 -5.24915e-13)
(0 1.81066e-20 -9.4479e-23 1377.99 -1.06036e-22 1.0481e-05 11.8603 0 -5.4446e-13)
(6.8049e-14 -9.92768e-23 0 1377.99 1.45557e-07 1.0481e-05 11.8603 3.38432e-08 -4.34712e-13)
(1.7814e-14 -6.69335e-23 0 1376.06 -5.50283e-07 1.10926e-05 12.0134 -7.67706e-09 -4.68357e-13)
(-2.4998e-14 3.01657e-24 0 1376.06 1.36169e-39 1.10926e-05 12.0134 2.17366e-08 -5.10716e-13)
(-3.72537e-14 0 0 1373.52 0 1.1705e-05 12.1627 -1.91248e-09 -4.79284e-13)
(-1.49015e-13 0 0 1373.52 -9.38575e-07 1.1705e-05 12.1627 2.76032e-08 -4.66068e-13)
(4.83583e-15 -6.7856e-23 0 1370.28 8.22152e-07 1.23436e-05 12.3071 -1.43376e-08 -3.28671e-13)
(-1.0209e-13 2.12071e-24 -1.80949e-22 1370.28 4.75048e-22 1.23436e-05 12.3071 1.52813e-08 -5.83656e-13)
(0 3.64962e-20 0 1366.26 -1.32889e-25 1.30304e-05 12.4457 8.27181e-25 -3.88791e-13)
(-8.11421e-14 1.24013e-22 0 1366.26 2.01579e-07 1.30304e-05 12.4457 3.35533e-08 -5.1442e-13)
(-4.71908e-14 1.23609e-22 0 1361.37 -9.4348e-07 1.37342e-05 12.5771 -1.09999e-08 -2.5822e-13)
(1.31714e-13 0 0 1361.37 2.11758e-22 1.37342e-05 12.5771 1.8832e-08 -5.81548e-13)
(-2.19865e-14 0 0 1355.52 -2.71273e-38 1.44424e-05 12.7003 -6.55862e-09 -3.11508e-13)
(0 -3.249e-23 0 1355.52 -5.33281e-07 1.44424e-05 12.7003 2.33829e-08 -5.43325e-13)
(-2.2852e-14 -1.06748e-22 0 1348.61 8.81188e-07 1.51903e-05 12.814 -1.4283e-08 -9.74627e-14)
(0 2.18852e-24 0 1348.61 0 1.51902e-05 12.814 1.57699e-08 -6.58373e-13)
(-2.37268e-14 7.53571e-21 0 1340.58 -3.22614e-27 1.59872e-05 12.9169 6.46235e-27 -1.82123e-13)
(-1.40098e-13 5.78697e-23 -1.68348e-22 1340.58 -1.28007e-07 1.59872e-05 12.9169 3.01952e-08 -6.14926e-13)
(-1.99324e-14 6.48185e-23 0 1331.32 -9.04973e-07 1.67998e-05 13.0078 -1.38946e-08 8.11064e-15)
(4.4543e-14 2.27408e-24 0 1331.32 4.23516e-22 1.67998e-05 13.0078 1.63865e-08 -6.72441e-13)
(-1.84022e-14 1.47486e-24 0 1320.77 -2.9862e-22 1.76209e-05 13.0853 -1.06275e-08 -7.80472e-14)
(4.39045e-14 -9.96676e-23 0 1320.77 -5.38303e-07 1.76208e-05 13.0853 1.97705e-08 -6.5356e-13)
(-2.64016e-14 -6.54928e-23 0 1308.84 8.18488e-07 1.84855e-05 13.1481 -1.741e-08 2.01264e-13)
(-4.32753e-14 1.8188e-24 0 1308.84 3.62981e-22 1.84854e-05 13.1481 1.31058e-08 -7.62431e-13)
(0 3.60531e-20 0 1295.47 -1.05879e-22 1.94072e-05 13.1948 -4.3248e-09 7.67556e-14)
(0 1.15453e-22 0 1295.47 4.45642e-08 1.94072e-05 13.1948 2.63078e-08 -7.3429e-13)
(-2.8219e-14 -3.18144e-23 0 1280.6 -7.57321e-07 2.03551e-05 13.2242 -1.51838e-08 3.31448e-13)
(1.12876e-13 1.46836e-23 -3.1325e-22 1280.6 -5.63064e-09 2.03551e-05 13.2242 1.55708e-08 -7.81405e-13)
(0 6.01853e-36 0 1264.16 0 2.13053e-05 13.2348 -1.41872e-08 2.1831e-13)
(1.1654e-13 -1.25434e-22 0 1264.16 -1.1232e-06 2.13053e-05 13.2348 1.66891e-08 -7.92709e-13)
(3.00548e-14 -8.08389e-23 0 1246.1 1.54932e-06 2.23071e-05 13.2253 -2.49992e-08 5.59643e-13)
(-1.20219e-13 0 0 1246.1 0 2.23071e-05 13.2253 5.99917e-09 -8.87872e-13)
(-9.28496e-15 7.99224e-26 0 1226.38 -1.99806e-26 2.33611e-05 13.1946 0 4.15099e-13)
(4.02617e-14 -6.6205e-23 0 1226.38 -1.13785e-06 2.3361e-05 13.1946 3.14071e-08 -8.98223e-13)
(-7.15843e-14 3.23393e-23 0 1204.97 3.18522e-07 2.44418e-05 13.1413 -3.55753e-08 7.46084e-13)
(3.96846e-14 1.17549e-38 0 1204.97 1.05879e-22 2.44417e-05 13.1413 7.69368e-39 -9.43667e-13)
(3.28222e-14 0 0 1181.83 -1.35165e-38 2.5542e-05 13.0643 2.6142e-52 6.06333e-13)
(9.2173e-14 2.4903e-23 0 1181.83 -1.44189e-06 2.55419e-05 13.0643 3.3315e-08 -9.88809e-13)
(3.85552e-14 4.48842e-23 0 1156.95 1.19633e-06 2.66813e-05 12.9625 -4.99774e-08 1.03483e-12)
(1.34971e-13 1.17549e-38 0 1156.95 9.52912e-22 2.66812e-05 12.9625 -1.77973e-38 -1.09379e-12)
(-3.46601e-14 4.04953e-20 0 1130.32 6.35275e-22 2.79214e-05 12.8347 -1.65436e-24 8.16314e-13)
(0 -3.31807e-23 0 1130.32 1.23462e-06 2.79214e-05 12.8347 4.53775e-08 -1.09308e-12)
(-3.55721e-14 0 0 1101.93 -4.7942e-06 2.91232e-05 12.68 -3.43329e-08 1.23589e-12)
(0 -3.48854e-23 0 1101.93 -3.79556e-06 2.91232e-05 12.68 -2.59145e-09 -1.14867e-12)
(0 4.29818e-23 5.50167e-22 1071.79 -5.00782e-07 3.02313e-05 12.4975 -4.40798e-08 8.44449e-13)
(0 -6.01745e-23 0 1071.79 -1.93841e-08 3.02313e-05 12.4975 -1.13844e-10 -1.00633e-12)
(-7.37656e-14 4.23657e-23 0 1039.93 1.19078e-05 3.16418e-05 12.2867 -4.2854e-08 1.46033e-12)
(0 1.17549e-37 0 1039.93 1.69407e-21 3.16417e-05 12.2867 0 -1.22354e-12)
(-3.58703e-14 1.33296e-23 -5.34509e-22 1006.39 -3.38147e-21 3.30095e-05 12.0466 0 1.50831e-12)
(-1.53038e-13 1.33627e-22 0 1006.39 -1.52752e-05 3.30094e-05 12.0466 1.28159e-07 -1.55514e-12)
(-3.9133e-14 1.31712e-22 -5.26848e-22 971.176 4.66399e-06 3.41546e-05 11.7765 -2.28234e-07 2.04206e-12)
(1.56532e-13 -4.81482e-35 0 971.176 8.44313e-21 3.41545e-05 11.7765 -2.64698e-23 -1.64952e-12)
(0 1.72389e-19 0 934.361 -2.15675e-23 3.56257e-05 11.4765 0 1.73609e-12)
(0 1.29824e-22 0 934.361 7.30783e-06 3.56258e-05 11.4765 1.87763e-07 -1.6613e-12)
(-4.0834e-14 -6.39818e-23 0 896.008 -1.4542e-05 3.69389e-05 11.146 -1.39365e-07 1.8446e-12)
(1.63336e-13 -1.17549e-38 0 896.008 3.38813e-21 3.6939e-05 11.146 0 -1.30261e-12)
(8.33151e-14 6.30648e-23 0 856.174 1.474e-05 3.82679e-05 10.7848 -2.84342e-08 1.67548e-12)
(1.6663e-13 -6.30648e-23 0 856.174 1.4252e-05 3.82677e-05 10.7848 4.14874e-09 -1.4893e-12)
(0 6.37624e-24 0 814.95 -3.18812e-24 3.96647e-05 10.3932 0 2.62281e-12)
(0 -6.21609e-23 0 814.95 -1.238e-05 3.96646e-05 10.3932 7.86421e-08 -1.9337e-12)
(-4.32399e-14 3.0635e-23 0 772.428 3.88118e-06 4.08422e-05 9.97136 -1.88436e-07 2.35638e-12)
(0 -4.34933e-37 0 772.428 6.36355e-21 4.08422e-05 9.97136 -2.64698e-23 -2.05963e-12)
(-8.7989e-14 0 0 728.717 -2.12434e-21 4.21713e-05 9.51985 0 2.79404e-12)
(1.75978e-13 1.35882e-22 0 728.717 2.2238e-06 4.21713e-05 9.51985 1.30323e-07 -1.97808e-12)
(-4.47218e-14 0 0 683.934 -2.35976e-06 4.34787e-05 9.03916 -1.59233e-07 2.53691e-12)
(0 0 0 683.934 8.7581e-24 4.34786e-05 9.03916 -2.64698e-23 -2.15495e-12)
(-1.08419e-13 3.03053e-20 0 638.194 1.2796e-21 4.47199e-05 8.53009 0 3.34055e-12)
(2.44678e-13 -7.33414e-23 0 638.194 9.69698e-07 4.47199e-05 8.53009 9.82957e-08 -2.41393e-12)
(-4.6086e-14 -5.78322e-23 0 591.627 -1.05052e-05 4.56467e-05 7.9936 -1.45452e-07 2.67231e-12)
(-6.20968e-14 5.78322e-23 0 591.627 -3.38034e-21 4.56467e-05 7.9936 0 -2.22209e-12)
(-9.34374e-14 -9.97557e-23 0 544.382 1.35827e-05 4.65853e-05 7.43121 -8.35465e-08 3.44933e-12)
(-1.86875e-13 9.97557e-23 0 544.382 1.30279e-05 4.65852e-05 7.43121 -5.02462e-08 -2.45614e-12)
(-9.46316e-14 0 0 496.622 -3.01665e-24 4.77762e-05 6.84448 6.61744e-24 3.26491e-12)
(3.78526e-13 -9.8326e-23 0 496.622 -2.28881e-06 4.77762e-05 6.84448 7.68603e-08 -2.79592e-12)
(-2.46963e-14 -1.79988e-22 0 448.493 -1.5781e-05 4.8359e-05 6.23465 -1.14543e-07 3.4186e-12)
(-3.10431e-13 1.93833e-22 0 448.493 -1.63661e-05 4.83589e-05 6.23465 -8.10771e-08 -2.39706e-12)
(-4.83955e-14 1.36468e-22 0 400.16 1.88774e-05 4.8922e-05 5.60412 -1.90473e-07 3.60347e-12)
(1.93582e-13 0 0 400.16 3.36635e-21 4.89219e-05 5.60412 -2.64698e-23 -3.1534e-12)
(-8.89812e-15 4.53913e-23 0 351.816 -3.38813e-21 4.94322e-05 4.9551 2.64698e-23 4.13148e-12)
(5.77725e-14 -8.07073e-23 0 351.816 -1.68873e-05 4.94322e-05 4.9551 1.97149e-07 -3.15051e-12)
(0 1.06067e-22 0 303.633 1.63022e-05 4.98248e-05 4.28979 -4.46534e-07 3.798e-12)
(1.97242e-13 0 0 303.633 6.77626e-21 4.98247e-05 4.28979 5.29396e-23 -3.43965e-12)
(0 9.62965e-35 0 255.79 -3.33015e-21 5.00148e-05 3.61086 5.29396e-23 4.59373e-12)
(1.9881e-13 0 0 255.79 -1.91035e-05 5.00147e-05 3.61086 4.51528e-07 -3.70973e-12)
(-5.53239e-14 1.03049e-22 -1.64878e-21 208.476 9.97047e-06 4.98147e-05 2.92108 -7.42868e-07 4.38906e-12)
(2.00195e-13 0 0 208.476 8.29643e-38 4.98146e-05 2.92108 1.05879e-22 -4.17202e-12)
(0 1.36637e-20 0 161.883 -1.01888e-20 4.98182e-05 2.22367 0 4.80105e-12)
(0 3.04715e-22 0 161.883 -2.35184e-07 4.98182e-05 2.22367 6.21099e-07 -4.08638e-12)
(-1.012e-13 1.84311e-24 0 116.194 -8.66516e-06 4.94467e-05 1.52134 -7.63296e-07 4.43731e-12)
(0 0 0 116.194 -1.19606e-20 4.94467e-05 1.52134 0 -4.43271e-12)
(-1.05958e-13 3.62024e-19 0 71.5878 8.40636e-21 4.90516e-05 0.817623 5.29396e-23 4.75601e-12)
(3.09171e-13 -1.97362e-22 0 71.5878 1.00675e-05 4.90516e-05 0.817623 4.94814e-07 -4.2617e-12)
(2.39094e-13 0 0 13.9425 -1.03765e-05 4.85892e-05 0.115792 -6.16479e-07 4.56956e-12)
(9.93899e-14 0 0 13.9425 1.00835e-20 4.85891e-05 0.115792 1.34639e-37 -4.8166e-12)
(1.73802e-13 1.38472e-19 0 -0.00886713 -3.38813e-21 4.80144e-05 7.47118e-05 -5.29396e-23 4.98149e-12)
(0 -9.58726e-23 0 -0.00887016 7.74686e-06 4.80143e-05 7.47373e-05 3.31425e-07 -4.76294e-12)
(5.08605e-14 0 0 -53.9836 -1.28301e-05 4.72536e-05 0.581076 -4.92647e-07 4.89717e-12)
(0 8.76348e-19 -3.02395e-21 -53.9836 -1.69407e-21 4.72535e-05 0.581076 5.29396e-23 -5.44833e-12)
(1.00013e-13 5.09835e-19 0 -92.5774 -2.28493e-23 4.66028e-05 1.26975 0 4.92053e-12)
(-1.00013e-13 -8.15011e-23 0 -92.5774 1.53209e-05 4.66028e-05 1.26975 1.16251e-07 -5.00697e-12)
(0 4.59046e-23 1.46895e-21 -129.296 -1.59672e-05 4.59627e-05 1.94665 -2.27409e-07 4.34417e-12)
(0 -7.52316e-37 0 -129.296 3.41498e-21 4.59627e-05 1.94665 2.64698e-23 -5.21018e-12)
(-5.17666e-14 0 1.44789e-21 -164.03 1.50425e-05 4.53356e-05 2.60864 -2.02201e-07 4.7518e-12)
(0 5.78679e-19 0 -164.03 5.04791e-06 4.53355e-05 2.60864 -4.50605e-08 -5.15136e-12)
(-4.98598e-14 -1.52814e-37 0 -196.686 -1.12565e-21 4.47362e-05 3.25291 -1.2309e-38 5.33331e-12)
(0 8.36215e-23 0 -196.686 -1.62381e-05 4.47361e-05 3.25291 7.04526e-08 -6.51553e-12)
(4.95042e-14 0 0 -227.18 1.17987e-05 4.40715e-05 3.87662 -4.95691e-07 5.07658e-12)
(-1.98017e-13 2.56368e-22 0 -227.18 1.28184e-22 4.40715e-05 3.87662 0 -5.78024e-12)
(0 3.55556e-23 2.77305e-21 -255.443 -3.35258e-21 4.37671e-05 4.47707 0 5.67117e-12)
(-1.96441e-13 -8.66578e-23 0 -255.443 -4.75993e-06 4.3767e-05 4.47707 2.90034e-07 -7.15207e-12)
(-1.40394e-13 0 0 -281.437 -3.97142e-06 4.3242e-05 5.05168 -5.89516e-07 4.87887e-12)
(3.8944e-13 0 0 -281.437 -8.47033e-22 4.32419e-05 5.05168 -3.82608e-35 -5.86562e-12)
(4.82155e-14 3.21636e-19 0 -305.141 -8.47033e-22 4.29331e-05 5.59869 2.64698e-23 5.58489e-12)
(1.92862e-13 1.47335e-22 0 -305.141 6.7198e-06 4.29331e-05 5.59869 2.19813e-07 -7.34616e-12)
(0 0 0 -326.544 -2.3333e-06 4.29041e-05 6.11602 -4.64138e-07 4.51016e-12)
(0 8.22846e-37 0 -326.544 5.92923e-21 4.2904e-05 6.11602 0 -5.76302e-12)
(-4.71938e-14 -2.93874e-39 0 -345.662 1.98029e-23 4.27896e-05 6.60209 2.64698e-23 6.06401e-12)
(1.88775e-13 -2.24937e-22 0 -345.662 -2.61502e-06 4.27895e-05 6.60209 1.76327e-07 -8.08296e-12)
(-4.66412e-14 -8.06231e-23 0 -362.536 1.89167e-06 4.27469e-05 7.05592 -5.17968e-07 4.4121e-12)
(-2.73133e-13 2.68896e-22 0 -362.536 6.72239e-23 4.27468e-05 7.05592 0 -5.88714e-12)
(4.6064e-14 5.081e-23 0 -377.212 -2.5665e-21 4.27752e-05 7.47667 0 6.5977e-12)
(1.84256e-13 -7.94676e-23 0 -377.212 -2.38011e-06 4.27752e-05 7.47667 2.16565e-07 -8.83169e-12)
(-4.54647e-14 -2.34986e-22 0 -389.748 -7.00729e-07 4.2758e-05 7.86368 -5.69607e-07 4.26109e-12)
(1.81859e-13 -9.40395e-37 0 -389.748 7.27419e-21 4.27579e-05 7.86368 -5.91169e-38 -5.9374e-12)
(-4.48456e-14 -1.20488e-37 0 -400.213 8.70855e-22 4.30667e-05 8.21658 0 7.12277e-12)
(0 0 0 -400.213 6.68802e-06 4.30667e-05 8.21658 2.05007e-07 -9.55832e-12)
(-4.42091e-14 0 0 -408.692 -7.12467e-06 4.34213e-05 8.53517 -4.31836e-07 3.52809e-12)
(0 -3.76158e-37 0 -408.692 3.44344e-21 4.34212e-05 8.53517 -5.29396e-23 -5.37076e-12)
(3.69824e-14 5.50467e-20 0 -415.287 -2.75237e-24 4.36848e-05 8.81989 3.30872e-24 8.0146e-12)
(9.36903e-14 -1.82834e-22 0 -415.287 3.60769e-06 4.36848e-05 8.81989 5.30197e-08 -1.06243e-11)
(4.28932e-14 1.47867e-22 0 -420.103 -6.79423e-06 4.38471e-05 9.07137 -3.52299e-07 2.79219e-12)
(0 1.88079e-37 0 -420.103 -1.64977e-21 4.3847e-05 9.07137 -5.29396e-23 -4.80607e-12)
(0 5.7001e-20 0 -423.241 1.07191e-05 4.42912e-05 9.29026 -1.33057e-07 8.63378e-12)
(0 -1.09311e-22 0 -423.241 1.22748e-05 4.42912e-05 9.29026 -1.00054e-07 -1.14259e-11)
(-4.15346e-14 0 0 -424.814 -1.55322e-35 4.49047e-05 9.47728 -7.32279e-08 2.41001e-12)
(0 -1.16723e-22 0 -424.814 -9.89706e-06 4.49046e-05 9.47728 -4.03188e-08 -4.56102e-12)
(3.80105e-14 3.54e-22 4.5312e-21 -424.944 -2.78706e-06 4.49655e-05 9.63365 -3.48577e-07 1.0299e-11)
(3.26756e-13 0 0 -424.944 -3.38813e-21 4.49657e-05 9.63365 5.29396e-23 -1.32407e-11)
(0 1.74463e-23 -4.46626e-21 -423.747 1.24829e-05 4.54489e-05 9.76091 -1.41432e-07 3.44262e-13)
(1.60598e-13 -5.23389e-23 0 -423.747 1.16085e-05 4.54487e-05 9.76091 -1.08721e-07 -2.6447e-12)
(-7.63803e-14 -1.17549e-37 0 -421.332 -8.33567e-22 4.58925e-05 9.86002 -7.05386e-08 1.23771e-11)
(-1.57806e-13 2.49346e-22 0 -421.332 -1.32557e-05 4.58926e-05 9.86002 -3.7933e-08 -1.5494e-11)
(-2.3529e-15 -2.71197e-22 4.33915e-21 -417.818 1.05659e-05 4.62105e-05 9.93254 -4.47418e-07 -8.59259e-13)
(-1.55009e-13 1.72743e-22 0 -417.818 5.06316e-21 4.62102e-05 9.93254 0 -1.57702e-12)
(0 2.46592e-23 0 -413.32 -2.06826e-21 4.68136e-05 9.98017 0 1.51804e-11)
(-3.58777e-14 3.34137e-23 0 -413.32 -4.34039e-06 4.68137e-05 9.98017 2.10086e-07 -1.84591e-11)
(0 0 0 -407.948 -5.67736e-06 4.69088e-05 10.0044 -5.533e-07 -3.48191e-12)
(1.14059e-13 3.00604e-19 -4.21566e-21 -407.948 5.78462e-21 4.69086e-05 10.0044 0 8.71998e-13)
(-3.30524e-14 1.00319e-19 -4.15524e-21 -401.809 0 4.71157e-05 10.0071 0 1.80319e-11)
(0 3.28686e-22 0 -401.809 8.51042e-06 4.7116e-05 10.0071 6.84016e-08 -2.1518e-11)
(0 5.1196e-22 0 -394.998 -1.70441e-06 4.7631e-05 9.98973 -3.39457e-07 -7.23651e-12)
(2.87761e-13 -4.81482e-35 0 -394.998 -6.77626e-21 4.76307e-05 9.98973 5.29396e-23 4.46409e-12)
(3.38646e-14 0 0 -387.611 0 4.77761e-05 9.95385 -1.46512e-08 2.28143e-11)
(2.82275e-13 -1.32069e-22 0 -387.611 -4.87922e-06 4.77764e-05 9.95385 1.7311e-08 -2.6489e-11)
(-6.92093e-14 0 0 -379.741 7.24023e-06 4.8002e-05 9.90125 -4.60859e-07 -1.17529e-11)
(0 2.93874e-38 0 -379.741 8.47033e-21 4.80016e-05 9.90125 1.05879e-22 8.77748e-12)
(-3.39317e-14 2.22239e-37 0 -371.471 -8.00699e-22 4.82152e-05 9.83344 5.7856e-52 2.91894e-11)
(2.71454e-13 -6.12826e-23 0 -371.471 -6.47869e-06 4.82156e-05 9.83344 1.98676e-07 -3.31078e-11)
(3.32663e-14 1.20809e-22 0 -362.881 4.10108e-06 4.82509e-05 9.75207 -6.32834e-07 -1.81491e-11)
(0 3.36191e-36 0 -362.881 1.21151e-20 4.82504e-05 9.75207 -3.35311e-38 1.49646e-11)
(-3.26091e-14 8.06551e-21 0 -354.039 1.81633e-22 4.84542e-05 9.65864 5.29396e-23 3.76959e-11)
(0 -5.95385e-23 0 -354.039 1.45831e-07 4.84548e-05 9.65864 3.04458e-07 -4.18568e-11)
(-3.19606e-14 -1.1737e-22 0 -345.012 -4.29954e-06 4.8364e-05 9.5544 -6.33016e-07 -2.72797e-11)
(1.27842e-13 -1.45761e-36 0 -345.012 -5.24917e-21 4.83632e-05 9.5544 1.05879e-22 2.38285e-11)
(-3.13212e-14 1.07665e-19 0 -335.861 -4.1266e-23 4.82328e-05 9.44094 0 4.86286e-11)
(1.25285e-13 5.78441e-23 0 -335.861 4.89781e-06 4.82336e-05 9.44094 1.79986e-07 -5.30974e-11)
(-6.13829e-14 0 0 -326.636 2.32777e-06 4.84331e-05 9.31942 -4.98012e-07 -3.98868e-11)
(0 0 0 -326.636 -2.3684e-23 4.84321e-05 9.31942 -5.29396e-23 3.61598e-11)
(-3.00715e-14 0 0 -317.384 0 4.81404e-05 9.19085 2.64698e-23 6.42115e-11)
(0 5.61979e-23 0 -317.384 -9.46014e-06 4.81414e-05 9.19085 2.3485e-07 -6.89819e-11)
(5.94771e-14 0 3.54511e-21 -308.153 1.34413e-05 4.79939e-05 9.05662 -7.7437e-07 -5.65053e-11)
(-1.17847e-13 3.01864e-22 0 -308.153 0 4.79925e-05 9.05662 1.05879e-22 5.2448e-11)
(2.88622e-14 1.63452e-22 0 -298.977 -5.0822e-21 4.77226e-05 8.91769 0 8.52656e-11)
(1.15449e-13 -2.18394e-22 0 -298.977 -1.36792e-05 4.7724e-05 8.91769 6.19797e-07 -9.04049e-11)
(2.82732e-14 0 0 -289.886 1.45617e-05 4.74102e-05 8.77491 -1.19538e-06 -7.94569e-11)
(-1.13093e-13 6.46466e-22 0 -289.886 1.15352e-20 4.74085e-05 8.77491 -2.11758e-22 7.50463e-11)
(-2.76946e-14 4.70198e-38 0 -280.911 -2.59829e-36 4.71791e-05 8.62916 2.11758e-22 1.13819e-10)
(1.10778e-13 0 0 -280.911 -1.1135e-05 4.7181e-05 8.62916 1.05796e-06 -1.19338e-10)
(0 0 0 -272.076 1.01538e-05 4.67792e-05 8.48128 -1.39225e-06 -1.11288e-10)
(-5.61399e-14 -4.17921e-36 0 -272.076 1.50572e-20 4.67769e-05 8.48128 0 1.06458e-10)
(-2.76676e-14 -2.35099e-38 -6.59648e-21 -263.401 -9.88206e-35 4.62293e-05 8.33197 0 1.52397e-10)
(1.06277e-13 0 0 -263.401 -1.01795e-05 4.62317e-05 8.33197 1.37857e-06 -1.58368e-10)
(2.60223e-14 -7.43775e-23 0 -254.902 1.10638e-05 4.55974e-05 8.18183 -1.39083e-06 -1.54326e-10)
(0 2.93874e-38 0 -254.902 1.69407e-20 4.55943e-05 8.18183 2.11758e-22 1.49051e-10)
(0 4.74862e-22 0 -246.592 -1.52466e-20 4.52243e-05 8.03149 0 2.05192e-10)
(-1.28824e-13 0 0 -246.592 -4.37938e-06 4.52276e-05 8.03149 1.74122e-06 -2.11625e-10)
(-2.6495e-14 3.94806e-22 -6.31689e-21 -238.479 2.5447e-06 4.45728e-05 7.88129 -1.37069e-06 -2.13879e-10)
(0 0 0 -238.479 -1.8316e-20 4.45689e-05 7.88129 0 2.081e-10)
(0 3.00635e-21 0 -230.575 -2.64698e-23 4.39372e-05 7.73175 0 2.76716e-10)
(0 0 0 -230.575 6.72117e-07 4.39416e-05 7.73175 1.83344e-06 -2.83686e-10)
(2.39385e-14 -1.16965e-22 0 -222.884 9.55815e-07 4.32116e-05 7.58328 -1.32429e-06 -2.95345e-10)
(0 7.96118e-20 0 -222.884 3.45587e-20 4.32063e-05 7.58328 -4.23516e-22 2.89025e-10)
(2.34429e-14 2.54767e-22 0 -215.409 5.09534e-22 4.22891e-05 7.43618 0 3.74142e-10)
(-5.0744e-14 0 0 -215.409 -3.11395e-07 4.2295e-05 7.43618 1.86584e-06 -3.81679e-10)
(-4.59145e-14 2.80519e-22 0 -208.15 8.68525e-06 4.17066e-05 7.29062 -1.24153e-06 -4.0705e-10)
(9.1829e-14 1.88079e-37 0 -208.15 3.6809e-20 4.16996e-05 7.29062 -3.42384e-37 4.00125e-10)
(-2.24813e-14 4.70198e-38 0 -201.108 0 4.05691e-05 7.14683 0 5.07467e-10)
(0 0 0 -201.108 -1.23457e-05 4.05769e-05 7.14683 2.15764e-06 -5.15654e-10)
(0 0 0 -194.278 2.22485e-05 3.9851e-05 7.00498 -1.10875e-06 -5.59574e-10)
(-4.85932e-14 0 0 -194.278 2.37169e-20 3.98417e-05 7.00498 0 5.52e-10)
(0 9.62965e-35 0 -187.659 -1.77224e-21 3.88268e-05 6.86505 0 6.90201e-10)
(-4.78968e-14 0 -1.14195e-20 -187.659 -2.12416e-05 3.88373e-05 6.86505 2.94074e-06 -6.99062e-10)
(-2.36051e-14 7.03488e-22 -5.6279e-21 -181.246 2.41462e-05 3.76661e-05 6.72719 -9.07579e-07 -7.68726e-10)
(0 0 -5.6279e-21 -181.246 2.81185e-20 3.76538e-05 6.72719 0 7.60431e-10)
(0 5.25946e-22 0 -175.032 -1.05189e-21 3.65997e-05 6.59143 0 9.39253e-10)
(1.42108e-13 0 0 -175.032 -1.63668e-05 3.66137e-05 6.59143 3.81956e-06 -9.4889e-10)
(-4.04846e-14 1.06973e-21 0 -169.012 2.43793e-05 3.57003e-05 6.45761 -6.13432e-07 -1.05667e-09)
(8.09691e-14 -3.76158e-37 0 -169.012 -1.23175e-21 3.56838e-05 6.45761 -8.47033e-22 1.04765e-09)
(4.24263e-14 6.5207e-22 1.07787e-20 -163.181 0 3.42549e-05 6.32582 0 1.28205e-09)
(0 0 0 -163.181 -2.36023e-05 3.42736e-05 6.32582 4.4345e-06 -1.29208e-09)
(0 -3.36481e-19 0 -157.532 9.90258e-06 3.30092e-05 6.19604 -1.92748e-07 -1.45263e-09)
(-9.99195e-14 3.86853e-21 0 -157.532 1.54741e-21 3.29872e-05 6.19604 -8.47033e-22 1.44234e-09)
(-1.90064e-14 -5.64237e-36 0 -152.06 -1.00977e-20 3.16435e-05 6.06816 8.47033e-22 1.75252e-09)
(7.60255e-14 4.46461e-22 0 -152.06 -2.50499e-05 3.16686e-05 6.06816 5.2087e-06 -1.76386e-09)
(0 -9.57581e-22 0 -146.759 4.06576e-20 3.05486e-05 5.94215 0 -1.99853e-09)
(-2.16466e-14 0 -1.03219e-20 -146.759 1.99401e-05 3.05193e-05 5.94215 -3.99492e-07 1.98772e-09)
(2.13363e-14 0 1.01739e-20 -141.624 -2.06862e-21 2.88889e-05 5.81799 8.47033e-22 2.39743e-09)
(-2.13363e-14 0 0 -141.624 -3.19817e-05 2.89224e-05 5.81799 6.20673e-06 -2.40956e-09)
(-1.78468e-14 3.27258e-35 0 -136.651 1.1815e-19 2.76213e-05 5.69569 -1.69407e-21 -2.74798e-09)
(0 0 0 -136.651 3.39027e-05 2.75823e-05 5.69569 -1.22346e-06 2.73608e-09)
(6.5048e-15 -2.63311e-36 0 -131.834 -5.21345e-21 2.58057e-05 5.57524 -3.61756e-37 3.28292e-09)
(1.19084e-13 -3.38416e-22 0 -131.834 -3.89399e-05 2.58504e-05 5.57524 7.50029e-06 -3.29597e-09)
(0 -1.49276e-21 0 -127.168 8.72862e-20 2.44954e-05 5.45653 0 -3.7791e-09)
(0 0 -9.74273e-21 -127.168 4.13544e-05 2.44432e-05 5.45653 -2.35964e-06 3.76613e-09)
(-4.02783e-14 3.39677e-35 -9.60309e-21 -122.648 -6.11907e-20 2.26331e-05 5.33953 4.71396e-51 4.50117e-09)
(0 0 0 -122.648 -4.57451e-05 2.26931e-05 5.33953 9.18538e-06 -4.51518e-09)
(-2.93909e-14 5.04052e-35 0 -118.266 9.26772e-20 2.14183e-05 5.22414 1.55045e-36 -5.20067e-09)
(1.3131e-13 -1.05151e-20 0 -118.266 4.86725e-05 2.13484e-05 5.22414 -3.91659e-06 5.18654e-09)
(0 3.62301e-34 0 -114.018 0 1.93796e-05 5.11025 0 6.18011e-09)
(1.286e-13 -7.88928e-22 0 -114.018 -5.52964e-05 1.946e-05 5.11025 1.13909e-05 -6.19513e-09)
(-3.50294e-14 0 0 -109.898 1.03515e-19 1.81041e-05 4.99779 6.4609e-37 -7.1628e-09)
(0 0 -9.19607e-21 -109.898 5.82063e-05 1.80103e-05 4.99779 -6.04077e-06 7.14746e-09)
(3.44293e-14 2.58281e-21 0 -105.899 -1.35525e-20 1.5796e-05 4.88663 0 8.49705e-09)
(1.04352e-13 4.83012e-21 0 -105.899 -6.58663e-05 1.59041e-05 4.88663 1.42901e-05 -8.51309e-09)
(1.87367e-14 -1.92593e-34 0 -102.017 1.91511e-21 1.47814e-05 4.77665 -3.38813e-21 -9.87516e-09)
(4.16792e-14 -6.66398e-21 0 -102.017 7.28426e-05 1.46555e-05 4.77665 -8.92973e-06 9.85857e-09)
(1.47952e-14 6.51024e-21 2.85125e-20 -98.2467 -1.36057e-19 1.06766e-05 4.66775 0 1.16992e-08)
(0 0 0 -98.2467 -8.37553e-05 1.24302e-05 4.66775 1.81159e-05 -1.17163e-08)
(2.89875e-14 -1.46853e-20 0 -94.583 4.18996e-19 1.12831e-05 4.55983 -3.38813e-21 -1.3628e-08)
(5.79751e-14 -7.53544e-21 0 -94.583 9.05999e-05 1.11138e-05 4.55983 -1.28503e-05 1.36101e-08)
(0 1.92593e-34 9.64774e-20 -91.0222 1.6478e-20 3.08102e-07 4.45281 3.38813e-21 7.44698e-09)
(-1.79426e-14 0 -6.45907e-20 -91.0222 -0.000100278 6.09308e-06 4.45281 2.31821e-05 -1.61478e-08)
(1.76854e-14 -4.62844e-21 8.43305e-21 -87.5605 1.71222e-19 7.86068e-06 4.34664 0 -1.88278e-08)
(5.56511e-14 -8.41491e-21 0 -87.5605 0.00010665 7.63262e-06 4.34664 -1.81627e-05 1.88086e-08)
(2.72662e-14 2.07622e-20 1.08783e-19 -84.1949 -4.33681e-19 8.47033e-22 4.24124 0 0)
(0 0 0 -84.1949 -0.000119311 3.58245e-06 4.24124 2.99119e-05 -2.22898e-08)
(1.33606e-14 -1.16529e-20 0 -80.9223 2.7485e-19 4.21906e-06 4.1366 -6.77626e-21 -2.60444e-08)
(5.34424e-14 -9.21437e-21 0 -80.9223 0.000128276 3.91135e-06 4.1366 -2.53549e-05 2.60239e-08)
(0 1.30783e-20 9.22626e-21 -77.7399 -5.14996e-19 3.17637e-22 4.03267 -6.77626e-21 -6.61744e-24)
(5.23808e-14 4.59165e-21 0 -77.7399 -0.000142968 1.20805e-06 4.03267 3.88779e-05 -3.08161e-08)
(-1.28369e-14 0 0 -74.6454 1.02879e-48 5.32655e-07 3.92943 -6.77626e-21 -3.60756e-08)
(-5.13475e-14 9.84597e-21 0 -74.6454 0.000154378 1.16748e-07 3.92943 -3.50885e-05 3.60537e-08)
(-2.90394e-14 -1.92593e-34 -2.49793e-37 -71.6372 -3.45606e-19 -4.47193e-22 3.82689 -6.77626e-21 -6.61744e-24)
(0 0 0 -71.6372 -0.000172156 -2.83297e-06 3.82689 5.0856e-05 -4.26729e-08)
(-1.23412e-14 0 0 -68.7142 3.79471e-19 -3.25835e-06 3.72507 -1.48255e-50 -5.00422e-08)
(-4.93648e-14 1.01685e-20 0 -68.7142 0.000185783 -3.82149e-06 3.72507 -4.82621e-05 5.00189e-08)
(1.59855e-14 7.70372e-34 2.93686e-35 -65.8767 0 0 3.62407 1.35525e-20 0)
(0 0 0 -65.8767 -0.000205798 -6.98796e-06 3.62407 6.68997e-05 -5.91899e-08)
(1.57564e-14 -1.16512e-20 0 -63.1262 0 -7.1846e-06 3.52403 -1.35525e-20 -6.95218e-08)
(9.49848e-14 -1.97925e-20 0 -63.1262 0.000220443 -7.94854e-06 3.52403 -6.60984e-05 6.94971e-08)
(-1.16491e-14 0 2.93874e-39 -60.4657 0 -1.69407e-21 3.42521 3.63251e-36 3.16688e-39)
(4.65966e-14 3.27151e-21 0 -60.4657 -0.000241502 -1.12963e-05 3.42521 8.84421e-05 -8.22416e-08)
(-1.5308e-14 -1.46569e-20 -1.45989e-20 -57.8997 5.42101e-19 -1.09389e-05 3.32794 -1.35525e-20 -9.67422e-08)
(-4.57269e-14 8.50419e-21 0 -57.8997 0.000258849 -1.19774e-05 3.32794 -9.0264e-05 9.67162e-08)
(-1.50886e-14 6.01853e-34 5.70115e-37 -55.4335 -1.07931e-18 -1.0417e-21 3.23264 1.35525e-20 -1.32256e-38)
(0 2.87792e-20 0 -55.4335 -0.000286123 -1.58623e-05 3.23264 0.000117437 -1.14479e-07)
(-1.8729e-14 -2.36528e-33 -7.09169e-21 -53.0731 7.37632e-20 -1.47149e-05 3.13983 0 -1.34855e-07)
(5.8935e-14 -5.44771e-21 0 -53.0731 0.000310104 -1.61294e-05 3.13983 -0.000123036 1.34828e-07)
(1.46592e-14 7.70372e-34 3.17871e-35 -50.8238 -8.29139e-20 -8.86089e-23 3.05001 0 2.64698e-23)
(0 0 0 -50.8238 -0.000342888 -2.03903e-05 3.05001 0.000149395 -1.59652e-07)
(1.44491e-14 -4.64983e-20 1.37797e-20 -48.6898 7.58942e-19 -1.85797e-05 2.96369 0 -1.88325e-07)
(0 5.51189e-20 0 -48.6898 0.000369286 -2.05103e-05 2.96369 -0.000167498 1.88297e-07)
(-3.51106e-14 -1.14352e-34 -5.87747e-38 -46.6731 -2.12975e-19 -1.23819e-22 2.88129 2.71051e-20 0)
(1.4242e-14 0 0 -46.6731 -0.000404287 -2.5078e-05 2.88129 0.000188379 -2.23083e-07)