/*--------------------------------*- C++ -*----------------------------------*\
| =========                 |                                                 |
| \\      /  F ield         | OpenFOAM: The Open Source CFD Toolbox           |
|  \\    /   O peration     | Version:  2012                                  |
|   \\  /    A nd           | Website:  www.openfoam.com                      |
|    \\/     M anipulation  |                                                 |
\*---------------------------------------------------------------------------*/
FoamFile
{
    version     2.0;
    format      ascii;
    class       volScalarField;
    location    "15500";
    object      p;
}
// * * * * * * * * * * * * * * * * * * * * * * * * * * * * * * * * * * * * * //

dimensions      [0 2 -2 0 0 0 0];


internalField   nonuniform List<scalar> 
2560
(
2.79866e-09
0.000146891
-3.56191e-08
0.000146836
-2.32999e-07
0.000146628
-8.19359e-07
0.000146039
-2.19625e-06
0.000144664
-4.91027e-06
0.00014195
-9.60913e-06
0.000137251
-1.70858e-05
0.000129774
-2.82816e-05
0.000118578
-4.42703e-05
0.000102589
-6.6263e-05
8.05959e-05
-9.56235e-05
5.1235e-05
-0.000133836
1.30226e-05
-0.000182532
-3.5674e-05
-0.000243482
-9.66242e-05
-0.000318588
-0.000171731
-0.00040988
-0.000263023
-0.000519511
-0.000372655
-0.000649794
-0.000502938
-0.000803131
-0.000656275
-0.000982029
-0.000835174
-0.00118916
-0.0010423
-0.00142731
-0.00128046
-0.0016993
-0.00155244
-0.00200807
-0.00186122
-0.00235677
-0.00220992
-0.00274856
-0.00260171
-0.00318659
-0.00303974
-0.0036742
-0.00352734
-0.00421488
-0.00406802
-0.0048121
-0.00466525
-0.0054693
-0.00532245
-0.00619009
-0.00604324
-0.00697824
-0.00683139
-0.0078374
-0.00769055
-0.00877122
-0.00862437
-0.00978352
-0.00963668
-0.0108782
-0.0107314
-0.0120592
-0.0119123
-0.01333
-0.0131831
-0.0146947
-0.0145478
-0.0161572
-0.0160104
-0.0177215
-0.0175747
-0.0193913
-0.0192444
-0.0211705
-0.0210236
-0.0230631
-0.0229162
-0.0250729
-0.024926
-0.0272036
-0.0270568
-0.0294592
-0.0293124
-0.031844
-0.0316971
-0.034361
-0.0342141
-0.037013
-0.0368662
-0.0398063
-0.0396594
-0.0427426
-0.0425958
-0.0458254
-0.0456785
-0.0490599
-0.048913
-0.0524474
-0.0523005
-0.0559933
-0.0558464
-0.0596996
-0.0595527
-0.0635693
-0.0634224
-0.0676062
-0.0674594
-0.0718136
-0.0716667
-0.076195
-0.0760481
-0.0807506
-0.0806038
-0.0854852
-0.0853383
-0.0904025
-0.0902556
-0.0955018
-0.0953548
-0.100788
-0.100641
-0.106261
-0.106114
-0.111925
-0.111778
-0.11778
-0.117633
-0.123828
-0.123681
-0.130072
-0.129925
-0.13651
-0.136363
-0.143145
-0.142998
-0.149978
-0.149831
-0.15701
-0.156863
-0.164238
-0.164091
-0.171665
-0.171518
-0.179289
-0.179142
-0.187112
-0.186965
-0.19513
-0.194983
-0.203344
-0.203197
-0.211751
-0.211604
-0.220349
-0.220202
-0.229137
-0.22899
-0.238113
-0.237966
-0.247275
-0.247128
-0.256618
-0.256471
-0.26614
-0.265993
-0.275835
-0.275688
-0.285703
-0.285556
-0.295737
-0.29559
-0.305935
-0.305788
-0.316288
-0.316141
-0.326795
-0.326648
-0.33745
-0.337303
-0.348244
-0.348097
-0.359176
-0.359029
-0.370235
-0.370088
-0.381419
-0.381272
-0.39272
-0.392573
-0.404129
-0.403982
-0.41564
-0.415493
-0.427247
-0.4271
-0.438941
-0.438794
-0.450716
-0.450569
-0.462562
-0.462415
-0.474473
-0.474325
-0.48644
-0.486293
-0.498455
-0.498307
-0.510508
-0.510361
-0.522596
-0.522448
-0.534704
-0.534556
-0.546829
-0.546681
-0.558957
-0.55881
-0.571086
-0.570938
-0.583202
-0.583055
-0.595302
-0.595154
-0.607372
-0.607225
-0.619407
-0.619259
-0.631398
-0.631251
-0.643338
-0.64319
-0.655218
-0.655071
-0.66703
-0.666883
-0.678766
-0.678619
-0.690422
-0.690274
-0.701983
-0.701836
-0.713451
-0.713304
-0.72481
-0.724663
-0.736061
-0.735913
-0.747189
-0.747041
-0.758197
-0.758049
-0.769066
-0.768919
-0.779803
-0.779655
-0.790389
-0.790242
-0.800832
-0.800684
-0.81111
-0.810963
-0.821235
-0.821087
-0.831182
-0.831035
-0.840967
-0.840819
-0.850562
-0.850416
-0.85999
-0.859841
-0.869214
-0.869068
-0.878267
-0.878117
-0.887104
-0.886958
-0.895767
-0.895617
-0.904203
-0.904057
-0.912464
-0.912313
-0.920487
-0.920343
-0.928337
-0.928186
-0.935938
-0.935794
-0.94337
-0.943217
-0.950539
-0.950396
-0.957546
-0.957392
-0.964276
-0.964135
-0.970855
-0.970699
-0.977141
-0.977002
-0.98329
-0.983131
-0.989128
-0.988991
-0.994846
-0.994685
-1.00023
-1.0001
-1.00552
-1.00536
-1.01046
-1.01033
-1.01533
-1.01515
-1.0198
-1.01968
-1.02426
-1.02408
-1.02827
-1.02816
-1.03232
-1.03213
-1.03588
-1.03578
-1.03953
-1.03933
-1.04263
-1.04255
-1.04591
-1.04569
-1.04854
-1.04848
-1.05146
-1.05121
-1.05363
-1.05359
-1.05621
-1.05593
-1.05791
-1.05791
-1.06019
-1.05987
-1.06142
-1.06146
-1.06344
-1.06306
-1.06417
-1.06429
-1.06598
-1.06552
-1.06649
-1.06641
-1.06785
-1.0673
-1.06819
-1.06787
-1.06908
-1.06842
-1.06926
-1.06869
-1.06968
-1.0689
-1.0697
-1.0689
-1.06935
-1.06878
-1.0692
-1.06851
-1.06842
-1.06807
-1.06813
-1.06755
-1.06696
-1.06681
-1.06653
-1.06604
-1.06498
-1.06502
-1.06443
-1.06401
-1.06273
-1.06273
-1.06185
-1.06148
-1.06001
-1.05996
-1.05882
-1.05849
-1.05683
-1.05674
-1.05535
-1.05505
-1.05321
-1.05309
-1.05146
-1.05119
-1.04916
-1.04903
-1.04716
-1.04691
-1.04471
-1.04456
-1.04248
-1.04225
-1.03988
-1.03971
-1.03744
-1.03721
-1.03468
-1.0345
-1.03204
-1.03181
-1.02912
-1.02894
-1.0263
-1.02608
-1.02324
-1.02305
-1.02024
-1.02003
-1.01703
-1.01684
-1.01386
-1.01364
-1.01049
-1.01029
-1.00714
-1.00693
-1.00361
-1.00341
-1.00007
-0.999858
-0.996368
-0.996164
-0.992639
-0.992426
-0.988762
-0.988555
-0.984852
-0.984638
-0.980813
-0.980603
-0.976734
-0.97652
-0.972537
-0.972325
-0.968291
-0.968075
-0.963929
-0.963715
-0.959508
-0.959292
-0.954974
-0.954759
-0.950374
-0.950156
-0.945666
-0.945449
-0.940885
-0.940666
-0.935997
-0.935778
-0.931029
-0.930808
-0.92596
-0.925739
-0.92081
-0.920588
-0.915571
-0.915348
-0.910252
-0.910028
-0.904851
-0.904627
-0.899366
-0.899141
-0.893804
-0.893578
-0.888154
-0.887927
-0.882428
-0.882201
-0.876606
-0.876378
-0.870708
-0.87048
-0.864706
-0.864477
-0.858638
-0.858409
-0.852462
-0.852232
-0.846228
-0.845998
-0.839886
-0.839656
-0.833505
-0.833275
-0.82702
-0.82679
-0.820516
-0.820286
-0.813901
-0.813671
-0.807272
-0.807042
-0.800506
-0.800275
-0.79372
-0.793489
-0.786769
-0.786537
-0.779798
-0.779565
-0.772642
-0.772409
-0.765492
-0.765257
-0.758155
-0.757919
-0.750865
-0.750628
-0.743385
-0.743147
-0.735982
-0.735742
-0.728356
-0.728115
-0.720822
-0.720578
-0.713027
-0.712782
-0.705361
-0.705114
-0.697404
-0.697155
-0.689618
-0.689366
-0.681497
-0.681241
-0.673591
-0.673331
-0.665294
-0.66503
-0.657264
-0.656994
-0.648782
-0.648508
-0.640647
-0.640365
-0.632005
-0.631718
-0.623804
-0.623506
-0.615032
-0.614728
-0.606817
-0.606499
-0.597961
-0.597635
-0.589795
-0.58945
-0.580896
-0.580544
-0.572841
-0.572464
-0.563934
-0.56355
-0.556039
-0.555622
-0.54715
-0.546731
-0.539472
-0.539007
-0.530603
-0.530146
-0.523151
-0.522628
-0.514278
-0.513779
-0.507108
-0.506512
-0.498272
-0.497733
-0.491511
-0.490821
-0.482813
-0.482238
-0.476664
-0.475851
-0.468205
-0.467611
-0.462827
-0.461847
-0.454587
-0.454003
-0.450067
-0.448861
-0.441974
-0.441456
-0.43848
-0.436959
-0.430509
-0.430147
-0.427957
-0.426351
-0.420419
-0.420333
-0.418282
-0.417254
-0.411921
-0.412225
-0.410243
-0.409879
-0.405235
-0.406027
-0.404064
-0.40444
-0.399458
-0.40191
-0.398839
-0.401085
-0.396947
-0.400159
0.000147573
7.09687e-07
0.000147518
6.6843e-07
0.00014731
4.70679e-07
0.000146721
-1.15506e-07
0.000145346
-1.49253e-06
0.000142632
-4.20685e-06
0.000137933
-8.90593e-06
0.000130456
-1.6383e-05
0.000119259
-2.75792e-05
0.00010327
-4.35684e-05
8.12767e-05
-6.55616e-05
5.19154e-05
-9.49228e-05
1.37025e-05
-0.000133135
-3.49946e-05
-0.000181832
-9.59455e-05
-0.000242783
-0.000171053
-0.000317891
-0.000262346
-0.000409183
-0.000371978
-0.000518815
-0.000502262
-0.000649099
-0.0006556
-0.000802437
-0.0008345
-0.000981336
-0.00104163
-0.00118847
-0.00127978
-0.00142662
-0.00155177
-0.00169861
-0.00186055
-0.00200738
-0.00220925
-0.00235608
-0.00260104
-0.00274787
-0.00303907
-0.0031859
-0.00352668
-0.00367351
-0.00406736
-0.00421419
-0.00466458
-0.00481142
-0.00532178
-0.00546862
-0.00604257
-0.00618941
-0.00683073
-0.00697757
-0.00768989
-0.00783673
-0.0086237
-0.00877054
-0.00963601
-0.00978285
-0.0107307
-0.0108776
-0.0119116
-0.0120585
-0.0131825
-0.0133293
-0.0145472
-0.014694
-0.0160097
-0.0161566
-0.017574
-0.0177209
-0.0192438
-0.0193906
-0.021023
-0.0211698
-0.0229155
-0.0230624
-0.0249254
-0.0250722
-0.0270561
-0.027203
-0.0293117
-0.0294586
-0.0316965
-0.0318433
-0.0342134
-0.0343603
-0.0368655
-0.0370124
-0.0396587
-0.0398056
-0.0425951
-0.042742
-0.0456779
-0.0458247
-0.0489123
-0.0490592
-0.0522998
-0.0524467
-0.0558457
-0.0559926
-0.059552
-0.0596989
-0.0634217
-0.0635686
-0.0674587
-0.0676056
-0.071666
-0.071813
-0.0760474
-0.0761943
-0.0806031
-0.08075
-0.0853376
-0.0854845
-0.090255
-0.0904019
-0.0953542
-0.0955011
-0.10064
-0.100787
-0.106113
-0.10626
-0.111777
-0.111924
-0.117633
-0.11778
-0.123681
-0.123828
-0.129924
-0.130071
-0.136362
-0.136509
-0.142998
-0.143145
-0.14983
-0.149977
-0.156862
-0.157009
-0.16409
-0.164237
-0.171518
-0.171665
-0.179142
-0.179289
-0.186965
-0.187112
-0.194983
-0.19513
-0.203196
-0.203343
-0.211603
-0.21175
-0.220201
-0.220348
-0.228989
-0.229136
-0.237966
-0.238113
-0.247127
-0.247274
-0.25647
-0.256617
-0.265992
-0.266139
-0.275688
-0.275835
-0.285555
-0.285702
-0.29559
-0.295737
-0.305787
-0.305934
-0.31614
-0.316287
-0.326647
-0.326794
-0.337302
-0.337449
-0.348096
-0.348244
-0.359028
-0.359175
-0.370088
-0.370235
-0.381271
-0.381418
-0.392572
-0.39272
-0.403981
-0.404128
-0.415492
-0.41564
-0.4271
-0.427247
-0.438793
-0.43894
-0.450568
-0.450715
-0.462414
-0.462561
-0.474325
-0.474472
-0.486292
-0.48644
-0.498307
-0.498454
-0.510361
-0.510508
-0.522448
-0.522595
-0.534556
-0.534703
-0.546681
-0.546828
-0.558809
-0.558956
-0.570938
-0.571085
-0.583054
-0.583201
-0.595154
-0.595301
-0.607224
-0.607371
-0.619259
-0.619406
-0.63125
-0.631397
-0.64319
-0.643337
-0.65507
-0.655217
-0.666882
-0.66703
-0.678618
-0.678766
-0.690274
-0.690421
-0.701835
-0.701982
-0.713303
-0.713451
-0.724663
-0.72481
-0.735913
-0.73606
-0.747041
-0.747188
-0.758048
-0.758196
-0.768919
-0.769066
-0.779655
-0.779803
-0.790241
-0.790388
-0.800683
-0.800831
-0.810962
-0.811109
-0.821086
-0.821235
-0.831035
-0.831181
-0.840818
-0.840967
-0.850415
-0.850562
-0.85984
-0.859989
-0.869068
-0.869214
-0.878117
-0.878266
-0.886957
-0.887103
-0.895616
-0.895766
-0.904057
-0.904202
-0.912313
-0.912463
-0.920342
-0.920487
-0.928185
-0.928337
-0.935794
-0.935938
-0.943216
-0.943369
-0.950396
-0.950538
-0.957391
-0.957545
-0.964135
-0.964276
-0.970699
-0.970854
-0.977002
-0.977141
-0.983131
-0.983289
-0.988991
-0.989127
-0.994684
-0.994846
-1.0001
-1.00023
-1.00536
-1.00552
-1.01033
-1.01045
-1.01515
-1.01532
-1.01968
-1.0198
-1.02408
-1.02426
-1.02816
-1.02827
-1.03213
-1.03232
-1.03578
-1.03588
-1.03933
-1.03953
-1.04255
-1.04263
-1.04569
-1.04591
-1.04848
-1.04854
-1.05121
-1.05146
-1.05359
-1.05363
-1.05593
-1.05621
-1.05791
-1.05791
-1.05987
-1.06019
-1.06146
-1.06141
-1.06306
-1.06344
-1.06429
-1.06417
-1.06552
-1.06598
-1.06641
-1.06649
-1.0673
-1.06785
-1.06787
-1.06819
-1.06842
-1.06908
-1.06869
-1.06926
-1.0689
-1.06968
-1.0689
-1.0697
-1.06878
-1.06935
-1.06851
-1.0692
-1.06807
-1.06842
-1.06755
-1.06813
-1.06681
-1.06696
-1.06604
-1.06653
-1.06502
-1.06498
-1.06401
-1.06443
-1.06273
-1.06273
-1.06148
-1.06185
-1.05996
-1.06001
-1.05849
-1.05881
-1.05674
-1.05683
-1.05505
-1.05535
-1.05309
-1.05321
-1.05119
-1.05146
-1.04903
-1.04916
-1.04691
-1.04716
-1.04456
-1.04471
-1.04225
-1.04248
-1.03971
-1.03988
-1.03721
-1.03744
-1.0345
-1.03467
-1.03181
-1.03204
-1.02894
-1.02912
-1.02608
-1.0263
-1.02305
-1.02324
-1.02003
-1.02024
-1.01684
-1.01703
-1.01364
-1.01386
-1.01029
-1.01049
-1.00693
-1.00714
-1.00341
-1.00361
-0.999858
-1.00007
-0.996163
-0.996368
-0.992426
-0.992638
-0.988555
-0.988761
-0.984638
-0.984851
-0.980603
-0.980812
-0.976519
-0.976734
-0.972325
-0.972537
-0.968075
-0.96829
-0.963715
-0.963928
-0.959291
-0.959508
-0.954759
-0.954974
-0.950156
-0.950374
-0.945448
-0.945666
-0.940665
-0.940885
-0.935778
-0.935997
-0.930808
-0.931029
-0.925739
-0.92596
-0.920587
-0.92081
-0.915348
-0.915571
-0.910028
-0.910252
-0.904627
-0.904851
-0.89914
-0.899366
-0.893578
-0.893804
-0.887926
-0.888153
-0.882201
-0.882428
-0.876377
-0.876605
-0.87048
-0.870708
-0.864477
-0.864706
-0.858409
-0.858638
-0.852232
-0.852461
-0.845998
-0.846228
-0.839655
-0.839885
-0.833275
-0.833505
-0.82679
-0.82702
-0.820286
-0.820516
-0.813671
-0.813901
-0.807042
-0.807272
-0.800274
-0.800505
-0.793488
-0.793719
-0.786537
-0.786769
-0.779565
-0.779798
-0.772408
-0.772642
-0.765257
-0.765491
-0.757919
-0.758155
-0.750627
-0.750864
-0.743147
-0.743385
-0.735742
-0.735982
-0.728114
-0.728355
-0.720578
-0.720821
-0.712782
-0.713027
-0.705114
-0.705361
-0.697154
-0.697404
-0.689365
-0.689618
-0.681241
-0.681496
-0.67333
-0.67359
-0.66503
-0.665293
-0.656994
-0.657263
-0.648508
-0.648782
-0.640364
-0.640646
-0.631717
-0.632005
-0.623505
-0.623803
-0.614727
-0.615032
-0.606499
-0.606817
-0.597634
-0.59796
-0.58945
-0.589795
-0.580543
-0.580896
-0.572463
-0.572841
-0.56355
-0.563933
-0.555622
-0.556039
-0.546731
-0.547149
-0.539007
-0.539471
-0.530146
-0.530603
-0.522627
-0.52315
-0.513779
-0.514277
-0.506511
-0.507107
-0.497733
-0.498272
-0.490821
-0.491511
-0.482238
-0.482813
-0.47585
-0.476664
-0.46761
-0.468205
-0.461847
-0.462826
-0.454003
-0.454587
-0.44886
-0.450067
-0.441455
-0.441974
-0.436959
-0.438479
-0.430147
-0.430509
-0.426351
-0.427957
-0.420333
-0.420419
-0.417254
-0.418282
-0.412225
-0.411921
-0.409879
-0.410243
-0.406026
-0.405235
-0.40444
-0.404064
-0.40191
-0.399455
-0.401085
-0.398836
-0.400159
-0.396945
-0.396952
-0.400174
-0.398853
-0.401053
-0.399477
-0.401907
-0.403683
-0.40439
-0.404859
-0.405998
-0.409876
-0.409817
-0.411559
-0.412177
-0.417921
-0.417183
-0.420063
-0.420262
-0.427609
-0.426273
-0.430164
-0.430061
-0.438169
-0.436873
-0.441639
-0.441354
-0.449771
-0.448767
-0.454265
-0.45389
-0.462538
-0.461742
-0.467892
-0.467484
-0.476383
-0.475735
-0.482511
-0.482102
-0.491239
-0.490698
-0.497983
-0.497592
-0.506839
-0.506378
-0.513997
-0.513631
-0.522883
-0.522483
-0.530329
-0.529991
-0.539213
-0.53886
-0.546882
-0.546571
-0.555784
-0.555469
-0.563674
-0.563389
-0.572584
-0.5723
-0.580643
-0.580381
-0.589545
-0.589287
-0.597714
-0.597472
-0.606569
-0.606331
-0.61479
-0.614564
-0.623555
-0.623334
-0.631757
-0.631544
-0.640402
-0.640193
-0.648535
-0.648333
-0.657022
-0.656823
-0.66505
-0.664855
-0.673349
-0.673157
-0.681255
-0.681067
-0.689378
-0.689192
-0.697161
-0.696978
-0.705122
-0.70494
-0.712784
-0.712604
-0.720579
-0.720401
-0.728113
-0.727937
-0.735741
-0.735566
-0.743141
-0.742967
-0.750627
-0.750455
-0.757915
-0.757744
-0.765247
-0.765077
-0.772402
-0.772233
-0.779557
-0.779388
-0.786532
-0.786363
-0.793479
-0.793311
-0.800264
-0.800096
-0.807028
-0.806861
-0.813667
-0.8135
-0.820276
-0.82011
-0.826783
-0.826617
-0.833266
-0.8331
-0.839649
-0.839483
-0.845986
-0.84582
-0.852216
-0.852051
-0.858401
-0.858236
-0.864466
-0.864302
-0.870473
-0.870309
-0.876363
-0.876199
-0.882183
-0.88202
-0.887913
-0.88775
-0.893559
-0.893397
-0.899122
-0.898961
-0.904609
-0.904448
-0.910014
-0.909854
-0.915335
-0.915176
-0.920576
-0.920417
-0.925724
-0.925567
-0.93079
-0.930632
-0.935759
-0.935603
-0.940644
-0.940487
-0.945425
-0.94527
-0.950138
-0.949982
-0.954732
-0.954579
-0.959264
-0.95911
-0.963692
-0.963541
-0.968052
-0.967898
-0.972292
-0.972142
-0.976495
-0.976342
-0.980572
-0.980424
-0.98461
-0.984457
-0.98852
-0.988374
-0.992405
-0.992253
-0.996134
-0.99599
-0.999831
-0.999679
-1.00338
-1.00323
-1.0069
-1.00675
-1.01025
-1.01011
-1.01362
-1.01346
-1.0168
-1.01666
-1.02
-1.01985
-1.02301
-1.02288
-1.02607
-1.02591
-1.02889
-1.02876
-1.0318
-1.03163
-1.03444
-1.03432
-1.0372
-1.03703
-1.03963
-1.03953
-1.04224
-1.04206
-1.04447
-1.04438
-1.04692
-1.04673
-1.04892
-1.04885
-1.05122
-1.05101
-1.05297
-1.05291
-1.05511
-1.05487
-1.05659
-1.05657
-1.05858
-1.05831
-1.05977
-1.05978
-1.06162
-1.06131
-1.06249
-1.06255
-1.06419
-1.06383
-1.06475
-1.06484
-1.0663
-1.06586
-1.06672
-1.06663
-1.0679
-1.06737
-1.06819
-1.06789
-1.06897
-1.06833
-1.06911
-1.0686
-1.06947
-1.06872
-1.06945
-1.06872
-1.06902
-1.06851
-1.06884
-1.06824
-1.06796
-1.06769
-1.06762
-1.06712
-1.06626
-1.06624
-1.06575
-1.06535
-1.06393
-1.06411
-1.0632
-1.06288
-1.06118
-1.06129
-1.05995
-1.05969
-1.05768
-1.05773
-1.05598
-1.05576
-1.05339
-1.05341
-1.05122
-1.05103
-1.0483
-1.04829
-1.04568
-1.04551
-1.0424
-1.04238
-1.0393
-1.03915
-1.03565
-1.03561
-1.03209
-1.03196
-1.02803
-1.02797
-1.02401
-1.02389
-1.01955
-1.01949
-1.0151
-1.01498
-1.01021
-1.01014
-1.00528
-1.00517
-0.999987
-0.999913
-0.994598
-0.994494
-0.988906
-0.988828
-0.983058
-0.982958
-0.976892
-0.976811
-0.970636
-0.970538
-0.964038
-0.963955
-0.957293
-0.957197
-0.950322
-0.950238
-0.943149
-0.943054
-0.935713
-0.935627
-0.928124
-0.92803
-0.920226
-0.920139
-0.912239
-0.912146
-0.903954
-0.903867
-0.895523
-0.895431
-0.886872
-0.886785
-0.878011
-0.877919
-0.86894
-0.868852
-0.859746
-0.859655
-0.850361
-0.850273
-0.840694
-0.840603
-0.830936
-0.830847
-0.820992
-0.820902
-0.81089
-0.810801
-0.800611
-0.800521
-0.790194
-0.790106
-0.779611
-0.779521
-0.768803
-0.768715
-0.757948
-0.757859
-0.747001
-0.746912
-0.735796
-0.735706
-0.724518
-0.724429
-0.713234
-0.713145
-0.701783
-0.701694
-0.690218
-0.690129
-0.678501
-0.678413
-0.666821
-0.666732
-0.655009
-0.654921
-0.643122
-0.643033
-0.631116
-0.631028
-0.619203
-0.619114
-0.60719
-0.607102
-0.595
-0.594911
-0.583028
-0.58294
-0.5709
-0.570812
-0.558708
-0.558619
-0.54653
-0.546441
-0.534473
-0.534384
-0.522287
-0.522199
-0.510253
-0.510164
-0.49827
-0.498182
-0.486131
-0.486042
-0.474229
-0.474141
-0.462367
-0.462279
-0.450415
-0.450327
-0.438701
-0.438613
-0.427091
-0.427004
-0.415388
-0.415301
-0.403804
-0.403717
-0.392511
-0.392424
-0.381171
-0.381083
-0.369964
-0.369877
-0.358903
-0.358816
-0.348003
-0.347915
-0.337257
-0.33717
-0.32651
-0.326423
-0.316115
-0.316027
-0.305735
-0.305648
-0.295537
-0.29545
-0.285552
-0.285465
-0.275579
-0.275492
-0.265833
-0.265746
-0.256294
-0.256207
-0.246994
-0.246907
-0.237909
-0.237822
-0.228893
-0.228806
-0.220102
-0.220015
-0.211567
-0.211481
-0.203087
-0.203
-0.194874
-0.194787
-0.186893
-0.186806
-0.179016
-0.178929
-0.171372
-0.171285
-0.16401
-0.163924
-0.156714
-0.156628
-0.149709
-0.149622
-0.142927
-0.142841
-0.136285
-0.136198
-0.129858
-0.129772
-0.123584
-0.123497
-0.117518
-0.117431
-0.111761
-0.111674
-0.106053
-0.105967
-0.100521
-0.100435
-0.0953121
-0.0952258
-0.0901485
-0.0900623
-0.0852926
-0.0852063
-0.080489
-0.0804028
-0.0759867
-0.0759006
-0.0715329
-0.0714467
-0.0673825
-0.0672965
-0.0633837
-0.0632977
-0.0594626
-0.0593766
-0.0557876
-0.0557016
-0.0522059
-0.05212
-0.0488476
-0.0487617
-0.0455908
-0.045505
-0.0425399
-0.042454
-0.0395928
-0.039507
-0.0367473
-0.0366616
-0.0340992
-0.0340134
-0.0316272
-0.0315415
-0.0292596
-0.029174
-0.0269757
-0.0268901
-0.0248021
-0.0247166
-0.0228506
-0.0227651
-0.0209316
-0.0208461
-0.0191545
-0.019069
-0.0174726
-0.0173872
-0.0159271
-0.0158417
-0.0144625
-0.0143772
-0.0130791
-0.0129937
-0.0118162
-0.0117309
-0.0106355
-0.0105502
-0.00955612
-0.00947089
-0.00851732
-0.00843213
-0.00760712
-0.00752195
-0.00673682
-0.00665169
-0.00594618
-0.00586107
-0.00522629
-0.00514121
-0.00457736
-0.00449232
-0.00398856
-0.00390354
-0.00343904
-0.00335405
-0.0029442
-0.00285923
-0.00250798
-0.00242303
-0.00211688
-0.00203196
-0.00176047
-0.00167558
-0.00145834
-0.00137347
-0.00118568
-0.00110083
-0.000945934
-0.000861108
-0.000742685
-0.00065788
-0.000566222
-0.000481436
-0.000410885
-0.000326116
-0.000278865
-0.000194112
-0.000170615
-8.58788e-05
-8.02573e-05
4.46477e-06
-3.74377e-06
8.09658e-05
5.81295e-05
0.000142828
0.000106256
0.000190944
0.000144032
0.00022871
0.000173969
0.00025864
0.000196225
0.00028089
0.00021197
0.000296629
0.000222987
0.000307642
0.000230597
0.000315249
0.000235327
0.000319977
0.000237994
0.000322644
0.000239352
0.000324
0.000239951
0.000324604
0.000240158
0.00032482
0.000240203
0.000324878
-0.400174
-0.396949
-0.401053
-0.39885
-0.401906
-0.399475
-0.404389
-0.403685
-0.405998
-0.40486
-0.409817
-0.409877
-0.412177
-0.41156
-0.417183
-0.417923
-0.420263
-0.420064
-0.426273
-0.427611
-0.430062
-0.430166
-0.436873
-0.43817
-0.441355
-0.44164
-0.448767
-0.449771
-0.45389
-0.454266
-0.461742
-0.462538
-0.467484
-0.467893
-0.475736
-0.476384
-0.482102
-0.482512
-0.490698
-0.491239
-0.497592
-0.497984
-0.506378
-0.50684
-0.513631
-0.513998
-0.522483
-0.522884
-0.529991
-0.53033
-0.538861
-0.539214
-0.546572
-0.546883
-0.555469
-0.555784
-0.563389
-0.563675
-0.572301
-0.572584
-0.580382
-0.580644
-0.589288
-0.589546
-0.597473
-0.597715
-0.606332
-0.60657
-0.614564
-0.614791
-0.623334
-0.623556
-0.631545
-0.631758
-0.640193
-0.640403
-0.648333
-0.648536
-0.656823
-0.657023
-0.664856
-0.665051
-0.673158
-0.67335
-0.681067
-0.681256
-0.689193
-0.689379
-0.696978
-0.697162
-0.704941
-0.705123
-0.712605
-0.712784
-0.720402
-0.72058
-0.727937
-0.728113
-0.735566
-0.735742
-0.742968
-0.743142
-0.750455
-0.750628
-0.757744
-0.757916
-0.765077
-0.765248
-0.772233
-0.772403
-0.779388
-0.779558
-0.786364
-0.786532
-0.793312
-0.79348
-0.800097
-0.800264
-0.806862
-0.807029
-0.813501
-0.813668
-0.820111
-0.820277
-0.826618
-0.826784
-0.833101
-0.833267
-0.839484
-0.83965
-0.84582
-0.845986
-0.852051
-0.852217
-0.858237
-0.858402
-0.864302
-0.864467
-0.87031
-0.870474
-0.876199
-0.876363
-0.882021
-0.882184
-0.88775
-0.887913
-0.893398
-0.89356
-0.898961
-0.899123
-0.904449
-0.90461
-0.909854
-0.910015
-0.915177
-0.915336
-0.920418
-0.920577
-0.925567
-0.925725
-0.930632
-0.93079
-0.935604
-0.93576
-0.940488
-0.940645
-0.945271
-0.945426
-0.949983
-0.950138
-0.95458
-0.954733
-0.95911
-0.959265
-0.963541
-0.963693
-0.967899
-0.968053
-0.972143
-0.972293
-0.976342
-0.976495
-0.980425
-0.980573
-0.984458
-0.98461
-0.988375
-0.988521
-0.992254
-0.992406
-0.995991
-0.996134
-0.99968
-0.999832
-1.00323
-1.00338
-1.00675
-1.0069
-1.01012
-1.01025
-1.01346
-1.01362
-1.01666
-1.0168
-1.01985
-1.02001
-1.02288
-1.02301
-1.02591
-1.02607
-1.02876
-1.02889
-1.03163
-1.0318
-1.03433
-1.03444
-1.03703
-1.0372
-1.03953
-1.03964
-1.04207
-1.04225
-1.04438
-1.04447
-1.04673
-1.04692
-1.04885
-1.04893
-1.05101
-1.05122
-1.05291
-1.05297
-1.05487
-1.05511
-1.05657
-1.05659
-1.05831
-1.05858
-1.05978
-1.05977
-1.06131
-1.06162
-1.06255
-1.06249
-1.06383
-1.06419
-1.06484
-1.06475
-1.06586
-1.0663
-1.06663
-1.06672
-1.06737
-1.0679
-1.06789
-1.06819
-1.06833
-1.06897
-1.0686
-1.06911
-1.06872
-1.06947
-1.06872
-1.06945
-1.06851
-1.06902
-1.06824
-1.06884
-1.06769
-1.06796
-1.06712
-1.06762
-1.06624
-1.06626
-1.06535
-1.06575
-1.06411
-1.06393
-1.06288
-1.0632
-1.06129
-1.06118
-1.05969
-1.05995
-1.05773
-1.05768
-1.05576
-1.05598
-1.05341
-1.05339
-1.05103
-1.05122
-1.04829
-1.0483
-1.04551
-1.04568
-1.04238
-1.0424
-1.03916
-1.0393
-1.03561
-1.03565
-1.03196
-1.03209
-1.02797
-1.02803
-1.02389
-1.02401
-1.01949
-1.01956
-1.01498
-1.0151
-1.01014
-1.01021
-1.00517
-1.00528
-0.999914
-0.999989
-0.994494
-0.994599
-0.988829
-0.988908
-0.982958
-0.983059
-0.976812
-0.976893
-0.970539
-0.970637
-0.963956
-0.964039
-0.957198
-0.957294
-0.950239
-0.950324
-0.943055
-0.94315
-0.935628
-0.935714
-0.928031
-0.928125
-0.92014
-0.920227
-0.912147
-0.91224
-0.903868
-0.903955
-0.895432
-0.895524
-0.886786
-0.886874
-0.87792
-0.878012
-0.868853
-0.868941
-0.859656
-0.859747
-0.850274
-0.850362
-0.840604
-0.840695
-0.830848
-0.830937
-0.820903
-0.820993
-0.810802
-0.810891
-0.800522
-0.800612
-0.790107
-0.790196
-0.779522
-0.779612
-0.768716
-0.768805
-0.75786
-0.757949
-0.746913
-0.747002
-0.735708
-0.735797
-0.72443
-0.724519
-0.713146
-0.713235
-0.701695
-0.701784
-0.69013
-0.690219
-0.678414
-0.678503
-0.666734
-0.666823
-0.654922
-0.655011
-0.643034
-0.643123
-0.631029
-0.631118
-0.619116
-0.619204
-0.607103
-0.607192
-0.594913
-0.595001
-0.582941
-0.58303
-0.570813
-0.570902
-0.558621
-0.558709
-0.546443
-0.546531
-0.534386
-0.534474
-0.5222
-0.522289
-0.510166
-0.510254
-0.498183
-0.498271
-0.486044
-0.486132
-0.474142
-0.474231
-0.46228
-0.462368
-0.450329
-0.450417
-0.438615
-0.438703
-0.427005
-0.427093
-0.415302
-0.41539
-0.403718
-0.403806
-0.392425
-0.392513
-0.381085
-0.381173
-0.369878
-0.369966
-0.358817
-0.358905
-0.347917
-0.348004
-0.337171
-0.337259
-0.326424
-0.326512
-0.316029
-0.316116
-0.305649
-0.305737
-0.295451
-0.295539
-0.285467
-0.285554
-0.275494
-0.275581
-0.265747
-0.265835
-0.256209
-0.256296
-0.246909
-0.246996
-0.237824
-0.237911
-0.228808
-0.228895
-0.220016
-0.220104
-0.211482
-0.21157
-0.203002
-0.203089
-0.194789
-0.194876
-0.186808
-0.186895
-0.178931
-0.179018
-0.171287
-0.171374
-0.163926
-0.164013
-0.15663
-0.156716
-0.149624
-0.149711
-0.142842
-0.142929
-0.1362
-0.136287
-0.129774
-0.12986
-0.123499
-0.123586
-0.117433
-0.11752
-0.111676
-0.111763
-0.105969
-0.106055
-0.100437
-0.100523
-0.0952278
-0.0953143
-0.0900643
-0.0901508
-0.0852084
-0.0852948
-0.0804049
-0.0804913
-0.0759026
-0.075989
-0.0714488
-0.0715352
-0.0672985
-0.0673848
-0.0632998
-0.0633861
-0.0593787
-0.0594649
-0.0557038
-0.05579
-0.0521221
-0.0522082
-0.0487639
-0.04885
-0.0455071
-0.0455932
-0.0424562
-0.0425423
-0.0395092
-0.0395952
-0.0366638
-0.0367497
-0.0340156
-0.0341016
-0.0315437
-0.0316296
-0.0291762
-0.0292621
-0.0268924
-0.0269782
-0.0247188
-0.0248046
-0.0227674
-0.0228531
-0.0208484
-0.0209341
-0.0190713
-0.019157
-0.0173895
-0.0174752
-0.015844
-0.0159296
-0.0143795
-0.0144651
-0.0129961
-0.0130816
-0.0117332
-0.0118188
-0.0105526
-0.0106381
-0.00947326
-0.00955872
-0.00843451
-0.00851994
-0.00752435
-0.00760975
-0.00665409
-0.00673946
-0.00586349
-0.00594883
-0.00514364
-0.00522895
-0.00449476
-0.00458003
-0.00390599
-0.00399124
-0.00335651
-0.00344173
-0.0028617
-0.0029469
-0.00242551
-0.00251069
-0.00203445
-0.00211959
-0.00167808
-0.0017632
-0.00137597
-0.00146107
-0.00110334
-0.00118842
-0.00086363
-0.000948687
-0.000660409
-0.000745444
-0.000483971
-0.000568985
-0.000328658
-0.000413655
-0.000196663
-0.000281645
-8.84335e-05
-0.000173399
1.90634e-06
-8.30436e-05
7.84011e-05
-6.53577e-06
0.000140258
5.53313e-05
0.000188371
0.000103455
0.000226135
0.000141229
0.000256061
0.000171163
0.000278307
0.000193415
0.000294046
0.000209159
0.000305058
0.000220175
0.000312663
0.000227784
0.000317391
0.000232513
0.000320057
0.00023518
0.000321413
0.000236537
0.000322018
0.000237137
0.000322234
0.000237344
0.000322291
0.000237388
)
;

boundaryField
{
    walls
    {
        type            zeroGradient;
    }
    inlet
    {
        type            cyclic;
    }
    outlet
    {
        type            cyclic;
    }
    sides
    {
        type            empty;
    }
}


// ************************************************************************* //
