/*--------------------------------*- C++ -*----------------------------------*\
| =========                 |                                                 |
| \\      /  F ield         | OpenFOAM: The Open Source CFD Toolbox           |
|  \\    /   O peration     | Version:  2012                                  |
|   \\  /    A nd           | Website:  www.openfoam.com                      |
|    \\/     M anipulation  |                                                 |
\*---------------------------------------------------------------------------*/
FoamFile
{
    version     2.0;
    format      ascii;
    class       surfaceScalarField;
    location    "17000";
    object      phi;
}
// * * * * * * * * * * * * * * * * * * * * * * * * * * * * * * * * * * * * * //

dimensions      [0 3 -1 0 0 0 0];
oriented        oriented;


internalField   nonuniform List<scalar> 
2556
(
6.76926e-08
-6.32018e-18
-3.0908e-22
-1.18411e-21
1.9192e-22
2.11052e-07
-6.31771e-18
-6.08011e-22
-3.25309e-21
2.75812e-22
3.67012e-07
-6.31523e-18
-6.27265e-22
-5.49457e-21
3.00942e-22
5.36437e-07
-6.31227e-18
-6.72862e-22
-7.92058e-21
3.28456e-22
7.20248e-07
-6.30935e-18
-7.09836e-22
-1.03271e-20
3.58587e-22
9.19424e-07
-6.30617e-18
-7.43028e-22
-1.31908e-20
3.9157e-22
1.135e-06
-6.30274e-18
-7.77963e-22
-1.64551e-20
4.27685e-22
1.36808e-06
-6.29947e-18
-8.15524e-22
-1.93881e-20
4.6722e-22
1.61983e-06
-6.29598e-18
-8.55561e-22
-2.24037e-20
5.10477e-22
1.89147e-06
-6.29172e-18
-8.97935e-22
-2.61897e-20
5.57769e-22
2.18427e-06
-6.28812e-18
-9.42672e-22
-2.95204e-20
6.09398e-22
2.49959e-06
-6.28409e-18
-9.89733e-22
-3.38003e-20
6.65679e-22
2.83879e-06
-6.27886e-18
-1.03912e-21
-3.8425e-20
7.26894e-22
3.20326e-06
-6.27344e-18
-1.09079e-21
-4.35631e-20
7.93261e-22
3.5944e-06
-6.26781e-18
-1.14456e-21
-4.90479e-20
8.64916e-22
4.01355e-06
-6.26212e-18
-1.20011e-21
-5.55751e-20
9.41947e-22
4.46197e-06
-6.25572e-18
-1.25693e-21
-6.0658e-20
1.02423e-21
4.94076e-06
-6.24909e-18
-1.31431e-21
-6.739e-20
1.11122e-21
5.45086e-06
-6.24298e-18
-1.3713e-21
-7.38944e-20
1.20243e-21
5.9929e-06
-6.23557e-18
-1.42692e-21
-8.11772e-20
1.29703e-21
6.56727e-06
-6.22806e-18
-1.47995e-21
-8.73533e-20
1.39384e-21
7.17401e-06
-6.21968e-18
-1.52934e-21
-9.56745e-20
1.49173e-21
7.81283e-06
-6.21191e-18
-1.574e-21
-1.0442e-19
1.58955e-21
8.4832e-06
-6.20451e-18
-1.61361e-21
-1.11479e-19
1.68648e-21
9.18433e-06
-6.19592e-18
-1.64777e-21
-1.20867e-19
1.78133e-21
9.91533e-06
-6.18487e-18
-1.67601e-21
-1.30649e-19
1.87385e-21
1.06753e-05
-6.17645e-18
-1.6986e-21
-1.40323e-19
1.96375e-21
1.14633e-05
-6.16989e-18
-1.7163e-21
-1.47988e-19
2.05066e-21
1.22785e-05
-6.15899e-18
-1.72867e-21
-1.59696e-19
2.13453e-21
1.31205e-05
-6.14265e-18
-1.73779e-21
-1.72687e-19
2.21664e-21
1.39889e-05
-6.13277e-18
-1.74578e-21
-1.81994e-19
2.29803e-21
1.48835e-05
-6.12206e-18
-1.75182e-21
-1.93713e-19
2.37872e-21
1.58044e-05
-6.10624e-18
-1.75691e-21
-2.03543e-19
2.4593e-21
1.67519e-05
-6.09304e-18
-1.76225e-21
-2.15125e-19
2.53962e-21
1.77264e-05
-6.07837e-18
-1.76787e-21
-2.31157e-19
2.6204e-21
1.87287e-05
-6.06659e-18
-1.77477e-21
-2.4084e-19
2.70399e-21
1.97595e-05
-6.06063e-18
-1.78235e-21
-2.50369e-19
2.78965e-21
2.08197e-05
-6.04975e-18
-1.78996e-21
-2.6121e-19
2.87685e-21
2.19103e-05
-6.0417e-18
-1.80004e-21
-2.67595e-19
2.96481e-21
2.30325e-05
-6.02878e-18
-1.81145e-21
-2.74766e-19
3.0535e-21
2.41874e-05
-6.02036e-18
-1.82476e-21
-2.83458e-19
3.14378e-21
2.53763e-05
-6.00698e-18
-1.83934e-21
-3.00447e-19
3.23665e-21
2.66006e-05
-5.98734e-18
-1.85921e-21
-3.17907e-19
3.33372e-21
2.78616e-05
-5.97658e-18
-1.88717e-21
-3.28333e-19
3.43906e-21
2.91608e-05
-5.96679e-18
-1.92085e-21
-3.44451e-19
3.54855e-21
3.04996e-05
-5.95574e-18
-1.96207e-21
-3.61316e-19
3.66466e-21
3.18796e-05
-5.93813e-18
-2.01059e-21
-3.79549e-19
3.79094e-21
3.33024e-05
-5.92416e-18
-2.0711e-21
-4.04171e-19
3.93017e-21
3.47696e-05
-5.91066e-18
-2.14298e-21
-4.21032e-19
4.08508e-21
3.6283e-05
-5.88831e-18
-2.22456e-21
-4.33682e-19
4.25317e-21
3.78442e-05
-5.87405e-18
-2.32624e-21
-4.43793e-19
4.42924e-21
3.9455e-05
-5.86546e-18
-2.43319e-21
-4.57799e-19
4.60939e-21
4.11173e-05
-5.85158e-18
-2.54891e-21
-4.74088e-19
4.79518e-21
4.28329e-05
-5.82938e-18
-2.66892e-21
-5.01087e-19
4.97893e-21
4.46039e-05
-5.8149e-18
-2.79182e-21
-5.24442e-19
5.16909e-21
4.64321e-05
-5.79311e-18
-2.92663e-21
-5.48223e-19
5.36474e-21
4.83197e-05
-5.77077e-18
-3.07359e-21
-5.77898e-19
5.56823e-21
5.02689e-05
-5.75191e-18
-3.23106e-21
-6.06275e-19
5.78065e-21
5.22816e-05
-5.72979e-18
-3.4002e-21
-6.23674e-19
6.01039e-21
5.43603e-05
-5.70993e-18
-3.58165e-21
-6.52022e-19
6.23506e-21
5.65073e-05
-5.68544e-18
-3.77111e-21
-6.82067e-19
6.4675e-21
5.87248e-05
-5.65138e-18
-3.98618e-21
-7.12105e-19
6.69612e-21
6.10154e-05
-5.62379e-18
-4.22902e-21
-7.49073e-19
6.92378e-21
6.33817e-05
-5.61604e-18
-4.49083e-21
-7.65505e-19
7.16626e-21
6.58261e-05
-5.59704e-18
-4.73234e-21
-7.89858e-19
7.39482e-21
6.83515e-05
-5.57427e-18
-4.97555e-21
-8.0115e-19
7.61552e-21
7.09606e-05
-5.54762e-18
-5.21516e-21
-8.4063e-19
7.80122e-21
7.36563e-05
-5.50078e-18
-5.47936e-21
-8.7171e-19
7.97732e-21
7.64414e-05
-5.46005e-18
-5.78928e-21
-9.09874e-19
8.13889e-21
7.93191e-05
-5.41981e-18
-6.14639e-21
-9.42664e-19
8.31191e-21
8.22925e-05
-5.37656e-18
-6.52635e-21
-9.74571e-19
8.43584e-21
8.53648e-05
-5.33339e-18
-6.95336e-21
-1.01457e-18
8.5372e-21
8.85394e-05
-5.27524e-18
-7.41652e-21
-1.07779e-18
8.65252e-21
9.18197e-05
-5.25522e-18
-7.91758e-21
-1.0962e-18
8.80898e-21
9.52093e-05
-5.21616e-18
-8.44899e-21
-1.11681e-18
8.91311e-21
9.87118e-05
-5.20258e-18
-8.963e-21
-1.16245e-18
8.9802e-21
0.000102331
-5.15582e-18
-9.4185e-21
-1.20612e-18
9.07724e-21
0.000106071
-5.10991e-18
-9.91255e-21
-1.25921e-18
9.12823e-21
0.000109935
-5.05209e-18
-1.04181e-20
-1.30277e-18
9.12918e-21
0.000113929
-5.00443e-18
-1.09273e-20
-1.36156e-18
8.98396e-21
0.000118055
-4.93772e-18
-1.14388e-20
-1.42068e-18
8.71179e-21
0.000122319
-4.8988e-18
-1.19944e-20
-1.48137e-18
8.32748e-21
0.000126725
-4.85795e-18
-1.24535e-20
-1.5538e-18
7.80353e-21
0.000131277
-4.76402e-18
-1.28762e-20
-1.62409e-18
7.29197e-21
0.000135982
-4.70056e-18
-1.34664e-20
-1.68352e-18
6.67934e-21
0.000140843
-4.65621e-18
-1.41449e-20
-1.74581e-18
5.92366e-21
0.000145865
-4.57439e-18
-1.47721e-20
-1.80622e-18
5.10377e-21
0.000151055
-4.50323e-18
-1.57e-20
-1.86727e-18
4.27584e-21
0.000156418
-4.43236e-18
-1.665e-20
-1.91226e-18
3.42464e-21
0.000161959
-4.35537e-18
-1.77249e-20
-1.96769e-18
2.59306e-21
0.000167684
-4.27815e-18
-1.87906e-20
-1.99831e-18
1.73672e-21
0.000173599
-4.19562e-18
-1.98019e-20
-2.05624e-18
5.71464e-22
0.00017971
-4.10423e-18
-2.06791e-20
-2.09883e-18
-5.57797e-22
0.000186025
-4.04776e-18
-2.18535e-20
-2.14252e-18
-1.81038e-21
0.000192549
-3.99308e-18
-2.26801e-20
-2.18558e-18
-3.25882e-21
0.000199289
-3.86093e-18
-2.33362e-20
-2.22199e-18
-4.45108e-21
0.000206252
-3.82236e-18
-2.44211e-20
-2.26386e-18
-5.80258e-21
0.000213446
-3.76797e-18
-2.55267e-20
-2.30072e-18
-7.13645e-21
0.000220878
-3.71483e-18
-2.65093e-20
-2.34457e-18
-8.23071e-21
0.000228556
-3.6928e-18
-2.73583e-20
-2.38714e-18
-9.83533e-21
0.000236488
-3.65911e-18
-2.79583e-20
-2.39175e-18
-1.21409e-20
0.000244681
-3.60014e-18
-2.833e-20
-2.44797e-18
-1.45982e-20
0.000253145
-3.49766e-18
-2.91523e-20
-2.48772e-18
-1.56006e-20
0.000261889
-3.42461e-18
-3.10142e-20
-2.53441e-18
-1.59529e-20
0.00027092
-3.37029e-18
-3.31468e-20
-2.54403e-18
-1.63196e-20
0.000280248
-3.30113e-18
-3.46723e-20
-2.53176e-18
-1.69773e-20
0.000289884
-3.20436e-18
-3.63771e-20
-2.49904e-18
-1.82209e-20
0.000299836
-3.18276e-18
-3.83543e-20
-2.50617e-18
-2.04416e-20
0.000310115
-3.11187e-18
-3.91056e-20
-2.47372e-18
-2.29495e-20
0.000320731
-2.98634e-18
-3.96566e-20
-2.47226e-18
-2.50377e-20
0.000331695
-2.93594e-18
-3.9933e-20
-2.4711e-18
-2.70669e-20
0.000343018
-2.88489e-18
-4.13903e-20
-2.40595e-18
-2.72669e-20
0.000354711
-2.87472e-18
-4.27046e-20
-2.35061e-18
-2.9393e-20
0.000366787
-2.84722e-18
-4.14836e-20
-2.32962e-18
-3.16686e-20
0.000379256
-2.73743e-18
-4.10271e-20
-2.35398e-18
-3.25261e-20
0.000392132
-2.63787e-18
-4.06958e-20
-2.34025e-18
-3.33577e-20
0.000405428
-2.5386e-18
-4.13376e-20
-2.33271e-18
-3.4415e-20
0.000419155
-2.44963e-18
-4.12525e-20
-2.29927e-18
-3.37663e-20
0.000433328
-2.31446e-18
-4.15154e-20
-2.22181e-18
-3.18669e-20
0.000447961
-2.27158e-18
-4.27108e-20
-2.22222e-18
-3.17928e-20
0.000463068
-2.12598e-18
-4.29233e-20
-2.18656e-18
-3.00392e-20
0.000478663
-2.07795e-18
-4.73176e-20
-2.13279e-18
-2.70377e-20
0.000494761
-2.21021e-18
-5.18584e-20
-2.0858e-18
-2.55835e-20
0.000511378
-2.12756e-18
-5.47181e-20
-2.18427e-18
-2.55978e-20
0.00052853
-2.18045e-18
-5.89054e-20
-2.09516e-18
-2.42679e-20
0.000546232
-2.13887e-18
-5.29693e-20
-2.11865e-18
-3.4298e-20
0.000564501
-2.19842e-18
-5.15687e-20
-2.09073e-18
-3.63105e-20
0.000583355
-2.14209e-18
-4.6052e-20
-1.99992e-18
-3.66824e-20
0.00060281
-2.02582e-18
-4.22301e-20
-2.02585e-18
-3.87891e-20
0.000622884
-1.9531e-18
-4.18681e-20
-1.96697e-18
-4.07129e-20
0.000643596
-2.07244e-18
-5.13471e-20
-1.9078e-18
-4.83009e-20
0.000664963
-1.95245e-18
-4.33215e-20
-1.88818e-18
-5.61794e-20
0.000687005
-1.93041e-18
-4.21764e-20
-1.90818e-18
-6.23583e-20
0.000709741
-1.80188e-18
-4.63838e-20
-1.92482e-18
-6.84526e-20
0.000733191
-1.78519e-18
-5.55855e-20
-1.83405e-18
-6.20932e-20
0.000757373
-1.80812e-18
-7.11433e-20
-1.83786e-18
-5.80226e-20
0.000782309
-1.78096e-18
-6.31936e-20
-1.77925e-18
-6.49317e-20
0.000808018
-1.77985e-18
-5.23808e-20
-1.75606e-18
-5.56298e-20
0.000834521
-1.54479e-18
-3.58679e-20
-1.83368e-18
-4.37869e-20
0.000861838
-1.63028e-18
-4.22824e-20
-1.63903e-18
-2.98284e-20
0.000889991
-1.64437e-18
-5.18438e-20
-1.62929e-18
-1.19165e-20
0.000918999
-1.68509e-18
-5.72174e-20
-1.5038e-18
-1.44334e-20
0.000948882
-1.54275e-18
-4.48059e-20
-1.60727e-18
-4.78446e-21
0.000979662
-1.71697e-18
-3.87828e-20
-1.61609e-18
9.62086e-21
0.00101136
-1.60654e-18
-1.69055e-20
-1.66536e-18
2.07649e-20
0.00104399
-1.59965e-18
-1.16297e-20
-1.56462e-18
3.76444e-20
0.00107757
-1.4981e-18
-9.78885e-22
-1.4392e-18
2.93558e-20
0.00111212
-1.47189e-18
5.86377e-22
-1.40703e-18
1.45808e-20
0.00114765
-1.46613e-18
9.05942e-21
-1.35293e-18
-7.2438e-21
0.00118419
-1.41845e-18
3.75119e-21
-1.40076e-18
-1.6243e-20
0.00122173
-1.40455e-18
3.7102e-20
-1.53454e-18
-4.05786e-20
0.00126028
-1.28359e-18
1.35682e-20
-1.42536e-18
-8.37475e-21
0.00129986
-1.36679e-18
2.85933e-21
-1.21169e-18
-1.44799e-20
0.00134046
-1.23967e-18
3.23152e-22
-1.30149e-18
-3.62029e-20
0.00138207
-1.22142e-18
6.43181e-20
-1.10383e-18
-2.64847e-20
0.00142468
-1.13751e-18
6.32473e-20
-1.0746e-18
-2.01626e-20
0.00146827
-1.08041e-18
4.68204e-20
-1.03959e-18
-4.65868e-20
0.00151281
-1.03845e-18
-2.34211e-20
-1.07145e-18
-3.05217e-20
0.00155828
-1.10734e-18
1.6917e-20
-1.12204e-18
-1.56305e-20
0.00160461
1.55405e-20
-1.01656e-18
1.22311e-20
-9.93486e-19
6.76926e-08
-3.29093e-22
1.17545e-22
2.11052e-07
-9.245e-22
2.32908e-22
3.67012e-07
-1.56961e-21
4.17313e-22
5.36437e-07
-2.10656e-21
5.9256e-22
7.20248e-07
-2.5689e-21
7.2005e-22
9.19424e-07
-3.26318e-21
9.65597e-22
1.135e-06
-3.61076e-21
1.19848e-21
1.36808e-06
-5.04544e-21
1.75679e-21
1.61983e-06
-6.03874e-21
2.3434e-21
1.89147e-06
-6.71374e-21
2.35839e-21
2.18427e-06
-7.26578e-21
3.22156e-21
2.49959e-06
-7.96973e-21
3.57952e-21
2.83879e-06
-8.28385e-21
3.87485e-21
3.20326e-06
-8.61723e-21
3.74716e-21
3.5944e-06
-9.2278e-21
4.63394e-21
4.01355e-06
-9.69847e-21
5.32282e-21
4.46197e-06
-1.00678e-20
5.77635e-21
4.94076e-06
-1.0543e-20
6.11366e-21
5.45086e-06
-1.28133e-20
7.19272e-21
5.9929e-06
-1.27983e-20
7.02904e-21
6.56727e-06
-1.33966e-20
8.18077e-21
7.17401e-06
-1.26234e-20
6.97255e-21
7.81283e-06
-1.57081e-20
8.09523e-21
8.4832e-06
-1.99631e-20
7.85923e-21
9.18433e-06
-2.1497e-20
8.00059e-21
9.91533e-06
-2.1428e-20
9.55424e-21
1.06753e-05
-2.55419e-20
1.01409e-20
1.14633e-05
-2.48149e-20
1.18312e-20
1.22785e-05
-2.73827e-20
1.3599e-20
1.31205e-05
-3.075e-20
1.56163e-20
1.39889e-05
-3.1136e-20
1.99888e-20
1.48835e-05
-3.21201e-20
2.36842e-20
1.58044e-05
-3.10424e-20
2.6345e-20
1.67519e-05
-2.94845e-20
2.82883e-20
1.77264e-05
-2.84398e-20
3.20484e-20
1.87287e-05
-2.75615e-20
3.56944e-20
1.97595e-05
-2.8538e-20
3.69083e-20
2.08197e-05
-3.17154e-20
3.57496e-20
2.19103e-05
-3.30866e-20
3.9598e-20
2.30325e-05
-2.96178e-20
4.11779e-20
2.41874e-05
-2.6123e-20
4.18565e-20
2.53763e-05
-2.72335e-20
4.12861e-20
2.66006e-05
-2.90005e-20
4.87026e-20
2.78616e-05
-3.06677e-20
4.96092e-20
2.91608e-05
-3.31668e-20
5.0511e-20
3.04996e-05
-3.19865e-20
5.24704e-20
3.18796e-05
-3.22534e-20
5.49442e-20
3.33024e-05
-3.30852e-20
5.7134e-20
3.47696e-05
-3.09261e-20
6.22158e-20
3.6283e-05
-3.6167e-20
6.50381e-20
3.78442e-05
-2.19716e-20
6.63522e-20
3.9455e-05
-2.23678e-20
6.93346e-20
4.11173e-05
-1.64948e-20
6.54945e-20
4.28329e-05
-3.46972e-21
6.76078e-20
4.46039e-05
-1.12549e-20
7.41139e-20
4.64321e-05
-1.08019e-20
8.33652e-20
4.83197e-05
-8.42815e-21
8.37581e-20
5.02689e-05
-1.26176e-20
9.24234e-20
5.22816e-05
-1.4003e-20
8.92917e-20
5.43603e-05
-1.2788e-20
9.20402e-20
5.65073e-05
-2.29108e-20
8.96519e-20
5.87248e-05
-2.50644e-20
9.06491e-20
6.10154e-05
-2.43016e-20
9.36137e-20
6.33817e-05
-1.14591e-20
9.86865e-20
6.58261e-05
-1.07436e-20
1.10517e-19
6.83515e-05
-1.12128e-20
1.22714e-19
7.09606e-05
-3.15677e-20
1.33695e-19
7.36563e-05
-4.24789e-20
1.53858e-19
7.64414e-05
-5.20509e-20
1.77818e-19
7.93191e-05
-4.55368e-20
1.78434e-19
8.22925e-05
-4.80814e-20
1.91816e-19
8.53648e-05
-4.1985e-20
2.04038e-19
8.85394e-05
-1.89821e-20
2.04385e-19
9.18197e-05
-2.90591e-20
2.15218e-19
9.52093e-05
-1.11897e-20
2.2663e-19
9.87118e-05
-8.85789e-21
2.34509e-19
0.000102331
-1.00526e-20
2.33108e-19
0.000106071
-1.91191e-20
2.30748e-19
0.000109935
-2.10261e-20
2.19839e-19
0.000113929
-2.51249e-20
2.15951e-19
0.000118055
-2.28009e-20
2.20416e-19
0.000122319
-1.31411e-20
2.05163e-19
0.000126725
-2.23002e-20
1.92416e-19
0.000131277
-2.35211e-20
1.72545e-19
0.000135982
-2.94531e-20
1.72175e-19
0.000140843
-3.08444e-20
1.68298e-19
0.000145865
-6.1303e-20
1.76108e-19
0.000151055
-4.10567e-20
1.6883e-19
0.000156418
-5.45335e-20
1.61833e-19
0.000161959
-4.8167e-20
1.51258e-19
0.000167684
-5.02489e-20
1.28165e-19
0.000173599
-3.22888e-20
1.1847e-19
0.00017971
-5.62307e-20
1.20776e-19
0.000186025
-3.8727e-20
1.11734e-19
0.000192549
-5.50803e-20
1.30698e-19
0.000199289
-6.01724e-20
9.75699e-20
0.000206252
-1.0905e-19
7.04082e-20
0.000213446
-1.23593e-19
5.9918e-20
0.000220878
-1.21889e-19
2.10544e-20
0.000228556
-1.31284e-19
-2.88201e-21
0.000236488
-1.4273e-19
-7.06061e-21
0.000244681
-1.93357e-19
3.14238e-20
0.000253145
-2.38785e-19
5.95606e-21
0.000261889
-2.49642e-19
-7.79523e-20
0.00027092
-2.33377e-19
-1.38634e-19
0.000280248
-2.6182e-19
-1.5752e-19
0.000289884
-2.64093e-19
-1.55321e-19
0.000299836
-2.70489e-19
-2.08252e-19
0.000310115
-3.00492e-19
-2.09944e-19
0.000320731
-2.72172e-19
-2.71895e-19
0.000331695
-3.82643e-19
-2.27711e-19
0.000343018
-3.95323e-19
-2.9271e-19
0.000354711
-3.42191e-19
-3.40742e-19
0.000366787
-4.62298e-19
-3.57026e-19
0.000379256
-4.88652e-19
-4.42903e-19
0.000392132
-5.43922e-19
-5.04068e-19
0.000405428
-5.44331e-19
-5.03749e-19
0.000419155
-5.85069e-19
-4.91671e-19
0.000433328
-5.86234e-19
-5.3189e-19
0.000447961
-6.4046e-19
-5.61578e-19
0.000463068
-7.17839e-19
-6.15053e-19
0.000478663
-7.30909e-19
-6.8294e-19
0.000494761
-8.35994e-19
-6.60851e-19
0.000511378
-7.61738e-19
-6.94485e-19
0.00052853
-6.03265e-19
-8.61386e-19
0.000546232
-7.07058e-19
-7.43926e-19
0.000564501
-7.30496e-19
-7.45144e-19
0.000583355
-7.50838e-19
-7.73193e-19
0.00060281
-7.36354e-19
-8.38095e-19
0.000622884
-9.01314e-19
-8.97717e-19
0.000643596
-8.21688e-19
-9.11453e-19
0.000664963
-8.95772e-19
-9.29183e-19
0.000687005
-1.04054e-18
-1.01969e-18
0.000709741
-1.0333e-18
-9.40007e-19
0.000733191
-1.08149e-18
-8.89675e-19
0.000757373
-8.29459e-19
-1.06619e-18
0.000782309
-8.31643e-19
-8.98897e-19
0.000808018
-8.02567e-19
-8.63613e-19
0.000834521
-8.12495e-19
-9.27086e-19
0.000861838
-9.95878e-19
-7.88372e-19
0.000889991
-1.06844e-18
-1.06748e-18
0.000918999
-1.04947e-18
-9.07487e-19
0.000948882
-1.04691e-18
-1.00807e-18
0.000979662
-1.15604e-18
-1.09836e-18
0.00101136
-1.21833e-18
-1.2245e-18
0.00104399
-1.21976e-18
-1.30262e-18
0.00107757
-1.23829e-18
-1.22229e-18
0.00111212
-1.24917e-18
-1.3596e-18
0.00114765
-1.32922e-18
-1.29219e-18
0.00118419
-1.1289e-18
-1.45425e-18
0.00122173
-1.51978e-18
-1.35504e-18
0.00126028
-1.35454e-18
-1.41492e-18
0.00129986
-1.36557e-18
-1.25392e-18
0.00134046
-9.43613e-19
-1.18499e-18
0.00138207
-1.20417e-18
-9.79945e-19
0.00142468
-1.20436e-18
-1.16135e-18
0.00146827
-1.40455e-18
-1.12969e-18
0.00151281
-1.11047e-18
-1.24436e-18
0.00155828
-1.29943e-18
-1.201e-18
0.00160461
-1.2602e-18
-1.4024e-18
0.00160461
-9.83019e-19
-2.97537e-21
-9.20185e-19
-7.56106e-20
0.00155828
-7.38461e-19
9.85759e-21
-6.99858e-19
-9.16388e-20
0.00151281
-6.44942e-19
-6.71123e-20
-6.33594e-19
-9.13513e-20
0.00146827
-4.19778e-19
-6.86697e-20
-6.89178e-19
-1.19033e-19
0.00142468
-7.61814e-19
-1.1957e-19
-6.93057e-19
-7.24131e-20
0.00138207
-7.38422e-19
-7.47607e-20
-6.77249e-19
-2.68554e-20
0.00134046
-6.91807e-19
-7.17699e-20
-7.07023e-19
-1.18711e-20
0.00129986
-7.73378e-19
-4.06792e-20
-7.59809e-19
-2.52538e-20
0.00126028
-6.68147e-19
4.55581e-21
-6.88744e-19
-9.44654e-21
0.00122173
-6.07513e-19
9.37994e-21
-6.77081e-19
-4.58237e-21
0.00118419
-6.34105e-19
6.18532e-21
-5.17888e-19
9.0234e-21
0.00114765
-4.84488e-19
4.49511e-21
-6.19126e-19
-1.40215e-21
0.00111212
-4.95803e-19
-1.51724e-20
-4.59763e-19
-2.31668e-21
0.00107757
-5.28854e-19
-1.42637e-20
-4.3744e-19
-1.34102e-20
0.00104399
-4.33805e-19
-1.78791e-20
-4.52031e-19
-3.65873e-20
0.00101136
-5.19181e-19
9.43773e-21
-4.30514e-19
-3.32354e-20
0.000979662
-4.26566e-19
1.80199e-21
-4.67033e-19
-3.87133e-20
0.000948882
-4.34097e-19
2.81136e-21
-4.64418e-19
-2.81392e-20
0.000918999
-4.73278e-19
-1.09321e-21
-4.14089e-19
-1.087e-20
0.000889991
-4.72239e-19
-3.84872e-21
-3.82712e-19
3.58923e-21
0.000861838
-4.82726e-19
2.67234e-21
-3.43335e-19
-3.8743e-21
0.000834521
-1.81832e-19
6.02066e-21
-2.18265e-19
-9.36469e-21
0.000808018
-2.59144e-19
-3.16612e-21
-2.45191e-19
-1.48009e-20
0.000782309
-2.16256e-19
-7.95661e-21
-1.20281e-19
1.45348e-21
0.000757373
-2.71273e-19
-7.89498e-21
-3.88976e-19
-1.27965e-20
0.000733191
-3.11503e-19
-9.13114e-21
-2.7632e-19
-1.04289e-20
0.000709741
-1.74916e-19
-5.76141e-21
-3.18372e-19
-1.80148e-20
0.000687005
-1.31108e-19
-4.09982e-21
-2.65291e-19
-1.76138e-20
0.000664963
-2.03794e-19
-3.50567e-21
-2.62275e-19
-9.89381e-21
0.000643596
-1.06309e-19
-5.90701e-22
-2.73589e-19
-7.01633e-21
0.000622884
-2.47186e-19
-5.55507e-21
-2.6632e-19
-4.09891e-21
0.00060281
-2.33081e-19
-2.95443e-21
-1.92325e-19
-5.79512e-22
0.000583355
-3.06201e-19
-2.8773e-21
-2.11486e-19
-2.90337e-21
0.000564501
-2.75585e-19
3.31896e-21
-2.1618e-19
-8.45389e-21
0.000546232
-3.01426e-19
7.71785e-21
-2.3865e-19
-1.67638e-20
0.00052853
-2.33642e-19
6.36309e-21
-1.9808e-19
-1.49112e-20
0.000511378
-3.21527e-19
2.93854e-21
-1.63383e-19
-1.53086e-20
0.000494761
-2.30825e-19
2.37508e-21
-3.08967e-19
-1.78109e-20
0.000478663
-2.64075e-19
-1.66264e-21
-3.07644e-19
-1.48015e-20
0.000463068
-2.64984e-19
-3.14173e-21
-2.92892e-19
-1.17538e-20
0.000447961
-2.46685e-19
-4.09218e-21
-2.79022e-19
-9.62479e-21
0.000433328
-2.68808e-19
-3.66369e-21
-2.89551e-19
-8.63489e-21
0.000419155
-2.29003e-19
-1.85917e-22
-2.43565e-19
-5.82902e-21
0.000405428
-2.4627e-19
-8.173e-22
-2.80873e-19
-3.94138e-21
0.000392132
-2.36123e-19
-2.10392e-21
-2.77991e-19
-1.62647e-21
0.000379256
-2.26385e-19
-2.83944e-21
-2.82939e-19
-1.47639e-21
0.000366787
-2.26849e-19
-2.42568e-21
-1.87342e-19
-9.66542e-22
0.000354711
-1.94837e-19
-2.21915e-21
-1.552e-19
-1.67255e-21
0.000343018
-1.73256e-19
-1.47121e-21
-1.67385e-19
-2.34374e-21
0.000331695
-1.68142e-19
-1.77298e-21
-1.78239e-19
-3.3774e-21
0.000320731
-1.7422e-19
-1.74418e-21
-1.57087e-19
-2.87852e-21
0.000310115
-1.15833e-19
-1.73443e-21
-1.48746e-19
-2.28191e-21
0.000299836
-1.1437e-19
-2.02562e-21
-1.48084e-19
-1.56917e-21
0.000289884
-9.60001e-20
-2.35615e-21
-1.90191e-19
-1.21408e-21
0.000280248
-1.30297e-19
-2.98327e-21
-1.48711e-19
-2.63381e-22
0.00027092
-1.93778e-19
-3.01983e-21
-1.74092e-19
1.31407e-22
0.000261889
-2.54066e-19
-1.58468e-21
-1.87511e-19
1.27268e-21
0.000253145
-2.13802e-19
-1.41917e-22
-2.00663e-19
2.7877e-21
0.000244681
-1.63188e-19
4.48576e-22
-1.63694e-19
3.38667e-21
0.000236488
-1.05193e-19
6.83492e-22
-1.77609e-19
3.63552e-21
0.000228556
-1.46475e-19
3.41895e-22
-1.45693e-19
3.45237e-21
0.000220878
-1.39506e-19
4.03652e-22
-1.43312e-19
2.95841e-21
0.000213446
-1.24391e-19
4.92805e-22
-1.23005e-19
2.68446e-21
0.000206252
-1.29463e-19
3.77287e-22
-1.16322e-19
2.18783e-21
0.000199289
-1.13898e-19
6.92696e-22
-1.05952e-19
1.67024e-21
0.000192549
-1.19916e-19
8.21852e-22
-1.18236e-19
1.09741e-21
0.000186025
-1.16952e-19
7.06109e-22
-1.23547e-19
6.02265e-22
0.00017971
-1.09929e-19
7.23548e-22
-1.28839e-19
1.08872e-22
0.000173599
-8.10538e-20
6.31425e-22
-1.17635e-19
-2.8644e-22
0.000167684
-8.3108e-20
5.33068e-22
-1.33145e-19
-4.05052e-22
0.000161959
-8.49238e-20
2.88357e-22
-1.39302e-19
-3.06318e-22
0.000156418
-6.46846e-20
2.26058e-22
-1.13094e-19
-3.1565e-22
0.000151055
-9.15267e-20
7.99482e-23
-8.6987e-20
-3.73818e-22
0.000145865
-7.46916e-20
8.58e-23
-9.09977e-20
-5.25075e-22
0.000140843
-9.04878e-20
4.74909e-23
-9.12148e-20
-5.82512e-22
0.000135982
-4.20012e-20
6.58369e-23
-7.49789e-20
-4.78689e-22
0.000131277
-3.8616e-20
-5.68252e-23
-4.77456e-20
-3.04233e-22
0.000126725
-6.16512e-20
-1.33754e-22
-6.33953e-20
-2.87218e-22
0.000122319
-3.71864e-20
-1.03588e-22
-5.07283e-20
-2.94153e-22
0.000118055
-3.63408e-20
-1.68757e-22
-5.27284e-20
-2.47095e-22
0.000113929
-3.82899e-20
-1.96595e-22
-3.09552e-20
-1.66851e-22
0.000109935
-3.52914e-20
-1.97572e-22
-3.56928e-20
-1.61634e-22
0.000106071
-3.47362e-20
-2.11039e-22
-3.70212e-20
-1.84665e-22
0.000102331
-1.68609e-20
-2.27587e-22
-5.51186e-20
-2.09429e-22
9.87118e-05
-2.58496e-20
-2.22229e-22
-5.30481e-20
-2.39097e-22
9.52092e-05
-2.53728e-20
-1.65231e-22
-5.65589e-20
-2.9601e-22
9.18197e-05
-1.73129e-20
-1.20008e-22
-4.88267e-20
-2.89365e-22
8.85394e-05
-3.2501e-20
-1.0526e-22
-4.09104e-20
-3.08142e-22
8.53648e-05
-2.65056e-20
-7.19906e-23
-3.08602e-20
-3.54049e-22
8.22925e-05
-2.78182e-20
-4.11021e-23
-2.71656e-20
-4.12626e-22
7.93191e-05
-2.94831e-20
-4.62873e-24
-2.80109e-20
-4.59827e-22
7.64414e-05
-2.87438e-20
1.34594e-23
-2.27668e-20
-5.04403e-22
7.36563e-05
-2.47111e-20
9.47082e-24
-2.3602e-20
-5.51116e-22
7.09606e-05
-1.92182e-20
-1.93476e-23
-1.08872e-20
-5.76721e-22
6.83515e-05
-1.68528e-20
-4.37144e-23
-3.78067e-21
-5.74431e-22
6.58261e-05
-1.82449e-20
-6.42561e-23
-1.18483e-20
-5.57545e-22
6.33817e-05
-5.91173e-21
-6.93368e-23
-2.33521e-20
-5.47357e-22
6.10154e-05
-1.10531e-20
-7.77242e-23
-2.89326e-20
-5.32963e-22
5.87248e-05
-9.72578e-21
-7.49534e-23
-2.25852e-20
-5.04092e-22
5.65072e-05
-6.48634e-21
-7.81384e-23
-2.79972e-20
-4.70262e-22
5.43603e-05
-9.76591e-21
-8.43794e-23
-2.45469e-20
-4.29494e-22
5.22816e-05
-1.90124e-20
-8.47885e-23
-2.81136e-20
-4.14249e-22
5.02688e-05
-1.17181e-20
-7.03743e-23
-2.67105e-20
-4.00451e-22
4.83198e-05
-1.42682e-20
-7.83031e-23
-2.56874e-20
-3.72215e-22
4.64321e-05
-1.09993e-20
-8.66489e-23
-2.47439e-20
-3.47095e-22
4.46039e-05
-8.07095e-21
-9.58776e-23
-2.66023e-20
-3.29363e-22
4.28329e-05
2.8766e-22
-1.02424e-22
-2.85691e-20
-3.12104e-22
4.11173e-05
1.66589e-21
-1.10371e-22
-2.4412e-20
-2.92518e-22
3.9455e-05
-3.70697e-21
-1.12528e-22
-2.84694e-20
-2.76222e-22
3.78442e-05
1.94013e-21
-1.04374e-22
-1.71777e-20
-2.57438e-22
3.6283e-05
5.66664e-21
-9.75411e-23
-1.79923e-20
-2.46704e-22
3.47696e-05
1.42201e-21
-8.85688e-23
-1.46517e-20
-2.3337e-22
3.33024e-05
-2.17142e-21
-7.67634e-23
-1.58393e-20
-2.20284e-22
3.18796e-05
-2.73068e-21
-6.25754e-23
-1.58184e-20
-2.09428e-22
3.04996e-05
3.99877e-21
-5.04157e-23
-1.63896e-20
-1.97758e-22
2.91608e-05
4.41755e-21
-4.16595e-23
-1.25819e-20
-1.85145e-22
2.78616e-05
-2.37027e-21
-3.67026e-23
-1.3292e-20
-1.75072e-22
2.66006e-05
-1.87263e-21
-3.16661e-23
-1.37103e-20
-1.65536e-22
2.53764e-05
-9.91359e-22
-2.75669e-23
-1.22286e-20
-1.56006e-22
2.41874e-05
-1.33988e-21
-2.44133e-23
-6.72139e-21
-1.49175e-22
2.30325e-05
-3.21415e-21
-2.34046e-23
-6.93343e-21
-1.48417e-22
2.19103e-05
-3.82619e-21
-2.1568e-23
-6.69373e-21
-1.48667e-22
2.08197e-05
-2.96894e-21
-1.97996e-23
-8.27106e-21
-1.48116e-22
1.97595e-05
-2.66663e-21
-1.8003e-23
-3.72466e-21
-1.4667e-22
1.87287e-05
-3.40302e-21
-1.60135e-23
-3.28247e-21
-1.46426e-22
1.77264e-05
-7.31977e-21
-1.41084e-23
-2.29974e-21
-1.44977e-22
1.67519e-05
-4.46376e-21
-1.15862e-23
-2.45073e-21
-1.43994e-22
1.58044e-05
-5.71864e-21
-9.92639e-24
-1.26787e-21
-1.40301e-22
1.48835e-05
-5.617e-21
-8.5385e-24
3.68864e-23
-1.37114e-22
1.39889e-05
-4.73696e-21
-7.32701e-24
1.47831e-21
-1.34145e-22
1.31205e-05
-3.53956e-21
-6.8862e-24
1.88145e-21
-1.30905e-22
1.22785e-05
-4.34301e-21
-6.61944e-24
9.19863e-22
-1.26523e-22
1.14633e-05
-3.44483e-21
-6.31066e-24
1.02351e-21
-1.2194e-22
1.06753e-05
-5.11651e-21
-6.04184e-24
1.90673e-21
-1.17279e-22
9.91533e-06
-2.68493e-21
-5.29925e-24
3.13585e-22
-1.12309e-22
9.18433e-06
-4.58897e-21
-5.27356e-24
2.61969e-22
-1.06674e-22
8.4832e-06
-4.49826e-21
-4.76188e-24
5.52288e-22
-1.00937e-22
7.81282e-06
-1.99205e-21
-4.24812e-24
-1.14919e-21
-9.50435e-23
7.17401e-06
-1.66666e-21
-3.98649e-24
-9.78257e-22
-8.89406e-23
6.56727e-06
-1.68041e-21
-3.56441e-24
-1.3004e-21
-8.30135e-23
5.9929e-06
-1.69564e-21
-3.04913e-24
-1.11457e-21
-7.70679e-23
5.45086e-06
-1.25553e-21
-2.60818e-24
-1.14118e-21
-7.14585e-23
4.94076e-06
-8.7245e-22
-2.25162e-24
-1.44358e-21
-6.60898e-23
4.46197e-06
-7.47516e-22
-1.99231e-24
-1.08976e-21
-6.09168e-23
4.01355e-06
-4.81297e-22
-1.67837e-24
-1.66372e-21
-5.61937e-23
3.59441e-06
-3.12232e-22
-1.47506e-24
-1.455e-21
-5.1721e-23
3.20327e-06
-1.11499e-21
-1.32753e-24
-5.42935e-22
-4.74903e-23
2.83879e-06
-1.0404e-21
-1.14465e-24
-8.69156e-22
-4.36655e-23
2.49959e-06
-9.51126e-22
-1.01701e-24
-1.50069e-22
-4.00894e-23
2.18427e-06
-7.14064e-22
-9.19129e-25
2.22609e-22
-3.68245e-23
1.89147e-06
-4.3103e-22
-8.49341e-25
2.80748e-22
-3.38161e-23
1.61983e-06
-3.30301e-22
-7.9688e-25
-1.02949e-22
-3.1026e-23
1.36808e-06
-4.78131e-22
-7.45805e-25
1.14305e-22
-2.84414e-23
1.135e-06
-1.66838e-22
-6.68044e-25
7.60722e-23
-2.60792e-23
9.19425e-07
-1.78656e-22
-6.12119e-25
1.44981e-23
-2.39191e-23
7.20247e-07
-1.39537e-22
-5.61585e-25
-1.04612e-23
-2.19277e-23
5.36437e-07
-3.43182e-23
-5.09061e-25
-4.91018e-23
-2.01034e-23
3.67012e-07
2.6637e-24
-4.58646e-25
-5.48247e-23
-1.84282e-23
2.11052e-07
-3.56427e-24
-4.15332e-25
9.04692e-24
-1.68946e-23
6.76927e-08
-5.24027e-25
-4.53059e-24
0.00160461
-1.19248e-18
-1.20585e-18
0.00155828
-1.18917e-18
-9.41222e-19
0.00151281
-7.67899e-19
-8.72457e-19
0.00146827
-6.48268e-19
-5.2892e-19
0.00142468
-6.20656e-19
-5.08975e-19
0.00138207
-7.21044e-19
-6.27637e-19
0.00134046
-5.03588e-19
-7.30012e-19
0.00129986
-5.12334e-19
-6.04866e-19
0.00126028
-6.07811e-19
-5.80496e-19
0.00122173
-6.21668e-19
-5.70973e-19
0.00118419
-6.64811e-19
-6.29426e-19
0.00114765
-5.92433e-19
-6.80574e-19
0.00111212
-4.28339e-19
-5.16063e-19
0.00107757
-4.68608e-19
-5.26713e-19
0.00104399
-9.48446e-20
-2.51485e-19
0.00101136
-3.83907e-19
-2.0187e-19
0.000979662
-2.91577e-19
-1.91938e-19
0.000948882
-3.93056e-19
-2.56377e-19
0.000918999
-4.11072e-19
-2.21365e-19
0.000889991
-3.05607e-19
-3.83122e-19
0.000861838
-3.84942e-19
-4.1752e-19
0.000834521
-2.68222e-19
-3.48323e-19
0.000808018
-3.16196e-19
-1.40478e-19
0.000782309
-1.98778e-19
-3.11204e-19
0.000757373
-2.65961e-19
-2.79548e-19
0.000733191
-2.50981e-19
-2.86199e-19
0.000709741
-1.24436e-19
-3.04689e-19
0.000687005
-1.19377e-19
-1.75596e-19
0.000664963
-1.76628e-19
-2.15633e-19
0.000643596
-1.85847e-19
-2.01236e-19
0.000622884
-1.581e-19
-1.72657e-19
0.00060281
-1.60675e-19
-2.02257e-19
0.000583355
-1.35812e-19
-2.3519e-19
0.000564501
-1.64762e-19
-2.67385e-19
0.000546232
-3.1723e-19
-1.79169e-19
0.00052853
-2.93171e-19
-2.40531e-19
0.000511378
-2.83721e-19
-1.88683e-19
0.000494761
-2.63992e-19
-2.26656e-19
0.000478663
-2.36364e-19
-2.74824e-19
0.000463068
-2.36955e-19
-2.552e-19
0.000447961
-2.16012e-19
-2.6652e-19
0.000433328
-1.57425e-19
-2.04818e-19
0.000419155
-2.25021e-19
-1.70345e-19
0.000405428
-2.59396e-19
-1.86832e-19
0.000392132
-2.69388e-19
-2.7129e-19
0.000379256
-2.35642e-19
-2.74111e-19
0.000366787
-2.44697e-19
-2.39189e-19
0.000354711
-1.97967e-19
-1.95973e-19
0.000343018
-2.38371e-19
-2.28057e-19
0.000331695
-2.29167e-19
-1.94295e-19
0.000320731
-2.5078e-19
-2.04254e-19
0.000310115
-2.27711e-19
-2.16591e-19
0.000299836
-2.43333e-19
-2.27934e-19
0.000289884
-2.39556e-19
-2.0206e-19
0.000280248
-2.07986e-19
-2.03601e-19
0.00027092
-1.18863e-19
-1.78064e-19
0.000261889
-1.3233e-19
-1.13259e-19
0.000253145
-1.36324e-19
-1.52843e-19
0.000244681
-9.85506e-20
-1.01551e-19
0.000236488
-7.79669e-20
-9.72416e-20
0.000228556
-7.34103e-20
-9.77961e-20
0.000220878
-6.4494e-20
-1.12081e-19
0.000213446
-7.6539e-20
-1.13835e-19
0.000206252
-3.40827e-20
-1.01088e-19
0.000199289
-4.2754e-20
-1.07941e-19
0.000192549
-9.16501e-20
-1.12644e-19
0.000186025
-8.3902e-20
-1.22245e-19
0.00017971
-1.0046e-19
-1.41542e-19
0.000173599
-8.76609e-20
-1.12331e-19
0.000167684
-1.21807e-19
-8.24623e-20
0.000161959
-8.28403e-20
-8.99733e-20
0.000156418
-7.21641e-20
-7.66282e-20
0.000151055
-7.09851e-20
-7.87081e-20
0.000145865
-6.85625e-20
-6.49445e-20
0.000140843
-7.76335e-20
-4.33479e-20
0.000135982
-6.36257e-20
-3.52651e-20
0.000131277
-5.78114e-20
-3.95518e-20
0.000126725
-6.21658e-20
-4.52153e-20
0.000122319
-6.65901e-20
-3.07945e-20
0.000118055
-6.04249e-20
-3.61263e-20
0.000113929
-5.82684e-20
-3.55993e-20
0.000109935
-6.26887e-20
-4.35194e-20
0.000106071
-6.67224e-20