/*--------------------------------*- C++ -*----------------------------------*\
| =========                 |                                                 |
| \\      /  F ield         | OpenFOAM: The Open Source CFD Toolbox           |
|  \\    /   O peration     | Version:  2012                                  |
|   \\  /    A nd           | Website:  www.openfoam.com                      |
|    \\/     M anipulation  |                                                 |
\*---------------------------------------------------------------------------*/
FoamFile
{
    version     2.0;
    format      ascii;
    class       volScalarField;
    location    "14100";
    object      p;
}
// * * * * * * * * * * * * * * * * * * * * * * * * * * * * * * * * * * * * * //

dimensions      [0 2 -2 0 0 0 0];


internalField   nonuniform List<scalar> 
2560
(
6.59297e-09
0.000928291
-2.24742e-08
0.000928236
-2.21357e-07
0.000928027
-8.18732e-07
0.000927435
-2.19714e-06
0.000926065
-4.91156e-06
0.000923355
-9.61519e-06
0.000918655
-1.70987e-05
0.000911178
-2.83019e-05
0.000899982
-4.43018e-05
0.000883992
-6.63055e-05
0.000861998
-9.56817e-05
0.000832636
-0.000133908
0.000794422
-0.000182625
0.000745724
-0.000243593
0.000684772
-0.000318724
0.000609662
-0.000410037
0.000518369
-0.000519698
0.000408734
-0.000650005
0.000278449
-0.000803375
0.000125109
-0.000982301
-5.37927e-05
-0.00118947
-0.000260925
-0.00142765
-0.000499082
-0.00169968
-0.000771073
-0.00200849
-0.00107985
-0.00235723
-0.00142855
-0.00274905
-0.00182035
-0.00318713
-0.00225838
-0.00367477
-0.00274599
-0.0042155
-0.00328667
-0.00481276
-0.0038839
-0.00547001
-0.0045411
-0.00619085
-0.0052619
-0.00697906
-0.00605006
-0.00783826
-0.00690922
-0.00877213
-0.00784304
-0.00978448
-0.00885535
-0.0108793
-0.00995008
-0.0120602
-0.011131
-0.0133311
-0.0124018
-0.0146958
-0.0137665
-0.0161585
-0.0152291
-0.0177228
-0.0167934
-0.0193926
-0.0184631
-0.0211719
-0.0202423
-0.0230645
-0.0221349
-0.0250744
-0.0241447
-0.0272052
-0.0262755
-0.0294608
-0.0285311
-0.0318457
-0.0309158
-0.0343627
-0.0334328
-0.0370148
-0.0360849
-0.0398081
-0.0388781
-0.0427445
-0.0418145
-0.0458274
-0.0448972
-0.0490619
-0.0481317
-0.0524495
-0.0515192
-0.0559954
-0.0550651
-0.0597018
-0.0587714
-0.0635715
-0.0626411
-0.0676086
-0.066678
-0.071816
-0.0708854
-0.0761974
-0.0752668
-0.0807531
-0.0798224
-0.0854877
-0.0845569
-0.0904052
-0.0894743
-0.0955044
-0.0945735
-0.100791
-0.0998596
-0.106263
-0.105332
-0.111928
-0.110997
-0.117783
-0.116852
-0.123831
-0.1229
-0.130075
-0.129143
-0.136513
-0.135581
-0.143149
-0.142217
-0.149981
-0.14905
-0.157013
-0.156081
-0.164241
-0.163309
-0.171669
-0.170737
-0.179293
-0.178361
-0.187116
-0.186184
-0.195134
-0.194202
-0.203347
-0.202415
-0.211755
-0.210822
-0.220353
-0.21942
-0.229141
-0.228209
-0.238117
-0.237185
-0.247279
-0.246346
-0.256622
-0.255689
-0.266144
-0.265211
-0.27584
-0.274907
-0.285707
-0.284774
-0.295742
-0.294809
-0.305939
-0.305006
-0.316292
-0.315359
-0.3268
-0.325866
-0.337455
-0.336521
-0.348249
-0.347315
-0.359181
-0.358247
-0.37024
-0.369306
-0.381424
-0.38049
-0.392725
-0.391791
-0.404134
-0.4032
-0.415645
-0.414711
-0.427253
-0.426318
-0.438946
-0.438012
-0.450721
-0.449787
-0.462568
-0.461633
-0.474478
-0.473543
-0.486446
-0.485511
-0.49846
-0.497525
-0.510514
-0.509579
-0.522601
-0.521666
-0.53471
-0.533774
-0.546834
-0.545899
-0.558963
-0.558028
-0.571092
-0.570156
-0.583209
-0.582273
-0.595308
-0.594372
-0.607378
-0.606442
-0.619413
-0.618477
-0.631405
-0.630469
-0.643344
-0.642408
-0.655225
-0.654288
-0.667037
-0.6661
-0.678773
-0.677837
-0.690428
-0.689492
-0.70199
-0.701054
-0.713458
-0.712521
-0.724818
-0.723881
-0.736067
-0.73513
-0.747196
-0.746259
-0.758203
-0.757266
-0.769074
-0.768137
-0.77981
-0.778872
-0.790397
-0.789459
-0.800839
-0.7999
-0.811118
-0.810181
-0.821242
-0.820303
-0.831191
-0.830253
-0.840974
-0.840035
-0.850571
-0.849633
-0.859996
-0.859056
-0.869224
-0.868286
-0.878273
-0.877333
-0.887114
-0.886176
-0.895773
-0.894832
-0.904213
-0.903275
-0.91247
-0.911528
-0.920498
-0.919561
-0.928343
-0.9274
-0.93595
-0.935013
-0.943375
-0.942431
-0.950551
-0.949614
-0.95755
-0.956605
-0.96429
-0.963354
-0.970859
-0.969912
-0.977156
-0.976221
-0.983293
-0.982343
-0.989144
-0.98821
-0.994849
-0.993896
-1.00025
-0.999319
-1.00553
-1.00457
-1.01047
-1.00955
-1.01532
-1.01436
-1.01982
-1.0189
-1.02425
-1.02329
-1.0283
-1.02738
-1.03232
-1.03134
-1.03591
-1.035
-1.03953
-1.03854
-1.04266
-1.04177
-1.0459
-1.04489
-1.04857
-1.0477
-1.05145
-1.05042
-1.05366
-1.05281
-1.0562
-1.05514
-1.05795
-1.05713
-1.06017
-1.05908
-1.06146
-1.06068
-1.06341
-1.06227
-1.06422
-1.0635
-1.06595
-1.06473
-1.06647
-1.06563
-1.06782
-1.06651
-1.06816
-1.06709
-1.06905
-1.06762
-1.06922
-1.06791
-1.06965
-1.06811
-1.06967
-1.06811
-1.06932
-1.06799
-1.06917
-1.06772
-1.06839
-1.06728
-1.0681
-1.06676
-1.06693
-1.06602
-1.06651
-1.06525
-1.065
-1.06423
-1.06441
-1.06321
-1.06277
-1.06194
-1.06183
-1.06068
-1.06005
-1.05917
-1.0588
-1.05769
-1.05687
-1.05595
-1.05534
-1.05425
-1.05325
-1.0523
-1.05145
-1.05038
-1.0492
-1.04823
-1.04717
-1.04611
-1.04475
-1.04376
-1.04249
-1.04144
-1.03991
-1.03892
-1.03745
-1.0364
-1.03471
-1.0337
-1.03205
-1.031
-1.02916
-1.02814
-1.02632
-1.02527
-1.02328
-1.02225
-1.02026
-1.01921
-1.01707
-1.01603
-1.01388
-1.01283
-1.01053
-1.00949
-1.00717
-1.00611
-1.00365
-1.0026
-1.0001
-0.999038
-0.996411
-0.995348
-0.992675
-0.991603
-0.988807
-0.987736
-0.984892
-0.983813
-0.980861
-0.979781
-0.976778
-0.975691
-0.972588
-0.971499
-0.968338
-0.967243
-0.963983
-0.962885
-0.95956
-0.958456
-0.955032
-0.953925
-0.950431
-0.949318
-0.945727
-0.94461
-0.940945
-0.939823
-0.936062
-0.934936
-0.931094
-0.929962
-0.926028
-0.924892
-0.920879
-0.919738
-0.915643
-0.914497
-0.910326
-0.909176
-0.904927
-0.903772
-0.899444
-0.898284
-0.893883
-0.892718
-0.888236
-0.887067
-0.88251
-0.881337
-0.876692
-0.875514
-0.870794
-0.869612
-0.864797
-0.863611
-0.858726
-0.857537
-0.852555
-0.851363
-0.846318
-0.845123
-0.839983
-0.838785
-0.833597
-0.832397
-0.82712
-0.825918
-0.820609
-0.819406
-0.814003
-0.812798
-0.807365
-0.806159
-0.800609
-0.799403
-0.793812
-0.792605
-0.786873
-0.785667
-0.779889
-0.778681
-0.772748
-0.771539
-0.765582
-0.764371
-0.758263
-0.75705
-0.750954
-0.749739
-0.743495
-0.742278
-0.736071
-0.734851
-0.728469
-0.727246
-0.720911
-0.719683
-0.713145
-0.711913
-0.705452
-0.704214
-0.697528
-0.696285
-0.689711
-0.688459
-0.681629
-0.680368
-0.673687
-0.672414
-0.665437
-0.664151
-0.657367
-0.656065
-0.648941
-0.64762
-0.640762
-0.639417
-0.632185
-0.630816
-0.623936
-0.622533
-0.615241
-0.613805
-0.606974
-0.605494
-0.598206
-0.596684
-0.589985
-0.588403
-0.581188
-0.579556
-0.573073
-0.571365
-0.564281
-0.562516
-0.556321
-0.554462
-0.547562
-0.545643
-0.539812
-0.537778
-0.531089
-0.528996
-0.523558
-0.521321
-0.514846
-0.512558
-0.507593
-0.505117
-0.498936
-0.496427
-0.492086
-0.489326
-0.483584
-0.480834
-0.477338
-0.474247
-0.469097
-0.466095
-0.463607
-0.460129
-0.455612
-0.452361
-0.450955
-0.44703
-0.443144
-0.439671
-0.439465
-0.43503
-0.431843
-0.428199
-0.429371
-0.424353
-0.413339
-0.418193
-0.411259
-0.415078
-0.404819
-0.410046
-0.403183
-0.407598
-0.398095
-0.403822
-0.396952
-0.402108
-0.393342
-0.399696
-0.392731
-0.398771
-0.390812
-0.397911
0.000930285
-3.93848e-06
0.00093023
-3.97401e-06
0.000930021
-4.17357e-06
0.000929428
-4.76967e-06
0.000928059
-6.14707e-06
0.000925349
-8.85935e-06
0.000920649
-1.35602e-05
0.000913172
-2.10381e-05
0.000901976
-3.22354e-05
0.000885986
-4.82258e-05
0.000863993
-7.02204e-05
0.000834631
-9.9583e-05
0.000796418
-0.000137797
0.000747719
-0.000186496
0.000686768
-0.000247449
0.000611659
-0.000322559
0.000520366
-0.000413853
0.000410732
-0.000523488
0.000280448
-0.000653774
0.000127108
-0.000807116
-5.17923e-05
-0.000986018
-0.000258923
-0.00119315
-0.00049708
-0.00143131
-0.000769069
-0.0017033
-0.00107785
-0.00201208
-0.00142655
-0.00236078
-0.00181834
-0.00275258
-0.00225637
-0.00319061
-0.00274398
-0.00367823
-0.00328466
-0.00421892
-0.00388188
-0.00481614
-0.00453908
-0.00547335
-0.00525988
-0.00619415
-0.00604804
-0.00698231
-0.0069072
-0.00784148
-0.00784101
-0.0087753
-0.00885332
-0.00978762
-0.00994804
-0.0108824
-0.0111289
-0.0120633
-0.0123998
-0.0133341
-0.0137645
-0.0146988
-0.015227
-0.0161614
-0.0167913
-0.0177257
-0.0184611
-0.0193954
-0.0202403
-0.0211747
-0.0221329
-0.0230672
-0.0241427
-0.0250771
-0.0262734
-0.0272079
-0.028529
-0.0294634
-0.0309137
-0.0318482
-0.0334307
-0.0343652
-0.0360828
-0.0370173
-0.038876
-0.0398105
-0.0418124
-0.0427469
-0.0448951
-0.0458297
-0.0481296
-0.0490642
-0.0515171
-0.0524517
-0.055063
-0.0559976
-0.0587693
-0.0597039
-0.062639
-0.0635736
-0.0666759
-0.0676106
-0.0708833
-0.071818
-0.0752646
-0.0761994
-0.0798203
-0.0807551
-0.0845548
-0.0854896
-0.0894722
-0.090407
-0.0945714
-0.0955063
-0.0998574
-0.100792
-0.10533
-0.106265
-0.110995
-0.11193
-0.11685
-0.117785
-0.122898
-0.123833
-0.129141
-0.130076
-0.135579
-0.136514
-0.142215
-0.14315
-0.149047
-0.149983
-0.156079
-0.157014
-0.163307
-0.164243
-0.170735
-0.17167
-0.178359
-0.179294
-0.186182
-0.187117
-0.1942
-0.195135
-0.202413
-0.203348
-0.21082
-0.211756
-0.219418
-0.220354
-0.228206
-0.229142
-0.237183
-0.238118
-0.246344
-0.24728
-0.255687
-0.256623
-0.265209
-0.266145
-0.274904
-0.27584
-0.284772
-0.285708
-0.294806
-0.295742
-0.305004
-0.30594
-0.315357
-0.316293
-0.325864
-0.3268
-0.336519
-0.337455
-0.347313
-0.34825
-0.358245
-0.359181
-0.369304
-0.370241
-0.380488
-0.381424
-0.391789
-0.392726
-0.403198
-0.404134
-0.414709
-0.415646
-0.426316
-0.427253
-0.43801
-0.438947
-0.449785
-0.450721
-0.461631
-0.462568
-0.473541
-0.474478
-0.485509
-0.486446
-0.497523
-0.49846
-0.509577
-0.510514
-0.521664
-0.522601
-0.533772
-0.53471
-0.545897
-0.546834
-0.558026
-0.558963
-0.570154
-0.571091
-0.582271
-0.583208
-0.59437
-0.595308
-0.606441
-0.607378
-0.618475
-0.619413
-0.630467
-0.631405
-0.642406
-0.643344
-0.654287
-0.655224
-0.666099
-0.667037
-0.677835
-0.678773
-0.68949
-0.690428
-0.701052
-0.70199
-0.712519
-0.713458
-0.723879
-0.724817
-0.735129
-0.736067
-0.746258
-0.747196
-0.757264
-0.758203
-0.768135
-0.769074
-0.77887
-0.779809
-0.789458
-0.790397
-0.799899
-0.800838
-0.810179
-0.811118
-0.820302
-0.821241
-0.830252
-0.83119
-0.840034
-0.840974
-0.849632
-0.850571
-0.859055
-0.859996
-0.868285
-0.869224
-0.877331
-0.878272
-0.886175
-0.887113
-0.894831
-0.895772
-0.903274
-0.904213
-0.911527
-0.912469
-0.91956
-0.920498
-0.927399
-0.928342
-0.935012
-0.93595
-0.94243
-0.943374
-0.949614
-0.950551
-0.956604
-0.95755
-0.963353
-0.964289
-0.969911
-0.970859
-0.97622
-0.977156
-0.982342
-0.983292
-0.98821
-0.989143
-0.993895
-0.994848
-0.999318
-1.00025
-1.00457
-1.00552
-1.00955
-1.01047
-1.01436
-1.01532
-1.0189
-1.01982
-1.02328
-1.02425
-1.02738
-1.0283
-1.03134
-1.03232
-1.035
-1.03591
-1.03854
-1.03953
-1.04177
-1.04266
-1.04489
-1.0459
-1.0477
-1.04857
-1.05042
-1.05145
-1.05281
-1.05366
-1.05514
-1.0562
-1.05713
-1.05795
-1.05908
-1.06017
-1.06068
-1.06146
-1.06227
-1.06341
-1.0635
-1.06422
-1.06473
-1.06595
-1.06563
-1.06646
-1.06651
-1.06782
-1.06709
-1.06816
-1.06762
-1.06904
-1.0679
-1.06922
-1.06811
-1.06965
-1.06811
-1.06967
-1.06799
-1.06931
-1.06772
-1.06917
-1.06728
-1.06839
-1.06676
-1.0681
-1.06602
-1.06693
-1.06525
-1.06651
-1.06423
-1.065
-1.06321
-1.06441
-1.06194
-1.06277
-1.06068
-1.06183
-1.05917
-1.06005
-1.05769
-1.0588
-1.05595
-1.05687
-1.05425
-1.05534
-1.0523
-1.05325
-1.05038
-1.05145
-1.04823
-1.0492
-1.04611
-1.04717
-1.04376
-1.04475
-1.04144
-1.04249
-1.03892
-1.03991
-1.0364
-1.03745
-1.0337
-1.03471
-1.031
-1.03205
-1.02814
-1.02916
-1.02527
-1.02632
-1.02225
-1.02328
-1.01921
-1.02026
-1.01603
-1.01707
-1.01283
-1.01388
-1.00949
-1.01053
-1.00611
-1.00717
-1.0026
-1.00365
-0.999038
-1.0001
-0.995348
-0.996411
-0.991603
-0.992675
-0.987736
-0.988807
-0.983813
-0.984892
-0.979781
-0.980861
-0.975691
-0.976778
-0.971499
-0.972588
-0.967243
-0.968338
-0.962885
-0.963983
-0.958456
-0.95956
-0.953925
-0.955032
-0.949318
-0.950431
-0.94461
-0.945727
-0.939824
-0.940946
-0.934936
-0.936062
-0.929962
-0.931094
-0.924892
-0.926028
-0.919738
-0.920879
-0.914497
-0.915643
-0.909176
-0.910326
-0.903772
-0.904927
-0.898284
-0.899444
-0.892719
-0.893883
-0.887067
-0.888236
-0.881337
-0.882511
-0.875514
-0.876692
-0.869612
-0.870794
-0.863611
-0.864797
-0.857537
-0.858726
-0.851363
-0.852556
-0.845123
-0.846318
-0.838785
-0.839983
-0.832397
-0.833597
-0.825918
-0.82712
-0.819406
-0.820609
-0.812799
-0.814004
-0.80616
-0.807366
-0.799403
-0.800609
-0.792605
-0.793812
-0.785667
-0.786874
-0.778681
-0.779889
-0.771539
-0.772748
-0.764371
-0.765582
-0.75705
-0.758263
-0.749739
-0.750955
-0.742278
-0.743496
-0.734851
-0.736072
-0.727246
-0.72847
-0.719683
-0.720911
-0.711913
-0.713145
-0.704214
-0.705452
-0.696285
-0.697528
-0.688459
-0.689711
-0.680368
-0.681629
-0.672414
-0.673687
-0.664152
-0.665437
-0.656065
-0.657368
-0.64762
-0.648941
-0.639417
-0.640762
-0.630816
-0.632185
-0.622533
-0.623936
-0.613805
-0.615241
-0.605493
-0.606975
-0.596684
-0.598206
-0.588403
-0.589985
-0.579556
-0.581188
-0.571365
-0.573073
-0.562516
-0.564282
-0.554462
-0.556322
-0.545643
-0.547563
-0.537778
-0.539813
-0.528996
-0.531089
-0.521321
-0.523558
-0.512557
-0.514846
-0.505116
-0.507593
-0.496427
-0.498936
-0.489326
-0.492086
-0.480834
-0.483584
-0.474247
-0.477338
-0.466095
-0.469097
-0.460129
-0.463607
-0.452361
-0.455612
-0.44703
-0.450955
-0.439671
-0.443145
-0.43503
-0.439465
-0.428199
-0.431843
-0.424353
-0.429372
-0.418193
-0.413338
-0.415078
-0.411259
-0.410046
-0.404819
-0.407598
-0.403182
-0.403822
-0.398094
-0.402108
-0.396952
-0.399696
-0.393341
-0.398772
-0.392731
-0.397911
-0.390812
-0.390812
-0.397912
-0.392731
-0.398771
-0.393341
-0.399695
-0.396953
-0.402107
-0.398095
-0.403821
-0.403185
-0.407594
-0.404822
-0.410047
-0.411259
-0.415074
-0.413339
-0.41819
-0.429353
-0.424351
-0.431825
-0.428198
-0.439447
-0.435028
-0.443127
-0.439669
-0.450939
-0.447029
-0.455596
-0.452359
-0.46359
-0.460125
-0.469079
-0.46609
-0.477321
-0.474242
-0.483566
-0.480828
-0.492071
-0.489323
-0.49892
-0.496422
-0.507578
-0.505111
-0.51483
-0.512551
-0.52354
-0.521312
-0.531072
-0.528987
-0.5398
-0.537774
-0.547546
-0.545633
-0.556309
-0.554457
-0.564267
-0.562509
-0.573055
-0.571354
-0.581176
-0.57955
-0.589972
-0.588396
-0.598197
-0.596681
-0.606961
-0.605486
-0.615233
-0.613803
-0.623921
-0.622523
-0.63217
-0.630805
-0.640749
-0.639408
-0.648925
-0.647609
-0.657356
-0.656058
-0.665423
-0.664142
-0.673675
-0.672407
-0.681616
-0.68036
-0.6897
-0.688452
-0.697513
-0.696274
-0.705441
-0.704207
-0.71313
-0.711902
-0.720897
-0.719673
-0.728455
-0.727235
-0.736059
-0.734842
-0.743479
-0.742266
-0.750945
-0.749734
-0.758251
-0.757042
-0.765565
-0.764358
-0.772736
-0.77153
-0.779876
-0.778672
-0.786863
-0.78566
-0.793798
-0.792596
-0.800594
-0.799392
-0.807349
-0.806147
-0.813997
-0.812796
-0.820597
-0.819397
-0.827111
-0.825913
-0.833586
-0.83239
-0.839974
-0.83878
-0.846304
-0.845112
-0.852538
-0.85135
-0.858717
-0.857532
-0.864785
-0.863603
-0.870787
-0.869609
-0.876677
-0.875503
-0.882494
-0.881324
-0.888223
-0.887058
-0.893866
-0.892705
-0.899428
-0.898272
-0.904912
-0.903761
-0.910315
-0.909169
-0.915635
-0.914493
-0.920873
-0.919736
-0.92602
-0.924888
-0.931082
-0.929954
-0.936051
-0.934929
-0.940932
-0.939813
-0.945713
-0.9446
-0.950421
-0.949312
-0.955017
-0.953914
-0.959543
-0.958443
-0.963974
-0.962879
-0.968327
-0.967235
-0.97257
-0.971485
-0.976765
-0.975682
-0.980847
-0.979771
-0.984876
-0.983801
-0.988793
-0.987725
-0.992668
-0.991599
-0.996404
-0.995344
-1.00009
-0.999028
-1.00364
-1.00259
-1.00716
-1.0061
-1.01052
-1.00948
-1.01387
-1.01282
-1.01706
-1.01603
-1.02025
-1.0192
-1.02327
-1.02224
-1.02631
-1.02527
-1.02915
-1.02813
-1.03204
-1.03099
-1.0347
-1.0337
-1.03744
-1.03639
-1.0399
-1.0389
-1.04248
-1.04143
-1.04473
-1.04375
-1.04715
-1.04609
-1.04919
-1.04823
-1.05144
-1.05037
-1.05323
-1.05229
-1.05533
-1.05424
-1.05686
-1.05595
-1.05879
-1.05768
-1.06004
-1.05916
-1.06183
-1.06068
-1.06276
-1.06193
-1.0644
-1.0632
-1.06499
-1.06422
-1.0665
-1.06524
-1.06693
-1.06601
-1.0681
-1.06675
-1.06838
-1.06727
-1.06916
-1.06771
-1.0693
-1.06798
-1.06966
-1.0681
-1.06964
-1.0681
-1.06921
-1.06789
-1.06902
-1.06761
-1.06814
-1.06708
-1.0678
-1.0665
-1.06645
-1.06562
-1.06594
-1.06472
-1.06421
-1.06349
-1.06341
-1.06226
-1.06145
-1.06067
-1.06016
-1.05907
-1.05794
-1.05712
-1.05619
-1.05514
-1.05365
-1.0528
-1.05143
-1.0504
-1.04856
-1.04768
-1.04589
-1.04489
-1.04266
-1.04177
-1.03952
-1.03853
-1.0359
-1.035
-1.03231
-1.03133
-1.02827
-1.02736
-1.02424
-1.02327
-1.0198
-1.01888
-1.01532
-1.01436
-1.01045
-1.00953
-1.00551
-1.00455
-1.00023
-0.999301
-0.994823
-0.993874
-0.989146
-0.988216
-0.983285
-0.982338
-0.97713
-0.976198
-0.970863
-0.969919
-0.964275
-0.963342
-0.957521
-0.956579
-0.950559
-0.949625
-0.943377
-0.942437
-0.935948
-0.935014
-0.928353
-0.927413
-0.920461
-0.919526
-0.912468
-0.91153
-0.904189
-0.903254
-0.895753
-0.894815
-0.887106
-0.886171
-0.878241
-0.877303
-0.869173
-0.868238
-0.859977
-0.85904
-0.850594
-0.849659
-0.840924
-0.839988
-0.831168
-0.830233
-0.821223
-0.820287
-0.811122
-0.810187
-0.800842
-0.799906
-0.790426
-0.789492
-0.779842
-0.778906
-0.769036
-0.768101
-0.758179
-0.757244
-0.747233
-0.746298
-0.736027
-0.735092
-0.72475
-0.723815
-0.713465
-0.71253
-0.702014
-0.70108
-0.690449
-0.689514
-0.678733
-0.677799
-0.667052
-0.666118
-0.655241
-0.654307
-0.643353
-0.642419
-0.631348
-0.630414
-0.619434
-0.6185
-0.607421
-0.606487
-0.595231
-0.594298
-0.583259
-0.582325
-0.571132
-0.570198
-0.558939
-0.558005
-0.546761
-0.545828
-0.534703
-0.53377
-0.522519
-0.521585
-0.510484
-0.50955
-0.498501
-0.497568
-0.486362
-0.485428
-0.47446
-0.473527
-0.462598
-0.461665
-0.450646
-0.449714
-0.438932
-0.437999
-0.427323
-0.42639
-0.415619
-0.414687
-0.404036
-0.403103
-0.392742
-0.39181
-0.381402
-0.38047
-0.370195
-0.369263
-0.359135
-0.358202
-0.348234
-0.347302
-0.337488
-0.336556
-0.326742
-0.325809
-0.316346
-0.315413
-0.305966
-0.305034
-0.295768
-0.294836
-0.285783
-0.284851
-0.275811
-0.274879
-0.266064
-0.265132
-0.256525
-0.255593
-0.247225
-0.246293
-0.23814
-0.237209
-0.229124
-0.228193
-0.220333
-0.219401
-0.211799
-0.210867
-0.203318
-0.202387
-0.195105
-0.194173
-0.187124
-0.186192
-0.179247
-0.178315
-0.171604
-0.170672
-0.164242
-0.16331
-0.156946
-0.156014
-0.14994
-0.149009
-0.143158
-0.142227
-0.136516
-0.135585
-0.130089
-0.129158
-0.123815
-0.122884
-0.117749
-0.116817
-0.111993
-0.111061
-0.106284
-0.105353
-0.100753
-0.0998222
-0.0955426
-0.0946115
-0.0903809
-0.0894498
-0.085523
-0.0845919
-0.0807214
-0.0797903
-0.0762174
-0.0752863
-0.071765
-0.0708339
-0.0676136
-0.0666826
-0.0636153
-0.0626844
-0.0596941
-0.0587632
-0.0560189
-0.055088
-0.0524377
-0.0515068
-0.0490788
-0.0481479
-0.0458227
-0.0448919
-0.0427711
-0.0418403
-0.0398247
-0.0388938
-0.0369787
-0.0360478
-0.0343311
-0.0334003
-0.0318585
-0.0309277
-0.0294917
-0.0285609
-0.027207
-0.0262762
-0.0250343
-0.0241035
-0.0230819
-0.0221511
-0.0211637
-0.020233
-0.019386
-0.0184552
-0.0177047
-0.0167739
-0.0161587
-0.015228
-0.0146944
-0.0137637
-0.013311
-0.0123802
-0.0120479
-0.0111172
-0.0108676
-0.00993687
-0.00978775
-0.00885707
-0.0087495
-0.00781883
-0.00783881
-0.0069081
-0.00696899
-0.00603829
-0.00617799
-0.00524732
-0.00545839
-0.00452772
-0.00480929
-0.00387863
-0.00422061
-0.00328996
-0.00367106
-0.0027404
-0.00317626
-0.0022456
-0.00274006
-0.00180941
-0.00234892
-0.00141828
-0.00199262
-0.00106199
-0.0016904
-0.000759757
-0.00141783
-0.000487191
-0.00117806
-0.000247422
-0.000974852
-4.42138e-05
-0.00079837
0.000132261
-0.000643067
0.000287565
-0.000511049
0.000419584
-0.000402815
0.000527815
-0.000312452
0.000618172
-0.000235959
0.000694666
-0.000174089
0.000756538
-0.000125972
0.000804652
-8.81927e-05
0.000842428
-5.82688e-05
0.000872352
-3.60142e-05
0.000894608
-2.02745e-05
0.000910346
-9.25446e-06
0.000921365
-1.65126e-06
0.000928967
3.07946e-06
0.000933699
5.74431e-06
0.000936362
7.1015e-06
0.000937715
7.70936e-06
0.000938322
7.91857e-06
0.000938539
7.95986e-06
0.000938595
-0.397912
-0.390812
-0.398771
-0.39273
-0.399695
-0.393341
-0.402107
-0.396953
-0.403821
-0.398095
-0.407594
-0.403185
-0.410047
-0.404822
-0.415074
-0.411258
-0.41819
-0.413338
-0.424351
-0.429353
-0.428198
-0.431825
-0.435028
-0.439447
-0.439669
-0.443127
-0.447029
-0.450939
-0.452359
-0.455596
-0.460125
-0.46359
-0.46609
-0.469079
-0.474242
-0.477321
-0.480828
-0.483566
-0.489323
-0.492071
-0.496422
-0.49892
-0.505111
-0.507578
-0.512551
-0.51483
-0.521312
-0.523541
-0.528987
-0.531072
-0.537774
-0.5398
-0.545634
-0.547546
-0.554457
-0.556309
-0.562509
-0.564267
-0.571354
-0.573055
-0.57955
-0.581176
-0.588397
-0.589972
-0.596681
-0.598197
-0.605486
-0.606961
-0.613803
-0.615233
-0.622523
-0.623921
-0.630806
-0.63217
-0.639408
-0.640749
-0.647609
-0.648925
-0.656058
-0.657356
-0.664142
-0.665423
-0.672407
-0.673675
-0.68036
-0.681616
-0.688452
-0.6897
-0.696274
-0.697513
-0.704207
-0.705441
-0.711902
-0.71313
-0.719674
-0.720897
-0.727235
-0.728455
-0.734842
-0.736059
-0.742266
-0.743479
-0.749734
-0.750945
-0.757042
-0.758251
-0.764358
-0.765565
-0.771531
-0.772736
-0.778672
-0.779876
-0.785661
-0.786863
-0.792596
-0.793799
-0.799392
-0.800595
-0.806147
-0.807349
-0.812796
-0.813997
-0.819397
-0.820597
-0.825913
-0.827111
-0.83239
-0.833586
-0.83878
-0.839974
-0.845112
-0.846304
-0.85135
-0.852538
-0.857532
-0.858717
-0.863603
-0.864785
-0.869609
-0.870787
-0.875503
-0.876677
-0.881324
-0.882494
-0.887058
-0.888223
-0.892705
-0.893866
-0.898272
-0.899428
-0.903761
-0.904912
-0.909169
-0.910315
-0.914493
-0.915635
-0.919736
-0.920873
-0.924888
-0.92602
-0.929954
-0.931082
-0.934929
-0.936051
-0.939813
-0.940932
-0.9446
-0.945713
-0.949312
-0.950421
-0.953914
-0.955017
-0.958443
-0.959543
-0.962879
-0.963974
-0.967235
-0.968327
-0.971485
-0.97257
-0.975682
-0.976765
-0.979771
-0.980847
-0.983801
-0.984876
-0.987725
-0.988793
-0.991599
-0.992668
-0.995344
-0.996404
-0.999028
-1.00009
-1.00259
-1.00364
-1.0061
-1.00716
-1.00948
-1.01052
-1.01282
-1.01387
-1.01603
-1.01706
-1.0192
-1.02025
-1.02224
-1.02327
-1.02527
-1.02631
-1.02813
-1.02915
-1.03099
-1.03204
-1.0337
-1.0347
-1.03639
-1.03744
-1.0389
-1.0399
-1.04143
-1.04248
-1.04375
-1.04473
-1.04609
-1.04715
-1.04823
-1.04919
-1.05038
-1.05144
-1.05229
-1.05323
-1.05424
-1.05533
-1.05595
-1.05686
-1.05768
-1.05879
-1.05916
-1.06004
-1.06068
-1.06183
-1.06193
-1.06276
-1.0632
-1.0644
-1.06422
-1.06499
-1.06524
-1.0665
-1.06601
-1.06693
-1.06675
-1.0681
-1.06727
-1.06838
-1.06771
-1.06916
-1.06798
-1.0693
-1.0681
-1.06966
-1.0681
-1.06964
-1.06789
-1.06921
-1.06761
-1.06903
-1.06708
-1.06814
-1.0665
-1.0678
-1.06562
-1.06645
-1.06472
-1.06594
-1.06349
-1.06421
-1.06226
-1.06341
-1.06067
-1.06145
-1.05907
-1.06016
-1.05712
-1.05794
-1.05514
-1.05619
-1.0528
-1.05365
-1.0504
-1.05143
-1.04768
-1.04856
-1.04489
-1.04589
-1.04177
-1.04266
-1.03853
-1.03952
-1.035
-1.0359
-1.03133
-1.03231
-1.02736
-1.02828
-1.02327
-1.02424
-1.01888
-1.0198
-1.01436
-1.01532
-1.00953
-1.01045
-1.00455
-1.00551
-0.999301
-1.00023
-0.993874
-0.994823
-0.988216
-0.989146
-0.982338
-0.983285
-0.976198
-0.97713
-0.969919
-0.970863
-0.963342
-0.964275
-0.956579
-0.957521
-0.949625
-0.950559
-0.942437
-0.943378
-0.935014
-0.935948
-0.927413
-0.928353
-0.919526
-0.920461
-0.91153
-0.912468
-0.903254
-0.904189
-0.894815
-0.895753
-0.886171
-0.887106
-0.877303
-0.878241
-0.868238
-0.869174
-0.85904
-0.859977
-0.849659
-0.850594
-0.839988
-0.840925
-0.830233
-0.831168
-0.820287
-0.821223
-0.810187
-0.811122
-0.799906
-0.800842
-0.789492
-0.790427
-0.778906
-0.779842
-0.768101
-0.769036
-0.757244
-0.758179
-0.746298
-0.747233
-0.735092
-0.736027
-0.723815
-0.72475
-0.71253
-0.713465
-0.70108
-0.702015
-0.689514
-0.690449
-0.677799
-0.678733
-0.666118
-0.667052
-0.654307
-0.655241
-0.642419
-0.643353
-0.630414
-0.631348
-0.6185
-0.619434
-0.606487
-0.607421
-0.594298
-0.595232
-0.582325
-0.583259
-0.570198
-0.571132
-0.558005
-0.558939
-0.545828
-0.546761
-0.53377
-0.534704
-0.521585
-0.522519
-0.50955
-0.510484
-0.497568
-0.498501
-0.485429
-0.486362
-0.473527
-0.474461
-0.461665
-0.462598
-0.449714
-0.450647
-0.437999
-0.438932
-0.42639
-0.427323
-0.414687
-0.41562
-0.403103
-0.404036
-0.39181
-0.392742
-0.38047
-0.381402
-0.369263
-0.370195
-0.358202
-0.359135
-0.347302
-0.348234
-0.336556
-0.337488
-0.325809
-0.326742
-0.315413
-0.316346
-0.305034
-0.305966
-0.294836
-0.295768
-0.284851
-0.285783
-0.274879
-0.275811
-0.265132
-0.266064
-0.255594
-0.256526
-0.246294
-0.247225
-0.237209
-0.238141
-0.228193
-0.229125
-0.219401
-0.220333
-0.210867
-0.211799
-0.202387
-0.203318
-0.194173
-0.195105
-0.186192
-0.187124
-0.178315
-0.179247
-0.170672
-0.171604
-0.16331
-0.164242
-0.156014
-0.156946
-0.149009
-0.14994
-0.142227
-0.143158
-0.135585
-0.136516
-0.129158
-0.130089
-0.122884
-0.123815
-0.116818
-0.117749
-0.111061
-0.111993
-0.105353
-0.106284
-0.0998223
-0.100753
-0.0946115
-0.0955427
-0.0894499
-0.090381
-0.084592
-0.0855231
-0.0797904
-0.0807215
-0.0752864
-0.0762174
-0.070834
-0.071765
-0.0666827
-0.0676137
-0.0626845
-0.0636154
-0.0587633
-0.0596942
-0.0550881
-0.056019
-0.0515069
-0.0524378
-0.048148
-0.0490789
-0.0448919
-0.0458228
-0.0418403
-0.0427712
-0.0388939
-0.0398248
-0.0360479
-0.0369787
-0.0334004
-0.0343312
-0.0309277
-0.0318585
-0.0285609
-0.0294918
-0.0262763
-0.0272071
-0.0241036
-0.0250344
-0.0221512
-0.023082
-0.020233
-0.0211638
-0.0184553
-0.019386
-0.016774
-0.0177047
-0.0152281
-0.0161588
-0.0137637
-0.0146945
-0.0123803
-0.013311
-0.0111173
-0.012048
-0.00993693
-0.0108676
-0.00885714
-0.00978783
-0.00781889
-0.00874958
-0.00690817
-0.00783889
-0.00603836
-0.00696907
-0.00524738
-0.00617807
-0.00452778
-0.00545847
-0.00387869
-0.00480938
-0.00329002
-0.00422069
-0.00274046
-0.00367114
-0.00224567
-0.00317635
-0.00180947
-0.00274014
-0.00141834
-0.002349
-0.00106205
-0.0019927
-0.00075982
-0.00169048
-0.000487253
-0.00141792
-0.000247484
-0.00117815
-4.42756e-05
-0.000974938
0.000132199
-0.000798457
0.000287503
-0.000643154
0.000419523
-0.000511136
0.000527753
-0.000402902
0.000618111
-0.00031254
0.000694605
-0.000236047
0.000756476
-0.000174177
0.000804591
-0.00012606
0.000842367
-8.82808e-05
0.00087229
-5.83571e-05
0.000894547
-3.61026e-05
0.000910285
-2.03629e-05
0.000921303
-9.34297e-06
0.000928906
-1.73981e-06
0.000933638
2.99087e-06
0.000936301
5.65571e-06
0.000937654
7.01288e-06
0.000938261
7.62073e-06
0.000938478
7.82994e-06
0.000938534
7.87126e-06
)
;

boundaryField
{
    walls
    {
        type            zeroGradient;
    }
    inlet
    {
        type            cyclic;
    }
    outlet
    {
        type            cyclic;
    }
    sides
    {
        type            empty;
    }
}


// ************************************************************************* //
