/*--------------------------------*- C++ -*----------------------------------*\
| =========                 |                                                 |
| \\      /  F ield         | OpenFOAM: The Open Source CFD Toolbox           |
|  \\    /   O peration     | Version:  2012                                  |
|   \\  /    A nd           | Website:  www.openfoam.com                      |
|    \\/     M anipulation  |                                                 |
\*---------------------------------------------------------------------------*/
FoamFile
{
    version     2.0;
    format      ascii;
    class       surfaceScalarField;
    location    "14100";
    object      phi;
}
// * * * * * * * * * * * * * * * * * * * * * * * * * * * * * * * * * * * * * //

dimensions      [0 3 -1 0 0 0 0];
oriented        oriented;


internalField   nonuniform List<scalar> 
5116
(
6.5137e-07
2.44018e-12
-6.60458e-12
-1.99246e-11
6.61993e-12
1.99065e-06
3.26103e-11
-1.00201e-11
-5.02045e-11
1.00587e-11
3.38678e-06
5.87827e-11
-8.7194e-12
-7.64836e-11
8.75297e-12
4.84156e-06
7.57484e-11
-5.6501e-12
-9.3546e-11
5.67185e-12
6.35679e-06
8.53308e-11
-3.20576e-12
-1.03186e-10
3.2181e-12
7.93436e-06
9.11429e-11
-1.9502e-12
-1.09084e-10
1.9577e-12
9.57625e-06
9.51079e-11
-1.32915e-12
-1.13067e-10
1.33426e-12
1.12846e-05
9.80418e-11
-9.92853e-13
-1.16075e-10
9.96663e-13
1.30616e-05
1.00401e-10
-7.91665e-13
-1.1844e-10
7.94697e-13
1.49096e-05
1.02337e-10
-6.61268e-13
-1.20445e-10
6.63793e-13
1.68311e-05
1.04046e-10
-5.71475e-13
-1.22147e-10
5.73651e-13
1.88288e-05
1.05518e-10
-5.06758e-13
-1.23685e-10
5.08679e-13
2.09053e-05
1.06893e-10
-4.58468e-13
-1.25047e-10
4.60198e-13
2.30636e-05
1.0811e-10
-4.21467e-13
-1.26328e-10
4.23049e-13
2.53067e-05
1.09294e-10
-3.92534e-13
-1.27491e-10
3.93999e-13
2.76377e-05
1.10358e-10
-3.69561e-13
-1.28614e-10
3.70931e-13
3.00598e-05
1.11422e-10
-3.51115e-13
-1.29653e-10
3.52407e-13
3.25763e-05
1.12387e-10
-3.36191e-13
-1.30674e-10
3.37418e-13
3.51907e-05
1.13374e-10
-3.24068e-13
-1.31631e-10
3.2524e-13
3.79064e-05
1.14274e-10
-3.14213e-13
-1.32585e-10
3.1534e-13
4.07271e-05
1.1521e-10
-3.06231e-13
-1.33488e-10
3.07318e-13
4.36563e-05
1.16069e-10
-2.99816e-13
-1.34398e-10
3.00869e-13
4.66976e-05
1.16972e-10
-2.94736e-13
-1.35266e-10
2.95759e-13
4.98547e-05
1.17805e-10
-2.90806e-13
-1.36148e-10
2.91804e-13
5.31311e-05
1.18689e-10
-2.87883e-13
-1.36995e-10
2.88858e-13
5.65306e-05
1.19508e-10
-2.85851e-13
-1.3786e-10
2.86806e-13
6.00565e-05
1.20383e-10
-2.84619e-13
-1.38698e-10
2.85556e-13
6.37122e-05
1.21197e-10
-2.84112e-13
-1.39556e-10
2.85033e-13
6.75011e-05
1.22072e-10
-2.84271e-13
-1.40392e-10
2.85179e-13
7.14262e-05
1.2289e-10
-2.85049e-13
-1.41253e-10
2.85944e-13
7.54905e-05
1.23772e-10
-2.86406e-13
-1.42095e-10
2.87291e-13
7.96965e-05
1.246e-10
-2.88314e-13
-1.42964e-10
2.89188e-13
8.40468e-05
1.25495e-10
-2.90748e-13
-1.4382e-10
2.91613e-13
8.85434e-05
1.26339e-10
-2.9369e-13
-1.44704e-10
2.94547e-13
9.3188e-05
1.27254e-10
-2.97125e-13
-1.45578e-10
2.97976e-13
9.7982e-05
1.2812e-10
-3.01047e-13
-1.46484e-10
3.01891e-13
0.000102926
1.2906e-10
-3.05448e-13
-1.47383e-10
3.06286e-13
0.000108022
1.29953e-10
-3.10326e-13
-1.48315e-10
3.11158e-13
0.000113268
1.30924e-10
-3.1568e-13
-1.49245e-10
3.16507e-13
0.000118664
1.3185e-10
-3.21515e-13
-1.5021e-10
3.22336e-13
0.000124209
1.32858e-10
-3.27833e-13
-1.51176e-10
3.2865e-13
0.000129901
1.33823e-10
-3.34642e-13
-1.5218e-10
3.35455e-13
0.000135739
1.34873e-10
-3.4195e-13
-1.53189e-10
3.42759e-13
0.000141718
1.35883e-10
-3.49768e-13
-1.54237e-10
3.50571e-13
0.000147834
1.36982e-10
-3.58104e-13
-1.55294e-10
3.58904e-13
0.000154084
1.38043e-10
-3.66973e-13
-1.56393e-10
3.67768e-13
0.000160461
1.39197e-10
-3.76387e-13
-1.57506e-10
3.77178e-13
0.00016696
1.40316e-10
-3.86358e-13
-1.58662e-10
3.87145e-13
0.000173574
1.41531e-10
-3.96901e-13
-1.59836e-10
3.97683e-13
0.000180293
1.42714e-10
-4.08029e-13
-1.61057e-10
4.08805e-13
0.000187111
1.43999e-10
-4.19754e-13
-1.62299e-10
4.20525e-13
0.000194016
1.45253e-10
-4.3209e-13
-1.63591e-10
4.32854e-13
0.000200999
1.46614e-10
-4.45044e-13
-1.64909e-10
4.45803e-13
0.000208048
1.47948e-10
-4.58629e-13
-1.6628e-10
4.5938e-13
0.000215152
1.49392e-10
-4.72845e-13
-1.67681e-10
4.7359e-13
0.000222295
1.50813e-10
-4.87699e-13
-1.69139e-10
4.88434e-13
0.000229466
1.52349e-10
-5.03187e-13
-1.7063e-10
5.03913e-13
0.00023665
1.53865e-10
-5.19304e-13
-1.72182e-10
5.2002e-13
0.00024383
1.55501e-10
-5.36036e-13
-1.7377e-10
5.36741e-13
0.000250991
1.57118e-10
-5.53367e-13
-1.75424e-10
5.5406e-13
0.000258116
1.58861e-10
-5.71271e-13
-1.77117e-10
5.7195e-13
0.000265189
1.60588e-10
-5.89717e-13
-1.78879e-10
5.90381e-13
0.000272191
1.62445e-10
-6.08663e-13
-1.80683e-10
6.09311e-13
0.000279106
1.64288e-10
-6.28066e-13
-1.82559e-10
6.28696e-13
0.000285914
1.66263e-10
-6.47869e-13
-1.84479e-10
6.4848e-13
0.000292598
1.68228e-10
-6.68015e-13
-1.86473e-10
6.68604e-13
0.00029914
1.70326e-10
-6.88439e-13
-1.88514e-10
6.89007e-13
0.000305523
1.72416e-10
-7.09078e-13
-1.9063e-10
7.09621e-13
0.000311728
1.74639e-10
-7.29865e-13
-1.92793e-10
7.30382e-13
0.000317739
1.76857e-10
-7.50739e-13
-1.95031e-10
7.51227e-13
0.00032354
1.79204e-10
-7.71642e-13
-1.97318e-10
7.72101e-13
0.000329115
1.8155e-10
-7.9253e-13
-1.9968e-10
7.92956e-13
0.000334452
1.84022e-10
-8.13366e-13
-2.0209e-10
8.13758e-13
0.000339536
1.86495e-10
-8.34132e-13
-2.04574e-10
8.34489e-13
0.000344356
1.89089e-10
-8.54823e-13
-2.07107e-10
8.55143e-13
0.000348902
1.91688e-10
-8.75455e-13
-2.09712e-10
8.75736e-13
0.000353165
1.94403e-10
-8.96059e-13
-2.12366e-10
8.963e-13
0.000357138
1.97128e-10
-9.16687e-13
-2.15093e-10
9.16885e-13
0.000360817
1.99963e-10
-9.37401e-13
-2.17869e-10
9.37555e-13
0.000364196
2.02814e-10
-9.58284e-13
-2.20717e-10
9.58392e-13
0.000367276
2.0577e-10
-9.79426e-13
-2.23617e-10
9.79488e-13
0.000370055
2.0875e-10
-1.00093e-12
-2.2659e-10
1.00094e-12
0.000372535
2.11829e-10
-1.0229e-12
-2.29618e-10
1.02286e-12
0.000374719
2.14943e-10
-1.04544e-12
-2.32722e-10
1.04536e-12
0.000376613
2.18154e-10
-1.06869e-12
-2.35885e-10
1.06854e-12
0.000378221
2.2141e-10
-1.09274e-12
-2.39127e-10
1.09254e-12
0.000379553
2.24759e-10
-1.11771e-12
-2.42435e-10
1.11746e-12
0.000380615
2.28167e-10
-1.14373e-12
-2.45827e-10
1.14341e-12
0.000381419
2.31668e-10
-1.17089e-12
-2.49292e-10
1.17052e-12
0.000381973
2.35241e-10
-1.19932e-12
-2.52847e-10
1.19888e-12
0.000382291
2.38907e-10
-1.22912e-12
-2.56485e-10
1.22861e-12
0.000382383
2.42661e-10
-1.26039e-12
-2.60219e-10
1.25981e-12
0.000382262
2.46511e-10
-1.29324e-12
-2.64046e-10
1.29259e-12
0.00038194
2.50465e-10
-1.32777e-12
-2.67979e-10
1.32704e-12
0.000381431
2.54517e-10
-1.36408e-12
-2.72017e-10
1.36328e-12
0.000380747
2.58692e-10
-1.40228e-12
-2.76168e-10
1.4014e-12
0.000379901
2.6297e-10
-1.44247e-12
-2.80439e-10
1.4415e-12
0.000378905
2.67389e-10
-1.48474e-12
-2.84834e-10
1.48368e-12
0.000377773
2.71917e-10
-1.52921e-12
-2.89362e-10
1.52806e-12
0.000376515
2.76606e-10
-1.57596e-12
-2.94026e-10
1.57472e-12
0.000375145
2.81414e-10
-1.62514e-12
-2.98839e-10
1.62379e-12
0.000373672
2.86401e-10
-1.67681e-12
-3.03801e-10
1.67536e-12
0.000372107
2.91518e-10
-1.73113e-12
-3.0893e-10
1.72956e-12
0.000370461
2.96835e-10
-1.78817e-12
-3.14221e-10
1.78648e-12
0.000368743
3.02294e-10
-1.8481e-12
-3.19698e-10
1.84629e-12
0.000366962
3.07977e-10
-1.91099e-12
-3.25353e-10
1.90905e-12
0.000365127
3.13814e-10
-1.97703e-12
-3.31214e-10
1.97496e-12
0.000363243
3.19898e-10
-2.04629e-12
-3.37269e-10
2.04407e-12
0.00036132
3.26154e-10
-2.119e-12
-3.43553e-10
2.11664e-12
0.000359363
3.32681e-10
-2.19519e-12
-3.5005e-10
2.19267e-12
0.000357378
3.39398e-10
-2.27515e-12
-3.568e-10
2.27247e-12
0.000355371
3.46412e-10
-2.35888e-12
-3.63783e-10
2.35602e-12
0.000353345
3.53637e-10
-2.44674e-12
-3.71045e-10
2.44372e-12
0.000351306
3.61187e-10
-2.53868e-12
-3.78562e-10
2.53547e-12
0.000349257
3.6897e-10
-2.63517e-12
-3.86387e-10
2.63177e-12
0.000347201
3.7711e-10
-2.73605e-12
-3.9449e-10
2.73244e-12
0.000345142
3.85507e-10
-2.84195e-12
-4.02932e-10
2.83813e-12
0.000343082
3.94292e-10
-2.95257e-12
-4.1168e-10
2.94852e-12
0.000341022
4.03364e-10
-3.06875e-12
-4.20801e-10
3.06447e-12
0.000338965
4.12858e-10
-3.18998e-12
-4.30255e-10
3.18546e-12
0.000336913
4.22671e-10
-3.3174e-12
-4.40119e-10
3.31263e-12
0.000334866
4.32942e-10
-3.45021e-12
-4.50349e-10
3.44517e-12
0.000332825
4.43568e-10
-3.58994e-12
-4.61029e-10
3.58464e-12
0.000330792
4.54691e-10
-3.73537e-12
-4.72108e-10
3.72977e-12
0.000328766
4.66208e-10
-3.8886e-12
-4.83682e-10
3.88272e-12
0.00032675
4.78266e-10
-4.0478e-12
-4.95693e-10
4.0416e-12
0.000324742
4.90761e-10
-4.21586e-12
-5.08246e-10
4.20936e-12
0.000322743
5.03842e-10
-4.39007e-12
-5.2128e-10
4.38322e-12
0.000320754
5.1741e-10
-4.57447e-12
-5.34906e-10
4.56728e-12
0.000318775
5.31614e-10
-4.76503e-12
-5.49059e-10
4.75748e-12
0.000316807
5.46358e-10
-4.96744e-12
-5.63862e-10
4.95952e-12
0.00031485
5.61792e-10
-5.17581e-12
-5.79242e-10
5.1675e-12
0.000312905
5.77827e-10
-5.39813e-12
-5.95335e-10
5.38943e-12
0.000310972
5.94609e-10
-5.62586e-12
-6.12059e-10
5.61673e-12
0.000309052
6.12059e-10
-5.87025e-12
-6.29566e-10
5.86072e-12
0.000307145
6.3032e-10
-6.11897e-12
-6.47764e-10
6.10897e-12
0.000305254
6.49322e-10
-6.38794e-12
-6.66821e-10
6.3775e-12
0.000303378
6.69205e-10
-6.65932e-12
-6.86635e-10
6.64838e-12
0.000301518
6.89909e-10
-6.95575e-12
-7.07393e-10
6.94434e-12
0.000299675
7.11569e-10
-7.25149e-12
-7.28977e-10
7.23955e-12
0.00029785
7.34142e-10
-7.57878e-12
-7.51601e-10
7.56633e-12
0.000296045
7.5775e-10
-7.90049e-12
-7.75127e-10
7.88748e-12
0.00029426
7.82374e-10
-8.26268e-12
-7.99798e-10
8.24913e-12
0.000292498
8.08118e-10
-8.61182e-12
-8.25452e-10
8.59766e-12
0.00029076
8.34994e-10
-9.01377e-12
-8.52373e-10
8.99904e-12
0.000289048
8.63078e-10
-9.39142e-12
-8.80359e-10
9.37604e-12
0.000287364
8.92429e-10
-9.83914e-12
-9.09752e-10
9.82314e-12
0.00028571
9.23079e-10
-1.02457e-11
-9.40293e-10
1.02291e-11
0.000284089
9.55151e-10
-1.07467e-11
-9.72404e-10
1.07294e-11
0.000282503
9.88613e-10
-1.11817e-11
-1.00574e-09
1.11636e-11
0.000280955
1.02368e-09
-1.17455e-11
-1.04085e-09
1.17267e-11
0.000279448
1.06022e-09
-1.22065e-11
-1.07725e-09
1.2187e-11
0.000277984
1.09859e-09
-1.28456e-11
-1.11565e-09
1.28253e-11
0.000276567
1.1385e-09
-1.33279e-11
-1.15541e-09
1.33068e-11
0.0002752
1.1805e-09
-1.40588e-11
-1.19743e-09
1.4037e-11
0.000273884
1.2241e-09
-1.45535e-11
-1.24086e-09
1.45308e-11
0.000272624
1.27012e-09
-1.53984e-11
-1.28689e-09
1.53748e-11
0.000271422
1.31774e-09
-1.58908e-11
-1.33431e-09
1.58663e-11
0.000270279
1.36821e-09
-1.68802e-11
-1.38479e-09
1.68549e-11
0.000269196
1.42022e-09
-1.73467e-11
-1.43656e-09
1.73204e-11
0.000268174
1.47561e-09
-1.85231e-11
-1.49195e-09
1.84958e-11
0.000267211
1.53237e-09
-1.89266e-11
-1.54844e-09
1.88983e-11
0.000266306
1.59324e-09
-2.035e-11
-1.60931e-09
2.03207e-11
0.000265454
1.65515e-09
-2.06336e-11
-1.6709e-09
2.06032e-11
0.000264654
1.72213e-09
-2.23897e-11
-1.73788e-09
2.23582e-11
0.000263899
1.78957e-09
-2.24668e-11
-1.80495e-09
2.24341e-11
0.000263185
1.86342e-09
-2.4679e-11
-1.87878e-09
2.46452e-11
0.000262508
1.93674e-09
-2.44186e-11
-1.95169e-09
2.43836e-11
0.000261864
2.01835e-09
-2.72665e-11
-2.03327e-09
2.72303e-11
0.000261251
2.09788e-09
-2.64714e-11
-2.11231e-09
2.64339e-11
0.000260667
2.18833e-09
-3.02177e-11
-2.20274e-09
3.01789e-11
0.000260115
2.27427e-09
-2.85912e-11
-2.28812e-09
2.85511e-11
0.000259598
2.37491e-09
-3.36221e-11
-2.38875e-09
3.35806e-11
0.000259119
2.46731e-09
-3.07189e-11
-2.48049e-09
3.06759e-11
0.000258683
2.57986e-09
-3.76055e-11
-2.59307e-09
3.75609e-11
0.000258296
2.67847e-09
-3.27558e-11
-2.6909e-09
3.27098e-11
0.000257963
2.8052e-09
-4.23461e-11
-2.8177e-09
4.22985e-11
0.000257687
2.90919e-09
-3.45425e-11
-2.92088e-09
3.44934e-11
0.000257471
3.05314e-09
-4.81018e-11
-3.06494e-09
4.80511e-11
0.000257317
3.1607e-09
-3.58264e-11
-3.17197e-09
3.57742e-11
0.000257227
3.32605e-09
-5.52501e-11
-3.33746e-09
5.51965e-11
0.000257197
3.43454e-09
-3.62119e-11
-3.44565e-09
3.61566e-11
0.000257228
3.62723e-09
-6.43509e-11
-3.63844e-09
6.42943e-11
0.000257313
3.76569e-09
-4.61523e-11
-3.77644e-09
4.60941e-11
0.000257448
3.99286e-09
-7.58178e-11
-4.00362e-09
7.57572e-11
0.00025763
4.18802e-09
-6.49914e-11
-4.19812e-09
6.49293e-11
0.000257854
4.45725e-09
-8.98311e-11
-4.46732e-09
8.97655e-11
0.000258117
4.71907e-09
-8.71751e-11
-4.72838e-09
8.71087e-11
0.000258417
5.03826e-09
-1.06489e-10
-5.04753e-09
1.0642e-10
0.000258755
5.37704e-09
-1.12951e-10
-5.38593e-09
1.12881e-10
0.000259136
5.67857e-09
-1.00621e-10
-5.68748e-09
1.00552e-10
0.000259564
6.02232e-09
-1.14738e-10
-6.03126e-09
1.14667e-10
0.000260043
6.29819e-09
-9.20507e-11
-6.30709e-09
9.19845e-11
0.000260579
6.64787e-09
-1.16726e-10
-6.65682e-09
1.16657e-10
0.00026117
6.89576e-09
-8.2677e-11
-6.9045e-09
8.26091e-11
0.00026182
7.25394e-09
-1.19539e-10
-7.26265e-09
1.19469e-10
0.00026253
7.48353e-09
-7.65483e-11
-7.4919e-09
7.64723e-11
0.000263297
7.85479e-09
-1.23869e-10
-7.86301e-09
1.23794e-10
0.000264118
8.12532e-09
-9.01848e-11
-8.13314e-09
9.01073e-11
0.000264985
8.51434e-09
-1.29797e-10
-8.522e-09
1.29719e-10
0.000265883
8.82597e-09
-1.03891e-10
-8.8332e-09
1.03812e-10
0.000266793
9.23735e-09
-1.37243e-10
-9.24435e-09
1.37162e-10
0.000267693
9.59079e-09
-1.17835e-10
-9.59734e-09
1.17753e-10
0.000268554
1.00289e-08
-1.46142e-10
-1.00351e-08
1.46058e-10
0.000269348
1.04253e-08
-1.32162e-10
-1.0431e-08
1.32078e-10
0.000270048
1.08944e-08
-1.56449e-10
-1.08997e-08
1.56363e-10
0.000270627
1.13352e-08
-1.47006e-10
-1.13401e-08
1.46919e-10
0.000271069
1.18394e-08
-1.68135e-10
-1.18437e-08
1.68047e-10
0.000271367
1.23266e-08
-1.62489e-10
-1.23305e-08
1.624e-10
0.000271518
1.287e-08
-1.81186e-10
-1.28731e-08
1.81095e-10
0.000271522
1.34059e-08
-1.7873e-10
-1.34086e-08
1.78639e-10
0.000271374
1.39924e-08
-1.956e-10
-1.39944e-08
1.95508e-10
0.000271061
1.45796e-08
-1.9585e-10
-1.45812e-08
1.95759e-10
0.000270566
1.52136e-08
-2.11389e-10
-1.52144e-08
2.11297e-10
0.000269868
1.5855e-08
-2.1394e-10
-1.58554e-08
2.13848e-10
0.000268945
1.65405e-08
-2.28585e-10
-1.654e-08
2.28493e-10
0.000267773
1.72394e-08
-2.3313e-10
-1.72386e-08
2.33039e-10
0.00026633
1.79809e-08
-2.47244e-10
-1.79792e-08
2.47153e-10
0.000264594
1.8741e-08
-2.53556e-10
-1.8739e-08
2.53466e-10
0.000262545
1.95432e-08
-2.67456e-10
-1.95402e-08
2.67367e-10
0.000260177
2.03687e-08
-2.75378e-10
-2.03655e-08
2.75291e-10
0.000257497
2.12365e-08
-2.89348e-10
-2.12323e-08
2.89262e-10
0.000254534
2.21322e-08
-2.98787e-10
-2.21278e-08
2.98703e-10
0.000251323
2.30712e-08
-3.13083e-10
-2.30658e-08
3.13e-10
0.000247904
2.40426e-08
-3.23988e-10
-2.4037e-08
3.23908e-10
0.000244306
2.50588e-08
-3.38833e-10
-2.50522e-08
3.38756e-10
0.000240541
2.61117e-08
-3.51187e-10
-2.61049e-08
3.51113e-10
0.000236597
2.72118e-08
-3.6678e-10
-2.72041e-08
3.6671e-10
0.000232433
2.83529e-08
-3.80599e-10
-2.8345e-08
3.80532e-10
0.000228008
2.9544e-08
-3.97135e-10
-2.95352e-08
3.97072e-10
0.000223295
3.07807e-08
-4.12479e-10
-3.07718e-08
4.1242e-10
0.000218291
3.2071e-08
-4.30161e-10
-3.20611e-08
4.30107e-10
0.000213023
3.34116e-08
-4.47134e-10
-3.34017e-08
4.47085e-10
0.000207515
3.48099e-08
-4.66175e-10
-3.47991e-08
4.66131e-10
0.000201798
3.62638e-08
-4.84903e-10
-3.6253e-08
4.84865e-10
0.000195896
3.77801e-08
-5.05511e-10
-3.77684e-08
5.05479e-10
0.000189843
3.93578e-08
-5.26133e-10
-3.9346e-08
5.26108e-10
0.000183685
4.1003e-08
-5.48504e-10
-4.09904e-08
5.48486e-10
0.00017748
4.27157e-08
-5.71156e-10
-4.27032e-08
5.71145e-10
0.000171276
4.45019e-08
-5.95461e-10
-4.44885e-08
5.95459e-10
0.000165088
4.63619e-08
-6.2026e-10
-4.63486e-08
6.20266e-10
0.000158889
4.83016e-08
-6.46644e-10
-4.82874e-08
6.46659e-10
0.000152605
5.0322e-08
-6.73708e-10
-5.03079e-08
6.73732e-10
0.000146134
5.24288e-08
-7.02331e-10
-5.24139e-08
7.02364e-10
0.000139363
5.46235e-08
-7.31829e-10
-5.46088e-08
7.31872e-10
0.000132196
5.69121e-08
-7.62919e-10
-5.68966e-08
7.62973e-10
0.000124539
5.92967e-08
-7.95115e-10
-5.92814e-08
7.9518e-10
0.000116314
6.17835e-08
-8.29007e-10
-6.17675e-08
8.29084e-10
0.000107521
6.43756e-08
-8.64282e-10
-6.43599e-08
8.64371e-10
9.8269e-05
6.70797e-08
-9.01402e-10
-6.70633e-08
9.01504e-10
8.87714e-05
6.98995e-08
-9.40177e-10
-6.98834e-08
9.40292e-10
7.92788e-05
7.28421e-08
-9.809e-10
-7.28253e-08
9.81029e-10
7.00215e-05
7.59117e-08
-1.02345e-09
-7.58953e-08
1.02359e-09
6.12098e-05
7.91154e-08
-1.06793e-09
-7.90983e-08
1.06808e-09
5.30003e-05
8.24576e-08
-1.11428e-09
-8.24409e-08
1.11445e-09
4.53931e-05
8.59448e-08
-1.1624e-09
-8.59274e-08
1.16259e-09
3.81792e-05
8.95813e-08
-1.21242e-09
-8.95645e-08
1.21263e-09
3.10402e-05
9.33736e-08
-1.26407e-09
-9.33561e-08
1.26429e-09
2.37342e-05
9.7326e-08
-1.31769e-09
-9.73091e-08
1.31793e-09
1.62705e-05
1.01444e-07
-1.37277e-09
-1.01427e-07
1.37303e-09
8.89198e-06
1.05733e-07
-1.42989e-09
-1.05716e-07
1.43017e-09
1.93193e-06
1.10198e-07
-1.48815e-09
-1.1018e-07
1.48845e-09
-4.33765e-06
1.14842e-07
-1.54814e-09
-1.14825e-07
1.54845e-09
-9.75235e-06
1.19673e-07
-1.61037e-09
-1.19656e-07
1.6107e-09
-1.42187e-05
1.24698e-07
-1.6752e-09
-1.24681e-07
1.67555e-09
-1.77938e-05
1.29924e-07
-1.74198e-09
-1.29907e-07
1.74235e-09
-2.06913e-05
1.35358e-07
-1.81129e-09
-1.35341e-07
1.81169e-09
-2.31634e-05
1.41004e-07
-1.8821e-09
-1.40987e-07
1.88252e-09
-2.54325e-05
1.4687e-07
-1.95556e-09
-1.46854e-07
1.95599e-09
-2.77116e-05
1.52961e-07
-2.03014e-09
-1.52945e-07
2.0306e-09
-3.02557e-05
1.59284e-07
-2.10769e-09
-1.59268e-07
2.10816e-09
-3.33784e-05
1.65843e-07
-2.18618e-09
-1.65827e-07
2.18668e-09
-3.73888e-05
1.72648e-07
-2.26843e-09
-1.72633e-07
2.26894e-09
-4.25475e-05
1.79704e-07
-2.35185e-09
-1.79688e-07
2.35238e-09
-4.90411e-05
1.87025e-07
-2.44067e-09
-1.87011e-07
2.44121e-09
-5.69406e-05
1.94621e-07
-2.53155e-09
-1.94606e-07
2.53212e-09
-6.62936e-05
2.02512e-07
-2.63061e-09
-2.02498e-07
2.63119e-09
-7.71954e-05
2.10713e-07
-2.73329e-09
-2.10698e-07
2.7339e-09
-8.96133e-05
2.19257e-07
-2.8484e-09
-2.19245e-07
2.84901e-09
-0.000103327
2.28166e-07
-2.96929e-09
-2.28153e-07
2.96993e-09
-0.000118123
2.37491e-07
-3.10839e-09
-2.37479e-07
3.10903e-09
-0.000133978
2.47257e-07
-3.25535e-09
-2.47245e-07
3.25602e-09
-0.000151056
2.57542e-07
-3.42846e-09
-2.57532e-07
3.42912e-09
-0.00016944
2.68378e-07
-3.61175e-09
-2.68367e-07
3.61246e-09
-0.000188872
2.79877e-07
-3.83334e-09
-2.79868e-07
3.83403e-09
-0.000208796
2.92078e-07
-4.06678e-09
-2.92069e-07
4.06752e-09
-0.000228567
3.05143e-07
-4.35511e-09
-3.05135e-07
4.35583e-09
-0.000247699
3.191e-07
-4.65215e-09
-3.19092e-07
4.65293e-09
-0.000265708
3.34178e-07
-5.02653e-09
-3.34173e-07
5.02728e-09
-0.000281724
3.5037e-07
-5.39708e-09
-3.50365e-07
5.3979e-09
-0.000294698
3.67998e-07
-5.87669e-09
-3.67996e-07
5.87747e-09
-0.000304053
3.86961e-07
-6.32098e-09
-3.8696e-07
6.32184e-09
-0.000310142
4.07726e-07
-6.92263e-09
-4.07729e-07
6.92342e-09
-0.000314147
4.30016e-07
-7.43015e-09
-4.30021e-07
7.43105e-09
-0.00031756
4.54556e-07
-8.18071e-09
-4.54564e-07
8.18152e-09
-0.000321502
4.80772e-07
-8.73896e-09
-4.80782e-07
8.73991e-09
-0.000326155
5.09847e-07
-9.69278e-09
-5.09862e-07
9.69361e-09
-0.000330874
5.40694e-07
-1.02827e-08
-5.4071e-07
1.02837e-08
-0.00033474
5.7528e-07
-1.153e-08
-5.75302e-07
1.15309e-08
-0.000336901
6.11575e-07
-1.2099e-08
-6.11598e-07
1.21001e-08
-0.000336759
6.52895e-07
-1.37749e-08
-6.52924e-07
1.37758e-08
-0.000334132
6.95509e-07
-1.42054e-08
-6.9554e-07
1.42065e-08
-0.000329298
7.45066e-07
-1.65209e-08
-7.45103e-07
1.65217e-08
-0.000322547
7.94858e-07
-1.65979e-08
-7.94898e-07
1.65991e-08
-0.000313485
8.54552e-07
-1.98996e-08
-8.54598e-07
1.99004e-08
-0.000301421
9.12309e-07
-1.92573e-08
-9.12376e-07
1.92585e-08
-0.000286557
9.84601e-07
-2.40982e-08
-9.84677e-07
2.4099e-08
-0.000269841
1.05089e-06
-2.21273e-08
-1.05106e-06
2.21285e-08
-0.000252698
1.13897e-06
-2.93566e-08
-1.13918e-06
2.93573e-08
-0.000236627
1.21418e-06
-2.50969e-08
-1.21446e-06
2.50983e-08
-0.000222438
1.32223e-06
-3.6002e-08
-1.32249e-06
3.60027e-08
-0.000209834
1.21336e-06
3.62981e-08
-1.21358e-06
-3.63017e-08
-0.000198393
1.12407e-06
2.97769e-08
-1.12423e-06
-2.9781e-08
-0.000188515
9.96529e-07
4.25231e-08
-9.96643e-07
-4.2527e-08
-0.000181127
8.84146e-07
3.74699e-08
-8.84224e-07
-3.74737e-08
-0.000176049
7.32039e-07
5.07069e-08
-7.32091e-07
-5.07112e-08
-0.000171757
5.8925e-07
4.76017e-08
-5.8928e-07
-4.76053e-08
-0.000167004
4.0577e-07
6.11622e-08
-4.05786e-07
-6.11669e-08
-0.000162832
2.2402e-07
6.05866e-08
-2.24024e-07
-6.05899e-08
-0.000161294
7.39286e-08
2.23833e-09
-7.39338e-08
-2.23116e-09
6.51383e-07
-1.99922e-11
1.98234e-11
1.99067e-06
-5.03723e-11
4.99187e-11
3.3868e-06
-7.67253e-11
7.6145e-11
4.84157e-06
-9.38484e-11
9.31242e-11
6.35679e-06
-1.0351e-10
1.02778e-10
7.93436e-06
-1.09432e-10
1.08634e-10
9.57625e-06
-1.13419e-10
1.12643e-10
1.12846e-05
-1.1644e-10
1.15622e-10
1.30616e-05
-1.18804e-10
1.18012e-10
1.49096e-05
-1.20819e-10
1.19995e-10
1.68311e-05
-1.22516e-10
1.21723e-10
1.88288e-05
-1.2406e-10
1.23242e-10
2.09053e-05
-1.25416e-10
1.24629e-10
2.30636e-05
-1.26699e-10
1.25892e-10
2.53067e-05
-1.27855e-10
1.27081e-10
2.76377e-05
-1.28979e-10
1.28187e-10
3.00598e-05
-1.3001e-10
1.29251e-10
3.25763e-05
-1.3103e-10
1.30258e-10
3.51907e-05
-1.31979e-10
1.3124e-10
3.79064e-05
-1.3293e-10
1.32181e-10
4.07271e-05
-1.33825e-10
1.3311e-10
4.36562e-05
-1.3473e-10
1.34007e-10
4.66976e-05
-1.3559e-10
1.34901e-10
4.98547e-05
-1.36466e-10
1.35772e-10
5.31311e-05
-1.37306e-10
1.36644e-10
5.65306e-05
-1.38165e-10
1.375e-10
6.00565e-05
-1.38995e-10
1.38362e-10
6.37122e-05
-1.39847e-10
1.39213e-10
6.75011e-05
-1.40677e-10
1.40073e-10
7.14262e-05
-1.4153e-10
1.40927e-10
7.54905e-05
-1.42367e-10
1.41793e-10
7.96965e-05
-1.43229e-10
1.42656e-10
8.40468e-05
-1.4408e-10
1.43535e-10
8.85434e-05
-1.44956e-10
1.44414e-10
9.3188e-05
-1.45827e-10
1.45312e-10
9.7982e-05
-1.46725e-10
1.46212e-10
0.000102926
-1.47621e-10
1.47134e-10
0.000108022
-1.48546e-10
1.48063e-10
0.000113268
-1.49474e-10
1.49015e-10
0.000118664
-1.50432e-10
1.49976e-10
0.000124209
-1.51398e-10
1.50964e-10
0.000129901
-1.52394e-10
1.51964e-10
0.000135739
-1.53403e-10
1.52994e-10
0.000141717
-1.54445e-10
1.54039e-10
0.000147834
-1.55503e-10
1.55117e-10
0.000154084
-1.56597e-10
1.56213e-10
0.000160461
-1.57709e-10
1.57345e-10
0.00016696
-1.58861e-10
1.58499e-10
0.000173574
-1.60035e-10
1.59692e-10
0.000180293
-1.61253e-10
1.6091e-10
0.000187111
-1.62495e-10
1.62172e-10
0.000194016
-1.63785e-10
1.63461e-10
0.000200999
-1.65102e-10
1.64799e-10
0.000208048
-1.66473e-10
1.66166e-10
0.000215152
-1.67872e-10
1.67588e-10
0.000222295
-1.69329e-10
1.69042e-10
0.000229466
-1.70818e-10
1.70554e-10
0.00023665
-1.72371e-10
1.72103e-10
0.00024383
-1.73955e-10
1.73714e-10
0.000250991
-1.75609e-10
1.75364e-10
0.000258116
-1.77296e-10
1.77081e-10
0.000265189
-1.79058e-10
1.78839e-10
0.000272191
-1.80853e-10
1.80669e-10
0.000279106
-1.82729e-10
1.82542e-10
0.000285914
-1.84636e-10
1.8449e-10
0.000292598
-1.8663e-10
1.86483e-10
0.00029914
-1.88651e-10
1.88552e-10
0.000305523
-1.90765e-10
1.90669e-10
0.000311728
-1.92904e-10
1.92863e-10
0.000317739
-1.95137e-10
1.95105e-10
0.00032354
-1.97393e-10
1.97424e-10
0.000329115
-1.99745e-10
1.99792e-10
0.000334452
-2.02118e-10
2.02237e-10
0.000339536
-2.04587e-10
2.04729e-10
0.000344356
-2.07076e-10
2.07298e-10
0.000348902
-2.09659e-10
2.09915e-10
0.000353165
-2.12262e-10
2.12608e-10
0.000357138
-2.14957e-10
2.15349e-10
0.000360817
-2.17676e-10
2.18165e-10
0.000364197
-2.20484e-10
2.21031e-10
0.000367276
-2.2332e-10
2.23972e-10
0.000370055
-2.26243e-10
2.26967e-10
0.000372535
-2.29201e-10
2.30036e-10
0.000374719
-2.32244e-10
2.33165e-10
0.000376613
-2.35331e-10
2.3637e-10
0.000378221
-2.38502e-10
2.39641e-10
0.000379553
-2.4173e-10
2.4299e-10
0.000380615
-2.45039e-10
2.46414e-10
0.000381419
-2.4842e-10
2.4992e-10
0.000381974
-2.51881e-10
2.53511e-10
0.000382291
-2.55433e-10
2.57188e-10
0.000382383
-2.59062e-10
2.60962e-10
0.000382262
-2.62801e-10
2.64828e-10
0.00038194
-2.66617e-10
2.68803e-10
0.000381431
-2.70567e-10
2.72878e-10
0.000380747
-2.74594e-10
2.77076e-10
0.000379901
-2.78776e-10
2.81382e-10
0.000378905
-2.83036e-10
2.85826e-10
0.000377773
-2.87479e-10
2.90388e-10
0.000376516
-2.91999e-10
2.95105e-10
0.000375145
-2.96729e-10
2.9995e-10
0.000373672
-3.0154e-10
3.04968e-10
0.000372107
-3.0659e-10
3.10126e-10
0.000370462
-3.11724e-10
3.15476e-10
0.000368744
-3.17126e-10
3.2098e-10
0.000366963
-3.22619e-10
3.26697e-10
0.000365127
-3.28412e-10
3.32583e-10
0.000363244
-3.34301e-10
3.38704e-10
0.00036132
-3.40523e-10
3.45011e-10
0.000359363
-3.4685e-10
3.51576e-10
0.000357378
-3.53546e-10
3.58346e-10
0.000355371
-3.60358e-10
3.65399e-10
0.000353345
-3.67574e-10
3.72679e-10
0.000351306
-3.74919e-10
3.80269e-10
0.000349257
-3.82707e-10
3.88109e-10
0.000347202
-3.9064e-10
3.96288e-10
0.000345142
-3.99054e-10
4.04743e-10
0.000343082
-4.07633e-10
4.13568e-10
0.000341022
-4.16735e-10
4.22698e-10
0.000338966
-4.26025e-10
4.32232e-10
0.000336913
-4.3588e-10
4.42101e-10
0.000334866
-4.45949e-10
4.52412e-10
0.000332825
-4.5663e-10
4.63094e-10
0.000330792
-4.67555e-10
4.74257e-10
0.000328767
-4.7914e-10
4.85828e-10
0.00032675
-4.91003e-10
4.97924e-10
0.000324742
-5.03578e-10
5.10472e-10
0.000322743
-5.16469e-10
5.2359e-10
0.000320754
-5.30128e-10
5.37208e-10
0.000318775
-5.44148e-10
5.51448e-10
0.000316807
-5.58994e-10
5.66239e-10
0.00031485
-5.74249e-10
5.81706e-10
0.000312905
-5.90395e-10
5.97784e-10
0.000310972
-6.07005e-10
6.14598e-10
0.000309052
-6.24575e-10
6.32087e-10
0.000307146
-6.42669e-10
6.50377e-10
0.000305254
-6.61799e-10
6.69413e-10
0.000303378
-6.81519e-10
6.89321e-10
0.000301518
-7.0236e-10
7.10055e-10
0.000299675
-7.23862e-10
7.31736e-10
0.00029785
-7.46579e-10
7.54334e-10
0.000296045
-7.70034e-10
7.7796e-10
0.000294261
-7.94808e-10
8.02602e-10
0.000292498
-8.20403e-10
8.2836e-10
0.00029076
-8.47436e-10
8.55248e-10
0.000289048
-8.75375e-10
8.83343e-10
0.000287364
-9.04888e-10
9.127e-10
0.00028571
-9.35395e-10
9.43356e-10
0.000284089
-9.67636e-10
9.75428e-10
0.000282504
-1.00096e-09
1.00889e-09
0.000280956
-1.03619e-09
1.04395e-09
0.000279448
-1.07259e-09
1.08049e-09
0.000277985
-1.11113e-09
1.11884e-09
0.000276568
-1.15089e-09
1.15874e-09
0.0002752
-1.19307e-09
1.20073e-09
0.000273885
-1.23651e-09
1.24431e-09
0.000272625
-1.28271e-09
1.2903e-09
0.000271422
-1.33016e-09
1.33791e-09
0.000270279
-1.38081e-09
1.38833e-09
0.000269196
-1.43262e-09
1.44031e-09
0.000268174
-1.48819e-09
1.49566e-09
0.000267211
-1.54474e-09
1.55239e-09
0.000266306
-1.60579e-09
1.6132e-09
0.000265455
-1.66745e-09
1.67507e-09
0.000264654
-1.73461e-09
1.74198e-09
0.000263899
-1.80177e-09
1.80937e-09
0.000263185
-1.8758e-09
1.88313e-09
0.000262508
-1.94879e-09
1.9564e-09
0.000261864
-2.03058e-09
2.0379e-09
0.000261251
-2.10973e-09
2.11737e-09
0.000260668
-2.20037e-09
2.2077e-09
0.000260116
-2.28586e-09
2.29357e-09
0.000259598
-2.38672e-09
2.39406e-09
0.000259119
-2.47858e-09
2.48636e-09
0.000258684
-2.59139e-09
2.59877e-09
0.000258297
-2.68936e-09
2.69724e-09
0.000257963
-2.81638e-09
2.82382e-09
0.000257688
-2.91972e-09
2.92766e-09
0.000257472
-3.064e-09
3.07145e-09
0.000257318
-3.1712e-09
3.17885e-09
0.000257227
-3.33692e-09
3.34406e-09
0.000257198
-3.44528e-09
3.45236e-09
0.000257228
-3.63831e-09
3.6449e-09
0.000257313
-3.77649e-09
3.78312e-09
0.000257449
-4.0039e-09
4.01014e-09
0.00025763
-4.1986e-09
4.20501e-09
0.000257854
-4.46804e-09
4.47408e-09
0.000258117
-4.72929e-09
4.73558e-09
0.000258418
-5.04869e-09
5.05461e-09
0.000258756
-5.38729e-09
5.3932e-09
0.000259137
-5.68907e-09
5.69461e-09
0.000259565
-6.03306e-09
6.03835e-09
0.000260044
-6.30913e-09
6.31411e-09
0.000260579
-6.65909e-09
6.66368e-09
0.000261171
-6.90702e-09
6.91139e-09
0.000261821
-7.2654e-09
7.26931e-09
0.000262531
-7.4949e-09
7.49869e-09
0.000263298
-7.86626e-09
7.86971e-09
0.000264119
-8.13664e-09
8.14004e-09
0.000264986
-8.52576e-09
8.52888e-09
0.000265884
-8.83722e-09
8.84029e-09
0.000266794
-9.24865e-09
9.25147e-09
0.000267694
-9.60191e-09
9.60465e-09
0.000268555
-1.004e-08
1.00425e-08
0.00026935
-1.04362e-08
1.04386e-08
0.000270049
-1.09051e-08
1.09074e-08
0.000270629
-1.13459e-08
1.13479e-08
0.000271071
-1.18498e-08
1.18517e-08
0.000271368
-1.23369e-08
1.23385e-08
0.00027152
-1.288e-08
1.28814e-08
0.000271524
-1.34158e-08
1.34169e-08
0.000271376
-1.4002e-08
1.4003e-08
0.000271062
-1.45892e-08
1.45897e-08
0.000270567
-1.52228e-08
1.52232e-08
0.00026987
-1.58642e-08
1.58641e-08
0.000268946
-1.65493e-08
1.65491e-08
0.000267774
-1.72483e-08
1.72475e-08
0.000266332
-1.79893e-08
1.79885e-08
0.000264595
-1.87495e-08
1.8748e-08
0.000262547
-1.95512e-08
1.95496e-08
0.000260178
-2.03769e-08
2.03746e-08
0.000257499
-2.12442e-08
2.12419e-08
0.000254535
-2.21401e-08
2.21371e-08
0.000251324
-2.30787e-08
2.30756e-08
0.000247905
-2.40502e-08
2.40463e-08
0.000244308
-2.50659e-08
2.5062e-08
0.000240542
-2.6119e-08
2.61144e-08
0.000236598
-2.72186e-08
2.72139e-08
0.000232434
-2.836e-08
2.83545e-08
0.000228009
-2.95506e-08
2.95452e-08
0.000223295
-3.07876e-08
3.07814e-08
0.000218292
-3.20774e-08
3.20711e-08
0.000213023
-3.34183e-08
3.34113e-08
0.000207516
-3.48161e-08
3.48091e-08
0.000201798
-3.62704e-08
3.62626e-08
0.000195895
-3.77862e-08
3.77785e-08
0.000189842
-3.93641e-08
3.93557e-08
0.000183685
-4.10089e-08
4.10006e-08
0.000177479
-4.2722e-08
4.27129e-08
0.000171275
-4.45076e-08
4.44987e-08
0.000165087
-4.6368e-08
4.63584e-08
0.000158887
-4.83072e-08
4.82978e-08
0.000152603
-5.0328e-08
5.03178e-08
0.000146131
-5.24343e-08
5.24243e-08
0.00013936
-5.46294e-08
5.46188e-08
0.000132193
-5.69175e-08
5.69072e-08
0.000124535
-5.93025e-08
5.92916e-08
0.00011631
-6.17889e-08
6.17783e-08
0.000107516
-6.43815e-08
6.43703e-08
9.82638e-05
-6.70851e-08
6.70742e-08
8.87659e-05
-6.99053e-08
6.9894e-08
7.9273e-05
-7.28475e-08
7.28365e-08
7.00155e-05
-7.59176e-08
7.59062e-08
6.12036e-05
-7.91208e-08
7.91099e-08
5.2994e-05
-8.24635e-08
8.24522e-08
4.53867e-05
-8.59502e-08
8.59394e-08
3.81729e-05