/*--------------------------------*- C++ -*----------------------------------*\
| =========                 |                                                 |
| \\      /  F ield         | OpenFOAM: The Open Source CFD Toolbox           |
|  \\    /   O peration     | Version:  2012                                  |
|   \\  /    A nd           | Website:  www.openfoam.com                      |
|    \\/     M anipulation  |                                                 |
\*---------------------------------------------------------------------------*/
FoamFile
{
    version     2.0;
    format      ascii;
    class       volTensorField;
    location    "14000";
    object      grad(U);
}
// * * * * * * * * * * * * * * * * * * * * * * * * * * * * * * * * * * * * * //

dimensions      [0 0 -1 0 0 0 0];


internalField   nonuniform List<tensor> 
2560
(
(0 2.0789e-30 6.49658e-32 32.2793 -9.20021e-12 -3.1561e-13 0.0467286 -6.65682e-15 -1.43125e-16)
(-9.14312e-18 -4.2211e-28 -3.24829e-32 32.2793 0 -8.80192e-18 0.0467286 -1.05527e-28 5.42901e-17)
(0 -6.51237e-25 -1.49357e-26 32.2745 3.14056e-32 -4.39227e-14 0.140851 0 -1.29007e-16)
(0 -8.19643e-30 -1.28069e-31 32.2745 -4.55838e-15 -1.48067e-17 0.140851 -8.76946e-18 1.3679e-16)
(2.9616e-17 -9.65306e-30 -5.21129e-32 32.2697 1.2142e-12 -2.12994e-14 0.193701 -8.96303e-15 -1.24838e-16)
(-3.55316e-17 2.01974e-29 2.52467e-31 32.2697 -3.82847e-15 -1.75545e-17 0.193701 -1.36284e-17 1.40823e-16)
(1.89696e-17 -1.07215e-29 -3.24516e-31 32.2648 4.98922e-13 -2.14889e-14 0.196489 -5.48444e-15 -1.35095e-16)
(0 7.96317e-30 2.48849e-31 32.2648 -4.6999e-15 -1.26485e-17 0.196489 -2.15612e-17 1.45034e-16)
(6.90408e-17 -1.96226e-29 -7.35847e-31 32.26 -5.19953e-15 -2.26197e-14 0.199316 -5.84727e-16 -1.4247e-16)
(-6.90408e-17 1.96226e-29 6.13206e-31 32.26 -4.72442e-15 -1.24664e-17 0.199316 -2.97868e-17 1.49419e-16)
(1.13695e-16 -8.28104e-28 -5.65021e-31 32.2551 -5.08135e-14 -2.32615e-14 0.202183 -1.58119e-16 -1.47099e-16)
(2.97098e-16 1.16048e-29 6.04417e-31 32.2551 -4.71772e-15 -1.2169e-17 0.202183 -3.82097e-17 1.53982e-16)
(7.48826e-17 -3.82756e-28 -2.72421e-31 32.2502 -1.11725e-27 -2.36365e-14 0.205092 0 -1.51413e-16)
(1.02925e-16 1.14385e-29 5.95754e-31 32.2502 -4.73521e-15 -1.23662e-17 0.205092 -4.68732e-17 1.58732e-16)
(-7.3091e-17 1.10372e-29 6.75858e-31 32.2453 9.69386e-15 -2.39972e-14 0.208043 -4.96868e-17 -1.56063e-16)
(1.60135e-16 -3.75818e-30 -3.52329e-31 32.2453 -4.77689e-15 -1.26302e-17 0.208043 -5.54558e-17 1.63668e-16)
(8.71116e-17 -7.2196e-30 -4.39625e-31 32.2403 1.032e-14 -2.43906e-14 0.211035 -7.46874e-17 -1.61e-16)
(0 3.70431e-30 4.63039e-31 32.2403 -4.87819e-15 -1.19187e-17 0.211035 -6.45365e-17 1.68809e-16)
(0 7.30244e-30 4.56403e-31 32.2353 8.83662e-15 -2.4805e-14 0.21407 -5.93395e-17 -1.66138e-16)
(-1.28466e-16 -3.65122e-30 -2.28201e-31 32.2353 -5.01976e-15 -1.25428e-17 0.21407 -7.39245e-17 1.7416e-16)
(-1.15761e-16 -7.28186e-30 -5.74686e-31 32.2301 8.6744e-15 -2.52311e-14 0.217147 -5.71724e-17 -1.71459e-16)
(0 1.43956e-29 8.99723e-31 32.2301 -5.08949e-15 -1.28838e-17 0.217147 -8.36076e-17 1.79722e-16)
(1.30395e-16 -2.83443e-29 -1.21271e-30 32.2247 8.65641e-15 -2.5666e-14 0.220267 -5.88916e-17 -1.7695e-16)
(0 2.12839e-29 8.86827e-31 32.2247 -5.05545e-15 -1.20415e-17 0.220267 -9.3615e-17 1.85518e-16)
(0 -6.99293e-30 -4.37058e-31 32.2192 8.49846e-15 -2.61079e-14 0.223431 -5.86012e-17 -1.8261e-16)
(0 6.99293e-30 4.37058e-31 32.2192 -5.10744e-15 -1.35114e-17 0.223431 -1.036e-16 1.91546e-16)
(-1.60299e-16 1.38494e-29 5.43521e-31 32.2132 8.55244e-15 -2.65543e-14 0.226637 -5.8426e-17 -1.88415e-16)
(6.41197e-16 -6.89271e-30 -2.15397e-31 32.2132 -5.36165e-15 -1.73322e-17 0.226637 -1.14322e-16 1.97799e-16)
(0 2.37787e-29 1.06155e-30 32.2069 8.82489e-15 -2.70027e-14 0.229885 -6.10773e-17 -1.94361e-16)
(0 -2.37787e-29 -1.06155e-30 32.2069 -5.51141e-15 -1.97148e-17 0.229885 -1.25898e-16 2.04286e-16)
(-1.9107e-16 1.58168e-31 1.21861e-31 32.1999 9.06407e-15 -2.74514e-14 0.233175 -6.40273e-17 -2.00435e-16)
(7.64278e-16 3.34827e-30 0 32.1999 -5.47576e-15 -1.7035e-17 0.233175 -1.37281e-16 2.11038e-16)
(0 2.3102e-29 1.03134e-30 32.1922 9.09193e-15 -2.78995e-14 0.236505 -6.63309e-17 -2.0664e-16)
(-8.27148e-16 -2.3102e-29 -1.03134e-30 32.1922 -5.52453e-15 -1.20082e-17 0.236505 -1.48675e-16 2.18072e-16)
(-2.28908e-16 2.60238e-29 1.21987e-30 32.1834 8.91542e-15 -2.83466e-14 0.239875 -6.63123e-17 -2.12971e-16)
(-6.62013e-16 -2.60238e-29 -1.21987e-30 32.1834 -5.45604e-15 -1.07572e-17 0.239875 -1.60928e-16 2.25381e-16)
(2.25627e-16 -3.20636e-30 -6.01192e-31 32.1734 9.09972e-15 -2.87909e-14 0.243281 -6.56424e-17 -2.19413e-16)
(0 3.20636e-30 6.01192e-31 32.1734 -5.52088e-15 -1.41863e-17 0.243281 -1.72258e-16 2.32963e-16)
(2.55306e-16 1.23033e-29 8.45584e-31 32.1617 9.5816e-15 -2.92286e-14 0.246722 -7.10424e-17 -2.25928e-16)
(-1.02122e-15 -2.21228e-29 -1.38268e-30 32.1617 -5.75029e-15 -1.66846e-17 0.246722 -1.84371e-16 2.40833e-16)
(0 2.18057e-29 1.75225e-30 32.1479 9.64968e-15 -2.96572e-14 0.250194 -7.49601e-17 -2.32513e-16)
(0 -2.18057e-29 -1.75225e-30 32.1479 -5.60977e-15 -1.65458e-17 0.250194 -1.97278e-16 2.48998e-16)
(-2.88819e-16 -2.64645e-30 -4.22532e-31 32.1317 9.49371e-15 -3.00743e-14 0.253692 -7.41833e-17 -2.39134e-16)
(0 9.21137e-30 7.67614e-31 32.1317 -5.49312e-15 -1.58126e-17 0.253692 -2.10179e-16 2.57459e-16)
(1.20001e-16 -2.97984e-29 -2.29996e-30 32.1123 9.53578e-15 -3.04758e-14 0.257212 -7.46924e-17 -2.45759e-16)
(0 3.02645e-29 2.45899e-30 32.1123 -5.78818e-15 -1.22918e-17 0.257212 -2.23832e-16 2.66208e-16)
(0 1.49154e-29 1.11865e-30 32.0892 9.80364e-15 -3.08572e-14 0.260748 -7.70305e-17 -2.52338e-16)
(-1.29316e-15 -2.38646e-29 -1.49154e-30 32.0892 -6.02192e-15 -7.15164e-18 0.260748 -2.38741e-16 2.75294e-16)
(-4.86734e-16 2.00348e-29 9.31289e-31 32.0615 1.00566e-14 -3.12124e-14 0.26429 -8.12354e-17 -2.58818e-16)
(8.27626e-16 -2.35225e-29 -1.10262e-30 32.0615 -6.00749e-15 -8.35195e-18 0.26429 -2.53704e-16 2.8472e-16)
(-7.17479e-16 3.01563e-29 2.16695e-30 32.0283 1.01639e-14 -3.15357e-14 0.267831 -8.34591e-17 -2.6514e-16)
(0 -2.31854e-29 -1.81136e-30 32.0283 -5.99283e-15 -1.95975e-17 0.267831 -2.68561e-16 2.94444e-16)
(1.1305e-15 -4.75858e-29 -2.69588e-30 31.9888 1.01959e-14 -3.18228e-14 0.271361 -8.54101e-17 -2.71273e-16)
(3.01468e-15 3.71363e-29 2.49956e-30 31.9888 -6.01048e-15 -3.40353e-17 0.271361 -2.84186e-16 3.04429e-16)
(3.96274e-16 -1.40785e-29 -2.11177e-30 31.9416 1.05386e-14 -3.20662e-14 0.274865 -8.64479e-17 -2.771e-16)
(1.18444e-15 1.97099e-29 2.46373e-30 31.9416 -6.18128e-15 -3.35526e-17 0.274865 -2.99924e-16 3.14693e-16)
(4.13769e-16 2.07318e-30 8.42272e-31 31.8857 1.10506e-14 -3.22553e-14 0.278332 -9.38151e-17 -2.82523e-16)
(0 0 -3.46917e-31 31.8857 -6.39085e-15 -1.38904e-17 0.278332 -3.16163e-16 3.25304e-16)
(-8.65217e-16 6.94897e-30 4.11645e-31 31.8195 1.11255e-14 -3.23837e-14 0.281744 -9.79262e-17 -2.87494e-16)
(-3.46087e-15 0 0 31.8195 -6.47888e-15 5.64375e-19 0.281744 -3.33471e-16 3.36276e-16)
(-4.51695e-16 3.47214e-30 1.22453e-30 31.7416 1.1166e-14 -3.2445e-14 0.285084 -9.78921e-17 -2.91901e-16)
(-2.56574e-15 0 -6.74088e-31 31.7416 -6.67898e-15 -8.58344e-18 0.285084 -3.51994e-16 3.47572e-16)
(0 2.12617e-29 2.98992e-30 31.6505 1.10055e-14 -3.24298e-14 0.288334 -1.01523e-16 -2.95639e-16)
(-1.8841e-15 -2.12617e-29 -2.98992e-30 31.6505 -6.63719e-15 -2.35038e-17 0.288334 -3.7066e-16 3.59038e-16)
(0 -2.61962e-29 -2.61962e-30 31.5443 1.04829e-14 -3.23311e-14 0.291471 -9.78298e-17 -2.98624e-16)
(1.96239e-15 2.61962e-29 2.61962e-30 31.5443 -6.12109e-15 -2.63811e-17 0.291471 -3.88681e-16 3.70691e-16)
(-5.10406e-16 3.46513e-30 -4.07015e-31 31.4215 1.04424e-14 -3.21395e-14 0.294472 -9.48233e-17 -3.00701e-16)
(0 0 9.68276e-31 31.4215 -5.95712e-15 -2.45928e-17 0.294472 -4.07157e-16 3.82574e-16)
(-5.30444e-16 2.38223e-29 2.15633e-30 31.2801 1.08721e-14 -3.18478e-14 0.297315 -9.99342e-17 -3.01813e-16)
(0 -2.03605e-29 -1.9088e-30 31.2801 -6.2376e-15 -1.12694e-17 0.297315 -4.2416e-16 3.94668e-16)
(-5.50706e-16 1.85099e-29 2.13821e-30 31.1186 1.10583e-14 -3.14511e-14 0.299974 -1.05791e-16 -3.0184e-16)
(-2.20282e-15 -1.00343e-29 -1.25429e-30 31.1186 -6.36659e-15 -8.27564e-19 0.299974 -4.41739e-16 4.06953e-16)
(5.71181e-16 -8.40085e-30 -1.19344e-30 30.935 1.121e-14 -3.09446e-14 0.302425 -1.0646e-16 -3.0072e-16)
(0 4.94526e-30 9.27237e-31 30.935 -6.3498e-15 -1.35018e-17 0.302425 -4.60876e-16 4.19308e-16)
(5.91858e-16 -1.32007e-29 -1.79905e-30 30.7279 1.15029e-14 -3.0326e-14 0.30464 -1.11866e-16 -2.98372e-16)
(0 9.74877e-30 1.52324e-30 30.7279 -6.69759e-15 -2.24149e-17 0.30464 -4.80976e-16 4.31646e-16)
(-6.12725e-16 8.253e-30 8.861e-31 30.4958 1.17464e-14 -2.95951e-14 0.306598 -1.15406e-16 -2.94773e-16)
(0 0 0 30.4958 -7.23602e-15 -2.2904e-17 0.306598 -5.03746e-16 4.441e-16)
(0 9.47132e-30 5.91957e-31 30.2375 1.2012e-14 -2.87536e-14 0.308274 -1.20059e-16 -2.89878e-16)
(0 -1.89426e-29 -1.77587e-30 30.2375 -7.03144e-15 -2.47948e-17 0.308274 -5.26597e-16 4.56514e-16)
(-6.54967e-16 1.27764e-29 8.88689e-31 29.952 1.21505e-14 -2.78047e-14 0.309646 -1.24227e-16 -2.8369e-16)
(2.61987e-15 -4.66779e-30 0 29.952 -6.56386e-15 -3.35313e-17 0.309646 -5.47264e-16 4.68824e-16)
(0 -2.76053e-29 -3.45066e-30 29.6386 1.23482e-14 -2.6758e-14 0.310698 -1.26453e-16 -2.76302e-16)
(2.70523e-15 2.76053e-29 3.45066e-30 29.6386 -7.14199e-15 -3.31404e-17 0.310698 -5.69407e-16 4.80898e-16)
(6.97767e-16 5.63627e-30 8.08966e-31 29.2972 1.25913e-14 -2.56263e-14 0.311413 -1.32036e-16 -2.67795e-16)
(-2.79107e-15 -1.81398e-29 -2.26747e-30 29.2972 -7.67877e-15 -1.90693e-17 0.311413 -5.943e-16 4.92921e-16)
(7.19325e-16 -1.23699e-29 -2.01071e-30 28.9276 1.28878e-14 -2.44171e-14 0.311781 -1.35355e-16 -2.58156e-16)
(0 8.93989e-30 1.67623e-30 28.9276 -7.86508e-15 -2.14097e-17 0.311781 -6.15975e-16 5.04835e-16)
(-7.40957e-16 -9.80521e-31 -7.57425e-31 28.5305 1.31603e-14 -2.31414e-14 0.311793 -1.42339e-16 -2.47554e-16)
(0 8.81176e-30 1.6522e-30 28.5305 -8.27366e-15 -3.77184e-17 0.311793 -6.45194e-16 5.16407e-16)
(7.6264e-16 9.60698e-30 7.23946e-31 28.1067 1.32345e-14 -1.91357e-14 0.311447 -1.45319e-16 -1.7625e-16)
(1.82819e-15 -4.34273e-30 -5.42841e-31 28.1067 -8.27412e-15 -5.92864e-17 0.311447 -6.73387e-16 5.27657e-16)
(1.20485e-15 -8.56098e-30 -2.14024e-30 27.6573 1.31694e-14 -1.49597e-14 0.310745 -1.48166e-16 -1.60176e-16)
(3.13739e-15 8.56098e-30 2.67531e-30 27.6573 -8.69851e-15 -6.2597e-17 0.310745 -7.0005e-16 5.38573e-16)
(-8.06057e-16 3.41364e-30 3.7607e-31 27.1842 1.30392e-14 -1.34727e-14 0.309692 -1.481e-16 -1.47228e-16)
(0 4.21914e-30 1.05478e-30 27.1842 -9.12467e-15 -5.62533e-17 0.309692 -7.32737e-16 5.49174e-16)
(-8.27739e-16 3.41005e-30 3.82389e-31 26.6891 1.29614e-14 -1.21693e-14 0.3083 -1.49514e-16 -1.34467e-16)
(0 4.15867e-30 1.03967e-30 26.6891 -8.76647e-15 -5.44314e-17 0.3083 -7.61691e-16 5.59526e-16)
(1.15378e-15 -4.09906e-30 -1.53715e-30 26.1743 1.24574e-14 -1.14629e-14 0.306582 -1.50624e-16 -1.34825e-16)
(0 4.09906e-30 1.53715e-30 26.1743 -7.39642e-15 -2.02595e-17 0.306582 -7.87469e-16 5.69671e-16)
(-2.00817e-15 7.44533e-30 -6.2213e-31 25.6421 1.217e-14 -1.21851e-14 0.304556 -1.41967e-16 -1.55745e-16)
(0 4.04031e-30 2.02016e-30 25.6421 -6.38851e-15 -1.19321e-18 0.304556 -8.0913e-16 5.7969e-16)
(-1.12095e-15 2.78768e-29 2.489e-30 25.0953 1.22445e-14 -1.23804e-14 0.302243 -1.48136e-16 -1.43531e-16)
(-2.44857e-15 -2.38944e-29 -1.9912e-30 25.0953 -6.44236e-15 -1.17541e-17 0.302243 -8.3567e-16 5.89201e-16)
(-9.13709e-16 -1.62294e-29 -2.54422e-30 24.5363 1.17278e-14 -1.12326e-14 0.299665 -1.47942e-16 -1.31945e-16)
(3.65484e-15 2.3552e-29 3.43466e-30 24.5363 -6.05316e-15 -2.02363e-17 0.299665 -8.64265e-16 5.98222e-16)
(0 2.32144e-29 2.41817e-30 23.9679 1.10191e-14 -1.01758e-14 0.296847 -1.39706e-16 -1.21242e-16)
(0 -2.32144e-29 -2.41817e-30 23.9679 -6.11064e-15 -4.23974e-17 0.296847 -8.86225e-16 6.06865e-16)
(-9.55912e-16 1.10198e-29 2.31503e-30 23.3927 1.07249e-14 -9.17805e-15 0.293813 -1.3451e-16 -1.10432e-16)
(3.82365e-15 -7.62723e-30 -1.90681e-30 23.3927 -5.58534e-15 -3.51778e-17 0.293813 -9.07672e-16 6.15096e-16)
(1.95349e-15 -1.80547e-29 -3.17295e-30 22.8133 1.06614e-14 -8.25931e-15 0.290591 -1.36315e-16 -1.01086e-16)
(3.90699e-15 1.12769e-29 2.34935e-30 22.8133 -4.82059e-15 -8.68828e-18 0.290591 -9.26843e-16 6.23113e-16)
(2.08577e-15 -7.41016e-30 -1.3894e-30 22.2321 1.07022e-14 -7.4682e-15 0.287206 -1.36811e-16 -9.29566e-17)
(0 7.41016e-30 1.85254e-30 22.2321 -5.94576e-15 -2.26011e-18 0.287206 -9.48545e-16 6.30904e-16)
(-1.0178e-15 -7.57467e-30 -4.95077e-31 21.6515 1.08603e-14 -6.75688e-15 0.283682 -1.41377e-16 -8.51547e-17)
(0 1.46079e-29 1.82599e-30 21.6515 -6.54394e-15 -2.57452e-17 0.283682 -9.79339e-16 6.38303e-16)
(-2.07597e-15 1.3953e-29 3.54092e-30 21.0735 1.08811e-14 -6.0826e-15 0.280045 -1.45018e-16 -7.75104e-17)
(4.15195e-15 -1.43985e-29 -3.14968e-30 21.0735 -6.2273e-15 -5.94616e-17 0.280045 -1.00927e-15 6.45151e-16)
(-1.05794e-15 1.04691e-29 -2.06477e-32 20.5002 1.09115e-14 -5.48957e-15 0.276317 -1.46079e-16 -7.14368e-17)
(0 0 1.33052e-30 20.5002 -5.8794e-15 -5.87245e-17 0.276317 -1.04143e-15 6.51919e-16)
(-1.07764e-15 3.36855e-30 -1.22716e-32 19.9331 1.11875e-14 -4.98848e-15 0.272521 -1.50097e-16 -6.58831e-17)
(4.31055e-15 6.99438e-30 1.31145e-30 19.9331 -5.23907e-15 -5.26296e-17 0.272521 -1.06983e-15 6.58433e-16)
(-2.06734e-15 6.81013e-30 1.2884e-30 19.3738 1.18013e-14 -4.54763e-15 0.268675 -1.58011e-16 -6.11244e-17)
(0 0 0 19.3738 -6.88508e-15 -4.63897e-17 0.268675 -1.08964e-15 6.64755e-16)
(-2.23252e-15 1.69057e-29 2.9798e-30 18.8237 1.16291e-14 -4.17529e-15 0.264799 -1.71768e-16 -5.71834e-17)
(-4.46505e-15 -1.0193e-29 -2.12354e-30 18.8237 -7.15445e-15 -3.47777e-17 0.264799 -1.1248e-15 6.70845e-16)
(-1.3277e-15 -1.33858e-29 -2.49018e-30 18.2838 1.07596e-14 -3.88284e-15 0.260909 -1.57723e-16 -5.44446e-17)
(8.13876e-15 1.67448e-29 2.51172e-30 18.2838 -5.35302e-15 -4.0282e-17 0.260909 -1.14949e-15 6.77135e-16)
(-3.46146e-15 3.31603e-29 4.59254e-30 17.7551 1.05779e-14 -3.65421e-15 0.257019 -1.51616e-16 -5.21401e-17)
(-4.61528e-15 -2.31067e-29 -3.30096e-30 17.7551 -5.875e-15 -3.42095e-17 0.257019 -1.17211e-15 6.83397e-16)
(-1.17219e-15 -1.29217e-29 -2.00872e-30 17.2383 1.07777e-14 -3.46132e-15 0.253144 -1.57003e-16 -5.02891e-17)
(4.68877e-15 1.95219e-29 2.44024e-30 17.2383 -5.88307e-15 -3.2286e-17 0.253144 -1.20655e-15 6.89563e-16)
(1.19029e-15 -1.29628e-29 -2.83828e-30 16.734 1.07598e-14 -3.29231e-15 0.249295 -1.62013e-16 -4.85559e-17)
(0 9.62106e-30 2.40526e-30 16.734 -5.90275e-15 -4.45506e-17 0.249295 -1.23171e-15 6.95862e-16)
(0 -2.52884e-29 -3.16105e-30 16.2426 1.06573e-14 -3.17474e-15 0.245482 -1.61062e-16 -4.81548e-17)
(4.83247e-15 2.52884e-29 3.16105e-30 16.2426 -6.3827e-15 -7.50132e-17 0.245482 -1.25968e-15 7.01903e-16)
(0 -6.2315e-30 -1.55787e-30 15.7645 1.12093e-14 -3.14532e-15 0.241713 -1.63614e-16 -4.90623e-17)
(4.9027e-15 6.2315e-30 1.55787e-30 15.7645 -5.69186e-15 -8.3621e-17 0.241713 -1.29139e-15 7.07984e-16)
(0 9.21327e-30 3.07109e-30 15.2998 1.16902e-14 -3.11593e-15 0.237997 -1.82964e-16 -4.86371e-17)
(4.97185e-15 0 -1.53555e-30 15.2998 -5.50205e-15 -5.01647e-17 0.237997 -1.31962e-15 7.1457e-16)
(0 2.11895e-29 3.78384e-30 14.8486 1.09667e-14 -3.0992e-15 0.234338 -1.83596e-16 -4.99634e-17)
(0 -2.11895e-29 -3.78384e-30 14.8486 -6.21183e-15 -2.0519e-17 0.234338 -1.34852e-15 7.21126e-16)
(-2.55349e-15 6.63498e-30 8.80575e-31 14.4111 1.02283e-14 -3.11371e-15 0.230743 -1.6514e-16 -5.05335e-17)
(0 0 0 14.4111 -6.39847e-15 -2.74656e-17 0.230743 -1.38383e-15 7.27901e-16)
(0 -2.94092e-29 -4.41139e-30 13.987 1.05654e-14 -3.14924e-15 0.227215 -1.6497e-16 -5.25989e-17)
(5.17298e-15 2.94092e-29 4.41139e-30 13.987 -5.77439e-15 -8.10227e-17 0.227215 -1.41559e-15 7.34416e-16)
(0 5.79755e-30 1.44939e-30 13.5762 1.06506e-14 -3.22146e-15 0.223758 -1.81095e-16 -5.44305e-17)
(5.23797e-15 0 0 13.5762 -5.80887e-15 -9.93478e-17 0.223758 -1.44124e-15 7.40885e-16)
(-1.32549e-15 6.15738e-30 1.15849e-30 13.1786 1.02217e-14 -3.29958e-15 0.220374 -1.72654e-16 -5.67916e-17)
(0 0 0 13.1786 -6.42286e-15 -5.68223e-17 0.220374 -1.47269e-15 7.47693e-16)
(1.34124e-15 -4.80109e-31 9.62402e-31 12.794 9.8519e-15 -3.36224e-15 0.217065 -1.7184e-16 -5.8183e-17)
(0 0 -7.04069e-31 12.794 -6.03097e-15 -3.17675e-17 0.217065 -1.50583e-15 7.5536e-16)
(0 -5.55182e-30 -1.38796e-30 12.422 8.46403e-15 -3.4062e-15 0.213832 -1.64974e-16 -5.99911e-17)
(0 5.55182e-30 2.08193e-30 12.422 -5.51254e-15 -4.86199e-17 0.213832 -1.5305e-15 7.63199e-16)
(0 -8.20838e-30 -2.05209e-30 12.0624 7.19727e-15 -3.51617e-15 0.210676 -1.28379e-16 -6.3786e-17)
(0 8.20838e-30 2.73613e-30 12.0624 -5.78358e-15 -5.62873e-17 0.210676 -1.56154e-15 7.71043e-16)
(-1.25592e-15 1.18986e-30 -4.48538e-31 11.7149 8.49216e-15 -3.70588e-15 0.207597 -1.249e-16 -6.85715e-17)
(0 5.39382e-30 1.34845e-30 11.7149 -6.01846e-15 -1.05366e-16 0.207597 -1.5962e-15 7.7964e-16)
(-1.40189e-15 8.59511e-30 3.11026e-30 11.3791 1.04411e-14 -3.79792e-15 0.204595 -1.78711e-16 -6.9013e-17)
(0 -5.31651e-30 -2.65826e-30 11.3791 -6.19797e-15 -6.94575e-17 0.204595 -1.62904e-15 7.88192e-16)
(1.41649e-15 1.97108e-30 -4.5374e-31 11.0547 9.70631e-15 -3.82374e-15 0.201669 -1.99673e-16 -7.15359e-17)
(-7.14099e-15 0 0 11.0547 -6.09201e-15 9.34981e-17 0.201669 -1.66266e-15 7.98154e-16)
(1.45388e-15 -5.16521e-30 -6.45651e-31 10.7414 7.74141e-15 -3.99042e-15 0.19882 -1.56746e-16 -7.72947e-17)
(-5.72353e-15 5.16521e-30 1.2913e-30 10.7414 -4.65742e-15 3.35696e-17 0.19882 -1.69782e-15 8.09212e-16)
(-1.44506e-15 1.3453e-29 3.00251e-30 10.4388 7.9438e-15 -4.18207e-15 0.196046 -1.31724e-16 -8.09344e-17)
(1.01275e-14 -5.09117e-30 -1.90919e-30 10.4388 -3.82591e-15 -1.64378e-16 0.196046 -1.72176e-15 8.18608e-16)
(1.45904e-15 1.75729e-30 2.05009e-30 10.1465 9.71171e-15 -4.28844e-15 0.193345 -1.69049e-16 -8.36707e-17)
(5.83617e-15 -1.50546e-29 -3.76365e-30 10.1465 -5.89212e-15 -1.99404e-16 0.193345 -1.75227e-15 8.28422e-16)
(0 0 0 9.8642 8.6131e-15 -4.37835e-15 0.190717 -2.03927e-16 -8.68316e-17)
(0 4.94628e-30 6.18285e-31 9.8642 -5.31992e-15 -9.04445e-17 0.190717 -1.81143e-15 8.38881e-16)
(-1.48641e-15 -1.13704e-29 -2.58414e-30 9.59156 5.67153e-15 -4.51889e-15 0.188161 -1.30914e-16 -9.1714e-17)
(5.94565e-15 1.95016e-29 3.65654e-30 9.59156 -2.34662e-15 3.89541e-17 0.188161 -1.83409e-15 8.5113e-16)
(-4.20508e-15 8.06419e-30 1.66662e-30 9.32824 5.79569e-15 -4.63042e-15 0.185674 -9.28544e-17 -9.38776e-17)
(-5.99925e-15 0 0 9.32824 -2.79207e-15 6.54774e-17 0.185674 -1.84693e-15 8.63292e-16)
(1.51303e-15 -1.27235e-29 -2.24328e-30 9.07388 6.7807e-15 -4.77701e-15 0.183255 -1.39761e-16 -1.00404e-16)
(6.05213e-15 9.47327e-30 1.77624e-30 9.07388 -3.38243e-15 -7.45714e-17 0.183255 -1.86501e-15 8.75441e-16)
(-1.52607e-15 2.65922e-29 3.38752e-30 8.82817 6.44408e-15 -4.95683e-15 0.180903 -1.35917e-16 -1.04099e-16)
(6.1043e-15 -2.33437e-29 -2.91797e-30 8.82817 -3.19389e-15 -1.42613e-16 0.180903 -1.86991e-15 8.87181e-16)
(-1.53894e-15 -1.35538e-30 4.72057e-31 8.59078 6.40876e-15 -5.07001e-15 0.178616 -1.29868e-16 -1.08117e-16)
(0 4.60183e-30 0 8.59078 -4.02552e-15 -4.71395e-17 0.178616 -1.90011e-15 8.99859e-16)
(-1.55165e-15 3.24237e-30 4.74813e-31 8.3614 6.27265e-15 -5.17723e-15 0.176392 -1.38409e-16 -1.11734e-16)
(0 4.53588e-30 5.66985e-31 8.3614 -3.95045e-15 -5.40145e-17 0.176392 -1.92864e-15 9.1337e-16)
(-1.56419e-15 -1.0172e-29 -2.31706e-30 8.13973 6.42184e-15 -5.3297e-15 0.17423 -1.27851e-16 -1.179e-16)
(6.25675e-15 1.34126e-29 3.35315e-30 8.13973 -2.72532e-15 -1.01133e-16 0.17423 -1.94404e-15 9.26252e-16)
(1.57657e-15 -1.20475e-29 -2.13307e-30 7.92548 6.19757e-15 -5.42844e-15 0.172128 -1.48937e-16 -1.19354e-16)
(0 8.81357e-30 1.65255e-30 7.92548 -1.9455e-15 -1.602e-17 0.172128 -1.95273e-15 9.40207e-16)
(0 -8.68725e-30 -5.27719e-29 7.71836 5.30415e-15 -4.6361e-29 0.170084 -1.21723e-16 0)
(0 8.68725e-30 2.17181e-30 7.71836 -3.09839e-15 8.27787e-17 0.170084 -1.95353e-15 9.56796e-16)
(-1.60087e-15 -1.0473e-30 -5.74792e-31 7.5181 5.18331e-15 2.36465e-15 0.168096 -1.13399e-16 -2.73359e-17)
(0 8.56274e-30 2.14069e-30 7.5181 -3.5229e-15 -8.14333e-19 0.168096 -1.98026e-15 9.73316e-16)
(2.37565e-15 -2.95401e-29 -5.80251e-30 7.32443 6.14346e-15 3.33734e-15 0.166163 -1.19813e-16 -7.94114e-17)
(1.29024e-14 3.37601e-29 6.33001e-30 7.32443 -1.68937e-15 -2.0179e-16 0.166163 -2.00176e-15 9.88645e-16)
(0 0 0 7.13712 7.77604e-15 2.9117e-15 0.164284 -1.60858e-16 -7.28509e-17)
(6.49839e-15 8.31905e-30 1.03988e-30 7.13712 -2.35712e-15 -1.94678e-16 0.164284 -2.0032e-15 1.00305e-15)
(-3.94429e-15 3.19111e-29 5.09408e-30 6.9559 8.14593e-15 2.58857e-15 0.162456 -1.99464e-16 -6.18866e-17)
(-4.23696e-15 -2.45994e-29 -4.09991e-30 6.9559 -3.53447e-15 6.56683e-17 0.162456 -2.0349e-15 1.02044e-15)
(6.27194e-16 1.1294e-29 2.50019e-30 6.78054 7.25079e-15 2.56674e-15 0.160678 -1.83072e-16 -5.96958e-17)
(-8.86604e-15 -4.04115e-30 -1.51543e-30 6.78054 -1.82929e-15 1.75488e-16 0.160678 -2.05491e-15 1.0412e-15)
(0 3.98323e-30 1.49371e-30 6.61083 6.14216e-15 2.6158e-15 0.158949 -1.62336e-16 -6.26513e-17)
(-2.24236e-15 0 -4.97903e-31 6.61083 -2.23487e-16 4.39605e-17 0.158949 -2.04463e-15 1.06065e-15)
(0 7.85227e-30 2.45383e-30 6.44653 6.48445e-15 2.47649e-15 0.157267 -1.34442e-16 -6.38336e-17)
(6.68168e-15 -3.92614e-30 -1.4723e-30 6.44653 -1.30488e-15 -3.68091e-17 0.157267 -2.03869e-15 1.07869e-15)
(-4.96979e-16 2.3894e-29 5.33249e-30 6.28746 8.1778e-15 2.26833e-15 0.155631 -1.84004e-16 -5.76036e-17)
(0 -2.32192e-29 -5.32106e-30 6.28746 -3.79222e-15 -7.87141e-17 0.155631 -2.063e-15 1.09669e-15)
(0 -3.8144e-29 -6.6752e-30 6.1334 8.62994e-15 2.09228e-15 0.154039 -2.23267e-16 -5.52686e-17)
(1.35406e-14 3.8144e-29 6.6752e-30 6.1334 -4.05229e-15 -1.67879e-16 0.154039 -2.10893e-15 1.11386e-15)
(0 -7.51946e-30 -1.4099e-30 5.98416 7.31856e-15 1.8161e-15 0.15249 -2.12389e-16 -5.03371e-17)
(1.57444e-14 7.51946e-30 1.87986e-30 5.98416 -4.31817e-15 -1.04534e-16 0.15249 -2.13243e-15 1.13197e-15)
(-3.42855e-15 1.00563e-29 9.35238e-31 5.83957 6.428e-15 1.61818e-15 0.150982 -1.62143e-16 -4.26375e-17)
(0 -3.70584e-30 0 5.83957 -4.64793e-15 -2.76467e-17 0.150982 -2.17492e-15 1.15216e-15)
(-1.72495e-15 6.81893e-30 -4.47438e-31 5.69945 7.22289e-15 1.44742e-15 0.149515 -1.71992e-16 -4.14507e-17)
(1.37996e-14 0 1.82636e-30 5.69945 -3.22287e-15 -4.27444e-17 0.149515 -2.21849e-15 1.17192e-15)
(1.73553e-15 -1.39534e-29 -2.26479e-30 5.56362 7.1851e-15 1.25445e-15 0.148087 -2.09109e-16 -3.48177e-17)
(0 1.08011e-29 1.80019e-30 5.56362 -3.77056e-15 -5.58415e-18 0.148087 -2.23054e-15 1.19272e-15)
(-1.746e-15 -3.94575e-30 -4.24388e-31 5.43193 5.73741e-15 1.16648e-15 0.146696 -1.74994e-16 -3.22677e-17)
(0 7.09755e-30 1.77439e-30 5.43193 -3.78978e-15 4.4772e-17 0.146696 -2.25795e-15 1.21267e-15)
(-1.75636e-15 6.65111e-30 1.33569e-30 5.30423 5.49695e-15 1.14057e-15 0.145342 -1.36096e-16 -3.10288e-17)
(7.02545e-15 -3.49791e-30 -8.74477e-31 5.30423 -2.08794e-15 -3.52556e-17 0.145342 -2.28201e-15 1.23466e-15)
(-1.76663e-15 1.00389e-29 1.32135e-30 5.18036 6.21327e-15 1.02673e-15 0.144024 -1.66784e-16 -3.17756e-17)
(7.06653e-15 -3.44778e-30 0 5.18036 -3.25943e-15 -1.35643e-16 0.144024 -2.29097e-15 1.25579e-15)
(-3.55361e-15 6.27402e-30 9.1712e-31 5.06018 5.63698e-15 7.42083e-16 0.142739 -1.80388e-16 -2.55326e-17)
(0 0 0 5.06018 -3.73591e-15 -7.72928e-18 0.142739 -2.3303e-15 1.27629e-15)
(9.88056e-17 6.48901e-30 2.1332e-30 4.94356 5.72242e-15 6.94044e-16 0.141489 -1.38773e-16 -1.64575e-17)
(-1.88569e-15 0 -8.37413e-31 4.94356 -3.29782e-15 7.76343e-17 0.141489 -2.36196e-15 1.29997e-15)
(0 -9.90493e-30 -1.65082e-30 4.83037 7.08434e-15 6.73694e-16 0.14027 -1.9062e-16 -2.34984e-17)
(-7.18747e-15 9.90493e-30 2.47623e-30 4.83037 -3.6651e-15 -7.43383e-17 0.14027 -2.39151e-15 1.32349e-15)
(1.80677e-15 -9.62291e-30 -2.083e-30 4.72048 7.05052e-15 4.11519e-16 0.139083 -2.22859e-16 -1.57438e-17)
(7.22706e-15 6.50865e-30 1.62716e-30 4.72048 -4.06944e-15 -2.05893e-16 0.139083 -2.43018e-15 1.3457e-15)
(1.08142e-17 -9.52539e-30 -2.05945e-30 4.61378 6.34788e-15 2.0278e-16 0.137926 -1.94188e-16 -8.55831e-18)
(-5.46055e-15 6.41536e-30 1.60384e-30 4.61378 -4.79624e-15 -1.43241e-16 0.137926 -2.50399e-15 1.36744e-15)
(-1.8263e-15 1.25907e-29 2.8263e-30 4.51015 6.82736e-15 3.06841e-17 0.136798 -1.86893e-16 -3.58092e-18)
(7.30522e-15 -9.48512e-30 -1.58085e-30 4.51015 -3.89126e-15 -9.67623e-17 0.136798 -2.54577e-15 1.38942e-15)
(0 6.23278e-30 2.33729e-30 4.40947 7.16326e-15 -2.79679e-16 0.135699 -2.29297e-16 -1.56341e-17)
(-1.75437e-15 -3.11639e-30 -1.5582e-30 4.40947 -2.71383e-15 -8.80296e-17 0.135699 -2.54774e-15 1.41282e-15)
(-1.72923e-15 1.53586e-29 2.30379e-30 4.31165 7.05881e-15 -5.77084e-16 0.134628 -2.13277e-16 -2.0584e-17)
(5.65283e-15 -9.21517e-30 -7.67931e-31 4.31165 -2.21949e-15 -2.08157e-16 0.134628 -2.57691e-15 1.43796e-15)
(1.50558e-16 -1.51869e-29 -2.71865e-30 4.21659 7.3565e-15 -9.16024e-16 0.133583 -2.29417e-16 -3.78089e-17)
(1.70444e-15 1.21108e-29 2.27077e-30 4.21659 -3.85108e-15 -1.40976e-16 0.133583 -2.60732e-15 1.45878e-15)
(0 8.95291e-30 1.49215e-30 4.12418 5.62031e-15 -1.24224e-15 0.132565 -2.38598e-16 -4.23923e-17)
(-7.45765e-15 -5.96861e-30 -7.46076e-31 4.12418 -3.80941e-15 1.17241e-16 0.132565 -2.66115e-15 1.48643e-15)
(-3.31187e-15 5.88306e-30 1.47077e-30 4.03433 3.42243e-15 -1.36496e-15 0.131571 -1.23278e-16 -4.70099e-17)
(0 0 7.35383e-31 4.03433 -1.23672e-15 3.71531e-17 0.131571 -2.67971e-15 1.5138e-15)
(0 5.79874e-30 2.17453e-30 3.94697 3.0169e-15 -1.46475e-15 0.130602 -1.00638e-16 -5.03109e-17)
(-3.2644e-15 -2.89937e-30 -7.24843e-31 3.94697 -1.2468e-15 -4.07635e-17 0.130602 -2.68726e-15 1.54142e-15)
(1.89221e-15 1.12096e-29 3.84036e-30 3.86199 3.06529e-15 -1.53764e-15 0.129657 -9.97555e-17 -5.3335e-17)
(0 -1.42891e-29 -4.28672e-30 3.86199 -1.6816e-15 4.89364e-17 0.129657 -2.70168e-15 1.57028e-15)
(1.90133e-15 2.55726e-30 9.61499e-31 3.77932 2.62141e-15 -1.52912e-15 0.128735 -1.06871e-16 -5.11977e-17)
(-3.1715e-15 0 0 3.77932 -1.17664e-15 -2.45348e-17 0.128735 -2.7104e-15 1.59813e-15)
(-3.82078e-15 6.16166e-30 8.90799e-31 3.69889 2.16661e-15 -1.64334e-15 0.127835 -7.21086e-17 -6.28779e-17)
(7.64155e-15 0 0 3.69889 -4.42468e-16 -1.20713e-16 0.127835 -2.71567e-15 1.62196e-15)
(-1.91938e-15 -2.39703e-30 -2.38279e-31 3.6206 3.25342e-15 -1.81347e-15 0.126957 -7.82244e-17 -6.47576e-17)
(0 8.21007e-30 1.36834e-30 3.6206 -5.35408e-16 -9.00623e-17 0.126957 -2.69915e-15 1.64886e-15)
(0 0 6.74366e-31 3.54441 4.8749e-15 -1.80837e-15 0.1261 -1.5126e-16 -6.43531e-17)
(0 0 -6.74366e-31 3.54441 -9.04287e-16 6.3206e-17 0.1261 -2.69806e-15 1.67589e-15)
(0 7.97641e-30 1.9941e-30 3.47022 4.58686e-15 -1.75037e-15 0.125263 -1.97128e-16 -6.24224e-17)
(-2.99355e-15 -2.6588e-30 -1.3294e-30 3.47022 -3.32418e-17 2.7561e-16 0.125263 -2.69572e-15 1.70601e-15)
(0 5.24139e-30 1.96552e-30 3.39798 4.10908e-15 -1.59564e-15 0.124446 -1.34675e-16 -5.47849e-17)
(0 0 0 3.39798 1.39072e-15 1.79085e-16 0.124446 -2.69791e-15 1.73622e-15)
(0 1.03325e-29 1.93735e-30 3.32763 5.0049e-15 -1.59351e-15 0.123649 -1.67535e-16 -6.40911e-17)
(1.56378e-14 -1.03325e-29 -6.45784e-31 3.32763 1.62119e-15 -1.64308e-16 0.123649 -2.68333e-15 1.76475e-15)
(-3.92683e-15 6.06579e-30 2.55188e-31 3.2591 5.18192e-15 -1.86032e-15 0.12287 -2.05896e-16 -7.67181e-17)
(7.85365e-15 0 6.36528e-31 3.2591 -3.60692e-16 -4.44848e-16 0.12287 -2.66239e-15 1.78757e-15)
(1.97204e-15 -1.30703e-29 -1.7016e-30 3.19233 5.10389e-15 -1.9415e-15 0.12211 -1.85931e-16 -7.22439e-17)
(0 1.00385e-29 1.25481e-30 3.19233 -2.57647e-15 -5.80147e-16 0.12211 -2.6792e-15 1.80983e-15)
(0 4.9473e-30 0 3.12726 4.74685e-15 -1.79338e-15 0.121367 -2.05895e-16 -6.73494e-17)
(-7.92248e-15 0 6.18413e-31 3.12726 -2.33576e-15 -9.34499e-16 0.121367 -2.71099e-15 1.83348e-15)
(-4.73431e-15 -1.16024e-29 -3.81964e-30 3.06385 4.25786e-15 -1.83255e-15 0.120641 -1.63377e-16 -7.7477e-17)
(1.07017e-14 1.46292e-29 4.87639e-30 3.06385 -4.52658e-16 -1.00374e-15 0.120641 -2.72926e-15 1.84929e-15)
(0 4.8065e-30 1.80244e-30 3.00203 4.91454e-15 -1.74977e-15 0.119932 -1.73021e-16 -6.26399e-17)
(-2.70582e-15 -4.8065e-30 -1.20163e-30 3.00203 -9.17566e-16 -8.2521e-16 0.119932 -2.731e-15 1.87003e-15)
(2.66704e-15 -4.73761e-30 -1.1844e-30 2.94177 5.42768e-15 -1.62175e-15 0.11924 -2.2117e-16 -6.92627e-17)
(0 4.73761e-30 1.1844e-30 2.94177 -3.53027e-15 -9.54598e-16 0.11924 -2.74772e-15 1.88612e-15)
(-2.0144e-15 -1.67291e-30 4.48779e-31 2.883 4.18608e-15 -1.66541e-15 0.118563 -2.20113e-16 -6.81022e-17)
(0 4.66971e-30 0 2.883 -3.32839e-15 -1.22265e-15 0.118563 -2.80822e-15 1.89966e-15)
(-1.4543e-15 -1.70062e-29 -4.85985e-30 2.82568 3.68647e-15 -1.79564e-15 0.117901 -1.2449e-16 -8.2269e-17)
(1.87729e-14 2.30139e-29 5.75348e-30 2.82568 -9.63835e-16 -1.07201e-15 0.117901 -2.84183e-15 1.91064e-15)
(2.554e-15 4.53681e-30 1.1342e-30 2.76978 5.96896e-15 -1.91676e-15 0.117255 -1.84447e-16 -8.04554e-17)
(-2.554e-15 0 0 2.76978 -1.95991e-15 -6.53726e-16 0.117255 -2.82758e-15 1.93056e-15)
(-2.51739e-15 8.94358e-30 2.79487e-30 2.71523 7.47477e-15 -1.68504e-15 0.116623 -3.23334e-16 -6.45745e-17)
(-2.51739e-15 0 -1.11795e-30 2.71523 -3.59816e-15 -1.1536e-15 0.116623 -2.88048e-15 1.95172e-15)
(-6.14217e-15 -1.76145e-29 -4.72751e-30 2.66201 7.58239e-15 -1.88738e-15 0.116005 -3.20499e-16 -1.00623e-16)
(1.63791e-14 2.20385e-29 6.06058e-30 2.66201 -3.01617e-15 -1.60884e-15 0.116005 -2.94978e-15 1.95887e-15)
(-2.44575e-15 -2.17226e-29 -5.97372e-30 2.61008 6.67348e-15 -2.58387e-15 0.115401 -3.42279e-16 -1.28665e-16)
(1.88899e-14 2.17226e-29 5.97372e-30 2.61008 -3.99644e-15 -1.01551e-15 0.115401 -2.98568e-15 1.96836e-15)
(-2.06361e-15 2.00616e-29 2.04958e-30 2.55938 5.02742e-15 -2.63123e-15 0.11481 -2.48717e-16 -1.07862e-16)
(0 -1.28468e-29 -1.07056e-30 2.55938 -4.3277e-15 -9.29103e-16 0.11481 -3.04686e-15 1.9877e-15)
(2.07166e-15 -2.8262e-29 -6.24607e-30 2.50989 4.9426e-15 -2.51965e-15 0.114232 -2.03167e-16 -1.22178e-16)
(1.65733e-14 2.53253e-29 5.80371e-30 2.50989 -2.69016e-15 -1.33473e-15 0.114232 -3.10466e-15 1.99765e-15)
(0 -1.24811e-29 -4.16038e-30 2.46158 4.95822e-15 -2.84769e-15 0.113667 -2.48207e-16 -1.41613e-16)