/*--------------------------------*- C++ -*----------------------------------*\
| =========                 |                                                 |
| \\      /  F ield         | OpenFOAM: The Open Source CFD Toolbox           |
|  \\    /   O peration     | Version:  2012                                  |
|   \\  /    A nd           | Website:  www.openfoam.com                      |
|    \\/     M anipulation  |                                                 |
\*---------------------------------------------------------------------------*/
FoamFile
{
    version     2.0;
    format      ascii;
    class       volTensorField;
    location    "13828.6";
    object      grad(U);
}
// * * * * * * * * * * * * * * * * * * * * * * * * * * * * * * * * * * * * * //

dimensions      [0 0 -1 0 0 0 0];


internalField   nonuniform List<tensor> 
2560
(
(0 -1.38588e-14 1.89417e-13 538.227 0 3.02228 0.779919 -5.42101e-20 0.00614839)
(0 0 1.14289e-18 537.619 0.036252 0.000259665 0.779919 -0.00037877 -0.00613643)
(0 1.32013e-19 0 536.669 -0.00705663 -9.03808e-21 2.34601 6.88465e-05 0)
(0 -1.0561e-19 2.25302e-18 536.079 0.141592 -0.00017166 2.34601 6.79654e-05 -0.00831994)
(-1.00143e-16 -1.34458e-19 0 535.296 -0.0763962 -1.9802 3.20926 2.71425e-05 0.00508146)
(0 2.68916e-19 -1.11036e-18 534.743 0.053172 -6.25451e-05 3.20607 2.55301e-05 -0.00507157)
(3.17393e-16 -3.38809e-19 8.20837e-19 533.926 -0.0364854 -1.25644 3.24764 8.60292e-08 0.00244005)
(0 3.38809e-19 -8.20837e-19 533.422 0.0277629 -1.51003e-05 3.24474 -3.50447e-06 -0.0024353)
(2.20931e-15 -4.74263e-19 1.34845e-18 532.584 -0.0152985 -0.534396 3.28669 1.17617e-06 0.00129384)
(0 5.42081e-19 -1.07876e-18 532.135 0.0152806 -3.68052e-06 3.28409 -6.69377e-07 -0.00129133)
(1.8487e-15 -2.71147e-19 2.65825e-19 531.162 -0.00962788 -0.234627 3.32495 1.12826e-07 0.000805742)
(6.08161e-15 3.38901e-19 -2.65825e-19 530.77 0.0096782 -6.75126e-07 3.32267 -1.06238e-06 -0.000804174)
(-9.85463e-16 -2.03292e-19 6.55039e-20 529.464 -0.0068847 -0.119347 3.36137 1.412e-06 0.000565536)
(3.94294e-15 3.38778e-19 -1.96512e-19 529.129 0.00664862 -1.71425e-07 3.35942 5.40151e-07 -0.000564435)
(-3.32951e-15 3.38714e-19 -1.93695e-19 527.416 -0.00504039 -0.069103 3.39592 -6.17046e-07 0.000429718)
(4.85629e-15 -2.71123e-19 1.2913e-19 527.135 0.00524094 -1.3662e-07 3.39427 -1.668e-06 -0.000428882)
(5.6152e-15 -2.70966e-19 1.91473e-19 525.235 -0.00419906 -0.0439624 3.43128 2.12361e-06 0.00034058)
(0 3.38831e-19 -1.90919e-19 525.005 0.00403893 -2.18076e-08 3.42994 1.06799e-06 -0.000343902)
(0 2.03129e-19 -6.27275e-20 523.361 -0.00336212 -0.0299307 3.4705 -1.15118e-06 0.00023004)
(-2.05546e-15 -1.35501e-19 0 523.178 0.00351953 -3.06117e-08 3.46944 -2.29611e-06 -0.000286504)
(-1.91218e-15 -6.77457e-19 1.12299e-19 521.87 -0.00299585 -0.0214264 3.5117 2.71791e-06 0.000164177)
(0 7.45323e-19 -1.54571e-19 521.73 0.00266872 -7.99892e-09 3.5109 1.53968e-06 -0.000245539)
(2.14979e-15 -1.61908e-18 2.56717e-19 520.626 -0.00259017 -0.015937 3.55517 -1.61866e-06 0.000122175)
(0 8.80807e-19 -2.13298e-19 520.526 0.00264236 -1.20918e-07 3.55461 -2.82272e-06 -0.000215056)
(0 -4.06638e-19 6.00689e-20 519.748 -0.00219389 -0.0122448 3.60238 2.95846e-06 9.39364e-05)
(0 6.0984e-19 -6.00689e-20 519.682 0.0402146 0.000138609 3.60204 1.76492e-06 -0.000191617)
(-2.63319e-15 4.73663e-19 -7.28546e-20 519.123 -0.00257825 -0.00958427 3.65051 0.000130174 7.45406e-05)
(1.05328e-14 2.40741e-34 0 519.088 -1.388e-17 1.8273e-06 3.65037 0 -0.000172538)
(-3.82464e-15 -3.1127e-17 -1.45898e-19 518.314 -9.94106e-20 -0.0077105 3.69637 0 5.92487e-05)
(3.82464e-15 -4.96054e-19 1.45898e-19 518.307 0.124512 0.000216057 3.6964 -0.000260923 -0.000158235)
(-3.1308e-15 -1.15046e-19 -4.19203e-20 516.985 -0.00329151 -0.00622536 3.7382 0.000577387 4.99724e-05)
(1.25231e-14 0 2.87614e-20 517 -2.22308e-17 6.07181e-06 3.73838 -6.03501e-35 -0.000144507)
(-3.71579e-15 -1.65353e-17 -1.41746e-19 515.037 3.45633e-17 -0.00505968 3.77602 0 3.94727e-05)
(-9.82385e-15 2.54026e-15 1.41746e-19 515.071 0.0785388 -0.000250475 3.77634 -0.000286453 -0.000135914)
(0 1.5648e-18 -1.11772e-19 512.885 -0.00259689 -0.00426952 3.81561 0.000947232 3.43063e-05)
(-1.45657e-14 -3.93841e-19 1.11772e-19 512.935 -3.54945e-17 2.09525e-06 3.81603 0 -0.000127001)
(3.61004e-15 -2.20339e-19 6.8856e-20 511.52 -3.36502e-05 -0.00359397 3.86599 -0.000126289 2.88487e-05)
(0 1.15549e-29 -8.26272e-20 511.582 3.81501e-17 -4.44125e-06 3.86649 0 -0.000120153)
(4.15857e-15 1.08591e-18 -4.19882e-20 511.732 -0.00283277 -0.00305167 3.93063 0.00107175 2.5093e-05)
(-1.6634e-14 -5.94231e-19 8.14429e-20 511.802 -3.71395e-20 8.9566e-07 3.9312 0 -0.000113554)
(-7.01459e-15 -2.14068e-19 -1.07034e-19 513.391 0.000272416 -0.00260891 4.00507 -0.000529424 2.13719e-05)
(7.01459e-15 3.20351e-19 1.07034e-19 513.467 3.81439e-17 -5.42383e-06 4.00568 0 -0.000108561)
(-4.68812e-15 -6.33001e-19 1.46095e-20 515.746 -0.00284972 -0.00224511 4.08298 0.00119539 1.89348e-05)
(0 -1.54074e-33 -3.95625e-20 515.827 -4.15919e-17 -3.89455e-08 4.08363 2.92822e-34 -0.000103513)
(8.66939e-15 4.85771e-20 1.18365e-19 518.2 0.000829536 -0.00200527 4.16172 -0.000925329 1.62517e-05)
(-6.81496e-15 9.62965e-35 -1.29985e-19 518.284 -2.16469e-35 0.000270276 4.16239 2.1684e-19 -9.9787e-05)
(0 1.63996e-18 -5.12488e-20 520.622 -0.0032723 -0.0016816 4.24195 0.00158666 1.5646e-05)
(-2.09524e-14 -6.60038e-19 8.96854e-20 520.706 -5.50032e-20 5.06784e-06 4.24264 2.1684e-19 -9.4466e-05)
(-1.09992e-15 -8.08229e-19 -6.44281e-20 523.105 0.00111963 -0.00148317 4.32459 -0.00193388 1.14656e-05)
(6.62101e-15 4.81482e-35 7.57714e-20 523.189 3.64164e-32 0.000127865 4.32528 -2.1684e-19 -9.30225e-05)
(-1.8145e-14 3.5849e-18 -1.08005e-19 525.677 -0.00378441 -0.00126383 4.40925 0.00234959 1.28314e-05)
(6.52611e-15 0 8.7133e-20 525.759 -7.84646e-17 1.03467e-05 4.40993 -1.80905e-34 -8.78558e-05)
(3.11758e-14 1.96307e-18 1.55922e-19 528.235 0.00168169 -0.00101534 4.4947 -0.00281821 8.13102e-06)
(4.88278e-14 0 -1.22692e-19 528.315 9.71445e-17 -0.00031102 4.49537 -4.08938e-30 -8.77777e-05)
(-1.26808e-14 -3.48288e-18 8.46532e-20 530.636 -0.00411728 -0.000952796 4.57977 0.00290639 8.98852e-06)
(2.56143e-14 0 -8.46532e-20 530.713 -9.43063e-17 6.15695e-06 4.58042 0 -8.4877e-05)
(6.70971e-15 -7.62879e-19 -2.5134e-20 532.819 0.00238639 -0.000830795 4.66451 -0.00306248 7.292e-06)
(0 4.25189e-19 2.384e-20 532.893 1.06297e-19 2.1584e-06 4.66513 0 -8.3699e-05)
(-1.40426e-14 0 -2.06226e-20 534.953 -0.0046334 -0.000725058 4.75176 0.00315664 7.11989e-06)
(-5.61697e-14 -4.37887e-18 0 535.022 1.09472e-19 1.71847e-06 4.75235 0 -8.12627e-05)
(-1.9481e-14 -1.11175e-18 -2.19952e-20 537.56 0.00311393 -0.000633907 4.84804 -0.00331764 5.63101e-06)
(-2.93504e-14 2.303e-18 0 537.624 1.03968e-16 -1.01844e-05 4.84859 0 -8.05199e-05)
(0 3.65273e-18 -1.02733e-19 541.45 -0.00530311 -0.000555981 4.96194 0.00341435 5.68896e-06)
(-3.06328e-14 -1.42095e-18 1.02733e-19 541.509 1.18412e-19 -1.54736e-06 4.96245 0 -7.84749e-05)
(1.17977e-14 2.16022e-18 6.7507e-20 547.413 0.00399876 -0.000486369 5.10044 -0.00357558 4.37395e-06)
(2.01356e-14 0 -6.7507e-20 547.465 -1.24099e-19 -1.25053e-05 5.1009 -4.33681e-19 -7.80256e-05)
(-8.3144e-15 0 1.22054e-20 555.838 -0.00613618 -0.000425622 5.26556 0.00367435 4.56684e-06)
(0 -9.62965e-35 -3.32697e-20 555.885 -1.09342e-16 -1.04535e-06 5.26597 4.33681e-19 -7.6293e-05)
(-8.6537e-15 -2.79833e-18 -6.47642e-20 566.525 0.00494445 -0.000448504 5.45348 -0.00383436 3.36109e-06)
(0 -9.62965e-35 5.46548e-20 566.567 1.37447e-17 0.000330138 5.45386 7.38732e-35 -7.60614e-05)
(-9.00403e-15 4.13733e-18 -4.17039e-20 578.74 -0.00721797 -0.000313016 5.65595 0.00426322 5.13666e-06)
(-3.60159e-14 -2.36581e-18 1.07743e-20 578.777 -4.43589e-19 6.58357e-06 5.6563 0 -7.25907e-05)
(9.3678e-15 1.35934e-18 2.82742e-17 591.462 0.00596604 -0.000172585 5.86276 -0.00475822 8.40162e-07)
(0 -3.85186e-33 -3.18596e-20 591.496 1.11022e-16 0.00102756 5.86309 -1.88647e-34 -7.45705e-05)
(9.74665e-15 -5.35944e-18 6.01368e-20 603.658 -0.00882197 -0.000202126 6.06434 0.00618485 9.00757e-06)
(0 -7.70372e-34 -5.23383e-20 603.69 0 2.12168e-05 6.06465 8.67362e-19 -6.50612e-05)
(-1.01411e-14 -2.64131e-18 -8.55285e-50 614.535 0.00794421 -2.03288e-18 6.25408 -0.00771158 8.8953e-50)
(0 1.07039e-18 1.03176e-20 614.565 2.22312e-16 0.000419885 6.25438 0 -7.36002e-05)
(-1.06638e-14 6.50864e-18 -5.08488e-20 623.757 -0.0102313 -9.61878e-05 6.43088 0.00952042 9.97205e-06)
(1.06638e-14 -1.32103e-18 6.10185e-20 623.785 -5.55112e-16 2.69307e-05 6.43116 1.73472e-18 -6.16247e-05)
(-1.09731e-14 -2.56614e-18 2.51203e-18 631.656 0.00882075 1.96512e-18 6.60143 -0.0114751 0)
(3.33815e-14 0 0 631.682 -7.96338e-19 -0.00032898 6.60168 1.10514e-33 -7.31458e-05)
(0 -1.26468e-17 4.94016e-20 639.333 -0.0109201 -4.82087e-06 6.78111 0.01293 7.28802e-06)
(4.5625e-14 0 -4.94016e-20 639.356 -7.78053e-16 2.18296e-05 6.78133 1.49816e-29 -6.34132e-05)
(1.18476e-14 -7.47933e-18 1.70932e-17 648.525 0.00953476 3.8269e-18 6.99141 -0.0145681 -1.35525e-20)
(-4.73904e-14 8.08768e-18 5.84323e-20 648.544 6.59921e-43 -0.00072084 6.99159 0 -7.31481e-05)
(1.22964e-14 -9.82951e-18 4.73157e-20 661.123 -0.0114554 6.43777e-05 7.25312 0.0153027 4.16104e-06)
(0 0 -3.83965e-20 661.138 -3.88578e-16 1.11852e-05 7.25326 1.73472e-18 -6.82945e-05)
(-1.27546e-14 2.42216e-18 4.34563e-18 678.467 0.0101284 -5.11005e-21 7.57804 -0.0162328 0)
(0 1.54074e-33 -3.78462e-20 678.478 4.12318e-16 -0.000314327 7.57814 3.46945e-18 -7.3508e-05)
(1.3227e-14 7.16232e-18 -1.85427e-20 700.763 -0.0120322 0.000116482 7.96358 0.0166642 3.04353e-06)
(5.29079e-14 -2.92741e-32 9.32594e-21 700.771 -4.02456e-16 6.51981e-06 7.96365 0 -7.08957e-05)
(1.92776e-14 4.70645e-18 4.90095e-18 726.956 0.0107673 1.84314e-18 8.39358 -0.0172915 0)
(5.48795e-14 3.08149e-33 -3.67691e-20 726.963 8.32667e-16 0.000174515 8.39366 -5.27699e-33 -7.41603e-05)
(-1.42399e-14 0 -9.15026e-21 755.084 -0.0126974 0.000163872 8.8435 0.0179029 4.62179e-06)
(0 -7.70372e-34 -1.81211e-20 755.092 0 8.9276e-06 8.84361 3.46945e-18 -7.0421e-05)
(-1.47917e-14 0 -1.50463e-36 782.943 0.0114485 0 9.28924 -0.0187159 1.35525e-20)
(0 3.08149e-32 -1.78613e-20 782.956 4.48711e-16 0.0030898 9.28942 6.34562e-34 -7.5105e-05)
(0 -4.50697e-18 0 808.63 -0.0126209 0.000226741 9.7104 0.0223607 2.33143e-05)
(0 4.62223e-32 -1.76053e-20 808.651 -6.69237e-16 5.30844e-05 9.71069 1.25093e-33 -4.90852e-05)
(-3.4196e-14 8.88474e-18 1.01881e-17 830.316 0.0117453 -1.78362e-18 10.082 -0.0262843 -1.35525e-20)
(0 1.54074e-33 -5.2059e-20 830.348 -6.16503e-34 -0.000496517 10.0824 0 -7.651e-05)
(0 2.18935e-17 -5.13129e-20 845.255 -0.0116566 0.000343548 10.3587 0.0293575 2.16883e-05)
(-6.66445e-14 -2.03698e-17 5.13129e-20 845.303 -6.68171e-16 9.70105e-05 10.3594 0 -5.42964e-05)
(3.11642e-16 2.58957e-17 1.0238e-17 848.459 0.0105911 0.000584977 10.4565 -0.0327307 3.58768e-06)
(5.17872e-14 -6.31089e-30 -5.05774e-20 848.53 1.43875e-15 -0.0020352 10.4575 6.93889e-18 -7.83331e-05)
(0 2.55245e-17 -6.64701e-20 831.541 -0.0103869 0.000610642 10.238 0.0335346 1.16688e-05)
(0 0 6.64701e-20 831.642 -8.26815e-31 0.000190679 10.2395 -6.45824e-34 -7.29162e-05)
(-1.89339e-14 -1.67724e-17 -5.92964e-20 782.272 0.00731624 0.000779297 9.50967 -0.034594 7.9824e-06)
(7.57345e-14 -3.08149e-33 4.9138e-20 782.412 7.60546e-16 0.000849049 9.51173 6.93889e-18 -8.10425e-05)
(3.9594e-14 -1.65321e-17 4.64777e-20 685.695 -0.00967605 0.00114212 8.04582 0.0356674 2.13729e-05)
(7.91865e-14 -5.54668e-32 -3.22892e-20 685.883 -7.74681e-16 0.000336234 8.04859 1.00838e-32 -7.23528e-05)
(0 8.14755e-18 3.18264e-20 527.093 0.00272612 0.00140331 5.63613 -0.0370351 1.5054e-05)
(0 -5.85483e-32 -3.18264e-20 527.336 8.32667e-16 0.00107916 5.6397 -2.2614e-33 -8.63658e-05)
(-2.15644e-14 -8.03078e-18 2.57199e-20 296.358 -0.00789972 0.00184367 2.15319 0.0384477 3.36952e-05)
(0 1.17097e-31 -3.13702e-20 296.661 -1.668e-15 0.000346814 2.15762 6.93889e-18 -7.42686e-05)
(-1.83423e-13 -1.58314e-17 -5.17172e-20 -0.476673 -0.000688616 0.00207372 0.00318796 -0.0402869 2.16939e-05)
(0 0 6.18412e-20 7.6372e-30 -1.93981e-33 0.000581064 -1.52744e-29 3.87963e-33 -9.64788e-05)
(4.06993e-13 0 -6.03577e-21 -350.523 -0.00261211 0.00229203 2.37836 0.0419085 4.06502e-05)
(0 0 -1.52387e-20 -349.741 -2.90788e-18 0.000100062 2.37306 0 -8.39988e-05)
(-2.02364e-14 1.53808e-17 3.27274e-20 -771.246 -0.00208088 0.00231301 7.74243 -0.0440896 2.29114e-05)
(8.0949e-14 0 -7.51016e-20 -770.771 8.88872e-16 -0.00055615 7.73628 6.59842e-33 -0.000111639)
(-1.84934e-14 1.51604e-17 -3.91013e-20 -1171.37 0.00466612 0.00207854 13.5359 0.0456044 3.52433e-05)
(0 -6.18493e-32 0 -1170.85 -8.91343e-16 -0.000280493 13.529 6.93889e-18 -0.000103489)
(-1.74372e-14 -2.98861e-17 -1.18458e-19 -1533.1 -0.00395814 0.00185378 19.2283 -0.0476697 1.71661e-05)
(-8.07837e-14 2.64628e-17 8.7557e-20 -1532.54 3.30785e-18 -0.00148779 19.2207 -6.93889e-18 -0.00012835)
(-2.79764e-14 -3.68222e-17 8.53e-20 -1821.75 0.00977812 0.00128723 24.2592 0.0487895 1.98665e-05)
(1.11915e-13 0 -8.63021e-20 -1821.17 -9.12549e-16 -0.000506964 24.251 3.89893e-30 -0.000126973)
(-3.44847e-14 -4.35534e-17 -1.97329e-19 -2013.34 -0.00836188 0.000960699 28.1518 -0.0503115 8.07411e-06)
(-4.59844e-14 1.39647e-17 1.41775e-19 -2012.73 1.92177e-15 -0.00124343 28.1431 0 -0.000141358)
(-2.36854e-14 -5.0084e-17 2.50042e-18 -2097.97 0.0114495 2.6834e-18 30.5993 0.0510311 0)
(5.07873e-14 0 -1.67692e-19 -2097.36 9.50771e-16 0.00137485 30.5903 2.48786e-30 -0.000142951)
(6.72192e-15 2.11569e-17 4.53083e-20 -2079.76 -0.0131885 -6.05618e-05 31.4997 -0.0508171 4.24881e-06)
(0 0 -2.75481e-20 -2079.16 3.48081e-17 0.000350367 31.4906 0 -0.000132068)
(-1.42361e-14 -5.56098e-17 1.94505e-20 -1973.7 0.0115519 -3.47596e-20 30.9447 0.0511017 0)
(3.28491e-14 0 -1.35766e-19 -1973.15 9.15934e-16 0.000729166 30.9359 3.96711e-30 -0.000139996)
(0 6.8516e-18 5.35281e-20 -1800.93 -0.0157919 -0.000333449 29.168 -0.050715 1.16497e-05)
(1.85202e-14 6.16298e-33 -5.35281e-20 -1800.48 -8.88178e-16 0.000123372 29.1601 -5.80877e-33 -0.000124069)
(-6.91548e-15 1.35068e-17 0 -1583.95 0.0116688 -6.80094e-34 26.4729 0.0507798 0)
(5.65234e-15 0 5.27609e-20 -1583.66 2.77556e-17 5.54225e-05 26.4668 -8.86291e-33 -0.000136665)
(0 -3.99396e-17 -1.56014e-19 -1343.07 -0.0158406 -0.00026483 23.1694 -0.0504698 1.14913e-05)
(0 1.40099e-14 1.56014e-19 -1343 -1.77636e-15 -4.35972e-06 23.1663 0 -0.000120932)
(0 0 4.81482e-34 -1094.44 0.0115995 -3.45072e-18 15.3002 0.0505189 8.75585e-36)
(0 0 2.56297e-20 -1094.65 1.78337e-15 0.00275966 15.3001 0 -0.000134798)
(0 0 -3.78935e-20 -849.68 -0.0131169 -0.016227 7.41596 -0.000983902 -3.11213e-05)
(0 -5.04871e-29 0 -850.209 8.88178e-16 1.04354e-18 7.41592 4.33681e-19 2.28754e-33)
(0 7.96809e-19 0 -616.492 0.0117463 -0.000204901 1.39849 0.00238432 2.59294e-06)
(-4.07966e-16 0 0 -617.332 -2.74249e-17 -0.00364724 1.39846 -5.50666e-34 -2.59301e-06)
(0 -1.82601e-16 0 -399.679 3.1225e-17 -0.000188796 -2.81789 0 -2.63173e-06)
(0 0 0 -400.742 -0.0758052 -4.33461e-20 -2.81792 -0.00144922 -5.06846e-38)
(-4.81043e-16 1.1612e-18 -1.51198e-21 -202.121 0.0103516 -0.000187744 -1.86708 0.00171055 2.01027e-06)
(1.58542e-15 -4.24234e-15 0 -203.276 0 -0.000262658 -1.88727 0 -2.01034e-06)
(-8.12499e-13 -3.06829e-16 0 1.74082e-15 3.92853e-19 -0.000164838 8.88178e-16 0 -2.05419e-06)
(1.5898e-12 3.81518e-19 -2.85071e-22 -1.79945 -0.0543936 -1.38376e-20 -0.0156058 -0.00141713 0)
(-4.82659e-13 -3.7605e-19 0 114.134 0.00900504 -0.00016125 -1.00423 0.00119681 1.34727e-06)
(0 2.31112e-33 0 111.88 -1.40436e-17 -0.000242383 -0.984388 -8.68264e-34 -1.34734e-06)
(-6.41172e-16 -1.30678e-16 1.44789e-21 262.468 -1.3664e-19 -0.000139596 -3.56968 0 -1.3846e-06)
(0 5.55991e-19 -1.92148e-22 261.499 -0.0352235 1.92148e-22 -3.55119 -0.000986353 2.11758e-22)
(0 5.48022e-19 -7.1357e-22 374.15 0.00787982 -0.000134024 -1.0895 0.000836321 7.7249e-07)
(0 -1.64548e-15 7.1357e-22 373.368 -1.02925e-17 -0.000201517 -1.08948 1.0842e-19 -7.72565e-07)
(0 -3.3654e-16 0 465.586 7.71e-19 -0.000112797 2.78213 -1.0842e-19 -8.0028e-07)
(-7.37508e-16 -1.80056e-19 -4.44226e-22 465.049 -0.0203717 -2.22113e-22 2.78215 -0.000696155 0)
(0 -2.66213e-19 0 538.428 0.00703487 -0.000102906 7.46708 0.000601316 3.00768e-07)
(0 0 0 538.146 -8.32072e-20 -0.000155874 7.4671 0 -9.50966e-08)
(-1.43053e-16 -9.44484e-17 0 594.678 7.80626e-18 -8.10244e-05 11.7916 0 -3.15944e-07)
(-1.72243e-15 -4.37329e-19 -3.85186e-34 594.618 -0.00970597 0 11.7923 -0.00051704 5.29396e-23)
(-1.98131e-15 6.03485e-19 6.73532e-22 636.403 0.00636239 -7.20134e-05 12.6389 0.000462582 -3.47052e-08)
(6.19789e-15 -6.92535e-19 -7.98853e-22 636.51 7.06679e-18 -1.79847e-05 12.6423 5.42101e-20 7.16117e-07)
(0 -8.42492e-17 0 665.476 -6.93889e-18 -4.34062e-05 13.2773 -5.42101e-20 3.24627e-08)
(0 3.39906e-19 3.31939e-22 665.692 -0.00258128 3.43547e-05 13.2823 -0.000415303 8.26718e-07)
(-2.49193e-15 -1.0051e-18 -1.63591e-21 683.398 0.00462191 -1.36554e-05 13.7223 0.000392156 -7.12573e-07)
(4.47535e-15 1.92593e-34 0 683.671 5.41725e-20 2.58613e-22 13.7281 0 2.11758e-22)
(-3.40842e-15 -8.32537e-17 6.44985e-22 691.194 -5.25679e-18 6.64313e-05 13.9809 0 1.77014e-08)
(-1.36304e-14 -2.47674e-19 -1.03183e-21 691.484 -0.00117495 -5.05318e-06 13.9868 -0.000381107 4.67541e-07)
(1.50349e-14 -4.06874e-19 -6.35741e-22 689.416 0.00293248 8.10164e-05 14.0514 0.000361061 -2.34187e-08)
(6.8068e-15 0 1.21648e-21 689.697 4.33681e-19 9.28715e-06 14.057 5.42101e-20 1.06084e-07)
(-5.36161e-15 -6.97692e-17 0 678.231 5.29694e-18 0.000103978 13.9257 5.42101e-20 1.6314e-08)
(2.14436e-14 -1.08281e-18 8.62199e-23 678.488 -0.00226114 9.20475e-06 13.9308 -0.000336177 2.74844e-07)
(-6.37424e-15 0 0 657.594 0.0024577 0.000121947 13.5931 0.000320376 -2.26541e-08)
(0 -1.11092e-16 0 657.822 3.85893e-18 7.95408e-05 13.5976 -5.42101e-20 1.78257e-07)
(-7.39377e-15 -3.01072e-17 0 627.445 3.94417e-18 0.000144451 13.0442 0 1.3286e-08)
(0 4.28592e-19 0 627.643 -0.00201617 0.000129583 13.0482 -0.000297742 -1.3075e-08)
(-8.4056e-15 -7.68089e-19 -1.20014e-21 587.922 0.00203716 0.00015625 12.2764 0.000282886 -2.21981e-08)
(2.3553e-14 1.2326e-32 0 588.095 -3.89833e-20 0.000156572 12.2798 0 2.20601e-08)
(9.39339e-15 -7.93104e-17 0 539.567 -6.54176e-18 0.000165499 11.2976 0 1.0322e-08)
(0 4.92102e-19 0 539.717 -0.00180107 0.000165434 11.3007 -0.000265373 -1.00834e-08)
(1.9562e-14 -3.35803e-19 2.33197e-21 483.453 0.00172345 0.000160373 10.1299 0.000248286 -2.19684e-08)
(0 -8.66668e-34 0 483.584 3.06994e-18 0.000160672 10.1326 7.24921e-35 2.17906e-08)
(-1.12259e-14 -2.19023e-17 0 421.212 -1.84187e-19 0.000149835 8.80841 0 7.46911e-09)
(0 4.04544e-19 0 421.328 -0.00156914 0.000149787 8.81086 -0.000237358 -7.19131e-09)
(0 -1.23249e-18 0 354.972 0.00149272 0.000125013 7.38151 0.000217256 -2.18726e-08)
(9.62791e-14 0 0 355.073 2.60209e-18 0.000125286 7.3837 2.71051e-20 2.16447e-08)
(0 -1.7094e-17 -2.23313e-21 287.254 2.1684e-19 9.76571e-05 5.90819 -2.71051e-20 4.79298e-09)
(5.10066e-14 1.4292e-19 0 287.343 -0.00128676 9.76166e-05 5.91013 -0.000212323 -4.46215e-09)
(-5.02928e-14 8.45231e-19 -2.20112e-21 220.764 0.00134423 6.25079e-05 4.45168 0.000191304 -2.18262e-08)
(-3.49911e-14 -1.07773e-16 0 220.841 -2.69322e-19 6.27502e-05 4.45337 2.71051e-20 2.15359e-08)
(-3.20638e-14 -1.30699e-17 3.58078e-19 158.134 -1.95156e-18 0 3.07474 0 0)
(-5.54557e-14 -6.94264e-19 -1.3971e-18 158.2 -0.00103688 7.18372e-07 3.07619 -0.000188756 -1.94883e-09)
(0 6.84313e-19 0 101.725 0.00123006 -1.14266e-06 1.83484 0.000170067 -2.17782e-08)
(-1.79389e-14 -3.16754e-19 0 101.78 1.905e-18 -9.30131e-07 1.83604 0 2.14083e-08)
(0 -2.19202e-17 5.5303e-19 53.4442 1.95156e-18 -3.41297e-08 0.779199 2.71051e-20 1.61294e-10)
(5.80933e-14 -3.37253e-19 0 53.4881 -0.000857126 -3.64039e-24 0.780149 -0.000166123 5.16988e-26)
(1.5922e-13 1.46264e-18 -4.15524e-21 -1.1795e-12 0.00109894 -4.35565e-05 0 0.00015219 -2.17263e-08)
(0 0 0 0.0457558 4.15683e-20 -4.33697e-05 0.000569286 2.71051e-20 2.12559e-08)
(1.90492e-13 -1.86011e-17 0 -4.49155 -1.51788e-18 -5.19833e-05 0.0566957 0 -1.79634e-09)
(9.68116e-13 1.75295e-18 0 -4.436 -0.000732798 -5.20128e-05 0.0559946 -0.00014508 2.40375e-09)
(0 -3.39106e-19 2.01849e-21 -32.1161 0.000921722 -5.67309e-05 0.651241 0.000136547 -2.17226e-08)
(1.1637e-13 -9.62965e-35 0 -32.1029 1.55508e-18 -5.65622e-05 0.650784 9.45981e-35 2.11234e-08)
(-2.88584e-14 3.85186e-34 0 -40.2354 1.33567e-18 -5.35884e-05 0.996408 3.59251e-35 -3.59686e-09)
(0 6.36659e-20 0 -40.2311 -0.000653005 -5.36062e-05 0.996186 -0.000127071 4.35329e-09)
(-1.43395e-14 1.25507e-19 0 -39.019 0.000759078 -4.94512e-05 1.09534 0.000122192 -2.18564e-08)
(1.14716e-13 -3.85186e-34 0 -39.0227 -1.19262e-18 -4.92909e-05 1.09534 -3.80078e-35 2.10935e-08)
(1.42914e-14 -2.06573e-17 0 -29.4859 -1.16218e-18 -4.12543e-05 0.960993 0 -5.34802e-09)
(0 5.41222e-19 0 -29.4966 -0.00059295 -4.12532e-05 0.961192 -0.000112043 6.29369e-09)
(-8.57784e-14 1.37177e-19 0 -5.85639 0.000636878 -3.43659e-05 0.613775 0.000108742 -2.22438e-08)
(0 0 0 -5.89424 3.80742e-35 -3.42037e-05 0.614147 0 2.12719e-08)
(-1.42918e-14 0 0 0.0235197 0 -2.54196e-05 0.611491 -8.52613e-35 -7.17478e-09)
(5.71675e-14 -6.00936e-19 0 1.07303e-12 -0.000526398 -2.53921e-05 0.610874 -9.92061e-05 8.36122e-09)
(-2.97487e-14 5.33091e-19 0 36.3494 0.000553746 -1.80343e-05 1.42486 9.64867e-05 -2.30121e-08)
(5.68857e-14 6.01853e-36 -1.85101e-21 36.3262 9.21572e-19 -1.78604e-05 1.42418 1.35525e-20 2.17753e-08)
(-2.83912e-14 -1.20371e-35 0 66.0091 0 -2.86318e-06 2.32251 -1.35525e-20 -9.20718e-09)
(0 -7.29792e-20 0 65.985 -0.000442401 -1.45442e-06 2.32182 -8.77107e-05 1.06978e-08)
(-1.42263e-14 5.46693e-19 0 97.0117 0.000475967 1.99392e-06 3.2621 8.60418e-05 -2.4294e-08)
(0 -1.54595e-17 0 96.9881 -8.67362e-19 2.18798e-06 3.26143 0 2.27201e-08)
(0 -7.77839e-18 0 127.769 5.42101e-20 1.51551e-05 4.19772 0 -1.15614e-08)
(-5.72916e-14 4.82135e-19 0 127.747 -0.000370325 1.52537e-05 4.19713 -7.75907e-05 1.34367e-08)
(1.44917e-14 -6.70906e-19 0 156.659 0.000426881 2.97674e-05 5.07982 7.72226e-05 -2.62024e-08)
(5.79669e-14 0 0 156.641 5.42101e-20 2.99867e-05 5.07934 0 2.42027e-08)
(2.91824e-14 -1.08937e-17 0 182.064 -6.50521e-19 4.68327e-05 5.85714 0 -1.43148e-08)
(-7.33913e-14 3.9953e-19 0 182.05 -0.000352099 4.69704e-05 5.8568 -6.81713e-05 1.66744e-08)
(-1.50563e-14 4.07383e-19 0 202.452 0.000350777 6.24635e-05 6.47955 6.85423e-05 -2.88106e-08)
(6.02253e-14 1.44445e-34 0 202.443 -5.42101e-19 6.27088e-05 6.47937 -3.74148e-35 2.62708e-08)
(-1.4035e-14 -2.22293e-18 0 216.459 0 7.99682e-05 6.90069 0 -1.74792e-08)
(0 -4.08236e-19 -1.6731e-21 216.456 -0.000294681 8.01411e-05 6.90067 -6.03842e-05 2.04502e-08)
(-1.38338e-14 5.34315e-19 0 222.994 0.000288932 9.60743e-05 7.08202 6.12682e-05 -3.21179e-08)
(4.97705e-14 0 -3.29824e-21 222.996 -2.71051e-20 9.63399e-05 7.08217 -6.77626e-21 2.88955e-08)
(4.36755e-14 -6.91819e-18 0 221.338 -4.87891e-19 0.000113405 6.99672 -6.77626e-21 -2.09644e-08)
(-2.72711e-14 4.74641e-19 0 221.345 -0.000249995 0.000113603 6.99703 -5.39643e-05 2.47055e-08)
(0 6.72918e-19 0 211.241 0.000267675 0.000131095 6.63317 5.5131e-05 -3.60327e-08)
(-9.46413e-14 -7.52204e-18 -6.40874e-21 211.253 -1.40685e-20 0.000131369 6.63361 1.35525e-20 3.19447e-08)
(-2.6495e-14 -1.72179e-18 -3.15845e-21 192.97 4.06576e-19 0.000152575 5.99667 0 -2.4565e-08)
(0 2.71626e-19 0 192.985 -0.000196071 0.000152783 5.99721 -4.77477e-05 2.92777e-08)
(0 4.04713e-19 0 167.319 0.00026566 0.000178335 5.11122 5.05383e-05 -4.03698e-08)
(0 -7.40919e-18 0 167.336 -1.76927e-21 0.000178601 5.11185 0 3.51882e-08)
(1.85343e-14 -1.35865e-18 0 135.582 0 0.000211928 4.01801 0 -2.79781e-08)
(0 -1.08627e-18 0 135.602 -0.000145454 0.000212128 4.01868 -4.11613e-05 3.39115e-08)
(1.8986e-14 5.44424e-19 0 99.4557 0.000250071 0.000253102 2.77295 4.75045e-05 -4.48919e-08)
(0 -6.80295e-18 -6.04915e-21 99.4758 -3.52366e-19 0.000253344 2.77365 0 3.83294e-08)
(-3.87262e-14 0 0 60.904 5.28549e-19 0.000303805 1.4421 4.05764e-35 -3.08518e-08)
(7.7452e-14 -1.37136e-19 0 60.9241 -0.000121967 0.00030398 1.44279 -3.46976e-05 3.83136e-08)
(1.11002e-13 1.35171e-19 0 5.42203 0.000186978 0.000360392 0.095393 4.52185e-05 -4.93742e-08)
(0 0 0 5.45943 -7.50349e-35 0.000360597 0.0960511 6.77626e-21 4.1078e-08)
(3.56685e-13 -2.92827e-18 0 -0.0296755 -1.89735e-19 0.000421555 0.000529691 3.38813e-21 -3.28747e-08)
(-2.42966e-14 -4.05493e-19 -5.79276e-21 -0.00119374 -0.000142698 0.000421696 2.13076e-05 -3.00873e-05 4.22377e-08)
(0 5.42425e-19 0 -49.2926 8.2988e-05 0.000480127 1.19868 4.21946e-05 -5.37001e-08)
(0 -1.49039e-18 -1.14195e-20 -49.2769 2.74072e-19 0.00048029 1.19807 0 4.32339e-08)
(0 -2.63296e-18 -1.12558e-20 -78.6027 3.47606e-20 0.000530091 2.38041 -3.38813e-21 -3.38457e-08)
(-2.36051e-14 -4.05209e-19 0 -78.5892 -0.000219035 0.000530197 2.37987 -2.89716e-05 4.55663e-08)
(0 5.4363e-19 0 -102.405 -1.90462e-05 0.000563346 3.40343 3.63972e-05 -5.79127e-08)
(1.49706e-13 0 0 -102.394 -2.10064e-19 0.000563471 3.40298 3.24658e-34 4.47451e-08)
(-3.66068e-14 0 0 -120.371 0 0.000572713 4.23771 0 -3.36989e-08)
(7.32137e-14 0 0 -120.363 -0.00029698 0.000572791 4.23734 -3.15121e-05 4.83387e-08)
(4.0482e-14 -4.06897e-19 0 -132.674 -0.000107443 0.000549987 4.872 2.76461e-05 -6.22198e-08)
(0 0 0 -132.668 0 0.000550084 4.87173 0 4.57003e-08)
(0 -3.87809e-18 0 -139.902 2.81419e-19 0.00049248 5.31285 6.77626e-21 -3.24526e-08)
(-6.979e-14 -1.38115e-19 -2.12485e-20 -139.897 -0.000304454 0.000492539 5.31265 -3.74207e-05 5.07135e-08)
(-3.89842e-14 -1.08385e-18 -2.0944e-20 -142.938 -8.99774e-05 0.000399633 5.58152 1.85792e-05 -6.69182e-08)
(6.80917e-14 0 0 -142.936 2.23837e-21 0.000399712 5.5814 1.69407e-21 4.62605e-08)
(2.16466e-14 -2.34753e-18 0 -142.843 -2.71051e-19 0.000275778 5.7101 0 -3.011e-08)
(-2.16466e-14 -4.07714e-19 0 -142.841 -0.000224353 0.000275827 5.71003 -4.27358e-05 5.28673e-08)
(0 -4.0664e-19 3.06981e-19 -140.718 1.41608e-05 0.00010545 5.73729 1.2753e-05 -7.23271e-08)
(0 0 0 -140.718 -5.0822e-21 0.000105085 5.73727 1.50458e-34 4.65792e-08)
(-1.58159e-14 1.79051e-34 0 -137.585 6.43024e-19 -9.6083e-06 5.70337 1.7807e-36 -2.65779e-08)
(0 0 -1.06807e-37 -137.585 -6.00378e-05 -3.84814e-22 5.70336 -4.39123e-05 0)
(-1.01356e-14 -1.49131e-18 3.95376e-20 -134.29 0.000170675 -0.000189216 5.64508 1.39085e-05 -7.87284e-08)
(1.23459e-13 -8.6133e-23 0 -134.29 0 -0.000189158 5.64508 -6.20654e-07 4.6741e-08)
(0 -5.91646e-21 0 -131.455 3.08269e-19 -0.000331179 5.5927 0 -2.16199e-08)
(-2.0432e-14 -4.09195e-19 0 -131.455 9.98567e-05 -0.000331145 5.59268 -3.85369e-05 5.68624e-08)
(-2.01391e-14 5.41674e-19 -1.92062e-20 -129.461 0.000275762 -0.000446591 5.568 2.23479e-05 -8.63712e-08)
(-2.01391e-14 -1.37927e-19 -1.92062e-20 -129.46 0 -0.000446546 5.56797 0 4.67477e-08)
(-6.26876e-14 1.32408e-34 0 -128.449 2.40826e-19 -0.000527206 5.58344 6.77626e-21 -1.48711e-08)
(1.34083e-13 1.62806e-18 0 -128.448 0.000170522 -0.000527182 5.58339 -2.8461e-05 5.86149e-08)
(0 -1.62572e-18 0 -128.358 0.000278045 -0.00057025 5.64207 3.4692e-05 -9.55043e-08)
(1.11035e-13 0 0 -128.356 2.24636e-19 -0.000570221 5.642 -1.69407e-21 4.65426e-08)
(-1.34678e-14 0 0 -128.966 1.68855e-19 -0.000576627 5.73884 1.05391e-36 -5.87881e-09)
(0 -6.7821e-19 -1.83921e-20 -128.963 0.000133774 -0.000576617 5.73874 -1.79821e-05 6.00385e-08)
(1.30438e-14 -1.62704e-18 0 -129.949 0.000195689 -0.000551527 5.86244 4.64464e-05 -1.06439e-07)
(1.04351e-13 1.54074e-33 0 -129.947 0 -0.000551516 5.86233 3.38813e-21 4.60637e-08)
(0 0 0 -130.937 -1.33946e-20 -0.000501803 5.99736 -3.38813e-21 5.85926e-09)
(5.04359e-14 1.08441e-18 0 -130.934 4.12103e-05 -0.00050181 5.99723 -1.09458e-05 6.10103e-08)
(-6.30217e-15 -5.41588e-19 0 -131.567 7.75029e-05 -0.000437234 6.12626 5.51223e-05 -1.19617e-07)
(1.84682e-14 0 0 -131.565 -1.35525e-19 -0.00043724 6.12613 3.38813e-21 4.53023e-08)
(2.34375e-14 -1.68571e-19 0 -131.532 -4.96248e-19 -0.000365596 6.2327 3.38813e-21 2.08804e-08)
(4.6875e-14 -4.06574e-19 -4.34004e-21 -131.53 -4.65826e-05 -0.000365618 6.23258 -9.24198e-06 6.14563e-08)
(1.79426e-14 4.06395e-19 0 -130.6 -1.65316e-06 -0.000294333 6.30233 6.09298e-05 -1.35642e-07)
(-1.79426e-14 -7.78134e-35 -4.27784e-21 -130.598 -1.36425e-20 -0.000294354 6.30223 0 4.43339e-08)
(0 -9.04043e-19 0 -128.64 -2.22954e-19 -0.000228468 6.32449 0 3.97804e-08)
(6.10048e-14 5.42087e-19 0 -128.639 -9.47489e-05 -0.0002285 6.32441 -1.12958e-05 6.13504e-08)
(2.0795e-14 -5.4237e-19 0 -125.63 -3.33254e-05 -0.000171623 6.29335 6.5828e-05 -1.55291e-07)
(0 9.62965e-35 0 -125.629 -1.15196e-19 -0.000116985 6.2933 3.38813e-21 4.33259e-08)
(9.97857e-15 -1.24723e-18 0 -121.639 -2.97009e-19 -0.000124812 6.20796 6.77626e-21 6.32368e-08)
(3.99143e-14 1.21974e-18 0 -121.638 -9.77254e-05 -1.63618e-05 6.20794 -1.49515e-05 1.43062e-06)
(-8.4679e-15 -1.08415e-18 -2.01891e-21 -116.821 -2.93302e-05 -8.82883e-05 6.07184 7.22596e-05 -1.79502e-07)
(4.67725e-14 0 3.44847e-21 -116.822 -9.14175e-20 3.3064e-06 6.07184 3.17789e-34 2.05501e-07)
(-9.19209e-15 -2.9008e-19 0 -111.399 6.77626e-21 -6.0827e-05 5.89279 -1.35525e-20 9.207e-08)
(-3.67684e-14 4.05954e-19 -2.01935e-21 -111.4 -7.92029e-05 3.2831e-06 5.89282 -1.84556e-05 1.35168e-07)
(-2.52809e-14 1.34359e-19 -1.96145e-21 -105.636 -1.12107e-05 -2.44007e-05 5.68214 8.16831e-05 -2.0939e-07)
(0 0 0 -105.637 -8.80914e-20 3.19554e-06 5.68219 1.87822e-35 2.02222e-07)
(-8.48039e-15 -1.72117e-19 0 -99.8153 -3.86247e-19 -3.38849e-06 5.45338 0 5.69471e-07)
(-3.39215e-14 2.70667e-19 -1.69772e-21 -99.8164 -5.88892e-05 3.17642e-06 5.45344 -2.10218e-05 1.37067e-07)
(7.99277e-15 -4.06375e-19 -9.52813e-22 -94.2242 4.47983e-06 5.77925e-06 5.22147 9.46732e-05 3.91324e-07)
(0 -9.62965e-35 1.90563e-21 -94.2253 4.67984e-21 3.04327e-06 5.22154 3.38813e-21 1.93591e-07)
(0 -1.97685e-19 -9.39157e-22 -89.1387 0 7.43873e-06 5.00199 -1.35525e-20 1.18161e-06)
(6.2669e-14 5.41893e-19 7.3978e-21 -89.1395 -4.24314e-05 3.03708e-06 5.00204 -2.26802e-05 1.40396e-07)
(-7.52643e-15 6.7761e-19 1.85139e-21 -84.8108 1.4699e-05 5.76265e-06 4.81046 0.000108504 9.70455e-07)
(3.01057e-14 1.50463e-36 9.45306e-22 -84.8111 0 2.86244e-06 4.81049 -1.32405e-36 1.79613e-07)