/*--------------------------------*- C++ -*----------------------------------*\
| =========                 |                                                 |
| \\      /  F ield         | OpenFOAM: The Open Source CFD Toolbox           |
|  \\    /   O peration     | Version:  2106                                  |
|   \\  /    A nd           | Website:  www.openfoam.com                      |
|    \\/     M anipulation  |                                                 |
\*---------------------------------------------------------------------------*/
FoamFile
{
    version     2.0;
    format      ascii;
    arch        "LSB;label=32;scalar=64";
    class       volScalarField;
    location    "12000";
    object      p;
}
// * * * * * * * * * * * * * * * * * * * * * * * * * * * * * * * * * * * * * //

dimensions      [0 2 -2 0 0 0 0];

internalField   nonuniform List<scalar> 
2560
(
1.02664e-14
7.30258e-14
2.14843e-14
7.30253e-14
2.38125e-14
7.30248e-14
2.38278e-14
7.30243e-14
2.41582e-14
7.30237e-14
2.4715e-14
7.30229e-14
2.52733e-14
7.3022e-14
2.57938e-14
7.30209e-14
2.62966e-14
7.30197e-14
2.67911e-14
7.30183e-14
2.72788e-14
7.30167e-14
2.77601e-14
7.3015e-14
2.82353e-14
7.30131e-14
2.87043e-14
7.3011e-14
2.91669e-14
7.30089e-14
2.96233e-14
7.30066e-14
3.00734e-14
7.30043e-14
3.05172e-14
7.30018e-14
3.09548e-14
7.29992e-14
3.13866e-14
7.29964e-14
3.18125e-14
7.29934e-14
3.22324e-14
7.29904e-14
3.26465e-14
7.29874e-14
3.30552e-14
7.29841e-14
3.34582e-14
7.29807e-14
3.38556e-14
7.29771e-14
3.42475e-14
7.29734e-14
3.46343e-14
7.29697e-14
3.50158e-14
7.2966e-14
3.53921e-14
7.29622e-14
3.57632e-14
7.29582e-14
3.61294e-14
7.29538e-14
3.64905e-14
7.29495e-14
3.68468e-14
7.29451e-14
3.71983e-14
7.29408e-14
3.7545e-14
7.29364e-14
3.78868e-14
7.29319e-14
3.82243e-14
7.2927e-14
3.85573e-14
7.29222e-14
3.88858e-14
7.29172e-14
3.92098e-14
7.2912e-14
3.95294e-14
7.29071e-14
3.98448e-14
7.29023e-14
4.01557e-14
7.28973e-14
4.04626e-14
7.2892e-14
4.07652e-14
7.28866e-14
4.10637e-14
7.28814e-14
4.13582e-14
7.28764e-14
4.16486e-14
7.28713e-14
4.1935e-14
7.2866e-14
4.2218e-14
7.28606e-14
4.24971e-14
7.2855e-14
4.27718e-14
7.28494e-14
4.30432e-14
7.28438e-14
4.33108e-14
7.2838e-14
4.35747e-14
7.28326e-14
4.38354e-14
7.28274e-14
4.40928e-14
7.28218e-14
4.43468e-14
7.28159e-14
4.45973e-14
7.28103e-14
4.48444e-14
7.28047e-14
4.50885e-14
7.27994e-14
4.53293e-14
7.27939e-14
4.55668e-14
7.27886e-14
4.58015e-14
7.27833e-14
4.60332e-14
7.27777e-14
4.62618e-14
7.27719e-14
4.64875e-14
7.27662e-14
4.67107e-14
7.27604e-14
4.69313e-14
7.27551e-14
4.71482e-14
7.27505e-14
4.73625e-14
7.27455e-14
4.75745e-14
7.27401e-14
4.77841e-14
7.27351e-14
4.79912e-14
7.27305e-14
4.81956e-14
7.27261e-14
4.83971e-14
7.27217e-14
4.85964e-14
7.27177e-14
4.87933e-14
7.27143e-14
4.89887e-14
7.27107e-14
4.91814e-14
7.27076e-14
4.93719e-14
7.27032e-14
4.95614e-14
7.26985e-14
4.97483e-14
7.26949e-14
4.99333e-14
7.26921e-14
5.01165e-14
7.26899e-14
5.02984e-14
7.26873e-14
5.04787e-14
7.26841e-14
5.06575e-14
7.26817e-14
5.08353e-14
7.26805e-14
5.10116e-14
7.26793e-14
5.11862e-14
7.26788e-14
5.13587e-14
7.26794e-14
5.15302e-14
7.26805e-14
5.17024e-14
7.26809e-14
5.18735e-14
7.26812e-14
5.2045e-14
7.26826e-14
5.22152e-14
7.2685e-14
5.23841e-14
7.26873e-14
5.25532e-14
7.26882e-14
5.27219e-14
7.269e-14
5.28899e-14
7.26924e-14
5.30549e-14
7.26956e-14
5.32201e-14
7.27005e-14
5.3386e-14
7.27067e-14
5.3551e-14
7.27129e-14
5.37157e-14
7.27198e-14
5.3881e-14
7.27261e-14
5.40466e-14
7.27313e-14
5.42123e-14
7.27372e-14
5.43776e-14
7.27445e-14
5.45431e-14
7.27516e-14
5.47081e-14
7.27559e-14
5.48757e-14
7.27593e-14
5.50434e-14
7.27619e-14
5.52127e-14
7.27629e-14
5.53828e-14
7.27625e-14
5.55533e-14
7.27624e-14
5.57217e-14
7.27628e-14
5.58931e-14
7.27629e-14
5.60656e-14
7.2761e-14
5.62346e-14
7.27607e-14
5.64035e-14
7.27605e-14
5.65732e-14
7.27622e-14
5.67426e-14
7.27632e-14
5.69124e-14
7.27673e-14
5.70817e-14
7.27748e-14
5.72512e-14
7.27818e-14
5.74227e-14
7.27876e-14
5.75912e-14
7.27951e-14
5.77614e-14
7.28046e-14
5.79311e-14
7.282e-14
5.81023e-14
7.28357e-14
5.82748e-14
7.28487e-14
5.84444e-14
7.28682e-14
5.86158e-14
7.28862e-14
5.87902e-14
7.2904e-14
5.89631e-14
7.29216e-14
5.91427e-14
7.29453e-14
5.93227e-14
7.29649e-14
5.94964e-14
7.29762e-14
5.96721e-14
7.29962e-14
5.98498e-14
7.3021e-14
6.00315e-14
7.30354e-14
6.02103e-14
7.30592e-14
6.03905e-14
7.30861e-14
6.0572e-14
7.31117e-14
6.07546e-14
7.31383e-14
6.09403e-14
7.31571e-14
6.11267e-14
7.31818e-14
6.13136e-14
7.32056e-14
6.15032e-14
7.3231e-14
6.16953e-14
7.32629e-14
6.1892e-14
7.32896e-14
6.20792e-14
7.33136e-14
6.22706e-14
7.33326e-14
6.24615e-14
7.33562e-14
6.2654e-14
7.33943e-14
6.28504e-14
7.34351e-14
6.30407e-14
7.34688e-14
6.32246e-14
7.35006e-14
6.33992e-14
7.35404e-14
6.35794e-14
7.3581e-14
6.37673e-14
7.36226e-14
6.39528e-14
7.36577e-14
6.41406e-14
7.36942e-14
6.4328e-14
7.37294e-14
6.45123e-14
7.37637e-14
6.46931e-14
7.38075e-14
6.48727e-14
7.38505e-14
6.5051e-14
7.39089e-14
6.52328e-14
7.3967e-14
6.54127e-14
7.40145e-14
6.5585e-14
7.40675e-14
6.57599e-14
7.41262e-14
6.59427e-14
7.41695e-14
6.61224e-14
7.42189e-14
6.63094e-14
7.42692e-14
6.64818e-14
7.43316e-14
6.66556e-14
7.44009e-14
6.68359e-14
7.44609e-14
6.70113e-14
7.45228e-14
6.71872e-14
7.45759e-14
6.73631e-14
7.46368e-14
6.75332e-14
7.46949e-14
6.76972e-14
7.47502e-14
6.78603e-14
7.48031e-14
6.80107e-14
7.4865e-14
6.8165e-14
7.49193e-14
6.8317e-14
7.49777e-14
6.84776e-14
7.50404e-14
6.86294e-14
7.50905e-14
6.87834e-14
7.51399e-14
6.8939e-14
7.52058e-14
6.90902e-14
7.52773e-14
6.92479e-14
7.53142e-14
6.94003e-14
7.53629e-14
6.95467e-14
7.54469e-14
6.97041e-14
7.55144e-14
6.98604e-14
7.55657e-14
7.00151e-14
7.56303e-14
7.0156e-14
7.57027e-14
7.03e-14
7.576e-14
7.04467e-14
7.58141e-14
7.0584e-14
7.58654e-14
7.07347e-14
7.59083e-14
7.08693e-14
7.59546e-14
7.10048e-14
7.59871e-14
7.1141e-14
7.60176e-14
7.12656e-14
7.60582e-14
7.139e-14
7.61092e-14
7.15135e-14
7.61354e-14
7.16359e-14
7.61251e-14
7.17689e-14
7.61374e-14
7.19003e-14
7.61606e-14
7.20177e-14
7.62184e-14
7.21564e-14
7.62398e-14
7.22806e-14
7.62364e-14
7.2402e-14
7.62436e-14
7.25205e-14
7.62971e-14
7.26474e-14
7.63014e-14
7.27826e-14
7.63038e-14
7.29143e-14
7.63278e-14
7.30305e-14
7.63731e-14
7.31544e-14
7.638e-14
7.32861e-14
7.6372e-14
7.34138e-14
7.63839e-14
7.3526e-14
7.64151e-14
7.3658e-14
7.64538e-14
7.37741e-14
7.64757e-14
7.3898e-14
7.64683e-14
7.40183e-14
7.64901e-14
7.4147e-14
7.65526e-14
7.42841e-14
7.65607e-14
7.43947e-14
7.65371e-14
7.45036e-14
7.65751e-14
7.46225e-14
7.65916e-14
7.47284e-14
7.66096e-14
7.48453e-14
7.66047e-14
7.49508e-14
7.6634e-14
7.50686e-14
7.66731e-14
7.51761e-14
7.66625e-14
7.52861e-14
7.66823e-14
7.5376e-14
7.67428e-14
7.54688e-14
7.67735e-14
7.55876e-14
7.68432e-14
7.56857e-14
7.69053e-14
7.58096e-14
7.68675e-14
7.58697e-14
7.68416e-14
7.59591e-14
7.67792e-14
7.60564e-14
7.67683e-14
7.61407e-14
7.6829e-14
7.62343e-14
7.68696e-14
7.62922e-14
7.69572e-14
7.64028e-14
7.69569e-14
7.65446e-14
7.69335e-14
7.6654e-14
7.69718e-14
7.67319e-14
7.70915e-14
7.69097e-14
7.71367e-14
7.70802e-14
7.71476e-14
7.71604e-14
7.72285e-14
7.726e-14
7.72901e-14
7.73134e-14
7.73751e-14
7.74727e-14
7.74625e-14
7.7609e-14
7.75927e-14
7.77454e-14
7.7699e-14
7.784e-14
7.77804e-14
7.79791e-14
7.78579e-14
7.81435e-14
7.79714e-14
7.82291e-14
7.81183e-14
7.83184e-14
7.82365e-14
7.83675e-14
7.83265e-14
7.84367e-14
7.84105e-14
7.85864e-14
7.85509e-14
7.87339e-14
7.87663e-14
7.88767e-14
7.8915e-14
7.90157e-14
7.89976e-14
7.91121e-14
7.90934e-14
7.92459e-14
7.92427e-14
7.93751e-14
7.94463e-14
7.95575e-14
7.96087e-14
7.96757e-14
7.97109e-14
7.977e-14
7.97927e-14
7.98395e-14
7.99113e-14
7.99571e-14
8.0089e-14
8.00813e-14
8.02902e-14
8.017e-14
8.03679e-14
8.02994e-14
8.03991e-14
8.04345e-14
8.05656e-14
8.05738e-14
8.06818e-14
8.06827e-14
8.08199e-14
8.07937e-14
8.09082e-14
8.10176e-14
8.10186e-14
8.10747e-14
8.11423e-14
8.11059e-14
8.12843e-14
8.12072e-14
8.14196e-14
8.13741e-14
8.14818e-14
8.14039e-14
8.15336e-14
8.1536e-14
8.16465e-14
8.15342e-14
8.16832e-14
8.16315e-14
8.1783e-14
8.17199e-14
8.19122e-14
8.18607e-14
8.20428e-14
8.20234e-14
8.21421e-14
8.20506e-14
8.22366e-14
8.22548e-14
8.2335e-14
8.23911e-14
8.24581e-14
8.25284e-14
8.25408e-14
8.26737e-14
8.26724e-14
8.27972e-14
8.27899e-14
8.29039e-14
8.29238e-14
8.29598e-14
8.30166e-14
8.30756e-14
8.31351e-14
8.32279e-14
8.32513e-14
8.33025e-14
8.33602e-14
8.3444e-14
8.34382e-14
8.36005e-14
8.35614e-14
8.37507e-14
8.36956e-14
8.38436e-14
8.38081e-14
8.39319e-14
8.39297e-14
7.10614e-14
7.24706e-14
7.10611e-14
7.24706e-14
7.1061e-14
7.24706e-14
7.10608e-14
7.24705e-14
7.10605e-14
7.24705e-14
7.10602e-14
7.24704e-14
7.10598e-14
7.24703e-14
7.10593e-14
7.24703e-14
7.10588e-14
7.24702e-14
7.10583e-14
7.247e-14
7.10576e-14
7.24699e-14
7.1057e-14
7.24697e-14
7.10563e-14
7.24694e-14
7.10556e-14
7.24691e-14
7.10549e-14
7.24687e-14
7.10542e-14
7.24684e-14
7.10533e-14
7.24681e-14
7.10524e-14
7.24676e-14
7.10515e-14
7.24672e-14
7.10504e-14
7.24667e-14
7.10493e-14
7.24662e-14
7.10481e-14
7.24659e-14
7.10469e-14
7.24657e-14
7.10456e-14
7.24653e-14
7.10445e-14
7.24648e-14
7.10432e-14
7.24641e-14
7.10418e-14
7.24635e-14
7.10405e-14
7.2463e-14
7.10391e-14
7.24625e-14
7.10378e-14
7.24619e-14
7.10362e-14
7.2461e-14
7.10346e-14
7.24602e-14
7.1033e-14
7.24597e-14
7.10314e-14
7.24592e-14
7.10296e-14
7.24586e-14
7.10278e-14
7.24579e-14
7.10261e-14
7.24573e-14
7.10243e-14
7.24569e-14
7.10226e-14
7.24561e-14
7.1021e-14
7.24553e-14
7.10195e-14
7.24547e-14
7.10178e-14
7.24543e-14
7.10161e-14
7.24538e-14
7.10145e-14
7.24531e-14
7.10128e-14
7.24525e-14
7.10109e-14
7.24517e-14
7.10092e-14
7.2451e-14
7.10074e-14
7.24503e-14
7.10056e-14
7.24495e-14
7.10037e-14
7.24485e-14
7.10021e-14
7.24474e-14
7.1e-14
7.24464e-14
7.09983e-14
7.24454e-14
7.09963e-14
7.24445e-14
7.09944e-14
7.24433e-14
7.09927e-14
7.24422e-14
7.09909e-14
7.2441e-14
7.09892e-14
7.24402e-14
7.09873e-14
7.24393e-14
7.09858e-14
7.2438e-14
7.09846e-14
7.24366e-14
7.09836e-14
7.24353e-14
7.09826e-14
7.24345e-14
7.09818e-14
7.24334e-14
7.09809e-14
7.24325e-14
7.09805e-14
7.24317e-14
7.09798e-14
7.24305e-14
7.09792e-14
7.24297e-14
7.0979e-14
7.24283e-14
7.09787e-14
7.24267e-14
7.09787e-14
7.24254e-14
7.09788e-14
7.24242e-14
7.09788e-14
7.24233e-14
7.09788e-14
7.24227e-14
7.09786e-14
7.24221e-14
7.09784e-14
7.24212e-14
7.09784e-14
7.24205e-14
7.09789e-14
7.24197e-14
7.09795e-14
7.2418e-14
7.09802e-14
7.24155e-14
7.09816e-14
7.24138e-14
7.09831e-14
7.24118e-14
7.09853e-14
7.24098e-14
7.09875e-14
7.24081e-14
7.09901e-14
7.24064e-14
7.09924e-14
7.24048e-14
7.09946e-14
7.24034e-14
7.09973e-14
7.24018e-14
7.10001e-14
7.24009e-14
7.10034e-14
7.24008e-14
7.10077e-14
7.24e-14
7.10114e-14
7.24e-14
7.10153e-14
7.23998e-14
7.10195e-14
7.23983e-14
7.10236e-14
7.23979e-14
7.10281e-14
7.2399e-14
7.10327e-14
7.2401e-14
7.10373e-14
7.24024e-14
7.10433e-14
7.24024e-14
7.10486e-14
7.24028e-14
7.1055e-14
7.24053e-14
7.10604e-14
7.24085e-14
7.10677e-14
7.24117e-14
7.10767e-14
7.2414e-14
7.10848e-14
7.24171e-14
7.10942e-14
7.24198e-14
7.11017e-14
7.24229e-14
7.11092e-14
7.24277e-14
7.11182e-14
7.24322e-14
7.11286e-14
7.24362e-14
7.11385e-14
7.24416e-14
7.11479e-14
7.24465e-14
7.11576e-14
7.24494e-14
7.11677e-14
7.24537e-14
7.11783e-14
7.24585e-14
7.11902e-14
7.24638e-14
7.12e-14
7.24688e-14
7.12113e-14
7.24753e-14
7.12223e-14
7.24833e-14
7.12331e-14
7.2491e-14
7.12455e-14
7.24984e-14
7.12578e-14
7.25037e-14
7.12708e-14
7.25097e-14
7.12847e-14
7.25183e-14
7.12994e-14
7.25257e-14
7.1317e-14
7.25319e-14
7.13327e-14
7.25379e-14
7.13495e-14
7.25466e-14
7.13664e-14
7.25551e-14
7.13864e-14
7.25624e-14
7.14046e-14
7.25745e-14
7.14241e-14
7.25874e-14
7.14439e-14
7.25972e-14
7.1463e-14
7.26069e-14
7.14804e-14
7.26225e-14
7.14992e-14
7.26391e-14
7.15195e-14
7.26567e-14
7.15381e-14
7.26732e-14
7.15551e-14
7.26929e-14
7.15748e-14
7.27115e-14
7.16014e-14
7.27248e-14
7.16221e-14
7.27456e-14
7.16435e-14
7.2774e-14
7.16676e-14
7.27994e-14
7.16991e-14
7.2815e-14
7.17292e-14
7.28318e-14
7.17578e-14
7.2852e-14
7.17917e-14
7.28735e-14
7.18266e-14
7.28962e-14
7.18624e-14
7.29134e-14
7.18946e-14
7.29342e-14
7.19302e-14
7.29516e-14
7.19668e-14
7.29727e-14
7.20093e-14
7.29974e-14
7.20507e-14
7.30164e-14
7.20957e-14
7.30343e-14
7.21469e-14
7.30583e-14
7.21875e-14
7.3086e-14
7.22343e-14
7.31151e-14
7.22852e-14
7.3143e-14
7.23327e-14
7.31748e-14
7.23769e-14
7.3208e-14
7.24303e-14
7.32325e-14
7.24755e-14
7.32633e-14
7.25275e-14
7.3303e-14
7.25764e-14
7.33391e-14
7.26195e-14
7.33816e-14
7.26672e-14
7.3423e-14
7.27195e-14
7.34554e-14
7.27739e-14
7.34867e-14
7.282e-14
7.35402e-14
7.28735e-14
7.35847e-14
7.29346e-14
7.36201e-14
7.29981e-14
7.36674e-14
7.30481e-14
7.37269e-14
7.31058e-14
7.37718e-14
7.31661e-14
7.3818e-14
7.3229e-14
7.38875e-14
7.32945e-14
7.39476e-14
7.33627e-14
7.39929e-14
7.34338e-14
7.40452e-14
7.34856e-14
7.41099e-14
7.35459e-14
7.41651e-14
7.36035e-14
7.42107e-14
7.36584e-14
7.42634e-14
7.37219e-14
7.43345e-14
7.37941e-14
7.43959e-14
7.38807e-14
7.44647e-14
7.39537e-14
7.45238e-14
7.40244e-14
7.45901e-14
7.40986e-14
7.46582e-14
7.41707e-14
7.47222e-14
7.42408e-14
7.47937e-14
7.4309e-14
7.48728e-14
7.43867e-14
7.49481e-14
7.44683e-14
7.50138e-14
7.45597e-14
7.50816e-14
7.46264e-14
7.5163e-14
7.46974e-14
7.5229e-14
7.47902e-14
7.52679e-14
7.48702e-14
7.53204e-14
7.49318e-14
7.53922e-14
7.49806e-14
7.54717e-14
7.50402e-14
7.55415e-14
7.50986e-14
7.55959e-14
7.51501e-14
7.56645e-14
7.52004e-14
7.57355e-14
7.52494e-14
7.57857e-14
7.53089e-14
7.5827e-14
7.53673e-14
7.58831e-14
7.54246e-14
7.59304e-14
7.54572e-14
7.59926e-14
7.55242e-14
7.60226e-14
7.56143e-14
7.6056e-14
7.56922e-14
7.61046e-14
7.57345e-14
7.61801e-14
7.57765e-14
7.62473e-14
7.58301e-14
7.63067e-14
7.5907e-14
7.63825e-14
7.59717e-14
7.64633e-14
7.60479e-14
7.65255e-14
7.61e-14
7.65815e-14
7.61757e-14
7.66316e-14
7.62513e-14
7.6688e-14
7.63393e-14
7.67505e-14
7.64042e-14
7.68075e-14
7.6446e-14
7.68476e-14
7.65244e-14
7.68709e-14
7.65925e-14
7.69487e-14
7.66501e-14
7.70219e-14
7.67091e-14
7.70554e-14
7.67816e-14
7.70614e-14
7.68211e-14
7.71342e-14
7.68744e-14
7.71796e-14
7.69178e-14
7.71979e-14
7.69516e-14
7.72251e-14
7.70113e-14
7.72374e-14
7.70502e-14
7.72816e-14
7.70919e-14
7.73465e-14
7.7124e-14
7.74096e-14
7.71576e-14
7.74603e-14
7.72039e-14
7.75112e-14
7.72508e-14
7.75631e-14
7.73098e-14
7.76518e-14
7.73803e-14
7.77436e-14
7.74852e-14
7.77586e-14
7.75105e-14
7.7788e-14
7.75487e-14
7.7855e-14
7.75986e-14
7.79156e-14
7.77061e-14
7.79254e-14
7.7759e-14
7.79299e-14
7.78274e-14
7.79515e-14
7.78896e-14
7.80119e-14
7.79914e-14
7.80435e-14
7.81128e-14
7.81124e-14
7.81879e-14
7.81508e-14
7.83079e-14
7.82041e-14
7.84304e-14
7.83159e-14
7.84677e-14
7.84189e-14
7.85064e-14
7.85385e-14
7.86315e-14
7.86128e-14
7.8713e-14
7.8641e-14
7.87532e-14
7.86881e-14
7.88405e-14
7.87759e-14
7.8865e-14
7.89266e-14
7.89523e-14
7.8993e-14
7.90373e-14
7.90402e-14
7.9122e-14
7.911e-14
7.9228e-14
7.91811e-14
7.93136e-14
7.93157e-14
7.93989e-14
7.9431e-14
7.94833e-14
7.95081e-14
7.95686e-14
7.95896e-14
7.96561e-14
7.97386e-14
7.97423e-14
7.9896e-14
7.98029e-14
8.00235e-14
7.9936e-14
8.00842e-14
8.00629e-14
8.01372e-14
8.01888e-14
8.02194e-14
8.02158e-14
8.03479e-14
8.03177e-14
8.04263e-14
8.04337e-14
8.04925e-14
8.05668e-14
8.05833e-14
8.06818e-14
8.06579e-14
8.07249e-14
8.08111e-14
8.07666e-14
8.09324e-14
8.08574e-14
8.10066e-14
8.10362e-14
8.10724e-14
8.11222e-14
8.11623e-14
8.11909e-14
8.13122e-14
8.13466e-14
8.14172e-14
8.14461e-14
8.15111e-14
8.15276e-14
8.15949e-14
8.15865e-14
8.17051e-14
8.16557e-14
8.1774e-14
8.1737e-14
8.18717e-14
8.18639e-14
8.19279e-14
8.19702e-14
8.19731e-14
8.19611e-14
8.20028e-14
8.20366e-14
8.20867e-14
8.21985e-14
8.21593e-14
8.22886e-14
8.22456e-14
8.23432e-14
8.23434e-14
8.24551e-14
8.24557e-14
8.26215e-14
8.25176e-14
8.2698e-14
8.26155e-14
8.27754e-14
8.27189e-14
8.28807e-14
8.27977e-14
8.30154e-14
8.28812e-14
8.30605e-14
8.29917e-14
8.31613e-14
8.31052e-14
8.33157e-14
8.31913e-14
8.32952e-14
8.32717e-14
8.34141e-14
8.33878e-14
8.34887e-14
8.34788e-14
8.36371e-14
8.3606e-14
8.37443e-14
8.37105e-14
8.38376e-14
8.38498e-14
8.39642e-14
8.39732e-14
8.40117e-14
8.40818e-14
8.40138e-14
8.4038e-14
8.40908e-14
8.4114e-14
8.42211e-14
8.42141e-14
8.42938e-14
8.43069e-14
8.43357e-14
8.43667e-14
8.44923e-14
8.4488e-14
8.45891e-14
8.46084e-14
8.46781e-14
8.47266e-14
8.47853e-14
8.48784e-14
8.49365e-14
8.50109e-14
8.50124e-14
8.50888e-14
8.51648e-14
8.51721e-14
8.53059e-14
8.52842e-14
8.53795e-14
8.53911e-14
8.54743e-14
8.55276e-14
8.56523e-14
8.56329e-14
8.57325e-14
8.57644e-14
8.58713e-14
8.5865e-14
8.59733e-14
8.5963e-14
8.60701e-14
8.60594e-14
8.61597e-14
8.62207e-14
8.63062e-14
8.63518e-14
8.64797e-14
8.65219e-14
8.65788e-14
8.66631e-14
8.66719e-14
8.68131e-14
8.68594e-14
8.69058e-14
8.70089e-14
8.70396e-14
8.71231e-14
8.71409e-14
8.72777e-14
8.7316e-14
8.73966e-14
8.74572e-14
8.74757e-14
8.7491e-14
8.76671e-14
8.75983e-14
8.78308e-14
8.77348e-14
8.78554e-14
8.78992e-14
8.79972e-14
8.79874e-14
8.81052e-14
8.81112e-14
8.81372e-14
8.82344e-14
8.81636e-14
8.8324e-14
8.82792e-14
8.83632e-14
8.83699e-14
8.84254e-14
8.83963e-14
8.85303e-14
8.84935e-14
8.86028e-14
8.86255e-14
8.86819e-14
8.86333e-14
8.87246e-14
8.87775e-14
8.87522e-14
8.88405e-14
8.88189e-14
8.88829e-14
8.8905e-14
8.89218e-14
8.90129e-14
8.90594e-14
8.91038e-14
8.9195e-14
8.92165e-14
8.92439e-14
8.92659e-14
8.92693e-14
8.92932e-14
8.93348e-14
8.93405e-14
8.94418e-14
8.94275e-14
8.94847e-14
8.9467e-14
8.95056e-14
8.95244e-14
8.96329e-14
8.96016e-14
8.96956e-14
8.96538e-14
8.97599e-14
8.96583e-14
8.97401e-14
8.9723e-14
8.97647e-14
8.97847e-14
8.98325e-14
8.97782e-14
8.98122e-14
8.97896e-14
8.98134e-14
8.98859e-14
8.98557e-14
8.99366e-14
8.98946e-14
8.99191e-14
8.99094e-14
8.99219e-14
8.99232e-14
8.99452e-14
8.99582e-14
9.00118e-14
8.99909e-14
9.00538e-14
9.00443e-14
9.0116e-14
9.00956e-14
9.01762e-14
9.01218e-14
9.02359e-14
9.01454e-14
9.02498e-14
9.01664e-14
9.02641e-14
9.02083e-14
9.03248e-14
9.02478e-14
9.03399e-14
9.02507e-14
9.0297e-14
9.02526e-14
9.02764e-14
9.0289e-14
9.03248e-14
9.03132e-14
9.03726e-14
9.03248e-14
9.04091e-14
9.03466e-14
9.04226e-14
9.03672e-14
9.04482e-14
9.03865e-14
9.04743e-14
9.04164e-14
9.04776e-14
9.04338e-14
9.04811e-14
9.0427e-14
9.04961e-14
9.04431e-14
9.05112e-14
9.04463e-14
9.05146e-14
9.04724e-14
9.05183e-14
9.04741e-14
9.05577e-14
9.04744e-14
9.05858e-14
9.0485e-14
9.05669e-14
9.04942e-14
9.05603e-14
9.05023e-14
9.06015e-14
9.05207e-14
9.06192e-14
9.05377e-14
9.06253e-14
9.05534e-14
9.06197e-14
9.05562e-14
9.06019e-14
9.05702e-14
9.06196e-14
9.05952e-14
9.06368e-14
9.06074e-14
9.06295e-14
9.0619e-14
9.06217e-14
9.06301e-14
9.06251e-14
9.06409e-14
9.06396e-14
9.06512e-14
9.06412e-14
9.06611e-14
9.06298e-14
9.06589e-14
9.06409e-14
9.06682e-14
9.06628e-14
9.06769e-14
9.06956e-14
9.06731e-14
9.07157e-14
9.06804e-14
9.07117e-14
9.06988e-14
9.0707e-14
9.07048e-14
9.07373e-14
9.07043e-14
9.07673e-14
9.07147e-14
9.07558e-14
9.07244e-14
9.07442e-14
9.07277e-14
9.07499e-14
9.07246e-14
9.07611e-14
9.07385e-14
9.07722e-14
9.07459e-14
9.07889e-14
9.0741e-14
9.07997e-14
9.07586e-14
9.08048e-14
9.07698e-14
9.08098e-14
9.07689e-14
9.08322e-14
9.07846e-14
9.08258e-14
9.08056e-14
9.08137e-14
9.07861e-14
9.08187e-14
9.07833e-14
9.08235e-14
9.07915e-14
9.08283e-14
9.07822e-14
9.0833e-14
9.07725e-14
9.08263e-14
9.07679e-14
9.08366e-14
9.07684e-14
9.08525e-14
9.0774e-14
9.08405e-14
9.07622e-14
9.08285e-14
9.075e-14
9.08389e-14
9.07429e-14
9.08494e-14
9.07407e-14
9.08655e-14
9.07323e-14
9.08654e-14
9.07234e-14
9.08656e-14
9.07192e-14
9.08661e-14
9.07199e-14
9.08505e-14
9.07091e-14
9.0857e-14
9.06978e-14
9.08691e-14
9.06912e-14
9.08654e-14
9.06947e-14
9.08567e-14
9.06922e-14
9.08484e-14
9.06998e-14
9.08456e-14
9.07015e-14
9.08326e-14
9.06976e-14
9.08199e-14
9.06984e-14
9.081e-14
9.06963e-14
9.0808e-14
9.0699e-14
9.08036e-14
9.0709e-14
9.07967e-14
9.07085e-14
9.07975e-14
9.07052e-14
9.08034e-14
9.07067e-14
9.07993e-14
9.07054e-14
9.07928e-14
9.07064e-14
9.07889e-14
9.07047e-14
9.07899e-14
9.07101e-14
9.07812e-14
9.07008e-14
9.07799e-14
9.06961e-14
9.07762e-14
9.06961e-14
9.07774e-14
9.0696e-14
9.07762e-14
9.07004e-14
9.07822e-14
9.06999e-14
9.07788e-14
9.06923e-14
9.07662e-14
9.06915e-14
9.07584e-14
9.0693e-14
9.07576e-14
9.06965e-14
9.07568e-14
9.06932e-14
9.07583e-14
9.06898e-14
9.07554e-14
9.06885e-14
9.07547e-14
9.06872e-14
9.07586e-14
9.06836e-14
9.07537e-14
9.06821e-14
9.0749e-14
9.06827e-14
9.07551e-14
9.0681e-14
9.07613e-14
9.06793e-14
9.07611e-14
9.06755e-14
9.07631e-14
9.06715e-14
9.07693e-14
9.06675e-14
9.07694e-14
9.06625e-14
9.07654e-14
9.06573e-14
9.07667e-14
9.06532e-14
9.07711e-14
9.06479e-14
9.07746e-14
9.06416e-14
9.07771e-14
9.06353e-14
9.07778e-14
9.06309e-14
9.07767e-14
9.06273e-14
9.07747e-14
9.06246e-14
9.07747e-14
9.06209e-14
9.07777e-14
9.06171e-14
9.07799e-14
9.06142e-14
9.07812e-14
9.06111e-14
9.07798e-14
9.06089e-14
9.07814e-14
9.06057e-14
9.07848e-14
9.06024e-14
9.07847e-14
9.0599e-14
9.07847e-14
9.05973e-14
9.0784e-14
9.05946e-14
9.0786e-14
9.05919e-14
9.07881e-14
9.0589e-14
9.07894e-14
9.05861e-14
9.07899e-14
9.05839e-14
9.07879e-14
9.05825e-14
9.0786e-14
9.0581e-14
9.07851e-14
9.05794e-14
9.07852e-14
9.05786e-14
9.07844e-14
9.05768e-14
9.07825e-14
9.05754e-14
9.07811e-14
9.05739e-14
9.07815e-14
9.05719e-14
9.07816e-14
9.05698e-14
9.078e-14
9.05684e-14
9.07793e-14
9.05679e-14
9.07784e-14
9.05664e-14
9.07787e-14
9.05644e-14
9.07799e-14
9.05627e-14
9.078e-14
9.05614e-14
9.07792e-14
9.056e-14
9.07794e-14
9.05585e-14
9.07797e-14
9.05574e-14
9.07783e-14
9.05566e-14
9.07769e-14
9.05566e-14
9.07761e-14
9.05557e-14
9.0777e-14
9.05539e-14
9.07784e-14
9.05528e-14
9.07781e-14
9.05513e-14
9.0777e-14
9.05505e-14
9.07764e-14
9.05497e-14
9.07763e-14
9.05486e-14
9.07762e-14
9.05475e-14
9.07764e-14
9.05471e-14
9.0776e-14
9.05461e-14
9.07752e-14
9.05452e-14
9.07748e-14
9.05447e-14
9.0775e-14
9.05446e-14
9.07749e-14
9.05452e-14
9.07747e-14
9.05453e-14
9.07745e-14
9.05453e-14
9.07745e-14
9.05456e-14
9.07739e-14
9.05463e-14
9.07733e-14
9.05469e-14
9.07732e-14
9.05473e-14
9.0773e-14
9.05474e-14
9.07727e-14
9.05472e-14
9.07722e-14
9.05477e-14
9.07717e-14
9.05483e-14
9.0771e-14
9.05488e-14
9.07698e-14
9.0549e-14
9.07691e-14
9.05486e-14
9.07694e-14
9.05484e-14
9.07697e-14
9.05483e-14
9.07701e-14
9.05479e-14
9.077e-14
9.05474e-14
9.077e-14
9.0547e-14
9.07704e-14
9.05467e-14
9.07705e-14
9.05462e-14
9.07708e-14
9.05459e-14
9.07718e-14
9.05455e-14
9.07723e-14
9.0545e-14
9.07726e-14
9.05449e-14
9.07729e-14
9.0545e-14
9.07735e-14
9.05444e-14
9.07742e-14
9.05439e-14
9.07747e-14
9.05438e-14
9.07752e-14
9.05438e-14
9.0776e-14
9.05436e-14
9.07761e-14
9.05435e-14
9.07763e-14
9.05433e-14
9.07765e-14
9.05431e-14
9.07768e-14
9.05429e-14
9.0777e-14
9.05427e-14
9.07775e-14
9.05426e-14
9.07778e-14
9.05426e-14
9.0778e-14
9.05424e-14
9.07783e-14
9.05421e-14
9.07786e-14
9.05419e-14
9.07789e-14
9.05419e-14
9.07791e-14
9.05418e-14
9.07793e-14
9.05417e-14
9.07794e-14
9.05415e-14
9.07797e-14
9.05414e-14
9.07802e-14
9.05412e-14
9.07804e-14
9.05411e-14
9.07807e-14
9.05409e-14
9.07809e-14
9.05407e-14
9.07809e-14
9.05406e-14
9.07809e-14
9.05405e-14
9.07809e-14
9.05404e-14
9.07807e-14
9.05403e-14
9.07806e-14
9.05401e-14
9.07807e-14
9.05402e-14
9.07807e-14
9.05402e-14
9.07807e-14
9.05401e-14
9.07807e-14
9.05401e-14
9.07806e-14
9.05401e-14
9.07806e-14
9.05402e-14
9.07804e-14
9.05403e-14
9.07803e-14
9.05403e-14
9.07803e-14
9.05404e-14
9.07802e-14
9.05405e-14
9.07801e-14
9.05406e-14
9.078e-14
9.05406e-14
9.07799e-14
9.05407e-14
9.07798e-14
9.05407e-14
9.07798e-14
9.05407e-14
9.07798e-14
9.05408e-14
9.07797e-14
9.05407e-14
9.07797e-14
9.05407e-14
9.07797e-14
9.05407e-14
9.07796e-14
9.05407e-14
9.07796e-14
9.05407e-14
9.07797e-14
9.05407e-14
9.07797e-14
9.05407e-14
9.07797e-14
9.05407e-14
9.07797e-14
8.40251e-14
8.41279e-14
8.41092e-14
8.4228e-14
8.4234e-14
8.4299e-14
8.42917e-14
8.43876e-14
8.43349e-14
8.44092e-14
8.4516e-14
8.45049e-14
8.4672e-14
8.4691e-14
8.4772e-14
8.47963e-14
8.48759e-14
8.49108e-14
8.50129e-14
8.5064e-14
8.51496e-14
8.51664e-14
8.53568e-14
8.52455e-14
8.5433e-14
8.53478e-14
8.55597e-14
8.54767e-14
8.5643e-14
8.56346e-14
8.5705e-14
8.57337e-14
8.58331e-14
8.58096e-14
8.59703e-14
8.59194e-14
8.61191e-14
8.59942e-14
8.62553e-14
8.61264e-14
8.63119e-14
8.62848e-14
8.64132e-14
8.63761e-14
8.65237e-14
8.65008e-14
8.65691e-14
8.66587e-14
8.67128e-14
8.67902e-14
8.6853e-14
8.68926e-14
8.6955e-14
8.70347e-14
8.70129e-14
8.7184e-14
8.72004e-14
8.73495e-14
8.73753e-14
8.74918e-14
8.7468e-14
8.75706e-14
8.75538e-14
8.77351e-14
8.76617e-14
8.78803e-14
8.77121e-14
8.80079e-14
8.78924e-14
8.80824e-14
8.80588e-14
8.81725e-14
8.81402e-14
8.8272e-14
8.81752e-14
8.83616e-14
8.83183e-14
8.84242e-14
8.84378e-14
8.84551e-14
8.84989e-14
8.8528e-14
8.85213e-14
8.85827e-14
8.86225e-14
8.86404e-14
8.87436e-14
8.86983e-14
8.88089e-14
8.87947e-14
8.88965e-14
8.88508e-14
8.90088e-14
8.89265e-14
8.9024e-14
8.90412e-14
8.91036e-14
8.91787e-14
8.92867e-14
8.92797e-14
8.93247e-14
8.93609e-14
8.9363e-14
8.94247e-14
8.94224e-14
8.95364e-14
8.94579e-14
8.96566e-14
8.95514e-14
8.96593e-14
8.96211e-14
8.96908e-14
8.96688e-14
8.97496e-14
8.96928e-14
8.98137e-14
8.97129e-14
8.98407e-14
8.97725e-14
8.98967e-14
8.98069e-14
8.99373e-14
8.98826e-14
8.99842e-14
8.99118e-14
9.00818e-14
8.99601e-14
9.0099e-14
8.99618e-14
9.01454e-14
8.996e-14
9.01545e-14
8.99768e-14
9.01264e-14
9.00134e-14
9.01726e-14
9.00474e-14
9.02939e-14
9.00767e-14
9.04247e-14
9.00991e-14
9.04536e-14
9.01373e-14
9.04021e-14
9.01472e-14
9.04279e-14
9.01978e-14
9.04385e-14
9.0221e-14
9.0456e-14
9.02169e-14
9.04801e-14
9.02544e-14
9.04875e-14
9.0276e-14
9.05007e-14
9.02703e-14
9.04731e-14
9.0273e-14
9.04624e-14
9.03075e-14
9.04562e-14
9.03513e-14
9.05119e-14
9.03575e-14
9.05476e-14
9.03725e-14
9.05401e-14
9.03851e-14
9.05477e-14
9.03953e-14
9.05701e-14
9.04028e-14
9.06194e-14
9.04189e-14
9.06372e-14
9.04439e-14
9.06114e-14
9.04667e-14
9.06003e-14
9.0488e-14
9.06153e-14
9.05197e-14
9.06444e-14
9.05383e-14
9.06756e-14
9.05556e-14
9.06732e-14
9.0572e-14
9.06846e-14
9.05996e-14
9.07219e-14
9.06024e-14
9.07492e-14
9.06042e-14
9.07668e-14
9.06166e-14
9.07748e-14
9.06397e-14
9.07971e-14
9.06616e-14
9.08219e-14
9.06945e-14
9.08252e-14
9.07027e-14
9.08066e-14
9.07224e-14
9.08017e-14
9.07298e-14
9.08221e-14
9.07489e-14
9.0868e-14
9.07674e-14
9.09038e-14
9.07853e-14
9.09059e-14
9.08027e-14
9.0898e-14
9.082e-14
9.09276e-14
9.08251e-14
9.0935e-14
9.08299e-14
9.09441e-14
9.08345e-14
9.09428e-14
9.08389e-14
9.09075e-14
9.08552e-14
9.0897e-14
9.08598e-14
9.09167e-14
9.08586e-14
9.09137e-14
9.08634e-14
9.08879e-14
9.08684e-14
9.08979e-14
9.08796e-14
9.09027e-14
9.09027e-14
9.08962e-14
9.09028e-14
9.08959e-14
9.09209e-14
9.08958e-14
9.09163e-14
9.089e-14
9.09121e-14
9.08843e-14
9.09258e-14
9.08845e-14
9.09227e-14
9.09134e-14
9.09257e-14
9.09309e-14
9.09289e-14
9.09257e-14
9.09267e-14
9.09149e-14
9.09306e-14
9.09329e-14
9.0929e-14
9.0951e-14
9.09446e-14
9.09467e-14
9.09379e-14
9.09427e-14
9.09372e-14
9.09501e-14
9.0931e-14
9.09521e-14
9.09307e-14
9.0932e-14
9.09195e-14
9.09288e-14
9.09197e-14
9.09259e-14
9.09202e-14
9.09396e-14
9.09098e-14
9.09425e-14
9.09052e-14
9.09346e-14
9.08952e-14
9.09324e-14
9.08964e-14
9.09196e-14
9.08923e-14
9.09285e-14
9.0883e-14
9.09322e-14
9.08738e-14
9.09415e-14
9.08594e-14
9.0951e-14
9.0861e-14
9.09396e-14
9.08625e-14
9.09232e-14
9.08484e-14
9.09124e-14
9.08396e-14
9.09228e-14
9.0836e-14
9.0923e-14
9.08349e-14
9.09209e-14
9.08287e-14
9.09217e-14
9.08327e-14
9.09279e-14
9.08239e-14
9.09268e-14
9.08176e-14
9.09209e-14
9.08088e-14
9.09104e-14
9.08024e-14
9.09076e-14
9.07984e-14
9.09076e-14
9.07919e-14
9.0903e-14
9.07853e-14
9.08938e-14
9.07787e-14
9.08801e-14
9.07792e-14
9.08811e-14
9.07749e-14
9.08752e-14
9.07729e-14
9.08624e-14
9.07614e-14
9.08522e-14
9.07616e-14
9.084e-14
9.0764e-14
9.08279e-14
9.07595e-14
9.08161e-14
9.07527e-14
9.08068e-14
9.07482e-14
9.07953e-14
9.07437e-14
9.07885e-14
9.07347e-14
9.07864e-14
9.07302e-14
9.07776e-14
9.07257e-14
9.07668e-14
9.07213e-14
9.07583e-14
9.07168e-14
9.07542e-14
9.07102e-14
9.07567e-14
9.07015e-14
9.07528e-14
9.06992e-14
9.07426e-14
9.06969e-14
9.07367e-14
9.06925e-14
9.07372e-14
9.06902e-14
9.07356e-14
9.06837e-14
9.0735e-14
9.06803e-14
9.07325e-14
9.0679e-14
9.07331e-14
9.06746e-14
9.07326e-14
9.06712e-14
9.07263e-14
9.06698e-14
9.0721e-14
9.06722e-14
9.07206e-14
9.06718e-14
9.07231e-14
9.06713e-14
9.07247e-14
9.06698e-14
9.07273e-14
9.06712e-14
9.07279e-14
9.06707e-14
9.07258e-14
9.0671e-14
9.07246e-14
9.06696e-14
9.07262e-14
9.0669e-14
9.0727e-14
9.06675e-14
9.07259e-14
9.06687e-14
9.07275e-14
9.06699e-14
9.07291e-14
9.06693e-14
9.07307e-14
9.06687e-14
9.07315e-14
9.06672e-14
9.07331e-14
9.06666e-14
9.07339e-14
9.06677e-14
9.07347e-14
9.06671e-14
9.07355e-14
9.06673e-14
9.07363e-14
9.06666e-14
9.07389e-14
9.0666e-14
9.07406e-14
9.06662e-14
9.0741e-14
9.06663e-14
9.07423e-14
9.06669e-14
9.07445e-14
9.06671e-14
9.07463e-14
9.06668e-14
9.07468e-14
9.06665e-14
9.07477e-14
9.06662e-14
9.07475e-14
9.06658e-14
9.07472e-14
9.06655e-14
9.07482e-14
9.06652e-14
9.07488e-14
9.06653e-14
9.07486e-14
9.06657e-14
9.07485e-14
9.0665e-14
9.07487e-14
9.06642e-14
9.07494e-14
9.06629e-14
9.07501e-14
9.06617e-14
9.07509e-14
9.06604e-14
9.07516e-14
9.06605e-14
9.07524e-14
9.06596e-14
9.07536e-14
9.06574e-14
9.0754e-14
9.06557e-14
9.07544e-14
9.06539e-14
9.07553e-14
9.06525e-14
9.07566e-14
9.06507e-14
9.07582e-14
9.06489e-14
9.07592e-14
9.06475e-14
9.0759e-14
9.06465e-14
9.07596e-14
9.0645e-14
9.07613e-14
9.06442e-14
9.07621e-14
9.06436e-14
9.0762e-14
9.0643e-14
9.0762e-14
9.06424e-14
9.07624e-14
9.0642e-14
9.07626e-14
9.06413e-14
9.07618e-14
9.06414e-14
9.07613e-14
9.0641e-14
9.07616e-14
9.06403e-14
9.07619e-14
9.06398e-14
9.07617e-14
9.06401e-14
9.07617e-14
9.06401e-14
9.07621e-14
9.06402e-14
9.07619e-14
9.06405e-14
9.0762e-14
9.064e-14
9.07631e-14
9.06399e-14
9.07633e-14
9.06399e-14
9.07632e-14
9.064e-14
9.07631e-14
9.06404e-14
9.0763e-14
9.06404e-14
9.07633e-14
9.06401e-14
9.07636e-14
9.06402e-14
9.07634e-14
9.06396e-14
9.07633e-14
9.06396e-14
9.07636e-14
9.06393e-14