/*--------------------------------*- C++ -*----------------------------------*\
| =========                 |                                                 |
| \\      /  F ield         | OpenFOAM: The Open Source CFD Toolbox           |
|  \\    /   O peration     | Version:  2012                                  |
|   \\  /    A nd           | Website:  www.openfoam.com                      |
|    \\/     M anipulation  |                                                 |
\*---------------------------------------------------------------------------*/
FoamFile
{
    version     2.0;
    format      ascii;
    class       volScalarField;
    location    "10000";
    object      p;
}
// * * * * * * * * * * * * * * * * * * * * * * * * * * * * * * * * * * * * * //

dimensions      [0 2 -2 0 0 0 0];


internalField   nonuniform List<scalar> 
160
(
1.97612e-17
9.68461e-16
8.76082e-17
9.75212e-16
9.72061e-17
9.62301e-16
1.04717e-16
9.38205e-16
1.54917e-16
9.00284e-16
2.24509e-16
8.44077e-16
2.96795e-16
7.74282e-16
3.60037e-16
7.00133e-16
4.33165e-16
6.40406e-16
4.9583e-16
6.0319e-16
5.75684e-16
5.9981e-16
6.731e-16
6.75874e-16
8.27104e-16
7.99554e-16
9.65772e-16
9.62894e-16
1.25735e-15
1.27334e-15
1.69846e-15
1.72684e-15
1.63839e-15
1.69161e-15
2.58056e-15
2.57349e-15
3.69287e-15
3.69865e-15
7.94395e-15
7.97071e-15
4.29055e-16
5.45502e-16
4.31878e-16
5.48264e-16
4.35199e-16
5.52086e-16
4.42223e-16
5.59178e-16
4.57597e-16
5.72267e-16
4.86717e-16
5.94794e-16
5.33306e-16
6.28265e-16
6.0603e-16
6.77853e-16
6.87624e-16
7.51222e-16
7.89309e-16
8.3528e-16
8.96169e-16
9.27878e-16
9.81028e-16
9.99641e-16
1.04838e-15
1.04873e-15
1.13372e-15
1.13129e-15
1.30632e-15
1.28895e-15
1.50097e-15
1.46573e-15
1.91691e-15
1.76252e-15
2.49005e-15
2.44339e-15
3.2699e-15
3.49106e-15
8.0302e-15
7.8672e-15
9.98902e-15
1.01217e-14
1.43109e-14
1.44945e-14
1.53635e-14
1.54863e-14
1.6089e-14
1.62353e-14
1.65373e-14
1.65372e-14
1.67501e-14
1.6753e-14
1.68781e-14
1.68605e-14
1.68273e-14
1.68256e-14
1.6833e-14
1.68365e-14
1.68381e-14
1.68469e-14
1.68381e-14
1.68575e-14
1.68413e-14
1.68506e-14
1.68417e-14
1.68459e-14
1.68389e-14
1.68424e-14
1.68385e-14
1.68417e-14
1.68396e-14
1.68412e-14
1.68388e-14
1.68413e-14
1.68386e-14
1.68414e-14
1.68386e-14
1.68415e-14
1.68387e-14
1.68415e-14
1.00184e-14
1.00995e-14
1.45591e-14
1.45236e-14
1.54918e-14
1.56115e-14
1.62587e-14
1.64482e-14
1.65877e-14
1.65396e-14
1.67642e-14
1.67944e-14
1.68277e-14
1.68293e-14
1.68272e-14
1.68303e-14
1.68233e-14
1.68371e-14
1.68392e-14
1.68518e-14
1.68462e-14
1.68695e-14
1.68466e-14
1.6863e-14
1.68447e-14
1.68545e-14
1.68371e-14
1.68495e-14
1.68386e-14
1.68487e-14
1.684e-14
1.68458e-14
1.68394e-14
1.68449e-14
1.68396e-14
1.68447e-14
1.68397e-14
1.68446e-14
1.68397e-14
1.68445e-14
)
;

boundaryField
{
    walls
    {
        type            zeroGradient;
    }
    inlet
    {
        type            cyclic;
    }
    outlet
    {
        type            cyclic;
    }
    sides
    {
        type            empty;
    }
}


// ************************************************************************* //
