/*--------------------------------*- C++ -*----------------------------------*\
| =========                 |                                                 |
| \\      /  F ield         | OpenFOAM: The Open Source CFD Toolbox           |
|  \\    /   O peration     | Version:  2012                                  |
|   \\  /    A nd           | Website:  www.openfoam.com                      |
|    \\/     M anipulation  |                                                 |
\*---------------------------------------------------------------------------*/
FoamFile
{
    version     2.0;
    format      ascii;
    class       volScalarField;
    location    "12900";
    object      nut;
}
// * * * * * * * * * * * * * * * * * * * * * * * * * * * * * * * * * * * * * //

dimensions      [0 2 -1 0 0 0 0];


internalField   nonuniform List<scalar> 
2560
(
1.26502e-08
1.26406e-08
2.08631e-06
2.08482e-06
4.13096e-05
4.12832e-05
0.000226063
0.000225957
0.000589264
0.00058906
0.00108001
0.00107971
0.00165904
0.00165865
0.00230505
0.00230457
0.00300579
0.00300521
0.00375347
0.0037528
0.00454276
0.00454199
0.00536971
0.00536884
0.00623129
0.00623031
0.00712507
0.00712399
0.00804903
0.00804785
0.00900149
0.00900019
0.00998097
0.00997955
0.0109862
0.0109846
0.0120159
0.0120143
0.0130692
0.0130674
0.014145
0.0141431
0.0152424
0.0152403
0.0163605
0.0163583
0.0174985
0.0174962
0.0186556
0.0186532
0.0198311
0.0198285
0.0210242
0.0210215
0.0222342
0.0222313
0.0234604
0.0234574
0.0247021
0.0246989
0.0259586
0.0259553
0.0272293
0.0272258
0.0285135
0.0285099
0.0298104
0.0298066
0.0311194
0.0311154
0.0324396
0.0324355
0.0337702
0.0337659
0.0351105
0.035106
0.0364595
0.0364549
0.0378166
0.0378119
0.039181
0.039176
0.0405517
0.0405466
0.0419282
0.0419229
0.0433095
0.043304
0.0446947
0.044689
0.0460826
0.0460768
0.047472
0.047466
0.0488614
0.0488552
0.0502492
0.0502428
0.0516335
0.051627
0.0530128
0.053006
0.0543853
0.0543784
0.0557497
0.0557425
0.0571048
0.0570975
0.0584509
0.0584433
0.0597896
0.0597818
0.0611248
0.0611167
0.0624622
0.0624539
0.0638081
0.0637995
0.0651654
0.0651566
0.0665302
0.0665211
0.0678837
0.0678744
0.069196
0.0691865
0.0704284
0.0704188
0.0715415
0.0715318
0.0725037
0.0724941
0.0732977
0.0732883
0.0739226
0.0739135
0.0743924
0.0743835
0.0747312
0.0747228
0.0749688
0.0749608
0.0751357
0.0751281
0.0752602
0.0752531
0.0753661
0.0753593
0.0754718
0.0754652
0.0755902
0.0755837
0.0757292
0.0757229
0.0758912
0.0758852
0.0760753
0.0760694
0.0762773
0.0762717
0.0764916
0.0764863
0.0767112
0.0767062
0.0769288
0.0769243
0.0771376
0.0771335
0.0773309
0.0773272
0.0775028
0.0774995
0.0776482
0.0776453
0.0777631
0.0777605
0.0778443
0.077842
0.0778899
0.0778878
0.0778995
0.0778976
0.077874
0.0778723
0.0778163
0.0778147
0.0777306
0.077729
0.0776224
0.0776209
0.0774981
0.0774968
0.0773645
0.0773632
0.077228
0.0772267
0.077094
0.0770928
0.076967
0.0769658
0.0768498
0.0768487
0.0767446
0.0767435
0.0766523
0.0766512
0.0765733
0.0765723
0.0765081
0.0765071
0.0764574
0.0764565
0.0764223
0.0764214
0.0764044
0.0764035
0.0764053
0.0764044
0.0764266
0.0764258
0.0764699
0.0764691
0.0765353
0.0765345
0.0766223
0.0766215
0.0767289
0.0767282
0.076852
0.0768513
0.0769874
0.0769868
0.0771307
0.0771301
0.0772776
0.077277
0.077425
0.0774244
0.0775716
0.0775711
0.0777187
0.0777182
0.0778699
0.0778694
0.078031
0.0780305
0.0782093
0.0782089
0.0784123
0.0784118
0.0786466
0.0786461
0.0789174
0.0789169
0.0792269
0.0792265
0.0795751
0.0795746
0.0799599
0.0799595
0.0803785
0.080378
0.0808274
0.0808269
0.081304
0.0813035
0.0818064
0.0818059
0.082334
0.0823335
0.0828873
0.0828868
0.0834675
0.083467
0.0840761
0.0840756
0.0847151
0.0847145
0.0853859
0.0853853
0.0860896
0.0860891
0.0868272
0.0868265
0.0875985
0.0875979
0.0884035
0.0884028
0.0892412
0.0892405
0.0901108
0.09011
0.0910113
0.0910105
0.0919419
0.0919411
0.0929025
0.0929016
0.0938933
0.0938924
0.0949157
0.0949147
0.0959714
0.0959704
0.0970633
0.0970621
0.0981944
0.0981932
0.0993684
0.0993671
0.100589
0.100588
0.10186
0.101858
0.103184
0.103182
0.104564
0.104562
0.106001
0.105999
0.107498
0.107496
0.109054
0.109051
0.110667
0.110665
0.112336
0.112333
0.114055
0.114053
0.11582
0.115817
0.117622
0.117619
0.119451
0.119448
0.121296
0.121292
0.12314
0.123137
0.124971
0.124967
0.12677
0.126766
0.128524
0.12852
0.130219
0.130216
0.131847
0.131845
0.133404
0.133403
0.134895
0.134895
0.13633
0.136331
0.137727
0.137728
0.13911
0.139111
0.140507
0.140508
0.141948
0.141948
0.143458
0.143459
0.145059
0.145059
0.14676
0.14676
0.148563
0.148562
0.150453
0.150452
0.152409
0.152408
0.154401
0.154399
0.156397
0.156395
0.158365
0.158364
0.160276
0.160275
0.162108
0.162109
0.163848
0.16385
0.165488
0.165491
0.167027
0.16703
0.168473
0.168476
0.169839
0.169842
0.171142
0.171145
0.172404
0.172406
0.173645
0.173647
0.174889
0.174891
0.176157
0.176159
0.177471
0.177472
0.178848
0.178849
0.180307
0.180308
0.181863
0.181864
0.183529
0.183529
0.185314
0.185314
0.187226
0.187226
0.18927
0.189269
0.191444
0.191444
0.193745
0.193744
0.196162
0.196161
0.198678
0.198677
0.201267
0.201265
0.203897
0.203895
0.206529
0.206526
0.209116
0.209114
0.211612
0.211609
0.213968
0.213965
0.216143
0.21614
0.218105
0.218101
0.219836
0.219833
0.22134
0.221337
0.22264
0.222638
0.223777
0.223777
0.224803
0.224803
0.225781
0.225781
0.226775
0.226776
0.227845
0.227845
0.229029
0.229029
0.230349
0.230349
0.231805
0.231804
0.233376
0.233375
0.235034
0.235033
0.23675
0.236748
0.238501
0.238499
0.240278
0.240277
0.242092
0.242092
0.243964
0.243965
0.245924
0.245924
0.248002
0.248003
0.250233
0.250234
0.252645
0.252645
0.255258
0.255259
0.25809
0.25809
0.261151
0.261151
0.264451
0.264451
0.267997
0.267997
0.2718
0.271799
0.275867
0.275867
0.280208
0.280208
0.284831
0.284831
0.28974
0.28974
0.294938
0.294938
0.300424
0.300424
0.306197
0.306197
0.312254
0.312254
0.318591
0.318591
0.325208
0.325207
0.332103
0.332103
0.33928
0.33928
0.346744
0.346744
0.354501
0.354501
0.362561
0.36256
0.370931
0.370931
0.37962
0.379619
0.388633
0.388633
0.397974
0.397973
0.407642
0.407642
0.417634
0.417634
0.427946
0.427945
0.438569
0.438569
0.449498
0.449498
0.460724
0.460724
0.472239
0.472239
0.484035
0.484035
0.496103
0.496103
0.508434
0.508434
0.521019
0.521019
0.533846
0.533846
0.546903
0.546903
0.560179
0.560179
0.573661
0.573661
0.587336
0.587336
0.601193
0.601193
0.61522
0.61522
0.62941
0.629409
0.643754
0.643754
0.658247
0.658247
0.672882
0.672882
0.687651
0.687651
0.702544
0.702544
0.717549
0.717549
0.732649
0.732648
0.747826
0.747826
0.763062
0.763062
0.77834
0.778339
0.793642
0.793642
0.808955
0.808955
0.824269
0.824269
0.839575
0.839575
0.854868
0.854868
0.870142
0.870142
0.885393
0.885393
0.900617
0.900616
0.915805
0.915805
0.930951
0.930951
0.946046
0.946046
0.961078
0.961077
0.976029
0.976029
0.990873
0.990873
1.00556
1.00556
1.02001
1.02001
1.03402
1.03402
1.04719
1.04719
1.05872
1.05872
1.06697
1.06697
1.06669
1.06669
1.26405e-08
1.26502e-08
2.08482e-06
2.08631e-06
4.12832e-05
4.13097e-05
0.000225957
0.000226063
0.00058906
0.000589264
0.00107971
0.00108001
0.00165865
0.00165904
0.00230456
0.00230505
0.0030052
0.00300579
0.0037528
0.00375347
0.00454199
0.00454276
0.00536883
0.00536971
0.00623031
0.00623129
0.00712398
0.00712507
0.00804784
0.00804903
0.00900019
0.00900149
0.00997955
0.00998097
0.0109846
0.0109862
0.0120143
0.0120159
0.0130674
0.0130692
0.0141431
0.014145
0.0152403
0.0152424
0.0163583
0.0163605
0.0174962
0.0174985
0.0186532
0.0186556
0.0198285
0.0198311
0.0210215
0.0210242
0.0222313
0.0222342
0.0234574
0.0234604
0.0246989
0.0247021
0.0259553
0.0259586
0.0272258
0.0272293
0.0285099
0.0285135
0.0298066
0.0298104
0.0311154
0.0311194
0.0324354
0.0324396
0.0337659
0.0337702
0.035106
0.0351105
0.0364549
0.0364595
0.0378119
0.0378166
0.039176
0.039181
0.0405466
0.0405517
0.0419229
0.0419282
0.043304
0.0433095
0.044689
0.0446947
0.0460768
0.0460826
0.047466
0.047472
0.0488552
0.0488614
0.0502428
0.0502492
0.0516269
0.0516335
0.053006
0.0530128
0.0543784
0.0543853
0.0557425
0.0557497
0.0570974
0.0571048
0.0584433
0.0584509
0.0597818
0.0597896
0.0611167
0.0611248
0.0624539
0.0624622
0.0637995
0.0638081
0.0651565
0.0651654
0.0665211
0.0665302
0.0678744
0.0678837
0.0691865
0.069196
0.0704188
0.0704284
0.0715318
0.0715415
0.0724941
0.0725037
0.0732882
0.0732977
0.0739135
0.0739226
0.0743835
0.0743924
0.0747227
0.0747312
0.0749608
0.0749688
0.0751281
0.0751357
0.075253
0.0752602
0.0753593
0.0753661
0.0754652
0.0754718
0.0755837
0.0755901
0.0757229
0.0757292
0.0758851
0.0758912
0.0760694
0.0760752
0.0762717
0.0762773
0.0764862
0.0764916
0.0767062
0.0767111
0.0769243
0.0769288
0.0771335
0.0771376
0.0773271
0.0773308
0.0774994
0.0775027
0.0776453
0.0776482
0.0777605
0.0777631
0.0778419
0.0778443
0.0778878
0.0778899
0.0778975
0.0778995
0.0778722
0.077874
0.0778147
0.0778163
0.077729
0.0777306
0.0776209
0.0776224
0.0774967
0.0774981
0.0773632
0.0773645
0.0772267
0.077228
0.0770928
0.077094
0.0769658
0.0769669
0.0768487
0.0768498
0.0767435
0.0767446
0.0766512
0.0766523
0.0765722
0.0765733
0.0765071
0.0765081
0.0764564
0.0764574
0.0764214
0.0764223
0.0764035
0.0764044
0.0764044
0.0764052
0.0764258
0.0764266
0.076469
0.0764698
0.0765345
0.0765353
0.0766215
0.0766222
0.0767281
0.0767289
0.0768512
0.0768519
0.0769867
0.0769874
0.07713
0.0771307
0.0772769
0.0772775
0.0774244
0.0774249
0.077571
0.0775716
0.0777181
0.0777186
0.0778693
0.0778698
0.0780305
0.0780309
0.0782088
0.0782092
0.0784117
0.0784122
0.078646
0.0786465
0.0789168
0.0789173
0.0792264
0.0792268
0.0795745
0.079575
0.0799594
0.0799598
0.0803779
0.0803784
0.0808268
0.0808273
0.0813034
0.0813038
0.0818058
0.0818062
0.0823334
0.0823339
0.0828866
0.0828871
0.0834668
0.0834673
0.0840754
0.084076
0.0847143
0.0847149
0.0853851
0.0853857
0.0860889
0.0860895
0.0868263
0.086827
0.0875977
0.0875983
0.0884026
0.0884033
0.0892403
0.089241
0.0901098
0.0901106
0.0910102
0.091011
0.0919408
0.0919417
0.0929013
0.0929022
0.0938921
0.0938931
0.0949144
0.0949154
0.0959701
0.0959712
0.0970619
0.097063
0.0981929
0.0981941
0.0993668
0.0993682
0.100587
0.100589
0.101858
0.101859
0.103182
0.103183
0.104561
0.104563
0.105999
0.106001
0.107496
0.107498
0.109051
0.109053
0.110664
0.110667
0.112333
0.112335
0.114052
0.114055
0.115817
0.11582
0.117619
0.117622
0.119448
0.119451
0.121292
0.121295
0.123136
0.12314
0.124966
0.12497
0.126766
0.12677
0.12852
0.128524
0.130216
0.130219
0.131844
0.131847
0.133403
0.133404
0.134895
0.134895
0.13633
0.13633
0.137727
0.137727
0.13911
0.139109
0.140507
0.140507
0.141948
0.141947
0.143458
0.143458
0.145058
0.145058
0.146759
0.14676
0.148562
0.148562
0.150451
0.150452
0.152407
0.152408
0.154398
0.1544
0.156394
0.156396
0.158363
0.158364
0.160274
0.160275
0.162108
0.162107
0.163849
0.163847
0.16549
0.165487
0.167029
0.167026
0.168475
0.168472
0.169841
0.169838
0.171145
0.171142
0.172406
0.172403
0.173647
0.173645
0.17489
0.174889
0.176158
0.176157
0.177471
0.17747
0.178849
0.178848
0.180307
0.180307
0.181863
0.181863
0.183528
0.183528
0.185313
0.185313
0.187225
0.187225
0.189268
0.189268
0.191442
0.191443
0.193743
0.193744
0.196159
0.19616
0.198674
0.198676
0.201263
0.201265
0.203893
0.203895
0.206524
0.206527
0.209111
0.209114
0.211607
0.21161
0.213963
0.213967
0.216138
0.216142
0.2181
0.218104
0.219832
0.219836
0.221336
0.22134
0.222638
0.22264
0.223777
0.223777
0.224804
0.224803
0.225782
0.225781
0.226776
0.226776
0.227845
0.227845
0.229029
0.229029
0.230348
0.230349
0.231803
0.231804
0.233374
0.233375
0.235031
0.235033
0.236747
0.236749
0.238498
0.2385
0.240277
0.240278
0.242092
0.242092
0.243964
0.243964
0.245924
0.245923
0.248003
0.248002
0.250234
0.250233
0.252645
0.252645
0.255259
0.255258
0.25809
0.25809
0.261151
0.261151
0.26445
0.26445
0.267997
0.267997
0.271799
0.271799
0.275866
0.275867
0.280208
0.280208
0.28483
0.284831
0.289739
0.28974
0.294937
0.294937
0.300423
0.300424
0.306196
0.306196
0.312253
0.312253
0.31859
0.318591
0.325207
0.325207
0.332103
0.332103
0.33928
0.33928
0.346744
0.346744
0.354501
0.354502
0.362561
0.362561
0.370931
0.370931
0.379619
0.37962
0.388633
0.388633
0.397973
0.397974
0.407641
0.407642
0.417634
0.417634
0.427945
0.427946
0.438569
0.438569
0.449498
0.449498
0.460723
0.460724
0.472238
0.472239
0.484034
0.484035
0.496103
0.496103
0.508434
0.508434
0.521018
0.521019
0.533845
0.533846
0.546903
0.546903
0.560179
0.560179
0.573661
0.573661
0.587336
0.587336
0.601192
0.601193
0.61522
0.61522
0.629409
0.62941
0.643754
0.643754
0.658246
0.658247
0.672881
0.672882
0.68765
0.687651
0.702543
0.702544
0.717548
0.717548
0.732648
0.732648
0.747825
0.747825
0.763061
0.763061
0.778339
0.778339
0.793641
0.793641
0.808954
0.808955
0.824268
0.824269
0.839575
0.839575
0.854867
0.854868
0.870141
0.870142
0.885392
0.885393
0.900615
0.900615
0.915803
0.915803
0.930949
0.930949
0.946043
0.946043
0.961073
0.961073
0.976022
0.976022
0.990865
0.990865
1.00555
1.00555
1.01999
1.01999
1.034
1.034
1.04717
1.04717
1.0587
1.0587
1.06695
1.06695
1.06668
1.06668
1.0667
1.0667
1.06697
1.06697
1.05872
1.05872
1.0472
1.0472
1.03402
1.03402
1.02002
1.02002
1.00557
1.00557
0.990883
0.990883
0.97604
0.97604
0.961089
0.961089
0.946058
0.946058
0.930963
0.930963
0.915817
0.915817
0.900628
0.900628
0.885406
0.885406
0.870156
0.870156
0.854883
0.854883
0.839591
0.839591
0.824285
0.824285
0.808971
0.808971
0.793658
0.793658
0.778357
0.778357
0.76308
0.76308
0.747845
0.747845
0.732668
0.732668
0.717569
0.717569
0.702565
0.702565
0.687672
0.687672
0.672903
0.672903
0.658269
0.658269
0.643776
0.643776
0.629433
0.629432
0.615243
0.615243
0.601216
0.601216
0.587359
0.587359
0.573684
0.573684
0.560201
0.560201
0.546925
0.546925
0.533867
0.533867
0.52104
0.52104
0.508455
0.508455
0.496123
0.496123
0.484055
0.484054
0.472258
0.472258
0.460743
0.460742
0.449516
0.449516
0.438587
0.438587
0.427962
0.427962
0.41765
0.41765
0.407657
0.407657
0.397988
0.397988
0.388647
0.388646
0.379633
0.379632
0.370943
0.370943
0.362572
0.362572
0.354512
0.354512
0.346754
0.346753
0.339289
0.339289
0.332111
0.332111
0.325214
0.325214
0.318596
0.318596
0.312258
0.312258
0.3062
0.3062
0.300427
0.300426
0.29494
0.294939
0.289741
0.289741
0.284832
0.284832
0.280208
0.280208
0.275866
0.275866
0.271798
0.271798
0.267995
0.267995
0.264448
0.264448
0.261148
0.261148
0.258086
0.258087
0.255254
0.255254
0.25264
0.25264
0.250228
0.250228
0.247996
0.247997
0.245918
0.245918
0.243958
0.243959
0.242087
0.242087
0.240274
0.240273
0.238497
0.238496
0.236746
0.236745
0.235031
0.23503
0.233374
0.233373
0.231803
0.231803
0.230348
0.230348
0.229029
0.229029
0.227845
0.227845
0.226776
0.226777
0.225782
0.225783
0.224805
0.224806
0.22378
0.22378
0.222644
0.222643
0.221345
0.221342
0.219842
0.219838
0.21811
0.218106
0.216148
0.216145
0.213973
0.21397
0.211617
0.211614
0.209121
0.209119
0.206534
0.206532
0.203902
0.2039
0.201272
0.20127
0.198683
0.198681
0.196167
0.196166
0.19375
0.193749
0.191448
0.191448
0.189274
0.189273
0.18723
0.18723
0.185318
0.185318
0.183532
0.183532
0.181866
0.181867
0.18031
0.180311
0.178851
0.178852
0.177473
0.177474
0.176159
0.176161
0.174891
0.174893
0.173647
0.173649
0.172405
0.172408
0.171144
0.171147
0.16984
0.169843
0.168474
0.168477
0.167028
0.167031
0.165488
0.165492
0.163848
0.163851
0.162109
0.16211
0.160276
0.160276
0.158365
0.158364
0.156396
0.156395
0.1544
0.154399
0.152408
0.152407
0.150452
0.150451
0.148562
0.148562
0.14676
0.146759
0.145058
0.145058
0.143458
0.143458
0.141947
0.141947
0.140506
0.140507
0.139109
0.13911
0.137726
0.137727
0.136329
0.13633
0.134895
0.134894
0.133404
0.133403
0.131847
0.131844
0.130219
0.130216
0.128524
0.12852
0.12677
0.126766
0.12497
0.124966
0.12314
0.123136
0.121295
0.121291
0.119451
0.119448
0.117622
0.117619
0.11582
0.115817
0.114055
0.114052
0.112335
0.112332
0.110666
0.110664
0.109053
0.109051
0.107497
0.107495
0.106
0.105998
0.104562
0.104561
0.103182
0.103181
0.101858
0.101857
0.100587
0.100586
0.0993667
0.0993653
0.0981925
0.0981912
0.0970611
0.09706
0.0959691
0.095968
0.0949131
0.094912
0.0938904
0.0938895
0.0928993
0.0928984
0.0919385
0.0919376
0.0910075
0.0910067
0.0901068
0.090106
0.0892369
0.0892362
0.0883989
0.0883982
0.0875938
0.0875931
0.0868222
0.0868215
0.0860845
0.0860838
0.0853805
0.0853799
0.0847095
0.0847089
0.0840704
0.0840698
0.0834615
0.083461
0.0828811
0.0828806
0.0823276
0.082327
0.0817996
0.0817991
0.0812969
0.0812964
0.08082
0.0808195
0.0803708
0.0803703
0.079952
0.0799515
0.0795669
0.0795664
0.0792185
0.0792181
0.0789087
0.0789083
0.0786377
0.0786372
0.0784032
0.0784028
0.0782
0.0781996
0.0780216
0.0780211
0.0778603
0.0778599
0.077709
0.0777085
0.0775618
0.0775613
0.077415
0.0774145
0.0772676
0.077267
0.0771206
0.07712
0.0769773
0.0769766
0.0768418
0.0768411
0.0767186
0.0767179
0.0766119
0.0766111
0.0765248
0.076524
0.0764593
0.0764585
0.0764159
0.0764151
0.0763944
0.0763936
0.0763935
0.0763926
0.0764113
0.0764104
0.0764463
0.0764454
0.0764969
0.0764959
0.076562
0.076561
0.0766409
0.0766399
0.0767332
0.0767321
0.0768383
0.0768372
0.0769554
0.0769542
0.0770824
0.0770812
0.0772163
0.077215
0.0773527
0.0773514
0.0774862
0.0774849
0.0776104
0.077609
0.0777185
0.077717
0.0778043
0.0778027
0.0778621
0.0778603
0.0778877
0.0778858
0.0778783
0.0778761
0.0778327
0.0778303
0.0777514
0.0777487
0.0776364
0.0776334
0.0774908
0.0774874
0.0773187
0.077315
0.0771253
0.0771211
0.0769164
0.0769117
0.0766986
0.0766935
0.0764788
0.0764733
0.0762644
0.0762586
0.0760622
0.0760561
0.075878
0.0758717
0.0757158
0.0757094
0.0755767
0.07557
0.0754582
0.0754513
0.0753524
0.0753453
0.0752464
0.0752389
0.0751219
0.075114
0.0749549
0.0749466
0.0747173
0.0747085
0.0743787
0.0743695
0.0739093
0.0738997
0.0732847
0.0732749
0.072491
0.0724811
0.0715291
0.0715191
0.0704162
0.0704062
0.069184
0.0691741
0.0678719
0.0678622
0.0665187
0.0665092
0.0651542
0.065145
0.063797
0.0637881
0.0624513
0.0624426
0.061114
0.0611056
0.0597791
0.0597709
0.0584406
0.0584327
0.0570948
0.0570871
0.0557399
0.0557325
0.054376
0.0543687
0.0530038
0.0529967
0.0516248
0.0516179
0.0502407
0.050234
0.0488533
0.0488468
0.0474642
0.0474579
0.0460751
0.046069
0.0446874
0.0446815
0.0433025
0.0432968
0.0419215
0.041916
0.0405454
0.04054
0.0391749
0.0391697
0.0378108
0.0378059
0.036454
0.0364492
0.0351052
0.0351005
0.0337651
0.0337607
0.0324347
0.0324305
0.0311148
0.0311107
0.029806
0.0298021
0.0285093
0.0285056
0.0272254
0.0272218
0.0259549
0.0259514
0.0246985
0.0246953
0.023457
0.0234539
0.0222311
0.0222281
0.0210213
0.0210184
0.0198284
0.0198257
0.0186531
0.0186505
0.0174961
0.0174937
0.0163583
0.016356
0.0152403
0.0152382
0.0141431
0.0141411
0.0130674
0.0130656
0.0120143
0.0120126
0.0109847
0.0109831
0.00997964
0.00997817
0.00900029
0.00899894
0.00804796
0.00804672
0.00712411
0.00712299
0.00623044
0.00622943
0.00536897
0.00536806
0.00454212
0.00454132
0.00375294
0.00375223
0.00300534
0.00300474
0.00230469
0.00230419
0.00165876
0.00165836
0.00107981
0.00107949
0.000589133
0.000588921
0.000225998
0.000225888
4.12941e-05
4.12666e-05
2.08545e-06
2.08391e-06
1.26452e-08
1.26352e-08
1.06668
1.06668
1.06695
1.06695
1.0587
1.0587
1.04718
1.04718
1.03401
1.03401
1.02
1.02
1.00556
1.00556
0.990875
0.990875
0.976034
0.976034
0.961084
0.961084
0.946054
0.946054
0.93096
0.930961
0.915815
0.915815
0.900627
0.900627
0.885405
0.885405
0.870155
0.870155
0.854882
0.854882
0.83959
0.83959
0.824284
0.824285
0.80897
0.808971
0.793657
0.793658
0.778356
0.778356
0.763079
0.76308
0.747844
0.747844
0.732667
0.732668
0.717568
0.717568
0.702564
0.702564
0.687671
0.687672
0.672903
0.672903
0.658268
0.658269
0.643776
0.643776
0.629432
0.629433
0.615243
0.615243
0.601216
0.601216
0.587359
0.587359
0.573683
0.573684
0.560201
0.560201
0.546924
0.546925
0.533866
0.533867
0.521039
0.521039
0.508454
0.508455
0.496123
0.496123
0.484054
0.484054
0.472258
0.472258
0.460742
0.460743
0.449516
0.449516
0.438586
0.438587
0.427962
0.427962
0.41765
0.41765
0.407657
0.407657
0.397988
0.397988
0.388646
0.388647
0.379632
0.379633
0.370943
0.370943
0.362572
0.362572
0.354512
0.354512
0.346753
0.346754
0.339289
0.339289
0.33211
0.332111
0.325213
0.325214
0.318595
0.318596
0.312257
0.312257
0.306199
0.3062
0.300426
0.300426
0.294939
0.294939
0.28974
0.289741
0.284831
0.284831
0.280208
0.280208
0.275866
0.275866
0.271798
0.271798
0.267995
0.267995
0.264448
0.264448
0.261148
0.261148
0.258087
0.258086
0.255255
0.255254
0.25264
0.25264
0.250229
0.250228
0.247997
0.247996
0.245918
0.245917
0.243959
0.243958
0.242086
0.242087
0.240272
0.240273
0.238494
0.238496
0.236744
0.236746
0.235029
0.23503
0.233372
0.233373
0.231802
0.231803
0.230347
0.230348
0.229028
0.229028
0.227845
0.227845
0.226777
0.226776
0.225783
0.225782
0.224806
0.224805
0.22378
0.22378
0.222642
0.222644
0.221341
0.221345
0.219837
0.219841
0.218105
0.21811
0.216143
0.216147
0.213968
0.213972
0.211612
0.211615
0.209116
0.20912
0.206529
0.206532
0.203898
0.2039
0.201268
0.20127
0.198679
0.198681
0.196164
0.196165
0.193747
0.193748
0.191446
0.191447
0.189272
0.189272
0.187229
0.187229
0.185316
0.185317
0.183531
0.183531
0.181866
0.181866
0.18031
0.18031
0.178851
0.17885
0.177474
0.177472
0.176161
0.176159
0.174892
0.174891
0.173649
0.173647
0.172408
0.172405
0.171146
0.171143
0.169843
0.169839
0.168477
0.168473
0.16703
0.167027
0.165491
0.165487
0.16385
0.163848
0.162109
0.162108
0.160275
0.160275
0.158363
0.158364
0.156394
0.156396
0.154398
0.154399
0.152406
0.152407
0.150451
0.150452
0.148561
0.148562
0.146758
0.146759
0.145057
0.145058
0.143457
0.143457
0.141947
0.141947
0.140506
0.140506
0.139109
0.139109
0.137727
0.137726
0.13633
0.136329
0.134894
0.134894
0.133402
0.133404
0.131844
0.131847
0.130215
0.130219
0.12852
0.128524
0.126766
0.12677
0.124966
0.12497
0.123136
0.12314
0.121291
0.121295
0.119447
0.119451
0.117618
0.117622
0.115816
0.115819
0.114052
0.114054
0.112332
0.112335
0.110663
0.110666
0.10905
0.109053
0.107495
0.107497
0.105998
0.106
0.10456
0.104562
0.10318
0.103182
0.101856
0.101858
0.100586
0.100587
0.099365
0.0993664
0.098191
0.0981922
0.0970597
0.0970609
0.0959677
0.0959688
0.0949118
0.0949128
0.0938892
0.0938902
0.0928981
0.0928991
0.0919374
0.0919383
0.0910065
0.0910073
0.0901058
0.0901066
0.089236
0.0892367
0.088398
0.0883987
0.0875929
0.0875936
0.0868214
0.086822
0.0860837
0.0860843
0.0853797
0.0853803
0.0847088
0.0847093
0.0840697
0.0840702
0.0834608
0.0834614
0.0828805
0.082881
0.0823269
0.0823274
0.081799
0.0817995
0.0812963
0.0812968
0.0808194
0.0808199
0.0803702
0.0803707
0.0799514
0.0799519
0.0795663
0.0795668
0.079218
0.0792184
0.0789082
0.0789087
0.0786372
0.0786376
0.0784027
0.0784031
0.0781995
0.0782
0.0780211
0.0780215
0.0778598
0.0778603
0.0777084
0.0777089
0.0775612
0.0775617
0.0774144
0.077415
0.0772669
0.0772675
0.0771199
0.0771206
0.0769765
0.0769772
0.076841
0.0768417
0.0767178
0.0767186
0.0766111
0.0766119
0.076524
0.0765248
0.0764584
0.0764592
0.076415
0.0764159
0.0763935
0.0763944
0.0763925
0.0763934
0.0764103
0.0764113
0.0764453
0.0764463
0.0764959
0.0764969
0.0765609
0.076562
0.0766398
0.0766409
0.0767321
0.0767332
0.0768371
0.0768383
0.0769542
0.0769554
0.0770811
0.0770824
0.0772149
0.0772162
0.0773514
0.0773527
0.0774848
0.0774862
0.0776089
0.0776104
0.077717
0.0777185
0.0778026
0.0778043
0.0778603
0.0778621
0.0778857
0.0778877
0.077876
0.0778783
0.0778302
0.0778327
0.0777487
0.0777514
0.0776333
0.0776364
0.0774873
0.0774908
0.0773149
0.0773188
0.077121
0.0771253
0.0769117
0.0769164
0.0766934
0.0766986
0.0764733
0.0764788
0.0762585
0.0762644
0.076056
0.0760622
0.0758717
0.075878
0.0757093
0.0757159
0.07557
0.0755767
0.0754513
0.0754582
0.0753452
0.0753524
0.0752389
0.0752464
0.0751139
0.0751219
0.0749465
0.0749549
0.0747085
0.0747173
0.0743694
0.0743787
0.0738997
0.0739093
0.0732748
0.0732847
0.072481
0.072491
0.071519
0.0715291
0.0704062
0.0704162
0.0691741
0.069184
0.0678621
0.0678719
0.0665092
0.0665187
0.0651449
0.0651542
0.0637881
0.0637971
0.0624426
0.0624513
0.0611056
0.061114
0.0597709
0.0597791
0.0584327
0.0584406
0.0570871
0.0570948
0.0557324
0.05574
0.0543687
0.054376
0.0529967
0.0530038
0.0516179
0.0516248
0.050234
0.0502407
0.0488468
0.0488533
0.0474579
0.0474642
0.046069
0.0460751
0.0446815
0.0446874
0.0432968
0.0433026
0.041916
0.0419216
0.04054
0.0405454
0.0391697
0.0391749
0.0378058
0.0378108
0.0364492
0.036454
0.0351005
0.0351052
0.0337607
0.0337652
0.0324305
0.0324348
0.0311107
0.0311148
0.0298021
0.0298061
0.0285056
0.0285094
0.0272218
0.0272254
0.0259514
0.0259549
0.0246953
0.0246986
0.0234539
0.0234571
0.0222281
0.0222311
0.0210184
0.0210213
0.0198257
0.0198284
0.0186505
0.0186531
0.0174937
0.0174961
0.016356
0.0163583
0.0152382
0.0152403
0.0141411
0.0141431
0.0130656
0.0130675
0.0120126
0.0120143
0.0109831
0.0109847
0.00997817
0.00997965
0.00899894
0.0090003
0.00804672
0.00804796
0.00712299
0.00712412
0.00622943
0.00623045
0.00536806
0.00536898
0.00454132
0.00454213
0.00375223
0.00375294
0.00300474
0.00300534
0.00230419
0.0023047
0.00165836
0.00165877
0.00107949
0.00107981
0.000588921
0.000589134
0.000225888
0.000225999
4.12666e-05
4.12942e-05
2.08391e-06
2.08546e-06
1.26352e-08
1.26452e-08
)
;

boundaryField
{
    walls
    {
        type            nutUWallFunction;
        blending        stepwise;
        Cmu             0.09;
        kappa           0.41;
        E               9.8;
        value           uniform 0;
    }
    inlet
    {
        type            cyclic;
    }
    outlet
    {
        type            cyclic;
    }
    sides
    {
        type            empty;
    }
}


// ************************************************************************* //
