/*--------------------------------*- C++ -*----------------------------------*\
| =========                 |                                                 |
| \\      /  F ield         | OpenFOAM: The Open Source CFD Toolbox           |
|  \\    /   O peration     | Version:  2012                                  |
|   \\  /    A nd           | Website:  www.openfoam.com                      |
|    \\/     M anipulation  |                                                 |
\*---------------------------------------------------------------------------*/
FoamFile
{
    version     2.0;
    format      ascii;
    class       volScalarField;
    location    "12900";
    object      omega;
}
// * * * * * * * * * * * * * * * * * * * * * * * * * * * * * * * * * * * * * //

dimensions      [0 0 -1 0 0 0 0];


internalField   nonuniform List<scalar> 
2560
(
1.52418e+06
1.52418e+06
263715
263719
87247.3
87250.1
41882.1
41882.7
26203.8
26203.4
19132.1
19131.3
15221.7
15221
12750.8
12750.1
11045.7
11045
9794.99
9794.37
8836.21
8835.62
8076.34
8075.79
7458.35
7457.84
6945.3
6944.83
6512.18
6511.73
6141.43
6141.01
5820.37
5819.98
5539.59
5539.22
5291.95
5291.6
5071.96
5071.62
4875.27
4874.95
4698.45
4698.14
4538.69
4538.39
4393.73
4393.45
4261.7
4261.43
4141.04
4140.77
4030.43
4030.17
3928.78
3928.52
3835.13
3834.89
3748.69
3748.45
3668.76
3668.53
3594.74
3594.51
3526.1
3525.88
3462.39
3462.16
3403.18
3402.96
3348.11
3347.9
3296.86
3296.65
3249.13
3248.91
3204.64
3204.43
3163.18
3162.97
3124.53
3124.32
3088.5
3088.29
3054.92
3054.71
3023.64
3023.44
2994.51
2994.3
2967.37
2967.17
2942.08
2941.87
2918.48
2918.27
2896.41
2896.2
2875.73
2875.52
2856.28
2856.07
2837.95
2837.73
2820.6
2820.39
2804.18
2803.95
2788.64
2788.41
2774.08
2773.85
2760.68
2760.44
2748.75
2748.5
2738.6
2738.35
2730.42
2730.16
2724.07
2723.8
2718.74
2718.46
2713.11
2712.82
2705.45
2705.16
2694.02
2693.73
2677.42
2677.13
2654.87
2654.59
2626.32
2626.05
2592.36
2592.1
2553.97
2553.74
2512.38
2512.16
2468.78
2468.58
2424.25
2424.06
2379.67
2379.49
2335.68
2335.51
2292.7
2292.54
2250.99
2250.83
2210.58
2210.43
2171.42
2171.28
2133.37
2133.24
2096.24
2096.12
2059.81
2059.69
2023.86
2023.76
1988.2
1988.11
1952.65
1952.57
1917.06
1917
1881.33
1881.28
1845.36
1845.32
1809.1
1809.06
1772.53
1772.5
1735.68
1735.65
1698.59
1698.57
1661.37
1661.35
1624.13
1624.12
1587.03
1587.02
1550.22
1550.21
1513.85
1513.84
1478.05
1478.05
1442.94
1442.93
1408.58
1408.57
1375.01
1375
1342.25
1342.25
1310.3
1310.29
1279.14
1279.13
1248.75
1248.75
1219.13
1219.13
1190.27
1190.27
1162.17
1162.17
1134.84
1134.84
1108.28
1108.28
1082.48
1082.48
1057.43
1057.43
1033.09
1033.09
1009.41
1009.41
986.328
986.328
963.763
963.764
941.641
941.643
919.896
919.898
898.476
898.478
877.359
877.361
856.55
856.553
836.084
836.088
816.018
816.022
796.42
796.423
777.352
777.356
758.867
758.87
740.995
740.999
723.735
723.739
707.063
707.066
690.938
690.941
675.311
675.314
660.136
660.139
645.371
645.374
630.986
630.989
616.963
616.966
603.291
603.294
589.968
589.971
576.993
576.996
564.367
564.369
552.088
552.09
540.152
540.155
528.553
528.556
517.28
517.282
506.319
506.321
495.655
495.657
485.273
485.275
475.157
475.159
465.294
465.296
455.674
455.676
446.292
446.294
437.145
437.146
428.235
428.236
419.567
419.568
411.149
411.15
402.989
402.99
395.097
395.098
387.481
387.481
380.148
380.147
373.101
373.1
366.343
366.341
359.872
359.87
353.684
353.682
347.771
347.768
342.121
342.118
336.718
336.714
331.541
331.536
326.562
326.557
321.751
321.745
317.07
317.064
312.477
312.47
307.929
307.921
303.381
303.373
298.793
298.785
294.132
294.125
289.375
289.37
284.516
284.514
279.564
279.564
274.543
274.545
269.494
269.496
264.466
264.469
259.519
259.522
254.708
254.71
250.082
250.084
245.676
245.677
241.505
241.506
237.569
237.569
233.841
233.84
230.281
230.28
226.841
226.839
223.468
223.467
220.111
220.11
216.728
216.728
213.285
213.287
209.763
209.767
206.153
206.158
202.456
202.461
198.682
198.687
194.851
194.855
190.985
190.989
187.109
187.113
183.249
183.253
179.431
179.434
175.677
175.679
172.007
172.009
168.439
168.441
164.987
164.989
161.664
161.665
158.476
158.478
155.432
155.433
152.534
152.535
149.783
149.783
147.177
147.177
144.709
144.709
142.37
142.37
140.144
140.144
138.012
138.011
135.948
135.947
133.923
133.923
131.906
131.905
129.862
129.861
127.761
127.759
125.575
125.574
123.287
123.285
120.886
120.884
118.377
118.376
115.777
115.777
113.113
113.113
110.413
110.414
107.713
107.714
105.046
105.047
102.438
102.439
99.9071
99.9074
97.458
97.4582
95.0872
95.0873
92.7824
92.7823
90.5281
90.5279
88.3094
88.3091
86.115
86.1147
83.9397
83.9396
81.7853
81.7854
79.6578
79.6581
77.5653
77.5656
75.5159
75.5163
73.5176
73.518
71.5761
71.5763
69.6943
69.6946
67.8736
67.8738
66.1136
66.1137
64.4133
64.4135
62.7719
62.7721
61.1885
61.1886
59.6622
59.6624
58.1925
58.1926
56.7782
56.7783
55.4179
55.418
54.1098
54.1098
52.8516
52.8517
51.641
51.641
50.4754
50.4755
49.3527
49.3528
48.2709
48.2709
47.2283
47.2284
46.2241
46.2241
45.2574
45.2575
44.3282
44.3282
43.4363
43.4364
42.5819
42.5819
41.765
41.765
40.9853
40.9853
40.2425
40.2426
39.5359
39.5359
38.8644
38.8644
38.2271
38.2271
37.6229
37.6229
37.0505
37.0505
36.509
36.509
35.9975
35.9975
35.5149
35.5149
35.0605
35.0605
34.6333
34.6333
34.2327
34.2327
33.8577
33.8577
33.5075
33.5075
33.1814
33.1814
32.8786
32.8786
32.5984
32.5984
32.3403
32.3403
32.1037
32.1037
31.8884
31.8884
31.6942
31.6942
31.521
31.521
31.3688
31.3688
31.2375
31.2375
31.1272
31.1272
31.0374
31.0374
30.968
30.968
30.9186
30.9186
30.8888
30.8888
30.8784
30.8784
30.8871
30.8871
30.9149
30.9149
30.962
30.962
31.0286
31.0286
31.1152
31.1152
31.2223
31.2223
31.3504
31.3504
31.5001
31.5001
31.6721
31.6721
31.8669
31.8669
32.0852
32.0852
32.3276
32.3276
32.5944
32.5944
32.8858
32.8858
33.2012
33.2012
33.5383
33.5383
33.8913
33.8913
34.2464
34.2464
34.5742
34.5742
34.815
34.815
34.7806
34.7806
1.52418e+06
1.52418e+06
263719
263715
87250.1
87247.3
41882.7
41882.1
26203.4
26203.8
19131.3
19132.1
15221
15221.7
12750.1
12750.8
11045
11045.7
9794.36
9794.99
8835.62
8836.21
8075.79
8076.34
7457.84
7458.35
6944.83
6945.3
6511.73
6512.18
6141.01
6141.43
5819.98
5820.37
5539.21
5539.59
5291.6
5291.95
5071.62
5071.96
4874.95
4875.27
4698.14
4698.45
4538.39
4538.69
4393.45
4393.73
4261.43
4261.7
4140.77
4141.04
4030.17
4030.43
3928.52
3928.78
3834.88
3835.13
3748.45
3748.69
3668.52
3668.76
3594.51
3594.74
3525.88
3526.1
3462.16
3462.39
3402.96
3403.18
3347.9
3348.11
3296.65
3296.86
3248.91
3249.13
3204.43
3204.64
3162.97
3163.18
3124.32
3124.53
3088.29
3088.5
3054.71
3054.92
3023.44
3023.64
2994.3
2994.51
2967.17
2967.37
2941.87
2942.08
2918.27
2918.48
2896.2
2896.41
2875.52
2875.73
2856.07
2856.28
2837.73
2837.95
2820.39
2820.6
2803.95
2804.18
2788.41
2788.64
2773.85
2774.08
2760.44
2760.68
2748.5
2748.75
2738.35
2738.6
2730.16
2730.42
2723.8
2724.07
2718.46
2718.74
2712.82
2713.11
2705.16
2705.45
2693.73
2694.02
2677.13
2677.42
2654.59
2654.87
2626.05
2626.32
2592.1
2592.36
2553.74
2553.97
2512.16
2512.38
2468.58
2468.78
2424.06
2424.25
2379.49
2379.67
2335.51
2335.68
2292.54
2292.7
2250.83
2250.99
2210.43
2210.58
2171.28
2171.42
2133.24
2133.37
2096.12
2096.24
2059.69
2059.81
2023.76
2023.86
1988.11
1988.2
1952.57
1952.65
1917
1917.06
1881.28
1881.33
1845.32
1845.36
1809.06
1809.1
1772.5
1772.53
1735.65
1735.68
1698.57
1698.59
1661.35
1661.37
1624.12
1624.13
1587.02
1587.03
1550.21
1550.22
1513.84
1513.85
1478.05
1478.05
1442.93
1442.94
1408.57
1408.58
1375
1375.01
1342.25
1342.25
1310.29
1310.3
1279.13
1279.14
1248.75
1248.75
1219.13
1219.13
1190.27
1190.27
1162.17
1162.17
1134.84
1134.84
1108.28
1108.28
1082.48
1082.48
1057.43
1057.43
1033.09
1033.09
1009.41
1009.41
986.328
986.327
963.764
963.762
941.643
941.641
919.898
919.895
898.478
898.476
877.361
877.358
856.553
856.55
836.087
836.084
816.022
816.018
796.423
796.419
777.356
777.352
758.87
758.867
740.998
740.995
723.738
723.735
707.066
707.063
690.94
690.937
675.314
675.311
660.139
660.135
645.374
645.37
630.989
630.986
616.965
616.962
603.294
603.291
589.97
589.967
576.995
576.992
564.369
564.366
552.09
552.087
540.154
540.152
528.555
528.552
517.281
517.279
506.32
506.318
495.656
495.654
485.274
485.272
475.158
475.156
465.295
465.293
455.675
455.674
446.293
446.291
437.145
437.144
428.235
428.234
419.567
419.566
411.149
411.148
402.989
402.989
395.097
395.097
387.481
387.481
380.147
380.147
373.099
373.1
366.341
366.342
359.869
359.871
353.681
353.683
347.767
347.77
342.117
342.12
336.713
336.717
331.535
331.54
326.556
326.562
321.745
321.751
317.063
317.069
312.469
312.476
307.92
307.928
303.372
303.38
298.785
298.793
294.125
294.132
289.37
289.375
284.513
284.516
279.563
279.563
274.545
274.543
269.496
269.493
264.469
264.466
259.521
259.519
254.71
254.708
250.083
250.082
245.676
245.675
241.505
241.505
237.568
237.568
233.839
233.84
230.279
230.28
226.838
226.84
223.465
223.467
220.109
220.11
216.726
216.726
213.286
213.284
209.766
209.762
206.157
206.152
202.46
202.455
198.686
198.682
194.855
194.85
190.988
190.984
187.112
187.108
183.252
183.249
179.434
179.431
175.679
175.676
172.009
172.007
168.441
168.439
164.989
164.987
161.665
161.663
158.477
158.476
155.432
155.431
152.534
152.533
149.783
149.782
147.176
147.175
144.708
144.708
142.368
142.368
140.142
140.142
138.01
138.01
135.946
135.946
133.921
133.922
131.903
131.905
129.859
129.861
127.758
127.76
125.572
125.574
123.284
123.286
120.883
120.885
118.375
118.377
115.777
115.777
113.113
113.113
110.414
110.413
107.714
107.714
105.047
105.046
102.439
102.438
99.9073
99.907
97.4579
97.4578
95.0869
95.0869
92.7819
92.782
90.5274
90.5277
88.3086
88.309
86.1143
86.1147
83.9392
83.9395
81.7852
81.7851
79.658
79.6577
77.5656
77.5652
75.5163
75.5159
73.518
73.5177
71.5764
71.5761
69.6947
69.6944
67.8739
67.8736
66.1138
66.1136
64.4135
64.4133
62.7721
62.7719
61.1886
61.1884
59.6623
59.6622
58.1925
58.1924
56.7782
56.7781
55.4179
55.4178
54.1097
54.1096
52.8516
52.8515
51.6409
51.6408
50.4754
50.4753
49.3527
49.3526
48.2708
48.2708
47.2283
47.2283
46.2241
46.224
45.2575
45.2574
44.3283
44.3282
43.4364
43.4364
42.582
42.5819
41.7651
41.765
40.9854
40.9854
40.2426
40.2426
39.5359
39.5359
38.8645
38.8644
38.2272
38.2271
37.6229
37.6228
37.0505
37.0505
36.509
36.509
35.9975
35.9975
35.5149
35.5149
35.0605
35.0605
34.6333
34.6333
34.2327
34.2327
33.8577
33.8576
33.5075
33.5075
33.1814
33.1814
32.8786
32.8786
32.5984
32.5984
32.3403
32.3403
32.1037
32.1037
31.8884
31.8884
31.6942
31.6942
31.521
31.521
31.3688
31.3688
31.2375
31.2375
31.1271
31.1271
31.0374
31.0374
30.968
30.968
30.9186
30.9186
30.8888
30.8888
30.8783
30.8783
30.887
30.887
30.9149
30.9149
30.962
30.962
31.0286
31.0286
31.1152
31.1152
31.2222
31.2222
31.3503
31.3503
31.5001
31.5001
31.672
31.672
31.8668
31.8668
32.0851
32.0851
32.3274
32.3274
32.5942
32.5942
32.8856
32.8856
33.2009
33.2009
33.5379
33.5379
33.8907
33.8907
34.2458
34.2458
34.5735
34.5735
34.8143
34.8143
34.78
34.78
34.7806
34.7806
34.8151
34.8151
34.5744
34.5744
34.2466
34.2466
33.8915
33.8915
33.5386
33.5386
33.2014
33.2014
32.8861
32.8861
32.5947
32.5947
32.3278
32.3278
32.0854
32.0854
31.8671
31.8671
31.6722
31.6722
31.5002
31.5002
31.3505
31.3505
31.2224
31.2224
31.1154
31.1154
31.0288
31.0288
30.9622
30.9622
30.9151
30.9151
30.8872
30.8872
30.8785
30.8785
30.889
30.889
30.9188
30.9188
30.9682
30.9682
31.0375
31.0375
31.1272
31.1272
31.2376
31.2376
31.3688
31.3688
31.521
31.521
31.6942
31.6942
31.8884
31.8884
32.1037
32.1037
32.3402
32.3402
32.5983
32.5983
32.8784
32.8784
33.1811
33.1811
33.5071
33.5071
33.8572
33.8572
34.2321
34.2321
34.6327
34.6328
35.0598
35.0598
35.5142
35.5142
35.9967
35.9967
36.5082
36.5082
37.0495
37.0496
37.6218
37.6218
38.226
38.226
38.8632
38.8632
39.5346
39.5346
40.2411
40.2411
40.9838
40.9838
41.7634
41.7634
42.5802
42.5802
43.4345
43.4345
44.3262
44.3263
45.2554
45.2554
46.2219
46.2219
47.226
47.2261
48.2684
48.2684
49.3501
49.3501
50.4726
50.4727
51.638
51.6381
52.8486
52.8486
54.1067
54.1067
55.4147
55.4148
56.7749
56.775
58.1891
58.1892
59.6588
59.6589
61.1849
61.185
62.7683
62.7684
64.4096
64.4097
66.1097
66.1099
67.8696
67.8698
69.6903
69.6905
71.5718
71.5721
73.5133
73.5136
75.5114
75.5118
77.5607
77.5611
79.6534
79.6537
81.781
81.7811
83.9357
83.9355
86.1113
86.111
88.3059
88.3055
90.5248
90.5246
92.7794
92.7793
95.0843
95.0844
97.4552
97.4554
99.9045
99.9048
102.436
102.436
105.044
105.044
107.711
107.712
110.412
110.412
113.111
113.112
115.777
115.776
118.376
118.375
120.885
120.883
123.286
123.284
125.575
125.573
127.76
127.758
129.861
129.86
131.905
131.904
133.922
133.921
135.946
135.946
138.01
138.01
140.142
140.142
142.367
142.367
144.706
144.707
147.174
147.174
149.78
149.78
152.531
152.531
155.428
155.429
158.472
158.474
161.659
161.661
164.983
164.985
168.434
168.436
172.002
172.004
175.671
175.674
179.425
179.428
183.243
183.246
187.102
187.106
190.978
190.982
194.844
194.848
198.675
198.68
202.448
202.453
206.145
206.15
209.755
209.758
213.276
213.278
216.718
216.718
220.102
220.101
223.458
223.456
226.83
226.829
230.27
230.269
233.829
233.829
237.558
237.558
241.494
241.494
245.664
245.665
250.071
250.072
254.696
254.699
259.507
259.51
264.454
264.457
269.481
269.484
274.531
274.533
279.551
279.552
284.504
284.501
289.363
289.358
294.12
294.113
298.781
298.773
303.368
303.36
307.915
307.907
312.463
312.456
317.056
317.049
321.737
321.731
326.548
326.542
331.525
331.521
336.702
336.698
342.105
342.101
347.754
347.751
353.666
353.664
359.853
359.852
366.324
366.322
373.081
373.08
380.127
380.127
387.46
387.46
395.075
395.075
402.966
402.966
411.124
411.125
419.541
419.542
428.208
428.209
437.116
437.118
446.262
446.263
455.642
455.644
465.26
465.262
475.121
475.123
485.235
485.237
495.616
495.618
506.278
506.28
517.238
517.24
528.51
528.512
540.107
540.11
552.041
552.044
564.318
564.321
576.943
576.946
589.917
589.92
603.238
603.241
616.907
616.911
630.928
630.931
645.31
645.313
660.072
660.075
675.244
675.248
690.868
690.872
706.991
706.995
723.661
723.665
740.919
740.923
758.788
758.792
777.271
777.275
796.336
796.34
815.933
815.937
835.997
836
856.46
856.463
877.267
877.27
898.382
898.385
919.8
919.803
941.544
941.546
963.664
963.666
986.228
986.229
1009.31
1009.31
1032.99
1032.99
1057.33
1057.33
1082.38
1082.38
1108.17
1108.17
1134.73
1134.73
1162.06
1162.05
1190.15
1190.15
1219.01
1219.01
1248.63
1248.62
1279.01
1279.01
1310.17
1310.16
1342.12
1342.11
1374.88
1374.87
1408.44
1408.43
1442.8
1442.79
1477.91
1477.9
1513.71
1513.7
1550.07
1550.06
1586.88
1586.87
1623.98
1623.96
1661.22
1661.2
1698.44
1698.42
1735.53
1735.5
1772.39
1772.35
1808.95
1808.91
1845.21
1845.16
1881.17
1881.12
1916.9
1916.83
1952.48
1952.4
1988.02
1987.93
2023.68
2023.57
2059.62
2059.5
2096.05
2095.92
2133.17
2133.03
2171.22
2171.07
2210.37
2210.21
2250.77
2250.61
2292.48
2292.31
2335.45
2335.27
2379.44
2379.25
2424.01
2423.82
2468.54
2468.33
2512.14
2511.91
2553.73
2553.48
2592.12
2591.85
2626.09
2625.81
2654.65
2654.36
2677.21
2676.91
2693.81
2693.51
2705.25
2704.95
2712.9
2712.61
2718.54
2718.25
2723.87
2723.59
2730.23
2729.95
2738.4
2738.14
2748.55
2748.29
2760.48
2760.23
2773.88
2773.64
2788.45
2788.21
2803.98
2803.75
2820.42
2820.19
2837.77
2837.55
2856.11
2855.89
2875.56
2875.34
2896.24
2896.02
2918.31
2918.1
2941.92
2941.71
2967.22
2967
2994.35
2994.14
3023.49
3023.28
3054.77
3054.56
3088.35
3088.13
3124.38
3124.16
3163.03
3162.81
3204.49
3204.27
3248.97
3248.75
3296.7
3296.48
3347.95
3347.73
3403.01
3402.78
3462.21
3461.98
3525.92
3525.69
3594.55
3594.31
3668.56
3668.32
3748.48
3748.24
3834.92
3834.66
3928.56
3928.29
4030.2
4029.93
4140.8
4140.52
4261.45
4261.17
4393.47
4393.18
4538.41
4538.11
4698.15
4697.83
4874.96
4874.63
5071.63
5071.28
5291.61
5291.24
5539.22
5538.83
5819.98
5819.56
6141.01
6140.57
6511.73
6511.26
6944.82
6944.32
7457.83
7457.3
8075.77
8075.2
8835.59
8834.98
9794.32
9793.66
11044.9
11044.2
12750
12749.2
15220.8
15220
19131.1
19130.3
26202.8
26202.4
41881.5
41882.1
87247.7
87250.6
263716
263720
1.52419e+06
1.52419e+06
34.78
34.78
34.8144
34.8144
34.5737
34.5736
34.2459
34.2459
33.8909
33.8909
33.5381
33.5381
33.2011
33.2011
32.8858
32.8858
32.5945
32.5945
32.3277
32.3277
32.0853
32.0853
31.867
31.867
31.6722
31.6722
31.5002
31.5002
31.3505
31.3505
31.2224
31.2224
31.1154
31.1154
31.0288
31.0288
30.9621
30.9621
30.915
30.915
30.8872
30.8872
30.8785
30.8785
30.8889
30.8889
30.9187
30.9187
30.9681
30.9681
31.0375
31.0375
31.1272
31.1272
31.2376
31.2376
31.3688
31.3688
31.521
31.521
31.6942
31.6942
31.8884
31.8884
32.1037
32.1037
32.3402
32.3402
32.5983
32.5983
32.8784
32.8784
33.1811
33.1811
33.5071
33.5071
33.8572
33.8572
34.2321
34.2321
34.6327
34.6327
35.0598
35.0598
35.5142
35.5142
35.9967
35.9967
36.5082
36.5081
37.0496
37.0495
37.6218
37.6218
38.226
38.226
38.8632
38.8632
39.5346
39.5346
40.2412
40.2411
40.9839
40.9838
41.7634
41.7634
42.5803
42.5802
43.4346
43.4345
44.3263
44.3263
45.2554
45.2554
46.2219
46.2218
47.226
47.226
48.2684
48.2683
49.35
49.35
50.4726
50.4725
51.638
51.6379
52.8485
52.8484
54.1066
54.1065
55.4147
55.4146
56.7749
56.7748
58.1891
58.189
59.6589
59.6587
61.185
61.1849
62.7684
62.7682
64.4097
64.4095
66.1099
66.1097
67.8699
67.8696
69.6906
69.6903
71.5722
71.5718
73.5137
73.5133
75.5118
75.5114
77.5611
77.5606
79.6536
79.6532
81.7809
81.7809
83.9352
83.9355
86.1105
86.111
88.3051
88.3055
90.5241
90.5244
92.7788
92.779
95.084
95.084
97.4551
97.455
99.9046
99.9043
102.436
102.436
105.045
105.044
107.712
107.711
110.412
110.412
113.112
113.111
115.776
115.777
118.374
118.376
120.883
120.885
123.283
123.285
125.572
125.574
127.757
127.759
129.858
129.86
131.902
131.903
133.92
133.921
135.944
135.945
138.008
138.009
140.14
140.141
142.366
142.366
144.705
144.705
147.173
147.173
149.78
149.779
152.531
152.53
155.429
155.428
158.473
158.472
161.66
161.659
164.984
164.982
168.436
168.434
172.004
172.001
175.674
175.671
179.428
179.425
183.246
183.243
187.106
187.102
190.982
190.977
194.848
194.843
198.679
198.674
202.452
202.447
206.149
206.144
209.757
209.754
213.277
213.275
216.717
216.717
220.1
220.101
223.455
223.457
226.827
226.829
230.268
230.269
233.828
233.829
237.557
237.557
241.494
241.493
245.665
245.663
250.072
250.07
254.698
254.696
259.51
259.507
264.457
264.454
269.484
269.481
274.532
274.531
279.551
279.551
284.501
284.504
289.358
289.363
294.112
294.12
298.772
298.78
303.359
303.367
307.907
307.915
312.455
312.463
317.048
317.055
321.73
321.736
326.542
326.547
331.52
331.525
336.697
336.702
342.1
342.104
347.75
347.753
353.663
353.665
359.851
359.853
366.322
366.323
373.08
373.08
380.126
380.126
387.459
387.459
395.074
395.074
402.966
402.965
411.124
411.123
419.541
419.54
428.208
428.207
437.117
437.116
446.263
446.261
455.643
455.642
465.261
465.259
475.122
475.12
485.237
485.235
495.617
495.615
506.28
506.277
517.24
517.237
528.512
528.509
540.109
540.107
552.043
552.04
564.321
564.318
576.946
576.943
589.919
589.916
603.241
603.238
616.91
616.907
630.931
630.927
645.313
645.309
660.075
660.072
675.247
675.244
690.871
690.868
706.994
706.991
723.665
723.661
740.922
740.919
758.791
758.788
777.274
777.271
796.339
796.336
815.936
815.933
836
835.997
856.463
856.46
877.27
877.267
898.385
898.382
919.802
919.8
941.546
941.544
963.666
963.664
986.229
986.228
1009.31
1009.31
1032.99
1032.99
1057.33
1057.33
1082.38
1082.38
1108.17
1108.17
1134.73
1134.73
1162.05
1162.06
1190.15
1190.15
1219
1219.01
1248.62
1248.63
1279.01
1279.01
1310.16
1310.17
1342.11
1342.12
1374.87
1374.88
1408.43
1408.44
1442.79
1442.8
1477.9
1477.91
1513.7
1513.71
1550.06
1550.07
1586.87
1586.88
1623.96
1623.98
1661.2
1661.22
1698.42
1698.44
1735.5
1735.53
1772.35
1772.39
1808.91
1808.95
1845.16
1845.21
1881.12
1881.17
1916.83
1916.9
1952.4
1952.48
1987.93
1988.02
2023.57
2023.68
2059.5
2059.62
2095.92
2096.05
2133.03
2133.18
2171.07
2171.22
2210.21
2210.37
2250.61
2250.77
2292.31
2292.48
2335.27
2335.45
2379.25
2379.44
2423.82
2424.02
2468.33
2468.54
2511.91
2512.14
2553.48
2553.73
2591.85
2592.12
2625.81
2626.09
2654.36
2654.65
2676.91
2677.21
2693.51
2693.82
2704.95
2705.25
2712.61
2712.9
2718.25
2718.54
2723.59
2723.88
2729.95
2730.23
2738.14
2738.41
2748.29
2748.55
2760.23
2760.48
2773.64
2773.88
2788.21
2788.45
2803.75
2803.99
2820.19
2820.42
2837.55
2837.77
2855.89
2856.12
2875.34
2875.56
2896.03
2896.25
2918.1
2918.32
2941.71
2941.92
2967
2967.22
2994.14
2994.36
3023.28
3023.49
3054.56
3054.77
3088.13
3088.35
3124.16
3124.38
3162.81
3163.03
3204.27
3204.49
3248.75
3248.97
3296.48
3296.7
3347.73
3347.95
3402.78
3403.01
3461.98
3462.21
3525.69
3525.92
3594.31
3594.55
3668.32
3668.57
3748.24
3748.49
3834.66
3834.92
3928.3
3928.56
4029.93
4030.21
4140.52
4140.8
4261.17
4261.46
4393.18
4393.48
4538.11
4538.42
4697.83
4698.16
4874.63
4874.97
5071.28
5071.63
5291.24
5291.61
5538.83
5539.22
5819.57
5819.98
6140.57
6141.01
6511.26
6511.73
6944.32
6944.82
7457.3
7457.83
8075.21
8075.78
8834.98
8835.6
9793.66
9794.33
11044.2
11044.9
12749.2
12750
15220
15220.8
19130.3
19131.1
26202.4
26202.8
41882.1
41881.5
87250.6
87247.7
263720
263716
1.52419e+06
1.52419e+06
)
;

boundaryField
{
    walls
    {
        blending        binomial2;
        n               2;
        beta1           0.075;
        type            omegaWallFunction;
        value           nonuniform List<scalar> 8(1.52418e+06 1.52418e+06 1.52418e+06 1.52418e+06 1.52419e+06 1.52419e+06 1.52419e+06 1.52419e+06);
    }
    inlet
    {
        type            cyclic;
    }
    outlet
    {
        type            cyclic;
    }
    sides
    {
        type            empty;
    }
}


// ************************************************************************* //
