/*--------------------------------*- C++ -*----------------------------------*\
| =========                 |                                                 |
| \\      /  F ield         | OpenFOAM: The Open Source CFD Toolbox           |
|  \\    /   O peration     | Version:  2012                                  |
|   \\  /    A nd           | Website:  www.openfoam.com                      |
|    \\/     M anipulation  |                                                 |
\*---------------------------------------------------------------------------*/
FoamFile
{
    version     2.0;
    format      ascii;
    class       volScalarField;
    location    "12900";
    object      p;
}
// * * * * * * * * * * * * * * * * * * * * * * * * * * * * * * * * * * * * * //

dimensions      [0 2 -2 0 0 0 0];


internalField   nonuniform List<scalar> 
2560
(
9.68944e-09
-1.18038
-3.70112e-05
-1.18041
-3.93466e-05
-1.18041
-3.09903e-05
-1.18042
-2.85512e-05
-1.18042
-2.79364e-05
-1.18042
-2.72321e-05
-1.18042
-2.70753e-05
-1.18042
-2.63251e-05
-1.18042
-2.62568e-05
-1.18042
-2.53382e-05
-1.18042
-2.53185e-05
-1.18042
-2.77563e-05
-1.18042
-3.9227e-05
-1.17971
-8.99376e-05
-1.18054
-0.000175261
-1.17861
-0.000361736
-1.1811
-0.000569593
-1.18111
-0.000830912
-1.18198
-0.00106113
-1.182
-0.00134609
-1.18295
-0.00157701
-1.18296
-0.00186925
-1.18396
-0.0020942
-1.18079
-0.00246843
-1.18523
-0.0028331
-1.18085
-0.00345739
-1.18718
-0.00405098
-1.18723
-0.00491244
-1.18971
-0.00561822
-1.18983
-0.00657164
-1.1925
-0.00722359
-1.19262
-0.00813936
-1.19526
-0.00862502
-1.19531
-0.00948669
-1.19783
-0.00987052
-1.19179
-0.0108844
-1.2007
-0.0114228
-1.17494
-0.0128868
-1.20503
-0.0138165
-1.17149
-0.0158843
-1.21149
-0.0172506
-1.18591
-0.0198459
-1.21978
-0.0214893
-1.21088
-0.0243983
-1.22902
-0.0261163
-1.22758
-0.0292062
-1.23866
-0.0309351
-1.23355
-0.0342776
-1.24884
-0.0362005
-1.16777
-0.0401374
-1.26204
-0.0431887
-1.20523
-0.0495414
-1.28018
-0.0573021
-1.28162
-0.0714545
-1.31094
-0.0913424
-1.31723
-0.121466
-1.37027
-0.160654
-1.38526
-0.209927
-1.46873
-0.265309
-1.49242
-0.322627
-1.59222
-0.376225
-1.61732
-0.419397
-1.70036
-0.449594
-1.71596
-0.462115
-1.75464
-0.460796
-1.75295
-0.443999
-1.7128
-0.420136
-1.70154
-0.388111
-1.64165
-0.356831
-1.62806
-0.323495
-1.56886
-0.295208
-1.55673
-0.267519
-0.263438
-0.245666
-0.25038
-0.224869
-0.220927
-0.20919
-0.211749
-0.194332
-0.190448
-0.183743
-0.184052
-0.173714
-0.169841
-0.167197
-0.165689
-0.160976
-0.157093
-0.157576
-0.154681
-0.154144
-0.150246
-0.152872
-0.149068
-0.151307
-0.147401
-0.151464
-0.14705
-0.151411
-0.147375
-0.152762
-0.148692
-0.154284
-0.150256
-0.1574
-0.153346
-0.161147
-0.157131
-0.166777
-0.162742
-0.173434
-0.169434
-0.182084
-0.17807
-0.191828
-0.187848
-0.203298
-0.19931
-0.215516
-0.211559
-0.22882
-0.22486
-0.242238
-0.238307
-0.255975
-0.252044
-0.269186
-0.265283
-0.282099
-0.278199
-0.294083
-0.290208
-0.305457
-0.301587
-0.315813
-0.311968
-0.325536
-0.321697
-0.334367
-0.330552
-0.342695
-0.338888
-0.350333
-0.346548
-0.357628
-0.353853
-0.364426
-0.360673
-0.371035
-0.367293
-0.377343
-0.373622
-0.383634
-0.379927
-0.389847
-0.386162
-0.396273
-0.392603
-0.40288
-0.399233
-0.409921
-0.406291
-0.417382
-0.413777
-0.425483
-0.421897
-0.434216
-0.430656
-0.443795
-0.440258
-0.454259
-0.450749
-0.465869
-0.462384
-0.478763
-0.475306
-0.493291
-0.48986
-0.509704
-0.506303
-0.52841
-0.525036
-0.549699
-0.546355
-0.573921
-0.570605
-0.601231
-0.597945
-0.631743
-0.628484
-0.665293
-0.662063
-0.701582
-0.69838
-0.740015
-0.736841
-0.779873
-0.776726
-0.820211
-0.817092
-0.860062
-0.85697
-0.898399
-0.895335
-0.934336
-0.931298
-0.967101
-0.96409
-0.996183
-0.993198
-1.02127
-1.01831
-1.04234
-1.0394
-1.05952
-1.05661
-1.07317
-1.07029
-1.08371
-1.08085
-1.09164
-1.0888
-1.09744
-1.09463
-1.10159
-1.0988
-1.10448
-1.10171
-1.10645
-1.10371
-1.10777
-1.10505
-1.10864
-1.10594
-1.1092
-1.10652
-1.10956
-1.1069
-1.10979
-1.10714
-1.10992
-1.1073
-1.11
-1.10739
-1.11003
-1.10744
-1.11003
-1.10746
-1.11
-1.10745
-1.10996
-1.10742
-1.1099
-1.10738
-1.10983
-1.10732
-1.10975
-1.10726
-1.10966
-1.10718
-1.10957
-1.1071
-1.10947
-1.10702
-1.10938
-1.10694
-1.10929
-1.10686
-1.1092
-1.10678
-1.10912
-1.10671
-1.10905
-1.10664
-1.10899
-1.10658
-1.10894
-1.10653
-1.10889
-1.10648
-1.10885
-1.10645
-1.10882
-1.10642
-1.10879
-1.1064
-1.10877
-1.10638
-1.10875
-1.10637
-1.10873
-1.10637
-1.10872
-1.10636
-1.1087
-1.10636
-1.10869
-1.10635
-1.10867
-1.10635
-1.10865
-1.10634
-1.10862
-1.10631
-1.10858
-1.10628
-1.10852
-1.10623
-1.10844
-1.10616
-1.10834
-1.10605
-1.10819
-1.10591
-1.10799
-1.10571
-1.10772
-1.10544
-1.10736
-1.1051
-1.1069
-1.10464
-1.1063
-1.10406
-1.10556
-1.10333
-1.10463
-1.10243
-1.1035
-1.10131
-1.10213
-1.09997
-1.1005
-1.09836
-1.09859
-1.09648
-1.09639
-1.0943
-1.09387
-1.09182
-1.09105
-1.08902
-1.08792
-1.08593
-1.08451
-1.08254
-1.08083
-1.07889
-1.0769
-1.07499
-1.07276
-1.07089
-1.06843
-1.06659
-1.06395
-1.06214
-1.05933
-1.05754
-1.05459
-1.05283
-1.04973
-1.048
-1.04476
-1.04305
-1.03966
-1.03797
-1.03443
-1.03276
-1.02905
-1.02739
-1.02351
-1.02187
-1.0178
-1.01616
-1.01192
-1.01029
-1.00588
-1.00425
-0.999681
-0.998053
-0.993354
-0.991732
-0.986928
-0.985314
-0.980428
-0.978825
-0.973895
-0.972303
-0.967352
-0.965773
-0.960833
-0.959267
-0.954355
-0.952801
-0.947934
-0.946392
-0.941575
-0.940042
-0.93528
-0.933756
-0.929044
-0.927526
-0.922861
-0.921346
-0.916718
-0.915205
-0.91061
-0.909097
-0.904519
-0.903009
-0.898444
-0.896938
-0.892375
-0.890875
-0.886312
-0.884818
-0.880245
-0.878759
-0.874179
-0.872699
-0.8681
-0.866628
-0.862014
-0.860549
-0.855905
-0.854448
-0.849773
-0.848323
-0.843601
-0.842158
-0.837388
-0.835952
-0.831116
-0.829687
-0.824784
-0.823362
-0.818373
-0.81696
-0.811889
-0.810485
-0.805315
-0.80392
-0.798661
-0.797277
-0.791906
-0.790534
-0.785071
-0.783713
-0.778133
-0.776789
-0.771115
-0.769787
-0.763995
-0.762684
-0.756796
-0.755504
-0.749498
-0.748225
-0.742133
-0.740883
-0.734674
-0.733444
-0.727162
-0.725957
-0.71957
-0.718384
-0.711948
-0.710791
-0.704263
-0.703124
-0.696575
-0.695466
-0.688838
-0.687746
-0.681127
-0.680068
-0.673375
-0.672328
-0.665669
-0.664661
-0.657918
-0.656917
-0.650224
-0.649266
-0.642465
-0.641506
-0.634769
-0.633863
-0.626979
-0.626061
-0.619262
-0.618408
-0.611422
-0.610542
-0.603682
-0.60288
-0.595799
-0.594953
-0.588071
-0.587322
-0.580195
-0.579378
-0.572554
-0.571858
-0.564766
-0.563973
-0.557321
-0.55668
-0.549722
-0.548947
-0.542582
-0.541999
-0.535258
-0.534496
-0.528512
-0.527994
-0.521526
-0.520773
-0.515231
-0.514787
-0.508599
-0.507852
-0.502773
-0.502418
-0.496484
-0.495739
-0.491112
-0.490864
-0.485123
-0.484375
-0.480169
-0.480047
-0.474422
-0.473664
-0.469834
-0.469866
-0.464269
-0.46349
-0.459995
-0.460206
-0.454569
-0.453748
-0.450585
-0.450998
-0.44531
-0.444411
-0.441649
-0.442248
-0.436619
-0.43386
-0.433381
-0.431837
-0.428833
-0.424821
-0.426215
-0.423135
-0.422488
-0.418246
-0.420719
-0.416983
-0.4182
-0.413592
-0.417425
-0.412912
-0.41653
-0.411312
-1.18374
-0.000353033
-1.18377
-0.000390063
-1.18378
-0.000392399
-1.18378
-0.000384041
-1.18378
-0.000381583
-1.18378
-0.000380972
-1.18378
-0.000380218
-1.18379
-0.000380072
-1.18379
-0.000379254
-1.18379
-0.000379207
-1.18379
-0.000378217
-1.18379
-0.000378213
-1.18379
-0.000380701
-1.18308
-0.000392206
-1.1839
-0.000443351
-1.18197
-0.000528463
-1.18446
-0.000715152
-1.18447
-0.000922874
-1.18534
-0.00118435
-1.18536
-0.00141453
-1.18631
-0.00169962
-1.18632
-0.00193055
-1.18732
-0.0022229
-1.18415
-0.0024479
-1.18859
-0.00282224
-1.18421
-0.00318698
-1.19054
-0.00381139
-1.1906
-0.00440506
-1.19308
-0.00526664
-1.1932
-0.00597253
-1.19587
-0.00692607
-1.19599
-0.00757814
-1.19862
-0.00849404
-1.19868
-0.00897983
-1.2012
-0.00984164
-1.19515
-0.0102256
-1.20406
-0.0112396
-1.1783
-0.0117782
-1.2084
-0.0132424
-1.17486
-0.0141722
-1.21485
-0.0162401
-1.18928
-0.0176066
-1.22314
-0.0202021
-1.21424
-0.0218457
-1.23238
-0.0247548
-1.23094
-0.026473
-1.24203
-0.0295631
-1.23691
-0.0312922
-1.2522
-0.0346348
-1.17113
-0.0365579
-1.2654
-0.0404951
-1.20859
-0.0435465
-1.28355
-0.0498994
-1.28498
-0.0576603
-1.3143
-0.071813
-1.3206
-0.091701
-1.37363
-0.121825
-1.38863
-0.161013
-1.4721
-0.210286
-1.49578
-0.265668
-1.59558
-0.322986
-1.62068
-0.376584
-1.70373
-0.419757
-1.71932
-0.449954
-1.75801
-0.462475
-1.75632
-0.461156
-1.71617
-0.44436
-1.70491
-0.420497
-1.64501
-0.388473
-1.63143
-0.357193
-1.57222
-0.323857
-1.5601
-0.29557
-0.266801
-0.267882
-0.253744
-0.246029
-0.22429
-0.225231
-0.215112
-0.209553
-0.193811
-0.194695
-0.187416
-0.184106
-0.173205
-0.174078
-0.169052
-0.167561
-0.160456
-0.16134
-0.158044
-0.15794
-0.153609
-0.154509
-0.152432
-0.153236
-0.150765
-0.151672
-0.150414
-0.151829
-0.150739
-0.151777
-0.152055
-0.153128
-0.15362
-0.15465
-0.156709
-0.157766
-0.160495
-0.161513
-0.166105
-0.167144
-0.172798
-0.173801
-0.181434
-0.182451
-0.191212
-0.192195
-0.202673
-0.203665
-0.214923
-0.215883
-0.228224
-0.229188
-0.241671
-0.242606
-0.255408
-0.256343
-0.268647
-0.269554
-0.281563
-0.282467
-0.293573
-0.294451
-0.304951
-0.305824
-0.315332
-0.316181
-0.325061
-0.325904
-0.333917
-0.334736
-0.342253
-0.343064
-0.349913
-0.350701
-0.357217
-0.357997
-0.364038
-0.364795
-0.370657
-0.371403
-0.376987
-0.377712
-0.383291
-0.384003
-0.389527
-0.390216
-0.395968
-0.396642
-0.402598
-0.403249
-0.409656
-0.41029
-0.417142
-0.417751
-0.425261
-0.425851
-0.434022
-0.434585
-0.443622
-0.444164
-0.454116
-0.454628
-0.465748
-0.466238
-0.478673
-0.479133
-0.493225
-0.49366
-0.50967
-0.510073
-0.5284
-0.528778
-0.549723
-0.550069
-0.573969
-0.57429
-0.601313
-0.601601
-0.631848
-0.632112
-0.665433
-0.665663
-0.701743
-0.70195
-0.740212
-0.740385
-0.780089
-0.780241
-0.820463
-0.82058
-0.860332
-0.860429
-0.898707
-0.898768
-0.93466
-0.934704
-0.967464
-0.967471
-0.996559
-0.996551
-1.02169
-1.02164
-1.04276
-1.04271
-1.05999
-1.05989
-1.07365
-1.07354
-1.08423
-1.08408
-1.09216
-1.092
-1.09801
-1.09781
-1.10215
-1.10195
-1.1051
-1.10485
-1.10706
-1.10682
-1.10844
-1.10814
-1.10928
-1.10901
-1.10991
-1.10957
-1.11024
-1.10993
-1.11054
-1.11016
-1.11064
-1.11029
-1.1108
-1.11036
-1.11083
-1.1104
-1.11087
-1.1104
-1.11086
-1.11037
-1.11081
-1.11032
-1.11079
-1.11027
-1.11069
-1.11019
-1.11066
-1.11012
-1.11054
-1.11002
-1.11051
-1.10994
-1.11038
-1.10984
-1.11034
-1.10975
-1.11022
-1.10965
-1.11018
-1.10957
-1.11007
-1.10949
-1.11003
-1.10942
-1.10995
-1.10935
-1.10992
-1.1093
-1.10985
-1.10926
-1.10983
-1.10922
-1.10979
-1.10918
-1.10978
-1.10916
-1.10976
-1.10913
-1.10975
-1.10911
-1.10974
-1.1091
-1.10974
-1.10908
-1.10973
-1.10907
-1.10973
-1.10905
-1.10972
-1.10903
-1.10971
-1.10901
-1.10967
-1.10898
-1.10965
-1.10894
-1.10957
-1.10889
-1.10953
-1.10881
-1.10939
-1.1087
-1.10927
-1.10855
-1.10905
-1.10835
-1.10881
-1.10808
-1.10844
-1.10773
-1.10801
-1.10726
-1.10741
-1.10667
-1.1067
-1.10592
-1.10577
-1.105
-1.10467
-1.10386
-1.10332
-1.10249
-1.10172
-1.10086
-1.09983
-1.09895
-1.09766
-1.09674
-1.09517
-1.09423
-1.09238
-1.09141
-1.08928
-1.08829
-1.0859
-1.08486
-1.08225
-1.08119
-1.07836
-1.07725
-1.07425
-1.07312
-1.06995
-1.06878
-1.0655
-1.06431
-1.06091
-1.05968
-1.0562
-1.05494
-1.05136
-1.05007
-1.04642
-1.04511
-1.04134
-1.04
-1.03614
-1.03478
-1.03076
-1.02939
-1.02525
-1.02386
-1.01953
-1.01813
-1.01367
-1.01227
-1.00761
-1.00621
-1.00144
-1.00004
-0.995092
-0.993684
-0.9887
-0.987286
-0.982183
-0.980755
-0.975693
-0.974254
-0.96913
-0.967675
-0.96266
-0.961193
-0.956157
-0.954675
-0.949789
-0.948295
-0.943397
-0.94189
-0.937158
-0.935642
-0.930879
-0.929356
-0.924752
-0.923225
-0.918555
-0.917026
-0.912506
-0.910978
-0.906356
-0.904823
-0.900352
-0.898816
-0.894218
-0.892674
-0.888237
-0.886687
-0.882098
-0.880539
-0.876124
-0.874557
-0.869964
-0.868387
-0.863981
-0.862396
-0.857779
-0.856185
-0.851762
-0.85016
-0.845484
-0.843873
-0.8394
-0.837779
-0.833009
-0.831379
-0.826819
-0.82518
-0.820276
-0.818627
-0.813952
-0.812291
-0.807231
-0.805558
-0.800756
-0.799068
-0.793839
-0.792136
-0.787206
-0.785483
-0.780089
-0.778348
-0.773296
-0.771532
-0.765979
-0.764193
-0.759031
-0.757217
-0.751517
-0.749677
-0.74443
-0.742557
-0.736732
-0.734831
-0.729528
-0.727589
-0.72167
-0.719702
-0.714387
-0.712378
-0.706407
-0.704369
-0.699089
-0.697006
-0.691027
-0.688916
-0.683719
-0.68156
-0.675609
-0.673423
-0.668341
-0.666105
-0.660197
-0.657935
-0.652976
-0.650662
-0.644787
-0.642449
-0.637604
-0.635209
-0.629344
-0.62693
-0.622178
-0.619704
-0.613828
-0.611338
-0.606679
-0.604125
-0.598245
-0.595681
-0.591147
-0.588515
-0.582678
-0.580042
-0.575707
-0.572998
-0.567285
-0.564581
-0.560548
-0.557764
-0.552275
-0.549504
-0.54588
-0.543022
-0.537848
-0.535008
-0.531884
-0.528946
-0.524156
-0.521244
-0.51868
-0.515653
-0.511279
-0.508285
-0.506307
-0.503177
-0.499223
-0.496136
-0.494743
-0.491491
-0.487934
-0.484738
-0.48391
-0.480515
-0.477318
-0.473997
-0.473705
-0.470141
-0.467261
-0.463799
-0.464015
-0.460254
-0.457665
-0.454045
-0.454774
-0.45079
-0.448512
-0.444721
-0.446031
-0.441792
-0.439927
-0.435951
-0.43801
-0.433472
-0.405313
-0.428055
-0.403622
-0.426129
-0.398855
-0.421725
-0.397598
-0.420454
-0.394317
-0.417478
-0.393644
-0.416975
-0.392118
-0.415898
-0.416536
-0.411307
-0.417435
-0.412892
-0.418217
-0.413567
-0.420741
-0.416948
-0.422515
-0.418208
-0.426244
-0.423092
-0.428868
-0.424786
-0.433415
-0.431525
-0.436653
-0.433507
-0.441692
-0.44255
-0.445358
-0.444735
-0.450638
-0.45124
-0.454626
-0.454036
-0.460054
-0.460438
-0.464331
-0.463757
-0.469895
-0.470093
-0.474485
-0.473914
-0.480233
-0.480272
-0.485189
-0.484612
-0.491182
-0.491086
-0.496555
-0.495968
-0.502846
-0.502637
-0.508674
-0.508073
-0.515305
-0.515
-0.521603
-0.520985
-0.528594
-0.528206
-0.535339
-0.534703
-0.542667
-0.542206
-0.549808
-0.549151
-0.557406
-0.556879
-0.564857
-0.564174
-0.572646
-0.572057
-0.580291
-0.579578
-0.588165
-0.587515
-0.5959
-0.59515
-0.603777
-0.603068
-0.611518
-0.610728
-0.619362
-0.618594
-0.627077
-0.626243
-0.634873
-0.634048
-0.642567
-0.641686
-0.650329
-0.649446
-0.658024
-0.657094
-0.665778
-0.664839
-0.673481
-0.672501
-0.681238
-0.680243
-0.688946
-0.687915
-0.696685
-0.695635
-0.704374
-0.70329
-0.712062
-0.710958
-0.719682
-0.718547
-0.727282
-0.726125
-0.734792
-0.733608
-0.742247
-0.74104
-0.749618
-0.748387
-0.756915
-0.755663
-0.764118
-0.762845
-0.771236
-0.769944
-0.778254
-0.776944
-0.78519
-0.783865
-0.792036
-0.790696
-0.798785
-0.797431
-0.805444
-0.804078
-0.812016
-0.810639
-0.818503
-0.817117
-0.824908
-0.823512
-0.831238
-0.829834
-0.837519
-0.836107
-0.843729
-0.842309
-0.849907
-0.848479
-0.856031
-0.854595
-0.862138
-0.860694
-0.868229
-0.866777
-0.874303
-0.872843
-0.880371
-0.878903
-0.88644
-0.884964
-0.892507
-0.891025
-0.89858
-0.897091
-0.904657
-0.903164
-0.910746
-0.909249
-0.91685
-0.915353
-0.922995
-0.921496
-0.929174
-0.92767
-0.93541
-0.9339
-0.941711
-0.940192
-0.948063
-0.946534
-0.954481
-0.952939
-0.960971
-0.959416
-0.967487
-0.965918
-0.97402
-0.972438
-0.980562
-0.978967
-0.987061
-0.985455
-0.993484
-0.99187
-0.999813
-0.998192
-1.00602
-1.0044
-1.01206
-1.01044
-1.01793
-1.0163
-1.02365
-1.02201
-1.02919
-1.02754
-1.03456
-1.0329
-1.03979
-1.03811
-1.0449
-1.04319
-1.04987
-1.04814
-1.05473
-1.05297
-1.05948
-1.05769
-1.0641
-1.06228
-1.06857
-1.06672
-1.07291
-1.07103
-1.07704
-1.07513
-1.08097
-1.07902
-1.08465
-1.08267
-1.08807
-1.08606
-1.09119
-1.08915
-1.09402
-1.09195
-1.09654
-1.09443
-1.09874
-1.09661
-1.10065
-1.09849
-1.10228
-1.1001
-1.10365
-1.10144
-1.10479
-1.10255
-1.10571
-1.10346
-1.10646
-1.10419
-1.10705
-1.10477
-1.10751
-1.10522
-1.10787
-1.10557
-1.10814
-1.10583
-1.10835
-1.10603
-1.10849
-1.10618
-1.1086
-1.10628
-1.10868
-1.10636
-1.10873
-1.10641
-1.10877
-1.10644
-1.1088
-1.10646
-1.10883
-1.10647
-1.10884
-1.10648
-1.10886
-1.10648
-1.10887
-1.10649
-1.10889
-1.10649
-1.10891
-1.1065
-1.10893
-1.10651
-1.10895
-1.10652
-1.10898
-1.10654
-1.10901
-1.10657
-1.10905
-1.10661
-1.10909
-1.10665
-1.10915
-1.10671
-1.10921
-1.10676
-1.10929
-1.10683
-1.10936
-1.1069
-1.10945
-1.10698
-1.10954
-1.10706
-1.10964
-1.10715
-1.10973
-1.10722
-1.10983
-1.10731
-1.10991
-1.10738
-1.10999
-1.10745
-1.11006
-1.10749
-1.11012
-1.10754
-1.11016
-1.10756
-1.1102
-1.10759
-1.11019
-1.10756
-1.11017
-1.10751
-1.11008
-1.10741
-1.10996
-1.10727
-1.10973
-1.10701
-1.10938
-1.10664
-1.10881
-1.10605
-1.10795
-1.10518
-1.10662
-1.10382
-1.10466
-1.10184
-1.10174
-1.09889
-1.09763
-1.09476
-1.09179
-1.0889
-1.08388
-1.08097
-1.07335
-1.0704
-1.05967
-1.0567
-1.04243
-1.03944
-1.02144
-1.01841
-0.996463
-0.993414
-0.967159
-0.964083
-0.934487
-0.931383
-0.898548
-0.895417
-0.860314
-0.857154
-0.820445
-0.817257
-0.780224
-0.777007
-0.740355
-0.73711
-0.701681
-0.698406
-0.665435
-0.662131
-0.632074
-0.628739
-0.601342
-0.597978
-0.573981
-0.570586
-0.549924
-0.5465
-0.528659
-0.525204
-0.509942
-0.506459
-0.49344
-0.489926
-0.478986
-0.475444
-0.466086
-0.462515
-0.45447
-0.450874
-0.443946
-0.440321
-0.434434
-0.430786
-0.425711
-0.422035
-0.417535
-0.413839
-0.410149
-0.406427
-0.403105
-0.399365
-0.396457
-0.392694
-0.390012
-0.386232
-0.383829
-0.380027
-0.377503
-0.373688
-0.371217
-0.367379
-0.364654
-0.360804
-0.357778
-0.353906
-0.350528
-0.346645
-0.342917
-0.339011
-0.33452
-0.330607
-0.325728
-0.32179
-0.316083
-0.312138
-0.305638
-0.301667
-0.294195
-0.290219
-0.282326
-0.278323
-0.269376
-0.265371
-0.256129
-0.252094
-0.242399
-0.238366
-0.229009
-0.224943
-0.215776
-0.211715
-0.203438
-0.199343
-0.192101
-0.188017
-0.182311
-0.17819
-0.17367
-0.169565
-0.167023
-0.162879
-0.161346
-0.157226
-0.157567
-0.153404
-0.154472
-0.15034
-0.152946
-0.148767
-0.151624
-0.147484
-0.151653
-0.147159
-0.151453
-0.147508
-0.153049
-0.149177
-0.154296
-0.150359
-0.157769
-0.154772
-0.161111
-0.15719
-0.167413
-0.165867
-0.173917
-0.170009
-0.183917
-0.184236
-0.19457
-0.190653
-0.209456
-0.211223
-0.224937
-0.220962
-0.245836
-1.52505
-0.267542
-1.53386
-0.29547
-1.58426
-0.323713
-1.5958
-0.35667
-1.65539
-0.388
-1.66883
-0.420555
-1.72969
-0.443886
-1.74089
-0.461042
-1.78118
-0.462341
-1.78289
-0.449593
-1.74433
-0.41994
-1.72868
-0.375769
-1.64498
-0.323155
-1.62027
-0.266134
-1.51997
-0.210222
-1.49628
-0.161172
-1.41243
-0.12166
-1.39745
-0.0916829
-1.34416
-0.0716781
-1.33791
-0.057577
-1.30838
-0.0497993
-1.30695
-0.0432905
-1.2142
-0.0403001
-1.28841
-0.036381
-1.20262
-0.0345093
-1.27545
-0.0311058
-1.25663
-0.0293518
-1.26514
-0.026311
-1.25558
-0.0245782
-1.25557
-0.0216564
-1.23681
-0.0200112
-1.24632
-0.0174271
-1.21457
-0.0160709
-1.23808
-0.0139677
-1.1959
-0.0130602
-1.23157
-0.0115855
-1.20264
-0.0110685
-1.22726
-0.0100273
-1.21757
-0.00966701
-1.22438
-0.00879084
-1.22187
-0.00830874
-1.22181
-0.00738709
-1.21919
-0.00675132
-1.21908
-0.00580534
-1.21643
-0.00509206
-1.2163
-0.00421516
-1.21382
-0.00362752
-1.21377
-0.00300227
-1.20764
-0.00262994
-1.21181
-0.00226275
-1.2074
-0.00203734
-1.21055
-0.0017427
-1.20955
-0.00151683
-1.20954
-0.00123531
-1.20859
-0.00100274
-1.20857
-0.000737679
-1.20769
-0.000533294
-1.20768
-0.000347593
-1.20519
-0.000259842
-1.20712
-0.000208541
-1.20627
-0.000196865
-1.207
-0.000194443
-1.207
-0.000194434
-1.207
-0.000195408
-1.207
-0.000195442
-1.207
-0.000196259
-1.207
-0.000196404
-1.207
-0.000197205
-1.207
-0.000197824
-1.207
-0.000200376
-1.207
-0.000208915
-1.20699
-0.000206561
-1.20699
-0.000169267
-1.20696
-0.392117
-0.415899
-0.393641
-0.416975
-0.394313
-0.41748
-0.397593
-0.420455
-0.398849
-0.421729
-0.403618
-0.426131
-0.405307
-0.42806
-0.437954
-0.433473
-0.439869
-0.435952
-0.445974
-0.441795
-0.448456
-0.444727
-0.454718
-0.450796
-0.457609
-0.454054
-0.463959
-0.460263
-0.467205
-0.463809
-0.473647
-0.470149
-0.477259
-0.474006
-0.483851
-0.480524
-0.487873
-0.484748
-0.494684
-0.491504
-0.499162
-0.496148
-0.506246
-0.50319
-0.511217
-0.508298
-0.518615
-0.515664
-0.524092
-0.521256
-0.531823
-0.528962
-0.537782
-0.535021
-0.545818
-0.543039
-0.552211
-0.54952
-0.560481
-0.557778
-0.567223
-0.5646
-0.575644
-0.573018
-0.582618
-0.580066
-0.591083
-0.588535
-0.598186
-0.595707
-0.606613
-0.604144
-0.613762
-0.611359
-0.622114
-0.619727
-0.629277
-0.626951
-0.637541
-0.635236
-0.644722
-0.642473
-0.652913
-0.650688
-0.660132
-0.657962
-0.668278
-0.666134
-0.675542
-0.673449
-0.683656
-0.681591
-0.69096
-0.688943
-0.699022
-0.697035
-0.706339
-0.704397
-0.71432
-0.712409
-0.7216
-0.719731
-0.729464
-0.727625
-0.736665
-0.734865
-0.744358
-0.742586
-0.75145
-0.749712
-0.758962
-0.75725
-0.765914
-0.764231
-0.773226
-0.771566
-0.780019
-0.778383
-0.787132
-0.785515
-0.793777
-0.792179
-0.800687
-0.799104
-0.807166
-0.805599
-0.813884
-0.81233
-0.820211
-0.818668
-0.826747
-0.825216
-0.832934
-0.831412
-0.839333
-0.837821
-0.845416
-0.843912
-0.851698
-0.850204
-0.857707
-0.856221
-0.863906
-0.86243
-0.869894
-0.868426
-0.876049
-0.874591
-0.882024
-0.880574
-0.888164
-0.886724
-0.89415
-0.892716
-0.900286
-0.898861
-0.906293
-0.904871
-0.912441
-0.911024
-0.918486
-0.917068
-0.924684
-0.923268
-0.930806
-0.929395
-0.937085
-0.935681
-0.943331
-0.941936
-0.949715
-0.948333
-0.95608
-0.95471
-0.962593
-0.961239
-0.96906
-0.967719
-0.975612
-0.974287
-0.982111
-0.980797
-0.988625
-0.987326
-0.995015
-0.993722
-1.00136
-1.00008
-1.00754
-1.00626
-1.01361
-1.01233
-1.01945
-1.01817
-1.02518
-1.02391
-1.03069
-1.02943
-1.03606
-1.03482
-1.04126
-1.04004
-1.04635
-1.04516
-1.05129
-1.05012
-1.05613
-1.05499
-1.06084
-1.05973
-1.06543
-1.06436
-1.06987
-1.06882
-1.07418
-1.07317
-1.07828
-1.0773
-1.08217
-1.08123
-1.08582
-1.08491
-1.0892
-1.08834
-1.0923
-1.09145
-1.09509
-1.09429
-1.09758
-1.0968
-1.09975
-1.09901
-1.10164
-1.10091
-1.10323
-1.10255
-1.10459
-1.10391
-1.10569
-1.10505
-1.10662
-1.10598
-1.10732
-1.10672
-1.10792
-1.10731
-1.10835
-1.10778
-1.10873
-1.10814
-1.10896
-1.10841
-1.10919
-1.10861
-1.1093
-1.10876
-1.10945
-1.10886
-1.10949
-1.10894
-1.10957
-1.109
-1.10959
-1.10904
-1.10963
-1.10907
-1.10963
-1.10909
-1.10965
-1.10911
-1.10965
-1.10912
-1.10966
-1.10914
-1.10966
-1.10915
-1.10967
-1.10917
-1.10967
-1.10919
-1.1097
-1.10921
-1.10971
-1.10924
-1.10975
-1.10927
-1.10977
-1.10931
-1.10983
-1.10936
-1.10986
-1.10941
-1.10995
-1.10948
-1.10999
-1.10955
-1.11009
-1.10963
-1.11013
-1.10971
-1.11026
-1.1098
-1.1103
-1.1099
-1.11043
-1.10999
-1.11046
-1.11009
-1.11058
-1.11017
-1.11061
-1.11025
-1.11071
-1.11032
-1.11073
-1.11039
-1.11078
-1.11043
-1.11079
-1.11046
-1.11075
-1.11045
-1.11071
-1.11043
-1.11056
-1.11035
-1.11046
-1.11022
-1.11012
-1.10999
-1.10983
-1.10964
-1.10917
-1.10907
-1.10835
-1.10821
-1.10694
-1.10688
-1.10501
-1.10493
-1.10202
-1.102
-1.09792
-1.09789
-1.09203
-1.09205
-1.08413
-1.08415
-1.07354
-1.0736
-1.05986
-1.05993
-1.04257
-1.04269
-1.02157
-1.0217
-0.996551
-0.996721
-0.967239
-0.96742
-0.934522
-0.934745
-0.898571
-0.898809
-0.860294
-0.860572
-0.82041
-0.820706
-0.780148
-0.780482
-0.740261
-0.740616
-0.701548
-0.701939
-0.665281
-0.665695
-0.631882
-0.632332
-0.601127
-0.601601
-0.57373
-0.574239
-0.549649
-0.550183
-0.528348
-0.528917
-0.509607
-0.510201
-0.49307
-0.493698
-0.478592
-0.479244
-0.465659
-0.466343
-0.454021
-0.454728
-0.443465
-0.444203
-0.433932
-0.434691
-0.425179
-0.425967
-0.416985
-0.417792
-0.409572
-0.410405
-0.402511
-0.403361
-0.395838
-0.396713
-0.389378
-0.390268
-0.383171
-0.384084
-0.376833
-0.377759
-0.370523
-0.371472
-0.363949
-0.364909
-0.35705
-0.358033
-0.34979
-0.350782
-0.342156
-0.343172
-0.333751
-0.334775
-0.324934
-0.325982
-0.315283
-0.316337
-0.304811
-0.305892
-0.293364
-0.294448
-0.281467
-0.282579
-0.268515
-0.269629
-0.255238
-0.256382
-0.241509
-0.242652
-0.228087
-0.229261
-0.214859
-0.216028
-0.202486
-0.20369
-0.19116
-0.192352
-0.181333
-0.182562
-0.172708
-0.173921
-0.166023
-0.167275
-0.160369
-0.161597
-0.156547
-0.157818
-0.153482
-0.154722
-0.15191
-0.153196
-0.150626
-0.151873
-0.150302
-0.151902
-0.15065
-0.151711
-0.152319
-0.153298
-0.153501
-0.154553
-0.157914
-0.158017
-0.160332
-0.161368
-0.169009
-0.16766
-0.173151
-0.174174
-0.187377
-0.184164
-0.193795
-0.194826
-0.214951
-0.209702
-0.224105
-0.225193
-0.253459
-0.246081
-0.266555
-0.26778
-1.59205
-0.295717
-1.60419
-0.323952
-1.6632
-0.356916
-1.67664
-0.388238
-1.7375
-0.4208
-1.74869
-0.444124
-1.78899
-0.461286
-1.7907
-0.46258
-1.75214
-0.449836
-1.73649
-0.420179
-1.65279
-0.376011
-1.62807
-0.323393
-1.52778
-0.266375
-1.50408
-0.21046
-1.42024
-0.161413
-1.40526
-0.121897
-1.35197
-0.0919223
-1.34571
-0.0719156
-1.31618
-0.0578158
-1.31475
-0.0500365
-1.22201
-0.0435286
-1.29622
-0.0405371
-1.21042
-0.0366186
-1.28326
-0.0347459
-1.26443
-0.0313429
-1.27294
-0.029588
-1.26338
-0.0265475
-1.26337
-0.024814
-1.24461
-0.0218925
-1.25412
-0.0202466
-1.22237
-0.0176626
-1.24587
-0.016306
-1.2037
-0.0142029
-1.23936
-0.0132949
-1.21044
-0.0118202
-1.23506
-0.0113028
-1.22537
-0.0102616
-1.23218
-0.00990102
-1.22966
-0.00902479
-1.2296
-0.00854242
-1.22699
-0.00762069
-1.22687
-0.00698469
-1.22422
-0.00603861
-1.22409
-0.00532514
-1.22162
-0.00444814
-1.22156
-0.00386033
-1.21544
-0.00323499
-1.21961
-0.00286252
-1.21519
-0.00249524
-1.21834
-0.0022697
-1.21734
-0.00197499
-1.21733
-0.001749
-1.21638
-0.00146742
-1.21636
-0.00123474
-1.21548
-0.000969624
-1.21547
-0.000765139
-1.21299
-0.000579388
-1.21491
-0.000491539
-1.21406
-0.000440231
-1.21479
-0.000428539
-1.21479
-0.000426072
-1.21479
-0.000426017
-1.21479
-0.000426951
-1.21479
-0.000426961
-1.21479
-0.000427741
-1.21479
-0.000427876
-1.21479
-0.000428678
-1.21479
-0.000429293
-1.21479
-0.000431862
-1.21478
-0.000440431
-1.21478
-0.000438063
-1.21475
-0.000400712
)
;

boundaryField
{
    walls
    {
        type            zeroGradient;
    }
    inlet
    {
        type            cyclic;
    }
    outlet
    {
        type            cyclic;
    }
    sides
    {
        type            empty;
    }
}


// ************************************************************************* //
