/*--------------------------------*- C++ -*----------------------------------*\
| =========                 |                                                 |
| \\      /  F ield         | OpenFOAM: The Open Source CFD Toolbox           |
|  \\    /   O peration     | Version:  2106                                  |
|   \\  /    A nd           | Website:  www.openfoam.com                      |
|    \\/     M anipulation  |                                                 |
\*---------------------------------------------------------------------------*/
FoamFile
{
    version     2.0;
    format      ascii;
    arch        "LSB;label=32;scalar=64";
    class       volSymmTensorField;
    location    "5000";
    object      turbulenceProperties:R;
}
// * * * * * * * * * * * * * * * * * * * * * * * * * * * * * * * * * * * * * //

dimensions      [0 2 -2 0 0 0 0];

internalField   nonuniform List<symmTensor> 
2560
(
(9.89671e-08 -2.87521e-12 -4.16202e-15 9.89671e-08 3.05588e-26 9.89671e-08)
(9.89671e-08 -2.87521e-12 -4.16202e-15 9.89671e-08 1.73063e-26 9.89671e-08)
(1.61902e-08 -2.7035e-12 -1.17973e-14 1.61902e-08 6.25692e-27 1.61902e-08)
(1.61902e-08 -2.7035e-12 -1.17973e-14 1.61902e-08 1.41683e-26 1.61902e-08)
(1.63189e-08 -8.03895e-12 -4.82585e-14 1.63189e-08 1.55611e-26 1.63189e-08)
(1.63189e-08 -8.03895e-12 -4.82585e-14 1.63189e-08 2.6218e-27 1.63189e-08)
(4.60286e-08 -4.80868e-11 -2.92871e-13 4.60286e-08 5.20955e-26 4.60286e-08)
(4.60286e-08 -4.80868e-11 -2.92871e-13 4.60286e-08 1.59561e-26 4.60286e-08)
(1.16664e-07 -2.15056e-10 -1.32885e-12 1.16664e-07 2.52118e-25 1.16664e-07)
(1.16664e-07 -2.15056e-10 -1.32885e-12 1.16664e-07 7.26066e-26 1.16664e-07)
(2.48204e-07 -7.20505e-10 -4.51688e-12 2.48204e-07 8.27493e-25 2.48204e-07)
(2.48204e-07 -7.20505e-10 -4.51688e-12 2.48204e-07 2.47495e-25 2.48204e-07)
(4.64927e-07 -1.96939e-09 -1.25259e-11 4.64927e-07 2.29264e-24 4.64927e-07)
(4.64927e-07 -1.96939e-09 -1.25259e-11 4.64927e-07 6.88193e-25 4.64927e-07)
(7.9484e-07 -4.65362e-09 -3.00292e-11 7.9484e-07 5.51818e-24 7.9484e-07)
(7.9484e-07 -4.65362e-09 -3.00292e-11 7.9484e-07 1.65419e-24 7.9484e-07)
(1.26966e-06 -9.86773e-09 -6.46017e-11 1.26966e-06 1.19189e-23 1.26966e-06)
(1.26966e-06 -9.86773e-09 -6.46017e-11 1.26966e-06 3.5681e-24 1.26966e-06)
(1.92492e-06 -1.92494e-08 -1.27855e-10 1.92492e-06 2.36574e-23 1.92492e-06)
(1.92492e-06 -1.92494e-08 -1.27855e-10 1.92492e-06 7.08042e-24 1.92492e-06)
(2.80022e-06 -3.51484e-08 -2.36855e-10 2.80022e-06 4.39595e-23 2.80022e-06)
(2.80022e-06 -3.51484e-08 -2.36855e-10 2.80022e-06 1.31509e-23 2.80022e-06)
(3.93933e-06 -6.08273e-08 -4.15861e-10 3.93933e-06 7.74164e-23 3.93933e-06)
(3.93933e-06 -6.08273e-08 -4.15861e-10 3.93933e-06 2.31504e-23 3.93933e-06)
(5.39054e-06 -1.00698e-07 -6.98461e-10 5.39054e-06 1.30406e-22 5.39054e-06)
(5.39054e-06 -1.00698e-07 -6.98461e-10 5.39054e-06 3.89837e-23 5.39054e-06)
(7.20684e-06 -1.60596e-07 -1.13013e-09 7.20684e-06 2.11584e-22 7.20684e-06)
(7.20684e-06 -1.60596e-07 -1.13013e-09 7.20684e-06 6.32399e-23 7.20684e-06)
(9.4462e-06 -2.48102e-07 -1.77132e-09 9.4462e-06 3.32493e-22 9.4462e-06)
(9.4462e-06 -2.48102e-07 -1.77132e-09 9.4462e-06 9.93443e-23 9.4462e-06)
(1.21718e-05 -3.72908e-07 -2.7011e-09 1.21718e-05 5.08218e-22 1.21718e-05)
(1.21718e-05 -3.72908e-07 -2.7011e-09 1.21718e-05 1.51768e-22 1.21718e-05)
(1.54525e-05 -5.47235e-07 -4.02144e-09 1.54525e-05 7.58216e-22 1.54525e-05)
(1.54525e-05 -5.47235e-07 -4.02144e-09 1.54525e-05 2.26339e-22 1.54525e-05)
(1.93629e-05 -7.863e-07 -5.86226e-09 1.93629e-05 1.10734e-21 1.93629e-05)
(1.93629e-05 -7.863e-07 -5.86226e-09 1.93629e-05 3.30591e-22 1.93629e-05)
(2.39834e-05 -1.10885e-06 -8.38718e-09 2.39834e-05 1.58679e-21 2.39834e-05)
(2.39834e-05 -1.10885e-06 -8.38718e-09 2.39834e-05 4.73811e-22 2.39834e-05)
(2.94012e-05 -1.53774e-06 -1.18002e-08 2.94012e-05 2.23544e-21 2.94012e-05)
(2.94012e-05 -1.53774e-06 -1.18002e-08 2.94012e-05 6.67563e-22 2.94012e-05)
(3.57097e-05 -2.10057e-06 -1.63533e-08 3.57097e-05 3.10087e-21 3.57097e-05)
(3.57097e-05 -2.10057e-06 -1.63533e-08 3.57097e-05 9.26006e-22 3.57097e-05)
(4.30091e-05 -2.83035e-06 -2.23547e-08 4.30091e-05 4.24072e-21 4.30091e-05)
(4.30091e-05 -2.83035e-06 -2.23547e-08 4.30091e-05 1.26618e-21 4.30091e-05)
(5.14067e-05 -3.76628e-06 -3.01785e-08 5.14067e-05 5.72442e-21 5.14067e-05)
(5.14067e-05 -3.76628e-06 -3.01785e-08 5.14067e-05 1.70941e-21 5.14067e-05)
(6.10165e-05 -4.95444e-06 -4.02746e-08 6.10165e-05 7.63546e-21 6.10165e-05)
(6.10165e-05 -4.95444e-06 -4.02746e-08 6.10165e-05 2.28121e-21 6.10165e-05)
(7.19596e-05 -6.44859e-06 -5.31801e-08 7.19596e-05 1.00711e-20 7.19596e-05)
(7.19596e-05 -6.44859e-06 -5.31801e-08 7.19596e-05 3.00971e-21 7.19596e-05)
(8.43641e-05 -8.3109e-06 -6.95304e-08 8.43641e-05 1.31416e-20 8.43641e-05)
(8.43641e-05 -8.3109e-06 -6.95304e-08 8.43641e-05 3.92876e-21 8.43641e-05)
(9.83645e-05 -1.06127e-05 -9.00717e-08 9.83645e-05 1.69776e-20 9.83645e-05)
(9.83645e-05 -1.06127e-05 -9.00717e-08 9.83645e-05 5.07664e-21 9.83645e-05)
(0.000114102 -1.34349e-05 -1.15672e-07 0.000114102 2.17249e-20 0.000114102)
(0.000114102 -1.34349e-05 -1.15672e-07 0.000114102 6.49252e-21 0.000114102)
(0.000131722 -1.6869e-05 -1.47335e-07 0.000131722 2.75414e-20 0.000131722)
(0.000131722 -1.6869e-05 -1.47335e-07 0.000131722 8.22592e-21 0.000131722)
(0.000151378 -2.10164e-05 -1.86205e-07 0.000151378 3.46041e-20 0.000151378)
(0.000151378 -2.10164e-05 -1.86205e-07 0.000151378 1.03289e-20 0.000151378)
(0.000173225 -2.59897e-05 -2.33581e-07 0.000173225 4.31003e-20 0.000173225)
(0.000173225 -2.59897e-05 -2.33581e-07 0.000173225 1.28769e-20 0.000173225)
(0.000197421 -3.19113e-05 -2.90922e-07 0.000197421 5.32219e-20 0.000197421)
(0.000197421 -3.19113e-05 -2.90922e-07 0.000197421 1.59085e-20 0.000197421)
(0.000224125 -3.89132e-05 -3.59844e-07 0.000224125 6.51608e-20 0.000224125)
(0.000224125 -3.89132e-05 -3.59844e-07 0.000224125 1.94745e-20 0.000224125)
(0.000253498 -4.71362e-05 -4.42126e-07 0.000253498 7.91121e-20 0.000253498)
(0.000253498 -4.71362e-05 -4.42126e-07 0.000253498 2.36382e-20 0.000253498)
(0.000285694 -5.67275e-05 -5.39693e-07 0.000285694 9.52424e-20 0.000285694)
(0.000285694 -5.67275e-05 -5.39693e-07 0.000285694 2.8414e-20 0.000285694)
(0.000320866 -6.78393e-05 -6.54611e-07 0.000320866 1.13675e-19 0.000320866)
(0.000320866 -6.78393e-05 -6.54611e-07 0.000320866 3.38917e-20 0.000320866)
(0.000359156 -8.06254e-05 -7.89059e-07 0.000359156 1.34535e-19 0.000359156)
(0.000359156 -8.06254e-05 -7.89059e-07 0.000359156 4.01219e-20 0.000359156)
(0.000400698 -9.52384e-05 -9.45306e-07 0.000400698 1.57867e-19 0.000400698)
(0.000400698 -9.52384e-05 -9.45306e-07 0.000400698 4.70752e-20 0.000400698)
(0.00044561 -0.000111826 -1.12567e-06 0.00044561 1.83618e-19 0.00044561)
(0.00044561 -0.000111826 -1.12567e-06 0.00044561 5.47054e-20 0.00044561)
(0.000493994 -0.000130525 -1.33248e-06 0.000493994 2.11707e-19 0.000493994)
(0.000493994 -0.000130525 -1.33248e-06 0.000493994 6.30268e-20 0.000493994)
(0.00054593 -0.000151461 -1.56802e-06 0.00054593 2.41913e-19 0.00054593)
(0.00054593 -0.000151461 -1.56802e-06 0.00054593 7.19591e-20 0.00054593)
(0.000601478 -0.00017474 -1.83449e-06 0.000601478 2.01223e-19 0.000601478)
(0.000601478 -0.00017474 -1.83449e-06 0.000601478 8.1394e-20 0.000601478)
(0.000660667 -0.000200445 -2.13394e-06 0.000660667 1.3792e-19 0.000660667)
(0.000660667 -0.000200445 -2.13394e-06 0.000660667 9.12297e-20 0.000660667)
(0.000723503 -0.000228633 -2.46819e-06 0.000723503 1.45176e-19 0.000723503)
(0.000723503 -0.000228633 -2.46819e-06 0.000723503 1.01422e-19 0.000723503)
(0.000789955 -0.000259332 -2.83885e-06 0.000789955 1.512e-19 0.000789955)
(0.000789955 -0.000259332 -2.83885e-06 0.000789955 1.11842e-19 0.000789955)
(0.000859965 -0.000292538 -3.24719e-06 0.000859965 1.54638e-19 0.000859965)
(0.000859965 -0.000292538 -3.24719e-06 0.000859965 1.2227e-19 0.000859965)
(0.000933439 -0.000328211 -3.69416e-06 0.000933439 1.5521e-19 0.000933439)
(0.000933439 -0.000328211 -3.69416e-06 0.000933439 1.32418e-19 0.000933439)
(0.00101025 -0.000366281 -4.18034e-06 0.00101025 1.52139e-19 0.00101025)
(0.00101025 -0.000366281 -4.18034e-06 0.00101025 1.42079e-19 0.00101025)
(0.00109025 -0.000406642 -4.70591e-06 0.00109025 1.45024e-19 0.00109025)
(0.00109025 -0.000406642 -4.70591e-06 0.00109025 1.51461e-19 0.00109025)
(0.00117323 -0.000449158 -5.27069e-06 0.00117323 1.33979e-19 0.00117323)
(0.00117323 -0.000449158 -5.27069e-06 0.00117323 1.60258e-19 0.00117323)
(0.001259 -0.000493665 -5.87412e-06 0.001259 1.19204e-19 0.001259)
(0.001259 -0.000493665 -5.87412e-06 0.001259 1.68341e-19 0.001259)
(0.00134731 -0.000539977 -6.5153e-06 0.00134731 9.96031e-20 0.00134731)
(0.00134731 -0.000539977 -6.5153e-06 0.00134731 1.75951e-19 0.00134731)
(0.00143791 -0.000587886 -7.19298e-06 0.00143791 7.58842e-20 0.00143791)
(0.00143791 -0.000587886 -7.19298e-06 0.00143791 1.8368e-19 0.00143791)
(0.00153051 -0.000637173 -7.90567e-06 0.00153051 4.86325e-20 0.00153051)
(0.00153051 -0.000637173 -7.90567e-06 0.00153051 1.90807e-19 0.00153051)
(0.00162483 -0.000687607 -8.65164e-06 0.00162483 3.71993e-21 0.00162483)
(0.00162483 -0.000687607 -8.65164e-06 0.00162483 1.95904e-19 0.00162483)
(0.00172058 -0.000738954 -9.42898e-06 0.00172058 -5.0842e-21 0.00172058)
(0.00172058 -0.000738954 -9.42898e-06 0.00172058 2.00542e-19 0.00172058)
(0.00181746 -0.000790983 -1.02357e-05 0.00181746 -5.34782e-20 0.00181746)
(0.00181746 -0.000790983 -1.02357e-05 0.00181746 2.05824e-19 0.00181746)
(0.00191517 -0.000843466 -1.10696e-05 0.00191517 -9.25485e-20 0.00191517)
(0.00191517 -0.000843466 -1.10696e-05 0.00191517 2.12143e-19 0.00191517)
(0.00201342 -0.000896184 -1.19286e-05 0.00201342 -1.33354e-19 0.00201342)
(0.00201342 -0.000896184 -1.19286e-05 0.00201342 2.18338e-19 0.00201342)
(0.00211193 -0.000948929 -1.28105e-05 0.00211193 -1.75689e-19 0.00211193)
(0.00211193 -0.000948929 -1.28105e-05 0.00211193 2.23803e-19 0.00211193)
(0.00221043 -0.00100151 -1.37134e-05 0.00221043 -2.17131e-19 0.00221043)
(0.00221043 -0.00100151 -1.37134e-05 0.00221043 2.29124e-19 0.00221043)
(0.00230865 -0.00105375 -1.4635e-05 0.00230865 -2.57398e-19 0.00230865)
(0.00230865 -0.00105375 -1.4635e-05 0.00230865 2.35905e-19 0.00230865)
(0.00240636 -0.00110548 -1.55737e-05 0.00240636 -2.9661e-19 0.00240636)
(0.00240636 -0.00110548 -1.55737e-05 0.00240636 2.45163e-19 0.00240636)
(0.00250332 -0.00115657 -1.65275e-05 0.00250332 -3.34817e-19 0.00250332)
(0.00250332 -0.00115657 -1.65275e-05 0.00250332 2.54408e-19 0.00250332)
(0.00259933 -0.00120689 -1.74947e-05 0.00259933 -3.72176e-19 0.00259933)
(0.00259933 -0.00120689 -1.74947e-05 0.00259933 2.65155e-19 0.00259933)
(0.00269421 -0.00125633 -1.84739e-05 0.00269421 -4.06864e-19 0.00269421)
(0.00269421 -0.00125633 -1.84739e-05 0.00269421 2.7839e-19 0.00269421)
(0.00278776 -0.0013048 -1.94637e-05 0.00278776 -4.35801e-19 0.00278776)
(0.00278776 -0.0013048 -1.94637e-05 0.00278776 2.93349e-19 0.00278776)
(0.00287985 -0.00135221 -2.04628e-05 0.00287985 -4.95122e-19 0.00287985)
(0.00287985 -0.00135221 -2.04628e-05 0.00287985 3.13304e-19 0.00287985)
(0.00297034 -0.00139851 -2.147e-05 0.00297034 -9.34921e-19 0.00297034)
(0.00297034 -0.00139851 -2.147e-05 0.00297034 3.33163e-19 0.00297034)
(0.0030591 -0.00144365 -2.24844e-05 0.0030591 -1.37149e-18 0.0030591)
(0.0030591 -0.00144365 -2.24844e-05 0.0030591 3.54626e-19 0.0030591)
(0.00314603 -0.00148758 -2.3505e-05 0.00314603 -1.4105e-18 0.00314603)
(0.00314603 -0.00148758 -2.3505e-05 0.00314603 3.78807e-19 0.00314603)
(0.00323105 -0.00153028 -2.45312e-05 0.00323105 -1.45157e-18 0.00323105)
(0.00323105 -0.00153028 -2.45312e-05 0.00323105 4.09661e-19 0.00323105)
(0.00331409 -0.00157172 -2.55623e-05 0.00331409 -1.48999e-18 0.00331409)
(0.00331409 -0.00157172 -2.55623e-05 0.00331409 4.45939e-19 0.00331409)
(0.00339507 -0.0016119 -2.65976e-05 0.00339507 -1.50865e-18 0.00339507)
(0.00339507 -0.0016119 -2.65976e-05 0.00339507 4.75088e-19 0.00339507)
(0.00347396 -0.00165082 -2.76367e-05 0.00347396 -1.52642e-18 0.00347396)
(0.00347396 -0.00165082 -2.76367e-05 0.00347396 5.09068e-19 0.00347396)
(0.00355071 -0.00168846 -2.86792e-05 0.00355071 -1.54436e-18 0.00355071)
(0.00355071 -0.00168846 -2.86792e-05 0.00355071 5.51853e-19 0.00355071)
(0.0036253 -0.00172484 -2.97248e-05 0.0036253 -1.55706e-18 0.0036253)
(0.0036253 -0.00172484 -2.97248e-05 0.0036253 5.96949e-19 0.0036253)
(0.00369771 -0.00175997 -3.07731e-05 0.00369771 -1.56935e-18 0.00369771)
(0.00369771 -0.00175997 -3.07731e-05 0.00369771 6.41492e-19 0.00369771)
(0.00376793 -0.00179387 -3.1824e-05 0.00376793 -1.57812e-18 0.00376793)
(0.00376793 -0.00179387 -3.1824e-05 0.00376793 6.91722e-19 0.00376793)
(0.00383595 -0.00182654 -3.28772e-05 0.00383595 -1.57319e-18 0.00383595)
(0.00383595 -0.00182654 -3.28772e-05 0.00383595 7.30203e-19 0.00383595)
(0.00390177 -0.00185801 -3.39326e-05 0.00390177 -1.56887e-18 0.00390177)
(0.00390177 -0.00185801 -3.39326e-05 0.00390177 7.77718e-19 0.00390177)
(0.00396541 -0.0018883 -3.49901e-05 0.00396541 -1.28694e-18 0.00396541)
(0.00396541 -0.0018883 -3.49901e-05 0.00396541 8.55834e-19 0.00396541)
(0.00402687 -0.00191743 -3.60496e-05 0.00402687 -5.71996e-19 0.00402687)
(0.00402687 -0.00191743 -3.60496e-05 0.00402687 9.22085e-19 0.00402687)
(0.00408617 -0.00194542 -3.7111e-05 0.00408617 -1.18844e-19 0.00408617)
(0.00408617 -0.00194542 -3.7111e-05 0.00408617 9.70071e-19 0.00408617)
(0.00414333 -0.0019723 -3.81743e-05 0.00414333 -8.14488e-20 0.00414333)
(0.00414333 -0.0019723 -3.81743e-05 0.00414333 1.02216e-18 0.00414333)
(0.00419837 -0.00199809 -3.92394e-05 0.00419837 -3.66567e-20 0.00419837)
(0.00419837 -0.00199809 -3.92394e-05 0.00419837 1.07889e-18 0.00419837)
(0.00425131 -0.00202281 -4.03062e-05 0.00425131 5.16139e-21 0.00425131)
(0.00425131 -0.00202281 -4.03062e-05 0.00425131 1.15165e-18 0.00425131)
(0.00430219 -0.00204649 -4.13749e-05 0.00430219 4.97049e-20 0.00430219)
(0.00430219 -0.00204649 -4.13749e-05 0.00430219 1.24867e-18 0.00430219)
(0.00435103 -0.00206915 -4.24453e-05 0.00435103 1.31781e-19 0.00435103)
(0.00435103 -0.00206915 -4.24453e-05 0.00435103 1.31325e-18 0.00435103)
(0.00439785 -0.00209081 -4.35174e-05 0.00439785 2.07425e-19 0.00439785)
(0.00439785 -0.00209081 -4.35174e-05 0.00439785 1.37175e-18 0.00439785)
(0.0044427 -0.0021115 -4.45912e-05 0.0044427 2.6744e-19 0.0044427)
(0.0044427 -0.0021115 -4.45912e-05 0.0044427 1.4634e-18 0.0044427)
(0.00448559 -0.00213124 -4.56668e-05 0.00448559 3.34796e-19 0.00448559)
(0.00448559 -0.00213124 -4.56668e-05 0.00448559 1.53359e-18 0.00448559)
(0.00452657 -0.00215005 -4.6744e-05 0.00452657 3.72575e-19 0.00452657)
(0.00452657 -0.00215005 -4.6744e-05 0.00452657 1.60396e-18 0.00452657)
(0.00456566 -0.00216795 -4.78228e-05 0.00456566 4.04076e-19 0.00456566)
(0.00456566 -0.00216795 -4.78228e-05 0.00456566 1.69364e-18 0.00456566)
(0.00460289 -0.00218496 -4.89033e-05 0.00460289 4.23601e-19 0.00460289)
(0.00460289 -0.00218496 -4.89033e-05 0.00460289 1.81076e-18 0.00460289)
(0.0046383 -0.0022011 -4.99853e-05 0.0046383 4.99127e-19 0.0046383)
(0.0046383 -0.0022011 -4.99853e-05 0.0046383 1.93915e-18 0.0046383)
(0.00467192 -0.00221639 -5.10689e-05 0.00467192 6.61583e-19 0.00467192)
(0.00467192 -0.00221639 -5.10689e-05 0.00467192 1.99991e-18 0.00467192)
(0.00470378 -0.00223085 -5.2154e-05 0.00470378 7.81707e-19 0.00470378)
(0.00470378 -0.00223085 -5.2154e-05 0.00470378 2.0564e-18 0.00470378)
(0.00473391 -0.0022445 -5.32405e-05 0.00473391 8.20965e-19 0.00473391)
(0.00473391 -0.0022445 -5.32405e-05 0.00473391 2.20546e-18 0.00473391)
(0.00476234 -0.00225735 -5.43283e-05 0.00476234 8.86689e-19 0.00476234)
(0.00476234 -0.00225735 -5.43283e-05 0.00476234 2.35034e-18 0.00476234)
(0.00478911 -0.00226942 -5.54174e-05 0.00478911 1.03352e-18 0.00478911)
(0.00478911 -0.00226942 -5.54174e-05 0.00478911 2.45993e-18 0.00478911)
(0.00481424 -0.00228073 -5.65078e-05 0.00481424 1.20034e-18 0.00481424)
(0.00481424 -0.00228073 -5.65078e-05 0.00481424 2.60551e-18 0.00481424)
(0.00483776 -0.00229129 -5.75992e-05 0.00483776 1.36493e-18 0.00483776)
(0.00483776 -0.00229129 -5.75992e-05 0.00483776 2.72391e-18 0.00483776)
(0.0048597 -0.00230111 -5.86916e-05 0.0048597 1.49455e-18 0.0048597)
(0.0048597 -0.00230111 -5.86916e-05 0.0048597 2.82933e-18 0.0048597)
(0.0048801 -0.00231022 -5.9785e-05 0.0048801 1.65694e-18 0.0048801)
(0.0048801 -0.00231022 -5.9785e-05 0.0048801 2.96947e-18 0.0048801)
(0.00489897 -0.00231862 -6.08791e-05 0.00489897 1.85778e-18 0.00489897)
(0.00489897 -0.00231862 -6.08791e-05 0.00489897 3.07263e-18 0.00489897)
(0.00491635 -0.00232633 -6.19739e-05 0.00491635 2.01427e-18 0.00491635)
(0.00491635 -0.00232633 -6.19739e-05 0.00491635 3.16765e-18 0.00491635)
(0.00493226 -0.00233336 -6.30692e-05 0.00493226 2.13235e-18 0.00493226)
(0.00493226 -0.00233336 -6.30692e-05 0.00493226 3.34528e-18 0.00493226)
(0.00494674 -0.00233973 -6.41648e-05 0.00494674 2.28099e-18 0.00494674)
(0.00494674 -0.00233973 -6.41648e-05 0.00494674 3.48512e-18 0.00494674)
(0.0049598 -0.00234544 -6.52608e-05 0.0049598 2.40508e-18 0.0049598)
(0.0049598 -0.00234544 -6.52608e-05 0.0049598 3.57913e-18 0.0049598)
(0.00497147 -0.00235051 -6.63568e-05 0.00497147 2.5043e-18 0.00497147)
(0.00497147 -0.00235051 -6.63568e-05 0.00497147 3.68875e-18 0.00497147)
(0.00498178 -0.00235495 -6.74527e-05 0.00498178 2.56993e-18 0.00498178)
(0.00498178 -0.00235495 -6.74527e-05 0.00498178 3.79648e-18 0.00498178)
(0.00499076 -0.00235877 -6.85483e-05 0.00499076 2.50458e-18 0.00499076)
(0.00499076 -0.00235877 -6.85483e-05 0.00499076 3.9869e-18 0.00499076)
(0.00499842 -0.00236199 -6.96435e-05 0.00499842 2.50257e-18 0.00499842)
(0.00499842 -0.00236199 -6.96435e-05 0.00499842 3.78788e-18 0.00499842)
(0.0050048 -0.0023646 -7.07381e-05 0.0050048 2.59908e-18 0.0050048)
(0.0050048 -0.0023646 -7.07381e-05 0.0050048 3.45889e-18 0.0050048)
(0.00500991 -0.00236664 -7.18319e-05 0.00500991 2.67214e-18 0.00500991)
(0.00500991 -0.00236664 -7.18319e-05 0.00500991 3.50027e-18 0.00500991)
(0.00501378 -0.00236809 -7.29247e-05 0.00501378 2.80249e-18 0.00501378)
(0.00501378 -0.00236809 -7.29247e-05 0.00501378 3.59099e-18 0.00501378)
(0.00501642 -0.00236899 -7.40163e-05 0.00501642 2.93602e-18 0.00501642)
(0.00501642 -0.00236899 -7.40163e-05 0.00501642 3.72963e-18 0.00501642)
(0.00501788 -0.00236932 -7.51064e-05 0.00501788 2.98586e-18 0.00501788)
(0.00501788 -0.00236932 -7.51064e-05 0.00501788 3.77055e-18 0.00501788)
(0.00501816 -0.00236911 -7.6195e-05 0.00501816 3.00889e-18 0.00501816)
(0.00501816 -0.00236911 -7.6195e-05 0.00501816 3.80965e-18 0.00501816)
(0.00501729 -0.00236837 -7.72817e-05 0.00501729 3.08719e-18 0.00501729)
(0.00501729 -0.00236837 -7.72817e-05 0.00501729 3.97466e-18 0.00501729)
(0.00501529 -0.0023671 -7.83664e-05 0.00501529 3.16027e-18 0.00501529)
(0.00501529 -0.0023671 -7.83664e-05 0.00501529 4.0756e-18 0.00501529)
(0.00501218 -0.00236531 -7.94488e-05 0.00501218 3.24546e-18 0.00501218)
(0.00501218 -0.00236531 -7.94488e-05 0.00501218 4.0965e-18 0.00501218)
(0.00500798 -0.00236302 -8.05286e-05 0.00500798 3.35381e-18 0.00500798)
(0.00500798 -0.00236302 -8.05286e-05 0.00500798 4.15924e-18 0.00500798)
(0.00500272 -0.00236023 -8.16058e-05 0.00500272 3.48495e-18 0.00500272)
(0.00500272 -0.00236023 -8.16058e-05 0.00500272 4.25091e-18 0.00500272)
(0.00499641 -0.00235695 -8.268e-05 0.00499641 3.666e-18 0.00499641)
(0.00499641 -0.00235695 -8.268e-05 0.00499641 4.31903e-18 0.00499641)
(0.00498908 -0.0023532 -8.3751e-05 0.00498908 3.75404e-18 0.00498908)
(0.00498908 -0.0023532 -8.3751e-05 0.00498908 4.38895e-18 0.00498908)
(0.00498074 -0.00234897 -8.48185e-05 0.00498074 3.80145e-18 0.00498074)
(0.00498074 -0.00234897 -8.48185e-05 0.00498074 4.45923e-18 0.00498074)
(0.00497142 -0.00234428 -8.58823e-05 0.00497142 3.94428e-18 0.00497142)
(0.00497142 -0.00234428 -8.58823e-05 0.00497142 4.67206e-18 0.00497142)
(0.00496114 -0.00233914 -8.69423e-05 0.00496114 4.27472e-18 0.00496114)
(0.00496114 -0.00233914 -8.69423e-05 0.00496114 4.91607e-18 0.00496114)
(0.00494991 -0.00233356 -8.7998e-05 0.00494991 4.62836e-18 0.00494991)
(0.00494991 -0.00233356 -8.7998e-05 0.00494991 4.89722e-18 0.00494991)
(0.00493775 -0.00232754 -8.90494e-05 0.00493775 4.71655e-18 0.00493775)
(0.00493775 -0.00232754 -8.90494e-05 0.00493775 4.75837e-18 0.00493775)
(0.00492469 -0.0023211 -9.00961e-05 0.00492469 4.82562e-18 0.00492469)
(0.00492469 -0.0023211 -9.00961e-05 0.00492469 4.71654e-18 0.00492469)
(0.00491074 -0.00231424 -9.11379e-05 0.00491074 5.03769e-18 0.00491074)
(0.00491074 -0.00231424 -9.11379e-05 0.00491074 4.72993e-18 0.00491074)
(0.00489592 -0.00230698 -9.21745e-05 0.00489592 5.01237e-18 0.00489592)
(0.00489592 -0.00230698 -9.21745e-05 0.00489592 4.74883e-18 0.00489592)
(0.00488026 -0.00229931 -9.32058e-05 0.00488026 5.024e-18 0.00488026)
(0.00488026 -0.00229931 -9.32058e-05 0.00488026 4.74092e-18 0.00488026)
(0.00486377 -0.00229126 -9.42314e-05 0.00486377 5.08327e-18 0.00486377)
(0.00486377 -0.00229126 -9.42314e-05 0.00486377 4.89795e-18 0.00486377)
(0.00484646 -0.00228283 -9.52511e-05 0.00484646 5.00893e-18 0.00484646)
(0.00484646 -0.00228283 -9.52511e-05 0.00484646 4.92262e-18 0.00484646)
(0.00482837 -0.00227402 -9.62647e-05 0.00482837 5.07169e-18 0.00482837)
(0.00482837 -0.00227402 -9.62647e-05 0.00482837 4.71006e-18 0.00482837)
(0.0048095 -0.00226485 -9.72719e-05 0.0048095 5.06659e-18 0.0048095)
(0.0048095 -0.00226485 -9.72719e-05 0.0048095 4.94585e-18 0.0048095)
(0.00478988 -0.00225533 -9.82724e-05 0.00478988 4.90922e-18 0.00478988)
(0.00478988 -0.00225533 -9.82724e-05 0.00478988 5.23998e-18 0.00478988)
(0.00476952 -0.00224546 -9.92661e-05 0.00476952 5.04182e-18 0.00476952)
(0.00476952 -0.00224546 -9.92661e-05 0.00476952 5.18634e-18 0.00476952)
(0.00474844 -0.00223526 -0.000100253 0.00474844 5.12547e-18 0.00474844)
(0.00474844 -0.00223526 -0.000100253 0.00474844 5.21834e-18 0.00474844)
(0.00472666 -0.00222472 -0.000101232 0.00472666 5.11294e-18 0.00472666)
(0.00472666 -0.00222472 -0.000101232 0.00472666 5.3021e-18 0.00472666)
(0.0047042 -0.00221387 -0.000102204 0.0047042 5.07534e-18 0.0047042)
(0.0047042 -0.00221387 -0.000102204 0.0047042 5.25543e-18 0.0047042)
(0.00468108 -0.0022027 -0.000103167 0.00468108 4.79634e-18 0.00468108)
(0.00468108 -0.0022027 -0.000103167 0.00468108 5.33961e-18 0.00468108)
(0.00465731 -0.00219123 -0.000104123 0.00465731 4.79571e-18 0.00465731)
(0.00465731 -0.00219123 -0.000104123 0.00465731 5.44276e-18 0.00465731)
(0.00463291 -0.00217947 -0.000105071 0.00463291 4.89727e-18 0.00463291)
(0.00463291 -0.00217947 -0.000105071 0.00463291 5.65263e-18 0.00463291)
(0.0046079 -0.00216742 -0.00010601 0.0046079 4.8471e-18 0.0046079)
(0.0046079 -0.00216742 -0.00010601 0.0046079 5.84501e-18 0.0046079)
(0.0045823 -0.0021551 -0.00010694 0.0045823 4.67838e-18 0.0045823)
(0.0045823 -0.0021551 -0.00010694 0.0045823 6.00331e-18 0.0045823)
(0.00455612 -0.00214251 -0.000107861 0.00455612 4.67783e-18 0.00455612)
(0.00455612 -0.00214251 -0.000107861 0.00455612 6.18447e-18 0.00455612)
(0.00452938 -0.00212966 -0.000108773 0.00452938 5.08057e-18 0.00452938)
(0.00452938 -0.00212966 -0.000108773 0.00452938 6.10963e-18 0.00452938)
(0.0045021 -0.00211655 -0.000109676 0.0045021 5.64887e-18 0.0045021)
(0.0045021 -0.00211655 -0.000109676 0.0045021 6.01478e-18 0.0045021)
(0.0044743 -0.0021032 -0.000110569 0.0044743 6.01917e-18 0.0044743)
(0.0044743 -0.0021032 -0.000110569 0.0044743 5.95674e-18 0.0044743)
(0.00444599 -0.00208962 -0.000111452 0.00444599 5.67139e-18 0.00444599)
(0.00444599 -0.00208962 -0.000111452 0.00444599 6.00464e-18 0.00444599)
(0.00441719 -0.00207581 -0.000112326 0.00441719 5.31536e-18 0.00441719)
(0.00441719 -0.00207581 -0.000112326 0.00441719 6.22354e-18 0.00441719)
(0.00438792 -0.00206178 -0.000113189 0.00438792 5.57113e-18 0.00438792)
(0.00438792 -0.00206178 -0.000113189 0.00438792 6.14816e-18 0.00438792)
(0.00435819 -0.00204755 -0.000114041 0.00435819 5.56009e-18 0.00435819)
(0.00435819 -0.00204755 -0.000114041 0.00435819 5.60402e-18 0.00435819)
(0.00432802 -0.00203311 -0.000114883 0.00432802 5.32605e-18 0.00432802)
(0.00432802 -0.00203311 -0.000114883 0.00432802 5.32581e-18 0.00432802)
(0.00429742 -0.00201847 -0.000115714 0.00429742 5.41611e-18 0.00429742)
(0.00429742 -0.00201847 -0.000115714 0.00429742 5.57526e-18 0.00429742)
(0.00426642 -0.00200365 -0.000116534 0.00426642 5.48892e-18 0.00426642)
(0.00426642 -0.00200365 -0.000116534 0.00426642 6.04994e-18 0.00426642)
(0.00423502 -0.00198865 -0.000117343 0.00423502 5.50609e-18 0.00423502)
(0.00423502 -0.00198865 -0.000117343 0.00423502 5.9506e-18 0.00423502)
(0.00420325 -0.00197348 -0.000118141 0.00420325 5.13903e-18 0.00420325)
(0.00420325 -0.00197348 -0.000118141 0.00420325 5.2368e-18 0.00420325)
(0.00417112 -0.00195815 -0.000118927 0.00417112 4.51285e-18 0.00417112)
(0.00417112 -0.00195815 -0.000118927 0.00417112 4.93522e-18 0.00417112)
(0.00413864 -0.00194266 -0.000119701 0.00413864 3.76432e-18 0.00413864)
(0.00413864 -0.00194266 -0.000119701 0.00413864 4.49058e-18 0.00413864)
(0.00410583 -0.00192703 -0.000120463 0.00410583 3.65689e-18 0.00410583)
(0.00410583 -0.00192703 -0.000120463 0.00410583 3.90577e-18 0.00410583)
(0.00407271 -0.00191125 -0.000121214 0.00407271 3.42406e-18 0.00407271)
(0.00407271 -0.00191125 -0.000121214 0.00407271 3.84682e-18 0.00407271)
(0.00403929 -0.00189534 -0.000121952 0.00403929 3.19941e-18 0.00403929)
(0.00403929 -0.00189534 -0.000121952 0.00403929 3.66882e-18 0.00403929)
(0.00400559 -0.00187931 -0.000122678 0.00400559 3.06644e-18 0.00400559)
(0.00400559 -0.00187931 -0.000122678 0.00400559 3.61303e-18 0.00400559)
(0.00397162 -0.00186316 -0.000123391 0.00397162 2.85395e-18 0.00397162)
(0.00397162 -0.00186316 -0.000123391 0.00397162 3.53425e-18 0.00397162)
(0.00393739 -0.0018469 -0.000124091 0.00393739 2.72077e-18 0.00393739)
(0.00393739 -0.0018469 -0.000124091 0.00393739 2.99483e-18 0.00393739)
(0.00390293 -0.00183054 -0.000124779 0.00390293 2.56478e-18 0.00390293)
(0.00390293 -0.00183054 -0.000124779 0.00390293 2.87604e-18 0.00390293)
(0.00386823 -0.00181408 -0.000125454 0.00386823 2.20563e-18 0.00386823)
(0.00386823 -0.00181408 -0.000125454 0.00386823 2.94792e-18 0.00386823)
(0.00383333 -0.00179753 -0.000126116 0.00383333 1.42864e-18 0.00383333)
(0.00383333 -0.00179753 -0.000126116 0.00383333 2.86478e-18 0.00383333)
(0.00379823 -0.00178089 -0.000126764 0.00379823 7.38505e-19 0.00379823)
(0.00379823 -0.00178089 -0.000126764 0.00379823 3.092e-18 0.00379823)
(0.00376294 -0.00176418 -0.0001274 0.00376294 3.3242e-19 0.00376294)
(0.00376294 -0.00176418 -0.0001274 0.00376294 3.18128e-18 0.00376294)
(0.00372749 -0.0017474 -0.000128022 0.00372749 2.03298e-19 0.00372749)
(0.00372749 -0.0017474 -0.000128022 0.00372749 3.26364e-18 0.00372749)
(0.00369187 -0.00173056 -0.00012863 0.00369187 -1.70833e-19 0.00369187)
(0.00369187 -0.00173056 -0.00012863 0.00369187 3.20662e-18 0.00369187)
(0.00365611 -0.00171366 -0.000129224 0.00365611 -3.28044e-19 0.00365611)
(0.00365611 -0.00171366 -0.000129224 0.00365611 3.02193e-18 0.00365611)
(0.00362022 -0.00169671 -0.000129805 0.00362022 -8.32718e-19 0.00362022)
(0.00362022 -0.00169671 -0.000129805 0.00362022 3.2848e-18 0.00362022)
(0.00358421 -0.00167972 -0.000130372 0.00358421 -9.64519e-19 0.00358421)
(0.00358421 -0.00167972 -0.000130372 0.00358421 3.54052e-18 0.00358421)
(0.0035481 -0.00166268 -0.000130925 0.0035481 -1.60547e-18 0.0035481)
(0.0035481 -0.00166268 -0.000130925 0.0035481 3.96016e-18 0.0035481)
(0.00351189 -0.00164562 -0.000131464 0.00351189 -2.13969e-18 0.00351189)
(0.00351189 -0.00164562 -0.000131464 0.00351189 3.74614e-18 0.00351189)
(0.0034756 -0.00162853 -0.000131988 0.0034756 -2.2307e-18 0.0034756)
(0.0034756 -0.00162853 -0.000131988 0.0034756 3.26317e-18 0.0034756)
(0.00343923 -0.00161141 -0.000132499 0.00343923 -2.07708e-18 0.00343923)
(0.00343923 -0.00161141 -0.000132499 0.00343923 3.31987e-18 0.00343923)
(0.00340281 -0.00159428 -0.000132995 0.00340281 -1.69339e-18 0.00340281)
(0.00340281 -0.00159428 -0.000132995 0.00340281 3.45929e-18 0.00340281)
(0.00336634 -0.00157714 -0.000133476 0.00336634 -2.27634e-18 0.00336634)
(0.00336634 -0.00157714 -0.000133476 0.00336634 3.54731e-18 0.00336634)
(0.00332984 -0.00156 -0.000133943 0.00332984 -2.904e-18 0.00332984)
(0.00332984 -0.00156 -0.000133943 0.00332984 3.42083e-18 0.00332984)
(0.00329331 -0.00154286 -0.000134396 0.00329331 -2.72334e-18 0.00329331)
(0.00329331 -0.00154286 -0.000134396 0.00329331 2.94844e-18 0.00329331)
(0.00325676 -0.00152572 -0.000134834 0.00325676 -3.02314e-18 0.00325676)
(0.00325676 -0.00152572 -0.000134834 0.00325676 3.02085e-18 0.00325676)
(0.00322021 -0.00150859 -0.000135257 0.00322021 -2.95189e-18 0.00322021)
(0.00322021 -0.00150859 -0.000135257 0.00322021 3.50814e-18 0.00322021)
(0.00318367 -0.00149148 -0.000135665 0.00318367 -3.10803e-18 0.00318367)
(0.00318367 -0.00149148 -0.000135665 0.00318367 4.03106e-18 0.00318367)
(0.00314714 -0.00147439 -0.000136058 0.00314714 -3.59884e-18 0.00314714)
(0.00314714 -0.00147439 -0.000136058 0.00314714 4.57012e-18 0.00314714)
(0.00311064 -0.00145732 -0.000136437 0.00311064 -3.21958e-18 0.00311064)
(0.00311064 -0.00145732 -0.000136437 0.00311064 4.18142e-18 0.00311064)
(0.00307417 -0.00144028 -0.0001368 0.00307417 -3.81292e-18 0.00307417)
(0.00307417 -0.00144028 -0.0001368 0.00307417 3.99139e-18 0.00307417)
(0.00303775 -0.00142327 -0.000137149 0.00303775 -4.80792e-18 0.00303775)
(0.00303775 -0.00142327 -0.000137149 0.00303775 5.67557e-18 0.00303775)
(0.00300137 -0.0014063 -0.000137482 0.00300137 -4.4329e-18 0.00300137)
(0.00300137 -0.0014063 -0.000137482 0.00300137 5.62972e-18 0.00300137)
(0.00296507 -0.00138938 -0.0001378 0.00296507 -4.48203e-18 0.00296507)
(0.00296507 -0.00138938 -0.0001378 0.00296507 4.45839e-18 0.00296507)
(0.00292883 -0.00137249 -0.000138103 0.00292883 -5.90941e-18 0.00292883)
(0.00292883 -0.00137249 -0.000138103 0.00292883 5.4162e-18 0.00292883)
(0.00289267 -0.00135566 -0.00013839 0.00289267 -5.47425e-18 0.00289267)
(0.00289267 -0.00135566 -0.00013839 0.00289267 6.33808e-18 0.00289267)
(0.00285659 -0.00133888 -0.000138663 0.00285659 -3.85358e-18 0.00285659)