/*--------------------------------*- C++ -*----------------------------------*\
| =========                 |                                                 |
| \\      /  F ield         | OpenFOAM: The Open Source CFD Toolbox           |
|  \\    /   O peration     | Version:  2106                                  |
|   \\  /    A nd           | Website:  www.openfoam.com                      |
|    \\/     M anipulation  |                                                 |
\*---------------------------------------------------------------------------*/
FoamFile
{
    version     2.0;
    format      ascii;
    arch        "LSB;label=32;scalar=64";
    class       volTensorField;
    location    "20000";
    object      grad(U);
}
// * * * * * * * * * * * * * * * * * * * * * * * * * * * * * * * * * * * * * //

dimensions      [0 0 -1 0 0 0 0];

internalField   nonuniform List<tensor> 
2560
(
(0 4.15781e-30 9.74487e-32 23.6901 -1.37635e-11 -2.62173e-13 0.0342944 -9.96198e-15 -1.87636e-16)
(0 -1.87057e-29 -3.60052e-28 23.6901 -1.60227e-15 -8.14549e-15 0.0342944 -1.2337e-18 -1.29434e-17)
(0 -8.84794e-25 -7.86701e-27 23.6866 4.29888e-32 -3.40092e-14 0.103372 -6.31089e-30 -9.989e-17)
(0 -8.19643e-30 -1.28069e-31 23.6866 -2.62824e-15 -6.19261e-15 0.103372 -4.01521e-18 -1.06972e-16)
(3.11901e-17 -4.25355e-30 -6.88163e-32 23.6831 1.46554e-12 -1.4883e-14 0.14216 -9.67015e-15 -7.73446e-17)
(-3.55316e-17 8.07896e-30 1.26234e-31 23.6831 -3.2996e-15 -4.86967e-16 0.14216 -9.53996e-18 -1.10132e-16)
(1.3922e-17 -1.57621e-29 -4.3269e-31 23.6795 7.35187e-13 -1.30201e-14 0.144205 -7.78462e-15 -8.01241e-17)
(0 1.19448e-29 3.73273e-31 23.6795 -3.18708e-15 -4.90991e-16 0.144205 -1.45316e-17 -1.13387e-16)
(6.90408e-17 -2.74716e-29 -3.67923e-31 23.6759 6.01551e-14 -1.32963e-14 0.146279 -1.05724e-15 -8.3024e-17)
(0 2.35471e-29 2.45282e-31 23.6759 -3.28793e-15 -4.98957e-16 0.146279 -1.98842e-17 -1.16737e-16)
(3.34987e-17 -2.03219e-29 -1.84744e-31 23.6722 -4.05765e-14 -1.34482e-14 0.148383 -1.74708e-16 -8.43757e-17)
(2.67989e-16 1.54731e-29 1.20883e-31 23.6722 -3.34337e-15 -5.12086e-16 0.148383 -2.54164e-17 -1.20202e-16)
(-4.34987e-17 -3.00645e-28 -5.2897e-32 23.6684 -1.54726e-27 -1.34803e-14 0.150516 0 -8.58641e-17)
(1.73995e-16 1.52513e-29 3.57452e-31 23.6684 -3.37764e-15 -5.26349e-16 0.150516 -3.10598e-17 -1.23782e-16)
(-5.36426e-17 1.98969e-29 1.86039e-31 23.6645 1.35737e-14 -1.35707e-14 0.152679 -9.02716e-17 -8.8014e-17)
(1.48456e-16 -7.51636e-30 0 23.6645 -3.46159e-15 -5.40829e-16 0.152679 -3.6693e-17 -1.27486e-16)
(6.39324e-17 -1.22713e-29 -1.86709e-31 23.6606 1.04862e-14 -1.37362e-14 0.154873 -8.35811e-17 -9.05461e-17)
(0 1.48173e-29 1.1576e-31 23.6606 -3.58542e-15 -5.5498e-16 0.154873 -4.29719e-17 -1.31313e-16)
(-1.28466e-16 1.46049e-29 3.42302e-31 23.6565 7.39407e-15 -1.39376e-14 0.157099 -5.2493e-17 -9.32674e-17)
(0 -7.30244e-30 -2.28201e-31 23.6565 -3.63707e-15 -5.71611e-16 0.157099 -4.96569e-17 -1.35272e-16)
(4.16668e-17 -9.53021e-30 -3.74044e-31 23.6524 6.56013e-15 -1.41552e-14 0.159355 -4.49574e-17 -9.61305e-17)
(-1.26625e-16 2.15933e-29 5.62327e-31 23.6524 -3.70663e-15 -5.8761e-16 0.159355 -5.62229e-17 -1.39375e-16)
(9.56978e-17 -4.03377e-29 -7.43476e-31 23.6482 6.28642e-15 -1.43826e-14 0.161643 -4.27925e-17 -9.91081e-17)
(0 2.83785e-29 6.65121e-31 23.6482 -3.78525e-15 -6.01699e-16 0.161643 -6.31089e-17 -1.43606e-16)
(0 -6.99293e-30 -2.18529e-31 23.644 6.2302e-15 -1.4616e-14 0.163964 -4.25323e-17 -1.02185e-16)
(0 1.39859e-29 2.18529e-31 23.644 -3.81199e-15 -6.18063e-16 0.163964 -7.00765e-17 -1.47982e-16)
(-2.38901e-16 1.86478e-29 2.99063e-31 23.6396 6.3794e-15 -1.48536e-14 0.166316 -4.32662e-17 -1.05354e-16)
(4.70571e-16 -6.89271e-30 -1.07699e-31 23.6396 -3.99893e-15 -6.34752e-16 0.166316 -7.73282e-17 -1.52511e-16)
(0 3.39696e-29 5.30775e-31 23.6351 6.50077e-15 -1.50945e-14 0.168702 -4.58778e-17 -1.08618e-16)
(0 -3.39696e-29 -5.30775e-31 23.6351 -4.11213e-15 -6.50537e-16 0.168702 -8.53125e-17 -1.57192e-16)
(-1.40223e-16 4.8598e-30 8.93135e-32 23.6304 6.45111e-15 -1.53393e-14 0.171121 -4.62665e-17 -1.11987e-16)
(5.6089e-16 0 0 23.6304 -3.99337e-15 -6.66269e-16 0.171121 -9.2953e-17 -1.62034e-16)
(0 3.30028e-29 7.21937e-31 23.6256 6.59703e-15 -1.55878e-14 0.173574 -4.65023e-17 -1.15451e-16)
(-6.07025e-16 -3.30028e-29 -7.21937e-31 23.6256 -4.14155e-15 -6.84607e-16 0.173574 -1.00032e-16 -1.67038e-16)
(0 3.25298e-29 8.13245e-31 23.6207 6.77457e-15 -1.58386e-14 0.17606 -4.97661e-17 -1.19006e-16)
(-6.53821e-16 -3.25298e-29 -8.13245e-31 23.6207 -4.21351e-15 -7.04243e-16 0.17606 -1.08371e-16 -1.72225e-16)
(2.25627e-16 -6.41271e-30 -6.01192e-31 23.6155 6.79971e-15 -1.6092e-14 0.17858 -5.05114e-17 -1.22666e-16)
(0 6.41271e-30 6.01192e-31 23.6155 -4.10789e-15 -7.23215e-16 0.17858 -1.16296e-16 -1.77589e-16)
(1.87359e-16 2.04288e-29 4.90854e-31 23.6101 7.00398e-15 -1.63484e-14 0.181134 -5.16043e-17 -1.26427e-16)
(-7.49436e-16 -3.79248e-29 -7.90101e-31 23.6101 -4.39158e-15 -7.43377e-16 0.181134 -1.24509e-16 -1.83137e-16)
(0 3.11511e-29 7.78776e-31 23.6044 7.26052e-15 -1.66069e-14 0.183723 -5.51257e-17 -1.30284e-16)
(0 -3.11511e-29 -7.78776e-31 23.6044 -4.64565e-15 -7.63795e-16 0.183723 -1.34145e-16 -1.88887e-16)
(-2.11953e-16 -7.43098e-30 -8.33799e-32 23.5984 7.32338e-15 -1.6868e-14 0.186345 -5.711e-17 -1.34254e-16)
(0 1.84227e-29 3.83807e-31 23.5984 -4.59631e-15 -7.87534e-16 0.186345 -1.4381e-16 -1.94836e-16)
(4.14388e-16 -4.96268e-29 -1.21199e-30 23.5919 7.5061e-15 -1.71323e-14 0.189001 -5.77333e-17 -1.38336e-16)
(0 4.84232e-29 1.51323e-30 23.5919 -4.72795e-15 -8.1225e-16 0.189001 -1.536e-16 -2.01006e-16)
(0 1.78984e-29 7.45768e-31 23.585 8.13373e-15 -1.73976e-14 0.191692 -6.1711e-17 -1.425e-16)
(-9.49024e-16 -2.98307e-29 -1.11865e-30 23.585 -5.25329e-15 -8.31444e-16 0.191692 -1.64641e-16 -2.0738e-16)
(2.50179e-16 3.04396e-29 7.99308e-31 23.5776 8.4449e-15 -1.76631e-14 0.194415 -6.96285e-17 -1.46767e-16)
(0 -3.52838e-29 -9.1885e-31 23.5776 -5.72907e-15 -8.48038e-16 0.194415 -1.77263e-16 -2.1397e-16)
(-5.26574e-16 5.60559e-29 1.3337e-30 23.5694 8.20037e-15 -1.79303e-14 0.197171 -6.86512e-17 -1.51145e-16)
(0 -4.63708e-29 -1.08682e-30 23.5694 -5.66425e-15 -8.69972e-16 0.197171 -1.90619e-16 -2.20808e-16)
(8.29745e-16 -5.45162e-29 -1.98923e-30 23.5605 8.37059e-15 -1.81988e-14 0.199959 -6.75761e-17 -1.55625e-16)
(2.21265e-15 4.57062e-29 1.42832e-30 23.5605 -5.47733e-15 -8.96718e-16 0.199959 -2.04064e-16 -2.27914e-16)
(0 -2.81569e-29 -8.79905e-31 23.5507 8.8134e-15 -1.84665e-14 0.202778 -7.35523e-17 -1.60184e-16)
(1.16026e-15 3.37883e-29 8.79905e-31 23.5507 -5.64985e-15 -9.20828e-16 0.202778 -2.16986e-16 -2.35282e-16)
(3.03741e-16 1.73665e-29 7.31424e-31 23.5398 8.9102e-15 -1.8732e-14 0.205626 -7.71826e-17 -1.64824e-16)
(0 -1.11014e-29 -5.20376e-31 23.5398 -5.8052e-15 -9.38464e-16 0.205626 -2.29874e-16 -2.42893e-16)
(-6.35219e-16 9.6688e-30 2.80549e-31 23.5277 8.84187e-15 -1.89952e-14 0.208502 -7.73985e-17 -1.69542e-16)
(-2.54088e-15 0 0 23.5277 -5.74967e-15 -9.5799e-16 0.208502 -2.43793e-16 -2.5073e-16)
(-3.31675e-16 2.10106e-29 6.50383e-31 23.514 9.07791e-15 -1.92552e-14 0.211404 -7.82321e-17 -1.74329e-16)
(-1.3267e-15 -5.39271e-30 -3.37044e-31 23.514 -5.70664e-15 -9.80476e-16 0.211404 -2.57787e-16 -2.58841e-16)
(0 3.18925e-29 1.49496e-30 23.4987 9.46276e-15 -1.95106e-14 0.21433 -8.39114e-17 -1.79169e-16)
(-1.38375e-15 -3.18925e-29 -1.49496e-30 23.4987 -5.63682e-15 -1.00438e-15 0.21433 -2.71332e-16 -2.67213e-16)
(0 -3.14354e-29 -1.63726e-30 23.4813 9.64209e-15 -1.97607e-14 0.217276 -8.75464e-17 -1.84066e-16)
(1.4416e-15 3.14354e-29 1.63726e-30 23.4813 -5.64509e-15 -1.02735e-15 0.217276 -2.84549e-16 -2.75895e-16)
(-3.75066e-16 4.82487e-30 1.59307e-31 23.4617 9.90422e-15 -2.0002e-14 0.22024 -8.96896e-17 -1.8895e-16)
(0 1.03283e-29 3.22759e-31 23.4617 -6.05441e-15 -1.03783e-15 0.22024 -2.99139e-16 -2.84828e-16)
(-7.48121e-16 3.53625e-29 1.43697e-30 23.4395 1.02782e-14 -2.02325e-14 0.223217 -9.50345e-17 -1.9385e-16)
(3.58186e-16 -3.05408e-29 -1.27253e-30 23.4395 -6.5565e-15 -1.05504e-15 0.223217 -3.14481e-16 -2.94015e-16)
(-4.0501e-16 2.48875e-29 7.96868e-31 23.4143 1.01959e-14 -2.04515e-14 0.226203 -9.94427e-17 -1.98718e-16)
(-1.97309e-15 -1.00343e-29 -6.27146e-31 23.4143 -6.55361e-15 -1.07953e-15 0.226203 -3.31493e-16 -3.03566e-16)
(4.20291e-16 -1.96526e-29 -7.93325e-31 23.3856 9.882e-15 -2.06557e-14 0.229194 -9.62287e-17 -2.03534e-16)
(0 1.48358e-29 6.18158e-31 23.3856 -6.1369e-15 -1.11055e-15 0.229194 -3.49804e-16 -3.13379e-16)
(1.12179e-15 -2.91864e-29 -1.70401e-30 23.3531 1.02929e-14 -2.08437e-14 0.232182 -9.61981e-17 -2.08281e-16)
(-6.86008e-16 2.43719e-29 1.52324e-30 23.3531 -6.3399e-15 -1.14017e-15 0.232182 -3.67916e-16 -3.23591e-16)
(-4.51477e-16 2.40284e-29 1.38765e-30 23.3161 1.13029e-14 -2.10113e-14 0.235162 -1.07223e-16 -2.1288e-16)
(0 -9.60904e-30 -9.00848e-31 23.3161 -7.17943e-15 -1.15774e-15 0.235162 -3.89173e-16 -3.34039e-16)
(0 1.89426e-29 1.18391e-30 23.2743 1.20022e-14 -2.11545e-14 0.238126 -1.19407e-16 -2.17314e-16)
(0 -2.36783e-29 -1.18391e-30 23.2743 -7.7257e-15 -1.17992e-15 0.238126 -4.11752e-16 -3.44831e-16)
(-4.83498e-16 1.41373e-29 7.81996e-31 23.2269 1.18688e-14 -2.12729e-14 0.241067 -1.24687e-16 -2.21578e-16)
(1.27706e-15 0 0 23.2269 -7.47988e-15 -1.20266e-15 0.241067 -4.34275e-16 -3.55978e-16)
(0 -3.68071e-29 -1.43778e-30 23.1734 1.16151e-14 -2.13657e-14 0.243974 -1.20134e-16 -2.25636e-16)
(1.99929e-15 3.68071e-29 1.43778e-30 23.1734 -7.29122e-15 -1.22902e-15 0.243974 -4.57076e-16 -3.67437e-16)
(5.16354e-16 2.24137e-29 9.2259e-31 23.1131 1.18048e-14 -2.14287e-14 0.246839 -1.2299e-16 -2.29415e-16)
(-2.06541e-15 -3.17446e-29 -1.7006e-30 23.1131 -7.71294e-15 -1.2561e-15 0.246839 -4.82261e-16 -3.79246e-16)
(5.33091e-16 -1.82021e-29 -1.05581e-30 23.0453 1.19052e-14 -2.14576e-14 0.24965 -1.27711e-16 -2.32874e-16)
(0 1.34098e-29 8.38115e-31 23.0453 -7.77691e-15 -1.28786e-15 0.24965 -5.05994e-16 -3.91365e-16)
(7.00391e-17 3.83276e-31 -3.26334e-31 22.9694 1.23794e-14 -2.14496e-14 0.252397 -1.2877e-16 -2.35958e-16)
(-6.20072e-16 1.32176e-29 8.26102e-31 22.9694 -7.7704e-15 -1.30736e-15 0.252397 -5.29827e-16 -4.03839e-16)
(-4.40089e-17 8.24399e-30 8.54416e-31 22.8845 1.29602e-14 -2.14013e-14 0.255067 -1.41894e-16 -2.38616e-16)
(2.2687e-15 -4.34273e-30 -5.42841e-31 22.8845 -7.70083e-15 -1.30164e-15 0.255067 -5.5151e-16 -4.16486e-16)
(6.02425e-16 -1.28415e-29 -1.07012e-30 22.7899 1.2787e-14 -2.13107e-14 0.257647 -1.45515e-16 -2.40818e-16)
(2.33807e-15 1.7122e-29 1.07012e-30 22.7899 -7.61932e-15 -1.30308e-15 0.257647 -5.71035e-16 -4.29339e-16)
(-6.02051e-16 8.99711e-30 2.45458e-31 22.6849 1.28222e-14 -2.11752e-14 0.260125 -1.42124e-16 -2.42491e-16)
(0 4.21914e-30 5.27392e-31 22.6849 -8.07825e-15 -1.29658e-15 0.260125 -5.94223e-16 -4.42468e-16)
(-6.19773e-16 8.93209e-30 -2.6706e-31 22.5688 1.33995e-14 -2.09908e-14 0.262487 -1.50589e-16 -2.43571e-16)
(0 4.15867e-30 5.19833e-31 22.5688 -8.39058e-15 -1.27362e-15 0.262487 -6.18862e-16 -4.55661e-16)
(5.76892e-16 -8.19813e-30 -1.02477e-30 22.441 1.39424e-14 -2.07576e-14 0.264719 -1.59751e-16 -2.44078e-16)
(-5.76892e-16 1.22972e-29 1.02477e-30 22.441 -8.31609e-15 -1.25563e-15 0.264719 -6.42452e-16 -4.69019e-16)
(-1.22438e-15 4.76361e-30 -7.42304e-31 22.3007 1.46255e-14 -2.04727e-14 0.266808 -1.67846e-16 -2.43866e-16)
(0 1.21209e-29 1.01008e-30 22.3007 -9.01326e-15 -1.24401e-15 0.266808 -6.6841e-16 -4.82497e-16)
(-1.12095e-15 3.58416e-29 1.9912e-30 22.1474 1.50501e-14 -2.01321e-14 0.26874 -1.80832e-16 -2.42933e-16)
(-2.696e-15 -3.18592e-29 -1.9912e-30 22.1474 -9.71141e-15 -1.23619e-15 0.26874 -7.04364e-16 -4.96114e-16)
(-6.92404e-16 -2.27251e-29 -1.18885e-30 21.9806 1.52252e-14 -1.97411e-14 0.270502 -1.83104e-16 -2.41346e-16)
(2.76962e-15 3.14026e-29 1.472e-30 21.9806 -9.8699e-15 -1.22202e-15 0.270502 -7.43135e-16 -5.09899e-16)
(-1.08905e-15 3.09525e-29 1.93453e-30 21.7999 1.60086e-14 -1.93027e-14 0.272082 -1.90455e-16 -2.39059e-16)
(1.08905e-15 -3.09525e-29 -1.93453e-30 21.7999 -1.07161e-14 -1.18567e-15 0.272082 -7.8016e-16 -5.23706e-16)
(-1.80308e-15 2.76202e-29 1.72881e-30 21.605 1.68975e-14 -1.88141e-14 0.273469 -2.08108e-16 -2.35989e-16)
(3.992e-15 -2.28817e-29 -1.4301e-30 21.605 -1.08573e-14 -1.12954e-15 0.273469 -8.16122e-16 -5.37431e-16)
(1.49691e-15 -1.69798e-29 -1.08284e-30 21.3957 1.66582e-14 -1.82824e-14 0.274653 -2.18643e-16 -2.32342e-16)
(2.99381e-15 7.51791e-30 4.69869e-31 21.3957 -1.03546e-14 -1.08082e-15 0.274653 -8.53043e-16 -5.51052e-16)
(1.04289e-15 -7.41016e-30 -4.63135e-31 21.1721 1.54555e-14 -1.77188e-14 0.275625 -2.08029e-16 -2.28147e-16)
(0 1.48203e-29 4.63135e-31 21.1721 -1.04147e-14 -1.05507e-15 0.275625 -8.94245e-16 -5.64638e-16)
(2.41543e-16 -2.57989e-30 -1.34576e-31 20.9341 1.47667e-14 -1.71252e-14 0.276378 -1.93561e-16 -2.2338e-16)
(-1.02794e-15 1.46079e-29 9.12994e-31 20.9341 -9.88873e-15 -1.03189e-15 0.276378 -9.34092e-16 -5.78235e-16)
(-1.611e-15 3.10357e-29 2.00893e-30 20.6821 1.47356e-14 -1.65064e-14 0.276907 -1.9583e-16 -2.18157e-16)
(3.222e-15 -2.87971e-29 -2.69972e-30 20.6821 -9.41982e-15 -9.69942e-16 0.276907 -9.6944e-16 -5.91679e-16)
(-8.24673e-16 4.71388e-30 -1.0643e-31 20.4163 1.50987e-14 -1.58668e-14 0.277209 -1.98391e-16 -2.12438e-16)
(0 1.41922e-29 8.8701e-31 20.4163 -9.67002e-15 -9.13347e-16 0.277209 -1.00583e-15 -6.04757e-16)
(-8.43898e-16 -2.28779e-30 3.44529e-31 20.1374 1.58536e-14 -1.52059e-14 0.277282 -2.11493e-16 -2.06218e-16)
(3.37559e-15 2.09831e-29 4.37149e-31 20.1374 -9.7095e-15 -8.83198e-16 0.277282 -1.04458e-15 -6.17929e-16)
(-8.6316e-16 1.8487e-29 2.07538e-30 19.8459 1.66308e-14 -1.45309e-14 0.277127 -2.25139e-16 -1.99668e-16)
(0 -6.89413e-30 -1.29265e-30 19.8459 -1.05791e-14 -8.61928e-16 0.277127 -1.08412e-15 -6.30884e-16)
(-3.6776e-15 2.9767e-29 2.41684e-30 19.5426 1.7228e-14 -1.38476e-14 0.276747 -2.39561e-16 -1.9275e-16)
(-1.61706e-15 -2.0386e-29 -1.69883e-30 19.5426 -1.05851e-14 -8.17343e-16 0.276747 -1.13261e-15 -6.43863e-16)
(-2.74611e-15 -1.74265e-29 -2.61698e-30 19.2284 1.69591e-14 -1.31596e-14 0.276145 -2.48783e-16 -1.8559e-16)
(7.21383e-15 2.67917e-29 2.51172e-30 19.2284 -9.56927e-15 -7.61216e-16 0.276145 -1.17525e-15 -6.56318e-16)
(-2.76301e-15 4.70443e-29 4.00657e-30 18.9043 1.6494e-14 -1.24805e-14 0.275329 -2.38788e-16 -1.78442e-16)
(-3.68402e-15 -3.30096e-29 -2.88834e-30 18.9043 -9.36051e-15 -7.43706e-16 0.275329 -1.21709e-15 -6.68835e-16)
(-9.40251e-16 -2.1357e-29 -1.65424e-30 18.5713 1.71798e-14 -1.18146e-14 0.274306 -2.42404e-16 -1.71177e-16)
(3.761e-15 3.25365e-29 2.84695e-30 18.5713 -9.16244e-15 -7.05e-16 0.274306 -1.26131e-15 -6.81197e-16)
(9.59454e-16 -1.74902e-29 -7.86502e-31 18.2304 1.78087e-14 -1.11602e-14 0.273086 -2.66227e-16 -1.63875e-16)
(0 1.28281e-29 4.00877e-31 18.2304 -1.01829e-14 -6.56782e-16 0.273086 -1.30093e-15 -6.93047e-16)
(0 -3.16105e-29 -2.76592e-30 17.883 1.78559e-14 -1.05329e-14 0.271679 -2.68528e-16 -1.56942e-16)
(3.91439e-15 3.16105e-29 2.76592e-30 17.883 -1.09537e-14 -5.4627e-16 0.271679 -1.34373e-15 -7.04898e-16)
(0 -1.2463e-29 -7.78937e-31 17.53 1.81206e-14 -9.93776e-15 0.270097 -2.75473e-16 -1.50149e-16)
(3.99068e-15 1.2463e-29 7.78937e-31 17.53 -1.01581e-14 -3.85754e-16 0.270097 -1.38455e-15 -7.15589e-16)
(-1.72887e-15 1.84265e-29 2.30332e-30 17.1726 1.7606e-14 -9.36679e-15 0.268352 -2.84636e-16 -1.43506e-16)
(4.06661e-15 -6.14218e-30 -7.67773e-31 17.1726 -9.90349e-15 -2.94414e-16 0.268352 -1.42221e-15 -7.25945e-16)
(-1.70409e-15 3.02707e-29 3.02707e-30 16.8121 1.6628e-14 -8.82482e-15 0.266457 -2.67288e-16 -1.37181e-16)
(1.70409e-15 -3.02707e-29 -3.02707e-30 16.8121 -1.03828e-14 -2.47314e-16 0.266457 -1.46674e-15 -7.36141e-16)
(-2.10862e-15 9.26269e-30 1.57372e-30 16.4496 1.6447e-14 -8.31295e-15 0.264426 -2.61635e-16 -1.31069e-16)
(0 0 -7.45922e-31 16.4496 -1.05502e-14 -1.96555e-16 0.264426 -1.52146e-15 -7.46065e-16)
(0 -2.94092e-29 -2.94092e-30 16.086 1.72203e-14 -7.83441e-15 0.262272 -2.69237e-16 -1.25417e-16)
(4.29182e-15 2.94092e-29 2.94092e-30 16.086 -1.05805e-14 -1.26069e-16 0.262272 -1.57471e-15 -7.55529e-16)
(0 1.73926e-29 1.44939e-30 15.7224 1.75037e-14 -7.38456e-15 0.260007 -2.94804e-16 -1.19857e-16)
(4.36587e-15 -5.79755e-30 -7.24693e-31 15.7224 -1.06858e-14 -3.19596e-17 0.260007 -1.62512e-15 -7.6464e-16)
(-1.10984e-15 4.60405e-30 -2.86099e-31 15.3599 1.74068e-14 -6.96766e-15 0.257647 -2.86604e-16 -1.14937e-16)
(0 5.71445e-30 1.42861e-30 15.3599 -1.07557e-14 6.79711e-17 0.257647 -1.67675e-15 -7.7309e-16)
(1.12805e-15 1.23036e-29 2.38373e-30 14.9992 1.78586e-14 -6.58787e-15 0.255202 -3.0015e-16 -1.10287e-16)
(0 -5.63255e-30 -1.40814e-30 14.9992 -1.02473e-14 1.75155e-16 0.255202 -1.72967e-15 -7.81182e-16)
(1.5627e-15 -1.11036e-29 -1.38796e-30 14.6413 1.73157e-14 -6.24466e-15 0.252686 -3.10561e-16 -1.06311e-16)
(-1.5627e-15 1.11036e-29 2.08193e-30 14.6413 -9.70214e-15 2.48941e-16 0.252686 -1.77514e-15 -7.88645e-16)
(1.5403e-15 -5.47225e-30 -1.36806e-30 14.2868 1.67549e-14 -9.1928e-15 0.250111 -2.89974e-16 -2.18031e-16)
(0 1.09445e-29 2.05209e-30 14.2868 -1.04469e-14 2.95665e-16 0.250111 -1.83075e-15 -7.9622e-16)
(-8.45219e-16 -7.03912e-30 -5.079e-31 13.9364 1.67216e-14 -1.45681e-14 0.247487 -2.99778e-16 -3.02751e-16)
(0 1.61815e-29 1.34845e-30 13.9364 -1.08189e-14 4.13284e-16 0.247487 -1.89137e-15 -8.03372e-16)
(-2.69573e-15 2.05137e-29 2.42489e-30 13.5907 1.71789e-14 -1.66064e-14 0.244825 -2.97269e-16 -2.98793e-16)
(1.49647e-15 -1.59495e-29 -1.99369e-30 13.5907 -1.06775e-14 5.02391e-16 0.244825 -1.94421e-15 -8.09695e-16)
(1.21663e-15 -4.55157e-30 -4.41599e-31 13.2503 1.81406e-14 -1.6233e-14 0.242135 -3.25246e-16 -2.97799e-16)
(-4.8665e-15 0 0 13.2503 -1.18254e-14 5.15282e-16 0.242135 -2.00407e-15 -8.16304e-16)
(1.45388e-15 -1.03304e-29 -1.2913e-30 12.9156 1.7859e-14 -1.59826e-14 0.239426 -3.41577e-16 -2.98142e-16)
(-4.93521e-15 1.54956e-29 1.93695e-30 12.9156 -1.1854e-14 5.90097e-16 0.239426 -2.07715e-15 -8.22503e-16)
(-1.25079e-15 2.48984e-29 3.64461e-30 12.587 1.74418e-14 -1.56608e-14 0.236706 -3.24199e-16 -2.94257e-16)
(1.00064e-14 -1.52735e-29 -2.54559e-30 12.587 -1.04794e-14 7.21745e-16 0.236706 -2.14191e-15 -8.27901e-16)
(-1.44902e-16 1.55499e-29 2.03586e-30 12.2648 1.79714e-14 -1.52438e-14 0.233982 -3.35688e-16 -2.90757e-16)
(6.48289e-15 -2.5091e-29 -3.13638e-30 12.2648 -1.11365e-14 8.28028e-16 0.233982 -2.20029e-15 -8.33176e-16)
(0 4.94628e-30 0 11.9492 1.75552e-14 -1.49055e-14 0.231263 -3.54169e-16 -2.89608e-16)
(0 4.94628e-30 1.23657e-30 11.9492 -1.10335e-14 8.99354e-16 0.231263 -2.28084e-15 -8.38298e-16)
(-1.30063e-15 -1.98717e-29 -3.77229e-30 11.6405 1.61785e-14 -1.46157e-14 0.228552 -3.29197e-16 -2.87743e-16)
(5.20253e-15 2.43769e-29 4.87539e-30 11.6405 -9.88492e-15 9.00536e-16 0.228552 -2.3406e-15 -8.43332e-16)
(-1.31687e-15 1.89159e-29 2.30564e-30 11.3388 1.60212e-14 -1.43611e-14 0.225858 -3.09765e-16 -2.87815e-16)
(-6.6201e-15 -9.61102e-30 -1.20138e-30 11.3388 -1.01828e-14 9.22624e-16 0.225858 -2.3982e-15 -8.48795e-16)
(1.33291e-15 -1.8697e-29 -2.28962e-30 11.0442 1.6701e-14 -1.4176e-14 0.223183 -3.32488e-16 -2.88589e-16)
(5.33164e-15 1.42099e-29 1.77624e-30 11.0442 -9.69092e-15 1.00048e-15 0.223183 -2.4601e-15 -8.53374e-16)
(-1.34876e-15 2.78196e-29 4.02523e-30 10.7568 1.67427e-14 -1.39282e-14 0.220533 -3.46681e-16 -2.85951e-16)
(5.39505e-15 -2.33437e-29 -3.50156e-30 10.7568 -9.537e-15 1.02381e-15 0.220533 -2.50947e-15 -8.58225e-16)
(-1.36443e-15 4.46769e-30 5.33524e-31 10.4766 1.59447e-14 -1.36584e-14 0.21791 -3.43963e-16 -2.85668e-16)
(0 0 0 10.4766 -9.70894e-15 1.08294e-15 0.21791 -2.57721e-15 -8.63346e-16)
(-1.37991e-15 -7.24299e-32 5.43329e-31 10.2037 1.43688e-14 -1.34636e-14 0.21532 -3.23196e-16 -2.85996e-16)
(0 1.36076e-29 1.13397e-30 10.2037 -8.0697e-15 1.12607e-15 0.21532 -2.62744e-15 -8.67854e-16)
(-1.39521e-15 -8.95072e-30 -3.3586e-30 9.93798 1.35415e-14 -1.32402e-14 0.212763 -2.86638e-16 -2.84346e-16)
(5.58082e-15 1.78835e-29 3.91201e-30 9.93798 -6.86134e-15 1.09312e-15 0.212763 -2.67559e-15 -8.73134e-16)
(1.41032e-15 -2.20798e-29 -3.86817e-30 9.67938 1.33118e-14 -1.30345e-14 0.210243 -2.96768e-16 -2.85318e-16)
(0 1.76271e-29 3.30509e-30 9.67938 -7.20496e-15 1.09999e-15 0.210243 -2.73444e-15 -8.79011e-16)
(2.44524e-15 -1.73745e-29 -1.49766e-28 9.42785 1.22215e-14 -7.22912e-16 0.207762 -2.84921e-16 -8.01333e-18)
(-2.44524e-15 2.17181e-29 1.08591e-30 9.42785 -7.90362e-15 1.07154e-15 0.207762 -2.79197e-15 -8.84746e-16)
(9.70191e-16 -4.11739e-30 8.75812e-47 9.1833 1.26447e-14 6.12686e-31 0.205321 -2.5677e-16 0)
(-2.4102e-15 1.71255e-29 2.14069e-30 9.1833 -7.94608e-15 1.01e-15 0.205321 -2.8635e-15 -8.90158e-16)
(2.37565e-15 -3.37601e-29 -6.33001e-30 8.94561 1.44374e-14 8.56427e-15 0.202922 -3.1244e-16 -1.93817e-16)
(1.16367e-14 3.79801e-29 6.33001e-30 8.94561 -7.09115e-15 1.02376e-15 0.202922 -2.92801e-15 -8.95623e-16)
(0 0 -1.03988e-30 8.71467 1.52184e-14 8.57942e-15 0.200565 -3.46702e-16 -1.97063e-16)
(5.87598e-15 8.31905e-30 2.07976e-30 8.71467 -7.23005e-15 1.052e-15 0.200565 -2.98101e-15 -9.0148e-16)
(-3.79128e-15 3.3103e-29 3.63874e-30 8.49034 1.54201e-14 8.57746e-15 0.198252 -3.58015e-16 -2.00201e-16)
(-5.93293e-15 -2.45994e-29 -3.07493e-30 8.49034 -8.94116e-15 1.12571e-15 0.198252 -3.04122e-15 -9.0972e-16)
(-1.4973e-15 1.65168e-29 3.58708e-30 8.27248 1.51052e-14 8.55421e-15 0.195982 -3.66406e-16 -2.02743e-16)
(-5.98922e-15 -8.08229e-30 -3.03086e-30 8.27248 -9.85307e-15 1.21639e-15 0.195982 -3.10865e-15 -9.16786e-16)
(0 7.96645e-30 1.99161e-30 8.06095 1.44339e-14 8.48625e-15 0.193757 -3.53385e-16 -2.04949e-16)
(0 0 -9.95806e-31 8.06095 -8.25294e-15 1.16692e-15 0.193757 -3.1706e-15 -9.22403e-16)
(0 7.85227e-30 1.96307e-30 7.8556 1.4875e-14 8.36078e-15 0.191576 -3.44444e-16 -2.05372e-16)
(6.09984e-15 0 -9.81534e-31 7.8556 -8.14833e-15 1.19093e-15 0.191576 -3.21771e-15 -9.29987e-16)
(-6.39991e-16 3.04685e-29 4.30335e-30 7.65626 1.59138e-14 8.10777e-15 0.18944 -3.8553e-16 -2.04754e-16)
(0 -2.70891e-29 -3.86986e-30 7.65626 -9.82698e-15 1.28374e-15 0.18944 -3.29094e-15 -9.3503e-16)
(0 -4.19584e-29 -6.6752e-30 7.46278 1.5453e-14 7.77073e-15 0.187348 -4.0661e-16 -1.98705e-16)
(1.24159e-14 4.19584e-29 6.6752e-30 7.46278 -8.71568e-15 1.38853e-15 0.187348 -3.38717e-15 -9.40699e-16)
(0 -7.51946e-30 -1.87986e-30 7.27501 1.46211e-14 7.47195e-15 0.185301 -3.73389e-16 -1.9361e-16)
(1.46387e-14 1.50389e-29 1.87986e-30 7.27501 -8.4067e-15 1.55966e-15 0.185301 -3.44165e-15 -9.45257e-16)
(-3.15681e-15 8.65512e-30 1.03044e-30 7.09278 1.46307e-14 7.16296e-15 0.183297 -3.75598e-16 -1.89109e-16)
(0 0 0 7.09278 -9.11842e-15 1.70007e-15 0.183297 -3.50389e-15 -9.49094e-16)
(-1.5914e-15 4.31527e-30 5.09445e-31 6.91594 1.4828e-14 6.78146e-15 0.181337 -3.84827e-16 -1.83107e-16)
(1.27312e-14 7.30546e-30 9.13182e-31 6.91594 -8.41204e-15 1.86112e-15 0.181337 -3.5775e-15 -9.52334e-16)
(1.60424e-15 -1.87025e-29 -2.30448e-30 6.74432 1.45951e-14 6.41956e-15 0.17942 -3.97079e-16 -1.74388e-16)
(0 1.44015e-29 1.80019e-30 6.74432 -9.05869e-15 1.76567e-15 0.17942 -3.63595e-15 -9.53287e-16)
(-1.61695e-15 4.29139e-30 4.98821e-31 6.57777 1.41437e-14 6.12623e-15 0.177544 -3.83551e-16 -1.68971e-16)
(0 7.09755e-30 0 6.57777 -9.33825e-15 2.46246e-46 0.177544 -3.71611e-15 -9.57505e-16)
(-1.62953e-15 1.82717e-29 2.24258e-30 6.41613 1.47726e-14 5.80943e-15 0.175711 -3.84033e-16 -1.63462e-16)
(6.51811e-15 -1.39916e-29 -1.74895e-30 6.41613 -8.22139e-15 -1.54215e-16 0.175711 -3.80261e-15 -9.72375e-16)
(-1.64197e-15 2.49469e-29 2.21274e-30 6.25926 1.46085e-14 5.48255e-15 0.173919 -4.29666e-16 -1.56351e-16)
(2.68603e-15 -1.37911e-29 -8.61944e-31 6.25926 -7.81171e-15 -1.21678e-16 0.173919 -3.87043e-15 -9.80119e-16)
(-3.30856e-15 1.53087e-29 9.6836e-31 6.10701 1.23585e-14 5.24324e-15 0.172167 -3.8605e-16 -1.49858e-16)
(0 -6.79672e-30 0 6.10701 -6.83796e-15 -5.30693e-17 0.172167 -3.93716e-15 -9.79565e-16)
(-1.66646e-15 1.76578e-29 2.99137e-30 5.95922 1.08159e-14 5.13807e-15 0.170455 -3.13816e-16 -1.4727e-16)
(-3.77137e-15 -6.69931e-30 -1.09111e-30 5.95922 -6.43052e-15 -4.33945e-18 0.170455 -3.99518e-15 -9.77065e-16)
(1.85866e-15 -6.60329e-30 -1.65082e-30 5.81577 1.07701e-14 5.11883e-15 0.168781 -3.08017e-16 -1.48156e-16)
(-8.57276e-15 1.32066e-29 2.47623e-30 5.81577 -6.64016e-15 -2.57067e-17 0.168781 -4.05963e-15 -9.74281e-16)
(1.69046e-15 -1.72592e-29 -2.09512e-30 5.6765 1.16252e-14 5.1019e-15 0.167146 -3.2032e-16 -1.50454e-16)
(6.76185e-15 1.30173e-29 1.62716e-30 5.6765 -6.46888e-15 -3.51933e-17 0.167146 -4.12872e-15 -9.71161e-16)
(1.70228e-15 -1.70551e-29 -2.06625e-30 5.54128 1.30238e-14 5.03304e-15 0.165548 -3.68009e-16 -1.51487e-16)
(-6.80913e-15 1.28307e-29 1.60384e-30 5.54128 -7.61564e-15 -6.67346e-17 0.165548 -4.21317e-15 -9.67932e-16)
(-5.27375e-15 1.05295e-29 2.03807e-30 5.40999 1.37449e-14 4.89845e-15 0.163986 -4.14288e-16 -1.50698e-16)
(6.85595e-15 0 0 5.40999 -7.85458e-15 -4.1174e-17 0.163986 -4.29516e-15 -9.64511e-16)
(0 1.24656e-29 1.5582e-30 5.28249 1.37127e-14 4.82545e-15 0.162461 -4.23037e-16 -1.47666e-16)
(0 -6.23278e-30 0 5.28249 -6.72206e-15 1.49173e-17 0.162461 -4.34476e-15 -9.59253e-16)
(-1.72923e-15 1.84303e-29 2.30379e-30 5.15866 1.33531e-14 4.81983e-15 0.16097 -4.2442e-16 -1.50568e-16)
(3.48977e-15 -6.14345e-30 -7.67931e-31 5.15866 -5.30591e-15 4.44334e-17 0.16097 -4.39585e-15 -9.53315e-16)
(3.45287e-15 -1.62824e-29 -1.95567e-30 5.03838 1.19891e-14 4.87122e-15 0.159513 -4.12716e-16 -1.51637e-16)
(-1.70444e-15 1.21108e-29 1.51385e-30 5.03838 -4.99591e-15 1.01873e-16 0.159513 -4.4516e-15 -9.47137e-16)
(0 5.96861e-30 2.9843e-30 4.92153 1.08447e-14 5.04812e-15 0.158089 -3.49458e-16 -1.58271e-16)
(-7.03878e-15 0 -1.49215e-30 4.92153 -5.49901e-15 9.17651e-17 0.158089 -4.51899e-15 -9.41006e-16)
(-1.65593e-15 0 7.35383e-31 4.808 1.05997e-14 5.18314e-15 0.156698 -3.50414e-16 -1.67578e-16)
(0 5.88306e-30 1.47077e-30 4.808 -4.82675e-15 5.97203e-17 0.156698 -4.56801e-15 -9.36383e-16)
(0 1.15975e-29 1.44969e-30 4.69768 1.0183e-14 5.30628e-15 0.155339 -3.43536e-16 -1.71812e-16)
(0 0 -7.24843e-31 4.69768 -4.37746e-15 4.92888e-17 0.155339 -4.60221e-15 -9.3175e-16)
(1.79288e-15 1.29999e-29 1.72834e-30 4.59047 1.0165e-14 5.41509e-15 0.154011 -3.32802e-16 -1.80726e-16)
(0 -1.71469e-29 -5.03607e-31 4.59047 -5.1217e-15 1.52888e-29 0.154011 -4.63987e-15 -9.2797e-16)
(1.80375e-15 7.13151e-30 1.00032e-30 4.48626 1.00799e-14 5.42278e-15 0.152713 -3.52373e-16 -1.8423e-16)
(0 0 -7.32347e-31 4.48626 -5.18827e-15 -1.49404e-17 0.152713 -4.69414e-15 -9.26094e-16)
(-3.62904e-15 8.26156e-30 1.49666e-30 4.38496 9.67029e-15 5.36969e-15 0.151444 -3.36694e-16 -1.86551e-16)
(7.25809e-15 0 -6.94121e-31 4.38496 -4.63137e-15 -4.78331e-17 0.151444 -4.73893e-15 -9.24274e-16)
(-1.8252e-15 -1.35223e-30 3.94803e-31 4.28646 1.02585e-14 5.23641e-15 0.150204 -3.34074e-16 -1.85917e-16)
(0 5.47338e-30 1.36834e-30 4.28646 -5.10594e-15 -4.4107e-17 0.150204 -4.78012e-15 -9.23234e-16)
(0 1.07899e-29 1.34873e-30 4.19068 1.09162e-14 5.10123e-15 0.148992 -3.88256e-16 -1.82568e-16)
(0 -5.39493e-30 -1.34873e-30 4.19068 -4.96679e-15 4.64663e-18 0.148992 -4.84519e-15 -9.20931e-16)
(0 1.06352e-29 2.6588e-30 4.09753 1.11529e-14 5.09739e-15 0.147808 -3.91157e-16 -1.81641e-16)
(0 0 -1.27576e-31 4.09753 -6.09407e-15 -7.04488e-30 0.147808 -4.89446e-15 -9.19279e-16)
(-2.95064e-15 2.09656e-29 1.96552e-30 4.00693 1.13948e-14 5.00567e-15 0.14665 -4.16896e-16 -1.87636e-16)
(0 -1.04828e-29 -6.55174e-31 4.00693 -7.57872e-15 -1.36188e-16 0.14665 -4.97254e-15 -9.20162e-16)
(0 1.03325e-29 1.29157e-30 3.91878 9.75329e-15 4.8825e-15 0.145518 -4.20528e-16 -1.80173e-16)
(1.2028e-14 0 -1.29157e-30 3.91878 -5.28227e-15 -5.5816e-17 0.145518 -5.05172e-15 -9.15718e-16)
(-3.75459e-15 8.15342e-30 7.2343e-31 3.83301 7.59635e-15 4.91258e-15 0.144411 -3.05828e-16 -1.83883e-16)
(7.50919e-15 0 0 3.83301 -4.18333e-15 -8.37704e-17 0.144411 -5.06317e-15 -9.10967e-16)
(4.71305e-15 -4.07708e-30 -1.60961e-30 3.74955 7.19915e-15 4.92856e-15 0.143329 -2.68506e-16 -1.87742e-16)
(0 5.01924e-30 1.25481e-30 3.74955 -4.52019e-15 8.46909e-18 0.143329 -5.11704e-15 -9.04871e-16)
(0 9.8946e-30 6.18413e-31 3.66831 7.33366e-15 5.00128e-15 0.142271 -2.84083e-16 -1.90505e-16)
(-7.59024e-15 0 -7.51434e-31 3.66831 -1.44215e-15 0 0.142271 -5.19287e-15 -8.95795e-16)
(-4.65274e-15 -1.54446e-29 -1.48865e-30 3.58924 8.13143e-15 5.0118e-15 0.141236 -2.8692e-16 -1.98945e-16)
(7.6303e-15 2.4382e-29 2.59311e-30 3.58924 2.97289e-16 -9.93176e-17 0.141236 -5.21413e-15 -8.89939e-16)
(0 9.61301e-30 1.20163e-30 3.51225 9.11657e-15 4.78021e-15 0.140223 -3.55879e-16 -1.96922e-16)
(0 0 -6.00813e-31 3.51225 -2.6879e-15 -1.87945e-16 0.140223 -5.22841e-15 -8.85168e-16)
(0 -1.42128e-29 -5.92202e-31 3.43728 8.71127e-15 4.44031e-15 0.139234 -3.74847e-16 -1.86079e-16)
(0 1.89505e-29 5.92202e-31 3.43728 -4.89981e-15 -1.57497e-16 0.139234 -5.27557e-15 -8.78464e-16)
(-1.93718e-15 4.02539e-30 9.08787e-31 3.36427 7.14493e-15 4.11578e-15 0.138265 -3.33112e-16 -1.74855e-16)
(0 0 -5.83714e-31 3.36427 -3.39255e-15 -1.9607e-16 0.138265 -5.34359e-15 -8.67417e-16)
(-1.30267e-15 -2.87661e-29 -3.96002e-30 3.29316 6.26325e-15 3.80068e-15 0.137318 -2.55686e-16 -1.64565e-16)
(1.55752e-14 3.68223e-29 4.60278e-30 3.29316 -1.91371e-15 -1.73807e-16 0.137318 -5.37208e-15 -8.56967e-16)
(-2.554e-15 1.36104e-29 1.1342e-30 3.22389 7.5571e-15 3.5653e-15 0.136391 -2.6855e-16 -1.53416e-16)
(0 -4.53681e-30 -5.67102e-31 3.22389 -3.53908e-15 -7.80881e-17 0.136391 -5.38255e-15 -8.3978e-16)
(0 8.94358e-30 1.67692e-30 3.15639 7.99672e-15 3.33904e-15 0.135484 -3.73826e-16 -1.49256e-16)
(-2.51739e-15 0 -5.58974e-31 3.15639 -4.76474e-15 -2.226e-16 0.135484 -5.45811e-15 -8.22468e-16)
(-5.92703e-15 -1.88689e-29 -2.91753e-30 3.09061 7.69717e-15 3.04524e-15 0.134597 -3.14559e-16 -1.38279e-16)
(1.58054e-14 3.52616e-29 4.4077e-30 3.09061 -2.83627e-15 -2.32185e-16 0.134597 -5.54378e-15 -8.03728e-16)
(0 -3.47562e-29 -3.80146e-30 3.02651 8.53684e-15 2.75893e-15 0.133728 -3.58408e-16 -1.27767e-16)
(1.58811e-14 3.47562e-29 3.80146e-30 3.02651 -3.3839e-15 -1.21706e-16 0.133728 -5.57594e-15 -7.82645e-16)
(-1.99453e-15 1.68092e-29 1.9156e-30 2.96403 9.4738e-15 2.59941e-15 0.132878 -3.9876e-16 -1.16761e-16)