/*--------------------------------*- C++ -*----------------------------------*\
| =========                 |                                                 |
| \\      /  F ield         | OpenFOAM: The Open Source CFD Toolbox           |
|  \\    /   O peration     | Version:  2106                                  |
|   \\  /    A nd           | Website:  www.openfoam.com                      |
|    \\/     M anipulation  |                                                 |
\*---------------------------------------------------------------------------*/
FoamFile
{
    version     2.0;
    format      ascii;
    arch        "LSB;label=32;scalar=64";
    class       volSymmTensorField;
    location    "6000";
    object      turbulenceProperties:R;
}
// * * * * * * * * * * * * * * * * * * * * * * * * * * * * * * * * * * * * * //

dimensions      [0 2 -2 0 0 0 0];

internalField   nonuniform List<symmTensor> 
2560
(
(2.88768e-07 -2.66654e-11 -3.86007e-14 2.88768e-07 9.09288e-26 2.88768e-07)
(2.88768e-07 -2.66654e-11 -3.86007e-14 2.88768e-07 -6.51214e-31 2.88768e-07)
(5.14342e-08 -2.72967e-11 -1.19123e-13 5.14342e-08 1.39118e-26 5.14342e-08)
(5.14342e-08 -2.72967e-11 -1.19123e-13 5.14342e-08 1.48759e-30 5.14342e-08)
(7.78322e-08 -1.21842e-10 -7.3137e-13 7.78322e-08 4.29846e-26 7.78322e-08)
(7.78322e-08 -1.21842e-10 -7.3137e-13 7.78322e-08 7.38167e-30 7.78322e-08)
(2.45676e-07 -8.15463e-10 -4.96603e-12 2.45676e-07 2.42074e-25 2.45676e-07)
(2.45676e-07 -8.15463e-10 -4.96603e-12 2.45676e-07 -8.44651e-29 2.45676e-07)
(6.32056e-07 -3.70078e-09 -2.28646e-11 6.32056e-07 1.36783e-24 6.32056e-07)
(6.32056e-07 -3.70078e-09 -2.28646e-11 6.32056e-07 -1.7915e-28 6.32056e-07)
(1.34835e-06 -1.24278e-08 -7.78981e-11 1.34835e-06 3.66309e-24 1.34835e-06)
(1.34835e-06 -1.24278e-08 -7.78981e-11 1.34835e-06 2.06283e-28 1.34835e-06)
(2.52717e-06 -3.39724e-08 -2.16034e-10 2.52717e-06 1.01449e-23 2.52717e-06)
(2.52717e-06 -3.39724e-08 -2.16034e-10 2.52717e-06 2.95279e-27 2.52717e-06)
(4.32068e-06 -8.02267e-08 -5.17579e-10 4.32068e-06 2.44405e-23 4.32068e-06)
(4.32068e-06 -8.02267e-08 -5.17579e-10 4.32068e-06 9.55281e-27 4.32068e-06)
(6.90069e-06 -1.69939e-07 -1.11227e-09 6.90069e-06 5.2786e-23 6.90069e-06)
(6.90069e-06 -1.69939e-07 -1.11227e-09 6.90069e-06 2.71701e-26 6.90069e-06)
(1.04591e-05 -3.31024e-07 -2.19804e-09 1.04591e-05 1.04543e-22 1.04591e-05)
(1.04591e-05 -3.31024e-07 -2.19804e-09 1.04591e-05 7.12975e-26 1.04591e-05)
(1.52085e-05 -6.03256e-07 -4.06379e-09 1.52085e-05 1.9364e-22 1.52085e-05)
(1.52085e-05 -6.03256e-07 -4.06379e-09 1.52085e-05 1.64105e-25 1.52085e-05)
(2.13827e-05 -1.04133e-06 -7.11649e-09 2.13827e-05 3.39527e-22 2.13827e-05)
(2.13827e-05 -1.04133e-06 -7.11649e-09 2.13827e-05 3.65831e-25 2.13827e-05)
(2.9237e-05 -1.71824e-06 -1.19125e-08 2.9237e-05 5.6849e-22 2.9237e-05)
(2.9237e-05 -1.71824e-06 -1.19125e-08 2.9237e-05 8.3083e-25 2.9237e-05)
(3.90478e-05 -2.72889e-06 -1.91928e-08 3.90478e-05 9.15097e-22 3.90478e-05)
(3.90478e-05 -2.72889e-06 -1.91928e-08 3.90478e-05 1.8483e-24 3.90478e-05)
(5.11125e-05 -4.19376e-06 -2.99212e-08 5.11125e-05 1.42339e-21 5.11125e-05)
(5.11125e-05 -4.19376e-06 -2.99212e-08 5.11125e-05 3.36756e-24 5.11125e-05)
(6.57481e-05 -6.2624e-06 -4.53237e-08 6.57481e-05 2.14759e-21 6.57481e-05)
(6.57481e-05 -6.2624e-06 -4.53237e-08 6.57481e-05 5.05325e-24 6.57481e-05)
(8.32886e-05 -9.11646e-06 -6.69272e-08 8.32886e-05 3.1518e-21 8.32886e-05)
(8.32886e-05 -9.11646e-06 -6.69272e-08 8.32886e-05 6.88414e-24 8.32886e-05)
(0.000104082 -1.29717e-05 -9.65932e-08 0.000104082 4.50925e-21 0.000104082)
(0.000104082 -1.29717e-05 -9.65932e-08 0.000104082 9.75519e-24 0.000104082)
(0.000128487 -1.80787e-05 -1.36542e-07 0.000128487 6.30242e-21 0.000128487)
(0.000128487 -1.80787e-05 -1.36542e-07 0.000128487 1.51433e-23 0.000128487)
(0.000156864 -2.47214e-05 -1.89364e-07 0.000156864 8.61331e-21 0.000156864)
(0.000156864 -2.47214e-05 -1.89364e-07 0.000156864 2.67113e-23 0.000156864)
(0.000189571 -3.32133e-05 -2.58009e-07 0.000189571 1.15189e-20 0.000189571)
(0.000189571 -3.32133e-05 -2.58009e-07 0.000189571 4.25073e-23 0.000189571)
(0.00022695 -4.38904e-05 -3.45747e-07 0.00022695 1.50739e-20 0.00022695)
(0.00022695 -4.38904e-05 -3.45747e-07 0.00022695 5.59048e-23 0.00022695)
(0.000269321 -5.7101e-05 -4.56107e-07 0.000269321 1.93129e-20 0.000269321)
(0.000269321 -5.7101e-05 -4.56107e-07 0.000269321 7.56706e-23 0.000269321)
(0.000316966 -7.3192e-05 -5.92771e-07 0.000316966 2.42498e-20 0.000316966)
(0.000316966 -7.3192e-05 -5.92771e-07 0.000316966 1.06995e-22 0.000316966)
(0.000370117 -9.24924e-05 -7.59448e-07 0.000370117 2.98292e-20 0.000370117)
(0.000370117 -9.24924e-05 -7.59448e-07 0.000370117 1.62104e-22 0.000370117)
(0.000428945 -0.000115295 -9.5971e-07 0.000428945 2.22027e-20 0.000428945)
(0.000428945 -0.000115295 -9.5971e-07 0.000428945 2.55879e-22 0.000428945)
(0.000493545 -0.000141837 -1.19682e-06 0.000493545 1.26944e-22 0.000493545)
(0.000493545 -0.000141837 -1.19682e-06 0.000493545 3.52393e-22 0.000493545)
(0.000563927 -0.000172283 -1.47356e-06 0.000563927 -5.55216e-21 0.000563927)
(0.000563927 -0.000172283 -1.47356e-06 0.000563927 4.01014e-22 0.000563927)
(0.000640006 -0.000206708 -1.79205e-06 0.000640006 -1.05338e-20 0.000640006)
(0.000640006 -0.000206708 -1.79205e-06 0.000640006 4.10336e-22 0.000640006)
(0.000721603 -0.00024509 -2.15365e-06 0.000721603 -1.72186e-20 0.000721603)
(0.000721603 -0.00024509 -2.15365e-06 0.000721603 4.62569e-22 0.000721603)
(0.000808438 -0.000287304 -2.55882e-06 0.000808438 -2.58578e-20 0.000808438)
(0.000808438 -0.000287304 -2.55882e-06 0.000808438 6.88604e-22 0.000808438)
(0.000900143 -0.000333124 -3.00717e-06 0.000900143 -3.66293e-20 0.000900143)
(0.000900143 -0.000333124 -3.00717e-06 0.000900143 1.09231e-21 0.000900143)
(0.000996263 -0.000382234 -3.49738e-06 0.000996263 -4.94987e-20 0.000996263)
(0.000996263 -0.000382234 -3.49738e-06 0.000996263 1.49835e-21 0.000996263)
(0.00109628 -0.000434243 -4.02737e-06 0.00109628 -6.43386e-20 0.00109628)
(0.00109628 -0.000434243 -4.02737e-06 0.00109628 3.4062e-21 0.00109628)
(0.0011996 -0.000488698 -4.59438e-06 0.0011996 -8.10042e-20 0.0011996)
(0.0011996 -0.000488698 -4.59438e-06 0.0011996 9.91962e-21 0.0011996)
(0.00130562 -0.000545112 -5.19512e-06 0.00130562 -8.3613e-20 0.00130562)
(0.00130562 -0.000545112 -5.19512e-06 0.00130562 1.66721e-20 0.00130562)
(0.00141371 -0.000602983 -5.82595e-06 0.00141371 -3.15018e-20 0.00141371)
(0.00141371 -0.000602983 -5.82595e-06 0.00141371 1.99205e-20 0.00141371)
(0.00152323 -0.000661809 -6.48301e-06 0.00152323 1.58196e-20 0.00152323)
(0.00152323 -0.000661809 -6.48301e-06 0.00152323 2.32872e-20 0.00152323)
(0.00163355 -0.000721109 -7.16244e-06 0.00163355 8.38035e-21 0.00163355)
(0.00163355 -0.000721109 -7.16244e-06 0.00163355 2.70227e-20 0.00163355)
(0.00174409 -0.000780436 -7.86042e-06 0.00174409 1.25098e-21 0.00174409)
(0.00174409 -0.000780436 -7.86042e-06 0.00174409 3.10413e-20 0.00174409)
(0.00185428 -0.000839386 -8.57334e-06 0.00185428 -6.29553e-21 0.00185428)
(0.00185428 -0.000839386 -8.57334e-06 0.00185428 3.52744e-20 0.00185428)
(0.00196363 -0.000897603 -9.29787e-06 0.00196363 -1.41177e-20 0.00196363)
(0.00196363 -0.000897603 -9.29787e-06 0.00196363 3.96294e-20 0.00196363)
(0.00207166 -0.000954779 -1.0031e-05 0.00207166 -2.08904e-20 0.00207166)
(0.00207166 -0.000954779 -1.0031e-05 0.00207166 4.46138e-20 0.00207166)
(0.00217798 -0.00101066 -1.07699e-05 0.00217798 -2.69973e-20 0.00217798)
(0.00217798 -0.00101066 -1.07699e-05 0.00217798 5.03999e-20 0.00217798)
(0.00228225 -0.00106504 -1.15125e-05 0.00228225 -3.29583e-20 0.00228225)
(0.00228225 -0.00106504 -1.15125e-05 0.00228225 5.69327e-20 0.00228225)
(0.00238416 -0.00111777 -1.22565e-05 0.00238416 -3.85654e-20 0.00238416)
(0.00238416 -0.00111777 -1.22565e-05 0.00238416 6.3626e-20 0.00238416)
(0.00248348 -0.00116871 -1.30004e-05 0.00248348 -4.23017e-20 0.00248348)
(0.00248348 -0.00116871 -1.30004e-05 0.00248348 6.93285e-20 0.00248348)
(0.00258001 -0.00121779 -1.37428e-05 0.00258001 -4.48914e-20 0.00258001)
(0.00258001 -0.00121779 -1.37428e-05 0.00258001 7.55333e-20 0.00258001)
(0.0026736 -0.00126494 -1.44825e-05 0.0026736 -4.86436e-20 0.0026736)
(0.0026736 -0.00126494 -1.44825e-05 0.0026736 8.29002e-20 0.0026736)
(0.00276415 -0.00131016 -1.52188e-05 0.00276415 -4.86647e-20 0.00276415)
(0.00276415 -0.00131016 -1.52188e-05 0.00276415 9.02163e-20 0.00276415)
(0.00285156 -0.00135343 -1.59509e-05 0.00285156 -4.55026e-20 0.00285156)
(0.00285156 -0.00135343 -1.59509e-05 0.00285156 9.854e-20 0.00285156)
(0.00293581 -0.00139476 -1.66784e-05 0.00293581 -4.32705e-20 0.00293581)
(0.00293581 -0.00139476 -1.66784e-05 0.00293581 1.06557e-19 0.00293581)
(0.00301687 -0.00143418 -1.74009e-05 0.00301687 -4.05751e-20 0.00301687)
(0.00301687 -0.00143418 -1.74009e-05 0.00301687 1.15171e-19 0.00301687)
(0.00309474 -0.00147173 -1.81183e-05 0.00309474 -3.66846e-20 0.00309474)
(0.00309474 -0.00147173 -1.81183e-05 0.00309474 1.26356e-19 0.00309474)
(0.00316944 -0.00150746 -1.88305e-05 0.00316944 -3.22925e-20 0.00316944)
(0.00316944 -0.00150746 -1.88305e-05 0.00316944 1.35091e-19 0.00316944)
(0.00324102 -0.00154142 -1.95374e-05 0.00324102 -2.60336e-20 0.00324102)
(0.00324102 -0.00154142 -1.95374e-05 0.00324102 1.38778e-19 0.00324102)
(0.00330953 -0.00157366 -2.02392e-05 0.00330953 -1.8731e-20 0.00330953)
(0.00330953 -0.00157366 -2.02392e-05 0.00330953 1.46214e-19 0.00330953)
(0.00337502 -0.00160425 -2.0936e-05 0.00337502 -9.27347e-21 0.00337502)
(0.00337502 -0.00160425 -2.0936e-05 0.00337502 1.59757e-19 0.00337502)
(0.00343756 -0.00163325 -2.16279e-05 0.00343756 1.43868e-21 0.00343756)
(0.00343756 -0.00163325 -2.16279e-05 0.00343756 1.71888e-19 0.00343756)
(0.00349724 -0.00166073 -2.23152e-05 0.00349724 1.24587e-20 0.00349724)
(0.00349724 -0.00166073 -2.23152e-05 0.00349724 1.83391e-19 0.00349724)
(0.00355413 -0.00168673 -2.29981e-05 0.00355413 2.60005e-20 0.00355413)
(0.00355413 -0.00168673 -2.29981e-05 0.00355413 1.9258e-19 0.00355413)
(0.0036083 -0.00171133 -2.36769e-05 0.0036083 3.99767e-20 0.0036083)
(0.0036083 -0.00171133 -2.36769e-05 0.0036083 2.07187e-19 0.0036083)
(0.00365986 -0.00173459 -2.43518e-05 0.00365986 5.33384e-20 0.00365986)
(0.00365986 -0.00173459 -2.43518e-05 0.00365986 2.25332e-19 0.00365986)
(0.00370887 -0.00175655 -2.50231e-05 0.00370887 6.99138e-20 0.00370887)
(0.00370887 -0.00175655 -2.50231e-05 0.00370887 2.36553e-19 0.00370887)
(0.00375543 -0.00177729 -2.56911e-05 0.00375543 8.26701e-20 0.00375543)
(0.00375543 -0.00177729 -2.56911e-05 0.00375543 2.4575e-19 0.00375543)
(0.00379963 -0.00179685 -2.63561e-05 0.00379963 9.57856e-20 0.00379963)
(0.00379963 -0.00179685 -2.63561e-05 0.00379963 2.57902e-19 0.00379963)
(0.00384154 -0.00181529 -2.70183e-05 0.00384154 1.13479e-19 0.00384154)
(0.00384154 -0.00181529 -2.70183e-05 0.00384154 2.76127e-19 0.00384154)
(0.00388124 -0.00183265 -2.7678e-05 0.00388124 1.2394e-19 0.00388124)
(0.00388124 -0.00183265 -2.7678e-05 0.00388124 2.92837e-19 0.00388124)
(0.00391882 -0.00184899 -2.83356e-05 0.00391882 1.54242e-19 0.00391882)
(0.00391882 -0.00184899 -2.83356e-05 0.00391882 3.10759e-19 0.00391882)
(0.00395436 -0.00186435 -2.89911e-05 0.00395436 1.80591e-19 0.00395436)
(0.00395436 -0.00186435 -2.89911e-05 0.00395436 3.23746e-19 0.00395436)
(0.00398794 -0.00187878 -2.9645e-05 0.00398794 1.913e-19 0.00398794)
(0.00398794 -0.00187878 -2.9645e-05 0.00398794 3.39356e-19 0.00398794)
(0.00401961 -0.00189231 -3.02974e-05 0.00401961 2.10911e-19 0.00401961)
(0.00401961 -0.00189231 -3.02974e-05 0.00401961 3.66148e-19 0.00401961)
(0.00404947 -0.00190498 -3.09486e-05 0.00404947 2.3311e-19 0.00404947)
(0.00404947 -0.00190498 -3.09486e-05 0.00404947 3.86073e-19 0.00404947)
(0.00407757 -0.00191684 -3.15989e-05 0.00407757 2.57498e-19 0.00407757)
(0.00407757 -0.00191684 -3.15989e-05 0.00407757 4.02992e-19 0.00407757)
(0.00410398 -0.00192791 -3.22483e-05 0.00410398 2.80193e-19 0.00410398)
(0.00410398 -0.00192791 -3.22483e-05 0.00410398 4.22841e-19 0.00410398)
(0.00412877 -0.00193824 -3.28973e-05 0.00412877 2.98338e-19 0.00412877)
(0.00412877 -0.00193824 -3.28973e-05 0.00412877 4.4647e-19 0.00412877)
(0.00415199 -0.00194785 -3.35458e-05 0.00415199 3.15005e-19 0.00415199)
(0.00415199 -0.00194785 -3.35458e-05 0.00415199 4.69083e-19 0.00415199)
(0.00417371 -0.00195677 -3.41943e-05 0.00417371 3.37598e-19 0.00417371)
(0.00417371 -0.00195677 -3.41943e-05 0.00417371 4.97579e-19 0.00417371)
(0.00419398 -0.00196504 -3.48427e-05 0.00419398 3.71757e-19 0.00419398)
(0.00419398 -0.00196504 -3.48427e-05 0.00419398 5.34259e-19 0.00419398)
(0.00421286 -0.00197267 -3.54914e-05 0.00421286 3.96312e-19 0.00421286)
(0.00421286 -0.00197267 -3.54914e-05 0.00421286 5.34077e-19 0.00421286)
(0.00423039 -0.0019797 -3.61405e-05 0.00423039 4.04265e-19 0.00423039)
(0.00423039 -0.0019797 -3.61405e-05 0.00423039 5.42259e-19 0.00423039)
(0.00424663 -0.00198615 -3.67901e-05 0.00424663 4.38633e-19 0.00424663)
(0.00424663 -0.00198615 -3.67901e-05 0.00424663 6.10324e-19 0.00424663)
(0.00426163 -0.00199205 -3.74404e-05 0.00426163 4.78274e-19 0.00426163)
(0.00426163 -0.00199205 -3.74404e-05 0.00426163 6.6188e-19 0.00426163)
(0.00427542 -0.0019974 -3.80916e-05 0.00427542 5.01806e-19 0.00427542)
(0.00427542 -0.0019974 -3.80916e-05 0.00427542 6.74942e-19 0.00427542)
(0.00428806 -0.00200225 -3.87437e-05 0.00428806 5.13603e-19 0.00428806)
(0.00428806 -0.00200225 -3.87437e-05 0.00428806 6.83945e-19 0.00428806)
(0.00429959 -0.0020066 -3.93969e-05 0.00429959 5.36425e-19 0.00429959)
(0.00429959 -0.0020066 -3.93969e-05 0.00429959 6.94533e-19 0.00429959)
(0.00431003 -0.00201047 -4.00515e-05 0.00431003 5.57938e-19 0.00431003)
(0.00431003 -0.00201047 -4.00515e-05 0.00431003 7.46058e-19 0.00431003)
(0.00431944 -0.00201389 -4.07073e-05 0.00431944 5.88579e-19 0.00431944)
(0.00431944 -0.00201389 -4.07073e-05 0.00431944 8.11435e-19 0.00431944)
(0.00432785 -0.00201687 -4.13647e-05 0.00432785 6.29489e-19 0.00432785)
(0.00432785 -0.00201687 -4.13647e-05 0.00432785 8.26781e-19 0.00432785)
(0.00433529 -0.00201943 -4.20236e-05 0.00433529 6.75953e-19 0.00433529)
(0.00433529 -0.00201943 -4.20236e-05 0.00433529 8.39416e-19 0.00433529)
(0.0043418 -0.00202157 -4.26843e-05 0.0043418 7.35577e-19 0.0043418)
(0.0043418 -0.00202157 -4.26843e-05 0.0043418 8.85895e-19 0.0043418)
(0.00434741 -0.00202332 -4.33467e-05 0.00434741 7.38216e-19 0.00434741)
(0.00434741 -0.00202332 -4.33467e-05 0.00434741 9.33939e-19 0.00434741)
(0.00435214 -0.0020247 -4.4011e-05 0.00435214 7.63648e-19 0.00435214)
(0.00435214 -0.0020247 -4.4011e-05 0.00435214 9.44139e-19 0.00435214)
(0.00435604 -0.0020257 -4.46773e-05 0.00435604 8.21625e-19 0.00435604)
(0.00435604 -0.0020257 -4.46773e-05 0.00435604 9.76442e-19 0.00435604)
(0.00435912 -0.00202636 -4.53457e-05 0.00435912 8.4671e-19 0.00435912)
(0.00435912 -0.00202636 -4.53457e-05 0.00435912 1.04197e-18 0.00435912)
(0.00436141 -0.00202667 -4.60162e-05 0.00436141 9.04145e-19 0.00436141)
(0.00436141 -0.00202667 -4.60162e-05 0.00436141 1.09838e-18 0.00436141)
(0.00436295 -0.00202665 -4.6689e-05 0.00436295 9.85012e-19 0.00436295)
(0.00436295 -0.00202665 -4.6689e-05 0.00436295 1.09594e-18 0.00436295)
(0.00436375 -0.00202632 -4.7364e-05 0.00436375 9.93769e-19 0.00436375)
(0.00436375 -0.00202632 -4.7364e-05 0.00436375 1.07068e-18 0.00436375)
(0.00436383 -0.00202568 -4.80414e-05 0.00436383 1.01247e-18 0.00436383)
(0.00436383 -0.00202568 -4.80414e-05 0.00436383 1.1099e-18 0.00436383)
(0.00436323 -0.00202474 -4.87213e-05 0.00436323 1.06009e-18 0.00436323)
(0.00436323 -0.00202474 -4.87213e-05 0.00436323 1.15842e-18 0.00436323)
(0.00436196 -0.00202351 -4.94036e-05 0.00436196 1.13404e-18 0.00436196)
(0.00436196 -0.00202351 -4.94036e-05 0.00436196 1.19398e-18 0.00436196)
(0.00436004 -0.00202201 -5.00885e-05 0.00436004 1.17969e-18 0.00436004)
(0.00436004 -0.00202201 -5.00885e-05 0.00436004 1.25789e-18 0.00436004)
(0.0043575 -0.00202024 -5.0776e-05 0.0043575 1.17344e-18 0.0043575)
(0.0043575 -0.00202024 -5.0776e-05 0.0043575 1.29727e-18 0.0043575)
(0.00435434 -0.0020182 -5.14661e-05 0.00435434 1.24555e-18 0.00435434)
(0.00435434 -0.0020182 -5.14661e-05 0.00435434 1.2998e-18 0.00435434)
(0.00435061 -0.00201592 -5.2159e-05 0.00435061 1.3021e-18 0.00435061)
(0.00435061 -0.00201592 -5.2159e-05 0.00435061 1.38218e-18 0.00435061)
(0.0043463 -0.00201339 -5.28547e-05 0.0043463 1.30172e-18 0.0043463)
(0.0043463 -0.00201339 -5.28547e-05 0.0043463 1.43472e-18 0.0043463)
(0.00434143 -0.00201062 -5.35531e-05 0.00434143 1.36426e-18 0.00434143)
(0.00434143 -0.00201062 -5.35531e-05 0.00434143 1.41507e-18 0.00434143)
(0.00433603 -0.00200763 -5.42544e-05 0.00433603 1.44597e-18 0.00433603)
(0.00433603 -0.00200763 -5.42544e-05 0.00433603 1.52292e-18 0.00433603)
(0.00433011 -0.00200441 -5.49586e-05 0.00433011 1.51755e-18 0.00433011)
(0.00433011 -0.00200441 -5.49586e-05 0.00433011 1.64752e-18 0.00433011)
(0.00432369 -0.00200098 -5.56657e-05 0.00432369 1.56858e-18 0.00432369)
(0.00432369 -0.00200098 -5.56657e-05 0.00432369 1.64803e-18 0.00432369)
(0.00431678 -0.00199734 -5.63758e-05 0.00431678 1.60303e-18 0.00431678)
(0.00431678 -0.00199734 -5.63758e-05 0.00431678 1.66621e-18 0.00431678)
(0.00430939 -0.0019935 -5.70888e-05 0.00430939 1.62576e-18 0.00430939)
(0.00430939 -0.0019935 -5.70888e-05 0.00430939 1.73175e-18 0.00430939)
(0.00430154 -0.00198946 -5.78049e-05 0.00430154 1.62065e-18 0.00430154)
(0.00430154 -0.00198946 -5.78049e-05 0.00430154 1.8391e-18 0.00430154)
(0.00429324 -0.00198523 -5.85241e-05 0.00429324 1.66404e-18 0.00429324)
(0.00429324 -0.00198523 -5.85241e-05 0.00429324 1.89699e-18 0.00429324)
(0.0042845 -0.00198082 -5.92464e-05 0.0042845 1.80132e-18 0.0042845)
(0.0042845 -0.00198082 -5.92464e-05 0.0042845 1.94714e-18 0.0042845)
(0.00427535 -0.00197623 -5.99717e-05 0.00427535 1.87151e-18 0.00427535)
(0.00427535 -0.00197623 -5.99717e-05 0.00427535 2.04731e-18 0.00427535)
(0.00426578 -0.00197147 -6.07002e-05 0.00426578 1.92794e-18 0.00426578)
(0.00426578 -0.00197147 -6.07002e-05 0.00426578 2.11594e-18 0.00426578)
(0.00425581 -0.00196654 -6.14319e-05 0.00425581 1.95435e-18 0.00425581)
(0.00425581 -0.00196654 -6.14319e-05 0.00425581 2.14926e-18 0.00425581)
(0.00424546 -0.00196144 -6.21667e-05 0.00424546 1.95516e-18 0.00424546)
(0.00424546 -0.00196144 -6.21667e-05 0.00424546 2.16559e-18 0.00424546)
(0.00423473 -0.00195619 -6.29048e-05 0.00423473 2.11387e-18 0.00423473)
(0.00423473 -0.00195619 -6.29048e-05 0.00423473 2.25672e-18 0.00423473)
(0.00422364 -0.00195078 -6.3646e-05 0.00422364 2.1393e-18 0.00422364)
(0.00422364 -0.00195078 -6.3646e-05 0.00422364 2.37056e-18 0.00422364)
(0.00421219 -0.00194523 -6.43905e-05 0.00421219 2.12329e-18 0.00421219)
(0.00421219 -0.00194523 -6.43905e-05 0.00421219 2.45746e-18 0.00421219)
(0.0042004 -0.00193953 -6.51383e-05 0.0042004 2.19091e-18 0.0042004)
(0.0042004 -0.00193953 -6.51383e-05 0.0042004 2.47583e-18 0.0042004)
(0.00418827 -0.00193369 -6.58893e-05 0.00418827 2.30494e-18 0.00418827)
(0.00418827 -0.00193369 -6.58893e-05 0.00418827 2.57343e-18 0.00418827)
(0.00417581 -0.00192771 -6.66436e-05 0.00417581 2.39486e-18 0.00417581)
(0.00417581 -0.00192771 -6.66436e-05 0.00417581 2.70707e-18 0.00417581)
(0.00416304 -0.0019216 -6.74012e-05 0.00416304 2.36489e-18 0.00416304)
(0.00416304 -0.0019216 -6.74012e-05 0.00416304 2.76473e-18 0.00416304)
(0.00414996 -0.00191536 -6.8162e-05 0.00414996 2.37377e-18 0.00414996)
(0.00414996 -0.00191536 -6.8162e-05 0.00414996 2.79752e-18 0.00414996)
(0.00413659 -0.001909 -6.89262e-05 0.00413659 2.56308e-18 0.00413659)
(0.00413659 -0.001909 -6.89262e-05 0.00413659 2.87221e-18 0.00413659)
(0.00412292 -0.00190252 -6.96937e-05 0.00412292 2.70863e-18 0.00412292)
(0.00412292 -0.00190252 -6.96937e-05 0.00412292 3.12461e-18 0.00412292)
(0.00410897 -0.00189592 -7.04645e-05 0.00410897 2.73706e-18 0.00410897)
(0.00410897 -0.00189592 -7.04645e-05 0.00410897 3.29213e-18 0.00410897)
(0.00409475 -0.00188921 -7.12386e-05 0.00409475 2.74684e-18 0.00409475)
(0.00409475 -0.00188921 -7.12386e-05 0.00409475 3.16432e-18 0.00409475)
(0.00408026 -0.00188239 -7.20161e-05 0.00408026 2.82673e-18 0.00408026)
(0.00408026 -0.00188239 -7.20161e-05 0.00408026 3.06809e-18 0.00408026)
(0.00406551 -0.00187546 -7.27969e-05 0.00406551 2.98254e-18 0.00406551)
(0.00406551 -0.00187546 -7.27969e-05 0.00406551 3.32566e-18 0.00406551)
(0.00405051 -0.00186843 -7.3581e-05 0.00405051 3.06219e-18 0.00405051)
(0.00405051 -0.00186843 -7.3581e-05 0.00405051 3.55097e-18 0.00405051)
(0.00403527 -0.0018613 -7.43684e-05 0.00403527 3.10396e-18 0.00403527)
(0.00403527 -0.0018613 -7.43684e-05 0.00403527 3.49189e-18 0.00403527)
(0.00401979 -0.00185407 -7.51592e-05 0.00401979 3.21827e-18 0.00401979)
(0.00401979 -0.00185407 -7.51592e-05 0.00401979 3.56933e-18 0.00401979)
(0.00400408 -0.00184675 -7.59533e-05 0.00400408 3.14266e-18 0.00400408)
(0.00400408 -0.00184675 -7.59533e-05 0.00400408 3.85351e-18 0.00400408)
(0.00398815 -0.00183933 -7.67507e-05 0.00398815 3.15619e-18 0.00398815)
(0.00398815 -0.00183933 -7.67507e-05 0.00398815 3.84348e-18 0.00398815)
(0.003972 -0.00183183 -7.75514e-05 0.003972 3.5429e-18 0.003972)
(0.003972 -0.00183183 -7.75514e-05 0.003972 3.73012e-18 0.003972)
(0.00395565 -0.00182424 -7.83555e-05 0.00395565 3.64386e-18 0.00395565)
(0.00395565 -0.00182424 -7.83555e-05 0.00395565 4.08941e-18 0.00395565)
(0.00393909 -0.00181657 -7.91629e-05 0.00393909 3.40459e-18 0.00393909)
(0.00393909 -0.00181657 -7.91629e-05 0.00393909 4.40465e-18 0.00393909)
(0.00392233 -0.00180882 -7.99735e-05 0.00392233 3.53379e-18 0.00392233)
(0.00392233 -0.00180882 -7.99735e-05 0.00392233 4.28159e-18 0.00392233)
(0.00390538 -0.001801 -8.07875e-05 0.00390538 3.68208e-18 0.00390538)
(0.00390538 -0.001801 -8.07875e-05 0.00390538 4.38426e-18 0.00390538)
(0.00388824 -0.0017931 -8.16048e-05 0.00388824 3.70692e-18 0.00388824)
(0.00388824 -0.0017931 -8.16048e-05 0.00388824 4.68709e-18 0.00388824)
(0.00387093 -0.00178512 -8.24253e-05 0.00387093 3.8075e-18 0.00387093)
(0.00387093 -0.00178512 -8.24253e-05 0.00387093 4.73554e-18 0.00387093)
(0.00385344 -0.00177708 -8.32492e-05 0.00385344 3.78403e-18 0.00385344)
(0.00385344 -0.00177708 -8.32492e-05 0.00385344 4.84377e-18 0.00385344)
(0.00383578 -0.00176897 -8.40762e-05 0.00383578 4.07223e-18 0.00383578)
(0.00383578 -0.00176897 -8.40762e-05 0.00383578 4.98255e-18 0.00383578)
(0.00381796 -0.00176079 -8.49066e-05 0.00381796 4.09468e-18 0.00381796)
(0.00381796 -0.00176079 -8.49066e-05 0.00381796 5.16571e-18 0.00381796)
(0.00379998 -0.00175255 -8.57401e-05 0.00379998 3.99214e-18 0.00379998)
(0.00379998 -0.00175255 -8.57401e-05 0.00379998 5.32867e-18 0.00379998)
(0.00378185 -0.00174425 -8.65769e-05 0.00378185 4.03877e-18 0.00378185)
(0.00378185 -0.00174425 -8.65769e-05 0.00378185 5.49105e-18 0.00378185)
(0.00376357 -0.0017359 -8.74169e-05 0.00376357 4.0603e-18 0.00376357)
(0.00376357 -0.0017359 -8.74169e-05 0.00376357 5.74249e-18 0.00376357)
(0.00374515 -0.00172748 -8.82601e-05 0.00374515 4.25946e-18 0.00374515)
(0.00374515 -0.00172748 -8.82601e-05 0.00374515 5.69519e-18 0.00374515)
(0.00372659 -0.00171902 -8.91064e-05 0.00372659 4.73486e-18 0.00372659)
(0.00372659 -0.00171902 -8.91064e-05 0.00372659 5.68147e-18 0.00372659)
(0.0037079 -0.0017105 -8.99559e-05 0.0037079 4.85365e-18 0.0037079)
(0.0037079 -0.0017105 -8.99559e-05 0.0037079 5.72488e-18 0.0037079)
(0.00368908 -0.00170193 -9.08086e-05 0.00368908 4.59546e-18 0.00368908)
(0.00368908 -0.00170193 -9.08086e-05 0.00368908 5.95586e-18 0.00368908)
(0.00367013 -0.00169331 -9.16644e-05 0.00367013 4.68686e-18 0.00367013)
(0.00367013 -0.00169331 -9.16644e-05 0.00367013 6.57741e-18 0.00367013)
(0.00365107 -0.00168465 -9.25232e-05 0.00365107 4.8872e-18 0.00365107)
(0.00365107 -0.00168465 -9.25232e-05 0.00365107 6.75445e-18 0.00365107)
(0.0036319 -0.00167594 -9.33852e-05 0.0036319 5.28983e-18 0.0036319)
(0.0036319 -0.00167594 -9.33852e-05 0.0036319 6.45061e-18 0.0036319)
(0.00361261 -0.00166719 -9.42502e-05 0.00361261 5.71563e-18 0.00361261)
(0.00361261 -0.00166719 -9.42502e-05 0.00361261 6.64738e-18 0.00361261)
(0.00359322 -0.0016584 -9.51182e-05 0.00359322 5.92681e-18 0.00359322)
(0.00359322 -0.0016584 -9.51182e-05 0.00359322 7.3927e-18 0.00359322)
(0.00357372 -0.00164957 -9.59893e-05 0.00357372 5.70221e-18 0.00357372)
(0.00357372 -0.00164957 -9.59893e-05 0.00357372 7.1856e-18 0.00357372)
(0.00355413 -0.00164071 -9.68633e-05 0.00355413 5.53641e-18 0.00355413)
(0.00355413 -0.00164071 -9.68633e-05 0.00355413 7.42896e-18 0.00355413)
(0.00353444 -0.00163181 -9.77403e-05 0.00353444 6.18133e-18 0.00353444)
(0.00353444 -0.00163181 -9.77403e-05 0.00353444 8.0079e-18 0.00353444)
(0.00351467 -0.00162288 -9.86202e-05 0.00351467 6.08574e-18 0.00351467)
(0.00351467 -0.00162288 -9.86202e-05 0.00351467 7.88625e-18 0.00351467)
(0.00349481 -0.00161391 -9.9503e-05 0.00349481 5.6989e-18 0.00349481)
(0.00349481 -0.00161391 -9.9503e-05 0.00349481 8.18957e-18 0.00349481)
(0.00347486 -0.00160492 -0.000100389 0.00347486 6.3071e-18 0.00347486)
(0.00347486 -0.00160492 -0.000100389 0.00347486 8.49918e-18 0.00347486)
(0.00345484 -0.00159589 -0.000101277 0.00345484 6.47601e-18 0.00345484)
(0.00345484 -0.00159589 -0.000101277 0.00345484 8.58925e-18 0.00345484)
(0.00343475 -0.00158684 -0.000102169 0.00343475 6.40306e-18 0.00343475)
(0.00343475 -0.00158684 -0.000102169 0.00343475 8.96192e-18 0.00343475)
(0.00341458 -0.00157776 -0.000103063 0.00341458 6.633e-18 0.00341458)
(0.00341458 -0.00157776 -0.000103063 0.00341458 9.24016e-18 0.00341458)
(0.00339435 -0.00156866 -0.00010396 0.00339435 6.62174e-18 0.00339435)
(0.00339435 -0.00156866 -0.00010396 0.00339435 8.37711e-18 0.00339435)
(0.00337405 -0.00155954 -0.000104859 0.00337405 6.93254e-18 0.00337405)
(0.00337405 -0.00155954 -0.000104859 0.00337405 5.37962e-18 0.00337405)
(0.00335369 -0.00155039 -0.000105761 0.00335369 7.80191e-18 0.00335369)
(0.00335369 -0.00155039 -0.000105761 0.00335369 3.11617e-18 0.00335369)
(0.00333328 -0.00154123 -0.000106666 0.00333328 7.46109e-18 0.00333328)
(0.00333328 -0.00154123 -0.000106666 0.00333328 3.36899e-18 0.00333328)
(0.00331281 -0.00153204 -0.000107574 0.00331281 7.09754e-18 0.00331281)
(0.00331281 -0.00153204 -0.000107574 0.00331281 3.67845e-18 0.00331281)
(0.00329229 -0.00152284 -0.000108484 0.00329229 7.61767e-18 0.00329229)
(0.00329229 -0.00152284 -0.000108484 0.00329229 3.53978e-18 0.00329229)
(0.00327172 -0.00151362 -0.000109396 0.00327172 2.79799e-18 0.00327172)
(0.00327172 -0.00151362 -0.000109396 0.00327172 3.52716e-18 0.00327172)
(0.00325111 -0.00150439 -0.000110311 0.00325111 3.36531e-19 0.00325111)
(0.00325111 -0.00150439 -0.000110311 0.00325111 3.30651e-18 0.00325111)
(0.00323046 -0.00149514 -0.000111228 0.00323046 2.51742e-19 0.00323046)
(0.00323046 -0.00149514 -0.000111228 0.00323046 3.01004e-18 0.00323046)
(0.00320976 -0.00148588 -0.000112148 0.00320976 1.02321e-18 0.00320976)
(0.00320976 -0.00148588 -0.000112148 0.00320976 3.33702e-18 0.00320976)
(0.00318904 -0.00147661 -0.00011307 0.00318904 1.32719e-18 0.00318904)
(0.00318904 -0.00147661 -0.00011307 0.00318904 3.91252e-18 0.00318904)
(0.00316827 -0.00146733 -0.000113994 0.00316827 9.31805e-19 0.00316827)
(0.00316827 -0.00146733 -0.000113994 0.00316827 4.31431e-18 0.00316827)
(0.00314748 -0.00145804 -0.000114921 0.00314748 4.56323e-19 0.00314748)
(0.00314748 -0.00145804 -0.000114921 0.00314748 4.52587e-18 0.00314748)
(0.00312666 -0.00144875 -0.000115849 0.00312666 5.58998e-19 0.00312666)
(0.00312666 -0.00144875 -0.000115849 0.00312666 4.23022e-18 0.00312666)
(0.00310582 -0.00143944 -0.00011678 0.00310582 7.73977e-19 0.00310582)
(0.00310582 -0.00143944 -0.00011678 0.00310582 4.23982e-18 0.00310582)
(0.00308495 -0.00143013 -0.000117712 0.00308495 1.0638e-18 0.00308495)
(0.00308495 -0.00143013 -0.000117712 0.00308495 4.80038e-18 0.00308495)
(0.00306407 -0.00142081 -0.000118647 0.00306407 1.381e-18 0.00306407)
(0.00306407 -0.00142081 -0.000118647 0.00306407 5.14134e-18 0.00306407)
(0.00304316 -0.00141149 -0.000119583 0.00304316 7.71396e-19 0.00304316)
(0.00304316 -0.00141149 -0.000119583 0.00304316 5.24882e-18 0.00304316)
(0.00302224 -0.00140216 -0.000120521 0.00302224 7.15183e-19 0.00302224)
(0.00302224 -0.00140216 -0.000120521 0.00302224 5.35386e-18 0.00302224)
(0.00300131 -0.00139284 -0.000121461 0.00300131 6.21372e-19 0.00300131)
(0.00300131 -0.00139284 -0.000121461 0.00300131 5.6011e-18 0.00300131)
(0.00298037 -0.00138351 -0.000122403 0.00298037 4.87739e-19 0.00298037)
(0.00298037 -0.00138351 -0.000122403 0.00298037 6.01456e-18 0.00298037)
(0.00295942 -0.00137418 -0.000123346 0.00295942 9.85415e-19 0.00295942)
(0.00295942 -0.00137418 -0.000123346 0.00295942 6.68795e-18 0.00295942)
(0.00293846 -0.00136484 -0.000124291 0.00293846 1.42773e-18 0.00293846)
(0.00293846 -0.00136484 -0.000124291 0.00293846 7.28931e-18 0.00293846)
(0.0029175 -0.00135551 -0.000125237 0.0029175 9.66171e-19 0.0029175)
(0.0029175 -0.00135551 -0.000125237 0.0029175 7.51931e-18 0.0029175)
(0.00289654 -0.00134618 -0.000126184 0.00289654 5.73817e-19 0.00289654)
(0.00289654 -0.00134618 -0.000126184 0.00289654 7.72429e-18 0.00289654)
(0.00287557 -0.00133686 -0.000127132 0.00287557 2.03492e-19 0.00287557)
(0.00287557 -0.00133686 -0.000127132 0.00287557 8.38806e-18 0.00287557)
(0.00285461 -0.00132753 -0.000128082 0.00285461 -1.0316e-18 0.00285461)
(0.00285461 -0.00132753 -0.000128082 0.00285461 8.26245e-18 0.00285461)
(0.00283365 -0.00131821 -0.000129032 0.00283365 -4.46658e-19 0.00283365)
(0.00283365 -0.00131821 -0.000129032 0.00283365 7.31217e-18 0.00283365)
(0.00281269 -0.00130889 -0.000129984 0.00281269 2.4399e-19 0.00281269)
(0.00281269 -0.00130889 -0.000129984 0.00281269 7.96944e-18 0.00281269)
(0.00279174 -0.00129957 -0.000130936 0.00279174 -7.45507e-19 0.00279174)
(0.00279174 -0.00129957 -0.000130936 0.00279174 8.50937e-18 0.00279174)
(0.0027708 -0.00129026 -0.000131889 0.0027708 -3.61178e-20 0.0027708)
(0.0027708 -0.00129026 -0.000131889 0.0027708 7.69401e-18 0.0027708)
(0.00274987 -0.00128096 -0.000132842 0.00274987 1.17117e-18 0.00274987)
(0.00274987 -0.00128096 -0.000132842 0.00274987 8.29761e-18 0.00274987)