/*--------------------------------*- C++ -*----------------------------------*\
| =========                 |                                                 |
| \\      /  F ield         | OpenFOAM: The Open Source CFD Toolbox           |
|  \\    /   O peration     | Version:  2012                                  |
|   \\  /    A nd           | Website:  www.openfoam.com                      |
|    \\/     M anipulation  |                                                 |
\*---------------------------------------------------------------------------*/
FoamFile
{
    version     2.0;
    format      ascii;
    class       volTensorField;
    location    "6000";
    object      grad(U);
}
// * * * * * * * * * * * * * * * * * * * * * * * * * * * * * * * * * * * * * //

dimensions      [0 0 -1 0 0 0 0];


internalField   nonuniform List<tensor> 
80
(
(0 -1.19495e-30 -1.19495e-30 47.4415 2.56214e-13 2.38861e-13 1.93012 5.39263e-15 3.89559e-15)
(-3.36348e-16 0 0 47.4415 5.79166e-14 1.07914e-13 1.93012 1.92948e-15 2.98767e-15)
(8.06542e-16 5.20933e-28 1.75188e-28 38.9655 1.5607e-30 -1.22076e-29 6.98086 6.31089e-30 0)
(0 -1.71925e-29 -2.86541e-30 38.9655 3.82514e-14 3.64091e-14 6.98086 4.09522e-15 6.62572e-15)
(0 1.03066e-29 0 20.8382 -1.32988e-13 -1.98378e-14 6.41738 2.67598e-14 9.64043e-15)
(7.26191e-15 -1.03066e-29 0 20.8382 2.75786e-14 3.18765e-15 6.41738 9.57016e-15 7.35321e-15)
(0 0 -1.05097e-45 7.14001 -2.87284e-14 -3.34398e-30 3.5466 2.30236e-14 1.57772e-30)
(4.44977e-15 0 0 7.14001 7.9623e-15 -8.88684e-15 3.5466 1.31942e-14 8.04044e-15)
(6.57904e-16 4.69306e-30 1.23467e-30 2.44368 -1.21167e-14 -1.07545e-14 2.2202 1.82626e-14 3.5954e-15)
(0 0 0 2.44368 1.04176e-15 -1.98005e-15 2.2202 1.21193e-14 9.8159e-16)
(-2.36715e-15 -1.30544e-30 0 0.948812 -3.3422e-15 7.29865e-15 1.56616 9.87906e-15 3.40627e-15)
(0 0 0 0.948812 -3.46487e-16 1.1802e-14 1.56616 3.40212e-15 3.28515e-15)
(2.52272e-15 9.59756e-30 0 0.414562 -8.81018e-16 9.80595e-15 1.22824 2.08322e-15 5.04332e-16)
(0 0 3.54974e-30 0.414562 -5.62599e-16 9.80058e-15 1.22824 2.52532e-15 7.31939e-16)
(0 0 0 0.19891 1.7456e-16 1.2125e-14 1.02519 1.05165e-14 -4.45691e-16)
(1.05445e-14 2.73642e-30 0 0.19891 8.26699e-31 1.06154e-14 1.02519 1.23227e-14 1.04815e-15)
(1.45719e-16 -1.07402e-29 0 0.100608 -1.35671e-16 7.117e-31 0.883493 6.55429e-16 2.82125e-45)
(1.60701e-14 2.50362e-29 5.03948e-31 0.100608 -9.70673e-18 8.97207e-16 0.883493 4.68934e-17 -1.48943e-15)
(1.18038e-18 0 -1.22363e-29 0 -2.21417e-15 2.71673e-15 5.90189e-19 4.39813e-15 9.03705e-15)
(-1.57772e-30 0 1.22363e-29 5.17173e-29 -2.20487e-15 2.72529e-15 5.90189e-19 4.94178e-15 4.49147e-15)
(3.36348e-16 0 -5.97475e-31 47.4415 1.14559e-14 -6.73717e-14 -1.93012 -5.39263e-15 -3.89559e-15)
(0 0 5.97475e-31 47.4415 1.01149e-14 7.50743e-17 -1.93012 -1.92948e-15 -2.98767e-15)
(0 -3.58177e-31 -6.62686e-30 38.9655 2.14925e-14 3.15544e-30 -6.98086 -4.49842e-14 -1.19379e-14)
(0 -2.56066e-29 -2.86541e-30 38.9655 9.27984e-15 1.48797e-15 -6.98086 -4.09522e-15 -6.62572e-15)
(0 -8.58885e-31 3.43554e-30 20.8382 1.88739e-14 1.50746e-14 -6.41738 -2.67598e-14 -9.64043e-15)
(-1.93404e-15 0 -3.0061e-30 20.8382 1.50658e-14 3.16633e-15 -6.41738 -9.57016e-15 -7.35321e-15)
(1.06546e-15 -2.05955e-30 2.317e-30 7.14001 1.02441e-14 5.83135e-15 -3.5466 -2.30236e-14 -1.20479e-14)
(-4.44977e-15 4.1191e-30 -2.70316e-30 7.14001 1.02196e-14 -2.96184e-15 -3.5466 -1.31942e-14 -8.04044e-15)
(0 -2.46934e-30 0 2.44368 5.22525e-15 -6.4117e-15 -2.2202 -2.00324e-14 -3.5954e-15)
(0 2.46934e-30 0 2.44368 7.80764e-15 -9.39853e-15 -2.2202 -1.44708e-14 -9.8159e-16)
(2.36715e-15 1.74727e-30 0 0.948812 3.01998e-15 -9.61585e-15 -1.56616 -6.69528e-15 -3.40627e-15)
(-9.46859e-15 -7.28005e-30 0 0.948812 4.10749e-15 -1.08734e-14 -1.56616 -5.42293e-15 -3.28515e-15)
(0 -2.1115e-32 0 0.414562 3.2052e-16 -1.23061e-14 -1.22824 -5.56479e-16 -5.04332e-16)
(-2.01817e-14 -1.75162e-45 0 0.414562 -4.92682e-46 -1.15029e-14 -1.22824 3.02764e-30 -7.31939e-16)
(-4.79186e-15 -4.25602e-30 8.51205e-30 0.19891 2.30383e-16 -1.23368e-14 -1.02519 -9.20465e-15 4.45691e-16)
(-5.75264e-15 -4.09585e-31 -8.51205e-30 0.19891 -4.20688e-18 -1.11357e-14 -1.02519 -8.84736e-15 -1.04815e-15)
(-2.72692e-15 0 4.24877e-32 0.100608 -7.76806e-45 -1.37746e-15 -0.883493 6.19942e-30 -3.20521e-16)
(-1.09077e-14 -1.15378e-29 1.11283e-29 0.100608 -3.64312e-16 7.88861e-31 -0.883493 -1.76e-15 -1.04682e-29)
(3.44421e-15 7.64768e-31 -2.44726e-29 1.10328e-15 -2.43615e-15 -2.11022e-15 -1.06581e-14 -4.39813e-15 -9.03705e-15)
(-1.49835e-16 0 0 0 -2.28011e-15 -1.77806e-15 3.55507e-15 -4.94178e-15 -4.49147e-15)
(-2.91025e-15 6.80968e-31 -2.39097e-43 -2.7926e-09 2.14878e-17 -2.69247e-29 2.2503e-08 -4.91484e-15 -1.16541e-46)
(1.16433e-14 -3.51737e-30 1.7545e-30 -2.79222e-09 5.12195e-17 -1.8436e-16 2.2503e-08 -2.85397e-15 1.48569e-15)
(-2.72692e-15 -1.60243e-31 0 -0.100608 5.01311e-16 -1.21937e-14 0.883493 2.73826e-15 -3.15441e-15)
(-1.09077e-14 -1.4991e-30 0 -0.100608 2.64527e-16 -1.239e-14 0.883493 1.27794e-15 -7.25884e-16)
(0 3.32502e-32 0 -0.19891 -2.76389e-16 -5.92549e-15 1.02519 8.09192e-16 -4.24341e-15)
(0 -7.00649e-46 0 -0.19891 4.93038e-32 -6.56818e-15 1.02519 6.99318e-16 -7.29921e-15)
(-5.04544e-15 -1.10929e-31 0 -0.414562 3.27834e-16 -1.64801e-15 1.22824 4.05714e-16 5.65013e-16)
(6.09422e-15 5.54646e-32 0 -0.414562 3.17605e-16 -1.11014e-15 1.22824 1.16641e-16 -1.42934e-15)
(0 -3.97181e-44 0 -0.948812 -4.4698e-30 -1.94392e-15 1.56616 0 -3.71876e-17)
(0 1.85041e-31 -1.05603e-31 -0.948812 2.11518e-16 -5.77834e-16 1.56616 9.76384e-17 1.51751e-16)
(0 0 0 -2.44368 -7.8936e-16 -7.62274e-16 2.2202 -1.25126e-16 8.30862e-17)
(8.48929e-15 0 1.54334e-31 -2.44368 0 -8.65239e-16 2.2202 0 7.03952e-17)
(-1.69215e-15 1.93083e-31 0 -7.14001 -4.11619e-16 1.10773e-15 3.5466 -1.35307e-16 2.23771e-16)
(6.76862e-15 -1.93083e-31 0 -7.14001 -5.85497e-16 2.70551e-16 3.5466 1.02473e-16 2.19832e-16)
(0 8.05205e-32 0 -20.8382 -2.49756e-16 2.15377e-15 6.41738 -5.62303e-17 4.58603e-16)
(-1.93404e-15 -8.05205e-32 0 -20.8382 -1.09913e-15 1.54005e-15 6.41738 9.47753e-17 2.18796e-16)
(0 8.75812e-47 -7.00649e-45 -38.9655 -2.02246e-31 5.34604e-30 6.98086 -3.08149e-33 0)
(0 8.39477e-33 0 -38.9655 -7.72003e-16 -2.9506e-15 6.98086 3.86441e-17 3.51742e-16)
(0 -4.66777e-33 -5.90322e-30 -47.4415 3.01535e-16 -7.58847e-15 1.93012 -9.58713e-18 1.3432e-16)
(0 9.33554e-33 0 -47.4415 -3.56219e-16 -8.88604e-15 1.93012 1.10082e-17 1.42905e-16)
(-3.44421e-15 1.75162e-46 2.8026e-45 -2.7926e-09 8.79247e-29 2.08415e-31 -2.2503e-08 0 -3.02559e-15)
(2.36076e-18 0 -1.69687e-31 -2.79241e-09 2.33701e-16 9.88829e-16 -2.2503e-08 2.29331e-15 -4.64631e-15)
(2.72692e-15 -1.4013e-45 0 -0.100608 0 1.0953e-14 -0.883493 -8.84065e-31 3.15441e-15)
(-1.37803e-14 -1.77182e-30 0 -0.100608 1.2835e-16 9.85511e-15 -0.883493 -6.2006e-16 7.25884e-16)
(-2.40195e-16 5.32003e-31 -6.38403e-30 -0.19891 -6.95972e-16 7.71967e-15 -1.02519 -8.09192e-16 4.24341e-15)
(-1.05445e-14 -2.66001e-31 4.25602e-30 -0.19891 -6.98962e-16 7.40114e-15 -1.02519 -6.99318e-16 7.29921e-15)
(-5.04544e-15 -5.25037e-32 -8.87434e-31 -0.414562 -4.00104e-16 3.29034e-15 -1.22824 -4.05714e-16 -5.65013e-16)
(-1.00909e-14 5.54646e-32 8.87434e-31 -0.414562 -5.82863e-16 4.78317e-15 -1.22824 -1.16641e-16 1.42934e-15)
(-3.33341e-15 -1.38781e-31 0 -0.948812 -3.56696e-16 1.65471e-15 -1.56616 -4.95812e-16 3.71876e-17)
(3.33341e-15 -4.62518e-46 0 -0.948812 5.20749e-32 1.81681e-15 -1.56616 -9.76384e-17 -1.51751e-16)
(2.12232e-15 -1.09476e-46 -5.76583e-32 -2.44368 3.22283e-46 1.10099e-15 -2.2202 1.97215e-31 -8.30862e-17)
(0 -5.78751e-32 1.54334e-31 -2.44368 -1.3995e-16 1.06697e-15 -2.2202 -4.88242e-16 -7.03952e-17)
(0 0 -3.21805e-32 -7.14001 6.5556e-16 -4.0778e-17 -3.5466 1.35307e-16 -2.23771e-16)
(0 -1.75162e-45 3.21805e-32 -7.14001 1.97215e-31 2.54591e-17 -3.5466 -1.02473e-16 -2.19832e-16)
(1.69692e-15 0 0 -20.8382 7.00679e-16 -7.43577e-17 -6.41738 5.62303e-17 -4.58603e-16)
(3.39383e-15 0 0 -20.8382 7.60396e-16 -8.02167e-16 -6.41738 -9.47753e-17 -2.18796e-16)
(8.06542e-16 1.26404e-32 0 -38.9655 -9.55261e-32 5.25759e-16 -6.98086 2.27709e-17 -6.90728e-16)
(0 0 -1.95256e-31 -38.9655 2.01936e-16 1.65508e-43 -6.98086 -3.86441e-17 -3.51742e-16)
(-3.36348e-16 -6.43174e-47 -1.86711e-32 -47.4415 7.65973e-46 8.14944e-16 -1.93012 -1.17216e-31 -1.3432e-16)
(0 -4.66777e-33 2.33389e-32 -47.4415 -1.18847e-17 3.39685e-15 -1.93012 -1.10082e-17 -1.42905e-16)
)
;

boundaryField
{
    walls
    {
        type            extrapolatedCalculated;
        value           nonuniform List<tensor> 8((0 -1.19495e-30 -1.19495e-30 47.9021 2.56214e-13 2.70277e-13 1.93012 5.39263e-15 3.89559e-15) (3.36348e-16 0 -5.97475e-31 47.9021 1.14559e-14 -7.69147e-14 -1.93012 -5.39263e-15 -3.89559e-15) (-3.36348e-16 0 0 47.9021 8.13444e-14 1.48194e-13 1.93012 1.92948e-15 2.98767e-15) (0 0 5.97475e-31 47.9021 1.4428e-14 1.02659e-16 -1.93012 -1.92948e-15 -2.98767e-15) (0 -4.66777e-33 -5.90322e-30 -47.9021 -2.18822e-16 -7.1278e-15 1.93012 -9.58713e-18 1.3432e-16) (-3.36348e-16 -6.43174e-47 -1.86711e-32 -47.9021 6.94692e-16 4.60669e-16 -1.93012 -1.17216e-31 -1.3432e-16) (0 9.33554e-33 0 -47.9021 -9.03255e-16 -8.67704e-15 1.93012 1.10082e-17 1.42905e-16) (0 -4.66777e-33 2.33389e-32 -47.9021 3.56847e-16 1.58378e-15 -1.93012 -1.10082e-17 -1.42905e-16));
    }
    inlet
    {
        type            cyclic;
    }
    outlet
    {
        type            cyclic;
    }
    sides
    {
        type            empty;
    }
}


// ************************************************************************* //
