/*--------------------------------*- C++ -*----------------------------------*\
| =========                 |                                                 |
| \\      /  F ield         | OpenFOAM: The Open Source CFD Toolbox           |
|  \\    /   O peration     | Version:  2012                                  |
|   \\  /    A nd           | Website:  www.openfoam.com                      |
|    \\/     M anipulation  |                                                 |
\*---------------------------------------------------------------------------*/
FoamFile
{
    version     2.0;
    format      ascii;
    class       surfaceScalarField;
    location    "6000";
    object      phi;
}
// * * * * * * * * * * * * * * * * * * * * * * * * * * * * * * * * * * * * * //

dimensions      [0 3 -1 0 0 0 0];
oriented        oriented;


internalField   nonuniform List<scalar> 
156
(
1.94427e-05
8.60033e-18
1.55163e-19
2.53014e-19
3.00748e-20
0.000117301
6.91637e-18
5.74615e-19
1.23742e-18
1.11256e-19
0.000351242
5.3035e-18
6.09226e-19
2.03825e-18
1.98617e-19
0.000735933
3.88196e-18
6.45939e-19
2.57161e-18
3.39639e-19
0.00136592
2.8785e-18
6.79964e-19
2.49348e-18
4.46367e-19
0.00242291
2.52038e-18
6.02433e-19
2.43751e-18
5.27492e-19
0.00421161
2.30093e-18
2.16316e-19
2.19984e-18
1.35938e-19
0.0072477
2.92817e-18
6.05476e-20
2.92272e-18
7.28336e-19
0.0123994
2.66887e-18
-5.51221e-19
2.66591e-18
-5.00031e-21
0.0211285
1.65276e-19
-4.92413e-19
-1.03777e-18
-4.83365e-19
1.94427e-05
1.17307e-19
6.5372e-20
0.000117301
5.39116e-19
3.24766e-19
0.000351242
1.02545e-18
6.80849e-19
0.000735933
1.58973e-18
1.1595e-18
0.00136592
1.88005e-18
1.88974e-18
0.00242291
2.27217e-18
2.2662e-18
0.00421161
2.40814e-18
2.49077e-18
0.0072477
2.93623e-18
2.95818e-18
0.0123994
2.65309e-18
2.61372e-18
0.0211285
-6.25487e-19
-6.08014e-19
0.0211285
-1.12515e-19
-9.83821e-19
-1.03333e-19
-4.12883e-19
0.0123994
2.14308e-19
-6.94904e-19
2.29528e-19
-8.75564e-19
0.0072477
3.54841e-20
-4.2585e-19
2.2383e-20
-1.28064e-18
0.00421161
1.63098e-19
4.59159e-20
6.14471e-20
-1.58744e-19
0.00242291
1.58595e-19
1.02153e-21
1.09545e-19
-1.15741e-20
0.00136592
6.78542e-22
4.10806e-21
9.97903e-20
2.59006e-21
0.000735933
-1.98306e-21
6.28265e-21
4.96177e-21
6.05325e-21
0.000351242
-1.37736e-20
6.93371e-21
1.76715e-20
6.96436e-21
0.000117301
-1.21739e-21
6.96953e-21
2.62577e-21
6.19775e-21
1.94427e-05
1.13598e-21
1.50183e-21
0.0211285
-6.81257e-20
-8.55958e-20
0.0123994
3.53401e-19
2.98389e-19
0.0072477
9.64847e-20
1.63405e-19
0.00421161
-5.32337e-21
-4.15372e-20
0.00242291
4.96095e-20
6.61595e-21
0.00136592
-5.4395e-20
3.10736e-20
0.000735933
-2.10491e-20
-3.16053e-20
0.000351242
1.45609e-21
-7.07321e-22
0.000117301
-3.55787e-21
-4.79089e-22
1.94427e-05
)
;

boundaryField
{
    walls
    {
        type            calculated;
        value           uniform 0;
    }
    inlet
    {
        type            cyclic;
        value           nonuniform List<scalar> 
40
(
-1.94427e-05
-0.000117301
-0.000351242
-0.000735933
-0.00136592
-0.00242291
-0.00421161
-0.0072477
-0.0123994
-0.0211285
-1.94427e-05
-0.000117301
-0.000351242
-0.000735933
-0.00136592
-0.00242291
-0.00421161
-0.0072477
-0.0123994
-0.0211285
-0.0211285
-0.0123994
-0.0072477
-0.00421161
-0.00242291
-0.00136592
-0.000735933
-0.000351242
-0.000117301
-1.94427e-05
-0.0211285
-0.0123994
-0.0072477
-0.00421161
-0.00242291
-0.00136592
-0.000735933
-0.000351242
-0.000117301
-1.94427e-05
)
;
    }
    outlet
    {
        type            cyclic;
        value           nonuniform List<scalar> 
40
(
1.94427e-05
0.000117301
0.000351242
0.000735933
0.00136592
0.00242291
0.00421161
0.0072477
0.0123994
0.0211285
1.94427e-05
0.000117301
0.000351242
0.000735933
0.00136592
0.00242291
0.00421161
0.0072477
0.0123994
0.0211285
0.0211285
0.0123994
0.0072477
0.00421161
0.00242291
0.00136592
0.000735933
0.000351242
0.000117301
1.94427e-05
0.0211285
0.0123994
0.0072477
0.00421161
0.00242291
0.00136592
0.000735933
0.000351242
0.000117301
1.94427e-05
)
;
    }
    sides
    {
        type            empty;
        value           nonuniform List<scalar> 0();
    }
}


// ************************************************************************* //
