/*--------------------------------*- C++ -*----------------------------------*\
| =========                 |                                                 |
| \\      /  F ield         | OpenFOAM: The Open Source CFD Toolbox           |
|  \\    /   O peration     | Version:  2106                                  |
|   \\  /    A nd           | Website:  www.openfoam.com                      |
|    \\/     M anipulation  |                                                 |
\*---------------------------------------------------------------------------*/
FoamFile
{
    version     2.0;
    format      ascii;
    arch        "LSB;label=32;scalar=64";
    class       volTensorField;
    location    "17000";
    object      grad(U);
}
// * * * * * * * * * * * * * * * * * * * * * * * * * * * * * * * * * * * * * //

dimensions      [0 0 -1 0 0 0 0];

internalField   nonuniform List<tensor> 
2560
(
(-3.65725e-17 3.11836e-30 -3.95433e-27 215.187 -1.19721e-11 -1.90354e-12 0.311514 -8.67421e-15 -1.46817e-15)
(0 -1.03945e-30 -5.19726e-31 215.187 -1.55508e-14 6.19673e-14 0.311514 -2.26702e-17 -6.75075e-16)
(0 -6.43535e-25 -3.52221e-26 215.139 8.07826e-28 -1.32623e-13 0.93897 0 -3.89532e-16)
(-1.44193e-16 -8.19643e-30 -8.36499e-32 215.139 -2.45752e-14 3.18335e-14 0.93897 -2.69471e-17 9.34995e-17)
(2.44606e-16 -8.804e-30 -6.36712e-31 214.972 9.51252e-13 -6.11899e-14 1.28967 -4.66099e-15 -3.39455e-16)
(-2.84253e-16 2.01974e-29 2.01974e-30 214.972 -3.80114e-14 1.50508e-14 1.28967 -9.42717e-17 8.58415e-17)
(1.27433e-16 -1.4748e-29 -2.38655e-30 214.305 6.72005e-13 -4.85201e-14 1.30195 -6.69204e-15 -2.46615e-16)
(0 1.19448e-29 1.99079e-30 214.305 -3.30014e-14 1.22103e-14 1.30195 -1.43125e-16 6.164e-17)
(1.10465e-15 -2.35471e-29 -4.10519e-28 212.24 1.24541e-13 -1.49632e-14 1.30193 -1.39611e-15 -4.58944e-17)
(-5.52327e-16 1.96226e-29 -4.63429e-28 212.24 -3.34272e-14 3.30359e-15 1.30193 -1.94125e-16 1.01326e-17)
(8.55684e-16 -1.14046e-29 -8.76209e-31 207.382 3.15244e-14 0 1.27918 -1.2264e-16 0)
(1.94578e-15 7.73654e-30 0 207.382 -3.35606e-14 -4.25945e-29 1.27918 -2.46573e-16 2.33841e-43)
(-4.07359e-16 3.64091e-30 -1.0371e-30 198.446 4.595e-14 7.06511e-14 1.2264 -2.70813e-16 -2.69082e-16)
(1.62944e-15 3.81283e-30 2.85071e-30 198.446 -3.30203e-14 -1.79959e-14 1.2264 -3.00169e-16 6.92488e-17)
(-5.03654e-16 1.1144e-29 2.20388e-30 185.201 4.54872e-14 1.19867e-13 1.14573 -3.09723e-16 -6.25672e-16)
(2.01462e-15 -3.75818e-30 -5.43419e-31 185.201 -3.16649e-14 -3.03154e-14 1.14573 -3.51327e-16 1.58648e-16)
(1.63938e-15 -1.10347e-29 -1.64741e-30 168.836 3.9407e-14 1.51628e-13 1.04808 -2.72773e-16 -9.12088e-16)
(0 7.40863e-30 1.38912e-30 168.836 -2.97516e-14 -3.82545e-14 1.04808 -4.02765e-16 2.30258e-16)
(0 1.09537e-29 9.12806e-31 151.301 3.47659e-14 1.61945e-13 0.946375 -2.39191e-16 -1.05982e-15)
(0 -7.30244e-30 -4.56403e-31 151.301 -2.72542e-14 -4.08464e-14 0.946375 -4.48115e-16 2.67237e-16)
(-1.77559e-15 -3.57465e-30 -1.62641e-30 134.319 3.22566e-14 1.55769e-13 0.849936 -2.19117e-16 -1.07584e-15)
(0 1.07967e-29 2.69917e-30 134.319 -2.50595e-14 -3.93359e-14 0.849936 -4.89831e-16 2.7143e-16)
(8.33588e-16 -3.19974e-29 -3.25689e-30 118.905 3.02114e-14 1.40737e-13 0.763357 -2.12383e-16 -1.00764e-15)
(0 2.12839e-29 2.66048e-30 118.905 -2.31597e-14 -3.5631e-14 0.763357 -5.3175e-16 2.5471e-16)
(9.84168e-16 -3.49647e-30 -8.74117e-31 105.426 2.77712e-14 1.22797e-13 0.687865 -1.97574e-16 -9.01845e-16)
(0 3.49647e-30 8.74117e-31 105.426 -2.0668e-14 -3.12158e-14 0.687865 -5.69868e-16 2.28729e-16)
(-9.53776e-16 7.05981e-30 1.21086e-30 93.8573 2.64772e-14 1.0529e-13 0.622925 -1.84758e-16 -7.8831e-16)
(3.8151e-15 0 -2.59349e-31 93.8573 -1.88689e-14 -2.69194e-14 0.622925 -6.04274e-16 2.00928e-16)
(0 2.37787e-29 1.91079e-30 84.0018 2.55393e-14 8.96553e-14 0.567308 -1.85153e-16 -6.8191e-16)
(0 -2.37787e-29 -1.91079e-30 84.0018 -1.82685e-14 -2.30855e-14 0.567308 -6.36599e-16 1.7497e-16)
(-1.0507e-15 3.60575e-30 1.2428e-31 75.6111 2.37567e-14 7.62755e-14 0.519637 -1.76779e-16 -5.88182e-16)
(4.2028e-15 0 1.53314e-31 75.6111 -1.70496e-14 -1.98032e-14 0.519637 -6.67194e-16 1.52077e-16)
(0 2.64023e-29 2.06268e-30 68.4456 2.22843e-14 6.50553e-14 0.478629 -1.64756e-16 -5.08084e-16)
(-4.36979e-15 -2.64023e-29 -2.20852e-30 68.4456 -1.59554e-14 -1.70647e-14 0.478629 -6.93484e-16 1.32552e-16)
(0 2.27709e-29 1.8298e-30 62.2958 2.09526e-14 5.57259e-14 0.443173 -1.60321e-16 -4.40528e-16)
(-4.52232e-15 -2.27709e-29 -1.96862e-30 62.2958 -1.46629e-14 -1.48004e-14 0.443173 -7.21622e-16 1.1629e-16)
(1.80502e-15 -6.41271e-30 -6.01192e-31 56.9864 1.96062e-14 4.79863e-14 0.412341 -1.49727e-16 -3.83878e-16)
(0 6.41271e-30 8.01589e-31 56.9864 -1.31624e-14 -1.29266e-14 0.412341 -7.45786e-16 1.02676e-16)
(1.19796e-15 1.22071e-29 8.77878e-31 52.3738 1.86461e-14 4.15527e-14 0.385372 -1.44653e-16 -3.36366e-16)
(-4.79186e-15 -2.52832e-29 -1.50853e-30 52.3738 -1.23275e-14 -1.13754e-14 0.385372 -7.68992e-16 9.13552e-17)
(0 2.18057e-29 1.36286e-30 48.3416 1.76064e-14 3.61879e-14 0.361643 -1.3938e-16 -2.96394e-16)
(0 -2.18057e-29 -1.36286e-30 48.3416 -1.15292e-14 -1.00841e-14 0.361643 -7.90851e-16 8.18792e-17)
(-1.25601e-15 5.19234e-31 -8.86931e-32 44.7953 1.61204e-14 3.16941e-14 0.340647 -1.32704e-16 -2.62697e-16)
(0 6.14092e-30 3.83807e-31 44.7953 -1.09078e-14 -9.00761e-15 0.340647 -8.12559e-16 7.39274e-17)
(4.21505e-16 -3.27289e-29 -1.98057e-30 41.6584 1.42654e-14 2.79066e-14 0.321969 -1.1999e-16 -2.34097e-16)
(0 3.02645e-29 1.89153e-30 41.6584 -1.07846e-14 -8.09945e-15 0.321969 -8.33475e-16 6.7274e-17)
(0 1.49154e-29 5.59326e-31 38.8686 1.4484e-14 2.46945e-14 0.305268 -1.06865e-16 -2.09697e-16)
(-5.22757e-15 -2.08815e-29 -1.03533e-30 38.8686 -1.07068e-14 -7.32138e-15 0.305268 -8.54121e-16 6.15399e-17)
(1.33016e-15 2.288e-29 1.00832e-30 36.3747 1.61767e-14 2.19587e-14 0.290266 -1.2706e-16 -1.88732e-16)
(0 -2.64629e-29 -1.10262e-30 36.3747 -1.14069e-14 -6.67034e-15 0.290266 -8.72176e-16 5.65951e-17)
(-2.70436e-15 3.61386e-29 1.54167e-30 34.1348 1.57402e-14 1.96211e-14 0.276728 -1.37915e-16 -1.70716e-16)
(0 -2.89818e-29 -1.35852e-30 34.1348 -1.21827e-14 -6.10965e-15 0.276728 -8.92244e-16 5.26041e-17)
(4.11925e-15 -3.93004e-29 -1.69522e-30 32.1141 1.38002e-14 1.76036e-14 0.264462 -1.23478e-16 -1.55143e-16)
(1.09847e-14 2.85664e-29 1.69447e-30 32.1141 -9.89824e-15 -5.63063e-15 0.264462 -9.14575e-16 4.88704e-17)
(0 -1.68942e-29 -9.67895e-31 30.2835 1.2925e-14 1.58545e-14 0.253304 -1.09018e-16 -1.41464e-16)
(5.57192e-15 2.25256e-29 1.05157e-30 30.2835 -7.56664e-15 -5.25027e-15 0.253304 -9.28733e-16 4.60124e-17)
(1.41197e-15 1.97549e-30 4.36279e-31 28.6187 1.28826e-14 1.43352e-14 0.243118 -1.12019e-16 -1.29561e-16)
(-3.12475e-15 0 -2.60188e-31 28.6187 -7.97728e-15 -4.91861e-15 0.243118 -9.38229e-16 4.37506e-17)
(-2.86027e-15 1.26178e-29 1.63649e-31 27.0994 1.24413e-14 1.30062e-14 0.233788 -1.11472e-16 -1.19059e-16)
(-1.14411e-14 -5.47112e-30 -1.49184e-31 27.0994 -8.37471e-15 -4.63159e-15 0.233788 -9.54111e-16 4.15646e-17)
(-1.44755e-15 8.96402e-30 5.00953e-31 25.7081 1.25888e-14 1.18449e-14 0.225215 -1.07477e-16 -1.09795e-16)
(-8.82601e-15 0 -2.38598e-31 25.7081 -8.51483e-15 -4.42679e-15 0.225215 -9.75405e-16 3.99436e-17)
(0 2.12617e-29 9.9664e-31 24.43 1.34354e-14 1.08234e-14 0.217313 -1.17391e-16 -1.01659e-16)
(-5.85709e-15 -2.12617e-29 -1.06173e-30 24.43 -9.41957e-15 -4.26184e-15 0.217313 -9.9723e-16 3.90987e-17)
(0 -2.09569e-29 -9.00493e-31 23.2525 1.35831e-14 9.91521e-15 0.210012 -1.26074e-16 -9.43704e-17)
(5.92146e-15 2.09569e-29 9.6085e-31 23.2525 -9.76977e-15 -4.07606e-15 0.210012 -1.01831e-15 3.81036e-17)
(-1.49588e-15 3.56094e-30 7.35499e-32 22.1646 1.26172e-14 9.11084e-15 0.203246 -1.23564e-16 -8.78228e-17)
(0 5.16414e-30 1.61379e-31 22.1646 -9.1173e-15 -3.88905e-15 0.203246 -1.03978e-15 3.68046e-17)
(-1.51085e-15 1.88306e-29 7.87468e-31 21.157 1.19218e-14 8.39536e-15 0.196963 -1.11625e-16 -8.20267e-17)
(0 -1.52704e-29 -7.15799e-31 21.157 -8.11349e-15 -3.73592e-15 0.196963 -1.05527e-15 3.57072e-17)
(-1.52533e-15 1.86091e-29 3.83445e-31 20.2215 1.19994e-14 7.75353e-15 0.191113 -1.13933e-16 -7.67613e-17)
(-6.10132e-15 -1.00343e-29 -2.82688e-31 20.2215 -7.70511e-15 -3.62615e-15 0.191113 -1.06916e-15 3.49646e-17)
(1.53935e-15 -1.34452e-29 -3.77223e-31 19.3508 1.18884e-14 7.17701e-15 0.185656 -1.16394e-16 -7.2021e-17)
(0 9.89052e-30 3.09079e-31 19.3508 -7.90485e-15 -3.52186e-15 0.185656 -1.08267e-15 3.46311e-17)
(1.55294e-15 -1.33016e-29 -5.23468e-31 18.5389 1.16208e-14 6.65152e-15 0.180555 -1.15093e-16 -6.7702e-17)
(0 9.74877e-30 4.56973e-31 18.5389 -8.3751e-15 -3.38871e-15 0.180555 -1.09505e-15 3.39433e-17)
(-2.91848e-15 8.35538e-30 2.90173e-31 17.7801 1.18742e-14 6.17807e-15 0.175776 -1.1448e-16 -6.36739e-17)
(0 0 -1.50141e-31 17.7801 -8.58116e-15 -3.26907e-15 0.175776 -1.11417e-15 3.2996e-17)
(0 1.4207e-29 3.69973e-31 17.0697 1.22396e-14 5.75589e-15 0.171293 -1.2358e-16 -6.01269e-17)
(0 -2.36783e-29 -5.17963e-31 17.0697 -8.13432e-15 -3.18681e-15 0.171293 -1.12763e-15 3.25222e-17)
(-1.59142e-15 3.54372e-30 2.07942e-31 16.4034 1.19751e-14 5.37526e-15 0.167079 -1.25318e-16 -5.68919e-17)
(5.05181e-15 0 2.6403e-32 16.4034 -6.98955e-15 -3.122e-15 0.167079 -1.1401e-15 3.22777e-17)
(0 -2.30044e-29 -5.75111e-31 15.7773 1.2639e-14 5.03499e-15 0.163111 -1.21702e-16 -5.39787e-17)
(6.41425e-15 2.30044e-29 5.97218e-31 15.7773 -6.79383e-15 -3.09426e-15 0.163111 -1.1609e-15 3.21281e-17)
(1.6154e-15 1.00713e-29 3.65809e-31 15.1881 1.33805e-14 4.73688e-15 0.15937 -1.42985e-16 -5.1385e-17)
(-6.4616e-15 -2.26747e-29 -5.13405e-31 15.1881 -8.01203e-15 -3.09222e-15 0.15937 -1.19031e-15 3.26384e-17)
(4.1433e-15 -3.52983e-30 -2.67485e-31 14.6327 1.21843e-14 4.46734e-15 0.155838 -1.41128e-16 -4.91837e-17)
(-2.51635e-15 0 2.09529e-31 14.6327 -7.72741e-15 -3.07645e-15 0.155838 -1.2147e-15 3.30257e-17)
(-1.63823e-15 -8.76294e-31 -8.10776e-32 14.1085 1.10824e-14 4.21803e-15 0.152498 -1.21215e-16 -4.70413e-17)
(0 8.81176e-30 2.75367e-31 14.1085 -5.86799e-15 -3.05313e-15 0.152498 -1.23842e-15 3.32523e-17)
(1.64925e-15 8.16156e-31 2.16157e-31 13.6129 1.12794e-14 3.98844e-15 0.149335 -1.21005e-16 -4.51358e-17)
(6.59699e-15 0 -1.32428e-31 13.6129 -4.81114e-15 -3.03652e-15 0.149335 -1.2486e-15 3.34796e-17)
(2.4097e-15 -4.28049e-30 -2.67531e-31 13.1439 1.14537e-14 3.77635e-15 0.146337 -1.29166e-16 -4.32914e-17)
(6.6401e-15 4.28049e-30 2.67531e-31 13.1439 -5.53667e-15 -3.02873e-15 0.146337 -1.258e-15 3.09599e-17)
(-1.67057e-15 7.73764e-30 5.26613e-32 12.6994 1.11573e-14 3.58655e-15 0.143491 -1.28498e-16 -4.16519e-17)
(0 0 1.31848e-31 12.6994 -6.25298e-15 -3.03055e-15 0.143491 -1.27975e-15 2.24844e-17)
(-1.68091e-15 3.5153e-30 5.13584e-32 12.2777 1.08742e-14 3.41253e-15 0.140787 -1.26136e-16 -4.0196e-17)
(0 4.15867e-30 1.29958e-31 12.2777 -5.66132e-15 -3.02798e-15 0.140787 -1.29567e-15 1.41683e-17)
(2.30757e-15 -4.09906e-30 -2.56191e-31 11.8771 1.07831e-14 3.24262e-15 0.138215 -1.25659e-16 -3.88132e-17)
(-2.30757e-15 4.09906e-30 2.56191e-31 11.8771 -4.68647e-15 -3.04634e-15 0.138215 -1.30535e-15 5.66445e-18)
(5.73531e-16 3.5102e-30 4.88554e-32 11.4961 1.07673e-14 3.08598e-15 0.135765 -1.27676e-16 -3.73529e-17)
(-2.27449e-15 8.08063e-30 2.5252e-31 11.4961 -5.80544e-15 -3.07574e-15 0.135765 -1.31736e-15 -3.216e-18)
(-4.48379e-15 2.78768e-29 6.22251e-31 11.1334 1.0898e-14 2.94306e-15 0.13343 -1.28961e-16 -3.61896e-17)
(-4.60094e-15 -2.38944e-29 -4.97801e-31 11.1334 -7.0009e-15 -3.07931e-15 0.13343 -1.33999e-15 -1.23405e-17)
(-1.72028e-15 -1.61234e-29 -3.21579e-31 10.7878 1.20146e-14 2.81243e-15 0.131202 -1.34599e-16 -3.49661e-17)
(6.8811e-15 2.3552e-29 4.90666e-31 10.7878 -6.88121e-15 -3.08121e-15 0.131202 -1.36477e-15 -2.15866e-17)
(-2.17809e-15 2.32144e-29 4.83633e-31 10.4582 1.25881e-14 2.70295e-15 0.129074 -1.6033e-16 -3.40219e-17)
(2.17809e-15 -2.32144e-29 -4.83633e-31 10.4582 -7.1304e-15 -3.08657e-15 0.129074 -1.39096e-15 -3.08738e-17)
(-1.73891e-15 1.11183e-29 2.82299e-31 10.1435 1.17588e-14 2.60022e-15 0.127041 -1.52918e-16 -3.32459e-17)
(6.95565e-15 -7.62723e-30 -2.38351e-31 10.1435 -6.27206e-15 -3.09377e-15 0.127041 -1.40654e-15 -4.04615e-17)
(3.496e-15 -1.44941e-29 -3.20397e-31 9.84274 1.09679e-14 2.50278e-15 0.125095 -1.43935e-16 -3.24054e-17)
(6.99199e-15 7.51791e-30 2.34935e-31 9.84274 -5.57788e-15 -3.07548e-15 0.125095 -1.41805e-15 -5.00934e-17)
(2.08577e-15 -7.41016e-30 -1.15784e-31 9.55513 1.00995e-14 2.41369e-15 0.123233 -1.36991e-16 -3.17054e-17)
(-2.08577e-15 3.70508e-30 2.31567e-31 9.55513 -5.84091e-15 -3.0884e-15 0.123233 -1.43871e-15 -5.96719e-17)
(2.90144e-16 -3.82103e-30 -7.38451e-32 9.27985 1.01436e-14 2.33233e-15 0.121448 -1.25417e-16 -3.10225e-17)
(-2.05588e-15 7.30395e-30 2.28248e-31 9.27985 -5.83329e-15 -3.14588e-15 0.121448 -1.46297e-15 -6.98856e-17)
(-3.5488e-15 1.77522e-29 3.03002e-31 9.01616 1.1046e-14 2.25916e-15 0.119737 -1.42175e-16 -3.04731e-17)
(7.0976e-15 -1.79982e-29 -3.37466e-31 9.01616 -6.11957e-15 -3.14884e-15 0.119737 -1.48669e-15 -8.02082e-17)
(-1.78294e-15 -7.66689e-32 3.77595e-32 8.76338 1.16554e-14 2.18794e-15 0.118096 -1.53406e-16 -2.99597e-17)
(0 7.09608e-30 1.10876e-31 8.76338 -6.19247e-15 -3.1364e-15 0.118096 -1.50839e-15 -9.03161e-17)
(-1.79135e-15 -3.52874e-30 -7.27639e-32 8.52088 1.16353e-14 2.12024e-15 0.116519 -1.63e-16 -2.94188e-17)
(7.1654e-15 1.39888e-29 2.18574e-31 8.52088 -4.61906e-15 -3.14092e-15 0.116519 -1.52874e-15 -1.00802e-16)
(-1.79965e-15 1.38031e-29 2.50724e-31 8.28809 1.13449e-14 2.05362e-15 0.115004 -1.57341e-16 -2.89596e-17)
(-1.94052e-15 -6.89413e-30 0 8.28809 -5.24142e-15 -3.17856e-15 0.115004 -1.53711e-15 -1.11757e-16)
(-3.61565e-15 1.71077e-29 2.80471e-31 8.06447 1.17924e-14 1.98735e-15 0.113548 -1.59603e-16 -2.84059e-17)
(-7.23131e-15 -1.0193e-29 -2.12354e-31 8.06447 -6.73625e-15 -3.21807e-15 0.113548 -1.56336e-15 -1.22999e-16)
(-3.6318e-15 -1.31928e-29 -1.43608e-31 7.84951 1.21978e-14 1.93329e-15 0.112147 -1.74727e-16 -2.7916e-17)
(1.45272e-14 1.67448e-29 2.0931e-31 7.84951 -6.73832e-15 -3.21186e-15 0.112147 -1.59148e-15 -1.3407e-16)
(-5.47161e-15 3.34435e-29 5.07399e-31 7.64275 1.2216e-14 1.88234e-15 0.110799 -1.76021e-16 -2.76723e-17)
(-7.29548e-15 -2.31067e-29 -4.1262e-31 7.64275 -8.14298e-15 -3.20314e-15 0.110799 -1.62007e-15 -1.45751e-16)
(-3.66338e-15 -1.60814e-29 -1.72967e-31 7.44376 1.25105e-14 1.83082e-15 0.1095 -1.80378e-16 -2.72367e-17)
(7.32695e-15 2.27756e-29 2.03353e-31 7.44376 -8.44747e-15 -3.16735e-15 0.1095 -1.66006e-15 -1.57203e-16)
(3.6449e-15 -1.3055e-29 -2.29629e-31 7.25213 1.20356e-14 1.78356e-15 0.108249 -1.89956e-16 -2.69471e-17)
(-1.80539e-15 9.62106e-30 2.00439e-31 7.25213 -8.40338e-15 -3.15313e-15 0.108249 -1.69078e-15 -1.68676e-16)
(0 -2.52884e-29 -1.97566e-31 7.06749 1.09142e-14 1.73115e-15 0.107042 -1.713e-16 -2.6605e-17)
(7.38876e-15 2.52884e-29 1.97566e-31 7.06749 -8.42272e-15 -3.11293e-15 0.107042 -1.72151e-15 -1.80697e-16)
(0 -3.11575e-30 -2.92101e-31 6.88948 1.17629e-14 1.68218e-15 0.105878 -1.61109e-16 -2.61284e-17)
(7.41911e-15 3.11575e-30 2.92101e-31 6.88948 -7.33442e-15 -3.02614e-15 0.105878 -1.75412e-15 -1.91555e-16)
(-3.45774e-15 1.22844e-29 1.91943e-31 6.71778 1.34581e-14 1.65242e-15 0.104755 -2.02741e-16 -2.58599e-17)
(5.72025e-15 -3.07109e-30 0 6.71778 -7.11607e-15 -2.99701e-15 0.104755 -1.78793e-15 -2.03141e-16)
(0 1.81624e-29 1.89192e-31 6.55208 1.29416e-14 1.62782e-15 0.10367 -2.19368e-16 -2.59536e-17)
(0 -1.81624e-29 -1.89192e-31 6.55208 -8.36384e-15 -2.98762e-15 0.10367 -1.8244e-15 -2.15093e-16)
(-3.75408e-15 6.81517e-30 4.69047e-32 6.3921 1.15333e-14 1.60078e-15 0.102623 -1.92129e-16 -2.58292e-17)
(0 0 0 6.3921 -8.49166e-15 -2.96128e-15 0.102623 -1.86914e-15 -2.2702e-16)
(0 -2.05865e-29 0 6.23755 1.027e-14 1.57827e-15 0.10161 -1.80011e-16 -2.58349e-17)
(7.5372e-15 2.05865e-29 0 6.23755 -6.03827e-15 -2.95316e-15 0.10161 -1.90595e-15 -2.3898e-16)
(0 8.69632e-30 0 6.08818 9.75758e-15 1.55576e-15 0.100631 -1.56094e-16 -2.58435e-17)
(4.30222e-15 -5.79755e-30 0 6.08818 -5.45497e-15 -3.00948e-15 0.100631 -1.93028e-15 -2.51109e-16)
(-1.8986e-15 3.39676e-30 1.98181e-32 5.94377 1.12373e-14 1.53991e-15 0.0996838 -1.68138e-16 -2.58384e-17)
(0 0 0 5.94377 -7.61829e-15 -3.05309e-15 0.0996838 -1.95926e-15 -2.63581e-16)
(1.90564e-15 2.24763e-30 -1.8477e-32 5.80407 1.16832e-14 1.52793e-15 0.0987674 -2.10898e-16 -2.60626e-17)
(0 0 8.80086e-32 5.80407 -8.53146e-15 -3.08257e-15 0.0987674 -2.00677e-15 -2.759e-16)
(0 -5.55182e-30 0 5.66889 1.11631e-14 1.50784e-15 0.0978803 -1.88423e-16 -2.61826e-17)
(0 5.55182e-30 0 5.66889 -8.15558e-15 -3.13725e-15 0.0978803 -2.04995e-15 -2.89204e-16)
(0 -1.09445e-29 -8.55039e-32 5.53802 1.15057e-14 1.4822e-15 0.0970213 -1.98901e-16 -2.61239e-17)
(0 1.09445e-29 0 5.53802 -7.23836e-15 -3.17377e-15 0.0970213 -2.09357e-15 -2.13028e-16)
(-8.1631e-16 -4.05129e-30 -5.5654e-32 5.41128 1.19914e-14 1.4611e-15 0.0961891 -2.06089e-16 -2.60409e-17)
(0 1.07876e-29 0 5.41128 -7.04155e-15 -3.24777e-15 0.0961891 -2.13601e-15 -1.30482e-16)
(-1.93317e-15 3.35777e-30 1.28515e-32 5.28848 1.26959e-14 1.44852e-15 0.0953826 -2.22195e-16 -2.613e-17)
(0 0 0 5.28848 -8.22102e-15 -3.31056e-15 0.0953826 -2.1794e-15 -6.04515e-17)
(1.93989e-15 -3.34934e-30 -9.17195e-33 5.16946 1.22802e-14 1.41523e-15 0.0946007 -2.37832e-16 -4.19262e-17)
(-1.07096e-14 0 1.57551e-31 5.16946 -7.56631e-15 -3.36211e-15 0.0946007 -2.23199e-15 -6.31327e-17)
(2.90775e-15 -5.16521e-30 -1.61413e-31 5.05406 1.17841e-14 1.36778e-15 0.0938426 -2.13314e-16 -9.78148e-17)
(-1.0694e-14 5.16521e-30 1.63815e-31 5.05406 -5.57043e-15 -3.50298e-15 0.0938426 -2.27577e-15 -6.75133e-17)
(-1.95318e-15 1.35232e-29 0 4.94213 1.18148e-14 1.34e-15 0.0931071 -2.26168e-16 -8.77256e-17)
(1.27593e-14 -5.09117e-30 -1.86912e-31 4.94213 -5.05247e-15 -3.58157e-15 0.0931071 -2.30445e-15 -6.79764e-17)
(1.95974e-15 1.17181e-29 0 4.83354 1.20485e-14 1.30676e-15 0.0923934 -2.20733e-16 -7.76654e-17)
(7.83895e-15 -2.00728e-29 -1.81766e-31 4.83354 -6.54469e-15 -3.57301e-15 0.0923934 -2.32947e-15 -6.91602e-17)
(0 4.94628e-30 0 4.72814 1.25738e-14 1.27476e-15 0.0917007 -2.41828e-16 -6.8129e-17)
(0 0 0 4.72814 -6.46147e-15 -3.61816e-15 0.0917007 -2.38473e-15 -7.17385e-17)
(-1.9727e-15 -1.13069e-29 0 4.6258 1.33661e-14 1.26161e-15 0.0910281 -2.47798e-16 -5.84451e-17)
(7.8908e-15 1.46262e-29 -1.96545e-31 4.6258 -5.30841e-15 -3.76914e-15 0.0910281 -2.42341e-15 -7.71935e-17)
(-4.68437e-15 1.29165e-29 -1.50172e-31 4.52642 1.47612e-14 1.26129e-15 0.0903748 -2.80441e-16 -4.78856e-17)
(-7.91643e-15 -4.80551e-30 3.54755e-31 4.52642 -6.8736e-15 -3.97516e-15 0.0903748 -2.47164e-15 -8.2157e-17)
(4.65196e-15 -8.02887e-30 0 4.42987 1.37658e-14 1.25341e-15 0.0897402 -3.11374e-16 -3.67299e-17)
(5.27537e-15 4.73664e-30 -2.14767e-31 4.42987 -6.55071e-15 -4.09261e-15 0.0897402 -2.52664e-15 -8.42648e-17)
(-1.99178e-15 2.19702e-29 -1.45898e-31 4.33604 1.22423e-14 1.22632e-15 0.0891235 -2.47888e-16 -2.55629e-17)
(7.96711e-15 -1.8675e-29 -7.85206e-32 4.33604 -5.62464e-15 -4.18351e-15 0.0891235 -2.55098e-15 -8.83407e-17)
(-1.99805e-15 3.28817e-30 0 4.24483 1.31227e-14 1.19816e-15 0.0885241 -2.57194e-16 -1.41184e-17)
(0 0 0 4.24483 -7.71482e-15 -4.29402e-15 0.0885241 -2.60634e-15 -9.1392e-17)
(-2.00427e-15 3.27641e-30 0 4.15614 1.39784e-14 1.17704e-15 0.0879413 -2.9226e-16 -2.90339e-18)
(0 4.53588e-30 -1.41746e-31 4.15614 -7.82837e-15 -4.37545e-15 0.0879413 -2.66339e-15 -9.44111e-17)
(-2.01045e-15 -1.01455e-29 2.79429e-31 4.06989 1.35321e-14 -3.53105e-16 0.0873745 -3.01328e-16 8.55098e-18)
(8.0418e-15 1.34126e-29 -5.37599e-31 4.06989 -5.70708e-15 -4.43038e-15 0.0873745 -2.69858e-15 -9.64526e-17)
(4.49739e-15 -1.20762e-29 0 3.98597 1.14127e-14 -7.93843e-15 0.0868232 -2.81456e-16 3.54081e-18)
(-2.4808e-15 8.81357e-30 0 3.98597 -5.49046e-15 -4.46686e-15 0.0868232 -2.73596e-15 -9.87825e-17)
(0 -4.34363e-30 0 3.9043 1.02e-14 -1.40362e-14 0.0862867 -2.16856e-16 -6.87022e-17)
(0 4.34363e-30 0 3.9043 -7.49781e-15 -4.46847e-15 0.0862867 -2.77867e-15 -9.93502e-17)
(-2.02875e-15 -1.02324e-30 0 3.82481 1.11518e-14 -1.40416e-14 0.0857647 -2.3554e-16 -1.4254e-16)
(0 8.56274e-30 0 3.82481 -6.73066e-15 -4.45952e-15 0.0857647 -2.84379e-15 -1.0127e-16)
(2.37565e-15 -2.11e-29 0 3.74742 1.22236e-14 -1.40396e-14 0.0852566 -2.66333e-16 -2.16861e-16)
(1.62782e-14 2.11e-29 -8.83154e-31 3.74742 -3.63651e-15 -4.47805e-15 0.0852566 -2.88787e-15 -1.03113e-16)
(0 4.15952e-30 0 3.67205 1.41386e-14 -1.39674e-14 0.0847618 -2.91712e-16 -2.92518e-16)
(8.16302e-15 4.15952e-30 -3.24165e-31 3.67205 -5.66351e-15 -4.44273e-15 0.0847618 -2.9108e-15 -1.02589e-16)
(-4.35475e-15 2.78168e-29 6.31169e-33 3.59863 1.50083e-14 -1.37532e-14 0.08428 -3.63446e-16 -3.22682e-16)
(-8.18681e-15 -2.04995e-29 5.9407e-31 3.59863 -7.72259e-15 -4.35309e-15 0.08428 -2.97737e-15 -1.01892e-16)
(2.22347e-16 1.53376e-29 -2.36492e-31 3.52709 1.28044e-14 -1.36693e-14 0.0838108 -3.41408e-16 -3.28814e-16)
(-8.21046e-15 -8.08229e-30 6.01354e-31 3.52709 -5.24304e-15 -4.36383e-15 0.0838108 -3.01992e-15 -1.0611e-16)
(2.24236e-15 7.96645e-30 2.48952e-31 3.45738 1.09492e-14 -1.36348e-14 0.0833536 -2.68299e-16 -3.30454e-16)
(-2.24236e-15 -3.98323e-30 0 3.45738 -3.60834e-15 -4.4705e-15 0.0833536 -3.03962e-15 -2.92874e-16)
(2.21022e-15 7.85227e-30 2.45383e-31 3.38942 1.19147e-14 -1.36229e-14 0.0829082 -2.61051e-16 -3.37857e-16)
(6.04715e-15 -3.92614e-30 9.14431e-32 3.38942 -4.94579e-15 -4.54617e-15 0.0829082 -3.08221e-15 -5.13257e-16)
(-2.28693e-15 2.38987e-29 1.9397e-31 3.32317 1.34256e-14 -1.35192e-14 0.0824741 -3.23865e-16 -3.34937e-16)
(0 -1.93493e-29 0 3.32317 -7.36025e-15 -4.56893e-15 0.0824741 -3.13509e-15 -7.38156e-16)
(-2.14732e-15 -3.05152e-29 -2.384e-31 3.25856 1.35894e-14 -1.332e-14 0.0820509 -3.44442e-16 -3.37623e-16)
(1.87548e-14 3.05152e-29 2.384e-31 3.25856 -6.39059e-15 -4.52479e-15 0.0820509 -3.2038e-15 -8.47463e-16)
(2.11654e-15 -7.51946e-30 -2.34983e-31 3.19554 1.30282e-14 -1.3325e-14 0.0816383 -3.41681e-16 -3.45007e-16)
(1.66535e-14 7.51946e-30 0 3.19554 -6.1148e-15 -4.48396e-15 0.0816383 -3.23507e-15 -8.75679e-16)
(-4.17481e-15 2.60885e-30 1.59446e-31 3.13406 1.24172e-14 -1.32814e-14 0.081236 -3.25576e-16 -3.45231e-16)
(0 3.70584e-30 0 3.13406 -7.52065e-15 -4.46563e-15 0.081236 -3.28172e-15 -9.04517e-16)
(-2.0931e-15 3.14716e-30 9.06314e-32 3.07407 1.30814e-14 -1.31449e-14 0.0808437 -3.19705e-16 -3.47866e-16)
(1.67448e-14 3.65273e-30 0 3.07407 -6.29281e-15 -4.38566e-15 0.0808437 -3.34433e-15 -9.33081e-16)
(7.19297e-17 -1.03283e-29 -1.02158e-31 3.01552 1.31419e-14 -1.29702e-14 0.080461 -3.70386e-16 -3.45927e-16)
(2.02683e-15 7.20075e-30 0 3.01552 -6.5591e-15 -4.32796e-15 0.080461 -3.38547e-15 -9.62619e-16)
(-2.1044e-15 6.67147e-30 1.22359e-31 2.95836 1.20801e-14 -1.15504e-14 0.0800876 -3.3233e-16 -2.80441e-16)
(0 0 0 2.95836 -7.18256e-15 -4.29559e-15 0.0800876 -3.46109e-15 -9.92325e-16)
(-2.11e-15 1.01099e-29 1.31324e-31 2.90256 1.24223e-14 -1.01677e-14 0.0797233 -3.23192e-16 -2.79377e-16)
(8.44001e-15 -6.99582e-30 0 2.90256 -5.75885e-15 -4.15267e-15 0.0797233 -3.53478e-15 -1.02079e-15)
(-2.11558e-15 9.99274e-30 5.71091e-31 2.84808 1.30458e-14 -1.00029e-14 0.0793678 -3.61044e-16 -2.79388e-16)
(6.52141e-15 -3.44778e-30 0 2.84808 -5.36129e-15 -3.99617e-15 0.0793678 -3.5758e-15 -1.05002e-15)
(-4.24228e-15 6.17111e-30 2.98151e-31 2.79486 1.31934e-14 -9.82972e-15 0.0790208 -3.67745e-16 -2.77672e-16)
(0 0 0 2.79486 -6.20251e-15 -3.85866e-15 0.0790208 -3.6377e-15 -1.07863e-15)
(-2.12667e-15 1.31216e-29 5.75828e-31 2.74287 1.23576e-14 -9.73208e-15 0.078682 -3.80044e-16 -2.81918e-16)
(-1.88569e-15 -3.34965e-30 4.18707e-31 2.74287 -7.54232e-15 -3.69675e-15 0.078682 -3.71326e-15 -1.10411e-15)
(3.71732e-15 -1.32066e-29 -4.12705e-31 2.69208 1.14247e-14 -9.77058e-15 0.0783513 -3.30111e-16 -2.88068e-16)
(-8.5287e-15 9.90493e-30 4.12705e-31 2.69208 -7.01842e-15 -3.56743e-15 0.0783513 -3.7865e-15 -1.12941e-15)
(2.13766e-15 -6.31457e-30 -9.88382e-31 2.64245 1.25467e-14 -9.63863e-15 0.0780284 -3.36368e-16 -2.8231e-16)
(8.55063e-15 3.25432e-30 8.13581e-31 2.64245 -5.87094e-15 -3.47929e-15 0.0780284 -3.84143e-15 -1.15535e-15)
(2.14312e-15 -1.2662e-29 -5.84634e-31 2.59395 1.20594e-14 -9.38994e-15 0.077713 -4.06663e-16 -2.81467e-16)
(-8.57246e-15 9.62304e-30 4.0096e-31 2.59395 -5.39158e-15 -3.41925e-15 0.077713 -3.92274e-15 -1.18188e-15)
(-3.68669e-16 9.3664e-30 5.86967e-31 2.54653 9.59818e-15 -9.30894e-15 0.0774049 -3.16748e-16 -2.8561e-16)
(6.81432e-15 0 0 2.54653 -2.52325e-15 -3.34412e-15 0.0774049 -3.98064e-15 -1.20881e-15)
(0 6.23278e-30 0 2.50018 9.34676e-15 -9.2201e-15 0.077104 -2.67563e-16 -2.84182e-16)
(0 -3.11639e-30 0 2.50018 -3.15135e-16 -3.27025e-15 0.077104 -3.99197e-15 -1.23458e-15)
(0 9.21517e-30 1.53586e-30 2.45486 1.03128e-14 -9.09175e-15 0.07681 -3.10376e-16 -2.85871e-16)
(5.17896e-15 -3.07172e-30 0 2.45486 -1.05489e-15 -3.18693e-15 0.07681 -4.02182e-15 -1.26136e-15)
(2.16472e-15 -9.07015e-30 -1.73116e-30 2.41053 9.13001e-15 -9.06219e-15 0.0765227 -3.36408e-16 -2.90612e-16)
(0 6.0554e-30 1.51385e-30 2.41053 -3.32664e-15 -2.91423e-15 0.0765227 -4.05958e-15 -1.28747e-15)
(0 5.96861e-30 1.49215e-30 2.36718 6.933e-15 -9.19369e-15 0.076242 -2.43686e-16 -3.02793e-16)
(-8.68029e-15 -5.96861e-30 0 2.36718 -3.65425e-15 -2.26623e-15 0.076242 -4.12588e-15 -1.3088e-15)
(0 2.94153e-30 7.35383e-31 2.32477 7.74628e-15 -9.08738e-15 0.0759676 -2.03447e-16 -2.92114e-16)
(0 5.88306e-30 0 2.32477 -3.1203e-15 -3.29419e-16 0.0759676 -4.1581e-15 -1.32366e-15)
(3.2644e-15 2.89937e-30 0 2.28328 8.64694e-15 -8.9311e-15 0.0756994 -3.0446e-16 -3.01206e-16)
(-3.2644e-15 -2.89937e-30 0 2.28328 -3.48297e-15 1.19659e-15 0.0756994 -4.19618e-15 -1.31278e-15)
(2.186e-15 8.43735e-30 4.61103e-31 2.24269 7.63847e-15 -9.03474e-15 0.0754372 -2.69668e-16 -3.07707e-16)
(0 -1.14313e-29 -7.14454e-31 2.24269 -2.26509e-15 1.13346e-15 0.0754372 -4.24433e-15 -1.3041e-15)
(5.36277e-15 2.6422e-30 -2.61638e-31 2.20296 6.85907e-15 -9.17231e-15 0.0751808 -2.44922e-16 -3.19503e-16)
(-3.1715e-15 -2.81686e-30 0 2.20296 -1.10092e-15 1.14845e-15 0.0751808 -4.25861e-15 -1.30804e-15)
(-4.39304e-15 1.15314e-29 5.46673e-31 2.16408 6.58635e-15 -9.09884e-15 0.0749302 -2.23891e-16 -3.11588e-16)
(8.78608e-15 -5.55297e-30 0 2.16408 -1.82264e-15 1.32971e-15 0.0749302 -4.28462e-15 -1.32295e-15)
(-2.20175e-15 2.98175e-30 2.84132e-31 2.12601 6.47415e-15 -8.79516e-15 0.074685 -2.33042e-16 -3.07336e-16)
(0 5.47338e-30 6.84172e-31 2.12601 -3.32234e-15 1.43357e-15 0.074685 -4.32814e-15 -1.33905e-15)
(0 5.39493e-30 0 2.08875 6.22041e-15 -8.76242e-15 0.0744453 -2.22497e-16 -3.1836e-16)
(0 -5.39493e-30 0 2.08875 -2.19265e-15 1.43197e-15 0.0744453 -4.36523e-15 -1.35389e-15)
(0 7.97641e-30 6.64701e-31 2.05226 7.18741e-15 -9.00367e-15 0.0742108 -2.21621e-16 -3.33942e-16)
(-2.99355e-15 -5.31761e-30 0 2.05226 -8.29619e-16 1.38387e-15 0.0742108 -4.37323e-15 -1.36724e-15)
(0 1.04828e-29 1.31035e-30 2.01654 8.91238e-15 -9.13518e-15 0.0739814 -2.99569e-16 -3.37421e-16)
(-2.95064e-15 -5.24139e-30 0 2.01654 -9.2652e-16 1.46887e-15 0.0739814 -4.42081e-15 -1.38014e-15)
(0 5.16627e-30 -4.53943e-29 1.98155 8.51661e-15 -1.95056e-15 0.0737569 -3.55801e-16 -3.63573e-17)
(1.48718e-14 0 -6.45784e-31 1.98155 -8.9248e-16 1.67267e-15 0.0737569 -4.4547e-15 -1.39187e-15)
(-4.45532e-15 5.90071e-30 0 1.94728 6.93968e-15 0 0.0735373 -2.78622e-16 -3.9443e-31)
(8.91065e-15 0 0 1.94728 -2.7284e-15 1.72365e-15 0.0735373 -4.45815e-15 -1.40435e-15)
(2.23279e-15 -7.96925e-30 -1.59457e-30 1.9137 8.049e-15 4.93058e-15 0.0733224 -2.46074e-16 -1.89268e-16)
(2.82558e-15 5.01924e-30 1.25481e-30 1.9137 -4.40146e-15 1.65773e-15 0.0733224 -4.52694e-15 -1.42013e-15)
(0 4.9473e-30 0 1.88081 9.35424e-15 4.68689e-15 0.0731121 -3.72534e-16 -1.89113e-16)
(-8.95165e-15 0 6.18413e-31 1.88081 -3.21333e-15 1.72545e-15 0.0731121 -4.6053e-15 -1.43399e-15)
(-4.98818e-15 -6.82893e-30 -1.49953e-30 1.84859 8.67593e-15 4.60039e-15 0.0729062 -3.55644e-16 -1.75701e-16)
(1.17172e-14 9.75279e-30 2.4382e-30 1.84859 -1.99085e-15 1.77568e-15 0.0729062 -4.63573e-15 -1.44565e-15)
(2.70582e-15 9.61301e-30 6.00813e-31 1.81701 9.12646e-15 4.64583e-15 0.0727047 -3.29477e-16 -1.8777e-16)
(-2.70582e-15 -4.8065e-30 0 1.81701 -3.19421e-15 1.63328e-15 0.0727047 -4.66999e-15 -1.46036e-15)
(0 -9.47523e-30 -5.92202e-31 1.78606 9.14547e-15 4.40508e-15 0.0725074 -4.0243e-16 -1.84516e-16)
(0 9.47523e-30 0 1.78606 -4.64896e-15 1.47092e-15 0.0725074 -4.74359e-15 -1.47542e-15)
(-2.25823e-15 2.89702e-30 3.11599e-31 1.75573 7.19406e-15 4.37092e-15 0.0723143 -3.40686e-16 -1.73554e-16)
(0 0 0 1.75573 -4.43788e-15 1.66504e-15 0.0723143 -4.83121e-15 -1.48951e-15)
(-1.93541e-15 -1.26159e-29 -1.69432e-30 1.726 5.93394e-15 4.80261e-15 0.0721251 -2.52084e-16 -1.87083e-16)
(2.06973e-14 1.38083e-29 2.30139e-30 1.726 -3.77232e-15 1.86507e-15 0.0721251 -4.89695e-15 -1.4964e-15)
(2.554e-15 9.07362e-30 5.67102e-31 1.69685 6.51006e-15 5.01395e-15 0.0719399 -2.44445e-16 -2.15027e-16)
(-2.554e-15 -4.53681e-30 0 1.69685 -3.93098e-15 1.69439e-15 0.0719399 -4.93745e-15 -1.51007e-15)
(-2.51739e-15 8.94358e-30 1.11795e-30 1.66827 7.72158e-15 4.62066e-15 0.0717585 -3.08738e-16 -2.10637e-16)
(-2.51739e-15 -4.47179e-30 0 1.66827 -3.73185e-15 1.75482e-15 0.0717585 -5.01413e-15 -1.52081e-15)
(-6.83498e-15 -1.34708e-29 -1.35328e-30 1.64025 7.90951e-15 4.71137e-15 0.0715808 -3.56721e-16 -1.87203e-16)
(2.07079e-14 2.20385e-29 2.20385e-30 1.64025 -2.74639e-15 2.11512e-15 0.0715808 -5.08933e-15 -1.5252e-15)
(0 -2.17226e-29 -2.71533e-30 1.61278 7.89223e-15 5.16728e-15 0.0714068 -3.34325e-16 -2.24792e-16)
(1.82665e-14 2.17226e-29 2.71533e-30 1.61278 -3.84857e-15 1.96007e-15 0.0714068 -5.11668e-15 -1.53032e-15)
(-2.2883e-15 1.13978e-29 7.97413e-31 1.58583 8.65648e-15 4.97368e-15 0.0712363 -3.65627e-16 -2.33401e-16)
(0 -4.28225e-30 -5.35282e-31 1.58583 -5.20699e-15 1.73073e-15 0.0712363 -5.20336e-15 -1.54297e-15)
(2.29326e-15 -1.5477e-29 -1.84083e-30 1.5594 8.68884e-15 4.70052e-15 0.0710692 -4.13362e-16 -2.13836e-16)
(1.83461e-14 1.26626e-29 1.58283e-30 1.5594 -3.11394e-15 2.13572e-15 0.0710692 -5.31639e-15 -1.54212e-15)
(0 -1.24811e-29 -1.56014e-30 1.53348 8.63597e-15 4.71735e-15 0.0709055 -3.79312e-16 -2.1513e-16)