/*--------------------------------*- C++ -*----------------------------------*\
| =========                 |                                                 |
| \\      /  F ield         | OpenFOAM: The Open Source CFD Toolbox           |
|  \\    /   O peration     | Version:  2012                                  |
|   \\  /    A nd           | Website:  www.openfoam.com                      |
|    \\/     M anipulation  |                                                 |
\*---------------------------------------------------------------------------*/
FoamFile
{
    version     2.0;
    format      ascii;
    class       volTensorField;
    location    "18000";
    object      grad(U);
}
// * * * * * * * * * * * * * * * * * * * * * * * * * * * * * * * * * * * * * //

dimensions      [0 0 -1 0 0 0 0];


internalField   nonuniform List<tensor> 
1280
(
(1.8364e-17 -2.08774e-30 -5.1178e-43 32.5769 -5.99546e-12 -1.82312e-49 0.0939262 -1.07474e-14 -3.68801e-27)
(0 2.08774e-30 1.22329e-32 32.5769 -5.60107e-16 1.13214e-14 0.0939262 -2.17828e-17 2.76887e-16)
(0 -3.25442e-26 2.76706e-27 32.5674 -1.16308e-12 6.00272e-14 0.284484 -6.90292e-15 3.56263e-16)
(3.56794e-17 -6.1463e-28 7.60552e-31 32.5674 5.64484e-17 1.00901e-14 0.284484 3.35022e-19 1.16231e-15)
(1.97282e-16 -7.00649e-46 5.59619e-31 32.5576 1.11573e-31 3.30417e-14 0.403601 -3.15544e-30 4.52597e-16)
(-2.65877e-17 1.18214e-29 -4.9256e-31 32.5576 1.98064e-15 9.60294e-16 0.403601 2.53556e-17 1.22998e-15)
(0 -1.5312e-29 7.17748e-31 32.5475 3.87249e-13 3.74895e-14 0.41533 -8.44806e-15 4.91043e-16)
(2.9649e-16 1.91399e-29 -7.17748e-31 32.5475 3.81943e-15 8.51741e-16 0.41533 4.3044e-17 1.30053e-15)
(1.95047e-16 -1.42241e-29 3.08556e-31 32.5369 3.23109e-14 3.92715e-14 0.427393 -1.18841e-15 5.26412e-16)
(1.25985e-16 1.11632e-29 -2.32419e-31 32.5369 3.6796e-15 7.77685e-16 0.427393 4.8003e-17 1.37428e-15)
(-9.21413e-17 1.04439e-29 -8.77643e-32 32.5258 -2.09923e-14 4.09318e-14 0.439797 -1.82447e-16 5.65233e-16)
(3.68565e-16 -7.20804e-30 0 32.5258 3.59914e-15 7.02063e-16 0.439797 4.79351e-17 1.45126e-15)
(1.26064e-16 -7.2885e-30 3.38145e-31 32.5137 -9.11399e-15 4.26437e-14 0.452545 -6.59492e-17 6.05471e-16)
(4.83557e-16 7.04867e-30 -2.19338e-31 32.5137 3.3663e-15 6.2889e-16 0.452545 4.43829e-17 1.53154e-15)
(0 6.81846e-30 -6.3923e-31 32.5 -5.55959e-15 4.4315e-14 0.465633 -9.14554e-17 6.46842e-16)
(0 -3.40923e-30 2.13077e-31 32.5 3.10933e-15 5.45415e-16 0.465633 4.3429e-17 1.61528e-15)
(5.21323e-17 -2.9884e-29 1.94021e-30 32.4836 -7.13359e-15 4.59466e-14 0.479052 -1.1632e-16 6.89717e-16)
(7.23689e-16 3.64839e-29 -2.48393e-30 32.4836 2.9075e-15 4.55053e-16 0.479052 4.10752e-17 1.7024e-15)
(4.3866e-16 -9.67021e-30 9.50562e-31 32.463 -8.18106e-15 4.75492e-14 0.492776 -1.28721e-16 7.34087e-16)
(8.49034e-16 6.49636e-30 -1.20651e-30 32.463 2.82269e-15 3.74907e-16 0.492776 4.34432e-17 1.79285e-15)
(4.39876e-16 -1.2502e-29 3.90688e-31 32.4356 -8.5234e-15 4.91055e-14 0.506764 -1.33959e-16 7.79505e-16)
(5.38165e-16 1.25704e-29 -7.81376e-31 32.4356 3.01881e-15 2.74033e-16 0.506764 4.96559e-17 1.88666e-15)
(1.49613e-16 2.05648e-31 1.33458e-30 32.3979 -8.03786e-15 5.05807e-14 0.520949 -1.20773e-16 8.2534e-16)
(1.11082e-15 3.1234e-30 -1.51814e-30 32.3979 2.71028e-15 1.55989e-16 0.520949 3.61051e-17 1.98335e-15)
(8.30239e-16 -8.8488e-30 1.4748e-30 32.3449 -7.22281e-15 5.19282e-14 0.535231 -1.14948e-16 8.70633e-16)
(1.24749e-15 8.95097e-30 -1.4748e-30 32.3449 1.93093e-15 5.68154e-17 0.535231 2.67999e-17 2.08262e-15)
(-3.47035e-16 -5.35023e-30 4.88606e-31 32.2701 -7.01504e-15 5.30814e-14 0.549466 -1.20891e-16 9.13884e-16)
(1.38814e-15 2.97737e-30 -3.58174e-31 32.2701 1.54574e-15 -5.11385e-17 0.549466 2.5123e-17 2.18407e-15)
(-3.8322e-16 4.65801e-31 9.50522e-32 32.1649 -6.73766e-15 5.39553e-14 0.56346 -1.12066e-16 9.53231e-16)
(0 5.56719e-30 -1.04385e-30 32.1649 1.20943e-15 -1.95016e-16 0.56346 1.6593e-17 2.28691e-15)
(7.61144e-16 -8.11238e-30 0 32.0191 -6.48324e-15 5.44589e-14 0.576965 -1.18907e-16 9.86582e-16)
(0 8.11238e-30 0 32.0191 8.36032e-16 -3.47386e-16 0.576965 1.31287e-17 2.38993e-15)
(-4.58716e-16 1.11326e-29 -1.6237e-30 31.8203 -6.52324e-15 5.44852e-14 0.589671 -1.20237e-16 1.01106e-15)
(0 0 0 31.8203 4.19082e-30 -4.93013e-16 0.589671 0 2.49164e-15)
(4.9803e-16 -8.36053e-30 9.80697e-31 31.5551 -5.84168e-15 5.39333e-14 0.601218 -9.99021e-17 1.02429e-15)
(0 -6.79662e-30 -1.27597e-30 31.5551 -5.82981e-17 -6.3292e-16 0.601218 5.49965e-19 2.59024e-15)
(6.978e-16 -9.91634e-30 1.23954e-30 31.2094 -4.99397e-15 5.27261e-14 0.611212 -9.39962e-17 1.02377e-15)
(1.45564e-15 1.00584e-29 -1.85931e-30 31.2094 -3.5223e-16 -7.71708e-16 0.611212 5.27524e-17 2.6838e-15)
(-5.79656e-16 3.26124e-30 -4.15119e-31 30.7702 -4.44477e-15 5.08127e-14 0.619252 -8.35772e-17 1.00774e-15)
(2.31862e-15 1.09878e-31 -1.20416e-30 30.7702 -8.44948e-16 -9.21236e-16 0.619252 1.27331e-16 2.77e-15)
(0 9.35824e-30 -2.33956e-30 30.2267 -4.00641e-15 4.81984e-14 0.624964 -8.12938e-17 9.75644e-16)
(-2.48733e-15 -4.73903e-30 1.16978e-30 30.2267 -1.57822e-15 -1.10997e-15 0.624964 2.27371e-16 2.84661e-15)
(0 -9.09108e-30 2.84096e-30 29.5723 -3.61773e-15 4.49532e-14 0.628049 -7.18517e-17 9.28323e-16)
(2.65908e-15 1.36538e-29 -2.84096e-30 29.5723 -1.88524e-15 -1.28466e-15 0.628049 3.06598e-16 2.91074e-15)
(-7.08313e-16 -5.56574e-30 -5.36189e-31 28.8059 -3.24672e-15 4.11986e-14 0.628316 -6.97225e-17 8.67667e-16)
(0 1.32473e-29 -1.10394e-30 28.8059 -2.74132e-15 -1.40435e-15 0.628316 3.42802e-16 2.96063e-15)
(0 -1.28691e-29 2.14486e-30 27.9323 -3.40781e-15 3.71078e-14 0.625707 -8.34753e-17 7.97322e-16)
(0 1.71589e-29 -2.14486e-30 27.9323 -2.8232e-15 -1.50668e-15 0.625707 3.46935e-16 2.99483e-15)
(-4.19902e-16 -1.84591e-29 1.89316e-30 26.9625 -2.99074e-15 3.28964e-14 0.620309 -5.4322e-17 7.2192e-16)
(2.01278e-15 2.50035e-29 -3.12544e-30 26.9625 -2.51482e-15 -1.62856e-15 0.620309 3.58479e-16 3.01316e-15)
(-1.98008e-15 3.16171e-29 -7.73766e-30 25.9126 -1.53718e-15 2.8775e-14 0.61234 -1.82861e-17 6.45921e-16)
(-2.22286e-15 -2.8338e-29 7.0845e-30 25.9126 -3.89112e-15 -1.79119e-15 0.61234 3.70989e-16 3.0152e-15)
(-8.84496e-16 1.82169e-44 -6.87294e-31 24.8021 2.69755e-28 2.49193e-14 0.602121 0 5.73375e-16)
(0 0 0 24.8021 -5.31433e-15 -1.87265e-15 0.602121 3.65863e-16 3.00088e-15)
(1.07536e-15 -2.67431e-29 5.73067e-30 23.6522 1.36778e-16 2.14669e-14 0.590038 -5.34296e-18 5.07849e-16)
(2.63645e-15 2.67431e-29 -5.73067e-30 23.6522 -5.26973e-15 -1.83489e-15 0.590038 3.57157e-16 2.97208e-15)
(1.04466e-15 -1.85569e-29 5.56707e-30 22.4837 1.05448e-16 1.84961e-14 0.576505 -1.49645e-18 4.5114e-16)
(2.83843e-15 1.85569e-29 -5.56707e-30 22.4837 -5.21725e-15 -1.88762e-15 0.576505 3.50892e-16 2.93171e-15)
(-2.0256e-15 1.12086e-29 -2.44143e-30 21.3159 3.00422e-16 1.60422e-14 0.561927 -4.01195e-18 4.05131e-16)
(3.03636e-15 -7.21085e-30 0 21.3159 -5.47221e-15 -1.96908e-15 0.561927 3.33424e-16 2.87928e-15)
(-1.05391e-15 3.27168e-30 -7.91443e-31 20.1652 2.37351e-15 1.40989e-14 0.54668 -4.43197e-17 3.69613e-16)
(4.21563e-15 0 0 20.1652 -5.98457e-15 -2.00793e-15 0.54668 3.20284e-16 2.81831e-15)
(-1.094e-15 1.00663e-29 -2.51153e-30 19.0448 3.70656e-15 1.26279e-14 0.53109 -8.68086e-17 3.44809e-16)
(0 -3.40251e-30 8.50627e-31 19.0448 -6.57763e-15 -1.6511e-15 0.53109 2.98294e-16 2.74879e-15)
(1.53833e-15 6.77312e-30 -8.23739e-31 17.9647 4.0335e-15 1.15584e-14 0.515428 -1.23526e-16 3.28425e-16)
(4.53212e-15 -1.98323e-29 5.65015e-30 17.9647 -6.10824e-15 -7.77293e-16 0.515428 2.90484e-16 2.67791e-15)
(-1.17095e-15 3.91228e-32 1.56596e-30 16.9321 3.55937e-15 1.08238e-14 0.499913 -1.11315e-16 3.20663e-16)
(0 6.42203e-30 -3.21101e-30 16.9321 -6.23696e-15 -4.94982e-16 0.499913 2.96601e-16 2.61045e-15)
(-1.20775e-15 6.36862e-30 -2.41565e-30 15.9511 3.76606e-15 1.03903e-14 0.484712 -1.02038e-16 3.20854e-16)
(3.07495e-15 0 7.79836e-31 15.9511 -6.88984e-15 -4.31961e-16 0.484712 2.77235e-16 2.5373e-15)
(1.24343e-15 -1.23334e-29 4.65664e-30 15.0241 4.41598e-15 1.01901e-14 0.469945 -1.30902e-16 3.26871e-16)
(4.97371e-15 9.09088e-30 -4.54544e-30 15.0241 -6.44247e-15 -2.48088e-16 0.469945 2.62293e-16 2.4649e-15)
(0 -2.35503e-29 5.88757e-30 14.1516 4.95331e-15 1.01769e-14 0.455698 -1.50036e-16 3.39116e-16)
(5.11206e-15 2.35503e-29 -5.88757e-30 14.1516 -6.6693e-15 -2.99225e-16 0.455698 2.51201e-16 2.39293e-15)
(-1.31153e-15 2.61057e-29 -6.60911e-30 13.3329 5.57349e-15 1.03119e-14 0.442026 -1.7438e-16 3.55591e-16)
(-5.24613e-15 -2.2878e-29 5.71949e-30 13.3329 -8.39855e-15 -4.71631e-16 0.442026 2.15311e-16 2.31887e-15)
(-2.19918e-16 5.11635e-30 -1.88232e-30 12.5665 5.93705e-15 1.05333e-14 0.42896 -2.01364e-16 3.74912e-16)
(-5.37607e-15 -5.55622e-30 1.38905e-30 12.5665 -8.98281e-15 -5.92966e-16 0.42896 1.6815e-16 2.23477e-15)
(-4.41409e-15 1.13057e-29 -4.95062e-30 11.8501 6.11179e-15 1.08181e-14 0.416511 -2.10354e-16 3.9742e-16)
(5.50204e-15 -5.3976e-30 7.24045e-30 11.8501 -8.233e-15 -2.0567e-16 0.416511 1.27794e-16 2.14888e-15)
(-2.81211e-15 -4.09018e-30 2.11418e-30 11.1811 6.92389e-15 1.11636e-14 0.40468 -2.26025e-16 4.23026e-16)
(1.12484e-14 5.24351e-30 2.86928e-31 11.1811 -8.17372e-15 1.56231e-29 0.40468 7.09504e-17 2.06753e-15)
(-1.43569e-15 -1.91346e-30 -9.16507e-31 10.5569 7.97301e-15 1.15371e-14 0.393455 -2.83432e-16 4.49775e-16)
(5.74276e-15 5.09382e-30 0 10.5569 -9.38049e-15 -1.52835e-16 0.393455 1.82065e-17 1.98746e-15)
(0 9.8968e-30 -3.7113e-30 9.9746 8.08846e-15 1.19071e-14 0.382819 -3.20004e-16 4.77477e-16)
(-1.39285e-15 -4.9484e-30 1.2371e-30 9.9746 -9.31772e-15 -4.05141e-16 0.382819 -5.15801e-17 1.90433e-15)
(-2.98486e-15 1.51764e-30 -3.06951e-30 9.43135 7.21272e-15 1.22827e-14 0.37275 -3.09454e-16 5.07141e-16)
(5.96972e-15 9.61426e-30 -1.20178e-30 9.43135 -8.06665e-15 -4.34038e-16 0.37275 -1.15114e-16 1.82042e-15)
(-4.55885e-15 1.88285e-29 -8.66829e-30 8.92443 6.26563e-15 1.26731e-14 0.363223 -2.67885e-16 5.38628e-16)
(0 -9.3398e-30 5.83737e-30 8.92443 -7.86241e-15 -2.65051e-16 0.363223 -1.61686e-16 1.73717e-15)
(7.38661e-16 -2.75285e-30 3.76189e-30 8.45122 7.43091e-15 1.30589e-14 0.354211 -2.48642e-16 5.70622e-16)
(9.8147e-15 1.36097e-29 -5.67073e-30 8.45122 -8.64375e-15 -1.33068e-16 0.354211 -2.04382e-16 1.65728e-15)
(9.09129e-16 3.12877e-30 2.49672e-29 8.00924 9.96276e-15 -5.02205e-29 0.345687 -3.84255e-16 0)
(-2.48096e-15 4.40707e-30 -4.40707e-30 8.00924 -1.07357e-14 -2.13618e-16 0.345687 -3.08382e-16 1.57798e-15)
(-1.59694e-15 3.09719e-30 5.6968e-32 7.59616 1.03633e-14 -5.84378e-15 0.337624 -4.88011e-16 1.92165e-16)
(0 4.28126e-30 -2.14063e-30 7.59616 -1.08926e-14 -3.99847e-16 0.337624 -4.56792e-16 1.49798e-15)
(2.34133e-15 -8.31808e-30 3.11928e-30 7.20981 9.49962e-15 -7.25407e-15 0.329996 -4.43736e-16 3.3568e-16)
(0 8.31808e-30 -4.15904e-30 7.20981 -8.62474e-15 -4.11233e-16 0.329996 -5.87e-16 1.41698e-15)
(-2.90366e-15 5.01093e-30 -2.06696e-30 6.84816 9.33885e-15 -6.72619e-15 0.322775 -4.35951e-16 3.36157e-16)
(6.5813e-15 0 1.01008e-30 6.84816 -6.80405e-15 -2.82612e-16 0.322775 -7.06263e-16 1.33709e-15)
(-3.87823e-15 1.09012e-29 -4.87819e-30 6.50937 8.56709e-15 -6.04609e-15 0.315939 -4.54647e-16 3.04633e-16)
(1.33494e-14 -3.92496e-30 1.96248e-30 6.50937 -7.42404e-15 -2.27125e-16 0.315939 -7.66458e-16 1.25659e-15)
(0 -1.14387e-29 1.90646e-30 6.1917 7.78463e-15 -5.72548e-15 0.309462 -3.85099e-16 2.88481e-16)
(0 1.14387e-29 -2.85969e-30 6.1917 -8.0567e-15 -2.15749e-16 0.309462 -9.01422e-16 1.1773e-15)
(0 -1.85203e-29 5.5561e-30 5.89359 7.90026e-15 -5.31466e-15 0.303324 -4.01554e-16 2.89936e-16)
(1.37105e-14 1.85203e-29 -6.61115e-30 5.89359 -6.2428e-15 -8.37809e-17 0.303324 -9.97723e-16 1.09708e-15)
(-1.73567e-15 6.61179e-30 -1.86828e-32 5.61358 9.55084e-15 -4.68615e-15 0.297503 -4.20266e-16 2.62337e-16)
(6.94269e-15 0 -2.69874e-30 5.61358 -6.79091e-15 -1.87138e-16 0.297503 -1.04556e-15 1.01904e-15)
(-2.10764e-16 5.3228e-31 -3.46097e-30 5.35033 1.14195e-14 -4.22266e-15 0.291979 -6.04786e-16 2.38959e-16)
(0 0 1.7478e-30 5.35033 -8.96767e-15 -3.43377e-16 0.291979 -1.18439e-15 9.33242e-16)
(-7.24588e-15 1.89921e-29 -6.09e-30 5.10261 1.11521e-14 -3.71719e-15 0.286734 -6.54264e-16 2.26158e-16)
(1.91167e-15 -1.01874e-29 3.3958e-30 5.10261 -9.68778e-15 -3.16843e-16 0.286734 -1.31377e-15 8.46103e-16)
(1.85709e-15 1.31954e-29 -4.94829e-30 4.86932 1.08875e-14 -3.20012e-15 0.281751 -6.10082e-16 1.95032e-16)
(-1.85709e-15 -1.31954e-29 7.5595e-30 4.86932 -9.23607e-15 -3.5167e-18 0.281751 -1.45448e-15 7.59926e-16)
(0 -9.61405e-30 2.40351e-30 4.64941 1.10038e-14 -2.78684e-15 0.277014 -6.61932e-16 1.78383e-16)
(7.27546e-15 9.61405e-30 -3.20468e-30 4.64941 -8.57634e-15 -2.06514e-17 0.277014 -1.59388e-15 6.76923e-16)
(3.59129e-15 6.46652e-30 -3.01612e-30 4.44194 1.1103e-14 -2.4471e-15 0.272508 -6.60648e-16 1.56259e-16)
(-1.75257e-15 -6.2264e-30 1.5566e-30 4.44194 -8.75401e-15 -1.14672e-16 0.272508 -1.71662e-15 5.90711e-16)
(-1.85822e-15 5.8668e-30 -8.67185e-31 4.24604 1.12617e-14 -1.95415e-15 0.268218 -7.13855e-16 1.4637e-16)
(7.43287e-15 -3.02432e-30 0 4.24604 -7.88207e-15 -1.63207e-16 0.268218 -1.82893e-15 5.00572e-16)
(1.65394e-15 8.81395e-30 -4.40698e-30 4.06091 1.09551e-14 -2.56464e-15 0.264131 -7.20563e-16 1.01871e-16)
(-1.65394e-15 -5.87597e-30 2.93798e-30 4.06091 -7.69489e-15 -4.6975e-16 0.264131 -1.92182e-15 4.16657e-16)
(3.21344e-15 -2.85411e-30 0 3.88582 1.12619e-14 -3.94599e-15 0.260236 -7.15633e-16 2.36313e-16)
(0 2.85411e-30 0 3.88582 -9.42421e-15 4.93038e-32 0.260236 -2.05711e-15 3.16633e-16)
(7.07966e-16 -1.66257e-29 5.77454e-30 3.7201 1.26916e-14 -4.23743e-15 0.256522 -8.05549e-16 2.97111e-16)
(1.07811e-14 1.10905e-29 -4.15895e-30 3.7201 -9.83266e-15 1.03637e-16 0.256522 -2.23894e-15 2.3568e-16)
(3.03259e-15 -8.08044e-30 2.69348e-30 3.56311 1.30248e-14 -4.04797e-15 0.252976 -9.59863e-16 2.91489e-16)
(7.73251e-15 8.08044e-30 -4.04022e-30 3.56311 -1.00766e-14 2.94263e-16 0.252976 -2.41243e-15 1.65772e-16)
(0 0 -1.30829e-30 3.41429 1.20139e-14 -3.95573e-15 0.24959 -9.01935e-16 2.87337e-16)
(0 5.23317e-30 -1.30829e-30 3.41429 -1.01792e-14 4.21862e-17 0.24959 -2.62579e-15 9.63154e-17)
(0 -1.52513e-29 5.08378e-30 3.27311 1.21147e-14 -3.90565e-15 0.246355 -8.66098e-16 2.95096e-16)
(7.87568e-15 1.52513e-29 -5.08378e-30 3.27311 -9.35267e-15 -1.15962e-16 0.246355 -2.80736e-15 2.89802e-17)
(-2.78021e-15 -1.48159e-29 4.93864e-30 3.13909 1.28658e-14 -3.48835e-15 0.243262 -9.71236e-16 2.96773e-16)
(0 1.48159e-29 0 3.13909 -1.04563e-14 2.3622e-31 0.243262 -2.99822e-15 6.16298e-33)
(-4.00747e-15 1.47996e-29 -5.06149e-30 3.01176 1.39973e-14 -2.82673e-15 0.240302 -1.03663e-15 2.46644e-16)
(0 -9.59531e-30 3.59824e-30 3.01176 -9.98594e-15 3.76137e-16 0.240302 -3.27082e-15 -2.69403e-17)
(0 4.66069e-30 -2.33035e-30 2.89072 1.25667e-14 -2.66094e-15 0.237468 -1.21352e-15 2.06673e-16)
(8.0832e-15 0 1.11379e-30 2.89072 -6.7852e-15 2.64063e-16 0.237468 -3.47442e-15 -3.35527e-17)
(-2.03766e-15 2.56133e-30 -1.83088e-30 2.77558 9.96074e-15 -2.60725e-15 0.234754 -8.58509e-16 2.33547e-16)
(0 4.52764e-30 0 2.77558 -5.10029e-15 -1.4437e-16 0.234754 -3.62868e-15 -3.49617e-17)
(2.05431e-15 -1.13369e-29 1.78417e-30 2.66598 9.64595e-15 -2.35522e-15 0.232152 -8.35972e-16 2.09728e-16)
(0 8.79677e-30 -1.0996e-30 2.66598 -4.53298e-15 -4.11218e-16 0.232152 -3.74161e-15 -3.70934e-17)
(-2.07076e-15 2.51048e-30 3.99228e-31 2.56159 8.67877e-15 -2.08937e-15 0.229656 -8.53762e-16 2.02683e-16)
(0 4.27282e-30 0 2.56159 -5.06375e-15 -8.38165e-31 0.229656 -3.81851e-15 4.93038e-32)
(0 -4.15084e-30 3.11313e-30 2.4621 8.57313e-15 -1.78584e-15 0.227261 -7.08888e-16 1.73601e-16)
(0 4.15084e-30 -3.11313e-30 2.4621 -6.10993e-15 -1.28475e-16 0.227261 -3.96593e-15 -2.48397e-17)
(1.6689e-16 -5.6079e-30 3.6204e-31 2.36724 9.97056e-15 -1.69622e-15 0.224962 -8.84783e-16 1.57609e-16)
(-2.27001e-15 8.06469e-30 -2.01617e-30 2.36724 -5.55467e-15 -3.64883e-16 0.224962 -4.186e-15 -4.51649e-17)
(2.11903e-15 -2.407e-30 -3.49892e-31 2.27672 9.11276e-15 -1.9653e-15 0.222752 -1.02206e-15 1.6658e-16)
(8.47614e-15 0 -1.0674e-45 2.27672 -4.34223e-15 -1.92215e-30 0.222752 -4.32151e-15 -5.61167e-48)
(1.4928e-17 -1.03687e-29 5.45342e-30 2.19031 8.4391e-15 -2.04703e-15 0.220627 -7.66373e-16 2.20703e-16)
(8.53914e-15 1.14162e-29 -4.92037e-30 2.19031 -5.10648e-15 1.4709e-16 0.220627 -4.4539e-15 -1.46911e-17)
(-2.15038e-15 9.76751e-30 -3.36271e-30 2.10777 9.7767e-15 -1.63271e-15 0.218583 -9.44635e-16 1.93303e-16)
(0 -3.69676e-30 0 2.10777 -5.97269e-15 2.5521e-16 0.218583 -4.70097e-15 -1.5092e-17)
(-2.16582e-15 2.32036e-30 -1.47638e-30 2.02889 1.07282e-14 -1.43494e-15 0.216616 -1.09492e-15 1.46258e-16)
(8.66327e-15 3.59123e-30 -1.48317e-31 2.02889 -4.49231e-15 1.55516e-16 0.216616 -4.90021e-15 -3.84294e-17)
(0 6.97741e-30 -2.61653e-30 1.95347 1.01709e-14 -1.7595e-15 0.214721 -1.20807e-15 1.61783e-16)
(0 0 1.74435e-30 1.95347 -4.60476e-15 -5.58003e-16 0.214721 -5.01676e-15 -1.19152e-16)
(0 6.77822e-30 -5.93094e-30 1.88133 9.00506e-15 -1.71173e-15 0.212894 -1.03535e-15 2.27701e-16)
(-8.78506e-15 -6.77822e-30 4.652e-30 1.88133 -5.66963e-15 8.59097e-31 0.212894 -5.23385e-15 0)
(2.21128e-15 -5.54294e-30 2.97892e-30 1.81228 8.5072e-15 -1.49144e-15 0.211132 -1.01122e-15 1.60414e-16)
(8.84513e-15 3.29236e-30 -5.59045e-30 1.81228 -4.87836e-15 1.60098e-16 0.211132 -5.45788e-15 -9.36527e-18)
(2.22617e-15 -5.4231e-30 2.88258e-30 1.74616 7.54855e-15 -1.56997e-15 0.209432 -9.78889e-16 1.88978e-16)
(0 3.19837e-30 -2.39878e-30 1.74616 -3.16459e-15 3.83133e-16 0.209432 -5.55467e-15 -1.02682e-16)
(2.24093e-15 -1.15425e-29 6.6742e-30 1.68283 7.89229e-15 -1.50975e-15 0.207789 -8.37233e-16 1.89174e-16)
(8.96371e-15 9.32119e-30 -6.29376e-30 1.68283 -2.14887e-15 -4.44221e-16 0.207789 -5.62112e-15 -9.93441e-17)
(3.39837e-15 1.20734e-29 -7.5459e-30 1.62213 8.23863e-15 -1.90791e-15 0.206202 -1.12375e-15 1.85098e-16)
(-1.24206e-14 -1.20734e-29 7.60598e-30 1.62213 -3.69387e-15 -8.43233e-16 0.206202 -5.75652e-15 -1.16116e-16)
(-2.27009e-15 2.12914e-30 -1.86226e-30 1.56394 7.12435e-15 -2.32651e-15 0.204667 -9.76859e-16 3.03569e-16)
(0 0 0 1.56394 -3.55559e-15 7.88861e-31 0.204667 -5.9631e-15 -2.46519e-32)
(2.2845e-15 6.43897e-30 -4.6169e-30 1.50812 8.39251e-15 -2.09055e-15 0.203181 -8.9371e-16 3.07733e-16)
(9.13798e-15 -8.54546e-30 7.12121e-30 1.50812 -1.98774e-15 6.56421e-15 0.203181 -6.08796e-15 -1.42288e-16)
(5.41435e-15 -1.0294e-29 5.18332e-30 1.45455 8.77495e-15 -2.45499e-15 0.201742 -1.38313e-15 2.56921e-16)
(6.07962e-15 5.53434e-30 -4.84254e-30 1.45455 -3.05953e-15 5.869e-15 0.201742 -6.18212e-15 -8.95571e-17)
(3.02661e-15 -8.06451e-30 2.01613e-30 1.40314 6.65501e-15 -3.0494e-15 0.200346 -1.05504e-15 4.29035e-16)
(0 8.06451e-30 -2.01613e-30 1.40314 -3.49806e-15 6.13595e-15 0.200346 -6.32096e-15 -6.00955e-17)
(2.94021e-15 -5.22286e-30 1.30571e-30 1.35376 5.52436e-15 -2.88815e-15 0.198993 -8.49158e-16 4.4509e-16)
(6.3681e-15 5.22286e-30 -1.30571e-30 1.35376 -2.23502e-15 7.02462e-15 0.198993 -6.47626e-15 -4.2204e-17)
(-4.68213e-15 1.15758e-29 -1.6816e-30 1.30632 4.86577e-15 -2.43376e-15 0.197678 -7.79522e-16 4.06354e-16)
(9.36427e-15 -5.07376e-30 0 1.30632 -2.4951e-15 7.3987e-15 0.197678 -6.6077e-15 -5.76364e-17)
(0 4.92891e-30 -3.69668e-30 1.26074 5.59027e-15 -2.14434e-15 0.196401 -6.96865e-16 3.31623e-16)
(0 -4.92891e-30 3.69668e-30 1.26074 -3.23299e-15 6.58175e-15 0.196401 -6.71064e-15 8.7965e-17)
(0 -4.7882e-30 2.3941e-30 1.21691 4.73258e-15 -1.99754e-15 0.195158 -1.05581e-15 3.38787e-16)
(0 4.7882e-30 -1.19705e-30 1.21691 -4.47092e-15 5.95607e-15 0.195158 -6.86392e-15 3.31249e-16)
(-9.52988e-15 7.89882e-30 -4.11868e-31 1.17476 2.73117e-15 -3.00484e-15 0.193947 -4.58383e-16 3.03469e-16)
(-1.90598e-14 2.32575e-30 0 1.17476 -5.51532e-15 6.96703e-15 0.193947 -7.26342e-15 6.50321e-16)
(1.47719e-16 -7.07237e-30 2.25814e-30 1.13421 5.05892e-15 -3.7484e-15 0.192767 -4.46101e-16 6.97547e-16)
(9.58437e-15 4.51872e-30 0 1.13421 -3.93942e-15 7.85706e-15 0.192767 -7.53745e-15 1.03393e-15)
(0 0 -1.09743e-30 1.09519 6.94468e-15 -3.18133e-15 0.191616 -1.29107e-15 3.16055e-16)
(9.63851e-15 0 0 1.09519 -2.28587e-15 7.59642e-15 0.191616 -7.75028e-15 1.35093e-15)
(-4.84616e-15 7.81899e-30 -1.0661e-30 1.05762 5.24207e-15 -2.42205e-15 0.190491 -1.14431e-15 -8.83603e-17)
(9.69232e-15 0 -1.0661e-30 1.05762 -1.15308e-15 7.58255e-15 0.190491 -8.03147e-15 1.63517e-15)
(-2.43645e-15 1.81411e-30 -1.03567e-30 1.02145 4.41442e-15 -2.46704e-15 0.189391 -7.43871e-16 -4.60715e-16)
(0 0 -1.03567e-30 1.02145 -7.72962e-16 8.80002e-15 0.189391 -8.13764e-15 1.94301e-15)
(4.71528e-15 -1.76972e-30 1.0061e-30 0.986599 5.06007e-15 -1.46153e-15 0.188314 -9.00211e-16 -8.97022e-16)
(7.53343e-15 0 0 0.986599 -1.33129e-15 8.83115e-15 0.188314 -8.25528e-15 2.3581e-15)
(2.46296e-15 -1.72258e-30 1.65775e-31 0.95302 4.41808e-15 -1.68256e-30 0.187258 -1.03905e-15 -1.19453e-15)
(0 -3.90951e-30 0 0.95302 -3.33943e-15 8.03805e-15 0.187258 -8.44549e-15 1.78019e-15)
(-6.76131e-16 -4.05891e-30 1.89895e-30 0.920653 2.07857e-15 -8.47276e-16 0.186221 -6.97168e-16 -1.60823e-15)
(-9.90437e-15 0 -4.80276e-31 0.920653 -3.08362e-15 9.21077e-15 0.186221 -8.65429e-15 2.13829e-15)
(0 -1.97996e-30 1.84474e-30 0.889445 1.3216e-15 -4.93383e-16 0.185201 -1.37977e-16 -1.95543e-15)
(7.87963e-15 0 -1.12425e-30 0.889445 -8.32162e-16 1.00785e-14 0.185201 -8.68992e-15 2.06956e-15)
(0 -3.58415e-30 0 0.859346 2.6881e-15 -1.30561e-15 0.184197 -6.28374e-16 -2.21038e-15)
(4.03539e-15 0 0 0.859346 -1.06873e-15 9.53431e-15 0.184197 -8.8458e-15 2.02843e-15)
(3.92019e-15 0 1.74092e-30 0.830308 2.53341e-15 -1.09969e-15 0.183208 -5.25693e-16 -2.23718e-15)
(-3.92019e-15 3.48183e-30 -1.74092e-30 0.830308 3.2348e-16 6.47776e-15 0.183208 -9.02583e-15 8.20553e-16)
(0 0 1.69122e-30 0.802285 3.65376e-15 -1.60462e-16 0.18223 -5.96388e-16 -2.12336e-15)
(0 0 -2.70842e-30 0.802285 1.6355e-15 5.2262e-30 0.18223 -8.99945e-15 0)
(0 -3.28587e-30 0 0.775235 4.06545e-15 3.47946e-16 0.181263 -1.07488e-15 -2.06846e-15)
(0 3.28587e-30 0 0.775235 9.1023e-16 -3.1462e-15 0.181263 -9.11389e-15 5.85315e-16)
(-2.5534e-15 4.87909e-30 1.59603e-30 0.749115 3.65033e-15 7.03253e-16 0.180305 -8.27829e-16 -1.94261e-15)
(0 -3.19207e-30 -1.59603e-30 0.749115 8.13116e-16 -3.0827e-15 0.180305 -9.24981e-15 8.94412e-16)
(0 0 0 0.723888 3.60181e-15 -2.35488e-16 0.179354 -9.35671e-16 -1.81198e-15)
(0 0 0 0.723888 1.40068e-15 -1.74362e-15 0.179354 -9.01479e-15 5.89121e-16)
(2.57862e-15 -1.60262e-30 0 0.699514 3.69108e-15 -2.66904e-16 0.178409 -8.52735e-16 -1.79817e-15)
(0 0 0 0.699514 5.42018e-17 -2.13223e-15 0.178409 -8.90234e-15 2.7264e-16)
(-7.03718e-16 -1.55059e-30 0 0.67596 4.12336e-15 3.95561e-16 0.177467 -1.0378e-15 -1.61495e-15)
(3.29485e-15 0 0 0.67596 -3.91591e-16 -2.36136e-15 0.177467 -9.32163e-15 1.00158e-15)
(0 5.68574e-30 0 0.65319 1.67417e-15 -1.22539e-15 0.176527 -1.13453e-15 -1.51903e-15)
(7.21352e-15 0 -3.14505e-31 0.65319 1.16625e-15 -9.37775e-16 0.176527 -9.04027e-15 2.30494e-16)
(3.10941e-15 -5.9997e-31 0 0.631173 -2.69827e-29 -2.00502e-15 0.175587 -1.57772e-30 -1.68521e-15)
(-2.40371e-14 0 -7.51706e-30 0.631173 5.20719e-16 -1.99639e-15 0.175587 -9.13916e-15 2.78444e-16)
(3.02065e-15 -2.86658e-30 0 0.609877 5.83564e-16 -2.6759e-16 0.174645 -8.37836e-17 -1.65646e-15)
(-3.02065e-15 0 -1.34144e-30 0.609877 5.23064e-16 -5.61356e-15 0.174645 -9.3769e-15 1.4782e-15)
(-2.64052e-15 1.50969e-30 0 0.589274 3.79629e-15 -1.86881e-16 0.173699 -1.11788e-15 -1.34937e-15)
(0 0 0 0.589274 -2.91447e-16 -3.95047e-15 0.173699 -9.30281e-15 4.9991e-16)
(0 -2.53188e-30 0 0.569334 3.96587e-15 -8.80409e-16 0.172748 -1.12647e-15 -1.34639e-15)
(0 0 0 0.569334 -2.56447e-15 -2.86728e-15 0.172748 -8.01667e-15 -3.99705e-18)
(0 0 0 0.550031 3.83093e-15 -5.80217e-16 0.171789 -1.28926e-15 -1.25118e-15)
(-2.76926e-15 0 0 0.550031 -2.26041e-15 -2.56043e-15 0.171789 -5.73899e-15 -4.52353e-16)
(-5.35376e-15 2.84474e-30 0 0.531338 3.31686e-15 1.39613e-17 0.17082 -1.10788e-15 -1.25628e-15)
(1.07075e-14 -3.402e-30 0 0.531338 3.26758e-16 -1.4879e-15 0.17082 -4.2118e-15 -8.49472e-16)
(0 0 1.67266e-31 0.513231 3.26443e-15 0 0.169838 -1.02979e-15 -1.20528e-15)
(1.07555e-14 -3.57028e-30 0 0.513231 1.52618e-15 -9.73602e-16 0.169838 -3.82744e-15 -1.11963e-15)
(0 0 0 0.495686 3.35174e-15 9.71354e-17 0.168842 -1.13865e-15 -1.24836e-15)
(0 0 0 0.495686 7.80459e-16 -8.08408e-17 0.168842 -3.05233e-15 -1.30492e-15)
(-2.46632e-15 2.19053e-30 1.44115e-31 0.47868 2.75081e-15 -8.19574e-31 0.16783 -1.15174e-15 -1.03846e-15)
(0 0 0 0.47868 2.75952e-16 3.69203e-16 0.16783 -2.06748e-15 -1.49605e-15)
(0 0 0 0.462191 3.24798e-15 -8.72241e-16 0.166798 -7.77668e-16 -1.56389e-15)
(0 0 0 0.462191 3.99391e-16 9.70626e-16 0.166798 -1.31497e-15 -1.7561e-15)
(4.08644e-16 8.29832e-31 -1.03362e-30 0.446198 4.21059e-15 1.933e-15 0.165743 -1.58568e-15 -1.36051e-15)
(0 2.06725e-30 2.24281e-31 0.446198 1.43581e-15 -1.58488e-46 0.165743 -2.67531e-16 -1.61611e-15)
(-7.75669e-15 2.4168e-30 3.50325e-45 0.430679 1.00681e-15 -7.88861e-31 0.164664 -1.55203e-15 -1.12655e-15)
(1.09912e-14 -2.99611e-30 0 0.430679 5.39834e-16 -1.34282e-15 0.164664 -1.14049e-15 -1.83145e-15)
(0 0 9.75451e-31 0.415616 -1.93738e-15 -3.15738e-16 0.163557 -7.14777e-16 -1.96276e-15)
(0 0 -9.75451e-31 0.415616 -1.72107e-15 6.76322e-16 0.163557 -6.03307e-16 -2.14758e-15)
(0 0 6.32915e-32 0.400989 -1.16355e-15 2.15704e-30 0.162418 -2.43149e-16 -1.57192e-15)
(1.10836e-14 -5.65947e-30 0 0.400989 -1.53087e-15 3.14727e-16 0.162418 -6.41803e-16 -1.66645e-15)
(6.92812e-15 -5.12665e-30 1.8411e-30 0.38678 -4.26702e-16 -1.49005e-15 0.161245 -6.60909e-16 -2.03411e-15)
(0 -1.8411e-30 0 0.38678 -2.55941e-15 -1.72416e-15 0.161245 -1.51268e-15 -1.90199e-15)
(-2.79368e-15 1.27072e-30 2.30888e-31 0.37297 -1.39047e-15 -1.53802e-45 0.160033 -2.04188e-15 -1.66373e-15)
(0 0 0 0.37297 5.35554e-29 1.04947e-16 0.160033 0 -1.58832e-15)
(8.93243e-15 -2.02066e-30 2.60623e-30 0.359542 -2.473e-15 -3.50509e-15 0.158779 -1.11363e-15 -2.09929e-15)
(-7.82493e-15 0 -2.12311e-31 0.359542 1.78121e-15 -2.9531e-45 0.158779 -1.04184e-15 -1.52987e-15)
(0 -7.92265e-31 8.43941e-31 0.346479 -7.49418e-30 -6.31195e-18 0.157478 1.57772e-30 -2.19699e-15)
(0 0 -8.43941e-31 0.346479 -3.79291e-16 -1.17185e-15 0.157478 -1.7237e-15 -1.71811e-15)
(0 0 0 0.333765 1.16854e-15 4.68807e-16 0.156125 -5.42998e-16 -1.65934e-15)
(-1.13091e-14 6.28401e-30 0 0.333765 -1.77532e-15 2.75528e-16 0.156125 -7.69165e-16 -1.34594e-15)
(0 0 7.96443e-31 0.321382 1.38063e-15 4.95232e-16 0.154716 -1.04082e-15 -1.84595e-15)
(-1.13532e-14 6.97681e-30 -3.2761e-31 0.321382 2.7882e-29 5.26216e-16 0.154716 -1.57772e-30 -9.74201e-16)
(2.84925e-15 -1.5729e-30 7.73707e-31 0.309315 2.63718e-16 -1.36327e-17 0.153245 -1.1149e-15 -1.58104e-15)
(-3.48447e-15 0 -1.05097e-45 0.309315 1.95199e-15 -4.45973e-31 0.153245 -7.09471e-16 -7.9993e-16)
(5.24899e-16 -1.45618e-30 -7.51619e-31 0.297548 -1.91112e-15 -1.64196e-15 0.151705 -1.43158e-15 -1.78911e-15)
(0 3.00648e-30 7.51619e-31 0.297548 4.61043e-16 -1.08454e-15 0.151705 -1.24181e-15 -1.16723e-15)
(0 8.26766e-44 0 0.286065 3.71062e-29 -4.25646e-16 0.15009 0 -1.48069e-15)
(0 0 0 0.286065 -8.02552e-16 -6.62253e-16 0.15009 -1.29981e-15 -1.31836e-15)
(2.88149e-15 -1.78249e-30 0 0.274851 1.37311e-15 4.25924e-16 0.148394 -8.71133e-16 -1.68617e-15)
(1.1526e-14 -7.02782e-30 0 0.274851 -4.61192e-16 -4.78669e-16 0.148394 -4.70264e-16 -1.09597e-15)
(-5.78408e-15 3.47766e-30 0 0.263889 3.10992e-16 9.38637e-16 0.146606 -6.94967e-16 -1.82509e-15)
(0 4.34126e-31 0 0.263889 -2.46519e-32 -2.08829e-15 0.146606 -1.57772e-30 -1.34791e-15)
(-2.90247e-15 4.05412e-30 3.61345e-31 0.253164 -3.11097e-15 -1.25593e-30 0.144719 -3.34277e-15 -1.30188e-15)
(2.32198e-14 -1.71877e-29 0 0.253164 -2.26054e-16 6.27989e-16 0.144719 -5.07034e-16 -2.23664e-15)
(5.85726e-15 -3.751e-30 0 0.24266 -6.70532e-30 -2.37349e-15 0.142722 0 -2.355e-15)
(-1.16512e-14 6.17561e-30 -7.00649e-46 0.24266 -1.10652e-15 -1.68623e-44 0.142722 -2.65869e-15 -1.4202e-15)
(-2.92299e-15 1.82304e-30 0 0.23236 1.2336e-15 1.56937e-15 0.140605 -1.22012e-15 -1.80834e-15)
(1.1692e-14 -7.61014e-30 0 0.23236 -5.06232e-17 -4.4745e-16 0.140605 -6.30389e-16 -1.18926e-15)
(-2.93306e-15 1.84145e-30 0 0.222247 -5.21682e-16 -9.06067e-16 0.138353 -9.42923e-16 -1.2198e-15)
(0 0 4.61281e-59 0.222247 4.51525e-16 -1.0373e-44 0.138353 -1.1292e-15 -9.80045e-16)
(0 -1.07893e-59 0 0.212305 -1.28077e-28 -1.74255e-15 0.135954 0 -1.45502e-15)
(1.1772e-14 -6.92249e-30 0 0.212305 2.68615e-16 -2.21397e-15 0.135954 -1.85536e-15 -1.43538e-15)
(-2.95278e-15 1.72672e-30 0 0.202515 1.19958e-15 2.56253e-16 0.133391 -1.64685e-15 -7.33683e-16)
(0 0 0 0.202515 1.12876e-15 5.08823e-16 0.133391 -7.83852e-16 -2.24368e-15)
(0 0 1.12523e-30 0.192858 5.87125e-30 1.85228e-15 0.130644 1.11568e-45 -6.70923e-16)
(0 0 -2.3631e-31 0.192858 -2.61237e-16 -1.38051e-30 0.130644 -1.79126e-15 -1.7028e-15)
(-4.92292e-15 -2.18622e-30 8.51883e-32 0.183313 1.41549e-15 -2.95823e-31 0.127694 -1.80142e-15 -6.13846e-16)
(-6.96465e-15 9.67555e-30 0 0.183313 -1.37515e-15 -1.7282e-16 0.127694 -6.06325e-16 -2.02339e-15)
(4.78238e-15 0 0 0.173858 2.36707e-16 -9.81849e-17 0.124516 -2.10818e-15 -1.72924e-15)
(-4.78238e-15 0 0 0.173858 1.2644e-28 0 0.124516 0 -7.53218e-16)
(0 -2.21123e-30 -3.88938e-62 0.16447 8.61459e-16 -5.47382e-48 0.121082 -3.21662e-16 -4.45503e-16)
(4.64585e-15 0 0 0.16447 1.60708e-15 -1.09397e-15 0.121082 -1.95991e-15 -3.81731e-16)
(0 0 -5.01068e-31 0.155123 1.2103e-15 -1.23553e-15 0.117359 -1.42892e-15 -1.71959e-16)
(7.48369e-15 -5.61906e-30 0 0.155123 1.74976e-16 -1.28116e-15 0.117359 -4.18047e-16 -9.13892e-16)
(-3.00793e-15 1.59552e-30 3.47254e-34 0.145787 7.50942e-16 -8.77658e-34 0.113311 -1.90711e-15 -2.50223e-18)
(0 0 0 0.145787 -1.19971e-28 2.97834e-16 0.113311 0 -8.6094e-16)
(-6.03282e-15 3.24861e-30 -4.72868e-31 0.136432 3.2345e-16 -2.13326e-15 0.108893 -1.77334e-15 -3.01761e-16)
(1.20656e-14 -7.68548e-30 0 0.136432 1.98097e-15 3.84166e-17 0.108893 -9.10234e-16 -3.21865e-16)
(1.11299e-15 2.74654e-43 4.59369e-31 0.127021 6.18707e-29 -1.95317e-15 0.104054 -2.68295e-46 -4.30174e-16)
(7.96092e-15 -6.24914e-30 -4.59369e-31 0.127021 2.55342e-15 3.73922e-16 0.104054 -2.33773e-15 -4.38024e-16)