/*--------------------------------*- C++ -*----------------------------------*\
| =========                 |                                                 |
| \\      /  F ield         | OpenFOAM: The Open Source CFD Toolbox           |
|  \\    /   O peration     | Version:  2012                                  |
|   \\  /    A nd           | Website:  www.openfoam.com                      |
|    \\/     M anipulation  |                                                 |
\*---------------------------------------------------------------------------*/
FoamFile
{
    version     2.0;
    format      ascii;
    class       volScalarField;
    location    "18000";
    object      p;
}
// * * * * * * * * * * * * * * * * * * * * * * * * * * * * * * * * * * * * * //

dimensions      [0 2 -2 0 0 0 0];


internalField   nonuniform List<scalar> 
1280
(
1.01336e-15
7.76708e-15
2.09257e-15
7.76538e-15
2.13506e-15
7.76298e-15
1.87618e-15
7.75929e-15
1.64657e-15
7.75421e-15
1.44522e-15
7.74769e-15
1.24933e-15
7.73972e-15
1.05778e-15
7.73031e-15
8.73229e-16
7.71938e-15
6.9662e-16
7.70696e-15
5.27872e-16
7.6931e-15
3.6682e-16
7.67769e-15
2.13289e-16
7.66067e-15
6.70373e-17
7.64218e-15
-7.21769e-17
7.62216e-15
-2.04568e-16
7.60052e-15
-3.30361e-16
7.57721e-15
-4.49879e-16
7.55216e-15
-5.63416e-16
7.5254e-15
-6.71412e-16
7.49696e-15
-7.74308e-16
7.46669e-15
-8.72548e-16
7.43439e-15
-9.66382e-16
7.40014e-15
-1.05626e-15
7.36361e-15
-1.1424e-15
7.32488e-15
-1.22519e-15
7.28377e-15
-1.3052e-15
7.23984e-15
-1.38267e-15
7.19309e-15
-1.45768e-15
7.14376e-15
-1.53009e-15
7.09136e-15
-1.60069e-15
7.03614e-15
-1.66922e-15
6.97748e-15
-1.73564e-15
6.91525e-15
-1.80108e-15
6.8503e-15
-1.86391e-15
6.7809e-15
-1.92526e-15
6.7081e-15
-1.98423e-15
6.63247e-15
-2.04142e-15
6.55342e-15
-2.09681e-15
6.47063e-15
-2.14973e-15
6.38246e-15
-2.2005e-15
6.29091e-15
-2.24913e-15
6.19745e-15
-2.29526e-15
6.10083e-15
-2.3393e-15
6.00005e-15
-2.38055e-15
5.89444e-15
-2.42021e-15
5.78604e-15
-2.45563e-15
5.67503e-15
-2.49052e-15
5.56244e-15
-2.52426e-15
5.44604e-15
-2.55365e-15
5.32601e-15
-2.58317e-15
5.20343e-15
-2.61045e-15
5.07857e-15
-2.63299e-15
4.94988e-15
-2.65281e-15
4.81946e-15
-2.66923e-15
4.68667e-15
-2.68444e-15
4.54989e-15
-2.69877e-15
4.41033e-15
-2.71064e-15
4.26831e-15
-2.71935e-15
4.12614e-15
-2.72526e-15
3.98012e-15
-2.73186e-15
3.83572e-15
-2.73751e-15
3.68492e-15
-2.7416e-15
3.53223e-15
-2.74673e-15
3.38341e-15
-2.75014e-15
3.23565e-15
-2.75453e-15
3.08941e-15
-2.75594e-15
2.94062e-15
-2.75715e-15
2.7942e-15
-2.76102e-15
2.65063e-15
-2.76819e-15
2.50807e-15
-2.76993e-15
2.3623e-15
-2.7691e-15
2.21131e-15
-2.76622e-15
2.05778e-15
-2.76423e-15
1.90689e-15
-2.76367e-15
1.7493e-15
-2.77004e-15
1.59509e-15
-2.76659e-15
1.4422e-15
-2.77372e-15
1.29099e-15
-2.7871e-15
1.14688e-15
-2.79982e-15
9.92569e-16
-2.81499e-15
8.35936e-16
-2.83836e-15
6.87557e-16
-2.85769e-15
5.42745e-16
-2.87356e-15
3.96691e-16
-2.89697e-15
2.39216e-16
-2.92323e-15
7.57527e-17
-2.95812e-15
-7.76744e-17
-2.99692e-15
-2.26012e-16
-3.02956e-15
-3.84979e-16
-3.06712e-15
-5.43745e-16
-3.11e-15
-6.96714e-16
-3.15321e-15
-8.3816e-16
-3.19183e-15
-9.89531e-16
-3.24257e-15
-1.15629e-15
-3.27822e-15
-1.31659e-15
-3.32613e-15
-1.45968e-15
-3.38108e-15
-1.6021e-15
-3.44901e-15
-1.76055e-15
-3.50237e-15
-1.90737e-15
-3.56914e-15
-2.04816e-15
-3.62176e-15
-2.19964e-15
-3.68256e-15
-2.3458e-15
-3.73473e-15
-2.47592e-15
-3.77827e-15
-2.62428e-15
-3.83485e-15
-2.78094e-15
-3.89236e-15
-2.93622e-15
-3.9613e-15
-3.09177e-15
-4.04076e-15
-3.24928e-15
-4.10701e-15
-3.43351e-15
-4.19174e-15
-3.57941e-15
-4.28288e-15
-3.71147e-15
-4.34579e-15
-3.88786e-15
-4.39998e-15
-4.09001e-15
-4.48604e-15
-4.24481e-15
-4.56693e-15
-4.39109e-15
-4.65185e-15
-4.54432e-15
-4.74913e-15
-4.67426e-15
-4.84645e-15
-4.78353e-15
-4.93227e-15
-4.89641e-15
-5.05179e-15
-5.01577e-15
-5.12476e-15
-5.12021e-15
-5.23109e-15
-5.23656e-15
-5.37129e-15
-5.34267e-15
-5.44505e-15
-5.42438e-15
-5.56878e-15
-5.5068e-15
-5.60827e-15
-5.53981e-15
-5.70338e-15
-5.59136e-15
-5.74166e-15
-5.67976e-15
-5.78748e-15
-5.71706e-15
-5.86511e-15
-5.77075e-15
-5.92994e-15
-5.83697e-15
-6.00796e-15
-5.93811e-15
-6.05062e-15
-6.00733e-15
-6.09881e-15
-6.07145e-15
-6.15183e-15
-6.13272e-15
-6.21006e-15
-6.1908e-15
-6.27398e-15
-6.22356e-15
-6.27666e-15
-6.25116e-15
-6.30731e-15
-6.29826e-15
-6.363e-15
-6.36679e-15
-6.36942e-15
-6.39129e-15
-6.40873e-15
-6.42083e-15
-6.45512e-15
-6.48231e-15
-6.55467e-15
-6.5076e-15
-6.59661e-15
-6.58668e-15
-6.65819e-15
-6.63787e-15
-6.68789e-15
-6.65008e-15
-6.73341e-15
-6.66282e-15
-6.76592e-15
-6.71655e-15
-6.7733e-15
-6.72447e-15
-6.76438e-15
-6.72315e-15
-6.73442e-15
-6.71362e-15
-6.71659e-15
-6.69455e-15
-6.65859e-15
-6.66328e-15
-6.60218e-15
-6.6399e-15
-6.61087e-15
-6.62973e-15
-6.59208e-15
-6.62524e-15
-6.55589e-15
-6.55727e-15
-6.53319e-15
-6.50285e-15
-6.50688e-15
-6.49576e-15
4.8511e-15
5.23567e-15
4.85032e-15
5.2354e-15
4.84922e-15
5.23503e-15
4.8475e-15
5.2344e-15
4.8451e-15
5.23351e-15
4.842e-15
5.23233e-15
4.83825e-15
5.23088e-15
4.83378e-15
5.22914e-15
4.82872e-15
5.22702e-15
4.823e-15
5.22453e-15
4.81656e-15
5.22184e-15
4.80949e-15
5.2188e-15
4.80177e-15
5.21544e-15
4.7934e-15
5.21176e-15
4.78434e-15
5.20774e-15
4.77473e-15
5.20306e-15
4.76425e-15
5.19794e-15
4.75319e-15
5.19238e-15
4.74135e-15
5.18632e-15
4.72865e-15
5.17976e-15
4.71512e-15
5.17273e-15
4.70083e-15
5.16476e-15
4.68535e-15
5.15622e-15
4.66908e-15
5.14708e-15
4.65208e-15
5.13705e-15
4.63385e-15
5.12596e-15
4.61421e-15
5.11351e-15
4.59368e-15
5.09985e-15
4.57171e-15
5.08526e-15
4.54811e-15
5.06903e-15
4.52264e-15
5.05107e-15
4.49536e-15
5.03152e-15
4.46617e-15
5.01028e-15
4.43527e-15
4.98713e-15
4.40231e-15
4.96166e-15
4.36753e-15
4.93348e-15
4.33086e-15
4.90244e-15
4.29198e-15
4.86966e-15
4.25115e-15
4.83413e-15
4.20868e-15
4.79507e-15
4.16358e-15
4.7537e-15
4.11509e-15
4.71033e-15
4.06497e-15
4.66347e-15
4.0136e-15
4.61265e-15
3.95994e-15
4.55852e-15
3.90478e-15
4.50138e-15
3.8478e-15
4.44158e-15
3.78782e-15
4.37788e-15
3.72488e-15
4.31102e-15
3.65815e-15
4.24269e-15
3.59024e-15
4.17468e-15
3.51771e-15
4.10445e-15
3.44509e-15
4.02929e-15
3.36884e-15
3.95005e-15
3.2871e-15
3.87144e-15
3.20466e-15
3.78975e-15
3.11972e-15
3.70403e-15
3.03037e-15
3.61627e-15
2.93969e-15
3.52757e-15
2.84575e-15
3.43393e-15
2.74757e-15
3.3364e-15
2.65158e-15
3.24032e-15
2.55156e-15
3.13836e-15
2.44867e-15
3.0349e-15
2.34302e-15
2.92675e-15
2.23693e-15
2.81172e-15
2.13286e-15
2.69884e-15
2.02649e-15
2.58373e-15
1.91795e-15
2.4665e-15
1.80739e-15
2.34491e-15
1.69734e-15
2.22844e-15
1.58561e-15
2.10546e-15
1.46997e-15
1.976e-15
1.35296e-15
1.84008e-15
1.23477e-15
1.70994e-15
1.11557e-15
1.57843e-15
9.95534e-16
1.44072e-15
8.74859e-16
1.30937e-15
7.51185e-16
1.18464e-15
6.29693e-16
1.05159e-15
5.08041e-16
9.17977e-16
3.86426e-16
7.83982e-16
2.62476e-16
6.5237e-16
1.36327e-16
5.07689e-16
1.343e-17
3.55119e-16
-1.11107e-16
2.1043e-16
-2.47649e-16
6.85174e-17
-3.80156e-16
-7.03551e-17
-5.13793e-16
-2.2205e-16
-6.53728e-16
-3.81199e-16
-7.94358e-16
-5.31568e-16
-9.30095e-16
-6.72924e-16
-1.06079e-15
-8.26876e-16
-1.18607e-15
-9.88099e-16
-1.32731e-15
-1.13481e-15
-1.46252e-15
-1.26662e-15
-1.60283e-15
-1.39411e-15
-1.7374e-15
-1.53333e-15
-1.87162e-15
-1.68952e-15
-1.99954e-15
-1.82932e-15
-2.11516e-15
-1.94689e-15
-2.22962e-15
-2.06964e-15
-2.34257e-15
-2.19712e-15
-2.46499e-15
-2.32928e-15
-2.57417e-15
-2.4544e-15
-2.68094e-15
-2.5948e-15
-2.80704e-15
-2.72802e-15
-2.94088e-15
-2.85345e-15
-3.07131e-15
-2.99272e-15
-3.19823e-15
-3.12187e-15
-3.33294e-15
-3.26306e-15
-3.45211e-15
-3.41608e-15
-3.56606e-15
-3.53505e-15
-3.698e-15
-3.64072e-15
-3.81454e-15
-3.76463e-15
-3.95001e-15
-3.89409e-15
-4.05871e-15
-4.01552e-15
-4.17417e-15
-4.13983e-15
-4.29544e-15
-4.24349e-15
-4.41203e-15
-4.33553e-15
-4.51279e-15
-4.43537e-15
-4.62117e-15
-4.57627e-15
-4.73392e-15
-4.71311e-15
-4.84698e-15
-4.8005e-15
-4.93929e-15
-4.90526e-15
-5.05406e-15
-5.00428e-15
-5.17135e-15
-5.09743e-15
-5.26988e-15
-5.18264e-15
-5.35301e-15
-5.28005e-15
-5.46746e-15
-5.36895e-15
-5.52308e-15
-5.47011e-15
-5.60735e-15
-5.56569e-15
-5.71817e-15
-5.65508e-15
-5.7674e-15
-5.73494e-15
-5.82072e-15
-5.83267e-15
-5.8938e-15
-5.88518e-15
-5.98969e-15
-5.91101e-15
-6.02699e-15
-5.99074e-15
-6.07165e-15
-6.06339e-15
-6.14242e-15
-6.11134e-15
-6.24443e-15
-6.17388e-15
-6.32444e-15
-6.17293e-15
-6.35848e-15
-6.2508e-15
-6.35945e-15
-6.36893e-15
-6.47592e-15
-6.42351e-15
-6.5903e-15
-6.53666e-15
-6.66261e-15
-6.57109e-15
-6.66362e-15
-6.56451e-15
-6.73403e-15
-6.60488e-15
-6.69995e-15
-6.67646e-15
-6.7091e-15
-6.68223e-15
-6.71795e-15
-6.71755e-15
-6.72353e-15
-6.70527e-15
-6.64201e-15
-6.63887e-15
-6.65485e-15
-6.66207e-15
-6.67726e-15
-6.64586e-15
-6.5876e-15
-6.5685e-15
-6.50701e-15
-6.51318e-15
-6.60474e-15
-6.44811e-15
-6.52678e-15
-6.36574e-15
-6.43133e-15
-6.47457e-15
-6.35041e-15
-6.38026e-15
-6.35141e-15
-6.32072e-15
-6.25728e-15
-6.21334e-15
-6.30633e-15
-6.23894e-15
-6.19885e-15
-6.19708e-15
-6.21321e-15
-6.11915e-15
-6.12778e-15
-6.05678e-15
-6.11033e-15
-6.05699e-15
-6.04453e-15
-6.03275e-15
-6.05005e-15
-6.00938e-15
-6.03711e-15
-5.98039e-15
-6.01391e-15
-5.95455e-15
-5.93937e-15
-5.88948e-15
-5.84803e-15
-5.82197e-15
-5.82467e-15
-5.80444e-15
-5.82044e-15
-5.78984e-15
-5.74788e-15
-5.72782e-15
-5.71252e-15
-5.66866e-15
-5.64845e-15
-5.70089e-15
-5.66943e-15
-5.65718e-15
-5.67229e-15
-5.59228e-15
-5.64851e-15
-5.53719e-15
-5.60428e-15
-5.53113e-15
-5.60249e-15
-5.50998e-15
-5.59985e-15
-5.47106e-15
-5.55624e-15
-5.48407e-15
-5.55672e-15
-5.46895e-15
-5.50808e-15
-5.42431e-15
-5.5007e-15
-5.4197e-15
-5.50982e-15
-5.408e-15
-5.51339e-15
-5.36439e-15
-5.46948e-15
-5.37535e-15
-5.41691e-15
-5.35343e-15
-5.39502e-15
-5.34898e-15
-5.37917e-15
-5.34232e-15
-5.36918e-15
-5.31191e-15
-5.29628e-15
-5.27879e-15
-5.27172e-15
-5.24653e-15
-5.24937e-15
-5.23761e-15
-5.25124e-15
-5.22875e-15
-5.23173e-15
-5.20692e-15
-5.2147e-15
-5.18343e-15
-5.21121e-15
-5.16929e-15
-5.20969e-15
-5.16429e-15
-5.19912e-15
-5.14571e-15
-5.19127e-15
-5.12458e-15
-5.19807e-15
-5.10041e-15
-5.18645e-15
-5.10665e-15
-5.17826e-15
-5.12131e-15
-5.18408e-15
-5.11112e-15
-5.17028e-15
-5.08695e-15
-5.19422e-15
-5.07133e-15
-5.18883e-15
-5.07415e-15
-5.18825e-15
-5.0959e-15
-5.18068e-15
-5.10355e-15
-5.18804e-15
-5.10922e-15
-5.17584e-15
-5.11295e-15
-5.15488e-15
-5.10398e-15
-5.14719e-15
-5.10522e-15
-5.16343e-15
-5.11678e-15
-5.16435e-15
-5.11637e-15
-5.16115e-15
-5.10422e-15
-5.1539e-15
-5.09699e-15
-5.148e-15
-5.10028e-15
-5.14315e-15
-5.09766e-15
-5.13919e-15
-5.10577e-15
-5.13044e-15
-5.10829e-15
-5.11661e-15
-5.09999e-15
-5.11395e-15
-5.09198e-15
-5.10612e-15
-5.08951e-15
-5.10387e-15
-5.08173e-15
-5.09646e-15
-5.07405e-15
-5.08924e-15
-5.07717e-15
-5.08743e-15
-5.08047e-15
-5.08558e-15
-5.084e-15
-5.0889e-15
-5.07732e-15
-5.08699e-15
-5.07088e-15
-5.08515e-15
-5.06979e-15
-5.08338e-15
-5.06884e-15
-5.08166e-15
-5.06033e-15
-5.08004e-15
-5.057e-15
-5.07597e-15
-5.05877e-15
-5.07698e-15
-5.05804e-15
-5.07804e-15
-5.05982e-15
-5.08162e-15
-5.05666e-15
-5.08528e-15
-5.05108e-15
-5.08417e-15
-5.04308e-15
-5.08082e-15
-5.03987e-15
-5.08242e-15
-5.03898e-15
-5.08178e-15
-5.03563e-15
-5.08363e-15
-5.02751e-15
-5.08332e-15
-5.02395e-15
-5.08319e-15
-5.02026e-15
-5.08099e-15
-5.02097e-15
-5.07898e-15
-5.01706e-15
-5.07716e-15
-5.01967e-15
-5.07767e-15
-5.01994e-15
-5.07724e-15
-5.01903e-15
-5.07376e-15
-5.01801e-15
-5.07252e-15
-5.01483e-15
-5.07348e-15
-5.0116e-15
-5.07149e-15
-5.01034e-15
-5.07163e-15
-5.00902e-15
-5.07187e-15
-5.0086e-15
-5.07124e-15
-5.00907e-15
-5.06976e-15
-5.00946e-15
-5.07025e-15
-5.00883e-15
-5.06989e-15
-5.00724e-15
-5.06783e-15
-5.0056e-15
-5.06938e-15
-5.00482e-15
-5.07097e-15
-5.00484e-15
-5.07091e-15
-5.00396e-15
-5.07009e-15
-5.00386e-15
-5.07016e-15
-5.00372e-15
-5.07028e-15
-5.00274e-15
-5.07045e-15
-5.0044e-15
-5.07029e-15
-5.00524e-15
-5.06946e-15
-5.00529e-15
-5.0694e-15
-5.0053e-15
-5.07007e-15
-5.00596e-15
-5.06976e-15
-5.00623e-15
-5.06949e-15
-5.00615e-15
-5.06958e-15
-5.00541e-15
-5.0697e-15
-5.00527e-15
-5.06985e-15
-5.00541e-15
-5.06973e-15
-5.00608e-15
-5.06965e-15
-5.00616e-15
-5.06986e-15
-5.00594e-15
-5.06983e-15
-5.00624e-15
-5.0697e-15
-5.00638e-15
-5.06959e-15
-5.00612e-15
-5.06962e-15
-5.00622e-15
-5.06955e-15
-5.00654e-15
-5.06939e-15
-5.00637e-15
-5.06959e-15
-5.00618e-15
-5.06946e-15
-5.00633e-15
-5.06935e-15
-5.00636e-15
-5.06937e-15
-5.00637e-15
-5.0694e-15
-5.00637e-15
-5.06932e-15
-5.00624e-15
-5.06932e-15
-5.00622e-15
-5.06945e-15
-5.00619e-15
-5.06952e-15
-5.00609e-15
-5.06962e-15
-5.00604e-15
-5.06966e-15
-5.00611e-15
-5.06971e-15
-5.00611e-15
-5.06973e-15
-5.0061e-15
-5.0698e-15
-5.00602e-15
-5.06985e-15
-5.006e-15
-5.06983e-15
-5.006e-15
-5.06987e-15
-5.00599e-15
-5.0699e-15
-5.00592e-15
-5.06988e-15
-5.00592e-15
-5.06995e-15
-5.00588e-15
-5.06997e-15
-5.00586e-15
-5.06998e-15
-5.00585e-15
-5.06998e-15
-5.00584e-15
-5.06998e-15
-5.00584e-15
-5.06998e-15
-5.00584e-15
-6.51223e-15
-6.33222e-15
-6.34577e-15
-6.33125e-15
-6.23753e-15
-6.25662e-15
-6.18289e-15
-6.17475e-15
-6.11228e-15
-6.17545e-15
-6.10331e-15
-6.1441e-15
-6.00187e-15
-6.07147e-15
-5.96349e-15
-6.06884e-15
-5.987e-15
-6.06726e-15
-5.95114e-15
-6.00492e-15
-5.97204e-15
-5.95837e-15
-5.93534e-15
-5.84915e-15
-5.86301e-15
-5.78285e-15
-5.84034e-15
-5.80567e-15
-5.76506e-15
-5.7565e-15
-5.72807e-15
-5.74313e-15
-5.67346e-15
-5.72542e-15
-5.6816e-15
-5.66507e-15
-5.63781e-15
-5.6168e-15
-5.63799e-15
-5.62921e-15
-5.63897e-15
-5.60789e-15
-5.61941e-15
-5.57496e-15
-5.57962e-15
-5.55541e-15
-5.53797e-15
-5.55686e-15
-5.51099e-15
-5.54012e-15
-5.47166e-15
-5.45952e-15
-5.42424e-15
-5.39991e-15
-5.4181e-15
-5.37794e-15
-5.4079e-15
-5.36773e-15
-5.39642e-15
-5.37217e-15
-5.40509e-15
-5.34705e-15
-5.39085e-15
-5.35877e-15
-5.37339e-15
-5.36663e-15
-5.39872e-15
-5.34979e-15
-5.35742e-15
-5.30448e-15
-5.31934e-15
-5.27572e-15
-5.30594e-15
-5.26372e-15
-5.29344e-15
-5.22282e-15
-5.26296e-15
-5.19768e-15
-5.24867e-15
-5.21271e-15
-5.23687e-15
-5.22437e-15
-5.20212e-15
-5.21173e-15
-5.21248e-15
-5.19985e-15
-5.2235e-15
-5.17609e-15
-5.20262e-15
-5.14995e-15
-5.19591e-15
-5.14392e-15
-5.19169e-15
-5.12373e-15
-5.17907e-15
-5.10041e-15
-5.18104e-15
-5.09676e-15
-5.16331e-15
-5.10097e-15
-5.14776e-15
-5.10236e-15
-5.14471e-15
-5.09042e-15
-5.13165e-15
-5.09961e-15
-5.10721e-15
-5.09676e-15
-5.07047e-15
-5.09394e-15
-5.07696e-15
-5.09178e-15
-5.10434e-15
-5.10123e-15
-5.09665e-15
-5.09913e-15
-5.08795e-15
-5.09693e-15
-5.10085e-15
-5.10614e-15
-5.10747e-15
-5.09295e-15
-5.10819e-15
-5.07926e-15
-5.10892e-15
-5.06469e-15
-5.11556e-15
-5.05456e-15
-5.11735e-15
-5.0486e-15
-5.12e-15
-5.04665e-15
-5.11257e-15
-5.04869e-15
-5.12238e-15
-5.0439e-15
-5.11676e-15
-5.02667e-15
-5.11777e-15
-5.03511e-15
-5.11439e-15
-5.04215e-15
-5.11191e-15
-5.02646e-15
-5.11041e-15
-5.015e-15
-5.10462e-15
-5.013e-15
-5.11046e-15
-5.00981e-15
-5.112e-15
-5.0054e-15
-5.10931e-15
-5.00502e-15
-5.10234e-15
-5.00873e-15
-5.10138e-15
-5.00107e-15
-5.10121e-15
-5.0028e-15
-5.09921e-15
-5.00619e-15
-5.10043e-15
-5.00879e-15
-5.10226e-15
-5.01319e-15
-5.09462e-15
-5.01691e-15
-5.09e-15
-5.0151e-15
-5.08831e-15
-5.00539e-15
-5.09683e-15
-5.00259e-15
-5.09846e-15
-5.00413e-15
-5.09088e-15
-5.00516e-15
-5.09328e-15
-5.00815e-15
-5.09364e-15
-5.01309e-15
-5.0943e-15
-5.01064e-15
-5.09296e-15
-5.00328e-15
-5.08736e-15
-5.00025e-15
-5.08435e-15
-5.00148e-15
-5.08385e-15
-5.00467e-15
-5.08358e-15
-5.00317e-15
-5.08353e-15
-4.99712e-15
-5.08369e-15
-4.99628e-15
-5.08087e-15
-4.99628e-15
-5.07933e-15
-4.99713e-15
-5.07696e-15
-4.99366e-15
-5.07985e-15
-4.98805e-15
-5.07887e-15
-4.98832e-15
-5.07808e-15
-4.9894e-15
-5.07648e-15
-4.99127e-15
-5.07787e-15
-4.99012e-15
-5.07752e-15
-4.98978e-15
-5.07638e-15
-4.98932e-15
-5.07806e-15
-4.98964e-15
-5.07895e-15
-4.98809e-15
-5.07906e-15
-4.98732e-15
-5.07928e-15
-4.98645e-15
-5.07794e-15
-4.98551e-15
-5.07754e-15
-4.98449e-15
-5.07761e-15
-4.98262e-15
-5.07701e-15
-4.98262e-15
-5.07613e-15
-4.98327e-15
-5.0757e-15
-4.98419e-15
-5.07606e-15
-4.9843e-15
-5.0751e-15
-4.98435e-15
-5.07523e-15
-4.98334e-15
-5.07508e-15
-4.9839e-15
-5.07499e-15
-4.98408e-15
-5.07526e-15
-4.9836e-15
-5.07527e-15
-4.98337e-15
-5.07561e-15
-4.98338e-15
-5.07599e-15
-4.98335e-15
-5.07612e-15
-4.98301e-15
-5.07603e-15
-4.98224e-15
-5.07585e-15
-4.98133e-15
-5.07608e-15
-4.98065e-15
-5.07621e-15
-4.98019e-15
-5.07602e-15
-4.97959e-15
-5.07633e-15
-4.97885e-15
-5.0762e-15
-4.97867e-15
-5.07633e-15
-4.97845e-15
-5.07614e-15
-4.97821e-15
-5.07575e-15
-4.97805e-15
-5.07555e-15
-4.97787e-15
-5.07566e-15
-4.97772e-15
-5.07561e-15
-4.97761e-15
-5.07547e-15
-4.97747e-15
-5.0754e-15
-4.97743e-15
-5.07541e-15
-4.97725e-15
-5.07537e-15
-4.97729e-15
-5.07541e-15
-4.97739e-15
-5.07544e-15
-4.97734e-15
-5.07544e-15
-4.97727e-15
-5.07545e-15
-4.97722e-15
-5.07541e-15
-4.97723e-15
-5.07538e-15
-4.97726e-15
-5.07534e-15
-4.97733e-15
-5.07534e-15
-4.97738e-15
-5.07536e-15
-4.97736e-15
-5.0753e-15
-4.97735e-15
-5.07529e-15
-4.97734e-15
-5.0753e-15
-4.97734e-15
-5.07531e-15
-4.97733e-15
-5.07531e-15
-4.97733e-15
)
;

boundaryField
{
    walls
    {
        type            zeroGradient;
    }
    inlet
    {
        type            cyclic;
    }
    outlet
    {
        type            cyclic;
    }
    sides
    {
        type            empty;
    }
}


// ************************************************************************* //
