/*--------------------------------*- C++ -*----------------------------------*\
| =========                 |                                                 |
| \\      /  F ield         | OpenFOAM: The Open Source CFD Toolbox           |
|  \\    /   O peration     | Version:  2012                                  |
|   \\  /    A nd           | Website:  www.openfoam.com                      |
|    \\/     M anipulation  |                                                 |
\*---------------------------------------------------------------------------*/
FoamFile
{
    version     2.0;
    format      ascii;
    class       volVectorField;
    location    "18000";
    object      U;
}
// * * * * * * * * * * * * * * * * * * * * * * * * * * * * * * * * * * * * * //

dimensions      [0 1 -1 0 0 0 0];


internalField   nonuniform List<vector> 
1280
(
(0.00469631 -1.07416e-15 -2.99239e-18)
(0.00469631 -1.99311e-18 5.03868e-19)
(0.0142242 -2.4018e-15 9.2723e-17)
(0.0142242 1.724e-18 6.10472e-18)
(0.0240292 -2.57438e-15 1.0163e-16)
(0.0240292 1.73238e-18 6.41576e-18)
(0.0341192 -2.36318e-15 1.12944e-16)
(0.0341192 2.9516e-18 6.69089e-18)
(0.0445024 -2.33347e-15 1.25221e-16)
(0.0445024 4.13387e-18 6.95121e-18)
(0.0551873 -2.34282e-15 1.38381e-16)
(0.0551873 5.33395e-18 7.19409e-18)
(0.0661822 -2.34739e-15 1.52512e-16)
(0.0661822 6.53232e-18 7.4188e-18)
(0.0774958 -2.34903e-15 1.67648e-16)
(0.0774958 7.6419e-18 7.62524e-18)
(0.0891366 -2.35132e-15 1.83819e-16)
(0.0891366 8.72762e-18 7.80353e-18)
(0.101113 -2.35423e-15 2.01062e-16)
(0.101113 9.7545e-18 7.95563e-18)
(0.113432 -2.35745e-15 2.19415e-16)
(0.113432 1.08406e-17 8.08371e-18)
(0.126101 -2.3608e-15 2.38902e-16)
(0.126101 1.2082e-17 8.16604e-18)
(0.139125 -2.36381e-15 2.59536e-16)
(0.139125 1.29846e-17 8.20679e-18)
(0.152506 -2.36669e-15 2.81302e-16)
(0.152506 1.36546e-17 8.2119e-18)
(0.166243 -2.36971e-15 3.04149e-16)
(0.166243 1.42827e-17 8.16305e-18)
(0.180329 -2.37251e-15 3.27979e-16)
(0.180329 1.46975e-17 8.0422e-18)
(0.194753 -2.37548e-15 3.52644e-16)
(0.194753 1.50257e-17 7.85278e-18)
(0.209495 -2.37849e-15 3.7792e-16)
(0.209495 1.5012e-17 7.58931e-18)
(0.224525 -2.38099e-15 4.03528e-16)
(0.224525 1.47767e-17 7.25468e-18)
(0.239806 -2.38334e-15 4.29122e-16)
(0.239806 1.46718e-17 6.83874e-18)
(0.255287 -2.38543e-15 4.54316e-16)
(0.255287 1.39228e-17 6.33248e-18)
(0.270911 -2.38746e-15 4.78707e-16)
(0.270911 1.3046e-17 5.69467e-18)
(0.286612 -2.38926e-15 5.01915e-16)
(0.286612 1.19223e-17 4.97046e-18)
(0.30232 -2.391e-15 5.23606e-16)
(0.30232 1.0046e-17 4.1622e-18)
(0.317963 -2.39309e-15 5.43539e-16)
(0.317963 8.76205e-18 3.27825e-18)
(0.333471 -2.39444e-15 5.61587e-16)
(0.333471 7.13545e-18 2.27889e-18)
(0.348779 -2.3949e-15 5.77736e-16)
(0.348779 4.11395e-18 1.14597e-18)
(0.363832 -2.39477e-15 5.9207e-16)
(0.363832 6.22304e-19 -1.41926e-20)
(0.378583 -2.39473e-15 6.04766e-16)
(0.378583 -2.52235e-18 -1.16638e-18)
(0.392996 -2.39463e-15 6.16045e-16)
(0.392996 -6.15314e-18 -2.46515e-18)
(0.407044 -2.39352e-15 6.26173e-16)
(0.407044 -9.83082e-18 -3.79644e-18)
(0.420711 -2.39135e-15 6.35413e-16)
(0.420711 -1.43928e-17 -5.22686e-18)
(0.433988 -2.38826e-15 6.44033e-16)
(0.433988 -1.91414e-17 -6.12518e-18)
(0.446874 -2.38548e-15 6.52244e-16)
(0.446874 -2.32817e-17 -6.40824e-18)
(0.459372 -2.38293e-15 6.60261e-16)
(0.459372 -2.85093e-17 -6.86998e-18)
(0.47149 -2.37966e-15 6.68282e-16)
(0.47149 -3.3919e-17 -7.07122e-18)
(0.483238 -2.37591e-15 6.76454e-16)
(0.483238 -3.87371e-17 -7.26404e-18)
(0.494631 -2.37155e-15 6.84932e-16)
(0.494631 -4.4846e-17 -7.56215e-18)
(0.505681 -2.36651e-15 6.93821e-16)
(0.505681 -5.29056e-17 -8.06101e-18)
(0.516405 -2.36125e-15 7.03194e-16)
(0.516405 -6.04063e-17 -8.59028e-18)
(0.526818 -2.3556e-15 7.1313e-16)
(0.526818 -6.75892e-17 -8.68201e-18)
(0.536935 -2.34852e-15 7.23705e-16)
(0.536935 -7.54267e-17 -8.65114e-18)
(0.546771 -2.34052e-15 7.3495e-16)
(0.546771 -8.53529e-17 -8.9761e-18)
(0.556342 -2.33278e-15 7.46887e-16)
(0.556342 -9.35338e-17 -9.44158e-18)
(0.565661 -2.32608e-15 7.59565e-16)
(0.565661 -1.01509e-16 -9.84466e-18)
(0.574741 -2.31987e-15 7.73031e-16)
(0.574741 -1.09751e-16 -9.98432e-18)
(0.583597 -2.31026e-15 7.87296e-16)
(0.583597 -1.19884e-16 -1.01272e-17)
(0.592239 -2.29806e-15 7.82492e-16)
(0.592239 -1.33255e-16 -1.04537e-17)
(0.600679 -2.28697e-15 7.741e-16)
(0.600679 -1.44352e-16 -1.10301e-17)
(0.608929 -2.27607e-15 7.65696e-16)
(0.608929 -1.53192e-16 -1.1403e-17)
(0.616999 -2.2647e-15 7.58081e-16)
(0.616999 -1.60547e-16 -1.17027e-17)
(0.624897 -2.25508e-15 7.50869e-16)
(0.624897 -1.71458e-16 -1.19596e-17)
(0.632634 -2.24504e-15 7.4362e-16)
(0.632634 -1.80873e-16 -1.2248e-17)
(0.640217 -2.23453e-15 7.37062e-16)
(0.640217 -1.8765e-16 -1.23024e-17)
(0.647654 -2.21941e-15 7.31088e-16)
(0.647654 -1.99114e-16 -1.27546e-17)
(0.654954 -2.20305e-15 7.25434e-16)
(0.654954 -2.1238e-16 -1.3249e-17)
(0.662122 -2.1878e-15 7.20558e-16)
(0.662122 -2.266e-16 -1.36517e-17)
(0.669166 -2.17125e-15 7.16098e-16)
(0.669166 -2.39319e-16 -1.36543e-17)
(0.676091 -2.15474e-15 7.12192e-16)
(0.676091 -2.52376e-16 -1.37146e-17)
(0.682904 -2.13689e-15 7.08533e-16)
(0.682904 -2.66411e-16 -1.40124e-17)
(0.689609 -2.11888e-15 7.05986e-16)
(0.689609 -2.77429e-16 -1.42332e-17)
(0.696213 -2.10099e-15 7.00078e-16)
(0.696213 -2.91678e-16 -1.55682e-17)
(0.702719 -2.08085e-15 6.9265e-16)
(0.702719 -3.09274e-16 -1.54782e-17)
(0.709132 -2.05685e-15 6.85363e-16)
(0.709132 -3.25813e-16 -1.47322e-17)
(0.715456 -2.0343e-15 6.7818e-16)
(0.715456 -3.45343e-16 -1.44327e-17)
(0.721696 -2.01265e-15 6.70802e-16)
(0.721696 -3.63252e-16 -1.45835e-17)
(0.727855 -1.98837e-15 6.63383e-16)
(0.727855 -3.80769e-16 -1.4874e-17)
(0.733936 -1.96245e-15 6.57217e-16)
(0.733936 -4.04112e-16 -1.42005e-17)
(0.739944 -1.93212e-15 6.5205e-16)
(0.739944 -4.20759e-16 -1.33617e-17)
(0.74588 -1.91065e-15 6.46211e-16)
(0.74588 -4.32074e-16 -1.31179e-17)
(0.751749 -1.88975e-15 6.40968e-16)
(0.751749 -4.4244e-16 -1.3992e-17)
(0.757553 -1.86841e-15 6.35901e-16)
(0.757553 -4.51909e-16 -1.49193e-17)
(0.763294 -1.85069e-15 6.31561e-16)
(0.763294 -4.65322e-16 -1.49036e-17)
(0.768976 -1.82857e-15 6.27621e-16)
(0.768976 -4.80281e-16 -1.55246e-17)
(0.7746 -1.80302e-15 6.23456e-16)
(0.7746 -4.91802e-16 -1.66538e-17)
(0.780169 -1.78386e-15 6.17939e-16)
(0.780169 -5.01605e-16 -1.62865e-17)
(0.785685 -1.76024e-15 6.13106e-16)
(0.785685 -5.17738e-16 -1.59092e-17)
(0.791149 -1.73287e-15 6.0945e-16)
(0.791149 -5.32704e-16 -1.49484e-17)
(0.796565 -1.70267e-15 6.05405e-16)
(0.796565 -5.41744e-16 -1.50911e-17)
(0.801933 -1.67678e-15 5.99713e-16)
(0.801933 -5.58233e-16 -1.807e-17)
(0.807255 -1.6515e-15 5.95702e-16)
(0.807255 -5.73951e-16 -1.78358e-17)
(0.812533 -1.62703e-15 5.90978e-16)
(0.812533 -5.86727e-16 -1.52688e-17)
(0.817769 -1.6061e-15 5.86248e-16)
(0.817769 -5.92912e-16 -1.55703e-17)
(0.822964 -1.578e-15 5.81621e-16)
(0.822964 -6.00061e-16 -1.80539e-17)
(0.828119 -1.55358e-15 5.74032e-16)
(0.828119 -6.16618e-16 -2.09568e-17)
(0.833235 -1.53124e-15 5.66338e-16)
(0.833235 -6.23271e-16 2.13699e-18)
(0.838315 -1.49666e-15 5.59915e-16)
(0.838315 -6.30059e-16 2.33989e-17)
(0.843359 -1.47029e-15 5.49189e-16)
(0.843359 -6.44679e-16 4.29602e-17)
(0.848367 -1.44906e-15 5.38062e-16)
(0.848367 -6.55059e-16 6.74308e-17)
(0.853342 -1.42957e-15 5.27903e-16)
(0.853342 -6.61099e-16 9.48089e-17)
(0.858284 -1.41215e-15 5.19613e-16)
(0.858284 -6.74102e-16 1.2362e-16)
(0.863194 -1.38575e-15 5.11143e-16)
(0.863194 -6.86354e-16 1.46153e-16)
(0.868073 -1.37429e-15 5.03556e-16)
(0.868073 -7.10237e-16 1.71576e-16)
(0.872922 -1.36314e-15 4.86118e-16)
(0.872922 -7.31995e-16 2.03947e-16)
(0.877741 -1.33086e-15 4.71647e-16)
(0.877741 -7.43672e-16 2.38584e-16)
(0.882531 -1.30226e-15 4.58217e-16)
(0.882531 -7.52004e-16 2.70565e-16)
(0.887293 -1.28366e-15 4.49843e-16)
(0.887293 -7.53995e-16 3.07141e-16)
(0.892028 -1.26115e-15 4.35188e-16)
(0.892028 -7.59238e-16 3.52515e-16)
(0.896736 -1.23518e-15 4.36079e-16)
(0.896736 -7.6677e-16 3.91575e-16)
(0.901418 -1.21775e-15 4.29068e-16)
(0.901418 -7.92402e-16 4.31726e-16)
(0.906073 -1.2143e-15 4.27566e-16)
(0.906073 -7.97751e-16 4.85184e-16)
(0.910703 -1.19859e-15 4.23886e-16)
(0.910703 -8.0106e-16 5.36923e-16)
(0.915308 -1.18545e-15 4.13437e-16)
(0.915308 -8.09308e-16 5.87633e-16)
(0.919888 -1.17054e-15 4.11849e-16)
(0.919888 -7.97187e-16 6.08147e-16)
(0.924444 -1.14367e-15 4.11629e-16)
(0.924444 -7.90766e-16 5.93514e-16)
(0.928976 -1.12297e-15 4.15994e-16)
(0.928976 -7.86549e-16 5.71154e-16)
(0.933483 -1.09958e-15 4.20112e-16)
(0.933483 -7.80934e-16 5.56426e-16)
(0.937967 -1.07826e-15 4.12905e-16)
(0.937967 -7.69059e-16 5.4961e-16)
(0.942427 -1.05231e-15 4.16861e-16)
(0.942427 -7.80579e-16 5.2457e-16)
(0.946864 -1.02395e-15 4.18071e-16)
(0.946864 -7.73951e-16 5.18808e-16)
(0.951277 -1.03013e-15 3.99978e-16)
(0.951277 -7.6474e-16 5.11847e-16)
(0.955667 -1.02804e-15 3.90227e-16)
(0.955667 -7.66852e-16 4.71578e-16)
(0.960033 -1.00009e-15 3.96366e-16)
(0.960033 -7.57058e-16 4.31251e-16)
(0.964375 -9.71927e-16 3.87244e-16)
(0.964375 -7.71511e-16 4.13521e-16)
(0.968694 -9.39696e-16 3.83043e-16)
(0.968694 -7.96221e-16 3.8751e-16)
(0.972989 -9.11999e-16 3.78148e-16)
(0.972989 -8.06704e-16 3.73599e-16)
(0.977259 -8.86254e-16 3.83416e-16)
(0.977259 -7.90568e-16 3.6358e-16)
(0.981505 -8.57788e-16 3.75292e-16)
(0.981505 -7.8148e-16 3.57499e-16)
(0.985726 -8.28994e-16 3.85338e-16)
(0.985726 -7.77307e-16 3.62358e-16)
(0.989922 -8.09553e-16 3.57134e-16)
(0.989922 -7.76678e-16 3.63944e-16)
(0.994092 -7.69911e-16 3.70147e-16)
(0.994092 -7.6999e-16 3.80139e-16)
(0.998236 -7.3111e-16 3.93298e-16)
(0.998236 -7.41478e-16 3.67895e-16)
(1.00235 -7.51456e-16 3.5439e-16)
(1.00235 -7.60322e-16 3.54364e-16)
(1.00644 -7.69326e-16 3.88116e-16)
(1.00644 -7.75404e-16 3.81842e-16)
(1.0105 -7.74927e-16 3.55311e-16)
(1.0105 -7.91449e-16 3.60047e-16)
(1.01453 -7.78219e-16 3.57448e-16)
(1.01453 -8.29266e-16 3.45881e-16)
(1.01853 -8.05215e-16 3.06835e-16)
(1.01853 -8.0322e-16 3.62757e-16)
(1.0225 -8.33056e-16 2.80089e-16)
(1.0225 -7.89964e-16 3.42329e-16)
(1.02644 -8.19481e-16 3.07475e-16)
(1.02644 -8.12393e-16 3.36222e-16)
(1.03034 -8.05601e-16 2.90458e-16)
(1.03034 -8.31622e-16 3.49076e-16)
(1.03421 -7.86013e-16 3.20126e-16)
(1.03421 -8.13885e-16 3.52257e-16)
(1.03804 -7.99516e-16 2.89242e-16)
(1.03804 -7.8284e-16 3.38525e-16)
(1.04183 -8.35306e-16 2.78342e-16)
(1.04183 -8.0281e-16 3.24463e-16)
(1.04559 -8.13527e-16 2.7817e-16)
(1.04559 -8.03733e-16 3.21214e-16)
(1.0493 -7.98115e-16 2.90082e-16)
(1.0493 -8.15489e-16 2.94076e-16)
(1.05296 -8.0516e-16 3.04441e-16)
(1.05296 -8.09586e-16 2.62786e-16)
(1.05658 -8.8873e-16 2.1704e-16)
(1.05658 -8.22262e-16 3.13329e-16)
(1.06015 -8.58226e-16 2.35681e-16)
(1.06015 -8.42467e-16 2.86996e-16)
(1.06366 -8.51464e-16 2.6504e-16)
(1.06366 -8.23234e-16 3.00261e-16)
(1.06712 -8.75038e-16 2.05966e-16)
(1.06712 -8.28653e-16 2.66651e-16)
(1.07052 -8.33866e-16 2.09656e-16)
(1.07052 -8.1427e-16 2.28675e-16)
(1.07386 -8.3577e-16 2.14504e-16)
(1.07386 -7.90988e-16 2.84936e-16)
(1.07712 -7.90734e-16 2.73852e-16)
(1.07712 -8.24028e-16 2.31432e-16)
(1.08031 -7.86482e-16 2.27962e-16)
(1.08031 -8.39186e-16 2.80329e-16)
(1.08343 -7.82147e-16 2.71587e-16)
(1.08343 -7.90189e-16 2.70117e-16)
(1.08645 -7.46424e-16 2.13482e-16)
(1.08645 -7.79737e-16 2.01716e-16)
(1.08939 -7.35994e-16 2.25107e-16)
(1.08939 -7.83671e-16 2.22161e-16)
(1.09222 -7.16582e-16 1.85974e-16)
(1.09222 -7.60916e-16 2.17125e-16)
(1.09494 -7.23197e-16 1.38095e-16)
(1.09494 -7.02472e-16 2.23896e-16)
(1.09754 -7.18651e-16 1.0429e-16)
(1.09754 -6.54006e-16 2.32833e-16)
(1.10001 -6.75833e-16 1.3149e-16)
(1.10001 -6.232e-16 1.54499e-16)
(1.10233 -6.53993e-16 1.48573e-16)
(1.10233 -6.45208e-16 1.50463e-16)
(1.10449 -6.55264e-16 1.57303e-16)
(1.10449 -6.45538e-16 1.27301e-16)
(1.10647 -6.4314e-16 1.96414e-16)
(1.10647 -5.9771e-16 1.96456e-16)
(1.10825 -5.1931e-16 2.12914e-16)
(1.10825 -5.64213e-16 1.04569e-16)
(1.10981 -4.56957e-16 2.37231e-16)
(1.10981 -5.31879e-16 4.35699e-17)
(1.11111 -4.46089e-16 1.49563e-16)
(1.11111 -4.49113e-16 1.39966e-16)
(1.11214 -4.37224e-16 1.62841e-16)
(1.11214 -4.15241e-16 2.72169e-16)
(1.11286 -4.37591e-16 2.34802e-16)
(1.11286 -4.46453e-16 2.51556e-16)
(1.11323 -4.81535e-16 1.74337e-16)
(1.11323 -4.61694e-16 2.1371e-16)
(0.00469631 -5.75998e-19 1.53374e-18)
(0.00469631 -1.8517e-19 2.71848e-17)
(0.0142242 1.25426e-18 -1.51072e-17)
(0.0142242 5.78775e-19 1.10127e-16)
(0.0240292 1.67011e-18 -1.59592e-17)
(0.0240292 8.03186e-19 1.16582e-16)
(0.0341192 2.76733e-18 -1.68304e-17)
(0.0341192 1.3528e-18 1.23362e-16)
(0.0445024 3.93785e-18 -1.77174e-17)
(0.0445024 1.94761e-18 1.30476e-16)
(0.0551873 5.15475e-18 -1.86167e-17)
(0.0551873 2.53224e-18 1.37932e-16)
(0.0661822 6.3092e-18 -1.9524e-17)
(0.0661822 3.28161e-18 1.45735e-16)
(0.0774958 7.44468e-18 -2.04406e-17)
(0.0774958 4.16511e-18 1.53903e-16)
(0.0891366 8.64021e-18 -2.13646e-17)
(0.0891366 4.92487e-18 1.62436e-16)
(0.101113 9.93222e-18 -2.22887e-17)
(0.101113 5.69503e-18 1.7133e-16)
(0.113432 1.12909e-17 -2.32022e-17)
(0.113432 6.44144e-18 1.80582e-16)
(0.126101 1.2663e-17 -2.41003e-17)
(0.126101 7.22262e-18 1.90169e-16)
(0.139125 1.41605e-17 -2.49733e-17)
(0.139125 8.1007e-18 2.00055e-16)
(0.152506 1.56413e-17 -2.58075e-17)
(0.152506 9.0295e-18 2.10195e-16)
(0.166243 1.70682e-17 -2.6594e-17)
(0.166243 1.03062e-17 2.20528e-16)
(0.180329 1.86503e-17 -2.73345e-17)
(0.180329 1.18263e-17 2.30951e-16)
(0.194753 2.02901e-17 -2.79884e-17)
(0.194753 1.32448e-17 2.41311e-16)
(0.209495 2.183e-17 -2.8541e-17)
(0.209495 1.46531e-17 2.51435e-16)
(0.224525 2.3434e-17 -2.89624e-17)
(0.224525 1.60955e-17 2.61125e-16)
(0.239806 2.50098e-17 -2.92228e-17)
(0.239806 1.78551e-17 2.70161e-16)
(0.255287 2.65263e-17 -2.92949e-17)
(0.255287 1.96071e-17 2.78328e-16)
(0.270911 2.82081e-17 -2.91709e-17)
(0.270911 2.07109e-17 2.85379e-16)
(0.286612 2.90221e-17 -2.87829e-17)
(0.286612 2.23579e-17 2.91093e-16)
(0.30232 2.93119e-17 -2.81819e-17)
(0.30232 2.46474e-17 2.95321e-16)
(0.317963 2.97704e-17 -2.73707e-17)
(0.317963 2.70859e-17 2.98038e-16)
(0.333471 2.97728e-17 -2.63428e-17)
(0.333471 2.99634e-17 2.99241e-16)
(0.348779 2.97666e-17 -2.51502e-17)
(0.348779 3.24723e-17 2.98942e-16)
(0.363832 2.98399e-17 -2.38043e-17)
(0.363832 3.50934e-17 2.97222e-16)
(0.378583 3.0282e-17 -2.23021e-17)
(0.378583 3.76116e-17 2.94337e-16)
(0.392996 3.09858e-17 -2.06599e-17)
(0.392996 3.94956e-17 2.90393e-16)
(0.407044 3.15992e-17 -1.89165e-17)
(0.407044 4.18592e-17 2.85628e-16)
(0.420711 3.26776e-17 -1.70705e-17)
(0.420711 4.42222e-17 2.80106e-16)
(0.433988 3.31383e-17 -1.51219e-17)
(0.433988 4.81898e-17 2.73916e-16)
(0.446874 3.23793e-17 -1.32389e-17)
(0.446874 5.29418e-17 2.67453e-16)
(0.459372 3.13765e-17 -1.13799e-17)
(0.459372 5.62328e-17 2.606e-16)
(0.47149 3.0086e-17 -9.58147e-18)
(0.47149 6.01483e-17 2.53561e-16)
(0.483238 2.92731e-17 -7.91556e-18)
(0.483238 6.38572e-17 2.46557e-16)
(0.494631 2.83086e-17 -8.33556e-18)
(0.494631 6.63771e-17 2.39449e-16)
(0.505681 2.75804e-17 -1.08497e-17)
(0.505681 6.97207e-17 2.31538e-16)
(0.516405 2.76917e-17 -1.31849e-17)
(0.516405 7.31857e-17 2.23479e-16)
(0.526818 2.82996e-17 -1.56601e-17)
(0.526818 7.46843e-17 2.15435e-16)
(0.536935 2.84878e-17 -1.8315e-17)
(0.536935 7.72473e-17 2.07397e-16)
(0.546771 2.64233e-17 -2.08704e-17)
(0.546771 8.01949e-17 1.99409e-16)
(0.556342 2.30964e-17 -2.32517e-17)
(0.556342 8.20224e-17 1.91483e-16)
(0.565661 2.01836e-17 -2.5738e-17)
(0.565661 8.53405e-17 1.83561e-16)
(0.574741 1.78708e-17 -2.82367e-17)
(0.574741 8.93123e-17 1.75712e-16)
(0.583597 1.73226e-17 -3.07077e-17)
(0.583597 8.90461e-17 1.67925e-16)
(0.592239 1.74979e-17 -3.30825e-17)
(0.592239 8.75762e-17 1.60252e-16)
(0.600679 1.91263e-17 -3.55026e-17)
(0.600679 8.56515e-17 1.52728e-16)
(0.608929 2.05357e-17 -3.79698e-17)
(0.608929 8.25658e-17 1.45112e-16)
(0.616999 2.05806e-17 -4.07425e-17)
(0.616999 8.3901e-17 1.37361e-16)
(0.624897 2.13334e-17 -4.38815e-17)
(0.624897 8.13158e-17 1.2969e-16)
(0.632634 2.01602e-17 -4.64557e-17)
(0.632634 8.11003e-17 1.21956e-16)
(0.640217 2.10695e-17 -4.91499e-17)
(0.640217 8.30934e-17 1.14206e-16)
(0.647654 2.36381e-17 -5.25327e-17)
(0.647654 8.06746e-17 1.06079e-16)
(0.654954 2.28109e-17 -5.56927e-17)
(0.654954 8.1003e-17 9.78593e-17)
(0.662122 2.08528e-17 -5.89183e-17)
(0.662122 8.11518e-17 8.96444e-17)
(0.669166 1.99717e-17 -6.2446e-17)
(0.669166 7.99312e-17 8.13465e-17)
(0.676091 1.84074e-17 -6.57886e-17)
(0.676091 8.07134e-17 7.27857e-17)
(0.682904 1.7285e-17 -6.90233e-17)
(0.682904 8.35175e-17 6.40697e-17)
(0.689609 1.33672e-17 -7.28162e-17)
(0.689609 8.52467e-17 5.58989e-17)
(0.696213 8.50983e-18 -7.67233e-17)
(0.696213 8.59672e-17 4.72316e-17)
(0.702719 6.02606e-18 -8.08615e-17)
(0.702719 8.53799e-17 3.90462e-17)
(0.709132 3.45186e-18 -8.55716e-17)
(0.709132 8.45696e-17 3.13094e-17)
(0.715456 4.20557e-19 -9.03393e-17)
(0.715456 8.27642e-17 2.40642e-17)
(0.721696 -7.0541e-18 -9.46044e-17)
(0.721696 8.25151e-17 1.74815e-17)
(0.727855 -1.27628e-17 -9.94853e-17)
(0.727855 8.09473e-17 1.11634e-17)
(0.733936 -1.62689e-17 -1.05361e-16)
(0.733936 7.70301e-17 5.66346e-18)
(0.739944 -1.86876e-17 -1.12118e-16)
(0.739944 7.33163e-17 7.50795e-19)
(0.74588 -2.08313e-17 -1.19199e-16)
(0.74588 6.92052e-17 -3.82998e-18)
(0.751749 -2.41928e-17 -1.2671e-16)
(0.751749 6.82792e-17 -9.54353e-18)
(0.757553 -2.59584e-17 -1.33584e-16)
(0.757553 7.00584e-17 -1.20492e-17)
(0.763294 -2.89741e-17 -1.40252e-16)
(0.763294 6.87283e-17 -1.17829e-17)
(0.768976 -3.02143e-17 -1.46335e-16)
(0.768976 6.16808e-17 -1.27093e-17)
(0.7746 -3.36159e-17 -1.53257e-16)
(0.7746 5.96514e-17 -1.4307e-17)
(0.780169 -4.12351e-17 -1.61351e-16)
(0.780169 5.62144e-17 -1.46584e-17)
(0.785685 -4.48581e-17 -1.68538e-16)
(0.785685 4.76413e-17 -1.42837e-17)
(0.791149 -4.86175e-17 -1.77916e-16)
(0.791149 4.2683e-17 -1.56129e-17)
(0.796565 -5.81007e-17 -1.89931e-16)
(0.796565 4.0068e-17 -1.63281e-17)
(0.801933 -6.63784e-17 -2.01481e-16)
(0.801933 3.4848e-17 -1.23462e-17)
(0.807255 -7.13353e-17 -2.12418e-16)
(0.807255 2.81634e-17 -1.03145e-17)
(0.812533 -7.39464e-17 -2.23465e-16)
(0.812533 3.12601e-17 -9.44039e-18)
(0.817769 -7.82561e-17 -2.35814e-16)
(0.817769 3.07999e-17 -8.70974e-18)
(0.822964 -8.20114e-17 -2.47632e-16)
(0.822964 2.44089e-17 -4.38063e-18)
(0.828119 -7.83096e-17 -2.58208e-16)
(0.828119 2.03077e-17 -9.54839e-19)
(0.833235 -7.60172e-17 -2.7043e-16)
(0.833235 1.44755e-17 -1.63658e-17)
(0.838315 -7.74304e-17 -2.88667e-16)
(0.838315 1.18468e-17 -3.23546e-17)
(0.843359 -7.58518e-17 -3.06484e-16)
(0.843359 1.25831e-17 -4.89697e-17)
(0.848367 -7.39289e-17 -3.22344e-16)
(0.848367 7.43345e-18 -7.16512e-17)
(0.853342 -7.69879e-17 -3.38411e-16)
(0.853342 3.29161e-19 -1.00573e-16)
(0.858284 -8.47669e-17 -3.58911e-16)
(0.858284 3.03823e-18 -1.14824e-16)
(0.863194 -9.11928e-17 -3.80891e-16)
(0.863194 -3.78734e-20 -1.13028e-16)
(0.868073 -9.44699e-17 -3.99014e-16)
(0.868073 -1.61052e-17 -1.06544e-16)
(0.872922 -9.74447e-17 -4.15485e-16)
(0.872922 -2.17502e-17 -1.00554e-16)
(0.877741 -9.5965e-17 -4.40042e-16)
(0.877741 -3.13567e-17 -1.03491e-16)
(0.882531 -9.28518e-17 -4.67054e-16)
(0.882531 -5.11429e-17 -1.07048e-16)
(0.887293 -9.79322e-17 -4.95914e-16)
(0.887293 -5.97685e-17 -1.12839e-16)
(0.892028 -1.04087e-16 -5.2489e-16)
(0.892028 -6.62894e-17 -1.16705e-16)
(0.896736 -1.0998e-16 -5.55533e-16)
(0.896736 -7.77788e-17 -1.18922e-16)
(0.901418 -1.26267e-16 -5.89892e-16)
(0.901418 -7.30273e-17 -1.31378e-16)
(0.906073 -1.40337e-16 -6.23109e-16)
(0.906073 -7.12413e-17 -1.48437e-16)
(0.910703 -1.49219e-16 -6.44924e-16)
(0.910703 -8.35196e-17 -1.6058e-16)
(0.915308 -1.54371e-16 -6.37154e-16)
(0.915308 -9.32749e-17 -1.64712e-16)
(0.919888 -1.52713e-16 -6.24184e-16)
(0.919888 -1.02758e-16 -1.78564e-16)
(0.924444 -1.61965e-16 -6.18475e-16)
(0.924444 -1.20623e-16 -1.93053e-16)
(0.928976 -1.75446e-16 -6.10255e-16)
(0.928976 -1.38433e-16 -2.11562e-16)
(0.933483 -1.66286e-16 -6.0131e-16)
(0.933483 -1.20545e-16 -2.34833e-16)
(0.937967 -1.61822e-16 -5.92721e-16)
(0.937967 -1.21174e-16 -2.52974e-16)
(0.942427 -1.68783e-16 -5.78356e-16)
(0.942427 -1.51584e-16 -2.8295e-16)
(0.946864 -1.69691e-16 -5.69975e-16)
(0.946864 -1.30077e-16 -2.96352e-16)
(0.951277 -1.85061e-16 -5.68499e-16)
(0.951277 -1.49176e-16 -2.9279e-16)
(0.955667 -2.00781e-16 -5.55873e-16)
(0.955667 -1.70838e-16 -3.23758e-16)
(0.960033 -1.99544e-16 -5.31303e-16)
(0.960033 -1.73223e-16 -3.8126e-16)
(0.964375 -2.07074e-16 -5.21883e-16)
(0.964375 -1.95003e-16 -4.13921e-16)
(0.968694 -2.2115e-16 -5.08161e-16)
(0.968694 -2.01365e-16 -4.32745e-16)
(0.972989 -2.23716e-16 -5.03776e-16)
(0.972989 -2.27326e-16 -4.58546e-16)
(0.977259 -2.34368e-16 -5.03944e-16)
(0.977259 -2.35339e-16 -4.75543e-16)
(0.981505 -2.45252e-16 -5.00128e-16)
(0.981505 -2.51258e-16 -4.87992e-16)
(0.985726 -2.5893e-16 -4.89184e-16)
(0.985726 -2.70293e-16 -5.11963e-16)
(0.989922 -2.76772e-16 -5.13523e-16)
(0.989922 -2.7298e-16 -5.39554e-16)
(0.994092 -2.80309e-16 -5.06197e-16)
(0.994092 -2.78783e-16 -5.4175e-16)
(0.998236 -2.94839e-16 -5.05953e-16)
(0.998236 -2.74073e-16 -5.51041e-16)
(1.00235 -3.13236e-16 -5.50666e-16)
(1.00235 -2.70907e-16 -5.69122e-16)
(1.00644 -3.12805e-16 -5.45308e-16)
(1.00644 -3.08296e-16 -5.48487e-16)
(1.0105 -3.31999e-16 -5.58722e-16)
(1.0105 -3.37447e-16 -5.50247e-16)
(1.01453 -3.41621e-16 -5.23821e-16)
(1.01453 -3.76695e-16 -5.04713e-16)
(1.01853 -3.54086e-16 -5.16764e-16)
(1.01853 -3.70531e-16 -5.15743e-16)
(1.0225 -3.96121e-16 -4.99788e-16)
(1.0225 -3.53135e-16 -5.14141e-16)
(1.02644 -3.91059e-16 -4.73408e-16)
(1.02644 -3.96551e-16 -4.70816e-16)
(1.03034 -4.1719e-16 -4.75054e-16)
(1.03034 -4.24074e-16 -4.46496e-16)
(1.03421 -4.58875e-16 -4.78231e-16)
(1.03421 -4.34463e-16 -4.3225e-16)
(1.03804 -4.60747e-16 -4.68153e-16)
(1.03804 -4.50255e-16 -4.55249e-16)
(1.04183 -5.16066e-16 -4.26412e-16)
(1.04183 -4.68874e-16 -4.56299e-16)
(1.04559 -5.58006e-16 -4.46788e-16)
(1.04559 -5.09313e-16 -4.30811e-16)
(1.0493 -5.24342e-16 -4.72591e-16)
(1.0493 -5.71256e-16 -4.28868e-16)
(1.05296 -5.21016e-16 -4.34629e-16)
(1.05296 -5.48075e-16 -4.8645e-16)
(1.05658 -5.66516e-16 -4.5254e-16)
(1.05658 -5.56107e-16 -4.5535e-16)
(1.06015 -5.77424e-16 -4.16515e-16)
(1.06015 -5.91493e-16 -4.05921e-16)
(1.06366 -5.69731e-16 -3.8702e-16)
(1.06366 -5.7528e-16 -3.98266e-16)
(1.06712 -5.66977e-16 -3.51467e-16)
(1.06712 -6.03927e-16 -4.10189e-16)
(1.07052 -5.75049e-16 -2.83024e-16)
(1.07052 -6.23548e-16 -4.53043e-16)
(1.07386 -6.12465e-16 -2.81596e-16)
(1.07386 -6.71507e-16 -4.55216e-16)
(1.07712 -6.62333e-16 -3.35236e-16)
(1.07712 -5.85763e-16 -4.33771e-16)
(1.08031 -7.26292e-16 -4.00887e-16)
(1.08031 -5.84396e-16 -3.55651e-16)
(1.08343 -5.33097e-16 -3.16137e-16)
(1.08343 -6.22775e-16 -3.0829e-16)
(1.08645 -5.43374e-16 -2.30678e-16)
(1.08645 -6.35365e-16 -2.93105e-16)
(1.08939 -6.04413e-16 -2.25357e-16)
(1.08939 -6.22597e-16 -3.08255e-16)
(1.09222 -6.31187e-16 -2.1615e-16)
(1.09222 -7.14601e-16 -2.49311e-16)
(1.09494 -6.69868e-16 -1.81113e-16)
(1.09494 -6.57047e-16 -2.67699e-16)
(1.09754 -6.55751e-16 -1.88811e-16)
(1.09754 -5.8507e-16 -1.81913e-16)
(1.10001 -6.197e-16 -1.38835e-16)
(1.10001 -5.74896e-16 -1.57471e-16)
(1.10233 -6.07219e-16 -1.32244e-16)
(1.10233 -5.51191e-16 -1.49636e-16)
(1.10449 -5.16253e-16 -2.01497e-16)
(1.10449 -5.61149e-16 -2.10208e-16)
(1.10647 -5.24989e-16 -1.77818e-16)
(1.10647 -5.28028e-16 -1.62355e-16)
(1.10825 -4.91252e-16 -8.63152e-17)
(1.10825 -5.16476e-16 -7.22583e-17)
(1.10981 -4.61313e-16 -2.06027e-16)
(1.10981 -4.8049e-16 -1.87269e-16)
(1.11111 -5.13875e-16 -3.12844e-16)
(1.11111 -5.3149e-16 -2.64192e-16)
(1.11214 -5.09461e-16 -1.87961e-16)
(1.11214 -4.95136e-16 -2.64322e-16)
(1.11286 -4.75669e-16 -2.47644e-16)
(1.11286 -4.82512e-16 -3.99337e-16)
(1.11323 -4.52024e-16 -3.59151e-16)
(1.11323 -4.96152e-16 -4.04664e-16)
(1.11323 -5.21766e-16 2.63682e-16)
(1.11323 -4.51969e-16 2.17318e-16)
(1.11286 -3.66067e-16 2.16143e-16)
(1.11286 -4.39813e-16 2.49234e-16)
(1.11214 -2.39789e-16 1.25548e-16)
(1.11214 -3.3568e-16 2.57817e-16)
(1.11111 -3.11139e-16 2.41679e-16)
(1.11111 -3.62613e-16 2.01605e-16)
(1.10981 -2.76997e-16 1.149e-16)
(1.10981 -3.69633e-16 2.01656e-16)
(1.10825 -3.20733e-16 2.23749e-16)
(1.10825 -3.58785e-16 1.52355e-16)
(1.10647 -2.70311e-16 1.86741e-16)
(1.10647 -3.43117e-16 2.69791e-16)
(1.10449 -3.39512e-16 2.55784e-16)
(1.10449 -2.83351e-16 2.16157e-16)
(1.10233 -3.11606e-16 1.23367e-16)
(1.10233 -3.38208e-16 1.53346e-16)
(1.10001 -2.75848e-16 1.80324e-16)
(1.10001 -2.73247e-16 1.44379e-16)
(1.09754 -1.92217e-16 7.36287e-17)
(1.09754 -1.81592e-16 1.53875e-16)
(1.09494 -1.74613e-16 1.12255e-16)
(1.09494 -1.94739e-16 2.01146e-16)
(1.09222 -2.23955e-16 1.68636e-16)
(1.09222 -2.13172e-16 2.23635e-16)
(1.08939 -2.61802e-16 1.79083e-16)
(1.08939 -1.88896e-16 1.49408e-16)
(1.08645 -1.99356e-16 1.67854e-16)
(1.08645 -1.76408e-16 1.33597e-16)
(1.08343 -1.98233e-16 5.45722e-17)
(1.08343 -1.79032e-16 6.24433e-17)
(1.08031 -1.35791e-16 1.02772e-16)
(1.08031 -2.20034e-16 8.36972e-17)
(1.07712 -1.97987e-16 1.27319e-16)
(1.07712 -2.21265e-16 1.28002e-16)
(1.07386 -1.92582e-16 1.07475e-16)
(1.07386 -1.83895e-16 1.42354e-16)
(1.07052 -1.59325e-16 1.00675e-16)
(1.07052 -1.68301e-16 6.42455e-17)
(1.06712 -1.31596e-16 4.40509e-17)
(1.06712 -1.88652e-16 9.46194e-17)
(1.06366 -9.44575e-17 1.76893e-17)
(1.06366 -1.70628e-16 1.01142e-16)
(1.06015 -1.3492e-16 5.12888e-17)
(1.06015 -7.40576e-17 1.23746e-16)
(1.05658 -1.47591e-16 7.22854e-17)
(1.05658 -1.14198e-16 1.00498e-16)
(1.05296 -8.16678e-17 5.47359e-17)
(1.05296 -1.34757e-16 1.11894e-16)
(1.0493 -8.93691e-17 6.83239e-17)
(1.0493 -1.26713e-16 1.4275e-16)
(1.04559 -1.27302e-16 7.66529e-17)
(1.04559 -9.56971e-17 1.1799e-16)
(1.04183 -8.46835e-17 4.32989e-17)
(1.04183 -1.12555e-16 1.24836e-16)
(1.03804 -8.97099e-17 6.303e-17)
(1.03804 -1.11487e-16 1.03492e-16)
(1.03421 -9.47885e-17 3.4636e-17)
(1.03421 -1.00578e-16 8.97157e-17)
(1.03034 -7.54283e-17 4.40474e-17)
(1.03034 -9.93146e-17 1.14633e-16)
(1.02644 -6.39094e-17 6.3522e-17)
(1.02644 -8.83537e-17 1.28853e-16)
(1.0225 -1.42341e-16 9.54355e-17)
(1.0225 -6.28041e-17 8.60656e-17)
(1.01853 -1.17724e-16 8.33455e-17)
(1.01853 -7.9109e-17 5.20286e-17)
(1.01453 -1.04693e-16 4.7277e-17)
(1.01453 -1.13407e-16 5.69465e-17)
(1.0105 -9.05226e-17 3.58697e-17)
(1.0105 -9.62892e-17 4.45275e-17)
(1.00644 -9.56344e-17 2.85886e-17)
(1.00644 -1.18823e-16 5.76359e-17)
(1.00235 -1.50903e-16 5.33424e-17)
(1.00235 -1.04247e-16 5.11947e-17)
(0.998236 -1.15558e-16 2.62445e-17)
(0.998236 -9.39934e-17 4.34015e-17)
(0.994092 -1.06147e-16 2.38497e-17)
(0.994092 -1.09999e-16 1.40483e-17)
(0.989922 -8.23151e-17 1.10062e-17)
(0.989922 -1.06276e-16 2.52192e-17)
(0.985726 -1.00605e-16 2.65805e-17)
(0.985726 -9.4727e-17 1.82273e-17)
(0.981505 -8.2218e-17 2.0236e-17)
(0.981505 -1.06508e-16 1.9915e-17)
(0.977259 -8.67598e-17 1.65226e-17)
(0.977259 -9.76849e-17 3.21806e-17)
(0.972989 -7.83937e-17 9.90356e-18)
(0.972989 -9.48772e-17 4.17284e-17)
(0.968694 -7.80828e-17 1.57088e-17)
(0.968694 -1.05021e-16 4.54959e-17)
(0.964375 -7.67876e-17 1.04328e-17)
(0.964375 -9.14391e-17 5.79925e-17)
(0.960033 -7.42553e-17 1.16295e-17)
(0.960033 -5.83764e-17 8.14345e-17)
(0.955667 -8.61925e-17 1.49594e-17)
(0.955667 -8.57342e-17 7.51133e-17)
(0.951277 -7.65646e-17 8.27781e-18)
(0.951277 -7.87354e-17 6.48679e-17)
(0.946864 -6.6022e-17 7.59434e-18)
(0.946864 -7.72649e-17 6.93623e-17)
(0.942427 -6.10612e-17 1.29456e-17)
(0.942427 -7.15112e-17 6.8784e-17)
(0.937967 -5.74003e-17 5.63642e-18)
(0.937967 -4.55987e-17 7.63696e-17)
(0.933483 -6.3622e-17 1.23492e-17)
(0.933483 -6.55135e-17 6.56781e-17)
(0.928976 -6.63977e-17 2.15902e-17)
(0.928976 -5.38731e-17 5.67689e-17)
(0.924444 -6.80311e-17 1.85675e-17)
(0.924444 -6.47778e-17 5.16718e-17)
(0.919888 -7.07661e-17 9.72263e-18)
(0.919888 -6.618e-17 5.12099e-17)
(0.915308 -7.76555e-17 1.31467e-17)
(0.915308 -6.00215e-17 4.72497e-17)
(0.910703 -7.96105e-17 1.15953e-17)
(0.910703 -5.45063e-17 3.93312e-17)
(0.906073 -5.82965e-17 6.67497e-18)
(0.906073 -6.61486e-17 3.06202e-17)
(0.901418 -6.62347e-17 6.38235e-18)
(0.901418 -5.52867e-17 3.60208e-17)
(0.896736 -4.67531e-17 2.6976e-18)
(0.896736 -5.90095e-17 3.60364e-17)
(0.892028 -4.49077e-17 3.99049e-18)
(0.892028 -5.2994e-17 3.65828e-17)
(0.887293 -4.73194e-17 4.47995e-18)
(0.887293 -4.96987e-17 3.43364e-17)
(0.882531 -4.53203e-17 6.24048e-18)
(0.882531 -4.84732e-17 3.07588e-17)
(0.877741 -4.02768e-17 8.04636e-18)
(0.877741 -4.67262e-17 2.88e-17)
(0.872922 -4.74285e-17 1.13917e-17)
(0.872922 -5.30545e-17 2.39393e-17)
(0.868073 -5.07337e-17 1.51116e-17)
(0.868073 -5.1177e-17 2.2304e-17)
(0.863194 -4.3987e-17 1.88488e-17)
(0.863194 -4.17928e-17 2.28013e-17)
(0.858284 -3.46415e-17 1.78289e-17)
(0.858284 -5.29287e-17 2.09584e-17)
(0.853342 -3.61293e-17 2.03103e-17)
(0.853342 -4.95146e-17 1.72448e-17)
(0.848367 -3.82956e-17 2.15304e-17)
(0.848367 -3.96887e-17 1.92597e-17)
(0.843359 -3.54576e-17 2.47305e-17)
(0.843359 -3.58208e-17 1.971e-17)
(0.838315 -2.81993e-17 2.5715e-17)
(0.838315 -2.99153e-17 1.7183e-17)
(0.833235 -2.49165e-17 2.55469e-17)
(0.833235 -3.41412e-17 1.52364e-17)
(0.828119 -2.04115e-17 2.44582e-17)
(0.828119 -2.48108e-17 1.33682e-17)
(0.822964 -1.40877e-17 2.20911e-17)
(0.822964 -2.08607e-17 1.37706e-17)
(0.817769 -1.56995e-17 2.02519e-17)
(0.817769 -2.82449e-17 1.46756e-17)
(0.812533 -1.54444e-17 1.92352e-17)
(0.812533 -2.65957e-17 1.69937e-17)
(0.807255 -1.54918e-17 1.85638e-17)
(0.807255 -2.49693e-17 1.65737e-17)
(0.801933 -1.54574e-17 1.80033e-17)
(0.801933 -2.07555e-17 1.63504e-17)
(0.796565 -1.97261e-17 1.78831e-17)
(0.796565 -1.9139e-17 1.58371e-17)
(0.791149 -1.1284e-17 1.77477e-17)
(0.791149 -2.27977e-17 1.40642e-17)
(0.785685 -6.41269e-18 1.60001e-17)
(0.785685 -2.33435e-17 1.41214e-17)
(0.780169 -8.12047e-18 1.4665e-17)
(0.780169 -2.50755e-17 1.48289e-17)
(0.7746 -7.6188e-18 1.39076e-17)
(0.7746 -2.46326e-17 1.7161e-17)
(0.768976 -7.31291e-18 1.35715e-17)
(0.768976 -2.71155e-17 1.85137e-17)
(0.763294 -7.71614e-18 1.32132e-17)
(0.763294 -3.0849e-17 1.86712e-17)
(0.757553 -6.7458e-18 1.14986e-17)