/*--------------------------------*- C++ -*----------------------------------*\
| =========                 |                                                 |
| \\      /  F ield         | OpenFOAM: The Open Source CFD Toolbox           |
|  \\    /   O peration     | Version:  2012                                  |
|   \\  /    A nd           | Website:  www.openfoam.com                      |
|    \\/     M anipulation  |                                                 |
\*---------------------------------------------------------------------------*/
FoamFile
{
    version     2.0;
    format      ascii;
    class       volScalarField;
    location    "3000";
    object      p;
}
// * * * * * * * * * * * * * * * * * * * * * * * * * * * * * * * * * * * * * //

dimensions      [0 2 -2 0 0 0 0];


internalField   nonuniform List<scalar> 
40
(
5.02935e-17
5.72351e-16
1.43048e-16
5.19995e-16
3.40634e-17
1.13047e-16
-3.22046e-16
-9.05609e-17
-7.57208e-15
-7.52487e-15
3.71734e-16
4.57462e-16
3.68959e-16
4.50483e-16
2.05761e-16
3.03584e-16
-6.03772e-17
-5.06629e-17
-7.27195e-15
-7.26253e-15
-7.04983e-15
-7.14362e-15
-6.88425e-15
-6.86951e-15
-6.84028e-15
-6.83912e-15
-6.83683e-15
-6.83542e-15
-6.83809e-15
-6.8353e-15
-7.08669e-15
-7.10528e-15
-6.91585e-15
-6.83731e-15
-6.83667e-15
-6.8342e-15
-6.82223e-15
-6.82489e-15
-6.8254e-15
-6.82645e-15
)
;

boundaryField
{
    walls
    {
        type            zeroGradient;
    }
    inlet
    {
        type            cyclic;
    }
    outlet
    {
        type            cyclic;
    }
    sides
    {
        type            empty;
    }
}


// ************************************************************************* //
