/*--------------------------------*- C++ -*----------------------------------*\
| =========                 |                                                 |
| \\      /  F ield         | OpenFOAM: The Open Source CFD Toolbox           |
|  \\    /   O peration     | Version:  2106                                  |
|   \\  /    A nd           | Website:  www.openfoam.com                      |
|    \\/     M anipulation  |                                                 |
\*---------------------------------------------------------------------------*/
FoamFile
{
    version     2.0;
    format      ascii;
    arch        "LSB;label=32;scalar=64";
    class       volVectorField;
    location    "16000";
    object      U;
}
// * * * * * * * * * * * * * * * * * * * * * * * * * * * * * * * * * * * * * //

dimensions      [0 1 -1 0 0 0 0];

internalField   nonuniform List<vector> 
2560
(
(0.0155595 -8.18816e-16 -1.06455e-16)
(0.0155595 -2.47257e-18 5.99478e-32)
(0.0468999 -3.14893e-15 -3.16019e-16)
(0.0468999 -2.38428e-18 -4.75616e-20)
(0.0786867 -2.98801e-15 -3.25379e-16)
(0.0786867 -7.28686e-18 -5.8775e-20)
(0.110895 -2.73739e-15 -3.3368e-16)
(0.110895 -1.13331e-17 -8.6255e-20)
(0.143411 -2.78121e-15 -3.39965e-16)
(0.143411 -1.56655e-17 -1.17697e-19)
(0.175927 -2.78666e-15 -3.41717e-16)
(0.175927 -2.00076e-17 -1.51258e-19)
(0.207878 -2.78299e-15 -3.36301e-16)
(0.207878 -2.42741e-17 -1.83798e-19)
(0.238513 -2.77483e-15 -3.22747e-16)
(0.238513 -2.85782e-17 -2.10949e-19)
(0.267137 -2.7677e-15 -3.02623e-16)
(0.267137 -3.27493e-17 -2.31014e-19)
(0.293324 -2.76136e-15 -2.7907e-16)
(0.293324 -3.65694e-17 -2.45766e-19)
(0.316972 -2.75579e-15 -2.55086e-16)
(0.316972 -3.99709e-17 -2.41869e-19)
(0.338212 -2.75066e-15 -2.32606e-16)
(0.338212 -4.33136e-17 -2.20608e-19)
(0.357288 -2.74618e-15 -2.125e-16)
(0.357288 -4.63085e-17 -1.94168e-19)
(0.374479 -2.74213e-15 -1.94958e-16)
(0.374479 -4.89089e-17 -1.71326e-19)
(0.390047 -2.73798e-15 -1.79828e-16)
(0.390047 -5.16105e-17 -1.42205e-19)
(0.404226 -2.7341e-15 -1.66828e-16)
(0.404226 -5.40534e-17 -1.12335e-19)
(0.417213 -2.7306e-15 -1.55652e-16)
(0.417213 -5.64309e-17 -8.66735e-20)
(0.429175 -2.72737e-15 -1.46018e-16)
(0.429175 -5.89896e-17 -6.43103e-20)
(0.440251 -2.72441e-15 -1.3768e-16)
(0.440251 -6.08643e-17 -4.25333e-20)
(0.450557 -2.72151e-15 -1.30432e-16)
(0.450557 -6.28226e-17 -2.66398e-20)
(0.460188 -2.71837e-15 -1.24102e-16)
(0.460188 -6.51637e-17 -3.32524e-21)
(0.469227 -2.7153e-15 -1.18548e-16)
(0.469227 -6.71349e-17 2.0322e-20)
(0.47774 -2.71268e-15 -1.13655e-16)
(0.47774 -6.89189e-17 4.18682e-20)
(0.485787 -2.70992e-15 -1.0933e-16)
(0.485787 -7.10153e-17 5.75326e-20)
(0.493417 -2.70696e-15 -1.0549e-16)
(0.493417 -7.29586e-17 7.11011e-20)
(0.500672 -2.70452e-15 -1.02073e-16)
(0.500672 -7.46572e-17 8.60374e-20)
(0.507588 -2.70224e-15 -9.90223e-17)
(0.507588 -7.63277e-17 1.08113e-19)
(0.514198 -2.70011e-15 -9.62948e-17)
(0.514198 -7.78548e-17 1.37743e-19)
(0.520529 -2.69793e-15 -9.38508e-17)
(0.520529 -7.935e-17 1.57811e-19)
(0.526605 -2.69562e-15 -9.16567e-17)
(0.526605 -8.09613e-17 1.63228e-19)
(0.532449 -2.6929e-15 -8.96845e-17)
(0.532449 -8.2585e-17 1.6527e-19)
(0.538078 -2.69031e-15 -8.79078e-17)
(0.538078 -8.41099e-17 1.71222e-19)
(0.54351 -2.68845e-15 -8.63082e-17)
(0.54351 -8.5265e-17 1.88299e-19)
(0.548759 -2.68643e-15 -8.48699e-17)
(0.548759 -8.63623e-17 2.07724e-19)
(0.553839 -2.68426e-15 -8.35744e-17)
(0.553839 -8.76757e-17 2.25987e-19)
(0.558762 -2.68203e-15 -8.24102e-17)
(0.558762 -8.89952e-17 2.32052e-19)
(0.563539 -2.67977e-15 -8.13647e-17)
(0.563539 -9.0265e-17 2.321e-19)
(0.56818 -2.6777e-15 -8.04288e-17)
(0.56818 -9.14891e-17 2.44207e-19)
(0.572693 -2.67581e-15 -7.95941e-17)
(0.572693 -9.2789e-17 2.55055e-19)
(0.577087 -2.67378e-15 -7.88529e-17)
(0.577087 -9.40612e-17 2.6567e-19)
(0.581369 -2.67171e-15 -7.81989e-17)
(0.581369 -9.50906e-17 2.81917e-19)
(0.585546 -2.66955e-15 -7.76258e-17)
(0.585546 -9.57976e-17 2.98127e-19)
(0.589623 -2.66717e-15 -7.71297e-17)
(0.589623 -9.73377e-17 3.18837e-19)
(0.593607 -2.66465e-15 -7.67087e-17)
(0.593607 -9.91707e-17 3.25742e-19)
(0.597503 -2.66211e-15 -7.6357e-17)
(0.597503 -1.00845e-16 3.38157e-19)
(0.601316 -2.65981e-15 -7.60701e-17)
(0.601316 -1.0247e-16 3.6376e-19)
(0.605049 -2.6577e-15 -7.58479e-17)
(0.605049 -1.04177e-16 3.97792e-19)
(0.608708 -2.65565e-15 -7.56864e-17)
(0.608708 -1.05935e-16 4.35162e-19)
(0.612295 -2.65338e-15 -7.55793e-17)
(0.612295 -1.07509e-16 4.41666e-19)
(0.615815 -2.65135e-15 -7.55195e-17)
(0.615815 -1.09349e-16 4.54203e-19)
(0.619271 -2.64906e-15 -7.55075e-17)
(0.619271 -1.10772e-16 4.71984e-19)
(0.622665 -2.64612e-15 -7.55337e-17)
(0.622665 -1.12716e-16 4.72001e-19)
(0.626001 -2.64317e-15 -7.55992e-17)
(0.626001 -1.14292e-16 4.94709e-19)
(0.629282 -2.64058e-15 -7.57031e-17)
(0.629282 -1.15559e-16 5.12487e-19)
(0.632509 -2.6382e-15 -7.58458e-17)
(0.632509 -1.17524e-16 5.43272e-19)
(0.635686 -2.63537e-15 -7.60239e-17)
(0.635686 -1.19237e-16 5.86484e-19)
(0.638814 -2.63275e-15 -7.62388e-17)
(0.638814 -1.2089e-16 5.92038e-19)
(0.641896 -2.63081e-15 -7.64913e-17)
(0.641896 -1.2197e-16 6.0062e-19)
(0.644933 -2.62831e-15 -7.67801e-17)
(0.644933 -1.23383e-16 5.94714e-19)
(0.647927 -2.62521e-15 -7.70974e-17)
(0.647927 -1.25115e-16 5.97607e-19)
(0.650881 -2.6225e-15 -7.74483e-17)
(0.650881 -1.2645e-16 6.03171e-19)
(0.653795 -2.61963e-15 -7.78334e-17)
(0.653795 -1.27348e-16 6.07682e-19)
(0.656671 -2.6166e-15 -7.82459e-17)
(0.656671 -1.29504e-16 6.13043e-19)
(0.659511 -2.61373e-15 -7.86849e-17)
(0.659511 -1.30094e-16 6.22202e-19)
(0.662316 -2.61078e-15 -7.91491e-17)
(0.662316 -1.31027e-16 6.17443e-19)
(0.665087 -2.60778e-15 -7.96382e-17)
(0.665087 -1.32823e-16 6.21327e-19)
(0.667826 -2.60474e-15 -8.01504e-17)
(0.667826 -1.34126e-16 6.11742e-19)
(0.670534 -2.60179e-15 -8.06897e-17)
(0.670534 -1.35917e-16 6.08832e-19)
(0.673211 -2.59879e-15 -8.1254e-17)
(0.673211 -1.37247e-16 5.99221e-19)
(0.67586 -2.59568e-15 -8.18445e-17)
(0.67586 -1.3869e-16 6.02884e-19)
(0.67848 -2.59233e-15 -8.24579e-17)
(0.67848 -1.40234e-16 6.12835e-19)
(0.681074 -2.58893e-15 -8.3097e-17)
(0.681074 -1.42529e-16 6.19429e-19)
(0.683641 -2.5857e-15 -8.37595e-17)
(0.683641 -1.44194e-16 6.25876e-19)
(0.686183 -2.58226e-15 -8.44487e-17)
(0.686183 -1.45205e-16 6.33275e-19)
(0.688701 -2.57911e-15 -8.51615e-17)
(0.688701 -1.46979e-16 6.27914e-19)
(0.691195 -2.57586e-15 -8.59016e-17)
(0.691195 -1.48969e-16 6.35976e-19)
(0.693666 -2.57309e-15 -8.66663e-17)
(0.693666 -1.50187e-16 6.55701e-19)
(0.696115 -2.57074e-15 -8.74676e-17)
(0.696115 -1.51844e-16 6.66022e-19)
(0.698542 -2.56927e-15 -8.82955e-17)
(0.698542 -1.53542e-16 7.24846e-19)
(0.700949 -2.56813e-15 -8.91662e-17)
(0.700949 -1.54973e-16 7.5294e-19)
(0.703336 -2.56531e-15 -9.00761e-17)
(0.703336 -1.56584e-16 8.1897e-19)
(0.705703 -2.56314e-15 -9.1028e-17)
(0.705703 -1.58424e-16 8.61162e-19)
(0.708051 -2.56105e-15 -9.20257e-17)
(0.708051 -1.59084e-16 8.55318e-19)
(0.710381 -2.55807e-15 -9.30467e-17)
(0.710381 -1.59865e-16 7.96706e-19)
(0.712693 -2.55542e-15 -9.40975e-17)
(0.712693 -1.62439e-16 7.67771e-19)
(0.714988 -2.55244e-15 -9.51688e-17)
(0.714988 -1.63796e-16 7.02659e-19)
(0.717266 -2.54999e-15 -9.62544e-17)
(0.717266 -1.66029e-16 6.51581e-19)
(0.719528 -2.54762e-15 -9.73691e-17)
(0.719528 -1.67977e-16 6.09628e-19)
(0.721774 -2.54507e-15 -9.85088e-17)
(0.721774 -1.68498e-16 5.21135e-19)
(0.724005 -2.543e-15 -9.96657e-17)
(0.724005 -1.7023e-16 4.83641e-19)
(0.726221 -2.53973e-15 -1.00859e-16)
(0.726221 -1.72494e-16 4.35903e-19)
(0.728422 -2.53582e-15 -1.02063e-16)
(0.728422 -1.73378e-16 4.06745e-19)
(0.730609 -2.53211e-15 -1.03278e-16)
(0.730609 -1.73857e-16 3.76187e-19)
(0.732782 -2.52891e-15 -1.04519e-16)
(0.732782 -1.74928e-16 3.80316e-19)
(0.734942 -2.52586e-15 -1.05797e-16)
(0.734942 -1.76734e-16 3.65626e-19)
(0.737089 -2.5228e-15 -1.0709e-16)
(0.737089 -1.7824e-16 3.15772e-19)
(0.739223 -2.52012e-15 -1.08417e-16)
(0.739223 -1.78431e-16 2.92137e-19)
(0.741345 -2.51681e-15 -1.09772e-16)
(0.741345 -1.80156e-16 2.83113e-19)
(0.743455 -2.51361e-15 -1.1115e-16)
(0.743455 -1.81447e-16 3.34647e-19)
(0.745553 -2.51078e-15 -1.12554e-16)
(0.745553 -1.82395e-16 2.85167e-19)
(0.74764 -2.50715e-15 -1.13994e-16)
(0.74764 -1.82679e-16 3.10151e-19)
(0.749716 -2.50153e-15 -1.15454e-16)
(0.749716 -1.84667e-16 3.01335e-19)
(0.751781 -2.49618e-15 -1.16938e-16)
(0.751781 -1.87509e-16 2.94917e-19)
(0.753835 -2.49247e-15 -1.18462e-16)
(0.753835 -1.86759e-16 3.43205e-19)
(0.755879 -2.48905e-15 -1.20016e-16)
(0.755879 -1.89464e-16 3.42717e-19)
(0.757913 -2.48518e-15 -1.21606e-16)
(0.757913 -1.917e-16 3.70086e-19)
(0.759938 -2.48034e-15 -1.23224e-16)
(0.759938 -1.93166e-16 3.79282e-19)
(0.761952 -2.47585e-15 -1.24883e-16)
(0.761952 -1.97429e-16 4.24816e-19)
(0.763958 -2.47188e-15 -1.26575e-16)
(0.763958 -1.99456e-16 4.26001e-19)
(0.765954 -2.46803e-15 -1.28313e-16)
(0.765954 -2.00566e-16 4.37793e-19)
(0.767942 -2.46353e-15 -1.30091e-16)
(0.767942 -2.02849e-16 4.49106e-19)
(0.76992 -2.45876e-15 -1.31893e-16)
(0.76992 -2.05702e-16 4.40421e-19)
(0.771891 -2.45438e-15 -1.33729e-16)
(0.771891 -2.093e-16 4.58335e-19)
(0.773853 -2.44974e-15 -1.35611e-16)
(0.773853 -2.11427e-16 4.39778e-19)
(0.775807 -2.44461e-15 -1.3754e-16)
(0.775807 -2.15016e-16 4.19778e-19)
(0.777753 -2.43906e-15 -1.39503e-16)
(0.777753 -2.19441e-16 3.69352e-19)
(0.779692 -2.43338e-15 -1.41468e-16)
(0.779692 -2.21974e-16 3.33209e-19)
(0.781623 -2.42769e-15 -1.43473e-16)
(0.781623 -2.24081e-16 2.73713e-19)
(0.783547 -2.42328e-15 -1.45496e-16)
(0.783547 -2.25377e-16 1.5951e-19)
(0.785463 -2.41923e-15 -1.47579e-16)
(0.785463 -2.29041e-16 1.19621e-19)
(0.787373 -2.41369e-15 -1.49691e-16)
(0.787373 -2.31704e-16 2.38838e-20)
(0.789275 -2.41093e-15 -1.51798e-16)
(0.789275 -2.30748e-16 7.70866e-20)
(0.791171 -2.40938e-15 -1.53965e-16)
(0.791171 -2.30405e-16 2.96764e-20)
(0.793061 -2.40581e-15 -1.56184e-16)
(0.793061 -2.32148e-16 1.64237e-20)
(0.794944 -2.40208e-15 -1.58442e-16)
(0.794944 -2.32395e-16 -2.71632e-20)
(0.796821 -2.39783e-15 -1.60708e-16)
(0.796821 -2.32309e-16 -6.92385e-21)
(0.798691 -2.39198e-15 -1.62973e-16)
(0.798691 -2.34362e-16 -6.54985e-20)
(0.800556 -2.38613e-15 -1.65234e-16)
(0.800556 -2.33833e-16 9.83117e-20)
(0.802415 -2.38203e-15 -1.67532e-16)
(0.802415 -2.32798e-16 1.05402e-19)
(0.804268 -2.37678e-15 -1.69865e-16)
(0.804268 -2.31624e-16 5.00344e-20)
(0.806116 -2.37268e-15 -1.7222e-16)
(0.806116 -2.30677e-16 -3.9953e-20)
(0.807958 -2.36939e-15 -1.74629e-16)
(0.807958 -2.3281e-16 2.13233e-20)
(0.809794 -2.36441e-15 -1.77078e-16)
(0.809794 -2.36837e-16 1.55923e-19)
(0.811626 -2.3581e-15 -1.79564e-16)
(0.811626 -2.38768e-16 8.86147e-20)
(0.813452 -2.35174e-15 -1.82024e-16)
(0.813452 -2.39873e-16 1.14557e-19)
(0.815273 -2.34697e-15 -1.84526e-16)
(0.815273 -2.41854e-16 2.8202e-19)
(0.817089 -2.34164e-15 -1.87058e-16)
(0.817089 -2.45204e-16 2.39126e-19)
(0.818901 -2.33735e-15 -1.89579e-16)
(0.818901 -2.48517e-16 1.05925e-20)
(0.820708 -2.33295e-15 -1.92152e-16)
(0.820708 -2.50024e-16 1.29084e-19)
(0.82251 -2.32533e-15 -1.94783e-16)
(0.82251 -2.5306e-16 3.99731e-19)
(0.824307 -2.31989e-15 -1.97445e-16)
(0.824307 -2.55174e-16 2.36413e-19)
(0.8261 -2.31438e-15 -2.00172e-16)
(0.8261 -2.57495e-16 1.37099e-19)
(0.827889 -2.30734e-15 -2.02961e-16)
(0.827889 -2.63509e-16 4.09231e-19)
(0.829674 -2.30078e-15 -2.0584e-16)
(0.829674 -2.67314e-16 5.12595e-19)
(0.831454 -2.29285e-15 -2.08761e-16)
(0.831454 -2.70192e-16 4.39603e-19)
(0.83323 -2.28478e-15 -2.11696e-16)
(0.83323 -2.77797e-16 5.64677e-19)
(0.835002 -2.2766e-15 -2.14704e-16)
(0.835002 -2.8078e-16 7.6721e-19)
(0.83677 -2.26875e-15 -2.17797e-16)
(0.83677 -2.85255e-16 7.62795e-19)
(0.838535 -2.26147e-15 -2.20945e-16)
(0.838535 -2.93742e-16 5.81771e-19)
(0.840295 -2.25204e-15 -2.24159e-16)
(0.840295 -3.02588e-16 6.21105e-19)
(0.842052 -2.24215e-15 -2.27352e-16)
(0.842052 -3.1082e-16 4.65622e-19)
(0.843805 -2.23683e-15 -2.30637e-16)
(0.843805 -3.12338e-16 5.37089e-19)
(0.845555 -2.23223e-15 -2.34011e-16)
(0.845555 -3.15127e-16 7.32657e-19)
(0.847301 -2.22418e-15 -2.34782e-16)
(0.847301 -3.1875e-16 7.86782e-19)
(0.849044 -2.21571e-15 -2.34021e-16)
(0.849044 -3.2172e-16 9.68005e-19)
(0.850783 -2.21108e-15 -2.32626e-16)
(0.850783 -3.26926e-16 1.16462e-18)
(0.852519 -2.20749e-15 -2.30359e-16)
(0.852519 -3.27816e-16 1.09377e-18)
(0.854252 -2.20191e-15 -2.28446e-16)
(0.854252 -3.28603e-16 1.0013e-18)
(0.855981 -2.19404e-15 -2.26689e-16)
(0.855981 -3.356e-16 1.16224e-18)
(0.857708 -2.18763e-15 -2.2445e-16)
(0.857708 -3.42671e-16 1.33893e-18)
(0.859431 -2.17794e-15 -2.21523e-16)
(0.859431 -3.43464e-16 1.45405e-18)
(0.861151 -2.16568e-15 -2.19478e-16)
(0.861151 -3.45486e-16 1.53718e-18)
(0.862868 -2.1569e-15 -2.16821e-16)
(0.862868 -3.5265e-16 1.39184e-18)
(0.864583 -2.14959e-15 -2.13483e-16)
(0.864583 -3.58707e-16 1.47033e-18)
(0.866294 -2.14401e-15 -2.1089e-16)
(0.866294 -3.55859e-16 1.73967e-18)
(0.868003 -2.13871e-15 -2.06978e-16)
(0.868003 -3.66656e-16 1.72586e-18)
(0.869708 -2.13389e-15 -2.0278e-16)
(0.869708 -3.71304e-16 1.80378e-18)
(0.871412 -2.12553e-15 -1.99167e-16)
(0.871412 -3.75084e-16 1.98701e-18)
(0.873112 -2.1169e-15 -1.95037e-16)
(0.873112 -3.83329e-16 2.31628e-18)
(0.87481 -2.10973e-15 -1.91343e-16)
(0.87481 -3.88001e-16 2.29642e-18)
(0.876505 -2.10045e-15 -1.88044e-16)
(0.876505 -3.96938e-16 2.64272e-18)
(0.878197 -2.08876e-15 -1.84731e-16)
(0.878197 -3.99779e-16 3.22431e-18)
(0.879888 -2.07279e-15 -1.81924e-16)
(0.879888 -4.0973e-16 2.43508e-18)
(0.881575 -2.05947e-15 -1.80741e-16)
(0.881575 -4.22289e-16 1.73487e-18)
(0.88326 -2.04993e-15 -1.80008e-16)
(0.88326 -4.32888e-16 1.00784e-18)
(0.884943 -2.04083e-15 -1.80429e-16)
(0.884943 -4.36183e-16 1.03255e-18)
(0.886623 -2.03809e-15 -1.8051e-16)
(0.886623 -4.41222e-16 9.23391e-19)
(0.888301 -2.03735e-15 -1.79549e-16)
(0.888301 -4.4362e-16 1.07963e-18)
(0.889977 -2.03617e-15 -1.79404e-16)
(0.889977 -4.3838e-16 1.22297e-18)
(0.89165 -2.03947e-15 -1.78289e-16)
(0.89165 -4.34604e-16 1.72829e-18)
(0.893321 -2.03841e-15 -1.75746e-16)
(0.893321 -4.43837e-16 1.40716e-18)
(0.89499 -2.03501e-15 -1.72347e-16)
(0.89499 -4.45853e-16 8.23475e-19)
(0.896657 -2.03269e-15 -1.68027e-16)
(0.896657 -4.5107e-16 4.35734e-19)
(0.898322 -2.02916e-15 -1.63241e-16)
(0.898322 -4.55758e-16 7.04726e-19)
(0.899984 -2.02274e-15 -1.57283e-16)
(0.899984 -4.63487e-16 1.83642e-19)
(0.901644 -2.0149e-15 -1.57815e-16)
(0.901644 -4.69051e-16 -5.75591e-19)
(0.903302 -2.00918e-15 -1.58628e-16)
(0.903302 -4.75781e-16 -1.72614e-18)
(0.904958 -2.00298e-15 -1.59698e-16)
(0.904958 -4.84564e-16 -2.3578e-18)
(0.906613 -1.99916e-15 -1.60169e-16)
(0.906613 -4.8811e-16 -2.73673e-18)
(0.908265 -1.99162e-15 -1.60425e-16)
(0.908265 -4.96486e-16 -3.09532e-18)
(0.909915 -1.98145e-15 -1.60239e-16)
(0.909915 -5.04371e-16 -4.35738e-18)
(0.911563 -1.97499e-15 -1.5991e-16)
(0.911563 -5.11719e-16 -4.39598e-18)
(0.913209 -1.96279e-15 -1.58449e-16)
(0.913209 -5.16229e-16 -5.35365e-18)
(0.914853 -1.94864e-15 -1.57346e-16)
(0.914853 -5.26225e-16 -4.84253e-18)
(0.916495 -1.9385e-15 -1.56682e-16)
(0.916495 -5.37675e-16 -4.59503e-18)
(0.918135 -1.92744e-15 -1.55608e-16)
(0.918135 -5.54601e-16 -4.99656e-18)
(0.919773 -1.91789e-15 -1.54122e-16)
(0.919773 -5.5677e-16 -5.08164e-18)
(0.92141 -1.90589e-15 -1.53193e-16)
(0.92141 -5.58352e-16 -4.1911e-18)
(0.923044 -1.89138e-15 -1.51988e-16)
(0.923044 -5.8215e-16 -4.74209e-18)
(0.924677 -1.87864e-15 -1.5118e-16)
(0.924677 -5.88785e-16 -5.1338e-18)
(0.926307 -1.85821e-15 -1.50358e-16)
(0.926307 -6.00095e-16 -5.0764e-18)
(0.927936 -1.83919e-15 -1.51031e-16)
(0.927936 -6.22233e-16 -4.94972e-18)
(0.929563 -1.82902e-15 -1.51853e-16)
(0.929563 -6.42432e-16 -4.22188e-18)
(0.931188 -1.81801e-15 -1.52516e-16)
(0.931188 -6.57104e-16 -4.62891e-18)
(0.932811 -1.80773e-15 -1.52928e-16)
(0.932811 -6.71636e-16 -4.67257e-18)
(0.934433 -1.79466e-15 -1.53954e-16)
(0.934433 -6.91378e-16 -3.8557e-18)
(0.936052 -1.78166e-15 -1.55288e-16)
(0.936052 -7.11097e-16 -3.85698e-18)
(0.93767 -1.76985e-15 -1.55372e-16)
(0.93767 -7.2616e-16 -4.58448e-18)
(0.939285 -1.75847e-15 -1.53673e-16)
(0.939285 -7.40082e-16 -5.8266e-18)
(0.940899 -1.74297e-15 -1.50757e-16)
(0.940899 -7.62007e-16 -5.57004e-18)
(0.942511 -1.72339e-15 -1.49808e-16)
(0.942511 -7.79875e-16 -4.39182e-18)
(0.944121 -1.71169e-15 -1.47493e-16)
(0.944121 -7.96259e-16 -5.84813e-18)
(0.945729 -1.69522e-15 -1.46016e-16)
(0.945729 -8.20944e-16 -4.79854e-18)
(0.947336 -1.67384e-15 -1.45288e-16)
(0.947336 -8.28368e-16 -3.98527e-18)
(0.94894 -1.65887e-15 -1.44829e-16)
(0.94894 -8.41232e-16 -2.04913e-18)
(0.950543 -1.64364e-15 -1.44136e-16)
(0.950543 -8.5332e-16 3.75847e-19)
(0.952143 -1.62384e-15 -1.41524e-16)
(0.952143 -8.72915e-16 2.69444e-18)
(0.953742 -1.60734e-15 -1.38916e-16)
(0.953742 -8.91555e-16 1.32968e-17)
(0.955338 -1.59435e-15 -1.36011e-16)
(0.955338 -8.97677e-16 2.8843e-17)
(0.956933 -1.58252e-15 -1.27826e-16)
(0.956933 -9.09104e-16 4.32447e-17)
(0.958526 -1.5641e-15 -1.0867e-16)
(0.958526 -9.24816e-16 4.79485e-17)
(0.960116 -1.54715e-15 -9.06239e-17)
(0.960116 -9.3195e-16 4.54652e-17)
(0.961705 -1.53707e-15 -7.63246e-17)
(0.961705 -9.33991e-16 4.44898e-17)
(0.963291 -1.52459e-15 -6.62811e-17)
(0.963291 -9.48879e-16 4.4617e-17)
(0.964876 -1.51089e-15 -6.77337e-17)
(0.964876 -9.60962e-16 4.40034e-17)
(0.966458 -1.49383e-15 -7.05395e-17)
(0.966458 -9.59699e-16 4.08616e-17)
(0.968038 -1.47943e-15 -7.1698e-17)
(0.968038 -9.67615e-16 3.6867e-17)
(0.969616 -1.46511e-15 -7.39738e-17)
(0.969616 -9.85721e-16 3.17612e-17)
(0.971192 -1.45238e-15 -7.82876e-17)
(0.971192 -9.92532e-16 2.88054e-17)
(0.972765 -1.45227e-15 -8.08906e-17)
(0.972765 -9.99986e-16 2.22776e-17)
(0.974337 -1.45856e-15 -8.10221e-17)
(0.974337 -1.02282e-15 1.64287e-17)
(0.975905 -1.45615e-15 -8.22333e-17)
(0.975905 -1.0229e-15 1.18729e-17)
(0.977472 -1.45066e-15 -8.35058e-17)
(0.977472 -1.02616e-15 5.54607e-18)
(0.979036 -1.4467e-15 -8.57333e-17)
(0.979036 -1.04809e-15 -7.6963e-19)
(0.980597 -1.43979e-15 -9.02585e-17)
(0.980597 -1.04467e-15 -7.93562e-18)
(0.982156 -1.42421e-15 -9.29504e-17)
(0.982156 -1.04896e-15 -1.38696e-17)
(0.983713 -1.41636e-15 -9.94411e-17)
(0.983713 -1.05477e-15 -1.78728e-17)
(0.985267 -1.4154e-15 -1.01808e-16)
(0.985267 -1.04996e-15 -2.54421e-17)
(0.986818 -1.40596e-15 -1.04732e-16)
(0.986818 -1.05542e-15 -3.49791e-17)
(0.988366 -1.40095e-15 -1.08616e-16)
(0.988366 -1.04427e-15 -4.24658e-17)
(0.989912 -1.4041e-15 -1.09328e-16)
(0.989912 -1.03735e-15 -4.93862e-17)
(0.991454 -1.40218e-15 -1.09317e-16)
(0.991454 -1.03692e-15 -5.77674e-17)
(0.992994 -1.39375e-15 -1.09269e-16)
(0.992994 -1.01931e-15 -6.4661e-17)
(0.994531 -1.38424e-15 -1.11616e-16)
(0.994531 -1.00643e-15 -7.02485e-17)
(0.996064 -1.36328e-15 -1.16921e-16)
(0.996064 -1.00637e-15 -7.59151e-17)
(0.997595 -1.34058e-15 -1.20277e-16)
(0.997595 -1.02186e-15 -8.1571e-17)
(0.999122 -1.31464e-15 -1.19024e-16)
(0.999122 -1.03958e-15 -8.82594e-17)
(1.00065 -1.25815e-15 -1.18138e-16)
(1.00065 -1.04473e-15 -9.76765e-17)
(1.00217 -1.22139e-15 -1.27373e-16)
(1.00217 -1.03895e-15 -1.06775e-16)
(1.00368 -1.20559e-15 -1.26855e-16)
(1.00368 -1.0342e-15 -1.19876e-16)
(1.0052 -1.1791e-15 -1.24204e-16)
(1.0052 -1.02957e-15 -1.28504e-16)
(1.0067 -1.16466e-15 -1.24697e-16)
(1.0067 -1.03134e-15 -1.36238e-16)
(1.00821 -1.1512e-15 -1.26454e-16)
(1.00821 -1.03362e-15 -1.41999e-16)
(1.00971 -1.14477e-15 -1.25151e-16)
(1.00971 -1.03911e-15 -1.50348e-16)
(1.01121 -1.13453e-15 -1.32712e-16)
(1.01121 -1.0415e-15 -1.42718e-16)
(1.0127 -1.11545e-15 -1.29716e-16)
(1.0127 -1.04261e-15 -1.37289e-16)
(1.01419 -1.10946e-15 -1.26832e-16)
(1.01419 -1.02643e-15 -1.36045e-16)
(1.01567 -1.10622e-15 -1.34274e-16)
(1.01567 -1.01733e-15 -1.34119e-16)
(1.01715 -1.08205e-15 -1.21769e-16)
(1.01715 -1.0176e-15 -1.37477e-16)
(1.01863 -1.06744e-15 -1.19331e-16)
(1.01863 -1.01017e-15 -1.40644e-16)
(1.0201 -1.05962e-15 -1.19202e-16)
(1.0201 -9.95615e-16 -1.40718e-16)
(1.02156 -1.0364e-15 -1.17718e-16)
(1.02156 -1.00135e-15 -1.44165e-16)
(1.02302 -1.00612e-15 -1.17416e-16)
(1.02302 -1.02561e-15 -1.42648e-16)
(1.02447 -9.94873e-16 -1.16745e-16)
(1.02447 -1.00731e-15 -1.39839e-16)
(1.02592 -9.87971e-16 -1.10662e-16)
(1.02592 -9.89069e-16 -1.40713e-16)
(1.02736 -9.83754e-16 -1.0196e-16)
(1.02736 -9.70027e-16 -1.4234e-16)
(1.0288 -9.79371e-16 -1.04515e-16)
(1.0288 -9.3581e-16 -1.51133e-16)
(1.03023 -9.58609e-16 -1.05114e-16)
(1.03023 -9.28906e-16 -1.61554e-16)
(1.03165 -9.34666e-16 -1.06355e-16)
(1.03165 -9.14935e-16 -1.59484e-16)
(1.03307 -8.95838e-16 -1.07253e-16)
(1.03307 -9.20739e-16 -1.58284e-16)
(1.03448 -8.74834e-16 -1.17248e-16)
(1.03448 -9.44286e-16 -1.47438e-16)
(1.03588 -8.62422e-16 -1.17323e-16)
(1.03588 -9.37201e-16 -1.41655e-16)
(1.03727 -8.6813e-16 -1.20064e-16)
(1.03727 -8.96943e-16 -1.28028e-16)
(1.03866 -8.94323e-16 -1.02521e-16)
(1.03866 -8.57844e-16 -1.20514e-16)
(1.04004 -8.61635e-16 -9.27629e-17)
(1.04004 -8.47077e-16 -1.11738e-16)
(1.04141 -8.22953e-16 -9.34134e-17)
(1.04141 -8.43576e-16 -1.02705e-16)
(1.04277 -8.25109e-16 -9.60645e-17)
(1.04277 -8.42617e-16 -1.07495e-16)
(1.04412 -8.25014e-16 -9.88399e-17)
(1.04412 -8.09265e-16 -1.10051e-16)
(1.04546 -8.06386e-16 -9.35963e-17)
(1.04546 -8.19695e-16 -1.22311e-16)
(1.04679 -8.02157e-16 -1.03553e-16)
(1.04679 -8.02847e-16 -1.1671e-16)
(1.04811 -7.86514e-16 -1.07226e-16)
(1.04811 -7.86642e-16 -1.07106e-16)
(1.04942 -7.73158e-16 -1.13308e-16)
(1.04942 -7.90248e-16 -1.11062e-16)
(1.05072 -7.89439e-16 -1.14351e-16)
(1.05072 -7.75167e-16 -1.16165e-16)
(1.05201 -7.89508e-16 -9.72852e-17)
(1.05201 -7.37745e-16 -1.22351e-16)
(1.05328 -7.65553e-16 -8.69816e-17)
(1.05328 -7.20001e-16 -1.19388e-16)
(1.05455 -7.53064e-16 -7.89057e-17)
(1.05455 -7.35566e-16 -1.20323e-16)
(1.05579 -7.57726e-16 -8.07411e-17)
(1.05579 -7.63665e-16 -1.15961e-16)
(1.05703 -7.38629e-16 -8.64155e-17)
(1.05703 -7.77209e-16 -1.03108e-16)
(1.05825 -7.16182e-16 -8.57255e-17)
(1.05825 -7.52326e-16 -8.09674e-17)
(1.05945 -6.93178e-16 -9.62044e-17)
(1.05945 -7.48867e-16 -7.47543e-17)
(1.06064 -7.00197e-16 -8.23292e-17)
(1.06064 -7.17176e-16 -5.55423e-17)
(1.06181 -6.82195e-16 -7.59884e-17)
(1.06181 -6.66881e-16 -5.45599e-17)
(1.06297 -6.7171e-16 -4.94965e-17)
(1.06297 -6.32034e-16 -5.77553e-17)
(1.0641 -6.44286e-16 -4.77562e-17)
(1.0641 -6.31765e-16 -6.79546e-17)
(1.06522 -6.46563e-16 -4.28899e-17)
(1.06522 -6.24576e-16 -7.5077e-17)
(1.06632 -6.07558e-16 -2.26768e-17)
(1.06632 -6.31968e-16 -7.35169e-17)
(1.06739 -5.4081e-16 -3.00481e-17)
(1.06739 -6.22917e-16 -5.71783e-17)
(1.06844 -5.14476e-16 -5.44579e-17)
(1.06844 -5.56634e-16 -5.49655e-17)
(1.06947 -5.15151e-16 -6.97506e-17)
(1.06947 -5.43909e-16 -2.78867e-17)
(1.07047 -5.52328e-16 -8.8434e-17)
(1.07047 -5.44371e-16 -4.57076e-17)
(1.07145 -5.24889e-16 -9.54506e-17)
(1.07145 -4.36884e-16 -5.87196e-17)
(1.0724 -4.82856e-16 -1.04077e-16)
(1.0724 -5.07406e-16 -3.93744e-17)
(1.07332 -4.98896e-16 -8.67371e-17)
(1.07332 -5.04864e-16 -8.82969e-18)
(1.07421 -4.54266e-16 -7.79225e-17)
(1.07421 -4.72475e-16 1.40748e-17)
(1.07507 -4.27682e-16 -9.92126e-17)
(1.07507 -4.44042e-16 2.54831e-18)
(1.07589 -4.76638e-16 -5.70072e-17)
(1.07589 -4.35998e-16 -1.22796e-17)
(1.07667 -4.34987e-16 -6.4498e-17)
(1.07667 -4.62038e-16 -4.1409e-18)
(1.07742 -4.14877e-16 -5.84743e-17)
(1.07742 -4.4036e-16 -8.47601e-18)
(1.07813 -4.10285e-16 -3.43524e-17)
(1.07813 -4.15952e-16 -3.72779e-17)
(1.07879 -4.27566e-16 -6.93952e-17)
(1.07879 -4.10962e-16 -3.41961e-17)
(1.07941 -4.5706e-16 -2.29639e-17)
(1.07941 -3.70533e-16 -4.02175e-17)
(1.07998 -4.27823e-16 -4.76631e-18)
(1.07998 -4.05267e-16 -3.97635e-17)
(1.0805 -4.02939e-16 -4.82787e-18)
(1.0805 -4.27182e-16 -3.9322e-17)
(1.08096 -4.04816e-16 -1.59873e-17)
(1.08096 -3.96852e-16 -1.08517e-17)
(1.08137 -3.83829e-16 -2.66746e-17)
(1.08137 -3.89852e-16 -2.56496e-17)
(1.08172 -3.70413e-16 -1.9298e-17)
(1.08172 -3.65476e-16 -6.83627e-17)
(1.08201 -3.64412e-16 -3.61443e-17)
(1.08201 -3.575e-16 -9.79787e-17)
(1.08223 -3.65182e-16 -3.7793e-17)
(1.08223 -3.57903e-16 -9.3298e-17)
(1.08238 -3.86482e-16 -3.93309e-17)
(1.08238 -3.58432e-16 -9.36977e-17)
(1.08245 -3.77303e-16 -3.05841e-17)
(1.08245 -3.83933e-16 -7.03321e-17)
(0.0155595 -6.32637e-19 4.81709e-17)
(0.0155595 -5.99037e-19 7.01737e-17)
(0.0468999 -7.1196e-19 1.16908e-16)
(0.0468999 3.03723e-19 -3.17062e-17)
(0.0786867 -2.61369e-18 1.20145e-16)
(0.0786867 -5.44257e-19 -3.26264e-17)
(0.110895 -4.19629e-18 1.23176e-16)
(0.110895 -9.66519e-19 -3.35123e-17)
(0.143411 -5.80974e-18 1.25449e-16)
(0.143411 -1.34874e-18 -3.42168e-17)
(0.175927 -7.40718e-18 1.26044e-16)
(0.175927 -1.80283e-18 -3.44896e-17)
(0.207878 -9.05774e-18 1.24003e-16)
(0.207878 -2.31125e-18 -3.40653e-17)
(0.238513 -1.07397e-17 1.18968e-16)
(0.238513 -2.67332e-18 -3.28349e-17)
(0.267137 -1.2344e-17 1.1151e-16)
(0.267137 -3.23233e-18 -3.09405e-17)
(0.293324 -1.38433e-17 1.02786e-16)
(0.293324 -3.60625e-18 -2.86905e-17)
(0.316972 -1.52682e-17 9.39027e-17)
(0.316972 -3.7958e-18 -2.63852e-17)
(0.338212 -1.66687e-17 8.55684e-17)
(0.338212 -4.1314e-18 -2.42185e-17)
(0.357288 -1.78968e-17 7.8105e-17)
(0.357288 -4.3117e-18 -2.22793e-17)
(0.374479 -1.90036e-17 7.15826e-17)
(0.374479 -4.43266e-18 -2.05922e-17)
(0.390047 -2.0016e-17 6.59447e-17)
(0.390047 -4.63522e-18 -1.91414e-17)
(0.404226 -2.09479e-17 6.10892e-17)
(0.404226 -4.80725e-18 -1.79029e-17)
(0.417213 -2.18406e-17 5.69033e-17)
(0.417213 -4.62858e-18 -1.68466e-17)
(0.429175 -2.26188e-17 5.32767e-17)
(0.429175 -4.83084e-18 -1.59422e-17)
(0.440251 -2.33586e-17 5.01269e-17)
(0.440251 -5.01749e-18 -1.51698e-17)
(0.450557 -2.39834e-17 4.73733e-17)
(0.450557 -5.18465e-18 -1.45088e-17)
(0.460188 -2.44414e-17 4.49543e-17)
(0.460188 -5.52826e-18 -1.39395e-17)
(0.469227 -2.49553e-17 4.2823e-17)
(0.469227 -5.79817e-18 -1.34469e-17)
(0.47774 -2.53461e-17 4.09341e-17)
(0.47774 -6.13663e-18 -1.30238e-17)
(0.485787 -2.56666e-17 3.92523e-17)
(0.485787 -6.65781e-18 -1.26588e-17)
(0.493417 -2.61946e-17 3.77483e-17)
(0.493417 -6.98544e-18 -1.23439e-17)
(0.500672 -2.68403e-17 3.63946e-17)
(0.500672 -7.18985e-18 -1.20756e-17)
(0.507588 -2.74806e-17 3.51752e-17)
(0.507588 -7.75215e-18 -1.18474e-17)
(0.514198 -2.80147e-17 3.40745e-17)
(0.514198 -7.96156e-18 -1.16532e-17)
(0.520529 -2.84692e-17 3.30756e-17)
(0.520529 -7.85903e-18 -1.14855e-17)
(0.526605 -2.90617e-17 3.21615e-17)
(0.526605 -8.28276e-18 -1.134e-17)
(0.532449 -2.96593e-17 3.13241e-17)
(0.532449 -8.87776e-18 -1.12182e-17)
(0.538078 -3.00527e-17 3.05608e-17)
(0.538078 -8.99071e-18 -1.11231e-17)
(0.54351 -3.05987e-17 2.98616e-17)
(0.54351 -8.97789e-18 -1.10458e-17)
(0.548759 -3.10943e-17 2.92144e-17)
(0.548759 -9.49695e-18 -1.09836e-17)
(0.553839 -3.15252e-17 2.86228e-17)
(0.553839 -9.80459e-18 -1.09366e-17)
(0.558762 -3.18311e-17 2.80801e-17)
(0.558762 -1.01079e-17 -1.09074e-17)
(0.563539 -3.2131e-17 2.75804e-17)
(0.563539 -1.0076e-17 -1.08948e-17)
(0.56818 -3.26047e-17 2.71179e-17)
(0.56818 -1.04006e-17 -1.08933e-17)
(0.572693 -3.28985e-17 2.66912e-17)
(0.572693 -1.12048e-17 -1.09027e-17)
(0.577087 -3.32888e-17 2.62957e-17)
(0.577087 -1.12942e-17 -1.09272e-17)
(0.581369 -3.34775e-17 2.59333e-17)
(0.581369 -1.12979e-17 -1.09711e-17)
(0.585546 -3.37238e-17 2.56035e-17)
(0.585546 -1.18797e-17 -1.10361e-17)
(0.589623 -3.46194e-17 2.52954e-17)
(0.589623 -1.22623e-17 -1.11155e-17)
(0.593607 -3.5589e-17 2.49914e-17)
(0.593607 -1.2039e-17 -1.12039e-17)
(0.597503 -3.60913e-17 2.47075e-17)
(0.597503 -1.2613e-17 -1.13125e-17)
(0.601316 -3.6732e-17 2.44423e-17)
(0.601316 -1.22917e-17 -1.1437e-17)
(0.605049 -3.77995e-17 2.41823e-17)
(0.605049 -1.17978e-17 -1.15748e-17)
(0.608708 -3.89673e-17 2.39435e-17)
(0.608708 -1.17872e-17 -1.17258e-17)
(0.612295 -3.99198e-17 2.37103e-17)
(0.612295 -1.11332e-17 -1.18877e-17)
(0.615815 -4.05603e-17 2.34891e-17)
(0.615815 -1.0236e-17 -1.20437e-17)
(0.619271 -4.09468e-17 2.32813e-17)
(0.619271 -1.01766e-17 -1.21876e-17)
(0.622665 -4.1238e-17 2.31016e-17)
(0.622665 -1.07062e-17 -1.23399e-17)
(0.626001 -4.17088e-17 2.29421e-17)
(0.626001 -1.15525e-17 -1.24898e-17)
(0.629282 -4.23114e-17 2.2799e-17)
(0.629282 -1.20016e-17 -1.26426e-17)
(0.632509 -4.28702e-17 2.26693e-17)
(0.632509 -1.11365e-17 -1.27896e-17)
(0.635686 -4.31961e-17 2.25489e-17)
(0.635686 -1.10005e-17 -1.29216e-17)
(0.638814 -4.40185e-17 2.24295e-17)
(0.638814 -1.14538e-17 -1.30352e-17)
(0.641896 -4.48923e-17 2.23121e-17)
(0.641896 -1.18244e-17 -1.31516e-17)
(0.644933 -4.50209e-17 2.22086e-17)
(0.644933 -1.28018e-17 -1.32833e-17)
(0.647927 -4.56266e-17 2.21196e-17)
(0.647927 -1.3454e-17 -1.34046e-17)
(0.650881 -4.65235e-17 2.2032e-17)
(0.650881 -1.37287e-17 -1.35298e-17)
(0.653795 -4.70687e-17 2.1948e-17)
(0.653795 -1.3666e-17 -1.36576e-17)
(0.656671 -4.73934e-17 2.18758e-17)
(0.656671 -1.39044e-17 -1.37926e-17)
(0.659511 -4.75787e-17 2.18074e-17)
(0.659511 -1.44795e-17 -1.39182e-17)
(0.662316 -4.82933e-17 2.17641e-17)
(0.662316 -1.47405e-17 -1.40593e-17)
(0.665087 -4.91443e-17 2.17272e-17)
(0.665087 -1.51428e-17 -1.41951e-17)
(0.667826 -4.97819e-17 2.16934e-17)
(0.667826 -1.49932e-17 -1.4323e-17)
(0.670534 -5.09274e-17 2.16851e-17)
(0.670534 -1.48408e-17 -1.4461e-17)
(0.673211 -5.20453e-17 2.16766e-17)
(0.673211 -1.52124e-17 -1.45977e-17)
(0.67586 -5.27068e-17 2.16707e-17)
(0.67586 -1.52557e-17 -1.47219e-17)
(0.67848 -5.32518e-17 2.16693e-17)
(0.67848 -1.52597e-17 -1.48459e-17)
(0.681074 -5.34888e-17 2.16689e-17)
(0.681074 -1.58333e-17 -1.49758e-17)
(0.683641 -5.40288e-17 2.16691e-17)
(0.683641 -1.64234e-17 -1.51081e-17)
(0.686183 -5.42764e-17 2.16698e-17)
(0.686183 -1.66415e-17 -1.52426e-17)
(0.688701 -5.43654e-17 2.16763e-17)
(0.688701 -1.70382e-17 -1.53802e-17)
(0.691195 -5.48083e-17 2.16689e-17)
(0.691195 -1.80655e-17 -1.54975e-17)
(0.693666 -5.54679e-17 2.16573e-17)
(0.693666 -1.82553e-17 -1.56146e-17)
(0.696115 -5.56099e-17 2.16316e-17)
(0.696115 -1.80413e-17 -1.57453e-17)
(0.698542 -5.52777e-17 2.15935e-17)
(0.698542 -1.77256e-17 -1.58548e-17)
(0.700949 -5.5555e-17 2.15399e-17)
(0.700949 -1.75307e-17 -1.59982e-17)
(0.703336 -5.6647e-17 2.14623e-17)
(0.703336 -1.84349e-17 -1.61591e-17)
(0.705703 -5.81917e-17 2.13498e-17)