/*--------------------------------*- C++ -*----------------------------------*\
| =========                 |                                                 |
| \\      /  F ield         | OpenFOAM: The Open Source CFD Toolbox           |
|  \\    /   O peration     | Version:  2106                                  |
|   \\  /    A nd           | Website:  www.openfoam.com                      |
|    \\/     M anipulation  |                                                 |
\*---------------------------------------------------------------------------*/
FoamFile
{
    version     2.0;
    format      ascii;
    arch        "LSB;label=32;scalar=64";
    class       surfaceScalarField;
    location    "14000";
    object      phi;
}
// * * * * * * * * * * * * * * * * * * * * * * * * * * * * * * * * * * * * * //

dimensions      [0 3 -1 0 0 0 0];

oriented        oriented;

internalField   nonuniform List<scalar> 
5116
(
4.87907e-08
-3.59386e-18
5.26169e-22
2.0947e-22
3.05454e-22
1.49206e-07
-3.59802e-18
1.75338e-21
1.91625e-21
7.02087e-22
2.53987e-07
-3.60236e-18
1.81658e-21
3.69216e-21
7.3301e-22
3.63281e-07
-3.60683e-18
1.87967e-21
5.47353e-21
7.65247e-22
4.77238e-07
-3.61167e-18
1.94816e-21
7.48391e-21
7.98823e-22
5.96008e-07
-3.61653e-18
2.0212e-21
9.61173e-21
8.33729e-22
7.1973e-07
-3.62156e-18
2.0975e-21
1.17031e-20
8.69894e-22
8.48532e-07
-3.62659e-18
2.17622e-21
1.36604e-20
9.07149e-22
9.82504e-07
-3.63229e-18
2.25647e-21
1.59447e-20
9.45198e-22
1.12169e-06
-3.63787e-18
2.33704e-21
1.83723e-20
9.83558e-22
1.26606e-06
-3.64416e-18
2.41626e-21
2.09982e-20
1.02154e-21
1.41549e-06
-3.65006e-18
2.49205e-21
2.35051e-20
1.05825e-21
1.56972e-06
-3.65616e-18
2.56192e-21
2.60122e-20
1.09262e-21
1.72839e-06
-3.66218e-18
2.62323e-21
2.85412e-20
1.12349e-21
1.89098e-06
-3.66852e-18
2.67348e-21
3.09032e-20
1.14974e-21
2.05687e-06
-3.67494e-18
2.71061e-21
3.31101e-20
1.17046e-21
2.22537e-06
-3.68111e-18
2.73338e-21
3.52528e-20
1.18505e-21
2.39576e-06
-3.6873e-18
2.74147e-21
3.69347e-20
1.19331e-21
2.56735e-06
-3.69399e-18
2.73556e-21
3.93585e-20
1.19551e-21
2.7395e-06
-3.70069e-18
2.71712e-21
4.2087e-20
1.19223e-21
2.9117e-06
-3.70722e-18
2.68816e-21
4.41834e-20
1.18429e-21
3.08352e-06
-3.71355e-18
2.65094e-21
4.6683e-20
1.17266e-21
3.25469e-06
-3.72009e-18
2.60767e-21
4.86377e-20
1.15829e-21
3.42501e-06
-3.72517e-18
2.56041e-21
5.03269e-20
1.14207e-21
3.5944e-06
-3.73089e-18
2.51088e-21
5.21564e-20
1.1248e-21
3.76285e-06
-3.73672e-18
2.46051e-21
5.41833e-20
1.10708e-21
3.93041e-06
-3.74137e-18
2.41041e-21
5.44263e-20
1.08941e-21
4.09716e-06
-3.74604e-18
2.36136e-21
5.59381e-20
1.07221e-21
4.26322e-06
-3.75083e-18
2.3139e-21
5.65873e-20
1.05572e-21
4.42875e-06
-3.75544e-18
2.26842e-21
5.70684e-20
1.04015e-21
4.59388e-06
-3.75997e-18
2.22518e-21
5.85339e-20
1.02561e-21
4.75878e-06
-3.76454e-18
2.18429e-21
5.93559e-20
1.01213e-21
4.92362e-06
-3.76905e-18
2.14579e-21
6.09639e-20
9.99728e-22
5.08853e-06
-3.77347e-18
2.10964e-21
6.142e-20
9.88432e-22
5.2537e-06
-3.77769e-18
2.07582e-21
6.22213e-20
9.7827e-22
5.41925e-06
-3.78168e-18
2.04422e-21
6.31966e-20
9.69186e-22
5.58535e-06
-3.78546e-18
2.01473e-21
6.37086e-20
9.61131e-22
5.75212e-06
-3.78903e-18
1.98728e-21
6.39222e-20
9.54046e-22
5.9197e-06
-3.79298e-18
1.96172e-21
6.43813e-20
9.47955e-22
6.08822e-06
-3.79644e-18
1.93795e-21
6.51924e-20
9.42821e-22
6.25781e-06
-3.80027e-18
1.91582e-21
6.62073e-20
9.38531e-22
6.42857e-06
-3.80379e-18
1.89528e-21
6.63737e-20
9.35088e-22
6.60063e-06
-3.80733e-18
1.87616e-21
6.689e-20
9.3249e-22
6.77408e-06
-3.81104e-18
1.85836e-21
6.74932e-20
9.30649e-22
6.94904e-06
-3.81401e-18
1.84178e-21
6.78804e-20
9.29502e-22
7.12559e-06
-3.8175e-18
1.82634e-21
6.82234e-20
9.2907e-22
7.30385e-06
-3.8228e-18
1.81194e-21
6.81764e-20
9.29329e-22
7.4839e-06
-3.82588e-18
1.79865e-21
6.91947e-20
9.30215e-22
7.66582e-06
-3.82792e-18
1.78628e-21
6.97084e-20
9.31669e-22
7.84972e-06
-3.83337e-18
1.77473e-21
7.36033e-20
9.33695e-22
8.03567e-06
-3.83404e-18
1.76413e-21
7.31893e-20
9.36135e-22
8.22376e-06
-3.83361e-18
1.75422e-21
7.38339e-20
9.39039e-22
8.41406e-06
-3.83564e-18
1.74484e-21
7.47992e-20
9.4241e-22
8.60667e-06
-3.83861e-18
1.73617e-21
7.48321e-20
9.46181e-22
8.80165e-06
-3.83841e-18
1.72811e-21
7.4524e-20
9.50446e-22
8.99909e-06
-3.84181e-18
1.72049e-21
7.46231e-20
9.55163e-22
9.19905e-06
-3.84457e-18
1.71348e-21
7.77108e-20
9.60364e-22
9.40162e-06
-3.84733e-18
1.70696e-21
7.89529e-20
9.6576e-22
9.60688e-06
-3.8498e-18
1.70097e-21
7.98107e-20
9.714e-22
9.81488e-06
-3.85229e-18
1.69538e-21
8.05364e-20
9.77448e-22
1.00257e-05
-3.85529e-18
1.69019e-21
8.2061e-20
9.83777e-22
1.02395e-05
-3.85652e-18
1.68533e-21
8.26328e-20
9.90484e-22
1.04562e-05
-3.85975e-18
1.68071e-21
8.32554e-20
9.97428e-22
1.06759e-05
-3.86163e-18
1.67634e-21
8.35442e-20
1.00477e-21
1.08988e-05
-3.86286e-18
1.67216e-21
8.33169e-20
1.01253e-21
1.11249e-05
-3.86776e-18
1.6681e-21
8.54055e-20
1.02077e-21
1.13542e-05
-3.87113e-18
1.66423e-21
8.8421e-20
1.02951e-21
1.15868e-05
-3.87221e-18
1.66059e-21
8.77703e-20
1.03829e-21
1.18229e-05
-3.87382e-18
1.65707e-21
8.87306e-20
1.04736e-21
1.20625e-05
-3.87462e-18
1.65351e-21
8.90323e-20
1.05686e-21
1.23056e-05
-3.87542e-18
1.65e-21
8.90656e-20
1.06651e-21
1.25523e-05
-3.87786e-18
1.64657e-21
8.83981e-20
1.07624e-21
1.28028e-05
-3.87894e-18
1.64326e-21
8.83766e-20
1.08622e-21
1.3057e-05
-3.88141e-18
1.63996e-21
9.12863e-20
1.09642e-21
1.33151e-05
-3.88281e-18
1.63693e-21
9.16371e-20
1.1065e-21
1.35771e-05
-3.88248e-18
1.63389e-21
8.97674e-20
1.1169e-21
1.38431e-05
-3.88484e-18
1.63068e-21
8.62679e-20
1.1275e-21
1.41132e-05
-3.88775e-18
1.62751e-21
8.67172e-20
1.1383e-21
1.43874e-05
-3.88896e-18
1.6244e-21
8.2152e-20
1.14917e-21
1.46659e-05
-3.89128e-18
1.62136e-21
8.06711e-20
1.16051e-21
1.49487e-05
-3.89224e-18
1.61808e-21
8.03638e-20
1.17184e-21
1.5236e-05
-3.89281e-18
1.61454e-21
7.84369e-20
1.18322e-21
1.55277e-05
-3.89554e-18
1.61052e-21
7.96613e-20
1.19453e-21
1.58239e-05
-3.90104e-18
1.60594e-21
8.55984e-20
1.20583e-21
1.61249e-05
-3.90315e-18
1.60158e-21
8.49244e-20
1.2169e-21
1.64305e-05
-3.90479e-18
1.59714e-21
8.40363e-20
1.22848e-21
1.6741e-05
-3.9051e-18
1.59274e-21
8.97414e-20
1.24004e-21
1.70563e-05
-3.90772e-18
1.5877e-21
8.99835e-20
1.25112e-21
1.73767e-05
-3.91207e-18
1.58289e-21
8.82687e-20
1.2627e-21
1.77022e-05
-3.91373e-18
1.57824e-21
8.74622e-20
1.27485e-21
1.80328e-05
-3.91809e-18
1.57287e-21
8.68959e-20
1.28746e-21
1.83687e-05
-3.9146e-18
1.56749e-21
8.29248e-20
1.30019e-21
1.87099e-05
-3.91333e-18
1.56081e-21
8.00322e-20
1.31405e-21
1.90566e-05
-3.91875e-18
1.55394e-21
7.68416e-20
1.32858e-21
1.94088e-05
-3.92059e-18
1.54761e-21
7.35682e-20
1.34331e-21
1.97667e-05
-3.92033e-18
1.54159e-21
7.20563e-20
1.35857e-21
2.01303e-05
-3.92068e-18
1.53647e-21
7.34683e-20
1.37369e-21
2.04997e-05
-3.92093e-18
1.53179e-21
6.94075e-20
1.38894e-21
2.08751e-05
-3.92509e-18
1.52667e-21
7.06149e-20
1.40532e-21
2.12565e-05
-3.92581e-18
1.52291e-21
6.64414e-20
1.42099e-21
2.16441e-05
-3.92794e-18
1.51973e-21
6.54132e-20
1.4369e-21
2.20379e-05
-3.92025e-18
1.51796e-21
6.24927e-20
1.45254e-21
2.2438e-05
-3.91655e-18
1.51522e-21
6.05672e-20
1.46841e-21
2.28447e-05
-3.91839e-18
1.51191e-21
5.99797e-20
1.48403e-21
2.32578e-05
-3.91546e-18
1.50955e-21
5.7144e-20
1.49942e-21
2.36777e-05
-3.91628e-18
1.50571e-21
5.3922e-20
1.51481e-21
2.41044e-05
-3.9112e-18
1.50251e-21
5.03088e-20
1.52975e-21
2.4538e-05
-3.9114e-18
1.49951e-21
4.92746e-20
1.54389e-21
2.49786e-05
-3.90466e-18
1.49727e-21
4.11697e-20
1.55769e-21
2.54263e-05
-3.90156e-18
1.49473e-21
3.88575e-20
1.57216e-21
2.58813e-05
-3.90021e-18
1.49331e-21
3.7358e-20
1.58601e-21
2.63437e-05
-3.8954e-18
1.49229e-21
3.48421e-20
1.59939e-21
2.68136e-05
-3.90039e-18
1.49055e-21
3.69085e-20
1.61262e-21
2.72911e-05
-3.89533e-18
1.48871e-21
3.30969e-20
1.626e-21
2.77764e-05
-3.89382e-18
1.48595e-21
2.68615e-20
1.64007e-21
2.82696e-05
-3.89506e-18
1.48275e-21
2.66394e-20
1.65544e-21
2.87708e-05
-3.89825e-18
1.48118e-21
2.83338e-20
1.67134e-21
2.92802e-05
-3.89409e-18
1.48023e-21
3.07141e-20
1.68808e-21
2.97978e-05
-3.89684e-18
1.47903e-21
3.16766e-20
1.70555e-21
3.03239e-05
-3.89954e-18
1.47942e-21
3.69203e-20
1.72673e-21
3.08586e-05
-3.88501e-18
1.48018e-21
3.15125e-20
1.74813e-21
3.14019e-05
-3.88506e-18
1.47715e-21
2.86662e-20
1.77145e-21
3.19541e-05
-3.88296e-18
1.4756e-21
2.32937e-20
1.79551e-21
3.25154e-05
-3.88163e-18
1.47506e-21
1.8282e-20
1.81663e-21
3.30857e-05
-3.88127e-18
1.47766e-21
1.32316e-20
1.83578e-21
3.36654e-05
-3.8773e-18
1.48305e-21
8.81285e-21
1.85614e-21
3.42545e-05
-3.87356e-18
1.49148e-21
2.41294e-21
1.87502e-21
3.48532e-05
-3.86968e-18
1.49857e-21
-4.74124e-21
1.89497e-21
3.54617e-05
-3.85894e-18
1.50259e-21
-1.64382e-20
1.9211e-21
3.60802e-05
-3.85549e-18
1.49669e-21
-1.84874e-20
1.95725e-21
3.67087e-05
-3.8651e-18
1.48584e-21
-8.17141e-21
2.00116e-21
3.73474e-05
-3.88436e-18
1.47481e-21
2.08267e-21
2.04403e-21
3.79966e-05
-3.88757e-18
1.46694e-21
1.08644e-21
2.08605e-21
3.86564e-05
-3.9008e-18
1.45827e-21
1.48384e-20
2.129e-21
3.9327e-05
-3.90282e-18
1.45335e-21
1.96035e-20
2.16835e-21
4.00085e-05
-3.91442e-18
1.44494e-21
1.53882e-20
2.20745e-21
4.07012e-05
-3.91641e-18
1.43735e-21
2.19074e-20
2.24657e-21
4.14051e-05
-3.92871e-18
1.42797e-21
2.06876e-20
2.28456e-21
4.21205e-05
-3.94251e-18
1.41787e-21
2.62278e-20
2.32927e-21
4.28477e-05
-3.93803e-18
1.40948e-21
3.09481e-20
2.37536e-21
4.35866e-05
-3.94346e-18
1.39065e-21
3.35264e-20
2.42654e-21
4.43377e-05
-3.94795e-18
1.37608e-21
3.15369e-20
2.47965e-21
4.5101e-05
-3.95051e-18
1.35996e-21
3.60074e-20
2.53385e-21
4.58768e-05
-3.95414e-18
1.3467e-21
3.01052e-20
2.58473e-21
4.66653e-05
-3.95853e-18
1.3329e-21
2.59057e-20
2.64073e-21
4.74666e-05
-3.95696e-18
1.32335e-21
1.63286e-20
2.69678e-21
4.8281e-05
-3.95858e-18
1.31605e-21
2.18461e-20
2.74562e-21
4.91087e-05
-3.96519e-18
1.31357e-21
2.29399e-20
2.77877e-21
4.99499e-05
-3.96313e-18
1.31792e-21
1.19345e-20
2.80507e-21
5.08048e-05
-3.96191e-18
1.32386e-21
1.99007e-21
2.82982e-21
5.16737e-05
-3.96302e-18
1.32979e-21
-2.28942e-21
2.85339e-21
5.25568e-05
-3.96377e-18
1.33881e-21
-4.9328e-21
2.87792e-21
5.34543e-05
-3.96038e-18
1.35119e-21
-1.7012e-20
2.8967e-21
5.43664e-05
-3.94444e-18
1.36911e-21
-3.19276e-20
2.90786e-21
5.52934e-05
-3.94382e-18
1.37906e-21
-4.08969e-20
2.93254e-21
5.62356e-05
-3.93797e-18
1.38778e-21
-5.7246e-20
2.95655e-21
5.71931e-05
-3.92805e-18
1.38285e-21
-7.73375e-20
2.98708e-21
5.81662e-05
-3.92278e-18
1.37941e-21
-9.52896e-20
3.03958e-21
5.91552e-05
-3.90318e-18
1.37208e-21
-9.90526e-20
3.10906e-21
6.01603e-05
-3.89603e-18
1.34588e-21
-9.2956e-20
3.18374e-21
6.11819e-05
-3.88773e-18
1.32435e-21
-9.06332e-20
3.25792e-21
6.22201e-05
-3.89374e-18
1.31132e-21
-9.10269e-20
3.34064e-21
6.32752e-05
-3.88793e-18
1.30254e-21
-1.05621e-19
3.43652e-21
6.43475e-05
-3.88844e-18
1.29697e-21
-1.06216e-19
3.54441e-21
6.54373e-05
-3.90266e-18
1.27015e-21
-1.07463e-19
3.64496e-21
6.65448e-05
-3.89635e-18
1.25856e-21
-1.22679e-19
3.74441e-21
6.76704e-05
-3.88855e-18
1.24967e-21
-1.21193e-19
3.84842e-21
6.88143e-05
-3.88296e-18
1.2407e-21
-1.29974e-19
3.92947e-21
6.99769e-05
-3.88036e-18
1.24018e-21
-1.37583e-19
4.02347e-21
7.11584e-05
-3.8734e-18
1.25916e-21
-1.53517e-19
4.11841e-21
7.23592e-05
-3.86612e-18
1.29924e-21
-1.55642e-19
4.21308e-21
7.35795e-05
-3.86408e-18
1.36222e-21
-1.65681e-19
4.29183e-21
7.48196e-05
-3.85207e-18
1.45177e-21
-1.73156e-19
4.37127e-21
7.608e-05
-3.8408e-18
1.57371e-21
-2.03348e-19
4.41127e-21
7.73608e-05
-3.8255e-18
1.70703e-21
-1.97746e-19
4.46685e-21
7.86625e-05
-3.80477e-18
1.81392e-21
-2.16281e-19
4.51979e-21
7.99854e-05
-3.80754e-18
1.89586e-21
-2.36447e-19
4.58991e-21
8.13298e-05
-3.78927e-18
1.96764e-21
-2.52678e-19
4.66379e-21
8.26961e-05
-3.77132e-18
1.99738e-21
-2.74585e-19
4.77487e-21
8.40846e-05
-3.74693e-18
1.9811e-21
-3.06566e-19
4.96678e-21
8.54957e-05
-3.71519e-18
1.88734e-21
-3.27115e-19
5.19021e-21
8.69297e-05
-3.72749e-18
1.73976e-21
-3.3346e-19
5.40698e-21
8.8387e-05
-3.72189e-18
1.58011e-21
-3.33196e-19
5.63097e-21
8.9868e-05
-3.71334e-18
1.40147e-21
-3.42581e-19
5.85321e-21
9.1373e-05
-3.72557e-18
1.20984e-21
-3.30776e-19
6.05678e-21
9.29025e-05
-3.72549e-18
1.01435e-21
-3.34592e-19
6.21085e-21
9.44568e-05
-3.74552e-18
7.86359e-22
-3.38724e-19
6.36866e-21
9.60364e-05
-3.7474e-18
5.53902e-22
-3.48526e-19
6.51471e-21
9.76416e-05
-3.73384e-18
3.2002e-22
-3.69254e-19
6.63158e-21
9.92728e-05
-3.74339e-18
2.42995e-23
-3.72707e-19
6.76359e-21
0.000100931
-3.74249e-18
-2.42381e-22
-3.9804e-19
6.84017e-21
0.000102615
-3.73382e-18
-5.15916e-22
-4.1135e-19
6.93416e-21
0.000104327
-3.72226e-18
-7.67041e-22
-4.39998e-19
7.00258e-21
0.000106067
-3.72315e-18
-9.59722e-22
-4.40501e-19
7.0418e-21
0.000107835
-3.68415e-18
-1.09931e-21
-4.67442e-19
7.0412e-21
0.000109631
-3.66698e-18
-1.29276e-21
-4.94678e-19
7.02012e-21
0.000111457
-3.6527e-18
-1.50719e-21
-5.09967e-19
7.0298e-21
0.000113312
-3.64864e-18
-1.63205e-21
-5.24443e-19
7.04415e-21
0.000115197
-3.62498e-18
-1.7224e-21
-5.59022e-19
7.04032e-21
0.000117113
-3.60349e-18
-1.87534e-21
-5.8011e-19
7.0386e-21
0.00011906
-3.56297e-18
-2.04667e-21
-6.05862e-19
6.98157e-21
0.000121038
-3.53211e-18
-2.23551e-21
-6.40687e-19
6.87611e-21
0.000123048
-3.53203e-18
-2.41744e-21
-6.81232e-19
6.67155e-21
0.000125091
-3.50108e-18
-2.6602e-21
-7.08858e-19
6.49381e-21
0.000127167
-3.47613e-18
-3.00353e-21
-7.62532e-19
6.26315e-21
0.000129276
-3.46409e-18
-3.4841e-21
-8.02022e-19
6.0339e-21
0.00013142
-3.45484e-18
-3.94395e-21
-8.2677e-19
5.86801e-21
0.000133598
-3.40483e-18
-4.38505e-21
-8.81966e-19
5.74586e-21
0.000135811
-3.36597e-18
-4.78214e-21
-9.22863e-19
5.70093e-21
0.00013806
-3.34343e-18
-5.19242e-21
-9.53641e-19
5.71428e-21
0.000140346
-3.30496e-18
-5.46583e-21
-9.93537e-19
5.78475e-21
0.000142668
-3.26062e-18
-5.75467e-21
-1.03514e-18
5.75973e-21
0.000145027
-3.22336e-18
-6.03289e-21
-1.06244e-18
5.6324e-21
0.000147425
-3.18969e-18
-6.44085e-21
-1.10161e-18
5.59647e-21
0.000149861
-3.16001e-18
-6.78751e-21
-1.15645e-18
5.55362e-21
0.000152337
-3.14074e-18
-7.03799e-21
-1.17697e-18
5.62984e-21
0.000154853
-3.10068e-18
-7.25759e-21
-1.21236e-18
5.60711e-21
0.000157409
-3.05634e-18
-7.4826e-21
-1.25563e-18
5.51387e-21
0.000160006
-3.0468e-18
-7.95031e-21
-1.25384e-18
5.5044e-21
0.000162645
-3.0257e-18
-8.33595e-21
-1.29523e-18
5.37535e-21
0.000165326
-3.01666e-18
-8.75469e-21
-1.29882e-18
5.33912e-21
0.00016805
-2.98307e-18
-8.97493e-21
-1.32583e-18
5.01853e-21
0.000170819
-2.97064e-18
-9.3108e-21
-1.34356e-18
4.63265e-21
0.000173632
-2.92179e-18
-9.60467e-21
-1.38604e-18
4.37117e-21
0.000176489
-2.87212e-18
-9.73845e-21
-1.40018e-18
4.06822e-21
0.000179393
-2.83576e-18
-9.81731e-21
-1.4307e-18
3.70054e-21
0.000182344
-2.78628e-18
-9.6941e-21
-1.45187e-18
3.55047e-21
0.000185341
-2.76934e-18
-9.841e-21
-1.46226e-18
3.37824e-21
0.000188387
-2.7107e-18
-9.85711e-21
-1.45425e-18
2.96623e-21
0.000191482
-2.6749e-18
-9.94565e-21
-1.4657e-18
2.33389e-21
0.000194626
-2.62842e-18
-1.0003e-20
-1.49404e-18
1.5518e-21
0.000197821
-2.62867e-18
-1.01431e-20
-1.47645e-18
1.01843e-21
0.000201066
-2.58253e-18
-1.00748e-20
-1.50402e-18
5.61332e-22
0.000204364
-2.54041e-18
-1.00555e-20
-1.49979e-18
2.51106e-22
0.000207714
-2.55381e-18
-1.00267e-20
-1.49498e-18
-1.80618e-22
0.000211118
-2.52143e-18
-9.63814e-21
-1.52064e-18
-7.17059e-22
0.000214576
-2.4626e-18
-9.33462e-21
-1.55157e-18
-1.24394e-21
0.000218089
-2.44871e-18
-9.42714e-21
-1.55042e-18
-1.73771e-21
0.000221659
-2.43771e-18
-9.66255e-21
-1.5405e-18
-2.29624e-21
0.000225285
-2.43416e-18
-9.87169e-21
-1.50151e-18
-2.89368e-21
0.000228969
-2.40572e-18
-1.01184e-20
-1.51224e-18
-3.71183e-21
0.000232712
-2.3945e-18
-1.07114e-20
-1.51043e-18
-4.84178e-21
0.000236514
-2.40344e-18
-1.12147e-20
-1.49682e-18
-5.94603e-21
0.000240377
-2.40433e-18
-1.17184e-20
-1.48998e-18
-7.05123e-21
0.000244301
-2.44087e-18
-1.21153e-20
-1.58448e-18
-8.18753e-21
0.000248288
-2.40449e-18
-1.18232e-20
-1.59236e-18
-8.45169e-21
0.000252338
-2.32071e-18
-1.08164e-20
-1.65467e-18
-9.38178e-21
0.000256452
-2.23631e-18
-1.03919e-20
-1.69087e-18
-1.07001e-20
0.000260631
-2.2087e-18
-1.0325e-20
-1.67243e-18
-1.1803e-20
0.000264876
-2.13283e-18
-1.05016e-20
-1.68932e-18
-1.3502e-20
0.000269189
-2.14861e-18
-1.07896e-20
-1.73312e-18
-1.48677e-20
0.00027357
-2.09136e-18
-1.06691e-20
-1.76264e-18
-1.55392e-20
0.00027802
-2.0953e-18
-1.17905e-20
-1.76207e-18
-1.52214e-20
0.00028254
-2.06898e-18
-1.23688e-20
-1.76695e-18
-1.51324e-20
0.000287131
-2.03103e-18
-1.36381e-20
-1.71327e-18
-1.46475e-20
0.000291795
-2.02053e-18
-1.4521e-20
-1.68455e-18
-1.52503e-20
0.000296532
-2.0067e-18
-1.53799e-20
-1.69713e-18
-1.68301e-20
0.000301344
-1.9781e-18
-1.62143e-20
-1.72947e-18
-1.83242e-20
0.000306231
-1.92858e-18
-1.63989e-20
-1.67941e-18
-1.90005e-20
0.000311195
-1.81134e-18
-1.69903e-20
-1.77954e-18
-2.03448e-20
0.000316237
-1.82457e-18
-2.01769e-20
-1.77069e-18
-2.01602e-20
0.000321358
-1.80578e-18
-2.29912e-20
-1.77844e-18
-2.03233e-20
0.000326558
-1.8445e-18
-2.56554e-20
-1.74317e-18
-2.11383e-20
0.00033184
-1.83934e-18
-2.67619e-20
-1.69911e-18
-2.23599e-20
0.000337204
-1.80524e-18
-2.56345e-20
-1.69047e-18
-2.46288e-20
0.000342652
-1.78101e-18
-2.44897e-20
-1.64756e-18
-2.69945e-20
0.000348185
-1.76833e-18
-2.26672e-20
-1.60642e-18
-2.96742e-20
0.000353803
-1.71832e-18
-2.08857e-20
-1.6149e-18
-3.21484e-20
0.000359509
-1.55764e-18
-1.8295e-20
-1.65719e-18
-3.42327e-20
0.000365303
-1.4529e-18
-1.77631e-20
-1.7459e-18
-3.49699e-20
0.000371187
-1.47034e-18
-1.84205e-20
-1.69381e-18
-3.30931e-20
0.000377161
-1.43018e-18
-1.93751e-20
-1.65694e-18
-3.27292e-20
0.000383227
-1.45117e-18
-2.15729e-20
-1.61556e-18
-3.07861e-20
0.000389387
-1.47817e-18
-2.31167e-20
-1.52381e-18
-2.88991e-20
0.000395641
-1.45231e-18
-2.44163e-20
-1.49598e-18
-2.78301e-20
0.000401991
-1.41234e-18
-2.57461e-20
-1.49102e-18
-2.72438e-20
0.000408438
-1.38407e-18
-2.83172e-20
-1.48445e-18
-2.71994e-20
0.000414983
-1.43863e-18
-3.30451e-20
-1.47471e-18
-2.54488e-20
0.000421628
-1.39171e-18
-3.48437e-20
-1.4457e-18
-2.36404e-20
0.000428374
-1.35188e-18
-3.62957e-20
-1.45065e-18
-2.13436e-20
0.000435222
-1.37307e-18
-3.82391e-20
-1.37384e-18
-1.80405e-20
0.000442173
-1.42357e-18
-3.71646e-20
-1.31711e-18
-1.83366e-20
0.000449229
-1.3532e-18
-3.35802e-20
-1.29934e-18
-2.20526e-20
0.000456391
-1.39179e-18
-3.14412e-20
-1.19569e-18
-2.32348e-20
0.000463659
-1.29586e-18
-2.67442e-20
-1.19528e-18
-2.47298e-20
0.000471037
-1.22926e-18
-2.28373e-20
-1.19884e-18
-2.77326e-20
0.000478524
-1.21437e-18
-2.05147e-20
-1.18403e-18
-3.17953e-20
0.000486121
-1.15744e-18
-1.93576e-20
-1.15603e-18
-3.55368e-20
0.000493831
-1.1729e-18
-1.99994e-20
-1.19304e-18
-3.48516e-20
0.000501654
-1.27863e-18
-1.98784e-20
-1.26577e-18
-3.5302e-20
0.000509592
-1.28223e-18
-2.16336e-20
-1.29934e-18
-3.431e-20
0.000517645
-1.35911e-18
-2.33446e-20
-1.24344e-18
-3.38954e-20
0.000525814
-1.26593e-18
-2.11151e-20
-1.23516e-18
-3.89411e-20
0.000534101
-1.30415e-18
-2.88798e-20
-1.21702e-18
-4.06169e-20
0.000542507
-1.24086e-18
-3.58838e-20
-1.3497e-18
-4.26574e-20
0.000551033
-1.23767e-18
-4.16707e-20
-1.35678e-18
-4.16537e-20
0.000559679
-1.12195e-18
-4.53148e-20
-1.20565e-18
-4.27381e-20
0.000568447
-1.20898e-18
-5.14981e-20
-1.2754e-18
-4.93682e-20
0.000577337
-1.11257e-18
-4.90391e-20
-1.17032e-18
-4.6802e-20
0.00058635
-1.17198e-18
-5.12065e-20
-1.18506e-18
-5.43698e-20
0.000595486
-1.13794e-18
-4.9705e-20
-1.16009e-18
-5.95571e-20
0.000604747
-1.14684e-18
-4.55254e-20
-1.14069e-18
-5.46178e-20
0.000614132
-1.21892e-18
-4.19719e-20
-1.22063e-18
-5.0261e-20
0.000623643
-1.15139e-18
-3.42274e-20
-1.08938e-18
-4.25616e-20
0.000633278
-1.33073e-18
-3.64354e-20
-1.16377e-18
-4.22116e-20
0.000643039
-1.21987e-18
-2.75784e-20
-1.24647e-18
-4.3527e-20
0.000652925
-1.25671e-18
-3.19683e-20
-1.26036e-18
-4.42367e-20
0.000662936
-1.29131e-18
-3.96105e-20
-1.19806e-18
-4.32796e-20
0.000673071
-1.16974e-18
-4.41588e-20
-1.10032e-18
-4.53003e-20
0.000683331
-1.16483e-18
-4.41321e-20
-1.10499e-18
-4.71059e-20
0.000693714
-1.11339e-18
-4.65746e-20
-1.06927e-18
-4.70306e-20
0.000704219
-1.12967e-18
-5.31091e-20
-1.19687e-18
-5.10587e-20
0.000714844
-1.02994e-18
-4.67291e-20
-1.10287e-18
-4.04155e-20
0.00072559
-9.24958e-19
-3.66232e-20
-8.79554e-19
-3.15252e-20
0.000736453
-7.47379e-19
-2.39716e-20
-8.4762e-19
-2.82113e-20
0.000747433
-7.45208e-19
-1.98986e-20
-8.86158e-19
-3.11229e-20
0.000758526
-7.47509e-19
-8.50638e-21
-8.74598e-19
-2.90074e-20
0.000769731
-6.59321e-19
6.40796e-21
-6.37042e-19
-2.16625e-20
0.000781045
-7.45049e-19
2.2434e-21
-6.39842e-19
-2.5467e-20
0.000792465
1.0111e-20
-7.04445e-19
-1.74126e-20
-6.26287e-19
4.87907e-08
4.67171e-22
3.69226e-22
1.49206e-07
1.89448e-21
1.39284e-21
2.53987e-07
3.32616e-21
2.48423e-21
3.63281e-07
4.81187e-21
3.56568e-21
4.77238e-07
6.29724e-21
4.81086e-21
5.96008e-07
7.88042e-21
6.18108e-21
7.1973e-07
9.54767e-21
7.31755e-21
8.48532e-07
1.12544e-20
8.81316e-21
9.82504e-07
1.32207e-20
1.01806e-20
1.12169e-06
1.51381e-20
1.15298e-20
1.26606e-06
1.73294e-20
1.28504e-20
1.41549e-06
1.94829e-20
1.42478e-20
1.56972e-06
2.17281e-20
1.55906e-20
1.72839e-06
2.42381e-20
1.69265e-20
1.89098e-06
2.61464e-20
1.87709e-20
2.05687e-06
2.91194e-20
2.07629e-20
2.22537e-06
3.13283e-20
2.20495e-20
2.39576e-06
3.36923e-20
2.3881e-20
2.56735e-06
3.6347e-20
2.55877e-20
2.7395e-06
3.87983e-20
2.69057e-20
2.9117e-06
4.17682e-20
2.87387e-20
3.08352e-06
4.40508e-20
3.01149e-20
3.25469e-06
4.72483e-20
3.15459e-20
3.42501e-06
4.91557e-20
3.36876e-20
3.5944e-06
5.171e-20
3.53874e-20
3.76285e-06
5.39624e-20
3.68529e-20
3.93041e-06
5.59321e-20
3.87455e-20
4.09716e-06
5.72128e-20
4.07203e-20
4.26322e-06
5.85654e-20
4.22889e-20
4.42875e-06
6.1156e-20
4.39751e-20
4.59388e-06
6.29107e-20
4.56987e-20
4.75878e-06
6.46548e-20
4.67093e-20
4.92362e-06
6.54207e-20
4.78011e-20
5.08853e-06
6.78034e-20
4.9769e-20
5.2537e-06
6.95402e-20
5.18631e-20
5.41925e-06
7.09045e-20
5.37562e-20
5.58535e-06
7.33879e-20
5.35038e-20
5.75212e-06
7.54749e-20
5.4355e-20
5.9197e-06
7.71607e-20
5.62569e-20
6.08822e-06
7.88575e-20
5.69129e-20
6.25781e-06
8.15672e-20
5.8148e-20
6.42857e-06
8.22428e-20
5.911e-20
6.60063e-06
8.24802e-20
6.01915e-20
6.77408e-06
8.28529e-20
6.10463e-20
6.94904e-06
8.43855e-20
6.33725e-20
7.12559e-06
8.40864e-20
6.63149e-20
7.30385e-06
8.61546e-20
6.73964e-20
7.4839e-06
8.72043e-20
6.88392e-20
7.66582e-06
8.7749e-20
7.13911e-20
7.84972e-06
8.9465e-20
7.33627e-20
8.03567e-06
9.03518e-20
7.33285e-20
8.22376e-06
8.93806e-20
7.48083e-20
8.41406e-06
9.13421e-20
7.45333e-20
8.60667e-06
9.11456e-20
7.75457e-20
8.80165e-06
9.1279e-20
7.97354e-20
8.99909e-06
9.32456e-20
8.21871e-20
9.19905e-06
9.37457e-20
8.22703e-20
9.40162e-06
9.68193e-20
8.16691e-20
9.60688e-06
9.90159e-20
8.33563e-20
9.81488e-06
1.01402e-19
8.26005e-20
1.00257e-05
1.02409e-19
8.54885e-20
1.02395e-05
1.04057e-19
8.60704e-20
1.04562e-05
1.03722e-19
8.9144e-20
1.06759e-05
1.04206e-19
9.06246e-20
1.08988e-05
1.05045e-19
9.30952e-20
1.11249e-05
1.03436e-19
9.8598e-20
1.13542e-05
1.03665e-19
9.94435e-20
1.15868e-05
1.04627e-19
1.01265e-19
1.18229e-05
1.03093e-19
1.05761e-19
1.20625e-05
1.04011e-19
1.07231e-19
1.23056e-05
1.06369e-19
1.08752e-19
1.25523e-05
1.08083e-19
1.11631e-19
1.28028e-05
1.09667e-19
1.14181e-19
1.3057e-05
1.13657e-19
1.15452e-19
1.33151e-05
1.15556e-19
1.20437e-19
1.35771e-05
1.16544e-19
1.2235e-19
1.38431e-05
1.17719e-19
1.23056e-19
1.41132e-05
1.18961e-19
1.24723e-19
1.43874e-05
1.23014e-19
1.25852e-19
1.46659e-05
1.23017e-19
1.24089e-19
1.49487e-05
1.24385e-19
1.25609e-19
1.5236e-05
1.24975e-19
1.23747e-19
1.55277e-05
1.23433e-19
1.23361e-19
1.58239e-05
1.25812e-19
1.24851e-19
1.61249e-05
1.27657e-19
1.28101e-19
1.64305e-05
1.31802e-19
1.27174e-19
1.6741e-05
1.29217e-19
1.29446e-19
1.70563e-05
1.32175e-19
1.35094e-19
1.73767e-05
1.33506e-19
1.37132e-19
1.77022e-05
1.29827e-19
1.39762e-19
1.80328e-05
1.29137e-19
1.41228e-19
1.83687e-05
1.24944e-19
1.45594e-19
1.87099e-05
1.26937e-19
1.47566e-19
1.90566e-05
1.27343e-19
1.49618e-19
1.94088e-05
1.29047e-19
1.53935e-19
1.97667e-05
1.36382e-19
1.51341e-19
2.01303e-05
1.39399e-19
1.52217e-19
2.04997e-05
1.36198e-19
1.57628e-19
2.08751e-05
1.41962e-19
1.60364e-19
2.12565e-05
1.4474e-19
1.63916e-19
2.16441e-05
1.50104e-19
1.64951e-19
2.20379e-05
1.51652e-19
1.67404e-19
2.2438e-05
1.53838e-19
1.66774e-19
2.28447e-05
1.60311e-19
1.72091e-19
2.32578e-05
1.581e-19
1.77277e-19
2.36777e-05
1.61423e-19
1.77766e-19
2.41044e-05
1.64081e-19
1.79366e-19
2.4538e-05
1.636e-19
1.83389e-19
2.49786e-05
1.64935e-19
1.83132e-19
2.54263e-05
1.69424e-19
1.83387e-19
2.58813e-05
1.68855e-19
1.83168e-19
2.63437e-05
1.69676e-19
1.83499e-19
2.68136e-05
1.66594e-19
1.89589e-19
2.72911e-05
1.7087e-19
1.89345e-19
2.77764e-05
1.73694e-19
1.89943e-19
2.82696e-05
1.81436e-19
1.9418e-19
2.87708e-05
1.81192e-19
2.00043e-19
2.92802e-05
1.82789e-19
2.01545e-19
2.97978e-05
1.848e-19
2.1064e-19
3.03239e-05
1.83771e-19
2.13653e-19
3.08586e-05
1.8343e-19
2.152e-19
3.14019e-05
1.84971e-19
2.22236e-19
3.19541e-05
1.85202e-19
2.23133e-19
3.25154e-05
1.91318e-19
2.2683e-19
3.30857e-05
1.96396e-19
2.36852e-19
3.36654e-05
2.07665e-19
2.35403e-19
3.42545e-05
2.06164e-19
2.35557e-19
3.48532e-05
2.04002e-19
2.44302e-19
3.54617e-05
1.94077e-19
2.5089e-19
3.60802e-05
1.95776e-19
2.57801e-19
3.67087e-05
1.99189e-19
2.55598e-19
3.73474e-05
1.97751e-19
2.5852e-19
3.79966e-05
1.97729e-19
2.57503e-19
3.86564e-05
1.98721e-19
2.58827e-19
3.9327e-05
1.94225e-19
2.64522e-19
4.00085e-05
1.94712e-19
2.6506e-19
4.07012e-05
2.02915e-19
2.65832e-19
4.14051e-05
2.05122e-19
2.70799e-19
4.21205e-05
2.0982e-19
2.7304e-19
4.28477e-05
2.0387e-19
2.81845e-19
4.35866e-05
2.1519e-19
2.80495e-19
4.43377e-05
2.12004e-19
2.83472e-19
4.5101e-05
2.17047e-19
2.88477e-19
4.58768e-05
2.11298e-19
2.9428e-19
4.66653e-05
2.11456e-19
3.01079e-19
4.74666e-05
2.11039e-19
2.99144e-19
4.8281e-05
2.13006e-19
2.9962e-19
4.91087e-05
2.17236e-19
3.07003e-19
4.99499e-05
2.18811e-19
3.0493e-19
5.08048e-05
2.1562e-19
3.0982e-19
5.16737e-05
2.18628e-19
3.22123e-19
5.25568e-05
2.21372e-19
3.2615e-19
5.34543e-05
2.2805e-19
3.20803e-19
5.43664e-05
2.29746e-19
3.34309e-19
5.52934e-05
2.31813e-19
3.32741e-19
5.62356e-05
2.2444e-19
3.32327e-19
5.71931e-05
2.40988e-19
3.37761e-19
5.81662e-05
2.47327e-19
3.37549e-19
5.91552e-05
2.44195e-19
3.45981e-19
6.01603e-05
2.46496e-19
3.52429e-19
6.11819e-05
2.51796e-19
3.51354e-19
6.22201e-05
2.44159e-19
3.60162e-19
6.32752e-05
2.5802e-19
3.67398e-19
6.43475e-05
2.50234e-19
3.71129e-19
6.54373e-05
2.64491e-19
3.82912e-19
6.65448e-05
2.77021e-19
3.85229e-19
6.76704e-05
2.8402e-19
3.79442e-19
6.88143e-05
2.87853e-19
3.96189e-19
6.99769e-05
2.88666e-19
4.0232e-19
7.11584e-05
2.83932e-19
4.06016e-19
7.23592e-05
2.72166e-19
4.05811e-19
7.35795e-05
2.63204e-19
4.16276e-19
7.48196e-05
2.73504e-19
4.08695e-19
7.608e-05
2.68985e-19
4.24039e-19
7.73608e-05
2.55197e-19
4.41513e-19
7.86625e-05
2.62867e-19
4.4269e-19
7.99854e-05
2.66111e-19
4.38678e-19
8.13298e-05
2.75712e-19
4.44426e-19
8.26961e-05
2.85862e-19
4.7077e-19
8.40846e-05
2.79831e-19
4.73854e-19
8.54957e-05
2.98736e-19
4.6572e-19
8.69297e-05
3.01506e-19
4.73722e-19
8.8387e-05
3.09682e-19
4.76804e-19
8.9868e-05
3.19868e-19
4.66713e-19
9.1373e-05
3.12617e-19
4.69858e-19
9.29025e-05
2.98378e-19
4.82985e-19
9.44568e-05
2.80995e-19
4.85985e-19
9.60364e-05
2.84202e-19
4.82298e-19
9.76416e-05
2.71273e-19
4.97151e-19
9.92728e-05
2.77656e-19
4.97172e-19
0.000100931
2.69625e-19
5.16619e-19
0.000102615
2.7294e-19
5.2287e-19
0.000104327
2.88616e-19
5.03904e-19
0.000106067
2.93798e-19
5.11049e-19
0.000107835
2.96499e-19
5.06192e-19
0.000109631
2.92746e-19
5.14139e-19
0.000111457
3.28249e-19
5.21135e-19
0.000113312
3.36172e-19
5.33528e-19
0.000115197
3.38096e-19
5.32611e-19
0.000117113
3.56886e-19
5.32789e-19
0.00011906
3.93341e-19
5.53023e-19
0.000121038
4.3625e-19
5.49224e-19
0.000123048
4.28558e-19
5.77393e-19
0.000125091
4.33881e-19
5.82497e-19
0.000127167
4.1677e-19
5.87528e-19
0.000129276
4.23326e-19
6.24418e-19
0.00013142
4.15321e-19
6.45042e-19
0.000133598
4.54568e-19
6.43156e-19
0.000135811
4.58605e-19
6.51474e-19
0.00013806
4.76327e-19
6.66011e-19
0.000140346
4.59342e-19
6.57961e-19
0.000142668
4.59951e-19
6.45384e-19
0.000145027
4.26752e-19
6.60938e-19
0.000147425
4.50603e-19
6.38153e-19
0.000149861
4.76404e-19
6.40618e-19
0.000152337
4.69336e-19
6.28389e-19
0.000154853
4.83028e-19
6.17497e-19
0.000157409
4.42464e-19
6.31169e-19
0.000160006
4.32055e-19
6.34213e-19
0.000162645
4.28505e-19
6.59623e-19
0.000165326
4.78133e-19
6.5817e-19
0.00016805
4.83038e-19
6.39536e-19
0.000170819
4.77677e-19
6.58306e-19
0.000173632
5.23202e-19
6.54129e-19
0.000176489
5.49269e-19
6.51216e-19
0.000179393
5.79908e-19
6.45868e-19
0.000182344
5.44025e-19
6.3694e-19
0.000185341
5.43281e-19
6.37019e-19
0.000188387
5.44628e-19
6.43471e-19
0.000191482
5.47799e-19
6.1679e-19
0.000194626
5.49444e-19
6.34332e-19
0.000197821
5.44397e-19
6.78482e-19
0.000201066
5.45585e-19
6.89887e-19
0.000204364
5.49871e-19
6.80487e-19
0.000207714
5.52643e-19
6.55555e-19
0.000211118
5.52702e-19
6.33252e-19
0.000214576
5.46816e-19
6.38737e-19
0.000218089
5.29558e-19
6.59473e-19
0.000221659
5.15803e-19
6.54985e-19
0.000225285
4.90755e-19
6.55277e-19
0.000228969
4.6503e-19
6.24018e-19
0.000232712
4.63185e-19
6.1499e-19
0.000236514
4.41648e-19
6.08454e-19
0.000240377
4.46972e-19
5.98376e-19
0.000244301
4.51855e-19
5.80169e-19
0.000248288
5.0365e-19
5.65878e-19
0.000252338
4.66216e-19
5.33199e-19
0.000256452
4.6219e-19
5.19981e-19
0.000260631
4.15576e-19
4.82259e-19
0.000264876
4.33426e-19
4.89905e-19
0.000269189
4.30671e-19
4.79821e-19
0.00027357
3.67286e-19
5.12918e-19
0.00027802
3.77472e-19
4.76624e-19
0.00028254
3.17069e-19
4.91318e-19
0.000287131
3.52746e-19
4.75197e-19
0.000291795
3.51496e-19
4.46264e-19
0.000296532
3.57751e-19
4.1748e-19
0.000301344
3.85607e-19
4.03502e-19
0.000306231
3.80948e-19
3.88398e-19
0.000311195
3.31734e-19
3.7533e-19
0.000316237
3.21902e-19
3.4205e-19
0.000321358