/*--------------------------------*- C++ -*----------------------------------*\
| =========                 |                                                 |
| \\      /  F ield         | OpenFOAM: The Open Source CFD Toolbox           |
|  \\    /   O peration     | Version:  2012                                  |
|   \\  /    A nd           | Website:  www.openfoam.com                      |
|    \\/     M anipulation  |                                                 |
\*---------------------------------------------------------------------------*/
FoamFile
{
    version     2.0;
    format      ascii;
    class       volScalarField;
    location    "2000";
    object      p;
}
// * * * * * * * * * * * * * * * * * * * * * * * * * * * * * * * * * * * * * //

dimensions      [0 2 -2 0 0 0 0];


internalField   nonuniform List<scalar> 
2560
(
3.45612e-15
3.85695e-14
7.18519e-15
3.85686e-14
8.02331e-15
3.85678e-14
8.15467e-15
3.85668e-14
8.41288e-15
3.85655e-14
8.78536e-15
3.8564e-14
9.16411e-15
3.85621e-14
9.53213e-15
3.85599e-14
9.89365e-15
3.85574e-14
1.02509e-14
3.85547e-14
1.06037e-14
3.85515e-14
1.09519e-14
3.85481e-14
1.12957e-14
3.85444e-14
1.16351e-14
3.85403e-14
1.19701e-14
3.8536e-14
1.23009e-14
3.85314e-14
1.26275e-14
3.85266e-14
1.295e-14
3.85214e-14
1.32684e-14
3.8516e-14
1.35829e-14
3.85103e-14
1.38935e-14
3.85043e-14
1.42002e-14
3.84981e-14
1.45029e-14
3.84918e-14
1.48021e-14
3.84852e-14
1.50976e-14
3.84782e-14
1.53892e-14
3.8471e-14
1.56772e-14
3.84636e-14
1.59617e-14
3.84562e-14
1.62425e-14
3.84487e-14
1.65199e-14
3.8441e-14
1.67938e-14
3.84329e-14
1.70642e-14
3.84245e-14
1.73312e-14
3.8416e-14
1.75949e-14
3.84074e-14
1.78553e-14
3.83988e-14
1.81123e-14
3.83901e-14
1.8366e-14
3.83811e-14
1.86165e-14
3.83721e-14
1.8864e-14
3.83631e-14
1.91083e-14
3.8354e-14
1.93494e-14
3.8345e-14
1.95875e-14
3.83362e-14
1.98226e-14
3.83273e-14
2.00546e-14
3.83184e-14
2.02837e-14
3.83092e-14
2.05098e-14
3.83001e-14
2.0733e-14
3.8291e-14
2.09536e-14
3.82821e-14
2.11713e-14
3.82732e-14
2.13862e-14
3.82642e-14
2.15987e-14
3.82553e-14
2.18085e-14
3.82463e-14
2.20154e-14
3.82373e-14
2.22199e-14
3.82282e-14
2.24219e-14
3.82192e-14
2.26214e-14
3.82101e-14
2.28186e-14
3.82012e-14
2.30137e-14
3.81919e-14
2.32064e-14
3.81826e-14
2.33966e-14
3.81734e-14
2.35844e-14
3.81642e-14
2.37698e-14
3.81551e-14
2.39532e-14
3.81458e-14
2.4134e-14
3.81367e-14
2.43125e-14
3.81278e-14
2.44884e-14
3.8119e-14
2.4662e-14
3.81102e-14
2.48334e-14
3.81017e-14
2.50027e-14
3.80931e-14
2.51704e-14
3.8085e-14
2.53352e-14
3.80768e-14
2.54979e-14
3.80687e-14
2.56584e-14
3.80604e-14
2.5817e-14
3.80523e-14
2.59731e-14
3.80449e-14
2.61276e-14
3.80373e-14
2.62801e-14
3.80292e-14
2.64312e-14
3.80214e-14
2.65809e-14
3.80136e-14
2.67291e-14
3.80061e-14
2.68751e-14
3.79992e-14
2.70192e-14
3.79914e-14
2.71622e-14
3.79831e-14
2.73033e-14
3.79755e-14
2.74428e-14
3.79685e-14
2.75809e-14
3.79612e-14
2.77174e-14
3.79533e-14
2.78523e-14
3.7945e-14
2.79856e-14
3.79368e-14
2.81171e-14
3.79292e-14
2.82469e-14
3.79214e-14
2.83745e-14
3.79138e-14
2.85e-14
3.79063e-14
2.86235e-14
3.7899e-14
2.87455e-14
3.78912e-14
2.88659e-14
3.7883e-14
2.89856e-14
3.78749e-14
2.91031e-14
3.78673e-14
2.92182e-14
3.78592e-14
2.93326e-14
3.78502e-14
2.9446e-14
3.78413e-14
2.95579e-14
3.78327e-14
2.96674e-14
3.78242e-14
2.97761e-14
3.7816e-14
2.98842e-14
3.78084e-14
2.99903e-14
3.78006e-14
3.00952e-14
3.77928e-14
3.01992e-14
3.77846e-14
3.03019e-14
3.7776e-14
3.04031e-14
3.77678e-14
3.05027e-14
3.77598e-14
3.06005e-14
3.77519e-14
3.06963e-14
3.77438e-14
3.07916e-14
3.7735e-14
3.0886e-14
3.77264e-14
3.09785e-14
3.77178e-14
3.10702e-14
3.77091e-14
3.11607e-14
3.76996e-14
3.12494e-14
3.76901e-14
3.13381e-14
3.76796e-14
3.1426e-14
3.76687e-14
3.15126e-14
3.76573e-14
3.15982e-14
3.76453e-14
3.1683e-14
3.76331e-14
3.1767e-14
3.76211e-14
3.18497e-14
3.7609e-14
3.19311e-14
3.7597e-14
3.2012e-14
3.75838e-14
3.20926e-14
3.75696e-14
3.21713e-14
3.75548e-14
3.2249e-14
3.75406e-14
3.23261e-14
3.75273e-14
3.24026e-14
3.75133e-14
3.2478e-14
3.74988e-14
3.2552e-14
3.74846e-14
3.26251e-14
3.7471e-14
3.26972e-14
3.74568e-14
3.27689e-14
3.74424e-14
3.28407e-14
3.74284e-14
3.29122e-14
3.74138e-14
3.29823e-14
3.73978e-14
3.30523e-14
3.73825e-14
3.31217e-14
3.73677e-14
3.31897e-14
3.73521e-14
3.32573e-14
3.73366e-14
3.33241e-14
3.73217e-14
3.33903e-14
3.7306e-14
3.34562e-14
3.72898e-14
3.35209e-14
3.72734e-14
3.35851e-14
3.72566e-14
3.36492e-14
3.7239e-14
3.37135e-14
3.7222e-14
3.37773e-14
3.72053e-14
3.38406e-14
3.71885e-14
3.39012e-14
3.7171e-14
3.39611e-14
3.7153e-14
3.40214e-14
3.71345e-14
3.40808e-14
3.71171e-14
3.41394e-14
3.71012e-14
3.41956e-14
3.70839e-14
3.42499e-14
3.70668e-14
3.43028e-14
3.70507e-14
3.43555e-14
3.70343e-14
3.44092e-14
3.70172e-14
3.44607e-14
3.70002e-14
3.45126e-14
3.69825e-14
3.45642e-14
3.6965e-14
3.46146e-14
3.69481e-14
3.46652e-14
3.69309e-14
3.47146e-14
3.69143e-14
3.47642e-14
3.68982e-14
3.48139e-14
3.68822e-14
3.48625e-14
3.68658e-14
3.49099e-14
3.68502e-14
3.4958e-14
3.68345e-14
3.5004e-14
3.68187e-14
3.5049e-14
3.6803e-14
3.50944e-14
3.6787e-14
3.51402e-14
3.6771e-14
3.51847e-14
3.67562e-14
3.52284e-14
3.67418e-14
3.52709e-14
3.67283e-14
3.53129e-14
3.67149e-14
3.53534e-14
3.67052e-14
3.5392e-14
3.66962e-14
3.54305e-14
3.66872e-14
3.54683e-14
3.66777e-14
3.55046e-14
3.66695e-14
3.55411e-14
3.66624e-14
3.55748e-14
3.66575e-14
3.56074e-14
3.6654e-14
3.56402e-14
3.6649e-14
3.56738e-14
3.6643e-14
3.57074e-14
3.66392e-14
3.57413e-14
3.66368e-14
3.57731e-14
3.6632e-14
3.58043e-14
3.66309e-14
3.58351e-14
3.66336e-14
3.58685e-14
3.66388e-14
3.59005e-14
3.66421e-14
3.59343e-14
3.66508e-14
3.5964e-14
3.66636e-14
3.59961e-14
3.66756e-14
3.60327e-14
3.66866e-14
3.60673e-14
3.66999e-14
3.61057e-14
3.67136e-14
3.61423e-14
3.67317e-14
3.61838e-14
3.67478e-14
3.62263e-14
3.67615e-14
3.62678e-14
3.67792e-14
3.63136e-14
3.68013e-14
3.63643e-14
3.68119e-14
3.64153e-14
3.68206e-14
3.64641e-14
3.6841e-14
3.65168e-14
3.68619e-14
3.65677e-14
3.68988e-14
3.662e-14
3.69298e-14
3.66707e-14
3.69575e-14
3.67197e-14
3.6992e-14
3.67708e-14
3.70376e-14
3.68241e-14
3.70753e-14
3.688e-14
3.71124e-14
3.69345e-14
3.71613e-14
3.69964e-14
3.7223e-14
3.70617e-14
3.72749e-14
3.71306e-14
3.73113e-14
3.71985e-14
3.73706e-14
3.72604e-14
3.74441e-14
3.73315e-14
3.75274e-14
3.74067e-14
3.7599e-14
3.74918e-14
3.76579e-14
3.75699e-14
3.77383e-14
3.76649e-14
3.78475e-14
3.7765e-14
3.79245e-14
3.78578e-14
3.79862e-14
3.79498e-14
3.80776e-14
3.80546e-14
3.81592e-14
3.81589e-14
3.8251e-14
3.82702e-14
3.83174e-14
3.83819e-14
3.84072e-14
3.84723e-14
3.85283e-14
3.857e-14
3.86216e-14
3.86754e-14
3.87244e-14
3.87809e-14
3.88605e-14
3.88778e-14
3.89754e-14
3.89816e-14
3.91174e-14
3.90912e-14
3.92559e-14
3.92065e-14
3.93413e-14
3.92768e-14
3.94564e-14
3.93691e-14
3.9551e-14
3.95008e-14
3.96422e-14
3.96207e-14
3.97998e-14
3.97458e-14
3.99373e-14
3.98399e-14
4.01087e-14
3.99364e-14
4.02621e-14
4.00333e-14
4.03802e-14
4.01665e-14
4.04819e-14
4.03373e-14
4.06028e-14
4.04531e-14
4.07788e-14
4.0606e-14
4.08992e-14
4.07597e-14
4.10192e-14
4.08767e-14
4.11565e-14
4.09937e-14
4.12739e-14
4.11292e-14
4.14299e-14
4.13012e-14
4.15871e-14
4.14905e-14
4.1765e-14
4.16405e-14
4.18667e-14
4.1811e-14
4.20055e-14
4.20034e-14
4.21803e-14
4.21608e-14
4.2352e-14
4.23211e-14
4.25023e-14
4.24847e-14
4.25538e-14
4.26371e-14
4.2617e-14
4.282e-14
4.2765e-14
4.29576e-14
4.29956e-14
4.31028e-14
4.3179e-14
4.32524e-14
4.32797e-14
4.33696e-14
4.33709e-14
4.35117e-14
4.35073e-14
4.36594e-14
4.37057e-14
4.3828e-14
4.39136e-14
4.3996e-14
4.40414e-14
4.41477e-14
4.4144e-14
4.42869e-14
4.42535e-14
4.44521e-14
4.44222e-14
4.46431e-14
4.4558e-14
4.47181e-14
4.46757e-14
4.48381e-14
4.47952e-14
4.50012e-14
4.49336e-14
4.50844e-14
4.51072e-14
4.51897e-14
4.52693e-14
4.53127e-14
4.53526e-14
4.54565e-14
4.54593e-14
4.55205e-14
4.55524e-14
4.56059e-14
4.56021e-14
4.56813e-14
4.57109e-14
4.57451e-14
4.57812e-14
4.57649e-14
4.57784e-14
4.58085e-14
4.5866e-14
4.58721e-14
4.5851e-14
4.59284e-14
4.58886e-14
4.59464e-14
4.59725e-14
4.60179e-14
4.60462e-14
4.60813e-14
4.6143e-14
4.61005e-14
4.61087e-14
4.62012e-14
4.622e-14
4.62918e-14
4.62609e-14
4.63173e-14
4.63503e-14
4.63595e-14
4.64359e-14
4.64113e-14
4.64931e-14
4.64738e-14
4.65532e-14
4.64868e-14
4.6558e-14
4.6565e-14
4.66221e-14
4.65661e-14
4.67451e-14
4.66444e-14
4.6743e-14
4.67253e-14
4.67489e-14
4.67972e-14
4.68028e-14
4.68417e-14
4.68962e-14
4.69374e-14
4.68677e-14
4.69683e-14
4.69389e-14
3.58432e-14
3.70208e-14
3.58428e-14
3.70207e-14
3.58424e-14
3.70206e-14
3.5842e-14
3.70204e-14
3.58415e-14
3.70202e-14
3.58409e-14
3.70198e-14
3.58401e-14
3.70194e-14
3.58392e-14
3.7019e-14
3.58382e-14
3.70185e-14
3.58371e-14
3.70178e-14
3.58358e-14
3.70171e-14
3.58344e-14
3.70163e-14
3.5833e-14
3.70154e-14
3.58315e-14
3.70143e-14
3.583e-14
3.70131e-14
3.58283e-14
3.70119e-14
3.58265e-14
3.70106e-14
3.58246e-14
3.70092e-14
3.58225e-14
3.70077e-14
3.58203e-14
3.70061e-14
3.58181e-14
3.70046e-14
3.58157e-14
3.7003e-14
3.58133e-14
3.70014e-14
3.58107e-14
3.69997e-14
3.58081e-14
3.69976e-14
3.58055e-14
3.69955e-14
3.58027e-14
3.69933e-14
3.58001e-14
3.69912e-14
3.57974e-14
3.6989e-14
3.57945e-14
3.69867e-14
3.57915e-14
3.69842e-14
3.57885e-14
3.69816e-14
3.57856e-14
3.69791e-14
3.57827e-14
3.69765e-14
3.57795e-14
3.69738e-14
3.57762e-14
3.6971e-14
3.57731e-14
3.69681e-14
3.57699e-14
3.6965e-14
3.57666e-14
3.69619e-14
3.57634e-14
3.69584e-14
3.57603e-14
3.69551e-14
3.57568e-14
3.69519e-14
3.57533e-14
3.69485e-14
3.57499e-14
3.6945e-14
3.57466e-14
3.69416e-14
3.57433e-14
3.69381e-14
3.57399e-14
3.69346e-14
3.57364e-14
3.69312e-14
3.5733e-14
3.69275e-14
3.57296e-14
3.69237e-14
3.57262e-14
3.69199e-14
3.57226e-14
3.69161e-14
3.57197e-14
3.69121e-14
3.57167e-14
3.69079e-14
3.57137e-14
3.69039e-14
3.57107e-14
3.69001e-14
3.57077e-14
3.6896e-14
3.57049e-14
3.6892e-14
3.57022e-14
3.68877e-14
3.56994e-14
3.68834e-14
3.56968e-14
3.6879e-14
3.56941e-14
3.68746e-14
3.56912e-14
3.68704e-14
3.56882e-14
3.68663e-14
3.56854e-14
3.68621e-14
3.56834e-14
3.68576e-14
3.56811e-14
3.6853e-14
3.56797e-14
3.68483e-14
3.56783e-14
3.68434e-14
3.56768e-14
3.68386e-14
3.56756e-14
3.68338e-14
3.56747e-14
3.68291e-14
3.5674e-14
3.68244e-14
3.56736e-14
3.682e-14
3.56729e-14
3.68158e-14
3.56726e-14
3.6811e-14
3.56725e-14
3.68062e-14
3.56724e-14
3.68017e-14
3.56727e-14
3.67969e-14
3.56725e-14
3.6792e-14
3.56729e-14
3.67871e-14
3.56735e-14
3.67821e-14
3.56744e-14
3.67769e-14
3.5675e-14
3.67726e-14
3.56762e-14
3.67679e-14
3.56774e-14
3.67631e-14
3.56789e-14
3.67585e-14
3.56807e-14
3.67532e-14
3.56824e-14
3.67482e-14
3.56839e-14
3.67432e-14
3.56862e-14
3.6738e-14
3.56886e-14
3.67329e-14
3.56909e-14
3.6728e-14
3.56929e-14
3.67228e-14
3.56952e-14
3.67176e-14
3.56981e-14
3.67127e-14
3.57014e-14
3.67082e-14
3.57046e-14
3.67036e-14
3.57084e-14
3.66982e-14
3.5712e-14
3.66929e-14
3.57159e-14
3.66886e-14
3.57192e-14
3.66845e-14
3.57237e-14
3.66799e-14
3.57288e-14
3.66755e-14
3.57333e-14
3.66719e-14
3.57383e-14
3.66685e-14
3.57426e-14
3.66654e-14
3.57478e-14
3.66627e-14
3.57534e-14
3.66597e-14
3.57591e-14
3.66573e-14
3.57654e-14
3.6655e-14
3.57711e-14
3.6653e-14
3.5777e-14
3.66506e-14
3.57833e-14
3.66485e-14
3.57905e-14
3.66461e-14
3.57983e-14
3.6644e-14
3.58049e-14
3.66419e-14
3.58118e-14
3.66408e-14
3.58194e-14
3.66398e-14
3.58273e-14
3.66386e-14
3.58356e-14
3.66373e-14
3.58438e-14
3.66361e-14
3.5852e-14
3.66354e-14
3.58605e-14
3.66355e-14
3.58694e-14
3.66362e-14
3.58786e-14
3.6637e-14
3.58869e-14
3.66383e-14
3.58953e-14
3.66404e-14
3.59034e-14
3.66426e-14
3.59122e-14
3.66447e-14
3.59213e-14
3.66476e-14
3.59303e-14
3.66519e-14
3.5939e-14
3.66567e-14
3.59472e-14
3.66623e-14
3.59562e-14
3.66677e-14
3.59655e-14
3.66737e-14
3.59759e-14
3.66801e-14
3.5986e-14
3.66868e-14
3.59963e-14
3.66936e-14
3.60067e-14
3.67007e-14
3.60172e-14
3.67081e-14
3.60273e-14
3.6716e-14
3.60383e-14
3.67247e-14
3.60495e-14
3.67337e-14
3.60608e-14
3.67428e-14
3.60722e-14
3.67522e-14
3.60846e-14
3.67619e-14
3.60973e-14
3.67726e-14
3.61104e-14
3.67828e-14
3.61237e-14
3.6793e-14
3.61367e-14
3.68038e-14
3.61491e-14
3.6816e-14
3.61627e-14
3.68276e-14
3.61768e-14
3.68387e-14
3.61916e-14
3.68495e-14
3.62064e-14
3.68598e-14
3.62223e-14
3.68703e-14
3.62373e-14
3.68815e-14
3.62529e-14
3.6893e-14
3.62691e-14
3.69038e-14
3.62848e-14
3.69144e-14
3.63006e-14
3.6924e-14
3.63175e-14
3.6933e-14
3.63335e-14
3.6943e-14
3.63506e-14
3.69531e-14
3.63668e-14
3.69623e-14
3.63835e-14
3.69717e-14
3.64009e-14
3.69817e-14
3.64184e-14
3.69916e-14
3.64356e-14
3.70008e-14
3.64533e-14
3.70109e-14
3.64717e-14
3.70205e-14
3.64912e-14
3.70288e-14
3.65105e-14
3.7038e-14
3.65294e-14
3.70474e-14
3.65486e-14
3.70565e-14
3.65686e-14
3.70658e-14
3.65897e-14
3.70755e-14
3.66103e-14
3.70851e-14
3.66317e-14
3.70927e-14
3.66526e-14
3.71023e-14
3.66725e-14
3.71114e-14
3.66929e-14
3.71211e-14
3.67138e-14
3.71295e-14
3.67329e-14
3.71396e-14
3.67537e-14
3.7151e-14
3.67752e-14
3.71617e-14
3.6798e-14
3.71734e-14
3.68206e-14
3.71828e-14
3.68448e-14
3.71943e-14
3.68696e-14
3.72041e-14
3.68945e-14
3.72139e-14
3.69202e-14
3.72253e-14
3.69475e-14
3.72378e-14
3.69759e-14
3.72503e-14
3.70068e-14
3.72608e-14
3.70365e-14
3.72718e-14
3.70639e-14
3.72859e-14
3.70928e-14
3.73005e-14
3.71237e-14
3.73141e-14
3.71519e-14
3.73326e-14
3.71789e-14
3.73532e-14
3.7208e-14
3.73727e-14
3.72393e-14
3.73926e-14
3.7273e-14
3.74128e-14
3.73034e-14
3.74429e-14
3.73343e-14
3.74737e-14
3.73675e-14
3.7503e-14
3.74033e-14
3.75327e-14
3.74393e-14
3.75698e-14
3.7478e-14
3.76077e-14
3.75115e-14
3.76514e-14
3.755e-14
3.76878e-14
3.75995e-14
3.77248e-14
3.7652e-14
3.77651e-14
3.7695e-14
3.78088e-14
3.77405e-14
3.78495e-14
3.77886e-14
3.78936e-14
3.7843e-14
3.79449e-14
3.79003e-14
3.79924e-14
3.79607e-14
3.80395e-14
3.80119e-14
3.809e-14
3.80701e-14
3.81484e-14
3.81314e-14
3.82015e-14
3.82003e-14
3.82488e-14
3.82679e-14
3.83037e-14
3.8329e-14
3.83466e-14
3.8409e-14
3.83864e-14
3.84828e-14
3.84654e-14
3.85664e-14
3.8547e-14
3.86373e-14
3.86255e-14
3.8718e-14
3.86829e-14
3.8791e-14
3.87908e-14
3.88738e-14
3.88768e-14
3.89538e-14
3.89526e-14
3.90307e-14
3.90441e-14
3.91379e-14
3.91113e-14
3.92146e-14
3.9201e-14
3.93089e-14
3.93074e-14
3.93919e-14
3.94096e-14
3.94774e-14
3.95003e-14
3.95654e-14
3.96016e-14
3.96477e-14
3.96988e-14
3.97237e-14
3.98313e-14
3.9824e-14
3.99291e-14
3.99494e-14
3.99743e-14
4.00194e-14
4.00293e-14
4.00999e-14
4.01438e-14
4.01728e-14
4.02522e-14
4.02894e-14
4.03205e-14
4.03644e-14
4.03988e-14
4.04493e-14
4.04876e-14
4.05262e-14
4.06221e-14
4.06291e-14
4.07506e-14
4.0758e-14
4.08913e-14
4.08399e-14
4.09895e-14
4.09662e-14
4.11191e-14
4.11189e-14
4.12811e-14
4.12038e-14
4.14206e-14
4.12937e-14
4.15576e-14
4.14434e-14
4.16939e-14
4.15585e-14
4.17915e-14
4.16966e-14
4.18494e-14
4.18223e-14
4.19794e-14
4.19932e-14
4.21048e-14
4.20953e-14
4.22626e-14
4.22023e-14
4.2416e-14
4.23313e-14
4.25485e-14
4.2462e-14
4.26994e-14
4.26117e-14
4.28307e-14
4.27424e-14
4.29606e-14
4.28726e-14
4.30506e-14
4.3042e-14
4.31197e-14
4.32165e-14
4.32608e-14
4.33783e-14
4.34339e-14
4.3566e-14
4.35614e-14
4.37259e-14
4.37165e-14
4.3878e-14
4.3843e-14
4.4025e-14
4.40172e-14
4.4185e-14
4.41275e-14
4.43423e-14
4.42264e-14
4.44627e-14
4.4346e-14
4.45645e-14
4.45231e-14
4.46988e-14
4.46705e-14
4.48463e-14
4.48093e-14
4.49703e-14
4.49384e-14
4.50874e-14
4.50766e-14
4.52347e-14
4.5208e-14
4.53416e-14
4.53143e-14
4.54074e-14
4.5449e-14
4.54991e-14
4.56154e-14
4.55928e-14
4.57308e-14
4.5686e-14
4.57993e-14
4.57786e-14
4.58193e-14
4.58428e-14
4.58184e-14
4.58837e-14
4.58585e-14
4.59009e-14
4.59703e-14
4.59524e-14
4.60279e-14
4.59716e-14
4.60358e-14
4.60585e-14
4.60903e-14
4.61175e-14
4.61914e-14
4.61129e-14
4.62157e-14
4.61064e-14
4.6262e-14
4.61844e-14
4.63348e-14
4.63146e-14
4.63379e-14
4.63272e-14
4.63872e-14
4.64021e-14
4.64211e-14
4.64805e-14
4.64659e-14
4.65391e-14
4.65459e-14
4.65468e-14
4.66025e-14
4.66158e-14
4.66424e-14
4.66898e-14
4.66911e-14
4.67177e-14
4.6719e-14
4.67556e-14
4.68118e-14
4.67986e-14
4.68296e-14
4.67906e-14
4.69153e-14
4.67689e-14
4.70313e-14
4.67898e-14
4.71194e-14
4.68387e-14
4.72204e-14
4.68731e-14
4.72719e-14
4.7012e-14
4.70328e-14
4.70348e-14
4.70842e-14
4.70829e-14
4.71535e-14
4.71442e-14
4.72229e-14
4.71593e-14
4.7209e-14
4.72186e-14
4.72481e-14
4.72706e-14
4.72498e-14
4.72651e-14
4.7262e-14
4.73126e-14
4.73225e-14
4.73255e-14
4.74394e-14
4.73175e-14
4.73961e-14
4.73514e-14
4.73923e-14
4.73735e-14
4.74483e-14
4.73819e-14
4.74773e-14
4.73742e-14
4.7512e-14
4.7439e-14
4.75545e-14
4.74916e-14
4.7572e-14
4.75352e-14
4.76242e-14
4.75366e-14
4.76504e-14
4.76215e-14
4.76198e-14
4.76715e-14
4.76478e-14
4.77225e-14
4.7699e-14
4.77762e-14
4.77734e-14
4.78331e-14
4.77743e-14
4.78291e-14
4.77985e-14
4.78616e-14
4.78485e-14
4.7894e-14
4.78919e-14
4.79593e-14
4.78952e-14
4.79593e-14
4.80301e-14
4.79869e-14
4.80631e-14
4.80061e-14
4.79907e-14
4.80583e-14
4.8055e-14
4.80719e-14
4.81707e-14
4.80952e-14
4.82009e-14
4.81486e-14
4.82552e-14
4.81964e-14
4.82793e-14
4.82389e-14
4.82522e-14
4.82448e-14
4.82591e-14
4.83071e-14
4.82632e-14
4.83173e-14
4.83351e-14
4.83456e-14
4.83667e-14
4.83544e-14
4.84146e-14
4.84177e-14
4.84825e-14
4.84212e-14
4.84953e-14
4.84778e-14
4.85303e-14
4.85127e-14
4.85484e-14
4.85457e-14
4.85296e-14
4.85595e-14
4.85488e-14
4.86309e-14
4.86071e-14
4.86841e-14
4.87044e-14
4.86977e-14
4.87069e-14
4.86923e-14
4.86719e-14
4.86874e-14
4.86957e-14
4.87212e-14
4.87781e-14
4.87148e-14
4.87466e-14
4.86879e-14
4.87544e-14
4.86773e-14
4.88216e-14
4.86995e-14
4.88551e-14
4.8716e-14
4.88178e-14
4.871e-14
4.87848e-14
4.87202e-14
4.87741e-14
4.87286e-14
4.87275e-14
4.8681e-14
4.86991e-14
4.86698e-14
4.87443e-14
4.86927e-14
4.87346e-14
4.86954e-14
4.86882e-14
4.86796e-14
4.86591e-14
4.86639e-14
4.8683e-14
4.8665e-14
4.87242e-14
4.86643e-14
4.87123e-14
4.86622e-14
4.87353e-14
4.86411e-14
4.87413e-14
4.8618e-14
4.87317e-14
4.85927e-14
4.86902e-14
4.85489e-14
4.87001e-14
4.85349e-14
4.87283e-14
4.8517e-14
4.87268e-14
4.84952e-14
4.86808e-14
4.84777e-14
4.86533e-14
4.84951e-14
4.86818e-14
4.85163e-14
4.86823e-14
4.85195e-14
4.86926e-14
4.85551e-14
4.86692e-14
4.8567e-14
4.86754e-14
4.85631e-14
4.86894e-14
4.85771e-14
4.86847e-14
4.85826e-14
4.8681e-14
4.85738e-14
4.86907e-14
4.85879e-14
4.87008e-14
4.85881e-14
4.87055e-14
4.86036e-14
4.86996e-14
4.86114e-14
4.87113e-14
4.86174e-14
4.87178e-14
4.86268e-14
4.87092e-14
4.86294e-14
4.87062e-14
4.86354e-14
4.8728e-14
4.86444e-14
4.8726e-14
4.86517e-14
4.87245e-14
4.86534e-14
4.87232e-14
4.86622e-14
4.87097e-14
4.8666e-14
4.87165e-14
4.86688e-14
4.87266e-14
4.86744e-14
4.87255e-14
4.86755e-14
4.87245e-14
4.86793e-14
4.87269e-14
4.86855e-14
4.87324e-14
4.86938e-14
4.87347e-14
4.87012e-14
4.87311e-14
4.87023e-14
4.87359e-14
4.87083e-14
4.87404e-14
4.87135e-14
4.87446e-14
4.87158e-14
4.87509e-14
4.87199e-14
4.87479e-14
4.87257e-14
4.87449e-14
4.87289e-14
4.87522e-14
4.87298e-14
4.87571e-14
4.87322e-14
4.87543e-14
4.87343e-14
4.87534e-14
4.87344e-14
4.87558e-14
4.87327e-14
4.87596e-14
4.8734e-14
4.87632e-14
4.87334e-14
4.87667e-14
4.87326e-14
4.87672e-14
4.87343e-14
4.87678e-14
4.87357e-14
4.87671e-14
4.87369e-14
4.8769e-14
4.87402e-14
4.87672e-14
4.87432e-14
4.87642e-14
4.87432e-14
4.87637e-14
4.87458e-14
4.87631e-14
4.87493e-14
4.87603e-14
4.87505e-14
4.87592e-14
4.87495e-14
4.87585e-14
4.87505e-14
4.87578e-14
4.87535e-14
4.87566e-14
4.87533e-14
4.87553e-14
4.87531e-14
4.87535e-14
4.87534e-14
4.87535e-14
4.87536e-14
4.8754e-14
4.87543e-14
4.87549e-14
4.87549e-14
4.87548e-14
4.8755e-14
4.87547e-14
4.87556e-14
4.87544e-14
4.87552e-14
4.87547e-14
4.87567e-14
4.87544e-14
4.87576e-14
4.8754e-14
4.87576e-14
4.87536e-14
4.87576e-14
4.87536e-14
4.87566e-14
4.87536e-14
4.87575e-14
4.87531e-14
4.87575e-14
4.8753e-14
4.8756e-14
4.87524e-14
4.8755e-14
4.87528e-14
4.87544e-14
4.8753e-14
4.87539e-14
4.87538e-14
4.87537e-14
4.87545e-14
4.87531e-14
4.87548e-14
4.8753e-14
4.8755e-14
4.87523e-14
4.87542e-14
4.87516e-14
4.8754e-14
4.87509e-14
4.87542e-14
4.87512e-14
4.87534e-14
4.87514e-14
4.87526e-14
4.87496e-14
4.87523e-14
4.87483e-14
4.8752e-14
4.87475e-14
4.87517e-14
4.87467e-14
4.87514e-14
4.87474e-14
4.87515e-14
4.87465e-14
4.87512e-14
4.8744e-14
4.87499e-14
4.87423e-14
4.8749e-14
4.8741e-14
4.87487e-14
4.87398e-14
4.87494e-14
4.87382e-14
4.87496e-14
4.87363e-14
4.87496e-14
4.87349e-14
4.87495e-14
4.87341e-14
4.87495e-14
4.87326e-14
4.87487e-14
4.87311e-14
4.87475e-14
4.87301e-14
4.87484e-14
4.87297e-14
4.87493e-14
4.8728e-14
4.87493e-14
4.87272e-14
4.87488e-14
4.87264e-14
4.87488e-14
4.87255e-14
4.87486e-14
4.87243e-14
4.87484e-14
4.87237e-14
4.87482e-14
4.87233e-14
4.87484e-14
4.87229e-14
4.87485e-14
4.87221e-14
4.87487e-14
4.87213e-14
4.87486e-14
4.87205e-14
4.87481e-14
4.87196e-14
4.87481e-14
4.87187e-14
4.87483e-14
4.87174e-14
4.87492e-14
4.87168e-14
4.87499e-14
4.87168e-14
4.87498e-14
4.87164e-14
4.87495e-14
4.8716e-14
4.87495e-14
4.87159e-14
4.87499e-14
4.87158e-14
4.87496e-14
4.87152e-14
4.87494e-14
4.87154e-14
4.87488e-14
4.87152e-14
4.87496e-14
4.8715e-14
4.87505e-14
4.87147e-14
4.8751e-14
4.87144e-14
4.87512e-14
4.87141e-14
4.8751e-14
4.87134e-14
4.87514e-14
4.87129e-14
4.87518e-14
4.87123e-14
4.87523e-14
4.87121e-14
4.87524e-14
4.87117e-14
4.87521e-14
4.8711e-14
4.87518e-14
4.87107e-14
4.8752e-14
4.87102e-14
4.87521e-14
4.87095e-14
4.87517e-14
4.87094e-14
4.87513e-14
4.87098e-14
4.87509e-14
4.87099e-14
4.87509e-14
4.87097e-14
4.87511e-14
4.87092e-14
4.8751e-14
4.8709e-14
4.87506e-14
4.87087e-14
4.87507e-14
4.87085e-14
4.8751e-14
4.87084e-14
4.87509e-14
4.87081e-14
4.87505e-14
4.87083e-14
4.87504e-14
4.87084e-14
4.8751e-14
4.87083e-14
4.87516e-14
4.87081e-14
4.87523e-14
4.87075e-14
4.8752e-14
4.87074e-14
4.87522e-14
4.87072e-14
4.87526e-14
4.8707e-14
4.87536e-14
4.87068e-14
4.87543e-14
4.87066e-14
4.87548e-14
4.87053e-14
4.87553e-14
4.87047e-14
4.87558e-14
4.87042e-14
4.87566e-14
4.87036e-14
4.87576e-14
4.87036e-14
4.87582e-14
4.87032e-14
4.87588e-14
4.87026e-14
4.87595e-14
4.87018e-14
4.87603e-14
4.87019e-14
4.87606e-14
4.87023e-14
4.8761e-14
4.87023e-14
4.87612e-14
4.87023e-14
4.87615e-14
4.87019e-14
4.87616e-14
4.8702e-14
4.87617e-14
4.87025e-14
4.87617e-14
4.87029e-14
4.87613e-14
4.87029e-14
4.87613e-14
4.87029e-14
4.87616e-14
4.87032e-14
4.87618e-14
4.87035e-14
4.8762e-14
4.87036e-14
4.8762e-14
4.87034e-14
4.87622e-14
4.87039e-14
4.87623e-14
4.87042e-14
4.87621e-14
4.87045e-14
4.8762e-14
4.8705e-14
4.87625e-14
4.87054e-14
4.87626e-14
4.87056e-14
4.87623e-14
4.87061e-14
4.87621e-14
4.87068e-14
4.87618e-14
4.8707e-14
4.87616e-14
4.8707e-14
4.87616e-14
4.87073e-14
4.87618e-14
4.87078e-14
4.87618e-14
4.87081e-14
4.87617e-14
4.87083e-14
4.87617e-14
4.87086e-14
4.87617e-14
4.87088e-14
4.87618e-14
4.87088e-14
4.87618e-14
4.8709e-14
4.87621e-14
4.87093e-14
4.87623e-14
4.87094e-14
4.87623e-14
4.87095e-14
4.87626e-14
4.87094e-14
4.87628e-14
4.87094e-14
4.87629e-14
4.87094e-14
4.8763e-14
4.87093e-14
4.87632e-14
4.87093e-14
4.87631e-14
4.87092e-14
4.87634e-14
4.87092e-14
4.87637e-14
4.87091e-14
4.87638e-14
4.8709e-14
4.8764e-14
4.87089e-14
4.87641e-14
4.87087e-14
4.87643e-14
4.87087e-14
4.87643e-14
4.87087e-14
4.87642e-14
4.87086e-14
4.87641e-14
4.87086e-14
4.8764e-14
4.87085e-14
4.8764e-14
4.87085e-14
4.87641e-14
4.87085e-14
4.87641e-14
4.87085e-14
4.87641e-14
4.87084e-14
4.8764e-14
4.87084e-14
4.87639e-14
4.87084e-14
4.87638e-14
4.87084e-14
4.87638e-14
4.87084e-14
4.87638e-14
4.87084e-14
4.87638e-14
4.87083e-14
4.87638e-14
4.87083e-14
4.87638e-14
4.87082e-14
4.87638e-14
4.87081e-14
4.87638e-14
4.87081e-14
4.87638e-14
4.8708e-14
4.87639e-14
4.8708e-14
4.87639e-14
4.87079e-14
4.87639e-14
4.87079e-14
4.87639e-14
4.87079e-14
4.87639e-14
4.87079e-14
4.87639e-14
4.87079e-14
4.87639e-14
4.87079e-14
4.8764e-14
4.87079e-14
4.8764e-14
4.87079e-14
4.8764e-14
4.68883e-14
4.7251e-14
4.69717e-14
4.73093e-14
4.71356e-14
4.73012e-14
4.72219e-14
4.73593e-14
4.72368e-14
4.73642e-14
4.72672e-14
4.74286e-14
4.73068e-14
4.74723e-14
4.7355e-14
4.74097e-14
4.73728e-14
4.73937e-14
4.74217e-14
4.73852e-14
4.74521e-14
4.73982e-14
4.74679e-14
4.74953e-14
4.74571e-14
4.75419e-14
4.74719e-14
4.7574e-14
4.74802e-14
4.76547e-14
4.74436e-14
4.76698e-14
4.75088e-14
4.76845e-14
4.75568e-14
4.76919e-14
4.75925e-14
4.77168e-14
4.76839e-14
4.77577e-14
4.77064e-14
4.78129e-14
4.77206e-14
4.78864e-14
4.77197e-14
4.79176e-14
4.77997e-14
4.79057e-14
4.78358e-14
4.79425e-14
4.78977e-14
4.79948e-14
4.79538e-14
4.80268e-14
4.7972e-14
4.80005e-14
4.80237e-14
4.80856e-14
4.80736e-14
4.81781e-14
4.81195e-14
4.81404e-14
4.81502e-14
4.81452e-14
4.81304e-14
4.82251e-14
4.80879e-14
4.82408e-14
4.81266e-14
4.82679e-14
4.82112e-14
4.83044e-14
4.81983e-14
4.83847e-14
4.82104e-14
4.83872e-14
4.82487e-14
4.84412e-14
4.83125e-14
4.84735e-14
4.83298e-14
4.85186e-14
4.83369e-14
4.85019e-14
4.83921e-14
4.8534e-14
4.8459e-14
4.85172e-14
4.84858e-14
4.85421e-14
4.85294e-14
4.85507e-14
4.85726e-14
4.85218e-14
4.85993e-14
4.85098e-14
4.86309e-14
4.8551e-14
4.86852e-14
4.86459e-14
4.86636e-14
4.86606e-14
4.86996e-14
4.85966e-14
4.86816e-14
4.86824e-14
4.86828e-14
4.87678e-14
4.87189e-14
4.87787e-14
4.87337e-14
4.87922e-14
4.87279e-14
4.88083e-14
4.87395e-14
4.88076e-14
4.87303e-14
4.87509e-14
4.87399e-14
4.87322e-14
4.87311e-14
4.87505e-14
4.8703e-14
4.87878e-14
4.87287e-14
4.88282e-14
4.87521e-14
4.88169e-14
4.87376e-14
4.88085e-14
4.87219e-14
4.87845e-14
4.87234e-14
4.87454e-14
4.87248e-14
4.87443e-14
4.87086e-14
4.87982e-14
4.8691e-14
4.88368e-14
4.86705e-14
4.88271e-14
4.86469e-14
4.88047e-14
4.86374e-14
4.87867e-14
4.86252e-14
4.87894e-14
4.86101e-14
4.87964e-14
4.85758e-14
4.8808e-14
4.85541e-14
4.88245e-14
4.8544e-14
4.8815e-14
4.85374e-14
4.87652e-14
4.85198e-14
4.87517e-14
4.85362e-14
4.87282e-14
4.85711e-14
4.87451e-14
4.85815e-14
4.87578e-14
4.8603e-14
4.87317e-14
4.8602e-14
4.87427e-14
4.86058e-14
4.87558e-14
4.86011e-14
4.87972e-14
4.86066e-14
4.88094e-14
4.86278e-14
4.88003e-14
4.86523e-14
4.87766e-14
4.86691e-14
4.87787e-14
4.86845e-14
4.87992e-14
4.86984e-14
4.88102e-14
4.87111e-14
4.8807e-14
4.87226e-14
4.88055e-14
4.87334e-14
4.88201e-14
4.87294e-14
4.88215e-14
4.8725e-14
4.88288e-14
4.87245e-14
4.88331e-14
4.87274e-14
4.88387e-14
4.87294e-14
4.88379e-14
4.87344e-14
4.8831e-14
4.87351e-14
4.88184e-14
4.87317e-14
4.88075e-14
4.87348e-14
4.88048e-14
4.87437e-14
4.88126e-14
4.87459e-14
4.88178e-14
4.87476e-14
4.8815e-14
4.87489e-14
4.88132e-14
4.87498e-14
4.882e-14
4.87503e-14
4.88248e-14
4.87528e-14
4.88254e-14
4.87548e-14
4.88267e-14
4.87564e-14
4.88201e-14
4.87617e-14
4.88205e-14
4.87626e-14
4.88274e-14
4.87631e-14
4.88289e-14
4.87651e-14
4.88221e-14
4.87668e-14
4.88229e-14
4.87682e-14
4.88209e-14
4.87708e-14
4.8818e-14
4.87703e-14
4.88169e-14
4.87725e-14
4.88163e-14
4.87704e-14
4.88161e-14
4.87682e-14
4.88148e-14
4.87698e-14
4.8814e-14
4.87706e-14
4.88159e-14
4.87706e-14
4.88157e-14
4.87711e-14
4.88117e-14
4.87704e-14
4.88087e-14
4.87717e-14
4.88082e-14
4.87735e-14
4.88068e-14
4.87756e-14
4.88047e-14
4.87741e-14
4.88022e-14
4.87756e-14
4.8801e-14
4.87765e-14
4.8799e-14
4.87758e-14
4.87967e-14
4.87756e-14
4.8794e-14
4.8775e-14
4.8793e-14
4.87767e-14
4.8792e-14
4.87769e-14
4.87907e-14
4.87762e-14
4.87895e-14
4.8776e-14
4.87875e-14
4.87757e-14
4.8786e-14
4.87774e-14
4.87836e-14
4.87776e-14
4.87818e-14
4.87774e-14
4.87818e-14
4.87753e-14
4.87824e-14
4.87756e-14
4.87807e-14
4.87754e-14
4.87777e-14
4.87743e-14
4.87761e-14
4.87742e-14
4.87749e-14
4.87735e-14
4.87738e-14
4.87734e-14
4.87723e-14
4.87719e-14
4.87717e-14
4.87713e-14
4.87716e-14
4.87708e-14
4.87706e-14
4.87698e-14
4.8769e-14
4.87683e-14
4.87675e-14
4.87678e-14
4.8767e-14
4.87673e-14
4.87665e-14
4.87663e-14
4.87654e-14
4.87663e-14
4.87639e-14
4.87659e-14
4.87629e-14
4.87664e-14
4.87624e-14
4.87655e-14
4.87619e-14
4.87656e-14
4.87609e-14
4.87642e-14
4.87603e-14
4.87638e-14
4.87598e-14
4.87645e-14
4.87593e-14
4.87641e-14
4.87587e-14
4.87625e-14
4.8759e-14
4.87614e-14
4.8759e-14
4.87605e-14
4.87592e-14
4.87597e-14
4.87592e-14
4.87588e-14
4.87587e-14
4.87577e-14
4.87581e-14
4.87566e-14
4.87579e-14
4.87564e-14
4.87576e-14
4.8755e-14
4.87582e-14
4.87536e-14
4.87579e-14
4.87525e-14
4.87571e-14
4.8752e-14
4.87563e-14
4.87515e-14
4.87563e-14
4.8751e-14
4.87558e-14
4.87504e-14
4.8755e-14
4.87496e-14
4.87544e-14
4.87488e-14
4.87545e-14
4.87483e-14
4.8754e-14
4.87478e-14
4.87522e-14
4.87479e-14
4.87508e-14
4.8748e-14
4.87502e-14
4.87475e-14
4.87504e-14
4.87473e-14
4.87501e-14
4.87459e-14
4.87499e-14
4.87463e-14
4.87487e-14
4.87462e-14
4.87469e-14
4.8746e-14
4.87456e-14
4.87452e-14
4.87454e-14
4.87447e-14
4.87449e-14
4.87442e-14
4.8744e-14
4.87437e-14
4.87437e-14
4.87433e-14
4.87431e-14
4.87428e-14
4.87429e-14
4.87427e-14
4.87427e-14
4.87418e-14
4.87424e-14
4.87413e-14
4.87422e-14
4.87414e-14
4.87418e-14
4.87408e-14
4.87415e-14
4.87407e-14
4.87412e-14
4.874e-14
4.87414e-14
4.87394e-14
4.87415e-14
4.87391e-14
4.87412e-14
4.87388e-14
4.87411e-14
4.87387e-14
4.87415e-14
4.87385e-14
4.87418e-14
4.87378e-14
4.87421e-14
4.87373e-14
4.87422e-14
4.87366e-14
4.87421e-14
4.87359e-14
4.87421e-14
4.87352e-14
4.87424e-14
4.87349e-14
4.87423e-14
4.87344e-14
4.8742e-14
4.87344e-14
4.87419e-14
4.87337e-14
4.87421e-14
4.87332e-14
4.87422e-14
4.87327e-14
4.87424e-14
4.87324e-14
4.87425e-14
4.87321e-14
4.87429e-14
4.87325e-14
4.8743e-14
4.87324e-14
4.87437e-14
4.87321e-14
4.87436e-14
4.87316e-14
4.87435e-14
4.87315e-14
4.87437e-14
4.8732e-14
4.87436e-14
4.87322e-14
4.87438e-14
4.87321e-14
4.87437e-14
4.87321e-14
4.87431e-14
4.87325e-14
4.87426e-14
4.87326e-14
4.87429e-14
4.87324e-14
4.87432e-14
4.87323e-14
4.87432e-14
4.87324e-14
4.87432e-14
4.87325e-14
4.87434e-14
4.87327e-14
4.87432e-14
4.87327e-14
4.87423e-14
4.87335e-14
4.87413e-14
4.87335e-14
4.87411e-14
4.87341e-14
4.87406e-14
4.87343e-14
4.87397e-14
4.8735e-14
4.87392e-14
4.87359e-14
4.87386e-14
4.87367e-14
4.87379e-14
4.87375e-14
4.87372e-14
4.87377e-14
4.87371e-14
4.87383e-14
4.87367e-14
4.87389e-14
4.87359e-14
4.87395e-14
4.8735e-14
4.87405e-14
4.87342e-14
4.87411e-14
4.87339e-14
4.87414e-14
4.87336e-14
4.87421e-14
4.8733e-14
4.87424e-14
4.87324e-14
4.8743e-14
4.87321e-14
4.87434e-14
4.87316e-14
4.87442e-14
4.8731e-14