/*--------------------------------*- C++ -*----------------------------------*\
| =========                 |                                                 |
| \\      /  F ield         | OpenFOAM: The Open Source CFD Toolbox           |
|  \\    /   O peration     | Version:  2012                                  |
|   \\  /    A nd           | Website:  www.openfoam.com                      |
|    \\/     M anipulation  |                                                 |
\*---------------------------------------------------------------------------*/
FoamFile
{
    version     2.0;
    format      ascii;
    class       volTensorField;
    location    "5000";
    object      grad(U);
}
// * * * * * * * * * * * * * * * * * * * * * * * * * * * * * * * * * * * * * //

dimensions      [0 0 -1 0 0 0 0];


internalField   nonuniform List<tensor> 
2560
(
(0 4.15781e-30 1.62414e-32 242.69 -1.14303e-11 5.67137e-14 0.351314 -8.87827e-15 -1.64189e-16)
(0 -2.5641e-28 0 242.69 -2.41218e-15 1.1296e-16 0.351314 6.98337e-18 1.24574e-15)
(-1.44193e-16 -4.59522e-25 8.20026e-26 242.647 -5.72075e-13 1.02773e-13 1.059 -1.68027e-15 3.01859e-16)
(0 0 5.12277e-31 242.647 -2.70507e-15 4.25087e-17 1.059 -1.55407e-17 3.91295e-15)
(2.39467e-16 2.8026e-45 -1.3715e-31 242.416 1.15153e-27 5.00575e-14 1.45405 9.52359e-46 2.94747e-16)
(-2.84253e-16 4.03948e-30 -5.04935e-31 242.416 9.17129e-15 -7.35117e-17 1.45405 2.88395e-17 4.02044e-15)
(7.04453e-16 -1.01587e-29 1.15121e-30 241.421 7.31692e-13 4.08579e-14 1.46547 -7.11466e-15 1.98644e-16)
(-5.60358e-16 7.96317e-30 -9.95396e-31 241.421 4.36374e-15 -4.30334e-17 1.46547 5.27771e-17 4.11818e-15)
(0 -1.17736e-29 7.31324e-28 238.361 4.62954e-14 2.50615e-16 1.45883 -1.69438e-15 7.68672e-19)
(0 1.17736e-29 -1.96226e-30 238.361 4.06223e-15 -5.51628e-17 1.45883 7.57881e-17 4.18209e-15)
(8.97613e-16 -1.08244e-29 3.75173e-31 231.378 -1.3464e-13 1.64653e-44 1.42085 -5.24463e-16 0)
(2.82562e-15 7.73654e-30 -9.67067e-31 231.378 4.3592e-15 -5.9447e-17 1.42085 9.99853e-17 4.17526e-15)
(-4.62278e-16 -6.66712e-31 3.32595e-31 219.092 -5.94008e-14 -6.76883e-14 1.3453 -2.23476e-16 2.83836e-16)
(1.84911e-15 7.62565e-30 -9.53207e-31 219.092 4.41893e-15 -5.50685e-17 1.3453 1.24799e-16 4.06569e-15)
(-5.70281e-16 1.44408e-29 -1.03449e-30 201.831 -2.70903e-14 -1.04772e-13 1.23971 -1.22868e-16 5.73017e-16)
(2.28112e-15 -7.51636e-30 4.69772e-31 201.831 4.2691e-15 -5.06138e-17 1.23971 1.50724e-16 3.85179e-15)
(1.71553e-15 -6.86699e-30 1.44443e-30 181.646 -2.2382e-14 -1.24023e-13 1.12045 -1.68379e-16 7.70708e-16)
(-1.04267e-15 3.70431e-30 -1.38912e-30 181.646 3.30116e-15 -4.28838e-17 1.12045 1.72915e-16 3.56677e-15)
(-1.02773e-15 7.30244e-30 -1.36921e-30 161.067 -2.36872e-14 -1.25617e-13 1.00267 -1.43803e-16 8.41838e-16)
(0 -3.65122e-30 9.12806e-31 161.067 2.68394e-15 -3.26661e-17 1.00267 1.93365e-16 3.25648e-15)
(-8.51429e-16 -7.62e-30 8.76835e-31 141.919 -2.02717e-14 -1.15886e-13 0.895237 -1.27285e-16 8.14458e-16)
(-1.013e-15 1.43956e-29 -8.99723e-31 141.919 2.94572e-15 -3.19565e-17 0.895237 2.13413e-16 2.95647e-15)
(1.92506e-15 -2.80131e-29 2.01754e-30 125.046 -1.76587e-14 -1.01367e-13 0.801359 -1.12292e-16 7.35365e-16)
(-9.98479e-16 2.48312e-29 -1.77365e-30 125.046 2.77555e-15 -3.2225e-17 0.801359 2.31522e-16 2.68524e-15)
(9.84168e-16 -6.99293e-30 4.37058e-31 110.594 -1.48736e-14 -8.6213e-14 0.720997 -9.23824e-17 6.3982e-16)
(0 6.99293e-30 -6.55588e-31 110.594 2.55047e-15 -3.05351e-17 0.720997 2.48173e-16 2.4487e-15)
(-2.0229e-15 6.63784e-30 -2.45006e-31 98.3633 -1.2424e-14 -7.23639e-14 0.652722 -8.11091e-17 5.46708e-16)
(4.21136e-15 0 0 98.3633 2.25298e-15 -2.65271e-17 0.652722 2.62023e-16 2.24589e-15)
(0 2.37787e-29 -1.48617e-30 88.0402 -1.12565e-14 -6.04538e-14 0.594735 -7.842e-17 4.63673e-16)
(0 -2.37787e-29 1.48617e-30 88.0402 1.5689e-15 -2.24794e-17 0.594735 2.74114e-16 2.07311e-15)
(-1.1543e-15 3.19803e-30 -3.76264e-32 79.3047 -9.72403e-15 -5.04959e-14 0.545312 -6.12882e-17 3.92682e-16)
(4.61722e-15 0 0 79.3047 4.73808e-16 -6.65486e-18 0.545312 2.84412e-16 1.92593e-15)
(0 1.98017e-29 -1.03134e-30 71.8737 -8.22018e-15 -4.22635e-14 0.502957 -5.86178e-17 3.3302e-16)
(-4.79209e-15 -1.98017e-29 1.03134e-30 71.8737 2.23462e-19 -9.28646e-18 0.502957 2.91439e-16 1.80025e-15)
(0 2.27709e-29 -1.21987e-30 65.5111 -9.73629e-15 -3.54799e-14 0.466428 -8.56871e-17 2.83208e-16)
(-4.95196e-15 -2.27709e-29 1.21987e-30 65.5111 2.15282e-15 -2.8079e-17 0.466428 2.96878e-16 1.69236e-15)
(3.61004e-15 -9.61907e-30 6.01192e-31 60.0254 -1.02875e-14 -2.98875e-14 0.434715 -6.86723e-17 2.41639e-16)
(-1.80502e-15 9.61907e-30 -6.01192e-31 60.0254 2.55347e-15 -4.53746e-17 0.434715 3.12674e-16 1.59926e-15)
(1.30877e-15 1.25972e-29 -7.42671e-31 55.2626 -7.96021e-15 -2.52544e-14 0.407002 -5.24835e-17 2.06915e-16)
(-5.23507e-15 -2.52832e-29 9.87626e-31 55.2626 -3.52144e-17 -3.46881e-17 0.407002 3.22953e-16 1.51849e-15)
(0 2.18057e-29 -9.7347e-31 51.0994 -7.24583e-15 -2.13891e-14 0.382633 -5.95618e-17 1.77621e-16)
(0 -2.18057e-29 9.7347e-31 51.0994 -3.36378e-16 -1.52426e-17 0.382633 3.25136e-16 1.44819e-15)
(-1.36993e-15 -6.00747e-30 1.41583e-31 47.4369 -8.3868e-15 -1.8147e-14 0.361075 -7.20427e-17 1.52799e-16)
(0 1.22818e-29 -3.83807e-31 47.4369 6.19654e-16 -1.26734e-17 0.361075 3.32915e-16 1.38672e-15)
(3.06092e-16 -3.00858e-29 1.27258e-30 44.1953 -9.10631e-15 -1.54142e-14 0.341897 -7.28367e-17 1.31615e-16)
(0 3.3291e-29 -1.32407e-30 44.1953 6.90113e-16 -1.34065e-17 0.341897 3.40673e-16 1.33275e-15)
(0 1.19323e-29 -7.45768e-31 41.3101 -7.46131e-15 -1.30944e-14 0.324745 -4.7409e-17 1.13481e-16)
(-5.69501e-15 -2.08815e-29 7.45768e-31 41.3101 9.55425e-16 -1.68595e-17 0.324745 3.45034e-16 1.28519e-15)
(1.44843e-15 1.73713e-29 -6.81545e-31 38.7286 -6.17414e-15 -1.11103e-14 0.309331 -5.37393e-17 9.77548e-17)
(0 -2.05822e-29 7.3508e-31 38.7286 8.06541e-16 -2.30647e-17 0.309331 3.55341e-16 1.24302e-15)
(-2.94364e-15 2.96102e-29 -1.19577e-30 36.4074 -6.56031e-15 -9.40167e-15 0.295415 -5.526e-17 8.40794e-17)
(0 -2.31854e-29 1.08682e-30 36.4074 7.74877e-16 -2.07246e-17 0.295415 3.65476e-16 1.20559e-15)
(6.09036e-15 -3.53498e-29 1.41596e-30 34.3108 -6.78623e-15 -7.92578e-15 0.282798 -5.9149e-17 7.20263e-17)
(1.03444e-14 3.1423e-29 -1.24978e-30 34.3108 1.65179e-15 -1.96975e-17 0.282798 3.70587e-16 1.17237e-15)
(0 -1.97099e-29 5.27943e-31 32.4091 -6.83268e-15 -6.64771e-15 0.271313 -5.76789e-17 6.14857e-17)
(6.06115e-15 2.25256e-29 -7.03924e-31 32.4091 2.40688e-15 -2.26683e-17 0.271313 3.7843e-16 1.14275e-15)
(1.53557e-15 5.10843e-30 -6.36692e-31 30.6773 -6.17413e-15 -5.52838e-15 0.26082 -4.93738e-17 5.21223e-17)
(0 -5.55068e-30 3.46917e-31 30.6773 2.47574e-15 -4.58059e-17 0.26082 3.90997e-16 1.11629e-15)
(-3.11001e-15 9.17324e-30 -1.1609e-31 29.0945 -5.49598e-15 -4.54136e-15 0.251199 -4.73457e-17 4.37268e-17)
(-1.244e-14 -2.73556e-30 0 29.0945 1.75732e-15 -6.6638e-17 0.251199 3.99365e-16 1.09246e-15)
(-3.09157e-15 1.67051e-29 -5.64555e-31 27.6429 -3.85337e-15 -3.66695e-15 0.242351 -2.12751e-17 3.61504e-17)
(-6.29464e-15 -8.08906e-30 1.68522e-31 27.6429 -2.69096e-16 -6.23278e-17 0.242351 4.05846e-16 1.07099e-15)
(-2.99231e-15 2.65771e-29 -8.30534e-31 26.3074 -1.74202e-15 -2.88805e-15 0.234187 -1.02043e-17 2.928e-17)
(-3.37413e-15 -2.65771e-29 3.78608e-30 26.3074 -2.22445e-15 0 0.234187 4.08031e-16 1.05181e-15)
(0 -2.35765e-29 8.1863e-31 25.075 -1.68386e-15 -2.19448e-15 0.226634 -2.08214e-17 2.29957e-17)
(6.43564e-15 2.35765e-29 -8.1863e-31 25.075 -1.98769e-15 -1.06488e-17 0.226634 4.07686e-16 1.03494e-15)
(-1.62561e-15 8.38576e-30 -6.19099e-32 23.9346 -2.78554e-15 -1.57334e-15 0.219627 -3.11958e-17 1.72974e-17)
(0 0 -1.61379e-31 23.9346 -1.09584e-15 -1.95004e-17 0.219627 4.05445e-16 1.01977e-15)
(-1.64175e-15 2.35841e-29 -6.99227e-31 22.8765 -2.59226e-15 -1.01128e-15 0.213111 -1.77483e-17 1.20027e-17)
(0 -2.03605e-29 6.36266e-31 22.8765 -1.19897e-15 -2.71537e-17 0.213111 4.10367e-16 1.00613e-15)
(-1.65738e-15 1.3259e-29 -3.77612e-31 21.8925 -1.58428e-15 -5.00423e-16 0.207036 -1.26224e-17 7.09358e-18)
(-6.62953e-15 -5.01717e-30 3.13573e-31 21.8925 -2.02108e-15 -3.28887e-17 0.207036 4.1755e-16 9.93958e-16)
(1.67254e-15 -8.16851e-30 3.7424e-31 20.9751 -1.84672e-15 -3.76957e-17 0.20136 -2.34157e-17 2.47791e-18)
(0 4.94526e-30 -3.09079e-31 20.9751 -1.58465e-15 -3.06176e-17 0.20136 4.19973e-16 9.83111e-16)
(1.68725e-15 -1.78435e-29 5.2225e-31 20.118 -3.51697e-15 3.80148e-16 0.196046 -4.6229e-17 5.76428e-18)
(0 1.46231e-29 -4.56973e-31 20.118 -4.34968e-16 -3.30063e-17 0.196046 4.19983e-16 9.73502e-16)
(-4.40625e-15 1.28313e-29 -3.65701e-31 19.3157 -4.26673e-15 7.59536e-16 0.19106 -3.92381e-17 9.48589e-18)
(0 -4.80452e-30 1.50141e-31 19.3157 5.34637e-16 -5.02636e-17 0.19106 4.19218e-16 9.64882e-16)
(-2.66594e-15 9.47132e-30 -4.43968e-31 18.563 -3.17752e-15 1.10733e-15 0.186373 -2.52739e-17 1.30568e-17)
(2.66594e-15 -1.89426e-29 5.91957e-31 18.563 1.26641e-15 -8.66743e-17 0.186373 4.33027e-16 9.57239e-16)
(-1.72899e-15 7.88956e-30 -3.57727e-31 17.8558 -3.54796e-15 1.42724e-15 0.18196 -4.80852e-17 1.64114e-17)
(6.91597e-15 0 1.45868e-31 17.8558 1.80697e-15 -1.02013e-16 0.18196 4.47671e-16 9.505e-16)
(2.59007e-15 -2.76053e-29 8.62666e-31 17.19 -5.35082e-15 1.71502e-15 0.177797 -6.40224e-17 1.95062e-17)
(4.37872e-15 2.76053e-29 -8.62666e-31 17.19 1.80268e-15 -1.08104e-16 0.177797 4.54754e-16 9.44628e-16)
(1.75508e-15 1.03809e-29 -4.99935e-31 16.5623 -5.51703e-15 1.97379e-15 0.173863 -5.30489e-17 2.2427e-17)
(-7.02032e-15 -2.26747e-29 7.08585e-31 16.5623 7.5199e-16 -1.2642e-16 0.173863 4.55715e-16 9.39322e-16)
(1.76766e-15 -1.21649e-29 4.86578e-31 15.9694 -5.01558e-15 2.21678e-15 0.170141 -5.50165e-17 2.53504e-17)
(0 8.93989e-30 -4.19057e-31 15.9694 3.9591e-16 -1.301e-16 0.170141 4.64942e-16 9.34471e-16)
(-1.77996e-15 3.22852e-30 2.0714e-31 15.4087 -4.35752e-15 2.43995e-15 0.166613 -4.01154e-17 2.79972e-17)
(0 4.40588e-30 -5.50735e-31 15.4087 2.20072e-17 -1.17559e-16 0.166613 4.70263e-16 9.30414e-16)
(-6.52758e-16 1.11298e-30 -3.38162e-31 14.8777 -3.59357e-15 2.64547e-15 0.163264 -3.95651e-17 3.06833e-17)
(7.16793e-15 0 1.3571e-31 14.8777 9.41294e-16 -9.6655e-17 0.163264 4.76801e-16 9.26861e-16)
(2.4097e-15 -8.56098e-30 2.67531e-31 14.3741 -4.90815e-15 2.83661e-15 0.160082 -7.10791e-17 3.31485e-17)
(7.21501e-15 8.56098e-30 -4.01296e-31 14.3741 1.71392e-15 -1.16026e-16 0.160082 4.95643e-16 9.24012e-16)
(-1.81528e-15 3.23204e-30 -2.02492e-31 13.8959 -5.30349e-15 3.01305e-15 0.157053 -4.98129e-17 3.56386e-17)
(0 4.21914e-30 -1.31848e-31 13.8959 -1.9126e-16 -1.20738e-16 0.157053 5.06044e-16 9.21445e-16)
(-1.82658e-15 -9.2539e-31 -7.15716e-32 13.4413 -4.36617e-15 3.18926e-15 0.154168 -5.12993e-17 3.82293e-17)
(0 8.31733e-30 -2.59917e-31 13.4413 4.93728e-18 -1.0246e-16 0.154168 5.12124e-16 9.19331e-16)
(2.30757e-15 -8.19813e-30 2.56191e-31 13.0086 -4.74507e-15 3.35749e-15 0.151415 -6.0238e-17 4.06635e-17)
(-2.30757e-15 8.19813e-30 -3.84287e-31 13.0086 2.09604e-15 -1.1232e-16 0.151415 5.29077e-16 9.17586e-16)
(-4.12302e-15 7.27778e-30 -7.36365e-32 12.5963 -4.5694e-15 3.52044e-15 0.148785 -4.85845e-17 4.32611e-17)
(0 4.04031e-30 -3.78779e-31 12.5963 9.82612e-16 -1.01951e-16 0.148785 5.47385e-16 9.16097e-16)
(-4.48379e-15 2.78768e-29 -9.95601e-31 12.203 -3.712e-15 3.67593e-15 0.146271 -4.11197e-17 4.5642e-17)
(-5.19492e-15 -2.38944e-29 8.71151e-31 12.203 -1.04007e-17 -6.96781e-17 0.146271 5.52489e-16 9.15162e-16)
(-1.86969e-15 -2.03071e-29 5.37305e-31 11.8274 -2.55183e-15 3.82172e-15 0.143864 -2.13393e-17 4.81308e-17)
(5.26898e-15 2.74773e-29 -7.35999e-31 11.8274 1.56919e-16 -6.53735e-17 0.143864 5.56391e-16 9.14847e-16)
(-2.17809e-15 1.93453e-29 -8.46358e-31 11.4685 -2.1582e-15 3.96628e-15 0.141557 -3.24561e-17 5.06031e-17)
(2.17809e-15 -1.93453e-29 3.50363e-30 11.4685 -1.5932e-15 0 0.141557 5.54836e-16 9.14773e-16)
(-1.89012e-15 1.4686e-29 -6.74585e-31 11.1252 -2.43356e-15 4.10043e-15 0.139345 -2.89678e-17 5.29527e-17)
(7.56047e-15 -1.14408e-29 5.95877e-31 11.1252 -1.18932e-15 -1.53741e-17 0.139345 5.58101e-16 9.15409e-16)
(3.80016e-15 -1.40135e-29 6.30087e-31 10.7964 -1.80597e-15 4.22711e-15 0.137221 -1.72124e-17 5.53545e-17)
(7.60033e-15 7.51791e-30 -4.69869e-31 10.7964 -4.9312e-16 -2.77827e-17 0.137221 5.70766e-16 9.16355e-16)
(2.08577e-15 -1.11152e-29 3.47351e-31 10.4814 -2.01996e-15 4.35021e-15 0.13518 -3.54185e-17 5.77263e-17)
(0 1.11152e-29 -4.63135e-31 10.4814 -1.77657e-15 -3.89912e-17 0.13518 5.72134e-16 9.17527e-16)
(1.3634e-16 3.2483e-30 3.09836e-32 10.1793 -1.93772e-15 4.46952e-15 0.133216 -1.55323e-17 6.0145e-17)
(-2.05588e-15 3.65198e-30 -3.42373e-31 10.1793 -2.04908e-15 -5.57556e-17 0.133216 5.68575e-16 9.19116e-16)
(-3.85809e-15 3.92364e-44 -6.19445e-31 9.88927 4.87662e-28 4.58445e-15 0.131326 0 6.25141e-17)
(7.71618e-15 -2.51974e-29 6.74931e-31 9.88927 -2.47679e-15 -3.07024e-17 0.131326 5.71839e-16 9.21154e-16)
(-1.93841e-15 3.24862e-30 -8.63751e-32 9.61075 -5.72592e-16 4.69739e-15 0.129504 -1.69086e-17 6.49946e-17)
(0 3.54804e-30 -2.21753e-31 9.61075 -2.8911e-15 -2.81821e-17 0.129504 5.7156e-16 9.23371e-16)
(2.11013e-17 -2.48248e-31 -8.81121e-32 9.34304 -1.17055e-15 4.80601e-15 0.127747 -1.53114e-17 6.7358e-17)
(5.82182e-15 6.99438e-30 -4.37149e-31 9.34304 -1.97994e-15 -3.24199e-17 0.127747 5.69136e-16 9.2576e-16)
(-1.95674e-15 -3.91804e-30 -3.05349e-31 9.08554 -2.63612e-16 4.91128e-15 0.126052 -1.84106e-18 6.98607e-17)
(-1.94052e-15 -3.44706e-30 0 9.08554 -2.56658e-15 -4.75563e-17 0.126052 5.78996e-16 9.28409e-16)
(-3.93143e-15 2.00899e-29 -8.20515e-31 8.8377 -3.33024e-16 5.01997e-15 0.124414 -7.63937e-18 7.24339e-17)
(-7.86286e-15 -1.35906e-29 6.37061e-31 8.8377 -2.07206e-15 -8.19053e-17 0.124414 5.79123e-16 9.3163e-16)
(-3.94913e-15 -1.69462e-29 6.49935e-31 8.59901 -7.60486e-16 5.12727e-15 0.122831 -1.42757e-17 7.50149e-17)
(1.57965e-14 2.00938e-29 -8.37241e-31 8.59901 -8.43767e-16 -7.04659e-17 0.122831 5.84006e-16 9.34532e-16)
(-5.94991e-15 1.23314e-43 -1.52487e-30 8.369 8.94699e-28 5.22866e-15 0.1213 3.15544e-30 7.75352e-17)
(-9.79149e-15 -2.64077e-29 1.23786e-30 8.369 -2.50079e-15 -6.56064e-17 0.1213 5.81295e-16 9.37888e-16)
(-3.82357e-15 -1.95275e-29 1.12244e-30 8.14721 1.26655e-15 5.33493e-15 0.119818 -1.4318e-17 8.03801e-17)
(7.9677e-15 2.60292e-29 -1.22012e-30 8.14721 -2.9254e-15 -6.74145e-17 0.119818 5.69682e-16 9.41281e-16)
(2.00044e-15 -9.65948e-30 5.00756e-31 7.93324 8.61535e-16 5.43985e-15 0.118382 -2.32318e-17 8.29799e-17)
(0 6.41404e-30 -4.00877e-31 7.93324 -2.91396e-15 -5.69459e-17 0.118382 5.73435e-16 9.44929e-16)
(0 -2.21274e-29 9.87829e-31 7.72669 2.75305e-16 5.53581e-15 0.11699 -2.48765e-18 8.56793e-17)
(8.03538e-15 2.21274e-29 -9.87829e-31 7.72669 -3.20134e-15 -6.12264e-17 0.11699 5.71493e-16 9.48941e-16)
(1.75401e-15 -1.15077e-29 5.84203e-31 7.52721 7.66688e-16 5.62123e-15 0.115639 -5.92389e-18 8.807e-17)
(8.0686e-15 3.11575e-30 -5.84203e-31 7.52721 -3.12649e-15 -3.19824e-17 0.115639 5.64769e-16 9.52784e-16)
(-5.18661e-15 6.14218e-30 -9.59716e-31 7.33445 2.59333e-15 5.70673e-15 0.114329 -2.51305e-17 9.08895e-17)
(8.10143e-15 0 5.7583e-31 7.33445 -3.59431e-15 -2.31091e-17 0.114329 5.60007e-16 9.56683e-16)
(0 2.42166e-29 -1.13515e-30 7.1481 2.60742e-15 5.80236e-15 0.113056 -5.64111e-17 9.3714e-17)
(0 -2.42166e-29 1.13515e-30 7.1481 -4.07128e-15 -5.12143e-17 0.113056 5.52575e-16 9.60817e-16)
(-4.08297e-15 3.49502e-30 -2.26249e-31 6.96787 1.28481e-15 5.89134e-15 0.111819 -2.63181e-17 9.64446e-17)
(0 2.98369e-30 0 6.96787 -4.0661e-15 -8.10271e-17 0.111819 5.38157e-16 9.65137e-16)
(0 -2.53505e-29 1.28665e-30 6.79347 1.8406e-15 5.97954e-15 0.110616 -1.5067e-17 9.93682e-17)
(8.19764e-15 2.35274e-29 -1.28665e-30 6.79347 -2.73446e-15 -6.76288e-17 0.110616 5.25725e-16 9.69473e-16)
(0 5.79755e-30 -7.24693e-31 6.62465 2.70457e-15 6.08039e-15 0.109445 -4.71934e-17 1.02644e-16)
(8.22899e-15 -2.89877e-30 3.62347e-31 6.62465 -1.79287e-15 -7.16713e-17 0.109445 5.23636e-16 9.74208e-16)
(-2.065e-15 3.2305e-30 -3.00572e-31 6.46115 2.51461e-15 6.18085e-15 0.108305 -4.26188e-17 1.05689e-16)
(0 5.71445e-30 0 6.46115 -3.43525e-15 -1.05671e-16 0.108305 5.22234e-16 9.78715e-16)
(2.07267e-15 -4.12347e-31 -5.23106e-32 6.30275 2.30986e-15 6.27423e-15 0.107195 -4.21269e-17 1.08867e-16)
(0 0 0 6.30275 -4.76676e-15 -8.55905e-17 0.107195 5.06854e-16 9.82736e-16)
(3.1254e-15 -8.32773e-30 6.93978e-31 6.14922 2.43301e-15 6.36129e-15 0.106114 -3.68154e-17 1.11827e-16)
(-3.1254e-15 8.32773e-30 -6.93978e-31 6.14922 -4.6868e-15 -8.42086e-17 0.106114 4.98468e-16 9.87046e-16)
(3.0806e-15 -8.20838e-30 5.13023e-31 6.00037 1.67552e-15 6.4434e-15 0.105059 -4.76643e-17 1.14967e-16)
(0 8.20838e-30 -5.13023e-31 6.00037 -4.70437e-15 -8.27127e-17 0.105059 4.87392e-16 9.91559e-16)
(-1.15395e-15 1.06322e-30 -9.01594e-32 5.85599 9.31946e-16 6.52675e-15 0.104029 -1.10405e-17 1.18101e-16)
(0 5.39382e-30 -5.05671e-31 5.85599 -3.20344e-15 -9.20189e-17 0.104029 4.76519e-16 9.95893e-16)
(-2.10256e-15 1.11986e-29 -6.33467e-31 5.71591 2.46426e-15 5.88564e-15 0.103025 -2.23172e-17 9.49418e-17)
(0 -7.97477e-30 4.98423e-31 5.71591 -3.1946e-15 -1.28633e-16 0.103025 4.76915e-16 9.99328e-16)
(2.10984e-15 -3.21128e-30 1.38145e-31 5.57995 4.22109e-15 4.87206e-15 0.102044 -9.0325e-17 8.40383e-17)
(-1.13894e-14 0 0 5.57995 -6.63261e-15 -1.13905e-16 0.102044 4.62407e-16 1.00287e-15)
(2.90775e-15 -1.03304e-29 3.22825e-31 5.44794 2.87278e-15 4.63327e-15 0.101085 -6.46239e-17 8.87548e-17)
(-8.46822e-15 1.03304e-29 -3.22825e-31 5.44794 -6.57714e-15 -1.09768e-16 0.101085 4.25342e-16 1.00678e-15)
(-2.1242e-15 1.33963e-29 -1.09433e-30 5.31974 3.24698e-15 4.76012e-15 0.100148 -4.23316e-17 9.13333e-17)
(1.69936e-14 -5.09117e-30 9.54595e-31 5.31974 -3.74682e-15 -1.05476e-16 0.100148 4.11981e-16 1.01061e-15)
(-6.93722e-16 1.68663e-29 -4.86209e-31 5.19519 4.98106e-15 4.77246e-15 0.0992311 -8.07752e-17 9.18317e-17)
(1.13501e-14 -2.5091e-29 1.25455e-30 5.19519 -5.72059e-15 -9.83063e-17 0.0992311 4.15707e-16 1.01435e-15)
(0 0 0 5.07415 4.90759e-15 4.83743e-15 0.0983343 -1.10608e-16 9.65569e-17)
(0 4.94628e-30 -3.09143e-31 5.07415 -5.63119e-15 -1.12764e-16 0.0983343 3.71889e-16 1.01713e-15)
(-4.88983e-15 -1.63015e-29 1.07538e-30 4.9565 2.4276e-15 4.8691e-15 0.0974564 -8.02598e-17 9.57819e-17)
(8.58093e-15 2.43769e-29 -1.52356e-30 4.9565 -2.17599e-15 -1.9009e-16 0.0974564 3.65288e-16 1.01954e-15)
(-2.15211e-15 8.01463e-30 -4.44919e-31 4.8421 7.13471e-16 4.83969e-15 0.0965967 -1.51679e-17 9.81981e-17)
(-8.60845e-15 0 3.00344e-31 4.8421 -2.42242e-15 -2.68476e-16 0.0965967 3.64598e-16 1.02103e-15)
(2.15893e-15 -7.946e-30 7.37955e-31 4.73084 7.16758e-16 4.872e-15 0.0957545 -1.34136e-17 9.99113e-17)
(8.63573e-15 4.73664e-30 -5.9208e-31 4.73084 -1.43492e-15 -2.44266e-16 0.0957545 3.56908e-16 1.02185e-15)
(-2.16569e-15 2.65539e-29 -1.60573e-30 4.6226 7.67262e-16 4.97175e-15 0.094929 -1.57469e-17 1.05219e-16)
(8.66277e-15 -2.33437e-29 1.45898e-30 4.6226 -3.21226e-16 -2.19649e-16 0.094929 3.90344e-16 1.02207e-15)
(-2.17239e-15 3.21142e-30 -4.35828e-31 4.51728 1.4821e-15 5.08052e-15 0.0941196 -1.5905e-17 1.07423e-16)
(0 0 2.87615e-31 4.51728 -2.41986e-15 -2.43731e-16 0.0941196 4.01718e-16 1.02181e-15)
(-2.17903e-15 -1.33036e-30 -1.49514e-31 4.41478 2.54354e-15 5.17458e-15 0.0933257 -4.63427e-17 1.12324e-16)
(0 9.07175e-30 -2.83492e-31 4.41478 -3.0106e-15 -2.40814e-16 0.0933257 3.99302e-16 1.02013e-15)
(-2.18562e-15 -1.0211e-29 9.65991e-31 4.31498 3.23311e-15 5.18484e-15 0.0925467 -6.17673e-17 1.11015e-16)
(8.74247e-15 1.78835e-29 -1.39715e-30 4.31498 -1.97359e-15 -2.15948e-16 0.0925467 4.00128e-16 1.01872e-15)
(2.19214e-15 -7.60408e-30 1.2548e-30 4.21781 3.42913e-15 5.1579e-15 0.0917819 -7.7621e-17 1.14428e-16)
(0 4.40679e-30 -1.1017e-30 4.21781 -2.18437e-15 -2.34335e-16 0.0917819 3.94685e-16 1.01646e-15)
(0 -4.34363e-30 5.42953e-31 4.12317 2.48656e-15 5.26659e-15 0.0910309 -7.22056e-17 1.19122e-16)
(2.44524e-15 4.34363e-30 -8.1443e-31 4.12317 -3.43794e-15 -2.74772e-16 0.0910309 3.86138e-16 1.01232e-15)
(-2.20504e-15 -1.08333e-30 3.78447e-31 4.03098 2.43948e-15 5.30609e-15 0.0902932 -3.77981e-17 1.1957e-16)
(0 8.56274e-30 -1.07034e-30 4.03098 -4.11544e-15 -2.74811e-16 0.0902932 3.63555e-16 1.00793e-15)
(0 -2.95401e-29 2.11e-30 3.94116 4.0707e-15 5.37166e-15 0.0895682 -7.21878e-17 1.25626e-16)
(1.76912e-14 3.37601e-29 -2.37375e-30 3.94116 -3.11068e-15 -2.17468e-16 0.0895682 3.42405e-16 1.00425e-15)
(-2.3416e-15 0 -2.5997e-31 3.85362 4.21955e-15 5.55042e-15 0.0888556 -1.13892e-16 1.3141e-16)
(8.87086e-15 8.31905e-30 -5.19941e-31 3.85362 -2.89198e-15 -1.92021e-16 0.0888556 3.49763e-16 1.00027e-15)
(-4.53202e-15 2.77835e-29 -1.70011e-30 3.76829 2.61247e-15 5.47002e-15 0.0881547 -8.12444e-17 1.25502e-16)
(-8.89592e-15 -2.04995e-29 1.28122e-30 3.76829 -3.65413e-15 -2.48083e-16 0.0881547 3.40979e-16 9.94379e-16)
(4.47714e-17 1.53117e-29 -1.42715e-30 3.68511 1.08367e-15 5.39139e-15 0.0874653 -4.11869e-17 1.31485e-16)
(-1.11957e-14 -1.21234e-29 1.01029e-30 3.68511 -3.02688e-15 -3.04946e-16 0.0874653 3.27625e-16 9.85766e-16)
(0 5.53929e-31 -4.97903e-31 3.604 8.46745e-16 5.51998e-15 0.086787 -1.02352e-17 1.3544e-16)
(-2.24236e-15 0 0 3.604 -1.95536e-15 -2.69786e-16 0.086787 3.3543e-16 9.76525e-16)
(0 7.85227e-30 -7.3615e-31 3.52491 2.96069e-15 5.77553e-15 0.0861192 -3.81282e-17 1.47963e-16)
(6.75966e-15 -3.92614e-30 2.45383e-31 3.52491 -2.76721e-15 -2.09565e-16 0.0861192 3.33382e-16 9.68261e-16)
(-2.10854e-15 2.3919e-29 -2.48902e-30 3.44776 4.46017e-15 5.79565e-15 0.0854618 -1.07607e-16 1.40416e-16)
(0 -2.32192e-29 2.1768e-30 3.44776 -4.83786e-15 -2.00373e-16 0.0854618 3.04927e-16 9.59113e-16)
(-2.14732e-15 -3.43296e-29 3.0992e-30 3.37249 3.74482e-15 5.66637e-15 0.0848142 -1.14413e-16 1.45723e-16)
(2.01838e-14 3.43296e-29 -5.06716e-30 3.37249 -4.34565e-15 -1.03109e-16 0.0848142 2.58713e-16 9.49816e-16)
(2.11654e-15 -3.75973e-30 4.69966e-31 3.29906 2.76757e-15 5.91212e-15 0.0841762 -7.43779e-17 1.5721e-16)
(1.80842e-14 3.75973e-30 -7.04949e-31 3.29906 -4.67382e-15 -5.76534e-17 0.0841762 2.5603e-16 9.4014e-16)
(-4.53292e-15 1.00336e-29 -3.56896e-31 3.2274 2.95801e-15 6.07175e-15 0.0835475 -6.73407e-17 1.58348e-16)
(0 -3.70584e-30 0 3.2274 -5.94195e-15 -9.80636e-17 0.0835475 2.44266e-16 9.29983e-16)
(-2.27234e-15 6.81131e-30 -1.81498e-31 3.15746 4.74588e-15 6.0765e-15 0.0829278 -8.6526e-17 1.62068e-16)
(1.81787e-14 0 -4.56591e-31 3.15746 -5.42101e-15 -8.49807e-17 0.0829278 2.1291e-16 9.18681e-16)
(2.51349e-16 -1.39437e-29 1.08454e-30 3.0892 6.03453e-15 6.13899e-15 0.0823167 -1.64266e-16 1.66353e-16)
(2.02683e-15 1.08011e-29 -9.00094e-31 3.0892 -7.19516e-15 -5.67804e-17 0.0823167 1.9436e-16 9.07332e-16)
(-2.28398e-15 6.68711e-30 -1.87294e-31 3.02255 5.7613e-15 6.21982e-15 0.081714 -1.58495e-16 1.71234e-16)
(0 0 -8.87193e-31 3.02255 -8.16303e-15 -7.7861e-17 0.081714 1.41397e-16 8.96486e-16)
(-6.22802e-15 6.63247e-30 -1.06467e-30 2.95749 6.83567e-15 6.34183e-15 0.0811193 -1.54141e-16 1.77993e-16)
(1.30972e-14 -3.49791e-30 1.08431e-32 2.95749 -6.57901e-15 8.92399e-30 0.0811193 9.08908e-17 8.8466e-16)
(-4.23636e-15 1.34594e-29 -1.91791e-30 2.89395 7.11597e-15 6.41765e-15 0.0805326 -2.22722e-16 1.80516e-16)
(9.18176e-15 -6.89555e-30 8.61944e-31 2.89395 -6.48729e-15 -1.05446e-17 0.0805326 5.86089e-17 8.72723e-16)
(-4.60221e-15 2.83479e-30 2.97312e-32 2.8319 5.76446e-15 6.43699e-15 0.0799534 -1.74428e-16 1.84311e-16)
(0 3.39836e-30 -4.24795e-31 2.8319 -6.72646e-15 -2.5245e-17 0.0799534 8.81532e-18 8.60692e-16)
(-2.30673e-15 6.46525e-30 -1.03898e-30 2.77129 5.29462e-15 6.4324e-15 0.0793816 -1.52096e-16 1.85538e-16)
(-1.88569e-15 0 4.18707e-31 2.77129 -7.25952e-15 -7.01589e-17 0.0793816 -3.42289e-17 8.4687e-16)
(1.85866e-15 -9.90493e-30 8.25411e-31 2.71209 6.66967e-15 6.49493e-15 0.078817 -1.52327e-16 1.93384e-16)
(-9.24928e-15 9.90493e-30 -8.25411e-31 2.71209 -7.72296e-15 -9.37975e-17 0.078817 -6.75902e-17 8.31792e-16)
(2.31787e-15 -1.61132e-29 1.42845e-30 2.65425 7.85473e-15 6.68874e-15 0.0782593 -2.37345e-16 2.02527e-16)
(9.27147e-15 1.30173e-29 -1.22037e-30 2.65425 -7.78495e-15 -4.93746e-17 0.0782593 -9.40134e-17 8.15524e-16)
(2.32337e-15 -9.50368e-30 6.13959e-31 2.59774 9.00634e-15 6.7473e-15 0.0777083 -2.27431e-16 2.0259e-16)
(-9.2935e-15 6.41536e-30 -4.0096e-31 2.59774 -8.10703e-15 -6.43702e-17 0.0777083 -1.60516e-16 7.994e-16)
(-2.32884e-15 1.571e-29 -1.79702e-30 2.54252 6.51704e-15 6.86769e-15 0.0771638 -3.13944e-16 2.15846e-16)
(9.31537e-15 -9.48512e-30 7.90426e-31 2.54252 -5.97248e-15 -1.3142e-16 0.0771638 -2.05149e-16 7.8138e-16)
(0 1.24656e-29 -1.16865e-30 2.48856 5.00488e-15 7.02317e-15 0.0766256 -8.13577e-17 2.18203e-16)
(-3.50874e-15 -9.34917e-30 7.79098e-31 2.48856 -4.26618e-15 -1.99363e-16 0.0766256 -2.06469e-16 7.62578e-16)
(0 9.21517e-30 -1.53586e-30 2.43583 7.98605e-15 6.898e-15 0.0760936 -2.2901e-16 2.14264e-16)
(5.90019e-15 0 3.83966e-31 2.43583 -4.81761e-15 -2.1905e-16 0.0760936 -2.41466e-16 7.42682e-16)
(2.34501e-15 -1.21296e-29 1.36502e-30 2.38428 8.51152e-15 6.91728e-15 0.0755676 -2.72015e-16 2.2583e-16)
(0 9.0831e-30 -1.13539e-30 2.38428 -7.82672e-15 -1.84356e-16 0.0755676 -2.64342e-16 7.21283e-16)
(3.36003e-15 8.95291e-30 -1.11911e-30 2.3339 9.35407e-15 7.20091e-15 0.0750473 -2.69387e-16 2.38977e-16)
(-1.27614e-14 -5.96861e-30 3.73038e-31 2.3339 -1.05226e-14 -1.38194e-16 0.0750473 -3.40129e-16 6.9684e-16)
(-3.31187e-15 0 -1.10307e-30 2.28464 1.09e-14 7.02026e-15 0.0745327 -3.34753e-16 2.20532e-16)
(0 5.88306e-30 0 2.28464 -8.14863e-15 -1.132e-16 0.0745327 -4.15005e-16 6.72035e-16)
(0 5.79874e-30 -1.44969e-30 2.23648 9.73978e-15 6.93433e-15 0.0740236 -3.79234e-16 2.40228e-16)
(-3.2644e-15 -2.89937e-30 1.08726e-30 2.23648 -5.78296e-15 -1.69755e-16 0.0740236 -4.39293e-16 6.45473e-16)
(2.36606e-15 1.69963e-29 -2.96776e-30 2.1894 8.56456e-15 7.32985e-15 0.0735198 -2.66928e-16 2.53841e-16)
(0 -2.00047e-29 3.21504e-30 2.1894 -6.95408e-15 -1.83285e-16 0.0735198 -4.58171e-16 6.1513e-16)
(2.37123e-15 5.45961e-30 -8.02945e-31 2.14336 9.8137e-15 7.41028e-15 0.0730212 -3.10567e-16 2.52805e-16)
(0 -5.63371e-30 7.04214e-31 2.14336 -7.8497e-15 -1.20435e-16 0.0730212 -5.30479e-16 5.85906e-16)
(-4.75273e-15 5.943e-30 -5.18336e-31 2.09833 8.67469e-15 7.30641e-15 0.0725277 -3.60774e-16 2.54019e-16)
(9.50546e-15 0 0 2.09833 -6.56745e-15 -8.39821e-17 0.0725277 -6.14781e-16 5.57078e-16)
(-2.38146e-15 2.97972e-30 -9.47971e-31 2.0543 5.40065e-15 7.36937e-15 0.0720391 -2.40082e-16 2.64674e-16)
(0 5.47338e-30 0 2.0543 -4.33197e-15 -1.23491e-16 0.0720391 -6.53218e-16 5.25576e-16)
(0 8.0924e-30 -1.34873e-30 2.01124 3.86087e-15 7.65881e-15 0.0715553 -1.39258e-16 2.82275e-16)
(0 -8.0924e-30 1.34873e-30 2.01124 -2.34663e-15 -3.11308e-16 0.0715553 -6.65933e-16 4.9028e-16)
(0 7.97641e-30 -2.6588e-30 1.96912 4.79837e-15 7.88853e-15 0.0710761 -1.36378e-16 2.89188e-16)
(0 -5.31761e-30 1.9941e-30 1.96912 -3.70112e-15 -3.21595e-16 0.0710761 -6.52746e-16 4.53087e-16)
(-5.90128e-15 1.04828e-29 -2.6207e-30 1.92792 6.36598e-15 7.73659e-15 0.0706015 -2.11741e-16 2.79297e-16)
(0 0 1.31035e-30 1.92792 -4.59349e-15 -2.33849e-16 0.0706015 -6.95543e-16 4.1683e-16)
(0 1.03325e-29 -2.58314e-30 1.88761 6.77003e-15 7.71542e-15 0.0701313 -2.56413e-16 2.96069e-16)
(1.92122e-14 -5.16627e-30 1.93735e-30 1.88761 -3.04112e-15 -2.21548e-16 0.0701313 -7.30401e-16 3.76798e-16)
(-4.81291e-15 5.92121e-30 -5.8985e-31 1.84818 6.35426e-15 7.71723e-15 0.0696655 -2.48287e-16 2.87616e-16)
(9.62582e-15 0 0 1.84818 -4.75058e-15 -1.16254e-16 0.0696655 -7.18715e-16 3.37915e-16)
(2.41135e-15 -1.29961e-29 2.18009e-30 1.80961 6.1259e-15 7.82816e-15 0.0692039 -2.32246e-16 3.13317e-16)
(2.82558e-15 1.00385e-29 3.50325e-46 1.80961 -6.92463e-15 0 0.0692039 -7.53549e-16 2.9758e-16)
(0 4.9473e-30 -1.23683e-30 1.77187 6.22832e-15 8.09508e-15 0.0687464 -2.37908e-16 3.16974e-16)
(-9.66487e-15 0 0 1.77187 -4.66429e-15 -4.84044e-17 0.0687464 -8.331e-16 2.58114e-16)
(-5.16622e-15 -1.16875e-29 3.34232e-30 1.73494 6.15423e-15 7.84935e-15 0.068293 -2.47082e-16 3.02944e-16)
(9.68421e-15 1.46292e-29 0 1.73494 -2.44235e-15 1.2326e-32 0.068293 -8.9424e-16 2.16497e-16)
(2.70582e-15 9.61301e-30 -1.80244e-30 1.69881 6.05161e-15 7.88026e-15 0.0678435 -2.38982e-16 3.28755e-16)
(-2.70582e-15 -4.8065e-30 6.00813e-31 1.69881 -3.80431e-15 5.77971e-17 0.0678435 -9.38492e-16 1.79238e-16)
(0 -1.42128e-29 1.1844e-30 1.66345 5.78398e-15 8.1943e-15 0.0673979 -2.46035e-16 3.37536e-16)
(0 9.47523e-30 -1.7766e-30 1.66345 -5.88164e-15 -2.40043e-18 0.0673979 -9.91615e-16 1.40739e-16)
(-2.43536e-15 2.92022e-30 -3.33648e-31 1.62885 5.56486e-15 8.14375e-15 0.066956 -2.24065e-16 3.34185e-16)
(0 0 1.92439e-46 1.62885 -5.83584e-15 6.93335e-31 0.066956 -1.07084e-15 1.02863e-16)
(-2.289e-15 -2.17958e-29 5.07678e-30 1.59498 6.2596e-15 8.25373e-15 0.0665177 -2.35037e-16 3.56695e-16)
(1.95205e-14 2.30139e-29 -5.75348e-30 1.59498 -4.75433e-15 1.0581e-16 0.0665177 -1.1214e-15 6.55864e-17)
(2.554e-15 9.07362e-30 -1.7013e-30 1.56184 8.59796e-15 8.36216e-15 0.0660831 -2.89192e-16 3.53247e-16)
(-2.554e-15 -4.53681e-30 5.67102e-31 1.56184 -5.5762e-15 7.95376e-17 0.0660831 -1.16234e-15 2.7683e-17)
(0 8.94358e-30 -2.23589e-30 1.52941 9.59648e-15 8.11201e-15 0.065652 -4.41897e-16 3.4544e-16)
(0 -4.47179e-30 1.11795e-30 1.52941 -5.34049e-15 -1.00186e-16 0.065652 -1.24765e-15 -8.73812e-18)
(-7.36201e-15 -1.34746e-29 4.97935e-30 1.49766 7.30597e-15 8.25726e-15 0.0652244 -3.84298e-16 3.76381e-16)
(1.9632e-14 2.64462e-29 -1.4013e-45 1.49766 -2.88344e-15 -5.62829e-32 0.0652244 -1.29716e-15 -9.57948e-46)
(2.44575e-15 -2.17226e-29 5.97372e-30 1.46658 6.3184e-15 8.61346e-15 0.0648001 -2.53221e-16 3.87369e-16)
(1.7223e-14 2.17226e-29 -6.07453e-30 1.46658 -4.50433e-15 5.09069e-17 0.0648001 -1.31025e-15 -6.16396e-18)
(-2.46314e-15 1.99784e-29 -2.51821e-30 1.43617 7.5313e-15 8.6433e-15 0.0643792 -3.0736e-16 3.9011e-16)
(0 -1.28468e-29 1.07056e-30 1.43617 -8.88606e-15 -1.96137e-17 0.0643792 -1.4247e-15 -2.52256e-17)
(2.46767e-15 -2.8152e-29 5.13408e-30 1.40639 8.11779e-15 8.64192e-15 0.0639615 -3.70531e-16 3.98589e-16)
(1.97413e-14 2.53253e-29 -4.74849e-30 1.40639 -8.81069e-15 1.71466e-16 0.0639615 -1.59987e-15 -1.81644e-16)