/*--------------------------------*- C++ -*----------------------------------*\
| =========                 |                                                 |
| \\      /  F ield         | OpenFOAM: The Open Source CFD Toolbox           |
|  \\    /   O peration     | Version:  2012                                  |
|   \\  /    A nd           | Website:  www.openfoam.com                      |
|    \\/     M anipulation  |                                                 |
\*---------------------------------------------------------------------------*/
FoamFile
{
    version     2.0;
    format      ascii;
    class       volScalarField;
    location    "11000";
    object      p;
}
// * * * * * * * * * * * * * * * * * * * * * * * * * * * * * * * * * * * * * //

dimensions      [0 2 -2 0 0 0 0];


internalField   nonuniform List<scalar> 
2560
(
1.02773e-15
-8.75781e-15
2.22572e-15
-8.75704e-15
2.14483e-15
-8.75638e-15
1.68811e-15
-8.75548e-15
1.29158e-15
-8.75436e-15
9.59878e-16
-8.75298e-15
6.4837e-16
-8.75133e-15
3.45015e-16
-8.74937e-15
4.82587e-17
-8.74716e-15
-2.43038e-16
-8.74468e-15
-5.29955e-16
-8.74197e-15
-8.13014e-16
-8.73903e-15
-1.09236e-15
-8.73589e-15
-1.36805e-15
-8.73256e-15
-1.64021e-15
-8.7291e-15
-1.90891e-15
-8.72545e-15
-2.17417e-15
-8.72168e-15
-2.43605e-15
-8.71781e-15
-2.69456e-15
-8.71391e-15
-2.94962e-15
-8.70996e-15
-3.20139e-15
-8.70593e-15
-3.44997e-15
-8.70184e-15
-3.6953e-15
-8.69774e-15
-3.93731e-15
-8.69369e-15
-4.17622e-15
-8.68969e-15
-4.41213e-15
-8.6858e-15
-4.64512e-15
-8.68184e-15
-4.87498e-15
-8.678e-15
-5.10196e-15
-8.67408e-15
-5.32615e-15
-8.67028e-15
-5.54758e-15
-8.6667e-15
-5.76643e-15
-8.66343e-15
-5.98266e-15
-8.66035e-15
-6.19653e-15
-8.65736e-15
-6.40793e-15
-8.65452e-15
-6.6171e-15
-8.65199e-15
-6.8242e-15
-8.64986e-15
-7.02924e-15
-8.648e-15
-7.23247e-15
-8.64638e-15
-7.43408e-15
-8.64517e-15
-7.63423e-15
-8.64427e-15
-7.83303e-15
-8.64368e-15
-8.03051e-15
-8.64354e-15
-8.22709e-15
-8.64373e-15
-8.42281e-15
-8.64455e-15
-8.61793e-15
-8.64582e-15
-8.81278e-15
-8.64753e-15
-9.00725e-15
-8.64944e-15
-9.20182e-15
-8.65197e-15
-9.39659e-15
-8.65502e-15
-9.59134e-15
-8.65855e-15
-9.78628e-15
-8.66292e-15
-9.98184e-15
-8.66833e-15
-1.01778e-14
-8.6748e-15
-1.03745e-14
-8.68208e-15
-1.05721e-14
-8.69019e-15
-1.07705e-14
-8.69922e-15
-1.09697e-14
-8.70956e-15
-1.11701e-14
-8.72109e-15
-1.13722e-14
-8.73332e-15
-1.15755e-14
-8.74663e-15
-1.17798e-14
-8.76115e-15
-1.19853e-14
-8.77753e-15
-1.21921e-14
-8.79542e-15
-1.24003e-14
-8.81443e-15
-1.26105e-14
-8.8351e-15
-1.28222e-14
-8.8569e-15
-1.30355e-14
-8.88012e-15
-1.32501e-14
-8.90532e-15
-1.34653e-14
-8.93224e-15
-1.36826e-14
-8.9609e-15
-1.3901e-14
-8.9913e-15
-1.41203e-14
-9.02437e-15
-1.43402e-14
-9.05952e-15
-1.45607e-14
-9.09645e-15
-1.47819e-14
-9.13581e-15
-1.50043e-14
-9.1776e-15
-1.52263e-14
-9.22251e-15
-1.54489e-14
-9.26955e-15
-1.56707e-14
-9.31875e-15
-1.58944e-14
-9.36906e-15
-1.61181e-14
-9.42323e-15
-1.63398e-14
-9.48199e-15
-1.6562e-14
-9.5422e-15
-1.67851e-14
-9.60274e-15
-1.70076e-14
-9.66647e-15
-1.72299e-14
-9.73265e-15
-1.74519e-14
-9.80315e-15
-1.76726e-14
-9.87608e-15
-1.78933e-14
-9.94989e-15
-1.81134e-14
-1.00272e-14
-1.83328e-14
-1.01077e-14
-1.85507e-14
-1.01913e-14
-1.87655e-14
-1.02788e-14
-1.89771e-14
-1.0371e-14
-1.9188e-14
-1.0468e-14
-1.9394e-14
-1.05664e-14
-1.95967e-14
-1.06669e-14
-1.97986e-14
-1.07721e-14
-1.99963e-14
-1.08836e-14
-2.01888e-14
-1.0999e-14
-2.0378e-14
-1.11191e-14
-2.05664e-14
-1.12438e-14
-2.07513e-14
-1.13695e-14
-2.09329e-14
-1.14971e-14
-2.11119e-14
-1.16293e-14
-2.12875e-14
-1.1764e-14
-2.14616e-14
-1.19014e-14
-2.16332e-14
-1.20422e-14
-2.18024e-14
-1.21846e-14
-2.19683e-14
-1.23283e-14
-2.21318e-14
-1.24734e-14
-2.22941e-14
-1.26227e-14
-2.24522e-14
-1.27721e-14
-2.26081e-14
-1.29216e-14
-2.27619e-14
-1.3071e-14
-2.29117e-14
-1.32243e-14
-2.30575e-14
-1.33804e-14
-2.32024e-14
-1.3536e-14
-2.33445e-14
-1.36902e-14
-2.34808e-14
-1.38489e-14
-2.36196e-14
-1.4009e-14
-2.37548e-14
-1.41713e-14
-2.38843e-14
-1.43359e-14
-2.40115e-14
-1.45037e-14
-2.41375e-14
-1.46682e-14
-2.42645e-14
-1.48313e-14
-2.43852e-14
-1.49995e-14
-2.45018e-14
-1.51727e-14
-2.46231e-14
-1.53508e-14
-2.47428e-14
-1.55249e-14
-2.4861e-14
-1.56948e-14
-2.49755e-14
-1.58671e-14
-2.50866e-14
-1.60463e-14
-2.5201e-14
-1.62208e-14
-2.53145e-14
-1.63974e-14
-2.5425e-14
-1.65736e-14
-2.55394e-14
-1.67494e-14
-2.56464e-14
-1.69199e-14
-2.57532e-14
-1.70967e-14
-2.58646e-14
-1.72842e-14
-2.59737e-14
-1.74637e-14
-2.60854e-14
-1.76374e-14
-2.61906e-14
-1.78239e-14
-2.62964e-14
-1.80067e-14
-2.64031e-14
-1.81831e-14
-2.65133e-14
-1.83577e-14
-2.66176e-14
-1.85352e-14
-2.6721e-14
-1.87179e-14
-2.68238e-14
-1.89009e-14
-2.6926e-14
-1.90839e-14
-2.70231e-14
-1.92619e-14
-2.71177e-14
-1.94347e-14
-2.72125e-14
-1.96121e-14
-2.73199e-14
-1.97938e-14
-2.74255e-14
-1.99822e-14
-2.75296e-14
-2.01696e-14
-2.76322e-14
-2.03386e-14
-2.77288e-14
-2.05088e-14
-2.78319e-14
-2.069e-14
-2.79395e-14
-2.08746e-14
-2.80492e-14
-2.10573e-14
-2.81512e-14
-2.12354e-14
-2.82433e-14
-2.14164e-14
-2.83383e-14
-2.16051e-14
-2.84262e-14
-2.17912e-14
-2.85124e-14
-2.19847e-14
-2.85971e-14
-2.21754e-14
-2.86803e-14
-2.23681e-14
-2.87675e-14
-2.25577e-14
-2.88537e-14
-2.27389e-14
-2.8934e-14
-2.29216e-14
-2.90136e-14
-2.31109e-14
-2.91031e-14
-2.33016e-14
-2.91925e-14
-2.34882e-14
-2.9287e-14
-2.3681e-14
-2.93869e-14
-2.38746e-14
-2.9482e-14
-2.40689e-14
-2.95777e-14
-2.42533e-14
-2.96846e-14
-2.44277e-14
-2.97875e-14
-2.46126e-14
-2.98917e-14
-2.47973e-14
-3.00027e-14
-2.49818e-14
-3.01155e-14
-2.51604e-14
-3.02252e-14
-2.53382e-14
-3.03268e-14
-2.55253e-14
-3.04363e-14
-2.57163e-14
-3.05487e-14
-2.59163e-14
-3.06483e-14
-2.61145e-14
-3.0767e-14
-2.6295e-14
-3.08786e-14
-2.64787e-14
-3.0994e-14
-2.66703e-14
-3.11082e-14
-2.68697e-14
-3.12161e-14
-2.70505e-14
-3.13283e-14
-2.72228e-14
-3.14348e-14
-2.74337e-14
-3.15461e-14
-2.76358e-14
-3.16518e-14
-2.78078e-14
-3.17575e-14
-2.79917e-14
-3.18685e-14
-2.81923e-14
-3.19745e-14
-2.83781e-14
-3.2102e-14
-2.8554e-14
-3.22196e-14
-2.87407e-14
-3.23435e-14
-2.8917e-14
-3.24634e-14
-2.9114e-14
-3.25794e-14
-2.93001e-14
-3.27021e-14
-2.94856e-14
-3.28215e-14
-2.96807e-14
-3.2948e-14
-2.98747e-14
-3.30819e-14
-3.0057e-14
-3.32131e-14
-3.02378e-14
-3.33526e-14
-3.04479e-14
-3.34794e-14
-3.06665e-14
-3.3625e-14
-3.08624e-14
-3.37377e-14
-3.1056e-14
-3.388e-14
-3.12162e-14
-3.40109e-14
-3.14151e-14
-3.41514e-14
-3.16318e-14
-3.43016e-14
-3.18354e-14
-3.44516e-14
-3.20155e-14
-3.45917e-14
-3.22234e-14
-3.47221e-14
-3.24383e-14
-3.48634e-14
-3.26295e-14
-3.50055e-14
-3.28074e-14
-3.51387e-14
-3.30125e-14
-3.52733e-14
-3.32346e-14
-3.53989e-14
-3.34331e-14
-3.55255e-14
-3.36184e-14
-3.5653e-14
-3.37803e-14
-3.57718e-14
-3.39592e-14
-3.58816e-14
-3.41653e-14
-3.59818e-14
-3.43587e-14
-3.60518e-14
-3.44896e-14
-3.61212e-14
-3.46689e-14
-3.61989e-14
-3.48775e-14
-3.62835e-14
-3.50464e-14
-3.63542e-14
-3.52266e-14
-3.64496e-14
-3.53889e-14
-3.65393e-14
-3.55937e-14
-3.66218e-14
-3.57829e-14
-3.66958e-14
-3.59683e-14
-3.6789e-14
-3.61614e-14
-3.689e-14
-3.63442e-14
-3.70171e-14
-3.6479e-14
-3.71508e-14
-3.6615e-14
-3.72817e-14
-3.67228e-14
-3.74109e-14
-3.68597e-14
-3.75188e-14
-3.70252e-14
-3.76624e-14
-3.71818e-14
-3.77647e-14
-3.73491e-14
-3.78633e-14
-3.74902e-14
-3.79566e-14
-3.76064e-14
-3.8063e-14
-3.77358e-14
-3.81443e-14
-3.78597e-14
-3.8237e-14
-3.79982e-14
-3.83779e-14
-3.81709e-14
-3.84919e-14
-3.8304e-14
-3.86165e-14
-3.84172e-14
-3.87159e-14
-3.85107e-14
-3.88267e-14
-3.86212e-14
-3.89486e-14
-3.8712e-14
-3.9047e-14
-3.88549e-14
-3.91758e-14
-3.89961e-14
-3.92624e-14
-3.90996e-14
-3.93612e-14
-3.9166e-14
-3.9402e-14
-3.92662e-14
-3.9508e-14
-3.93846e-14
-3.95375e-14
-3.954e-14
-3.95744e-14
-3.96328e-14
-3.9669e-14
-3.97011e-14
-3.97703e-14
-3.97789e-14
-3.99148e-14
-3.99171e-14
-4.00516e-14
-4.00474e-14
-4.01304e-14
-4.01371e-14
-4.01683e-14
-4.02059e-14
-4.02494e-14
-4.02732e-14
-4.03407e-14
-4.0423e-14
-4.049e-14
-4.05425e-14
-4.05669e-14
-4.06158e-14
-4.06559e-14
-4.06276e-14
-4.06787e-14
-4.06563e-14
-4.07334e-14
-4.07507e-14
-4.0802e-14
-4.08638e-14
-4.08836e-14
-4.09352e-14
-4.09319e-14
-4.09661e-14
-4.09959e-14
-4.09569e-14
-4.10805e-14
-4.10448e-14
-4.1108e-14
-4.11683e-14
-4.11532e-14
-4.11336e-14
-4.11919e-14
-4.11519e-14
-4.11644e-14
-4.11617e-14
-4.11912e-14
-4.11663e-14
-4.11246e-14
-4.11656e-14
-4.11684e-14
-4.11376e-14
-4.12088e-14
-4.11371e-14
-4.11913e-14
-4.11298e-14
-4.11751e-14
-4.11446e-14
-4.12454e-14
-4.11548e-14
-4.12115e-14
-4.11254e-14
-4.12422e-14
-4.11686e-14
-4.12262e-14
-4.12018e-14
-4.12482e-14
-4.11754e-14
-4.12315e-14
-4.11675e-14
-4.1201e-14
-4.1153e-14
-4.12626e-14
-4.11619e-14
-4.11841e-14
-4.1135e-14
-4.11702e-14
-4.11319e-14
-4.1139e-14
-4.11004e-14
-4.10913e-14
-4.10396e-14
-4.10565e-14
-4.10241e-14
-4.10545e-14
-4.09784e-14
-4.10907e-14
-4.0972e-14
-4.10489e-14
-4.09479e-14
-4.09991e-14
-4.09339e-14
-4.10113e-14
-4.09339e-14
-4.09901e-14
-4.09461e-14
-4.09582e-14
-4.09534e-14
-4.09331e-14
-4.09379e-14
-4.09374e-14
-4.09486e-14
-4.09452e-14
-4.09398e-14
-1.52222e-14
-1.65847e-14
-1.52216e-14
-1.65845e-14
-1.52212e-14
-1.65844e-14
-1.52206e-14
-1.65843e-14
-1.52199e-14
-1.65842e-14
-1.5219e-14
-1.6584e-14
-1.52179e-14
-1.65839e-14
-1.52167e-14
-1.65836e-14
-1.52152e-14
-1.65834e-14
-1.52136e-14
-1.65831e-14
-1.52118e-14
-1.65828e-14
-1.52098e-14
-1.65825e-14
-1.52077e-14
-1.65822e-14
-1.52055e-14
-1.65817e-14
-1.52031e-14
-1.65812e-14
-1.52006e-14
-1.65807e-14
-1.5198e-14
-1.65801e-14
-1.51952e-14
-1.65796e-14
-1.51922e-14
-1.65791e-14
-1.51891e-14
-1.65786e-14
-1.5186e-14
-1.65781e-14
-1.51828e-14
-1.65774e-14
-1.51795e-14
-1.65766e-14
-1.51763e-14
-1.65758e-14
-1.51729e-14
-1.65752e-14
-1.51695e-14
-1.65745e-14
-1.51661e-14
-1.65737e-14
-1.51626e-14
-1.65728e-14
-1.51591e-14
-1.65718e-14
-1.51556e-14
-1.65708e-14
-1.5152e-14
-1.65699e-14
-1.51485e-14
-1.6569e-14
-1.51449e-14
-1.65678e-14
-1.51413e-14
-1.65665e-14
-1.51378e-14
-1.65652e-14
-1.51343e-14
-1.65639e-14
-1.51309e-14
-1.65625e-14
-1.51274e-14
-1.65611e-14
-1.5124e-14
-1.65598e-14
-1.51206e-14
-1.65584e-14
-1.51174e-14
-1.65569e-14
-1.51143e-14
-1.65553e-14
-1.51113e-14
-1.65536e-14
-1.51082e-14
-1.65521e-14
-1.51054e-14
-1.65505e-14
-1.51026e-14
-1.65489e-14
-1.51001e-14
-1.65472e-14
-1.50976e-14
-1.65453e-14
-1.50954e-14
-1.65436e-14
-1.50933e-14
-1.6542e-14
-1.50915e-14
-1.65403e-14
-1.50901e-14
-1.65384e-14
-1.50887e-14
-1.65365e-14
-1.50877e-14
-1.65347e-14
-1.5087e-14
-1.65328e-14
-1.50864e-14
-1.6531e-14
-1.50863e-14
-1.65293e-14
-1.50865e-14
-1.65274e-14
-1.50874e-14
-1.65252e-14
-1.50885e-14
-1.65235e-14
-1.50899e-14
-1.65216e-14
-1.50919e-14
-1.65196e-14
-1.50944e-14
-1.65171e-14
-1.50975e-14
-1.65148e-14
-1.51011e-14
-1.6512e-14
-1.51048e-14
-1.65092e-14
-1.51089e-14
-1.65069e-14
-1.5114e-14
-1.65038e-14
-1.51201e-14
-1.65007e-14
-1.51271e-14
-1.64976e-14
-1.5135e-14
-1.64942e-14
-1.51438e-14
-1.64902e-14
-1.51536e-14
-1.64859e-14
-1.51644e-14
-1.64809e-14
-1.51767e-14
-1.64757e-14
-1.51901e-14
-1.64711e-14
-1.52044e-14
-1.64665e-14
-1.52198e-14
-1.64617e-14
-1.52366e-14
-1.64575e-14
-1.52557e-14
-1.64536e-14
-1.52755e-14
-1.64495e-14
-1.52972e-14
-1.64455e-14
-1.53209e-14
-1.64415e-14
-1.53458e-14
-1.64372e-14
-1.53721e-14
-1.64329e-14
-1.54003e-14
-1.64291e-14
-1.543e-14
-1.64247e-14
-1.54604e-14
-1.64218e-14
-1.54928e-14
-1.64193e-14
-1.5527e-14
-1.64158e-14
-1.55608e-14
-1.64144e-14
-1.5597e-14
-1.64131e-14
-1.56346e-14
-1.64134e-14
-1.56738e-14
-1.64155e-14
-1.57154e-14
-1.6417e-14
-1.57585e-14
-1.64186e-14
-1.58031e-14
-1.64203e-14
-1.58476e-14
-1.64247e-14
-1.58928e-14
-1.64335e-14
-1.59412e-14
-1.64443e-14
-1.59902e-14
-1.64552e-14
-1.60417e-14
-1.64672e-14
-1.60928e-14
-1.64804e-14
-1.61446e-14
-1.64964e-14
-1.61996e-14
-1.65135e-14
-1.6256e-14
-1.65327e-14
-1.63177e-14
-1.65549e-14
-1.63808e-14
-1.65754e-14
-1.64434e-14
-1.66018e-14
-1.65066e-14
-1.66293e-14
-1.65711e-14
-1.6657e-14
-1.66389e-14
-1.66879e-14
-1.67062e-14
-1.67237e-14
-1.67738e-14
-1.67628e-14
-1.68437e-14
-1.6803e-14
-1.69139e-14
-1.68445e-14
-1.69893e-14
-1.6887e-14
-1.7065e-14
-1.69318e-14
-1.71439e-14
-1.69757e-14
-1.72251e-14
-1.70227e-14
-1.73064e-14
-1.70729e-14
-1.73899e-14
-1.71274e-14
-1.74745e-14
-1.7184e-14
-1.75602e-14
-1.72396e-14
-1.76459e-14
-1.72973e-14
-1.77336e-14
-1.73603e-14
-1.78277e-14
-1.74264e-14
-1.7925e-14
-1.74914e-14
-1.80232e-14
-1.75639e-14
-1.8118e-14
-1.76439e-14
-1.82202e-14
-1.77227e-14
-1.83255e-14
-1.78023e-14
-1.84316e-14
-1.78895e-14
-1.85407e-14
-1.79798e-14
-1.86506e-14
-1.80687e-14
-1.87588e-14
-1.81628e-14
-1.88654e-14
-1.82577e-14
-1.89772e-14
-1.83555e-14
-1.90941e-14
-1.84517e-14
-1.92116e-14
-1.85531e-14
-1.93248e-14
-1.86644e-14
-1.94478e-14
-1.87738e-14
-1.95688e-14
-1.88791e-14
-1.96901e-14
-1.89894e-14
-1.9814e-14
-1.91096e-14
-1.99429e-14
-1.92302e-14
-2.00742e-14
-1.93486e-14
-2.02057e-14
-1.94672e-14
-2.03397e-14
-1.95933e-14
-2.0476e-14
-1.97267e-14
-2.06172e-14
-1.98601e-14
-2.07607e-14
-1.99985e-14
-2.09064e-14
-2.01344e-14
-2.10495e-14
-2.02726e-14
-2.11948e-14
-2.0418e-14
-2.13398e-14
-2.05682e-14
-2.14843e-14
-2.07157e-14
-2.16434e-14
-2.08629e-14
-2.17994e-14
-2.10097e-14
-2.19548e-14
-2.11585e-14
-2.21172e-14
-2.13093e-14
-2.2284e-14
-2.14646e-14
-2.24401e-14
-2.16293e-14
-2.2608e-14
-2.17882e-14
-2.27676e-14
-2.19514e-14
-2.29339e-14
-2.21137e-14
-2.3107e-14
-2.227e-14
-2.32767e-14
-2.24355e-14
-2.3443e-14
-2.26203e-14
-2.36109e-14
-2.28091e-14
-2.37855e-14
-2.29814e-14
-2.39564e-14
-2.31679e-14
-2.41134e-14
-2.33686e-14
-2.42717e-14
-2.35578e-14
-2.44519e-14
-2.37304e-14
-2.46282e-14
-2.39172e-14
-2.48057e-14
-2.40976e-14
-2.49896e-14
-2.4261e-14
-2.51747e-14
-2.44385e-14
-2.53558e-14
-2.463e-14
-2.55329e-14
-2.48147e-14
-2.57321e-14
-2.49924e-14
-2.59272e-14
-2.51736e-14
-2.61185e-14
-2.53738e-14
-2.63057e-14
-2.55773e-14
-2.64942e-14
-2.57631e-14
-2.66839e-14
-2.59522e-14
-2.68696e-14
-2.61444e-14
-2.70513e-14
-2.63502e-14
-2.72341e-14
-2.65435e-14
-2.74233e-14
-2.6745e-14
-2.76189e-14
-2.69498e-14
-2.78155e-14
-2.71418e-14
-2.80028e-14
-2.73316e-14
-2.8186e-14
-2.75244e-14
-2.83598e-14
-2.77306e-14
-2.85294e-14
-2.79347e-14
-2.87261e-14
-2.81155e-14
-2.89134e-14
-2.83045e-14
-2.90807e-14
-2.85176e-14
-2.92594e-14
-2.87127e-14
-2.94442e-14
-2.88952e-14
-2.96404e-14
-2.90808e-14
-2.98271e-14
-2.92745e-14
-3.00095e-14
-2.9466e-14
-3.01982e-14
-2.96447e-14
-3.03828e-14
-2.98209e-14
-3.0553e-14
-3.00154e-14
-3.07191e-14
-3.02178e-14
-3.08809e-14
-3.03968e-14
-3.10487e-14
-3.05839e-14
-3.12433e-14
-3.07583e-14
-3.1423e-14
-3.0951e-14
-3.15774e-14
-3.11514e-14
-3.17269e-14
-3.13389e-14
-3.19025e-14
-3.15138e-14
-3.20729e-14
-3.16969e-14
-3.2238e-14
-3.18673e-14
-3.23873e-14
-3.20249e-14
-3.25413e-14
-3.22006e-14
-3.26997e-14
-3.23943e-14
-3.28827e-14
-3.25753e-14
-3.3049e-14
-3.27536e-14
-3.32191e-14
-3.29498e-14
-3.33823e-14
-3.31436e-14
-3.35588e-14
-3.33249e-14
-3.37588e-14
-3.35242e-14
-3.3921e-14
-3.37311e-14
-3.40961e-14
-3.38852e-14
-3.4274e-14
-3.40369e-14
-3.44554e-14
-3.42163e-14
-3.46101e-14
-3.44128e-14
-3.47781e-14
-3.45561e-14
-3.493e-14
-3.47066e-14
-3.50763e-14
-3.4884e-14
-3.5217e-14
-3.50481e-14
-3.53319e-14
-3.52394e-14
-3.547e-14
-3.54089e-14
-3.5601e-14
-3.55473e-14
-3.57348e-14
-3.56939e-14
-3.58714e-14
-3.58585e-14
-3.60106e-14
-3.60017e-14
-3.61526e-14
-3.61626e-14
-3.6297e-14
-3.62824e-14
-3.64345e-14
-3.63996e-14
-3.65654e-14
-3.65527e-14
-3.67666e-14
-3.67033e-14
-3.69038e-14
-3.68311e-14
-3.70549e-14
-3.6955e-14
-3.71819e-14
-3.7093e-14
-3.73612e-14
-3.72258e-14
-3.75182e-14
-3.73519e-14
-3.76355e-14
-3.74896e-14
-3.77695e-14
-3.76013e-14
-3.78461e-14
-3.77241e-14
-3.79579e-14
-3.78772e-14
-3.80472e-14
-3.79863e-14
-3.81318e-14
-3.80704e-14
-3.83034e-14
-3.81662e-14
-3.8454e-14
-3.8271e-14
-3.85303e-14
-3.83831e-14
-3.86227e-14
-3.854e-14
-3.8747e-14
-3.86886e-14
-3.88294e-14
-3.88116e-14
-3.89228e-14
-3.88746e-14
-3.89921e-14
-3.89486e-14
-3.90553e-14
-3.90152e-14
-3.91292e-14
-3.90732e-14
-3.91795e-14
-3.91731e-14
-3.92398e-14
-3.92633e-14
-3.93078e-14
-3.93629e-14
-3.94159e-14
-3.94383e-14
-3.95292e-14
-3.95042e-14
-3.96318e-14
-3.95227e-14
-3.96763e-14
-3.95909e-14
-3.97472e-14
-3.96577e-14
-3.98269e-14
-3.97223e-14
-3.99156e-14
-3.9798e-14
-3.99786e-14
-3.98656e-14
-4.00816e-14
-3.99243e-14
-4.01442e-14
-3.99888e-14
-4.0184e-14
-4.00915e-14
-4.02133e-14
-4.01701e-14
-4.02603e-14
-4.02258e-14
-4.03385e-14
-4.0258e-14
-4.0403e-14
-4.02954e-14
-4.04711e-14
-4.03366e-14
-4.04494e-14
-4.04086e-14
-4.04708e-14
-4.04522e-14
-4.05318e-14
-4.04402e-14
-4.05144e-14
-4.0458e-14
-4.0508e-14
-4.04461e-14
-4.0511e-14
-4.04029e-14
-4.05586e-14
-4.03824e-14
-4.05956e-14
-4.04369e-14
-4.05909e-14
-4.0479e-14
-4.05705e-14
-4.05135e-14
-4.05292e-14
-4.05734e-14
-4.05959e-14
-4.06111e-14
-4.05759e-14
-4.06263e-14
-4.04919e-14
-4.06489e-14
-4.04976e-14
-4.06598e-14
-4.05605e-14
-4.06335e-14
-4.05811e-14
-4.0615e-14
-4.05653e-14
-4.06262e-14
-4.0613e-14
-4.06149e-14
-4.06283e-14
-4.06282e-14
-4.06124e-14
-4.0639e-14
-4.05623e-14
-4.06256e-14
-4.06027e-14
-4.06208e-14
-4.06121e-14
-4.06188e-14
-4.05921e-14
-4.062e-14
-4.06367e-14
-4.06016e-14
-4.06075e-14
-4.06052e-14
-4.06011e-14
-4.06102e-14
-4.05637e-14
-4.05931e-14
-4.05642e-14
-4.06033e-14
-4.05528e-14
-4.06171e-14
-4.05741e-14
-4.06155e-14
-4.06074e-14
-4.06178e-14
-4.09582e-14
-4.0909e-14
-4.10025e-14
-4.09164e-14
-4.09388e-14
-4.09303e-14
-4.09184e-14
-4.09367e-14
-4.09595e-14
-4.09378e-14
-4.09452e-14
-4.09003e-14
-4.09298e-14
-4.08657e-14
-4.08908e-14
-4.08584e-14
-4.0845e-14
-4.08333e-14
-4.07866e-14
-4.0766e-14
-4.08169e-14
-4.07536e-14
-4.07632e-14
-4.07405e-14
-4.07244e-14
-4.06784e-14
-4.07283e-14
-4.06408e-14
-4.07024e-14
-4.05955e-14
-4.06465e-14
-4.05941e-14
-4.06291e-14
-4.05626e-14
-4.05707e-14
-4.058e-14
-4.05695e-14
-4.05461e-14
-4.05474e-14
-4.05668e-14
-4.05578e-14
-4.05373e-14
-4.04916e-14
-4.04827e-14
-4.04302e-14
-4.043e-14
-4.04018e-14
-4.03502e-14
-4.03803e-14
-4.02975e-14
-4.0282e-14
-4.02681e-14
-4.02174e-14
-4.02098e-14
-4.01857e-14
-4.01521e-14
-4.01269e-14
-4.00926e-14
-4.00707e-14
-4.00624e-14
-4.00761e-14
-4.00946e-14
-4.00197e-14
-4.00711e-14
-3.99588e-14
-4.00252e-14
-3.99857e-14
-3.99566e-14
-3.99501e-14
-3.99206e-14
-3.9915e-14
-3.99016e-14
-3.99288e-14
-3.98843e-14
-3.99464e-14
-3.98659e-14
-3.99045e-14
-3.98436e-14
-3.98667e-14
-3.98337e-14
-3.98811e-14
-3.97878e-14
-3.98364e-14
-3.97681e-14
-3.97787e-14
-3.97594e-14
-3.98052e-14
-3.97809e-14
-3.9734e-14
-3.97993e-14
-3.9744e-14
-3.97866e-14
-3.97695e-14
-3.97922e-14
-3.97953e-14
-3.9764e-14
-3.97372e-14
-3.97335e-14
-3.96788e-14
-3.96848e-14
-3.96556e-14
-3.96877e-14
-3.96842e-14
-3.9692e-14
-3.96607e-14
-3.96793e-14
-3.96017e-14
-3.96328e-14
-3.96126e-14
-3.96421e-14
-3.96236e-14
-3.96178e-14
-3.9565e-14
-3.95756e-14
-3.95433e-14
-3.95332e-14
-3.95234e-14
-3.95442e-14
-3.95033e-14
-3.95557e-14
-3.94633e-14
-3.9551e-14
-3.94564e-14
-3.95133e-14
-3.94843e-14
-3.94969e-14
-3.94752e-14
-3.94452e-14
-3.94865e-14
-3.9412e-14
-3.95009e-14
-3.94151e-14
-3.95183e-14
-3.94548e-14
-3.95194e-14
-3.94376e-14
-3.95233e-14
-3.94001e-14
-3.9531e-14
-3.93985e-14
-3.9504e-14
-3.93763e-14
-3.94801e-14
-3.93714e-14
-3.94774e-14
-3.93645e-14
-3.94767e-14
-3.93941e-14
-3.94968e-14
-3.94033e-14
-3.948e-14
-3.93918e-14
-3.94649e-14
-3.9379e-14
-3.9471e-14
-3.94236e-14
-3.94781e-14
-3.94488e-14
-3.94563e-14
-3.94253e-14
-3.94447e-14
-3.94019e-14
-3.94437e-14
-3.9388e-14
-3.94341e-14
-3.93935e-14
-3.94256e-14
-3.93893e-14
-3.94281e-14
-3.93651e-14
-3.94223e-14
-3.93704e-14
-3.9428e-14
-3.93755e-14
-3.94554e-14
-3.93707e-14
-3.94446e-14
-3.93656e-14
-3.9456e-14
-3.93805e-14
-3.9439e-14
-3.93848e-14
-3.94338e-14
-3.9369e-14
-3.94302e-14
-3.9353e-14
-3.9418e-14
-3.93676e-14
-3.94173e-14
-3.93823e-14
-3.94178e-14
-3.93465e-14
-3.94095e-14
-3.93413e-14
-3.94027e-14
-3.93363e-14
-3.93971e-14
-3.93417e-14
-3.93927e-14
-3.9368e-14
-3.93994e-14
-3.93537e-14
-3.93967e-14
-3.93399e-14
-3.9395e-14
-3.93471e-14
-3.93943e-14
-3.93545e-14
-3.93942e-14
-3.93413e-14
-3.9395e-14
-3.93282e-14
-3.93861e-14
-3.93256e-14
-3.93779e-14
-3.9344e-14
-3.93909e-14
-3.93523e-14
-3.93939e-14
-3.93503e-14
-3.93973e-14
-3.9338e-14
-3.94013e-14
-3.93256e-14
-3.93955e-14
-3.93549e-14
-3.93795e-14
-3.93843e-14
-3.93844e-14
-3.93722e-14
-3.93894e-14
-3.93707e-14
-3.9384e-14
-3.94011e-14
-3.93994e-14
-3.9411e-14
-3.94096e-14
-3.94161e-14
-3.94197e-14
-3.94111e-14
-3.94246e-14
-3.94064e-14
-3.94296e-14
-3.93966e-14
-3.94349e-14
-3.93973e-14
-3.94298e-14
-3.9398e-14
-3.94355e-14
-3.93987e-14
-3.9436e-14
-3.93887e-14
-3.94261e-14
-3.9405e-14
-3.9411e-14
-3.94264e-14
-3.94221e-14
-3.94271e-14
-3.94278e-14
-3.94278e-14
-3.94229e-14
-3.94286e-14
-3.94283e-14
-3.94348e-14
-3.94389e-14
-3.94463e-14
-3.94493e-14
-3.94421e-14
-3.94543e-14
-3.94328e-14
-3.94541e-14
-3.94497e-14
-3.94642e-14
-3.94614e-14
-3.94795e-14
-3.94523e-14
-3.94844e-14
-3.94431e-14
-3.94893e-14
-3.94287e-14
-3.94944e-14
-3.94298e-14
-3.95049e-14
-3.94307e-14
-3.95052e-14
-3.94315e-14
-3.95058e-14
-3.94425e-14
-3.95119e-14
-3.94429e-14
-3.95182e-14
-3.94328e-14
-3.95144e-14
-3.94329e-14
-3.9511e-14
-3.94328e-14
-3.95129e-14
-3.94325e-14
-3.951e-14
-3.94269e-14
-3.95125e-14
-3.94365e-14
-3.95153e-14
-3.94459e-14
-3.95131e-14
-3.94501e-14
-3.95111e-14
-3.9449e-14
-3.95094e-14
-3.94478e-14
-3.95027e-14
-3.94465e-14
-3.95012e-14
-3.94451e-14
-3.9505e-14
-3.94386e-14
-3.9509e-14
-3.94396e-14
-3.95131e-14
-3.9443e-14
-3.95148e-14
-3.94438e-14
-3.95142e-14
-3.94395e-14
-3.95087e-14
-3.94426e-14
-3.95158e-14
-3.94407e-14
-3.95181e-14
-3.94412e-14
-3.95181e-14
-3.94341e-14
-3.95182e-14
-3.94295e-14
-3.95111e-14
-3.94199e-14
-3.95139e-14
-3.94225e-14
-3.95243e-14
-3.94323e-14
-3.95323e-14
-3.94347e-14
-3.95307e-14
-3.9437e-14
-3.95269e-14
-3.9432e-14
-3.95305e-14
-3.94245e-14
-3.95342e-14
-3.94241e-14
-3.9538e-14
-3.94213e-14
-3.95372e-14
-3.94184e-14
-3.9539e-14
-3.94225e-14
-3.9541e-14
-3.94265e-14
-3.9543e-14
-3.94187e-14
-3.95406e-14
-3.94085e-14
-3.95406e-14
-3.94099e-14
-3.95432e-14
-3.94088e-14
-3.95435e-14
-3.94031e-14
-3.95441e-14
-3.93996e-14
-3.95402e-14
-3.94052e-14
-3.95388e-14
-3.94038e-14
-3.95375e-14
-3.94001e-14
-3.95364e-14
-3.93963e-14
-3.95354e-14
-3.93925e-14
-3.95346e-14
-3.93908e-14
-3.95339e-14
-3.93913e-14
-3.9529e-14
-3.93917e-14
-3.95264e-14
-3.9392e-14
-3.95239e-14
-3.93923e-14
-3.95215e-14
-3.93904e-14
-3.95183e-14
-3.93948e-14
-3.95151e-14
-3.94024e-14
-3.9511e-14
-3.94057e-14
-3.95081e-14
-3.94068e-14
-3.95052e-14
-3.941e-14
-3.95045e-14
-3.94131e-14
-3.95019e-14
-3.94173e-14
-3.95003e-14
-3.94173e-14
-3.94998e-14
-3.94153e-14
-3.94984e-14
-3.94154e-14
-3.94971e-14
-3.94164e-14
-3.94958e-14
-3.94184e-14
-3.94936e-14
-3.94204e-14
-3.94915e-14
-3.94214e-14
-3.94894e-14
-3.94215e-14
-3.94864e-14
-3.94225e-14
-3.94845e-14
-3.94245e-14
-3.94817e-14
-3.94264e-14
-3.94789e-14
-3.94256e-14
-3.94789e-14
-3.94239e-14
-3.94781e-14
-3.94258e-14
-3.94755e-14
-3.94269e-14
-3.94703e-14
-3.9428e-14
-3.94679e-14
-3.94246e-14
-3.94663e-14
-3.94213e-14
-3.94648e-14
-3.94198e-14
-3.94625e-14
-3.94192e-14
-3.94602e-14
-3.94169e-14
-3.94588e-14
-3.94146e-14
-3.94575e-14
-3.94149e-14
-3.9457e-14
-3.94136e-14
-3.94549e-14
-3.94122e-14
-3.94537e-14
-3.94094e-14
-3.94541e-14
-3.94057e-14
-3.94545e-14
-3.94045e-14
-3.94553e-14
-3.94045e-14
-3.94557e-14
-3.94037e-14
-3.94565e-14
-3.94018e-14
-3.9457e-14
-3.93992e-14
-3.94578e-14
-3.9397e-14
-3.94583e-14
-3.93955e-14
-3.94595e-14
-3.93952e-14
-3.94607e-14
-3.93938e-14
-3.94606e-14
-3.93925e-14
-3.94608e-14
-3.93908e-14
-3.94607e-14
-3.93895e-14
-3.94612e-14
-3.93883e-14
-3.94618e-14
-3.9387e-14
-3.94621e-14
-3.93867e-14
-3.94624e-14
-3.93862e-14
-3.94627e-14
-3.9385e-14
-3.94633e-14
-3.93841e-14
-3.94642e-14
-3.93833e-14
-3.94652e-14
-3.93825e-14
-3.94655e-14
-3.93817e-14
-3.94656e-14
-3.93809e-14
-3.94654e-14
-3.93813e-14
-3.94655e-14
-3.93811e-14
-3.94662e-14
-3.93798e-14
-3.94666e-14
-3.93785e-14
-3.9467e-14
-3.93778e-14
-3.94673e-14
-3.93775e-14
-3.94679e-14
-3.93773e-14
-3.94683e-14
-3.93768e-14
-3.94688e-14
-3.93766e-14
-3.94691e-14
-3.93763e-14
-3.94691e-14
-3.93755e-14
-3.94691e-14
-3.93751e-14
-3.94691e-14
-3.93752e-14
-3.9469e-14
-3.93752e-14
-3.94687e-14
-3.93749e-14
-3.94687e-14
-3.93746e-14
-3.94688e-14
-3.93745e-14
-3.94685e-14
-3.93742e-14
-3.94682e-14
-3.93739e-14
-3.94681e-14
-3.93737e-14
-3.94679e-14
-3.93737e-14
-3.94676e-14
-3.93736e-14
-3.94675e-14
-3.93734e-14
-3.94673e-14
-3.93734e-14
-3.9467e-14
-3.93733e-14
-3.94667e-14
-3.93731e-14
-3.94665e-14
-3.93731e-14
-3.94663e-14
-3.93731e-14
-3.94662e-14
-3.93729e-14
-3.94661e-14
-3.93729e-14
-3.9466e-14
-3.93728e-14
-3.9466e-14
-3.93727e-14
-3.94658e-14
-3.93728e-14
-3.94656e-14
-3.93727e-14
-3.94655e-14
-3.93725e-14
-3.94653e-14
-3.93724e-14
-3.94653e-14
-3.93723e-14
-3.94653e-14
-3.93721e-14
-3.94652e-14
-3.93719e-14
-3.94651e-14
-3.93718e-14
-3.9465e-14
-3.93719e-14
-3.94651e-14
-3.93719e-14
-3.94651e-14
-3.93719e-14
-3.9465e-14
-3.93718e-14
-3.94649e-14
-3.93717e-14
-3.94649e-14
-3.93716e-14
-3.94649e-14
-3.93715e-14
-3.94649e-14
-3.93714e-14
-3.94649e-14
-3.93714e-14
-3.94649e-14
-3.93713e-14
-3.9465e-14
-3.93712e-14
-3.9465e-14
-3.93712e-14
-3.9465e-14
-3.93711e-14
-3.9465e-14
-3.93711e-14
-3.94649e-14
-3.93711e-14
-3.94649e-14
-3.9371e-14
-3.94649e-14
-3.93711e-14
-3.94649e-14
-3.93711e-14
-3.94649e-14
-3.93711e-14
-3.94649e-14
-3.9371e-14
-3.9465e-14
-3.9371e-14
-3.9465e-14
-3.9371e-14
-3.9465e-14
-3.9371e-14
-3.94649e-14
-3.9371e-14
-3.94649e-14
-3.9371e-14
-3.94649e-14
-3.9371e-14
-3.94649e-14
-3.9371e-14
-3.94649e-14
-3.9371e-14
-4.06828e-14
-4.0643e-14
-4.07177e-14
-4.06634e-14
-4.07142e-14
-4.07029e-14
-4.07189e-14
-4.07228e-14
-4.07569e-14
-4.07514e-14
-4.07066e-14
-4.07654e-14
-4.06797e-14
-4.07036e-14
-4.06818e-14
-4.06834e-14
-4.06693e-14
-4.06765e-14
-4.0644e-14
-4.066e-14
-4.06329e-14
-4.06386e-14
-4.05574e-14
-4.06365e-14
-4.05375e-14
-4.06114e-14
-4.04976e-14
-4.0591e-14
-4.04864e-14
-4.05516e-14
-4.05364e-14
-4.05436e-14
-4.04985e-14
-4.05335e-14
-4.05045e-14
-4.05256e-14
-4.04773e-14
-4.0517e-14
-4.04134e-14
-4.04828e-14
-4.042e-14
-4.0423e-14
-4.03916e-14
-4.04142e-14
-4.03275e-14
-4.03757e-14
-4.03407e-14
-4.02809e-14
-4.02692e-14
-4.02645e-14
-4.01927e-14
-4.02168e-14
-4.01397e-14
-4.01686e-14
-4.01704e-14
-4.01207e-14
-4.01143e-14
-4.00372e-14
-4.0063e-14
-4.00058e-14
-4.00458e-14
-3.99681e-14
-4.00329e-14
-3.992e-14
-3.99971e-14
-3.98897e-14
-4.0032e-14
-3.98475e-14
-3.99861e-14
-3.98209e-14
-3.99038e-14
-3.98124e-14
-3.98901e-14
-3.98275e-14
-3.99272e-14
-3.98372e-14
-3.98719e-14
-3.98573e-14
-3.98161e-14
-3.9877e-14
-3.98045e-14
-3.9852e-14
-3.98215e-14
-3.98477e-14
-3.97868e-14
-3.98467e-14
-3.97156e-14
-3.98677e-14
-3.97356e-14
-3.9814e-14
-3.97351e-14
-3.98149e-14
-3.97136e-14
-3.982e-14
-3.97547e-14
-3.97963e-14
-3.97415e-14
-3.97577e-14
-3.96409e-14
-3.97201e-14
-3.9623e-14
-3.96862e-14
-3.96369e-14
-3.96721e-14
-3.96134e-14
-3.96237e-14
-3.96062e-14
-3.95566e-14
-3.95473e-14
-3.95751e-14
-3.9504e-14
-3.95934e-14
-3.94733e-14
-3.95966e-14
-3.94549e-14
-3.9568e-14
-3.94859e-14
-3.95617e-14
-3.94958e-14
-3.95215e-14
-3.95232e-14
-3.9463e-14
-3.9498e-14
-3.94196e-14
-3.94572e-14
-3.93909e-14
-3.9399e-14
-3.93774e-14
-3.94148e-14
-3.93436e-14
-3.94316e-14
-3.93256e-14
-3.94503e-14
-3.93601e-14
-3.94516e-14
-3.93724e-14
-3.94541e-14
-3.93251e-14
-3.94777e-14
-3.92738e-14
-3.94865e-14
-3.92735e-14
-3.94998e-14
-3.9344e-14
-3.95167e-14
-3.93341e-14
-3.94993e-14
-3.93394e-14
-3.94853e-14
-3.93409e-14
-3.9474e-14
-3.93583e-14
-3.94649e-14
-3.93342e-14
-3.94581e-14
-3.93267e-14
-3.94635e-14
-3.93356e-14
-3.9471e-14
-3.93413e-14
-3.94413e-14
-3.93539e-14
-3.93931e-14
-3.93251e-14
-3.93754e-14
-3.92945e-14
-3.93584e-14
-3.93117e-14
-3.93315e-14
-3.93076e-14
-3.93142e-14
-3.92927e-14
-3.93166e-14
-3.92468e-14
-3.9309e-14
-3.92391e-14
-3.93014e-14
-3.92598e-14
-3.92933e-14
-3.92794e-14
-3.92946e-14
-3.92678e-14
-3.92952e-14
-3.92449e-14
-3.92956e-14
-3.92205e-14
-3.92962e-14
-3.92251e-14
-3.92866e-14
-3.92179e-14
-3.92668e-14
-3.91987e-14
-3.92776e-14
-3.91882e-14
-3.92785e-14
-3.91759e-14
-3.92797e-14
-3.9172e-14
-3.92815e-14
-3.91663e-14
-3.92838e-14
-3.91584e-14
-3.92764e-14
-3.91795e-14
-3.92901e-14
-3.91991e-14
-3.93041e-14
-3.92172e-14
-3.93185e-14
-3.92132e-14
-3.93231e-14
-3.91869e-14
-3.93389e-14
-3.91694e-14
-3.93559e-14
-3.91813e-14
-3.93532e-14
-3.92225e-14
-3.93514e-14
-3.92309e-14
-3.93608e-14
-3.9238e-14
-3.93709e-14
-3.9244e-14
-3.93817e-14
-3.92488e-14
-3.9383e-14
-3.92733e-14
-3.93849e-14
-3.92654e-14
-3.93876e-14
-3.92458e-14
-3.94016e-14
-3.9246e-14
-3.94061e-14
-3.92764e-14
-3.94114e-14
-3.92846e-14
-3.94121e-14
-3.92918e-14
-3.9403e-14
-3.93085e-14
-3.94153e-14
-3.93192e-14
-3.94123e-14
-3.93292e-14
-3.94359e-14
-3.93439e-14
-3.94548e-14
-3.93633e-14
-3.94531e-14
-3.93717e-14
-3.9457e-14
-3.93585e-14
-3.94614e-14
-3.93554e-14
-3.94612e-14
-3.93833e-14
-3.94718e-14
-3.94054e-14
-3.94829e-14
-3.9401e-14
-3.94996e-14
-3.93857e-14
-3.94958e-14
-3.93908e-14
-3.95188e-14
-3.94007e-14
-3.95161e-14
-3.93944e-14
-3.95192e-14
-3.93928e-14
-3.95176e-14
-3.94064e-14
-3.95269e-14
-3.94091e-14
-3.95105e-14
-3.94113e-14
-3.94893e-14
-3.93975e-14
-3.9484e-14
-3.93938e-14
-3.94737e-14
-3.94055e-14
-3.94636e-14
-3.94168e-14
-3.94536e-14
-3.94281e-14
-3.94437e-14
-3.94236e-14
-3.9444e-14
-3.94243e-14
-3.94392e-14
-3.94197e-14
-3.94498e-14
-3.94151e-14
-3.94449e-14
-3.94258e-14
-3.944e-14
-3.94416e-14
-3.94453e-14
-3.94472e-14
-3.94505e-14
-3.94373e-14
-3.94505e-14
-3.94326e-14
-3.94505e-14
-3.94329e-14
-3.94505e-14
-3.94281e-14
-3.94505e-14
-3.94181e-14
-3.94505e-14
-3.94131e-14
-3.94555e-14
-3.94131e-14
-3.94606e-14
-3.9413e-14
-3.94632e-14
-3.94078e-14
-3.94659e-14
-3.93999e-14
-3.94686e-14
-3.9397e-14
-3.94738e-14
-3.93964e-14
-3.94767e-14
-3.93981e-14
-3.94722e-14
-3.93872e-14
-3.94752e-14
-3.93787e-14
-3.94734e-14
-3.93799e-14
-3.94791e-14
-3.93785e-14
-3.9475e-14
-3.9377e-14
-3.94662e-14
-3.93752e-14
-3.94624e-14
-3.93734e-14
-3.94683e-14
-3.93714e-14