/*--------------------------------*- C++ -*----------------------------------*\
| =========                 |                                                 |
| \\      /  F ield         | OpenFOAM: The Open Source CFD Toolbox           |
|  \\    /   O peration     | Version:  2012                                  |
|   \\  /    A nd           | Website:  www.openfoam.com                      |
|    \\/     M anipulation  |                                                 |
\*---------------------------------------------------------------------------*/
FoamFile
{
    version     2.0;
    format      ascii;
    class       volTensorField;
    location    "1000";
    object      grad(U);
}
// * * * * * * * * * * * * * * * * * * * * * * * * * * * * * * * * * * * * * //

dimensions      [0 0 -1 0 0 0 0];


internalField   nonuniform List<tensor> 
160
(
(0 -8.75812e-47 2.2194e-30 39.855 4.81256e-48 -4.8033e-13 0.865706 9.81229e-27 -2.96041e-15)
(0 -1.26682e-28 -1.05407e-27 39.855 -4.03957e-15 -1.95828e-13 0.865706 1.75271e-16 -2.24204e-15)
(0 -6.25985e-27 -1.39336e-29 39.5835 0 -5.93511e-13 2.82964 -1.26218e-29 -1.91098e-14)
(0 4.18007e-29 6.96679e-30 39.5835 -9.48829e-14 -2.2579e-13 2.82964 -3.19371e-15 -1.30479e-14)
(1.5389e-15 -1.09345e-29 -9.67965e-30 37.5772 4.61127e-13 -2.15114e-13 5.30436 -5.78832e-14 -1.78599e-14)
(0 2.1869e-29 1.09345e-29 37.5772 -5.11891e-14 -4.54384e-14 5.30436 -5.13703e-15 -1.58948e-14)
(-8.1818e-16 -1.24752e-29 -8.77468e-29 30.6893 1.84147e-13 -9.67848e-29 5.22408 -3.43112e-14 0)
(1.63636e-15 2.57429e-29 1.71619e-29 30.6893 -6.05293e-14 5.97089e-15 5.22408 -9.10165e-15 -1.4796e-14)
(-1.88694e-15 3.76379e-30 1.48267e-29 20.4522 1.22777e-13 7.58747e-15 3.98552 -3.14754e-14 -1.64695e-15)
(0 0 -6.734e-30 20.4522 -4.45911e-14 8.56141e-15 3.98552 -1.31207e-14 -1.24169e-14)
(1.35398e-16 -1.3504e-29 -6.97865e-29 12.2348 7.61544e-14 1.26873e-14 3.03394 -2.37795e-14 -1.84952e-15)
(5.40831e-15 1.58537e-29 2.11383e-29 12.2348 -2.98612e-14 1.99829e-15 3.03394 -1.65945e-14 -9.8787e-15)
(-6.83938e-16 5.94049e-30 8.29425e-30 7.41506 5.03243e-14 8.33714e-14 2.39922 -2.01945e-14 -2.10279e-14)
(-4.26812e-15 -8.29425e-30 -8.29425e-30 7.41506 -2.00056e-14 -2.00732e-15 2.39922 -2.03992e-14 -7.04966e-15)
(1.83212e-15 -1.9527e-29 -2.6036e-29 4.6525 3.10402e-14 4.6855e-14 1.95202 -1.67877e-14 -1.17792e-14)
(7.5169e-15 1.3018e-29 1.9527e-29 4.6525 -1.07621e-14 -1.20045e-14 1.95202 -2.3728e-14 -3.30764e-15)
(-2.06086e-15 2.77405e-30 0 2.99316 1.80509e-14 7.34007e-15 1.61918 -1.20286e-14 -3.66778e-15)
(-2.87555e-15 0 0 2.99316 -2.9287e-15 -2.45824e-14 1.61918 -1.95205e-14 -1.37655e-15)
(0 0 0 1.96026 1.06919e-14 -2.20134e-14 1.36384 -9.43813e-15 -2.1215e-15)
(6.578e-15 -5.28923e-30 0 1.96026 8.90914e-16 -2.90349e-14 1.36384 -1.0533e-14 -7.8254e-16)
(0 -6.2915e-30 0 1.30342 5.15124e-15 -2.67352e-14 1.16588 -6.66582e-15 -1.71973e-15)
(0 6.2915e-30 0 1.30342 5.2655e-16 -2.88866e-14 1.16588 -4.85052e-15 -1.34991e-15)
(-2.77946e-15 0 0 0.879872 2.8343e-15 -2.59003e-14 1.01218 -2.98193e-15 -1.30446e-15)
(0 0 0 0.879872 1.19019e-15 -2.69843e-14 1.01218 -1.78862e-15 -9.48333e-16)
(-2.18121e-15 0 -1.54984e-29 0.603287 1.15609e-15 -2.74002e-14 0.892586 -4.24635e-15 -5.42025e-16)
(2.18121e-15 0 1.54984e-29 0.603287 5.85718e-16 -2.84952e-14 0.892586 -3.48067e-15 2.57421e-17)
(-2.59482e-15 3.96185e-30 0 0.419956 -6.38108e-17 -3.02921e-14 0.798454 -6.46681e-17 -3.20132e-16)
(-1.03793e-14 8.35084e-30 0 0.419956 3.9443e-30 -2.98159e-14 0.798454 0 1.09092e-16)
(-2.66084e-15 8.64518e-30 0 0.296117 2.36088e-16 -2.6547e-14 0.721932 -3.04883e-16 -7.11929e-17)
(0 0 3.81787e-29 0.296117 6.85858e-16 -2.69925e-14 0.721932 -8.85713e-16 -2.06963e-15)
(0 9.19602e-44 -5.99223e-29 0.210428 4.14864e-29 -2.78843e-14 0.655128 -7.8392e-15 1.72666e-15)
(-1.50975e-14 1.03996e-29 5.99223e-29 0.210428 3.05343e-17 -2.80934e-14 0.655128 -7.46818e-15 2.39255e-15)
(0 -5.94771e-30 0 0.149218 2.83007e-16 -2.16745e-14 0.588436 -5.93448e-16 -2.19566e-15)
(0 0 0 0.149218 1.48309e-16 -2.14283e-14 0.588436 -3.10995e-16 -1.54526e-15)
(0 0 3.6903e-29 0.103309 -3.33593e-16 -9.4017e-15 0.505793 -2.04817e-14 -2.34137e-15)
(-5.19364e-15 0 0 0.103309 -7.07447e-17 -9.29984e-15 0.505793 -2.05806e-14 -1.78051e-15)
(2.88259e-15 -4.76922e-30 5.79201e-29 0.0648443 -2.21688e-16 -8.36836e-15 0.359763 -7.54839e-16 4.15382e-15)
(-1.15303e-14 1.69676e-29 -5.79201e-29 0.0648443 -8.64392e-16 -8.50164e-15 0.359763 -2.94322e-15 1.91627e-15)
(-2.95599e-15 2.29043e-30 -4.57738e-29 1.95696e-07 1.64495e-15 2.68008e-16 8.49097e-07 -1.20094e-14 -9.21992e-16)
(5.43291e-15 -9.56471e-30 5.60519e-45 1.95697e-07 1.49593e-15 7.88861e-31 8.49099e-07 -1.1109e-14 2.42238e-15)
(0 0 -6.93563e-31 39.855 -1.71742e-14 1.58665e-13 -0.865706 -1.67465e-15 2.96041e-15)
(-1.56176e-16 -6.93563e-32 4.16138e-31 39.855 -9.25552e-15 -4.43178e-14 -0.865706 -1.60646e-15 2.24204e-15)
(-4.90244e-16 4.35424e-31 -2.61255e-30 39.5835 -5.12625e-14 1.42253e-13 -2.82964 7.8765e-14 1.91098e-14)
(-4.90244e-16 0 2.61255e-30 39.5835 -3.33169e-14 -3.85045e-14 -2.82964 3.19371e-15 1.30479e-14)
(-7.69448e-16 6.83407e-31 -6.83407e-30 37.5772 -4.55329e-14 4.50677e-14 -5.30436 5.78832e-14 2.69021e-14)
(-7.69448e-16 0 2.73363e-30 37.5772 -2.92072e-14 1.3872e-14 -5.30436 5.13703e-15 1.58948e-14)
(-1.22727e-15 0 1.69716e-29 30.6893 -4.03381e-14 -3.78653e-28 -5.22408 5.1197e-14 3.05733e-14)
(0 0 0 30.6893 -2.83252e-14 3.10482e-14 -5.22408 9.10165e-15 1.4796e-14)
(0 0 -3.367e-30 20.4522 -2.91792e-14 -1.27388e-14 -3.98552 4.50358e-14 3.08039e-14)
(-5.66933e-15 0 1.6835e-30 20.4522 -2.14803e-14 3.42539e-14 -3.98552 1.31207e-14 1.24169e-14)
(-1.62287e-15 0 0 12.2348 -2.14582e-14 1.38816e-15 -3.03394 4.07107e-14 3.11802e-14)
(5.40831e-15 0 -1.32114e-30 12.2348 -1.97942e-14 3.45791e-14 -3.03394 1.65945e-14 9.8787e-15)
(-6.83938e-16 -2.07356e-30 0 7.41506 -1.44116e-14 2.16558e-14 -2.39922 3.71552e-14 2.10279e-14)
(-4.26812e-15 -2.07356e-30 2.07356e-30 7.41506 -1.87049e-14 3.67884e-14 -2.39922 2.03992e-14 7.04966e-15)
(1.92633e-15 3.2545e-30 -6.50899e-30 4.6525 -8.84092e-15 2.70637e-14 -1.95202 3.40999e-14 1.17792e-14)
(7.5169e-15 0 0 4.6525 -1.31174e-14 3.68936e-14 -1.95202 2.3728e-14 3.30764e-15)
(-2.06086e-15 0 0 2.99316 -6.54793e-15 2.73029e-14 -1.61918 3.20177e-14 3.66778e-15)
(0 2.554e-30 0 2.99316 -9.18203e-15 3.34884e-14 -1.61918 2.27198e-14 1.37655e-15)
(0 0 0 1.96026 -4.16534e-15 2.74408e-14 -1.36384 2.3638e-14 2.1215e-15)
(-8.83461e-15 6.07178e-30 0 1.96026 -6.58578e-15 2.94686e-14 -1.36384 1.63445e-14 7.8254e-16)
(2.33076e-15 -1.99689e-30 0 1.30342 -1.71523e-15 2.84e-14 -1.16588 1.51304e-14 1.71973e-15)
(-9.32305e-15 9.23192e-30 -6.2915e-30 1.30342 -3.16606e-15 2.83095e-14 -1.16588 1.13969e-14 1.34991e-15)
(2.43299e-15 -2.563e-30 0 0.879872 -8.86904e-16 2.77202e-14 -1.01218 1.06742e-14 1.30446e-15)
(0 0 0 0.879872 -1.56132e-15 2.90778e-14 -1.01218 9.47499e-15 9.48333e-16)
(-2.18121e-15 0 0 0.603287 -7.54488e-16 2.87198e-14 -0.892586 5.78866e-15 5.42025e-16)
(0 0 -1.54984e-29 0.603287 -1.18808e-15 2.99598e-14 -0.892586 4.1129e-15 -2.57421e-17)
(-8.6131e-15 6.64024e-30 0 0.419956 -6.70717e-16 3.07535e-14 -0.798454 5.10277e-15 3.20132e-16)
(0 0 -2.43251e-29 0.419956 -1.23456e-16 2.80175e-14 -0.798454 4.52902e-15 -1.09092e-16)
(5.34743e-15 -3.46492e-30 0 0.296117 3.03184e-16 2.79873e-14 -0.721932 4.14609e-15 7.11929e-17)
(-1.333e-14 1.27798e-29 -1.90894e-29 0.296117 6.53739e-16 2.81405e-14 -0.721932 5.49584e-15 2.06963e-15)
(4.21666e-15 -7.49029e-30 5.99223e-29 0.210428 -3.75662e-16 2.70125e-14 -0.655128 6.13958e-15 -1.72666e-15)
(-1.08808e-14 1.06541e-29 0 0.210428 -1.80814e-16 2.90277e-14 -0.655128 7.48163e-15 -2.39255e-15)
(-5.3414e-16 -4.11604e-30 -4.70246e-29 0.149218 2.90038e-16 1.95173e-14 -0.588436 6.08191e-16 2.19566e-15)
(-1.10997e-14 2.75039e-45 0 0.149218 -6.56859e-47 1.92252e-14 -0.588436 3.1218e-31 1.54526e-15)
(0 0 0 0.103309 0 1.14782e-14 -0.505793 2.04817e-14 2.34137e-15)
(-1.13089e-14 9.60701e-33 0 0.103309 -1.59476e-16 1.04178e-14 -0.505793 2.05806e-14 1.78051e-15)
(4.07576e-15 0 1.1584e-28 0.0648443 1.97215e-31 9.19504e-15 -0.359763 2.85654e-31 -4.15382e-15)
(-7.45458e-15 1.79145e-29 0 0.0648443 -7.09609e-17 9.84899e-15 -0.359763 2.41619e-16 -1.91627e-15)
(-2.39533e-16 3.20186e-30 -4.52786e-29 1.95696e-07 1.75391e-15 -3.35119e-15 -8.49095e-07 1.06448e-14 9.21992e-16)
(1.18358e-14 -1.04182e-29 2.66247e-44 1.95696e-07 1.70857e-15 -7.88861e-31 -8.49096e-07 9.57149e-15 2.71952e-29)
(-2.95673e-15 6.96975e-31 4.54533e-29 -7.35227e-12 1.56241e-15 2.60783e-14 3.19034e-11 -1.50909e-14 1.27317e-15)
(-3.15544e-30 -7.45541e-30 -4.54533e-29 -1.90642e-13 1.50606e-15 2.66717e-14 6.56774e-30 -1.35138e-14 -2.73648e-15)
(0 0 0 -0.0648439 2.31805e-15 2.07988e-14 0.35976 -1.07311e-14 -1.04121e-15)
(1.15303e-14 -1.92905e-30 0 -0.0648439 2.32008e-15 2.0876e-14 0.35976 -1.12659e-14 2.55197e-16)
(5.19364e-15 -1.01738e-30 -1.84515e-29 -0.103308 1.60143e-16 1.40522e-14 0.50579 -5.08969e-15 -2.03231e-15)
(0 0 0 -0.103308 1.09138e-16 1.36582e-14 0.50579 -5.07765e-15 3.76912e-17)
(3.30906e-15 -8.97918e-32 -5.87808e-30 -0.149218 1.1498e-16 1.58842e-14 0.588434 -2.41106e-16 1.16403e-15)
(1.10997e-14 0 0 -0.149218 0 1.61255e-14 0.588434 7.88861e-31 4.84854e-16)
(5.44042e-15 0 -3.74514e-30 -0.210428 1.583e-15 1.2782e-14 0.655126 -2.53937e-15 1.81381e-16)
(1.08808e-14 0 3.74514e-30 -0.210428 1.53473e-15 1.234e-14 0.655126 -1.69029e-15 -5.79459e-16)
(-2.66085e-15 0 0 -0.296117 4.80607e-16 5.89857e-15 0.721931 5.53174e-17 -3.59952e-17)
(0 0 0 -0.296117 3.40556e-16 6.7457e-15 0.721931 4.26662e-16 -6.7369e-16)
(-2.59482e-15 -1.58968e-32 2.1164e-43 -0.419956 7.49286e-17 -1.19158e-29 0.798454 -7.59353e-17 9.86076e-32)
(-1.03793e-14 3.88289e-31 0 -0.419956 6.21262e-30 -7.30265e-16 0.798454 0 9.73565e-16)
(2.51982e-15 7.15739e-31 9.68652e-31 -0.603288 4.11034e-16 2.29341e-15 0.892586 3.26897e-16 -4.76644e-16)
(2.01586e-14 -6.47339e-31 3.50325e-45 -0.603288 7.54451e-16 1.97215e-31 0.892586 -3.09049e-16 -1.97215e-31)
(-2.43299e-15 -5.47382e-48 0 -0.879873 0 1.72565e-15 1.01218 0 -7.80186e-17)
(0 0 0 -0.879873 4.39966e-16 3.31172e-15 1.01218 1.12883e-16 2.99281e-16)
(0 -2.45762e-32 -4.47435e-31 -1.30342 -3.97522e-16 8.87812e-16 1.16588 -3.57781e-16 1.08205e-17)
(9.32305e-15 2.45762e-32 3.93219e-31 -1.30342 1.98287e-16 2.37822e-16 1.16588 -3.94781e-16 1.86349e-16)
(-4.41731e-15 6.26336e-32 -2.50534e-31 -1.96026 3.72834e-16 3.31776e-16 1.36384 1.36936e-17 2.9008e-16)
(0 3.43318e-44 2.50534e-31 -1.96026 -1.93418e-30 3.17148e-16 1.36384 5.17089e-46 -1.69346e-16)
(2.87555e-15 7.06711e-31 -2.57362e-31 -2.99316 -1.46784e-16 5.77169e-16 1.61919 4.42749e-17 3.11514e-16)
(-2.87555e-15 0 -1.59625e-31 -2.99316 -8.98986e-16 8.26637e-16 1.61919 -1.95548e-16 -9.20952e-17)
(-1.87922e-15 -4.9023e-31 1.01703e-31 -4.6525 0 1.07621e-15 1.95203 5.19164e-17 4.71888e-16)
(0 5.72079e-32 -1.52554e-31 -4.6525 -6.43668e-16 1.20108e-15 1.95203 1.59285e-16 2.59975e-16)
(0 -6.07489e-32 6.47988e-32 -7.41506 4.00028e-16 -2.27022e-16 2.39922 -1.53375e-16 4.36547e-16)
(6.60274e-15 2.42018e-31 -6.47988e-32 -7.41506 -4.71421e-16 5.83843e-16 2.39922 5.05316e-17 2.91493e-16)
(0 1.63519e-31 0 -12.2348 0 1.27457e-16 3.03394 -2.0288e-16 4.55619e-16)
(-2.43336e-15 -3.09643e-32 -4.12857e-32 -12.2348 -6.20242e-16 -1.27112e-16 3.03394 -2.10076e-16 1.12143e-16)
(-2.83892e-15 -2.63047e-32 0 -20.4522 8.71877e-16 -2.46556e-16 3.98552 -1.2516e-16 4.54666e-16)
(3.77387e-15 0 2.77158e-32 -20.4522 -2.19869e-30 -1.29422e-31 3.98552 3.07026e-47 9.98567e-17)
(7.98574e-16 1.25682e-30 -6.70388e-32 -30.6893 3.88481e-31 9.57365e-17 5.22408 0 3.65749e-16)
(4.28697e-16 0 6.70388e-32 -30.6893 1.0052e-15 2.80838e-16 5.22408 2.9433e-17 3.67504e-17)
(0 3.20347e-32 0 -37.5772 -9.0515e-16 8.93536e-16 5.30436 3.73093e-17 3.49143e-16)
(7.69448e-16 -3.20347e-32 0 -37.5772 -4.01696e-16 9.24789e-16 5.30436 2.94071e-17 3.05192e-17)
(4.90244e-16 6.80351e-33 -2.7214e-32 -39.5835 -1.09763e-15 1.94017e-15 2.82964 1.31497e-17 2.69487e-16)
(0 1.90452e-30 -2.7214e-32 -39.5835 -2.46286e-16 3.04594e-15 2.82964 2.595e-18 3.28625e-17)
(0 -2.00989e-30 -4.33477e-33 -39.8551 -1.30313e-16 1.71477e-15 0.865706 5.66781e-18 5.86936e-17)
(-1.56176e-16 -2.31153e-36 4.33477e-33 -39.8551 9.8096e-46 2.81078e-15 0.865706 1.66564e-20 2.63791e-18)
(6.15671e-15 -2.22307e-31 0 -1.23743e-11 1.71403e-15 -2.61701e-14 -5.36922e-11 1.85113e-14 -1.27317e-15)
(8.63735e-15 4.95897e-30 0 -1.40222e-11 1.78057e-15 -2.7088e-14 -6.08402e-11 1.89271e-14 2.73648e-15)
(-4.07576e-15 1.81e-30 -2.896e-29 -0.0648439 2.25869e-15 -2.17227e-14 -0.35976 1.00271e-14 1.04121e-15)
(0 0 0 -0.0648439 2.2776e-15 -2.0175e-14 -0.35976 1.06866e-14 -2.55197e-16)
(-5.42404e-15 0 0 -0.103308 -1.13894e-43 -1.30379e-14 -0.50579 5.08969e-15 2.03231e-15)
(2.59682e-15 6.12849e-31 0 -0.103308 1.64868e-17 -1.35422e-14 -0.50579 5.07765e-15 -3.76912e-17)
(-2.77492e-15 8.17684e-31 0 -0.149218 1.19337e-16 -1.50689e-14 -0.588434 2.50242e-16 -1.16403e-15)
(-3.30906e-15 -1.09751e-31 0 -0.149218 5.76132e-16 -1.65068e-14 -0.588434 1.20811e-15 -4.84854e-16)
(-5.7131e-15 2.34071e-31 -3.74514e-30 -0.210428 1.97127e-15 -1.34551e-14 -0.655126 2.53937e-15 -1.81381e-16)
(1.08808e-14 0 0 -0.210428 2.08442e-15 -1.2973e-14 -0.655126 1.69029e-15 5.79459e-16)
(0 0 0 -0.296117 7.30558e-16 -6.60708e-15 -0.721931 -5.53174e-17 3.59952e-17)
(-1.333e-14 0 0 -0.296117 0 -5.38047e-15 -0.721931 0 6.7369e-16)
(2.59482e-15 0 0 -0.419956 -3.61902e-17 -8.27998e-16 -0.798454 5.85125e-16 6.81902e-16)
(-1.03793e-14 4.751e-32 -4.79507e-45 -0.419956 -6.07919e-16 -9.86076e-32 -0.798454 6.99478e-16 -7.11585e-30)
(2.51982e-15 -6.05408e-32 -4.84326e-31 -0.603288 -4.87941e-17 -1.50478e-15 -0.892586 -5.2417e-16 4.76644e-16)
(0 3.02704e-32 0 -0.603288 4.90705e-17 -1.72247e-15 -0.892586 3.09049e-16 1.65738e-15)
(2.77946e-15 0 0 -0.879873 -8.94108e-16 -1.00447e-15 -1.01218 -3.10264e-16 7.80186e-17)
(0 0 0 -0.879873 -7.56957e-16 -7.57516e-16 -1.01218 -1.12883e-16 -2.99281e-16)
(5.87256e-15 -4.89488e-33 0 -1.30342 4.79709e-17 -1.85047e-16 -1.16588 3.2251e-16 -1.08205e-17)
(-3.5418e-15 2.18953e-47 0 -1.30342 0 -1.34701e-15 -1.16588 0 -1.86349e-16)
(2.20865e-15 -6.26336e-32 -2.50534e-31 -1.96026 1.30859e-15 3.69642e-16 -1.36384 -1.36936e-17 -2.9008e-16)
(-8.83462e-15 6.26336e-32 1.25267e-31 -1.96026 5.06612e-17 -8.80332e-16 -1.36384 -1.14436e-16 2.09826e-16)
(2.06086e-15 7.52973e-32 1.97058e-46 -2.99316 6.52506e-16 -1.19538e-45 -1.61919 -1.96818e-16 -3.65426e-31)
(-8.24346e-15 -3.50325e-46 0 -2.99316 3.95931e-44 8.24575e-16 -1.61919 2.33454e-29 9.20952e-17)
(0 0 0 -4.6525 6.06499e-45 -6.47713e-16 -1.95203 -2.59098e-30 -4.71888e-16)
(-9.34902e-15 3.08259e-30 8.75812e-47 -4.6525 1.00514e-16 0 -1.95203 -2.37927e-17 2.31728e-30)
(4.66924e-15 -4.85991e-32 2.59195e-31 -7.41506 -1.67053e-15 1.74767e-16 -2.39922 1.53375e-16 -6.95592e-17)
(0 4.85991e-32 0 -7.41506 -1.55488e-15 -1.51656e-15 -2.39922 -5.05316e-17 -2.91493e-16)
(0 -1.08382e-45 5.47382e-47 -12.2348 0 0 -3.03394 -1.97215e-30 9.86076e-32)
(-1.08166e-14 3.34587e-32 0 -12.2348 -3.58212e-16 -1.04926e-15 -3.03394 1.7994e-16 -1.12143e-16)
(1.88694e-15 2.63047e-32 5.51313e-32 -20.4522 1.22015e-15 -5.66879e-16 -3.98552 1.2516e-16 -6.48512e-17)
(-1.89545e-15 0 1.05219e-31 -20.4522 1.33549e-15 -6.62551e-16 -3.98552 1.32848e-16 -9.98567e-17)
(0 4.18993e-32 -2.68155e-31 -30.6893 8.02505e-16 -1.174e-15 -5.22408 -2.74206e-17 -2.07083e-16)
(0 -4.18993e-32 2.68155e-31 -30.6893 5.84079e-16 -9.76768e-16 -5.22408 -2.9433e-17 -3.67504e-17)
(-7.69448e-16 0 -4.78355e-32 -37.5772 6.4431e-16 -2.36779e-15 -5.30436 -3.73093e-17 -2.13709e-16)
(0 2.66956e-33 0 -37.5772 -2.50891e-17 -9.65296e-16 -5.30436 -2.94071e-17 -3.05192e-17)
(4.90244e-16 3.40175e-33 -1.08856e-31 -39.5835 5.61717e-16 -7.47951e-15 -2.82964 -1.31497e-17 -2.69487e-16)
(-4.90244e-16 -1.70088e-33 0 -39.5835 -4.24052e-17 -3.62126e-15 -2.82964 -2.595e-18 -3.28625e-17)
(0 -1.53267e-46 -7.86297e-30 -39.8551 -6.16298e-33 -6.24515e-15 -0.865706 -1.24682e-31 -5.86936e-17)
(0 3.25108e-33 -1.14769e-29 -39.8551 -4.05902e-17 -2.81078e-15 -0.865706 -1.66564e-20 -2.63791e-18)
)
;

boundaryField
{
    walls
    {
        type            extrapolatedCalculated;
        value           nonuniform List<tensor> 8((0 -8.75812e-47 2.2194e-30 39.9049 1.30055e-13 -3.76625e-13 0.865706 9.81229e-27 -2.96041e-15) (0 0 -6.93563e-31 39.9049 2.43314e-14 1.03705e-13 -0.865706 -1.67465e-15 2.96041e-15) (0 -1.26682e-28 -1.05407e-27 39.9049 1.26016e-13 -1.95828e-13 0.865706 1.75271e-16 -2.24204e-15) (-1.56176e-16 -6.93563e-32 4.16138e-31 39.9049 2.20841e-14 -1.0866e-14 -0.865706 -1.60646e-15 2.24204e-15) (0 -2.00989e-30 -4.33477e-33 -39.9049 -1.71907e-17 4.17082e-16 0.865706 5.66781e-18 5.86936e-17) (0 -1.53267e-46 -7.86297e-30 -39.9049 -5.05327e-16 -5.82806e-15 -0.865706 -1.24682e-31 -5.86936e-17) (-1.56176e-16 -2.31153e-36 4.33477e-33 -39.9049 1.13123e-16 1.2838e-15 0.865706 1.66564e-20 2.63791e-18) (0 3.25108e-33 -1.14769e-29 -39.9049 -1.14658e-16 -1.52699e-15 -0.865706 -1.66564e-20 -2.63791e-18));
    }
    inlet
    {
        type            cyclic;
    }
    outlet
    {
        type            cyclic;
    }
    sides
    {
        type            empty;
    }
}


// ************************************************************************* //
