/*--------------------------------*- C++ -*----------------------------------*\
| =========                 |                                                 |
| \\      /  F ield         | OpenFOAM: The Open Source CFD Toolbox           |
|  \\    /   O peration     | Version:  2012                                  |
|   \\  /    A nd           | Website:  www.openfoam.com                      |
|    \\/     M anipulation  |                                                 |
\*---------------------------------------------------------------------------*/
FoamFile
{
    version     2.0;
    format      ascii;
    class       volScalarField;
    location    "1000";
    object      p;
}
// * * * * * * * * * * * * * * * * * * * * * * * * * * * * * * * * * * * * * //

dimensions      [0 2 -2 0 0 0 0];


internalField   nonuniform List<scalar> 
160
(
3.18392e-16
2.17693e-15
6.51054e-16
2.18277e-15
8.31392e-16
2.18793e-15
1.00844e-15
2.19961e-15
1.22314e-15
2.22529e-15
1.48506e-15
2.27719e-15
1.79631e-15
2.36844e-15
2.13391e-15
2.52672e-15
2.52812e-15
2.76349e-15
2.97436e-15
3.10342e-15
3.49134e-15
3.55225e-15
4.15498e-15
4.17787e-15
5.01809e-15
4.99537e-15
6.06615e-15
6.06887e-15
7.63933e-15
7.65639e-15
9.69817e-15
9.6968e-15
1.21177e-14
1.2145e-14
1.60928e-14
1.6207e-14
2.03261e-14
2.03457e-14
2.65613e-14
2.66988e-14
2.3417e-15
2.52359e-15
2.34581e-15
2.52696e-15
2.35394e-15
2.53307e-15
2.37118e-15
2.54606e-15
2.40641e-15
2.57226e-15
2.47269e-15
2.62032e-15
2.58113e-15
2.7001e-15
2.75465e-15
2.83054e-15
2.98961e-15
3.03586e-15
3.31736e-15
3.33359e-15
3.76217e-15
3.76715e-15
4.32258e-15
4.33443e-15
5.12717e-15
5.12281e-15
6.17514e-15
6.2053e-15
7.64465e-15
7.74932e-15
9.64736e-15
9.62356e-15
1.23633e-14
1.23445e-14
1.59885e-14
1.61027e-14
2.00271e-14
2.0107e-14
2.66741e-14
2.66472e-14
3.16067e-14
3.15977e-14
3.61311e-14
3.6348e-14
3.78502e-14
3.78582e-14
3.90985e-14
3.91107e-14
3.96113e-14
3.96088e-14
3.98982e-14
3.99e-14
3.99602e-14
3.99796e-14
3.98976e-14
3.99026e-14
3.98883e-14
3.98954e-14
3.98815e-14
3.99013e-14
3.9892e-14
3.9893e-14
3.98822e-14
3.98866e-14
3.98815e-14
3.98817e-14
3.98813e-14
3.98805e-14
3.98817e-14
3.98796e-14
3.98824e-14
3.98795e-14
3.98815e-14
3.98794e-14
3.98811e-14
3.98793e-14
3.98809e-14
3.98794e-14
3.9881e-14
3.98794e-14
3.16284e-14
3.18542e-14
3.62625e-14
3.62315e-14
3.79636e-14
3.78567e-14
3.90368e-14
3.92483e-14
3.9655e-14
3.96357e-14
3.98945e-14
3.98935e-14
3.99189e-14
3.99218e-14
3.98948e-14
3.98965e-14
3.98734e-14
3.98761e-14
3.98818e-14
3.98875e-14
3.98858e-14
3.98956e-14
3.98763e-14
3.98955e-14
3.98726e-14
3.98851e-14
3.98654e-14
3.98814e-14
3.98685e-14
3.98815e-14
3.98701e-14
3.98785e-14
3.98704e-14
3.98776e-14
3.98708e-14
3.98776e-14
3.98707e-14
3.98777e-14
3.98707e-14
3.98777e-14
)
;

boundaryField
{
    walls
    {
        type            zeroGradient;
    }
    inlet
    {
        type            cyclic;
    }
    outlet
    {
        type            cyclic;
    }
    sides
    {
        type            empty;
    }
}


// ************************************************************************* //
