/*--------------------------------*- C++ -*----------------------------------*\
| =========                 |                                                 |
| \\      /  F ield         | OpenFOAM: The Open Source CFD Toolbox           |
|  \\    /   O peration     | Version:  2012                                  |
|   \\  /    A nd           | Website:  www.openfoam.com                      |
|    \\/     M anipulation  |                                                 |
\*---------------------------------------------------------------------------*/
FoamFile
{
    version     2.0;
    format      ascii;
    class       volScalarField;
    location    "13500";
    object      nut;
}
// * * * * * * * * * * * * * * * * * * * * * * * * * * * * * * * * * * * * * //

dimensions      [0 2 -1 0 0 0 0];


internalField   nonuniform List<scalar> 
2560
(
2.91776e-09
2.91776e-09
3.89106e-07
3.89106e-07
8.16304e-06
8.16305e-06
5.8112e-05
5.8112e-05
0.000201719
0.000201719
0.000442786
0.000442786
0.000753335
0.000753335
0.00111026
0.00111026
0.00149936
0.00149936
0.00191181
0.00191181
0.0023418
0.0023418
0.00278524
0.00278524
0.00323912
0.00323912
0.00370114
0.00370114
0.00416945
0.00416945
0.00464256
0.00464256
0.0051192
0.0051192
0.00559832
0.00559832
0.00607897
0.00607897
0.00656034
0.00656034
0.0070417
0.0070417
0.00752238
0.00752238
0.00800176
0.00800176
0.00847928
0.00847928
0.0089544
0.0089544
0.0094266
0.0094266
0.00989542
0.00989542
0.0103604
0.0103604
0.010821
0.010821
0.0112769
0.0112769
0.0117276
0.0117276
0.0121727
0.0121727
0.0126118
0.0126118
0.0130446
0.0130446
0.0134705
0.0134705
0.0138893
0.0138893
0.0143006
0.0143006
0.014704
0.014704
0.0150992
0.0150992
0.015486
0.015486
0.015864
0.015864
0.016233
0.016233
0.0165929
0.0165929
0.0169433
0.0169433
0.0172843
0.0172843
0.0176158
0.0176158
0.0179377
0.0179377
0.0182501
0.0182501
0.0185532
0.0185532
0.0188473
0.0188473
0.0191326
0.0191326
0.0194096
0.0194096
0.0196789
0.0196789
0.0199411
0.0199411
0.0201972
0.0201972
0.020448
0.020448
0.0206948
0.0206948
0.0209388
0.0209388
0.0211816
0.0211816
0.0214248
0.0214248
0.0216702
0.0216702
0.0219199
0.0219199
0.0221759
0.0221759
0.0224405
0.0224405
0.0227161
0.0227161
0.023005
0.023005
0.0233098
0.0233098
0.0236327
0.0236327
0.0239759
0.0239759
0.0243416
0.0243416
0.0247315
0.0247315
0.025147
0.025147
0.0255893
0.0255894
0.0260591
0.0260591
0.0265565
0.0265565
0.0270811
0.0270811
0.0276322
0.0276322
0.0282086
0.0282086
0.0288086
0.0288086
0.02943
0.02943
0.0300706
0.0300706
0.0307278
0.0307278
0.0313986
0.0313986
0.0320803
0.0320803
0.0327698
0.0327698
0.0334643
0.0334643
0.0341609
0.0341609
0.0348569
0.0348569
0.0355497
0.0355497
0.0362369
0.0362369
0.0369164
0.0369164
0.0375861
0.0375861
0.0382443
0.0382443
0.0388895
0.0388895
0.0395202
0.0395202
0.0401355
0.0401355
0.0407343
0.0407343
0.0413159
0.0413159
0.0418798
0.0418798
0.0424255
0.0424255
0.0429527
0.0429527
0.0434613
0.0434613
0.0439512
0.0439512
0.0444225
0.0444225
0.0448753
0.0448753
0.0453099
0.0453099
0.0457264
0.0457264
0.0461253
0.0461253
0.0465068
0.0465068
0.0468715
0.0468715
0.0472196
0.0472196
0.0475517
0.0475517
0.0478681
0.0478681
0.0481694
0.0481694
0.048456
0.048456
0.0487284
0.0487284
0.0489869
0.0489869
0.0492321
0.0492321
0.0494644
0.0494644
0.0496841
0.0496841
0.0498918
0.0498918
0.0500877
0.0500877
0.0502722
0.0502722
0.0504458
0.0504458
0.0506087
0.0506087
0.0507612
0.0507612
0.0509037
0.0509037
0.0510364
0.0510364
0.0511596
0.0511596
0.0512735
0.0512735
0.0513784
0.0513784
0.0514744
0.0514744
0.0515619
0.0515619
0.051641
0.051641
0.0517118
0.0517118
0.0517746
0.0517746
0.0518296
0.0518296
0.0518768
0.0518768
0.0519165
0.0519165
0.0519488
0.0519488
0.0519738
0.0519738
0.0519917
0.0519917
0.0520026
0.0520026
0.0520066
0.0520066
0.0520039
0.0520039
0.0519947
0.0519947
0.0519789
0.0519789
0.0519569
0.0519569
0.0519287
0.0519287
0.0518945
0.0518945
0.0518545
0.0518545
0.0518088
0.0518088
0.0517577
0.0517577
0.0517012
0.0517012
0.0516398
0.0516398
0.0515735
0.0515735
0.0515027
0.0515027
0.0514275
0.0514275
0.0513483
0.0513483
0.0512654
0.0512654
0.0511789
0.0511789
0.0510893
0.0510893
0.0509968
0.0509968
0.0509016
0.0509016
0.0508039
0.0508039
0.050704
0.050704
0.050602
0.050602
0.0504981
0.0504981
0.0503924
0.0503924
0.0502849
0.0502849
0.0501759
0.0501759
0.0500653
0.0500653
0.0499533
0.0499533
0.04984
0.04984
0.0497256
0.0497256
0.0496101
0.0496101
0.049494
0.049494
0.0493773
0.0493773
0.0492605
0.0492605
0.0491437
0.0491437
0.0490274
0.0490274
0.0489119
0.0489119
0.0487975
0.0487975
0.0486846
0.0486846
0.0485735
0.0485735
0.0484647
0.0484647
0.0483584
0.0483584
0.048255
0.048255
0.0481549
0.0481549
0.0480585
0.0480585
0.0479662
0.0479662
0.0478786
0.0478786
0.0477961
0.0477961
0.0477195
0.0477195
0.0476493
0.0476493
0.0475864
0.0475864
0.0475315
0.0475315
0.0474853
0.0474853
0.0474489
0.0474489
0.0474232
0.0474232
0.047409
0.047409
0.0474073
0.0474073
0.0474189
0.0474189
0.0474448
0.0474448
0.0474857
0.0474857
0.0475421
0.0475422
0.0476148
0.0476148
0.0477042
0.0477042
0.0478106
0.0478106
0.0479345
0.0479345
0.0480761
0.0480761
0.0482358
0.0482358
0.0484138
0.0484138
0.0486101
0.0486101
0.0488248
0.0488248
0.0490575
0.0490575
0.0493078
0.0493078
0.0495749
0.0495749
0.0498579
0.049858
0.0501555
0.0501556
0.0504663
0.0504663
0.0507885
0.0507886
0.0511207
0.0511208
0.0514616
0.0514617
0.0518101
0.0518102
0.0521655
0.0521656
0.0525273
0.0525274
0.052895
0.052895
0.0532678
0.0532678
0.0536445
0.0536446
0.0540236
0.0540237
0.0544033
0.0544034
0.054782
0.0547821
0.0551581
0.0551582
0.0555306
0.0555306
0.0558985
0.0558985
0.0562612
0.0562613
0.0566188
0.0566189
0.0569716
0.0569717
0.0573208
0.0573209
0.0576677
0.0576678
0.0580137
0.0580138
0.0583597
0.0583599
0.0587058
0.0587059
0.0590507
0.0590509
0.0593923
0.0593924
0.0597269
0.0597271
0.06005
0.0600502
0.0603561
0.0603564
0.0606401
0.0606403
0.0608983
0.0608986
0.0611302
0.0611304
0.0613378
0.0613381
0.0615261
0.0615264
0.0617017
0.061702
0.0618719
0.0618722
0.0620425
0.0620428
0.0622171
0.0622175
0.0623966
0.0623969
0.0625808
0.0625812
0.0627708
0.0627712
0.06297
0.0629704
0.0631844
0.0631847
0.0634209
0.0634211
0.0636867
0.0636869
0.0639879
0.0639881
0.0643295
0.0643297
0.0647148
0.0647151
0.0651465
0.0651468
0.0656266
0.065627
0.0661568
0.0661572
0.0667378
0.0667382
0.0673696
0.0673698
0.0680498
0.0680498
0.0687736
0.0687733
0.0695336
0.069533
0.07032
0.0703194
0.071121
0.0711203
0.0719224
0.0719218
0.0727102
0.0727098
0.0734722
0.0734718
0.0741966
0.0741963
0.0748702
0.0748699
0.0754767
0.0754765
0.0760004
0.0760001
0.0764313
0.076431
0.0767696
0.0767693
0.0770237
0.0770234
0.077209
0.0772087
0.0773488
0.0773485
0.0774743
0.0774742
0.0776159
0.0776158
0.0777926
0.0777927
0.078011
0.078011
0.0782725
0.0782727
0.0785792
0.0785794
0.0789331
0.0789334
0.079336
0.0793363
0.0797892
0.0797897
0.0802934
0.0802939
0.0808446
0.0808453
0.0814336
0.0814343
0.0820458
0.0820467
0.0826649
0.082666
0.0832717
0.0832729
0.0838374
0.0838387
0.0843244
0.0843257
0.0846983
0.0846994
0.0849414
0.0849422
0.0850604
0.0850608
0.0850805
0.0850805
0.0850295
0.0850293
0.0849275
0.084927
0.0847899
0.0847894
0.0846371
0.0846368
0.0844905
0.0844903
0.0843631
0.0843631
0.0842587
0.0842589
0.0841791
0.0841794
0.0841327
0.084133
2.91776e-09
2.91776e-09
3.89106e-07
3.89106e-07
8.16305e-06
8.16304e-06
5.8112e-05
5.8112e-05
0.000201719
0.000201719
0.000442786
0.000442786
0.000753335
0.000753335
0.00111026
0.00111026
0.00149936
0.00149936
0.00191181
0.00191181
0.0023418
0.0023418
0.00278524
0.00278524
0.00323912
0.00323912
0.00370114
0.00370114
0.00416945
0.00416945
0.00464256
0.00464256
0.0051192
0.0051192
0.00559832
0.00559832
0.00607897
0.00607897
0.00656034
0.00656034
0.0070417
0.0070417
0.00752238
0.00752238
0.00800176
0.00800176
0.00847928
0.00847928
0.0089544
0.0089544
0.00942661
0.00942661
0.00989542
0.00989542
0.0103604
0.0103604
0.010821
0.010821
0.0112769
0.0112769
0.0117276
0.0117276
0.0121727
0.0121727
0.0126118
0.0126118
0.0130446
0.0130446
0.0134705
0.0134705
0.0138893
0.0138893
0.0143006
0.0143006
0.014704
0.014704
0.0150992
0.0150992
0.015486
0.015486
0.015864
0.015864
0.016233
0.016233
0.0165929
0.0165929
0.0169433
0.0169433
0.0172843
0.0172843
0.0176158
0.0176158
0.0179377
0.0179377
0.0182501
0.0182501
0.0185533
0.0185533
0.0188473
0.0188473
0.0191326
0.0191326
0.0194096
0.0194096
0.0196789
0.0196789
0.0199411
0.0199411
0.0201972
0.0201972
0.020448
0.020448
0.0206948
0.0206948
0.0209388
0.0209388
0.0211816
0.0211816
0.0214248
0.0214248
0.0216702
0.0216702
0.0219199
0.0219199
0.0221759
0.0221759
0.0224405
0.0224405
0.0227161
0.0227161
0.023005
0.023005
0.0233098
0.0233098
0.0236327
0.0236327
0.0239759
0.0239759
0.0243416
0.0243416
0.0247315
0.0247315
0.025147
0.025147
0.0255893
0.0255893
0.0260591
0.0260591
0.0265565
0.0265565
0.0270811
0.0270811
0.0276322
0.0276322
0.0282086
0.0282086
0.0288086
0.0288086
0.02943
0.02943
0.0300706
0.0300706
0.0307278
0.0307278
0.0313986
0.0313986
0.0320803
0.0320803
0.0327698
0.0327698
0.0334643
0.0334643
0.0341609
0.0341609
0.0348569
0.0348569
0.0355497
0.0355497
0.0362369
0.0362369
0.0369164
0.0369164
0.0375861
0.0375861
0.0382443
0.0382443
0.0388895
0.0388895
0.0395202
0.0395202
0.0401355
0.0401355
0.0407343
0.0407343
0.0413159
0.0413159
0.0418798
0.0418798
0.0424255
0.0424255
0.0429527
0.0429527
0.0434613
0.0434613
0.0439512
0.0439512
0.0444225
0.0444225
0.0448753
0.0448753
0.0453099
0.0453099
0.0457264
0.0457264
0.0461253
0.0461253
0.0465068
0.0465068
0.0468715
0.0468715
0.0472196
0.0472196
0.0475517
0.0475517
0.0478681
0.0478681
0.0481694
0.0481694
0.048456
0.048456
0.0487284
0.0487284
0.0489869
0.0489869
0.0492321
0.0492321
0.0494644
0.0494644
0.0496841
0.0496841
0.0498918
0.0498918
0.0500877
0.0500877
0.0502722
0.0502722
0.0504458
0.0504458
0.0506087
0.0506087
0.0507612
0.0507612
0.0509037
0.0509037
0.0510364
0.0510364
0.0511596
0.0511596
0.0512735
0.0512735
0.0513784
0.0513784
0.0514744
0.0514744
0.0515619
0.0515619
0.051641
0.051641
0.0517118
0.0517118
0.0517746
0.0517746
0.0518296
0.0518296
0.0518768
0.0518768
0.0519165
0.0519165
0.0519488
0.0519488
0.0519738
0.0519738
0.0519917
0.0519917
0.0520026
0.0520026
0.0520066
0.0520066
0.0520039
0.0520039
0.0519947
0.0519947
0.0519789
0.0519789
0.0519569
0.0519569
0.0519287
0.0519287
0.0518945
0.0518945
0.0518545
0.0518545
0.0518088
0.0518088
0.0517577
0.0517577
0.0517012
0.0517012
0.0516398
0.0516398
0.0515735
0.0515735
0.0515027
0.0515027
0.0514275
0.0514275
0.0513483
0.0513483
0.0512654
0.0512654
0.0511789
0.0511789
0.0510893
0.0510893
0.0509968
0.0509968
0.0509016
0.0509016
0.0508039
0.0508039
0.050704
0.050704
0.050602
0.050602
0.0504981
0.0504981
0.0503924
0.0503924
0.0502849
0.0502849
0.0501759
0.0501759
0.0500653
0.0500653
0.0499533
0.0499533
0.04984
0.04984
0.0497256
0.0497256
0.0496101
0.0496101
0.049494
0.049494
0.0493773
0.0493773
0.0492605
0.0492605
0.0491437
0.0491437
0.0490274
0.0490274
0.0489119
0.0489119
0.0487975
0.0487975
0.0486846
0.0486846
0.0485735
0.0485735
0.0484647
0.0484647
0.0483584
0.0483584
0.048255
0.048255
0.0481549
0.0481549
0.0480585
0.0480585
0.0479662
0.0479662
0.0478786
0.0478786
0.0477961
0.0477961
0.0477195
0.0477195
0.0476493
0.0476493
0.0475864
0.0475864
0.0475315
0.0475315
0.0474853
0.0474853
0.0474489
0.0474489
0.0474232
0.0474232
0.047409
0.047409
0.0474073
0.0474073
0.0474189
0.0474189
0.0474448
0.0474448
0.0474857
0.0474857
0.0475422
0.0475421
0.0476148
0.0476148
0.0477042
0.0477042
0.0478106
0.0478106
0.0479345
0.0479345
0.0480761
0.0480761
0.0482358
0.0482358
0.0484138
0.0484138
0.0486102
0.0486101
0.0488248
0.0488248
0.0490575
0.0490575
0.0493078
0.0493078
0.049575
0.049575
0.049858
0.049858
0.0501556
0.0501556
0.0504664
0.0504663
0.0507886
0.0507886
0.0511209
0.0511208
0.0514617
0.0514617
0.0518102
0.0518102
0.0521657
0.0521656
0.0525275
0.0525274
0.0528952
0.0528951
0.053268
0.0532679
0.0536447
0.0536446
0.0540238
0.0540237
0.0544035
0.0544035
0.0547822
0.0547821
0.0551583
0.0551583
0.0555308
0.0555307
0.0558987
0.0558986
0.0562615
0.0562614
0.0566191
0.056619
0.0569719
0.0569718
0.0573211
0.057321
0.057668
0.0576679
0.058014
0.0580139
0.0583601
0.05836
0.0587062
0.058706
0.0590511
0.059051
0.0593927
0.0593925
0.0597273
0.0597271
0.0600505
0.0600503
0.0603566
0.0603564
0.0606405
0.0606403
0.0608988
0.0608985
0.0611306
0.0611304
0.0613382
0.061338
0.0615265
0.0615263
0.0617021
0.0617018
0.0618722
0.061872
0.0620429
0.0620426
0.0622175
0.0622171
0.062397
0.0623966
0.0625812
0.0625808
0.0627712
0.0627708
0.0629704
0.06297
0.0631847
0.0631844
0.0634211
0.0634209
0.0636869
0.0636867
0.0639882
0.063988
0.0643298
0.0643296
0.0647152
0.0647149
0.065147
0.0651467
0.0656272
0.0656269
0.0661574
0.0661571
0.0667385
0.0667382
0.0673702
0.06737
0.0680503
0.0680503
0.0687739
0.0687742
0.0695337
0.0695343
0.0703201
0.0703208
0.0711211
0.0711218
0.0719227
0.0719233
0.0727106
0.0727111
0.0734725
0.0734729
0.074197
0.0741973
0.0748705
0.0748708
0.0754769
0.0754771
0.0760003
0.0760005
0.076431
0.0764313
0.0767691
0.0767694
0.0770231
0.0770234
0.0772082
0.0772085
0.077348
0.0773483
0.0774737
0.0774739
0.0776154
0.0776155
0.0777924
0.0777924
0.0780109
0.0780108
0.0782726
0.0782725
0.0785794
0.0785792
0.0789335
0.0789333
0.0793366
0.0793363
0.0797901
0.0797897
0.0802944
0.0802939
0.080846
0.0808454
0.0814352
0.0814345
0.0820477
0.0820468
0.0826671
0.082666
0.0832739
0.0832727
0.0838397
0.0838383
0.0843265
0.0843252
0.0846999
0.0846988
0.0849424
0.0849416
0.0850607
0.0850603
0.0850801
0.0850801
0.0850287
0.0850289
0.0849263
0.0849268
0.0847887
0.0847891
0.0846361
0.0846364
0.0844897
0.0844898
0.0843625
0.0843625
0.0842584
0.0842582
0.084179
0.0841788
0.0841328
0.0841325
0.0841318
0.0841321
0.0841765
0.0841768
0.0842541
0.0842542
0.0843557
0.0843557
0.0844806
0.0844805
0.0846243
0.084624
0.0847737
0.0847732
0.0849083
0.0849079
0.0850055
0.0850053
0.0850493
0.0850493
0.0850224
0.0850228
0.0848983
0.0848991
0.0846516
0.0846527
0.0842764
0.0842777
0.0837917
0.083793
0.0832307
0.0832319
0.0826289
0.08263
0.0820141
0.082015
0.0814057
0.0814064
0.0808203
0.080821
0.0802731
0.0802736
0.0797731
0.0797735
0.079324
0.0793243
0.0789252
0.0789254
0.0785752
0.0785754
0.0782723
0.0782725
0.0780144
0.0780145
0.0777996
0.0777996
0.0776262
0.0776261
0.0774874
0.0774873
0.0773649
0.0773647
0.0772279
0.0772276
0.077044
0.0770437
0.0767894
0.0767891
0.076449
0.0764487
0.0760143
0.076014
0.075487
0.0754868
0.0748779
0.0748777
0.0742026
0.0742023
0.073477
0.0734766
0.0727142
0.0727137
0.0719253
0.0719247
0.0711229
0.0711222
0.0703208
0.0703201
0.0695331
0.0695325
0.0687719
0.0687716
0.068047
0.068047
0.0673659
0.0673661
0.0667335
0.0667339
0.066152
0.0661523
0.0656214
0.0656218
0.0651409
0.0651412
0.0647088
0.0647091
0.0643232
0.0643234
0.0639814
0.0639816
0.06368
0.0636802
0.063414
0.0634143
0.0631774
0.0631776
0.0629629
0.0629632
0.0627639
0.0627643
0.0625743
0.0625747
0.0623902
0.0623906
0.0622106
0.062211
0.0620356
0.062036
0.0618644
0.0618646
0.0616934
0.0616937
0.0615174
0.0615176
0.061329
0.0613293
0.0611212
0.0611215
0.0608889
0.0608892
0.0606299
0.0606302
0.0603455
0.0603458
0.0600394
0.0600396
0.0597167
0.0597169
0.0593829
0.0593831
0.0590426
0.0590428
0.0586991
0.0586993
0.0583543
0.0583545
0.0580091
0.0580092
0.0576633
0.0576634
0.0573163
0.0573164
0.056967
0.0569671
0.0566139
0.056614
0.0562561
0.0562562
0.0558932
0.0558932
0.0555251
0.0555252
0.0551526
0.0551527
0.0547767
0.0547768
0.0543982
0.0543983
0.0540187
0.0540188
0.05364
0.0536401
0.0532638
0.0532639
0.0528917
0.0528917
0.0525248
0.0525249
0.0521639
0.0521639
0.0518091
0.0518092
0.0514611
0.0514611
0.0511206
0.0511206
0.0507886
0.0507887
0.0504666
0.0504666
0.0501561
0.0501561
0.0498587
0.0498588
0.0495759
0.0495759
0.0493089
0.0493089
0.0490586
0.0490586
0.0488257
0.0488258
0.0486109
0.0486109
0.0484144
0.0484144
0.0482363
0.0482363
0.0480764
0.0480764
0.0479347
0.0479347
0.0478108
0.0478108
0.0477044
0.0477045
0.0476152
0.0476152
0.0475425
0.0475426
0.0474861
0.0474861
0.0474454
0.0474454
0.0474196
0.0474196
0.0474081
0.0474081
0.0474099
0.0474099
0.0474241
0.0474241
0.0474499
0.0474499
0.0474863
0.0474863
0.0475325
0.0475325
0.0475875
0.0475875
0.0476504
0.0476504
0.0477206
0.0477206
0.0477973
0.0477973
0.0478797
0.0478797
0.0479674
0.0479674
0.0480597
0.0480597
0.0481562
0.0481562
0.0482563
0.0482563
0.0483596
0.0483596
0.0484659
0.0484659
0.0485748
0.0485748
0.0486858
0.0486858
0.0487987
0.0487987
0.0489131
0.0489131
0.0490286
0.0490286
0.049145
0.049145
0.0492617
0.0492617
0.0493786
0.0493786
0.0494953
0.0494953
0.0496115
0.0496115
0.0497269
0.0497269
0.0498414
0.0498414
0.0499547
0.0499547
0.0500667
0.0500667
0.0501773
0.0501773
0.0502864
0.0502864
0.0503939
0.0503939
0.0504996
0.0504996
0.0506036
0.0506036
0.0507056
0.0507056
0.0508056
0.0508056
0.0509033
0.0509033
0.0509985
0.0509985
0.0510911
0.0510911
0.0511807
0.0511807
0.0512671
0.0512671
0.0513501
0.0513501
0.0514293
0.0514293
0.0515045
0.0515045
0.0515753
0.0515753
0.0516416
0.0516416
0.0517031
0.0517031
0.0517596
0.0517596
0.0518108
0.0518108
0.0518565
0.0518565
0.0518965
0.0518965
0.0519308
0.0519308
0.051959
0.051959
0.0519811
0.0519811
0.0519968
0.0519968
0.0520062
0.0520062
0.0520089
0.0520089
0.0520049
0.0520049
0.0519941
0.0519941
0.0519763
0.0519763
0.0519514
0.0519514
0.0519192
0.0519192
0.0518796
0.0518796
0.0518324
0.0518324
0.0517776
0.0517776
0.0517148
0.0517148
0.051644
0.051644
0.0515649
0.0515649
0.0514775
0.0514775
0.0513815
0.0513815
0.0512766
0.0512766
0.0511628
0.0511628
0.0510397
0.0510397
0.050907
0.050907
0.0507645
0.0507645
0.050612
0.050612
0.0504491
0.0504491
0.0502756
0.0502756
0.050091
0.050091
0.049895
0.049895
0.0496873
0.0496873
0.0494675
0.0494675
0.0492352
0.0492352
0.0489899
0.0489899
0.0487312
0.0487312
0.0484587
0.0484587
0.048172
0.048172
0.0478707
0.0478707
0.0475542
0.0475542
0.0472221
0.0472221
0.046874
0.046874
0.0465093
0.0465094
0.0461278
0.0461278
0.045729
0.045729
0.0453124
0.0453124
0.0448779
0.0448779
0.0444251
0.0444251
0.0439537
0.0439537
0.0434638
0.0434638
0.0429552
0.0429553
0.0424281
0.0424281
0.0418824
0.0418824
0.0413187
0.0413187
0.0407371
0.0407371
0.0401384
0.0401384
0.0395232
0.0395232
0.0388924
0.0388924
0.0382471
0.0382471
0.0375886
0.0375886
0.0369185
0.0369185
0.0362387
0.0362387
0.0355511
0.0355511
0.0348581
0.0348581
0.034162
0.034162
0.0334652
0.0334652
0.0327705
0.0327705
0.0320807
0.0320807
0.0313988
0.0313988
0.0307277
0.0307277
0.0300702
0.0300702
0.0294293
0.0294293
0.0288076
0.0288076
0.0282074
0.0282074
0.0276307
0.0276307
0.0270794
0.0270794
0.0265545
0.0265545
0.0260569
0.0260569
0.0255869
0.0255869
0.0251444
0.0251444
0.0247286
0.0247286
0.0243385
0.0243385
0.0239727
0.0239727
0.0236293
0.0236293
0.0233063
0.0233063
0.0230014
0.0230014
0.0227123
0.0227123
0.0224367
0.0224367
0.022172
0.022172
0.0219159
0.0219159
0.0216662
0.0216662
0.0214207
0.0214207
0.0211775
0.0211775
0.0209347
0.0209347
0.0206907
0.0206907
0.020444
0.020444
0.0201932
0.0201932
0.0199372
0.0199372
0.0196752
0.0196752
0.0194061
0.0194061
0.0191292
0.0191292
0.018844
0.018844
0.01855
0.01855
0.0182471
0.0182471
0.0179348
0.0179348
0.0176131
0.0176131
0.0172818
0.0172818
0.0169409
0.0169409
0.0165906
0.0165906
0.0162309
0.0162309
0.015862
0.015862
0.0154841
0.0154841
0.0150975
0.0150975
0.0147024
0.0147024
0.014299
0.014299
0.0138879
0.0138879
0.0134692
0.0134692
0.0130433
0.0130433
0.0126107
0.0126107
0.0121716
0.0121716
0.0117266
0.0117266
0.0112759
0.0112759
0.0108201
0.0108201
0.0103596
0.0103596
0.0098947
0.0098947
0.00942597
0.00942597
0.00895383
0.00895383
0.00847878
0.00847878
0.00800132
0.00800132
0.00752198
0.00752198
0.00704135
0.00704135
0.00656003
0.00656003
0.0060787
0.0060787
0.00559808
0.00559808
0.00511901
0.00511901
0.00464239
0.00464239
0.00416932
0.00416932
0.00370103
0.00370103
0.00323904
0.00323904
0.00278517
0.00278517
0.00234175
0.00234175
0.00191178
0.00191178
0.00149934
0.00149934
0.00111025
0.00111025
0.000753331
0.000753331
0.000442785
0.000442785
0.00020172
0.00020172
5.81123e-05
5.81123e-05
8.16309e-06
8.1631e-06
3.89107e-07
3.89108e-07
2.91783e-09
2.91784e-09
0.0841321
0.0841317
0.0841769
0.0841766
0.0842544
0.0842542
0.0843559
0.0843559
0.0844807
0.0844808
0.0846242
0.0846245
0.0847735
0.0847739
0.0849082
0.0849086
0.0850055
0.0850057
0.0850494
0.0850494
0.0850228
0.0850224
0.0848991
0.0848983
0.0846526
0.0846515
0.0842775
0.0842762
0.0837927
0.0837914
0.0832316
0.0832304
0.0826296
0.0826285
0.0820147
0.0820138
0.0814061
0.0814053
0.0808207
0.0808201
0.0802734
0.0802728
0.0797734
0.079773
0.0793243
0.0793239
0.0789254
0.0789251
0.0785754
0.0785752
0.0782725
0.0782724
0.0780146
0.0780145
0.0777998
0.0777998
0.0776264
0.0776264
0.0774876
0.0774878
0.077365
0.0773653
0.0772279
0.0772282
0.077044
0.0770443
0.0767893
0.0767896
0.0764489
0.0764492
0.0760141
0.0760144
0.0754868
0.075487
0.0748776
0.0748778
0.0742021
0.0742024
0.0734764
0.0734768
0.0727134
0.0727139
0.0719244
0.071925
0.0711219
0.0711226
0.0703197
0.0703204
0.0695322
0.0695327
0.0687714
0.0687717
0.0680468
0.0680467
0.067366
0.0673657
0.0667337
0.0667334
0.0661522
0.0661519
0.0656217
0.0656213
0.0651412
0.0651409
0.0647091
0.0647088
0.0643234
0.0643232
0.0639816
0.0639814
0.0636802
0.06368
0.0634144
0.0634141
0.0631777
0.0631775
0.0629634
0.062963
0.0627644
0.062764
0.0625748
0.0625745
0.0623907
0.0623904
0.0622111
0.0622108
0.0620361
0.0620358
0.0618648
0.0618645
0.0616939
0.0616936
0.0615178
0.0615175
0.0613294
0.0613291
0.0611216
0.0611213
0.0608893
0.060889
0.0606302
0.06063
0.0603458
0.0603456
0.0600397
0.0600395
0.0597169
0.0597167
0.0593831
0.0593829
0.0590428
0.0590426
0.0586992
0.0586991
0.0583544
0.0583542
0.0580091
0.058009
0.0576633
0.0576632
0.0573163
0.0573162
0.0569669
0.0569668
0.0566138
0.0566137
0.056256
0.0562559
0.0558931
0.055893
0.055525
0.0555249
0.0551525
0.0551525
0.0547766
0.0547765
0.0543981
0.054398
0.0540186
0.0540185
0.0536399
0.0536398
0.0532637
0.0532636
0.0528915
0.0528915
0.0525247
0.0525246
0.0521637
0.0521637
0.051809
0.0518089
0.0514609
0.0514609
0.0511204
0.0511204
0.0507885
0.0507884
0.0504664
0.0504664
0.0501559
0.0501559
0.0498586
0.0498585
0.0495758
0.0495757
0.0493087
0.0493087
0.0490585
0.0490584
0.0488256
0.0488256
0.0486108
0.0486108
0.0484143
0.0484143
0.0482361
0.0482361
0.0480763
0.0480763
0.0479346
0.0479346
0.0478107
0.0478107
0.0477043
0.0477043
0.0476151
0.0476151
0.0475425
0.0475425
0.0474861
0.047486
0.0474453
0.0474453
0.0474196
0.0474195
0.047408
0.047408
0.0474098
0.0474098
0.0474241
0.0474241
0.0474498
0.0474498
0.0474863
0.0474863
0.0475324
0.0475324
0.0475874
0.0475874
0.0476504
0.0476504
0.0477206
0.0477206
0.0477972
0.0477972
0.0478797
0.0478797
0.0479674
0.0479674
0.0480597
0.0480597
0.0481561
0.0481561
0.0482562
0.0482562
0.0483596
0.0483596
0.0484659
0.0484659
0.0485747
0.0485747
0.0486858
0.0486858
0.0487987
0.0487987
0.0489131
0.0489131
0.0490286
0.0490286
0.0491449
0.0491449
0.0492617
0.0492617
0.0493786
0.0493786
0.0494952
0.0494952
0.0496114
0.0496114
0.0497269
0.0497269
0.0498414
0.0498414
0.0499547
0.0499547
0.0500667
0.0500667
0.0501773
0.0501773
0.0502864
0.0502864
0.0503939
0.0503939
0.0504996
0.0504996
0.0506036
0.0506036
0.0507056
0.0507056
0.0508055
0.0508055
0.0509032
0.0509032
0.0509985
0.0509985
0.051091
0.051091
0.0511807
0.0511807
0.0512671
0.0512671
0.0513501
0.0513501
0.0514293
0.0514293
0.0515044
0.0515044
0.0515753
0.0515753
0.0516416
0.0516416
0.0517031
0.0517031
0.0517596
0.0517596
0.0518107
0.0518107
0.0518565
0.0518565
0.0518965
0.0518965
0.0519308
0.0519308
0.051959
0.051959
0.0519811
0.0519811
0.0519968
0.0519968
0.0520061
0.0520061
0.0520089
0.0520089
0.0520049
0.0520049
0.0519941
0.0519941
0.0519763
0.0519763
0.0519513
0.0519513
0.0519192
0.0519192
0.0518796
0.0518796
0.0518324
0.0518324
0.0517775
0.0517775
0.0517148
0.0517148
0.051644
0.051644
0.0515649
0.0515649
0.0514775
0.0514775
0.0513814
0.0513814
0.0512766
0.0512766
0.0511628
0.0511628
0.0510396
0.0510396
0.050907
0.050907
0.0507645
0.0507645
0.050612
0.050612
0.0504491
0.0504491
0.0502755
0.0502755
0.050091
0.050091
0.049895
0.049895
0.0496873
0.0496873
0.0494675
0.0494675
0.0492352
0.0492352
0.0489899
0.0489899
0.0487312
0.0487312
0.0484587
0.0484587
0.048172
0.048172
0.0478707
0.0478707
0.0475542
0.0475542
0.0472221
0.0472221
0.046874
0.046874
0.0465093
0.0465093
0.0461278
0.0461278
0.0457289
0.0457289
0.0453124
0.0453124
0.0448779
0.0448779
0.044425
0.044425
0.0439537
0.0439537
0.0434638
0.0434638
0.0429552
0.0429552
0.0424281
0.042428
0.0418824
0.0418824
0.0413187
0.0413187
0.0407371
0.0407371
0.0401384
0.0401384
0.0395232
0.0395231
0.0388923
0.0388923
0.0382471
0.0382471
0.0375886
0.0375886
0.0369185
0.0369185
0.0362387
0.0362387
0.0355511
0.0355511
0.0348581
0.0348581
0.034162
0.034162
0.0334652
0.0334652
0.0327705
0.0327705
0.0320807
0.0320807
0.0313988
0.0313988
0.0307277
0.0307277
0.0300702
0.0300702
0.0294293
0.0294293
0.0288076
0.0288076
0.0282074
0.0282074
0.0276307
0.0276307
0.0270794
0.0270794
0.0265545
0.0265545
0.0260569
0.0260569
0.0255869
0.0255869
0.0251444
0.0251444
0.0247286
0.0247286
0.0243385
0.0243385
0.0239727
0.0239727
0.0236293
0.0236293
0.0233063
0.0233063
0.0230014
0.0230014
0.0227123
0.0227123
0.0224367
0.0224367
0.022172
0.022172
0.0219159
0.0219159
0.0216662
0.0216662
0.0214207
0.0214207
0.0211775
0.0211775
0.0209347
0.0209347
0.0206907
0.0206907
0.020444
0.020444
0.0201932
0.0201932
0.0199373
0.0199373
0.0196752
0.0196752
0.0194061
0.0194061
0.0191292
0.0191292
0.018844
0.018844
0.01855
0.01855
0.0182471
0.0182471
0.0179348
0.0179348
0.0176131
0.0176131
0.0172818
0.0172818
0.0169409
0.0169409
0.0165906
0.0165906
0.0162309
0.0162309
0.015862
0.015862
0.0154841
0.0154841
0.0150975
0.0150975
0.0147024
0.0147024
0.014299
0.014299
0.0138879
0.0138879
0.0134692
0.0134692
0.0130433
0.0130433
0.0126107
0.0126107
0.0121716
0.0121716
0.0117266
0.0117266
0.0112759
0.0112759
0.0108201
0.0108201
0.0103596
0.0103596
0.00989471
0.00989471
0.00942597
0.00942597
0.00895383
0.00895383
0.00847878
0.00847878
0.00800132
0.00800132
0.00752198
0.00752198
0.00704135
0.00704135
0.00656003
0.00656003
0.0060787
0.0060787
0.00559808
0.00559808
0.00511901
0.00511901
0.00464239
0.00464239
0.00416932
0.00416932
0.00370103
0.00370103
0.00323904
0.00323904
0.00278517
0.00278517
0.00234175
0.00234175
0.00191178
0.00191178
0.00149934
0.00149934
0.00111025
0.00111025
0.000753331
0.000753331
0.000442785
0.000442785
0.00020172
0.00020172
5.81123e-05
5.81122e-05
8.16309e-06
8.16309e-06
3.89107e-07
3.89107e-07
2.91784e-09
2.91783e-09
)
;

boundaryField
{
    walls
    {
        type            nutUWallFunction;
        blending        stepwise;
        Cmu             0.09;
        kappa           0.41;
        E               9.8;
        value           uniform 0;
    }
    inlet
    {
        type            cyclic;
    }
    outlet
    {
        type            cyclic;
    }
    sides
    {
        type            empty;
    }
}


// ************************************************************************* //
