/*--------------------------------*- C++ -*----------------------------------*\
| =========                 |                                                 |
| \\      /  F ield         | OpenFOAM: The Open Source CFD Toolbox           |
|  \\    /   O peration     | Version:  2012                                  |
|   \\  /    A nd           | Website:  www.openfoam.com                      |
|    \\/     M anipulation  |                                                 |
\*---------------------------------------------------------------------------*/
FoamFile
{
    version     2.0;
    format      ascii;
    class       volSymmTensorField;
    location    "13500";
    object      turbulenceProperties:R;
}
// * * * * * * * * * * * * * * * * * * * * * * * * * * * * * * * * * * * * * //

dimensions      [0 2 -2 0 0 0 0];


internalField   nonuniform List<symmTensor> 
2560
(
(0.00296475 -3.40276e-06 -4.92852e-09 0.00296475 1.78534e-11 0.00296475)
(0.00296475 -3.40277e-06 -4.92852e-09 0.00296475 1.44965e-15 0.00296475)
(0.0686985 -0.000453234 -1.97975e-06 0.0686985 -1.25873e-13 0.0686985)
(0.0686986 -0.000453235 -1.97975e-06 0.0686986 5.71206e-13 0.0686986)
(0.482994 -0.00949638 -5.69702e-05 0.482994 -1.44603e-08 0.482994)
(0.482994 -0.0094964 -5.69704e-05 0.482994 2.06757e-11 0.482994)
(1.59194 -0.0675136 -0.000410897 1.59194 -1.37972e-07 1.59194)
(1.59194 -0.0675138 -0.000410898 1.59194 1.58156e-10 1.59194)
(3.2037 -0.234023 -0.00144496 3.2037 -3.41316e-07 3.2037)
(3.2037 -0.234024 -0.00144496 3.2037 4.23648e-10 3.2037)
(4.84462 -0.512942 -0.0032131 4.84462 -3.88002e-07 4.84462)
(4.84462 -0.512942 -0.00321311 4.84462 7.42495e-10 4.84462)
(6.34746 -0.871399 -0.0055379 6.34746 -3.34108e-07 6.34746)
(6.34746 -0.8714 -0.0055379 6.34746 1.38018e-09 6.34746)
(7.7131 -1.2824 -0.00826859 7.7131 -2.72959e-07 7.7131)
(7.7131 -1.2824 -0.0082686 7.7131 2.39132e-09 7.7131)
(8.96973 -1.72942 -0.0113135 8.96973 -2.26308e-07 8.96973)
(8.96973 -1.72942 -0.0113135 8.96973 3.77111e-09 8.96973)
(10.1417 -2.20234 -0.0146176 10.1417 -1.93423e-07 10.1417)
(10.1417 -2.20234 -0.0146177 10.1417 5.45997e-09 10.1417)
(11.2467 -2.69458 -0.0181463 11.2467 -1.70926e-07 11.2467)
(11.2467 -2.69459 -0.0181463 11.2467 7.5429e-09 11.2467)
(12.2973 -3.20169 -0.0218768 12.2973 -1.56333e-07 12.2973)
(12.2973 -3.20169 -0.0218768 12.2973 9.9885e-09 12.2973)
(13.3026 -3.72047 -0.0257936 13.3026 -1.48024e-07 13.3026)
(13.3026 -3.72047 -0.0257936 13.3026 1.28212e-08 13.3026)
(14.269 -4.24859 -0.0298863 14.269 -1.45025e-07 14.269)
(14.269 -4.24859 -0.0298863 14.269 1.61064e-08 14.269)
(15.2016 -4.78425 -0.0341472 15.2016 -1.4681e-07 15.2016)
(15.2016 -4.78425 -0.0341472 15.2016 1.98302e-08 15.2016)
(16.1037 -5.32605 -0.0385709 16.1037 -1.53064e-07 16.1037)
(16.1037 -5.32605 -0.0385709 16.1037 2.40435e-08 16.1037)
(16.9782 -5.87285 -0.0431533 16.9782 -1.63739e-07 16.9782)
(16.9782 -5.87285 -0.0431533 16.9782 2.8721e-08 16.9782)
(17.8269 -6.42365 -0.0478911 17.8269 -1.78849e-07 17.8269)
(17.8269 -6.42364 -0.0478911 17.8269 2.08698e-08 17.8269)
(18.6513 -6.97754 -0.052781 18.6513 -1.98527e-07 18.6513)
(18.6513 -6.97754 -0.052781 18.6513 -3.33365e-09 18.6513)
(19.4522 -7.53368 -0.0578201 19.4522 -2.23006e-07 19.4522)
(19.4522 -7.53368 -0.0578201 19.4522 -2.23272e-07 19.4522)
(20.2304 -8.09119 -0.0630047 20.2304 -2.52554e-07 20.2304)
(20.2304 -8.09119 -0.0630046 20.2304 -2.52852e-07 20.2304)
(20.9861 -8.64914 -0.0683302 20.9861 -2.87495e-07 20.9861)
(20.9861 -8.64914 -0.0683302 20.9861 -2.87826e-07 20.9861)
(21.7193 -9.20653 -0.0737914 21.7193 -1.72136e-07 21.7193)
(21.7193 -9.20653 -0.0737914 21.7193 -3.28494e-07 21.7193)
(22.4299 -9.76229 -0.0793817 22.4299 -8.85665e-08 22.4299)
(22.4299 -9.76229 -0.0793816 22.4299 -3.75418e-07 22.4299)
(23.1175 -10.3152 -0.0850927 23.1175 -9.42537e-08 23.1175)
(23.1175 -10.3152 -0.0850927 23.1175 -4.28846e-07 23.1175)
(23.7816 -10.8639 -0.0909144 23.7816 -1.05144e-07 23.7816)
(23.7816 -10.8639 -0.0909144 23.7816 -4.89449e-07 23.7816)
(24.4214 -11.4069 -0.0968352 24.4214 -1.16762e-07 24.4214)
(24.4214 -11.4068 -0.0968352 24.4214 -5.575e-07 24.4214)
(25.0362 -11.9425 -0.102841 25.0362 -1.29745e-07 25.0362)
(25.0362 -11.9425 -0.102841 25.0362 -6.33867e-07 25.0362)
(25.6251 -12.469 -0.108916 25.6251 -1.43275e-07 25.6251)
(25.6251 -12.469 -0.108916 25.6251 -7.18715e-07 25.6251)
(26.1869 -12.9843 -0.115042 26.1869 -1.5761e-07 26.1869)
(26.1869 -12.9843 -0.115042 26.1869 -5.42225e-07 26.1869)
(26.7208 -13.4865 -0.121197 26.7207 -1.72705e-07 26.7208)
(26.7207 -13.4865 -0.121197 26.7207 -1.91709e-10 26.7207)
(27.2253 -13.9732 -0.127359 27.2253 -1.89492e-07 27.2253)
(27.2253 -13.9732 -0.127359 27.2253 3.99038e-08 27.2253)
(27.6995 -14.4421 -0.133502 27.6995 -2.0675e-07 27.6995)
(27.6995 -14.4421 -0.133502 27.6995 3.08044e-08 27.6995)
(28.142 -14.8907 -0.139597 28.142 -2.2494e-07 28.142)
(28.142 -14.8907 -0.139597 28.142 2.17842e-08 28.142)
(28.5517 -15.3164 -0.145615 28.5517 -2.44262e-07 28.5517)
(28.5517 -15.3163 -0.145615 28.5517 1.3161e-08 28.5517)
(28.9273 -15.7166 -0.151522 28.9273 -2.65334e-07 28.9273)
(28.9273 -15.7166 -0.151522 28.9273 4.47755e-09 28.9273)
(29.2676 -16.0886 -0.157285 29.2676 -2.8694e-07 29.2676)
(29.2676 -16.0886 -0.157285 29.2676 -3.6051e-09 29.2676)
(29.5715 -16.4297 -0.162865 29.5715 -3.09562e-07 29.5715)
(29.5715 -16.4297 -0.162865 29.5715 -1.17231e-08 29.5715)
(29.838 -16.7371 -0.168225 29.838 -3.33513e-07 29.838)
(29.838 -16.7371 -0.168225 29.838 -1.95909e-08 29.838)
(30.0661 -17.0084 -0.173326 30.0661 -3.59448e-07 30.0661)
(30.0661 -17.0084 -0.173326 30.0661 -2.75903e-08 30.0661)
(30.255 -17.2408 -0.178126 30.255 -3.86213e-07 30.255)
(30.255 -17.2408 -0.178126 30.255 -3.51251e-08 30.255)
(30.404 -17.432 -0.182583 30.404 -4.13799e-07 30.404)
(30.404 -17.432 -0.182583 30.404 -4.26515e-08 30.404)
(30.5127 -17.5794 -0.186656 30.5127 -4.42945e-07 30.5127)
(30.5127 -17.5794 -0.186656 30.5127 -4.9968e-08 30.5127)
(30.5807 -17.6811 -0.190304 30.5807 -4.74379e-07 30.5807)
(30.5807 -17.6811 -0.190304 30.5807 -2.66143e-07 30.5807)
(30.608 -17.735 -0.193483 30.608 -5.05959e-07 30.608)
(30.608 -17.735 -0.193483 30.608 -5.02599e-07 30.608)
(30.5947 -17.7393 -0.196154 30.5947 -5.39931e-07 30.5947)
(30.5947 -17.7393 -0.196154 30.5947 -5.40876e-07 30.5947)
(30.5412 -17.6927 -0.198277 30.5412 -5.73706e-07 30.5412)
(30.5412 -17.6927 -0.198277 30.5412 -5.75042e-07 30.5412)
(30.4483 -17.594 -0.199815 30.4483 -6.12586e-07 30.4483)
(30.4483 -17.594 -0.199815 30.4483 -6.13568e-07 30.4483)
(30.3169 -17.4421 -0.200731 30.3169 -6.49102e-07 30.3169)
(30.3169 -17.4421 -0.200731 30.3169 -6.50102e-07 30.3169)
(30.1484 -17.2365 -0.200993 30.1484 -6.84705e-07 30.1484)
(30.1484 -17.2365 -0.200993 30.1484 -6.85722e-07 30.1484)
(29.9443 -16.9773 -0.200575 29.9443 -7.2832e-07 29.9443)
(29.9443 -16.9773 -0.200575 29.9443 -7.29554e-07 29.9443)
(29.7067 -16.6645 -0.199447 29.7067 -7.72734e-07 29.7067)
(29.7067 -16.6645 -0.199447 29.7067 -7.75613e-07 29.7067)
(29.4379 -16.2982 -0.197583 29.4379 -8.05713e-07 29.4379)
(29.4379 -16.2982 -0.197583 29.4379 -8.11365e-07 29.4379)
(29.1404 -15.8797 -0.194973 29.1404 -8.58297e-07 29.1404)
(29.1404 -15.8797 -0.194973 29.1404 -8.62728e-07 29.1404)
(28.8171 -15.41 -0.191596 28.8171 -8.98463e-07 28.8171)
(28.8171 -15.41 -0.191596 28.8171 -9.02169e-07 28.8171)
(28.4714 -14.8905 -0.187441 28.4714 -9.46086e-07 28.4714)
(28.4714 -14.8905 -0.187441 28.4714 -9.47193e-07 28.4714)
(28.1068 -14.3231 -0.182508 28.1068 -9.94305e-07 28.1068)
(28.1068 -14.3231 -0.182508 28.1068 -9.96118e-07 28.1068)
(27.7269 -13.71 -0.176792 27.7269 -1.03189e-06 27.7269)
(27.7269 -13.71 -0.176792 27.7269 -1.03677e-06 27.7269)
(27.3359 -13.0535 -0.1703 27.3359 -1.08375e-06 27.3359)
(27.3359 -13.0535 -0.1703 27.3359 -1.08681e-06 27.3359)
(26.9379 -12.3563 -0.163036 26.9379 -1.12684e-06 26.9379)
(26.9379 -12.3563 -0.163036 26.9379 -1.13097e-06 26.9379)
(26.5372 -11.6209 -0.155011 26.5372 -1.17733e-06 26.5372)
(26.5372 -11.6209 -0.155011 26.5372 -1.17953e-06 26.5372)
(26.1383 -10.8501 -0.146235 26.1383 -1.21249e-06 26.1383)
(26.1383 -10.8501 -0.146235 26.1383 -1.21624e-06 26.1383)
(25.7457 -10.047 -0.13673 25.7457 -1.25333e-06 25.7457)
(25.7457 -10.047 -0.13673 25.7457 -1.25606e-06 25.7457)
(25.3637 -9.21477 -0.126516 25.3637 -1.30417e-06 25.3637)
(25.3637 -9.21477 -0.126516 25.3637 -1.30677e-06 25.3637)
(24.9966 -8.35597 -0.115603 24.9966 -1.33254e-06 24.9966)
(24.9966 -8.35597 -0.115603 24.9966 -1.33378e-06 24.9966)
(24.6485 -7.47349 -0.104021 24.6485 -1.36462e-06 24.6485)
(24.6485 -7.47349 -0.104021 24.6485 -1.3695e-06 24.6485)
(24.3233 -6.57051 -0.0917941 24.3233 -1.40207e-06 24.3233)
(24.3233 -6.57051 -0.0917941 24.3233 -1.40673e-06 24.3233)
(24.0245 -5.64966 -0.0789403 24.0245 -1.42052e-06 24.0245)
(24.0245 -5.64966 -0.0789403 24.0245 -1.4326e-06 24.0245)
(23.7552 -4.71349 -0.0654846 23.7552 -1.45861e-06 23.7552)
(23.7552 -4.71349 -0.0654846 23.7552 -1.47056e-06 23.7552)
(23.5181 -3.76462 -0.0514506 23.5181 -1.45344e-06 23.5181)
(23.5181 -3.76461 -0.0514506 23.5181 -1.47469e-06 23.5181)
(23.3151 -2.8058 -0.0368714 23.3151 -1.49799e-06 23.3151)
(23.3151 -2.8058 -0.0368714 23.3151 -1.51528e-06 23.3151)
(23.1478 -1.83955 -0.0217657 23.1478 -1.48917e-06 23.1478)
(23.1478 -1.83955 -0.0217656 23.1478 -1.51166e-06 23.1478)
(23.0172 -0.754097 -0.00617296 23.0172 -1.52587e-06 23.0172)
(23.0172 -0.754094 -0.00617294 23.0172 -1.53993e-06 23.0172)
(22.9235 0.000219714 -1.82471e-06 22.9235 -1.52093e-06 22.9235)
(22.9235 0.000220843 -1.83408e-06 22.9235 -1.53958e-06 22.9235)
(22.8662 1.07619 -0.0100589 22.8662 -1.5511e-06 22.8662)
(22.8662 1.07619 -0.0100589 22.8662 -1.56072e-06 22.8662)
(22.8445 2.04395 -0.0268494 22.8445 -1.54231e-06 22.8445)
(22.8445 2.04396 -0.0268494 22.8445 -1.55797e-06 22.8445)
(22.8567 3.00396 -0.0440353 22.8567 -1.56958e-06 22.8567)
(22.8567 3.00396 -0.0440353 22.8567 -1.5728e-06 22.8567)
(22.9007 3.95213 -0.061547 22.9007 -1.57503e-06 22.9007)
(22.9007 3.95213 -0.061547 22.9007 -1.58073e-06 22.9007)
(22.974 4.88456 -0.0793142 22.974 -1.58988e-06 22.974)
(22.974 4.88457 -0.0793143 22.974 -1.59747e-06 22.974)
(23.0735 5.79712 -0.0972638 23.0735 -1.6141e-06 23.0735)
(23.0735 5.79712 -0.0972638 23.0735 -1.61653e-06 23.0735)
(23.196 6.68525 -0.115308 23.196 -1.6111e-06 23.196)
(23.196 6.68525 -0.115308 23.196 -1.6292e-06 23.196)
(23.3379 7.54418 -0.133351 23.3379 -1.6581e-06 23.3379)
(23.3379 7.54419 -0.133351 23.3379 -1.66835e-06 23.3379)
(23.4954 8.36949 -0.151285 23.4954 -1.65747e-06 23.4954)
(23.4954 8.36949 -0.151285 23.4954 -1.67949e-06 23.4954)
(23.6648 9.15686 -0.169017 23.6648 -1.70942e-06 23.6648)
(23.6648 9.15686 -0.169017 23.6648 -1.71699e-06 23.6648)
(23.8422 9.90184 -0.186433 23.8422 -1.73319e-06 23.8422)
(23.8422 9.90185 -0.186434 23.8422 -1.75083e-06 23.8422)
(24.0239 10.6008 -0.203428 24.0239 -1.78925e-06 24.0239)
(24.0239 10.6008 -0.203428 24.0239 -1.79507e-06 24.0239)
(24.2062 11.2506 -0.219907 24.2062 -1.81049e-06 24.2062)
(24.2062 11.2506 -0.219907 24.2062 -1.83081e-06 24.2062)
(24.3857 11.8483 -0.235776 24.3857 -1.87539e-06 24.3857)
(24.3857 11.8483 -0.235776 24.3857 -1.88287e-06 24.3857)
(24.559 12.3917 -0.250944 24.559 -1.89478e-06 24.559)
(24.559 12.3917 -0.250944 24.559 -1.91792e-06 24.559)
(24.7233 12.8788 -0.26533 24.7233 -1.97451e-06 24.7233)
(24.7233 12.8788 -0.26533 24.7233 -1.98153e-06 24.7233)
(24.8757 13.3086 -0.278857 24.8757 -2.01554e-06 24.8757)
(24.8757 13.3086 -0.278857 24.8757 -2.03314e-06 24.8757)
(25.0138 13.6812 -0.291473 25.0138 -2.08568e-06 25.0138)
(25.0138 13.6812 -0.291473 25.0138 -2.08764e-06 25.0138)
(25.1355 13.9967 -0.303138 25.1355 -2.12247e-06 25.1355)
(25.1355 13.9967 -0.303138 25.1355 -2.13675e-06 25.1355)
(25.239 14.2558 -0.313815 25.239 -2.18928e-06 25.239)
(25.239 14.2558 -0.313815 25.239 -2.19392e-06 25.239)
(25.3228 14.4599 -0.323473 25.3228 -2.26762e-06 25.3228)
(25.3228 14.4599 -0.323473 25.3228 -2.26965e-06 25.3228)
(25.3857 14.6112 -0.332108 25.3857 -2.29008e-06 25.3857)
(25.3857 14.6112 -0.332108 25.3857 -2.31101e-06 25.3857)
(25.4268 14.7118 -0.339732 25.4268 -2.36946e-06 25.4268)
(25.4268 14.7118 -0.339732 25.4268 -2.37154e-06 25.4268)
(25.4455 14.7642 -0.346339 25.4455 -2.42489e-06 25.4455)
(25.4455 14.7642 -0.346339 25.4455 -2.427e-06 25.4455)
(25.4414 14.7714 -0.351954 25.4414 -2.46667e-06 25.4414)
(25.4414 14.7714 -0.351954 25.4414 -2.48548e-06 25.4414)
(25.4144 14.7367 -0.35661 25.4144 -2.55205e-06 25.4144)
(25.4144 14.7367 -0.35661 25.4144 -2.55777e-06 25.4144)
(25.3645 14.6633 -0.36034 25.3645 -2.56699e-06 25.3645)
(25.3645 14.6633 -0.36034 25.3645 -2.59082e-06 25.3645)
(25.2921 14.5546 -0.363192 25.2921 -2.62939e-06 25.2921)
(25.2921 14.5546 -0.363192 25.2921 -2.63157e-06 25.2921)
(25.1975 14.4137 -0.365206 25.1975 -2.68203e-06 25.1975)
(25.1975 14.4137 -0.365206 25.1975 -2.68919e-06 25.1975)
(25.0813 14.2442 -0.366428 25.0813 -2.72203e-06 25.0813)
(25.0813 14.2442 -0.366428 25.0813 -2.72425e-06 25.0813)
(24.9443 14.0493 -0.366915 24.9443 -2.75588e-06 24.9443)
(24.9443 14.0493 -0.366915 24.9443 -2.77258e-06 24.9443)
(24.7873 13.8322 -0.366719 24.7873 -2.81052e-06 24.7873)
(24.7873 13.8322 -0.366719 24.7873 -2.81276e-06 24.7873)
(24.6111 13.596 -0.365898 24.6111 -2.81535e-06 24.6111)
(24.6111 13.596 -0.365898 24.6111 -2.8399e-06 24.6111)
(24.4167 13.3435 -0.364506 24.4167 -2.87657e-06 24.4167)
(24.4167 13.3435 -0.364506 24.4167 -2.88074e-06 24.4167)
(24.2052 13.0773 -0.362588 24.2052 -2.87223e-06 24.2052)
(24.2052 13.0773 -0.362588 24.2052 -2.89442e-06 24.2052)
(23.9774 12.8002 -0.360207 23.9774 -2.90086e-06 23.9774)
(23.9774 12.8002 -0.360207 23.9774 -2.90315e-06 23.9774)
(23.7346 12.514 -0.357407 23.7346 -2.93044e-06 23.7346)
(23.7346 12.514 -0.357407 23.7346 -2.9327e-06 23.7346)
(23.4777 12.2212 -0.354226 23.4777 -2.93501e-06 23.4777)
(23.4777 12.2212 -0.354227 23.4777 -2.93733e-06 23.4777)
(23.2078 11.9236 -0.350724 23.2078 -2.93047e-06 23.2078)
(23.2078 11.9236 -0.350724 23.2078 -2.95356e-06 23.2078)
(22.926 11.623 -0.346937 22.926 -2.95523e-06 22.926)
(22.926 11.623 -0.346937 22.926 -2.96602e-06 22.926)
(22.6333 11.3207 -0.342902 22.6333 -2.90879e-06 22.6333)
(22.6333 11.3207 -0.342902 22.6333 -2.95185e-06 22.6333)
(22.3307 11.0182 -0.338655 22.3307 -2.95364e-06 22.3307)
(22.3307 11.0182 -0.338655 22.3307 -2.98479e-06 22.3307)
(22.0192 10.7168 -0.334231 22.0192 -2.88345e-06 22.0192)
(22.0192 10.7168 -0.334231 22.0192 -2.94243e-06 22.0192)
(21.6996 10.4174 -0.329662 21.6996 -2.92256e-06 21.6996)
(21.6996 10.4174 -0.329662 21.6996 -2.96588e-06 21.6996)
(21.373 10.1209 -0.324973 21.373 -2.8213e-06 21.373)
(21.373 10.1209 -0.324973 21.373 -2.89451e-06 21.373)
(21.0402 9.82811 -0.320193 21.0402 -2.88359e-06 21.0402)
(21.0402 9.82811 -0.320193 21.0402 -2.94023e-06 21.0402)
(20.7019 9.53955 -0.315335 20.7019 -2.77637e-06 20.7019)
(20.7019 9.53955 -0.315335 20.7019 -2.85185e-06 20.7019)
(20.3591 9.25586 -0.310425 20.3591 -2.82289e-06 20.3591)
(20.3591 9.25586 -0.310425 20.3591 -2.87397e-06 20.3591)
(20.0124 8.97749 -0.305481 20.0124 -2.71851e-06 20.0124)
(20.0124 8.9775 -0.305481 20.0124 -2.78405e-06 20.0124)
(19.6624 8.70469 -0.300518 19.6624 -2.73551e-06 19.6624)
(19.6624 8.70469 -0.300518 19.6624 -2.77437e-06 19.6624)
(19.31 8.43765 -0.295544 19.31 -2.64848e-06 19.31)
(19.31 8.43765 -0.295544 19.31 -2.70337e-06 19.31)
(18.9556 8.17657 -0.290571 18.9556 -2.63985e-06 18.9556)
(18.9556 8.17657 -0.290571 18.9556 -2.67923e-06 18.9556)
(18.5999 7.92147 -0.285608 18.5999 -2.52856e-06 18.5999)
(18.5999 7.92147 -0.285608 18.5999 -2.59689e-06 18.5999)
(18.2434 7.67234 -0.280655 18.2434 -2.5395e-06 18.2434)
(18.2434 7.67234 -0.280655 18.2434 -2.60637e-06 18.2434)
(17.8866 7.42923 -0.275721 17.8866 -2.36525e-06 17.8866)
(17.8866 7.42923 -0.275721 17.8866 -2.46597e-06 17.8866)
(17.5299 7.19196 -0.270809 17.5299 -2.40509e-06 17.5299)
(17.5299 7.19196 -0.270809 17.5299 -2.50033e-06 17.5299)
(17.1739 6.96042 -0.265912 17.1739 -2.22632e-06 17.1739)
(17.1739 6.96042 -0.265912 17.1739 -2.34612e-06 17.1739)
(16.8188 6.73458 -0.261037 16.8188 -2.2604e-06 16.8188)
(16.8188 6.73458 -0.261037 16.8188 -2.37934e-06 16.8188)
(16.4652 6.51429 -0.256184 16.4651 -2.02257e-06 16.4652)
(16.4651 6.51429 -0.256184 16.4651 -2.17665e-06 16.4651)
(16.1132 6.29942 -0.251352 16.1132 -2.09606e-06 16.1132)
(16.1132 6.29942 -0.251352 16.1132 -2.25488e-06 16.1132)
(15.7633 6.08988 -0.24654 15.7633 -1.83028e-06 15.7633)
(15.7633 6.08988 -0.24654 15.7633 -2.01963e-06 15.7633)
(15.4157 5.8856 -0.24175 15.4157 -1.9204e-06 15.4157)
(15.4157 5.8856 -0.24175 15.4157 -2.12098e-06 15.4157)
(15.0708 5.68654 -0.236986 15.0708 -1.59047e-06 15.0708)
(15.0708 5.68654 -0.236986 15.0708 -1.83001e-06 15.0708)
(14.7287 5.49259 -0.23225 14.7287 -1.7216e-06 14.7287)
(14.7287 5.49259 -0.23225 14.7287 -1.98201e-06 14.7287)
(14.3898 5.3036 -0.227539 14.3898 -1.3202e-06 14.3898)
(14.3898 5.3036 -0.227539 14.3898 -1.62542e-06 14.3898)
(14.0542 5.11947 -0.222853 14.0542 -1.51565e-06 14.0542)
(14.0542 5.11947 -0.222853 14.0542 -1.85366e-06 14.0542)
(13.7221 4.94001 -0.218192 13.7221 -1.03589e-06 13.7221)
(13.7221 4.94002 -0.218192 13.7221 -1.42229e-06 13.7221)
(13.3937 4.7651 -0.213552 13.3937 -1.3035e-06 13.3937)
(13.3937 4.7651 -0.213552 13.3938 -1.73713e-06 13.3937)
(13.0693 4.59457 -0.208932 13.0693 -7.10668e-07 13.0693)
(13.0693 4.59458 -0.208932 13.0693 -1.20213e-06 13.0693)
(12.7489 4.42826 -0.204329 12.7489 -1.06919e-06 12.7489)
(12.7489 4.42826 -0.204329 12.7489 -1.62379e-06 12.7489)
(12.4326 4.26601 -0.199739 12.4326 -3.55617e-07 12.4326)
(12.4326 4.26601 -0.199739 12.4326 -9.80088e-07 12.4326)
(12.1207 4.10768 -0.195159 12.1207 -8.39507e-07 12.1207)
(12.1207 4.10768 -0.195159 12.1207 -1.55742e-06 12.1207)
(11.8132 3.95314 -0.190587 11.8132 6.44427e-08 11.8132)
(11.8132 3.95314 -0.190587 11.8132 -7.45338e-07 11.8132)
(11.5103 3.80231 -0.186022 11.5103 -5.5218e-07 11.5103)
(11.5103 3.80231 -0.186022 11.5103 -1.5425e-06 11.5103)
(11.212 3.65508 -0.181462 11.212 5.32412e-07 11.212)
(11.212 3.65508 -0.181463 11.212 -5.1438e-07 11.212)
(10.9185 3.51141 -0.176909 10.9185 -4.39564e-23 10.9185)
(10.9185 3.51141 -0.176909 10.9185 -1.36607e-06 10.9185)
(10.6298 3.37123 -0.172362 10.6298 1.08003e-06 10.6298)
(10.6298 3.37123 -0.172362 10.6298 -2.67777e-07 10.6298)
(10.3461 3.23447 -0.167822 10.3461 1.53593e-22 10.3461)
(10.3461 3.23447 -0.167822 10.3461 -1.65555e-06 10.3461)
(10.0673 3.10111 -0.16329 10.0673 1.71764e-06 10.0673)
(10.0673 3.10111 -0.16329 10.0673 -1.67636e-08 10.0673)
(9.79362 2.97113 -0.158769 9.79362 3.73201e-22 9.79362)
(9.79361 2.97113 -0.158769 9.79363 -1.83951e-06 9.79361)
(9.52507 2.84456 -0.154262 9.52505 2.31094e-06 9.52507)
(9.52506 2.84456 -0.154262 9.52506 2.42972e-07 9.52506)
(9.26171 2.72147 -0.149777 9.26171 -3.49476e-22 9.26171)
(9.2617 2.72147 -0.149777 9.26172 -2.21376e-06 9.2617)
(9.00361 2.60202 -0.145322 9.00358 2.15942e-06 9.00361)
(9.0036 2.60202 -0.145322 9.0036 5.14073e-07 9.0036)
(8.75079 2.4864 -0.140913 8.75079 -2.22237e-37 8.75079)
(8.75078 2.4864 -0.140913 8.75081 -2.82053e-06 8.75078)
(8.50333 2.37489 -0.136569 8.50329 1.75933e-06 8.50333)
(8.50332 2.37489 -0.136569 8.50332 7.77558e-07 8.50332)
(8.26121 2.26782 -0.132313 8.26121 4.37396e-23 8.26121)
(8.2612 2.26783 -0.132313 8.26122 -3.57316e-06 8.2612)
(8.02449 2.16554 -0.128172 8.02449 1.02537e-06 8.02449)
(8.02449 2.16554 -0.128172 8.02449 1.0476e-06 8.02449)
(7.79317 2.06834 -0.124173 7.79317 -6.88619e-22 7.79317)
(7.79316 2.06834 -0.124173 7.79319 -4.53436e-06 7.79316)
(7.56724 1.97646 -0.120343 7.56724 1.24267e-06 7.56724)
(7.56725 1.97646 -0.120343 7.56722 2.74918e-06 7.56725)
(7.3467 1.89002 -0.116703 7.3467 5.34243e-24 7.3467)
(7.34668 1.89002 -0.116703 7.34672 -5.75577e-06 7.34668)
(7.1315 1.80902 -0.113267 7.1315 1.47211e-06 7.1315)
(7.13151 1.80902 -0.113267 7.13148 5.13725e-06 7.13151)
(6.92161 1.73325 -0.110043 6.92161 1.37433e-21 6.92161)
(6.92159 1.73325 -0.110043 6.92164 -7.29441e-06 6.92159)
(6.71696 1.6624 -0.107021 6.71696 1.72583e-06 6.71696)
(6.71698 1.6624 -0.107021 6.71693 8.49723e-06 6.71698)
(6.5175 1.596 -0.104193 6.5175 -1.45258e-21 6.5175)
(6.51748 1.596 -0.104194 6.51753 -9.48889e-06 6.51748)
(6.32313 1.53337 -0.10153 6.32313 1.92215e-06 6.32313)
(6.32315 1.53337 -0.101531 6.3231 1.3132e-05 6.32315)
(6.13378 1.47369 -0.0989903 6.13378 -0 6.13378)
(6.13376 1.47369 -0.0989903 6.13382 -1.25552e-05 6.13376)
(5.94935 1.41622 -0.0965252 5.94935 2.11381e-06 5.94935)
(5.94937 1.41622 -0.0965252 5.94931 1.9528e-05 5.94937)
(5.76976 1.36027 -0.094094 5.76976 6.56373e-22 5.76976)
(5.76973 1.36027 -0.094094 5.7698 -1.66452e-05 5.76973)
(5.59491 1.30529 -0.0916536 5.59491 2.25164e-06 5.59491)
(5.59493 1.30529 -0.0916537 5.59486 2.47558e-05 5.59493)
(5.42472 1.25102 -0.0891747 5.42472 -5.40367e-21 5.42472)
(5.42469 1.25102 -0.0891748 5.42477 -2.19753e-05 5.42469)
(5.25911 1.19743 -0.0866522 5.25911 2.29631e-06 5.25911)
(5.25914 1.19743 -0.0866522 5.25906 3.13472e-05 5.25914)
(5.09802 1.14464 -0.0840879 5.09802 -0 5.09802)
(5.09799 1.14464 -0.084088 5.09808 -2.89618e-05 5.09799)
(4.94137 1.09285 -0.0814949 4.94137 2.26083e-06 4.94137)
(4.94139 1.09285 -0.081495 4.94131 3.97786e-05 4.94139)
(4.78909 1.04242 -0.0788929 4.78909 4.43755e-22 4.78909)
(4.78906 1.04242 -0.078893 4.78916 -4.25049e-05 4.78906)
(4.64113 0.993613 -0.0763179 4.64113 2.09127e-06 4.64113)
(4.64116 0.993613 -0.076318 4.64107 4.71398e-05 4.64116)
(4.49743 0.946631 -0.0737764 4.49743 -7.22943e-23 4.49743)
(4.49739 0.946631 -0.0737764 4.4975 -5.58147e-05 4.49739)
(4.35792 0.901887 -0.0713004 4.35792 1.77754e-06 4.35792)
(4.35795 0.901887 -0.0713004 4.35786 6.07636e-05 4.35795)
(4.22255 0.859656 -0.0689298 4.22255 -1.06061e-20 4.22255)
(4.22251 0.859656 -0.0689298 4.22262 -7.16689e-05 4.22251)
(4.09125 0.820148 -0.0666791 4.09125 3.49788e-06 4.09125)
(4.09128 0.820148 -0.0666791 4.09118 7.8396e-05 4.09128)
(3.96395 0.7835 -0.0645808 3.96395 1.86341e-06 3.96395)
(3.96391 0.783501 -0.0645808 3.96402 -9.0002e-05 3.96391)
(3.84058 0.749502 -0.0626398 3.84058 5.92614e-06 3.84059)
(3.84061 0.749503 -0.0626399 3.84053 9.67712e-05 3.84061)
(3.72108 0.717895 -0.060833 3.72108 2.01412e-06 3.72108)
(3.72105 0.717895 -0.060833 3.72114 -0.000106767 3.72105)
(3.60536 0.688401 -0.0591557 3.60536 6.25577e-06 3.60537)
(3.60538 0.688402 -0.0591558 3.60533 0.00011116 3.60538)
(3.49336 0.660669 -0.05758 3.49336 2.1719e-06 3.49336)
(3.49334 0.660669 -0.0575801 3.4934 -0.000119293 3.49334)
(3.38499 0.634266 -0.0560859 3.38499 6.27916e-06 3.38499)
(3.385 0.634266 -0.0560859 3.38497 0.000115302 3.38499)
(3.28018 0.608439 -0.0546282 3.28018 -5.22177e-06 3.28018)
(3.28017 0.60844 -0.0546283 3.28019 -0.000122911 3.28017)
(3.17886 0.582806 -0.0531258 3.17886 -2.43002e-06 3.17886)
(3.17885 0.582806 -0.0531259 3.17887 0.000120457 3.17885)
(3.08097 0.557508 -0.0515937 3.08097 -7.09861e-06 3.08097)
(3.08097 0.557508 -0.0515938 3.08096 -0.00012041 3.08097)
(2.98644 0.532599 -0.0500416 2.98644 -2.62924e-06 2.98644)
(2.98642 0.532599 -0.0500417 2.98647 0.000115282 2.98642)
(2.89522 0.508396 -0.04847 2.89522 -7.24162e-06 2.89523)
(2.89524 0.508397 -0.04847 2.8952 -0.000112518 2.89524)
(2.80727 0.48509 -0.0469386 2.80727 -2.81458e-06 2.80727)
(2.80724 0.485091 -0.0469386 2.80732 0.000104651 2.80724)
(2.72252 0.462613 -0.0454265 2.72252 -6.13786e-06 2.72253)
(2.72254 0.462613 -0.0454265 2.72248 -9.92614e-05 2.72254)
(2.64094 0.441315 -0.0439467 2.64094 -4.20207e-06 2.64095)
(2.64091 0.441315 -0.0439467 2.641 8.98405e-05 2.64091)
(2.56249 0.421456 -0.0425598 2.56249 -3.69589e-06 2.56249)
(2.56251 0.421457 -0.0425598 2.56243 -8.31996e-05 2.56251)
(2.48711 0.403298 -0.041264 2.48711 -6.99118e-06 2.48711)
(2.48707 0.403299 -0.041264 2.48717 7.4868e-05 2.48707)
(2.41476 0.387658 -0.0401244 2.41476 -4.16768e-06 2.41476)
(2.41478 0.387658 -0.0401244 2.4147 -6.97577e-05 2.41478)
(2.3454 0.375094 -0.0392564 2.3454 -1.33977e-06 2.3454)
(2.34537 0.375095 -0.0392565 2.34547 6.23814e-05 2.34537)
(2.27899 0.3658 -0.0386806 2.27899 -4.62572e-06 2.27899)
(2.27901 0.365801 -0.0386807 2.27893 -5.85471e-05 2.27901)
(2.21546 0.36011 -0.0384437 2.21546 -1.11621e-22 2.21546)
(2.21543 0.360111 -0.0384438 2.21553 4.63122e-05 2.21543)
(2.15476 0.358053 -0.0385992 2.15476 -5.03803e-06 2.15476)
(2.15478 0.358055 -0.0385994 2.15471 -5.17866e-05 2.15478)
(2.09681 0.359302 -0.0391326 2.09681 5.14841e-21 2.09681)
(2.09678 0.359303 -0.0391328 2.09687 2.39431e-05 2.09678)
(2.04155 0.363326 -0.0400202 2.04155 -5.39005e-06 2.04155)
(2.04157 0.363328 -0.0400204 2.0415 -4.73985e-05 2.04157)
(1.98888 0.36926 -0.0411989 1.98888 -5.16241e-21 1.98888)
(1.98885 0.369262 -0.0411992 1.98893 2.43547e-06 1.98885)
(1.93872 0.375879 -0.0425628 1.93872 -5.67172e-06 1.93872)
(1.93874 0.375881 -0.042563 1.93868 -4.09918e-05 1.93874)
(1.89094 0.382233 -0.0439554 1.89108 5.77533e-06 1.89094)
(1.89098 0.382235 -0.0439557 1.89098 -5.25286e-06 1.89098)
(1.84558 0.388007 -0.0453203 1.84558 -5.91392e-06 1.84558)
(1.84559 0.388009 -0.0453206 1.84554 -3.56352e-05 1.84559)
(1.80238 0.393392 -0.0466378 1.80249 1.73467e-05 1.80238)
(1.80241 0.393395 -0.0466381 1.80241 -5.75218e-06 1.80241)
(1.76142 0.399015 -0.0479695 1.76142 -6.13321e-06 1.76142)
(1.76143 0.399018 -0.0479698 1.76139 -3.11814e-05 1.76143)
(1.72246 0.405425 -0.049404 1.72255 2.17302e-05 1.72246)
(1.72249 0.405428 -0.0494044 1.72249 -6.68355e-06 1.72249)
(1.68556 0.412975 -0.0509916 1.68556 -6.30813e-06 1.68556)
(1.68556 0.412979 -0.050992 1.68553 -2.74709e-05 1.68556)
(1.65049 0.421856 -0.052781 1.65055 1.58733e-05 1.65049)
(1.65051 0.42186 -0.0527815 1.65051 -6.75897e-06 1.65051)
(1.61726 0.432016 -0.0547849 1.61726 -6.46798e-06 1.61726)
(1.61727 0.432021 -0.0547854 1.61724 -2.43764e-05 1.61727)
(1.58568 0.443262 -0.0569934 1.58573 1.06966e-05 1.58568)
(1.58569 0.443267 -0.0569941 1.58569 -6.94043e-06 1.58569)
(1.5557 0.455526 -0.0593816 1.5557 -6.77826e-06 1.5557)
(1.5557 0.455532 -0.0593823 1.55568 -2.19859e-05 1.5557)
(1.52712 0.468565 -0.0619712 1.52716 6.56801e-06 1.52712)
(1.52713 0.468571 -0.0619719 1.52713 -7.27235e-06 1.52713)
(1.49988 0.481567 -0.064687 1.49988 -7.20655e-06 1.49988)
(1.49988 0.481574 -0.0646879 1.49987 -2.01833e-05 1.49988)
(1.47379 0.49338 -0.0673923 1.47381 4.17746e-06 1.47379)
(1.47379 0.493387 -0.0673932 1.47379 -7.68222e-06 1.47379)
(1.44873 0.502671 -0.0699045 1.44873 -7.73684e-06 1.44873)
(1.44873 0.502677 -0.0699055 1.44873 -1.88338e-05 1.44873)
(1.42458 0.508473 -0.0720177 1.42459 1.92729e-06 1.42458)
(1.42458 0.50848 -0.0720187 1.42458 -8.24967e-06 1.42458)
(1.40123 0.510531 -0.0736337 1.40123 -8.36763e-06 1.40123)
(1.40123 0.510538 -0.0736346 1.40123 -1.78871e-05 1.40123)
(1.3786 0.509412 -0.0747356 1.3786 -7.04612e-08 1.3786)
(1.3786 0.509419 -0.0747366 1.3786 -8.7814e-06 1.3786)
(1.35663 0.506412 -0.0754636 1.35663 -8.76152e-06 1.35663)
(1.35663 0.506418 -0.0754646 1.35664 -1.69483e-05 1.35663)
(1.33529 0.503155 -0.0760259 1.33528 -1.52892e-06 1.33529)
(1.33528 0.503162 -0.0760269 1.33528 -9.00331e-06 1.33528)
(1.31451 0.501472 -0.0766837 1.31451 -8.8565e-06 1.31451)
(1.31451 0.50148 -0.0766848 1.31452 -1.59252e-05 1.31451)
(1.29427 0.50227 -0.0777361 1.29426 -2.60061e-06 1.29427)
(1.29427 0.502279 -0.0777375 1.29427 -9.13356e-06 1.29427)
(1.27448 0.504958 -0.0791843 1.27448 -9.16392e-06 1.27448)
(1.27448 0.504968 -0.0791858 1.27449 -1.53549e-05 1.27448)
(1.25507 0.508015 -0.0808717 1.25506 -3.77353e-06 1.25507)
(1.25507 0.508026 -0.0808734 1.25507 -9.5834e-06 1.25507)
(1.23594 0.509671 -0.0824907 1.23594 -9.83154e-06 1.23594)
(1.23593 0.509683 -0.0824925 1.23595 -1.53403e-05 1.23593)
(1.21702 0.509095 -0.083778 1.217 -5.09768e-06 1.21702)
(1.21701 0.509107 -0.0837799 1.21701 -1.02874e-05 1.21701)
(1.19823 0.506301 -0.084706 1.19823 -1.05838e-05 1.19823)
(1.19822 0.506313 -0.0847079 1.19824 -1.55133e-05 1.19822)
(1.17955 0.501514 -0.0852764 1.17952 -6.38148e-06 1.17955)
(1.17954 0.501526 -0.0852785 1.17954 -1.10232e-05 1.17954)
(1.16091 0.494701 -0.0855329 1.16091 -1.12521e-05 1.16091)
(1.1609 0.494713 -0.085535 1.16093 -1.57019e-05 1.1609)
(1.14234 0.485412 -0.0853905 1.14231 -7.46078e-06 1.14234)
(1.14233 0.485424 -0.0853926 1.14233 -1.16934e-05 1.14233)
(1.1238 0.473224 -0.0847456 1.1238 -1.20333e-05 1.1238)
(1.12379 0.473235 -0.0847477 1.12382 -1.60926e-05 1.12379)
(1.10535 0.458277 -0.0835141 1.10532 -8.65211e-06 1.10535)
(1.10534 0.458288 -0.0835161 1.10534 -1.25494e-05 1.10534)
(1.08701 0.441962 -0.081787 1.08701 -1.27403e-05 1.08701)
(1.087 0.441973 -0.0817889 1.08703 -1.65957e-05 1.087)
(1.06888 0.42651 -0.0799396 1.06885 -9.31201e-06 1.06888)
(1.06887 0.426523 -0.0799417 1.06887 -1.30362e-05 1.06887)
(1.05097 0.414137 -0.0784009 1.05097 -1.30468e-05 1.05097)
(1.05096 0.414153 -0.0784035 1.051 -1.68406e-05 1.05096)
(1.03336 0.40657 -0.0775861 1.03332 -9.512e-06 1.03336)
(1.03335 0.40659 -0.0775895 1.03335 -1.32572e-05 1.03335)
(1.016 0.404432 -0.0777851 1.016 -1.34276e-05 1.016)
(1.01599 0.404458 -0.0777896 1.01603 -1.72425e-05 1.01599)
(0.998899 0.407121 -0.0790228 0.998855 -9.99133e-06 0.998899)
(0.998885 0.407154 -0.0790286 0.998885 -1.38655e-05 0.998885)
(0.981921 0.4138 -0.081124 0.981921 -1.41065e-05 0.981921)
(0.981906 0.413841 -0.0811314 0.981952 -1.81462e-05 0.981906)
(0.965011 0.423614 -0.084012 0.964963 -1.03977e-05 0.965011)
(0.964996 0.423664 -0.0840212 0.964996 -1.45938e-05 0.964996)
(0.947961 0.43416 -0.0874842 0.947961 -1.50361e-05 0.947961)
(0.947946 0.434218 -0.0874954 0.947996 -1.94375e-05 0.947945)
(0.930673 0.441136 -0.0908067 0.93062 -1.10873e-05 0.930673)
(0.930657 0.441199 -0.0908194 0.930657 -1.57623e-05 0.930657)
(0.912935 0.440116 -0.0929344 0.912935 -1.63984e-05 0.912935)
(0.912918 0.440179 -0.0929479 0.912973 -2.13566e-05 0.912918)
(0.894741 0.428743 -0.0929863 0.894682 -1.18549e-05 0.894741)
(0.894723 0.428803 -0.0929997 0.894723 -1.71353e-05 0.894723)
(0.876026 0.407506 -0.0907014 0.876026 -1.75066e-05 0.876026)
(0.876007 0.40756 -0.0907139 0.876068 -2.32793e-05 0.876007)
(0.856972 0.378136 -0.0863721 0.856907 -1.18543e-05 0.856972)
(0.856951 0.378181 -0.0863832 0.856951 -1.80974e-05 0.856951)