/*--------------------------------*- C++ -*----------------------------------*\
| =========                 |                                                 |
| \\      /  F ield         | OpenFOAM: The Open Source CFD Toolbox           |
|  \\    /   O peration     | Version:  2012                                  |
|   \\  /    A nd           | Website:  www.openfoam.com                      |
|    \\/     M anipulation  |                                                 |
\*---------------------------------------------------------------------------*/
FoamFile
{
    version     2.0;
    format      ascii;
    class       volVectorField;
    location    "13500";
    object      U;
}
// * * * * * * * * * * * * * * * * * * * * * * * * * * * * * * * * * * * * * //

dimensions      [0 1 -1 0 0 0 0];


internalField   nonuniform List<vector> 
2560
(
(0.0844573 1.41465e-08 -8.73203e-07)
(0.0844574 -9.07641e-09 4.56626e-22)
(0.254397 4.46747e-08 -1.31607e-06)
(0.254397 -1.23257e-08 -1.67472e-10)
(0.426595 6.54238e-08 -1.16749e-06)
(0.426596 -2.83242e-08 -5.44183e-10)
(0.601071 6.58674e-08 -7.86532e-07)
(0.601072 -6.43804e-08 -1.04966e-09)
(0.777841 6.55256e-08 -4.50037e-07)
(0.777842 -8.72093e-08 -1.3857e-09)
(0.956921 7.34302e-08 -2.68613e-07)
(0.956923 -9.14786e-08 -1.64247e-09)
(1.13834 8.05239e-08 -1.77962e-07)
(1.13834 -9.20611e-08 -1.90026e-09)
(1.32211 8.5183e-08 -1.28863e-07)
(1.32212 -9.31262e-08 -2.20777e-09)
(1.5083 8.79667e-08 -9.93354e-08)
(1.5083 -9.47102e-08 -2.58187e-09)
(1.69694 9.07764e-08 -7.98678e-08)
(1.69694 -9.54853e-08 -3.0206e-09)
(1.88809 9.24444e-08 -6.60071e-08)
(1.88809 -9.68554e-08 -3.52564e-09)
(2.08181 9.40757e-08 -5.54651e-08)
(2.08181 -9.78836e-08 -4.10125e-09)
(2.27817 9.55434e-08 -4.69633e-08)
(2.27818 -9.87951e-08 -4.74804e-09)
(2.47725 9.66657e-08 -3.97312e-08)
(2.47725 -9.98387e-08 -5.47146e-09)
(2.67912 9.78586e-08 -3.32727e-08)
(2.67913 -1.00651e-07 -6.27596e-09)
(2.88387 9.87128e-08 -2.72481e-08)
(2.88387 -1.01671e-07 -7.16628e-09)
(3.09157 9.98124e-08 -2.14114e-08)
(3.09158 -1.02345e-07 -8.14689e-09)
(3.30232 1.00694e-07 -1.55736e-08)
(3.30232 -1.03149e-07 -9.22341e-09)
(3.51618 1.01356e-07 -9.58045e-09)
(3.51618 -1.04111e-07 -9.5314e-09)
(3.73324 1.02252e-07 -3.30164e-09)
(3.73325 -1.0478e-07 -3.25489e-09)
(3.95358 1.03165e-07 3.3784e-09)
(3.95359 -1.05391e-07 3.42322e-09)
(4.17727 1.0382e-07 1.05687e-08)
(4.17727 -1.0622e-07 1.06119e-08)
(4.40436 1.04201e-07 1.83744e-08)
(4.40436 -1.07297e-07 1.84161e-08)
(4.6349 1.0548e-07 2.05163e-08)
(4.63491 -1.07452e-07 2.69359e-08)
(4.86895 1.05932e-07 2.25959e-08)
(4.86895 -1.08417e-07 3.62737e-08)
(5.10652 1.06609e-07 2.48361e-08)
(5.10652 -1.09144e-07 4.65369e-08)
(5.34763 1.06886e-07 2.72396e-08)
(5.34764 -1.10262e-07 5.78343e-08)
(5.59228 1.08407e-07 2.9823e-08)
(5.59228 -1.10135e-07 7.02764e-08)
(5.84044 1.08464e-07 3.26014e-08)
(5.84044 -1.11465e-07 8.3983e-08)
(6.09207 1.09413e-07 3.55794e-08)
(6.09207 -1.11908e-07 9.90828e-08)
(6.34711 1.09476e-07 3.87632e-08)
(6.34711 -1.13242e-07 1.05062e-07)
(6.60547 1.11166e-07 4.21714e-08)
(6.60547 -1.12956e-07 1.04216e-07)
(6.86704 1.11104e-07 4.5823e-08)
(6.86704 -1.14434e-07 1.03562e-07)
(7.13167 1.11972e-07 4.97206e-08)
(7.13167 -1.14991e-07 1.03085e-07)
(7.39921 1.12359e-07 5.38771e-08)
(7.39921 -1.16048e-07 1.02774e-07)
(7.66946 1.1383e-07 5.83158e-08)
(7.66946 -1.16037e-07 1.02616e-07)
(7.94219 1.13875e-07 6.30559e-08)
(7.94219 -1.17473e-07 1.02605e-07)
(8.21715 1.14691e-07 6.81029e-08)
(8.21715 -1.18159e-07 1.02731e-07)
(8.49406 1.15206e-07 7.34727e-08)
(8.49406 -1.19173e-07 1.0299e-07)
(8.77259 1.16617e-07 7.91926e-08)
(8.77259 -1.19315e-07 1.03375e-07)
(9.0524 1.16942e-07 8.52883e-08)
(9.0524 -1.20576e-07 1.03882e-07)
(9.33311 1.17629e-07 9.17698e-08)
(9.33311 -1.21505e-07 1.04508e-07)
(9.6143 1.18029e-07 9.86494e-08)
(9.6143 -1.22755e-07 1.0525e-07)
(9.89553 1.20163e-07 1.05969e-07)
(9.89553 -1.2231e-07 1.06104e-07)
(10.1763 1.19152e-07 1.13743e-07)
(10.1763 -1.25046e-07 1.13741e-07)
(10.4562 1.22008e-07 1.21999e-07)
(10.4562 -1.23961e-07 1.21997e-07)
(10.7346 1.20127e-07 1.30748e-07)
(10.7346 -1.27653e-07 1.30746e-07)
(11.0109 1.24563e-07 1.40033e-07)
(11.0109 -1.2508e-07 1.40031e-07)
(11.2846 1.2299e-07 1.49908e-07)
(11.2846 -1.28563e-07 1.49905e-07)
(11.5551 1.23044e-07 1.60322e-07)
(11.5551 -1.30472e-07 1.60319e-07)
(11.8217 1.24514e-07 1.71292e-07)
(11.8217 -1.31026e-07 1.71289e-07)
(12.0838 1.33524e-07 1.83049e-07)
(12.0838 -1.24089e-07 1.83046e-07)
(12.3407 1.15496e-07 1.95363e-07)
(12.3407 -1.4426e-07 1.95359e-07)
(12.5917 1.39381e-07 2.0834e-07)
(12.5917 -1.22579e-07 2.08337e-07)
(12.8361 1.22929e-07 2.2215e-07)
(12.8361 -1.41304e-07 2.22147e-07)
(13.0733 1.30922e-07 2.36543e-07)
(13.0733 -1.35662e-07 2.36539e-07)
(13.3025 1.36183e-07 2.51819e-07)
(13.3025 -1.3281e-07 2.51815e-07)
(13.5229 1.24085e-07 2.67766e-07)
(13.5229 -1.47413e-07 2.67762e-07)
(13.734 1.41559e-07 2.84465e-07)
(13.734 -1.32509e-07 2.84461e-07)
(13.935 1.28739e-07 3.01991e-07)
(13.935 -1.47999e-07 3.01986e-07)
(14.1253 1.4212e-07 3.20289e-07)
(14.1253 -1.37354e-07 3.20284e-07)
(14.3041 1.3259e-07 3.39396e-07)
(14.3041 -1.49725e-07 3.39391e-07)
(14.4709 1.35836e-07 3.59044e-07)
(14.4709 -1.49412e-07 3.59039e-07)
(14.625 1.47234e-07 3.79544e-07)
(14.625 -1.41022e-07 3.79539e-07)
(14.766 1.36715e-07 4.00828e-07)
(14.766 -1.54674e-07 4.00822e-07)
(14.8932 1.36714e-07 4.2246e-07)
(14.8932 -1.57882e-07 4.22454e-07)
(15.0062 1.56293e-07 4.44881e-07)
(15.0062 -1.41618e-07 4.44874e-07)
(15.1047 1.25119e-07 4.67615e-07)
(15.1047 -1.76212e-07 4.67608e-07)
(15.1882 1.74678e-07 4.91054e-07)
(15.1882 -1.30167e-07 4.91047e-07)
(15.2565 1.10601e-07 5.14621e-07)
(15.2565 -1.97864e-07 5.14614e-07)
(15.3093 1.88393e-07 5.38548e-07)
(15.3093 -1.23792e-07 5.3854e-07)
(15.3466 1.13309e-07 5.62795e-07)
(15.3466 -2.02702e-07 5.62787e-07)
(15.3682 1.848e-07 5.87051e-07)
(15.3682 -1.35133e-07 5.87043e-07)
(15.3742 1.26237e-07 6.11609e-07)
(15.3742 -1.97726e-07 6.116e-07)
(15.3648 1.79504e-07 6.36117e-07)
(15.3648 -1.48581e-07 6.36108e-07)
(15.34 1.37291e-07 6.60823e-07)
(15.34 -1.95026e-07 6.60814e-07)
(15.3001 1.71518e-07 6.85293e-07)
(15.3001 -1.65119e-07 6.85284e-07)
(15.2456 1.56922e-07 7.10087e-07)
(15.2456 -1.84153e-07 7.10077e-07)
(15.1768 1.59663e-07 7.3466e-07)
(15.1768 -1.85932e-07 7.3465e-07)
(15.0941 1.76627e-07 7.59589e-07)
(15.0941 -1.73602e-07 7.59579e-07)
(14.9983 1.47429e-07 7.84329e-07)
(14.9983 -2.07524e-07 7.84318e-07)
(14.8898 1.93955e-07 8.09372e-07)
(14.8898 -1.65843e-07 8.09361e-07)
(14.7693 1.47339e-07 8.34631e-07)
(14.7693 -2.17383e-07 8.34619e-07)
(14.6376 1.94097e-07 8.59959e-07)
(14.6376 -1.75696e-07 8.59947e-07)
(14.4954 1.60591e-07 8.8576e-07)
(14.4954 -2.14336e-07 8.85748e-07)
(14.3434 1.96216e-07 9.1197e-07)
(14.3434 -1.84019e-07 9.11959e-07)
(14.1825 1.63077e-07 9.38566e-07)
(14.1825 -2.22513e-07 9.38554e-07)
(14.0134 2.03733e-07 9.65672e-07)
(14.0134 -1.87428e-07 9.6566e-07)
(13.8369 1.65857e-07 9.93261e-07)
(13.8369 -2.30892e-07 9.93248e-07)
(13.6539 2.08416e-07 1.02131e-06)
(13.6539 -1.94193e-07 1.0213e-06)
(13.465 1.80403e-07 1.05028e-06)
(13.465 -2.28051e-07 1.05026e-06)
(13.2711 2.04833e-07 1.07978e-06)
(13.2711 -2.09801e-07 1.07977e-06)
(13.073 1.91709e-07 1.1101e-06)
(13.073 -2.29042e-07 1.11008e-06)
(12.8712 2.01401e-07 1.14083e-06)
(12.8712 -2.259e-07 1.14081e-06)
(12.6666 2.15711e-07 1.17278e-06)
(12.6666 -2.17995e-07 1.17277e-06)
(12.4598 1.94263e-07 1.20539e-06)
(12.4598 -2.46403e-07 1.20537e-06)
(12.2513 2.19039e-07 1.23848e-06)
(12.2513 -2.28349e-07 1.23847e-06)
(12.0417 2.17521e-07 1.27284e-06)
(12.0417 -2.37304e-07 1.27282e-06)
(11.8316 2.08441e-07 1.30764e-06)
(11.8316 -2.53427e-07 1.30763e-06)
(11.6214 2.39132e-07 1.34356e-06)
(11.6214 -2.30717e-07 1.34354e-06)
(11.4117 2.10831e-07 1.38036e-06)
(11.4117 -2.66406e-07 1.38034e-06)
(11.2028 2.36964e-07 1.41753e-06)
(11.2028 -2.48878e-07 1.41751e-06)
(10.9951 2.33717e-07 1.45579e-06)
(10.9951 -2.59868e-07 1.45577e-06)
(10.7888 2.40598e-07 1.4949e-06)
(10.7888 -2.62305e-07 1.49488e-06)
(10.5844 2.36812e-07 1.53454e-06)
(10.5844 -2.7419e-07 1.53453e-06)
(10.3821 2.58767e-07 1.57518e-06)
(10.3821 -2.62395e-07 1.57516e-06)
(10.1821 2.3785e-07 1.61636e-06)
(10.1821 -2.91743e-07 1.61634e-06)
(9.98449 2.72393e-07 1.65824e-06)
(9.98449 -2.68353e-07 1.65822e-06)
(9.78958 2.50773e-07 1.70098e-06)
(9.78958 -2.98694e-07 1.70096e-06)
(9.59745 2.71791e-07 1.74391e-06)
(9.59745 -2.90011e-07 1.74389e-06)
(9.40823 2.73573e-07 1.78767e-06)
(9.40823 -2.97171e-07 1.78764e-06)
(9.222 2.82295e-07 1.83218e-06)
(9.222 -3.02193e-07 1.83215e-06)
(9.03882 2.72503e-07 1.87667e-06)
(9.03882 -3.21038e-07 1.87665e-06)
(8.85876 3.13202e-07 1.92217e-06)
(8.85876 -2.95792e-07 1.92214e-06)
(8.68185 2.64389e-07 1.96744e-06)
(8.68185 -3.53593e-07 1.96742e-06)
(8.5081 3.47233e-07 2.01362e-06)
(8.5081 -2.88294e-07 2.01358e-06)
(8.33753 2.61688e-07 2.05975e-06)
(8.33753 -3.82506e-07 2.05972e-06)
(8.17013 3.73661e-07 2.10643e-06)
(8.17013 -2.90667e-07 2.10639e-06)
(8.00588 2.61904e-07 2.15279e-06)
(8.00588 -4.10396e-07 2.15277e-06)
(7.84477 4.02324e-07 2.19949e-06)
(7.84477 -2.93344e-07 2.19945e-06)
(7.68676 2.75293e-07 2.24643e-06)
(7.68676 -4.27129e-07 2.24641e-06)
(7.53182 4.13386e-07 2.29306e-06)
(7.53182 -3.16485e-07 2.29301e-06)
(7.37991 3.01828e-07 2.34003e-06)
(7.37991 -4.32833e-07 2.34001e-06)
(7.23098 4.19592e-07 2.38636e-06)
(7.23097 -3.47722e-07 2.38631e-06)
(7.08498 3.29929e-07 2.43272e-06)
(7.08498 -4.39176e-07 2.4327e-06)
(6.94187 4.40386e-07 2.47901e-06)
(6.94187 -3.68062e-07 2.47894e-06)
(6.8016 3.35298e-07 2.5242e-06)
(6.8016 -4.705e-07 2.52419e-06)
(6.66413 4.89718e-07 2.57009e-06)
(6.66413 -3.64099e-07 2.57e-06)
(6.52939 3.23345e-07 2.6143e-06)
(6.52939 -5.2139e-07 2.6143e-06)
(6.39735 5.42105e-07 2.65866e-06)
(6.39735 -3.61982e-07 2.65856e-06)
(6.26796 3.25595e-07 2.70172e-06)
(6.26796 -5.60233e-07 2.70173e-06)
(6.14118 5.92624e-07 2.74504e-06)
(6.14118 -3.6746e-07 2.74491e-06)
(6.01697 3.14095e-07 2.78596e-06)
(6.01697 -6.14771e-07 2.78599e-06)
(5.89529 6.6203e-07 2.82725e-06)
(5.89529 -3.60808e-07 2.82708e-06)
(5.7761 3.02465e-07 2.86609e-06)
(5.7761 -6.71009e-07 2.86615e-06)
(5.65936 7.37098e-07 2.90554e-06)
(5.65936 -3.56564e-07 2.90533e-06)
(5.54505 2.76883e-07 2.94146e-06)
(5.54505 -7.42145e-07 2.94156e-06)
(5.43313 8.34273e-07 2.97842e-06)
(5.43313 -3.39965e-07 2.97814e-06)
(5.32356 2.36285e-07 3.01086e-06)
(5.32356 -8.28274e-07 3.01102e-06)
(5.21631 9.54324e-07 3.04497e-06)
(5.21631 -3.12421e-07 3.0446e-06)
(5.11136 1.79871e-07 3.07364e-06)
(5.11136 -9.28744e-07 3.0739e-06)
(5.00868 1.09892e-06 3.10489e-06)
(5.00868 -2.75126e-07 3.10439e-06)
(4.90823 9.8377e-08 3.12916e-06)
(4.90823 -1.05068e-06 3.12955e-06)
(4.81001 1.27699e-06 3.15706e-06)
(4.81001 -2.22912e-07 3.15639e-06)
(4.71399 -1.38836e-08 3.176e-06)
(4.71399 -1.19668e-06 3.17657e-06)
(4.62015 1.50744e-06 3.20095e-06)
(4.62015 -1.41899e-07 3.20004e-06)
(4.52849 -1.8285e-07 3.21383e-06)
(4.52849 -1.38826e-06 3.21466e-06)
(4.43898 1.80626e-06 3.23549e-06)
(4.43898 -2.28318e-08 3.23423e-06)
(4.35162 -4.11603e-07 3.24191e-06)
(4.35162 -1.62219e-06 3.24311e-06)
(4.26639 2.17719e-06 3.2603e-06)
(4.26639 1.28931e-07 3.25857e-06)
(4.18329 -7.17171e-07 3.25883e-06)
(4.18329 -1.9066e-06 3.26057e-06)
(4.10231 2.6496e-06 3.27408e-06)
(4.10231 3.3042e-07 3.27167e-06)
(4.02344 -1.12766e-06 3.26334e-06)
(4.02344 -2.25703e-06 3.26583e-06)
(3.94667 3.25516e-06 3.27596e-06)
(3.94667 5.96473e-07 3.2726e-06)
(3.87199 -1.68061e-06 3.25422e-06)
(3.87199 -2.69334e-06 3.2578e-06)
(3.79938 4.03586e-06 3.26486e-06)
(3.79938 9.45986e-07 3.26014e-06)
(3.72884 -2.41876e-06 3.23015e-06)
(3.72884 -3.23341e-06 3.23529e-06)
(3.66034 5.03684e-06 3.23946e-06)
(3.66034 1.3923e-06 3.23283e-06)
(3.59385 -3.38788e-06 3.18954e-06)
(3.59385 -3.88807e-06 3.19691e-06)
(3.52933 6.31821e-06 3.19952e-06)
(3.52932 1.95145e-06 3.19014e-06)
(3.46672 -4.67411e-06 3.13019e-06)
(3.46672 -4.69405e-06 3.14079e-06)
(3.40595 7.99306e-06 3.14404e-06)
(3.40595 2.67499e-06 3.13074e-06)
(3.34696 -6.39985e-06 3.05081e-06)
(3.34696 -5.7043e-06 3.06601e-06)
(3.28964 1.0185e-05 3.07172e-06)
(3.28964 3.60137e-06 3.05281e-06)
(3.2339 -8.6923e-06 2.94906e-06)
(3.2339 -6.94876e-06 2.97089e-06)
(3.17965 1.30529e-05 2.98334e-06)
(3.17964 4.77051e-06 2.95636e-06)
(3.12677 -1.17643e-05 2.82144e-06)
(3.12677 -8.50293e-06 2.85285e-06)
(3.07519 1.68502e-05 2.87645e-06)
(3.07519 6.26887e-06 2.83786e-06)
(3.02482 -1.58584e-05 2.66701e-06)
(3.02482 -1.04151e-05 2.71224e-06)
(2.9756 2.18296e-05 2.75374e-06)
(2.9756 8.11405e-06 2.69838e-06)
(2.92751 -2.13061e-05 2.48058e-06)
(2.92751 -1.2742e-05 2.54585e-06)
(2.88052 2.84138e-05 2.61476e-06)
(2.88052 1.03968e-05 2.5351e-06)
(2.83465 -2.85665e-05 2.25992e-06)
(2.83465 -1.55525e-05 2.3543e-06)
(2.78992 3.71024e-05 2.46248e-06)
(2.78992 1.31469e-05 2.34754e-06)
(2.74636 -3.82245e-05 1.99928e-06)
(2.74636 -1.88772e-05 2.13602e-06)
(2.70398 4.86163e-05 2.30319e-06)
(2.70398 1.64182e-05 2.13687e-06)
(2.66282 -5.11398e-05 1.6945e-06)
(2.66282 -2.27852e-05 1.89308e-06)
(2.62288 6.39408e-05 2.14301e-06)
(2.62288 2.0245e-05 1.90165e-06)
(2.58415 -6.84341e-05 1.3378e-06)
(2.58414 -2.72683e-05 1.96396e-06)
(2.54661 8.43922e-05 1.99303e-06)
(2.54661 2.45847e-05 1.72785e-06)
(2.51026 -9.16736e-05 9.16014e-07)
(2.51026 -3.22724e-05 2.14489e-06)
(2.47503 0.000111834 1.86655e-06)
(2.47502 2.93517e-05 1.77738e-06)
(2.44086 -0.000123026 5.87644e-07)
(2.44086 -3.76388e-05 2.36253e-06)
(2.4077 0.000144346 1.5959e-06)
(2.4077 3.4262e-05 1.97946e-06)
(2.37546 -0.000156243 4.16289e-07)
(2.37546 -4.29924e-05 2.62421e-06)
(2.34408 0.000174268 1.10632e-06)
(2.34408 3.88381e-05 2.40537e-06)
(2.3135 -0.000182013 2.31134e-07)
(2.3135 -4.78637e-05 2.93031e-06)
(2.28367 0.000196606 5.66003e-07)
(2.28367 4.2583e-05 2.88236e-06)
(2.25455 -0.000199709 3.10497e-08)
(2.25455 -5.17916e-05 3.27894e-06)
(2.22613 0.000210714 0)
(2.22613 4.50363e-05 3.41056e-06)
(2.19844 -0.000197823 5.16569e-07)
(2.19844 -5.43725e-05 3.18236e-06)
(2.1715 0.000205546 2.21944e-07)
(2.1715 4.59417e-05 3.46177e-06)
(2.14533 -0.000187005 1.20213e-06)
(2.14533 -5.53736e-05 3.04835e-06)
(2.11994 0.000190524 4.6414e-07)
(2.11994 4.52621e-05 3.52254e-06)
(2.09531 -0.000166308 1.93061e-06)
(2.09531 -5.48551e-05 2.91647e-06)
(2.07144 0.00016545 7.26255e-07)
(2.07144 4.31383e-05 3.60459e-06)
(2.04833 -0.000138064 2.57605e-06)
(2.04833 -5.30416e-05 2.91864e-06)
(2.02592 0.00013536 1.136e-06)
(2.02592 3.98459e-05 3.71747e-06)
(2.00418 -0.000110127 2.987e-06)
(2.00418 -5.0327e-05 3.20902e-06)
(1.98303 0.000111287 1.85812e-06)
(1.98303 3.5804e-05 3.85999e-06)
(1.96233 -8.75256e-05 3.45668e-06)
(1.96233 -4.7182e-05 3.49338e-06)
(1.94193 9.20915e-05 2.59129e-06)
(1.94193 3.14006e-05 4.02842e-06)
(1.92166 -6.91816e-05 3.98726e-06)
(1.92166 -4.38948e-05 3.77489e-06)
(1.90132 7.67945e-05 3.34213e-06)
(1.90132 2.68466e-05 4.21958e-06)
(1.88072 -5.42194e-05 4.57687e-06)
(1.88072 -4.06563e-05 4.29422e-06)
(1.85968 6.46553e-05 4.11877e-06)
(1.85967 2.23254e-05 4.43086e-06)
(1.83805 -4.1976e-05 5.22118e-06)
(1.83804 -3.76338e-05 5.00708e-06)
(1.81574 5.50597e-05 4.91828e-06)
(1.81574 1.79359e-05 5.1217e-06)
(1.79276 -3.18829e-05 5.91387e-06)
(1.79275 -3.49012e-05 5.75371e-06)
(1.76912 4.74988e-05 5.73969e-06)
(1.76912 1.37141e-05 5.89808e-06)
(1.74487 -2.34826e-05 6.65154e-06)
(1.74486 -3.25012e-05 6.53341e-06)
(1.72 4.16081e-05 6.58865e-06)
(1.72 9.71887e-06 6.71293e-06)
(1.69449 -1.64468e-05 7.4323e-06)
(1.69449 -3.04949e-05 7.34703e-06)
(1.66827 3.70983e-05 7.4641e-06)
(1.66827 5.97852e-06 7.56272e-06)
(1.64124 -1.04989e-05 8.25105e-06)
(1.64124 -2.8902e-05 8.19151e-06)
(1.61332 3.36966e-05 8.36061e-06)
(1.61332 2.45669e-06 8.44019e-06)
(1.58443 -5.40813e-06 9.10616e-06)
(1.58442 -2.77191e-05 9.06683e-06)
(1.55448 3.12395e-05 9.29327e-06)
(1.55448 -8.3509e-07 9.35898e-06)
(1.52341 -9.87021e-07 1.00179e-05)
(1.5234 -2.69339e-05 9.99454e-06)
(1.49116 2.95788e-05 1.02836e-05)
(1.49116 -3.91799e-06 1.03395e-05)
(1.45778 2.9195e-06 1.10031e-05)
(1.45777 -2.65268e-05 1.09925e-05)
(1.42337 2.85487e-05 1.1344e-05)
(1.42336 -6.86761e-06 1.13931e-05)
(1.38815 6.47036e-06 1.20776e-05)
(1.38814 -2.64449e-05 1.20773e-05)
(1.35238 2.80667e-05 1.24984e-05)
(1.35237 -9.70488e-06 1.25433e-05)
(1.31632 9.79393e-06 1.32573e-05)
(1.31631 -2.66439e-05 1.32655e-05)
(1.28015 2.8052e-05 1.37445e-05)
(1.28014 -1.24717e-05 1.37869e-05)
(1.24397 1.29193e-05 1.45111e-05)
(1.24396 -2.71632e-05 1.45264e-05)
(1.20772 2.84585e-05 1.50402e-05)
(1.20772 -1.51924e-05 1.50815e-05)
(1.17124 1.58218e-05 1.57971e-05)
(1.17123 -2.80842e-05 1.58186e-05)
(1.13434 2.93001e-05 1.63735e-05)
(1.13433 -1.78451e-05 1.6415e-05)
(1.09691 1.86085e-05 1.71474e-05)
(1.0969 -2.93496e-05 1.71743e-05)
(1.05901 3.05291e-05 1.77929e-05)
(1.059 -2.04799e-05 1.78353e-05)
(1.02078 2.14155e-05 1.86173e-05)
(1.02076 -3.0868e-05 1.86491e-05)
(0.982383 3.20607e-05 1.93392e-05)
(0.98237 -2.31934e-05 1.9383e-05)
(0.943991 2.42966e-05 2.02236e-05)
(0.943977 -3.26292e-05 2.02599e-05)
(0.905737 3.38978e-05 2.10215e-05)
(0.905723 -2.60021e-05 2.10672e-05)
(0.867794 2.72172e-05 2.19578e-05)
(0.867778 -3.47105e-05 2.19982e-05)
(0.830374 3.60407e-05 2.28346e-05)
(0.830358 -2.89322e-05 2.28824e-05)
(0.793727 3.02622e-05 2.38423e-05)
(0.79371 -3.70703e-05 2.38865e-05)
(0.758056 3.85859e-05 2.48125e-05)
(0.758038 -3.19189e-05 2.48628e-05)
(0.723401 3.33809e-05 2.58704e-05)
(0.723382 -3.98039e-05 2.59183e-05)
(0.689616 4.15071e-05 2.69019e-05)
(0.689596 -3.50253e-05 2.69547e-05)
(0.656379 3.65742e-05 2.79823e-05)
(0.656358 -4.29562e-05 2.80338e-05)
(0.623254 4.47701e-05 2.90631e-05)
(0.623231 -3.8326e-05 2.91186e-05)
(0.589799 3.99436e-05 3.01931e-05)
(0.589773 -4.64729e-05 3.02479e-05)
(0.555651 4.84981e-05 3.13634e-05)
(0.555623 -4.17427e-05 3.14211e-05)
(0.520486 4.34452e-05 3.25559e-05)
(0.520454 -5.0449e-05 3.26132e-05)
(0.484065 5.2657e-05 3.38287e-05)
(0.484028 -4.53604e-05 3.38876e-05)
(0.446452 4.71401e-05 3.51197e-05)
(0.44641 -5.48798e-05 3.51781e-05)
(0.408138 5.73228e-05 3.65428e-05)
(0.408091 -4.91622e-05 3.66013e-05)
(0.369965 5.10884e-05 3.79696e-05)
(0.369913 -5.97699e-05 3.80271e-05)
(0.332872 6.25764e-05 3.95548e-05)
(0.332814 -5.31357e-05 3.96109e-05)
(0.297668 5.51415e-05 4.10757e-05)
(0.297606 -6.53407e-05 4.11306e-05)
(0.265046 6.84944e-05 4.28069e-05)
(0.264981 -5.728e-05 4.28594e-05)
(0.235467 5.94233e-05 4.44143e-05)
(0.235399 -7.15452e-05 4.4466e-05)
(0.20882 7.51602e-05 4.62586e-05)
(0.208747 -6.15901e-05 4.6307e-05)
(0.184283 6.38159e-05 4.78711e-05)
(0.184202 -7.85773e-05 4.79193e-05)
(0.160706 8.26169e-05 4.97759e-05)
(0.160614 -6.60997e-05 4.98197e-05)
(0.137259 6.82176e-05 5.13699e-05)
(0.137151 -8.66138e-05 5.14137e-05)
(0.113984 9.10555e-05 5.34172e-05)
(0.113856 -7.06954e-05 5.34541e-05)
(0.0916723 7.26353e-05 5.5106e-05)
(0.0915241 -9.57224e-05 5.51423e-05)
(0.0713599 0.000100752 5.74596e-05)
(0.0711944 -7.51763e-05 5.74867e-05)
(0.0538289 7.71087e-05 5.93296e-05)
(0.0536521 -0.000105934 5.93567e-05)
(0.0394817 0.000111633 6.19946e-05)
(0.0393027 -7.9685e-05 6.20113e-05)
(0.02848 8.1691e-05 6.40123e-05)
(0.0283087 -0.000117259 6.40312e-05)
(0.020522 0.000124006 6.69122e-05)
(0.020364 -8.39758e-05 6.69207e-05)
(0.0148571 8.58883e-05 6.87997e-05)
(0.0147106 -0.000130247 6.88134e-05)
(0.0106623 0.000137997 7.17338e-05)
(0.0105174 -8.79735e-05 7.1737e-05)
(0.00724449 8.95129e-05 7.33088e-05)
(0.00708282 -0.000145133 7.33197e-05)
(0.00397628 0.000153726 7.62495e-05)
(0.00377051 -9.1604e-05 7.62486e-05)
(0.000146431 9.24305e-05 7.75854e-05)
(-0.000137481 -0.000162094 7.75932e-05)
(-0.00508352 0.000171846 8.08174e-05)
(-0.00547298 -9.42796e-05 8.08106e-05)
(-0.012503 9.457e-05 8.20434e-05)
(-0.0129945 -0.000181186 8.20611e-05)
(-0.0227325 0.000192599 8.56092e-05)
(-0.0232783 -9.57928e-05 8.56159e-05)
(-0.0361534 9.52669e-05 8.65077e-05)
(-0.036678 -0.000203164 8.65493e-05)
(-0.0527999 0.000216227 9.03529e-05)
(-0.0532456 -9.59617e-05 9.03891e-05)
(-0.072627 9.43082e-05 9.08946e-05)
(-0.0729844 -0.000228321 9.09818e-05)
(-0.0957175 0.000243384 9.52148e-05)
(-0.0960096 -9.42744e-05 9.53033e-05)
(-0.121843 9.12554e-05 9.54233e-05)
(-0.122094 -0.000257242 9.55862e-05)
(-0.150332 0.000274753 0.000100432)
(-0.150554 -9.02864e-05 0.000100603)
(-0.180568 8.5682e-05 0.000100293)
(-0.180766 -0.000290601 0.00010057)
(-0.212407 0.000311365 0.000106153)
(-0.212589 -8.33546e-05 0.000106443)
(-0.246164 7.67333e-05 0.000105383)
(-0.246334 -0.000329633 0.00010582)
(-0.281937 0.000354152 0.000112133)
(-0.282096 -7.31139e-05 0.000112583)
(-0.319048 6.39271e-05 0.000110566)
(-0.319195 -0.000375347 0.00011123)
(-0.356183 0.000404737 0.000118462)
(-0.356315 -5.87676e-05 0.00011913)
(-0.391903 4.62567e-05 0.000115784)
(-0.39202 -0.000429493 0.000116755)
(-0.425205 0.000465076 0.000125036)
(-0.425307 -3.95508e-05 0.000125971)
(-0.455147 2.26238e-05 0.00012083)
(-0.455232 -0.000494111 0.000122192)
(-0.480032 0.000537797 0.000131737)
(-0.480097 -1.43999e-05 0.000132968)
(-0.497889 -8.52051e-06 0.000125426)
(-0.49793 -0.000571799 0.000127264)
(-0.507837 0.000626132 0.00013838)
(-0.507857 1.79264e-05 0.000139884)
(-0.510928 -4.87984e-05 0.000129333)
(-0.510931 -0.00066519 0.000131705)
(-0.509814 0.000733535 0.000144733)
(-0.509809 5.85412e-05 0.000146412)
(-0.5076 -0.000101012 0.000132121)
(-0.507595 -0.00077777 0.000135117)
(-0.506502 0.000864674 0.000150985)
(-0.506501 0.000109345 0.000152747)
(-0.506818 -0.000167397 0.000134353)
(-0.50682 -0.000912019 0.000138211)
(-0.507276 0.00102488 0.000157527)
(-0.507274 0.000171937 0.000159276)
(-0.506164 -0.000252661 0.000135044)
(-0.506153 -0.00107235 0.000140156)
(-0.501999 0.00122089 0.000163137)
(-0.501972 0.000247641 0.000164613)
(-0.493831 -0.000361583 0.000132748)
(-0.493785 -0.00126215 0.000139625)
(-0.481511 0.00146101 0.000166666)
(-0.481443 0.000337009 0.000167295)
(-0.465692 -0.000501837 0.000125754)
(-0.465602 -0.00148579 0.000135108)
(-0.447029 0.0017566 0.000167979)
(-0.446913 0.000440658 0.000166794)
(-0.424982 -0.00068248 0.000114778)
(-0.424829 -0.00174592 0.000127712)
(-0.39858 0.00212311 0.000169693)
(-0.39838 0.000559 0.000165186)
(-0.368338 -0.000916535 0.000101309)
(-0.368088 -0.00204514 0.000138092)
(-0.335984 0.00258009 0.000173381)
(-0.335687 0.000690911 0.000163221)
(-0.303842 -0.00122344 8.3754e-05)
(-0.303511 -0.002387 0.00015978)
(-0.274267 0.00315267 0.0001779)
(-0.27392 0.000834368 0.000158987)
(-0.248355 -0.00162839 5.92692e-05)
(-0.248001 -0.00277408 0.000185075)
(-0.225636 0.00534278 0.000560209)
(-0.225296 0.000983318 0.000151448)
(-0.205003 -0.00384677 0.000194554)
(-0.204704 -0.00289048 8.24454e-05)
(-0.187102 0.00580198 0.000241318)
(-0.186861 0.00140409 0.000129011)
(-0.173114 -0.00462064 0.000222078)
(-0.172939 -0.0029443 6.96337e-05)
(-0.162695 0.00617711 0.000269424)
(-0.16257 0.0018067 0.000101244)
(-0.153502 -0.00535807 0.000256905)
(-0.153403 -0.00292353 5.22333e-05)
(-0.143767 0.00644487 0.000303026)
(-0.14369 0.00219636 6.76543e-05)
(-0.134885 -0.00604659 0.000299406)
(-0.134843 -0.00281714 3.00379e-05)
(-0.129674 0.00657379 0.000340758)
(-0.129662 0.0025741 2.51417e-05)
(0.0844574 -9.07564e-09 -1.82552e-21)
(0.0844573 1.68229e-08 8.71987e-07)
(0.254397 -1.23254e-08 1.67382e-10)
(0.254397 5.02879e-08 1.31423e-06)
(0.426596 -2.82414e-08 5.44163e-10)
(0.426595 7.07784e-08 1.16586e-06)
(0.601072 -6.42504e-08 1.04961e-09)
(0.601071 7.09828e-08 7.85433e-07)
(0.777842 -8.70551e-08 1.38569e-09)
(0.777841 7.06542e-08 4.49408e-07)
(0.956922 -9.13091e-08 1.64243e-09)
(0.956921 7.86254e-08 2.68236e-07)
(1.13834 -9.18892e-08 1.90025e-09)
(1.13833 8.57189e-08 1.77711e-07)
(1.32212 -9.29501e-08 2.20773e-09)
(1.32211 9.04039e-08 1.2868e-07)
(1.5083 -9.45337e-08 2.58186e-09)
(1.5083 9.31956e-08 9.91923e-08)
(1.69694 -9.53069e-08 3.02056e-09)
(1.69694 9.60255e-08 7.97507e-08)
(1.88809 -9.66775e-08 3.52563e-09)
(1.88809 9.77021e-08 6.59078e-08)
(2.08181 -9.77052e-08 4.10121e-09)
(2.08181 9.93478e-08 5.53786e-08)
(2.27818 -9.86174e-08 4.74802e-09)
(2.27817 1.00824e-07 4.68864e-08)
(2.47725 -9.96611e-08 5.47142e-09)
(2.47725 1.01959e-07 3.96618e-08)
(2.67913 -1.00475e-07 6.27593e-09)
(2.67912 1.03159e-07 3.32091e-08)
(2.88387 -1.01495e-07 7.16622e-09)
(2.88387 1.04023e-07 2.71893e-08)
(3.09158 -1.02171e-07 8.14686e-09)
(3.09157 1.05129e-07 2.13565e-08)
(3.30232 -1.02976e-07 9.22335e-09)
(3.30232 1.0602e-07 1.55219e-08)
(3.51618 -1.0394e-07 9.58045e-09)
(3.51618 1.06687e-07 9.5314e-09)
(3.73325 -1.04611e-07 3.30164e-09)
(3.73324 1.07591e-07 3.25489e-09)
(3.95359 -1.05224e-07 -3.3784e-09)
(3.95358 1.08509e-07 -3.42322e-09)
(4.17727 -1.06055e-07 -1.05687e-08)
(4.17727 1.09172e-07 -1.06119e-08)
(4.40436 -1.07135e-07 -1.83744e-08)
(4.40436 1.09558e-07 -1.84161e-08)
(4.63491 -1.07293e-07 -2.68954e-08)
(4.6349 1.10844e-07 -2.0516e-08)
(4.86895 -1.08261e-07 -3.62343e-08)
(4.86895 1.11301e-07 -2.25955e-08)
(5.10652 -1.08991e-07 -4.64984e-08)
(5.10652 1.11985e-07 -2.48358e-08)
(5.34764 -1.10113e-07 -5.77966e-08)
(5.34763 1.12266e-07 -2.72392e-08)
(5.59228 -1.09989e-07 -7.02394e-08)
(5.59228 1.13793e-07 -2.98227e-08)
(5.84044 -1.11324e-07 -8.39466e-08)
(5.84044 1.13855e-07 -3.2601e-08)
(6.09207 -1.11771e-07 -9.90469e-08)
(6.09207 1.14809e-07 -3.55791e-08)
(6.34711 -1.1311e-07 -1.05088e-07)
(6.34711 1.14877e-07 -3.87627e-08)
(6.60547 -1.12828e-07 -1.04242e-07)
(6.60547 1.16572e-07 -4.21711e-08)
(6.86704 -1.14311e-07 -1.03588e-07)
(6.86704 1.16514e-07 -4.58225e-08)
(7.13167 -1.14873e-07 -1.03112e-07)
(7.13167 1.17387e-07 -4.97203e-08)
(7.39921 -1.15935e-07 -1.028e-07)
(7.39921 1.17779e-07 -5.38766e-08)
(7.66946 -1.1593e-07 -1.02643e-07)
(7.66946 1.19253e-07 -5.83154e-08)
(7.94219 -1.17372e-07 -1.02631e-07)
(7.94219 1.19303e-07 -6.30554e-08)
(8.21715 -1.18063e-07 -1.02758e-07)
(8.21715 1.20122e-07 -6.81025e-08)
(8.49406 -1.19083e-07 -1.03016e-07)
(8.49406 1.20641e-07 -7.34722e-08)
(8.77259 -1.19232e-07 -1.03402e-07)
(8.77259 1.22056e-07 -7.91922e-08)
(9.0524 -1.20499e-07 -1.03909e-07)
(9.0524 1.22384e-07 -8.52878e-08)
(9.33311 -1.21435e-07 -1.04536e-07)
(9.33311 1.23073e-07 -9.17694e-08)
(9.6143 -1.22691e-07 -1.05278e-07)
(9.6143 1.23477e-07 -9.86488e-08)
(9.89553 -1.22253e-07 -1.06132e-07)
(9.89553 1.25612e-07 -1.05968e-07)
(10.1763 -1.24996e-07 -1.13741e-07)
(10.1763 1.24604e-07 -1.13742e-07)
(10.4562 -1.23919e-07 -1.21997e-07)
(10.4562 1.27462e-07 -1.21999e-07)
(10.7346 -1.27618e-07 -1.30746e-07)
(10.7346 1.25582e-07 -1.30748e-07)
(11.0109 -1.25052e-07 -1.40031e-07)
(11.0109 1.30019e-07 -1.40033e-07)
(11.2846 -1.28543e-07 -1.49905e-07)
(11.2846 1.28447e-07 -1.49907e-07)
(11.5551 -1.30459e-07 -1.60319e-07)
(11.5551 1.28502e-07 -1.60322e-07)
(11.8217 -1.3102e-07 -1.71289e-07)
(11.8217 1.29973e-07 -1.71291e-07)
(12.0838 -1.24092e-07 -1.83046e-07)
(12.0838 1.38983e-07 -1.83048e-07)
(12.3407 -1.4427e-07 -1.95359e-07)
(12.3407 1.20955e-07 -1.95362e-07)
(12.5917 -1.22597e-07 -2.08337e-07)
(12.5917 1.44839e-07 -2.0834e-07)
(12.8361 -1.4133e-07 -2.22146e-07)
(12.8361 1.28386e-07 -2.22149e-07)
(13.0733 -1.35696e-07 -2.36539e-07)
(13.0733 1.36377e-07 -2.36542e-07)
(13.3025 -1.32851e-07 -2.51815e-07)
(13.3025 1.41637e-07 -2.51818e-07)
(13.5229 -1.47462e-07 -2.67762e-07)
(13.5229 1.29536e-07 -2.67765e-07)
(13.734 -1.32565e-07 -2.84461e-07)
(13.734 1.47008e-07 -2.84464e-07)
(13.935 -1.48062e-07 -3.01986e-07)
(13.935 1.34185e-07 -3.0199e-07)
(14.1253 -1.37425e-07 -3.20284e-07)
(14.1253 1.47563e-07 -3.20288e-07)
(14.3041 -1.49804e-07 -3.39391e-07)
(14.3041 1.38029e-07 -3.39395e-07)
(14.4709 -1.49498e-07 -3.59039e-07)
(14.4709 1.41271e-07 -3.59043e-07)
(14.625 -1.41114e-07 -3.79539e-07)
(14.625 1.52664e-07 -3.79544e-07)
(14.766 -1.54774e-07 -4.00821e-07)
(14.766 1.4214e-07 -4.00827e-07)
(14.8932 -1.57989e-07 -4.22454e-07)
(14.8932 1.42134e-07 -4.22459e-07)
(15.0062 -1.4173e-07 -4.44874e-07)
(15.0062 1.61708e-07 -4.4488e-07)
(15.1047 -1.7633e-07 -4.67608e-07)
(15.1047 1.30527e-07 -4.67614e-07)
(15.1882 -1.30291e-07 -4.91046e-07)
(15.1882 1.80079e-07 -4.91053e-07)
(15.2565 -1.97993e-07 -5.14614e-07)
(15.2565 1.15996e-07 -5.14621e-07)
(15.3093 -1.23925e-07 -5.3854e-07)
(15.3093 1.9378e-07 -5.38547e-07)
(15.3466 -2.0284e-07 -5.62787e-07)
(15.3466 1.18688e-07 -5.62794e-07)
(15.3682 -1.35274e-07 -5.87042e-07)
(15.3682 1.90171e-07 -5.8705e-07)
(15.3742 -1.9787e-07 -6.116e-07)
(15.3742 1.31599e-07 -6.11608e-07)
(15.3648 -1.48728e-07 -6.36108e-07)
(15.3648 1.84857e-07 -6.36116e-07)
(15.34 -1.95174e-07 -6.60814e-07)
(15.34 1.42635e-07 -6.60822e-07)
(15.3001 -1.65268e-07 -6.85284e-07)
(15.3001 1.76854e-07 -6.85292e-07)
(15.2456 -1.84303e-07 -7.10077e-07)
(15.2456 1.62247e-07 -7.10086e-07)
(15.1768 -1.86081e-07 -7.3465e-07)
(15.1768 1.64979e-07 -7.34659e-07)
(15.0942 -1.73751e-07 -7.59579e-07)
(15.0942 1.81932e-07 -7.59588e-07)
(14.9983 -2.07671e-07 -7.84318e-07)
(14.9983 1.52725e-07 -7.84327e-07)
(14.8898 -1.65989e-07 -8.09361e-07)
(14.8898 1.99241e-07 -8.09371e-07)
(14.7693 -2.17525e-07 -8.3462e-07)
(14.7693 1.52615e-07 -8.34629e-07)
(14.6376 -1.75834e-07 -8.59948e-07)
(14.6376 1.99363e-07 -8.59958e-07)
(14.4954 -2.1447e-07 -8.85749e-07)
(14.4954 1.65846e-07 -8.85759e-07)
(14.3434 -1.84149e-07 -9.11959e-07)
(14.3434 2.01461e-07 -9.11969e-07)
(14.1825 -2.22637e-07 -9.38554e-07)
(14.1825 1.68312e-07 -9.38565e-07)
(14.0134 -1.87546e-07 -9.6566e-07)
(14.0134 2.08958e-07 -9.65671e-07)
(13.8369 -2.31004e-07 -9.93248e-07)
(13.8369 1.71073e-07 -9.93259e-07)
(13.6539 -1.94298e-07 -1.0213e-06)
(13.6539 2.13621e-07 -1.02131e-06)
(13.465 -2.28148e-07 -1.05026e-06)
(13.465 1.856e-07 -1.05028e-06)
(13.2711 -2.09891e-07 -1.07977e-06)
(13.2711 2.10019e-07 -1.07978e-06)
(13.073 -2.29122e-07 -1.11008e-06)
(13.073 1.96886e-07 -1.1101e-06)
(12.8713 -2.25972e-07 -1.14081e-06)
(12.8713 2.06569e-07 -1.14083e-06)
(12.6666 -2.18058e-07 -1.17277e-06)
(12.6666 2.2087e-07 -1.17278e-06)
(12.4598 -2.46457e-07 -1.20537e-06)
(12.4598 1.99412e-07 -1.20539e-06)
(12.2513 -2.28393e-07 -1.23847e-06)
(12.2513 2.24181e-07 -1.23848e-06)
(12.0417 -2.37339e-07 -1.27282e-06)
(12.0417 2.22653e-07 -1.27284e-06)
(11.8316 -2.53451e-07 -1.30763e-06)