/*--------------------------------*- C++ -*----------------------------------*\
| =========                 |                                                 |
| \\      /  F ield         | OpenFOAM: The Open Source CFD Toolbox           |
|  \\    /   O peration     | Version:  2012                                  |
|   \\  /    A nd           | Website:  www.openfoam.com                      |
|    \\/     M anipulation  |                                                 |
\*---------------------------------------------------------------------------*/
FoamFile
{
    version     2.0;
    format      ascii;
    class       volTensorField;
    location    "16000";
    object      grad(U);
}
// * * * * * * * * * * * * * * * * * * * * * * * * * * * * * * * * * * * * * //

dimensions      [0 0 -1 0 0 0 0];


internalField   nonuniform List<tensor> 
640
(
(0 4.21126e-30 1.97403e-31 33.4827 -4.24286e-12 -1.54374e-13 0.191462 -1.21286e-14 -3.27865e-16)
(0 -2.02727e-28 -6.5801e-32 33.4827 -2.24804e-15 1.70214e-17 0.191462 -6.83053e-18 5.77578e-16)
(-6.98901e-17 -5.76837e-26 -2.38843e-28 33.4629 -1.85656e-31 -6.38003e-14 0.585653 -6.31089e-30 -7.73228e-16)
(0 0 -2.48299e-31 33.4629 -8.84322e-15 2.29175e-17 0.585653 -6.82079e-17 7.96355e-16)
(0 1.49913e-29 2.34239e-31 33.4416 2.61467e-13 -2.97854e-14 0.884741 -4.24642e-15 -7.56907e-16)
(6.57863e-17 -7.49565e-30 0 33.4416 -8.35907e-15 7.2138e-17 0.884741 -1.1229e-16 8.93992e-16)
(1.78224e-16 -9.9651e-30 -4.05078e-31 33.4172 2.72813e-13 -3.03325e-14 0.937103 -9.3382e-15 -8.99536e-16)
(0 1.41424e-29 4.4195e-31 33.4172 -1.03631e-14 1.38258e-16 0.937103 -1.76258e-16 1.00463e-15)
(0 0 -2.08462e-31 33.3848 8.52056e-14 -3.34011e-14 0.992219 -5.4081e-15 -1.03301e-15)
(-5.11788e-16 0 2.08462e-31 33.3848 -1.15841e-14 1.41828e-16 0.992219 -2.56854e-16 1.12879e-15)
(4.42833e-16 -2.43116e-28 -1.17994e-30 33.3322 -3.46435e-28 -3.55815e-14 1.04966 6.31089e-30 -1.14823e-15)
(3.12463e-16 1.25861e-29 1.17994e-30 33.3322 -1.24932e-14 1.25177e-16 1.04966 -3.48121e-16 1.26716e-15)
(-9.24803e-16 8.50066e-30 1.99561e-30 33.2331 8.71225e-15 -3.69435e-14 1.10829 -1.41318e-16 -1.25177e-15)
(4.17757e-16 -2.37467e-29 -1.85521e-30 33.2331 -1.40422e-14 1.16288e-16 1.10829 -4.47291e-16 1.41949e-15)
(-3.22459e-16 3.32076e-29 7.93466e-31 33.0388 1.82449e-14 -3.74893e-14 1.1657 -6.342e-16 -1.32888e-15)
(0 -1.68015e-29 -3.50031e-31 33.0388 -1.53859e-14 1.11916e-16 1.1657 -5.7035e-16 1.58484e-15)
(0 -1.58501e-29 -1.32084e-30 32.6719 1.96361e-14 -3.67918e-14 1.21778 -6.20221e-16 -1.35417e-15)
(3.16894e-15 1.58501e-29 1.32084e-30 32.6719 -1.61473e-14 9.80712e-17 1.21778 -7.04068e-16 1.75829e-15)
(4.74937e-16 -2.50763e-29 -2.03998e-30 32.0296 2.12155e-14 -3.43719e-14 1.25872 -8.17091e-16 -1.30058e-15)
(0 1.99367e-29 1.86907e-30 32.0296 -1.7649e-14 5.27224e-17 1.25872 -8.49428e-16 1.93208e-15)
(-1.11807e-15 1.49334e-29 1.04274e-30 31.0069 2.24633e-14 -3.0033e-14 1.28207 -8.22643e-16 -1.15551e-15)
(0 -4.70195e-30 -5.87743e-31 31.0069 -1.92865e-14 -5.8499e-19 1.28207 -1.03142e-15 2.09333e-15)
(1.29573e-15 -5.67903e-30 -2.79429e-32 29.5385 2.40709e-14 -2.41506e-14 1.28302 -1.02342e-15 -9.35266e-16)
(5.18293e-15 0 0 29.5385 -2.03931e-14 6.00558e-18 1.28302 -1.24441e-15 2.22895e-15)
(-7.40006e-16 1.3388e-29 1.92269e-30 27.6399 3.05948e-14 -1.76949e-14 1.2606 -1.06816e-15 -6.86299e-16)
(2.96002e-15 0 -5.23064e-31 27.6399 -2.05112e-14 2.39993e-17 1.2606 -1.48342e-15 2.32929e-15)
(8.33361e-16 -3.64459e-29 -4.35355e-30 25.4164 2.21622e-14 -1.18327e-14 1.2182 -1.76851e-15 -4.61738e-16)
(6.66689e-15 3.15804e-29 3.94756e-30 25.4164 -2.04536e-14 1.50433e-17 1.2182 -1.71759e-15 2.38952e-15)
(-1.9739e-15 -4.8813e-29 -2.34787e-30 23.0282 1.36407e-14 -7.33532e-15 1.16204 -3.52725e-16 -2.9203e-16)
(0 2.23441e-29 2.79301e-30 23.0282 -2.14206e-14 2.78703e-17 1.16204 -1.99226e-15 2.41305e-15)
(-1.0151e-15 -2.32889e-29 -3.92082e-30 20.6369 2.84301e-14 -4.39881e-15 1.09878 -1.70513e-15 -1.87208e-16)
(4.06038e-15 2.81051e-29 4.39142e-30 20.6369 -2.17687e-14 5.29812e-17 1.09878 -2.28747e-15 2.40709e-15)
(1.10035e-15 1.81312e-30 1.17149e-30 18.3659 2.40671e-14 -2.81953e-15 1.03386 -1.4032e-15 -1.39084e-16)
(4.40139e-15 0 0 18.3659 -2.1095e-14 1.22878e-16 1.03386 -2.57194e-15 2.38262e-15)
(-1.18082e-15 -7.73776e-30 -1.07015e-30 16.2875 2.2703e-14 -2.23137e-15 0.970919 -1.39368e-15 -1.35722e-16)
(4.72329e-15 1.25061e-29 1.56326e-30 16.2875 -2.04908e-14 1.43616e-16 0.970919 -2.91669e-15 2.35186e-15)
(-2.51274e-15 2.71347e-29 3.9406e-30 14.4313 2.12106e-14 -2.26843e-15 0.912008 -1.4036e-15 -1.61266e-16)
(0 -1.76969e-29 -2.94948e-30 14.4313 -1.89437e-14 1.0411e-16 0.912008 -3.26482e-15 2.31024e-15)
(3.13278e-15 -3.33896e-29 -4.86931e-30 12.7976 2.01013e-14 -2.75193e-15 0.858038 -1.36527e-15 -2.21446e-16)
(2.17579e-15 3.33896e-29 4.86931e-30 12.7976 -1.69588e-14 -1.33359e-17 0.858038 -3.52726e-15 2.26464e-15)
(0 3.14988e-29 3.93735e-30 11.3714 1.98617e-14 -3.44964e-15 0.809213 -1.41899e-15 -2.86665e-16)
(0 -3.14988e-29 -3.93735e-30 11.3714 -1.70965e-14 -2.80539e-17 0.809213 -3.75828e-15 2.2149e-15)
(0 1.48576e-29 6.19066e-31 10.1306 1.9608e-14 -4.12017e-15 0.765343 -1.49787e-15 -3.56261e-16)
(-7.21679e-15 -9.90505e-30 0 10.1306 -1.84913e-14 -8.46163e-17 0.765343 -4.04232e-15 2.17352e-15)
(-1.51425e-15 9.21051e-30 4.9909e-31 9.05181 1.9759e-14 -4.74814e-15 0.726051 -1.5538e-15 -4.28764e-16)
(0 0 1.16802e-30 9.05181 -1.77431e-14 -1.62682e-16 0.726051 -4.42299e-15 2.1173e-15)
(1.56951e-15 -2.65018e-29 -4.91129e-30 8.11255 2.01272e-14 -5.34669e-15 0.690884 -1.70874e-15 -5.08073e-16)
(1.25561e-14 2.20376e-29 4.40751e-30 8.11255 -1.62862e-14 -1.38973e-16 0.690884 -4.77315e-15 2.05959e-15)
(1.62182e-15 2.05542e-29 3.64667e-30 7.29277 1.97583e-14 -5.9027e-15 0.659385 -1.81223e-15 -5.8789e-16)
(0 -2.49476e-29 -4.15793e-30 7.29277 -1.5724e-14 -1.69639e-16 0.659385 -5.10599e-15 1.99382e-15)
(-5.55116e-15 2.43519e-29 3.98518e-30 6.57503 1.84043e-14 -6.37497e-15 0.631122 -1.84963e-15 -6.66438e-16)
(6.686e-15 0 -1.96124e-30 6.57503 -1.4189e-14 -2.86327e-16 0.631122 -5.42095e-15 1.92433e-15)
(-3.43764e-15 2.33756e-29 3.84204e-30 5.94444 1.92224e-14 -6.82532e-15 0.6057 -1.76242e-15 -7.57156e-16)
(-6.87529e-15 -1.48015e-29 -2.77527e-30 5.94444 -1.46621e-14 -5.27739e-16 0.6057 -5.73104e-15 1.83794e-15)
(-3.93032e-15 6.98165e-30 3.49082e-30 5.38839 2.11957e-14 -7.13877e-15 0.58277 -2.25377e-15 -8.20096e-16)
(0 0 -2.61812e-30 5.38839 -1.65092e-14 -3.1372e-16 0.58277 -6.14473e-15 1.72324e-15)
(1.80735e-15 9.13311e-30 1.07798e-30 4.89629 1.92243e-14 -7.37309e-15 0.562024 -2.42889e-15 -9.07243e-16)
(0 -6.5863e-30 -8.23287e-31 4.89629 -1.60907e-14 2.42932e-17 0.562024 -6.63952e-15 1.62009e-15)
(1.84896e-15 -2.88822e-29 -6.02021e-30 4.45921 1.74691e-14 -7.73406e-15 0.543195 -2.05746e-15 -1.0137e-15)
(0 2.48534e-29 5.43667e-30 4.45921 -1.4422e-14 -6.43222e-17 0.543195 -7.14762e-15 1.50498e-15)
(0 -1.1723e-29 -2.19806e-30 4.06966 1.73153e-14 -8.08214e-15 0.526049 -2.28093e-15 -1.11367e-15)
(0 1.75845e-29 2.93075e-30 4.06966 -1.42693e-14 -2.60657e-16 0.526049 -7.54471e-15 1.36518e-15)
(-5.78312e-15 3.37335e-29 8.8011e-30 3.72129 1.76564e-14 -8.31666e-15 0.510384 -2.27023e-15 -1.20636e-15)
(-1.08237e-14 -2.21183e-29 -6.91197e-30 3.72129 -1.46232e-14 -4.97375e-16 0.510384 -8.07838e-15 1.20491e-15)
(1.96512e-15 -3.73431e-30 -3.26218e-30 3.40879 1.87985e-14 -8.50077e-15 0.496024 -2.66088e-15 -1.30739e-15)
(7.86046e-15 0 3.91234e-30 3.40879 -1.39936e-14 -3.98199e-16 0.496024 -8.61886e-15 9.78154e-16)
(-2.00137e-15 3.60068e-30 -5.52127e-31 3.1276 1.77376e-14 -8.70604e-15 0.482815 -2.89842e-15 -1.42173e-15)
(8.00547e-15 4.92107e-30 3.6908e-30 3.1276 -1.432e-14 3.07237e-16 0.482815 -9.20037e-15 7.37078e-16)
(-2.03656e-15 -1.09865e-30 -1.61185e-30 2.87387 1.60826e-14 -8.84264e-15 0.470624 -2.64777e-15 -1.51576e-15)
(0 4.6424e-30 4.6424e-30 2.87387 -1.38003e-14 3.64513e-16 0.470624 -9.84913e-15 1.40225e-16)
(-2.07078e-15 -9.22581e-31 -2.50618e-30 2.64431 1.61501e-14 -8.11511e-15 0.459333 -2.69109e-15 -1.3339e-15)
(0 4.37952e-30 5.4744e-30 2.64431 -1.21906e-14 1.38126e-15 0.459333 -1.03718e-14 -2.7695e-16)
(0 -4.13152e-30 -5.60519e-45 2.43609 1.60055e-14 1.57772e-30 0.44884 -2.99964e-15 0)
(0 4.13152e-30 -1.88371e-32 2.43609 -1.17777e-14 -2.02047e-31 0.44884 -1.08902e-14 -1.35735e-16)
(-2.13662e-15 1.88004e-29 5.84635e-30 2.24679 1.46821e-14 3.19604e-14 0.439053 -2.9683e-15 -5.69928e-15)
(0 -1.55903e-29 -5.84635e-30 2.24679 -1.12335e-14 -5.23874e-15 0.439053 -1.16367e-14 -3.80427e-16)
(0 1.47074e-29 3.67686e-30 2.0743 1.47214e-14 2.40366e-14 0.429893 -2.83172e-15 -4.05488e-15)
(8.67341e-15 -1.47074e-29 -3.67686e-30 2.0743 -8.49639e-15 -5.03464e-15 0.429893 -1.22224e-14 -6.58667e-16)
(-6.10473e-15 9.88909e-30 3.46865e-30 1.91681 1.51204e-14 1.22186e-14 0.421288 -3.35229e-15 -3.12853e-15)
(6.84483e-15 0 -8.67162e-31 1.91681 -5.96255e-15 -4.93479e-15 0.421288 -1.28051e-14 -9.17367e-16)
(0 0 8.18058e-31 1.77273 1.40103e-14 5.15129e-15 0.413174 -3.36443e-15 -1.86609e-15)
(-1.8421e-15 0 0 1.77273 -6.02205e-15 -5.21895e-15 0.413174 -1.34247e-14 -1.22212e-15)
(-2.25947e-15 -3.39176e-30 -2.03881e-30 1.64068 1.18081e-14 1.56335e-15 0.405496 -3.2284e-15 -5.20202e-16)
(9.03788e-15 6.17387e-30 2.3152e-30 1.64068 -6.23965e-15 -4.46698e-15 0.405496 -1.37348e-14 -1.54394e-15)
(0 0 -1.45607e-30 1.51946 9.54885e-15 1.70525e-15 0.398203 -2.64835e-15 -2.52288e-16)
(9.15448e-15 0 2.1841e-30 1.51946 -6.33802e-15 -3.04926e-15 0.398203 -1.42292e-14 -1.72264e-15)
(-2.31722e-15 -2.73589e-30 -1.12341e-30 1.40799 9.12604e-15 2.34397e-15 0.391248 -2.3964e-15 -6.61857e-16)
(0 0 1.37361e-30 1.40799 -5.10065e-15 -2.40994e-15 0.391248 -1.49064e-14 -1.88519e-15)
(2.34529e-15 -1.30098e-29 -2.18049e-30 1.30535 9.25064e-15 1.91727e-15 0.38459 -2.73158e-15 -6.5245e-16)
(9.38115e-15 0 1.94375e-30 1.30535 -3.26231e-15 -2.77899e-15 0.38459 -1.55034e-14 -2.10591e-15)
(-5.12558e-15 7.448e-30 8.6444e-31 1.2107 8.81828e-15 1.55532e-15 0.378191 -2.76902e-15 -4.82415e-16)
(2.75272e-15 -4.88981e-30 -6.11226e-31 1.2107 -2.48587e-15 -2.8495e-15 0.378191 -1.60943e-14 -2.42498e-15)
(-2.59684e-15 -4.61291e-30 -1.15323e-30 1.12332 7.22889e-15 1.0504e-15 0.372019 -2.78871e-15 -4.98184e-16)
(1.21967e-14 3.31362e-30 1.15323e-30 1.12332 -1.0035e-15 -2.43794e-15 0.372019 -1.40325e-14 -2.68411e-15)
(0 0 0 1.04254 5.74967e-15 8.01296e-16 0.366041 -2.01783e-15 -1.9465e-16)
(-9.70642e-15 2.64209e-30 5.52075e-31 1.04254 4.22403e-17 -2.40527e-15 0.366041 -1.19651e-14 -1.98413e-15)
(0 0 0 0.96779 5.31876e-15 1.09131e-15 0.360229 -2.05465e-15 -3.78103e-16)
(9.81124e-15 3.66053e-31 -1.36192e-30 0.96779 2.93247e-16 -1.57722e-15 0.360229 -9.99383e-15 -7.46634e-16)
(-2.98397e-16 6.3842e-30 1.92045e-31 0.898548 4.80534e-15 5.8663e-16 0.354556 -1.93419e-15 -4.42944e-16)
(-1.20946e-14 4.82147e-30 2.71469e-30 0.898548 1.01229e-15 -5.54266e-16 0.354556 -8.19799e-15 -1.27296e-16)
(7.5119e-15 -7.54513e-30 -7.90405e-31 0.834348 6.34746e-15 3.21392e-16 0.348999 -1.88794e-15 -1.43288e-16)
(1.00159e-14 -5.55418e-30 -1.75572e-30 0.834348 1.92177e-15 -2.88982e-16 0.348999 -6.99302e-15 -1.16115e-16)
(0 0 0 0.77477 6.7986e-15 1.69415e-16 0.343534 -3.51307e-15 -5.26695e-16)
(-3.88054e-15 6.89323e-30 8.61654e-31 0.77477 1.45359e-15 -2.88981e-16 0.343534 -4.42551e-15 -1.43036e-16)
(0 -3.25145e-30 0 0.719436 4.67572e-15 5.84061e-17 0.338139 -2.53685e-15 -5.42409e-16)
(1.02141e-14 -5.40543e-30 -3.50325e-46 0.719436 1.35668e-15 -1.87279e-30 0.338139 -2.22494e-15 3.9443e-31)
(0 0 -7.66832e-31 0.668005 3.1939e-15 6.45821e-16 0.332794 -1.87519e-15 -2.32902e-16)
(1.03109e-14 -9.21179e-30 -1.46524e-30 0.668005 1.9841e-15 1.99672e-15 0.332794 -1.31765e-15 -5.01486e-16)
(6.56379e-16 2.4058e-30 2.85767e-31 0.620166 1.90309e-15 4.5111e-16 0.327478 -1.3172e-15 -4.64772e-16)
(-3.25794e-15 0 0 0.620166 2.01995e-15 2.48681e-15 0.327478 -1.02754e-15 -1.62474e-15)
(-2.62502e-15 7.89285e-30 1.66761e-31 0.575638 2.44921e-15 7.59507e-18 0.322171 -6.91192e-16 -2.14341e-18)
(-1.35735e-14 1.47539e-29 3.14742e-31 0.575638 2.53376e-15 4.91002e-16 0.322171 -1.46325e-15 -1.93039e-15)
(5.29623e-15 -4.47289e-30 -6.19658e-31 0.534162 4.40704e-15 6.00048e-16 0.316853 -2.33219e-15 -5.21263e-16)
(1.05925e-14 -9.02779e-30 -1.03914e-30 0.534162 2.21896e-15 1.20368e-16 0.316853 -1.75152e-15 -9.14203e-16)
(0 0 0 0.495504 5.04303e-15 -7.67884e-16 0.311503 -2.95956e-15 -1.20148e-15)
(0 0 0 0.495504 2.19095e-15 9.70332e-16 0.311503 -8.7824e-16 -1.40018e-15)
(2.58034e-15 4.58361e-30 -4.71501e-31 0.459446 2.48578e-15 7.54402e-30 0.306097 -3.4515e-15 -3.9443e-31)
(1.89653e-14 -2.22988e-29 2.29181e-30 0.459446 4.67776e-15 6.95223e-16 0.306097 -1.93152e-15 -2.46713e-15)
(0 -1.04496e-30 0 0.425789 4.50598e-29 1.49048e-15 0.300611 0 -1.47244e-15)
(8.42662e-15 -6.95196e-30 -8.15744e-32 0.425789 4.45498e-15 -5.88175e-16 0.300611 -4.43087e-15 -2.05878e-15)
(2.29638e-15 -4.0792e-30 -5.099e-31 0.394347 2.13227e-15 1.60971e-15 0.295018 -2.19843e-15 -6.27282e-16)
(-2.29638e-15 0 0 0.394347 2.51361e-15 -1.16548e-15 0.295018 -1.8433e-15 -4.76788e-16)
(-5.51623e-15 4.42218e-30 0 0.364948 1.59014e-15 1.94124e-15 0.289286 -9.87795e-16 -1.85276e-15)
(1.10325e-14 -7.44616e-30 -8.05747e-45 0.364948 1.10428e-15 -3.51008e-30 0.289286 -2.54298e-15 -3.9443e-31)
(0 -7.26059e-30 0 0.33743 1.99698e-15 1.12004e-15 0.28338 -1.57599e-15 -1.2671e-15)
(4.08735e-15 0 0 0.33743 -5.80187e-16 2.13908e-15 0.28338 -7.45708e-16 -1.21966e-15)
(2.79952e-15 -5.47104e-30 -2.78552e-32 0.311641 2.24425e-15 -1.79368e-16 0.277256 -1.85364e-15 -1.00203e-15)
(1.11981e-14 1.4013e-45 0 0.311641 3.65977e-29 3.0822e-15 0.277256 0 -9.60163e-16)
(-2.81964e-15 1.89207e-30 1.12164e-31 0.287436 1.36468e-15 -5.43965e-16 0.270864 -2.22919e-15 -2.59414e-16)
(1.12786e-14 -7.23808e-30 0 0.287436 1.82551e-15 1.27706e-15 0.270864 -3.00837e-15 1.46855e-16)
(-2.83937e-15 1.82471e-30 0 0.264679 -1.1212e-15 -4.45227e-16 0.264142 -2.67266e-15 -4.32469e-16)
(0 0 0 0.264679 3.99905e-16 -9.88179e-16 0.264142 -3.97847e-16 -3.5197e-16)
(6.47449e-15 -4.32704e-31 -7.67858e-61 0.243236 -3.74843e-29 -2.33944e-30 0.257015 -3.15544e-30 0)
(1.14348e-14 -8.02345e-30 3.59407e-31 0.243236 1.58358e-16 -7.17352e-17 0.257015 -2.08887e-15 -8.33061e-16)
(0 0 -3.39055e-31 0.222976 6.88132e-16 3.99279e-16 0.24939 -9.88698e-16 -9.13014e-16)
(-1.15103e-14 8.31918e-30 3.39055e-31 0.222976 -8.64862e-16 1.13014e-15 0.24939 -1.93263e-15 -4.09842e-16)
(0 0 -2.50695e-31 0.203769 -2.95634e-16 -7.62782e-30 0.241148 -1.4811e-15 0)
(-1.15841e-14 2.23615e-30 0 0.203769 8.18443e-30 1.86447e-15 0.241148 -3.15544e-30 3.13064e-16)
(8.34973e-15 -2.45998e-30 4.52614e-31 0.185483 -4.06145e-16 3.20896e-15 0.232141 -2.5923e-16 7.55584e-16)
(-5.43571e-15 2.18455e-31 -3.77178e-31 0.185483 3.05115e-16 2.67577e-16 0.232141 -1.94745e-16 1.20777e-15)
(0 -7.00649e-46 2.81389e-31 0.167979 0 0 0.222176 0 4.93038e-32)
(1.1726e-14 -4.68957e-30 -7.47222e-31 0.167979 1.4801e-15 4.4053e-16 0.222176 -1.55889e-15 -8.93849e-16)
(5.89695e-15 -3.78918e-30 -6.02863e-31 0.151109 1.36343e-15 -9.86076e-32 0.210997 -3.80022e-15 0)
(-4.83753e-15 0 7.36852e-46 0.151109 1.12926e-15 -5.17077e-30 0.210997 -2.79398e-15 -1.97215e-31)
(2.96488e-15 -2.66522e-30 -5.06661e-31 0.134704 5.63905e-19 4.62477e-16 0.198265 -4.28705e-19 4.21206e-17)
(0 0 5.48512e-31 0.134704 7.94491e-16 1.81762e-30 0.198265 -9.2736e-16 -9.86076e-32)
(7.61756e-15 -4.04611e-30 8.39424e-32 0.118569 2.43897e-15 -4.37942e-16 0.183515 -2.28798e-15 8.8232e-17)
(1.19227e-14 -7.90152e-30 -2.98731e-32 0.118569 2.24597e-15 -3.46953e-16 0.183515 -2.09089e-15 1.35899e-15)
(1.00531e-14 -3.28726e-30 2.25452e-31 0.102467 3.49297e-16 -2.51553e-16 0.16611 -5.67269e-15 3.33454e-17)
(1.19833e-14 -2.00156e-30 1.75162e-46 0.102467 -2.36658e-30 1.97215e-31 0.16611 -5.24081e-15 -1.80033e-46)
(0 0 2.65857e-31 0.086107 -5.85896e-16 -8.76516e-16 0.14517 -2.14324e-15 3.47077e-16)
(-1.58725e-14 6.29543e-30 -1.22689e-30 0.086107 -6.04903e-16 2.29477e-30 0.14517 -2.18169e-15 0)
(5.90544e-16 -1.24977e-30 -4.46269e-31 0.0691332 0 3.08149e-33 0.119522 0 -1.97215e-31)
(1.20956e-14 -7.55653e-30 1.40449e-30 0.0691332 1.20581e-17 -6.45756e-16 0.119522 -2.29312e-16 5.37439e-16)
(0 -2.80206e-32 4.732e-32 0.0511463 1.7713e-15 1.96793e-17 0.0877168 -1.8023e-15 3.96842e-16)
(0 0 -2.366e-32 0.0511463 1.2682e-15 -1.03407e-15 0.0877168 -2.36033e-15 -7.54081e-16)
(0 0 -2.43236e-31 0.0317812 2.17955e-15 -3.43954e-16 0.0482471 -6.37634e-15 -3.70981e-16)
(1.21927e-14 -5.43567e-30 0 0.0317812 2.21651e-15 4.09462e-16 0.0482471 -2.81447e-15 1.35136e-15)
(6.12038e-15 -1.83333e-30 -6.73802e-31 0 6.84174e-17 -2.35243e-15 -3.55403e-15 -2.92639e-15 3.30571e-16)
(-6.06907e-15 1.3476e-30 0 7.76983e-15 1.1235e-16 -3.74035e-45 7.10543e-15 -6.8663e-15 1.16886e-46)
(0 -2.57035e-34 0 33.4827 -4.13268e-16 5.05203e-14 -0.191462 1.21286e-14 3.27865e-16)
(0 2.57035e-34 4.18764e-27 33.4827 -2.66794e-17 7.64709e-14 -0.191462 6.83053e-18 -5.77578e-16)
(0 -3.87968e-33 0 33.4629 -2.18288e-15 1.57889e-14 -0.585653 4.28093e-14 8.75468e-16)
(0 3.87968e-33 -2.28677e-32 33.4629 1.00025e-16 2.63762e-14 -0.585653 6.82079e-17 -3.90253e-16)
(3.28931e-17 1.46399e-32 2.34239e-31 33.4416 -1.9807e-15 7.21079e-15 -0.884741 4.17576e-14 1.02478e-15)
(0 1.24667e-31 -2.34239e-31 33.4416 -9.70438e-30 1.61105e-14 -0.884741 1.1229e-16 -4.39057e-16)
(1.78224e-16 -1.38109e-32 0 33.4172 -2.31089e-15 7.52864e-15 -0.937103 3.94387e-14 1.16523e-15)
(0 1.38109e-32 4.4195e-31 33.4172 -2.16928e-16 1.70745e-14 -0.937103 1.76258e-16 -4.92592e-16)
(-3.2028e-16 3.90866e-32 2.08462e-31 33.3848 -2.26454e-15 7.83632e-15 -0.992219 3.81025e-14 1.33622e-15)
(-4.23738e-17 -3.90866e-32 -7.38581e-31 33.3848 -2.99935e-16 1.80159e-14 -0.992219 2.56854e-16 -5.49343e-16)
(0 -2.45822e-32 0 33.3322 -2.6688e-15 8.08955e-15 -1.04966 3.82857e-14 1.53508e-15)
(0 2.45822e-32 0 33.3322 6.30675e-17 1.88458e-14 -1.04966 3.48121e-16 -6.05821e-16)
(-2.53523e-16 9.27606e-32 3.71042e-31 33.2331 -3.02751e-15 8.20177e-15 -1.10829 3.82745e-14 1.75759e-15)
(0 -9.27606e-32 -3.71042e-31 33.2331 3.84702e-16 1.94448e-14 -1.10829 4.47291e-16 -6.57308e-16)
(3.22459e-16 0 0 33.0388 -3.22627e-15 8.12251e-15 -1.1657 3.8141e-14 2.00192e-15)
(-3.941e-16 0 -3.50031e-31 33.0388 4.7015e-16 1.95784e-14 -1.1657 5.7035e-16 -6.90198e-16)
(-3.96117e-16 6.19144e-32 9.90631e-31 32.6719 -3.82515e-15 7.71416e-15 -1.21778 3.80165e-14 2.26302e-15)
(0 -4.12763e-32 -9.90631e-31 32.6719 8.54146e-16 1.89533e-14 -1.21778 7.04068e-16 -6.91642e-16)
(0 7.78779e-32 6.23023e-31 32.0296 -4.06812e-15 6.83835e-15 -1.25872 3.78516e-14 2.53214e-15)
(-2.60121e-15 -3.89389e-32 -1.33777e-30 32.0296 7.61114e-16 1.73072e-14 -1.25872 8.49428e-16 -6.44517e-16)
(1.02703e-16 -3.6734e-32 5.87743e-31 31.0069 -3.68864e-15 5.51378e-15 -1.28207 3.76852e-14 2.7948e-15)
(-2.23615e-15 0 -8.60588e-31 31.0069 -6.16298e-33 1.45324e-14 -1.28207 1.03142e-15 -5.43029e-16)
(6.47866e-16 3.46538e-32 5.54461e-31 29.5385 -3.28539e-15 3.8889e-15 -1.28302 3.74655e-14 3.0336e-15)
(0 0 -5.54461e-31 29.5385 -3.92662e-16 1.09106e-14 -1.28302 1.24441e-15 -4.00268e-16)
(-2.65785e-15 1.30766e-31 1.04613e-30 27.6399 -3.10206e-15 2.26866e-15 -1.2606 3.72336e-14 3.23354e-15)
(2.96002e-15 -6.5383e-32 1.13768e-31 27.6399 -5.68811e-17 7.00436e-15 -1.2606 1.48342e-15 -2.3981e-16)
(1.66672e-15 -1.85042e-31 0 25.4164 -3.12189e-15 8.74683e-16 -1.2182 3.68278e-14 3.38725e-15)
(3.33344e-15 9.53454e-31 1.2744e-30 25.4164 -4.93038e-32 3.46227e-15 -1.2182 1.71759e-15 -9.37678e-17)
(9.25684e-16 -3.49127e-31 -9.31005e-31 23.0282 -3.70523e-15 -9.08148e-17 -1.16204 3.67795e-14 3.49964e-15)
(1.04822e-15 3.49127e-31 -5.60519e-45 23.0282 -5.94738e-16 3.12469e-45 -1.16204 1.99226e-15 0)
(1.0151e-15 -2.19571e-31 0 20.6369 -3.60986e-15 -6.79919e-16 -1.09878 3.64096e-14 3.57829e-15)
(0 2.19571e-31 7.24354e-30 20.6369 6.09094e-16 -9.64719e-16 -1.09878 2.28747e-15 -2.64433e-17)
(1.10035e-15 2.58922e-31 0 18.3659 -1.51875e-15 -1.00054e-15 -1.03386 3.6101e-14 3.63831e-15)
(-6.26712e-15 -1.55353e-31 -1.68076e-30 18.3659 0 -2.01753e-15 -1.03386 2.57194e-15 -1.01114e-16)
(-1.76008e-15 2.93112e-31 1.17245e-30 16.2875 -1.64517e-16 -8.22814e-16 -0.970919 3.57533e-14 3.68902e-15)
(-2.96321e-15 -3.90816e-31 -2.40342e-30 16.2875 -2.0024e-15 -2.48327e-15 -0.970919 2.91669e-15 -1.34337e-16)
(-3.32082e-15 4.60857e-31 3.68685e-31 14.4313 -2.25023e-15 -3.84365e-16 -0.912008 3.54068e-14 3.73215e-15)
(1.66041e-15 -3.68685e-31 -1.10606e-30 14.4313 1.66151e-16 -2.77205e-15 -0.912008 3.26482e-15 -1.72718e-16)
(1.56639e-15 5.21712e-31 6.95616e-31 12.7976 -4.91202e-15 -3.6054e-16 -0.858038 3.51365e-14 3.77564e-15)
(-8.44134e-15 -4.3476e-31 -2.543e-30 12.7976 2.67393e-15 -2.73784e-15 -0.858038 3.52726e-15 -1.89793e-16)
(2.87114e-15 -8.20282e-32 6.56225e-31 11.3714 -4.72182e-15 -6.5662e-16 -0.809213 3.48816e-14 3.84049e-15)
(-2.95538e-15 0 0 11.3714 3.09876e-15 -2.46243e-15 -0.809213 3.75828e-15 -1.89199e-16)
(0 -3.86916e-31 0 10.1306 -3.55378e-15 -6.17813e-16 -0.765343 3.45797e-14 3.92691e-15)
(0 3.72605e-29 0 10.1306 1.84765e-16 -2.41405e-15 -0.765343 4.04232e-15 -1.71634e-16)
(1.51425e-15 4.38007e-31 5.8401e-31 9.05181 -2.75677e-15 -3.66831e-16 -0.726051 3.42567e-14 4.02509e-15)
(-6.05701e-15 -3.36458e-31 -1.64564e-30 9.05181 -5.95621e-29 -2.60003e-15 -0.726051 4.42299e-15 -2.04842e-16)
(4.70854e-15 2.7547e-31 1.10188e-30 8.11255 -2.13508e-15 -2.87699e-16 -0.690884 3.38772e-14 4.13819e-15)
(-6.27805e-15 -2.7547e-31 -2.12059e-30 8.11255 6.4411e-16 -2.68167e-15 -0.690884 4.77315e-15 -2.24444e-16)
(0 -1.29935e-31 5.19741e-31 7.29277 -2.06887e-15 -2.8535e-16 -0.659385 3.34697e-14 4.27189e-15)
(-6.4873e-15 2.59871e-31 -9.70861e-31 7.29277 1.72729e-15 -2.74815e-15 -0.659385 5.10599e-15 -2.4487e-16)
(0 2.45155e-31 0 6.57503 -1.78743e-15 -3.06587e-16 -0.631122 3.30577e-14 4.42539e-15)
(-8.89416e-15 -2.45155e-31 -9.21177e-31 6.57503 1.45581e-15 -2.87825e-15 -0.631122 5.42095e-15 -2.64885e-16)
(2.08312e-15 -6.93818e-31 0 5.94444 -1.3521e-15 -3.18489e-16 -0.6057 3.2654e-14 4.60059e-15)
(-6.87529e-15 8.09454e-31 7.21742e-32 5.94444 8.13685e-16 -3.32005e-15 -0.6057 5.73104e-15 -3.01467e-16)
(0 7.63618e-31 0 5.38839 -9.70069e-16 -1.76102e-16 -0.58277 3.21239e-14 4.79785e-15)
(-1.96516e-15 1.39244e-30 0 5.38839 6.18146e-29 -3.64117e-15 -0.58277 6.14473e-15 -3.92378e-16)
(3.6147e-15 9.26198e-31 0 4.89629 -1.44583e-15 1.82979e-16 -0.562024 3.15365e-14 5.00443e-15)
(-7.2294e-15 -1.23493e-30 -1.08241e-30 4.89629 -1.05117e-15 -3.7504e-15 -0.562024 6.63952e-15 -4.11738e-16)
(5.44682e-15 -5.825e-31 3.88334e-31 4.45921 -2.85223e-15 3.33723e-16 -0.543195 3.10883e-14 5.21857e-15)
(-7.39584e-15 3.88334e-31 -5.76072e-31 4.45921 -2.31604e-16 -4.03588e-15 -0.543195 7.14762e-15 -4.67216e-16)
(0 7.32687e-31 0 4.06966 -3.32611e-15 1.03492e-16 -0.526049 3.063e-14 5.46411e-15)
(-9.20599e-15 0 -8.26872e-31 4.06966 -6.37498e-29 -4.2964e-15 -0.526049 7.54471e-15 -5.35567e-16)
(-3.85542e-15 1.38239e-30 3.45599e-31 3.72129 -2.48873e-15 3.40663e-16 -0.510384 3.01689e-14 5.74388e-15)
(-7.71083e-15 -1.38239e-30 -6.83877e-31 3.72129 -7.93985e-16 -5.03082e-15 -0.510384 8.07838e-15 -5.95526e-16)
(1.96512e-15 4.89043e-31 0 3.40879 -9.06848e-16 8.63027e-16 -0.496024 2.95694e-14 6.0196e-15)
(0 -1.63014e-31 -3.26029e-31 3.40879 -1.18513e-15 -5.93192e-15 -0.496024 8.61886e-15 -8.12569e-16)
(2.00137e-15 9.227e-31 0 3.1276 -3.0003e-18 9.54715e-16 -0.482815 2.88441e-14 6.30823e-15)
(-8.00547e-15 -1.23027e-30 0 3.1276 -1.37259e-15 -1.088e-14 -0.482815 9.20037e-15 -7.37078e-16)
(-4.65e-15 -8.7045e-31 5.803e-31 2.87387 -1.07211e-15 1.18787e-15 -0.470624 2.81832e-14 6.6272e-15)
(8.14625e-15 8.7045e-31 -5.803e-31 2.87387 -3.62403e-16 -1.2649e-14 -0.470624 9.84913e-15 -1.40225e-16)
(3.94665e-16 -5.4744e-31 1.25656e-31 2.64431 -1.41907e-15 9.61971e-16 -0.459333 2.76009e-14 6.94328e-15)
(-2.46545e-15 6.48214e-31 1.12104e-44 2.64431 3.44674e-16 3.44108e-44 -0.459333 1.03718e-14 -2.6131e-30)
(2.10411e-15 -5.1644e-31 5.1644e-31 2.43609 7.62753e-17 3.76406e-16 -0.44884 2.68836e-14 7.2556e-15)
(0 6.04526e-30 -5.1644e-31 2.43609 2.49803e-43 2.24868e-16 -0.44884 1.08902e-14 6.00784e-17)
(-4.33075e-15 1.70518e-30 -1.21799e-30 2.24679 5.5381e-16 4.00524e-16 -0.439053 2.60997e-14 5.69928e-15)
(0 -1.21799e-30 9.74391e-31 2.24679 -2.2947e-15 -4.27393e-17 -0.439053 1.16367e-14 4.14554e-17)
(-2.06989e-15 9.19214e-31 -9.19214e-31 2.0743 -6.28235e-16 7.0275e-16 -0.429893 2.53798e-14 4.05488e-15)
(1.52769e-14 7.63394e-30 4.59607e-31 2.0743 -1.91552e-15 -9.6249e-17 -0.429893 1.22224e-14 6.58667e-16)
(3.65865e-15 -4.33581e-31 6.50372e-31 1.91681 -1.97176e-15 9.86076e-32 -0.421288 2.46222e-14 3.12853e-15)
(-8.79751e-15 2.16791e-31 -4.33581e-31 1.91681 -4.85458e-15 -1.27085e-16 -0.421288 1.28051e-14 9.17367e-16)
(-1.8421e-15 1.22709e-30 -6.13543e-31 1.77273 -2.55722e-15 1.64001e-16 -0.413174 2.39213e-14 2.66685e-15)
(7.07684e-15 -4.09029e-31 2.04514e-31 1.77273 -1.95262e-15 -9.96845e-17 -0.413174 1.34247e-14 1.22212e-15)
(3.47558e-15 -3.85867e-31 3.85867e-31 1.64068 -2.65008e-15 -1.11427e-29 -0.405496 2.32756e-14 2.51178e-15)
(0 0 -3.85867e-31 1.64068 1.64242e-44 4.22324e-16 -0.405496 1.37348e-14 1.54394e-15)
(-3.27877e-15 7.28033e-31 -7.28033e-31 1.51946 -1.97954e-15 -1.3764e-15 -0.398203 2.2783e-14 2.54862e-15)
(-9.15448e-15 0 5.46025e-31 1.51946 -2.47914e-15 4.65753e-16 -0.398203 1.42292e-14 1.72264e-15)
(2.31722e-15 0 0 1.40799 -1.95378e-15 -9.91853e-16 -0.391248 2.22739e-14 2.46477e-15)
(0 0 0 1.40799 -4.00389e-15 -3.11507e-16 -0.391248 1.49064e-14 1.88519e-15)
(0 0 -6.47915e-31 1.30535 -2.05854e-15 -8.45077e-16 -0.38459 2.17778e-14 2.35839e-15)
(-9.38115e-15 6.47915e-31 3.23958e-31 1.30535 -4.73203e-15 -8.33631e-16 -0.38459 1.55034e-14 2.10591e-15)
(-2.75272e-15 6.11226e-31 -6.11226e-31 1.2107 -1.20687e-15 -2.21196e-16 -0.378191 2.12027e-14 2.30701e-15)
(0 6.11226e-31 3.05613e-31 1.2107 -3.0925e-15 -8.31623e-16 -0.378191 1.60943e-14 2.42498e-15)
(0 -5.76614e-31 3.60384e-31 1.12332 -2.02045e-15 6.11822e-16 -0.372019 2.05771e-14 2.14497e-15)
(0 0 -5.04537e-31 1.12332 -2.75823e-15 -8.71249e-16 -0.372019 1.63731e-14 2.68411e-15)
(4.87639e-15 0 1.12733e-30 1.04254 -2.73466e-15 -6.36019e-30 -0.366041 2.03443e-14 2.03081e-15)
(-1.21562e-14 0 2.71981e-31 1.04254 -2.11413e-15 -5.21286e-16 -0.366041 1.67247e-14 2.97866e-15)
(2.45281e-15 0 1.2829e-31 0.96779 -3.60208e-15 -1.14686e-17 -0.360229 2.00414e-14 1.95287e-15)
(7.50018e-15 3.33217e-30 -6.41449e-32 0.96779 -5.53672e-16 -1.69067e-17 -0.360229 1.67298e-14 3.20006e-15)
(4.36039e-15 0 1.01406e-30 0.898548 -4.65279e-15 -5.09788e-30 -0.354556 2.00307e-14 1.82677e-15)
(-1.20946e-14 9.68202e-31 3.63076e-31 0.898548 -2.36886e-15 1.47788e-16 -0.354556 1.68836e-14 3.27349e-15)
(7.5119e-15 -9.13376e-31 4.56688e-31 0.834348 -2.65869e-15 -1.8477e-15 -0.348999 2.00107e-14 2.04178e-15)
(1.00159e-14 9.13376e-31 -4.56688e-31 0.834348 -3.37606e-15 -1.4113e-16 -0.348999 1.69985e-14 3.27893e-15)
(0 0 -8.61654e-31 0.77477 -1.42076e-15 -7.53241e-16 -0.343534 1.92308e-14 2.14536e-15)
(-2.02315e-14 0 8.61654e-31 0.77477 -5.07132e-15 -5.34332e-16 -0.343534 1.71925e-14 3.36658e-15)
(0 0 3.81029e-31 0.719436 -1.81211e-15 -5.1276e-30 -0.338139 1.88194e-14 2.16997e-15)
(-1.02141e-14 0 -4.95337e-31 0.719436 -4.45971e-15 5.42042e-16 -0.338139 1.78198e-14 3.46322e-15)
(2.57773e-15 0 0 0.668005 -2.48871e-15 -2.08965e-15 -0.332794 1.85566e-14 2.49547e-15)
(-3.4535e-15 1.53366e-30 5.99087e-32 0.668005 -2.48707e-15 9.05247e-16 -0.332794 1.79121e-14 3.14103e-15)
(3.25794e-15 -2.89363e-30 1.35639e-31 0.620166 -3.12759e-15 -1.46712e-15 -0.327478 1.86528e-14 2.52394e-15)
(1.04063e-14 0 -1.80852e-31 0.620166 -3.10013e-15 -4.51087e-17 -0.327478 1.79443e-14 2.70929e-15)
(0 -2.72978e-30 0 0.575638 -1.97782e-15 -1.29239e-15 -0.322171 1.88866e-14 2.77237e-15)
(0 0 0 0.575638 -2.82939e-15 -7.11668e-16 -0.322171 1.82064e-14 2.49738e-15)
(5.29623e-15 0 -1.6095e-31 0.534162 -1.31367e-15 -1.03108e-15 -0.316853 1.84475e-14 2.75382e-15)
(7.69305e-15 0 1.6095e-31 0.534162 -7.51626e-16 -1.57649e-17 -0.316853 1.80145e-14 2.78616e-15)
(0 0 1.51836e-31 0.495504 -2.76393e-15 -1.23092e-15 -0.311503 1.79598e-14 2.90629e-15)
(0 8.58311e-30 3.91988e-31 0.495504 -3.09628e-29 4.30176e-30 -0.311503 1.77658e-14 2.44782e-15)
(1.12866e-16 0 2.86476e-31 0.459446 -4.63596e-16 3.84188e-16 -0.306097 1.77323e-14 3.39753e-15)
(-1.33532e-14 0 0 0.459446 -2.35544e-15 6.36887e-19 -0.306097 1.78879e-14 2.46713e-15)
(2.71521e-15 3.41448e-31 3.13808e-31 0.425789 9.86076e-32 2.15005e-16 -0.300611 1.72733e-14 2.69408e-15)
(1.08608e-14 0 1.35127e-31 0.425789 -9.48375e-16 -1.52301e-16 -0.300611 1.69544e-14 2.20573e-15)
(2.73685e-15 0 0 0.394347 -1.1745e-15 5.79972e-16 -0.295018 1.69458e-14 2.51811e-15)
(-1.55402e-14 2.0396e-30 1.27475e-31 0.394347 9.65595e-17 9.74888e-16 -0.295018 1.6657e-14 2.75458e-15)
(0 0 5.26122e-32 0.364948 -1.03121e-15 1.18912e-15 -0.289286 1.69204e-14 1.85276e-15)
(6.69976e-15 1.9241e-30 -3.75801e-32 0.364948 8.9906e-16 3.06929e-15 -0.289286 1.59568e-14 2.24693e-15)
(2.77901e-15 -1.28004e-31 0 0.33743 -1.23358e-15 4.47297e-16 -0.28338 1.57944e-14 1.2671e-15)
(-1.1116e-14 2.61307e-30 1.10149e-30 0.33743 -2.07076e-29 1.77494e-30 -0.28338 1.58729e-14 1.34073e-15)
(1.74314e-15 2.3213e-30 1.07023e-31 0.311641 -3.86412e-16 3.59319e-17 -0.277256 1.26234e-14 1.20275e-15)
(-1.11981e-14 0 -2.14045e-31 0.311641 -1.65197e-15 1.77312e-16 -0.277256 1.64822e-14 9.60163e-16)
(-4.45545e-15 2.571e-30 4.03849e-31 0.287436 3.08681e-16 2.22431e-15 -0.270864 1.11087e-14 1.33743e-15)
(-4.00348e-15 -1.2728e-30 1.31372e-46 0.287436 -2.1501e-15 -4.752e-46 -0.270864 1.25201e-14 2.21867e-31)
(2.83937e-15 -5.73175e-31 2.40069e-31 0.264679 -2.98444e-16 -3.9443e-31 -0.264142 1.06394e-14 4.32469e-16)
(-1.13575e-14 4.12153e-30 0 0.264679 -1.42266e-15 -9.51278e-16 -0.264142 9.243e-15 3.5197e-16)
(2.85869e-15 -7.13053e-31 0 0.243236 -2.26742e-15 -1.53329e-15 -0.257015 1.17434e-14 1.05359e-15)
(-3.23725e-15 0 0 0.243236 -6.0029e-16 -8.54362e-17 -0.257015 8.92087e-15 8.33061e-16)
(-2.87758e-15 1.39589e-30 0 0.222976 -3.06443e-15 -1.67162e-15 -0.24939 7.4116e-15 9.13014e-16)
(-2.30207e-14 1.03603e-29 0 0.222976 -8.63302e-16 8.72206e-16 -0.24939 7.5874e-15 4.09842e-16)