/*--------------------------------*- C++ -*----------------------------------*\
| =========                 |                                                 |
| \\      /  F ield         | OpenFOAM: The Open Source CFD Toolbox           |
|  \\    /   O peration     | Version:  2106                                  |
|   \\  /    A nd           | Website:  www.openfoam.com                      |
|    \\/     M anipulation  |                                                 |
\*---------------------------------------------------------------------------*/
FoamFile
{
    version     2.0;
    format      ascii;
    arch        "LSB;label=32;scalar=64";
    class       volTensorField;
    location    "13000";
    object      grad(U);
}
// * * * * * * * * * * * * * * * * * * * * * * * * * * * * * * * * * * * * * //

dimensions      [0 0 -1 0 0 0 0];

internalField   nonuniform List<tensor> 
2560
(
(-9.14312e-18 6.23671e-30 -1.69544e-26 48.9639 -1.40855e-11 0 0.0708816 -1.02002e-14 -4.93038e-32)
(0 -4.15781e-30 0 48.9639 -1.89885e-15 1.15816e-13 0.0708816 -1.41964e-17 -1.02005e-16)
(0 -6.96712e-25 2.56139e-31 48.9567 3.53017e-32 8.34967e-14 0.213655 0 -1.32221e-16)
(0 0 2.48566e-32 48.9567 5.91637e-31 1.71502e-14 0.213655 1.54074e-33 5.03727e-17)
(-8.97312e-18 -8.21091e-30 -3.938e-29 48.9495 8.79082e-13 4.34685e-15 0.293824 -3.52733e-15 -1.2953e-17)
(0 2.01974e-29 2.52467e-31 48.9495 -5.34889e-15 8.51208e-15 0.293824 -6.24744e-18 5.10916e-17)
(2.87744e-17 -2.3095e-29 -2.5815e-31 48.9423 6.89204e-13 8.87418e-15 0.298053 -6.9757e-15 -4.91709e-17)
(0 1.99079e-29 2.48849e-31 48.9423 -2.46741e-15 8.50265e-15 0.298053 -9.33326e-18 5.17334e-17)
(1.38082e-16 -2.35471e-29 -3.06603e-31 48.9351 1.03675e-13 9.90125e-15 0.302342 -1.31783e-15 -5.82075e-17)
(0 1.56981e-29 3.67923e-31 48.9351 -2.5811e-15 8.4815e-15 0.302342 -1.25673e-17 5.23268e-17)
(2.05339e-16 -1.98177e-28 -1.84329e-31 48.9277 0 1.0546e-14 0.306692 0 -6.33036e-17)
(5.53891e-16 1.93413e-29 7.90355e-31 48.9277 -2.66384e-15 8.45189e-15 0.306692 -1.59708e-17 5.28777e-17)
(-8.99053e-17 2.93738e-31 -1.19151e-31 48.9201 9.09022e-15 1.10861e-14 0.311102 -2.99021e-17 -6.73596e-17)
(3.59621e-16 1.14385e-29 4.89434e-31 48.9201 -2.80308e-15 8.41389e-15 0.311102 -1.94212e-17 5.33762e-17)
(-2.43101e-16 2.2887e-29 2.34886e-31 48.912 1.13063e-14 1.15181e-14 0.315571 -8.52886e-17 -4.86472e-17)
(4.43488e-16 -7.51636e-30 8.2121e-32 48.912 -2.98136e-15 8.36744e-15 0.315571 -2.31328e-17 5.38272e-17)
(3.92809e-16 -1.52108e-29 -1.1576e-31 48.9031 7.72416e-15 1.18798e-14 0.320098 -5.93761e-17 -2.89257e-17)
(0 1.48173e-29 2.3152e-31 48.9031 -3.17034e-15 8.31237e-15 0.320098 -2.74915e-17 5.42188e-17)
(0 1.09537e-29 2.28201e-31 48.8929 5.68552e-15 1.22057e-14 0.324679 -4.08882e-17 -8.2482e-18)
(0 -3.65122e-30 -2.28201e-31 48.8929 -3.33495e-15 8.24819e-15 0.324679 -3.17124e-17 5.45515e-17)
(-1.75603e-16 -1.38952e-29 -3.37396e-31 48.8805 5.14257e-15 1.2513e-14 0.329309 -3.40366e-17 1.33767e-17)
(0 2.15933e-29 3.37396e-31 48.8805 -3.60158e-15 8.17201e-15 0.329309 -3.59084e-17 5.47805e-17)
(1.97805e-16 -3.6024e-29 -4.43414e-31 48.8651 5.33421e-15 1.28081e-14 0.333979 -3.47692e-17 3.5951e-17)
(0 2.83785e-29 4.43414e-31 48.8651 -4.1115e-15 8.08264e-15 0.333979 -4.13771e-17 5.49276e-17)
(0 -1.04894e-29 -1.09265e-31 48.8452 5.54855e-15 1.30941e-14 0.33868 -3.76538e-17 5.94789e-17)
(0 1.39859e-29 2.18529e-31 48.8452 -4.42681e-15 7.976e-15 0.33868 -4.77586e-17 5.4906e-17)
(-2.43174e-16 1.44348e-29 1.07699e-31 48.8191 5.88051e-15 1.3373e-14 0.343396 -3.87607e-17 8.3973e-17)
(7.30179e-16 0 1.95496e-31 48.8191 -4.79909e-15 7.84785e-15 0.343396 -5.4633e-17 5.47332e-17)
(0 2.37787e-29 5.30775e-31 48.7847 6.34129e-15 1.36436e-14 0.348109 -4.34282e-17 1.09452e-16)
(0 -2.37787e-29 -5.30775e-31 48.7847 -5.11323e-15 7.69836e-15 0.348109 -6.23161e-17 5.43802e-17)
(-2.89852e-16 7.44061e-30 0 48.7391 6.51077e-15 1.39028e-14 0.352794 -4.64748e-17 1.35906e-16)
(1.15941e-15 -3.34827e-30 3.189e-31 48.7391 -5.05242e-15 7.51737e-15 0.352794 -6.91836e-17 5.37151e-17)
(-4.64473e-16 2.3102e-29 5.15669e-31 48.679 6.90884e-15 1.41478e-14 0.357423 -4.71552e-17 1.63346e-16)
(-7.90286e-16 -2.3102e-29 -8.42598e-31 48.679 -5.65964e-15 7.2947e-15 0.357423 -7.58342e-17 5.27009e-17)
(0 1.95179e-29 5.08278e-31 48.6005 -1.22328e-15 1.43755e-14 0.361958 -7.27044e-17 1.91768e-16)
(-1.35145e-15 -1.95179e-29 -8.43281e-31 48.6005 -6.1055e-15 7.03066e-15 0.361958 -8.59187e-17 5.1352e-17)
(9.02509e-16 -8.07246e-41 0 48.4989 1.09295e-27 1.45792e-14 0.366357 0 2.21164e-16)
(-4.51255e-16 1.92381e-29 2.00397e-31 48.4989 -5.76209e-15 6.7154e-15 0.366357 -9.52985e-17 4.94762e-17)
(3.87204e-16 1.4914e-29 1.97525e-31 48.369 1.63086e-14 1.47518e-14 0.370568 -2.95809e-16 2.51507e-16)
(-1.54881e-15 -2.52832e-29 -5.48859e-31 48.369 -6.09191e-15 6.3432e-15 0.370568 -1.04409e-16 4.71447e-17)
(-4.38412e-16 -7.60581e-41 3.89388e-31 48.205 1.05889e-27 1.48884e-14 0.374535 0 2.82733e-16)
(4.38412e-16 -2.49208e-29 -3.89388e-31 48.205 -6.70827e-15 5.91508e-15 0.374535 -1.15981e-16 4.42602e-17)
(-4.37847e-16 4.08048e-30 -1.91904e-31 48.0006 8.51752e-15 1.49802e-14 0.378195 -6.72861e-17 3.148e-16)
(0 1.22818e-29 1.91904e-31 48.0006 -6.87253e-15 5.42244e-15 0.378195 -1.28222e-16 4.07443e-17)
(8.14171e-16 -3.82915e-29 -1.89153e-31 47.7494 8.75091e-15 1.50179e-14 0.38148 -6.62709e-17 3.4761e-16)
(0 4.23703e-29 3.78306e-31 47.7494 -7.3816e-15 4.8626e-15 0.38148 -1.40927e-16 3.65855e-17)
(0 1.78984e-29 1.86442e-31 47.4447 9.4367e-15 1.49966e-14 0.384321 -7.29972e-17 3.81053e-16)
(-1.95884e-15 -2.38646e-29 -7.56139e-31 47.4447 -7.76427e-15 4.2385e-15 0.384321 -1.56788e-16 3.17912e-17)
(5.16055e-16 1.94498e-29 5.5131e-31 47.0804 9.83312e-15 1.49096e-14 0.386646 -7.93616e-17 4.15e-16)
(0 -2.35225e-29 -5.5131e-31 47.0804 -7.79652e-15 3.54564e-15 0.386646 -1.70832e-16 2.62292e-17)
(-1.08528e-15 3.71226e-29 5.43408e-31 46.6508 1.05277e-14 1.4753e-14 0.38839 -8.16743e-17 4.49291e-16)
(0 -2.89818e-29 -5.43408e-31 46.6508 -8.24782e-15 2.78362e-15 0.38839 -1.85337e-16 1.99708e-17)
(2.51239e-15 -5.21919e-29 -3.5708e-31 46.1513 1.14352e-14 1.45256e-14 0.389492 -9.33099e-17 4.83817e-16)
(3.75144e-15 3.99929e-29 1.34434e-30 46.1513 -8.24726e-15 1.97286e-15 0.389492 -2.03139e-16 1.32329e-17)
(0 -2.25256e-29 -3.51962e-31 45.5785 1.17073e-14 1.42238e-14 0.389901 -9.94736e-17 5.18386e-16)
(2.38563e-15 2.25256e-29 7.62236e-31 45.5785 -8.10349e-15 1.11922e-15 0.389901 -2.19583e-16 5.85241e-18)
(6.23508e-16 1.81425e-29 0 44.9306 1.16994e-14 1.38525e-14 0.389581 -1.00731e-16 5.52798e-16)
(0 -1.11014e-29 -9.52578e-32 44.9306 -8.67323e-15 2.34088e-32 0.389581 -2.36924e-16 9.86076e-32)
(-1.30138e-15 2.64353e-30 0 44.2079 1.19936e-14 1.34206e-14 0.388508 -1.02249e-16 5.86865e-16)
(-5.20551e-15 5.47112e-30 -6.28843e-29 44.2079 -9.34508e-15 -3.96765e-16 0.388508 -2.57648e-16 1.74585e-18)
(-6.77901e-16 2.02315e-29 0 43.4121 1.24247e-14 1.29376e-14 0.386679 -1.08896e-16 6.20439e-16)
(-2.71161e-15 -5.39271e-30 -5.75955e-31 43.4121 -9.589e-15 -1.51607e-15 0.386679 -2.8086e-16 9.6235e-18)
(0 2.12617e-29 0 42.5472 1.23668e-14 1.24097e-14 0.384106 -1.12999e-16 6.23025e-16)
(-2.82036e-15 -2.12617e-29 -4.00585e-31 42.5472 -9.16389e-15 -2.35908e-15 0.384106 -3.00881e-16 1.75056e-17)
(0 -2.09569e-29 -1.63726e-31 41.6187 1.25158e-14 1.18473e-14 0.380818 -1.1103e-16 4.8702e-16)
(2.9288e-15 2.09569e-29 5.56451e-31 41.6187 -9.23707e-15 -3.16371e-15 0.380818 -3.18702e-16 2.52888e-17)
(-7.59173e-16 4.04385e-30 -5.12857e-32 40.6339 1.33517e-14 1.12718e-14 0.376859 -1.19066e-16 3.47097e-16)
(0 1.03283e-29 0 40.6339 -1.0508e-14 -3.89891e-15 0.376859 -3.408e-16 3.29149e-17)
(-7.85957e-16 2.94897e-29 -7.53194e-32 39.6007 1.40656e-14 1.06978e-14 0.372286 -1.29984e-16 2.04107e-16)
(0 -2.54506e-29 0 39.6007 -1.15653e-14 -4.55055e-15 0.372286 -3.63852e-16 3.98386e-17)
(-8.125e-16 1.40696e-29 -9.44811e-32 38.5283 1.33018e-14 1.01308e-14 0.367166 -1.36159e-16 9.52111e-17)
(-4.66221e-15 0 -5.21308e-31 38.5283 -1.08277e-14 -5.13174e-15 0.367166 -3.87396e-16 4.62968e-17)
(8.38754e-16 -2.38164e-29 9.89242e-32 37.4259 1.20525e-14 9.57781e-15 0.36157 -1.19025e-16 9.12641e-17)
(0 1.9781e-29 0 37.4259 -9.44469e-15 -5.65124e-15 0.36157 -4.06146e-16 8.88475e-17)
(8.64675e-16 -2.84056e-29 1.0319e-31 36.303 1.23569e-14 9.05238e-15 0.355575 -1.15643e-16 8.75444e-17)
(0 2.43719e-29 0 36.303 -9.19302e-15 -6.08105e-15 0.355575 -4.24246e-16 2.37954e-16)
(-8.90225e-16 2.32475e-29 -1.07269e-31 35.1684 1.30855e-14 8.56575e-15 0.349256 -1.28568e-16 8.41131e-17)
(-1.35235e-15 -1.44136e-29 0 35.1684 -9.35049e-15 -6.43875e-15 0.349256 -4.44574e-16 3.87823e-16)
(0 1.4207e-29 0 34.0307 1.32258e-14 8.12064e-15 0.342688 -1.3374e-16 8.09922e-17)
(0 -1.89426e-29 0 34.0307 -9.86153e-15 -6.74355e-15 0.342688 -4.63103e-16 5.38695e-16)
(-9.40086e-16 8.68961e-30 -1.14922e-31 32.8975 1.31613e-14 7.71891e-15 0.335939 -1.35207e-16 7.82292e-17)
(3.76035e-15 4.66779e-30 0 32.8975 -9.97405e-15 -6.9721e-15 0.335939 -4.84877e-16 6.25499e-16)
(0 -2.76053e-29 0 31.7755 1.31869e-14 7.35723e-15 0.329072 -1.36318e-16 7.57396e-17)
(3.8574e-15 2.76053e-29 0 31.7755 -1.00555e-14 -7.13936e-15 0.329072 -5.08989e-16 6.07061e-16)
(9.88145e-16 1.41248e-29 1.21989e-31 30.6705 1.2995e-14 7.03668e-15 0.322146 -1.39709e-16 7.36646e-17)
(-3.95258e-15 -2.26747e-29 0 30.6705 -1.04531e-14 -7.25262e-15 0.322146 -5.35761e-16 5.88122e-16)
(2.26964e-15 -1.74223e-29 4.04693e-31 29.5875 1.2966e-14 6.75745e-15 0.31521 -1.36206e-16 7.18991e-17)
(-1.25818e-15 1.34098e-29 -2.79372e-31 29.5875 -1.00049e-14 -7.33486e-15 0.31521 -5.60211e-16 5.68603e-16)
(2.05854e-16 -4.80327e-30 -1.28537e-31 28.5303 1.35931e-14 6.51659e-15 0.308308 -1.43172e-16 7.05201e-17)
(-1.24014e-15 1.76235e-29 0 28.5303 -9.66456e-15 -7.37765e-15 0.308308 -5.86968e-16 5.48525e-16)
(1.05663e-15 9.02452e-30 1.31648e-31 27.502 1.3492e-14 6.31219e-15 0.301477 -1.54001e-16 6.94398e-17)
(4.22653e-15 -4.34273e-30 0 27.502 -9.45119e-15 -7.36758e-15 0.301477 -6.08484e-16 5.28195e-16)
(1.20485e-15 -1.28415e-29 0 26.505 1.28335e-14 6.13627e-15 0.294746 -1.45108e-16 6.85993e-17)
(3.10909e-15 1.28415e-29 0 26.505 -9.42157e-15 -7.33473e-15 0.294746 -6.27277e-16 5.07603e-16)
(-1.09985e-15 -2.19717e-31 -1.37587e-31 25.5408 1.30729e-14 5.99377e-15 0.288142 -1.43592e-16 6.81979e-17)
(0 8.43828e-30 0 25.5408 -9.9553e-15 -7.29151e-15 0.288142 -6.53486e-16 4.86894e-16)
(-1.12074e-15 8.15288e-30 -1.40454e-31 24.6105 1.36914e-14 5.88369e-15 0.281682 -1.54862e-16 6.80415e-17)
(0 4.15867e-30 -2.59917e-31 24.6105 -1.0056e-14 -7.23007e-15 0.281682 -6.82425e-16 4.66078e-16)
(0 -1.63963e-29 5.12383e-31 23.7145 1.39969e-14 5.7928e-15 0.275382 -1.62223e-16 6.80449e-17)
(0 2.04953e-29 -5.12383e-31 23.7145 -9.68201e-15 -7.15148e-15 0.275382 -7.07228e-16 4.45074e-16)
(-2.29837e-15 3.98598e-30 -3.986e-31 22.8531 1.4623e-14 5.72061e-15 0.269253 -1.66629e-16 6.83016e-17)
(0 1.21209e-29 0 22.8531 -1.01408e-14 -7.06839e-15 0.269253 -7.31573e-16 4.24033e-16)
(-1.12095e-15 2.38944e-29 -7.46701e-31 22.026 1.50095e-14 5.67106e-15 0.263303 -1.82005e-16 6.88313e-17)
(-4.72253e-15 -1.9912e-29 4.97801e-31 22.026 -1.05058e-14 -6.99351e-15 0.263303 -7.61892e-16 4.02967e-16)
(-1.1997e-15 -1.56508e-29 3.39062e-31 21.2327 1.42429e-14 5.63477e-15 0.257537 -1.80923e-16 6.94057e-17)
(4.79881e-15 2.3552e-29 -4.90666e-31 21.2327 -9.99593e-15 -6.90999e-15 0.257537 -7.92582e-16 3.81792e-16)
(0 2.32144e-29 -4.83633e-31 20.4723 1.35307e-14 5.60873e-15 0.251956 -1.68395e-16 7.01946e-17)
(0 -2.32144e-29 4.83633e-31 20.4723 -9.85138e-15 -6.83039e-15 0.251956 -8.21443e-16 3.60606e-16)
(-1.23658e-15 1.92247e-29 -6.33826e-31 19.7442 1.32514e-14 5.59555e-15 0.246561 -1.68369e-16 7.11037e-17)
(4.94632e-15 -1.52545e-29 4.76702e-31 19.7442 -9.4151e-15 -6.7709e-15 0.246561 -8.48435e-16 3.39162e-16)
(2.50882e-15 -2.2969e-29 7.89688e-31 19.0472 1.35685e-14 5.59269e-15 0.241352 -1.66222e-16 7.2177e-17)
(5.01764e-15 1.50358e-29 -4.69869e-31 19.0472 -9.03007e-15 -6.69868e-15 0.241352 -8.73824e-16 3.17711e-16)
(2.08577e-15 -1.48203e-29 0 18.3804 1.46045e-14 5.60672e-15 0.236325 -1.81485e-16 7.35538e-17)
(0 1.85254e-29 -2.31567e-31 18.3804 -9.19694e-15 -6.63965e-15 0.236325 -9.0357e-16 2.96348e-16)
(-1.28893e-15 -3.35277e-30 6.2728e-32 17.7425 1.4491e-14 5.6385e-15 0.231479 -1.98212e-16 7.51355e-17)
(0 1.46079e-29 -4.56497e-31 17.7425 -8.62e-15 -6.61931e-15 0.231479 -9.34381e-16 2.74557e-16)
(-2.61127e-15 2.94935e-29 -1.01184e-30 17.1323 1.36189e-14 5.67249e-15 0.226807 -1.83786e-16 7.66243e-17)
(5.22255e-15 -2.51974e-29 8.99908e-31 17.1323 -9.05078e-15 -6.58253e-15 0.226807 -9.65274e-16 2.52668e-16)
(-1.322e-15 -3.15304e-30 -1.71422e-31 16.5488 1.42108e-14 5.70741e-15 0.222307 -1.80519e-16 7.8291e-17)
(0 1.41922e-29 -2.21753e-31 16.5488 -9.81165e-15 -6.54188e-15 0.222307 -1.00815e-15 2.3082e-16)
(-1.33803e-15 -6.55767e-30 4.40953e-32 15.9907 1.5636e-14 5.74921e-15 0.217972 -2.05353e-16 8.00285e-17)
(5.3521e-15 2.09831e-29 -4.37149e-31 15.9907 -8.91946e-15 -6.53139e-15 0.217972 -1.0494e-15 2.08303e-16)
(-1.35373e-15 1.42661e-29 -6.0848e-31 15.4569 1.53699e-14 5.79788e-15 0.213798 -2.25335e-16 8.19537e-17)
(0 -3.44706e-30 2.15442e-31 15.4569 -9.31766e-15 -6.54158e-15 0.213798 -1.08335e-15 1.85441e-16)
(-2.73825e-15 2.14355e-29 -9.98761e-31 14.9462 1.43622e-14 5.84469e-15 0.209779 -2.03881e-16 8.37094e-17)
(-5.47649e-15 -1.35906e-29 6.37061e-31 14.9462 -8.98699e-15 -6.53997e-15 0.209779 -1.12413e-15 1.6229e-16)
(-2.76843e-15 -8.91057e-30 6.78288e-31 14.4576 1.4354e-14 5.89189e-15 0.20591 -2.03167e-16 8.57212e-17)
(1.10737e-14 1.67448e-29 -6.2793e-31 14.4576 -8.60085e-15 -6.53881e-15 0.20591 -1.16076e-15 1.39145e-16)
(-4.19706e-15 3.48402e-29 -1.80055e-30 13.99 1.40705e-14 5.94038e-15 0.202184 -2.09617e-16 8.75866e-17)
(-7.45436e-15 -2.31067e-29 1.23786e-30 13.99 -9.69247e-15 -6.53129e-15 0.202184 -1.20357e-15 1.15151e-16)
(4.18094e-16 -1.88678e-29 8.25748e-31 13.5424 1.41973e-14 5.98953e-15 0.198596 -2.00789e-16 8.96974e-17)
(3.82255e-15 2.60292e-29 -1.01677e-30 13.5424 -8.94685e-15 -6.50248e-15 0.198596 -1.24571e-15 9.13889e-17)
(1.42781e-15 -1.03138e-29 5.95456e-31 13.1137 1.4189e-14 6.04106e-15 0.195141 -2.19536e-16 9.17108e-17)
(0 6.41404e-30 -4.00877e-31 13.1137 -8.67005e-15 -6.51318e-15 0.195141 -1.28053e-15 6.71861e-17)
(0 -2.52884e-29 9.87829e-31 12.7031 1.37416e-14 6.09168e-15 0.191814 -2.06421e-16 9.38783e-17)
(5.76724e-15 2.52884e-29 -9.87829e-31 12.7031 -8.95639e-15 -6.51986e-15 0.191814 -1.31957e-15 4.2233e-17)
(3.50802e-15 -6.2315e-30 5.84203e-31 12.3096 1.52756e-14 6.1463e-15 0.188608 -2.12236e-16 9.60978e-17)
(5.82226e-15 1.2463e-29 -5.84203e-31 12.3096 -8.70727e-15 -6.50073e-15 0.188608 -1.36067e-15 1.7628e-17)
(-3.45774e-15 1.84265e-29 -7.67773e-31 11.9324 1.65607e-14 6.21016e-15 0.18552 -2.60225e-16 9.8645e-17)
(5.87633e-15 0 1.91943e-31 11.9324 -8.6839e-15 -6.50578e-15 0.18552 -1.40056e-15 -7.68734e-18)
(0 2.42166e-29 -1.13515e-30 11.5707 1.52665e-14 6.26654e-15 0.182544 -2.59042e-16 1.00719e-16)
(0 -2.42166e-29 1.13515e-30 11.5707 -9.06216e-15 -6.53617e-15 0.182544 -1.44055e-15 -3.36366e-17)
(-2.99086e-15 7.73252e-30 -4.27693e-31 11.2238 1.41759e-14 6.31063e-15 0.179675 -2.26376e-16 1.02968e-16)
(0 0 0 11.2238 -9.03551e-15 -6.57953e-15 0.179675 -1.4895e-15 -6.00125e-17)
(0 -2.35274e-29 1.47046e-30 10.8908 1.50142e-14 6.35658e-15 0.176909 -2.31176e-16 1.05185e-16)
(6.03313e-15 2.35274e-29 -1.47046e-30 10.8908 -8.50169e-15 -6.61273e-15 0.176909 -1.53362e-15 -8.70572e-17)
(-1.63186e-15 1.15951e-29 -5.4352e-31 10.5711 1.56591e-14 6.40706e-15 0.174241 -2.60657e-16 1.07673e-16)
(6.08372e-15 0 1.7871e-31 10.5711 -9.09907e-15 -6.60448e-15 0.174241 -1.57125e-15 -1.10215e-16)
(-1.53338e-15 -1.87352e-30 -2.26662e-31 10.2641 1.47993e-14 6.46234e-15 0.171668 -2.59526e-16 1.10143e-16)
(0 1.14289e-29 -1.78577e-31 10.2641 -9.18953e-15 -6.58718e-15 0.171668 -1.61851e-15 -1.11803e-16)
(1.54563e-15 1.79545e-30 -4.72962e-31 9.96905 1.35188e-14 6.52103e-15 0.169185 -2.39106e-16 1.12849e-16)
(0 0 3.52034e-31 9.96905 -8.04583e-15 -6.6027e-15 0.169185 -1.66959e-15 -1.13978e-16)
(3.1254e-15 -5.55182e-30 6.93978e-31 9.68547 1.23682e-14 6.58215e-15 0.166788 -2.23025e-16 1.15505e-16)
(0 1.11036e-29 -6.93978e-31 9.68547 -7.85722e-15 -6.61837e-15 0.166788 -1.70869e-15 -1.15625e-16)
(1.5403e-15 0 8.55039e-31 9.41277 1.22155e-14 6.63584e-15 0.164473 -2.05906e-16 1.18058e-16)
(0 5.47225e-30 -8.55039e-31 9.41277 -8.66556e-15 -6.58121e-15 0.164473 -1.74882e-15 -1.16e-16)
(-1.64442e-15 2.25414e-30 3.52222e-31 9.15042 1.28773e-14 6.68923e-15 0.162238 -2.24142e-16 1.20809e-16)
(0 1.07876e-29 -8.42784e-31 9.15042 -8.61604e-15 -6.48833e-15 0.162238 -1.78803e-15 -1.15672e-16)
(-1.59288e-15 1.97676e-29 -1.08089e-30 8.89794 1.37354e-14 6.74201e-15 0.160078 -2.35741e-16 1.23442e-16)
(0 -1.59495e-29 8.30705e-31 8.89794 -7.99979e-15 -6.38554e-15 0.160078 -1.82023e-15 -1.15647e-16)
(1.60428e-15 -3.80945e-30 2.55105e-31 8.65485 1.44813e-14 6.79791e-15 0.157991 -2.62019e-16 1.26417e-16)
(-6.41711e-15 0 1.10035e-31 8.65485 -8.81628e-15 -6.30925e-15 0.157991 -1.8566e-15 -1.16236e-16)
(0 -1.03304e-29 8.07063e-31 8.42072 1.40319e-14 6.85594e-15 0.155974 -2.70258e-16 1.29238e-16)
(-6.46208e-15 1.54956e-29 -8.42517e-31 8.42072 -9.16656e-15 -6.24028e-15 0.155974 -1.90356e-15 -1.16445e-16)
(-3.05965e-15 1.90746e-29 -1.53797e-30 8.19511 1.4056e-14 6.91003e-15 0.154023 -2.52816e-16 1.32181e-16)
(1.30129e-14 -5.09117e-30 5.09789e-31 8.19511 -7.84788e-15 -6.1256e-15 0.154023 -1.93931e-15 -1.1527e-16)
(1.63756e-15 1.12622e-29 -9.84211e-31 7.97765 1.48627e-14 6.95647e-15 0.152136 -2.79095e-16 1.34819e-16)
(6.55025e-15 -2.00728e-29 1.566e-30 7.97765 -8.36131e-15 -6.00016e-15 0.152136 -1.96688e-15 -1.15007e-16)
(0 4.94628e-30 0 7.76795 1.52847e-14 5.08881e-15 0.150311 -2.91409e-16 6.28037e-17)
(0 4.94628e-30 -4.63714e-31 7.76795 -8.87269e-15 -5.88546e-15 0.150311 -2.01892e-15 -1.14148e-16)
(-1.65905e-15 -1.5725e-29 -4.37906e-47 7.56566 1.52259e-14 2.9754e-31 0.148544 -3.0382e-16 0)
(6.63619e-15 2.43769e-29 -2.01908e-30 7.56566 -8.10062e-15 -5.79218e-15 0.148544 -2.05831e-15 -1.14664e-16)
(-1.66959e-15 1.33814e-29 -1.28688e-30 7.37044 1.42692e-14 -1.80089e-14 0.146833 -2.97607e-16 3.61375e-16)
(-9.38363e-15 -4.80551e-30 6.574e-31 7.37044 -8.37591e-15 -5.72025e-15 0.146833 -2.09587e-15 -1.14588e-16)
(1.68001e-15 -1.32411e-29 9.64122e-31 7.18198 1.41398e-14 -1.77369e-14 0.145176 -2.74096e-16 3.6037e-16)
(6.72005e-15 9.47327e-30 -9.63148e-31 7.18198 -7.99677e-15 -5.61396e-15 0.145176 -2.13068e-15 -1.1367e-16)
(-1.69031e-15 2.24306e-29 -1.96294e-30 6.99997 1.44466e-14 -1.75069e-14 0.143572 -3.01028e-16 3.60821e-16)
(6.76123e-15 -1.8675e-29 1.51188e-30 6.99997 -8.56561e-15 -5.51517e-15 0.143572 -2.16079e-15 -1.1384e-16)
(-1.70049e-15 -8.53198e-31 -2.00299e-31 6.82414 1.4585e-14 -1.72409e-14 0.142017 -2.94871e-16 3.6137e-16)
(0 4.60183e-30 0 6.82414 -1.02742e-14 -5.39799e-15 0.142017 -2.22239e-15 -1.1206e-16)
(-1.71055e-15 8.27427e-30 -1.88639e-31 6.65421 1.49509e-14 -1.70317e-14 0.14051 -3.15681e-16 3.60177e-16)
(0 0 -4.25238e-31 6.65421 -9.86705e-15 -5.30572e-15 0.14051 -2.28369e-15 -1.13228e-16)
(-1.7205e-15 -5.21169e-30 1.08111e-30 6.48993 1.48183e-14 -1.68013e-14 0.139049 -3.19157e-16 3.63007e-16)
(6.88201e-15 1.34126e-29 -1.54428e-30 6.48993 -9.11099e-15 -5.25191e-15 0.139049 -2.34078e-15 -1.13008e-16)
(1.73035e-15 -1.69418e-29 1.05991e-30 6.33106 1.4952e-14 -1.65327e-14 0.137632 -3.19177e-16 3.60731e-16)
(0 1.32204e-29 -8.95129e-31 6.33106 -1.02867e-14 -5.14978e-15 0.137632 -2.40454e-15 -1.12049e-16)
(0 -4.34363e-30 6.78692e-31 6.17736 1.45214e-14 -1.64096e-14 0.136258 -3.34389e-16 3.61815e-16)
(0 4.34363e-30 -8.82299e-31 6.17736 -1.15032e-14 -5.0615e-15 0.136258 -2.47904e-15 -1.12376e-16)
(-1.74973e-15 -4.85624e-30 3.61646e-31 6.02862 1.39585e-14 -1.62843e-14 0.134924 -3.09297e-16 3.65804e-16)
(0 1.28441e-29 -8.69654e-31 6.02862 -1.03883e-14 -5.04962e-15 0.134924 -2.56456e-15 -1.14793e-16)
(0 -2.95401e-29 1.84625e-30 5.88464 1.51402e-14 -1.6137e-14 0.13363 -3.18679e-16 3.66734e-16)
(1.40742e-14 2.95401e-29 -2.77715e-30 5.88464 -8.71059e-15 -5.00578e-15 0.13363 -2.63768e-15 -1.13653e-16)
(-2.3416e-15 4.15952e-30 -8.12407e-33 5.74521 1.62372e-14 -1.59415e-14 0.132374 -3.72681e-16 3.69751e-16)
(7.07487e-15 4.15952e-30 -6.11254e-31 5.74521 -8.73349e-15 -4.85919e-15 0.132374 -2.69869e-15 -1.11318e-16)
(-4.08611e-15 3.23689e-29 -1.57674e-30 5.61015 1.56946e-14 -1.56274e-14 0.131154 -3.79177e-16 3.68356e-16)
(-7.11228e-15 -2.45994e-29 1.87237e-30 5.61015 -9.15002e-15 -4.72065e-15 0.131154 -2.77641e-15 -1.10428e-16)
(-1.78734e-15 1.57872e-29 -8.49284e-31 5.47928 1.44542e-14 -1.54233e-14 0.129969 -3.57924e-16 3.65721e-16)
(-9.42431e-15 -8.08229e-30 1.03032e-30 5.47928 -8.08659e-15 -4.60102e-15 0.129969 -2.84127e-15 -1.08836e-16)
(0 3.98323e-30 -6.22379e-31 5.35243 1.32728e-14 -1.5355e-14 0.128818 -3.30739e-16 3.69346e-16)
(-2.24236e-15 0 3.73427e-31 5.35243 -7.10159e-15 -4.51393e-15 0.128818 -2.87319e-15 -1.09421e-16)
(0 7.85227e-30 -6.13459e-31 5.22945 1.43993e-14 -1.52546e-14 0.1277 -3.10873e-16 3.73111e-16)
(5.01221e-15 -3.92614e-30 -6.41806e-32 5.22945 -8.96347e-15 -4.37803e-15 0.1277 -2.91639e-15 -1.0531e-16)
(-2.54246e-15 2.34644e-29 -1.03524e-30 5.11018 1.64948e-14 -1.49827e-14 0.126613 -3.96084e-16 3.75203e-16)
(0 -1.93493e-29 1.20933e-30 5.11018 -1.07546e-14 -4.22566e-15 0.126613 -2.98755e-15 -1.04988e-16)
(-2.14732e-15 -3.05152e-29 1.788e-30 4.99447 1.63974e-14 -1.46888e-14 0.125556 -4.2503e-16 6.65663e-16)
(1.67357e-14 3.05152e-29 -2.71461e-30 4.99447 -9.05639e-15 -4.10293e-15 0.125556 -3.06801e-15 -1.02153e-16)
(0 -3.75973e-30 2.34983e-31 4.8822 1.54379e-14 -1.46088e-14 0.124528 -4.02733e-16 5.80632e-16)
(1.46593e-14 3.75973e-30 -1.42547e-30 4.8822 -9.04644e-15 -3.97459e-15 0.124528 -3.11138e-15 -1.01442e-16)
(-3.68237e-15 7.17879e-30 0 4.77322 1.46625e-14 -1.44961e-14 0.123529 -3.87973e-16 4.90349e-16)
(0 0 0 4.77322 -9.87202e-15 -3.87872e-15 0.123529 -3.17779e-15 -1.00126e-16)
(-1.84989e-15 -7.2717e-32 0 4.66741 1.47725e-14 -1.43503e-14 0.122557 -3.73936e-16 3.99813e-16)
(1.47991e-14 3.65273e-30 -1.24105e-30 4.66741 -8.23169e-15 -3.79923e-15 0.122557 -3.25331e-15 -1.00192e-16)
(1.85853e-15 -1.07634e-29 4.50047e-31 4.56465 1.49418e-14 -1.42347e-14 0.121611 -4.05181e-16 3.08339e-16)
(0 7.20075e-30 -4.50047e-31 4.56465 -9.18873e-15 -3.77982e-15 0.121611 -3.31446e-15 -1.02013e-16)
(-1.86709e-15 3.55253e-30 0 4.46483 1.45646e-14 -1.40513e-14 0.12069 -3.94015e-16 2.1761e-16)
(0 3.54877e-30 -2.21798e-31 4.46483 -9.98365e-15 -3.70951e-15 0.12069 -3.40534e-15 -9.92831e-17)
(-1.87559e-15 1.0537e-29 -4.37239e-31 4.36784 1.48783e-14 -1.38728e-14 0.119794 -3.96428e-16 1.26183e-16)
(7.50237e-15 -6.99582e-30 -1.1242e-31 4.36784 -7.09383e-15 -3.59891e-15 0.119794 -3.48666e-15 -9.88677e-17)
(5.68986e-17 1.38664e-29 -2.15486e-31 4.27358 1.48106e-14 -1.37722e-14 0.118922 -4.22957e-16 3.49356e-17)
(5.59518e-15 -6.89555e-30 -5.60682e-31 4.27358 -5.58281e-15 -3.64638e-15 0.118922 -3.54634e-15 -1.04863e-16)
(-3.78479e-15 1.04244e-29 0 4.18194 1.4204e-14 -1.36736e-14 0.118072 -4.04232e-16 -5.54127e-17)
(0 -3.39836e-30 0 4.18194 -6.82166e-15 -3.66833e-15 0.118072 -3.62525e-15 -1.03017e-16)
(-1.9007e-15 1.02018e-29 0 4.09283 1.45619e-14 -1.35552e-14 0.117245 -4.00716e-16 -1.45561e-16)
(0 -3.34965e-30 2.09353e-31 4.09283 -8.71876e-15 -3.59401e-15 0.117245 -3.715e-15 -1.0363e-16)
(0 -6.60329e-30 0 4.00616 1.49257e-14 -1.34681e-14 0.116439 -4.36802e-16 -2.36576e-16)
(-5.77715e-15 6.60329e-30 6.06887e-31 4.00616 -9.27721e-15 -3.50986e-15 0.116439 -3.80525e-15 -1.0109e-16)
(1.91714e-15 -1.32366e-29 4.0679e-31 3.92185 1.46812e-14 -1.33541e-14 0.115653 -4.33827e-16 -3.28439e-16)
(7.66856e-15 9.76297e-30 -1.02978e-30 3.92185 -8.76334e-15 -3.36416e-15 0.115653 -3.88486e-15 -9.79806e-17)
(1.92527e-15 -6.66952e-30 0 3.83981 1.36899e-14 -1.3237e-14 0.114888 -4.35024e-16 -4.21331e-16)
(-7.70108e-15 3.20768e-30 6.37919e-31 3.83981 -8.13787e-15 -3.24625e-15 0.114888 -3.98406e-15 -9.69208e-17)
(-1.93335e-15 9.78264e-30 0 3.75996 1.20237e-14 -1.32295e-14 0.114142 -3.86582e-16 -5.15071e-16)
(5.9535e-15 -3.16171e-30 -6.53951e-31 3.75996 -6.19106e-15 -3.12646e-15 0.114142 -4.06167e-15 -9.35008e-17)
(1.75437e-15 3.11639e-30 0 3.68223 1.18767e-14 -1.32536e-14 0.113415 -3.45537e-16 -6.11739e-16)
(-1.75437e-15 0 7.79098e-31 3.68223 -5.92986e-15 -2.96945e-15 0.113415 -4.09627e-15 -8.99862e-17)
(-3.45845e-15 1.22869e-29 3.83966e-31 3.60654 1.23934e-14 -1.31476e-14 0.112705 -3.88753e-16 -4.12605e-16)
(6.06812e-15 -3.07172e-30 -2.99777e-31 3.60654 -6.41969e-15 -2.8294e-15 0.112705 -4.17256e-15 -8.73945e-17)
(1.95725e-15 -9.4844e-30 -5.42512e-32 3.53283 1.29712e-14 -1.30489e-14 0.112014 -3.88294e-16 -4.17477e-16)
(0 6.0554e-30 0 3.53283 -6.60361e-15 -2.68746e-15 0.112014 -4.25608e-15 -8.3528e-17)
(0 5.96861e-30 3.73038e-31 3.46102 1.39559e-14 -1.30379e-14 0.111339 -4.37159e-16 -4.23972e-16)
(-7.86047e-15 0 6.15506e-31 3.46102 -7.37628e-15 -2.54643e-15 0.111339 -4.35272e-15 -2.54808e-16)
(-3.31187e-15 5.88306e-30 3.67691e-31 3.39106 1.37815e-14 -1.28877e-14 0.110681 -4.63678e-16 -4.19805e-16)
(0 0 0 3.39106 -6.17051e-15 -2.3655e-15 0.110681 -4.44069e-15 -5.97994e-16)
(0 5.79874e-30 0 3.32289 1.30019e-14 -1.27319e-14 0.110039 -4.38464e-16 -4.25963e-16)
(-3.2644e-15 -5.79874e-30 0 3.32289 -5.69118e-15 -2.14156e-15 0.110039 -4.49242e-15 -9.43756e-16)
(1.98843e-15 1.3773e-29 -1.07877e-31 3.25644 1.31534e-14 -1.27402e-14 0.109413 -4.25103e-16 -4.32672e-16)
(0 -1.71469e-29 0 3.25644 -7.23407e-15 -1.87957e-15 0.109413 -4.53148e-15 -1.30155e-15)
(1.9961e-15 2.27587e-30 5.82768e-31 3.19166 1.30862e-14 -1.27646e-14 0.108802 -4.61587e-16 -4.40119e-16)
(-3.1715e-15 0 0 3.19166 -7.35254e-15 -1.58713e-15 0.108802 -4.59568e-15 -1.4364e-15)
(-4.00747e-15 1.22554e-29 2.73005e-31 3.12849 1.24725e-14 -1.26826e-14 0.108205 -4.32933e-16 -4.39618e-16)
(8.01495e-15 -5.55297e-30 0 3.12849 -6.11641e-15 -1.29092e-15 0.108205 -4.66337e-15 -1.44916e-15)
(-2.01133e-15 -2.13211e-30 1.50895e-31 3.06689 1.29983e-14 -1.25694e-14 0.107622 -4.32225e-16 -4.44987e-16)
(0 5.47338e-30 0 3.06689 -5.83527e-15 -1.12405e-15 0.107622 -4.72568e-15 -1.45998e-15)
(0 5.39493e-30 0 3.0068 1.42363e-14 -1.24898e-14 0.107053 -4.82886e-16 -4.46772e-16)
(-3.03708e-15 -5.39493e-30 0 3.0068 -6.2838e-15 -1.07673e-15 0.107053 -4.80597e-15 -1.47214e-15)
(0 1.06352e-29 0 2.94818 1.41881e-14 -1.2357e-14 0.106497 -5.33925e-16 -4.48328e-16)
(-2.99355e-15 -5.31761e-30 0 2.94818 -6.94764e-15 -9.05053e-16 0.106497 -4.85715e-15 -1.48141e-15)
(-2.95064e-15 1.04828e-29 1.96552e-30 2.89098 1.36182e-14 -1.21947e-14 0.105955 -4.93511e-16 -4.47847e-16)
(0 0 0 2.89098 -5.8338e-15 -7.22052e-16 0.105955 -4.94295e-15 -1.48549e-15)
(2.90835e-15 5.16627e-30 6.45784e-31 2.83515 1.39995e-14 -1.21005e-14 0.105424 -5.07382e-16 -4.54386e-16)
(1.34218e-14 -5.16627e-30 0 2.83515 -3.83757e-15 -6.41867e-16 0.105424 -5.02075e-15 -1.49315e-15)
(-4.09731e-15 6.51571e-30 4.53987e-31 2.78066 1.32295e-14 -1.20123e-14 0.104906 -5.36604e-16 -4.54244e-16)
(8.19462e-15 0 0 2.78066 -4.35165e-15 -5.94699e-16 0.104906 -5.06406e-15 -1.50384e-15)
(2.05601e-15 -1.32937e-29 -1.49616e-30 2.72746 1.28033e-14 -1.19626e-14 0.1044 -4.63571e-16 -4.63861e-16)
(0 5.01924e-30 1.25481e-30 2.72746 -5.77189e-15 -5.04612e-16 0.1044 -5.13525e-15 -1.50999e-15)
(0 0 0 2.67551 1.36422e-14 -1.19845e-14 0.103905 -5.19378e-16 -4.69267e-16)
(-8.25327e-15 0 0 2.67551 -4.94613e-15 -4.63786e-16 0.103905 -5.22763e-15 -1.51082e-15)
(-2.0706e-15 -1.14162e-29 -3.34607e-31 2.62478 1.34663e-14 -1.173e-14 0.103422 -5.42942e-16 -4.57195e-16)
(8.28238e-15 1.46292e-29 6.09549e-31 2.62478 -3.868e-15 -4.89157e-16 0.103422 -5.30526e-15 -1.51763e-15)
(0 4.8065e-30 1.20163e-30 2.57523 1.29889e-14 -1.15228e-14 0.102949 -5.20601e-16 -4.66288e-16)
(0 0 0 2.57523 -5.77653e-15 -4.07189e-16 0.102949 -5.37868e-15 -1.52625e-15)
(0 -9.47523e-30 0 2.52682 1.28562e-14 -1.14776e-14 0.102487 -5.20306e-16 -4.6689e-16)
(0 9.47523e-30 0 2.52682 -7.18563e-15 -2.71227e-16 0.102487 -5.46906e-15 -1.53128e-15)
(-2.09222e-15 3.17247e-30 3.22828e-31 2.47952 1.22491e-14 -1.12446e-14 0.102035 -5.24984e-16 -4.60591e-16)
(0 0 0 2.47952 -5.36916e-15 -8.60156e-17 0.102035 -5.54806e-15 -1.53412e-15)
(-1.60758e-15 -2.12936e-29 -3.352e-30 2.4333 1.20343e-14 -1.11431e-14 0.101594 -4.85112e-16 -4.72003e-16)
(1.9386e-14 2.76167e-29 2.87674e-30 2.4333 -3.08518e-15 9.47391e-17 0.101594 -5.60211e-15 -1.53403e-15)
(0 4.53681e-30 1.1342e-30 2.38813 1.21322e-14 -1.12803e-14 0.101161 -5.22252e-16 -4.85817e-16)
(-2.554e-15 0 0 2.38813 -3.97821e-15 2.11211e-16 0.101161 -5.64584e-15 -1.53466e-15)
(-2.51739e-15 1.34154e-29 2.23589e-30 2.34398 1.16068e-14 -1.11358e-14 0.100739 -5.07698e-16 -4.73299e-16)
(-2.51739e-15 0 0 2.34398 -6.07605e-15 2.62849e-16 0.100739 -5.7465e-15 -1.52804e-15)
(-6.36179e-15 -1.71008e-29 -2.14029e-30 2.30081 1.23784e-14 -1.08648e-14 0.100325 -4.91959e-16 -4.76186e-16)
(1.94461e-14 2.64462e-29 3.30577e-30 2.30081 -5.78256e-15 3.41667e-16 0.100325 -5.87955e-15 -1.52532e-15)
(0 -2.60671e-29 -3.25839e-30 2.2586 1.33237e-14 -8.98767e-15 0.0999202 -5.90496e-16 -3.19531e-16)
(1.70209e-14 2.60671e-29 3.25839e-30 2.2586 -6.23462e-15 4.20696e-16 0.0999202 -5.97348e-15 -1.52945e-15)
(-2.1346e-15 1.16348e-29 -1.08868e-29 2.21733 1.30694e-14 2.12992e-29 0.0995241 -5.9079e-16 -3.9443e-31)
(0 -4.28225e-30 -1.07056e-30 2.21733 -7.14e-15 3.96487e-16 0.0995241 -6.09951e-15 -1.52927e-15)
(2.14156e-15 -1.99383e-29 -3.62709e-30 2.17696 1.27964e-14 2.77403e-15 0.0991365 -5.84748e-16 -1.25822e-16)
(1.71325e-14 1.68835e-29 3.16566e-30 2.17696 -5.34673e-15 4.69588e-16 0.0991365 -6.23917e-15 -1.52204e-15)
(-2.34209e-15 -1.24811e-29 -2.08019e-30 2.13747 1.24089e-14 2.7275e-15 0.0987571 -5.83002e-16 -1.2734e-16)
(1.09361e-14 1.24811e-29 2.08019e-30 2.13747 -5.58203e-15 6.13964e-16 0.0987571 -6.32235e-15 -1.51495e-15)
(2.1554e-15 -1.12281e-29 -1.47892e-30 2.09884 1.21543e-14 2.60662e-15 0.0983857 -5.65745e-16 -1.25169e-16)
(0 8.20151e-30 1.02519e-30 2.09884 -5.81176e-15 6.83507e-16 0.0983857 -6.45242e-15 -1.51234e-15)