/*--------------------------------*- C++ -*----------------------------------*\
| =========                 |                                                 |
| \\      /  F ield         | OpenFOAM: The Open Source CFD Toolbox           |
|  \\    /   O peration     | Version:  2106                                  |
|   \\  /    A nd           | Website:  www.openfoam.com                      |
|    \\/     M anipulation  |                                                 |
\*---------------------------------------------------------------------------*/
FoamFile
{
    version     2.0;
    format      ascii;
    arch        "LSB;label=32;scalar=64";
    class       surfaceScalarField;
    location    "13000";
    object      phi;
}
// * * * * * * * * * * * * * * * * * * * * * * * * * * * * * * * * * * * * * //

dimensions      [0 3 -1 0 0 0 0];

oriented        oriented;

internalField   nonuniform List<scalar> 
5116
(
2.56507e-08
-7.40002e-18
-5.04613e-22
-9.68139e-22
-3.69126e-23
7.84418e-08
-7.3994e-18
-9.57135e-23
-1.65652e-21
1.61989e-22
1.33528e-07
-7.39875e-18
-1.10473e-22
-2.37188e-21
1.69035e-22
1.90988e-07
-7.39795e-18
-1.3947e-22
-3.19149e-21
1.7632e-22
2.509e-07
-7.39709e-18
-1.72882e-22
-4.15818e-21
1.83842e-22
3.13349e-07
-7.39612e-18
-2.09344e-22
-5.15054e-21
1.91604e-22
3.7842e-07
-7.39497e-18
-2.48802e-22
-6.24051e-21
1.99607e-22
4.46199e-07
-7.39364e-18
-2.91092e-22
-7.44233e-21
2.07852e-22
5.16777e-07
-7.39221e-18
-3.36099e-22
-8.69504e-21
2.1634e-22
5.90246e-07
-7.39061e-18
-3.83815e-22
-1.01296e-20
2.25072e-22
6.667e-07
-7.38891e-18
-4.34279e-22
-1.15273e-20
2.34046e-22
7.46235e-07
-7.38691e-18
-4.87556e-22
-1.33681e-20
2.43258e-22
8.28947e-07
-7.38471e-18
-5.43721e-22
-1.51979e-20
2.52705e-22
9.14932e-07
-7.38227e-18
-6.02849e-22
-1.73157e-20
2.62372e-22
1.00429e-06
-7.37943e-18
-6.65006e-22
-1.97093e-20
2.72248e-22
1.09711e-06
-7.37668e-18
-7.30253e-22
-2.18952e-20
2.82316e-22
1.19348e-06
-7.37372e-18
-7.98613e-22
-2.43544e-20
2.92544e-22
1.2935e-06
-7.37011e-18
-8.70095e-22
-2.74438e-20
3.02892e-22
1.39723e-06
-7.3671e-18
-9.44676e-22
-2.99533e-20
3.1332e-22
1.50476e-06
-7.36335e-18
-1.02227e-21
-3.28467e-20
3.23765e-22
1.61613e-06
-7.35922e-18
-1.10276e-21
-3.62076e-20
3.34166e-22
1.7314e-06
-7.35507e-18
-1.18597e-21
-3.95914e-20
3.44447e-22
1.85059e-06
-7.35113e-18
-1.27165e-21
-4.31806e-20
3.5452e-22
1.97371e-06
-7.3461e-18
-1.35948e-21
-4.73867e-20
3.64288e-22
2.10074e-06
-7.34141e-18
-1.44909e-21
-5.09974e-20
3.73653e-22
2.23165e-06
-7.33582e-18
-1.54005e-21
-5.54255e-20
3.8249e-22
2.36639e-06
-7.32988e-18
-1.63187e-21
-5.9932e-20
3.90682e-22
2.50486e-06
-7.32366e-18
-1.72403e-21
-6.41281e-20
3.9813e-22
2.64698e-06
-7.31727e-18
-1.81604e-21
-6.89281e-20
4.04713e-22
2.79261e-06
-7.31102e-18
-1.90735e-21
-7.37742e-20
4.10358e-22
2.94161e-06
-7.30346e-18
-1.99747e-21
-7.94203e-20
4.14982e-22
3.09385e-06
-7.29653e-18
-2.08598e-21
-8.45994e-20
4.18539e-22
3.24914e-06
-7.28965e-18
-2.17252e-21
-8.95663e-20
4.20993e-22
3.40734e-06
-7.28176e-18
-2.25677e-21
-9.58344e-20
4.2232e-22
3.56829e-06
-7.2731e-18
-2.33853e-21
-1.0305e-19
4.22573e-22
3.73182e-06
-7.26449e-18
-2.41771e-21
-1.09546e-19
4.21775e-22
3.8978e-06
-7.25804e-18
-2.49429e-21
-1.14502e-19
4.19961e-22
4.06609e-06
-7.25e-18
-2.56825e-21
-1.21225e-19
4.1714e-22
4.23657e-06
-7.24165e-18
-2.63976e-21
-1.26176e-19
4.13447e-22
4.40914e-06
-7.23297e-18
-2.70898e-21
-1.32683e-19
4.08853e-22
4.58372e-06
-7.2245e-18
-2.77611e-21
-1.39307e-19
4.03453e-22
4.76023e-06
-7.2159e-18
-2.84137e-21
-1.45802e-19
3.97307e-22
4.93863e-06
-7.20695e-18
-2.90504e-21
-1.52847e-19
3.90479e-22
5.11888e-06
-7.19876e-18
-2.96738e-21
-1.59311e-19
3.83023e-22
5.30096e-06
-7.18893e-18
-3.02861e-21
-1.65812e-19
3.74934e-22
5.48486e-06
-7.17914e-18
-3.08908e-21
-1.72642e-19
3.66308e-22
5.67059e-06
-7.17109e-18
-3.14902e-21
-1.79145e-19
3.57203e-22
5.85816e-06
-7.16112e-18
-3.2086e-21
-1.86042e-19
3.47615e-22
6.04759e-06
-7.15108e-18
-3.26806e-21
-1.93519e-19
3.3756e-22
6.23893e-06
-7.141e-18
-3.32757e-21
-2.00678e-19
3.2707e-22
6.4322e-06
-7.13047e-18
-3.38733e-21
-2.08179e-19
3.16165e-22
6.62746e-06
-7.11795e-18
-3.44748e-21
-2.15918e-19
3.04826e-22
6.82476e-06
-7.10804e-18
-3.5082e-21
-2.23913e-19
2.93015e-22
7.02415e-06
-7.09724e-18
-3.56951e-21
-2.31271e-19
2.80794e-22
7.22569e-06
-7.08674e-18
-3.63154e-21
-2.38801e-19
2.68062e-22
7.42946e-06
-7.07632e-18
-3.6944e-21
-2.46236e-19
2.548e-22
7.6355e-06
-7.0645e-18
-3.75812e-21
-2.53805e-19
2.4107e-22
7.8439e-06
-7.05163e-18
-3.82274e-21
-2.60058e-19
2.26714e-22
8.05471e-06
-7.04084e-18
-3.88838e-21
-2.68175e-19
2.11651e-22
8.26802e-06
-7.02892e-18
-3.95508e-21
-2.76789e-19
1.96016e-22
8.48389e-06
-7.01543e-18
-4.02283e-21
-2.84249e-19
1.79654e-22
8.7024e-06
-7.00104e-18
-4.09175e-21
-2.92506e-19
1.62505e-22
8.92362e-06
-6.98968e-18
-4.16184e-21
-2.99494e-19
1.44451e-22
9.14763e-06
-6.97637e-18
-4.23301e-21
-3.07861e-19
1.25625e-22
9.3745e-06
-6.96325e-18
-4.30533e-21
-3.17373e-19
1.05829e-22
9.60431e-06
-6.95004e-18
-4.37905e-21
-3.24841e-19
8.52486e-23
9.83714e-06
-6.93678e-18
-4.45395e-21
-3.33233e-19
6.3781e-23
1.00731e-05
-6.92387e-18
-4.53006e-21
-3.41465e-19
4.11976e-23
1.03122e-05
-6.91039e-18
-4.60718e-21
-3.50595e-19
1.76902e-23
1.05545e-05
-6.89121e-18
-4.68527e-21
-3.58678e-19
-6.81511e-24
1.08002e-05
-6.87812e-18
-4.76466e-21
-3.67815e-19
-3.24934e-23
1.10493e-05
-6.86315e-18
-4.84499e-21
-3.76549e-19
-5.94459e-23
1.13019e-05
-6.84885e-18
-4.92628e-21
-3.8496e-19
-8.77706e-23
1.15581e-05
-6.83166e-18
-5.0084e-21
-3.95087e-19
-1.17385e-22
1.18179e-05
-6.8165e-18
-5.09148e-21
-4.04851e-19
-1.48112e-22
1.20815e-05
-6.80155e-18
-5.17545e-21
-4.12564e-19
-1.80132e-22
1.23488e-05
-6.78887e-18
-5.2602e-21
-4.21221e-19
-2.13641e-22
1.26201e-05
-6.77539e-18
-5.34564e-21
-4.31014e-19
-2.4854e-22
1.28954e-05
-6.76064e-18
-5.43215e-21
-4.4093e-19
-2.84512e-22
1.31747e-05
-6.74547e-18
-5.51982e-21
-4.50871e-19
-3.21386e-22
1.34582e-05
-6.72783e-18
-5.60883e-21
-4.59641e-19
-3.59264e-22
1.3746e-05
-6.71245e-18
-5.69911e-21
-4.69828e-19
-3.98348e-22
1.4038e-05
-6.69525e-18
-5.79049e-21
-4.80804e-19
-4.38554e-22
1.43345e-05
-6.67734e-18
-5.88312e-21
-4.90067e-19
-4.79493e-22
1.46355e-05
-6.6598e-18
-5.97726e-21
-5.00783e-19
-5.2145e-22
1.49411e-05
-6.63952e-18
-6.07248e-21
-5.12215e-19
-5.64261e-22
1.52514e-05
-6.62209e-18
-6.16848e-21
-5.19957e-19
-6.08368e-22
1.55665e-05
-6.60581e-18
-6.26553e-21
-5.31322e-19
-6.53614e-22
1.58864e-05
-6.58456e-18
-6.36277e-21
-5.42791e-19
-6.99752e-22
1.62113e-05
-6.56786e-18
-6.46082e-21
-5.56648e-19
-7.47148e-22
1.65412e-05
-6.54615e-18
-6.55956e-21
-5.68389e-19
-7.95185e-22
1.68763e-05
-6.52756e-18
-6.6594e-21
-5.8193e-19
-8.44854e-22
1.72167e-05
-6.50595e-18
-6.7598e-21
-5.94546e-19
-8.95724e-22
1.75624e-05
-6.4871e-18
-6.86114e-21
-6.12603e-19
-9.47562e-22
1.79135e-05
-6.46562e-18
-6.96299e-21
-6.24167e-19
-1.00083e-21
1.82702e-05
-6.44648e-18
-7.06608e-21
-6.38726e-19
-1.05632e-21
1.86325e-05
-6.42103e-18
-7.16967e-21
-6.52618e-19
-1.11279e-21
1.90006e-05
-6.39901e-18
-7.27377e-21
-6.64513e-19
-1.16982e-21
1.93746e-05
-6.37538e-18
-7.37859e-21
-6.76643e-19
-1.22795e-21
1.97545e-05
-6.35779e-18
-7.48353e-21
-6.85363e-19
-1.28692e-21
2.01405e-05
-6.33629e-18
-7.58762e-21
-7.02415e-19
-1.34756e-21
2.05327e-05
-6.30851e-18
-7.68999e-21
-7.16769e-19
-1.4081e-21
2.09311e-05
-6.2829e-18
-7.79293e-21
-7.33177e-19
-1.46999e-21
2.1336e-05
-6.25946e-18
-7.89667e-21
-7.46466e-19
-1.53225e-21
2.17473e-05
-6.23403e-18
-7.99881e-21
-7.62921e-19
-1.59571e-21
2.21653e-05
-6.21114e-18
-8.10114e-21
-7.7556e-19
-1.66016e-21
2.25901e-05
-6.18531e-18
-8.2023e-21
-7.91772e-19
-1.72617e-21
2.30217e-05
-6.1617e-18
-8.30243e-21
-8.07949e-19
-1.79453e-21
2.34603e-05
-6.13558e-18
-8.40154e-21
-8.2201e-19
-1.86333e-21
2.3906e-05
-6.10955e-18
-8.49993e-21
-8.28464e-19
-1.93357e-21
2.43589e-05
-6.08346e-18
-8.59645e-21
-8.44106e-19
-2.00811e-21
2.48191e-05
-6.05891e-18
-8.69219e-21
-8.5681e-19
-2.08359e-21
2.52869e-05
-6.02942e-18
-8.78682e-21
-8.74589e-19
-2.16111e-21
2.57623e-05
-6.00456e-18
-8.88112e-21
-8.92152e-19
-2.23927e-21
2.62454e-05
-5.97609e-18
-8.9745e-21
-9.06732e-19
-2.3178e-21
2.67364e-05
-5.95576e-18
-9.06736e-21
-9.181e-19
-2.39762e-21
2.72354e-05
-5.93297e-18
-9.15734e-21
-9.28135e-19
-2.47763e-21
2.77425e-05
-5.908e-18
-9.24568e-21
-9.43101e-19
-2.55773e-21
2.82579e-05
-5.8833e-18
-9.33046e-21
-9.56463e-19
-2.63836e-21
2.87818e-05
-5.85488e-18
-9.41261e-21
-9.6881e-19
-2.71884e-21
2.93142e-05
-5.82506e-18
-9.4934e-21
-9.84149e-19
-2.79969e-21
2.98553e-05
-5.79876e-18
-9.57346e-21
-9.92676e-19
-2.87883e-21
3.04053e-05
-5.77248e-18
-9.65166e-21
-1.01139e-18
-2.95658e-21
3.09643e-05
-5.7424e-18
-9.73108e-21
-1.02498e-18
-3.03078e-21
3.15325e-05
-5.71721e-18
-9.81122e-21
-1.04177e-18
-3.10196e-21
3.211e-05
-5.68576e-18
-9.89194e-21
-1.05119e-18
-3.16875e-21
3.2697e-05
-5.65738e-18
-9.97352e-21
-1.0659e-18
-3.23695e-21
3.32936e-05
-5.62071e-18
-1.00529e-20
-1.0823e-18
-3.30507e-21
3.39e-05
-5.59519e-18
-1.01346e-20
-1.09501e-18
-3.36938e-21
3.45164e-05
-5.55849e-18
-1.02147e-20
-1.10295e-18
-3.43278e-21
3.51429e-05
-5.5269e-18
-1.02951e-20
-1.11577e-18
-3.49635e-21
3.57797e-05
-5.49875e-18
-1.03756e-20
-1.12957e-18
-3.5603e-21
3.64269e-05
-5.46603e-18
-1.04547e-20
-1.13756e-18
-3.62231e-21
3.70849e-05
-5.42874e-18
-1.05324e-20
-1.14834e-18
-3.68689e-21
3.77536e-05
-5.39978e-18
-1.06099e-20
-1.16652e-18
-3.75261e-21
3.84334e-05
-5.3671e-18
-1.06859e-20
-1.18188e-18
-3.81559e-21
3.91243e-05
-5.33248e-18
-1.0762e-20
-1.19472e-18
-3.87672e-21
3.98266e-05
-5.30474e-18
-1.08393e-20
-1.20668e-18
-3.93195e-21
4.05405e-05
-5.26782e-18
-1.09102e-20
-1.21533e-18
-3.985e-21
4.12662e-05
-5.24251e-18
-1.09868e-20
-1.22499e-18
-4.03504e-21
4.20038e-05
-5.20529e-18
-1.10582e-20
-1.25097e-18
-4.08629e-21
4.27536e-05
-5.16889e-18
-1.11269e-20
-1.26614e-18
-4.13252e-21
4.35157e-05
-5.13165e-18
-1.11994e-20
-1.28298e-18
-4.17978e-21
4.42903e-05
-5.09735e-18
-1.12726e-20
-1.29843e-18
-4.22815e-21
4.50778e-05
-5.05856e-18
-1.13444e-20
-1.31678e-18
-4.27118e-21
4.58782e-05
-5.02309e-18
-1.14175e-20
-1.33381e-18
-4.31026e-21
4.66918e-05
-4.99031e-18
-1.14944e-20
-1.34341e-18
-4.34849e-21
4.75188e-05
-4.95166e-18
-1.15694e-20
-1.35818e-18
-4.38815e-21
4.83595e-05
-4.91316e-18
-1.16464e-20
-1.37352e-18
-4.42448e-21
4.9214e-05
-4.87789e-18
-1.17271e-20
-1.40425e-18
-4.4492e-21
5.00826e-05
-4.84424e-18
-1.18021e-20
-1.42793e-18
-4.46213e-21
5.09655e-05
-4.82557e-18
-1.18724e-20
-1.43e-18
-4.46136e-21
5.1863e-05
-4.80167e-18
-1.19272e-20
-1.43528e-18
-4.46665e-21
5.27753e-05
-4.76816e-18
-1.1975e-20
-1.44065e-18
-4.48091e-21
5.37026e-05
-4.74337e-18
-1.20177e-20
-1.4479e-18
-4.49477e-21
5.46452e-05
-4.72625e-18
-1.20475e-20
-1.46297e-18
-4.52068e-21
5.56033e-05
-4.70155e-18
-1.20621e-20
-1.47025e-18
-4.54951e-21
5.65772e-05
-4.694e-18
-1.20555e-20
-1.46766e-18
-4.5705e-21
5.75672e-05
-4.6636e-18
-1.20271e-20
-1.47237e-18
-4.60047e-21
5.85735e-05
-4.63356e-18
-1.20064e-20
-1.48135e-18
-4.63197e-21
5.95964e-05
-4.59833e-18
-1.19736e-20
-1.49061e-18
-4.65206e-21
6.06361e-05
-4.57737e-18
-1.19479e-20
-1.50371e-18
-4.65692e-21
6.16929e-05
-4.57105e-18
-1.19373e-20
-1.5158e-18
-4.64413e-21
6.27672e-05
-4.55154e-18
-1.19027e-20
-1.52735e-18
-4.62477e-21
6.38592e-05
-4.5388e-18
-1.18862e-20
-1.53687e-18
-4.61518e-21
6.49691e-05
-4.52919e-18
-1.18561e-20
-1.54309e-18
-4.60968e-21
6.60974e-05
-4.50452e-18
-1.18062e-20
-1.55393e-18
-4.61153e-21
6.72442e-05
-4.47274e-18
-1.17516e-20
-1.56687e-18
-4.59055e-21
6.84099e-05
-4.45094e-18
-1.16935e-20
-1.56873e-18
-4.55358e-21
6.95948e-05
-4.43117e-18
-1.16169e-20
-1.59015e-18
-4.52922e-21
7.07992e-05
-4.40491e-18
-1.15311e-20
-1.6022e-18
-4.49266e-21
7.20234e-05
-4.38827e-18
-1.14511e-20
-1.60563e-18
-4.44935e-21
7.32678e-05
-4.36494e-18
-1.13809e-20
-1.61262e-18
-4.39887e-21
7.45326e-05
-4.33731e-18
-1.13182e-20
-1.6361e-18
-4.35412e-21
7.58183e-05
-4.3081e-18
-1.12482e-20
-1.65435e-18
-4.29503e-21
7.71251e-05
-4.28569e-18
-1.12097e-20
-1.66442e-18
-4.20977e-21
7.84534e-05
-4.26565e-18
-1.11563e-20
-1.66695e-18
-4.13065e-21
7.98035e-05
-4.22956e-18
-1.10777e-20
-1.69846e-18
-4.10718e-21
8.11758e-05
-4.20195e-18
-1.10142e-20
-1.70722e-18
-4.03219e-21
8.25707e-05
-4.17085e-18
-1.09594e-20
-1.73202e-18
-3.929e-21
8.39885e-05
-4.13645e-18
-1.09103e-20
-1.7461e-18
-3.82368e-21
8.54296e-05
-4.11885e-18
-1.08552e-20
-1.74408e-18
-3.70954e-21
8.68944e-05
-4.0776e-18
-1.07983e-20
-1.7521e-18
-3.6008e-21
8.83832e-05
-4.04982e-18
-1.0771e-20
-1.75517e-18
-3.50225e-21
8.98965e-05
-4.02844e-18
-1.07235e-20
-1.7711e-18
-3.41916e-21
9.14346e-05
-3.99171e-18
-1.07065e-20
-1.7719e-18
-3.35752e-21
9.2998e-05
-3.96043e-18
-1.07157e-20
-1.78734e-18
-3.34598e-21
9.45871e-05
-3.92751e-18
-1.07387e-20
-1.80471e-18
-3.33879e-21
9.62022e-05
-3.89214e-18
-1.07436e-20
-1.82803e-18
-3.29489e-21
9.78438e-05
-3.86446e-18
-1.07771e-20
-1.85648e-18
-3.25338e-21
9.95123e-05
-3.82523e-18
-1.08121e-20
-1.86042e-18
-3.15115e-21
0.000101208
-3.79916e-18
-1.08497e-20
-1.88884e-18
-3.0723e-21
0.000102932
-3.75624e-18
-1.08387e-20
-1.90972e-18
-3.00093e-21
0.000104684
-3.72335e-18
-1.08469e-20
-1.91778e-18
-2.91948e-21
0.000106464
-3.69478e-18
-1.08212e-20
-1.93356e-18
-2.86957e-21
0.000108274
-3.63968e-18
-1.07748e-20
-1.97036e-18
-2.88877e-21
0.000110114
-3.58619e-18
-1.07871e-20
-1.99944e-18
-2.84035e-21
0.000111983
-3.55619e-18
-1.07733e-20
-2.0266e-18
-2.76144e-21
0.000113883
-3.52749e-18
-1.07247e-20
-2.04869e-18
-2.6902e-21
0.000115814
-3.48232e-18
-1.0706e-20
-2.06946e-18
-2.61643e-21
0.000117777
-3.40874e-18
-1.0691e-20
-2.09959e-18
-2.47725e-21
0.000119772
-3.3832e-18
-1.07299e-20
-2.11926e-18
-2.33719e-21
0.0001218
-3.3377e-18
-1.07167e-20
-2.12319e-18
-2.14435e-21
0.00012386
-3.36335e-18
-1.08313e-20
-2.07885e-18
-1.86832e-21
0.000125954
-3.39393e-18
-1.08832e-20
-2.06643e-18
-1.66248e-21
0.000128083
-3.36406e-18
-1.08432e-20
-2.0636e-18
-1.41256e-21
0.000130246
-3.37773e-18
-1.09307e-20
-2.07753e-18
-1.14705e-21
0.000132445
-3.3461e-18
-1.099e-20
-2.08507e-18
-8.34271e-22
0.000134679
-3.33976e-18
-1.11324e-20
-2.09339e-18
-5.58257e-22
0.00013695
-3.33338e-18
-1.11887e-20
-2.10514e-18
-3.37238e-22
0.000139258
-3.35737e-18
-1.12417e-20
-2.08629e-18
-6.57691e-23
0.000141603
-3.33869e-18
-1.10727e-20
-2.10195e-18
-1.70908e-23
0.000143987
-3.32354e-18
-1.08874e-20
-2.09886e-18
8.78293e-23
0.00014641
-3.30733e-18
-1.06831e-20
-2.08097e-18
7.29506e-23
0.000148872
-3.29652e-18
-1.04552e-20
-2.10209e-18
-7.46134e-23
0.000151374
-3.28932e-18
-1.01411e-20
-2.10764e-18
-1.79159e-22
0.000153917
-3.27625e-18
-9.76228e-21
-2.11691e-18
-2.75793e-22
0.000156501
-3.26124e-18
-9.37835e-21
-2.13074e-18
-3.92518e-22
0.000159127
-3.24499e-18
-9.1297e-21
-2.14117e-18
-5.11872e-22
0.000161796
-3.24661e-18
-8.92258e-21
-2.12167e-18
-6.1301e-22
0.000164508
-3.22587e-18
-8.70442e-21
-2.13715e-18
-8.02294e-22
0.000167264
-3.20019e-18
-8.48221e-21
-2.14903e-18
-1.1336e-21
0.000170065
-3.21201e-18
-8.4143e-21
-2.16152e-18
-1.42096e-21
0.000172911
-3.15325e-18
-8.28331e-21
-2.18365e-18
-1.60942e-21
0.000175804
-3.12657e-18
-8.45979e-21
-2.21569e-18
-1.92912e-21
0.000178743
-3.09488e-18
-8.5202e-21
-2.21747e-18
-2.09515e-21
0.00018173
-3.11515e-18
-8.53087e-21
-2.19606e-18
-2.17353e-21
0.000184766
-3.12812e-18
-8.55055e-21
-2.17595e-18
-2.18961e-21
0.00018785
-3.11455e-18
-8.44901e-21
-2.1986e-18
-2.28571e-21
0.000190984
-3.09605e-18
-8.43166e-21
-2.21145e-18
-2.25278e-21
0.00019417
-3.10011e-18
-8.78522e-21
-2.19651e-18
-1.99123e-21
0.000197406
-3.12122e-18
-8.98271e-21
-2.16507e-18
-1.88121e-21
0.000200695
-3.09394e-18
-9.07148e-21
-2.20108e-18
-1.8577e-21
0.000204037
-3.07922e-18
-9.40508e-21
-2.19387e-18
-1.90799e-21
0.000207433
-3.06064e-18
-9.70179e-21
-2.21572e-18
-1.93777e-21
0.000210883
-3.0501e-18
-1.00867e-20
-2.21273e-18
-1.67997e-21
0.000214389
-3.0615e-18
-1.05831e-20
-2.18443e-18
-1.5089e-21
0.000217952
-3.05137e-18
-1.06855e-20
-2.17549e-18
-1.59057e-21
0.000221572
-3.0303e-18
-1.06663e-20
-2.16054e-18
-2.10311e-21
0.00022525
-3.02442e-18
-1.04601e-20
-2.16347e-18
-2.47047e-21
0.000228987
-3.04387e-18
-1.01993e-20
-2.13638e-18
-2.60124e-21
0.000232785
-3.04278e-18
-9.84452e-21
-2.1274e-18
-3.10444e-21
0.000236643
-2.9964e-18
-9.21813e-21
-2.11905e-18
-3.64435e-21
0.000240563
-3.00009e-18
-8.9984e-21
-2.10086e-18
-4.25501e-21
0.000244546
-2.93921e-18
-8.4733e-21
-2.15319e-18
-5.23031e-21
0.000248593
-2.87491e-18
-8.13977e-21
-2.17756e-18
-5.65704e-21
0.000252704
-2.82978e-18
-7.16496e-21
-2.12805e-18
-6.11517e-21
0.000256882
-2.70858e-18
-6.52234e-21
-2.14275e-18
-7.21564e-21
0.000261126
-2.63998e-18
-7.07272e-21
-2.16563e-18
-7.02661e-21
0.000265437
-2.57778e-18
-8.05138e-21
-2.18764e-18
-5.94914e-21
0.000269818
-2.57045e-18
-8.19983e-21
-2.14404e-18
-4.69974e-21
0.000274268
-2.39384e-18
-8.05098e-21
-2.12351e-18
-3.39497e-21
0.000278789
-2.39745e-18
-9.24646e-21
-2.07552e-18
-1.77611e-21
0.000283382
-2.37793e-18
-9.16672e-21
-2.10283e-18
-1.2646e-21
0.000288048
-2.29628e-18
-9.44286e-21
-2.00696e-18
-5.48615e-22
0.000292788
-2.30198e-18
-9.85471e-21
-2.04737e-18
-7.85214e-22
0.000297603
-2.21953e-18
-8.80553e-21
-2.04302e-18
-8.1051e-22
0.000302495
-2.20322e-18
-8.15235e-21
-2.01454e-18
-1.16733e-21
0.000307464
-2.15446e-18
-7.02607e-21
-2.04153e-18
-1.14326e-21
0.000312511
-2.10649e-18
-6.20465e-21
-2.03107e-18
1.51891e-22
0.000317638
-2.06876e-18
-6.70391e-21
-2.00546e-18
1.06601e-21
0.000322846
-2.03567e-18
-7.17285e-21
-2.00428e-18
1.71885e-21
0.000328135
-2.12447e-18
-6.78055e-21
-1.87604e-18
1.87762e-21
0.000333508
-2.06069e-18
-5.15369e-21
-1.90424e-18
-4.49942e-23
0.000338966
-1.9862e-18
-3.49007e-21
-1.86925e-18
-1.35954e-21
0.000344508
-1.92553e-18
-3.25546e-21
-1.86706e-18
-2.44328e-21
0.000350138
-1.90647e-18
-3.74233e-21
-1.81451e-18
-3.25993e-21
0.000355855
-1.83056e-18
-4.51708e-21
-1.84798e-18
-4.23063e-21
0.000361662
-1.7574e-18
-3.95585e-21
-1.80374e-18
-4.47217e-21
0.000367559
-1.70534e-18
-4.45889e-21
-1.81764e-18
-5.03079e-21
0.000373547
-1.6628e-18
-5.5922e-21
-1.8134e-18
-4.41078e-21
0.000379629
-1.76072e-18
-7.19308e-21
-1.66857e-18
-2.97032e-21
0.000385805
-1.71563e-18
-7.04001e-21
-1.69254e-18
-3.72468e-21
0.000392076
-1.64806e-18
-6.72788e-21
-1.67589e-18
-2.97356e-21
0.000398444
-1.66021e-18
-6.37252e-21
-1.65774e-18
-6.43093e-22
0.00040491
-1.59261e-18
-4.51208e-21
-1.5986e-18
1.69745e-21
0.000411475
-1.53858e-18
-3.83596e-21
-1.59311e-18
3.38945e-21
0.00041814
-1.63663e-18
-4.0715e-21
-1.55805e-18
5.17853e-21
0.000424908
-1.63013e-18
-2.35343e-21
-1.64103e-18
5.8703e-21
0.000431778
-1.64519e-18
1.07453e-21
-1.66665e-18
7.63643e-21
0.000438753
-1.65919e-18
8.81267e-22
-1.58437e-18
1.05826e-20
0.000445833
-1.64754e-18
-4.29562e-22
-1.57968e-18
8.91822e-21
0.000453021
-1.65142e-18
-3.80209e-21
-1.60624e-18
3.96087e-21
0.000460316
-1.67628e-18
-5.82625e-21
-1.63562e-18
-6.33177e-22
0.000467721
-1.57949e-18
-8.32277e-21
-1.76065e-18
-2.76439e-21
0.000475236
-1.63924e-18
-1.23658e-20
-1.70779e-18
-5.88121e-22
0.000482864
-1.62245e-18
-1.59482e-20
-1.67972e-18
-3.87057e-21
0.000490604
-1.63192e-18
-1.98173e-20
-1.64672e-18
-8.26967e-21
0.000498459
-1.66591e-18
-2.01209e-20
-1.59013e-18
-1.16132e-20
0.000506429
-1.71336e-18
-1.74644e-20
-1.50884e-18
-1.65415e-20
0.000514515
-1.54709e-18
-1.43715e-20
-1.49057e-18
-2.2924e-20
0.000522719
-1.61079e-18
-1.27114e-20
-1.48355e-18
-2.63855e-20
0.000531042
-1.38147e-18
-1.64715e-21
-1.5172e-18
-2.47795e-20
0.000539485
-1.31388e-18
4.98549e-21
-1.51408e-18
-1.86637e-20
0.000548048
-1.40118e-18
8.19934e-21
-1.37989e-18
-1.11407e-20
0.000556733
-1.32905e-18
8.92257e-21
-1.34134e-18
-3.83505e-21
0.00056554
-1.1374e-18
8.27671e-21
-1.34798e-18
2.53502e-21
0.000574471
-1.21681e-18
1.09259e-21
-1.27918e-18
7.1177e-21
0.000583525
-1.18425e-18
1.42409e-21
-1.13611e-18
1.12225e-20
0.000592704
-1.35554e-18
-7.21122e-21
-1.28323e-18
6.7791e-22
0.000602008
-1.34936e-18
-1.47361e-20
-1.34389e-18
-6.59326e-21
0.000611438
-1.35819e-18
-2.01676e-20
-1.32106e-18
-6.31884e-22
0.000620993
-1.4328e-18
-2.22205e-20
-1.46692e-18
-1.80968e-21
0.000630674
-1.40492e-18
-2.71874e-20
-1.36251e-18
-3.39343e-21
0.000640481
-1.49521e-18
-3.80323e-20
-1.38078e-18
-1.05497e-20
0.000650415
-1.49471e-18
-3.80558e-20
-1.42596e-18
-1.26276e-20
0.000660473
-1.48553e-18
-3.66015e-20
-1.43284e-18
-1.83695e-20
0.000670657
-1.51336e-18
-3.50781e-20
-1.41204e-18
-2.51458e-20
0.000680966
-1.39856e-18
-3.22802e-20
-1.39927e-18
-3.48849e-20
0.000691398
-1.39875e-18
-2.95744e-20
-1.40827e-18
-3.69851e-20
0.000701952
-1.39763e-18
-2.95228e-20
-1.44113e-18
-3.79075e-20
0.000712628
-1.50598e-18
-3.22529e-20
-1.45829e-18
-3.56123e-20
0.000723423
-1.42791e-18
-2.34443e-20
-1.46206e-18
-3.3999e-20
0.000734336
-1.47499e-18
-2.35022e-20
-1.5382e-18
-3.16298e-20
0.000745365
-1.42952e-18
-2.10326e-20
-1.54535e-18
-2.93197e-20
0.000756506
-1.44492e-18
-3.24627e-20
-1.42033e-18
-2.91984e-20
0.000767759
-1.47672e-18
-2.83771e-20
-1.43411e-18
-3.46964e-20
0.00077912
-1.37375e-18
-1.97362e-20
-1.46586e-18
-3.84104e-20
0.000790585
-1.46347e-18
-2.30663e-20
-1.40873e-18
-2.77278e-20
0.000802151
-1.50479e-20
-1.32999e-18
-1.62324e-20
-1.27669e-18
2.56507e-08
-4.33945e-22
-1.06471e-22
7.84418e-08
-5.63528e-22
7.4442e-23
1.33528e-07
-6.71676e-22
2.37267e-22
1.90988e-07
-8.04533e-22
3.97265e-22
2.509e-07
-9.77635e-22
5.4693e-22
3.13349e-07
-1.25406e-21
7.73945e-22
3.7842e-07
-1.59121e-21
9.65594e-22
4.46199e-07
-1.88472e-21
1.14287e-21
5.16777e-07
-2.34073e-21
1.35798e-21
5.90246e-07
-2.73931e-21
1.68123e-21
6.667e-07
-3.15445e-21
1.98517e-21
7.46235e-07
-3.73348e-21
2.28539e-21
8.28947e-07
-4.46015e-21
2.49029e-21
9.14932e-07
-4.97208e-21
2.72516e-21
1.00429e-06
-5.88914e-21
3.22584e-21
1.09711e-06
-6.56822e-21
3.84622e-21
1.19348e-06
-7.4424e-21
4.30515e-21
1.2935e-06
-8.30994e-21
4.70241e-21
1.39723e-06
-9.07007e-21
5.00994e-21
1.50476e-06
-1.01689e-20
5.4233e-21
1.61613e-06
-1.09166e-20
5.62593e-21
1.7314e-06
-1.18913e-20
5.81218e-21
1.85059e-06
-1.26316e-20
5.9536e-21
1.97371e-06
-1.36589e-20
6.10611e-21
2.10074e-06
-1.50584e-20
6.82474e-21
2.23165e-06
-1.63858e-20
6.64584e-21
2.36639e-06
-1.7588e-20
7.01871e-21
2.50486e-06
-1.97404e-20
6.70405e-21
2.64698e-06
-2.13524e-20
6.92344e-21
2.79261e-06
-2.26211e-20
6.64665e-21
2.94161e-06
-2.40483e-20
6.38513e-21
3.09385e-06
-2.65727e-20
6.99258e-21
3.24914e-06
-2.92301e-20
6.95311e-21
3.40734e-06
-3.1216e-20
7.87469e-21
3.56829e-06
-3.37256e-20
8.55139e-21
3.73182e-06
-3.75496e-20
1.00923e-20
3.8978e-06
-4.05784e-20
1.08259e-20
4.06609e-06
-4.42168e-20
1.23358e-20
4.23657e-06
-4.72192e-20
1.30222e-20
4.40914e-06
-4.99119e-20
1.43202e-20
4.58372e-06
-5.1515e-20
1.47733e-20
4.76023e-06
-5.5234e-20
1.51247e-20
4.93863e-06
-5.81389e-20
1.59843e-20
5.11888e-06
-6.13274e-20
1.56699e-20
5.30096e-06
-6.49707e-20
1.66259e-20
5.48486e-06
-6.90473e-20
1.83075e-20
5.67059e-06
-7.31396e-20
1.91958e-20
5.85816e-06
-7.61857e-20
1.94513e-20
6.04759e-06
-7.95658e-20
1.98686e-20
6.23893e-06
-8.42963e-20
2.10051e-20
6.4322e-06
-8.84699e-20
2.18659e-20
6.62746e-06
-9.25014e-20
2.1694e-20
6.82476e-06
-9.62817e-20
2.25973e-20
7.02415e-06
-1.00141e-19
2.30212e-20
7.22569e-06
-1.04126e-19
2.32963e-20
7.42946e-06
-1.07098e-19
2.47169e-20
7.6355e-06
-1.08577e-19
2.40084e-20
7.8439e-06
-1.09973e-19
2.30184e-20
8.05471e-06
-1.12534e-19
2.24379e-20
8.26802e-06
-1.14146e-19
1.93918e-20
8.48389e-06
-1.17453e-19
1.81307e-20
8.7024e-06
-1.19769e-19
1.55351e-20
8.92362e-06
-1.23254e-19
1.64433e-20
9.14763e-06
-1.25395e-19
1.17434e-20
9.3745e-06
-1.31506e-19
1.06903e-20
9.60431e-06
-1.34274e-19
1.06447e-20
9.83714e-06
-1.38883e-19
7.43904e-21
1.00731e-05
-1.4083e-19
7.43231e-21
1.03122e-05
-1.42827e-19
5.37891e-21
1.05545e-05
-1.45536e-19
3.98344e-21
1.08002e-05
-1.4931e-19
1.71519e-21
1.10493e-05
-1.52583e-19
-1.10666e-21
1.13019e-05
-1.56032e-19
-2.62482e-21
1.15581e-05
-1.58889e-19
-3.15049e-21
1.18179e-05
-1.62299e-19
-5.84668e-21
1.20815e-05
-1.64433e-19
-8.66528e-21
1.23488e-05
-1.67012e-19
-1.08063e-20
1.26201e-05
-1.73626e-19
-1.08926e-20
1.28954e-05
-1.79646e-19
-9.61517e-21
1.31747e-05
-1.88034e-19
-9.76289e-21
1.34582e-05
-1.9498e-19
-9.53245e-21
1.3746e-05
-2.02621e-19
-9.50009e-21
1.4038e-05
-2.098e-19
-7.93011e-21
1.43345e-05
-2.20381e-19
-8.29566e-21
1.46355e-05
-2.28382e-19
-7.29441e-21
1.49411e-05
-2.31205e-19
-9.91835e-21
1.52514e-05
-2.40663e-19
-5.88396e-21
1.55665e-05
-2.43843e-19
-3.5652e-21
1.58864e-05
-2.46936e-19
-6.66388e-21
1.62113e-05
-2.53601e-19
-5.37238e-21
1.65412e-05
-2.59898e-19
-8.95845e-21
1.68763e-05
-2.64424e-19
-1.2545e-20
1.72167e-05
-2.69505e-19
-1.28983e-20
1.75624e-05
-2.73833e-19
-1.85827e-20
1.79135e-05
-2.81305e-19
-2.46648e-20
1.82702e-05
-2.87645e-19
-2.94278e-20
1.86325e-05
-2.90964e-19
-3.35951e-20
1.90006e-05
-3.00207e-19
-3.7904e-20
1.93746e-05
-3.02835e-19
-3.62209e-20
1.97545e-05
-3.0624e-19
-3.72441e-20
2.01405e-05
-3.02788e-19
-3.56582e-20
2.05327e-05
-3.08319e-19
-3.94914e-20
2.09311e-05
-3.1792e-19
-3.99535e-20
2.1336e-05
-3.14701e-19
-3.96805e-20
2.17473e-05
-3.19015e-19
-4.06234e-20
2.21653e-05
-3.20648e-19
-4.30775e-20
2.25901e-05
-3.22702e-19
-5.1173e-20
2.30217e-05
-3.27749e-19
-5.10191e-20
2.34603e-05
-3.31832e-19
-5.61674e-20
2.3906e-05
-3.30229e-19
-6.83794e-20
2.43589e-05
-3.34942e-19
-7.5143e-20
2.48191e-05
-3.40083e-19
-8.20523e-20
2.52869e-05
-3.44903e-19
-8.57938e-20
2.57623e-05
-3.52206e-19
-9.19235e-20
2.62454e-05
-3.59141e-19
-1.00378e-19
2.67364e-05
-3.65036e-19
-1.01034e-19
2.72354e-05
-3.74215e-19
-1.01492e-19
2.77425e-05
-3.75149e-19
-1.12362e-19
2.82579e-05
-3.80446e-19
-1.20799e-19
2.87818e-05
-3.85005e-19
-1.28912e-19
2.93142e-05
-3.88763e-19
-1.34119e-19
2.98553e-05
-3.91739e-19
-1.3256e-19
3.04053e-05
-4.05202e-19
-1.31236e-19
3.09643e-05
-4.11292e-19
-1.31493e-19
3.15325e-05
-4.21241e-19
-1.32323e-19
3.211e-05
-4.30072e-19
-1.40023e-19
3.2697e-05
-4.37744e-19
-1.44632e-19
3.32936e-05
-4.48457e-19
-1.41579e-19
3.39e-05
-4.55718e-19
-1.49524e-19
3.45164e-05
-4.57168e-19
-1.55433e-19
3.51429e-05
-4.62663e-19
-1.63654e-19
3.57797e-05
-4.69779e-19
-1.65643e-19
3.64269e-05
-4.74477e-19
-1.74918e-19
3.70849e-05
-4.78572e-19
-1.86796e-19
3.77536e-05
-4.87598e-19
-1.93441e-19
3.84334e-05
-4.94298e-19
-1.96321e-19
3.91243e-05
-4.99205e-19
-1.93584e-19
3.98266e-05
-4.94e-19
-2.04363e-19
4.05405e-05
-5.06725e-19
-2.07234e-19
4.12662e-05
-5.09857e-19
-2.18934e-19
4.20038e-05
-5.11288e-19
-2.35312e-19
4.27536e-05
-5.25635e-19
-2.46653e-19
4.35157e-05
-5.32448e-19
-2.59575e-19
4.42903e-05
-5.39027e-19
-2.68507e-19
4.50778e-05
-5.44398e-19
-2.80536e-19
4.58782e-05
-5.57481e-19
-2.93192e-19
4.66918e-05
-5.61369e-19
-3.03481e-19
4.75188e-05
-5.63828e-19
-3.15324e-19
4.83595e-05
-5.72601e-19
-3.17827e-19
4.9214e-05
-5.74183e-19
-3.29336e-19
5.00826e-05
-5.7825e-19
-3.33753e-19
5.09655e-05
-5.81398e-19
-3.44942e-19
5.1863e-05
-5.94553e-19
-3.57603e-19
5.27753e-05
-5.99549e-19
-3.60702e-19
5.37026e-05
-6.02554e-19
-3.77231e-19
5.46452e-05
-6.13858e-19
-3.85883e-19
5.56033e-05
-6.09572e-19
-3.81761e-19
5.65772e-05
-6.17151e-19
-3.89366e-19
5.75672e-05
-6.38367e-19
-3.84718e-19
5.85735e-05
-6.38258e-19
-3.76389e-19
5.95964e-05
-6.50647e-19
-3.82096e-19
6.06361e-05
-6.73019e-19
-3.83255e-19
6.16929e-05
-6.52935e-19
-3.82555e-19
6.27672e-05
-6.58877e-19
-3.97606e-19
6.38592e-05
-6.48261e-19
-4.05435e-19
6.49691e-05
-6.46306e-19
-4.15931e-19
6.60974e-05
-6.4959e-19
-4.0359e-19
6.72442e-05
-6.53155e-19
-4.06195e-19
6.84099e-05
-6.53891e-19
-4.23191e-19
6.95948e-05
-6.67307e-19
-4.31154e-19
7.07992e-05
-6.87258e-19
-4.43579e-19
7.20234e-05
-7.08353e-19
-4.50628e-19
7.32678e-05
-7.14261e-19
-4.64725e-19
7.45326e-05
-7.07752e-19
-4.70938e-19
7.58183e-05
-7.2691e-19
-4.70364e-19
7.71251e-05
-7.16583e-19
-4.8782e-19
7.84534e-05
-7.09509e-19
-5.20966e-19
7.98035e-05
-7.15022e-19
-5.21917e-19
8.11758e-05
-7.20423e-19
-5.24022e-19
8.25707e-05
-7.24698e-19
-5.38634e-19
8.39885e-05
-7.18489e-19
-5.35644e-19
8.54296e-05
-7.26311e-19
-5.35944e-19
8.68944e-05
-7.33541e-19
-5.53352e-19
8.83832e-05
-7.29483e-19
-5.57171e-19
8.98965e-05
-7.66419e-19
-5.6768e-19
9.14346e-05
-7.87184e-19
-5.86177e-19
9.2998e-05
-8.0421e-19
-5.9756e-19
9.45871e-05
-8.03836e-19
-5.87408e-19
9.62022e-05
-8.25601e-19
-6.0304e-19
9.78438e-05
-8.36369e-19
-5.93187e-19
9.95123e-05
-8.33032e-19
-5.96422e-19
0.000101208
-8.26691e-19
-6.13601e-19
0.000102932
-8.43716e-19
-6.21485e-19
0.000104684
-8.42208e-19
-6.28593e-19
0.000106464
-8.4732e-19
-6.45459e-19
0.000108274
-8.59288e-19
-6.30617e-19
0.000110114
-8.41528e-19
-6.27551e-19
0.000111983
-8.39184e-19
-6.3132e-19
0.000113883
-8.50179e-19
-6.38388e-19
0.000115814
-8.33911e-19
-6.23754e-19
0.000117777
-8.06372e-19
-6.40006e-19
0.000119772
-7.75603e-19
-6.4018e-19
0.0001218
-7.77252e-19
-6.37476e-19
0.00012386
-7.83676e-19
-6.56927e-19
0.000125954
-7.91735e-19
-6.5008e-19
0.000128083
-8.15406e-19
-6.458e-19
0.000130246
-8.33885e-19
-6.56227e-19
0.000132445
-8.42333e-19
-6.67324e-19
0.000134679
-8.31226e-19
-6.79331e-19
0.00013695
-8.45025e-19
-6.81018e-19
0.000139258
-8.37483e-19
-6.98727e-19
0.000141603
-8.61081e-19
-6.7244e-19
0.000143987
-8.87711e-19
-7.07244e-19
0.00014641
-8.93869e-19
-7.23542e-19
0.000148872
-8.76841e-19
-7.25311e-19
0.000151374
-8.69795e-19
-7.15487e-19
0.000153917
-8.68261e-19
-7.13182e-19
0.000156501
-8.99049e-19
-7.25675e-19
0.000159127
-9.10453e-19
-7.3966e-19
0.000161796
-9.18925e-19
-7.21971e-19
0.000164508
-8.94309e-19
-7.38715e-19
0.000167264
-8.91888e-19
-7.49081e-19
0.000170065
-8.95323e-19
-7.47827e-19
0.000172911
-9.04498e-19
-7.66795e-19
0.000175804
-8.76823e-19
-7.68793e-19
0.000178743
-8.73567e-19
-7.91598e-19
0.00018173
-9.10466e-19
-7.841e-19
0.000184766
-8.97503e-19
-7.84967e-19
0.00018785
-9.00252e-19
-7.98354e-19
0.000190984
-9.41556e-19
-7.95259e-19
0.00019417
-9.18606e-19
-8.15874e-19
0.000197406
-9.30916e-19
-7.89708e-19
0.000200695
-9.49555e-19
-8.23435e-19
0.000204037
-9.37801e-19
-8.16876e-19
0.000207433
-9.38852e-19
-8.24029e-19
0.000210883
-9.50426e-19
-8.46624e-19
0.000214389
-9.23225e-19
-8.368e-19