/*--------------------------------*- C++ -*----------------------------------*\
| =========                 |                                                 |
| \\      /  F ield         | OpenFOAM: The Open Source CFD Toolbox           |
|  \\    /   O peration     | Version:  2106                                  |
|   \\  /    A nd           | Website:  www.openfoam.com                      |
|    \\/     M anipulation  |                                                 |
\*---------------------------------------------------------------------------*/
FoamFile
{
    version     2.0;
    format      ascii;
    arch        "LSB;label=32;scalar=64";
    class       volSymmTensorField;
    location    "1000";
    object      turbulenceProperties:R;
}
// * * * * * * * * * * * * * * * * * * * * * * * * * * * * * * * * * * * * * //

dimensions      [0 2 -2 0 0 0 0];

internalField   nonuniform List<symmTensor> 
2560
(
(5.9248e-07 -4.20676e-11 -6.09093e-14 5.9248e-07 -2.14444e-26 5.9248e-07)
(5.9248e-07 -4.20676e-11 -6.09093e-14 5.9248e-07 -3.71398e-27 5.9248e-07)
(8.70558e-08 -3.55022e-11 -1.5502e-13 8.70558e-08 -2.54643e-26 8.70558e-08)
(8.70558e-08 -3.55022e-11 -1.5502e-13 8.70558e-08 -8.6851e-27 8.70558e-08)
(2.61183e-08 -3.13816e-11 -1.88234e-13 2.61183e-08 -1.05318e-26 2.61183e-08)
(2.61183e-08 -3.13816e-11 -1.88234e-13 2.61183e-08 -4.09838e-28 2.61183e-08)
(1.15694e-08 -2.94228e-11 -1.78995e-13 1.15694e-08 -1.00198e-26 1.15694e-08)
(1.15694e-08 -2.94228e-11 -1.78995e-13 1.15694e-08 -3.62566e-28 1.15694e-08)
(6.96531e-09 -3.11743e-11 -1.9235e-13 6.96531e-09 -1.20935e-26 6.96531e-09)
(6.96531e-09 -3.11743e-11 -1.9235e-13 6.96531e-09 -3.66961e-28 6.96531e-09)
(5.85847e-09 -4.11564e-11 -2.57555e-13 5.85847e-09 -1.75239e-26 5.85847e-09)
(5.85847e-09 -4.11564e-11 -2.57555e-13 5.85847e-09 -4.57615e-28 5.85847e-09)
(6.694e-09 -6.83519e-11 -4.33834e-13 6.694e-09 -3.00075e-26 6.694e-09)
(6.694e-09 -6.83519e-11 -4.33834e-13 6.694e-09 -7.13099e-28 6.694e-09)
(9.11986e-09 -1.28121e-10 -8.24772e-13 9.11986e-09 -5.77278e-26 9.11986e-09)
(9.11986e-09 -1.28121e-10 -8.24772e-13 9.11986e-09 -1.25063e-27 9.11986e-09)
(1.31816e-08 -2.44524e-10 -1.59654e-12 1.31816e-08 -1.129e-25 1.31816e-08)
(1.31816e-08 -2.44524e-10 -1.59654e-12 1.31816e-08 -2.19757e-27 1.31816e-08)
(1.90951e-08 -4.53047e-10 -3.00016e-12 1.90951e-08 -2.14451e-25 1.90951e-08)
(1.90951e-08 -4.53047e-10 -3.00016e-12 1.90951e-08 -3.70638e-27 1.90951e-08)
(2.71696e-08 -8.03705e-10 -5.39812e-12 2.71696e-08 -3.90226e-25 2.71696e-08)
(2.71696e-08 -8.03705e-10 -5.39812e-12 2.71696e-08 -5.92484e-27 2.71696e-08)
(3.77787e-08 -1.36452e-09 -9.29551e-12 3.77787e-08 -6.79781e-25 3.77787e-08)
(3.77787e-08 -1.36452e-09 -9.29551e-12 3.77787e-08 -8.91269e-27 3.77787e-08)
(5.13486e-08 -2.22535e-09 -1.53758e-11 5.13486e-08 -1.13787e-24 5.13486e-08)
(5.13486e-08 -2.22535e-09 -1.53758e-11 5.13486e-08 -1.24878e-26 5.13486e-08)
(6.83523e-08 -3.50192e-09 -2.45411e-11 6.83523e-08 -1.83878e-24 6.83523e-08)
(6.83523e-08 -3.50192e-09 -2.45411e-11 6.83523e-08 -1.59206e-26 6.83523e-08)
(8.93081e-08 -5.34017e-09 -3.7957e-11 8.93081e-08 -2.88033e-24 8.93081e-08)
(8.93081e-08 -5.34017e-09 -3.7957e-11 8.93081e-08 -1.92714e-26 8.93081e-08)
(1.14778e-07 -7.92058e-09 -5.71011e-11 1.14778e-07 -4.3904e-24 1.14778e-07)
(1.14778e-07 -7.92058e-09 -5.71011e-11 1.14778e-07 -1.99877e-26 1.14778e-07)
(1.45367e-07 -1.14625e-08 -8.38143e-11 1.45367e-07 -6.53206e-24 1.45367e-07)
(1.45367e-07 -1.14625e-08 -8.38143e-11 1.45367e-07 -1.45952e-26 1.45367e-07)
(1.81723e-07 -1.62283e-08 -1.20355e-10 1.81723e-07 -9.50847e-24 1.81723e-07)
(1.81723e-07 -1.62283e-08 -1.20355e-10 1.81723e-07 -2.89848e-27 1.81723e-07)
(2.24533e-07 -2.25269e-08 -1.69451e-10 2.24533e-07 -1.35793e-23 2.24533e-07)
(2.24533e-07 -2.25269e-08 -1.69451e-10 2.24533e-07 2.28524e-26 2.24533e-07)
(2.74526e-07 -3.07169e-08 -2.34355e-10 2.74526e-07 -1.90605e-23 2.74526e-07)
(2.74526e-07 -3.07169e-08 -2.34355e-10 2.74526e-07 6.75249e-26 2.74526e-07)
(3.32464e-07 -4.1209e-08 -3.18891e-10 3.32464e-07 -2.63304e-23 3.32464e-07)
(3.32464e-07 -4.1209e-08 -3.18891e-10 3.32464e-07 1.34322e-25 3.32464e-07)
(3.99146e-07 -5.44664e-08 -4.27499e-10 3.99146e-07 -3.5851e-23 3.99146e-07)
(3.99146e-07 -5.44664e-08 -4.27499e-10 3.99146e-07 2.39102e-25 3.99146e-07)
(4.75396e-07 -7.10055e-08 -5.65266e-10 4.75396e-07 -4.81692e-23 4.75396e-07)
(4.75396e-07 -7.10055e-08 -5.65266e-10 4.75396e-07 4.35927e-25 4.75396e-07)
(5.62063e-07 -9.13929e-08 -7.37956e-10 5.62063e-07 -6.39421e-23 5.62063e-07)
(5.62063e-07 -9.13929e-08 -7.37956e-10 5.62063e-07 7.30415e-25 5.62063e-07)
(6.60013e-07 -1.16243e-07 -9.52011e-10 6.60013e-07 -8.38759e-23 6.60013e-07)
(6.60013e-07 -1.16243e-07 -9.52011e-10 6.60013e-07 1.10454e-24 6.60013e-07)
(7.70119e-07 -1.46212e-07 -1.21455e-09 7.70119e-07 -1.08862e-22 7.70119e-07)
(7.70119e-07 -1.46212e-07 -1.21455e-09 7.70119e-07 1.58934e-24 7.70119e-07)
(8.93257e-07 -1.81991e-07 -1.53335e-09 8.93257e-07 -1.39875e-22 8.93257e-07)
(8.93257e-07 -1.81991e-07 -1.53335e-09 8.93257e-07 2.2547e-24 8.93257e-07)
(1.03029e-06 -2.24297e-07 -1.91678e-09 1.03029e-06 -1.78007e-22 1.03029e-06)
(1.03029e-06 -2.24297e-07 -1.91678e-09 1.03029e-06 3.19744e-24 1.03029e-06)
(1.18207e-06 -2.73862e-07 -2.37377e-09 1.18207e-06 -2.24524e-22 1.18207e-06)
(1.18207e-06 -2.73862e-07 -2.37377e-09 1.18207e-06 4.52061e-24 1.18207e-06)
(1.34941e-06 -3.3142e-07 -2.91371e-09 1.34941e-06 -2.80788e-22 1.34941e-06)
(1.34941e-06 -3.3142e-07 -2.91371e-09 1.34941e-06 6.3179e-24 1.34941e-06)
(1.53307e-06 -3.97698e-07 -3.54634e-09 1.53307e-06 -3.48393e-22 1.53307e-06)
(1.53307e-06 -3.97698e-07 -3.54634e-09 1.53307e-06 8.51414e-24 1.53307e-06)
(1.73378e-06 -4.73396e-07 -4.28166e-09 1.73378e-06 -4.28891e-22 1.73378e-06)
(1.73378e-06 -4.73396e-07 -4.28166e-09 1.73378e-06 1.09712e-23 1.73378e-06)
(1.95219e-06 -5.59177e-07 -5.12976e-09 1.95219e-06 -5.24117e-22 1.95219e-06)
(1.95219e-06 -5.59177e-07 -5.12976e-09 1.95219e-06 1.40122e-23 1.95219e-06)
(2.18887e-06 -6.55651e-07 -6.10074e-09 2.18887e-06 -6.36067e-22 2.18887e-06)
(2.18887e-06 -6.55651e-07 -6.10074e-09 2.18887e-06 1.8314e-23 2.18887e-06)
(2.44429e-06 -7.63364e-07 -7.20448e-09 2.44429e-06 -7.66922e-22 2.44429e-06)
(2.44429e-06 -7.63364e-07 -7.20448e-09 2.44429e-06 2.36277e-23 2.44429e-06)
(2.71885e-06 -8.8278e-07 -8.45056e-09 2.71885e-06 -9.18937e-22 2.71885e-06)
(2.71885e-06 -8.8278e-07 -8.45056e-09 2.71885e-06 2.98883e-23 2.71885e-06)
(3.0128e-06 -1.01428e-06 -9.84809e-09 3.0128e-06 -1.09433e-21 3.0128e-06)
(3.0128e-06 -1.01428e-06 -9.84809e-09 3.0128e-06 3.69576e-23 3.0128e-06)
(3.32629e-06 -1.15813e-06 -1.14055e-08 3.32629e-06 -1.29564e-21 3.32629e-06)
(3.32629e-06 -1.15813e-06 -1.14055e-08 3.32629e-06 4.54961e-23 3.32629e-06)
(3.65935e-06 -1.31451e-06 -1.31306e-08 3.65935e-06 -1.52559e-21 3.65935e-06)
(3.65935e-06 -1.31451e-06 -1.31306e-08 3.65935e-06 5.57987e-23 3.65935e-06)
(4.01187e-06 -1.48348e-06 -1.50302e-08 4.01187e-06 -1.78668e-21 4.01187e-06)
(4.01187e-06 -1.48348e-06 -1.50302e-08 4.01187e-06 6.70619e-23 4.01187e-06)
(4.38359e-06 -1.66498e-06 -1.71102e-08 4.38359e-06 -2.08142e-21 4.38359e-06)
(4.38359e-06 -1.66498e-06 -1.71102e-08 4.38359e-06 7.94164e-23 4.38359e-06)
(4.77414e-06 -1.85883e-06 -1.93754e-08 4.77414e-06 -2.41307e-21 4.77414e-06)
(4.77414e-06 -1.85883e-06 -1.93754e-08 4.77414e-06 9.63448e-23 4.77414e-06)
(5.18299e-06 -2.06475e-06 -2.18295e-08 5.18299e-06 -2.78494e-21 5.18299e-06)
(5.18299e-06 -2.06475e-06 -2.18295e-08 5.18299e-06 1.17119e-22 5.18299e-06)
(5.60949e-06 -2.28235e-06 -2.4475e-08 5.60949e-06 -3.19813e-21 5.60949e-06)
(5.60949e-06 -2.28235e-06 -2.4475e-08 5.60949e-06 2.53668e-23 5.60949e-06)
(6.05284e-06 -2.51111e-06 -2.73131e-08 6.05284e-06 -3.63587e-21 6.05284e-06)
(6.05284e-06 -2.51111e-06 -2.73131e-08 6.05284e-06 1.03614e-23 6.05284e-06)
(6.51213e-06 -2.75044e-06 -3.03439e-08 6.51213e-06 -3.02262e-21 6.51213e-06)
(6.51213e-06 -2.75044e-06 -3.03439e-08 6.51213e-06 8.56924e-24 6.51213e-06)
(6.98632e-06 -2.99963e-06 -3.35662e-08 6.98632e-06 -2.19224e-21 6.98632e-06)
(6.98632e-06 -2.99963e-06 -3.35662e-08 6.98632e-06 1.32022e-23 6.98632e-06)
(7.47427e-06 -3.25792e-06 -3.69777e-08 7.47427e-06 -2.45848e-21 7.47427e-06)
(7.47427e-06 -3.25792e-06 -3.69777e-08 7.47427e-06 1.53576e-23 7.47427e-06)
(7.97474e-06 -3.52444e-06 -4.05747e-08 7.97474e-06 -2.75583e-21 7.97474e-06)
(7.97474e-06 -3.52444e-06 -4.05747e-08 7.97474e-06 1.37199e-23 7.97474e-06)
(8.48639e-06 -3.79831e-06 -4.43528e-08 8.48639e-06 -3.06938e-21 8.48639e-06)
(8.48639e-06 -3.79831e-06 -4.43528e-08 8.48639e-06 1.78359e-23 8.48639e-06)
(9.00781e-06 -4.07854e-06 -4.8306e-08 9.00781e-06 -3.40844e-21 9.00781e-06)
(9.00781e-06 -4.07854e-06 -4.8306e-08 9.00781e-06 2.0535e-23 9.00781e-06)
(9.53753e-06 -4.36415e-06 -5.24279e-08 9.53753e-06 -3.78669e-21 9.53753e-06)
(9.53753e-06 -4.36415e-06 -5.24279e-08 9.53753e-06 1.57885e-23 9.53753e-06)
(1.0074e-05 -4.6541e-06 -5.67107e-08 1.0074e-05 -4.19268e-21 1.0074e-05)
(1.0074e-05 -4.6541e-06 -5.67107e-08 1.0074e-05 1.97163e-23 1.0074e-05)
(1.06157e-05 -4.94736e-06 -6.11462e-08 1.06157e-05 -4.6202e-21 1.06157e-05)
(1.06157e-05 -4.94736e-06 -6.11462e-08 1.06157e-05 2.30392e-23 1.06157e-05)
(1.11611e-05 -5.24287e-06 -6.57252e-08 1.11611e-05 -5.08854e-21 1.11611e-05)
(1.11611e-05 -5.24287e-06 -6.57252e-08 1.11611e-05 2.42209e-23 1.11611e-05)
(1.17085e-05 -5.53959e-06 -7.04379e-08 1.17085e-05 -5.59759e-21 1.17085e-05)
(1.17085e-05 -5.53959e-06 -7.04379e-08 1.17085e-05 3.35665e-23 1.17085e-05)
(1.22563e-05 -5.83647e-06 -7.52742e-08 1.22563e-05 -5.98179e-21 1.22563e-05)
(1.22563e-05 -5.83647e-06 -7.52742e-08 1.22563e-05 4.56248e-23 1.22563e-05)
(1.28031e-05 -6.1325e-06 -8.02234e-08 1.28031e-05 -6.08928e-21 1.28031e-05)
(1.28031e-05 -6.1325e-06 -8.02234e-08 1.28031e-05 5.44368e-23 1.28031e-05)
(1.33472e-05 -6.4267e-06 -8.52744e-08 1.33472e-05 -6.33388e-21 1.33472e-05)
(1.33472e-05 -6.4267e-06 -8.52744e-08 1.33472e-05 5.22003e-23 1.33472e-05)
(1.38871e-05 -6.71811e-06 -9.04161e-08 1.38871e-05 -6.8823e-21 1.38871e-05)
(1.38871e-05 -6.71811e-06 -9.04161e-08 1.38871e-05 4.59914e-23 1.38871e-05)
(1.44215e-05 -7.00583e-06 -9.5637e-08 1.44215e-05 -7.46402e-21 1.44215e-05)
(1.44215e-05 -7.00583e-06 -9.5637e-08 1.44215e-05 5.88611e-23 1.44215e-05)
(1.49489e-05 -7.289e-06 -1.00926e-07 1.49489e-05 -8.07835e-21 1.49489e-05)
(1.49489e-05 -7.289e-06 -1.00926e-07 1.49489e-05 7.39148e-23 1.49489e-05)
(1.54681e-05 -7.56681e-06 -1.06271e-07 1.54681e-05 -8.71091e-21 1.54681e-05)
(1.54681e-05 -7.56681e-06 -1.06271e-07 1.54681e-05 3.55324e-23 1.54681e-05)
(1.59777e-05 -7.83851e-06 -1.11661e-07 1.59777e-05 -9.39236e-21 1.59777e-05)
(1.59777e-05 -7.83851e-06 -1.11661e-07 1.59777e-05 1.3001e-23 1.59777e-05)
(1.64768e-05 -8.1034e-06 -1.17086e-07 1.64768e-05 -1.0111e-20 1.64768e-05)
(1.64768e-05 -8.1034e-06 -1.17086e-07 1.64768e-05 2.8591e-23 1.64768e-05)
(1.69641e-05 -8.36085e-06 -1.22534e-07 1.69641e-05 -1.08792e-20 1.69641e-05)
(1.69641e-05 -8.36085e-06 -1.22534e-07 1.69641e-05 2.5036e-23 1.69641e-05)
(1.74388e-05 -8.61031e-06 -1.27995e-07 1.74388e-05 -1.16874e-20 1.74388e-05)
(1.74388e-05 -8.61031e-06 -1.27995e-07 1.74388e-05 -6.19579e-24 1.74388e-05)
(1.79e-05 -8.85126e-06 -1.33459e-07 1.79e-05 -1.25041e-20 1.79e-05)
(1.79e-05 -8.85126e-06 -1.33459e-07 1.79e-05 -1.57577e-23 1.79e-05)
(1.8347e-05 -9.08328e-06 -1.38917e-07 1.8347e-05 -1.34167e-20 1.8347e-05)
(1.8347e-05 -9.08328e-06 -1.38917e-07 1.8347e-05 -1.06984e-23 1.8347e-05)
(1.87792e-05 -9.30598e-06 -1.44359e-07 1.87792e-05 -1.43751e-20 1.87792e-05)
(1.87792e-05 -9.30598e-06 -1.44359e-07 1.87792e-05 1.96672e-23 1.87792e-05)
(1.91959e-05 -9.51907e-06 -1.49777e-07 1.91959e-05 -1.53464e-20 1.91959e-05)
(1.91959e-05 -9.51907e-06 -1.49777e-07 1.91959e-05 4.17451e-23 1.91959e-05)
(1.95968e-05 -9.72231e-06 -1.55163e-07 1.95968e-05 -1.63586e-20 1.95968e-05)
(1.95968e-05 -9.72231e-06 -1.55163e-07 1.95968e-05 5.46761e-23 1.95968e-05)
(1.99816e-05 -9.91551e-06 -1.6051e-07 1.99816e-05 -1.73726e-20 1.99816e-05)
(1.99816e-05 -9.91551e-06 -1.6051e-07 1.99816e-05 6.32037e-23 1.99816e-05)
(2.035e-05 -1.00986e-05 -1.65812e-07 2.035e-05 -1.84216e-20 2.035e-05)
(2.035e-05 -1.00986e-05 -1.65812e-07 2.035e-05 8.22758e-23 2.035e-05)
(2.07019e-05 -1.02714e-05 -1.71063e-07 2.07019e-05 -1.95758e-20 2.07019e-05)
(2.07019e-05 -1.02714e-05 -1.71063e-07 2.07019e-05 1.04685e-22 2.07019e-05)
(2.10373e-05 -1.0434e-05 -1.76257e-07 2.10373e-05 -2.06808e-20 2.10373e-05)
(2.10373e-05 -1.0434e-05 -1.76257e-07 2.10373e-05 1.39109e-22 2.10373e-05)
(2.13563e-05 -1.05864e-05 -1.8139e-07 2.13563e-05 -2.18081e-20 2.13563e-05)
(2.13563e-05 -1.05864e-05 -1.8139e-07 2.13563e-05 2.27597e-22 2.13563e-05)
(2.16591e-05 -1.07288e-05 -1.8646e-07 2.16591e-05 -2.30933e-20 2.16591e-05)
(2.16591e-05 -1.07288e-05 -1.8646e-07 2.16591e-05 2.46854e-22 2.16591e-05)
(2.19459e-05 -1.08612e-05 -1.91462e-07 2.19459e-05 -2.44758e-20 2.19459e-05)
(2.19459e-05 -1.08612e-05 -1.91462e-07 2.19459e-05 1.75032e-22 2.19459e-05)
(2.22169e-05 -1.09839e-05 -1.96394e-07 2.22169e-05 -2.59723e-20 2.22169e-05)
(2.22169e-05 -1.09839e-05 -1.96394e-07 2.22169e-05 2.81114e-22 2.22169e-05)
(2.24728e-05 -1.10971e-05 -2.01257e-07 2.24728e-05 -2.73177e-20 2.24728e-05)
(2.24728e-05 -1.10971e-05 -2.01257e-07 2.24728e-05 5.0407e-22 2.24728e-05)
(2.27139e-05 -1.1201e-05 -2.06047e-07 2.27139e-05 -2.87704e-20 2.27139e-05)
(2.27139e-05 -1.1201e-05 -2.06047e-07 2.27139e-05 4.80106e-22 2.27139e-05)
(2.29407e-05 -1.12959e-05 -2.10767e-07 2.29407e-05 -3.05051e-20 2.29407e-05)
(2.29407e-05 -1.12959e-05 -2.10767e-07 2.29407e-05 2.84586e-22 2.29407e-05)
(2.31539e-05 -1.13823e-05 -2.15416e-07 2.31539e-05 -3.21641e-20 2.31539e-05)
(2.31539e-05 -1.13823e-05 -2.15416e-07 2.31539e-05 3.50257e-22 2.31539e-05)
(2.33541e-05 -1.14603e-05 -2.19996e-07 2.33541e-05 -3.37797e-20 2.33541e-05)
(2.33541e-05 -1.14603e-05 -2.19996e-07 2.33541e-05 5.69657e-22 2.33541e-05)
(2.35421e-05 -1.15304e-05 -2.24509e-07 2.35421e-05 -3.5492e-20 2.35421e-05)
(2.35421e-05 -1.15304e-05 -2.24509e-07 2.35421e-05 7.24364e-22 2.35421e-05)
(2.37185e-05 -1.15931e-05 -2.28957e-07 2.37185e-05 -3.7201e-20 2.37185e-05)
(2.37185e-05 -1.15931e-05 -2.28957e-07 2.37185e-05 9.12648e-22 2.37185e-05)
(2.38841e-05 -1.16486e-05 -2.33344e-07 2.38841e-05 -3.92256e-20 2.38841e-05)
(2.38841e-05 -1.16486e-05 -2.33344e-07 2.38841e-05 8.98148e-22 2.38841e-05)
(2.40398e-05 -1.16974e-05 -2.37674e-07 2.40398e-05 -4.15026e-20 2.40398e-05)
(2.40398e-05 -1.16974e-05 -2.37674e-07 2.40398e-05 8.52349e-22 2.40398e-05)
(2.41864e-05 -1.17399e-05 -2.41951e-07 2.41864e-05 -4.4122e-20 2.41864e-05)
(2.41864e-05 -1.17399e-05 -2.41951e-07 2.41864e-05 1.07002e-21 2.41864e-05)
(2.43247e-05 -1.17766e-05 -2.46179e-07 2.43247e-05 -4.63478e-20 2.43247e-05)
(2.43247e-05 -1.17766e-05 -2.46179e-07 2.43247e-05 1.19234e-21 2.43247e-05)
(2.44556e-05 -1.1808e-05 -2.50365e-07 2.44556e-05 -4.87387e-20 2.44556e-05)
(2.44556e-05 -1.1808e-05 -2.50365e-07 2.44556e-05 1.23217e-21 2.44556e-05)
(2.458e-05 -1.18344e-05 -2.54513e-07 2.458e-05 -5.12192e-20 2.458e-05)
(2.458e-05 -1.18344e-05 -2.54513e-07 2.458e-05 1.59943e-21 2.458e-05)
(2.46987e-05 -1.18562e-05 -2.5863e-07 2.46987e-05 -5.35591e-20 2.46987e-05)
(2.46987e-05 -1.18562e-05 -2.5863e-07 2.46987e-05 2.01947e-21 2.46987e-05)
(2.48127e-05 -1.1874e-05 -2.62722e-07 2.48127e-05 -5.60232e-20 2.48127e-05)
(2.48127e-05 -1.1874e-05 -2.62722e-07 2.48127e-05 2.12071e-21 2.48127e-05)
(2.49227e-05 -1.18881e-05 -2.66795e-07 2.49227e-05 -5.87633e-20 2.49227e-05)
(2.49227e-05 -1.18881e-05 -2.66795e-07 2.49227e-05 1.88029e-21 2.49227e-05)
(2.50297e-05 -1.18989e-05 -2.70857e-07 2.50297e-05 -6.14577e-20 2.50297e-05)
(2.50297e-05 -1.18989e-05 -2.70857e-07 2.50297e-05 2.01101e-21 2.50297e-05)
(2.51345e-05 -1.1907e-05 -2.74914e-07 2.51345e-05 -6.41454e-20 2.51345e-05)
(2.51345e-05 -1.1907e-05 -2.74914e-07 2.51345e-05 2.89748e-21 2.51345e-05)
(2.5238e-05 -1.19125e-05 -2.78975e-07 2.5238e-05 -6.69552e-20 2.5238e-05)
(2.5238e-05 -1.19125e-05 -2.78975e-07 2.5238e-05 3.47014e-21 2.5238e-05)
(2.5341e-05 -1.1916e-05 -2.83045e-07 2.5341e-05 -6.97867e-20 2.5341e-05)
(2.5341e-05 -1.1916e-05 -2.83045e-07 2.5341e-05 3.40776e-21 2.5341e-05)
(2.54442e-05 -1.19178e-05 -2.87133e-07 2.54442e-05 -7.27158e-20 2.54442e-05)
(2.54442e-05 -1.19178e-05 -2.87133e-07 2.54442e-05 3.43774e-21 2.54442e-05)
(2.55485e-05 -1.19182e-05 -2.91246e-07 2.55485e-05 -7.59736e-20 2.55485e-05)
(2.55485e-05 -1.19182e-05 -2.91246e-07 2.55485e-05 3.83088e-21 2.55485e-05)
(2.56547e-05 -1.19176e-05 -2.95392e-07 2.56547e-05 -7.98513e-20 2.56547e-05)
(2.56547e-05 -1.19176e-05 -2.95392e-07 2.56547e-05 4.09623e-21 2.56547e-05)
(2.57634e-05 -1.19162e-05 -2.99578e-07 2.57634e-05 -8.37955e-20 2.57634e-05)
(2.57634e-05 -1.19162e-05 -2.99578e-07 2.57634e-05 4.39295e-21 2.57634e-05)
(2.58753e-05 -1.19145e-05 -3.03811e-07 2.58753e-05 -8.70737e-20 2.58753e-05)
(2.58753e-05 -1.19145e-05 -3.03811e-07 2.58753e-05 5.07252e-21 2.58753e-05)
(2.59912e-05 -1.19125e-05 -3.08099e-07 2.59912e-05 -9.08679e-20 2.59912e-05)
(2.59912e-05 -1.19125e-05 -3.08099e-07 2.59912e-05 5.63125e-21 2.59912e-05)
(2.61117e-05 -1.19107e-05 -3.12449e-07 2.61117e-05 -9.48708e-20 2.61117e-05)
(2.61117e-05 -1.19107e-05 -3.12449e-07 2.61117e-05 6.44916e-21 2.61117e-05)
(2.62374e-05 -1.19091e-05 -3.16867e-07 2.62374e-05 -9.82064e-20 2.62374e-05)
(2.62374e-05 -1.19091e-05 -3.16867e-07 2.62374e-05 7.20629e-21 2.62374e-05)
(2.63688e-05 -1.19081e-05 -3.2136e-07 2.63688e-05 -1.01427e-19 2.63688e-05)
(2.63688e-05 -1.19081e-05 -3.2136e-07 2.63688e-05 6.9946e-21 2.63688e-05)
(2.65065e-05 -1.19078e-05 -3.25934e-07 2.65065e-05 -1.07041e-19 2.65065e-05)
(2.65065e-05 -1.19078e-05 -3.25934e-07 2.65065e-05 8.03857e-21 2.65065e-05)
(2.66511e-05 -1.19083e-05 -3.30595e-07 2.66511e-05 -1.12831e-19 2.66511e-05)
(2.66511e-05 -1.19083e-05 -3.30595e-07 2.66511e-05 1.01261e-20 2.66511e-05)
(2.68029e-05 -1.19098e-05 -3.35349e-07 2.68029e-05 -1.16855e-19 2.68029e-05)
(2.68029e-05 -1.19098e-05 -3.35349e-07 2.68029e-05 1.15632e-20 2.68029e-05)
(2.69625e-05 -1.19125e-05 -3.40201e-07 2.69625e-05 -1.20318e-19 2.69625e-05)
(2.69625e-05 -1.19125e-05 -3.40201e-07 2.69625e-05 1.23779e-20 2.69625e-05)
(2.71302e-05 -1.19163e-05 -3.45155e-07 2.71302e-05 -1.23709e-19 2.71302e-05)
(2.71302e-05 -1.19163e-05 -3.45155e-07 2.71302e-05 1.25356e-20 2.71302e-05)
(2.73064e-05 -1.19214e-05 -3.50215e-07 2.73064e-05 -1.28742e-19 2.73064e-05)
(2.73064e-05 -1.19214e-05 -3.50215e-07 2.73064e-05 1.36802e-20 2.73064e-05)
(2.74914e-05 -1.19278e-05 -3.55385e-07 2.74914e-05 -1.3322e-19 2.74914e-05)
(2.74914e-05 -1.19278e-05 -3.55385e-07 2.74914e-05 1.52678e-20 2.74914e-05)
(2.76856e-05 -1.19354e-05 -3.60666e-07 2.76856e-05 -1.37107e-19 2.76856e-05)
(2.76856e-05 -1.19354e-05 -3.60666e-07 2.76856e-05 1.67124e-20 2.76856e-05)
(2.7889e-05 -1.19444e-05 -3.66061e-07 2.7889e-05 -1.42056e-19 2.7889e-05)
(2.7889e-05 -1.19444e-05 -3.66061e-07 2.7889e-05 1.89573e-20 2.7889e-05)
(2.81021e-05 -1.19546e-05 -3.7157e-07 2.81021e-05 -1.48814e-19 2.81021e-05)
(2.81021e-05 -1.19546e-05 -3.7157e-07 2.81021e-05 2.10339e-20 2.81021e-05)
(2.83249e-05 -1.19659e-05 -3.77193e-07 2.83249e-05 -1.53151e-19 2.83249e-05)
(2.83249e-05 -1.19659e-05 -3.77193e-07 2.83249e-05 2.28965e-20 2.83249e-05)
(2.85576e-05 -1.19783e-05 -3.82929e-07 2.85576e-05 -1.53406e-19 2.85576e-05)
(2.85576e-05 -1.19783e-05 -3.82929e-07 2.85576e-05 2.45873e-20 2.85576e-05)
(2.88002e-05 -1.19916e-05 -3.88774e-07 2.88002e-05 -1.56049e-19 2.88002e-05)
(2.88002e-05 -1.19916e-05 -3.88774e-07 2.88002e-05 2.6641e-20 2.88002e-05)
(2.90529e-05 -1.20056e-05 -3.94725e-07 2.90529e-05 -1.6072e-19 2.90529e-05)
(2.90529e-05 -1.20056e-05 -3.94725e-07 2.90529e-05 2.94997e-20 2.90529e-05)
(2.93157e-05 -1.20201e-05 -4.00775e-07 2.93157e-05 -1.62737e-19 2.93157e-05)
(2.93157e-05 -1.20201e-05 -4.00775e-07 2.93157e-05 3.2594e-20 2.93157e-05)
(2.95884e-05 -1.20349e-05 -4.06917e-07 2.95884e-05 -1.63248e-19 2.95884e-05)
(2.95884e-05 -1.20349e-05 -4.06917e-07 2.95884e-05 3.29605e-20 2.95884e-05)
(2.98712e-05 -1.20497e-05 -4.13141e-07 2.98712e-05 -1.67445e-19 2.98712e-05)
(2.98712e-05 -1.20497e-05 -4.13141e-07 2.98712e-05 3.19479e-20 2.98712e-05)
(3.01638e-05 -1.20641e-05 -4.19435e-07 3.01638e-05 -1.70858e-19 3.01638e-05)
(3.01638e-05 -1.20641e-05 -4.19435e-07 3.01638e-05 5.89759e-20 3.01638e-05)
(3.04661e-05 -1.20777e-05 -4.25784e-07 3.04661e-05 -1.67782e-19 3.04661e-05)
(3.04661e-05 -1.20777e-05 -4.25784e-07 3.04661e-05 1.3588e-19 3.04661e-05)
(3.07779e-05 -1.20901e-05 -4.32171e-07 3.07779e-05 -1.58726e-19 3.07779e-05)
(3.07779e-05 -1.20901e-05 -4.32171e-07 3.07779e-05 1.49107e-19 3.07779e-05)
(3.10991e-05 -1.21007e-05 -4.38573e-07 3.10991e-05 -1.51961e-19 3.10991e-05)
(3.10991e-05 -1.21007e-05 -4.38573e-07 3.10991e-05 1.62164e-19 3.10991e-05)
(3.14294e-05 -1.2109e-05 -4.44966e-07 3.14294e-05 -1.49195e-19 3.14294e-05)
(3.14294e-05 -1.2109e-05 -4.44966e-07 3.14294e-05 1.75071e-19 3.14294e-05)
(3.17683e-05 -1.21144e-05 -4.51322e-07 3.17683e-05 -1.39616e-19 3.17683e-05)
(3.17683e-05 -1.21144e-05 -4.51322e-07 3.17683e-05 1.90562e-19 3.17683e-05)
(3.21157e-05 -1.2116e-05 -4.57606e-07 3.21157e-05 -1.22503e-19 3.21157e-05)
(3.21157e-05 -1.2116e-05 -4.57606e-07 3.21157e-05 2.08674e-19 3.21157e-05)
(3.24711e-05 -1.21132e-05 -4.63779e-07 3.24711e-05 -1.03546e-19 3.24711e-05)
(3.24711e-05 -1.21132e-05 -4.63779e-07 3.24711e-05 2.28332e-19 3.24711e-05)
(3.2834e-05 -1.21049e-05 -4.69796e-07 3.2834e-05 -8.57598e-20 3.2834e-05)
(3.2834e-05 -1.21049e-05 -4.69796e-07 3.2834e-05 2.49194e-19 3.2834e-05)
(3.3204e-05 -1.20902e-05 -4.75606e-07 3.3204e-05 -5.61373e-20 3.3204e-05)
(3.3204e-05 -1.20902e-05 -4.75606e-07 3.3204e-05 2.72494e-19 3.3204e-05)
(3.35806e-05 -1.2068e-05 -4.8115e-07 3.35806e-05 -5.5717e-21 3.35806e-05)
(3.35806e-05 -1.2068e-05 -4.8115e-07 3.35806e-05 2.97363e-19 3.35806e-05)
(3.39632e-05 -1.2037e-05 -4.86363e-07 3.39632e-05 2.02448e-20 3.39632e-05)
(3.39632e-05 -1.2037e-05 -4.86363e-07 3.39632e-05 3.21782e-19 3.39632e-05)
(3.43512e-05 -1.19958e-05 -4.9117e-07 3.43512e-05 6.19737e-20 3.43512e-05)
(3.43512e-05 -1.19958e-05 -4.9117e-07 3.43512e-05 3.50091e-19 3.43512e-05)
(3.47439e-05 -1.1943e-05 -4.95489e-07 3.47439e-05 1.6179e-19 3.47439e-05)
(3.47439e-05 -1.1943e-05 -4.95488e-07 3.47439e-05 3.84586e-19 3.47439e-05)
(3.51406e-05 -1.1877e-05 -4.99226e-07 3.51406e-05 2.32396e-19 3.51406e-05)
(3.51406e-05 -1.1877e-05 -4.99226e-07 3.51406e-05 4.16188e-19 3.51406e-05)
(3.55405e-05 -1.17961e-05 -5.02281e-07 3.55405e-05 3.13047e-19 3.55405e-05)
(3.55405e-05 -1.17961e-05 -5.02281e-07 3.55405e-05 4.46997e-19 3.55405e-05)
(3.59429e-05 -1.16984e-05 -5.04543e-07 3.59429e-05 4.36481e-19 3.59429e-05)
(3.59429e-05 -1.16984e-05 -5.04543e-07 3.59429e-05 4.84178e-19 3.59429e-05)
(3.63469e-05 -1.15821e-05 -5.05893e-07 3.63469e-05 5.74996e-19 3.63469e-05)
(3.63469e-05 -1.15821e-05 -5.05893e-07 3.63469e-05 5.19959e-19 3.63469e-05)
(3.67515e-05 -1.1445e-05 -5.06204e-07 3.67515e-05 7.11761e-19 3.67515e-05)
(3.67515e-05 -1.1445e-05 -5.06204e-07 3.67515e-05 5.60437e-19 3.67515e-05)
(3.71557e-05 -1.12852e-05 -5.05344e-07 3.71557e-05 8.76436e-19 3.71557e-05)
(3.71557e-05 -1.12852e-05 -5.05344e-07 3.71557e-05 6.1496e-19 3.71557e-05)
(3.75586e-05 -1.11007e-05 -5.03177e-07 3.75586e-05 1.09339e-18 3.75586e-05)
(3.75586e-05 -1.11007e-05 -5.03177e-07 3.75586e-05 6.7492e-19 3.75586e-05)
(3.79591e-05 -1.08896e-05 -4.99566e-07 3.79591e-05 1.34403e-18 3.79591e-05)
(3.79591e-05 -1.08896e-05 -4.99566e-07 3.79591e-05 7.23938e-19 3.79591e-05)
(3.83559e-05 -1.065e-05 -4.9438e-07 3.83559e-05 1.62316e-18 3.83559e-05)
(3.83559e-05 -1.065e-05 -4.9438e-07 3.83559e-05 7.57559e-19 3.83559e-05)
(3.87481e-05 -1.03805e-05 -4.87497e-07 3.87481e-05 1.82684e-18 3.87481e-05)
(3.87481e-05 -1.03805e-05 -4.87497e-07 3.87481e-05 7.78365e-19 3.87481e-05)
(3.91342e-05 -1.00799e-05 -4.78813e-07 3.91342e-05 1.93896e-18 3.91342e-05)
(3.91342e-05 -1.00799e-05 -4.78813e-07 3.91342e-05 7.83849e-19 3.91342e-05)
(3.95132e-05 -9.74755e-06 -4.68247e-07 3.95132e-05 2.23322e-18 3.95132e-05)
(3.95132e-05 -9.74754e-06 -4.68247e-07 3.95132e-05 8.00469e-19 3.95132e-05)
(3.98837e-05 -9.38356e-06 -4.55753e-07 3.98837e-05 2.72308e-18 3.98837e-05)
(3.98837e-05 -9.38356e-06 -4.55753e-07 3.98837e-05 8.63417e-19 3.98837e-05)
(4.02445e-05 -8.98871e-06 -4.41328e-07 4.02445e-05 3.25997e-18 4.02445e-05)
(4.02445e-05 -8.98871e-06 -4.41328e-07 4.02445e-05 8.74646e-19 4.02445e-05)
(4.05944e-05 -8.56475e-06 -4.25021e-07 4.05944e-05 3.84103e-18 4.05944e-05)
(4.05944e-05 -8.56475e-06 -4.25021e-07 4.05944e-05 -4.48422e-19 4.05944e-05)
(4.09323e-05 -8.1145e-06 -4.06943e-07 4.09323e-05 4.50284e-18 4.09323e-05)
(4.09323e-05 -8.1145e-06 -4.06943e-07 4.09323e-05 -5.80601e-19 4.09323e-05)
(4.12571e-05 -7.64191e-06 -3.87274e-07 4.12571e-05 5.26796e-18 4.12571e-05)
(4.12571e-05 -7.64191e-06 -3.87274e-07 4.12571e-05 -4.98361e-19 4.12571e-05)
(4.15679e-05 -7.15218e-06 -3.66269e-07 4.15679e-05 6.03382e-18 4.15679e-05)
(4.15679e-05 -7.15218e-06 -3.66269e-07 4.15679e-05 -3.7937e-19 4.15679e-05)
(4.1864e-05 -6.6517e-06 -3.44262e-07 4.1864e-05 6.82714e-18 4.1864e-05)
(4.1864e-05 -6.6517e-06 -3.44262e-07 4.1864e-05 -3.47544e-19 4.1864e-05)
(4.21447e-05 -6.14804e-06 -3.21666e-07 4.21447e-05 7.61359e-18 4.21447e-05)
(4.21447e-05 -6.14804e-06 -3.21666e-07 4.21447e-05 -3.06724e-19 4.21447e-05)
(4.24096e-05 -5.64982e-06 -2.9897e-07 4.24096e-05 8.47266e-18 4.24096e-05)
(4.24096e-05 -5.64982e-06 -2.9897e-07 4.24096e-05 -1.73987e-19 4.24096e-05)
(4.26586e-05 -5.16655e-06 -2.76733e-07 4.26586e-05 9.25583e-18 4.26586e-05)
(4.26586e-05 -5.16655e-06 -2.76733e-07 4.26586e-05 6.81545e-20 4.26586e-05)
(4.28917e-05 -4.70845e-06 -2.55581e-07 4.28917e-05 9.92861e-18 4.28917e-05)
(4.28917e-05 -4.70845e-06 -2.55581e-07 4.28917e-05 4.15683e-19 4.28917e-05)
(4.31092e-05 -4.28615e-06 -2.36191e-07 4.31092e-05 1.08072e-17 4.31092e-05)
(4.31092e-05 -4.28615e-06 -2.36191e-07 4.31092e-05 7.43614e-19 4.31092e-05)
(4.33114e-05 -3.91052e-06 -2.19285e-07 4.33114e-05 1.1597e-17 4.33114e-05)
(4.33114e-05 -3.91052e-06 -2.19285e-07 4.33114e-05 1.14213e-18 4.33114e-05)
(4.3499e-05 -3.59235e-06 -2.05617e-07 4.3499e-05 1.21614e-17 4.3499e-05)
(4.3499e-05 -3.59235e-06 -2.05617e-07 4.3499e-05 1.61676e-18 4.3499e-05)
(4.36727e-05 -3.3422e-06 -1.95962e-07 4.36727e-05 1.26036e-17 4.36727e-05)
(4.36727e-05 -3.3422e-06 -1.95962e-07 4.36727e-05 2.07901e-18 4.36727e-05)
(4.38335e-05 -3.17011e-06 -1.91109e-07 4.38335e-05 1.28624e-17 4.38335e-05)
(4.38335e-05 -3.17011e-06 -1.91109e-07 4.38335e-05 2.87659e-18 4.38335e-05)
(4.39822e-05 -3.08554e-06 -1.91849e-07 4.39822e-05 1.31978e-17 4.39822e-05)
(4.39822e-05 -3.08554e-06 -1.91849e-07 4.39822e-05 3.69172e-18 4.39822e-05)
(4.41199e-05 -3.09715e-06 -1.98967e-07 4.41199e-05 1.36863e-17 4.41199e-05)
(4.41199e-05 -3.09715e-06 -1.98967e-07 4.41199e-05 4.33382e-18 4.41199e-05)
(4.42475e-05 -3.21277e-06 -2.13235e-07 4.42475e-05 1.4012e-17 4.42475e-05)
(4.42475e-05 -3.21277e-06 -2.13235e-07 4.42475e-05 5.14352e-18 4.42475e-05)
(4.4366e-05 -3.43928e-06 -2.35409e-07 4.4366e-05 1.38056e-17 4.4366e-05)
(4.4366e-05 -3.43928e-06 -2.35409e-07 4.4366e-05 5.75089e-18 4.4366e-05)
(4.44765e-05 -3.78264e-06 -2.66217e-07 4.44765e-05 1.34692e-17 4.44765e-05)
(4.44765e-05 -3.78264e-06 -2.66217e-07 4.44765e-05 6.33539e-18 4.44765e-05)
(4.45799e-05 -4.24781e-06 -3.0636e-07 4.45799e-05 1.38095e-17 4.45799e-05)
(4.45799e-05 -4.24781e-06 -3.0636e-07 4.45799e-05 7.25853e-18 4.45799e-05)
(4.46771e-05 -4.83875e-06 -3.56503e-07 4.46771e-05 1.38233e-17 4.46771e-05)
(4.46771e-05 -4.83875e-06 -3.56503e-07 4.46771e-05 8.18414e-18 4.46771e-05)
(4.47689e-05 -5.55849e-06 -4.17274e-07 4.47689e-05 1.39167e-17 4.47689e-05)
(4.47689e-05 -5.55849e-06 -4.17274e-07 4.47689e-05 9.05764e-18 4.47689e-05)
(4.4856e-05 -6.40906e-06 -4.89258e-07 4.4856e-05 1.42902e-17 4.4856e-05)
(4.4856e-05 -6.40906e-06 -4.89258e-07 4.4856e-05 9.70277e-18 4.4856e-05)
(4.49393e-05 -7.39158e-06 -5.72995e-07 4.49393e-05 1.38104e-17 4.49393e-05)
(4.49393e-05 -7.39158e-06 -5.72995e-07 4.49393e-05 1.06401e-17 4.49393e-05)
(4.50194e-05 -8.50626e-06 -6.68977e-07 4.50194e-05 1.35986e-17 4.50194e-05)
(4.50194e-05 -8.50626e-06 -6.68977e-07 4.50194e-05 1.24101e-17 4.50194e-05)
(4.50969e-05 -9.75244e-06 -7.77645e-07 4.50969e-05 1.29376e-17 4.50969e-05)
(4.50969e-05 -9.75244e-06 -7.77645e-07 4.50969e-05 1.38009e-17 4.50969e-05)
(4.51723e-05 -1.11286e-05 -8.99385e-07 4.51723e-05 1.23371e-17 4.51723e-05)
(4.51723e-05 -1.11286e-05 -8.99385e-07 4.51723e-05 1.44045e-17 4.51723e-05)
(4.52462e-05 -1.26326e-05 -1.03453e-06 4.52462e-05 1.24806e-17 4.52462e-05)
(4.52462e-05 -1.26326e-05 -1.03453e-06 4.52462e-05 1.50142e-17 4.52462e-05)
(4.5319e-05 -1.42613e-05 -1.18337e-06 4.5319e-05 1.13338e-17 4.5319e-05)
(4.5319e-05 -1.42613e-05 -1.18337e-06 4.5319e-05 1.68151e-17 4.5319e-05)
(4.53912e-05 -1.60112e-05 -1.34611e-06 4.53912e-05 1.0664e-17 4.53912e-05)
(4.53912e-05 -1.60112e-05 -1.34611e-06 4.53912e-05 1.86568e-17 4.53912e-05)
(4.54631e-05 -1.78778e-05 -1.52293e-06 4.54631e-05 1.06147e-17 4.54631e-05)
(4.54631e-05 -1.78778e-05 -1.52293e-06 4.54631e-05 1.84771e-17 4.54631e-05)
(4.55352e-05 -1.98564e-05 -1.71394e-06 4.55352e-05 9.01333e-18 4.55352e-05)
(4.55352e-05 -1.98564e-05 -1.71394e-06 4.55352e-05 1.8521e-17 4.55352e-05)
(4.56077e-05 -2.19416e-05 -1.91921e-06 4.56077e-05 7.69753e-18 4.56077e-05)
(4.56077e-05 -2.19416e-05 -1.91921e-06 4.56077e-05 1.97092e-17 4.56077e-05)
(4.5681e-05 -2.41277e-05 -2.13874e-06 4.5681e-05 7.24636e-18 4.5681e-05)
(4.5681e-05 -2.41277e-05 -2.13874e-06 4.5681e-05 2.13134e-17 4.5681e-05)
(4.57555e-05 -2.64086e-05 -2.3725e-06 4.57555e-05 6.30118e-18 4.57555e-05)
(4.57555e-05 -2.64086e-05 -2.3725e-06 4.57555e-05 2.27194e-17 4.57555e-05)
(4.58312e-05 -2.87777e-05 -2.62041e-06 4.58312e-05 6.10505e-18 4.58312e-05)
(4.58312e-05 -2.87777e-05 -2.62041e-06 4.58312e-05 2.41939e-17 4.58312e-05)
(4.59086e-05 -3.12286e-05 -2.88234e-06 4.59086e-05 6.88212e-18 4.59086e-05)
(4.59086e-05 -3.12286e-05 -2.88234e-06 4.59086e-05 2.47285e-17 4.59086e-05)
(4.59879e-05 -3.37543e-05 -3.15814e-06 4.59879e-05 6.41868e-18 4.59879e-05)