/*--------------------------------*- C++ -*----------------------------------*\
| =========                 |                                                 |
| \\      /  F ield         | OpenFOAM: The Open Source CFD Toolbox           |
|  \\    /   O peration     | Version:  2012                                  |
|   \\  /    A nd           | Website:  www.openfoam.com                      |
|    \\/     M anipulation  |                                                 |
\*---------------------------------------------------------------------------*/
FoamFile
{
    version     2.0;
    format      ascii;
    class       volScalarField;
    location    "10700";
    object      nut;
}
// * * * * * * * * * * * * * * * * * * * * * * * * * * * * * * * * * * * * * //

dimensions      [0 2 -1 0 0 0 0];


internalField   nonuniform List<scalar> 
2560
(
3.23688e-10
3.23688e-10
3.42947e-08
3.42947e-08
7.23823e-07
7.23823e-07
5.63009e-06
5.63009e-06
2.52021e-05
2.52021e-05
7.67179e-05
7.67179e-05
0.000172625
0.000172625
0.000311377
0.000311377
0.000483943
0.000483943
0.000681485
0.000681485
0.000897431
0.000897431
0.00112716
0.00112716
0.00136737
0.00136737
0.00161566
0.00161566
0.00187021
0.00187021
0.00212959
0.00212959
0.00239265
0.00239265
0.00265846
0.00265846
0.00292623
0.00292623
0.00319528
0.00319528
0.003465
0.003465
0.00373489
0.00373489
0.00400445
0.00400445
0.00427326
0.00427326
0.00454089
0.00454089
0.00480698
0.00480698
0.00507116
0.00507116
0.00533307
0.00533307
0.00559238
0.00559238
0.00584875
0.00584875
0.00610187
0.00610187
0.0063514
0.0063514
0.00659704
0.00659704
0.00683847
0.00683847
0.00707538
0.00707538
0.00730747
0.00730747
0.00753444
0.00753444
0.00775601
0.00775601
0.00797188
0.00797188
0.00818179
0.00818179
0.00838549
0.00838549
0.00858273
0.00858273
0.00877332
0.00877332
0.00895705
0.00895705
0.00913377
0.00913377
0.00930338
0.00930338
0.00946579
0.00946579
0.00962099
0.00962099
0.00976902
0.00976902
0.00990999
0.00990999
0.0100441
0.0100441
0.0101715
0.0101715
0.0102928
0.0102928
0.0104082
0.0104082
0.0105184
0.0105184
0.0106241
0.0106241
0.0107262
0.0107262
0.0108254
0.0108254
0.010923
0.010923
0.0110202
0.0110202
0.0111182
0.0111182
0.0112186
0.0112186
0.0113227
0.0113227
0.0114323
0.0114323
0.0115488
0.0115488
0.0116739
0.0116739
0.011809
0.011809
0.0119554
0.0119554
0.0121142
0.0121142
0.0122864
0.0122864
0.0124726
0.0124726
0.012673
0.012673
0.0128876
0.0128876
0.0131158
0.0131158
0.0133571
0.0133571
0.0136103
0.0136103
0.0138743
0.0138743
0.0141475
0.0141475
0.0144285
0.0144285
0.0147154
0.0147154
0.0150067
0.0150067
0.0153008
0.0153008
0.0155959
0.0155959
0.0158908
0.0158908
0.016184
0.016184
0.0164744
0.0164744
0.0167609
0.0167609
0.0170425
0.0170425
0.0173185
0.0173185
0.0175883
0.0175883
0.0178513
0.0178513
0.0181072
0.0181072
0.0183556
0.0183556
0.0185964
0.0185964
0.0188293
0.0188293
0.0190544
0.0190544
0.0192715
0.0192715
0.0194808
0.0194808
0.0196822
0.0196822
0.019876
0.019876
0.0200621
0.0200621
0.0202408
0.0202408
0.0204122
0.0204122
0.0205764
0.0205764
0.0207337
0.0207337
0.0208841
0.0208841
0.021028
0.021028
0.0211654
0.0211654
0.0212965
0.0212965
0.0214216
0.0214216
0.0215408
0.0215408
0.0216542
0.0216542
0.0217621
0.0217621
0.0218647
0.0218647
0.021962
0.021962
0.0220542
0.0220542
0.0221415
0.0221415
0.022224
0.022224
0.0223019
0.0223019
0.0223753
0.0223753
0.0224443
0.0224443
0.0225091
0.0225091
0.0225697
0.0225697
0.0226262
0.0226262
0.0226787
0.0226787
0.0227274
0.0227274
0.0227723
0.0227723
0.0228134
0.0228134
0.0228508
0.0228508
0.0228847
0.0228847
0.022915
0.022915
0.0229418
0.0229418
0.0229651
0.0229651
0.0229849
0.0229849
0.0230014
0.0230014
0.0230146
0.0230146
0.0230245
0.0230245
0.023031
0.023031
0.0230344
0.0230344
0.0230345
0.0230345
0.0230315
0.0230315
0.0230253
0.0230253
0.0230159
0.0230159
0.0230035
0.0230035
0.0229881
0.0229881
0.0229696
0.0229696
0.0229481
0.0229481
0.0229237
0.0229237
0.0228965
0.0228965
0.0228664
0.0228664
0.0228336
0.0228336
0.0227981
0.0227981
0.02276
0.02276
0.0227195
0.0227195
0.0226767
0.0226767
0.0226317
0.0226317
0.0225846
0.0225846
0.0225356
0.0225356
0.0224849
0.0224849
0.0224326
0.0224326
0.022379
0.022379
0.0223242
0.0223242
0.0222683
0.0222683
0.0222116
0.0222116
0.0221541
0.0221541
0.0220959
0.0220959
0.0220372
0.0220372
0.0219779
0.0219779
0.0219181
0.0219181
0.0218577
0.0218577
0.0217968
0.0217968
0.0217353
0.0217353
0.0216732
0.0216732
0.0216105
0.0216105
0.0215472
0.0215472
0.0214835
0.0214835
0.0214193
0.0214193
0.0213549
0.0213549
0.0212904
0.0212904
0.0212258
0.0212258
0.0211616
0.0211616
0.0210977
0.0210977
0.0210345
0.0210345
0.0209721
0.0209721
0.0209107
0.0209107
0.0208505
0.0208505
0.0207916
0.0207916
0.0207342
0.0207342
0.0206786
0.0206786
0.0206248
0.0206248
0.0205731
0.0205731
0.0205238
0.0205238
0.0204772
0.0204772
0.0204337
0.0204337
0.0203936
0.0203936
0.0203575
0.0203575
0.0203257
0.0203257
0.020299
0.020299
0.0202777
0.0202777
0.0202626
0.0202626
0.0202543
0.0202543
0.0202533
0.0202533
0.0202601
0.0202601
0.0202754
0.0202754
0.0202996
0.0202996
0.020333
0.020333
0.0203759
0.0203759
0.0204286
0.0204286
0.0204911
0.0204911
0.0205635
0.0205635
0.020646
0.020646
0.0207385
0.0207385
0.0208411
0.0208411
0.0209538
0.0209538
0.0210763
0.0210763
0.0212082
0.0212082
0.0213491
0.0213491
0.0214981
0.0214981
0.0216543
0.0216543
0.0218166
0.0218166
0.0219836
0.0219836
0.0221538
0.0221538
0.0223259
0.0223259
0.0224992
0.0224992
0.022673
0.022673
0.0228474
0.0228474
0.0230224
0.0230224
0.0231984
0.0231984
0.0233752
0.0233753
0.0235526
0.0235526
0.0237295
0.0237295
0.0239051
0.0239051
0.0240784
0.0240784
0.0242487
0.0242487
0.0244156
0.0244156
0.0245793
0.0245793
0.0247399
0.0247399
0.0248983
0.0248983
0.0250558
0.0250558
0.0252142
0.0252142
0.0253757
0.0253757
0.0255423
0.0255423
0.0257155
0.0257155
0.0258959
0.0258959
0.0260831
0.0260831
0.0262757
0.0262757
0.0264711
0.0264711
0.0266651
0.0266651
0.0268527
0.0268527
0.0270288
0.0270288
0.0271899
0.0271899
0.0273357
0.0273357
0.0274686
0.0274686
0.0275941
0.0275941
0.0277188
0.0277188
0.0278494
0.0278494
0.0279909
0.0279909
0.0281457
0.0281457
0.0283144
0.0283144
0.0284966
0.0284966
0.0286925
0.0286925
0.0289047
0.0289047
0.0291369
0.0291369
0.0293931
0.0293931
0.0296758
0.0296758
0.0299851
0.0299851
0.0303191
0.0303191
0.0306754
0.0306754
0.0310524
0.0310524
0.0314494
0.0314494
0.0318672
0.0318672
0.0323077
0.0323077
0.0327739
0.0327739
0.0332682
0.0332682
0.0337912
0.0337912
0.034341
0.034341
0.0349127
0.0349127
0.0354987
0.0354987
0.0360887
0.0360887
0.0366717
0.0366717
0.0372384
0.0372384
0.0377799
0.0377799
0.0382848
0.0382848
0.0387374
0.0387374
0.0391193
0.0391193
0.0394166
0.0394166
0.0396247
0.0396247
0.0397478
0.0397478
0.0397966
0.0397966
0.0397902
0.0397902
0.0397572
0.0397572
0.0397255
0.0397255
0.0397083
0.0397083
0.0397051
0.0397051
0.0397157
0.0397157
0.0397443
0.0397443
0.0397921
0.0397921
0.0398545
0.0398545
0.0399281
0.0399281
0.0400148
0.0400148
0.04012
0.04012
0.0402481
0.0402481
0.0403991
0.0403992
0.0405695
0.0405695
0.0407515
0.0407515
0.0409268
0.0409268
0.0410652
0.0410652
0.0411369
0.0411369
0.0411301
0.0411301
0.0410579
0.0410579
0.0409471
0.0409471
0.0408194
0.0408194
0.0406865
0.0406865
0.0405571
0.0405571
0.0404405
0.0404405
0.0403416
0.0403417
0.0402621
0.0402621
0.0402023
0.0402023
0.0401586
0.0401587
0.0401333
0.0401334
3.23688e-10
3.23688e-10
3.42947e-08
3.42947e-08
7.23823e-07
7.23823e-07
5.63009e-06
5.63009e-06
2.52021e-05
2.52021e-05
7.67179e-05
7.67179e-05
0.000172625
0.000172625
0.000311378
0.000311378
0.000483943
0.000483943
0.000681486
0.000681486
0.000897431
0.000897431
0.00112716
0.00112716
0.00136737
0.00136737
0.00161566
0.00161566
0.00187021
0.00187021
0.00212959
0.00212959
0.00239265
0.00239265
0.00265847
0.00265847
0.00292623
0.00292623
0.00319528
0.00319528
0.00346501
0.00346501
0.00373489
0.00373489
0.00400445
0.00400445
0.00427326
0.00427326
0.00454089
0.00454089
0.00480698
0.00480698
0.00507116
0.00507116
0.00533307
0.00533307
0.00559238
0.00559238
0.00584875
0.00584875
0.00610187
0.00610187
0.0063514
0.0063514
0.00659704
0.00659704
0.00683847
0.00683847
0.00707538
0.00707538
0.00730747
0.00730747
0.00753444
0.00753444
0.00775601
0.00775601
0.00797188
0.00797188
0.00818179
0.00818179
0.00838549
0.00838549
0.00858274
0.00858274
0.00877332
0.00877332
0.00895705
0.00895705
0.00913377
0.00913377
0.00930338
0.00930338
0.00946579
0.00946579
0.00962099
0.00962099
0.00976902
0.00976902
0.00990999
0.00990999
0.0100441
0.0100441
0.0101716
0.0101716
0.0102928
0.0102928
0.0104082
0.0104082
0.0105184
0.0105184
0.0106241
0.0106241
0.0107262
0.0107262
0.0108254
0.0108254
0.010923
0.010923
0.0110202
0.0110202
0.0111182
0.0111182
0.0112186
0.0112186
0.0113227
0.0113227
0.0114323
0.0114323
0.0115488
0.0115488
0.0116739
0.0116739
0.011809
0.011809
0.0119554
0.0119554
0.0121142
0.0121142
0.0122864
0.0122864
0.0124726
0.0124726
0.012673
0.012673
0.0128876
0.0128876
0.0131158
0.0131158
0.0133571
0.0133571
0.0136103
0.0136103
0.0138743
0.0138743
0.0141475
0.0141475
0.0144285
0.0144285
0.0147154
0.0147154
0.0150067
0.0150067
0.0153008
0.0153008
0.0155959
0.0155959
0.0158908
0.0158908
0.016184
0.016184
0.0164744
0.0164744
0.0167609
0.0167609
0.0170425
0.0170425
0.0173185
0.0173185
0.0175883
0.0175883
0.0178513
0.0178513
0.0181072
0.0181072
0.0183556
0.0183556
0.0185964
0.0185964
0.0188293
0.0188293
0.0190544
0.0190544
0.0192715
0.0192715
0.0194808
0.0194808
0.0196822
0.0196822
0.019876
0.019876
0.0200621
0.0200621
0.0202408
0.0202408
0.0204122
0.0204122
0.0205764
0.0205764
0.0207337
0.0207337
0.0208841
0.0208841
0.021028
0.021028
0.0211654
0.0211654
0.0212965
0.0212965
0.0214216
0.0214216
0.0215408
0.0215408
0.0216542
0.0216542
0.0217621
0.0217621
0.0218647
0.0218647
0.021962
0.021962
0.0220542
0.0220542
0.0221415
0.0221415
0.022224
0.022224
0.0223019
0.0223019
0.0223753
0.0223753
0.0224443
0.0224443
0.0225091
0.0225091
0.0225697
0.0225697
0.0226262
0.0226262
0.0226787
0.0226787
0.0227274
0.0227274
0.0227723
0.0227723
0.0228134
0.0228134
0.0228508
0.0228508
0.0228847
0.0228847
0.022915
0.022915
0.0229417
0.0229417
0.0229651
0.0229651
0.0229849
0.0229849
0.0230014
0.0230014
0.0230146
0.0230146
0.0230245
0.0230245
0.023031
0.023031
0.0230344
0.0230344
0.0230345
0.0230345
0.0230315
0.0230315
0.0230253
0.0230253
0.0230159
0.0230159
0.0230035
0.0230035
0.0229881
0.0229881
0.0229696
0.0229696
0.0229481
0.0229481
0.0229237
0.0229237
0.0228965
0.0228965
0.0228664
0.0228664
0.0228336
0.0228336
0.0227981
0.0227981
0.02276
0.02276
0.0227195
0.0227195
0.0226767
0.0226767
0.0226317
0.0226317
0.0225846
0.0225846
0.0225356
0.0225356
0.0224849
0.0224849
0.0224326
0.0224326
0.022379
0.022379
0.0223242
0.0223242
0.0222683
0.0222683
0.0222116
0.0222116
0.0221541
0.0221541
0.0220959
0.0220959
0.0220372
0.0220372
0.0219779
0.0219779
0.0219181
0.0219181
0.0218577
0.0218577
0.0217968
0.0217968
0.0217353
0.0217353
0.0216732
0.0216732
0.0216105
0.0216105
0.0215472
0.0215472
0.0214835
0.0214835
0.0214193
0.0214193
0.0213549
0.0213549
0.0212903
0.0212903
0.0212258
0.0212258
0.0211616
0.0211616
0.0210977
0.0210977
0.0210345
0.0210345
0.0209721
0.0209721
0.0209107
0.0209107
0.0208505
0.0208505
0.0207916
0.0207916
0.0207342
0.0207342
0.0206786
0.0206786
0.0206248
0.0206248
0.0205731
0.0205731
0.0205238
0.0205238
0.0204772
0.0204772
0.0204337
0.0204337
0.0203936
0.0203936
0.0203574
0.0203574
0.0203257
0.0203257
0.0202989
0.0202989
0.0202777
0.0202777
0.0202626
0.0202626
0.0202543
0.0202543
0.0202532
0.0202532
0.0202601
0.0202601
0.0202754
0.0202754
0.0202995
0.0202995
0.0203329
0.0203329
0.0203759
0.0203759
0.0204285
0.0204285
0.020491
0.020491
0.0205635
0.0205635
0.0206459
0.0206459
0.0207384
0.0207384
0.0208411
0.0208411
0.0209537
0.0209537
0.0210762
0.0210762
0.0212081
0.0212081
0.0213489
0.0213489
0.021498
0.021498
0.0216542
0.0216542
0.0218165
0.0218165
0.0219834
0.0219834
0.0221536
0.0221536
0.0223258
0.0223258
0.0224991
0.0224991
0.0226729
0.0226729
0.0228472
0.0228472
0.0230223
0.0230223
0.0231982
0.0231982
0.0233751
0.0233751
0.0235525
0.0235525
0.0237294
0.0237294
0.023905
0.023905
0.0240782
0.0240782
0.0242485
0.0242485
0.0244155
0.0244155
0.0245792
0.0245792
0.0247398
0.0247398
0.0248982
0.0248982
0.0250557
0.0250557
0.0252141
0.0252141
0.0253756
0.0253756
0.0255422
0.0255422
0.0257154
0.0257154
0.0258958
0.0258958
0.0260831
0.0260831
0.0262757
0.0262757
0.026471
0.026471
0.026665
0.026665
0.0268526
0.0268526
0.0270288
0.0270288
0.02719
0.02719
0.0273357
0.0273357
0.0274687
0.0274687
0.0275942
0.0275942
0.0277189
0.0277189
0.0278495
0.0278495
0.027991
0.027991
0.0281458
0.0281458
0.0283145
0.0283145
0.0284967
0.0284967
0.0286926
0.0286926
0.0289047
0.0289047
0.0291369
0.0291369
0.0293931
0.0293931
0.0296758
0.0296758
0.0299851
0.0299851
0.030319
0.030319
0.0306753
0.0306753
0.0310522
0.0310522
0.0314493
0.0314493
0.031867
0.031867
0.0323074
0.0323074
0.0327735
0.0327735
0.0332678
0.0332677
0.0337907
0.0337907
0.0343403
0.0343403
0.0349119
0.0349119
0.0354977
0.0354977
0.0360876
0.0360876
0.0366707
0.0366707
0.0372374
0.0372374
0.0377789
0.0377789
0.0382841
0.038284
0.0387368
0.0387368
0.039119
0.0391189
0.0394166
0.0394166
0.039625
0.039625
0.0397484
0.0397484
0.0397973
0.0397973
0.0397909
0.0397909
0.0397579
0.0397579
0.039726
0.039726
0.0397087
0.0397087
0.0397053
0.0397053
0.0397159
0.0397159
0.0397444
0.0397444
0.0397922
0.0397922
0.0398545
0.0398545
0.0399281
0.0399281
0.0400146
0.0400146
0.0401196
0.0401196
0.0402475
0.0402475
0.0403984
0.0403984
0.0405686
0.0405686
0.0407505
0.0407504
0.0409258
0.0409258
0.0410643
0.0410643
0.0411364
0.0411364
0.04113
0.04113
0.0410582
0.0410582
0.0409475
0.0409475
0.0408199
0.0408199
0.040687
0.040687
0.0405575
0.0405575
0.0404407
0.0404406
0.0403417
0.0403417
0.0402621
0.040262
0.0402022
0.0402021
0.0401585
0.0401585
0.0401332
0.0401331
0.040132
0.0401321
0.0401549
0.040155
0.040196
0.0401961
0.0402525
0.0402525
0.0403287
0.0403288
0.0404244
0.0404245
0.0405381
0.0405381
0.0406646
0.0406646
0.0407938
0.0407939
0.0409156
0.0409156
0.0410201
0.0410202
0.0410876
0.0410876
0.0410913
0.0410913
0.0410186
0.0410186
0.0408832
0.0408832
0.0407138
0.0407138
0.0405382
0.0405382
0.040374
0.040374
0.0402288
0.0402288
0.0401064
0.0401064
0.0400067
0.0400067
0.0399248
0.0399248
0.0398554
0.0398554
0.0397972
0.0397972
0.0397537
0.0397537
0.0397292
0.0397292
0.0397225
0.0397225
0.0397294
0.0397294
0.0397502
0.0397502
0.0397854
0.0397854
0.039822
0.039822
0.0398315
0.0398315
0.039784
0.039784
0.03966
0.03966
0.0394489
0.0394489
0.039147
0.039147
0.0387611
0.0387611
0.038306
0.038306
0.0377996
0.0377996
0.0372576
0.0372576
0.0366904
0.0366904
0.036107
0.036107
0.0355166
0.0355166
0.0349301
0.0349301
0.0343578
0.0343578
0.0338074
0.0338074
0.0332838
0.0332838
0.0327889
0.0327889
0.032322
0.032322
0.0318807
0.0318807
0.0314619
0.0314619
0.0310636
0.0310636
0.0306856
0.0306856
0.0303283
0.0303283
0.0299931
0.0299931
0.0296825
0.0296825
0.0293986
0.0293986
0.0291412
0.0291412
0.0289078
0.0289078
0.0286949
0.0286949
0.0284983
0.0284983
0.0283153
0.0283153
0.0281456
0.0281456
0.0279897
0.0279897
0.0278469
0.0278469
0.027715
0.027715
0.0275893
0.0275893
0.0274634
0.0274634
0.0273298
0.0273299
0.0271832
0.0271832
0.0270209
0.0270209
0.026844
0.026844
0.0266561
0.0266561
0.0264623
0.0264623
0.0262677
0.0262677
0.0260761
0.0260761
0.0258901
0.0258901
0.0257107
0.0257107
0.0255382
0.0255382
0.0253718
0.0253718
0.0252102
0.0252102
0.0250516
0.0250516
0.0248938
0.0248938
0.0247352
0.0247352
0.0245744
0.0245744
0.0244105
0.0244105
0.0242435
0.0242435
0.0240734
0.0240734
0.0239002
0.0239002
0.0237248
0.0237249
0.0235483
0.0235483
0.0233715
0.0233715
0.0231953
0.0231953
0.0230202
0.0230202
0.022846
0.022846
0.0226724
0.0226724
0.022499
0.022499
0.0223261
0.0223261
0.0221542
0.0221542
0.0219841
0.0219841
0.0218174
0.0218174
0.0216554
0.0216554
0.0214994
0.0214994
0.0213505
0.0213505
0.0212096
0.0212096
0.0210775
0.0210775
0.0209548
0.0209548
0.020842
0.020842
0.0207391
0.0207391
0.0206464
0.0206464
0.0205639
0.0205639
0.0204914
0.0204914
0.0204289
0.0204289
0.0203763
0.0203763
0.0203335
0.0203335
0.0203001
0.0203001
0.020276
0.020276
0.0202608
0.0202608
0.020254
0.020254
0.0202551
0.0202551
0.0202635
0.0202635
0.0202786
0.0202786
0.0202999
0.0202999
0.0203267
0.0203267
0.0203584
0.0203584
0.0203946
0.0203946
0.0204347
0.0204347
0.0204783
0.0204783
0.0205249
0.0205249
0.0205742
0.0205742
0.0206259
0.0206259
0.0206797
0.0206797
0.0207354
0.0207354
0.0207927
0.0207927
0.0208516
0.0208516
0.0209118
0.0209118
0.0209732
0.0209732
0.0210356
0.0210356
0.0210988
0.0210988
0.0211626
0.0211626
0.0212269
0.0212269
0.0212914
0.0212914
0.021356
0.021356
0.0214204
0.0214204
0.0214846
0.0214846
0.0215484
0.0215484
0.0216117
0.0216117
0.0216743
0.0216743
0.0217365
0.0217365
0.021798
0.021798
0.0218589
0.0218589
0.0219193
0.0219193
0.0219792
0.0219792
0.0220385
0.0220385
0.0220973
0.0220973
0.0221555
0.0221555
0.022213
0.022213
0.0222697
0.0222697
0.0223256
0.0223256
0.0223804
0.0223804
0.022434
0.022434
0.0224863
0.0224863
0.022537
0.022537
0.022586
0.022586
0.0226331
0.0226331
0.0226781
0.0226781
0.022721
0.022721
0.0227615
0.0227615
0.0227996
0.0227996
0.022835
0.022835
0.0228679
0.0228679
0.022898
0.022898
0.0229253
0.0229253
0.0229497
0.0229497
0.0229712
0.0229712
0.0229897
0.0229897
0.0230052
0.0230052
0.0230176
0.0230176
0.023027
0.023027
0.0230333
0.0230333
0.0230364
0.0230364
0.0230363
0.0230363
0.0230331
0.0230331
0.0230266
0.0230266
0.0230168
0.0230168
0.0230036
0.0230036
0.0229872
0.0229872
0.0229673
0.0229673
0.022944
0.022944
0.0229173
0.0229173
0.0228871
0.0228871
0.0228533
0.0228533
0.0228159
0.0228159
0.0227748
0.0227748
0.02273
0.02273
0.0226814
0.0226814
0.0226288
0.0226288
0.0225723
0.0225723
0.0225117
0.0225117
0.0224469
0.0224469
0.0223779
0.0223779
0.0223044
0.0223044
0.0222265
0.0222265
0.0221439
0.0221439
0.0220564
0.0220564
0.021964
0.021964
0.0218667
0.0218667
0.0217641
0.0217641
0.0216561
0.0216561
0.0215427
0.0215427
0.0214235
0.0214235
0.0212984
0.0212984
0.0211673
0.0211673
0.0210299
0.0210299
0.020886
0.020886
0.0207356
0.0207356
0.0205783
0.0205783
0.020414
0.020414
0.0202426
0.0202426
0.020064
0.020064
0.0198779
0.0198779
0.0196842
0.0196842
0.0194828
0.0194828
0.0192736
0.0192736
0.0190566
0.0190566
0.0188315
0.0188315
0.0185986
0.0185986
0.0183577
0.0183577
0.018109
0.018109
0.0178528
0.0178528
0.0175894
0.0175894
0.0173194
0.0173194
0.0170432
0.0170432
0.0167615
0.0167615
0.0164749
0.0164749
0.0161844
0.0161844
0.015891
0.015891
0.0155959
0.0155959
0.0153005
0.0153005
0.0150062
0.0150062
0.0147147
0.0147147
0.0144275
0.0144275
0.0141465
0.0141465
0.0138731
0.0138731
0.0136091
0.0136091
0.0133558
0.0133558
0.0131144
0.0131144
0.0128861
0.0128861
0.0126715
0.0126715
0.012471
0.012471
0.0122848
0.0122848
0.0121125
0.0121125
0.0119536
0.0119536
0.0118072
0.0118072
0.0116721
0.0116721
0.011547
0.011547
0.0114304
0.0114304
0.0113209
0.0113209
0.0112167
0.0112167
0.0111163
0.0111163
0.0110182
0.0110182
0.010921
0.010921
0.0108235
0.0108235
0.0107242
0.0107242
0.0106223
0.0106223
0.0105166
0.0105166
0.0104065
0.0104065
0.0102912
0.0102912
0.0101701
0.0101701
0.0100428
0.0100428
0.00990872
0.00990872
0.00976782
0.00976782
0.00961991
0.00961991
0.00946483
0.00946483
0.00930252
0.00930252
0.00913301
0.00913301
0.00895639
0.00895639
0.00877275
0.00877275
0.00858225
0.00858225
0.00838508
0.00838508
0.00818146
0.00818146
0.00797161
0.00797161
0.00775578
0.00775578
0.00753426
0.00753426
0.00730732
0.00730732
0.00707526
0.00707526
0.00683838
0.00683838
0.00659697
0.00659697
0.00635134
0.00635134
0.00610181
0.00610181
0.00584871
0.00584871
0.00559235
0.00559235
0.00533307
0.00533307
0.00507118
0.00507118
0.00480703
0.00480703
0.00454096
0.00454096
0.00427334
0.00427334
0.00400454
0.00400454
0.00373498
0.00373498
0.0034651
0.0034651
0.00319537
0.00319537
0.00292632
0.00292632
0.00265855
0.00265855
0.00239274
0.00239274
0.00212967
0.00212967
0.00187029
0.00187029
0.00161573
0.00161573
0.00136743
0.00136743
0.00112721
0.00112721
0.000897482
0.000897482
0.000681529
0.000681529
0.000483978
0.000483978
0.000311404
0.000311404
0.000172643
0.000172643
7.67267e-05
7.67267e-05
2.52053e-05
2.52053e-05
5.63083e-06
5.63083e-06
7.23918e-07
7.23918e-07
3.42991e-08
3.42991e-08
3.23721e-10
3.23721e-10
0.0401319
0.0401319
0.0401548
0.0401547
0.0401959
0.0401959
0.0402525
0.0402524
0.0403289
0.0403288
0.0404247
0.0404246
0.0405384
0.0405384
0.0406651
0.0406651
0.0407943
0.0407943
0.040916
0.040916
0.0410204
0.0410204
0.0410875
0.0410875
0.0410908
0.0410908
0.0410178
0.0410177
0.0408822
0.0408821
0.0407128
0.0407127
0.0405374
0.0405373
0.0403733
0.0403733
0.0402282
0.0402282
0.0401061
0.040106
0.0400065
0.0400065
0.0399247
0.0399247
0.0398554
0.0398554
0.0397972
0.0397972
0.0397538
0.0397538
0.0397293
0.0397293
0.0397227
0.0397227
0.0397298
0.0397298
0.0397507
0.0397507
0.0397861
0.0397861
0.0398227
0.0398227
0.0398322
0.0398322
0.0397845
0.0397845
0.0396603
0.0396603
0.0394489
0.0394489
0.0391467
0.0391467
0.0387605
0.0387605
0.0383052
0.0383052
0.0377987
0.0377987
0.0372566
0.0372565
0.0366894
0.0366894
0.036106
0.036106
0.0355157
0.0355157
0.0349293
0.0349293
0.0343571
0.0343571
0.0338068
0.0338068
0.0332833
0.0332833
0.0327885
0.0327885
0.0323218
0.0323217
0.0318805
0.0318805
0.0314617
0.0314617
0.0310635
0.0310635
0.0306855
0.0306855
0.0303282
0.0303282
0.0299931
0.0299931
0.0296825
0.0296825
0.0293986
0.0293986
0.0291412
0.0291412
0.0289079
0.0289079
0.028695
0.028695
0.0284984
0.0284984
0.0283154
0.0283154
0.0281457
0.0281457
0.0279898
0.0279898
0.0278471
0.0278471
0.0277151
0.0277151
0.0275894
0.0275894
0.0274634
0.0274634
0.0273299
0.0273299
0.0271833
0.0271833
0.0270209
0.0270209
0.026844
0.026844
0.0266561
0.0266561
0.0264622
0.0264622
0.0262676
0.0262676
0.026076
0.026076
0.02589
0.02589
0.0257107
0.0257107
0.0255381
0.0255381
0.0253718
0.0253718
0.0252101
0.0252101
0.0250515
0.0250515
0.0248937
0.0248937
0.0247351
0.0247351
0.0245743
0.0245743
0.0244104
0.0244104
0.0242434
0.0242434
0.0240732
0.0240732
0.0239001
0.0239001
0.0237247
0.0237247
0.0235482
0.0235482
0.0233714
0.0233714
0.0231952
0.0231952
0.02302
0.02302
0.0228459
0.0228459
0.0226722
0.0226722
0.0224989
0.0224989
0.022326
0.022326
0.022154
0.022154
0.021984
0.021984
0.0218173
0.0218173
0.0216553
0.0216553
0.0214993
0.0214993
0.0213503
0.0213503
0.0212095
0.0212095
0.0210774
0.0210774
0.0209547
0.0209547
0.0208419
0.0208419
0.0207391
0.0207391
0.0206463
0.0206463
0.0205638
0.0205638
0.0204913
0.0204913
0.0204289
0.0204289
0.0203763
0.0203763
0.0203334
0.0203334
0.0203001
0.0203001
0.020276
0.020276
0.0202608
0.0202608
0.020254
0.020254
0.0202551
0.0202551
0.0202635
0.0202635
0.0202786
0.0202786
0.0202999
0.0202999
0.0203267
0.0203267
0.0203584
0.0203584
0.0203946
0.0203946
0.0204347
0.0204347
0.0204783
0.0204783
0.0205249
0.0205249
0.0205742
0.0205742
0.0206259
0.0206259
0.0206797
0.0206797
0.0207354
0.0207354
0.0207927
0.0207927
0.0208516
0.0208516
0.0209118
0.0209118
0.0209732
0.0209732
0.0210355
0.0210355
0.0210988
0.0210988
0.0211626
0.0211626
0.0212269
0.0212269
0.0212914
0.0212914
0.021356
0.021356
0.0214204
0.0214204
0.0214846
0.0214846
0.0215484
0.0215484
0.0216117
0.0216117
0.0216743
0.0216743
0.0217364
0.0217364
0.021798
0.021798
0.0218589
0.0218589
0.0219193
0.0219193
0.0219792
0.0219792
0.0220385
0.0220385
0.0220973
0.0220973
0.0221555
0.0221555
0.022213
0.022213
0.0222697
0.0222697
0.0223256
0.0223256
0.0223804
0.0223804
0.022434
0.022434
0.0224863
0.0224863
0.022537
0.022537
0.022586
0.022586
0.0226331
0.0226331
0.0226781
0.0226781
0.022721
0.022721
0.0227615
0.0227615
0.0227996
0.0227996
0.022835
0.022835
0.0228679
0.0228679
0.022898
0.022898
0.0229253
0.0229253
0.0229497
0.0229497
0.0229712
0.0229712
0.0229897
0.0229897
0.0230052
0.0230052
0.0230176
0.0230176
0.023027
0.023027
0.0230333
0.0230333
0.0230364
0.0230364
0.0230363
0.0230363
0.0230331
0.0230331
0.0230266
0.0230266
0.0230168
0.0230168
0.0230036
0.0230036
0.0229872
0.0229872
0.0229673
0.0229673
0.022944
0.022944
0.0229173
0.0229173
0.0228871
0.0228871
0.0228533
0.0228533
0.0228159
0.0228159
0.0227748
0.0227748
0.02273
0.02273
0.0226813
0.0226813
0.0226288
0.0226288
0.0225723
0.0225723
0.0225117
0.0225117
0.0224469
0.0224469
0.0223779
0.0223779
0.0223044
0.0223044
0.0222265
0.0222265
0.0221439
0.0221439
0.0220564
0.0220564
0.021964
0.021964
0.0218666
0.0218666
0.0217641
0.0217641
0.0216561
0.0216561
0.0215427
0.0215427
0.0214235
0.0214235
0.0212984
0.0212984
0.0211673
0.0211673
0.0210299
0.0210299
0.020886
0.020886
0.0207356
0.0207356
0.0205783
0.0205783
0.020414
0.020414
0.0202426
0.0202426
0.020064
0.020064
0.0198779
0.0198779
0.0196842
0.0196842
0.0194828
0.0194828
0.0192736
0.0192736
0.0190566
0.0190566
0.0188315
0.0188315
0.0185986
0.0185986
0.0183577
0.0183577
0.018109
0.018109
0.0178528
0.0178528
0.0175894
0.0175894
0.0173194
0.0173194
0.0170432
0.0170432
0.0167615
0.0167615
0.0164749
0.0164749
0.0161844
0.0161844
0.015891
0.015891
0.0155959
0.0155959
0.0153005
0.0153005
0.0150062
0.0150062
0.0147147
0.0147147
0.0144275
0.0144275
0.0141465
0.0141465
0.0138731
0.0138731
0.0136091
0.0136091
0.0133558
0.0133558
0.0131144
0.0131144
0.0128861
0.0128861
0.0126715
0.0126715
0.012471
0.012471
0.0122848
0.0122848
0.0121125
0.0121125
0.0119536
0.0119536
0.0118072
0.0118072
0.0116721
0.0116721
0.011547
0.011547
0.0114304
0.0114304
0.0113209
0.0113209
0.0112167
0.0112167
0.0111163
0.0111163
0.0110182
0.0110182
0.0109211
0.0109211
0.0108235
0.0108235
0.0107242
0.0107242
0.0106223
0.0106223
0.0105167
0.0105167
0.0104065
0.0104065
0.0102912
0.0102912
0.0101701
0.0101701
0.0100428
0.0100428
0.00990872
0.00990872
0.00976782
0.00976782
0.00961992
0.00961992
0.00946484
0.00946484
0.00930252
0.00930252
0.00913301
0.00913301
0.00895639
0.00895639
0.00877275
0.00877275
0.00858225
0.00858225
0.00838508
0.00838508
0.00818146
0.00818146
0.00797161
0.00797161
0.00775579
0.00775579
0.00753426
0.00753426
0.00730733
0.00730733
0.00707526
0.00707526
0.00683838
0.00683838
0.00659697
0.00659697
0.00635134
0.00635134
0.00610181
0.00610181
0.00584871
0.00584871
0.00559236
0.00559236
0.00533307
0.00533307
0.00507118
0.00507118
0.00480703
0.00480703
0.00454096
0.00454096
0.00427334
0.00427334
0.00400454
0.00400454
0.00373498
0.00373498
0.0034651
0.0034651
0.00319537
0.00319537
0.00292632
0.00292632
0.00265855
0.00265855
0.00239274
0.00239274
0.00212967
0.00212967
0.00187029
0.00187029
0.00161573
0.00161573
0.00136743
0.00136743
0.00112721
0.00112721
0.000897482
0.000897482
0.000681529
0.000681529
0.000483978
0.000483978
0.000311404
0.000311404
0.000172642
0.000172642
7.67267e-05
7.67267e-05
2.52053e-05
2.52053e-05
5.63083e-06
5.63083e-06
7.23918e-07
7.23918e-07
3.42991e-08
3.42991e-08
3.23721e-10
3.23721e-10
)
;

boundaryField
{
    walls
    {
        type            nutUWallFunction;
        blending        stepwise;
        Cmu             0.09;
        kappa           0.41;
        E               9.8;
        value           uniform 0;
    }
    inlet
    {
        type            cyclic;
    }
    outlet
    {
        type            cyclic;
    }
    sides
    {
        type            empty;
    }
}


// ************************************************************************* //
