/*--------------------------------*- C++ -*----------------------------------*\
| =========                 |                                                 |
| \\      /  F ield         | OpenFOAM: The Open Source CFD Toolbox           |
|  \\    /   O peration     | Version:  2012                                  |
|   \\  /    A nd           | Website:  www.openfoam.com                      |
|    \\/     M anipulation  |                                                 |
\*---------------------------------------------------------------------------*/
FoamFile
{
    version     2.0;
    format      ascii;
    class       volTensorField;
    location    "14000";
    object      grad(U);
}
// * * * * * * * * * * * * * * * * * * * * * * * * * * * * * * * * * * * * * //

dimensions      [0 0 -1 0 0 0 0];


internalField   nonuniform List<tensor> 
2560
(
(0 -8.74643e-15 1.04893e-14 296.597 0 0.503269 0.43048 -5.42101e-20 0.000705515)
(0 0 1.42861e-19 296.378 -0.00765464 0.000203998 0.430427 -0.000355078 -0.00337379)
(0 3.52034e-20 9.21977e-15 295.039 0.0369069 -1.16032e-21 1.29258 -2.20073e-06 0)
(-2.88386e-16 -3.52034e-20 1.40814e-19 294.825 0.112653 -0.000158768 1.29243 0.000109505 -0.0051224)
(2.28133e-16 -8.67472e-20 4.05099e-16 293.675 -0.0591828 -0.108574 1.75883 -8.84324e-05 0.000323533)
(-2.84253e-16 1.56145e-19 -5.55182e-19 293.47 0.0547684 -2.07194e-05 1.75764 0.000122118 -0.00473525)
(7.36099e-16 -2.40288e-19 1.36806e-19 292.304 -0.0352225 -0.185531 1.77605 -0.000139283 0.000719496)
(-5.60358e-16 2.39411e-19 -1.36806e-19 292.116 0.0390481 -6.1294e-06 1.77496 0.000140658 -0.00344352)
(5.52327e-16 -2.86546e-19 3.37113e-19 290.923 -0.0178141 -0.151915 1.79329 -7.88347e-05 0.000428374)
(0 3.37113e-19 -2.69691e-19 290.755 0.0250844 -9.28401e-06 1.79232 0.000111886 -0.00205023)
(9.63211e-16 -1.51251e-19 6.64564e-20 289.392 -0.0105246 -0.0847353 1.80888 -5.19707e-05 0.000254403)
(3.35079e-15 3.58323e-19 -9.96845e-20 289.247 0.0146362 -3.19654e-06 1.80805 6.99887e-05 -0.0012176)
(-5.42516e-16 -1.25555e-19 3.27519e-20 287.494 -0.00698413 -0.0434356 1.82168 -3.61102e-05 0.000165315)
(2.17016e-15 3.58353e-19 -6.55039e-20 287.373 0.00938732 -6.66911e-07 1.82098 4.83983e-05 -0.000791209)
(-6.67532e-16 2.82198e-19 -6.4565e-20 285.143 -0.00495533 -0.023689 1.83153 -2.7312e-05 0.000117577)
(2.67013e-15 -1.04758e-19 3.22825e-20 285.045 0.00678574 -4.64026e-07 1.83097 3.84662e-05 -0.000562731)
(1.83595e-15 -1.68533e-19 3.18198e-20 282.546 -0.00380043 -0.0141217 1.84104 -2.20475e-05 8.95841e-05)
(0 2.38649e-19 -3.18198e-20 282.471 0.00509119 -3.05653e-07 1.84062 2.76303e-05 -0.000428756)
(-1.02773e-15 2.66592e-19 -3.13638e-20 280.137 -0.00298702 -0.00909341 1.85317 -1.73078e-05 7.1288e-05)
(0 -2.03864e-19 1.56819e-20 280.082 0.00419693 -1.57075e-07 1.85288 2.77148e-05 -0.00034346)
(-1.04613e-15 -4.83077e-19 3.70905e-20 277.984 -0.0025599 -0.0062207 1.86597 -1.69375e-05 4.84609e-05)
(0 5.40999e-19 -4.63714e-20 277.949 0.0033303 2.01011e-09 1.86579 1.6761e-05 -0.000285475)
(1.1737e-15 -6.07026e-19 5.55889e-20 275.951 -0.0021821 -0.00445965 1.87966 -1.26496e-05 3.46639e-05)
(0 5.48481e-19 -5.33245e-20 275.933 0.00301675 9.42563e-08 1.87959 2.42399e-05 -0.000244)
(3.93667e-15 -1.35155e-19 3.00344e-20 274.153 -0.00174514 -0.00334616 1.89569 -1.13728e-05 2.58038e-05)
(-3.93667e-15 2.25258e-19 -3.00344e-20 274.15 0.0420943 0.000148985 1.89572 0.000216868 -0.000213124)
(-1.43128e-15 2.76557e-19 -3.22037e-20 272.48 -0.00170549 -0.0025323 1.91119 -1.24621e-05 2.02345e-05)
(5.72483e-15 2.64815e-34 1.4802e-20 272.491 -1.3884e-17 1.90612e-06 1.9113 0 -0.000188779)
(-1.91232e-15 3.79336e-19 -3.64746e-20 270.502 -0.00126857 -0.00200842 1.92298 -5.46804e-06 1.51068e-05)
(1.91232e-15 -3.79336e-19 3.64746e-20 270.524 0.113283 0.000177413 1.92317 -5.2459e-05 -0.000170726)
(-1.69482e-15 0 -2.47727e-21 267.889 -0.00228102 -0.00156218 1.92932 0.000312549 1.33477e-05)
(6.77895e-15 0 0 267.919 -2.94296e-17 7.14655e-06 1.92956 -1.0842e-19 -0.000154322)
(-1.85789e-15 -1.13397e-19 -2.48056e-20 264.55 -0.000809452 -0.00120456 1.93025 -0.00105419 9.0858e-06)
(-5.45604e-15 4.22994e-19 2.48056e-20 264.586 2.11497e-20 -0.000192463 1.93053 0 -0.000143439)
(0 1.5648e-18 -2.445e-20 260.911 -0.00143033 -0.00102634 1.93157 0.000646482 8.48341e-06)
(-7.84898e-15 -4.59157e-19 2.445e-20 260.95 -4.13811e-17 2.40944e-06 1.93188 0 -0.000132748)
(0 -1.1017e-19 6.8856e-21 257.97 -0.000432893 -0.000850825 1.94231 -0.00120078 6.69478e-06)
(0 8.20955e-30 -6.8856e-21 258.012 2.77903e-17 -5.35116e-06 1.94263 1.0842e-19 -0.000124703)
(2.22638e-15 1.30309e-18 -1.44352e-20 256.523 -0.00170165 -0.000713554 1.96595 0.000789072 6.07718e-06)
(-8.9052e-15 -6.95267e-19 2.71476e-20 256.565 -4.34542e-20 7.63101e-07 1.96627 2.1684e-19 -0.000116933)
(0 -2.14068e-19 -1.67241e-20 256.444 -0.000277447 -0.000602404 1.99797 -0.00134769 4.78438e-06)
(0 2.4797e-19 1.67241e-20 256.485 3.12095e-17 -6.95562e-06 1.99828 0 -0.000111198)
(-2.49229e-15 -6.33001e-19 8.69517e-22 256.977 -0.00155306 -0.000513691 2.03196 0.000930357 4.52474e-06)
(0 -1.73334e-33 -9.89064e-21 257.016 -4.50542e-17 -4.28742e-07 2.03226 2.92822e-34 -0.000105329)
(4.18627e-15 4.15952e-19 2.99926e-20 257.513 0.000136119 -0.000502996 2.0651 -0.00149264 3.52328e-06)
(0 9.62965e-35 -2.92466e-20 257.55 -2.16469e-35 0.000271159 2.06538 2.1684e-19 -0.000101127)
(-3.35864e-15 1.63996e-18 -1.28122e-20 257.903 -0.0018564 -0.000372453 2.09781 0.00133837 4.48591e-06)
(-7.71094e-15 -7.55157e-19 1.60153e-20 257.937 -6.29298e-20 5.45724e-06 2.09808 2.1684e-19 -9.51916e-05)
(2.90847e-15 -1.21234e-18 -1.63668e-20 258.212 0.000153848 -0.000315734 2.13069 -0.00217262 1.50414e-06)
(0 4.81482e-35 1.89429e-20 258.243 3.21629e-32 4.70922e-05 2.13094 3.29171e-35 -9.34464e-05)
(-6.10369e-15 3.18658e-18 -2.24808e-20 258.432 -0.00222237 -0.00025665 2.16295 0.0020291 3.68178e-06)
(0 -9.62965e-35 1.86714e-20 258.461 -8.38508e-17 1.14738e-05 2.16318 -1.93323e-34 -8.82261e-05)
(9.59335e-15 2.35568e-18 2.4106e-18 258.42 0.000514072 -0.000132777 2.1929 -0.00290483 5.59485e-07)
(2.55818e-14 0 -2.45383e-20 258.446 8.32667e-17 -0.000215345 2.19311 -3.62387e-30 -8.75366e-05)
(0 -3.09589e-18 1.20933e-20 257.988 -0.00231902 -0.000169774 2.21886 0.00251947 1.99349e-06)
(1.33852e-14 0 -1.51166e-20 258.011 -9.75576e-17 7.7226e-06 2.21906 0 -8.41896e-05)
(3.49734e-15 -1.14432e-18 -9.51398e-21 257.026 0.00101982 -0.000139316 2.24034 -0.00317786 9.0176e-07)
(0 3.75628e-19 5.95999e-21 257.048 9.3907e-20 2.80513e-06 2.24052 0 -8.29744e-05)
(-7.30023e-15 0 -7.2425e-21 255.663 -0.00259047 -0.000114683 2.25969 0.002794 1.51963e-06)
(-2.92006e-14 -4.55956e-18 2.93729e-21 255.682 1.13989e-19 1.87568e-06 2.25984 4.33681e-19 -8.01541e-05)
(-3.80368e-15 -3.70584e-19 -8.18409e-21 254.385 0.00148538 -9.51354e-05 2.28298 -0.00346176 4.91471e-07)
(-2.12862e-14 2.07298e-18 2.89519e-21 254.401 8.31631e-17 -1.29859e-05 2.28311 0 -7.94316e-05)
(0 3.65273e-18 -1.42685e-20 253.98 -0.0029802 -8.19013e-05 2.3185 0.00307481 1.21255e-06)
(-1.58286e-14 -1.48717e-18 1.42685e-20 253.993 1.23931e-19 -2.20744e-06 2.3186 0 -7.70515e-05)
(0 2.16022e-18 7.22157e-19 255.234 0.00207933 -5.75346e-05 2.37306 -0.00374569 2.6437e-07)
(1.64418e-14 -7.88861e-31 -1.68767e-20 255.244 -1.13393e-19 -1.57317e-05 2.37314 -4.33681e-19 -7.66474e-05)
(-4.26464e-15 0 -2.13428e-21 258.556 -0.00349613 -6.03293e-05 2.44881 0.00335486 1.01312e-06)
(0 -1.92593e-34 -5.54495e-21 258.563 -1.14842e-16 -1.61292e-06 2.44887 -4.33681e-19 -7.46136e-05)
(-4.42158e-15 -2.79833e-18 5.94256e-18 263.79 0.00267273 -2.22639e-05 2.54232 -0.00402673 1.05299e-07)
(0 0 1.36637e-20 263.795 1.37547e-17 0.000313384 2.54235 4.33681e-19 -7.44384e-05)
(-4.5836e-15 3.44777e-18 -9.75301e-21 270.282 -0.00425746 -3.3507e-05 2.64606 0.00394221 2.25226e-06)
(-1.83343e-14 -2.47101e-18 2.69357e-21 270.285 -4.63314e-19 6.84047e-06 2.64608 0 -7.07815e-05)
(1.03205e-14 2.03901e-18 7.06823e-21 277.124 0.00330187 -9.21572e-19 2.751 -0.00493412 0)
(-5.56787e-15 -3.46667e-33 -7.9649e-21 277.126 1.11022e-16 0.0010464 2.75101 -2.8297e-34 -7.27386e-05)
(1.0418e-14 -5.35944e-18 1.05724e-20 283.438 -0.00504461 1.09831e-05 2.8492 0.00585259 7.09569e-06)
(-5.48807e-15 -7.70372e-34 -1.04677e-20 283.438 0 2.17401e-05 2.8492 8.67362e-19 -6.29624e-05)
(-5.11553e-15 -1.32066e-18 0 288.621 0.00401232 -4.74338e-19 2.93624 -0.00789204 1.28418e-50)
(-5.40941e-15 1.02796e-18 2.57941e-21 288.62 2.22302e-16 0.000435612 2.93622 8.67362e-19 -7.16092e-05)
(0 7.81037e-18 -5.08488e-21 292.579 -0.00571421 6.64017e-05 3.01373 0.00918442 5.2653e-06)
(0 -1.34707e-18 5.08488e-21 292.577 -5.55112e-16 2.76719e-05 3.01369 0 -5.93132e-05)
(-5.5068e-15 -1.28307e-18 1.00349e-17 295.925 0.00467663 4.33681e-19 3.09176 -0.0116644 0)
(1.67717e-14 0 0 295.919 -7.75642e-19 -0.00031771 3.09169 -1.73472e-18 -7.10586e-05)
(0 -1.51762e-17 4.94016e-21 300.085 -0.00622831 0.000114867 3.18973 0.0125971 7.69588e-06)
(2.28309e-14 6.31089e-30 -4.94016e-21 300.076 -6.67045e-16 2.27217e-05 3.18961 1.51872e-29 -6.09677e-05)
(-4.30271e-15 -7.47933e-18 2.53546e-17 307.167 0.00527977 9.77035e-19 3.33379 -0.0147733 0)
(-1.34245e-14 7.92737e-18 1.46081e-20 307.153 0 -0.000725354 3.33361 -1.73472e-18 -7.10148e-05)
(6.11038e-15 -7.37213e-18 5.96042e-21 319.466 -0.0066569 0.000145038 3.55007 0.0149564 4.85521e-06)
(0 0 -4.79957e-21 319.446 -3.88578e-16 1.19999e-05 3.54982 -1.73472e-18 -6.58512e-05)
(-6.31422e-15 4.84431e-18 5.46334e-18 338.762 0.00580721 1.16004e-05 3.85625 -0.0164091 6.33854e-08)
(0 0 -9.46155e-21 338.736 4.04716e-16 -0.000302775 3.85593 1.34457e-33 -7.1358e-05)
(6.52629e-15 7.16232e-18 -2.94144e-21 365.721 -0.00717129 0.000161178 4.25619 0.016314 3.53567e-06)
(2.61053e-14 -2.77334e-32 0 365.689 -4.16334e-16 7.48835e-06 4.2558 0 -6.83624e-05)
(9.6388e-15 4.70645e-18 6.9425e-18 399.76 0.00640029 4.87891e-19 4.74055 -0.0174985 0)
(1.73789e-14 3.08149e-33 -9.19228e-21 399.723 8.32667e-16 0.000134881 4.7401 -5.23221e-33 -7.20093e-05)
(-7.00682e-15 0 -1.59828e-21 439.383 -0.0077992 0.000176875 5.2918 0.0175263 4.47269e-06)
(0 -7.70372e-34 0 439.343 0 9.31422e-06 5.29133 0 -6.81709e-05)
(-7.29057e-15 0 -3.76158e-37 482.836 0.00708208 0 5.89291 -0.0188468 0)
(0 3.04297e-32 -4.46533e-21 482.796 4.39985e-16 0.00336852 5.89245 3.53471e-34 -7.2971e-05)
(0 -4.50697e-18 0 528.626 -0.00766613 0.000216828 6.53034 0.0221712 -5.65799e-10)
(0 4.62223e-32 -6.226e-21 528.589 -6.69288e-16 -1.05032e-18 6.52993 -3.46945e-18 -4.4863e-05)
(-7.9732e-15 4.44237e-18 1.73058e-17 575.278 0.00765302 -6.48987e-19 7.18551 -0.0268828 -3.38813e-21)
(0 1.54074e-33 -8.67651e-21 575.247 -6.16503e-34 -0.00177915 7.1852 -6.93889e-18 -7.44573e-05)
(-8.96758e-15 2.62722e-17 -8.55215e-21 620.326 -0.00704977 0.00032534 7.81885 0.0283375 7.32842e-06)
(-3.35355e-14 -2.00567e-17 4.27607e-21 620.308 -5.57117e-16 9.84741e-05 7.81871 0 -5.98055e-05)
(-1.76916e-14 2.58957e-17 5.41426e-18 658.974 0.00718329 0.000503498 8.35101 -0.0311896 3.08796e-06)
(3.54101e-14 0 -1.68591e-20 658.974 1.2725e-15 -0.000835493 8.35115 -9.12252e-30 -7.63825e-05)
(0 2.55245e-17 -2.07719e-20 682.919 -0.00672717 0.000624029 8.64818 0.0314834 1.25114e-05)
(0 -7.70372e-34 2.07719e-20 682.946 -9.98577e-31 0.000235301 8.64871 -6.17423e-34 -6.97406e-05)
(-1.00089e-14 -1.67724e-17 -1.47972e-20 679.894 0.00462724 0.000819277 8.51869 -0.0331546 8.14442e-06)
(4.00348e-14 -3.08149e-33 1.22845e-20 679.955 7.17836e-16 0.00104898 8.51971 0 -7.94465e-05)
(2.1417e-14 -1.65321e-17 8.07229e-21 634.763 -0.00741948 0.00125901 7.73697 0.0337754 1.52455e-05)
(4.2833e-14 -5.54668e-32 -8.07229e-21 634.867 -7.74772e-16 0.000414373 7.7386 9.88255e-33 -6.87665e-05)
(1.66862e-14 8.14755e-18 1.59132e-20 532.473 0.000628142 0.00157267 6.09034 -0.0358343 1.65945e-05)
(0 -5.23853e-32 -1.59132e-20 532.625 7.77156e-16 0.00133735 6.09265 -2.2614e-33 -8.57668e-05)
(4.18344e-15 -8.03078e-18 0 362.383 -0.00697863 0.00211354 3.44601 0.0368694 1.65441e-05)
(-1.6447e-14 1.07852e-31 0 362.584 -1.55691e-15 0.000428038 3.449 6.93889e-18 -7.08483e-05)
(-2.57725e-12 -1.58314e-17 -3.61183e-20 0.0803544 -0.00175315 0.00239059 0.000537405 -0.0395213 2.45461e-05)
(0 0 4.63809e-20 1.42109e-14 -1.8786e-33 0.000724732 -7.82026e-30 3.75719e-33 -9.80184e-05)
(3.01252e-12 0 0 -26.6582 -0.0023625 0.00265598 0.180881 0.0408118 2.73773e-05)
(0 0 0 -26.1242 -2.87396e-18 0.000123069 0.177257 6.93889e-18 -8.25538e-05)
(-1.20134e-14 7.6904e-18 1.01356e-20 -506.706 -0.00147514 0.00266866 4.58919 -0.0438993 2.5617e-05)
(4.8056e-14 6.16298e-33 -3.00406e-20 -506.397 8.74831e-16 -0.000681273 4.58507 5.47751e-33 -0.000116467)
(-1.06941e-14 1.51604e-17 -1.6126e-20 -840.168 0.00460614 0.00236648 9.39789 0.0450554 4.06008e-05)
(0 -6.18497e-32 0 -839.85 -8.91348e-16 -0.000347564 9.39348 0 -0.000106256)
(-1.81237e-14 -2.98861e-17 -4.6462e-20 -1138.67 -0.00174189 0.00206694 14.1069 -0.048014 1.78161e-05)
(-3.62502e-14 2.63734e-17 2.91857e-20 -1138.36 3.29668e-18 -0.0018334 14.1024 -6.93889e-18 -0.000136786)
(-1.44643e-14 -5.15511e-17 5.62068e-20 -1370.34 0.0088926 0.0013464 18.1948 0.0486793 2.09209e-05)
(5.78628e-14 0 -5.75347e-20 -1370.06 -9.40268e-16 -0.000627124 18.1905 4.82566e-30 -0.000134912)
(-1.60138e-14 -5.80712e-17 -1.22026e-19 -1514.13 -0.00518144 0.000769713 21.23 -0.050981 5.61356e-06)
(-2.87874e-14 1.4011e-17 8.50652e-20 -1513.9 1.92815e-15 -0.00153721 21.2263 0 -0.000152639)
(-3.5062e-15 -5.0084e-17 1.3221e-20 -1562.89 0.00910543 -1.76183e-18 22.9531 0.0511485 0)
(1.4027e-14 0 -8.3846e-20 -1562.73 9.78634e-16 0.00171238 22.9501 3.08192e-30 -0.000154537)
(-5.38135e-15 2.11569e-17 3.73452e-20 -1522.79 -0.00934497 -0.000421822 23.3055 -0.0513095 9.96363e-06)
(7.22156e-15 0 -2.75481e-20 -1522.7 3.48069e-17 0.000438128 23.3035 -1.38778e-17 -0.000141057)
(0 -5.56098e-17 1.50968e-17 -1409.99 0.00766413 -0.000347897 22.4125 0.0509309 2.64954e-06)
(1.63692e-15 3.15544e-30 -6.78831e-20 -1409.98 8.88178e-16 0.00090052 22.4118 6.93889e-18 -0.000150926)
(0 6.8516e-18 4.01461e-20 -1245.72 -0.0111431 -0.000850679 15.096 -0.0508779 2.06409e-05)
(0 0 -4.01461e-20 -1245.8 -8.88178e-16 0.000185089 15.097 6.93889e-18 -0.000131336)
(-8.64435e-16 6.7534e-18 6.18422e-18 -1051.54 0.00656734 -0.000706923 6.11794 0.0502139 5.54154e-06)
(0 0 1.31902e-20 -1051.71 -1.21578e-31 0.00468633 6.11882 -6.93889e-18 -0.000146646)
(0 -3.3283e-18 -2.60024e-20 -845.99 -0.00949027 -0.000851721 -1.38044 -0.0502298 2.22804e-05)
(0 4.1513e-13 2.60024e-20 -846.242 8.88178e-16 0.000223133 -1.37969 0 1.11684e-09)
(0 0 -1.95553e-20 -642.937 0.00665672 -0.000580934 -7.32887 0.0495368 4.68731e-06)
(0 0 0 -643.235 5.60691e-17 -0.00527943 -7.32827 0 -4.8775e-05)
(0 1.21259e-18 5.05247e-20 -451.433 -0.00756388 -0.000662834 -5.92709 -0.0497011 1.91582e-05)
(-3.22753e-15 0 -5.05247e-20 -451.738 -8.32667e-17 -0.000110789 -5.93209 -2.50341e-30 -3.53107e-05)
(0 1.19521e-18 3.74786e-18 -276.593 0.00610823 -0.00029195 -3.24188 0.0491152 2.42462e-06)
(-3.10033e-15 0 0 -276.888 -5.50984e-17 -0.000357106 -3.24666 4.33681e-19 -4.35048e-05)
(-4.00162e-13 0 -1.77119e-20 -96.3794 -0.00605767 -0.000447163 -0.812064 -0.0494177 1.48888e-05)
(0 0 0 -96.9111 1.38778e-17 -0.000112158 -0.816544 2.1684e-19 -3.28591e-05)
(-4.64642e-15 7.74132e-19 1.00102e-17 0 0.00534666 -8.76609e-06 0 0.0489703 7.49344e-08)
(9.63996e-13 -5.45293e-15 1.20958e-20 0.0553111 0 -0.000356927 -0.000472811 0 -3.98526e-05)
(0 -1.90759e-19 1.19224e-20 131.352 -0.00507352 -0.000254183 -1.34576 -0.0493858 1.08597e-05)
(0 3.02376e-15 -1.19224e-20 131.12 -0.0229259 -0.000104182 -1.34159 -0.000198825 -3.21506e-05)
(0 -1.88025e-19 0 228.336 0.00445936 -9.26544e-21 -3.22439 0.0490675 1.35525e-20)
(0 1.54074e-33 -2.35031e-20 228.125 -2.10304e-17 -0.000308215 -3.22052 -2.1684e-19 -3.77454e-05)
(-1.03163e-15 -9.26651e-20 9.81706e-21 307.059 -0.00426431 -8.2746e-05 -4.82332 -0.0495837 7.13929e-06)
(0 9.26651e-20 -3.47494e-20 306.867 -0.0457734 -9.14029e-05 -4.81974 -0.000710618 -3.26688e-05)
(3.91622e-16 3.65348e-19 -2.76852e-34 368.856 0.00369044 -2.05828e-18 -6.15017 0.0493753 1.35525e-20)
(0 -2.14557e-15 2.28342e-20 368.687 -1.37232e-17 -0.000259121 -6.14691 0 -3.70428e-05)
(0 0 0 415.412 -0.00351771 -0.00069608 -5.363 -0.0381753 -3.64523e-05)
(0 0 -6.98644e-22 415.271 -0.0266676 -3.49322e-22 -5.36345 -0.000375025 2.11758e-22)
(0 -2.66213e-19 6.48221e-17 448.748 0.00315651 4.42259e-19 -1.33663 0.0285099 0)
(-1.81735e-16 0 -2.21844e-20 448.647 -1.17308e-19 -0.000203088 -1.33714 2.1684e-19 -3.7607e-05)
(0 4.37329e-19 -1.09332e-20 471.089 -0.00288391 0.000168399 3.00455 -0.0218658 -2.24467e-05)
(0 -3.0613e-19 1.09332e-20 471.035 -0.0128114 4.01915e-05 3.004 -0.00017996 -2.00154e-05)
(0 6.89697e-19 1.77606e-20 484.604 0.00268313 0 7.57493 0.0139938 0)
(0 -6.45516e-19 4.31061e-20 484.59 1.06029e-17 -4.85809e-05 7.57435 0 -3.82609e-05)
(0 0 0 491.155 -0.00232645 -0.00661237 9.6657 -0.00405914 -3.89646e-05)
(0 1.91197e-19 6.63879e-22 491.17 -0.00347169 4.54519e-05 9.66625 -8.67304e-05 8.37996e-07)
(1.72285e-15 -7.53827e-19 -1.63591e-21 492.121 0.00235976 -5.50029e-07 9.77539 0.00353187 -5.85178e-06)
(1.34157e-15 0 9.62965e-35 492.157 8.82341e-20 2.7138e-22 9.77628 1.0842e-19 0)
(-1.69741e-15 4.1279e-19 3.22492e-22 488.302 -0.00192613 0.000270901 9.79469 -0.0041455 -8.41886e-06)
(-1.21992e-14 -2.68314e-19 -8.23799e-22 488.353 -0.00138921 -4.94429e-06 9.79583 -6.7699e-05 3.13113e-07)
(7.72064e-15 -4.88249e-19 6.51005e-18 479.923 0.00194049 -3.32823e-22 9.71856 0.00276152 0)
(4.21657e-15 9.62965e-35 0 479.983 4.33681e-19 1.25203e-05 9.71988 1.0842e-19 -5.52026e-07)
(-3.08778e-15 6.6172e-19 -6.26629e-22 466.726 -0.00167039 3.10936e-05 9.53328 -0.00329019 -2.94242e-07)
(1.235e-14 -6.6172e-19 6.26629e-22 466.793 -0.00272479 4.46049e-05 9.53473 -2.28789e-05 6.09698e-08)
(-3.79275e-15 0 0 448.156 0.00154517 0.00012647 9.2204 0.00268097 1.58294e-06)
(0 -1.31972e-16 0 448.228 7.72581e-18 0.000152412 9.22195 -1.0842e-19 -3.99618e-07)
(-4.49635e-15 -6.81851e-20 0 423.57 -0.0014949 0.000136777 8.76105 -0.00318147 -1.07943e-06)
(0 2.7274e-19 0 423.645 -0.00240322 0.000201346 8.76267 1.39703e-05 3.71834e-08)
(4.87718e-15 -7.68089e-19 0 392.478 0.00118736 0.000220692 8.14137 0.00254311 1.23662e-06)
(1.06925e-14 0 0 392.554 -7.54092e-20 0.000220248 8.14304 0 -2.66692e-08)
(5.86407e-15 -4.73175e-19 0 354.765 -0.001345 0.000234249 7.35754 -0.00301912 -1.38976e-06)
(0 4.73175e-19 0 354.843 -0.00211164 0.000234919 7.35924 4.32282e-05 3.24289e-08)
(0 -2.98492e-19 2.33197e-21 310.864 0.000945558 0.000231288 6.41916 0.00234916 1.52566e-06)
(0 -1.73334e-33 0 310.941 6.35913e-18 0.000230892 6.42087 5.69581e-35 -1.82882e-08)
(2.54203e-15 -3.40184e-19 0 261.798 -0.00115703 0.000217547 5.34981 -0.0028073 -1.64439e-06)
(-9.64079e-15 6.11413e-19 0 261.873 -0.00180546 0.000218133 5.3515 6.78302e-05 2.47571e-08)
(0 -1.15999e-18 4.5312e-21 209.145 0.000794438 0.00018643 4.18677 0.00211011 1.74255e-06)
(6.10493e-14 2.46519e-32 0 209.218 5.63785e-18 0.000186061 4.1884 1.85042e-32 -7.90733e-09)
(-9.36642e-15 6.69938e-20 -4.46626e-21 154.959 -0.000881231 0.000148231 2.97939 -0.00255707 -1.81512e-06)
(3.23572e-14 2.03215e-19 0 155.027 -0.0014276 0.00014874 2.98092 9.00961e-05 1.52156e-08)
(-1.76946e-14 7.74795e-19 -4.40224e-21 101.558 0.000741001 0.000101 1.78268 0.00184332 1.8669e-06)
(-3.38488e-14 -1.13677e-16 0 101.621 -1.26019e-19 0.000100653 1.7841 0 3.11859e-09)
(-8.74298e-15 5.46733e-19 2.61635e-19 51.271 -0.000632664 3.29872e-05 0.652637 -0.0022828 -1.89019e-06)
(-3.49711e-14 -3.38453e-19 -1.95324e-18 51.3272 -0.00109065 1.36861e-05 0.653899 0.000112385 5.2714e-09)
(1.43003e-13 3.42156e-19 8.49535e-21 7.52281e-13 0.000722128 1.0398e-05 7.10543e-15 0.00156553 1.25689e-07)
(0 -2.73725e-19 0 0.0463569 4.65026e-18 1.04424e-05 0.000560351 0 1.33644e-08)
(5.83204e-14 4.72154e-19 2.73149e-19 -29.2585 -0.000468261 -1.22934e-05 0.358812 -0.00200053 -1.87431e-06)
(-8.3607e-14 -2.69802e-19 -5.12927e-25 -29.1701 -0.000850011 0 0.357729 0.000135472 -3.69603e-09)
(-8.82596e-15 9.64015e-19 -8.23989e-21 -61.6945 0.000664834 -5.14609e-05 1.20898 0.00129104 1.33127e-06)
(0 0 4.15524e-21 -61.6635 1.1525e-19 -5.17612e-05 1.20809 0 2.16429e-08)
(-8.58926e-15 -1.49083e-18 0 -82.6842 -0.000371908 -6.56419e-05 1.86614 -0.00172583 -1.78398e-06)
(7.56436e-14 1.49083e-18 0 -82.6625 -0.000688747 -6.53245e-05 1.86548 0.000158196 -1.06717e-08)
(0 -3.55254e-19 4.03698e-21 -94.6991 0.000524727 -7.23661e-05 2.31188 0.0010312 1.71995e-06)
(6.5276e-14 0 0 -94.6869 4.55597e-18 -7.26341e-05 2.31145 -5.42101e-20 2.73547e-08)
(-1.59027e-14 7.95824e-20 0 -98.1025 -0.000332158 -6.96011e-05 2.54075 -0.00147173 -1.64101e-06)
(0 -7.95824e-20 0 -98.0995 -0.000594241 -6.93288e-05 2.54056 0.000178051 -1.51882e-08)
(-7.77152e-15 6.27534e-20 0 -93.6134 0.000389598 -6.32305e-05 2.55777 0.000793527 1.55788e-06)
(6.21723e-14 -1.15556e-33 0 -93.6191 -4.01155e-18 -6.34587e-05 2.55781 -7.6493e-35 3.04646e-08)
(-4.75619e-16 -5.41222e-19 -3.86587e-21 -82.2014 -0.000314881 -5.2629e-05 2.37677 -0.00124515 -1.46651e-06)
(8.10732e-15 5.41222e-19 3.86587e-21 -82.215 -0.000531483 -5.23876e-05 2.37703 0.000194635 -1.72657e-08)
(-7.5415e-15 0 0 -64.9745 0.000299856 -4.19237e-05 2.0178 0.000582526 1.37312e-06)
(0 0 0 -64.9949 5.92265e-35 -4.2105e-05 2.01826 0 3.13886e-08)
(-7.50828e-15 5.32872e-19 0 -43.1082 -0.000281084 -2.97443e-05 1.50469 -0.000672843 -1.27789e-06)
(3.00328e-14 -4.80749e-19 0 -43.1339 -0.000460086 -2.95191e-05 1.50533 0.000208705 -1.72348e-08)
(-1.83437e-13 2.96162e-19 -3.74599e-21 -8.9548 0.000257099 -1.79755e-05 0.864203 0.000400645 8.63947e-07)
(2.23846e-14 2.40741e-35 0 -9.01667 3.46945e-18 -1.81045e-05 0.864978 5.42101e-20 3.07776e-08)
(-1.51076e-14 2.3664e-19 0 0.0209865 -0.000212757 -3.16296e-06 0.681779 -2.85804e-05 -1.08821e-06)
(9.44911e-17 0 0 1.51078e-14 -0.000361022 -1.863e-06 0.68088 0.000204288 -1.55751e-08)
(-7.48441e-15 4.02826e-19 -2.94448e-23 38.2307 0.000212467 1.2691e-05 1.52241 0.000248706 7.79321e-07)
(-7.54275e-15 -1.22984e-17 -3.59666e-21 38.1998 -3.30682e-18 1.2619e-05 1.52154 0 2.9347e-08)
(1.48693e-14 -3.05059e-18 0 66.4568 0 3.27402e-05 2.36022 0 -9.06419e-07)
(-2.98954e-14 3.77271e-19 3.54511e-21 66.428 -0.000278002 3.29709e-05 2.35942 0.000170849 -1.27645e-08)
(2.21834e-14 -4.75225e-19 -3.4943e-21 93.0975 0.000203878 5.70946e-05 3.15509 0.000124874 8.13926e-07)
(1.54529e-14 0 3.4943e-21 93.0726 0 5.70812e-05 3.15441 0 2.76875e-08)
(1.48707e-14 -5.18802e-18 -6.88844e-21 116.83 -5.80048e-18 8.44928e-05 3.86467 0 -7.40027e-07)
(-3.78138e-14 4.12961e-19 6.88844e-21 116.811 -0.000278337 8.47389e-05 3.86416 0.000142123 -9.1679e-09)
(-7.83504e-15 3.53065e-19 0 136.372 0.000143064 0.000111694 4.44656 2.42126e-05 6.52874e-07)
(1.71011e-14 8.1852e-34 0 136.359 -2.92735e-18 0.000111738 4.44625 5.42101e-20 2.62816e-08)
(-7.01749e-15 -6.71878e-19 0 150.551 2.71051e-20 0.000141335 4.86046 -1.0842e-19 -5.92799e-07)
(0 -3.48005e-19 -3.3462e-21 150.544 -0.000214932 0.000141599 4.86035 0.000116456 -5.08504e-09)
(-1.38338e-14 4.48561e-19 -3.29824e-21 158.388 9.68287e-05 0.000170848 5.0718 -5.43553e-05 5.11592e-07)
(3.3576e-14 4.81482e-35 -6.59648e-21 158.388 -2.71051e-20 0.000170942 5.0719 -4.16609e-35 2.54153e-08)
(8.74825e-15 -2.64225e-18 0 159.212 -4.10642e-18 0.000202066 5.05563 0 -4.66944e-07)
(0 4.16124e-19 0 159.218 -0.000169402 0.000202341 5.05591 9.70884e-05 -7.49019e-10)
(0 4.87065e-19 6.40874e-21 152.75 0.000110512 0.000236097 4.8003 -5.70985e-05 3.91412e-07)
(-4.99776e-14 -5.20971e-18 -6.40874e-21 152.761 -8.59945e-20 0.000236227 4.80075 5.42101e-20 2.51327e-08)
(-1.32475e-14 -3.02796e-19 -6.31689e-21 139.194 3.54399e-18 0.000276477 4.30968 -5.42101e-20 -3.6267e-07)
(0 2.0214e-19 0 139.209 -0.000104332 0.000276752 4.31026 7.94073e-05 3.673e-09)
(0 5.23014e-19 0 119.234 0.00015304 0.000326527 3.60545 -4.8766e-05 2.91954e-07)
(0 -5.95178e-18 0 119.253 1.69743e-19 0.000326672 3.60613 0 2.53301e-08)
(1.03047e-14 9.62965e-35 0 94.0469 1.02922e-32 0.000390491 2.72617 -7.94812e-35 -2.7856e-07)
(0 -8.83744e-19 0 94.0677 -3.9289e-05 0.000390749 2.7269 6.28396e-05 7.97796e-09)
(1.06328e-14 4.63297e-19 0 65.2111 0.000170383 0.000470531 1.72519 -4.08731e-05 2.11661e-07)
(0 -6.00946e-18 -1.20983e-20 65.2328 -2.49366e-18 0.00047067 1.72594 0 2.57619e-08)
(-2.1799e-14 0 0 34.5844 5.4678e-18 0.000568627 0.666135 5.26354e-35 -2.12232e-07)
(4.35975e-14 1.25228e-19 0 34.6058 -1.66138e-05 0.000568853 0.666871 4.91415e-05 1.19633e-08)
(2.14037e-14 2.47975e-20 0 0.0101866 9.97515e-05 0.000681003 0.000179219 -3.23973e-05 1.48386e-07)
(0 0 0 0.0227138 -1.17446e-34 0.000681118 0.000399617 0 2.61948e-08)
(7.77111e-14 -4.20049e-19 0 -21.4885 -2.47672e-18 0.000804072 0.383557 0 -1.61006e-07)
(-1.21483e-14 -3.24395e-19 0 -21.4499 -7.23762e-05 0.000804255 0.382868 4.17426e-05 1.54255e-08)
(0 4.79618e-19 0 -49.0779 -5.53037e-05 0.000927233 1.3584 -2.84769e-05 9.97688e-08)
(-1.19742e-14 -4.1671e-20 -2.2839e-20 -49.0622 -2.22736e-18 0.000927318 1.35778 5.42101e-20 2.64633e-08)
(-1.18026e-14 -2.5105e-18 0 -69.0356 1.12106e-19 0.00103797 2.2027 0 -1.22314e-07)
(-1.18026e-14 -3.37674e-19 -2.25116e-20 -69.023 -0.00023538 0.00103812 2.20218 4.15882e-05 1.82759e-08)
(0 4.65968e-19 0 -83.5042 -0.000224192 0.00112266 2.87553 -3.14298e-05 6.33736e-08)
(8.1328e-14 0 -2.2189e-20 -83.4949 -2.1413e-18 0.00112272 2.87512 1.88161e-33 2.65752e-08)
(-1.97337e-14 -1.20371e-35 0 -92.3609 5.42101e-20 0.00116522 3.35381 -5.42101e-20 -9.38569e-08)
(3.94676e-14 1.26066e-19 0 -92.3549 -0.0004146 0.00116533 3.35353 4.22476e-05 2.05604e-08)
(9.57567e-15 -3.55932e-19 2.15575e-20 -95.9993 -0.000387409 0.00114969 3.63457 -3.30587e-05 3.67386e-08)
(1.13023e-14 0 0 -95.9963 0 0.00114975 3.63441 0 2.6666e-08)
(0 -5.36809e-18 0 -95.2232 -5.02833e-05 0.00106648 3.73331 -9.78736e-07 -7.36472e-08)
(-4.83522e-14 -1.81641e-19 -4.2497e-20 -95.2228 -0.000474379 0.00106658 3.73325 4.20365e-05 2.24872e-08)
(-9.05493e-15 -7.80485e-19 0 -91.1073 -0.000362237 0.000912158 3.68018 -2.78282e-05 1.7542e-08)
(3.62199e-14 0 0 -91.1089 7.14642e-20 0.000912222 3.68021 0 2.69419e-08)
(0 -4.11415e-18 0 -84.8555 -2.22261e-18 0.000689869 3.51519 0 -5.99727e-08)
(-1.08233e-14 -3.303e-19 -4.12875e-20 -84.8584 -0.000364182 0.000689975 3.51529 3.53305e-05 2.42844e-08)
(0 -3.25566e-19 0 -77.6603 -0.000161328 0.000411041 3.28333 -1.47283e-05 3.83885e-09)
(0 -9.62965e-35 0 -77.6638 -3.30682e-18 0.000411123 3.28347 1.29897e-34 2.75793e-08)
(-8.46339e-15 1.22778e-33 0 -70.5701 4.46081e-18 8.64664e-06 3.02891 -5.42101e-20 -5.14525e-08)
(0 0 -3.7636e-36 -70.5736 -6.60103e-05 -1.35598e-20 3.02906 2.10347e-05 -3.30872e-24)
(-1.66057e-14 -1.12352e-18 6.61398e-19 -64.4002 0.000170785 -0.000133496 2.79042 -1.21457e-05 -5.80396e-09)
(6.6423e-14 0 4.94908e-18 -64.403 1.43857e-18 -0.000133887 2.79055 1.33733e-33 2.86629e-08)
(0 -2.2006e-18 0 -59.6928 9.77002e-05 -0.000532076 2.59755 -2.07374e-06 -4.69369e-08)
(0 -2.1434e-19 0 -59.6948 0.000259251 -0.000531949 2.59765 2.5463e-05 2.79861e-08)
(-1.00696e-14 3.26505e-19 -3.84124e-20 -56.712 0.000428231 -0.000792651 2.46959 -2.28096e-05 -1.22535e-08)
(-1.00696e-14 -1.92062e-19 -3.84124e-20 -56.7128 0.000407067 -0.000792552 2.46965 9.48511e-06 3.02407e-08)
(-2.35073e-14 -1.11407e-18 0 -55.4629 0.000459067 -0.000989469 2.41501 -1.40134e-05 -4.55434e-08)
(6.26864e-14 1.54183e-18 3.78618e-20 -55.4625 0.000427203 -0.000989349 2.41502 2.79814e-05 2.97207e-08)
(0 -1.28751e-18 0 -55.7358 0.000483258 -0.0011116 2.43198 -2.61921e-05 -1.5703e-08)
(6.13177e-14 1.57391e-18 0 -55.7344 0.00045964 -0.0011115 2.43194 1.26597e-05 3.19477e-08)
(2.16313e-15 5.13355e-19 0 -57.1683 0.000403621 -0.00115767 2.51013 -1.65843e-05 -4.71298e-08)
(-9.64278e-15 -3.31059e-19 0 -57.1662 0.000371613 -0.00115757 2.51005 2.08256e-05 3.12175e-08)
(7.2799e-15 -1.39301e-18 -1.81285e-20 -59.3088 0.000346908 -0.00113412 2.63301 -1.9744e-05 -1.57291e-08)
(5.82396e-14 1.66953e-18 1.81285e-20 -59.3061 0.000321145 -0.00113405 2.6329 8.39149e-06 3.36152e-08)
(0 -8.75567e-19 0 -61.6784 0.000212264 -0.0010537 2.78041 -1.1857e-05 -5.1855e-08)
(2.82663e-14 1.03351e-18 0 -61.6756 0.00017989 -0.00105362 2.78028 8.2626e-06 3.22715e-08)
(6.84222e-15 -5.09275e-19 0 -63.8336 0.000109253 -0.000935037 2.93113 -7.76581e-06 -1.13448e-08)
(0 -9.62965e-35 0 -63.8308 -1.73472e-18 -0.000934987 2.93099 -6.59945e-35 3.50981e-08)
(1.32216e-14 7.19974e-20 0 -65.4064 1.12671e-05 -0.000795218 3.06577 -2.45805e-06 -6.09655e-08)
(1.73417e-14 -4.38501e-20 0 -65.404 -2.16241e-05 -0.000795165 3.06564 6.65776e-07 3.27605e-08)
(0 3.42227e-19 8.55568e-21 -66.1284 -6.2021e-05 -0.000575876 3.16797 -4.6071e-06 -8.81751e-10)
(-8.97128e-15 -9.7748e-19 -8.55568e-21 -66.1266 -5.79309e-05 -0.000650011 3.16786 1.40022e-06 3.64251e-08)
(0 -3.37322e-19 8.43305e-21 -65.8481 -0.000113417 -0.000186719 3.22588 -6.5316e-06 1.72897e-06)
(2.45799e-14 6.30696e-19 0 -65.847 -0.000146954 -0.000512059 3.22581 7.49515e-06 3.27675e-08)
(3.12322e-15 -5.68614e-19 1.55394e-21 -64.5305 -0.000135996 5.23087e-05 3.23308 -7.00531e-06 2.43038e-06)
(8.71596e-15 4.98731e-19 0 -64.5302 -0.000167217 -0.000216802 3.23304 6.91509e-06 -4.19402e-06)
(5.70457e-15 -9.83244e-19 9.54326e-21 -62.2394 -0.000137663 5.33922e-05 3.18831 -6.8925e-06 2.96401e-06)
(2.28185e-14 1.10324e-18 -8.19305e-21 -62.2398 -0.000172012 2.078e-05 3.18831 9.74583e-06 -4.51834e-06)
(0 -9.52923e-19 0 -59.1184 -0.000129158 5.2141e-05 3.09479 -6.33301e-06 2.37249e-06)
(2.20114e-14 1.10374e-18 0 -59.1195 -0.000161998 2.85034e-05 3.09483 7.6053e-06 -4.76075e-06)
(-5.31618e-15 3.29109e-20 -2.22818e-21 -55.3709 -0.000108581 5.34953e-05 2.95969 -4.9405e-06 3.19259e-06)
(-2.12648e-14 5.79941e-20 0 -55.3727 -0.000143828 2.83373e-05 2.95977 8.99805e-06 -4.86336e-06)
(-1.33724e-14 7.1119e-21 -1.05697e-20 -51.2322 -8.64175e-05 5.1202e-05 2.79318 -4.16488e-06 2.19845e-06)
(0 2.03991e-19 0 -51.2344 -0.000120793 2.799e-05 2.79329 5.92618e-06 -5.15241e-06)
(-4.99044e-15 9.39645e-20 -2.72576e-21 -46.9454 -7.04639e-05 5.29005e-05 2.60688 -3.36638e-06 3.46911e-06)
(-1.99618e-14 -7.79279e-21 0 -46.9478 -0.000106688 2.75408e-05 2.60701 6.81543e-06 -5.20832e-06)