/*--------------------------------*- C++ -*----------------------------------*\
| =========                 |                                                 |
| \\      /  F ield         | OpenFOAM: The Open Source CFD Toolbox           |
|  \\    /   O peration     | Version:  2012                                  |
|   \\  /    A nd           | Website:  www.openfoam.com                      |
|    \\/     M anipulation  |                                                 |
\*---------------------------------------------------------------------------*/
FoamFile
{
    version     2.0;
    format      ascii;
    class       volScalarField;
    location    "14000";
    object      k;
}
// * * * * * * * * * * * * * * * * * * * * * * * * * * * * * * * * * * * * * //

dimensions      [0 2 -2 0 0 0 0];


internalField   nonuniform List<scalar> 
2560
(
0.00252855
0.00252718
0.0700403
0.0700056
0.496085
0.495853
1.68639
1.68571
3.55965
3.55853
5.56674
5.56537
7.4273
7.4258
9.11297
9.11138
10.6553
10.6537
12.0875
12.0858
13.4351
13.4334
14.7173
14.7155
15.9482
15.9464
17.1387
17.1369
18.2973
18.2954
19.4306
19.4286
20.5441
20.5421
21.6426
21.6406
22.7299
22.7279
23.8095
23.8073
24.8841
24.8819
25.9563
25.9541
27.0285
27.0262
28.1025
28.1002
29.1804
29.178
30.2638
30.2614
31.3544
31.352
32.4538
32.4513
33.5634
33.5609
34.6849
34.6823
35.8196
35.817
36.969
36.9663
38.1344
38.1316
39.3171
39.3143
40.5183
40.5155
41.7391
41.7361
42.9803
42.9773
44.2429
44.2399
45.5279
45.5248
46.8363
46.8331
48.1693
48.166
49.528
49.5247
50.9137
50.9102
52.3271
52.3236
53.7689
53.7653
55.2387
55.2351
56.7354
56.7317
58.2566
58.2527
59.7986
59.7947
61.3566
61.3526
62.9243
62.9202
64.4944
64.4902
66.0586
66.0544
67.6091
67.6048
69.1408
69.1364
70.6555
70.6509
72.1658
72.161
73.6974
73.6925
75.2842
75.2791
76.9569
76.9514
78.7175
78.7118
80.5087
80.5028
82.2242
82.2182
83.7174
83.7115
84.836
84.8303
85.4612
85.456
85.5366
85.532
85.0757
85.0717
84.1498
84.1465
82.8653
82.8625
81.3384
81.336
79.6766
79.6746
77.9678
77.9661
76.2764
76.2747
74.6436
74.642
73.0932
73.0916
71.6293
71.6277
70.2465
70.2449
68.932
68.9305
67.6691
67.6677
66.4397
66.4384
65.2264
65.2253
64.0141
64.0132
62.7898
62.7892
61.5434
61.543
60.2668
60.2667
58.9541
58.9543
57.6014
57.6018
56.2067
56.2072
54.7701
54.7708
53.2944
53.2953
51.7854
51.7864
50.2515
50.2525
48.7038
48.7049
47.1553
47.1565
45.6196
45.6207
44.1095
44.1106
42.6357
42.6368
41.2062
41.2072
39.8251
39.8261
38.4938
38.4947
37.2108
37.2117
35.9733
35.9742
34.778
34.7789
33.6223
33.6231
32.5046
32.5054
31.4246
31.4254
30.3832
30.384
29.382
29.3827
28.4225
28.4231
27.506
27.5066
26.6323
26.6329
25.7997
25.8003
25.0047
25.0052
24.2421
24.2426
23.5055
23.506
22.7881
22.7886
22.0834
22.0839
21.3865
21.387
20.6949
20.6954
20.009
20.0095
19.3318
19.3323
18.6686
18.669
18.0253
18.0257
17.4077
17.4081
16.8196
16.8199
16.2625
16.2628
15.7355
15.7358
15.2351
15.2354
14.7569
14.7572
14.2963
14.2966
13.8497
13.85
13.4147
13.4149
12.9903
12.9905
12.5769
12.5771
12.1755
12.1757
11.7875
11.7877
11.4142
11.4144
11.0568
11.057
10.7158
10.7159
10.3914
10.3916
10.0835
10.0836
9.79145
9.79158
9.51431
9.51444
9.2509
9.25101
8.99984
8.99995
8.75976
8.75986
8.52938
8.52947
8.30769
8.30777
8.09404
8.09412
7.8882
7.88827
7.69033
7.69039
7.50095
7.501
7.32085
7.32089
7.15096
7.15099
6.99227
6.99228
6.8457
6.84571
6.71209
6.71207
6.59207
6.59204
6.48612
6.48606
6.39449
6.39441
6.31723
6.31713
6.25417
6.25405
6.20488
6.20473
6.16864
6.16845
6.14438
6.14416
6.13064
6.1304
6.12552
6.12524
6.12661
6.1263
6.13105
6.1307
6.13557
6.13519
6.13668
6.13628
6.13091
6.13049
6.11511
6.11468
6.08684
6.08641
6.04472
6.04431
5.98877
5.98841
5.92058
5.92028
5.84338
5.84317
5.76169
5.76156
5.68076
5.68069
5.60587
5.60584
5.54163
5.54162
5.49116
5.49114
5.45553
5.45551
5.43369
5.43368
5.4226
5.42263
5.41782
5.41792
5.41435
5.41453
5.40725
5.40751
5.39223
5.39254
5.36604
5.36638
5.32687
5.32722
5.27412
5.27447
5.20834
5.20867
5.13087
5.13118
5.04366
5.04395
4.949
4.94926
4.84932
4.84955
4.74703
4.74723
4.64442
4.6446
4.54361
4.54376
4.44648
4.44661
4.35468
4.35479
4.26962
4.26972
4.19251
4.19258
4.12431
4.12437
4.06579
4.06584
4.01753
4.01757
3.97987
3.9799
3.95289
3.95291
3.93641
3.93641
3.92985
3.92985
3.93226
3.93226
3.94221
3.94219
3.95775
3.95772
3.97644
3.97641
3.99541
3.99538
4.01143
4.01139
4.02112
4.02108
4.02121
4.02116
4.00878
4.00873
3.98165
3.98161
3.93865
3.93862
3.87991
3.87988
3.80695
3.80693
3.72268
3.72268
3.63113
3.63114
3.5369
3.53692
3.44449
3.44451
3.3575
3.35753
3.27837
3.27839
3.20714
3.20716
3.14233
3.14235
3.08144
3.08147
3.0217
3.02172
2.96077
2.9608
2.89737
2.8974
2.83141
2.83145
2.7639
2.76393
2.69656
2.69659
2.63136
2.63139
2.57008
2.5701
2.51399
2.51401
2.46379
2.4638
2.4196
2.41961
2.38122
2.38123
2.34829
2.3483
2.3205
2.32051
2.29768
2.29768
2.27979
2.27979
2.2669
2.2669
2.25906
2.25906
2.25622
2.25622
2.25819
2.25819
2.26457
2.26457
2.27486
2.27486
2.28853
2.28853
2.30505
2.30505
2.32396
2.32396
2.34497
2.34496
2.36788
2.36788
2.39268
2.39268
2.41947
2.41947
2.44846
2.44846
2.47991
2.47991
2.51409
2.51409
2.55127
2.55127
2.5916
2.5916
2.63519
2.63519
2.68205
2.68204
2.73211
2.73211
2.78529
2.78529
2.84151
2.84151
2.90072
2.90072
2.96287
2.96287
3.02796
3.02796
3.096
3.09599
3.167
3.167
3.24098
3.24098
3.31795
3.31795
3.39793
3.39793
3.48091
3.48091
3.56689
3.56689
3.65585
3.65585
3.74779
3.74779
3.84272
3.84272
3.94072
3.94072
4.04188
4.04188
4.14639
4.14639
4.25445
4.25445
4.3663
4.3663
4.48215
4.48215
4.60222
4.60222
4.72664
4.72664
4.85548
4.85547
4.98878
4.98877
5.12657
5.12657
5.26891
5.26891
5.4159
5.4159
5.5677
5.5677
5.72453
5.72453
5.8867
5.88669
6.05452
6.05452
6.2284
6.2284
6.40871
6.40871
6.59586
6.59586
6.79025
6.79025
6.99227
6.99227
7.20232
7.20232
7.4208
7.4208
7.64809
7.64809
7.88455
7.88455
8.13046
8.13046
8.38592
8.38592
8.65054
8.65054
8.92225
8.92225
9.19313
9.19313
9.43259
9.4326
9.41803
9.41803
0.00252766
0.00252842
0.0700183
0.0700363
0.495939
0.49606
1.68596
1.68632
3.55894
3.55955
5.56585
5.56662
7.42631
7.42718
9.11189
9.11284
10.6542
10.6552
12.0863
12.0874
13.4339
13.435
14.716
14.7172
15.9469
15.9481
17.1374
17.1386
18.2958
18.2972
19.4291
19.4304
20.5426
20.544
21.6411
21.6425
22.7283
22.7298
23.8078
23.8093
24.8824
24.884
25.9546
25.9562
27.0267
27.0283
28.1007
28.1024
29.1785
29.1803
30.2619
30.2637
31.3524
31.3543
32.4518
32.4537
33.5614
33.5633
34.6828
34.6848
35.8174
35.8195
36.9667
36.9689
38.1321
38.1343
39.3148
39.317
40.5159
40.5182
41.7366
41.739
42.9778
42.9802
44.2403
44.2428
45.5253
45.5278
46.8336
46.8362
48.1665
48.1692
49.5252
49.528
50.9107
50.9136
52.3241
52.3271
53.7658
53.7688
55.2356
55.2387
56.7322
56.7353
58.2532
58.2565
59.7952
59.7985
61.3531
61.3565
62.9207
62.9242
64.4907
64.4943
66.0549
66.0586
67.6053
67.6091
69.1369
69.1408
70.6514
70.6554
72.1616
72.1657
73.6931
73.6974
75.2796
75.2842
76.952
76.9568
78.7124
78.7174
80.5034
80.5086
82.2188
82.2241
83.7121
83.7174
84.8309
84.8359
85.4565
85.4612
85.5324
85.5366
85.072
85.0757
84.1467
84.1499
82.8627
82.8654
81.3362
81.3384
79.6747
79.6767
77.9661
77.9679
76.2748
76.2765
74.6421
74.6437
73.0916
73.0933
71.6277
71.6293
70.2449
70.2466
68.9305
68.9321
67.6677
67.6692
66.4384
66.4397
65.2253
65.2265
64.0132
64.0141
62.7892
62.7899
61.543
61.5435
60.2667
60.2669
58.9542
58.9542
57.6017
57.6015
56.2071
56.2067
54.7707
54.7702
53.2951
53.2945
51.7862
51.7855
50.2524
50.2516
48.7047
48.7039
47.1563
47.1554
45.6205
45.6197
44.1104
44.1096
42.6366
42.6358
41.207
41.2063
39.8259
39.8252
38.4945
38.4939
37.2115
37.2109
35.974
35.9734
34.7787
34.7781
33.6229
33.6224
32.5052
32.5047
31.4252
31.4247
30.3838
30.3833
29.3825
29.382
28.423
28.4225
27.5064
27.506
26.6328
26.6324
25.8001
25.7998
25.0051
25.0047
24.2425
24.2422
23.5059
23.5056
22.7885
22.7881
22.0837
22.0834
21.3868
21.3865
20.6953
20.695
20.0093
20.009
19.3322
19.3319
18.6689
18.6686
18.0256
18.0253
17.4079
17.4077
16.8198
16.8196
16.2627
16.2625
15.7357
15.7355
15.2353
15.2351
14.7571
14.7569
14.2965
14.2964
13.8499
13.8497
13.4148
13.4147
12.9904
12.9903
12.577
12.5769
12.1756
12.1755
11.7876
11.7875
11.4143
11.4142
11.0569
11.0568
10.7158
10.7158
10.3915
10.3914
10.0836
10.0835
9.7915
9.79144
9.51436
9.5143
9.25093
9.25088
8.99987
8.99982
8.75978
8.75974
8.52939
8.52936
8.3077
8.30767
8.09405
8.09402
7.8882
7.88818
7.69032
7.6903
7.50093
7.50092
7.32082
7.32082
7.15092
7.15093
6.99222
6.99224
6.84564
6.84567
6.71201
6.71206
6.59198
6.59204
6.48601
6.48608
6.39436
6.39445
6.31709
6.3172
6.254
6.25413
6.20469
6.20484
6.16841
6.16859
6.14413
6.14433
6.13036
6.1306
6.12521
6.12547
6.12626
6.12656
6.13067
6.131
6.13516
6.13552
6.13625
6.13663
6.13046
6.13087
6.11464
6.11507
6.08637
6.0868
6.04427
6.04469
5.98836
5.98874
5.92023
5.92056
5.84311
5.84336
5.7615
5.76167
5.68063
5.68073
5.60578
5.60584
5.54155
5.5416
5.49107
5.49111
5.45544
5.45547
5.43361
5.43362
5.42255
5.42252
5.41784
5.41774
5.41444
5.41427
5.40742
5.40717
5.39245
5.39215
5.3663
5.36597
5.32713
5.32679
5.27439
5.27406
5.20859
5.20828
5.1311
5.13082
5.04387
5.04362
4.94919
4.94896
4.84948
4.84928
4.74716
4.74699
4.64453
4.64438
4.5437
4.54357
4.44655
4.44644
4.35472
4.35463
4.26965
4.26957
4.19251
4.19245
4.12429
4.12424
4.06576
4.06572
4.01748
4.01745
3.97979
3.97977
3.95279
3.95278
3.93629
3.93628
3.92971
3.92972
3.9321
3.93212
3.94203
3.94205
3.95755
3.95758
3.97624
3.97627
3.9952
3.99524
4.01121
4.01126
4.02091
4.02096
4.021
4.02106
4.00859
4.00865
3.98148
3.98155
3.93852
3.93858
3.87981
3.87986
3.80689
3.80693
3.72265
3.72268
3.63113
3.63114
3.53691
3.53691
3.4445
3.44449
3.3575
3.35749
3.27834
3.27834
3.2071
3.20709
3.14227
3.14226
3.08139
3.08137
3.02165
3.02162
2.96075
2.96071
2.89737
2.89733
2.83143
2.83139
2.76394
2.7639
2.69661
2.69658
2.63142
2.63139
2.57013
2.5701
2.51404
2.51401
2.46382
2.4638
2.41962
2.41961
2.38123
2.38122
2.3483
2.34829
2.3205
2.32049
2.29767
2.29766
2.27977
2.27977
2.26688
2.26687
2.25903
2.25903
2.25618
2.25618
2.25814
2.25814
2.26451
2.26452
2.27481
2.27481
2.28848
2.28848
2.305
2.30501
2.32393
2.32393
2.34494
2.34495
2.36787
2.36788
2.39268
2.39269
2.41948
2.41949
2.44848
2.44848
2.47993
2.47993
2.51412
2.51412
2.55129
2.55129
2.59162
2.59162
2.6352
2.63521
2.68205
2.68206
2.73211
2.73211
2.78529
2.78529
2.84151
2.84152
2.90071
2.90072
2.96286
2.96287
3.02795
3.02796
3.09598
3.09599
3.16698
3.16699
3.24096
3.24097
3.31794
3.31795
3.39791
3.39792
3.4809
3.48091
3.56687
3.56688
3.65583
3.65584
3.74777
3.74778
3.84271
3.84272
3.94071
3.94072
4.04187
4.04188
4.14638
4.14639
4.25444
4.25445
4.36628
4.3663
4.48214
4.48215
4.6022
4.60222
4.72662
4.72663
4.85545
4.85546
4.98875
4.98876
5.12654
5.12656
5.26889
5.2689
5.41588
5.4159
5.56768
5.5677
5.72451
5.72453
5.88668
5.88669
6.05451
6.05452
6.22838
6.22839
6.40869
6.40871
6.59584
6.59585
6.79022
6.79024
6.99223
6.99225
7.20227
7.20229
7.42074
7.42076
7.64801
7.64803
7.88445
7.88446
8.13033
8.13034
8.38575
8.38576
8.6503
8.65031
8.92193
8.92194
9.19273
9.19274
9.43214
9.43214
9.41765
9.41764
9.41808
9.41808
9.43276
9.43276
9.19339
9.19339
8.92248
8.92249
8.65078
8.65078
8.38617
8.38617
8.13071
8.13071
7.88481
7.88481
7.64836
7.64836
7.42106
7.42106
7.20256
7.20257
6.9925
6.99251
6.79048
6.79048
6.59608
6.59608
6.40894
6.40894
6.22864
6.22864
6.05477
6.05477
5.88695
5.88695
5.72478
5.72478
5.56794
5.56794
5.41614
5.41614
5.26916
5.26916
5.12682
5.12683
4.98904
4.98904
4.85574
4.85575
4.72691
4.72691
4.60249
4.60249
4.48242
4.48243
4.36657
4.36657
4.25473
4.25473
4.14668
4.14668
4.04218
4.04218
3.94102
3.94102
3.84302
3.84302
3.74806
3.74807
3.6561
3.6561
3.56712
3.56712
3.48113
3.48113
3.39814
3.39814
3.31815
3.31815
3.24117
3.24117
3.16718
3.16718
3.09617
3.09617
3.02812
3.02812
2.96302
2.96302
2.90085
2.90086
2.84164
2.84164
2.7854
2.7854
2.7322
2.7322
2.68213
2.68213
2.63526
2.63526
2.59166
2.59166
2.55131
2.55131
2.51412
2.51412
2.47992
2.47992
2.44844
2.44844
2.41943
2.41944
2.39263
2.39263
2.36781
2.36781
2.34486
2.34486
2.3238
2.3238
2.30484
2.30484
2.28829
2.28829
2.27459
2.27459
2.26428
2.26428
2.25788
2.25788
2.25589
2.25589
2.2587
2.2587
2.26651
2.26651
2.27936
2.27936
2.29721
2.29721
2.32
2.31999
2.34776
2.34775
2.38066
2.38065
2.41902
2.41901
2.46319
2.46318
2.51338
2.51336
2.56945
2.56942
2.63073
2.6307
2.69594
2.69591
2.76333
2.76329
2.8309
2.83086
2.89692
2.89689
2.96038
2.96034
3.02135
3.02131
3.08115
3.08112
3.14207
3.14205
3.2069
3.20688
3.27816
3.27814
3.35733
3.3573
3.44434
3.44432
3.53679
3.53677
3.63106
3.63105
3.72269
3.72269
3.80704
3.80706
3.88004
3.88007
3.93877
3.93881
3.98174
3.98178
4.00884
4.00888
4.02123
4.02128
4.02114
4.02118
4.01146
4.01151
3.99546
3.9955
3.97651
3.97654
3.95782
3.95784
3.94227
3.94229
3.93231
3.93232
3.92989
3.92989
3.93644
3.93643
3.95291
3.95289
3.97988
3.97985
4.01754
4.0175
4.0658
4.06574
4.1243
4.12423
4.1925
4.19241
4.26961
4.26951
4.35466
4.35454
4.44646
4.44631
4.54359
4.54342
4.6444
4.64421
4.74702
4.7468
4.84934
4.84909
4.94906
4.94878
5.04373
5.04342
5.13094
5.1306
5.20842
5.20805
5.27422
5.27384
5.32696
5.32657
5.36609
5.36572
5.39218
5.39184
5.40705
5.40677
5.414
5.4138
5.41736
5.41724
5.42208
5.42203
5.43313
5.43311
5.45496
5.45495
5.49057
5.49057
5.54104
5.54104
5.60526
5.60527
5.6801
5.68014
5.76096
5.76107
5.84255
5.84275
5.91965
5.91994
5.98777
5.98814
6.04372
6.04413
6.08583
6.08627
6.11407
6.11452
6.12981
6.13025
6.13554
6.13596
6.1344
6.1348
6.12987
6.13023
6.12542
6.12575
6.12432
6.12462
6.12943
6.12969
6.14314
6.14336
6.16737
6.16756
6.20358
6.20374
6.25283
6.25296
6.31585
6.31595
6.39305
6.39313
6.48462
6.48467
6.59051
6.59054
6.71046
6.71047
6.844
6.84399
6.99048
6.99046
7.14909
7.14905
7.31888
7.31882
7.49887
7.49881
7.68813
7.68805
7.88586
7.88578
8.09155
8.09146
8.30503
8.30493
8.52655
8.52645
8.75676
8.75665
8.99667
8.99655
9.24755
9.24742
9.5108
9.51066
9.78779
9.78763
10.0797
10.0795
10.3874
10.3872
10.7116
10.7114
11.0525
11.0523
11.4098
11.4095
11.7828
11.7826
12.1706
12.1703
12.5717
12.5714
12.9848
12.9845
13.4088
13.4086
13.8435
13.8433
14.2898
14.2895
14.75
14.7497
15.2279
15.2276
15.728
15.7277
16.2547
16.2543
16.8114
16.811
17.3992
17.3987
18.0164
18.016
18.6594
18.6589
19.3223
19.3217
19.999
19.9985
20.6845
20.684
21.3757
21.3751
22.0721
22.0716
22.7764
22.7759
23.4935
23.4929
24.2296
24.229
24.9917
24.9911
25.7862
25.7855
26.6182
26.6175
27.4913
27.4906
28.4072
28.4064
29.3661
29.3653
30.3667
30.3659
31.4075
31.4066
32.4868
32.4859
33.6038
33.6029
34.7588
34.7579
35.9534
35.9524
37.1902
37.1892
38.4725
38.4714
39.8031
39.802
41.1834
41.1823
42.6122
42.611
44.0851
44.0839
45.5945
45.5932
47.1293
47.1281
48.677
48.6758
50.224
50.2228
51.7573
51.7562
53.2659
53.2649
54.741
54.7401
56.1767
56.176
57.5704
57.5699
58.9218
58.9216
60.2331
60.2331
61.5083
61.5086
62.7533
62.7538
63.976
63.9768
65.1868
65.1878
66.3985
66.3998
67.6264
67.6278
68.8879
68.8894
70.201
70.2025
71.5825
71.584
73.0451
73.0467
74.5943
74.5958
76.2256
76.2273
77.9157
77.9175
79.6232
79.6251
81.2835
81.2858
82.809
82.8118
84.0927
84.0961
85.0185
85.0225
85.4794
85.4841
85.4042
85.4095
84.7792
84.785
83.6608
83.6669
82.1678
82.174
80.4529
80.459
78.6631
78.669
76.9037
76.9094
75.2322
75.2375
73.6463
73.6515
72.1158
72.1207
70.6067
70.6115
69.0934
69.098
67.5631
67.5676
66.0141
66.0186
64.4515
64.4559
62.8828
62.887
61.3162
61.3204
59.7593
59.7634
58.2185
58.2226
56.6986
56.7025
55.203
55.2068
53.7342
53.738
52.2935
52.2972
50.881
50.8846
49.4963
49.4998
48.1385
48.1419
46.8064
46.8098
45.4988
45.5022
44.2146
44.2179
42.9528
42.956
41.7124
41.7155
40.4924
40.4954
39.2919
39.2948
38.1098
38.1127
36.9451
36.9479
35.7964
35.7992
34.6623
34.6651
33.5415
33.5442
32.4325
32.4352
31.3338
31.3364
30.2439
30.2464
29.1611
29.1636
28.0839
28.0863
27.0105
27.0129
25.9389
25.9413
24.8673
24.8696
23.7933
23.7956
22.7144
22.7166
21.6277
21.6299
20.5298
20.532
19.4169
19.419
18.2842
18.2863
17.1263
17.1284
15.9365
15.9385
14.7062
14.7082
13.4248
13.4267
12.0779
12.0798
10.6465
10.6483
9.10498
9.10675
7.42026
7.42194
5.56081
5.56235
3.5552
3.55646
1.68387
1.68465
0.495273
0.495538
0.0699225
0.0699622
0.00252431
0.00252591
9.41771
9.41771
9.43233
9.43233
9.19301
9.19301
8.92219
8.9222
8.65056
8.65057
8.38601
8.38602
8.13059
8.1306
7.88472
7.88473
7.64828
7.6483
7.421
7.42101
7.20252
7.20253
6.99247
6.99248
6.79045
6.79046
6.59606
6.59607
6.40891
6.40893
6.22862
6.22863
6.05476
6.05477
5.88693
5.88694
5.72476
5.72478
5.56792
5.56793
5.41612
5.41613
5.26913
5.26915
5.1268
5.12681
4.98902
4.98903
4.85572
4.85573
4.72688
4.7269
4.60247
4.60248
4.48241
4.48242
4.36656
4.36657
4.25472
4.25473
4.14667
4.14668
4.04217
4.04218
3.94101
3.94102
3.843
3.84301
3.74805
3.74806
3.65608
3.65609
3.5671
3.56711
3.48111
3.48112
3.39812
3.39813
3.31813
3.31814
3.24115
3.24116
3.16717
3.16717
3.09616
3.09617
3.02811
3.02812
2.96301
2.96302
2.90085
2.90085
2.84163
2.84164
2.7854
2.7854
2.7322
2.73221
2.68213
2.68214
2.63527
2.63527
2.59167
2.59168
2.55133
2.55133
2.51415
2.51415
2.47994
2.47995
2.44847
2.44847
2.41945
2.41946
2.39264
2.39264
2.36781
2.36781
2.34484
2.34485
2.32378
2.32378
2.3048
2.30481
2.28825
2.28825
2.27455
2.27455
2.26424
2.26424
2.25785
2.25785
2.25586
2.25587
2.25869
2.25869
2.2665
2.2665
2.27937
2.27937
2.29722
2.29722
2.32002
2.32002
2.34778
2.34778
2.38069
2.38069
2.41906
2.41906
2.46324
2.46324
2.51344
2.51344
2.56952
2.56952
2.6308
2.6308
2.69601
2.69602
2.76339
2.76339
2.83094
2.83095
2.89695
2.89696
2.96039
2.96039
3.02135
3.02135
3.08114
3.08115
3.14208
3.14208
3.20693
3.20693
3.2782
3.27821
3.35739
3.3574
3.44442
3.44443
3.53688
3.53689
3.63116
3.63117
3.72279
3.72279
3.80713
3.80713
3.8801
3.8801
3.93881
3.9388
3.98175
3.98173
4.00881
4.0088
4.02118
4.02116
4.02107
4.02105
4.01137
4.01136
3.99536
3.99535
3.9764
3.97639
3.9577
3.95769
3.94215
3.94215
3.9322
3.9322
3.92978
3.92979
3.93633
3.93634
3.95281
3.95283
3.97979
3.97982
4.01745
4.01749
4.0657
4.06575
4.1242
4.12426
4.19239
4.19246
4.2695
4.26958
4.35453
4.35464
4.44631
4.44644
4.54342
4.54357
4.64422
4.64438
4.74681
4.747
4.8491
4.84931
4.94878
4.94902
5.04342
5.04369
5.13059
5.13088
5.20804
5.20835
5.27382
5.27415
5.32654
5.32688
5.36568
5.366
5.39179
5.39208
5.40672
5.40696
5.41374
5.41391
5.41718
5.41728
5.42197
5.42201
5.43306
5.43307
5.4549
5.4549
5.49053
5.49053
5.54101
5.54101
5.60525
5.60524
5.68013
5.68008
5.76105
5.76095
5.84273
5.84255
5.91991
5.91964
5.98811
5.98777
6.04409
6.04371
6.08623
6.08582
6.11447
6.11405
6.1302
6.12979
6.1359
6.13551
6.13474
6.13437
6.13017
6.12984
6.12569
6.12539
6.12456
6.12429
6.12963
6.12939
6.14331
6.1431
6.16751
6.16733
6.20369
6.20354
6.25291
6.2528
6.3159
6.31581
6.39308
6.39302
6.48463
6.48459
6.59051
6.59049
6.71044
6.71043
6.84396
6.84398
6.99043
6.99046
7.14902
7.14906
7.3188
7.31885
7.49878
7.49885
7.68803
7.6881
7.88575
7.88584
8.09143
8.09152
8.30491
8.30501
8.52642
8.52653
8.75662
8.75674
8.99652
8.99665
9.24739
9.24753
9.51064
9.51078
9.78761
9.78777
10.0795
10.0797
10.3872
10.3874
10.7114
10.7116
11.0522
11.0525
11.4095
11.4097
11.7826
11.7828
12.1703
12.1706
12.5714
12.5717
12.9845
12.9848
13.4086
13.4088
13.8433
13.8435
14.2895
14.2898
14.7497
14.75
15.2276
15.2279
15.7277
15.728
16.2543
16.2547
16.811
16.8114
17.3987
17.3991
18.016
18.0164
18.6589
18.6594
19.3218
19.3223
19.9985
19.999
20.684
20.6845
21.3752
21.3757
22.0716
22.0721
22.7759
22.7764
23.4929
23.4935
24.229
24.2296
24.9911
24.9917
25.7855
25.7862
26.6175
26.6182
27.4906
27.4913
28.4064
28.4072
29.3653
29.3661
30.3659
30.3667
31.4066
31.4075
32.4859
32.4868
33.6029
33.6039
34.7579
34.7589
35.9524
35.9534
37.1892
37.1902
38.4714
38.4725
39.802
39.8031
41.1823
41.1834
42.611
42.6122
44.0839
44.0852
45.5932
45.5945
47.1281
47.1294
48.6758
48.677
50.2228
50.224
51.7562
51.7573
53.2649
53.2659
54.7401
54.741
56.1761
56.1767
57.5699
57.5704
58.9216
58.9218
60.2332
60.2331
61.5086
61.5083
62.7538
62.7533
63.9768
63.976
65.1879
65.1868
66.3998
66.3985
67.6279
67.6264
68.8894
68.8879
70.2026
70.201
71.5841
71.5825
73.0467
73.0451
74.5959
74.5943
76.2273
76.2257
77.9175
77.9158
79.6252
79.6232
81.2858
81.2835
82.8118
82.809
84.0962
84.0928
85.0225
85.0185
85.4841
85.4794
85.4096
85.4043
84.785
84.7793
83.6669
83.6608
82.174
82.1678
80.4591
80.453
78.6691
78.6632
76.9094
76.9038
75.2376
75.2322
73.6515
73.6464
72.1208
72.1158
70.6115
70.6068
69.098
69.0934
67.5676
67.5631
66.0186
66.0142
64.4559
64.4516
62.8871
62.8828
61.3204
61.3162
59.7635
59.7594
58.2226
58.2186
56.7025
56.6986
55.2069
55.203
53.738
53.7342
52.2972
52.2935
50.8846
50.881
49.4999
49.4963
48.142
48.1385
46.8098
46.8064
45.5022
45.4989
44.2179
44.2147
42.956
42.9528
41.7155
41.7124
40.4954
40.4924
39.2949
39.2919
38.1128
38.1098
36.948
36.9451
35.7992
35.7964
34.6651
34.6623
33.5443
33.5416
32.4352
32.4326
31.3364
31.3339
30.2464
30.2439
29.1636
29.1611
28.0864
28.0839
27.0129
27.0105
25.9413
25.939
24.8696
24.8673
23.7956
23.7933
22.7166
22.7144
21.6299
21.6277
20.532
20.5298
19.419
19.4169
18.2863
18.2842
17.1284
17.1263
15.9385
15.9365
14.7082
14.7063
13.4267
13.4248
12.0798
12.0779
10.6483
10.6465
9.10676
9.10499
7.42194
7.42027
5.56235
5.56082
3.55646
3.5552
1.68465
1.68388
0.495539
0.495274
0.0699622
0.0699226
0.00252591
0.00252432
)
;

boundaryField
{
    walls
    {
        type            kqRWallFunction;
        value           nonuniform List<scalar> 8(0.00252855 0.00252766 0.00252718 0.00252842 0.00252431 0.00252591 0.00252591 0.00252432);
    }
    inlet
    {
        type            cyclic;
    }
    outlet
    {
        type            cyclic;
    }
    sides
    {
        type            empty;
    }
}


// ************************************************************************* //
