/*--------------------------------*- C++ -*----------------------------------*\
| =========                 |                                                 |
| \\      /  F ield         | OpenFOAM: The Open Source CFD Toolbox           |
|  \\    /   O peration     | Version:  2012                                  |
|   \\  /    A nd           | Website:  www.openfoam.com                      |
|    \\/     M anipulation  |                                                 |
\*---------------------------------------------------------------------------*/
FoamFile
{
    version     2.0;
    format      ascii;
    class       surfaceScalarField;
    location    "14000";
    object      phi;
}
// * * * * * * * * * * * * * * * * * * * * * * * * * * * * * * * * * * * * * //

dimensions      [0 3 -1 0 0 0 0];
oriented        oriented;


internalField   nonuniform List<scalar> 
5116
(
1.60652e-07
-1.09179e-08
1.02204e-09
1.46345e-08
-4.88173e-09
4.82042e-07
-2.75322e-08
1.57117e-09
3.71654e-08
-7.51831e-09
8.12739e-07
-4.31117e-08
1.47355e-09
5.83143e-08
-7.05116e-09
1.15482e-06
-5.4608e-08
1.08721e-09
7.39026e-08
-5.20251e-09
1.50984e-06
-6.15515e-08
6.56739e-10
8.33377e-08
-3.14264e-09
1.87917e-06
-6.57351e-08
3.95698e-10
8.9009e-08
-1.8935e-09
2.26265e-06
-6.84935e-08
2.60868e-10
9.27641e-08
-1.2483e-09
2.65978e-06
-7.04824e-08
1.88234e-10
9.54623e-08
-9.00725e-10
3.07015e-06
-7.20215e-08
1.45505e-10
9.75615e-08
-6.96255e-10
3.49395e-06
-7.32732e-08
1.18252e-10
9.92575e-08
-5.65847e-10
3.93202e-06
-7.43281e-08
9.97179e-11
1.00699e-07
-4.77156e-10
4.38484e-06
-7.52438e-08
8.64693e-11
1.01944e-07
-4.1376e-10
4.85297e-06
-7.60539e-08
7.66241e-11
1.03053e-07
-3.66656e-10
5.33732e-06
-7.67829e-08
6.8899e-11
1.04049e-07
-3.30386e-10
5.83817e-06
-7.74505e-08
6.31855e-11
1.04962e-07
-3.02281e-10
6.35513e-06
-7.80667e-08
5.80565e-11
1.05801e-07
-2.79232e-10
6.88734e-06
-7.86441e-08
5.46706e-11
1.0659e-07
-2.61275e-10
7.43391e-06
-7.91879e-08
5.14443e-11
1.07329e-07
-2.46052e-10
7.99524e-06
-7.97042e-08
4.89489e-11
1.08034e-07
-2.33578e-10
8.57388e-06
-8.01973e-08
4.66786e-11
1.08704e-07
-2.22938e-10
9.17337e-06
-8.06708e-08
4.49536e-11
1.09351e-07
-2.14151e-10
9.79632e-06
-8.11277e-08
4.33129e-11
1.09974e-07
-2.06522e-10
1.04439e-05
-8.15705e-08
4.21095e-11
1.10579e-07
-2.00229e-10
1.11166e-05
-8.19999e-08
4.03905e-11
1.11165e-07
-1.94179e-10
1.1815e-05
-8.24206e-08
4.01046e-11
1.11738e-07
-1.90207e-10
1.25399e-05
-8.28312e-08
3.86565e-11
1.12295e-07
-1.85632e-10
1.32919e-05
-8.32362e-08
3.87377e-11
1.12848e-07
-1.83073e-10
1.40712e-05
-8.36353e-08
3.8036e-11
1.13388e-07
-1.80158e-10
1.48773e-05
-8.40295e-08
3.78431e-11
1.13926e-07
-1.78133e-10
1.57097e-05
-8.44197e-08
3.73238e-11
1.14454e-07
-1.76118e-10
1.65687e-05
-8.48069e-08
3.73193e-11
1.14983e-07
-1.74927e-10
1.74558e-05
-8.51918e-08
3.69633e-11
1.15503e-07
-1.7366e-10
1.83755e-05
-8.55751e-08
3.71031e-11
1.16027e-07
-1.73146e-10
1.93341e-05
-8.59577e-08
3.68943e-11
1.16546e-07
-1.72517e-10
2.03392e-05
-8.63398e-08
3.71513e-11
1.1707e-07
-1.72574e-10
2.13973e-05
-8.67198e-08
3.62067e-11
1.17593e-07
-1.71632e-10
2.25136e-05
-8.71032e-08
3.74653e-11
1.18121e-07
-1.73093e-10
2.36901e-05
-8.74765e-08
3.36195e-11
1.18638e-07
-1.6963e-10
2.49269e-05
-8.78637e-08
3.81341e-11
1.19173e-07
-1.74707e-10
2.62222e-05
-8.8238e-08
3.30968e-11
1.1969e-07
-1.70397e-10
2.7575e-05
-8.86316e-08
3.92014e-11
1.20237e-07
-1.774e-10
2.8987e-05
-8.90163e-08
3.53225e-11
1.20769e-07
-1.74581e-10
3.04668e-05
-8.94187e-08
4.06302e-11
1.21331e-07
-1.81096e-10
3.2032e-05
-8.98206e-08
3.94131e-11
1.21894e-07
-1.81205e-10
3.37101e-05
-9.0234e-08
4.23398e-11
1.22473e-07
-1.85689e-10
3.55363e-05
-9.06509e-08
4.22609e-11
1.23081e-07
-1.87318e-10
3.75491e-05
-9.10771e-08
4.43039e-11
1.23677e-07
-1.91151e-10
3.97856e-05
-9.15063e-08
4.38731e-11
1.24328e-07
-1.92695e-10
4.22786e-05
-9.19476e-08
4.65533e-11
1.24937e-07
-1.97536e-10
4.50564e-05
-9.2351e-08
3.22893e-11
1.25544e-07
-1.85591e-10
4.81434e-05
-9.28108e-08
4.9512e-11
1.26164e-07
-2.05314e-10
5.15583e-05
-9.32582e-08
4.34733e-11
1.26786e-07
-2.01964e-10
5.5305e-05
-9.37397e-08
5.30152e-11
1.2743e-07
-2.14384e-10
5.93568e-05
-9.42264e-08
5.26047e-11
1.281e-07
-2.1706e-10
6.36321e-05
-9.47328e-08
5.69892e-11
1.28779e-07
-2.24744e-10
6.79675e-05
-9.52406e-08
5.50797e-11
1.2948e-07
-2.26345e-10
7.20981e-05
-9.57749e-08
6.15098e-11
1.302e-07
-2.36482e-10
7.56562e-05
-9.63042e-08
5.71642e-11
1.30939e-07
-2.36023e-10
7.81974e-05
-9.68698e-08
6.66268e-11
1.31698e-07
-2.49514e-10
7.92585e-05
-9.74251e-08
6.03491e-11
1.32484e-07
-2.47401e-10
7.84374e-05
-9.80249e-08
7.23601e-11
1.33308e-07
-2.63711e-10
7.54768e-05
-9.86171e-08
6.67603e-11
1.34152e-07
-2.62642e-10
7.03282e-05
-9.92552e-08
7.88615e-11
1.35036e-07
-2.79599e-10
6.31772e-05
-9.98988e-08
7.70762e-11
1.35935e-07
-2.83197e-10
5.44197e-05
-1.00583e-07
8.6531e-11
1.36872e-07
-2.98696e-10
4.45972e-05
-1.01289e-07
8.93269e-11
1.37827e-07
-3.08393e-10
3.43119e-05
-1.01999e-07
8.54366e-11
1.38788e-07
-3.12279e-10
2.41429e-05
-1.02749e-07
9.2794e-11
1.39782e-07
-3.28466e-10
1.45811e-05
-1.03503e-07
8.75031e-11
1.40773e-07
-3.33097e-10
5.99579e-06
-1.04308e-07
9.74654e-11
1.41824e-07
-3.53638e-10
-1.37174e-06
-1.04398e-07
9.23811e-11
1.41797e-07
1.46503e-12
-7.39121e-06
-1.04507e-07
1.03041e-10
1.41784e-07
-3.21512e-12
-1.20193e-05
-1.04604e-07
9.87977e-11
1.41744e-07
1.46661e-12
-1.52719e-05
-1.04718e-07
1.09125e-10
1.41723e-07
-2.52069e-12
-1.72024e-05
-1.04822e-07
1.05766e-10
1.41679e-07
1.50484e-12
-1.78876e-05
-1.04941e-07
1.15461e-10
1.41656e-07
-1.53714e-12
-1.74194e-05
-1.05051e-07
1.12858e-10
1.41614e-07
1.57474e-12
-1.59006e-05
-1.05175e-07
1.21924e-10
1.41592e-07
-5.74463e-13
-1.34419e-05
-1.05292e-07
1.19994e-10
1.41554e-07
1.6765e-12
-1.01571e-05
-1.05421e-07
1.2851e-10
1.41532e-07
3.51374e-13
-6.15981e-06
-1.05421e-07
2.56866e-12
1.41498e-07
1.81254e-12
-1.55787e-06
-1.05527e-07
1.06668e-10
1.4148e-07
1.18862e-12
3.55137e-06
-1.0555e-07
2.65765e-11
1.41449e-07
1.9878e-12
9.08441e-06
-1.05663e-07
1.14715e-10
1.41437e-07
1.87019e-12
1.49718e-05
-1.05653e-07
-6.4211e-12
1.41407e-07
2.18062e-12
2.11557e-05
-1.05643e-07
-6.97348e-12
1.41391e-07
2.47095e-12
2.7585e-05
-1.05632e-07
-7.14461e-12
1.4136e-07
2.40885e-12
3.42093e-05
-1.05633e-07
3.55894e-12
1.41335e-07
2.48138e-12
4.09713e-05
-1.05632e-07
2.93632e-12
1.41302e-07
2.64412e-12
4.78016e-05
-1.05633e-07
4.09557e-12
1.41274e-07
2.71849e-12
5.46143e-05
-1.05632e-07
3.04623e-12
1.41244e-07
2.89577e-12
6.13059e-05
-1.05633e-07
4.70022e-12
1.41213e-07
2.98734e-12
6.77574e-05
-1.05632e-07
3.18771e-12
1.41185e-07
3.17477e-12
7.38406e-05
-1.05633e-07
5.34361e-12
1.41154e-07
3.28914e-12
7.94268e-05
-1.05631e-07
3.39495e-12
1.41128e-07
3.48402e-12
8.43972e-05
-1.05633e-07
6.0007e-12
1.41097e-07
3.6269e-12
8.8654e-05
-1.05631e-07
3.69759e-12
1.41073e-07
3.82647e-12
9.21305e-05
-1.05632e-07
6.65232e-12
1.41043e-07
4.00186e-12
9.47982e-05
-1.0563e-07
4.11508e-12
1.41021e-07
4.20483e-12
9.66702e-05
-1.05632e-07
7.29007e-12
1.40991e-07
4.41477e-12
9.78013e-05
-1.05629e-07
4.65555e-12
1.40972e-07
4.62231e-12
9.82836e-05
-1.0563e-07
7.91859e-12
1.40943e-07
4.86744e-12
9.82408e-05
-1.05628e-07
5.31875e-12
1.40925e-07
5.08356e-12
9.78191e-05
-1.05629e-07
8.55373e-12
1.40897e-07
5.36369e-12
9.71783e-05
-1.05626e-07
6.09987e-12
1.40879e-07
5.59432e-12
9.64842e-05
-1.05627e-07
9.21704e-12
1.40852e-07
5.90864e-12
9.59005e-05
-1.05624e-07
6.9928e-12
1.40835e-07
6.16013e-12
9.55838e-05
-1.05624e-07
9.93e-12
1.40808e-07
6.50715e-12
9.56789e-05
-1.05621e-07
7.99114e-12
1.4079e-07
6.7848e-12
9.63155e-05
-1.05621e-07
1.07105e-11
1.40763e-07
7.16248e-12
9.76049e-05
-1.05618e-07
9.08897e-12
1.40745e-07
7.46999e-12
9.96363e-05
-1.05617e-07
1.1573e-11
1.40717e-07
7.87639e-12
0.000102472
-1.05614e-07
1.02834e-11
1.40698e-07
8.21659e-12
0.000106144
-1.05613e-07
1.25321e-11
1.4067e-07
8.65141e-12
0.000110648
-1.0561e-07
1.15754e-11
1.40649e-07
9.02795e-12
0.000115935
-1.05608e-07
1.36074e-11
1.4062e-07
9.49402e-12
0.000121914
-1.05605e-07
1.29786e-11
1.40597e-07
9.91279e-12
0.000128448
-1.05603e-07
1.48268e-11
1.40566e-07
1.04166e-11
0.000135357
-1.05599e-07
1.45165e-11
1.40541e-07
1.08856e-11
0.000142423
-1.05597e-07
1.6223e-11
1.40509e-07
1.14355e-11
0.000149405
-1.05593e-07
1.62167e-11
1.40481e-07
1.19621e-11
0.000156051
-1.05591e-07
1.78241e-11
1.40447e-07
1.25644e-11
0.000162117
-1.05587e-07
1.80998e-11
1.40415e-07
1.31522e-11
0.000167387
-1.05584e-07
1.96438e-11
1.40379e-07
1.38079e-11
0.000171691
-1.0558e-07
2.01719e-11
1.40344e-07
1.44549e-11
0.000174921
-1.05577e-07
2.16798e-11
1.40305e-07
1.51612e-11
0.000177037
-1.05574e-07
2.24296e-11
1.40267e-07
1.58642e-11
0.000178074
-1.0557e-07
2.39279e-11
1.40224e-07
1.66204e-11
0.000178134
-1.05567e-07
2.48779e-11
1.40182e-07
1.73813e-11
0.000177375
-1.05564e-07
2.63997e-11
1.40135e-07
1.81939e-11
0.000175991
-1.05561e-07
2.75423e-11
1.40089e-07
1.90224e-11
0.000174192
-1.05558e-07
2.91266e-11
1.40039e-07
1.9904e-11
0.000172183
-1.05555e-07
3.04632e-11
1.39989e-07
2.08125e-11
0.000170144
-1.05552e-07
3.2146e-11
1.39934e-07
2.17754e-11
0.000168217
-1.05549e-07
3.36777e-11
1.39878e-07
2.27729e-11
0.000166492
-1.05546e-07
3.54854e-11
1.39819e-07
2.38237e-11
0.000165009
-1.05545e-07
3.72089e-11
1.39758e-07
2.49131e-11
0.000163759
-1.05542e-07
3.91576e-11
1.39693e-07
2.6053e-11
0.000162695
-1.05541e-07
4.1066e-11
1.39627e-07
2.72326e-11
0.000161736
-1.05539e-07
4.31658e-11
1.39556e-07
2.84599e-11
0.000160791
-1.05538e-07
4.52517e-11
1.39484e-07
2.97266e-11
0.00015976
-1.05537e-07
4.75113e-11
1.39407e-07
3.10401e-11
0.000158555
-1.05537e-07
4.97693e-11
1.39328e-07
3.23927e-11
0.000157106
-1.05537e-07
5.22012e-11
1.39245e-07
3.37936e-11
0.000155368
-1.05538e-07
5.46289e-11
1.39159e-07
3.52347e-11
0.000153326
-1.05539e-07
5.72532e-11
1.39069e-07
3.67288e-11
0.000150991
-1.05541e-07
5.98508e-11
1.38976e-07
3.82656e-11
0.0001484
-1.05543e-07
6.26975e-11
1.38878e-07
3.98628e-11
0.000145614
-1.05547e-07
6.54623e-11
1.38778e-07
4.15043e-11
0.000142705
-1.0555e-07
6.85698e-11
1.38672e-07
4.32143e-11
0.00013975
-1.05555e-07
7.14839e-11
1.38563e-07
4.49667e-11
0.000136829
-1.05559e-07
7.48953e-11
1.3845e-07
4.67932e-11
0.000134013
-1.05566e-07
7.79105e-11
1.38332e-07
4.86542e-11
0.00013136
-1.05572e-07
8.16731e-11
1.38209e-07
5.05897e-11
0.000128913
-1.05581e-07
8.46979e-11
1.38083e-07
5.25452e-11
0.000126696
-1.05589e-07
8.88706e-11
1.37951e-07
5.45692e-11
0.000124712
-1.05599e-07
9.17601e-11
1.37814e-07
5.6596e-11
0.000122944
-1.0561e-07
9.64273e-11
1.37673e-07
5.8677e-11
0.000121357
-1.05622e-07
9.95772e-11
1.37527e-07
6.07488e-11
0.000119893
-1.05635e-07
1.04232e-10
1.37376e-07
6.28492e-11
0.000118479
-1.05651e-07
1.08089e-10
1.3722e-07
6.49419e-11
0.000117027
-1.05665e-07
1.11314e-10
1.37059e-07
6.70289e-11
0.000115431
-1.05683e-07
1.15584e-10
1.36894e-07
6.91222e-11
0.000113577
-1.057e-07
1.18424e-10
1.36724e-07
7.1182e-11
0.00011134
-1.0572e-07
1.23072e-10
1.36549e-07
7.32674e-11
0.000108593
-1.05738e-07
1.25798e-10
1.36369e-07
7.53093e-11
0.000105211
-1.05761e-07
1.30621e-10
1.36184e-07
7.74013e-11
0.000101079
-1.05782e-07
1.3371e-10
1.35995e-07
7.94654e-11
9.60993e-05
-1.05807e-07
1.38363e-10
1.35801e-07
8.16113e-11
9.01979e-05
-1.05831e-07
1.41842e-10
1.35602e-07
8.37708e-11
8.33365e-05
-1.05859e-07
1.46517e-10
1.35398e-07
8.60554e-11
7.55182e-05
-1.05886e-07
1.50476e-10
1.35188e-07
8.84149e-11
6.67965e-05
-1.05916e-07
1.55396e-10
1.34972e-07
9.09519e-11
5.72797e-05
-1.05946e-07
1.59966e-10
1.34751e-07
9.36322e-11
4.71349e-05
-1.05979e-07
1.65352e-10
1.34522e-07
9.65409e-11
3.65881e-05
-1.06011e-07
1.70649e-10
1.34286e-07
9.96505e-11
2.59222e-05
-1.06047e-07
1.76656e-10
1.34042e-07
1.03018e-10
1.54691e-05
-1.06082e-07
1.8272e-10
1.3379e-07
1.06609e-10
5.59688e-06
-1.0612e-07
1.8936e-10
1.33529e-07
1.10442e-10
-3.30426e-06
-1.06158e-07
1.96057e-10
1.33258e-07
1.14457e-10
-1.08471e-05
-1.06199e-07
2.03158e-10
1.32977e-07
1.18597e-10
-1.6673e-05
-1.0624e-07
2.10284e-10
1.32687e-07
1.22793e-10
-2.04732e-05
-1.06284e-07
2.17612e-10
1.32386e-07
1.27031e-10
-2.2017e-05
-1.06328e-07
2.24847e-10
1.32076e-07
1.31246e-10
-2.11681e-05
-1.06376e-07
2.32139e-10
1.31755e-07
1.35454e-10
-1.78923e-05
-1.06423e-07
2.39324e-10
1.31425e-07
1.39638e-10
-1.22636e-05
-1.06474e-07
2.46591e-10
1.31085e-07
1.43866e-10
-4.45177e-06
-1.06524e-07
2.53898e-10
1.30734e-07
1.48169e-10
5.29294e-06
-1.06577e-07
2.61433e-10
1.30373e-07
1.5264e-10
1.66653e-05
-1.06631e-07
2.69276e-10
1.30001e-07
1.57248e-10
2.93354e-05
-1.06688e-07
2.77666e-10
1.29618e-07
1.62102e-10
4.29639e-05
-1.06746e-07
2.86627e-10
1.29223e-07
1.67215e-10
5.72249e-05
-1.06807e-07
2.96331e-10
1.28815e-07
1.72668e-10
7.18232e-05
-1.0687e-07
3.06764e-10
1.28394e-07
1.78439e-10
8.64973e-05
-1.06938e-07
3.18052e-10
1.27958e-07
1.84595e-10
0.000101029
-1.07008e-07
3.30138e-10
1.27508e-07
1.91079e-10
0.000115243
-1.07084e-07
3.43115e-10
1.27042e-07
1.97946e-10
0.000128995
-1.07163e-07
3.56886e-10
1.2656e-07
2.05108e-10
0.00014218
-1.07249e-07
3.71525e-10
1.26061e-07
2.12618e-10
0.00015472
-1.07339e-07
3.86892e-10
1.25545e-07
2.20354e-10
0.000166557
-1.07437e-07
4.03056e-10
1.2501e-07
2.28376e-10
0.000177655
-1.07541e-07
4.1983e-10
1.24458e-07
2.36528e-10
0.000187987
-1.07653e-07
4.37287e-10
1.23887e-07
2.44886e-10
0.000197532
-1.07772e-07
4.55192e-10
1.23299e-07
2.53253e-10
0.000206268
-1.07901e-07
4.73634e-10
1.22691e-07
2.61738e-10
0.000214171
-1.08038e-07
4.92322e-10
1.22066e-07
2.70093e-10
0.000221203
-1.08186e-07
5.11388e-10
1.21423e-07
2.78482e-10
0.000227311
-1.08343e-07
5.3048e-10
1.20763e-07
2.86601e-10
0.000232423
-1.08511e-07
5.49808e-10
1.20086e-07
2.94694e-10
0.000236444
-1.0869e-07
5.68955e-10
1.19393e-07
3.02391e-10
0.000239257
-1.0888e-07
5.88261e-10
1.18684e-07
3.10061e-10
0.000240727
-1.09082e-07
6.07243e-10
1.17961e-07
3.1725e-10
0.000240705
-1.09296e-07
6.26437e-10
1.17223e-07
3.24501e-10
0.000239038
-1.09522e-07
6.45283e-10
1.16472e-07
3.31256e-10
0.000235581
-1.09761e-07
6.64587e-10
1.15707e-07
3.3829e-10
0.000230206
-1.10013e-07
6.83684e-10
1.14929e-07
3.44892e-10
0.00022282
-1.10278e-07
7.03716e-10
1.14137e-07
3.52132e-10
0.000213376
-1.10556e-07
7.23839e-10
1.13332e-07
3.59072e-10
0.000201888
-1.10848e-07
7.45596e-10
1.1251e-07
3.67142e-10
0.000188443
-1.11154e-07
7.67838e-10
1.11672e-07
3.75066e-10
0.000173216
-1.11476e-07
7.92575e-10
1.10815e-07
3.84719e-10
0.000156471
-1.11812e-07
8.18169e-10
1.09938e-07
3.94328e-10
0.00013858
-1.12165e-07
8.47177e-10
1.09036e-07
4.06328e-10
0.000120012
-1.12533e-07
8.77212e-10
1.08108e-07
4.1823e-10
0.000101343
-1.12921e-07
9.11488e-10
1.07149e-07
4.3319e-10
8.32353e-05
-1.13325e-07
9.46503e-10
1.06159e-07
4.47691e-10
6.64222e-05
-1.13749e-07
9.86285e-10
1.0513e-07
4.65834e-10
5.16691e-05
-1.14192e-07
1.02577e-09
1.04063e-07
4.82677e-10
3.97131e-05
-1.14656e-07
1.07012e-09
1.02952e-07
5.03605e-10
3.12112e-05
-1.15139e-07
1.11231e-09
1.01799e-07
5.21819e-10
2.6661e-05
-1.15644e-07
1.15938e-09
1.00599e-07
5.44579e-10
2.63404e-05
-1.16168e-07
1.20213e-09
9.93564e-08
5.62818e-10
3.02629e-05
-1.16715e-07
1.25057e-09
9.80649e-08
5.86537e-10
3.8149e-05
-1.1728e-07
1.29313e-09
9.67319e-08
6.03932e-10
4.9462e-05
-1.17871e-07
1.34378e-09
9.53494e-08
6.28632e-10
6.34511e-05
-1.18482e-07
1.38746e-09
9.39263e-08
6.45145e-10
7.92215e-05
-1.19123e-07
1.44268e-09
9.24519e-08
6.71578e-10
9.58095e-05
-1.19786e-07
1.48924e-09
9.09372e-08
6.87357e-10
0.000112267
-1.20486e-07
1.55095e-09
8.93685e-08
7.16179e-10
0.000127731
-1.21211e-07
1.60052e-09
8.77605e-08
7.30701e-10
0.000141481
-1.21978e-07
1.66869e-09
8.60964e-08
7.61897e-10
0.000152985
-1.22773e-07
1.71917e-09
8.43966e-08
7.73747e-10
0.000161929
-1.23616e-07
1.79204e-09
8.26402e-08
8.06824e-10
0.000168214
-1.24486e-07
1.84004e-09
8.08545e-08
8.14205e-10
0.000171957
-1.2541e-07
1.91561e-09
7.90131e-08
8.48871e-10
0.000173474
-1.26357e-07
1.95801e-09
7.71511e-08
8.50264e-10
0.00017323
-1.27364e-07
2.0353e-09
7.52342e-08
8.86892e-10
0.000171801
-1.28388e-07
2.06989e-09
7.33066e-08
8.81171e-10
0.000169809
-1.29476e-07
2.1489e-09
7.13241e-08
9.2063e-10
0.000167873
-1.30576e-07
2.17388e-09
6.93419e-08
9.06663e-10
0.000166566
-1.31744e-07
2.25502e-09
6.73038e-08
9.4992e-10
0.000166383
-1.32914e-07
2.26855e-09
6.52787e-08
9.26262e-10
0.000167694
-1.3416e-07
2.35259e-09
6.31963e-08
9.74285e-10
0.000170735
-1.35398e-07
2.35312e-09
6.11415e-08
9.39294e-10
0.000175621
-1.36719e-07
2.44171e-09
5.90268e-08
9.93308e-10
0.000182346
-1.38023e-07
2.42851e-09
5.6956e-08
9.45396e-10
0.000190798
-1.3942e-07
2.52453e-09
5.48209e-08
1.0071e-09
0.00020078
-1.4079e-07
2.49755e-09
5.27474e-08
9.4472e-10
0.000212031
-1.42267e-07
2.60469e-09
5.06028e-08
1.0162e-09
0.000224269
-1.43705e-07
2.56379e-09
4.85387e-08
9.37596e-10
0.00023718
-1.45268e-07
2.68582e-09
4.63942e-08
1.02117e-09
0.000250445
-1.4678e-07
2.63012e-09
4.43512e-08
9.24149e-10
0.000263745
-1.48438e-07
2.77046e-09
4.22156e-08
1.02229e-09
0.000276748
-1.5003e-07
2.69807e-09
4.02051e-08
9.04185e-10
0.000289154
-1.51792e-07
2.85979e-09
3.80873e-08
1.01956e-09
0.000300683
-1.53472e-07
2.76803e-09
3.61209e-08
8.77381e-10
0.000311079
-1.55348e-07
2.95411e-09
3.40294e-08
1.01302e-09
0.000320162
-1.57121e-07
2.83983e-09
3.21188e-08
8.43603e-10
0.000327851
-1.5912e-07
3.05355e-09
3.00612e-08
1.003e-09
0.000334158
-1.60993e-07
2.91352e-09
2.82169e-08
8.03083e-10
0.000339183
-1.63125e-07
3.15877e-09
2.61994e-08
9.90282e-10
0.000343118
-1.65103e-07
2.98975e-09
2.44306e-08
7.56328e-10
0.000346231
-1.67377e-07
3.27113e-09
2.24573e-08
9.75804e-10
0.000348819
-1.69465e-07
3.06972e-09
2.07716e-08
7.03773e-10
0.000351149
-1.71892e-07
3.39238e-09
1.88452e-08
9.60335e-10
0.000353448
-1.74097e-07
3.1548e-09
1.725e-08
6.45455e-10
0.000355858
-1.76689e-07
3.52441e-09
1.53725e-08
9.44218e-10
0.000358403
-1.79019e-07
3.24639e-09
1.38754e-08
5.80937e-10
0.000361031
-1.8179e-07
3.66916e-09
1.20489e-08
9.27433e-10
0.000363611
-1.84255e-07
3.34594e-09
1.06586e-08
5.09487e-10
0.000365939
-1.87221e-07
3.82856e-09
8.88576e-09
9.09842e-10
0.000367828
-1.89832e-07
3.45479e-09
7.61176e-09
4.30305e-10
0.000369119
-1.93012e-07
4.00448e-09
5.89525e-09
8.9141e-10
0.000369708
-1.95782e-07
3.57411e-09
4.74802e-09
3.42692e-10
0.000369593
-1.99195e-07
4.19861e-09
3.09047e-09
8.72277e-10
0.000368863
-2.02137e-07
3.7049e-09
2.08109e-09
2.46011e-10
0.000367714
-2.05806e-07
4.41256e-09
4.84987e-10
8.5262e-10
0.000366417
-2.08935e-07
3.84806e-09
-3.74473e-10
1.39469e-10
0.000365332
-2.12883e-07
4.64791e-09
-1.90624e-09
8.32344e-10
0.000364866
-2.16214e-07
4.00463e-09
-2.60186e-09
2.17828e-11
0.000365392
-2.20469e-07
4.90654e-09
-4.06479e-09
8.10698e-10
0.000367279
-2.24022e-07
4.17621e-09
-4.57928e-09
-1.09177e-10
0.00037086
-2.28612e-07
5.19104e-09
-5.96566e-09
7.86014e-10
0.000376354
-2.3241e-07
4.36549e-09
-6.27646e-09
-2.56643e-10
0.000383853
-2.37374e-07
5.50534e-09
-7.57351e-09
7.55581e-10
0.000393339
-2.41449e-07
4.57677e-09
-7.65077e-09
-4.25111e-10
0.000404687
-2.46831e-07
5.85501e-09
-8.8391e-09
7.15755e-10
0.000417665
-2.51222e-07
4.81589e-09
-8.64385e-09
-6.20245e-10
0.000431968
-2.57079e-07
6.24679e-09
-9.69615e-09
6.62182e-10
0.000447253
-2.61837e-07
5.08962e-09
-9.17888e-09
-8.48618e-10
0.000463141
-2.68235e-07
6.68784e-09
-1.00592e-08
5.90081e-10
0.000479274
-2.73423e-07
5.40506e-09
-9.159e-09
-1.11738e-09
0.000495353
-2.80439e-07
7.18516e-09
-9.82251e-09
4.945e-10
0.000511103
-2.86131e-07
5.76939e-09
-8.46623e-09
-1.43402e-09
0.00052633
-2.93854e-07
7.74547e-09
-8.85872e-09
3.70422e-10
0.000540982
-3.00137e-07
6.19012e-09
-6.96053e-09
-1.80644e-09
0.000555097
-3.08668e-07
8.37558e-09
-7.01795e-09
2.12602e-10
0.000568826
-3.15641e-07
6.67573e-09
-4.47744e-09
-2.24344e-09
0.000582437
-3.25092e-07
9.08281e-09
-3.88837e-09
-2.21187e-10
0.000596293
-3.00125e-07
-2.55126e-08
-5.90419e-10
-2.75249e-09
0.000610858
-2.76907e-07
-2.38425e-08
7.15542e-10
-6.8174e-10
0.000626683
-2.51047e-07
-2.66557e-08
4.56763e-09
-3.05762e-09
0.000644501
-2.26783e-07
-2.51446e-08
6.61469e-09
-1.16714e-09
0.0006652
-1.99889e-07
-2.79362e-08
1.0977e-08
-3.32043e-09
0.00069015
-1.74278e-07
-2.67444e-08
1.37907e-08
-1.68119e-09
0.000722118
-1.46182e-07
-2.93804e-08
1.85962e-08
-3.52074e-09
0.000767257
-1.18842e-07
-2.87211e-08
2.22078e-08
-2.23178e-09
0.000838369
-8.93075e-08
-3.10567e-08
2.736e-08
-3.63018e-09
0.000963309
-5.96681e-08
-3.12705e-08
3.18519e-08
-2.86145e-09
0.00127326
-3.34127e-08
-2.80318e-08
-3.60675e-09
3.72346e-08
1.54757e-07
3.05633e-09
-6.92677e-09
4.72978e-07
7.74368e-09
-1.75881e-08
8.04259e-07
1.21598e-08
-2.75861e-08
1.14859e-06
1.5403e-08
-3.49637e-08
1.50612e-06
1.73798e-08
-3.94202e-08
1.87697e-06
1.85617e-08
-4.21038e-08
2.26124e-06
1.93523e-08
-4.38749e-08
2.6588e-06
1.99186e-08
-4.51503e-08
3.06942e-06
2.0362e-08
-4.61388e-08
3.49338e-06
2.07193e-08
-4.69476e-08
3.93155e-06
2.10238e-08
-4.76249e-08
4.38444e-06
2.12855e-08
-4.82154e-08
4.85263e-06
2.15198e-08
-4.87339e-08
5.33701e-06
2.1729e-08
-4.91988e-08
5.83789e-06
2.19222e-08
-4.96257e-08
6.35487e-06
2.20981e-08
-5.00189e-08
6.8871e-06
2.22648e-08
-5.0389e-08
7.43368e-06
2.24208e-08
-5.07373e-08
7.99502e-06
2.25699e-08
-5.10688e-08
8.57366e-06
2.27117e-08
-5.13851e-08
9.17316e-06
2.28488e-08
-5.16895e-08
9.79612e-06
2.29824e-08
-5.1983e-08
1.04437e-05
2.31109e-08
-5.22678e-08
1.11164e-05
2.32353e-08
-5.25433e-08
1.18148e-05
2.33574e-08
-5.28141e-08
1.25398e-05
2.34745e-08
-5.30777e-08
1.32918e-05
2.35923e-08
-5.33387e-08
1.4071e-05
2.37076e-08
-5.35957e-08
1.48771e-05
2.38228e-08
-5.38498e-08
1.57096e-05
2.39366e-08
-5.41015e-08
1.65685e-05
2.40501e-08
-5.43513e-08
1.74557e-05
2.4164e-08
-5.45998e-08
1.83754e-05
2.42767e-08
-5.48473e-08
1.9334e-05
2.43959e-08
-5.50946e-08
2.0339e-05
2.45084e-08
-5.53415e-08
2.13972e-05
2.46312e-08
-5.55864e-08
2.25134e-05
2.47453e-08
-5.58343e-08
2.369e-05
2.48597e-08
-5.6072e-08
2.49267e-05
2.49745e-08
-5.63228e-08
2.62221e-05
2.50843e-08
-5.65601e-08
2.75748e-05
2.52034e-08
-5.68157e-08
2.89869e-05
2.53187e-08
-5.70615e-08
3.04667e-05
2.54429e-08
-5.73236e-08
3.20319e-05
2.55775e-08
-5.75841e-08
3.371e-05
2.57064e-08
-5.78541e-08
3.55362e-05
2.58718e-08
-5.81264e-08
3.75489e-05
2.60042e-08
-5.84057e-08
3.97854e-05
2.61968e-08
-5.86865e-08
4.22785e-05
2.63276e-08
-5.89767e-08
4.50563e-05
2.6451e-08
-5.92273e-08
4.81433e-05
2.65781e-08
-5.95312e-08
5.15581e-05
2.66932e-08
-5.98204e-08
5.53049e-05
2.68274e-08
-6.01404e-08
5.93567e-05
2.69706e-08
-6.04631e-08
6.3632e-05
2.71261e-08
-6.08013e-08
6.79673e-05
2.72794e-08
-6.11383e-08
7.2098e-05
2.74547e-08
-6.14973e-08
7.5656e-05
2.76165e-08
-6.18481e-08
7.81971e-05
2.78149e-08
-6.22303e-08
7.92582e-05
2.79863e-08
-6.25988e-08
7.84371e-05
2.82095e-08
-6.30066e-08
7.54763e-05
2.84039e-08
-6.34032e-08
7.03276e-05
2.86567e-08
-6.38398e-08
6.31765e-05
2.88942e-08
-6.42775e-08
5.44189e-05
2.918e-08
-6.47484e-08
4.45963e-05
2.94632e-08
-6.52357e-08
3.4311e-05
2.97518e-08
-6.5718e-08
2.4142e-05
3.00502e-08
-6.62321e-08
1.45802e-05
3.03405e-08
-6.67393e-08
5.99488e-06
3.06554e-08
-6.72878e-08
-1.37224e-06
3.0956e-08
-6.74702e-08
-7.39167e-06
3.12892e-08
-6.76794e-08
-1.20197e-05
3.16094e-08
-6.78747e-08
-1.52722e-05
3.19605e-08
-6.80953e-08
-1.72027e-05
3.23023e-08
-6.83045e-08
-1.78878e-05
3.26166e-08
-6.85368e-08
-1.74195e-05
3.3013e-08
-6.87603e-08
-1.59007e-05
3.29019e-08
-6.90046e-08
-1.34419e-05
3.33106e-08
-6.92424e-08
-1.01571e-05
3.30938e-08
-6.94991e-08
-6.1596e-06
3.31967e-08
-6.9502e-08
-1.55773e-06
3.3443e-08
-6.97143e-08
3.55162e-06
3.37407e-08
-6.97649e-08
9.0846e-06
3.42244e-08
-6.99927e-08
1.49721e-05
3.44014e-08
-6.9977e-08
2.1156e-05
3.44696e-08
-6.9961e-08
2.75854e-05
3.45553e-08
-6.99436e-08
3.42096e-05
3.46383e-08
-6.99487e-08
4.09717e-05
3.47028e-08
-6.99512e-08
4.7802e-05
3.47695e-08
-6.99571e-08
5.46147e-05
3.47987e-08
-6.99595e-08
6.13063e-05
3.48578e-08
-6.99662e-08
6.77579e-05
3.48665e-08
-6.99686e-08
7.3841e-05
3.49198e-08
-6.99763e-08
7.94271e-05
3.49148e-08
-6.99786e-08
8.43976e-05
3.49608e-08
-6.99872e-08
8.86543e-05
3.49485e-08
-6.99896e-08
9.21307e-05
3.49861e-08
-6.9999e-08
9.47984e-05
3.49704e-08
-7.00018e-08
9.66703e-05
3.5e-08
-7.0012e-08
9.78013e-05
3.49848e-08
-7.00152e-08
9.82836e-05
3.50082e-08
-7.00261e-08
9.82407e-05
3.49963e-08
-7.00299e-08
9.78189e-05
3.50158e-08
-7.00414e-08
9.71782e-05
3.50086e-08
-7.0046e-08
9.6484e-05
3.50263e-08
-7.00581e-08
9.59004e-05
3.50249e-08
-7.00635e-08
9.55836e-05
3.50425e-08
-7.00762e-08
9.56788e-05
3.50467e-08
-7.00826e-08
9.63155e-05
3.50654e-08
-7.00959e-08
9.76049e-05
3.50755e-08
-7.01034e-08
9.96364e-05
3.50961e-08
-7.01174e-08
0.000102472
3.51117e-08
-7.01261e-08
0.000106145
3.51351e-08
-7.01408e-08
0.000110648
3.51561e-08
-7.0151e-08
0.000115935
3.51828e-08
-7.01665e-08
0.000121914
3.5209e-08
-7.01781e-08
0.000128449
3.52396e-08
-7.01946e-08
0.000135358
3.52712e-08
-7.02078e-08
0.000142424
3.53063e-08
-7.02256e-08
0.000149406
3.53432e-08
-7.02406e-08
0.000156052
3.53834e-08
-7.02597e-08
0.000162118
3.5426e-08
-7.02767e-08
0.000167388
3.54717e-08
-7.02975e-08
0.000171692
3.55202e-08
-7.03167e-08
0.000174921
3.5572e-08
-7.03394e-08
0.000177037
3.56269e-08
-7.0361e-08
0.000178074
3.56852e-08
-7.03859e-08
0.000178134
3.57468e-08
-7.04101e-08
0.000177375
3.58121e-08
-7.04374e-08
0.00017599
3.58809e-08
-7.04644e-08
0.000174191
3.59538e-08
-7.04944e-08
0.000172182
3.60305e-08
-7.05245e-08
0.000170144
3.61116e-08
-7.05576e-08
0.000168216
3.6197e-08
-7.05911e-08
0.000166491
3.62871e-08
-7.06276e-08
0.000165008
3.63819e-08
-7.06648e-08
0.000163759
3.64819e-08
-7.07051e-08
0.000162694
3.65871e-08
-7.07464e-08
0.000161736
3.66977e-08
-7.07908e-08
0.000160791
3.68142e-08
-7.08366e-08
0.00015976
3.69362e-08
-7.08856e-08
0.000158555
3.70649e-08
-7.09362e-08
0.000157106
3.71993e-08
-7.09901e-08
0.000155368
3.73411e-08
-7.10458e-08
0.000153326
3.74886e-08
-7.1105e-08
0.00015099
3.76445e-08
-7.11664e-08
0.0001484
3.78062e-08
-7.12314e-08
0.000145614
3.79772e-08
-7.12987e-08
0.000142704
3.81543e-08
-7.13699e-08
0.00013975
3.83415e-08
-7.14437e-08
0.000136829
3.85351e-08
-7.15217e-08
0.000134013
3.87397e-08
-7.16022e-08
0.00013136
3.89517e-08
-7.16875e-08
0.000128913
3.91745e-08
-7.17753e-08
0.000126696
3.94073e-08
-7.18683e-08
0.000124712
3.9649e-08
-7.19635e-08
0.000122945
3.99011e-08
-7.20648e-08
0.000121357
4.01632e-08
-7.21687e-08
0.000119893
4.04357e-08
-7.22785e-08
0.00011848
4.07205e-08
-7.23924e-08
0.000117027
4.10144e-08
-7.25094e-08
0.000115432
4.1319e-08
-7.26312e-08
0.000113577
4.16319e-08
-7.27553e-08
0.00011134
4.19556e-08
-7.2885e-08
0.000108593
4.22865e-08
-7.30167e-08
0.000105212
4.26295e-08
-7.31544e-08
0.00010108
4.29808e-08
-7.32949e-08
9.61002e-05
4.33441e-08
-7.34408e-08
9.01989e-05
4.37165e-08
-7.35902e-08
8.33375e-05
4.41015e-08
-7.37448e-08
7.55193e-05
4.44964e-08
-7.39034e-08
6.67976e-05
4.49049e-08
-7.40675e-08
5.72809e-05
4.53247e-08
-7.42363e-08
4.71362e-05
4.57596e-08
-7.44108e-08
3.65894e-05
4.62076e-08
-7.45909e-08
2.59235e-05
4.66724e-08
-7.47773e-08
1.54704e-05
4.71522e-08
-7.497e-08
5.59799e-06
4.76507e-08
-7.51696e-08
-3.30337e-06
4.81656e-08
-7.53762e-08
-1.08465e-05
4.87005e-08
-7.55899e-08
-1.66729e-05
4.9253e-08
-7.58113e-08
-2.04736e-05
4.9826e-08
-7.60401e-08
-2.2018e-05
5.04168e-08
-7.62766e-08
-2.11697e-05
5.10281e-08
-7.65204e-08
-1.78947e-05
5.16571e-08
-7.6772e-08
-1.22667e-05
5.23064e-08
-7.70308e-08
-4.45568e-06
5.29738e-08
-7.72975e-08
5.28831e-06
5.36621e-08
-7.75715e-08
1.666e-05
5.437e-08
-7.7854e-08
2.93295e-05
5.5101e-08
-7.81447e-08
4.29574e-05
5.58544e-08
-7.84453e-08
5.7218e-05
5.66344e-08
-7.87556e-08
7.18159e-05
5.74407e-08
-7.90775e-08
8.64897e-05
5.82776e-08
-7.9411e-08
0.000101022
5.91453e-08
-7.9758e-08
0.000115235
6.00479e-08
-8.01185e-08
0.000128987
6.09857e-08
-8.04946e-08
0.000142172
6.19627e-08
-8.08863e-08
0.000154712
6.29792e-08
-8.12956e-08
0.00016655
6.40388e-08
-8.17224e-08
0.000177648
6.51416e-08
-8.21687e-08
0.00018798
6.62908e-08
-8.26343e-08
0.000197525
6.74864e-08
-8.31209e-08
0.000206263
6.87308e-08
-8.36284e-08
0.000214166
7.00237e-08
-8.4158e-08
0.000221199
7.1367e-08
-8.47098e-08
0.000227309
7.276e-08
-8.52847e-08
0.000232423
7.4204e-08
-8.58824e-08
0.000236445
7.5698e-08
-8.65037e-08
0.00023926
7.72429e-08
-8.71484e-08
0.000240732
7.88375e-08
-8.7817e-08
0.000240713
8.04826e-08
-8.85092e-08
0.000239049
8.21772e-08
-8.92256e-08
0.000235595
8.39226e-08
-8.99661e-08
0.000230224
8.57184e-08
-9.07314e-08
0.000222841
8.75666e-08
-9.15219e-08
0.000213401
8.94683e-08
-9.23386e-08
0.000201916
9.14268e-08
-9.31825e-08
0.000188475
9.34446e-08
-9.40552e-08
0.000173251
9.55268e-08
-9.49582e-08
0.00015651
9.76774e-08
-9.58941e-08
0.000138621
9.99033e-08
-9.68647e-08
0.000120055
1.0221e-07
-9.78733e-08
0.000101386
1.04605e-07
-9.8922e-08
8.32781e-05
1.07094e-07
-1.00014e-07
6.64625e-05
1.09686e-07
-1.01152e-07
5.17048e-05
1.12384e-07
-1.02339e-07
3.97419e-05
1.15195e-07
-1.03576e-07
3.1231e-05
1.18121e-07
-1.04865e-07
2.66694e-05
1.21167e-07
-1.06205e-07
2.6336e-05
1.24329e-07
-1.076e-07
3.02449e-05
1.27614e-07
-1.09046e-07
3.81173e-05
1.31017e-07
-1.10549e-07
4.94177e-05
1.34546e-07
-1.12104e-07
6.33962e-05
1.38198e-07
-1.13721e-07
7.91586e-05
1.41986e-07
-1.15394e-07
9.5742e-05
1.45909e-07
-1.17137e-07
0.000112198
1.49982e-07
-1.18943e-07
0.000127666
1.54202e-07
-1.20829e-07
0.000141422
1.58587e-07
-1.22782e-07
0.000152936
1.63125e-07
-1.24825e-07
0.000161892
1.67838e-07
-1.26938e-07
0.000168191
1.72702e-07
-1.29146e-07
0.000171949
1.77745e-07
-1.31423e-07
0.000173479
1.82932e-07
-1.33799e-07
0.000173247
1.88294e-07
-1.36239e-07
0.000171826
1.9379e-07
-1.38781e-07
0.000169839
1.99457e-07
-1.41379e-07
0.000167902
2.05243e-07
-1.44081e-07
0.00016659
2.11196e-07
-1.46829e-07
0.000166397
2.1725e-07
-1.49686e-07
0.000167692
2.23467e-07
-1.52576e-07
0.000170716
2.29765e-07
-1.55579e-07
0.000175581
2.36225e-07
-1.58604e-07
0.000182285
2.42746e-07
-1.61749e-07
0.000190717
2.49434e-07
-1.64905e-07
0.000200681
2.56167e-07
-1.68194e-07
0.000211916
2.63077e-07
-1.71483e-07
0.000224142
2.70021e-07
-1.74924e-07
0.000237046
2.77159e-07
-1.78355e-07