/*--------------------------------*- C++ -*----------------------------------*\
| =========                 |                                                 |
| \\      /  F ield         | OpenFOAM: The Open Source CFD Toolbox           |
|  \\    /   O peration     | Version:  2012                                  |
|   \\  /    A nd           | Website:  www.openfoam.com                      |
|    \\/     M anipulation  |                                                 |
\*---------------------------------------------------------------------------*/
FoamFile
{
    version     2.0;
    format      ascii;
    class       volSymmTensorField;
    location    "14000";
    object      turbulenceProperties:R;
}
// * * * * * * * * * * * * * * * * * * * * * * * * * * * * * * * * * * * * * //

dimensions      [0 2 -2 0 0 0 0];


internalField   nonuniform List<symmTensor> 
2560
(
(0.0016857 -4.92049e-07 -7.14159e-10 0.0016857 -8.34914e-10 0.0016857)
(0.00168479 -4.91419e-07 -7.13685e-10 0.00168479 2.50503e-13 0.00168479)
(0.0466935 -7.80057e-05 -3.41747e-07 0.0466935 5.81852e-13 0.0466935)
(0.0466704 -7.79099e-05 -3.41534e-07 0.0466704 1.30182e-11 0.0466704)
(0.330723 -0.00163814 -9.81087e-06 0.330724 6.06125e-07 0.330723)
(0.330569 -0.0016362 -9.79944e-06 0.330568 -5.65332e-10 0.330569)
(1.12426 -0.0120318 -7.31058e-05 1.12426 7.64256e-06 1.12426)
(1.1238 -0.0120187 -7.30284e-05 1.1238 -5.535e-09 1.12381)
(2.3731 -0.0447171 -0.000275641 2.3731 2.33625e-05 2.3731)
(2.37236 -0.0446754 -0.000275395 2.37235 -1.57651e-08 2.37236)
(3.71116 -0.104498 -0.000653178 3.71116 3.06163e-05 3.71116)
(3.71025 -0.104417 -0.000652699 3.71024 -2.41118e-08 3.71025)
(4.95153 -0.185714 -0.00117676 4.95154 2.80816e-05 4.95153)
(4.95054 -0.185595 -0.00117605 4.95053 -3.08266e-08 4.95054)
(6.07531 -0.281881 -0.00181058 6.07532 2.3445e-05 6.07531)
(6.07426 -0.281734 -0.0018097 6.07424 -3.75607e-08 6.07426)
(7.10355 -0.388729 -0.00253292 7.10356 1.94591e-05 7.10355)
(7.10245 -0.388565 -0.00253195 7.10244 -3.75877e-08 7.10246)
(8.05832 -0.504125 -0.00333491 8.05834 1.63954e-05 8.05832)
(8.05719 -0.503958 -0.00333392 8.05718 -4.95852e-08 8.05719)
(8.95676 -0.626721 -0.00420686 8.95677 1.40629e-05 8.95676)
(8.95559 -0.626564 -0.00420594 8.95558 -3.77879e-08 8.95559)
(9.81154 -0.75527 -0.00514458 9.81155 1.22406e-05 9.81154)
(9.81035 -0.755135 -0.00514381 9.81033 -6.65945e-08 9.81035)
(10.6322 -0.889414 -0.00615005 10.6322 1.08926e-05 10.6322)
(10.631 -0.889311 -0.0061495 10.6308 -1.18679e-06 10.631)
(11.4258 -1.0284 -0.00721323 11.4258 9.60449e-06 11.4258)
(11.4246 -1.02834 -0.00721295 11.4246 -7.19341e-09 11.4246)
(12.1982 -1.17 -0.00831745 12.1982 8.71064e-06 12.1982)
(12.1972 -1.16998 -0.00831748 12.1962 -5.40411e-07 12.1972)
(12.9537 -1.31161 -0.00944614 12.9537 6.11835e-06 12.9537)
(12.9524 -1.31164 -0.00944649 12.9524 -3.49872e-08 12.9524)
(13.6961 -1.4512 -0.0105885 13.6961 1.23905e-05 13.6961)
(13.6948 -1.45128 -0.0105891 13.6948 1.05567e-06 13.6948)
(14.4284 -1.58963 -0.0117683 14.4284 2.31431e-06 14.4284)
(14.4271 -1.58974 -0.0117692 14.4271 -1.46786e-08 14.4271)
(15.1533 -1.73265 -0.0130455 15.1533 1.37796e-05 15.1533)
(15.1519 -1.7328 -0.0130466 15.1519 3.59382e-08 15.1519)
(15.873 -1.88709 -0.0144623 15.873 -5.55543e-07 15.873)
(15.8716 -1.88725 -0.0144636 15.8716 -5.61324e-09 15.8716)
(16.5894 -2.05453 -0.016007 16.5894 1.56234e-05 16.5894)
(16.5879 -2.05471 -0.0160083 16.5879 5.57217e-08 16.5879)
(17.3042 -2.23095 -0.0176405 17.3042 -3.6173e-06 17.3042)
(17.3028 -2.23113 -0.0176419 17.3028 3.72188e-09 17.3028)
(18.019 -2.41174 -0.0193407 18.019 1.86902e-05 18.019)
(18.0175 -2.41192 -0.0193421 18.0175 -2.53937e-06 18.0175)
(18.735 -2.59528 -0.0211103 18.735 -9.72009e-06 18.735)
(18.7335 -2.59545 -0.0211116 18.7335 -5.49126e-08 18.7335)
(19.4536 -2.78184 -0.0229549 19.4536 2.68082e-05 19.4536)
(19.452 -2.782 -0.0229561 19.452 -5.07314e-07 19.452)
(20.1758 -2.97103 -0.0248661 20.1759 -2.03768e-05 20.1758)
(20.1743 -2.97118 -0.0248672 20.1743 -1.31899e-07 20.1743)
(20.9029 -3.1608 -0.0268219 20.9029 3.71537e-05 20.9029)
(20.9013 -3.16092 -0.0268229 20.9013 2.63378e-06 20.9013)
(21.6358 -3.34805 -0.0287954 21.6359 -3.04934e-05 21.6358)
(21.6342 -3.34816 -0.0287962 21.6342 -1.00215e-07 21.6342)
(22.3756 -3.53024 -0.0307709 22.3756 4.55612e-05 22.3756)
(22.374 -3.53032 -0.0307715 22.374 -3.85259e-08 22.374)
(23.1232 -3.70784 -0.0327719 23.1233 -3.88576e-05 23.1232)
(23.1216 -3.70789 -0.0327722 23.1216 -2.72012e-08 23.1216)
(23.8797 -3.88722 -0.0348859 23.8797 5.43524e-05 23.8797)
(23.878 -3.88724 -0.0348859 23.878 1.98424e-07 23.878)
(24.6459 -4.0811 -0.037255 24.646 -4.80918e-05 24.6459)
(24.6442 -4.08108 -0.0372546 24.6442 3.54684e-08 24.6442)
(25.4229 -4.30466 -0.0400231 25.4229 6.41435e-05 25.4229)
(25.4211 -4.30459 -0.0400222 25.4211 2.6531e-07 25.4211)
(26.2114 -4.56903 -0.0432738 26.2115 -5.82188e-05 26.2114)
(26.2096 -4.56891 -0.0432724 26.2096 2.85009e-08 26.2096)
(27.0123 -4.87627 -0.0469959 27.0122 7.48475e-05 27.0123)
(27.0103 -4.8761 -0.046994 27.0103 -5.79274e-06 27.0103)
(27.826 -5.21844 -0.0510885 27.8262 -7.54669e-05 27.826)
(27.8241 -5.21822 -0.0510862 27.8241 -1.32065e-07 27.8241)
(28.6536 -5.58037 -0.055396 28.6534 9.93568e-05 28.6536)
(28.6515 -5.58011 -0.0553933 28.6515 -2.107e-05 28.6515)
(29.4952 -5.94449 -0.0597558 29.4954 -0.000122976 29.4952)
(29.4932 -5.94418 -0.0597526 29.4932 -4.55927e-07 29.4932)
(30.352 -6.29635 -0.0640547 30.3518 0.000172167 30.352)
(30.3499 -6.29601 -0.0640511 30.3499 -9.50251e-06 30.3499)
(31.2241 -6.6309 -0.0683019 31.2244 -0.000209657 31.2241)
(31.2221 -6.6305 -0.0682977 31.2221 -6.27114e-07 31.2221)
(32.1129 -6.95935 -0.0727099 32.1127 0.000274314 32.1129)
(32.1107 -6.95888 -0.0727047 32.1107 7.47131e-06 32.1107)
(33.0186 -7.31487 -0.0777527 33.0189 -0.000309867 33.0186)
(33.0165 -7.3143 -0.0777461 33.0165 -5.53837e-07 33.0165)
(33.9425 -7.75261 -0.0841419 33.9423 0.000372864 33.9425)
(33.9402 -7.7519 -0.0841334 33.9402 1.83064e-05 33.9402)
(34.8846 -8.34007 -0.0926789 34.885 -0.000394243 34.8846)
(34.8824 -8.33916 -0.092668 34.8824 -3.13257e-07 34.8824)
(35.8461 -9.1387 -0.104029 35.8457 0.000442351 35.8461)
(35.8436 -9.13757 -0.104016 35.8436 8.16749e-06 35.8436)
(36.8257 -10.1853 -0.118534 36.8261 -0.000458829 36.8257)
(36.8234 -10.1839 -0.118518 36.8234 -2.08539e-07 36.8234)
(37.8237 -11.4829 -0.136169 37.8234 0.000502635 37.8237)
(37.8211 -11.4813 -0.136151 37.8211 -3.87421e-06 37.8211)
(38.8376 -13.0055 -0.156634 38.838 -0.000524002 38.8376)
(38.8352 -13.0037 -0.156613 38.8352 -2.75683e-07 38.8352)
(39.8659 -14.7136 -0.179576 39.8654 0.000574323 39.8659)
(39.8631 -14.7117 -0.179554 39.8631 -0.000102645 39.8631)
(40.9042 -16.5693 -0.204688 40.9047 -0.000701734 40.9042)
(40.9017 -16.5674 -0.204666 40.9017 1.41662e-19 40.9017)
(41.9497 -18.5299 -0.231448 41.9492 0.000865903 41.9497)
(41.9468 -18.5281 -0.231428 41.9468 5.73046e-05 41.9468)
(42.9961 -20.5139 -0.258566 42.9966 -0.000947867 42.9961)
(42.9935 -20.5125 -0.258551 42.9935 -3.25636e-06 42.9935)
(44.0392 -22.3523 -0.283265 44.0387 0.00104087 44.0392)
(44.0362 -22.3513 -0.283257 44.0362 2.83386e-05 44.0362)
(45.0726 -23.7375 -0.300601 45.073 -0.00111602 45.0726)
(45.0698 -23.7375 -0.300607 45.0698 -8.17845e-06 45.0699)
(46.094 -24.1945 -0.303144 46.0937 0.00115068 46.094)
(46.0909 -24.1957 -0.303168 46.0909 -3.73274e-05 46.0909)
(47.1035 -23.1058 -0.281631 47.104 -0.00127528 47.1035)
(47.1006 -23.1087 -0.281679 47.1006 -1.50829e-05 47.1006)
(48.1105 -19.8117 -0.226603 48.1105 0.00127477 48.1105)
(48.1074 -19.8165 -0.22668 48.1074 -4.97565e-05 48.1074)
(49.1314 -13.7743 -0.130984 49.132 -0.00148176 49.1314)
(49.1283 -13.7814 -0.131093 49.1283 -1.62692e-05 49.1283)
(50.1894 -0.00311925 -2.08613e-05 50.1896 0.00144136 50.1894)
(50.186 -5.51623e-16 -1.80037e-21 50.186 -2.81319e-05 50.186)
(51.3045 1.05668 -0.00716975 51.3047 -0.00172298 51.3045)
(51.301 1.03547 -0.00702582 51.301 -4.878e-06 51.301)
(52.4783 20.5051 -0.185713 52.4784 0.0016685 52.4783)
(52.4745 20.4917 -0.185538 52.4745 2.75682e-05 52.4745)
(53.6726 34.692 -0.388056 53.6722 -0.00195813 53.6726)
(53.6685 34.6774 -0.387857 53.6685 1.43509e-05 53.6685)
(54.8161 47.9206 -0.593684 54.8162 0.00193367 54.8161)
(54.8121 47.9057 -0.593471 54.8121 7.71551e-05 54.8122)
(55.8119 58.667 -0.778957 55.8111 -0.00214171 55.8119)
(55.8077 58.6528 -0.778744 55.8077 2.68474e-05 55.8077)
(56.5572 65.7729 -0.922217 56.5576 0.00218115 56.5572)
(56.5536 65.7605 -0.92202 56.5536 6.67728e-05 56.5536)
(56.9744 68.6745 -1.00857 56.9736 -0.0022475 56.9744)
(56.9707 68.6648 -1.00841 56.9707 -7.52403e-05 56.9707)
(57.0241 67.466 -1.03253 57.0249 0.00229192 57.0241)
(57.0213 67.4599 -1.03241 57.0213 -1.94103e-05 57.0213)
(56.7173 62.792 -0.998113 56.7166 -0.00225265 56.7173)
(56.7144 62.7901 -0.998052 56.7144 -4.01024e-05 56.7145)
(56.0996 55.6155 -0.673964 56.1006 0.00230944 56.0996)
(56.0976 55.6178 -0.673991 56.0976 -8.26313e-06 56.0977)
(55.2437 46.9646 -0.273245 55.2431 -0.00221112 55.2437)
(55.2417 46.9713 -0.273278 55.2417 -0.0002093 55.2417)
(54.2253 37.7423 0.0615858 54.2261 0.00227891 54.2253)
(54.224 37.7528 0.0615512 54.224 -9.95449e-06 54.224)
(53.1179 28.6249 0.326296 53.1173 -0.00217962 53.1179)
(53.1164 28.6376 0.326264 53.1164 0.000235047 53.1164)
(51.9783 20.0486 0.263229 51.979 0.00223672 51.9783)
(51.9774 20.0619 0.263446 51.9774 4.92017e-06 51.9774)
(50.8511 12.2523 0.143606 50.8506 -0.00216274 50.8511)
(50.8498 12.2652 0.143816 50.8498 1.58186e-05 50.8498)
(49.7623 4.25922 0.0358869 49.7628 0.00220364 49.7623)
(49.7614 4.28265 0.0360843 49.7614 4.95643e-06 49.7614)
(48.7289 -3.41417e-20 -4.41484e-19 48.7285 -0.00215936 48.7289)
(48.7277 -0.00243936 2.08522e-05 48.7277 1.57414e-05 48.7277)
(47.7527 -5.78376 0.0592575 47.7531 0.00218578 47.7527)
(47.7511 -5.77346 0.059073 47.7531 1.3342e-05 47.7511)
(46.8311 -10.0422 0.141808 46.8307 -0.00215798 46.8311)
(46.8299 -10.0327 0.141636 46.8299 1.3555e-05 46.8299)
(45.9546 -13.4926 0.211944 45.9549 0.00218242 45.9546)
(45.9523 -13.484 0.211784 45.9563 3.52415e-05 45.9523)
(45.1128 -16.1978 0.270076 45.1125 -0.00216825 45.1128)
(45.1118 -16.1901 0.269929 45.1118 1.13788e-05 45.1118)
(44.293 -18.2328 0.235386 44.2933 0.00170609 44.293)
(44.2915 -18.2263 0.235402 44.2938 1.64599e-05 44.2915)
(43.4844 -19.6855 0.0586348 43.4841 -0.00125066 43.4844)
(43.4835 -19.6808 0.0586561 43.4835 8.90886e-06 43.4835)
(42.676 -20.652 -0.131717 42.6762 0.000951192 42.676)
(42.6751 -20.6494 -0.131691 42.6762 6.12724e-06 42.6751)
(41.86 -21.2259 -0.331786 41.8597 -0.000612935 41.86)
(41.8595 -21.2251 -0.331757 41.8595 2.12785e-06 41.8595)
(41.0289 -21.4872 -0.422859 41.0291 0.000466861 41.0289)
(41.0286 -21.4877 -0.422879 41.0289 1.80585e-06 41.0286)
(40.1779 -21.4953 -0.426977 40.1777 -0.000154244 40.1779)
(40.1778 -21.4967 -0.427013 40.1778 -4.74749e-21 40.1778)
(39.3027 -21.2846 -0.426941 39.3029 0.00016889 39.3027)
(39.3028 -21.2867 -0.426988 39.3029 3.16643e-06 39.3028)
(38.401 -20.8653 -0.422527 38.4008 -0.00012006 38.401)
(38.4012 -20.8678 -0.422583 38.4012 -5.44333e-07 38.4012)
(37.4711 -20.2273 -0.413161 37.4712 0.000141245 37.4711)
(37.4714 -20.2302 -0.413223 37.4716 -9.41578e-07 37.4714)
(36.5134 -19.3491 -0.398091 36.5133 -0.000121211 36.5134)
(36.5139 -19.3522 -0.398158 36.5139 -6.58039e-06 36.5139)
(35.5296 -18.2069 -0.376588 35.5297 0.000130874 35.5296)
(35.5301 -18.2101 -0.376659 35.5303 -9.25524e-06 35.5301)
(34.5236 -16.7853 -0.348186 34.5235 -0.000118201 34.5236)
(34.5242 -16.7886 -0.348258 34.5242 -9.41949e-06 34.5242)
(33.501 -15.0868 -0.312887 33.5011 0.000118429 33.501)
(33.5016 -15.0901 -0.312961 33.5018 -1.18286e-05 33.5016)
(32.4692 -13.1381 -0.271293 32.4692 -0.000109058 32.4692)
(32.4699 -13.1414 -0.271367 32.4699 -9.75825e-06 32.4699)
(31.4369 -10.9909 -0.224599 31.437 0.000108724 31.4369)
(31.4376 -10.9941 -0.224671 31.4377 -1.20055e-05 31.4376)
(30.4131 -8.71913 -0.174544 30.413 -9.57415e-05 30.4131)
(30.4138 -8.7222 -0.174613 30.4138 -7.7568e-06 30.4138)
(29.4063 -6.41356 -0.123313 29.4064 9.96989e-05 29.4063)
(29.407 -6.41642 -0.123377 29.4071 -9.88516e-06 29.407)
(28.4238 -4.17256 -0.0732419 28.4238 -7.98828e-05 28.4238)
(28.4245 -4.17516 -0.0733005 28.4245 -4.13539e-06 28.4245)
(27.4708 -2.09098 -0.0266165 27.4708 9.1754e-05 27.4708)
(27.4714 -2.09329 -0.0266681 27.4715 -5.14158e-06 27.4714)
(26.5501 -3.04558e-14 -2.8766e-16 26.5501 -6.38009e-05 26.5501)
(26.5508 -0.00187675 -2.26857e-05 26.5508 -4.22758e-07 26.5508)
(25.6625 1.17594 -0.0144211 25.6626 8.08981e-05 25.6625)
(25.6631 1.17239 -0.0143777 25.6632 -5.44483e-06 25.6631)
(24.8072 2.46183 -0.0482424 24.8072 -4.94635e-05 24.8072)
(24.8078 2.46061 -0.0482075 24.8078 2.06547e-06 24.8078)
(23.9822 3.276 -0.0739378 23.9822 7.09792e-05 23.9822)
(23.9828 3.27516 -0.073912 23.9828 -3.67964e-06 23.9828)
(23.1854 3.72563 -0.0909535 23.1853 -3.7722e-05 23.1854)
(23.1859 3.72517 -0.090937 23.1859 2.85757e-06 23.1859)
(22.4149 3.83248 -0.0992572 22.4149 6.02137e-05 22.4149)
(22.4154 3.83238 -0.0992502 22.4154 -4.24736e-06 22.4154)
(21.6697 3.6316 -0.0992249 21.6697 -2.83308e-05 21.6697)
(21.6702 3.63184 -0.099227 21.6702 2.4618e-06 21.6702)
(20.9497 3.16678 -0.0915642 20.9498 4.99964e-05 20.9497)
(20.9502 3.16733 -0.0915749 20.9503 -5.48008e-06 20.9502)
(20.2555 2.48598 -0.0772025 20.2555 -2.06839e-05 20.2555)
(20.256 2.48677 -0.0772208 20.256 1.61098e-06 20.256)
(19.588 1.63827 -0.0571836 19.588 2.67009e-05 19.588)
(19.5884 1.63925 -0.0572082 19.5885 -6.80977e-06 19.5884)
(18.9483 0.338091 -0.0326283 18.9483 -1.44478e-05 18.9483)
(18.9487 0.340429 -0.0326577 18.9487 6.83546e-07 18.9487)
(18.3373 -0.000787367 -0.0255789 18.3373 1.19094e-06 18.3373)
(18.3377 -5.66816e-16 -0.0255453 18.3378 -7.59458e-06 18.3377)
(17.7549 -1.42571 -0.0567745 17.7549 -9.74813e-06 17.7549)
(17.7553 -1.42457 -0.056742 17.7553 -4.70595e-07 17.7553)
(17.1998 -2.46417 -0.0875152 17.1998 -1.21398e-06 17.1998)
(17.2002 -2.46311 -0.0874859 17.2002 -7.55752e-06 17.2002)
(16.6698 -3.43317 -0.116351 16.6698 -6.71047e-06 16.6698)
(16.6701 -3.43226 -0.116326 16.6701 -2.105e-06 16.6701)
(16.1614 -4.28577 -0.14177 16.1614 -3.09951e-06 16.1614)
(16.1617 -4.28506 -0.141752 16.1618 -8.32216e-06 16.1617)
(15.6704 -4.97693 -0.162278 15.6704 -4.95992e-06 15.6704)
(15.6707 -4.97646 -0.162267 15.6707 -4.07791e-06 15.6707)
(15.1921 -5.46603 -0.176468 15.1921 -5.13144e-06 15.1921)
(15.1924 -5.46581 -0.176465 15.1924 -9.36921e-06 15.1924)
(14.7223 -5.72008 -0.183165 14.7223 -4.20706e-06 14.7223)
(14.7226 -5.7201 -0.183169 14.7226 -6.17347e-06 14.7226)
(14.2577 -5.71784 -0.181564 14.2577 -7.25688e-06 14.2577)
(14.258 -5.71809 -0.181576 14.258 -1.07536e-05 14.258)
(13.7966 -5.45342 -0.171378 13.7966 -6.39053e-06 13.7966)
(13.7969 -5.45385 -0.171395 13.7969 -8.4337e-06 13.7969)
(13.3393 -4.93841 -0.152902 13.3393 -9.80905e-06 13.3393)
(13.3396 -4.93899 -0.152923 13.3396 -1.26361e-05 13.3396)
(12.8879 -4.20263 -0.127081 12.8879 -9.79021e-06 12.8879)
(12.8882 -4.20332 -0.127105 12.8882 -1.15142e-05 12.8882)
(12.4457 -3.29261 -0.0954443 12.4457 -1.36712e-05 12.4457)
(12.446 -3.29336 -0.0954704 12.446 -1.58804e-05 12.446)
(12.0169 -2.2677 -0.0599932 12.0169 -1.49413e-05 12.0169)
(12.0171 -2.26847 -0.0600196 12.0171 -1.63675e-05 12.0171)
(11.6051 -1.19476 -0.0230124 11.6051 -1.96439e-05 11.6051)
(11.6054 -1.1955 -0.0230379 11.6054 -2.13494e-05 11.6054)
(11.2131 -0.000349698 -6.15246e-06 11.213 -2.22661e-05 11.2131)
(11.2133 -0.000779751 -1.37186e-05 11.2133 -2.33824e-05 11.2133)
(10.8417 0.733342 -0.0130897 10.8417 -2.74408e-05 10.8417)
(10.8419 0.732027 -0.0130663 10.8419 -2.88717e-05 10.8419)
(10.4903 1.66574 -0.0461051 10.4904 -3.05045e-05 10.4903)
(10.4905 1.66522 -0.0460843 10.4905 -3.1474e-05 10.4905)
(10.1568 2.33119 -0.0743806 10.1568 -3.50502e-05 10.1568)
(10.1569 2.33077 -0.0743633 10.157 -3.64595e-05 10.1569)
(9.83794 2.80618 -0.096633 9.83795 -3.6671e-05 9.83794)
(9.83812 2.80588 -0.0966195 9.83812 -3.77294e-05 9.83812)
(9.5309 3.08938 -0.112182 9.5309 -3.89754e-05 9.5309)
(9.53106 3.08919 -0.112173 9.53109 -4.03925e-05 9.53106)
(9.23314 3.19637 -0.121016 9.23317 -3.71793e-05 9.23314)
(9.23331 3.19628 -0.121011 9.23331 -3.82819e-05 9.23331)
(8.94312 3.15601 -0.123734 8.94313 -3.53141e-05 8.94312)
(8.94327 3.156 -0.123732 8.9433 -3.67433e-05 8.94327)
(8.6602 3.0057 -0.121412 8.66022 -2.91747e-05 8.6602)
(8.66035 3.00576 -0.121413 8.66035 -3.0095e-05 8.66035)
(8.38459 2.78657 -0.115435 8.38459 -2.26546e-05 8.38459)
(8.38472 2.78667 -0.115439 8.38475 -2.38183e-05 8.38472)
(8.11698 2.53869 -0.107331 8.11699 -1.29553e-05 8.11698)
(8.11712 2.53881 -0.107336 8.11712 -1.34395e-05 8.11712)
(7.85832 2.29672 -0.0985767 7.85832 -2.81407e-07 7.85832)
(7.85845 2.29684 -0.0985817 7.85845 -6.8458e-07 7.85845)
(7.60949 2.0871 -0.0904328 7.60948 4.72e-06 7.60949)
(7.60961 2.0872 -0.0904373 7.60961 4.33905e-06 7.60961)
(7.37118 1.92696 -0.0838522 7.37118 1.72431e-05 7.37118)
(7.37131 1.92703 -0.0838557 7.37129 1.635e-05 7.37131)
(7.14385 1.82422 -0.0794376 7.14382 2.62304e-05 7.14385)
(7.14396 1.82424 -0.0794396 7.14393 2.51884e-05 7.14396)
(6.92761 1.77841 -0.0774372 6.92759 3.21766e-05 6.92761)
(6.92772 1.7784 -0.0774375 6.92769 3.08262e-05 6.92772)
(6.72234 1.78233 -0.0777705 6.72231 3.63845e-05 6.72234)
(6.72244 1.78229 -0.0777692 6.72241 3.51391e-05 6.72244)
(6.52764 1.82406 -0.0800903 6.52762 3.74668e-05 6.52764)
(6.52773 1.82399 -0.0800876 6.52771 3.62699e-05 6.52773)
(6.34288 1.88902 -0.0838629 6.34286 3.67513e-05 6.34288)
(6.34297 1.88893 -0.0838592 6.34294 3.58528e-05 6.34297)
(6.16727 1.96192 -0.0884417 6.16726 3.3894e-05 6.16727)
(6.16735 1.96183 -0.0884374 6.16733 3.32516e-05 6.16735)
(5.9999 2.02868 -0.0931533 5.99989 2.99629e-05 5.9999)
(5.99996 2.02858 -0.0931489 5.99996 2.97145e-05 5.99996)
(5.83984 2.07763 -0.0973839 5.83984 2.53381e-05 5.83984)
(5.8399 2.07755 -0.0973797 5.8399 2.52372e-05 5.8399)
(5.68625 2.10026 -0.100616 5.68625 1.84363e-05 5.68625)
(5.68631 2.1002 -0.100612 5.68631 2.06001e-05 5.68631)
(5.53846 2.09174 -0.102474 5.53847 6.13884e-06 5.53846)
(5.53851 2.0917 -0.102471 5.53852 1.6028e-05 5.53851)
(5.39603 2.0509 -0.102753 5.39604 -1.43983e-06 5.39603)
(5.39608 2.05089 -0.102752 5.39609 6.67059e-06 5.39608)
(5.2588 1.97972 -0.101414 5.25881 -1.47907e-06 5.2588)
(5.25884 1.97973 -0.101414 5.25885 -9.70965e-07 5.25884)
(5.12688 1.88269 -0.0985567 5.12689 -1.4588e-06 5.12688)
(5.12692 1.88271 -0.0985575 5.12693 -1.14991e-06 5.12692)
(5.00063 1.7662 -0.0944073 5.00064 -1.54878e-06 5.00063)
(5.00066 1.76625 -0.0944092 5.00067 -1.1909e-06 5.00066)
(4.88056 1.63767 -0.0892859 4.88057 -1.50357e-06 4.88056)
(4.88059 1.63773 -0.0892888 4.8806 -1.08415e-06 4.88059)
(4.7673 1.50476 -0.0835592 4.76731 -1.58773e-06 4.7673)
(4.76732 1.50482 -0.0835626 4.76733 -1.10123e-06 4.76732)
(4.66151 1.37489 -0.0776164 4.66151 -1.52846e-06 4.66151)
(4.66152 1.37495 -0.0776201 4.66153 -1.01292e-06 4.66152)
(4.5638 1.25492 -0.0718458 4.5638 -1.58093e-06 4.5638)
(4.5638 1.25498 -0.0718495 4.56381 -9.84122e-07 4.5638)
(4.47472 1.1509 -0.0666203 4.47472 -1.68798e-06 4.47472)
(4.47471 1.15095 -0.0666235 4.47472 -9.45702e-07 4.47471)
(4.39471 1.06798 -0.0622817 4.39471 -1.47068e-06 4.39471)
(4.39469 1.06801 -0.0622841 4.39469 -8.59762e-07 4.39469)
(4.32408 1.01036 -0.0591446 4.32408 -1.75936e-06 4.32408)
(4.32404 1.01037 -0.0591458 4.32404 -9.34873e-07 4.32404)
(4.26299 0.981344 -0.0574779 4.26299 -1.17134e-06 4.26299)
(4.26294 0.981323 -0.0574775 4.26294 -7.44388e-07 4.26294)
(4.21149 0.983636 -0.057526 4.21149 -1.17083e-06 4.21149)
(4.21142 0.983581 -0.0575238 4.21142 -7.27212e-07 4.21142)
(4.16945 1.01903 -0.0595115 4.16945 -1.14367e-06 4.16945)
(4.16937 1.01893 -0.0595071 4.16937 -8.86772e-07 4.16937)
(4.13659 1.0882 -0.0635929 4.13659 -1.07393e-06 4.13659)
(4.13649 1.08807 -0.0635859 4.13649 -6.17738e-07 4.13649)
(4.11242 1.19075 -0.0698736 4.11242 -1.07274e-06 4.11242)
(4.1123 1.19056 -0.0698636 4.1123 -8.17827e-07 4.1123)
(4.09625 1.32486 -0.0783835 4.09625 -1.00931e-06 4.09625)
(4.09611 1.32463 -0.0783701 4.09611 -5.61101e-07 4.09611)
(4.0871 1.48709 -0.0890521 4.0871 -1.17962e-06 4.0871)
(4.08693 1.48679 -0.089035 4.08693 -7.69994e-07 4.08693)
(4.08368 1.67207 -0.101682 4.08368 -9.88491e-07 4.08368)
(4.08349 1.67171 -0.101661 4.08349 -5.32902e-07 4.08349)
(4.08441 1.87256 -0.115936 4.08441 -1.14318e-06 4.08441)
(4.0842 1.87212 -0.115909 4.0842 -7.61267e-07 4.0842)
(4.08736 2.07918 -0.13132 4.08736 -1.02493e-06 4.08736)
(4.08713 2.07865 -0.131288 4.08713 -5.58264e-07 4.08713)
(4.09038 2.28072 -0.147166 4.09038 -1.18121e-06 4.09038)
(4.09012 2.28009 -0.147127 4.09013 -8.05331e-07 4.09012)
(4.09112 2.4644 -0.162655 4.09112 -1.13811e-06 4.09112)
(4.09085 2.46364 -0.162608 4.09085 -6.4449e-07 4.09085)
(4.08728 2.61645 -0.176824 4.08728 -1.30105e-06 4.08728)
(4.08699 2.61556 -0.176767 4.087 -9.05591e-07 4.08699)
(4.07674 2.72303 -0.188623 4.07674 -1.32311e-06 4.07674)
(4.07645 2.72197 -0.188555 4.07645 -7.79466e-07 4.07645)
(4.05789 2.77111 -0.196975 4.05789 -1.47078e-06 4.05789)
(4.05761 2.76988 -0.196893 4.05761 -1.05385e-06 4.05761)
(4.02981 2.74944 -0.200843 4.02981 -1.54802e-06 4.02981)
(4.02954 2.74809 -0.200749 4.02954 -9.41882e-07 4.02954)
(3.99251 2.64975 -0.199311 3.99251 -1.65536e-06 3.99251)
(3.99227 2.6484 -0.199208 3.99227 -1.22054e-06 3.99227)
(3.94705 2.46784 -0.136852 3.94705 -1.7532e-06 3.94705)
(3.94685 2.46679 -0.136874 3.94686 -1.09533e-06 3.94686)
(3.89559 2.20399 -0.0491961 3.89559 -1.77499e-06 3.89559)
(3.89544 2.20378 -0.0492174 3.89545 -1.35445e-06 3.89544)
(3.84112 1.86363 0.0288555 3.84112 -1.8509e-06 3.84112)
(3.84104 1.8648 0.0288369 3.84104 -1.17397e-06 3.84104)
(3.78717 1.45796 0.0940817 3.78717 -1.79427e-06 3.78717)
(3.78713 1.46025 0.0940672 3.78713 -1.39593e-06 3.78713)
(3.73725 1.00177 0.060346 3.73725 -1.82957e-06 3.73725)
(3.73723 1.00443 0.0605603 3.73723 -1.1478e-06 3.73723)
(3.69442 0.512614 0.020955 3.69442 -1.70248e-06 3.69442)
(3.69441 0.515288 0.0211671 3.69442 -1.34315e-06 3.69441)
(3.66077 0.000252801 1.02747e-05 3.66077 -1.68822e-06 3.66077)
(3.66076 0.000491796 1.99883e-05 3.66076 -1.06876e-06 3.66076)
(3.63702 -0.484905 0.0200146 3.63702 -1.52876e-06 3.63702)
(3.637 -0.480197 0.0198007 3.63701 -1.26681e-06 3.63701)
(3.62246 -0.953345 0.0610263 3.62246 -1.53279e-06 3.62246)
(3.62245 -0.950829 0.0608102 3.62246 -1.00579e-06 3.62245)
(3.61507 -1.37669 0.100124 3.61507 -1.40668e-06 3.61506)
(3.61508 -1.37456 0.0999162 3.61509 -1.23563e-06 3.61508)
(3.61188 -1.73987 0.0377963 3.61188 -1.47372e-06 3.61188)
(3.61194 -1.73885 0.0378103 3.61195 -1.02567e-06 3.61194)
(3.60957 -2.0325 -0.0448954 3.60957 -1.44852e-06 3.60957)
(3.60968 -2.03288 -0.0448787 3.60969 -1.28316e-06 3.60968)
(3.60484 -2.25003 -0.141236 3.60484 -1.58935e-06 3.60484)
(3.605 -2.25123 -0.141219 3.60501 -1.1207e-06 3.605)
(3.59482 -2.39216 -0.220113 3.59482 -1.68064e-06 3.59482)
(3.59502 -2.39356 -0.220238 3.59503 -1.39071e-06 3.59502)
(3.57736 -2.46235 -0.226696 3.57736 -1.88107e-06 3.57736)
(3.57759 -2.46365 -0.226806 3.57759 -1.26927e-06 3.57759)
(3.55124 -2.4682 -0.227904 3.55124 -2.02344e-06 3.55124)
(3.55148 -2.46929 -0.227994 3.55148 -1.55164e-06 3.55148)
(3.51608 -2.41934 -0.224415 3.51608 -2.22795e-06 3.51608)
(3.51631 -2.42021 -0.224488 3.51632 -1.44689e-06 3.51631)
(3.47222 -2.32649 -0.217105 3.47223 -2.40385e-06 3.47222)
(3.47244 -2.32718 -0.217163 3.47245 -1.72288e-06 3.47245)
(3.42058 -2.20059 -0.206805 3.42058 -2.55548e-06 3.42058)
(3.42078 -2.20114 -0.206852 3.42079 -1.59824e-06 3.42079)
(3.36244 -2.05126 -0.194253 3.36244 -2.74369e-06 3.36244)
(3.36263 -2.05169 -0.194292 3.36264 -1.87161e-06 3.36263)
(3.29934 -1.88702 -0.180183 3.29934 -2.8421e-06 3.29934)
(3.2995 -1.88737 -0.180215 3.29951 -1.71101e-06 3.29951)
(3.23288 -1.71514 -0.165174 3.23288 -3.00489e-06 3.23288)
(3.23303 -1.71542 -0.1652 3.23304 -1.95026e-06 3.23303)
(3.16469 -1.54096 -0.149658 3.16469 -3.01453e-06 3.16468)
(3.16482 -1.54119 -0.14968 3.16483 -1.76989e-06 3.16482)
(3.09628 -1.36854 -0.134009 3.09628 -3.21172e-06 3.09628)
(3.0964 -1.36873 -0.134027 3.0964 -1.99601e-06 3.0964)
(3.02907 -1.2007 -0.118454 3.02907 -3.05238e-06 3.02907)
(3.02917 -1.20086 -0.118469 3.02918 -1.70147e-06 3.02917)
(2.96432 -1.03881 -0.103087 2.96432 -3.26414e-06 2.96432)
(2.9644 -1.03895 -0.1031 2.96441 -2.01542e-06 2.9644)
(2.90312 -0.883183 -0.0879259 2.90312 -3.00674e-06 2.90312)
(2.90319 -0.883299 -0.0879376 2.9032 -1.57489e-06 2.90319)
(2.84642 -0.733268 -0.0728805 2.84642 -3.21344e-06 2.84642)
(2.84647 -0.733368 -0.0728908 2.84648 -1.9589e-06 2.84648)
(2.795 -0.587689 -0.0577778 2.79501 -2.84435e-06 2.795)
(2.79505 -0.587778 -0.0577872 2.79506 -1.40199e-06 2.79506)
(2.74954 -0.444426 -0.0423637 2.74954 -3.06971e-06 2.74954)
(2.74958 -0.444507 -0.0423725 2.74958 -4.86074e-06 2.74958)
(2.71053 -0.300951 -0.0263241 2.71053 -2.61676e-06 2.71053)
(2.71056 -0.301028 -0.0263327 2.71057 -8.82487e-06 2.71056)
(2.67836 -0.154412 -0.00929554 2.67836 -2.85391e-06 2.67836)
(2.67838 -0.154486 -0.00930422 2.67839 -1.09482e-05 2.67838)
(2.65325 -0.00029743 -1.75949e-05 2.65325 -2.41712e-06 2.65325)
(2.65326 -0.000298301 -1.76464e-05 2.65327 -1.0091e-05 2.65326)
(2.63526 0.152743 -0.00916712 2.63526 -2.55861e-06 2.63526)
(2.63527 0.152591 -0.00915798 2.63528 -1.00448e-05 2.63527)
(2.62427 0.329033 -0.0294337 2.62427 -2.20511e-06 2.62427)
(2.62427 0.32895 -0.029424 2.62428 -9.01842e-06 2.62427)
(2.6199 0.510441 -0.0516384 2.6199 -2.18498e-06 2.6199)
(2.6199 0.510352 -0.0516278 2.61991 -8.52608e-06 2.6199)
(2.62151 0.702267 -0.0758753 2.62151 -1.99404e-06 2.62151)
(2.6215 0.702169 -0.0758636 2.62151 -7.62146e-06 2.6215)
(2.62814 0.90266 -0.102068 2.62814 -1.92899e-06 2.62814)
(2.62812 0.902553 -0.102055 2.62814 -7.09688e-06 2.62812)
(2.6385 1.10824 -0.129939 2.6385 -1.91463e-06 2.6385)
(2.63848 1.10812 -0.129924 2.63849 -6.61119e-06 2.63848)
(2.65096 1.31393 -0.15898 2.65097 -1.93071e-06 2.65096)
(2.65094 1.3138 -0.158963 2.65095 -6.46461e-06 2.65094)
(2.66361 1.51309 -0.188414 2.66361 -2.41449e-06 2.66361)
(2.66358 1.51295 -0.188395 2.66359 -6.56368e-06 2.66358)
(2.67429 1.69766 -0.217236 2.67429 -4.69593e-06 2.67429)
(2.67426 1.6975 -0.217216 2.67427 -7.07322e-06 2.67426)
(2.68075 1.85847 -0.244186 2.68075 -6.26768e-06 2.68075)
(2.68072 1.85829 -0.244163 2.68073 -7.55545e-06 2.68072)
(2.6808 1.98585 -0.267845 2.6808 -7.58923e-06 2.6808)
(2.68077 1.98566 -0.267819 2.68078 -8.75552e-06 2.68077)
(2.67252 2.06997 -0.286681 2.67252 -8.00351e-06 2.67252)
(2.67248 2.06976 -0.286653 2.6725 -9.26507e-06 2.67248)
(2.65443 2.10169 -0.299098 2.65443 -9.54429e-06 2.65443)
(2.6544 2.10147 -0.299068 2.65441 -1.0783e-05 2.6544)
(2.62577 2.07334 -0.303622 2.62577 -9.74579e-06 2.62577)
(2.62574 2.07311 -0.30359 2.62575 -1.10122e-05 2.62574)
(2.58661 1.97963 -0.298939 2.58661 -1.08461e-05 2.58661)
(2.58658 1.97943 -0.298907 2.5866 -1.22193e-05 2.58658)
(2.53796 1.8186 -0.284153 2.53797 -1.05876e-05 2.53796)
(2.53795 1.81845 -0.284125 2.53796 -1.19585e-05 2.53795)
(2.48179 1.59222 -0.258816 2.48179 -1.09069e-05 2.48179)
(2.48178 1.59219 -0.2588 2.4818 -1.14752e-05 2.48178)
(2.42075 1.30772 -0.223145 2.42076 -1.11663e-05 2.42075)
(2.42075 1.30788 -0.223152 2.42077 -1.13762e-05 2.42075)
(2.35793 0.977013 -0.178257 2.35793 -9.64571e-06 2.35793)
(2.35794 0.977424 -0.1783 2.35796 -8.45409e-06 2.35794)
(2.29632 0.616235 -0.125869 2.29633 -1.08666e-05 2.29632)
(2.29634 0.616893 -0.125954 2.29635 -9.12944e-06 2.29634)
(2.23834 0.118723 -0.0685901 2.23834 -7.11461e-06 2.23834)
(2.23835 0.120395 -0.0687124 2.23836 -4.00554e-06 2.23835)
(2.18558 -0.00118789 -0.0474609 2.18558 -1.01586e-05 2.18558)
(2.18559 -5.02033e-05 -0.0473464 2.1856 -6.07794e-06 2.18559)
(2.13809 -0.443616 -0.0989283 2.13809 -4.51373e-06 2.13809)
(2.1381 -0.443046 -0.0988556 2.13812 8.13497e-07 2.1381)
(2.09488 -0.720825 -0.141857 2.09489 -1.01866e-05 2.09488)
(2.0949 -0.720525 -0.141831 2.0949 -3.25814e-06 2.0949)
(2.0543 -0.932565 -0.173816 2.0543 -3.84211e-06 2.0543)
(2.05431 -0.93251 -0.173825 2.05432 4.78525e-06 2.05431)
(2.01446 -1.06968 -0.193277 2.01447 -1.1929e-05 2.01446)
(2.01448 -1.06979 -0.193306 2.01448 -1.52914e-06 2.01448)
(1.97385 -1.12916 -0.199697 1.97385 -4.46495e-06 1.97385)
(1.97386 -1.12936 -0.199735 1.97388 7.80945e-06 1.97386)
(1.93158 -1.11434 -0.193651 1.93159 -1.52283e-05 1.93158)
(1.9316 -1.11456 -0.19369 1.9316 -1.01063e-06 1.9316)
(1.88761 -1.0343 -0.176661 1.88761 -5.92258e-06 1.88761)
(1.88762 -1.03452 -0.176699 1.88764 1.0353e-05 1.88762)
(1.8426 -0.902116 -0.150898 1.84261 -1.94807e-05 1.8426)
(1.84262 -0.902312 -0.150932 1.84262 -1.07694e-06 1.84262)
(1.79771 -0.733499 -0.11914 1.79771 -7.25307e-06 1.79771)
(1.79772 -0.733672 -0.11917 1.79774 1.34225e-05 1.79772)
(1.75424 -0.545169 -0.0842706 1.75425 -2.41656e-05 1.75424)
(1.75426 -0.545318 -0.0842965 1.75426 -1.13318e-06 1.75426)
(1.71339 -0.352887 -0.0490727 1.71339 -7.85677e-06 1.71339)
(1.71339 -0.353013 -0.0490946 1.71341 1.77253e-05 1.71339)
(1.67599 -0.167097 -0.0161486 1.676 -2.89498e-05 1.67599)
(1.67601 -0.167283 -0.0161666 1.67601 -7.1062e-07 1.67601)
(1.64252 -4.3812e-06 -4.29566e-07 1.64252 -7.72692e-06 1.64252)
(1.64253 -2.60933e-20 -2.74705e-16 1.64255 2.34236e-05 1.64253)
(1.61306 0.117323 -0.0124263 1.61308 -3.44699e-05 1.61306)
(1.61307 0.117263 -0.0124122 1.61307 -2.8267e-07 1.61307)
(1.58748 0.208376 -0.0349865 1.58748 -7.01636e-06 1.58748)
(1.58748 0.208339 -0.0349767 1.5875 3.05289e-05 1.58748)
(1.56552 0.25948 -0.0501341 1.56554 -4.1261e-05 1.56552)
(1.56553 0.259464 -0.0501288 1.56553 -2.26284e-07 1.56553)
(1.547 0.271311 -0.0572979 1.547 -5.95891e-06 1.547)
(1.547 0.271318 -0.057297 1.54702 3.89643e-05 1.547)
(1.53178 0.247053 -0.056611 1.5318 -4.98689e-05 1.53178)
(1.53179 0.247078 -0.0566145 1.53179 -9.29141e-07 1.53179)
(1.51986 0.191591 -0.0485619 1.51986 -4.66594e-06 1.51986)
(1.51985 0.191633 -0.0485694 1.51987 4.87883e-05 1.51985)
(1.51126 0.111839 -0.0340855 1.51128 -6.07692e-05 1.51126)
(1.51127 0.111891 -0.034096 1.51127 -2.68418e-06 1.51127)
(1.50604 4.24681e-06 -0.0146718 1.50604 -3.33396e-06 1.50604)