/*--------------------------------*- C++ -*----------------------------------*\
| =========                 |                                                 |
| \\      /  F ield         | OpenFOAM: The Open Source CFD Toolbox           |
|  \\    /   O peration     | Version:  2106                                  |
|   \\  /    A nd           | Website:  www.openfoam.com                      |
|    \\/     M anipulation  |                                                 |
\*---------------------------------------------------------------------------*/
FoamFile
{
    version     2.0;
    format      ascii;
    arch        "LSB;label=32;scalar=64";
    class       volSymmTensorField;
    location    "4000";
    object      turbulenceProperties:R;
}
// * * * * * * * * * * * * * * * * * * * * * * * * * * * * * * * * * * * * * //

dimensions      [0 2 -2 0 0 0 0];

internalField   nonuniform List<symmTensor> 
2560
(
(3.29579e-07 -3.25123e-11 -4.70638e-14 3.29579e-07 3.76425e-27 3.29579e-07)
(3.29579e-07 -3.25123e-11 -4.70638e-14 3.29579e-07 -8.00741e-26 3.29579e-07)
(5.91379e-08 -3.35295e-11 -1.46319e-13 5.91379e-08 -2.85769e-26 5.91379e-08)
(5.91379e-08 -3.35295e-11 -1.46319e-13 5.91379e-08 -8.91829e-27 5.91379e-08)
(9.19621e-08 -1.53802e-10 -9.23226e-13 9.19621e-08 3.42446e-27 9.19621e-08)
(9.19621e-08 -1.53802e-10 -9.23226e-13 9.19621e-08 -2.04911e-26 9.19621e-08)
(2.91927e-07 -1.03524e-09 -6.30453e-12 2.91927e-07 6.18649e-26 2.91927e-07)
(2.91927e-07 -1.03524e-09 -6.30453e-12 2.91927e-07 -1.40444e-25 2.91927e-07)
(7.5156e-07 -4.70148e-09 -2.90475e-11 7.5156e-07 -7.30523e-26 7.5156e-07)
(7.5156e-07 -4.70148e-09 -2.90475e-11 7.5156e-07 -6.50043e-25 7.5156e-07)
(1.60344e-06 -1.57899e-08 -9.89727e-11 1.60344e-06 -3.65114e-25 1.60344e-06)
(1.60344e-06 -1.57899e-08 -9.89727e-11 1.60344e-06 -2.22663e-24 1.60344e-06)
(3.00526e-06 -4.31621e-08 -2.74474e-10 3.00526e-06 -9.38569e-25 3.00526e-06)
(3.00526e-06 -4.31621e-08 -2.74474e-10 3.00526e-06 -6.20898e-24 3.00526e-06)
(5.13786e-06 -1.01921e-07 -6.57539e-10 5.13786e-06 -2.07461e-24 5.13786e-06)
(5.13786e-06 -1.01921e-07 -6.57539e-10 5.13786e-06 -1.49482e-23 5.13786e-06)
(8.20533e-06 -2.15865e-07 -1.41286e-09 8.20533e-06 -4.26787e-24 8.20533e-06)
(8.20533e-06 -2.15865e-07 -1.41286e-09 8.20533e-06 -3.2252e-23 8.20533e-06)
(1.24355e-05 -4.20405e-07 -2.79152e-09 1.24355e-05 -8.42724e-24 1.24355e-05)
(1.24355e-05 -4.20405e-07 -2.79152e-09 1.24355e-05 -6.39898e-23 1.24355e-05)
(1.80805e-05 -7.65945e-07 -5.15966e-09 1.80805e-05 -1.58592e-23 1.80805e-05)
(1.80805e-05 -7.65945e-07 -5.15966e-09 1.80805e-05 -1.18692e-22 1.80805e-05)
(2.54173e-05 -1.3217e-06 -9.03234e-09 2.54173e-05 -2.84108e-23 2.54173e-05)
(2.54173e-05 -1.3217e-06 -9.03234e-09 2.54173e-05 -2.08195e-22 2.54173e-05)
(3.47476e-05 -2.17984e-06 -1.51123e-08 3.47476e-05 -4.86323e-23 3.47476e-05)
(3.47476e-05 -2.17984e-06 -1.51123e-08 3.47476e-05 -3.48683e-22 3.47476e-05)
(4.63978e-05 -3.45992e-06 -2.43331e-08 4.63978e-05 -8.00833e-23 4.63978e-05)
(4.63978e-05 -3.45992e-06 -2.43331e-08 4.63978e-05 -5.61234e-22 4.63978e-05)
(6.07175e-05 -5.31313e-06 -3.79049e-08 6.07175e-05 -1.27696e-22 6.07175e-05)
(6.07175e-05 -5.31313e-06 -3.79049e-08 6.07175e-05 -8.72316e-22 6.07175e-05)
(7.80777e-05 -7.92632e-06 -5.73607e-08 7.80777e-05 -1.97548e-22 7.80777e-05)
(7.80777e-05 -7.92632e-06 -5.73607e-08 7.80777e-05 -1.3143e-21 7.80777e-05)
(9.88676e-05 -1.1525e-05 -8.45989e-08 9.88676e-05 -2.97528e-22 9.88676e-05)
(9.88676e-05 -1.1525e-05 -8.45989e-08 9.88676e-05 -1.92249e-21 9.88676e-05)
(0.00012349 -1.63753e-05 -1.21918e-07 0.00012349 -4.36909e-22 0.00012349)
(0.00012349 -1.63753e-05 -1.21918e-07 0.00012349 -2.73492e-21 0.00012349)
(0.000152354 -2.2783e-05 -1.72036e-07 0.000152354 -6.28349e-22 0.000152354)
(0.000152354 -2.2783e-05 -1.72036e-07 0.000152354 -3.79502e-21 0.000152354)
(0.000185867 -3.10907e-05 -2.3809e-07 0.000185867 -8.82849e-22 0.000185867)
(0.000185867 -3.10907e-05 -2.3809e-07 0.000185867 -5.1425e-21 0.000185867)
(0.000224428 -4.16711e-05 -3.23605e-07 0.000224428 -1.21129e-21 0.000224428)
(0.000224428 -4.16711e-05 -3.23605e-07 0.000224428 -6.80664e-21 0.000224428)
(0.000268408 -5.49159e-05 -4.3243e-07 0.000268408 -1.63981e-21 0.000268408)
(0.000268408 -5.49159e-05 -4.3243e-07 0.000268408 -8.79913e-21 0.000268408)
(0.000318142 -7.12217e-05 -5.68633e-07 0.000318142 -2.17965e-21 0.000318142)
(0.000318142 -7.12217e-05 -5.68633e-07 0.000318142 -1.11001e-20 0.000318142)
(0.000373913 -9.0971e-05 -7.36358e-07 0.000373913 -2.81766e-21 0.000373913)
(0.000373913 -9.0971e-05 -7.36358e-07 0.000373913 -1.3649e-20 0.000373913)
(0.000435934 -0.000114511 -9.39651e-07 0.000435934 -3.56816e-21 0.000435934)
(0.000435934 -0.000114511 -9.39651e-07 0.000435934 -1.63876e-20 0.000435934)
(0.000504334 -0.000142131 -1.18225e-06 0.000504334 -4.50557e-21 0.000504334)
(0.000504334 -0.000142131 -1.18225e-06 0.000504334 -1.92019e-20 0.000504334)
(0.000579149 -0.00017404 -1.4674e-06 0.000579149 -5.56109e-21 0.000579149)
(0.000579149 -0.00017404 -1.4674e-06 0.000579149 -2.19517e-20 0.000579149)
(0.000660306 -0.000210351 -1.79762e-06 0.000660306 -6.72047e-21 0.000660306)
(0.000660306 -0.000210351 -1.79762e-06 0.000660306 -2.4497e-20 0.000660306)
(0.00074762 -0.000251061 -2.17458e-06 0.00074762 -8.03179e-21 0.00074762)
(0.00074762 -0.000251061 -2.17458e-06 0.00074762 -2.64422e-20 0.00074762)
(0.000840794 -0.000296051 -2.59895e-06 0.000840794 -9.48272e-21 0.000840794)
(0.000840794 -0.000296051 -2.59895e-06 0.000840794 -2.7631e-20 0.000840794)
(0.000939422 -0.000345085 -3.07039e-06 0.000939422 -1.11166e-20 0.000939422)
(0.000939422 -0.000345085 -3.07039e-06 0.000939422 -2.81966e-20 0.000939422)
(0.001043 -0.000397817 -3.58753e-06 0.001043 -1.27792e-20 0.001043)
(0.001043 -0.000397817 -3.58753e-06 0.001043 -2.80218e-20 0.001043)
(0.00115094 -0.000453813 -4.1481e-06 0.00115094 -1.4516e-20 0.00115094)
(0.00115094 -0.000453813 -4.1481e-06 0.00115094 -2.68761e-20 0.00115094)
(0.00126259 -0.000512567 -4.74903e-06 0.00126259 -1.64038e-20 0.00126259)
(0.00126259 -0.000512567 -4.74903e-06 0.00126259 -2.4342e-20 0.00126259)
(0.00137726 -0.000573528 -5.38663e-06 0.00137726 -1.82874e-20 0.00137726)
(0.00137726 -0.000573528 -5.38663e-06 0.00137726 -2.07544e-20 0.00137726)
(0.00149422 -0.000636124 -6.05682e-06 0.00149422 -2.04318e-20 0.00149422)
(0.00149422 -0.000636124 -6.05682e-06 0.00149422 -1.6316e-20 0.00149422)
(0.00161275 -0.000699788 -6.75526e-06 0.00161275 -2.26938e-20 0.00161275)
(0.00161275 -0.000699788 -6.75526e-06 0.00161275 -1.10383e-20 0.00161275)
(0.00173215 -0.000763974 -7.47758e-06 0.00173215 -2.4966e-20 0.00173215)
(0.00173215 -0.000763974 -7.47758e-06 0.00173215 -4.74353e-21 0.00173215)
(0.00185175 -0.000828172 -8.21951e-06 0.00185175 -2.74951e-20 0.00185175)
(0.00185175 -0.000828172 -8.21951e-06 0.00185175 1.8033e-21 0.00185175)
(0.0019709 -0.000891926 -8.97699e-06 0.0019709 -3.08798e-20 0.0019709)
(0.0019709 -0.000891926 -8.97699e-06 0.0019709 7.57712e-21 0.0019709)
(0.00208905 -0.000954833 -9.74628e-06 0.00208905 -3.13602e-20 0.00208905)
(0.00208905 -0.000954833 -9.74628e-06 0.00208905 1.30167e-20 0.00208905)
(0.00220567 -0.00101655 -1.0524e-05 0.00220567 -3.71038e-20 0.00220567)
(0.00220567 -0.00101655 -1.0524e-05 0.00220567 1.89317e-20 0.00220567)
(0.00232032 -0.00107679 -1.13071e-05 0.00232032 -3.93388e-20 0.00232032)
(0.00232032 -0.00107679 -1.13071e-05 0.00232032 2.53919e-20 0.00232032)
(0.0024326 -0.00113533 -1.20932e-05 0.0024326 -4.27499e-20 0.0024326)
(0.0024326 -0.00113533 -1.20932e-05 0.0024326 3.08743e-20 0.0024326)
(0.00254219 -0.00119199 -1.28798e-05 0.00254219 -4.67428e-20 0.00254219)
(0.00254219 -0.00119199 -1.28798e-05 0.00254219 3.47079e-20 0.00254219)
(0.00264883 -0.00124664 -1.36653e-05 0.00264883 -5.05402e-20 0.00264883)
(0.00264883 -0.00124664 -1.36653e-05 0.00264883 3.73183e-20 0.00264883)
(0.0027523 -0.00129919 -1.44481e-05 0.0027523 -5.47768e-20 0.0027523)
(0.0027523 -0.00129919 -1.44481e-05 0.0027523 4.00868e-20 0.0027523)
(0.00285244 -0.00134959 -1.5227e-05 0.00285244 -5.95916e-20 0.00285244)
(0.00285244 -0.00134959 -1.5227e-05 0.00285244 4.3201e-20 0.00285244)
(0.00294913 -0.00139781 -1.60011e-05 0.00294913 -6.40794e-20 0.00294913)
(0.00294913 -0.00139781 -1.60011e-05 0.00294913 4.52263e-20 0.00294913)
(0.0030423 -0.00144385 -1.67698e-05 0.0030423 -6.90002e-20 0.0030423)
(0.0030423 -0.00144385 -1.67698e-05 0.0030423 4.62445e-20 0.0030423)
(0.00313189 -0.00148773 -1.75324e-05 0.00313189 -7.35585e-20 0.00313189)
(0.00313189 -0.00148773 -1.75324e-05 0.00313189 4.65253e-20 0.00313189)
(0.0032179 -0.00152948 -1.82887e-05 0.0032179 -7.89383e-20 0.0032179)
(0.0032179 -0.00152948 -1.82887e-05 0.0032179 4.53204e-20 0.0032179)
(0.00330032 -0.00156916 -1.90385e-05 0.00330032 -8.54806e-20 0.00330032)
(0.00330032 -0.00156916 -1.90385e-05 0.00330032 4.35614e-20 0.00330032)
(0.0033792 -0.0016068 -1.97816e-05 0.0033792 -9.10544e-20 0.0033792)
(0.0033792 -0.0016068 -1.97816e-05 0.0033792 4.16891e-20 0.0033792)
(0.00345458 -0.00164248 -2.05182e-05 0.00345458 -9.71842e-20 0.00345458)
(0.00345458 -0.00164248 -2.05182e-05 0.00345458 3.79479e-20 0.00345458)
(0.00352651 -0.00167626 -2.12483e-05 0.00352651 -1.0438e-19 0.00352651)
(0.00352651 -0.00167626 -2.12483e-05 0.00352651 3.69994e-20 0.00352651)
(0.00359507 -0.00170821 -2.1972e-05 0.00359507 -1.10987e-19 0.00359507)
(0.00359507 -0.00170821 -2.1972e-05 0.00359507 3.74776e-20 0.00359507)
(0.00366033 -0.0017384 -2.26895e-05 0.00366033 -1.15385e-19 0.00366033)
(0.00366033 -0.0017384 -2.26895e-05 0.00366033 3.19652e-20 0.00366033)
(0.00372238 -0.00176689 -2.3401e-05 0.00372238 -1.2012e-19 0.00372238)
(0.00372238 -0.00176689 -2.3401e-05 0.00372238 2.67357e-20 0.00372238)
(0.00378131 -0.00179376 -2.41069e-05 0.00378131 -1.26392e-19 0.00378131)
(0.00378131 -0.00179376 -2.41069e-05 0.00378131 2.58377e-20 0.00378131)
(0.00383721 -0.00181907 -2.48072e-05 0.00383721 -1.33401e-19 0.00383721)
(0.00383721 -0.00181907 -2.48072e-05 0.00383721 2.2641e-20 0.00383721)
(0.00389017 -0.0018429 -2.55023e-05 0.00389017 -1.39946e-19 0.00389017)
(0.00389017 -0.0018429 -2.55023e-05 0.00389017 1.31423e-20 0.00389017)
(0.00394029 -0.00186529 -2.61925e-05 0.00394029 -1.48764e-19 0.00394029)
(0.00394029 -0.00186529 -2.61925e-05 0.00394029 8.20967e-21 0.00394029)
(0.00398765 -0.00188633 -2.6878e-05 0.00398765 -1.57679e-19 0.00398765)
(0.00398765 -0.00188633 -2.6878e-05 0.00398765 1.48789e-21 0.00398765)
(0.00403236 -0.00190605 -2.75592e-05 0.00403236 -1.65509e-19 0.00403236)
(0.00403236 -0.00190605 -2.75592e-05 0.00403236 -9.60781e-21 0.00403236)
(0.0040745 -0.00192453 -2.82361e-05 0.0040745 -1.73858e-19 0.0040745)
(0.0040745 -0.00192453 -2.82361e-05 0.0040745 -1.03236e-20 0.0040745)
(0.00411415 -0.00194181 -2.89091e-05 0.00411415 -1.82062e-19 0.00411415)
(0.00411415 -0.00194181 -2.89091e-05 0.00411415 -1.44095e-20 0.00411415)
(0.00415141 -0.00195795 -2.95785e-05 0.00415141 -1.9126e-19 0.00415141)
(0.00415141 -0.00195795 -2.95785e-05 0.00415141 -1.96093e-20 0.00415141)
(0.00418636 -0.00197299 -3.02444e-05 0.00418636 -1.96727e-19 0.00418636)
(0.00418636 -0.00197299 -3.02444e-05 0.00418636 -1.98632e-20 0.00418636)
(0.00421908 -0.00198698 -3.09071e-05 0.00421908 -2.02497e-19 0.00421908)
(0.00421908 -0.00198698 -3.09071e-05 0.00421908 -2.30453e-20 0.00421908)
(0.00424965 -0.00199996 -3.15668e-05 0.00424965 -2.13443e-19 0.00424965)
(0.00424965 -0.00199996 -3.15668e-05 0.00424965 -2.85484e-20 0.00424965)
(0.00427814 -0.00201199 -3.22236e-05 0.00427814 -2.26816e-19 0.00427814)
(0.00427814 -0.00201199 -3.22236e-05 0.00427814 -3.2291e-20 0.00427814)
(0.00430462 -0.00202308 -3.28777e-05 0.00430462 -2.37399e-19 0.00430462)
(0.00430462 -0.00202308 -3.28777e-05 0.00430462 -3.80238e-20 0.00430462)
(0.00432917 -0.00203329 -3.35293e-05 0.00432917 -2.46588e-19 0.00432917)
(0.00432917 -0.00203329 -3.35293e-05 0.00432917 -4.02693e-20 0.00432917)
(0.00435185 -0.00204264 -3.41786e-05 0.00435185 -2.55836e-19 0.00435185)
(0.00435185 -0.00204264 -3.41786e-05 0.00435185 -2.9618e-20 0.00435185)
(0.00437273 -0.00205117 -3.48256e-05 0.00437273 -2.65447e-19 0.00437273)
(0.00437273 -0.00205117 -3.48256e-05 0.00437273 -2.07517e-20 0.00437273)
(0.00439186 -0.00205891 -3.54705e-05 0.00439186 -2.77679e-19 0.00439186)
(0.00439186 -0.00205891 -3.54705e-05 0.00439186 -2.31924e-20 0.00439186)
(0.0044093 -0.00206589 -3.61134e-05 0.0044093 -2.88136e-19 0.0044093)
(0.0044093 -0.00206589 -3.61134e-05 0.0044093 -1.95487e-20 0.0044093)
(0.00442511 -0.00207214 -3.67544e-05 0.00442511 -2.98854e-19 0.00442511)
(0.00442511 -0.00207214 -3.67544e-05 0.00442511 -3.70649e-21 0.00442511)
(0.00443934 -0.00207768 -3.73935e-05 0.00443934 -3.07574e-19 0.00443934)
(0.00443934 -0.00207768 -3.73935e-05 0.00443934 2.20136e-21 0.00443934)
(0.00445205 -0.00208253 -3.80309e-05 0.00445205 -3.14558e-19 0.00445205)
(0.00445205 -0.00208253 -3.80309e-05 0.00445205 2.96066e-20 0.00445205)
(0.00446328 -0.00208673 -3.86666e-05 0.00446328 -3.24102e-19 0.00446328)
(0.00446328 -0.00208673 -3.86666e-05 0.00446328 5.47442e-20 0.00446328)
(0.00447307 -0.00209029 -3.93007e-05 0.00447307 -3.32765e-19 0.00447307)
(0.00447307 -0.00209029 -3.93007e-05 0.00447307 4.52346e-20 0.00447307)
(0.00448148 -0.00209324 -3.99331e-05 0.00448148 -3.31641e-19 0.00448148)
(0.00448148 -0.00209324 -3.99331e-05 0.00448148 4.62818e-20 0.00448148)
(0.00448855 -0.00209559 -4.0564e-05 0.00448855 -3.35083e-19 0.00448855)
(0.00448855 -0.00209559 -4.0564e-05 0.00448855 9.46121e-20 0.00448855)
(0.00449431 -0.00209736 -4.11933e-05 0.00449431 -3.52224e-19 0.00449431)
(0.00449431 -0.00209736 -4.11933e-05 0.00449431 1.37955e-19 0.00449431)
(0.0044988 -0.00209858 -4.1821e-05 0.0044988 -3.66687e-19 0.0044988)
(0.0044988 -0.00209858 -4.1821e-05 0.0044988 1.58072e-19 0.0044988)
(0.00450206 -0.00209925 -4.24472e-05 0.00450206 -3.83732e-19 0.00450206)
(0.00450206 -0.00209925 -4.24472e-05 0.00450206 1.71332e-19 0.00450206)
(0.00450414 -0.00209939 -4.30718e-05 0.00450414 -3.89779e-19 0.00450414)
(0.00450414 -0.00209939 -4.30718e-05 0.00450414 1.59674e-19 0.00450414)
(0.00450505 -0.00209902 -4.36948e-05 0.00450505 -3.91732e-19 0.00450505)
(0.00450505 -0.00209902 -4.36948e-05 0.00450505 2.18671e-19 0.00450505)
(0.00450483 -0.00209816 -4.43162e-05 0.00450483 -4.05419e-19 0.00450483)
(0.00450483 -0.00209816 -4.43162e-05 0.00450483 2.67059e-19 0.00450483)
(0.00450353 -0.00209681 -4.49359e-05 0.00450353 -4.11354e-19 0.00450353)
(0.00450353 -0.00209681 -4.49359e-05 0.00450353 2.72381e-19 0.00450353)
(0.00450115 -0.002095 -4.55539e-05 0.00450115 -4.09662e-19 0.00450115)
(0.00450115 -0.002095 -4.55539e-05 0.00450115 3.15043e-19 0.00450115)
(0.00449774 -0.00209272 -4.61702e-05 0.00449774 -4.25427e-19 0.00449774)
(0.00449774 -0.00209272 -4.61702e-05 0.00449774 4.49428e-19 0.00449774)
(0.00449332 -0.00209001 -4.67847e-05 0.00449332 -4.49152e-19 0.00449332)
(0.00449332 -0.00209001 -4.67847e-05 0.00449332 9.19344e-19 0.00449332)
(0.00448793 -0.00208686 -4.73973e-05 0.00448793 -4.45604e-19 0.00448793)
(0.00448793 -0.00208686 -4.73973e-05 0.00448793 1.14406e-18 0.00448793)
(0.00448157 -0.00208329 -4.80079e-05 0.00448157 -4.45102e-19 0.00448157)
(0.00448157 -0.00208329 -4.80079e-05 0.00448157 1.16905e-18 0.00448157)
(0.00447429 -0.0020793 -4.86165e-05 0.00447429 -4.62997e-19 0.00447429)
(0.00447429 -0.0020793 -4.86165e-05 0.00447429 1.21875e-18 0.00447429)
(0.0044661 -0.00207492 -4.92231e-05 0.0044661 -4.81053e-19 0.0044661)
(0.0044661 -0.00207492 -4.92231e-05 0.0044661 1.29713e-18 0.0044661)
(0.00445702 -0.00207015 -4.98274e-05 0.00445702 -5.05826e-19 0.00445702)
(0.00445702 -0.00207015 -4.98274e-05 0.00445702 1.37254e-18 0.00445702)
(0.00444709 -0.00206499 -5.04295e-05 0.00444709 -5.07158e-19 0.00444709)
(0.00444709 -0.00206499 -5.04295e-05 0.00444709 1.44204e-18 0.00444709)
(0.00443631 -0.00205947 -5.10292e-05 0.00443631 -5.07802e-19 0.00443631)
(0.00443631 -0.00205947 -5.10292e-05 0.00443631 1.5182e-18 0.00443631)
(0.00442472 -0.00205358 -5.16264e-05 0.00442472 -5.28735e-19 0.00442472)
(0.00442472 -0.00205358 -5.16264e-05 0.00442472 1.58485e-18 0.00442472)
(0.00441233 -0.00204734 -5.22211e-05 0.00441233 1.66205e-20 0.00441233)
(0.00441233 -0.00204734 -5.22211e-05 0.00441233 1.62912e-18 0.00441233)
(0.00439917 -0.00204075 -5.2813e-05 0.00439917 2.72431e-18 0.00439917)
(0.00439917 -0.00204075 -5.2813e-05 0.00439917 1.66654e-18 0.00439917)
(0.00438524 -0.00203383 -5.34022e-05 0.00438524 4.97983e-18 0.00438524)
(0.00438524 -0.00203383 -5.34022e-05 0.00438524 1.68933e-18 0.00438524)
(0.00437058 -0.00202657 -5.39884e-05 0.00437058 5.13471e-18 0.00437058)
(0.00437058 -0.00202657 -5.39884e-05 0.00437058 1.74235e-18 0.00437058)
(0.0043552 -0.002019 -5.45716e-05 0.0043552 5.26574e-18 0.0043552)
(0.0043552 -0.002019 -5.45716e-05 0.0043552 1.83895e-18 0.0043552)
(0.00433912 -0.00201112 -5.51516e-05 0.00433912 5.35809e-18 0.00433912)
(0.00433912 -0.00201112 -5.51516e-05 0.00433912 1.91278e-18 0.00433912)
(0.00432235 -0.00200293 -5.57283e-05 0.00432235 5.47892e-18 0.00432235)
(0.00432235 -0.00200293 -5.57283e-05 0.00432235 1.96381e-18 0.00432235)
(0.00430492 -0.00199444 -5.63016e-05 0.00430492 5.59034e-18 0.00430492)
(0.00430492 -0.00199444 -5.63016e-05 0.00430492 2.00021e-18 0.00430492)
(0.00428683 -0.00198566 -5.68713e-05 0.00428683 5.66031e-18 0.00428683)
(0.00428683 -0.00198566 -5.68713e-05 0.00428683 2.02245e-18 0.00428683)
(0.00426812 -0.0019766 -5.74373e-05 0.00426812 5.76721e-18 0.00426812)
(0.00426812 -0.0019766 -5.74373e-05 0.00426812 2.07492e-18 0.00426812)
(0.00424878 -0.00196726 -5.79995e-05 0.00424878 5.88304e-18 0.00424878)
(0.00424878 -0.00196726 -5.79995e-05 0.00424878 2.13438e-18 0.00424878)
(0.00422885 -0.00195766 -5.85578e-05 0.00422885 5.9922e-18 0.00422885)
(0.00422885 -0.00195766 -5.85578e-05 0.00422885 2.18659e-18 0.00422885)
(0.00420833 -0.00194779 -5.91119e-05 0.00420833 6.13316e-18 0.00420833)
(0.00420833 -0.00194779 -5.91119e-05 0.00420833 2.24359e-18 0.00420833)
(0.00418724 -0.00193767 -5.96618e-05 0.00418724 6.25523e-18 0.00418724)
(0.00418724 -0.00193767 -5.96618e-05 0.00418724 2.30448e-18 0.00418724)
(0.0041656 -0.0019273 -6.02073e-05 0.0041656 6.32835e-18 0.0041656)
(0.0041656 -0.0019273 -6.02073e-05 0.0041656 2.36927e-18 0.0041656)
(0.00414342 -0.00191668 -6.07483e-05 0.00414342 6.39946e-18 0.00414342)
(0.00414342 -0.00191668 -6.07483e-05 0.00414342 2.40138e-18 0.00414342)
(0.00412071 -0.00190584 -6.12846e-05 0.00412071 6.47085e-18 0.00412071)
(0.00412071 -0.00190584 -6.12846e-05 0.00412071 2.45767e-18 0.00412071)
(0.00409749 -0.00189476 -6.18161e-05 0.00409749 6.49546e-18 0.00409749)
(0.00409749 -0.00189476 -6.18161e-05 0.00409749 2.57328e-18 0.00409749)
(0.00407378 -0.00188346 -6.23426e-05 0.00407378 6.56273e-18 0.00407378)
(0.00407378 -0.00188346 -6.23426e-05 0.00407378 2.69325e-18 0.00407378)
(0.00404959 -0.00187195 -6.2864e-05 0.00404959 6.69789e-18 0.00404959)
(0.00404959 -0.00187195 -6.2864e-05 0.00404959 2.75221e-18 0.00404959)
(0.00402494 -0.00186023 -6.33802e-05 0.00402494 6.53917e-18 0.00402494)
(0.00402494 -0.00186023 -6.33802e-05 0.00402494 2.79225e-18 0.00402494)
(0.00399983 -0.00184831 -6.3891e-05 0.00399983 5.9059e-18 0.00399983)
(0.00399983 -0.00184831 -6.3891e-05 0.00399983 2.82629e-18 0.00399983)
(0.00397428 -0.00183619 -6.43963e-05 0.00397428 5.48684e-18 0.00397428)
(0.00397428 -0.00183619 -6.43963e-05 0.00397428 2.84566e-18 0.00397428)
(0.0039483 -0.00182388 -6.48958e-05 0.0039483 5.56182e-18 0.0039483)
(0.0039483 -0.00182388 -6.48958e-05 0.0039483 2.95156e-18 0.0039483)
(0.00392192 -0.00181138 -6.53896e-05 0.00392192 5.65553e-18 0.00392192)
(0.00392192 -0.00181138 -6.53896e-05 0.00392192 3.15057e-18 0.00392192)
(0.00389514 -0.00179871 -6.58774e-05 0.00389514 5.70672e-18 0.00389514)
(0.00389514 -0.00179871 -6.58774e-05 0.00389514 3.30993e-18 0.00389514)
(0.00386797 -0.00178587 -6.6359e-05 0.00386797 5.69678e-18 0.00386797)
(0.00386797 -0.00178587 -6.6359e-05 0.00386797 3.41096e-18 0.00386797)
(0.00384044 -0.00177286 -6.68345e-05 0.00384044 5.47126e-18 0.00384044)
(0.00384044 -0.00177286 -6.68345e-05 0.00384044 3.50014e-18 0.00384044)
(0.00381254 -0.00175969 -6.73035e-05 0.00381254 5.39582e-18 0.00381254)
(0.00381254 -0.00175969 -6.73035e-05 0.00381254 3.64761e-18 0.00381254)
(0.0037843 -0.00174637 -6.7766e-05 0.0037843 5.57176e-18 0.0037843)
(0.0037843 -0.00174637 -6.7766e-05 0.0037843 3.8415e-18 0.0037843)
(0.00375573 -0.0017329 -6.82219e-05 0.00375573 5.50104e-18 0.00375573)
(0.00375573 -0.0017329 -6.82219e-05 0.00375573 3.91973e-18 0.00375573)
(0.00372684 -0.00171929 -6.86709e-05 0.00372684 5.47834e-18 0.00372684)
(0.00372684 -0.00171929 -6.86709e-05 0.00372684 3.92373e-18 0.00372684)
(0.00369765 -0.00170555 -6.91131e-05 0.00369765 5.63335e-18 0.00369765)
(0.00369765 -0.00170555 -6.91131e-05 0.00369765 3.96143e-18 0.00369765)
(0.00366816 -0.00169167 -6.95481e-05 0.00366816 5.61709e-18 0.00366816)
(0.00366816 -0.00169167 -6.95481e-05 0.00366816 3.97978e-18 0.00366816)
(0.00363838 -0.00167768 -6.9976e-05 0.00363838 5.51466e-18 0.00363838)
(0.00363838 -0.00167768 -6.9976e-05 0.00363838 2.43666e-18 0.00363838)
(0.00360834 -0.00166356 -7.03966e-05 0.00360834 5.59899e-18 0.00360834)
(0.00360834 -0.00166356 -7.03966e-05 0.00360834 1.0195e-18 0.00360834)
(0.00357805 -0.00164934 -7.08097e-05 0.00357805 5.88799e-18 0.00357805)
(0.00357805 -0.00164934 -7.08097e-05 0.00357805 9.02132e-19 0.00357805)
(0.00354751 -0.001635 -7.12153e-05 0.00354751 5.78386e-18 0.00354751)
(0.00354751 -0.001635 -7.12153e-05 0.00354751 5.52944e-19 0.00354751)
(0.00351673 -0.00162057 -7.16132e-05 0.00351673 5.37571e-18 0.00351673)
(0.00351673 -0.00162057 -7.16132e-05 0.00351673 7.49955e-19 0.00351673)
(0.00348574 -0.00160604 -7.20032e-05 0.00348574 3.86535e-18 0.00348574)
(0.00348574 -0.00160604 -7.20032e-05 0.00348574 9.69031e-19 0.00348574)
(0.00345454 -0.00159143 -7.23854e-05 0.00345454 2.5737e-19 0.00345454)
(0.00345454 -0.00159143 -7.23854e-05 0.00345454 6.7432e-19 0.00345454)
(0.00342314 -0.00157673 -7.27596e-05 0.00342314 -2.96471e-18 0.00342314)
(0.00342314 -0.00157673 -7.27596e-05 0.00342314 3.98596e-19 0.00342314)
(0.00339156 -0.00156195 -7.31256e-05 0.00339156 -3.11553e-18 0.00339156)
(0.00339156 -0.00156195 -7.31256e-05 0.00339156 4.46584e-19 0.00339156)
(0.0033598 -0.0015471 -7.34833e-05 0.0033598 -3.44934e-18 0.0033598)
(0.0033598 -0.0015471 -7.34833e-05 0.0033598 6.29263e-19 0.0033598)
(0.00332788 -0.00153218 -7.38327e-05 0.00332788 -3.85942e-18 0.00332788)
(0.00332788 -0.00153218 -7.38327e-05 0.00332788 6.1293e-19 0.00332788)
(0.00329581 -0.0015172 -7.41736e-05 0.00329581 -4.20695e-18 0.00329581)
(0.00329581 -0.0015172 -7.41736e-05 0.00329581 4.7604e-19 0.00329581)
(0.0032636 -0.00150216 -7.4506e-05 0.0032636 -4.44994e-18 0.0032636)
(0.0032636 -0.00150216 -7.4506e-05 0.0032636 3.91642e-19 0.0032636)
(0.00323126 -0.00148707 -7.48298e-05 0.00323126 -4.54371e-18 0.00323126)
(0.00323126 -0.00148707 -7.48298e-05 0.00323126 9.76455e-19 0.00323126)
(0.0031988 -0.00147194 -7.51447e-05 0.0031988 -4.52282e-18 0.0031988)
(0.0031988 -0.00147194 -7.51447e-05 0.0031988 2.10993e-18 0.0031988)
(0.00316624 -0.00145676 -7.54509e-05 0.00316624 -4.40129e-18 0.00316624)
(0.00316624 -0.00145676 -7.54509e-05 0.00316624 2.52823e-18 0.00316624)
(0.00313358 -0.00144155 -7.57481e-05 0.00313358 -4.09424e-18 0.00313358)
(0.00313358 -0.00144155 -7.57481e-05 0.00313358 2.69559e-18 0.00313358)
(0.00310083 -0.00142631 -7.60363e-05 0.00310083 -3.97907e-18 0.00310083)
(0.00310083 -0.00142631 -7.60363e-05 0.00310083 2.88989e-18 0.00310083)
(0.00306801 -0.00141104 -7.63155e-05 0.00306801 -4.18984e-18 0.00306801)
(0.00306801 -0.00141104 -7.63155e-05 0.00306801 2.85218e-18 0.00306801)
(0.00303512 -0.00139575 -7.65854e-05 0.00303512 -4.30142e-18 0.00303512)
(0.00303512 -0.00139575 -7.65854e-05 0.00303512 2.42536e-18 0.00303512)
(0.00300218 -0.00138044 -7.68461e-05 0.00300218 -4.10441e-18 0.00300218)
(0.00300218 -0.00138044 -7.68461e-05 0.00300218 2.53587e-18 0.00300218)
(0.00296919 -0.00136512 -7.70975e-05 0.00296919 -3.38694e-18 0.00296919)
(0.00296919 -0.00136512 -7.70975e-05 0.00296919 3.01085e-18 0.00296919)
(0.00293616 -0.00134979 -7.73395e-05 0.00293616 -3.1411e-18 0.00293616)
(0.00293616 -0.00134979 -7.73395e-05 0.00293616 3.11832e-18 0.00293616)
(0.00290311 -0.00133446 -7.75721e-05 0.00290311 -3.11348e-18 0.00290311)
(0.00290311 -0.00133446 -7.75721e-05 0.00290311 3.02705e-18 0.00290311)
(0.00287005 -0.00131914 -7.77951e-05 0.00287005 -3.05787e-18 0.00287005)
(0.00287005 -0.00131914 -7.77951e-05 0.00287005 3.29018e-18 0.00287005)
(0.00283697 -0.00130381 -7.80086e-05 0.00283697 -3.07457e-18 0.00283697)
(0.00283697 -0.00130381 -7.80086e-05 0.00283697 3.5349e-18 0.00283697)
(0.0028039 -0.0012885 -7.82124e-05 0.0028039 -2.65617e-18 0.0028039)
(0.0028039 -0.0012885 -7.82124e-05 0.0028039 3.51444e-18 0.0028039)
(0.00277084 -0.00127321 -7.84065e-05 0.00277084 -2.09229e-18 0.00277084)
(0.00277084 -0.00127321 -7.84065e-05 0.00277084 3.49141e-18 0.00277084)
(0.0027378 -0.00125793 -7.85909e-05 0.0027378 -1.57153e-18 0.0027378)
(0.0027378 -0.00125793 -7.85909e-05 0.0027378 3.58397e-18 0.0027378)
(0.00270479 -0.00124267 -7.87654e-05 0.00270479 -1.34747e-18 0.00270479)
(0.00270479 -0.00124267 -7.87654e-05 0.00270479 3.62697e-18 0.00270479)
(0.00267181 -0.00122744 -7.89302e-05 0.00267181 -1.12572e-18 0.00267181)
(0.00267181 -0.00122744 -7.89302e-05 0.00267181 3.86585e-18 0.00267181)
(0.00263888 -0.00121224 -7.9085e-05 0.00263888 -9.81583e-19 0.00263888)
(0.00263888 -0.00121224 -7.9085e-05 0.00263888 3.74421e-18 0.00263888)
(0.002606 -0.00119708 -7.92299e-05 0.002606 -6.67253e-19 0.002606)
(0.002606 -0.00119708 -7.92299e-05 0.002606 3.61149e-18 0.002606)
(0.00257319 -0.00118195 -7.93649e-05 0.00257319 -5.45085e-19 0.00257319)
(0.00257319 -0.00118195 -7.93649e-05 0.00257319 3.88236e-18 0.00257319)
(0.00254044 -0.00116687 -7.94898e-05 0.00254044 -7.30829e-19 0.00254044)
(0.00254044 -0.00116687 -7.94898e-05 0.00254044 4.01857e-18 0.00254044)
(0.00250777 -0.00115183 -7.96047e-05 0.00250777 -7.51185e-19 0.00250777)
(0.00250777 -0.00115183 -7.96047e-05 0.00250777 4.03726e-18 0.00250777)
(0.00247518 -0.00113683 -7.97096e-05 0.00247518 -1.00329e-18 0.00247518)
(0.00247518 -0.00113683 -7.97096e-05 0.00247518 4.285e-18 0.00247518)
(0.00244269 -0.00112189 -7.98043e-05 0.00244269 -1.0872e-18 0.00244269)
(0.00244269 -0.00112189 -7.98043e-05 0.00244269 4.06408e-18 0.00244269)
(0.00241029 -0.00110701 -7.98889e-05 0.00241029 -8.39252e-19 0.00241029)
(0.00241029 -0.00110701 -7.98889e-05 0.00241029 3.8285e-18 0.00241029)
(0.002378 -0.00109218 -7.99634e-05 0.002378 -7.73363e-19 0.002378)
(0.002378 -0.00109218 -7.99634e-05 0.002378 3.89795e-18 0.002378)
(0.00234583 -0.00107742 -8.00277e-05 0.00234583 -8.99785e-19 0.00234583)
(0.00234583 -0.00107742 -8.00277e-05 0.00234583 4.00783e-18 0.00234583)
(0.00231377 -0.00106272 -8.00818e-05 0.00231377 -9.45105e-19 0.00231377)
(0.00231377 -0.00106272 -8.00818e-05 0.00231377 3.93827e-18 0.00231377)
(0.00228184 -0.00104808 -8.01257e-05 0.00228184 -6.75446e-19 0.00228184)
(0.00228184 -0.00104808 -8.01257e-05 0.00228184 3.89757e-18 0.00228184)
(0.00225003 -0.00103352 -8.01594e-05 0.00225003 -2.40667e-19 0.00225003)
(0.00225003 -0.00103352 -8.01594e-05 0.00225003 3.95964e-18 0.00225003)
(0.00221837 -0.00101903 -8.01828e-05 0.00221837 -2.38623e-19 0.00221837)
(0.00221837 -0.00101903 -8.01828e-05 0.00221837 4.07018e-18 0.00221837)
(0.00218685 -0.00100461 -8.0196e-05 0.00218685 -5.67502e-20 0.00218685)
(0.00218685 -0.00100461 -8.0196e-05 0.00218685 4.1264e-18 0.00218685)
(0.00215548 -0.000990275 -8.01989e-05 0.00215548 3.07246e-19 0.00215548)
(0.00215548 -0.000990275 -8.01989e-05 0.00215548 4.18934e-18 0.00215548)
(0.00212426 -0.000976017 -8.01916e-05 0.00212426 3.38585e-19 0.00212426)
(0.00212426 -0.000976017 -8.01916e-05 0.00212426 4.40676e-18 0.00212426)
(0.00209321 -0.000961842 -8.0174e-05 0.00209321 4.74531e-19 0.00209321)
(0.00209321 -0.000961842 -8.0174e-05 0.00209321 4.70877e-18 0.00209321)
(0.00206231 -0.000947752 -8.01461e-05 0.00206231 4.77293e-19 0.00206231)
(0.00206231 -0.000947752 -8.01461e-05 0.00206231 4.85206e-18 0.00206231)
(0.00203159 -0.000933749 -8.01079e-05 0.00203159 1.34733e-19 0.00203159)
(0.00203159 -0.000933749 -8.01079e-05 0.00203159 5.01617e-18 0.00203159)
(0.00200105 -0.000919835 -8.00594e-05 0.00200105 -5.23078e-20 0.00200105)
(0.00200105 -0.000919835 -8.00594e-05 0.00200105 4.97651e-18 0.00200105)
(0.00197068 -0.000906011 -8.00006e-05 0.00197068 -9.66558e-20 0.00197068)
(0.00197068 -0.000906011 -8.00006e-05 0.00197068 5.04801e-18 0.00197068)
(0.00194049 -0.000892281 -7.99315e-05 0.00194049 -3.80831e-19 0.00194049)
(0.00194049 -0.000892281 -7.99315e-05 0.00194049 5.4289e-18 0.00194049)
(0.0019105 -0.000878646 -7.98521e-05 0.0019105 -7.05827e-19 0.0019105)
(0.0019105 -0.000878646 -7.98521e-05 0.0019105 5.51287e-18 0.0019105)
(0.00188069 -0.000865107 -7.97625e-05 0.00188069 -7.34535e-19 0.00188069)
(0.00188069 -0.000865107 -7.97625e-05 0.00188069 5.41721e-18 0.00188069)
(0.00185109 -0.000851666 -7.96625e-05 0.00185109 -8.3449e-19 0.00185109)
(0.00185109 -0.000851666 -7.96625e-05 0.00185109 5.48227e-18 0.00185109)
(0.00182168 -0.000838325 -7.95522e-05 0.00182168 -9.75032e-19 0.00182168)
(0.00182168 -0.000838325 -7.95522e-05 0.00182168 5.87439e-18 0.00182168)
(0.00179247 -0.000825086 -7.94317e-05 0.00179247 -7.28336e-19 0.00179247)
(0.00179247 -0.000825086 -7.94317e-05 0.00179247 6.04338e-18 0.00179247)
(0.00176348 -0.000811948 -7.93008e-05 0.00176348 -4.59659e-19 0.00176348)
(0.00176348 -0.000811948 -7.93008e-05 0.00176348 5.6568e-18 0.00176348)
(0.00173469 -0.000798915 -7.91597e-05 0.00173469 -1.47805e-19 0.00173469)
(0.00173469 -0.000798915 -7.91597e-05 0.00173469 5.69844e-18 0.00173469)
(0.00170612 -0.000785987 -7.90083e-05 0.00170612 4.77338e-19 0.00170612)
(0.00170612 -0.000785987 -7.90083e-05 0.00170612 6.22363e-18 0.00170612)
(0.00167776 -0.000773166 -7.88466e-05 0.00167776 4.94909e-19 0.00167776)
(0.00167776 -0.000773166 -7.88466e-05 0.00167776 6.17883e-18 0.00167776)