/*--------------------------------*- C++ -*----------------------------------*\
| =========                 |                                                 |
| \\      /  F ield         | OpenFOAM: The Open Source CFD Toolbox           |
|  \\    /   O peration     | Version:  2012                                  |
|   \\  /    A nd           | Website:  www.openfoam.com                      |
|    \\/     M anipulation  |                                                 |
\*---------------------------------------------------------------------------*/
FoamFile
{
    version     2.0;
    format      ascii;
    class       volVectorField;
    location    "6000";
    object      U;
}
// * * * * * * * * * * * * * * * * * * * * * * * * * * * * * * * * * * * * * //

dimensions      [0 1 -1 0 0 0 0];


internalField   nonuniform List<vector> 
640
(
(0.0095731 -9.85988e-16 -8.41038e-17)
(0.0095731 1.86231e-18 -2.38664e-32)
(0.0292827 -4.9784e-15 -2.86433e-16)
(0.0292827 -1.15692e-17 3.15069e-19)
(0.0501626 -4.53566e-15 -3.33169e-16)
(0.0501626 -1.8216e-17 5.24317e-19)
(0.0722811 -4.2485e-15 -3.83905e-16)
(0.0722811 -2.92777e-17 8.72321e-19)
(0.0957087 -4.21465e-15 -4.42278e-16)
(0.0957087 -4.215e-17 1.43221e-18)
(0.120514 -4.21584e-15 -5.08493e-16)
(0.120514 -5.79712e-17 2.1536e-18)
(0.146756 -4.19802e-15 -5.82371e-16)
(0.146756 -7.36254e-17 2.93711e-18)
(0.174463 -4.16915e-15 -6.63403e-16)
(0.174463 -9.28527e-17 3.80322e-18)
(0.203605 -4.13705e-15 -7.49999e-16)
(0.203605 -1.14646e-16 4.73935e-18)
(0.23405 -4.1007e-15 -8.38861e-16)
(0.23405 -1.39524e-16 5.80419e-18)
(0.265518 -4.06015e-15 -9.24956e-16)
(0.265518 -1.6702e-16 6.90086e-18)
(0.297569 -4.0146e-15 -1.00246e-15)
(0.297569 -1.94842e-16 7.96481e-18)
(0.329645 -3.96383e-15 -1.06655e-15)
(0.329645 -2.2637e-16 9.02393e-18)
(0.36116 -3.90962e-15 -1.11521e-15)
(0.36116 -2.60571e-16 1.02795e-17)
(0.391615 -3.85399e-15 -1.14965e-15)
(0.391615 -2.9546e-16 1.15663e-17)
(0.420666 -3.79864e-15 -1.17332e-15)
(0.420666 -3.31877e-16 1.28179e-17)
(0.448135 -3.73323e-15 -1.19046e-15)
(0.448135 -3.68793e-16 1.41925e-17)
(0.473982 -3.68831e-15 -1.20484e-15)
(0.473982 -4.04834e-16 1.57102e-17)
(0.498255 -3.62284e-15 -1.2194e-15)
(0.498255 -4.43663e-16 1.71379e-17)
(0.521055 -3.5667e-15 -1.23603e-15)
(0.521055 -4.79502e-16 1.89638e-17)
(0.542506 -3.50969e-15 -1.25614e-15)
(0.542506 -5.13793e-16 2.02764e-17)
(0.562736 -3.44557e-15 -1.28065e-15)
(0.562736 -5.56369e-16 2.24141e-17)
(0.58187 -3.38138e-15 -1.30991e-15)
(0.58187 -5.99987e-16 2.46031e-17)
(0.600021 -3.32111e-15 -1.34425e-15)
(0.600021 -6.35231e-16 2.66316e-17)
(0.617293 -3.25684e-15 -1.38412e-15)
(0.617293 -6.72319e-16 2.85732e-17)
(0.633778 -3.18966e-15 -1.42966e-15)
(0.633778 -7.15232e-16 3.05523e-17)
(0.649556 -3.13003e-15 -1.48082e-15)
(0.649556 -7.5837e-16 3.29464e-17)
(0.664698 -3.07071e-15 -1.53823e-15)
(0.664698 -8.02447e-16 3.4999e-17)
(0.679267 -3.00133e-15 -1.6019e-15)
(0.679267 -8.42529e-16 3.74867e-17)
(0.693318 -2.93184e-15 -1.67185e-15)
(0.693318 -8.86343e-16 3.95406e-17)
(0.706898 -2.86316e-15 -1.64076e-15)
(0.706898 -9.28421e-16 4.35682e-17)
(0.720049 -2.7921e-15 -1.55158e-15)
(0.720049 -9.75512e-16 4.61261e-17)
(0.732809 -2.72378e-15 -1.46122e-15)
(0.732809 -1.02087e-15 4.99616e-17)
(0.745209 -2.65853e-15 -1.36083e-15)
(0.745209 -1.05756e-15 5.34702e-17)
(0.75728 -2.59633e-15 -1.25998e-15)
(0.75728 -1.10611e-15 4.19794e-17)
(0.769045 -2.53453e-15 -1.15664e-15)
(0.769045 -1.15381e-15 1.2017e-18)
(0.780529 -2.47175e-15 -1.04606e-15)
(0.780529 -1.19205e-15 -4.33735e-17)
(0.79175 -2.40963e-15 -9.20755e-16)
(0.79175 -1.23213e-15 -8.95176e-17)
(0.802726 -2.33097e-15 -7.88304e-16)
(0.802726 -1.27331e-15 -1.164e-16)
(0.813473 -2.25267e-15 -6.66183e-16)
(0.813473 -1.30609e-15 -1.28543e-16)
(0.824006 -2.17758e-15 -5.60971e-16)
(0.824006 -1.34141e-15 -1.41728e-16)
(0.834335 -2.10365e-15 -4.81862e-16)
(0.834335 -1.37002e-15 -1.58273e-16)
(0.844472 -2.02777e-15 -4.18156e-16)
(0.844472 -1.39866e-15 -1.77582e-16)
(0.854427 -1.9584e-15 -3.79052e-16)
(0.854427 -1.43591e-15 -1.80273e-16)
(0.864209 -1.91319e-15 -3.50551e-16)
(0.864209 -1.43876e-15 -1.89141e-16)
(0.873823 -1.87944e-15 -3.32864e-16)
(0.873823 -1.44266e-15 -2.09229e-16)
(0.883278 -1.82917e-15 -3.05647e-16)
(0.883278 -1.45259e-15 -2.31704e-16)
(0.892579 -1.7675e-15 -2.99534e-16)
(0.892579 -1.45829e-15 -2.48374e-16)
(0.90173 -1.71814e-15 -2.86175e-16)
(0.90173 -1.44765e-15 -2.66173e-16)
(0.910735 -1.65609e-15 -2.72939e-16)
(0.910735 -1.44665e-15 -2.68257e-16)
(0.919599 -1.60596e-15 -2.78955e-16)
(0.919599 -1.44155e-15 -2.66419e-16)
(0.928324 -1.56745e-15 -2.77507e-16)
(0.928324 -1.42203e-15 -2.63425e-16)
(0.936913 -1.53505e-15 -2.61039e-16)
(0.936913 -1.45107e-15 -2.69316e-16)
(0.945366 -1.48254e-15 -2.48353e-16)
(0.945366 -1.44184e-15 -2.40978e-16)
(0.953686 -1.45436e-15 -2.42491e-16)
(0.953686 -1.41467e-15 -2.2191e-16)
(0.961873 -1.42492e-15 -2.28537e-16)
(0.961873 -1.41219e-15 -2.01313e-16)
(0.969927 -1.37535e-15 -2.16873e-16)
(0.969927 -1.37258e-15 -2.17512e-16)
(0.977848 -1.33733e-15 -2.11457e-16)
(0.977848 -1.3551e-15 -2.34773e-16)
(0.985636 -1.29475e-15 -2.12911e-16)
(0.985636 -1.31505e-15 -2.2675e-16)
(0.993288 -1.2676e-15 -2.09153e-16)
(0.993288 -1.20462e-15 -2.31561e-16)
(1.0008 -1.22938e-15 -1.70095e-16)
(1.0008 -1.19837e-15 -2.64841e-16)
(1.00818 -1.18205e-15 -1.70081e-16)
(1.00818 -1.21252e-15 -2.33083e-16)
(1.01541 -1.15463e-15 -1.61974e-16)
(1.01541 -1.18688e-15 -1.81004e-16)
(1.0225 -1.12665e-15 -1.604e-16)
(1.0225 -1.15495e-15 -1.53006e-16)
(1.02943 -1.0857e-15 -1.07047e-16)
(1.02943 -1.08823e-15 -8.6e-17)
(1.0362 -1.08702e-15 -5.7846e-17)
(1.0362 -1.05662e-15 -5.24537e-17)
(1.0428 -1.05005e-15 -1.05816e-17)
(1.0428 -1.08429e-15 -1.3522e-16)
(1.04923 -1.04447e-15 -1.94421e-17)
(1.04923 -1.05437e-15 -1.41273e-16)
(1.05546 -1.01515e-15 -1.39295e-17)
(1.05546 -1.01575e-15 -3.91996e-17)
(1.06149 -9.78524e-16 -8.21949e-17)
(1.06149 -9.74445e-16 4.13684e-18)
(1.06729 -9.58068e-16 -1.02476e-16)
(1.06729 -8.8488e-16 -1.11491e-16)
(1.07285 -9.17232e-16 -1.48373e-16)
(1.07285 -8.74144e-16 -8.1859e-17)
(1.07812 -8.80323e-16 -1.19966e-16)
(1.07812 -8.89993e-16 -1.39106e-16)
(1.08308 -6.98711e-16 -1.00219e-17)
(1.08308 -8.05009e-16 -2.01685e-17)
(1.08767 -6.1771e-16 -2.43974e-18)
(1.08767 -5.86558e-16 1.54255e-16)
(1.09182 -5.66003e-16 -7.53151e-17)
(1.09182 -6.56633e-16 2.31115e-17)
(1.09545 -6.84245e-16 -2.58655e-17)
(1.09545 -6.35155e-16 3.7916e-17)
(1.09844 -5.98103e-16 -1.20708e-17)
(1.09844 -5.99891e-16 7.1169e-17)
(1.10063 -5.96645e-16 -1.47472e-17)
(1.10063 -4.33918e-16 -2.95297e-16)
(1.10184 -6.21595e-16 1.21357e-16)
(1.10184 -4.23702e-16 3.04755e-17)
(0.0095731 6.29768e-19 2.73845e-17)
(0.0095731 2.86705e-19 2.41446e-17)
(0.0292827 -4.43667e-18 7.03839e-17)
(0.0292827 -1.27143e-18 -4.99981e-17)
(0.0501626 -7.39837e-18 7.88313e-17)
(0.0501626 -2.03694e-18 -5.57147e-17)
(0.0722811 -1.21961e-17 8.81455e-17)
(0.0722811 -3.57548e-18 -6.17646e-17)
(0.0957087 -1.73879e-17 9.83676e-17)
(0.0957087 -5.40726e-18 -6.80998e-17)
(0.120514 -2.30808e-17 1.0954e-16)
(0.120514 -7.4229e-18 -7.46653e-17)
(0.146756 -2.99771e-17 1.21596e-16)
(0.146756 -9.61978e-18 -8.1339e-17)
(0.174463 -3.76573e-17 1.34383e-16)
(0.174463 -1.22688e-17 -8.79398e-17)
(0.203605 -4.57967e-17 1.47485e-16)
(0.203605 -1.54346e-17 -9.41578e-17)
(0.23405 -5.46568e-17 1.60258e-16)
(0.23405 -1.9522e-17 -9.95002e-17)
(0.265518 -6.47994e-17 1.7178e-16)
(0.265518 -2.43187e-17 -1.0344e-16)
(0.297569 -7.61626e-17 1.80967e-16)
(0.297569 -2.85465e-17 -1.05514e-16)
(0.329645 -8.86472e-17 1.86985e-16)
(0.329645 -3.20751e-17 -1.05404e-16)
(0.36116 -1.01194e-16 1.89656e-16)
(0.36116 -3.70454e-17 -1.03072e-16)
(0.391615 -1.13336e-16 1.89421e-16)
(0.391615 -4.39271e-17 -9.90231e-17)
(0.420666 -1.26026e-16 1.86937e-16)
(0.420666 -5.02773e-17 -9.38656e-17)
(0.448135 -1.38965e-16 1.8296e-16)
(0.448135 -5.76532e-17 -8.80497e-17)
(0.473982 -1.51672e-16 1.78168e-16)
(0.473982 -6.57212e-17 -8.20306e-17)
(0.498255 -1.62736e-16 1.72902e-16)
(0.498255 -7.08612e-17 -7.61398e-17)
(0.521055 -1.71609e-16 1.67951e-16)
(0.521055 -7.8512e-17 -7.046e-17)
(0.542506 -1.82267e-16 1.63895e-16)
(0.542506 -8.87407e-17 -6.59045e-17)
(0.562736 -1.98749e-16 1.60351e-16)
(0.562736 -9.25772e-17 -6.19256e-17)
(0.58187 -2.13561e-16 1.5667e-16)
(0.58187 -9.93191e-17 -5.81064e-17)
(0.600021 -2.24757e-16 1.53984e-16)
(0.600021 -1.09479e-16 -5.53126e-17)
(0.617293 -2.39205e-16 1.51211e-16)
(0.617293 -1.14268e-16 -5.32323e-17)
(0.633778 -2.54755e-16 1.47991e-16)
(0.633778 -1.2074e-16 -5.1904e-17)
(0.649556 -2.68084e-16 1.45328e-16)
(0.649556 -1.31024e-16 -5.12094e-17)
(0.664698 -2.84012e-16 1.42394e-16)
(0.664698 -1.40325e-16 -5.17099e-17)
(0.679267 -2.98096e-16 1.39761e-16)
(0.679267 -1.51037e-16 -5.34744e-17)
(0.693318 -3.0622e-16 1.36818e-16)
(0.693318 -1.65519e-16 -5.66613e-17)
(0.706898 -3.15394e-16 1.33538e-16)
(0.706898 -1.77735e-16 -5.99335e-17)
(0.720049 -3.31157e-16 1.30713e-16)
(0.720049 -1.87595e-16 -6.47084e-17)
(0.732809 -3.4343e-16 1.27522e-16)
(0.732809 -1.92787e-16 -6.95872e-17)
(0.745209 -3.49918e-16 1.25799e-16)
(0.745209 -2.04193e-16 -6.01056e-17)
(0.75728 -3.65899e-16 1.23938e-16)
(0.75728 -2.09075e-16 -2.24591e-17)
(0.769045 -3.79237e-16 1.19424e-16)
(0.769045 -2.15075e-16 9.11605e-18)
(0.780529 -3.83433e-16 1.17519e-16)
(0.780529 -2.36586e-16 6.00869e-18)
(0.79175 -3.83163e-16 1.11244e-16)
(0.79175 -2.57633e-16 9.39232e-18)
(0.802726 -3.73827e-16 1.08101e-16)
(0.802726 -2.68091e-16 2.039e-17)
(0.813473 -3.79878e-16 1.09166e-16)
(0.813473 -2.97512e-16 2.54238e-17)
(0.824006 -3.9044e-16 1.04335e-16)
(0.824006 -3.27525e-16 2.76128e-17)
(0.834335 -4.00879e-16 1.08435e-16)
(0.834335 -3.34113e-16 3.65283e-17)
(0.844472 -4.31331e-16 1.10861e-16)
(0.844472 -3.46587e-16 2.425e-17)
(0.854427 -4.54688e-16 1.00982e-16)
(0.854427 -3.52384e-16 2.19312e-17)
(0.864209 -4.70483e-16 9.51254e-17)
(0.864209 -3.81037e-16 2.54392e-17)
(0.873823 -4.81049e-16 9.22141e-17)
(0.873823 -4.07838e-16 2.20224e-17)
(0.883278 -5.00782e-16 9.80623e-17)
(0.883278 -4.1047e-16 1.82043e-17)
(0.892579 -5.30601e-16 9.45812e-17)
(0.892579 -4.35133e-16 7.87219e-18)
(0.90173 -5.41646e-16 8.35729e-17)
(0.90173 -4.34477e-16 -5.80021e-18)
(0.910735 -5.78811e-16 7.52081e-17)
(0.910735 -4.51237e-16 -9.03877e-18)
(0.919599 -6.15124e-16 5.00873e-17)
(0.919599 -4.72934e-16 2.68136e-18)
(0.928324 -6.17119e-16 6.15489e-17)
(0.928324 -5.09614e-16 1.08875e-17)
(0.936913 -6.27437e-16 7.1389e-17)
(0.936913 -5.77693e-16 -1.57854e-17)
(0.945366 -6.39867e-16 3.6147e-17)
(0.945366 -6.1004e-16 -7.85084e-18)
(0.953686 -6.61359e-16 4.17726e-17)
(0.953686 -6.39452e-16 1.16024e-17)
(0.961873 -6.88053e-16 3.68006e-17)
(0.961873 -6.89223e-16 5.19237e-17)
(0.969927 -7.20868e-16 7.39903e-17)
(0.969927 -7.43933e-16 9.71191e-17)
(0.977848 -7.52189e-16 9.97551e-17)
(0.977848 -7.46889e-16 8.75807e-17)
(0.985636 -7.74682e-16 3.96246e-17)
(0.985636 -7.83333e-16 6.17524e-17)
(0.993288 -7.70278e-16 1.54756e-17)
(0.993288 -7.76435e-16 8.28508e-17)
(1.0008 -7.84377e-16 5.25868e-17)
(1.0008 -7.67469e-16 6.65898e-17)
(1.00818 -8.02137e-16 6.49475e-17)
(1.00818 -7.70966e-16 2.38397e-17)
(1.01541 -8.00555e-16 1.38384e-16)
(1.01541 -7.58894e-16 5.35497e-17)
(1.0225 -7.87921e-16 8.55389e-17)
(1.0225 -8.02172e-16 8.93615e-17)
(1.02943 -7.88976e-16 5.77659e-17)
(1.02943 -7.8534e-16 8.4776e-17)
(1.0362 -7.99545e-16 8.28697e-17)
(1.0362 -8.1823e-16 1.36753e-16)
(1.0428 -8.10232e-16 1.70066e-16)
(1.0428 -8.29395e-16 1.50725e-16)
(1.04923 -8.40585e-16 1.58828e-16)
(1.04923 -8.36812e-16 1.30341e-16)
(1.05546 -7.78679e-16 -1.89476e-17)
(1.05546 -8.49322e-16 8.52121e-17)
(1.06149 -7.97575e-16 1.03266e-16)
(1.06149 -8.37386e-16 6.15012e-17)
(1.06729 -9.098e-16 1.44056e-16)
(1.06729 -8.92751e-16 1.11779e-16)
(1.07285 -8.95449e-16 1.0661e-16)
(1.07285 -8.60972e-16 3.43367e-17)
(1.07812 -8.57704e-16 2.02575e-16)
(1.07812 -8.05121e-16 1.57896e-16)
(1.08308 -7.28622e-16 3.69054e-17)
(1.08308 -7.36001e-16 1.28182e-16)
(1.08767 -6.43076e-16 -1.00682e-16)
(1.08767 -6.39765e-16 -1.58044e-16)
(1.09182 -6.50219e-16 -2.1206e-16)
(1.09182 -6.26114e-16 -1.54741e-16)
(1.09545 -6.67099e-16 -1.70608e-16)
(1.09545 -5.83983e-16 -1.62406e-16)
(1.09844 -5.07277e-16 1.57875e-18)
(1.09844 -5.94508e-16 1.79101e-16)
(1.10063 -4.88647e-16 2.23301e-18)
(1.10063 -4.71954e-16 3.10871e-17)
(1.10184 -4.21083e-16 -1.66922e-17)
(1.10184 -3.81172e-16 -2.15749e-16)
(1.10184 -3.59911e-16 -4.86266e-16)
(1.10184 -4.22676e-16 -1.05825e-17)
(1.10063 -2.62552e-16 -5.24878e-16)
(1.10063 -3.03804e-16 4.37234e-17)
(1.09844 -1.52977e-16 -1.74709e-16)
(1.09844 -1.4452e-16 -2.32663e-16)
(1.09545 -2.0998e-16 -1.70978e-17)
(1.09545 -1.71279e-16 -4.13806e-16)
(1.09182 -2.10704e-16 -1.23498e-16)
(1.09182 -2.03384e-16 -2.17967e-16)
(1.08767 -2.27256e-16 -2.703e-16)
(1.08767 -2.32649e-16 -3.30425e-16)
(1.08308 -2.86793e-16 1.92758e-17)
(1.08308 -3.17567e-16 1.17703e-17)
(1.07812 -3.00554e-16 7.07196e-17)
(1.07812 -3.25832e-16 7.95695e-17)
(1.07285 -2.47395e-16 -7.22923e-17)
(1.07285 -2.16478e-16 -1.0515e-16)
(1.06729 -2.20688e-16 -6.86562e-17)
(1.06729 -1.75192e-16 -7.08255e-17)
(1.06149 -2.23108e-16 -4.30638e-17)
(1.06149 -2.05813e-16 -3.59824e-17)
(1.05546 -1.54264e-16 1.39305e-17)
(1.05546 -1.627e-16 2.78079e-17)
(1.04923 -1.13171e-16 5.77297e-17)
(1.04923 -1.01679e-16 -3.03399e-17)
(1.0428 -9.75874e-17 2.34743e-18)
(1.0428 -1.6483e-16 -4.88342e-17)
(1.0362 -1.28072e-16 -1.75281e-17)
(1.0362 -1.57169e-16 -3.01725e-17)
(1.02943 -7.72601e-17 -3.27515e-17)
(1.02943 -6.89974e-17 -6.55952e-18)
(1.0225 -5.55944e-17 -5.94641e-17)
(1.0225 -5.80277e-17 -1.05847e-17)
(1.01541 -8.51041e-17 -5.85918e-17)
(1.01541 -6.90445e-17 -2.18561e-17)
(1.00818 -1.01703e-16 -2.70413e-17)
(1.00818 -1.04585e-16 -4.82115e-17)
(1.0008 -1.1422e-16 -3.97653e-17)
(1.0008 -7.13463e-17 -3.3698e-17)
(0.993288 -1.10753e-16 5.94174e-18)
(0.993288 -1.07237e-16 -2.73819e-18)
(0.985636 -8.67233e-17 -1.24198e-17)
(0.985636 -9.3377e-17 -5.02362e-18)
(0.977848 -7.66431e-17 -1.13226e-17)
(0.977848 -6.4306e-17 -2.3251e-17)
(0.969927 -7.144e-17 1.93013e-17)
(0.969927 -6.12271e-17 -8.23125e-18)
(0.961873 -6.23132e-17 2.44765e-17)
(0.961873 -7.12934e-17 1.41472e-17)
(0.953686 -2.69957e-17 2.19981e-17)
(0.953686 -7.12588e-17 1.4182e-17)
(0.945366 -2.10593e-17 2.48561e-17)
(0.945366 -3.14201e-17 2.52408e-17)
(0.936913 -2.57188e-17 2.32563e-17)
(0.936913 3.56895e-18 3.26193e-17)
(0.928324 -2.41588e-17 2.55623e-17)
(0.928324 -3.71827e-17 4.72672e-18)
(0.919599 -4.54826e-17 1.34099e-17)
(0.919599 -3.54287e-17 -6.45003e-18)
(0.910735 -4.97516e-17 1.24504e-17)
(0.910735 -9.23051e-18 6.77888e-18)
(0.90173 -2.46886e-17 2.84562e-17)
(0.90173 -8.31973e-18 5.10075e-18)
(0.892579 -2.10744e-17 2.62835e-17)
(0.892579 -4.13177e-17 6.74106e-31)
(0.883278 -2.97349e-17 2.02016e-17)
(0.883278 -3.74921e-17 -5.39615e-18)
(0.873823 -3.2237e-17 1.44324e-17)
(0.873823 -3.92247e-17 -5.00602e-18)
(0.864209 -2.6837e-17 1.43698e-17)
(0.864209 -3.21862e-17 -3.39041e-19)
(0.854427 -3.25856e-17 1.18339e-17)
(0.854427 -5.16825e-17 2.14133e-18)
(0.844472 -3.16277e-17 4.56773e-18)
(0.844472 -5.53963e-17 -1.81606e-18)
(0.834335 -3.24355e-17 -2.44149e-18)
(0.834335 -3.66923e-17 3.29366e-18)
(0.824006 -3.3913e-17 -2.42599e-18)
(0.824006 -3.03507e-17 4.92426e-19)
(0.813473 -2.65788e-17 2.16229e-19)
(0.813473 -2.4269e-17 -7.51329e-19)
(0.802726 -2.34831e-17 -3.38805e-19)
(0.802726 -1.35132e-17 2.37993e-18)
(0.79175 -2.24431e-17 -7.99206e-19)
(0.79175 -7.76682e-18 2.90238e-18)
(0.780529 -1.78883e-17 -2.01725e-18)
(0.780529 -5.8675e-18 5.77188e-18)
(0.769045 -9.06205e-18 1.43153e-18)
(0.769045 -5.64084e-18 6.08718e-18)
(0.75728 -6.13098e-18 6.44838e-19)
(0.75728 -1.4361e-17 1.09672e-17)
(0.745209 -5.02675e-18 2.5759e-18)
(0.745209 -8.88797e-18 8.6762e-18)
(0.732809 -2.2334e-18 -1.33745e-18)
(0.732809 -7.03276e-18 7.40678e-18)
(0.720049 -6.22722e-18 -9.88468e-19)
(0.720049 -9.591e-18 4.95408e-18)
(0.706898 -6.13458e-18 -1.1399e-18)
(0.706898 -1.44428e-17 2.87918e-18)
(0.693318 -1.71884e-18 -2.18827e-18)
(0.693318 -8.72475e-18 1.77865e-18)
(0.679267 -2.8021e-18 -1.82019e-18)
(0.679267 -6.77096e-18 4.10596e-19)
(0.664698 -6.10957e-18 -2.76651e-18)
(0.664698 -1.06339e-17 -7.79572e-19)
(0.649556 -1.65282e-18 -3.47903e-18)
(0.649556 -6.00298e-18 -3.15237e-18)
(0.633778 -1.19495e-17 -3.6526e-18)
(0.633778 -4.78953e-18 -4.24685e-18)
(0.617293 -1.23539e-17 -3.24945e-18)
(0.617293 -4.14876e-18 -4.13115e-18)
(0.600021 -5.80528e-18 -2.48546e-18)
(0.600021 -7.83603e-19 -3.8766e-18)
(0.58187 -1.07498e-17 -2.45618e-18)
(0.58187 -2.45387e-19 -3.77306e-18)
(0.562736 -9.37362e-18 -2.73239e-18)
(0.562736 -3.89264e-19 -4.2379e-18)
(0.542506 -5.74739e-18 -3.87581e-18)
(0.542506 4.3597e-19 -5.00721e-18)
(0.521055 -4.4527e-18 -4.13248e-18)
(0.521055 1.02602e-19 -5.54988e-18)
(0.498255 -3.53707e-18 -3.52438e-18)
(0.498255 3.34e-19 -5.96591e-18)
(0.473982 -2.09824e-18 -3.91394e-18)
(0.473982 1.70317e-18 -6.2151e-18)
(0.448135 -1.11565e-18 -4.50732e-18)
(0.448135 1.4467e-18 -6.51736e-18)
(0.420666 -6.53378e-19 -4.29008e-18)
(0.420666 -2.06992e-19 -6.68125e-18)
(0.391615 -8.52738e-20 -4.22331e-18)
(0.391615 -8.09545e-19 -6.63178e-18)
(0.36116 -8.21983e-19 -4.25792e-18)
(0.36116 -1.69918e-18 -6.66765e-18)
(0.329645 -1.27953e-18 -4.18167e-18)
(0.329645 -2.15944e-18 -6.5789e-18)
(0.297569 -1.02691e-18 -4.03508e-18)
(0.297569 -1.65914e-18 -6.34419e-18)
(0.265518 -7.37967e-19 -3.80113e-18)
(0.265518 -1.39868e-18 -5.99338e-18)
(0.23405 -5.2442e-19 -3.47034e-18)
(0.23405 -1.58574e-18 -5.55603e-18)
(0.203605 -4.99865e-19 -3.14954e-18)
(0.203605 -1.66916e-18 -5.09978e-18)
(0.174463 -3.8896e-19 -2.78554e-18)
(0.174463 -1.28454e-18 -4.64901e-18)
(0.146756 -3.17563e-19 -2.45381e-18)
(0.146756 -8.30407e-19 -4.19847e-18)
(0.120514 -2.2077e-19 -2.13072e-18)
(0.120514 -4.60129e-19 -3.79561e-18)
(0.0957087 -1.36627e-19 -1.85868e-18)
(0.0957087 -3.47681e-19 -3.42061e-18)
(0.0722811 -8.14055e-20 -1.62261e-18)
(0.0722811 -1.84149e-19 -3.06533e-18)
(0.0501626 -1.44856e-20 -1.42909e-18)
(0.0501626 -1.35368e-19 -2.73983e-18)
(0.0292827 -1.68405e-20 -1.26033e-18)
(0.0292827 -4.18911e-20 -2.44521e-18)
(0.00957311 3.98788e-20 -5.72275e-19)
(0.00957311 -2.55876e-20 -9.31905e-19)
(1.10184 -3.49031e-16 7.76478e-17)
(1.10184 -3.87906e-16 1.51518e-18)
(1.10063 -2.08222e-16 4.95555e-16)
(1.10063 -2.26256e-16 5.04548e-16)
(1.09844 -1.16611e-16 4.29821e-16)
(1.09844 -9.91102e-17 3.06269e-16)
(1.09545 -1.31144e-16 2.29899e-16)
(1.09545 -1.19203e-16 3.11108e-16)
(1.09182 -1.68172e-16 3.75108e-16)
(1.09182 -1.3886e-16 2.91801e-16)
(1.08767 -2.23894e-16 1.80697e-16)
(1.08767 -1.84417e-16 2.87761e-16)
(1.08308 -2.66854e-16 -5.82841e-17)
(1.08308 -3.00218e-16 5.15884e-17)
(1.07812 -3.40674e-16 -5.32657e-17)
(1.07812 -4.03707e-16 -7.99798e-17)
(1.07285 -3.16773e-16 1.87411e-17)
(1.07285 -3.89735e-16 -5.51595e-17)
(1.06729 -2.62142e-16 5.56383e-17)
(1.06729 -3.22426e-16 1.74249e-16)
(1.06149 -2.49677e-16 -3.2237e-17)
(1.06149 -2.58767e-16 -6.35184e-17)
(1.05546 -1.96981e-16 -5.55424e-18)
(1.05546 -1.83062e-16 1.00385e-16)
(1.04923 -1.01733e-16 5.14196e-17)
(1.04923 -1.59822e-16 -2.70826e-17)
(1.0428 -1.0201e-16 5.08295e-17)
(1.0428 -2.03488e-16 -1.9384e-17)
(1.0362 -1.19247e-16 1.82049e-17)
(1.0362 -1.15291e-16 5.91369e-17)
(1.02943 -1.12779e-16 2.96101e-18)
(1.02943 -8.15678e-17 2.81872e-17)
(1.0225 -9.12477e-17 -8.98155e-33)
(1.0225 -6.71669e-17 4.01575e-17)
(1.01541 -3.37438e-17 1.5062e-17)
(1.01541 -2.30782e-17 -1.78755e-19)
(1.00818 -2.257e-17 1.41207e-17)
(1.00818 -2.30696e-18 -2.50922e-18)
(1.0008 -4.22143e-17 -3.05541e-17)
(1.0008 -3.9193e-17 3.18642e-17)
(0.993288 -4.22459e-17 -1.55833e-17)
(0.993288 -7.4444e-17 1.09788e-17)
(0.985636 -6.16524e-17 5.19203e-18)
(0.985636 -5.26386e-17 -6.91525e-18)
(0.977848 -5.92411e-17 -2.81295e-18)
(0.977848 -5.33737e-17 2.16104e-17)
(0.969927 -2.78573e-17 -7.24622e-18)
(0.969927 -4.20212e-17 3.81413e-18)
(0.961873 -5.72949e-17 -1.92729e-17)
(0.961873 -3.90042e-17 1.47462e-17)
(0.953686 -4.8021e-17 -2.10069e-18)
(0.953686 -7.5435e-17 2.15447e-17)
(0.945366 -3.56834e-17 -1.70394e-17)
(0.945366 -2.885e-17 1.60728e-17)
(0.936913 -3.26803e-17 -2.11081e-17)
(0.936913 -3.57875e-17 4.31361e-18)
(0.928324 -3.67265e-17 3.28482e-18)
(0.928324 -6.08028e-17 1.36816e-18)
(0.919599 -3.71201e-17 8.70382e-18)
(0.919599 -2.0711e-17 7.23831e-18)
(0.910735 -3.4894e-17 4.66551e-19)
(0.910735 -3.56236e-17 6.02196e-19)
(0.90173 -3.69325e-17 3.61988e-18)
(0.90173 -4.40799e-17 5.61737e-18)
(0.892579 -3.45647e-17 9.78867e-19)
(0.892579 -4.33476e-17 2.95199e-18)
(0.883278 -3.20802e-17 5.9321e-18)
(0.883278 -4.60474e-17 2.33186e-18)
(0.873823 -3.97967e-17 1.57606e-17)
(0.873823 -4.64055e-17 8.47839e-19)
(0.864209 -5.56209e-17 -2.31934e-18)
(0.864209 -3.41911e-17 3.82578e-19)
(0.854427 -4.82367e-17 -8.10023e-18)
(0.854427 -3.51786e-17 -4.09216e-31)
(0.844472 -4.66321e-17 -8.54947e-18)
(0.844472 -4.97766e-17 5.08377e-18)
(0.834335 -5.06225e-17 -7.42423e-18)
(0.834335 -4.56455e-17 1.46376e-17)
(0.824006 -4.58931e-17 -8.03357e-18)
(0.824006 -3.97243e-17 8.39334e-18)
(0.813473 -4.48929e-17 -2.46115e-18)
(0.813473 -6.40704e-17 7.73899e-18)
(0.802726 -3.50278e-17 -5.34587e-18)
(0.802726 -3.01369e-17 1.24428e-17)
(0.79175 -2.24781e-17 -8.56894e-18)
(0.79175 -3.46463e-17 7.72688e-18)
(0.780529 -2.90228e-17 -1.90754e-17)
(0.780529 -3.54224e-17 5.7048e-18)
(0.769045 -2.61052e-17 -2.13578e-17)
(0.769045 -2.62013e-17 2.10183e-18)
(0.75728 -2.59271e-17 -1.9208e-17)
(0.75728 -2.91525e-17 1.28444e-18)
(0.745209 -2.58707e-17 -1.92007e-17)
(0.745209 -3.57905e-17 -4.31902e-31)
(0.732809 -2.08428e-17 -1.90843e-17)
(0.732809 -3.60771e-17 4.50293e-19)
(0.720049 -1.54552e-17 -1.65417e-17)
(0.720049 -3.13722e-17 1.4517e-18)
(0.706898 -1.44227e-17 -1.50154e-17)
(0.706898 -3.09928e-17 1.2285e-18)
(0.693318 -1.74298e-17 -1.41196e-17)
(0.693318 -2.15713e-17 2.29917e-18)
(0.679267 -1.87116e-17 -1.25191e-17)
(0.679267 -2.27595e-17 1.52113e-18)
(0.664698 -1.52899e-17 -1.18006e-17)
(0.664698 -2.85651e-17 1.59977e-18)
(0.649556 -1.00692e-17 -1.0338e-17)
(0.649556 -1.48616e-17 6.87318e-19)
(0.633778 -9.35545e-18 -1.00497e-17)
(0.633778 -1.63978e-18 -9.15109e-31)
(0.617293 -1.10913e-17 -1.08856e-17)
(0.617293 -2.0151e-19 3.74226e-19)
(0.600021 -1.04458e-17 -1.19871e-17)
(0.600021 8.64861e-19 3.90133e-19)
(0.58187 -1.12363e-17 -1.26443e-17)
(0.58187 -3.08204e-18 8.44886e-20)
(0.562736 -1.33541e-17 -1.29567e-17)
(0.562736 -1.94004e-18 6.95658e-20)
(0.542506 -6.11545e-18 -1.29428e-17)
(0.542506 -1.56994e-18 4.77005e-19)
(0.521055 -3.23316e-18 -1.24795e-17)
(0.521055 -1.26588e-18 3.72397e-19)
(0.498255 -2.3396e-18 -1.19698e-17)
(0.498255 3.44081e-18 -1.26034e-31)
(0.473982 -5.25248e-18 -1.19723e-17)
(0.473982 -1.12311e-19 -1.79216e-19)
(0.448135 -2.50813e-18 -1.20054e-17)
(0.448135 6.54478e-19 -2.177e-19)
(0.420666 1.05595e-19 -1.15585e-17)
(0.420666 -2.94014e-19 -2.36681e-19)
(0.391615 1.26984e-18 -1.11975e-17)
(0.391615 -1.1482e-18 -1.89011e-19)
(0.36116 2.69987e-19 -1.07084e-17)
(0.36116 -5.30478e-19 1.08132e-19)
(0.329645 -2.69431e-19 -1.01317e-17)
(0.329645 -3.37537e-19 1.01553e-19)
(0.297569 3.24699e-19 -9.5394e-18)
(0.297569 2.56348e-20 2.40506e-20)
(0.265518 3.29502e-19 -8.81722e-18)
(0.265518 -1.43903e-19 -2.00574e-20)
(0.23405 1.59002e-19 -8.02897e-18)
(0.23405 -4.49751e-19 -1.70976e-20)
(0.203605 4.10791e-19 -7.22402e-18)
(0.203605 -5.74336e-19 -2.51033e-20)
(0.174463 3.36893e-19 -6.43613e-18)
(0.174463 -8.45528e-19 -1.47337e-20)
(0.146756 -4.39773e-20 -5.72074e-18)
(0.146756 -6.97166e-19 3.40494e-20)
(0.120514 7.59065e-20 -5.07254e-18)
(0.120514 -4.29063e-19 3.15758e-20)
(0.0957087 8.35923e-20 -4.49073e-18)
(0.0957087 -2.59134e-19 1.04877e-20)
(0.0722811 9.62366e-20 -3.98629e-18)
(0.0722811 6.68452e-20 -1.79818e-46)
(0.0501626 1.24185e-19 -3.54185e-18)
(0.0501626 -7.64685e-20 -2.90612e-21)
(0.0292827 6.45769e-20 -3.14801e-18)
(0.0292827 -2.83164e-20 1.10538e-21)
(0.00957311 9.0434e-22 1.89405e-20)
(0.00957311 5.80522e-21 8.19291e-34)
)
;

boundaryField
{
    walls
    {
        type            fixedValue;
        value           uniform (0 0 0);
    }
    inlet
    {
        type            cyclic;
    }
    outlet
    {
        type            cyclic;
    }
    sides
    {
        type            empty;
    }
}


// ************************************************************************* //
