/*--------------------------------*- C++ -*----------------------------------*\
| =========                 |                                                 |
| \\      /  F ield         | OpenFOAM: The Open Source CFD Toolbox           |
|  \\    /   O peration     | Version:  2012                                  |
|   \\  /    A nd           | Website:  www.openfoam.com                      |
|    \\/     M anipulation  |                                                 |
\*---------------------------------------------------------------------------*/
FoamFile
{
    version     2.0;
    format      ascii;
    class       surfaceScalarField;
    location    "13700";
    object      phi;
}
// * * * * * * * * * * * * * * * * * * * * * * * * * * * * * * * * * * * * * //

dimensions      [0 3 -1 0 0 0 0];
oriented        oriented;


internalField   nonuniform List<scalar> 
5116
(
2.86373e-07
-2.63893e-08
8.83973e-09
2.64539e-08
-8.81517e-09
8.59165e-07
-6.28067e-08
1.21967e-08
6.29558e-08
-1.21629e-08
1.44737e-06
-8.53767e-08
7.59761e-09
8.56937e-08
-7.5765e-09
2.06038e-06
-9.65309e-08
3.71261e-09
9.68047e-08
-3.7023e-09
2.70042e-06
-1.0274e-07
1.99615e-09
1.02779e-07
-1.9906e-09
3.36713e-06
-1.06636e-07
1.25968e-09
1.06549e-07
-1.25619e-09
4.06047e-06
-1.09354e-07
8.96135e-10
1.09232e-07
-8.93647e-10
4.78058e-06
-1.11408e-07
6.90327e-10
1.11298e-07
-6.8841e-10
5.52773e-06
-1.13081e-07
5.61295e-10
1.12978e-07
-5.59736e-10
6.30276e-06
-1.14492e-07
4.74219e-10
1.14397e-07
-4.72902e-10
7.10722e-06
-1.15723e-07
4.12192e-10
1.15631e-07
-4.11048e-10
7.94231e-06
-1.16819e-07
3.66171e-10
1.16727e-07
-3.65154e-10
8.80934e-06
-1.17806e-07
3.30933e-10
1.17718e-07
-3.30014e-10
9.71001e-06
-1.1871e-07
3.03094e-10
1.18625e-07
-3.02252e-10
1.06454e-05
-1.19556e-07
2.81158e-10
1.1947e-07
-2.80377e-10
1.1616e-05
-1.20344e-07
2.62699e-10
1.20252e-07
-2.61968e-10
1.26219e-05
-1.21088e-07
2.48403e-10
1.20998e-07
-2.47713e-10
1.3663e-05
-1.21795e-07
2.3604e-10
1.21704e-07
-2.35384e-10
1.47406e-05
-1.22471e-07
2.2582e-10
1.22381e-07
-2.25193e-10
1.58583e-05
-1.23121e-07
2.17067e-10
1.23031e-07
-2.16464e-10
1.70207e-05
-1.23749e-07
2.09799e-10
1.23659e-07
-2.09217e-10
1.82313e-05
-1.24359e-07
2.03497e-10
1.24269e-07
-2.02933e-10
1.94924e-05
-1.24952e-07
1.98286e-10
1.24863e-07
-1.97736e-10
2.08057e-05
-1.25531e-07
1.93218e-10
1.2544e-07
-1.9268e-10
2.21732e-05
-1.261e-07
1.90053e-10
1.26014e-07
-1.89526e-10
2.35969e-05
-1.26657e-07
1.86065e-10
1.26565e-07
-1.85547e-10
2.5079e-05
-1.27209e-07
1.84311e-10
1.27121e-07
-1.83801e-10
2.66215e-05
-1.27754e-07
1.82037e-10
1.27666e-07
-1.81532e-10
2.8226e-05
-1.28295e-07
1.805e-10
1.28207e-07
-1.8e-10
2.98943e-05
-1.28831e-07
1.79035e-10
1.28744e-07
-1.78539e-10
3.16287e-05
-1.29365e-07
1.78247e-10
1.29278e-07
-1.77754e-10
3.34339e-05
-1.29897e-07
1.77467e-10
1.29811e-07
-1.76976e-10
3.53169e-05
-1.30429e-07
1.773e-10
1.30341e-07
-1.7681e-10
3.72874e-05
-1.3096e-07
1.77115e-10
1.30873e-07
-1.76626e-10
3.93559e-05
-1.31491e-07
1.77481e-10
1.31406e-07
-1.76992e-10
4.15325e-05
-1.32019e-07
1.7691e-10
1.31935e-07
-1.76419e-10
4.38251e-05
-1.32549e-07
1.78699e-10
1.32477e-07
-1.78207e-10
4.62391e-05
-1.33075e-07
1.75619e-10
1.32994e-07
-1.75124e-10
4.87769e-05
-1.3362e-07
1.80959e-10
1.33548e-07
-1.80461e-10
5.14387e-05
-1.34153e-07
1.77033e-10
1.34065e-07
-1.76532e-10
5.42247e-05
-1.34704e-07
1.84256e-10
1.34629e-07
-1.83751e-10
5.71368e-05
-1.3525e-07
1.81819e-10
1.35164e-07
-1.81308e-10
6.01822e-05
-1.35814e-07
1.88523e-10
1.35736e-07
-1.88007e-10
6.33755e-05
-1.3638e-07
1.88984e-10
1.36298e-07
-1.88463e-10
6.67394e-05
-1.36959e-07
1.93676e-10
1.36881e-07
-1.93149e-10
7.03017e-05
-1.37546e-07
1.95704e-10
1.37469e-07
-1.95169e-10
7.40907e-05
-1.38143e-07
1.99699e-10
1.3807e-07
-1.99157e-10
7.81306e-05
-1.38748e-07
2.01491e-10
1.38676e-07
-2.00941e-10
8.24379e-05
-1.39366e-07
2.06643e-10
1.39306e-07
-2.06085e-10
8.70206e-05
-1.39954e-07
1.96022e-10
1.39877e-07
-1.95455e-10
9.18799e-05
-1.40596e-07
2.14892e-10
1.40557e-07
-2.14315e-10
9.70067e-05
-1.41218e-07
2.07181e-10
1.41117e-07
-2.06593e-10
0.000102374
-1.41889e-07
2.24418e-10
1.41816e-07
-2.2382e-10
0.000107921
-1.42572e-07
2.27699e-10
1.42496e-07
-2.27088e-10
0.000113527
-1.43275e-07
2.35033e-10
1.43199e-07
-2.34411e-10
0.000118988
-1.43987e-07
2.37446e-10
1.43908e-07
-2.36811e-10
0.000123997
-1.44726e-07
2.4682e-10
1.44647e-07
-2.46171e-10
0.00012814
-1.45468e-07
2.47574e-10
1.45388e-07
-2.46911e-10
0.00013093
-1.46246e-07
2.59754e-10
1.46165e-07
-2.59076e-10
0.00013186
-1.47023e-07
2.59244e-10
1.46941e-07
-2.58551e-10
0.000130489
-1.47843e-07
2.7387e-10
1.47761e-07
-2.73161e-10
0.000126529
-1.48665e-07
2.74333e-10
1.48581e-07
-2.73608e-10
0.000119912
-1.49532e-07
2.89637e-10
1.49448e-07
-2.88894e-10
0.000110823
-1.50413e-07
2.9396e-10
1.50329e-07
-2.93197e-10
9.96764e-05
-1.51336e-07
3.0814e-10
1.5125e-07
-3.07356e-10
8.7055e-05
-1.52286e-07
3.17378e-10
1.52199e-07
-3.1657e-10
7.3627e-05
-1.53252e-07
3.22185e-10
1.53163e-07
-3.2135e-10
6.00568e-05
-1.5426e-07
3.36626e-10
1.54171e-07
-3.35762e-10
4.69354e-05
-1.55285e-07
3.42029e-10
1.55194e-07
-3.41133e-10
3.47395e-05
-1.56363e-07
3.60144e-10
1.56272e-07
-3.59213e-10
2.38185e-05
-1.57466e-07
3.67586e-10
1.57372e-07
-3.66617e-10
1.44038e-05
-1.58625e-07
3.87546e-10
1.58751e-07
-3.86536e-10
6.62956e-06
-1.58624e-07
-2.24851e-13
1.58528e-07
1.27629e-12
5.58292e-07
-1.58628e-07
2.48495e-12
1.58532e-07
-1.38878e-12
-3.80156e-06
-1.58627e-07
-2.07112e-13
1.58528e-07
1.34999e-12
-6.47957e-06
-1.5863e-07
1.95621e-12
1.58531e-07
-7.64814e-13
-7.53497e-06
-1.58628e-07
-2.11145e-13
1.58527e-07
1.45285e-12
-7.0512e-06
-1.58628e-07
1.28165e-12
1.58527e-07
1.20899e-14
-5.1313e-06
-1.58626e-07
-2.29325e-13
1.58523e-07
1.57692e-12
-1.89224e-06
-1.58624e-07
6.51881e-13
1.58521e-07
7.51434e-13
2.54033e-06
-1.58622e-07
-2.56479e-13
1.58516e-07
1.7176e-12
8.0381e-06
-1.58618e-07
9.6629e-14
1.58512e-07
1.42447e-12
1.44762e-05
-1.58616e-07
-2.86359e-13
1.58506e-07
1.86992e-12
2.17371e-05
-1.58611e-07
-3.28435e-13
1.585e-07
1.97714e-12
2.97119e-05
-1.58609e-07
-3.14302e-13
1.58494e-07
2.03122e-12
3.8299e-05
-1.58604e-07
-6.72694e-13
1.58487e-07
2.46097e-12
4.73998e-05
-1.58598e-07
-4.91151e-13
1.5848e-07
2.35442e-12
5.69138e-05
-1.58593e-07
-5.36545e-13
1.58472e-07
2.47857e-12
6.67334e-05
-1.58588e-07
-5.29292e-13
1.58464e-07
2.55456e-12
7.67389e-05
-1.58582e-07
-5.73566e-13
1.58456e-07
2.6862e-12
8.67964e-05
-1.58577e-07
-5.68571e-13
1.58448e-07
2.77375e-12
9.67577e-05
-1.58571e-07
-6.11628e-13
1.58439e-07
2.91402e-12
0.000106464
-1.58565e-07
-6.08595e-13
1.5843e-07
3.01395e-12
0.000115754
-1.58559e-07
-6.5034e-13
1.58421e-07
3.16369e-12
0.00012447
-1.58552e-07
-6.48925e-13
1.58411e-07
3.27647e-12
0.000132475
-1.58546e-07
-6.89182e-13
1.58401e-07
3.4361e-12
0.000139656
-1.58539e-07
-6.89021e-13
1.5839e-07
3.56185e-12
0.000145938
-1.58531e-07
-7.27602e-13
1.58379e-07
3.73149e-12
0.000151293
-1.58524e-07
-7.28361e-13
1.58367e-07
3.87013e-12
0.000155735
-1.58516e-07
-7.65136e-13
1.58355e-07
4.04986e-12
0.000159329
-1.58508e-07
-7.66552e-13
1.58343e-07
4.20145e-12
0.000162176
-1.58499e-07
-8.01486e-13
1.5833e-07
4.39158e-12
0.000164418
-1.5849e-07
-8.03351e-13
1.58316e-07
4.55647e-12
0.000166218
-1.58481e-07
-8.36448e-13
1.58302e-07
4.75756e-12
0.000167759
-1.58471e-07
-8.38516e-13
1.58288e-07
4.93623e-12
0.000169232
-1.58461e-07
-8.69707e-13
1.58273e-07
5.14887e-12
0.000170829
-1.58451e-07
-8.71566e-13
1.58257e-07
5.34166e-12
0.000172733
-1.5844e-07
-9.00579e-13
1.58241e-07
5.56612e-12
0.000175119
-1.58429e-07
-9.01549e-13
1.58224e-07
5.77299e-12
0.000178144
-1.58417e-07
-9.27831e-13
1.58207e-07
6.00911e-12
0.000181943
-1.58405e-07
-9.26905e-13
1.58189e-07
6.22965e-12
0.000186623
-1.58393e-07
-9.49606e-13
1.5817e-07
6.47701e-12
0.00019226
-1.5838e-07
-9.4545e-13
1.5815e-07
6.7108e-12
0.000198889
-1.58367e-07
-9.63454e-13
1.5813e-07
6.96916e-12
0.000206501
-1.58353e-07
-9.54438e-13
1.5811e-07
7.21618e-12
0.000215034
-1.58339e-07
-9.66417e-13
1.58088e-07
7.48582e-12
0.000224377
-1.58324e-07
-9.50632e-13
1.58066e-07
7.74668e-12
0.000234361
-1.58309e-07
-9.55073e-13
1.58043e-07
8.02835e-12
0.000244773
-1.58293e-07
-9.30336e-13
1.58019e-07
8.30383e-12
0.000255357
-1.58277e-07
-9.256e-13
1.57994e-07
8.59794e-12
0.00026583
-1.5826e-07
-8.89492e-13
1.57969e-07
8.88803e-12
0.000275899
-1.58243e-07
-8.73951e-13
1.57943e-07
9.19367e-12
0.000285278
-1.58226e-07
-8.23987e-13
1.57916e-07
9.49671e-12
0.00029371
-1.58208e-07
-7.96342e-13
1.57888e-07
9.81124e-12
0.000300985
-1.58189e-07
-7.30281e-13
1.57859e-07
1.01242e-11
0.000306954
-1.5817e-07
-6.89963e-13
1.57829e-07
1.04442e-11
0.000311539
-1.5815e-07
-6.06097e-13
1.57799e-07
1.07642e-11
0.000314736
-1.5813e-07
-5.53519e-13
1.57768e-07
1.10875e-11
0.000316612
-1.58109e-07
-4.50654e-13
1.57735e-07
1.14137e-11
0.000317292
-1.58088e-07
-3.87095e-13
1.57702e-07
1.17404e-11
0.000316949
-1.58066e-07
-2.64138e-13
1.57668e-07
1.20744e-11
0.000315777
-1.58044e-07
-1.91337e-13
1.57633e-07
1.24065e-11
0.000313976
-1.58022e-07
-4.67172e-14
1.57597e-07
1.2751e-11
0.000311732
-1.57999e-07
3.34726e-14
1.57561e-07
1.30907e-11
0.000309204
-1.57975e-07
2.02204e-13
1.57523e-07
1.34477e-11
0.00030651
-1.57951e-07
2.87816e-13
1.57484e-07
1.37959e-11
0.000303723
-1.57927e-07
4.84115e-13
1.57444e-07
1.41664e-11
0.000300872
-1.57902e-07
5.72781e-13
1.57404e-07
1.45229e-11
0.00029795
-1.57876e-07
8.01075e-13
1.57362e-07
1.49065e-11
0.000294917
-1.5785e-07
8.89548e-13
1.5732e-07
1.52706e-11
0.000291717
-1.57824e-07
1.1552e-12
1.57276e-07
1.56673e-11
0.000288284
-1.57797e-07
1.2389e-12
1.57231e-07
1.6039e-11
0.000284556
-1.5777e-07
1.54829e-12
1.57186e-07
1.64494e-11
0.000280484
-1.57742e-07
1.62091e-12
1.57139e-07
1.68296e-11
0.000276041
-1.57713e-07
1.98172e-12
1.57091e-07
1.72553e-11
0.000271221
-1.57685e-07
2.03491e-12
1.57042e-07
1.76463e-11
0.000266044
-1.57655e-07
2.45663e-12
1.56992e-07
1.80896e-11
0.000260554
-1.57626e-07
2.47966e-12
1.56941e-07
1.84942e-11
0.000254814
-1.57595e-07
2.97419e-12
1.56889e-07
1.89574e-11
0.0002489
-1.57565e-07
2.95351e-12
1.56835e-07
1.93784e-11
0.000242893
-1.57533e-07
3.53591e-12
1.56781e-07
1.98625e-11
0.000236876
-1.57502e-07
3.45451e-12
1.56725e-07
2.03018e-11
0.000230922
-1.57469e-07
4.14373e-12
1.56667e-07
2.08061e-11
0.000225091
-1.57436e-07
3.98036e-12
1.56609e-07
2.12647e-11
0.000219422
-1.57403e-07
4.80008e-12
1.56549e-07
2.17864e-11
0.000213934
-1.57369e-07
4.52839e-12
1.56488e-07
2.22649e-11
0.000208617
-1.57335e-07
5.50902e-12
1.56426e-07
2.27997e-11
0.000203434
-1.573e-07
5.36265e-12
1.56362e-07
2.32996e-11
0.00019832
-1.57265e-07
6.26822e-12
1.56297e-07
2.38427e-11
0.000193181
-1.57229e-07
6.45593e-12
1.5623e-07
2.43665e-11
0.000187898
-1.57193e-07
7.07046e-12
1.56162e-07
2.49152e-11
0.000182325
-1.57156e-07
7.47502e-12
1.56093e-07
2.54667e-11
0.000176294
-1.57119e-07
7.62168e-12
1.56022e-07
2.60224e-11
0.000169621
-1.57081e-07
8.19471e-12
1.55949e-07
2.66072e-11
0.000162112
-1.57042e-07
8.22065e-12
1.55876e-07
2.71774e-11
0.000153571
-1.57004e-07
8.94322e-12
1.558e-07
2.78049e-11
0.000143811
-1.56963e-07
8.87937e-12
1.55723e-07
2.84038e-11
0.000132666
-1.56923e-07
9.71569e-12
1.55644e-07
2.90887e-11
0.000120004
-1.56881e-07
9.60217e-12
1.55563e-07
2.97386e-11
0.000105744
-1.5684e-07
1.05049e-11
1.5548e-07
3.05016e-11
8.98654e-05
-1.56796e-07
1.03856e-11
1.55396e-07
3.12332e-11
7.24234e-05
-1.56752e-07
1.13013e-11
1.55309e-07
3.21e-11
5.35584e-05
-1.56707e-07
1.12148e-11
1.5522e-07
3.29505e-11
3.35015e-05
-1.56661e-07
1.2092e-11
1.55128e-07
3.39483e-11
1.2575e-05
-1.56612e-07
1.20742e-11
1.55033e-07
3.49563e-11
-8.81146e-06
-1.56563e-07
1.28586e-11
1.54935e-07
3.61055e-11
-3.01711e-05
-1.56512e-07
1.29529e-11
1.54834e-07
3.72464e-11
-5.09558e-05
-1.5646e-07
1.37563e-11
1.5473e-07
3.84307e-11
-7.05793e-05
-1.56406e-07
1.40549e-11
1.54623e-07
3.96265e-11
-8.84383e-05
-1.56351e-07
1.4865e-11
1.54513e-07
4.08362e-11
-0.000103945
-1.56294e-07
1.53485e-11
1.54399e-07
4.20606e-11
-0.000116555
-1.56236e-07
1.6173e-11
1.54282e-07
4.32784e-11
-0.000125792
-1.56176e-07
1.67942e-11
1.54162e-07
4.45056e-11
-0.000131278
-1.56116e-07
1.76434e-11
1.54038e-07
4.57223e-11
-0.000132748
-1.56054e-07
1.83361e-11
1.53912e-07
4.69447e-11
-0.000130062
-1.55991e-07
1.92255e-11
1.53782e-07
4.81745e-11
-0.000123218
-1.55926e-07
1.98918e-11
1.53649e-07
4.9419e-11
-0.000112343
-1.55861e-07
2.08676e-11
1.53512e-07
5.07095e-11
-9.76915e-05
-1.55793e-07
2.13643e-11
1.53372e-07
5.20415e-11
-7.962e-05
-1.55725e-07
2.25272e-11
1.53228e-07
5.34644e-11
-5.85659e-05
-1.55654e-07
2.262e-11
1.5308e-07
5.49756e-11
-3.50305e-05
-1.55582e-07
2.41732e-11
1.52928e-07
5.66095e-11
-9.54965e-06
-1.55506e-07
2.37182e-11
1.52771e-07
5.84002e-11
1.73324e-05
-1.55429e-07
2.57699e-11
1.52608e-07
6.03072e-11
4.50797e-05
-1.55348e-07
2.54783e-11
1.52441e-07
6.2276e-11
7.31887e-05
-1.55267e-07
2.7732e-11
1.52268e-07
6.42201e-11
0.000101199
-1.55182e-07
2.77473e-11
1.5209e-07
6.62664e-11
0.000128701
-1.55097e-07
3.02375e-11
1.51906e-07
6.82384e-11
0.000155343
-1.55008e-07
3.0602e-11
1.51718e-07
7.03273e-11
0.000180833
-1.54919e-07
3.33509e-11
1.51523e-07
7.23008e-11
0.000204934
-1.54827e-07
3.4097e-11
1.51324e-07
7.43882e-11
0.000227462
-1.54735e-07
3.71161e-11
1.51119e-07
7.63266e-11
0.000248278
-1.54641e-07
3.82663e-11
1.5091e-07
7.83658e-11
0.000267275
-1.54548e-07
4.15576e-11
1.50695e-07
8.02284e-11
0.000284368
-1.54452e-07
4.31244e-11
1.50476e-07
8.21759e-11
0.00029948
-1.54359e-07
4.66806e-11
1.50252e-07
8.39239e-11
0.000312531
-1.54264e-07
4.86666e-11
1.50024e-07
8.5746e-11
0.000323419
-1.54171e-07
5.24713e-11
1.49791e-07
8.73489e-11
0.00033201
-1.54077e-07
5.48689e-11
1.49555e-07
8.90279e-11
0.000338131
-1.53986e-07
5.88966e-11
1.49315e-07
9.04714e-11
0.000341561
-1.53896e-07
6.16871e-11
1.49072e-07
9.20142e-11
0.00034204
-1.53808e-07
6.59026e-11
1.48826e-07
9.33099e-11
0.000339272
-1.53721e-07
6.90567e-11
1.48576e-07
9.47592e-11
0.000332947
-1.53638e-07
7.34173e-11
1.48324e-07
9.59577e-11
0.000322763
-1.53555e-07
7.68982e-11
1.48069e-07
9.74055e-11
0.00030846
-1.53477e-07
8.13589e-11
1.4781e-07
9.86087e-11
0.000289851
-1.53399e-07
8.51289e-11
1.47548e-07
1.00207e-10
0.00026686
-1.53325e-07
8.96496e-11
1.47283e-07
1.01574e-10
0.000239558
-1.53252e-07
9.36775e-11
1.47014e-07
1.03534e-10
0.000208191
-1.53181e-07
9.82279e-11
1.46739e-07
1.05274e-10
0.000173198
-1.53111e-07
1.02491e-10
1.4646e-07
1.07853e-10
0.000135227
-1.53042e-07
1.07045e-10
1.46173e-07
1.102e-10
9.51275e-05
-1.52972e-07
1.11519e-10
1.45879e-07
1.13668e-10
5.39326e-05
-1.52902e-07
1.16043e-10
1.45575e-07
1.16839e-10
1.28279e-05
-1.52829e-07
1.20684e-10
1.45261e-07
1.21428e-10
-2.6901e-05
-1.52754e-07
1.25087e-10
1.44935e-07
1.25544e-10
-6.39283e-05
-1.52676e-07
1.30615e-10
1.44598e-07
1.30541e-10
-9.69619e-05
-1.52599e-07
1.35997e-10
1.44248e-07
1.34454e-10
-0.000124832
-1.5252e-07
1.42796e-10
1.43889e-07
1.39468e-10
-0.00014656
-1.52442e-07
1.49038e-10
1.43517e-07
1.43106e-10
-0.000161437
-1.52365e-07
1.56971e-10
1.43136e-07
1.48109e-10
-0.000169088
-1.52289e-07
1.6382e-10
1.42744e-07
1.51472e-10
-0.000169498
-1.52215e-07
1.72662e-10
1.42342e-07
1.56556e-10
-0.000163046
-1.52144e-07
1.79818e-10
1.41929e-07
1.59792e-10
-0.000150462
-1.52074e-07
1.89353e-10
1.41507e-07
1.65209e-10
-0.000132786
-1.52006e-07
1.96565e-10
1.41072e-07
1.68601e-10
-0.000111293
-1.5194e-07
2.0664e-10
1.40626e-07
1.74699e-10
-8.74033e-05
-1.51874e-07
2.13722e-10
1.40166e-07
1.78553e-10
-6.25722e-05
-1.5181e-07
2.24238e-10
1.39694e-07
1.85641e-10
-3.81835e-05
-1.51744e-07
2.31037e-10
1.39204e-07
1.90151e-10
-1.54586e-05
-1.51677e-07
2.41915e-10
1.387e-07
1.98382e-10
4.63381e-06
-1.51607e-07
2.48284e-10
1.38176e-07
2.03547e-10
2.14246e-05
-1.51536e-07
2.59693e-10
1.37636e-07
2.12606e-10
3.45664e-05
-1.51463e-07
2.66486e-10
1.37076e-07
2.17302e-10
4.40361e-05
-1.51391e-07
2.79056e-10
1.36502e-07
2.2647e-10
5.01097e-05
-1.51317e-07
2.86016e-10
1.35908e-07
2.30747e-10
5.33056e-05
-1.51244e-07
2.99543e-10
1.35299e-07
2.40086e-10
5.43197e-05
-1.51169e-07
3.06393e-10
1.34672e-07
2.44017e-10
5.39502e-05
-1.51098e-07
3.20704e-10
1.3403e-07
2.53592e-10
5.30166e-05
-1.51024e-07
3.27241e-10
1.33368e-07
2.57233e-10
5.23085e-05
-1.50953e-07
3.4224e-10
1.32694e-07
2.67043e-10
5.25317e-05
-1.5088e-07
3.48364e-10
1.31999e-07
2.70378e-10
5.42535e-05
-1.50812e-07
3.64052e-10
1.31291e-07
2.80309e-10
5.78889e-05
-1.50741e-07
3.69784e-10
1.30563e-07
2.83241e-10
6.37034e-05
-1.50675e-07
3.8627e-10
1.29824e-07
2.93073e-10
7.18173e-05
-1.50608e-07
3.91747e-10
1.29066e-07
2.95462e-10
8.22109e-05
-1.50548e-07
4.09237e-10
1.28298e-07
3.04894e-10
9.47429e-05
-1.50486e-07
4.14687e-10
1.27511e-07
3.06603e-10
0.000109166
-1.50436e-07
4.33454e-10
1.26719e-07
3.15283e-10
0.000125166
-1.50384e-07
4.39142e-10
1.25908e-07
3.16227e-10
0.000142351
-1.50348e-07
4.59472e-10
1.25097e-07
3.23766e-10
0.000160279
-1.50312e-07
4.65639e-10
1.24267e-07
3.23944e-10
0.000178471
-1.50297e-07
4.87775e-10
1.23442e-07
3.29929e-10
0.00019641
-1.50283e-07
4.94578e-10
1.226e-07
3.2946e-10
0.0002136
-1.50295e-07
5.18679e-10
1.21769e-07
3.33463e-10
0.000229565
-1.50309e-07
5.26159e-10
1.2092e-07
3.32631e-10
0.00024387
-1.50356e-07
5.5228e-10
1.2009e-07
3.34227e-10
0.000256181
-1.50405e-07
5.60359e-10
1.19241e-07
3.33517e-10
0.000266295
-1.50494e-07
5.8846e-10
1.1842e-07
3.32286e-10
0.000274142
-1.50582e-07
5.96979e-10
1.17575e-07
3.32399e-10
0.000279783
-1.50719e-07
6.26978e-10
1.16769e-07
3.279e-10
0.000283409
-1.50853e-07
6.35768e-10
1.15933e-07
3.29723e-10
0.000285324
-1.51044e-07
6.67596e-10
1.15147e-07
3.21423e-10
0.000285891
-1.51225e-07
6.76532e-10
1.14322e-07
3.2598e-10
0.000285461
-1.51475e-07
7.10183e-10
1.1356e-07
3.1317e-10
0.000284353
-1.51707e-07
7.19222e-10
1.12747e-07
3.21586e-10
0.000282792
-1.5202e-07
7.54775e-10
1.12014e-07
3.03311e-10
0.000280865
-1.52306e-07
7.63941e-10
1.11214e-07
3.16839e-10
0.00027856
-1.52687e-07
8.0154e-10
1.10513e-07
2.91879e-10
0.000275755
-1.53029e-07
8.10869e-10
1.09726e-07
3.11978e-10
0.000272237
-1.53482e-07
8.50688e-10
1.09061e-07
2.78865e-10
0.000267801
-1.53881e-07
8.60173e-10
1.08286e-07
3.073e-10
0.000262275
-1.54413e-07
9.02345e-10
1.07661e-07
2.64337e-10
0.000255574
-1.5487e-07
9.1192e-10
1.06896e-07
3.03218e-10
0.000247753
-1.55484e-07
9.56509e-10
1.06313e-07
2.48461e-10
0.000239019
-1.56e-07
9.66095e-10
1.05555e-07
3.0025e-10
0.000229743
-1.567e-07
1.01309e-09
1.05019e-07
2.31451e-10
0.000220423
-1.57275e-07
1.02269e-09
1.04263e-07
2.98863e-10
0.000211686
-1.58065e-07
1.07208e-09
1.03774e-07
2.133e-10
0.000204223
-1.587e-07
1.0819e-09
1.03013e-07
2.99303e-10
0.000198685
-1.59586e-07
1.13382e-09
1.02575e-07
1.9361e-10
0.000195691
-1.6028e-07
1.14427e-09
1.01803e-07
3.01437e-10
0.000195781
-1.6127e-07
1.19927e-09
1.01419e-07
1.71262e-10
0.000199326
-1.62026e-07
1.21083e-09
1.00632e-07
3.0477e-10
0.000206507
-1.63131e-07
1.27028e-09
1.00319e-07
1.44486e-10
0.000217333
-1.63944e-07
1.28319e-09
9.95191e-08
3.08515e-10
0.000231635
-1.65167e-07
1.34957e-09
9.93015e-08
1.10578e-10
0.00024907
-1.66033e-07
1.36299e-09
9.84942e-08
3.1178e-10
0.000269152
-1.67401e-07
1.44034e-09
9.84056e-08
6.62515e-11
0.000291292
-1.68321e-07
1.45184e-09
9.7575e-08
3.13593e-10
0.000314815
-1.6987e-07
1.54617e-09
9.76654e-08
7.46751e-12
0.000339039
-1.70837e-07
1.55054e-09
9.68718e-08
3.13778e-10
0.000363341
-1.72623e-07
1.67022e-09
9.73625e-08
-7.00505e-11
0.000387153
-1.73665e-07
1.65875e-09
9.68097e-08
3.10685e-10
0.000410058
-1.75962e-07
1.81485e-09
9.73384e-08
-1.79355e-10
0.000431888
-1.77524e-07
1.77482e-09
9.52601e-08
2.91995e-10
0.000452712
-1.8073e-07
1.98806e-09
9.12255e-08
-3.32219e-10
0.000472909
-1.82312e-07
1.91053e-09
8.6571e-08
2.9994e-10
0.000493237
-1.84679e-07
2.21205e-09
9.24702e-08
-2.17105e-10
0.000514883
-1.79424e-07
2.06674e-09
8.73308e-08
3.32683e-09
0.000539603
-1.75697e-07
2.47874e-09
7.8685e-08
2.90419e-09
0.00056985
-1.70515e-07
2.20065e-09
6.77529e-08
3.47147e-09
0.00060912
-1.66832e-07
2.78482e-09
5.75636e-08
3.21962e-09
0.00066219
-1.43358e-07
-1.57048e-08
4.58181e-08
3.65918e-09
0.000735722
-1.20271e-07
-1.57742e-08
3.47086e-08
3.59255e-09
0.000839173
-9.50138e-08
-1.66807e-08
2.202e-08
4.00899e-09
0.000985775
-6.94222e-08
-1.70065e-08
9.28646e-09
4.12063e-09
0.00119215
-4.17926e-08
-1.7907e-08
-4.97464e-09
4.5227e-09
0.00147745
-1.30134e-08
-1.85704e-08
-1.99991e-08
4.82148e-09
0.00193356
-1.96698e-08
1.81886e-08
5.38977e-09
-3.69208e-08
2.68718e-07
2.65174e-08
-2.67163e-08
8.34804e-07
6.31061e-08
-6.34603e-08
1.4322e-06
8.58982e-08
-8.65296e-08
2.05296e-06
9.70358e-08
-9.75678e-08
2.69643e-06
1.03024e-07
-1.03138e-07
3.36461e-06
1.06804e-07
-1.06709e-07
4.05867e-06
1.09492e-07
-1.09332e-07
4.7792e-06
1.11563e-07
-1.11407e-07
5.5266e-06
1.13247e-07
-1.13096e-07
6.30181e-06
1.1467e-07
-1.14527e-07
7.10639e-06
1.15907e-07
-1.1577e-07
7.94157e-06
1.17006e-07
-1.16872e-07
8.80867e-06
1.18e-07
-1.17869e-07
9.70938e-06
1.18908e-07
-1.18781e-07
1.06448e-05
1.19755e-07
-1.1962e-07
1.16155e-05
1.20538e-07
-1.20405e-07
1.26214e-05
1.21286e-07
-1.21149e-07
1.36625e-05
1.21995e-07
-1.21857e-07
1.47401e-05
1.22672e-07
-1.22534e-07
1.58579e-05
1.23324e-07
-1.23184e-07
1.70202e-05
1.23954e-07
-1.23813e-07
1.82309e-05
1.24565e-07
-1.24423e-07
1.9492e-05
1.25162e-07
-1.25018e-07
2.08053e-05
1.2574e-07
-1.25597e-07
2.21728e-05
1.26315e-07
-1.26167e-07
2.35965e-05
1.26868e-07
-1.26724e-07
2.50786e-05
1.27424e-07
-1.27277e-07
2.66211e-05
1.27971e-07
-1.27822e-07
2.82257e-05
1.28513e-07
-1.28363e-07
2.98939e-05
1.29051e-07
-1.289e-07
3.16283e-05
1.29586e-07
-1.29434e-07
3.34335e-05
1.30119e-07
-1.29966e-07
3.53165e-05
1.30652e-07
-1.30498e-07
3.7287e-05
1.31185e-07
-1.31029e-07
3.93555e-05
1.3172e-07
-1.3156e-07
4.15321e-05
1.3225e-07
-1.32091e-07
4.38247e-05
1.32794e-07
-1.32626e-07
4.62387e-05
1.33312e-07
-1.33153e-07
4.87765e-05
1.33867e-07
-1.33694e-07
5.14384e-05
1.34386e-07
-1.34226e-07
5.42243e-05
1.34951e-07
-1.34777e-07
5.71364e-05
1.35486e-07
-1.35323e-07
6.01818e-05
1.36059e-07
-1.35887e-07
6.33751e-05
1.36623e-07
-1.36454e-07
6.6739e-05
1.37207e-07
-1.37034e-07
7.03013e-05
1.37796e-07
-1.37621e-07
7.40903e-05
1.38398e-07
-1.38219e-07
7.81302e-05
1.39005e-07
-1.38823e-07
8.24374e-05
1.39637e-07
-1.39442e-07
8.70202e-05
1.40209e-07
-1.4003e-07
9.18795e-05
1.4089e-07
-1.40673e-07
9.70063e-05
1.41451e-07
-1.41295e-07
0.000102374
1.42152e-07
-1.41967e-07
0.00010792
1.42833e-07
-1.4265e-07
0.000113526
1.43537e-07
-1.43354e-07
0.000118988
1.44248e-07
-1.44066e-07
0.000123996
1.44989e-07
-1.44806e-07
0.00012814
1.45731e-07
-1.45548e-07
0.000130929
1.4651e-07
-1.46327e-07
0.000131859
1.47287e-07
-1.47104e-07
0.000130488
1.48109e-07
-1.47925e-07
0.000126528
1.48931e-07
-1.48747e-07
0.000119912
1.498e-07
-1.49615e-07
0.000110823
1.50682e-07
-1.50496e-07
9.96759e-05
1.51605e-07
-1.5142e-07
8.70545e-05
1.52556e-07
-1.52371e-07
7.36265e-05
1.53522e-07
-1.53338e-07
6.00562e-05
1.54532e-07
-1.54346e-07
4.69349e-05
1.55557e-07
-1.55372e-07
3.47389e-05
1.56637e-07
-1.5645e-07
2.38179e-05
1.5774e-07
-1.57554e-07
1.44031e-05
1.5912e-07
-1.58714e-07
6.62967e-06
1.58901e-07
-1.58713e-07
5.58385e-07
1.58908e-07
-1.58718e-07
-3.80148e-06
1.58907e-07
-1.58718e-07
-6.47951e-06
1.58912e-07
-1.58721e-07
-7.53492e-06
1.58911e-07
-1.58721e-07
-7.05117e-06
1.58914e-07
-1.58722e-07
-5.13129e-06
1.58913e-07
-1.58721e-07
-1.89225e-06
1.58915e-07
-1.5872e-07
2.5403e-06
1.58913e-07
-1.58719e-07
8.03805e-06
1.58913e-07
-1.58716e-07
1.44761e-05
1.58911e-07
-1.58715e-07
2.1737e-05
1.58909e-07
-1.58711e-07
2.97118e-05
1.58907e-07
-1.58709e-07
3.82989e-05
1.58904e-07
-1.58704e-07
4.73996e-05
1.58901e-07
-1.58701e-07
5.69137e-05
1.58899e-07
-1.58697e-07
6.67333e-05
1.58897e-07
-1.58694e-07
7.67388e-05
1.58894e-07
-1.5869e-07
8.67962e-05
1.58891e-07
-1.58686e-07
9.67575e-05
1.58888e-07
-1.58681e-07
0.000106464
1.58885e-07
-1.58677e-07
0.000115753
1.58882e-07
-1.58672e-07
0.00012447
1.58879e-07
-1.58667e-07
0.000132475
1.58876e-07
-1.58662e-07
0.000139655
1.58872e-07
-1.58657e-07
0.000145938
1.58869e-07
-1.58651e-07
0.000151293
1.58865e-07
-1.58645e-07
0.000155735
1.58862e-07
-1.58639e-07
0.000159328
1.58858e-07
-1.58633e-07
0.000162176
1.58854e-07
-1.58627e-07
0.000164418
1.58851e-07
-1.5862e-07
0.000166218
1.58847e-07
-1.58613e-07
0.000167759
1.58843e-07
-1.58606e-07
0.000169232
1.58839e-07
-1.58599e-07
0.000170829
1.58835e-07
-1.58591e-07
0.000172733
1.5883e-07
-1.58583e-07
0.000175119
1.58826e-07
-1.58574e-07
0.000178144
1.58822e-07
-1.58566e-07
0.000181943
1.58818e-07
-1.58557e-07
0.000186623
1.58813e-07
-1.58548e-07
0.00019226
1.58809e-07
-1.58538e-07
0.000198889
1.58804e-07
-1.58528e-07
0.000206501
1.588e-07
-1.58518e-07
0.000215034
1.58795e-07
-1.58507e-07
0.000224377
1.5879e-07
-1.58497e-07
0.000234361
1.58786e-07
-1.58485e-07
0.000244773
1.58781e-07
-1.58474e-07
0.000255357
1.58776e-07
-1.58462e-07
0.00026583
1.58772e-07
-1.5845e-07
0.000275899
1.58767e-07
-1.58438e-07
0.000285278
1.58762e-07
-1.58425e-07
0.00029371
1.58758e-07
-1.58412e-07
0.000300985
1.58753e-07
-1.58398e-07
0.000306954
1.58749e-07
-1.58385e-07
0.000311539
1.58745e-07
-1.58371e-07
0.000314736
1.58741e-07
-1.58357e-07
0.000316612
1.58737e-07
-1.58342e-07
0.000317293
1.58733e-07
-1.58327e-07
0.00031695
1.5873e-07
-1.58312e-07
0.000315777
1.58726e-07
-1.58297e-07
0.000313976
1.58723e-07
-1.58282e-07
0.000311733
1.5872e-07
-1.58266e-07
0.000309205
1.58718e-07
-1.58251e-07
0.000306511
1.58716e-07
-1.58235e-07
0.000303724
1.58714e-07
-1.58218e-07
0.000300874
1.58712e-07
-1.58202e-07
0.000297951
1.58712e-07
-1.58186e-07
0.000294919
1.58711e-07
-1.58169e-07
0.000291719
1.58711e-07
-1.58152e-07
0.000288285
1.5871e-07
-1.58135e-07
0.000284557
1.58711e-07
-1.58118e-07
0.000280486
1.58712e-07
-1.58101e-07
0.000276043
1.58714e-07
-1.58084e-07
0.000271223
1.58716e-07
-1.58066e-07
0.000266046
1.58719e-07
-1.58049e-07
0.000260557
1.58722e-07
-1.58031e-07
0.000254817
1.58726e-07
-1.58013e-07
0.000248902
1.5873e-07
-1.57995e-07
0.000242896
1.58736e-07
-1.57978e-07
0.000236879
1.5874e-07
-1.5796e-07
0.000230925
1.58748e-07
-1.57942e-07
0.000225094
1.58754e-07
-1.57924e-07
0.000219425
1.58764e-07
-1.57906e-07
0.000213937
1.58776e-07
-1.57887e-07
0.00020862
1.58788e-07
-1.5787e-07
0.000203437
1.58795e-07
-1.57851e-07
0.000198323
1.58806e-07
-1.57834e-07
0.000193185
1.58816e-07
-1.57816e-07
0.000187902
1.5883e-07
-1.57799e-07
0.000182329
1.58846e-07
-1.57782e-07
0.000176298
1.58864e-07
-1.57764e-07
0.000169626
1.58882e-07
-1.57747e-07
0.000162117
1.589e-07
-1.57729e-07
0.000153577
1.58919e-07
-1.57712e-07
0.000143817
1.58938e-07
-1.57694e-07
0.000132672
1.58959e-07
-1.57676e-07
0.000120011
1.58979e-07
-1.57658e-07
0.000105751
1.59002e-07
-1.5764e-07
8.98727e-05
1.59025e-07
-1.57621e-07
7.2431e-05
1.59049e-07
-1.57602e-07
5.35664e-05
1.5907e-07
-1.57583e-07
3.35096e-05
1.59095e-07
-1.57564e-07
1.25832e-05
1.59121e-07
-1.57543e-07
-8.80346e-06
1.59148e-07
-1.57523e-07
-3.01634e-05
1.59176e-07
-1.57501e-07
-5.09487e-05
1.59207e-07
-1.5748e-07
-7.05728e-05
1.5924e-07
-1.57457e-07
-8.84328e-05
1.59274e-07
-1.57435e-07
-0.00010394
1.59308e-07
-1.57411e-07
-0.000116552
1.59344e-07
-1.57388e-07
-0.000125791
1.59381e-07
-1.57365e-07
-0.000131279
1.59421e-07
-1.57341e-07
-0.000132751
1.59462e-07
-1.57317e-07
-0.000130068
1.59505e-07
-1.57294e-07
-0.000123226
1.5955e-07
-1.5727e-07
-0.000112354
1.59597e-07
-1.57246e-07
-9.77045e-05
1.59645e-07
-1.57221e-07
-7.96353e-05
1.59697e-07
-1.57197e-07
-5.85835e-05
1.59749e-07
-1.57171e-07
-3.50501e-05
1.59804e-07
-1.57146e-07
-9.57114e-06
1.59854e-07
-1.57118e-07
1.73094e-05
1.59912e-07
-1.57091e-07
4.50554e-05
1.59969e-07
-1.57061e-07
7.31636e-05
1.60033e-07
-1.57034e-07
0.000101174
1.60096e-07
-1.57003e-07
0.000128675
1.60166e-07
-1.56975e-07
0.000155317
1.60236e-07
-1.56944e-07
0.000180808
1.60314e-07
-1.56917e-07
0.00020491
1.60393e-07
-1.56887e-07
0.00022744
1.6048e-07
-1.56862e-07
0.000248258
1.6057e-07
-1.56835e-07
0.000267257
1.60669e-07
-1.56813e-07
0.000284352
1.60772e-07
-1.56791e-07
0.000299468
1.60885e-07
-1.56773e-07
0.000312522
1.61002e-07
-1.56756e-07
0.000323414
1.6113e-07
-1.56745e-07
0.00033201
1.61264e-07
-1.56736e-07
0.000338135
1.6141e-07
-1.56732e-07
0.000341571
1.61563e-07
-1.56731e-07
0.000342056
1.61728e-07
-1.56737e-07
0.000339294
1.61901e-07
-1.56747e-07
0.000332976
1.62086e-07
-1.56763e-07
0.0003228
1.62281e-07
-1.56783e-07
0.000308504
1.62488e-07
-1.56811e-07
0.000289903
1.62706e-07
-1.56843e-07
0.000266921
1.62936e-07
-1.56882e-07
0.000239627
1.63176e-07
-1.56925e-07
0.000208266
1.6343e-07
-1.56976e-07
0.000173281
1.63695e-07
-1.5703e-07
0.000135315
1.63972e-07
-1.5709e-07
9.5219e-05
1.64261e-07
-1.57153e-07
5.40258e-05
1.64562e-07
-1.57222e-07
1.29206e-05
1.64875e-07
-1.57293e-07
-2.68115e-05
1.652e-07
-1.57367e-07
-6.38449e-05
1.65539e-07
-1.57444e-07
-9.68875e-05
1.65893e-07
-1.57528e-07
-0.00012477
1.66264e-07
-1.57617e-07
-0.000146512
1.66653e-07
-1.57714e-07
-0.000161406
1.67062e-07
-1.57817e-07
-0.000169075
1.67491e-07
-1.57931e-07
-0.000169505
1.67943e-07
-1.58053e-07
-0.000163072
1.68416e-07
-1.58186e-07
-0.000150506
1.68912e-07
-1.58328e-07
-0.000132847
1.69431e-07
-1.58481e-07
-0.000111368
1.69974e-07
-1.58643e-07
-8.74886e-05
1.70539e-07
-1.58816e-07
-6.26642e-05
1.7113e-07
-1.58996e-07
-3.82783e-05
1.71741e-07
-1.59187e-07
-1.5552e-05
1.72379e-07
-1.59383e-07
4.54546e-06
1.73036e-07
-1.59589e-07
2.13444e-05
1.7372e-07
-1.598e-07
3.44966e-05
1.74426e-07
-1.60023e-07
4.39781e-05
1.75162e-07
-1.60253e-07
5.00637e-05
1.7592e-07
-1.60495e-07
5.32709e-05
1.7671e-07
-1.60745e-07
5.42942e-05
1.77524e-07
-1.61009e-07
5.39314e-05
1.7837e-07
-1.61281e-07
5.30013e-05
1.7924e-07
-1.61568e-07
5.22929e-05
1.80144e-07
-1.61863e-07
5.25121e-05
1.81071e-07
-1.62173e-07
5.42262e-05
1.82033e-07
-1.62492e-07
5.78509e-05
1.83018e-07
-1.62826e-07
6.36521e-05
1.8404e-07
-1.63169e-07
7.17509e-05
1.85085e-07
-1.6353e-07
8.21286e-05
1.86169e-07
-1.63901e-07
9.46447e-05
1.87277e-07
-1.64292e-07
0.000109053
1.88427e-07
-1.64695e-07
0.00012504
1.89604e-07
-1.65119e-07
0.000142215
1.90826e-07
-1.65561e-07