/*--------------------------------*- C++ -*----------------------------------*\
| =========                 |                                                 |
| \\      /  F ield         | OpenFOAM: The Open Source CFD Toolbox           |
|  \\    /   O peration     | Version:  2012                                  |
|   \\  /    A nd           | Website:  www.openfoam.com                      |
|    \\/     M anipulation  |                                                 |
\*---------------------------------------------------------------------------*/
FoamFile
{
    version     2.0;
    format      ascii;
    class       volVectorField;
    location    "13700";
    object      U;
}
// * * * * * * * * * * * * * * * * * * * * * * * * * * * * * * * * * * * * * //

dimensions      [0 1 -1 0 0 0 0];


internalField   nonuniform List<vector> 
2560
(
(0.0383708 -2.6993e-05 0.000610678)
(0.0383271 -1.08801e-05 5.51157e-08)
(0.115415 -1.45597e-05 0.000830535)
(0.115285 2.14112e-05 1.96862e-08)
(0.193378 -2.90881e-05 0.000509904)
(0.193163 3.18262e-05 4.98124e-09)
(0.272267 -3.72597e-05 0.000245586)
(0.271974 3.72802e-05 1.22111e-09)
(0.352097 -4.01899e-05 0.000130152)
(0.351731 4.02612e-05 3.55591e-10)
(0.432882 -4.20544e-05 8.09572e-05)
(0.432452 4.19854e-05 6.93974e-11)
(0.514603 -4.32497e-05 5.6768e-05)
(0.514117 4.32821e-05 1.45143e-10)
(0.597214 -4.42545e-05 4.31041e-05)
(0.596679 4.4088e-05 1.21114e-11)
(0.680665 -4.48588e-05 3.45452e-05)
(0.68009 4.49659e-05 1.03427e-10)
(0.764978 -4.56195e-05 2.87679e-05)
(0.764369 4.54008e-05 3.87041e-12)
(0.850247 -4.59599e-05 2.46468e-05)
(0.849611 4.61296e-05 9.27234e-11)
(0.936521 -4.66233e-05 2.15812e-05)
(0.935865 4.6358e-05 3.89354e-36)
(1.02385 -4.68372e-05 1.9225e-05)
(1.02318 4.70298e-05 5.66637e-11)
(1.11234 -4.738e-05 1.73557e-05)
(1.11166 6.03041e-05 4.81333e-08)
(1.202 -4.77342e-05 1.58702e-05)
(1.20132 2.16396e-05 -3.0503e-37)
(1.29277 -4.76692e-05 1.46178e-05)
(1.29209 0.000105216 1.25639e-07)
(1.38456 -4.89257e-05 1.36283e-05)
(1.38388 -4.1727e-05 3.77181e-10)
(1.47726 -4.78153e-05 1.27686e-05)
(1.47659 0.000142274 3.59266e-08)
(1.57091 -4.99052e-05 1.20457e-05)
(1.57025 -5.30631e-05 6.44297e-10)
(1.66578 -4.78015e-05 1.1417e-05)
(1.66513 0.000154763 3.47538e-08)
(1.76223 -5.10184e-05 1.08816e-05)
(1.76159 -6.4315e-05 4.92323e-10)
(1.86049 -4.76527e-05 1.04073e-05)
(1.85987 0.000167029 3.31282e-08)
(1.96065 -5.2188e-05 1.00002e-05)
(1.96005 -7.54434e-05 -1.41624e-21)
(2.06274 -4.72581e-05 9.60829e-06)
(2.06215 0.00020581 1.41903e-07)
(2.16678 -5.35857e-05 9.32106e-06)
(2.16621 -0.00013995 -1.79153e-37)
(2.27284 -4.67083e-05 8.99993e-06)
(2.27228 0.000281399 1.95917e-07)
(2.38095 -5.5266e-05 8.79601e-06)
(2.38042 -0.000226355 1.48886e-09)
(2.49115 -4.58727e-05 8.57086e-06)
(2.49063 0.000336108 6.76953e-08)
(2.60342 -5.7174e-05 8.38826e-06)
(2.60292 -0.000248956 3.19334e-09)
(2.71775 -4.4666e-05 8.2099e-06)
(2.71727 0.00036001 6.95873e-08)
(2.83421 -5.94102e-05 8.0689e-06)
(2.83373 -0.000272325 2.99166e-09)
(2.95301 -4.30485e-05 7.92636e-06)
(2.95255 0.000384253 6.59486e-08)
(3.07461 -6.20715e-05 7.81683e-06)
(3.07416 -0.000295549 1.36397e-09)
(3.19961 -4.09139e-05 7.70237e-06)
(3.19917 0.000408207 6.10621e-08)
(3.32869 -6.5269e-05 7.61818e-06)
(3.32827 -0.000318322 1.06069e-21)
(3.46242 -3.81911e-05 7.48955e-06)
(3.46201 0.000464427 2.19051e-07)
(3.60118 -6.91664e-05 7.46838e-06)
(3.60077 -0.000406832 1.03636e-21)
(3.74507 -3.47957e-05 7.24298e-06)
(3.74467 0.00065325 7.26366e-07)
(3.89398 -7.39978e-05 7.37072e-06)
(3.89359 -0.000697362 -1.01772e-21)
(4.04762 -3.03489e-05 7.12134e-06)
(4.04723 0.000982315 9.49077e-07)
(4.20568 -7.97439e-05 7.32494e-06)
(4.2053 -0.00106796 -5.42502e-37)
(4.36801 -2.51714e-05 7.14283e-06)
(4.36764 0.00131808 7.92107e-07)
(4.53488 -8.61743e-05 7.32502e-06)
(4.53451 -0.00137083 9.94596e-22)
(4.70705 -1.93e-05 7.25696e-06)
(4.70669 0.00154945 4.18132e-07)
(4.88584 -9.32497e-05 7.361e-06)
(4.88548 -0.00153019 -1.9165e-37)
(5.07285 -1.27574e-05 7.35017e-06)
(5.0725 0.00167904 2.51296e-07)
(5.26963 -0.000101033 7.42631e-06)
(5.26927 -0.00162827 9.87027e-22)
(5.47731 -5.47605e-06 7.40549e-06)
(5.47696 0.00179552 3.53228e-07)
(5.69643 -0.000109619 7.52099e-06)
(5.69608 -0.00176191 -1.44577e-37)
(5.92691 2.6163e-06 7.07796e-06)
(5.92656 0.00223371 2.16442e-06)
(6.16816 -0.000118619 7.66192e-06)
(6.16782 -0.002511 0)
(6.41899 1.13384e-05 7.33801e-06)
(6.41867 0.00292261 1.87818e-06)
(6.67706 -0.000127517 7.87656e-06)
(6.67675 -0.00314132 3.17958e-08)
(6.93791 1.98244e-05 7.96665e-06)
(6.93763 0.00332922 6.66536e-07)
(7.19368 -0.000136098 8.25973e-06)
(7.19344 -0.00331932 1.42799e-07)
(7.43164 2.66828e-05 8.46035e-06)
(7.43145 0.00353606 1.21734e-06)
(7.63343 -0.000144662 8.99756e-06)
(7.6333 -0.00355547 3.45391e-07)
(7.77541 3.09095e-05 9.37605e-06)
(7.77537 0.00381067 1.94073e-06)
(7.83076 -0.00015244 1.02233e-05)
(7.83083 -0.00387399 5.53882e-07)
(7.77327 3.30812e-05 1.07687e-05)
(7.77348 0.00415585 2.35489e-06)
(7.58211 -0.000156915 1.17909e-05)
(7.58248 -0.00425128 5.96499e-07)
(7.24655 3.44e-05 1.23669e-05)
(7.24709 0.00452556 1.9926e-06)
(6.76907 -0.000156412 1.3253e-05)
(6.76981 -0.00461119 3.77651e-07)
(6.16619 3.43785e-05 1.36843e-05)
(6.16713 0.00484525 9.47792e-07)
(5.46632 -0.000152119 1.41836e-05)
(5.46748 -0.00488051 0)
(4.70553 3.09961e-05 1.4386e-05)
(4.70692 0.00507339 4.25227e-08)
(3.92244 -0.000146292 1.42786e-05)
(3.92406 -0.00493644 1.03044e-06)
(3.15336 2.36679e-05 1.43401e-05)
(3.15521 0.00508705 2.94752e-07)
(2.42877 -0.000139984 1.40463e-05)
(2.43081 -0.00493172 1.60403e-06)
(1.77155 1.38497e-05 1.40813e-05)
(1.77374 0.00506373 3.72368e-07)
(1.19682 -0.000133128 1.37912e-05)
(1.19909 -0.00491317 1.66603e-06)
(0.712931 3.42824e-06 1.38695e-05)
(0.715166 0.00504716 3.50062e-07)
(0.322912 -0.000125843 8.27735e-07)
(0.324989 -0.000152822 3.94128e-06)
(0.0259996 -5.34689e-06 6.59909e-07)
(0.0277796 0.000243828 3.98006e-07)
(-0.181153 -0.000117933 6.5774e-07)
(-0.179797 -8.35451e-05 9.23481e-07)
(-0.303636 -1.29866e-05 4.98645e-07)
(-0.302766 0.000183848 2.95398e-07)
(-0.347716 -0.000110704 4.97416e-07)
(-0.347351 -3.08314e-05 7.05024e-07)
(-0.320495 -1.98144e-05 3.53703e-07)
(-0.320624 0.000139155 2.17191e-07)
(-0.229639 -0.000104201 3.55715e-07)
(-0.230229 5.8399e-06 4.95949e-07)
(-0.0830804 -2.59836e-05 2.27324e-07)
(-0.0840717 0.000109221 1.48656e-07)
(0.111243 -9.83055e-05 2.34557e-07)
(0.109943 2.89734e-05 3.16008e-07)
(0.345665 -3.16508e-05 1.22139e-07)
(0.344178 9.14141e-05 1.22255e-07)
(0.613062 -9.28271e-05 1.38948e-07)
(0.6115 4.13419e-05 1.71689e-07)
(0.90698 -3.68547e-05 4.42186e-08)
(0.905439 8.28365e-05 1.64857e-07)
(1.22165 -8.76547e-05 7.02584e-08)
(1.2202 4.62216e-05 1.66939e-07)
(1.55189 -4.17362e-05 4.64637e-22)
(1.55057 8.08214e-05 1.99359e-07)
(1.89291 -8.3806e-05 5.85436e-08)
(1.89173 4.57129e-05 1.87994e-07)
(2.2401 -4.41791e-05 6.67213e-08)
(2.23907 8.01384e-05 1.9507e-07)
(2.5888 -8.13747e-05 1.41952e-07)
(2.58791 4.77967e-05 1.98168e-07)
(2.93415 -4.6378e-05 1.74386e-07)
(2.93339 7.82454e-05 2.05393e-07)
(3.27104 -7.92901e-05 2.70905e-07)
(3.27039 4.95735e-05 2.69636e-07)
(3.59409 -4.83974e-05 3.28524e-07)
(3.59355 7.64938e-05 3.30682e-07)
(3.8979 -7.75283e-05 4.40781e-07)
(3.89744 5.10616e-05 4.39806e-07)
(4.17721 -5.02547e-05 5.10347e-07)
(4.17683 7.48706e-05 5.12483e-07)
(4.42734 -7.60008e-05 6.20151e-07)
(4.42703 5.23456e-05 6.1946e-07)
(4.64449 -5.19173e-05 6.79739e-07)
(4.64424 7.34116e-05 6.81865e-07)
(4.82603 -7.46364e-05 7.64049e-07)
(4.82584 5.34931e-05 7.63624e-07)
(4.97083 -5.33113e-05 7.93257e-07)
(4.97069 7.21941e-05 7.95376e-07)
(5.07933 -7.33576e-05 8.38171e-07)
(5.07923 5.45786e-05 8.3799e-07)
(5.15352 -5.44562e-05 8.29829e-07)
(5.15346 7.1201e-05 8.31939e-07)
(5.19685 -7.21358e-05 8.36963e-07)
(5.19681 5.56278e-05 8.37002e-07)
(5.21391 -5.54219e-05 7.99341e-07)
(5.21389 7.03654e-05 8.0144e-07)
(5.2102 -7.10028e-05 7.82594e-07)
(5.2102 5.66066e-05 7.82832e-07)
(5.19175 -5.62662e-05 7.33065e-07)
(5.19176 6.96313e-05 7.35155e-07)
(5.16479 -7.00299e-05 7.09664e-07)
(5.16481 5.74412e-05 7.10088e-07)
(5.13546 -5.70382e-05 6.62816e-07)
(5.13549 6.8952e-05 6.64908e-07)
(5.1096 -6.92134e-05 6.44271e-07)
(5.10962 5.81331e-05 6.44878e-07)
(5.09252 -5.77583e-05 6.07164e-07)
(5.09253 6.83089e-05 6.0928e-07)
(5.08888 -6.85123e-05 5.9757e-07)
(5.08887 5.87214e-05 5.98372e-07)
(5.10259 -5.8413e-05 5.71864e-07)
(5.10257 6.7717e-05 5.74038e-07)
(5.13672 -6.78828e-05 5.72467e-07)
(5.13668 5.92481e-05 5.73489e-07)
(5.19335 -5.89724e-05 5.60821e-07)
(5.19329 6.72078e-05 5.63099e-07)
(5.27354 -6.73258e-05 5.75643e-07)
(5.27347 5.97109e-05 5.76922e-07)
(5.37719 -5.94468e-05 5.83138e-07)
(5.3771 6.67722e-05 5.85576e-07)
(5.50296 -6.68065e-05 6.20365e-07)
(5.50286 6.01432e-05 6.2195e-07)
(5.64824 -5.99121e-05 6.54096e-07)
(5.64813 6.63354e-05 6.56756e-07)
(5.80916 -6.63712e-05 7.16618e-07)
(5.80905 6.04976e-05 7.18561e-07)
(5.9807 -6.03056e-05 7.78824e-07)
(5.98058 6.5961e-05 7.81764e-07)
(6.15687 -6.60056e-05 8.68867e-07)
(6.15676 6.07873e-05 8.71211e-07)
(6.33103 -6.06418e-05 9.60931e-07)
(6.33092 6.56353e-05 9.64197e-07)
(6.49621 -6.56506e-05 1.08268e-06)
(6.49612 6.10706e-05 1.08545e-06)
(6.64562 -6.09014e-05 1.21323e-06)
(6.64554 6.53781e-05 1.21684e-06)
(6.77304 -6.52766e-05 1.38211e-06)
(6.77298 6.13764e-05 1.38531e-06)
(6.87329 -6.10852e-05 1.57411e-06)
(6.87324 6.51895e-05 1.57807e-06)
(6.94258 -6.49077e-05 1.81962e-06)
(6.94255 6.16797e-05 1.82323e-06)
(6.97877 -6.12357e-05 2.1068e-06)
(6.97876 6.50275e-05 2.11108e-06)
(6.98148 -6.46307e-05 2.46096e-06)
(6.98149 6.18932e-05 2.46493e-06)
(6.95202 -6.14299e-05 2.86783e-06)
(6.95205 6.48157e-05 2.87236e-06)
(6.89322 -6.45281e-05 3.34057e-06)
(6.89325 6.19339e-05 3.34481e-06)
(6.80902 -6.1773e-05 3.85308e-06)
(6.80907 6.44494e-05 3.85781e-06)
(6.70416 -6.46076e-05 4.40313e-06)
(6.70422 6.17933e-05 4.4076e-06)
(6.58363 -6.22771e-05 4.94908e-06)
(6.58369 6.39171e-05 4.95397e-06)
(6.45225 -6.48546e-05 5.47128e-06)
(6.45232 6.14857e-05 5.47593e-06)
(6.31433 -6.28122e-05 5.91964e-06)
(6.3144 6.33491e-05 5.92464e-06)
(6.17336 -6.50684e-05 6.27076e-06)
(6.17343 6.12115e-05 6.27556e-06)
(6.03186 -6.32021e-05 6.47974e-06)
(6.03193 6.29217e-05 6.48485e-06)
(5.89134 -6.50691e-05 6.53513e-06)
(5.89141 6.115e-05 6.54007e-06)
(5.7524 -6.3262e-05 6.41537e-06)
(5.75247 6.28202e-05 6.42057e-06)
(5.61488 -6.4734e-05 6.13582e-06)
(5.61496 6.14239e-05 6.14087e-06)
(5.47808 -6.29812e-05 5.70511e-06)
(5.47815 6.30552e-05 5.7104e-06)
(5.34096 -6.41558e-05 5.16362e-06)
(5.34104 6.194e-05 5.16877e-06)
(5.20245 -6.25371e-05 4.54023e-06)
(5.20253 6.345e-05 4.54557e-06)
(5.06157 -6.35518e-05 3.88507e-06)
(5.06165 6.24806e-05 3.89029e-06)
(4.91765 -6.21646e-05 3.22828e-06)
(4.91773 6.37695e-05 3.23365e-06)
(4.77037 -6.31169e-05 2.61187e-06)
(4.77046 6.28507e-05 2.61711e-06)
(4.61989 -6.19994e-05 2.05283e-06)
(4.61998 6.38786e-05 2.05818e-06)
(4.46676 -6.29473e-05 1.57273e-06)
(4.46685 6.29537e-05 1.57795e-06)
(4.31189 -6.2042e-05 1.1712e-06)
(4.31198 6.37768e-05 1.1765e-06)
(4.15645 -6.29641e-05 8.52624e-07)
(4.15655 6.28683e-05 8.57794e-07)
(4.00179 -6.22061e-05 6.04031e-07)
(4.00188 6.35503e-05 6.23138e-07)
(3.84924 -6.3059e-05 4.20399e-07)
(3.84934 6.27026e-05 6.29551e-07)
(3.70008 -6.23831e-05 2.85077e-07)
(3.70018 6.33077e-05 6.34252e-07)
(3.55538 -6.31445e-05 1.91525e-07)
(3.55547 6.2544e-05 6.40691e-07)
(3.41592 -6.25169e-05 1.25058e-07)
(3.41602 6.31051e-05 6.45426e-07)
(3.28217 -6.31824e-05 1.43603e-07)
(3.28227 6.24305e-05 6.51784e-07)
(3.15421 -6.26e-05 1.33533e-07)
(3.1543 6.29499e-05 6.56553e-07)
(3.03173 -6.31767e-05 1.60121e-07)
(3.03182 6.23579e-05 6.62687e-07)
(2.91403 -6.26401e-05 1.53633e-07)
(2.91412 6.28347e-05 6.67511e-07)
(2.80006 -6.31403e-05 1.77002e-07)
(2.80015 6.23133e-05 6.73281e-07)
(2.68842 -6.26645e-05 1.7969e-07)
(2.68851 6.27318e-05 6.78212e-07)
(2.57741 -6.31029e-05 1.93973e-07)
(2.5775 6.22671e-05 6.83546e-07)
(2.46511 -6.26258e-05 2.02133e-07)
(2.46521 6.26889e-05 6.8866e-07)
(2.3494 -6.30851e-05 2.03145e-07)
(2.34951 6.21984e-05 6.93604e-07)
(2.22807 -6.26147e-05 2.15288e-07)
(2.22819 6.26148e-05 6.99026e-07)
(2.09891 -6.30358e-05 2.12874e-07)
(2.09904 6.2158e-05 7.03774e-07)
(1.95981 -6.2601e-05 2.28265e-07)
(1.95996 6.25399e-05 7.09704e-07)
(1.80894 -6.29884e-05 2.23387e-07)
(1.80911 6.21123e-05 7.146e-07)
(1.64481 -6.25838e-05 2.40924e-07)
(1.64501 6.24646e-05 7.21344e-07)
(1.46647 -6.29428e-05 2.34696e-07)
(1.46672 6.2061e-05 7.2689e-07)
(1.27364 -6.25632e-05 2.5308e-07)
(1.27395 6.23887e-05 7.34855e-07)
(1.0668 -6.28988e-05 2.46621e-07)
(1.06721 6.20038e-05 7.41696e-07)
(0.847312 -6.25393e-05 2.6452e-07)
(0.847856 6.23117e-05 7.51354e-07)
(0.617442 -6.2856e-05 2.58732e-07)
(0.618199 6.19406e-05 7.60206e-07)
(0.380392 -6.25113e-05 2.74971e-07)
(0.381441 6.22334e-05 7.71998e-07)
(0.140256 -6.2814e-05 2.70633e-07)
(0.141605 6.18708e-05 7.83525e-07)
(-0.098041 -6.24822e-05 2.84084e-07)
(-0.0966302 6.21574e-05 7.97682e-07)
(-0.329063 -6.27697e-05 2.82067e-07)
(-0.327953 6.17914e-05 8.11092e-07)
(-0.547247 -6.2441e-05 2.95269e-07)
(-0.546482 6.20721e-05 8.24885e-07)
(-0.746861 -6.27304e-05 2.97355e-07)
(-0.746359 6.17105e-05 8.38361e-07)
(-0.922284 -6.23941e-05 3.09987e-07)
(-0.921955 6.19847e-05 8.5157e-07)
(-1.06837 -6.26918e-05 3.15482e-07)
(-1.06816 6.16218e-05 8.64532e-07)
(-1.18076 -6.23415e-05 3.27664e-07)
(-1.18063 6.18952e-05 8.76814e-07)
(-1.25604 -6.26546e-05 3.35372e-07)
(-1.25597 6.15247e-05 8.88755e-07)
(-1.292 -6.22829e-05 3.47281e-07)
(-1.29198 6.1804e-05 8.99966e-07)
(-1.28772 -6.26191e-05 3.55742e-07)
(-1.28775 6.14192e-05 9.10783e-07)
(-1.24356 -6.22199e-05 3.6765e-07)
(-1.24364 6.17095e-05 9.21249e-07)
(-1.1612 -6.25857e-05 3.7494e-07)
(-1.16134 6.13051e-05 9.31502e-07)
(-1.04351 -6.2151e-05 3.87694e-07)
(-1.04371 6.16131e-05 9.42128e-07)
(-0.894351 -6.25561e-05 3.91234e-07)
(-0.894637 6.11805e-05 9.53018e-07)
(-0.718363 -6.20755e-05 4.06616e-07)
(-0.718789 6.15147e-05 9.65043e-07)
(-0.52066 -6.25307e-05 4.0244e-07)
(-0.521313 6.10444e-05 9.78098e-07)
(-0.306662 -6.19933e-05 4.2391e-07)
(-0.307648 6.14131e-05 9.9273e-07)
(-0.081883 -6.2509e-05 4.09971e-07)
(-0.083183 6.08958e-05 1.00945e-06)
(0.148229 -6.19096e-05 4.39053e-07)
(0.147071 6.13166e-05 1.02747e-06)
(0.378921 -6.2481e-05 4.27865e-07)
(0.378111 6.07199e-05 1.0458e-06)
(0.605994 -6.18136e-05 4.59037e-07)
(0.605464 6.12181e-05 1.06299e-06)
(0.825726 -6.24618e-05 4.52708e-07)
(0.825369 6.05315e-05 1.08114e-06)
(1.03497 -6.17072e-05 4.86265e-07)
(1.03472 6.1118e-05 1.09736e-06)
(1.23126 -6.24451e-05 4.85073e-07)
(1.23107 6.03288e-05 1.11474e-06)
(1.41272 -6.15854e-05 5.21068e-07)
(1.41257 6.10217e-05 1.1296e-06)
(1.57803 -6.24374e-05 5.2509e-07)
(1.57791 6.01057e-05 1.14556e-06)
(1.72638 -6.14393e-05 5.7027e-07)
(1.72629 6.09389e-05 1.15856e-06)
(1.85735 -6.24344e-05 6.99412e-07)
(1.85728 5.98674e-05 1.17247e-06)
(1.9708 -6.12736e-05 8.53692e-07)
(1.97074 6.08656e-05 1.18313e-06)
(2.06677 -6.24349e-05 1.0179e-06)
(2.06673 5.96164e-05 1.19448e-06)
(2.14541 -6.10842e-05 1.20566e-06)
(2.14537 6.08076e-05 1.20241e-06)
(2.2068 -6.24457e-05 1.39627e-06)
(2.20678 5.93472e-05 1.37945e-06)
(2.25095 -6.08755e-05 1.60492e-06)
(2.25093 6.0762e-05 1.58738e-06)
(2.27762 -6.24697e-05 1.80589e-06)
(2.27761 5.90587e-05 1.78723e-06)
(2.28636 -6.06614e-05 2.01618e-06)
(2.28636 6.07165e-05 1.99701e-06)
(2.27645 -6.25152e-05 2.20789e-06)
(2.27646 5.87444e-05 2.18786e-06)
(2.24696 -6.04415e-05 2.40187e-06)
(2.24698 6.06737e-05 2.38165e-06)
(2.19683 -6.26033e-05 2.56801e-06)
(2.19686 5.83845e-05 2.54727e-06)
(2.12497 -6.02057e-05 2.73652e-06)
(2.125 6.06449e-05 2.71601e-06)
(2.03044 -6.27397e-05 2.87305e-06)
(2.03049 5.79746e-05 2.85245e-06)
(1.91264 -5.99536e-05 3.01924e-06)
(1.9127 6.06319e-05 2.99941e-06)
(1.77148 -6.29225e-05 3.13677e-06)
(1.77156 5.75168e-05 3.11737e-06)
(1.60758 -5.9664e-05 3.279e-06)
(1.60768 6.06556e-05 3.26099e-06)
(1.42241 -6.315e-05 3.3983e-06)
(1.42253 5.7012e-05 3.38132e-06)
(1.21842 -5.93204e-05 3.55973e-06)
(1.21857 6.07313e-05 3.54483e-06)
(0.999066 -6.34167e-05 3.70158e-06)
(0.999264 5.64631e-05 3.68829e-06)
(0.768798 -5.89194e-05 3.89905e-06)
(0.769067 6.08591e-05 3.8885e-06)
(0.532964 -6.37146e-05 4.07468e-06)
(0.533365 5.58737e-05 4.06624e-06)
(0.297625 -5.84576e-05 4.31134e-06)
(0.298266 6.10375e-05 4.30616e-06)
(0.0693698 -6.4055e-05 4.5137e-06)
(0.070333 5.52264e-05 4.51091e-06)
(-0.144821 -5.79443e-05 4.77445e-06)
(-0.143942 6.12773e-05 4.7752e-06)
(-0.338449 -6.44374e-05 4.98319e-06)
(-0.337944 5.44684e-05 4.97796e-06)
(-0.505735 -5.73498e-05 5.2449e-06)
(-0.505465 6.15832e-05 5.23992e-06)
(-0.641675 -6.494e-05 5.4237e-06)
(-0.641523 5.35778e-05 5.41279e-06)
(-0.742517 -5.66557e-05 5.65922e-06)
(-0.742431 6.19752e-05 5.64958e-06)
(-0.806145 -6.55679e-05 5.78492e-06)
(-0.806103 5.25381e-05 5.76967e-06)
(-0.832226 -5.58673e-05 5.97874e-06)
(-0.832219 6.24531e-05 5.96633e-06)
(-0.822274 -6.63136e-05 6.04558e-06)
(-0.822297 5.13574e-05 6.02805e-06)
(-0.779622 -5.49912e-05 6.20096e-06)
(-0.779674 6.30149e-05 6.18827e-06)
(-0.709122 -6.71755e-05 6.22337e-06)
(-0.709202 5.00365e-05 6.20593e-06)
(-0.616826 -5.39851e-05 6.36652e-06)
(-0.616937 6.37052e-05 6.35607e-06)
(-0.509547 -6.81751e-05 6.36692e-06)
(-0.509696 4.8551e-05 6.3517e-06)
(-0.394388 -5.2827e-05 6.52364e-06)
(-0.394595 6.45456e-05 6.51744e-06)
(-0.278215 -6.93285e-05 6.52181e-06)
(-0.278524 4.6879e-05 6.5102e-06)
(-0.167198 -5.1479e-05 6.71213e-06)
(-0.167672 6.55703e-05 6.71122e-06)
(-0.0665088 -7.0677e-05 6.71327e-06)
(-0.0671194 4.49721e-05 6.70567e-06)
(0.0200007 -4.99096e-05 6.94382e-06)
(0.0194828 6.68106e-05 6.94817e-06)
(0.0901304 -7.22398e-05 6.94337e-06)
(0.0898018 4.28068e-05 6.93717e-06)
(0.143164 -4.80997e-05 7.20905e-06)
(0.142976 6.82501e-05 7.21049e-06)
(0.179703 -7.40588e-05 7.19413e-06)
(0.179602 4.03542e-05 7.1841e-06)
(0.201525 -4.60222e-05 7.49059e-06)
(0.201476 6.99475e-05 7.49074e-06)
(0.211289 -7.61629e-05 7.45226e-06)
(0.211272 3.75671e-05 7.43964e-06)
(0.212213 -4.36542e-05 7.77972e-06)
(0.212214 7.19311e-05 7.78009e-06)
(0.207744 -7.85765e-05 7.71575e-06)
(0.207755 3.44191e-05 7.70147e-06)
(0.201222 -4.09716e-05 8.08147e-06)
(0.201235 7.42293e-05 8.08307e-06)
(0.195692 -8.13259e-05 7.99618e-06)
(0.195699 3.08811e-05 7.98051e-06)
(0.193715 -3.79175e-05 8.41506e-06)
(0.193712 7.69026e-05 8.4182e-06)
(0.197203 -8.44649e-05 8.30687e-06)
(0.197187 2.68968e-05 8.28936e-06)
(0.207408 -3.44613e-05 8.78619e-06)
(0.207378 7.99858e-05 8.79051e-06)
(0.224974 -8.80169e-05 8.65461e-06)
(0.224932 2.24397e-05 8.63416e-06)
(0.249995 -3.05615e-05 9.19954e-06)
(0.249945 8.35274e-05 9.20431e-06)
(0.282073 -9.20344e-05 9.0324e-06)
(0.282018 1.74549e-05 9.00747e-06)
(0.320409 -2.61878e-05 9.63989e-06)
(0.320353 8.7568e-05 9.64438e-06)
(0.363891 -9.6564e-05 9.42436e-06)
(0.363836 1.18923e-05 9.39322e-06)
(0.411239 -2.12848e-05 1.00969e-05)
(0.411188 9.21788e-05 1.01007e-05)
(0.460993 -0.000101662 9.81859e-06)
(0.460946 5.69082e-06 9.7795e-06)
(0.511606 -1.58254e-05 1.0555e-05)
(0.511564 9.74081e-05 1.05583e-05)
(0.561504 -0.000107352 1.0206e-05)
(0.561468 -1.17911e-06 1.01573e-05)
(0.609083 -9.79404e-06 1.1006e-05)
(0.609052 0.000103299 1.10097e-05)
(0.652892 -0.000113666 1.05781e-05)
(0.652867 -8.76004e-06 1.05183e-05)
(0.691632 -3.13753e-06 1.14453e-05)
(0.691612 0.000109938 1.14513e-05)
(0.724197 -0.00012069 1.09176e-05)
(0.724181 -1.71507e-05 1.08455e-05)
(0.749848 4.19924e-06 1.18543e-05)
(0.749837 0.000117417 1.18653e-05)
(0.76828 -0.000128456 1.12142e-05)
(0.768273 -2.64027e-05 1.11285e-05)
(0.779581 1.22391e-05 1.22146e-05)
(0.779578 0.000125801 1.22339e-05)
(0.784217 -0.000137028 1.14404e-05)
(0.784217 -3.66015e-05 1.13399e-05)
(0.782994 2.10296e-05 1.25067e-05)
(0.782996 0.00013518 1.25383e-05)
(0.776986 -0.00014645 1.1588e-05)
(0.776989 -4.78201e-05 1.14711e-05)
(0.767369 3.06159e-05 1.27289e-05)
(0.767374 0.000145643 1.27768e-05)
(0.755234 -0.000156794 1.16569e-05)
(0.75524 -6.01601e-05 1.15211e-05)
(0.74152 4.10574e-05 1.28938e-05)
(0.741527 0.000157297 1.29618e-05)
(0.726879 -0.000168104 1.16742e-05)
(0.726886 -7.37055e-05 1.15164e-05)
(0.711579 5.23922e-05 1.30332e-05)
(0.711586 0.000170227 1.31256e-05)
(0.695623 -0.000180425 1.16779e-05)
(0.695631 -8.85425e-05 1.14942e-05)
(0.678749 6.46886e-05 1.31925e-05)
(0.678757 0.000184558 1.33139e-05)
(0.660486 -0.000193841 1.17004e-05)
(0.660495 -0.000104805 1.1486e-05)
(0.64041 7.80249e-05 1.33972e-05)
(0.64042 0.00020043 1.35531e-05)
(0.618205 -0.000208413 1.17582e-05)
(0.618217 -0.000122611 1.15081e-05)
(0.593774 9.24513e-05 1.36415e-05)
(0.593786 0.000217957 1.38382e-05)
(0.567354 -0.00022421 1.18253e-05)
(0.567368 -0.000142087 1.15339e-05)
(0.539508 0.000108034 1.38858e-05)
(0.539522 0.000237274 1.41301e-05)
(0.511137 -0.000241316 1.1843e-05)
(0.511152 -0.000163385 1.15046e-05)
(0.483372 0.000124848 1.40648e-05)
(0.483387 0.000258522 1.43636e-05)
(0.45756 -0.000259825 1.17433e-05)
(0.457574 -0.000186663 1.13512e-05)
(0.435103 0.000142987 1.41189e-05)
(0.435115 0.000281863 1.4479e-05)
(0.417238 -0.00027985 1.14714e-05)
(0.417247 -0.000212104 1.10177e-05)
(0.405062 0.000162549 1.40132e-05)
(0.405067 0.000307474 1.44418e-05)
(0.399443 -0.000301484 1.10191e-05)
(0.399443 -0.000239886 1.04931e-05)
(0.400849 0.000183632 1.37621e-05)
(0.400845 0.000335552 1.42688e-05)
(0.409338 -0.000324817 1.04161e-05)
(0.409331 -0.000270212 9.80273e-06)
(0.424624 0.000206301 1.34029e-05)
(0.424614 0.000366319 1.40015e-05)
(0.446084 -0.000349911 9.71674e-06)
(0.446071 -0.000303306 8.99382e-06)
(0.472786 0.000230632 1.30015e-05)
(0.472771 0.000400072 1.37144e-05)
(0.503582 -0.00037682 8.9882e-06)
(0.503566 -0.00033946 8.12455e-06)
(0.537194 0.000256634 1.26097e-05)
(0.537179 0.000437147 1.34697e-05)
(0.572252 -0.000405557 8.28721e-06)
(0.572238 -0.00037903 7.24007e-06)
(0.607452 0.000284281 1.22746e-05)
(0.607439 0.00047798 1.33307e-05)
(0.641661 -0.000436098 7.66025e-06)
(0.641649 -0.000422398 6.37102e-06)
(0.673913 0.00031348 1.20208e-05)
(0.673903 0.000523222 1.33325e-05)
(0.703552 -0.000468401 7.13437e-06)
(0.703543 -0.000469952 5.50326e-06)
(0.730385 0.00034391 1.186e-05)
(0.730378 0.000573145 1.34921e-05)
(0.754628 -0.000502665 6.7427e-06)
(0.754621 -0.00052379 4.66477e-06)
(0.776996 0.000375106 1.17932e-05)
(0.77699 0.000624352 1.39761e-05)
(0.798779 -0.000538258 7.16464e-06)
(0.798773 -0.000582801 4.68041e-06)
(0.82189 0.000408125 1.16498e-05)
(0.821883 0.000723042 2.31672e-05)
(0.849002 -0.000569287 7.79992e-06)
(0.848995 -0.000680241 9.16808e-06)
(0.883744 0.000446521 1.11697e-05)
(0.883734 0.000772333 1.31297e-05)
(0.931106 -0.000600498 8.51365e-06)
(0.931095 -0.000744281 9.88211e-06)
(0.997722 0.000484701 1.02456e-05)
(0.997709 0.000818717 1.2056e-05)
(1.09262 -0.000616434 4.53996e-06)
(1.09261 -0.000806331 1.0948e-05)
(1.2284 0.000537225 8.57636e-06)
(1.22838 0.000860837 1.26217e-05)
(1.42231 -0.000629244 3.09341e-06)
(1.4223 -0.000864493 1.24137e-05)
(1.69542 0.000589114 5.95134e-06)
(1.69541 0.000896041 1.38405e-05)
(2.07103 -0.000636297 1.31684e-06)
(2.07103 -0.000917439 1.43062e-05)
(2.67154 0.000637668 2.17337e-06)
(2.67154 0.000922307 1.59283e-05)
(0.038327 -1.08659e-05 -5.50886e-08)
(0.0383708 -2.70453e-05 -0.000609355)
(0.115284 2.14617e-05 -1.97012e-08)
(0.115415 -1.47611e-05 -0.000828736)
(0.193163 3.18994e-05 -5.00008e-09)
(0.193378 -2.94379e-05 -0.000508799)
(0.271973 3.73694e-05 -1.22457e-09)
(0.272267 -3.79004e-05 -0.000245053)
(0.35173 4.03573e-05 -3.56638e-10)
(0.352096 -4.04484e-05 -0.000129869)
(0.432451 4.20858e-05 -6.97764e-11)
(0.432882 -4.21259e-05 -8.07817e-05)
(0.514116 4.33853e-05 -1.45539e-10)
(0.514603 -4.3233e-05 -5.66449e-05)
(0.596677 4.41932e-05 -1.22295e-11)
(0.597213 -4.42474e-05 -4.30107e-05)
(0.680088 4.50728e-05 -1.03191e-10)
(0.680665 -4.48664e-05 -3.44703e-05)
(0.764367 4.55093e-05 -3.92668e-12)
(0.764978 -4.56241e-05 -2.87056e-05)
(0.84961 4.62395e-05 -9.37096e-11)
(0.850247 -4.59827e-05 -2.45934e-05)
(0.935863 4.64685e-05 2.41804e-22)
(0.93652 -4.66381e-05 -2.15345e-05)
(1.02318 4.71424e-05 -5.61551e-11)
(1.02385 -4.68644e-05 -1.91833e-05)
(1.11166 6.04171e-05 -4.81345e-08)
(1.11234 -4.74029e-05 -1.73181e-05)
(1.20132 2.17527e-05 -6.90006e-19)
(1.202 -4.77666e-05 -1.58359e-05)
(1.29209 0.000105331 -1.25638e-07)
(1.29277 -4.76896e-05 -1.4586e-05)
(1.38388 -4.16119e-05 -3.77138e-10)
(1.38456 -4.89533e-05 -1.35988e-05)
(1.47659 0.00014239 -3.59283e-08)
(1.47726 -4.7837e-05 -1.27409e-05)
(1.57025 -5.29468e-05 -6.44512e-10)
(1.57091 -4.99321e-05 -1.20197e-05)
(1.66513 0.00015488 -3.47532e-08)
(1.66578 -4.78248e-05 -1.13923e-05)
(1.76159 -6.41974e-05 -4.92403e-10)
(1.76223 -5.10455e-05 -1.08581e-05)
(1.85987 0.000167147 -3.31296e-08)
(1.86049 -4.76772e-05 -1.03848e-05)
(1.96005 -7.53251e-05 6.49725e-19)
(1.96065 -5.22153e-05 -9.97859e-06)
(2.06215 0.00020593 -1.41905e-07)
(2.06274 -4.72835e-05 -9.5875e-06)
(2.16621 -0.000139831 -1.31809e-21)
(2.16678 -5.36131e-05 -9.30097e-06)
(2.27228 0.00028152 -1.95918e-07)
(2.27283 -4.67343e-05 -8.98046e-06)
(2.38042 -0.000226234 -1.48883e-09)
(2.38095 -5.52937e-05 -8.7771e-06)
(2.49063 0.00033623 -6.76958e-08)
(2.49115 -4.58992e-05 -8.55244e-06)
(2.60292 -0.000248835 -3.19332e-09)
(2.60342 -5.72018e-05 -8.37028e-06)
(2.71726 0.000360133 -6.95873e-08)
(2.71775 -4.46929e-05 -8.19232e-06)
(2.83373 -0.000272203 -2.99178e-09)
(2.8342 -5.94381e-05 -8.05167e-06)
(2.95255 0.000384377 -6.5948e-08)
(2.95301 -4.30757e-05 -7.90945e-06)
(3.07416 -0.000295425 -1.36379e-09)
(3.0746 -6.20995e-05 -7.80019e-06)
(3.19917 0.000408333 -6.10638e-08)
(3.19961 -4.09412e-05 -7.68599e-06)
(3.32826 -0.000318198 -5.67281e-19)
(3.32869 -6.52969e-05 -7.60202e-06)
(3.46201 0.000464554 -2.19052e-07)
(3.46242 -3.82189e-05 -7.47359e-06)
(3.60077 -0.000406707 0)
(3.60118 -6.91961e-05 -7.45258e-06)
(3.74467 0.000653378 -7.26367e-07)
(3.74507 -3.48276e-05 -7.22733e-06)
(3.89359 -0.000697236 -4.20206e-19)
(3.89398 -7.40282e-05 -7.3552e-06)
(4.04723 0.000982444 -9.49078e-07)
(4.04762 -3.03779e-05 -7.10594e-06)
(4.2053 -0.00106783 -2.008e-21)
(4.20567 -7.97731e-05 -7.30963e-06)
(4.36764 0.00131821 -7.92108e-07)
(4.36801 -2.52002e-05 -7.1276e-06)
(4.53451 -0.0013707 -2.87417e-18)
(4.53487 -8.62036e-05 -7.30986e-06)
(4.70668 0.00154958 -4.18133e-07)
(4.70705 -1.93292e-05 -7.24184e-06)
(4.88548 -0.00153006 -9.89047e-22)
(4.88584 -9.32795e-05 -7.34592e-06)
(5.07249 0.00167917 -2.51297e-07)
(5.07285 -1.2787e-05 -7.33511e-06)
(5.26927 -0.00162814 -9.87027e-22)
(5.26963 -0.000101063 -7.41126e-06)
(5.47696 0.00179565 -3.53229e-07)
(5.47731 -5.50602e-06 -7.39044e-06)
(5.69608 -0.00176178 -5.92997e-21)
(5.69643 -0.00010965 -7.50592e-06)
(5.92656 0.00223384 -2.16442e-06)
(5.92691 2.58599e-06 -7.06286e-06)
(6.16782 -0.00251087 -1.98565e-21)
(6.16816 -0.00011865 -7.64678e-06)
(6.41867 0.00292274 -1.87818e-06)
(6.41899 1.13078e-05 -7.32281e-06)
(6.67675 -0.00314119 -3.17952e-08)
(6.67706 -0.000127548 -7.86131e-06)
(6.93763 0.00332936 -6.66536e-07)
(6.93791 1.97934e-05 -7.95132e-06)
(7.19344 -0.00331918 -1.42798e-07)
(7.19368 -0.00013613 -8.24431e-06)
(7.43145 0.0035362 -1.21734e-06)
(7.43164 2.66515e-05 -8.44483e-06)
(7.6333 -0.00355534 -3.45391e-07)
(7.63343 -0.000144694 -8.98194e-06)
(7.77537 0.00381081 -1.94073e-06)
(7.77541 3.08779e-05 -9.36032e-06)
(7.83084 -0.00387386 -5.53882e-07)
(7.83076 -0.000152473 -1.02074e-05)
(7.77348 0.00415599 -2.35489e-06)
(7.77327 3.30492e-05 -1.07528e-05)
(7.58248 -0.00425115 -5.96498e-07)
(7.58212 -0.000156948 -1.17748e-05)
(7.24709 0.0045257 -1.9926e-06)
(7.24655 3.43677e-05 -1.23507e-05)
(6.76981 -0.00461105 -3.7765e-07)
(6.76908 -0.000156446 -1.32366e-05)
(6.16714 0.00484539 -9.47791e-07)
(6.1662 3.43457e-05 -1.36678e-05)
(5.46749 -0.00488037 -2.41325e-18)
(5.46633 -0.000152153 -1.41668e-05)
(4.70693 0.00507354 -4.25237e-08)
(4.70554 3.0963e-05 -1.4369e-05)
(3.92407 -0.0049363 -1.03044e-06)
(3.92245 -0.000146327 -1.42612e-05)
(3.15521 0.0050872 -2.94753e-07)
(3.15337 2.36344e-05 -1.43223e-05)
(2.43082 -0.00493158 -1.60403e-06)
(2.42878 -0.00014002 -1.40281e-05)
(1.77375 0.00506388 -3.72369e-07)
(1.77155 1.38158e-05 -1.40627e-05)
(1.1991 -0.00491302 -1.66603e-06)
(1.19683 -0.000133164 -1.37722e-05)
(0.715174 0.00504731 -3.50064e-07)
(0.712935 3.39393e-06 -1.38499e-05)
(0.324996 -0.000152672 -3.96139e-06)
(0.322915 -0.000125879 -8.27738e-07)
(0.027786 0.000243977 -3.98008e-07)
(0.0260026 -5.38161e-06 -6.59914e-07)
(-0.179792 -8.33931e-05 -9.23482e-07)
(-0.18115 -0.00011797 -6.57743e-07)
(-0.302762 0.000183999 -2.954e-07)
(-0.303634 -1.30217e-05 -4.98651e-07)
(-0.347348 -3.0677e-05 -7.05026e-07)
(-0.347714 -0.000110743 -4.97419e-07)
(-0.320623 0.000139307 -2.17193e-07)
(-0.320494 -1.98499e-05 -3.53709e-07)
(-0.230229 5.99671e-06 -4.95951e-07)
(-0.229638 -0.00010424 -3.55718e-07)
(-0.0840732 0.000109377 -1.48658e-07)
(-0.0830803 -2.60196e-05 -2.27331e-07)
(0.10994 2.91332e-05 -3.16009e-07)
(0.111242 -9.83463e-05 -2.3456e-07)
(0.344174 9.15722e-05 -9.09374e-08)
(0.345664 -3.16874e-05 -1.22147e-07)
(0.611496 4.15049e-05 -1.71692e-07)
(0.61306 -9.28692e-05 -1.38952e-07)
(0.905434 8.29978e-05 -4.67456e-08)
(0.906978 -3.68915e-05 -4.42272e-08)
(1.22019 4.63874e-05 -6.79835e-08)
(1.22165 -8.76983e-05 -7.02606e-08)
(1.55056 8.09864e-05 -7.01735e-08)
(1.55189 -4.17715e-05 1.47441e-20)
(1.89173 4.5882e-05 -5.66638e-08)
(1.89291 -8.38509e-05 -5.85371e-08)
(2.23906 8.03075e-05 -6.90057e-08)
(2.24009 -4.42165e-05 -6.67184e-08)
(2.5879 4.79686e-05 -1.4037e-07)
(2.58879 -8.14211e-05 -1.41943e-07)
(2.93338 7.84203e-05 -1.76597e-07)
(2.93414 -4.64161e-05 -1.74383e-07)
(3.27038 4.97473e-05 -2.69621e-07)
(3.27103 -7.93382e-05 -2.70895e-07)
(3.59354 7.66756e-05 -3.30693e-07)
(3.59409 -4.84359e-05 -3.28522e-07)
(3.89743 5.12377e-05 -4.3979e-07)
(3.89789 -7.75783e-05 -4.4077e-07)
(4.17683 7.50599e-05 -5.12496e-07)
(4.17721 -5.02934e-05 -5.10346e-07)
(4.42703 5.2524e-05 -6.19441e-07)
(4.42734 -7.6053e-05 -6.20139e-07)
(4.64423 7.36092e-05 -6.81881e-07)
(4.64448 -5.19562e-05 -6.7974e-07)
(4.82583 5.36738e-05 -7.63603e-07)
(4.82603 -7.46913e-05 -7.64035e-07)
(4.97068 7.24011e-05 -7.95396e-07)