/*--------------------------------*- C++ -*----------------------------------*\
| =========                 |                                                 |
| \\      /  F ield         | OpenFOAM: The Open Source CFD Toolbox           |
|  \\    /   O peration     | Version:  2012                                  |
|   \\  /    A nd           | Website:  www.openfoam.com                      |
|    \\/     M anipulation  |                                                 |
\*---------------------------------------------------------------------------*/
FoamFile
{
    version     2.0;
    format      ascii;
    class       volScalarField;
    location    "19000";
    object      k;
}
// * * * * * * * * * * * * * * * * * * * * * * * * * * * * * * * * * * * * * //

dimensions      [0 2 -2 0 0 0 0];


internalField   nonuniform List<scalar> 
2560
(
0.000400628
0.000400628
0.0075978
0.0075978
0.054295
0.054295
0.198074
0.198074
0.498948
0.498948
0.970627
0.970627
1.54963
1.54963
2.15381
2.15381
2.73894
2.73894
3.29265
3.29265
3.8155
3.8155
4.3115
4.3115
4.78487
4.78487
5.23929
5.23929
5.67772
5.67772
6.10249
6.10249
6.51545
6.51545
6.91802
6.91802
7.3113
7.3113
7.69613
7.69613
8.07312
8.07312
8.44266
8.44266
8.80501
8.80501
9.16024
9.16024
9.50831
9.50831
9.84904
9.84904
10.1821
10.1821
10.5071
10.5071
10.8235
10.8235
11.1307
11.1307
11.4279
11.4279
11.7143
11.7143
11.989
11.989
12.251
12.251
12.4992
12.4992
12.7326
12.7326
12.95
12.95
13.1502
13.1502
13.332
13.332
13.4943
13.4943
13.636
13.636
13.7559
13.7559
13.853
13.853
13.9266
13.9266
13.9758
13.9758
14
14
13.9989
13.9989
13.9723
13.9723
13.9201
13.9201
13.8427
13.8427
13.7408
13.7408
13.6151
13.6151
13.4668
13.4668
13.2974
13.2974
13.1088
13.1088
12.9028
12.9028
12.682
12.682
12.4489
12.4489
12.2062
12.2062
11.957
11.957
11.7043
11.7043
11.4512
11.4512
11.201
11.201
10.9566
10.9566
10.7209
10.7209
10.4967
10.4967
10.2863
10.2863
10.0917
10.0917
9.91447
9.91447
9.75582
9.75582
9.61636
9.61636
9.49624
9.49624
9.39517
9.39517
9.3123
9.3123
9.24643
9.24643
9.196
9.196
9.15921
9.15921
9.13406
9.13406
9.11844
9.11844
9.1102
9.1102
9.10725
9.10725
9.10758
9.10758
9.10934
9.10934
9.11085
9.11085
9.11062
9.11062
9.1074
9.1074
9.10013
9.10013
9.08796
9.08796
9.07024
9.07024
9.04648
9.04648
9.01636
9.01636
8.97969
8.97969
8.9364
8.9364
8.88651
8.88651
8.83013
8.83013
8.76742
8.76742
8.69861
8.69861
8.62395
8.62395
8.54372
8.54372
8.45822
8.45822
8.36779
8.36779
8.27274
8.27274
8.1734
8.1734
8.07011
8.07011
7.9632
7.9632
7.85297
7.85297
7.73976
7.73976
7.62388
7.62388
7.50561
7.50561
7.38524
7.38524
7.26307
7.26307
7.13934
7.13934
7.01432
7.01432
6.88824
6.88824
6.76134
6.76134
6.63383
6.63383
6.50591
6.50591
6.37779
6.37779
6.24963
6.24963
6.12161
6.12161
5.99388
5.99388
5.86659
5.86659
5.73986
5.73986
5.61383
5.61383
5.48859
5.48859
5.36427
5.36427
5.24094
5.24094
5.11869
5.11869
4.9976
4.9976
4.87773
4.87773
4.75916
4.75916
4.64193
4.64193
4.5261
4.5261
4.41173
4.41173
4.29884
4.29884
4.18749
4.18749
4.07771
4.07771
3.96953
3.96953
3.86298
3.86298
3.75809
3.75809
3.65488
3.65488
3.55337
3.55337
3.45357
3.45357
3.35552
3.35552
3.25921
3.25921
3.16467
3.16467
3.07189
3.07189
2.98091
2.98091
2.89172
2.89172
2.80433
2.80433
2.71876
2.71876
2.63502
2.63502
2.55311
2.55311
2.47305
2.47305
2.39483
2.39483
2.31848
2.31848
2.24399
2.24399
2.17138
2.17138
2.10065
2.10065
2.03179
2.03179
1.96482
1.96482
1.89972
1.89972
1.83647
1.83647
1.77507
1.77507
1.71548
1.71548
1.65767
1.65767
1.6016
1.6016
1.54724
1.54724
1.49452
1.49452
1.4434
1.4434
1.39383
1.39383
1.34576
1.34576
1.29914
1.29914
1.25392
1.25392
1.21008
1.21008
1.16758
1.16758
1.12639
1.12639
1.08648
1.08648
1.04784
1.04784
1.01045
1.01045
0.974289
0.974289
0.939332
0.939332
0.905563
0.905563
0.872958
0.872958
0.841493
0.841493
0.811142
0.811142
0.781877
0.781877
0.753669
0.753669
0.726492
0.726492
0.700318
0.700318
0.675122
0.675122
0.650884
0.650884
0.627584
0.627584
0.605208
0.605208
0.583742
0.583742
0.563174
0.563174
0.543493
0.543493
0.52469
0.524689
0.506754
0.506754
0.489676
0.489676
0.473446
0.473446
0.45805
0.45805
0.443473
0.443473
0.429697
0.429697
0.4167
0.4167
0.404457
0.404457
0.392937
0.392937
0.38211
0.38211
0.37194
0.37194
0.362396
0.362396
0.353445
0.353445
0.345059
0.345059
0.337207
0.337207
0.329861
0.329861
0.322987
0.322987
0.316549
0.316549
0.310505
0.310505
0.30481
0.30481
0.299413
0.299413
0.29426
0.29426
0.289292
0.289292
0.284454
0.284454
0.2797
0.2797
0.275001
0.275001
0.270342
0.270342
0.265728
0.265728
0.261167
0.261167
0.256672
0.256672
0.252245
0.252245
0.247875
0.247875
0.243542
0.243542
0.239219
0.239219
0.234886
0.234886
0.230529
0.230529
0.226145
0.226145
0.221739
0.221739
0.217324
0.217324
0.212923
0.212923
0.208571
0.208571
0.204312
0.204312
0.200195
0.200195
0.196259
0.196259
0.192532
0.192532
0.18902
0.18902
0.185711
0.185711
0.182572
0.182572
0.179551
0.179551
0.17657
0.17657
0.173537
0.173537
0.170363
0.170363
0.166992
0.166992
0.163426
0.163426
0.15972
0.15972
0.155966
0.155966
0.152273
0.152273
0.148735
0.148735
0.145411
0.145411
0.142323
0.142323
0.139461
0.139461
0.136806
0.136806
0.134348
0.134348
0.132104
0.132104
0.130107
0.130107
0.128391
0.128391
0.126959
0.126959
0.12579
0.12579
0.12484
0.12484
0.124069
0.124069
0.12345
0.12345
0.12297
0.12297
0.122637
0.122637
0.122475
0.122475
0.122521
0.122521
0.122811
0.122811
0.123362
0.123362
0.12417
0.12417
0.125197
0.125197
0.126386
0.126386
0.127654
0.127654
0.128913
0.128913
0.13009
0.13009
0.131115
0.131115
0.131895
0.131895
0.132287
0.132287
0.132124
0.132124
0.131277
0.131277
0.129706
0.129706
0.127453
0.127453
0.124619
0.124619
0.121377
0.121377
0.117981
0.117981
0.114668
0.114668
0.11155
0.11155
0.108624
0.108624
0.105884
0.105884
0.103343
0.103343
0.100971
0.100971
0.0986881
0.0986882
0.0964288
0.0964288
0.094188
0.094188
0.0920135
0.0920135
0.0899663
0.0899663
0.0880873
0.0880873
0.0863945
0.0863945
0.0848885
0.0848885
0.0835182
0.0835182
0.082166
0.0821661
0.0806989
0.0806989
0.0790615
0.0790616
0.0773193
0.0773193
0.0755925
0.0755926
0.073967
0.073967
0.0724799
0.07248
0.0711543
0.0711544
0.0700088
0.0700089
0.0690446
0.0690449
0.0682597
0.0682601
0.0676682
0.0676687
0.0672586
0.0672591
0.0670373
0.0670379
0.000400629
0.000400629
0.00759781
0.00759781
0.0542951
0.0542951
0.198075
0.198075
0.498948
0.498948
0.970628
0.970628
1.54963
1.54963
2.15382
2.15382
2.73894
2.73894
3.29265
3.29265
3.81551
3.81551
4.3115
4.3115
4.78488
4.78488
5.2393
5.2393
5.67772
5.67772
6.10249
6.10249
6.51545
6.51545
6.91802
6.91802
7.31131
7.31131
7.69614
7.69614
8.07312
8.07312
8.44266
8.44266
8.80501
8.80501
9.16025
9.16025
9.50832
9.50832
9.84904
9.84904
10.1821
10.1821
10.5071
10.5071
10.8235
10.8235
11.1307
11.1307
11.4279
11.4279
11.7143
11.7143
11.989
11.989
12.251
12.251
12.4992
12.4992
12.7326
12.7326
12.95
12.95
13.1502
13.1502
13.332
13.332
13.4943
13.4943
13.636
13.636
13.7559
13.7559
13.8531
13.8531
13.9266
13.9266
13.9758
13.9758
14.0001
14.0001
13.9989
13.9989
13.9723
13.9723
13.9201
13.9201
13.8428
13.8428
13.7408
13.7408
13.6151
13.6151
13.4668
13.4668
13.2975
13.2975
13.1088
13.1088
12.9029
12.9029
12.682
12.682
12.4489
12.4489
12.2062
12.2062
11.957
11.957
11.7043
11.7043
11.4512
11.4512
11.201
11.201
10.9566
10.9566
10.7209
10.7209
10.4967
10.4967
10.2863
10.2863
10.0917
10.0917
9.91448
9.91448
9.75583
9.75583
9.61637
9.61637
9.49625
9.49625
9.39518
9.39518
9.31231
9.31231
9.24643
9.24643
9.19601
9.19601
9.15922
9.15922
9.13407
9.13407
9.11844
9.11844
9.1102
9.1102
9.10725
9.10725
9.10759
9.10759
9.10934
9.10934
9.11085
9.11085
9.11063
9.11063
9.10741
9.10741
9.10013
9.10013
9.08797
9.08797
9.07024
9.07024
9.04648
9.04648
9.01636
9.01636
8.97969
8.97969
8.9364
8.9364
8.88652
8.88652
8.83013
8.83013
8.76743
8.76743
8.69862
8.69862
8.62395
8.62395
8.54372
8.54372
8.45823
8.45823
8.3678
8.3678
8.27275
8.27275
8.17341
8.17341
8.07012
8.07012
7.9632
7.9632
7.85298
7.85298
7.73977
7.73977
7.62388
7.62388
7.50561
7.50561
7.38525
7.38525
7.26307
7.26307
7.13934
7.13934
7.01432
7.01432
6.88824
6.88824
6.76134
6.76134
6.63383
6.63383
6.50592
6.50592
6.37779
6.37779
6.24964
6.24964
6.12161
6.12161
5.99388
5.99388
5.86659
5.86659
5.73986
5.73986
5.61383
5.61383
5.4886
5.4886
5.36427
5.36427
5.24094
5.24094
5.11869
5.11869
4.9976
4.9976
4.87773
4.87773
4.75916
4.75916
4.64193
4.64193
4.52611
4.52611
4.41173
4.41173
4.29884
4.29884
4.18749
4.18749
4.07771
4.07771
3.96953
3.96953
3.86298
3.86298
3.75809
3.75809
3.65488
3.65488
3.55337
3.55337
3.45358
3.45358
3.35552
3.35552
3.25921
3.25921
3.16467
3.16467
3.0719
3.0719
2.98091
2.98091
2.89172
2.89172
2.80433
2.80433
2.71877
2.71877
2.63502
2.63502
2.55311
2.55311
2.47305
2.47305
2.39483
2.39483
2.31848
2.31848
2.24399
2.24399
2.17138
2.17138
2.10065
2.10065
2.03179
2.03179
1.96482
1.96482
1.89972
1.89972
1.83647
1.83647
1.77507
1.77507
1.71548
1.71548
1.65767
1.65767
1.6016
1.6016
1.54724
1.54724
1.49452
1.49452
1.4434
1.4434
1.39383
1.39383
1.34576
1.34576
1.29914
1.29914
1.25392
1.25392
1.21008
1.21008
1.16758
1.16758
1.12639
1.12639
1.08648
1.08648
1.04784
1.04784
1.01045
1.01045
0.974288
0.974288
0.939332
0.939332
0.905562
0.905562
0.872957
0.872957
0.841492
0.841492
0.811141
0.811141
0.781876
0.781876
0.753669
0.753669
0.726492
0.726492
0.700317
0.700317
0.675122
0.675122
0.650883
0.650883
0.627583
0.627583
0.605207
0.605207
0.583741
0.583741
0.563173
0.563173
0.543492
0.543492
0.524688
0.524688
0.506753
0.506753
0.489675
0.489675
0.473445
0.473445
0.458049
0.458049
0.443472
0.443472
0.429695
0.429695
0.416698
0.416698
0.404455
0.404455
0.392935
0.392935
0.382108
0.382108
0.371938
0.371938
0.362393
0.362393
0.353442
0.353442
0.345056
0.345056
0.337204
0.337204
0.329858
0.329858
0.322984
0.322984
0.316546
0.316546
0.310501
0.310501
0.304806
0.304806
0.29941
0.29941
0.294256
0.294256
0.289288
0.289288
0.28445
0.28445
0.279697
0.279697
0.274997
0.274997
0.270339
0.270339
0.265725
0.265725
0.261164
0.261164
0.256669
0.256669
0.252242
0.252242
0.247873
0.247873
0.24354
0.24354
0.239217
0.239217
0.234884
0.234884
0.230527
0.230527
0.226143
0.226143
0.221738
0.221738
0.217323
0.217323
0.212921
0.212921
0.208569
0.208569
0.204311
0.204311
0.200194
0.200194
0.196258
0.196258
0.19253
0.19253
0.189018
0.189018
0.18571
0.18571
0.182571
0.182571
0.17955
0.17955
0.176569
0.176569
0.173537
0.173537
0.170363
0.170363
0.166993
0.166993
0.163427
0.163427
0.159721
0.159721
0.155968
0.155968
0.152274
0.152274
0.148737
0.148737
0.145413
0.145413
0.142324
0.142324
0.139463
0.139463
0.136808
0.136808
0.13435
0.13435
0.132105
0.132105
0.130108
0.130108
0.128391
0.128391
0.126959
0.126959
0.125789
0.125789
0.124839
0.124839
0.124068
0.124068
0.123449
0.123449
0.122969
0.122969
0.122636
0.122636
0.122473
0.122473
0.122519
0.122519
0.122808
0.122808
0.123358
0.123358
0.124165
0.124164
0.125191
0.125191
0.126378
0.126378
0.127645
0.127645
0.128904
0.128904
0.130081
0.130081
0.131107
0.131107
0.131888
0.131888
0.132281
0.132281
0.13212
0.13212
0.131276
0.131276
0.129708
0.129708
0.127457
0.127457
0.124623
0.124623
0.121382
0.121382
0.117985
0.117985
0.114671
0.114671
0.111552
0.111553
0.108625
0.108625
0.105885
0.105885
0.103343
0.103343
0.100971
0.100971
0.0986878
0.0986879
0.0964288
0.0964289
0.0941883
0.0941884
0.0920138
0.0920139
0.0899662
0.0899664
0.0880865
0.0880867
0.0863929
0.086393
0.0848858
0.0848859
0.0835149
0.083515
0.0821631
0.0821632
0.0806971
0.0806972
0.0790612
0.0790613
0.07732
0.0773202
0.0755937
0.0755939
0.0739681
0.0739682
0.0724806
0.0724807
0.0711545
0.0711544
0.0700084
0.0700083
0.069044
0.0690438
0.0682588
0.0682586
0.067667
0.0676668
0.0672573
0.067257
0.067036
0.0670357
0.0670323
0.0670329
0.0672438
0.0672443
0.0676434
0.0676438
0.0682213
0.0682217
0.0689925
0.0689928
0.0699445
0.0699447
0.0710779
0.0710781
0.0723916
0.0723916
0.0738642
0.0738642
0.0754672
0.0754672
0.0771699
0.0771699
0.0788945
0.0788945
0.0805218
0.0805218
0.0819899
0.0819899
0.0833614
0.0833614
0.0847638
0.0847638
0.0863032
0.0863032
0.088028
0.088028
0.089938
0.089938
0.0920151
0.0920152
0.0942148
0.0942148
0.0964744
0.0964744
0.0987483
0.0987483
0.101048
0.101048
0.103442
0.103442
0.106005
0.106005
0.108766
0.108766
0.111714
0.111714
0.114854
0.114854
0.11819
0.11819
0.121612
0.121612
0.124878
0.124878
0.127721
0.127721
0.129965
0.129965
0.131509
0.131509
0.132313
0.132313
0.13244
0.13244
0.132027
0.132027
0.131239
0.131239
0.130212
0.130212
0.129036
0.129036
0.127777
0.127777
0.12651
0.12651
0.125321
0.125321
0.124292
0.124292
0.123482
0.123482
0.122929
0.122929
0.122637
0.122637
0.122587
0.122587
0.122745
0.122745
0.123071
0.123071
0.123541
0.123541
0.124154
0.124154
0.124918
0.124918
0.125859
0.125859
0.127017
0.127017
0.128438
0.128438
0.130144
0.130144
0.13213
0.13213
0.134366
0.134366
0.136817
0.136817
0.139463
0.139463
0.142313
0.142313
0.145387
0.145387
0.148693
0.148693
0.152213
0.152213
0.155892
0.155892
0.159638
0.159638
0.163335
0.163335
0.166887
0.166887
0.170237
0.170237
0.173397
0.173397
0.176426
0.176426
0.17941
0.17941
0.182443
0.182443
0.185602
0.185602
0.188933
0.188933
0.192466
0.192466
0.196206
0.196206
0.200144
0.200144
0.204257
0.204257
0.208508
0.208508
0.212852
0.212852
0.217245
0.217245
0.221654
0.221654
0.226053
0.226053
0.230434
0.230434
0.234793
0.234793
0.239128
0.239128
0.243453
0.243453
0.247796
0.247796
0.252179
0.252179
0.256624
0.256624
0.261143
0.261143
0.265729
0.265729
0.270363
0.270363
0.275033
0.275033
0.279741
0.279741
0.2845
0.2845
0.28934
0.28934
0.294314
0.294314
0.299474
0.299475
0.304876
0.304876
0.310573
0.310573
0.316613
0.316613
0.323042
0.323042
0.329904
0.329904
0.337239
0.337239
0.345077
0.345077
0.353453
0.353453
0.362397
0.362397
0.371938
0.371938
0.382106
0.382106
0.392934
0.392934
0.404455
0.404455
0.416699
0.416699
0.429698
0.429698
0.443478
0.443478
0.458058
0.458058
0.473456
0.473456
0.489688
0.489688
0.506765
0.506765
0.5247
0.5247
0.543504
0.543504
0.563186
0.563186
0.583755
0.583755
0.60522
0.60522
0.627595
0.627595
0.650895
0.650895
0.675135
0.675135
0.700334
0.700334
0.726509
0.726509
0.753685
0.753685
0.781888
0.781888
0.81115
0.81115
0.841498
0.841498
0.872959
0.872959
0.905561
0.905561
0.93933
0.93933
0.974285
0.974285
1.01045
1.01045
1.04784
1.04784
1.08648
1.08648
1.12638
1.12638
1.16758
1.16758
1.21008
1.21008
1.25393
1.25393
1.29914
1.29914
1.34576
1.34576
1.39383
1.39383
1.4434
1.4434
1.49453
1.49453
1.54725
1.54725
1.60163
1.60163
1.65769
1.65769
1.71551
1.71551
1.7751
1.7751
1.8365
1.8365
1.89975
1.89975
1.96485
1.96485
2.03182
2.03182
2.10067
2.10067
2.1714
2.1714
2.24401
2.24401
2.3185
2.3185
2.39485
2.39485
2.47306
2.47306
2.55313
2.55313
2.63504
2.63504
2.71878
2.71878
2.80434
2.80434
2.89173
2.89173
2.98092
2.98092
3.0719
3.0719
3.16468
3.16468
3.25923
3.25923
3.35554
3.35554
3.45361
3.45361
3.55341
3.55341
3.65494
3.65494
3.75817
3.75817
3.86308
3.86308
3.96966
3.96966
4.07786
4.07786
4.18767
4.18767
4.29903
4.29903
4.41192
4.41192
4.52632
4.52632
4.64216
4.64216
4.7594
4.7594
4.87799
4.87799
4.9979
4.9979
5.11903
5.11903
5.24131
5.24131
5.36465
5.36465
5.489
5.489
5.61425
5.61425
5.74028
5.74028
5.86699
5.86699
5.99428
5.99428
6.12199
6.12199
6.24998
6.24998
6.3781
6.3781
6.50616
6.50616
6.63397
6.63397
6.76138
6.76138
6.88821
6.88821
7.01424
7.01424
7.13924
7.13924
7.26294
7.26294
7.38509
7.38509
7.50545
7.50545
7.62371
7.62371
7.73958
7.73958
7.85279
7.85279
7.96301
7.96301
8.06986
8.06986
8.1731
8.1731
8.27243
8.27243
8.36749
8.36749
8.45795
8.45795
8.5435
8.5435
8.62383
8.62383
8.69859
8.69859
8.76747
8.76747
8.83023
8.83023
8.88659
8.88659
8.93636
8.93636
8.97941
8.97941
9.01571
9.01571
9.04547
9.04547
9.06899
9.06899
9.08663
9.08663
9.09877
9.09877
9.10597
9.10597
9.10911
9.10911
9.1092
9.1092
9.1075
9.1075
9.10552
9.10552
9.10498
9.10498
9.10771
9.10771
9.11578
9.11578
9.13129
9.13129
9.15636
9.15636
9.19312
9.19312
9.24355
9.24355
9.30941
9.30941
9.39225
9.39225
9.49327
9.49327
9.61335
9.61335
9.75276
9.75276
9.91138
9.91138
10.0886
10.0886
10.2831
10.2831
10.4936
10.4936
10.7178
10.7178
10.9535
10.9535
11.1979
11.1979
11.4481
11.4481
11.7011
11.7011
11.9538
11.9538
12.203
12.203
12.4458
12.4458
12.6791
12.6791
12.9002
12.9002
13.1063
13.1063
13.2952
13.2952
13.465
13.465
13.6137
13.6137
13.7397
13.7397
13.8418
13.8418
13.9194
13.9194
13.9719
13.9719
13.9989
13.9989
14.0003
14.0003
13.9763
13.9763
13.9274
13.9274
13.854
13.854
13.757
13.757
13.6373
13.6373
13.4958
13.4958
13.3336
13.3336
13.1518
13.1518
12.9516
12.9516
12.7343
12.7343
12.5009
12.5009
12.2526
12.2526
11.9906
11.9906
11.7158
11.7158
11.4293
11.4293
11.1321
11.1321
10.8249
10.8249
10.5085
10.5085
10.1835
10.1835
9.85038
9.85038
9.50963
9.50963
9.16152
9.16152
8.80623
8.80623
8.44382
8.44382
8.07421
8.07421
7.69715
7.69715
7.31225
7.31225
6.91891
6.91891
6.51628
6.51628
6.10326
6.10326
5.67844
5.67844
5.23996
5.23996
4.78549
4.78549
4.31206
4.31206
3.81602
3.81602
3.29311
3.29311
2.73934
2.73934
2.15416
2.15416
1.5499
1.5499
0.970814
0.970814
0.499052
0.499052
0.198117
0.198117
0.0543068
0.0543068
0.00759942
0.00759943
0.000400701
0.000400701
0.067031
0.0670307
0.0672425
0.0672422
0.0676422
0.0676419
0.0682204
0.0682202
0.0689918
0.0689917
0.0699442
0.0699441
0.0710781
0.0710781
0.0723923
0.0723923
0.0738653
0.0738654
0.0754683
0.0754684
0.0771705
0.0771706
0.0788941
0.0788942
0.08052
0.0805201
0.081987
0.0819871
0.0833583
0.0833584
0.0847612
0.0847614
0.0863016
0.0863018
0.0880272
0.0880274
0.089938
0.0899382
0.0920155
0.0920157
0.0942152
0.0942153
0.0964745
0.0964746
0.0987482
0.0987483
0.101047
0.101048
0.103442
0.103442
0.106006
0.106006
0.108767
0.108767
0.111716
0.111716
0.114857
0.114857
0.118194
0.118194
0.121617
0.121617
0.124882
0.124882
0.127724
0.127725
0.129966
0.129966
0.131507
0.131507
0.132309
0.132309
0.132434
0.132434
0.13202
0.13202
0.13123
0.13123
0.130203
0.130203
0.129027
0.129027
0.127769
0.127769
0.126503
0.126503
0.125314
0.125314
0.124286
0.124286
0.123478
0.123478
0.122926
0.122926
0.122635
0.122635
0.122586
0.122586
0.122743
0.122744
0.12307
0.12307
0.12354
0.123541
0.124153
0.124153
0.124918
0.124918
0.125858
0.125858
0.127018
0.127018
0.128439
0.128439
0.130145
0.130145
0.132131
0.132131
0.134368
0.134368
0.136819
0.136819
0.139465
0.139465
0.142314
0.142314
0.145389
0.145389
0.148695
0.148695
0.152214
0.152214
0.155893
0.155893
0.159639
0.159639
0.163336
0.163336
0.166887
0.166887
0.170237
0.170237
0.173397
0.173397
0.176425
0.176425
0.179409
0.179409
0.182442
0.182442
0.1856
0.1856
0.188932
0.188932
0.192464
0.192464
0.196204
0.196204
0.200143
0.200143
0.204256
0.204256
0.208507
0.208507
0.21285
0.21285
0.217244
0.217244
0.221653
0.221653
0.226051
0.226051
0.230432
0.230432
0.234791
0.234791
0.239126
0.239126
0.243451
0.243451
0.247793
0.247793
0.252176
0.252176
0.256621
0.256621
0.26114
0.26114
0.265726
0.265726
0.270359
0.270359
0.275029
0.275029
0.279738
0.279738
0.284496
0.284496
0.289337
0.289337
0.29431
0.29431
0.299471
0.299471
0.304872
0.304872
0.310569
0.310569
0.31661
0.31661
0.323039
0.323039
0.329901
0.329901
0.337236
0.337236
0.345075
0.345075
0.35345
0.35345
0.362394
0.362394
0.371935
0.371935
0.382104
0.382104
0.392932
0.392932
0.404453
0.404453
0.416697
0.416697
0.429697
0.429697
0.443476
0.443476
0.458056
0.458056
0.473455
0.473455
0.489687
0.489687
0.506764
0.506764
0.524699
0.524699
0.543503
0.543503
0.563186
0.563186
0.583754
0.583754
0.605219
0.605219
0.627595
0.627595
0.650895
0.650895
0.675135
0.675135
0.700333
0.700333
0.726509
0.726509
0.753684
0.753684
0.781888
0.781888
0.811149
0.811149
0.841497
0.841497
0.872958
0.872958
0.905561
0.905561
0.939329
0.939329
0.974285
0.974285
1.01045
1.01045
1.04784
1.04784
1.08648
1.08648
1.12638
1.12638
1.16758
1.16758
1.21008
1.21008
1.25393
1.25393
1.29914
1.29914
1.34576
1.34576
1.39383
1.39383
1.4434
1.4434
1.49453
1.49453
1.54725
1.54725
1.60163
1.60163
1.65769
1.65769
1.71551
1.71551
1.7751
1.7751
1.8365
1.8365
1.89975
1.89975
1.96485
1.96485
2.03182
2.03182
2.10067
2.10067
2.1714
2.1714
2.24401
2.24401
2.3185
2.3185
2.39485
2.39485
2.47306
2.47306
2.55313
2.55313
2.63504
2.63504
2.71878
2.71878
2.80434
2.80434
2.89173
2.89173
2.98092
2.98092
3.0719
3.0719
3.16468
3.16468
3.25923
3.25923
3.35554
3.35554
3.45361
3.45361
3.55341
3.55341
3.65494
3.65494
3.75817
3.75817
3.86308
3.86308
3.96966
3.96966
4.07787
4.07787
4.18767
4.18767
4.29903
4.29903
4.41193
4.41193
4.52632
4.52632
4.64216
4.64216
4.7594
4.7594
4.878
4.878
4.9979
4.9979
5.11903
5.11903
5.24131
5.24131
5.36466
5.36466
5.489
5.489
5.61425
5.61425
5.74028
5.74028
5.867
5.867
5.99429
5.99429
6.122
6.122
6.24998
6.24998
6.3781
6.3781
6.50616
6.50616
6.63398
6.63398
6.76139
6.76139
6.88822
6.88822
7.01424
7.01424
7.13924
7.13924
7.26295
7.26295
7.3851
7.3851
7.50545
7.50545
7.62371
7.62371
7.73958
7.73958
7.8528
7.8528
7.96301
7.96301
8.06986
8.06986
8.1731
8.1731
8.27244
8.27244
8.3675
8.3675
8.45795
8.45795
8.5435
8.5435
8.62383
8.62383
8.69859
8.69859
8.76747
8.76747
8.83023
8.83023
8.8866
8.8866
8.93636
8.93636
8.97941
8.97941
9.01572
9.01572
9.04547
9.04547
9.069
9.069
9.08663
9.08663
9.09877
9.09877
9.10598
9.10598
9.10911
9.10911
9.10921
9.10921
9.1075
9.1075
9.10553
9.10553
9.10498
9.10498
9.10771
9.10771
9.11578
9.11578
9.13129
9.13129
9.15637
9.15637
9.19313
9.19313
9.24355
9.24355
9.30942
9.30942
9.39225
9.39225
9.49327
9.49327
9.61335
9.61335
9.75277
9.75277
9.91139
9.91139
10.0886
10.0886
10.2831
10.2831
10.4936
10.4936
10.7178
10.7178
10.9535
10.9535
11.1979
11.1979
11.4481
11.4481
11.7011
11.7011
11.9538
11.9538
12.203
12.203
12.4458
12.4458
12.6791
12.6791
12.9002
12.9002
13.1063
13.1063
13.2953
13.2953
13.465
13.465
13.6137
13.6137
13.7397
13.7397
13.8418
13.8418
13.9194
13.9194
13.9719
13.9719
13.9989
13.9989
14.0003
14.0003
13.9763
13.9763
13.9274
13.9274
13.854
13.854
13.757
13.757
13.6373
13.6373
13.4958
13.4958
13.3336
13.3336
13.1518
13.1518
12.9517
12.9517
12.7343
12.7343
12.5009
12.5009
12.2526
12.2526
11.9906
11.9906
11.7158
11.7158
11.4293
11.4293
11.1321
11.1321
10.8249
10.8249
10.5085
10.5085
10.1835
10.1835
9.85038
9.85038
9.50964
9.50964
9.16153
9.16153
8.80624
8.80624
8.44383
8.44383
8.07421
8.07421
7.69715
7.69715
7.31226
7.31226
6.91891
6.91891
6.51628
6.51628
6.10327
6.10327
5.67844
5.67844
5.23997
5.23997
4.7855
4.7855
4.31207
4.31207
3.81602
3.81602
3.29311
3.29311
2.73935
2.73935
2.15416
2.15416
1.5499
1.5499
0.970815
0.970815
0.499053
0.499053
0.198117
0.198117
0.0543069
0.0543069
0.00759943
0.00759943
0.000400701
0.000400701
)
;

boundaryField
{
    walls
    {
        type            kqRWallFunction;
        value           nonuniform List<scalar> 8(0.000400628 0.000400629 0.000400628 0.000400629 0.000400701 0.000400701 0.000400701 0.000400701);
    }
    inlet
    {
        type            cyclic;
    }
    outlet
    {
        type            cyclic;
    }
    sides
    {
        type            empty;
    }
}


// ************************************************************************* //
