/*--------------------------------*- C++ -*----------------------------------*\
| =========                 |                                                 |
| \\      /  F ield         | OpenFOAM: The Open Source CFD Toolbox           |
|  \\    /   O peration     | Version:  2012                                  |
|   \\  /    A nd           | Website:  www.openfoam.com                      |
|    \\/     M anipulation  |                                                 |
\*---------------------------------------------------------------------------*/
FoamFile
{
    version     2.0;
    format      ascii;
    class       volScalarField;
    location    "19000";
    object      omega;
}
// * * * * * * * * * * * * * * * * * * * * * * * * * * * * * * * * * * * * * //

dimensions      [0 0 -1 0 0 0 0];


internalField   nonuniform List<scalar> 
2560
(
1.52415e+06
1.52415e+06
265141
265141
89744.7
89744.7
42037.8
42037.8
23500
23500
14769.8
14769.8
10242.4
10242.4
7724.97
7724.97
6214.29
6214.29
5236.97
5236.97
4562.7
4562.7
4072.84
4072.84
3702.17
3702.17
3412.49
3412.49
3180.15
3180.15
2989.85
2989.85
2831.23
2831.23
2697.09
2697.09
2582.22
2582.22
2482.79
2482.79
2395.92
2395.92
2319.39
2319.39
2251.44
2251.44
2190.7
2190.7
2136.03
2136.03
2086.52
2086.52
2041.42
2041.42
2000.06
2000.06
1961.92
1961.92
1926.52
1926.52
1893.46
1893.46
1862.38
1862.38
1832.96
1832.96
1804.92
1804.92
1778.02
1778.02
1752.03
1752.03
1726.74
1726.74
1701.97
1701.97
1677.55
1677.55
1653.33
1653.33
1629.18
1629.18
1604.96
1604.96
1580.58
1580.58
1555.94
1555.94
1530.96
1530.96
1505.57
1505.57
1479.71
1479.71
1453.36
1453.36
1426.48
1426.48
1399.07
1399.07
1371.13
1371.13
1342.68
1342.68
1313.76
1313.76
1284.42
1284.42
1254.73
1254.73
1224.76
1224.76
1194.6
1194.6
1164.37
1164.37
1134.17
1134.17
1104.12
1104.12
1074.36
1074.36
1045.01
1045.01
1016.21
1016.21
988.079
988.079
960.751
960.751
934.333
934.333
908.924
908.924
884.609
884.609
861.451
861.451
839.493
839.493
818.757
818.757
799.239
799.239
780.92
780.92
763.753
763.753
747.676
747.676
732.613
732.613
718.479
718.479
705.18
705.18
692.619
692.619
680.701
680.701
669.332
669.332
658.424
658.424
647.898
647.898
637.682
637.682
627.712
627.712
617.936
617.936
608.307
608.307
598.788
598.788
589.352
589.352
579.974
579.974
570.638
570.638
561.332
561.332
552.048
552.048
542.781
542.781
533.531
533.531
524.296
524.296
515.08
515.08
505.886
505.886
496.717
496.717
487.578
487.578
478.476
478.476
469.414
469.414
460.4
460.4
451.437
451.437
442.533
442.533
433.692
433.692
424.92
424.92
416.221
416.221
407.602
407.602
399.065
399.065
390.615
390.615
382.257
382.257
373.994
373.994
365.829
365.829
357.765
357.765
349.806
349.806
341.953
341.953
334.21
334.21
326.577
326.577
319.057
319.057
311.65
311.65
304.359
304.359
297.184
297.184
290.125
290.125
283.183
283.183
276.359
276.359
269.651
269.651
263.061
263.061
256.588
256.588
250.231
250.231
243.989
243.989
237.863
237.863
231.851
231.851
225.953
225.953
220.168
220.168
214.494
214.494
208.931
208.931
203.478
203.478
198.134
198.134
192.897
192.897
187.767
187.767
182.743
182.743
177.822
177.822
173.004
173.005
168.289
168.289
163.674
163.674
159.158
159.158
154.74
154.74
150.42
150.42
146.196
146.196
142.067
142.067
138.032
138.032
134.09
134.09
130.24
130.24
126.481
126.481
122.813
122.813
119.234
119.234
115.744
115.744
112.342
112.342
109.026
109.026
105.797
105.797
102.653
102.653
99.5927
99.5927
96.6149
96.6149
93.7183
93.7183
90.9011
90.9011
88.1616
88.1616
85.498
85.498
82.9081
82.9081
80.3899
80.3899
77.9413
77.9413
75.5603
75.5603
73.2449
73.2449
70.9932
70.9933
68.8038
68.8038
66.675
66.675
64.6056
64.6056
62.5943
62.5943
60.6401
60.6401
58.7419
58.7419
56.8986
56.8986
55.1094
55.1094
53.3731
53.3731
51.6888
51.6888
50.0552
50.0552
48.4714
48.4714
46.936
46.936
45.4479
45.4479
44.0059
44.0059
42.6089
42.6089
41.2558
41.2558
39.9457
39.9457
38.6777
38.6777
37.4512
37.4512
36.2654
36.2654
35.1198
35.1198
34.0137
34.0137
32.9468
32.9468
31.9185
31.9185
30.9283
30.9283
29.9757
29.9757
29.0602
29.0602
28.1812
28.1812
27.3378
27.3378
26.5293
26.5293
25.7548
25.7548
25.013
25.013
24.3029
24.3029
23.6231
23.6231
22.9724
22.9724
22.3498
22.3498
21.754
21.754
21.184
21.184
20.6386
20.6386
20.1166
20.1166
19.6167
19.6167
19.1374
19.1374
18.677
18.677
18.2338
18.2338
17.8059
17.8059
17.3912
17.3912
16.9878
16.9878
16.5941
16.5941
16.209
16.209
15.8318
15.8318
15.4625
15.4625
15.1012
15.1012
14.748
14.748
14.4028
14.4028
14.0653
14.0653
13.7345
13.7345
13.4096
13.4096
13.0897
13.0897
12.7743
12.7743
12.4632
12.4632
12.1563
12.1563
11.8538
11.8538
11.5562
11.5562
11.2644
11.2644
10.9794
10.9794
10.7025
10.7025
10.4348
10.4348
10.1768
10.1768
9.92863
9.92863
9.68991
9.68991
9.45966
9.45966
9.23632
9.23633
9.01777
9.01777
8.8014
8.8014
8.58472
8.58472
8.36615
8.36615
8.14556
8.14556
7.92422
7.92423
7.7044
7.7044
7.48876
7.48876
7.27966
7.27966
7.07853
7.07853
6.88584
6.88584
6.70134
6.70134
6.52449
6.52449
6.35499
6.35499
6.19318
6.19318
6.03986
6.03986
5.89579
5.89579
5.76103
5.76103
5.63498
5.63498
5.51661
5.51661
5.40491
5.40491
5.29918
5.29918
5.1991
5.1991
5.10473
5.10473
5.01657
5.01657
4.93533
4.93533
4.86168
4.86168
4.79591
4.79591
4.73783
4.73783
4.68662
4.68662
4.64103
4.64103
4.59941
4.59941
4.56004
4.56004
4.52149
4.52149
4.48247
4.48247
4.44128
4.44128
4.39539
4.39539
4.34191
4.34191
4.27859
4.27859
4.20471
4.20471
4.1209
4.1209
4.02876
4.02876
3.9311
3.9311
3.8321
3.8321
3.73572
3.73572
3.64386
3.64386
3.55645
3.55645
3.47345
3.47345
3.39506
3.39506
3.32079
3.32079
3.24927
3.24927
3.17939
3.17939
3.11104
3.11104
3.04504
3.04504
2.98243
2.98243
2.92395
2.92395
2.86991
2.86991
2.82035
2.82035
2.7744
2.77441
2.73006
2.73006
2.68501
2.68501
2.63829
2.63829
2.59101
2.59101
2.54527
2.54527
2.50259
2.50259
2.46367
2.46367
2.42896
2.42896
2.39884
2.39885
2.37341
2.37341
2.35268
2.35268
2.33697
2.33697
2.32614
2.32615
2.32039
2.3204
1.52415e+06
1.52415e+06
265141
265141
89744.7
89744.7
42037.8
42037.8
23500
23500
14769.8
14769.8
10242.4
10242.4
7724.97
7724.97
6214.29
6214.29
5236.97
5236.97
4562.7
4562.7
4072.84
4072.84
3702.17
3702.17
3412.49
3412.49
3180.15
3180.15
2989.85
2989.85
2831.23
2831.23
2697.09
2697.09
2582.22
2582.22
2482.79
2482.79
2395.93
2395.93
2319.39
2319.39
2251.44
2251.44
2190.7
2190.7
2136.03
2136.03
2086.52
2086.52
2041.42
2041.42
2000.06
2000.06
1961.92
1961.92
1926.52
1926.52
1893.46
1893.46
1862.38
1862.38
1832.96
1832.96
1804.92
1804.92
1778.02
1778.02
1752.03
1752.03
1726.74
1726.74
1701.97
1701.97
1677.55
1677.55
1653.33
1653.33
1629.18
1629.18
1604.96
1604.96
1580.58
1580.58
1555.94
1555.94
1530.96
1530.96
1505.57
1505.57
1479.71
1479.71
1453.36
1453.36
1426.48
1426.48
1399.07
1399.07
1371.13
1371.13
1342.68
1342.68
1313.76
1313.76
1284.42
1284.42
1254.73
1254.73
1224.76
1224.76
1194.6
1194.6
1164.37
1164.37
1134.17
1134.17
1104.12
1104.12
1074.36
1074.36
1045.01
1045.01
1016.21
1016.21
988.08
988.08
960.751
960.751
934.333
934.333
908.925
908.925
884.609
884.609
861.452
861.452
839.494
839.494
818.757
818.757
799.24
799.24
780.921
780.921
763.753
763.753
747.676
747.676
732.614
732.614
718.479
718.479
705.18
705.18
692.619
692.619
680.701
680.701
669.332
669.332
658.424
658.424
647.898
647.898
637.682
637.682
627.713
627.713
617.936
617.936
608.307
608.307
598.788
598.788
589.352
589.352
579.974
579.974
570.638
570.638
561.332
561.332
552.048
552.048
542.781
542.781
533.531
533.531
524.297
524.297
515.081
515.081
505.886
505.886
496.717
496.717
487.579
487.579
478.476
478.476
469.414
469.414
460.4
460.4
451.437
451.437
442.533
442.533
433.692
433.692
424.92
424.92
416.222
416.222
407.602
407.602
399.065
399.065
390.615
390.615
382.257
382.257
373.994
373.994
365.829
365.829
357.765
357.765
349.806
349.806
341.953
341.953
334.21
334.21
326.577
326.577
319.057
319.057
311.65
311.65
304.359
304.359
297.184
297.184
290.125
290.125
283.183
283.183
276.359
276.359
269.652
269.652
263.061
263.061
256.588
256.588
250.231
250.231
243.99
243.99
237.863
237.863
231.852
231.852
225.953
225.953
220.168
220.168
214.494
214.494
208.931
208.931
203.478
203.478
198.134
198.134
192.897
192.897
187.767
187.767
182.743
182.743
177.822
177.822
173.005
173.005
168.289
168.289
163.674
163.674
159.158
159.158
154.74
154.74
150.42
150.42
146.196
146.196
142.067
142.067
138.032
138.032
134.09
134.09
130.24
130.24
126.481
126.481
122.813
122.813
119.234
119.234
115.744
115.744
112.342
112.342
109.027
109.027
105.797
105.797
102.653
102.653
99.5927
99.5927
96.6149
96.6149
93.7183
93.7183
90.9011
90.9011
88.1617
88.1617
85.498
85.498
82.9081
82.9081
80.3899
80.3899
77.9413
77.9413
75.5603
75.5603
73.2449
73.2449
70.9932
70.9932
68.8038
68.8038
66.675
66.675
64.6056
64.6056
62.5943
62.5943
60.6401
60.6401
58.7419
58.7419
56.8986
56.8986
55.1094
55.1094
53.3731
53.3731
51.6888
51.6888
50.0552
50.0552
48.4713
48.4713
46.9359
46.9359
45.4478
45.4478
44.0059
44.0059
42.6089
42.6089
41.2558
41.2558
39.9457
39.9457
38.6777
38.6777
37.4512
37.4512
36.2654
36.2654
35.1197
35.1198
34.0137
34.0137
32.9468
32.9468
31.9184
31.9184
30.9282
30.9282
29.9757
29.9757
29.0602
29.0602
28.1811
28.1811
27.3378
27.3378
26.5293
26.5293
25.7547
25.7547
25.0129
25.013
24.3028
24.3028
23.623
23.623
22.9724
22.9724
22.3497
22.3497
21.7539
21.7539
21.1839
21.1839
20.6385
20.6385
20.1165
20.1165
19.6166
19.6166
19.1373
19.1373
18.6769
18.6769
18.2337
18.2337
17.8058
17.8058
17.3911
17.3911
16.9877
16.9877
16.594
16.594
16.2089
16.2089
15.8317
15.8317
15.4624
15.4624
15.1011
15.1011
14.7479
14.7479
14.4028
14.4028
14.0652
14.0652
13.7344
13.7345
13.4095
13.4095
13.0896
13.0896
12.7743
12.7743
12.4632
12.4632
12.1562
12.1562
11.8537
11.8537
11.5561
11.5562
11.2643
11.2643
10.9794
10.9794
10.7025
10.7025
10.4348
10.4348
10.1767
10.1767
9.92859
9.9286
9.68988
9.68988
9.45963
9.45963
9.2363
9.2363
9.01775
9.01776
8.80139
8.80139
8.58472
8.58472
8.36616
8.36617
8.14559
8.14559
7.92426
7.92427
7.70445
7.70445
7.48882
7.48882
7.27972
7.27972
7.07859
7.07859
6.8859
6.8859
6.7014
6.7014
6.52455
6.52455
6.35504
6.35504
6.19323
6.19323
6.0399
6.0399
5.89581
5.89582
5.76105
5.76105
5.63499
5.635
5.51661
5.51662
5.40491
5.40491
5.29918
5.29918
5.1991
5.1991
5.10473
5.10473
5.01655
5.01655
4.9353
4.9353
4.86164
4.86164
4.79584
4.79584
4.73774
4.73774
4.6865
4.6865
4.6409
4.6409
4.59926
4.59927
4.55989
4.55989
4.52134
4.52134
4.48233
4.48233
4.44115
4.44116
4.39529
4.39529
4.34184
4.34184
4.27857
4.27857
4.20473
4.20473
4.12096
4.12096
4.02884
4.02884
3.93118
3.93119
3.83218
3.83218
3.73577
3.73578
3.6439
3.6439
3.55648
3.55648
3.47347
3.47347
3.39506
3.39507
3.32078
3.32079
3.24927
3.24927
3.17939
3.1794
3.11105
3.11105
3.04505
3.04505
2.98244
2.98244
2.92394
2.92394
2.86988
2.86989
2.8203
2.82031
2.77435
2.77436
2.73001
2.73002
2.68498
2.68499
2.63828
2.63829
2.59102
2.59103
2.54529
2.54529
2.50261
2.50261
2.46368
2.46369
2.42896
2.42896
2.39884
2.39884
2.3734
2.3734
2.35266
2.35266
2.33695
2.33694
2.32612
2.32611
2.32036
2.32036
2.32028
2.32029
2.32584
2.32585
2.33646
2.33647
2.35191
2.35191
2.37237
2.37238
2.39757
2.39757
2.42745
2.42745
2.46193
2.46193
2.50057
2.50057
2.54283
2.54283
2.58813
2.58813
2.63509
2.63509
2.68161
2.68161
2.72665
2.72665
2.77129
2.7713
2.81775
2.81775
2.86785
2.86785
2.92239
2.92239
2.98136
2.98136
3.04443
3.04443
3.1108
3.11081
3.17941
3.17941
3.24948
3.24948
3.32121
3.32121
3.39579
3.39579
3.47449
3.47449
3.55778
3.55778
3.64547
3.64547
3.73762
3.73762
3.83429
3.83429
3.93363
3.93364
4.0316
4.0316
4.12381
4.12381
4.20739
4.20739
4.28076
4.28076
4.34333
4.34334
4.39622
4.39622
4.44177
4.44177
4.48283
4.48283
4.52186
4.52187
4.56047
4.56047
4.5999
4.5999
4.64157
4.64157
4.68717
4.68717
4.73839
4.73839
4.79646
4.79646
4.86223
4.86223
4.93586
4.93586
5.01705
5.01705
5.10513
5.10513
5.19935
5.19935
5.29926
5.29926
5.40486
5.40486
5.51645
5.51645
5.63463
5.63463
5.76046
5.76046
5.895
5.895
6.03886
6.03886
6.19196
6.19196
6.3536
6.35361
6.52299
6.523
6.69967
6.69967
6.88392
6.88392
7.0763
7.0763
7.27706
7.27706
7.48576
7.48576
7.70111
7.70111
7.9208
7.9208
8.142
8.142
8.36229
8.36229
8.58042
8.58042
8.79681
8.79681
9.01317
9.01317
9.2319
9.2319
9.45564
9.45564
9.6865
9.6865
9.9259
9.9259
10.1746
10.1746
10.433
10.433
10.7009
10.7009
10.9777
10.9777
11.2625
11.2625
11.5541
11.5541
11.8515
11.8515
12.1539
12.1539
12.4606
12.4606
12.7717
12.7717
13.0872
13.0872
13.4072
13.4072
13.7323
13.7323
14.0634
14.0634
14.4013
14.4013
14.747
14.747
15.1009
15.1009
15.463
15.463
15.8329
15.8329
16.2104
16.2104
16.5958
16.5958
16.9896
16.9896
17.393
17.393
17.8079
17.8079
18.236
18.236
18.6793
18.6793
19.1397
19.1397
19.6188
19.6188
20.1184
20.1184
20.6399
20.6399
21.1849
21.1849
21.7545
21.7545
22.35
22.35
22.9724
22.9724
23.6229
23.6229
24.3027
24.3027
25.0128
25.0128
25.7546
25.7546
26.5292
26.5292
27.3378
27.3378
28.1812
28.1812
29.0604
29.0604
29.976
29.976
30.9286
30.9286
31.9187
31.9187
32.947
32.947
34.0139
34.014
35.12
35.12
36.2657
36.2657
37.4514
37.4514
38.6779
38.6779
39.9459
39.9459
41.256
41.256
42.6092
42.6092
44.0062
44.0062
45.4481
45.4481
46.9361
46.9361
48.4714
48.4714
50.0551
50.0551
51.6885
51.6885
53.3728
53.3728
55.109
55.109
56.8982
56.8982
58.7414
58.7414
60.6396
60.6396
62.5938
62.5938
64.6051
64.6051
66.6747
66.6747
68.8035
68.8035
70.9929
70.9929
73.2444
73.2444
75.5598
75.5598
77.9409
77.9409
80.3895
80.3895
82.9079
82.9079
85.4979
85.4979
88.1617
88.1617
90.9012
90.9012
93.7184
93.7184
96.6151
96.6151
99.5929
99.5929
102.653
102.653
105.797
105.797
109.026
109.026
112.342
112.342
115.744
115.744
119.234
119.234
122.812
122.812
126.481
126.481
130.239
130.239
134.089
134.089
138.031
138.031
142.066
142.066
146.195
146.195
150.419
150.419
154.739
154.739
159.156
159.156
163.672
163.672
168.287
168.287
173.003
173.003
177.821
177.821
182.742
182.742
187.767
187.767
192.897
192.897
198.134
198.134
203.479
203.479
208.933
208.933
214.496
214.496
220.17
220.17
225.955
225.955
231.854
231.854
237.866
237.866
243.992
243.992
250.234
250.234
256.592
256.592
263.066
263.066
269.657
269.657
276.364
276.364
283.189
283.189
290.131
290.131
297.189
297.189
304.364
304.364
311.655
311.655
319.06
319.06
326.579
326.579
334.211
334.211
341.953
341.953
349.802
349.802
357.759
357.759
365.82
365.82
373.983
373.983
382.246
382.246
390.603
390.603
399.052
399.052
407.588
407.588
416.208
416.208
424.906
424.906
433.678
433.678
442.518
442.518
451.42
451.42
460.381
460.381
469.395
469.395
478.457
478.457
487.56
487.56
496.7
496.7
505.871
505.871
515.068
515.068
524.286
524.286
533.522
533.522
542.771
542.771
552.033
552.033
561.308
561.308
570.602
570.602
579.926
579.926
589.297
589.297
598.731
598.731
608.248
608.248
617.876
617.876
627.65
627.65
637.615
637.615
647.825
647.825
658.344
658.344
669.244
669.244
680.606
680.606
692.52
692.52
705.078
705.078
718.376
718.376
732.512
732.512
747.576
747.576
763.655
763.655
780.824
780.824
799.144
799.144
818.663
818.663
839.401
839.401
861.361
861.361
884.522
884.522
908.84
908.84
934.253
934.253
960.676
960.676
988.01
988.01
1016.14
1016.14
1044.95
1044.95
1074.3
1074.3
1104.06
1104.06
1134.12
1134.12
1164.33
1164.33
1194.58
1194.58
1224.75
1224.75
1254.73
1254.73
1284.45
1284.45
1313.81
1313.81
1342.75
1342.75
1371.22
1371.22
1399.17
1399.17
1426.59
1426.59
1453.49
1453.49
1479.87
1479.87
1505.74
1505.74
1531.14
1531.14
1556.14
1556.14
1580.8
1580.8
1605.18
1605.18
1629.41
1629.41
1653.57
1653.57
1677.79
1677.79
1702.21
1702.21
1726.99
1726.99
1752.27
1752.27
1778.27
1778.27
1805.16
1805.16
1833.2
1833.2
1862.61
1862.61
1893.69
1893.69
1926.75
1926.75
1962.14
1962.14
2000.29
2000.29
2041.64
2041.64
2086.75
2086.75
2136.26
2136.26
2190.92
2190.92
2251.66
2251.66
2319.6
2319.6
2396.13
2396.13
2482.99
2482.99
2582.41
2582.41
2697.28
2697.28
2831.42
2831.42
2990.03
2990.03
3180.33
3180.33
3412.67
3412.67
3702.35
3702.35
4073.02
4073.02
4562.87
4562.87
5237.14
5237.14
6214.44
6214.44
7725.09
7725.09
10242.5
10242.5
14769.8
14769.8
23499.9
23499.9
42037.8
42037.8
89744.8
89744.8
265141
265141
1.52416e+06
1.52416e+06
2.32026
2.32026
2.32582
2.32581
2.33644
2.33644
2.35189
2.35189
2.37236
2.37236
2.39757
2.39757
2.42745
2.42745
2.46194
2.46194
2.50059
2.5006
2.54286
2.54286
2.58815
2.58815
2.63508
2.63509
2.68158
2.68159
2.7266
2.72661
2.77124
2.77125
2.81771
2.81772
2.86782
2.86783
2.92238
2.92239
2.98137
2.98137
3.04444
3.04444
3.11082
3.11082
3.17942
3.17942
3.24948
3.24949
3.32121
3.32122
3.3958
3.3958
3.47451
3.47451
3.55781
3.55781
3.64551
3.64552
3.73768
3.73769
3.83437
3.83438
3.93372
3.93373
4.03168
4.03168
4.12386
4.12387
4.20741
4.20741
4.28074
4.28074
4.34327
4.34327
4.39611
4.39612
4.44164
4.44164
4.48269
4.48269
4.52171
4.52171
4.56031
4.56032
4.59975
4.59975
4.64144
4.64144
4.68706
4.68706
4.73829
4.7383
4.79639
4.79639
4.86218
4.86218
4.93583
4.93583
5.01704
5.01704
5.10512
5.10512
5.19935
5.19936
5.29926
5.29926
5.40486
5.40486
5.51645
5.51645
5.63464
5.63465
5.76048
5.76048
5.89503
5.89503
6.0389
6.0389
6.192
6.19201
6.35366
6.35366
6.52305
6.52305
6.69973
6.69973
6.88397
6.88398
7.07636
7.07636
7.27712
7.27712
7.48582
7.48582
7.70115
7.70116
7.92084
7.92084
8.14203
8.14203
8.3623
8.36231
8.58043
8.58043
8.7968
8.79681
9.01315
9.01315
9.23188
9.23188
9.45561
9.45561
9.68647
9.68647
9.92587
9.92587
10.1746
10.1746
10.433
10.433
10.7009
10.7009
10.9777
10.9777
11.2624
11.2624
11.5541
11.5541
11.8515
11.8515
12.1539
12.1539
12.4606
12.4606
12.7717
12.7717
13.0872
13.0872
13.4072
13.4072
13.7322
13.7322
14.0633
14.0633
14.4013
14.4013
14.7469
14.7469
15.1008
15.1008
15.4629
15.4629
15.8328
15.8328
16.2103
16.2103
16.5957
16.5957
16.9895
16.9895
17.3929
17.3929
17.8078
17.8078
18.2359
18.2359
18.6792
18.6792
19.1396
19.1396
19.6187
19.6187
20.1183
20.1183
20.6399
20.6399
21.1849
21.1849
21.7545
21.7545
22.3499
22.3499
22.9723
22.9723
23.6229
23.6229
24.3026
24.3026
25.0128
25.0128
25.7546
25.7546
26.5292
26.5292
27.3377
27.3377
28.1812
28.1812
29.0604
29.0604
29.9759
29.9759
30.9285
30.9285
31.9187
31.9187
32.947
32.947
34.0139
34.0139
35.12
35.12
36.2657
36.2657
37.4514
37.4514
38.6779
38.6779
39.9459
39.9459
41.256
41.256
42.6092
42.6092
44.0062
44.0062
45.4481
45.4481
46.9361
46.9361
48.4714
48.4714
50.0551
50.0551
51.6885
51.6885
53.3728
53.3728
55.109
55.109
56.8982
56.8982
58.7414
58.7414
60.6396
60.6396
62.5938
62.5938
64.6051
64.6051
66.6746
66.6747
68.8035
68.8035
70.9929
70.9929
73.2444
73.2444
75.5598
75.5598
77.9409
77.9409
80.3895
80.3895
82.9079
82.9079
85.4979
85.4979
88.1617
88.1617
90.9012
90.9012
93.7184
93.7184
96.6151
96.6151
99.5929
99.5929
102.653
102.653
105.797
105.797
109.026
109.026
112.342
112.342
115.744
115.744
119.234
119.234
122.812
122.812
126.481
126.481
130.239
130.239
134.089
134.089
138.031
138.031
142.066
142.066
146.195
146.195
150.419
150.419
154.739
154.739
159.157
159.157
163.672
163.672
168.287
168.287
173.003
173.003
177.821
177.821
182.742
182.742
187.767
187.767
192.897
192.897
198.134
198.134
203.479
203.479
208.933
208.933
214.496
214.496
220.17
220.17
225.955
225.955
231.854
231.854
237.866
237.866
243.992
243.992
250.234
250.234
256.592
256.592
263.066
263.066
269.657
269.657
276.364
276.364
283.189
283.189
290.131
290.131
297.189
297.189
304.364
304.364
311.655
311.655
319.061
319.061
326.58
326.58
334.211
334.211
341.953
341.953
349.802
349.802
357.759
357.759
365.82
365.82
373.983
373.983
382.246
382.246
390.603
390.603
399.052
399.052
407.588
407.588
416.208
416.208
424.906
424.906
433.678
433.678
442.518
442.518
451.42
451.42
460.381
460.381
469.395
469.395
478.457
478.457
487.56
487.56
496.7
496.7
505.872
505.872
515.069
515.069
524.286
524.286
533.522
533.522
542.771
542.771
552.033
552.033
561.309
561.309
570.603
570.603
579.927
579.927
589.297
589.297
598.731
598.731
608.248
608.248
617.876
617.876
627.65
627.65
637.615
637.615
647.825
647.825
658.344
658.344
669.244
669.244
680.606
680.606
692.52
692.52
705.078
705.078
718.376
718.376
732.512
732.512
747.577
747.577
763.656
763.656
780.824
780.824
799.145
799.145
818.663
818.663
839.401
839.401
861.361
861.361
884.522
884.522
908.841
908.841
934.253
934.253
960.676
960.676
988.01
988.01
1016.14
1016.14
1044.95
1044.95
1074.3
1074.3
1104.06
1104.06
1134.12
1134.12
1164.33
1164.33
1194.58
1194.58
1224.75
1224.75
1254.73
1254.73
1284.45
1284.45
1313.81
1313.81
1342.75
1342.75
1371.22
1371.22
1399.17
1399.17
1426.59
1426.59
1453.49
1453.49
1479.87
1479.87
1505.74
1505.74
1531.14
1531.14
1556.14
1556.14
1580.8
1580.8
1605.19
1605.19
1629.41
1629.41
1653.57
1653.57
1677.8
1677.8
1702.21
1702.21
1726.99
1726.99
1752.27
1752.27
1778.27
1778.27
1805.16
1805.16
1833.2
1833.2
1862.61
1862.61
1893.69
1893.69
1926.75
1926.75
1962.14
1962.14
2000.29
2000.29
2041.64
2041.64
2086.75
2086.75
2136.26
2136.26
2190.92
2190.92
2251.66
2251.66
2319.6
2319.6
2396.13
2396.13
2482.99
2482.99
2582.41
2582.41
2697.28
2697.28
2831.42
2831.42
2990.03
2990.03
3180.33
3180.33
3412.67
3412.67
3702.35
3702.35
4073.02
4073.02
4562.87
4562.87
5237.14
5237.14
6214.44
6214.44
7725.09
7725.09
10242.5
10242.5
14769.8
14769.8
23499.9
23499.9
42037.8
42037.8
89744.8
89744.8
265141
265141
1.52416e+06
1.52416e+06
)
;

boundaryField
{
    walls
    {
        blending        binomial2;
        n               2;
        beta1           0.075;
        type            omegaWallFunction;
        value           nonuniform List<scalar> 8(1.52415e+06 1.52415e+06 1.52415e+06 1.52415e+06 1.52416e+06 1.52416e+06 1.52416e+06 1.52416e+06);
    }
    inlet
    {
        type            cyclic;
    }
    outlet
    {
        type            cyclic;
    }
    sides
    {
        type            empty;
    }
}


// ************************************************************************* //
