/*--------------------------------*- C++ -*----------------------------------*\
| =========                 |                                                 |
| \\      /  F ield         | OpenFOAM: The Open Source CFD Toolbox           |
|  \\    /   O peration     | Version:  2012                                  |
|   \\  /    A nd           | Website:  www.openfoam.com                      |
|    \\/     M anipulation  |                                                 |
\*---------------------------------------------------------------------------*/
FoamFile
{
    version     2.0;
    format      ascii;
    class       surfaceScalarField;
    location    "14000";
    object      phi;
}
// * * * * * * * * * * * * * * * * * * * * * * * * * * * * * * * * * * * * * //

dimensions      [0 3 -1 0 0 0 0];
oriented        oriented;


internalField   nonuniform List<scalar> 
5116
(
2.57549e-07
-2.52185e-12
3.712e-13
-3.35764e-14
2.16182e-13
7.86209e-07
-3.39503e-12
5.79528e-13
-8.52895e-14
3.3764e-13
1.33639e-06
-4.30072e-12
6.014e-13
-1.38907e-13
3.50454e-13
1.90872e-06
-5.22044e-12
6.10425e-13
-1.9338e-13
3.5574e-13
2.50377e-06
-6.09676e-12
5.82817e-13
-2.44929e-13
3.39655e-13
3.12212e-06
-6.85222e-12
5.00186e-13
-2.9114e-13
2.91498e-13
3.76432e-06
-7.43096e-12
3.85786e-13
-3.24506e-13
2.24826e-13
4.43095e-06
-7.85811e-12
2.83022e-13
-3.506e-13
1.64936e-13
5.12267e-06
-8.17125e-12
2.09458e-13
-3.68179e-13
1.22067e-13
5.84026e-06
-8.414e-12
1.60834e-13
-3.83213e-13
9.37304e-14
6.58462e-06
-8.60581e-12
1.28759e-13
-3.93632e-13
7.50369e-14
7.35685e-06
-8.76738e-12
1.06994e-13
-4.03839e-13
6.23534e-14
8.15818e-06
-8.90362e-12
9.1699e-14
-4.11049e-13
5.34394e-14
8.99005e-06
-9.02537e-12
8.05862e-14
-4.18892e-13
4.69631e-14
9.85406e-06
-9.13249e-12
7.22777e-14
-4.24383e-13
4.2121e-14
1.0752e-05
-9.23211e-12
6.59165e-14
-4.30895e-13
3.84138e-14
1.16858e-05
-9.32229e-12
6.0952e-14
-4.35405e-13
3.55205e-14
1.26578e-05
-9.40846e-12
5.70185e-14
-4.41101e-13
3.32281e-14
1.36701e-05
-9.48804e-12
5.38658e-14
-4.44975e-13
3.13906e-14
1.47255e-05
-9.56557e-12
5.13182e-14
-4.50136e-13
2.99059e-14
1.58265e-05
-9.63826e-12
4.92494e-14
-4.53609e-13
2.87001e-14
1.69761e-05
-9.71008e-12
4.75667e-14
-4.58413e-13
2.77193e-14
1.81774e-05
-9.77824e-12
4.62008e-14
-4.61612e-13
2.69232e-14
1.94334e-05
-9.84629e-12
4.50991e-14
-4.6617e-13
2.6281e-14
2.07475e-05
-9.9115e-12
4.42213e-14
-4.69198e-13
2.57693e-14
2.2123e-05
-9.97714e-12
4.3536e-14
-4.73593e-13
2.53697e-14
2.35634e-05
-1.00406e-11
4.30185e-14
-4.76515e-13
2.5068e-14
2.50721e-05
-1.01049e-11
4.26496e-14
-4.80807e-13
2.48528e-14
2.66525e-05
-1.01674e-11
4.24138e-14
-4.83679e-13
2.47152e-14
2.83081e-05
-1.02311e-11
4.22989e-14
-4.87917e-13
2.4648e-14
3.00421e-05
-1.02936e-11
4.22954e-14
-4.90786e-13
2.46458e-14
3.18577e-05
-1.03574e-11
4.23959e-14
-4.95005e-13
2.47041e-14
3.3758e-05
-1.04203e-11
4.25944e-14
-4.97909e-13
2.48195e-14
3.57456e-05
-1.04848e-11
4.28866e-14
-5.02143e-13
2.49895e-14
3.78231e-05
-1.05489e-11
4.32694e-14
-5.05122e-13
2.52122e-14
3.99927e-05
-1.06146e-11
4.37406e-14
-5.09403e-13
2.54865e-14
4.22563e-05
-1.06803e-11
4.42992e-14
-5.12486e-13
2.58117e-14
4.46154e-05
-1.07477e-11
4.49447e-14
-5.16841e-13
2.61875e-14
4.7071e-05
-1.08156e-11
4.56776e-14
-5.20072e-13
2.66141e-14
4.96236e-05
-1.08854e-11
4.6499e-14
-5.24533e-13
2.70924e-14
5.22733e-05
-1.0956e-11
4.74106e-14
-5.27942e-13
2.76231e-14
5.50195e-05
-1.10286e-11
4.84149e-14
-5.32546e-13
2.82079e-14
5.78611e-05
-1.11025e-11
4.95147e-14
-5.3618e-13
2.88483e-14
6.07963e-05
-1.11785e-11
5.07137e-14
-5.40968e-13
2.95464e-14
6.38224e-05
-1.12563e-11
5.2016e-14
-5.44849e-13
3.03047e-14
6.69361e-05
-1.13364e-11
5.34262e-14
-5.49845e-13
3.11257e-14
7.01332e-05
-1.14187e-11
5.49494e-14
-5.54027e-13
3.20127e-14
7.34086e-05
-1.15036e-11
5.65916e-14
-5.59274e-13
3.29687e-14
7.67563e-05
-1.15911e-11
5.83583e-14
-5.63789e-13
3.39975e-14
8.01692e-05
-1.16817e-11
6.02566e-14
-5.69449e-13
3.51027e-14
8.36393e-05
-1.17753e-11
6.2293e-14
-5.74377e-13
3.62886e-14
8.71575e-05
-1.18725e-11
6.44742e-14
-5.80607e-13
3.75592e-14
9.07137e-05
-1.1973e-11
6.68091e-14
-5.85981e-13
3.89182e-14
9.42967e-05
-1.20775e-11
6.93042e-14
-5.92664e-13
4.03699e-14
9.78942e-05
-1.2186e-11
7.19653e-14
-5.98506e-13
4.19186e-14
0.000101493
-1.22987e-11
7.47979e-14
-6.05519e-13
4.35689e-14
0.000105079
-1.24161e-11
7.78087e-14
-6.11881e-13
4.53227e-14
0.000108638
-1.25381e-11
8.10031e-14
-6.19335e-13
4.71816e-14
0.000112153
-1.26655e-11
8.43819e-14
-6.26361e-13
4.91481e-14
0.00011561
-1.27982e-11
8.79445e-14
-6.34605e-13
5.12222e-14
0.000118991
-1.29369e-11
9.1689e-14
-6.42384e-13
5.34019e-14
0.000122282
-1.30817e-11
9.56092e-14
-6.51689e-13
5.56841e-14
0.000125464
-1.32327e-11
9.96949e-14
-6.60277e-13
5.80642e-14
0.000128525
-1.33904e-11
1.03937e-13
-6.70559e-13
6.05318e-14
0.000131448
-1.35546e-11
1.08318e-13
-6.79951e-13
6.30791e-14
0.00013422
-1.37256e-11
1.12813e-13
-6.90901e-13
6.56973e-14
0.000136829
-1.39037e-11
1.17405e-13
-7.01142e-13
6.83716e-14
0.000139266
-1.40883e-11
1.22073e-13
-7.12418e-13
7.1089e-14
0.000141521
-1.42809e-11
1.26795e-13
-7.23631e-13
7.38364e-14
0.000143588
-1.44794e-11
1.31552e-13
-7.35218e-13
7.66043e-14
0.000145464
-1.46869e-11
1.3633e-13
-7.4758e-13
7.93823e-14
0.000147149
-1.48998e-11
1.41118e-13
-7.59789e-13
8.21668e-14
0.000148642
-1.51223e-11
1.45915e-13
-7.7344e-13
8.49571e-14
0.000149949
-1.53499e-11
1.50724e-13
-7.86566e-13
8.77551e-14
0.000151075
-1.55877e-11
1.55558e-13
-8.01559e-13
9.05677e-14
0.000152029
-1.58305e-11
1.60435e-13
-8.15926e-13
9.34033e-14
0.000152821
-1.60837e-11
1.65376e-13
-8.32226e-13
9.62766e-14
0.000153462
-1.63424e-11
1.70403e-13
-8.48146e-13
9.92027e-14
0.000153964
-1.66116e-11
1.75546e-13
-8.65731e-13
1.02197e-13
0.000154341
-1.6887e-11
1.80835e-13
-8.83352e-13
1.05273e-13
0.000154606
-1.71729e-11
1.86299e-13
-9.02128e-13
1.08449e-13
0.000154771
-1.74659e-11
1.91965e-13
-9.21313e-13
1.11742e-13
0.000154847
-1.77696e-11
1.97858e-13
-9.41238e-13
1.15166e-13
0.000154848
-1.80814e-11
2.04002e-13
-9.61841e-13
1.18738e-13
0.000154782
-1.84043e-11
2.10419e-13
-9.82973e-13
1.2247e-13
0.000154659
-1.87366e-11
2.17136e-13
-1.00515e-12
1.26377e-13
0.000154487
-1.90808e-11
2.24173e-13
-1.02766e-12
1.30468e-13
0.000154273
-1.94355e-11
2.31551e-13
-1.05154e-12
1.34757e-13
0.000154023
-1.98029e-11
2.3929e-13
-1.07559e-12
1.39256e-13
0.000153741
-2.01821e-11
2.47411e-13
-1.10112e-12
1.43974e-13
0.000153432
-2.05752e-11
2.55931e-13
-1.12686e-12
1.48927e-13
0.000153099
-2.0981e-11
2.6487e-13
-1.15386e-12
1.54125e-13
0.000152745
-2.14023e-11
2.74251e-13
-1.18147e-12
1.59578e-13
0.000152373
-2.18372e-11
2.84091e-13
-1.20995e-12
1.65303e-13
0.000151984
-2.22896e-11
2.9442e-13
-1.23971e-12
1.71305e-13
0.00015158
-2.27569e-11
3.05262e-13
-1.27021e-12
1.776e-13
0.000151162
-2.32437e-11
3.16633e-13
-1.30238e-12
1.84206e-13
0.000150733
-2.37472e-11
3.28552e-13
-1.33558e-12
1.91137e-13
0.000150293
-2.42717e-11
3.41055e-13
-1.37039e-12
1.98409e-13
0.000149843
-2.48147e-11
3.54177e-13
-1.4063e-12
2.06028e-13
0.000149384
-2.53805e-11
3.6794e-13
-1.44375e-12
2.14019e-13
0.000148919
-2.59666e-11
3.82364e-13
-1.48227e-12
2.22405e-13
0.000148446
-2.65776e-11
3.97492e-13
-1.52258e-12
2.31197e-13
0.000147968
-2.72111e-11
4.13363e-13
-1.56405e-12
2.40412e-13
0.000147486
-2.78719e-11
4.29998e-13
-1.60749e-12
2.50079e-13
0.000147
-2.85575e-11
4.47442e-13
-1.65224e-12
2.60214e-13
0.000146511
-2.9273e-11
4.65737e-13
-1.69905e-12
2.70839e-13
0.000146019
-3.00155e-11
4.84922e-13
-1.74692e-12
2.81979e-13
0.000145526
-3.07909e-11
5.05033e-13
-1.79734e-12
2.93662e-13
0.000145032
-3.15956e-11
5.26117e-13
-1.84839e-12
3.05914e-13
0.000144538
-3.24368e-11
5.48234e-13
-1.90281e-12
3.18751e-13
0.000144044
-3.33105e-11
5.71429e-13
-1.95776e-12
3.32212e-13
0.00014355
-3.42242e-11
5.95745e-13
-2.01654e-12
3.46329e-13
0.000143058
-3.51741e-11
6.21231e-13
-2.07639e-12
3.61136e-13
0.000142567
-3.61673e-11
6.4796e-13
-2.13995e-12
3.76662e-13
0.000142077
-3.72013e-11
6.75999e-13
-2.2054e-12
3.92933e-13
0.00014159
-3.82818e-11
7.05402e-13
-2.27388e-12
4.09997e-13
0.000141105
-3.94081e-11
7.36234e-13
-2.34532e-12
4.27893e-13
0.000140622
-4.05843e-11
7.68571e-13
-2.41903e-12
4.4666e-13
0.000140141
-4.18115e-11
8.02496e-13
-2.49639e-12
4.6634e-13
0.000139663
-4.30928e-11
8.38075e-13
-2.57557e-12
4.86979e-13
0.000139189
-4.443e-11
8.75397e-13
-2.6584e-12
5.08626e-13
0.000138716
-4.5827e-11
9.14546e-13
-2.74363e-12
5.31336e-13
0.000138247
-4.7285e-11
9.55598e-13
-2.83208e-12
5.55174e-13
0.000137781
-4.88094e-11
9.98689e-13
-2.92411e-12
5.80171e-13
0.000137318
-5.04009e-11
1.04392e-12
-3.01913e-12
6.06393e-13
0.000136858
-5.20662e-11
1.09139e-12
-3.11865e-12
6.33912e-13
0.000136402
-5.38054e-11
1.1412e-12
-3.22135e-12
6.62791e-13
0.000135949
-5.56257e-11
1.19348e-12
-3.32914e-12
6.93119e-13
0.000135501
-5.75277e-11
1.24839e-12
-3.44034e-12
7.24942e-13
0.000135057
-5.9519e-11
1.30603e-12
-3.55699e-12
7.5836e-13
0.000134618
-6.16001e-11
1.36657e-12
-3.67741e-12
7.93444e-13
0.000134185
-6.37796e-11
1.43016e-12
-3.80381e-12
8.30301e-13
0.000133759
-6.60583e-11
1.49698e-12
-3.93429e-12
8.69001e-13
0.000133339
-6.84455e-11
1.56717e-12
-4.07123e-12
9.09676e-13
0.000132928
-7.0942e-11
1.64094e-12
-4.21277e-12
9.5239e-13
0.000132525
-7.35582e-11
1.71845e-12
-4.36158e-12
9.97311e-13
0.000132131
-7.62949e-11
1.79998e-12
-4.51538e-12
1.04448e-12
0.000131748
-7.91643e-11
1.88564e-12
-4.67723e-12
1.09413e-12
0.000131375
-8.21661e-11
1.97581e-12
-4.84448e-12
1.14625e-12
0.000131015
-8.53148e-11
2.07054e-12
-5.02105e-12
1.20117e-12
0.000130667
-8.8609e-11
2.17033e-12
-5.20294e-12
1.25879e-12
0.000130332
-9.20667e-11
2.27514e-12
-5.39608e-12
1.3196e-12
0.000130012
-9.5684e-11
2.3857e-12
-5.59401e-12
1.38333e-12
0.000129709
-9.94838e-11
2.50174e-12
-5.8058e-12
1.45073e-12
0.000129422
-1.03459e-10
2.62437e-12
-6.02135e-12
1.52123e-12
0.000129155
-1.07638e-10
2.75287e-12
-6.25415e-12
1.59605e-12
0.000128908
-1.12009e-10
2.88901e-12
-6.48876e-12
1.67401e-12
0.000128683
-1.16608e-10
3.03132e-12
-6.74494e-12
1.7572e-12
0.000128481
-1.21417e-10
3.18272e-12
-6.99949e-12
1.84337e-12
0.000128305
-1.26483e-10
3.34027e-12
-7.28216e-12
1.93608e-12
0.000128156
-1.31778e-10
3.50893e-12
-7.55716e-12
2.03114e-12
0.000128036
-1.37363e-10
3.68314e-12
-7.86953e-12
2.1348e-12
0.000127947
-1.43195e-10
3.87147e-12
-8.16468e-12
2.2393e-12
0.000127891
-1.49359e-10
4.06363e-12
-8.51163e-12
2.35576e-12
0.000127869
-1.55785e-10
4.2747e-12
-8.82492e-12
2.46993e-12
0.000127885
-1.62591e-10
4.4857e-12
-9.21182e-12
2.6017e-12
0.000127937
-1.69672e-10
4.72354e-12
-9.53785e-12
2.72509e-12
0.000128029
-1.77192e-10
4.95339e-12
-9.97355e-12
2.87583e-12
0.000128159
-1.84994e-10
5.22359e-12
-1.03028e-11
3.00663e-12
0.000128327
-1.93303e-10
5.47046e-12
-1.07998e-11
3.18221e-12
0.000128532
-2.01894e-10
5.78165e-12
-1.1116e-11
3.31592e-12
0.00012877
-2.11077e-10
6.0403e-12
-1.16946e-11
3.52596e-12
0.000129039
-2.20535e-10
6.40646e-12
-1.19709e-11
3.65332e-12
0.000129333
-2.30673e-10
6.66498e-12
-1.26648e-11
3.91438e-12
0.000129649
-2.41086e-10
7.1097e-12
-1.28561e-11
4.01684e-12
0.000129983
-2.52256e-10
7.34373e-12
-1.3723e-11
4.35887e-12
0.000130329
-2.63728e-10
7.90887e-12
-1.37518e-11
4.40045e-12
0.000130684
-2.76003e-10
8.07071e-12
-1.48945e-11
4.87752e-12
0.000131047
-2.88681e-10
8.83181e-12
-1.46245e-11
4.78965e-12
0.000131418
-3.02045e-10
8.82841e-12
-1.62235e-11
5.50227e-12
0.000131798
-3.16152e-10
9.92514e-12
-1.54082e-11
5.15337e-12
0.000132192
-3.30556e-10
9.57737e-12
-1.78041e-11
6.28932e-12
0.000132604
-3.46535e-10
1.12702e-11
-1.59947e-11
5.42825e-12
0.00013304
-3.61568e-10
1.02329e-11
-1.98107e-11
7.34242e-12
0.000133506
-3.80198e-10
1.30145e-11
-1.61698e-11
5.48668e-12
0.000134007
-3.95424e-10
1.06213e-11
-2.25887e-11
8.856e-12
0.000134547
-4.18124e-10
1.54327e-11
-1.55417e-11
5.07597e-12
0.000135131
-4.31485e-10
1.0394e-11
-2.68414e-11
1.12013e-11
0.00013576
-4.61072e-10
1.90486e-11
-1.33363e-11
3.69554e-12
0.000136436
-4.68357e-10
8.85389e-12
-3.39051e-11
1.50994e-11
0.000137158
-5.11636e-10
2.4879e-11
-7.95279e-12
3.53638e-13
0.000137924
-5.04559e-10
4.61074e-12
-4.63862e-11
2.19661e-11
0.000138731
-5.80742e-10
3.49239e-11
3.9809e-12
-6.92308e-12
0.000139575
-5.42216e-10
-5.1174e-12
-6.93564e-11
3.46108e-11
0.000140452
-6.75805e-10
5.31665e-11
2.95016e-11
-2.2088e-11
0.000141359
-5.70826e-10
-2.59288e-11
-1.12493e-10
5.86623e-11
0.000142295
-5.69728e-10
9.38409e-12
-1.51757e-10
2.5103e-11
0.000143258
-3.52871e-10
-6.1358e-11
-4.06865e-10
9.76895e-11
0.000144251
-1.25797e-10
-6.66213e-11
-6.81832e-10
1.04899e-10
0.00014528
-9.85445e-11
3.59485e-12
-7.4979e-10
3.67365e-11
0.000146351
3.91827e-11
-3.65595e-11
-9.43168e-10
7.9047e-11
0.000147472
-1.23412e-10
6.90706e-11
-8.23151e-10
-2.43024e-11
0.000148646
-4.91808e-11
-1.23535e-11
-9.53162e-10
5.95011e-11
0.000149879
-1.59594e-10
5.40424e-11
-8.8745e-10
-4.37979e-12
0.000151174
-1.26518e-10
4.18772e-12
-9.77779e-10
4.81004e-11
0.000152536
-2.0609e-10
4.56524e-11
-9.47439e-10
9.39772e-12
0.000153964
-2.00523e-10
1.5818e-11
-1.01366e-09
4.2112e-11
0.00015546
-2.63046e-10
4.16583e-11
-1.00656e-09
1.92865e-11
0.000157019
-2.76292e-10
2.43743e-11
-1.05883e-09
3.97051e-11
0.000158629
-3.30397e-10
4.05665e-11
-1.06736e-09
2.67768e-11
0.000160277
-3.56937e-10
3.10562e-11
-1.11226e-09
3.96672e-11
0.000161946
-4.07965e-10
4.13881e-11
-1.13168e-09
3.28348e-11
0.000163613
-4.44351e-10
3.6632e-11
-1.17348e-09
4.11983e-11
0.000165256
-4.95553e-10
4.34683e-11
-1.20093e-09
3.80756e-11
0.000166855
-5.39683e-10
4.15843e-11
-1.24235e-09
4.37701e-11
0.000168392
-5.93039e-10
4.63774e-11
-1.27614e-09
4.288e-11
0.000169858
-6.43662e-10
4.6208e-11
-1.31891e-09
4.70391e-11
0.000171255
-7.00352e-10
4.98368e-11
-1.35806e-09
4.74841e-11
0.000172591
-7.56745e-10
5.06824e-11
-1.40329e-09
5.07845e-11
0.000173875
-8.17479e-10
5.36671e-11
-1.44728e-09
5.20255e-11
0.000175113
-8.79268e-10
5.51171e-11
-1.49566e-09
5.48648e-11
0.000176303
-9.44461e-10
5.77542e-11
-1.54424e-09
5.65827e-11
0.000177439
-1.01144e-09
5.95608e-11
-1.59625e-09
5.91916e-11
0.000178512
-1.08136e-09
6.20285e-11
-1.64931e-09
6.12041e-11
0.000179511
-1.15346e-09
6.40602e-11
-1.70528e-09
6.37202e-11
0.000180422
-1.22831e-09
6.6468e-11
-1.76281e-09
6.59347e-11
0.000181236
-1.30558e-09
6.86643e-11
-1.823e-09
6.845e-11
0.00018194
-1.38555e-09
7.10937e-11
-1.8851e-09
7.08367e-11
0.000182523
-1.46815e-09
7.3448e-11
-1.94979e-09
7.34293e-11
0.000182988
-1.55352e-09
7.59755e-11
-2.01667e-09
7.60057e-11
0.00018335
-1.64172e-09
7.8519e-11
-2.08618e-09
7.87532e-11
0.000183644
-1.73288e-09
8.12172e-11
-2.15816e-09
8.15591e-11
0.00018391
-1.8271e-09
8.39878e-11
-2.23292e-09
8.45277e-11
0.000184192
-1.92453e-09
8.69025e-11
-2.31041e-09
8.75919e-11
0.000184522
-2.02528e-09
8.99119e-11
-2.39086e-09
9.08057e-11
0.000184912
-2.12948e-09
9.30483e-11
-2.47432e-09
9.41323e-11
0.000185351
-2.23724e-09
9.62811e-11
-2.56093e-09
9.75924e-11
0.0001858
-2.3487e-09
9.96286e-11
-2.65079e-09
1.01165e-10
0.000186217
-2.46395e-09
1.0308e-10
-2.744e-09
1.04868e-10
0.000186571
-2.58317e-09
1.06656e-10
-2.8407e-09
1.08704e-10
0.000186862
-2.70646e-09
1.10359e-10
-2.94102e-09
1.12695e-10
0.000187112
-2.83402e-09
1.1421e-10
-3.0451e-09
1.16849e-10
0.000187347
-2.96598e-09
1.18212e-10
-3.15309e-09
1.21179e-10
0.000187594
-3.10257e-09
1.22375e-10
-3.26516e-09
1.2569e-10
0.000187876
-3.24392e-09
1.26696e-10
-3.38146e-09
1.30386e-10
0.000188229
-3.39026e-09
1.31174e-10
-3.50217e-09
1.35264e-10
0.000188696
-3.5417e-09
1.35786e-10
-3.62739e-09
1.40304e-10
0.000189335
-3.69841e-09
1.40517e-10
-3.75729e-09
1.45494e-10
0.000190195
-3.86044e-09
1.45317e-10
-3.89193e-09
1.50782e-10
0.000191291
-4.0279e-09
1.50159e-10
-4.03138e-09
1.56142e-10
0.000192595
-4.20072e-09
1.54982e-10
-4.17563e-09
1.61514e-10
0.000194032
-4.37892e-09
1.59772e-10
-4.32469e-09
1.66881e-10
0.000195496
-4.56239e-09
1.64482e-10
-4.47848e-09
1.72203e-10
0.00019687
-4.75112e-09
1.69142e-10
-4.63701e-09
1.77509e-10
0.000198049
-4.945e-09
1.7372e-10
-4.80018e-09
1.82764e-10
0.000198927
-5.14411e-09
1.78319e-10
-4.96808e-09
1.88079e-10
0.000199413
-5.34843e-09
1.8292e-10
-5.14069e-09
1.93442e-10
0.000199486
-5.55823e-09
1.87723e-10
-5.31825e-09
1.99054e-10
0.000199237
-5.77368e-09
1.92676e-10
-5.50091e-09
2.0488e-10
0.000198853
-5.99528e-09
1.98027e-10
-5.68909e-09
2.11166e-10
0.000198563
-6.22321e-09
2.03548e-10
-5.88294e-09
2.17695e-10
0.000198571
-6.45799e-09
2.09478e-10
-6.08294e-09
2.24711e-10
0.000199063
-6.69952e-09
2.1533e-10
-6.28899e-09
2.31724e-10
0.000200169
-6.94818e-09
2.21457e-10
-6.50145e-09
2.39083e-10
0.000201866
-7.20346e-09
2.27114e-10
-6.71983e-09
2.46041e-10
0.000203918
-7.46567e-09
2.33011e-10
-6.9445e-09
2.53309e-10
0.000205981
-7.734e-09
2.38125e-10
-7.17466e-09
2.59864e-10
0.000207786
-8.00898e-09
2.43715e-10
-7.41093e-09
2.6698e-10
0.00020932
-8.2895e-09
2.48229e-10
-7.65221e-09
2.73097e-10
0.000210806
-8.57658e-09
2.53672e-10
-7.89958e-09
2.80237e-10
0.000212565
-8.8686e-09
2.57527e-10
-8.15144e-09
2.85881e-10
0.000214862
-9.16714e-09
2.6289e-10
-8.40943e-09
2.93128e-10
0.000217861
-9.46973e-09
2.658e-10
-8.67113e-09
2.98039e-10
0.000221669
-9.77887e-09
2.71147e-10
-8.93912e-09
3.05488e-10
0.000226251
-1.0091e-08
2.72949e-10
-9.20989e-09
3.09544e-10
0.000231426
-1.04103e-08
2.78769e-10
-9.48763e-09
3.17786e-10
0.000236991
-1.07316e-08
2.79468e-10
-9.76728e-09
3.21111e-10
0.000242788
-1.10614e-08
2.86441e-10
-1.00553e-08
3.30945e-10
0.000248681
-1.1392e-08
2.85759e-10
-1.03442e-08
3.33393e-10
0.000254508
-1.17331e-08
2.9448e-10
-1.06436e-08
3.45533e-10
0.000260055
-1.20731e-08
2.91692e-10
-1.09421e-08
3.46473e-10
0.000265117
-1.24261e-08
3.0279e-10
-1.12539e-08
3.61619e-10
0.000269541
-1.2775e-08
2.96744e-10
-1.1562e-08
3.59962e-10
0.000273237
-1.31404e-08
3.11187e-10
-1.18872e-08
3.79163e-10
0.000276224
-1.34974e-08
3.00508e-10
-1.22047e-08
3.73642e-10
0.000278521
-1.38761e-08
3.19968e-10
-1.25449e-08
3.98706e-10
0.000280078
-1.42403e-08
3.03033e-10
-1.28719e-08
3.87877e-10
0.000280946
-1.46343e-08
3.3009e-10
-1.32299e-08
4.21621e-10
0.000281328
-1.50055e-08
3.0459e-10
-1.35669e-08
4.03453e-10
0.000281384
-1.54179e-08
3.42751e-10
-1.39472e-08
4.4971e-10
0.000281047
-1.57959e-08
3.05054e-10
-1.42954e-08
4.20911e-10
0.000280013
-1.62316e-08
3.59223e-10
-1.4704e-08
4.84976e-10
0.000278029
-1.66161e-08
3.04068e-10
-1.50647e-08
4.4087e-10
0.000275143
-1.70823e-08
3.81665e-10
-1.55111e-08
5.30892e-10
0.000271688
-1.74732e-08
3.01439e-10
-1.58865e-08
4.64683e-10
0.000268075
-1.79812e-08
4.13493e-10
-1.63847e-08
5.92705e-10
0.000264568
-1.83775e-08
2.95685e-10
-1.67773e-08
4.92963e-10
0.000261455
-1.89423e-08
4.57993e-10
-1.73463e-08
6.75963e-10
0.000259448
-1.93389e-08
2.82608e-10
-1.77562e-08
5.23793e-10
0.000259485
-1.99778e-08
5.17524e-10
-1.84198e-08
7.85224e-10
0.000262059
-2.03615e-08
2.54228e-10
-1.88416e-08
5.51173e-10
0.000266753
-2.1092e-08
5.92964e-10
-1.96272e-08
9.23619e-10
0.000272323
-2.14384e-08
1.99988e-10
-2.00485e-08
5.67534e-10
0.000277217
-2.22819e-08
6.88537e-10
-2.09925e-08
1.09984e-09
0.000280253
-2.25542e-08
1.07782e-10
-2.13941e-08
5.65844e-10
0.000281188
-2.35411e-08
8.13502e-10
-2.25482e-08
1.32889e-09
0.000280608
-2.36861e-08
-3.82618e-11
-2.29009e-08
5.35668e-10
0.000279385
-2.48637e-08
9.84788e-10
-2.43421e-08
1.63581e-09
0.000278337
-2.48042e-08
-2.61985e-10
-2.46019e-08
4.61877e-10
0.000278058
-2.62433e-08
1.22667e-09
-2.64452e-08
2.05827e-09
0.000278759
-2.58633e-08
-6.00769e-10
-2.6543e-08
3.1789e-10
0.00028023
-2.76616e-08
1.56787e-09
-2.89528e-08
2.6439e-09
0.000282288
-2.67885e-08
-1.10719e-09
-2.87821e-08
6.23549e-11
0.000285504
-2.90778e-08
2.0458e-09
-3.1994e-08
3.46057e-09
0.000290776
-2.74624e-08
-1.85132e-09
-3.13936e-08
-3.66077e-10
0.000298137
-3.04157e-08
2.70761e-09
-3.57544e-08
4.61312e-09
0.00030685
-2.77014e-08
-2.92984e-09
-3.44802e-08
-1.06149e-09
0.000315712
-3.15449e-08
3.61326e-09
-4.05361e-08
6.29399e-09
0.000323421
-2.72268e-08
-4.46942e-09
-3.8196e-08
-2.19304e-09
0.000329397
-3.22128e-08
4.80343e-09
-4.68307e-08
8.82698e-09
0.000334095
-2.56591e-08
-6.55952e-09
-4.27444e-08
-4.08611e-09
0.000338258
-3.19245e-08
6.18594e-09
-5.54201e-08
1.2766e-08
0.000341623
-2.25505e-08
-9.0966e-09
-4.82813e-08
-7.42132e-09
0.000343525
-2.97001e-08
7.27863e-09
-6.77144e-08
1.93073e-08
0.00034442
-1.76132e-08
-1.13302e-08
-5.46562e-08
-1.38205e-08
0.000346225
-2.33583e-08
6.33908e-09
-7.30951e-08
1.78426e-08
0.000350525
-1.03205e-08
-1.16173e-08
-4.88599e-08
-2.566e-08
0.000356627
-1.01011e-08
1.16834e-09
-4.26543e-08
-7.59579e-09
0.000362767
-8.00413e-09
-1.15644e-10
-4.45077e-08
-1.30489e-10
2.57548e-07
4.91976e-13
9.13821e-14
7.86208e-07
1.2607e-12
2.3518e-13
1.33639e-06
2.05927e-12
3.84106e-13
1.90871e-06
2.8692e-12
5.35618e-13
2.50377e-06
3.64364e-12
6.79829e-13
3.12212e-06
4.3054e-12
8.02067e-13
3.76432e-06
4.81901e-12
8.97764e-13
4.43095e-06
5.19337e-12
9.67192e-13
5.12267e-06
5.47308e-12
1.0195e-12
5.84026e-06
5.68558e-12
1.05889e-12
6.58462e-06
5.85821e-12
1.09127e-12
7.35685e-06
5.99941e-12
1.11739e-12
8.15818e-06
6.1228e-12
1.14059e-12
8.99005e-06
6.22907e-12
1.16022e-12
9.85405e-06
6.32671e-12
1.17864e-12
1.0752e-05
6.41364e-12
1.19468e-12
1.16858e-05
6.49627e-12
1.21032e-12
1.26578e-05
6.57151e-12
1.2242e-12
1.36701e-05
6.64477e-12
1.23811e-12
1.47255e-05
6.71258e-12
1.25062e-12
1.58265e-05
6.77975e-12
1.26342e-12
1.69761e-05
6.8427e-12
1.27503e-12
1.81774e-05
6.90586e-12
1.2871e-12
1.94334e-05
6.96566e-12
1.29814e-12
2.07475e-05
7.02624e-12
1.30975e-12
2.2123e-05
7.08408e-12
1.32045e-12
2.35634e-05
7.1431e-12
1.3318e-12
2.50721e-05
7.1999e-12
1.34231e-12
2.66525e-05
7.25816e-12
1.35354e-12
2.83081e-05
7.31462e-12
1.36402e-12
3.00421e-05
7.37275e-12
1.37526e-12
3.18577e-05
7.42948e-12
1.38581e-12
3.3758e-05
7.48806e-12
1.39716e-12
3.57456e-05
7.54558e-12
1.40789e-12
3.78231e-05
7.60509e-12
1.41946e-12
3.99927e-05
7.66389e-12
1.43046e-12
4.22563e-05
7.72483e-12
1.44233e-12
4.46154e-05
7.78539e-12
1.45371e-12
4.7071e-05
7.8482e-12
1.46597e-12
4.96236e-05
7.91098e-12
1.47781e-12
5.22732e-05
7.97615e-12
1.49055e-12
5.50195e-05
8.04165e-12
1.50295e-12
5.78611e-05
8.10966e-12
1.51627e-12
6.07962e-05
8.17838e-12
1.52932e-12
6.38224e-05
8.2498e-12
1.54333e-12
6.69361e-05
8.32232e-12
1.55716e-12
7.01332e-05
8.39771e-12
1.57198e-12
7.34086e-05
8.47465e-12
1.58672e-12
7.67563e-05
8.55467e-12
1.60248e-12
8.01692e-05
8.63658e-12
1.61813e-12
8.36393e-05
8.72193e-12
1.63496e-12
8.71575e-05
8.80946e-12
1.65159e-12
9.07137e-05
8.90096e-12
1.66966e-12
9.42967e-05
8.99512e-12
1.6876e-12
9.78942e-05
9.09365e-12
1.70712e-12
0.000101493
9.19553e-12
1.72674e-12
0.000105079
9.30206e-12
1.74791e-12
0.000108638
9.4126e-12
1.76937e-12
0.000112153
9.52803e-12
1.79233e-12
0.00011561
9.64797e-12
1.81558e-12
0.000118991
9.77332e-12
1.84051e-12
0.000122282
9.90341e-12
1.8655e-12
0.000125465
1.00396e-11
1.8926e-12
0.000128525
1.01808e-11
1.91964e-12
0.000131448
1.03288e-11
1.94914e-12
0.00013422
1.04824e-11
1.97884e-12
0.000136829
1.06428e-11
2.01091e-12
0.000139266
1.08097e-11
2.04377e-12
0.000141521
1.09829e-11
2.0784e-12
0.000143588
1.11634e-11
2.1145e-12
0.000145464
1.13493e-11
2.15157e-12
0.000147149
1.15433e-11
2.19068e-12
0.000148642
1.1742e-11
2.23013e-12
0.000149949
1.19492e-11
2.27201e-12
0.000151075
1.21608e-11
2.31382e-12
0.000152029
1.23812e-11
2.35825e-12
0.000152821
1.2606e-11
2.40258e-12
0.000153462
1.28397e-11
2.44936e-12
0.000153964
1.30783e-11
2.49639e-12
0.000154341
1.33257e-11
2.54556e-12
0.000154606
1.3579e-11
2.59562e-12
0.000154771
1.38414e-11
2.64761e-12
0.000154848
1.41108e-11
2.70103e-12
0.000154848
1.43897e-11
2.75632e-12
0.000154782
1.46765e-11
2.81345e-12
0.000154659
1.49733e-11
2.87231e-12
0.000154487
1.52792e-11
2.9334e-12
0.000154273
1.55956e-11
2.99616e-12
0.000154023
1.59223e-11
3.06154e-12
0.000153741
1.62606e-11
3.12876e-12
0.000153432
1.66102e-11
3.19881e-12
0.000153099
1.69728e-11
3.27123e-12
0.000152746
1.73476e-11
3.34636e-12
0.000152373
1.7737e-11
3.42462e-12
0.000151984
1.81393e-11
3.50519e-12
0.00015158
1.85579e-11
3.58933e-12
0.000151162
1.89903e-11
3.67572e-12
0.000150733
1.94402e-11
3.76579e-12
0.000150293
1.99058e-11
3.85858e-12
0.000149843
2.03905e-11
3.95536e-12
0.000149385
2.08926e-11
4.05527e-12
0.000148919
2.14158e-11
4.15969e-12
0.000148446
2.19581e-11
4.2675e-12
0.000147969
2.25234e-11
4.38014e-12
0.000147486
2.31099e-11
4.49648e-12
0.000147
2.37213e-11
4.61806e-12
0.000146511
2.43562e-11
4.74376e-12
0.000146019
2.50188e-11
4.87549e-12
0.000145526
2.57069e-11
5.01145e-12
0.000145032
2.64258e-11
5.15453e-12
0.000144538
2.71724e-11
5.30168e-12
0.000144044
2.79527e-11
5.45665e-12
0.00014355
2.87633e-11
5.61595e-12
0.000143058
2.96104e-11
5.78334e-12
0.000142567
3.04914e-11
5.956e-12
0.000142077
3.14116e-11
6.13665e-12
0.00014159
3.23701e-11
6.32407e-12
0.000141105
3.33707e-11
6.51934e-12
0.000140622
3.44146e-11
6.72316e-12
0.000140141
3.55043e-11
6.93506e-12
0.000139664
3.66422e-11
7.1569e-12
0.000139189
3.78307e-11
7.38788e-12
0.000138717
3.9072e-11
7.62949e-12
0.000138247
4.03695e-11
7.88174e-12
0.000137781
4.17242e-11
8.14477e-12
0.000137318
4.31412e-11
8.41967e-12
0.000136858
4.46207e-11
8.70567e-12
0.000136402
4.61687e-11
9.00479e-12
0.000135949
4.77855e-11
9.31604e-12
0.000135501
4.94779e-11
9.64175e-12
0.000135057
5.12461e-11
9.98075e-12
0.000134618
5.30974e-11
1.03358e-11
0.000134185
5.50326e-11
1.07055e-11
0.000133759
5.70594e-11
1.10931e-11
0.000133339
5.91789e-11
1.14966e-11
0.000132928
6.13992e-11
1.19201e-11
0.000132525
6.37218e-11
1.23612e-11
0.000132132
6.61557e-11
1.28246e-11
0.000131748
6.87027e-11
1.3307e-11
0.000131376
7.13727e-11
1.38149e-11
0.000131015
7.41674e-11
1.43434e-11
0.000130667
7.70986e-11
1.49011e-11
0.000130332
8.01669e-11
1.54807e-11
0.000130013
8.33874e-11
1.60942e-11
0.000129709
8.67582e-11
1.67302e-11
0.000129423
9.0299e-11
1.74056e-11
0.000129155
9.40047e-11
1.81041e-11
0.000128908
9.7901e-11
1.88486e-11
0.000128683
1.01978e-10
1.96161e-11
0.000128481
1.06269e-10
2.04383e-11
0.000128305
1.10757e-10
2.12823e-11
0.000128156
1.15489e-10
2.21915e-11
0.000128036
1.20432e-10
2.31198e-11
0.000127947
1.25655e-10
2.41269e-11
0.000127891
1.31103e-10
2.51463e-11
0.00012787
1.36876e-10
2.62646e-11
0.000127885
1.42882e-10
2.73856e-11
0.000127938
1.49272e-10
2.86329e-11
0.000128029
1.55893e-10
2.98653e-11
0.000128159
1.6298e-10
3.12627e-11
0.000128328
1.70277e-10
3.26225e-11
0.000128532
1.78153e-10
3.41956e-11
0.00012877
1.86186e-10
3.56989e-11
0.000129039
1.94963e-10
3.74764e-11
0.000129333
2.03786e-10
3.91514e-11
0.00012965
2.13601e-10
4.11617e-11
0.000129983
2.23255e-10
4.30546e-11
0.000130329
2.34289e-10
4.53218e-11
0.000130684
2.44781e-10
4.74965e-11
0.000131047
2.57286e-10
5.00181e-11
0.000131418
2.68555e-10
5.26414e-11
0.000131798
2.82906e-10
5.53553e-11
0.000132192
2.94749e-10
5.86467e-11
0.000132604
3.11539e-10
6.12924e-11
0.00013304
3.23487e-10
6.5856e-11
0.000133506
3.43715e-10
6.78571e-11
0.000134007
3.54755e-10
7.43421e-11
0.000134548
3.80178e-10
7.45089e-11
0.000135131
3.88226e-10
8.52148e-11
0.000135761
4.22098e-10
8.09821e-11
0.000136437
4.22977e-10
1.00387e-10
0.000137158
4.7151e-10
8.52288e-11
0.000137925
4.5686e-10
1.21915e-10
0.000138732
5.32269e-10
7.69318e-11
0.000139575
4.85311e-10
1.48313e-10
0.000140452
6.11946e-10
4.93573e-11
0.000141359
4.99216e-10
1.90798e-10
0.000142295
4.90774e-10
2.30313e-10
0.000143258
2.68134e-10
4.87635e-10
0.000144251
2.73621e-11
7.57344e-10
0.00014528
-4.58241e-12
8.29526e-10
0.000146352
-1.60031e-10
1.01458e-09
0.000147472
-7.57211e-14
9.01882e-10
0.000148647
-8.80246e-11
1.02864e-09
0.00014988
2.197e-11
9.73584e-10
0.000151175
-2.17376e-11
1.06493e-09
0.000152536
5.76652e-11
1.04674e-09
0.000153965
4.30729e-11
1.11689e-09
0.00015546
1.04455e-10
1.12234e-09
0.000157019
1.09267e-10
1.18056e-09
0.00015863
1.60699e-10
1.2016e-09
0.000160278
1.78755e-10
1.25399e-09
0.000161947
2.25383e-10
1.28583e-09
0.000163614
2.52832e-10
1.33636e-09
0.000165257
2.97899e-10
1.37626e-09
0.000166856
3.32377e-10
1.42752e-09
0.000168393
3.77914e-10
1.47395e-09
0.000169859
4.17996e-10
1.52762e-09
0.000171256
4.65258e-10
1.57983e-09
0.000172592
5.10109e-10
1.63703e-09
0.000173876
5.59872e-10
1.69467e-09
0.000175114
6.09018e-10
1.75612e-09
0.000176304
6.61766e-10
1.8191e-09
0.000177441
7.14934e-10
1.88531e-09
0.000178514
7.70955e-10
1.95368e-09
0.000179513
8.28009e-10
2.02504e-09
0.000180424
8.87498e-10
2.09892e-09
0.000181239
9.48394e-10
2.17577e-09
0.000181942
1.01152e-09
2.25542e-09
0.000182525
1.07631e-09
2.33813e-09
0.00018299
1.14327e-09
2.42391e-09
0.000183353
1.21212e-09
2.51294e-09
0.000183646
1.28319e-09
2.60535e-09
0.000183913
1.35636e-09
2.70131e-09
0.000184195
1.43186e-09
2.80097e-09
0.000184525
1.50967e-09
2.90451e-09
0.000184915
1.58991e-09
3.01209e-09
0.000185355
1.67263e-09
3.12388e-09
0.000185804
1.75789e-09
3.24003e-09
0.00018622
1.84576e-09
3.36073e-09
0.000186575
1.93631e-09
3.48615e-09
0.000186866
2.02962e-09
3.61651e-09
0.000187116
2.12576e-09
3.75202e-09
0.000187351
2.22484e-09
3.89294e-09
0.000187598
2.32694e-09
4.03951e-09
0.00018788
2.43216e-09
4.19198e-09
0.000188233
2.54056e-09
4.35062e-09
0.0001887
2.65223e-09
4.51566e-09
0.000189339
2.76717e-09
4.68733e-09
0.000190199
2.88542e-09
4.86581e-09
0.000191295
3.00689e-09
5.05124e-09
0.000192598
3.13156e-09
5.24371e-09
0.000194036
3.25925e-09
5.44326e-09
0.0001955
3.38988e-09
5.64994e-09
0.000196875
3.52327e-09
5.86379e-09
0.000198054
3.65932e-09
6.08485e-09
0.000198933
3.79789e-09
6.31325e-09
0.000199419
3.93894e-09
6.54917e-09
0.000199493
4.08247e-09
6.79299e-09
0.000199244
4.22854e-09
7.0451e-09
0.000198861
4.37726e-09
7.30613e-09
0.00019857
4.5287e-09
7.57655e-09
0.000198578
4.68295e-09
7.85704e-09
0.000199069
4.83987e-09
8.14782e-09
0.000200175
4.99939e-09
8.44936e-09
0.000201872
5.16107e-09
8.7615e-09
0.000203923
5.32479e-09
9.08461e-09
0.000205985
5.48982e-09
9.41824e-09
0.00020779
5.65623e-09
9.76301e-09
0.000209323
5.82301e-09
1.01182e-08
0.000210809
5.99061e-09
1.0485e-08
0.000212567
6.15754e-09
1.08622e-08
0.000214862
6.32473e-09
1.12514e-08
0.00021786