/*--------------------------------*- C++ -*----------------------------------*\
| =========                 |                                                 |
| \\      /  F ield         | OpenFOAM: The Open Source CFD Toolbox           |
|  \\    /   O peration     | Version:  2012                                  |
|   \\  /    A nd           | Website:  www.openfoam.com                      |
|    \\/     M anipulation  |                                                 |
\*---------------------------------------------------------------------------*/
FoamFile
{
    version     2.0;
    format      ascii;
    class       volVectorField;
    location    "14000";
    object      U;
}
// * * * * * * * * * * * * * * * * * * * * * * * * * * * * * * * * * * * * * //

dimensions      [0 1 -1 0 0 0 0];


internalField   nonuniform List<vector> 
2560
(
(0.0355847 -2.86542e-09 2.56427e-08)
(0.0355847 6.13075e-09 2.78085e-08)
(0.107071 6.57951e-09 3.95113e-08)
(0.107071 1.81714e-08 4.28354e-08)
(0.17939 2.53906e-08 4.06303e-08)
(0.17939 2.95382e-08 4.40228e-08)
(0.252544 3.61611e-08 4.13154e-08)
(0.252544 3.73522e-08 4.47064e-08)
(0.326528 3.15727e-08 4.03418e-08)
(0.326528 3.35815e-08 4.35329e-08)
(0.401334 1.2125e-08 3.65206e-08)
(0.401334 1.46548e-08 3.92201e-08)
(0.476951 -7.67843e-09 3.09005e-08)
(0.47695 -4.98641e-09 3.29529e-08)
(0.553368 -1.58511e-08 2.59546e-08)
(0.553368 -1.28954e-08 2.74386e-08)
(0.630586 -1.56643e-08 2.28812e-08)
(0.630586 -1.25398e-08 2.39637e-08)
(0.708614 -1.19369e-08 2.15864e-08)
(0.708614 -8.81937e-09 2.24057e-08)
(0.787479 -9.79478e-09 2.16672e-08)
(0.787479 -6.51551e-09 1.79479e-08)
(0.867222 -7.8439e-09 2.28129e-08)
(0.867222 -4.53731e-09 1.47004e-08)
(0.9479 -6.22073e-09 2.1309e-08)
(0.9479 -2.8421e-09 1.41965e-08)
(1.02958 -5.37289e-09 1.84582e-08)
(1.02958 -1.95439e-09 1.53916e-08)
(1.11236 -4.50773e-09 1.67673e-08)
(1.11236 -1.04229e-09 1.67673e-08)
(1.19632 -4.22514e-09 1.83201e-08)
(1.19632 -7.22977e-10 1.83201e-08)
(1.28159 -3.52266e-09 2.00521e-08)
(1.28159 1.56892e-11 2.00521e-08)
(1.36829 -3.22346e-09 2.19716e-08)
(1.36829 3.48266e-10 2.19716e-08)
(1.45654 -3.30219e-09 2.40796e-08)
(1.45654 3.00237e-10 2.40797e-08)
(1.5465 -2.98838e-09 2.63811e-08)
(1.5465 6.43781e-10 2.63812e-08)
(1.63831 -2.49889e-09 2.88926e-08)
(1.63831 1.16111e-09 2.88927e-08)
(1.73213 -2.69816e-09 3.16251e-08)
(1.73213 9.89974e-10 3.16252e-08)
(1.82812 -3.07807e-09 3.45779e-08)
(1.82812 6.35721e-10 3.45779e-08)
(1.92642 -2.18681e-09 3.7769e-08)
(1.92642 1.55246e-09 3.77691e-08)
(2.02721 -2.3517e-09 4.12227e-08)
(2.02721 1.41307e-09 4.12228e-08)
(2.13063 -2.62107e-09 4.49452e-08)
(2.13063 1.16827e-09 4.49452e-08)
(2.23683 -3.00301e-09 4.89404e-08)
(2.23683 8.11423e-10 4.89405e-08)
(2.34593 -1.83594e-09 5.3238e-08)
(2.34593 2.00051e-09 5.3238e-08)
(2.45807 -2.55153e-09 5.78642e-08)
(2.45807 1.31064e-09 5.78643e-08)
(2.57334 -2.4568e-09 6.28281e-08)
(2.57334 1.42901e-09 6.28281e-08)
(2.69183 -3.11702e-09 6.81408e-08)
(2.69183 7.92274e-10 6.81409e-08)
(2.8136 -1.76664e-09 7.38377e-08)
(2.8136 2.16602e-09 7.38377e-08)
(2.93869 -2.65066e-09 7.99527e-08)
(2.93869 1.30615e-09 7.99528e-08)
(3.06712 -2.75516e-09 8.6495e-08)
(3.06712 1.22672e-09 8.64951e-08)
(3.19886 -2.86439e-09 9.34894e-08)
(3.19886 1.14043e-09 9.34895e-08)
(3.33388 -1.97363e-09 1.00982e-07)
(3.33388 2.05609e-09 1.00982e-07)
(3.47209 -2.67522e-09 1.09012e-07)
(3.47209 1.37948e-09 1.09012e-07)
(3.61338 -2.98545e-09 1.17596e-07)
(3.61338 1.09425e-09 1.17596e-07)
(3.75762 -2.84483e-09 1.2677e-07)
(3.75762 1.26048e-09 1.2677e-07)
(3.90461 -2.26398e-09 1.36592e-07)
(3.90461 1.86733e-09 1.36592e-07)
(4.05415 -2.35652e-09 1.47118e-07)
(4.05415 1.80107e-09 1.47118e-07)
(4.20598 -3.24881e-09 1.5838e-07)
(4.20598 9.35628e-10 1.5838e-07)
(4.35981 -3.01856e-09 1.70417e-07)
(4.35981 1.19499e-09 1.70417e-07)
(4.51532 -1.76872e-09 1.83319e-07)
(4.51532 2.4703e-09 1.83319e-07)
(4.67213 -3.67791e-09 1.97136e-07)
(4.67213 5.93632e-10 1.97136e-07)
(4.82984 -1.60682e-09 2.11941e-07)
(4.82984 2.69038e-09 2.11941e-07)
(4.988 -4.72401e-09 2.27784e-07)
(4.988 -3.90341e-10 2.27784e-07)
(5.14612 -3.15024e-10 2.44771e-07)
(5.14612 4.04164e-09 2.44771e-07)
(5.30368 -2.62961e-09 2.6304e-07)
(5.30368 1.77076e-09 2.6304e-07)
(5.46011 -6.34245e-09 2.82542e-07)
(5.46011 -1.92261e-09 2.82542e-07)
(5.6148 -2.94469e-09 3.03358e-07)
(5.6148 1.52446e-09 3.03358e-07)
(5.76713 8.55748e-09 3.25946e-07)
(5.76713 1.30568e-08 3.25947e-07)
(5.91641 -2.23372e-08 3.49961e-07)
(5.91641 -1.78062e-08 3.49961e-07)
(6.06195 1.57503e-08 3.75664e-07)
(6.06195 2.03263e-08 3.75664e-07)
(6.20302 -1.36376e-08 4.03402e-07)
(6.20302 -9.03141e-09 4.03402e-07)
(6.33889 -1.99325e-09 4.32836e-07)
(6.33889 2.67958e-09 4.32836e-07)
(6.4688 4.69418e-09 4.6454e-07)
(6.4688 9.37944e-09 4.6454e-07)
(6.59202 -1.701e-08 4.98242e-07)
(6.59202 -1.22569e-08 4.98242e-07)
(6.70779 8.55211e-09 5.34122e-07)
(6.70779 1.33336e-08 5.34122e-07)
(6.81543 -1.16713e-08 5.72412e-07)
(6.81543 -6.82141e-09 5.72413e-07)
(6.91423 3.64642e-09 6.13044e-07)
(6.91423 8.52943e-09 6.13044e-07)
(7.00358 -8.5751e-09 6.56148e-07)
(7.00358 -3.62608e-09 6.56148e-07)
(7.08289 -1.52057e-08 7.01201e-07)
(7.08289 -1.0198e-08 7.01201e-07)
(7.15165 1.5683e-08 7.48847e-07)
(7.15165 2.07269e-08 7.48847e-07)
(7.20947 -2.19409e-08 7.98872e-07)
(7.20947 -1.68218e-08 7.98872e-07)
(7.256 -8.47775e-09 8.50467e-07)
(7.256 -3.28392e-09 8.50467e-07)
(7.29105 6.22294e-09 9.04329e-07)
(7.29105 1.14609e-08 9.04329e-07)
(7.31451 -3.464e-08 9.59557e-07)
(7.31451 -2.93205e-08 9.59557e-07)
(7.32641 3.19304e-08 1.01676e-06)
(7.32641 3.73161e-08 1.01676e-06)
(7.3269 -6.89752e-08 1.07478e-06)
(7.3269 -6.35156e-08 1.07478e-06)
(7.31626 4.99442e-08 1.134e-06)
(7.31626 5.54762e-08 1.134e-06)
(7.29489 -7.12414e-08 1.19432e-06)
(7.29489 -6.56228e-08 1.19432e-06)
(7.26332 3.4859e-08 1.25517e-06)
(7.26332 4.05566e-08 1.25517e-06)
(7.22215 -5.57833e-08 1.31713e-06)
(7.22215 -5.00035e-08 1.31713e-06)
(7.1721 1.87878e-08 1.3797e-06)
(7.1721 2.46664e-08 1.3797e-06)
(7.11395 -4.72652e-08 1.44332e-06)
(7.11395 -4.13213e-08 1.44332e-06)
(7.0485 -1.56346e-09 1.50745e-06)
(7.0485 4.50118e-09 1.50745e-06)
(6.97662 -2.19314e-08 1.57318e-06)
(6.97662 -1.57872e-08 1.57318e-06)
(6.89915 -3.01018e-08 1.63975e-06)
(6.89915 -2.38462e-08 1.63975e-06)
(6.81693 3.34027e-09 1.70827e-06)
(6.81693 9.67962e-09 1.70828e-06)
(6.73074 -6.12655e-08 1.77792e-06)
(6.73074 -5.48006e-08 1.77792e-06)
(6.64133 2.47658e-08 1.84965e-06)
(6.64133 3.13151e-08 1.84965e-06)
(6.5494 -6.82048e-08 1.9235e-06)
(6.5494 -6.15209e-08 1.9235e-06)
(6.45555 9.21376e-09 1.99905e-06)
(6.45555 1.59963e-08 1.99905e-06)
(6.36032 -4.76696e-08 2.0773e-06)
(6.36032 -4.07552e-08 2.0773e-06)
(6.26418 -3.20799e-10 2.15808e-06)
(6.26418 6.70439e-09 2.15808e-06)
(6.16754 -5.44659e-08 2.2413e-06)
(6.16754 -4.73044e-08 2.2413e-06)
(6.07072 3.42972e-09 2.32724e-06)
(6.07072 1.07095e-08 2.32724e-06)
(5.974 -6.28767e-08 2.41573e-06)
(5.974 -5.54458e-08 2.41573e-06)
(5.8776 1.24277e-09 2.50675e-06)
(5.8776 8.79138e-09 2.50676e-06)
(5.78172 -4.49152e-08 2.60123e-06)
(5.78172 -3.72009e-08 2.60123e-06)
(5.68649 -2.06346e-08 2.69834e-06)
(5.68649 -1.2783e-08 2.69834e-06)
(5.59203 -3.64887e-08 2.79855e-06)
(5.59203 -2.84831e-08 2.79855e-06)
(5.49844 -4.33063e-08 2.90095e-06)
(5.49844 -3.51244e-08 2.90095e-06)
(5.4058 4.19307e-09 3.00743e-06)
(5.4058 1.25153e-08 3.00743e-06)
(5.31415 -7.81886e-08 3.11658e-06)
(5.31415 -6.96815e-08 3.11658e-06)
(5.22356 -6.37077e-09 3.22791e-06)
(5.22356 2.30878e-09 3.22791e-06)
(5.13407 -3.86584e-08 3.34336e-06)
(5.13407 -2.97753e-08 3.34336e-06)
(5.0457 -5.20162e-08 3.46088e-06)
(5.0457 -4.29555e-08 3.46088e-06)
(4.9585 -5.19517e-09 3.58208e-06)
(4.9585 4.0537e-09 3.58208e-06)
(4.87248 -6.5002e-08 3.70647e-06)
(4.87248 -5.55329e-08 3.70647e-06)
(4.78767 -3.5614e-08 3.83257e-06)
(4.78767 -2.59178e-08 3.83257e-06)
(4.70408 -2.48866e-08 3.96237e-06)
(4.70408 -1.49918e-08 3.96237e-06)
(4.62174 -5.21504e-08 4.09515e-06)
(4.62174 -4.20121e-08 4.09515e-06)
(4.54064 -3.86339e-08 4.2302e-06)
(4.54064 -2.82439e-08 4.23021e-06)
(4.46081 -3.21979e-08 4.36859e-06)
(4.46081 -2.15751e-08 4.36859e-06)
(4.38224 -5.85135e-08 4.5093e-06)
(4.38224 -4.76099e-08 4.5093e-06)
(4.30494 -2.73444e-08 4.65256e-06)
(4.30494 -1.6192e-08 4.65256e-06)
(4.22892 -4.652e-08 4.79906e-06)
(4.22892 -3.50566e-08 4.79906e-06)
(4.15416 -6.5598e-08 4.94667e-06)
(4.15416 -5.38481e-08 4.94667e-06)
(4.08066 -6.47197e-09 5.09752e-06)
(4.08066 5.56544e-09 5.09752e-06)
(4.00843 -7.8177e-08 5.251e-06)
(4.00843 -6.57902e-08 5.251e-06)
(3.93744 -3.21375e-08 5.40551e-06)
(3.93744 -1.94396e-08 5.40551e-06)
(3.86769 -3.96421e-08 5.56324e-06)
(3.86769 -2.65631e-08 5.56324e-06)
(3.79917 -7.66325e-08 5.72154e-06)
(3.79917 -6.32229e-08 5.72154e-06)
(3.73186 2.31539e-09 5.88276e-06)
(3.73186 1.61149e-08 5.88276e-06)
(3.66575 -1.0646e-07 6.04513e-06)
(3.66575 -9.22521e-08 6.04513e-06)
(3.60083 1.81073e-08 6.20942e-06)
(3.60083 3.2703e-08 6.20942e-06)
(3.53708 -1.30704e-07 6.3741e-06)
(3.53708 -1.15636e-07 6.3741e-06)
(3.47447 3.71104e-08 6.54009e-06)
(3.47447 5.2573e-08 6.54009e-06)
(3.413 -1.19434e-07 6.70817e-06)
(3.413 -1.03448e-07 6.70817e-06)
(3.35264 -5.10985e-10 6.87564e-06)
(3.35264 1.59264e-08 6.87564e-06)
(3.29338 -7.06954e-08 7.04563e-06)
(3.29338 -5.37286e-08 7.04563e-06)
(3.2352 -6.14955e-08 7.2139e-06)
(3.2352 -4.39642e-08 7.2139e-06)
(3.17808 -1.39798e-08 7.38406e-06)
(3.17808 4.04691e-09 7.38406e-06)
(3.122 -9.36695e-08 7.55384e-06)
(3.122 -7.49911e-08 7.55384e-06)
(3.06695 -1.75137e-08 7.72269e-06)
(3.06695 1.72289e-09 7.72269e-06)
(3.01291 -5.94471e-08 7.89291e-06)
(3.01291 -3.95366e-08 7.89291e-06)
(2.95987 -6.27056e-08 8.06108e-06)
(2.95987 -4.21153e-08 8.06109e-06)
(2.90783 -3.89246e-08 8.22839e-06)
(2.90783 -1.76928e-08 8.22839e-06)
(2.85676 -5.12117e-08 8.39552e-06)
(2.85676 -2.9163e-08 8.39552e-06)
(2.80667 -5.12809e-08 8.56134e-06)
(2.80667 -2.85606e-08 8.56134e-06)
(2.75755 -6.49195e-08 8.72455e-06)
(2.75755 -4.12778e-08 8.72455e-06)
(2.70938 -3.91097e-08 8.88575e-06)
(2.70938 -1.47871e-08 8.88575e-06)
(2.66218 -5.49091e-08 9.0455e-06)
(2.66218 -2.9507e-08 9.04551e-06)
(2.61592 -5.22706e-08 9.20251e-06)
(2.61592 -2.61906e-08 9.20251e-06)
(2.57062 -5.58049e-08 9.35638e-06)
(2.57062 -2.84565e-08 9.35638e-06)
(2.52625 -5.09761e-08 9.5069e-06)
(2.52625 -2.30125e-08 9.5069e-06)
(2.48281 -5.92081e-08 9.65345e-06)
(2.48281 -2.9672e-08 9.65346e-06)
(2.44031 -4.75103e-08 9.79597e-06)
(2.44031 -1.75364e-08 9.79597e-06)
(2.39873 -5.23168e-08 9.93472e-06)
(2.39873 -2.03147e-08 9.93473e-06)
(2.35807 -5.61288e-08 1.00686e-05)
(2.35807 -2.40264e-08 1.00686e-05)
(2.31832 -4.40894e-08 1.01981e-05)
(2.31832 -9.2795e-09 1.01981e-05)
(2.27949 -7.44729e-08 1.03211e-05)
(2.27949 -4.01651e-08 1.03211e-05)
(2.24157 -2.4635e-08 1.0439e-05)
(2.24157 1.34428e-08 1.0439e-05)
(2.20456 -7.56068e-08 1.05513e-05)
(2.20456 -3.91398e-08 1.05513e-05)
(2.16848 -4.17715e-08 1.06561e-05)
(2.16848 2.54095e-10 1.06562e-05)
(2.13331 -5.11104e-08 1.07554e-05)
(2.13331 -1.26991e-08 1.07553e-05)
(2.09906 -5.85919e-08 1.0847e-05)
(2.09906 -1.16916e-08 1.08471e-05)
(2.06573 -4.52891e-08 1.09313e-05)
(2.06573 -5.43575e-09 1.09313e-05)
(2.03333 -6.92244e-08 1.10067e-05)
(2.03333 -1.60338e-08 1.10068e-05)
(2.00186 -3.57977e-08 1.10738e-05)
(2.00186 4.43753e-09 1.10737e-05)
(1.97132 -8.3805e-08 1.11305e-05)
(1.97132 -2.21069e-08 1.11306e-05)
(1.94172 -1.60089e-08 1.11785e-05)
(1.94172 2.25863e-08 1.11784e-05)
(1.91305 -1.17988e-07 1.12138e-05)
(1.91305 -4.42101e-08 1.1214e-05)
(1.88532 2.51492e-08 1.124e-05)
(1.88532 5.84106e-08 1.12398e-05)
(1.85851 -1.70556e-07 1.12512e-05)
(1.85851 -7.88463e-08 1.12515e-05)
(1.83263 6.87291e-08 1.12513e-05)
(1.83263 9.00946e-08 1.1251e-05)
(1.80766 -2.02686e-07 1.12364e-05)
(1.80766 -8.33107e-08 1.12369e-05)
(1.78356 9.01946e-08 1.12081e-05)
(1.78356 8.80896e-08 1.12076e-05)
(1.76031 -2.48936e-07 1.11609e-05)
(1.76031 -8.53643e-08 1.11617e-05)
(1.73784 1.73281e-07 1.11032e-05)
(1.73784 1.27241e-07 1.11022e-05)
(1.71611 -3.8752e-07 1.10191e-05)
(1.71611 -1.51344e-07 1.10204e-05)
(1.69504 3.45901e-07 1.09273e-05)
(1.69504 2.19883e-07 1.09255e-05)
(1.67456 -6.06365e-07 1.08025e-05)
(1.67456 -2.48408e-07 1.08049e-05)
(1.6546 6.34545e-07 1.06776e-05)
(1.6546 3.65209e-07 1.06744e-05)
(1.63507 -1.05547e-06 1.04991e-05)
(1.63507 -4.90215e-07 1.05036e-05)
(1.61593 1.24264e-06 1.03394e-05)
(1.61593 7.18552e-07 1.03335e-05)
(1.59711 -1.8073e-06 1.01074e-05)
(1.59711 -8.85249e-07 1.01153e-05)
(1.57859 2.15954e-06 9.915e-06)
(1.57859 1.18431e-06 9.90439e-06)
(1.56037 -3.01788e-06 9.61176e-06)
(1.56037 -1.4759e-06 9.62612e-06)
(1.54246 3.72043e-06 9.39391e-06)
(1.54246 1.94595e-06 9.37464e-06)
(1.52489 -5.00052e-06 9.00897e-06)
(1.52489 -2.37255e-06 9.03508e-06)
(1.50772 6.19426e-06 8.77597e-06)
(1.50772 3.00106e-06 8.74078e-06)
(1.491 -8.14183e-06 8.28427e-06)
(1.491 -3.59753e-06 8.33203e-06)
(1.47477 1.02363e-05 8.07071e-06)
(1.47477 4.51541e-06 8.00608e-06)
(1.45909 -1.33788e-05 7.43015e-06)
(1.45909 -5.42887e-06 7.51804e-06)
(1.44398 1.69769e-05 7.28444e-06)
(1.44398 6.73191e-06 7.16506e-06)
(1.42946 -2.20893e-05 6.42615e-06)
(1.42946 -8.04571e-06 6.58892e-06)
(1.41553 2.82382e-05 6.44109e-06)
(1.41553 9.85072e-06 6.21918e-06)
(1.40219 -3.67894e-05 5.22958e-06)
(1.40219 -1.17661e-05 5.53309e-06)
(1.38941 4.7427e-05 5.57581e-06)
(1.38941 1.42942e-05 5.16047e-06)
(1.37714 -6.1918e-05 3.78174e-06)
(1.37714 -1.69684e-05 4.35171e-06)
(1.36535 8.02461e-05 4.75131e-06)
(1.36535 2.02314e-05 3.9683e-06)
(1.35396 -0.000104931 1.96587e-06)
(1.35396 -2.35456e-05 3.04425e-06)
(1.34294 0.000136598 4.09646e-06)
(1.34294 2.72229e-05 2.60913e-06)
(1.33224 -0.000178978 9.68444e-07)
(1.33224 -3.05668e-05 1.62508e-06)
(1.32184 0.00020007 2.28529e-06)
(1.32184 3.365e-05 1.02896e-06)
(1.31171 -0.000235327 1.25221e-07)
(1.31171 -3.59094e-05 1.78895e-06)
(1.30188 0.000238452 -1.58992e-18)
(1.30188 3.68304e-05 1.89344e-06)
(1.29237 -0.000211775 2.14014e-06)
(1.29237 -3.7129e-05 8.27408e-07)
(1.28324 0.000197291 9.70193e-07)
(1.28324 3.53923e-05 1.6777e-06)
(1.27453 -0.000156577 4.77573e-06)
(1.27453 -3.38133e-05 2.91611e-06)
(1.26627 0.000124244 2.25148e-06)
(1.26627 3.05033e-05 3.70145e-06)
(1.25848 -9.83704e-05 6.2889e-06)
(1.25848 -2.80328e-05 5.16284e-06)
(1.25116 7.79509e-05 5.13164e-06)
(1.25116 2.43628e-05 6.0042e-06)
(1.24433 -6.16e-05 8.25741e-06)
(1.24433 -2.18939e-05 7.58447e-06)
(1.23798 4.86734e-05 8.02393e-06)
(1.23798 1.83951e-05 8.54211e-06)
(1.23209 -3.83955e-05 1.05938e-05)
(1.23209 -1.63479e-05 1.01972e-05)
(1.22661 3.02625e-05 1.10048e-05)
(1.22661 1.33337e-05 1.13083e-05)
(1.22143 -2.39635e-05 1.32386e-05)
(1.22143 -1.19516e-05 1.30083e-05)
(1.21643 1.88439e-05 1.41167e-05)
(1.21643 9.45292e-06 1.42919e-05)
(1.21148 -1.50186e-05 1.61769e-05)
(1.21148 -8.62504e-06 1.60453e-05)
(1.20641 1.16952e-05 1.73873e-05)
(1.20641 6.49995e-06 1.7487e-05)
(1.20106 -9.42564e-06 1.93779e-05)
(1.20106 -6.12844e-06 1.93039e-05)
(1.1953 7.273e-06 2.08376e-05)
(1.1953 4.3806e-06 2.08936e-05)
(1.18902 -6.00745e-06 2.27984e-05)
(1.18902 -4.3888e-06 2.27575e-05)
(1.18218 4.52084e-06 2.44295e-05)
(1.18218 2.8766e-06 2.44606e-05)
(1.17482 -3.8752e-06 2.63865e-05)
(1.17482 -3.15114e-06 2.63643e-05)
(1.16702 2.68057e-06 2.81299e-05)
(1.16702 1.70687e-06 2.81471e-05)
(1.15885 -2.46196e-06 3.01043e-05)
(1.15885 -2.20584e-06 3.00924e-05)
(1.15037 1.47153e-06 3.19379e-05)
(1.15037 8.56022e-07 3.19473e-05)
(1.14159 -1.58915e-06 3.3924e-05)
(1.14159 -1.57036e-06 3.39179e-05)
(1.13248 7.30988e-07 3.58207e-05)
(1.13248 3.06768e-07 3.58259e-05)
(1.123 -1.09989e-06 3.7806e-05)
(1.123 -1.19665e-06 3.7803e-05)
(1.11309 1.71341e-07 3.97335e-05)
(1.11309 -1.48209e-07 3.97364e-05)
(1.10271 -8.67989e-07 4.17379e-05)
(1.10271 -1.017e-06 4.17366e-05)
(1.09181 -1.57534e-07 4.37428e-05)
(1.09181 -4.16649e-07 4.37445e-05)
(1.08034 -8.12952e-07 4.58274e-05)
(1.08034 -9.81642e-07 4.58269e-05)
(1.06827 -2.83274e-07 4.79663e-05)
(1.06827 -5.04214e-07 4.79675e-05)
(1.05564 -8.79402e-07 5.01883e-05)
(1.05564 -1.05079e-06 5.01883e-05)
(1.04257 -4.34146e-07 5.25023e-05)
(1.04257 -6.28214e-07 5.25031e-05)
(1.02927 -8.85611e-07 5.4945e-05)
(1.02927 -1.05061e-06 5.49451e-05)
(1.01599 -5.681e-07 5.75057e-05)
(1.01599 -7.40728e-07 5.75063e-05)
(1.00297 -6.89259e-07 6.021e-05)
(1.00297 -8.43031e-07 6.02103e-05)
(0.990361 -7.4429e-07 6.29782e-05)
(0.990361 -8.9797e-07 6.29787e-05)
(0.978231 -5.08196e-07 6.58357e-05)
(0.978231 -6.47772e-07 6.5836e-05)
(0.966502 -9.52337e-07 6.8698e-05)
(0.966502 -1.08781e-06 6.86984e-05)
(0.954956 -7.37378e-07 7.15952e-05)
(0.954956 -8.6141e-07 7.15955e-05)
(0.943378 -9.63931e-07 7.45735e-05)
(0.943378 -1.08112e-06 7.45738e-05)
(0.931628 -1.1489e-06 7.76122e-05)
(0.931628 -1.256e-06 7.76124e-05)
(0.919708 -8.57553e-07 8.08234e-05)
(0.919708 -9.56178e-07 8.08237e-05)
(0.907739 -1.36633e-06 8.41548e-05)
(0.907739 -1.45542e-06 8.4155e-05)
(0.895852 -9.20698e-07 8.76524e-05)
(0.895852 -1.00036e-06 8.76526e-05)
(0.884175 -1.3487e-06 9.13127e-05)
(0.884175 -1.41866e-06 9.1313e-05)
(0.872815 -1.10516e-06 9.50937e-05)
(0.872815 -1.16524e-06 9.50939e-05)
(0.861918 -1.408e-06 9.90185e-05)
(0.861918 -1.45783e-06 9.90187e-05)
(0.851674 -1.42709e-06 0.000103057)
(0.851674 -1.4668e-06 0.000103057)
(0.842309 -1.28554e-06 0.000107264)
(0.842309 -1.31427e-06 0.000107264)
(0.834009 -1.51244e-06 0.000111526)
(0.834009 -1.53069e-06 0.000111526)
(0.826793 -1.31423e-06 0.000115793)
(0.826793 -1.32115e-06 0.000115794)
(0.820495 -1.56734e-06 0.000119992)
(0.820495 -1.56306e-06 0.000119992)
(0.814772 -1.58672e-06 0.000124057)
(0.814772 -1.57088e-06 0.000124057)
(0.809154 -1.84292e-06 0.000128015)
(0.809154 -1.81534e-06 0.000128015)
(0.803163 -1.72944e-06 0.000131911)
(0.803163 -1.68977e-06 0.000131911)
(0.796392 -1.9311e-06 0.000135755)
(0.796392 -1.87938e-06 0.000135754)
(0.788457 -2.0013e-06 0.000139547)
(0.788458 -1.93711e-06 0.000139547)
(0.779054 -2.14678e-06 0.000143386)
(0.779054 -2.07005e-06 0.000143386)
(0.76817 -2.18668e-06 0.000147366)
(0.76817 -2.09716e-06 0.000147365)
(0.756214 -2.37617e-06 0.000151569)
(0.756214 -2.27352e-06 0.000151568)
(0.743942 -2.07288e-06 0.000156074)
(0.743942 -1.95728e-06 0.000156073)
(0.732208 -2.56298e-06 0.000160769)
(0.732208 -2.43358e-06 0.000160768)
(0.721743 -2.27794e-06 0.000165608)
(0.721743 -2.13498e-06 0.000165607)
(0.71316 -2.71553e-06 0.000170515)
(0.71316 -2.55829e-06 0.000170515)
(0.706847 -2.26752e-06 0.000175364)
(0.706847 -2.0963e-06 0.000175364)
(0.702622 -2.87418e-06 0.000179962)
(0.702622 -2.68786e-06 0.000179962)
(0.699591 -2.43245e-06 0.000184216)
(0.699591 -2.23174e-06 0.000184215)
(0.696538 -3.27431e-06 0.000188075)
(0.696538 -3.05813e-06 0.000188074)
(0.692572 -2.99419e-06 0.000191623)
(0.692572 -2.76263e-06 0.000191622)
(0.687685 -3.62391e-06 0.000195048)
(0.687685 -3.37709e-06 0.000195047)
(0.682643 -3.69277e-06 0.000198427)
(0.682643 -3.42948e-06 0.000198425)
(0.678473 -3.42812e-06 0.000201996)
(0.678473 -3.14973e-06 0.000201995)
(0.675973 -4.13583e-06 0.000205531)
(0.675973 -3.84046e-06 0.00020553)
(0.675587 -3.53058e-06 0.000209121)
(0.675587 -3.21958e-06 0.00020912)
(0.677544 -3.81798e-06 0.000212726)
(0.677544 -3.48998e-06 0.000212725)
(0.681635 -3.54111e-06 0.000216111)
(0.681635 -3.19719e-06 0.000216109)
(0.687233 -3.94043e-06 0.00021922)
(0.687233 -3.57932e-06 0.000219218)
(0.693672 -3.73462e-06 0.000222036)
(0.693672 -3.3574e-06 0.000222034)
(0.700455 -4.45661e-06 0.000224552)
(0.700454 -4.06242e-06 0.00022455)
(0.707175 -4.46372e-06 0.000226908)
(0.707175 -4.05277e-06 0.000226906)
(0.713372 -5.03047e-06 0.00022935)
(0.713372 -4.6031e-06 0.000229347)
(0.718471 -4.6674e-06 0.000232029)
(0.718471 -4.22311e-06 0.000232027)
(0.72196 -5.01982e-06 0.000234886)
(0.72196 -4.55915e-06 0.000234883)
(0.723485 -4.69138e-06 0.000237731)
(0.723485 -4.21424e-06 0.000237728)
(0.722896 -5.47168e-06 0.000240411)
(0.722896 -4.97835e-06 0.000240407)
(0.720322 -5.00378e-06 0.000243046)
(0.720322 -4.49439e-06 0.000243043)
(0.715902 -5.89134e-06 0.000245713)
(0.715902 -5.36653e-06 0.000245709)
(0.709588 -5.2609e-06 0.000248569)
(0.709588 -4.72066e-06 0.000248565)
(0.701584 -6.28706e-06 0.000251685)
(0.701584 -5.73249e-06 0.000251681)
(0.69247 -5.47366e-06 0.0002552)
(0.69247 -4.90464e-06 0.000255196)
(0.682682 -6.46697e-06 0.000259119)
(0.682682 -5.88503e-06 0.000259115)
(0.672089 -5.31109e-06 0.000263415)
(0.672089 -4.71642e-06 0.000263411)
(0.660021 -7.10138e-06 0.000267856)
(0.660021 -6.49555e-06 0.000267852)
(0.645951 -5.35074e-06 0.000272793)
(0.645951 -4.73441e-06 0.000272789)
(0.630085 -7.57077e-06 0.000278211)
(0.630085 -6.94603e-06 0.000278207)
(0.613253 -5.34736e-06 0.000284359)
(0.613253 -4.71499e-06 0.000284354)
(0.596426 -8.17045e-06 0.000291082)
(0.596426 -7.53362e-06 0.000291078)
(0.580187 -5.45059e-06 0.00029858)
(0.580187 -4.81e-06 0.000298575)
(0.565142 -8.8454e-06 0.000306602)
(0.565142 -8.2061e-06 0.000306597)
(0.552768 -5.492e-06 0.000315193)
(0.552768 -4.85419e-06 0.000315188)
(0.544922 -9.89685e-06 0.000323733)
(0.544922 -9.26897e-06 0.000323728)
(0.54244 -5.2493e-06 0.000332367)
(0.54244 -4.63021e-06 0.000332362)
(0.544242 -1.08544e-05 0.000340344)
(0.544242 -1.02587e-05 0.000340339)
(0.547642 -5.26894e-06 0.000348064)
(0.547642 -4.6919e-06 0.000348059)
(0.549495 -1.2793e-05 0.000355116)
(0.549495 -1.22603e-05 0.000355111)
(0.547551 -4.68087e-06 0.00036277)
(0.547551 -4.18002e-06 0.000362765)
(0.541503 -1.36224e-05 0.000370193)
(0.541503 -1.31994e-05 0.000370188)
(0.532642 -3.44627e-06 0.000378009)
(0.532642 -3.07057e-06 0.000378007)
(0.522719 -1.53084e-05 0.000384812)
(0.522719 -1.50643e-05 0.000384808)
(0.513294 -1.67957e-06 0.000391841)
(0.513294 -1.49696e-06 0.000391842)
(0.505431 -1.69113e-05 0.000396721)
(0.505431 -1.69487e-05 0.000396717)
(0.499443 -5.33057e-07 0.000400389)
(0.499443 -6.37249e-07 0.000400395)
(0.494881 -2.02769e-05 0.000400631)
(0.494881 -2.07495e-05 0.000400628)
(0.491372 2.58176e-07 0.000400244)
(0.491372 -2.60687e-07 0.000400261)
(0.489846 -2.37469e-05 0.000397191)
(0.489846 -2.4889e-05 0.000397188)
(0.491742 2.4749e-06 0.000394923)
(0.491742 1.36926e-06 0.00039496)
(0.496964 -2.60227e-05 0.000390007)
(0.496964 -2.81949e-05 0.000390002)
(0.504156 5.79462e-06 0.000385647)
(0.504156 3.87179e-06 0.000385722)
(0.511282 -2.87767e-05 0.00037671)
(0.511282 -3.25454e-05 0.000376694)
(0.516259 8.04373e-06 0.000367321)
(0.516259 4.98225e-06 0.000367472)
(0.518263 -3.11803e-05 0.000352238)
(0.518263 -3.7434e-05 0.000352192)
(0.51812 9.81501e-06 0.000336489)
(0.51812 5.10213e-06 0.000336782)
(0.517058 -3.23316e-05 0.000314431)
(0.517058 -4.23302e-05 0.000314314)
(0.514718 1.14671e-05 0.000291948)
(0.514718 4.02896e-06 0.00029249)
(0.510165 -3.07658e-05 0.000262478)
(0.510165 -4.57282e-05 0.000262241)
(0.504164 9.81101e-06 0.000231538)
(0.504164 -3.50786e-06 0.000232445)
(0.499542 -2.50208e-05 0.000195076)
(0.499542 -4.37041e-05 0.000194794)
(0.498498 1.02978e-05 0.000156513)
(0.498498 -8.43343e-06 0.000157648)
(0.499906 -1.67599e-05 0.000110431)
(0.499906 -3.07077e-05 0.000110301)
(0.501225 1.09759e-05 5.82716e-05)
(0.501225 3.06311e-07 5.90191e-05)
(0.0355847 6.22124e-09 -3.85256e-11)
(0.0355847 6.14603e-09 -1.70867e-08)
(0.107071 1.8542e-08 -3.8923e-10)
(0.107071 1.82472e-08 -2.62938e-08)
(0.17939 3.02178e-08 -1.31918e-09)
(0.17939 2.97305e-08 -2.69008e-08)
(0.252544 3.84162e-08 -3.10221e-09)
(0.252544 3.76055e-08 -2.69155e-08)
(0.326528 3.50021e-08 -5.66233e-09)
(0.326528 3.38892e-08 -2.53298e-08)
(0.401334 1.63476e-08 -8.25237e-09)
(0.401334 1.50444e-08 -2.14267e-08)
(0.47695 -3.01783e-09 -9.98559e-09)
(0.47695 -4.463e-09 -1.62895e-08)
(0.553368 -1.07443e-08 -1.08241e-08)
(0.553368 -1.23996e-08 -1.17792e-08)
(0.630586 -1.0254e-08 -1.12799e-08)
(0.630586 -1.20342e-08 -1.128e-08)
(0.708614 -6.43146e-09 -1.17442e-08)
(0.708614 -8.2136e-09 -1.17441e-08)
(0.787479 -4.04729e-09 -1.23709e-08)
(0.787479 -5.94773e-09 -1.23709e-08)
(0.867222 -2.00361e-09 -1.31876e-08)
(0.867222 -3.92772e-09 -1.31876e-08)
(0.9479 -2.52724e-10 -1.41965e-08)
(0.9479 -2.23065e-09 -1.41965e-08)
(1.02958 6.8367e-10 -1.53916e-08)
(1.02958 -1.32607e-09 -1.53916e-08)
(1.11236 1.63833e-09 -1.67673e-08)
(1.11236 -4.06566e-10 -1.67673e-08)
(1.19632 1.99767e-09 -1.83201e-08)
(1.19632 -7.64769e-11 -1.83201e-08)
(1.28159 2.77111e-09 -2.00521e-08)
(1.28159 6.69793e-10 -2.00521e-08)
(1.36829 3.13757e-09 -2.19716e-08)
(1.36829 1.01082e-09 -2.19716e-08)
(1.45654 3.12212e-09 -2.40797e-08)
(1.45654 9.69906e-10 -2.40797e-08)
(1.5465 3.494e-09 -2.63812e-08)
(1.5465 1.32073e-09 -2.63812e-08)
(1.63831 4.04027e-09 -2.88926e-08)
(1.63831 1.8447e-09 -2.88927e-08)
(1.73213 3.89875e-09 -3.16252e-08)
(1.73213 1.68018e-09 -3.16252e-08)
(1.82812 3.56801e-09 -3.45779e-08)
(1.82812 1.33219e-09 -3.45779e-08)
(1.92642 4.51316e-09 -3.77691e-08)
(1.92642 2.25514e-09 -3.77691e-08)
(2.02721 4.39912e-09 -4.12227e-08)
(2.02721 2.12175e-09 -4.12227e-08)
(2.13063 4.17867e-09 -4.49452e-08)
(2.13063 1.88292e-09 -4.49452e-08)
(2.23683 3.84722e-09 -4.89404e-08)
(2.23683 1.53192e-09 -4.89404e-08)
(2.34593 5.06009e-09 -5.3238e-08)
(2.34593 2.72684e-09 -5.3238e-08)
(2.45807 4.39614e-09 -5.78642e-08)
(2.45807 2.04272e-09 -5.78642e-08)
(2.57334 4.53777e-09 -6.28281e-08)
(2.57334 2.16688e-09 -6.28281e-08)
(2.69183 3.92509e-09 -6.81409e-08)
(2.69183 1.53586e-09 -6.81409e-08)
(2.8136 5.32394e-09 -7.38377e-08)
(2.8136 2.91543e-09 -7.38377e-08)
(2.93869 4.48844e-09 -7.99528e-08)
(2.93869 2.0613e-09 -7.99528e-08)
(3.06712 4.43341e-09 -8.6495e-08)
(3.06712 1.98779e-09 -8.6495e-08)
(3.19886 4.37193e-09 -9.34894e-08)
(3.19886 1.9073e-09 -9.34894e-08)
(3.33388 5.31289e-09 -1.00982e-07)
(3.33388 2.82906e-09 -1.00982e-07)
(3.47209 4.66153e-09 -1.09012e-07)
(3.47209 2.15832e-09 -1.09012e-07)
(3.61338 4.40242e-09 -1.17596e-07)
(3.61338 1.87944e-09 -1.17596e-07)
(3.75762 4.59414e-09 -1.2677e-07)
(3.75762 2.05163e-09 -1.2677e-07)
(3.90461 5.228e-09 -1.36592e-07)
(3.90461 2.66519e-09 -1.36592e-07)
(4.05415 5.18994e-09 -1.47118e-07)
(4.05415 2.60497e-09 -1.47118e-07)
(4.20598 4.34961e-09 -1.5838e-07)
(4.20598 1.74673e-09 -1.5838e-07)
(4.35981 4.64045e-09 -1.70417e-07)
(4.35981 2.01214e-09 -1.70417e-07)
(4.51532 5.9423e-09 -1.83319e-07)
(4.51532 3.29536e-09 -1.83319e-07)
(4.67213 4.09651e-09 -1.97136e-07)
(4.67213 1.42459e-09 -1.97136e-07)
(4.82984 6.22447e-09 -2.11941e-07)
(4.82984 3.53031e-09 -2.11941e-07)
(4.988 3.17319e-09 -2.27784e-07)
(4.988 4.5501e-10 -2.27784e-07)
(5.14612 7.63834e-09 -2.44771e-07)
(5.14612 4.89762e-09 -2.44771e-07)
(5.30368 5.4031e-09 -2.6304e-07)
(5.30368 2.63104e-09 -2.6304e-07)
(5.46011 1.73958e-09 -2.82542e-07)
(5.46011 -1.04878e-09 -2.82542e-07)
(5.6148 5.22634e-09 -3.03357e-07)
(5.6148 2.40097e-09 -3.03357e-07)
(5.76713 1.67951e-08 -3.25946e-07)
(5.76713 1.39444e-08 -3.25946e-07)
(5.91641 -1.40343e-08 -3.49961e-07)
(5.91641 -1.6907e-08 -3.4996e-07)
(6.06195 2.41427e-08 -3.75664e-07)
(6.06195 2.1234e-08 -3.75664e-07)
(6.20302 -5.17481e-09 -4.03402e-07)
(6.20302 -8.11014e-09 -4.03402e-07)
(6.33889 6.57553e-09 -4.32836e-07)
(6.33889 3.59598e-09 -4.32836e-07)
(6.4688 1.33272e-08 -4.6454e-07)
(6.4688 1.03261e-08 -4.64539e-07)
(6.59202 -8.27508e-09 -4.98242e-07)
(6.59202 -1.13097e-08 -4.98242e-07)
(6.7078 1.73761e-08 -5.34121e-07)
(6.7078 1.42967e-08 -5.34121e-07)
(6.81543 -2.73672e-09 -5.72412e-07)
(6.81543 -5.85049e-09 -5.72412e-07)
(6.91424 1.26683e-08 -6.13043e-07)
(6.91424 9.519e-09 -6.13043e-07)
(7.00358 5.68722e-10 -6.56147e-07)
(7.00358 -2.62576e-09 -6.56147e-07)
(7.08289 -5.94615e-09 -7.01201e-07)
(7.08289 -9.19556e-09 -7.012e-07)
(7.15165 2.50352e-08 -7.48847e-07)
(7.15165 2.17738e-08 -7.48847e-07)
(7.20947 -1.24527e-08 -7.98872e-07)
(7.20947 -1.57876e-08 -7.98872e-07)
(7.25601 1.15681e-09 -8.50466e-07)
(7.25601 -2.22419e-09 -8.50466e-07)
(7.29105 1.59609e-08 -9.04328e-07)
(7.29105 1.2537e-08 -9.04328e-07)
(7.31451 -2.47466e-08 -9.59556e-07)
(7.31451 -2.82285e-08 -9.59556e-07)
(7.32641 4.19623e-08 -1.01676e-06)
(7.32641 3.84342e-08 -1.01676e-06)
(7.3269 -5.8799e-08 -1.07478e-06)
(7.3269 -6.23972e-08 -1.07478e-06)
(7.31626 6.02814e-08 -1.134e-06)
(7.31626 5.66416e-08 -1.134e-06)
(7.2949 -6.07504e-08 -1.19432e-06)
(7.2949 -6.44664e-08 -1.19432e-06)
(7.26332 4.55257e-08 -1.25517e-06)
(7.26332 4.1758e-08 -1.25517e-06)
(7.22215 -4.49571e-08 -1.31713e-06)
(7.22215 -4.88008e-08 -1.31713e-06)
(7.17211 2.9807e-08 -1.3797e-06)
(7.17211 2.59067e-08 -1.3797e-06)
(7.11395 -3.60892e-08 -1.44332e-06)
(7.11395 -4.00638e-08 -1.44332e-06)
(7.04851 9.82535e-09 -1.50745e-06)
(7.04851 5.78386e-09 -1.50745e-06)
(6.97662 -1.03591e-08 -1.57318e-06)
(6.97662 -1.44847e-08 -1.57318e-06)
(6.89915 -1.83228e-08 -1.63975e-06)
(6.89915 -2.25151e-08 -1.63975e-06)
(6.81693 1.53129e-08 -1.70827e-06)
(6.81693 1.10438e-08 -1.70827e-06)
(6.73074 -4.9068e-08 -1.77792e-06)
(6.73074 -5.34249e-08 -1.77792e-06)
(6.64134 3.71708e-08 -1.84965e-06)
(6.64134 3.27402e-08 -1.84965e-06)
(6.5494 -5.55661e-08 -1.9235e-06)
(6.5494 -6.00876e-08 -1.9235e-06)
(6.45555 2.208e-08 -1.99904e-06)
(6.45555 1.74753e-08 -1.99904e-06)
(6.36032 -3.45529e-08 -2.0773e-06)
(6.36032 -3.92612e-08 -2.0773e-06)
(6.26419 1.30317e-08 -2.15808e-06)
(6.26419 8.24698e-09 -2.15808e-06)
(6.16754 -4.08518e-08 -2.2413e-06)
(6.16754 -4.57432e-08 -2.2413e-06)
(6.07072 1.73076e-08 -2.32724e-06)
(6.07072 1.23167e-08 -2.32724e-06)
(5.974 -4.87273e-08 -2.41573e-06)
(5.974 -5.38167e-08 -2.41573e-06)
(5.87761 1.56696e-08 -2.50675e-06)
(5.87761 1.04769e-08 -2.50675e-06)
(5.78172 -3.01835e-08 -2.60123e-06)
(5.78172 -3.55023e-08 -2.60123e-06)
(5.68649 -5.61474e-09 -2.69834e-06)
(5.68649 -1.10244e-08 -2.69834e-06)
(5.59204 -2.11465e-08 -2.79855e-06)
(5.59204 -2.66969e-08 -2.79855e-06)
(5.49845 -2.76346e-08 -2.90095e-06)
(5.49845 -3.3297e-08 -2.90095e-06)
(5.4058 2.01838e-08 -3.00743e-06)
(5.4058 1.4399e-08 -3.00743e-06)
(5.31416 -6.18469e-08 -3.11658e-06)
(5.31416 -6.77641e-08 -3.11658e-06)
(5.22357 1.03353e-08 -3.22791e-06)
(5.22357 4.28156e-09 -3.22791e-06)
(5.13407 -2.15624e-08 -3.34336e-06)
(5.13407 -2.77677e-08 -3.34336e-06)
(5.04571 -3.45486e-08 -3.46088e-06)