/*--------------------------------*- C++ -*----------------------------------*\
| =========                 |                                                 |
| \\      /  F ield         | OpenFOAM: The Open Source CFD Toolbox           |
|  \\    /   O peration     | Version:  2012                                  |
|   \\  /    A nd           | Website:  www.openfoam.com                      |
|    \\/     M anipulation  |                                                 |
\*---------------------------------------------------------------------------*/
FoamFile
{
    version     2.0;
    format      ascii;
    class       volTensorField;
    location    "9000";
    object      grad(U);
}
// * * * * * * * * * * * * * * * * * * * * * * * * * * * * * * * * * * * * * //

dimensions      [0 0 -1 0 0 0 0];


internalField   nonuniform List<tensor> 
2560
(
(0 2.0789e-30 6.49658e-32 31.2529 -6.34679e-12 -5.13842e-13 0.0452427 -4.59314e-15 -2.21022e-16)
(0 -6.60903e-28 0 31.2529 3.9443e-31 6.17165e-16 0.0452427 -1.65226e-28 -1.19525e-18)
(-1.80242e-17 -9.13623e-25 -2.29252e-26 31.2484 5.3561e-32 -1.07357e-13 0.136372 0 -3.15323e-16)
(0 -8.19643e-30 -2.56139e-31 31.2484 -6.60379e-15 1.91025e-16 0.136372 -1.17186e-17 -2.86302e-18)
(-5.72724e-18 -1.21184e-29 -1.25473e-31 31.2439 5.57347e-12 -3.7456e-14 0.187545 -3.25549e-14 -1.29791e-16)
(0 2.01974e-29 -8.75812e-47 31.2439 -6.70136e-15 -1.0949e-48 0.187545 -2.2338e-17 -2.8593e-18)
(1.8366e-17 -4.56956e-30 -6.12764e-31 31.2395 -1.42799e-31 -2.9824e-14 0.190246 0 -2.31598e-16)
(0 1.59263e-29 4.97698e-31 31.2395 -7.36082e-15 -1.79265e-15 0.190246 -3.52466e-17 -8.23835e-18)
(6.90408e-17 -2.35471e-29 -1.47169e-30 31.2352 1.15664e-13 -3.84098e-14 0.192986 -1.57207e-15 -2.39694e-16)
(0 1.96226e-29 1.22641e-30 31.2352 -7.45174e-15 1.71395e-17 0.192986 -4.87029e-17 -8.51213e-18)
(1.12243e-16 -2.46521e-28 -3.67105e-31 31.231 -1.44441e-14 -3.90958e-14 0.195766 -4.49464e-17 -2.46984e-16)
(3.53535e-16 1.93413e-29 2.41767e-31 31.231 -7.46291e-15 1.48751e-16 0.195766 -6.24468e-17 -8.44907e-18)
(7.67674e-17 -1.33058e-44 1.30912e-31 31.2268 1.43308e-27 -3.97127e-14 0.198586 6.31089e-30 -2.54561e-16)
(9.5386e-17 1.90641e-29 2.38302e-31 31.2268 -7.51773e-15 1.94605e-16 0.198586 -7.63762e-17 -8.3094e-18)
(-7.07671e-17 2.70535e-29 6.06364e-31 31.2227 1.84019e-14 -4.03721e-14 0.201448 -1.21308e-16 -2.62728e-16)
(2.83068e-16 -1.50327e-29 -2.34886e-31 31.2227 -7.60221e-15 2.43673e-16 0.201448 -9.04393e-17 -8.09508e-18)
(2.14676e-16 -1.19109e-29 -3.73952e-31 31.2187 1.5973e-14 -4.10809e-14 0.20435 -1.144e-16 -2.71298e-16)
(0 1.48173e-29 2.3152e-31 31.2187 -7.7151e-15 2.96769e-16 0.20435 -1.05188e-16 -7.79151e-18)
(0 1.46049e-29 9.12806e-31 31.2147 1.40001e-14 -4.18136e-14 0.207295 -9.30612e-17 -2.80158e-16)
(0 -7.30244e-30 -4.56403e-31 31.2147 -7.83506e-15 1.89781e-16 0.207295 -1.20306e-16 -7.3835e-18)
(-2.38708e-16 -2.42902e-29 -7.45018e-31 31.2106 1.38481e-14 -4.25591e-14 0.210282 -9.15459e-17 -2.8929e-16)
(0 2.87911e-29 0 31.2106 -7.93097e-15 3.05067e-31 0.210282 -1.35714e-16 -7.35462e-18)
(1.26254e-16 -3.28767e-29 -1.93481e-30 31.2065 1.38504e-14 -4.33145e-14 0.213312 -9.37387e-17 -2.98693e-16)
(0 2.83785e-29 1.55195e-30 31.2065 -8.05231e-15 -5.51169e-17 0.213312 -1.51723e-16 -7.56285e-18)
(0 -1.39859e-29 -4.37058e-31 31.2023 1.37359e-14 -4.40784e-14 0.216383 -9.42591e-17 -3.0836e-16)
(0 1.39859e-29 6.55588e-31 31.2023 -8.10857e-15 -5.56861e-17 0.216383 -1.68074e-16 -6.9858e-18)
(-1.55211e-16 1.13862e-29 6.05507e-31 31.1979 1.37757e-14 -4.48486e-14 0.219498 -9.48959e-17 -3.18282e-16)
(6.20845e-16 0 0 31.1979 -8.08241e-15 -5.88341e-17 0.219498 -1.84884e-16 -6.28702e-18)
(0 2.71757e-29 2.1231e-30 31.1931 1.40223e-14 -4.56238e-14 0.222654 -9.75812e-17 -3.2846e-16)
(0 -2.71757e-29 -2.1231e-30 31.1931 -8.14046e-15 -6.3878e-17 0.222654 -2.0198e-16 -5.4797e-18)
(-1.8501e-16 4.48777e-30 1.89215e-31 31.1879 1.43591e-14 -4.64013e-14 0.225852 -1.01196e-16 -3.38868e-16)
(7.4004e-16 0 0 31.1879 -8.44491e-15 -6.72953e-17 0.225852 -2.19507e-16 -4.54746e-18)
(-2.32237e-16 3.30028e-29 1.23761e-30 31.1822 1.45313e-14 -4.71789e-14 0.229091 -1.05318e-16 -3.49508e-16)
(-5.68692e-16 -3.30028e-29 -1.23761e-30 31.1822 -8.72992e-15 -6.434e-17 0.229091 -2.38096e-16 -3.47413e-18)
(0 2.60238e-29 2.03311e-30 31.1755 1.43048e-14 -4.79551e-14 0.23237 -1.06692e-16 -3.60367e-16)
(-8.62694e-16 -2.60238e-29 -2.03311e-30 31.1755 -8.49206e-15 -5.82027e-17 0.23237 -2.57565e-16 -2.22278e-18)
(2.25627e-16 -1.28254e-29 -1.60318e-30 31.1679 1.41546e-14 -4.87273e-14 0.235686 -1.05026e-16 -3.71425e-16)
(0 1.92381e-29 1.60318e-30 31.1679 -8.40716e-15 -6.22618e-17 0.235686 -2.7627e-16 -8.10495e-19)
(2.47226e-16 2.0807e-29 9.6127e-31 31.1588 1.45496e-14 -4.94914e-14 0.239038 -1.07544e-16 -3.8265e-16)
(-9.88904e-16 -3.1604e-29 -1.5802e-30 31.1588 -8.78765e-15 -7.31205e-17 0.239038 -2.96419e-16 7.43503e-19)
(0 3.11511e-29 1.94694e-30 31.1481 1.50119e-14 -5.0242e-14 0.242423 -1.14165e-16 -3.93992e-16)
(0 -3.11511e-29 -1.94694e-30 31.1481 -8.83632e-15 -7.43442e-17 0.242423 -3.17986e-16 2.45094e-18)
(-2.79691e-16 -7.8128e-30 -1.4027e-31 31.1351 1.51858e-14 -5.09748e-14 0.245836 -1.17892e-16 -4.05434e-16)
(0 1.84227e-29 1.15142e-30 31.1351 -8.67298e-15 -6.62041e-17 0.245836 -3.38529e-16 4.35919e-18)
(5.55598e-16 -3.79046e-29 -3.15087e-30 31.1195 1.55899e-14 -5.16843e-14 0.249274 -1.20256e-16 -4.16903e-16)
(0 3.63174e-29 3.40476e-30 31.1195 -9.08943e-15 -6.99452e-17 0.249274 -3.59168e-16 6.4657e-18)
(0 2.98307e-29 1.86442e-30 31.1006 1.63161e-14 -5.23623e-14 0.25273 -1.2782e-16 -4.28333e-16)
(-1.25236e-15 -3.57969e-29 -2.98307e-30 31.1006 -9.65549e-15 -7.60157e-17 0.25273 -3.82753e-16 8.75486e-18)
(3.30144e-16 3.08269e-29 3.03217e-30 31.0777 1.62246e-14 -5.30016e-14 0.256198 -1.35586e-16 -4.39658e-16)
(0 -3.52838e-29 -3.30786e-30 31.0777 -9.46506e-15 -7.26434e-17 0.256198 -4.07258e-16 1.13064e-17)
(-6.9488e-16 4.36873e-29 4.19704e-30 31.0501 1.554e-14 -5.35939e-14 0.259671 -1.30055e-16 -4.50792e-16)
(0 -3.47781e-29 -3.62272e-30 31.0501 -9.10724e-15 -7.9321e-17 0.259671 -4.30133e-16 1.41014e-17)
(1.49697e-15 -5.33485e-29 -5.18202e-30 31.0167 1.56077e-14 -5.41295e-14 0.263137 -1.28102e-16 -4.61631e-16)
(2.91982e-15 3.99929e-29 4.28496e-30 31.0167 -9.11125e-15 -9.44475e-17 0.263137 -4.53851e-16 1.70732e-17)
(0 -2.25256e-29 -2.11177e-30 30.9767 1.61523e-14 -5.45954e-14 0.266587 -1.35013e-16 -4.72022e-16)
(1.53103e-15 2.81569e-29 2.81569e-30 30.9767 -9.18274e-15 -9.36994e-17 0.266587 -4.78381e-16 2.02671e-17)
(4.00781e-16 1.77593e-29 1.06369e-30 30.9288 1.66141e-14 -5.49785e-14 0.270008 -1.41235e-16 -4.81849e-16)
(-7.81188e-16 -1.11014e-29 0 30.9288 -9.3044e-15 -7.81682e-17 0.270008 -5.02809e-16 2.37573e-17)
(-8.38095e-16 3.40687e-30 -9.72547e-33 30.8718 1.69743e-14 -5.52662e-14 0.273386 -1.47038e-16 -4.90949e-16)
(-3.35238e-15 5.47112e-30 6.8389e-31 30.8718 -9.5759e-15 -6.64439e-17 0.273386 -5.2896e-16 2.75638e-17)
(-4.37557e-16 2.06127e-29 3.04697e-30 30.8043 1.72999e-14 -5.54438e-14 0.276704 -1.51758e-16 -4.99158e-16)
(-1.75023e-15 -1.07854e-29 -2.02227e-30 30.8043 -9.84144e-15 -7.06815e-17 0.276704 -5.56716e-16 3.1704e-17)
(0 3.18925e-29 3.98656e-30 30.7248 1.77927e-14 -5.5499e-14 0.279944 -1.57201e-16 -5.06338e-16)
(-1.82523e-15 -3.18925e-29 -3.98656e-30 30.7248 -1.00187e-14 -9.39318e-17 0.279944 -5.84705e-16 3.60661e-17)
(0 -3.66746e-29 -4.58433e-30 30.6318 1.83e-14 -5.54171e-14 0.283088 -1.65196e-16 -5.12264e-16)
(1.90118e-15 3.66746e-29 4.58433e-30 30.6318 -1.03057e-14 -1.07696e-16 0.283088 -6.13493e-16 4.06224e-17)
(-4.94519e-16 4.41945e-30 -2.51816e-31 30.5237 1.81821e-14 -5.51835e-14 0.286114 -1.71199e-16 -5.16783e-16)
(0 1.03283e-29 1.29104e-30 30.5237 -1.01794e-14 -9.8589e-17 0.286114 -6.45132e-16 4.55195e-17)
(-5.13972e-16 2.47761e-29 4.22645e-30 30.3988 1.76903e-14 -5.479e-14 0.289 -1.67821e-16 -5.19773e-16)
(0 -2.03605e-29 -3.81759e-30 30.3988 -9.66829e-15 -8.84656e-17 0.289 -6.74104e-16 5.08171e-17)
(-1.23975e-15 1.94631e-29 2.93298e-30 30.2553 1.74209e-14 -5.42262e-14 0.291722 -1.66842e-16 -5.21021e-16)
(-2.13459e-15 -1.00343e-29 -1.25429e-30 30.2553 -9.64828e-15 -8.56711e-17 0.291722 -7.03089e-16 5.64225e-17)
(5.53538e-16 -1.92431e-29 -2.29473e-30 30.0917 1.72435e-14 -5.34827e-14 0.294257 -1.67529e-16 -5.20414e-16)
(0 1.48358e-29 1.85447e-30 30.0917 -9.47538e-15 -9.1128e-17 0.294257 -7.34441e-16 6.22906e-17)
(5.73634e-16 -2.39006e-29 -3.51063e-30 29.9064 1.73167e-14 -4.97644e-14 0.296579 -1.6825e-16 -4.62293e-16)
(0 1.94975e-29 3.04649e-30 29.9064 -9.63454e-15 -9.81419e-17 0.296579 -7.64221e-16 6.84095e-17)
(-1.2701e-15 1.88114e-29 2.29246e-30 29.6979 1.77717e-14 -4.15743e-14 0.298667 -1.73893e-16 -3.70313e-16)
(0 -4.80452e-30 -1.20113e-30 29.6979 -1.03893e-14 -9.57183e-17 0.298667 -7.97837e-16 7.49292e-17)
(-6.66485e-16 1.89426e-29 2.95979e-30 29.4649 1.83387e-14 -3.589e-14 0.300495 -1.82365e-16 -3.59407e-16)
(6.66485e-16 -2.36783e-29 -3.55174e-30 29.4649 -1.02454e-14 -9.80887e-17 0.300495 -8.32496e-16 8.17901e-17)
(-6.3503e-16 1.37217e-29 1.09868e-30 29.2064 1.8642e-14 -3.42413e-14 0.302044 -1.906e-16 -3.46901e-16)
(2.54012e-15 0 0 29.2064 -9.80646e-15 -1.17912e-16 0.302044 -8.6516e-16 8.88589e-17)
(0 -2.76053e-29 -3.45066e-30 28.9216 1.85993e-14 -3.24654e-14 0.303294 -1.94009e-16 -3.32495e-16)
(2.62326e-15 2.76053e-29 3.45066e-30 28.9216 -1.02105e-14 -1.23356e-16 0.303294 -8.99922e-16 9.61541e-17)
(6.76731e-16 1.37638e-29 1.72813e-30 28.61 1.85066e-14 -3.05561e-14 0.304228 -1.95284e-16 -3.16227e-16)
(-2.70692e-15 -2.72097e-29 -3.40121e-30 28.61 -1.03297e-14 -8.95856e-17 0.304228 -9.36967e-16 1.03793e-16)
(6.97757e-16 -1.77807e-29 -1.66858e-30 28.2716 1.79097e-14 -2.8546e-14 0.304834 -1.97709e-16 -2.98615e-16)
(0 1.34098e-29 1.11749e-30 28.2716 -9.40851e-15 -5.89377e-17 0.304834 -9.70982e-16 1.11967e-16)
(-7.18872e-16 -4.444e-30 5.62556e-31 27.9065 1.72443e-14 -2.64681e-14 0.305103 -1.88053e-16 -2.79746e-16)
(0 1.76235e-29 1.10147e-30 27.9065 -9.16679e-15 -1.33103e-16 0.305103 -1.00459e-15 1.20287e-16)
(7.40053e-16 8.66477e-30 5.12009e-31 27.5154 1.79078e-14 -2.43332e-14 0.305028 -1.88852e-16 -2.59679e-16)
(2.96021e-15 -4.34273e-30 0 27.5154 -9.86293e-15 -3.47113e-16 0.305028 -1.03737e-15 1.28437e-16)
(1.20485e-15 -1.28415e-29 -1.07012e-30 27.0993 1.90498e-14 -2.21708e-14 0.30461 -2.0838e-16 -2.3894e-16)
(3.04511e-15 1.7122e-29 1.07012e-30 27.0993 -1.04075e-14 -4.75616e-16 0.30461 -1.07202e-15 1.36083e-16)
(-7.82518e-16 4.34942e-30 -4.63164e-31 26.6594 1.89953e-14 -2.093e-14 0.303851 -2.20262e-16 -2.38758e-16)
(0 4.21914e-30 2.10957e-30 26.6594 -1.05019e-14 -4.82378e-16 0.303851 -1.11087e-15 1.43992e-16)
(-8.03754e-16 1.8656e-31 5.88712e-31 26.1974 1.80673e-14 -2.38089e-14 0.302759 -2.1323e-16 -3.13088e-16)
(0 1.2476e-29 1.03967e-30 26.1974 -9.58123e-15 -4.91387e-16 0.302759 -1.14817e-15 1.52128e-16)
(1.15378e-15 -1.22972e-29 -1.02477e-30 25.7154 1.78889e-14 -2.5839e-14 0.301345 -2.05071e-16 -2.93791e-16)
(0 1.63963e-29 1.02477e-30 25.7154 -8.34979e-15 -4.97878e-16 0.301345 -1.17919e-15 1.60087e-16)
(-1.98335e-15 2.95053e-31 -3.96087e-31 25.2154 1.82207e-14 -2.38111e-14 0.299625 -2.15253e-16 -2.73574e-16)
(0 1.61613e-29 3.03023e-30 25.2154 -8.46395e-15 -5.19078e-16 0.299625 -1.2102e-15 1.67546e-16)
(-1.12095e-15 2.38944e-29 6.96921e-30 24.6998 1.79462e-14 -2.18221e-14 0.297615 -2.19045e-16 -2.53952e-16)
(-3.46871e-15 -1.9912e-29 -5.97361e-30 24.6998 -9.01726e-15 -5.47186e-16 0.297615 -1.24583e-15 1.75015e-16)
(-8.88144e-16 -1.92276e-29 -4.26963e-30 24.1711 1.79964e-14 -1.99404e-14 0.295337 -2.14872e-16 -2.35091e-16)
(2.44769e-15 2.3552e-29 5.88799e-30 24.1711 -9.25457e-15 -5.81139e-16 0.295337 -1.28487e-15 1.82457e-16)
(0 2.32144e-29 4.83633e-30 23.6318 1.86504e-14 -1.81617e-14 0.292812 -2.26703e-16 -2.16801e-16)
(0 -2.32144e-29 -4.83633e-30 23.6318 -1.00728e-14 -6.18697e-16 0.292812 -1.32571e-15 1.89847e-16)
(-2.00312e-15 1.95641e-29 2.55656e-30 23.0844 1.84103e-14 -1.64854e-14 0.290066 -2.37562e-16 -1.99341e-16)
(4.79218e-15 -1.52545e-29 -1.90681e-30 23.0844 -9.78852e-15 -6.25695e-16 0.290066 -1.36445e-15 1.97254e-16)
(2.9585e-15 -2.36462e-29 -3.18886e-30 22.5314 1.7134e-14 -1.49236e-14 0.28712 -2.27238e-16 -1.8285e-16)
(2.74284e-15 1.50358e-29 1.87948e-30 22.5314 -8.64548e-15 -5.91598e-16 0.28712 -1.40297e-15 2.05017e-16)
(1.04289e-15 -1.48203e-29 -1.85254e-30 21.9752 1.66166e-14 -1.35152e-14 0.284002 -2.11586e-16 -1.68309e-16)
(0 2.22305e-29 1.85254e-30 21.9752 -9.02886e-15 -5.93722e-16 0.284002 -1.44263e-15 2.12931e-16)
(-9.90738e-16 -3.00856e-30 6.62484e-31 21.4181 1.7243e-14 -1.22638e-14 0.280734 -2.2035e-16 -1.54971e-16)
(0 1.46079e-29 9.12994e-31 21.4181 -9.37509e-15 -6.44032e-16 0.280734 -1.48374e-15 2.20633e-16)
(-2.02138e-15 2.65736e-29 4.03098e-30 20.8622 1.74162e-14 -1.11133e-14 0.277342 -2.34421e-16 -1.42238e-16)
(4.04276e-15 -2.15978e-29 -4.49954e-30 20.8622 -9.21333e-15 -6.64236e-16 0.277342 -1.52624e-15 2.2826e-16)
(-1.03042e-15 4.28253e-30 6.68214e-31 20.3094 1.69388e-14 -1.00709e-14 0.273846 -2.31472e-16 -1.31013e-16)
(0 7.09608e-30 8.8701e-31 20.3094 -9.10745e-15 -6.62046e-16 0.273846 -1.5685e-15 2.36161e-16)
(-1.04992e-15 -2.71728e-30 6.7024e-31 19.7616 1.692e-14 -9.17698e-15 0.27027 -2.28236e-16 -1.2161e-16)
(4.19967e-15 1.39888e-29 8.74297e-31 19.7616 -8.5204e-15 -6.59005e-16 0.27027 -1.60842e-15 2.44195e-16)
(-1.06918e-15 1.80579e-29 3.25719e-30 19.2201 1.73084e-14 -8.40468e-15 0.266634 -2.37731e-16 -1.1312e-16)
(0 0 -8.61766e-31 19.2201 -9.24801e-15 -6.62062e-16 0.266634 -1.64637e-15 2.5233e-16)
(-2.17637e-15 2.21152e-29 5.59327e-30 18.6866 1.71496e-14 -7.73603e-15 0.262955 -2.45852e-16 -1.06084e-16)
(-4.35275e-15 -1.35906e-29 -4.24707e-30 18.6866 -8.88792e-15 -6.93432e-16 0.262955 -1.69295e-15 2.6053e-16)
(-3.15654e-15 -1.82779e-29 -3.67557e-30 18.162 1.59987e-14 -7.189e-15 0.259251 -2.40162e-16 -1.0059e-16)
(8.85558e-15 2.00938e-29 4.1862e-30 18.162 -7.30771e-15 -6.90182e-16 0.259251 -1.73077e-15 2.6871e-16)
(-3.37636e-15 3.91718e-29 8.62542e-30 17.6474 1.49581e-14 -6.74048e-15 0.255537 -2.19721e-16 -9.60119e-17)
(-5.43095e-15 -2.64077e-29 -6.60193e-30 17.6474 -7.72049e-15 -6.97609e-16 0.255537 -1.76702e-15 2.77228e-16)
(-1.1437e-15 -1.52711e-29 -5.01909e-30 17.1437 1.54338e-14 -6.37062e-15 0.251828 -2.16617e-16 -9.25105e-17)
(4.57479e-15 1.95219e-29 6.5073e-30 17.1437 -8.43368e-15 -7.36817e-16 0.251828 -1.80873e-15 2.85617e-16)
(2.96708e-15 -2.3484e-29 -1.47673e-30 16.6514 1.62426e-14 -6.0702e-15 0.248134 -2.40339e-16 -8.97381e-17)
(-1.80539e-15 1.92421e-29 8.01755e-31 16.6514 -9.01278e-15 -7.65571e-16 0.248134 -1.84984e-15 2.94192e-16)
(0 -1.89663e-29 -5.53184e-30 16.1712 1.63088e-14 -5.83171e-15 0.244468 -2.47425e-16 -8.79025e-17)
(4.71764e-15 1.89663e-29 5.53184e-30 16.1712 -9.16903e-15 -8.05614e-16 0.244468 -1.89623e-15 3.02769e-16)
(1.75401e-15 -1.2463e-29 -2.33681e-30 15.7033 1.64035e-14 -5.70855e-15 0.240838 -2.4941e-16 -8.85326e-17)
(4.78751e-15 1.86945e-29 1.55787e-30 15.7033 -8.93827e-15 -8.20663e-16 0.240838 -1.94294e-15 3.11634e-16)
(-1.72887e-15 2.45687e-29 3.07109e-30 15.2481 1.58947e-14 -5.59668e-15 0.237252 -2.57623e-16 -8.69442e-17)
(4.85635e-15 -1.22844e-29 -7.67773e-31 15.2481 -7.99824e-15 -7.85213e-16 0.237252 -1.98812e-15 3.21037e-16)
(0 2.42166e-29 7.56769e-30 14.8057 1.40288e-14 -5.48664e-15 0.233717 -2.40646e-16 -8.76002e-17)
(0 -2.42166e-29 -7.56769e-30 14.8057 -6.32756e-15 -7.67247e-16 0.233717 -2.02558e-15 3.30995e-16)
(-2.49548e-15 2.45924e-30 2.09625e-30 14.3762 1.26648e-14 -5.47498e-15 0.230239 -2.05379e-16 -8.91121e-17)
(0 5.96738e-30 -7.45922e-31 14.3762 -5.34015e-15 -8.196e-16 0.230239 -2.06301e-15 3.40915e-16)
(0 -2.35274e-29 -5.14662e-30 13.9595 1.2974e-14 -5.51062e-15 0.226821 -2.03353e-16 -9.13417e-17)
(5.05676e-15 2.35274e-29 5.14662e-30 13.9595 -4.94552e-15 -8.69766e-16 0.226821 -2.09676e-15 3.50512e-16)
(0 1.73926e-29 1.44939e-30 13.5556 1.31205e-14 -5.57208e-15 0.223469 -2.21595e-16 -9.37789e-17)
(5.12158e-15 -1.15951e-29 0 13.5556 -5.40782e-15 -8.8789e-16 0.223469 -2.12138e-15 3.60293e-16)
(-1.29636e-15 -1.51974e-30 2.11091e-30 13.1644 1.19003e-14 -5.68049e-15 0.220185 -2.14211e-16 -9.76976e-17)
(0 1.14289e-29 0 13.1644 -5.94846e-15 -8.69325e-16 0.220185 -2.15451e-15 3.70618e-16)
(1.31208e-15 1.27035e-29 7.16038e-31 12.7857 1.06013e-14 -4.29039e-15 0.21697 -1.86662e-16 -4.86492e-17)
(0 -5.63255e-30 0 12.7857 -5.56737e-15 -8.84603e-16 0.21697 -2.19024e-15 3.81554e-16)
(1.5627e-15 -1.11036e-29 -7.00173e-31 12.4191 1.04921e-14 1.40035e-30 0.213828 -1.75749e-16 0)
(0 1.11036e-29 2.77591e-30 12.4191 -5.53285e-15 -9.36002e-16 0.213828 -2.21432e-15 3.92326e-16)
(0 -1.09445e-29 -2.73613e-30 12.0646 1.04459e-14 1.16133e-14 0.210758 -1.88311e-16 -2.07529e-16)
(0 1.09445e-29 2.73613e-30 12.0646 -5.80845e-15 -9.60111e-16 0.210758 -2.25088e-15 4.0351e-16)
(-1.19753e-15 -7.8166e-30 -3.36831e-32 11.7218 9.41277e-15 1.10609e-14 0.207761 -1.79261e-16 -2.01149e-16)
(0 1.61815e-29 1.34845e-30 11.7218 -5.38346e-15 -9.97784e-16 0.207761 -2.29319e-15 4.14873e-16)
(-1.3727e-15 2.01317e-29 3.3095e-30 11.3904 9.25967e-15 1.04854e-14 0.204838 -1.56671e-16 -1.93742e-16)
(0 -1.59495e-29 -2.65826e-30 11.3904 -4.93267e-15 -9.45878e-16 0.204838 -2.32823e-15 4.26283e-16)
(1.38731e-15 -4.17564e-30 -6.45434e-31 11.07 9.83122e-15 1.00201e-14 0.201989 -1.78926e-16 -1.8604e-16)
(-5.54923e-15 0 0 11.07 -5.87493e-15 -9.07026e-16 0.201989 -2.36415e-15 4.38868e-16)
(0 -1.54956e-29 -1.2913e-30 10.7605 9.27742e-15 9.63238e-15 0.199213 -1.82418e-16 -1.82194e-16)
(-5.60683e-15 2.06608e-29 1.2913e-30 10.7605 -5.50193e-15 -1.03001e-15 0.199213 -2.41956e-15 4.5084e-16)
(-1.41591e-15 1.94426e-29 1.90604e-30 10.4614 9.69545e-15 9.12136e-15 0.196508 -1.63368e-16 -1.76927e-16)
(9.89422e-15 -5.09117e-30 -1.27279e-30 10.4614 -3.94365e-15 -1.15109e-15 0.196508 -2.46024e-15 4.61613e-16)
(1.74088e-17 1.08957e-29 1.88104e-30 10.1723 1.09691e-14 8.49853e-15 0.193876 -2.03691e-16 -1.68059e-16)
(7.13213e-15 -2.00728e-29 -5.01821e-30 10.1723 -5.73926e-15 -1.12407e-15 0.193876 -2.48584e-15 4.72426e-16)
(0 0 1.23657e-30 9.89311 1.06013e-14 7.95198e-15 0.191313 -2.17388e-16 -1.58033e-16)
(0 9.89256e-30 0 9.89311 -6.51908e-15 -1.08062e-15 0.191313 -2.53997e-15 4.848e-16)
(-1.45734e-15 -1.53514e-29 -4.25702e-30 9.62332 9.82296e-15 7.46555e-15 0.18882 -1.95235e-16 -1.51546e-16)
(5.82935e-15 2.43769e-29 6.09424e-30 9.62332 -5.66377e-15 -1.08431e-15 0.18882 -2.57573e-15 4.96979e-16)
(-1.47078e-15 1.8562e-29 1.81518e-30 9.36265 9.90031e-15 7.01731e-15 0.186394 -1.92785e-16 -1.43307e-16)
(-5.8831e-15 -4.80551e-30 0 9.36265 -6.27875e-15 -1.1267e-15 0.186394 -2.61754e-15 5.09748e-16)
(1.48404e-15 -2.30849e-29 -1.79317e-30 9.11077 1.00387e-14 6.60076e-15 0.184035 -2.04077e-16 -1.37891e-16)
(5.93615e-15 1.89465e-29 1.18416e-30 9.11077 -5.93605e-15 -1.25128e-15 0.184035 -2.66535e-15 5.21775e-16)
(-1.49713e-15 2.74768e-29 5.27341e-30 8.86737 9.88268e-15 6.0826e-15 0.181741 -2.041e-16 -1.30444e-16)
(5.9885e-15 -2.33437e-29 -4.66875e-30 8.86737 -5.83228e-15 -1.23843e-15 0.181741 -2.69365e-15 5.32913e-16)
(-1.51005e-15 4.1292e-30 6.00933e-31 8.63213 1.00596e-14 5.59498e-15 0.17951 -2.03572e-16 -1.204e-16)
(0 0 0 8.63213 -6.57842e-15 -1.18659e-15 0.17951 -2.73373e-15 5.4945e-16)
(-1.5228e-15 8.65881e-30 -5.36881e-31 8.40477 1.08375e-14 5.17413e-15 0.17734 -2.17536e-16 -1.1371e-16)
(0 0 2.26794e-30 8.40477 -7.06375e-15 -1.33743e-15 0.17734 -2.77447e-15 5.6591e-16)
(-4.05228e-15 -3.57518e-31 -2.75965e-30 8.18498 1.00779e-14 4.62348e-15 0.175231 -2.42805e-16 -1.05927e-16)
(8.65848e-15 8.94173e-30 3.35315e-30 8.18498 -6.35929e-15 -1.31482e-15 0.175231 -2.81523e-15 5.8103e-16)
(1.54784e-15 -2.17444e-29 -2.79442e-30 7.97247 7.728e-15 4.23491e-15 0.173181 -1.90949e-16 -9.31476e-17)
(0 1.76271e-29 2.20339e-30 7.97247 -5.16395e-15 -1.23268e-15 0.173181 -2.84516e-15 5.9918e-16)
(2.44524e-15 -1.30309e-29 -2.17181e-30 7.76699 7.2169e-15 3.99518e-15 0.171187 -1.46472e-16 -9.19248e-17)
(0 1.30309e-29 2.17181e-30 7.76699 -5.74023e-15 -1.31611e-15 0.171187 -2.88039e-15 6.16559e-16)
(-1.57229e-15 4.11559e-30 -1.55653e-30 7.56825 8.42606e-15 3.66578e-15 0.169249 -1.73716e-16 -8.51695e-17)
(0 8.56274e-30 3.21103e-30 7.56825 -5.54291e-15 -1.45826e-15 0.169249 -2.93244e-15 6.33261e-16)
(2.37565e-15 -2.532e-29 -6.33001e-30 7.376 9.76156e-15 3.2192e-15 0.167364 -2.05551e-16 -7.96922e-17)
(1.26743e-14 2.95401e-29 7.38501e-30 7.376 -4.01058e-15 -1.5135e-15 0.167364 -2.96782e-15 6.47931e-16)
(-2.3416e-15 4.15952e-30 1.03988e-30 7.19 1.07088e-14 2.64002e-15 0.165532 -2.40197e-16 -6.71353e-17)
(6.38464e-15 8.31905e-30 0 7.19 -4.47834e-15 -1.38646e-15 0.165532 -2.99607e-15 6.64701e-16)
(-3.91594e-15 3.27843e-29 7.75266e-30 7.01 9.92482e-15 2.22698e-15 0.16375 -2.55748e-16 -5.50145e-17)
(-4.12353e-15 -2.45994e-29 -7.17484e-30 7.01 -6.05038e-15 -1.34156e-15 0.16375 -3.03913e-15 6.82682e-16)
(6.55468e-16 1.62123e-29 3.60671e-30 6.83578 9.9138e-15 1.98267e-15 0.162017 -2.1014e-16 -4.95586e-17)
(-8.75294e-15 -8.08229e-30 -2.02057e-30 6.83578 -6.3207e-15 -1.46901e-15 0.162017 -3.08125e-15 7.0034e-16)
(-2.24236e-15 1.19497e-29 1.99161e-30 6.66712 1.02333e-14 1.65124e-15 0.160332 -2.62711e-16 -4.48976e-17)
(0 -3.98323e-30 -9.95806e-31 6.66712 -4.3511e-15 -1.53156e-15 0.160332 -3.11764e-15 7.16284e-16)
(-2.21022e-15 1.17784e-29 9.81534e-31 6.5038 8.4145e-15 1.27756e-15 0.158694 -2.31858e-16 -3.48689e-17)
(6.5693e-15 -3.92614e-30 0 6.5038 -2.32294e-15 -1.42841e-15 0.158694 -3.13786e-15 7.32892e-16)
(-2.70352e-15 3.0752e-29 5.233e-30 6.34562 7.14459e-15 1.06516e-15 0.1571 -1.80537e-16 -2.77494e-17)
(2.17854e-15 -2.70891e-29 -4.83733e-30 6.34562 -2.07079e-15 -1.47456e-15 0.1571 -3.15606e-15 7.51217e-16)
(2.14732e-15 -4.19584e-29 -8.5824e-30 6.19239 5.94318e-15 9.36554e-16 0.155549 -1.7499e-16 -2.52428e-17)
(1.11701e-14 4.19584e-29 8.5824e-30 6.19239 -9.70051e-16 -1.56228e-15 0.155549 -3.1924e-15 7.66806e-16)
(2.11654e-15 -1.12792e-29 -1.87986e-30 6.04391 4.67066e-15 7.78976e-16 0.154041 -1.24724e-16 -2.20215e-17)
(1.34054e-14 1.12792e-29 1.87986e-30 6.04391 -1.48648e-15 -1.49885e-15 0.154041 -3.19277e-15 7.81938e-16)
(-3.37314e-15 8.14886e-30 2.07552e-31 5.90001 4.42092e-15 6.05052e-16 0.152573 -1.14457e-16 -1.78516e-17)
(0 0 9.26461e-31 5.90001 -2.92005e-15 -1.53494e-15 0.152573 -3.20894e-15 7.98366e-16)
(-1.69735e-15 4.186e-31 5.65834e-31 5.76051 4.92473e-15 4.58777e-16 0.151145 -1.15305e-16 -1.3562e-17)
(1.35788e-14 7.30546e-30 9.13182e-31 5.76051 -1.81023e-15 -1.55262e-15 0.151145 -3.24285e-15 8.12372e-16)
(1.70803e-15 -1.4864e-29 -3.26462e-30 5.62526 5.5358e-15 3.77523e-16 0.149754 -1.44567e-16 -1.0606e-17)
(0 1.08011e-29 2.70028e-30 5.62526 -2.23125e-15 -1.48597e-15 0.149754 -3.25144e-15 8.27736e-16)
(-1.71861e-15 5.10439e-31 1.44954e-30 5.49408 5.91399e-15 3.22493e-16 0.148401 -1.51607e-16 -9.5812e-18)
(0 7.09755e-30 0 5.49408 -3.40175e-15 -1.62359e-15 0.148401 -3.28517e-15 8.41886e-16)
(-1.72909e-15 2.15428e-29 1.43514e-30 5.36684 6.60012e-15 1.28132e-16 0.147084 -1.69476e-16 -7.90852e-18)
(6.91637e-15 -1.74895e-29 -8.74477e-31 5.36684 -3.1306e-15 -1.71683e-15 0.147084 -3.3291e-15 8.52765e-16)
(-1.73948e-15 1.43871e-29 2.28338e-30 5.24338 6.74059e-15 -1.08932e-16 0.145802 -1.94101e-16 -5.19846e-18)
(6.95791e-15 -3.44778e-30 -8.61944e-31 5.24338 -3.50971e-15 -1.70424e-15 0.145802 -3.34945e-15 8.63625e-16)
(-3.49953e-15 4.6858e-30 2.63579e-31 5.12356 5.72163e-15 -3.38238e-16 0.144553 -1.82344e-16 -1.4034e-17)
(0 3.39836e-30 8.4959e-31 5.12356 -2.99558e-15 -1.6178e-15 0.144553 -3.37953e-15 8.73715e-16)
(-1.75997e-15 1.74436e-29 3.06811e-30 5.00726 5.46902e-15 -4.18362e-16 0.143337 -1.4162e-16 -9.99108e-18)
(0 -6.69931e-30 -8.37413e-31 5.00726 -2.39481e-15 -1.61717e-15 0.143337 -3.40484e-15 8.85815e-16)
(0 -1.32066e-29 -1.65082e-30 4.89434 6.20816e-15 -3.97801e-16 0.142153 -1.73056e-16 -1.3237e-17)
(-7.08031e-15 1.32066e-29 1.65082e-30 4.89434 -2.76206e-15 -1.75218e-15 0.142153 -3.441e-15 8.94584e-16)
(1.7801e-15 -2.3553e-29 -1.36592e-30 4.78468 6.46245e-15 -4.61811e-16 0.140999 -1.89198e-16 -1.40995e-17)
(7.1204e-15 1.95259e-29 8.13581e-31 4.78468 -2.82751e-15 -1.75904e-15 0.140999 -3.4703e-15 9.01913e-16)
(3.5958e-15 -1.68504e-29 -2.15423e-30 4.67816 6.57902e-15 -5.27212e-16 0.139875 -1.93283e-16 -1.75801e-17)
(-8.96593e-15 1.28307e-29 1.60384e-30 4.67816 -3.58274e-15 -1.78259e-15 0.139875 -3.50588e-15 9.08676e-16)
(-1.7999e-15 1.66584e-29 2.91977e-30 4.57467 7.01103e-15 -6.29779e-16 0.13878 -2.01791e-16 -2.08057e-17)
(5.41971e-15 -6.32341e-30 -1.58085e-30 4.57467 -4.18699e-15 -1.86482e-15 0.13878 -3.54266e-15 9.1361e-16)
(-3.50874e-15 1.24656e-29 7.79098e-31 4.4741 8.07407e-15 -8.32646e-16 0.137712 -2.25452e-16 -3.07234e-17)
(0 -6.23278e-30 0 4.4741 -4.71768e-15 -1.95652e-15 0.137712 -3.57202e-15 9.18381e-16)
(-1.72923e-15 1.84303e-29 2.30379e-30 4.37636 8.28094e-15 -1.09873e-15 0.136672 -2.73875e-16 -3.82194e-17)
(5.54828e-15 0 -1.53586e-30 4.37636 -4.18901e-15 -1.99228e-15 0.136672 -3.62298e-15 9.21547e-16)
(1.24558e-16 -1.60914e-29 -2.81231e-30 4.28133 8.00883e-15 -1.21613e-15 0.135658 -2.45121e-16 -3.91461e-17)
(1.70444e-15 1.21108e-29 2.27077e-30 4.28133 -4.0328e-15 -1.80827e-15 0.135658 -3.65862e-15 9.24926e-16)
(-3.36003e-15 1.19372e-29 7.46076e-31 4.18893 7.94121e-15 -1.2485e-15 0.134669 -2.64463e-16 -4.14428e-17)
(-7.3542e-15 -5.96861e-30 0 4.18893 -4.55139e-15 -1.8787e-15 0.134669 -3.71401e-15 9.31542e-16)
(-1.65593e-15 5.88306e-30 1.47077e-30 4.09906 7.04991e-15 -1.42158e-15 0.133705 -2.47906e-16 -5.17071e-17)
(0 5.88306e-30 0 4.09906 -3.50005e-15 -2.06757e-15 0.133705 -3.76129e-15 9.31207e-16)
(3.2644e-15 1.15975e-29 2.17453e-30 4.01164 6.59596e-15 -1.56155e-15 0.132765 -2.13429e-16 -5.20222e-17)
(-3.2644e-15 -5.79874e-30 -1.44969e-30 4.01164 -3.33052e-15 -2.09198e-15 0.132765 -3.78885e-15 9.32275e-16)
(1.86678e-15 1.89076e-29 3.75264e-30 3.92658 5.55077e-15 -1.64773e-15 0.131848 -2.24795e-16 -5.9072e-17)
(0 -2.28625e-29 -4.28672e-30 3.92658 -3.06443e-15 -2.02826e-15 0.131848 -3.81033e-15 9.31579e-16)
(5.04755e-15 1.67263e-30 2.2828e-30 3.8438 3.01592e-15 -1.61838e-15 0.130953 -1.48732e-16 -5.1525e-17)
(-3.1715e-15 0 -2.81686e-30 3.8438 -1.25729e-15 -2.08577e-15 0.130953 -3.82402e-15 9.32588e-16)
(-3.77052e-15 2.39473e-30 1.06335e-30 3.76323 2.02655e-15 -1.60355e-15 0.13008 -5.68084e-17 -5.97659e-17)
(7.54103e-15 5.55297e-30 0 3.76323 -1.184e-15 -2.25672e-15 0.13008 -3.83853e-15 9.26426e-16)
(-1.8944e-15 3.96687e-30 -8.37162e-31 3.68479 2.68745e-15 -1.64894e-15 0.129229 -8.39607e-17 -5.62521e-17)
(0 5.47338e-30 1.36834e-30 3.68479 -3.43349e-15 -2.21304e-15 0.129229 -3.85687e-15 9.19327e-16)
(0 5.39493e-30 1.34873e-30 3.6084 2.97028e-15 -1.54097e-15 0.128397 -1.05321e-16 -5.37514e-17)
(-3.03708e-15 -5.39493e-30 -1.34873e-30 3.6084 -4.75945e-15 -2.15759e-15 0.128397 -3.89831e-15 9.12896e-16)
(0 1.06352e-29 1.3294e-30 3.53401 5.03868e-15 -1.4181e-15 0.127586 -1.0676e-16 -4.89354e-17)
(-2.99355e-15 -5.31761e-30 -1.3294e-30 3.53401 -4.63923e-15 -2.0818e-15 0.127586 -3.92543e-15 9.06753e-16)
(-2.95064e-15 1.04828e-29 2.6207e-30 3.46155 8.70912e-15 -1.30414e-15 0.126794 -2.59323e-16 -4.68903e-17)
(-2.95064e-15 0 0 3.46155 -3.96922e-15 -2.31515e-15 0.126794 -3.96516e-15 9.0082e-16)
(0 1.54988e-29 1.29157e-30 3.39094 8.56621e-15 -1.42284e-15 0.126021 -3.81587e-16 -5.92828e-17)
(1.25346e-14 -5.16627e-30 0 3.39094 -4.41872e-15 -2.61198e-15 0.126021 -4.01378e-15 8.8637e-16)
(-3.87845e-15 7.82709e-30 1.04202e-30 3.32214 6.58404e-15 -1.72257e-15 0.125266 -2.56186e-16 -7.1101e-17)
(7.7569e-15 0 0 3.32214 -6.96723e-15 -2.51645e-15 0.125266 -4.05319e-15 8.72356e-16)
(1.94802e-15 -1.39488e-29 -3.02975e-30 3.25508 5.79603e-15 -1.79643e-15 0.124529 -2.41739e-16 -6.67291e-17)
(0 1.50577e-29 2.50962e-30 3.25508 -7.64665e-15 -2.14715e-15 0.124529 -4.13475e-15 8.62446e-16)
(0 9.8946e-30 1.23683e-30 3.18971 3.77562e-15 -1.5189e-15 0.123809 -2.02778e-16 -5.14183e-17)
(-1.06121e-14 0 0 3.18971 -4.13631e-15 -2.23956e-15 0.123809 -4.21952e-15 8.57261e-16)
(-4.71061e-15 -1.0704e-29 -3.13816e-30 3.12598 2.38415e-15 -1.31148e-15 0.123106 -9.03717e-17 -5.21811e-17)
(7.86179e-15 1.95056e-29 4.87639e-30 3.12598 -1.26489e-15 -2.39279e-15 0.123106 -4.24462e-15 8.39231e-16)
(0 9.61301e-30 1.20163e-30 3.06382 2.47409e-15 -1.1304e-15 0.122419 -9.80073e-17 -3.83071e-17)
(-2.70582e-15 0 -1.20163e-30 3.06382 -1.71149e-15 -2.263e-15 0.122419 -4.24705e-15 8.25815e-16)
(0 -9.47523e-30 -1.1844e-30 3.0032 2.95553e-15 -8.29771e-16 0.121748 -1.00279e-16 -2.90899e-17)
(0 1.42128e-29 1.1844e-30 3.0032 -2.74467e-15 -2.39574e-15 0.121748 -4.25196e-15 8.07847e-16)
(-1.99121e-15 3.91376e-30 5.1568e-31 2.94407 3.081e-15 -6.09071e-16 0.121092 -1.40306e-16 -2.10922e-17)
(0 0 0 2.94407 -3.42179e-15 -2.80188e-15 0.121092 -4.26375e-15 7.84383e-16)
(-1.40827e-15 -2.43941e-29 -7.03477e-30 2.88637 2.21895e-15 -7.36689e-16 0.120451 -1.13641e-16 -4.06994e-17)
(1.85888e-14 2.76167e-29 6.90417e-30 2.88637 -2.77652e-15 -2.66227e-15 0.120451 -4.29157e-15 7.53897e-16)
(0 9.07362e-30 1.1342e-30 2.83007 3.3591e-15 -7.04666e-16 0.119824 -7.17498e-17 -1.89715e-17)
(0 -4.53681e-30 -1.1342e-30 2.83007 -3.19812e-15 -2.25466e-15 0.119824 -4.30709e-15 7.37013e-16)
(-2.51739e-15 8.94358e-30 2.83181e-30 2.77512 5.25145e-15 -2.41201e-16 0.119212 -2.14476e-16 -5.19409e-18)
(-2.51739e-15 -4.47179e-30 -1.11795e-30 2.77512 -4.37111e-15 -2.78382e-15 0.119212 -4.37517e-15 7.13477e-16)
(-6.07471e-15 -1.92211e-29 -4.00206e-30 2.72148 4.84571e-15 -3.52464e-16 0.118613 -2.38038e-16 -2.57559e-17)
(1.86805e-14 3.08539e-29 6.61154e-30 2.72148 -2.56227e-15 -3.10407e-15 0.118613 -4.43603e-15 6.72083e-16)
(-2.44575e-15 -2.60671e-29 -6.51678e-30 2.66911 4.15455e-15 -6.61066e-16 0.118027 -1.85043e-16 -3.29059e-17)
(1.87115e-14 2.60671e-29 6.51678e-30 2.66911 -3.12645e-15 -2.65628e-15 0.118027 -4.44074e-15 6.40114e-16)
(-2.04148e-15 1.67183e-29 4.77842e-30 2.61798 4.46708e-15 -5.3458e-16 0.117454 -1.83288e-16 -1.50504e-17)
(0 -8.56451e-30 -3.21169e-30 2.61798 -5.54977e-15 -2.70735e-15 0.117454 -4.49921e-15 6.13406e-16)
(2.04971e-15 -2.91842e-29 -5.7666e-30 2.56804 6.15479e-15 -4.48448e-16 0.116894 -2.18779e-16 -2.59525e-17)