/*--------------------------------*- C++ -*----------------------------------*\
| =========                 |                                                 |
| \\      /  F ield         | OpenFOAM: The Open Source CFD Toolbox           |
|  \\    /   O peration     | Version:  2012                                  |
|   \\  /    A nd           | Website:  www.openfoam.com                      |
|    \\/     M anipulation  |                                                 |
\*---------------------------------------------------------------------------*/
FoamFile
{
    version     2.0;
    format      ascii;
    class       volScalarField;
    location    "9000";
    object      p;
}
// * * * * * * * * * * * * * * * * * * * * * * * * * * * * * * * * * * * * * //

dimensions      [0 2 -2 0 0 0 0];


internalField   nonuniform List<scalar> 
2560
(
2.8619e-15
4.33432e-14
6.3584e-15
4.33436e-14
7.37753e-15
4.33445e-14
7.73333e-15
4.3346e-14
8.14432e-15
4.33481e-14
8.60526e-15
4.3351e-14
9.05529e-15
4.33544e-14
9.48954e-15
4.33586e-14
9.91401e-15
4.33633e-14
1.03309e-14
4.33688e-14
1.07403e-14
4.33748e-14
1.11422e-14
4.33815e-14
1.1537e-14
4.33889e-14
1.19247e-14
4.33968e-14
1.23055e-14
4.34054e-14
1.26795e-14
4.34146e-14
1.30467e-14
4.34244e-14
1.34072e-14
4.34349e-14
1.37612e-14
4.3446e-14
1.41088e-14
4.34576e-14
1.445e-14
4.34698e-14
1.47848e-14
4.34827e-14
1.51134e-14
4.34961e-14
1.54361e-14
4.35101e-14
1.57527e-14
4.35248e-14
1.60632e-14
4.354e-14
1.63681e-14
4.35558e-14
1.66675e-14
4.35723e-14
1.69613e-14
4.35895e-14
1.72498e-14
4.36072e-14
1.7533e-14
4.36255e-14
1.7811e-14
4.36442e-14
1.8084e-14
4.36636e-14
1.83522e-14
4.36838e-14
1.86157e-14
4.37047e-14
1.88747e-14
4.37262e-14
1.91294e-14
4.37483e-14
1.93802e-14
4.37709e-14
1.96274e-14
4.37943e-14
1.98709e-14
4.38183e-14
2.0111e-14
4.38431e-14
2.03479e-14
4.38687e-14
2.05818e-14
4.38954e-14
2.0813e-14
4.39228e-14
2.10418e-14
4.39508e-14
2.12686e-14
4.39794e-14
2.14934e-14
4.40092e-14
2.17165e-14
4.40401e-14
2.19379e-14
4.4072e-14
2.21579e-14
4.41049e-14
2.23772e-14
4.41387e-14
2.25952e-14
4.41735e-14
2.28125e-14
4.42093e-14
2.30292e-14
4.42464e-14
2.32452e-14
4.42848e-14
2.34607e-14
4.4325e-14
2.36759e-14
4.43666e-14
2.38915e-14
4.44092e-14
2.41071e-14
4.44532e-14
2.43224e-14
4.4499e-14
2.45379e-14
4.45464e-14
2.4754e-14
4.45954e-14
2.49702e-14
4.4646e-14
2.51867e-14
4.46983e-14
2.54036e-14
4.47524e-14
2.56209e-14
4.4808e-14
2.58387e-14
4.48655e-14
2.60569e-14
4.49249e-14
2.62756e-14
4.49867e-14
2.64949e-14
4.50511e-14
2.67134e-14
4.5118e-14
2.69324e-14
4.51866e-14
2.7152e-14
4.52569e-14
2.7372e-14
4.53295e-14
2.75921e-14
4.54046e-14
2.78125e-14
4.54822e-14
2.80332e-14
4.55614e-14
2.82549e-14
4.56429e-14
2.84766e-14
4.57268e-14
2.86993e-14
4.58132e-14
2.89219e-14
4.59024e-14
2.91445e-14
4.59924e-14
2.93689e-14
4.60837e-14
2.95931e-14
4.6178e-14
2.98168e-14
4.62761e-14
3.00409e-14
4.63763e-14
3.02652e-14
4.64786e-14
3.0489e-14
4.65824e-14
3.07139e-14
4.66884e-14
3.09387e-14
4.67983e-14
3.1163e-14
4.69098e-14
3.13874e-14
4.70229e-14
3.16097e-14
4.71409e-14
3.18335e-14
4.72595e-14
3.20585e-14
4.73795e-14
3.22823e-14
4.75011e-14
3.25064e-14
4.76274e-14
3.27289e-14
4.77569e-14
3.29489e-14
4.78874e-14
3.31696e-14
4.80179e-14
3.33882e-14
4.81511e-14
3.36081e-14
4.82853e-14
3.38257e-14
4.84188e-14
3.40442e-14
4.85543e-14
3.42653e-14
4.8691e-14
3.44855e-14
4.88272e-14
3.47053e-14
4.89646e-14
3.49264e-14
4.91008e-14
3.51479e-14
4.92356e-14
3.53676e-14
4.93729e-14
3.55874e-14
4.95108e-14
3.58061e-14
4.96504e-14
3.60235e-14
4.9787e-14
3.62413e-14
4.99236e-14
3.64604e-14
5.00601e-14
3.66796e-14
5.01958e-14
3.68988e-14
5.03317e-14
3.71158e-14
5.04688e-14
3.73304e-14
5.06082e-14
3.75444e-14
5.07501e-14
3.77605e-14
5.08876e-14
3.79717e-14
5.10277e-14
3.81826e-14
5.11677e-14
3.8393e-14
5.13096e-14
3.8608e-14
5.14474e-14
3.88221e-14
5.15875e-14
3.90363e-14
5.17278e-14
3.92554e-14
5.18675e-14
3.94772e-14
5.20045e-14
3.96953e-14
5.21369e-14
3.99135e-14
5.22733e-14
4.01316e-14
5.24161e-14
4.03495e-14
5.2561e-14
4.05754e-14
5.26975e-14
4.07984e-14
5.28365e-14
4.10269e-14
5.29717e-14
4.12586e-14
5.31031e-14
4.14887e-14
5.32331e-14
4.17259e-14
5.3373e-14
4.19633e-14
5.3505e-14
4.21983e-14
5.36294e-14
4.24353e-14
5.3762e-14
4.26717e-14
5.38984e-14
4.29095e-14
5.40276e-14
4.31484e-14
5.4161e-14
4.33835e-14
5.43011e-14
4.36191e-14
5.44413e-14
4.38596e-14
5.45749e-14
4.41e-14
5.47066e-14
4.43423e-14
5.48413e-14
4.45839e-14
5.49768e-14
4.48269e-14
5.51157e-14
4.50686e-14
5.52629e-14
4.53156e-14
5.54045e-14
4.55536e-14
5.55431e-14
4.57939e-14
5.56742e-14
4.6041e-14
5.5805e-14
4.62922e-14
5.59477e-14
4.65496e-14
5.60954e-14
4.67984e-14
5.62315e-14
4.7048e-14
5.63659e-14
4.72931e-14
5.65035e-14
4.75479e-14
5.66446e-14
4.78071e-14
5.67846e-14
4.80559e-14
5.69236e-14
4.8306e-14
5.7062e-14
4.85619e-14
5.71999e-14
4.88136e-14
5.73375e-14
4.90605e-14
5.7475e-14
4.93073e-14
5.76176e-14
4.95534e-14
5.77605e-14
4.98083e-14
5.79091e-14
5.00618e-14
5.80438e-14
5.03036e-14
5.81894e-14
5.05431e-14
5.83462e-14
5.07798e-14
5.84948e-14
5.10034e-14
5.86553e-14
5.12329e-14
5.88133e-14
5.14629e-14
5.89789e-14
5.16879e-14
5.91526e-14
5.19169e-14
5.932e-14
5.21446e-14
5.94815e-14
5.23701e-14
5.96375e-14
5.25979e-14
5.98032e-14
5.28272e-14
5.99594e-14
5.30624e-14
6.01162e-14
5.32978e-14
6.02692e-14
5.35329e-14
6.04236e-14
5.37768e-14
6.05749e-14
5.40141e-14
6.07433e-14
5.4254e-14
6.09093e-14
5.44957e-14
6.10634e-14
5.47487e-14
6.1216e-14
5.50122e-14
6.13823e-14
5.52759e-14
6.15477e-14
5.5544e-14
6.16827e-14
5.58112e-14
6.18273e-14
5.6082e-14
6.19965e-14
5.63558e-14
6.2161e-14
5.66274e-14
6.23059e-14
5.69012e-14
6.24663e-14
5.71569e-14
6.26277e-14
5.74188e-14
6.27803e-14
5.76815e-14
6.29293e-14
5.79398e-14
6.30798e-14
5.82031e-14
6.32321e-14
5.84511e-14
6.33863e-14
5.87132e-14
6.35228e-14
5.89891e-14
6.36416e-14
5.92491e-14
6.37821e-14
5.95027e-14
6.39244e-14
5.97596e-14
6.4049e-14
6.00097e-14
6.41555e-14
6.02729e-14
6.42832e-14
6.05391e-14
6.44218e-14
6.07885e-14
6.45712e-14
6.10309e-14
6.47019e-14
6.1266e-14
6.48039e-14
6.14939e-14
6.49257e-14
6.17339e-14
6.50768e-14
6.19659e-14
6.51986e-14
6.22094e-14
6.52909e-14
6.24353e-14
6.54209e-14
6.26825e-14
6.55589e-14
6.29121e-14
6.56851e-14
6.31336e-14
6.58087e-14
6.33662e-14
6.5929e-14
6.36198e-14
6.60551e-14
6.38756e-14
6.61859e-14
6.40958e-14
6.63012e-14
6.43187e-14
6.64097e-14
6.45448e-14
6.65199e-14
6.4784e-14
6.664e-14
6.49988e-14
6.67403e-14
6.51994e-14
6.68287e-14
6.53961e-14
6.69416e-14
6.55982e-14
6.70589e-14
6.57871e-14
6.71702e-14
6.59632e-14
6.72742e-14
6.61451e-14
6.73791e-14
6.63424e-14
6.74926e-14
6.65369e-14
6.75855e-14
6.67388e-14
6.76835e-14
6.69399e-14
6.77938e-14
6.71503e-14
6.78959e-14
6.73621e-14
6.80333e-14
6.7576e-14
6.81495e-14
6.78305e-14
6.82422e-14
6.80196e-14
6.83439e-14
6.8199e-14
6.84705e-14
6.84049e-14
6.86199e-14
6.86206e-14
6.87903e-14
6.88111e-14
6.89624e-14
6.90299e-14
6.91001e-14
6.92435e-14
6.92364e-14
6.94003e-14
6.93689e-14
6.95539e-14
6.95138e-14
6.97038e-14
6.97051e-14
6.98829e-14
6.98908e-14
7.00385e-14
7.00707e-14
7.01875e-14
7.02454e-14
7.03448e-14
7.03984e-14
7.04753e-14
7.05305e-14
7.06643e-14
7.06754e-14
7.08446e-14
7.08651e-14
7.10502e-14
7.10313e-14
7.11817e-14
7.11725e-14
7.13559e-14
7.1322e-14
7.15565e-14
7.14948e-14
7.17185e-14
7.16727e-14
7.18749e-14
7.18558e-14
7.19918e-14
7.19962e-14
7.21332e-14
7.2128e-14
7.23152e-14
7.23156e-14
7.25216e-14
7.25109e-14
7.27056e-14
7.26974e-14
7.28683e-14
7.27968e-14
7.2966e-14
7.2933e-14
7.31071e-14
7.3092e-14
7.32271e-14
7.32902e-14
7.34002e-14
7.34856e-14
7.35484e-14
7.36195e-14
7.36883e-14
7.37079e-14
7.38228e-14
7.38075e-14
7.39546e-14
7.39905e-14
7.40813e-14
7.41704e-14
7.417e-14
7.42777e-14
7.43369e-14
7.43889e-14
7.44817e-14
7.45456e-14
7.46034e-14
7.472e-14
7.47865e-14
7.48582e-14
7.49183e-14
7.49872e-14
7.51123e-14
7.5107e-14
7.51779e-14
7.52688e-14
7.52488e-14
7.54251e-14
7.53998e-14
7.55298e-14
7.55782e-14
7.56078e-14
7.56289e-14
7.57316e-14
7.57866e-14
7.5853e-14
7.58969e-14
7.59421e-14
7.60677e-14
7.60742e-14
7.61965e-14
7.62454e-14
7.63582e-14
7.64101e-14
7.65038e-14
7.65445e-14
7.66093e-14
7.66742e-14
7.6796e-14
7.68037e-14
7.69468e-14
7.69268e-14
7.71156e-14
7.70636e-14
7.72822e-14
7.72103e-14
7.74232e-14
7.73402e-14
7.74958e-14
7.75005e-14
7.75371e-14
7.76299e-14
7.76734e-14
7.77423e-14
7.77705e-14
7.78825e-14
7.78217e-14
7.79391e-14
7.79393e-14
7.80055e-14
7.80348e-14
7.80965e-14
7.81556e-14
7.8188e-14
7.82396e-14
7.82518e-14
7.83355e-14
7.83522e-14
4.06604e-14
4.33706e-14
4.06607e-14
4.33707e-14
4.06612e-14
4.33709e-14
4.06621e-14
4.33712e-14
4.06634e-14
4.33717e-14
4.0665e-14
4.33724e-14
4.0667e-14
4.33732e-14
4.06694e-14
4.33742e-14
4.06722e-14
4.33754e-14
4.06755e-14
4.33767e-14
4.06791e-14
4.33781e-14
4.06831e-14
4.33797e-14
4.06874e-14
4.33815e-14
4.06922e-14
4.33835e-14
4.06974e-14
4.33856e-14
4.0703e-14
4.33879e-14
4.0709e-14
4.33904e-14
4.07153e-14
4.33931e-14
4.07221e-14
4.33959e-14
4.07292e-14
4.33989e-14
4.07368e-14
4.34022e-14
4.07446e-14
4.34057e-14
4.07529e-14
4.34094e-14
4.07616e-14
4.34133e-14
4.07707e-14
4.34173e-14
4.07803e-14
4.34215e-14
4.07901e-14
4.34259e-14
4.08004e-14
4.34307e-14
4.08111e-14
4.34357e-14
4.08222e-14
4.3441e-14
4.08337e-14
4.34463e-14
4.08455e-14
4.34519e-14
4.08579e-14
4.3458e-14
4.08707e-14
4.34643e-14
4.08839e-14
4.34709e-14
4.08974e-14
4.34778e-14
4.09115e-14
4.3485e-14
4.0926e-14
4.34927e-14
4.09411e-14
4.35004e-14
4.09567e-14
4.35085e-14
4.09729e-14
4.35171e-14
4.09896e-14
4.35262e-14
4.10068e-14
4.35358e-14
4.10249e-14
4.35455e-14
4.10436e-14
4.35559e-14
4.10631e-14
4.35666e-14
4.10834e-14
4.35779e-14
4.11045e-14
4.35898e-14
4.11264e-14
4.3602e-14
4.11492e-14
4.36146e-14
4.1173e-14
4.36277e-14
4.11975e-14
4.36415e-14
4.1223e-14
4.36558e-14
4.12494e-14
4.36709e-14
4.12768e-14
4.36868e-14
4.13051e-14
4.37034e-14
4.13346e-14
4.37209e-14
4.13651e-14
4.37393e-14
4.13967e-14
4.37586e-14
4.14298e-14
4.37785e-14
4.1464e-14
4.37993e-14
4.14996e-14
4.3821e-14
4.15365e-14
4.38443e-14
4.15748e-14
4.3868e-14
4.16142e-14
4.38931e-14
4.16559e-14
4.39193e-14
4.16991e-14
4.3946e-14
4.17439e-14
4.39745e-14
4.17903e-14
4.40039e-14
4.18383e-14
4.40342e-14
4.18878e-14
4.40657e-14
4.19389e-14
4.40988e-14
4.19916e-14
4.41335e-14
4.2046e-14
4.41696e-14
4.21017e-14
4.4207e-14
4.21592e-14
4.42452e-14
4.2219e-14
4.42845e-14
4.2281e-14
4.43252e-14
4.23451e-14
4.4367e-14
4.24099e-14
4.44106e-14
4.24777e-14
4.44561e-14
4.25476e-14
4.45031e-14
4.2619e-14
4.4553e-14
4.26925e-14
4.46049e-14
4.27686e-14
4.46583e-14
4.28462e-14
4.47134e-14
4.29258e-14
4.47712e-14
4.30069e-14
4.483e-14
4.30899e-14
4.48916e-14
4.31749e-14
4.4956e-14
4.32635e-14
4.50206e-14
4.33533e-14
4.50885e-14
4.34451e-14
4.51577e-14
4.35399e-14
4.52264e-14
4.36375e-14
4.52984e-14
4.37382e-14
4.53738e-14
4.38393e-14
4.54534e-14
4.39427e-14
4.55341e-14
4.40499e-14
4.56132e-14
4.41603e-14
4.56942e-14
4.42737e-14
4.57794e-14
4.4387e-14
4.58674e-14
4.45043e-14
4.5958e-14
4.46258e-14
4.60505e-14
4.47461e-14
4.61456e-14
4.48707e-14
4.62417e-14
4.4995e-14
4.63405e-14
4.51209e-14
4.64447e-14
4.52512e-14
4.65499e-14
4.53849e-14
4.66569e-14
4.55194e-14
4.67684e-14
4.56565e-14
4.68799e-14
4.57943e-14
4.69923e-14
4.59348e-14
4.71083e-14
4.6078e-14
4.7227e-14
4.6224e-14
4.73494e-14
4.63689e-14
4.74736e-14
4.65165e-14
4.76005e-14
4.66651e-14
4.77331e-14
4.68155e-14
4.78665e-14
4.69688e-14
4.80015e-14
4.71241e-14
4.81373e-14
4.72803e-14
4.82757e-14
4.74375e-14
4.84189e-14
4.75978e-14
4.85637e-14
4.77612e-14
4.87113e-14
4.79216e-14
4.88604e-14
4.8083e-14
4.90123e-14
4.82455e-14
4.91646e-14
4.84156e-14
4.93133e-14
4.85847e-14
4.94688e-14
4.87551e-14
4.96291e-14
4.89289e-14
4.97877e-14
4.91063e-14
4.99467e-14
4.92806e-14
5.01127e-14
4.94608e-14
5.0279e-14
4.96447e-14
5.04479e-14
4.98279e-14
5.06128e-14
5.00082e-14
5.07846e-14
5.01902e-14
5.09544e-14
5.03805e-14
5.11201e-14
5.05614e-14
5.12927e-14
5.0744e-14
5.14746e-14
5.09308e-14
5.16522e-14
5.11171e-14
5.18232e-14
5.13032e-14
5.19943e-14
5.14889e-14
5.21702e-14
5.16744e-14
5.23508e-14
5.18621e-14
5.25292e-14
5.20473e-14
5.27007e-14
5.22301e-14
5.28747e-14
5.24153e-14
5.30464e-14
5.26005e-14
5.32251e-14
5.27858e-14
5.34062e-14
5.29713e-14
5.35802e-14
5.3157e-14
5.37495e-14
5.33431e-14
5.39258e-14
5.35225e-14
5.41092e-14
5.37071e-14
5.4295e-14
5.38993e-14
5.44783e-14
5.40874e-14
5.46616e-14
5.42713e-14
5.48449e-14
5.4468e-14
5.50233e-14
5.46559e-14
5.52089e-14
5.4852e-14
5.53969e-14
5.50393e-14
5.55897e-14
5.52229e-14
5.57874e-14
5.54124e-14
5.59851e-14
5.56031e-14
5.61684e-14
5.57853e-14
5.63567e-14
5.59639e-14
5.65599e-14
5.61389e-14
5.67585e-14
5.633e-14
5.69428e-14
5.65225e-14
5.71324e-14
5.67017e-14
5.73274e-14
5.68875e-14
5.75131e-14
5.70749e-14
5.77043e-14
5.72592e-14
5.79109e-14
5.74453e-14
5.81036e-14
5.76333e-14
5.82921e-14
5.78333e-14
5.84814e-14
5.80157e-14
5.86815e-14
5.82053e-14
5.88777e-14
5.83973e-14
5.906e-14
5.85869e-14
5.92435e-14
5.87792e-14
5.9438e-14
5.89743e-14
5.96337e-14
5.91724e-14
5.98308e-14
5.93686e-14
6.00193e-14
5.95681e-14
6.02143e-14
5.97611e-14
6.04009e-14
5.99478e-14
6.05791e-14
6.01382e-14
6.07639e-14
6.03325e-14
6.09555e-14
6.05258e-14
6.11439e-14
6.07233e-14
6.13192e-14
6.0925e-14
6.14914e-14
6.10964e-14
6.16805e-14
6.12774e-14
6.18567e-14
6.14778e-14
6.20101e-14
6.16681e-14
6.21754e-14
6.18436e-14
6.23626e-14
6.20043e-14
6.25517e-14
6.21748e-14
6.27333e-14
6.23453e-14
6.29076e-14
6.25156e-14
6.30946e-14
6.26858e-14
6.32846e-14
6.28655e-14
6.34482e-14
6.3045e-14
6.36153e-14
6.32244e-14
6.37959e-14
6.34036e-14
6.39606e-14
6.35631e-14
6.41292e-14
6.37421e-14
6.42923e-14
6.39408e-14
6.44501e-14
6.413e-14
6.46123e-14
6.43001e-14
6.47889e-14
6.44608e-14
6.49603e-14
6.46317e-14
6.51172e-14
6.48325e-14
6.52796e-14
6.50245e-14
6.54474e-14
6.52179e-14
6.56011e-14
6.53936e-14
6.57699e-14
6.55713e-14
6.59445e-14
6.57609e-14
6.61155e-14
6.59626e-14
6.62928e-14
6.6138e-14
6.64766e-14
6.62777e-14
6.66386e-14
6.64586e-14
6.67988e-14
6.66518e-14
6.69766e-14
6.68382e-14
6.71627e-14
6.70181e-14
6.731e-14
6.71921e-14
6.74664e-14
6.737e-14
6.76419e-14
6.75328e-14
6.78179e-14
6.76899e-14
6.79671e-14
6.78606e-14
6.81187e-14
6.80358e-14
6.82635e-14
6.81786e-14
6.84299e-14
6.83453e-14
6.86004e-14
6.84985e-14
6.87664e-14
6.86477e-14
6.89107e-14
6.87931e-14
6.90619e-14
6.89439e-14
6.92025e-14
6.91096e-14
6.9352e-14
6.9272e-14
6.95015e-14
6.94315e-14
6.96337e-14
6.95337e-14
6.9767e-14
6.97054e-14
6.99027e-14
6.9892e-14
7.00231e-14
7.00772e-14
7.01641e-14
7.02084e-14
7.03071e-14
7.03575e-14
7.04532e-14
7.05242e-14
7.05847e-14
7.06738e-14
7.07368e-14
7.08594e-14
7.08569e-14
7.09943e-14
7.09972e-14
7.11496e-14
7.11408e-14
7.13261e-14
7.13057e-14
7.14377e-14
7.14567e-14
7.15533e-14
7.16126e-14
7.17409e-14
7.17232e-14
7.19001e-14
7.18036e-14
7.20003e-14
7.19197e-14
7.21271e-14
7.20551e-14
7.2246e-14
7.22273e-14
7.2372e-14
7.23706e-14
7.25038e-14
7.2503e-14
7.26422e-14
7.26421e-14
7.27706e-14
7.27883e-14
7.28877e-14
7.29427e-14
7.30086e-14
7.30576e-14
7.31171e-14
7.31655e-14
7.32301e-14
7.32504e-14
7.33491e-14
7.3376e-14
7.3473e-14
7.35255e-14
7.35834e-14
7.36357e-14
7.36954e-14
7.37218e-14
7.37937e-14
7.38153e-14
7.39267e-14
7.39311e-14
7.40014e-14
7.40679e-14
7.4108e-14
7.41658e-14
7.42146e-14
7.42691e-14
7.4336e-14
7.43928e-14
7.44262e-14
7.45082e-14
7.45137e-14
7.46182e-14
7.46113e-14
7.47228e-14
7.47177e-14
7.48062e-14
7.48649e-14
7.48674e-14
7.49989e-14
7.49735e-14
7.5064e-14
7.51208e-14
7.52274e-14
7.52272e-14
7.53768e-14
7.53462e-14
7.54875e-14
7.54468e-14
7.55583e-14
7.55564e-14
7.56437e-14
7.56484e-14
7.57717e-14
7.5749e-14
7.59161e-14
7.58561e-14
7.60516e-14
7.59677e-14
7.60768e-14
7.60814e-14
7.6195e-14
7.62317e-14
7.63493e-14
7.63446e-14
7.64635e-14
7.64427e-14
7.65399e-14
7.65737e-14
7.66731e-14
7.66894e-14
7.68378e-14
7.67879e-14
7.69427e-14
7.69115e-14
7.70834e-14
7.70617e-14
7.72331e-14
7.71909e-14
7.74181e-14
7.73215e-14
7.7499e-14
7.74459e-14
7.75906e-14
7.75934e-14
7.77111e-14
7.76979e-14
7.77486e-14
7.78043e-14
7.78542e-14
7.79454e-14
7.79521e-14
7.80321e-14
7.80938e-14
7.81131e-14
7.81737e-14
7.82045e-14
7.82591e-14
7.83083e-14
7.83443e-14
7.83831e-14
7.84086e-14
7.84745e-14
7.83995e-14
7.84678e-14
7.84484e-14
7.85452e-14
7.85693e-14
7.86111e-14
7.86356e-14
7.86817e-14
7.86917e-14
7.87363e-14
7.88093e-14
7.88215e-14
7.88325e-14
7.891e-14
7.8912e-14
7.89634e-14
7.90062e-14
7.90231e-14
7.90987e-14
7.91327e-14
7.91392e-14
7.9177e-14
7.92218e-14
7.92029e-14
7.93033e-14
7.9275e-14
7.93368e-14
7.93679e-14
7.93883e-14
7.94398e-14
7.94807e-14
7.94912e-14
7.95208e-14
7.95413e-14
7.95814e-14
7.95924e-14
7.96373e-14
7.96168e-14
7.96904e-14
7.96634e-14
7.97126e-14
7.97306e-14
7.97804e-14
7.98215e-14
7.98398e-14
7.99137e-14
7.98613e-14
7.99843e-14
7.98965e-14
8.00089e-14
8.00007e-14
8.00402e-14
8.00428e-14
8.00994e-14
8.00781e-14
8.0133e-14
8.01367e-14
8.01972e-14
8.01897e-14
8.0235e-14
8.02089e-14
8.02154e-14
8.02836e-14
8.02501e-14
8.03601e-14
8.03079e-14
8.03229e-14
8.0388e-14
8.03709e-14
8.041e-14
8.04023e-14
8.04453e-14
8.04149e-14
8.04643e-14
8.0423e-14
8.04967e-14
8.04719e-14
8.05136e-14
8.05479e-14
8.05281e-14
8.0531e-14
8.05535e-14
8.05732e-14
8.05921e-14
8.06296e-14
8.06136e-14
8.05762e-14
8.06164e-14
8.06291e-14
8.06188e-14
8.06496e-14
8.06172e-14
8.06064e-14
8.06112e-14
8.0577e-14
8.06356e-14
8.06083e-14
8.06443e-14
8.06538e-14
8.06688e-14
8.06644e-14
8.06418e-14
8.06085e-14
8.0611e-14
8.06002e-14
8.06103e-14
8.06232e-14
8.06233e-14
8.05952e-14
8.05991e-14
8.05486e-14
8.05886e-14
8.05661e-14
8.06109e-14
8.05808e-14
8.06158e-14
8.05597e-14
8.06032e-14
8.05369e-14
8.05907e-14
8.05638e-14
8.05956e-14
8.05731e-14
8.05998e-14
8.05468e-14
8.06031e-14
8.05533e-14
8.0624e-14
8.05569e-14
8.06457e-14
8.05398e-14
8.06511e-14
8.05014e-14
8.06406e-14
8.05118e-14
8.06509e-14
8.05541e-14
8.06467e-14
8.05397e-14
8.06623e-14
8.05576e-14
8.06801e-14
8.05721e-14
8.06822e-14
8.05656e-14
8.06867e-14
8.05377e-14
8.06938e-14
8.05237e-14
8.06859e-14
8.05786e-14
8.06812e-14
8.05942e-14
8.06784e-14
8.05709e-14
8.06399e-14
8.05549e-14
8.06112e-14
8.05837e-14
8.06291e-14
8.06022e-14
8.06476e-14
8.06106e-14
8.06572e-14
8.06084e-14
8.06671e-14
8.06235e-14
8.06775e-14
8.06373e-14
8.06789e-14
8.06311e-14
8.06804e-14
8.0614e-14
8.06917e-14
8.05948e-14
8.07033e-14
8.06207e-14
8.06966e-14
8.06255e-14
8.06902e-14
8.06379e-14
8.06934e-14
8.06486e-14
8.07063e-14
8.06575e-14
8.07192e-14
8.06739e-14
8.07032e-14
8.06792e-14
8.06964e-14
8.06928e-14
8.07179e-14
8.07049e-14
8.07291e-14
8.07156e-14
8.07301e-14
8.07153e-14
8.07304e-14
8.07138e-14
8.07202e-14
8.07113e-14
8.07286e-14
8.07177e-14
8.07458e-14
8.07131e-14
8.07427e-14
8.07075e-14
8.0739e-14
8.06911e-14
8.07447e-14
8.06733e-14
8.07697e-14
8.06735e-14
8.0785e-14
8.06718e-14
8.07711e-14
8.06586e-14
8.07769e-14
8.06532e-14
8.0793e-14
8.06459e-14
8.08095e-14
8.06364e-14
8.08268e-14
8.06445e-14
8.08152e-14
8.06604e-14
8.07943e-14
8.06746e-14
8.08135e-14
8.06871e-14
8.08333e-14
8.06979e-14
8.08239e-14
8.07074e-14
8.08148e-14
8.07155e-14
8.0811e-14
8.07175e-14
8.08224e-14
8.07283e-14
8.08291e-14
8.0733e-14
8.08411e-14
8.07366e-14
8.08434e-14
8.07442e-14
8.08461e-14
8.07458e-14
8.08441e-14
8.07417e-14
8.08623e-14
8.07516e-14
8.0856e-14
8.07656e-14
8.0845e-14
8.07541e-14
8.0854e-14
8.07468e-14
8.08733e-14
8.07536e-14
8.0888e-14
8.07547e-14
8.09032e-14
8.07549e-14
8.09088e-14
8.07592e-14
8.09199e-14
8.07677e-14
8.09364e-14
8.07752e-14
8.09336e-14
8.07721e-14
8.09312e-14
8.07682e-14
8.09541e-14
8.07684e-14
8.09775e-14
8.07678e-14
8.10065e-14
8.07662e-14
8.10263e-14
8.07636e-14
8.1042e-14
8.07649e-14
8.10584e-14
8.07751e-14
8.10609e-14
8.07794e-14
8.10741e-14
8.07877e-14
8.1093e-14
8.07999e-14
8.11079e-14
8.08211e-14
8.11089e-14
8.08267e-14
8.11106e-14
8.08413e-14
8.1118e-14
8.08503e-14
8.11163e-14
8.08537e-14
8.11105e-14
8.08565e-14
8.11101e-14
8.08636e-14
8.11152e-14
8.087e-14
8.11161e-14
8.08807e-14
8.11224e-14
8.0886e-14
8.11291e-14
8.0886e-14
8.11388e-14
8.08927e-14
8.11346e-14
8.08965e-14
8.11332e-14
8.08998e-14
8.11371e-14
8.09075e-14
8.11415e-14
8.09147e-14
8.11438e-14
8.09072e-14
8.1149e-14
8.09088e-14
8.11521e-14
8.09123e-14
8.1158e-14
8.09201e-14
8.11619e-14
8.09369e-14
8.11709e-14
8.09439e-14
8.11684e-14
8.09435e-14
8.11616e-14
8.09474e-14
8.11598e-14
8.09556e-14
8.11606e-14
8.09635e-14
8.11685e-14
8.09688e-14
8.11744e-14
8.09715e-14
8.1176e-14
8.09762e-14
8.11777e-14
8.09807e-14
8.1182e-14
8.09803e-14
8.11796e-14
8.09774e-14
8.11774e-14
8.09766e-14
8.11868e-14
8.098e-14
8.11962e-14
8.09787e-14
8.12014e-14
8.09771e-14
8.12068e-14
8.09775e-14
8.12123e-14
8.09777e-14
8.1218e-14
8.09776e-14
8.12152e-14
8.09773e-14
8.1219e-14
8.0981e-14
8.12231e-14
8.09845e-14
8.12251e-14
8.09878e-14
8.12273e-14
8.09886e-14
8.12297e-14
8.09914e-14
8.1228e-14
8.09919e-14
8.12264e-14
8.09942e-14
8.1225e-14
8.09964e-14
8.12258e-14
8.09983e-14
8.12288e-14
8.10001e-14
8.12278e-14
8.10016e-14
8.12249e-14
8.1004e-14
8.12242e-14
8.10063e-14
8.12255e-14
8.10084e-14
8.1224e-14
8.10103e-14
8.12226e-14
8.1013e-14
8.12203e-14
8.10146e-14
8.1221e-14
8.10161e-14
8.12238e-14
8.10175e-14
8.12247e-14
8.10196e-14
8.12228e-14
8.10198e-14
8.1221e-14
8.10198e-14
8.12202e-14
8.10225e-14
8.12195e-14
8.10232e-14
8.12198e-14
8.10248e-14
8.12193e-14
8.10235e-14
8.12197e-14
8.10239e-14
8.12184e-14
8.10234e-14
8.12208e-14
8.10227e-14
8.12232e-14
8.10229e-14
8.12221e-14
8.10238e-14
8.1222e-14
8.10255e-14
8.12219e-14
8.10254e-14
8.12253e-14
8.10244e-14
8.12279e-14
8.10233e-14
8.12297e-14
8.1023e-14
8.12307e-14
8.10226e-14
8.12334e-14
8.10221e-14
8.12369e-14
8.10215e-14
8.12388e-14
8.10202e-14
8.12408e-14
8.10211e-14
8.1242e-14
8.10219e-14
8.12456e-14
8.10203e-14
8.12499e-14
8.10206e-14
8.12513e-14
8.10197e-14
8.12511e-14
8.10203e-14
8.12514e-14
8.10207e-14
8.12525e-14
8.10219e-14
8.12532e-14
8.10229e-14
8.12533e-14
8.10243e-14
8.12526e-14
8.10248e-14
8.12507e-14
8.10253e-14
8.12492e-14
8.10265e-14
8.12487e-14
8.10269e-14
8.12483e-14
8.10282e-14
8.12473e-14
8.10288e-14
8.12463e-14
8.10291e-14
8.12454e-14
8.10296e-14
8.12436e-14
8.10301e-14
8.12424e-14
8.10302e-14
8.12419e-14
8.10303e-14
8.12415e-14
8.10301e-14
8.1241e-14
8.10295e-14
8.12404e-14
8.10295e-14
8.124e-14
8.10294e-14
8.12397e-14
8.10296e-14
8.12385e-14
8.10295e-14
8.12377e-14
8.10294e-14
8.1238e-14
8.10292e-14
8.12381e-14
8.10294e-14
8.12376e-14
8.10294e-14
8.12371e-14
8.10293e-14
8.12364e-14
8.10295e-14
8.1236e-14
8.10296e-14
8.12354e-14
8.10296e-14
8.1235e-14
8.10297e-14
8.12352e-14
8.10298e-14
8.1235e-14
8.10296e-14
8.12345e-14
8.10296e-14
8.12341e-14
8.10298e-14
8.1234e-14
8.10295e-14
8.12338e-14
8.10293e-14
8.12336e-14
8.10292e-14
8.12335e-14
8.10293e-14
8.12336e-14
8.10291e-14
8.12334e-14
8.10291e-14
8.12332e-14
8.1029e-14
8.1233e-14
8.10289e-14
8.1233e-14
8.10287e-14
8.12331e-14
8.10286e-14
8.1233e-14
8.10286e-14
8.12331e-14
8.10288e-14
8.12329e-14
8.10288e-14
8.12327e-14
8.10289e-14
8.12325e-14
8.10289e-14
8.12324e-14
8.10289e-14
8.12323e-14
8.1029e-14
8.12322e-14
8.1029e-14
8.12319e-14
8.1029e-14
8.12319e-14
8.10291e-14
8.12319e-14
8.10291e-14
8.12318e-14
8.10292e-14
8.12318e-14
8.10291e-14
8.12317e-14
8.10292e-14
8.12315e-14
8.10292e-14
8.12313e-14
8.10292e-14
8.12309e-14
8.10292e-14
8.12306e-14
8.10292e-14
8.12303e-14
8.10292e-14
8.123e-14
8.10292e-14
8.12298e-14
8.10292e-14
8.12296e-14
8.10291e-14
8.12294e-14
8.10291e-14
8.12292e-14
8.1029e-14
8.1229e-14
8.1029e-14
8.12288e-14
8.10289e-14
8.12286e-14
8.10288e-14
8.12285e-14
8.10288e-14
8.12284e-14
8.10287e-14
8.12282e-14
8.10287e-14
8.1228e-14
8.10286e-14
8.12279e-14
8.10286e-14
8.12278e-14
8.10286e-14
8.12277e-14
8.10285e-14
8.12276e-14
8.10285e-14
8.12275e-14
8.10285e-14
8.12274e-14
8.10285e-14
8.12273e-14
8.10285e-14
8.12273e-14
8.10285e-14
8.12273e-14
8.10285e-14
8.12272e-14
8.10285e-14
8.12272e-14
8.10285e-14
8.12272e-14
8.10285e-14
8.12272e-14
7.84451e-14
7.85188e-14
7.84959e-14
7.86026e-14
7.8602e-14
7.86403e-14
7.86823e-14
7.86866e-14
7.87197e-14
7.87342e-14
7.88039e-14
7.88074e-14
7.88878e-14
7.89041e-14
7.89503e-14
7.89799e-14
7.90118e-14
7.90376e-14
7.90949e-14
7.91002e-14
7.91778e-14
7.91619e-14
7.92903e-14
7.92212e-14
7.93424e-14
7.92985e-14
7.94025e-14
7.93725e-14
7.94704e-14
7.94693e-14
7.94929e-14
7.9543e-14
7.95877e-14
7.95745e-14
7.96625e-14
7.96326e-14
7.97452e-14
7.9664e-14
7.98422e-14
7.97426e-14
7.98509e-14
7.98427e-14
7.98937e-14
7.98946e-14
7.99421e-14
7.99503e-14
7.99401e-14
8.00362e-14
8.00158e-14
8.00784e-14
8.00919e-14
8.01292e-14
8.01133e-14
8.01591e-14
8.01058e-14
8.01952e-14
8.01778e-14
8.02694e-14
8.0245e-14
8.0325e-14
8.028e-14
8.03325e-14
8.03141e-14
8.03769e-14
8.03452e-14
8.04304e-14
8.03112e-14
8.0494e-14
8.03541e-14
8.05436e-14
8.04448e-14
8.05798e-14
8.04688e-14
8.06286e-14
8.04546e-14
8.06617e-14
8.05365e-14
8.06811e-14
8.05972e-14
8.06672e-14
8.06093e-14
8.06918e-14
8.06035e-14
8.06934e-14
8.0641e-14
8.07023e-14
8.06918e-14
8.07165e-14
8.06808e-14
8.07662e-14
8.0683e-14
8.07437e-14
8.06993e-14
8.07106e-14
8.06524e-14
8.07287e-14
8.06525e-14
8.07522e-14
8.07313e-14
8.07986e-14
8.07269e-14
8.07849e-14
8.07049e-14
8.07761e-14
8.06985e-14
8.07899e-14
8.0657e-14
8.08273e-14
8.0677e-14
8.07739e-14
8.06783e-14
8.07436e-14
8.06455e-14
8.0718e-14
8.06115e-14
8.07137e-14
8.05746e-14
8.06798e-14
8.05688e-14
8.06848e-14
8.05253e-14
8.07122e-14
8.05625e-14
8.07121e-14
8.05954e-14
8.0718e-14
8.06256e-14
8.07115e-14
8.06018e-14
8.0726e-14
8.05929e-14
8.07273e-14
8.05811e-14
8.06797e-14
8.05679e-14
8.06527e-14
8.06069e-14
8.06814e-14
8.0627e-14
8.07124e-14
8.06281e-14
8.071e-14
8.06101e-14
8.06915e-14
8.06271e-14
8.06749e-14
8.06437e-14
8.06956e-14
8.06604e-14
8.06808e-14
8.06414e-14
8.06847e-14
8.06406e-14
8.07079e-14
8.06389e-14
8.07142e-14
8.06272e-14
8.06856e-14
8.0615e-14
8.06771e-14
8.06207e-14
8.06794e-14
8.06629e-14
8.07109e-14
8.06768e-14
8.07345e-14
8.06904e-14
8.07313e-14
8.07133e-14
8.07385e-14
8.07271e-14
8.07561e-14
8.07411e-14
8.07936e-14
8.07553e-14
8.08136e-14
8.07794e-14
8.08067e-14
8.07947e-14
8.08009e-14
8.0811e-14
8.08054e-14
8.08477e-14
8.08201e-14
8.08764e-14
8.08352e-14
8.0878e-14
8.08505e-14
8.09004e-14
8.08568e-14
8.09246e-14
8.08731e-14
8.09313e-14
8.08898e-14
8.09396e-14
8.08972e-14
8.09203e-14
8.0905e-14
8.09021e-14
8.0933e-14
8.08943e-14
8.09624e-14
8.08964e-14
8.09643e-14
8.0889e-14
8.09384e-14
8.08819e-14
8.09137e-14
8.08949e-14
8.09195e-14
8.09085e-14
8.09361e-14
8.09229e-14
8.09437e-14
8.09283e-14
8.09423e-14
8.09345e-14
8.09318e-14
8.0932e-14
8.09415e-14
8.09303e-14
8.0942e-14
8.09296e-14
8.0953e-14
8.09198e-14
8.09546e-14
8.09305e-14
8.09272e-14
8.09421e-14
8.092e-14
8.09448e-14
8.09428e-14
8.09383e-14
8.0946e-14
8.09424e-14
8.09198e-14
8.09423e-14
8.09187e-14
8.0943e-14
8.09227e-14
8.09494e-14
8.09219e-14
8.09366e-14
8.09261e-14
8.09393e-14
8.09256e-14
8.09227e-14
8.09252e-14
8.09064e-14
8.09199e-14
8.09155e-14
8.0915e-14
8.09099e-14
8.09351e-14
8.09096e-14
8.09455e-14
8.09094e-14
8.09363e-14
8.08994e-14
8.09224e-14
8.08997e-14
8.09386e-14
8.09001e-14
8.09601e-14
8.09154e-14
8.09619e-14
8.0911e-14
8.0964e-14
8.09216e-14
8.09764e-14
8.09174e-14
8.0984e-14
8.09131e-14
8.0977e-14
8.09089e-14
8.09803e-14
8.09146e-14
8.09838e-14
8.09203e-14
8.10024e-14
8.09161e-14
8.10163e-14
8.09168e-14
8.10156e-14
8.09124e-14
8.10152e-14
8.0913e-14
8.101e-14
8.09233e-14
8.101e-14
8.09138e-14
8.10199e-14
8.09141e-14
8.10301e-14
8.09044e-14
8.10453e-14
8.09142e-14
8.10411e-14
8.09237e-14
8.10274e-14
8.09232e-14
8.10187e-14
8.09276e-14
8.10297e-14
8.09366e-14
8.1031e-14
8.09455e-14
8.10324e-14
8.09446e-14
8.10388e-14
8.09533e-14
8.10501e-14
8.09522e-14
8.10567e-14
8.0951e-14
8.10609e-14
8.09544e-14
8.10581e-14
8.09601e-14
8.10674e-14
8.0968e-14
8.10816e-14
8.09734e-14
8.10887e-14
8.09811e-14
8.10912e-14
8.0991e-14
8.10938e-14
8.10055e-14
8.11108e-14
8.10104e-14
8.11207e-14
8.10199e-14
8.11237e-14
8.10176e-14
8.11291e-14
8.10245e-14
8.11323e-14
8.10361e-14
8.11355e-14
8.10405e-14
8.11389e-14
8.10425e-14
8.11401e-14
8.10445e-14
8.11437e-14
8.10487e-14
8.11519e-14
8.10482e-14
8.11649e-14
8.10476e-14
8.11687e-14
8.10492e-14
8.11704e-14
8.10553e-14
8.11699e-14
8.10658e-14
8.11741e-14
8.10694e-14
8.11829e-14
8.10729e-14
8.11872e-14
8.10808e-14
8.11849e-14
8.10931e-14
8.11894e-14
8.11031e-14
8.12006e-14
8.1113e-14
8.12074e-14
8.11163e-14
8.12164e-14
8.11195e-14
8.12233e-14
8.11227e-14
8.12303e-14
8.11236e-14
8.12373e-14
8.11246e-14
8.12379e-14
8.11276e-14
8.12386e-14
8.11327e-14
8.12457e-14
8.11336e-14
8.1255e-14
8.11344e-14
8.12601e-14
8.11309e-14
8.12653e-14
8.11337e-14
8.12695e-14
8.11334e-14
8.12686e-14
8.1135e-14
8.12688e-14
8.11336e-14
8.12722e-14
8.11351e-14
8.12736e-14
8.11366e-14
8.12721e-14
8.1138e-14
8.12737e-14
8.11384e-14
8.12733e-14
8.11408e-14
8.12711e-14
8.11431e-14
8.1269e-14
8.11444e-14
8.1267e-14
8.11456e-14
8.12659e-14
8.11487e-14
8.12612e-14
8.1148e-14
8.12594e-14
8.11482e-14
8.12586e-14
8.11474e-14
8.1256e-14
8.11476e-14
8.12525e-14
8.11487e-14
8.12491e-14
8.11497e-14
8.12458e-14
8.11507e-14
8.12452e-14
8.11517e-14
8.12447e-14
8.11518e-14
8.12434e-14
8.1151e-14
8.12429e-14
8.11503e-14
8.12417e-14
8.11503e-14
8.12405e-14
8.11504e-14
8.1241e-14
8.11513e-14
8.12407e-14
8.11513e-14
8.12379e-14
8.11538e-14
8.12352e-14
8.11538e-14
8.12334e-14
8.11539e-14
8.12332e-14
8.11531e-14
8.12322e-14
8.11531e-14
8.12321e-14
8.11539e-14
8.12319e-14
8.11555e-14
8.12318e-14
8.11559e-14
8.12325e-14
8.11551e-14
8.12317e-14
8.11544e-14
8.12309e-14
8.11537e-14
8.12308e-14
8.11529e-14
8.12319e-14
8.11508e-14
8.12333e-14
8.1149e-14
8.1234e-14
8.11476e-14
8.12336e-14
8.11469e-14
8.12343e-14
8.11456e-14
8.12371e-14
8.11442e-14
8.12388e-14
8.11435e-14
8.12392e-14
8.11429e-14
8.12399e-14
8.11422e-14
8.12412e-14
8.11415e-14
8.12423e-14
8.11408e-14
8.12427e-14
8.11411e-14
8.12434e-14
8.11404e-14
8.12451e-14
8.11398e-14
8.12464e-14
8.11394e-14
8.12469e-14
8.1139e-14
8.12479e-14
8.11389e-14
8.1249e-14
8.11388e-14
8.12494e-14
8.1139e-14
8.12502e-14
8.11384e-14
8.12518e-14
8.1138e-14
8.12531e-14
8.11376e-14
8.12538e-14
8.11375e-14
8.12542e-14
8.11378e-14
8.12546e-14
8.11375e-14
8.12556e-14
8.11368e-14
8.12566e-14
8.11364e-14
8.12572e-14
8.11359e-14
8.12578e-14
8.11356e-14
8.12587e-14
8.11352e-14
8.12594e-14
8.11353e-14