/*--------------------------------*- C++ -*----------------------------------*\
| =========                 |                                                 |
| \\      /  F ield         | OpenFOAM: The Open Source CFD Toolbox           |
|  \\    /   O peration     | Version:  2012                                  |
|   \\  /    A nd           | Website:  www.openfoam.com                      |
|    \\/     M anipulation  |                                                 |
\*---------------------------------------------------------------------------*/
FoamFile
{
    version     2.0;
    format      ascii;
    class       surfaceScalarField;
    location    "9000";
    object      phi;
}
// * * * * * * * * * * * * * * * * * * * * * * * * * * * * * * * * * * * * * //

dimensions      [0 3 -1 0 0 0 0];
oriented        oriented;


internalField   nonuniform List<scalar> 
5116
(
1.63725e-08
-8.16357e-18
-3.82678e-22
-7.64128e-22
-1.90537e-23
5.00682e-08
-8.1591e-18
-1.56182e-21
-3.45079e-21
-2.27522e-22
8.52291e-08
-8.15455e-18
-1.59471e-21
-6.16335e-21
-2.37555e-22
1.21905e-07
-8.14987e-18
-1.63705e-21
-8.9528e-21
-2.48004e-22
1.60147e-07
-8.14503e-18
-1.68147e-21
-1.18372e-20
-2.58886e-22
2.00008e-07
-8.14014e-18
-1.72697e-21
-1.47175e-20
-2.70216e-22
2.41543e-07
-8.13509e-18
-1.77401e-21
-1.77041e-20
-2.82011e-22
2.84809e-07
-8.12991e-18
-1.8226e-21
-2.07241e-20
-2.9429e-22
3.29863e-07
-8.12464e-18
-1.87267e-21
-2.38651e-20
-3.0707e-22
3.76765e-07
-8.1191e-18
-1.92419e-21
-2.7093e-20
-3.2037e-22
4.25576e-07
-8.11338e-18
-1.97719e-21
-3.04184e-20
-3.34209e-22
4.76361e-07
-8.10756e-18
-2.03173e-21
-3.38249e-20
-3.48607e-22
5.29185e-07
-8.10172e-18
-2.08782e-21
-3.7373e-20
-3.63584e-22
5.84115e-07
-8.09572e-18
-2.14552e-21
-4.08296e-20
-3.79159e-22
6.41221e-07
-8.08952e-18
-2.20488e-21
-4.44259e-20
-3.95358e-22
7.00572e-07
-8.08307e-18
-2.26594e-21
-4.82144e-20
-4.12199e-22
7.62243e-07
-8.07637e-18
-2.32874e-21
-5.23126e-20
-4.29703e-22
8.26309e-07
-8.06968e-18
-2.39333e-21
-5.61463e-20
-4.47889e-22
8.92846e-07
-8.06321e-18
-2.45975e-21
-6.00711e-20
-4.66781e-22
9.61933e-07
-8.05624e-18
-2.52803e-21
-6.42586e-20
-4.864e-22
1.03365e-06
-8.04892e-18
-2.5982e-21
-6.85742e-20
-5.06765e-22
1.10808e-06
-8.04139e-18
-2.67027e-21
-7.28283e-20
-5.2789e-22
1.1853e-06
-8.03386e-18
-2.74428e-21
-7.71953e-20
-5.49787e-22
1.2654e-06
-8.02538e-18
-2.8202e-21
-8.23397e-20
-5.72471e-22
1.34847e-06
-8.01701e-18
-2.89805e-21
-8.70568e-20
-5.95942e-22
1.43458e-06
-8.009e-18
-2.97777e-21
-9.16326e-20
-6.20217e-22
1.52382e-06
-8.00092e-18
-3.05932e-21
-9.65548e-20
-6.453e-22
1.61629e-06
-7.99218e-18
-3.14262e-21
-1.01512e-19
-6.71178e-22
1.71206e-06
-7.98324e-18
-3.22756e-21
-1.06516e-19
-6.9784e-22
1.81121e-06
-7.97378e-18
-3.31403e-21
-1.11734e-19
-7.25263e-22
1.91382e-06
-7.96412e-18
-3.40188e-21
-1.17219e-19
-7.5342e-22
2.01998e-06
-7.95411e-18
-3.4909e-21
-1.22797e-19
-7.82279e-22
2.12975e-06
-7.94336e-18
-3.58089e-21
-1.28936e-19
-8.11796e-22
2.24319e-06
-7.93262e-18
-3.67159e-21
-1.35131e-19
-8.41894e-22
2.36039e-06
-7.92235e-18
-3.76267e-21
-1.40372e-19
-8.72503e-22
2.48138e-06
-7.9116e-18
-3.8538e-21
-1.46242e-19
-9.03576e-22
2.60622e-06
-7.90143e-18
-3.94459e-21
-1.51962e-19
-9.35024e-22
2.73495e-06
-7.89066e-18
-4.03463e-21
-1.57763e-19
-9.66741e-22
2.8676e-06
-7.87951e-18
-4.12347e-21
-1.64563e-19
-9.9859e-22
3.00419e-06
-7.86781e-18
-4.2107e-21
-1.70993e-19
-1.03044e-21
3.14474e-06
-7.85573e-18
-4.29586e-21
-1.77143e-19
-1.06218e-21
3.28924e-06
-7.84356e-18
-4.37848e-21
-1.84145e-19
-1.09365e-21
3.4377e-06
-7.83117e-18
-4.45815e-21
-1.9099e-19
-1.12471e-21
3.59009e-06
-7.81887e-18
-4.53441e-21
-1.97273e-19
-1.15521e-21
3.7464e-06
-7.80772e-18
-4.60685e-21
-2.03006e-19
-1.1851e-21
3.90658e-06
-7.79489e-18
-4.67506e-21
-2.10403e-19
-1.21422e-21
4.07061e-06
-7.78198e-18
-4.73879e-21
-2.17693e-19
-1.24243e-21
4.23843e-06
-7.7677e-18
-4.79775e-21
-2.252e-19
-1.26964e-21
4.41e-06
-7.75519e-18
-4.85175e-21
-2.32109e-19
-1.29575e-21
4.58526e-06
-7.74245e-18
-4.90055e-21
-2.37965e-19
-1.32071e-21
4.76415e-06
-7.72832e-18
-4.94412e-21
-2.44421e-19
-1.34448e-21
4.94663e-06
-7.71487e-18
-4.9825e-21
-2.51028e-19
-1.36702e-21
5.13264e-06
-7.70166e-18
-5.01567e-21
-2.58277e-19
-1.38828e-21
5.32213e-06
-7.68671e-18
-5.04372e-21
-2.66054e-19
-1.40826e-21
5.51504e-06
-7.67175e-18
-5.06689e-21
-2.74393e-19
-1.42695e-21
5.71135e-06
-7.65838e-18
-5.08531e-21
-2.80933e-19
-1.44433e-21
5.91099e-06
-7.64567e-18
-5.09913e-21
-2.88039e-19
-1.46052e-21
6.11396e-06
-7.63092e-18
-5.10852e-21
-2.95709e-19
-1.47555e-21
6.3202e-06
-7.61624e-18
-5.11384e-21
-3.03735e-19
-1.48941e-21
6.52972e-06
-7.60198e-18
-5.11542e-21
-3.11338e-19
-1.5021e-21
6.74249e-06
-7.58807e-18
-5.11343e-21
-3.18654e-19
-1.51365e-21
6.9585e-06
-7.57244e-18
-5.10813e-21
-3.26692e-19
-1.52415e-21
7.17776e-06
-7.55734e-18
-5.09989e-21
-3.34571e-19
-1.53371e-21
7.40028e-06
-7.54234e-18
-5.08894e-21
-3.41607e-19
-1.54228e-21
7.62605e-06
-7.52969e-18
-5.07547e-21
-3.48055e-19
-1.54994e-21
7.85512e-06
-7.51514e-18
-5.05972e-21
-3.55759e-19
-1.55681e-21
8.08749e-06
-7.50021e-18
-5.04203e-21
-3.64687e-19
-1.56275e-21
8.3232e-06
-7.48428e-18
-5.02245e-21
-3.72535e-19
-1.56798e-21
8.56228e-06
-7.46951e-18
-5.00126e-21
-3.81729e-19
-1.57239e-21
8.80478e-06
-7.45208e-18
-4.97859e-21
-3.90413e-19
-1.57585e-21
9.05074e-06
-7.43938e-18
-4.95475e-21
-3.96319e-19
-1.57833e-21
9.3002e-06
-7.42632e-18
-4.92967e-21
-4.00863e-19
-1.58003e-21
9.55323e-06
-7.41347e-18
-4.90354e-21
-4.06481e-19
-1.58113e-21
9.80988e-06
-7.39901e-18
-4.8765e-21
-4.12098e-19
-1.58136e-21
1.00702e-05
-7.38632e-18
-4.84882e-21
-4.18743e-19
-1.58063e-21
1.03343e-05
-7.37551e-18
-4.82046e-21
-4.24059e-19
-1.57892e-21
1.06021e-05
-7.3649e-18
-4.79147e-21
-4.30314e-19
-1.57617e-21
1.08739e-05
-7.35206e-18
-4.7619e-21
-4.36704e-19
-1.57241e-21
1.11496e-05
-7.34233e-18
-4.73202e-21
-4.42586e-19
-1.56765e-21
1.14293e-05
-7.33193e-18
-4.70151e-21
-4.49056e-19
-1.56192e-21
1.17131e-05
-7.31954e-18
-4.67085e-21
-4.5491e-19
-1.55515e-21
1.20011e-05
-7.3103e-18
-4.63994e-21
-4.61408e-19
-1.5475e-21
1.22934e-05
-7.29862e-18
-4.60821e-21
-4.64979e-19
-1.53939e-21
1.259e-05
-7.28437e-18
-4.576e-21
-4.7394e-19
-1.53056e-21
1.2891e-05
-7.27244e-18
-4.54388e-21
-4.80639e-19
-1.52026e-21
1.31966e-05
-7.25997e-18
-4.51129e-21
-4.88476e-19
-1.5089e-21
1.35067e-05
-7.24699e-18
-4.47841e-21
-4.95532e-19
-1.49644e-21
1.38215e-05
-7.23495e-18
-4.44521e-21
-5.02827e-19
-1.48292e-21
1.41411e-05
-7.22255e-18
-4.41139e-21
-5.11907e-19
-1.46845e-21
1.44656e-05
-7.20871e-18
-4.37711e-21
-5.19443e-19
-1.45263e-21
1.4795e-05
-7.1958e-18
-4.34306e-21
-5.27219e-19
-1.43545e-21
1.51295e-05
-7.17839e-18
-4.30859e-21
-5.39963e-19
-1.41746e-21
1.54692e-05
-7.17166e-18
-4.27454e-21
-5.42982e-19
-1.39726e-21
1.58141e-05
-7.16122e-18
-4.23999e-21
-5.52975e-19
-1.37582e-21
1.61644e-05
-7.14868e-18
-4.20554e-21
-5.5916e-19
-1.35328e-21
1.65201e-05
-7.13518e-18
-4.17103e-21
-5.66408e-19
-1.32959e-21
1.68814e-05
-7.11942e-18
-4.13646e-21
-5.73129e-19
-1.3043e-21
1.72484e-05
-7.10359e-18
-4.10244e-21
-5.81491e-19
-1.27735e-21
1.76211e-05
-7.09119e-18
-4.06982e-21
-5.89304e-19
-1.24833e-21
1.79997e-05
-7.07159e-18
-4.03837e-21
-5.99509e-19
-1.21785e-21
1.83844e-05
-7.06252e-18
-4.0087e-21
-6.01264e-19
-1.18548e-21
1.87751e-05
-7.04937e-18
-3.97863e-21
-6.03214e-19
-1.15148e-21
1.91721e-05
-7.04051e-18
-3.94928e-21
-6.06353e-19
-1.11684e-21
1.95753e-05
-7.03514e-18
-3.92008e-21
-6.07792e-19
-1.08128e-21
1.99851e-05
-7.0255e-18
-3.88974e-21
-6.12115e-19
-1.04512e-21
2.04014e-05
-7.01832e-18
-3.86079e-21
-6.16951e-19
-1.00836e-21
2.08243e-05
-7.00864e-18
-3.8319e-21
-6.19312e-19
-9.70993e-22
2.12541e-05
-7.00004e-18
-3.80357e-21
-6.23486e-19
-9.34148e-22
2.16909e-05
-6.98648e-18
-3.77621e-21
-6.31e-19
-8.96956e-22
2.21346e-05
-6.97666e-18
-3.7497e-21
-6.3636e-19
-8.58845e-22
2.25856e-05
-6.96509e-18
-3.72316e-21
-6.44352e-19
-8.20334e-22
2.30439e-05
-6.95653e-18
-3.69825e-21
-6.43657e-19
-7.80187e-22
2.35096e-05
-6.9431e-18
-3.67371e-21
-6.51845e-19
-7.41122e-22
2.39829e-05
-6.93344e-18
-3.6512e-21
-6.57311e-19
-7.01724e-22
2.44639e-05
-6.91907e-18
-3.62965e-21
-6.62926e-19
-6.61792e-22
2.49528e-05
-6.90859e-18
-3.60999e-21
-6.70313e-19
-6.22345e-22
2.54496e-05
-6.8907e-18
-3.59089e-21
-6.80615e-19
-5.83314e-22
2.59546e-05
-6.87516e-18
-3.57453e-21
-6.87892e-19
-5.44778e-22
2.64679e-05
-6.86016e-18
-3.56011e-21
-6.97093e-19
-5.07337e-22
2.69895e-05
-6.8437e-18
-3.54818e-21
-7.03324e-19
-4.69188e-22
2.75198e-05
-6.82743e-18
-3.54036e-21
-7.13634e-19
-4.31221e-22
2.80587e-05
-6.81619e-18
-3.53678e-21
-7.18684e-19
-3.89949e-22
2.86065e-05
-6.79912e-18
-3.53613e-21
-7.30686e-19
-3.45903e-22
2.91633e-05
-6.7988e-18
-3.53938e-21
-7.26153e-19
-2.99576e-22
2.97293e-05
-6.79169e-18
-3.54246e-21
-7.33135e-19
-2.55287e-22
3.03046e-05
-6.78537e-18
-3.54844e-21
-7.38636e-19
-2.11665e-22
3.08895e-05
-6.77936e-18
-3.55386e-21
-7.50101e-19
-1.68368e-22
3.14839e-05
-6.77249e-18
-3.55994e-21
-7.61762e-19
-1.24561e-22
3.20883e-05
-6.74637e-18
-3.5659e-21
-7.67154e-19
-7.86323e-23
3.27026e-05
-6.72747e-18
-3.5793e-21
-7.77831e-19
-3.30084e-23
3.3327e-05
-6.71428e-18
-3.5948e-21
-7.97019e-19
9.84797e-24
3.39618e-05
-6.69717e-18
-3.61162e-21
-8.16838e-19
5.2928e-23
3.46072e-05
-6.69255e-18
-3.63252e-21
-8.21823e-19
9.70062e-23
3.52632e-05
-6.68208e-18
-3.65289e-21
-8.26678e-19
1.37422e-22
3.59301e-05
-6.67845e-18
-3.67439e-21
-8.34163e-19
1.77386e-22
3.66081e-05
-6.67259e-18
-3.69914e-21
-8.37063e-19
2.20778e-22
3.72973e-05
-6.65925e-18
-3.72546e-21
-8.45084e-19
2.63006e-22
3.7998e-05
-6.65703e-18
-3.75564e-21
-8.61274e-19
3.09609e-22
3.87103e-05
-6.6518e-18
-3.78339e-21
-8.60905e-19
3.58842e-22
3.94345e-05
-6.63137e-18
-3.8111e-21
-8.72726e-19
4.02798e-22
4.01707e-05
-6.6197e-18
-3.8495e-21
-8.83125e-19
4.46531e-22
4.09191e-05
-6.60837e-18
-3.8873e-21
-8.92096e-19
4.92055e-22
4.168e-05
-6.59633e-18
-3.9283e-21
-9.03814e-19
5.34088e-22
4.24535e-05
-6.58095e-18
-3.97288e-21
-9.2112e-19
5.78365e-22
4.324e-05
-6.55507e-18
-4.01674e-21
-9.38236e-19
6.29116e-22
4.40395e-05
-6.54052e-18
-4.06739e-21
-9.50379e-19
6.87335e-22
4.48523e-05
-6.52743e-18
-4.11786e-21
-9.55371e-19
7.45289e-22
4.56786e-05
-6.51106e-18
-4.1659e-21
-9.68752e-19
7.99481e-22
4.65188e-05
-6.49635e-18
-4.21511e-21
-9.82606e-19
8.55762e-22
4.73729e-05
-6.47253e-18
-4.25902e-21
-1.00346e-18
9.19435e-22
4.82412e-05
-6.45156e-18
-4.30165e-21
-1.01908e-18
9.84759e-22
4.9124e-05
-6.42552e-18
-4.34439e-21
-1.0435e-18
1.04976e-21
5.00215e-05
-6.41173e-18
-4.39381e-21
-1.05697e-18
1.11497e-21
5.0934e-05
-6.38751e-18
-4.43988e-21
-1.0778e-18
1.17161e-21
5.18616e-05
-6.37247e-18
-4.49457e-21
-1.09438e-18
1.23306e-21
5.28048e-05
-6.35931e-18
-4.55136e-21
-1.1135e-18
1.28844e-21
5.37636e-05
-6.34249e-18
-4.60398e-21
-1.1309e-18
1.33429e-21
5.47384e-05
-6.32517e-18
-4.65277e-21
-1.15401e-18
1.37046e-21
5.57295e-05
-6.29207e-18
-4.71172e-21
-1.1711e-18
1.40599e-21
5.67371e-05
-6.26969e-18
-4.78582e-21
-1.18979e-18
1.42871e-21
5.77615e-05
-6.23598e-18
-4.85703e-21
-1.20871e-18
1.44282e-21
5.88029e-05
-6.22209e-18
-4.93299e-21
-1.23144e-18
1.45546e-21
5.98617e-05
-6.20254e-18
-5.01616e-21
-1.25275e-18
1.47031e-21
6.09381e-05
-6.17808e-18
-5.09421e-21
-1.27902e-18
1.47461e-21
6.20325e-05
-6.14409e-18
-5.18759e-21
-1.30363e-18
1.48051e-21
6.31451e-05
-6.12773e-18
-5.29259e-21
-1.32786e-18
1.47243e-21
6.42763e-05
-6.10051e-18
-5.3913e-21
-1.35373e-18
1.45893e-21
6.54262e-05
-6.06716e-18
-5.49048e-21
-1.3875e-18
1.43411e-21
6.65954e-05
-6.03573e-18
-5.58606e-21
-1.41563e-18
1.43051e-21
6.7784e-05
-6.00476e-18
-5.66456e-21
-1.43913e-18
1.41592e-21
6.89924e-05
-5.98082e-18
-5.74009e-21
-1.47179e-18
1.36491e-21
7.02209e-05
-5.96098e-18
-5.78089e-21
-1.47758e-18
1.2981e-21
7.14698e-05
-5.92982e-18
-5.82465e-21
-1.51422e-18
1.20426e-21
7.27396e-05
-5.88548e-18
-5.87833e-21
-1.56213e-18
1.12112e-21
7.40305e-05
-5.85597e-18
-5.95319e-21
-1.5791e-18
1.07369e-21
7.53428e-05
-5.81605e-18
-6.0602e-21
-1.61209e-18
1.03506e-21
7.6677e-05
-5.80886e-18
-6.22085e-21
-1.61617e-18
1.01169e-21
7.80334e-05
-5.78766e-18
-6.37274e-21
-1.62197e-18
9.50754e-22
7.94123e-05
-5.76942e-18
-6.54071e-21
-1.63987e-18
8.95645e-22
8.08142e-05
-5.75607e-18
-6.73274e-21
-1.65446e-18
8.3524e-22
8.22394e-05
-5.72634e-18
-6.96598e-21
-1.65835e-18
7.73542e-22
8.36883e-05
-5.70526e-18
-7.21326e-21
-1.65777e-18
6.68699e-22
8.51612e-05
-5.6845e-18
-7.49405e-21
-1.67129e-18
5.52022e-22
8.66586e-05
-5.66033e-18
-7.79884e-21
-1.66909e-18
4.72145e-22
8.81809e-05
-5.63818e-18
-8.12409e-21
-1.68956e-18
3.68554e-22
8.97285e-05
-5.6114e-18
-8.45633e-21
-1.70592e-18
2.56396e-22
9.13017e-05
-5.58499e-18
-8.78776e-21
-1.72144e-18
1.25805e-22
9.29011e-05
-5.57329e-18
-9.11965e-21
-1.73584e-18
-1.67538e-23
9.4527e-05
-5.52682e-18
-9.44823e-21
-1.77638e-18
-1.64072e-22
9.61799e-05
-5.50357e-18
-9.80653e-21
-1.79672e-18
-2.89464e-22
9.78602e-05
-5.47184e-18
-1.01085e-20
-1.81885e-18
-4.17618e-22
9.95683e-05
-5.46367e-18
-1.03901e-20
-1.82263e-18
-5.45464e-22
0.000101305
-5.4374e-18
-1.06507e-20
-1.85382e-18
-7.01593e-22
0.00010307
-5.40235e-18
-1.08687e-20
-1.86607e-18
-8.406e-22
0.000104865
-5.38136e-18
-1.10506e-20
-1.88048e-18
-9.9164e-22
0.000106689
-5.35023e-18
-1.11718e-20
-1.91714e-18
-1.17184e-21
0.000108543
-5.31838e-18
-1.12595e-20
-1.94019e-18
-1.28029e-21
0.000110428
-5.28933e-18
-1.12539e-20
-1.98159e-18
-1.39138e-21
0.000112345
-5.24948e-18
-1.12534e-20
-2.01155e-18
-1.45792e-21
0.000114293
-5.21808e-18
-1.12903e-20
-2.0345e-18
-1.46222e-21
0.000116273
-5.15349e-18
-1.12917e-20
-2.07089e-18
-1.44972e-21
0.000118286
-5.12351e-18
-1.13148e-20
-2.0887e-18
-1.42256e-21
0.000120332
-5.09176e-18
-1.12499e-20
-2.10685e-18
-1.41009e-21
0.000122412
-5.02972e-18
-1.12164e-20
-2.12714e-18
-1.37802e-21
0.000124527
-5.00692e-18
-1.12336e-20
-2.15365e-18
-1.34092e-21
0.000126676
-4.96091e-18
-1.12224e-20
-2.1709e-18
-1.34861e-21
0.000128861
-4.93865e-18
-1.12323e-20
-2.1915e-18
-1.37924e-21
0.000131081
-4.93797e-18
-1.13371e-20
-2.18308e-18
-1.40834e-21
0.000133339
-4.87567e-18
-1.13254e-20
-2.23929e-18
-1.58293e-21
0.000135634
-4.83327e-18
-1.14039e-20
-2.26041e-18
-1.63372e-21
0.000137966
-4.79428e-18
-1.14837e-20
-2.28439e-18
-1.58852e-21
0.000140337
-4.74979e-18
-1.14762e-20
-2.31488e-18
-1.5581e-21
0.000142747
-4.71668e-18
-1.15289e-20
-2.35215e-18
-1.58491e-21
0.000145196
-4.67606e-18
-1.15843e-20
-2.37138e-18
-1.54633e-21
0.000147686
-4.60305e-18
-1.1578e-20
-2.39391e-18
-1.50122e-21
0.000150217
-4.53369e-18
-1.15389e-20
-2.39089e-18
-1.48229e-21
0.00015279
-4.48609e-18
-1.16264e-20
-2.41495e-18
-1.60823e-21
0.000155404
-4.44073e-18
-1.1757e-20
-2.45383e-18
-1.7261e-21
0.000158062
-4.40977e-18
-1.20097e-20
-2.4859e-18
-1.81121e-21
0.000160763
-4.36076e-18
-1.21713e-20
-2.48545e-18
-1.82159e-21
0.000163509
-4.31562e-18
-1.23535e-20
-2.49974e-18
-1.99682e-21
0.0001663
-4.2509e-18
-1.2493e-20
-2.52665e-18
-2.38024e-21
0.000169136
-4.24558e-18
-1.27918e-20
-2.55874e-18
-2.66484e-21
0.000172019
-4.1853e-18
-1.28408e-20
-2.58159e-18
-2.82943e-21
0.000174949
-4.15174e-18
-1.30994e-20
-2.60901e-18
-2.99739e-21
0.000177927
-4.11149e-18
-1.31537e-20
-2.58046e-18
-3.12427e-21
0.000180954
-4.10288e-18
-1.29534e-20
-2.58515e-18
-3.28586e-21
0.00018403
-4.06877e-18
-1.26929e-20
-2.58559e-18
-3.53908e-21
0.000187156
-3.98629e-18
-1.26539e-20
-2.59792e-18
-3.76969e-21
0.000190334
-3.95486e-18
-1.28366e-20
-2.62264e-18
-4.0321e-21
0.000193563
-3.92416e-18
-1.28101e-20
-2.61853e-18
-4.14145e-21
0.000196845
-3.90374e-18
-1.26785e-20
-2.58683e-18
-4.42715e-21
0.000200181
-3.8486e-18
-1.24253e-20
-2.61052e-18
-4.91455e-21
0.000203571
-3.81017e-18
-1.2406e-20
-2.63899e-18
-5.56249e-21
0.000207016
-3.75118e-18
-1.2496e-20
-2.66263e-18
-6.16875e-21
0.000210518
-3.73815e-18
-1.29004e-20
-2.68057e-18
-6.68425e-21
0.000214076
-3.70057e-18
-1.3238e-20
-2.69206e-18
-7.17106e-21
0.000217692
-3.68554e-18
-1.35264e-20
-2.69794e-18
-7.89124e-21
0.000221366
-3.66259e-18
-1.39996e-20
-2.67602e-18
-8.59824e-21
0.000225101
-3.67252e-18
-1.42713e-20
-2.69222e-18
-9.64364e-21
0.000228896
-3.66963e-18
-1.43137e-20
-2.68684e-18
-1.02275e-20
0.000232752
-3.64593e-18
-1.42403e-20
-2.68099e-18
-1.12586e-20
0.000236671
-3.65358e-18
-1.43642e-20
-2.63803e-18
-1.22731e-20
0.000240653
-3.66184e-18
-1.46643e-20
-2.61273e-18
-1.33788e-20
0.0002447
-3.62345e-18
-1.47294e-20
-2.69725e-18
-1.46969e-20
0.000248812
-3.56517e-18
-1.49706e-20
-2.70803e-18
-1.49786e-20
0.00025299
-3.52153e-18
-1.49106e-20
-2.75606e-18
-1.59577e-20
0.000257236
-3.42048e-18
-1.4954e-20
-2.77957e-18
-1.69432e-20
0.00026155
-3.37372e-18
-1.52086e-20
-2.82716e-18
-1.78577e-20
0.000265934
-3.34453e-18
-1.53834e-20
-2.82467e-18
-1.84863e-20
0.000270388
-3.30253e-18
-1.45328e-20
-2.85516e-18
-1.86394e-20
0.000274914
-3.27995e-18
-1.3925e-20
-2.79952e-18
-1.82993e-20
0.000279512
-3.26896e-18
-1.3498e-20
-2.7869e-18
-1.83399e-20
0.000284184
-3.22622e-18
-1.27062e-20
-2.77606e-18
-1.86751e-20
0.000288931
-3.07444e-18
-1.25137e-20
-2.8105e-18
-1.8812e-20
0.000293753
-3.03622e-18
-1.35383e-20
-2.80721e-18
-1.93902e-20
0.000298653
-2.976e-18
-1.46039e-20
-2.89085e-18
-2.05278e-20
0.000303631
-2.94049e-18
-1.6272e-20
-2.86456e-18
-2.0485e-20
0.000308689
-2.89795e-18
-1.70498e-20
-2.85718e-18
-2.04297e-20
0.000313826
-2.92279e-18
-1.80267e-20
-2.81148e-18
-2.05765e-20
0.000319046
-2.89399e-18
-1.94405e-20
-2.83229e-18
-2.01779e-20
0.000324348
-2.82539e-18
-2.08336e-20
-2.78554e-18
-1.90283e-20
0.000329735
-2.89934e-18
-2.17133e-20
-2.77725e-18
-1.9839e-20
0.000335207
-2.8626e-18
-2.14275e-20
-2.78869e-18
-2.01076e-20
0.000340765
-2.85047e-18
-2.10471e-20
-2.7297e-18
-2.08342e-20
0.000346411
-2.74472e-18
-2.02246e-20
-2.73833e-18
-2.21259e-20
0.000352146
-2.74779e-18
-2.05888e-20
-2.71249e-18
-2.30731e-20
0.000357971
-2.73131e-18
-2.0113e-20
-2.65363e-18
-2.41042e-20
0.000363887
-2.65951e-18
-1.86419e-20
-2.61971e-18
-2.57406e-20
0.000369897
-2.58453e-18
-1.79461e-20
-2.68519e-18
-2.7042e-20
0.000376
-2.54005e-18
-1.76605e-20
-2.63199e-18
-2.63366e-20
0.000382199
-2.52787e-18
-1.81736e-20
-2.61718e-18
-2.66911e-20
0.000388494
-2.59069e-18
-1.85346e-20
-2.58797e-18
-2.55179e-20
0.000394887
-2.577e-18
-1.67603e-20
-2.55884e-18
-2.42432e-20
0.000401379
-2.51275e-18
-1.46577e-20
-2.50825e-18
-2.27013e-20
0.000407972
-2.50094e-18
-1.28435e-20
-2.37139e-18
-1.96736e-20
0.000414666
-2.38583e-18
-1.07949e-20
-2.49955e-18
-1.99546e-20
0.000421464
-2.39755e-18
-1.19361e-20
-2.451e-18
-1.77604e-20
0.000428365
-2.3745e-18
-1.3177e-20
-2.42892e-18
-1.63395e-20
0.000435373
-2.40076e-18
-1.18584e-20
-2.37854e-18
-1.51244e-20
0.000442487
-2.38424e-18
-1.22402e-20
-2.35709e-18
-1.36346e-20
0.00044971
-2.36007e-18
-1.27882e-20
-2.35999e-18
-1.37901e-20
0.000457042
-2.30097e-18
-1.3572e-20
-2.33992e-18
-1.5738e-20
0.000464485
-2.29478e-18
-1.42672e-20
-2.33004e-18
-1.69309e-20
0.00047204
-2.31901e-18
-1.35483e-20
-2.3364e-18
-1.60672e-20
0.000479708
-2.2505e-18
-1.17551e-20
-2.32436e-18
-1.59602e-20
0.000487491
-2.35227e-18
-1.33102e-20
-2.3492e-18
-1.7667e-20
0.00049539
-2.28896e-18
-1.28393e-20
-2.2796e-18
-1.75029e-20
0.000503405
-2.17581e-18
-1.69858e-20
-2.30743e-18
-1.7717e-20
0.000511539
-2.20454e-18
-2.17787e-20
-2.14889e-18
-1.65487e-20
0.000519792
-2.14603e-18
-2.88425e-20
-2.13381e-18
-2.04537e-20
0.000528165
-2.02292e-18
-3.34586e-20
-2.0298e-18
-1.98178e-20
0.000536659
-1.89757e-18
-3.57142e-20
-2.02076e-18
-1.83408e-20
0.000545275
-1.81532e-18
-3.58467e-20
-1.99966e-18
-1.42378e-20
0.000554015
-1.88495e-18
-3.93221e-20
-1.7826e-18
-7.90775e-21
0.000562879
-1.88719e-18
-3.84545e-20
-1.71079e-18
-1.14806e-20
0.000571867
-1.67762e-18
-3.7052e-20
-1.70573e-18
-1.86419e-20
0.000580981
-1.66357e-18
-4.14316e-20
-1.62722e-18
-2.33948e-20
0.000590222
-1.68054e-18
-3.31119e-20
-1.61726e-18
-2.54585e-20
0.000599589
-1.71847e-18
-2.70151e-20
-1.63855e-18
-2.88093e-20
0.000609083
-1.58577e-18
-1.9759e-20
-1.5599e-18
-2.53176e-20
0.000618704
-1.65225e-18
-1.55744e-20
-1.59713e-18
-1.97638e-20
0.000628453
-1.56593e-18
-9.46255e-21
-1.53587e-18
-1.40394e-20
0.000638329
-1.5381e-18
-6.88758e-21
-1.51737e-18
-9.87911e-21
0.000648333
-1.6574e-18
-1.22489e-20
-1.58091e-18
-9.19325e-21
0.000658463
-1.60562e-18
-6.88948e-21
-1.49454e-18
-6.70235e-21
0.00066872
-1.6294e-18
-1.0124e-20
-1.47447e-18
-1.10573e-20
0.000679103
-1.52701e-18
-8.20888e-21
-1.44684e-18
-1.32545e-20
0.00068961
-1.40163e-18
-8.53276e-21
-1.33397e-18
-1.11856e-20
0.00070024
-1.21753e-18
-1.40235e-21
-1.42684e-18
-1.07058e-20
0.000710993
-1.16756e-18
-4.01569e-21
-1.41293e-18
-1.06651e-20
0.000721865
-1.36766e-18
-1.58685e-20
-1.41241e-18
-5.6769e-21
0.000732855
-1.288e-18
-6.74359e-21
-1.37706e-18
-1.95578e-21
0.00074396
-1.21556e-18
-7.82804e-21
-1.20523e-18
-2.94817e-21
0.000755178
-1.30261e-18
-1.31941e-20
-1.31633e-18
-6.09097e-21
0.000766506
-1.30361e-18
-1.70674e-20
-1.16381e-18
-6.84625e-21
0.00077794
-1.25398e-18
-1.2003e-20
-1.17088e-18
-1.6317e-20
0.000789476
-1.13259e-18
-2.64141e-21
-1.12299e-18
-2.36407e-20
0.000801111
-1.10565e-18
-4.71338e-21
-1.09739e-18
-2.36467e-20
0.000812841
-5.42054e-21
-1.03954e-18
-3.16138e-20
-1.1346e-18
1.63725e-08
-3.29146e-22
-7.37976e-23
5.00682e-08
-1.66191e-21
-5.27863e-22
8.52291e-08
-3.00952e-21
-1.01219e-21
1.21905e-07
-4.36494e-21
-1.5337e-21
1.60147e-07
-5.72246e-21
-2.08048e-21
2.00008e-07
-7.15312e-21
-2.63959e-21
2.41543e-07
-8.67469e-21
-3.1684e-21
2.84809e-07
-1.01793e-20
-3.72268e-21
3.29863e-07
-1.17741e-20
-4.30644e-21
3.76765e-07
-1.33979e-20
-4.92868e-21
4.25576e-07
-1.50756e-20
-5.49982e-21
4.76361e-07
-1.67847e-20
-6.16589e-21
5.29185e-07
-1.85104e-20
-6.77019e-21
5.84115e-07
-2.02856e-20
-7.53245e-21
6.41221e-07
-2.22734e-20
-8.22504e-21
7.00572e-07
-2.39852e-20
-8.95411e-21
7.62243e-07
-2.58541e-20
-9.71248e-21
8.26309e-07
-2.78173e-20
-1.05677e-20
8.92846e-07
-2.9526e-20
-1.1437e-20
9.61933e-07
-3.15272e-20
-1.25536e-20
1.03365e-06
-3.33953e-20
-1.35488e-20
1.10808e-06
-3.57493e-20
-1.44183e-20
1.1853e-06
-3.76328e-20
-1.53776e-20
1.2654e-06
-4.00705e-20
-1.65395e-20
1.34847e-06
-4.25115e-20
-1.76104e-20
1.43458e-06
-4.49787e-20
-1.86955e-20
1.52382e-06
-4.7653e-20
-1.99489e-20
1.61629e-06
-5.02297e-20
-2.12546e-20
1.71206e-06
-5.29182e-20
-2.24446e-20
1.81121e-06
-5.57562e-20
-2.3789e-20
1.91382e-06
-5.82068e-20
-2.53064e-20
2.01998e-06
-6.1271e-20
-2.69197e-20
2.12975e-06
-6.41874e-20
-2.84843e-20
2.24319e-06
-6.66941e-20
-3.00658e-20
2.36039e-06
-6.96293e-20
-3.14911e-20
2.48138e-06
-7.26383e-20
-3.33821e-20
2.60622e-06
-7.55118e-20
-3.54448e-20
2.73495e-06
-7.85108e-20
-3.70653e-20
2.8676e-06
-8.13243e-20
-3.91999e-20
3.00419e-06
-8.49325e-20
-4.12514e-20
3.14474e-06
-8.79534e-20
-4.32679e-20
3.28924e-06
-9.17575e-20
-4.57272e-20
3.4377e-06
-9.5529e-20
-4.71154e-20
3.59009e-06
-9.90992e-20
-4.9997e-20
3.7464e-06
-1.02843e-19
-5.16499e-20
3.90658e-06
-1.07841e-19
-5.33261e-20
4.07061e-06
-1.12539e-19
-5.53806e-20
4.23843e-06
-1.16881e-19
-5.71533e-20
4.41e-06
-1.20601e-19
-5.87682e-20
4.58526e-06
-1.25426e-19
-6.04565e-20
4.76415e-06
-1.29827e-19
-6.248e-20
4.94663e-06
-1.33277e-19
-6.47865e-20
5.13264e-06
-1.36762e-19
-6.78276e-20
5.32213e-06
-1.4131e-19
-7.01326e-20
5.51504e-06
-1.44711e-19
-7.17297e-20
5.71135e-06
-1.48731e-19
-7.50246e-20
5.91099e-06
-1.5232e-19
-7.7617e-20
6.11396e-06
-1.55982e-19
-8.04047e-20
6.3202e-06
-1.61266e-19
-8.32564e-20
6.52972e-06
-1.64735e-19
-8.55128e-20
6.74249e-06
-1.68642e-19
-8.77339e-20
6.9585e-06
-1.726e-19
-9.11303e-20
7.17776e-06
-1.76867e-19
-9.29287e-20
7.40028e-06
-1.80221e-19
-9.61333e-20
7.62605e-06
-1.85893e-19
-9.92574e-20
7.85512e-06
-1.91994e-19
-1.00163e-19
8.08749e-06
-1.95742e-19
-1.04423e-19
8.3232e-06
-1.99556e-19
-1.06651e-19
8.56228e-06
-2.03372e-19
-1.09384e-19
8.80478e-06
-2.05492e-19
-1.11886e-19
9.05074e-06
-2.07865e-19
-1.14792e-19
9.3002e-06
-2.09863e-19
-1.19028e-19
9.55323e-06
-2.12821e-19
-1.21142e-19
9.80988e-06
-2.15929e-19
-1.22399e-19
1.00702e-05
-2.18805e-19
-1.25247e-19
1.03343e-05
-2.23393e-19
-1.25896e-19
1.06021e-05
-2.27729e-19
-1.27727e-19
1.08739e-05
-2.31326e-19
-1.31112e-19
1.11496e-05
-2.32726e-19
-1.35038e-19
1.14293e-05
-2.38924e-19
-1.3845e-19
1.17131e-05
-2.43508e-19
-1.41588e-19
1.20011e-05
-2.45342e-19
-1.49283e-19
1.22934e-05
-2.47884e-19
-1.52952e-19
1.259e-05
-2.54617e-19
-1.5499e-19
1.2891e-05
-2.57433e-19
-1.58233e-19
1.31966e-05
-2.60621e-19
-1.61653e-19
1.35067e-05
-2.63582e-19
-1.64016e-19
1.38215e-05
-2.66139e-19
-1.66941e-19
1.41411e-05
-2.69771e-19
-1.68543e-19
1.44656e-05
-2.77942e-19
-1.67843e-19
1.4795e-05
-2.81049e-19
-1.71199e-19
1.51295e-05
-2.86204e-19
-1.70583e-19
1.54692e-05
-2.93624e-19
-1.69483e-19
1.58141e-05
-3.01122e-19
-1.74893e-19
1.61644e-05
-3.03693e-19
-1.77194e-19
1.65201e-05
-3.05002e-19
-1.80111e-19
1.68814e-05
-3.07839e-19
-1.83446e-19
1.72484e-05
-3.15611e-19
-1.8284e-19
1.76211e-05
-3.23883e-19
-1.83516e-19
1.79997e-05
-3.29089e-19
-1.86483e-19
1.83844e-05
-3.31037e-19
-1.84841e-19
1.87751e-05
-3.35019e-19
-1.89285e-19
1.91721e-05
-3.38865e-19
-1.93051e-19
1.95753e-05
-3.36199e-19
-1.923e-19
1.99851e-05
-3.40714e-19
-1.93382e-19
2.04014e-05
-3.40415e-19
-1.96082e-19
2.08243e-05
-3.43039e-19
-1.99047e-19
2.12541e-05
-3.49664e-19
-2.00857e-19
2.16909e-05
-3.51152e-19
-2.04212e-19
2.21346e-05
-3.53231e-19
-2.0581e-19
2.25856e-05
-3.60065e-19
-2.05309e-19
2.30439e-05
-3.60054e-19
-2.08783e-19
2.35096e-05
-3.62293e-19
-2.13543e-19
2.39829e-05
-3.63104e-19
-2.15314e-19
2.44639e-05
-3.6355e-19
-2.17806e-19
2.49528e-05
-3.62561e-19
-2.1736e-19
2.54496e-05
-3.63135e-19
-2.18954e-19
2.59546e-05
-3.6332e-19
-2.23015e-19
2.64679e-05
-3.65558e-19
-2.24821e-19
2.69895e-05
-3.69118e-19
-2.2958e-19
2.75198e-05
-3.70716e-19
-2.31017e-19
2.80587e-05
-3.72606e-19
-2.28483e-19
2.86065e-05
-3.72886e-19
-2.28894e-19
2.91633e-05
-3.75315e-19
-2.27539e-19
2.97293e-05
-3.79538e-19
-2.32535e-19
3.03046e-05
-3.74911e-19
-2.30717e-19
3.08895e-05
-3.78893e-19
-2.30009e-19
3.14839e-05
-3.81078e-19
-2.25977e-19
3.20883e-05
-3.88985e-19
-2.24383e-19
3.27026e-05
-3.90937e-19
-2.29374e-19
3.3327e-05
-3.9583e-19
-2.28975e-19
3.39618e-05
-4.02801e-19
-2.29386e-19
3.46072e-05
-4.06692e-19
-2.33283e-19
3.52632e-05
-4.06433e-19
-2.35473e-19
3.59301e-05
-4.17765e-19
-2.30056e-19
3.66081e-05
-4.20317e-19
-2.27188e-19
3.72973e-05
-4.19218e-19
-2.18076e-19
3.7998e-05
-4.16838e-19
-2.22026e-19
3.87103e-05
-4.16792e-19
-2.22381e-19
3.94345e-05
-4.22778e-19
-2.24891e-19
4.01707e-05
-4.14931e-19
-2.25832e-19
4.09191e-05
-4.1617e-19
-2.30916e-19
4.168e-05
-4.19136e-19
-2.27667e-19
4.24535e-05
-4.15735e-19
-2.30234e-19
4.324e-05
-4.18386e-19
-2.26175e-19
4.40395e-05
-4.20178e-19
-2.26633e-19
4.48523e-05
-4.20363e-19
-2.27311e-19
4.56786e-05
-4.23585e-19
-2.30567e-19
4.65188e-05
-4.22485e-19
-2.26847e-19
4.73729e-05
-4.22942e-19
-2.29148e-19
4.82412e-05
-4.24023e-19
-2.28811e-19
4.9124e-05
-4.26154e-19
-2.34705e-19
5.00215e-05
-4.23526e-19
-2.38541e-19
5.0934e-05
-4.24639e-19
-2.3396e-19
5.18616e-05
-4.2475e-19
-2.33297e-19
5.28048e-05
-4.22252e-19
-2.34668e-19
5.37636e-05
-4.19427e-19
-2.40164e-19
5.47384e-05
-4.31991e-19
-2.37201e-19
5.57295e-05
-4.3694e-19
-2.33556e-19
5.67371e-05
-4.37395e-19
-2.33251e-19
5.77615e-05
-4.36191e-19
-2.4219e-19
5.88029e-05
-4.5255e-19
-2.46545e-19
5.98617e-05
-4.42059e-19
-2.52611e-19
6.09381e-05
-4.42916e-19
-2.49174e-19
6.20325e-05
-4.36699e-19
-2.6116e-19
6.31451e-05
-4.39126e-19
-2.64095e-19
6.42763e-05
-4.42386e-19
-2.703e-19
6.54262e-05
-4.4245e-19
-2.52494e-19
6.65954e-05
-4.35818e-19
-2.55371e-19
6.7784e-05
-4.45909e-19
-2.69465e-19
6.89924e-05
-4.38684e-19
-2.80968e-19
7.02209e-05
-4.64147e-19
-2.75235e-19
7.14698e-05
-4.75047e-19
-2.66229e-19
7.27396e-05
-4.70143e-19
-2.59767e-19
7.40305e-05
-4.73903e-19
-2.62342e-19
7.53428e-05
-4.79048e-19
-2.73154e-19
7.6677e-05
-4.70291e-19
-2.77803e-19
7.80334e-05
-4.63003e-19
-2.65422e-19
7.94123e-05
-4.63866e-19
-2.7854e-19
8.08142e-05
-4.8425e-19
-2.69148e-19
8.22394e-05
-4.71681e-19
-2.78156e-19
8.36883e-05
-4.77643e-19
-2.74904e-19
8.51612e-05
-4.83763e-19
-2.66816e-19
8.66586e-05
-4.93619e-19
-2.72033e-19
8.81809e-05
-5.03964e-19
-2.77862e-19
8.97285e-05
-5.12927e-19
-2.91225e-19
9.13017e-05
-5.25368e-19
-3.0109e-19
9.29011e-05
-5.52913e-19
-2.95215e-19
9.4527e-05
-5.68277e-19
-2.9359e-19
9.61799e-05
-5.63844e-19
-2.85429e-19
9.78602e-05
-5.64648e-19
-2.77527e-19
9.95683e-05
-5.91387e-19
-2.68493e-19
0.000101305
-5.96325e-19
-2.77885e-19
0.00010307
-5.96166e-19
-2.82774e-19
0.000104865
-5.99949e-19
-2.865e-19
0.000106689
-6.01634e-19
-2.75493e-19
0.000108543
-5.75615e-19
-2.83263e-19
0.000110428
-5.87148e-19
-2.76979e-19
0.000112345
-5.88739e-19
-2.65379e-19
0.000114293
-5.72887e-19
-2.71256e-19
0.000116273
-5.49176e-19
-2.84332e-19
0.000118286
-5.13769e-19
-2.95515e-19
0.000120332
-5.18569e-19
-3.04558e-19
0.000122412
-5.06986e-19
-3.1941e-19
0.000124527
-5.12144e-19
-3.33577e-19
0.000126676
-5.12267e-19
-3.20538e-19
0.000128861
-5.5752e-19
-3.14321e-19
0.000131081
-5.5613e-19
-3.23972e-19
0.000133339
-5.58434e-19
-3.26455e-19
0.000135634
-5.67188e-19
-3.15198e-19
0.000137966
-5.66395e-19
-3.16427e-19
0.000140337
-6.0039e-19
-3.37608e-19
0.000142747
-6.28224e-19
-3.55969e-19
0.000145196
-6.29611e-19
-3.61179e-19
0.000147686
-6.07845e-19
-3.68123e-19
0.000150217
-6.33917e-19
-3.71605e-19
0.00015279
-6.54102e-19
-3.55942e-19
0.000155404
-6.93643e-19
-3.60561e-19
0.000158062
-7.01305e-19
-3.70705e-19
0.000160763
-7.02112e-19
-3.8026e-19
0.000163509
-6.79435e-19
-3.98631e-19
0.0001663
-6.75691e-19
-4.11149e-19
0.000169136
-6.64001e-19
-4.29712e-19
0.000172019
-6.82306e-19
-4.28919e-19
0.000174949
-6.41705e-19
-4.47308e-19
0.000177927
-5.97275e-19
-4.51577e-19
0.000180954
-6.17885e-19
-4.7125e-19
0.00018403
-6.58591e-19
-4.47773e-19
0.000187156
-6.56774e-19
-4.65515e-19
0.000190334
-6.39143e-19
-4.76983e-19
0.000193563
-6.3708e-19
-4.96945e-19
0.000196845
-6.28225e-19
-4.70286e-19
0.000200181
-6.19313e-19
-4.78263e-19
0.000203571
-6.07752e-19
-4.75262e-19
0.000207016
-6.10268e-19
-4.85966e-19
0.000210518
-6.13314e-19