/*--------------------------------*- C++ -*----------------------------------*\
| =========                 |                                                 |
| \\      /  F ield         | OpenFOAM: The Open Source CFD Toolbox           |
|  \\    /   O peration     | Version:  2012                                  |
|   \\  /    A nd           | Website:  www.openfoam.com                      |
|    \\/     M anipulation  |                                                 |
\*---------------------------------------------------------------------------*/
FoamFile
{
    version     2.0;
    format      ascii;
    class       volVectorField;
    location    "9000";
    object      U;
}
// * * * * * * * * * * * * * * * * * * * * * * * * * * * * * * * * * * * * * //

dimensions      [0 1 -1 0 0 0 0];


internalField   nonuniform List<vector> 
2560
(
(0.00226213 -4.59336e-16 -2.96461e-17)
(0.00226213 1.29448e-20 -7.40552e-20)
(0.00681862 -4.93963e-15 -1.23928e-16)
(0.00681862 -1.01825e-18 2.55103e-19)
(0.0114407 -3.25456e-15 -1.31811e-16)
(0.0114407 -1.92579e-18 2.6913e-19)
(0.0161293 -3.29124e-15 -1.35056e-16)
(0.0161293 -3.01648e-18 -2.55124e-19)
(0.0208855 -3.25194e-15 -1.40846e-16)
(0.0208855 -4.15142e-18 -2.69138e-19)
(0.0257101 -3.25608e-15 -1.46838e-16)
(0.0257101 -5.30215e-18 -2.49625e-19)
(0.0306042 -3.2572e-15 -1.53013e-16)
(0.0306042 -6.47384e-18 -2.22797e-19)
(0.0355689 -3.25417e-15 -1.59377e-16)
(0.0355689 -7.67571e-18 -1.88132e-19)
(0.0406051 -3.25131e-15 -1.65945e-16)
(0.0406051 -8.90898e-18 -1.44688e-19)
(0.0457139 -3.24898e-15 -1.72727e-16)
(0.0457139 -1.0183e-17 -9.16288e-20)
(0.0508962 -3.2467e-15 -1.79731e-16)
(0.0508962 -1.14922e-17 -7.59875e-20)
(0.0561533 -3.24435e-15 -1.86964e-16)
(0.0561533 -1.28359e-17 -8.51676e-20)
(0.0614861 -3.242e-15 -1.94431e-16)
(0.0614861 -1.42249e-17 -9.46928e-20)
(0.0668957 -3.23962e-15 -2.0214e-16)
(0.0668957 -1.56275e-17 -1.04339e-19)
(0.0723831 -3.23718e-15 -2.10097e-16)
(0.0723831 -1.7048e-17 -1.15251e-19)
(0.0779495 -3.23465e-15 -2.18309e-16)
(0.0779495 -1.85123e-17 -1.2698e-19)
(0.0835958 -3.23202e-15 -2.2678e-16)
(0.0835958 -2.00847e-17 -1.39449e-19)
(0.0893231 -3.22935e-15 -2.35518e-16)
(0.0893231 -2.16967e-17 -1.50436e-19)
(0.0951323 -3.22673e-15 -2.44527e-16)
(0.0951323 -2.32265e-17 -1.60983e-19)
(0.101024 -3.22404e-15 -2.53813e-16)
(0.101024 -2.48535e-17 -1.73827e-19)
(0.107 -3.22119e-15 -2.63379e-16)
(0.107 -2.65741e-17 -1.88848e-19)
(0.113061 -3.21824e-15 -2.73229e-16)
(0.113061 -2.82678e-17 -2.02544e-19)
(0.119207 -3.21523e-15 -2.83365e-16)
(0.119207 -2.99743e-17 -2.14791e-19)
(0.125439 -3.21204e-15 -2.93787e-16)
(0.125439 -3.18844e-17 -2.30388e-19)
(0.131757 -3.20865e-15 -3.04496e-16)
(0.131757 -3.38709e-17 -2.45461e-19)
(0.138162 -3.2054e-15 -3.15487e-16)
(0.138162 -3.57585e-17 -2.60123e-19)
(0.144654 -3.20219e-15 -3.26757e-16)
(0.144654 -3.76535e-17 -2.78431e-19)
(0.151232 -3.19882e-15 -3.38298e-16)
(0.151232 -3.9598e-17 -2.99944e-19)
(0.157897 -3.19529e-15 -3.50098e-16)
(0.157897 -4.15794e-17 -3.18466e-19)
(0.164647 -3.19161e-15 -3.62144e-16)
(0.164647 -4.3634e-17 -3.33824e-19)
(0.171482 -3.18782e-15 -3.74418e-16)
(0.171482 -4.57937e-17 -3.47692e-19)
(0.178399 -3.18389e-15 -3.86897e-16)
(0.178399 -4.8028e-17 -3.65405e-19)
(0.185398 -3.17976e-15 -3.99556e-16)
(0.185398 -5.03319e-17 -3.90287e-19)
(0.192475 -3.17548e-15 -4.12362e-16)
(0.192475 -5.27644e-17 -4.14889e-19)
(0.199628 -3.17128e-15 -4.25282e-16)
(0.199628 -5.50764e-17 -4.36223e-19)
(0.206853 -3.16711e-15 -4.38276e-16)
(0.206853 -5.73367e-17 -4.56724e-19)
(0.214146 -3.16292e-15 -4.51302e-16)
(0.214146 -5.97068e-17 -4.77332e-19)
(0.221502 -3.15872e-15 -4.64312e-16)
(0.221502 -6.19485e-17 -5.01109e-19)
(0.228917 -3.15437e-15 -4.75869e-16)
(0.228917 -6.44672e-17 -5.2581e-19)
(0.236384 -3.14981e-15 -4.85127e-16)
(0.236384 -6.71555e-17 -5.4906e-19)
(0.243896 -3.14504e-15 -4.94112e-16)
(0.243896 -6.96743e-17 -5.75699e-19)
(0.251447 -3.14019e-15 -5.02785e-16)
(0.251447 -7.22133e-17 -6.09928e-19)
(0.259029 -3.13531e-15 -5.11097e-16)
(0.259029 -7.50189e-17 -6.40216e-19)
(0.266635 -3.13037e-15 -5.19003e-16)
(0.266635 -7.7696e-17 -6.57391e-19)
(0.274256 -3.12567e-15 -5.26468e-16)
(0.274256 -8.0084e-17 -6.7194e-19)
(0.281884 -3.12095e-15 -5.33462e-16)
(0.281884 -8.27065e-17 -7.30437e-19)
(0.289509 -3.11574e-15 -5.39954e-16)
(0.289509 -8.55532e-17 -8.64912e-19)
(0.297124 -3.11023e-15 -5.45927e-16)
(0.297124 -8.8561e-17 -9.9792e-19)
(0.304721 -3.1049e-15 -5.51896e-16)
(0.304721 -9.15453e-17 -1.14022e-18)
(0.31229 -3.09977e-15 -5.59723e-16)
(0.31229 -9.41044e-17 -1.28238e-18)
(0.319823 -3.09439e-15 -5.67068e-16)
(0.319823 -9.64477e-17 -1.43269e-18)
(0.327314 -3.08892e-15 -5.73908e-16)
(0.327314 -9.91503e-17 -1.59173e-18)
(0.334754 -3.08354e-15 -5.80256e-16)
(0.334754 -1.01899e-16 -1.76356e-18)
(0.342138 -3.07788e-15 -5.86134e-16)
(0.342138 -1.04827e-16 -1.94824e-18)
(0.349458 -3.07194e-15 -5.91554e-16)
(0.349458 -1.0817e-16 -2.14864e-18)
(0.35671 -3.06626e-15 -5.96537e-16)
(0.35671 -1.11003e-16 -2.34318e-18)
(0.363888 -3.06097e-15 -6.01108e-16)
(0.363888 -1.13706e-16 -2.52745e-18)
(0.370988 -3.05546e-15 -6.05316e-16)
(0.370988 -1.16873e-16 -2.72908e-18)
(0.378006 -3.0496e-15 -6.0919e-16)
(0.378006 -1.19885e-16 -2.95216e-18)
(0.38494 -3.04381e-15 -6.12746e-16)
(0.38494 -1.23036e-16 -3.1733e-18)
(0.391786 -3.0381e-15 -6.16022e-16)
(0.391786 -1.26063e-16 -3.40142e-18)
(0.398543 -3.03216e-15 -6.19062e-16)
(0.398543 -1.289e-16 -3.62693e-18)
(0.405208 -3.02601e-15 -6.2189e-16)
(0.405208 -1.32528e-16 -3.86388e-18)
(0.411782 -3.02001e-15 -6.24542e-16)
(0.411782 -1.3519e-16 -4.11839e-18)
(0.418264 -3.01452e-15 -6.27057e-16)
(0.418264 -1.3778e-16 -4.35993e-18)
(0.424652 -3.0091e-15 -6.29457e-16)
(0.424652 -1.40824e-16 -4.62735e-18)
(0.430948 -3.00309e-15 -6.3177e-16)
(0.430948 -1.44022e-16 -4.90518e-18)
(0.437151 -2.99691e-15 -6.34013e-16)
(0.437151 -1.47592e-16 -5.20218e-18)
(0.443263 -2.99067e-15 -6.36211e-16)
(0.443263 -1.51003e-16 -5.51887e-18)
(0.449284 -2.98423e-15 -6.38424e-16)
(0.449284 -1.54499e-16 -5.83628e-18)
(0.455215 -2.97822e-15 -6.40598e-16)
(0.455215 -1.57268e-16 -6.13425e-18)
(0.461058 -2.97308e-15 -6.42788e-16)
(0.461058 -1.59528e-16 -6.44657e-18)
(0.466814 -2.968e-15 -6.45016e-16)
(0.466814 -1.61575e-16 -6.79582e-18)
(0.472484 -2.96246e-15 -6.47299e-16)
(0.472484 -1.63576e-16 -7.15865e-18)
(0.478071 -2.9571e-15 -6.49644e-16)
(0.478071 -1.6607e-16 -7.53329e-18)
(0.483576 -2.95244e-15 -6.52086e-16)
(0.483576 -1.68588e-16 -7.89099e-18)
(0.489 -2.94804e-15 -6.53302e-16)
(0.489 -1.70827e-16 -8.28977e-18)
(0.494346 -2.94333e-15 -6.48114e-16)
(0.494346 -1.73389e-16 -8.70284e-18)
(0.499615 -2.93885e-15 -6.43085e-16)
(0.499615 -1.75938e-16 -9.13467e-18)
(0.504809 -2.93494e-15 -6.38242e-16)
(0.504809 -1.78192e-16 -9.59372e-18)
(0.50993 -2.93046e-15 -6.33591e-16)
(0.50993 -1.80404e-16 -9.99084e-18)
(0.514979 -2.9259e-15 -6.29036e-16)
(0.514979 -1.83597e-16 -1.04274e-17)
(0.51996 -2.92182e-15 -6.24613e-16)
(0.51996 -1.85524e-16 -1.09516e-17)
(0.524872 -2.91673e-15 -6.20411e-16)
(0.524872 -1.87326e-16 -1.15163e-17)
(0.529719 -2.91129e-15 -6.16461e-16)
(0.529719 -1.91045e-16 -1.20298e-17)
(0.534502 -2.90641e-15 -6.12672e-16)
(0.534502 -1.93664e-16 -1.25684e-17)
(0.539223 -2.90159e-15 -6.09089e-16)
(0.539223 -1.96641e-16 -1.31005e-17)
(0.543883 -2.89649e-15 -6.05642e-16)
(0.543883 -1.99957e-16 -1.36977e-17)
(0.548483 -2.89139e-15 -6.02381e-16)
(0.548483 -2.0267e-16 -1.4373e-17)
(0.553027 -2.8863e-15 -5.99371e-16)
(0.553027 -2.05976e-16 -1.49744e-17)
(0.557515 -2.88086e-15 -5.96528e-16)
(0.557515 -2.09555e-16 -1.56148e-17)
(0.561948 -2.87479e-15 -5.9388e-16)
(0.561948 -2.13477e-16 -1.6395e-17)
(0.566329 -2.87002e-15 -5.91551e-16)
(0.566329 -2.16396e-16 -1.70298e-17)
(0.570658 -2.86635e-15 -5.89253e-16)
(0.570658 -2.19117e-16 -1.77424e-17)
(0.574938 -2.86201e-15 -5.87124e-16)
(0.574938 -2.22766e-16 -1.84889e-17)
(0.579169 -2.85687e-15 -5.85132e-16)
(0.579169 -2.25343e-16 -1.93835e-17)
(0.583353 -2.85087e-15 -5.83453e-16)
(0.583353 -2.27338e-16 -2.02153e-17)
(0.587492 -2.84447e-15 -5.82078e-16)
(0.587492 -2.30536e-16 -2.09879e-17)
(0.591586 -2.83922e-15 -5.80839e-16)
(0.591586 -2.34448e-16 -2.1791e-17)
(0.595636 -2.83265e-15 -5.79716e-16)
(0.595636 -2.38064e-16 -2.27392e-17)
(0.599644 -2.82686e-15 -5.78845e-16)
(0.599644 -2.39693e-16 -2.3642e-17)
(0.603612 -2.82234e-15 -5.78151e-16)
(0.603612 -2.4091e-16 -2.44906e-17)
(0.607539 -2.81797e-15 -5.7752e-16)
(0.607539 -2.42271e-16 -2.54776e-17)
(0.611428 -2.81485e-15 -5.76969e-16)
(0.611428 -2.42124e-16 -2.64626e-17)
(0.615279 -2.81199e-15 -5.76523e-16)
(0.615279 -2.4419e-16 -2.73967e-17)
(0.619093 -2.80911e-15 -5.76184e-16)
(0.619093 -2.45915e-16 -2.84578e-17)
(0.622872 -2.80549e-15 -5.75919e-16)
(0.622872 -2.46569e-16 -2.94427e-17)
(0.626616 -2.8017e-15 -5.75679e-16)
(0.626616 -2.48911e-16 -3.04451e-17)
(0.630326 -2.79746e-15 -5.75482e-16)
(0.630326 -2.51184e-16 -3.1647e-17)
(0.634003 -2.79261e-15 -5.75505e-16)
(0.634003 -2.53219e-16 -3.2808e-17)
(0.637648 -2.78805e-15 -5.75635e-16)
(0.637648 -2.56091e-16 -3.40274e-17)
(0.641262 -2.78451e-15 -5.75985e-16)
(0.641262 -2.57452e-16 -3.5099e-17)
(0.644845 -2.78019e-15 -5.76235e-16)
(0.644845 -2.59539e-16 -3.63532e-17)
(0.648399 -2.77546e-15 -5.76566e-16)
(0.648399 -2.61479e-16 -3.76546e-17)
(0.651924 -2.77062e-15 -5.76919e-16)
(0.651924 -2.63724e-16 -3.89558e-17)
(0.655421 -2.76558e-15 -5.77358e-16)
(0.655421 -2.66863e-16 -4.03309e-17)
(0.65889 -2.75994e-15 -5.77878e-16)
(0.65889 -2.70101e-16 -4.17963e-17)
(0.662333 -2.7531e-15 -5.78646e-16)
(0.662333 -2.74158e-16 -4.33544e-17)
(0.66575 -2.74697e-15 -5.79602e-16)
(0.66575 -2.76656e-16 -4.49192e-17)
(0.669141 -2.74036e-15 -5.8058e-16)
(0.669141 -2.80581e-16 -4.62281e-17)
(0.672508 -2.73416e-15 -5.81617e-16)
(0.672508 -2.83995e-16 -4.79532e-17)
(0.675851 -2.72882e-15 -5.82909e-16)
(0.675851 -2.86303e-16 -4.96119e-17)
(0.67917 -2.7232e-15 -5.8421e-16)
(0.67917 -2.89533e-16 -5.14284e-17)
(0.682466 -2.71948e-15 -5.85687e-16)
(0.682466 -2.91456e-16 -5.30276e-17)
(0.68574 -2.71806e-15 -5.86975e-16)
(0.68574 -2.9167e-16 -5.49962e-17)
(0.688992 -2.71597e-15 -5.88469e-16)
(0.688992 -2.93521e-16 -5.69409e-17)
(0.692222 -2.71333e-15 -5.89875e-16)
(0.692222 -2.97727e-16 -5.88898e-17)
(0.695432 -2.71066e-15 -5.91219e-16)
(0.695432 -3.02017e-16 -6.07917e-17)
(0.698622 -2.70418e-15 -5.92442e-16)
(0.698622 -3.06127e-16 -6.26595e-17)
(0.701792 -2.69464e-15 -5.93615e-16)
(0.701792 -3.09303e-16 -6.50489e-17)
(0.704942 -2.68824e-15 -5.95097e-16)
(0.704942 -3.14377e-16 -6.75287e-17)
(0.708074 -2.68219e-15 -5.96874e-16)
(0.708074 -3.225e-16 -6.98062e-17)
(0.711187 -2.67712e-15 -5.98542e-16)
(0.711187 -3.29036e-16 -7.1645e-17)
(0.714283 -2.67486e-15 -5.99828e-16)
(0.714283 -3.30515e-16 -7.41703e-17)
(0.71736 -2.67241e-15 -6.01132e-16)
(0.71736 -3.31531e-16 -7.63677e-17)
(0.720421 -2.66991e-15 -6.0209e-16)
(0.720421 -3.33954e-16 -7.87052e-17)
(0.723464 -2.6664e-15 -6.02817e-16)
(0.723464 -3.37115e-16 -8.12387e-17)
(0.726492 -2.66356e-15 -6.03345e-16)
(0.726492 -3.41015e-16 -8.44883e-17)
(0.729503 -2.66176e-15 -6.04362e-16)
(0.729503 -3.42909e-16 -8.68018e-17)
(0.732499 -2.6564e-15 -6.04836e-16)
(0.732499 -3.47825e-16 -8.92751e-17)
(0.735479 -2.65045e-15 -6.04966e-16)
(0.735479 -3.52319e-16 -9.28042e-17)
(0.738444 -2.64583e-15 -6.0561e-16)
(0.738444 -3.53398e-16 -9.60546e-17)
(0.741395 -2.64124e-15 -6.06433e-16)
(0.741395 -3.59284e-16 -9.86874e-17)
(0.744331 -2.63577e-15 -6.06809e-16)
(0.744331 -3.65884e-16 -1.02149e-16)
(0.747254 -2.62718e-15 -6.07458e-16)
(0.747254 -3.70524e-16 -1.05903e-16)
(0.750162 -2.61953e-15 -6.08706e-16)
(0.750162 -3.78009e-16 -1.09294e-16)
(0.753058 -2.61362e-15 -6.09779e-16)
(0.753058 -3.81198e-16 -1.12302e-16)
(0.75594 -2.60743e-15 -6.10409e-16)
(0.75594 -3.84977e-16 -1.15632e-16)
(0.758809 -2.60175e-15 -6.10855e-16)
(0.758809 -3.89993e-16 -1.19362e-16)
(0.761666 -2.5939e-15 -6.11366e-16)
(0.761666 -3.96745e-16 -1.23055e-16)
(0.76451 -2.58446e-15 -6.11876e-16)
(0.76451 -4.05608e-16 -1.26955e-16)
(0.767343 -2.57537e-15 -6.12512e-16)
(0.767343 -4.1151e-16 -1.3123e-16)
(0.770163 -2.56715e-15 -6.13533e-16)
(0.770163 -4.20033e-16 -1.34642e-16)
(0.772972 -2.55974e-15 -6.14505e-16)
(0.772972 -4.27044e-16 -1.38324e-16)
(0.77577 -2.55225e-15 -6.15354e-16)
(0.77577 -4.33581e-16 -1.41924e-16)
(0.778557 -2.54647e-15 -6.1539e-16)
(0.778557 -4.43317e-16 -1.46196e-16)
(0.781333 -2.5405e-15 -6.15073e-16)
(0.781333 -4.49614e-16 -1.51252e-16)
(0.784098 -2.53381e-15 -6.15118e-16)
(0.784098 -4.54908e-16 -1.55832e-16)
(0.786853 -2.5238e-15 -6.15713e-16)
(0.786853 -4.64665e-16 -1.59402e-16)
(0.789598 -2.51233e-15 -6.1578e-16)
(0.789598 -4.74021e-16 -1.63846e-16)
(0.792332 -2.50063e-15 -6.15665e-16)
(0.792332 -4.79673e-16 -1.68742e-16)
(0.795057 -2.49146e-15 -6.15476e-16)
(0.795057 -4.87396e-16 -1.73756e-16)
(0.797773 -2.48436e-15 -6.14956e-16)
(0.797773 -4.97066e-16 -1.78618e-16)
(0.800479 -2.47612e-15 -6.14823e-16)
(0.800479 -5.062e-16 -1.8356e-16)
(0.803175 -2.46549e-15 -6.1438e-16)
(0.803175 -5.16189e-16 -1.88638e-16)
(0.805863 -2.45428e-15 -6.13992e-16)
(0.805863 -5.26858e-16 -1.93854e-16)
(0.808541 -2.44616e-15 -6.136e-16)
(0.808541 -5.3556e-16 -1.99145e-16)
(0.811211 -2.43412e-15 -6.13455e-16)
(0.811211 -5.47574e-16 -2.04633e-16)
(0.813873 -2.42028e-15 -6.13362e-16)
(0.813873 -5.61527e-16 -2.10737e-16)
(0.816526 -2.40817e-15 -6.13621e-16)
(0.816526 -5.7033e-16 -2.16447e-16)
(0.819171 -2.39712e-15 -6.13421e-16)
(0.819171 -5.8196e-16 -2.22467e-16)
(0.821807 -2.38766e-15 -6.13716e-16)
(0.821807 -5.90522e-16 -2.27146e-16)
(0.824436 -2.37752e-15 -6.13301e-16)
(0.824436 -5.99541e-16 -2.34063e-16)
(0.827057 -2.36224e-15 -6.13262e-16)
(0.827057 -6.15676e-16 -2.40875e-16)
(0.82967 -2.34802e-15 -6.1452e-16)
(0.82967 -6.28954e-16 -2.46159e-16)
(0.832276 -2.3351e-15 -6.15897e-16)
(0.832276 -6.37661e-16 -2.53462e-16)
(0.834874 -2.32467e-15 -6.18737e-16)
(0.834874 -6.45917e-16 -2.59594e-16)
(0.837465 -2.31958e-15 -6.2092e-16)
(0.837465 -6.48803e-16 -2.66445e-16)
(0.840049 -2.3115e-15 -6.24295e-16)
(0.840049 -6.50771e-16 -2.73507e-16)
(0.842626 -2.3055e-15 -6.28251e-16)
(0.842626 -6.58841e-16 -2.79539e-16)
(0.845196 -2.29648e-15 -6.31387e-16)
(0.845196 -6.63011e-16 -2.85749e-16)
(0.847759 -2.28633e-15 -6.34484e-16)
(0.847759 -6.63846e-16 -2.91985e-16)
(0.850315 -2.27852e-15 -6.37022e-16)
(0.850315 -6.66819e-16 -2.99692e-16)
(0.852865 -2.26887e-15 -6.40259e-16)
(0.852865 -6.67055e-16 -3.05844e-16)
(0.855409 -2.25999e-15 -6.42224e-16)
(0.855409 -6.71847e-16 -3.13198e-16)
(0.857945 -2.24951e-15 -6.44043e-16)
(0.857945 -6.7908e-16 -3.20192e-16)
(0.860476 -2.2394e-15 -6.45482e-16)
(0.860476 -6.84677e-16 -3.2804e-16)
(0.863001 -2.23188e-15 -6.46758e-16)
(0.863001 -6.91803e-16 -3.35591e-16)
(0.865519 -2.22031e-15 -6.47203e-16)
(0.865519 -7.02102e-16 -3.45433e-16)
(0.868031 -2.20632e-15 -6.49902e-16)
(0.868031 -7.13979e-16 -3.53319e-16)
(0.870537 -2.19438e-15 -6.51805e-16)
(0.870537 -7.23836e-16 -3.60637e-16)
(0.873038 -2.18826e-15 -6.52341e-16)
(0.873038 -7.29245e-16 -3.69583e-16)
(0.875533 -2.18004e-15 -6.51202e-16)
(0.875533 -7.35165e-16 -3.80013e-16)
(0.878022 -2.16753e-15 -6.51004e-16)
(0.878022 -7.41738e-16 -3.88927e-16)
(0.880505 -2.15683e-15 -6.50651e-16)
(0.880505 -7.48326e-16 -3.94878e-16)
(0.882983 -2.14537e-15 -6.46556e-16)
(0.882983 -7.64599e-16 -4.05867e-16)
(0.885455 -2.13362e-15 -6.42664e-16)
(0.885455 -7.69593e-16 -4.18524e-16)
(0.887922 -2.12099e-15 -6.40894e-16)
(0.887922 -7.79603e-16 -4.27505e-16)
(0.890384 -2.1077e-15 -6.38143e-16)
(0.890384 -8.03438e-16 -4.3542e-16)
(0.89284 -2.09452e-15 -6.33334e-16)
(0.89284 -8.09678e-16 -4.48143e-16)
(0.895291 -2.07472e-15 -6.31015e-16)
(0.895291 -8.19308e-16 -4.58875e-16)
(0.897736 -2.0539e-15 -6.29153e-16)
(0.897736 -8.32148e-16 -4.65748e-16)
(0.900177 -2.04211e-15 -6.25425e-16)
(0.900177 -8.39795e-16 -4.63284e-16)
(0.902612 -2.02598e-15 -6.20928e-16)
(0.902612 -8.46641e-16 -4.60657e-16)
(0.905043 -2.00812e-15 -6.18194e-16)
(0.905043 -8.55255e-16 -4.56897e-16)
(0.907468 -1.99402e-15 -6.14505e-16)
(0.907468 -8.64098e-16 -4.52829e-16)
(0.909889 -1.98384e-15 -6.1107e-16)
(0.909889 -8.73423e-16 -4.486e-16)
(0.912304 -1.9751e-15 -6.05797e-16)
(0.912304 -8.76207e-16 -4.415e-16)
(0.914715 -1.9628e-15 -5.95443e-16)
(0.914715 -8.84338e-16 -4.38207e-16)
(0.91712 -1.94309e-15 -5.88634e-16)
(0.91712 -9.00096e-16 -4.33921e-16)
(0.919521 -1.925e-15 -5.82561e-16)
(0.919521 -9.0513e-16 -4.27721e-16)
(0.921917 -1.90871e-15 -5.74267e-16)
(0.921917 -9.22639e-16 -4.19387e-16)
(0.924308 -1.89881e-15 -5.63126e-16)
(0.924308 -9.35864e-16 -4.16322e-16)
(0.926695 -1.87729e-15 -5.54549e-16)
(0.926695 -9.44225e-16 -4.1397e-16)
(0.929077 -1.85648e-15 -5.45729e-16)
(0.929077 -9.52907e-16 -4.11459e-16)
(0.931454 -1.82753e-15 -5.39443e-16)
(0.931454 -9.53699e-16 -4.11182e-16)
(0.933826 -1.80312e-15 -5.32144e-16)
(0.933826 -9.61429e-16 -4.11741e-16)
(0.936193 -1.78567e-15 -5.20336e-16)
(0.936193 -9.78793e-16 -4.12236e-16)
(0.938556 -1.77216e-15 -5.1242e-16)
(0.938556 -9.85842e-16 -4.13441e-16)
(0.940914 -1.75439e-15 -5.08149e-16)
(0.940914 -9.89457e-16 -4.12905e-16)
(0.943268 -1.74108e-15 -5.01488e-16)
(0.943268 -1.00294e-15 -4.13446e-16)
(0.945617 -1.71407e-15 -5.01335e-16)
(0.945617 -1.00811e-15 -4.15466e-16)
(0.947961 -1.70056e-15 -5.00957e-16)
(0.947961 -1.01197e-15 -4.17564e-16)
(0.9503 -1.68543e-15 -5.01144e-16)
(0.9503 -1.02803e-15 -4.16364e-16)
(0.952635 -1.66807e-15 -5.03036e-16)
(0.952635 -1.04274e-15 -4.18765e-16)
(0.954965 -1.64914e-15 -5.02485e-16)
(0.954965 -1.03685e-15 -4.23372e-16)
(0.95729 -1.64539e-15 -4.9519e-16)
(0.95729 -1.03288e-15 -4.2434e-16)
(0.95961 -1.63337e-15 -4.92248e-16)
(0.95961 -1.03505e-15 -4.23291e-16)
(0.961926 -1.61152e-15 -4.89709e-16)
(0.961926 -1.03374e-15 -4.24773e-16)
(0.964237 -1.58781e-15 -4.91243e-16)
(0.964237 -1.04242e-15 -4.30717e-16)
(0.966542 -1.57608e-15 -4.91366e-16)
(0.966542 -1.05359e-15 -4.29824e-16)
(0.968844 -1.56447e-15 -4.89179e-16)
(0.968844 -1.03892e-15 -4.31323e-16)
(0.97114 -1.54805e-15 -4.87332e-16)
(0.97114 -1.033e-15 -4.36682e-16)
(0.973431 -1.5328e-15 -4.86531e-16)
(0.973431 -1.05695e-15 -4.45585e-16)
(0.975717 -1.5109e-15 -4.84622e-16)
(0.975717 -1.06043e-15 -4.51119e-16)
(0.977998 -1.49545e-15 -4.87351e-16)
(0.977998 -1.06624e-15 -4.5407e-16)
(0.980274 -1.48681e-15 -4.91061e-16)
(0.980274 -1.0765e-15 -4.54991e-16)
(0.982545 -1.47747e-15 -4.92185e-16)
(0.982545 -1.07704e-15 -4.61549e-16)
(0.984811 -1.46905e-15 -4.96755e-16)
(0.984811 -1.07908e-15 -4.71716e-16)
(0.987071 -1.46642e-15 -4.98557e-16)
(0.987071 -1.0706e-15 -4.80586e-16)
(0.989326 -1.46971e-15 -4.98264e-16)
(0.989326 -1.07436e-15 -4.80977e-16)
(0.991576 -1.46635e-15 -4.95681e-16)
(0.991576 -1.07977e-15 -4.84829e-16)
(0.99382 -1.45874e-15 -4.95499e-16)
(0.99382 -1.06248e-15 -4.83632e-16)
(0.996059 -1.4658e-15 -4.9454e-16)
(0.996059 -1.04803e-15 -4.8665e-16)
(0.998291 -1.45845e-15 -4.92179e-16)
(0.998291 -1.05714e-15 -4.90428e-16)
(1.00052 -1.44025e-15 -4.88789e-16)
(1.00052 -1.07566e-15 -4.8467e-16)
(1.00274 -1.42535e-15 -4.71084e-16)
(1.00274 -1.09821e-15 -4.83304e-16)
(1.00496 -1.38717e-15 -4.66218e-16)
(1.00496 -1.11245e-15 -4.77464e-16)
(1.00716 -1.3593e-15 -4.75896e-16)
(1.00716 -1.12112e-15 -4.81765e-16)
(1.00937 -1.33877e-15 -4.81796e-16)
(1.00937 -1.1322e-15 -4.91847e-16)
(1.01156 -1.32673e-15 -4.67108e-16)
(1.01156 -1.13425e-15 -4.9726e-16)
(1.01375 -1.31693e-15 -4.63742e-16)
(1.01375 -1.13111e-15 -4.95043e-16)
(1.01594 -1.29694e-15 -4.5849e-16)
(1.01594 -1.11667e-15 -4.98414e-16)
(1.01811 -1.29763e-15 -4.47214e-16)
(1.01811 -1.11109e-15 -5.00289e-16)
(1.02028 -1.26486e-15 -4.53505e-16)
(1.02028 -1.11673e-15 -4.93588e-16)
(1.02245 -1.2194e-15 -4.57944e-16)
(1.02245 -1.12727e-15 -4.96211e-16)
(1.0246 -1.20175e-15 -4.65722e-16)
(1.0246 -1.13966e-15 -5.02158e-16)
(1.02675 -1.17264e-15 -4.75361e-16)
(1.02675 -1.14854e-15 -5.0316e-16)
(1.02889 -1.16485e-15 -4.6862e-16)
(1.02889 -1.1438e-15 -4.93102e-16)
(1.03102 -1.16343e-15 -4.71032e-16)
(1.03102 -1.13512e-15 -4.913e-16)
(1.03315 -1.16239e-15 -4.87023e-16)
(1.03315 -1.12629e-15 -4.8587e-16)
(1.03527 -1.14579e-15 -4.99417e-16)
(1.03527 -1.12515e-15 -4.64214e-16)
(1.03737 -1.13179e-15 -4.91234e-16)
(1.03737 -1.11776e-15 -4.61787e-16)
(1.03947 -1.15355e-15 -4.81631e-16)
(1.03947 -1.09954e-15 -4.54865e-16)
(1.04157 -1.15159e-15 -4.69153e-16)
(1.04157 -1.10027e-15 -4.58838e-16)
(1.04365 -1.1186e-15 -4.63353e-16)
(1.04365 -1.09822e-15 -4.69946e-16)
(1.04572 -1.09958e-15 -4.67921e-16)
(1.04572 -1.09132e-15 -4.74109e-16)
(1.04778 -1.0952e-15 -4.73784e-16)
(1.04778 -1.0609e-15 -4.69904e-16)
(1.04983 -1.0773e-15 -4.6338e-16)
(1.04983 -1.05013e-15 -4.68262e-16)
(1.05188 -1.04936e-15 -4.51261e-16)
(1.05188 -1.05054e-15 -4.71669e-16)
(1.05391 -1.0262e-15 -4.4773e-16)
(1.05391 -1.06638e-15 -4.58175e-16)
(1.05593 -1.0111e-15 -4.42486e-16)
(1.05593 -1.06111e-15 -4.57216e-16)
(1.05794 -1.0221e-15 -4.38009e-16)
(1.05794 -1.04371e-15 -4.40012e-16)
(1.05993 -1.03825e-15 -4.13583e-16)
(1.05993 -1.0221e-15 -4.31676e-16)
(1.06192 -1.01977e-15 -3.95544e-16)
(1.06192 -1.00652e-15 -4.1991e-16)
(1.06389 -9.98683e-16 -3.70357e-16)
(1.06389 -9.77155e-16 -3.99276e-16)
(1.06585 -9.79625e-16 -3.66319e-16)
(1.06585 -9.82254e-16 -4.0327e-16)
(1.06779 -9.3697e-16 -3.59331e-16)
(1.06779 -9.92148e-16 -3.88524e-16)
(1.06972 -9.52849e-16 -3.69529e-16)
(1.06972 -9.73782e-16 -3.73388e-16)
(1.07164 -9.6638e-16 -3.50425e-16)
(1.07164 -9.54699e-16 -3.69371e-16)
(1.07354 -9.56759e-16 -3.41971e-16)
(1.07354 -9.44273e-16 -3.30453e-16)
(1.07543 -9.53144e-16 -3.21218e-16)
(1.07543 -9.45689e-16 -3.31143e-16)
(1.0773 -9.34205e-16 -3.40238e-16)
(1.0773 -9.48019e-16 -3.48713e-16)
(1.07915 -9.20726e-16 -3.49049e-16)
(1.07915 -9.29941e-16 -3.45136e-16)
(1.08098 -9.14345e-16 -3.12077e-16)
(1.08098 -9.19781e-16 -3.3339e-16)
(1.0828 -9.12511e-16 -2.94517e-16)
(1.0828 -9.33171e-16 -3.03197e-16)
(1.08459 -9.00072e-16 -2.87807e-16)
(1.08459 -9.57102e-16 -2.99547e-16)
(1.08637 -9.23366e-16 -2.90307e-16)
(1.08637 -9.22161e-16 -2.68993e-16)
(1.08813 -8.92777e-16 -2.88691e-16)
(1.08813 -9.08767e-16 -2.62537e-16)
(1.08986 -9.00701e-16 -2.58498e-16)
(1.08986 -8.95916e-16 -2.62988e-16)
(1.09157 -8.71862e-16 -2.74249e-16)
(1.09157 -8.58656e-16 -2.316e-16)
(1.09326 -8.69949e-16 -2.69046e-16)
(1.09326 -8.33306e-16 -2.26893e-16)
(1.09492 -7.77828e-16 -2.63884e-16)
(1.09492 -7.838e-16 -2.04219e-16)
(1.09655 -7.40264e-16 -2.64691e-16)
(1.09655 -8.02178e-16 -1.81628e-16)
(1.09816 -7.08163e-16 -2.4936e-16)
(1.09816 -7.58666e-16 -1.72598e-16)
(1.09974 -7.58134e-16 -2.38951e-16)
(1.09974 -7.01706e-16 -1.68777e-16)
(1.10129 -7.20923e-16 -2.83518e-16)
(1.10129 -6.95812e-16 -1.75303e-16)
(1.1028 -6.16044e-16 -2.93289e-16)
(1.1028 -6.53743e-16 -2.11817e-16)
(1.10428 -6.60833e-16 -2.54655e-16)
(1.10428 -6.3971e-16 -2.06155e-16)
(1.10573 -6.82326e-16 -2.35946e-16)
(1.10573 -6.7047e-16 -2.50577e-16)
(1.10714 -6.5457e-16 -2.39185e-16)
(1.10714 -6.23198e-16 -2.31478e-16)
(1.10851 -6.49135e-16 -2.1997e-16)
(1.10851 -6.2846e-16 -2.07494e-16)
(1.10984 -6.45522e-16 -1.58471e-16)
(1.10984 -6.29042e-16 -1.86318e-16)
(1.11112 -6.16122e-16 -1.77211e-16)
(1.11112 -6.07693e-16 -1.62397e-16)
(1.11236 -6.09697e-16 -1.86068e-16)
(1.11236 -6.22242e-16 -1.66344e-16)
(1.11355 -6.49894e-16 -1.49719e-16)
(1.11355 -6.12029e-16 -1.32122e-16)
(1.11469 -6.49207e-16 -1.60365e-16)
(1.11469 -6.02512e-16 -1.33968e-16)
(1.11577 -6.36444e-16 -1.53995e-16)
(1.11577 -5.88085e-16 -1.46777e-16)
(1.11679 -5.79915e-16 -1.4214e-16)
(1.11679 -5.46663e-16 -1.37816e-16)
(1.11776 -5.16163e-16 -1.06927e-16)
(1.11776 -5.4789e-16 -1.55894e-16)
(1.11865 -4.80086e-16 -1.35332e-16)
(1.11865 -5.65379e-16 -1.50738e-16)
(1.11948 -4.59412e-16 -1.64574e-16)
(1.11948 -5.7409e-16 -1.59963e-16)
(1.12023 -5.26055e-16 -1.16527e-16)
(1.12023 -5.56651e-16 -1.5208e-16)
(1.12091 -5.00721e-16 -1.58445e-16)
(1.12091 -5.01577e-16 -1.02135e-16)
(1.12151 -4.59211e-16 -1.30313e-16)
(1.12151 -5.1923e-16 -1.35143e-16)
(1.12201 -5.27741e-16 -1.79209e-16)
(1.12201 -4.72359e-16 -1.09821e-16)
(1.12243 -4.97886e-16 -1.44929e-16)
(1.12243 -4.55013e-16 -1.34921e-16)
(1.12275 -4.69707e-16 -1.36212e-16)
(1.12275 -4.56674e-16 -1.65975e-16)
(1.12297 -4.50442e-16 -1.30065e-16)
(1.12297 -4.55486e-16 -1.53639e-16)
(1.12308 -4.21775e-16 -1.20314e-16)
(1.12308 -4.25373e-16 -1.50488e-16)
(0.00226213 2.13264e-20 7.54389e-18)
(0.00226213 1.27283e-20 -4.547e-20)
(0.00681862 -5.00533e-19 2.69025e-17)
(0.00681862 -1.53612e-19 -5.41405e-19)
(0.0114407 -9.38742e-19 2.73229e-17)
(0.0114407 -3.08011e-19 -5.5506e-19)
(0.0161293 -1.47327e-18 2.89824e-17)
(0.0161293 -5.08178e-19 -5.68711e-19)
(0.0208855 -2.01513e-18 3.04592e-17)
(0.0208855 -7.18869e-19 -5.82075e-19)
(0.0257101 -2.5721e-18 3.18239e-17)
(0.0257101 -9.42537e-19 -5.95281e-19)
(0.0306042 -3.15984e-18 3.32243e-17)
(0.0306042 -1.16378e-18 -6.08143e-19)
(0.0355689 -3.76696e-18 3.46795e-17)
(0.0355689 -1.36823e-18 -6.21376e-19)
(0.0406051 -4.38576e-18 3.61817e-17)
(0.0406051 -1.60979e-18 -6.34463e-19)
(0.0457139 -5.02871e-18 3.77295e-17)
(0.0457139 -1.84759e-18 -6.46721e-19)
(0.0508962 -5.69115e-18 3.93258e-17)
(0.0508962 -2.07921e-18 -6.59475e-19)
(0.0561533 -6.36739e-18 4.09717e-17)
(0.0561533 -2.33638e-18 -6.71118e-19)
(0.0614861 -7.05426e-18 4.2669e-17)
(0.0614861 -2.5825e-18 -6.03888e-19)
(0.0668957 -7.75929e-18 4.44182e-17)
(0.0668957 -2.86097e-18 -5.24363e-19)
(0.0723831 -8.50755e-18 4.62212e-17)
(0.0723831 -3.15002e-18 -4.32719e-19)
(0.0779495 -9.24786e-18 4.80781e-17)
(0.0779495 -3.43837e-18 -3.27766e-19)
(0.0835958 -9.96241e-18 4.99917e-17)
(0.0835958 -3.7249e-18 -2.07964e-19)
(0.0893231 -1.07232e-17 5.13767e-17)
(0.0893231 -4.05981e-18 -7.18424e-20)
(0.0951323 -1.14769e-17 5.27848e-17)
(0.0951323 -4.40053e-18 7.99331e-20)
(0.101024 -1.22017e-17 5.42248e-17)
(0.101024 -4.78836e-18 2.48177e-19)
(0.107 -1.29722e-17 5.5696e-17)
(0.107 -5.2245e-18 4.33942e-19)
(0.113061 -1.3827e-17 5.71984e-17)
(0.113061 -5.58517e-18 6.38463e-19)
(0.119207 -1.46697e-17 5.87294e-17)
(0.119207 -5.94252e-18 8.61361e-19)
(0.125439 -1.55329e-17 6.02894e-17)
(0.125439 -6.3909e-18 1.10587e-18)
(0.131757 -1.64926e-17 6.18762e-17)
(0.131757 -6.85488e-18 1.3761e-18)
(0.138162 -1.7483e-17 6.34887e-17)
(0.138162 -7.25486e-18 1.67026e-18)
(0.144654 -1.8527e-17 6.51257e-17)
(0.144654 -7.73162e-18 1.98575e-18)
(0.151232 -1.9576e-17 6.67846e-17)
(0.151232 -8.2401e-18 2.32666e-18)
(0.157897 -2.06194e-17 6.8463e-17)
(0.157897 -8.70154e-18 2.6942e-18)
(0.164647 -2.17273e-17 7.01559e-17)
(0.164647 -9.26201e-18 3.0902e-18)
(0.171482 -2.28078e-17 7.18589e-17)
(0.171482 -9.87785e-18 3.51809e-18)
(0.178399 -2.38825e-17 7.35701e-17)
(0.178399 -1.04426e-17 3.97202e-18)
(0.185398 -2.50828e-17 7.52833e-17)
(0.185398 -1.10175e-17 4.45253e-18)
(0.192475 -2.61935e-17 7.69917e-17)
(0.192475 -1.17488e-17 4.96684e-18)
(0.199628 -2.72763e-17 7.86895e-17)
(0.199628 -1.2334e-17 5.51793e-18)
(0.206853 -2.84566e-17 8.03675e-17)
(0.206853 -1.29723e-17 6.09897e-18)
(0.214146 -2.96357e-17 8.20194e-17)
(0.214146 -1.37373e-17 6.70639e-18)
(0.221502 -3.08333e-17 8.3637e-17)
(0.221502 -1.44736e-17 7.34206e-18)
(0.228917 -3.19944e-17 8.52076e-17)
(0.228917 -1.53166e-17 8.01873e-18)
(0.236384 -3.327e-17 8.67244e-17)
(0.236384 -1.6094e-17 8.72807e-18)
(0.243896 -3.45868e-17 8.81751e-17)
(0.243896 -1.68417e-17 9.46159e-18)
(0.251447 -3.59596e-17 8.95514e-17)
(0.251447 -1.77789e-17 1.02253e-17)
(0.259029 -3.74457e-17 9.08408e-17)
(0.259029 -1.86778e-17 1.10195e-17)
(0.266635 -3.89212e-17 9.20326e-17)
(0.266635 -1.94022e-17 1.18541e-17)
(0.274256 -4.04414e-17 9.31293e-17)
(0.274256 -2.03748e-17 1.27006e-17)
(0.281884 -4.21175e-17 9.41183e-17)
(0.281884 -2.10304e-17 1.35741e-17)
(0.289509 -4.40619e-17 9.49902e-17)
(0.289509 -2.16484e-17 1.44732e-17)
(0.297124 -4.58795e-17 9.57438e-17)
(0.297124 -2.25256e-17 1.53971e-17)
(0.304721 -4.74891e-17 9.63758e-17)
(0.304721 -2.32713e-17 1.6353e-17)
(0.31229 -4.92455e-17 9.68902e-17)
(0.31229 -2.38143e-17 1.72911e-17)
(0.319823 -5.1094e-17 9.72833e-17)
(0.319823 -2.45728e-17 1.81873e-17)
(0.327314 -5.26635e-17 9.75573e-17)
(0.327314 -2.5433e-17 1.90932e-17)
(0.334754 -5.40059e-17 9.77182e-17)
(0.334754 -2.6588e-17 2.00092e-17)
(0.342138 -5.56024e-17 1.00284e-16)
(0.342138 -2.77438e-17 2.09329e-17)
(0.349458 -5.72378e-17 1.03424e-16)
(0.349458 -2.82756e-17 2.1874e-17)
(0.35671 -5.86754e-17 1.06497e-16)
(0.35671 -2.9294e-17 2.28449e-17)
(0.363888 -6.02163e-17 1.09506e-16)
(0.363888 -3.05573e-17 2.38206e-17)
(0.370988 -6.17293e-17 1.12449e-16)
(0.370988 -3.15013e-17 2.47924e-17)
(0.378006 -6.34638e-17 1.15331e-16)
(0.378006 -3.27394e-17 2.57781e-17)
(0.38494 -6.52241e-17 1.18146e-16)
(0.38494 -3.38144e-17 2.67894e-17)
(0.391786 -6.66945e-17 1.20902e-16)
(0.391786 -3.47789e-17 2.78209e-17)
(0.398543 -6.82271e-17 1.23599e-16)
(0.398543 -3.57374e-17 2.886e-17)
(0.405208 -6.98596e-17 1.26263e-16)
(0.405208 -3.67678e-17 2.99168e-17)
(0.411782 -7.14177e-17 1.28859e-16)
(0.411782 -3.78866e-17 3.09894e-17)
(0.418264 -7.32863e-17 1.31428e-16)
(0.418264 -3.89218e-17 3.20827e-17)
(0.424652 -7.55938e-17 1.33959e-16)
(0.424652 -4.00491e-17 3.31891e-17)
(0.430948 -7.75217e-17 1.36427e-16)
(0.430948 -4.0962e-17 3.43244e-17)
(0.437151 -7.90635e-17 1.3889e-16)
(0.437151 -4.20304e-17 3.54791e-17)
(0.443263 -8.05709e-17 1.41315e-16)
(0.443263 -4.32909e-17 3.66823e-17)
(0.449284 -8.17749e-17 1.43701e-16)
(0.449284 -4.43133e-17 3.794e-17)
(0.455215 -8.27051e-17 1.46102e-16)
(0.455215 -4.529e-17 3.92337e-17)
(0.461058 -8.34664e-17 1.4737e-16)
(0.461058 -4.67731e-17 4.05381e-17)
(0.466814 -8.45073e-17 1.47651e-16)
(0.466814 -4.8101e-17 4.18471e-17)
(0.472484 -8.57628e-17 1.47928e-16)
(0.472484 -4.85621e-17 4.31879e-17)
(0.478071 -8.69248e-17 1.4823e-16)
(0.478071 -4.93812e-17 4.45951e-17)
(0.483576 -8.84343e-17 1.48511e-16)
(0.483576 -5.0436e-17 4.60464e-17)
(0.489 -9.0256e-17 1.48775e-16)
(0.489 -5.06052e-17 4.75224e-17)
(0.494346 -9.17979e-17 1.49027e-16)
(0.494346 -5.16991e-17 4.90538e-17)
(0.499615 -9.28285e-17 1.49274e-16)
(0.499615 -5.33819e-17 5.06219e-17)
(0.504809 -9.4271e-17 1.49595e-16)
(0.504809 -5.46306e-17 5.2222e-17)
(0.50993 -9.62969e-17 1.49903e-16)