/*--------------------------------*- C++ -*----------------------------------*\
| =========                 |                                                 |
| \\      /  F ield         | OpenFOAM: The Open Source CFD Toolbox           |
|  \\    /   O peration     | Version:  2106                                  |
|   \\  /    A nd           | Website:  www.openfoam.com                      |
|    \\/     M anipulation  |                                                 |
\*---------------------------------------------------------------------------*/
FoamFile
{
    version     2.0;
    format      ascii;
    arch        "LSB;label=32;scalar=64";
    class       volTensorField;
    location    "17000";
    object      grad(U);
}
// * * * * * * * * * * * * * * * * * * * * * * * * * * * * * * * * * * * * * //

dimensions      [0 0 -1 0 0 0 0];

internalField   nonuniform List<tensor> 
2560
(
(0 3.11836e-30 0 49.3374 -9.47139e-12 -1.24306e-12 0.0714223 -6.8563e-15 -5.77544e-16)
(-9.14312e-18 -7.82063e-28 -3.19461e-26 49.3374 -3.40557e-15 -7.24018e-13 0.0714223 -2.87991e-18 -5.33758e-16)
(0 -1.02063e-24 -5.48333e-26 49.3301 4.7029e-32 -1.46684e-13 0.215284 -6.31089e-30 -4.30833e-16)
(0 0 0 49.3301 -1.3521e-14 -5.49021e-13 0.215284 -2.36681e-17 -2.18123e-15)
(-9.04174e-18 2.4909e-30 2.34017e-31 49.3227 2.19023e-12 -7.20072e-14 0.296064 -2.03525e-14 -4.27427e-16)
(0 8.07896e-30 0 49.3227 -1.58838e-14 -4.10734e-14 0.296064 -5.18896e-17 -2.24495e-15)
(9.9039e-17 -1.23007e-29 -2.43393e-31 49.3153 5.96473e-13 -7.19841e-14 0.300323 -5.64761e-15 -4.43172e-16)
(-7.00448e-17 7.96317e-30 0 49.3153 -1.64038e-14 -4.16078e-14 0.300323 -8.21792e-17 -2.31044e-15)
(1.38082e-16 -3.13961e-29 -1.96226e-30 49.3077 1.05716e-13 -7.34741e-14 0.304643 -1.53569e-15 -4.5836e-16)
(0 2.35471e-29 9.81129e-31 49.3077 -1.66301e-14 -4.21504e-14 0.304643 -1.13467e-16 -2.37775e-15)
(2.05867e-16 -1.14812e-27 -1.23088e-30 49.2999 -1.57772e-30 -7.47659e-14 0.309024 0 -4.72351e-16)
(5.58119e-16 1.54731e-29 9.67067e-31 49.2999 -1.69381e-14 -4.26971e-14 0.309024 -1.45929e-16 -2.44694e-15)
(-9.05914e-17 -2.55934e-30 2.7466e-31 49.2918 2.57524e-14 -7.59395e-14 0.313464 -9.5309e-17 -4.86714e-16)
(3.62366e-16 1.52513e-29 0 49.2918 -1.7349e-14 -4.32442e-14 0.313464 -1.79621e-16 -2.51804e-15)
(-1.11718e-16 2.00744e-29 1.22537e-30 49.2832 3.59518e-14 -7.71389e-14 0.317964 -2.3087e-16 -5.01665e-16)
(3.14642e-16 -7.51636e-30 0 49.2832 -1.76072e-14 -4.37848e-14 0.317964 -2.1432e-16 -2.5911e-15)
(3.93817e-16 -2.7262e-29 -1.22344e-30 49.2736 3.48777e-14 -7.83639e-14 0.322521 -2.29721e-16 -5.17011e-16)
(-2.60668e-16 2.22259e-29 9.26079e-31 49.2736 -1.78766e-14 -4.43139e-14 0.322521 -2.49963e-16 -2.66615e-15)
(0 7.30244e-30 9.12806e-31 49.2625 3.41004e-14 -7.95838e-14 0.327131 -2.23571e-16 -5.32564e-16)
(0 0 9.12806e-31 49.2625 -1.82395e-14 -4.48281e-14 0.327131 -2.86705e-16 -2.74319e-15)
(-1.76941e-16 -1.65675e-29 -5.78052e-31 49.2492 3.42054e-14 -8.07746e-14 0.33179 -2.26125e-16 -5.48203e-16)
(0 2.15933e-29 8.99723e-31 49.2492 -1.8526e-14 -4.53152e-14 0.33179 -3.24778e-16 -2.82225e-15)
(1.99311e-16 -4.04926e-29 -2.99498e-30 49.2327 3.45275e-14 -8.19157e-14 0.336488 -2.31536e-16 -5.63765e-16)
(0 2.83785e-29 2.66048e-30 49.2327 -1.8773e-14 -4.57614e-14 0.336488 -3.64752e-16 -2.90329e-15)
(2.46042e-16 -1.39859e-29 -1.74823e-30 49.2116 3.49805e-14 -8.29825e-14 0.341216 -2.37153e-16 -5.79059e-16)
(0 1.39859e-29 1.74823e-30 49.2116 -1.90537e-14 -4.61574e-14 0.341216 -4.05889e-16 -2.98627e-15)
(-2.45022e-16 1.87917e-29 1.22322e-30 49.1841 3.58822e-14 -8.39443e-14 0.345958 -2.44601e-16 -5.93815e-16)
(9.8009e-16 -6.89271e-30 8.61589e-31 49.1841 -1.97806e-14 -4.64748e-14 0.345958 -4.48252e-16 -3.07114e-15)
(0 4.07635e-29 8.4924e-31 49.1479 3.66786e-14 -8.47639e-14 0.350695 -2.56789e-16 -6.07723e-16)
(0 -4.07635e-29 -8.4924e-31 49.1479 -2.03939e-14 -4.66903e-14 0.350695 -4.93732e-16 -3.15773e-15)
(-2.92052e-16 1.16877e-29 3.90938e-31 49.1003 3.73118e-14 -8.54001e-14 0.355403 -2.63136e-16 -6.20424e-16)
(1.16821e-15 -6.69654e-30 0 49.1003 -2.06049e-14 -4.67864e-14 0.355403 -5.40392e-16 -3.2459e-15)
(0 3.30028e-29 0 49.0378 3.83783e-14 -8.58024e-14 0.36005 -2.73483e-16 -6.31438e-16)
(-1.26427e-15 -3.30028e-29 0 49.0378 -2.12281e-14 -4.67259e-14 0.36005 -5.88194e-16 -3.33541e-15)
(0 3.25298e-29 1.62649e-30 48.9564 3.90929e-14 -8.59152e-14 0.3646 -2.86517e-16 -6.4028e-16)
(-1.36168e-15 -3.25298e-29 -1.62649e-30 48.9564 -2.16297e-14 -4.64732e-14 0.3646 -6.39257e-16 -3.42592e-15)
(9.02509e-16 -1.92381e-29 -1.60318e-30 48.8514 3.94616e-14 -8.568e-14 0.369008 -2.92148e-16 -6.46377e-16)
(-4.51255e-16 1.92381e-29 0 48.8514 -2.17588e-14 -4.59958e-14 0.369008 -6.90704e-16 -3.51707e-15)
(3.90127e-16 2.03253e-29 1.12317e-30 48.7174 4.02904e-14 -8.50358e-14 0.373224 -3.00487e-16 -6.4915e-16)
(-1.56051e-15 -3.1604e-29 -1.5802e-30 48.7174 -2.22285e-14 -4.52582e-14 0.373224 -7.43084e-16 -3.60835e-15)
(0 3.11511e-29 1.55755e-30 48.5485 4.12582e-14 -8.39197e-14 0.377189 -3.13424e-16 -6.47935e-16)
(0 -3.11511e-29 -1.55755e-30 48.5485 -2.26628e-14 -4.42239e-14 0.377189 -7.97252e-16 -3.69917e-15)
(-4.41141e-16 -7.34239e-30 -1.04117e-30 48.3385 4.18317e-14 -8.22752e-14 0.380839 -3.24357e-16 -6.42192e-16)
(0 1.84227e-29 1.53523e-30 48.3385 -2.31242e-14 -4.28604e-14 0.380839 -8.52788e-16 -3.78885e-15)
(8.10691e-16 -4.95455e-29 -2.51295e-30 48.0806 4.24536e-14 -8.00586e-14 0.384106 -3.31663e-16 -6.31394e-16)
(0 4.84232e-29 1.51323e-30 48.0806 -2.36812e-14 -4.11358e-14 0.384106 -9.10981e-16 -3.87665e-15)
(0 2.38646e-29 0 47.7683 4.33857e-14 -7.72353e-14 0.386919 -3.43826e-16 -6.15104e-16)
(-1.9735e-15 -2.98307e-29 -2.98307e-30 47.7683 -2.37626e-14 -3.90397e-14 0.386919 -9.73319e-16 -3.96167e-15)
(5.19906e-16 2.44929e-29 9.16303e-31 47.3954 4.37879e-14 -7.37941e-14 0.389207 -3.56532e-16 -5.93129e-16)
(0 -2.94032e-29 -1.47016e-30 47.3954 -2.35865e-14 -3.65754e-14 0.389207 -1.03496e-15 -4.04306e-15)
(-1.09336e-15 3.87837e-29 2.5981e-30 46.9562 4.41743e-14 -6.97475e-14 0.390903 -3.60532e-16 -5.65407e-16)
(0 -2.89818e-29 -1.44909e-30 46.9562 -2.38152e-14 -3.37593e-14 0.390903 -1.09665e-15 -4.1198e-15)
(2.52504e-15 -6.03765e-29 -4.64232e-30 46.446 4.51375e-14 -6.51351e-14 0.391947 -3.73441e-16 -5.32197e-16)
(4.58926e-15 4.57062e-29 2.85664e-30 46.446 -2.39142e-14 -3.06164e-14 0.391947 -1.16304e-15 -4.19106e-15)
(0 -3.37883e-29 0 45.8617 4.59017e-14 -6.00231e-14 0.392289 -3.87446e-16 -4.9392e-16)
(1.61068e-15 3.37883e-29 0 45.8617 -2.39285e-14 -2.71962e-14 0.392289 -1.22968e-15 -4.25596e-15)
(6.28082e-16 6.23353e-30 -6.3604e-31 45.2016 4.63089e-14 -5.45032e-14 0.391892 -3.97543e-16 -4.51326e-16)
(0 -5.55068e-30 0 45.2016 -2.46645e-14 -2.35549e-14 0.391892 -1.2966e-15 -4.31383e-15)
(-1.31087e-15 9.71403e-30 1.31131e-30 44.4658 4.64558e-14 -4.86893e-14 0.390736 -4.05911e-16 -4.05315e-16)
(-5.24348e-15 0 0 44.4658 -2.54576e-14 -1.97512e-14 0.390736 -1.36921e-15 -4.36393e-15)
(-2.20073e-15 2.10244e-29 3.37077e-30 43.6567 4.70582e-14 -4.27091e-14 0.388818 -4.11794e-16 -3.56984e-16)
(-2.73126e-15 -5.39271e-30 0 43.6567 -2.5977e-14 -1.58901e-14 0.388818 -1.44555e-15 -4.40561e-15)
(0 3.72079e-29 2.65771e-30 42.7781 4.75569e-14 -3.66979e-14 0.386151 -4.28636e-16 -3.07495e-16)
(-2.84066e-15 -3.72079e-29 -2.65771e-30 42.7781 -2.58344e-14 -1.20597e-14 0.386151 -1.52297e-15 -4.43865e-15)
(0 -3.14354e-29 -1.30981e-30 41.836 4.67647e-14 -3.07928e-14 0.382766 -4.32958e-16 -2.58118e-16)
(2.94971e-15 3.14354e-29 1.30981e-30 41.836 -2.46634e-14 -8.32616e-15 0.382766 -1.59897e-15 -4.46306e-15)
(-7.64551e-16 4.81263e-30 7.23385e-31 40.8376 4.61204e-14 -2.51184e-14 0.37871 -4.26525e-16 -2.09922e-16)
(0 1.03283e-29 0 40.8376 -2.40751e-14 -4.75742e-15 0.37871 -1.67236e-15 -4.47892e-15)
(-7.91477e-16 3.02518e-29 2.00929e-30 39.7913 4.60238e-14 -1.97775e-14 0.37404 -4.3354e-16 -1.63903e-16)
(0 -2.54506e-29 -1.27253e-30 39.7913 -2.43853e-14 -1.43923e-15 0.37404 -1.74522e-15 -4.48641e-15)
(-8.18155e-16 1.98415e-29 3.25709e-30 38.7062 4.53756e-14 -1.48563e-14 0.368825 -4.37179e-16 -1.2093e-16)
(-3.27262e-15 -5.01717e-30 0 38.7062 -2.43041e-14 1.59029e-15 0.368825 -1.82178e-15 -4.48611e-15)
(8.44537e-16 -1.46703e-29 -7.58617e-31 37.5917 4.4858e-14 -1.04171e-14 0.363138 -4.33707e-16 -8.16328e-17)
(0 9.89052e-30 0 37.5917 -2.38839e-14 4.28476e-15 0.363138 -1.89942e-15 -4.47834e-15)
(8.70579e-16 -3.40145e-29 -3.20431e-30 36.4573 4.48767e-14 -6.49756e-15 0.357056 -4.39834e-16 -4.64769e-17)
(0 2.92463e-29 2.43719e-30 36.4573 -2.39047e-14 6.64692e-15 0.357056 -1.98015e-15 -4.46413e-15)
(-8.96243e-16 1.91701e-29 7.74091e-31 35.3121 4.47731e-14 -3.11414e-15 0.350655 -4.46784e-16 -1.57174e-17)
(0 -4.80452e-30 0 35.3121 -2.37964e-14 8.68662e-15 0.350655 -2.06414e-15 -4.44382e-15)
(0 1.4207e-29 -1.90351e-29 34.1645 4.41489e-14 -1.53088e-28 0.344009 -4.50626e-16 -7.88861e-31)
(0 -2.36783e-29 -2.36783e-30 34.1645 -2.34543e-14 1.03671e-14 0.344009 -2.14462e-15 -4.41823e-15)
(-9.46314e-16 1.40702e-29 1.72074e-30 33.0221 4.33699e-14 2.05394e-15 0.337188 -4.47087e-16 -1.05932e-17)
(2.47139e-15 -4.66779e-30 0 33.0221 -2.29468e-14 1.17272e-14 0.337188 -2.22409e-15 -4.38821e-15)
(0 -2.76053e-29 -2.30044e-30 31.8917 4.30955e-14 3.93991e-15 0.330255 -4.4764e-16 -3.24707e-17)
(3.88269e-15 2.76053e-29 2.30044e-30 31.8917 -2.26504e-14 1.28112e-14 0.330255 -2.30409e-15 -4.35449e-15)
(-2.81914e-16 1.34276e-29 -7.73235e-31 30.779 4.24765e-14 5.36064e-15 0.323267 -4.54397e-16 -5.01189e-17)
(-2.70176e-15 -2.72097e-29 0 30.779 -2.25893e-14 1.36342e-14 0.323267 -2.38716e-15 -4.31774e-15)
(2.27614e-15 -1.36422e-29 -3.00613e-30 29.689 4.14945e-14 6.38666e-15 0.316275 -4.47514e-16 -6.38096e-17)
(-1.25818e-15 8.93989e-30 2.23497e-30 29.689 -2.19941e-14 1.41823e-14 0.316275 -2.46767e-15 -4.27841e-15)
(-1.04087e-15 2.8547e-31 7.69318e-31 28.6254 4.08064e-14 7.06598e-15 0.309321 -4.46399e-16 -7.38513e-17)
(0 1.32176e-29 2.20294e-30 28.6254 -2.13383e-14 1.45414e-14 0.309321 -2.54931e-15 -4.23741e-15)
(1.06329e-15 8.348e-30 -7.67756e-31 27.5913 3.98425e-14 7.44197e-15 0.302443 -4.45474e-16 -8.06343e-17)
(4.25316e-15 -4.34273e-30 0 27.5913 -2.07126e-14 1.47415e-14 0.302443 -2.6268e-15 -4.19485e-15)
(1.20485e-15 -1.7122e-29 -2.14024e-30 26.5889 3.91017e-14 7.55321e-15 0.295669 -4.37947e-16 -8.44125e-17)
(4.34086e-15 2.14024e-29 2.14024e-30 26.5889 -2.0577e-14 1.47737e-14 0.295669 -2.70357e-15 -4.1515e-15)
(-1.10665e-15 8.8787e-30 7.65623e-31 25.6198 3.88182e-14 7.44699e-15 0.289024 -4.41735e-16 -8.55172e-17)
(0 4.21914e-30 2.10957e-30 25.6198 -2.07369e-14 1.47049e-14 0.289024 -2.78381e-15 -4.10781e-15)
(-1.12761e-15 8.8075e-30 7.65086e-31 24.6851 3.84239e-14 7.16226e-15 0.282527 -4.44259e-16 -8.44432e-17)
(0 0 0 24.6851 -2.03975e-14 1.45553e-14 0.282527 -2.86121e-15 -4.06389e-15)
(1.15378e-15 -8.19813e-30 -2.04953e-30 23.785 3.8254e-14 6.72657e-15 0.276193 -4.45478e-16 -8.13814e-17)
(0 1.22972e-29 2.04953e-30 23.785 -1.96203e-14 1.43215e-14 0.276193 -2.93564e-15 -4.01993e-15)
(-2.30536e-15 5.86355e-31 2.78534e-30 22.9199 3.79851e-14 6.17667e-15 0.270033 -4.53252e-16 -7.66069e-17)
(0 1.61613e-29 0 22.9199 -1.94997e-14 1.40011e-14 0.270033 -3.01144e-15 -3.97619e-15)
(-1.12095e-15 3.18592e-29 1.9912e-30 22.0892 3.70081e-14 5.53578e-15 0.264053 -4.52072e-16 -7.05638e-17)
(-4.75072e-15 -2.78768e-29 -1.9912e-30 22.0892 -1.94823e-14 1.3626e-14 0.264053 -3.09165e-15 -3.93297e-15)
(-1.20681e-15 -1.89455e-29 -1.19585e-30 21.2926 3.65129e-14 4.82178e-15 0.258258 -4.42734e-16 -6.32412e-17)
(4.82723e-15 2.74773e-29 1.96266e-30 21.2926 -1.89771e-14 1.32431e-14 0.258258 -3.1714e-15 -3.89042e-15)
(0 2.70835e-29 3.86907e-30 20.5293 3.61071e-14 4.06153e-15 0.252651 -4.53079e-16 -5.49877e-17)
(0 -2.70835e-29 -3.86907e-30 20.5293 -1.89818e-14 1.28499e-14 0.252651 -3.2513e-15 -3.84843e-15)
(-1.24379e-15 1.98384e-29 2.67677e-30 19.7983 3.48401e-14 3.26526e-15 0.247232 -4.45531e-16 -4.60345e-17)
(4.97515e-15 -1.52545e-29 -1.90681e-30 19.7983 -1.83567e-14 1.24225e-14 0.247232 -3.32756e-15 -3.80719e-15)
(2.52334e-15 -2.41854e-29 -1.54421e-30 19.0987 3.36294e-14 2.44484e-15 0.241999 -4.34126e-16 -3.63459e-17)
(5.04668e-15 1.50358e-29 0 19.0987 -1.71688e-14 1.19799e-14 0.241999 -3.40629e-15 -3.76692e-15)
(0 -7.41016e-30 -1.85254e-30 18.4293 3.23127e-14 1.61182e-15 0.23695 -4.2734e-16 -2.62127e-17)
(0 1.48203e-29 1.85254e-30 18.4293 -1.61741e-14 1.15057e-14 0.23695 -3.48517e-15 -3.72764e-15)
(-1.29628e-15 -2.74643e-30 -1.04852e-30 17.7891 3.19368e-14 7.75393e-16 0.232082 -4.12374e-16 -1.56026e-17)
(0 1.46079e-29 1.82599e-30 17.7891 -1.58076e-14 1.10145e-14 0.232082 -3.55886e-15 -3.68941e-15)
(-2.62607e-15 2.34881e-29 3.36077e-30 17.1767 3.24479e-14 -5.27749e-17 0.22739 -4.29872e-16 -6.25636e-18)
(5.25214e-15 -2.15978e-29 -1.79982e-30 17.1767 -1.61867e-14 1.06102e-14 0.22739 -3.63735e-15 -3.65242e-15)
(-1.32944e-15 4.5329e-30 7.80965e-31 16.591 3.10819e-14 -8.71484e-16 0.22287 -4.38226e-16 -1.74774e-17)
(0 7.09608e-30 1.77402e-30 16.591 -1.4619e-14 1.02204e-14 0.22287 -3.71877e-15 -3.61615e-15)
(-1.34551e-15 4.52757e-30 7.81738e-31 16.0309 2.93918e-14 -1.6866e-15 0.218516 -4.05121e-16 -2.90475e-17)
(5.38204e-15 6.99438e-30 3.49719e-30 16.0309 -1.25672e-14 9.74406e-15 0.218516 -3.78834e-15 -3.58107e-15)
(-1.36125e-15 1.14118e-29 2.50642e-30 15.4951 2.95235e-14 -2.48456e-15 0.214323 -4.04187e-16 -4.0443e-17)
(0 0 0 15.4951 -1.43077e-14 9.24466e-15 0.214323 -3.854e-15 -3.54701e-15)
(-2.75337e-15 2.25989e-29 3.26755e-30 14.9826 2.98933e-14 -3.25757e-15 0.210285 -4.20694e-16 -5.19661e-17)
(-5.50675e-15 -1.35906e-29 -1.69883e-30 14.9826 -1.45787e-14 8.88229e-15 0.210285 -3.93658e-15 -3.51469e-15)
(-2.78363e-15 -1.7807e-29 1.57244e-30 14.4922 2.95106e-14 -4.01052e-15 0.206397 -4.26584e-16 -6.34357e-17)
(1.11345e-14 2.00938e-29 1.67448e-30 14.4922 -1.30708e-14 8.55755e-15 0.206397 -4.00443e-15 -3.48247e-15)
(-4.21998e-15 3.98568e-29 5.6663e-30 14.0228 2.75463e-14 -4.73943e-15 0.202653 -4.21935e-16 -7.49068e-17)
(-5.62663e-15 -2.64077e-29 -3.30096e-30 14.0228 -1.30135e-14 8.15396e-15 0.202653 -4.07115e-15 -3.45146e-15)
(-1.42122e-15 -2.15486e-29 -8.35838e-31 13.5735 2.60839e-14 -5.45583e-15 0.199048 -3.8136e-16 -8.66511e-17)
(5.68488e-15 2.60292e-29 1.62683e-30 13.5735 -1.1406e-14 7.81623e-15 0.199048 -4.1411e-15 -3.42183e-15)
(3.24091e-15 -2.37139e-29 -4.00097e-30 13.1432 2.66214e-14 -6.15523e-15 0.195576 -3.90696e-16 -9.82544e-17)
(-1.80539e-15 1.92421e-29 3.20702e-30 13.1432 -1.14409e-14 7.46008e-15 0.195576 -4.1975e-15 -3.39243e-15)
(0 -2.52884e-29 -4.74158e-30 12.7311 2.69629e-14 -6.82396e-15 0.192231 -4.08788e-16 -1.09709e-16)
(5.7982e-15 2.52884e-29 4.74158e-30 12.7311 -1.27416e-14 7.17212e-15 0.192231 -4.26082e-15 -3.36475e-15)
(1.75401e-15 -1.2463e-29 -1.55787e-30 12.3361 2.72833e-14 -7.46564e-15 0.189009 -4.12622e-16 -1.21109e-16)
(5.85334e-15 1.2463e-29 1.55787e-30 12.3361 -1.27927e-14 6.97913e-15 0.189009 -4.33284e-15 -3.33707e-15)
(-1.72887e-15 1.84265e-29 3.07109e-30 11.9574 2.77701e-14 -8.08118e-15 0.185904 -4.30736e-16 -1.32364e-16)
(5.90753e-15 0 -1.53555e-30 11.9574 -1.27878e-14 6.7243e-15 0.185904 -4.40652e-15 -3.31e-15)
(0 2.42166e-29 3.02707e-30 11.5943 2.7175e-14 -8.67388e-15 0.18291 -4.40085e-16 -1.43648e-16)
(0 -2.42166e-29 -3.02707e-30 11.5943 -1.26413e-14 6.43166e-15 0.18291 -4.47711e-15 -3.28362e-15)
(-3.00658e-15 8.83095e-30 1.62937e-30 11.246 2.54034e-14 -9.24699e-15 0.180025 -4.24284e-16 -1.54873e-16)
(0 0 0 11.246 -1.18975e-14 6.16243e-15 0.180025 -4.55196e-15 -3.25808e-15)
(0 -2.35274e-29 -2.94092e-30 10.9117 2.48971e-14 -9.80558e-15 0.177242 -3.95386e-16 -1.66279e-16)
(6.06467e-15 2.35274e-29 2.94092e-30 10.9117 -1.10374e-14 5.91702e-15 0.177242 -4.62012e-15 -3.23289e-15)
(0 1.15951e-29 1.44939e-30 10.5907 2.53943e-14 -1.03427e-14 0.174558 -4.20013e-16 -1.77381e-16)
(6.11535e-15 -5.79755e-30 0 10.5907 -1.16738e-14 5.69446e-15 0.174558 -4.68435e-15 -3.20868e-15)
(-1.54131e-15 4.38463e-30 8.31612e-31 10.2824 2.48146e-14 -1.08538e-14 0.171968 -4.23604e-16 -1.88503e-16)
(0 5.71445e-30 2.85723e-30 10.2824 -1.22433e-14 5.53635e-15 0.171968 -4.76079e-15 -3.18517e-15)
(-1.61726e-15 1.25666e-30 1.97827e-30 9.98611 2.34343e-14 -1.13442e-14 0.169468 -4.12637e-16 -1.99468e-16)
(0 0 0 9.98611 -1.12831e-14 5.35346e-15 0.169468 -4.84016e-15 -3.16214e-15)
(0 -1.11036e-29 -2.77591e-30 9.70133 2.16348e-14 -1.18202e-14 0.167054 -3.88475e-16 -2.10657e-16)
(0 1.11036e-29 2.77591e-30 9.70133 -1.09142e-14 5.13634e-15 0.167054 -4.90731e-15 -3.13959e-15)
(1.5403e-15 -1.09445e-29 0 9.42747 2.09633e-14 -1.22805e-14 0.164724 -3.61845e-16 -2.21628e-16)
(0 1.09445e-29 2.73613e-30 9.42747 -1.12685e-14 4.98211e-15 0.164724 -4.98149e-15 -3.11771e-15)
(-1.66046e-15 3.31462e-30 -9.78309e-31 9.16399 2.10684e-14 -1.27048e-14 0.162472 -3.7605e-16 -2.32088e-16)
(0 1.07876e-29 2.69691e-30 9.16399 -1.06544e-14 4.9214e-15 0.162472 -5.05733e-15 -3.09643e-15)
(-1.60092e-15 2.02938e-29 3.52532e-30 8.91041 2.13857e-14 -1.31041e-14 0.160296 -3.76223e-16 -2.42689e-16)
(0 -1.59495e-29 -2.65826e-30 8.91041 -1.05902e-14 4.79153e-15 0.160296 -5.12371e-15 -3.07475e-15)
(1.61233e-15 -4.3311e-30 -3.4953e-30 8.66625 2.12203e-14 -1.34923e-14 0.158193 -3.98644e-16 -2.53259e-16)
(-9.39936e-15 0 2.62016e-30 8.66625 -1.17104e-14 4.59054e-15 0.158193 -5.20051e-15 -3.05429e-15)
(2.90775e-15 -5.16521e-30 0 8.43107 2.00442e-14 -1.38695e-14 0.156159 -3.81122e-16 -2.63964e-16)
(-6.49436e-15 1.03304e-29 2.5826e-30 8.43107 -1.10497e-14 4.50663e-15 0.156159 -5.28772e-15 -3.03404e-15)
(-1.6347e-15 1.9591e-29 4.71059e-30 8.20445 2.05922e-14 -1.42353e-14 0.154192 -3.66151e-16 -2.74616e-16)
(1.30776e-14 -5.09117e-30 -3.81838e-30 8.20445 -9.37814e-15 4.46698e-15 0.154192 -5.35966e-15 -3.01316e-15)
(1.64566e-15 1.07533e-29 3.53338e-31 7.986 2.14459e-14 -1.45867e-14 0.152288 -4.13166e-16 -2.85283e-16)
(6.58265e-15 -1.50546e-29 -3.76365e-30 7.986 -1.00256e-14 4.41462e-15 0.152288 -5.42711e-15 -2.99297e-15)
(0 -4.94628e-30 0 7.77534 2.0866e-14 -1.49251e-14 0.150446 -4.09879e-16 -2.95931e-16)
(0 9.89256e-30 1.23657e-30 7.77534 -9.95559e-15 4.38049e-15 0.150446 -5.51571e-15 -2.97309e-15)
(-1.66717e-15 -1.52185e-29 -2.73623e-30 7.57212 2.12526e-14 -1.5249e-14 0.148663 -4.02526e-16 -3.06528e-16)
(6.66869e-15 1.95016e-29 6.09424e-30 7.57212 -9.60729e-15 4.25411e-15 0.148663 -5.58129e-15 -2.95275e-15)
(-1.67773e-15 1.86833e-29 3.33318e-30 7.37599 2.24723e-14 -1.55542e-14 0.146936 -4.37268e-16 -3.16922e-16)
(-6.71091e-15 -9.61102e-30 0 7.37599 -1.13794e-14 4.1674e-15 0.146936 -5.66145e-15 -2.93339e-15)
(1.68816e-15 -2.31986e-29 -3.30912e-30 7.18665 2.20875e-14 -1.58546e-14 0.145263 -4.63556e-16 -3.27809e-16)
(6.75262e-15 1.89465e-29 2.36832e-30 7.18665 -1.10459e-14 4.23022e-15 0.145263 -5.74729e-15 -2.91336e-15)
(-4.32673e-15 1.82526e-29 5.62039e-30 7.00379 2.05649e-14 -1.61541e-14 0.143642 -4.34318e-16 -3.38649e-16)
(9.42211e-15 -1.40062e-29 -4.66875e-30 7.00379 -9.83366e-15 4.20549e-15 0.143642 -5.80674e-15 -2.89222e-15)
(-1.70865e-15 4.23916e-30 3.26373e-30 6.82713 1.96904e-14 -1.64457e-14 0.142071 -4.1387e-16 -3.49707e-16)
(0 0 -2.30092e-30 6.82713 -1.02242e-14 4.13334e-15 0.142071 -5.89016e-15 -2.87222e-15)
(-1.71871e-15 4.23024e-30 9.74406e-31 6.65639 2.01234e-14 -1.67328e-14 0.140548 -4.10172e-16 -3.60848e-16)
(0 4.53588e-30 0 6.65639 -1.01996e-14 4.09807e-15 0.140548 -5.97127e-15 -2.8516e-15)
(-4.24555e-15 -4.72823e-30 3.50325e-46 6.49132 2.11086e-14 1.03798e-30 0.13907 -4.44513e-16 0)
(9.43156e-15 1.34126e-29 2.23543e-30 6.49132 -9.59938e-15 4.09682e-15 0.13907 -6.04499e-15 -2.83121e-15)
(1.73852e-15 -1.30117e-29 -3.16364e-30 6.33169 2.01482e-14 2.15432e-14 0.137637 -4.64935e-16 -4.53756e-16)
(0 8.81357e-30 2.20339e-30 6.33169 -9.60663e-15 4.10697e-15 0.137637 -6.12585e-15 -2.81103e-15)
(0 -4.34363e-30 -2.17181e-30 6.17725 1.918e-14 2.19698e-14 0.136247 -4.15257e-16 -4.8801e-16)
(0 8.68725e-30 4.34363e-30 6.17725 -1.07759e-14 4.00951e-15 0.136247 -6.21081e-15 -2.79002e-15)
(-4.1681e-15 -9.92522e-32 -1.21672e-30 6.0278 1.98737e-14 2.1388e-14 0.134897 -4.35312e-16 -4.86099e-16)
(2.4102e-15 8.56274e-30 2.14069e-30 6.0278 -1.11354e-14 3.9594e-15 0.134897 -6.3042e-15 -2.76937e-15)
(0 -2.95401e-29 -8.44002e-30 5.88311 2.02543e-14 2.08118e-14 0.133587 -4.58855e-16 -4.75944e-16)
(1.41396e-14 3.37601e-29 8.44002e-30 5.88311 -9.16029e-15 3.98284e-15 0.133587 -6.38629e-15 -2.74785e-15)
(-2.3416e-15 0 2.07976e-30 5.74301 2.02214e-14 2.03131e-14 0.132315 -4.6556e-16 -4.73851e-16)
(7.10758e-15 8.31905e-30 0 5.74301 -7.97568e-15 3.98638e-15 0.132315 -6.44937e-15 -2.7279e-15)
(-4.09429e-15 2.87429e-29 9.08035e-30 5.60729 1.92371e-14 1.96639e-14 0.131079 -4.70763e-16 -4.66628e-16)
(-7.14499e-15 -2.04995e-29 -6.14986e-30 5.60729 -8.57307e-15 3.94791e-15 0.131079 -6.52936e-15 -2.70888e-15)
(4.79454e-16 1.62614e-29 2.88769e-30 5.47579 1.69656e-14 1.91979e-14 0.129878 -4.32625e-16 -4.57016e-16)
(-9.457e-15 -8.08229e-30 0 5.47579 -7.89198e-15 3.87661e-15 0.129878 -6.61524e-15 -2.6898e-15)
(0 1.19497e-29 1.99161e-30 5.34834 1.5642e-14 1.88875e-14 0.128711 -3.7551e-16 -4.57923e-16)
(-2.24236e-15 -3.98323e-30 0 5.34834 -5.53015e-15 3.78608e-15 0.128711 -6.66529e-15 -2.66931e-15)
(0 7.85227e-30 1.96307e-30 5.22476 1.74539e-14 1.85684e-14 0.127577 -3.80833e-16 -4.55289e-16)
(7.25509e-15 0 0 5.22476 -5.58179e-15 3.66678e-15 0.127577 -6.7032e-15 -2.64959e-15)
(1.82278e-15 2.2988e-29 6.91674e-30 5.10492 1.88803e-14 1.80954e-14 0.126474 -4.76039e-16 -4.55568e-16)
(-2.17854e-15 -2.32192e-29 -5.8048e-30 5.10492 -7.71277e-15 3.66601e-15 0.126474 -6.76659e-15 -2.62982e-15)
(0 -3.05152e-29 -7.6288e-30 4.98867 1.78721e-14 1.7527e-14 0.125401 -4.63495e-16 -4.44913e-16)
(1.46536e-14 3.05152e-29 7.6288e-30 4.98867 -7.11838e-15 3.77891e-15 0.125401 -6.85189e-15 -2.6085e-15)
(0 -1.12792e-29 -1.87986e-30 4.87586 1.77482e-14 1.71946e-14 0.124358 -4.38708e-16 -4.40006e-16)
(1.68409e-14 1.12792e-29 1.87986e-30 4.87586 -8.02024e-15 3.81435e-15 0.124358 -6.91342e-15 -2.58667e-15)
(-3.69864e-15 4.42306e-30 3.41832e-30 4.76636 1.74852e-14 1.68317e-14 0.123343 -4.70678e-16 -4.40798e-16)
(0 3.70584e-30 -1.85292e-30 4.76636 -9.02751e-15 3.78612e-15 0.123343 -7.01156e-15 -2.56535e-15)
(-1.85801e-15 4.05623e-30 7.69772e-31 4.66006 1.68995e-14 1.64915e-14 0.122355 -4.37793e-16 -4.33896e-16)
(1.48641e-14 1.09582e-29 0 4.66006 -7.37684e-15 3.73765e-15 0.122355 -7.10919e-15 -2.54315e-15)
(1.86664e-15 -1.1241e-29 -2.5557e-30 4.55682 1.7148e-14 1.62599e-14 0.121394 -4.5336e-16 -4.35644e-16)
(0 7.20075e-30 1.80019e-30 4.55682 -8.58508e-15 3.56999e-15 0.121394 -7.18442e-15 -2.52054e-15)
(-1.87519e-15 7.57497e-30 7.4167e-31 4.45654 1.64946e-14 1.58981e-14 0.120458 -4.64004e-16 -4.34125e-16)
(0 0 0 4.45654 -9.12616e-15 3.57391e-15 0.120458 -7.28003e-15 -2.50107e-15)
(-1.88368e-15 1.80131e-29 2.47769e-30 4.35911 1.60573e-14 1.5485e-14 0.119546 -4.30926e-16 -4.28633e-16)
(7.5347e-15 -1.39916e-29 -1.74895e-30 4.35911 -7.06147e-15 3.74517e-15 0.119546 -7.35536e-15 -2.47857e-15)
(4.88316e-17 1.09023e-29 7.15966e-31 4.26442 1.6384e-14 1.51681e-14 0.118658 -4.53343e-16 -4.23928e-16)
(5.62745e-15 -6.89555e-30 0 4.26442 -6.5565e-15 3.70906e-15 0.118658 -7.41169e-15 -2.45419e-15)
(-3.80089e-15 7.98907e-30 1.40507e-30 4.17237 1.58438e-14 1.48706e-14 0.117793 -4.61933e-16 -4.23357e-16)
(0 0 0 4.17237 -6.64841e-15 3.67316e-15 0.117793 -7.48058e-15 -2.43287e-15)
(-1.90874e-15 3.98766e-30 2.3646e-30 4.08287 1.41891e-14 1.45696e-14 0.116951 -4.35784e-16 -4.19365e-16)
(-1.88569e-15 0 0 4.08287 -6.00445e-15 3.72488e-15 0.116951 -7.5485e-15 -2.41129e-15)
(1.85866e-15 -6.60329e-30 -1.65082e-30 3.99583 1.29066e-14 1.43202e-14 0.11613 -3.79633e-16 -4.18327e-16)
(-7.66787e-15 6.60329e-30 1.65082e-30 3.99583 -5.03357e-15 3.72427e-15 0.11613 -7.62476e-15 -2.38844e-15)
(9.3115e-17 -3.97691e-30 -6.63515e-31 3.91115 1.37584e-14 1.40393e-14 0.115329 -3.73192e-16 -4.16997e-16)
(9.53256e-15 0 0 3.91115 -5.11193e-15 3.629e-15 0.115329 -7.6963e-15 -2.36498e-15)
(1.93325e-15 -1.03703e-29 -2.25467e-30 3.82877 1.37465e-14 1.37262e-14 0.114549 -4.4153e-16 -4.13838e-16)
(-7.73299e-15 6.41536e-30 1.60384e-30 3.82877 -5.47937e-15 3.5059e-15 0.114549 -7.78266e-15 -2.34356e-15)
(-1.9413e-15 1.65979e-29 2.21922e-30 3.74859 1.20265e-14 1.36024e-14 0.113788 -3.83405e-16 -4.10273e-16)
(4.20544e-15 -6.32341e-30 0 3.74859 -3.63396e-15 3.42597e-15 0.113788 -7.84988e-15 -2.3217e-15)
(0 0 1.5582e-30 3.67054 1.23028e-14 1.34835e-14 0.113046 -3.48932e-16 -4.18366e-16)
(-3.50874e-15 0 0 3.67054 -3.25944e-15 3.38692e-15 0.113046 -7.88329e-15 -2.29937e-15)
(-3.45845e-15 6.14345e-30 3.07172e-30 3.59456 1.33832e-14 1.31337e-14 0.112323 -4.11836e-16 -4.14888e-16)
(6.09975e-15 0 0 3.59456 -3.51806e-15 3.38614e-15 0.112323 -7.94462e-15 -2.27543e-15)
(1.96514e-15 -9.96777e-30 -2.11306e-30 3.52056 1.3329e-14 1.28628e-14 0.111617 -4.27382e-16 -4.0853e-16)
(0 6.0554e-30 1.51385e-30 3.52056 -3.81285e-15 3.35531e-15 0.111617 -8.00005e-15 -2.25274e-15)
(0 5.96861e-30 1.49215e-30 3.44849 1.26367e-14 1.27126e-14 0.110928 -4.20434e-16 -4.09688e-16)
(-7.89191e-15 -5.96861e-30 -1.49215e-30 3.44849 -4.41384e-15 3.3299e-15 0.110928 -8.07777e-15 -2.23092e-15)
(-1.65593e-15 5.88306e-30 1.47077e-30 3.37827 1.21993e-14 1.23911e-14 0.110255 -3.94897e-16 -4.10734e-16)
(0 0 1.47077e-30 3.37827 -3.65135e-15 3.37589e-15 0.110255 -8.14164e-15 -2.20816e-15)
(0 5.79874e-30 2.89937e-30 3.30985 1.15686e-14 1.2029e-14 0.109599 -4.03901e-16 -4.00486e-16)
(-3.2644e-15 -5.79874e-30 -1.44969e-30 3.30985 -3.40901e-15 3.42291e-15 0.109599 -8.20256e-15 -2.18317e-15)
(1.9962e-15 1.32677e-29 8.79834e-31 3.24317 1.02142e-14 1.18458e-14 0.108959 -3.64264e-16 -3.98535e-16)
(0 -1.71469e-29 -1.42891e-30 3.24317 -4.02587e-15 3.35377e-15 0.108959 -8.24824e-15 -2.15772e-15)
(2.00385e-15 7.39064e-30 8.72091e-31 3.17817 9.99477e-15 1.17646e-14 0.108333 -3.23795e-16 -3.99783e-16)
(-3.1715e-15 -5.63371e-30 0 3.17817 -4.76618e-15 3.33655e-15 0.108333 -8.2912e-15 -2.13225e-15)
(-4.0229e-15 7.7244e-30 1.04601e-30 3.1148 1.00827e-14 1.15431e-14 0.107723 -3.59824e-16 -4.04617e-16)
(8.04581e-15 0 0 3.1148 -3.69006e-15 3.43168e-15 0.107723 -8.35767e-15 -2.1035e-15)
(-2.01901e-15 9.33132e-30 5.11813e-31 3.05301 9.21327e-15 1.11699e-14 0.107127 -3.39424e-16 -3.96014e-16)
(0 0 0 3.05301 -2.9539e-15 3.47108e-15 0.107127 -8.4064e-15 -2.07507e-15)
(0 5.39493e-30 0 2.99274 9.13858e-15 1.09275e-14 0.106544 -3.08733e-16 -3.90015e-16)
(-3.03708e-15 -5.39493e-30 0 2.99274 -4.34255e-15 3.29647e-15 0.106544 -8.4754e-15 -2.04408e-15)
(0 1.06352e-29 0 2.93395 9.86158e-15 1.08714e-14 0.105975 -3.43995e-16 -3.90187e-16)
(0 -5.31761e-30 0 2.93395 -4.50255e-15 3.17803e-15 0.105975 -8.53788e-15 -2.01821e-15)
(-2.95064e-15 5.24139e-30 1.31035e-30 2.87659 9.98085e-15 1.07022e-14 0.105419 -3.70529e-16 -3.97346e-16)
(0 0 0 2.87659 -2.83939e-15 3.30781e-15 0.105419 -8.58782e-15 -1.99112e-15)
(0 5.16627e-30 1.29157e-30 2.82061 9.33824e-15 1.0454e-14 0.104876 -3.62901e-16 -3.89094e-16)
(1.63905e-14 0 0 2.82061 -2.46238e-15 3.44928e-15 0.104876 -8.64846e-15 -1.95649e-15)
(-4.11233e-15 1.27321e-29 9.02503e-31 2.76599 8.72356e-15 1.0244e-14 0.104345 -3.33124e-16 -3.90342e-16)
(8.22467e-15 -5.09222e-30 0 2.76599 -3.28515e-15 3.43225e-15 0.104345 -8.6861e-15 -1.92191e-15)
(2.06348e-15 -8.83182e-30 -4.39857e-31 2.71266 9.16257e-15 1.01552e-14 0.103826 -3.26697e-16 -3.84493e-16)
(0 5.01924e-30 1.25481e-30 2.71266 -4.92218e-15 3.30389e-15 0.103826 -8.73488e-15 -1.89272e-15)
(0 0 0 2.6606 1.00099e-14 1.01696e-14 0.103319 -3.76818e-16 -3.94915e-16)
(-8.28302e-15 4.9473e-30 1.23683e-30 2.6606 -5.08598e-15 3.36471e-15 0.103319 -8.83662e-15 -1.86251e-15)
(-2.07799e-15 -1.57248e-29 -8.0614e-31 2.60977 1.01301e-14 9.92306e-15 0.102823 -4.02717e-16 -3.96879e-16)
(8.31197e-15 2.4382e-29 1.2191e-30 2.60977 -3.44649e-15 3.31654e-15 0.102823 -8.90981e-15 -1.8245e-15)
(0 4.8065e-30 1.20163e-30 2.56012 1.03132e-14 9.68785e-15 0.102338 -3.97419e-16 -3.8687e-16)
(-2.70582e-15 0 0 2.56012 -3.41567e-15 3.13572e-15 0.102338 -8.95846e-15 -1.79184e-15)
(0 -9.47523e-30 -1.1844e-30 2.51163 1.04219e-14 9.49227e-15 0.101864 -4.29294e-16 -3.89519e-16)
(0 9.47523e-30 1.7766e-30 2.51163 -4.3252e-15 2.98498e-15 0.101864 -9.01262e-15 -1.75574e-15)
(-2.09949e-15 3.74666e-30 3.78426e-31 2.46426 8.47536e-15 9.14168e-15 0.1014 -4.17962e-16 -3.82186e-16)
(0 0 0 2.46426 -5.21519e-15 3.09374e-15 0.1014 -9.08199e-15 -1.72422e-15)
(-1.62205e-15 -2.00993e-29 -3.29046e-30 2.41797 7.34956e-15 9.16243e-15 0.100946 -2.80142e-16 -3.718e-16)
(1.68527e-14 2.30139e-29 3.45209e-30 2.41797 -5.34896e-15 3.26798e-15 0.100946 -9.14707e-15 -1.68477e-15)
(0 9.07362e-30 0 2.37275 8.98345e-15 9.36882e-15 0.100502 -3.35307e-16 -3.95131e-16)
(-2.554e-15 0 0 2.37275 -5.75157e-15 3.00687e-15 0.100502 -9.22702e-15 -1.64768e-15)
(0 4.47179e-30 1.67692e-30 2.32854 9.45174e-15 9.13495e-15 0.100068 -4.28078e-16 -4.00342e-16)
(-2.51739e-15 0 0 2.32854 -4.19046e-15 2.99433e-15 0.100068 -9.35657e-15 -1.61585e-15)
(-6.38309e-15 -1.53351e-29 -2.31827e-30 2.28534 1.02101e-14 8.94378e-15 0.0996432 -3.85761e-16 -3.86415e-16)
(1.95029e-14 2.64462e-29 3.30577e-30 2.28534 -3.74078e-15 3.22223e-15 0.0996432 -9.4247e-15 -1.57338e-15)
(0 -2.17226e-29 -1.6292e-30 2.2431 1.04281e-14 8.82409e-15 0.0992274 -5.07368e-16 -3.95241e-16)
(1.70773e-14 2.17226e-29 1.6292e-30 2.2431 -5.92739e-15 2.99387e-15 0.0992274 -9.50011e-15 -1.52918e-15)
(2.69086e-16 7.95464e-30 1.37378e-30 2.2018 8.48645e-15 8.65359e-15 0.0988204 -4.16531e-16 -3.87045e-16)
(-2.41069e-15 -4.28225e-30 -5.35282e-31 2.2018 -5.30258e-15 2.76286e-15 0.0988204 -9.60032e-15 -1.49698e-15)
(-2.27622e-16 -2.89989e-29 -3.45551e-30 2.16142 9.45099e-15 8.53782e-15 0.098422 -3.46313e-16 -3.91371e-16)
(1.95643e-14 2.53253e-29 3.16566e-30 2.16142 -4.37342e-15 3.07517e-15 0.098422 -9.69747e-15 -1.46333e-15)
(-2.34209e-15 -1.66415e-29 -2.08019e-30 2.12192 1.07254e-14 8.2917e-15 0.098032 -5.17394e-16 -3.87741e-16)
(1.09637e-14 1.66415e-29 2.08019e-30 2.12192 -5.85138e-15 3.44094e-15 0.098032 -9.76637e-15 -1.42263e-15)
(2.16226e-15 -7.7251e-30 -1.29204e-30 2.08329 9.36447e-15 8.0791e-15 0.0976502 -4.75303e-16 -3.79884e-16)
(0 4.10075e-30 1.02519e-30 2.08329 -5.59859e-15 3.26142e-15 0.0976502 -9.88137e-15 -1.37841e-15)