/*--------------------------------*- C++ -*----------------------------------*\
| =========                 |                                                 |
| \\      /  F ield         | OpenFOAM: The Open Source CFD Toolbox           |
|  \\    /   O peration     | Version:  2012                                  |
|   \\  /    A nd           | Website:  www.openfoam.com                      |
|    \\/     M anipulation  |                                                 |
\*---------------------------------------------------------------------------*/
FoamFile
{
    version     2.0;
    format      ascii;
    class       volTensorField;
    location    "2000";
    object      grad(U);
}
// * * * * * * * * * * * * * * * * * * * * * * * * * * * * * * * * * * * * * //

dimensions      [0 0 -1 0 0 0 0];


internalField   nonuniform List<tensor> 
2560
(
(0 3.11836e-30 2.59863e-31 124.581 -1.10783e-11 -1.40538e-12 0.180342 -8.02103e-15 -6.80709e-16)
(0 -2.99823e-28 -2.01654e-26 124.581 -7.93625e-15 -4.5727e-13 0.180342 -7.20508e-18 -3.46304e-16)
(0 -9.06488e-25 -6.00544e-26 124.565 4.30315e-32 -1.46454e-13 0.543614 -6.31089e-30 -4.30157e-16)
(0 0 0 124.565 -1.6987e-14 -3.46657e-13 0.543614 -2.47088e-17 -1.48663e-15)
(-2.28404e-17 -5.16469e-30 -7.2957e-31 124.54 1.62968e-12 -7.14976e-14 0.747528 -1.49653e-14 -4.21993e-16)
(0 1.61579e-29 1.00987e-30 124.54 -2.21358e-14 -2.58601e-14 0.747528 -6.37979e-17 -1.52992e-15)
(7.32411e-17 -1.61778e-29 -1.28561e-30 124.502 6.3843e-13 -7.06946e-14 0.758117 -4.38314e-15 -4.32978e-16)
(0 1.19448e-29 9.95396e-31 124.502 -2.18157e-14 -2.61304e-14 0.758117 -1.00421e-16 -1.57437e-15)
(0 -3.13961e-29 -1.96226e-30 124.442 2.50006e-13 -7.12208e-14 0.768686 -3.32963e-15 -4.40858e-16)
(0 2.74716e-29 9.81129e-31 124.442 -2.25453e-14 -2.63112e-14 0.768686 -1.38708e-16 -1.6199e-15)
(4.4848e-16 -9.47341e-28 -1.27947e-30 124.343 1.57772e-30 -7.10783e-14 0.779081 0 -4.43874e-16)
(1.4102e-15 1.16048e-29 9.67067e-31 124.343 -2.30551e-14 -2.63098e-14 0.779081 -1.79103e-16 -1.66631e-15)
(-2.28954e-16 -2.91052e-30 3.24834e-31 124.172 3.90935e-14 -7.00781e-14 0.789031 -1.60892e-16 -4.4105e-16)
(9.15815e-16 1.52513e-29 9.53207e-31 124.172 -2.35263e-14 -2.59742e-14 0.789031 -2.21755e-16 -1.71316e-15)
(-2.82443e-16 1.97149e-29 1.27804e-30 123.878 4.99353e-14 -6.7903e-14 0.798115 -3.34029e-16 -4.28808e-16)
(6.00856e-16 -7.51636e-30 -9.39545e-31 123.878 -2.39184e-14 -2.5106e-14 0.798115 -2.64922e-16 -1.75973e-15)
(8.58102e-16 -1.94955e-29 -3.53762e-31 123.389 4.52034e-14 -6.3993e-14 0.805732 -3.05515e-16 -4.02778e-16)
(0 1.48173e-29 9.26079e-31 123.389 -2.4471e-14 -2.34856e-14 0.805732 -3.09512e-16 -1.8048e-15)
(0 2.19073e-29 9.12806e-31 122.608 4.2636e-14 -5.77975e-14 0.811122 -2.81862e-16 -3.59075e-16)
(-5.13864e-16 -1.46049e-29 0 122.608 -2.52123e-14 -2.09298e-14 0.811122 -3.55659e-16 -1.84669e-15)
(-4.47891e-16 -1.69255e-29 -5.10243e-31 121.427 4.2389e-14 -4.89656e-14 0.813419 -2.80363e-16 -2.9556e-16)
(0 2.15933e-29 2.69917e-30 121.427 -2.5854e-14 -1.73022e-14 0.813419 -4.03609e-16 -1.8834e-15)
(1.0038e-15 -4.01331e-29 -2.18281e-30 119.736 4.2973e-14 -3.74978e-14 0.811773 -2.8679e-16 -2.12807e-16)
(-4.99239e-16 2.83785e-29 1.77365e-30 119.736 -2.64306e-14 -1.26142e-14 0.811773 -4.5431e-16 -1.91259e-15)
(0 -2.09788e-29 -8.74117e-31 117.448 4.33354e-14 -2.3844e-14 0.805502 -2.9656e-16 -1.14831e-16)
(0 2.09788e-29 8.74117e-31 117.448 -2.65599e-14 -7.0619e-15 0.805502 -5.05578e-16 -1.93212e-15)
(-6.19215e-16 1.84295e-29 -5.07263e-28 114.513 4.34504e-14 -2.48483e-15 0.794251 -3.00218e-16 -8.67875e-18)
(1.5068e-15 0 -8.61589e-31 114.513 -2.66691e-14 -1.00104e-15 0.794251 -5.56828e-16 -1.94025e-15)
(0 3.39696e-29 8.75812e-47 110.939 4.3498e-14 1.12207e-31 0.778079 -3.06866e-16 -3.9443e-31)
(0 -3.39696e-29 -1.69848e-30 110.939 -2.68196e-14 5.0833e-15 0.778079 -6.09542e-16 -1.93609e-15)
(-7.33422e-16 4.62819e-30 4.33271e-31 106.794 4.32761e-14 2.01204e-14 0.757467 -3.09692e-16 -9.68304e-17)
(2.93369e-15 0 0 106.794 -2.67713e-14 1.07076e-14 0.757467 -6.61753e-16 -1.91977e-15)
(-1.85789e-15 2.64023e-29 1.65014e-30 102.19 4.31334e-14 3.19804e-14 0.733223 -3.1264e-16 -1.93197e-16)
(-1.29949e-15 -2.64023e-29 -1.65014e-30 102.19 -2.71245e-14 1.54749e-14 0.733223 -7.14006e-16 -1.89238e-15)
(-9.15633e-16 3.25298e-29 2.43974e-30 97.2724 4.2339e-14 4.11483e-14 0.706337 -3.16668e-16 -2.73951e-16)
(-2.46019e-15 -3.25298e-29 -2.43974e-30 97.2724 -2.6292e-14 1.91412e-14 0.706337 -7.70248e-16 -1.85574e-15)
(2.70753e-15 -1.28254e-29 -8.01589e-31 92.1898 4.08081e-14 4.7452e-14 0.677825 -3.09955e-16 -3.35541e-16)
(-1.80502e-15 1.28254e-29 8.01589e-31 92.1898 -2.46496e-14 2.16569e-14 0.677825 -8.21312e-16 -1.81209e-15)
(9.48011e-16 1.43632e-29 2.00535e-30 87.08 3.96582e-14 5.10744e-14 0.648615 -3.02788e-16 -3.77323e-16)
(-3.79205e-15 -2.52832e-29 -2.3703e-30 87.08 -2.39478e-14 2.30902e-14 0.648615 -8.71921e-16 -1.76358e-15)
(0 3.11511e-29 1.55755e-30 82.0565 3.73054e-14 5.24164e-14 0.619471 -3.01388e-16 -4.00958e-16)
(0 -3.11511e-29 -1.55755e-30 82.0565 -2.21978e-14 2.36036e-14 0.619471 -9.25138e-16 -1.7124e-15)
(6.84513e-16 -1.55187e-30 -4.27623e-31 77.2046 3.46668e-14 5.19607e-14 0.590978 -2.75028e-16 -4.0927e-16)
(-1.72851e-15 1.22818e-29 7.67614e-31 77.2046 -2.03445e-14 2.33813e-14 0.590978 -9.74653e-16 -1.66022e-15)
(6.14925e-16 -3.77875e-29 -2.69622e-30 72.5823 3.45804e-14 5.01986e-14 0.563546 -2.68539e-16 -4.05506e-16)
(0 3.63174e-29 3.02645e-30 72.5823 -2.11051e-14 2.26536e-14 0.563546 -1.02402e-15 -1.60868e-15)
(0 2.38646e-29 2.23731e-30 68.224 3.45954e-14 4.75541e-14 0.537434 -2.81701e-16 -3.93021e-16)
(-4.52617e-15 -2.98307e-29 -2.23731e-30 68.224 -2.18031e-14 2.162e-14 0.537434 -1.07762e-15 -1.55857e-15)
(1.17226e-15 3.07161e-29 1.89011e-30 64.1457 3.29597e-14 4.43649e-14 0.512786 -2.76649e-16 -3.74391e-16)
(0 -3.52838e-29 -2.20524e-30 64.1457 -2.11503e-14 2.03811e-14 0.512786 -1.12839e-15 -1.5105e-15)
(-2.42209e-15 4.39048e-29 3.51694e-30 60.35 3.15199e-14 4.0896e-14 0.48966 -2.62973e-16 -3.5193e-16)
(0 -3.47781e-29 -2.89818e-30 60.35 -2.00231e-14 1.90373e-14 0.48966 -1.17683e-15 -1.46479e-15)
(5.35221e-15 -5.3666e-29 -2.34209e-30 56.8302 3.10621e-14 3.73307e-14 0.46805 -2.60661e-16 -3.27309e-16)
(9.98418e-15 4.57062e-29 1.42832e-30 56.8302 -1.85232e-14 1.76659e-14 0.46805 -1.22728e-15 -1.42174e-15)
(0 -2.25256e-29 -2.11177e-30 53.5738 3.00919e-14 3.37983e-14 0.447914 -2.62903e-16 -3.0171e-16)
(5.13318e-15 2.81569e-29 2.11177e-30 53.5738 -1.73415e-14 1.62881e-14 0.447914 -1.27485e-15 -1.38148e-15)
(-2.45402e-16 1.76565e-29 3.96509e-31 50.565 2.85083e-14 3.03825e-14 0.429182 -2.51585e-16 -2.76055e-16)
(0 -1.11014e-29 0 50.565 -1.72002e-14 1.49617e-14 0.429182 -1.31739e-15 -1.34431e-15)
(-2.69834e-15 9.08266e-30 5.8931e-31 47.7862 2.76373e-14 2.71346e-14 0.41177 -2.42931e-16 -2.50857e-16)
(-1.07934e-14 0 0 47.7862 -1.74845e-14 1.37391e-14 0.41177 -1.36472e-15 -1.30986e-15)
(-4.41581e-15 1.53203e-29 9.66597e-31 45.2196 2.72667e-14 2.40847e-14 0.39559 -2.43514e-16 -2.26561e-16)
(-5.51996e-15 -5.39271e-30 -6.74088e-31 45.2196 -1.71532e-14 1.25954e-14 0.39559 -1.4122e-15 -1.27794e-15)
(0 3.72079e-29 1.99328e-30 42.8477 2.64269e-14 2.12374e-14 0.38055 -2.43382e-16 -2.03347e-16)
(-5.6381e-15 -3.72079e-29 -1.99328e-30 42.8477 -1.61421e-14 1.15094e-14 0.38055 -1.45515e-15 -1.24825e-15)
(0 -2.61962e-29 -1.96471e-30 40.6538 2.5239e-14 1.85928e-14 0.366561 -2.35321e-16 -1.8124e-16)
(5.75149e-15 2.61962e-29 1.96471e-30 40.6538 -1.49489e-14 1.05244e-14 0.366561 -1.49541e-15 -1.22111e-15)
(-1.46512e-15 4.51823e-30 2.88755e-31 38.6222 2.40893e-14 1.61493e-14 0.353539 -2.2852e-16 -1.60343e-16)
(0 1.03283e-29 6.45518e-31 38.6222 -1.46808e-14 9.65493e-15 0.353539 -1.53873e-15 -1.1961e-15)
(-4.35682e-15 3.50541e-29 9.24551e-31 36.7385 2.3311e-14 1.3894e-14 0.341404 -2.2062e-16 -1.40653e-16)
(2.86549e-15 -3.05408e-29 -6.36266e-31 36.7385 -1.49545e-14 8.84214e-15 0.341404 -1.57682e-15 -1.17312e-15)
(-4.34101e-15 2.45765e-29 1.54247e-30 34.9895 2.25011e-14 1.18167e-14 0.330082 -2.20383e-16 -1.22063e-16)
(-6.06637e-15 -1.00343e-29 -6.27146e-31 34.9895 -1.40083e-14 8.09288e-15 0.330082 -1.61508e-15 -1.152e-15)
(4.3249e-15 -1.93391e-29 -9.06549e-31 33.3631 2.14072e-14 9.90385e-15 0.319504 -2.11424e-16 -1.04614e-16)
(-2.78393e-15 1.48358e-29 6.18158e-31 33.3631 -1.2166e-14 7.38987e-15 0.319504 -1.65218e-15 -1.1325e-15)
(1.56451e-15 -2.39962e-29 -1.50751e-30 31.8484 2.11106e-14 8.13849e-15 0.30961 -2.05385e-16 -8.81192e-17)
(0 1.94975e-29 1.2186e-30 31.8484 -1.16474e-14 6.78079e-15 0.30961 -1.68877e-15 -1.11493e-15)
(-1.58728e-15 1.8906e-29 8.903e-31 30.4356 2.13403e-14 6.511e-15 0.300341 -2.11715e-16 -7.25494e-17)
(-2.7047e-15 -9.60904e-30 0 30.4356 -1.21359e-14 6.24054e-15 0.300341 -1.72761e-15 -1.09866e-15)
(0 2.36783e-29 0 29.1157 2.13372e-14 5.00845e-15 0.291645 -2.16037e-16 -5.78438e-17)
(0 -2.8414e-29 -5.91957e-31 29.1157 -1.27326e-14 5.70641e-15 0.291645 -1.76459e-15 -1.08365e-15)
(-1.63069e-15 1.38165e-29 2.9224e-31 27.8808 2.12056e-14 3.62143e-15 0.283476 -2.17853e-16 -4.38991e-17)
(6.52278e-15 0 5.83473e-31 27.8808 -1.21658e-14 5.20615e-15 0.283476 -1.80627e-15 -1.06991e-15)
(0 -2.76053e-29 -5.75111e-31 26.7235 2.03795e-14 2.34614e-15 0.275791 -2.19633e-16 -3.0716e-17)
(6.60573e-15 2.76053e-29 5.75111e-31 26.7235 -1.16799e-14 4.77371e-15 0.275791 -1.84632e-15 -1.05767e-15)
(1.67157e-15 9.13316e-30 2.71125e-31 25.6374 1.89521e-14 1.16393e-15 0.268551 -2.06818e-16 -1.82991e-17)
(-6.68629e-15 -2.26747e-29 -5.66868e-31 25.6374 -1.18833e-14 4.39415e-15 0.268551 -1.89144e-15 -1.0466e-15)
(1.69116e-15 -2.68183e-29 -1.41535e-30 24.6167 1.8084e-14 6.04869e-17 0.26172 -1.95537e-16 -6.32975e-18)
(0 2.23497e-29 1.11749e-30 24.6167 -1.13608e-14 3.99627e-15 0.26172 -1.92881e-15 -1.0366e-15)
(7.70077e-16 -4.34751e-30 -8.04192e-31 23.6559 1.89036e-14 -9.67521e-16 0.255266 -1.94039e-16 -1.61167e-17)
(-2.48029e-15 1.76235e-29 1.10147e-30 23.6559 -1.15172e-14 3.62339e-15 0.255266 -1.97204e-15 -1.02771e-15)
(-7.15969e-16 4.23053e-30 7.88779e-31 22.7503 1.94938e-14 -1.91862e-15 0.24916 -2.19308e-16 -2.6502e-17)
(6.91509e-15 -4.34273e-30 -5.42841e-31 22.7503 -1.06885e-14 3.34046e-15 0.24916 -2.01309e-15 -1.01987e-15)
(2.4097e-15 -1.28415e-29 -1.07012e-30 21.8957 1.77118e-14 -2.80924e-15 0.243377 -2.12906e-16 -3.67704e-17)
(6.98745e-15 1.7122e-29 1.07012e-30 21.8957 -9.97392e-15 3.06962e-15 0.243377 -2.04224e-15 -1.01273e-15)
(-1.76451e-15 4.44955e-30 2.97081e-31 21.088 1.71511e-14 -3.65106e-15 0.23789 -1.8535e-16 -4.66317e-17)
(0 8.43828e-30 5.27392e-31 21.088 -1.12219e-14 2.8138e-15 0.23789 -2.08268e-15 -1.0068e-15)
(-1.78174e-15 4.44159e-30 8.17483e-31 20.3237 1.83053e-14 -4.43728e-15 0.23268 -2.06252e-16 -5.61851e-17)
(0 8.31733e-30 0 20.3237 -1.12871e-14 2.62677e-15 0.23268 -2.12258e-15 -1.00172e-15)
(2.30757e-15 -8.19813e-30 -1.02477e-30 19.5996 1.87975e-14 -5.1808e-15 0.227724 -2.177e-16 -6.55918e-17)
(0 1.22972e-29 1.02477e-30 19.5996 -1.01066e-14 2.45484e-15 0.227724 -2.14999e-15 -9.97412e-16)
(-6.36402e-15 -3.65178e-30 8.04758e-31 18.9127 1.9668e-14 -5.87922e-15 0.223006 -2.23941e-16 -7.45982e-17)
(2.27449e-15 1.61613e-29 5.05039e-31 18.9127 -1.08647e-14 2.24762e-15 0.223006 -2.18253e-15 -9.93589e-16)
(-2.24189e-15 3.18592e-29 2.489e-30 18.2605 1.95551e-14 -6.5463e-15 0.218508 -2.44977e-16 -8.37608e-17)
(-7.32452e-15 -2.78768e-29 -1.9912e-30 18.2605 -1.16847e-14 2.04994e-15 0.218508 -2.22708e-15 -9.90715e-16)
(-4.05665e-15 -1.9134e-29 -1.65975e-30 17.6403 1.76979e-14 -7.18865e-15 0.214215 -2.27751e-16 -9.26561e-17)
(7.38755e-15 2.74773e-29 1.96266e-30 17.6403 -1.07402e-14 1.9267e-15 0.214215 -2.26797e-15 -9.88518e-16)
(0 2.32144e-29 2.41817e-30 17.0501 1.69436e-14 -7.7942e-15 0.210113 -2.06261e-16 -1.01395e-16)
(0 -2.32144e-29 -2.41817e-30 17.0501 -1.08967e-14 1.82243e-15 0.210113 -2.30365e-15 -9.86784e-16)
(-1.87745e-15 1.96635e-29 1.26075e-30 16.4878 1.79374e-14 -8.36853e-15 0.206188 -2.15512e-16 -1.09978e-16)
(7.50978e-15 -1.52545e-29 -9.53403e-31 16.4878 -1.12921e-14 1.72018e-15 0.206188 -2.33758e-15 -9.85471e-16)
(3.78455e-15 -2.38345e-29 -1.55969e-30 15.9516 1.74054e-14 -8.91463e-15 0.20243 -2.37578e-16 -1.18457e-16)
(7.5691e-15 1.50358e-29 9.39738e-31 15.9516 -1.15104e-14 1.66626e-15 0.20243 -2.37703e-15 -9.84773e-16)
(2.08577e-15 -1.11152e-29 -9.2627e-31 15.4396 1.50027e-14 -9.45075e-15 0.198826 -2.08098e-16 -1.27235e-16)
(0 1.48203e-29 9.2627e-31 15.4396 -1.15317e-14 1.59193e-15 0.198826 -2.42071e-15 -9.84247e-16)
(-1.9211e-15 -1.02102e-29 3.1603e-31 14.9505 1.54792e-14 -9.97135e-15 0.195367 -1.81636e-16 -1.35755e-16)
(0 2.19119e-29 4.56497e-31 14.9505 -1.02477e-14 1.48422e-15 0.195367 -2.46147e-15 -9.84376e-16)
(-3.87023e-15 3.03697e-29 1.53888e-30 14.4826 1.73972e-14 -1.04679e-14 0.192044 -2.26851e-16 -1.44341e-16)
(7.74046e-15 -2.15978e-29 -1.79982e-30 14.4826 -9.9258e-15 1.43343e-15 0.192044 -2.50383e-15 -9.85129e-16)
(-1.94888e-15 -2.71739e-30 -1.20268e-31 14.0348 1.70669e-14 -1.09498e-14 0.188847 -2.38639e-16 -1.52907e-16)
(0 7.09608e-30 8.8701e-31 14.0348 -1.0408e-14 1.43139e-15 0.188847 -2.54832e-15 -9.86021e-16)
(-3.93116e-15 -9.61386e-30 -5.47026e-31 13.6057 1.61165e-14 -1.14172e-14 0.18577 -2.24468e-16 -1.61532e-16)
(9.8184e-15 2.09831e-29 8.74297e-31 13.6057 -9.09318e-15 1.38058e-15 0.18577 -2.5927e-15 -9.86982e-16)
(-3.51923e-17 1.8158e-29 1.19333e-30 13.1943 1.635e-14 -1.18735e-14 0.182803 -2.19268e-16 -1.70226e-16)
(-1.94052e-15 -6.89413e-30 -8.61766e-31 13.1943 -1.02143e-14 1.23388e-15 0.182803 -2.62287e-15 -9.88722e-16)
(-3.9776e-15 2.91076e-29 1.5217e-30 12.7996 1.75785e-14 -1.2314e-14 0.179941 -2.37615e-16 -1.78841e-16)
(-7.9552e-15 -2.0386e-29 -8.49415e-31 12.7996 -1.09901e-14 1.18267e-15 0.179941 -2.67659e-15 -9.91277e-16)
(-5.88864e-15 -1.1392e-29 -1.82976e-30 12.4204 1.76675e-14 -1.27349e-14 0.177178 -2.60763e-16 -1.87402e-16)
(1.60133e-14 2.00938e-29 2.51172e-30 12.4204 -8.77695e-15 1.17621e-15 0.177178 -2.72453e-15 -9.9375e-16)
(-6.043e-15 3.94513e-29 3.51381e-30 12.0561 1.62796e-14 -1.3151e-14 0.174506 -2.47153e-16 -1.96307e-16)
(-9.91561e-15 -2.64077e-29 -2.47572e-30 12.0561 -9.02741e-15 1.0905e-15 0.174506 -2.76283e-15 -9.97079e-16)
(-2.0268e-15 -1.51757e-29 -4.62039e-31 11.7057 1.61895e-14 -1.35618e-14 0.171921 -2.27619e-16 -2.05139e-16)
(8.1072e-15 1.95219e-29 1.62683e-30 11.7057 -9.41467e-15 1.0636e-15 0.171921 -2.81552e-15 -1.00118e-15)
(2.03908e-15 -1.71653e-29 -1.15874e-30 11.3684 1.67066e-14 -1.39619e-14 0.169418 -2.51706e-16 -2.14156e-16)
(0 1.28281e-29 8.01755e-31 11.3684 -9.71294e-15 1.03433e-15 0.169418 -2.85076e-15 -1.00498e-15)
(0 -2.52884e-29 -1.58053e-30 11.0437 1.6071e-14 -1.43591e-14 0.166992 -2.49927e-16 -2.23337e-16)
(8.20468e-15 2.52884e-29 1.58053e-30 11.0437 -9.65578e-15 1.06385e-15 0.166992 -2.88858e-15 -1.00972e-15)
(1.75401e-15 -1.2463e-29 -7.78937e-31 10.7307 1.67048e-14 -1.47605e-14 0.164638 -2.39575e-16 -2.32927e-16)
(6.49833e-15 1.2463e-29 7.78937e-31 10.7307 -9.46818e-15 1.18503e-15 0.164638 -2.92907e-15 -1.01436e-15)
(-3.45774e-15 2.45687e-29 2.30332e-30 10.4289 1.86366e-14 -1.5153e-14 0.162351 -2.76981e-16 -2.42275e-16)
(8.2993e-15 -1.22844e-29 -7.67773e-31 10.4289 -1.07188e-14 1.23247e-15 0.162351 -2.97596e-15 -1.01865e-15)
(0 2.42166e-29 2.27031e-30 10.1377 1.84847e-14 -1.55345e-14 0.16013 -3.07607e-16 -2.51975e-16)
(0 -2.42166e-29 -2.27031e-30 10.1377 -1.09583e-14 1.23254e-15 0.16013 -3.02882e-15 -1.02338e-15)
(-4.19562e-15 8.59717e-30 7.7866e-31 9.85655 1.62788e-14 -1.59196e-14 0.157968 -2.80225e-16 -2.61891e-16)
(0 0 0 9.85655 -9.12748e-15 1.21322e-15 0.157968 -3.07927e-15 -1.02818e-15)
(0 -1.76455e-29 -2.20569e-30 9.58499 1.47918e-14 -1.63022e-14 0.155864 -2.44907e-16 -2.71973e-16)
(8.43626e-15 1.76455e-29 2.20569e-30 9.58499 -7.00109e-15 1.19184e-15 0.155864 -3.12303e-15 -1.03304e-15)
(0 1.73926e-29 1.44939e-30 9.32254 1.45696e-14 -1.66753e-14 0.153814 -2.3939e-16 -2.82047e-16)
(8.48065e-15 -5.79755e-30 -7.24693e-31 9.32254 -6.56869e-15 1.15434e-15 0.153814 -3.1593e-15 -1.0383e-15)
(-2.13111e-15 4.28312e-30 4.1237e-31 9.06875 1.47241e-14 -1.70536e-14 0.151814 -2.44647e-16 -2.92785e-16)
(0 5.71445e-30 7.14307e-31 9.06875 -6.60062e-15 1.12218e-15 0.151814 -3.1963e-15 -1.04473e-15)
(2.14192e-15 1.2621e-29 2.83393e-31 8.82321 1.37526e-14 -1.7444e-14 0.149863 -2.51645e-16 -3.03755e-16)
(0 -1.12651e-29 0 8.82321 -6.53702e-15 1.10625e-15 0.149863 -3.23623e-15 -1.05133e-15)
(0 -1.11036e-29 -6.93978e-31 8.58554 1.30784e-14 -1.78375e-14 0.147957 -2.18355e-16 -3.15113e-16)
(0 1.66555e-29 6.93978e-31 8.58554 -7.04528e-15 1.08751e-15 0.147957 -3.26961e-15 -1.05816e-15)
(3.0806e-15 -1.09445e-29 -2.05209e-30 8.35539 1.24212e-14 -1.8219e-14 0.146093 -2.3546e-16 -3.26176e-16)
(-3.0806e-15 1.09445e-29 2.05209e-30 8.35539 -6.33416e-15 1.12857e-15 0.146093 -3.30764e-15 -1.06559e-15)
(-4.347e-15 -7.64606e-30 -4.52918e-31 8.1324 1.10313e-14 -1.8601e-14 0.144271 -2.01452e-16 -3.38081e-16)
(0 1.61815e-29 1.34845e-30 8.1324 -5.22599e-15 1.14823e-15 0.144271 -3.34071e-15 -1.0727e-15)
(-2.18376e-15 1.48986e-29 2.45121e-30 7.91627 1.33131e-14 -1.8992e-14 0.142487 -1.92368e-16 -3.5e-16)
(0 -1.0633e-29 -1.99369e-30 7.91627 -6.36949e-15 1.06967e-15 0.142487 -3.37363e-15 -1.08032e-15)
(2.19389e-15 -4.24612e-30 -4.67687e-31 7.7067 1.51116e-14 -1.93743e-14 0.140739 -2.90615e-16 -3.62135e-16)
(-1.17256e-14 0 0 7.7067 -7.32641e-15 9.32289e-16 0.140739 -3.4265e-15 -1.08901e-15)
(2.90775e-15 -5.16521e-30 -1.93695e-30 7.5034 1.3412e-14 -1.97664e-14 0.139025 -2.64581e-16 -3.74979e-16)
(-1.17233e-14 5.16521e-30 1.93695e-30 7.5034 -6.36817e-15 8.68753e-16 0.139025 -3.47712e-15 -1.09873e-15)
(-2.21377e-15 1.9517e-29 3.6711e-30 7.30611 1.37882e-14 -2.01558e-14 0.137344 -2.35295e-16 -3.87581e-16)
(1.77102e-14 -1.01823e-29 -1.90919e-30 7.30611 -5.50019e-15 8.60904e-16 0.137344 -3.50901e-15 -1.10796e-15)
(2.22353e-15 1.08246e-29 1.38146e-30 7.11458 1.53519e-14 -2.05449e-14 0.135694 -2.86666e-16 -4.01005e-16)
(8.89411e-15 -2.00728e-29 -3.13638e-30 7.11458 -7.83156e-15 8.98644e-16 0.135694 -3.53424e-15 -1.11907e-15)
(0 4.94628e-30 0 6.92858 1.42698e-14 -2.09421e-14 0.134072 -3.0264e-16 -4.14514e-16)
(0 4.94628e-30 1.23657e-30 6.92858 -8.629e-15 9.4997e-16 0.134072 -3.61009e-15 -1.13056e-15)
(-2.24269e-15 -1.04053e-29 -2.5229e-30 6.74789 1.27296e-14 -2.13513e-14 0.132479 -2.52622e-16 -4.29033e-16)
(8.97077e-15 1.95016e-29 3.04712e-30 6.74789 -7.67764e-15 8.70306e-16 0.132479 -3.65653e-15 -1.14297e-15)
(-2.2521e-15 1.38268e-29 1.73827e-30 6.5723 1.30553e-14 -2.17688e-14 0.130911 -2.5022e-16 -4.4351e-16)
(-9.00841e-15 -4.80551e-30 0 6.5723 -9.08067e-15 8.34908e-16 0.130911 -3.70117e-15 -1.15654e-15)
(4.92789e-15 -1.84153e-29 -3.87659e-29 6.4016 1.31748e-14 -1.34507e-14 0.129369 -2.73169e-16 -1.36727e-16)
(6.37912e-15 1.42099e-29 2.36832e-30 6.4016 -7.52285e-15 8.77172e-16 0.129369 -3.75982e-15 -1.16972e-15)
(-2.27059e-15 2.75433e-29 -3.21659e-42 6.23562 1.23992e-14 6.11901e-29 0.127849 -2.62444e-16 7.88861e-31)
(9.08236e-15 -2.33437e-29 -3.50156e-30 6.23562 -6.67085e-15 8.37372e-16 0.127849 -3.78447e-15 -1.18337e-15)
(-2.27967e-15 -4.0728e-31 5.81569e-31 6.07418 1.24452e-14 1.02153e-14 0.126353 -2.48945e-16 -2.10972e-16)
(0 4.60183e-30 0 6.07418 -9.15828e-15 8.56235e-16 0.126353 -3.84008e-15 -1.1993e-15)
(-2.28864e-15 -3.51925e-31 1.70716e-30 5.91711 1.33572e-14 1.02598e-14 0.124877 -2.7207e-16 -2.16595e-16)
(0 9.07175e-30 0 5.91711 -8.41887e-15 9.39923e-16 0.124877 -3.90402e-15 -1.21433e-15)
(-2.29751e-15 -4.76965e-30 -2.78803e-30 5.76425 1.32969e-14 1.02097e-14 0.123421 -2.95242e-16 -2.19053e-16)
(9.19003e-15 1.34126e-29 3.35315e-30 5.76425 -6.62584e-15 9.44874e-16 0.123421 -3.95206e-15 -1.2296e-15)
(2.30627e-15 -1.29812e-29 -1.65875e-30 5.61545 1.28757e-14 1.01957e-14 0.121984 -2.77424e-16 -2.20765e-16)
(0 8.81357e-30 1.1017e-30 5.61545 -7.66397e-15 9.68501e-16 0.121984 -4.01204e-15 -1.2466e-15)
(2.44524e-15 -4.34363e-30 -3.25772e-30 5.47056 1.24738e-14 1.03092e-14 0.120566 -2.85347e-16 -2.24854e-16)
(0 8.68725e-30 3.25772e-30 5.47056 -8.84946e-15 1e-15 0.120566 -4.06659e-15 -1.26376e-15)
(-2.32349e-15 -1.22483e-31 5.39402e-31 5.32947 1.20515e-14 1.04007e-14 0.119165 -2.67603e-16 -2.32303e-16)
(0 8.56274e-30 1.07034e-30 5.32947 -8.29823e-15 1.06087e-15 0.119165 -4.11929e-15 -1.28041e-15)
(2.37565e-15 -2.95401e-29 -4.22001e-30 5.19203 1.33121e-14 1.03918e-14 0.11778 -2.7457e-16 -2.35587e-16)
(1.86556e-14 2.95401e-29 4.22001e-30 5.19203 -6.33632e-15 1.23653e-15 0.11778 -4.17161e-15 -1.29592e-15)
(-2.3416e-15 8.31905e-30 0 5.05812 1.43087e-14 1.02332e-14 0.11641 -3.33391e-16 -2.38698e-16)
(9.36126e-15 4.15952e-30 1.03988e-30 5.05812 -6.87943e-15 1.39336e-15 0.11641 -4.21046e-15 -1.31172e-15)
(-4.65662e-15 3.28274e-29 5.63933e-30 4.92764 1.37216e-14 1.00113e-14 0.115056 -3.29095e-16 -2.3509e-16)
(-9.39433e-15 -2.45994e-29 -4.09991e-30 4.92764 -1.00136e-14 1.5288e-15 0.115056 -4.28479e-15 -1.32966e-15)
(-8.17883e-17 1.22032e-29 1.51666e-30 4.80046 1.40277e-14 1.00729e-14 0.113715 -3.15378e-16 -2.35191e-16)
(-9.427e-15 -4.04115e-30 -1.01029e-30 4.80046 -9.43344e-15 1.65275e-15 0.113715 -4.3709e-15 -1.34626e-15)
(-2.24236e-15 1.59329e-29 9.95806e-31 4.67648 1.44171e-14 9.90781e-15 0.112388 -3.53429e-16 -2.44934e-16)
(0 -7.96645e-30 0 4.67648 -6.33683e-15 1.64982e-15 0.112388 -4.41656e-15 -1.36118e-15)
(0 1.17784e-29 9.81534e-31 4.55561 1.45027e-14 7.43288e-15 0.111074 -3.43584e-16 -2.3404e-16)
(7.28101e-15 -3.92614e-30 0 4.55561 -7.14133e-15 1.5754e-15 0.111074 -4.46679e-15 -1.37626e-15)
(-1.97639e-15 2.30121e-29 4.33787e-30 4.43774 1.48268e-14 5.15281e-15 0.109772 -3.68009e-16 -1.29821e-16)
(0 -1.93493e-29 -3.86986e-30 4.43774 -9.868e-15 1.70705e-15 0.109772 -4.54593e-15 -1.39342e-15)
(2.14732e-15 -3.43296e-29 -5.7216e-30 4.3228 1.38088e-14 4.99935e-15 0.108481 -3.69894e-16 -1.26598e-16)
(1.69606e-14 3.43296e-29 5.7216e-30 4.3228 -7.97096e-15 2.0001e-15 0.108481 -4.63645e-15 -1.40937e-15)
(2.11654e-15 -7.51946e-30 -9.39932e-31 4.21068 1.27918e-14 4.9285e-15 0.107202 -3.27018e-16 -1.25819e-16)
(1.7053e-14 1.12792e-29 1.87986e-30 4.21068 -7.48299e-15 2.1191e-15 0.107202 -4.67922e-15 -1.42454e-15)
(-4.80762e-15 8.10051e-30 9.71539e-31 4.10131 1.28865e-14 4.84578e-15 0.105934 -3.28252e-16 -1.26651e-16)
(0 0 0 4.10131 -8.989e-15 2.22419e-15 0.105934 -4.75397e-15 -1.44073e-15)
(-2.41134e-15 4.03794e-30 -4.31941e-31 3.99461 1.3586e-14 4.71226e-15 0.104676 -3.41555e-16 -1.25174e-16)
(1.92907e-14 1.09582e-29 1.82636e-30 3.99461 -7.3976e-15 2.3158e-15 0.104676 -4.84478e-15 -1.45526e-15)
(4.4456e-15 -1.48217e-29 -2.27684e-30 3.8905 1.41542e-14 4.64442e-15 0.103428 -3.75021e-16 -1.2327e-16)
(-2.02683e-15 1.08011e-29 1.80019e-30 3.8905 -8.33535e-15 2.27639e-15 0.103428 -4.90446e-15 -1.47124e-15)
(-2.42612e-15 7.55793e-30 4.71436e-31 3.78891 1.43044e-14 4.60506e-15 0.102189 -3.82175e-16 -1.25185e-16)
(0 7.09755e-30 8.87193e-31 3.78891 -8.64012e-15 2.47142e-15 0.102189 -4.98349e-15 -1.48878e-15)
(-2.43338e-15 1.09938e-29 3.09009e-30 3.68977 1.38172e-14 4.46298e-15 0.100959 -3.94218e-16 -1.2473e-16)
(9.73353e-15 -6.99582e-30 -2.62343e-30 3.68977 -6.71411e-15 2.75369e-15 0.100959 -5.05229e-15 -1.50275e-15)
(-2.44056e-15 1.77834e-29 2.1864e-30 3.59301 1.23544e-14 4.2705e-15 0.099738 -3.66351e-16 -1.20973e-16)
(9.76223e-15 -6.89555e-30 -8.61944e-31 3.59301 -5.8698e-15 2.9071e-15 0.099738 -5.10503e-15 -1.51716e-15)
(-4.89529e-15 7.98064e-30 9.16929e-31 3.49857 1.21901e-14 4.12207e-15 0.0985255 -3.23457e-16 -1.17553e-16)
(0 0 0 3.49857 -4.50599e-15 3.06334e-15 0.0985255 -5.15753e-15 -1.53202e-15)
(-6.22602e-15 1.73698e-29 2.12913e-30 3.40639 1.20213e-14 3.93063e-15 0.0973211 -3.67702e-16 -1.16043e-16)
(0 -6.69931e-30 -8.37413e-31 3.40639 -4.57981e-15 3.19753e-15 0.0973211 -5.21857e-15 -1.54507e-15)
(3.71732e-15 -6.60329e-30 -1.65082e-30 3.31641 1.14237e-14 3.82096e-15 0.0961246 -3.23156e-16 -1.0991e-16)
(-1.35636e-14 1.32066e-29 2.47623e-30 3.31641 -4.69337e-15 3.30883e-15 0.0961246 -5.29277e-15 -1.55631e-15)
(6.13245e-15 -1.69707e-29 -2.07315e-30 3.22857 1.31645e-14 3.69048e-15 0.0949357 -3.43362e-16 -1.12999e-16)
(6.20957e-15 1.30173e-29 1.62716e-30 3.22857 -5.5788e-15 3.48009e-15 0.0949357 -5.33814e-15 -1.56789e-15)
(2.47516e-15 -1.03431e-29 -2.84874e-30 3.14282 1.30226e-14 3.3904e-15 0.0937542 -4.36394e-16 -1.05351e-16)
(-9.90062e-15 6.41536e-30 2.40576e-30 3.14282 -7.89355e-15 3.71851e-15 0.0937542 -5.42945e-15 -1.57768e-15)
(-6.04159e-15 1.65779e-29 2.02104e-30 3.0591 1.26362e-14 3.1357e-15 0.09258 -3.4484e-16 -9.81606e-17)
(9.9273e-15 -6.32341e-30 0 3.0591 -6.00524e-15 3.91653e-15 0.09258 -5.52711e-15 -1.58552e-15)
(0 6.23278e-30 1.5582e-30 2.97736 1.50653e-14 2.90508e-15 0.0914127 -4.25467e-16 -9.28095e-17)
(0 0 -7.79098e-31 2.97736 -4.40813e-15 3.96834e-15 0.0914127 -5.57647e-15 -1.58938e-15)
(-3.45845e-15 1.22869e-29 1.53586e-30 2.89756 1.57103e-14 2.58346e-15 0.0902522 -5.06153e-16 -8.66802e-17)
(9.97966e-15 -6.14345e-30 0 2.89756 -5.76343e-15 4.1183e-15 0.0902522 -5.64879e-15 -1.59448e-15)
(2.50134e-15 -1.59812e-29 -2.70386e-30 2.81965 1.46105e-14 2.2286e-15 0.0890985 -4.78666e-16 -7.52165e-17)
(0 1.21108e-29 2.27077e-30 2.81965 -7.43287e-15 4.45834e-15 0.0890985 -5.70703e-15 -1.59922e-15)
(0 5.96861e-30 2.23823e-30 2.74358 1.41591e-14 2.02569e-15 0.0879512 -4.50508e-16 -6.64824e-17)
(-1.33907e-14 -5.96861e-30 -1.49215e-30 2.74358 -8.18223e-15 4.73398e-15 0.0879512 -5.78562e-15 -1.6005e-15)
(-3.31187e-15 5.88306e-30 7.35383e-31 2.66931 1.42892e-14 1.76923e-15 0.0868103 -4.63344e-16 -6.42298e-17)
(0 5.88306e-30 1.47077e-30 2.66931 -7.07941e-15 5.06469e-15 0.0868103 -5.86697e-15 -1.6001e-15)
(0 5.79874e-30 2.17453e-30 2.5968 1.28945e-14 1.46847e-15 0.0856757 -4.72288e-16 -5.15168e-17)
(-3.2644e-15 -5.79874e-30 -1.44969e-30 2.5968 -6.91956e-15 3.80821e-15 0.0856757 -5.93627e-15 -1.59566e-15)
(2.52622e-15 1.90249e-29 2.42873e-30 2.526 1.20837e-14 1.31381e-15 0.0845473 -3.83599e-16 -4.59873e-17)
(0 -2.28625e-29 -3.40892e-29 2.526 -8.05268e-15 2.64268e-29 0.0845473 -5.99887e-15 -1.61405e-15)
(2.53224e-15 7.44732e-30 9.80204e-31 2.45687 1.25528e-14 1.14384e-15 0.0834249 -4.31086e-16 -4.25277e-17)
(0 -5.63371e-30 -7.04214e-31 2.45687 -7.31785e-15 -2.24491e-16 0.0834249 -6.09071e-15 -1.65551e-15)
(-5.07638e-15 7.62132e-30 8.56518e-31 2.38938 1.21191e-14 9.85123e-16 0.0823085 -4.27138e-16 -3.56286e-17)
(1.01528e-14 0 0 2.38938 -5.4854e-15 -1.69544e-16 0.0823085 -6.17808e-15 -1.65868e-15)
(-2.54405e-15 3.80042e-30 -2.56267e-31 2.32349 1.22841e-14 9.14339e-16 0.0811981 -4.13412e-16 -3.26839e-17)
(0 5.47338e-30 1.36834e-30 2.32349 -5.76985e-15 -1.24684e-16 0.0811981 -6.24469e-15 -1.65056e-15)
(-3.03708e-15 5.39493e-30 6.74366e-31 2.25917 1.27132e-14 9.3895e-16 0.0800934 -4.51346e-16 -3.16547e-17)
(0 -5.39493e-30 -6.74366e-31 2.25917 -6.14411e-15 -7.92031e-17 0.0800934 -6.33108e-15 -1.64101e-15)
(-2.99355e-15 1.06352e-29 1.3294e-30 2.19637 1.30548e-14 1.0777e-15 0.0789946 -4.56385e-16 -3.54113e-17)
(0 -5.31761e-30 -6.64701e-31 2.19637 -5.80932e-15 -5.94776e-18 0.0789946 -6.38554e-15 -1.63053e-15)
(-2.95064e-15 5.24139e-30 2.6207e-30 2.13506 1.38264e-14 1.25657e-15 0.0779014 -4.89492e-16 -4.27053e-17)
(0 0 6.65617e-45 2.13506 -5.57669e-15 -1.22238e-29 0.0779014 -6.44654e-15 -1.61827e-15)
(0 5.16627e-30 1.93735e-30 2.07521 1.3881e-14 1.31208e-15 0.076814 -5.26872e-16 -4.96895e-17)
(1.76256e-14 0 -6.45784e-31 2.07521 -5.72417e-15 -2.17335e-16 0.076814 -6.5226e-15 -1.60804e-15)
(-5.14444e-15 7.43945e-30 8.41329e-31 2.01679 1.38202e-14 1.25212e-15 0.0757322 -5.07928e-16 -4.81248e-17)
(1.02889e-14 0 0 2.01679 -6.15082e-15 -6.46126e-17 0.0757322 -6.59145e-15 -1.59461e-15)
(2.57763e-15 -8.71768e-30 -2.30196e-30 1.95976 1.32102e-14 1.30423e-15 0.074656 -5.37677e-16 -4.65765e-17)
(0 5.01924e-30 2.50962e-30 1.95976 -6.30822e-15 1.01208e-16 0.074656 -6.68281e-15 -1.57851e-15)
(0 9.8946e-30 6.18413e-31 1.9041 1.0496e-14 1.63047e-15 0.0735854 -4.75654e-16 -5.35629e-17)
(-1.31169e-14 0 -1.25817e-30 1.9041 -4.71096e-15 0 0.0735854 -6.77965e-15 -1.56037e-15)
(-5.33337e-15 -1.09237e-29 -2.02528e-30 1.84977 8.77091e-15 1.94716e-15 0.0725204 -3.40565e-16 -7.35261e-17)
(1.03528e-14 1.95056e-29 2.4382e-30 1.84977 -2.32699e-15 -8.95922e-17 0.0725204 -6.82649e-15 -1.54518e-15)
(0 4.8065e-30 3.00406e-30 1.79675 8.86778e-15 2.08437e-15 0.071461 -3.52334e-16 -8.03289e-17)
(0 0 -1.80244e-30 1.79675 -2.92492e-15 -4.85834e-17 0.071461 -6.86548e-15 -1.52982e-15)
(2.66704e-15 -9.47523e-30 -1.1844e-30 1.74501 8.77311e-15 2.29593e-15 0.0704071 -3.58361e-16 -8.67556e-17)
(0 4.73761e-30 -4.19775e-31 1.74501 -4.75653e-15 -2.06522e-29 0.0704071 -6.93419e-15 -1.5124e-15)
(-2.60352e-15 8.34592e-30 4.03034e-31 1.69451 8.38899e-15 2.43577e-15 0.0693588 -3.54901e-16 -1.00008e-16)
(0 -4.66971e-30 0 1.69451 -4.1536e-15 -1.33565e-16 0.0693588 -7.03456e-15 -1.49682e-15)
(-2.62582e-15 -1.56817e-29 -3.80204e-30 1.64524 8.92506e-15 2.44741e-15 0.068316 -3.36943e-16 -1.00915e-16)
(2.08678e-14 2.30139e-29 4.60278e-30 1.64524 -2.99901e-15 -8.75453e-17 0.068316 -7.10185e-15 -1.48044e-15)
(0 9.07362e-30 1.1342e-30 1.59715 1.11639e-14 2.49798e-15 0.0672787 -4.10486e-16 -1.03919e-16)
(-2.554e-15 0 -5.67102e-31 1.59715 -5.43222e-15 4.60924e-17 0.0672787 -7.16268e-15 -1.46148e-15)
(-5.03479e-15 8.94358e-30 1.67692e-30 1.55024 1.1127e-14 2.60502e-15 0.066247 -5.38276e-16 -1.08196e-16)
(0 -4.47179e-30 -5.25487e-45 1.55024 -6.56866e-15 -9.28494e-30 0.066247 -7.30257e-15 -1.44075e-15)
(-7.86875e-15 -1.12055e-29 -3.79038e-30 1.50447 1.00316e-14 2.75916e-15 0.0652207 -4.19314e-16 -1.1625e-16)
(2.09833e-14 2.64462e-29 5.50962e-30 1.50447 -4.49336e-15 -1.3428e-16 0.0652207 -7.39526e-15 -1.42371e-15)
(0 -2.60671e-29 -4.88759e-30 1.45982 1.13766e-14 2.78094e-15 0.0642 -4.57616e-16 -1.24934e-16)
(2.10207e-14 2.60671e-29 4.88759e-30 1.45982 -5.75404e-15 -4.4413e-17 0.0642 -7.45312e-15 -1.40439e-15)
(-2.63218e-15 1.64118e-29 1.98801e-30 1.41627 1.19234e-14 2.78249e-15 0.0631849 -5.51715e-16 -1.21601e-16)
(0 -8.56451e-30 -1.92039e-31 1.41627 -7.71907e-15 -8.53989e-30 0.0631849 -7.58946e-15 -1.38379e-15)
(2.6367e-15 -2.88817e-29 -5.12649e-30 1.37378 1.0988e-14 2.76318e-15 0.0621753 -5.20566e-16 -1.28734e-16)