/*--------------------------------*- C++ -*----------------------------------*\
| =========                 |                                                 |
| \\      /  F ield         | OpenFOAM: The Open Source CFD Toolbox           |
|  \\    /   O peration     | Version:  2012                                  |
|   \\  /    A nd           | Website:  www.openfoam.com                      |
|    \\/     M anipulation  |                                                 |
\*---------------------------------------------------------------------------*/
FoamFile
{
    version     2.0;
    format      ascii;
    class       volTensorField;
    location    "15000";
    object      grad(U);
}
// * * * * * * * * * * * * * * * * * * * * * * * * * * * * * * * * * * * * * //

dimensions      [0 0 -1 0 0 0 0];


internalField   nonuniform List<tensor> 
1280
(
(1.8364e-17 -4.17548e-30 -3.80474e-43 32.5769 -5.77028e-12 -1.38019e-49 0.0939262 -9.78614e-15 -2.74172e-27)
(0 4.17548e-30 2.03881e-32 32.5769 -7.43056e-16 -8.28572e-17 0.0939262 -1.91932e-17 2.78511e-16)
(3.56794e-17 -4.11426e-26 2.11109e-27 32.5674 -8.18758e-13 4.5463e-14 0.284484 -4.85935e-15 2.69824e-16)
(0 -4.63979e-28 5.33535e-30 32.5674 7.88903e-31 -4.80283e-17 0.284484 3.08149e-33 9.05842e-16)
(1.97282e-16 0 3.36399e-31 32.5576 2.53515e-29 2.547e-14 0.403601 -3.15544e-30 3.53822e-16)
(-2.65877e-17 7.88096e-30 -2.4628e-31 32.5576 1.13847e-15 -6.76647e-17 0.403601 1.90584e-17 9.5933e-16)
(1.34685e-16 -1.1484e-29 4.78499e-31 32.5474 3.56204e-13 2.93881e-14 0.41533 -7.92676e-15 3.85926e-16)
(1.61804e-16 1.5312e-29 -5.98123e-31 32.5474 2.85399e-15 -1.25754e-16 0.41533 3.31476e-17 1.01535e-15)
(1.95047e-16 -1.04526e-29 3.95854e-31 32.5369 1.91862e-14 3.09795e-14 0.427393 -9.32581e-16 4.16738e-16)
(2.56825e-16 7.4449e-30 -4.64838e-31 32.5369 2.64668e-15 -1.50708e-16 0.427393 3.37321e-17 1.07418e-15)
(-9.21412e-17 -4.72245e-31 -5.55951e-32 32.5258 -2.03589e-14 3.25119e-14 0.439797 -1.35673e-16 4.50391e-16)
(3.68565e-16 3.62831e-30 0 32.5258 2.50169e-15 -1.69087e-16 0.439797 3.29418e-17 1.13596e-15)
(1.26064e-16 -8.91727e-29 -6.50926e-32 32.5137 1.18418e-30 3.40388e-14 0.452545 -3.15544e-30 4.84103e-16)
(4.83557e-16 1.0553e-29 0 32.5137 2.33155e-15 -1.86956e-16 0.452545 3.10068e-17 1.20085e-15)
(0 6.81846e-30 -4.26154e-31 32.5 -6.89983e-16 3.54533e-14 0.465633 -3.72063e-17 5.17793e-16)
(0 0 0 32.5 2.16161e-15 -2.09539e-16 0.465633 3.00357e-17 1.26892e-15)
(5.21323e-17 -2.66561e-29 1.77553e-30 32.4836 -3.70309e-15 3.67864e-14 0.479052 -7.09528e-17 5.52303e-16)
(4.90634e-16 3.31626e-29 -2.27693e-30 32.4836 1.96069e-15 -2.24009e-16 0.479052 2.69281e-17 1.3402e-15)
(4.3866e-16 -9.5849e-30 7.03364e-31 32.463 -5.24815e-15 3.8077e-14 0.492776 -8.63491e-17 5.87869e-16)
(8.49033e-16 6.49035e-30 -6.03254e-31 32.463 1.59027e-15 -2.35421e-16 0.492776 2.05773e-17 1.4148e-15)
(4.39876e-16 -6.25101e-30 9.76721e-31 32.4356 -5.83226e-15 3.93256e-14 0.506764 -9.3445e-17 6.24277e-16)
(5.38165e-16 6.31763e-30 -1.17206e-30 32.4356 1.13899e-15 -2.51544e-16 0.506764 1.44259e-17 1.49274e-15)
(5.76931e-16 1.16962e-31 6.30166e-31 32.3979 -5.83495e-15 4.05101e-14 0.520949 -9.15854e-17 6.61047e-16)
(1.11082e-15 3.10934e-30 -7.5907e-31 32.3979 9.03673e-16 -2.6409e-16 0.520949 1.42315e-17 1.57392e-15)
(8.30239e-16 -8.8488e-30 7.374e-31 32.3449 -5.37367e-15 4.15936e-14 0.535231 -8.37369e-17 6.97399e-16)
(1.24749e-15 8.9286e-30 -7.374e-31 32.3449 8.88132e-16 -2.85919e-16 0.535231 1.47714e-17 1.65819e-15)
(-3.47035e-16 -8.30271e-30 1.26965e-30 32.27 -4.75002e-15 4.25263e-14 0.549466 -7.57803e-17 7.32276e-16)
(1.38814e-15 8.68418e-30 -1.07452e-30 32.27 5.32514e-16 -3.08585e-16 0.549466 1.29267e-17 1.74509e-15)
(-3.8322e-16 3.16e-30 1.65428e-31 32.1649 -4.43319e-15 4.32428e-14 0.56346 -7.76095e-17 7.64139e-16)
(0 2.78359e-30 -6.95898e-31 32.1649 4.3327e-17 -3.18242e-16 0.56346 4.75721e-17 1.83419e-15)
(0 -8.11238e-30 1.01405e-30 32.0191 -4.19345e-15 4.36604e-14 0.576965 -7.16365e-17 7.91038e-16)
(0 8.11238e-30 -1.01405e-30 32.0191 -1.54934e-16 -3.54375e-16 0.576965 1.05974e-16 1.92456e-15)
(-4.58715e-16 3.16464e-30 -2.27098e-31 31.8203 -3.73528e-15 4.37023e-14 0.58967 -6.5196e-17 8.1127e-16)
(0 5.25386e-30 -6.56733e-31 31.8203 -5.58139e-16 -3.83262e-16 0.58967 1.72891e-16 2.0149e-15)
(1.21634e-15 -1.59244e-29 8.90437e-31 31.5551 -3.63342e-15 4.32864e-14 0.601218 -7.20084e-17 8.22289e-16)
(-7.18306e-16 1.27597e-29 -6.37984e-31 31.5551 -1.03865e-15 -3.80919e-16 0.601218 2.20183e-16 2.10433e-15)
(6.978e-16 -4.95817e-30 1.23954e-30 31.2094 -3.25281e-15 4.23382e-14 0.611212 -5.40828e-17 8.22275e-16)
(1.45564e-15 4.95817e-30 -1.23954e-30 31.2094 -1.56424e-15 -3.73815e-16 0.611212 2.28229e-16 2.19113e-15)
(-5.79656e-16 3.17375e-30 -3.09171e-31 30.7702 -2.03276e-15 4.08289e-14 0.619252 -2.68021e-17 8.10094e-16)
(2.31862e-15 4.81662e-30 -1.20416e-30 30.7702 -2.46045e-15 -3.70076e-16 0.619252 2.35617e-16 2.27343e-15)
(0 4.67912e-30 -1.75467e-30 30.2267 -1.32627e-15 3.87632e-14 0.624964 -2.78017e-17 7.85038e-16)
(-2.48733e-15 -4.67912e-30 5.8489e-31 30.2267 -2.87932e-15 -3.9927e-16 0.624964 2.38375e-16 2.34936e-15)
(0 -1.36366e-29 2.27277e-30 29.5723 -1.19719e-15 3.61863e-14 0.628049 -2.28514e-17 7.47623e-16)
(2.65908e-15 1.81822e-29 -2.27277e-30 29.5723 -2.62451e-15 -3.98392e-16 0.628049 2.38778e-16 2.41623e-15)
(-7.08313e-16 -1.96182e-44 1.25133e-30 28.8059 2.89895e-28 3.31974e-14 0.628315 3.15544e-30 6.99581e-16)
(0 8.83155e-30 -2.20789e-30 28.8059 -3.77628e-15 -3.67226e-16 0.628315 2.45473e-16 2.47312e-15)
(0 -1.71589e-29 2.14486e-30 27.9323 2.58921e-16 2.9939e-14 0.625706 -8.69227e-18 6.43768e-16)
(0 2.14486e-29 -2.68107e-30 27.9323 -4.58396e-15 -3.54746e-16 0.625706 2.3736e-16 2.51873e-15)
(-1.59288e-15 -2.32531e-29 2.71049e-30 26.9625 2.46471e-16 2.65807e-14 0.620309 -2.84771e-18 5.83814e-16)
(3.18576e-15 2.50035e-29 -3.64634e-30 26.9625 -4.47037e-15 -3.54102e-16 0.620309 2.34518e-16 2.55205e-15)
(-1.98008e-15 2.71332e-29 -5.55769e-30 25.9126 1.48162e-15 2.32946e-14 0.61234 -1.76216e-17 5.23529e-16)
(-2.22286e-15 -2.42897e-29 5.06036e-30 25.9126 -5.68558e-15 -3.35343e-16 0.61234 2.31824e-16 2.57267e-15)
(-8.84495e-16 7.10466e-30 4.58599e-31 24.8021 2.1368e-15 2.02111e-14 0.602121 -5.47637e-17 4.65407e-16)
(0 -3.93271e-30 -9.83179e-31 24.8021 -6.26686e-15 -3.23261e-16 0.602121 2.14191e-16 2.58091e-15)
(1.07536e-15 -2.67431e-29 3.82044e-30 23.6522 2.08983e-15 1.74362e-14 0.590038 -4.98078e-17 4.12812e-16)
(2.63645e-15 2.67431e-29 -3.82044e-30 23.6522 -6.11166e-15 -2.77751e-16 0.590038 2.01808e-16 2.5777e-15)
(0 -2.59796e-29 3.71138e-30 22.4837 2.0749e-15 1.50476e-14 0.576505 -5.56274e-17 3.67387e-16)
(3.88309e-15 2.59796e-29 -3.71138e-30 22.4837 -5.9317e-15 -2.30017e-16 0.576505 1.94443e-16 2.56262e-15)
(-3.04044e-15 1.35492e-29 -2.98385e-30 21.3159 2.18781e-15 1.30686e-14 0.561927 -5.19916e-17 3.30166e-16)
(4.0512e-15 0 9.01357e-31 21.3159 -5.78142e-15 -2.28576e-16 0.561927 1.81599e-16 2.52011e-15)
(-1.05391e-15 3.16573e-30 -6.07545e-31 20.1652 2.91359e-15 1.14951e-14 0.54668 -6.50649e-17 3.01504e-16)
(4.21563e-15 0 0 20.1652 -6.2174e-15 -2.33393e-16 0.54668 1.6958e-16 2.47004e-15)
(-1.094e-15 9.96419e-30 -3.17439e-30 19.0448 3.98966e-15 1.02928e-14 0.53109 -9.55875e-17 2.80802e-16)
(0 -3.40251e-30 8.50627e-31 19.0448 -5.65832e-15 -2.62842e-16 0.53109 1.48871e-16 2.41369e-15)
(-3.22435e-16 7.07733e-30 -3.0509e-30 17.9647 4.09381e-15 9.42416e-15 0.515428 -1.30749e-16 2.68128e-16)
(6.39288e-15 -1.98323e-29 4.95806e-30 17.9647 -4.5849e-15 -2.5733e-16 0.515428 1.40703e-16 2.35148e-15)
(-1.17095e-15 -6.31157e-32 -6.47648e-31 16.9321 3.03536e-15 8.84207e-15 0.499913 -1.07446e-16 2.62123e-16)
(0 6.42203e-30 -8.02753e-31 16.9321 -4.72285e-15 -2.54404e-16 0.499913 1.31241e-16 2.28523e-15)
(-1.20775e-15 1.25071e-29 -3.7781e-30 15.9511 2.63378e-15 8.48749e-15 0.484712 -7.41287e-17 2.61904e-16)
(4.83098e-15 -6.23869e-30 2.33951e-30 15.9511 -4.98652e-15 -2.39613e-16 0.484712 1.01731e-16 2.21476e-15)
(2.94933e-15 -9.20393e-30 2.18441e-30 15.0241 3.00902e-15 8.30854e-15 0.469945 -8.86958e-17 2.66215e-16)
(3.26781e-15 3.03029e-30 -3.15523e-30 15.0241 -5.21764e-15 -7.65019e-17 0.469945 6.94344e-17 2.14197e-15)
(0 -2.06065e-29 2.94379e-30 14.1516 3.79936e-15 8.26692e-15 0.455698 -1.02748e-16 2.74761e-16)
(5.11206e-15 2.06065e-29 -2.94379e-30 14.1516 -5.81643e-15 -7.41049e-17 0.455698 3.6973e-17 2.06843e-15)
(-1.31153e-15 2.60039e-29 -3.54914e-30 13.3329 6.11962e-15 8.34536e-15 0.442026 -1.46453e-16 2.87451e-16)
(-5.24613e-15 -2.2878e-29 2.85975e-30 13.3329 -7.03345e-15 -2.24279e-16 0.442026 -6.65793e-18 1.99273e-15)
(-2.19918e-16 5.23457e-30 -1.38413e-30 12.5665 7.75194e-15 8.52041e-15 0.42896 -2.67432e-16 3.03461e-16)
(-5.37607e-15 -2.77811e-30 6.94527e-31 12.5665 -7.92143e-15 -3.07332e-16 0.42896 -7.18553e-17 1.91304e-15)
(-1.37551e-15 1.9281e-29 -3.4086e-30 11.8501 6.71713e-15 8.75185e-15 0.416511 -2.70011e-16 3.21352e-16)
(5.50204e-15 -1.07952e-29 4.36481e-30 11.8501 -7.44991e-15 -1.42488e-29 0.416511 -1.32286e-16 1.83271e-15)
(-2.81211e-15 -1.68944e-30 1.18089e-30 11.1811 6.39296e-15 9.02255e-15 0.40468 -2.08449e-16 3.41736e-16)
(1.12484e-14 5.24351e-30 -3.83614e-30 11.1811 -7.20266e-15 2.67723e-17 0.40468 -1.91219e-16 1.75477e-15)
(-1.43569e-15 3.0723e-30 -7.31766e-31 10.5569 7.26181e-15 9.31468e-15 0.393455 -2.6195e-16 3.62932e-16)
(5.74276e-15 0 0 10.5569 -8.02081e-15 5.43062e-18 0.393455 -2.378e-16 1.67874e-15)
(0 4.9484e-30 -2.4742e-30 9.9746 7.81965e-15 9.61643e-15 0.382819 -2.87547e-16 3.8595e-16)
(0 0 1.2371e-30 9.9746 -8.42812e-15 -2.13316e-16 0.382819 -2.87996e-16 1.60102e-15)
(-2.98486e-15 1.08996e-29 -1.51061e-30 9.43135 8.12574e-15 9.94031e-15 0.37275 -3.21632e-16 4.10909e-16)
(5.96972e-15 0 0 9.43135 -8.65848e-15 1.05387e-29 0.37275 -3.53195e-16 1.52335e-15)
(-4.55885e-15 1.84433e-29 -5.80543e-30 8.92443 7.29451e-15 1.02895e-14 0.363223 -3.29582e-16 4.38189e-16)
(0 -9.3398e-30 3.50242e-30 8.92443 -8.31095e-15 3.10783e-17 0.363223 -4.41419e-16 1.45059e-15)
(-5.38272e-16 -7.54367e-30 2.97406e-30 8.45122 6.6731e-15 1.0624e-14 0.354211 -2.71244e-16 4.64233e-16)
(1.23686e-14 1.36097e-29 -4.53658e-30 8.45122 -7.18809e-15 -5.79748e-17 0.354211 -5.14285e-16 1.37825e-15)
(-1.57183e-15 -1.38689e-30 1.40798e-30 8.00924 7.06068e-15 1.09444e-14 0.345687 -2.95701e-16 4.92738e-16)
(0 8.81414e-30 -3.3053e-30 8.00924 -7.02813e-15 -1.16629e-16 0.345687 -5.95637e-16 1.30481e-15)
(-1.59694e-15 -1.27396e-30 2.79548e-29 7.59616 6.59122e-15 -3.85599e-29 0.337624 -3.21792e-16 -7.88861e-31)
(0 4.28126e-30 0 7.59616 -6.88545e-15 -2.7254e-16 0.337624 -6.80024e-16 1.23252e-15)
(2.34133e-15 -8.31808e-30 1.03976e-30 7.20981 6.42876e-15 -1.68289e-15 0.329996 -2.70478e-16 5.73357e-17)
(0 8.31808e-30 -1.03976e-30 7.20981 -6.22288e-15 -3.80442e-16 0.329996 -7.63766e-16 1.1555e-15)
(-6.29166e-16 1.05414e-30 -2.16451e-30 6.84816 8.34301e-15 -1.79466e-15 0.322775 -3.25716e-16 9.91294e-17)
(4.3068e-15 0 1.01008e-30 6.84816 -5.07023e-15 -3.03586e-16 0.322775 -8.60124e-16 1.08002e-15)
(-3.87823e-15 1.07951e-29 -2.82731e-30 6.50937 9.80467e-15 -1.15213e-15 0.315939 -4.71787e-16 7.15673e-17)
(1.33494e-14 -3.92496e-30 9.81241e-31 6.50937 -6.86238e-15 -1.91977e-16 0.315939 -9.04141e-16 1.00278e-15)
(0 -7.62583e-30 1.90646e-30 6.1917 9.21295e-15 -8.25243e-16 0.309462 -4.90692e-16 4.10584e-17)
(0 3.81291e-30 0 6.1917 -8.6531e-15 5.29148e-46 0.309462 -1.0232e-15 9.30683e-16)
(0 -1.85203e-29 5.5561e-30 5.89359 8.96642e-15 -3.08961e-16 0.303324 -4.39269e-16 4.23272e-17)
(1.37105e-14 1.85203e-29 -5.5561e-30 5.89359 -6.53323e-15 8.02585e-17 0.303324 -1.10309e-15 8.66179e-16)
(-1.73567e-15 -7.13726e-31 -1.75904e-30 5.61358 1.01831e-14 4.47075e-16 0.297503 -4.93942e-16 3.72683e-17)
(6.94269e-15 3.59832e-30 0 5.61358 -6.98065e-15 1.30853e-19 0.297503 -1.13714e-15 8.0417e-16)
(1.75708e-15 7.63915e-30 -1.87128e-32 5.35033 9.99765e-15 7.99852e-16 0.291979 -5.97615e-16 5.10686e-17)
(-1.96785e-15 -6.99119e-30 0 5.35033 -8.03523e-15 -2.20216e-16 0.291979 -1.27574e-15 7.422e-16)
(-5.33421e-15 1.873e-29 -5.94565e-30 5.10261 8.14177e-15 1.13961e-15 0.286734 -5.0267e-16 7.85961e-17)
(0 -1.01874e-29 3.3958e-30 5.10261 -6.65034e-15 -3.44054e-16 0.286734 -1.38179e-15 6.77889e-16)
(0 1.64943e-29 -5.77301e-30 4.86932 7.85525e-15 1.5255e-15 0.281751 -4.19649e-16 9.98335e-17)
(0 -1.64943e-29 5.77301e-30 4.86932 -6.03188e-15 -2.51247e-16 0.281751 -1.46869e-15 6.14218e-16)
(0 -9.61405e-30 2.40351e-30 4.64941 8.3608e-15 1.69008e-15 0.277014 -4.98701e-16 1.03356e-16)
(9.07954e-15 9.61405e-30 -2.40351e-30 4.64941 -6.77951e-15 -1.45344e-16 0.277014 -1.55977e-15 5.5338e-16)
(1.83871e-15 3.08249e-31 -1.48977e-30 4.44194 8.06565e-15 1.6589e-15 0.272508 -5.06333e-16 1.01873e-16)
(0 0 7.78299e-31 4.44194 -6.85595e-15 -9.77731e-17 0.272508 -1.65576e-15 4.98955e-16)
(-1.85822e-15 -2.26301e-31 -1.59583e-30 4.24604 7.68105e-15 1.85803e-15 0.268218 -4.91388e-16 1.35254e-16)
(7.43287e-15 3.02432e-30 7.56081e-31 4.24604 -5.76872e-15 -1.85915e-16 0.268218 -1.73176e-15 4.51457e-16)
(-3.30788e-15 1.17519e-29 -2.93798e-30 4.06091 7.45044e-15 1.95886e-15 0.264131 -4.86826e-16 1.21362e-16)
(0 -8.81395e-30 1.46899e-30 4.06091 -6.78183e-15 -5.15902e-16 0.264131 -1.79516e-15 4.06897e-16)
(0 -2.85411e-30 2.14058e-30 3.88582 7.94039e-15 1.68221e-15 0.260236 -4.90014e-16 1.05436e-16)
(0 2.85411e-30 -2.14058e-30 3.88582 -8.08308e-15 -4.69602e-16 0.260236 -1.92016e-15 3.59218e-16)
(3.82967e-15 -1.10457e-29 4.44755e-30 3.7201 9.75005e-15 1.72033e-15 0.256522 -5.82953e-16 1.33973e-16)
(7.65934e-15 5.54526e-30 9.13114e-32 3.7201 -7.73034e-15 1.31425e-30 0.256522 -2.05556e-15 3.28984e-16)
(0 -8.08044e-30 2.69348e-30 3.56311 1.11835e-14 2.23415e-15 0.252976 -7.74337e-16 1.86283e-16)
(1.07651e-14 8.08044e-30 -2.69348e-30 3.56311 -8.0064e-15 1.29334e-16 0.252976 -2.16397e-15 3.09907e-16)
(0 0 0 3.41429 1.06629e-14 2.58166e-15 0.24959 -8.25731e-16 1.93871e-16)
(0 5.23317e-30 -1.30829e-30 3.41429 -7.77201e-15 -1.13859e-16 0.24959 -2.33385e-15 2.9748e-16)
(0 -1.52513e-29 5.08378e-30 3.27311 1.03086e-14 2.92691e-15 0.246355 -7.42743e-16 2.50479e-16)
(7.87568e-15 1.52513e-29 3.79505e-32 3.27311 -7.55075e-15 9.98402e-31 0.246355 -2.49996e-15 2.73462e-16)
(-2.78021e-15 -1.48159e-29 4.93864e-30 3.13909 1.02853e-14 2.34046e-15 0.243262 -8.20494e-16 1.1261e-16)
(0 1.48159e-29 -6.17331e-30 3.13909 -8.88025e-15 7.26278e-18 0.243262 -2.69315e-15 2.57489e-16)
(-4.00747e-15 9.97039e-30 -5.28762e-30 3.01176 9.23477e-15 1.20902e-15 0.240302 -7.8336e-16 8.10697e-17)
(0 -4.79766e-30 3.59824e-30 3.01176 -7.39623e-15 -1.65786e-16 0.240302 -2.92083e-15 2.37546e-16)
(-2.62374e-15 0 -4.66069e-30 2.89072 7.1909e-15 6.79208e-16 0.237468 -6.98258e-16 3.04646e-17)
(8.0832e-15 0 2.33035e-30 2.89072 -3.43344e-15 -3.73806e-16 0.237468 -3.02177e-15 2.22382e-16)
(-2.03766e-15 2.58284e-30 -4.2373e-30 2.77558 5.64116e-15 2.66822e-16 0.234754 -4.8728e-16 1.47066e-17)
(-2.54884e-15 0 1.13191e-30 2.77558 -2.17081e-15 -6.19395e-16 0.234754 -3.04443e-15 2.0526e-16)
(2.05431e-15 -1.13641e-29 1.52845e-30 2.66598 6.25051e-15 3.33927e-30 0.232152 -4.72339e-16 7.88861e-31)
(0 8.79677e-30 -2.19919e-30 2.66598 -2.88398e-15 -5.77609e-16 0.232152 -3.08463e-15 1.81929e-16)
(-2.07076e-15 2.52878e-30 -4.17629e-31 2.56159 6.77893e-15 -6.40911e-17 0.229656 -6.24635e-16 2.88884e-18)
(0 4.27282e-30 -2.13641e-30 2.56159 -4.74335e-15 -4.71822e-16 0.229656 -3.14231e-15 1.59808e-16)
(0 -8.30168e-30 2.07542e-30 2.4621 7.18546e-15 -4.63675e-16 0.227261 -5.97182e-16 3.29769e-17)
(0 4.15084e-30 -3.11313e-30 2.4621 -6.56702e-15 -4.3958e-16 0.227261 -3.25785e-15 1.41637e-16)
(-2.10312e-15 -5.58741e-30 1.21841e-30 2.36724 8.26775e-15 -7.4176e-16 0.224962 -7.38443e-16 5.33739e-17)
(0 8.06469e-30 -4.03234e-30 2.36724 -6.5623e-15 -5.0325e-16 0.224962 -3.42544e-15 1.38881e-16)
(2.11903e-15 -2.43273e-30 7.79326e-31 2.27672 6.61995e-15 -1.56515e-15 0.222752 -8.42605e-16 8.88518e-17)
(8.47614e-15 0 1.74963e-32 2.27672 -5.09202e-15 6.90253e-31 0.222752 -3.56425e-15 1.26074e-16)
(1.49284e-17 -1.40769e-29 5.17512e-30 2.19031 4.97495e-15 -1.56355e-15 0.220627 -4.53658e-16 2.20866e-16)
(8.53914e-15 1.14162e-29 -5.7081e-30 2.19031 -4.18505e-15 -1.64075e-16 0.220627 -3.69052e-15 1.31037e-16)
(-2.15038e-15 9.84056e-30 -4.44303e-30 2.10777 7.35043e-15 -9.35159e-16 0.218583 -5.54945e-16 9.38223e-17)
(-2.08109e-15 0 1.84838e-30 2.10777 -4.96722e-15 -2.59114e-16 0.218583 -3.82067e-15 1.167e-16)
(-2.16582e-15 2.35583e-30 -7.29335e-31 2.02889 8.84979e-15 -7.41112e-16 0.216616 -9.83017e-16 1.01163e-16)
(8.66327e-15 0 -8.97807e-31 2.02889 -4.51744e-15 -8.38469e-17 0.216616 -3.94963e-15 8.01428e-17)
(0 6.97741e-30 -4.36088e-30 1.95347 8.68698e-15 -7.33281e-16 0.214721 -9.144e-16 5.718e-17)
(-1.96397e-15 -3.48871e-30 2.61653e-30 1.95347 -5.60334e-15 -7.66911e-16 0.214721 -4.06676e-15 4.61709e-17)
(0 1.01673e-29 -4.23639e-30 1.88133 8.72556e-15 -1.56286e-15 0.212894 -1.00516e-15 1.05441e-16)
(-8.78506e-15 -1.01673e-29 4.23639e-30 1.88133 -6.26053e-15 -1.02831e-15 0.212894 -4.28464e-15 -3.41294e-17)
(2.21128e-15 -8.85353e-30 4.7676e-30 1.81228 7.33473e-15 -1.78459e-15 0.211132 -9.77832e-16 2.5193e-16)
(8.84513e-15 6.58472e-30 7.00649e-46 1.81228 -3.12341e-15 9.07212e-32 0.211132 -4.42804e-15 0)
(2.22617e-15 -5.48034e-30 3.84381e-30 1.74617 5.80174e-15 -1.66673e-15 0.209432 -7.34887e-16 1.64374e-16)
(0 3.19837e-30 -3.19837e-30 1.74617 -2.38017e-15 1.10295e-16 0.209432 -4.44636e-15 -3.01126e-17)
(2.24093e-15 -1.46972e-29 7.6008e-30 1.68283 5.51692e-15 -1.75423e-15 0.207789 -6.61481e-16 2.38148e-16)
(8.96371e-15 1.24282e-29 -6.25541e-30 1.68283 -4.55375e-15 -2.87244e-16 0.207789 -4.61662e-15 -6.81066e-17)
(0 1.50918e-29 -6.03672e-30 1.62213 5.65643e-15 -1.43202e-15 0.206202 -7.07056e-16 1.96192e-16)
(-9.02227e-15 -1.50918e-29 6.0746e-30 1.62213 -6.64603e-15 -8.33927e-16 0.206202 -4.92803e-15 -1.45861e-16)
(-2.27009e-15 5.1428e-30 -5.83666e-31 1.56394 7.10376e-15 -1.59603e-15 0.204667 -7.3706e-16 1.68905e-16)
(0 0 -1.4661e-30 1.56394 -6.44787e-15 -8.82057e-16 0.204667 -5.15929e-15 -8.49991e-17)
(2.2845e-15 6.43894e-30 -3.72436e-30 1.50812 8.40928e-15 -2.43972e-15 0.203181 -1.13507e-15 2.51617e-16)
(9.13798e-15 -8.54546e-30 2.18953e-46 1.50812 -6.16838e-15 -4.09952e-31 0.203181 -5.27846e-15 0)
(2.29879e-15 -1.03727e-29 6.02496e-30 1.45455 6.82712e-15 -2.86822e-15 0.201742 -1.13928e-15 4.10505e-16)
(9.19518e-15 8.3015e-30 -5.69721e-30 1.45455 -7.02974e-15 6.09407e-16 0.201742 -5.48034e-15 -9.30484e-17)
(3.02661e-15 -8.06451e-30 2.01613e-30 1.40314 5.30801e-15 -3.19347e-15 0.200347 -7.55819e-16 3.87668e-16)
(0 8.06451e-30 -2.01613e-30 1.40314 -6.10545e-15 1.06592e-15 0.200347 -5.72525e-15 -7.63673e-17)
(0 -5.22286e-30 1.95857e-30 1.35376 5.57938e-15 -3.42973e-15 0.198993 -7.65483e-16 5.29568e-16)
(9.3083e-15 5.22286e-30 -1.95857e-30 1.35376 -4.60243e-15 4.02301e-15 0.198993 -5.94224e-15 -3.37257e-16)
(-4.68213e-15 6.59128e-30 -2.0183e-30 1.30632 5.89314e-15 -3.40677e-15 0.197678 -8.82126e-16 4.81506e-16)
(9.36427e-15 0 0 1.30632 -4.6203e-15 5.63467e-15 0.197678 -6.10213e-15 -2.09406e-16)
(0 4.92891e-30 -1.23223e-30 1.26074 5.86029e-15 -3.56003e-15 0.196401 -9.07811e-16 5.54076e-16)
(0 -7.39337e-30 3.69668e-30 1.26074 -4.45788e-15 5.32886e-15 0.196401 -6.19487e-15 -1.2006e-16)
(2.69552e-15 0 2.3941e-30 1.21691 5.54839e-15 -2.8422e-15 0.195158 -9.24314e-16 5.58835e-16)
(0 0 -1.19705e-30 1.21691 -4.44496e-15 4.60404e-15 0.195158 -6.33588e-15 -9.59621e-17)
(-9.52988e-15 7.71095e-30 -1.13262e-30 1.17476 4.85127e-15 -3.65931e-15 0.193947 -8.60114e-16 3.52742e-16)
(-2.16783e-14 4.65151e-30 0 1.17476 -4.52204e-15 5.52348e-15 0.193947 -6.68346e-15 -1.08952e-16)
(2.69153e-15 -7.12058e-30 3.22287e-30 1.13421 4.6136e-15 -4.73591e-15 0.192767 -7.45134e-16 8.66796e-16)
(9.58437e-15 4.51872e-30 -2.25936e-30 1.13421 -2.74107e-15 6.89307e-15 0.192767 -6.85619e-15 -1.10695e-16)
(0 0 -1.09743e-30 1.09519 4.81267e-15 -3.56243e-15 0.191616 -8.29179e-16 7.46258e-16)
(9.63851e-15 0 0 1.09519 -2.38947e-15 7.29144e-15 0.191616 -6.98076e-15 1.49562e-16)
(-4.84616e-15 7.94112e-30 -1.30953e-30 1.05762 5.18202e-15 -2.56954e-15 0.190491 -8.6047e-16 5.00558e-16)
(9.69232e-15 0 0 1.05762 -3.10636e-15 7.86892e-15 0.190491 -7.14676e-15 4.15537e-16)
(-2.43645e-15 1.79117e-30 -1.11958e-30 1.02145 5.18424e-15 -2.22653e-15 0.189391 -1.01404e-15 4.26759e-16)
(-2.33211e-15 0 0 1.02145 -2.57898e-15 8.45391e-15 0.189391 -7.26969e-15 7.87123e-16)
(2.44974e-15 -5.80362e-30 1.0507e-30 0.9866 4.49937e-15 -1.19125e-15 0.188314 -9.12626e-16 4.00961e-16)
(9.79897e-15 4.0244e-30 0 0.9866 -1.85881e-15 7.67494e-15 0.188314 -7.433e-15 1.23309e-15)
(2.46296e-15 -1.77701e-30 1.18816e-30 0.95302 3.46619e-15 -5.0779e-16 0.187258 -8.08455e-16 5.00303e-17)
(0 -3.90951e-30 1.95475e-30 0.95302 -3.02205e-15 7.08595e-15 0.187258 -7.57008e-15 1.51434e-15)
(-6.76131e-16 -2.16531e-31 1.89895e-30 0.920653 4.12219e-15 -4.31449e-16 0.186221 -5.5389e-16 2.01603e-16)
(-9.90437e-15 0 0 0.920653 -2.94718e-15 8.51935e-15 0.186221 -7.8558e-15 1.70747e-15)
(0 3.68948e-30 1.0191e-30 0.889445 6.72901e-15 1.15958e-33 0.185201 -1.12671e-15 0)
(9.95662e-15 0 0 0.889445 -6.53865e-16 9.51649e-15 0.185201 -8.0147e-15 1.92461e-15)
(0 -3.58415e-30 4.30371e-30 0.859346 5.13583e-15 -7.4278e-16 0.184197 -1.69154e-15 -2.56927e-16)
(0 0 0 0.859346 -3.89229e-16 8.83564e-15 0.184197 -8.06853e-15 2.15922e-15)
(0 0 0 0.830308 2.11153e-15 -1.81265e-15 0.183208 -4.98971e-16 -7.82719e-16)
(0 0 0 0.830308 8.96908e-17 8.73845e-15 0.183208 -8.16733e-15 2.08569e-15)
(0 0 0 0.802286 3.35832e-15 -5.03165e-16 0.18223 -4.34469e-16 -1.13337e-15)
(-3.80828e-15 0 -1.69122e-30 0.802286 7.6252e-16 9.7088e-15 0.18223 -8.21468e-15 2.34049e-15)
(0 0 0 0.775235 4.97154e-15 7.24894e-17 0.181263 -1.105e-15 -1.49287e-15)
(0 0 0 0.775235 4.55532e-16 8.35307e-15 0.181263 -8.35653e-15 1.56504e-15)
(-2.5534e-15 7.90733e-30 0 0.749116 4.55885e-15 -8.82157e-17 0.180305 -1.22793e-15 -1.73517e-15)
(0 -6.38413e-30 -7.11437e-30 0.749116 1.2773e-15 -8.28304e-30 0.180305 -8.56261e-15 3.9443e-31)
(0 0 0 0.723888 3.37265e-15 -4.24102e-16 0.179354 -9.68779e-16 -1.86239e-15)
(0 0 -1.55047e-30 0.723888 1.24656e-15 -1.81981e-15 0.179354 -8.34839e-15 4.0824e-16)
(2.57862e-15 -1.57211e-30 0 0.699514 2.58741e-15 -8.32427e-16 0.178409 -7.03123e-16 -1.82207e-15)
(0 6.02483e-30 0 0.699514 -1.14873e-15 -2.51886e-15 0.178409 -8.33239e-15 4.97249e-16)
(2.59113e-15 -1.57715e-30 0 0.67596 1.98205e-15 -7.13059e-16 0.177467 -6.19031e-16 -1.9143e-15)
(0 0 0 0.67596 -1.44398e-16 -2.94147e-15 0.177467 -8.71332e-15 7.95378e-16)
(0 0 2.84287e-30 0.65319 2.07358e-15 -2.76393e-16 0.176527 -4.21652e-16 -1.82538e-15)
(1.04143e-14 0 -2.1646e-30 0.65319 2.44594e-15 -2.61337e-15 0.176527 -8.44329e-15 7.52675e-16)
(0 0 0 0.631173 3.03555e-15 -1.39594e-15 0.175587 -7.06282e-16 -1.80131e-15)
(-2.09277e-14 0 -1.24229e-30 0.631173 1.57777e-15 -3.95374e-15 0.175587 -8.50594e-15 6.6238e-16)
(0 0 0 0.609878 3.95141e-15 -5.57964e-16 0.174645 -9.91363e-16 -1.91129e-15)
(0 0 -1.34144e-30 0.609878 4.85094e-16 -5.4615e-15 0.174645 -8.47275e-15 1.0522e-15)
(-2.64052e-15 1.39314e-30 0 0.589274 3.84927e-15 -6.67272e-16 0.1737 -1.2821e-15 -1.68659e-15)
(0 0 0 0.589274 -1.3916e-15 -3.72487e-15 0.1737 -8.36165e-15 1.32568e-16)
(2.85064e-15 0 0 0.569334 3.94503e-15 -1.33374e-15 0.172748 -9.89215e-16 -1.81492e-15)
(0 0 0 0.569334 -2.51474e-15 -2.62705e-15 0.172748 -7.55837e-15 -2.73471e-16)
(0 0 0 0.550031 4.37456e-15 -4.54354e-16 0.171789 -1.41769e-15 -1.64791e-15)
(0 0 0 0.550031 -1.04661e-15 -2.88538e-15 0.171789 -5.54326e-15 -6.66572e-16)
(-5.35376e-15 2.44753e-30 0 0.531338 3.4162e-15 -2.67511e-16 0.17082 -1.32123e-15 -1.58312e-15)
(1.07075e-14 -2.92697e-30 0 0.531338 9.75669e-16 -1.20432e-15 0.17082 -4.17176e-15 -1.18648e-15)
(0 0 2.15363e-31 0.513231 3.55517e-15 5.39171e-46 0.169838 -8.75181e-16 -1.55186e-15)
(1.07555e-14 -2.90103e-30 0 0.513231 8.8624e-16 -8.61723e-16 0.169838 -3.98671e-15 -1.27516e-15)
(-2.5388e-15 0 -1.12745e-30 0.495686 4.01421e-15 1.557e-16 0.168843 -1.49362e-15 -1.45765e-15)
(2.5388e-15 0 1.12745e-30 0.495686 1.60665e-16 5.22972e-16 0.168843 -2.37959e-15 -1.52657e-15)
(0 2.19053e-30 1.72144e-31 0.47868 2.64085e-15 -9.78975e-31 0.16783 -1.24564e-15 -1.24043e-15)
(-2.46632e-15 2.19053e-30 0 0.47868 2.17758e-15 1.47701e-15 0.16783 -1.36218e-15 -1.18684e-15)
(2.39591e-15 -2.128e-30 1.064e-30 0.462191 2.82816e-15 3.18748e-17 0.166798 -6.02532e-16 -1.43952e-15)
(0 2.128e-30 0 0.462191 2.52266e-15 7.70763e-16 0.166798 -2.07885e-15 -1.36605e-15)
(-1.91887e-15 9.50519e-31 -1.03362e-30 0.446198 4.22903e-15 2.1448e-15 0.165743 -1.45754e-15 -1.12917e-15)
(0 0 -1.03362e-30 0.446198 1.8794e-15 5.29143e-16 0.165743 -1.11667e-15 -1.19945e-15)
(-5.49562e-15 2.04705e-30 -1.00412e-30 0.430679 3.6059e-15 1.61004e-15 0.164664 -1.69789e-15 -1.01102e-15)
(8.73017e-15 -4.57072e-30 0 0.430679 1.60428e-15 -1.73609e-16 0.164664 -9.11402e-16 -1.26548e-15)
(4.39304e-15 0 9.75451e-31 0.415616 1.98931e-15 1.39426e-15 0.163557 -1.05936e-15 -1.08158e-15)
(0 -1.9509e-30 -9.75451e-31 0.415616 -1.86855e-16 -6.4331e-16 0.163557 -4.69598e-16 -1.80761e-15)
(0 0 2.85841e-31 0.400989 -3.96347e-16 -1.57772e-30 0.162418 -1.39172e-15 -1.02985e-15)
(1.10836e-14 -4.8797e-30 0 0.400989 -1.1404e-15 -1.21203e-15 0.162418 -4.5733e-16 -2.08335e-15)
(1.10739e-14 -4.70622e-30 3.68221e-30 0.38678 -3.04778e-15 -2.65642e-15 0.161245 -1.71777e-15 -1.71548e-15)
(-4.14579e-15 0 -9.20551e-31 0.38678 -7.80977e-16 -9.98327e-16 0.161245 -1.92402e-16 -2.16849e-15)
(-2.79368e-15 4.90454e-44 0 0.37297 2.18932e-29 3.6825e-18 0.160033 -5.31243e-46 -1.5257e-15)
(0 0 0 0.37297 -1.11434e-16 -2.15697e-15 0.160033 -5.21742e-16 -1.859e-15)
(-2.80496e-15 -2.11803e-30 2.05693e-31 0.359542 7.33702e-16 -9.27831e-31 0.158779 -2.61299e-16 -1.48217e-15)
(0 1.73748e-30 0 0.359542 8.3515e-16 -7.39096e-16 0.158779 -3.61094e-16 -2.41545e-15)
(0 0 0 0.346479 7.03819e-16 -1.72769e-15 0.157478 -3.91206e-16 -1.93905e-15)
(-7.60155e-15 3.37576e-30 -8.43941e-31 0.346479 1.26651e-15 1.99008e-15 0.157478 -6.47857e-16 -1.85238e-15)
(-3.69227e-15 3.27939e-30 8.19848e-31 0.333765 2.54156e-16 -7.4569e-16 0.156125 -2.49203e-16 -1.49906e-15)
(-1.13091e-14 4.97535e-30 -8.19848e-31 0.333765 1.76735e-16 1.48185e-15 0.156125 -8.74736e-16 -1.85182e-15)
(0 -8.93163e-31 0 0.321382 -1.70564e-29 1.93078e-15 0.154716 0 -1.55961e-15)
(-1.13532e-14 5.20794e-30 -1.59289e-30 0.321382 3.16914e-16 2.12869e-15 0.154716 -5.36376e-16 -1.76972e-15)
(2.84925e-15 -1.41507e-30 0 0.309315 1.75231e-15 3.48259e-15 0.153245 -5.23778e-16 -1.21196e-15)
(0 0 -1.29e-30 0.309315 9.14337e-16 -6.90253e-31 0.153245 -6.86562e-16 -1.0006e-15)
(3.90989e-15 1.27227e-30 4.33234e-31 0.297548 1.02538e-15 5.91646e-31 0.151705 -1.23123e-15 -1.02841e-15)
(0 0 0 0.297548 -4.49297e-16 -6.26534e-16 0.151705 -7.04036e-16 -1.27517e-15)
(0 0 0 0.286065 3.90355e-16 5.43537e-17 0.150091 -8.17696e-16 -8.70148e-16)
(0 0 0 0.286065 5.52203e-30 1.90589e-15 0.150091 -1.57772e-30 -1.41144e-15)
(2.88149e-15 -4.2111e-30 0 0.274851 1.2287e-15 -4.93024e-18 0.148394 -6.24813e-16 -4.72556e-16)
(1.1526e-14 -2.0908e-30 3.50325e-46 0.274851 1.65011e-15 -4.93038e-32 0.148394 -1.47336e-15 -4.60046e-16)
(-5.78408e-15 2.66029e-30 0 0.263889 3.66547e-16 5.69736e-16 0.146606 -7.10898e-16 -5.51602e-16)
(0 0 0 0.263889 6.37519e-16 -2.6464e-15 0.146606 -3.01817e-16 -6.71287e-16)
(-2.90247e-15 0 2.73238e-32 0.253164 9.56494e-30 -1.97215e-31 0.144719 -3.28247e-46 -2.46519e-32)
(2.32198e-14 -1.06523e-29 0 0.253164 5.03476e-16 1.90279e-16 0.144719 -4.12527e-16 -1.11437e-15)
(0 0 0 0.24266 8.64667e-16 -1.52876e-15 0.142722 -7.97513e-16 -1.84891e-16)
(-1.16512e-14 5.57673e-30 0 0.24266 8.22519e-17 1.96998e-15 0.142722 -1.63288e-16 -4.6243e-16)
(-2.92299e-15 1.32899e-30 0 0.23236 1.97656e-16 1.17199e-15 0.140605 -5.71615e-16 2.9856e-17)
(1.1692e-14 0 0 0.23236 -2.57556e-44 1.4297e-15 0.140605 -1.57772e-30 -9.55445e-17)
(-2.93306e-15 3.70234e-30 0 0.222248 6.28271e-17 -7.19984e-16 0.138354 -1.9717e-17 1.20676e-16)
(-5.52761e-15 0 -1.65694e-44 0.222248 1.05682e-15 3.73109e-30 0.138354 -1.7032e-15 0)
(0 0 0 0.212306 3.86859e-16 -3.30373e-15 0.135954 -5.16347e-16 -2.52474e-17)
(1.71418e-14 -5.03733e-30 0 0.212306 -8.80644e-16 -4.71406e-15 0.135954 -7.35606e-16 -3.10408e-16)
(-2.95278e-15 1.30601e-30 0 0.202515 -1.90381e-16 -1.63474e-15 0.133391 -5.22932e-16 -1.9976e-16)
(0 0 0 0.202515 -1.02142e-15 -2.31723e-15 0.133391 -6.21409e-16 -8.76809e-16)
(0 0 0 0.192858 1.54523e-16 1.13543e-15 0.130644 -9.12366e-16 -4.10136e-16)
(0 0 0 0.192858 -8.47207e-16 1.66859e-16 0.130644 -5.3743e-16 -3.43462e-16)
(0 0 0 0.183313 3.3034e-16 1.49615e-15 0.127694 -1.90328e-15 -1.72091e-16)
(-1.18876e-14 4.65934e-30 0 0.183313 4.96996e-29 2.50237e-15 0.127694 -1.57772e-30 -1.59908e-18)
(4.78238e-15 0 1.0619e-30 0.173859 1.22098e-15 1.38215e-15 0.124516 -6.47306e-16 -8.77441e-17)
(-4.78238e-15 -2.1238e-30 0 0.173859 2.04364e-15 0 0.124516 -1.26162e-15 -1.59295e-16)
(0 -2.06317e-30 -1.01864e-46 0.16447 1.5885e-15 -1.23467e-30 0.121082 -1.79177e-15 4.93038e-32)
(4.64585e-15 0 -1.03159e-30 0.16447 2.06829e-15 2.62324e-16 0.121082 -1.71005e-15 -2.29244e-16)
(0 0 0 0.155123 -4.24814e-17 -1.15292e-15 0.117359 -6.45779e-16 -2.11522e-16)
(7.48369e-15 -4.6389e-30 -1.00214e-30 0.155123 1.61334e-15 5.12715e-16 0.117359 -1.37422e-15 -3.74142e-16)
(-3.00793e-15 -1.75162e-46 0 0.145787 3.64232e-30 4.86098e-16 0.113311 1.57772e-30 2.1387e-16)
(0 0 0 0.145787 2.48725e-17 6.26505e-30 0.113311 -1.83029e-15 0)
(-6.03282e-15 2.79319e-30 0 0.136432 1.21729e-15 6.47707e-16 0.108893 -7.33712e-16 5.51523e-16)
(1.20656e-14 -6.35019e-30 0 0.136432 4.5502e-18 5.75385e-16 0.108893 -1.85324e-18 -4.5092e-16)
(-3.02464e-15 1.22354e-30 0 0.127021 1.49282e-15 1.73557e-15 0.104054 -1.25702e-15 -5.03867e-16)
(1.20985e-14 -4.3621e-30 -5.68314e-33 0.127021 1.24695e-15 0 0.104054 -1.79155e-15 -4.09513e-17)
(-3.0326e-15 -7.04942e-31 1.80777e-31 0.117515 1.54037e-15 8.93313e-16 0.0987363 -1.24631e-15 2.78346e-16)
(4.09137e-15 -3.18922e-30 0 0.117515 6.43463e-16 1.0871e-15 0.0987363 -2.77703e-16 -4.98812e-16)
(0 0 0 0.107871 1.34222e-15 1.22724e-15 0.09287 -1.41528e-15 -2.35242e-16)