/*--------------------------------*- C++ -*----------------------------------*\
| =========                 |                                                 |
| \\      /  F ield         | OpenFOAM: The Open Source CFD Toolbox           |
|  \\    /   O peration     | Version:  2012                                  |
|   \\  /    A nd           | Website:  www.openfoam.com                      |
|    \\/     M anipulation  |                                                 |
\*---------------------------------------------------------------------------*/
FoamFile
{
    version     2.0;
    format      ascii;
    class       volScalarField;
    location    "15000";
    object      Cy;
}
// * * * * * * * * * * * * * * * * * * * * * * * * * * * * * * * * * * * * * //

dimensions      [0 1 0 0 0 0 0];


internalField   nonuniform List<scalar> 
80
(
0.00201466
0.00201466
0.00738996
0.00738996
0.0163565
0.0163565
0.0313136
0.0313136
0.0562636
0.0562636
0.0978826
0.0978826
0.167307
0.167307
0.283115
0.283115
0.476293
0.476293
0.798534
0.798534
0.00201466
0.00201466
0.00738996
0.00738996
0.0163565
0.0163565
0.0313136
0.0313136
0.0562636
0.0562636
0.0978826
0.0978826
0.167307
0.167307
0.283115
0.283115
0.476293
0.476293
0.798534
0.798534
1.20147
1.20147
1.52371
1.52371
1.71689
1.71689
1.83269
1.83269
1.90212
1.90212
1.94374
1.94374
1.96869
1.96869
1.98364
1.98364
1.99261
1.99261
1.99799
1.99799
1.20147
1.20147
1.52371
1.52371
1.71689
1.71689
1.83269
1.83269
1.90212
1.90212
1.94374
1.94374
1.96869
1.96869
1.98364
1.98364
1.99261
1.99261
1.99799
1.99799
)
;

boundaryField
{
    walls
    {
        type            calculated;
        value           nonuniform List<scalar> 8(0 0 0 0 2 2 2 2);
    }
    inlet
    {
        type            cyclic;
    }
    outlet
    {
        type            cyclic;
    }
    sides
    {
        type            empty;
    }
}


// ************************************************************************* //
