/*--------------------------------*- C++ -*----------------------------------*\
| =========                 |                                                 |
| \\      /  F ield         | OpenFOAM: The Open Source CFD Toolbox           |
|  \\    /   O peration     | Version:  2012                                  |
|   \\  /    A nd           | Website:  www.openfoam.com                      |
|    \\/     M anipulation  |                                                 |
\*---------------------------------------------------------------------------*/
FoamFile
{
    version     2.0;
    format      ascii;
    class       surfaceScalarField;
    location    "15000";
    object      phi;
}
// * * * * * * * * * * * * * * * * * * * * * * * * * * * * * * * * * * * * * //

dimensions      [0 3 -1 0 0 0 0];
oriented        oriented;


internalField   nonuniform List<scalar> 
156
(
1.94427e-05
-6.83797e-18
-1.29304e-19
-2.28216e-19
-1.75394e-20
0.000117301
-5.66742e-18
-3.71812e-19
-1.02797e-18
-1.55606e-20
0.000351242
-4.49494e-18
-4.50459e-19
-1.7337e-18
-1.22727e-19
0.000735933
-3.31501e-18
-5.45666e-19
-2.11982e-18
-2.9906e-19
0.00136592
-2.55897e-18
-5.90343e-19
-2.22634e-18
-3.99626e-19
0.00242291
-2.06763e-18
-4.18889e-19
-2.03386e-18
-3.00468e-19
0.00421161
-1.7187e-18
-4.15594e-19
-1.85416e-18
-4.50362e-19
0.0072477
-9.93698e-19
4.77054e-19
-9.58388e-19
1.96263e-19
0.0123994
8.25782e-20
-1.94114e-20
5.41951e-20
-2.52327e-19
0.0211285
2.09508e-18
1.36359e-19
1.63424e-18
1.53932e-19
1.94427e-05
-1.09301e-19
-3.99482e-20
0.000117301
-3.51463e-19
-1.82764e-19
0.000351242
-6.91739e-19
-3.65644e-19
0.000735933
-1.15762e-18
-7.16694e-19
0.00136592
-1.51156e-18
-1.38503e-18
0.00242291
-1.75078e-18
-1.77492e-18
0.00421161
-1.38368e-18
-1.52073e-18
0.0072477
-9.39529e-19
-8.63048e-19
0.0123994
1.12175e-19
9.01493e-20
0.0211285
2.28875e-20
6.3397e-20
0.0211285
-6.38673e-19
-1.3465e-18
-6.41198e-19
-1.17593e-18
0.0123994
3.74438e-19
3.18674e-19
3.39053e-19
1.79691e-19
0.0072477
-7.55806e-20
-8.50915e-19
3.25832e-21
-6.43756e-19
0.00421161
4.69244e-20
-5.71194e-20
-4.98593e-21
-4.03574e-20
0.00242291
-4.47316e-20
-6.09505e-20
9.62153e-20
5.73567e-20
0.00136592
-4.41229e-20
-8.10835e-21
3.14104e-20
2.5783e-20
0.000735933
1.80156e-20
3.05277e-21
3.01803e-20
1.913e-20
0.000351242
5.80598e-21
4.84966e-22
3.05183e-20
7.27347e-21
0.000117301
3.04121e-21
-4.1848e-22
4.59883e-21
3.76587e-21
1.94427e-05
2.9237e-22
1.2005e-21
0.0211285
-5.93779e-19
-5.77407e-19
0.0123994
4.04484e-19
3.70294e-19
0.0072477
7.09958e-20
6.59124e-20
0.00421161
-1.11895e-19
-1.40209e-19
0.00242291
-8.72643e-20
-6.01661e-20
0.00136592
-9.28377e-21
5.16875e-21
0.000735933
4.25656e-20
-3.88569e-20
0.000351242
2.39383e-20
-1.11184e-20
0.000117301
-4.00656e-21
-2.23195e-21
1.94427e-05
)
;

boundaryField
{
    walls
    {
        type            calculated;
        value           uniform 0;
    }
    inlet
    {
        type            cyclic;
        value           nonuniform List<scalar> 
40
(
-1.94427e-05
-0.000117301
-0.000351242
-0.000735933
-0.00136592
-0.00242291
-0.00421161
-0.0072477
-0.0123994
-0.0211285
-1.94427e-05
-0.000117301
-0.000351242
-0.000735933
-0.00136592
-0.00242291
-0.00421161
-0.0072477
-0.0123994
-0.0211285
-0.0211285
-0.0123994
-0.0072477
-0.00421161
-0.00242291
-0.00136592
-0.000735933
-0.000351242
-0.000117301
-1.94427e-05
-0.0211285
-0.0123994
-0.0072477
-0.00421161
-0.00242291
-0.00136592
-0.000735933
-0.000351242
-0.000117301
-1.94427e-05
)
;
    }
    outlet
    {
        type            cyclic;
        value           nonuniform List<scalar> 
40
(
1.94427e-05
0.000117301
0.000351242
0.000735933
0.00136592
0.00242291
0.00421161
0.0072477
0.0123994
0.0211285
1.94427e-05
0.000117301
0.000351242
0.000735933
0.00136592
0.00242291
0.00421161
0.0072477
0.0123994
0.0211285
0.0211285
0.0123994
0.0072477
0.00421161
0.00242291
0.00136592
0.000735933
0.000351242
0.000117301
1.94427e-05
0.0211285
0.0123994
0.0072477
0.00421161
0.00242291
0.00136592
0.000735933
0.000351242
0.000117301
1.94427e-05
)
;
    }
    sides
    {
        type            empty;
        value           nonuniform List<scalar> 0();
    }
}


// ************************************************************************* //
