/*--------------------------------*- C++ -*----------------------------------*\
| =========                 |                                                 |
| \\      /  F ield         | OpenFOAM: The Open Source CFD Toolbox           |
|  \\    /   O peration     | Version:  2012                                  |
|   \\  /    A nd           | Website:  www.openfoam.com                      |
|    \\/     M anipulation  |                                                 |
\*---------------------------------------------------------------------------*/
FoamFile
{
    version     2.0;
    format      ascii;
    class       surfaceScalarField;
    location    "4000";
    object      phi;
}
// * * * * * * * * * * * * * * * * * * * * * * * * * * * * * * * * * * * * * //

dimensions      [0 3 -1 0 0 0 0];
oriented        oriented;


internalField   nonuniform List<scalar> 
5116
(
1.14548e-08
-6.30328e-18
8.56242e-23
6.91264e-23
3.70089e-23
3.50292e-08
-6.30489e-18
5.87308e-22
9.83351e-22
1.09863e-22
5.9625e-08
-6.30654e-18
5.98083e-22
1.90344e-21
1.14693e-22
8.52727e-08
-6.30816e-18
6.02425e-22
2.81969e-21
1.19711e-22
1.12003e-07
-6.30985e-18
6.09418e-22
3.73977e-21
1.24924e-22
1.39849e-07
-6.31153e-18
6.18664e-22
4.64697e-21
1.30338e-22
1.68842e-07
-6.31323e-18
6.28637e-22
5.58499e-21
1.35959e-22
1.99016e-07
-6.31495e-18
6.38848e-22
6.52711e-21
1.41793e-22
2.30405e-07
-6.31666e-18
6.49204e-22
7.43462e-21
1.47849e-22
2.63044e-07
-6.31839e-18
6.59661e-22
8.38616e-21
1.54133e-22
2.96969e-07
-6.32015e-18
6.70179e-22
9.32773e-21
1.60652e-22
3.32217e-07
-6.32193e-18
6.80731e-22
1.0344e-20
1.67417e-22
3.68825e-07
-6.32383e-18
6.91295e-22
1.13543e-20
1.74432e-22
4.06832e-07
-6.32559e-18
7.0186e-22
1.23602e-20
1.81706e-22
4.46278e-07
-6.32739e-18
7.12411e-22
1.32521e-20
1.89246e-22
4.87202e-07
-6.3293e-18
7.22938e-22
1.42736e-20
1.97064e-22
5.29646e-07
-6.33116e-18
7.33433e-22
1.52459e-20
2.05161e-22
5.73652e-07
-6.33307e-18
7.43884e-22
1.61887e-20
2.13546e-22
6.19264e-07
-6.33508e-18
7.54281e-22
1.70933e-20
2.22229e-22
6.66526e-07
-6.33712e-18
7.64617e-22
1.79948e-20
2.3122e-22
7.15484e-07
-6.33902e-18
7.74879e-22
1.88983e-20
2.40526e-22
7.66184e-07
-6.34107e-18
7.85053e-22
1.98327e-20
2.50157e-22
8.18675e-07
-6.34326e-18
7.95125e-22
2.08304e-20
2.60123e-22
8.73005e-07
-6.34508e-18
8.05091e-22
2.15694e-20
2.70433e-22
9.29224e-07
-6.34707e-18
8.14924e-22
2.25397e-20
2.81105e-22
9.87384e-07
-6.34878e-18
8.24612e-22
2.32985e-20
2.92145e-22
1.04754e-06
-6.35086e-18
8.34144e-22
2.42514e-20
3.03559e-22
1.10974e-06
-6.35278e-18
8.43507e-22
2.50809e-20
3.15355e-22
1.17404e-06
-6.35478e-18
8.52688e-22
2.6063e-20
3.27544e-22
1.24051e-06
-6.35652e-18
8.6168e-22
2.67291e-20
3.40132e-22
1.30919e-06
-6.35872e-18
8.70463e-22
2.76273e-20
3.53136e-22
1.38015e-06
-6.36084e-18
8.79027e-22
2.86324e-20
3.66551e-22
1.45346e-06
-6.36287e-18
8.87354e-22
2.94394e-20
3.80385e-22
1.52916e-06
-6.36505e-18
8.95428e-22
3.03757e-20
3.94646e-22
1.60733e-06
-6.36707e-18
9.03239e-22
3.09958e-20
4.09348e-22
1.68803e-06
-6.3692e-18
9.10757e-22
3.17792e-20
4.24503e-22
1.77134e-06
-6.37126e-18
9.17965e-22
3.23654e-20
4.40116e-22
1.85731e-06
-6.37322e-18
9.24842e-22
3.28535e-20
4.56198e-22
1.94602e-06
-6.37448e-18
9.31361e-22
3.31341e-20
4.72767e-22
2.03755e-06
-6.37583e-18
9.37483e-22
3.38216e-20
4.89829e-22
2.13197e-06
-6.37774e-18
9.43193e-22
3.37918e-20
5.0737e-22
2.22935e-06
-6.37879e-18
9.48504e-22
3.40045e-20
5.25426e-22
2.32978e-06
-6.38115e-18
9.53344e-22
3.49659e-20
5.44013e-22
2.43332e-06
-6.38381e-18
9.57737e-22
3.62734e-20
5.63096e-22
2.54008e-06
-6.38605e-18
9.61661e-22
3.7132e-20
5.82665e-22
2.65012e-06
-6.38787e-18
9.65082e-22
3.75358e-20
6.02725e-22
2.76353e-06
-6.39082e-18
9.67948e-22
3.78509e-20
6.23303e-22
2.8804e-06
-6.39286e-18
9.70279e-22
3.83145e-20
6.4439e-22
3.00082e-06
-6.39484e-18
9.72009e-22
3.82833e-20
6.6597e-22
3.12488e-06
-6.39645e-18
9.73126e-22
3.83216e-20
6.88036e-22
3.25266e-06
-6.39755e-18
9.73567e-22
3.79711e-20
7.10578e-22
3.38427e-06
-6.3985e-18
9.73305e-22
3.70661e-20
7.33604e-22
3.5198e-06
-6.4003e-18
9.72269e-22
3.76141e-20
7.5714e-22
3.65933e-06
-6.40177e-18
9.70479e-22
3.70776e-20
7.81135e-22
3.80297e-06
-6.4036e-18
9.67888e-22
3.73972e-20
8.0559e-22
3.95082e-06
-6.40624e-18
9.64484e-22
3.83856e-20
8.30459e-22
4.10296e-06
-6.40895e-18
9.60272e-22
3.77806e-20
8.55704e-22
4.25951e-06
-6.41037e-18
9.55246e-22
3.80497e-20
8.81341e-22
4.42055e-06
-6.41063e-18
9.49279e-22
3.64256e-20
9.07347e-22
4.58619e-06
-6.41096e-18
9.42285e-22
3.51683e-20
9.3383e-22
4.75652e-06
-6.41223e-18
9.34187e-22
3.40111e-20
9.60752e-22
4.93165e-06
-6.41224e-18
9.25049e-22
3.32997e-20
9.88039e-22
5.11166e-06
-6.41232e-18
9.14741e-22
3.05625e-20
1.0156e-21
5.29666e-06
-6.41373e-18
9.03317e-22
2.99446e-20
1.04345e-21
5.48675e-06
-6.41427e-18
8.90873e-22
2.96789e-20
1.07147e-21
5.68201e-06
-6.41635e-18
8.77237e-22
2.94904e-20
1.09955e-21
5.88253e-06
-6.41727e-18
8.62554e-22
2.86179e-20
1.12768e-21
6.08842e-06
-6.41899e-18
8.46765e-22
2.78523e-20
1.15578e-21
6.29976e-06
-6.42028e-18
8.29928e-22
2.75462e-20
1.18388e-21
6.51664e-06
-6.4199e-18
8.12008e-22
2.49738e-20
1.2119e-21
6.73915e-06
-6.41969e-18
7.92908e-22
2.32417e-20
1.23988e-21
6.96736e-06
-6.41897e-18
7.72643e-22
2.16863e-20
1.26769e-21
7.20137e-06
-6.41877e-18
7.51187e-22
1.97027e-20
1.29525e-21
7.44125e-06
-6.41737e-18
7.28578e-22
1.73114e-20
1.32253e-21
7.68709e-06
-6.42009e-18
7.04797e-22
1.60067e-20
1.34951e-21
7.93895e-06
-6.42088e-18
6.80276e-22
1.32042e-20
1.37605e-21
8.19691e-06
-6.42125e-18
6.54849e-22
1.16637e-20
1.40203e-21
8.46105e-06
-6.42043e-18
6.28593e-22
8.32607e-21
1.42734e-21
8.73144e-06
-6.41988e-18
6.01436e-22
3.73673e-21
1.45214e-21
9.00815e-06
-6.42015e-18
5.73487e-22
-5.57628e-22
1.47655e-21
9.29124e-06
-6.41804e-18
5.44614e-22
-3.05789e-21
1.5005e-21
9.58079e-06
-6.41833e-18
5.14711e-22
-8.30162e-21
1.52386e-21
9.87687e-06
-6.41686e-18
4.8416e-22
-9.65497e-21
1.54674e-21
1.01795e-05
-6.41479e-18
4.52776e-22
-1.43995e-20
1.56898e-21
1.04889e-05
-6.41332e-18
4.20657e-22
-1.98486e-20
1.5908e-21
1.08049e-05
-6.40794e-18
3.8796e-22
-2.65429e-20
1.61216e-21
1.11278e-05
-6.40565e-18
3.5448e-22
-3.02314e-20
1.63307e-21
1.14575e-05
-6.40468e-18
3.20441e-22
-3.33326e-20
1.65331e-21
1.17941e-05
-6.40361e-18
2.86197e-22
-3.78195e-20
1.67262e-21
1.21377e-05
-6.40208e-18
2.51917e-22
-4.1013e-20
1.69103e-21
1.24884e-05
-6.40048e-18
2.17401e-22
-4.40277e-20
1.70852e-21
1.28462e-05
-6.39676e-18
1.83007e-22
-4.88789e-20
1.72504e-21
1.32113e-05
-6.39397e-18
1.48281e-22
-5.23801e-20
1.74135e-21
1.35836e-05
-6.3908e-18
1.1362e-22
-5.65656e-20
1.75736e-21
1.39633e-05
-6.38652e-18
7.90378e-23
-6.34123e-20
1.77252e-21
1.43504e-05
-6.38135e-18
4.46485e-23
-7.27256e-20
1.78675e-21
1.4745e-05
-6.37623e-18
1.01903e-23
-7.8561e-20
1.801e-21
1.51473e-05
-6.36903e-18
-2.45701e-23
-8.47098e-20
1.81544e-21
1.55572e-05
-6.36876e-18
-5.96796e-23
-8.74859e-20
1.83009e-21
1.59749e-05
-6.36683e-18
-9.46031e-23
-9.00082e-20
1.844e-21
1.64005e-05
-6.37046e-18
-1.29408e-22
-8.86169e-20
1.85719e-21
1.6834e-05
-6.36767e-18
-1.62502e-22
-9.28809e-20
1.86959e-21
1.72755e-05
-6.36262e-18
-1.95509e-22
-9.73249e-20
1.88143e-21
1.77252e-05
-6.36169e-18
-2.28203e-22
-1.03621e-19
1.89356e-21
1.81831e-05
-6.357e-18
-2.59531e-22
-1.1222e-19
1.90669e-21
1.86494e-05
-6.35386e-18
-2.90154e-22
-1.21241e-19
1.92063e-21
1.91241e-05
-6.34806e-18
-3.19481e-22
-1.28867e-19
1.93526e-21
1.96073e-05
-6.34268e-18
-3.47553e-22
-1.38228e-19
1.94913e-21
2.00992e-05
-6.33815e-18
-3.757e-22
-1.44686e-19
1.96577e-21
2.05999e-05
-6.33476e-18
-4.04364e-22
-1.51639e-19
1.98422e-21
2.11094e-05
-6.32805e-18
-4.33152e-22
-1.61727e-19
2.00522e-21
2.16279e-05
-6.31894e-18
-4.62264e-22
-1.75111e-19
2.02988e-21
2.21556e-05
-6.3171e-18
-4.92712e-22
-1.77802e-19
2.05812e-21
2.26924e-05
-6.31086e-18
-5.22372e-22
-1.8278e-19
2.08711e-21
2.32387e-05
-6.30666e-18
-5.51845e-22
-1.88671e-19
2.1184e-21
2.37944e-05
-6.30672e-18
-5.79769e-22
-1.89692e-19
2.15016e-21
2.43597e-05
-6.29979e-18
-6.04296e-22
-1.93033e-19
2.18336e-21
2.49347e-05
-6.29341e-18
-6.27542e-22
-1.93467e-19
2.21948e-21
2.55197e-05
-6.28742e-18
-6.49565e-22
-2.02014e-19
2.25597e-21
2.61146e-05
-6.2803e-18
-6.69911e-22
-2.09046e-19
2.29631e-21
2.67197e-05
-6.26749e-18
-6.90254e-22
-2.21265e-19
2.33833e-21
2.73351e-05
-6.25753e-18
-7.12295e-22
-2.28096e-19
2.3848e-21
2.79609e-05
-6.24936e-18
-7.3706e-22
-2.37605e-19
2.43594e-21
2.85972e-05
-6.2449e-18
-7.61842e-22
-2.41486e-19
2.49128e-21
2.92444e-05
-6.23828e-18
-7.86969e-22
-2.47575e-19
2.54915e-21
2.99023e-05
-6.23095e-18
-8.12711e-22
-2.57657e-19
2.61032e-21
3.05713e-05
-6.23034e-18
-8.35046e-22
-2.58657e-19
2.6751e-21
3.12515e-05
-6.22899e-18
-8.52491e-22
-2.66545e-19
2.73691e-21
3.19431e-05
-6.2128e-18
-8.64646e-22
-2.75688e-19
2.79779e-21
3.26461e-05
-6.20483e-18
-8.76505e-22
-2.83931e-19
2.85907e-21
3.33608e-05
-6.19608e-18
-8.81787e-22
-3.00506e-19
2.91862e-21
3.40874e-05
-6.19643e-18
-8.85943e-22
-3.09298e-19
2.98527e-21
3.48259e-05
-6.18161e-18
-8.83799e-22
-3.26646e-19
3.05299e-21
3.55767e-05
-6.16433e-18
-8.81996e-22
-3.44328e-19
3.12742e-21
3.63397e-05
-6.15368e-18
-8.87713e-22
-3.55984e-19
3.20808e-21
3.71153e-05
-6.13583e-18
-8.93588e-22
-3.69511e-19
3.29191e-21
3.79036e-05
-6.12172e-18
-9.06345e-22
-3.94183e-19
3.38121e-21
3.87048e-05
-6.1048e-18
-9.22842e-22
-4.12483e-19
3.48423e-21
3.95191e-05
-6.10241e-18
-9.4595e-22
-4.17465e-19
3.59794e-21
4.03466e-05
-6.08532e-18
-9.66646e-22
-4.26685e-19
3.7114e-21
4.11876e-05
-6.0855e-18
-9.95182e-22
-4.35266e-19
3.83206e-21
4.20422e-05
-6.08184e-18
-1.01641e-21
-4.52746e-19
3.95363e-21
4.29106e-05
-6.06506e-18
-1.03287e-21
-4.58045e-19
4.0766e-21
4.37931e-05
-6.05271e-18
-1.04922e-21
-4.72857e-19
4.19406e-21
4.46898e-05
-6.04334e-18
-1.06996e-21
-4.92671e-19
4.32051e-21
4.56009e-05
-6.02745e-18
-1.09114e-21
-5.13155e-19
4.45345e-21
4.65267e-05
-6.00983e-18
-1.11836e-21
-5.24358e-19
4.58663e-21
4.74673e-05
-5.99469e-18
-1.15631e-21
-5.34697e-19
4.72176e-21
4.84231e-05
-5.97572e-18
-1.20207e-21
-5.57902e-19
4.85997e-21
4.93941e-05
-5.96281e-18
-1.25952e-21
-5.76949e-19
5.01555e-21
5.03806e-05
-5.96037e-18
-1.32001e-21
-5.98481e-19
5.17774e-21
5.13828e-05
-5.93956e-18
-1.37517e-21
-6.21871e-19
5.35716e-21
5.2401e-05
-5.92998e-18
-1.43669e-21
-6.31948e-19
5.55011e-21
5.34353e-05
-5.91642e-18
-1.49795e-21
-6.44179e-19
5.7364e-21
5.44861e-05
-5.90663e-18
-1.56166e-21
-6.59903e-19
5.92298e-21
5.55535e-05
-5.90166e-18
-1.62439e-21
-6.70247e-19
6.10765e-21
5.66378e-05
-5.88282e-18
-1.67969e-21
-6.89378e-19
6.28026e-21
5.77392e-05
-5.87251e-18
-1.73513e-21
-7.10869e-19
6.458e-21
5.8858e-05
-5.83704e-18
-1.78075e-21
-7.27546e-19
6.62969e-21
5.99943e-05
-5.80492e-18
-1.83001e-21
-7.48597e-19
6.78445e-21
6.11486e-05
-5.78072e-18
-1.87551e-21
-7.78561e-19
6.93834e-21
6.2321e-05
-5.75053e-18
-1.90891e-21
-7.95244e-19
7.09878e-21
6.35117e-05
-5.73515e-18
-1.94536e-21
-8.27425e-19
7.27044e-21
6.47211e-05
-5.71326e-18
-1.96159e-21
-8.57184e-19
7.45223e-21
6.59494e-05
-5.70284e-18
-1.98075e-21
-8.74913e-19
7.62866e-21
6.71968e-05
-5.66397e-18
-1.97546e-21
-9.17662e-19
7.79433e-21
6.84637e-05
-5.62827e-18
-1.99601e-21
-9.43622e-19
7.97194e-21
6.97504e-05
-5.60143e-18
-2.03678e-21
-9.71895e-19
8.13344e-21
7.1057e-05
-5.55873e-18
-2.08998e-21
-1.01214e-18
8.28365e-21
7.23839e-05
-5.53082e-18
-2.16324e-21
-1.05092e-18
8.4505e-21
7.37313e-05
-5.48597e-18
-2.2436e-21
-1.08731e-18
8.59152e-21
7.50997e-05
-5.44944e-18
-2.35925e-21
-1.11711e-18
8.72555e-21
7.64891e-05
-5.40519e-18
-2.51097e-21
-1.15533e-18
8.83632e-21
7.79e-05
-5.37857e-18
-2.71124e-21
-1.19511e-18
8.93418e-21
7.93327e-05
-5.36459e-18
-2.90317e-21
-1.23067e-18
9.00156e-21
8.07874e-05
-5.31435e-18
-3.08495e-21
-1.28183e-18
9.04709e-21
8.22645e-05
-5.29379e-18
-3.28012e-21
-1.32524e-18
9.08233e-21
8.37643e-05
-5.24099e-18
-3.43027e-21
-1.35694e-18
9.07689e-21
8.52871e-05
-5.21244e-18
-3.60547e-21
-1.40636e-18
9.03535e-21
8.68331e-05
-5.165e-18
-3.7906e-21
-1.44679e-18
9.00279e-21
8.84029e-05
-5.13113e-18
-3.98927e-21
-1.49688e-18
8.93123e-21
8.99966e-05
-5.0842e-18
-4.17576e-21
-1.55264e-18
8.82176e-21
9.16146e-05
-5.04952e-18
-4.40393e-21
-1.6004e-18
8.6995e-21
9.32573e-05
-5.0016e-18
-4.64464e-21
-1.63891e-18
8.56146e-21
9.49249e-05
-4.9583e-18
-4.91359e-21
-1.6991e-18
8.36958e-21
9.66179e-05
-4.91331e-18
-5.22126e-21
-1.73821e-18
8.16173e-21
9.83366e-05
-4.87262e-18
-5.54764e-21
-1.79159e-18
7.90985e-21
0.000100081
-4.83322e-18
-5.89277e-21
-1.84273e-18
7.62504e-21
0.000101852
-4.78915e-18
-6.2202e-21
-1.90062e-18
7.33798e-21
0.00010365
-4.74479e-18
-6.55295e-21
-1.95771e-18
7.03239e-21
0.000105475
-4.69467e-18
-6.88396e-21
-2.01347e-18
6.70368e-21
0.000107328
-4.66153e-18
-7.21367e-21
-2.04932e-18
6.36338e-21
0.000109208
-4.60372e-18
-7.50466e-21
-2.09776e-18
6.00123e-21
0.000111117
-4.54656e-18
-7.83146e-21
-2.15819e-18
5.61748e-21
0.000113054
-4.50371e-18
-8.18877e-21
-2.18507e-18
5.274e-21
0.000115021
-4.44857e-18
-8.59002e-21
-2.23104e-18
4.88212e-21
0.000117016
-4.39835e-18
-9.01769e-21
-2.26907e-18
4.49549e-21
0.000119042
-4.35146e-18
-9.37118e-21
-2.30447e-18
4.08047e-21
0.000121098
-4.29618e-18
-9.71681e-21
-2.35413e-18
3.63316e-21
0.000123184
-4.24896e-18
-1.0172e-20
-2.38311e-18
3.19879e-21
0.000125302
-4.15011e-18
-1.06205e-20
-2.41076e-18
2.70431e-21
0.000127451
-4.10262e-18
-1.11837e-20
-2.4568e-18
2.11964e-21
0.000129632
-4.09648e-18
-1.17034e-20
-2.46153e-18
1.543e-21
0.000131845
-4.02563e-18
-1.21929e-20
-2.47557e-18
8.77402e-22
0.000134091
-3.96176e-18
-1.27654e-20
-2.51723e-18
2.26243e-22
0.00013637
-3.91647e-18
-1.34817e-20
-2.52906e-18
-3.52343e-22
0.000138683
-3.86136e-18
-1.40977e-20
-2.55076e-18
-9.39634e-22
0.00014103
-3.80323e-18
-1.45165e-20
-2.5797e-18
-1.51144e-21
0.000143411
-3.75335e-18
-1.48767e-20
-2.59319e-18
-2.03259e-21
0.000145828
-3.71561e-18
-1.51733e-20
-2.60991e-18
-2.56796e-21
0.000148279
-3.66903e-18
-1.53998e-20
-2.64203e-18
-3.09353e-21
0.000150767
-3.61291e-18
-1.56192e-20
-2.64864e-18
-3.67358e-21
0.000153291
-3.55662e-18
-1.59228e-20
-2.65385e-18
-4.32922e-21
0.000155851
-3.52315e-18
-1.63504e-20
-2.66403e-18
-5.00971e-21
0.000158449
-3.47614e-18
-1.67054e-20
-2.62735e-18
-5.75617e-21
0.000161085
-3.42356e-18
-1.70361e-20
-2.66083e-18
-6.83179e-21
0.000163759
-3.38177e-18
-1.74759e-20
-2.68699e-18
-7.71031e-21
0.000166471
-3.3337e-18
-1.80589e-20
-2.71818e-18
-8.41744e-21
0.000169223
-3.31209e-18
-1.8753e-20
-2.73248e-18
-8.94187e-21
0.000172014
-3.24895e-18
-1.93205e-20
-2.77482e-18
-9.2675e-21
0.000174846
-3.26206e-18
-1.99915e-20
-2.73312e-18
-9.33544e-21
0.000177718
-3.21171e-18
-2.03023e-20
-2.74158e-18
-9.73444e-21
0.000180631
-3.20295e-18
-2.0663e-20
-2.7144e-18
-9.78023e-21
0.000183586
-3.14879e-18
-2.09704e-20
-2.71434e-18
-9.76343e-21
0.000186583
-3.13393e-18
-2.16814e-20
-2.74645e-18
-9.92397e-21
0.000189623
-3.10712e-18
-2.23336e-20
-2.75247e-18
-1.01995e-20
0.000192705
-3.0798e-18
-2.26824e-20
-2.76222e-18
-1.03659e-20
0.000195832
-3.10399e-18
-2.33451e-20
-2.77749e-18
-1.05721e-20
0.000199002
-3.08183e-18
-2.37377e-20
-2.76409e-18
-1.08022e-20
0.000202218
-3.0815e-18
-2.38235e-20
-2.78303e-18
-1.15676e-20
0.000205478
-3.05382e-18
-2.39143e-20
-2.7895e-18
-1.21513e-20
0.000208784
-3.05994e-18
-2.41488e-20
-2.78411e-18
-1.26561e-20
0.000212136
-3.04674e-18
-2.43e-20
-2.79373e-18
-1.32501e-20
0.000215535
-3.00853e-18
-2.43183e-20
-2.78063e-18
-1.36318e-20
0.000218981
-3.03171e-18
-2.44015e-20
-2.74421e-18
-1.35355e-20
0.000222475
-2.9974e-18
-2.42176e-20
-2.66936e-18
-1.3415e-20
0.000226018
-2.96493e-18
-2.41737e-20
-2.68468e-18
-1.38072e-20
0.000229609
-2.95126e-18
-2.41481e-20
-2.66037e-18
-1.42404e-20
0.000233249
-2.99383e-18
-2.45097e-20
-2.58971e-18
-1.51268e-20
0.000236939
-2.96032e-18
-2.47265e-20
-2.56423e-18
-1.58746e-20
0.00024068
-2.95996e-18
-2.52674e-20
-2.54457e-18
-1.67001e-20
0.000244471
-2.96554e-18
-2.56404e-20
-2.54036e-18
-1.7867e-20
0.000248315
-2.92675e-18
-2.56732e-20
-2.5783e-18
-1.94638e-20
0.00025221
-2.88245e-18
-2.59149e-20
-2.62498e-18
-2.1128e-20
0.000256157
-2.83221e-18
-2.64137e-20
-2.61181e-18
-2.19812e-20
0.000260158
-2.83059e-18
-2.7087e-20
-2.664e-18
-2.25061e-20
0.000264212
-2.77463e-18
-2.66402e-20
-2.60577e-18
-2.26784e-20
0.000268321
-2.7049e-18
-2.62016e-20
-2.62361e-18
-2.33925e-20
0.000272484
-2.67249e-18
-2.56821e-20
-2.52945e-18
-2.30965e-20
0.000276703
-2.63237e-18
-2.47584e-20
-2.54455e-18
-2.34454e-20
0.000280978
-2.63684e-18
-2.34706e-20
-2.54678e-18
-2.34807e-20
0.000285309
-2.56777e-18
-2.20502e-20
-2.5451e-18
-2.30153e-20
0.000289698
-2.51507e-18
-2.10249e-20
-2.51304e-18
-2.1822e-20
0.000294144
-2.43213e-18
-2.07497e-20
-2.50102e-18
-2.08882e-20
0.000298649
-2.42683e-18
-2.11641e-20
-2.44471e-18
-2.02693e-20
0.000303213
-2.42634e-18
-2.08637e-20
-2.46083e-18
-2.01668e-20
0.000307837
-2.3916e-18
-2.19081e-20
-2.46638e-18
-1.93794e-20
0.000312522
-2.34098e-18
-2.31278e-20
-2.43194e-18
-1.85361e-20
0.000317268
-2.29895e-18
-2.40051e-20
-2.37691e-18
-1.77082e-20
0.000322076
-2.4155e-18
-2.55467e-20
-2.29113e-18
-1.73877e-20
0.000326948
-2.35611e-18
-2.51877e-20
-2.31938e-18
-1.76346e-20
0.000331883
-2.31583e-18
-2.57972e-20
-2.29742e-18
-1.72508e-20
0.000336883
-2.33046e-18
-2.67196e-20
-2.28609e-18
-1.73647e-20
0.000341949
-2.34761e-18
-2.62414e-20
-2.2299e-18
-1.75455e-20
0.000347082
-2.3293e-18
-2.51407e-20
-2.24649e-18
-1.86586e-20
0.000352283
-2.25751e-18
-2.32593e-20
-2.1533e-18
-2.03211e-20
0.000357553
-2.1293e-18
-2.16204e-20
-2.24259e-18
-2.32474e-20
0.000362893
-2.11145e-18
-2.16287e-20
-2.22787e-18
-2.43866e-20
0.000368305
-2.09983e-18
-2.06785e-20
-2.15073e-18
-2.47243e-20
0.000373789
-2.14841e-18
-1.88273e-20
-2.08767e-18
-2.70333e-20
0.000379348
-2.12983e-18
-1.67607e-20
-2.07497e-18
-2.90881e-20
0.000384981
-2.11146e-18
-1.55647e-20
-2.07741e-18
-3.11241e-20
0.000390691
-2.1135e-18
-1.62782e-20
-2.11892e-18
-3.15083e-20
0.00039648
-2.07094e-18
-1.71764e-20
-2.09891e-18
-3.13196e-20
0.000402347
-2.05488e-18
-1.72579e-20
-2.08196e-18
-3.07066e-20
0.000408296
-2.03699e-18
-1.76387e-20
-2.08518e-18
-2.95823e-20
0.000414327
-2.0073e-18
-1.8953e-20
-2.11984e-18
-2.8437e-20
0.000420441
-2.04442e-18
-2.17194e-20
-2.08466e-18
-2.79031e-20
0.000426641
-2.04015e-18
-2.27637e-20
-2.11117e-18
-2.8385e-20
0.000432928
-2.12602e-18
-2.14787e-20
-2.07353e-18
-2.75396e-20
0.000439303
-2.08919e-18
-1.96546e-20
-2.00521e-18
-2.52532e-20
0.000445769
-2.01561e-18
-1.7631e-20
-2.05804e-18
-2.48785e-20
0.000452325
-1.99581e-18
-1.73556e-20
-2.06368e-18
-2.50789e-20
0.000458975
-2.10432e-18
-2.03431e-20
-1.95481e-18
-2.16406e-20
0.00046572
-2.07483e-18
-1.93611e-20
-1.96188e-18
-2.02694e-20
0.00047256
-2.03308e-18
-1.86462e-20
-1.99031e-18
-1.79649e-20
0.000479499
-2.06776e-18
-1.68816e-20
-2.04402e-18
-1.9451e-20
0.000486537
-2.01893e-18
-1.36608e-20
-2.05862e-18
-1.95935e-20
0.000493676
-1.98816e-18
-9.90883e-21
-2.0733e-18
-1.81663e-20
0.000500918
-1.94533e-18
-4.97183e-21
-1.99101e-18
-1.85269e-20
0.000508264
-1.84868e-18
-5.83956e-21
-1.90797e-18
-2.04414e-20
0.000515716
-1.80358e-18
-6.09657e-21
-1.84433e-18
-2.34308e-20
0.000523276
-1.77815e-18
-1.00668e-20
-1.71675e-18
-2.18093e-20
0.000530945
-1.75088e-18
-1.11024e-20
-1.69812e-18
-2.14758e-20
0.000538725
-1.65887e-18
-1.0931e-20
-1.66819e-18
-1.97618e-20
0.000546617
-1.58314e-18
-1.13843e-20
-1.60901e-18
-1.71866e-20
0.000554624
-1.55267e-18
-1.23386e-20
-1.42461e-18
-1.78561e-20
0.000562747
-1.45531e-18
-1.20222e-20
-1.50415e-18
-2.06234e-20
0.000570988
-1.40141e-18
-7.56911e-21
-1.41612e-18
-1.38653e-20
0.000579348
-1.37185e-18
-9.61419e-21
-1.4059e-18
-1.47472e-20
0.000587829
-1.32718e-18
-1.27219e-20
-1.35137e-18
-1.759e-20
0.000596433
-1.40283e-18
-9.7711e-21
-1.39739e-18
-1.63547e-20
0.000605162
-1.33673e-18
-3.53366e-22
-1.45902e-18
-1.35194e-20
0.000614017
-1.23211e-18
3.48456e-21
-1.32146e-18
-9.92617e-21
0.000623
-1.39137e-18
-2.39462e-21
-1.3276e-18
-1.4547e-20
0.000632113
-1.35017e-18
-8.57624e-22
-1.28363e-18
-1.63414e-20
0.000641358
-1.26691e-18
5.75713e-22
-1.3281e-18
-2.00193e-20
0.000650735
-1.21125e-18
-1.82085e-21
-1.17715e-18
-1.58744e-20
0.000660248
-1.12651e-18
-4.19169e-21
-1.05031e-18
-2.10785e-20
0.000669897
-1.06642e-18
-1.25829e-20
-1.10968e-18
-2.24933e-20
0.000679685
-9.65092e-19
-1.89812e-20
-1.06523e-18
-2.60682e-20
0.000689613
-1.0779e-18
-2.94753e-20
-1.05135e-18
-2.92e-20
0.000699682
-1.01611e-18
-3.12941e-20
-1.01506e-18
-2.68215e-20
0.000709895
-8.86885e-19
-3.21297e-20
-9.54506e-19
-1.98119e-20
0.000720253
-9.34508e-19
-3.15898e-20
-9.17894e-19
-1.58332e-20
0.000730757
-9.12711e-19
-2.51329e-20
-9.71817e-19
-2.45745e-20
0.000741409
-9.74716e-19
-1.30613e-20
-9.56241e-19
-1.75373e-20
0.000752211
-8.5918e-19
-3.32889e-21
-8.26972e-19
-1.52893e-20
0.000763164
-8.46602e-19
-3.08284e-21
-8.14265e-19
-1.82324e-20
0.000774269
-6.23822e-21
-9.11447e-19
-2.87342e-20
-9.03494e-19
1.14548e-08
7.96519e-23
4.3617e-23
3.50292e-08
6.08867e-22
2.07378e-22
5.9625e-08
1.14021e-21
3.82997e-22
8.52727e-08
1.64349e-21
5.82026e-22
1.12003e-07
2.17557e-21
7.7347e-22
1.39849e-07
2.73213e-21
9.90205e-22
1.68842e-07
3.26695e-21
1.21668e-21
1.99016e-07
3.85297e-21
1.45956e-21
2.30405e-07
4.42309e-21
1.71164e-21
2.63044e-07
4.95102e-21
2.00554e-21
2.96969e-07
5.51172e-21
2.35758e-21
3.32217e-07
6.05475e-21
2.64227e-21
3.68825e-07
6.58899e-21
2.93955e-21
4.06832e-07
7.15637e-21
3.21013e-21
4.46278e-07
7.75681e-21
3.57086e-21
4.87202e-07
8.38937e-21
3.74811e-21
5.29646e-07
9.0953e-21
3.96844e-21
5.73652e-07
9.71872e-21
4.22194e-21
6.19264e-07
1.05832e-20
4.62235e-21
6.66526e-07
1.13102e-20
4.88622e-21
7.15484e-07
1.2163e-20
5.19734e-21
7.66184e-07
1.27529e-20
5.50282e-21
8.18675e-07
1.36208e-20
5.85977e-21
8.73005e-07
1.41178e-20
6.48622e-21
9.29224e-07
1.45036e-20
7.21915e-21
9.87384e-07
1.53158e-20
7.47651e-21
1.04754e-06
1.57581e-20
7.73344e-21
1.10974e-06
1.65283e-20
8.02543e-21
1.17404e-06
1.74797e-20
8.34796e-21
1.24051e-06
1.84149e-20
8.80682e-21
1.30919e-06
1.93022e-20
9.0233e-21
1.38015e-06
2.00846e-20
9.42629e-21
1.45346e-06
2.09702e-20
9.3593e-21
1.52916e-06
2.21263e-20
9.83432e-21
1.60733e-06
2.29507e-20
1.06431e-20
1.68803e-06
2.38819e-20
1.15251e-20
1.77134e-06
2.49443e-20
1.19105e-20
1.85731e-06
2.58231e-20
1.23453e-20
1.94602e-06
2.67185e-20
1.2795e-20
2.03755e-06
2.76758e-20
1.3248e-20
2.13197e-06
2.9254e-20
1.36326e-20
2.22935e-06
2.97726e-20
1.43179e-20
2.32978e-06
3.06982e-20
1.47059e-20
2.43332e-06
3.15101e-20
1.5342e-20
2.54008e-06
3.25503e-20
1.57357e-20
2.65012e-06
3.31505e-20
1.69184e-20
2.76353e-06
3.3855e-20
1.78089e-20
2.8804e-06
3.44099e-20
1.8641e-20
3.00082e-06
3.54212e-20
1.93559e-20
3.12488e-06
3.55243e-20
2.01111e-20
3.25266e-06
3.64834e-20
2.08411e-20
3.38427e-06
3.6878e-20
2.15651e-20
3.5198e-06
3.78688e-20
2.24004e-20
3.65933e-06
3.86948e-20
2.34816e-20
3.80297e-06
3.96121e-20
2.51086e-20
3.95082e-06
4.01921e-20
2.64025e-20
4.10296e-06
4.11988e-20
2.72295e-20
4.25951e-06
4.19355e-20
2.82566e-20
4.42055e-06
4.3332e-20
2.93743e-20
4.58619e-06
4.37177e-20
3.04249e-20
4.75652e-06
4.52132e-20
3.11499e-20
4.93165e-06
4.57139e-20
3.25993e-20
5.11166e-06
4.72144e-20
3.35693e-20
5.29666e-06
4.88795e-20
3.45548e-20
5.48675e-06
4.8299e-20
3.56567e-20
5.68201e-06
4.87849e-20
3.77557e-20
5.88253e-06
4.92502e-20
3.90455e-20
6.08842e-06
5.02335e-20
4.09357e-20
6.29976e-06
5.1046e-20
4.16542e-20
6.51664e-06
5.19101e-20
4.27114e-20
6.73915e-06
5.28915e-20
4.42158e-20
6.96736e-06
5.37185e-20
4.5704e-20
7.20137e-06
5.42266e-20
4.69428e-20
7.44125e-06
5.55744e-20
4.78381e-20
7.68709e-06
5.80432e-20
4.95476e-20
7.93895e-06
5.85259e-20
4.98633e-20
8.19691e-06
5.9795e-20
5.15151e-20
8.46105e-06
6.13173e-20
5.36902e-20
8.73144e-06
6.45266e-20
5.57794e-20
9.00815e-06
6.53424e-20
5.68035e-20
9.29124e-06
6.63124e-20
5.85771e-20
9.58079e-06
6.86602e-20
5.89164e-20
9.87687e-06
6.98157e-20
6.03467e-20
1.01795e-05
7.06003e-20
6.145e-20
1.04889e-05
7.10199e-20
6.30613e-20
1.08049e-05
7.29176e-20
6.50233e-20
1.11278e-05
7.27509e-20
6.84815e-20
1.14575e-05
7.29758e-20
7.01656e-20
1.17941e-05
7.39458e-20
7.08118e-20
1.21377e-05
7.24989e-20
7.3637e-20
1.24884e-05
7.34913e-20
7.5903e-20
1.28462e-05
7.23128e-20
7.91175e-20
1.32113e-05
7.2374e-20
8.2181e-20
1.35836e-05
7.18592e-20
8.30508e-20
1.39633e-05
7.29464e-20
8.14901e-20
1.43504e-05
7.20579e-20
8.24813e-20
1.4745e-05
6.91717e-20
8.65841e-20
1.51473e-05
6.88417e-20
9.13894e-20
1.55572e-05
6.65917e-20
9.42479e-20
1.59749e-05
6.50379e-20
9.52217e-20
1.64005e-05
6.63023e-20
9.87877e-20
1.6834e-05
6.21523e-20
9.93149e-20
1.72755e-05
6.01669e-20
1.03442e-19
1.77252e-05
5.96114e-20
1.12651e-19
1.81831e-05
6.01541e-20
1.1888e-19
1.86494e-05
6.27673e-20
1.21286e-19
1.91241e-05
6.92757e-20
1.17727e-19
1.96073e-05
7.05561e-20
1.27645e-19
2.00992e-05
6.91726e-20
1.29863e-19
2.05999e-05
6.83855e-20
1.3288e-19
2.11094e-05
6.99817e-20
1.3539e-19
2.16279e-05
6.8948e-20
1.36284e-19
2.21556e-05
6.95229e-20
1.36205e-19
2.26924e-05
6.96094e-20
1.39123e-19
2.32387e-05
7.02575e-20
1.34179e-19
2.37944e-05
7.28913e-20
1.39652e-19
2.43597e-05
7.49276e-20
1.47173e-19
2.49347e-05
7.64065e-20
1.44324e-19
2.55197e-05
7.99232e-20
1.4855e-19
2.61146e-05
8.08902e-20
1.47905e-19
2.67197e-05
8.30258e-20
1.4933e-19
2.73351e-05
7.81705e-20
1.58852e-19
2.79609e-05
7.96587e-20
1.69545e-19
2.85972e-05
7.53812e-20
1.77657e-19
2.92444e-05
7.17356e-20
1.84687e-19
2.99023e-05
7.67039e-20
1.94044e-19
3.05713e-05
7.24679e-20
1.97216e-19
3.12515e-05
6.873e-20
2.00702e-19
3.19431e-05
6.66111e-20
2.01907e-19
3.26461e-05
7.66649e-20
1.95549e-19
3.33608e-05
7.50289e-20
2.04843e-19
3.40874e-05
7.91516e-20
2.02557e-19
3.48259e-05
8.13367e-20
2.04081e-19
3.55767e-05
7.11518e-20
2.00422e-19
3.63397e-05
7.6003e-20
1.98137e-19
3.71153e-05
7.55465e-20
2.02374e-19
3.79036e-05
8.37337e-20
2.08225e-19
3.87048e-05
8.79712e-20
2.09058e-19
3.95191e-05
9.33076e-20
2.05734e-19
4.03466e-05
8.80227e-20
2.15327e-19
4.11876e-05
9.46927e-20
2.09427e-19
4.20422e-05
9.63266e-20
2.06504e-19
4.29106e-05
1.00727e-19
2.04741e-19
4.37931e-05
9.183e-20
2.14215e-19
4.46898e-05
8.98299e-20
2.19443e-19
4.56009e-05
8.85118e-20
2.15567e-19
4.65267e-05
8.70837e-20
2.19854e-19
4.74673e-05
9.11811e-20
2.21614e-19
4.84231e-05
8.84252e-20
2.29793e-19
4.93941e-05
9.1406e-20
2.29414e-19
5.03806e-05
9.72677e-20
2.40307e-19
5.13828e-05
1.00054e-19
2.44355e-19
5.2401e-05
9.77358e-20
2.37417e-19
5.34353e-05
9.68035e-20
2.36311e-19
5.44861e-05
9.80786e-20
2.36873e-19
5.55535e-05
9.93317e-20
2.3739e-19
5.66378e-05
1.01013e-19
2.50909e-19
5.77392e-05
1.05557e-19
2.52894e-19
5.8858e-05
1.12498e-19
2.58141e-19
5.99943e-05
1.17232e-19
2.73927e-19
6.11486e-05
1.20443e-19
2.73457e-19
6.2321e-05
1.16309e-19
2.93513e-19
6.35117e-05
1.34085e-19
3.05734e-19
6.47211e-05
1.42238e-19
3.05578e-19
6.59494e-05
1.6475e-19
3.12099e-19
6.71968e-05
1.60179e-19
3.16698e-19
6.84637e-05
1.62336e-19
3.14987e-19
6.97504e-05
1.63178e-19
3.17953e-19
7.1057e-05
1.69525e-19
3.4012e-19
7.23839e-05
1.69697e-19
3.30846e-19
7.37313e-05
1.60011e-19
3.31876e-19
7.50997e-05
1.4544e-19
3.26914e-19
7.64891e-05
1.30116e-19
3.38749e-19
7.79e-05
1.39878e-19
3.44035e-19
7.93327e-05
1.38227e-19
3.52449e-19
8.07874e-05
1.50683e-19
3.601e-19
8.22645e-05
1.69452e-19
3.69768e-19
8.37643e-05
1.72565e-19
3.76334e-19
8.52871e-05
1.69971e-19
3.88524e-19
8.68331e-05
1.84712e-19
3.94494e-19
8.84029e-05
2.03291e-19
3.93135e-19
8.99966e-05
2.06601e-19
3.92014e-19
9.16146e-05
2.15667e-19
3.90097e-19
9.32573e-05
2.21764e-19
3.8619e-19
9.49249e-05
2.08923e-19
3.9381e-19
9.66179e-05
2.01755e-19
3.96801e-19
9.83366e-05
1.89595e-19
3.90261e-19
0.000100081
1.9457e-19
4.0899e-19
0.000101852
1.90375e-19
4.10505e-19
0.00010365
1.89154e-19
4.04156e-19
0.000105475
1.93058e-19
4.0406e-19
0.000107328
1.94477e-19
4.13275e-19
0.000109208
1.84596e-19
3.98928e-19
0.000111117
1.8518e-19
4.02305e-19
0.000113054
1.7032e-19
4.11045e-19
0.000115021
1.73101e-19
4.22531e-19
0.000117016
2.06097e-19
4.26109e-19
0.000119042
2.11296e-19
4.38266e-19
0.000121098
1.91948e-19
4.44053e-19
0.000123184
2.12101e-19
4.36872e-19
0.000125302
2.34106e-19
4.22195e-19
0.000127451
2.66451e-19
4.16675e-19
0.000129632
2.51923e-19
4.09865e-19
0.000131845
2.52202e-19
4.19728e-19
0.000134091
2.18355e-19
4.20125e-19
0.00013637
2.34591e-19
4.18608e-19
0.000138683
2.81337e-19
4.0303e-19
0.00014103
2.96306e-19
3.95692e-19
0.000143411
3.08505e-19
3.80707e-19
0.000145828
3.03288e-19
3.65442e-19
0.000148279
2.90408e-19
3.41557e-19
0.000150767
2.61963e-19
3.33425e-19
0.000153291
2.23437e-19
3.16448e-19
0.000155851
2.25261e-19
2.91377e-19
0.000158449
2.34891e-19
2.56353e-19
0.000161085
2.17349e-19
2.76952e-19
0.000163759
1.87186e-19
2.88871e-19
0.000166471
1.59533e-19
2.7787e-19
0.000169223
1.44899e-19
2.70913e-19
0.000172014
1.32571e-19
2.73016e-19
0.000174846
1.48307e-19
2.55729e-19
0.000177718
1.46272e-19
3.02012e-19
0.000180631
1.32988e-19
3.3058e-19
0.000183586
1.03936e-19
3.15711e-19
0.000186583
1.32065e-19
2.60464e-19
0.000189623
1.98994e-19
2.42464e-19
0.000192705
1.55767e-19
2.15668e-19
0.000195832
1.57999e-19
2.1023e-19
0.000199002
2.02108e-19
1.33446e-19
0.000202218
1.71669e-19
1.23994e-19
0.000205478
1.42811e-19
1.08333e-19
0.000208784
1.12574e-19
8.13643e-20
0.000212136
1.11309e-19
7.67567e-20
0.000215535
1.05568e-19
1.09975e-19
0.000218981
8.95991e-20
9.21245e-20
0.000222475
8.25036e-20
7.0069e-20
0.000226018
9.27939e-20
5.01974e-20
0.000229609
3.3873e-20
9.36491e-21
0.000233249
-2.98208e-20
4.96103e-20
0.000236939
-7.84837e-20
2.13573e-20
0.00024068
-1.00078e-19
3.31671e-21
0.000244471
-1.18495e-19
-5.05714e-20
0.000248315
-1.44883e-19
-1.17135e-19
0.00025221
-1.69255e-19
-1.1451e-19
0.000256157
-1.94386e-19
-1.17229e-19
0.000260158
-1.44237e-19
-1.29424e-19
0.000264212
-1.66466e-19
-1.34625e-19
0.000268321
-1.69704e-19
-1.36241e-19
0.000272484
-1.75503e-19
-1.72822e-19
0.000276703
-1.61084e-19
-2.16666e-19
0.000280978
-1.82979e-19
-2.37488e-19
0.000285309
-1.74812e-19
-2.16917e-19
0.000289698
-2.19155e-19
-2.39466e-19
0.000294144
-2.08637e-19
-2.6698e-19
0.000298649
-1.57438e-19
-2.2744e-19
0.000303213