/*--------------------------------*- C++ -*----------------------------------*\
| =========                 |                                                 |
| \\      /  F ield         | OpenFOAM: The Open Source CFD Toolbox           |
|  \\    /   O peration     | Version:  2012                                  |
|   \\  /    A nd           | Website:  www.openfoam.com                      |
|    \\/     M anipulation  |                                                 |
\*---------------------------------------------------------------------------*/
FoamFile
{
    version     2.0;
    format      ascii;
    class       volTensorField;
    location    "13800";
    object      grad(U);
}
// * * * * * * * * * * * * * * * * * * * * * * * * * * * * * * * * * * * * * //

dimensions      [0 0 -1 0 0 0 0];


internalField   nonuniform List<tensor> 
2560
(
(0 -7.8476e-23 -9.97239e-17 1205.29 0.000170977 -0.00428301 1.7457 5.4815e-08 -6.16673e-06)
(0 8.37027e-18 -2.23221e-21 1205.29 -6.77626e-21 -5.64475e-07 1.7457 7.82773e-08 6.17206e-06)
(1.15355e-15 -1.37513e-22 -6.26041e-17 1203.87 0.000128342 1.00451e-23 5.25841 3.15934e-07 0)
(-1.15355e-15 6.87567e-23 0 1203.88 -2.75726e-05 -1.81938e-06 5.25841 3.64504e-07 9.27294e-06)
(-2.22655e-16 1.13265e-18 -1.70565e-21 1202.4 -1.69414e-20 0.00132978 7.21355 0 -4.73981e-06)
(0 -2.71085e-22 4.33736e-21 1202.4 -0.000131067 -2.80298e-06 7.21356 3.95268e-07 8.08326e-06)
(-1.53144e-15 4.63424e-22 -1.0688e-21 1200.85 -2.60862e-05 0.00168665 7.3087 -4.96784e-09 -5.28249e-06)
(2.24143e-15 -4.63424e-22 1.0688e-21 1200.85 -0.000158143 -2.54727e-06 7.30871 3.87732e-08 5.28704e-06)
(2.20931e-15 6.25503e-22 -2.6337e-21 1199.21 1.27382e-05 0.00114753 7.4046 -2.06416e-07 -2.97303e-06)
(2.20931e-15 7.59168e-18 2.10696e-21 1199.21 -2.1737e-05 -1.78262e-06 7.4046 -6.66704e-08 2.97561e-06)
(6.05946e-15 3.24494e-22 -2.59595e-22 1197.51 3.82466e-05 0.000581067 7.50149 -1.59257e-07 -1.76533e-06)
(1.36334e-14 9.62965e-35 2.59595e-22 1197.51 -5.0827e-21 -1.57794e-06 7.5015 -1.92371e-34 1.76688e-06)
(-2.21106e-15 2.71867e-22 -2.55874e-22 1195.8 2.896e-05 0.000293353 7.59973 -9.92689e-08 -1.16437e-06)
(8.84425e-15 -5.48004e-22 5.11749e-22 1195.8 6.55256e-07 -1.73585e-06 7.59973 -1.89748e-08 1.1654e-06)
(-2.72454e-15 -5.28059e-22 2.52207e-22 1194.12 1.75019e-05 0.000163705 7.69963 -6.58813e-08 -8.35704e-07)
(6.66681e-15 3.94074e-22 -1.26104e-22 1194.13 -3.72401e-06 -2.06751e-06 7.69964 -2.21468e-08 8.36462e-07)
(7.41535e-15 3.26277e-22 -1.24296e-22 1192.53 1.28081e-05 0.000101657 7.80153 -5.52733e-08 -6.34335e-07)
(0 -5.28259e-22 1.24296e-22 1192.54 -3.12675e-06 -2.42544e-06 7.80153 -1.01603e-08 6.34928e-07)
(4.11091e-15 -5.28345e-22 1.22515e-22 1191.07 1.01128e-05 6.91999e-05 7.90571 -3.59969e-08 -4.97961e-07)
(-4.11091e-15 3.90516e-22 0 1191.07 -3.47439e-06 -2.77185e-06 7.90571 7.73793e-09 4.98448e-07)
(-4.3053e-15 7.92479e-22 -2.99909e-22 1189.76 6.98519e-06 5.09458e-05 8.01244 -3.34813e-08 -3.82995e-07)
(0 -7.92479e-22 3.01897e-22 1189.76 -4.52482e-06 -3.12583e-06 8.01244 1.02739e-08 3.97736e-07)
(1.28339e-14 1.194e-21 -3.00246e-22 1188.64 6.65707e-06 4.01797e-05 8.12194 -2.77071e-08 -2.97976e-07)
(0 -1.06009e-21 1.78542e-22 1188.64 -3.40893e-06 -3.48371e-06 8.12194 1.60373e-08 3.17619e-07)
(1.57467e-14 3.95962e-22 -1.17322e-22 1187.72 5.35945e-06 3.37022e-05 8.23441 -2.24333e-08 -2.47022e-07)
(0 -5.27949e-22 2.34644e-22 1187.72 -3.59242e-06 -3.84821e-06 8.23441 2.13219e-08 2.49568e-07)
(1.81112e-15 -5.31223e-22 5.78202e-23 1187.02 4.68881e-06 2.98679e-05 8.35001 -2.1623e-08 -1.88035e-07)
(1.6037e-14 3.97514e-22 0 1187.02 -3.41796e-06 -4.22929e-06 8.35001 2.21217e-08 1.88326e-07)
(7.64927e-15 -1.06147e-21 1.13983e-22 1186.54 4.01688e-06 2.77704e-05 8.46885 -1.79441e-08 -1.30179e-07)
(-7.64927e-15 1.06147e-21 -1.13983e-22 1186.54 -3.40889e-06 -4.62401e-06 8.46885 2.58195e-08 1.30446e-07)
(-7.08298e-15 0 0 1186.29 3.79952e-06 2.68829e-05 8.59097 -1.94729e-08 -7.32523e-08)
(2.83319e-14 0 0 1186.29 -3.08889e-06 -5.03162e-06 8.59096 2.42947e-08 7.34991e-08)
(0 -1.05894e-21 5.53696e-23 1186.26 3.91028e-06 2.68866e-05 8.71638 -1.5317e-08 -1.54398e-08)
(-3.06468e-14 1.05894e-21 -5.53696e-23 1186.26 -2.53307e-06 6.65955e-06 8.71638 2.84646e-08 1.56702e-08)
(0 -1.05911e-21 0 1186.42 2.76801e-06 2.7586e-05 8.84503 -1.4439e-08 -2.9659e-15)
(-3.29947e-14 1.05911e-21 0 1186.42 -3.30883e-06 2.33273e-05 8.84503 2.93436e-08 -2.70253e-15)
(0 2.58882e-22 3.36211e-24 1186.75 2.80624e-06 2.88537e-05 8.97679 -1.73118e-08 5.61099e-16)
(0 -5.27851e-22 0 1186.75 -2.96039e-06 2.88593e-05 8.97679 2.64895e-08 5.11526e-16)
(9.44832e-15 -7.95341e-22 0 1187.23 3.44247e-06 3.06027e-05 9.11149 -1.49443e-08 4.46716e-15)
(-3.77933e-14 1.06045e-21 0 1187.23 -2.06671e-06 3.06074e-05 9.11149 2.88655e-08 4.23363e-15)
(0 -1.05995e-21 0 1187.82 2.83632e-06 2.53957e-05 9.24888 -1.2032e-08 8.88926e-15)
(0 1.05995e-21 0 1187.82 -2.4531e-06 3.27869e-05 9.24888 3.17919e-08 8.494e-15)
(-1.06839e-14 2.64008e-22 0 1188.47 1.50305e-06 1.39656e-05 9.38863 -1.34556e-08 -2.87526e-08)
(0 -5.29626e-22 0 1188.47 -3.59533e-06 3.53694e-05 9.38862 3.03727e-08 2.85702e-08)
(2.31425e-15 1.71684e-21 -5.07754e-23 1189.12 2.99723e-06 9.01127e-06 9.53034 -2.02343e-08 -8.40874e-08)
(0 6.5536e-24 1.01551e-22 1189.12 -7.36652e-38 3.83268e-05 9.53034 2.36118e-08 8.39097e-08)
(1.34346e-14 9.3477e-20 1.00095e-22 1189.74 2.25229e-06 9.59832e-06 9.67359 -9.0991e-09 -1.4538e-07)
(-6.12629e-14 1.05882e-21 -1.00095e-22 1189.73 -1.63456e-06 4.16441e-05 9.67359 3.47561e-08 1.45209e-07)
(1.26083e-14 -1.0606e-21 9.86607e-23 1190.24 1.70099e-06 1.02103e-05 9.81782 -1.41302e-08 -2.13435e-07)
(0 1.0606e-21 -9.86607e-23 1190.24 -2.9823e-06 4.5328e-05 9.81781 2.97386e-08 2.13267e-07)
(-1.34868e-14 2.24516e-20 3.88987e-22 1190.56 5.61966e-07 1.08191e-05 9.96239 -1.42647e-08 -2.89191e-07)
(-1.30522e-14 1.58938e-21 -3.88987e-22 1190.56 -3.30011e-06 4.93808e-05 9.96239 2.96087e-08 2.89029e-07)
(1.6092e-14 1.85116e-21 -3.83411e-22 1190.64 3.17636e-06 1.14526e-05 10.1067 -2.25283e-08 -3.73649e-07)
(1.37256e-13 5.92888e-24 5.75117e-22 1190.64 1.05879e-21 5.07495e-05 10.1067 2.1361e-08 3.73489e-07)
(0 8.68599e-20 -3.77916e-22 1190.38 0 1.21374e-05 10.2499 -6.20646e-09 -4.545e-07)
(5.84887e-14 -1.45557e-21 3.85186e-34 1190.38 -1.74447e-06 -1.69407e-20 10.2499 3.7691e-08 0)
(1.53138e-14 -5.29648e-22 3.725e-22 1189.73 1.33367e-06 1.28443e-05 10.3912 -1.86955e-08 -4.17227e-07)
(-2.4998e-14 3.98691e-22 -3.725e-22 1189.73 -1.91639e-06 -4.39295e-06 10.3912 2.52145e-08 4.15255e-08)
(-3.20312e-14 0 0 1188.58 0 1.35521e-05 10.5298 -1.33555e-08 -3.79737e-07)
(-1.28125e-13 0 -3.8324e-22 1188.58 -2.95989e-06 -3.58431e-06 10.5298 3.05592e-08 3.46364e-08)
(7.55906e-15 -5.31538e-22 1.80949e-22 1186.85 2.89206e-06 1.42906e-05 10.6646 -2.58716e-08 -3.41819e-07)
(-9.11967e-14 1.70418e-19 -3.54978e-22 1186.85 6.35275e-22 -2.86674e-06 10.6646 1.80579e-08 2.84057e-08)
(0 1.59407e-19 3.56712e-22 1184.47 0 1.50852e-05 10.7947 -6.28012e-09 -3.03137e-07)
(-6.97979e-14 1.58709e-21 -5.12412e-22 1184.47 -1.60352e-06 -2.22584e-06 10.7947 3.76576e-08 2.27443e-08)
(0 1.59044e-21 -1.75799e-22 1181.34 8.14558e-07 1.59001e-05 10.9191 -2.14336e-08 -2.63406e-07)
(7.2725e-14 -8.45673e-20 3.12332e-22 1181.34 -2.70071e-06 -1.6498e-06 10.9191 2.25171e-08 1.75424e-08)
(-1.89226e-14 1.35184e-20 0 1177.37 1.2911e-06 1.67204e-05 11.0365 -1.79123e-08 -2.22485e-07)
(0 -2.65335e-22 0 1177.37 -2.43706e-06 -1.12891e-06 11.0364 2.60452e-08 1.27461e-08)
(3.25062e-15 -1.32367e-21 0 1172.49 2.91736e-06 1.75873e-05 11.1458 -2.46774e-08 -1.80183e-07)
(-2.29239e-14 1.47056e-19 0 1172.49 0 -6.55146e-07 11.1458 1.92962e-08 8.27256e-09)
(-2.04328e-14 6.30905e-20 0 1166.6 0 1.85118e-05 11.2459 -9.82895e-09 -1.36191e-07)
(-1.04326e-13 6.61556e-22 -7.33836e-23 1166.6 -1.95565e-06 -2.21827e-07 11.2459 3.41563e-08 4.09151e-09)
(2.12007e-14 5.28919e-22 0 1159.62 8.35465e-07 1.94554e-05 11.3354 -2.36127e-08 -9.02759e-08)
(0 -5.28919e-22 0 1159.62 -3.32653e-06 1.76666e-07 11.3354 2.03896e-08 3.6047e-09)
(2.19764e-14 1.05801e-21 0 1151.47 1.73775e-06 2.04096e-05 11.4132 -2.17839e-08 -4.23216e-08)
(0 -1.05801e-21 0 1151.47 -2.42875e-06 2.10177e-06 11.4132 2.22308e-08 3.81666e-08)
(2.05159e-14 -5.2898e-22 0 1142.09 2.83524e-06 2.14154e-05 11.478 -2.70186e-08 1.93996e-13)
(-4.32753e-14 2.3617e-24 0 1142.09 2.11758e-22 1.28864e-05 11.478 1.70179e-08 -8.26985e-12)
(0 1.60596e-19 0 1131.39 4.66093e-07 2.24887e-05 11.5284 -1.412e-08 2.25306e-12)
(0 1.32336e-21 0 1131.39 -1.75657e-06 2.24886e-05 11.5284 2.99348e-08 -8.50783e-12)
(-2.43439e-14 -2.64305e-22 0 1119.32 1.01137e-06 2.35938e-05 11.5633 -2.36661e-08 9.83322e-13)
(7.6354e-14 1.32152e-22 -3.1325e-22 1119.32 -3.20081e-06 2.35936e-05 11.5633 2.04137e-08 -9.25998e-12)
(0 1.39011e-20 0 1105.8 8.82723e-07 2.47031e-05 11.5812 -2.52967e-08 3.17743e-12)
(1.00575e-13 -1.59204e-21 0 1105.8 -3.12266e-06 2.4703e-05 11.5812 1.88052e-08 -9.60087e-12)
(6.67946e-14 -7.94124e-22 0 1090.79 3.70101e-06 2.5874e-05 11.581 -3.41688e-08 1.93254e-12)
(-1.44637e-13 5.92939e-20 0 1090.79 0 2.58738e-05 11.581 9.96474e-09 -1.03992e-11)
(2.67538e-14 8.78352e-20 0 1074.24 -2.11758e-22 2.71073e-05 11.5614 -8.35684e-09 4.22411e-12)
(0 -5.2964e-22 0 1074.24 -3.16298e-06 2.71071e-05 11.5614 3.58069e-08 -1.08018e-11)
(-2.75616e-14 2.67954e-22 0 1056.12 2.3053e-06 2.83738e-05 11.5212 -4.54812e-08 2.98963e-12)
(0 0 0 1056.12 0 2.83736e-05 11.5212 7.43722e-38 -1.16436e-11)
(2.83696e-14 4.04911e-20 0 1036.38 0 2.96651e-05 11.4592 -6.28246e-09 5.40497e-12)
(7.43627e-14 3.97309e-22 0 1036.38 -3.56229e-06 2.96648e-05 11.4592 3.79562e-08 -1.21401e-11)
(3.85552e-14 3.94981e-22 5.74517e-22 1015 3.37517e-06 3.10044e-05 11.3743 -6.13199e-08 4.3398e-12)
(1.16706e-13 0 0 1015 -8.47033e-22 3.10042e-05 11.3743 -1.49627e-37 -1.31663e-11)
(-2.99809e-14 9.64281e-20 0 991.981 0 3.24632e-05 11.2656 0 6.70491e-12)
(0 -2.65445e-22 0 991.981 -5.19034e-07 3.24629e-05 11.2656 5.20393e-08 -1.35814e-11)
(-3.07812e-14 0 0 967.299 -3.52628e-06 3.38803e-05 11.1319 -4.24792e-08 5.76064e-12)
(0 -2.61641e-22 0 967.299 -8.05974e-06 3.38801e-05 11.1319 1.90679e-09 -1.47555e-11)
(0 3.95432e-22 0 940.959 1.50005e-06 3.51916e-05 10.9723 -5.90816e-08 8.10344e-12)
(3.69211e-14 -5.32974e-22 0 940.959 -2.1596e-06 3.51914e-05 10.9723 -1.26835e-08 -1.51231e-11)
(-3.23629e-14 2.71141e-22 -5.42282e-22 912.988 1.59245e-05 3.68572e-05 10.7864 -5.16802e-08 7.34844e-12)
(0 1.88079e-37 0 912.988 1.69407e-21 3.68569e-05 10.7864 -8.27181e-25 -1.6495e-11)
(0 1.44359e-23 -5.34509e-22 883.408 7.21795e-24 3.8475e-05 10.5733 -1.32349e-23 1.04046e-11)
(-1.68434e-13 1.58682e-21 0 883.408 -1.98565e-05 3.84746e-05 10.5733 1.48594e-07 -1.75482e-11)
(-3.39081e-14 1.44883e-21 0 852.234 7.69669e-06 3.98391e-05 10.3321 -2.6697e-07 9.64144e-12)
(1.35632e-13 0 0 852.234 9.71003e-21 3.98388e-05 10.3321 -7.32149e-35 -1.89323e-11)
(3.48495e-14 2.43708e-19 0 819.522 -1.71833e-21 4.15822e-05 10.0629 2.64698e-23 1.23565e-11)
(-3.48495e-14 1.59035e-21 0 819.522 6.12531e-06 4.1582e-05 10.0629 2.19593e-07 -1.9625e-11)
(-1.05197e-15 -9.27736e-22 0 785.331 -1.43741e-05 4.31464e-05 9.76512 -1.66066e-07 1.10775e-11)
(1.07258e-13 0 0 785.331 3.38813e-21 4.31461e-05 9.76512 2.64698e-23 -2.04977e-11)
(7.22497e-14 9.22322e-22 0 749.712 1.90297e-05 4.47297e-05 9.43856 -3.45302e-08 1.42239e-11)
(1.44499e-13 -9.22322e-22 0 749.712 1.39971e-05 4.47293e-05 9.43856 1.03698e-08 -2.16049e-11)
(6.67448e-14 6.25511e-24 9.94574e-22 712.747 -1.69719e-21 4.63935e-05 9.08345 0 1.41334e-11)
(0 -1.05674e-21 0 712.747 -1.63007e-05 4.6393e-05 9.08345 9.0071e-08 -2.36827e-11)
(-3.75126e-14 5.20795e-22 0 674.524 6.5098e-06 4.78038e-05 8.69985 -2.15577e-07 1.71984e-11)
(0 -3.76158e-37 0 674.524 7.21161e-21 4.78034e-05 8.69985 -2.64698e-23 -2.46977e-11)
(-7.63467e-14 -2.40741e-35 0 635.145 -2.54809e-21 4.93892e-05 8.28843 1.32349e-23 1.65885e-11)
(1.52693e-13 1.32862e-21 0 635.145 5.23031e-07 4.93889e-05 8.28843 1.45897e-07 -2.62607e-11)
(-3.88094e-14 0 0 594.722 -5.94362e-07 5.09494e-05 7.8496 -1.77428e-07 1.9821e-11)
(0 0 0 594.722 8.562e-22 5.0949e-05 7.8496 0 -2.74374e-11)
(-3.94187e-14 8.86306e-20 0 553.364 8.55319e-22 5.243e-05 7.38414 0 1.97925e-11)
(1.57675e-13 -1.05612e-21 0 553.364 -1.08619e-06 5.24297e-05 7.38414 1.05151e-07 -2.95981e-11)
(2.20976e-14 -6.6507e-22 0 511.197 -9.99483e-06 5.35409e-05 6.89301 -1.5797e-07 2.23686e-11)
(-6.20968e-14 4.04825e-22 0 511.197 -3.38033e-21 5.35405e-05 6.89301 0 -3.01205e-11)
(-8.1098e-14 -1.05456e-21 0 468.366 1.85951e-05 5.46625e-05 6.37772 -1.17173e-07 2.29081e-11)
(-1.62196e-13 5.50011e-19 0 468.366 5.91646e-06 5.4662e-05 6.37771 -4.19211e-08 -3.286e-11)
(-8.21324e-14 0 -8.9898e-22 425.032 2.1868e-23 5.60707e-05 5.83983 1.32349e-23 2.63035e-11)
(3.2853e-13 -1.33442e-21 0 425.032 -5.57245e-06 5.60704e-05 5.83983 1.12146e-07 -3.42129e-11)
(-1.24647e-13 -1.99371e-21 0 381.337 -1.5416e-05 5.67664e-05 5.28059 -1.58767e-07 2.5576e-11)
(-2.25661e-13 3.05865e-19 0 381.337 -1.73098e-05 5.6766e-05 5.28059 -1.12799e-07 -3.57046e-11)
(-4.19957e-14 1.58303e-21 0 337.446 2.41865e-05 5.7431e-05 4.70243 -2.00225e-07 2.97566e-11)
(1.67983e-13 0 0 337.446 3.36674e-21 5.74305e-05 4.70243 -3.80007e-34 -3.78586e-11)
(4.24045e-14 4.38074e-23 0 293.548 -3.38813e-21 5.80276e-05 4.10757 2.64698e-23 2.976e-11)
(0 -1.04919e-21 0 293.548 -2.19591e-05 5.80271e-05 4.10757 2.04094e-07 -4.00995e-11)
(0 1.80315e-21 0 249.816 2.13327e-05 5.8483e-05 3.49827 -4.91705e-07 3.32554e-11)
(1.71096e-13 0 0 249.816 6.77626e-21 5.84825e-05 3.49827 -5.29396e-23 -4.15893e-11)
(5.61283e-14 3.32861e-48 0 206.429 6.2063e-23 5.8694e-05 2.87721 5.29396e-23 3.37354e-11)
(1.72412e-13 -9.40924e-22 0 206.429 -2.48103e-05 5.86935e-05 2.87721 4.9378e-07 -4.43278e-11)
(-5.53239e-14 -8.2439e-22 -1.64878e-21 163.573 1.42898e-05 5.84518e-05 2.2472 -8.43049e-07 3.74142e-11)
(1.18237e-13 0 -1.64878e-21 163.573 2.06426e-37 5.84514e-05 2.2472 1.05879e-22 -4.60237e-11)
(0 1.10862e-19 0 121.443 -1.17694e-20 5.84416e-05 1.61151 0 3.74968e-11)
(0 1.82829e-21 0 121.443 -3.19038e-06 5.84411e-05 1.61151 6.88384e-07 -4.83819e-11)
(-8.76694e-14 0 0 80.2181 -7.03788e-06 5.8002e-05 0.972865 -8.64461e-07 4.09225e-11)
(0 0 0 80.218 -1.536e-20 5.80016e-05 0.972864 -1.05879e-22 -4.9849e-11)
(0 5.06842e-19 0 40.0774 8.40149e-21 5.75355e-05 0.334809 0 4.09802e-11)
(1.75963e-13 -1.97362e-21 0 40.0774 8.43494e-06 5.75351e-05 0.334808 5.43278e-07 -5.21885e-11)
(1.99787e-14 -9.72667e-22 0 0.00841732 -8.66982e-06 5.70048e-05 6.99053e-05 -6.91101e-07 4.4567e-11)
(1.76242e-13 0 0 0.00843173 1.00751e-20 5.70043e-05 7.0025e-05 1.05879e-22 -5.38311e-11)
(-3.22749e-14 1.99724e-19 0 -35.5329 -6.77626e-21 5.63505e-05 0.29939 0 4.48738e-11)
(0 -5.27299e-22 0 -35.533 5.42173e-06 5.63501e-05 0.29939 3.60117e-07 -5.64204e-11)
(4.38468e-14 -8.50487e-22 0 -72.1243 -1.12886e-05 5.54951e-05 0.926685 -5.56887e-07 4.848e-11)
(0 1.17271e-18 -1.51198e-21 -72.1244 0 5.54947e-05 0.926686 0 -5.80874e-11)
(5.00064e-14 6.66781e-19 1.49031e-21 -106.288 -2.00819e-23 5.47809e-05 1.54391 -1.32349e-23 4.82712e-11)
(0 -1.05951e-21 0 -106.288 1.4092e-05 5.47806e-05 1.54391 1.20247e-07 -6.01399e-11)
(0 6.88568e-22 0 -138.601 -1.48334e-05 5.40963e-05 2.14757 -2.60324e-07 5.11379e-11)
(0 -1.0558e-21 0 -138.602 -3.88991e-06 5.40959e-05 2.14757 -3.42259e-08 -6.10628e-11)
(-3.77167e-14 4.97713e-22 0 -168.966 1.9855e-05 5.3443e-05 2.73467 -2.46986e-07 5.19257e-11)
(0 2.75824e-23 0 -168.966 -2.75824e-23 5.34425e-05 2.73467 -2.64698e-23 -6.40885e-11)
(-4.2842e-14 -3.76158e-37 0 -197.298 -1.04559e-21 5.28356e-05 3.30256 6.61744e-24 5.58636e-11)
(0 1.05921e-21 0 -197.298 -2.13685e-05 5.28352e-05 3.30256 8.23651e-08 -6.60742e-11)
(4.24992e-14 0 0 -223.53 1.62324e-05 5.21677e-05 3.8486 -5.77347e-07 5.57935e-11)
(-2.17197e-13 2.93531e-22 0 -223.53 1.46766e-22 5.21673e-05 3.8486 0 -6.8196e-11)
(0 3.85617e-23 2.77305e-21 -247.604 -4.1966e-21 5.19296e-05 4.37037 0 5.9652e-11)
(-1.68494e-13 -1.03989e-21 0 -247.604 -8.15468e-06 5.19293e-05 4.37037 3.26606e-07 -7.00833e-11)
(-8.75744e-14 -1.53748e-21 0 -269.499 -2.00889e-06 5.14452e-05 4.86553 -6.76553e-07 5.91667e-11)
(3.33737e-13 -9.62965e-35 0 -269.499 0 5.14449e-05 4.86553 -1.05879e-22 -7.17523e-11)
(4.12823e-14 5.3072e-19 0 -289.211 0 5.12178e-05 5.33268 2.64698e-23 6.28293e-11)
(1.65129e-13 2.10479e-21 0 -289.211 5.07319e-06 5.12175e-05 5.33268 2.34186e-07 -7.3424e-11)
(0 0 0 -306.743 8.34565e-08 5.13244e-05 5.77007 -5.2171e-07 6.24251e-11)
(0 9.40395e-37 0 -306.743 6.77626e-21 5.1324e-05 5.77007 0 -7.51186e-11)
(-4.03363e-14 1.80558e-20 0 -322.13 1.74348e-23 5.13308e-05 6.17648 0 6.68064e-11)
(1.61345e-13 -2.10623e-21 0 -322.13 -6.02695e-06 5.13304e-05 6.17648 1.75023e-07 -7.7489e-11)
(-3.98296e-14 -1.0481e-21 0 -335.428 5.16048e-06 5.14221e-05 6.55135 -5.78622e-07 6.61859e-11)
(-1.59319e-13 1.23e-19 0 -335.428 7.34243e-23 5.14217e-05 6.55135 0 -7.89291e-11)
(8.19675e-14 6.30626e-20 0 -346.698 2.09464e-21 5.15929e-05 6.89423 0 7.08489e-11)
(1.14551e-13 -1.07281e-21 0 -346.698 -5.88868e-06 5.15926e-05 6.89423 2.15032e-07 -8.15696e-11)
(-3.87606e-14 -2.27153e-21 0 -356.013 2.22744e-06 5.1707e-05 7.20484 -6.34252e-07 7.01348e-11)
(1.55043e-13 -9.40395e-37 0 -356.013 7.7044e-21 5.17066e-05 7.20484 1.05879e-22 -8.28612e-11)
(-3.82027e-14 0 0 -363.455 2.01186e-23 5.21983e-05 7.48325 0 7.49632e-11)
(0 0 0 -363.455 4.65995e-06 5.2198e-05 7.48325 1.94984e-07 -8.56536e-11)
(-3.76322e-14 0 0 -369.12 -5.24734e-06 5.27374e-05 7.72962 -4.67911e-07 7.35825e-11)
(0 -1.12847e-36 0 -369.12 6.83424e-21 5.2737e-05 7.72962 2.56777e-37 -8.62481e-11)
(-3.70511e-14 1.10645e-19 0 -373.121 0 5.3163e-05 7.94476 -4.05367e-08 7.9621e-11)
(1.48204e-13 -1.58925e-21 0 -373.121 9.67745e-07 5.31627e-05 7.94476 9.77446e-09 -9.02437e-11)
(3.64613e-14 1.03507e-21 0 -375.57 -4.85188e-06 5.34597e-05 8.12965 -3.69702e-07 7.72765e-11)
(0 0 0 -375.57 4.43044e-23 5.34593e-05 8.12965 -5.29396e-23 -8.98272e-11)
(3.91239e-14 7.65177e-22 4.66393e-21 -376.573 1.91017e-05 5.40839e-05 8.28527 -2.29123e-07 8.42167e-11)
(0 -1.05667e-21 0 -376.573 1.12104e-05 5.40834e-05 8.28527 -1.78514e-07 -9.47194e-11)
(-3.52634e-14 0 0 -376.245 -1.30715e-35 5.48961e-05 8.4126 -3.35313e-08 8.24202e-11)
(0 -1.05948e-21 0 -376.245 -1.56316e-05 5.48956e-05 8.4126 1.72145e-08 -9.4829e-11)
(0 3.6816e-21 0 -374.712 7.22182e-07 5.50516e-05 8.51311 -4.95246e-07 9.03948e-11)
(2.7727e-13 -1.92593e-34 0 -374.712 -5.92923e-21 5.50514e-05 8.51312 -5.29396e-23 -1.0076e-10)
(-3.74657e-14 2.06027e-19 -4.46626e-21 -372.087 0 5.56941e-05 8.58857 -1.0345e-07 8.53906e-11)
(1.36209e-13 -5.40836e-22 0 -372.087 9.52083e-06 5.56936e-05 8.58857 -5.24218e-08 -9.76177e-11)
(-7.03743e-14 1.36062e-19 -4.40224e-21 -368.476 -4.65564e-06 5.62858e-05 8.64006 -1.82611e-07 9.62118e-11)
(-1.33783e-13 2.92336e-21 0 -368.476 -1.88474e-05 5.62853e-05 8.64006 -1.31436e-07 -1.06401e-10)
(3.55939e-15 -1.89838e-21 0 -363.994 1.55004e-05 5.67175e-05 8.66928 -4.50101e-07 9.10647e-11)
(-1.67759e-13 1.66032e-22 0 -363.994 4.86647e-21 5.67169e-05 8.66928 0 -1.03098e-10)
(0 5.32351e-21 0 -358.748 1.03101e-21 5.74834e-05 8.678 0 1.03819e-10)
(0 7.85222e-22 -4.27696e-21 -358.748 -8.28954e-06 5.7483e-05 8.678 1.42077e-07 -1.1382e-10)
(-3.53635e-14 -1.31739e-21 0 -352.841 -3.78131e-06 5.76355e-05 8.66775 -5.5575e-07 9.55945e-11)
(1.26547e-13 5.70566e-19 0 -352.842 6.63633e-21 5.76349e-05 8.66775 -1.05879e-22 -1.07398e-10)
(-3.86724e-14 1.72061e-19 -8.31047e-21 -346.37 0 5.7918e-05 8.64036 -1.02718e-07 1.11207e-10)
(0 3.18135e-21 0 -346.37 6.97299e-06 5.79176e-05 8.64036 -5.10017e-08 -1.20988e-10)
(0 5.56757e-21 0 -339.418 9.03257e-07 5.85548e-05 8.59725 -2.7695e-07 9.98854e-11)
(2.43603e-13 0 0 -339.418 -5.0822e-21 5.8554e-05 8.59725 -2.03188e-34 -1.11452e-10)
(3.38646e-14 5.19625e-21 0 -332.072 0 5.87519e-05 8.53992 -1.93922e-07 1.20896e-10)
(2.05061e-13 -1.32463e-21 0 -332.072 -8.90661e-06 5.87515e-05 8.53992 -1.41948e-07 -1.30457e-10)
(-5.85753e-14 0 0 -324.409 1.14647e-05 5.90322e-05 8.47003 -3.90192e-07 1.04928e-10)
(0 0 0 -324.409 7.19978e-21 5.90314e-05 8.47003 0 -1.16228e-10)
(-2.87168e-14 2.21046e-24 0 -316.501 -1.67695e-22 5.92998e-05 8.38895 -1.5928e-08 1.32296e-10)
(2.29735e-13 -5.28563e-22 0 -316.501 -1.07497e-05 5.92994e-05 8.38895 3.63041e-08 -1.41608e-10)
(2.81536e-14 1.81213e-21 0 -308.413 7.62603e-06 5.93424e-05 8.29815 -5.55524e-07 1.09533e-10)
(0 -2.63311e-36 0 -308.413 -1.07276e-20 5.93414e-05 8.29815 -5.02967e-37 -1.20562e-10)
(-2.75985e-14 7.22123e-20 0 -300.202 -8.29473e-22 5.95899e-05 8.19893 0 1.45687e-10)
(0 -1.05681e-21 0 -300.202 -2.76692e-06 5.95896e-05 8.19893 1.15742e-07 -1.54746e-10)
(-2.70517e-14 -1.81924e-21 0 -291.92 -2.55474e-06 5.94714e-05 8.09236 -5.06075e-07 1.13209e-10)
(1.08207e-13 1.56751e-21 0 -291.92 -5.20806e-21 5.94704e-05 8.09236 5.29396e-23 -1.23935e-10)
(-2.65137e-14 2.59814e-19 0 -283.615 0 5.93131e-05 7.97978 -1.43624e-07 1.61091e-10)
(1.06055e-13 8.09817e-22 0 -283.615 3.05195e-06 5.93129e-05 7.97978 -9.09036e-08 -1.6987e-10)
(-5.19689e-14 0 0 -275.324 5.14503e-06 5.95331e-05 7.86214 -2.82173e-07 1.15612e-10)
(0 0 0 -275.324 -6.36544e-23 5.95317e-05 7.86214 0 -1.26028e-10)
(-2.54643e-14 0 0 -267.082 0 5.91762e-05 7.74022 -1.50499e-07 1.8082e-10)
(-3.0171e-14 1.32065e-21 0 -267.082 -1.39276e-05 5.9176e-05 7.74022 -9.75487e-08 -1.89318e-10)
(0 1.32942e-21 0 -258.925 1.81579e-05 5.89741e-05 7.61515 -5.34136e-07 1.17162e-10)
(-9.98129e-14 0 0 -258.925 0 5.89725e-05 7.61515 -2.08931e-37 -1.27238e-10)
(2.44514e-14 6.1066e-23 0 -250.876 -3.38813e-21 5.86385e-05 7.48767 -2.64698e-23 2.05181e-10)
(9.78054e-14 -2.10204e-21 0 -250.876 -1.8757e-05 5.86385e-05 7.48767 2.73189e-07 -2.13369e-10)
(2.39587e-14 1.82974e-21 0 -242.955 1.91849e-05 5.82318e-05 7.35839 -9.40216e-07 1.15902e-10)
(-9.58348e-14 4.5139e-36 0 -242.955 8.22416e-21 5.82299e-05 7.35839 -1.05879e-22 -1.2563e-10)
(-5.19534e-14 0 0 -235.182 -1.60401e-36 5.79419e-05 7.22798 -2.44268e-38 2.35578e-10)
(9.3901e-14 7.42625e-22 0 -235.182 -1.54751e-05 5.79422e-05 7.22798 6.87543e-07 -2.43452e-10)
(0 -1.6731e-21 0 -227.573 1.35327e-05 5.7425e-05 7.09703 -1.26254e-06 1.10192e-10)
(0 -3.00927e-36 -6.6924e-21 -227.573 1.18669e-20 5.74227e-05 7.09703 2.11758e-22 -1.1954e-10)
(-2.76676e-14 0 -6.59648e-21 -220.14 -2.03608e-35 5.67516e-05 6.96606 1.05879e-22 2.73839e-10)
(9.01431e-14 1.33991e-21 -1.3193e-20 -220.14 -1.40694e-05 5.67522e-05 6.96606 9.37498e-07 -2.81372e-10)
(4.93507e-14 1.82867e-21 0 -212.891 1.41804e-05 5.59508e-05 6.83547 -1.55071e-06 9.91773e-11)
(-2.72711e-14 0 0 -212.891 1.30231e-20 5.59479e-05 6.83547 -2.53779e-37 -1.08137e-10)
(0 9.36966e-20 0 -205.833 1.01644e-20 5.54915e-05 6.70569 0 3.23252e-10)
(-8.65292e-14 1.20164e-21 -1.28175e-20 -205.833 -6.75735e-06 5.54926e-05 6.70569 1.21007e-06 -3.30441e-10)
(-2.6495e-14 1.97403e-22 -6.31689e-21 -198.969 3.33959e-06 5.46616e-05 6.57689 -1.60986e-06 7.87316e-11)
(0 -3.85562e-36 0 -198.969 -1.39844e-20 5.46579e-05 6.57689 2.11758e-22 -8.72783e-11)
(0 2.07112e-19 0 -192.304 -1.69407e-21 5.38907e-05 6.44943 2.11758e-22 3.86842e-10)
(-2.61152e-14 1.36201e-21 -6.22635e-21 -192.304 -2.04099e-07 5.38925e-05 6.44943 1.12244e-06 -3.93663e-10)
(-5.39825e-15 -4.41105e-21 0 -185.839 6.01905e-07 5.29649e-05 6.32359 -1.44298e-06 4.56425e-11)
(2.57409e-14 4.8424e-19 0 -185.839 2.33314e-20 5.29604e-05 6.32359 -2.11758e-22 -5.37718e-11)
(1.99297e-14 1.99413e-19 0 -179.572 2.39644e-22 5.18552e-05 6.19951 1.05879e-22 4.6996e-10)
(0 1.32325e-21 -1.20983e-20 -179.572 -7.07132e-07 5.18579e-05 6.19951 9.17531e-07 -4.76413e-10)
(-3.905e-14 0 0 -173.502 8.79772e-06 5.10948e-05 6.07726 -1.27534e-06 -5.83395e-12)
(7.80999e-14 0 0 -173.502 -1.79569e-20 5.10889e-05 6.07726 -1.88146e-37 -1.86231e-12)
(-1.91283e-14 0 0 -167.624 0 4.97336e-05 5.95695 0 5.80445e-10)
(0 -1.10194e-21 0 -167.624 -1.43049e-05 4.97374e-05 5.95695 9.66548e-07 -5.86513e-10)
(0 -9.05119e-22 0 -161.935 2.37333e-05 4.88032e-05 5.83867 -1.57618e-06 -8.2654e-11)
(0 1.88079e-37 0 -161.935 1.27055e-20 4.87956e-05 5.83867 0 7.53913e-11)
(0 2.40741e-35 0 -156.428 8.21659e-22 4.75872e-05 5.72229 2.11758e-22 7.28609e-10)
(0 1.42743e-21 0 -156.428 -2.39302e-05 4.75928e-05 5.72229 1.53458e-06 -7.34298e-10)
(-2.36051e-14 -2.11046e-21 -1.12558e-20 -151.1 2.43043e-05 4.61156e-05 5.60792 -2.24422e-06 -1.9633e-10)
(0 9.21588e-36 -5.6279e-21 -151.1 1.67014e-20 4.61056e-05 5.60792 0 1.89498e-10)
(0 2.8788e-22 0 -145.942 -5.7576e-22 4.48597e-05 5.49549 0 9.26571e-10)
(1.40958e-13 1.38681e-21 0 -145.942 -1.67424e-05 4.48678e-05 5.49549 2.12893e-06 -9.31876e-10)
(-3.45229e-14 0 0 -140.948 2.24942e-05 4.36933e-05 5.38482 -2.67676e-06 -3.6384e-10)
(6.90457e-14 0 0 -140.948 -7.27794e-22 4.36803e-05 5.38482 -4.23516e-22 3.57426e-10)
(1.69104e-14 3.60269e-22 1.07787e-20 -136.112 0 4.19944e-05 5.27594 0 1.19494e-09)
(0 -2.69468e-21 0 -136.112 -2.38998e-05 4.20057e-05 5.27594 2.65066e-06 -1.19987e-09)
(0 -1.32803e-21 0 -131.429 3.0927e-05 4.03974e-05 5.16879 -3.4119e-06 -6.04471e-10)
(-8.85473e-14 2.32952e-21 -1.06242e-20 -131.429 9.31806e-22 4.03801e-05 5.16879 -4.23516e-22 5.98445e-10)
(-1.623e-14 -1.97483e-36 0 -126.893 -3.60237e-21 3.88118e-05 5.06324 4.23516e-22 1.56039e-09)
(6.49199e-14 -6.54499e-21 0 -126.893 -2.37512e-05 3.88276e-05 5.06324 3.49244e-06 -1.56497e-09)
(0 -1.93535e-21 0 -122.497 3.25613e-05 3.73811e-05 4.95924 -4.18974e-06 -9.51434e-10)
(0 -8.27548e-36 0 -122.497 2.97899e-20 3.73581e-05 4.95924 7.96358e-38 9.45772e-10)
(2.13363e-14 0 0 -118.238 -4.59236e-21 3.54613e-05 4.85674 0 2.06061e-09)
(0 -3.17936e-21 0 -118.238 -2.98505e-05 3.54834e-05 4.85674 4.39352e-06 -2.06486e-09)
(-1.52615e-14 0 0 -114.112 4.16824e-05 3.3802e-05 4.75573 -5.27555e-06 -1.44649e-09)
(0 1.01537e-35 0 -114.112 3.65827e-20 3.37714e-05 4.75573 0 1.44113e-09)
(1.15537e-14 -1.69271e-36 1.97688e-20 -110.115 -3.11144e-21 3.1719e-05 4.65621 -2.159e-37 2.74872e-09)
(1.19618e-13 -1.11199e-20 0 -110.115 -3.55359e-05 3.17496e-05 4.65621 5.66e-06 -2.75267e-09)
(0 -2.43568e-21 0 -106.24 5.05428e-05 2.99831e-05 4.55807 -6.68804e-06 -2.15158e-09)
(0 0 -9.74273e-21 -106.24 3.68207e-21 2.9942e-05 4.55807 -1.69407e-21 2.14647e-09)
(-2.01391e-14 2.79795e-35 -9.60309e-21 -102.484 -5.01915e-20 2.78746e-05 4.46125 -8.47033e-22 3.69914e-09)
(0 1.20039e-21 -9.60309e-21 -102.484 -4.05247e-05 2.79169e-05 4.46125 7.29421e-06 -3.70282e-09)
(-4.21914e-14 8.28227e-21 0 -98.8402 5.95687e-05 2.62225e-05 4.36568 -8.438e-06 -3.1537e-09)
(1.1251e-13 -9.62965e-35 0 -98.8402 -9.3069e-21 2.61672e-05 4.36568 -7.91898e-35 3.14874e-09)
(0 9.62965e-35 0 -95.3049 0 2.39386e-05 4.27123 1.69407e-21 5.01684e-09)
(1.10244e-13 -1.28285e-20 0 -95.3049 -4.82412e-05 2.39969e-05 4.27123 9.31105e-06 -5.02033e-09)
(-1.35036e-14 -2.29902e-21 0 -91.873 7.17997e-05 2.21735e-05 4.17784 -1.06942e-05 -4.57491e-09)
(0 1.47647e-21 -9.19607e-21 -91.873 7.36685e-20 2.20988e-05 4.17784 1.69407e-21 4.57006e-09)
(3.22421e-14 1.63808e-21 0 -88.5392 -3.70489e-34 1.961e-05 4.0854 0 6.84934e-09)
(8.68544e-14 -1.58625e-20 0 -88.5392 -5.65048e-05 1.96905e-05 4.0854 1.18588e-05 -6.85263e-09)
(0 4.46718e-21 0 -85.2989 9.10219e-05 1.81113e-05 3.99378 -1.35506e-05 -6.58938e-09)
(5.18741e-14 -1.92593e-34 0 -85.2989 7.38238e-20 1.801e-05 3.99378 -1.69407e-21 6.58451e-09)
(1.27103e-14 4.2223e-21 0 -82.148 -8.64231e-20 1.53759e-05 3.9029 -1.69407e-21 9.40709e-09)
(0 -4.40315e-21 0 -82.148 -7.28503e-05 1.54867e-05 3.9029 1.52677e-05 -9.41026e-09)
(2.49166e-14 0 0 -79.0826 0.000115271 1.38321e-05 3.81266 -1.74796e-05 -9.44248e-09)
(3.16297e-14 -1.50463e-36 -8.68008e-21 -79.0826 1.01644e-19 1.36943e-05 3.81266 0 9.43758e-09)
(0 1.92593e-34 2.75519e-20 -76.0994 1.09601e-20 8.67255e-06 3.72298 3.38813e-21 1.29866e-08)
(0 0 0 -76.0994 -8.66863e-05 1.12246e-05 3.72298 1.97994e-05 -1.29896e-08)
(1.76854e-14 0 8.43305e-21 -73.1955 0.000139309 9.63739e-06 3.63382 -2.25017e-05 -1.34859e-08)
(4.78905e-14 3.00927e-36 0 -73.1955 2.66521e-19 9.44967e-06 3.63383 5.18758e-36 1.34808e-08)
(2.34779e-14 1.41035e-20 1.4419e-19 -70.3684 -2.71051e-19 8.47033e-22 3.54513 -3.38813e-21 0)
(0 -8.31218e-21 0 -70.3684 -0.00010261 2.89397e-06 3.54513 2.54621e-05 -1.80115e-08)
(1.15113e-14 3.42632e-21 8.19305e-21 -67.6158 0.000172782 5.16751e-06 3.45689 -2.40549e-05 -1.92175e-08)
(4.60453e-14 0 0 -67.6158 1.46627e-19 4.91092e-06 3.45689 3.38813e-21 1.92123e-08)
(1.69358e-14 9.06898e-21 1.76864e-20 -64.9356 -3.79471e-19 2.11758e-22 3.36906 0 0)
(2.82232e-14 -1.61512e-20 0 -64.9356 -0.000123075 1.92208e-06 3.36906 3.27299e-05 -2.50766e-08)
(-1.10742e-14 2.43178e-21 0 -62.3259 0.00021552 6.30445e-07 3.28162 -1.95552e-05 -2.73496e-08)
(-4.42967e-14 2.05515e-20 0 -62.3259 0 2.78821e-07 3.28162 -6.77626e-21 2.73442e-08)
(-2.73184e-14 -1.36922e-34 -2.45384e-37 -59.7858 -2.44624e-19 -4.42967e-22 3.19459 -1.6189e-36 -1.34963e-39)
(0 -7.84579e-21 0 -59.7858 -0.000149097 -2.96115e-06 3.19459 4.20847e-05 -3.50406e-08)
(-1.06609e-14 4.8819e-21 0 -57.3148 0.000270168 -4.04816e-06 3.10799 -1.24952e-05 -3.88994e-08)
(-4.26437e-14 2.64328e-20 0 -57.3148 2.70378e-19 -4.53285e-06 3.10799 0 3.88937e-08)
(1.59855e-14 3.85186e-34 2.40741e-35 -54.9136 0 0 3.02194 0 1.32349e-23)
(0 0 0 -54.9136 -0.000179306 -7.24792e-06 3.02194 5.4154e-05 -4.91699e-08)
(0 -2.72766e-18 7.51325e-21 -52.5842 6.60786e-05 -8.91342e-06 2.93657 -1.81875e-06 -5.53711e-08)
(8.21701e-14 1.20371e-34 0 -52.5842 2.30161e-19 -9.58101e-06 2.93657 -1.88722e-35 5.53637e-08)
(-1.00851e-14 0 2.93874e-39 -50.3302 0 -1.69407e-21 2.85214 3.39394e-36 1.32349e-23)
(4.03403e-14 1.48111e-20 0 -50.3302 -0.000210721 -9.91061e-06 2.85214 6.95535e-05 -6.91993e-08)
(-1.5308e-14 -1.09023e-20 -1.45989e-20 -48.1563 3.79471e-19 -1.3595e-05 2.769 0 -7.88389e-08)
(-3.96179e-14 3.58252e-20 0 -48.1563 0.000190318 -1.45151e-05 2.769 -1.39664e-05 7.8832e-08)
(-1.50886e-14 4.5139e-34 4.8783e-37 -46.0685 -8.10218e-19 -8.88395e-22 2.68755 1.35525e-20 1.32349e-23)
(0 7.19481e-20 -9.92127e-20 -46.0685 -0.000251672 -1.35823e-05 2.68755 8.90749e-05 -9.76091e-08)
(-2.01854e-14 -5.89816e-34 -7.09169e-21 -44.073 5.5898e-20 -1.83312e-05 2.60833 0 -1.12279e-07)