/*--------------------------------*- C++ -*----------------------------------*\
| =========                 |                                                 |
| \\      /  F ield         | OpenFOAM: The Open Source CFD Toolbox           |
|  \\    /   O peration     | Version:  2012                                  |
|   \\  /    A nd           | Website:  www.openfoam.com                      |
|    \\/     M anipulation  |                                                 |
\*---------------------------------------------------------------------------*/
FoamFile
{
    version     2.0;
    format      ascii;
    class       surfaceScalarField;
    location    "13800";
    object      phi;
}
// * * * * * * * * * * * * * * * * * * * * * * * * * * * * * * * * * * * * * //

dimensions      [0 3 -1 0 0 0 0];
oriented        oriented;


internalField   nonuniform List<scalar> 
5116
(
6.31725e-07
1.57531e-11
-8.92644e-12
-2.66745e-11
8.9205e-12
1.93058e-06
5.6695e-11
-1.36093e-11
-6.73558e-11
1.36002e-11
3.28451e-06
9.27062e-11
-1.20454e-11
-1.03367e-10
1.20374e-11
4.69527e-06
1.16693e-10
-8.0106e-12
-1.27316e-10
8.0053e-12
6.1646e-06
1.30422e-10
-4.59548e-12
-1.41057e-10
4.59243e-12
7.69432e-06
1.38862e-10
-2.79253e-12
-1.49402e-10
2.79069e-12
9.28634e-06
1.44495e-10
-1.8953e-12
-1.55072e-10
1.89405e-12
1.09427e-05
1.48766e-10
-1.41025e-12
-1.59285e-10
1.40932e-12
1.26655e-05
1.5208e-10
-1.12104e-12
-1.62638e-10
1.1203e-12
1.44572e-05
1.54922e-10
-9.34175e-13
-1.65427e-10
9.33561e-13
1.632e-05
1.57291e-10
-8.05838e-13
-1.67837e-10
8.05311e-13
1.82566e-05
1.59467e-10
-7.13533e-13
-1.69966e-10
7.13068e-13
2.02696e-05
1.61355e-10
-6.44772e-13
-1.71894e-10
6.44353e-13
2.23619e-05
1.63165e-10
-5.92152e-13
-1.7366e-10
5.9177e-13
2.45363e-05
1.6477e-10
-5.51047e-13
-1.75308e-10
5.50693e-13
2.67959e-05
1.66357e-10
-5.18431e-13
-1.76852e-10
5.181e-13
2.91439e-05
1.67787e-10
-4.92253e-13
-1.78324e-10
4.91941e-13
3.15836e-05
1.69231e-10
-4.71078e-13
-1.79727e-10
4.70782e-13
3.41181e-05
1.70544e-10
-4.53876e-13
-1.81084e-10
4.53592e-13
3.67511e-05
1.71894e-10
-4.39888e-13
-1.82393e-10
4.39616e-13
3.9486e-05
1.73131e-10
-4.2855e-13
-1.83675e-10
4.28287e-13
4.23263e-05
1.74419e-10
-4.19429e-13
-1.84922e-10
4.19174e-13
4.52756e-05
1.75605e-10
-4.12192e-13
-1.86155e-10
4.11944e-13
4.83375e-05
1.76854e-10
-4.06578e-13
-1.87364e-10
4.06337e-13
5.15154e-05
1.78011e-10
-4.02384e-13
-1.88568e-10
4.02148e-13
5.48131e-05
1.79239e-10
-3.99444e-13
-1.89755e-10
3.99213e-13
5.82338e-05
1.8038e-10
-3.9763e-13
-1.90945e-10
3.97403e-13
6.17809e-05
1.81599e-10
-3.96836e-13
-1.92124e-10
3.96613e-13
6.54577e-05
1.82737e-10
-3.96978e-13
-1.93313e-10
3.96758e-13
6.92673e-05
1.8396e-10
-3.97987e-13
-1.94495e-10
3.9777e-13
7.32124e-05
1.85105e-10
-3.99812e-13
-1.95693e-10
3.99596e-13
7.72958e-05
1.86339e-10
-4.02406e-13
-1.96889e-10
4.02193e-13
8.15199e-05
1.87502e-10
-4.05737e-13
-1.98105e-10
4.05526e-13
8.58867e-05
1.88758e-10
-4.0978e-13
-1.99322e-10
4.09571e-13
9.03979e-05
1.89944e-10
-4.14515e-13
-2.00565e-10
4.14307e-13
9.50549e-05
1.91229e-10
-4.19928e-13
-2.01813e-10
4.19722e-13
9.98588e-05
1.92448e-10
-4.26012e-13
-2.03091e-10
4.25807e-13
0.00010481
1.93771e-10
-4.32762e-13
-2.04377e-10
4.32559e-13
0.000109908
1.9503e-10
-4.40179e-13
-2.05698e-10
4.39976e-13
0.000115153
1.96398e-10
-4.48266e-13
-2.07031e-10
4.48064e-13
0.000120544
1.97705e-10
-4.57029e-13
-2.08403e-10
4.56828e-13
0.000126078
1.99126e-10
-4.66477e-13
-2.0979e-10
4.66277e-13
0.000131754
2.0049e-10
-4.76623e-13
-2.11223e-10
4.76423e-13
0.000137568
2.01971e-10
-4.87479e-13
-2.12673e-10
4.8728e-13
0.000143517
2.03399e-10
-4.99062e-13
-2.14173e-10
4.98863e-13
0.000149595
2.0495e-10
-5.11386e-13
-2.15695e-10
5.11189e-13
0.000155799
2.06452e-10
-5.24473e-13
-2.17272e-10
5.24276e-13
0.00016212
2.0808e-10
-5.38338e-13
-2.18875e-10
5.38142e-13
0.000168554
2.09665e-10
-5.53003e-13
-2.20539e-10
5.52807e-13
0.000175091
2.11381e-10
-5.68483e-13
-2.22231e-10
5.68289e-13
0.000181723
2.13058e-10
-5.848e-13
-2.23992e-10
5.84606e-13
0.000188441
2.14872e-10
-6.01968e-13
-2.25785e-10
6.01775e-13
0.000195234
2.16651e-10
-6.20004e-13
-2.27651e-10
6.19812e-13
0.000202091
2.18573e-10
-6.38917e-13
-2.29555e-10
6.38726e-13
0.000208999
2.20466e-10
-6.58718e-13
-2.31538e-10
6.58527e-13
0.000215947
2.22506e-10
-6.79407e-13
-2.33563e-10
6.79218e-13
0.00022292
2.24522e-10
-7.00984e-13
-2.35674e-10
7.00796e-13
0.000229904
2.26692e-10
-7.23438e-13
-2.37831e-10
7.23252e-13
0.000236884
2.28843e-10
-7.46756e-13
-2.40079e-10
7.46571e-13
0.000243843
2.31151e-10
-7.70907e-13
-2.42377e-10
7.70725e-13
0.000250766
2.33446e-10
-7.9586e-13
-2.44773e-10
7.95679e-13
0.000257636
2.35903e-10
-8.21567e-13
-2.47223e-10
8.21389e-13
0.000264435
2.38353e-10
-8.47974e-13
-2.49775e-10
8.47798e-13
0.000271145
2.40968e-10
-8.75014e-13
-2.52384e-10
8.74842e-13
0.00027775
2.43578e-10
-9.02613e-13
-2.55099e-10
9.02443e-13
0.00028423
2.46357e-10
-9.30684e-13
-2.57875e-10
9.30519e-13
0.00029057
2.49136e-10
-9.59143e-13
-2.60758e-10
9.5898e-13
0.00029675
2.52083e-10
-9.87893e-13
-2.63704e-10
9.87736e-13
0.000302754
2.55033e-10
-1.01685e-12
-2.6676e-10
1.01669e-12
0.000308566
2.58151e-10
-1.04591e-12
-2.69877e-10
1.04576e-12
0.00031417
2.61274e-10
-1.07502e-12
-2.73106e-10
1.07487e-12
0.000319551
2.64565e-10
-1.10409e-12
-2.76396e-10
1.10395e-12
0.000324696
2.6786e-10
-1.13309e-12
-2.79796e-10
1.13296e-12
0.000329591
2.71321e-10
-1.16199e-12
-2.83258e-10
1.16187e-12
0.000334226
2.7479e-10
-1.19079e-12
-2.86828e-10
1.19067e-12
0.00033859
2.7842e-10
-1.2195e-12
-2.9046e-10
1.21939e-12
0.000342677
2.82059e-10
-1.24818e-12
-2.942e-10
1.24808e-12
0.000346479
2.85859e-10
-1.2769e-12
-2.98001e-10
1.27681e-12
0.000349991
2.89671e-10
-1.30575e-12
-3.01909e-10
1.30567e-12
0.000353211
2.93642e-10
-1.33485e-12
-3.0588e-10
1.33477e-12
0.000356137
2.97627e-10
-1.36432e-12
-3.09961e-10
1.36426e-12
0.00035877
3.01773e-10
-1.39431e-12
-3.14107e-10
1.39426e-12
0.000361111
3.0594e-10
-1.42498e-12
-3.18365e-10
1.42493e-12
0.000363164
3.10269e-10
-1.45646e-12
-3.22694e-10
1.45643e-12
0.000364934
3.14625e-10
-1.48894e-12
-3.2714e-10
1.48891e-12
0.000366428
3.19149e-10
-1.52257e-12
-3.31663e-10
1.52255e-12
0.000367654
3.23711e-10
-1.55751e-12
-3.3631e-10
1.5575e-12
0.00036862
3.28445e-10
-1.59391e-12
-3.41043e-10
1.59392e-12
0.000369336
3.33227e-10
-1.63195e-12
-3.45908e-10
1.63197e-12
0.000369813
3.38191e-10
-1.67177e-12
-3.50871e-10
1.6718e-12
0.000370062
3.43217e-10
-1.71351e-12
-3.55975e-10
1.71356e-12
0.000370096
3.48432e-10
-1.75733e-12
-3.6119e-10
1.75739e-12
0.000369926
3.53724e-10
-1.80338e-12
-3.6656e-10
1.80345e-12
0.000369565
3.59219e-10
-1.85179e-12
-3.72054e-10
1.85187e-12
0.000369026
3.64807e-10
-1.90271e-12
-3.77716e-10
1.9028e-12
0.000368321
3.7061e-10
-1.95626e-12
-3.83519e-10
1.95638e-12
0.000367463
3.76525e-10
-2.01262e-12
-3.89505e-10
2.01275e-12
0.000366465
3.82669e-10
-2.07189e-12
-3.95652e-10
2.07204e-12
0.000365338
3.88947e-10
-2.13425e-12
-4.01997e-10
2.13442e-12
0.000364094
3.95469e-10
-2.19982e-12
-4.08522e-10
2.2e-12
0.000362745
4.02146e-10
-2.26877e-12
-4.15266e-10
2.26897e-12
0.000361301
4.09087e-10
-2.34123e-12
-4.22212e-10
2.34145e-12
0.000359772
4.16208e-10
-2.41739e-12
-4.29394e-10
2.41763e-12
0.000358168
4.23612e-10
-2.49736e-12
-4.36804e-10
2.49762e-12
0.000356498
4.31221e-10
-2.58138e-12
-4.44474e-10
2.58166e-12
0.000354771
4.39135e-10
-2.66955e-12
-4.52396e-10
2.66985e-12
0.000352994
4.47285e-10
-2.76212e-12
-4.60601e-10
2.76245e-12
0.000351174
4.55762e-10
-2.85921e-12
-4.69089e-10
2.85956e-12
0.000349319
4.64505e-10
-2.9611e-12
-4.77885e-10
2.96148e-12
0.000347434
4.73602e-10
-3.0679e-12
-4.86995e-10
3.0683e-12
0.000345524
4.82999e-10
-3.17994e-12
-4.96441e-10
3.18037e-12
0.000343594
4.92779e-10
-3.29729e-12
-5.06234e-10
3.29775e-12
0.00034165
5.02894e-10
-3.42039e-12
-5.16396e-10
3.42088e-12
0.000339694
5.13423e-10
-3.54924e-12
-5.26942e-10
3.54976e-12
0.00033773
5.2433e-10
-3.68439e-12
-5.37889e-10
3.68494e-12
0.000335761
5.35682e-10
-3.82577e-12
-5.4926e-10
3.82636e-12
0.000333791
5.47454e-10
-3.97407e-12
-5.61071e-10
3.97469e-12
0.00033182
5.5971e-10
-4.12911e-12
-5.73348e-10
4.12976e-12
0.000329851
5.72435e-10
-4.29176e-12
-5.86105e-10
4.29245e-12
0.000327885
5.85682e-10
-4.46169e-12
-5.99376e-10
4.46242e-12
0.000325925
5.99448e-10
-4.64004e-12
-6.13172e-10
4.64081e-12
0.00032397
6.13783e-10
-4.82621e-12
-6.27533e-10
4.82703e-12
0.000322022
6.28693e-10
-5.02174e-12
-6.42468e-10
5.0226e-12
0.000320082
6.4422e-10
-5.22565e-12
-6.58024e-10
5.22655e-12
0.00031815
6.60382e-10
-5.44e-12
-6.74207e-10
5.44095e-12
0.000316225
6.77214e-10
-5.66327e-12
-6.91074e-10
5.66427e-12
0.00031431
6.94751e-10
-5.89828e-12
-7.08625e-10
5.89933e-12
0.000312404
7.13013e-10
-6.1427e-12
-7.26927e-10
6.1438e-12
0.000310507
7.32055e-10
-6.40041e-12
-7.45977e-10
6.40157e-12
0.00030862
7.51884e-10
-6.66793e-12
-7.65853e-10
6.66915e-12
0.000306744
7.72575e-10
-6.95064e-12
-7.86547e-10
6.95191e-12
0.000304878
7.94122e-10
-7.24337e-12
-8.08146e-10
7.2447e-12
0.000303023
8.16621e-10
-7.55364e-12
-8.30642e-10
7.55504e-12
0.00030118
8.40048e-10
-7.87387e-12
-8.54132e-10
7.87533e-12
0.00029935
8.6453e-10
-8.21462e-12
-8.78601e-10
8.21615e-12
0.000297533
8.90019e-10
-8.56478e-12
-9.04162e-10
8.56639e-12
0.00029573
9.16674e-10
-8.9393e-12
-9.30796e-10
8.94098e-12
0.000293941
9.44421e-10
-9.322e-12
-9.58629e-10
9.32376e-12
0.000292169
9.73462e-10
-9.73407e-12
-9.87636e-10
9.73591e-12
0.000290413
1.00368e-09
-1.0152e-11
-1.01796e-09
1.01539e-11
0.000288675
1.03534e-09
-1.0606e-11
-1.04957e-09
1.0608e-11
0.000286955
1.06828e-09
-1.10619e-11
-1.08262e-09
1.1064e-11
0.000285256
1.10281e-09
-1.15629e-11
-1.11709e-09
1.15651e-11
0.000283579
1.13872e-09
-1.20596e-11
-1.15314e-09
1.20619e-11
0.000281925
1.17641e-09
-1.26136e-11
-1.19074e-09
1.2616e-11
0.000280296
1.21557e-09
-1.31535e-11
-1.23007e-09
1.3156e-11
0.000278695
1.25673e-09
-1.37678e-11
-1.27111e-09
1.37704e-11
0.000277123
1.29947e-09
-1.43529e-11
-1.31405e-09
1.43557e-11
0.000275583
1.34445e-09
-1.50363e-11
-1.35888e-09
1.50392e-11
0.000274078
1.39111e-09
-1.56679e-11
-1.40576e-09
1.56709e-11
0.00027261
1.44029e-09
-1.64314e-11
-1.45474e-09
1.64345e-11
0.000271182
1.49123e-09
-1.71092e-11
-1.50595e-09
1.71125e-11
0.000269797
1.54505e-09
-1.79667e-11
-1.55952e-09
1.79701e-11
0.000268457
1.60069e-09
-1.86881e-11
-1.61547e-09
1.86917e-11
0.000267167
1.65961e-09
-1.96577e-11
-1.67408e-09
1.96615e-11
0.000265928
1.72038e-09
-2.04166e-11
-1.73523e-09
2.04206e-11
0.000264743
1.78495e-09
-2.15222e-11
-1.79939e-09
2.15264e-11
0.000263615
1.85133e-09
-2.23066e-11
-1.86622e-09
2.2311e-11
0.000262545
1.92213e-09
-2.35805e-11
-1.93652e-09
2.35851e-11
0.000261535
1.99463e-09
-2.437e-11
-2.00956e-09
2.43748e-11
0.000260584
2.07233e-09
-2.58562e-11
-2.08663e-09
2.58612e-11
0.000259692
2.15149e-09
-2.66176e-11
-2.16643e-09
2.66228e-11
0.000258856
2.23686e-09
-2.83778e-11
-2.25102e-09
2.83833e-11
0.000258073
2.32325e-09
-2.90583e-11
-2.33817e-09
2.90641e-11
0.00025734
2.41715e-09
-3.118e-11
-2.43111e-09
3.1186e-11
0.000256652
2.51133e-09
-3.16977e-11
-2.52621e-09
3.1704e-11
0.000256004
2.61476e-09
-3.43062e-11
-2.62848e-09
3.43127e-11
0.000255391
2.7173e-09
-3.45354e-11
-2.73212e-09
3.45423e-11
0.00025481
2.83142e-09
-3.78123e-11
-2.84485e-09
3.78195e-11
0.000254259
2.94283e-09
-3.75614e-11
-2.95761e-09
3.75689e-11
0.000253737
3.06903e-09
-4.1772e-11
-3.08216e-09
4.17799e-11
0.000253246
3.18973e-09
-4.07501e-11
-3.20454e-09
4.07584e-11
0.000252787
3.32969e-09
-4.62846e-11
-3.34258e-09
4.62932e-11
0.000252366
3.45997e-09
-4.40509e-11
-3.4749e-09
4.406e-11
0.000251988
3.61583e-09
-5.14866e-11
-3.6285e-09
5.14961e-11
0.000251657
3.7557e-09
-4.7374e-11
-3.77082e-09
4.7384e-11
0.000251379
3.93021e-09
-5.75696e-11
-3.94264e-09
5.758e-11
0.000251158
4.07919e-09
-5.05679e-11
-4.09456e-09
5.05791e-11
0.000250995
4.27595e-09
-6.48075e-11
-4.28807e-09
6.48189e-11
0.000250894
4.43247e-09
-5.33862e-11
-4.44844e-09
5.33985e-11
0.000250854
4.6564e-09
-7.35988e-11
-4.66835e-09
7.36113e-11
0.000250876
4.81838e-09
-5.54349e-11
-4.83481e-09
5.54486e-11
0.000250956
5.07356e-09
-8.45315e-11
-5.08759e-09
8.45452e-11
0.00025109
5.27181e-09
-6.63055e-11
-5.28657e-09
6.63199e-11
0.000251274
5.56555e-09
-9.8084e-11
-5.58009e-09
9.80989e-11
0.000251504
5.82771e-09
-8.76264e-11
-5.84292e-09
8.7642e-11
0.000251775
6.17105e-09
-1.14464e-10
-6.18564e-09
1.14481e-10
0.000252085
6.50847e-09
-1.12616e-10
-6.52332e-09
1.12633e-10
0.000252432
6.9093e-09
-1.33791e-10
-6.92409e-09
1.33809e-10
0.000252817
7.33332e-09
-1.41548e-10
-7.34847e-09
1.41566e-10
0.000253244
7.72239e-09
-1.29929e-10
-7.73773e-09
1.29949e-10
0.000253718
8.15917e-09
-1.45776e-10
-8.17469e-09
1.45797e-10
0.000254243
8.52753e-09
-1.23485e-10
-8.54469e-09
1.23507e-10
0.000254825
8.97809e-09
-1.50468e-10
-8.99554e-09
1.50491e-10
0.000255463
9.32804e-09
-1.16458e-10
-9.34451e-09
1.16483e-10
0.00025616
9.79826e-09
-1.56303e-10
-9.81263e-09
1.56329e-10
0.000256917
1.0138e-08
-1.14728e-10
-1.01565e-08
1.14756e-10
0.000257732
1.06329e-08
-1.6399e-10
-1.06474e-08
1.64018e-10
0.000258603
1.10248e-08
-1.32101e-10
-1.10435e-08
1.32131e-10
0.00025952
1.15484e-08
-1.7362e-10
-1.15632e-08
1.73651e-10
0.00026047
1.19938e-08
-1.49823e-10
-1.20124e-08
1.49856e-10
0.000261434
1.25515e-08
-1.85118e-10
-1.25663e-08
1.85152e-10
0.000262389
1.30521e-08
-1.68084e-10
-1.30704e-08
1.6812e-10
0.000263307
1.36493e-08
-1.98432e-10
-1.3664e-08
1.98469e-10
0.000264161
1.42072e-08
-1.87057e-10
-1.42249e-08
1.87096e-10
0.000264922
1.48492e-08
-2.13525e-10
-1.48636e-08
2.13566e-10
0.000265567
1.54668e-08
-2.06896e-10
-1.54839e-08
2.0694e-10
0.000266077
1.6159e-08
-2.30383e-10
-1.61731e-08
2.30428e-10
0.000266447
1.68393e-08
-2.2775e-10
-1.68558e-08
2.27797e-10
0.000266673
1.7587e-08
-2.49007e-10
-1.76007e-08
2.49056e-10
0.000266757
1.83335e-08
-2.49771e-10
-1.83493e-08
2.49823e-10
0.000266693
1.91421e-08
-2.69414e-10
-1.91553e-08
2.69468e-10
0.000266468
1.99586e-08
-2.73071e-10
-1.99736e-08
2.73127e-10
0.000266067
2.08335e-08
-2.9164e-10
-2.08462e-08
2.91698e-10
0.000265469
2.17242e-08
-2.97803e-10
-2.17386e-08
2.97864e-10
0.000264651
2.26711e-08
-3.1574e-10
-2.26834e-08
3.15804e-10
0.00026359
2.36408e-08
-3.24118e-10
-2.36545e-08
3.24185e-10
0.000262266
2.46656e-08
-3.41807e-10
-2.46775e-08
3.41876e-10
0.000260655
2.57196e-08
-3.52196e-10
-2.57327e-08
3.52268e-10
0.000258739
2.68287e-08
-3.69978e-10
-2.68401e-08
3.70053e-10
0.00025651
2.79728e-08
-3.82253e-10
-2.79853e-08
3.82331e-10
0.000253979
2.9173e-08
-4.00444e-10
-2.91841e-08
4.00525e-10
0.000251172
3.04141e-08
-4.14548e-10
-3.0426e-08
4.14633e-10
0.000248125
3.1713e-08
-4.3344e-10
-3.17237e-08
4.33528e-10
0.000244881
3.30585e-08
-4.49365e-10
-3.30699e-08
4.49456e-10
0.000241466
3.44646e-08
-4.69219e-10
-3.44749e-08
4.69314e-10
0.000237893
3.59229e-08
-4.86989e-10
-3.59339e-08
4.87087e-10
0.00023415
3.74452e-08
-5.08041e-10
-3.74553e-08
5.08143e-10
0.000230198
3.90256e-08
-5.27717e-10
-3.90363e-08
5.27823e-10
0.000225995
4.06743e-08
-5.50205e-10
-4.06842e-08
5.50315e-10
0.000221513
4.23872e-08
-5.71903e-10
-4.23975e-08
5.72017e-10
0.000216752
4.41733e-08
-5.9609e-10
-4.4183e-08
5.96208e-10
0.000211736
4.60303e-08
-6.19979e-10
-4.60404e-08
6.201e-10
0.000206491
4.79664e-08
-6.46143e-10
-4.7976e-08
6.46269e-10
0.000201046
4.99807e-08
-6.72421e-10
-4.99906e-08
6.72552e-10
0.000195427
5.20807e-08
-7.00839e-10
-5.20902e-08
7.00975e-10
0.000189668
5.42667e-08
-7.29719e-10
-5.42765e-08
7.29859e-10
0.000183814
5.65459e-08
-7.60655e-10
-5.65554e-08
7.608e-10
0.000177922
5.89197e-08
-7.92339e-10
-5.89294e-08
7.92489e-10
0.000172042
6.13948e-08
-8.26024e-10
-6.14044e-08
8.2618e-10
0.000166188
6.39735e-08
-8.60687e-10
-6.39832e-08
8.60847e-10
0.000160332
6.66623e-08
-8.97317e-10
-6.66719e-08
8.97483e-10
0.000154401
6.94642e-08
-9.35131e-10
-6.94739e-08
9.35302e-10
0.000148291
7.23855e-08
-9.74926e-10
-7.23953e-08
9.75104e-10
0.000141891
7.54303e-08
-1.01614e-09
-7.54401e-08
1.01632e-09
0.000135104
7.86048e-08
-1.05942e-09
-7.86148e-08
1.05961e-09
0.000127834
8.19143e-08
-1.10441e-09
-8.19242e-08
1.10461e-09
0.000120006
8.53653e-08
-1.15167e-09
-8.53755e-08
1.15187e-09
0.000111616
8.89643e-08
-1.20099e-09
-8.89743e-08
1.2012e-09
0.000102776
9.27185e-08
-1.25283e-09
-9.27289e-08
1.25305e-09
9.36975e-05
9.66356e-08
-1.30711e-09
-9.66458e-08
1.30733e-09
8.46307e-05
1.00723e-07
-1.36408e-09
-1.00734e-07
1.36431e-09
7.58059e-05
1.0499e-07
-1.42371e-09
-1.05e-07
1.42395e-09
6.74331e-05
1.09443e-07
-1.48604e-09
-1.09454e-07
1.48629e-09
5.96686e-05
1.14092e-07
-1.55108e-09
-1.14102e-07
1.55134e-09
5.25126e-05
1.18942e-07
-1.61865e-09
-1.18954e-07
1.61891e-09
4.57563e-05
1.24004e-07
-1.68893e-09
-1.24015e-07
1.6892e-09
3.90816e-05
1.29283e-07
-1.76156e-09
-1.29295e-07
1.76185e-09
3.22469e-05
1.34789e-07
-1.83701e-09
-1.348e-07
1.8373e-09
2.52617e-05
1.40526e-07
-1.91464e-09
-1.40539e-07
1.91494e-09
1.83692e-05
1.46507e-07
-1.99515e-09
-1.46518e-07
1.99547e-09
1.19027e-05
1.52732e-07
-2.0775e-09
-1.52745e-07
2.07783e-09
6.13424e-06
1.59215e-07
-2.16264e-09
-1.59226e-07
2.16298e-09
1.22852e-06
1.65954e-07
-2.24898e-09
-1.65967e-07
2.24932e-09
-2.72038e-06
1.72961e-07
-2.33771e-09
-1.72972e-07
2.33807e-09
-5.76893e-06
1.80239e-07
-2.42865e-09
-1.80253e-07
2.42902e-09
-8.13016e-06
1.87801e-07
-2.52283e-09
-1.87813e-07
2.5232e-09
-1.00554e-05
1.95648e-07
-2.6186e-09
-1.95663e-07
2.61899e-09
-1.17666e-05
2.03795e-07
-2.71766e-09
-2.03807e-07
2.71806e-09
-1.3476e-05
2.12239e-07
-2.81774e-09
-2.12254e-07
2.81816e-09
-1.54377e-05
2.20997e-07
-2.92146e-09
-2.21009e-07
2.92189e-09
-1.79648e-05
2.30065e-07
-3.02584e-09
-2.30081e-07
3.02629e-09
-2.13656e-05
2.39463e-07
-3.13482e-09
-2.39475e-07
3.13526e-09
-2.59002e-05
2.49186e-07
-3.2447e-09
-2.49203e-07
3.24518e-09
-3.1755e-05
2.59263e-07
-3.3613e-09
-2.59275e-07
3.36177e-09
-3.9001e-05
2.69692e-07
-3.48e-09
-2.6971e-07
3.4805e-09
-4.76863e-05
2.80512e-07
-3.60905e-09
-2.80525e-07
3.60955e-09
-5.79071e-05
2.91727e-07
-3.74239e-09
-2.91746e-07
3.74292e-09
-6.96321e-05
3.03395e-07
-3.89167e-09
-3.03408e-07
3.89218e-09
-8.26425e-05
3.15527e-07
-4.04829e-09
-3.15547e-07
4.04886e-09
-9.67287e-05
3.28205e-07
-4.22843e-09
-3.28218e-07
4.22897e-09
-0.000111868
3.41447e-07
-4.4189e-09
-3.41469e-07
4.41951e-09
-0.000128228
3.55369e-07
-4.64319e-09
-3.55382e-07
4.64377e-09
-0.000145892
3.69997e-07
-4.88137e-09
-3.7002e-07
4.88202e-09
-0.000164609
3.85497e-07
-5.16907e-09
-3.8551e-07
5.16967e-09
-0.000183825
4.019e-07
-5.47358e-09
-4.01924e-07
5.47428e-09
-0.0002029
4.19437e-07
-5.84874e-09
-4.1945e-07
5.84938e-09
-0.000221356
4.3813e-07
-6.23766e-09
-4.38156e-07
6.23842e-09
-0.000238711
4.58294e-07
-6.72508e-09
-4.58308e-07
6.72576e-09
-0.000254103
4.79905e-07
-7.21156e-09
-4.79935e-07
7.21239e-09
-0.000266491
5.03397e-07
-7.83483e-09
-5.03413e-07
7.83556e-09
-0.000275302
5.28626e-07
-8.41903e-09
-5.28662e-07
8.41994e-09
-0.000280892
5.56201e-07
-9.19676e-09
-5.56222e-07
9.19754e-09
-0.000284441
5.85763e-07
-9.86505e-09
-5.85808e-07
9.86606e-09
-0.000287434
6.18226e-07
-1.08273e-08
-6.18255e-07
1.08282e-08
-0.000290989
6.52886e-07
-1.15658e-08
-6.52941e-07
1.15669e-08
-0.000295286
6.91191e-07
-1.27765e-08
-6.9123e-07
1.27773e-08
-0.000299681
7.3185e-07
-1.3567e-08
-7.31918e-07
1.35682e-08
-0.00030326
7.77215e-07
-1.51312e-08
-7.77263e-07
1.51321e-08
-0.000305174
8.24922e-07
-1.59185e-08
-8.25001e-07
1.59198e-08
-0.00030483
8.78852e-07
-1.7988e-08
-8.78906e-07
1.7989e-08
-0.000302044
9.34732e-07
-1.86439e-08
-9.34816e-07
1.86454e-08
-0.000297093
9.99039e-07
-2.14493e-08
-9.99093e-07
2.14503e-08
-0.000290265
1.06421e-06
-2.17422e-08
-1.0643e-06
2.17438e-08
-0.000281168
1.14113e-06
-2.5655e-08
-1.14118e-06
2.5656e-08
-0.000269116
1.21665e-06
-2.51998e-08
-1.21676e-06
2.52016e-08
-0.000254311
1.309e-06
-3.07989e-08
-1.30907e-06
3.08e-08
-0.000237693
1.39568e-06
-2.89666e-08
-1.39594e-06
2.89687e-08
-0.000220669
1.50696e-06
-3.71127e-08
-1.50726e-06
3.71138e-08
-0.000204717
1.60557e-06
-3.29418e-08
-1.60604e-06
3.29442e-08
-0.000190632
1.73923e-06
-4.48958e-08
-1.74066e-06
4.48969e-08
-0.000178084
1.59242e-06
4.93309e-08
-1.59278e-06
-4.9338e-08
-0.000166675
1.46479e-06
4.26033e-08
-1.46503e-06
-4.26117e-08
-0.000156767
1.29445e-06
5.68418e-08
-1.29464e-06
-5.68495e-08
-0.000149282
1.13978e-06
5.16095e-08
-1.13988e-06
-5.16171e-08
-0.000144036
9.40545e-07
6.64692e-08
-9.40632e-07
-6.64776e-08
-0.000139521
7.50693e-07
6.33366e-08
-7.50724e-07
-6.33433e-08
-0.000134491
5.15386e-07
7.84921e-08
-5.15419e-07
-7.85011e-08
-0.00012998
2.80978e-07
7.81924e-08
-2.80981e-07
-7.81985e-08
-0.000128028
9.28224e-08
2.67948e-09
-9.28322e-08
-2.68038e-09
6.31743e-07
-2.66452e-11
2.67904e-11
1.9306e-06
-6.7344e-11
6.7598e-11
3.28454e-06
-1.03322e-10
1.03724e-10
4.69529e-06
-1.27259e-10
1.27738e-10
6.16461e-06
-1.40958e-10
1.41519e-10
7.69432e-06
-1.49304e-10
1.49891e-10
9.28634e-06
-1.5495e-10
1.55575e-10
1.09427e-05
-1.59174e-10
1.59801e-10
1.26655e-05
-1.62509e-10
1.63164e-10
1.44572e-05
-1.65308e-10
1.65963e-10
1.632e-05
-1.67701e-10
1.6838e-10
1.82566e-05
-1.69839e-10
1.70517e-10
2.02696e-05
-1.7175e-10
1.72452e-10
2.23619e-05
-1.73524e-10
1.74225e-10
2.45363e-05
-1.75156e-10
1.75878e-10
2.67959e-05
-1.76708e-10
1.77431e-10
2.91439e-05
-1.78164e-10
1.78907e-10
3.15836e-05
-1.79574e-10
1.80318e-10
3.41181e-05
-1.80916e-10
1.81678e-10
3.67511e-05
-1.82231e-10
1.82995e-10
3.9486e-05
-1.83497e-10
1.8428e-10
4.23263e-05
-1.8475e-10
1.85535e-10
4.52756e-05
-1.85968e-10
1.8677e-10
4.83375e-05
-1.87182e-10
1.87987e-10
5.15154e-05
-1.8837e-10
1.89192e-10
5.48131e-05
-1.89562e-10
1.90387e-10
5.82338e-05
-1.90737e-10
1.91577e-10
6.17809e-05
-1.91919e-10
1.92764e-10
6.54577e-05
-1.93092e-10
1.93952e-10
6.92673e-05
-1.94277e-10
1.95142e-10
7.32124e-05
-1.9546e-10
1.96337e-10
7.72958e-05
-1.96657e-10
1.97541e-10
8.15199e-05
-1.97858e-10
1.98753e-10
8.58866e-05
-1.99076e-10
1.99978e-10
9.03979e-05
-2.00305e-10
2.01215e-10
9.50549e-05
-2.01553e-10
2.02471e-10
9.98588e-05
-2.02817e-10
2.03742e-10
0.00010481
-2.04102e-10
2.05035e-10
0.000109908
-2.0541e-10
2.06347e-10
0.000115153
-2.06742e-10
2.07686e-10
0.000120544
-2.08101e-10
2.09048e-10
0.000126078
-2.09487e-10
2.10441e-10
0.000131754
-2.10907e-10
2.1186e-10
0.000137568
-2.12356e-10
2.13315e-10
0.000143517
-2.13845e-10
2.148e-10
0.000149595
-2.15365e-10
2.16326e-10
0.000155799
-2.16933e-10
2.17886e-10
0.00016212
-2.18535e-10
2.19492e-10
0.000168554
-2.2019e-10
2.21135e-10
0.000175091
-2.21882e-10
2.2283e-10
0.000181723
-2.23636e-10
2.24567e-10
0.000188441
-2.25429e-10
2.26361e-10
0.000195234
-2.27291e-10
2.28202e-10
0.000202091
-2.29196e-10
2.30105e-10
0.000208999
-2.31178e-10
2.3206e-10
0.000215947
-2.33205e-10
2.34083e-10
0.00022292
-2.35316e-10
2.36162e-10
0.000229904
-2.37476e-10
2.38315e-10
0.000236884
-2.39727e-10
2.40529e-10
0.000243843
-2.42031e-10
2.42823e-10
0.000250766
-2.44432e-10
2.45182e-10
0.000257636
-2.46889e-10
2.47625e-10
0.000264435
-2.49449e-10
2.50138e-10
0.000271145
-2.52067e-10
2.5274e-10
0.00027775
-2.54793e-10
2.55414e-10
0.00028423
-2.57578e-10
2.5818e-10
0.00029057
-2.60476e-10
2.61021e-10
0.00029675
-2.63433e-10
2.63957e-10
0.000302754
-2.66506e-10
2.66968e-10
0.000308566
-2.69637e-10
2.70074e-10
0.00031417
-2.72885e-10
2.73258e-10
0.000319551
-2.7619e-10
2.76536e-10
0.000324696
-2.79612e-10
2.7989e-10
0.000329591
-2.8309e-10
2.83339e-10
0.000334226
-2.86684e-10
2.86863e-10
0.000338591
-2.90333e-10
2.90481e-10
0.000342677
-2.94098e-10
2.94175e-10
0.000346479
-2.97918e-10
2.97961e-10
0.000349991
-3.01853e-10
3.01824e-10
0.000353211
-3.05844e-10
3.05781e-10
0.000356137
-3.09953e-10
3.09816e-10
0.00035877
-3.14121e-10
3.13947e-10
0.000361111
-3.18408e-10
3.1816e-10
0.000363164
-3.22758e-10
3.22474e-10
0.000364934
-3.27235e-10
3.26875e-10
0.000366428
-3.31781e-10
3.31382e-10
0.000367654
-3.36458e-10
3.35985e-10
0.00036862
-3.41214e-10
3.40702e-10
0.000369336
-3.46111e-10
3.45524e-10
0.000369813
-3.51098e-10
3.5047e-10
0.000370062
-3.56234e-10
3.55532e-10
0.000370096
-3.61474e-10
3.6073e-10
0.000369926
-3.66875e-10
3.66056e-10
0.000369565
-3.72395e-10
3.71533e-10
0.000369026
-3.78088e-10
3.77153e-10
0.000368321
-3.83918e-10
3.82938e-10
0.000367464
-3.89936e-10
3.88882e-10
0.000366465
-3.96109e-10
3.95008e-10
0.000365338
-4.02486e-10
4.01314e-10
0.000364095
-4.09039e-10
4.07818e-10
0.000362745
-4.15814e-10
4.14521e-10
0.000361301
-4.22787e-10
4.21444e-10
0.000359772
-4.30001e-10
4.28589e-10
0.000358168
-4.37439e-10
4.35975e-10
0.000356499
-4.4514e-10
4.43607e-10
0.000354771
-4.5309e-10
4.51504e-10
0.000352994
-4.61326e-10
4.59674e-10
0.000351175
-4.6984e-10
4.68134e-10
0.000349319
-4.78667e-10
4.76897e-10
0.000347434
-4.87804e-10
4.85977e-10
0.000345524
-4.9728e-10
4.95393e-10
0.000343594
-5.071e-10
5.05156e-10
0.00034165
-5.1729e-10
5.15288e-10
0.000339694
-5.27862e-10
5.25802e-10
0.00033773
-5.38837e-10
5.36723e-10
0.000335761
-5.50233e-10
5.48061e-10
0.000333791
-5.6207e-10
5.59847e-10
0.00033182
-5.74372e-10
5.72089e-10
0.000329851
-5.87154e-10
5.84825e-10
0.000327886
-6.00448e-10
5.9806e-10
0.000325925
-6.14268e-10
6.11838e-10
0.00032397
-6.28651e-10
6.2616e-10
0.000322023
-6.43608e-10
6.4108e-10
0.000320082
-6.59184e-10
6.56595e-10
0.00031815
-6.75388e-10
6.72768e-10
0.000316226
-6.92272e-10
6.89588e-10
0.00031431
-7.09842e-10
7.07134e-10
0.000312404
-7.2816e-10
7.25386e-10
0.000310507
-7.47227e-10
7.44437e-10
0.00030862
-7.67116e-10
7.64257e-10
0.000306744
-7.87826e-10
7.84958e-10
0.000304878
-8.09437e-10
8.06496e-10
0.000303023
-8.31945e-10
8.29005e-10
0.00030118
-8.55444e-10
8.52426e-10
0.00029935
-8.79925e-10
8.76918e-10
0.000297533
-9.05493e-10
9.02402e-10
0.00029573
-9.32136e-10
9.29069e-10
0.000293942
-9.59973e-10
9.56813e-10
0.000292169
-9.88988e-10
9.85867e-10
0.000290413
-1.01931e-09
1.01609e-09
0.000288675
-1.05093e-09
1.04776e-09
0.000286955
-1.08398e-09
1.0807e-09
0.000285256
-1.11845e-09
1.11525e-09
0.000283579
-1.1545e-09
1.15116e-09
0.000281925
-1.1921e-09
1.18886e-09
0.000280296
-1.23143e-09
1.22804e-09
0.000278695
-1.27248e-09
1.26922e-09
0.000277123
-1.3154e-09
1.31196e-09
0.000275584
-1.36023e-09
1.35697e-09
0.000274078
-1.4071e-09
1.40363e-09
0.00027261
-1.45609e-09
1.45284e-09
0.000271182
-1.50729e-09
1.50379e-09
0.000269797
-1.56085e-09
1.55764e-09
0.000268458
-1.6168e-09
1.61328e-09
0.000267167
-1.6754e-09
1.67223e-09
0.000265928
-1.73654e-09
1.73301e-09
0.000264743
-1.8007e-09
1.79761e-09
0.000263615
-1.86752e-09
1.864e-09
0.000262545
-1.93781e-09
1.93482e-09
0.000261535
-2.01084e-09
2.00733e-09
0.000260584
-2.08791e-09
2.08505e-09
0.000259692
-2.1677e-09
2.16422e-09
0.000258856
-2.25229e-09
2.24961e-09
0.000258074
-2.33943e-09
2.336e-09
0.00025734
-2.43237e-09
2.42991e-09
0.000256652
-2.52745e-09
2.52409e-09
0.000256004
-2.62972e-09
2.62752e-09
0.000255391
-2.73336e-09
2.73006e-09
0.000254811
-2.84609e-09
2.84419e-09
0.00025426
-2.95884e-09
2.9556e-09
0.000253738
-3.0834e-09
3.08182e-09
0.000253246
-3.20576e-09
3.20253e-09
0.000252788
-3.34381e-09
3.34253e-09
0.000252367
-3.47612e-09
3.47283e-09
0.000251988
-3.62973e-09
3.62874e-09
0.000251658
-3.77204e-09
3.76864e-09
0.00025138
-3.94387e-09
3.9432e-09
0.000251158
-4.09579e-09
4.09223e-09
0.000250995
-4.28932e-09
4.28901e-09
0.000250894
-4.44969e-09
4.44555e-09
0.000250855
-4.66961e-09
4.66947e-09
0.000250876
-4.83608e-09
4.83129e-09
0.000250957
-5.08887e-09
5.08648e-09
0.000251091
-5.28785e-09
5.2848e-09
0.000251275
-5.5814e-09
5.57861e-09
0.000251505
-5.84423e-09
5.84085e-09
0.000251776
-6.18698e-09
6.18415e-09
0.000252086
-6.52466e-09
6.5216e-09
0.000252433
-6.92546e-09
6.92243e-09
0.000252817
-7.34985e-09
7.34646e-09
0.000253244
-7.73913e-09
7.73593e-09
0.000253718
-8.1761e-09
8.1729e-09
0.000254244
-8.54611e-09
8.54186e-09
0.000254825
-8.99699e-09
8.99238e-09
0.000255464
-9.34599e-09
9.34183e-09
0.000256161
-9.81414e-09
9.81197e-09
0.000256918
-1.01581e-08
1.01515e-08
0.000257733
-1.0649e-08
1.06465e-08
0.000258604
-1.10451e-08
1.10386e-08
0.000259522
-1.15648e-08
1.15621e-08
0.000260471
-1.20141e-08
1.20077e-08
0.000261435
-1.2568e-08
1.25654e-08
0.00026239
-1.30721e-08
1.30662e-08
0.000263308
-1.36658e-08
1.36634e-08
0.000264162
-1.42267e-08
1.42214e-08
0.000264924
-1.48655e-08
1.48635e-08
0.000265568
-1.54858e-08
1.54811e-08
0.000266079
-1.61751e-08
1.61734e-08
0.000266448
-1.68578e-08
1.68538e-08
0.000266675
-1.76028e-08
1.76016e-08
0.000266759
-1.83515e-08
1.83482e-08
0.000266694
-1.91576e-08
1.91568e-08
0.00026647
-1.9976e-08
1.99734e-08
0.000266069
-2.08487e-08
2.08484e-08
0.000265471
-2.17411e-08
2.17393e-08
0.000264653
-2.2686e-08
2.26863e-08
0.000263592
-2.36573e-08
2.36561e-08
0.000262268
-2.46804e-08
2.46811e-08
0.000260657
-2.57357e-08
2.57352e-08
0.000258741
-2.68432e-08
2.68444e-08
0.000256512
-2.79886e-08
2.79888e-08
0.000253981
-2.91875e-08
2.91892e-08
0.000251173
-3.04296e-08
3.04304e-08
0.000248127
-3.17275e-08
3.17296e-08
0.000244882
-3.30738e-08
3.30753e-08
0.000241468
-3.4479e-08
3.44816e-08
0.000237895
-3.59382e-08
3.59401e-08
0.000234152
-3.74598e-08
3.74628e-08
0.000230199
-3.9041e-08
3.90435e-08
0.000225996
-4.0689e-08
4.06924e-08
0.000221515
-4.24026e-08
4.24056e-08
0.000216753
-4.41883e-08
4.41921e-08
0.000211736
-4.6046e-08
4.60495e-08
0.000206491
-4.79818e-08
4.7986e-08
0.000201047
-4.99967e-08
5.00006e-08
0.000195427
-5.20965e-08
5.2101e-08
0.000189668
-5.42831e-08
5.42875e-08
0.000183814
-5.65623e-08
5.65672e-08
0.000177922
-5.89366e-08
5.89415e-08
0.000172042
-6.14118e-08
6.14171e-08
0.000166187
-6.3991e-08
6.39963e-08
0.00016033
-6.668e-08
6.66856e-08
0.000154399
-6.94823e-08
6.94881e-08
0.000148289
-7.2404e-08
7.24101e-08
0.000141888
-7.54491e-08
7.54555e-08
0.0001351
-7.86242e-08
7.86307e-08
0.00012783
-8.19339e-08
8.19408e-08
0.000120001
-8.53856e-08
8.53925e-08
0.000111611
-8.89849e-08
8.89923e-08
0.00010277
-9.27399e-08
9.27472e-08
9.36914e-05
-9.66572e-08
9.66652e-08
8.46243e-05
-1.00746e-07
1.00754e-07
7.57992e-05
-1.05013e-07
1.05021e-07
6.74261e-05
-1.09467e-07
1.09475e-07
5.96615e-05
-1.14116e-07
1.14125e-07
5.25055e-05
-1.18967e-07
1.18976e-07
4.57493e-05
-1.24029e-07
1.24039e-07
3.90748e-05