/*--------------------------------*- C++ -*----------------------------------*\
| =========                 |                                                 |
| \\      /  F ield         | OpenFOAM: The Open Source CFD Toolbox           |
|  \\    /   O peration     | Version:  2012                                  |
|   \\  /    A nd           | Website:  www.openfoam.com                      |
|    \\/     M anipulation  |                                                 |
\*---------------------------------------------------------------------------*/
FoamFile
{
    version     2.0;
    format      ascii;
    class       volSymmTensorField;
    location    "13800";
    object      turbulenceProperties:R;
}
// * * * * * * * * * * * * * * * * * * * * * * * * * * * * * * * * * * * * * //

dimensions      [0 2 -2 0 0 0 0];


internalField   nonuniform List<symmTensor> 
2560
(
(0.00335896 -3.98435e-06 -5.77077e-09 0.00335896 1.41582e-11 0.00335896)
(0.00335896 -3.98435e-06 -5.77078e-09 0.00335896 1.60723e-15 0.00335896)
(0.0784872 -0.000535267 -2.338e-06 0.0784872 -1.40471e-13 0.0784872)
(0.0784873 -0.000535268 -2.338e-06 0.0784873 6.46866e-13 0.0784873)
(0.550396 -0.0111977 -6.71779e-05 0.550396 -1.23839e-08 0.550396)
(0.550396 -0.0111977 -6.7178e-05 0.550396 2.24224e-11 0.550396)
(1.79164 -0.0785526 -0.000478092 1.79164 -1.10331e-07 1.79164)
(1.79164 -0.0785527 -0.000478093 1.79164 1.64091e-10 1.79164)
(3.54336 -0.265996 -0.00164241 3.54336 -2.54487e-07 3.54336)
(3.54336 -0.265996 -0.00164241 3.54336 4.1019e-10 3.54336)
(5.2952 -0.572359 -0.0035854 5.2952 -2.77649e-07 5.2952)
(5.2952 -0.57236 -0.0035854 5.2952 7.5419e-10 5.2952)
(6.89064 -0.961078 -0.00610799 6.89064 -2.35692e-07 6.89064)
(6.89064 -0.961079 -0.006108 6.89064 1.41038e-09 6.89064)
(8.33889 -1.40399 -0.00905281 8.33889 -1.92398e-07 8.33889)
(8.33889 -1.40399 -0.00905281 8.33889 2.45691e-09 8.33889)
(9.67174 -1.88411 -0.0123258 9.67174 -1.60523e-07 9.67174)
(9.67174 -1.88411 -0.0123258 9.67174 3.84805e-09 9.67174)
(10.9153 -2.39104 -0.0158705 10.9153 -1.38845e-07 10.9153)
(10.9153 -2.39104 -0.0158705 10.9153 5.54889e-09 10.9153)
(12.0882 -2.91803 -0.0196515 12.0882 -1.24869e-07 12.0882)
(12.0882 -2.91803 -0.0196515 12.0882 7.64128e-09 12.0882)
(13.2038 -3.46045 -0.0236452 13.2038 -1.16894e-07 13.2038)
(13.2038 -3.46045 -0.0236452 13.2038 1.00954e-08 13.2038)
(14.2716 -4.015 -0.0278358 14.2716 -1.13852e-07 14.2716)
(14.2716 -4.015 -0.0278358 14.2716 1.29365e-08 14.2716)
(15.2982 -4.57921 -0.0322122 15.2982 -1.15139e-07 15.2982)
(15.2982 -4.57921 -0.0322122 15.2982 1.62302e-08 15.2982)
(16.289 -5.15122 -0.0367663 16.289 -1.20484e-07 16.289)
(16.289 -5.15122 -0.0367663 16.289 1.99624e-08 16.289)
(17.2475 -5.72954 -0.0414925 17.2475 -1.29745e-07 17.2475)
(17.2475 -5.72954 -0.0414925 17.2475 2.41843e-08 17.2475)
(18.1765 -6.31294 -0.0463863 18.1765 -1.43002e-07 18.1765)
(18.1765 -6.31294 -0.0463863 18.1765 -3.55919e-08 18.1765)
(19.0782 -6.90036 -0.0514439 19.0782 -1.6036e-07 19.0782)
(19.0782 -6.90036 -0.0514439 19.0782 -1.35845e-07 19.0782)
(19.9539 -7.49083 -0.0566618 19.9539 -1.82016e-07 19.9539)
(19.9539 -7.49082 -0.0566618 19.9539 -1.82328e-07 19.9539)
(20.8047 -8.0834 -0.0620366 20.8047 -2.0826e-07 20.8047)
(20.8047 -8.0834 -0.0620366 20.8047 -2.08591e-07 20.8047)
(21.6311 -8.67714 -0.0675641 21.6311 -1.8543e-07 21.6311)
(21.6311 -8.67714 -0.067564 21.6311 -2.39744e-07 21.6311)
(22.4335 -9.27105 -0.0732393 22.4335 -1.08839e-07 22.4335)
(22.4335 -9.27105 -0.0732393 22.4335 -2.76148e-07 22.4335)
(23.2119 -9.86404 -0.0790563 23.2119 -7.45826e-08 23.2119)
(23.2119 -9.86404 -0.0790563 23.2119 -3.18125e-07 23.2119)
(23.9661 -10.455 -0.0850079 23.9661 -8.42665e-08 23.9661)
(23.9661 -10.4549 -0.0850079 23.9661 -3.66259e-07 23.9661)
(24.6956 -11.0425 -0.0910851 24.6956 -9.45957e-08 24.6956)
(24.6956 -11.0425 -0.0910851 24.6956 -4.20808e-07 24.6956)
(25.4 -11.6252 -0.0972769 25.4 -1.05503e-07 25.4)
(25.4 -11.6251 -0.0972769 25.4 -4.82464e-07 25.4)
(26.0785 -12.2014 -0.103571 26.0785 -1.17133e-07 26.0785)
(26.0785 -12.2014 -0.103571 26.0785 -5.20289e-07 26.0785)
(26.7303 -12.7694 -0.109952 26.7303 -1.30133e-07 26.7303)
(26.7303 -12.7694 -0.109952 26.7303 -4.04317e-10 26.7303)
(27.3543 -13.3274 -0.116404 27.3543 -1.43674e-07 27.3543)
(27.3543 -13.3274 -0.116404 27.3543 4.89278e-08 27.3543)
(27.9495 -13.8732 -0.122905 27.9495 -1.58026e-07 27.9495)
(27.9495 -13.8732 -0.122905 27.9495 4.14799e-08 27.9495)
(28.5147 -14.4046 -0.129435 28.5147 -1.73128e-07 28.5147)
(28.5147 -14.4046 -0.129435 28.5147 3.4574e-08 28.5147)
(29.0488 -14.9193 -0.135968 29.0488 -1.89931e-07 29.0488)
(29.0488 -14.9193 -0.135968 29.0488 2.75619e-08 29.0488)
(29.5505 -15.4148 -0.142478 29.5505 -2.07194e-07 29.5505)
(29.5505 -15.4148 -0.142478 29.5505 2.12337e-08 29.5505)
(30.0184 -15.8884 -0.148935 30.0184 -2.25396e-07 30.0184)
(30.0184 -15.8884 -0.148935 30.0184 1.48829e-08 30.0184)
(30.4514 -16.3375 -0.155306 30.4514 -2.44719e-07 30.4514)
(30.4514 -16.3375 -0.155306 30.4514 8.85997e-09 30.4514)
(30.8482 -16.7593 -0.161558 30.8482 -2.658e-07 30.8482)
(30.8482 -16.7593 -0.161558 30.8482 2.69608e-09 30.8482)
(31.2075 -17.151 -0.167654 31.2075 -2.874e-07 31.2075)
(31.2075 -17.151 -0.167654 31.2075 -2.91449e-09 31.2075)
(31.5281 -17.5098 -0.173554 31.5281 -3.10025e-07 31.5281)
(31.5281 -17.5098 -0.173554 31.5281 -3.22984e-08 31.5281)
(31.809 -17.8328 -0.17922 31.809 -3.33963e-07 31.809)
(31.809 -17.8328 -0.17922 31.809 -2.01477e-07 31.809)
(32.0493 -18.1174 -0.184609 32.0493 -3.59894e-07 32.0493)
(32.0493 -18.1174 -0.184609 32.0493 -3.60597e-07 32.0493)
(32.248 -18.3608 -0.18968 32.248 -3.86634e-07 32.248)
(32.248 -18.3608 -0.18968 32.248 -3.87355e-07 32.248)
(32.4045 -18.5604 -0.194386 32.4045 -4.14208e-07 32.4045)
(32.4045 -18.5604 -0.194386 32.4045 -4.14945e-07 32.4045)
(32.5182 -18.7139 -0.198686 32.5182 -4.43314e-07 32.5182)
(32.5182 -18.7139 -0.198686 32.5182 -4.44068e-07 32.5182)
(32.589 -18.8189 -0.202536 32.589 -4.74728e-07 32.589)
(32.589 -18.8189 -0.202536 32.589 -4.75498e-07 32.589)
(32.6167 -18.8736 -0.205892 32.6167 -5.06248e-07 32.6167)
(32.6167 -18.8736 -0.205892 32.6167 -5.07057e-07 32.6167)
(32.6016 -18.876 -0.208712 32.6016 -5.40189e-07 32.6016)
(32.6016 -18.876 -0.208712 32.6016 -5.40991e-07 32.6016)
(32.544 -18.8247 -0.210954 32.544 -5.73884e-07 32.544)
(32.544 -18.8247 -0.210954 32.544 -5.75017e-07 32.544)
(32.4448 -18.7185 -0.212579 32.4448 -6.12573e-07 32.4448)
(32.4448 -18.7185 -0.212579 32.4448 -6.13551e-07 32.4448)
(32.305 -18.5563 -0.21355 32.305 -6.49133e-07 32.305)
(32.305 -18.5563 -0.21355 32.305 -6.4998e-07 32.305)
(32.1261 -18.3377 -0.213832 32.1261 -6.84674e-07 32.1261)
(32.1261 -18.3377 -0.213832 32.1261 -6.85573e-07 32.1261)
(31.9097 -18.0626 -0.2134 31.9097 -7.28164e-07 31.9097)
(31.9097 -18.0626 -0.2134 31.9097 -7.29179e-07 31.9097)
(31.6579 -17.7313 -0.212221 31.6579 -7.72249e-07 31.6579)
(31.6579 -17.7313 -0.212221 31.6579 -7.75224e-07 31.6579)
(31.3732 -17.3438 -0.210268 31.3732 -8.05332e-07 31.3732)
(31.3732 -17.3438 -0.210268 31.3732 -8.10759e-07 31.3732)
(31.0584 -16.9014 -0.207532 31.0584 -8.57568e-07 31.0584)
(31.0584 -16.9014 -0.207532 31.0584 -8.62092e-07 31.0584)
(30.7164 -16.4053 -0.20399 30.7164 -8.97844e-07 30.7164)
(30.7163 -16.4053 -0.20399 30.7163 -9.01307e-07 30.7163)
(30.3506 -15.8569 -0.199631 30.3506 -9.45331e-07 30.3506)
(30.3506 -15.8569 -0.199631 30.3506 -9.46271e-07 30.3506)
(29.9649 -15.2581 -0.194454 29.9649 -9.93169e-07 29.9649)
(29.9649 -15.2581 -0.194454 29.9649 -9.95088e-07 29.9649)
(29.5632 -14.6114 -0.188454 29.5632 -1.03084e-06 29.5632)
(29.5632 -14.6114 -0.188454 29.5632 -1.0355e-06 29.5632)
(29.1497 -13.9191 -0.181639 29.1497 -1.08235e-06 29.1497)
(29.1497 -13.9191 -0.181639 29.1497 -1.08554e-06 29.1497)
(28.7287 -13.184 -0.174012 28.7287 -1.12553e-06 28.7287)
(28.7287 -13.184 -0.174012 28.7287 -1.12945e-06 28.7287)
(28.3049 -12.4087 -0.165583 28.3049 -1.1757e-06 28.3049)
(28.3049 -12.4087 -0.165583 28.3049 -1.17805e-06 28.3049)
(27.8829 -11.5963 -0.156365 27.8829 -1.21097e-06 27.8829)
(27.8829 -11.5963 -0.156365 27.8829 -1.21454e-06 27.8829)
(27.4674 -10.7497 -0.146378 27.4674 -1.2519e-06 27.4674)
(27.4674 -10.7497 -0.146378 27.4674 -1.25361e-06 27.4674)
(27.0629 -9.87235 -0.135644 27.0629 -1.30237e-06 27.0629)
(27.0629 -9.87235 -0.135644 27.0629 -1.30497e-06 27.0629)
(26.674 -8.96694 -0.12417 26.674 -1.3311e-06 26.674)
(26.674 -8.96694 -0.12417 26.674 -1.33217e-06 26.674)
(26.3051 -8.03642 -0.11199 26.3051 -1.36298e-06 26.3051)
(26.3051 -8.03642 -0.11199 26.3051 -1.36773e-06 26.3051)
(25.9602 -7.08408 -0.0991265 25.9602 -1.40036e-06 25.9602)
(25.9602 -7.08408 -0.0991265 25.9602 -1.40527e-06 25.9602)
(25.643 -6.11261 -0.0855973 25.643 -1.41896e-06 25.643)
(25.643 -6.11261 -0.0855973 25.643 -1.43098e-06 25.643)
(25.3569 -5.12466 -0.0714278 25.3569 -1.4571e-06 25.3569)
(25.3569 -5.12466 -0.0714278 25.3569 -1.46934e-06 25.3569)
(25.1045 -4.1229 -0.0566413 25.1045 -1.45204e-06 25.1045)
(25.1045 -4.1229 -0.0566413 25.1045 -1.47328e-06 25.1045)
(24.8882 -3.11016 -0.041271 24.8882 -1.4967e-06 24.8882)
(24.8882 -3.11016 -0.041271 24.8882 -1.51432e-06 24.8882)
(24.7097 -2.089 -0.0253349 24.7097 -1.48795e-06 24.7097)
(24.7097 -2.089 -0.0253348 24.7097 -1.51045e-06 24.7097)
(24.5698 -1.06207 -0.00887261 24.5698 -1.52472e-06 24.5698)
(24.5698 -1.06207 -0.00887259 24.5698 -1.53911e-06 24.5698)
(24.469 -0.000227165 -1.88659e-06 24.469 -1.51979e-06 24.469)
(24.469 -0.000227555 -1.88983e-06 24.469 -1.53842e-06 24.469)
(24.407 0.977292 -0.00823436 24.407 -1.54986e-06 24.407)
(24.407 0.977294 -0.00823438 24.407 -1.55975e-06 24.407)
(24.3828 2.02295 -0.0259918 24.3828 -1.54091e-06 24.3828)
(24.3828 2.02295 -0.0259918 24.3828 -1.55652e-06 24.3828)
(24.3948 3.04196 -0.0441867 24.3948 -1.56783e-06 24.3948)
(24.3948 3.04196 -0.0441867 24.3948 -1.57126e-06 24.3948)
(24.4408 4.0497 -0.0627485 24.4408 -1.573e-06 24.4408)
(24.4408 4.0497 -0.0627485 24.4408 -1.57959e-06 24.4408)
(24.5184 5.04216 -0.0816061 24.5184 -1.58744e-06 24.5184)
(24.5184 5.04216 -0.0816062 24.5184 -1.59479e-06 24.5184)
(24.6242 6.01502 -0.100685 24.6242 -1.6108e-06 24.6242)
(24.6242 6.01503 -0.100685 24.6242 -1.61329e-06 24.6242)
(24.755 6.96358 -0.119895 24.755 -1.60719e-06 24.755)
(24.755 6.96359 -0.119895 24.755 -1.62516e-06 24.755)
(24.907 7.88282 -0.139137 24.907 -1.65325e-06 24.907)
(24.907 7.88282 -0.139137 24.907 -1.66364e-06 24.907)
(25.0764 8.76806 -0.158298 25.0764 -1.65174e-06 25.0764)
(25.0764 8.76806 -0.158298 25.0764 -1.67374e-06 25.0764)
(25.259 9.61471 -0.177283 25.259 -1.70272e-06 25.259)
(25.259 9.61471 -0.177283 25.259 -1.71049e-06 25.259)
(25.451 10.418 -0.195971 25.451 -1.72543e-06 25.451)
(25.451 10.418 -0.195971 25.451 -1.74314e-06 25.451)
(25.6482 11.174 -0.214249 25.6482 -1.78056e-06 25.6482)
(25.6482 11.174 -0.214249 25.6482 -1.78662e-06 25.6482)
(25.8469 11.8792 -0.232018 25.8469 -1.80063e-06 25.8469)
(25.8469 11.8792 -0.232018 25.8469 -1.82111e-06 25.8469)
(26.0433 12.5305 -0.249175 26.0433 -1.8647e-06 26.0433)
(26.0433 12.5305 -0.249175 26.0433 -1.87245e-06 26.0433)
(26.234 13.1251 -0.265621 26.234 -1.8829e-06 26.234)
(26.234 13.1251 -0.265621 26.234 -1.90627e-06 26.234)
(26.4156 13.6609 -0.281268 26.4156 -1.96194e-06 26.4156)
(26.4156 13.6609 -0.281268 26.4156 -1.96926e-06 26.4156)
(26.5853 14.1366 -0.296029 26.5853 -2.00182e-06 26.5853)
(26.5853 14.1366 -0.296029 26.5853 -2.01972e-06 26.5853)
(26.7403 14.5518 -0.309847 26.7403 -2.07179e-06 26.7403)
(26.7403 14.5518 -0.309847 26.7403 -2.07373e-06 26.7403)
(26.8783 14.9067 -0.322672 26.8783 -2.10718e-06 26.8783)
(26.8783 14.9067 -0.322672 26.8783 -2.12184e-06 26.8783)
(26.9974 15.2016 -0.334461 26.9974 -2.17402e-06 26.9974)
(26.9974 15.2016 -0.334461 26.9974 -2.17605e-06 26.9974)
(27.0959 15.4377 -0.345178 27.0959 -2.25107e-06 27.0959)
(27.0959 15.4377 -0.345178 27.0959 -2.25313e-06 27.0959)
(27.1724 15.6173 -0.35481 27.1724 -2.2738e-06 27.1724)
(27.1724 15.6173 -0.35481 27.1724 -2.29443e-06 27.1724)
(27.2258 15.7423 -0.363367 27.2258 -2.35194e-06 27.2258)
(27.2258 15.7423 -0.363367 27.2258 -2.35408e-06 27.2258)
(27.2554 15.8152 -0.370838 27.2554 -2.40799e-06 27.2554)
(27.2554 15.8152 -0.370838 27.2554 -2.41017e-06 27.2554)
(27.2607 15.8392 -0.377243 27.2607 -2.44847e-06 27.2607)
(27.2607 15.8392 -0.377243 27.2607 -2.46803e-06 27.2607)
(27.2415 15.8173 -0.382616 27.2415 -2.53446e-06 27.2415)
(27.2415 15.8173 -0.382616 27.2415 -2.54071e-06 27.2415)
(27.1979 15.7531 -0.386985 27.1979 -2.54841e-06 27.1979)
(27.1979 15.7531 -0.386985 27.1979 -2.5732e-06 27.1979)
(27.1299 15.6502 -0.390401 27.1299 -2.61229e-06 27.1299)
(27.1299 15.6502 -0.390401 27.1299 -2.61461e-06 27.1299)
(27.0381 15.5117 -0.392902 27.0381 -2.66335e-06 27.0381)
(27.0381 15.5117 -0.392902 27.0381 -2.67597e-06 27.0381)
(26.923 15.3413 -0.394535 26.923 -2.70531e-06 26.923)
(26.923 15.3413 -0.394535 26.923 -2.70769e-06 26.923)
(26.7853 15.1426 -0.395361 26.7853 -2.73727e-06 26.7853)
(26.7853 15.1426 -0.395361 26.7853 -2.75544e-06 26.7853)
(26.6258 14.9189 -0.395431 26.6258 -2.79447e-06 26.6258)
(26.6258 14.9189 -0.395431 26.6258 -2.79692e-06 26.6258)
(26.4454 14.6737 -0.394808 26.4454 -2.79696e-06 26.4454)
(26.4454 14.6737 -0.394808 26.4454 -2.82334e-06 26.4454)
(26.2452 14.4097 -0.393549 26.2452 -2.86032e-06 26.2452)
(26.2452 14.4097 -0.393549 26.2452 -2.86586e-06 26.2452)
(26.0261 14.1301 -0.391703 26.0261 -2.85416e-06 26.0261)
(26.0261 14.1301 -0.391703 26.0261 -2.87861e-06 26.0261)
(25.7893 13.8377 -0.389335 25.7893 -2.88689e-06 25.7893)
(25.7893 13.8377 -0.389335 25.7893 -2.88945e-06 25.7893)
(25.5359 13.5347 -0.386495 25.5359 -2.91272e-06 25.5359)
(25.5359 13.5347 -0.386495 25.5359 -2.92652e-06 25.5359)
(25.267 13.2235 -0.383225 25.267 -2.92242e-06 25.267)
(25.267 13.2235 -0.383225 25.267 -2.92503e-06 25.267)
(24.9837 12.9065 -0.379587 24.9837 -2.91302e-06 24.9837)
(24.9837 12.9065 -0.379587 24.9837 -2.93956e-06 24.9837)
(24.6872 12.5854 -0.375625 24.6872 -2.94164e-06 24.6872)
(24.6872 12.5854 -0.375625 24.6872 -2.95535e-06 24.6872)
(24.3785 12.2619 -0.371376 24.3785 -2.89149e-06 24.3785)
(24.3785 12.2619 -0.371376 24.3785 -2.93884e-06 24.3785)
(24.0588 11.9375 -0.366881 24.0588 -2.94104e-06 24.0588)
(24.0588 11.9375 -0.366881 24.0588 -2.97596e-06 24.0588)
(23.7291 11.6137 -0.362181 23.7291 -2.86612e-06 23.7291)
(23.7291 11.6137 -0.362181 23.7291 -2.93044e-06 23.7291)
(23.3904 11.2916 -0.357309 23.3904 -2.91095e-06 23.3904)
(23.3904 11.2916 -0.357309 23.3904 -2.95907e-06 23.3904)
(23.0437 10.9723 -0.352295 23.0437 -2.80374e-06 23.0437)
(23.0437 10.9723 -0.352295 23.0437 -2.88351e-06 23.0437)
(22.6899 10.6565 -0.34717 22.6899 -2.87294e-06 22.6899)
(22.6899 10.6565 -0.34717 22.6899 -2.93564e-06 22.6899)
(22.33 10.345 -0.341952 22.33 -2.75831e-06 22.33)
(22.33 10.345 -0.341952 22.33 -2.84183e-06 22.33)
(21.9648 10.0384 -0.336666 21.9648 -2.81315e-06 21.9648)
(21.9648 10.0384 -0.336666 21.9648 -2.87183e-06 21.9648)
(21.595 9.73739 -0.331336 21.595 -2.69959e-06 21.595)
(21.595 9.73739 -0.331336 21.595 -2.77496e-06 21.595)
(21.2216 9.44215 -0.325978 21.2216 -2.72661e-06 21.2216)
(21.2216 9.44215 -0.325978 21.2216 -2.775e-06 21.2216)
(20.8451 9.15296 -0.320602 20.8451 -2.62819e-06 20.8451)
(20.8451 9.15296 -0.320602 20.8451 -2.69516e-06 20.8451)
(20.4663 8.87008 -0.31522 20.4663 -2.63172e-06 20.4663)
(20.4663 8.87008 -0.31522 20.4663 -2.68307e-06 20.4663)
(20.0857 8.59355 -0.309846 20.0857 -2.50624e-06 20.0857)
(20.0857 8.59355 -0.309846 20.0857 -2.58948e-06 20.0857)
(19.7041 8.3234 -0.304477 19.7041 -2.53207e-06 19.7041)
(19.7041 8.3234 -0.304478 19.7041 -2.61402e-06 19.7041)
(19.3219 8.05969 -0.299127 19.3219 -2.3401e-06 19.3219)
(19.3219 8.05969 -0.299127 19.3219 -2.45928e-06 19.3219)
(18.9396 7.80226 -0.293797 18.9396 -2.39826e-06 18.9396)
(18.9396 7.80226 -0.293797 18.9396 -2.51251e-06 18.9396)
(18.5578 7.55101 -0.288482 18.5578 -2.19739e-06 18.5578)
(18.5578 7.55101 -0.288482 18.5578 -2.34009e-06 18.5578)
(18.1769 7.30592 -0.28319 18.1769 -2.25408e-06 18.1769)
(18.1769 7.30592 -0.28319 18.1769 -2.39696e-06 18.1769)
(17.7972 7.06684 -0.277921 17.7972 -1.98868e-06 17.7972)
(17.7972 7.06684 -0.277921 17.7972 -2.1712e-06 17.7972)
(17.4192 6.83363 -0.272674 17.4192 -2.09016e-06 17.4192)
(17.4192 6.83363 -0.272674 17.4192 -2.27909e-06 17.4192)
(17.0433 6.60621 -0.26745 17.0433 -1.79e-06 17.0433)
(17.0433 6.60621 -0.26745 17.0433 -2.01471e-06 17.0433)
(16.6698 6.3845 -0.262249 16.6698 -1.91481e-06 16.6698)
(16.6698 6.3845 -0.262249 16.6698 -2.15324e-06 16.6698)
(16.2989 6.16848 -0.257077 16.2989 -1.54203e-06 16.2989)
(16.2989 6.16848 -0.257077 16.2989 -1.82555e-06 16.2989)
(15.9311 5.95801 -0.251935 15.9311 -1.71623e-06 15.9311)
(15.9311 5.95801 -0.251935 15.9311 -2.02413e-06 15.9311)
(15.5664 5.75294 -0.246822 15.5664 -1.26144e-06 15.5664)
(15.5664 5.75294 -0.246822 15.5664 -1.62137e-06 15.5664)
(15.2053 5.55316 -0.241737 15.2053 -1.51041e-06 15.2053)
(15.2052 5.55316 -0.241737 15.2053 -1.90795e-06 15.2052)
(14.8478 5.35848 -0.236679 14.8478 -9.64163e-07 14.8478)
(14.8478 5.35848 -0.236679 14.8478 -1.41862e-06 14.8478)
(14.4942 5.16876 -0.231645 14.4942 -1.29828e-06 14.4942)
(14.4942 5.16876 -0.231645 14.4942 -1.80642e-06 14.4942)
(14.1448 4.98382 -0.226635 14.1448 -6.22716e-07 14.1448)
(14.1448 4.98382 -0.226635 14.1448 -1.19879e-06 14.1448)
(13.7996 4.80349 -0.221644 13.7996 -1.0639e-06 13.7996)
(13.7996 4.80349 -0.221644 13.7996 -1.71163e-06 13.7996)
(13.4589 4.62759 -0.216668 13.4589 -2.47426e-07 13.4589)
(13.4589 4.62759 -0.216668 13.4589 -9.77069e-07 13.4589)
(13.1227 4.45598 -0.211706 13.1227 -8.34039e-07 13.1227)
(13.1227 4.45598 -0.211706 13.1227 -1.66822e-06 13.1227)
(12.7913 4.28852 -0.206754 12.7913 1.97803e-07 12.7913)
(12.7913 4.28852 -0.206754 12.7913 -7.42621e-07 12.7913)
(12.4647 4.12511 -0.201811 12.4647 -4.70112e-07 12.4647)
(12.4647 4.12511 -0.201811 12.4647 -1.68171e-06 12.4647)
(12.143 3.96566 -0.196877 12.143 6.96975e-07 12.143)
(12.143 3.96566 -0.196877 12.143 -5.11974e-07 12.143)
(11.8264 3.81008 -0.19195 11.8264 1.37587e-22 11.8264)
(11.8264 3.81008 -0.19195 11.8264 -1.53533e-06 11.8264)
(11.515 3.65832 -0.187033 11.515 1.02189e-06 11.515)
(11.515 3.65832 -0.187033 11.515 -2.65703e-07 11.515)
(11.2089 3.51031 -0.182126 11.2089 -1.14473e-23 11.2089)
(11.2089 3.51031 -0.182126 11.2089 -1.87323e-06 11.2089)
(10.9081 3.366 -0.177228 10.9081 1.02206e-06 10.9081)
(10.9081 3.366 -0.177228 10.9081 -1.50581e-08 10.9081)
(10.6127 3.22539 -0.172345 10.6127 2.38976e-23 10.6127)
(10.6127 3.22539 -0.172345 10.6127 -2.11068e-06 10.6127)
(10.3228 3.08849 -0.167479 10.3228 8.91461e-07 10.3228)
(10.3228 3.08849 -0.167479 10.3228 2.44259e-07 10.3228)
(10.0385 2.95538 -0.162637 10.0385 -0 10.0385)
(10.0385 2.95538 -0.162637 10.0385 -2.52443e-06 10.0385)
(9.75979 2.82621 -0.15783 9.75978 5.76814e-07 9.75979)
(9.75978 2.82621 -0.15783 9.75978 5.14943e-07 9.75978)
(9.48676 2.70119 -0.153072 9.48676 9.09193e-23 9.48676)
(9.48675 2.70119 -0.153072 9.48677 -3.20099e-06 9.48675)
(9.21945 2.58061 -0.148385 9.21945 7.28527e-07 9.21945)
(9.21946 2.58061 -0.148385 9.21944 1.52627e-06 9.21946)
(8.9579 2.4648 -0.143792 8.9579 -6.77568e-22 8.9579)
(8.95789 2.4648 -0.143792 8.95791 -4.03907e-06 8.95789)
(8.70212 2.35412 -0.139322 8.70212 9.79146e-07 8.70212)
(8.70213 2.35412 -0.139322 8.70211 3.01631e-06 8.70213)
(8.45214 2.24889 -0.135003 8.45214 -7.18561e-22 8.45214)
(8.45213 2.24889 -0.135003 8.45216 -5.10311e-06 8.45213)
(8.20795 2.14933 -0.130861 8.20795 1.23529e-06 8.20795)
(8.20796 2.14933 -0.130861 8.20792 5.04217e-06 8.20796)
(7.96953 2.05559 -0.126922 7.96953 5.77625e-24 7.96953)
(7.96951 2.05559 -0.126922 7.96955 -6.44809e-06 7.96951)
(7.73685 1.96766 -0.123198 7.73685 1.46208e-06 7.73685)
(7.73686 1.96766 -0.123198 7.73682 7.77772e-06 7.73686)
(7.50987 1.88531 -0.119698 7.50987 -2.02242e-35 7.50987)
(7.50986 1.88531 -0.119698 7.5099 -8.135e-06 7.50986)
(7.28853 1.80821 -0.116412 7.28853 1.71264e-06 7.28853)
(7.28855 1.80821 -0.116412 7.2885 1.15675e-05 7.28855)
(7.07276 1.73589 -0.113332 7.07276 -9.00731e-23 7.07276)
(7.07274 1.73589 -0.113332 7.0728 -1.06803e-05 7.07274)
(6.86247 1.66761 -0.110426 6.86247 1.90519e-06 6.86247)
(6.86249 1.66761 -0.110426 6.86244 1.67222e-05 6.86249)
(6.65758 1.60253 -0.107652 6.65758 3.55702e-22 6.65758)
(6.65756 1.60253 -0.107652 6.65762 -1.40149e-05 6.65756)
(6.45799 1.53986 -0.104959 6.45799 2.09237e-06 6.45799)
(6.45801 1.53986 -0.104959 6.45795 2.11479e-05 6.45801)
(6.2636 1.47889 -0.102305 6.2636 3.51802e-21 6.2636)
(6.26358 1.47889 -0.102305 6.26365 -1.8429e-05 6.26358)
(6.07433 1.41904 -0.0996436 6.07433 2.22489e-06 6.07433)
(6.07436 1.41904 -0.0996436 6.07428 2.67313e-05 6.07436)
(5.89009 1.36003 -0.0969454 5.89009 -0 5.89009)
(5.89006 1.36003 -0.0969454 5.89014 -2.41494e-05 5.89006)
(5.71078 1.30184 -0.0942048 5.71078 2.26331e-06 5.71078)
(5.71081 1.30184 -0.0942049 5.71072 3.375e-05 5.71081)
(5.53634 1.24456 -0.0914237 5.53634 -3.34732e-22 5.53634)
(5.53631 1.24456 -0.0914238 5.5364 -3.16038e-05 5.53631)
(5.36669 1.18843 -0.0886158 5.36669 2.22055e-06 5.36669)
(5.36672 1.18843 -0.0886158 5.36663 4.26924e-05 5.36672)
(5.20177 1.13381 -0.0858015 5.20177 4.67774e-22 5.20177)
(5.20173 1.13381 -0.0858015 5.20184 -4.12716e-05 5.20173)
(5.0415 1.08097 -0.0830185 5.0415 2.04271e-06 5.0415)
(5.04153 1.08097 -0.0830185 5.04143 5.40749e-05 5.04153)
(4.88583 1.03012 -0.0802735 4.88583 -1.00591e-22 4.88583)
(4.88579 1.03012 -0.0802735 4.8859 -5.68629e-05 4.88579)
(4.73468 0.98169 -0.0776001 4.73468 1.71974e-06 4.73468)
(4.73471 0.98169 -0.0776001 4.73461 6.83155e-05 4.73471)
(4.588 0.935963 -0.0750398 4.588 3.09413e-36 4.588)
(4.58796 0.935963 -0.0750398 4.58807 -7.59027e-05 4.58796)
(4.44571 0.893157 -0.0726079 4.44571 3.80313e-06 4.44571)
(4.44574 0.893157 -0.0726079 4.44564 8.34669e-05 4.44574)
(4.30775 0.853414 -0.0703382 4.30775 -2.20468e-20 4.30775)
(4.30771 0.853414 -0.0703382 4.30781 -9.47279e-05 4.30771)
(4.17403 0.816511 -0.068236 4.17403 5.93554e-06 4.17403)
(4.17406 0.816511 -0.068236 4.17397 0.000102066 4.17406)
(4.04448 0.782174 -0.0662769 4.04448 2.01327e-06 4.04448)
(4.04445 0.782174 -0.066277 4.04454 -0.00011169 4.04445)
(3.91903 0.750114 -0.0644565 3.91903 6.26274e-06 3.91903)
(3.91904 0.750115 -0.0644566 3.91898 0.000116659 3.91904)
(3.79758 0.71996 -0.0627453 3.79758 2.1717e-06 3.79758)
(3.79756 0.719961 -0.0627454 3.79762 -0.000124396 3.79756)
(3.68006 0.69126 -0.0611225 3.68006 6.28648e-06 3.68006)
(3.68006 0.691261 -0.0611226 3.68004 0.000121962 3.68006)
(3.56638 0.663225 -0.0595411 3.56638 -5.24325e-06 3.56639)
(3.56638 0.663225 -0.0595411 3.5664 -0.00012868 3.56638)
(3.45648 0.635453 -0.0579163 3.45648 -2.43003e-06 3.45649)
(3.45648 0.635453 -0.0579163 3.45649 0.000126828 3.45648)
(3.35029 0.60809 -0.0562638 3.35029 -7.10631e-06 3.35029)
(3.35029 0.60809 -0.0562638 3.35028 -0.000126323 3.35029)
(3.24773 0.581192 -0.0545937 3.24773 -2.62867e-06 3.24773)
(3.24771 0.581192 -0.0545937 3.24776 0.000121804 3.24771)
(3.14875 0.555087 -0.0529065 3.14875 -7.25334e-06 3.14875)
(3.14876 0.555087 -0.0529065 3.14872 -0.000118553 3.14876)
(3.05329 0.529973 -0.0512648 3.05329 -2.81346e-06 3.05329)
(3.05327 0.529973 -0.0512648 3.05334 0.000111302 3.05327)
(2.9613 0.505777 -0.0496467 2.9613 -6.45521e-06 2.9613)
(2.96132 0.505777 -0.0496468 2.96126 -0.000105388 2.96132)
(2.87273 0.482865 -0.0480658 2.87273 -2.01825e-21 2.87273)
(2.8727 0.482865 -0.0480658 2.87279 9.62758e-05 2.8727)
(2.78753 0.461506 -0.0465855 2.78753 -3.66589e-06 2.78754)
(2.78756 0.461506 -0.0465855 2.78748 -8.8757e-05 2.78756)
(2.70566 0.441972 -0.0452038 2.70566 -9.05984e-21 2.70566)
(2.70563 0.441972 -0.0452039 2.70573 8.07323e-05 2.70563)
(2.62706 0.425114 -0.043989 2.62706 -4.138e-06 2.62707)
(2.62709 0.425115 -0.043989 2.627 -8.02665e-05 2.62709)
(2.5517 0.411516 -0.0430614 2.5517 -1.342e-21 2.5517)
(2.55166 0.411516 -0.0430615 2.55176 6.69264e-05 2.55166)
(2.4795 0.401377 -0.0424427 2.4795 -4.59796e-06 2.4795)
(2.47953 0.401377 -0.0424427 2.47944 -6.87931e-05 2.47953)
(2.41042 0.395045 -0.0421816 2.41042 -2.06878e-22 2.41042)
(2.41039 0.395045 -0.0421817 2.41049 5.20524e-05 2.41039)
(2.34439 0.392549 -0.0423341 2.34439 -5.01323e-06 2.34439)
(2.34442 0.39255 -0.0423342 2.34434 -5.91028e-05 2.34442)
(2.28134 0.393545 -0.0428849 2.28134 -0 2.28134)
(2.28131 0.393546 -0.0428851 2.2814 3.27773e-05 2.28131)
(2.22118 0.397477 -0.0438094 2.22118 -5.36888e-06 2.22118)
(2.2212 0.397479 -0.0438095 2.22113 -5.10034e-05 2.2212)
(2.16382 0.40344 -0.0450416 2.16382 -5.39036e-21 2.16382)
(2.16379 0.403442 -0.0450418 2.16388 1.49763e-05 2.16379)
(2.10918 0.410154 -0.0464708 2.10918 -5.65562e-06 2.10918)
(2.1092 0.410155 -0.046471 2.10913 -4.421e-05 2.1092)
(2.05715 0.416624 -0.0479336 2.05715 1.44624e-21 2.05715)
(2.05712 0.416626 -0.0479338 2.0572 1.57295e-06 2.05712)
(2.00764 0.422519 -0.0493711 2.00764 -5.90005e-06 2.00764)
(2.00765 0.422521 -0.0493713 2.0076 -3.85003e-05 2.00765)
(1.96051 0.428038 -0.0507627 1.96063 3.84569e-06 1.96051)
(1.96055 0.42804 -0.0507629 1.96055 -5.25415e-06 1.96055)
(1.9158 0.433834 -0.0521727 1.9158 -6.12479e-06 1.9158)
(1.91582 0.433836 -0.0521729 1.91577 -3.37294e-05 1.91582)
(1.87327 0.440476 -0.0536933 1.87336 1.30362e-05 1.87327)
(1.8733 0.440478 -0.0536936 1.8733 -6.28653e-06 1.8733)
(1.83295 0.448334 -0.0553772 1.83295 -6.30399e-06 1.83295)
(1.83296 0.448336 -0.0553775 1.83292 -2.9737e-05 1.83296)
(1.79462 0.457601 -0.0572749 1.7947 1.8403e-05 1.79462)
(1.79465 0.457604 -0.0572753 1.79465 -6.7725e-06 1.79465)
(1.75829 0.468224 -0.0593997 1.75829 -6.46785e-06 1.75829)
(1.7583 0.468227 -0.0594001 1.75826 -2.63926e-05 1.7583)
(1.72374 0.479997 -0.0617409 1.72379 1.33061e-05 1.72374)
(1.72375 0.480001 -0.0617413 1.72375 -6.95603e-06 1.72375)
(1.69092 0.492848 -0.0642723 1.69092 -6.78169e-06 1.69092)
(1.69093 0.492852 -0.0642728 1.6909 -2.37814e-05 1.69093)
(1.65964 0.506521 -0.0670163 1.65968 8.35535e-06 1.65964)
(1.65966 0.506525 -0.0670169 1.65966 -7.28946e-06 1.65966)
(1.62982 0.520165 -0.0698945 1.62982 -7.21283e-06 1.62982)
(1.62982 0.52017 -0.0698951 1.6298 -2.17843e-05 1.62982)
(1.60124 0.532577 -0.0727637 1.60127 5.65336e-06 1.60124)
(1.60125 0.532582 -0.0727644 1.60125 -7.70006e-06 1.60125)
(1.57382 0.542365 -0.0754336 1.57382 -7.74505e-06 1.57382)
(1.57383 0.54237 -0.0754343 1.57381 -2.02637e-05 1.57383)
(1.54738 0.548519 -0.0776889 1.5474 3.24412e-06 1.54738)
(1.54739 0.548524 -0.0776896 1.54739 -8.26743e-06 1.54739)
(1.52185 0.550771 -0.0794271 1.52185 -8.37697e-06 1.52185)
(1.52185 0.550776 -0.0794278 1.52184 -1.91671e-05 1.52185)
(1.4971 0.549711 -0.0806306 1.49711 1.10824e-06 1.4971)
(1.4971 0.549716 -0.0806313 1.4971 -8.79852e-06 1.4971)
(1.4731 0.546687 -0.0814451 1.4731 -8.77149e-06 1.4731)
(1.4731 0.546692 -0.0814458 1.4731 -1.80979e-05 1.4731)
(1.44978 0.543393 -0.0820875 1.44979 -4.69358e-07 1.44978)
(1.44978 0.543398 -0.0820882 1.44978 -9.01953e-06 1.44978)
(1.42711 0.541734 -0.0828297 1.42711 -8.86682e-06 1.42711)
(1.4271 0.541739 -0.0828305 1.42711 -1.69626e-05 1.4271)
(1.40501 0.542652 -0.0839833 1.40501 -1.64253e-06 1.40501)
(1.40501 0.542659 -0.0839843 1.40501 -9.14877e-06 1.40501)
(1.38343 0.545531 -0.085549 1.38343 -9.17424e-06 1.38343)
(1.38343 0.545538 -0.0855501 1.38344 -1.62971e-05 1.38343)
(1.36227 0.548781 -0.0873631 1.36227 -2.90012e-06 1.36227)
(1.36227 0.548789 -0.0873643 1.36227 -9.59731e-06 1.36227)
(1.34143 0.550556 -0.0891044 1.34143 -9.84122e-06 1.34143)
(1.34143 0.550564 -0.0891057 1.34144 -1.62029e-05 1.34143)
(1.32084 0.549987 -0.0904983 1.32083 -4.29297e-06 1.32084)
(1.32083 0.549995 -0.0904997 1.32083 -1.02996e-05 1.32083)
(1.3004 0.547087 -0.0915155 1.3004 -1.05923e-05 1.3004)
(1.3004 0.547096 -0.091517 1.30041 -1.63112e-05 1.3004)
(1.28009 0.54209 -0.0921576 1.28008 -5.63031e-06 1.28009)
(1.28009 0.542099 -0.0921591 1.28009 -1.10336e-05 1.28009)
(1.25986 0.53496 -0.0924695 1.25986 -1.12593e-05 1.25986)
(1.25985 0.534969 -0.092471 1.25987 -1.645e-05 1.25985)
(1.23969 0.525226 -0.0923623 1.23968 -6.74854e-06 1.23969)
(1.23969 0.525235 -0.0923639 1.23969 -1.17024e-05 1.23969)
(1.21958 0.512447 -0.0917277 1.21958 -1.20398e-05 1.21958)
(1.21957 0.512456 -0.0917293 1.21959 -1.6807e-05 1.21957)
(1.19957 0.496767 -0.0904776 1.19955 -7.96466e-06 1.19957)
(1.19956 0.496776 -0.0904791 1.19956 -1.25582e-05 1.19956)
(1.17968 0.479636 -0.0887065 1.17968 -1.27478e-05 1.17968)
(1.17968 0.479645 -0.088708 1.1797 -1.72939e-05 1.17968)
(1.16001 0.463378 -0.0868054 1.15999 -8.63498e-06 1.16001)
(1.16001 0.463388 -0.0868071 1.16001 -1.30469e-05 1.16001)
(1.14059 0.450304 -0.0852213 1.14059 -1.30573e-05 1.14059)
(1.14058 0.450317 -0.0852234 1.1406 -1.75418e-05 1.14058)
(1.12146 0.442215 -0.0843868 1.12144 -8.82935e-06 1.12146)
(1.12145 0.442231 -0.0843894 1.12145 -1.3272e-05 1.12145)
(1.10261 0.439759 -0.0846037 1.10261 -1.34422e-05 1.10261)
(1.1026 0.43978 -0.0846072 1.10263 -1.79672e-05 1.1026)
(1.08402 0.442309 -0.0858978 1.08399 -9.2836e-06 1.08402)
(1.08401 0.442335 -0.0859023 1.08401 -1.38855e-05 1.08401)
(1.06557 0.448995 -0.0880865 1.06557 -1.41241e-05 1.06557)
(1.06556 0.449027 -0.0880922 1.06559 -1.89154e-05 1.06556)
(1.04717 0.458924 -0.0910895 1.04714 -9.64052e-06 1.04717)
(1.04716 0.458963 -0.0910967 1.04716 -1.4618e-05 1.04716)
(1.02864 0.469593 -0.0946958 1.02864 -1.50531e-05 1.02864)
(1.02863 0.469639 -0.0947045 1.02867 -2.02724e-05 1.02863)
(1.00985 0.47652 -0.0981403 1.00981 -1.02511e-05 1.00985)
(1.00984 0.47657 -0.0981504 1.00984 -1.57873e-05 1.00984)
(0.9906 0.475094 -0.100334 0.9906 -1.641e-05 0.9906)
(0.990589 0.475147 -0.100345 0.990629 -2.22799e-05 0.990589)
(0.970861 0.462863 -0.10036 0.970817 -1.09075e-05 0.970861)
(0.970849 0.462915 -0.100371 0.970849 -1.7158e-05 0.970848)
(0.950589 0.44034 -0.0979449 0.950589 -1.75114e-05 0.950589)
(0.950576 0.440389 -0.0979559 0.950623 -2.432e-05 0.950576)
(0.92995 0.40933 -0.0933956 0.929901 -1.07646e-05 0.92995)
(0.929937 0.409376 -0.0934061 0.929937 -1.81189e-05 0.929937)
(0.909055 0.372187 -0.0870101 0.909055 -1.84061e-05 0.909055)
(0.909041 0.372231 -0.0870198 0.909092 -2.64992e-05 0.909041)