/*--------------------------------*- C++ -*----------------------------------*\
| =========                 |                                                 |
| \\      /  F ield         | OpenFOAM: The Open Source CFD Toolbox           |
|  \\    /   O peration     | Version:  2012                                  |
|   \\  /    A nd           | Website:  www.openfoam.com                      |
|    \\/     M anipulation  |                                                 |
\*---------------------------------------------------------------------------*/
FoamFile
{
    version     2.0;
    format      ascii;
    class       surfaceScalarField;
    location    "5000";
    object      phi;
}
// * * * * * * * * * * * * * * * * * * * * * * * * * * * * * * * * * * * * * //

dimensions      [0 3 -1 0 0 0 0];
oriented        oriented;


internalField   nonuniform List<scalar> 
5116
(
2.72359e-08
-3.71741e-18
6.15305e-23
-1.25997e-22
8.56526e-23
8.32933e-08
-3.71781e-18
2.37674e-22
-7.7332e-23
1.33534e-22
1.41791e-07
-3.71826e-18
2.50219e-22
-3.6656e-23
1.3947e-22
2.02809e-07
-3.71873e-18
2.61602e-22
5.22855e-23
1.45689e-22
2.66432e-07
-3.71932e-18
2.76196e-22
1.72041e-22
1.52206e-22
3.32746e-07
-3.7199e-18
2.92943e-22
3.08849e-22
1.59034e-22
4.01839e-07
-3.72059e-18
3.10925e-22
5.03321e-22
1.66189e-22
4.73802e-07
-3.72118e-18
3.29876e-22
6.29257e-22
1.73685e-22
5.48728e-07
-3.72195e-18
3.49776e-22
7.15958e-22
1.81539e-22
6.26713e-07
-3.72245e-18
3.70642e-22
7.37275e-22
1.89767e-22
7.07852e-07
-3.72331e-18
3.92491e-22
1.02523e-21
1.98385e-22
7.92245e-07
-3.72427e-18
4.15346e-22
1.31228e-21
2.07404e-22
8.7999e-07
-3.72511e-18
4.39226e-22
1.62059e-21
2.16834e-22
9.71185e-07
-3.7259e-18
4.64142e-22
1.76904e-21
2.26684e-22
1.06593e-06
-3.72654e-18
4.90098e-22
1.85959e-21
2.36963e-22
1.16432e-06
-3.72776e-18
5.17084e-22
2.50423e-21
2.4768e-22
1.26644e-06
-3.729e-18
5.45096e-22
2.96913e-21
2.58828e-22
1.37238e-06
-3.72978e-18
5.74096e-22
2.74849e-21
2.70399e-22
1.48221e-06
-3.73111e-18
6.04027e-22
3.11986e-21
2.8238e-22
1.59601e-06
-3.73187e-18
6.34829e-22
2.88948e-21
2.9474e-22
1.71381e-06
-3.73296e-18
6.66388e-22
3.11081e-21
3.07445e-22
1.83567e-06
-3.73467e-18
6.98583e-22
3.51621e-21
3.20439e-22
1.9616e-06
-3.73661e-18
7.31264e-22
4.02542e-21
3.33656e-22
2.09159e-06
-3.73788e-18
7.64265e-22
4.52971e-21
3.47036e-22
2.22563e-06
-3.73946e-18
7.97357e-22
5.01811e-21
3.60501e-22
2.36365e-06
-3.74083e-18
8.30331e-22
5.59924e-21
3.7397e-22
2.50559e-06
-3.74237e-18
8.62968e-22
5.84029e-21
3.87334e-22
2.65136e-06
-3.74414e-18
8.9503e-22
6.52825e-21
4.00524e-22
2.80084e-06
-3.74598e-18
9.26294e-22
7.48148e-21
4.13458e-22
2.95388e-06
-3.74815e-18
9.56557e-22
8.13973e-21
4.26068e-22
3.11035e-06
-3.75059e-18
9.85656e-22
9.02714e-21
4.38285e-22
3.27007e-06
-3.75325e-18
1.01346e-21
9.77864e-21
4.50037e-22
3.4329e-06
-3.75534e-18
1.03983e-21
1.05275e-20
4.61298e-22
3.59866e-06
-3.75781e-18
1.06471e-21
1.07815e-20
4.72055e-22
3.76718e-06
-3.76033e-18
1.0881e-21
1.14399e-20
4.82327e-22
3.93833e-06
-3.76334e-18
1.10999e-21
1.24303e-20
4.92114e-22
4.11195e-06
-3.76599e-18
1.13045e-21
1.42169e-20
5.01444e-22
4.28792e-06
-3.76911e-18
1.14954e-21
1.52786e-20
5.10353e-22
4.46613e-06
-3.77247e-18
1.16736e-21
1.60809e-20
5.189e-22
4.64648e-06
-3.77516e-18
1.18403e-21
1.65883e-20
5.27142e-22
4.8289e-06
-3.77836e-18
1.19968e-21
1.70989e-20
5.35112e-22
5.01333e-06
-3.78194e-18
1.21447e-21
1.78289e-20
5.42883e-22
5.19973e-06
-3.78518e-18
1.22848e-21
1.92002e-20
5.50518e-22
5.38807e-06
-3.7878e-18
1.24181e-21
1.95654e-20
5.5805e-22
5.57834e-06
-3.79182e-18
1.25457e-21
2.15574e-20
5.65507e-22
5.77054e-06
-3.79552e-18
1.26692e-21
2.19291e-20
5.7295e-22
5.96467e-06
-3.79856e-18
1.27897e-21
2.26234e-20
5.80464e-22
6.16078e-06
-3.80091e-18
1.29079e-21
2.29138e-20
5.88111e-22
6.35887e-06
-3.80426e-18
1.3024e-21
2.39357e-20
5.95974e-22
6.55901e-06
-3.80814e-18
1.31391e-21
2.41945e-20
6.0407e-22
6.76122e-06
-3.81001e-18
1.32542e-21
2.42844e-20
6.12439e-22
6.96556e-06
-3.81224e-18
1.3369e-21
2.52006e-20
6.21084e-22
7.1721e-06
-3.81546e-18
1.34838e-21
2.51188e-20
6.30024e-22
7.38088e-06
-3.81785e-18
1.35996e-21
2.51792e-20
6.39319e-22
7.59198e-06
-3.81995e-18
1.37161e-21
2.55035e-20
6.48987e-22
7.80546e-06
-3.8219e-18
1.38337e-21
2.57702e-20
6.59012e-22
8.02139e-06
-3.82699e-18
1.39522e-21
2.83254e-20
6.69458e-22
8.23984e-06
-3.83055e-18
1.40737e-21
2.92367e-20
6.80094e-22
8.46088e-06
-3.83287e-18
1.41968e-21
3.07693e-20
6.91174e-22
8.6846e-06
-3.83648e-18
1.43212e-21
3.1434e-20
7.02734e-22
8.91106e-06
-3.83806e-18
1.44467e-21
3.11327e-20
7.14859e-22
9.14034e-06
-3.84167e-18
1.45734e-21
3.13034e-20
7.27576e-22
9.37252e-06
-3.84457e-18
1.47023e-21
3.1272e-20
7.40698e-22
9.60768e-06
-3.84836e-18
1.48333e-21
3.38158e-20
7.54438e-22
9.84589e-06
-3.85126e-18
1.49671e-21
3.41654e-20
7.68534e-22
1.00872e-05
-3.85577e-18
1.51028e-21
3.51475e-20
7.83157e-22
1.03318e-05
-3.85652e-18
1.52424e-21
3.61312e-20
7.9821e-22
1.05797e-05
-3.85886e-18
1.53837e-21
3.50518e-20
8.13653e-22
1.08309e-05
-3.86337e-18
1.5527e-21
3.47816e-20
8.29702e-22
1.10856e-05
-3.86307e-18
1.56751e-21
3.48481e-20
8.46282e-22
1.13439e-05
-3.86307e-18
1.58238e-21
3.18666e-20
8.63238e-22
1.16058e-05
-3.86825e-18
1.59729e-21
3.52518e-20
8.80867e-22
1.18713e-05
-3.87261e-18
1.61249e-21
3.69431e-20
8.98818e-22
1.21407e-05
-3.87606e-18
1.62783e-21
3.96892e-20
9.17403e-22
1.24139e-05
-3.88029e-18
1.64329e-21
4.14631e-20
9.36555e-22
1.26912e-05
-3.88521e-18
1.65882e-21
4.27811e-20
9.56645e-22
1.29724e-05
-3.89104e-18
1.67439e-21
4.63145e-20
9.77424e-22
1.32578e-05
-3.89493e-18
1.69021e-21
4.80184e-20
9.98534e-22
1.35474e-05
-3.90023e-18
1.70601e-21
5.03975e-20
1.02018e-21
1.38413e-05
-3.90426e-18
1.7221e-21
5.0453e-20
1.04246e-21
1.41396e-05
-3.90826e-18
1.73769e-21
5.58254e-20
1.06549e-21
1.44424e-05
-3.91509e-18
1.75303e-21
5.65597e-20
1.08865e-21
1.47497e-05
-3.91861e-18
1.76854e-21
5.81775e-20
1.11234e-21
1.50617e-05
-3.92159e-18
1.78393e-21
5.86554e-20
1.1367e-21
1.53785e-05
-3.92805e-18
1.79888e-21
5.56868e-20
1.16191e-21
1.57001e-05
-3.93178e-18
1.81408e-21
5.43163e-20
1.18807e-21
1.60267e-05
-3.93217e-18
1.82931e-21
5.30689e-20
1.21433e-21
1.63582e-05
-3.93407e-18
1.84395e-21
5.20981e-20
1.24136e-21
1.6695e-05
-3.9404e-18
1.85777e-21
4.80275e-20
1.26966e-21
1.70369e-05
-3.94271e-18
1.87079e-21
4.43614e-20
1.29928e-21
1.73841e-05
-3.945e-18
1.88209e-21
4.32009e-20
1.33068e-21
1.77368e-05
-3.94708e-18
1.89235e-21
3.89937e-20
1.36361e-21
1.8095e-05
-3.94862e-18
1.90135e-21
3.71933e-20
1.39852e-21
1.84588e-05
-3.95616e-18
1.90897e-21
3.31554e-20
1.43494e-21
1.88283e-05
-3.95855e-18
1.91606e-21
2.84539e-20
1.47261e-21
1.92036e-05
-3.95667e-18
1.92201e-21
2.29977e-20
1.51173e-21
1.95849e-05
-3.95544e-18
1.92651e-21
2.08775e-20
1.55291e-21
1.99722e-05
-3.95722e-18
1.92917e-21
1.82903e-20
1.59608e-21
2.03656e-05
-3.9569e-18
1.92984e-21
1.82224e-20
1.64108e-21
2.07653e-05
-3.9583e-18
1.92873e-21
2.05245e-20
1.68727e-21
2.11713e-05
-3.95477e-18
1.92538e-21
2.09944e-20
1.73369e-21
2.15838e-05
-3.95469e-18
1.92007e-21
2.37963e-20
1.78092e-21
2.20029e-05
-3.95527e-18
1.91248e-21
2.21255e-20
1.82814e-21
2.24287e-05
-3.95726e-18
1.90229e-21
2.49206e-20
1.87744e-21
2.28613e-05
-3.96284e-18
1.89032e-21
2.7361e-20
1.92783e-21
2.33008e-05
-3.96573e-18
1.87661e-21
2.75417e-20
1.97923e-21
2.37473e-05
-3.96925e-18
1.86125e-21
2.94313e-20
2.03221e-21
2.4201e-05
-3.97433e-18
1.84394e-21
3.21971e-20
2.08514e-21
2.4662e-05
-3.97609e-18
1.82483e-21
3.29405e-20
2.13847e-21
2.51304e-05
-3.97797e-18
1.80287e-21
3.68126e-20
2.1924e-21
2.56063e-05
-3.97811e-18
1.77865e-21
3.39587e-20
2.24639e-21
2.60899e-05
-3.97927e-18
1.75108e-21
3.63052e-20
2.30236e-21
2.65812e-05
-3.98263e-18
1.72047e-21
3.35496e-20
2.35787e-21
2.70805e-05
-3.98308e-18
1.68799e-21
3.01848e-20
2.41336e-21
2.75878e-05
-3.98309e-18
1.65306e-21
2.83623e-20
2.46903e-21
2.81033e-05
-3.97938e-18
1.61384e-21
2.81705e-20
2.52361e-21
2.86271e-05
-3.97793e-18
1.57339e-21
2.35172e-20
2.5761e-21
2.91594e-05
-3.97626e-18
1.52907e-21
2.06274e-20
2.62805e-21
2.97003e-05
-3.97536e-18
1.48253e-21
1.58115e-20
2.67854e-21
3.02499e-05
-3.97265e-18
1.43443e-21
1.43356e-20
2.72816e-21
3.08084e-05
-3.96779e-18
1.38431e-21
1.04739e-20
2.77464e-21
3.13759e-05
-3.96616e-18
1.33315e-21
5.34376e-22
2.8207e-21
3.19526e-05
-3.95271e-18
1.28015e-21
-2.06579e-20
2.86633e-21
3.25386e-05
-3.95215e-18
1.224e-21
-3.1164e-20
2.9123e-21
3.3134e-05
-3.9465e-18
1.16915e-21
-3.94715e-20
2.95661e-21
3.37392e-05
-3.94196e-18
1.1122e-21
-5.05223e-20
2.99896e-21
3.4354e-05
-3.93889e-18
1.05647e-21
-5.92965e-20
3.04156e-21
3.49789e-05
-3.93751e-18
1.00143e-21
-6.22667e-20
3.08159e-21
3.56138e-05
-3.92852e-18
9.46507e-22
-6.96889e-20
3.11635e-21
3.6259e-05
-3.91724e-18
8.86338e-22
-8.70879e-20
3.14706e-21
3.69147e-05
-3.90746e-18
8.24374e-22
-1.03286e-19
3.17585e-21
3.75809e-05
-3.89564e-18
7.58004e-22
-1.25775e-19
3.2056e-21
3.82579e-05
-3.90077e-18
6.88416e-22
-1.26598e-19
3.23775e-21
3.89459e-05
-3.89656e-18
6.17212e-22
-1.31413e-19
3.26416e-21
3.9645e-05
-3.8929e-18
5.4429e-22
-1.35877e-19
3.28765e-21
4.03553e-05
-3.90269e-18
4.67856e-22
-1.42205e-19
3.30806e-21
4.10772e-05
-3.8978e-18
3.92251e-22
-1.46702e-19
3.32866e-21
4.18107e-05
-3.91024e-18
3.09575e-22
-1.45782e-19
3.35197e-21
4.25561e-05
-3.90655e-18
2.3083e-22
-1.53576e-19
3.37315e-21
4.33134e-05
-3.90015e-18
1.51057e-22
-1.5836e-19
3.39244e-21
4.40831e-05
-3.90421e-18
6.37204e-23
-1.68657e-19
3.40786e-21
4.48651e-05
-3.899e-18
-1.95199e-23
-1.75674e-19
3.42418e-21
4.56598e-05
-3.89068e-18
-1.07524e-22
-1.81628e-19
3.4406e-21
4.64673e-05
-3.88523e-18
-2.02127e-22
-1.93743e-19
3.45304e-21
4.72878e-05
-3.87223e-18
-3.03189e-22
-2.01154e-19
3.47039e-21
4.81215e-05
-3.86495e-18
-4.12425e-22
-2.10725e-19
3.48465e-21
4.89687e-05
-3.86457e-18
-5.26349e-22
-2.15108e-19
3.48958e-21
4.98295e-05
-3.85659e-18
-6.41824e-22
-2.30279e-19
3.48332e-21
5.07041e-05
-3.85495e-18
-7.61429e-22
-2.40652e-19
3.47567e-21
5.15929e-05
-3.84205e-18
-8.87226e-22
-2.6051e-19
3.47173e-21
5.24959e-05
-3.83695e-18
-1.0198e-21
-2.73968e-19
3.4669e-21
5.34135e-05
-3.82815e-18
-1.14956e-21
-2.90066e-19
3.45955e-21
5.43459e-05
-3.8241e-18
-1.29003e-21
-3.0611e-19
3.45612e-21
5.52932e-05
-3.80676e-18
-1.43707e-21
-3.21211e-19
3.44639e-21
5.62557e-05
-3.79349e-18
-1.58939e-21
-3.3293e-19
3.43102e-21
5.72337e-05
-3.78052e-18
-1.74806e-21
-3.50422e-19
3.40529e-21
5.82274e-05
-3.77204e-18
-1.91373e-21
-3.72429e-19
3.36852e-21
5.9237e-05
-3.75632e-18
-2.06808e-21
-3.93787e-19
3.32688e-21
6.02629e-05
-3.72708e-18
-2.23136e-21
-4.07358e-19
3.28349e-21
6.13051e-05
-3.70201e-18
-2.40393e-21
-4.26305e-19
3.21717e-21
6.23641e-05
-3.68275e-18
-2.57808e-21
-4.48702e-19
3.13707e-21
6.344e-05
-3.65703e-18
-2.74095e-21
-4.65546e-19
3.06476e-21
6.45332e-05
-3.63697e-18
-2.92582e-21
-4.99358e-19
2.99395e-21
6.56438e-05
-3.61481e-18
-3.11095e-21
-5.22748e-19
2.91376e-21
6.67722e-05
-3.61564e-18
-3.30559e-21
-5.36174e-19
2.83142e-21
6.79186e-05
-3.59229e-18
-3.47876e-21
-5.57854e-19
2.74707e-21
6.90834e-05
-3.57246e-18
-3.67253e-21
-5.72512e-19
2.68415e-21
7.02667e-05
-3.57181e-18
-3.87495e-21
-5.97039e-19
2.61113e-21
7.14689e-05
-3.5466e-18
-4.06381e-21
-6.22629e-19
2.542e-21
7.26903e-05
-3.52482e-18
-4.26805e-21
-6.54753e-19
2.47746e-21
7.39312e-05
-3.50553e-18
-4.47865e-21
-6.71385e-19
2.41373e-21
7.51919e-05
-3.47892e-18
-4.69183e-21
-6.92652e-19
2.34497e-21
7.64726e-05
-3.45295e-18
-4.92292e-21
-7.21748e-19
2.27765e-21
7.77737e-05
-3.43734e-18
-5.1472e-21
-7.42946e-19
2.19054e-21
7.90955e-05
-3.40434e-18
-5.34887e-21
-7.59132e-19
2.08737e-21
8.04383e-05
-3.3748e-18
-5.56535e-21
-7.86133e-19
1.96161e-21
8.18024e-05
-3.36163e-18
-5.7984e-21
-8.15398e-19
1.84623e-21
8.31883e-05
-3.33153e-18
-5.99535e-21
-8.40084e-19
1.70108e-21
8.45961e-05
-3.30446e-18
-6.2036e-21
-8.5585e-19
1.54681e-21
8.60262e-05
-3.26799e-18
-6.41057e-21
-8.81575e-19
1.40672e-21
8.74791e-05
-3.24053e-18
-6.62274e-21
-9.0477e-19
1.23914e-21
8.89549e-05
-3.20279e-18
-6.8092e-21
-9.35038e-19
1.06274e-21
9.04541e-05
-3.18165e-18
-7.00921e-21
-9.57958e-19
8.98454e-22
9.19771e-05
-3.13648e-18
-7.21099e-21
-9.80553e-19
7.58724e-22
9.35241e-05
-3.10857e-18
-7.42215e-21
-9.88736e-19
6.18304e-22
9.50956e-05
-3.0637e-18
-7.64895e-21
-1.01635e-18
4.29745e-22
9.66919e-05
-3.03888e-18
-7.89582e-21
-1.03878e-18
2.39836e-22
9.83135e-05
-2.99645e-18
-8.14768e-21
-1.06466e-18
4.34667e-23
9.99606e-05
-2.97846e-18
-8.38234e-21
-1.07605e-18
-1.49601e-22
0.000101634
-2.95398e-18
-8.57748e-21
-1.1035e-18
-3.81812e-22
0.000103333
-2.90944e-18
-8.71589e-21
-1.11737e-18
-5.94173e-22
0.000105059
-2.87476e-18
-8.88272e-21
-1.1441e-18
-8.41946e-22
0.000106813
-2.83898e-18
-9.04298e-21
-1.17991e-18
-1.07978e-21
0.000108594
-2.79513e-18
-9.17822e-21
-1.20477e-18
-1.27752e-21
0.000110403
-2.73678e-18
-9.34788e-21
-1.22141e-18
-1.47516e-21
0.000112241
-2.71245e-18
-9.60331e-21
-1.23501e-18
-1.71446e-21
0.000114107
-2.67404e-18
-9.8588e-21
-1.26254e-18
-1.9476e-21
0.000116003
-2.64031e-18
-1.00884e-20
-1.27629e-18
-2.15088e-21
0.000117928
-2.59716e-18
-1.03908e-20
-1.29189e-18
-2.37721e-21
0.000119884
-2.56039e-18
-1.0803e-20
-1.31903e-18
-2.60761e-21
0.00012187
-2.48205e-18
-1.12094e-20
-1.34612e-18
-2.83115e-21
0.000123887
-2.47035e-18
-1.1695e-20
-1.36431e-18
-3.04684e-21
0.000125936
-2.46157e-18
-1.21541e-20
-1.35352e-18
-3.2803e-21
0.000128017
-2.42537e-18
-1.26271e-20
-1.35655e-18
-3.46071e-21
0.000130131
-2.42962e-18
-1.31767e-20
-1.36523e-18
-3.61476e-21
0.000132277
-2.40891e-18
-1.3586e-20
-1.36598e-18
-3.76351e-21
0.000134457
-2.4056e-18
-1.39673e-20
-1.37001e-18
-3.95774e-21
0.000136671
-2.38723e-18
-1.43209e-20
-1.38186e-18
-4.11165e-21
0.00013892
-2.35405e-18
-1.46472e-20
-1.40743e-18
-4.193e-21
0.000141203
-2.33453e-18
-1.49375e-20
-1.40899e-18
-4.23154e-21
0.000143523
-2.33462e-18
-1.51039e-20
-1.40605e-18
-4.18249e-21
0.000145878
-2.31712e-18
-1.50666e-20
-1.38178e-18
-4.19698e-21
0.00014827
-2.29598e-18
-1.49406e-20
-1.38724e-18
-4.35426e-21
0.000150699
-2.28516e-18
-1.48859e-20
-1.37704e-18
-4.3616e-21
0.000153166
-2.28102e-18
-1.47441e-20
-1.38599e-18
-4.3151e-21
0.000155671
-2.27033e-18
-1.43584e-20
-1.39754e-18
-4.31207e-21
0.000158215
-2.24134e-18
-1.38867e-20
-1.4153e-18
-4.32515e-21
0.000160799
-2.2279e-18
-1.36255e-20
-1.43204e-18
-4.27653e-21
0.000163422
-2.22075e-18
-1.34564e-20
-1.44371e-18
-4.2483e-21
0.000166087
-2.16175e-18
-1.32465e-20
-1.40428e-18
-4.20562e-21
0.000168792
-2.15527e-18
-1.32766e-20
-1.39081e-18
-4.48829e-21
0.000171539
-2.14678e-18
-1.31913e-20
-1.40225e-18
-5.07855e-21
0.000174329
-2.1156e-18
-1.31663e-20
-1.41113e-18
-5.53273e-21
0.000177162
-2.06944e-18
-1.32166e-20
-1.42638e-18
-5.7894e-21
0.000180038
-2.03282e-18
-1.34804e-20
-1.4164e-18
-6.11268e-21
0.000182959
-2.01006e-18
-1.37533e-20
-1.42739e-18
-6.40681e-21
0.000185925
-2.02177e-18
-1.38367e-20
-1.40102e-18
-6.43871e-21
0.000188937
-1.9804e-18
-1.38902e-20
-1.41864e-18
-6.45483e-21
0.000191995
-1.95837e-18
-1.40438e-20
-1.38053e-18
-6.58536e-21
0.0001951
-1.95886e-18
-1.41908e-20
-1.38446e-18
-7.01196e-21
0.000198253
-1.92758e-18
-1.41544e-20
-1.39584e-18
-7.45709e-21
0.000201454
-1.92502e-18
-1.41618e-20
-1.38964e-18
-7.86198e-21
0.000204704
-1.90191e-18
-1.37873e-20
-1.41128e-18
-8.34362e-21
0.000208005
-1.8749e-18
-1.33397e-20
-1.40683e-18
-8.71789e-21
0.000211356
-1.86174e-18
-1.31086e-20
-1.41671e-18
-8.81455e-21
0.000214758
-1.83799e-18
-1.27247e-20
-1.39586e-18
-8.57268e-21
0.000218212
-1.81518e-18
-1.2312e-20
-1.40558e-18
-8.1458e-21
0.000221719
-1.80616e-18
-1.19482e-20
-1.38846e-18
-7.55348e-21
0.00022528
-1.84045e-18
-1.20771e-20
-1.33736e-18
-7.14195e-21
0.000228895
-1.88257e-18
-1.18524e-20
-1.27452e-18
-6.95918e-21
0.000232565
-1.89877e-18
-1.13529e-20
-1.29149e-18
-6.62988e-21
0.000236291
-1.8909e-18
-1.06141e-20
-1.26301e-18
-6.35404e-21
0.000240074
-1.86063e-18
-9.84022e-21
-1.30558e-18
-6.4124e-21
0.000243914
-1.76539e-18
-9.22893e-21
-1.33289e-18
-5.83847e-21
0.000247813
-1.79249e-18
-9.07279e-21
-1.40022e-18
-4.98099e-21
0.000251771
-1.74719e-18
-7.97459e-21
-1.42531e-18
-3.38076e-21
0.00025579
-1.75163e-18
-6.5547e-21
-1.35397e-18
-1.98034e-21
0.000259869
-1.58728e-18
-5.61158e-21
-1.36828e-18
-2.08496e-21
0.00026401
-1.54206e-18
-6.08973e-21
-1.41844e-18
-1.63483e-21
0.000268214
-1.53538e-18
-6.6463e-21
-1.33756e-18
-2.4592e-22
0.000272481
-1.51342e-18
-5.72892e-21
-1.3629e-18
-3.02899e-22
0.000276813
-1.4691e-18
-5.00911e-21
-1.34558e-18
3.33582e-22
0.00028121
-1.44438e-18
-4.88391e-21
-1.34518e-18
9.51351e-22
0.000285674
-1.4371e-18
-5.01343e-21
-1.30111e-18
1.57454e-21
0.000290205
-1.40564e-18
-5.16592e-21
-1.27783e-18
1.47046e-21
0.000294804
-1.43688e-18
-5.20453e-21
-1.26819e-18
8.54945e-22
0.000299472
-1.32286e-18
-4.29133e-21
-1.2965e-18
-5.65151e-23
0.000304211
-1.31034e-18
-4.54239e-21
-1.29126e-18
-1.21373e-21
0.000309021
-1.29866e-18
-3.62247e-21
-1.2917e-18
-2.93142e-21
0.000313902
-1.31826e-18
-3.00922e-21
-1.27465e-18
-4.82394e-21
0.000318857
-1.33338e-18
-3.63427e-21
-1.22365e-18
-6.04138e-21
0.000323886
-1.26953e-18
-3.90708e-21
-1.27308e-18
-7.00004e-21
0.000328991
-1.32499e-18
-5.71315e-21
-1.23929e-18
-6.8472e-21
0.000334171
-1.30365e-18
-6.33566e-21
-1.24621e-18
-6.58221e-21
0.000339429
-1.24986e-18
-5.06006e-21
-1.20449e-18
-5.96894e-21
0.000344765
-1.21695e-18
-4.22635e-21
-1.11545e-18
-4.88251e-21
0.00035018
-1.18059e-18
-3.66221e-21
-1.05913e-18
-4.90834e-21
0.000355676
-1.1602e-18
-2.94462e-21
-1.07746e-18
-3.84166e-21
0.000361254
-9.78507e-19
-1.31597e-21
-1.16492e-18
-2.25774e-21
0.000366914
-1.1055e-18
-2.71438e-21
-9.93737e-19
5.94539e-22
0.000372658
-1.08698e-18
-1.90045e-21
-9.9958e-19
-3.05144e-22
0.000378487
-9.4551e-19
-1.29241e-21
-1.13494e-18
-2.68901e-21
0.000384402
-9.86807e-19
-2.86748e-21
-1.11441e-18
-3.64037e-21
0.000390404
-1.01382e-18
-3.54729e-21
-1.15417e-18
-5.44772e-21
0.000396494
-9.98153e-19
-3.47332e-21
-1.05765e-18
-5.34164e-21
0.000402674
-1.0366e-18
-3.21013e-21
-1.06086e-18
-7.35242e-21
0.000408945
-1.0202e-18
-2.09161e-21
-1.06801e-18
-9.91139e-21
0.000415307
-1.06105e-18
-2.91511e-21
-1.07872e-18
-1.31032e-20
0.000421763
-1.04957e-18
-3.27319e-21
-1.10564e-18
-1.54525e-20
0.000428313
-1.06233e-18
-4.18336e-21
-1.12656e-18
-1.538e-20
0.000434958
-1.01643e-18
-6.3888e-21
-1.04085e-18
-1.34852e-20
0.0004417
-9.76263e-19
-9.90351e-21
-1.09284e-18
-1.48908e-20
0.00044854
-1.08157e-18
-1.53219e-20
-9.79512e-19
-1.72065e-20
0.000455479
-1.00753e-18
-1.76808e-20
-1.02306e-18
-2.0463e-20
0.000462519
-1.00282e-18
-2.07501e-20
-1.00102e-18
-1.96901e-20
0.00046966
-9.26769e-19
-2.16121e-20
-1.00914e-18
-1.95084e-20
0.000476904
-1.01612e-18
-2.65004e-20
-9.88201e-19
-2.09496e-20
0.000484253
-1.06513e-18
-2.85674e-20
-8.9289e-19
-2.36675e-20
0.000491707
-1.0025e-18
-2.80087e-20
-1.02246e-18
-2.50302e-20
0.000499267
-1.00982e-18
-3.22545e-20
-1.18754e-18
-2.30334e-20
0.000506936
-1.09713e-18
-3.7386e-20
-1.09387e-18
-2.07081e-20
0.000514713
-1.2478e-18
-3.75201e-20
-1.08533e-18
-2.4194e-20
0.000522602
-1.16534e-18
-3.06846e-20
-1.11239e-18
-2.78759e-20
0.000530602
-1.15537e-18
-3.16283e-20
-1.10533e-18
-2.85907e-20
0.000538715
-1.15561e-18
-3.27734e-20
-1.11735e-18
-3.00796e-20
0.000546942
-1.12367e-18
-3.28377e-20
-1.13756e-18
-3.2566e-20
0.000555285
-1.08275e-18
-3.29227e-20
-1.13921e-18
-3.6562e-20
0.000563744
-1.06068e-18
-3.55856e-20
-1.11281e-18
-3.80797e-20
0.000572322
-1.0047e-18
-3.39623e-20
-1.02833e-18
-3.79066e-20
0.000581018
-1.10817e-18
-3.65657e-20
-1.06809e-18
-4.41867e-20
0.000589835
-9.96121e-19
-3.57918e-20
-1.09646e-18
-4.58504e-20
0.000598773
-1.06374e-18
-3.8043e-20
-1.11821e-18
-3.79964e-20
0.000607834
-1.00792e-18
-3.4281e-20
-1.14372e-18
-3.90826e-20
0.000617018
-1.08642e-18
-3.91016e-20
-9.89633e-19
-3.96779e-20
0.000626327
-1.11749e-18
-3.89353e-20
-1.09106e-18
-4.70137e-20
0.000635761
-1.18873e-18
-3.5492e-20
-9.86294e-19
-4.69628e-20
0.000645322
-1.01505e-18
-3.20671e-20
-1.16835e-18
-5.4225e-20
0.000655009
-9.22057e-19
-3.85808e-20
-1.05951e-18
-4.97154e-20
0.000664825
-9.86991e-19
-4.74889e-20
-9.73327e-19
-4.83327e-20
0.000674769
-1.01205e-18
-4.5723e-20
-1.02092e-18
-4.4134e-20
0.000684842
-9.45821e-19
-4.29053e-20
-1.039e-18
-4.30284e-20
0.000695044
-1.13955e-18
-4.55653e-20
-1.06455e-18
-4.5389e-20
0.000705376
-1.06376e-18
-4.12309e-20
-1.02532e-18
-3.99216e-20
0.000715838
-1.17976e-18
-4.794e-20
-9.78459e-19
-4.25799e-20
0.00072643
-1.20641e-18
-4.14899e-20
-1.05934e-18
-4.60336e-20
0.000737152
-1.11889e-18
-2.47235e-20
-1.03679e-18
-5.15321e-20
0.000748003
-9.673e-19
-9.08754e-21
-1.15668e-18
-5.68458e-20
0.000758982
-9.9047e-19
1.61397e-21
-1.0703e-18
-6.52404e-20
0.00077009
-9.05536e-19
1.15051e-21
-1.01455e-18
-6.46701e-20
0.000781325
-9.01057e-21
-8.77635e-19
-6.03014e-20
-9.82402e-19
2.72359e-08
5.58819e-23
8.96443e-23
8.32933e-08
3.27541e-22
1.89092e-22
1.41791e-07
5.77306e-22
3.27258e-22
2.02809e-07
7.8744e-22
4.93602e-22
2.66432e-07
1.09534e-21
5.85974e-22
3.32746e-07
1.4482e-21
6.25033e-22
4.01839e-07
1.82461e-21
7.02623e-22
4.73802e-07
2.22493e-21
8.48663e-22
5.48728e-07
2.50106e-21
1.16335e-21
6.26713e-07
2.76775e-21
1.45331e-21
7.07852e-07
3.02389e-21
1.7731e-21
7.92245e-07
3.30404e-21
2.00921e-21
8.7999e-07
3.83711e-21
2.06641e-21
9.71185e-07
4.39931e-21
2.26986e-21
1.06593e-06
4.53372e-21
2.74842e-21
1.16432e-06
5.20827e-21
3.43576e-21
1.26644e-06
5.55061e-21
4.05792e-21
1.37238e-06
5.96926e-21
4.38889e-21
1.48221e-06
6.81219e-21
5.07848e-21
1.59601e-06
7.29785e-21
5.45337e-21
1.71381e-06
7.99094e-21
5.84789e-21
1.83567e-06
8.48813e-21
5.87488e-21
1.9616e-06
9.58237e-21
6.4295e-21
2.09159e-06
9.76866e-21
7.01396e-21
2.22563e-06
9.97615e-21
8.20897e-21
2.36365e-06
1.06977e-20
8.4447e-21
2.50559e-06
1.08143e-20
8.96439e-21
2.65136e-06
1.12285e-20
9.49655e-21
2.80084e-06
1.17453e-20
1.04688e-20
2.95388e-06
1.27385e-20
1.07819e-20
3.11035e-06
1.44365e-20
1.07431e-20
3.27007e-06
1.44358e-20
1.1275e-20
3.4329e-06
1.53729e-20
1.13954e-20
3.59866e-06
1.69588e-20
1.20858e-20
3.76718e-06
1.80582e-20
1.32817e-20
3.93833e-06
1.92589e-20
1.48687e-20
4.11195e-06
1.97783e-20
1.63431e-20
4.28792e-06
2.01532e-20
1.69401e-20
4.46613e-06
2.09955e-20
1.7988e-20
4.64648e-06
2.26651e-20
1.87812e-20
4.8289e-06
2.493e-20
1.94318e-20
5.01333e-06
2.52517e-20
2.00845e-20
5.19973e-06
2.52336e-20
2.17245e-20
5.38807e-06
2.59584e-20
2.16014e-20
5.57834e-06
2.69049e-20
2.29924e-20
5.77054e-06
2.83834e-20
2.40747e-20
5.96467e-06
2.95466e-20
2.51932e-20
6.16078e-06
2.99005e-20
2.67987e-20
6.35887e-06
3.08648e-20
2.89033e-20
6.55901e-06
3.19547e-20
3.03389e-20
6.76122e-06
3.30802e-20
3.08626e-20
6.96556e-06
3.34e-20
3.20722e-20
7.1721e-06
3.47869e-20
3.303e-20
7.38088e-06
3.48336e-20
3.54751e-20
7.59198e-06
3.64382e-20
3.7066e-20
7.80546e-06
3.66133e-20
3.82251e-20
8.02139e-06
3.75428e-20
3.63148e-20
8.23984e-06
3.78966e-20
3.71773e-20
8.46088e-06
3.8988e-20
3.72682e-20
8.6846e-06
3.80499e-20
3.80634e-20
8.91106e-06
3.85157e-20
3.89769e-20
9.14034e-06
3.86024e-20
3.85089e-20
9.37252e-06
3.88878e-20
4.12629e-20
9.60768e-06
3.88902e-20
4.06593e-20
9.84589e-06
3.82506e-20
4.23056e-20
1.00872e-05
3.92978e-20
4.34407e-20
1.03318e-05
4.07417e-20
4.53754e-20
1.05797e-05
4.15893e-20
4.76292e-20
1.08309e-05
4.42049e-20
4.8287e-20
1.10856e-05
4.44422e-20
4.82296e-20
1.13439e-05
4.53726e-20
4.99899e-20
1.16058e-05
4.69872e-20
5.09305e-20
1.18713e-05
4.869e-20
5.26389e-20
1.21407e-05
5.21092e-20
5.34651e-20
1.24139e-05
5.43213e-20
5.85588e-20
1.26912e-05
5.50722e-20
6.08606e-20
1.29724e-05
5.6961e-20
6.1468e-20
1.32578e-05
5.7494e-20
6.17621e-20
1.35474e-05
6.19429e-20
6.32246e-20
1.38413e-05
5.90215e-20
6.42324e-20
1.41396e-05
5.81942e-20
6.50205e-20
1.44424e-05
5.87727e-20
6.6545e-20
1.47497e-05
6.00861e-20
6.79602e-20
1.50617e-05
5.69236e-20
6.97597e-20
1.53785e-05
5.61666e-20
7.12271e-20
1.57001e-05
5.82137e-20
6.6936e-20
1.60267e-05
6.03138e-20
6.88605e-20
1.63582e-05
6.07214e-20
7.39633e-20
1.6695e-05
5.98201e-20
7.38727e-20
1.70369e-05
5.63358e-20
7.77653e-20
1.73841e-05
5.99567e-20
8.17384e-20
1.77368e-05
6.29045e-20
8.29852e-20
1.8095e-05
6.45241e-20
8.28329e-20
1.84588e-05
6.6478e-20
8.23565e-20
1.88283e-05
6.91189e-20
8.28506e-20
1.92036e-05
7.27829e-20
8.37009e-20
1.95849e-05
7.38865e-20
8.52533e-20
1.99722e-05
7.30658e-20
8.79026e-20
2.03656e-05
7.86348e-20
9.36642e-20
2.07653e-05
7.97631e-20
9.47812e-20
2.11713e-05
8.55912e-20
9.65582e-20
2.15838e-05
8.60497e-20
9.53828e-20
2.20029e-05
8.39851e-20
1.00696e-19
2.24287e-05
8.65712e-20
1.06128e-19
2.28613e-05
8.81749e-20
1.11617e-19
2.33008e-05
9.23255e-20
1.17217e-19
2.37473e-05
9.38148e-20
1.19648e-19
2.4201e-05
9.626e-20
1.2499e-19
2.4662e-05
9.6522e-20
1.27882e-19
2.51304e-05
9.81206e-20
1.33287e-19
2.56063e-05
9.65136e-20
1.39705e-19
2.60899e-05
9.65336e-20
1.41758e-19
2.65812e-05
9.81872e-20
1.45699e-19
2.70805e-05
9.94539e-20
1.49456e-19
2.75878e-05
9.37857e-20
1.509e-19
2.81033e-05
1.04991e-19
1.53379e-19
2.86271e-05
1.01797e-19
1.59123e-19
2.91594e-05
1.03735e-19
1.60939e-19
2.97003e-05
1.05545e-19
1.64976e-19
3.02499e-05
1.07335e-19
1.67368e-19
3.08084e-05
1.12747e-19
1.76449e-19
3.13759e-05
1.0729e-19
1.82891e-19
3.19526e-05
1.06965e-19
1.85214e-19
3.25386e-05
1.09951e-19
1.87201e-19
3.3134e-05
1.1001e-19
1.87795e-19
3.37392e-05
1.19713e-19
1.95746e-19
3.4354e-05
1.21653e-19
2.00469e-19
3.49789e-05
1.2008e-19
2.05501e-19
3.56138e-05
1.12525e-19
2.08936e-19
3.6259e-05
1.19557e-19
2.09323e-19
3.69147e-05
1.20084e-19
2.19912e-19
3.75809e-05
1.25625e-19
2.25931e-19
3.82579e-05
1.19655e-19
2.27903e-19
3.89459e-05
1.25039e-19
2.27234e-19
3.9645e-05
1.25977e-19
2.27187e-19
4.03553e-05
1.27279e-19
2.34071e-19
4.10772e-05
1.27831e-19
2.42347e-19
4.18107e-05
1.34626e-19
2.44881e-19
4.25561e-05
1.43364e-19
2.46995e-19
4.33134e-05
1.39066e-19
2.48309e-19
4.40831e-05
1.46948e-19
2.51056e-19
4.48651e-05
1.46852e-19
2.60399e-19
4.56598e-05
1.47214e-19
2.6023e-19
4.64673e-05
1.44017e-19
2.62566e-19
4.72878e-05
1.46312e-19
2.63072e-19
4.81215e-05
1.4941e-19
2.5936e-19
4.89687e-05
1.50493e-19
2.60121e-19
4.98295e-05
1.55914e-19
2.65054e-19
5.07041e-05
1.49683e-19
2.7959e-19
5.15929e-05
1.51445e-19
2.82962e-19
5.24959e-05
1.6211e-19
2.87631e-19
5.34135e-05
1.54776e-19
2.99215e-19
5.43459e-05
1.45143e-19
3.00989e-19
5.52932e-05
1.49074e-19
3.04787e-19
5.62557e-05
1.49289e-19
3.11511e-19
5.72337e-05
1.47446e-19
3.14348e-19
5.82274e-05
1.63978e-19
3.13641e-19
5.9237e-05
1.64003e-19
3.17623e-19
6.02629e-05
1.71806e-19
3.15104e-19
6.13051e-05
1.74282e-19
3.15032e-19
6.23641e-05
1.83625e-19
3.19759e-19
6.344e-05
1.64989e-19
3.27631e-19
6.45332e-05
1.74793e-19
3.17508e-19
6.56438e-05
1.82474e-19
3.23414e-19
6.67722e-05
1.90453e-19
3.35587e-19
6.79186e-05
1.75298e-19
3.59482e-19
6.90834e-05
1.74772e-19
3.60412e-19
7.02667e-05
1.75068e-19
3.64342e-19
7.14689e-05
1.68754e-19
3.69168e-19
7.26903e-05
1.63788e-19
3.67744e-19
7.39312e-05
1.56355e-19
3.67236e-19
7.51919e-05
1.43998e-19
3.68365e-19
7.64726e-05
1.53062e-19
3.5371e-19
7.77737e-05
1.63746e-19
3.52287e-19
7.90955e-05
1.63385e-19
3.43642e-19
8.04383e-05
1.55804e-19
3.54191e-19
8.18024e-05
1.68739e-19
3.44415e-19
8.31883e-05
1.65436e-19
3.38348e-19
8.45961e-05
1.65104e-19
3.53619e-19
8.60262e-05
1.64121e-19
3.50106e-19
8.74791e-05
1.75023e-19
3.60079e-19
8.89549e-05
1.77534e-19
3.60902e-19
9.04541e-05
1.68902e-19
3.65411e-19
9.19771e-05
1.72231e-19
3.62144e-19
9.35241e-05
1.49095e-19
3.56491e-19
9.50956e-05
1.35435e-19
3.51838e-19
9.66919e-05
1.10552e-19
3.44921e-19
9.83135e-05
1.16172e-19
3.40471e-19
9.99606e-05
1.09129e-19
3.26376e-19
0.000101634
1.19834e-19
3.23656e-19
0.000103333
1.13208e-19
3.09047e-19
0.000105059
1.12289e-19
3.02848e-19
0.000106813
1.20445e-19
2.92671e-19
0.000108594
1.18179e-19
2.77968e-19
0.000110403
1.13588e-19
2.64136e-19
0.000112241
1.13384e-19
2.69331e-19
0.000114107
1.39887e-19
2.67437e-19
0.000116003
1.30795e-19
2.69727e-19
0.000117928
1.24133e-19
2.76185e-19
0.000119884
1.51986e-19
2.74958e-19
0.00012187
1.84048e-19
2.74922e-19
0.000123887
1.885e-19
2.54785e-19
0.000125936
1.74928e-19
2.64363e-19
0.000128017
1.57096e-19
2.44655e-19
0.000130131
1.66784e-19
2.30718e-19
0.000132277
1.63512e-19
2.13687e-19
0.000134457
1.41533e-19
2.11987e-19
0.000136671
1.38531e-19
2.23161e-19
0.00013892
1.44621e-19
2.10121e-19
0.000141203
1.49714e-19
2.13863e-19
0.000143523
1.53287e-19
1.91316e-19
0.000145878
1.32051e-19
1.6723e-19
0.00014827
7.16688e-20
1.6587e-19
0.000150699
6.28163e-20
1.64523e-19
0.000153166
9.3022e-20
1.385e-19
0.000155671
8.93045e-20
1.27015e-19
0.000158215
4.15635e-20
1.30769e-19
0.000160799
9.26205e-22
1.03799e-19
0.000163422
-1.91399e-20
7.87501e-20
0.000166087
-3.50357e-20
5.97093e-20
0.000168792
-2.29676e-20
3.93416e-20
0.000171539
-4.41535e-20
4.782e-20
0.000174329
-5.04145e-20
6.3061e-20
0.000177162
-6.77057e-20
4.34729e-20
0.000180038
-5.90298e-20
3.96443e-20
0.000182959
-3.89478e-20
2.96366e-20
0.000185925
-7.71829e-20
4.13541e-20
0.000188937
-8.31726e-20
9.71579e-21
0.000191995
-9.11924e-20
-1.44974e-20
0.0001951
-8.30984e-20
-4.73956e-20
0.000198253
-7.4977e-20
-7.06558e-20
0.000201454
-4.02576e-20
-8.37848e-20
0.000204704
-3.7321e-20
-9.71274e-20
0.000208005
-7.01327e-20
-8.23065e-20
0.000211356
-5.60043e-20
-9.4035e-20
0.000214758
-4.13737e-20
-7.93729e-20
0.000218212
-3.6164e-20
-6.77528e-20
0.000221719
-9.96252e-20
-7.40162e-20
0.00022528
-1.18749e-19
-8.45453e-20
0.000228895
-1.73097e-19
-2.79439e-20
0.000232565
-2.08705e-19
-3.52647e-20
0.000236291
-2.48402e-19
-5.44392e-20
0.000240074
-2.67914e-19
-5.02325e-20
0.000243914
-2.2489e-19
-7.40246e-20
0.000247813
-1.59582e-19
-9.24892e-20
0.000251771
-1.07757e-19
-9.57955e-20
0.00025579
-1.98771e-19
-1.30627e-19
0.000259869
-2.08444e-19
-1.18018e-19
0.00026401
-2.16227e-19
-1.0553e-19
0.000268214
-1.20354e-19
-1.6691e-19
0.000272481
-1.33633e-19
-1.44005e-19
0.000276813
-1.63431e-19
-1.22905e-19
0.00028121
-1.99344e-19
-1.1732e-19
0.000285674
-2.1978e-19
-1.295e-19
0.000290205
-1.90584e-19
-1.20285e-19
0.000294804
-1.4296e-19
-1.01745e-19
0.000299472
-1.10509e-19
-1.42819e-19
0.000304211
-4.38303e-20