/*--------------------------------*- C++ -*----------------------------------*\
| =========                 |                                                 |
| \\      /  F ield         | OpenFOAM: The Open Source CFD Toolbox           |
|  \\    /   O peration     | Version:  2012                                  |
|   \\  /    A nd           | Website:  www.openfoam.com                      |
|    \\/     M anipulation  |                                                 |
\*---------------------------------------------------------------------------*/
FoamFile
{
    version     2.0;
    format      ascii;
    class       volVectorField;
    location    "16900";
    object      U;
}
// * * * * * * * * * * * * * * * * * * * * * * * * * * * * * * * * * * * * * //

dimensions      [0 1 -1 0 0 0 0];


internalField   nonuniform List<vector> 
2560
(
(0.111361 9.26427e-09 -3.80919e-08)
(0.111361 -2.6364e-09 4.51534e-22)
(0.3355 1.96424e-08 -5.91952e-08)
(0.3355 9.33998e-09 -1.59853e-10)
(0.562684 1.12323e-08 -4.34561e-08)
(0.562684 8.15169e-09 -4.30268e-10)
(0.792944 -2.40489e-09 -2.31966e-08)
(0.792944 -6.3502e-09 -6.62722e-10)
(1.02631 -3.25154e-09 -1.20123e-08)
(1.02631 -8.42186e-09 -8.37458e-10)
(1.26281 -8.06923e-12 -6.84914e-09)
(1.26281 -5.31906e-09 -1.00951e-09)
(1.50249 1.29876e-09 -4.13803e-09)
(1.50249 -4.27883e-09 -1.20918e-09)
(1.74539 2.49357e-09 -2.39829e-09)
(1.74539 -3.21745e-09 -1.45292e-09)
(1.99156 2.61006e-09 -1.05025e-09)
(1.99156 -3.23398e-09 -1.56604e-09)
(2.24106 3.3361e-09 1.6171e-10)
(2.24106 -2.60249e-09 -2.68577e-10)
(2.49396 3.33158e-09 1.37079e-09)
(2.49396 -2.70517e-09 1.00054e-09)
(2.75033 3.56999e-09 2.65861e-09)
(2.75033 -2.53773e-09 2.33271e-09)
(3.01024 3.74055e-09 4.08289e-09)
(3.01024 -2.4445e-09 3.79064e-09)
(3.27376 3.79009e-09 4.92781e-09)
(3.27376 -2.45765e-09 5.42459e-09)
(3.54097 3.9295e-09 5.60173e-09)
(3.54097 -2.38142e-09 6.08155e-09)
(3.81195 3.89178e-09 6.34613e-09)
(3.81195 -2.47544e-09 6.34823e-09)
(4.08679 4.05384e-09 7.16208e-09)
(4.08679 -2.36881e-09 7.1649e-09)
(4.36554 4.11816e-09 8.05874e-09)
(4.36554 -2.35661e-09 8.06088e-09)
(4.64829 4.00477e-09 9.03572e-09)
(4.64829 -2.52048e-09 9.03859e-09)
(4.9351 4.13737e-09 1.01001e-08)
(4.9351 -2.43648e-09 1.01022e-08)
(5.22603 4.23603e-09 1.12566e-08)
(5.22603 -2.38528e-09 1.12595e-08)
(5.52112 4.239e-09 1.25146e-08)
(5.52112 -2.42936e-09 1.25169e-08)
(5.82042 3.94482e-09 1.38716e-08)
(5.82042 -2.76843e-09 1.38745e-08)
(6.12396 4.45306e-09 1.53392e-08)
(6.12396 -2.30553e-09 1.53415e-08)
(6.43174 4.21e-09 1.69249e-08)
(6.43174 -2.59296e-09 1.6928e-08)
(6.74376 4.29784e-09 1.86356e-08)
(6.74376 -2.54959e-09 1.86379e-08)
(7.06 3.91076e-09 2.04696e-08)
(7.06 -2.9801e-09 2.04728e-08)
(7.38041 4.65784e-09 2.24434e-08)
(7.38041 -2.27686e-09 2.24458e-08)
(7.70493 4.08995e-09 2.45648e-08)
(7.70493 -2.88862e-09 2.4568e-08)
(8.03347 4.42384e-09 2.68409e-08)
(8.03347 -2.5987e-09 2.68433e-08)
(8.36592 3.84074e-09 2.92727e-08)
(8.36592 -3.22553e-09 2.9276e-08)
(8.70214 4.74451e-09 3.18781e-08)
(8.70214 -2.366e-09 3.18806e-08)
(9.04195 4.04916e-09 3.46676e-08)
(9.04195 -3.10605e-09 3.4671e-08)
(9.38517 4.33179e-09 3.76471e-08)
(9.38517 -2.86857e-09 3.76497e-08)
(9.73155 3.95725e-09 4.08222e-08)
(9.73155 -3.2884e-09 4.08256e-08)
(10.0808 4.69446e-09 4.42143e-08)
(10.0808 -2.59721e-09 4.4217e-08)
(10.4327 4.03401e-09 4.7834e-08)
(10.4327 -3.30442e-09 4.78376e-08)
(10.7869 4.27385e-09 5.16892e-08)
(10.7869 -3.11223e-09 5.16919e-08)
(11.1431 3.9335e-09 5.57875e-08)
(11.1431 -3.50045e-09 5.57911e-08)
(11.5007 4.62958e-09 6.01533e-08)
(11.5007 -2.85356e-09 6.01561e-08)
(11.8594 4.09542e-09 6.48016e-08)
(11.8594 -3.43764e-09 6.48053e-08)
(12.2188 4.25262e-09 6.97436e-08)
(12.2188 -3.33184e-09 6.97465e-08)
(12.5783 3.70793e-09 7.49836e-08)
(12.5783 -3.92803e-09 7.49874e-08)
(12.9374 4.98994e-09 8.05575e-08)
(12.9374 -2.69985e-09 8.05604e-08)
(13.2956 3.28747e-09 8.64704e-08)
(13.2956 -4.45617e-09 8.64743e-08)
(13.6522 5.14478e-09 9.27474e-08)
(13.6522 -2.65566e-09 9.27504e-08)
(14.0066 2.69774e-09 9.93907e-08)
(14.0066 -5.15878e-09 9.93947e-08)
(14.3582 5.76123e-09 1.06436e-07)
(14.3582 -2.15499e-09 1.06439e-07)
(14.7062 3.48692e-09 1.1392e-07)
(14.7062 -4.48867e-09 1.13924e-07)
(15.05 3.19983e-09 1.21806e-07)
(15.05 -4.83847e-09 1.21809e-07)
(15.3889 3.17834e-09 1.30101e-07)
(15.3889 -4.92428e-09 1.30105e-07)
(15.7221 9.66962e-09 1.38983e-07)
(15.7221 1.50263e-09 1.38986e-07)
(16.0488 -5.17941e-09 1.48273e-07)
(16.0488 -1.34139e-08 1.48277e-07)
(16.3683 1.24238e-08 1.58051e-07)
(16.3683 4.11922e-09 1.58055e-07)
(16.6798 -9.7208e-10 1.68445e-07)
(16.6798 -9.34685e-09 1.6845e-07)
(16.9824 4.03839e-09 1.79262e-07)
(16.9824 -4.41478e-09 1.79265e-07)
(17.2754 7.67636e-09 1.90731e-07)
(17.2754 -8.47626e-10 1.90736e-07)
(17.5581 -3.27295e-09 2.02687e-07)
(17.5581 -1.1879e-08 2.02691e-07)
(17.8295 1.0225e-08 2.15195e-07)
(17.8295 1.54057e-09 2.15199e-07)
(18.089 -1.93778e-09 2.28306e-07)
(18.089 -1.07101e-08 2.2831e-07)
(18.3357 8.94499e-09 2.41984e-07)
(18.3357 9.07117e-11 2.41988e-07)
(18.569 -1.28624e-09 2.56254e-07)
(18.569 -1.02326e-08 2.56258e-07)
(18.7882 2.36674e-09 2.70917e-07)
(18.7882 -6.67177e-09 2.70922e-07)
(18.9924 7.3295e-09 2.86208e-07)
(18.9924 -1.80287e-09 2.86212e-07)
(19.1812 1.18832e-09 3.02082e-07)
(19.1812 -8.04119e-09 3.02087e-07)
(19.3539 -3.34152e-09 3.18207e-07)
(19.3539 -1.26785e-08 3.18211e-07)
(19.51 1.41221e-08 3.34926e-07)
(19.51 4.69264e-09 3.34931e-07)
(19.649 -1.50291e-08 3.51876e-07)
(19.649 -2.4581e-08 3.5188e-07)
(19.7703 2.59573e-08 3.69362e-07)
(19.7703 1.63108e-08 3.69367e-07)
(19.8738 -2.88887e-08 3.86949e-07)
(19.8738 -3.86662e-08 3.86953e-07)
(19.959 3.38459e-08 4.04808e-07)
(19.959 2.39709e-08 4.04813e-07)
(20.0257 -2.95688e-08 4.22919e-07)
(20.0257 -3.9587e-08 4.22923e-07)
(20.0739 2.81475e-08 4.4103e-07)
(20.0739 1.80319e-08 4.41036e-07)
(20.1033 -2.23038e-08 4.5938e-07)
(20.1033 -3.25769e-08 4.59384e-07)
(20.1141 2.06407e-08 4.77669e-07)
(20.1141 1.02732e-08 4.77674e-07)
(20.1064 -1.62739e-08 4.96108e-07)
(20.1064 -2.68156e-08 4.96113e-07)
(20.0802 1.06879e-08 5.14326e-07)
(20.0802 5.76904e-11 5.14332e-07)
(20.0359 -3.73557e-09 5.32771e-07)
(20.0359 -1.45607e-08 5.32775e-07)
(19.9739 -2.46804e-09 5.50981e-07)
(19.9739 -1.33749e-08 5.50987e-07)
(19.8944 8.77859e-09 5.69421e-07)
(19.8944 -2.34376e-09 5.69426e-07)
(19.7981 -1.60339e-08 5.87628e-07)
(19.7981 -2.72228e-08 5.87634e-07)
(19.6855 1.92669e-08 6.06003e-07)
(19.6855 7.82691e-09 6.06007e-07)
(19.5572 -2.04866e-08 6.24431e-07)
(19.5572 -3.19659e-08 6.24437e-07)
(19.414 1.65565e-08 6.42831e-07)
(19.414 4.78069e-09 6.42835e-07)
(19.2564 -1.49408e-08 6.61465e-07)
(19.2564 -2.67191e-08 6.61472e-07)
(19.0854 1.50457e-08 6.80312e-07)
(19.0854 2.91409e-09 6.80317e-07)
(18.9017 -1.75141e-08 6.99321e-07)
(18.9017 -2.95969e-08 6.99328e-07)
(18.7062 1.73468e-08 7.18611e-07)
(18.7062 4.83507e-09 7.18616e-07)
(18.4997 -1.99837e-08 7.38134e-07)
(18.4997 -3.23763e-08 7.38141e-07)
(18.2831 1.73218e-08 7.57904e-07)
(18.2831 4.40358e-09 7.57909e-07)
(18.0573 -1.38837e-08 7.78225e-07)
(18.0573 -2.65903e-08 7.78233e-07)
(17.8232 1.09833e-08 7.98853e-07)
(17.8232 -2.37491e-09 7.98858e-07)
(17.5816 -1.0469e-08 8.19964e-07)
(17.5816 -2.34884e-08 8.19971e-07)
(17.3334 4.6931e-09 8.41298e-07)
(17.3334 -9.14275e-09 8.41303e-07)
(17.0795 1.86831e-09 8.63417e-07)
(17.0795 -1.14646e-08 8.63425e-07)
(16.8207 -4.27839e-09 8.85952e-07)
(16.8207 -1.86368e-08 8.85957e-07)
(16.5577 -1.63781e-09 9.08731e-07)
(16.5577 -1.52741e-08 9.08739e-07)
(16.2914 9.23168e-09 9.3239e-07)
(16.2914 -5.71145e-09 9.32395e-07)
(16.0224 -1.60492e-08 9.56266e-07)
(16.0224 -2.997e-08 9.56274e-07)
(15.7515 2.15871e-08 9.80925e-07)
(15.7515 5.98899e-09 9.8093e-07)
(15.4793 -2.16099e-08 1.00613e-06)
(15.4793 -3.57912e-08 1.00613e-06)
(15.2065 1.66024e-08 1.03159e-06)
(15.2065 2.61878e-10 1.03159e-06)
(14.9335 -1.29891e-08 1.05773e-06)
(14.9335 -2.73933e-08 1.05774e-06)
(14.6609 1.59734e-08 1.0845e-06)
(14.6609 -1.21834e-09 1.08451e-06)
(14.3892 -1.9739e-08 1.11156e-06)
(14.3892 -3.4308e-08 1.11157e-06)
(14.1189 2.61507e-08 1.13937e-06)
(14.1189 7.9707e-09 1.13937e-06)
(13.8503 -2.91144e-08 1.16746e-06)
(13.8503 -4.37667e-08 1.16747e-06)
(13.5839 3.33553e-08 1.19612e-06)
(13.5839 1.40144e-08 1.19612e-06)
(13.3199 -3.12092e-08 1.22527e-06)
(13.3199 -4.583e-08 1.22528e-06)
(13.0587 3.07548e-08 1.25467e-06)
(13.0587 1.00348e-08 1.25467e-06)
(12.8004 -2.77932e-08 1.28449e-06)
(12.8004 -4.22243e-08 1.28451e-06)
(12.5454 3.68556e-08 1.31502e-06)
(12.5454 1.44787e-08 1.31502e-06)
(12.2938 -4.35021e-08 1.34534e-06)
(12.2938 -5.75251e-08 1.34536e-06)
(12.0458 5.85528e-08 1.37658e-06)
(12.0458 3.41645e-08 1.37658e-06)
(11.8016 -6.65229e-08 1.40743e-06)
(11.8016 -7.98424e-08 1.40745e-06)
(11.5611 8.35941e-08 1.43919e-06)
(11.5611 5.67395e-08 1.43918e-06)
(11.3246 -8.82313e-08 1.47063e-06)
(11.3246 -1.00447e-07 1.47065e-06)
(11.092 1.04536e-07 1.50279e-06)
(11.092 7.46288e-08 1.50278e-06)
(10.8635 -1.10826e-07 1.53437e-06)
(10.8635 -1.21401e-07 1.5344e-06)
(10.639 1.28768e-07 1.56661e-06)
(10.639 9.50533e-08 1.56659e-06)
(10.4187 -1.27582e-07 1.59858e-06)
(10.4187 -1.35795e-07 1.59861e-06)
(10.2024 1.42683e-07 1.63084e-06)
(10.2024 1.0418e-07 1.63081e-06)
(9.99015 -1.39326e-07 1.66279e-06)
(9.99015 -1.44213e-07 1.66284e-06)
(9.78198 1.56152e-07 1.69496e-06)
(9.78198 1.11587e-07 1.69492e-06)
(9.57783 -1.55381e-07 1.72642e-06)
(9.57783 -1.55655e-07 1.72648e-06)
(9.37766 1.84004e-07 1.75867e-06)
(9.37766 1.31712e-07 1.75862e-06)
(9.18144 -1.9427e-07 1.78924e-06)
(9.18144 -1.88209e-07 1.78932e-06)
(8.98912 2.37272e-07 1.82136e-06)
(8.98912 1.75073e-07 1.82128e-06)
(8.80065 -2.53531e-07 1.85113e-06)
(8.80065 -2.38846e-07 1.85124e-06)
(8.61598 2.99146e-07 1.88236e-06)
(8.61598 2.24196e-07 1.88225e-06)
(8.43506 -3.12447e-07 1.91117e-06)
(8.43506 -2.8611e-07 1.91132e-06)
(8.25784 3.67739e-07 1.94188e-06)
(8.25784 2.76313e-07 1.94173e-06)
(8.08426 -3.92869e-07 1.969e-06)
(8.08426 -3.50852e-07 1.96919e-06)
(7.91428 4.59782e-07 1.99854e-06)
(7.91428 3.46984e-07 1.99834e-06)
(7.74785 -4.87695e-07 2.02395e-06)
(7.74785 -4.24649e-07 2.02421e-06)
(7.58491 5.68439e-07 2.05253e-06)
(7.58491 4.27826e-07 2.05225e-06)
(7.42541 -6.09796e-07 2.07555e-06)
(7.42541 -5.18614e-07 2.0759e-06)
(7.26931 7.08467e-07 2.10278e-06)
(7.26931 5.31541e-07 2.1024e-06)
(7.11655 -7.63724e-07 2.12293e-06)
(7.11655 -6.34961e-07 2.1234e-06)
(6.96708 8.84269e-07 2.14866e-06)
(6.96708 6.59806e-07 2.14814e-06)
(6.82086 -9.54682e-07 2.16563e-06)
(6.82086 -7.75785e-07 2.16626e-06)
(6.67784 1.10179e-06 2.18997e-06)
(6.67784 8.1494e-07 2.18925e-06)
(6.53798 -1.1949e-06 2.20315e-06)
(6.53798 -9.49168e-07 2.20401e-06)
(6.40124 1.37324e-06 2.22594e-06)
(6.40124 1.00433e-06 2.22495e-06)
(6.2676 -1.49539e-06 2.23448e-06)
(6.2676 -1.16058e-06 2.23565e-06)
(6.137 1.71924e-06 2.25619e-06)
(6.137 1.24215e-06 2.25484e-06)
(6.00943 -1.88297e-06 2.25936e-06)
(6.00943 -1.42943e-06 2.26095e-06)
(5.88485 2.15999e-06 2.28002e-06)
(5.88485 1.54001e-06 2.27817e-06)
(5.76324 -2.37021e-06 2.27723e-06)
(5.76324 -1.75841e-06 2.2794e-06)
(5.64456 2.70908e-06 2.29719e-06)
(5.64456 1.89998e-06 2.29466e-06)
(5.52881 -2.98184e-06 2.28707e-06)
(5.52881 -2.15894e-06 2.29004e-06)
(5.41595 3.40068e-06 2.30683e-06)
(5.41595 2.34078e-06 2.30336e-06)
(5.30595 -3.75321e-06 2.28793e-06)
(5.30595 -2.64856e-06 2.29201e-06)
(5.1988 4.27365e-06 2.3084e-06)
(5.1988 2.88056e-06 2.30363e-06)
(5.09448 -4.72977e-06 2.27893e-06)
(5.09448 -3.24873e-06 2.28452e-06)
(4.99295 5.37786e-06 2.30121e-06)
(4.99295 3.54127e-06 2.29466e-06)
(4.89419 -5.96482e-06 2.25905e-06)
(4.89419 -3.98042e-06 2.26674e-06)
(4.79816 6.76989e-06 2.28446e-06)
(4.79816 4.3419e-06 2.27544e-06)
(4.70482 -7.51886e-06 2.2271e-06)
(4.70482 -4.86051e-06 2.2377e-06)
(4.61411 8.52239e-06 2.2581e-06)
(4.61411 5.30427e-06 2.24565e-06)
(4.52596 -9.48679e-06 2.18144e-06)
(4.52596 -5.92485e-06 2.19607e-06)
(4.44031 1.07517e-05 2.22159e-06)
(4.44031 6.4759e-06 2.2044e-06)
(4.35704 -1.19965e-05 2.12102e-06)
(4.35704 -7.22127e-06 2.14124e-06)
(4.27607 1.359e-05 2.17422e-06)
(4.27607 7.89558e-06 2.15042e-06)
(4.19727 -1.51882e-05 2.04402e-06)
(4.19727 -8.78131e-06 2.07204e-06)
(4.12054 1.72034e-05 2.11676e-06)
(4.12054 9.60257e-06 2.08375e-06)
(4.04577 -1.92727e-05 1.94779e-06)
(4.04577 -1.06676e-05 1.98669e-06)
(3.97285 2.18358e-05 2.04776e-06)
(3.97285 1.16677e-05 2.00189e-06)
(3.90169 -2.44935e-05 1.83139e-06)
(3.90169 -1.29217e-05 1.88549e-06)
(3.83222 2.77434e-05 1.96941e-06)
(3.83222 1.41108e-05 1.90555e-06)
(3.7644 -3.11709e-05 1.69086e-06)
(3.7644 -1.55877e-05 1.76628e-06)
(3.69818 3.53168e-05 1.88177e-06)
(3.69818 1.6999e-05 1.79266e-06)
(3.63358 -3.9731e-05 1.52425e-06)
(3.63358 -1.87128e-05 1.6296e-06)
(3.5706 4.50175e-05 1.78736e-06)
(3.5706 2.035e-05 1.66274e-06)
(3.50925 -5.07059e-05 1.3271e-06)
(3.50925 -2.23089e-05 1.47457e-06)
(3.44954 5.74807e-05 1.69104e-06)
(3.44954 2.41882e-05 1.51638e-06)
(3.39149 -6.48396e-05 1.09601e-06)
(3.39149 -2.64032e-05 1.30293e-06)
(3.33509 7.35464e-05 1.59761e-06)
(3.33509 2.85111e-05 1.35225e-06)
(3.28031 -8.30792e-05 8.25073e-07)
(3.28031 -3.09524e-05 1.1161e-06)
(3.22714 9.43042e-05 1.51528e-06)
(3.22714 3.32435e-05 1.16979e-06)
(3.17552 -0.000106699 5.188e-07)
(3.17552 -3.58599e-05 9.14996e-07)
(3.12541 0.00012087 1.43875e-06)
(3.12541 3.82566e-05 9.66116e-07)
(3.07673 -0.000136638 4.08513e-07)
(3.07673 -4.09334e-05 7.03513e-07)
(3.02939 0.000148283 1.12306e-06)
(3.02939 4.32658e-05 7.37035e-07)
(2.98331 -0.000161675 2.89277e-07)
(2.98331 -4.58502e-05 4.81358e-07)
(2.93841 0.000170685 7.77368e-07)
(2.93841 4.78963e-05 4.81549e-07)
(2.89462 -0.000181468 1.60399e-07)
(2.89462 -5.0259e-05 5.64486e-07)
(2.85187 0.000187722 3.9723e-07)
(2.85187 5.1812e-05 4.93924e-07)
(2.81011 -0.000195609 2.09595e-08)
(2.81011 -5.38459e-05 7.15214e-07)
(2.76932 0.000198974 -2.0552e-19)
(2.76932 5.46993e-05 7.64103e-07)
(2.72951 -0.00019601 3.64726e-07)
(2.7295 -5.63279e-05 5.43738e-07)
(2.69068 0.000196642 1.54638e-07)
(2.69068 5.63727e-05 6.89863e-07)
(2.65284 -0.000190158 8.46512e-07)
(2.65284 -5.75169e-05 4.73677e-07)
(2.61599 0.000187381 3.23e-07)
(2.61599 5.67718e-05 6.1284e-07)
(2.58009 -0.000177365 1.36022e-06)
(2.58009 -5.74048e-05 8.52763e-07)
(2.54514 0.000170999 5.04888e-07)
(2.54514 5.59372e-05 9.15833e-07)
(2.51111 -0.000157479 1.90296e-06)
(2.51111 -5.60727e-05 1.25457e-06)
(2.47793 0.000147372 6.99375e-07)
(2.47793 5.40014e-05 1.27072e-06)
(2.44555 -0.000134089 2.28676e-06)
(2.44555 -5.3733e-05 1.67355e-06)
(2.41388 0.000124059 1.10504e-06)
(2.41388 5.12343e-05 1.65707e-06)
(2.38277 -0.000112767 2.60299e-06)
(2.38277 -5.07262e-05 2.10776e-06)
(2.35205 0.000104641 1.63064e-06)
(2.35205 4.79427e-05 2.07585e-06)
(2.32153 -9.49803e-05 2.96161e-06)
(2.32153 -4.73157e-05 2.56317e-06)
(2.291 8.84385e-05 2.16981e-06)
(2.291 4.43431e-05 2.52753e-06)
(2.26026 -8.01149e-05 3.36211e-06)
(2.26026 -4.36962e-05 3.04283e-06)
(2.2291 7.49187e-05 2.72808e-06)
(2.2291 4.06281e-05 3.01442e-06)
(2.19737 -6.76914e-05 3.80218e-06)
(2.19737 -4.00406e-05 3.54738e-06)
(2.16496 6.36242e-05 3.30344e-06)
(2.16496 3.69252e-05 3.5318e-06)
(2.13186 -5.72852e-05 4.27813e-06)
(2.13186 -3.64497e-05 4.0756e-06)
(2.09809 5.41621e-05 3.89523e-06)
(2.09809 3.33119e-05 4.07673e-06)
(2.06365 -4.85456e-05 4.78792e-06)
(2.06365 -3.29947e-05 4.62756e-06)
(2.02854 4.62406e-05 4.50779e-06)
(2.02854 2.98725e-05 4.65162e-06)
(1.99272 -4.12114e-05 5.33078e-06)
(1.99272 -2.97516e-05 5.20428e-06)
(1.95611 3.96173e-05 5.14053e-06)
(1.95611 2.66643e-05 5.25421e-06)
(1.91859 -3.50557e-05 5.90349e-06)
(1.91859 -2.67609e-05 5.80407e-06)
(1.88009 3.40608e-05 5.78983e-06)
(1.88008 2.36924e-05 5.8795e-06)
(1.84048 -2.98849e-05 6.5051e-06)
(1.84048 -2.40406e-05 6.42724e-06)
(1.79971 2.94177e-05 6.46641e-06)
(1.79971 2.09901e-05 6.53703e-06)
(1.75767 -2.55381e-05 7.14988e-06)
(1.75767 -2.15961e-05 7.08912e-06)
(1.71432 2.55474e-05 7.18536e-06)
(1.71432 1.85627e-05 7.24097e-06)
(1.66968 -2.18798e-05 7.84959e-06)
(1.66968 -1.94223e-05 7.80232e-06)
(1.62386 2.22986e-05 7.9552e-06)
(1.62386 1.63727e-05 7.99903e-06)
(1.57708 -1.8775e-05 8.61487e-06)
(1.57708 -1.7486e-05 8.57821e-06)
(1.52958 1.95815e-05 8.79259e-06)
(1.52958 1.44184e-05 8.8272e-06)
(1.48163 -1.61141e-05 9.45673e-06)
(1.48163 -1.57563e-05 9.4284e-06)
(1.43342 1.731e-05 9.69557e-06)
(1.43342 1.26811e-05 9.72301e-06)
(1.38502 -1.38619e-05 1.03527e-05)
(1.38502 -1.42583e-05 1.03309e-05)
(1.33641 1.54258e-05 1.06343e-05)
(1.33641 1.11533e-05 1.06562e-05)
(1.28741 -1.20253e-05 1.1273e-05)
(1.28741 -1.30457e-05 1.12563e-05)
(1.23783 1.39147e-05 1.16002e-05)
(1.23783 9.85998e-06 1.16177e-05)
(1.18759 -1.05209e-05 1.22397e-05)
(1.18759 -1.20712e-05 1.22271e-05)
(1.13674 1.27207e-05 1.26272e-05)
(1.13673 8.77461e-06 1.26414e-05)
(1.08542 -9.24827e-06 1.32919e-05)
(1.08542 -1.1262e-05 1.32823e-05)
(1.03384 1.17634e-05 1.37438e-05)
(1.03384 7.8384e-06 1.37554e-05)
(0.982144 -8.16954e-06 1.44405e-05)
(0.982143 -1.06016e-05 1.44334e-05)
(0.930494 1.10267e-05 1.49562e-05)
(0.930493 7.05122e-06 1.49658e-05)
(0.879073 -7.3141e-06 1.56793e-05)
(0.879072 -1.01359e-05 1.5674e-05)
(0.828108 1.04945e-05 1.62607e-05)
(0.828107 6.4085e-06 1.62688e-05)
(0.777861 -6.63032e-06 1.70243e-05)
(0.777859 -9.82623e-06 1.70205e-05)
(0.728551 1.0221e-05 1.76825e-05)
(0.72855 5.97284e-06 1.76893e-05)
(0.680232 -6.16724e-06 1.84719e-05)
(0.680231 -9.732e-06 1.84692e-05)
(0.632773 1.0175e-05 1.91852e-05)
(0.632772 5.71854e-06 1.9191e-05)
(0.585869 -5.94085e-06 1.99809e-05)
(0.585868 -9.87742e-06 1.99792e-05)
(0.539096 1.03215e-05 2.07423e-05)
(0.539095 5.61431e-06 2.07474e-05)
(0.492028 -5.89911e-06 2.15633e-05)
(0.492025 -1.02173e-05 2.15623e-05)
(0.444316 1.07395e-05 2.24025e-05)
(0.444313 5.74138e-06 2.24069e-05)
(0.395649 -6.09847e-06 2.32564e-05)
(0.395646 -1.0814e-05 2.32557e-05)
(0.345804 1.13972e-05 2.41829e-05)
(0.3458 6.06925e-06 2.41867e-05)
(0.294857 -6.52579e-06 2.50921e-05)
(0.294853 -1.16596e-05 2.50917e-05)
(0.243314 1.23426e-05 2.61398e-05)
(0.243309 6.64605e-06 2.6143e-05)
(0.19203 -7.17559e-06 2.71267e-05)
(0.192022 -1.27537e-05 2.71262e-05)
(0.141954 1.36284e-05 2.83047e-05)
(0.141944 7.5241e-06 2.83073e-05)
(0.093908 -8.19922e-06 2.93365e-05)
(0.0938934 -1.42525e-05 2.93358e-05)
(0.0485919 1.53065e-05 3.06374e-05)
(0.0485705 8.75438e-06 3.06393e-05)
(0.00647123 -9.55957e-06 3.17071e-05)
(0.00644317 -1.61235e-05 3.17059e-05)
(-0.0325678 1.74395e-05 3.31052e-05)
(-0.0325934 1.03956e-05 3.31064e-05)
(-0.0693495 -1.13997e-05 3.41429e-05)
(-0.0693676 -1.85094e-05 3.41424e-05)
(-0.105025 2.00654e-05 3.56143e-05)
(-0.105037 1.24839e-05 3.56161e-05)
(-0.140433 -1.38513e-05 3.6611e-05)
(-0.140441 -2.15502e-05 3.66113e-05)
(-0.175537 2.33346e-05 3.82231e-05)
(-0.175544 1.51662e-05 3.82258e-05)
(-0.209551 -1.69774e-05 3.92557e-05)
(-0.209556 -2.53133e-05 3.92573e-05)
(-0.241442 2.7467e-05 4.11362e-05)
(-0.241446 1.86567e-05 4.11399e-05)
(-0.270434 -2.08226e-05 4.22652e-05)
(-0.270437 -2.9849e-05 4.22682e-05)
(-0.29613 3.24435e-05 4.44332e-05)
(-0.296133 2.29298e-05 4.44382e-05)
(-0.318378 -2.54274e-05 4.56346e-05)
(-0.318381 -3.52041e-05 4.56392e-05)
(-0.337491 3.85283e-05 4.80527e-05)
(-0.337493 2.82427e-05 4.8059e-05)
(-0.354236 -3.1228e-05 4.91233e-05)
(-0.354238 -4.18214e-05 4.91297e-05)
(-0.369449 4.58692e-05 5.1662e-05)
(-0.369451 3.47359e-05 5.16698e-05)
(-0.383839 -3.84487e-05 5.24607e-05)
(-0.38384 -4.9932e-05 5.24691e-05)
(-0.398044 5.46178e-05 5.51128e-05)
(-0.398046 4.25533e-05 5.51224e-05)
(-0.412786 -4.72819e-05 5.56787e-05)
(-0.412788 -5.97353e-05 5.56895e-05)
(-0.428905 6.53117e-05 5.86686e-05)
(-0.428907 5.2224e-05 5.86802e-05)
(-0.447177 -5.78615e-05 5.90936e-05)
(-0.447179 -7.13731e-05 5.91076e-05)
(-0.468198 7.8218e-05 6.24745e-05)
(-0.4682 6.40046e-05 6.24889e-05)
(-0.492328 -7.07986e-05 6.25832e-05)
(-0.492331 -8.54654e-05 6.26013e-05)
(-0.519594 9.36054e-05 6.63375e-05)
(-0.519597 7.81505e-05 6.63558e-05)
(-0.549952 -8.63885e-05 6.60885e-05)
(-0.549955 -0.000102319 6.61122e-05)
(-0.583473 0.000112031 7.03771e-05)
(-0.583476 9.51995e-05 7.04005e-05)
(-0.61989 -0.000105128 6.97587e-05)
(-0.619893 -0.000122446 6.97902e-05)
(-0.658478 0.00013406 7.47549e-05)
(-0.658481 0.000115691 7.4785e-05)
(-0.698564 -0.00012756 7.37199e-05)
(-0.698568 -0.000146409 7.37621e-05)
(-0.739954 0.00016049 7.95625e-05)
(-0.739957 0.000140384 7.96012e-05)
(-0.782907 -0.000154612 7.78581e-05)
(-0.782911 -0.00017516 7.79148e-05)
(-0.827465 0.000192003 8.45922e-05)
(-0.827469 0.000169905 8.46414e-05)
(-0.872885 -0.000187008 8.20451e-05)
(-0.872888 -0.000209453 8.21218e-05)
(-0.917778 0.000229734 8.9876e-05)
(-0.917781 0.00020531 8.99378e-05)
(-0.960634 -0.00022596 8.61969e-05)
(-0.960637 -0.000250533 8.63017e-05)
(-1.00038 0.000274962 9.53049e-05)
(-1.00039 0.000247761 9.53802e-05)
(-1.03602 -0.000272837 9.01424e-05)
(-1.03602 -0.000299798 9.02865e-05)
(-1.06578 0.000329367 0.000100791)
(-1.06578 0.000298761 0.000100877)
(-1.08762 -0.000329399 9.36962e-05)
(-1.08762 -0.000359007 9.38957e-05)
(-1.10063 0.000394958 0.000106223)
(-1.10063 0.000360061 0.00010631)
(-1.10585 -0.000397463 9.67166e-05)
(-1.10585 -0.00042992 9.69955e-05)
(-1.10598 0.000473821 0.000111446)
(-1.10598 0.000433361 0.000111511)
(-1.10419 -0.00047965 9.8908e-05)
(-1.10419 -0.00051497 9.93071e-05)
(-1.10277 0.000568869 0.000116618)
(-1.10277 0.000520976 0.000116618)
(-1.10205 -0.000578066 0.000100739)
(-1.10205 -0.000615837 0.000101334)
(-1.10076 0.000683297 0.000122047)
(-1.10076 0.000625108 0.000121904)
(-1.09716 -0.000696635 0.000101499)
(-1.09716 -0.000735575 0.000102427)
(-1.08976 0.000821015 0.000126773)
(-1.08976 0.000747967 0.000126329)
(-1.07762 -0.000839269 0.000100086)
(-1.07761 -0.000876385 0.000101591)
(-1.0606 0.000986754 0.000129861)
(-1.0606 0.000891329 0.000128812)
(-1.03943 -0.001012 9.5181e-05)
(-1.03943 -0.00104106 9.77018e-05)
(-1.01482 0.00118741 0.000131157)
(-1.01481 0.00105698 0.000128936)
(-0.986237 -0.00122196 8.72907e-05)
(-0.986231 -0.0012308 9.16196e-05)
(-0.95272 0.00143304 0.000132623)
(-0.952713 0.00124613 0.000128193)
(-0.914854 -0.00147988 7.74199e-05)
(-0.914846 -0.00144572 8.49656e-05)
(-0.874509 0.00173758 0.00013547)
(-0.874499 0.00145756 0.000126963)
(-0.83422 -0.00180285 6.40438e-05)
(-0.834209 -0.00168439 7.73067e-05)
(-0.796583 0.00212176 0.000139106)
(-0.796572 0.00168615 0.000123302)
(-0.762887 -0.00220646 4.69889e-05)
(-0.762876 -0.00194002 6.794e-05)
(-0.732772 0.00259567 0.000141915)
(-0.732761 0.00192266 0.000115626)
(-0.705407 -0.00264234 4.17652e-05)
(-0.705396 -0.00219788 5.76515e-05)
(-0.681546 0.00303348 0.000126775)
(-0.681537 0.00216349 0.000102585)
(-0.662481 -0.00304907 3.46605e-05)
(-0.662474 -0.00243874 4.5985e-05)
(-0.64785 0.00342063 0.000105096)
(-0.647844 0.0023945 8.29996e-05)
(-0.635226 -0.00341562 2.45831e-05)
(-0.635221 -0.00264312 3.23515e-05)
(-0.622827 0.00379215 9.32826e-05)
(-0.622823 0.00260285 5.73378e-05)
(-0.612143 -0.00380291 4.47056e-05)
(-0.612141 -0.00277545 1.78991e-05)
(-0.606044 0.00401717 6.82849e-05)
(-0.606044 0.00278085 2.18861e-05)
(0.111361 -2.58945e-09 -1.80296e-21)
(0.111361 9.504e-09 3.99827e-08)
(0.335499 9.12728e-09 1.58884e-10)
(0.335499 2.07275e-08 6.86265e-08)
(0.562684 8.1748e-09 4.2978e-10)
(0.562684 1.19346e-08 5.04122e-08)
(0.792944 -6.32463e-09 6.62524e-10)
(0.792944 -1.84738e-09 2.69618e-08)
(1.02631 -8.39295e-09 8.37393e-10)
(1.02631 -2.69313e-09 1.40295e-08)
(1.26281 -5.29067e-09 1.00953e-09)
(1.26281 5.29205e-10 8.08343e-09)
(1.50249 -4.25011e-09 1.20922e-09)
(1.50249 1.84739e-09 4.99225e-09)
(1.74539 -3.18863e-09 1.453e-09)
(1.74539 3.0362e-09 3.04266e-09)
(1.99156 -3.20483e-09 1.05025e-09)
(1.99156 3.15843e-09 1.56604e-09)
(2.24106 -2.57316e-09 -1.6171e-10)
(2.24106 3.8796e-09 2.68577e-10)
(2.49396 -2.67543e-09 -1.37079e-09)
(2.49396 3.87886e-09 -1.00054e-09)
(2.75033 -2.50773e-09 -2.65861e-09)
(2.75033 4.11451e-09 -2.33271e-09)
(3.01024 -2.41413e-09 -4.08289e-09)
(3.01024 4.28713e-09 -3.8492e-09)
(3.27376 -2.42705e-09 -5.69035e-09)
(3.27376 4.33397e-09 -4.92996e-09)
(3.54097 -2.35047e-09 -5.90519e-09)
(3.54097 4.4752e-09 -5.60464e-09)
(3.81195 -2.44427e-09 -6.34831e-09)
(3.81195 4.43596e-09 -6.34833e-09)
(4.08679 -2.33735e-09 -7.16502e-09)
(4.08679 4.59919e-09 -7.16503e-09)
(4.36554 -2.32495e-09 -8.06096e-09)
(4.36554 4.66204e-09 -8.06098e-09)
(4.64829 -2.48856e-09 -9.03871e-09)
(4.64829 4.54981e-09 -9.03872e-09)
(4.9351 -2.40437e-09 -1.01023e-08)
(4.9351 4.68167e-09 -1.01024e-08)
(5.22603 -2.35295e-09 -1.12596e-08)
(5.22603 4.78112e-09 -1.12597e-08)
(5.52112 -2.39687e-09 -1.25169e-08)
(5.52112 4.78334e-09 -1.2517e-08)
(5.82042 -2.73575e-09 -1.38747e-08)
(5.82042 4.48999e-09 -1.38747e-08)
(6.12396 -2.27269e-09 -1.53416e-08)
(6.12396 4.99799e-09 -1.53416e-08)
(6.43174 -2.55996e-09 -1.69281e-08)
(6.43174 4.75557e-09 -1.69281e-08)
(6.74376 -2.51645e-09 -1.8638e-08)
(6.74376 4.84319e-09 -1.8638e-08)
(7.06 -2.94683e-09 -2.04729e-08)
(7.06 4.4568e-09 -2.04729e-08)
(7.38041 -2.24347e-09 -2.24459e-08)
(7.38041 5.20402e-09 -2.2446e-08)
(7.70493 -2.85512e-09 -2.45681e-08)
(7.70493 4.63672e-09 -2.45681e-08)
(8.03347 -2.5651e-09 -2.68434e-08)
(8.03347 4.9708e-09 -2.68435e-08)
(8.36592 -3.19186e-09 -2.92761e-08)
(8.36592 4.38833e-09 -2.92761e-08)
(8.70214 -2.33225e-09 -3.18807e-08)
(8.70214 5.29254e-09 -3.18808e-08)
(9.04195 -3.07225e-09 -3.46711e-08)
(9.04195 4.59779e-09 -3.46711e-08)
(9.38516 -2.83471e-09 -3.76498e-08)
(9.38516 4.88092e-09 -3.76498e-08)
(9.73155 -3.25452e-09 -4.08257e-08)
(9.73155 4.50702e-09 -4.08258e-08)
(10.0808 -2.5633e-09 -4.42171e-08)
(10.0808 5.24492e-09 -4.42171e-08)
(10.4327 -3.27051e-09 -4.78377e-08)
(10.4327 4.58512e-09 -4.78377e-08)
(10.7869 -3.07833e-09 -5.1692e-08)
(10.7869 4.82573e-09 -5.16921e-08)
(11.1431 -3.46658e-09 -5.57912e-08)
(11.1431 4.48604e-09 -5.57913e-08)
(11.5007 -2.81972e-09 -6.01562e-08)
(11.5007 5.18302e-09 -6.01563e-08)
(11.8594 -3.40387e-09 -6.48054e-08)
(11.8594 4.64954e-09 -6.48055e-08)
(12.2188 -3.29813e-09 -6.97466e-08)
(12.2188 4.80775e-09 -6.97467e-08)
(12.5783 -3.89442e-09 -7.49876e-08)
(12.5783 4.26373e-09 -7.49876e-08)
(12.9374 -2.66633e-09 -8.05605e-08)
(12.9374 5.54684e-09 -8.05606e-08)
(13.2956 -4.42279e-09 -8.64745e-08)
(13.2956 3.84508e-09 -8.64745e-08)
(13.6522 -2.62241e-09 -9.27505e-08)
(13.6522 5.7036e-09 -9.27506e-08)
(14.0066 -5.12569e-09 -9.93949e-08)
(14.0066 3.25726e-09 -9.93949e-08)
(14.3582 -2.12206e-09 -1.0644e-07)
(14.3582 6.32199e-09 -1.0644e-07)
(14.7062 -4.45594e-09 -1.13924e-07)
(14.7062 4.04843e-09 -1.13924e-07)
(15.05 -4.80595e-09 -1.21809e-07)
(15.05 3.76269e-09 -1.21809e-07)
(15.3889 -4.89199e-09 -1.30105e-07)
(15.3889 3.74192e-09 -1.30105e-07)
(15.7221 1.53469e-09 -1.38986e-07)
(15.7221 1.02346e-08 -1.38986e-07)
(16.0488 -1.33821e-08 -1.48277e-07)
(16.0488 -4.6137e-09 -1.48277e-07)
(16.3683 4.15072e-09 -1.58055e-07)
(16.3683 1.2991e-08 -1.58055e-07)
(16.6798 -9.31566e-09 -1.6845e-07)
(16.6798 -4.04169e-10 -1.6845e-07)
(16.9824 -4.38389e-09 -1.79265e-07)
(16.9824 4.60775e-09 -1.79265e-07)
(17.2754 -8.17086e-10 -1.90736e-07)
(17.2754 8.24649e-09 -1.90736e-07)
(17.5581 -1.18488e-08 -2.02691e-07)
(17.5581 -2.7013e-09 -2.02691e-07)
(17.8295 1.57039e-09 -2.152e-07)
(17.8295 1.07974e-08 -2.152e-07)
(18.089 -1.06806e-08 -2.2831e-07)
(18.089 -1.36391e-09 -2.2831e-07)
(18.3357 1.19749e-10 -2.41989e-07)
(18.3357 9.51961e-09 -2.41989e-07)
(18.569 -1.02039e-08 -2.56258e-07)
(18.569 -7.10142e-10 -2.56258e-07)
(18.7882 -6.64358e-09 -2.70923e-07)
(18.7882 2.94359e-09 -2.70923e-07)
(18.9924 -1.77512e-09 -2.86212e-07)
(18.9924 7.90778e-09 -2.86212e-07)
(19.1812 -8.01391e-09 -3.02087e-07)
(19.1812 1.76736e-09 -3.02087e-07)
(19.3539 -1.26517e-08 -3.18211e-07)
(19.3539 -2.7611e-09 -3.18211e-07)
(19.51 4.71895e-09 -3.34931e-07)
(19.51 1.47033e-08 -3.34932e-07)
(19.649 -2.45552e-08 -3.5188e-07)
(19.649 -1.44466e-08 -3.5188e-07)
(19.7703 1.63362e-08 -3.69367e-07)
(19.7703 2.65405e-08 -3.69368e-07)
(19.8738 -3.86413e-08 -3.86953e-07)
(19.8738 -2.83043e-08 -3.86953e-07)
(19.959 2.39953e-08 -4.04813e-07)
(19.959 3.44311e-08 -4.04813e-07)
(20.0257 -3.95631e-08 -4.22923e-07)
(20.0257 -2.89825e-08 -4.22924e-07)
(20.0739 1.80552e-08 -4.41036e-07)
(20.0739 2.87344e-08 -4.41036e-07)
(20.1033 -3.2554e-08 -4.59384e-07)
(20.1033 -2.17159e-08 -4.59384e-07)
(20.1141 1.02955e-08 -4.77675e-07)
(20.1141 2.12293e-08 -4.77675e-07)
(20.1064 -2.67937e-08 -4.96113e-07)
(20.1064 -1.56843e-08 -4.96113e-07)
(20.0802 7.90146e-11 -5.14332e-07)
(20.0802 1.12781e-08 -5.14332e-07)
(20.0359 -1.45397e-08 -5.32776e-07)
(20.0359 -3.1446e-09 -5.32776e-07)
(19.9739 -1.33545e-08 -5.50987e-07)
(19.9739 -1.87653e-09 -5.50988e-07)
(19.8945 -2.32376e-09 -5.69426e-07)
(19.8945 9.37084e-09 -5.69426e-07)
(19.7982 -2.72033e-08 -5.87635e-07)
(19.7982 -1.54413e-08 -5.87635e-07)
(19.6855 7.84615e-09 -6.06007e-07)
(19.6855 1.98602e-08 -6.06008e-07)
(19.5573 -3.19473e-08 -6.24438e-07)
(19.5573 -1.9893e-08 -6.24438e-07)
(19.414 4.79903e-09 -6.42835e-07)
(19.414 1.71507e-08 -6.42836e-07)
(19.2564 -2.67012e-08 -6.61472e-07)
(19.2564 -1.43463e-08 -6.61473e-07)
(19.0854 2.93195e-09 -6.80317e-07)
(19.0854 1.56407e-08 -6.80318e-07)
(18.9017 -2.95795e-08 -6.99328e-07)
(18.9017 -1.6919e-08 -6.99328e-07)
(18.7062 4.85223e-09 -7.18616e-07)
(18.7062 1.79423e-08 -7.18617e-07)
(18.4997 -3.23595e-08 -7.38141e-07)
(18.4997 -1.93881e-08 -7.38142e-07)
(18.2831 4.42043e-09 -7.57909e-07)
(18.2831 1.79177e-08 -7.5791e-07)
(18.0573 -2.65738e-08 -7.78232e-07)
(18.0573 -1.32878e-08 -7.78233e-07)
(17.8232 -2.35853e-09 -7.98857e-07)
(17.8232 1.15795e-08 -7.98859e-07)
(17.5816 -2.34723e-08 -8.19971e-07)
(17.5816 -9.87289e-09 -8.19972e-07)
(17.3334 -9.12632e-09 -8.41302e-07)
(17.3334 5.28955e-09 -8.41304e-07)
(17.0795 -1.14484e-08 -8.63424e-07)
(17.0795 2.46446e-09 -8.63425e-07)
(16.8207 -1.86206e-08 -8.85956e-07)
(16.8207 -3.68197e-09 -8.85958e-07)
(16.5577 -1.52579e-08 -9.08738e-07)
(16.5577 -1.04173e-09 -9.08739e-07)
(16.2914 -5.69486e-09 -9.32394e-07)
(16.2914 9.82808e-09 -9.32397e-07)
(16.0225 -2.99535e-08 -9.56273e-07)
(16.0225 -1.54533e-08 -9.56274e-07)
(15.7515 6.00577e-09 -9.80929e-07)