/*--------------------------------*- C++ -*----------------------------------*\
| =========                 |                                                 |
| \\      /  F ield         | OpenFOAM: The Open Source CFD Toolbox           |
|  \\    /   O peration     | Version:  2012                                  |
|   \\  /    A nd           | Website:  www.openfoam.com                      |
|    \\/     M anipulation  |                                                 |
\*---------------------------------------------------------------------------*/
FoamFile
{
    version     2.0;
    format      ascii;
    class       volTensorField;
    location    "11000";
    object      grad(U);
}
// * * * * * * * * * * * * * * * * * * * * * * * * * * * * * * * * * * * * * //

dimensions      [0 0 -1 0 0 0 0];


internalField   nonuniform List<tensor> 
640
(
(0 1.05282e-30 2.63204e-31 33.4827 -1.05565e-12 -2.26887e-13 0.191462 -2.96295e-15 -2.3815e-16)
(-3.70426e-17 -3.11127e-28 -1.31602e-31 33.4827 0 -3.14162e-16 0.191462 7.77737e-29 5.32314e-16)
(-6.98901e-17 -4.1123e-26 -1.30263e-27 33.4629 -1.2026e-31 -1.33921e-13 0.585653 0 -1.42899e-15)
(0 -3.97279e-30 0 33.4629 -1.48642e-14 -2.67053e-16 0.585653 -1.31312e-16 2.21286e-15)
(0 1.49913e-29 1.40543e-30 33.4416 4.92384e-13 -6.84851e-14 0.884741 -1.50721e-14 -1.72803e-15)
(6.57863e-17 -1.12435e-29 -9.36956e-31 33.4416 -7.63355e-15 -2.23824e-16 0.884741 -1.54972e-16 2.48789e-15)
(1.78224e-16 -5.48753e-30 -8.83899e-31 33.4172 1.34679e-13 -7.62183e-14 0.937103 -1.00851e-14 -2.08606e-15)
(-2.48796e-16 7.07119e-30 8.83899e-31 33.4172 -1.24287e-14 -1.49606e-16 0.937103 -2.49572e-16 2.80083e-15)
(0 3.33539e-30 0 33.3848 -5.83573e-14 -8.38594e-14 0.992219 -8.42421e-16 -2.52023e-15)
(-5.11788e-16 -3.33539e-30 0 33.3848 -1.29351e-14 -1.26947e-17 0.992219 -3.55634e-16 3.15738e-15)
(0 -3.02185e-28 -2.35989e-30 33.3322 -2.03134e-28 -8.98368e-14 1.04966 -3.15544e-30 -2.91365e-15)
(7.55296e-16 1.25861e-29 2.35989e-30 33.3322 -1.31787e-14 1.70629e-16 1.04966 -4.73372e-16 3.56167e-15)
(-5.07047e-16 2.40234e-29 3.8182e-30 33.2331 1.1622e-14 -9.42578e-14 1.10829 -1.92321e-16 -3.21068e-15)
(0 -1.781e-29 -3.71042e-30 33.2331 -1.34484e-14 4.1444e-16 1.10829 -5.99454e-16 4.0165e-15)
(-3.22459e-16 1.42422e-29 -5.89778e-29 33.0388 1.83115e-14 -5.29141e-14 1.1657 -5.72827e-16 -9.0982e-16)
(0 -8.40075e-30 -3.50031e-30 33.0388 -1.34685e-14 6.94731e-16 1.1657 -7.38529e-16 4.5201e-15)
(0 -7.92505e-30 -1.32084e-30 32.6719 2.00813e-14 -2.21556e-14 1.21778 -6.89999e-16 -6.99308e-16)
(3.16894e-15 7.92505e-30 1.32084e-30 32.6719 -1.32806e-14 1.0285e-15 1.21778 -8.87122e-16 5.06195e-15)
(4.74937e-16 -1.29448e-29 -2.84453e-30 32.0296 2.15652e-14 -3.13704e-14 1.25872 -7.76563e-16 -1.75583e-15)
(0 9.96837e-30 2.49209e-30 32.0296 -1.39028e-14 1.43339e-15 1.25872 -1.0504e-15 5.6217e-15)
(-1.11807e-15 1.05783e-29 7.02964e-31 31.0069 2.32133e-14 -4.62949e-14 1.28207 -8.93439e-16 -2.0451e-15)
(-6.6174e-16 -4.70195e-30 0 31.0069 -1.39948e-14 1.77091e-15 1.28207 -1.23337e-15 6.16659e-15)
(1.29573e-15 3.07973e-30 -8.36505e-31 29.5385 2.40211e-14 -4.27819e-14 1.28302 -1.01165e-15 -1.65873e-15)
(3.9344e-15 -4.43569e-30 0 29.5385 -1.29865e-14 -8.53862e-16 1.28302 -1.4151e-15 6.65648e-15)
(-7.40006e-16 1.12261e-29 3.5915e-30 27.6399 2.33133e-14 -3.14852e-14 1.2606 -1.07617e-15 -1.22691e-15)
(2.96002e-15 -4.18451e-30 -1.04613e-30 27.6399 -1.1912e-14 -4.10183e-15 1.2606 -1.60033e-15 6.99636e-15)
(1.9445e-15 -1.46706e-29 -9.3549e-30 25.4164 2.20052e-14 -2.12916e-14 1.2182 -1.06964e-15 -8.39337e-16)
(5.55575e-15 1.18427e-29 8.882e-30 25.4164 -1.14776e-14 -4.80605e-15 1.2182 -1.774e-15 7.21685e-15)
(-9.25684e-16 -1.58238e-29 -4.18006e-30 23.0282 2.05133e-14 -1.33763e-14 1.16204 -1.07777e-15 -5.35359e-16)
(0 1.86201e-29 5.58603e-30 23.0282 -1.13914e-14 -5.21171e-15 1.16204 -1.96063e-15 7.32915e-15)
(-1.0151e-15 -1.47952e-29 -6.56966e-30 20.6369 1.93171e-14 -8.1622e-15 1.09878 -1.04297e-15 -3.54281e-16)
(4.06038e-15 1.75657e-29 8.78285e-30 20.6369 -1.12879e-14 -5.79751e-15 1.09878 -2.15601e-15 7.35555e-15)
(1.10035e-15 1.05215e-29 1.23172e-30 18.3659 1.76387e-14 -5.33972e-15 1.03386 -1.07595e-15 -2.63677e-16)
(4.40139e-15 -6.6284e-30 0 18.3659 -1.11268e-14 -6.17611e-15 1.03386 -2.34982e-15 7.31497e-15)
(-1.18082e-15 -6.65664e-30 -1.1837e-30 16.2875 1.49002e-14 -4.48391e-15 0.970919 -9.71011e-16 -2.8949e-16)
(4.72329e-15 9.37959e-30 1.56326e-30 16.2875 -1.07986e-14 -6.40374e-15 0.970919 -2.53785e-15 7.24568e-15)
(-4.17315e-15 1.42683e-29 5.10223e-30 14.4313 1.33631e-14 -4.56808e-15 0.912008 -8.61491e-16 -3.07604e-16)
(1.66041e-15 -8.84845e-30 -4.42423e-30 14.4313 -1.05342e-14 -6.77279e-15 0.912008 -2.72265e-15 7.15309e-15)
(3.13278e-15 -2.50422e-29 -6.95616e-30 12.7976 1.31409e-14 -5.14035e-15 0.858038 -8.84314e-16 -4.06885e-16)
(2.17579e-15 2.50422e-29 6.95616e-30 12.7976 -9.86236e-15 -7.22819e-15 0.858038 -2.90437e-15 7.05234e-15)
(0 1.57494e-29 1.04996e-29 11.3714 1.24038e-14 -6.35096e-15 0.809213 -9.36342e-16 -5.28621e-16)
(0 -1.57494e-29 -1.04996e-29 11.3714 -9.44482e-15 -7.25265e-15 0.809213 -3.07099e-15 6.94055e-15)
(0 9.90505e-30 1.23813e-30 10.1306 1.03623e-14 -7.42407e-15 0.765343 -8.8226e-16 -6.29132e-16)
(-5.82277e-15 -4.95252e-30 0 10.1306 -9.67226e-15 -7.45912e-15 0.765343 -3.24632e-15 6.85005e-15)
(-1.51425e-15 2.6205e-30 2.56419e-30 9.05181 8.38501e-15 -8.15201e-15 0.726051 -7.25033e-16 -7.17618e-16)
(-2.63015e-15 0 0 9.05181 -9.05995e-15 -8.27252e-15 0.726051 -3.48009e-15 6.72368e-15)
(1.56951e-15 -1.14233e-29 -9.01099e-30 8.11255 8.61228e-15 -9.35828e-15 0.690884 -6.55534e-16 -9.24096e-16)
(1.25561e-14 8.81503e-30 8.81503e-30 8.11255 -8.7318e-15 -9.00106e-15 0.690884 -3.69154e-15 6.58259e-15)
(-7.18883e-16 1.40814e-29 8.14411e-30 7.29277 9.27335e-15 -1.08817e-14 0.659385 -8.55603e-16 -1.09708e-15)
(2.34071e-15 -1.66317e-29 -8.31586e-30 7.29277 -8.68913e-15 -9.14144e-15 0.659385 -3.89287e-15 6.41718e-15)
(-3.343e-15 8.96423e-30 2.27145e-30 6.57503 7.77475e-15 -1.18645e-14 0.631122 -8.6275e-16 -1.23717e-15)
(6.686e-15 0 -1.96124e-30 6.57503 -7.76786e-15 -9.09443e-15 0.631122 -4.04077e-15 6.27209e-15)
(-3.43764e-15 1.24607e-29 5.81414e-30 5.94444 6.69483e-15 -1.27475e-14 0.6057 -6.58245e-16 -1.4221e-15)
(-6.87529e-15 -7.40073e-30 -5.55054e-30 5.94444 -8.12959e-15 -9.78785e-15 0.6057 -4.1997e-15 6.10664e-15)
(0 3.49082e-30 5.23623e-30 5.38839 7.48435e-15 -1.35005e-14 0.58277 -7.3786e-16 -1.56132e-15)
(0 0 -3.49082e-30 5.38839 -7.49967e-15 -1.05496e-14 0.58277 -4.39227e-15 5.67511e-15)
(1.80735e-15 8.52632e-31 4.8254e-30 4.89629 7.97708e-15 -1.37449e-14 0.562024 -9.19104e-16 -1.65683e-15)
(0 -3.29315e-30 0 4.89629 -9.27718e-15 -1.11941e-14 0.562024 -4.50753e-15 5.17391e-15)
(3.59786e-15 -1.79418e-29 -9.38745e-30 4.45921 7.39597e-15 -1.47021e-14 0.543195 -9.47825e-16 -1.99887e-15)
(-1.7489e-15 9.32001e-30 9.32001e-30 4.45921 -9.00903e-15 -1.21869e-14 0.543195 -4.86559e-15 4.61476e-15)
(3.29973e-15 0 0 4.06966 5.98302e-15 -1.64709e-14 0.526049 -8.84331e-16 -2.34061e-15)
(-3.29973e-15 2.93075e-30 2.93075e-30 4.06966 -6.38411e-15 -1.31698e-14 0.526049 -5.02387e-15 3.89927e-15)
(-5.78312e-15 1.81964e-29 8.47096e-30 3.72129 5.03808e-15 -1.68707e-14 0.510384 -6.82474e-16 -2.36078e-15)
(-1.08237e-14 -1.10592e-29 -5.52958e-30 3.72129 -6.98377e-15 -1.42021e-14 0.510384 -5.24216e-15 3.08769e-15)
(1.96512e-15 -2.34737e-30 -6.00993e-32 3.40879 5.65439e-15 -1.71187e-14 0.496024 -7.22487e-16 -2.70547e-15)
(7.86046e-15 0 0 3.40879 -6.64137e-15 -1.45124e-14 0.496024 -5.40362e-15 2.10148e-15)
(-2.00137e-15 2.28845e-30 2.89782e-31 3.1276 6.14786e-15 -1.38768e-14 0.482815 -9.54364e-16 -1.60723e-15)
(8.00547e-15 0 4.92107e-30 3.1276 -8.07831e-15 -1.40292e-14 0.482815 -5.58309e-15 1.05199e-15)
(5.76878e-16 2.25615e-30 2.8026e-45 2.87387 6.25118e-15 3.37284e-30 0.470624 -9.70963e-16 0)
(-2.61344e-15 0 4.6424e-30 2.87387 -9.80516e-15 -1.42109e-14 0.470624 -5.94231e-15 -4.62352e-17)
(-2.07078e-15 -2.17994e-30 -4.12036e-30 2.64431 6.44392e-15 1.05644e-14 0.459333 -1.1077e-15 -1.69189e-15)
(0 8.75903e-30 4.37952e-30 2.64431 -9.16688e-15 -1.49019e-14 0.459333 -6.37335e-15 -1.22991e-15)
(0 -8.26304e-30 -4.13152e-30 2.43609 6.91829e-15 1.16119e-14 0.44884 -1.16087e-15 -2.03473e-15)
(2.32584e-15 8.26304e-30 4.13152e-30 2.43609 -8.38379e-15 -1.52641e-14 0.44884 -6.76544e-15 -2.55617e-15)
(-2.13662e-15 9.85097e-30 7.82621e-30 2.24679 8.18574e-15 1.22434e-14 0.439053 -1.42688e-15 -2.30345e-15)
(0 -7.79513e-30 -7.79513e-30 2.24679 -7.7459e-15 -1.53172e-14 0.439053 -7.18718e-15 -3.95651e-15)
(2.06989e-15 3.67686e-30 3.67686e-30 2.0743 8.05823e-15 1.13587e-14 0.429893 -1.82048e-15 -1.99911e-15)
(6.60352e-15 -3.67686e-30 -3.67686e-30 2.0743 -6.22507e-15 -6.92501e-15 0.429893 -7.40249e-15 -5.21336e-15)
(-2.19938e-15 8.82133e-30 6.9373e-30 1.91681 6.90602e-15 1.00914e-14 0.421288 -1.54829e-15 -1.55976e-15)
(6.84483e-15 0 0 1.91681 -5.36696e-15 -9.08723e-16 0.421288 -7.67908e-15 -5.03455e-15)
(0 3.27223e-30 0 1.77273 5.50714e-15 1.06185e-14 0.413174 -1.51843e-15 -1.12097e-15)
(0 0 0 1.77273 -4.83508e-15 -4.39197e-15 0.413174 -8.12549e-15 -5.11816e-15)
(-2.25947e-15 -1.2232e-30 -3.08693e-30 1.64068 3.40626e-15 1.15127e-14 0.405496 -1.06131e-15 -4.34996e-16)
(9.03788e-15 3.08693e-30 3.08693e-30 1.64068 -3.72032e-15 -4.51013e-15 0.405496 -8.28835e-15 -5.31086e-15)
(0 -2.91213e-30 0 1.51946 3.18306e-15 1.02604e-14 0.398203 -6.26132e-16 1.76444e-16)
(9.15448e-15 2.91213e-30 -1.94996e-30 1.51946 -4.19634e-15 -2.98096e-15 0.398203 -8.57556e-15 -1.9254e-15)
(-2.31722e-15 -3.64874e-30 0 1.40799 4.59434e-15 5.03637e-15 0.391248 -1.07091e-15 5.77371e-16)
(0 5.49445e-30 0 1.40799 -3.83157e-15 -1.56029e-15 0.391248 -8.94121e-15 -2.25382e-16)
(5.26324e-15 -9.52615e-30 0 1.30535 4.89967e-15 9.10922e-16 0.38459 -1.51881e-15 3.88379e-16)
(9.38115e-15 2.59166e-30 -4.2039e-45 1.30535 -1.59217e-15 7.55814e-30 0.38459 -9.09281e-15 7.88861e-31)
(-2.37286e-15 1.72522e-30 -2.4449e-30 1.2107 4.64751e-15 1.53609e-15 0.378191 -1.3903e-15 -7.68251e-17)
(0 0 2.4449e-30 1.2107 -1.41031e-15 1.78205e-15 0.378191 -9.3024e-15 -6.01656e-16)
(2.59684e-15 -4.61291e-30 0 1.12332 4.67473e-15 2.22818e-15 0.372019 -1.54295e-15 -2.64945e-16)
(7.00301e-15 4.61291e-30 -1.87809e-30 1.12332 -2.89425e-15 1.3654e-15 0.372019 -9.50254e-15 -5.1896e-16)
(0 0 0 1.04254 3.95545e-15 1.10023e-15 0.366041 -1.58094e-15 -3.24696e-16)
(-1.21562e-14 2.04457e-31 3.9531e-30 1.04254 -1.36613e-15 1.88304e-15 0.366041 -9.63826e-15 -3.89366e-16)
(0 0 0 0.96779 3.1206e-15 1.04472e-15 0.360229 -1.20912e-15 -7.06199e-16)
(9.81124e-15 3.47922e-30 -1.26574e-30 0.96779 1.30489e-15 1.67048e-15 0.360229 -8.79017e-15 -9.60683e-16)
(-4.65879e-15 5.52977e-30 0 0.898548 3.83221e-15 1.24744e-15 0.354556 -1.13098e-15 -8.14458e-16)
(-9.91437e-15 9.12719e-31 1.58713e-30 0.898548 7.13681e-16 4.43798e-16 0.354556 -8.28536e-15 -2.73171e-16)
(7.5119e-15 -4.58373e-30 0 0.834348 5.43775e-15 -7.2901e-16 0.348999 -1.94184e-15 -1.10706e-15)
(1.00159e-14 -2.11418e-30 -8.50582e-31 0.834348 -1.10817e-16 -1.45522e-15 0.348999 -6.26467e-15 -1.34282e-15)
(3.88054e-15 0 0 0.77477 4.94379e-15 -2.04535e-15 0.343534 -2.66563e-15 -1.58335e-15)
(-3.88054e-15 0 -1.1584e-44 0.77477 -5.82828e-16 5.19174e-30 0.343534 -3.58635e-15 3.9443e-31)
(0 -3.25145e-30 0 0.719436 4.256e-15 -1.57227e-16 0.338139 -1.72707e-15 -1.08968e-15)
(1.02141e-14 -2.18588e-30 -6.34266e-30 0.719436 9.77001e-16 1.79688e-16 0.338139 -1.336e-15 -4.25739e-17)
(0 -6.13465e-30 0 0.668005 4.74624e-15 7.59922e-16 0.332794 -2.32385e-15 -7.90321e-16)
(1.03109e-14 -5.33251e-30 -1.2899e-31 0.668005 3.4454e-15 3.7274e-15 0.332794 -1.50841e-15 -2.11254e-15)
(-2.60156e-15 1.16769e-30 3.0264e-30 0.620166 3.70583e-15 -1.22649e-15 0.327478 -2.44792e-15 -1.2908e-15)
(0 0 -2.89363e-30 0.620166 2.6797e-15 1.02257e-15 0.327478 -1.96624e-15 -1.9016e-15)
(-2.62502e-15 1.30875e-30 9.47025e-32 0.575638 2.9203e-15 -2.7528e-15 0.322171 -1.47e-15 -1.83245e-15)
(-1.35735e-14 5.63772e-30 0 0.575638 2.82216e-15 -2.54097e-15 0.322171 -8.55041e-16 -2.33764e-15)
(5.29623e-15 -2.46791e-30 -9.42694e-31 0.534162 2.25346e-15 -1.64381e-15 0.316853 -1.83727e-15 -4.91746e-16)
(7.69305e-15 -4.63392e-30 2.5752e-30 0.534162 2.81638e-15 -4.51957e-15 0.316853 -2.37502e-15 -2.33432e-15)
(0 0 0 0.495504 4.92761e-16 -6.94084e-16 0.311503 -8.29874e-16 -5.07345e-16)
(0 0 -4.85875e-30 0.495504 4.02279e-16 -2.86712e-15 0.311503 -9.53652e-16 -9.09186e-16)
(2.58034e-15 -2.59051e-32 -4.58361e-30 0.459446 4.87772e-16 5.10809e-16 0.306097 -1.63961e-16 -1.03097e-15)
(2.15457e-14 0 -7.00649e-46 0.459446 -1.96837e-29 -5.84109e-30 0.306097 -1.57772e-30 -3.9443e-31)
(2.43423e-15 2.16203e-30 -4.32406e-30 0.425789 1.11297e-15 2.8425e-15 0.300611 -1.01248e-15 -1.11613e-15)
(8.42662e-15 -4.2164e-30 3.68991e-30 0.425789 1.80489e-15 1.41417e-15 0.300611 -2.49384e-15 -1.78969e-15)
(4.59277e-15 -2.1876e-30 0 0.394347 1.48434e-15 1.91605e-15 0.295018 -5.60646e-16 -1.8516e-15)
(0 0 -2.0396e-30 0.394347 -5.47422e-16 3.98786e-16 0.295018 -8.58396e-16 -1.78954e-16)
(-5.51623e-15 3.36931e-31 -1.9241e-30 0.364948 1.00737e-15 -2.12982e-15 0.289286 -2.1245e-15 -2.83492e-15)
(1.10325e-14 -4.12131e-30 1.36471e-30 0.364948 -2.63982e-17 -2.23773e-16 0.289286 -1.05693e-17 -8.25882e-16)
(0 0 -1.07975e-30 0.33743 -9.5519e-16 -1.44235e-16 0.28338 -1.64602e-15 -6.12152e-17)
(0 -1.09476e-46 0 0.33743 -2.36982e-29 -7.37599e-30 0.28338 0 -3.9443e-31)
(1.05113e-14 -3.36061e-30 -4.78295e-30 0.311641 -2.69364e-29 8.31774e-16 0.277256 0 -3.74205e-16)
(3.48628e-15 -5.46391e-30 0 0.311641 1.1834e-15 4.35216e-15 0.277256 -7.10481e-16 -2.29353e-15)
(-2.81964e-15 1.39796e-30 0 0.287436 3.84474e-16 3.04864e-15 0.270864 -7.15938e-16 -1.57498e-15)
(1.12786e-14 -4.88375e-30 0 0.287436 -6.98006e-18 2.38187e-15 0.270864 -1.54055e-15 -1.25369e-15)
(-2.83937e-15 1.46476e-30 0 0.264679 -3.5471e-16 3.26833e-16 0.264142 -7.3508e-16 -6.765e-16)
(0 0 0 0.264679 -1.06e-15 -1.93912e-15 0.264142 -5.74714e-16 3.14274e-17)
(0 0 0 0.243236 3.05018e-17 -9.2063e-17 0.257015 -4.35957e-16 -7.34986e-17)
(1.14348e-14 -5.04467e-44 -1.42319e-45 0.243236 -2.30457e-29 -6.38052e-31 0.257015 -1.57772e-30 -2.21369e-47)
(3.05393e-15 0 2.71244e-30 0.222976 8.40936e-16 -1.5727e-15 0.24939 -8.46545e-16 6.8788e-16)
(-1.45643e-14 5.92157e-30 -2.71244e-30 0.222976 1.06896e-15 5.20262e-16 0.24939 -1.0929e-15 4.37405e-16)
(0 0 0 0.203769 8.737e-16 -3.44254e-15 0.241148 -1.07069e-15 -1.42148e-15)
(-1.73461e-14 5.56833e-30 0 0.203769 1.54722e-15 -1.34525e-15 0.241148 -1.3432e-15 3.12969e-16)
(1.96157e-16 -1.07261e-30 0 0.185483 7.94068e-16 -3.26827e-15 0.232141 -1.0325e-15 -7.81807e-19)
(0 0 0 0.185483 1.31733e-15 -4.40602e-15 0.232141 -2.41451e-15 -1.28105e-15)
(0 0 0 0.167979 6.30405e-16 -3.36905e-15 0.222176 -9.9368e-16 -7.35462e-17)
(1.1726e-14 -4.68297e-30 0 0.167979 1.88852e-17 -5.40927e-15 0.222176 -1.37598e-15 4.92857e-17)
(5.89695e-15 -2.99972e-30 0 0.151109 2.84998e-16 -2.45381e-15 0.210997 -7.0396e-16 -3.40185e-16)
(-2.41876e-15 2.14829e-30 -1.82169e-44 0.151109 -4.87721e-16 4.03874e-30 0.210997 -4.80328e-16 0)
(2.96488e-15 -1.47451e-30 -2.71796e-31 0.134704 8.08216e-16 1.97215e-31 0.198265 -8.10646e-16 7.50257e-16)
(0 3.50325e-46 0 0.134704 5.27513e-29 -1.26288e-15 0.198265 -1.57772e-30 2.15e-15)
(3.31239e-15 -4.51237e-30 3.82376e-30 0.118569 1.76685e-15 -2.40291e-15 0.183515 -2.42986e-15 1.12076e-15)
(1.62279e-14 -2.72214e-30 -7.00649e-46 0.118569 2.2477e-15 2.56748e-44 0.183515 -2.63057e-15 4.5882e-16)
(1.00531e-14 -3.47296e-30 -9.65681e-31 0.102467 6.0045e-16 -1.40682e-29 0.16611 -3.29069e-15 0)
(7.92195e-15 -6.48712e-31 0 0.102467 -1.38051e-30 -3.16683e-17 0.16611 -4.67446e-15 -1.17972e-15)
(0 0 0 0.086107 -8.83389e-16 -4.83426e-16 0.14517 -1.83835e-15 1.69907e-15)
(-1.58725e-14 3.74695e-30 0 0.086107 -1.12552e-15 -1.18581e-15 0.14517 -2.81251e-15 6.65862e-16)
(-6.63834e-15 -2.63436e-31 -6.61427e-31 0.0691332 1.39109e-16 -1.43441e-46 0.119522 -1.33528e-16 -3.9443e-31)
(1.93245e-14 7.00649e-46 0 0.0691332 -2.70787e-44 3.29088e-15 0.119522 -2.51605e-45 -1.83741e-15)
(0 1.51424e-30 0 0.0511463 2.41834e-15 4.87113e-15 0.0877168 -4.28992e-15 1.1273e-15)
(0 0 3.02848e-30 0.0511463 2.3196e-15 4.43303e-15 0.0877168 -5.95752e-15 6.46779e-16)
(6.43337e-15 -7.14247e-31 -1.49243e-31 0.0317812 3.04938e-15 3.9443e-31 0.0482471 -5.59063e-15 0)
(1.21927e-14 -1.50081e-30 0 0.0317812 1.40047e-15 1.27069e-15 0.0482471 -3.40903e-15 3.51691e-16)
(3.08585e-15 2.00108e-31 2.69521e-30 1.73472e-18 4.93038e-31 4.71173e-15 3.5514e-15 -3.10923e-15 3.85428e-16)
(0 0 0 1.55379e-14 -1.20898e-16 2.7877e-15 1.77636e-14 -3.23869e-15 -9.43793e-16)
(0 4.11256e-33 0 33.4827 0 9.31097e-14 -0.191462 2.96295e-15 2.3815e-16)
(0 -4.11256e-33 0 33.4827 -6.11179e-16 1.86895e-13 -0.191462 -4.59031e-17 -5.32314e-16)
(0 0 0 33.4629 -6.37334e-15 6.57666e-14 -0.585653 2.77301e-14 1.42899e-15)
(0 0 1.01331e-26 33.4629 -2.07955e-15 9.12609e-14 -0.585653 1.31312e-16 -1.10604e-15)
(3.28931e-17 2.92799e-32 4.68478e-31 33.4416 -4.29737e-15 1.74731e-14 -0.884741 2.39778e-14 1.72803e-15)
(0 7.54379e-30 -4.68478e-31 33.4416 -1.23561e-15 4.59053e-14 -0.884741 1.54972e-16 -1.25735e-15)
(1.78224e-16 -2.76219e-32 0 33.4172 -6.05425e-15 1.8209e-14 -0.937103 2.14967e-14 2.08606e-15)
(0 2.76219e-32 8.83899e-31 33.4172 -2.28172e-15 4.92176e-14 -0.937103 2.49572e-16 -1.42865e-15)
(-8.55732e-17 7.81732e-32 0 33.3848 -5.94826e-15 1.88985e-14 -0.992219 2.23226e-14 2.52023e-15)
(-5.11788e-16 -7.81732e-32 -2.5237e-30 33.3848 -2.54471e-15 5.26224e-14 -0.992219 3.55634e-16 -1.61533e-15)
(0 0 0 33.3322 -6.08365e-15 1.94684e-14 -1.04966 2.25767e-14 3.02589e-15)
(0 4.91643e-32 -7.86629e-31 33.3322 -2.73919e-15 5.58775e-14 -1.04966 4.73372e-16 -1.81053e-15)
(-6.7128e-16 1.39141e-31 2.22625e-30 33.2331 -6.26958e-15 1.97779e-14 -1.10829 2.25783e-14 3.59898e-15)
(4.17757e-16 -1.39141e-31 -2.22625e-30 33.2331 -2.87522e-15 5.85848e-14 -1.10829 5.99454e-16 -1.996e-15)
(3.22459e-16 0 0 33.0388 -6.00461e-15 1.96309e-14 -1.1657 2.24872e-14 4.23586e-15)
(0 0 -7.00063e-31 33.0388 -3.24583e-15 6.00425e-14 -1.1657 7.38529e-16 -2.13768e-15)
(-1.13968e-15 0 1.32084e-30 32.6719 -5.65778e-15 1.88039e-14 -1.21778 2.23659e-14 4.29138e-15)
(0 0 -1.32084e-30 32.6719 -3.8071e-15 5.93831e-14 -1.21778 8.87122e-16 -2.1933e-15)
(7.01462e-16 7.78779e-32 2.49209e-30 32.0296 -6.03527e-15 1.69655e-14 -1.25872 2.22237e-14 4.29545e-15)
(-2.60121e-15 0 -4.4393e-30 32.0296 -3.98879e-15 5.5764e-14 -1.25872 1.0504e-15 -2.11392e-15)
(1.02703e-16 0 1.17549e-30 31.0069 -6.38788e-15 2.76146e-14 -1.28207 2.20653e-14 4.5778e-15)
(-2.23615e-15 0 -2.37971e-30 31.0069 -3.81415e-15 4.8833e-14 -1.28207 1.23337e-15 -1.87968e-15)
(6.47866e-16 -1.38615e-31 2.21784e-30 29.5385 -5.54889e-15 4.63676e-14 -1.28302 2.18783e-14 4.67256e-15)
(0 0 -1.10892e-30 29.5385 -3.912e-15 3.92768e-14 -1.28302 1.4151e-15 -1.52057e-15)
(-1.48001e-15 0 2.09226e-30 27.6399 -4.59096e-15 4.98998e-14 -1.2606 2.16635e-14 4.49193e-15)
(2.96002e-15 0 3.27303e-30 27.6399 -3.6986e-15 2.8604e-14 -1.2606 1.60033e-15 -1.10019e-15)
(5.55584e-16 0 0 25.4164 -4.12195e-15 4.31327e-14 -1.2182 2.14474e-14 4.24691e-15)
(4.44458e-15 0 3.61709e-30 25.4164 -3.27717e-15 1.85774e-14 -1.2182 1.774e-15 -7.00883e-16)
(3.02212e-15 -4.65502e-31 -1.86201e-30 23.0282 -3.4552e-15 3.66432e-14 -1.16204 2.12272e-14 3.95786e-15)
(0 2.32751e-31 1.86201e-30 23.0282 -3.37195e-15 1.06723e-14 -1.16204 1.96063e-15 -3.94048e-16)
(1.0151e-15 0 -1.75657e-30 20.6369 -3.22216e-15 3.11072e-14 -1.09878 2.10063e-14 3.64457e-15)
(0 0 1.75657e-30 20.6369 -2.91231e-15 5.35122e-15 -1.09878 2.15601e-15 -1.86624e-16)
(1.10035e-15 0 1.6571e-30 18.3659 -3.3514e-15 2.66896e-14 -1.03386 2.0786e-14 3.32885e-15)
(-6.26712e-15 0 -5.6665e-30 18.3659 -2.02066e-15 2.42339e-15 -1.03386 2.34982e-15 -9.22809e-17)
(0 0 3.12653e-30 16.2875 -2.00729e-15 2.32944e-14 -0.970919 2.05919e-14 3.02456e-15)
(-4.72329e-15 0 -7.12057e-30 16.2875 -1.30944e-15 1.16998e-15 -0.970919 2.53785e-15 -5.06463e-17)
(-1.66041e-15 7.37371e-31 -2.94948e-30 14.4313 -5.77697e-16 2.10129e-14 -0.912008 2.03886e-14 2.75037e-15)
(0 -5.53028e-31 0 14.4313 -6.94665e-16 8.58235e-16 -0.912008 2.72265e-15 -6.17582e-17)
(-1.56639e-15 6.95616e-31 -2.78246e-30 12.7976 -1.09481e-15 1.5848e-14 -0.858038 2.01741e-14 2.48801e-15)
(-5.30856e-15 -3.47808e-31 -3.8644e-30 12.7976 -2.15383e-16 1.09628e-15 -0.858038 2.90437e-15 -9.08511e-17)
(2.87114e-15 -1.64056e-31 2.6249e-30 11.3714 -1.61632e-15 9.50772e-15 -0.809213 1.99721e-14 2.38442e-15)
(0 0 -2.6249e-30 11.3714 1.3074e-16 1.72159e-15 -0.809213 3.07099e-15 -1.63909e-16)
(2.78802e-15 -3.09533e-31 0 10.1306 -9.75121e-16 8.00676e-15 -0.765343 1.97786e-14 2.37494e-15)
(0 -1.80207e-30 0 10.1306 -4.63401e-29 1.90929e-15 -0.765343 3.24632e-15 -1.32159e-16)
(1.51425e-15 2.92005e-31 0 9.05181 -4.09232e-16 9.08482e-15 -0.726051 1.96077e-14 2.36165e-15)
(-6.05701e-15 -2.92005e-31 -3.64097e-30 9.05181 -1.75645e-15 1.79464e-15 -0.726051 3.48009e-15 -1.64704e-16)
(4.70854e-15 0 0 8.11255 -7.59696e-17 9.99205e-15 -0.690884 1.94503e-14 2.33613e-15)
(-6.27805e-15 0 -3.55083e-30 8.11255 -7.21498e-16 2.00281e-15 -0.690884 3.69154e-15 -1.8598e-16)
(0 -2.59871e-31 0 7.29277 -1.40329e-16 1.04918e-14 -0.659385 1.9233e-14 2.33466e-15)
(-6.4873e-15 0 -3.41477e-30 7.29277 1.11596e-15 2.42515e-15 -0.659385 3.89287e-15 -2.65669e-16)
(-2.20816e-15 0 0 6.57503 -7.21143e-16 1.11058e-14 -0.631122 1.90276e-14 2.35483e-15)
(-6.686e-15 0 -5.28688e-30 6.57503 1.52529e-15 2.7819e-15 -0.631122 4.04077e-15 -2.81145e-16)
(2.08312e-15 -2.31273e-31 3.70036e-30 5.94444 -7.78678e-16 1.13038e-14 -0.6057 1.88886e-14 2.37182e-15)
(-4.79217e-15 0 -8.40779e-45 5.94444 1.39492e-15 3.59749e-45 -0.6057 4.1997e-15 -1.63512e-29)
(0 0 -3.49082e-30 5.38839 -5.5302e-16 1.15232e-14 -0.58277 1.87187e-14 2.4312e-15)
(0 0 0 5.38839 1.87928e-15 -6.3196e-15 -0.58277 4.39227e-15 -6.93847e-16)
(3.6147e-15 4.11644e-31 0 4.89629 -8.56144e-16 1.28048e-14 -0.562024 1.85049e-14 2.48062e-15)
(-7.2294e-15 1.30753e-30 -1.30136e-30 4.89629 1.12368e-15 -6.90789e-15 -0.562024 4.50753e-15 -2.82959e-15)
(7.19572e-15 -3.88334e-31 3.10667e-30 4.45921 -3.68864e-16 1.23672e-14 -0.543195 1.83026e-14 2.48486e-15)
(-7.39584e-15 1.94167e-31 0 4.45921 5.86231e-16 -8.30059e-15 -0.543195 4.86559e-15 -4.61476e-15)
(0 3.66344e-31 0 4.06966 1.27428e-15 1.19092e-14 -0.526049 1.80683e-14 2.62946e-15)
(-7.55613e-15 0 0 4.06966 6.80344e-16 -1.00255e-14 -0.526049 5.02387e-15 -3.89927e-15)
(-3.85542e-15 6.91197e-31 -2.76479e-30 3.72129 1.17594e-15 9.64554e-15 -0.510384 1.78255e-14 2.78495e-15)
(-7.71083e-15 -6.91197e-31 2.76479e-30 3.72129 1.50846e-15 -1.15332e-14 -0.510384 5.24216e-15 -3.08769e-15)
(1.96512e-15 1.63014e-31 -2.60823e-30 3.40879 -4.95053e-16 4.86992e-15 -0.496024 1.7637e-14 3.13853e-15)
(0 0 0 3.40879 2.03145e-15 -1.30316e-14 -0.496024 5.40362e-15 -2.10148e-15)
(2.00137e-15 4.6135e-31 -4.92107e-30 3.1276 -9.33435e-16 2.14875e-15 -0.482815 1.74444e-14 3.69532e-15)
(-8.00547e-15 -4.6135e-31 4.92107e-30 3.1276 1.26305e-15 -1.33914e-14 -0.482815 5.58309e-15 -1.05199e-15)
(-2.03656e-15 -2.9015e-31 2.3212e-30 2.87387 -4.00535e-16 1.37625e-15 -0.470624 1.72282e-14 4.05064e-15)
(8.14625e-15 6.57344e-30 -2.3212e-30 2.87387 0 -1.32614e-14 -0.470624 5.94231e-15 4.62352e-17)
(-2.07078e-15 0 2.06165e-30 2.64431 2.40216e-16 9.48718e-16 -0.459333 1.69573e-14 3.55933e-15)
(0 2.7372e-31 -4.37952e-30 2.64431 -2.04977e-16 -1.35885e-14 -0.459333 6.37335e-15 1.22991e-15)
(2.10411e-15 -2.5822e-31 1.68187e-30 2.43609 7.42808e-16 2.49606e-45 -0.44884 1.66389e-14 3.02979e-15)
(0 2.5822e-31 -4.13152e-30 2.43609 -3.36077e-16 -1.39583e-14 -0.44884 6.76544e-15 2.55617e-15)
(-4.33075e-15 9.74391e-31 -9.74391e-30 2.24679 2.07945e-15 -1.82188e-15 -0.439053 1.62408e-14 2.5274e-15)
(0 -7.30793e-31 5.84635e-30 2.24679 1.23895e-15 -1.16124e-14 -0.439053 7.18718e-15 3.95651e-15)
(-4.13977e-15 3.44705e-31 -5.51529e-30 2.0743 2.63617e-15 -2.09721e-15 -0.429893 1.56179e-14 1.99911e-15)
(1.73468e-14 1.15101e-29 3.67686e-30 2.0743 4.49669e-16 -3.76495e-15 -0.429893 7.40249e-15 5.21336e-15)
(-2.46701e-16 -3.25186e-31 6.9373e-30 1.91681 9.33763e-16 -2.18358e-15 -0.421288 1.51242e-14 1.55976e-15)
(-8.79751e-15 4.26275e-30 -3.46865e-30 1.91681 1.60831e-45 1.83494e-15 -0.421288 7.67908e-15 5.03455e-15)
(-1.8421e-15 4.09029e-31 -4.90835e-30 1.77273 -9.90963e-17 -1.12461e-15 -0.413174 1.47508e-14 1.12097e-15)
(5.23474e-15 -2.04514e-31 1.63612e-30 1.77273 -4.10989e-16 2.07164e-15 -0.413174 8.12549e-15 5.11816e-15)
(3.47558e-15 -2.894e-31 2.41471e-31 1.64068 -1.24663e-15 -1.97215e-30 -0.405496 1.44909e-14 4.34996e-16)
(-3.47558e-15 0 -1.54347e-30 1.64068 0 1.93041e-15 -0.405496 8.28835e-15 5.31086e-15)
(0 3.64016e-31 -2.91213e-30 1.51946 -2.2997e-15 -2.56016e-15 -0.398203 1.44889e-14 -1.76444e-16)
(-9.15448e-15 -1.82008e-31 0 1.51946 -7.22222e-16 3.11491e-15 -0.398203 8.57556e-15 5.43814e-15)
(2.31722e-15 0 0 1.40799 -2.11116e-15 -3.40221e-15 -0.391248 1.43707e-14 -5.77371e-16)
(0 0 0 1.40799 9.79786e-17 4.04144e-15 -0.391248 8.94121e-15 5.28498e-15)
(0 3.23958e-31 0 1.30535 -1.22277e-15 -5.25842e-15 -0.38459 1.41373e-14 -3.88379e-16)
(-1.22991e-14 3.50325e-46 0 1.30535 0 4.59846e-15 -0.38459 9.09281e-15 5.08902e-15)
(-2.75272e-15 6.11226e-31 -2.4449e-30 1.2107 5.89217e-16 -5.7342e-15 -0.378191 1.38218e-14 7.68251e-17)
(-2.75272e-15 -3.05613e-31 0 1.2107 -1.19216e-15 5.74854e-15 -0.378191 9.3024e-15 4.50209e-15)
(2.59684e-15 0 0 1.12332 2.20679e-16 -3.73481e-15 -0.372019 1.33065e-14 2.64945e-16)
(0 3.55334e-30 0 1.12332 -7.78088e-16 4.14063e-15 -0.372019 9.50254e-15 3.90222e-15)
(2.4266e-15 0 0 1.04254 -2.02119e-15 -3.53984e-15 -0.366041 1.30106e-14 3.24696e-16)
(-9.70642e-15 0 -2.17585e-30 1.04254 -1.07812e-15 1.8466e-15 -0.366041 1.00066e-14 3.59098e-15)
(2.45281e-15 0 0 0.96779 -3.41907e-15 -3.69706e-15 -0.360229 1.29716e-14 7.06199e-16)
(9.81124e-15 4.99138e-30 0 0.96779 -3.53088e-17 8.11318e-16 -0.360229 9.91797e-15 3.24084e-15)
(0 0 0 0.898548 -3.76384e-15 -3.23563e-15 -0.354556 1.30707e-14 8.14458e-16)
(-9.91437e-15 0 -1.9364e-30 0.898548 -1.47492e-15 1.37312e-15 -0.354556 9.92957e-15 3.1323e-15)
(9.56864e-15 -4.56688e-31 1.82675e-30 0.834348 -2.14795e-15 -2.89208e-15 -0.348999 1.29516e-14 1.10706e-15)
(7.95913e-15 4.56688e-31 -1.82675e-30 0.834348 -1.95628e-15 2.59614e-15 -0.348999 1.00732e-14 2.87509e-15)
(-3.88054e-15 8.61654e-31 -1.72331e-30 0.77477 -2.13713e-16 -2.71904e-15 -0.343534 1.23633e-14 1.58335e-15)
(-1.6351e-14 -8.61654e-31 1.72331e-30 0.77477 -4.08905e-15 1.39378e-15 -0.343534 1.03699e-14 2.89994e-15)
(0 0 3.25145e-30 0.719436 2.01469e-16 -2.27958e-15 -0.338139 1.18979e-14 2.17534e-15)
(-6.55331e-15 0 0 0.719436 -4.21575e-15 6.45128e-17 -0.338139 1.1131e-14 2.89793e-15)
(2.57773e-15 0 0 0.668005 -6.03756e-16 -1.03106e-15 -0.332794 1.13035e-14 2.1425e-15)
(0 0 0 0.668005 -2.53277e-15 -7.43716e-16 -0.332794 1.11146e-14 2.3449e-15)
(0 0 2.89363e-30 0.620166 -2.13995e-15 -1.54376e-16 -0.327478 1.0862e-14 2.24746e-15)
(1.04063e-14 0 -2.89363e-30 0.620166 -2.25423e-15 -9.55451e-16 -0.327478 1.08959e-14 2.15927e-15)
(0 -1.36489e-30 1.36489e-30 0.575638 -2.47024e-15 8.6168e-16 -0.322171 1.09006e-14 2.51486e-15)
(0 0 0 0.575638 -2.25024e-15 1.90192e-15 -0.322171 1.10111e-14 2.33764e-15)
(5.29623e-15 0 0 0.534162 -1.16057e-15 1.83123e-15 -0.316853 1.07288e-14 2.78112e-15)
(1.05925e-14 1.2876e-30 0 0.534162 -1.21468e-15 3.92728e-15 -0.316853 1.07228e-14 2.33432e-15)
(0 0 0 0.495504 -3.78469e-16 -2.08033e-16 -0.311503 1.05741e-14 2.54317e-15)
(0 3.20586e-30 3.7401e-31 0.495504 -6.36776e-16 4.53595e-30 -0.311503 1.05348e-14 2.52034e-15)
(1.12866e-16 0 -2.29181e-30 0.459446 -4.64843e-16 -1.80116e-15 -0.306097 1.07008e-14 3.09005e-15)
(-1.33532e-14 1.1459e-30 0 0.459446 -2.22855e-16 -1.90472e-15 -0.306097 1.09964e-14 3.20791e-15)
(2.71521e-15 0 0 0.425789 -1.13121e-15 5.53648e-16 -0.300611 1.05368e-14 2.9571e-15)
(8.42662e-15 1.58475e-30 -2.16203e-30 0.425789 0 4.48782e-16 -0.300611 1.00894e-14 2.93206e-15)
(2.73685e-15 0 1.2543e-31 0.394347 -1.02959e-15 -1.09006e-15 -0.295018 1.07173e-14 1.8516e-15)
(-1.55402e-14 5.14924e-31 0 0.394347 -1.20567e-15 2.48511e-15 -0.295018 1.02017e-14 2.54074e-15)
(0 0 1.9241e-30 0.364948 1.00748e-16 -8.05586e-16 -0.289286 1.02707e-14 2.83492e-15)
(1.10325e-14 9.62052e-31 5.95552e-45 0.364948 -7.39616e-16 -2.5422e-30 -0.289286 1.0901e-14 1.83359e-15)
(2.77901e-15 4.65275e-33 4.90228e-31 0.33743 3.54839e-17 3.9443e-30 -0.28338 1.02872e-14 3.00313e-15)
(-1.1116e-14 1.46168e-30 0 0.33743 1.40516e-29 -3.19458e-15 -0.28338 1.06949e-14 3.32185e-15)
(5.59904e-15 8.73446e-31 -1.71236e-30 0.311641 -8.04263e-16 6.35333e-16 -0.277256 1.06656e-14 2.95425e-15)
(-1.5054e-14 0 0 0.311641 -3.2095e-16 2.44143e-16 -0.277256 1.05534e-14 2.29353e-15)
(-4.45545e-15 0 0 0.287436 -1.67037e-15 1.75696e-15 -0.270864 1.07893e-14 1.57498e-15)
(-4.00348e-15 0 0 0.287436 -1.21651e-15 2.47835e-15 -0.270864 1.03383e-14 1.25369e-15)
(2.83937e-15 -1.80955e-31 0 0.264679 -1.11347e-15 2.66037e-15 -0.264142 9.98587e-15 6.765e-16)
(-1.82206e-14 1.5689e-30 0 0.264679 -1.72815e-15 3.94315e-15 -0.264142 1.12027e-14 -3.14274e-17)
(2.85869e-15 -1.3928e-31 0 0.243236 -3.7388e-16 2.62958e-15 -0.257015 1.05201e-14 7.34986e-17)
(-6.47449e-15 0 0 0.243236 -1.13131e-15 2.95002e-15 -0.257015 1.05537e-14 2.87353e-16)
(-2.87758e-15 3.33659e-31 0 0.222976 2.13736e-15 -6.53118e-16 -0.24939 9.06101e-15 -6.8788e-16)
(-2.30207e-14 3.88572e-30 1.4013e-45 0.222976 -4.57908e-16 9.86076e-32 -0.24939 8.2603e-15 3.32805e-30)
(-2.881e-15 0 -2.55884e-30 0.203769 3.64847e-15 2.128e-15 -0.241148 9.78474e-15 1.42148e-15)
(-1.15841e-14 3.64205e-30 0 0.203769 1.18746e-15 -1.43761e-15 -0.241148 7.11807e-15 -3.12969e-16)
(-1.96157e-16 -3.36312e-44 2.41394e-30 0.185483 -7.62001e-30 5.44831e-15 -0.232141 8.76151e-15 7.81807e-19)
(-1.16561e-14 2.67857e-30 0 0.185483 1.17631e-15 3.8594e-15 -0.232141 7.43638e-15 1.28105e-15)
(0 -1.13862e-30 0 0.167979 -3.19657e-15 2.87576e-15 -0.222176 2.16274e-15 7.35462e-17)
(0 3.49996e-30 2.63967e-31 0.167979 -5.52203e-30 6.02367e-15 -0.222176 6.72813e-15 -4.92857e-17)