/*--------------------------------*- C++ -*----------------------------------*\
| =========                 |                                                 |
| \\      /  F ield         | OpenFOAM: The Open Source CFD Toolbox           |
|  \\    /   O peration     | Version:  2012                                  |
|   \\  /    A nd           | Website:  www.openfoam.com                      |
|    \\/     M anipulation  |                                                 |
\*---------------------------------------------------------------------------*/
FoamFile
{
    version     2.0;
    format      ascii;
    class       volScalarField;
    location    "11000";
    object      p;
}
// * * * * * * * * * * * * * * * * * * * * * * * * * * * * * * * * * * * * * //

dimensions      [0 2 -2 0 0 0 0];


internalField   nonuniform List<scalar> 
640
(
4.96671e-16
5.20522e-15
1.12066e-15
5.20745e-15
1.24823e-15
5.21004e-15
1.26605e-15
5.21459e-15
1.34e-15
5.22109e-15
1.43654e-15
5.22931e-15
1.53019e-15
5.23912e-15
1.61649e-15
5.25024e-15
1.69572e-15
5.26241e-15
1.76879e-15
5.27546e-15
1.83638e-15
5.28902e-15
1.89965e-15
5.30285e-15
1.95953e-15
5.31706e-15
2.01744e-15
5.33144e-15
2.07432e-15
5.3462e-15
2.13039e-15
5.36109e-15
2.18643e-15
5.37594e-15
2.24222e-15
5.39166e-15
2.29922e-15
5.40738e-15
2.35599e-15
5.42334e-15
2.41433e-15
5.43916e-15
2.47289e-15
5.45549e-15
2.53201e-15
5.46878e-15
2.59253e-15
5.48083e-15
2.65758e-15
5.49203e-15
2.72372e-15
5.50386e-15
2.7918e-15
5.51219e-15
2.86277e-15
5.51648e-15
2.93655e-15
5.51832e-15
3.01301e-15
5.51842e-15
3.09766e-15
5.51532e-15
3.18828e-15
5.50856e-15
3.28e-15
5.49388e-15
3.38133e-15
5.47908e-15
3.4887e-15
5.46738e-15
3.60085e-15
5.4568e-15
3.71656e-15
5.44495e-15
3.84021e-15
5.43456e-15
3.96521e-15
5.42531e-15
4.09656e-15
5.4224e-15
4.21886e-15
5.42795e-15
4.34602e-15
5.42888e-15
4.48446e-15
5.4354e-15
4.62209e-15
5.45775e-15
4.76582e-15
5.48714e-15
4.9168e-15
5.51344e-15
5.07052e-15
5.5453e-15
5.21646e-15
5.59801e-15
5.36439e-15
5.66683e-15
5.50231e-15
5.74011e-15
5.63997e-15
5.80568e-15
5.79584e-15
5.87973e-15
5.93593e-15
5.96941e-15
6.06304e-15
6.08492e-15
6.19372e-15
6.22668e-15
6.30885e-15
6.36467e-15
6.41874e-15
6.4677e-15
6.5201e-15
6.5479e-15
6.66689e-15
6.66684e-15
6.80804e-15
6.81583e-15
6.94253e-15
6.94205e-15
7.11302e-15
7.061e-15
7.21308e-15
7.23472e-15
7.33827e-15
7.36161e-15
7.52337e-15
7.53234e-15
7.698e-15
7.70881e-15
7.86632e-15
7.89771e-15
8.06564e-15
8.20995e-15
8.26763e-15
8.45104e-15
8.53139e-15
8.59841e-15
8.7646e-15
8.76593e-15
9.06044e-15
9.05837e-15
9.36607e-15
9.36264e-15
9.70662e-15
9.6903e-15
9.94928e-15
9.97579e-15
1.03406e-14
1.03525e-14
1.05837e-14
1.063e-14
1.10015e-14
1.10502e-14
1.11443e-14
1.11786e-14
1.13948e-14
1.13396e-14
3.44009e-15
3.92504e-15
3.44132e-15
3.92553e-15
3.44296e-15
3.92621e-15
3.44556e-15
3.92738e-15
3.44927e-15
3.92903e-15
3.45394e-15
3.93125e-15
3.45963e-15
3.93413e-15
3.46646e-15
3.93767e-15
3.47429e-15
3.94206e-15
3.48314e-15
3.94738e-15
3.49305e-15
3.95373e-15
3.50456e-15
3.96117e-15
3.51761e-15
3.96997e-15
3.53239e-15
3.98053e-15
3.54922e-15
3.99359e-15
3.56888e-15
4.00909e-15
3.59139e-15
4.02751e-15
3.61728e-15
4.04906e-15
3.64695e-15
4.07408e-15
3.67978e-15
4.10291e-15
3.71493e-15
4.13585e-15
3.75553e-15
4.17244e-15
3.80039e-15
4.21449e-15
3.84806e-15
4.26106e-15
3.89994e-15
4.31285e-15
3.9562e-15
4.36827e-15
4.01409e-15
4.42644e-15
4.07967e-15
4.48844e-15
4.14704e-15
4.55444e-15
4.21507e-15
4.62687e-15
4.29619e-15
4.70053e-15
4.37473e-15
4.77787e-15
4.45282e-15
4.85812e-15
4.53788e-15
4.9368e-15
4.63029e-15
5.01422e-15
4.71994e-15
5.10139e-15
4.81484e-15
5.18866e-15
4.91534e-15
5.27412e-15
5.01041e-15
5.36152e-15
5.09393e-15
5.44933e-15
5.19819e-15
5.53333e-15
5.27827e-15
5.63022e-15
5.37651e-15
5.71826e-15
5.47423e-15
5.79948e-15
5.57821e-15
5.88237e-15
5.68913e-15
5.95561e-15
5.7808e-15
6.03417e-15
5.87321e-15
6.12131e-15
5.97285e-15
6.19188e-15
6.066e-15
6.26121e-15
6.19117e-15
6.33059e-15
6.33163e-15
6.40661e-15
6.44707e-15
6.48676e-15
6.54078e-15
6.55368e-15
6.63215e-15
6.63712e-15
6.73947e-15
6.73571e-15
6.84962e-15
6.8486e-15
6.9657e-15
6.98081e-15
7.09002e-15
7.10784e-15
7.18529e-15
7.19684e-15
7.28936e-15
7.30091e-15
7.42312e-15
7.4226e-15
7.52728e-15
7.56466e-15
7.67872e-15
7.65449e-15
7.7799e-15
7.75255e-15
7.90993e-15
7.89229e-15
8.06052e-15
8.07552e-15
8.26454e-15
8.27601e-15
8.48194e-15
8.51305e-15
8.49451e-15
8.69711e-15
8.77044e-15
8.76239e-15
9.06691e-15
9.05249e-15
9.33288e-15
9.33521e-15
9.71098e-15
9.73954e-15
1.0068e-14
1.01e-14
1.0345e-14
1.03456e-14
1.07733e-14
1.07338e-14
1.10382e-14
1.10157e-14
1.12504e-14
1.12241e-14
1.13502e-14
1.14321e-14
1.13796e-14
1.13962e-14
1.1483e-14
1.15085e-14
1.15343e-14
1.15805e-14
1.15854e-14
1.15936e-14
1.16102e-14
1.16143e-14
1.16277e-14
1.16272e-14
1.16728e-14
1.16767e-14
1.17813e-14
1.17849e-14
1.18168e-14
1.1818e-14
1.18403e-14
1.18606e-14
1.19177e-14
1.19283e-14
1.18896e-14
1.19014e-14
1.19254e-14
1.19552e-14
1.19686e-14
1.19597e-14
1.19507e-14
1.19493e-14
1.19238e-14
1.1979e-14
1.19406e-14
1.19831e-14
1.19618e-14
1.19982e-14
1.19936e-14
1.20147e-14
1.20144e-14
1.20211e-14
1.20465e-14
1.20579e-14
1.2054e-14
1.20742e-14
1.20718e-14
1.20941e-14
1.20809e-14
1.20821e-14
1.20527e-14
1.20695e-14
1.20529e-14
1.20403e-14
1.20512e-14
1.20414e-14
1.20491e-14
1.20554e-14
1.20453e-14
1.20523e-14
1.20403e-14
1.20345e-14
1.20355e-14
1.2047e-14
1.20367e-14
1.20595e-14
1.20427e-14
1.20656e-14
1.20465e-14
1.20591e-14
1.20425e-14
1.20605e-14
1.20445e-14
1.20632e-14
1.20456e-14
1.20669e-14
1.2052e-14
1.20652e-14
1.20513e-14
1.20706e-14
1.20434e-14
1.20583e-14
1.20471e-14
1.2053e-14
1.20532e-14
1.2054e-14
1.20589e-14
1.20581e-14
1.20474e-14
1.20624e-14
1.20493e-14
1.20641e-14
1.20508e-14
1.20662e-14
1.20545e-14
1.20632e-14
1.20579e-14
1.20605e-14
1.2061e-14
1.20603e-14
1.20616e-14
1.20578e-14
1.20599e-14
1.20577e-14
1.20605e-14
1.20608e-14
1.2061e-14
1.20606e-14
1.20593e-14
1.20574e-14
1.20607e-14
1.20572e-14
1.2061e-14
1.20579e-14
1.20596e-14
1.20585e-14
1.20599e-14
1.206e-14
1.20597e-14
1.20601e-14
1.20592e-14
1.2059e-14
1.20594e-14
1.20588e-14
1.20593e-14
1.20592e-14
1.20585e-14
1.20595e-14
1.20584e-14
1.20595e-14
1.20582e-14
1.20598e-14
1.20578e-14
1.20602e-14
1.20578e-14
1.20603e-14
1.20578e-14
1.20603e-14
1.20579e-14
1.20601e-14
1.20577e-14
1.20602e-14
1.20575e-14
1.20604e-14
1.20573e-14
1.20604e-14
1.20573e-14
1.20603e-14
1.20572e-14
1.20604e-14
1.20571e-14
1.20605e-14
1.2057e-14
1.20605e-14
1.2057e-14
1.20605e-14
1.2057e-14
1.20605e-14
1.2057e-14
1.20605e-14
1.2057e-14
1.20605e-14
1.14954e-14
1.15059e-14
1.16044e-14
1.15909e-14
1.15815e-14
1.1587e-14
1.1596e-14
1.16012e-14
1.16101e-14
1.16313e-14
1.15894e-14
1.15745e-14
1.15634e-14
1.15895e-14
1.16843e-14
1.17062e-14
1.17209e-14
1.1799e-14
1.18024e-14
1.18421e-14
1.18839e-14
1.1911e-14
1.19812e-14
1.19922e-14
1.1996e-14
1.20069e-14
1.20259e-14
1.19942e-14
1.19922e-14
1.19738e-14
1.2026e-14
1.19976e-14
1.20492e-14
1.20121e-14
1.20644e-14
1.20607e-14
1.2014e-14
1.21177e-14
1.20587e-14
1.20989e-14
1.20572e-14
1.2083e-14
1.20891e-14
1.20772e-14
1.2108e-14
1.20879e-14
1.20976e-14
1.20938e-14
1.21072e-14
1.20999e-14
1.21048e-14
1.20725e-14
1.2077e-14
1.20773e-14
1.20679e-14
1.20841e-14
1.20582e-14
1.20462e-14
1.20506e-14
1.2039e-14
1.20522e-14
1.20616e-14
1.20612e-14
1.20701e-14
1.20629e-14
1.20575e-14
1.20513e-14
1.20518e-14
1.204e-14
1.20461e-14
1.20491e-14
1.20472e-14
1.20581e-14
1.20544e-14
1.20673e-14
1.20482e-14
1.20709e-14
1.20411e-14
1.20694e-14
1.20452e-14
1.2072e-14
1.20363e-14
1.20787e-14
1.20324e-14
1.20779e-14
1.2039e-14
1.2078e-14
1.20444e-14
1.20734e-14
1.20517e-14
1.20722e-14
1.2061e-14
1.20738e-14
1.20621e-14
1.20757e-14
1.20555e-14
1.2073e-14
1.20537e-14
1.20729e-14
1.20541e-14
1.20731e-14
1.20566e-14
1.20734e-14
1.20622e-14
1.20728e-14
1.20654e-14
1.20713e-14
1.20675e-14
1.20718e-14
1.20694e-14
1.20724e-14
1.20694e-14
1.20702e-14
1.20704e-14
1.20691e-14
1.20713e-14
1.20672e-14
1.20725e-14
1.20673e-14
1.20738e-14
1.20667e-14
1.2075e-14
1.20651e-14
1.20758e-14
1.20652e-14
1.2076e-14
1.20658e-14
1.20756e-14
1.20653e-14
1.20756e-14
1.20649e-14
1.20754e-14
1.20648e-14
1.20756e-14
1.20647e-14
1.20761e-14
1.20646e-14
1.20764e-14
1.20647e-14
1.20764e-14
1.20646e-14
1.20764e-14
1.20645e-14
1.20764e-14
1.20645e-14
1.20763e-14
1.20646e-14
1.20762e-14
1.20646e-14
1.20762e-14
1.20646e-14
1.20763e-14
1.20646e-14
1.20763e-14
1.20646e-14
1.20763e-14
1.20646e-14
1.20763e-14
1.20646e-14
1.20763e-14
)
;

boundaryField
{
    walls
    {
        type            zeroGradient;
    }
    inlet
    {
        type            cyclic;
    }
    outlet
    {
        type            cyclic;
    }
    sides
    {
        type            empty;
    }
}


// ************************************************************************* //
