/*--------------------------------*- C++ -*----------------------------------*\
| =========                 |                                                 |
| \\      /  F ield         | OpenFOAM: The Open Source CFD Toolbox           |
|  \\    /   O peration     | Version:  2012                                  |
|   \\  /    A nd           | Website:  www.openfoam.com                      |
|    \\/     M anipulation  |                                                 |
\*---------------------------------------------------------------------------*/
FoamFile
{
    version     2.0;
    format      ascii;
    class       surfaceScalarField;
    location    "11000";
    object      phi;
}
// * * * * * * * * * * * * * * * * * * * * * * * * * * * * * * * * * * * * * //

dimensions      [0 3 -1 0 0 0 0];
oriented        oriented;


internalField   nonuniform List<scalar> 
1276
(
2.73628e-07
-5.7809e-18
-2.00682e-21
-5.73682e-21
4.33599e-22
8.87228e-07
-5.75104e-18
-1.02168e-20
-2.39146e-20
-1.20489e-21
1.61109e-06
-5.71797e-18
-1.13792e-20
-4.41038e-20
-1.41983e-21
2.46084e-06
-5.68168e-18
-1.25759e-20
-6.6116e-20
-1.66117e-21
3.45403e-06
-5.64246e-18
-1.37189e-20
-8.93797e-20
-1.9281e-21
4.61029e-06
-5.60052e-18
-1.48581e-20
-1.15289e-19
-2.21822e-21
5.95117e-06
-5.555e-18
-1.60316e-20
-1.4229e-19
-2.52569e-21
7.4994e-06
-5.50522e-18
-1.72338e-20
-1.71155e-19
-2.83963e-21
9.27746e-06
-5.45562e-18
-1.84221e-20
-2.0144e-19
-3.1417e-21
1.13049e-05
-5.39923e-18
-1.95145e-20
-2.34225e-19
-3.40477e-21
1.35946e-05
-5.33969e-18
-2.0401e-20
-2.68991e-19
-3.59328e-21
1.61502e-05
-5.27424e-18
-2.09667e-20
-3.05485e-19
-3.66795e-21
1.8965e-05
-5.21216e-18
-2.11284e-20
-3.38462e-19
-3.59915e-21
2.20253e-05
-5.15178e-18
-2.08634e-20
-3.75389e-19
-3.37578e-21
2.53162e-05
-5.08987e-18
-2.02193e-20
-4.12183e-19
-2.99874e-21
2.88265e-05
-5.03099e-18
-1.9282e-20
-4.47741e-19
-2.48202e-21
3.25522e-05
-4.96305e-18
-1.81382e-20
-4.96932e-19
-1.84144e-21
3.64964e-05
-4.91582e-18
-1.68823e-20
-5.3237e-19
-1.06345e-21
4.06683e-05
-4.8573e-18
-1.55468e-20
-5.79173e-19
-1.72183e-22
4.50821e-05
-4.80668e-18
-1.41718e-20
-6.18113e-19
8.37717e-22
4.97556e-05
-4.74391e-18
-1.27669e-20
-6.7268e-19
1.96338e-21
5.4709e-05
-4.69781e-18
-1.14011e-20
-7.02875e-19
3.23485e-21
5.99648e-05
-4.6486e-18
-1.00602e-20
-7.56296e-19
4.58837e-21
6.55471e-05
-4.61147e-18
-8.78062e-21
-8.03856e-19
6.07654e-21
7.14817e-05
-4.54568e-18
-7.55907e-21
-8.61965e-19
7.70045e-21
7.77959e-05
-4.50302e-18
-6.47533e-21
-9.00201e-19
9.50249e-21
8.45187e-05
-4.46293e-18
-5.5044e-21
-9.55408e-19
1.14157e-20
9.16805e-05
-4.41356e-18
-4.70866e-21
-1.0056e-18
1.33902e-20
9.93139e-05
-4.34342e-18
-4.08483e-21
-1.06942e-18
1.53623e-20
0.000107453
-4.29377e-18
-3.76368e-21
-1.13462e-18
1.73042e-20
0.000116134
-4.24224e-18
-3.80538e-21
-1.20323e-18
1.91504e-20
0.000125395
-4.19702e-18
-3.97505e-21
-1.2422e-18
2.07456e-20
0.000135277
-4.15506e-18
-4.19238e-21
-1.31303e-18
2.17719e-20
0.000145824
-4.09267e-18
-4.66819e-21
-1.39168e-18
2.23831e-20
0.000157081
-4.02775e-18
-5.56275e-21
-1.50282e-18
2.27548e-20
0.000169097
-3.95287e-18
-6.79043e-21
-1.5948e-18
2.25177e-20
0.000181924
-3.88472e-18
-8.52201e-21
-1.69937e-18
2.16936e-20
0.000195616
-3.76591e-18
-1.07848e-20
-1.78644e-18
2.04549e-20
0.000210233
-3.66531e-18
-1.38051e-20
-1.86604e-18
1.84153e-20
0.000225836
-3.57302e-18
-1.65435e-20
-1.96006e-18
1.56424e-20
0.000242492
-3.47436e-18
-2.03971e-20
-2.00189e-18
1.25024e-20
0.00026027
-3.45622e-18
-2.35908e-20
-2.07136e-18
7.21214e-21
0.000279245
-3.3901e-18
-2.65092e-20
-2.14406e-18
1.26007e-21
0.000299496
-3.30419e-18
-2.9376e-20
-2.22025e-18
-5.07594e-21
0.000321108
-3.20809e-18
-3.28932e-20
-2.24652e-18
-1.11652e-20
0.00034417
-3.12888e-18
-3.72553e-20
-2.25281e-18
-1.66955e-20
0.000368776
-3.01053e-18
-3.93907e-20
-2.35255e-18
-2.37027e-20
0.000395028
-2.94342e-18
-4.0755e-20
-2.36753e-18
-2.93628e-20
0.000423033
-2.87384e-18
-4.08461e-20
-2.32013e-18
-3.40257e-20
0.000452905
-2.77328e-18
-3.8878e-20
-2.29739e-18
-3.9788e-20
0.000484763
-2.63169e-18
-3.78749e-20
-2.31273e-18
-4.54491e-20
0.000518737
-2.46773e-18
-4.10338e-20
-2.34407e-18
-4.85302e-20
0.000554962
-2.37191e-18
-4.51278e-20
-2.30166e-18
-5.07188e-20
0.000593582
-2.20439e-18
-4.64251e-20
-2.20683e-18
-4.76354e-20
0.000634749
-2.08576e-18
-4.99791e-20
-2.11602e-18
-4.62902e-20
0.000678627
-1.98936e-18
-5.70551e-20
-2.01326e-18
-4.5644e-20
0.000725386
-1.87883e-18
-6.56491e-20
-1.8539e-18
-5.03326e-20
0.000775207
-1.90511e-18
-7.8554e-20
-1.89087e-18
-6.67247e-20
0.000828284
-1.85947e-18
-7.97395e-20
-1.86214e-18
-8.13447e-20
0.000884819
-1.8084e-18
-7.53502e-20
-1.73434e-18
-7.29001e-20
0.000945028
-1.78966e-18
-7.26424e-20
-1.72534e-18
-6.7759e-20
0.00100914
-1.54965e-18
-7.92435e-20
-1.8587e-18
-7.19485e-20
0.00107738
-1.78687e-18
-1.05541e-19
-1.74437e-18
-7.99228e-20
0.00115002
-1.75945e-18
-1.02299e-19
-1.69728e-18
-7.14839e-20
0.00122732
-1.71845e-18
-6.93769e-20
-1.70793e-18
-6.88408e-20
0.00130955
-1.70167e-18
-6.89971e-20
-1.74228e-18
-4.46538e-20
0.001397
-1.81709e-18
-8.37282e-20
-1.84242e-18
-5.06099e-20
0.00148998
-1.61074e-18
-8.54615e-20
-1.68826e-18
-3.40112e-20
0.0015888
-1.636e-18
-1.45574e-19
-1.50633e-18
-7.05293e-20
0.00169379
-1.54772e-18
-1.19012e-20
-1.44066e-18
-1.01942e-19
0.00180528
-1.51042e-18
-1.28246e-20
-1.47087e-18
2.8606e-22
0.0019236
-1.4981e-18
-7.15411e-21
-1.60944e-18
-4.20517e-21
0.00204909
-1.42692e-18
2.52885e-20
-1.36591e-18
7.51437e-20
0.00218208
-1.14011e-18
-4.98579e-20
-1.29018e-18
-1.39978e-19
0.00232286
-1.28434e-18
-1.76451e-19
-1.06666e-18
-2.01863e-19
0.00247169
-1.13421e-18
-1.30784e-20
-1.23252e-18
-8.23139e-20
0.00262876
-1.40527e-18
-2.22841e-19
-1.30105e-18
-1.71075e-19
0.00279416
-6.87649e-19
6.84272e-20
-7.66751e-19
5.35663e-20
0.00296779
-7.07085e-19
-8.11832e-20
-6.75392e-19
-3.10819e-20
0.00314939
6.87866e-20
-6.47647e-19
-8.46256e-20
-7.28313e-19
2.73628e-07
-1.60215e-21
-8.24361e-23
8.87228e-07
-1.05002e-20
-2.72141e-21
1.61109e-06
-2.00651e-20
-6.14367e-21
2.46084e-06
-3.10464e-20
-9.98044e-21
3.45403e-06
-4.15938e-20
-1.44884e-20
4.61029e-06
-5.2804e-20
-1.9975e-20
5.95117e-06
-6.60937e-20
-2.52298e-20
7.4994e-06
-7.91105e-20
-3.1838e-20
9.27746e-06
-9.04281e-20
-4.10227e-20
1.13049e-05
-1.03958e-19
-5.10186e-20
1.35946e-05
-1.21974e-19
-5.86807e-20
1.61502e-05
-1.36549e-19
-6.95559e-20
1.8965e-05
-1.47631e-19
-8.0762e-20
2.20253e-05
-1.62146e-19
-9.08889e-20
2.53162e-05
-1.74712e-19
-1.01709e-19
2.88265e-05
-1.83046e-19
-1.15563e-19
3.25522e-05
-2.00782e-19
-1.18949e-19
3.64964e-05
-2.09214e-19
-1.25684e-19
4.06683e-05
-2.10618e-19
-1.30056e-19
4.50821e-05
-2.08944e-19
-1.33381e-19
4.97556e-05
-2.26137e-19
-1.28729e-19
5.4709e-05
-2.26093e-19
-1.36311e-19
5.99648e-05
-2.28205e-19
-1.43351e-19
6.55471e-05
-2.28942e-19
-1.5209e-19
7.14817e-05
-2.30294e-19
-1.42042e-19
7.77959e-05
-2.30321e-19
-1.28323e-19
8.45187e-05
-2.44966e-19
-1.22689e-19
9.16805e-05
-2.41031e-19
-1.07657e-19
9.93139e-05
-2.42361e-19
-1.00407e-19
0.000107453
-2.67642e-19
-9.34517e-20
0.000116134
-2.40209e-19
-9.06351e-20
0.000125395
-2.14746e-19
-7.99202e-20
0.000135277
-2.35398e-19
-6.58131e-20
0.000145824
-2.5199e-19
-3.12239e-20
0.000157081
-2.46327e-19
-5.34377e-20
0.000169097
-2.44852e-19
-4.85653e-20
0.000181924
-2.43575e-19
-4.35041e-20
0.000195616
-2.26591e-19
-3.20843e-20
0.000210233
-1.42907e-19
-1.30801e-20
0.000225836
-1.96104e-19
-1.03021e-20
0.000242492
-1.34513e-19
-4.61692e-20
0.00026027
-1.95069e-19
-2.72396e-20
0.000279245
-2.16456e-19
-4.43649e-20
0.000299496
-2.57239e-19
-4.52379e-20
0.000321108
-3.03585e-19
-3.62967e-20
0.00034417
-2.55265e-19
-8.57518e-20
0.000368776
-2.51175e-19
-1.17835e-19
0.000395028
-3.1694e-19
-1.18487e-19
0.000423033
-3.78492e-19
-1.4772e-19
0.000452905
-4.75523e-19
-1.81791e-19
0.000484763
-5.68704e-19
-2.22035e-19
0.000518737
-5.41651e-19
-3.7968e-19
0.000554962
-5.28379e-19
-4.4414e-19
0.000593582
-5.50173e-19
-5.75517e-19
0.000634749
-6.36119e-19
-6.31234e-19
0.000678627
-7.14617e-19
-7.09248e-19
0.000725386
-7.75246e-19
-7.49454e-19
0.000775207
-7.75656e-19
-8.48024e-19
0.000828284
-7.7923e-19
-7.87974e-19
0.000884819
-8.34661e-19
-7.75392e-19
0.000945028
-9.45731e-19
-8.33455e-19
0.00100914
-8.28339e-19
-9.88418e-19
0.00107738
-9.28156e-19
-8.15013e-19
0.00115002
-8.77699e-19
-9.17512e-19
0.00122732
-1.0587e-18
-9.33831e-19
0.00130955
-1.08763e-18
-1.11259e-18
0.001397
-1.15159e-18
-1.19482e-18
0.00148998
-1.18274e-18
-1.2557e-18
0.0015888
-8.40508e-19
-1.1182e-18
0.00169379
-1.31097e-18
-9.36824e-19
0.00180528
-1.40955e-18
-1.39793e-18
0.0019236
-1.36038e-18
-1.36853e-18
0.00204909
-1.416e-18
-1.53227e-18
0.00218208
-1.29241e-18
-1.36852e-18
0.00232286
-1.17687e-18
-1.07149e-18
0.00247169
-1.40579e-18
-1.36641e-18
0.00262876
-1.12206e-18
-1.09084e-18
0.00279416
-8.77166e-19
-8.95225e-19
0.00296779
-6.10232e-19
-6.81287e-19
0.00314939
-7.00559e-19
-6.64403e-19
0.00314939
-6.59207e-19
-4.11666e-20
-6.63875e-19
-7.8819e-20
0.00296779
-4.74945e-19
-4.34422e-20
-5.18274e-19
-3.5448e-20
0.00279416
-4.52297e-19
-6.18205e-20
-3.39484e-19
8.00468e-20
0.00262876
-5.64754e-19
-5.16304e-20
-6.0472e-19
-1.01281e-19
0.00247169
-5.88982e-19
-4.61195e-20
-6.18064e-19
5.79037e-21
0.00232286
-7.37754e-19
3.87021e-20
-7.42037e-19
5.04202e-20
0.00218208
-1.01103e-18
1.43707e-19
-9.65034e-19
8.27819e-20
0.00204909
-8.20579e-19
1.37752e-19
-8.49367e-19
5.78016e-20
0.0019236
-8.41732e-19
1.32634e-19
-8.09781e-19
-5.46138e-20
0.00180528
-8.36468e-19
9.19516e-20
-8.88443e-19
-2.82251e-20
0.00169379
-5.45226e-19
4.48302e-20
-4.88058e-19
-3.49261e-21
0.0015888
-5.74918e-19
-5.36168e-20
-5.25207e-19
-1.25582e-19
0.00148998
-4.87339e-19
-3.63819e-20
-4.49457e-19
-6.94782e-20
0.001397
-2.93623e-19
-4.8018e-21
-4.50696e-19
-3.84078e-20
0.00130955
-2.22104e-19
1.35703e-20
-3.5806e-19
-1.05468e-20
0.00122732
-2.34285e-19
-4.24431e-21
-1.32865e-19
-3.65705e-21
0.00115002
-2.6779e-19
-1.18575e-20
-1.93488e-19
-1.26406e-20
0.00107738
-3.36462e-19
-2.60082e-20
-3.81337e-19
-3.67127e-20
0.00100914
-3.25428e-19
-1.05119e-20
-3.05393e-19
-4.6766e-20
0.000945028
-3.27487e-19
-1.85765e-20
-2.73975e-19
-2.82966e-20
0.000884819
-2.08767e-19
-4.88857e-21
-2.65654e-19
-1.0157e-20
0.000828284
-1.97229e-19
-1.34898e-20
-2.32684e-19
6.18072e-21
0.000775207
-1.82491e-19
-1.27502e-20
-1.01496e-19
5.9022e-21
0.000725386
-2.04085e-19
-1.18158e-20
-1.27461e-19
-2.7236e-21
0.000678627
-1.4087e-19
-9.93515e-21
-1.01226e-19
-8.68873e-21
0.000634749
-6.1818e-20
-8.35383e-21
-7.96369e-20
-6.7306e-21
0.000593582
-3.75785e-20
-4.1002e-21
-5.37888e-20
-5.72392e-21
0.000554962
-5.15711e-20
-2.73527e-21
-7.74669e-20
-3.83374e-21
0.000518737
-5.55801e-20
-1.76502e-21
-5.90968e-20
5.33081e-22
0.000484763
-6.55458e-20
-1.32575e-21
-8.61403e-21
-6.80593e-23
0.000452905
-4.31427e-20
-1.8147e-21
-1.04336e-20
-3.50068e-21
0.000423033
-7.09973e-20
-3.55495e-21
-6.96797e-20
-2.75272e-21
0.000395028
-5.40433e-20
-2.97035e-21
-6.64538e-20
1.19722e-21
0.000368776
-3.68867e-20
-8.80281e-22
-7.91602e-20
2.24025e-21
0.00034417
-5.25682e-20
2.1229e-22
-3.22491e-20
3.74092e-21
0.000321108
-4.68198e-20
2.19815e-22
-4.91241e-20
4.88109e-21
0.000299496
-5.75724e-20
-7.08078e-22
-4.86935e-20
5.81296e-21
0.000279245
-3.83231e-20
-1.42101e-21
-6.41615e-20
5.89217e-21
0.00026027
-1.64549e-20
-2.26039e-21
3.82725e-21
6.5722e-21
0.000242492
-6.98753e-20
-2.69812e-21
-4.06541e-22
4.75502e-21
0.000225836
-4.27793e-20
-2.26574e-21
-8.87649e-21
3.67715e-21
0.000210233
-4.58528e-20
-2.28744e-21
-2.06832e-20
3.19349e-21
0.000195616
1.31242e-20
-2.00879e-21
-7.96795e-21
2.88989e-21
0.000181924
-3.07788e-20
-2.14896e-21
1.11533e-20
2.42038e-21
0.000169097
-1.29244e-20
-1.60532e-21
-4.1466e-21
1.99963e-21
0.000157081
-1.72893e-20
-1.27885e-21
-5.35225e-21
1.52918e-21
0.000145824
-1.63435e-20
-9.35139e-22
1.30547e-20
1.2378e-21
0.000135277
-1.97393e-20
-6.81723e-22
-9.0889e-21
1.05802e-21
0.000125395
8.30111e-22
-4.13135e-22
1.38161e-20
8.90458e-22
0.000116134
1.24266e-20
-2.76902e-22
1.84561e-20
6.11229e-22
0.000107453
8.71935e-21
-2.41371e-22
1.68564e-20
3.89829e-22
9.93139e-05
1.35011e-21
-2.21374e-22
1.33179e-20
2.45645e-22
9.16806e-05
4.34421e-21
-1.95153e-22
1.60016e-20
1.46744e-22
8.45186e-05
-1.23935e-21
-1.86584e-22
-1.30876e-21
1.82966e-23
7.77959e-05
-3.37608e-21
-1.93751e-22
7.41996e-21
-3.33722e-23
7.14817e-05
-2.37407e-22
-1.67487e-22
2.33828e-21
-6.94861e-23
6.55471e-05
-2.89253e-21
-1.19382e-22
-1.65078e-22
-8.84279e-23
5.99648e-05
-6.54414e-21
-7.22211e-23
-1.26307e-21
-9.69295e-23
5.4709e-05
-2.03326e-21
-2.95166e-23
1.23132e-21
-1.16672e-22
4.97556e-05
-4.97756e-21
-1.69404e-23
3.83449e-22
-1.28651e-22
4.50821e-05
-1.63472e-21
-1.89078e-24
-2.96466e-21
-1.33819e-22
4.06683e-05
3.53773e-21
1.55543e-23
-3.05639e-21
-1.31523e-22
3.64964e-05
1.15235e-21
1.19311e-23
1.4139e-22
-1.25536e-22
3.25522e-05
2.27781e-21
4.92517e-24
-1.80251e-21
-1.14265e-22
2.88265e-05
4.66828e-21
5.4712e-24
-1.81739e-21
-1.07828e-22
2.53161e-05
-7.48893e-22
3.93071e-24
-3.00968e-21
-1.01667e-22
2.20253e-05
-1.20193e-21
4.77987e-24
-2.14147e-21
-9.75943e-23
1.8965e-05
-2.33384e-21
4.21572e-24
-1.63494e-21
-9.45749e-23
1.61502e-05
2.40093e-21
4.23277e-24
-3.37724e-21
-8.83118e-23
1.35946e-05
3.49809e-21
1.51488e-24
-4.42671e-21
-7.83442e-23
1.13049e-05
3.16815e-21
-6.53577e-25
-4.52524e-21
-6.74878e-23
9.27746e-06
1.13861e-21
-1.87526e-24
-2.38555e-21
-5.7385e-23
7.4994e-06
1.68053e-21
-2.09207e-24
-2.31845e-21
-4.83819e-23
5.95117e-06
1.32484e-21
-2.81841e-24
-1.15825e-21
-4.02497e-23
4.61029e-06
4.43114e-22
-2.90607e-24
-3.92731e-22
-3.34597e-23
3.45403e-06
5.85844e-22
-2.63083e-24
-4.31509e-22
-2.80342e-23
2.46084e-06
-1.63944e-22
-2.3912e-24
6.85467e-23
-2.34153e-23
1.61109e-06
-1.80701e-22
-2.04747e-24
-6.44542e-23
-1.95583e-23
8.87228e-07
1.55939e-23
-1.71016e-24
-3.7952e-23
-1.63646e-23
2.73629e-07
-3.20321e-24
-7.59038e-24
0.00314939
-6.20311e-19
-6.22806e-19
0.00296779
-4.58397e-19
-4.06161e-19
0.00279416
-3.73343e-19
-4.55271e-19
0.00262876
-4.77301e-19
-3.96709e-19
0.00247169
-3.87096e-19
-4.58761e-19
0.00232286
-5.20278e-19
-6.31229e-19
0.00218208
-1.01889e-18
-9.84152e-19
0.00204909
-9.22005e-19
-1.12373e-18
0.0019236
-1.054e-18
-9.27393e-19
0.00180528
-9.93965e-19
-9.11667e-19
0.00169379
-8.49094e-19
-8.74555e-19
0.0015888
-6.40668e-19
-5.3486e-19
0.00148998
-5.04557e-19
-5.35605e-19
0.001397
-3.24762e-19
-5.18333e-19
0.00130955
-3.82245e-19
-4.50484e-19
0.00122732
-3.24362e-19
-2.08566e-19
0.00115002
-3.1727e-19
-2.03257e-19
0.00107738
-1.39922e-19
-2.21743e-19
0.00100914
-2.7141e-19
-1.16753e-19
0.000945028
-1.65541e-19
-2.17089e-19
0.000884819
-2.49868e-19
-1.51257e-19
0.000828284
-1.97531e-19
-2.32052e-19
0.000775207
-1.63466e-19
-1.82861e-19
0.000725386
-1.29759e-19
-1.7399e-19
0.000678627
-9.91006e-20
-7.10472e-20
0.000634749
-1.23056e-20
-5.51134e-20
0.000593582
-3.1483e-20
-3.70752e-20
0.000554962
-4.45854e-20
-4.46071e-20
0.000518737
-4.28015e-20
-9.96532e-20
0.000484763
-7.64589e-20
-1.32033e-19
0.000452905
-1.08505e-19
-8.08191e-20
0.000423033
-9.83231e-20
-4.24206e-20
0.000395028
-5.80898e-20
-1.03671e-19
0.000368776
-7.59261e-20
-9.12859e-20
0.00034417
-1.20436e-19
-4.15378e-20
0.000321108
-1.49062e-19
-3.6446e-20
0.000299496
-1.44515e-19
-7.11047e-20
0.000279245
-1.2997e-19
-3.90543e-20
0.00026027
-8.07022e-20
-1.11254e-19
0.000242492
-7.17415e-20
-9.69088e-20
0.000225836
-8.87322e-20
-7.61802e-20
0.000210233
-4.94272e-20
-4.94137e-20
0.000195616
-2.27038e-20
-5.85997e-20
0.000181924
-3.98272e-21
-3.96919e-20
0.000169097
-1.20098e-20
-5.14279e-20
0.000157081
-5.25125e-21
-4.23347e-20
0.000145824
-1.57501e-20
-2.82581e-20
0.000135277
-5.59575e-21
-4.28861e-20
0.000125395
4.50265e-21
-4.18134e-20
0.000116134
4.48196e-21
-4.11988e-20
0.000107453
5.85627e-21
-4.03084e-20
9.93139e-05
1.07963e-20
-3.71115e-20
9.16806e-05
1.34937e-20
-3.83798e-20
8.45186e-05
1.226e-21
-2.54252e-20
7.77959e-05
1.18186e-20
-1.70146e-20
7.14817e-05
2.26054e-20
-2.32353e-20
6.55471e-05
1.76101e-20
-2.27826e-20
5.99648e-05
1.63467e-20
-2.18032e-20
5.4709e-05
6.1994e-21
-8.24387e-21
4.97556e-05
4.54002e-21
-7.28292e-21
4.50821e-05
1.06235e-20
-7.03312e-21
4.06683e-05
-1.00036e-21
-6.46252e-21
3.64964e-05
-8.63813e-21
3.02149e-21
3.25522e-05
-1.66376e-21
-1.74522e-21
2.88265e-05
-1.16549e-21
-1.8576e-21
2.53161e-05
-2.33675e-22
-3.72065e-21
2.20253e-05
-1.17442e-21
-4.19327e-21
1.8965e-05
3.0979e-22
-2.33452e-21
1.61502e-05
-4.42763e-22
-8.73118e-22
1.35946e-05
2.09523e-22
-5.37439e-22
1.13049e-05
5.33399e-22
-3.6395e-22
9.27746e-06
3.91742e-22
6.6618e-22
7.4994e-06
-1.68493e-21
4.38517e-22
5.95117e-06
-6.10998e-22
8.0203e-22
4.61029e-06
-2.84051e-22
-8.36265e-23
3.45403e-06
-1.79759e-22
-3.33314e-22
2.46084e-06
-2.06215e-22
7.43095e-23
1.61109e-06
-6.98124e-23
5.08741e-23
8.87228e-07
-1.86176e-23
-2.39626e-23
2.73629e-07
)
;

boundaryField
{
    walls
    {
        type            calculated;
        value           uniform 0;
    }
    inlet
    {
        type            cyclic;
        value           nonuniform List<scalar> 
320
(
-2.73628e-07
-8.87228e-07
-1.61109e-06
-2.46084e-06
-3.45403e-06
-4.61029e-06
-5.95117e-06
-7.4994e-06
-9.27746e-06
-1.13049e-05
-1.35946e-05
-1.61502e-05
-1.8965e-05
-2.20253e-05
-2.53162e-05
-2.88265e-05
-3.25522e-05
-3.64964e-05
-4.06683e-05
-4.50821e-05
-4.97556e-05
-5.4709e-05
-5.99648e-05
-6.55471e-05
-7.14817e-05
-7.77959e-05
-8.45187e-05
-9.16805e-05
-9.93139e-05
-0.000107453
-0.000116134
-0.000125395
-0.000135277
-0.000145824
-0.000157081
-0.000169097
-0.000181924
-0.000195616
-0.000210233
-0.000225836
-0.000242492
-0.00026027
-0.000279245
-0.000299496
-0.000321108
-0.00034417
-0.000368776
-0.000395028
-0.000423033
-0.000452905
-0.000484763
-0.000518737
-0.000554962
-0.000593582
-0.000634749
-0.000678627
-0.000725386
-0.000775207
-0.000828284
-0.000884819
-0.000945028
-0.00100914
-0.00107738
-0.00115002
-0.00122732
-0.00130955
-0.001397
-0.00148998
-0.0015888
-0.00169379
-0.00180528
-0.0019236
-0.00204909
-0.00218208
-0.00232286
-0.00247169
-0.00262876
-0.00279416
-0.00296779
-0.00314939
-2.73628e-07
-8.87228e-07
-1.61109e-06
-2.46084e-06
-3.45403e-06
-4.61029e-06
-5.95117e-06
-7.4994e-06
-9.27746e-06
-1.13049e-05
-1.35946e-05
-1.61502e-05
-1.8965e-05
-2.20253e-05
-2.53162e-05
-2.88265e-05
-3.25522e-05
-3.64964e-05
-4.06683e-05
-4.50821e-05
-4.97556e-05
-5.4709e-05
-5.99648e-05
-6.55471e-05
-7.14817e-05
-7.77959e-05
-8.45187e-05
-9.16805e-05
-9.93139e-05
-0.000107453
-0.000116134
-0.000125395
-0.000135277
-0.000145824
-0.000157081
-0.000169097
-0.000181924
-0.000195616
-0.000210233
-0.000225836
-0.000242492
-0.00026027
-0.000279245
-0.000299496
-0.000321108
-0.00034417
-0.000368776
-0.000395028
-0.000423033
-0.000452905
-0.000484763
-0.000518737
-0.000554962
-0.000593582
-0.000634749
-0.000678627
-0.000725386
-0.000775207
-0.000828284
-0.000884819
-0.000945028
-0.00100914
-0.00107738
-0.00115002
-0.00122732
-0.00130955
-0.001397
-0.00148998
-0.0015888
-0.00169379
-0.00180528
-0.0019236
-0.00204909
-0.00218208
-0.00232286
-0.00247169
-0.00262876
-0.00279416
-0.00296779
-0.00314939
-0.00314939
-0.00296779
-0.00279416
-0.00262876
-0.00247169
-0.00232286
-0.00218208
-0.00204909
-0.0019236
-0.00180528
-0.00169379
-0.0015888
-0.00148998
-0.001397
-0.00130955
-0.00122732
-0.00115002
-0.00107738
-0.00100914
-0.000945028
-0.000884819
-0.000828284
-0.000775207
-0.000725386
-0.000678627
-0.000634749
-0.000593582
-0.000554962
-0.000518737
-0.000484763
-0.000452905
-0.000423033
-0.000395028
-0.000368776
-0.00034417
-0.000321108
-0.000299496
-0.000279245
-0.00026027
-0.000242492
-0.000225836
-0.000210233
-0.000195616
-0.000181924
-0.000169097
-0.000157081
-0.000145824
-0.000135277
-0.000125395
-0.000116134
-0.000107453
-9.93139e-05
-9.16806e-05
-8.45186e-05
-7.77959e-05
-7.14817e-05
-6.55471e-05
-5.99648e-05
-5.4709e-05
-4.97556e-05
-4.50821e-05
-4.06683e-05
-3.64964e-05
-3.25522e-05
-2.88265e-05
-2.53161e-05
-2.20253e-05
-1.8965e-05
-1.61502e-05
-1.35946e-05
-1.13049e-05
-9.27746e-06
-7.4994e-06
-5.95117e-06
-4.61029e-06
-3.45403e-06
-2.46084e-06
-1.61109e-06
-8.87228e-07
-2.73629e-07
-0.00314939
-0.00296779
-0.00279416
-0.00262876
-0.00247169
-0.00232286
-0.00218208
-0.00204909
-0.0019236
-0.00180528
-0.00169379
-0.0015888
-0.00148998
-0.001397
-0.00130955
-0.00122732
-0.00115002
-0.00107738
-0.00100914
-0.000945028
-0.000884819
-0.000828284
-0.000775207
-0.000725386
-0.000678627
-0.000634749
-0.000593582
-0.000554962
-0.000518737
-0.000484763
-0.000452905
-0.000423033
-0.000395028
-0.000368776
-0.00034417
-0.000321108
-0.000299496
-0.000279245
-0.00026027
-0.000242492
-0.000225836
-0.000210233
-0.000195616
-0.000181924
-0.000169097
-0.000157081
-0.000145824
-0.000135277
-0.000125395
-0.000116134
-0.000107453
-9.93139e-05
-9.16806e-05
-8.45186e-05
-7.77959e-05
-7.14817e-05
-6.55471e-05
-5.99648e-05
-5.4709e-05
-4.97556e-05
-4.50821e-05
-4.06683e-05
-3.64964e-05
-3.25522e-05
-2.88265e-05
-2.53161e-05
-2.20253e-05
-1.8965e-05
-1.61502e-05
-1.35946e-05
-1.13049e-05
-9.27746e-06
-7.4994e-06
-5.95117e-06
-4.61029e-06
-3.45403e-06
-2.46084e-06
-1.61109e-06
-8.87228e-07
-2.73629e-07
)
;
    }
    outlet
    {
        type            cyclic;
        value           nonuniform List<scalar> 
320
(
2.73628e-07
8.87228e-07
1.61109e-06
2.46084e-06
3.45403e-06
4.61029e-06
5.95117e-06
7.4994e-06
9.27746e-06
1.13049e-05
1.35946e-05
1.61502e-05
1.8965e-05
2.20253e-05
2.53162e-05
2.88265e-05
3.25522e-05
3.64964e-05
4.06683e-05
4.50821e-05
4.97556e-05
5.4709e-05
5.99648e-05
6.55471e-05
7.14817e-05
7.77959e-05
8.45187e-05
9.16805e-05
9.93139e-05
0.000107453
0.000116134
0.000125395
0.000135277
0.000145824
0.000157081
0.000169097
0.000181924
0.000195616
0.000210233
0.000225836
0.000242492
0.00026027
0.000279245
0.000299496
0.000321108
0.00034417
0.000368776
0.000395028
0.000423033
0.000452905
0.000484763
0.000518737
0.000554962
0.000593582
0.000634749
0.000678627
0.000725386
0.000775207
0.000828284
0.000884819
0.000945028
0.00100914
0.00107738
0.00115002
0.00122732
0.00130955
0.001397
0.00148998
0.0015888
0.00169379
0.00180528
0.0019236
0.00204909
0.00218208
0.00232286
0.00247169
0.00262876
0.00279416
0.00296779
0.00314939
2.73628e-07
8.87228e-07
1.61109e-06
2.46084e-06
3.45403e-06
4.61029e-06
5.95117e-06
7.4994e-06
9.27746e-06
1.13049e-05
1.35946e-05
1.61502e-05
1.8965e-05
2.20253e-05
2.53162e-05
2.88265e-05
3.25522e-05
3.64964e-05
4.06683e-05
4.50821e-05
4.97556e-05
5.4709e-05
5.99648e-05
6.55471e-05
7.14817e-05
7.77959e-05
8.45187e-05
9.16805e-05
9.93139e-05
0.000107453
0.000116134
0.000125395
0.000135277
0.000145824
0.000157081
0.000169097
0.000181924
0.000195616
0.000210233
0.000225836
0.000242492
0.00026027
0.000279245
0.000299496
0.000321108
0.00034417
0.000368776
0.000395028
0.000423033
0.000452905
0.000484763
0.000518737
0.000554962
0.000593582
0.000634749
0.000678627
0.000725386
0.000775207
0.000828284
0.000884819
0.000945028
0.00100914
0.00107738
0.00115002
0.00122732
0.00130955
0.001397
0.00148998
0.0015888
0.00169379
0.00180528
0.0019236
0.00204909
0.00218208
0.00232286
0.00247169
0.00262876
0.00279416
0.00296779
0.00314939
0.00314939
0.00296779
0.00279416
0.00262876
0.00247169
0.00232286
0.00218208
0.00204909
0.0019236
0.00180528
0.00169379
0.0015888
0.00148998
0.001397
0.00130955
0.00122732
0.00115002
0.00107738
0.00100914
0.000945028
0.000884819
0.000828284
0.000775207
0.000725386
0.000678627
0.000634749
0.000593582
0.000554962
0.000518737
0.000484763
0.000452905
0.000423033
0.000395028
0.000368776
0.00034417
0.000321108
0.000299496
0.000279245
0.00026027
0.000242492
0.000225836
0.000210233
0.000195616
0.000181924
0.000169097
0.000157081
0.000145824
0.000135277
0.000125395
0.000116134
0.000107453
9.93139e-05
9.16806e-05
8.45186e-05
7.77959e-05
7.14817e-05
6.55471e-05
5.99648e-05
5.4709e-05
4.97556e-05
4.50821e-05
4.06683e-05
3.64964e-05
3.25522e-05
2.88265e-05
2.53161e-05
2.20253e-05
1.8965e-05
1.61502e-05
1.35946e-05
1.13049e-05
9.27746e-06
7.4994e-06
5.95117e-06
4.61029e-06
3.45403e-06
2.46084e-06
1.61109e-06
8.87228e-07
2.73629e-07
0.00314939
0.00296779
0.00279416
0.00262876
0.00247169
0.00232286
0.00218208
0.00204909
0.0019236
0.00180528
0.00169379
0.0015888
0.00148998
0.001397
0.00130955
0.00122732
0.00115002
0.00107738
0.00100914
0.000945028
0.000884819
0.000828284
0.000775207
0.000725386
0.000678627
0.000634749
0.000593582
0.000554962
0.000518737
0.000484763
0.000452905
0.000423033
0.000395028
0.000368776
0.00034417
0.000321108
0.000299496
0.000279245
0.00026027
0.000242492
0.000225836
0.000210233
0.000195616
0.000181924
0.000169097
0.000157081
0.000145824
0.000135277
0.000125395
0.000116134
0.000107453
9.93139e-05
9.16806e-05
8.45186e-05
7.77959e-05
7.14817e-05
6.55471e-05
5.99648e-05
5.4709e-05
4.97556e-05
4.50821e-05
4.06683e-05
3.64964e-05
3.25522e-05
2.88265e-05
2.53161e-05
2.20253e-05
1.8965e-05
1.61502e-05
1.35946e-05
1.13049e-05
9.27746e-06
7.4994e-06
5.95117e-06
4.61029e-06
3.45403e-06
2.46084e-06
1.61109e-06
8.87228e-07
2.73629e-07
)
;
    }
    sides
    {
        type            empty;
        value           nonuniform List<scalar> 0();
    }
}


// ************************************************************************* //
