/*--------------------------------*- C++ -*----------------------------------*\
| =========                 |                                                 |
| \\      /  F ield         | OpenFOAM: The Open Source CFD Toolbox           |
|  \\    /   O peration     | Version:  2106                                  |
|   \\  /    A nd           | Website:  www.openfoam.com                      |
|    \\/     M anipulation  |                                                 |
\*---------------------------------------------------------------------------*/
FoamFile
{
    version     2.0;
    format      ascii;
    arch        "LSB;label=32;scalar=64";
    class       volTensorField;
    location    "40000";
    object      grad(U);
}
// * * * * * * * * * * * * * * * * * * * * * * * * * * * * * * * * * * * * * //

dimensions      [0 0 -1 0 0 0 0];

internalField   nonuniform List<tensor> 
2560
(
(0 2.04365e-25 -2.31902e-18 17.1331 -2.77073e-07 -0.000139153 0.0248031 -8.35001e-10 -1.86448e-07)
(0 -1.36243e-25 4.6202e-18 17.1332 8.64414e-07 -0.000138221 0.0248031 1.93718e-10 -1.49531e-07)
(9.01208e-18 1.61148e-24 -2.45e-18 17.1306 5.3858e-07 -1.14536e-05 0.0747625 -2.63144e-09 -3.36409e-08)
(-9.01208e-18 -1.07432e-24 -1.09245e-22 17.1306 1.11838e-06 -1.13805e-05 0.0747625 4.24101e-10 -3.34263e-08)
(-2.09061e-17 0 3.62138e-23 17.1281 1.34621e-06 -5.72657e-06 0.102813 -2.58245e-09 -3.46235e-08)
(1.77658e-17 1.05893e-24 0 17.1281 1.27224e-06 -5.69019e-06 0.102813 9.10817e-10 -3.44046e-08)
(1.00692e-17 -1.04375e-24 -3.72745e-23 17.1255 1.36895e-06 -5.80953e-06 0.104292 -2.50388e-09 -3.5637e-08)
(0 1.04375e-24 0 17.1255 1.27012e-06 -5.7727e-06 0.104292 1.31603e-09 -3.54105e-08)
(3.45204e-17 4.11515e-24 -1.31685e-22 17.1229 1.35885e-06 -5.89385e-06 0.105793 -2.52123e-09 -3.66797e-08)
(0 0 0 17.1229 1.29545e-06 -5.85641e-06 0.105793 1.72202e-09 -3.64468e-08)
(2.42277e-17 0 -1.69287e-22 17.1203 1.39006e-06 -5.97935e-06 0.107314 -2.5465e-09 -3.77529e-08)
(1.93822e-16 0 -2.45237e-22 17.1203 1.3203e-06 -5.94129e-06 0.107314 2.16137e-09 -3.75121e-08)
(-3.14602e-17 0 4.06464e-23 17.1176 1.42745e-06 -6.06604e-06 0.108858 -2.58418e-09 -3.88567e-08)
(1.25841e-16 0 -1.26209e-22 17.1176 1.34059e-06 -6.02738e-06 0.108858 2.56842e-09 -3.86095e-08)
(-3.87966e-17 0 4.18367e-23 17.1149 1.46283e-06 -6.15392e-06 0.110423 -2.63731e-09 -3.9993e-08)
(8.90719e-17 0 -3.80293e-24 17.1149 1.36301e-06 -6.11467e-06 0.110423 2.96642e-09 -3.97373e-08)
(4.62386e-17 0 -1.67358e-22 17.1122 1.53938e-06 -6.24311e-06 0.112011 -2.7128e-09 -4.11627e-08)
(0 0 0 17.1122 1.42805e-06 -6.2033e-06 0.112011 3.32903e-09 -4.09009e-08)
(0 0 0 17.1094 1.77411e-06 -6.33358e-06 0.113621 -2.61178e-09 -4.23662e-08)
(-6.4233e-17 -7.65717e-24 0 17.1094 1.64837e-06 -6.29322e-06 0.113621 3.95247e-09 -4.20957e-08)
(-6.14452e-17 0 4.56236e-23 17.1066 1.69161e-06 -6.42383e-06 0.115254 -1.74823e-09 -4.35847e-08)
(0 0 0 17.1066 1.5505e-06 -6.3829e-06 0.115254 5.57682e-09 -4.33075e-08)
(1.94023e-16 -7.43925e-24 -4.69644e-23 17.1038 1.15102e-06 -6.51178e-06 0.11691 -2.15567e-09 -4.48097e-08)
(0 7.43925e-24 0 17.1038 9.97156e-07 -6.47021e-06 0.11691 4.81611e-09 -4.45226e-08)
(0 0 0 17.1009 1.51802e-06 -6.60016e-06 0.11859 -4.92412e-09 -4.60873e-08)
(0 0 0 17.1009 1.35097e-06 -6.55794e-06 0.11859 2.98735e-09 -4.5793e-08)
(-8.50849e-17 0 4.97474e-23 17.0979 2.23254e-06 -6.69379e-06 0.120293 -3.46781e-09 -4.744e-08)
(2.19082e-16 0 7.6781e-23 17.0979 2.048e-06 -6.65092e-06 0.120293 4.94557e-09 -4.71352e-08)
(1.1952e-16 0 0 17.0949 1.89832e-06 -6.79089e-06 0.122021 -1.70841e-09 -4.88236e-08)
(-1.1952e-16 0 0 17.0949 1.692e-06 -6.74741e-06 0.122021 7.18167e-09 -4.8512e-08)
(-1.01416e-16 0 5.27004e-23 17.0918 1.63638e-06 -6.88757e-06 0.123773 -2.9651e-09 -5.023e-08)
(4.05665e-16 0 -1.63665e-22 17.0918 1.40755e-06 -6.84346e-06 0.123773 6.40008e-09 -4.99072e-08)
(0 0 0 17.0887 2.194e-06 -6.98478e-06 0.125549 -3.43079e-09 -5.16823e-08)
(-4.39034e-16 0 1.68447e-22 17.0887 1.98258e-06 -6.94011e-06 0.125549 6.36289e-09 -5.13534e-08)
(0 0 0 17.0855 3.68369e-06 -7.08198e-06 0.127351 -9.30354e-10 -5.31506e-08)
(-4.72882e-16 0 1.73385e-22 17.0855 3.43573e-06 -7.03674e-06 0.127351 9.49215e-09 -5.28098e-08)
(2.25627e-16 5.839e-20 -2.15175e-22 17.0822 -2.12076e-22 -7.16383e-06 0.129177 -1.65436e-24 -5.44342e-08)
(0 -2.68969e-23 0 17.0822 1.25184e-06 -7.11784e-06 0.129177 6.68815e-09 -5.40843e-08)
(1.35511e-16 0 -5.9206e-23 17.0788 -1.96579e-06 -7.21961e-06 0.131029 -4.66717e-09 -5.55636e-08)
(-5.42042e-16 1.32557e-23 1.84009e-22 17.0788 -2.26446e-06 -7.17284e-06 0.131029 6.39944e-09 -5.52008e-08)
(0 0 0 17.0753 2.52662e-06 -7.28296e-06 0.132907 -2.18366e-08 -5.7015e-08)
(0 0 0 17.0754 2.26327e-06 -7.23578e-06 0.132907 -1.01019e-08 -5.66485e-08)
(-1.533e-16 0 6.26237e-23 17.0718 5.61828e-06 -7.38341e-06 0.134811 -1.6227e-09 -5.87779e-08)
(0 0 0 17.0718 5.27916e-06 -7.33582e-06 0.134811 1.08074e-08 -5.8398e-08)
(5.05803e-17 5.01266e-23 6.44404e-23 17.0681 2.11839e-22 -7.49292e-06 0.136741 0 -6.04402e-08)
(0 0 0 17.0681 1.36485e-06 -7.44457e-06 0.136741 1.65604e-08 -6.00506e-08)
(0 0 0 17.0642 1.17043e-06 -7.58843e-06 0.138697 -5.82123e-09 -6.20524e-08)
(-6.86417e-16 0 2.06106e-22 17.0642 8.03999e-07 -7.53936e-06 0.138697 7.11112e-09 -6.16498e-08)
(5.94767e-16 0 -6.82178e-23 17.0602 4.43072e-06 -7.68284e-06 0.14068 -4.98013e-09 -6.37678e-08)
(-4.13813e-16 0 0 17.0602 4.00736e-06 -7.63321e-06 0.14068 8.8544e-09 -6.33578e-08)
(-3.80873e-16 0 1.40424e-22 17.056 1.03281e-05 -7.76894e-06 0.14269 1.0499e-08 -6.53109e-08)
(0 0 0 17.056 9.85545e-06 -7.71852e-06 0.14269 2.43877e-08 -6.48832e-08)
(6.00165e-16 3.36241e-23 -2.17298e-22 17.0516 0 -7.76121e-06 0.144727 0 -6.55045e-08)
(1.60044e-15 4.93002e-23 -4.50715e-22 17.0516 -2.90602e-06 -7.71024e-06 0.144727 3.03141e-08 -6.50732e-08)
(0 0 0 17.047 -1.61913e-05 -7.62908e-06 0.14679 -3.33268e-08 -6.49484e-08)
(8.39246e-16 0 -2.32872e-22 17.047 -1.66916e-05 -7.5778e-06 0.14679 -1.81095e-08 -6.45026e-08)
(6.10301e-16 0 -7.65438e-23 17.0421 8.17394e-06 -7.5748e-06 0.148881 -1.00482e-07 -6.64749e-08)
(-3.90594e-16 0 0 17.0421 7.64455e-06 -7.52284e-06 0.148881 -8.52314e-08 -6.6019e-08)
(-4.59488e-16 0 1.56835e-22 17.0369 1.48049e-05 -7.72179e-06 0.150999 1.55721e-08 -6.94568e-08)
(-1.83795e-15 -1.01695e-18 4.89351e-22 17.0369 1.38265e-05 -7.66901e-06 0.150999 3.11669e-08 -6.89835e-08)
(-2.39924e-16 1.02825e-20 8.06233e-23 17.0314 -5.29396e-23 -7.89316e-06 0.153143 6.61744e-24 -7.15045e-08)
(-1.33918e-15 -2.39607e-24 2.51118e-22 17.0314 -1.70932e-07 -7.84028e-06 0.153143 4.72419e-08 -7.10336e-08)
(0 0 0 17.0256 2.34222e-06 -7.97221e-06 0.155315 -8.16958e-09 -7.2934e-08)
(-1.001e-15 0 2.58152e-22 17.0256 1.49668e-06 -7.91908e-06 0.155315 9.41202e-09 -7.24422e-08)
(0 0 0 17.0194 2.66578e-05 -7.98275e-06 0.157515 2.93371e-08 -7.37943e-08)
(1.04289e-15 0 -2.65643e-22 17.0194 2.59022e-05 -7.92823e-06 0.157515 4.5425e-08 -7.32838e-08)
(-2.71343e-16 1.46349e-36 8.83399e-23 17.0128 -7.32551e-24 -7.70015e-06 0.159741 0 -6.97624e-08)
(0 0 0 17.0128 -1.35999e-05 -7.64586e-06 0.159741 6.57349e-08 -6.92607e-08)
(-2.82115e-16 0 9.1247e-23 17.0057 -5.36508e-05 -7.03558e-06 0.161995 -1.27746e-07 -6.32921e-08)
(0 0 0 17.0057 -5.42976e-05 -6.98291e-06 0.161995 -1.08036e-07 -6.27974e-08)
(-2.93039e-16 0 9.26541e-23 16.9982 2.63105e-05 -6.67733e-06 0.164275 -3.24993e-07 -6.48799e-08)
(-1.52521e-15 1.05218e-23 6.29185e-22 16.9982 2.52587e-05 -6.62258e-06 0.164275 -3.06905e-07 -6.43233e-08)
(3.04118e-16 2.92774e-18 -9.40672e-23 16.9901 1.53149e-05 -6.97399e-06 0.166581 7.45545e-08 -7.09649e-08)
(0 0 0 16.9901 1.83832e-05 -6.9162e-06 0.166581 8.94914e-08 -7.03961e-08)
(3.15354e-16 3.24084e-23 -9.65789e-23 16.9813 -1.69001e-21 -7.28084e-06 0.168913 1.32349e-23 -7.28865e-08)
(0 0 0 16.9813 -1.05602e-05 -7.22398e-06 0.168913 9.53384e-08 -7.23323e-08)
(-3.26748e-16 0 9.91256e-23 16.9719 2.27029e-06 -7.27476e-06 0.171271 -3.54617e-08 -7.2921e-08)
(-3.38088e-16 0 0 16.9719 9.6579e-07 -7.21906e-06 0.171271 -1.53222e-08 -7.23589e-08)
(6.66485e-16 0 0 16.9617 5.61931e-05 -7.08444e-06 0.173652 1.05349e-07 -7.11235e-08)
(-6.66485e-16 0 0 16.9617 5.47898e-05 -7.02796e-06 0.173652 1.21494e-07 -7.0537e-08)
(-3.50018e-16 -1.17549e-38 1.06162e-22 16.9506 -2.03288e-20 -6.15935e-06 0.176057 -1.05879e-22 -5.58336e-08)
(1.40007e-15 2.1622e-22 -3.33862e-22 16.9506 -2.42879e-05 -6.10553e-06 0.176057 1.25265e-07 -5.53102e-08)
(-6.47517e-16 3.8595e-23 0 16.9386 -0.000119845 -4.2953e-06 0.178486 -2.87357e-07 -3.39088e-08)
(2.09511e-15 -3.8595e-23 -3.51141e-22 16.9386 -0.000120987 -4.24447e-06 0.178486 -2.64905e-07 -3.33682e-08)
(3.73943e-16 0 -1.09681e-22 16.9256 4.70158e-05 -3.16544e-06 0.180937 -7.92687e-07 -3.3303e-08)
(-1.49577e-15 0 3.53535e-22 16.9256 4.5187e-05 -3.10986e-06 0.180937 -7.75684e-07 -3.26626e-08)
(3.86155e-16 3.88888e-18 -1.09003e-22 16.9116 5.73607e-05 -3.68642e-06 0.18341 1.83287e-07 -4.62071e-08)
(0 0 0 16.9116 5.62206e-05 -3.62655e-06 0.18341 1.95331e-07 -4.55577e-08)
(-1.01861e-15 0 1.11128e-22 16.8964 -2.14107e-23 -4.35099e-06 0.185903 5.29396e-23 -4.89092e-08)
(6.20072e-16 0 0 16.8964 -1.78064e-05 -4.29475e-06 0.185903 1.73412e-07 -4.83299e-08)
(1.02227e-15 0 -1.13474e-22 16.88 2.07682e-05 -4.25955e-06 0.188415 -5.1014e-08 -4.55184e-08)
(1.03316e-15 0 -6.46435e-23 16.88 1.87137e-05 -4.20462e-06 0.188415 -3.22691e-08 -4.48791e-08)
(6.02425e-16 0 -2.87259e-22 16.8621 0.00010969 -3.42151e-06 0.190944 4.85283e-07 -3.13516e-08)
(1.69524e-15 0 -8.01088e-23 16.8621 0.000107619 -3.36367e-06 0.190944 4.95896e-07 -3.06897e-08)
(-4.36707e-16 2.20852e-34 -9.01181e-21 16.8427 -2.71051e-20 -2.12817e-20 0.193488 2.11758e-22 -1.05879e-22)
(0 0 0 16.8427 -3.96507e-05 -3.22969e-07 0.193488 2.26244e-07 -2.636e-08)
(-4.49778e-16 0 -6.12981e-21 16.8216 -0.000229646 4.00328e-06 0.196045 -1.46452e-06 -2.31746e-08)
(0 0 2.79083e-22 16.8216 -0.00023079 4.3071e-06 0.196045 -1.44589e-06 -2.68964e-08)
(0 0 -2.75083e-22 16.7988 0.000213131 5.76678e-06 0.198615 -1.57712e-06 -7.59352e-08)
(0 0 0 16.7988 0.000211274 5.81344e-06 0.198615 -1.56233e-06 -7.64029e-08)
(-4.76449e-16 4.02554e-18 3.72868e-22 16.7741 -2.7033e-20 3.65447e-06 0.201197 0 -5.94206e-08)
(0 0 0 16.7741 4.70919e-05 3.71144e-06 0.201197 2.80596e-07 -6.00503e-08)
(5.60474e-16 -1.33627e-22 2.67255e-22 16.7476 5.14063e-06 2.32003e-06 0.203786 3.95759e-07 -2.74491e-08)
(-2.52068e-15 0 3.32227e-22 16.7476 3.00515e-06 2.37926e-06 0.203786 4.05252e-07 -2.87226e-08)
(-1.05627e-15 0 1.06584e-22 16.7187 0.000113997 3.8159e-06 0.206379 9.88951e-07 -2.86591e-08)
(2.01533e-15 0 -3.24904e-22 16.7187 0.000112532 3.87348e-06 0.206379 9.98403e-07 -2.94258e-08)
(5.44523e-16 -4.70198e-38 0 16.6876 -2.47635e-22 9.67747e-06 0.208974 3.43662e-38 -6.52168e-08)
(-5.44523e-16 -2.16396e-17 0 16.6876 -5.55466e-05 9.72957e-06 0.208975 3.45622e-07 -6.59262e-08)
(-5.31934e-16 0 6.80003e-23 16.6538 -0.00033103 1.77194e-05 0.211565 -2.78783e-06 -1.76447e-07)
(2.12774e-15 -2.85188e-22 -2.03548e-22 16.6538 -0.000332252 1.77566e-05 0.211565 -2.2655e-06 -1.77033e-07)
(1.09251e-15 0 -7.8344e-23 16.6169 0.000364615 1.97557e-05 0.214144 -2.49199e-06 -2.71668e-07)
(2.18503e-15 -4.05281e-23 -1.10368e-22 16.6169 0.000362529 1.97888e-05 0.214144 -2.40291e-06 -2.7202e-07)
(5.21443e-16 1.09225e-17 0 16.5777 5.40787e-20 1.57833e-05 0.216735 2.11758e-22 -2.34162e-07)
(0 0 0 16.5777 6.34779e-05 1.58307e-05 0.216735 4.12454e-07 -2.34658e-07)
(-5.75439e-16 0 4.60294e-23 16.5358 -7.98036e-05 1.35943e-05 0.219305 7.146e-07 -1.75632e-07)
(0 0 0 16.5358 -8.12918e-05 1.36427e-05 0.219305 7.0857e-07 -1.76369e-07)
(-1.18062e-15 0 7.70816e-23 16.4878 -1.51288e-20 1.54164e-05 0.22179 0 -1.82879e-07)
(2.36125e-15 1.58546e-22 -6.92509e-23 16.4878 -2.28517e-05 1.54501e-05 0.22179 4.51181e-07 -1.83417e-07)
(-6.05357e-16 0 2.12029e-23 16.4348 -5.84141e-05 1.98894e-05 0.22428 3.7089e-07 -2.29876e-07)
(0 0 0 16.4348 -6.13151e-05 1.99212e-05 0.22428 3.73549e-07 -2.30239e-07)
(-6.20563e-16 0 0 16.383 1.28906e-05 2.58673e-05 0.22685 -1.52467e-07 -2.67841e-07)
(2.48225e-15 0 0 16.383 1.11831e-05 2.59046e-05 0.22685 -1.59308e-07 -1.64545e-07)
(-6.35956e-16 -2.35099e-38 0 16.3299 -1.35525e-20 3.25934e-05 0.229356 -1.87305e-38 -1.24722e-07)
(0 0 0 16.3299 -7.33339e-05 3.26284e-05 0.229356 4.87136e-07 -5.99515e-08)
(-3.46714e-16 0 0 16.2698 -0.000203824 3.8514e-05 0.231781 -1.79289e-06 -1.37575e-12)
(-3.5625e-15 0 0 16.2698 -0.000206687 3.85399e-05 0.231781 -1.7984e-06 -1.31143e-12)
(-1.33455e-15 0 0 16.2076 0.000606229 3.88682e-05 0.234274 -2.48896e-06 -4.59882e-13)
(5.33818e-15 -6.27306e-17 0 16.2076 0.000446597 3.88711e-05 0.234274 -2.49841e-06 -3.96387e-13)
(-1.12041e-15 -3.38512e-22 0 16.1466 0.00183367 4.87504e-05 0.236778 1.5579e-05 5.10064e-13)
(-3.66186e-15 -5.20518e-22 -2.76905e-23 16.1466 0.00183598 4.87584e-05 0.236778 1.54954e-05 5.72365e-13)
(-1.61513e-15 3.34739e-21 0 16.0731 0 0.000113868 0.238945 3.38813e-21 2.32828e-12)
(3.71307e-15 2.75533e-16 0 16.0731 -7.12042e-05 0.00011399 0.238945 5.26847e-07 2.38751e-12)
(7.15617e-16 -1.8154e-16 0 15.9809 -0.00118335 0.000127114 0.240925 -8.88307e-06 7.7672e-12)
(0 0 0 15.9809 -0.000890521 0.000119476 0.240925 -6.68488e-06 7.81642e-12)
(0 -4.95845e-17 0 15.8903 0.000941828 -3.03151e-36 0.243166 -7.17282e-06 -6.01677e-07)
(2.92809e-15 -1.98974e-16 3.92484e-18 15.8903 0.00062753 -2.57172e-05 0.243166 -4.77917e-06 -6.57836e-07)
(0 -2.50913e-21 0 15.8132 0.00387278 -0.000154884 0.24558 1.19911e-05 -2.17101e-06)
(2.99425e-15 3.34551e-21 0 15.8132 0.0039196 -0.000106422 0.24558 1.89661e-05 -2.14479e-06)
(-8.64435e-16 -3.29756e-21 5.15244e-23 15.74 0.00051445 9.23905e-07 0.247978 1.90993e-05 -2.53477e-06)
(2.19664e-15 0 -1.03049e-22 15.74 -3.16893e-36 1.41355e-05 0.247978 -3.38813e-21 -2.184e-06)
(0 0 0 15.6558 -0.00160935 5.53627e-05 0.250075 -4.91458e-06 -2.31878e-06)
(0 0 0 15.6558 -0.00233364 1.32807e-05 0.250075 3.01655e-06 -2.15242e-06)
(-1.59859e-15 0 3.18095e-22 15.5511 -0.00134097 -3.9424e-20 0.251839 -9.70777e-06 -2.29212e-06)
(0 0 0 15.5511 -0.00130181 1.65131e-06 0.251839 -1.02046e-05 -2.2404e-06)
(0 0 -2.96043e-22 15.4413 0.00047534 -5.99489e-05 0.25378 -4.42458e-06 -2.76796e-06)
(3.266e-15 -5.69998e-17 2.96043e-22 15.4413 0.000536676 -1.70313e-06 0.25378 -4.39318e-06 -2.53816e-06)
(0 1.55627e-21 2.918e-22 15.345 0.00223882 -2.2675e-05 0.255993 6.36603e-06 -3.15632e-06)
(2.51928e-15 -1.55627e-21 -1.94533e-22 15.345 0.00178423 9.83106e-06 0.255993 1.26695e-05 -2.61254e-06)
(-8.51256e-16 0 0 15.2571 -3.50549e-19 4.89766e-05 0.258231 -8.19793e-37 -3.02008e-06)
(0 0 0 15.2571 -0.000112182 5.14587e-06 0.258231 9.45213e-07 -2.50496e-06)
(8.68867e-16 0 0 15.1688 -0.00150155 4.77324e-05 0.260449 -1.67425e-05 -2.72341e-06)
(-1.58542e-15 5.97505e-17 -4.01443e-20 15.1688 -0.000591108 1.05879e-22 0.260449 -5.05291e-06 -2.52096e-06)
(0 0 0 15.0787 0.000629919 6.78298e-06 0.262648 -5.47788e-06 -2.85872e-06)
(7.8135e-16 0 0 15.0787 0.00069035 -1.08031e-06 0.262648 -5.5902e-06 -2.72643e-06)
(1.5403e-15 1.08363e-17 0 14.9871 -1.35658e-22 -1.56867e-06 0.264831 0 -3.10742e-06)
(0 0 0 14.9871 8.46085e-05 -6.37002e-07 0.264831 6.2385e-07 -2.96226e-06)
(-1.84527e-15 2.87118e-21 0 14.8941 -2.75606e-05 7.48058e-07 0.266998 2.46021e-07 -3.32694e-06)
(1.51823e-15 0 0 14.8941 -3.8071e-05 -4.63931e-07 0.266998 3.00522e-07 -3.18535e-06)
(5.55602e-16 0 0 14.7997 -1.51279e-05 1.03558e-06 0.269142 -6.3828e-08 -3.53912e-06)
(-1.49647e-15 0 0 14.7997 -1.70039e-05 -5.28788e-07 0.269142 -8.48483e-08 -3.40627e-06)
(9.59257e-16 0 0 14.7012 1.0538e-05 6.43384e-07 0.271172 -2.06319e-08 -3.75355e-06)
(-5.31204e-15 0 0 14.7012 8.07811e-06 -5.66005e-07 0.271172 -6.60697e-08 -3.62722e-06)
(0 0 1.73316e-22 14.593 7.38825e-06 3.91238e-07 0.272965 1.29073e-08 -3.96808e-06)
(-3.9113e-15 0 0 14.593 4.99524e-06 -5.92415e-07 0.272965 -4.54377e-08 -3.84733e-06)
(4.36532e-16 3.00927e-36 0 14.4808 -5.9436e-36 -1.74596e-07 0.274838 -2.01265e-09 -4.18227e-06)
(6.53901e-15 0 0 14.4808 -3.68557e-06 -6.0702e-07 0.274838 -6.31096e-08 -4.06619e-06)
(1.01524e-15 0 0 14.3849 2.64735e-05 -3.09748e-07 0.277254 -1.48592e-07 -4.39902e-06)
(4.06097e-15 0 0 14.3849 2.35279e-05 -6.19082e-07 0.277254 -2.14399e-07 -4.28347e-06)
(0 0 0 14.3169 0.000179453 7.1869e-06 0.280222 3.77535e-07 -4.60931e-06)
(0 0 0 14.3169 0.000177481 5.52288e-06 0.280222 2.96207e-07 -4.4974e-06)
(-2.4254e-15 -9.40395e-38 0 14.2621 4.51275e-22 2.00251e-05 0.283197 0 -4.74733e-06)
(4.2124e-15 1.00651e-21 0 14.2621 -3.27573e-05 1.88735e-05 0.283197 1.36242e-06 -4.64926e-06)
(2.80067e-16 0 3.40257e-19 14.1659 -0.000443419 7.35674e-07 0.284547 -4.46478e-07 -4.86165e-06)
(-5.64289e-15 0 -7.06265e-19 14.1659 -0.000466407 -1.69407e-21 0.284547 -4.96638e-07 -4.61461e-06)
(-2.40734e-16 0 7.16732e-22 13.9608 -0.000339988 -7.05093e-20 0.283094 -5.99339e-06 -5.1646e-06)
(5.70329e-15 0 0 13.9608 -0.000416487 -1.02222e-06 0.283094 -6.2764e-06 -4.58414e-06)
(-1.11239e-15 6.01756e-18 0 13.684 -0.000320585 -6.61978e-05 0.281377 -8.23216e-06 -5.41192e-06)
(4.44957e-15 -7.7409e-22 0 13.684 5.88842e-05 -1.50484e-05 0.281377 -7.67006e-06 -4.74706e-06)
(-1.13187e-15 -2.05006e-35 0 13.455 1.45065e-19 -1.55319e-05 0.281737 -1.69407e-21 -5.8283e-06)
(0 0 0 13.455 0.00096938 5.92127e-06 0.281737 -5.07906e-06 -4.67392e-06)
(-1.15124e-15 2.06483e-17 0 13.3014 -2.18901e-19 7.65531e-05 0.28305 -1.69407e-21 -5.57e-06)
(0 0 1.52199e-22 13.3014 0.00103414 2.4731e-05 0.28305 1.12107e-05 -4.62458e-06)
(-1.17072e-15 5.0031e-18 5.74075e-19 13.1671 -0.000376889 0 0.28416 4.05884e-06 -4.89125e-06)
(4.68289e-15 1.86461e-17 4.17064e-19 13.1671 -6.50802e-05 8.62159e-06 0.28416 7.0087e-07 -4.35166e-06)
(1.19036e-15 0 7.73999e-19 13.017 -0.00120191 -3.18827e-05 0.284736 -3.15922e-08 -4.58646e-06)
(0 0 0 13.017 -0.00122957 -2.44198e-05 0.284736 1.82799e-06 -4.39295e-06)
(0 0 -1.45748e-22 12.8561 -0.000126347 -5.30778e-05 0.285299 1.46513e-06 -4.90509e-06)
(0 0 2.91496e-22 12.8561 -0.000141747 -1.93296e-05 0.285299 -8.37714e-06 -4.5482e-06)
(-1.22965e-15 1.1918e-18 0 12.7151 0.000410509 -3.01415e-06 0.286685 -7.12364e-06 -5.00616e-06)
(0 0 1.43659e-22 12.7151 0.000404016 -3.64413e-07 0.286685 -1.33085e-06 -4.56099e-06)
(0 2.6013e-22 -2.832e-22 12.6042 -2.28699e-20 1.11609e-05 0.28856 0 -4.99903e-06)
(9.99423e-15 -5.664e-22 5.664e-22 12.6042 -3.92604e-06 -3.07787e-07 0.28856 9.61346e-07 -4.54208e-06)
(-1.1708e-15 -2.79141e-22 -1.3957e-22 12.5117 7.32464e-05 1.30279e-05 0.290767 -1.30473e-06 -5.0242e-06)
(5.07598e-15 0 1.3957e-22 12.5117 7.07684e-05 -2.47423e-07 0.290767 -1.49832e-06 -4.52574e-06)
(-2.44287e-15 1.99517e-18 2.7514e-22 12.4291 2.6732e-20 2.18729e-05 0.293108 -4.23516e-22 -5.05134e-06)
(-5.15539e-15 -2.50094e-22 -2.7514e-22 12.4291 8.17461e-05 1.5488e-06 0.293108 2.07488e-06 -4.51128e-06)
(9.65963e-16 0 1.35598e-22 12.3285 -0.00021816 2.37837e-05 0.294453 4.83631e-07 -5.04937e-06)
(-6.37348e-15 0 0 12.3285 -0.000221062 1.1316e-05 0.294453 2.91235e-07 -4.47813e-06)
(1.12118e-15 -1.67069e-22 6.94162e-21 12.2203 -3.44455e-05 1.24665e-05 0.296426 -2.7135e-06 -5.04554e-06)
(-1.12118e-15 1.00241e-22 -2.6731e-22 12.2203 -2.8275e-05 1.314e-05 0.296426 -2.87077e-06 -4.35033e-06)
(2.21022e-15 3.7253e-23 4.15174e-19 12.2031 0 -1.5058e-06 0.302226 -2.68436e-07 -4.99791e-06)
(3.18547e-15 -1.48662e-17 -5.96441e-22 12.2031 -0.000150647 -4.74338e-20 0.302226 -4.82881e-07 -4.29781e-06)
(1.36862e-15 4.15524e-21 -2.59702e-22 12.329 -0.000271181 -5.46493e-05 0.311424 -1.30626e-05 -5.26754e-06)
(-2.17854e-15 0 0 12.329 0.000148796 -1.14672e-05 0.311424 -9.99426e-06 -4.47778e-06)
(0 -1.82135e-17 -7.6794e-22 12.5375 0.000963177 -1.2369e-05 0.321683 -6.73448e-06 -5.68021e-06)
(1.11104e-14 7.6794e-21 7.6794e-22 12.5375 0.00177823 7.02108e-06 0.321683 3.27467e-06 -4.42712e-06)
(2.11654e-15 4.03698e-21 0 12.7314 1.94369e-05 5.72585e-05 0.330548 5.52937e-05 -5.65475e-06)
(1.12792e-14 2.43818e-20 1.26156e-22 12.7314 -0.000389911 1.47666e-05 0.330548 8.25786e-06 -4.38302e-06)
(-2.86391e-15 0 0 12.8415 -0.00198718 5.08499e-05 0.336872 -4.29913e-05 -5.02102e-06)
(0 0 0 12.8415 -0.00179882 2.4315e-05 0.336872 -7.44956e-06 -4.23275e-06)
(-1.45462e-15 -7.59209e-19 6.31759e-22 12.8744 0.000236832 -4.79279e-20 0.34198 -3.12178e-06 -4.5523e-06)
(1.1637e-14 -9.268e-21 0 12.8744 0.000247971 -2.59784e-07 0.34198 -1.04516e-05 -4.0609e-06)
(1.47774e-15 0 0 12.8684 0.000965255 -3.31638e-05 0.346415 -1.43373e-07 -4.92566e-06)
(0 0 0 12.8684 0.00139487 -1.69499e-05 0.346415 2.80771e-07 -4.38723e-06)
(-1.50128e-15 0 0 12.8315 -0.00132412 -4.31254e-05 0.349982 4.15e-06 -5.0409e-06)
(0 0 0 12.8315 0 0 0.349982 1.69407e-21 -4.24702e-06)
(4.4403e-16 -7.5117e-21 1.1737e-22 12.7708 0.00696069 0.000398696 0.353193 -8.37108e-06 -5.62998e-06)
(4.13132e-15 -3.00927e-36 -1.1737e-22 12.7708 -8.84177e-21 0.000381739 0.353193 0 -4.87292e-06)
(-1.54919e-15 7.81982e-17 0 12.7019 -0.00224894 0.000779005 0.356359 3.14065e-05 -4.75618e-07)
(6.19675e-15 2.40741e-35 -3.70202e-21 12.7019 -2.60209e-18 0.000745328 0.356359 0 -4.96132e-07)
(-3.14701e-15 0 0 12.628 -0.0342965 0.00116209 0.359319 -7.64807e-05 9.81656e-11)
(0 0 0 12.628 -0.0347958 0.00115939 0.359319 -8.25453e-05 9.55179e-11)
(2.17333e-15 -4.22523e-17 -5.73972e-42 12.5475 0.00408099 0 0.362136 -5.86605e-05 0)
(-3.77137e-15 1.78292e-16 -3.0388e-18 12.5475 0.00422888 -1.60959e-05 0.362136 -6.07864e-05 2.1484e-10)
(3.71732e-15 2.82495e-16 0 12.4558 0.00925981 -0.00143833 0.364456 -7.21709e-05 1.05925e-06)
(-6.49141e-15 0 0 12.4558 0.00935084 -0.00143431 0.364456 -7.28224e-05 1.06283e-06)
(-2.01613e-15 0 0 12.3447 -0.000305804 -0.00048269 0.366125 0.000297796 -3.09335e-06)
(1.02557e-14 0 0 12.3447 -0.000281246 -0.00048295 0.366125 0.000297416 -2.92874e-06)
(-1.93847e-15 0 0 12.2262 -0.00332055 0.000137175 0.367965 -8.7832e-05 -3.58356e-06)
(-3.08072e-15 0 0 12.2262 -0.00332062 0.000137141 0.367965 -8.81215e-05 -3.41894e-06)
(8.14822e-17 0 0 12.1042 -0.00134578 0.000167741 0.369367 3.54772e-05 -1.18605e-06)
(5.01372e-15 0 -8.48714e-22 12.1042 -0.00134784 0.000167751 0.369367 3.51184e-05 -1.02032e-06)
(0 0 5.77042e-19 11.9112 -0.000801992 0 0.366726 -2.4822e-05 -3.63878e-07)
(0 0 0 11.9112 -0.000802962 5.37681e-08 0.366726 -2.51735e-05 -1.97307e-07)
(-1.72923e-15 3.29824e-21 8.10508e-19 11.596 0.000335853 -2.66364e-05 0.360285 -1.06256e-05 -4.28221e-07)
(5.27372e-15 -8.17637e-21 0 11.596 0.000335685 -2.66746e-05 0.360284 -5.71643e-06 -2.61119e-07)
(1.77696e-15 0 0 11.1905 0.00154948 -9.23324e-05 0.351483 -7.48606e-06 -1.49829e-06)
(0 0 0 11.1905 0.00154692 -9.23175e-05 0.351483 -7.87336e-06 -1.32924e-06)
(1.68001e-15 -3.93155e-17 0 10.6999 0.00413385 0.000410501 0.338947 3.13703e-05 -1.98112e-06)
(-8.89237e-15 7.90576e-17 0 10.6999 0.00412058 0.000410415 0.338947 3.10204e-05 -1.81227e-06)
(-3.31187e-15 3.00927e-36 -3.15845e-21 10.059 -1.59983e-18 0.000794335 0.319515 0 -6.67478e-08)
(0 0 0 10.059 -0.000193907 0.00079433 0.319515 3.17396e-06 -6.98129e-08)
(0 -1.65743e-16 1.92593e-34 9.22809 -0.000194662 -6.77626e-21 0.293278 -3.23265e-06 -1.08731e-07)
(0 3.38102e-16 -1.81803e-18 9.22809 -1.34237e-19 -4.93642e-08 0.293278 0 -1.08817e-07)
(1.87922e-15 0 0 8.30491 0.0108125 -0.000799058 0.266208 -0.000148327 4.13884e-07)
(0 0 0 8.3049 0.0108097 -0.000799056 0.266207 -0.000148717 4.1462e-07)
(1.90118e-15 2.66126e-23 0 7.42243 0.00548206 -0.000365365 0.241095 0.000158451 -2.68419e-06)
(-1.58575e-15 0 0 7.42243 0.00548272 -0.000365406 0.241095 0.000158189 -2.50801e-06)
(-3.84263e-15 0 0 6.6001 -0.00367821 0.000128368 0.216549 3.8368e-05 -2.81855e-06)
(7.68526e-15 0 0 6.6001 -0.00367918 0.000128346 0.216549 3.79626e-05 -2.64054e-06)
(-1.94025e-15 0 4.19758e-19 5.75703 -0.00343709 6.77626e-21 0.188395 -8.95688e-06 -8.57298e-07)
(0 0 0 5.75703 -0.00343789 1.30145e-07 0.188395 -9.38728e-06 -6.78325e-07)
(0 0 0 4.93157 0.00134428 -0.00017485 0.163529 -2.87508e-05 -1.8945e-06)
(0 0 -1.44819e-21 4.93157 0.00132954 -0.000174808 0.163529 -2.37315e-05 -1.71324e-06)
(0 3.57244e-17 0 4.33986 1.97493e-20 -0.000141927 0.150741 6.77626e-21 -4.12365e-06)
(-2.99355e-15 -6.54352e-17 -7.13717e-22 4.33986 0.000192857 -0.000141885 0.150741 3.49244e-06 -3.93758e-06)
(-2.95064e-15 -2.81395e-21 -3.51744e-22 4.02703 -0.000822134 2.12281e-06 0.145162 1.68794e-05 -4.55534e-06)
(-2.95064e-15 0 -3.51744e-22 4.02703 -0.000821863 2.10238e-06 0.145162 1.64302e-05 -4.36853e-06)
(0 0 0 3.85985 -0.000463517 5.37043e-05 0.142601 4.70659e-06 -4.19261e-06)
(1.30241e-14 0 -6.93405e-22 3.85985 -0.000464237 5.3753e-05 0.142601 4.23653e-06 -4.00417e-06)
(-4.00317e-15 0 0 3.75782 -0.000348258 4.40387e-05 0.14164 -2.94548e-07 -3.66586e-06)
(8.00634e-15 0 0 3.75781 -0.000351676 4.40121e-05 0.14164 -7.76428e-07 -3.4742e-06)
(2.01159e-15 -7.37586e-18 0 3.67457 0.00127554 0.000146047 0.140344 -9.01841e-06 -3.47752e-06)
(0 0 0 3.67457 0.000992432 0.000145933 0.140344 -9.52417e-06 -3.28633e-06)
(0 1.31878e-32 0 3.57571 -5.10277e-19 0.000367041 0.138036 0 -9.69096e-07)
(-1.08717e-14 -3.34327e-18 0 3.57571 -0.00018588 0.000367047 0.138036 3.61805e-06 -7.75451e-07)
(-2.03148e-15 2.61799e-21 1.43623e-18 3.47206 -0.00406425 3.91778e-05 0.136208 -2.22915e-05 -2.14167e-09)
(8.12593e-15 0 5.74551e-18 3.47206 -0.00406694 3.92084e-05 0.136208 -2.27944e-05 -2.61784e-09)
(0 0 4.69985e-25 3.39151 0.000527407 0 0.135578 -2.61019e-05 -4.1359e-25)
(0 0 -5.16094e-21 3.39151 0.000526529 -8.33986e-08 0.135578 -2.05733e-05 1.67086e-09)
(0 0 0 3.32886 0.0039635 -0.00023065 0.135067 1.18746e-08 -3.91931e-08)
(0 0 0 3.32886 0.00396259 -0.000230653 0.135067 -5.25892e-07 -3.11478e-09)
(-2.06002e-15 -2.58797e-34 0 3.26187 -9.40992e-19 3.58309e-05 0.133984 -2.63627e-36 -1.12915e-06)
(0 0 0 3.26187 1.98183e-06 3.58277e-05 0.133984 3.90422e-06 -9.22055e-07)
(-4.13918e-15 1.85332e-21 9.78602e-20 3.17881 -0.00347752 0 0.132022 -3.51552e-07 -2.72634e-08)
(1.91479e-14 -1.23555e-21 7.76856e-19 3.17881 -0.00347844 1.16171e-07 0.132022 -9.08268e-07 -2.79167e-08)
(0 0 0 3.08305 0.000564893 -0.000248364 0.129719 -3.77932e-05 -9.69788e-07)
(-2.554e-15 0 0 3.08304 0.000563801 -0.000248336 0.129719 -3.2101e-05 -7.56854e-07)
(-2.51739e-15 1.2362e-17 -6.00193e-22 2.99233 0.00185971 -0.000217585 0.128019 2.91148e-05 -4.89433e-06)
(0 0 0 2.99233 0.00185372 -0.000217635 0.128019 2.85288e-05 -4.67773e-06)
(-6.29192e-15 -1.56482e-34 2.95795e-22 2.92027 -2.84401e-19 -3.15031e-05 0.127176 -4.75791e-36 -5.91252e-06)
(1.67785e-14 1.92006e-17 0 2.92027 -0.000191638 -3.15826e-05 0.127176 4.18679e-06 -5.69435e-06)
(0 0 1.88079e-37 2.86496 -0.000749714 0 0.126828 -1.75118e-05 -5.78238e-06)
(1.68494e-14 0 0 2.86496 -0.000750575 -2.1243e-08 0.126828 -1.80876e-05 -5.55998e-06)
(-2.11499e-15 2.40091e-18 0 2.81931 -5.42101e-20 -9.12755e-07 0.126766 0 -6.07334e-06)
(0 -4.84191e-18 -2.87377e-22 2.81931 0.000189702 -8.40217e-07 0.126766 4.26589e-06 -5.84433e-06)
(2.12378e-15 1.69955e-21 0 2.7787 -8.53491e-05 2.46762e-05 0.126811 -1.47098e-06 -5.96971e-06)
(1.69902e-14 -1.69955e-21 0 2.7787 -8.5757e-05 2.46127e-05 0.126811 -2.13466e-06 -5.73837e-06)
(0 0 0 2.74038 3.59624e-21 3.37298e-05 0.126906 0 -5.67287e-06)
(8.53026e-15 8.53652e-22 0 2.74038 -8.685e-05 3.3695e-05 0.126906 4.30193e-06 -5.4395e-06)
(2.14135e-15 5.50394e-22 7.44313e-22 2.70371 -0.000363958 -3.16963e-20 0.127056 -6.15832e-06 -5.36334e-06)
(0 -5.50394e-22 0 2.70371 -0.000365936 -1.55624e-07 0.127056 -6.82778e-06 -5.12575e-06)
(4.30027e-15 0 0 2.66873 0.000224983 -5.26648e-05 0.127266 -1.08485e-05 -5.88988e-06)
(6.32512e-15 0 -5.42505e-22 2.66873 0.000223488 -5.26542e-05 0.127266 -1.15337e-05 -5.64806e-06)
(0 1.40451e-18 0 2.63552 0.000262448 -4.76343e-05 0.127543 4.34501e-06 -6.80397e-06)
(0 -2.85218e-18 -2.67365e-22 2.63552 0.000259053 -4.76542e-05 0.127543 3.63498e-06 -6.55794e-06)
(2.21067e-15 1.00899e-21 1.31766e-22 2.60416 -3.66216e-20 -1.08721e-05 0.127896 8.47033e-22 -7.22495e-06)
(8.67092e-15 1.0641e-21 0 2.60416 -4.9836e-05 -1.0879e-05 0.127896 4.63417e-06 -6.97512e-06)
(2.1741e-15 0 0 2.57474 -0.000160244 4.58216e-06 0.128331 1.4912e-06 -7.25831e-06)
(2.17899e-15 0 0 2.57474 -0.00016206 4.60698e-06 0.128331 7.68009e-07 -7.00362e-06)
(2.18538e-15 1.02413e-21 0 2.54738 6.38953e-05 9.27691e-06 0.12886 -1.04468e-06 -7.30641e-06)
(1.08893e-14 0 0 2.54738 6.19635e-05 9.25232e-06 0.12886 -1.80726e-06 -7.04713e-06)
(0 1.19597e-21 5.41576e-20 2.5222 -5.42101e-20 2.9821e-06 0.129492 0 -7.22281e-06)
(8.77692e-15 0 1.07109e-19 2.5222 -0.000105972 3.00782e-06 0.129492 3.53137e-06 -6.95995e-06)
(-2.20311e-15 0 0 2.49934 -1.30597e-05 -8.47033e-22 0.130241 -6.854e-06 -7.30974e-06)
(-8.81244e-15 -2.48746e-22 0 2.49934 -1.49379e-05 -1.99226e-07 0.130241 -7.63143e-06 -7.04114e-06)
(-4.26875e-15 -1.96145e-21 -1.22591e-22 2.47895 0.0003917 1.51304e-05 0.13112 3.13219e-06 -7.63123e-06)
(0 0 0 2.47895 0.000389759 1.51253e-05 0.13112 2.31938e-06 -7.35721e-06)
(-2.22098e-15 0 0 2.46122 -7.11508e-20 7.74371e-05 0.132146 8.35239e-52 -7.12396e-06)
(-8.88393e-15 -4.36833e-21 0 2.46122 -1.63548e-05 7.74353e-05 0.132146 5.08378e-06 -6.84542e-06)
(0 0 5.17088e-19 2.44634 -0.000753648 4.80757e-06 0.133335 7.94044e-07 -5.7675e-06)
(1.99819e-15 0 0 2.44634 -0.000756588 4.43691e-06 0.133335 -3.92972e-08 -5.48292e-06)
(0 0 -9.40395e-38 2.43456 0.000439728 -8.22784e-36 0.13471 -2.58243e-05 -5.87933e-06)
(1.98819e-14 -2.15268e-21 0 2.43456 0.000441273 -5.06465e-07 0.13471 -2.47897e-05 -5.59225e-06)
(-2.24818e-15 7.52316e-37 0 2.42612 0 1.75126e-07 0.136292 8.15717e-37 -6.08394e-06)
(8.9927e-15 8.55966e-21 0 2.42612 0.000159183 1.4275e-07 0.136292 4.95363e-06 -5.78427e-06)
(-3.827e-15 -2.50906e-19 1.71721e-21 2.42132 -0.000218287 -3.03069e-20 0.138108 -6.18414e-06 -6.1869e-06)
(-9.02952e-15 4.98982e-18 -1.69251e-19 2.42132 1.72338e-20 -6.29312e-07 0.138108 1.69407e-21 -5.88851e-06)
(-3.77215e-15 5.16344e-21 1.51576e-19 2.4205 -1.0842e-19 -6.0622e-05 0.140189 -1.24022e-05 -6.43829e-06)
(0 -7.78632e-18 -3.48016e-19 2.4205 -0.000139858 -5.82813e-05 0.140189 -1.29572e-05 -6.11409e-06)
(-1.44201e-15 -1.63287e-17 -1.10808e-22 2.42403 0.000316327 3.55712e-06 0.142568 -2.60324e-06 -8.99593e-06)
(9.10429e-15 0 0 2.42402 -2.62915e-20 3.61874e-06 0.142568 -8.47033e-22 -8.69498e-06)