/*--------------------------------*- C++ -*----------------------------------*\
| =========                 |                                                 |
| \\      /  F ield         | OpenFOAM: The Open Source CFD Toolbox           |
|  \\    /   O peration     | Version:  2106                                  |
|   \\  /    A nd           | Website:  www.openfoam.com                      |
|    \\/     M anipulation  |                                                 |
\*---------------------------------------------------------------------------*/
FoamFile
{
    version     2.0;
    format      ascii;
    arch        "LSB;label=32;scalar=64";
    class       volScalarField;
    location    "40000";
    object      nut;
}
// * * * * * * * * * * * * * * * * * * * * * * * * * * * * * * * * * * * * * //

dimensions      [0 2 -1 0 0 0 0];

internalField   nonuniform List<scalar> 
2560
(
6.81707e-18
6.81707e-18
1.17588e-15
1.17588e-15
2.48916e-14
2.48917e-14
1.94556e-13
1.94556e-13
8.99011e-13
8.99012e-13
3.02991e-12
3.02991e-12
8.29339e-12
8.2934e-12
1.96036e-11
1.96037e-11
4.15688e-11
4.15688e-11
8.10817e-11
8.10817e-11
1.48029e-10
1.48029e-10
2.56138e-10
2.56138e-10
4.23972e-10
4.23972e-10
6.761e-10
6.761e-10
1.04447e-09
1.04447e-09
1.56997e-09
1.56997e-09
2.30429e-09
2.30429e-09
3.31199e-09
3.31199e-09
4.67294e-09
4.67294e-09
6.48502e-09
6.48502e-09
8.8673e-09
8.8673e-09
1.19635e-08
1.19635e-08
1.59462e-08
1.59462e-08
2.10209e-08
2.10209e-08
2.74317e-08
2.74317e-08
3.54662e-08
3.54662e-08
4.54625e-08
4.54625e-08
5.78159e-08
5.78159e-08
7.29868e-08
7.29868e-08
9.15091e-08
9.15091e-08
1.14e-07
1.14e-07
1.41171e-07
1.41171e-07
1.73836e-07
1.73837e-07
2.12932e-07
2.12932e-07
2.59521e-07
2.59521e-07
3.14816e-07
3.14817e-07
3.80191e-07
3.80191e-07
4.57199e-07
4.57199e-07
5.47589e-07
5.47589e-07
6.53331e-07
6.53331e-07
7.76631e-07
7.76631e-07
9.19954e-07
9.19954e-07
1.08605e-06
1.08605e-06
1.27797e-06
1.27797e-06
1.4991e-06
1.4991e-06
1.75318e-06
1.75318e-06
2.04432e-06
2.04432e-06
2.37705e-06
2.37705e-06
2.7563e-06
2.7563e-06
3.18747e-06
3.18747e-06
3.67641e-06
3.67641e-06
4.22945e-06
4.22945e-06
4.8534e-06
4.85341e-06
5.55561e-06
5.55561e-06
6.34387e-06
6.34387e-06
7.2265e-06
7.2265e-06
8.21227e-06
8.21227e-06
9.3104e-06
9.31041e-06
1.05306e-05
1.05306e-05
1.18828e-05
1.18828e-05
1.33773e-05
1.33773e-05
1.50248e-05
1.50248e-05
1.68361e-05
1.68361e-05
1.88221e-05
1.88221e-05
2.09937e-05
2.09937e-05
2.3362e-05
2.3362e-05
2.59377e-05
2.59377e-05
2.87304e-05
2.87304e-05
3.17497e-05
3.17498e-05
3.50057e-05
3.50057e-05
3.85074e-05
3.85074e-05
4.22636e-05
4.22636e-05
4.62812e-05
4.62812e-05
5.05662e-05
5.05662e-05
5.51249e-05
5.51249e-05
5.99628e-05
5.99628e-05
6.50845e-05
6.50845e-05
7.04937e-05
7.04937e-05
7.6193e-05
7.6193e-05
8.21841e-05
8.21841e-05
8.84679e-05
8.84679e-05
9.50442e-05
9.50442e-05
0.000101912
0.000101912
0.000109067
0.000109067
0.000116508
0.000116508
0.000124233
0.000124233
0.00013224
0.00013224
0.000140526
0.000140526
0.00014908
0.00014908
0.000157887
0.000157887
0.000166936
0.000166936
0.000176222
0.000176222
0.000185739
0.000185739
0.000195479
0.000195479
0.000205436
0.000205436
0.000215601
0.000215601
0.000225972
0.000225972
0.000236542
0.000236542
0.00024731
0.00024731
0.000258269
0.000258269
0.000269414
0.000269414
0.00028074
0.00028074
0.000292255
0.000292255
0.000303969
0.000303969
0.00031589
0.00031589
0.000328022
0.000328022
0.000340361
0.000340361
0.000352904
0.000352904
0.000365645
0.000365645
0.000378575
0.000378575
0.000391687
0.000391687
0.000404971
0.000404971
0.000418419
0.00041842
0.000432023
0.000432023
0.000445769
0.000445769
0.000459646
0.000459646
0.000473644
0.000473644
0.00048775
0.00048775
0.000501939
0.000501939
0.000516187
0.000516187
0.000530468
0.000530468
0.000544757
0.000544757
0.000559024
0.000559025
0.000573255
0.000573255
0.000587451
0.000587451
0.000601628
0.000601628
0.000615816
0.000615816
0.000630052
0.000630052
0.000644376
0.000644376
0.000658811
0.000658811
0.000673367
0.000673367
0.000688047
0.000688047
0.000702853
0.000702853
0.000717789
0.000717789
0.000732856
0.000732856
0.000748058
0.000748058
0.000763396
0.000763396
0.000778868
0.000778868
0.000794478
0.000794478
0.00081023
0.00081023
0.00082613
0.00082613
0.000842179
0.000842179
0.000858377
0.000858377
0.000874722
0.000874722
0.000891211
0.000891211
0.000907841
0.000907841
0.000924608
0.000924608
0.000941508
0.000941508
0.000958537
0.000958537
0.00097569
0.00097569
0.000992961
0.000992961
0.00101034
0.00101034
0.00102783
0.00102783
0.00104542
0.00104542
0.0010631
0.0010631
0.00108085
0.00108085
0.00109868
0.00109868
0.00111657
0.00111657
0.0011345
0.0011345
0.00115246
0.00115246
0.00117044
0.00117044
0.00118841
0.00118841
0.00120635
0.00120635
0.00122425
0.00122425
0.00124208
0.00124208
0.00125983
0.00125983
0.00127753
0.00127753
0.00129523
0.00129523
0.00131303
0.00131303
0.00133106
0.00133106
0.0013494
0.0013494
0.00136816
0.00136816
0.00138739
0.00138739
0.00140711
0.00140711
0.00142733
0.00142733
0.00144804
0.00144804
0.00146924
0.00146924
0.00149091
0.00149091
0.00151304
0.00151304
0.00153562
0.00153562
0.00155864
0.00155865
0.0015821
0.0015821
0.00160598
0.00160598
0.00163026
0.00163027
0.00165494
0.00165494
0.00168
0.00168
0.00170541
0.00170541
0.00173118
0.00173118
0.00175729
0.00175729
0.00178372
0.00178372
0.00181048
0.00181048
0.00183754
0.00183754
0.00186491
0.00186491
0.00189257
0.00189257
0.00192052
0.00192052
0.00194874
0.00194874
0.00197724
0.00197724
0.00200601
0.00200601
0.00203504
0.00203504
0.00206432
0.00206432
0.00209385
0.00209385
0.00212363
0.00212363
0.00215364
0.00215364
0.00218389
0.00218389
0.00221436
0.00221436
0.00224506
0.00224506
0.00227597
0.00227597
0.0023071
0.0023071
0.00233842
0.00233842
0.00236995
0.00236995
0.00240166
0.00240166
0.00243356
0.00243356
0.00246564
0.00246564
0.00249788
0.00249789
0.00253029
0.00253029
0.00256284
0.00256284
0.00259554
0.00259554
0.00262835
0.00262836
0.00266129
0.00266129
0.00269432
0.00269432
0.00272743
0.00272743
0.00276061
0.00276061
0.00279383
0.00279383
0.0028271
0.0028271
0.0028604
0.0028604
0.00289375
0.00289376
0.00292721
0.00292721
0.00296079
0.00296079
0.00299453
0.00299453
0.00302845
0.00302845
0.00306253
0.00306253
0.00309676
0.00309676
0.00313111
0.00313111
0.00316556
0.00316556
0.00320009
0.00320009
0.00323468
0.00323468
0.00326931
0.00326931
0.00330395
0.00330395
0.0033386
0.0033386
0.00337322
0.00337322
0.00340781
0.00340781
0.00344234
0.00344234
0.00347679
0.00347679
0.00351115
0.00351115
0.00354539
0.00354539
0.0035795
0.0035795
0.00361345
0.00361345
0.00364723
0.00364723
0.00368082
0.00368082
0.00371419
0.00371419
0.00374731
0.00374731
0.00378018
0.00378018
0.00381276
0.00381276
0.00384503
0.00384503
0.00387697
0.00387697
0.00390855
0.00390855
0.00393973
0.00393973
0.00397051
0.00397051
0.00400083
0.00400083
0.00403069
0.00403069
0.00406004
0.00406004
0.00408885
0.00408885
0.00411709
0.00411709
0.00414473
0.00414473
0.00417173
0.00417173
0.00419805
0.00419805
0.00422365
0.00422365
0.0042485
0.0042485
0.00427255
0.00427255
0.00429576
0.00429576
0.00431809
0.00431809
0.00433948
0.00433948
0.0043599
0.0043599
0.00437929
0.00437929
0.0043976
0.0043976
0.00441478
0.00441478
0.00443078
0.00443078
0.00444554
0.00444554
0.00445901
0.00445901
0.00447114
0.00447114
0.00448188
0.00448188
0.00449117
0.00449117
0.00449898
0.00449898
0.00450528
0.00450528
0.00451005
0.00451005
0.00451329
0.00451329
0.00451502
0.00451502
0.00451533
0.00451533
0.00451434
0.00451434
0.00451226
0.00451226
0.0045094
0.0045094
0.00450623
0.00450623
0.00450344
0.00450344
0.00450197
0.00450197
0.00450287
0.00450287
0.00450769
0.00450769
0.00451643
0.00451643
0.00452722
0.00452722
0.00453509
0.00453509
0.00453813
0.00453813
0.00453693
0.00453693
0.00453334
0.00453334
0.00452923
0.00452923
0.00452502
0.00452502
0.00451947
0.00451947
0.00451146
0.00451146
0.00450084
0.00450084
0.00448814
0.00448814
0.00447434
0.00447434
0.00446028
0.00446028
0.00444632
0.00444632
0.00443273
0.00443273
0.00441985
0.00441985
0.00440794
0.00440794
0.00439726
0.00439726
0.00438795
0.00438795
0.00438016
0.00438016
0.00437401
0.00437401
0.00436975
0.00436975
0.0043675
0.0043675
6.81745e-18
6.81745e-18
1.17594e-15
1.17594e-15
2.4893e-14
2.4893e-14
1.94567e-13
1.94567e-13
8.99062e-13
8.99061e-13
3.03008e-12
3.03008e-12
8.29386e-12
8.29386e-12
1.96047e-11
1.96047e-11
4.15711e-11
4.15711e-11
8.10862e-11
8.10862e-11
1.48038e-10
1.48038e-10
2.56153e-10
2.56153e-10
4.23995e-10
4.23995e-10
6.76138e-10
6.76138e-10
1.04453e-09
1.04453e-09
1.57006e-09
1.57006e-09
2.30442e-09
2.30442e-09
3.31218e-09
3.31218e-09
4.6732e-09
4.6732e-09
6.48538e-09
6.48538e-09
8.8678e-09
8.8678e-09
1.19642e-08
1.19642e-08
1.59471e-08
1.59471e-08
2.10221e-08
2.10221e-08
2.74332e-08
2.74332e-08
3.54681e-08
3.54681e-08
4.5465e-08
4.5465e-08
5.78191e-08
5.78191e-08
7.29908e-08
7.29908e-08
9.15142e-08
9.15142e-08
1.14006e-07
1.14006e-07
1.41178e-07
1.41178e-07
1.73846e-07
1.73846e-07
2.12943e-07
2.12943e-07
2.59535e-07
2.59535e-07
3.14834e-07
3.14834e-07
3.80212e-07
3.80212e-07
4.57224e-07
4.57224e-07
5.47619e-07
5.47619e-07
6.53367e-07
6.53367e-07
7.76673e-07
7.76673e-07
9.20004e-07
9.20004e-07
1.08611e-06
1.08611e-06
1.27804e-06
1.27804e-06
1.49918e-06
1.49918e-06
1.75327e-06
1.75327e-06
2.04443e-06
2.04443e-06
2.37717e-06
2.37717e-06
2.75645e-06
2.75645e-06
3.18764e-06
3.18764e-06
3.6766e-06
3.6766e-06
4.22966e-06
4.22966e-06
4.85365e-06
4.85365e-06
5.55588e-06
5.55588e-06
6.34418e-06
6.34418e-06
7.22685e-06
7.22685e-06
8.21266e-06
8.21266e-06
9.31085e-06
9.31085e-06
1.05311e-05
1.05311e-05
1.18834e-05
1.18834e-05
1.33779e-05
1.33779e-05
1.50254e-05
1.50254e-05
1.68368e-05
1.68368e-05
1.88229e-05
1.88229e-05
2.09946e-05
2.09946e-05
2.33629e-05
2.33629e-05
2.59387e-05
2.59387e-05
2.87315e-05
2.87315e-05
3.1751e-05
3.1751e-05
3.5007e-05
3.5007e-05
3.85088e-05
3.85088e-05
4.22651e-05
4.22651e-05
4.62828e-05
4.62828e-05
5.05679e-05
5.05679e-05
5.51267e-05
5.51267e-05
5.99647e-05
5.99647e-05
6.50865e-05
6.50865e-05
7.04957e-05
7.04957e-05
7.61951e-05
7.61951e-05
8.21863e-05
8.21863e-05
8.84702e-05
8.84702e-05
9.50465e-05
9.50465e-05
0.000101914
0.000101914
0.00010907
0.000109069
0.000116511
0.000116511
0.000124236
0.000124236
0.000132243
0.000132243
0.000140529
0.000140529
0.000149083
0.000149083
0.00015789
0.00015789
0.000166939
0.000166939
0.000176225
0.000176225
0.000185741
0.000185741
0.000195482
0.000195482
0.000205439
0.000205439
0.000215604
0.000215604
0.000225975
0.000225975
0.000236545
0.000236545
0.000247313
0.000247313
0.000258272
0.000258272
0.000269417
0.000269417
0.000280743
0.000280743
0.000292258
0.000292258
0.000303972
0.000303972
0.000315894
0.000315894
0.000328025
0.000328025
0.000340365
0.000340365
0.000352908
0.000352908
0.000365649
0.000365649
0.000378579
0.000378579
0.000391691
0.000391691
0.000404976
0.000404976
0.000418425
0.000418425
0.000432029
0.000432029
0.000445777
0.000445777
0.000459656
0.000459656
0.000473655
0.000473655
0.000487764
0.000487764
0.000501954
0.000501954
0.000516204
0.000516204
0.000530486
0.000530486
0.000544776
0.000544776
0.000559045
0.000559045
0.000573276
0.000573277
0.000587473
0.000587473
0.000601649
0.000601649
0.000615838
0.000615838
0.000630074
0.000630074
0.000644399
0.000644399
0.000658835
0.000658835
0.000673391
0.000673391
0.000688072
0.000688072
0.000702878
0.000702878
0.000717814
0.000717814
0.000732882
0.000732882
0.000748085
0.000748084
0.000763422
0.000763422
0.000778895
0.000778895
0.000794505
0.000794505
0.000810258
0.000810258
0.000826158
0.000826158
0.000842207
0.000842207
0.000858405
0.000858405
0.00087475
0.00087475
0.000891239
0.000891239
0.000907869
0.000907869
0.000924636
0.000924636
0.000941537
0.000941537
0.000958566
0.000958566
0.000975719
0.000975719
0.00099299
0.00099299
0.00101037
0.00101037
0.00102786
0.00102786
0.00104545
0.00104545
0.00106313
0.00106313
0.00108089
0.00108089
0.00109871
0.00109871
0.0011166
0.0011166
0.00113453
0.00113453
0.00115249
0.00115249
0.00117047
0.00117047
0.00118844
0.00118844
0.00120639
0.00120639
0.00122428
0.00122428
0.00124211
0.00124211
0.00125987
0.00125987
0.00127757
0.00127757
0.00129527
0.00129527
0.00131307
0.00131307
0.00133109
0.00133109
0.00134944
0.00134944
0.00136819
0.00136819
0.00138743
0.00138743
0.00140715
0.00140715
0.00142737
0.00142737
0.00144808
0.00144808
0.00146928
0.00146928
0.00149095
0.00149095
0.00151309
0.00151309
0.00153567
0.00153567
0.00155869
0.00155869
0.00158215
0.00158215
0.00160603
0.00160603
0.00163031
0.00163031
0.00165499
0.00165499
0.00168004
0.00168005
0.00170546
0.00170546
0.00173123
0.00173123
0.00175734
0.00175734
0.00178378
0.00178378
0.00181053
0.00181053
0.0018376
0.0018376
0.00186497
0.00186497
0.00189263
0.00189263
0.00192058
0.00192058
0.00194881
0.00194881
0.00197731
0.00197731
0.00200607
0.00200607
0.0020351
0.0020351
0.00206439
0.00206439
0.00209392
0.00209392
0.00212369
0.0021237
0.00215371
0.00215371
0.00218396
0.00218396
0.00221443
0.00221443
0.00224513
0.00224513
0.00227604
0.00227604
0.00230717
0.00230716
0.00233849
0.00233849
0.00237002
0.00237002
0.00240174
0.00240173
0.00243364
0.00243363
0.00246571
0.00246571
0.00249796
0.00249796
0.00253036
0.00253036
0.00256292
0.00256292
0.00259561
0.00259561
0.00262843
0.00262843
0.00266137
0.00266137
0.0026944
0.0026944
0.00272751
0.00272751
0.00276069
0.00276069
0.00279391
0.00279391
0.00282718
0.00282718
0.00286048
0.00286048
0.00289384
0.00289384
0.00292729
0.00292729
0.00296088
0.00296088
0.00299462
0.00299462
0.00302853
0.00302853
0.00306262
0.00306262
0.00309685
0.00309685
0.0031312
0.0031312
0.00316565
0.00316565
0.00320018
0.00320018
0.00323477
0.00323477
0.0032694
0.0032694
0.00330405
0.00330405
0.0033387
0.0033387
0.00337332
0.00337332
0.00340791
0.00340791
0.00344244
0.00344244
0.00347689
0.00347689
0.00351125
0.00351125
0.00354549
0.00354549
0.0035796
0.0035796
0.00361356
0.00361356
0.00364734
0.00364734
0.00368092
0.00368092
0.00371429
0.00371429
0.00374742
0.00374742
0.00378029
0.00378029
0.00381287
0.00381287
0.00384514
0.00384514
0.00387707
0.00387707
0.00390865
0.00390865
0.00393984
0.00393984
0.00397061
0.00397061
0.00400094
0.00400094
0.00403079
0.00403079
0.00406014
0.00406014
0.00408895
0.00408895
0.00411719
0.00411719
0.00414483
0.00414483
0.00417182
0.00417182
0.00419814
0.00419814
0.00422374
0.00422374
0.00424859
0.00424859
0.00427264
0.00427264
0.00429584
0.00429584
0.00431817
0.00431817
0.00433956
0.00433956
0.00435997
0.00435997
0.00437936
0.00437936
0.00439766
0.00439766
0.00441484
0.00441484
0.00443084
0.00443084
0.00444559
0.00444559
0.00445906
0.00445906
0.00447118
0.00447118
0.00448191
0.00448191
0.0044912
0.0044912
0.004499
0.004499
0.00450529
0.00450529
0.00451005
0.00451005
0.00451328
0.00451328
0.00451501
0.00451501
0.00451531
0.00451531
0.00451432
0.00451432
0.00451224
0.00451224
0.00450939
0.00450939
0.00450623
0.00450623
0.00450346
0.00450346
0.00450211
0.00450211
0.00450316
0.00450316
0.00450815
0.00450815
0.00451707
0.00451707
0.00452775
0.00452775
0.00453551
0.00453551
0.00453846
0.00453846
0.00453718
0.00453718
0.00453354
0.00453354
0.00452939
0.00452939
0.00452516
0.00452516
0.00451956
0.00451956
0.00451151
0.00451151
0.00450083
0.00450083
0.00448811
0.00448811
0.00447426
0.00447426
0.00446017
0.00446017
0.00444616
0.00444616
0.00443254
0.00443254
0.00441958
0.00441958
0.00440757
0.00440757
0.00439699
0.00439699
0.00438778
0.00438778
0.00438005
0.00438005
0.00437397
0.00437397
0.00436973
0.00436973
0.00436746
0.00436746
0.00436747
0.00436747
0.00436969
0.00436969
0.00437392
0.00437392
0.00437998
0.00437998
0.00438771
0.00438771
0.00439693
0.00439693
0.00440752
0.00440752
0.00441953
0.00441953
0.0044325
0.0044325
0.00444613
0.00444613
0.00446014
0.00446014
0.00447423
0.00447423
0.00448808
0.00448808
0.00450081
0.00450081
0.00451148
0.00451148
0.00451953
0.00451953
0.00452514
0.00452514
0.00452937
0.00452937
0.00453352
0.00453352
0.00453716
0.00453716
0.00453844
0.00453844
0.00453549
0.00453549
0.00452773
0.00452773
0.00451705
0.00451705
0.00450813
0.00450813
0.00450314
0.00450314
0.00450209
0.00450209
0.00450344
0.00450344
0.00450622
0.00450622
0.00450937
0.00450937
0.00451222
0.00451222
0.00451431
0.00451431
0.0045153
0.0045153
0.004515
0.004515
0.00451326
0.00451326
0.00451003
0.00451003
0.00450528
0.00450528
0.00449899
0.00449899
0.00449118
0.00449118
0.0044819
0.0044819
0.00447117
0.00447117
0.00445905
0.00445905
0.00444558
0.00444558
0.00443083
0.00443083
0.00441483
0.00441483
0.00439766
0.00439766
0.00437935
0.00437935
0.00435996
0.00435996
0.00433955
0.00433955
0.00431816
0.00431816
0.00429584
0.00429584
0.00427263
0.00427263
0.00424858
0.00424858
0.00422373
0.00422373
0.00419813
0.00419813
0.00417181
0.00417181
0.00414482
0.00414482
0.00411718
0.00411718
0.00408894
0.00408894
0.00406013
0.00406013
0.00403078
0.00403078
0.00400093
0.00400093
0.0039706
0.0039706
0.00393983
0.00393983
0.00390864
0.00390864
0.00387707
0.00387707
0.00384513
0.00384513
0.00381286
0.00381286
0.00378028
0.00378028
0.00374741
0.00374741
0.00371429
0.00371429
0.00368092
0.00368092
0.00364733
0.00364733
0.00361355
0.00361355
0.0035796
0.0035796
0.00354549
0.00354549
0.00351125
0.00351125
0.00347689
0.00347689
0.00344243
0.00344243
0.00340791
0.00340791
0.00337332
0.00337332
0.00333869
0.00333869
0.00330405
0.00330405
0.0032694
0.0032694
0.00323477
0.00323477
0.00320018
0.00320018
0.00316565
0.00316565
0.0031312
0.0031312
0.00309684
0.00309684
0.00306261
0.00306261
0.00302853
0.00302853
0.00299462
0.00299462
0.00296087
0.00296087
0.00292729
0.00292729
0.00289384
0.00289384
0.00286048
0.00286048
0.00282718
0.00282718
0.00279391
0.00279391
0.00276069
0.00276069
0.00272751
0.00272751
0.0026944
0.0026944
0.00266137
0.00266137
0.00262843
0.00262843
0.00259561
0.00259561
0.00256292
0.00256292
0.00253037
0.00253036
0.00249796
0.00249796
0.00246571
0.00246571
0.00243364
0.00243364
0.00240174
0.00240174
0.00237002
0.00237002
0.00233849
0.00233849
0.00230717
0.00230717
0.00227604
0.00227604
0.00224513
0.00224513
0.00221443
0.00221443
0.00218396
0.00218396
0.00215371
0.00215371
0.0021237
0.0021237
0.00209392
0.00209392
0.00206439
0.00206439
0.0020351
0.0020351
0.00200608
0.00200608
0.00197731
0.00197731
0.00194881
0.00194881
0.00192058
0.00192058
0.00189263
0.00189263
0.00186497
0.00186497
0.0018376
0.0018376
0.00181053
0.00181053
0.00178378
0.00178378
0.00175734
0.00175734
0.00173123
0.00173123
0.00170546
0.00170546
0.00168005
0.00168005
0.00165499
0.00165499
0.00163031
0.00163031
0.00160603
0.00160603
0.00158215
0.00158215
0.00155869
0.00155869
0.00153567
0.00153567
0.00151309
0.00151309
0.00149095
0.00149095
0.00146928
0.00146928
0.00144809
0.00144809
0.00142737
0.00142738
0.00140715
0.00140715
0.00138743
0.00138743
0.0013682
0.0013682
0.00134944
0.00134944
0.0013311
0.0013311
0.00131307
0.00131307
0.00129527
0.00129527
0.00127757
0.00127757
0.00125987
0.00125987
0.00124212
0.00124212
0.00122429
0.00122429
0.00120639
0.00120639
0.00118844
0.00118844
0.00117047
0.00117047
0.0011525
0.0011525
0.00113453
0.00113453
0.0011166
0.0011166
0.00109872
0.00109872
0.00108089
0.00108089
0.00106313
0.00106313
0.00104545
0.00104545
0.00102786
0.00102786
0.00101038
0.00101038
0.000992992
0.000992992
0.000975721
0.000975721
0.000958568
0.000958568
0.000941539
0.000941539
0.000924638
0.000924638
0.000907871
0.000907871
0.000891241
0.000891241
0.000874751
0.000874751
0.000858406
0.000858406
0.000842208
0.000842208
0.000826159
0.000826159
0.000810259
0.000810259
0.000794507
0.000794507
0.000778897
0.000778897
0.000763424
0.000763424
0.000748086
0.000748086
0.000732884
0.000732884
0.000717816
0.000717816
0.00070288
0.00070288
0.000688073
0.000688073
0.000673393
0.000673393
0.000658836
0.000658836
0.0006444
0.0006444
0.000630076
0.000630076
0.00061584
0.00061584
0.000601651
0.000601651
0.000587475
0.000587475
0.000573279
0.000573279
0.000559047
0.000559047
0.000544779
0.000544779
0.000530489
0.000530489
0.000516207
0.000516207
0.000501957
0.000501957
0.000487767
0.000487767
0.000473658
0.000473658
0.000459659
0.000459659
0.00044578
0.00044578
0.000432033
0.000432033
0.000418428
0.000418428
0.000404979
0.000404979
0.000391694
0.000391694
0.000378583
0.000378583
0.000365652
0.000365652
0.000352911
0.000352911
0.000340368
0.000340368
0.000328029
0.000328029
0.000315897
0.000315897
0.000303975
0.000303975
0.000292261
0.000292261
0.000280746
0.000280746
0.000269419
0.000269419
0.000258275
0.000258275
0.000247315
0.000247315
0.000236548
0.000236548
0.000225977
0.000225977
0.000215606
0.000215606
0.00020544
0.00020544
0.000195484
0.000195484
0.000185743
0.000185743
0.000176226
0.000176226
0.00016694
0.00016694
0.00015789
0.00015789
0.000149084
0.000149084
0.000140529
0.000140529
0.000132244
0.000132243
0.000124236
0.000124236
0.000116511
0.000116511
0.00010907
0.00010907
0.000101914
0.000101914
9.50467e-05
9.50467e-05
8.84704e-05
8.84703e-05
8.21865e-05
8.21865e-05
7.61952e-05
7.61952e-05
7.04958e-05
7.04958e-05
6.50866e-05
6.50866e-05
5.99648e-05
5.99648e-05
5.51268e-05
5.51268e-05
5.0568e-05
5.0568e-05
4.62829e-05
4.62829e-05
4.22652e-05
4.22652e-05
3.85089e-05
3.85089e-05
3.5007e-05
3.50071e-05
3.17511e-05
3.17511e-05
2.87316e-05
2.87316e-05
2.59388e-05
2.59388e-05
2.3363e-05
2.3363e-05
2.09947e-05
2.09947e-05
1.8823e-05
1.8823e-05
1.68369e-05
1.68369e-05
1.50256e-05
1.50256e-05
1.33781e-05
1.33781e-05
1.18835e-05
1.18835e-05
1.05312e-05
1.05312e-05
9.31095e-06
9.31095e-06
8.21276e-06
8.21276e-06
7.22694e-06
7.22694e-06
6.34426e-06
6.34426e-06
5.55596e-06
5.55596e-06
4.85372e-06
4.85372e-06
4.22972e-06
4.22972e-06
3.67666e-06
3.67666e-06
3.18769e-06
3.18769e-06
2.75649e-06
2.75649e-06
2.37721e-06
2.37721e-06
2.04446e-06
2.04446e-06
1.7533e-06
1.7533e-06
1.49921e-06
1.49921e-06
1.27806e-06
1.27806e-06
1.08613e-06
1.08613e-06
9.20021e-07
9.20021e-07
7.76688e-07
7.76688e-07
6.53379e-07
6.53379e-07
5.47629e-07
5.47629e-07
4.57232e-07
4.57232e-07
3.80219e-07
3.80219e-07
3.1484e-07
3.1484e-07
2.5954e-07
2.5954e-07
2.12948e-07
2.12948e-07
1.73849e-07
1.73849e-07
1.41181e-07
1.41181e-07
1.14009e-07
1.14009e-07
9.1516e-08
9.1516e-08
7.29923e-08
7.29923e-08
5.78203e-08
5.78203e-08
4.5466e-08
4.5466e-08
3.54689e-08
3.54689e-08
2.74338e-08
2.74338e-08
2.10225e-08
2.10225e-08
1.59474e-08
1.59474e-08
1.19644e-08
1.19644e-08
8.86797e-09
8.86797e-09
6.48551e-09
6.48551e-09
4.67329e-09
4.67329e-09
3.31224e-09
3.31224e-09
2.30446e-09
2.30446e-09
1.57009e-09
1.57009e-09
1.04455e-09
1.04455e-09
6.76152e-10
6.76152e-10
4.24004e-10
4.24004e-10
2.56158e-10
2.56158e-10
1.48041e-10
1.48041e-10
8.10877e-11
8.10877e-11
4.1572e-11
4.1572e-11
1.96052e-11
1.96052e-11
8.29402e-12
8.29402e-12
3.03014e-12
3.03014e-12
8.9908e-13
8.9908e-13
1.9457e-13
1.9457e-13
2.48934e-14
2.48934e-14
1.17596e-15
1.17596e-15
6.81748e-18
6.81748e-18
0.00436742
0.00436742
0.00436968
0.00436968
0.00437396
0.00437396
0.00438011
0.00438011
0.00438791
0.00438791
0.00439721
0.00439721
0.0044079
0.0044079
0.00441982
0.00441982
0.0044327
0.0044327
0.00444629
0.00444629
0.00446025
0.00446025
0.00447431
0.00447431
0.00448811
0.00448811
0.00450081
0.00450081
0.00451143
0.00451143
0.00451945
0.00451945
0.00452501
0.00452501
0.00452921
0.00452921
0.00453333
0.00453333
0.00453692
0.00453692
0.00453812
0.00453812
0.00453507
0.00453507
0.00452721
0.00452721
0.00451642
0.00451642
0.00450768
0.00450768
0.00450286
0.00450286
0.00450195
0.00450195
0.00450343
0.00450343
0.00450622
0.00450622
0.00450939
0.00450939
0.00451225
0.00451225
0.00451433
0.00451433
0.00451532
0.00451532
0.00451501
0.00451501
0.00451328
0.00451328
0.00451004
0.00451004
0.00450527
0.00450527
0.00449897
0.00449897
0.00449116
0.00449116
0.00448187
0.00448187
0.00447113
0.00447113
0.004459
0.004459
0.00444553
0.00444553
0.00443077
0.00443077
0.00441477
0.00441477
0.00439759
0.00439759
0.00437928
0.00437928
0.00435989
0.00435989
0.00433947
0.00433947
0.00431808
0.00431808
0.00429575
0.00429575
0.00427254
0.00427254
0.00424849
0.00424849
0.00422364
0.00422364
0.00419804
0.00419804
0.00417172
0.00417172
0.00414472
0.00414472
0.00411709
0.00411709
0.00408884
0.00408884
0.00406003
0.00406003
0.00403068
0.00403068
0.00400083
0.00400083
0.0039705
0.0039705
0.00393973
0.00393973
0.00390854
0.00390854
0.00387697
0.00387697
0.00384503
0.00384503
0.00381276
0.00381276
0.00378018
0.00378018
0.00374731
0.00374731
0.00371418
0.00371418
0.00368082
0.00368082
0.00364723
0.00364723
0.00361345
0.00361345
0.0035795
0.0035795
0.00354539
0.00354539
0.00351115
0.00351115
0.00347679
0.00347679
0.00344234
0.00344234
0.00340781
0.00340781
0.00337322
0.00337322
0.0033386
0.0033386
0.00330395
0.00330395
0.00326931
0.00326931
0.00323468
0.00323468
0.00320009
0.00320009
0.00316556
0.00316556
0.00313111
0.00313111
0.00309676
0.00309676
0.00306253
0.00306253
0.00302845
0.00302845
0.00299453
0.00299453
0.00296079
0.00296079
0.00292721
0.00292721
0.00289376
0.00289376
0.0028604
0.0028604
0.0028271
0.0028271
0.00279383
0.00279383
0.00276061
0.00276061
0.00272743
0.00272743
0.00269432
0.00269432
0.00266129
0.00266129
0.00262836
0.00262836
0.00259554
0.00259554
0.00256285
0.00256285
0.00253029
0.00253029
0.00249789
0.00249789
0.00246564
0.00246564
0.00243357
0.00243357
0.00240167
0.00240167
0.00236995
0.00236995
0.00233843
0.00233843
0.0023071
0.0023071
0.00227598
0.00227598
0.00224506
0.00224506
0.00221437
0.00221437
0.00218389
0.00218389
0.00215365
0.00215365
0.00212363
0.00212363
0.00209386
0.00209386
0.00206432
0.00206432
0.00203504
0.00203504
0.00200601
0.00200601
0.00197725
0.00197725
0.00194875
0.00194875
0.00192052
0.00192052
0.00189257
0.00189257
0.00186491
0.00186491
0.00183754
0.00183754
0.00181048
0.00181048
0.00178372
0.00178372
0.00175729
0.00175729
0.00173118
0.00173118
0.00170541
0.00170541
0.00168
0.00168
0.00165494
0.00165494
0.00163027
0.00163027
0.00160598
0.00160598
0.0015821
0.0015821
0.00155865
0.00155865
0.00153562
0.00153562
0.00151304
0.00151304
0.00149091
0.00149091
0.00146924
0.00146924
0.00144804
0.00144804
0.00142733
0.00142733
0.00140711
0.00140711
0.00138739
0.00138739
0.00136816
0.00136816
0.0013494
0.0013494
0.00133106
0.00133106
0.00131303
0.00131303
0.00129523
0.00129523
0.00127753
0.00127753
0.00125983
0.00125983
0.00124208
0.00124208
0.00122425
0.00122425
0.00120636
0.00120636
0.00118841
0.00118841
0.00117044
0.00117044
0.00115246
0.00115246
0.0011345
0.0011345
0.00111657
0.00111657
0.00109868
0.00109868
0.00108085
0.00108085
0.0010631
0.0010631
0.00104542
0.00104542
0.00102783
0.00102783
0.00101034
0.00101034
0.000992961
0.000992961
0.000975691
0.00097569
0.000958538
0.000958538
0.000941509
0.000941509
0.000924609
0.000924609
0.000907842
0.000907842
0.000891212
0.000891212
0.000874723
0.000874723
0.000858378
0.000858378
0.00084218
0.00084218
0.000826131
0.000826131
0.000810231
0.000810231
0.000794479
0.000794479
0.000778869
0.000778869
0.000763397
0.000763396
0.000748059
0.000748059
0.000732857
0.000732857
0.00071779
0.000717789
0.000702854
0.000702854
0.000688048
0.000688048
0.000673368
0.000673368
0.000658812
0.000658812
0.000644376
0.000644376
0.000630052
0.000630052
0.000615816
0.000615816
0.000601628
0.000601628
0.000587452
0.000587452
0.000573257
0.000573256
0.000559026
0.000559026
0.000544758
0.000544758
0.00053047
0.00053047
0.000516189
0.000516189
0.000501941
0.000501941
0.000487753
0.000487753
0.000473646
0.000473646
0.000459648
0.000459648
0.000445771
0.000445771
0.000432025
0.000432025
0.000418422
0.000418422
0.000404974
0.000404974
0.000391689
0.000391689
0.000378578
0.000378578
0.000365648
0.000365647
0.000352907
0.000352907
0.000340364
0.000340364
0.000328024
0.000328024
0.000315893
0.000315893
0.000303971
0.000303971
0.000292258
0.000292257
0.000280742
0.000280742
0.000269416
0.000269416
0.000258271
0.000258271
0.000247312
0.000247312
0.000236544
0.000236544
0.000225974
0.000225974
0.000215603
0.000215603
0.000205437
0.000205437
0.000195481
0.00019548
0.00018574
0.00018574
0.000176223
0.000176223
0.000166937
0.000166937
0.000157887
0.000157887
0.000149081
0.000149081
0.000140526
0.000140526
0.000132241
0.000132241
0.000124233
0.000124233
0.000116508
0.000116508
0.000109067
0.000109067
0.000101912
0.000101912
9.50442e-05
9.50442e-05
8.84679e-05
8.84679e-05
8.21841e-05
8.21841e-05
7.61929e-05
7.61929e-05
7.04936e-05
7.04936e-05
6.50845e-05
6.50845e-05
5.99628e-05
5.99628e-05
5.51249e-05
5.51249e-05
5.05662e-05
5.05662e-05
4.62812e-05
4.62812e-05
4.22636e-05
4.22636e-05
3.85074e-05
3.85074e-05
3.50057e-05
3.50057e-05
3.17498e-05
3.17498e-05
2.87304e-05
2.87304e-05
2.59377e-05
2.59377e-05
2.3362e-05
2.3362e-05
2.09937e-05
2.09937e-05
1.88221e-05
1.88221e-05
1.68362e-05
1.68361e-05
1.50249e-05
1.50248e-05
1.33774e-05
1.33774e-05
1.18829e-05
1.18829e-05
1.05307e-05
1.05307e-05
9.31049e-06
9.31048e-06
8.21235e-06
8.21234e-06
7.22657e-06
7.22657e-06
6.34394e-06
6.34394e-06
5.55567e-06
5.55567e-06
4.85347e-06
4.85347e-06
4.2295e-06
4.2295e-06
3.67646e-06
3.67646e-06
3.18752e-06
3.18752e-06
2.75634e-06
2.75634e-06
2.37708e-06
2.37708e-06
2.04435e-06
2.04435e-06
1.75321e-06
1.7532e-06
1.49912e-06
1.49912e-06
1.27799e-06
1.27799e-06
1.08607e-06
1.08607e-06
9.1997e-07
9.1997e-07
7.76645e-07
7.76644e-07
6.53343e-07
6.53343e-07
5.47599e-07
5.47599e-07
4.57207e-07
4.57206e-07
3.80198e-07
3.80198e-07
3.14822e-07
3.14822e-07
2.59526e-07
2.59526e-07
2.12935e-07
2.12935e-07
1.7384e-07
1.7384e-07
1.41173e-07
1.41173e-07
1.14002e-07
1.14002e-07
9.15108e-08
9.15108e-08
7.29882e-08
7.29881e-08
5.7817e-08
5.7817e-08
4.54634e-08
4.54633e-08
3.54669e-08
3.54668e-08
2.74322e-08
2.74322e-08
2.10213e-08
2.10213e-08
1.59465e-08
1.59465e-08
1.19637e-08
1.19637e-08
8.86747e-09
8.86746e-09
6.48514e-09
6.48514e-09
4.67303e-09
4.67302e-09
3.31206e-09
3.31205e-09
2.30433e-09
2.30433e-09
1.57e-09
1.57e-09
1.04449e-09
1.04449e-09
6.76113e-10
6.76113e-10
4.2398e-10
4.2398e-10
2.56143e-10
2.56143e-10
1.48032e-10
1.48032e-10
8.10831e-11
8.10831e-11
4.15696e-11
4.15696e-11
1.9604e-11
1.9604e-11
8.29355e-12
8.29354e-12
3.02996e-12
3.02996e-12
8.99028e-13
8.99028e-13
1.94559e-13
1.94559e-13
2.4892e-14
2.4892e-14
1.17589e-15
1.17589e-15
6.81709e-18