/*--------------------------------*- C++ -*----------------------------------*\
| =========                 |                                                 |
| \\      /  F ield         | OpenFOAM: The Open Source CFD Toolbox           |
|  \\    /   O peration     | Version:  2106                                  |
|   \\  /    A nd           | Website:  www.openfoam.com                      |
|    \\/     M anipulation  |                                                 |
\*---------------------------------------------------------------------------*/
FoamFile
{
    version     2.0;
    format      ascii;
    arch        "LSB;label=32;scalar=64";
    class       volSymmTensorField;
    location    "40000";
    object      turbulenceProperties:R;
}
// * * * * * * * * * * * * * * * * * * * * * * * * * * * * * * * * * * * * * //

dimensions      [0 2 -2 0 0 0 0];

internalField   nonuniform List<symmTensor> 
2560
(
(6.92684e-12 -1.16798e-16 -1.69084e-19 6.92684e-12 9.48624e-22 6.92684e-12)
(6.92684e-12 -1.16798e-16 -1.69084e-19 6.92684e-12 9.42262e-22 6.92684e-12)
(2.07871e-10 -2.01435e-14 -8.79115e-17 2.07871e-10 1.34711e-20 2.07871e-10)
(2.07871e-10 -2.01435e-14 -8.79115e-17 2.07871e-10 1.33816e-20 2.07871e-10)
(1.49159e-09 -4.26346e-13 -2.55918e-15 1.49159e-09 1.42608e-19 1.49159e-09)
(1.49159e-09 -4.26346e-13 -2.55918e-15 1.49159e-09 1.41616e-19 1.49159e-09)
(5.49748e-09 -3.33187e-12 -2.02906e-14 5.49748e-09 1.13077e-18 5.49748e-09)
(5.49748e-09 -3.33187e-12 -2.02907e-14 5.49748e-09 1.12286e-18 5.49748e-09)
(1.43977e-08 -1.53937e-11 -9.51087e-14 1.43977e-08 5.3009e-18 1.43977e-08)
(1.43977e-08 -1.53937e-11 -9.51087e-14 1.43977e-08 5.26343e-18 1.43977e-08)
(3.08162e-08 -5.18729e-11 -3.25153e-13 3.08162e-08 1.81246e-17 3.08162e-08)
(3.08162e-08 -5.1873e-11 -3.25153e-13 3.08162e-08 1.7995e-17 3.08162e-08)
(5.78108e-08 -1.41963e-10 -9.02799e-13 5.78108e-08 5.03295e-17 5.78108e-08)
(5.78109e-08 -1.41963e-10 -9.028e-13 5.78109e-08 4.99662e-17 5.78109e-08)
(9.88785e-08 -3.35515e-10 -2.16469e-12 9.88785e-08 1.20691e-16 9.88785e-08)
(9.88785e-08 -3.35515e-10 -2.16469e-12 9.88785e-08 1.19812e-16 9.88785e-08)
(1.57969e-07 -7.11333e-10 -4.65615e-12 1.57969e-07 2.59631e-16 1.57969e-07)
(1.5797e-07 -7.11333e-10 -4.65615e-12 1.5797e-07 2.57726e-16 1.5797e-07)
(2.39508e-07 -1.38726e-09 -9.21257e-12 2.39508e-07 5.13749e-16 2.39508e-07)
(2.39508e-07 -1.38726e-09 -9.21257e-12 2.39508e-07 5.09944e-16 2.39508e-07)
(3.48417e-07 -2.53228e-09 -1.7061e-11 3.48417e-07 9.51175e-16 3.48417e-07)
(3.48418e-07 -2.53228e-09 -1.7061e-11 3.48418e-07 9.44032e-16 3.48418e-07)
(4.90146e-07 -4.38093e-09 -2.99452e-11 4.90146e-07 1.66847e-15 4.90146e-07)
(4.90147e-07 -4.38093e-09 -2.99452e-11 4.90147e-07 1.65604e-15 4.90147e-07)
(6.70702e-07 -7.25028e-09 -5.02788e-11 6.70702e-07 2.80037e-15 6.70702e-07)
(6.70702e-07 -7.25028e-09 -5.02788e-11 6.70702e-07 2.77912e-15 6.70702e-07)
(8.96681e-07 -1.15599e-08 -8.13304e-11 8.96681e-07 4.52802e-15 8.96681e-07)
(8.96681e-07 -1.15599e-08 -8.13304e-11 8.96681e-07 4.49335e-15 8.96681e-07)
(1.17531e-06 -1.78551e-08 -1.27447e-10 1.17531e-06 7.09465e-15 1.17531e-06)
(1.17531e-06 -1.78551e-08 -1.27447e-10 1.17531e-06 7.03995e-15 1.17531e-06)
(1.51448e-06 -2.68337e-08 -1.9432e-10 1.51448e-06 1.08179e-14 1.51448e-06)
(1.51448e-06 -2.68337e-08 -1.9432e-10 1.51448e-06 1.0734e-14 1.51448e-06)
(1.92277e-06 -3.93773e-08 -2.89302e-10 1.92277e-06 1.61029e-14 1.92277e-06)
(1.92277e-06 -3.93773e-08 -2.89302e-10 1.92277e-06 1.59774e-14 1.92277e-06)
(2.40955e-06 -5.6587e-08 -4.21785e-10 2.40955e-06 2.34586e-14 2.40955e-06)
(2.40955e-06 -5.65871e-08 -4.21785e-10 2.40955e-06 2.32742e-14 2.40955e-06)
(2.98492e-06 -7.98241e-08 -6.03638e-10 2.98492e-06 3.34761e-14 2.98492e-06)
(2.98493e-06 -7.98241e-08 -6.03638e-10 2.98493e-06 3.323e-14 2.98493e-06)
(3.65988e-06 -1.10757e-07 -8.49728e-10 3.65988e-06 4.68496e-14 3.65988e-06)
(3.65988e-06 -1.10757e-07 -8.49729e-10 3.65988e-06 4.64745e-14 3.65988e-06)
(4.44628e-06 -1.51412e-07 -1.17853e-09 4.44628e-06 6.47738e-14 4.44628e-06)
(4.44628e-06 -1.51412e-07 -1.17853e-09 4.44628e-06 6.42514e-14 4.44628e-06)
(5.35692e-06 -2.04239e-07 -1.61282e-09 5.35692e-06 8.8351e-14 5.35692e-06)
(5.35692e-06 -2.04239e-07 -1.61282e-09 5.35692e-06 8.7633e-14 5.35692e-06)
(6.4056e-06 -2.72171e-07 -2.1805e-09 6.4056e-06 1.19484e-13 6.4056e-06)
(6.4056e-06 -2.72171e-07 -2.1805e-09 6.4056e-06 1.18448e-13 6.4056e-06)
(7.6072e-06 -3.58706e-07 -2.91555e-09 7.6072e-06 1.59638e-13 7.6072e-06)
(7.6072e-06 -3.58706e-07 -2.91555e-09 7.6072e-06 1.58335e-13 7.6072e-06)
(8.97764e-06 -4.67989e-07 -3.85909e-09 8.97764e-06 2.1089e-13 8.97764e-06)
(8.97765e-06 -4.67989e-07 -3.85909e-09 8.97765e-06 2.09149e-13 8.97765e-06)
(1.0534e-05 -6.0491e-07 -5.06067e-09 1.0534e-05 2.75162e-13 1.0534e-05)
(1.0534e-05 -6.0491e-07 -5.06067e-09 1.0534e-05 2.72881e-13 1.0534e-05)
(1.22947e-05 -7.75206e-07 -6.57963e-09 1.22947e-05 3.52844e-13 1.22947e-05)
(1.22948e-05 -7.75207e-07 -6.57963e-09 1.22948e-05 3.49149e-13 1.22948e-05)
(1.42794e-05 -9.85585e-07 -8.48682e-09 1.42794e-05 4.43009e-13 1.42794e-05)
(1.42794e-05 -9.85585e-07 -8.48682e-09 1.42794e-05 4.39164e-13 1.42794e-05)
(1.6509e-05 -1.24385e-06 -1.08664e-08 1.6509e-05 5.60194e-13 1.6509e-05)
(1.6509e-05 -1.24385e-06 -1.08664e-08 1.6509e-05 5.55288e-13 1.6509e-05)
(1.90058e-05 -1.55903e-06 -1.38177e-08 1.90058e-05 7.05189e-13 1.90058e-05)
(1.90059e-05 -1.55903e-06 -1.38178e-08 1.90059e-05 6.98932e-13 1.90059e-05)
(2.17939e-05 -1.94158e-06 -1.74584e-08 2.17939e-05 8.99821e-13 2.17939e-05)
(2.17939e-05 -1.94158e-06 -1.74584e-08 2.17939e-05 8.88408e-13 2.17939e-05)
(2.48986e-05 -2.40351e-06 -2.1926e-08 2.48986e-05 1.12659e-12 2.48986e-05)
(2.48986e-05 -2.40351e-06 -2.1926e-08 2.48986e-05 1.11661e-12 2.48986e-05)
(2.83468e-05 -2.95859e-06 -2.73818e-08 2.83468e-05 1.38259e-12 2.83468e-05)
(2.83468e-05 -2.95859e-06 -2.73818e-08 2.83468e-05 1.37032e-12 2.83468e-05)
(3.21672e-05 -3.62256e-06 -3.4014e-08 3.21672e-05 1.6396e-12 3.21672e-05)
(3.21672e-05 -3.62256e-06 -3.4014e-08 3.21672e-05 1.61405e-12 3.21672e-05)
(3.63902e-05 -4.41335e-06 -4.2041e-08 3.63903e-05 1.85903e-12 3.63902e-05)
(3.63902e-05 -4.41335e-06 -4.2041e-08 3.63903e-05 1.84025e-12 3.63902e-05)
(4.10481e-05 -5.35131e-06 -5.17163e-08 4.10481e-05 2.20445e-12 4.10481e-05)
(4.10481e-05 -5.35131e-06 -5.17164e-08 4.10481e-05 2.18152e-12 4.10481e-05)
(4.61746e-05 -6.45947e-06 -6.33326e-08 4.61746e-05 2.6231e-12 4.61746e-05)
(4.61747e-05 -6.45948e-06 -6.33326e-08 4.61747e-05 2.59546e-12 4.61747e-05)
(5.18059e-05 -7.76384e-06 -7.72268e-08 5.18059e-05 3.32879e-12 5.18059e-05)
(5.18059e-05 -7.76385e-06 -7.72268e-08 5.18059e-05 3.25921e-12 5.18059e-05)
(5.79794e-05 -9.29365e-06 -9.3786e-08 5.79794e-05 4.003e-12 5.79794e-05)
(5.79794e-05 -9.29365e-06 -9.3786e-08 5.79794e-05 3.96147e-12 5.79794e-05)
(6.4735e-05 -1.10816e-05 -1.13452e-07 6.4735e-05 4.55966e-12 6.4735e-05)
(6.47351e-05 -1.10816e-05 -1.13452e-07 6.4735e-05 4.51221e-12 6.47351e-05)
(7.21142e-05 -1.31644e-05 -1.36732e-07 7.21142e-05 4.78354e-12 7.21142e-05)
(7.21142e-05 -1.31644e-05 -1.36732e-07 7.21143e-05 4.64446e-12 7.21142e-05)
(8.01604e-05 -1.55828e-05 -1.64199e-07 8.01606e-05 4.21583e-12 8.01604e-05)
(8.01604e-05 -1.55828e-05 -1.64199e-07 8.01606e-05 4.14842e-12 8.01604e-05)
(8.8919e-05 -1.83821e-05 -1.96506e-07 8.89189e-05 4.29872e-12 8.8919e-05)
(8.8919e-05 -1.83821e-05 -1.96506e-07 8.89189e-05 4.21989e-12 8.8919e-05)
(9.84369e-05 -2.16125e-05 -2.34392e-07 9.84367e-05 4.47689e-12 9.84369e-05)
(9.84369e-05 -2.16125e-05 -2.34392e-07 9.84367e-05 4.385e-12 9.84369e-05)
(0.000108763 -2.53294e-05 -2.78686e-07 0.000108763 6.52256e-12 0.000108763)
(0.000108763 -2.53294e-05 -2.78687e-07 0.000108763 6.17829e-12 0.000108763)
(0.000119948 -2.95936e-05 -3.30324e-07 0.000119948 7.55718e-12 0.000119948)
(0.000119948 -2.95936e-05 -3.30324e-07 0.000119948 7.42801e-12 0.000119948)
(0.000132044 -3.44715e-05 -3.90351e-07 0.000132044 6.00258e-12 0.000132044)
(0.000132044 -3.44716e-05 -3.90351e-07 0.000132044 5.86265e-12 0.000132044)
(0.000145105 -4.00359e-05 -4.59931e-07 0.000145105 5.00842e-26 0.000145105)
(0.000145105 -4.0036e-05 -4.59931e-07 0.000145105 2.2992e-13 0.000145105)
(0.000159184 -4.63655e-05 -5.4036e-07 0.000159186 -6.99759e-12 0.000159184)
(0.000159184 -4.63655e-05 -5.4036e-07 0.000159186 -7.88638e-12 0.000159184)
(0.00017434 -5.35456e-05 -6.33081e-07 0.000174338 -1.33544e-11 0.00017434)
(0.00017434 -5.35456e-05 -6.33081e-07 0.000174338 -1.35503e-11 0.00017434)
(0.000190624 -6.16686e-05 -7.39682e-07 0.000190624 -1.34353e-11 0.000190624)
(0.000190624 -6.16686e-05 -7.39682e-07 0.000190624 -1.46764e-11 0.000190624)
(0.000208096 -7.08329e-05 -8.61901e-07 0.000208096 -1.14863e-11 0.000208096)
(0.000208096 -7.08329e-05 -8.61902e-07 0.000208096 -1.17769e-11 0.000208096)
(0.000226811 -8.11428e-05 -1.00164e-06 0.00022681 -2.33199e-11 0.000226811)
(0.000226811 -8.11429e-05 -1.00164e-06 0.00022681 -2.36452e-11 0.000226811)
(0.000246825 -9.27097e-05 -1.16098e-06 0.000246825 -5.37642e-11 0.000246825)
(0.000246825 -9.27097e-05 -1.16098e-06 0.000246825 -5.59738e-11 0.000246825)
(0.000268191 -0.000105649 -1.34214e-06 0.000268195 -9.47239e-11 0.000268191)
(0.000268191 -0.000105649 -1.34214e-06 0.000268195 -9.82736e-11 0.000268191)
(0.000290967 -0.000120082 -1.54751e-06 0.000290962 -1.24756e-10 0.000290967)
(0.000290968 -0.000120082 -1.54751e-06 0.000290962 -1.25639e-10 0.000290968)
(0.000315195 -0.00013614 -1.77989e-06 0.000315195 -1.29617e-10 0.000315195)
(0.000315195 -0.00013614 -1.77989e-06 0.000315194 -1.33394e-10 0.000315195)
(0.000340926 -0.000153955 -2.04182e-06 0.000340928 -1.33221e-10 0.000340926)
(0.000340926 -0.000153955 -2.04182e-06 0.000340928 -1.33616e-10 0.000340926)
(0.000368207 -0.000173626 -2.33558e-06 0.000368207 -1.62344e-10 0.000368207)
(0.000368206 -0.000173626 -2.33558e-06 0.000368207 -1.6745e-10 0.000368206)
(0.000397071 -0.000195291 -2.66508e-06 0.000397072 -2.40749e-10 0.000397071)
(0.000397071 -0.000195292 -2.66508e-06 0.000397073 -2.41159e-10 0.000397071)
(0.000427546 -0.00021916 -3.03465e-06 0.000427545 -3.43996e-10 0.000427546)
(0.000427546 -0.000219161 -3.03465e-06 0.000427546 -3.44404e-10 0.000427546)
(0.000459659 -0.000245353 -3.44603e-06 0.000459659 -4.89708e-10 0.000459659)
(0.000459658 -0.000245353 -3.44603e-06 0.00045966 -4.97553e-10 0.000459658)
(0.000493437 -0.00027392 -3.90228e-06 0.000493444 -6.1824e-10 0.000493437)
(0.000493437 -0.00027392 -3.90228e-06 0.000493444 -6.18583e-10 0.000493437)
(0.000528904 -0.000305061 -4.40952e-06 0.000528881 -6.84732e-10 0.000528904)
(0.000528902 -0.000305061 -4.40952e-06 0.000528885 -6.84609e-10 0.000528902)
(0.00056606 -0.000338977 -4.97084e-06 0.000565983 -1.35051e-09 0.00056606)
(0.00056606 -0.000338978 -4.97085e-06 0.000565983 -1.34892e-09 0.00056606)
(0.000604864 -0.0003755 -5.58222e-06 0.000604864 -2.66019e-09 0.000604864)
(0.000604863 -0.0003755 -5.58222e-06 0.000604866 -2.67534e-09 0.000604863)
(0.000645358 -0.000414507 -6.24902e-06 0.00064542 -3.06663e-09 0.000645358)
(0.000645364 -0.000414507 -6.24902e-06 0.00064541 -2.92553e-09 0.000645364)
(0.000687539 -0.000456535 -6.98624e-06 0.000687485 2.06078e-10 0.000687539)
(0.000687533 -0.000456535 -6.98624e-06 0.000687497 8.76172e-10 0.000687533)
(0.000731324 -0.000502065 -7.7971e-06 0.000731078 4.53683e-09 0.000731324)
(0.000731325 -0.000502065 -7.79711e-06 0.000731076 2.77669e-09 0.000731326)
(0.000776529 -0.00055099 -8.68064e-06 0.000776493 -7.00925e-10 0.00077653)
(0.000776518 -0.00055099 -8.68064e-06 0.000776518 -4.94823e-10 0.000776518)
(0.000823275 -0.000602865 -9.62976e-06 0.000823399 -1.94263e-09 0.000823275)
(0.000823257 -0.000602865 -9.62976e-06 0.000823436 -6.27567e-10 0.000823257)
(0.000871561 -0.000657247 -1.06436e-05 0.000871675 4.10285e-10 0.000871562)
(0.000871563 -0.000657247 -1.06436e-05 0.000871673 3.61493e-10 0.000871563)
(0.000921291 -0.000714644 -1.17452e-05 0.000921247 2.97928e-09 0.000921291)
(0.000921293 -0.000714644 -1.17452e-05 0.000921244 2.82145e-10 0.000921294)
(0.000972322 -0.000775939 -1.29446e-05 0.000972096 8.24684e-10 0.000972323)
(0.000972307 -0.000775939 -1.29446e-05 0.000972127 -1.13777e-09 0.000972307)
(0.00102444 -0.000841049 -1.4235e-05 0.00102444 -2.69983e-09 0.00102444)
(0.00102444 -0.000841049 -1.4235e-05 0.00102445 -3.35771e-10 0.00102444)
(0.00107774 -0.000909564 -1.56173e-05 0.00107792 -1.85824e-09 0.00107774)
(0.00107778 -0.000909565 -1.56173e-05 0.00107785 3.02987e-10 0.00107778)
(0.00113228 -0.000981392 -1.70943e-05 0.0011322 -8.49415e-11 0.00113228)
(0.00113228 -0.000981392 -1.70943e-05 0.00113219 4.34147e-10 0.00113228)
(0.00118772 -0.0010565 -1.86689e-05 0.00118772 1.10581e-10 0.00118772)
(0.00118772 -0.0010565 -1.86689e-05 0.00118771 9.27126e-13 0.00118772)
(0.00124413 -0.00113483 -2.03433e-05 0.00124413 -7.57419e-11 0.00124413)
(0.00124412 -0.00113483 -2.03434e-05 0.00124413 1.24507e-11 0.00124413)
(0.0013014 -0.0012163 -2.21192e-05 0.0013014 -7.98624e-11 0.0013014)
(0.0013014 -0.0012163 -2.21192e-05 0.0013014 5.04311e-11 0.0013014)
(0.00135945 -0.00130058 -2.399e-05 0.00135945 -5.50936e-11 0.00135945)
(0.00135945 -0.00130058 -2.39901e-05 0.00135945 5.59183e-11 0.00135945)
(0.00141821 -0.00138698 -2.59438e-05 0.00141821 -3.84117e-11 0.00141821)
(0.00141821 -0.00138698 -2.59438e-05 0.00141821 6.06242e-11 0.00141821)
(0.00147757 -0.00147576 -2.80092e-05 0.00147757 1.79984e-11 0.00147757)
(0.00147757 -0.00147576 -2.80092e-05 0.00147757 6.8294e-11 0.00147757)
(0.00153743 -0.00156892 -3.02393e-05 0.00153742 4.99898e-11 0.00153743)
(0.00153743 -0.00156892 -3.02393e-05 0.00153742 9.09053e-11 0.00153743)
(0.00159771 -0.00166803 -3.26482e-05 0.00159767 -8.81319e-10 0.00159772)
(0.00159771 -0.00166803 -3.26482e-05 0.00159767 -6.77972e-10 0.00159772)
(0.00165835 -0.00177183 -3.51825e-05 0.00165835 -2.48778e-09 0.00165836)
(0.00165835 -0.00177183 -3.51825e-05 0.00165836 -2.51398e-09 0.00165835)
(0.00171934 -0.0018733 -3.76286e-05 0.00171946 -3.82434e-11 0.00171934)
(0.00171934 -0.0018733 -3.76286e-05 0.00171946 6.56756e-11 0.00171934)
(0.00178071 -0.00196186 -3.97821e-05 0.00178081 8.42228e-10 0.00178071)
(0.0017807 -0.00196186 -3.97821e-05 0.00178082 1.02565e-09 0.0017807)
(0.00184222 -0.00204001 -4.19478e-05 0.00184231 1.1096e-08 0.00184222)
(0.00184225 -0.00204001 -4.19478e-05 0.00184224 3.38688e-09 0.00184225)
(0.00190355 -0.00212437 -4.44825e-05 0.00190355 2.45228e-09 0.00190355)
(0.00190365 -0.00212437 -4.44825e-05 0.00190334 -1.32974e-10 0.00190365)
(0.00196446 -0.00222049 -4.72513e-05 0.00196446 -1.27795e-08 0.00196446)
(0.00196457 -0.00222049 -4.72513e-05 0.00196423 -5.99995e-09 0.00196458)
(0.00202486 -0.00232032 -5.00752e-05 0.00202499 -7.15256e-10 0.00202486)
(0.0020249 -0.00232033 -5.00752e-05 0.00202492 -1.64282e-09 0.0020249)
(0.00208466 -0.00241776 -5.28864e-05 0.0020851 5.92771e-09 0.00208466)
(0.00208465 -0.00241776 -5.28864e-05 0.00208511 4.19618e-09 0.00208465)
(0.00214405 -0.00251311 -5.577e-05 0.0021441 1.00892e-08 0.00214405)
(0.00214404 -0.00251311 -5.577e-05 0.0021441 5.41609e-09 0.00214405)
(0.00220261 -0.00261213 -5.88954e-05 0.00220244 2.08266e-09 0.00220261)
(0.00220261 -0.00261213 -5.88954e-05 0.00220244 3.48268e-10 0.00220261)
(0.00226018 -0.00271748 -6.22139e-05 0.00226018 -2.40631e-09 0.00226018)
(0.00226018 -0.00271749 -6.2214e-05 0.00226018 -1.40908e-10 0.00226018)
(0.00231693 -0.00282729 -6.57053e-05 0.00231689 -2.6491e-09 0.00231693)
(0.00231693 -0.00282729 -6.57053e-05 0.00231689 3.94489e-10 0.00231693)
(0.00237269 -0.00294002 -6.93325e-05 0.00237269 -5.17387e-09 0.0023727)
(0.00237271 -0.00294002 -6.93325e-05 0.00237267 -8.57154e-10 0.00237271)
(0.00242747 -0.00304895 -7.28211e-05 0.00242758 -6.00155e-09 0.00242747)
(0.00242747 -0.00304896 -7.28211e-05 0.00242758 -2.87058e-09 0.00242747)
(0.0024813 -0.00315614 -7.65578e-05 0.00248132 -2.51891e-09 0.0024813)
(0.0024813 -0.00315614 -7.65578e-05 0.00248132 -2.65224e-09 0.0024813)
(0.00253398 -0.00328767 -8.14237e-05 0.00253398 4.78002e-10 0.00253399)
(0.00253396 -0.00328767 -8.14237e-05 0.00253404 1.30095e-10 0.00253396)
(0.00258547 -0.00346125 -8.74291e-05 0.00258562 1.90094e-08 0.00258548)
(0.00258555 -0.00346125 -8.74291e-05 0.00258547 6.02508e-09 0.00258555)
(0.00263629 -0.00366415 -9.40134e-05 0.00263573 5.58308e-09 0.00263629)
(0.00263645 -0.00366416 -9.40135e-05 0.00263541 -3.00898e-09 0.00263645)
(0.00268595 -0.00386993 -0.000100476 0.00268593 -3.42123e-08 0.00268595)
(0.00268586 -0.00386993 -0.000100476 0.0026861 -6.9987e-09 0.00268587)
(0.00273487 -0.0040565 -0.000106414 0.00273613 -2.48246e-09 0.00273487)
(0.00273491 -0.00405651 -0.000106415 0.00273605 -5.32762e-09 0.00273491)
(0.0027843 -0.0042231 -0.000112177 0.00278414 1.02401e-09 0.0027843)
(0.0027843 -0.0042231 -0.000112177 0.00278414 3.51358e-09 0.0027843)
(0.00283306 -0.00437991 -0.000117906 0.0028324 1.13365e-08 0.00283306)
(0.00283316 -0.00437991 -0.000117906 0.00283221 5.67351e-09 0.00283316)
(0.00288077 -0.0045283 -0.00012351 0.0028817 1.37546e-08 0.00288077)
(0.00288108 -0.00452831 -0.00012351 0.00288108 -5.97843e-25 0.00288108)
(0.00293063 -0.00466957 -0.000129143 0.00292554 -1.4272e-07 0.00293064)
(0.00292894 -0.00466957 -0.000129143 0.00292894 -1.39581e-07 0.00292894)
(0.00297579 -0.00480863 -0.000134909 0.00297749 -3.06802e-07 0.00297579)
(0.00297636 -0.00480863 -0.000134909 0.00297636 -2.82163e-07 0.00297636)
(0.00301433 -0.00494622 -0.000140741 0.0030412 -4.25218e-07 0.00301433)
(0.0030142 -0.00494622 -0.000140741 0.00304146 -4.21787e-07 0.0030142)
(0.00307076 -0.00508137 -0.000146655 0.00306746 2.37558e-08 0.00307076)
(0.0030708 -0.00508137 -0.000146655 0.00306738 3.11351e-08 0.0030708)
(0.003118 -0.00521173 -0.000152496 0.00311025 6.32024e-07 0.003118)
(0.00311802 -0.00521173 -0.000152496 0.0031102 6.30615e-07 0.00311802)
(0.0031604 -0.0053332 -0.000158174 0.00316066 7.98785e-08 0.0031604)
(0.00316041 -0.0053332 -0.000158174 0.00316065 8.01548e-08 0.00316041)
(0.00320378 -0.00545006 -0.000164027 0.00320674 -2.19954e-08 0.00320379)
(0.00320378 -0.00545006 -0.000164027 0.00320674 -2.18516e-08 0.00320379)
(0.00324774 -0.00556367 -0.000169778 0.00324897 -9.34085e-08 0.00324774)
(0.00324774 -0.00556367 -0.000169778 0.00324898 -9.3248e-08 0.00324774)
(0.0032903 -0.00564165 -0.000173697 0.00329106 1.17568e-08 0.0032903)
(0.0032903 -0.00564165 -0.000173697 0.00329106 1.18978e-08 0.0032903)
(0.00333197 -0.00565598 -0.000175729 0.00333164 1.81745e-08 0.00333197)
(0.00333197 -0.00565598 -0.000175729 0.00333164 1.57987e-08 0.00333197)
(0.00337227 -0.00561695 -0.000176423 0.00337071 5.01028e-08 0.00337227)
(0.00337227 -0.00561695 -0.000176423 0.00337071 5.02897e-08 0.00337227)
(0.00341137 -0.00552315 -0.00017496 0.0034071 -2.28088e-07 0.00341137)
(0.00341136 -0.00552315 -0.00017496 0.00340711 -2.27863e-07 0.00341137)
(0.00344612 -0.005336 -0.000169493 0.00344612 -4.21369e-07 0.00344612)
(0.00344605 -0.005336 -0.000169493 0.00344626 -4.2305e-07 0.00344605)
(0.00347989 -0.00502707 -0.000159765 0.0034801 1.76101e-09 0.00347989)
(0.00347996 -0.00502707 -0.000159765 0.00347996 2.68915e-11 0.00347996)
(0.00351513 -0.00464265 -0.000148817 0.00350304 5.29611e-07 0.00351513)
(0.00351513 -0.00464264 -0.000148817 0.00350304 5.29828e-07 0.00351512)
(0.00354142 -0.00425495 -0.000138209 0.00353513 1.18615e-07 0.00354142)
(0.00354142 -0.00425495 -0.000138209 0.00353513 1.18789e-07 0.00354142)
(0.00356323 -0.00387724 -0.000127212 0.00356755 -9.79491e-08 0.00356323)
(0.00356323 -0.00387724 -0.000127212 0.00356755 -9.76979e-08 0.00356323)
(0.00358595 -0.00346359 -0.000113344 0.00359009 5.38871e-09 0.00358595)
(0.00358595 -0.00346359 -0.000113344 0.00359009 5.56935e-09 0.00358595)
(0.00360825 -0.00303694 -0.000100704 0.00360659 1.25381e-07 0.00360825)
(0.00360824 -0.00303694 -0.000100704 0.00360661 1.22264e-07 0.00360825)
(0.00362622 -0.00273434 -9.49746e-05 0.00362622 8.94213e-08 0.00362623)
(0.0036263 -0.00273434 -9.49746e-05 0.00362606 8.71948e-08 0.00362631)
(0.00364305 -0.00259492 -9.35392e-05 0.00364411 -1.22446e-08 0.00364305)
(0.00364305 -0.00259492 -9.35392e-05 0.00364411 -1.19419e-08 0.00364305)
(0.00365931 -0.00254291 -9.39474e-05 0.00365992 -3.84817e-08 0.00365931)
(0.00365931 -0.00254291 -9.39474e-05 0.00365992 -3.82041e-08 0.00365931)
(0.00367452 -0.00253039 -9.53759e-05 0.00367499 -2.94559e-08 0.00367453)
(0.00367452 -0.00253039 -9.53759e-05 0.003675 -2.91135e-08 0.00367453)
(0.00368954 -0.00252828 -9.65633e-05 0.00368779 -9.42823e-08 0.00368955)
(0.00368941 -0.00252828 -9.65633e-05 0.00368805 -9.38558e-08 0.00368942)
(0.00370237 -0.0025132 -9.70194e-05 0.00370237 -2.57976e-07 0.00370238)
(0.00370229 -0.0025132 -9.70194e-05 0.00370255 -2.60523e-07 0.00370229)
(0.00371303 -0.0024922 -9.77685e-05 0.00371887 -1.21208e-08 0.00371303)
(0.00371303 -0.0024922 -9.77685e-05 0.00371887 -1.17818e-08 0.00371303)
(0.00372706 -0.00248549 -9.93591e-05 0.00372629 1.91289e-08 0.00372706)
(0.00372706 -0.00248549 -9.93591e-05 0.00372629 1.51384e-08 0.00372706)
(0.00373988 -0.00249018 -0.000101038 0.00373395 1.72531e-07 0.00373988)
(0.00373988 -0.00249018 -0.000101038 0.00373395 1.72935e-07 0.00373988)
(0.00374828 -0.0024901 -0.000102283 0.00374828 -2.73532e-08 0.00374828)
(0.00374828 -0.0024901 -0.000102283 0.00374828 -3.03312e-08 0.00374828)
(0.00375614 -0.00247587 -0.000102828 0.00376156 2.73812e-10 0.00375614)
(0.00375614 -0.00247587 -0.000102828 0.00376156 6.16939e-10 0.00375614)
(0.00376724 -0.00244941 -0.000103059 0.00376634 2.27345e-07 0.00376724)
(0.00376724 -0.00244941 -0.000103059 0.00376634 2.22801e-07 0.00376724)
(0.00377632 -0.00242447 -0.000103725 0.00377331 1.52705e-07 0.00377633)
(0.00377632 -0.00242447 -0.000103725 0.00377332 1.5322e-07 0.00377633)
(0.00378314 -0.00241253 -0.000105064 0.00378314 2.60257e-08 0.00378315)
(0.00378304 -0.00241253 -0.000105064 0.00378335 2.26325e-08 0.00378305)
(0.00379002 -0.00241281 -0.000106812 0.00379128 1.47481e-08 0.00379003)
(0.00379002 -0.00241281 -0.000106812 0.00379129 1.52509e-08 0.00379003)
(0.00379722 -0.00242003 -0.000108813 0.00379722 7.83488e-10 0.00379723)
(0.00379733 -0.00242003 -0.000108813 0.00379701 -2.94052e-09 0.00379734)
(0.00380343 -0.00243059 -0.000110924 0.00380358 -2.02981e-08 0.00380344)
(0.00380343 -0.00243059 -0.000110924 0.00380358 -1.96621e-08 0.00380344)
(0.0038092 -0.00244226 -0.0001131 0.0038092 -3.00603e-08 0.00380921)
(0.00380915 -0.00244226 -0.0001131 0.00380931 -3.38633e-08 0.00380916)
(0.00381415 -0.00245454 -0.000115347 0.00381481 5.59078e-09 0.00381416)
(0.00381415 -0.00245454 -0.000115347 0.00381481 6.33982e-09 0.00381416)
(0.0038191 -0.00246753 -0.000117671 0.00381869 5.87249e-08 0.00381911)
(0.0038191 -0.00246753 -0.000117671 0.00381869 5.93487e-08 0.00381911)
(0.00382312 -0.00248136 -0.000120083 0.00382263 4.07572e-08 0.00382314)
(0.00382312 -0.00248136 -0.000120083 0.00382263 4.14445e-08 0.00382313)
(0.00382633 -0.00249618 -0.000122593 0.00382633 1.04213e-08 0.00382635)
(0.0038263 -0.00249618 -0.000122593 0.0038264 5.98594e-09 0.00382632)
(0.00382896 -0.00251215 -0.000125211 0.00382927 -5.92572e-09 0.00382897)
(0.00382895 -0.00251215 -0.000125211 0.00382927 -5.24433e-09 0.00382897)
(0.00383114 -0.00252945 -0.000127953 0.00383102 -8.17428e-09 0.00383116)
(0.00383114 -0.00252945 -0.000127953 0.00383102 -7.39265e-09 0.00383116)
(0.00383243 -0.00254829 -0.000130832 0.00383243 -3.01295e-09 0.00383244)
(0.00383236 -0.00254829 -0.000130832 0.00383257 -6.60683e-09 0.00383237)
(0.00383298 -0.0025689 -0.000133866 0.00383301 7.04477e-09 0.003833)
(0.00383298 -0.0025689 -0.000133866 0.00383301 8.04861e-09 0.003833)
(0.00383302 -0.00259154 -0.000137076 0.0038322 -1.9092e-08 0.00383304)
(0.00383302 -0.00259154 -0.000137076 0.00383221 -1.8237e-08 0.00383304)
(0.00383165 -0.00261651 -0.000140484 0.00383165 -8.23232e-08 0.00383167)
(0.00383164 -0.00261651 -0.000140484 0.00383168 -8.77257e-08 0.00383166)
(0.0038291 -0.00264414 -0.000144116 0.00383072 -6.05452e-09 0.00382911)
(0.00382909 -0.00264414 -0.000144116 0.00383073 -4.75318e-09 0.0038291)
(0.00382696 -0.0026748 -0.000148003 0.00382599 2.83726e-08 0.00382697)
(0.00382696 -0.0026748 -0.000148003 0.00382599 2.77924e-08 0.00382697)
(0.00382258 -0.00270892 -0.000152179 0.00382258 -1.95541e-10 0.00382259)
(0.00382269 -0.00270893 -0.000152179 0.00382234 -5.69045e-09 0.00382271)
(0.00381721 -0.00274699 -0.000156684 0.0038177 7.0159e-09 0.00381722)
(0.00381737 -0.00274699 -0.000156684 0.00381737 7.13954e-10 0.00381738)
(0.00381093 -0.00278953 -0.000161563 0.00381093 8.41575e-08 0.00381094)
(0.00381082 -0.00278953 -0.000161562 0.00381114 8.20997e-08 0.00381083)
(0.00380337 -0.00283717 -0.000166867 0.00380263 -1.11646e-09 0.0038034)
(0.00380313 -0.00283717 -0.000166867 0.00380313 -4.23551e-09 0.00380315)
(0.00379386 -0.00289044 -0.000172639 0.00379386 -3.87216e-07 0.00379388)
(0.00379391 -0.00289043 -0.000172639 0.00379376 -3.87708e-07 0.00379392)
(0.00378019 -0.0029448 -0.000178322 0.0037886 -2.0784e-07 0.00378018)
(0.00378024 -0.0029448 -0.000178322 0.00378848 -2.2716e-07 0.00378024)
(0.00377056 -0.00298023 -0.000182042 0.00376992 1.41359e-07 0.00377056)
(0.00377041 -0.00298023 -0.000182042 0.00377021 1.31131e-07 0.00377041)
(0.00375783 -0.0029749 -0.000182915 0.00375185 2.21454e-07 0.00375784)
(0.00375839 -0.0029749 -0.000182915 0.00375071 2.16237e-07 0.0037584)
(0.00373889 -0.00289735 -0.000177659 0.00374049 -2.18061e-08 0.00373891)
(0.00373942 -0.00289736 -0.000177659 0.00373942 6.8269e-08 0.00373943)
(0.00372037 -0.00268486 -0.000161209 0.00372286 1.59855e-08 0.00372038)
(0.00372119 -0.00268487 -0.000161209 0.00372119 -1.69709e-08 0.00372121)
(0.00370171 -0.00235543 -0.000140345 0.00370115 2.00674e-07 0.00370172)
(0.00370152 -0.00235543 -0.000140345 0.00370152 4.44597e-24 0.00370153)
(0.00368184 -0.00203493 -0.000124007 0.00367929 1.85215e-08 0.00368186)
(0.00368099 -0.00203492 -0.000124007 0.00368099 2.38433e-07 0.00368102)
(0.00366041 -0.00176345 -0.000108394 0.00365994 2.05767e-08 0.00366042)
(0.00366025 -0.00176345 -0.000108394 0.00366025 -1.59603e-07 0.00366028)
(0.00363928 -0.00153215 -9.64813e-05 0.00364106 -1.98667e-07 0.0036393)
(0.00363987 -0.00153216 -9.64816e-05 0.00363987 1.15263e-37 0.00363989)
(0.00361967 -0.00139776 -9.3239e-05 0.00362166 1.66975e-07 0.00361969)
(0.00362033 -0.00139776 -9.32389e-05 0.00362033 6.76104e-08 0.00362035)
(0.00360256 -0.00136045 -9.41463e-05 0.00360065 1.79934e-08 0.00360258)
(0.00360192 -0.00136045 -9.41461e-05 0.00360192 3.29046e-23 0.00360195)
(0.00358512 -0.00136353 -9.6397e-05 0.00358387 -8.54828e-08 0.00358514)
(0.0035847 -0.00136353 -9.63971e-05 0.0035847 -4.37911e-08 0.00358473)
(0.00356765 -0.00137456 -9.84639e-05 0.00357062 4.30191e-09 0.00356766)
(0.00356863 -0.00137457 -9.84641e-05 0.00356863 -1.39662e-08 0.00356865)
(0.00355405 -0.00138712 -0.00010103 0.00355285 1.67763e-07 0.00355407)
(0.00355365 -0.00138712 -0.000101029 0.00355365 1.4285e-07 0.00355367)
(0.00354012 -0.00141012 -0.000104721 0.00353884 4.83071e-08 0.00354015)
(0.0035397 -0.00141011 -0.000104721 0.0035397 7.04138e-08 0.00353973)
(0.00352638 -0.00144071 -0.000108538 0.0035273 -1.97182e-08 0.00352641)
(0.00352669 -0.00144071 -0.000108538 0.00352669 6.05372e-23 0.00352672)
(0.00351449 -0.00146528 -0.000111489 0.00351459 1.54621e-08 0.00351452)
(0.00351452 -0.00146528 -0.000111489 0.00351452 3.98794e-08 0.00351456)
(0.00350339 -0.00147953 -0.00011389 0.00350259 -1.0608e-08 0.00350343)
(0.00350312 -0.00147953 -0.00011389 0.00350312 -8.34116e-08 0.00350316)
(0.00349243 -0.0014926 -0.000116785 0.00349244 -4.13628e-08 0.00349246)
(0.00349243 -0.0014926 -0.000116785 0.00349243 2.01124e-39 0.00349246)
(0.00348243 -0.00151346 -0.000120519 0.0034823 -3.71859e-09 0.00348246)
(0.00348239 -0.00151346 -0.000120519 0.00348239 1.46605e-08 0.00348242)
(0.00347262 -0.00154056 -0.000124544 0.00347353 2.17734e-08 0.00347266)
(0.00347225 -0.00154056 -0.000124544 0.00347429 -1.67522e-08 0.00347228)
(0.00346393 -0.00156756 -0.000128433 0.00346402 7.7874e-08 0.00346397)
(0.0034643 -0.00156756 -0.000128433 0.00346327 1.08264e-07 0.00346435)
(0.00345566 -0.00159165 -0.00013216 0.00345491 -8.81738e-10 0.0034557)
(0.00345541 -0.00159165 -0.00013216 0.00345541 -3.02271e-08 0.00345546)
(0.00344721 -0.00161285 -0.00013574 0.00344721 -3.12725e-08 0.00344725)
(0.00344698 -0.00161285 -0.00013574 0.00344767 -2.45939e-08 0.00344703)
(0.0034393 -0.00163145 -0.000139188 0.00343926 -3.71698e-08 0.00343934)
(0.00343929 -0.00163145 -0.000139188 0.00343929 -2.81269e-08 0.00343933)
(0.00343159 -0.00164771 -0.000142517 0.00343157 -1.05007e-08 0.00343163)
(0.0034316 -0.00164771 -0.000142517 0.00343155 1.42513e-08 0.00343164)
(0.00342412 -0.00166185 -0.000145739 0.0034239 -1.17264e-08 0.00342416)
(0.00342415 -0.00166185 -0.000145739 0.00342384 -1.1587e-09 0.00342419)
(0.00341663 -0.00167409 -0.000148864 0.00341663 -4.20542e-08 0.00341667)
(0.00341653 -0.00167409 -0.000148864 0.00341683 -9.39898e-09 0.00341657)
(0.0034091 -0.00168461 -0.000151905 0.0034097 2.20159e-08 0.00340914)
(0.0034091 -0.00168461 -0.000151905 0.00340969 -3.49128e-10 0.00340914)
(0.00340234 -0.00169358 -0.000154869 0.00340135 6.53827e-08 0.00340238)
(0.00340233 -0.00169358 -0.000154869 0.00340135 7.82625e-08 0.00340238)
(0.00339473 -0.00170116 -0.000157765 0.00339473 -2.53593e-09 0.00339478)
(0.00339477 -0.00170116 -0.000157765 0.00339465 -5.17382e-09 0.00339482)
(0.00338728 -0.00170748 -0.000160602 0.00338774 -3.86673e-08 0.00338733)
(0.00338726 -0.00170748 -0.000160602 0.00338779 -3.56958e-08 0.00338731)
(0.00338005 -0.00171268 -0.000163387 0.00338019 1.854e-08 0.0033801)
(0.00338005 -0.00171268 -0.000163387 0.0033802 1.6867e-08 0.00338009)
(0.00337293 -0.00171687 -0.000166127 0.00337222 4.0524e-08 0.00337298)
(0.00337295 -0.00171687 -0.000166127 0.00337219 4.24103e-08 0.003373)
(0.00336525 -0.00172015 -0.000168827 0.00336513 -2.56045e-08 0.0033653)
(0.00336521 -0.00172015 -0.000168827 0.00336521 -2.0606e-08 0.00336526)
(0.00335757 -0.00172261 -0.000171495 0.0033577 -5.48578e-08 0.00335763)
(0.00335752 -0.00172261 -0.000171495 0.00335781 -5.70993e-08 0.00335757)