/*--------------------------------*- C++ -*----------------------------------*\
| =========                 |                                                 |
| \\      /  F ield         | OpenFOAM: The Open Source CFD Toolbox           |
|  \\    /   O peration     | Version:  2012                                  |
|   \\  /    A nd           | Website:  www.openfoam.com                      |
|    \\/     M anipulation  |                                                 |
\*---------------------------------------------------------------------------*/
FoamFile
{
    version     2.0;
    format      ascii;
    class       volScalarField;
    location    "10800";
    object      nut;
}
// * * * * * * * * * * * * * * * * * * * * * * * * * * * * * * * * * * * * * //

dimensions      [0 2 -1 0 0 0 0];


internalField   nonuniform List<scalar> 
2560
(
3.85771e-09
3.85504e-09
6.29457e-07
6.29055e-07
1.314e-05
1.31319e-05
8.90733e-05
8.90278e-05
0.00028666
0.000286551
0.00059786
0.000597684
0.000991417
0.000991177
0.00144581
0.00144551
0.00194839
0.00194803
0.00249135
0.00249094
0.00306952
0.00306905
0.00367923
0.00367869
0.00431771
0.00431711
0.00498282
0.00498216
0.00567283
0.00567212
0.0063863
0.00638552
0.007122
0.00712116
0.00787887
0.00787797
0.00865596
0.00865499
0.00945243
0.0094514
0.0102675
0.0102664
0.0111004
0.0110993
0.0119505
0.0119493
0.0128172
0.0128159
0.0136997
0.0136984
0.0145976
0.0145962
0.0155103
0.0155088
0.0164372
0.0164356
0.0173777
0.017376
0.0183314
0.0183297
0.0192977
0.0192959
0.0202762
0.0202743
0.0212662
0.0212642
0.0222673
0.0222652
0.0232788
0.0232767
0.0243003
0.0242981
0.0253311
0.0253288
0.0263705
0.0263681
0.027418
0.0274156
0.028473
0.0284705
0.0295349
0.0295323
0.030603
0.0306004
0.0316768
0.0316741
0.0327556
0.0327528
0.0338385
0.0338356
0.0349246
0.0349216
0.0360128
0.0360098
0.0371016
0.0370985
0.0381894
0.0381863
0.0392743
0.039271
0.040354
0.0403507
0.0414261
0.0414227
0.0424881
0.0424846
0.0435376
0.043534
0.0445728
0.0445691
0.0455937
0.04559
0.046603
0.0465992
0.0476063
0.0476024
0.0486114
0.0486073
0.0496256
0.0496214
0.0506481
0.0506438
0.0516656
0.0516612
0.0526531
0.0526486
0.053576
0.0535715
0.0543988
0.0543944
0.0550937
0.0550894
0.0556467
0.0556427
0.0560601
0.0560564
0.0563496
0.0563461
0.0565395
0.0565362
0.0566576
0.0566547
0.0567309
0.0567282
0.0567822
0.0567796
0.056829
0.0568265
0.0568832
0.0568807
0.056952
0.0569495
0.0570373
0.0570349
0.057138
0.0571356
0.0572507
0.0572484
0.0573708
0.0573685
0.0574929
0.0574908
0.0576118
0.0576099
0.057723
0.0577212
0.0578221
0.0578206
0.0579058
0.0579044
0.0579712
0.05797
0.0580158
0.0580148
0.0580378
0.058037
0.0580359
0.0580352
0.0580094
0.0580088
0.0579584
0.057958
0.0578842
0.0578838
0.0577889
0.0577886
0.057676
0.0576758
0.0575497
0.0575495
0.0574148
0.0574146
0.0572761
0.0572759
0.0571379
0.0571377
0.0570037
0.0570035
0.0568758
0.0568757
0.0567551
0.0567549
0.0566415
0.0566413
0.0565342
0.0565341
0.0564326
0.0564324
0.0563359
0.0563357
0.0562442
0.056244
0.056158
0.0561579
0.0560788
0.0560787
0.0560084
0.0560082
0.0559486
0.0559484
0.0559012
0.0559011
0.0558673
0.0558672
0.0558466
0.0558464
0.0558376
0.0558375
0.0558377
0.0558375
0.0558426
0.0558425
0.0558479
0.0558478
0.0558487
0.0558486
0.0558411
0.055841
0.0558229
0.0558228
0.0557938
0.0557937
0.055756
0.055756
0.0557139
0.0557139
0.055673
0.055673
0.0556393
0.0556392
0.0556179
0.0556178
0.0556127
0.0556126
0.0556249
0.0556248
0.0556537
0.0556536
0.0556967
0.0556966
0.0557511
0.055751
0.0558142
0.0558141
0.055884
0.0558839
0.0559598
0.0559597
0.056042
0.0560418
0.0561319
0.0561317
0.0562315
0.0562313
0.056343
0.0563428
0.0564685
0.0564683
0.0566099
0.0566097
0.0567687
0.0567685
0.0569459
0.0569457
0.0571423
0.057142
0.0573579
0.0573576
0.0575925
0.0575922
0.0578455
0.0578452
0.0581164
0.0581161
0.0584046
0.0584042
0.0587096
0.0587092
0.0590317
0.0590313
0.0593718
0.0593713
0.0597312
0.0597306
0.060112
0.0601114
0.060517
0.0605163
0.0609491
0.0609484
0.0614115
0.0614108
0.0619076
0.0619068
0.0624403
0.0624394
0.0630123
0.0630113
0.063626
0.063625
0.0642833
0.0642821
0.0649853
0.064984
0.0657326
0.0657312
0.066525
0.0665235
0.0673613
0.0673596
0.0682391
0.0682372
0.0691543
0.0691523
0.0701014
0.0700992
0.0710728
0.0710704
0.072059
0.0720565
0.0730492
0.0730465
0.0740313
0.0740284
0.074993
0.0749901
0.0759233
0.0759203
0.0768133
0.0768104
0.077658
0.0776553
0.0784572
0.0784548
0.0792166
0.0792148
0.0799477
0.0799464
0.0806662
0.0806654
0.0813914
0.0813909
0.0821434
0.082143
0.0829402
0.0829398
0.083795
0.0837946
0.0847139
0.0847135
0.0856952
0.0856948
0.0867279
0.0867276
0.0877949
0.0877949
0.0888751
0.0888757
0.0899468
0.089948
0.0909896
0.0909914
0.0919866
0.0919888
0.0929252
0.0929276
0.0937991
0.0938015
0.0946075
0.0946099
0.0953547
0.0953569
0.0960487
0.0960507
0.0967006
0.0967024
0.0973233
0.097325
0.0979308
0.0979322
0.098537
0.0985382
0.0991556
0.0991566
0.0997994
0.0998002
0.10048
0.100481
0.101208
0.101208
0.101992
0.101992
0.10284
0.102841
0.10376
0.10376
0.104757
0.104757
0.105834
0.105834
0.106995
0.106995
0.108242
0.108241
0.109571
0.109571
0.110979
0.110978
0.112456
0.112455
0.113988
0.113988
0.115557
0.115556
0.117138
0.117137
0.118703
0.118702
0.12022
0.12022
0.121659
0.121658
0.12299
0.122988
0.12419
0.124189
0.125248
0.125246
0.126161
0.12616
0.126943
0.126942
0.12762
0.127619
0.128229
0.128228
0.128815
0.128815
0.129424
0.129423
0.130091
0.13009
0.130842
0.130842
0.131684
0.131684
0.132606
0.132606
0.133587
0.133587
0.1346
0.1346
0.135621
0.135621
0.136635
0.136635
0.13764
0.13764
0.138647
0.138647
0.139677
0.139677
0.140757
0.140757
0.141913
0.141914
0.143172
0.143172
0.144549
0.144549
0.146059
0.146059
0.147709
0.147709
0.149502
0.149502
0.151443
0.151443
0.153538
0.153537
0.155792
0.155792
0.158214
0.158214
0.160811
0.160811
0.163589
0.163589
0.166551
0.16655
0.169698
0.169698
0.173031
0.173031
0.176547
0.176547
0.180243
0.180243
0.184117
0.184117
0.188168
0.188167
0.192395
0.192395
0.196801
0.196801
0.20139
0.20139
0.206167
0.206167
0.21114
0.211139
0.216313
0.216313
0.221694
0.221694
0.227287
0.227287
0.233093
0.233092
0.239111
0.239111
0.245341
0.24534
0.251777
0.251777
0.258416
0.258415
0.265252
0.265252
0.272281
0.272281
0.279498
0.279498
0.286898
0.286898
0.294476
0.294476
0.302226
0.302225
0.31014
0.31014
0.318214
0.318213
0.326438
0.326438
0.334806
0.334806
0.343308
0.343308
0.351938
0.351937
0.360686
0.360686
0.369546
0.369546
0.378512
0.378512
0.387579
0.387579
0.396743
0.396743
0.405997
0.405997
0.415337
0.415337
0.424755
0.424755
0.434242
0.434242
0.443788
0.443788
0.453381
0.453381
0.46301
0.463009
0.472664
0.472664
0.482334
0.482334
0.492012
0.492012
0.501693
0.501693
0.511372
0.511372
0.521046
0.521046
0.530713
0.530713
0.540368
0.540368
0.550009
0.550009
0.559633
0.559633
0.569234
0.569234
0.578808
0.578808
0.588348
0.588348
0.597847
0.597847
0.607295
0.607295
0.616678
0.616678
0.625966
0.625966
0.6351
0.6351
0.643936
0.643936
0.6521
0.6521
0.658588
0.658588
0.658399
0.658399
3.85504e-09
3.85771e-09
6.29055e-07
6.29458e-07
1.31319e-05
1.314e-05
8.90278e-05
8.90734e-05
0.000286551
0.00028666
0.000597684
0.000597861
0.000991177
0.000991418
0.00144551
0.00144581
0.00194803
0.00194839
0.00249094
0.00249136
0.00306905
0.00306953
0.00367869
0.00367923
0.00431711
0.00431771
0.00498216
0.00498282
0.00567212
0.00567283
0.00638552
0.0063863
0.00712116
0.007122
0.00787797
0.00787887
0.008655
0.00865597
0.0094514
0.00945244
0.0102664
0.0102675
0.0110993
0.0111004
0.0119493
0.0119505
0.0128159
0.0128172
0.0136984
0.0136997
0.0145962
0.0145976
0.0155088
0.0155103
0.0164356
0.0164372
0.017376
0.0173777
0.0183297
0.0183314
0.0192959
0.0192977
0.0202743
0.0202762
0.0212642
0.0212662
0.0222652
0.0222673
0.0232767
0.0232788
0.0242981
0.0243003
0.0253288
0.0253311
0.0263682
0.0263705
0.0274156
0.027418
0.0284705
0.028473
0.0295323
0.0295349
0.0306004
0.0306031
0.0316741
0.0316768
0.0327528
0.0327556
0.0338356
0.0338385
0.0349217
0.0349246
0.0360098
0.0360128
0.0370985
0.0371016
0.0381863
0.0381895
0.039271
0.0392743
0.0403507
0.040354
0.0414227
0.0414261
0.0424846
0.0424881
0.043534
0.0435376
0.0445691
0.0445728
0.04559
0.0455937
0.0465992
0.046603
0.0476024
0.0476064
0.0486073
0.0486114
0.0496214
0.0496256
0.0506438
0.0506481
0.0516612
0.0516657
0.0526486
0.0526531
0.0535715
0.053576
0.0543944
0.0543988
0.0550894
0.0550937
0.0556427
0.0556468
0.0560564
0.0560602
0.0563461
0.0563496
0.0565363
0.0565395
0.0566547
0.0566577
0.0567282
0.056731
0.0567796
0.0567822
0.0568265
0.056829
0.0568807
0.0568832
0.0569496
0.056952
0.0570349
0.0570373
0.0571356
0.057138
0.0572484
0.0572507
0.0573685
0.0573708
0.0574908
0.0574929
0.0576099
0.0576119
0.0577212
0.057723
0.0578206
0.0578221
0.0579044
0.0579058
0.05797
0.0579712
0.0580148
0.0580158
0.058037
0.0580378
0.0580352
0.0580359
0.0580088
0.0580094
0.057958
0.0579584
0.0578838
0.0578842
0.0577886
0.0577889
0.0576758
0.057676
0.0575495
0.0575497
0.0574146
0.0574148
0.0572759
0.0572761
0.0571377
0.0571379
0.0570035
0.0570037
0.0568757
0.0568758
0.0567549
0.0567551
0.0566413
0.0566415
0.0565341
0.0565342
0.0564324
0.0564326
0.0563357
0.0563359
0.056244
0.0562442
0.0561579
0.056158
0.0560787
0.0560788
0.0560082
0.0560084
0.0559484
0.0559486
0.0559011
0.0559012
0.0558672
0.0558673
0.0558464
0.0558466
0.0558375
0.0558376
0.0558375
0.0558377
0.0558425
0.0558426
0.0558478
0.0558479
0.0558486
0.0558487
0.055841
0.0558411
0.0558228
0.0558229
0.0557937
0.0557938
0.055756
0.055756
0.0557139
0.0557139
0.055673
0.055673
0.0556392
0.0556393
0.0556178
0.0556179
0.0556126
0.0556127
0.0556248
0.0556249
0.0556535
0.0556536
0.0556965
0.0556967
0.055751
0.0557511
0.055814
0.0558142
0.0558838
0.055884
0.0559596
0.0559597
0.0560418
0.0560419
0.0561317
0.0561318
0.0562313
0.0562314
0.0563427
0.0563429
0.0564682
0.0564684
0.0566096
0.0566098
0.0567684
0.0567686
0.0569456
0.0569459
0.0571419
0.0571422
0.0573575
0.0573578
0.0575921
0.0575924
0.0578451
0.0578454
0.058116
0.0581163
0.0584041
0.0584045
0.0587091
0.0587095
0.0590312
0.0590316
0.0593712
0.0593717
0.0597305
0.059731
0.0601113
0.0601119
0.0605162
0.0605168
0.0609482
0.0609489
0.0614106
0.0614114
0.0619066
0.0619074
0.0624392
0.0624401
0.0630111
0.0630122
0.0636248
0.0636259
0.0642819
0.0642831
0.0649838
0.0649851
0.0657309
0.0657324
0.0665232
0.0665248
0.0673594
0.0673611
0.0682369
0.0682389
0.069152
0.0691541
0.0700989
0.0701012
0.0710701
0.0710726
0.0720562
0.0720588
0.0730462
0.073049
0.0740281
0.0740311
0.0749897
0.0749928
0.07592
0.0759231
0.0768101
0.0768131
0.077655
0.0776578
0.0784545
0.078457
0.0792145
0.0792165
0.0799461
0.0799475
0.0806651
0.080666
0.0813906
0.0813912
0.0821426
0.0821431
0.0829394
0.0829399
0.0837942
0.0837946
0.084713
0.0847135
0.0856943
0.0856947
0.0867271
0.0867274
0.0877943
0.0877943
0.0888751
0.0888746
0.0899474
0.0899462
0.0909908
0.090989
0.0919883
0.091986
0.0929271
0.0929246
0.0938011
0.0937985
0.0946095
0.094607
0.0953565
0.0953542
0.0960504
0.0960483
0.0967021
0.0967002
0.0973247
0.097323
0.0979319
0.0979304
0.0985379
0.0985367
0.0991563
0.0991553
0.0997999
0.099799
0.10048
0.10048
0.101208
0.101207
0.101992
0.101991
0.10284
0.10284
0.10376
0.10376
0.104756
0.104756
0.105833
0.105833
0.106994
0.106994
0.10824
0.108241
0.10957
0.10957
0.110977
0.110978
0.112454
0.112454
0.113986
0.113987
0.115555
0.115556
0.117136
0.117137
0.118701
0.118702
0.120218
0.120219
0.121657
0.121658
0.122987
0.122989
0.124188
0.12419
0.125246
0.125247
0.126159
0.126161
0.126942
0.126943
0.127619
0.12762
0.128228
0.128229
0.128815
0.128816
0.129424
0.129424
0.13009
0.130091
0.130842
0.130842
0.131684
0.131684
0.132605
0.132605
0.133586
0.133586
0.1346
0.134599
0.135621
0.13562
0.136635
0.136635
0.13764
0.13764
0.138648
0.138647
0.139678
0.139677
0.140757
0.140757
0.141914
0.141914
0.143172
0.143172
0.14455
0.144549
0.146059
0.146059
0.147709
0.147709
0.149502
0.149502
0.151443
0.151443
0.153537
0.153537
0.155792
0.155792
0.158214
0.158214
0.160811
0.160811
0.163588
0.163588
0.16655
0.16655
0.169698
0.169698
0.17303
0.173031
0.176546
0.176547
0.180242
0.180243
0.184116
0.184117
0.188167
0.188167
0.192394
0.192395
0.196801
0.196801
0.20139
0.20139
0.206167
0.206168
0.211139
0.21114
0.216313
0.216314
0.221694
0.221695
0.227287
0.227287
0.233092
0.233093
0.239111
0.239111
0.24534
0.245341
0.251776
0.251777
0.258415
0.258415
0.265251
0.265252
0.272281
0.272281
0.279498
0.279498
0.286898
0.286898
0.294476
0.294476
0.302225
0.302225
0.31014
0.31014
0.318213
0.318213
0.326437
0.326438
0.334805
0.334805
0.343308
0.343308
0.351937
0.351937
0.360685
0.360686
0.369546
0.369546
0.378512
0.378512
0.387579
0.387579
0.396742
0.396742
0.405996
0.405997
0.415336
0.415337
0.424755
0.424755
0.434242
0.434242
0.443787
0.443788
0.45338
0.45338
0.463009
0.463009
0.472663
0.472663
0.482333
0.482333
0.492012
0.492012
0.501693
0.501693
0.511372
0.511372
0.521046
0.521046
0.530712
0.530712
0.540367
0.540368
0.550009
0.550009
0.559632
0.559632
0.569233
0.569233
0.578806
0.578807
0.588346
0.588346
0.597844
0.597844
0.607291
0.607292
0.616673
0.616673
0.625959
0.62596
0.635092
0.635092
0.643926
0.643926
0.652087
0.652087
0.658574
0.658574
0.658388
0.658387
0.6584
0.6584
0.65859
0.658591
0.652105
0.652105
0.643941
0.643941
0.635105
0.635105
0.625972
0.625972
0.616684
0.616684
0.607302
0.607302
0.597855
0.597855
0.588356
0.588356
0.578816
0.578816
0.569243
0.569243
0.559642
0.559642
0.550018
0.550018
0.540378
0.540378
0.530723
0.530723
0.521058
0.521058
0.511384
0.511384
0.501705
0.501705
0.492024
0.492024
0.482346
0.482346
0.472677
0.472677
0.463024
0.463024
0.453396
0.453396
0.443803
0.443803
0.434258
0.434258
0.424771
0.424771
0.415354
0.415354
0.406014
0.406014
0.39676
0.39676
0.387597
0.387597
0.378531
0.378531
0.369565
0.369565
0.360705
0.360704
0.351956
0.351956
0.343326
0.343326
0.334823
0.334823
0.326455
0.326455
0.318231
0.318231
0.310157
0.310157
0.302242
0.302242
0.294493
0.294492
0.286915
0.286915
0.279514
0.279514
0.272296
0.272296
0.265267
0.265267
0.25843
0.25843
0.251791
0.251791
0.245354
0.245354
0.239124
0.239124
0.233105
0.233105
0.227299
0.227298
0.221705
0.221705
0.216324
0.216324
0.211149
0.211149
0.206176
0.206176
0.201398
0.201398
0.196809
0.196808
0.192402
0.192402
0.188174
0.188173
0.184122
0.184122
0.180247
0.180247
0.17655
0.17655
0.173033
0.173033
0.1697
0.1697
0.166552
0.166552
0.163589
0.163589
0.160811
0.160811
0.158214
0.158214
0.155791
0.155791
0.153536
0.153536
0.151441
0.15144
0.149499
0.149499
0.147705
0.147705
0.146056
0.146056
0.144545
0.144546
0.143167
0.143168
0.141909
0.141909
0.140752
0.140752
0.139673
0.139673
0.138643
0.138644
0.137637
0.137638
0.136633
0.136633
0.13562
0.13562
0.134599
0.1346
0.133587
0.133587
0.132607
0.132607
0.131685
0.131685
0.130844
0.130844
0.130092
0.130092
0.129426
0.129426
0.128818
0.128818
0.128232
0.128231
0.127624
0.127623
0.126948
0.126947
0.126167
0.126165
0.125253
0.125252
0.124196
0.124195
0.122995
0.122994
0.121664
0.121663
0.120226
0.120225
0.118708
0.118707
0.117144
0.117143
0.115562
0.115562
0.113993
0.113993
0.112461
0.11246
0.110983
0.110983
0.109576
0.109575
0.108246
0.108246
0.106999
0.106999
0.105838
0.105838
0.10476
0.10476
0.103764
0.103764
0.102844
0.102844
0.101995
0.101995
0.101211
0.101211
0.100483
0.100483
0.0998019
0.0998028
0.0991579
0.099159
0.0985391
0.0985404
0.0979327
0.0979343
0.0973252
0.0973269
0.0967024
0.0967043
0.0960503
0.0960525
0.0953561
0.0953585
0.0946088
0.0946113
0.0938002
0.0938028
0.0929262
0.0929288
0.0919874
0.0919898
0.0909901
0.090992
0.0899469
0.0899481
0.0888749
0.0888754
0.0877944
0.0877945
0.0867274
0.0867271
0.0856947
0.0856943
0.0847133
0.0847128
0.0837943
0.0837939
0.0829394
0.082939
0.0821426
0.0821421
0.0813905
0.08139
0.0806653
0.0806644
0.0799467
0.0799453
0.0792156
0.0792136
0.0784562
0.0784537
0.0776571
0.0776542
0.0768125
0.0768094
0.0759224
0.0759192
0.0749919
0.0749887
0.07403
0.0740269
0.0730478
0.0730449
0.0720574
0.0720547
0.071071
0.0710684
0.0700994
0.070097
0.0691522
0.06915
0.0682367
0.0682347
0.0673588
0.067357
0.0665223
0.0665206
0.0657297
0.0657281
0.0649821
0.0649807
0.0642799
0.0642787
0.0636225
0.0636213
0.0630086
0.0630075
0.0624363
0.0624354
0.0619034
0.0619026
0.0614072
0.0614064
0.0609445
0.0609438
0.0605122
0.0605115
0.060107
0.0601064
0.0597259
0.0597254
0.0593663
0.0593658
0.059026
0.0590255
0.0587036
0.0587032
0.0583983
0.0583979
0.0581099
0.0581096
0.0578388
0.0578385
0.0575855
0.0575852
0.0573507
0.0573504
0.057135
0.0571347
0.0569385
0.0569382
0.056761
0.0567608
0.0566021
0.0566018
0.0564605
0.0564603
0.0563349
0.0563347
0.0562233
0.0562231
0.0561235
0.0561233
0.0560334
0.0560332
0.0559509
0.0559508
0.0558749
0.0558748
0.0558049
0.0558048
0.0557416
0.0557415
0.055687
0.0556869
0.0556438
0.0556437
0.055615
0.0556149
0.0556026
0.0556026
0.0556077
0.0556076
0.055629
0.0556289
0.0556626
0.0556625
0.0557034
0.0557033
0.0557454
0.0557454
0.0557831
0.055783
0.0558121
0.055812
0.0558303
0.0558302
0.0558377
0.0558376
0.0558369
0.0558367
0.0558316
0.0558315
0.0558266
0.0558264
0.0558265
0.0558263
0.0558353
0.0558352
0.0558559
0.0558558
0.0558898
0.0558896
0.055937
0.0559368
0.0559967
0.0559965
0.0560671
0.0560669
0.0561462
0.056146
0.0562322
0.0562321
0.0563239
0.0563237
0.0564205
0.0564203
0.0565221
0.0565219
0.0566292
0.056629
0.0567428
0.0567426
0.0568635
0.0568633
0.0569913
0.0569911
0.0571254
0.0571252
0.0572635
0.0572633
0.0574022
0.0574019
0.057537
0.0575368
0.0576633
0.057663
0.0577763
0.0577759
0.0578716
0.0578712
0.057946
0.0579455
0.0579971
0.0579964
0.0580236
0.0580228
0.0580254
0.0580245
0.0580033
0.0580022
0.0579585
0.0579572
0.0578931
0.0578915
0.0578092
0.0578074
0.0577099
0.0577079
0.0575986
0.0575964
0.0574795
0.057477
0.0573572
0.0573546
0.057237
0.0572342
0.0571241
0.0571213
0.0570233
0.0570204
0.0569379
0.056935
0.056869
0.056866
0.0568147
0.0568117
0.0567678
0.0567647
0.0567165
0.0567133
0.0566432
0.0566397
0.056525
0.0565212
0.0563353
0.0563312
0.0560462
0.0560417
0.055633
0.0556283
0.0550803
0.0550753
0.0543856
0.0543805
0.0535629
0.0535576
0.05264
0.0526348
0.0516526
0.0516475
0.0506353
0.0506303
0.0496129
0.0496081
0.0485989
0.0485942
0.047594
0.0475894
0.0465908
0.0465864
0.0455818
0.0455775
0.0445612
0.044557
0.0435263
0.0435222
0.0424772
0.0424732
0.0414156
0.0414117
0.0403438
0.04034
0.0392644
0.0392607
0.0381799
0.0381762
0.0370924
0.0370888
0.0360039
0.0360004
0.034916
0.0349126
0.0338302
0.0338269
0.0327476
0.0327444
0.0316691
0.031666
0.0305956
0.0305926
0.0295278
0.0295248
0.0284662
0.0284633
0.0274115
0.0274087
0.0263642
0.0263615
0.025325
0.0253224
0.0242945
0.024292
0.0232733
0.0232709
0.022262
0.0222597
0.0212611
0.0212589
0.0202713
0.0202692
0.0192931
0.0192911
0.018327
0.0183251
0.0173736
0.0173717
0.0164333
0.0164315
0.0155066
0.0155049
0.0145942
0.0145925
0.0136965
0.0136949
0.0128141
0.0128126
0.0119477
0.0119463
0.0110978
0.0110964
0.010265
0.0102638
0.00945014
0.00944898
0.00865385
0.00865276
0.00787693
0.00787592
0.00712023
0.00711929
0.00638469
0.00638382
0.00567138
0.00567058
0.00498152
0.00498079
0.00431655
0.00431589
0.00367822
0.00367762
0.00306865
0.00306813
0.00249062
0.00249015
0.00194778
0.00194738
0.00144532
0.00144499
0.000991044
0.00099078
0.000597599
0.000597405
0.000286506
0.000286386
8.90124e-05
8.89627e-05
1.31296e-05
1.31208e-05
6.28949e-07
6.2851e-07
3.85471e-09
3.8518e-09
0.658388
0.658388
0.658576
0.658576
0.652092
0.652092
0.64393
0.64393
0.635097
0.635097
0.625965
0.625966
0.616679
0.616679
0.607299
0.607299
0.597852
0.597852
0.588354
0.588354
0.578814
0.578815
0.569241
0.569242
0.559641
0.559641
0.550018
0.550018
0.540377
0.540377
0.530722
0.530723
0.521057
0.521057
0.511384
0.511384
0.501705
0.501705
0.492024
0.492024
0.482346
0.482346
0.472676
0.472677
0.463023
0.463023
0.453395
0.453395
0.443803
0.443803
0.434257
0.434258
0.424771
0.424771
0.415353
0.415353
0.406013
0.406014
0.396759
0.39676
0.387597
0.387597
0.37853
0.378531
0.369564
0.369565
0.360704
0.360704
0.351955
0.351956
0.343326
0.343326
0.334823
0.334823
0.326455
0.326455
0.31823
0.318231
0.310157
0.310157
0.302242
0.302242
0.294492
0.294492
0.286914
0.286915
0.279514
0.279514
0.272296
0.272296
0.265266
0.265267
0.258429
0.25843
0.25179
0.251791
0.245354
0.245354
0.239124
0.239124
0.233105
0.233105
0.227298
0.227299
0.221705
0.221706
0.216324
0.216324
0.211149
0.21115
0.206176
0.206177
0.201398
0.201398
0.196808
0.196809
0.192401
0.192402
0.188173
0.188173
0.184121
0.184121
0.180246
0.180246
0.176549
0.176549
0.173032
0.173033
0.169699
0.169699
0.166551
0.166551
0.163588
0.163589
0.16081
0.160811
0.158213
0.158213
0.155791
0.155791
0.153535
0.153536
0.15144
0.15144
0.149499
0.149499
0.147705
0.147705
0.146056
0.146056
0.144546
0.144546
0.143168
0.143168
0.14191
0.141909
0.140753
0.140752
0.139673
0.139673
0.138644
0.138643
0.137638
0.137637
0.136633
0.136632
0.135619
0.135619
0.134599
0.134599
0.133586
0.133586
0.132606
0.132606
0.131685
0.131685
0.130844
0.130844
0.130092
0.130093
0.129426
0.129426
0.128818
0.128818
0.128232
0.128232
0.127623
0.127624
0.126947
0.126948
0.126165
0.126167
0.125251
0.125253
0.124194
0.124195
0.122993
0.122994
0.121662
0.121663
0.120223
0.120224
0.118706
0.118707
0.117141
0.117142
0.11556
0.115561
0.113991
0.113992
0.112459
0.112459
0.110982
0.110982
0.109574
0.109574
0.108245
0.108245
0.106998
0.106998
0.105837
0.105837
0.10476
0.10476
0.103763
0.103763
0.102844
0.102843
0.101995
0.101995
0.101211
0.10121
0.100483
0.100482
0.0998024
0.0998015
0.0991587
0.0991576
0.0985401
0.0985388
0.097934
0.0979324
0.0973266
0.0973248
0.096704
0.096702
0.0960521
0.0960499
0.0953581
0.0953556
0.0946109
0.0946083
0.0938024
0.0937997
0.0929283
0.0929257
0.0919892
0.0919868
0.0909915
0.0909895
0.0899476
0.0899463
0.0888748
0.0888743
0.0877939
0.0877939
0.0867266
0.0867269
0.0856938
0.0856942
0.0847124
0.0847129
0.0837935
0.0837939
0.0829386
0.0829391
0.0821418
0.0821423
0.0813897
0.0813903
0.0806641
0.0806651
0.079945
0.0799465
0.0792134
0.0792154
0.0784534
0.078456
0.0776539
0.077657
0.0768091
0.0768123
0.0759189
0.0759222
0.0749884
0.0749917
0.0740266
0.0740298
0.0730446
0.0730476
0.0720544
0.0720572
0.0710681
0.0710708
0.0700968
0.0700992
0.0691497
0.069152
0.0682345
0.0682366
0.0673567
0.0673586
0.0665204
0.0665221
0.0657279
0.0657295
0.0649805
0.064982
0.0642785
0.0642798
0.0636212
0.0636224
0.0630073
0.0630084
0.0624352
0.0624362
0.0619024
0.0619033
0.0614062
0.061407
0.0609436
0.0609444
0.0605114
0.0605121
0.0601063
0.0601069
0.0597253
0.0597258
0.0593657
0.0593662
0.0590254
0.0590259
0.0587031
0.0587035
0.0583978
0.0583982
0.0581095
0.0581099
0.0578384
0.0578388
0.0575851
0.0575855
0.0573504
0.0573507
0.0571346
0.0571349
0.0569382
0.0569384
0.0567607
0.056761
0.0566018
0.056602
0.0564603
0.0564605
0.0563347
0.0563349
0.0562231
0.0562232
0.0561233
0.0561235
0.0560332
0.0560333
0.0559508
0.0559509
0.0558748
0.0558749
0.0558048
0.0558049
0.0557415
0.0557416
0.0556869
0.055687
0.0556438
0.0556439
0.0556149
0.055615
0.0556026
0.0556027
0.0556077
0.0556077
0.0556289
0.055629
0.0556626
0.0556626
0.0557034
0.0557034
0.0557454
0.0557455
0.055783
0.0557831
0.055812
0.0558121
0.0558302
0.0558303
0.0558377
0.0558378
0.0558368
0.0558369
0.0558315
0.0558317
0.0558265
0.0558266
0.0558264
0.0558265
0.0558352
0.0558354
0.0558558
0.055856
0.0558897
0.0558899
0.0559369
0.0559371
0.0559966
0.0559968
0.056067
0.0560672
0.0561461
0.0561463
0.0562321
0.0562323
0.0563238
0.056324
0.0564204
0.0564206
0.0565219
0.0565222
0.0566291
0.0566293
0.0567427
0.0567429
0.0568634
0.0568636
0.0569912
0.0569914
0.0571253
0.0571255
0.0572634
0.0572636
0.057402
0.0574023
0.0575369
0.0575372
0.0576631
0.0576634
0.057776
0.0577764
0.0578713
0.0578717
0.0579455
0.0579461
0.0579965
0.0579972
0.0580229
0.0580237
0.0580246
0.0580255
0.0580022
0.0580034
0.0579573
0.0579587
0.0578916
0.0578932
0.0578075
0.0578094
0.057708
0.05771
0.0575964
0.0575988
0.0574771
0.0574796
0.0573547
0.0573573
0.0572343
0.0572371
0.0571214
0.0571243
0.0570205
0.0570234
0.0569351
0.056938
0.0568661
0.0568691
0.0568118
0.0568148
0.0567648
0.056768
0.0567134
0.0567167
0.0566398
0.0566434
0.0565213
0.0565252
0.0563313
0.0563354
0.0560418
0.0560463
0.0556284
0.0556332
0.0550754
0.0550804
0.0543805
0.0543857
0.0535577
0.053563
0.0526348
0.0526401
0.0516475
0.0516528
0.0506303
0.0506354
0.0496082
0.0496131
0.0485942
0.048599
0.0475895
0.0475941
0.0465865
0.046591
0.0455776
0.045582
0.0445571
0.0445613
0.0435223
0.0435264
0.0424733
0.0424773
0.0414118
0.0414158
0.0403401
0.040344
0.0392608
0.0392646
0.0381763
0.03818
0.0370889
0.0370925
0.0360005
0.036004
0.0349127
0.0349161
0.033827
0.0338303
0.0327444
0.0327477
0.0316661
0.0316692
0.0305927
0.0305957
0.0295249
0.0295279
0.0284634
0.0284663
0.0274088
0.0274116
0.0263616
0.0263643
0.0253225
0.0253251
0.0242921
0.0242946
0.0232709
0.0232734
0.0222597
0.0222621
0.021259
0.0212612
0.0202693
0.0202714
0.0192911
0.0192932
0.0183251
0.0183271
0.0173717
0.0173736
0.0164315
0.0164333
0.0155049
0.0155067
0.0145926
0.0145942
0.013695
0.0136965
0.0128127
0.0128142
0.0119463
0.0119477
0.0110965
0.0110978
0.0102638
0.0102651
0.00944901
0.00945018
0.00865279
0.00865388
0.00787594
0.00787696
0.00711931
0.00712026
0.00638384
0.00638472
0.0056706
0.0056714
0.00498081
0.00498154
0.00431591
0.00431658
0.00367763
0.00367823
0.00306814
0.00306867
0.00249016
0.00249063
0.00194739
0.00194779
0.001445
0.00144533
0.000990784
0.00099105
0.000597408
0.000597603
0.000286388
0.000286509
8.89634e-05
8.90136e-05
1.31209e-05
1.31298e-05
6.28516e-07
6.28958e-07
3.85183e-09
3.85476e-09
)
;

boundaryField
{
    walls
    {
        type            nutUWallFunction;
        blending        stepwise;
        Cmu             0.09;
        kappa           0.41;
        E               9.8;
        value           uniform 0;
    }
    inlet
    {
        type            cyclic;
    }
    outlet
    {
        type            cyclic;
    }
    sides
    {
        type            empty;
    }
}


// ************************************************************************* //
