/*--------------------------------*- C++ -*----------------------------------*\
| =========                 |                                                 |
| \\      /  F ield         | OpenFOAM: The Open Source CFD Toolbox           |
|  \\    /   O peration     | Version:  2012                                  |
|   \\  /    A nd           | Website:  www.openfoam.com                      |
|    \\/     M anipulation  |                                                 |
\*---------------------------------------------------------------------------*/
FoamFile
{
    version     2.0;
    format      ascii;
    class       volScalarField;
    location    "10800";
    object      omega;
}
// * * * * * * * * * * * * * * * * * * * * * * * * * * * * * * * * * * * * * //

dimensions      [0 0 -1 0 0 0 0];


internalField   nonuniform List<scalar> 
2560
(
1.52416e+06
1.52416e+06
264619
264622
88230
88232.6
40791.8
40793.3
23880.8
23881.3
16557.5
16557.5
12729.8
12729.6
10419.9
10419.6
8879.85
8879.59
7779.17
7778.9
6951.97
6951.71
6306.52
6306.28
5788.12
5787.89
5362.13
5361.92
5005.56
5005.36
4702.53
4702.34
4441.73
4441.55
4214.87
4214.7
4015.74
4015.57
3839.57
3839.42
3682.67
3682.52
3542.1
3541.96
3415.51
3415.38
3301
3300.86
3197
3196.87
3102.21
3102.08
3015.56
3015.44
2936.15
2936.03
2863.2
2863.09
2796.06
2795.95
2734.17
2734.06
2677.04
2676.93
2624.26
2624.15
2575.45
2575.34
2530.28
2530.18
2488.48
2488.38
2449.78
2449.68
2413.96
2413.85
2380.81
2380.7
2350.15
2350.04
2321.82
2321.72
2295.69
2295.59
2271.62
2271.52
2249.49
2249.39
2229.19
2229.09
2210.6
2210.5
2193.59
2193.49
2178.04
2177.94
2163.8
2163.7
2150.72
2150.62
2138.64
2138.54
2127.39
2127.29
2116.79
2116.69
2106.69
2106.59
2096.96
2096.86
2087.58
2087.47
2078.66
2078.55
2070.48
2070.37
2063.41
2063.29
2057.83
2057.71
2053.73
2053.6
2050.56
2050.43
2047.22
2047.08
2042.2
2042.07
2033.94
2033.81
2021.22
2021.1
2003.43
2003.32
1980.66
1980.55
1953.54
1953.45
1923.1
1923.02
1890.44
1890.37
1856.61
1856.54
1822.46
1822.4
1788.63
1788.58
1755.53
1755.47
1723.37
1723.32
1692.21
1692.16
1661.99
1661.94
1632.58
1632.53
1603.83
1603.79
1575.58
1575.54
1547.67
1547.63
1519.96
1519.93
1492.34
1492.32
1464.73
1464.72
1437.07
1437.06
1409.31
1409.3
1381.41
1381.41
1353.37
1353.37
1325.19
1325.2
1296.9
1296.91
1268.55
1268.55
1240.2
1240.21
1211.97
1211.98
1183.95
1183.96
1156.27
1156.28
1129.02
1129.03
1102.3
1102.31
1076.16
1076.17
1050.65
1050.66
1025.76
1025.77
1001.47
1001.48
977.77
977.781
954.618
954.629
931.992
932.003
909.882
909.892
888.285
888.295
867.213
867.223
846.682
846.692
826.709
826.719
807.307
807.316
788.474
788.483
770.19
770.199
752.419
752.428
735.106
735.114
718.182
718.191
701.575
701.584
685.216
685.224
669.049
669.058
653.046
653.054
637.205
637.214
621.554
621.563
606.143
606.152
591.034
591.043
576.287
576.295
561.948
561.956
548.046
548.053
534.577
534.584
521.518
521.524
508.832
508.838
496.478
496.484
484.419
484.425
472.629
472.635
461.091
461.097
449.802
449.807
438.765
438.771
427.989
427.994
417.482
417.487
407.252
407.257
397.303
397.308
387.636
387.64
378.248
378.252
369.133
369.137
360.281
360.285
351.682
351.685
343.321
343.325
335.187
335.19
327.265
327.269
319.548
319.551
312.027
312.03
304.699
304.702
297.566
297.569
290.63
290.633
283.898
283.901
277.378
277.38
271.077
271.079
265.002
265.004
259.161
259.162
253.556
253.557
248.192
248.193
243.069
243.069
238.185
238.185
233.537
233.537
229.12
229.119
224.924
224.922
220.937
220.935
217.142
217.139
213.517
213.514
210.036
210.033
206.667
206.663
203.374
203.369
200.12
200.115
196.868
196.862
193.585
193.58
190.249
190.243
186.844
186.839
183.372
183.367
179.848
179.844
176.3
176.298
172.767
172.766
169.293
169.293
165.922
165.922
162.691
162.691
159.625
159.624
156.732
156.732
154.008
154.008
151.429
151.429
148.96
148.96
146.561
146.562
144.193
144.195
141.819
141.822
139.412
139.416
136.95
136.954
134.425
134.429
131.836
131.84
129.192
129.196
126.506
126.509
123.794
123.797
121.075
121.079
118.369
118.372
115.692
115.695
113.062
113.064
110.491
110.493
107.992
107.994
105.574
105.575
103.244
103.245
101.009
101.01
98.8719
98.8729
96.8365
96.8373
94.9042
94.9049
93.0753
93.0759
91.3489
91.3494
89.7215
89.7218
88.1873
88.1876
86.7376
86.7377
85.3599
85.36
84.0382
84.0382
82.7529
82.7528
81.4817
81.4816
80.201
80.2008
78.8879
78.8876
77.5224
77.5221
76.0898
76.0894
74.5824
74.582
73.0014
73.0011
71.3568
71.3565
69.6663
69.6661
67.9536
67.9536
66.2452
66.2453
64.5652
64.5654
62.9319
62.9321
61.3566
61.3568
59.8393
59.8395
58.3723
58.3725
56.9434
56.9437
55.5385
55.5389
54.1452
54.1455
52.7559
52.7563
51.3692
51.3695
49.9883
49.9887
48.6206
48.6209
47.2746
47.2749
45.9585
45.9588
44.6786
44.6788
43.4385
43.4387
42.2398
42.24
41.0822
41.0823
39.9644
39.9646
38.8855
38.8856
37.8444
37.8445
36.8409
36.841
35.8748
35.8749
34.9458
34.9459
34.0536
34.0536
33.197
33.1971
32.3749
32.375
31.5856
31.5856
30.8271
30.8271
30.0976
30.0976
29.3955
29.3955
28.7194
28.7194
28.0682
28.0683
27.4414
27.4414
26.8384
26.8384
26.2594
26.2594
25.7043
25.7043
25.1732
25.1733
24.6664
24.6664
24.1836
24.1836
23.7244
23.7245
23.2885
23.2885
22.8751
22.8751
22.4834
22.4834
22.1127
22.1127
21.7623
21.7623
21.4314
21.4314
21.1194
21.1194
20.8258
20.8258
20.55
20.55
20.2914
20.2914
20.0495
20.0495
19.8237
19.8237
19.6136
19.6136
19.4185
19.4185
19.2381
19.2381
19.0718
19.0718
18.9192
18.9192
18.7801
18.7801
18.6541
18.6541
18.5412
18.5412
18.4412
18.4412
18.3541
18.3541
18.2798
18.2798
18.2181
18.2182
18.1689
18.1689
18.1319
18.1319
18.1069
18.1069
18.0936
18.0936
18.0919
18.0919
18.1017
18.1017
18.123
18.123
18.1559
18.1559
18.2005
18.2005
18.2571
18.2571
18.326
18.326
18.4076
18.4076
18.5021
18.5021
18.61
18.61
18.7316
18.7316
18.8672
18.8672
19.0173
19.0173
19.1821
19.1821
19.3621
19.3621
19.5572
19.5572
19.7673
19.7673
19.991
19.991
20.2237
20.2237
20.4529
20.4529
20.6435
20.6435
20.623
20.623
1.52416e+06
1.52416e+06
264622
264619
88232.6
88230
40793.3
40791.8
23881.3
23880.8
16557.5
16557.5
12729.6
12729.8
10419.6
10419.9
8879.59
8879.85
7778.91
7779.17
6951.71
6951.97
6306.28
6306.52
5787.9
5788.12
5361.92
5362.13
5005.36
5005.56
4702.34
4702.53
4441.55
4441.73
4214.7
4214.87
4015.58
4015.74
3839.42
3839.58
3682.52
3682.67
3541.96
3542.11
3415.38
3415.52
3300.87
3301
3196.87
3197
3102.08
3102.21
3015.44
3015.57
2936.03
2936.15
2863.09
2863.2
2795.95
2796.06
2734.06
2734.17
2676.93
2677.04
2624.15
2624.26
2575.34
2575.45
2530.18
2530.28
2488.38
2488.48
2449.68
2449.78
2413.85
2413.96
2380.7
2380.81
2350.04
2350.15
2321.72
2321.82
2295.59
2295.69
2271.52
2271.62
2249.39
2249.49
2229.09
2229.19
2210.5
2210.6
2193.49
2193.59
2177.94
2178.04
2163.7
2163.8
2150.62
2150.72
2138.54
2138.64
2127.29
2127.39
2116.69
2116.8
2106.59
2106.69
2096.86
2096.96
2087.47
2087.58
2078.55
2078.66
2070.37
2070.48
2063.29
2063.41
2057.71
2057.83
2053.61
2053.73
2050.43
2050.56
2047.08
2047.22
2042.07
2042.2
2033.81
2033.94
2021.1
2021.22
2003.32
2003.44
1980.55
1980.66
1953.45
1953.55
1923.02
1923.1
1890.37
1890.44
1856.54
1856.61
1822.4
1822.46
1788.58
1788.63
1755.47
1755.53
1723.32
1723.37
1692.16
1692.21
1661.94
1661.99
1632.53
1632.58
1603.79
1603.83
1575.54
1575.58
1547.63
1547.67
1519.93
1519.96
1492.32
1492.34
1464.72
1464.73
1437.06
1437.07
1409.3
1409.31
1381.41
1381.41
1353.37
1353.37
1325.2
1325.19
1296.91
1296.9
1268.55
1268.55
1240.21
1240.21
1211.98
1211.97
1183.97
1183.95
1156.28
1156.27
1129.03
1129.02
1102.31
1102.3
1076.17
1076.16
1050.66
1050.65
1025.77
1025.76
1001.48
1001.47
977.782
977.771
954.629
954.618
932.003
931.993
909.892
909.882
888.295
888.285
867.223
867.213
846.692
846.682
826.719
826.709
807.316
807.307
788.483
788.474
770.199
770.19
752.428
752.419
735.115
735.106
718.191
718.183
701.584
701.576
685.224
685.216
669.058
669.049
653.055
653.046
637.214
637.205
621.563
621.554
606.152
606.144
591.043
591.034
576.295
576.287
561.956
561.948
548.053
548.046
534.584
534.577
521.524
521.518
508.838
508.832
496.484
496.478
484.425
484.419
472.634
472.629
461.097
461.091
449.807
449.802
438.771
438.765
427.994
427.989
417.487
417.482
407.257
407.252
397.308
397.303
387.64
387.636
378.252
378.248
369.136
369.132
360.285
360.281
351.685
351.681
343.324
343.321
335.19
335.186
327.268
327.265
319.551
319.547
312.03
312.027
304.702
304.699
297.568
297.566
290.632
290.63
283.9
283.898
277.38
277.378
271.078
271.077
265.004
265.002
259.162
259.16
253.557
253.556
248.192
248.192
243.068
243.068
238.184
238.184
233.536
233.537
229.118
229.119
224.922
224.923
220.934
220.936
217.139
217.141
213.514
213.517
210.032
210.036
206.662
206.666
203.369
203.373
200.114
200.119
196.862
196.867
193.579
193.585
190.243
190.248
186.838
186.844
183.367
183.372
179.844
179.847
176.298
176.3
172.766
172.767
169.293
169.293
165.922
165.922
162.691
162.691
159.624
159.624
156.732
156.732
154.008
154.008
151.428
151.428
148.959
148.959
146.561
146.56
144.194
144.192
141.822
141.818
139.415
139.411
136.954
136.949
134.429
134.424
131.84
131.836
129.196
129.191
126.509
126.505
123.797
123.793
121.078
121.075
118.372
118.369
115.695
115.692
113.064
113.061
110.493
110.491
107.993
107.992
105.575
105.573
103.245
103.244
101.01
101.008
98.8725
98.8715
96.8369
96.836
94.9044
94.9036
93.0753
93.0747
91.3487
91.3482
89.7211
89.7207
88.1867
88.1864
86.7368
86.7367
85.359
85.3589
84.0372
84.0372
82.7518
82.7519
81.4805
81.4808
80.1998
80.2001
78.8868
78.8872
77.5213
77.5218
76.0888
76.0893
74.5816
74.5821
73.0008
73.0013
71.3564
71.3568
69.6662
69.6664
67.9536
67.9538
66.2454
66.2454
64.5655
64.5653
62.9321
62.9319
61.3567
61.3566
59.8393
59.8391
58.3723
58.3721
56.9434
56.9431
55.5386
55.5382
54.1454
54.1449
52.7562
52.7558
51.3695
51.3691
49.9888
49.9883
48.6211
48.6207
47.2751
47.2747
45.959
45.9587
44.679
44.6787
43.4388
43.4386
42.2401
42.2399
41.0824
41.0822
39.9646
39.9645
38.8857
38.8855
37.8446
37.8445
36.8411
36.8409
35.8749
35.8748
34.9459
34.9458
34.0536
34.0535
33.1971
33.197
32.3749
32.3748
31.5855
31.5855
30.827
30.827
30.0976
30.0975
29.3955
29.3954
28.7194
28.7193
28.0683
28.0682
27.4414
27.4414
26.8385
26.8384
26.2594
26.2594
25.7043
25.7043
25.1733
25.1733
24.6665
24.6664
24.1836
24.1836
23.7245
23.7245
23.2886
23.2886
22.8752
22.8751
22.4835
22.4834
22.1128
22.1127
21.7623
21.7623
21.4314
21.4314
21.1195
21.1194
20.8258
20.8258
20.55
20.55
20.2914
20.2914
20.0495
20.0495
19.8237
19.8237
19.6136
19.6135
19.4185
19.4185
19.2381
19.2381
19.0718
19.0718
18.9192
18.9192
18.7801
18.7801
18.6541
18.6541
18.5412
18.5412
18.4412
18.4412
18.3541
18.3541
18.2798
18.2798
18.2181
18.2181
18.1689
18.1689
18.1319
18.1319
18.1069
18.1069
18.0936
18.0936
18.0919
18.0919
18.1017
18.1017
18.123
18.123
18.1559
18.1559
18.2005
18.2005
18.2571
18.2571
18.326
18.326
18.4076
18.4076
18.5021
18.5021
18.61
18.61
18.7315
18.7316
18.8672
18.8672
19.0172
19.0172
19.182
19.182
19.3619
19.362
19.5571
19.5571
19.7672
19.7672
19.9907
19.9907
20.2234
20.2234
20.4525
20.4525
20.6431
20.6431
20.6226
20.6226
20.623
20.623
20.6436
20.6436
20.453
20.453
20.2238
20.2238
19.9911
19.9911
19.7675
19.7675
19.5573
19.5573
19.3622
19.3622
19.1822
19.1822
19.0174
19.0174
18.8673
18.8673
18.7317
18.7316
18.6101
18.6101
18.5022
18.5022
18.4076
18.4076
18.3261
18.3261
18.2572
18.2572
18.2005
18.2005
18.1559
18.1559
18.123
18.123
18.1017
18.1017
18.0919
18.0919
18.0936
18.0936
18.1069
18.1069
18.1319
18.1319
18.1689
18.1689
18.2181
18.2181
18.2798
18.2798
18.3541
18.3541
18.4411
18.4411
18.5411
18.5411
18.654
18.654
18.7799
18.7799
18.919
18.919
19.0715
19.0715
19.2378
19.2378
19.4181
19.4181
19.6131
19.6131
19.8232
19.8232
20.0489
20.0489
20.2908
20.2908
20.5493
20.5493
20.8251
20.8251
21.1187
21.1187
21.4305
21.4305
21.7614
21.7614
22.1117
22.1117
22.4824
22.4824
22.874
22.874
23.2873
23.2873
23.7231
23.7232
24.1822
24.1822
24.6649
24.6649
25.1717
25.1717
25.7026
25.7026
26.2576
26.2576
26.8365
26.8366
27.4394
27.4394
28.0662
28.0662
28.7172
28.7172
29.3931
29.3931
30.095
30.095
30.8243
30.8244
31.5827
31.5828
32.372
32.3721
33.1941
33.1941
34.0505
34.0506
34.9427
34.9428
35.8716
35.8717
36.8376
36.8377
37.841
37.8411
38.8819
38.882
39.9607
39.9609
41.0784
41.0785
42.236
42.2361
43.4346
43.4348
44.6746
44.6748
45.9545
45.9547
47.2705
47.2708
48.6166
48.617
49.9846
49.985
51.3657
51.3661
52.7527
52.7532
54.1422
54.1426
55.5358
55.5362
56.9409
56.9412
58.37
58.3702
59.8371
59.8373
61.3546
61.3548
62.9299
62.9301
64.5634
64.5635
66.2435
66.2436
67.9521
67.9521
69.6652
69.665
71.3561
71.3558
73.0009
73.0005
74.5817
74.5813
76.0889
76.0885
77.5213
77.521
78.8865
78.8862
80.1994
80.1992
81.48
81.4799
82.7512
82.7511
84.0363
84.0363
85.3578
85.3579
86.7352
86.7354
88.1846
88.1849
89.7185
89.7189
91.3456
91.3461
93.0717
93.0724
94.9003
94.9011
96.8323
96.8332
98.8674
98.8684
101.004
101.005
103.239
103.24
105.568
105.57
107.986
107.988
110.485
110.487
113.055
113.057
115.685
115.688
118.361
118.364
121.068
121.071
123.786
123.789
126.497
126.501
129.183
129.187
131.827
131.831
134.415
134.42
136.94
136.944
139.401
139.405
141.808
141.811
144.181
144.183
146.548
146.549
148.946
148.947
151.415
151.415
153.995
153.995
156.718
156.718
159.61
159.61
162.676
162.676
165.907
165.907
169.278
169.278
172.752
172.751
176.284
176.282
179.831
179.828
183.355
183.351
186.828
186.822
190.232
190.226
193.568
193.562
196.849
196.844
200.101
200.095
203.354
203.349
206.646
206.642
210.015
210.011
213.495
213.492
217.119
217.116
220.913
220.911
224.899
224.898
229.094
229.093
233.51
233.51
238.157
238.157
243.04
243.04
248.162
248.163
253.525
253.526
259.128
259.129
264.969
264.97
271.042
271.044
277.342
277.344
283.861
283.863
290.591
290.594
297.525
297.528
304.657
304.66
311.982
311.985
319.501
319.505
327.217
327.22
335.136
335.14
343.269
343.272
351.627
351.631
360.225
360.229
369.074
369.079
378.188
378.192
387.574
387.579
397.239
397.244
407.187
407.192
417.415
417.42
427.92
427.925
438.693
438.699
449.727
449.733
461.013
461.019
472.548
472.554
484.335
484.341
496.39
496.397
508.741
508.748
521.425
521.432
534.481
534.489
547.947
547.955
561.847
561.855
576.183
576.191
590.927
590.936
606.034
606.043
621.442
621.451
637.09
637.099
652.927
652.936
668.928
668.937
685.091
685.1
701.448
701.457
718.053
718.062
734.973
734.982
752.283
752.292
770.05
770.06
788.33
788.34
807.159
807.169
826.557
826.567
846.526
846.537
867.053
867.064
888.121
888.132
909.714
909.725
931.821
931.831
954.441
954.452
977.589
977.6
1001.29
1001.3
1025.57
1025.58
1050.45
1050.46
1075.96
1075.97
1102.09
1102.11
1128.81
1128.82
1156.06
1156.07
1183.74
1183.75
1211.75
1211.76
1239.98
1239.99
1268.32
1268.33
1296.67
1296.68
1324.97
1324.97
1353.14
1353.14
1381.18
1381.17
1409.07
1409.05
1436.82
1436.8
1464.48
1464.45
1492.07
1492.04
1519.68
1519.64
1547.38
1547.34
1575.29
1575.24
1603.53
1603.48
1632.27
1632.21
1661.66
1661.6
1691.88
1691.81
1723.03
1722.97
1755.18
1755.11
1788.28
1788.21
1822.1
1822.02
1856.24
1856.16
1890.07
1889.98
1922.72
1922.62
1953.17
1953.05
1980.28
1980.16
2003.07
2002.93
2020.86
2020.71
2033.58
2033.42
2041.83
2041.67
2046.84
2046.69
2050.18
2050.02
2053.35
2053.2
2057.45
2057.3
2063.03
2062.89
2070.09
2069.96
2078.28
2078.15
2087.2
2087.07
2096.58
2096.46
2106.32
2106.19
2116.43
2116.31
2127.03
2126.91
2138.29
2138.17
2150.37
2150.25
2163.45
2163.33
2177.69
2177.57
2193.24
2193.12
2210.25
2210.13
2228.84
2228.72
2249.14
2249.02
2271.27
2271.15
2295.33
2295.21
2321.46
2321.34
2349.78
2349.66
2380.44
2380.31
2413.58
2413.46
2449.4
2449.28
2488.09
2487.97
2529.89
2529.76
2575.04
2574.92
2623.85
2623.72
2676.62
2676.49
2733.74
2733.6
2795.62
2795.48
2862.75
2862.61
2935.68
2935.54
3015.08
3014.94
3101.72
3101.57
3196.49
3196.33
3300.47
3300.31
3414.97
3414.8
3541.54
3541.37
3682.08
3681.91
3838.96
3838.77
4015.1
4014.9
4214.2
4213.99
4441.03
4440.81
4701.79
4701.56
5004.78
5004.54
5361.3
5361.05
5787.24
5786.97
6305.58
6305.29
6950.96
6950.66
7778.09
7777.77
8878.69
8878.36
10418.6
10418.3
12728.4
12728.2
16556.2
16556.1
23879.8
23880.3
40791.7
40793.3
88231
88233.7
264620
264622
1.52417e+06
1.52417e+06
20.6226
20.6226
20.6431
20.6431
20.4526
20.4526
20.2235
20.2235
19.9908
19.9908
19.7673
19.7673
19.5572
19.5572
19.3621
19.3621
19.1821
19.1822
19.0173
19.0173
18.8672
18.8673
18.7316
18.7316
18.61
18.6101
18.5022
18.5022
18.4076
18.4076
18.3261
18.3261
18.2572
18.2572
18.2005
18.2005
18.1559
18.1559
18.123
18.123
18.1017
18.1017
18.0919
18.0919
18.0936
18.0936
18.1069
18.1069
18.1319
18.1319
18.1689
18.1689
18.2181
18.2181
18.2798
18.2798
18.3541
18.3541
18.4411
18.4411
18.5411
18.5411
18.654
18.654
18.7799
18.7799
18.919
18.919
19.0715
19.0715
19.2378
19.2377
19.4181
19.4181
19.6131
19.6131
19.8232
19.8232
20.0489
20.0489
20.2908
20.2908
20.5493
20.5493
20.8251
20.8251
21.1187
21.1187
21.4306
21.4305
21.7614
21.7614
22.1118
22.1117
22.4824
22.4824
22.874
22.874
23.2874
23.2873
23.7232
23.7232
24.1822
24.1822
24.665
24.665
25.1718
25.1717
25.7027
25.7026
26.2577
26.2576
26.8366
26.8365
27.4394
27.4394
28.0662
28.0661
28.7172
28.7171
29.3931
29.393
30.095
30.0949
30.8243
30.8242
31.5827
31.5826
32.372
32.3719
33.1941
33.194
34.0506
34.0505
34.9428
34.9427
35.8717
35.8716
36.8377
36.8376
37.8411
37.841
38.8821
38.8819
39.961
39.9608
41.0786
41.0784
42.2363
42.236
43.4349
43.4346
44.675
44.6747
45.9549
45.9546
47.271
47.2706
48.6171
48.6167
49.985
49.9845
51.3661
51.3656
52.7531
52.7526
54.1424
54.142
55.5359
55.5355
56.941
56.9406
58.37
58.3698
59.8371
59.8369
61.3547
61.3545
62.9301
62.9299
64.5636
64.5635
66.2437
66.2436
67.9521
67.9523
69.665
69.6653
71.3556
71.356
73.0002
73.0007
74.5809
74.5814
76.0879
76.0884
77.5202
77.5207
78.8853
78.8857
80.1982
80.1985
81.4788
81.4791
82.75
82.7502
84.0353
84.0353
85.3569
85.3568
86.7344
86.7343
88.1841
88.1838
89.7181
89.7177
91.3455
91.345
93.0718
93.0711
94.9006
94.8998
96.8328
96.8319
98.8681
98.867
101.005
101.004
103.24
103.239
105.57
105.568
107.988
107.986
110.487
110.484
113.057
113.055
115.688
115.685
118.364
118.361
121.071
121.067
123.789
123.785
126.501
126.497
129.187
129.183
131.831
131.826
134.419
134.414
136.944
136.939
139.405
139.4
141.811
141.807
144.182
144.18
146.549
146.547
148.946
148.946
151.415
151.415
153.994
153.994
156.718
156.718
159.61
159.61
162.676
162.676
165.907
165.907
169.278
169.278
172.75
172.751
176.282
176.284
179.827
179.831
183.35
183.355
186.822
186.827
190.226
190.232
193.562
193.568
196.843
196.849
200.095
200.1
203.349
203.354
206.641
206.646
210.011
210.014
213.491
213.495
217.116
217.118
220.91
220.913
224.897
224.899
229.093
229.094
233.51
233.51
238.157
238.157
243.04
243.039
248.162
248.162
253.526
253.525
259.129
259.128
264.97
264.968
271.044
271.042
277.344
277.342
283.863
283.861
290.593
290.591
297.528
297.525
304.66
304.657
311.985
311.982
319.505
319.501
327.22
327.217
335.14
335.136
343.273
343.269
351.631
351.627
360.229
360.225
369.079
369.075
378.192
378.188
387.579
387.574
397.244
397.24
407.192
407.187
417.42
417.415
427.925
427.92
438.699
438.694
449.733
449.728
461.019
461.014
472.554
472.548
484.342
484.336
496.397
496.391
508.748
508.742
521.432
521.425
534.489
534.482
547.956
547.948
561.856
561.848
576.192
576.184
590.937
590.928
606.044
606.035
621.452
621.443
637.1
637.091
652.938
652.929
668.938
668.929
685.102
685.093
701.458
701.45
718.063
718.054
734.984
734.975
752.294
752.285
770.061
770.052
788.341
788.332
807.171
807.161
826.569
826.559
846.538
846.528
867.066
867.055
888.134
888.123
909.726
909.716
931.833
931.823
954.454
954.444
977.602
977.592
1001.3
1001.29
1025.58
1025.57
1050.47
1050.46
1075.98
1075.97
1102.11
1102.1
1128.83
1128.82
1156.07
1156.06
1183.75
1183.74
1211.76
1211.75
1239.99
1239.98
1268.33
1268.32
1296.68
1296.68
1324.97
1324.97
1353.14
1353.15
1381.17
1381.18
1409.06
1409.07
1436.81
1436.83
1464.46
1464.48
1492.05
1492.08
1519.65
1519.68
1547.34
1547.39
1575.24
1575.29
1603.48
1603.54
1632.21
1632.27
1661.61
1661.67
1691.82
1691.88
1722.97
1723.04
1755.12
1755.19
1788.21
1788.28
1822.03
1822.11
1856.16
1856.25
1889.98
1890.07
1922.63
1922.73
1953.06
1953.17
1980.16
1980.29
2002.93
2003.07
2020.72
2020.87
2033.43
2033.59
2041.68
2041.84
2046.69
2046.85
2050.03
2050.19
2053.21
2053.36
2057.31
2057.46
2062.89
2063.04
2069.97
2070.1
2078.15
2078.29
2087.08
2087.21
2096.46
2096.59
2106.2
2106.33
2116.31
2116.44
2126.92
2127.04
2138.17
2138.3
2150.26
2150.38
2163.33
2163.46
2177.58
2177.7
2193.13
2193.25
2210.14
2210.26
2228.73
2228.85
2249.03
2249.15
2271.15
2271.27
2295.22
2295.34
2321.35
2321.47
2349.67
2349.79
2380.32
2380.45
2413.47
2413.59
2449.28
2449.41
2487.98
2488.1
2529.77
2529.9
2574.92
2575.05
2623.72
2623.86
2676.5
2676.63
2733.61
2733.75
2795.49
2795.63
2862.62
2862.76
2935.55
2935.69
3014.95
3015.1
3101.57
3101.73
3196.34
3196.5
3300.32
3300.48
3414.81
3414.98
3541.38
3541.55
3681.91
3682.1
3838.78
3838.97
4014.91
4015.11
4214
4214.21
4440.82
4441.04
4701.57
4701.8
5004.55
5004.79
5361.06
5361.32
5786.98
5787.26
6305.31
6305.6
6950.67
6950.98
7777.79
7778.11
8878.38
8878.71
10418.3
10418.6
12728.2
12728.5
16556.2
16556.2
23880.3
23879.8
40793.3
40791.7
88233.7
88230.9
264622
264620
1.52417e+06
1.52417e+06
)
;

boundaryField
{
    walls
    {
        blending        binomial2;
        n               2;
        beta1           0.075;
        type            omegaWallFunction;
        value           nonuniform List<scalar> 8(1.52416e+06 1.52416e+06 1.52416e+06 1.52416e+06 1.52417e+06 1.52417e+06 1.52417e+06 1.52417e+06);
    }
    inlet
    {
        type            cyclic;
    }
    outlet
    {
        type            cyclic;
    }
    sides
    {
        type            empty;
    }
}


// ************************************************************************* //
