/*--------------------------------*- C++ -*----------------------------------*\
| =========                 |                                                 |
| \\      /  F ield         | OpenFOAM: The Open Source CFD Toolbox           |
|  \\    /   O peration     | Version:  2012                                  |
|   \\  /    A nd           | Website:  www.openfoam.com                      |
|    \\/     M anipulation  |                                                 |
\*---------------------------------------------------------------------------*/
FoamFile
{
    version     2.0;
    format      ascii;
    class       volScalarField;
    location    "10800";
    object      p;
}
// * * * * * * * * * * * * * * * * * * * * * * * * * * * * * * * * * * * * * //

dimensions      [0 2 -2 0 0 0 0];


internalField   nonuniform List<scalar> 
2560
(
-2.38439e-09
-0.842845
-3.63045e-05
-0.842873
-4.09121e-05
-0.842878
-3.51804e-05
-0.842881
-3.17554e-05
-0.842883
-3.08589e-05
-0.842884
-3.02722e-05
-0.842885
-3.00825e-05
-0.842885
-2.95015e-05
-0.842885
-2.94456e-05
-0.842885
-2.87432e-05
-0.842885
-2.88294e-05
-0.842886
-3.13202e-05
-0.842884
-4.28983e-05
-0.842371
-8.59687e-05
-0.843001
-0.00017989
-0.841932
-0.000357253
-0.843529
-0.000575657
-0.843547
-0.00082533
-0.84438
-0.00106968
-0.844404
-0.00133858
-0.845327
-0.00158912
-0.845345
-0.00185879
-0.84633
-0.00211122
-0.844033
-0.00245394
-0.847594
-0.00285633
-0.845538
-0.00343785
-0.849484
-0.00408154
-0.849552
-0.00488652
-0.85196
-0.00565816
-0.852093
-0.00653742
-0.854712
-0.00727528
-0.854837
-0.00809455
-0.857441
-0.00869125
-0.857499
-0.00942863
-0.860009
-0.00995455
-0.855839
-0.0108103
-0.862844
-0.0115275
-0.843822
-0.0127955
-0.867081
-0.0139422
-0.842325
-0.0157766
-0.873409
-0.0173956
-0.854813
-0.0197241
-0.881592
-0.021652
-0.875795
-0.0242638
-0.890784
-0.0262965
-0.890529
-0.0290594
-0.900415
-0.0311334
-0.898429
-0.0341194
-0.910531
-0.0364156
-0.844221
-0.0399766
-0.923566
-0.0434049
-0.91244
-0.0494013
-0.940748
-0.0574882
-0.942333
-0.0713567
-0.970811
-0.0914899
-0.977271
-0.12142
-1.02951
-0.160754
-1.04465
-0.209943
-1.12746
-0.265351
-1.15125
-0.322712
-1.25059
-0.376204
-1.27575
-0.419554
-1.35855
-0.449509
-1.37417
-0.462344
-1.41278
-0.460649
-1.4111
-0.444293
-1.37099
-0.419937
-1.35971
-0.388457
-1.29995
-0.356595
-1.28632
-0.323876
-1.22731
-0.294948
-1.21516
-0.267873
-0.26418
-0.245444
-0.251108
-0.225187
-0.221767
-0.209
-0.212566
-0.194621
-0.191352
-0.183579
-0.18494
-0.173978
-0.170775
-0.167057
-0.166612
-0.161219
-0.158039
-0.157454
-0.155623
-0.15437
-0.151197
-0.152766
-0.15002
-0.15152
-0.148357
-0.151372
-0.148008
-0.151508
-0.148334
-0.152684
-0.149624
-0.154372
-0.151217
-0.157335
-0.154277
-0.161228
-0.158092
-0.166724
-0.163672
-0.17351
-0.170394
-0.182043
-0.178999
-0.1919
-0.188805
-0.203268
-0.200235
-0.215586
-0.212513
-0.228802
-0.225782
-0.242308
-0.239257
-0.255968
-0.252963
-0.269256
-0.266227
-0.282103
-0.279114
-0.294154
-0.291146
-0.305471
-0.302498
-0.315886
-0.312899
-0.32556
-0.322603
-0.334444
-0.331477
-0.34273
-0.339789
-0.350413
-0.347465
-0.357673
-0.354748
-0.364511
-0.361582
-0.37109
-0.368181
-0.377433
-0.374524
-0.383699
-0.380809
-0.389943
-0.387054
-0.396348
-0.393478
-0.402983
-0.400116
-0.410007
-0.407158
-0.417493
-0.41465
-0.425579
-0.422754
-0.434335
-0.431519
-0.443903
-0.441106
-0.454388
-0.451601
-0.465989
-0.463221
-0.478902
-0.476147
-0.493423
-0.490687
-0.509853
-0.507131
-0.528554
-0.525851
-0.54986
-0.547171
-0.574078
-0.571409
-0.601403
-0.598749
-0.631913
-0.629277
-0.665476
-0.662855
-0.701764
-0.69916
-0.740209
-0.737621
-0.780067
-0.777495
-0.820416
-0.81786
-0.860268
-0.857728
-0.898615
-0.89609
-0.934554
-0.932045
-0.967328
-0.964834
-0.996412
-0.993934
-1.02151
-1.01905
-1.04258
-1.04013
-1.05977
-1.05734
-1.07342
-1.071
-1.08397
-1.08156
-1.0919
-1.08951
-1.0977
-1.09533
-1.10186
-1.09949
-1.10475
-1.1024
-1.10673
-1.10439
-1.10806
-1.10573
-1.10893
-1.10662
-1.10949
-1.1072
-1.10986
-1.10757
-1.11009
-1.10781
-1.11022
-1.10796
-1.1103
-1.10805
-1.11034
-1.1081
-1.11034
-1.10811
-1.11032
-1.1081
-1.11027
-1.10807
-1.11022
-1.10802
-1.11015
-1.10796
-1.11007
-1.1079
-1.10998
-1.10782
-1.10989
-1.10774
-1.1098
-1.10766
-1.10971
-1.10758
-1.10962
-1.10749
-1.10953
-1.10742
-1.10945
-1.10734
-1.10938
-1.10728
-1.10932
-1.10722
-1.10926
-1.10716
-1.10922
-1.10712
-1.10918
-1.10708
-1.10915
-1.10705
-1.10912
-1.10703
-1.1091
-1.10701
-1.10909
-1.107
-1.10907
-1.10699
-1.10906
-1.10698
-1.10905
-1.10697
-1.10904
-1.10696
-1.10903
-1.10695
-1.10901
-1.10694
-1.10898
-1.10691
-1.10894
-1.10688
-1.10889
-1.10682
-1.10882
-1.10675
-1.10871
-1.10665
-1.10856
-1.1065
-1.10835
-1.1063
-1.10808
-1.10604
-1.10773
-1.10569
-1.10726
-1.10524
-1.10667
-1.10466
-1.10593
-1.10393
-1.105
-1.10302
-1.10387
-1.1019
-1.1025
-1.10055
-1.10088
-1.09895
-1.09897
-1.09706
-1.09677
-1.09488
-1.09426
-1.09239
-1.09145
-1.08959
-1.08832
-1.08649
-1.08491
-1.0831
-1.08123
-1.07944
-1.07731
-1.07554
-1.07318
-1.07143
-1.06886
-1.06713
-1.06438
-1.06267
-1.05976
-1.05808
-1.05502
-1.05336
-1.05017
-1.04852
-1.0452
-1.04357
-1.0401
-1.03849
-1.03487
-1.03328
-1.02949
-1.02791
-1.02395
-1.02238
-1.01824
-1.01668
-1.01236
-1.01081
-1.00632
-1.00477
-1.00012
-0.998577
-0.993794
-0.992254
-0.987371
-0.985833
-0.980876
-0.979338
-0.974349
-0.972811
-0.967811
-0.966275
-0.961299
-0.959763
-0.954827
-0.953291
-0.948412
-0.946877
-0.942056
-0.940523
-0.935764
-0.934235
-0.929528
-0.928004
-0.923344
-0.921826
-0.917198
-0.915688
-0.911086
-0.909585
-0.90499
-0.903499
-0.898913
-0.897433
-0.89284
-0.891371
-0.886776
-0.885318
-0.880705
-0.87926
-0.874638
-0.873204
-0.868556
-0.867134
-0.862469
-0.861058
-0.856356
-0.854957
-0.850224
-0.848837
-0.844047
-0.842671
-0.837835
-0.83647
-0.831558
-0.830204
-0.825227
-0.823884
-0.818812
-0.817481
-0.812329
-0.81101
-0.805751
-0.804444
-0.799098
-0.797805
-0.79234
-0.79106
-0.785508
-0.784242
-0.778566
-0.777316
-0.771551
-0.770316
-0.764429
-0.763209
-0.757234
-0.756031
-0.749935
-0.748749
-0.742574
-0.741406
-0.735115
-0.733965
-0.727607
-0.726475
-0.720015
-0.718903
-0.712397
-0.711303
-0.704714
-0.703639
-0.697027
-0.69597
-0.689296
-0.688258
-0.681584
-0.680564
-0.67384
-0.672839
-0.666129
-0.665146
-0.658391
-0.657427
-0.650686
-0.64974
-0.642947
-0.642019
-0.635233
-0.634324
-0.62747
-0.626579
-0.619726
-0.618852
-0.611923
-0.611068
-0.604142
-0.603305
-0.596312
-0.595493
-0.588526
-0.587724
-0.580721
-0.579936
-0.573001
-0.572232
-0.565307
-0.564557
-0.557755
-0.557021
-0.550281
-0.549564
-0.542999
-0.542299
-0.535838
-0.535156
-0.528909
-0.528243
-0.52213
-0.521485
-0.515604
-0.514974
-0.509235
-0.508627
-0.50312
-0.502529
-0.497156
-0.496588
-0.491432
-0.490881
-0.485837
-0.485314
-0.48046
-0.479954
-0.475184
-0.474708
-0.470097
-0.469639
-0.465083
-0.464659
-0.460232
-0.459825
-0.455436
-0.455067
-0.450798
-0.450446
-0.446224
-0.445916
-0.441839
-0.441546
-0.437573
-0.437332
-0.433578
-0.433349
-0.429809
-0.429641
-0.42644
-0.426284
-0.423454
-0.423346
-0.421007
-0.420909
-0.419103
-0.419039
-0.417852
-0.417794
-0.417259
-0.417217
-0.845787
-0.000602708
-0.845815
-0.00063901
-0.84582
-0.000643615
-0.845823
-0.000637876
-0.845825
-0.000634446
-0.845826
-0.000633532
-0.845826
-0.000632934
-0.845827
-0.000632665
-0.845827
-0.000632075
-0.845827
-0.000631955
-0.845827
-0.000631157
-0.845828
-0.000631162
-0.845826
-0.000633631
-0.845313
-0.000645401
-0.845943
-0.000688525
-0.844874
-0.000782535
-0.846471
-0.000959838
-0.846489
-0.0011782
-0.847322
-0.00142779
-0.847346
-0.00167207
-0.848269
-0.00194089
-0.848287
-0.00219137
-0.849272
-0.002461
-0.846975
-0.00271338
-0.850536
-0.00305608
-0.84848
-0.00345844
-0.852426
-0.00403994
-0.852494
-0.00468362
-0.854902
-0.00548858
-0.855035
-0.00626019
-0.857654
-0.00713943
-0.857779
-0.00787727
-0.860383
-0.00869652
-0.860441
-0.00929317
-0.862951
-0.0100305
-0.858781
-0.0105564
-0.865786
-0.0114121
-0.846764
-0.0121292
-0.870023
-0.0133972
-0.845267
-0.0145438
-0.876351
-0.0163782
-0.857755
-0.0179971
-0.884534
-0.0203255
-0.878737
-0.0222534
-0.893725
-0.0248651
-0.893471
-0.0268977
-0.903357
-0.0296605
-0.901371
-0.0317344
-0.913472
-0.0347203
-0.847163
-0.0370164
-0.926508
-0.0405773
-0.915382
-0.0440055
-0.94369
-0.0500018
-0.945275
-0.0580886
-0.973753
-0.071957
-0.980213
-0.0920901
-1.03245
-0.12202
-1.04759
-0.161354
-1.1304
-0.210543
-1.15419
-0.265951
-1.25353
-0.323311
-1.27869
-0.376804
-1.36149
-0.420154
-1.37712
-0.450108
-1.41573
-0.462943
-1.41404
-0.461248
-1.37393
-0.444892
-1.36265
-0.420536
-1.30289
-0.389056
-1.28926
-0.357193
-1.23026
-0.324475
-1.2181
-0.295547
-0.26712
-0.268471
-0.254048
-0.246042
-0.224707
-0.225785
-0.215506
-0.209598
-0.194292
-0.195219
-0.18788
-0.184178
-0.173715
-0.174576
-0.169552
-0.167655
-0.160979
-0.161817
-0.158563
-0.158052
-0.154138
-0.154968
-0.15296
-0.153364
-0.151298
-0.152118
-0.150948
-0.15197
-0.151274
-0.152106
-0.152564
-0.153281
-0.154158
-0.15497
-0.157217
-0.157932
-0.161033
-0.161826
-0.166612
-0.167322
-0.173334
-0.174107
-0.181939
-0.18264
-0.191746
-0.192497
-0.203175
-0.203866
-0.215453
-0.216183
-0.228723
-0.2294
-0.242197
-0.242905
-0.255903
-0.256565
-0.269167
-0.269852
-0.282054
-0.2827
-0.294086
-0.29475
-0.305438
-0.306068
-0.31584
-0.316483
-0.325544
-0.326157
-0.334417
-0.33504
-0.34273
-0.343327
-0.350406
-0.351009
-0.357689
-0.35827
-0.364523
-0.365107
-0.371122
-0.371687
-0.377464
-0.378029
-0.38375
-0.384296
-0.389994
-0.390539
-0.396418
-0.396946
-0.403056
-0.403579
-0.410099
-0.410604
-0.41759
-0.418089
-0.425695
-0.426177
-0.43446
-0.434931
-0.444047
-0.444501
-0.454542
-0.454983
-0.466163
-0.466587
-0.479087
-0.479497
-0.493629
-0.494021
-0.510072
-0.510448
-0.528793
-0.529152
-0.550112
-0.550454
-0.574351
-0.574676
-0.601689
-0.601997
-0.632219
-0.632511
-0.665795
-0.66607
-0.702102
-0.702362
-0.740561
-0.740803
-0.780437
-0.780665
-0.8208
-0.821009
-0.86067
-0.860866
-0.89903
-0.899208
-0.934987
-0.935153
-0.967774
-0.967921
-0.996877
-0.997011
-1.02199
-1.0221
-1.04307
-1.04318
-1.06028
-1.06036
-1.07395
-1.07402
-1.0845
-1.08456
-1.09245
-1.09249
-1.09827
-1.0983
-1.10244
-1.10245
-1.10534
-1.10534
-1.10734
-1.10733
-1.10867
-1.10865
-1.10956
-1.10953
-1.11014
-1.11009
-1.11052
-1.11046
-1.11075
-1.11068
-1.11091
-1.11082
-1.11099
-1.11089
-1.11104
-1.11094
-1.11106
-1.11093
-1.11104
-1.11091
-1.11101
-1.11087
-1.11097
-1.11081
-1.11091
-1.11074
-1.11084
-1.11067
-1.11077
-1.11058
-1.11069
-1.11049
-1.11061
-1.1104
-1.11052
-1.1103
-1.11044
-1.11021
-1.11036
-1.11013
-1.11029
-1.11005
-1.11022
-1.10997
-1.11016
-1.10991
-1.11011
-1.10985
-1.11007
-1.10981
-1.11003
-1.10977
-1.11
-1.10974
-1.10997
-1.10971
-1.10996
-1.1097
-1.10994
-1.10968
-1.10993
-1.10967
-1.10992
-1.10965
-1.10992
-1.10965
-1.10991
-1.10963
-1.1099
-1.10962
-1.10988
-1.10959
-1.10986
-1.10958
-1.10982
-1.10953
-1.10977
-1.10949
-1.1097
-1.1094
-1.10959
-1.10931
-1.10945
-1.10914
-1.10925
-1.10895
-1.10899
-1.10867
-1.10864
-1.10832
-1.10819
-1.10785
-1.10761
-1.10727
-1.10688
-1.10651
-1.10597
-1.1056
-1.10485
-1.10445
-1.1035
-1.1031
-1.1019
-1.10146
-1.10001
-1.09957
-1.09783
-1.09735
-1.09534
-1.09485
-1.09254
-1.09203
-1.08945
-1.08891
-1.08605
-1.08549
-1.0824
-1.08182
-1.0785
-1.07789
-1.07439
-1.07376
-1.07009
-1.06943
-1.06563
-1.06496
-1.06103
-1.06033
-1.05632
-1.0556
-1.05148
-1.05074
-1.04654
-1.04578
-1.04145
-1.04067
-1.03625
-1.03545
-1.03087
-1.03006
-1.02536
-1.02453
-1.01965
-1.01881
-1.01378
-1.01294
-1.00773
-1.00688
-1.00155
-1.00069
-0.99522
-0.994356
-0.98881
-0.987945
-0.982304
-0.981437
-0.975789
-0.974923
-0.969239
-0.968372
-0.962742
-0.961875
-0.956254
-0.955386
-0.949857
-0.948988
-0.943485
-0.942613
-0.937217
-0.936341
-0.930965
-0.930083
-0.924812
-0.923921
-0.918649
-0.917749
-0.912574
-0.911663
-0.906462
-0.905537
-0.900428
-0.89949
-0.894334
-0.893381
-0.888319
-0.887351
-0.882224
-0.881239
-0.876212
-0.875211
-0.8701
-0.869082
-0.864075
-0.863041
-0.857924
-0.856874
-0.851861
-0.850795
-0.845639
-0.844556
-0.839505
-0.838406
-0.833172
-0.832057
-0.82693
-0.825797
-0.820449
-0.819299
-0.814068
-0.812899
-0.807413
-0.806225
-0.800877
-0.799667
-0.794031
-0.792799
-0.787331
-0.786075
-0.780288
-0.779007
-0.773424
-0.772116
-0.766184
-0.764848
-0.759162
-0.757796
-0.751727
-0.750331
-0.744562
-0.743132
-0.736947
-0.735483
-0.72966
-0.72816
-0.721889
-0.720353
-0.71452
-0.712945
-0.70663
-0.705018
-0.699223
-0.69757
-0.691254
-0.689563
-0.683855
-0.682121
-0.675841
-0.674067
-0.66848
-0.666662
-0.660434
-0.658575
-0.65312
-0.651214
-0.64503
-0.643083
-0.637753
-0.635755
-0.629594
-0.627555
-0.622336
-0.620243
-0.614088
-0.611953
-0.606847
-0.604655
-0.598516
-0.596282
-0.591328
-0.589034
-0.582962
-0.580627
-0.575904
-0.573504
-0.567585
-0.565146
-0.560765
-0.558255
-0.552594
-0.550047
-0.54612
-0.543495
-0.538187
-0.535526
-0.53215
-0.5294
-0.524517
-0.521734
-0.518974
-0.516087
-0.511664
-0.508745
-0.506632
-0.503592
-0.499633
-0.496564
-0.495099
-0.491886
-0.488369
-0.485133
-0.4843
-0.48089
-0.477779
-0.474357
-0.474129
-0.470495
-0.467749
-0.464121
-0.464475
-0.460589
-0.458182
-0.454328
-0.455274
-0.451102
-0.449059
-0.444958
-0.446573
-0.442077
-0.440507
-0.436138
-0.438599
-0.433733
-0.410469
-0.428192
-0.408804
-0.426315
-0.40398
-0.421873
-0.402741
-0.420591
-0.399411
-0.417638
-0.398744
-0.417106
-0.397199
-0.416049
-0.41726
-0.417217
-0.417852
-0.417792
-0.419105
-0.419036
-0.42101
-0.420906
-0.423457
-0.423343
-0.426442
-0.426278
-0.429814
-0.429638
-0.43358
-0.433342
-0.437577
-0.437325
-0.441844
-0.441539
-0.44623
-0.44591
-0.450803
-0.450438
-0.455442
-0.45506
-0.46024
-0.459817
-0.465091
-0.464651
-0.470104
-0.469628
-0.475191
-0.474697
-0.480467
-0.479942
-0.485844
-0.4853
-0.491441
-0.49087
-0.497165
-0.496575
-0.50313
-0.502515
-0.509244
-0.508612
-0.515612
-0.514957
-0.522139
-0.521467
-0.528922
-0.528229
-0.535846
-0.535137
-0.543012
-0.542283
-0.550292
-0.549547
-0.557764
-0.556999
-0.565321
-0.56454
-0.573014
-0.572214
-0.580738
-0.579921
-0.58854
-0.587703
-0.596332
-0.595477
-0.604155
-0.603281
-0.611936
-0.611044
-0.619741
-0.618829
-0.627483
-0.626553
-0.635251
-0.634302
-0.642962
-0.641994
-0.650704
-0.649717
-0.658409
-0.657402
-0.666149
-0.665122
-0.673856
-0.67281
-0.681605
-0.680539
-0.689313
-0.688228
-0.697046
-0.695941
-0.704733
-0.703608
-0.712418
-0.711274
-0.720034
-0.718869
-0.727632
-0.726448
-0.735138
-0.733935
-0.742593
-0.74137
-0.74996
-0.748718
-0.757258
-0.755998
-0.764457
-0.763179
-0.771576
-0.770282
-0.778591
-0.77728
-0.78553
-0.784203
-0.792374
-0.791032
-0.799126
-0.797769
-0.805783
-0.804413
-0.812359
-0.810976
-0.818845
-0.817449
-0.825254
-0.823845
-0.831583
-0.830162
-0.837868
-0.836436
-0.844079
-0.842634
-0.85026
-0.848804
-0.856384
-0.854916
-0.862495
-0.861015
-0.868587
-0.867094
-0.874665
-0.873159
-0.880734
-0.879216
-0.886806
-0.885275
-0.892876
-0.891332
-0.898952
-0.897397
-0.905032
-0.903465
-0.911125
-0.909548
-0.917233
-0.915646
-0.923381
-0.921786
-0.929561
-0.927959
-0.935798
-0.93419
-0.942095
-0.940484
-0.948444
-0.94683
-0.954856
-0.953241
-0.96134
-0.959724
-0.967849
-0.966233
-0.974376
-0.972759
-0.980911
-0.979295
-0.987405
-0.985787
-0.993825
-0.992205
-1.00015
-0.99853
-1.00636
-1.00473
-1.01241
-1.01077
-1.01828
-1.01664
-1.024
-1.02234
-1.02953
-1.02787
-1.03491
-1.03323
-1.04014
-1.03844
-1.04524
-1.04353
-1.05021
-1.04848
-1.05507
-1.05331
-1.05981
-1.05804
-1.06442
-1.06263
-1.0689
-1.06708
-1.07323
-1.07138
-1.07736
-1.07549
-1.08127
-1.07938
-1.08496
-1.08304
-1.08837
-1.08644
-1.09149
-1.08953
-1.09431
-1.09233
-1.09682
-1.09482
-1.09902
-1.097
-1.10093
-1.09889
-1.10256
-1.1005
-1.10392
-1.10184
-1.10505
-1.10296
-1.10598
-1.10387
-1.10672
-1.1046
-1.10731
-1.10518
-1.10778
-1.10563
-1.10814
-1.10598
-1.10841
-1.10624
-1.10861
-1.10644
-1.10876
-1.10658
-1.10887
-1.10669
-1.10895
-1.10676
-1.109
-1.10681
-1.10904
-1.10685
-1.10906
-1.10687
-1.10908
-1.10689
-1.10909
-1.1069
-1.10911
-1.10691
-1.10912
-1.10691
-1.10913
-1.10692
-1.10914
-1.10693
-1.10916
-1.10694
-1.10918
-1.10696
-1.1092
-1.10699
-1.10923
-1.10701
-1.10927
-1.10705
-1.10932
-1.1071
-1.10937
-1.10715
-1.10944
-1.10721
-1.10951
-1.10727
-1.10959
-1.10734
-1.10968
-1.10743
-1.10976
-1.1075
-1.10986
-1.10759
-1.10995
-1.10767
-1.11004
-1.10775
-1.11012
-1.10782
-1.11021
-1.10789
-1.11027
-1.10795
-1.11033
-1.108
-1.11037
-1.10802
-1.11041
-1.10804
-1.11039
-1.10802
-1.11037
-1.10798
-1.11028
-1.10788
-1.11015
-1.10774
-1.10991
-1.10749
-1.10956
-1.10712
-1.10899
-1.10654
-1.10813
-1.10566
-1.10679
-1.10431
-1.10483
-1.10234
-1.1019
-1.09939
-1.09779
-1.09526
-1.09194
-1.08941
-1.08403
-1.08148
-1.07349
-1.07092
-1.05981
-1.05723
-1.04256
-1.03996
-1.02157
-1.01895
-0.996581
-0.993952
-0.967281
-0.964635
-0.934594
-0.931932
-0.898659
-0.89598
-0.860409
-0.857715
-0.820544
-0.817833
-0.780307
-0.77758
-0.740442
-0.737697
-0.701753
-0.698992
-0.66551
-0.662731
-0.632133
-0.629338
-0.601404
-0.598591
-0.574028
-0.571198
-0.549975
-0.547125
-0.528694
-0.525829
-0.509981
-0.507096
-0.493463
-0.490562
-0.479013
-0.476094
-0.466096
-0.463162
-0.454487
-0.451534
-0.443944
-0.440978
-0.434442
-0.431458
-0.425697
-0.422702
-0.417534
-0.414521
-0.410124
-0.407102
-0.403096
-0.400057
-0.396422
-0.393377
-0.389995
-0.386932
-0.383783
-0.380716
-0.37748
-0.374395
-0.371162
-0.368075
-0.364624
-0.361518
-0.357713
-0.354607
-0.350493
-0.347366
-0.342842
-0.339717
-0.334482
-0.331333
-0.325644
-0.322498
-0.31604
-0.312869
-0.305544
-0.302378
-0.294149
-0.290954
-0.282222
-0.279036
-0.269328
-0.266108
-0.256015
-0.252808
-0.24235
-0.239104
-0.228885
-0.225658
-0.215725
-0.212455
-0.203304
-0.200059
-0.192051
-0.188758
-0.182167
-0.178906
-0.173623
-0.170307
-0.166869
-0.163595
-0.161303
-0.157967
-0.157403
-0.154119
-0.154434
-0.15108
-0.152771
-0.149482
-0.151592
-0.148231
-0.151468
-0.14791
-0.151601
-0.148268
-0.152854
-0.149949
-0.154454
-0.15115
-0.157561
-0.155572
-0.161282
-0.157999
-0.16719
-0.166656
-0.174107
-0.1708
-0.183674
-0.184969
-0.194782
-0.191393
-0.209189
-0.211887
-0.225177
-0.221626
-0.24554
-1.1734
-0.267848
-1.18224
-0.295105
-1.23242
-0.324043
-1.244
-0.356333
-1.30336
-0.38829
-1.31684
-0.420261
-1.37757
-0.44412
-1.38878
-0.460805
-1.42904
-0.462505
-1.43075
-0.449424
-1.39226
-0.420028
-1.37659
-0.375669
-1.29314
-0.323168
-1.26836
-0.266097
-1.16854
-0.210166
-1.14474
-0.161194
-1.06156
-0.12154
-1.04644
-0.0917542
-0.993948
-0.0715047
-0.98753
-0.0576895
-0.958852
-0.0495813
-0.957273
-0.0434355
-0.915475
-0.0400613
-0.939766
-0.0365233
-0.866936
-0.034274
-0.926944
-0.0312313
-0.912252
-0.0291283
-0.916702
-0.0264178
-0.907153
-0.0243673
-0.90714
-0.0217458
-0.892481
-0.019813
-0.897959
-0.0174986
-0.872667
-0.0158869
-0.889806
-0.0140202
-0.857088
-0.0128924
-0.883434
-0.0116168
-0.861062
-0.0109181
-0.879225
-0.010038
-0.871633
-0.00953286
-0.876377
-0.00878353
-0.873871
-0.00818825
-0.873808
-0.00736508
-0.871221
-0.00664187
-0.871098
-0.00577152
-0.868495
-0.00499139
-0.868352
-0.00417209
-0.865944
-0.0035338
-0.865875
-0.00295207
-0.86208
-0.00254195
-0.863981
-0.0022068
-0.860439
-0.00195407
-0.862721
-0.00168257
-0.861732
-0.00143734
-0.861716
-0.00117246
-0.86079
-0.000926118
-0.860765
-0.000673318
-0.859925
-0.000458632
-0.859909
-0.000282563
-0.858315
-0.000186348
-0.859374
-0.00014321
-0.858727
-0.000131536
-0.859254
-0.000129116
-0.859256
-0.000128933
-0.859255
-0.00012961
-0.859255
-0.000129376
-0.859255
-0.000129748
-0.859255
-0.000129741
-0.859255
-0.00013031
-0.859254
-0.000131177
-0.859253
-0.000134852
-0.859251
-0.000140712
-0.859249
-0.000135957
-0.859243
-9.92871e-05
-0.859215
-0.397199
-0.41605
-0.398743
-0.417105
-0.399409
-0.417638
-0.402741
-0.420591
-0.403979
-0.421874
-0.408805
-0.426313
-0.410469
-0.428195
-0.438567
-0.433731
-0.440473
-0.436138
-0.446541
-0.442077
-0.449027
-0.444959
-0.455241
-0.451102
-0.458149
-0.454329
-0.464443
-0.46059
-0.467717
-0.464123
-0.474095
-0.470496
-0.477744
-0.474357
-0.484265
-0.48089
-0.488333
-0.485133
-0.495065
-0.491888
-0.499597
-0.496565
-0.506596
-0.503594
-0.511627
-0.508746
-0.518935
-0.516087
-0.524478
-0.521734
-0.532115
-0.529404
-0.538147
-0.535526
-0.546084
-0.543499
-0.552555
-0.550049
-0.560723
-0.558255
-0.567548
-0.565151
-0.575866
-0.573509
-0.582927
-0.580635
-0.591289
-0.589038
-0.598481
-0.596292
-0.606805
-0.604658
-0.614045
-0.611956
-0.622295
-0.620248
-0.62955
-0.627558
-0.637713
-0.635764
-0.644987
-0.643088
-0.653078
-0.651222
-0.66039
-0.658582
-0.668439
-0.666672
-0.675794
-0.674073
-0.683813
-0.682132
-0.691207
-0.68957
-0.699177
-0.697579
-0.706582
-0.705026
-0.714474
-0.712956
-0.721839
-0.720361
-0.729617
-0.728175
-0.7369
-0.735496
-0.74451
-0.743141
-0.75168
-0.750344
-0.759112
-0.757809
-0.766138
-0.764865
-0.773374
-0.77213
-0.780236
-0.77902
-0.787277
-0.786087
-0.793986
-0.79282
-0.800826
-0.799684
-0.807366
-0.806245
-0.814018
-0.812918
-0.820401
-0.81932
-0.826876
-0.825813
-0.833115
-0.83207
-0.839456
-0.838429
-0.845587
-0.844575
-0.851815
-0.850821
-0.857868
-0.85689
-0.864017
-0.863057
-0.870045
-0.869101
-0.876154
-0.875228
-0.882166
-0.881255
-0.888263
-0.887371
-0.894281
-0.893404
-0.900378
-0.899518
-0.906413
-0.905566
-0.912525
-0.911693
-0.918594
-0.917772
-0.924759
-0.923949
-0.930907
-0.930103
-0.937161
-0.936366
-0.943432
-0.94264
-0.949799
-0.949012
-0.95619
-0.955402
-0.962691
-0.961907
-0.969183
-0.968395
-0.975726
-0.974943
-0.982246
-0.981459
-0.988753
-0.987971
-0.995157
-0.994374
-1.00149
-1.00072
-1.00769
-1.00691
-1.01374
-1.01297
-1.01959
-1.01883
-1.02531
-1.02456
-1.03082
-1.03009
-1.03619
-1.03548
-1.04139
-1.04069
-1.04649
-1.04581
-1.05142
-1.05077
-1.05627
-1.05564
-1.06098
-1.06037
-1.06558
-1.065
-1.07002
-1.06946
-1.07433
-1.07381
-1.07843
-1.07792
-1.08233
-1.08186
-1.08599
-1.08552
-1.08938
-1.08895
-1.09247
-1.09205
-1.09528
-1.0949
-1.09776
-1.09739
-1.09994
-1.09961
-1.10183
-1.10149
-1.10344
-1.10315
-1.10478
-1.10449
-1.1059
-1.10565
-1.10681
-1.10655
-1.10754
-1.10732
-1.10812
-1.10788
-1.10857
-1.10837
-1.10892
-1.1087
-1.10918
-1.10901
-1.10938
-1.10918
-1.10952
-1.10936
-1.10963
-1.10943
-1.1097
-1.10955
-1.10975
-1.10956
-1.10979
-1.10964
-1.10981
-1.10962
-1.10983
-1.10969
-1.10984
-1.10965
-1.10985
-1.10972
-1.10985
-1.10967
-1.10987
-1.10974
-1.10987
-1.10969
-1.10989
-1.10978
-1.1099
-1.10972
-1.10993
-1.10983
-1.10995
-1.10977
-1.11
-1.10991
-1.11003
-1.10985
-1.1101
-1.11002
-1.11014
-1.10996
-1.11022
-1.11017
-1.11028
-1.1101
-1.11037
-1.11035
-1.11044
-1.11039
-1.11054
-1.11055
-1.11061
-1.11059
-1.1107
-1.11075
-1.11076
-1.11079
-1.11084
-1.11094
-1.11089
-1.11097
-1.11094
-1.11109
-1.11096
-1.1111
-1.11099
-1.11118
-1.11096
-1.11118
-1.11092
-1.11109
-1.11082
-1.11104
-1.11068
-1.11079
-1.11043
-1.11065
-1.11006
-1.11011
-1.10948
-1.1097
-1.1086
-1.10869
-1.10726
-1.10749
-1.10527
-1.10541
-1.10234
-1.10259
-1.0982
-1.09838
-1.09235
-1.09262
-1.08442
-1.08463
-1.07386
-1.07416
-1.06017
-1.06042
-1.04291
-1.04322
-1.02189
-1.02218
-0.996894
-0.997239
-0.967571
-0.9679
-0.934873
-0.935248
-0.898917
-0.899283
-0.860656
-0.86106
-0.82077
-0.821172
-0.780521
-0.780956
-0.740635
-0.741072
-0.701933
-0.7024
-0.665669
-0.666143
-0.632279
-0.632779
-0.60153
-0.602039
-0.57414
-0.574674
-0.550066
-0.550611
-0.528771
-0.529339
-0.510038
-0.510619
-0.493507
-0.494107
-0.479037
-0.479652
-0.466108
-0.46674
-0.45448
-0.455128
-0.443926
-0.444589
-0.434406
-0.435083
-0.425652
-0.426341
-0.417472
-0.418176
-0.410055
-0.410769
-0.403011
-0.403739
-0.396332
-0.397067
-0.389889
-0.39064
-0.383675
-0.384429
-0.377356
-0.378126
-0.371037
-0.371808
-0.364482
-0.365271
-0.357573
-0.35836
-0.350334
-0.351141
-0.342686
-0.34349
-0.334304
-0.33513
-0.325472
-0.326291
-0.315845
-0.31669
-0.305356
-0.306192
-0.293934
-0.2948
-0.282018
-0.282871
-0.269092
-0.26998
-0.255795
-0.256665
-0.242093
-0.243003
-0.228649
-0.229536
-0.215447
-0.21638
-0.203052
-0.203955
-0.191752
-0.192708
-0.181901
-0.182818
-0.173302
-0.174281
-0.166592
-0.167521
-0.160963
-0.161964
-0.157116
-0.158055
-0.154075
-0.155097
-0.152477
-0.153423
-0.151208
-0.152257
-0.150879
-0.15212
-0.15122
-0.152269
-0.152874
-0.153506
-0.154049
-0.155124
-0.158445
-0.158213
-0.160869
-0.161956
-0.169525
-0.167841
-0.173682
-0.174784
-0.187869
-0.184324
-0.194304
-0.195463
-0.215377
-0.209837
-0.224551
-0.225863
-0.253789
-0.246187
-0.266897
-0.268486
-1.24216
-0.295789
-1.25432
-0.324688
-1.31313
-0.357014
-1.32661
-0.38894
-1.38734
-0.42094
-1.39855
-0.444774
-1.4388
-0.461483
-1.44051
-0.463164
-1.40202
-0.450102
-1.38635
-0.42069
-1.30289
-0.376346
-1.27811
-0.323833
-1.17828
-0.266774
-1.15447
-0.210834
-1.07129
-0.161871
-1.05617
-0.122211
-1.00368
-0.0924324
-0.997258
-0.0721776
-0.96858
-0.0583684
-0.966999
-0.0502563
-0.9252
-0.0441153
-0.949493
-0.0407381
-0.876666
-0.037204
-0.936677
-0.0349526
-0.921987
-0.0319129
-0.926439
-0.0298085
-0.916892
-0.0271003
-0.91688
-0.0250489
-0.902221
-0.0224294
-0.907701
-0.020496
-0.88241
-0.0181831
-0.89955
-0.0165711
-0.866832
-0.0147057
-0.893179
-0.0135779
-0.870808
-0.0123033
-0.888971
-0.0116047
-0.881379
-0.0107254
-0.886124
-0.0102204
-0.88362
-0.00947181
-0.883557
-0.0088768
-0.880972
-0.00805423
-0.88085
-0.00733133
-0.878249
-0.00646149
-0.878107
-0.00568169
-0.875701
-0.00486283
-0.875632
-0.00422486
-0.871837
-0.00364351
-0.873739
-0.0032337
-0.870198
-0.00289887
-0.87248
-0.00264642
-0.871491
-0.00237518
-0.871476
-0.00213019
-0.870551
-0.00186552
-0.870526
-0.00161938
-0.869687
-0.00136673
-0.869671
-0.00115225
-0.868077
-0.000976254
-0.869137
-0.000880261
-0.868491
-0.000837306
-0.869018
-0.000825836
-0.86902
-0.000823516
-0.869019
-0.000823416
-0.869019
-0.000824168
-0.869019
-0.000824005
-0.869019
-0.000824459
-0.869019
-0.000824482
-0.869019
-0.000825084
-0.869018
-0.000825958
-0.869016
-0.000829644
-0.869013
-0.000835519
-0.869008
-0.000830764
-0.86898
-0.000794077
)
;

boundaryField
{
    walls
    {
        type            zeroGradient;
    }
    inlet
    {
        type            cyclic;
    }
    outlet
    {
        type            cyclic;
    }
    sides
    {
        type            empty;
    }
}


// ************************************************************************* //
