/*--------------------------------*- C++ -*----------------------------------*\
| =========                 |                                                 |
| \\      /  F ield         | OpenFOAM: The Open Source CFD Toolbox           |
|  \\    /   O peration     | Version:  2012                                  |
|   \\  /    A nd           | Website:  www.openfoam.com                      |
|    \\/     M anipulation  |                                                 |
\*---------------------------------------------------------------------------*/
FoamFile
{
    version     2.0;
    format      ascii;
    class       volVectorField;
    location    "10800";
    object      U;
}
// * * * * * * * * * * * * * * * * * * * * * * * * * * * * * * * * * * * * * //

dimensions      [0 1 -1 0 0 0 0];


internalField   nonuniform List<vector> 
2560
(
(0.0233457 -2.53985e-05 0.000414907)
(0.023321 -1.31162e-05 5.57942e-08)
(0.0701204 -9.05731e-06 0.000617866)
(0.0700463 1.40826e-05 1.5855e-08)
(0.117373 -2.11943e-05 0.000511587)
(0.117251 2.41772e-05 5.86267e-09)
(0.165106 -3.0821e-05 0.000309922)
(0.164938 3.07363e-05 3.07395e-09)
(0.213323 -3.48423e-05 0.000168614)
(0.213112 3.47555e-05 7.57098e-10)
(0.262025 -3.70283e-05 0.000100159)
(0.261775 3.69847e-05 1.54326e-10)
(0.311172 -3.84632e-05 6.68732e-05)
(0.310889 3.84468e-05 5.51101e-11)
(0.360698 -3.95676e-05 4.8866e-05)
(0.360384 3.94722e-05 -2.15139e-11)
(0.410526 -4.02977e-05 3.80493e-05)
(0.410188 4.03297e-05 5.16754e-11)
(0.460647 -4.10765e-05 3.0996e-05)
(0.460288 4.09335e-05 -2.16945e-20)
(0.511121 -4.149e-05 2.61021e-05)
(0.510746 4.15728e-05 3.72043e-11)
(0.561959 -4.21431e-05 2.25416e-05)
(0.56157 4.1959e-05 7.33501e-36)
(0.613171 -4.24052e-05 1.98539e-05)
(0.612774 4.25051e-05 1.46223e-10)
(0.664801 -4.29127e-05 1.77539e-05)
(0.664399 5.6634e-05 5.28715e-08)
(0.716819 -4.31644e-05 1.61045e-05)
(0.716415 1.54149e-05 -3.0935e-37)
(0.769106 -4.35016e-05 1.47371e-05)
(0.768703 9.61643e-05 1.11329e-07)
(0.821496 -4.41538e-05 1.3653e-05)
(0.821096 -3.66187e-05 1.00982e-09)
(0.873818 -4.39177e-05 1.2724e-05)
(0.873425 0.000129152 5.00012e-08)
(0.926041 -4.48143e-05 1.195e-05)
(0.925655 -5.11808e-05 1.27288e-09)
(0.978351 -4.41896e-05 1.12783e-05)
(0.977975 0.000144891 4.90508e-08)
(1.03102 -4.55925e-05 1.07112e-05)
(1.03065 -6.58028e-05 8.74738e-10)
(1.0842 -4.44003e-05 1.02085e-05)
(1.08384 0.000160509 4.73504e-08)
(1.13787 -4.63194e-05 9.78079e-06)
(1.13753 -8.03921e-05 4.76206e-21)
(1.19197 -4.4434e-05 9.36936e-06)
(1.19164 0.000202568 1.57145e-07)
(1.24641 -4.71948e-05 9.06859e-06)
(1.2461 -0.00014827 1.88815e-21)
(1.30116 -4.44586e-05 8.74704e-06)
(1.30085 0.000268536 1.62147e-07)
(1.35614 -4.82579e-05 8.52198e-06)
(1.35584 -0.000212633 2.70035e-09)
(1.41126 -4.43135e-05 8.28688e-06)
(1.41098 0.000314709 9.31606e-08)
(1.4664 -4.93952e-05 8.10088e-06)
(1.46613 -0.000240176 4.9621e-09)
(1.52143 -4.39164e-05 7.91504e-06)
(1.52117 0.000343652 9.62885e-08)
(1.57631 -5.06991e-05 7.77249e-06)
(1.57606 -0.000268846 4.41899e-09)
(1.63115 -4.3269e-05 7.62358e-06)
(1.63091 0.000373118 9.16741e-08)
(1.6863 -5.22426e-05 7.51288e-06)
(1.68607 -0.000297347 1.94375e-09)
(1.74229 -4.22865e-05 7.3924e-06)
(1.74206 0.000402221 8.5337e-08)
(1.79972 -5.41114e-05 7.30689e-06)
(1.7995 -0.000325214 -1.40364e-37)
(1.85912 -4.09421e-05 7.17597e-06)
(1.8589 0.000460734 2.31384e-07)
(1.92084 -5.64652e-05 7.15089e-06)
(1.92062 -0.000413422 1.05035e-37)
(1.98502 -3.91846e-05 6.92368e-06)
(1.98481 0.000650177 7.50412e-07)
(2.05161 -5.93592e-05 7.05105e-06)
(2.0514 -0.000706365 0)
(2.12047 -3.69324e-05 6.80271e-06)
(2.12025 0.000981369 9.8432e-07)
(2.19147 -6.27697e-05 7.00967e-06)
(2.19125 -0.00108041 4.65154e-21)
(2.26477 -3.41708e-05 6.83147e-06)
(2.26455 0.00131997 8.36083e-07)
(2.341 -6.66479e-05 7.01989e-06)
(2.34078 -0.00138703 4.59583e-21)
(2.42145 -3.08931e-05 6.95837e-06)
(2.42122 0.00155403 4.63332e-07)
(2.50806 -7.09828e-05 7.06918e-06)
(2.50782 -0.00154888 -8.39217e-37)
(2.60321 -2.71008e-05 7.06427e-06)
(2.60295 0.00168697 3.03713e-07)
(2.70936 -7.587e-05 7.14908e-06)
(2.70909 -0.00165145 -3.17735e-21)
(2.82876 -2.27052e-05 7.14381e-06)
(2.82846 0.00180154 3.7081e-07)
(2.96318 -8.1434e-05 7.25975e-06)
(2.96287 -0.00177679 -2.48865e-37)
(3.114 -1.75923e-05 6.77578e-06)
(3.11367 0.00227219 2.43349e-06)
(3.28221 -8.72314e-05 7.42492e-06)
(3.28187 -0.00260085 0)
(3.46833 -1.17884e-05 7.38575e-06)
(3.46799 0.00282144 8.72766e-07)
(3.67187 -9.29687e-05 7.67785e-06)
(3.67153 -0.00287302 4.92822e-08)
(3.89029 -5.91946e-06 7.78782e-06)
(3.88996 0.00305688 8.84806e-07)
(4.11763 -9.89017e-05 8.16073e-06)
(4.11733 -0.00306889 2.01985e-07)
(4.34303 -1.40637e-06 8.42082e-06)
(4.34278 0.00329121 1.64158e-06)
(4.54988 -0.000105784 9.12981e-06)
(4.54969 -0.00334364 4.79011e-07)
(4.71604 5.98379e-07 9.63329e-06)
(4.71595 0.00361771 2.6401e-06)
(4.81592 -0.000112784 1.07709e-05)
(4.81595 -0.00373116 7.6447e-07)
(4.82413 1.09089e-06 1.15019e-05)
(4.82429 0.00404093 3.21893e-06)
(4.72018 -0.000116646 1.28813e-05)
(4.72051 -0.00419961 8.22444e-07)
(4.49312 1.91115e-06 1.36481e-05)
(4.49363 0.00449806 2.73131e-06)
(4.14459 -0.000115203 1.48379e-05)
(4.1453 -0.0046444 5.20646e-07)
(3.68955 2.50527e-06 1.53964e-05)
(3.69045 0.00488644 1.30183e-06)
(3.15416 -0.000110159 1.60495e-05)
(3.15524 -0.00496437 0)
(2.57152 1.29608e-07 1.62831e-05)
(2.57277 0.00514843 5.86625e-08)
(1.97669 -0.0001046 1.60937e-05)
(1.97808 -0.00498951 1.42008e-06)
(1.40195 -6.0684e-06 1.61195e-05)
(1.40343 0.00511379 4.08397e-07)
(0.873451 -9.98715e-05 1.566e-05)
(0.874952 -0.00492965 2.21363e-06)
(0.409662 -1.42419e-05 1.56304e-05)
(0.411113 0.00502651 5.18685e-07)
(0.0214199 -9.57151e-05 1.51581e-05)
(0.0227378 -0.00484903 2.30291e-06)
(-0.286953 -2.20487e-05 1.51682e-05)
(-0.285853 0.00494691 4.88425e-07)
(-0.516015 -9.17601e-05 1.1163e-06)
(-0.515173 -0.000236021 5.49101e-06)
(-0.669586 -2.77188e-05 9.50953e-07)
(-0.669011 0.000302746 5.54241e-07)
(-0.753448 -8.70767e-05 8.83162e-07)
(-0.753134 -0.000140272 1.27902e-06)
(-0.774465 -3.22737e-05 7.25521e-07)
(-0.774397 0.000219903 4.12103e-07)
(-0.740044 -8.28738e-05 6.6237e-07)
(-0.740204 -6.73362e-05 9.77159e-07)
(-0.657811 -3.6122e-05 5.2259e-07)
(-0.658181 0.000158071 3.03756e-07)
(-0.535372 -7.93015e-05 4.66883e-07)
(-0.535932 -1.64194e-05 6.89369e-07)
(-0.380054 -3.9387e-05 3.45659e-07)
(-0.380784 0.00011651 2.08974e-07)
(-0.198708 -7.62869e-05 2.99481e-07)
(-0.199579 1.58644e-05 4.40794e-07)
(0.00249751 -4.2197e-05 1.98374e-07)
(0.00152697 9.16647e-05 1.28811e-07)
(0.218259 -7.36589e-05 1.66954e-07)
(0.217245 3.32756e-05 2.40275e-07)
(0.444224 -4.45065e-05 8.92113e-08)
(0.443213 7.958e-05 1.88077e-07)
(0.676913 -7.13589e-05 7.12461e-08)
(0.675937 4.0274e-05 2.1712e-07)
(0.913547 -4.64119e-05 8.69904e-09)
(0.912629 7.65947e-05 2.34883e-07)
(1.1518 -6.93652e-05 7.10506e-08)
(1.15095 3.9733e-05 2.29814e-07)
(1.3895 -4.80209e-05 1.05039e-07)
(1.38873 7.56494e-05 2.29071e-07)
(1.62437 -6.76901e-05 1.89659e-07)
(1.62368 4.24659e-05 2.41704e-07)
(1.85379 -4.94542e-05 2.56691e-07)
(1.85318 7.31978e-05 2.51676e-07)
(2.07471 -6.63421e-05 3.73267e-07)
(2.07418 4.47381e-05 3.79051e-07)
(2.2836 -5.07884e-05 4.74965e-07)
(2.28315 7.09829e-05 4.70644e-07)
(2.47665 -6.53036e-05 6.15728e-07)
(2.47627 4.6572e-05 6.20988e-07)
(2.64995 -5.20351e-05 7.3355e-07)
(2.64964 6.89737e-05 7.29867e-07)
(2.79987 -6.44637e-05 8.72634e-07)
(2.79962 4.80951e-05 8.77447e-07)
(2.92336 -5.3136e-05 9.75455e-07)
(2.92316 6.72126e-05 9.72361e-07)
(3.0183 -6.37333e-05 1.07986e-06)
(3.01816 4.94106e-05 1.08428e-06)
(3.08377 -5.39736e-05 1.13849e-06)
(3.08368 6.58037e-05 1.13593e-06)
(3.12019 -6.30116e-05 1.18808e-06)
(3.12014 5.06318e-05 1.19214e-06)
(3.1293 -5.45653e-05 1.19212e-06)
(3.1293 6.47182e-05 1.19003e-06)
(3.1141 -6.22667e-05 1.18894e-06)
(3.11413 5.18012e-05 1.19268e-06)
(3.07858 -5.50009e-05 1.15012e-06)
(3.07864 6.38558e-05 1.14844e-06)
(3.02751 -6.15519e-05 1.11388e-06)
(3.02758 5.2875e-05 1.11732e-06)
(2.96606 -5.53551e-05 1.05704e-06)
(2.96615 6.31327e-05 1.0557e-06)
(2.89958 -6.09772e-05 1.01229e-06)
(2.89967 5.37523e-05 1.01545e-06)
(2.83331 -5.56901e-05 9.58338e-07)
(2.8334 6.2478e-05 9.57317e-07)
(2.77217 -6.05448e-05 9.21509e-07)
(2.77224 5.44382e-05 9.24439e-07)
(2.72063 -5.60284e-05 8.80657e-07)
(2.72069 6.18618e-05 8.79924e-07)
(2.68262 -6.02036e-05 8.57599e-07)
(2.68266 5.49908e-05 8.60346e-07)
(2.66141 -5.6344e-05 8.32328e-07)
(2.66143 6.13037e-05 8.31879e-07)
(2.65959 -5.98975e-05 8.24848e-07)
(2.65958 5.54718e-05 8.27472e-07)
(2.67895 -5.65872e-05 8.19153e-07)
(2.67891 6.08476e-05 8.19002e-07)
(2.72041 -5.96338e-05 8.33172e-07)
(2.72034 5.58787e-05 8.35744e-07)
(2.78394 -5.67666e-05 8.54712e-07)
(2.78384 6.04804e-05 8.54891e-07)
(2.86844 -5.93675e-05 9.02417e-07)
(2.86833 5.62605e-05 9.05015e-07)
(2.97173 -5.69872e-05 9.6203e-07)
(2.9716 6.00933e-05 9.6258e-07)
(3.09053 -5.91715e-05 1.04818e-06)
(3.09039 5.65476e-05 1.05088e-06)
(3.2205 -5.71524e-05 1.1499e-06)
(3.22036 5.97792e-05 1.15087e-06)
(3.35648 -5.90307e-05 1.27855e-06)
(3.35634 5.67581e-05 1.28144e-06)
(3.49267 -5.72784e-05 1.42549e-06)
(3.49253 5.95189e-05 1.42691e-06)
(3.623 -5.88622e-05 1.60395e-06)
(3.62288 5.69773e-05 1.60707e-06)
(3.74152 -5.73312e-05 1.81032e-06)
(3.74142 5.93439e-05 1.81219e-06)
(3.84286 -5.86249e-05 2.06315e-06)
(3.84278 5.72482e-05 2.06652e-06)
(3.92254 -5.73055e-05 2.36531e-06)
(3.92248 5.92572e-05 2.36762e-06)
(3.97743 -5.83566e-05 2.73927e-06)
(3.9774 5.75352e-05 2.74288e-06)
(4.00591 -5.72598e-05 3.19132e-06)
(4.00589 5.91983e-05 3.19403e-06)
(4.00796 -5.81905e-05 3.73897e-06)
(4.00797 5.77061e-05 3.74278e-06)
(3.98515 -5.73082e-05 4.3834e-06)
(3.98518 5.90514e-05 4.38643e-06)
(3.94041 -5.82595e-05 5.12603e-06)
(3.94045 5.76293e-05 5.12999e-06)
(3.87765 -5.7615e-05 5.94829e-06)
(3.87771 5.86508e-05 5.95157e-06)
(3.80144 -5.85891e-05 6.82945e-06)
(3.80151 5.72805e-05 6.83352e-06)
(3.71649 -5.8208e-05 7.72429e-06)
(3.71655 5.79672e-05 7.72777e-06)
(3.62721 -5.91726e-05 8.58503e-06)
(3.62728 5.66674e-05 8.58918e-06)
(3.53741 -5.88947e-05 9.34916e-06)
(3.53748 5.71915e-05 9.35283e-06)
(3.45003 -5.9707e-05 9.96157e-06)
(3.4501 5.60939e-05 9.96581e-06)
(3.36697 -5.93961e-05 1.03632e-05)
(3.36704 5.66013e-05 1.0367e-05)
(3.28911 -5.99024e-05 1.05161e-05)
(3.28917 5.58508e-05 1.05205e-05)
(3.2164 -5.93988e-05 1.03948e-05)
(3.21646 5.65088e-05 1.03989e-05)
(3.14804 -5.95399e-05 1.00046e-05)
(3.1481 5.61575e-05 1.00091e-05)
(3.08273 -5.88548e-05 9.36747e-06)
(3.08278 5.69608e-05 9.37171e-06)
(3.01889 -5.87437e-05 8.53199e-06)
(3.01894 5.689e-05 8.53664e-06)
(2.95491 -5.80285e-05 7.5547e-06)
(2.95497 5.76926e-05 7.55912e-06)
(2.88938 -5.78577e-05 6.50473e-06)
(2.88944 5.77046e-05 6.50951e-06)
(2.82123 -5.73027e-05 5.44319e-06)
(2.82129 5.83208e-05 5.44778e-06)
(2.74981 -5.7213e-05 4.43027e-06)
(2.74988 5.82699e-05 4.43515e-06)
(2.67499 -5.69161e-05 3.5069e-06)
(2.67506 5.86061e-05 3.51161e-06)
(2.5971 -5.69921e-05 2.70194e-06)
(2.59717 5.84038e-05 2.70688e-06)
(2.51685 -5.68884e-05 2.02712e-06)
(2.51693 5.85282e-05 2.03191e-06)
(2.43529 -5.70808e-05 1.48334e-06)
(2.43537 5.82204e-05 1.48832e-06)
(2.35365 -5.70852e-05 1.05959e-06)
(2.35373 5.82208e-05 1.08334e-06)
(2.27321 -5.73038e-05 7.4066e-07)
(2.27329 5.78951e-05 1.10111e-06)
(2.19521 -5.73226e-05 5.07455e-07)
(2.19528 5.78673e-05 1.12403e-06)
(2.12074 -5.75112e-05 3.41896e-07)
(2.12081 5.75777e-05 1.14195e-06)
(2.05064 -5.74998e-05 2.53479e-07)
(2.05071 5.75679e-05 1.16503e-06)
(1.98547 -5.76333e-05 2.62462e-07)
(1.98554 5.73376e-05 1.18294e-06)
(1.92547 -5.75986e-05 2.74993e-07)
(1.92553 5.73403e-05 1.20585e-06)
(1.87053 -5.76739e-05 2.84121e-07)
(1.87059 5.7171e-05 1.22352e-06)
(1.82022 -5.76285e-05 2.97006e-07)
(1.82028 5.71747e-05 1.24587e-06)
(1.77378 -5.76536e-05 3.06246e-07)
(1.77383 5.70573e-05 1.2631e-06)
(1.73017 -5.76366e-05 3.19409e-07)
(1.73022 5.70236e-05 1.28454e-06)
(1.6881 -5.7625e-05 3.31002e-07)
(1.68815 5.69435e-05 1.30117e-06)
(1.64606 -5.75336e-05 3.41298e-07)
(1.64611 5.69765e-05 1.32145e-06)
(1.60237 -5.76264e-05 3.53866e-07)
(1.60242 5.67913e-05 1.33746e-06)
(1.55524 -5.74866e-05 3.64062e-07)
(1.5553 5.68661e-05 1.35648e-06)
(1.50285 -5.75642e-05 3.76833e-07)
(1.50292 5.66942e-05 1.37204e-06)
(1.44345 -5.74386e-05 3.86842e-07)
(1.44353 5.67492e-05 1.38994e-06)
(1.37541 -5.75007e-05 3.99748e-07)
(1.37551 5.65897e-05 1.40547e-06)
(1.2974 -5.73883e-05 4.09482e-07)
(1.29751 5.66272e-05 1.42269e-06)
(1.20843 -5.74359e-05 4.22466e-07)
(1.20857 5.64774e-05 1.43896e-06)
(1.10801 -5.73356e-05 4.31878e-07)
(1.10818 5.65e-05 1.45629e-06)
(0.996232 -5.73695e-05 4.44912e-07)
(0.996431 5.63568e-05 1.47442e-06)
(0.873823 -5.72809e-05 4.54009e-07)
(0.874067 5.63669e-05 1.49295e-06)
(0.74222 -5.73008e-05 4.67083e-07)
(0.742521 5.62276e-05 1.51428e-06)
(0.603556 -5.72232e-05 4.75911e-07)
(0.603932 5.62281e-05 1.53519e-06)
(0.460626 -5.72291e-05 4.88991e-07)
(0.461099 5.60887e-05 1.56101e-06)
(0.316803 -5.71615e-05 4.97576e-07)
(0.317397 5.60838e-05 1.58518e-06)
(0.175923 -5.71527e-05 5.10526e-07)
(0.176648 5.59394e-05 1.61627e-06)
(0.0421181 -5.70961e-05 5.18794e-07)
(0.0429424 5.59325e-05 1.64391e-06)
(-0.080386 -5.70752e-05 5.31285e-07)
(-0.0795789 5.57848e-05 1.68002e-06)
(-0.187518 -5.70163e-05 5.40739e-07)
(-0.186857 5.57643e-05 1.70838e-06)
(-0.275642 -5.69921e-05 5.54996e-07)
(-0.275167 5.56175e-05 1.74587e-06)
(-0.341705 -5.69345e-05 5.65879e-07)
(-0.341405 5.55904e-05 1.77311e-06)
(-0.383385 -5.69033e-05 5.81208e-07)
(-0.383235 5.5436e-05 1.81066e-06)
(-0.399286 -5.68475e-05 5.92602e-07)
(-0.399268 5.54081e-05 1.83589e-06)
(-0.389008 -5.68082e-05 6.08178e-07)
(-0.389116 5.52405e-05 1.87282e-06)
(-0.35314 -5.67593e-05 6.19269e-07)
(-0.353384 5.52135e-05 1.89622e-06)
(-0.293256 -5.6706e-05 6.34453e-07)
(-0.293657 5.50305e-05 1.93328e-06)
(-0.211778 -5.6668e-05 6.44798e-07)
(-0.212351 5.50087e-05 1.9565e-06)
(-0.111826 -5.65988e-05 6.59265e-07)
(-0.112554 5.48026e-05 1.9958e-06)
(0.00299818 -5.65742e-05 6.68758e-07)
(0.00222172 5.4793e-05 2.02137e-06)
(0.12892 -5.64955e-05 6.82345e-07)
(0.128246 5.45655e-05 2.06515e-06)
(0.26218 -5.64584e-05 6.94956e-07)
(0.26165 5.45423e-05 2.09121e-06)
(0.399151 -5.63947e-05 7.12181e-07)
(0.39875 5.43196e-05 2.13731e-06)
(0.536516 -5.63383e-05 7.28858e-07)
(0.536213 5.42766e-05 2.16497e-06)
(0.671339 -5.62901e-05 7.50588e-07)
(0.671107 5.40517e-05 2.21357e-06)
(0.801188 -5.6211e-05 7.71783e-07)
(0.801007 5.3997e-05 2.24293e-06)
(0.92413 -5.61793e-05 7.98478e-07)
(0.923986 5.37636e-05 2.29346e-06)
(1.0387 -5.60794e-05 8.24278e-07)
(1.03859 5.36994e-05 2.32394e-06)
(1.14393 -5.60553e-05 8.56051e-07)
(1.14383 5.34615e-05 2.37531e-06)
(1.23922 -5.59355e-05 8.86256e-07)
(1.23915 5.33903e-05 2.4059e-06)
(1.32436 -5.59273e-05 9.2295e-07)
(1.3243 5.3136e-05 2.45676e-06)
(1.3994 -5.57639e-05 1.1035e-06)
(1.39935 5.30846e-05 2.48628e-06)
(1.46462 -5.57829e-05 1.36048e-06)
(1.46458 5.28e-05 2.53529e-06)
(1.52042 -5.55765e-05 1.65488e-06)
(1.52038 5.27705e-05 2.5626e-06)
(1.56726 -5.56149e-05 1.98182e-06)
(1.56723 5.24611e-05 2.60858e-06)
(1.6056 -5.53679e-05 2.34003e-06)
(1.60558 5.24538e-05 2.63269e-06)
(1.63578 -5.54318e-05 2.72009e-06)
(1.63576 5.21123e-05 2.69874e-06)
(1.65799 -5.51504e-05 3.11704e-06)
(1.65798 5.21232e-05 3.09454e-06)
(1.6722 -5.52333e-05 3.5189e-06)
(1.67219 5.17555e-05 3.49554e-06)
(1.67812 -5.49554e-05 3.91631e-06)
(1.67812 5.1749e-05 3.89202e-06)
(1.6752 -5.50295e-05 4.3017e-06)
(1.67521 5.13824e-05 4.27671e-06)
(1.66267 -5.47867e-05 4.66378e-06)
(1.66268 5.13287e-05 4.63814e-06)
(1.63958 -5.48547e-05 5.00086e-06)
(1.63959 5.09608e-05 4.97481e-06)
(1.60491 -5.46309e-05 5.30886e-06)
(1.60493 5.08774e-05 5.28251e-06)
(1.55769 -5.47125e-05 5.58989e-06)
(1.55772 5.04889e-05 5.56353e-06)
(1.49714 -5.44939e-05 5.84913e-06)
(1.49718 5.03905e-05 5.82295e-06)
(1.42282 -5.45907e-05 6.09523e-06)
(1.42287 4.99797e-05 6.06954e-06)
(1.33473 -5.43433e-05 6.3408e-06)
(1.33479 4.99003e-05 6.31588e-06)
(1.23346 -5.44768e-05 6.59333e-06)
(1.23353 4.94446e-05 6.56949e-06)
(1.12025 -5.41578e-05 6.86987e-06)
(1.12033 4.94261e-05 6.84741e-06)
(0.997037 -5.43494e-05 7.17063e-06)
(0.997131 4.89023e-05 7.14987e-06)
(0.866435 -5.39447e-05 7.51053e-06)
(0.866545 4.89559e-05 7.4917e-06)
(0.731704 -5.41803e-05 7.88321e-06)
(0.731834 4.83749e-05 7.86659e-06)
(0.596634 -5.37147e-05 8.29207e-06)
(0.596786 4.84718e-05 8.2778e-06)
(0.465409 -5.39759e-05 8.72526e-06)
(0.465588 4.78477e-05 8.71351e-06)
(0.3424 -5.34808e-05 9.17452e-06)
(0.34261 4.79514e-05 9.16526e-06)
(0.231949 -5.37606e-05 9.62494e-06)
(0.232188 4.7286e-05 9.61816e-06)
(0.1381 -5.32267e-05 1.00632e-05)
(0.138353 4.74001e-05 1.00586e-05)
(0.0642574 -5.36018e-05 1.04667e-05)
(0.0644965 4.66118e-05 1.04642e-05)
(0.0129836 -5.2936e-05 1.084e-05)
(0.0131634 4.68246e-05 1.0839e-05)
(-0.0143068 -5.34923e-05 1.11515e-05)
(-0.0142292 4.58281e-05 1.11515e-05)
(-0.0174876 -5.26305e-05 1.14269e-05)
(-0.0175283 4.61819e-05 1.14257e-05)
(0.00222494 -5.33869e-05 1.16385e-05)
(0.0020845 4.49772e-05 1.16383e-05)
(0.0422811 -5.23603e-05 1.18203e-05)
(0.0420857 4.54476e-05 1.18198e-05)
(0.0990723 -5.32383e-05 1.19664e-05)
(0.0988673 4.40787e-05 1.19639e-05)
(0.168182 -5.20678e-05 1.21076e-05)
(0.167997 4.46674e-05 1.21034e-05)
(0.244727 -5.30653e-05 1.22381e-05)
(0.244574 4.31326e-05 1.22309e-05)
(0.323715 -5.17464e-05 1.23871e-05)
(0.323595 4.38423e-05 1.23774e-05)
(0.400439 -5.28646e-05 1.25446e-05)
(0.400347 4.2143e-05 1.25316e-05)
(0.470811 -5.13718e-05 1.27344e-05)
(0.470742 4.29977e-05 1.27187e-05)
(0.531597 -5.26768e-05 1.29309e-05)
(0.531546 4.10708e-05 1.2912e-05)
(0.580633 -5.09344e-05 1.31659e-05)
(0.580598 4.21459e-05 1.31446e-05)
(0.616869 -5.24929e-05 1.33937e-05)
(0.616847 3.99279e-05 1.337e-05)
(0.640321 -5.04869e-05 1.36505e-05)
(0.640309 4.12377e-05 1.36251e-05)
(0.651975 -5.23274e-05 1.38894e-05)
(0.65197 3.87034e-05 1.38625e-05)
(0.653616 -5.00066e-05 1.41568e-05)
(0.653618 4.03002e-05 1.41291e-05)
(0.647574 -5.21959e-05 1.43958e-05)
(0.64758 3.73858e-05 1.43674e-05)
(0.636468 -4.95067e-05 1.4668e-05)
(0.636476 3.93242e-05 1.46395e-05)
(0.622954 -5.20857e-05 1.49102e-05)
(0.622963 3.59914e-05 1.48816e-05)
(0.609475 -4.90033e-05 1.51939e-05)
(0.609483 3.82969e-05 1.51654e-05)
(0.598149 -5.19845e-05 1.54551e-05)
(0.598155 3.45354e-05 1.54266e-05)
(0.590651 -4.84547e-05 1.57698e-05)
(0.590653 3.72635e-05 1.57412e-05)
(0.588101 -5.19285e-05 1.60544e-05)
(0.588101 3.29854e-05 1.60257e-05)
(0.591099 -4.78726e-05 1.64039e-05)
(0.591095 3.62165e-05 1.63747e-05)
(0.599801 -5.1893e-05 1.67194e-05)
(0.599794 3.13711e-05 1.66894e-05)
(0.613989 -4.72508e-05 1.71035e-05)
(0.61398 3.51684e-05 1.70725e-05)
(0.633136 -5.19054e-05 1.74365e-05)
(0.633124 2.96726e-05 1.74042e-05)
(0.656485 -4.66064e-05 1.78393e-05)
(0.656472 3.41105e-05 1.78055e-05)
(0.683125 -5.1978e-05 1.81767e-05)
(0.683112 2.78864e-05 1.81413e-05)
(0.712117 -4.59105e-05 1.85925e-05)
(0.712104 3.30814e-05 1.85551e-05)
(0.742449 -5.21385e-05 1.89193e-05)
(0.742437 2.59957e-05 1.888e-05)
(0.773107 -4.51889e-05 1.93348e-05)
(0.773095 3.20665e-05 1.92933e-05)
(0.803099 -5.23471e-05 1.96485e-05)
(0.803089 2.40521e-05 1.96052e-05)
(0.831415 -4.44904e-05 2.00509e-05)
(0.831405 3.10293e-05 2.00054e-05)
(0.857182 -5.25802e-05 2.03492e-05)
(0.857174 2.2092e-05 2.03021e-05)
(0.879624 -4.37936e-05 2.07321e-05)
(0.879618 3.00038e-05 2.06831e-05)
(0.898079 -5.29102e-05 2.09896e-05)
(0.898074 2.0056e-05 2.09394e-05)
(0.912145 -4.30753e-05 2.13438e-05)
(0.912142 2.90261e-05 2.1292e-05)
(0.921731 -5.33114e-05 2.15516e-05)
(0.92173 1.79826e-05 2.14992e-05)
(0.92701 -4.23743e-05 2.18523e-05)
(0.92701 2.80693e-05 2.17988e-05)
(0.928404 -5.38108e-05 2.19864e-05)
(0.928404 1.58567e-05 2.19329e-05)
(0.926558 -4.1687e-05 2.22234e-05)
(0.926559 2.71471e-05 2.2169e-05)
(0.922298 -5.43992e-05 2.2282e-05)
(0.922299 1.36971e-05 2.22282e-05)
(0.916489 -4.10207e-05 2.24554e-05)
(0.916491 2.62611e-05 2.24008e-05)
(0.909888 -5.51069e-05 2.24409e-05)
(0.90989 1.1482e-05 2.23874e-05)
(0.903113 -4.03625e-05 2.25725e-05)
(0.903114 2.54313e-05 2.2518e-05)
(0.896543 -5.59162e-05 2.25157e-05)
(0.896545 9.23704e-06 2.24625e-05)
(0.890246 -3.97472e-05 2.26338e-05)
(0.890248 2.46301e-05 2.25793e-05)
(0.884107 -5.67974e-05 2.2578e-05)
(0.884109 6.99935e-06 2.25252e-05)
(0.877819 -3.91599e-05 2.27218e-05)
(0.877821 2.38789e-05 2.26672e-05)
(0.870926 -5.77892e-05 2.26877e-05)
(0.870928 4.73858e-06 2.26353e-05)
(0.863043 -3.85762e-05 2.2882e-05)
(0.863044 2.32095e-05 2.28272e-05)
(0.853875 -5.88843e-05 2.28766e-05)
(0.853877 2.47077e-06 2.28247e-05)
(0.843289 -3.80325e-05 2.31025e-05)
(0.843292 2.25927e-05 2.30477e-05)
(0.831401 -6.00714e-05 2.30985e-05)
(0.831404 2.15846e-07 2.30475e-05)
(0.818537 -3.75508e-05 2.33097e-05)
(0.81854 2.20132e-05 2.32551e-05)
(0.805248 -6.13632e-05 2.32496e-05)
(0.80525 -2.0301e-06 2.31998e-05)
(0.792207 -3.71524e-05 2.33842e-05)
(0.79221 2.14562e-05 2.33296e-05)
(0.780229 -6.27663e-05 2.32101e-05)
(0.780231 -4.26479e-06 2.31616e-05)
(0.770142 -3.68427e-05 2.32176e-05)
(0.770143 2.09232e-05 2.31627e-05)
(0.762619 -6.43112e-05 2.28845e-05)
(0.76262 -6.50815e-06 2.2837e-05)
(0.758245 -3.6625e-05 2.27474e-05)
(0.758245 2.04195e-05 2.26912e-05)
(0.757464 -6.59893e-05 2.22609e-05)
(0.757463 -8.73806e-06 2.22136e-05)
(0.760457 -3.65044e-05 2.2001e-05)
(0.760455 1.99515e-05 2.19421e-05)
(0.767149 -6.77972e-05 2.13933e-05)
(0.767147 -1.09324e-05 2.13454e-05)
(0.77729 -3.6521e-05 2.10471e-05)
(0.777287 1.94957e-05 2.09839e-05)
(0.79046 -6.97198e-05 2.03775e-05)
(0.790458 -1.30507e-05 2.03281e-05)
(0.806091 -3.6677e-05 2.00092e-05)
(0.806088 1.90722e-05 1.99399e-05)
(0.823524 -7.17745e-05 1.93304e-05)
(0.823521 -1.5076e-05 1.92789e-05)
(0.842065 -3.70149e-05 1.89846e-05)
(0.842062 1.86679e-05 1.89073e-05)
(0.860979 -7.39637e-05 1.83456e-05)
(0.860977 -1.69668e-05 1.82916e-05)
(0.879596 -3.75641e-05 1.80643e-05)
(0.879593 1.82897e-05 1.7977e-05)
(0.897361 -7.63094e-05 1.74966e-05)
(0.897359 -1.8691e-05 1.74403e-05)
(0.913788 -3.8368e-05 1.73021e-05)
(0.913786 1.79377e-05 1.72028e-05)
(0.928546 -7.88345e-05 1.68224e-05)
(0.928545 -2.0206e-05 1.67648e-05)
(0.94156 -3.94573e-05 1.67257e-05)
(0.941559 1.76315e-05 1.66119e-05)
(0.952914 -8.15612e-05 1.63246e-05)
(0.952913 -2.14568e-05 1.62669e-05)
(0.962906 -4.08799e-05 1.62906e-05)
(0.962904 1.73804e-05 1.61593e-05)
(0.97205 -8.4525e-05 1.59016e-05)
(0.972049 -2.23879e-05 1.58455e-05)
(0.98107 -4.26964e-05 1.5835e-05)
(0.981068 1.71894e-05 1.56818e-05)
(0.990933 -8.77557e-05 1.65532e-05)
(0.990932 -2.29208e-05 1.52795e-05)
(1.00291 -4.49921e-05 1.50687e-05)
(1.00291 1.7049e-05 1.48872e-05)
(1.01878 -9.13057e-05 1.79255e-05)
(1.01878 -2.29757e-05 1.42156e-05)
(1.04097 -4.78733e-05 1.3599e-05)
(1.04097 1.69516e-05 1.33794e-05)
(1.07313 -7.36131e-05 1.22902e-05)
(1.07313 -2.25196e-05 1.22477e-05)
(1.12145 -2.91457e-05 1.10187e-05)
(1.12145 1.72287e-05 1.08427e-05)
(1.19677 -5.47891e-05 9.13675e-06)
(1.19677 -2.18914e-05 9.09999e-06)
(1.31691 -9.15337e-06 7.20588e-06)
(1.3169 1.79015e-05 7.078e-06)
(1.51194 -3.45475e-05 4.81745e-06)
(1.51194 -2.11619e-05 4.79095e-06)
(1.92342 1.22521e-05 2.32651e-06)
(1.92342 1.86588e-05 2.26428e-06)
(0.0233209 -1.31043e-05 -5.57689e-08)
(0.0233457 -2.53983e-05 -0.000413761)
(0.0700461 1.41276e-05 -1.58585e-08)
(0.0701203 -9.06463e-06 -0.000616173)
(0.117251 2.42526e-05 -5.88736e-09)
(0.117373 -2.12026e-05 -0.000510185)
(0.164937 3.08363e-05 -3.08704e-09)
(0.165106 -3.08291e-05 -0.000309072)
(0.213111 3.48691e-05 -7.59663e-10)
(0.213323 -3.48625e-05 -0.000168152)
(0.261774 3.71053e-05 -1.55159e-10)
(0.262024 -3.70384e-05 -9.98848e-05)
(0.310888 3.85722e-05 -5.523e-11)
(0.311172 -3.84807e-05 -6.66899e-05)
(0.360383 3.96009e-05 2.16668e-11)
(0.360697 -3.95773e-05 -4.8732e-05)
(0.410186 4.04612e-05 -5.20192e-11)
(0.410525 -4.03225e-05 -3.7945e-05)
(0.460286 4.1067e-05 4.18051e-36)
(0.460646 -4.10855e-05 -3.0911e-05)
(0.510744 4.17084e-05 -3.75577e-11)
(0.511121 -4.15063e-05 -2.60305e-05)
(0.561569 4.20957e-05 1.73681e-20)
(0.561958 -4.21571e-05 -2.24798e-05)
(0.612772 4.26438e-05 -1.46108e-10)
(0.61317 -4.24301e-05 -1.97994e-05)
(0.664398 5.67738e-05 -5.2873e-08)
(0.664801 -4.29103e-05 -1.77053e-05)
(0.716413 1.55554e-05 -3.59542e-19)
(0.716818 -4.31832e-05 -1.60604e-05)
(0.768701 9.63064e-05 -1.11325e-07)
(0.769105 -4.35146e-05 -1.46967e-05)
(0.821094 -3.64754e-05 -1.00915e-09)
(0.821495 -4.41715e-05 -1.36156e-05)
(0.873423 0.000129295 -5.00033e-08)
(0.873817 -4.39323e-05 -1.26892e-05)
(0.925653 -5.10364e-05 -1.2718e-09)
(0.926039 -4.4831e-05 -1.19173e-05)
(0.977972 0.000145037 -4.90507e-08)
(0.97835 -4.42048e-05 -1.12475e-05)
(1.03065 -6.56568e-05 -8.73891e-10)
(1.03102 -4.56087e-05 -1.0682e-05)
(1.08384 0.000160656 -4.73505e-08)
(1.0842 -4.44157e-05 -1.01806e-05)
(1.13753 -8.02447e-05 5.19553e-19)
(1.13787 -4.63355e-05 -9.75413e-06)
(1.19164 0.000202717 -1.57144e-07)
(1.19197 -4.44496e-05 -9.34377e-06)
(1.24609 -0.000148121 -1.88815e-21)
(1.24641 -4.7211e-05 -9.04392e-06)
(1.30085 0.000268687 -1.62148e-07)
(1.30116 -4.44743e-05 -8.7232e-06)
(1.35584 -0.000212483 -2.69995e-09)
(1.35614 -4.82741e-05 -8.49887e-06)
(1.41098 0.000314862 -9.31605e-08)
(1.41126 -4.43294e-05 -8.26442e-06)
(1.46613 -0.000240025 -4.96139e-09)
(1.4664 -4.94115e-05 -8.07901e-06)
(1.52117 0.000343805 -9.62876e-08)
(1.52143 -4.39325e-05 -7.89369e-06)
(1.57606 -0.000268693 -4.41751e-09)
(1.57631 -5.07155e-05 -7.75161e-06)
(1.63091 0.000373273 -9.16738e-08)
(1.63115 -4.32853e-05 -7.60312e-06)
(1.68607 -0.000297193 -1.94201e-09)
(1.6863 -5.2259e-05 -7.49279e-06)
(1.74206 0.000402377 -8.53366e-08)
(1.74229 -4.2303e-05 -7.37265e-06)
(1.7995 -0.000325059 -3.35442e-19)
(1.79972 -5.41279e-05 -7.28744e-06)
(1.8589 0.000460892 -2.31383e-07)
(1.85911 -4.09587e-05 -7.15679e-06)
(1.92062 -0.000413266 0)
(1.92083 -5.64819e-05 -7.13194e-06)
(1.9848 0.000650337 -7.5041e-07)
(1.98502 -3.92014e-05 -6.90495e-06)
(2.0514 -0.000706207 -2.03372e-19)
(2.05161 -5.9376e-05 -7.0325e-06)
(2.12025 0.00098153 -9.84319e-07)
(2.12046 -3.69493e-05 -6.78432e-06)
(2.19125 -0.00108025 -2.79092e-21)
(2.19147 -6.27867e-05 -6.99141e-06)
(2.26455 0.00132013 -8.36081e-07)
(2.26477 -3.41878e-05 -6.81334e-06)
(2.34078 -0.00138687 -3.24753e-18)
(2.341 -6.66651e-05 -7.00185e-06)
(2.42122 0.00155419 -4.63331e-07)
(2.42145 -3.09103e-05 -6.94041e-06)
(2.50782 -0.00154872 0)
(2.50806 -7.10001e-05 -7.05128e-06)
(2.60295 0.00168714 -3.03712e-07)
(2.60321 -2.71182e-05 -7.04642e-06)
(2.70909 -0.00165129 1.54468e-34)
(2.70936 -7.58874e-05 -7.13125e-06)
(2.82846 0.0018017 -3.70809e-07)
(2.82876 -2.27228e-05 -7.12599e-06)
(2.96287 -0.00177663 -5.44263e-21)
(2.96318 -8.14517e-05 -7.24194e-06)
(3.11367 0.00227236 -2.43349e-06)
(3.114 -1.761e-05 -6.75794e-06)
(3.28187 -0.00260069 -2.27402e-21)
(3.28221 -8.72493e-05 -7.40705e-06)
(3.46799 0.00282161 -8.72766e-07)
(3.46834 -1.18063e-05 -7.36783e-06)
(3.67153 -0.00287286 -4.92828e-08)
(3.67187 -9.29868e-05 -7.65986e-06)
(3.88996 0.00305706 -8.84807e-07)
(3.89029 -5.93761e-06 -7.76975e-06)
(4.11733 -0.00306872 -2.01986e-07)
(4.11763 -9.892e-05 -8.14255e-06)
(4.34278 0.00329138 -1.64158e-06)
(4.34304 -1.42474e-06 -8.40253e-06)
(4.54969 -0.00334347 -4.79011e-07)
(4.54988 -0.000105803 -9.11138e-06)
(4.71595 0.00361788 -2.6401e-06)
(4.71604 5.79754e-07 -9.61472e-06)
(4.81595 -0.00373099 -7.6447e-07)
(4.81592 -0.000112802 -1.07522e-05)
(4.8243 0.00404111 -3.21893e-06)
(4.82413 1.07199e-06 -1.1483e-05)
(4.72052 -0.00419944 -8.22444e-07)
(4.72019 -0.000116665 -1.28622e-05)
(4.49364 0.00449823 -2.73131e-06)
(4.49312 1.89196e-06 -1.36288e-05)
(4.1453 -0.00464422 -5.20648e-07)
(4.1446 -0.000115222 -1.48185e-05)
(3.69046 0.00488662 -1.30184e-06)
(3.68956 2.48575e-06 -1.53767e-05)
(3.15525 -0.0049642 -3.31915e-18)
(3.15416 -0.000110179 -1.60296e-05)
(2.57278 0.00514862 -5.86604e-08)
(2.57152 1.09721e-07 -1.62628e-05)
(1.97809 -0.00498933 -1.42008e-06)
(1.97669 -0.00010462 -1.6073e-05)
(1.40343 0.00511398 -4.08397e-07)
(1.40196 -6.08869e-06 -1.60984e-05)
(0.874959 -0.00492947 -2.21363e-06)
(0.873454 -9.98914e-05 -1.56383e-05)
(0.41112 0.00502669 -5.18685e-07)
(0.409665 -1.42626e-05 -1.56082e-05)
(0.0227435 -0.00484885 -2.30291e-06)
(0.0214224 -9.57353e-05 -1.51353e-05)
(-0.285848 0.0049471 -4.88425e-07)
(-0.286951 -2.207e-05 -1.51447e-05)
(-0.515169 -0.000235826 -5.51507e-06)
(-0.516013 -9.17805e-05 -1.11632e-06)
(-0.669008 0.00030293 -5.5424e-07)
(-0.669584 -2.77407e-05 -9.50969e-07)
(-0.753132 -0.000140074 -1.27902e-06)
(-0.753447 -8.70974e-05 -8.83176e-07)
(-0.774396 0.00022009 -4.12102e-07)
(-0.774464 -3.22963e-05 -7.25536e-07)
(-0.740204 -6.71349e-05 -9.77157e-07)
(-0.740043 -8.28947e-05 -6.62385e-07)
(-0.658182 0.000158261 -3.03755e-07)
(-0.657811 -3.61454e-05 -5.22606e-07)
(-0.535934 -1.62143e-05 -6.8937e-07)
(-0.535372 -7.93225e-05 -4.66898e-07)
(-0.380786 0.000116703 -2.08973e-07)
(-0.380054 -3.94113e-05 -3.45674e-07)
(-0.199581 1.60734e-05 -4.40794e-07)
(-0.198709 -7.63081e-05 -2.99497e-07)
(0.00152371 9.18616e-05 -1.28463e-07)
(0.00249679 -4.22224e-05 -1.98389e-07)
(0.217242 3.34889e-05 -2.40276e-07)
(0.218258 -7.36801e-05 -1.6697e-07)
(0.443209 7.97809e-05 -6.60147e-08)
(0.444223 -4.45332e-05 -8.92256e-08)
(0.675933 4.04921e-05 -9.50791e-08)
(0.676911 -7.13802e-05 -7.12628e-08)
(0.912625 7.67998e-05 -6.20804e-08)
(0.913546 -4.644e-05 -8.71243e-09)
(1.15095 3.99561e-05 -7.82142e-08)
(1.1518 -6.93863e-05 -7.10388e-08)
(1.38873 7.58596e-05 -9.92727e-08)
(1.3895 -4.80507e-05 -1.05021e-07)
(1.62368 4.26942e-05 -1.96052e-07)
(1.62437 -6.77108e-05 -1.89649e-07)
(1.85318 7.34132e-05 -2.51677e-07)
(1.85379 -4.94861e-05 -2.56671e-07)
(2.07417 4.49723e-05 -3.79052e-07)
(2.0747 -6.63622e-05 -3.73259e-07)
(2.28314 7.1204e-05 -4.70643e-07)
(2.2836 -5.08229e-05 -4.74943e-07)
(2.47626 4.68129e-05 -6.20991e-07)
(2.47665 -6.53227e-05 -6.15722e-07)
(2.64963 6.92008e-05 -7.29866e-07)
(2.64995 -5.20727e-05 -7.33524e-07)
(2.79961 4.83434e-05 -8.77451e-07)
(2.79987 -6.44815e-05 -8.72633e-07)
(2.92316 6.7446e-05 -9.72358e-07)
(2.92336 -5.31773e-05 -9.75426e-07)
(3.01816 4.96673e-05 -1.08428e-06)