/*--------------------------------*- C++ -*----------------------------------*\
| =========                 |                                                 |
| \\      /  F ield         | OpenFOAM: The Open Source CFD Toolbox           |
|  \\    /   O peration     | Version:  2106                                  |
|   \\  /    A nd           | Website:  www.openfoam.com                      |
|    \\/     M anipulation  |                                                 |
\*---------------------------------------------------------------------------*/
FoamFile
{
    version     2.0;
    format      ascii;
    arch        "LSB;label=32;scalar=64";
    class       surfaceScalarField;
    location    "7000";
    object      phi;
}
// * * * * * * * * * * * * * * * * * * * * * * * * * * * * * * * * * * * * * //

dimensions      [0 3 -1 0 0 0 0];

oriented        oriented;

internalField   nonuniform List<scalar> 
5116
(
1.18738e-07
-4.36572e-18
3.13302e-21
1.54557e-21
1.82057e-21
3.63121e-07
-4.40638e-18
1.67509e-20
1.89665e-20
6.5428e-21
6.181e-07
-4.44881e-18
1.74303e-20
3.70724e-20
6.82053e-21
8.83747e-07
-4.49285e-18
1.80789e-20
5.59073e-20
7.09067e-21
1.1593e-06
-4.5381e-18
1.86148e-20
7.51116e-20
7.31665e-21
1.4422e-06
-4.5844e-18
1.88828e-20
9.49566e-20
7.43725e-21
1.72744e-06
-4.62952e-18
1.87243e-20
1.14118e-19
7.3898e-21
2.0083e-06
-4.67287e-18
1.80858e-20
1.32649e-19
7.15248e-21
2.27852e-06
-4.71431e-18
1.70668e-20
1.50522e-19
6.76383e-21
2.53419e-06
-4.75333e-18
1.58521e-20
1.67175e-19
6.29654e-21
2.77414e-06
-4.78813e-18
1.46105e-20
1.8198e-19
5.81737e-21
2.99907e-06
-4.82053e-18
1.34468e-20
1.9564e-19
5.36796e-21
3.21067e-06
-4.8512e-18
1.24067e-20
2.0832e-19
4.96674e-21
3.41084e-06
-4.87871e-18
1.14997e-20
2.20203e-19
4.6177e-21
3.60147e-06
-4.90483e-18
1.07175e-20
2.31116e-19
4.31783e-21
3.7842e-06
-4.92865e-18
1.00456e-20
2.41026e-19
4.06145e-21
3.96045e-06
-4.95054e-18
9.46796e-21
2.50016e-19
3.84243e-21
4.13142e-06
-4.97153e-18
8.97004e-21
2.58825e-19
3.65505e-21
4.29811e-06
-4.99368e-18
8.53917e-21
2.67736e-19
3.49437e-21
4.46135e-06
-5.01349e-18
8.1647e-21
2.77168e-19
3.35622e-21
4.62184e-06
-5.032e-18
7.83781e-21
2.84157e-19
3.23709e-21
4.78019e-06
-5.04953e-18
7.55121e-21
2.91715e-19
3.13418e-21
4.93689e-06
-5.06637e-18
7.29888e-21
2.98779e-19
3.04514e-21
5.09238e-06
-5.08323e-18
7.0759e-21
3.0549e-19
2.96803e-21
5.24704e-06
-5.09866e-18
6.87814e-21
3.11483e-19
2.90126e-21
5.40118e-06
-5.11422e-18
6.70217e-21
3.18551e-19
2.84349e-21
5.5551e-06
-5.13105e-18
6.54516e-21
3.25374e-19
2.79358e-21
5.70904e-06
-5.14847e-18
6.4047e-21
3.33522e-19
2.75063e-21
5.86322e-06
-5.16378e-18
6.27874e-21
3.40209e-19
2.71384e-21
6.01785e-06
-5.17906e-18
6.16555e-21
3.47454e-19
2.68257e-21
6.17311e-06
-5.1918e-18
6.06366e-21
3.53626e-19
2.65623e-21
6.32915e-06
-5.20664e-18
5.97173e-21
3.59881e-19
2.63434e-21
6.48613e-06
-5.22114e-18
5.88871e-21
3.66507e-19
2.61645e-21
6.64419e-06
-5.23572e-18
5.81367e-21
3.72528e-19
2.60222e-21
6.80344e-06
-5.25038e-18
5.74578e-21
3.79073e-19
2.59133e-21
6.96401e-06
-5.26461e-18
5.68434e-21
3.85007e-19
2.58345e-21
7.12601e-06
-5.27843e-18
5.6287e-21
3.91241e-19
2.57833e-21
7.28953e-06
-5.29243e-18
5.57827e-21
3.97145e-19
2.57579e-21
7.45469e-06
-5.3049e-18
5.5325e-21
4.03394e-19
2.57575e-21
7.62156e-06
-5.31886e-18
5.49095e-21
4.08964e-19
2.57797e-21
7.79024e-06
-5.33076e-18
5.45326e-21
4.14575e-19
2.58226e-21
7.96081e-06
-5.34344e-18
5.41914e-21
4.19848e-19
2.5885e-21
8.13335e-06
-5.35598e-18
5.38826e-21
4.24798e-19
2.59655e-21
8.30794e-06
-5.36787e-18
5.36022e-21
4.2911e-19
2.60626e-21
8.48466e-06
-5.38041e-18
5.33485e-21
4.32772e-19
2.61746e-21
8.66358e-06
-5.39036e-18
5.3119e-21
4.38078e-19
2.63009e-21
8.84477e-06
-5.40391e-18
5.29112e-21
4.41552e-19
2.6441e-21
9.0283e-06
-5.41657e-18
5.27241e-21
4.46483e-19
2.6594e-21
9.21424e-06
-5.42727e-18
5.25551e-21
4.50342e-19
2.67594e-21
9.40266e-06
-5.44128e-18
5.24021e-21
4.5295e-19
2.69364e-21
9.59363e-06
-5.45151e-18
5.22639e-21
4.57179e-19
2.71256e-21
9.78721e-06
-5.46132e-18
5.21382e-21
4.59795e-19
2.73259e-21
9.98347e-06
-5.47266e-18
5.20216e-21
4.63703e-19
2.75374e-21
1.01825e-05
-5.48451e-18
5.19135e-21
4.67529e-19
2.77596e-21
1.03843e-05
-5.49463e-18
5.18129e-21
4.68587e-19
2.79919e-21
1.05889e-05
-5.50759e-18
5.17179e-21
4.71596e-19
2.82353e-21
1.07966e-05
-5.52008e-18
5.16289e-21
4.73998e-19
2.84897e-21
1.10072e-05
-5.53061e-18
5.15438e-21
4.76859e-19
2.87544e-21
1.12208e-05
-5.53961e-18
5.1461e-21
4.74354e-19
2.90294e-21
1.14376e-05
-5.55102e-18
5.13776e-21
4.77672e-19
2.93181e-21
1.16576e-05
-5.56179e-18
5.12944e-21
4.79589e-19
2.96175e-21
1.18809e-05
-5.57232e-18
5.12103e-21
4.81179e-19
2.99276e-21
1.21074e-05
-5.58514e-18
5.11255e-21
4.84525e-19
3.02464e-21
1.23374e-05
-5.59628e-18
5.10407e-21
4.85077e-19
3.05761e-21
1.25708e-05
-5.60752e-18
5.09547e-21
4.87771e-19
3.09172e-21
1.28077e-05
-5.61847e-18
5.08662e-21
4.88257e-19
3.12666e-21
1.30482e-05
-5.62712e-18
5.07752e-21
4.8975e-19
3.16248e-21
1.32924e-05
-5.63681e-18
5.06789e-21
4.89707e-19
3.19908e-21
1.35402e-05
-5.64676e-18
5.05781e-21
4.87102e-19
3.23672e-21
1.37919e-05
-5.65406e-18
5.04704e-21
4.9042e-19
3.27564e-21
1.40474e-05
-5.66395e-18
5.03546e-21
4.91669e-19
3.31533e-21
1.43068e-05
-5.67595e-18
5.02311e-21
4.94896e-19
3.35582e-21
1.45703e-05
-5.68837e-18
5.01003e-21
4.96267e-19
3.39699e-21
1.48377e-05
-5.69883e-18
4.9963e-21
4.99742e-19
3.43892e-21
1.51093e-05
-5.71089e-18
4.98194e-21
5.01911e-19
3.4815e-21
1.53852e-05
-5.72247e-18
4.9669e-21
5.02471e-19
3.52453e-21
1.56653e-05
-5.72792e-18
4.95101e-21
4.96885e-19
3.56796e-21
1.59497e-05
-5.73629e-18
4.93387e-21
4.93941e-19
3.61209e-21
1.62386e-05
-5.7477e-18
4.91527e-21
4.92506e-19
3.65682e-21
1.6532e-05
-5.754e-18
4.89548e-21
4.89843e-19
3.70188e-21
1.68299e-05
-5.75824e-18
4.87407e-21
4.88075e-19
3.74753e-21
1.71325e-05
-5.76547e-18
4.85096e-21
4.8365e-19
3.79338e-21
1.74399e-05
-5.7752e-18
4.8265e-21
4.86191e-19
3.83952e-21
1.7752e-05
-5.78398e-18
4.80056e-21
4.85786e-19
3.88576e-21
1.80691e-05
-5.79364e-18
4.7737e-21
4.86029e-19
3.93161e-21
1.83911e-05
-5.80375e-18
4.74578e-21
4.9049e-19
3.97702e-21
1.87182e-05
-5.81524e-18
4.71643e-21
4.92378e-19
4.02127e-21
1.90504e-05
-5.82393e-18
4.68595e-21
4.93037e-19
4.06467e-21
1.93879e-05
-5.83343e-18
4.65334e-21
4.91351e-19
4.10769e-21
1.97307e-05
-5.84042e-18
4.61924e-21
4.8981e-19
4.15052e-21
2.00788e-05
-5.84866e-18
4.58235e-21
4.90122e-19
4.19366e-21
2.04325e-05
-5.85487e-18
4.54326e-21
4.89521e-19
4.23675e-21
2.07917e-05
-5.85882e-18
4.50163e-21
4.84105e-19
4.27996e-21
2.11566e-05
-5.8657e-18
4.45747e-21
4.79432e-19
4.32438e-21
2.15273e-05
-5.86786e-18
4.41092e-21
4.72034e-19
4.36851e-21
2.19038e-05
-5.87238e-18
4.36092e-21
4.69065e-19
4.4127e-21
2.22862e-05
-5.87318e-18
4.30797e-21
4.65787e-19
4.45749e-21
2.26747e-05
-5.87333e-18
4.25183e-21
4.62032e-19
4.50321e-21
2.30694e-05
-5.88592e-18
4.19164e-21
4.59691e-19
4.5498e-21
2.34703e-05
-5.89407e-18
4.1293e-21
4.57999e-19
4.59633e-21
2.38775e-05
-5.89895e-18
4.06431e-21
4.55606e-19
4.6426e-21
2.42912e-05
-5.89599e-18
3.99727e-21
4.46253e-19
4.68918e-21
2.47114e-05
-5.90188e-18
3.92538e-21
4.38765e-19
4.73636e-21
2.51382e-05
-5.91134e-18
3.85055e-21
4.37301e-19
4.78483e-21
2.55719e-05
-5.91477e-18
3.77422e-21
4.28491e-19
4.83329e-21
2.60123e-05
-5.91467e-18
3.69388e-21
4.18675e-19
4.88233e-21
2.64598e-05
-5.91569e-18
3.60977e-21
4.13279e-19
4.93259e-21
2.69143e-05
-5.91553e-18
3.52197e-21
4.05561e-19
4.98189e-21
2.73761e-05
-5.92264e-18
3.43021e-21
4.03938e-19
5.03153e-21
2.78451e-05
-5.92559e-18
3.33563e-21
4.02795e-19
5.07978e-21
2.83216e-05
-5.92987e-18
3.23714e-21
4.00606e-19
5.12617e-21
2.88056e-05
-5.93247e-18
3.13598e-21
3.94299e-19
5.17106e-21
2.92973e-05
-5.93499e-18
3.03117e-21
3.89572e-19
5.2149e-21
2.97968e-05
-5.93554e-18
2.92338e-21
3.83674e-19
5.2566e-21
3.03041e-05
-5.93388e-18
2.81171e-21
3.78194e-19
5.29735e-21
3.08195e-05
-5.9304e-18
2.69607e-21
3.61679e-19
5.33645e-21
3.13431e-05
-5.92357e-18
2.57956e-21
3.41269e-19
5.37626e-21
3.1875e-05
-5.91705e-18
2.45862e-21
3.36332e-19
5.41744e-21
3.24152e-05
-5.92485e-18
2.33375e-21
3.29001e-19
5.45456e-21
3.29641e-05
-5.9279e-18
2.21165e-21
3.2587e-19
5.48666e-21
3.35216e-05
-5.91734e-18
2.08972e-21
3.16627e-19
5.51106e-21
3.40879e-05
-5.91804e-18
1.96404e-21
3.0763e-19
5.52885e-21
3.46632e-05
-5.92018e-18
1.83754e-21
3.03125e-19
5.53844e-21
3.52476e-05
-5.92095e-18
1.70957e-21
2.9091e-19
5.54004e-21
3.58412e-05
-5.91543e-18
1.57937e-21
2.76949e-19
5.53801e-21
3.64442e-05
-5.91339e-18
1.44505e-21
2.65571e-19
5.53471e-21
3.70568e-05
-5.906e-18
1.31054e-21
2.55273e-19
5.52894e-21
3.7679e-05
-5.90073e-18
1.17468e-21
2.45271e-19
5.51712e-21
3.83111e-05
-5.87888e-18
1.03733e-21
2.25122e-19
5.5003e-21
3.89532e-05
-5.87429e-18
8.88862e-22
2.21019e-19
5.48835e-21
3.96054e-05
-5.86286e-18
7.36963e-22
2.03495e-19
5.47326e-21
4.02679e-05
-5.86108e-18
5.7899e-22
1.92742e-19
5.45969e-21
4.09409e-05
-5.85233e-18
4.15114e-22
1.79159e-19
5.44653e-21
4.16245e-05
-5.83675e-18
2.45218e-22
1.57359e-19
5.43165e-21
4.23189e-05
-5.81971e-18
6.46025e-23
1.38199e-19
5.41955e-21
4.30242e-05
-5.80994e-18
-1.23925e-22
1.21729e-19
5.40794e-21
4.37407e-05
-5.80026e-18
-3.17136e-22
1.07236e-19
5.39256e-21
4.44685e-05
-5.79846e-18
-5.12058e-22
9.5429e-20
5.37601e-21
4.52078e-05
-5.78931e-18
-7.03458e-22
7.73568e-20
5.35975e-21
4.59587e-05
-5.75605e-18
-8.94357e-22
5.99309e-20
5.34721e-21
4.67215e-05
-5.74168e-18
-1.09814e-21
3.72689e-20
5.33262e-21
4.74963e-05
-5.73607e-18
-1.30059e-21
2.1894e-20
5.32042e-21
4.82833e-05
-5.71636e-18
-1.50178e-21
1.21865e-21
5.30467e-21
4.90827e-05
-5.70888e-18
-1.70611e-21
-5.39863e-21
5.28888e-21
4.98947e-05
-5.69906e-18
-1.90432e-21
-2.04659e-20
5.27016e-21
5.07195e-05
-5.69382e-18
-2.0973e-21
-2.68809e-20
5.24668e-21
5.15573e-05
-5.67993e-18
-2.28564e-21
-4.48114e-20
5.21107e-21
5.24082e-05
-5.66522e-18
-2.47404e-21
-4.66199e-20
5.17442e-21
5.32726e-05
-5.66232e-18
-2.6657e-21
-5.44907e-20
5.12762e-21
5.41505e-05
-5.64484e-18
-2.85085e-21
-6.92823e-20
5.07469e-21
5.50423e-05
-5.63243e-18
-3.03616e-21
-9.15764e-20
5.01374e-21
5.59481e-05
-5.61003e-18
-3.22168e-21
-1.05826e-19
4.94923e-21
5.68681e-05
-5.5945e-18
-3.41013e-21
-1.24271e-19
4.87712e-21
5.78026e-05
-5.5618e-18
-3.59097e-21
-1.48696e-19
4.79468e-21
5.87518e-05
-5.53571e-18
-3.78529e-21
-1.69429e-19
4.71299e-21
5.97158e-05
-5.51467e-18
-3.98591e-21
-1.89449e-19
4.62397e-21
6.06951e-05
-5.49584e-18
-4.19393e-21
-2.0921e-19
4.52685e-21
6.16897e-05
-5.48793e-18
-4.39264e-21
-2.16045e-19
4.43393e-21
6.26999e-05
-5.46568e-18
-4.58828e-21
-2.36673e-19
4.3373e-21
6.37259e-05
-5.43676e-18
-4.78628e-21
-2.57312e-19
4.24481e-21
6.47681e-05
-5.40547e-18
-4.99153e-21
-2.83416e-19
4.15148e-21
6.58266e-05
-5.39996e-18
-5.19655e-21
-3.02695e-19
4.06947e-21
6.69017e-05
-5.39231e-18
-5.38555e-21
-3.287e-19
3.99173e-21
6.79937e-05
-5.36122e-18
-5.56354e-21
-3.51788e-19
3.91393e-21
6.91028e-05
-5.35427e-18
-5.76979e-21
-3.7465e-19
3.83907e-21
7.02292e-05
-5.32853e-18
-5.96589e-21
-4.00643e-19
3.76778e-21
7.13733e-05
-5.30698e-18
-6.17308e-21
-4.26264e-19
3.70497e-21
7.25354e-05
-5.2949e-18
-6.3857e-21
-4.39322e-19
3.6377e-21
7.37156e-05
-5.26303e-18
-6.57256e-21
-4.66544e-19
3.56602e-21
7.49143e-05
-5.23824e-18
-6.76155e-21
-4.80336e-19
3.48988e-21
7.61317e-05
-5.21429e-18
-6.95317e-21
-4.90732e-19
3.40466e-21
7.73682e-05
-5.17784e-18
-7.14804e-21
-5.08709e-19
3.30983e-21
7.8624e-05
-5.14373e-18
-7.37292e-21
-5.27034e-19
3.20979e-21
7.98995e-05
-5.1043e-18
-7.6042e-21
-5.495e-19
3.08931e-21
8.11949e-05
-5.05266e-18
-7.83423e-21
-5.73607e-19
2.9469e-21
8.25106e-05
-5.00412e-18
-8.09537e-21
-5.99407e-19
2.80927e-21
8.38468e-05
-4.97946e-18
-8.40385e-21
-6.27571e-19
2.69565e-21
8.52039e-05
-4.93651e-18
-8.70457e-21
-6.40815e-19
2.57301e-21
8.65822e-05
-4.89039e-18
-9.02084e-21
-6.78451e-19
2.45086e-21
8.7982e-05
-4.85144e-18
-9.34101e-21
-7.03021e-19
2.35576e-21
8.94036e-05
-4.79663e-18
-9.64588e-21
-7.23905e-19
2.23961e-21
9.08475e-05
-4.76753e-18
-9.93073e-21
-7.50353e-19
2.101e-21
9.23138e-05
-4.72553e-18
-1.01858e-20
-7.77379e-19
1.97537e-21
9.38031e-05
-4.69223e-18
-1.04383e-20
-8.10143e-19
1.86655e-21
9.53155e-05
-4.65907e-18
-1.06451e-20
-8.39974e-19
1.77433e-21
9.68516e-05
-4.61254e-18
-1.08288e-20
-8.75384e-19
1.69346e-21
9.84115e-05
-4.57861e-18
-1.09758e-20
-9.03269e-19
1.59854e-21
9.99958e-05
-4.53375e-18
-1.1121e-20
-9.28222e-19
1.52105e-21
0.000101605
-4.49312e-18
-1.12495e-20
-9.65819e-19
1.4629e-21
0.000103239
-4.45859e-18
-1.13977e-20
-9.88788e-19
1.43679e-21
0.000104898
-4.40496e-18
-1.15356e-20
-1.0249e-18
1.39137e-21
0.000106584
-4.36423e-18
-1.16771e-20
-1.07511e-18
1.32232e-21
0.000108295
-4.31831e-18
-1.17973e-20
-1.11673e-18
1.25097e-21
0.000110033
-4.28494e-18
-1.18649e-20
-1.13839e-18
1.18319e-21
0.000111798
-4.24237e-18
-1.19063e-20
-1.18598e-18
1.10077e-21
0.000113591
-4.19246e-18
-1.19478e-20
-1.23602e-18
1.03685e-21
0.000115411
-4.14536e-18
-1.197e-20
-1.26858e-18
1.0322e-21
0.00011726
-4.12282e-18
-1.1948e-20
-1.31846e-18
1.04543e-21
0.000119138
-4.07136e-18
-1.18781e-20
-1.35813e-18
1.03676e-21
0.000121044
-4.02084e-18
-1.18586e-20
-1.39933e-18
1.01083e-21
0.000122981
-3.94793e-18
-1.18429e-20
-1.44834e-18
9.80394e-22
0.000124947
-3.91046e-18
-1.18617e-20
-1.47912e-18
9.0323e-22
0.000126944
-3.85245e-18
-1.18018e-20
-1.52121e-18
8.13187e-22
0.000128972
-3.82238e-18
-1.17509e-20
-1.56625e-18
7.47902e-22
0.000131031
-3.75079e-18
-1.16517e-20
-1.60352e-18
7.33499e-22
0.000133122
-3.70506e-18
-1.16175e-20
-1.62321e-18
7.23221e-22
0.000135246
-3.65726e-18
-1.15934e-20
-1.66498e-18
6.30014e-22
0.000137403
-3.5757e-18
-1.15259e-20
-1.69974e-18
5.34644e-22
0.000139593
-3.54651e-18
-1.16221e-20
-1.73396e-18
5.00037e-22
0.000141817
-3.47826e-18
-1.16327e-20
-1.76602e-18
4.56255e-22
0.000144075
-3.45739e-18
-1.17355e-20
-1.79604e-18
3.82399e-22
0.000146368
-3.39157e-18
-1.1759e-20
-1.8342e-18
3.45991e-22
0.000148697
-3.37184e-18
-1.18722e-20
-1.85426e-18
3.08857e-22
0.000151062
-3.32637e-18
-1.19251e-20
-1.88122e-18
2.92742e-22
0.000153464
-3.27364e-18
-1.19019e-20
-1.8967e-18
2.33939e-22
0.000155902
-3.23906e-18
-1.17951e-20
-1.8956e-18
5.96155e-23
0.000158379
-3.19375e-18
-1.1745e-20
-1.91881e-18
-2.09653e-22
0.000160893
-3.15673e-18
-1.17784e-20
-1.94554e-18
-5.03458e-22
0.000163447
-3.10599e-18
-1.18643e-20
-1.96291e-18
-7.5439e-22
0.00016604
-3.07956e-18
-1.20196e-20
-1.97724e-18
-8.34759e-22
0.000168673
-3.0313e-18
-1.21616e-20
-1.99972e-18
-1.02862e-21
0.000171347
-2.98429e-18
-1.23033e-20
-2.02124e-18
-1.29485e-21
0.000174062
-2.97351e-18
-1.25555e-20
-2.00071e-18
-1.33923e-21
0.000176819
-2.93909e-18
-1.26626e-20
-2.01389e-18
-1.38099e-21
0.000179618
-2.88616e-18
-1.27447e-20
-2.02265e-18
-1.59549e-21
0.000182461
-2.87483e-18
-1.27688e-20
-2.0261e-18
-1.8062e-21
0.000185347
-2.83675e-18
-1.24795e-20
-2.01249e-18
-1.83044e-21
0.000188278
-2.8271e-18
-1.23845e-20
-1.993e-18
-1.97413e-21
0.000191255
-2.76751e-18
-1.22028e-20
-2.01558e-18
-2.54902e-21
0.000194277
-2.72543e-18
-1.21862e-20
-2.02998e-18
-3.28915e-21
0.000197345
-2.73774e-18
-1.23406e-20
-2.05103e-18
-4.07049e-21
0.000200461
-2.70289e-18
-1.24427e-20
-2.05976e-18
-4.66238e-21
0.000203625
-2.6817e-18
-1.26299e-20
-2.07268e-18
-5.30017e-21
0.000206838
-2.65162e-18
-1.29256e-20
-2.05298e-18
-5.86877e-21
0.000210099
-2.61068e-18
-1.32225e-20
-2.05534e-18
-6.37237e-21
0.000213412
-2.60714e-18
-1.36624e-20
-2.02948e-18
-6.51203e-21
0.000216775
-2.59662e-18
-1.39792e-20
-2.02147e-18
-6.72734e-21
0.000220189
-2.5586e-18
-1.41247e-20
-2.01312e-18
-7.06957e-21
0.000223656
-2.53434e-18
-1.44772e-20
-1.99377e-18
-7.55867e-21
0.000227177
-2.52884e-18
-1.46522e-20
-1.96858e-18
-7.94648e-21
0.000230751
-2.51697e-18
-1.47719e-20
-1.94495e-18
-8.2329e-21
0.000234381
-2.46983e-18
-1.49022e-20
-1.98587e-18
-8.87069e-21
0.000238066
-2.41213e-18
-1.51852e-20
-2.00583e-18
-8.90183e-21
0.000241807
-2.36184e-18
-1.55183e-20
-2.01223e-18
-8.74701e-21
0.000245606
-2.40911e-18
-1.55298e-20
-1.98564e-18
-8.55971e-21
0.000249463
-2.34016e-18
-1.50054e-20
-2.04041e-18
-8.97478e-21
0.000253379
-2.35196e-18
-1.40326e-20
-2.01871e-18
-1.00208e-20
0.000257356
-2.29056e-18
-1.27944e-20
-2.03539e-18
-1.22175e-20
0.000261393
-2.24086e-18
-1.28683e-20
-2.06047e-18
-1.39139e-20
0.000265491
-2.19515e-18
-1.38609e-20
-2.08324e-18
-1.50721e-20
0.000269653
-2.1901e-18
-1.49439e-20
-2.03945e-18
-1.60414e-20
0.000273878
-2.18973e-18
-1.64714e-20
-2.08969e-18
-1.75244e-20
0.000278167
-2.19666e-18
-1.77964e-20
-2.08616e-18
-1.8483e-20
0.000282522
-2.12619e-18
-1.85996e-20
-2.05234e-18
-1.92863e-20
0.000286944
-2.14313e-18
-1.98272e-20
-2.03874e-18
-2.00082e-20
0.000291433
-2.07841e-18
-1.9553e-20
-2.09904e-18
-2.10757e-20
0.00029599
-2.04788e-18
-2.00289e-20
-2.08603e-18
-2.18464e-20
0.000300617
-2.05259e-18
-2.07985e-20
-2.08438e-18
-2.26243e-20
0.000305314
-2.09745e-18
-2.12055e-20
-1.99967e-18
-2.21794e-20
0.000310083
-2.09522e-18
-2.01253e-20
-2.03657e-18
-2.28562e-20
0.000314924
-2.10122e-18
-1.91578e-20
-1.98712e-18
-2.21815e-20
0.000319839
-2.05676e-18
-1.75092e-20
-2.01972e-18
-2.21498e-20
0.000324828
-2.0732e-18
-1.6858e-20
-1.98097e-18
-2.08558e-20
0.000329894
-2.05008e-18
-1.66681e-20
-1.95715e-18
-2.06495e-20
0.000335036
-1.97086e-18
-1.6699e-20
-2.03551e-18
-2.13484e-20
0.000340256
-1.89215e-18
-1.75245e-20
-2.06366e-18
-2.14575e-20
0.000345555
-1.93601e-18
-1.95698e-20
-1.99748e-18
-2.02093e-20
0.000350934
-1.91117e-18
-2.08118e-20
-1.99647e-18
-2.04538e-20
0.000356395
-1.89594e-18
-2.23018e-20
-1.92686e-18
-1.85439e-20
0.000361938
-1.85729e-18
-2.27494e-20
-1.94091e-18
-1.75106e-20
0.000367564
-1.82351e-18
-2.33501e-20
-1.96932e-18
-1.62316e-20
0.000373276
-1.79814e-18
-2.42216e-20
-1.95645e-18
-1.60353e-20
0.000379073
-1.90274e-18
-2.57068e-20
-1.92975e-18
-1.48603e-20
0.000384958
-1.86464e-18
-2.58726e-20
-1.95162e-18
-1.43772e-20
0.000390932
-1.91397e-18
-2.6991e-20
-1.86345e-18
-1.42291e-20
0.000396995
-1.82889e-18
-2.78572e-20
-1.84187e-18
-1.37436e-20
0.000403149
-1.88549e-18
-2.74995e-20
-1.76719e-18
-1.56964e-20
0.000409395
-1.85757e-18
-2.59416e-20
-1.74599e-18
-1.94431e-20
0.000415734
-1.81903e-18
-2.42542e-20
-1.79065e-18
-2.2822e-20
0.000422169
-1.78539e-18
-2.33647e-20
-1.7652e-18
-2.16441e-20
0.000428699
-1.73557e-18
-2.2286e-20
-1.7215e-18
-2.02731e-20
0.000435327
-1.66886e-18
-2.17187e-20
-1.75201e-18
-2.05801e-20
0.000442053
-1.72429e-18
-2.21003e-20
-1.68886e-18
-2.18539e-20
0.000448879
-1.73686e-18
-2.39739e-20
-1.63076e-18
-2.31831e-20
0.000455806
-1.69054e-18
-2.43096e-20
-1.6167e-18
-2.41206e-20
0.000462836
-1.61274e-18
-2.36256e-20
-1.63681e-18
-2.48959e-20
0.00046997
-1.6593e-18
-2.55533e-20
-1.64646e-18
-2.49347e-20
0.000477208
-1.73057e-18
-2.58911e-20
-1.53424e-18
-2.72972e-20
0.000484554
-1.58332e-18
-2.13927e-20
-1.56299e-18
-2.84061e-20
0.000492007
-1.63304e-18
-2.10466e-20
-1.58695e-18
-2.95727e-20
0.000499568
-1.58929e-18
-2.03855e-20
-1.6264e-18
-3.23747e-20
0.000507241
-1.73302e-18
-2.47548e-20
-1.6298e-18
-3.86497e-20
0.000515025
-1.63012e-18
-2.64591e-20
-1.59692e-18
-4.59995e-20
0.000522921
-1.53792e-18
-2.83692e-20
-1.56203e-18
-5.21001e-20
0.000530932
-1.45428e-18
-3.25251e-20
-1.54547e-18
-5.32292e-20
0.000539059
-1.32948e-18
-3.51788e-20
-1.44323e-18
-5.1482e-20
0.000547302
-1.23091e-18
-3.81971e-20
-1.34569e-18
-5.07462e-20
0.000555663
-1.26645e-18
-4.17295e-20
-1.33729e-18
-4.78249e-20
0.000564143
-1.18395e-18
-3.6292e-20
-1.1752e-18
-3.86745e-20
0.000572743
-1.23487e-18
-3.21285e-20
-1.20075e-18
-3.89033e-20
0.000581464
-1.20161e-18
-2.53834e-20
-1.25038e-18
-3.66999e-20
0.000590307
-1.37094e-18
-2.71644e-20
-1.28363e-18
-3.15243e-20
0.000599274
-1.323e-18
-2.46847e-20
-1.26169e-18
-2.79968e-20
0.000608364
-1.24322e-18
-2.82997e-20
-1.25374e-18
-2.98213e-20
0.000617579
-1.37898e-18
-3.26781e-20
-1.41255e-18
-2.92411e-20
0.00062692
-1.27742e-18
-2.67565e-20
-1.38749e-18
-2.35788e-20
0.000636387
-1.12919e-18
-2.76337e-20
-1.38135e-18
-2.23801e-20
0.00064598
-1.19258e-18
-3.69562e-20
-1.10009e-18
-1.667e-20
0.000655701
-1.30146e-18
-3.19591e-20
-1.06294e-18
-2.14004e-20
0.000665548
-1.18292e-18
-1.48848e-20
-1.09763e-18
-1.82225e-20
0.000675523
-1.04445e-18
-8.01718e-21
-1.0436e-18
-1.05853e-20
0.000685624
-1.05598e-18
-8.65308e-21
-1.04812e-18
-4.19648e-21
0.000695853
-1.07851e-18
4.64346e-23
-1.06681e-18
4.87578e-21
0.000706208
-9.50757e-19
1.70441e-20
-8.79299e-19
2.87425e-21
0.000716688
-9.33581e-19
1.83553e-20
-1.05005e-18
-4.04969e-21
0.000727293
-8.98251e-19
2.5008e-20
-9.09138e-19
-7.6728e-22
0.000738022
-9.53244e-19
1.4822e-20
-9.1636e-19
7.81709e-21
0.000748874
-8.21573e-19
1.60273e-20
-8.48023e-19
1.36117e-20
0.000759846
-7.99659e-19
1.41024e-20
-8.28802e-19
6.54542e-21
0.000770938
1.83685e-20
-7.75694e-19
-1.12826e-21
-8.3108e-19
1.18738e-07
2.37001e-21
2.55035e-21
3.63121e-07
1.55514e-20
1.25929e-20
6.181e-07
2.92273e-20
2.31217e-20
8.83747e-07
4.33815e-20
3.39331e-20
1.1593e-06
5.81823e-20
4.51173e-20
1.4422e-06
7.33119e-20
5.61498e-20
1.72744e-06
8.81622e-20
6.72368e-20
2.0083e-06
1.02489e-19
7.77506e-20
2.27852e-06
1.15238e-19
8.87287e-20
2.53419e-06
1.27704e-19
9.82341e-20
2.77414e-06
1.39002e-19
1.07566e-19
2.99907e-06
1.49611e-19
1.16182e-19
3.21067e-06
1.59244e-19
1.23838e-19
3.41084e-06
1.6809e-19
1.31063e-19
3.60147e-06
1.75864e-19
1.38241e-19
3.7842e-06
1.83813e-19
1.45118e-19
3.96045e-06
1.91969e-19
1.50414e-19
4.13142e-06
1.99184e-19
1.5544e-19
4.29811e-06
2.06023e-19
1.6145e-19
4.46135e-06
2.13438e-19
1.65135e-19
4.62184e-06
2.20494e-19
1.69872e-19
4.78019e-06
2.27047e-19
1.74564e-19
4.93689e-06
2.34394e-19
1.78569e-19
5.09238e-06
2.3936e-19
1.83738e-19
5.24704e-06
2.43853e-19
1.88668e-19
5.40118e-06
2.49344e-19
1.92136e-19
5.5551e-06
2.53699e-19
1.95896e-19
5.70904e-06
2.57772e-19
1.99979e-19
5.86322e-06
2.63251e-19
2.03939e-19
6.01785e-06
2.68778e-19
2.07832e-19
6.17311e-06
2.73956e-19
2.12104e-19
6.32915e-06
2.77956e-19
2.15849e-19
6.48613e-06
2.82767e-19
2.1968e-19
6.64419e-06
2.87386e-19
2.24048e-19
6.80344e-06
2.92442e-19
2.27234e-19
6.96401e-06
2.97429e-19
2.3057e-19
7.12601e-06
3.01917e-19
2.33736e-19
7.28953e-06
3.04855e-19
2.38976e-19
7.45469e-06
3.09703e-19
2.4332e-19
7.62156e-06
3.13909e-19
2.47084e-19
7.79024e-06
3.21381e-19
2.5105e-19
7.96081e-06
3.26259e-19
2.54535e-19
8.13335e-06
3.27275e-19
2.58891e-19
8.30794e-06
3.3106e-19
2.61055e-19
8.48466e-06
3.34366e-19
2.63325e-19
8.66358e-06
3.39171e-19
2.68753e-19
8.84477e-06
3.43438e-19
2.71516e-19
9.0283e-06
3.4791e-19
2.76031e-19
9.21424e-06
3.53395e-19
2.79552e-19
9.40266e-06
3.56111e-19
2.84199e-19
9.59363e-06
3.61893e-19
2.88047e-19
9.78721e-06
3.6438e-19
2.91067e-19
9.98347e-06
3.67293e-19
2.93609e-19
1.01825e-05
3.70765e-19
2.97142e-19
1.03843e-05
3.74434e-19
3.01142e-19
1.05889e-05
3.78679e-19
3.05507e-19
1.07966e-05
3.81404e-19
3.09558e-19
1.10072e-05
3.85425e-19
3.13958e-19
1.12208e-05
3.87831e-19
3.19369e-19
1.14376e-05
3.92107e-19
3.23982e-19
1.16576e-05
3.95511e-19
3.28584e-19
1.18809e-05
4.00642e-19
3.30139e-19
1.21074e-05
4.04717e-19
3.36987e-19
1.23374e-05
4.08501e-19
3.41687e-19
1.25708e-05
4.1004e-19
3.45655e-19
1.28077e-05
4.13639e-19
3.49771e-19
1.30482e-05
4.15933e-19
3.53841e-19
1.32924e-05
4.21232e-19
3.58735e-19
1.35402e-05
4.24176e-19
3.62794e-19
1.37919e-05
4.27817e-19
3.66553e-19
1.40474e-05
4.31335e-19
3.70953e-19
1.43068e-05
4.35104e-19
3.75097e-19
1.45703e-05
4.39476e-19
3.78872e-19
1.48377e-05
4.4621e-19
3.84804e-19
1.51093e-05
4.50719e-19
3.8896e-19
1.53852e-05
4.53244e-19
3.94253e-19
1.56653e-05
4.58327e-19
3.99032e-19
1.59497e-05
4.60267e-19
4.0376e-19
1.62386e-05
4.64465e-19
4.06849e-19
1.6532e-05
4.68979e-19
4.13255e-19
1.68299e-05
4.71916e-19
4.19146e-19
1.71325e-05
4.75751e-19
4.24918e-19
1.74399e-05
4.7688e-19
4.34309e-19
1.7752e-05
4.83606e-19
4.36001e-19
1.80691e-05
4.87579e-19
4.40276e-19
1.83911e-05
4.90031e-19
4.44204e-19
1.87182e-05
4.94928e-19
4.50351e-19
1.90504e-05
4.92641e-19
4.58493e-19
1.93879e-05
4.98219e-19
4.6314e-19
1.97307e-05
4.9665e-19
4.71725e-19
2.00788e-05
5.00458e-19
4.78587e-19
2.04325e-05
5.04826e-19
4.82571e-19
2.07917e-05
5.11438e-19
4.9179e-19
2.11566e-05
5.169e-19
4.94689e-19
2.15273e-05
5.19748e-19
4.97682e-19
2.19038e-05
5.23519e-19
5.04708e-19
2.22862e-05
5.28979e-19
5.11624e-19
2.26747e-05
5.29518e-19
5.1968e-19
2.30694e-05
5.32675e-19
5.26938e-19
2.34703e-05
5.36293e-19
5.33422e-19
2.38775e-05
5.45476e-19
5.42799e-19
2.42912e-05
5.45894e-19
5.48224e-19
2.47114e-05
5.49386e-19
5.57063e-19
2.51382e-05
5.58143e-19
5.67352e-19
2.55719e-05
5.59861e-19
5.75843e-19
2.60123e-05
5.64862e-19
5.8561e-19
2.64598e-05
5.68353e-19
5.91395e-19
2.69143e-05
5.73255e-19
6.00314e-19
2.73761e-05
5.77337e-19
6.04333e-19
2.78451e-05
5.78618e-19
6.08707e-19
2.83216e-05
5.83834e-19
6.13437e-19
2.88056e-05
5.85774e-19
6.19762e-19
2.92973e-05
5.8974e-19
6.25557e-19
2.97968e-05
5.90389e-19
6.33402e-19
3.03041e-05
5.91741e-19
6.39982e-19
3.08195e-05
6.06617e-19
6.50106e-19
3.13431e-05
6.0793e-19
6.59676e-19
3.1875e-05
6.06236e-19
6.61369e-19
3.24152e-05
6.12628e-19
6.63033e-19
3.29641e-05
6.13339e-19
6.67911e-19
3.35216e-05
6.12813e-19
6.73688e-19
3.40879e-05
6.12134e-19
6.76822e-19
3.46632e-05
6.10828e-19
6.8654e-19
3.52476e-05
6.12525e-19
6.95644e-19
3.58412e-05
6.1775e-19
7.03506e-19
3.64442e-05
6.31214e-19
7.0964e-19
3.70568e-05
6.41686e-19
7.07832e-19
3.7679e-05
6.49469e-19
7.08972e-19
3.83111e-05
6.46007e-19
7.22428e-19
3.89532e-05
6.48891e-19
7.2746e-19
3.96054e-05
6.54283e-19
7.37117e-19
4.02679e-05
6.50477e-19
7.53516e-19
4.09409e-05
6.51147e-19
7.60732e-19
4.16245e-05
6.44405e-19
7.66867e-19
4.23189e-05
6.43922e-19
7.73481e-19
4.30242e-05
6.43875e-19
7.75862e-19
4.37407e-05
6.5081e-19
7.79395e-19
4.44685e-05
6.58109e-19
7.85958e-19
4.52078e-05
6.62696e-19
7.99962e-19
4.59587e-05
6.61676e-19
8.03324e-19
4.67215e-05
6.68923e-19
8.09825e-19
4.74963e-05
6.66003e-19
8.17266e-19
4.82833e-05
6.66676e-19
8.23873e-19
4.90827e-05
6.68077e-19
8.31445e-19
4.98947e-05
6.70313e-19
8.35354e-19
5.07195e-05
6.69533e-19
8.39302e-19
5.15573e-05
6.71333e-19
8.486e-19
5.24082e-05
6.7187e-19
8.52818e-19
5.32726e-05
6.73584e-19
8.53814e-19
5.41505e-05
6.73044e-19
8.53418e-19
5.50423e-05
6.67954e-19
8.52265e-19
5.59481e-05
6.67175e-19
8.54516e-19
5.68681e-05
6.71931e-19
8.53682e-19
5.78026e-05
6.65725e-19
8.57981e-19
5.87518e-05
6.6605e-19
8.58017e-19
5.97158e-05
6.60773e-19
8.56393e-19
6.06951e-05
6.78007e-19
8.59042e-19
6.16897e-05
6.79126e-19
8.64158e-19
6.26999e-05
6.84184e-19
8.78391e-19
6.37259e-05
6.79004e-19
8.83538e-19
6.47681e-05
6.80721e-19
8.80904e-19
6.58266e-05
6.77687e-19
8.80538e-19
6.69017e-05
6.79905e-19
8.79617e-19
6.79937e-05
6.74544e-19
8.83953e-19
6.91028e-05
6.80943e-19
8.85879e-19
7.02292e-05
6.76194e-19
8.88645e-19
7.13733e-05
6.70756e-19
8.82193e-19
7.25354e-05
6.77528e-19
8.86154e-19
7.37156e-05
6.72707e-19
8.76717e-19
7.49143e-05
6.57125e-19
8.79842e-19
7.61317e-05
6.37784e-19
8.77839e-19
7.73682e-05
6.16137e-19
8.75232e-19
7.8624e-05
6.18303e-19
8.7065e-19
7.98995e-05
6.29158e-19
8.65681e-19
8.11949e-05
6.31566e-19
8.70108e-19
8.25106e-05
6.21024e-19
8.87226e-19
8.38468e-05
6.20411e-19
8.90693e-19
8.52039e-05
6.16591e-19
8.98871e-19
8.65822e-05
6.17591e-19
8.95886e-19
8.7982e-05
6.14852e-19
8.946e-19
8.94036e-05
6.29329e-19
8.93562e-19
9.08475e-05
6.2763e-19
8.90951e-19
9.23138e-05
6.14123e-19
8.80579e-19
9.38031e-05
6.07922e-19
8.74293e-19
9.53155e-05
5.85411e-19
8.75618e-19
9.68516e-05
5.86138e-19
8.49422e-19
9.84115e-05
5.59367e-19
8.49026e-19
9.99958e-05
5.58217e-19
8.58467e-19
0.000101605
5.40054e-19
8.64422e-19
0.000103239
5.32334e-19
8.60213e-19
0.000104898
5.35173e-19
8.48483e-19
0.000106584
5.32024e-19
8.34252e-19
0.000108295
5.44884e-19
8.1887e-19
0.000110033
5.40775e-19
8.11619e-19
0.000111798
5.43753e-19
7.96986e-19
0.000113591
5.62516e-19
7.90973e-19
0.000115411
5.79458e-19
7.89689e-19
0.00011726
5.74155e-19
7.72916e-19
0.000119138
5.67638e-19
7.66781e-19
0.000121044
5.77815e-19
7.68784e-19
0.000122981
5.96861e-19
7.57898e-19
0.000124947
6.24249e-19
7.66383e-19
0.000126944
6.38377e-19
7.62565e-19
0.000128972
6.31011e-19
7.5933e-19
0.000131031
6.23652e-19
7.60159e-19
0.000133122
6.11379e-19
7.56764e-19
0.000135246
6.14479e-19
7.49935e-19
0.000137403
5.95847e-19
7.70929e-19
0.000139593
6.0674e-19
7.59474e-19
0.000141817
5.98146e-19
7.32148e-19
0.000144075
5.86427e-19
7.42487e-19
0.000146368
5.67711e-19
7.2689e-19
0.000148697
5.38813e-19
7.14394e-19
0.000151062
5.52973e-19
6.85083e-19
0.000153464
5.81211e-19
6.55494e-19
0.000155902
5.55645e-19
6.53063e-19
0.000158379
5.45431e-19
6.4582e-19
0.000160893
5.30988e-19
6.34734e-19
0.000163447
5.23401e-19
6.42203e-19
0.00016604
5.15402e-19
6.15379e-19
0.000168673
5.26364e-19
6.0721e-19
0.000171347
5.18745e-19
6.2066e-19
0.000174062
5.19567e-19
6.36947e-19
0.000176819
5.18475e-19
6.23971e-19
0.000179618
5.44969e-19
6.23502e-19
0.000182461
5.69689e-19
6.2724e-19
0.000185347
5.39598e-19
6.17286e-19
0.000188278
5.33767e-19
5.93307e-19
0.000191255
5.33527e-19
5.63609e-19
0.000194277
5.25074e-19
5.3414e-19
0.000197345
5.00034e-19
5.3096e-19
0.000200461
4.99098e-19
5.194e-19
0.000203625
4.84285e-19
5.20076e-19
0.000206838
4.84216e-19
5.33415e-19
0.000210099
4.70869e-19
5.45516e-19
0.000213412
4.65368e-19
5.33709e-19
0.000216775
4.77218e-19
5.21922e-19
0.000220189
4.61876e-19
5.05121e-19
0.000223656
4.64839e-19
4.93853e-19
0.000227177
4.26529e-19
4.9096e-19
0.000230751
3.77708e-19
4.73717e-19
0.000234381
3.34256e-19
4.84093e-19
0.000238066
3.33716e-19
4.66578e-19
0.000241807
3.922e-19
4.52352e-19
0.000245606
3.76347e-19
4.1019e-19
0.000249463
4.54634e-19
3.72738e-19
0.000253379
4.22263e-19
3.72426e-19
0.000257356
3.26825e-19
4.04997e-19
0.000261393
2.74856e-19
4.07826e-19
0.000265491
3.08559e-19
3.72199e-19
0.000269653
2.98195e-19
3.22897e-19
0.000273878
3.18008e-19
2.92828e-19
0.000278167
3.01157e-19
2.85809e-19
0.000282522
2.84344e-19
2.88712e-19
0.000286944
3.40473e-19
2.71788e-19
0.000291433
3.08217e-19
2.55652e-19
0.00029599
2.84299e-19
2.45003e-19
0.000300617
2.53848e-19
2.68579e-19
0.000305314
2.56121e-19