/*--------------------------------*- C++ -*----------------------------------*\
| =========                 |                                                 |
| \\      /  F ield         | OpenFOAM: The Open Source CFD Toolbox           |
|  \\    /   O peration     | Version:  2012                                  |
|   \\  /    A nd           | Website:  www.openfoam.com                      |
|    \\/     M anipulation  |                                                 |
\*---------------------------------------------------------------------------*/
FoamFile
{
    version     2.0;
    format      ascii;
    class       volScalarField;
    location    "11800";
    object      nut;
}
// * * * * * * * * * * * * * * * * * * * * * * * * * * * * * * * * * * * * * //

dimensions      [0 2 -1 0 0 0 0];


internalField   nonuniform List<scalar> 
2560
(
8.15531e-09
8.14888e-09
1.34267e-06
1.34168e-06
2.7333e-05
2.73143e-05
0.000163769
0.000163682
0.000459822
0.000459643
0.000879357
0.000879086
0.00138481
0.00138445
0.00195467
0.00195422
0.00257662
0.00257608
0.00324292
0.0032423
0.00394835
0.00394763
0.00468908
0.00468827
0.00546222
0.00546131
0.00626546
0.00626445
0.0070969
0.0070958
0.00795497
0.00795377
0.00883829
0.00883698
0.00974566
0.00974424
0.010676
0.0106745
0.0116284
0.0116267
0.0126018
0.0126001
0.0135955
0.0135937
0.0146087
0.0146068
0.0156406
0.0156385
0.0166905
0.0166883
0.0177578
0.0177554
0.0188416
0.0188391
0.0199414
0.0199388
0.0210566
0.0210539
0.0221865
0.0221836
0.0233305
0.0233275
0.0244881
0.0244849
0.0256585
0.0256552
0.0268411
0.0268377
0.0280353
0.0280317
0.0292403
0.0292366
0.0304555
0.0304517
0.0316801
0.0316761
0.0329134
0.0329092
0.0341545
0.0341502
0.0354029
0.0353985
0.0366577
0.0366531
0.0379183
0.0379135
0.0391838
0.0391789
0.0404532
0.0404481
0.0417255
0.0417203
0.0429994
0.042994
0.0442733
0.0442678
0.0455455
0.0455398
0.0468141
0.0468082
0.048077
0.048071
0.0493322
0.0493261
0.0505778
0.0505715
0.0518122
0.0518056
0.0530347
0.053028
0.0542464
0.0542395
0.0554509
0.0554438
0.0566541
0.0566467
0.057863
0.0578554
0.0590824
0.0590746
0.0603105
0.0603025
0.0615302
0.061522
0.0627133
0.0627049
0.0638227
0.0638142
0.0648203
0.0648118
0.0656758
0.0656674
0.066373
0.0663649
0.0669122
0.0669043
0.0673079
0.0673004
0.0675847
0.0675776
0.0677718
0.0677651
0.0678986
0.0678923
0.0679916
0.0679856
0.0680722
0.0680664
0.0681563
0.0681507
0.0682543
0.0682489
0.068372
0.0683666
0.0685102
0.068505
0.0686663
0.0686612
0.0688356
0.0688307
0.0690122
0.0690076
0.0691896
0.0691853
0.0693614
0.0693575
0.0695217
0.0695182
0.0696653
0.0696621
0.0697874
0.0697846
0.0698843
0.0698819
0.0699531
0.0699509
0.0699914
0.0699895
0.0699981
0.0699964
0.0699733
0.0699718
0.0699184
0.069917
0.0698359
0.0698346
0.0697301
0.0697289
0.0696059
0.0696048
0.0694694
0.0694683
0.0693263
0.0693253
0.0691822
0.0691812
0.0690415
0.0690406
0.0689076
0.0689067
0.0687827
0.0687818
0.0686676
0.0686667
0.0685622
0.0685614
0.0684665
0.0684657
0.0683803
0.0683795
0.068304
0.0683032
0.0682384
0.0682377
0.0681851
0.0681844
0.0681457
0.068145
0.0681222
0.0681215
0.0681159
0.0681153
0.0681277
0.068127
0.068157
0.0681563
0.0682021
0.0682015
0.0682599
0.0682593
0.0683262
0.0683257
0.0683963
0.0683958
0.0684656
0.0684651
0.0685304
0.06853
0.068589
0.0685886
0.0686417
0.0686413
0.0686916
0.0686912
0.0687437
0.0687434
0.0688047
0.0688043
0.0688813
0.0688809
0.0689796
0.0689793
0.0691045
0.0691041
0.0692577
0.0692573
0.0694389
0.0694386
0.0696464
0.069646
0.0698771
0.0698767
0.0701281
0.0701278
0.0703972
0.0703969
0.0706831
0.0706827
0.0709857
0.0709853
0.0713059
0.0713056
0.0716456
0.0716452
0.0720067
0.0720063
0.0723913
0.0723909
0.0728015
0.072801
0.0732386
0.0732382
0.0737039
0.0737034
0.0741978
0.0741973
0.0747205
0.07472
0.0752717
0.0752711
0.0758506
0.07585
0.0764568
0.0764561
0.0770896
0.0770889
0.0777489
0.0777482
0.0784352
0.0784344
0.0791496
0.0791488
0.079894
0.0798931
0.0806708
0.0806698
0.0814831
0.0814821
0.0823344
0.0823333
0.0832281
0.0832269
0.0841678
0.0841665
0.0851566
0.0851552
0.0861972
0.0861957
0.0872918
0.0872902
0.0884418
0.08844
0.0896476
0.0896457
0.0909089
0.0909068
0.092224
0.0922217
0.0935901
0.0935876
0.0950024
0.0949997
0.0964547
0.0964518
0.0979384
0.0979354
0.0994432
0.0994399
0.100956
0.100953
0.102464
0.10246
0.103952
0.103948
0.105404
0.105401
0.10681
0.106806
0.108159
0.108156
0.109447
0.109445
0.110677
0.110676
0.111857
0.111857
0.113002
0.113002
0.114134
0.114134
0.115276
0.115276
0.116454
0.116455
0.117693
0.117693
0.119008
0.119008
0.120409
0.120408
0.121895
0.121894
0.123453
0.123452
0.125062
0.125061
0.126697
0.126696
0.128328
0.128328
0.129929
0.129929
0.131475
0.131476
0.132949
0.132952
0.134341
0.134344
0.135645
0.135648
0.136864
0.136867
0.138006
0.138009
0.139085
0.139087
0.140116
0.140118
0.141118
0.14112
0.142109
0.142111
0.143109
0.143111
0.144136
0.144138
0.145207
0.145208
0.146337
0.146338
0.14754
0.147541
0.148827
0.148828
0.150209
0.150209
0.151693
0.151693
0.153286
0.153286
0.15499
0.15499
0.156807
0.156806
0.158732
0.158731
0.160758
0.160757
0.162871
0.16287
0.165052
0.165051
0.167273
0.167271
0.1695
0.169499
0.171697
0.171695
0.173821
0.173819
0.175832
0.175829
0.177693
0.17769
0.179376
0.179373
0.180865
0.180862
0.182161
0.182157
0.183282
0.183279
0.184267
0.184265
0.185164
0.185164
0.186028
0.186028
0.186915
0.186915
0.187873
0.187873
0.188938
0.188938
0.190122
0.190122
0.19142
0.191419
0.19281
0.192809
0.194263
0.194263
0.195753
0.195753
0.197261
0.197262
0.198785
0.198786
0.200331
0.200332
0.201919
0.20192
0.203579
0.20358
0.205344
0.205345
0.207244
0.207244
0.209302
0.209302
0.211536
0.211536
0.21396
0.21396
0.21658
0.21658
0.219404
0.219404
0.222439
0.222439
0.225692
0.225692
0.229171
0.229171
0.232885
0.232885
0.236841
0.236841
0.241042
0.241041
0.24549
0.24549
0.250185
0.250185
0.255125
0.255125
0.260307
0.260307
0.265728
0.265727
0.271385
0.271385
0.27728
0.27728
0.283414
0.283414
0.289791
0.289791
0.296419
0.296418
0.303303
0.303303
0.310453
0.310453
0.317874
0.317874
0.325572
0.325572
0.333548
0.333548
0.341803
0.341803
0.350334
0.350333
0.359135
0.359134
0.3682
0.3682
0.377525
0.377525
0.387101
0.387101
0.396923
0.396923
0.406983
0.406983
0.417275
0.417275
0.42779
0.42779
0.43852
0.43852
0.449457
0.449457
0.46059
0.46059
0.47191
0.471909
0.483404
0.483404
0.495063
0.495063
0.506877
0.506877
0.518836
0.518836
0.530933
0.530933
0.543162
0.543162
0.555516
0.555516
0.56799
0.567989
0.580576
0.580576
0.593266
0.593266
0.606048
0.606048
0.618909
0.618909
0.631834
0.631834
0.644808
0.644808
0.657816
0.657816
0.670844
0.670844
0.683883
0.683883
0.696923
0.696923
0.709958
0.709958
0.722983
0.722983
0.735994
0.735994
0.748987
0.748987
0.761957
0.761957
0.774899
0.774899
0.787808
0.787808
0.800674
0.800674
0.813491
0.813491
0.826244
0.826244
0.838918
0.838918
0.851483
0.851483
0.863879
0.863879
0.875986
0.875986
0.887526
0.887526
0.897872
0.897872
0.905611
0.905611
0.905375
0.905375
8.14887e-09
8.15531e-09
1.34168e-06
1.34267e-06
2.73143e-05
2.73331e-05
0.000163682
0.000163769
0.000459643
0.000459823
0.000879086
0.000879357
0.00138445
0.00138481
0.00195422
0.00195467
0.00257608
0.00257662
0.0032423
0.00324292
0.00394763
0.00394835
0.00468827
0.00468908
0.00546131
0.00546222
0.00626445
0.00626546
0.0070958
0.00709691
0.00795377
0.00795497
0.00883698
0.00883829
0.00974424
0.00974566
0.0106745
0.010676
0.0116267
0.0116284
0.0126001
0.0126018
0.0135937
0.0135955
0.0146068
0.0146087
0.0156385
0.0156406
0.0166883
0.0166905
0.0177554
0.0177578
0.0188391
0.0188416
0.0199388
0.0199414
0.0210539
0.0210566
0.0221836
0.0221865
0.0233275
0.0233305
0.0244849
0.0244881
0.0256552
0.0256585
0.0268377
0.0268411
0.0280317
0.0280353
0.0292366
0.0292403
0.0304517
0.0304555
0.0316761
0.0316801
0.0329092
0.0329134
0.0341502
0.0341546
0.0353985
0.0354029
0.0366531
0.0366578
0.0379135
0.0379183
0.0391789
0.0391838
0.0404481
0.0404532
0.0417203
0.0417255
0.042994
0.0429994
0.0442678
0.0442733
0.0455398
0.0455455
0.0468082
0.0468141
0.048071
0.048077
0.049326
0.0493322
0.0505714
0.0505778
0.0518056
0.0518122
0.0530279
0.0530347
0.0542395
0.0542464
0.0554437
0.0554509
0.0566467
0.0566541
0.0578554
0.057863
0.0590745
0.0590824
0.0603025
0.0603105
0.0615219
0.0615302
0.0627049
0.0627133
0.0638142
0.0638227
0.0648118
0.0648203
0.0656674
0.0656758
0.0663648
0.066373
0.0669043
0.0669122
0.0673004
0.0673079
0.0675776
0.0675847
0.0677651
0.0677718
0.0678923
0.0678986
0.0679856
0.0679916
0.0680664
0.0680722
0.0681507
0.0681563
0.0682488
0.0682543
0.0683666
0.068372
0.068505
0.0685102
0.0686612
0.0686663
0.0688307
0.0688356
0.0690076
0.0690122
0.0691853
0.0691896
0.0693575
0.0693614
0.0695182
0.0695217
0.0696621
0.0696653
0.0697846
0.0697874
0.0698819
0.0698843
0.0699509
0.069953
0.0699894
0.0699914
0.0699964
0.0699981
0.0699718
0.0699733
0.0699169
0.0699183
0.0698346
0.0698359
0.0697289
0.06973
0.0696048
0.0696059
0.0694683
0.0694694
0.0693253
0.0693263
0.0691812
0.0691821
0.0690405
0.0690415
0.0689067
0.0689076
0.0687818
0.0687827
0.0686667
0.0686675
0.0685613
0.0685622
0.0684656
0.0684664
0.0683795
0.0683803
0.0683032
0.0683039
0.0682377
0.0682384
0.0681843
0.068185
0.068145
0.0681457
0.0681215
0.0681222
0.0681153
0.0681159
0.068127
0.0681276
0.0681563
0.0681569
0.0682014
0.068202
0.0682593
0.0682598
0.0683256
0.0683262
0.0683958
0.0683963
0.0684651
0.0684655
0.0685299
0.0685304
0.0685885
0.0685889
0.0686413
0.0686417
0.0686912
0.0686916
0.0687433
0.0687437
0.0688043
0.0688046
0.0688809
0.0688812
0.0689792
0.0689795
0.0691041
0.0691044
0.0692573
0.0692576
0.0694385
0.0694389
0.0696459
0.0696463
0.0698766
0.069877
0.0701277
0.070128
0.0703968
0.0703971
0.0706826
0.070683
0.0709852
0.0709856
0.0713054
0.0713058
0.0716451
0.0716455
0.0720061
0.0720066
0.0723908
0.0723912
0.0728009
0.0728013
0.073238
0.0732385
0.0737033
0.0737038
0.0741972
0.0741977
0.0747198
0.0747204
0.0752709
0.0752715
0.0758498
0.0758505
0.0764559
0.0764566
0.0770887
0.0770894
0.077748
0.0777487
0.0784342
0.078435
0.0791486
0.0791494
0.0798929
0.0798938
0.0806696
0.0806706
0.0814819
0.0814829
0.082333
0.0823342
0.0832267
0.0832279
0.0841662
0.0841676
0.0851549
0.0851564
0.0861954
0.086197
0.0872899
0.0872916
0.0884397
0.0884415
0.0896453
0.0896474
0.0909065
0.0909086
0.0922214
0.0922238
0.0935872
0.0935898
0.0949994
0.0950021
0.0964514
0.0964544
0.097935
0.0979382
0.0994395
0.0994429
0.100953
0.100956
0.10246
0.102464
0.103947
0.103951
0.1054
0.105404
0.106806
0.10681
0.108156
0.108159
0.109445
0.109447
0.110675
0.110677
0.111856
0.111857
0.113002
0.113002
0.114134
0.114133
0.115276
0.115275
0.116454
0.116454
0.117692
0.117692
0.119007
0.119007
0.120408
0.120408
0.121893
0.121894
0.123451
0.123452
0.12506
0.125061
0.126695
0.126696
0.128327
0.128328
0.129928
0.129928
0.131475
0.131474
0.132951
0.132949
0.134344
0.13434
0.135648
0.135644
0.136867
0.136863
0.138009
0.138006
0.139087
0.139084
0.140118
0.140115
0.141119
0.141117
0.142111
0.142109
0.14311
0.143109
0.144137
0.144136
0.145208
0.145207
0.146338
0.146337
0.14754
0.147539
0.148827
0.148827
0.150208
0.150208
0.151692
0.151692
0.153284
0.153285
0.154988
0.154989
0.156805
0.156805
0.15873
0.158731
0.160756
0.160757
0.162869
0.16287
0.165049
0.16505
0.167269
0.167271
0.169497
0.169499
0.171693
0.171695
0.173817
0.17382
0.175828
0.175831
0.177689
0.177692
0.179372
0.179376
0.180861
0.180865
0.182157
0.182161
0.183279
0.183282
0.184266
0.184267
0.185164
0.185165
0.186028
0.186029
0.186915
0.186915
0.187873
0.187873
0.188938
0.188938
0.190121
0.190122
0.191419
0.19142
0.192808
0.192809
0.194262
0.194263
0.195752
0.195752
0.197261
0.197261
0.198785
0.198784
0.200332
0.20033
0.20192
0.201919
0.20358
0.203579
0.205345
0.205344
0.207244
0.207244
0.209302
0.209302
0.211537
0.211536
0.21396
0.21396
0.21658
0.21658
0.219404
0.219404
0.222439
0.222439
0.225692
0.225692
0.229171
0.229171
0.232885
0.232885
0.23684
0.23684
0.241041
0.241041
0.245489
0.245489
0.250184
0.250185
0.255124
0.255125
0.260306
0.260307
0.265727
0.265727
0.271385
0.271385
0.277279
0.27728
0.283413
0.283414
0.289791
0.289791
0.296418
0.296419
0.303303
0.303304
0.310453
0.310453
0.317874
0.317874
0.325572
0.325572
0.333548
0.333549
0.341803
0.341803
0.350333
0.350334
0.359134
0.359135
0.3682
0.3682
0.377524
0.377525
0.387101
0.387101
0.396922
0.396923
0.406983
0.406983
0.417274
0.417275
0.427789
0.42779
0.43852
0.43852
0.449456
0.449457
0.46059
0.46059
0.471909
0.471909
0.483404
0.483404
0.495063
0.495063
0.506877
0.506877
0.518836
0.518836
0.530933
0.530933
0.543161
0.543162
0.555515
0.555516
0.567989
0.567989
0.580575
0.580576
0.593265
0.593265
0.606047
0.606048
0.618908
0.618909
0.631833
0.631834
0.644807
0.644807
0.657815
0.657815
0.670844
0.670844
0.683882
0.683883
0.696923
0.696923
0.709958
0.709958
0.722982
0.722983
0.735993
0.735993
0.748986
0.748986
0.761956
0.761956
0.774898
0.774898
0.787806
0.787806
0.800672
0.800672
0.813487
0.813487
0.82624
0.82624
0.838912
0.838912
0.851474
0.851475
0.863869
0.863869
0.875972
0.875972
0.88751
0.88751
0.897854
0.897854
0.905592
0.905592
0.905359
0.905359
0.905376
0.905376
0.905613
0.905613
0.897878
0.897878
0.887531
0.887531
0.875992
0.875992
0.863887
0.863887
0.851491
0.851491
0.838927
0.838927
0.826254
0.826254
0.813501
0.813501
0.800685
0.800685
0.787818
0.787818
0.77491
0.77491
0.761968
0.761968
0.748998
0.748998
0.736006
0.736006
0.722996
0.722996
0.709972
0.709972
0.696938
0.696938
0.683898
0.683898
0.67086
0.67086
0.657832
0.657832
0.644825
0.644825
0.631852
0.631852
0.618927
0.618927
0.606067
0.606067
0.593285
0.593285
0.580595
0.580595
0.568009
0.568009
0.555536
0.555536
0.543183
0.543183
0.530955
0.530955
0.518858
0.518858
0.506899
0.506899
0.495085
0.495085
0.483425
0.483425
0.47193
0.47193
0.46061
0.46061
0.449477
0.449477
0.43854
0.43854
0.427809
0.427809
0.417294
0.417294
0.407002
0.407002
0.396941
0.396941
0.387119
0.387119
0.377542
0.377542
0.368217
0.368217
0.359151
0.35915
0.350349
0.350349
0.341818
0.341818
0.333562
0.333562
0.325585
0.325585
0.317887
0.317886
0.310465
0.310464
0.303314
0.303314
0.296429
0.296428
0.2898
0.2898
0.283422
0.283422
0.277287
0.277287
0.271392
0.271392
0.265733
0.265733
0.260311
0.260311
0.255128
0.255128
0.250188
0.250187
0.245492
0.245491
0.241043
0.241043
0.236841
0.236841
0.232885
0.232885
0.22917
0.22917
0.22569
0.22569
0.222437
0.222437
0.219402
0.219402
0.216577
0.216577
0.213956
0.213956
0.211532
0.211532
0.209297
0.209297
0.207238
0.207239
0.205339
0.205339
0.203574
0.203575
0.201913
0.201915
0.200326
0.200327
0.198781
0.198782
0.197258
0.197258
0.19575
0.19575
0.194262
0.194261
0.192809
0.192808
0.191419
0.191419
0.190122
0.190122
0.188938
0.188938
0.187874
0.187873
0.186916
0.186916
0.18603
0.18603
0.185167
0.185166
0.184271
0.184269
0.183287
0.183284
0.182166
0.182163
0.180871
0.180867
0.179382
0.179378
0.177699
0.177696
0.175838
0.175835
0.173827
0.173824
0.171702
0.1717
0.169506
0.169504
0.167278
0.167276
0.165057
0.165056
0.162877
0.162875
0.160763
0.160762
0.158737
0.158736
0.156811
0.156811
0.154994
0.154994
0.15329
0.15329
0.151697
0.151697
0.150213
0.150213
0.148831
0.148831
0.147543
0.147544
0.14634
0.146341
0.14521
0.145211
0.144139
0.14414
0.143112
0.143113
0.142111
0.142113
0.14112
0.141122
0.140118
0.14012
0.139087
0.139089
0.138008
0.138011
0.136865
0.136869
0.135646
0.13565
0.134342
0.134346
0.132951
0.132953
0.131476
0.131477
0.129929
0.12993
0.128329
0.128328
0.126697
0.126696
0.125062
0.125061
0.123452
0.123451
0.121894
0.121894
0.120408
0.120408
0.119008
0.119007
0.117692
0.117692
0.116454
0.116454
0.115275
0.115276
0.114133
0.114133
0.113002
0.113002
0.111857
0.111856
0.110677
0.110675
0.109447
0.109445
0.108159
0.108156
0.10681
0.106806
0.105404
0.1054
0.103951
0.103947
0.102464
0.10246
0.100956
0.100952
0.0994425
0.099439
0.0979377
0.0979344
0.0964538
0.0964507
0.0950014
0.0949986
0.0935889
0.0935863
0.0922228
0.0922203
0.0909075
0.0909052
0.089646
0.089644
0.08844
0.0884381
0.0872899
0.0872882
0.0861951
0.0861935
0.0851543
0.0851528
0.0841653
0.0841639
0.0832254
0.0832242
0.0823315
0.0823303
0.08148
0.0814789
0.0806675
0.0806665
0.0798904
0.0798895
0.0791458
0.0791449
0.0784311
0.0784303
0.0777445
0.0777437
0.0770849
0.0770841
0.0764518
0.0764511
0.0758453
0.0758447
0.0752661
0.0752655
0.0747147
0.0747142
0.0741918
0.0741913
0.0736977
0.0736972
0.0732322
0.0732317
0.0727948
0.0727944
0.0723845
0.0723841
0.0719997
0.0719993
0.0716384
0.071638
0.0712986
0.0712982
0.070978
0.0709777
0.0706752
0.0706748
0.070389
0.0703886
0.0701196
0.0701193
0.0698683
0.0698679
0.0696373
0.069637
0.0694297
0.0694294
0.0692483
0.069248
0.0690949
0.0690946
0.0689699
0.0689695
0.0688713
0.068871
0.0687946
0.0687943
0.0687335
0.0687332
0.0686813
0.0686809
0.0686313
0.0686309
0.0685784
0.068578
0.0685198
0.0685193
0.0684549
0.0684544
0.0683855
0.068385
0.0683154
0.0683148
0.068249
0.0682484
0.0681911
0.0681905
0.0681459
0.0681453
0.0681165
0.0681158
0.0681046
0.068104
0.0681108
0.0681101
0.0681342
0.0681335
0.0681735
0.0681728
0.0682267
0.068226
0.0682922
0.0682914
0.0683684
0.0683676
0.0684545
0.0684537
0.0685502
0.0685493
0.0686555
0.0686546
0.0687706
0.0687697
0.0688954
0.0688945
0.0690292
0.0690283
0.0691698
0.0691688
0.0693139
0.0693129
0.0694569
0.0694558
0.0695934
0.0695923
0.0697175
0.0697163
0.0698234
0.0698221
0.0699059
0.0699045
0.069961
0.0699594
0.0699859
0.0699842
0.0699792
0.0699772
0.0699408
0.0699386
0.069872
0.0698694
0.0697749
0.069772
0.0696526
0.0696494
0.0695089
0.0695053
0.0693484
0.0693444
0.0691764
0.069172
0.0689989
0.068994
0.0688221
0.068817
0.0686526
0.0686473
0.0684964
0.0684909
0.068358
0.0683524
0.0682403
0.0682345
0.0681422
0.0681362
0.0680579
0.0680518
0.0679773
0.0679709
0.0678843
0.0678776
0.0677574
0.0677504
0.0675703
0.0675628
0.0672937
0.0672858
0.0668983
0.06689
0.0663595
0.0663509
0.0656626
0.0656537
0.0648073
0.0647984
0.0638099
0.063801
0.0627006
0.0626917
0.0615177
0.061509
0.0602983
0.0602898
0.0590704
0.0590621
0.0578511
0.0578431
0.0566424
0.0566346
0.0554394
0.0554318
0.0542351
0.0542278
0.0530237
0.0530166
0.0518015
0.0517946
0.0505675
0.0505608
0.0493223
0.0493157
0.0480674
0.048061
0.0468047
0.0467986
0.0455365
0.0455305
0.0442646
0.0442588
0.042991
0.0429854
0.0417175
0.0417119
0.0404455
0.0404401
0.0391763
0.0391711
0.0379111
0.0379061
0.0366509
0.036646
0.0353963
0.0353916
0.0341482
0.0341437
0.0329073
0.032903
0.0316744
0.0316701
0.03045
0.0304459
0.0292351
0.0292311
0.0280303
0.0280265
0.0268363
0.0268327
0.0256539
0.0256504
0.0244837
0.0244804
0.0233264
0.0233232
0.0221826
0.0221796
0.0210529
0.02105
0.0199379
0.0199352
0.0188383
0.0188357
0.0177547
0.0177522
0.0166877
0.0166853
0.015638
0.0156357
0.0146062
0.0146041
0.0135932
0.0135912
0.0125997
0.0125978
0.0116264
0.0116246
0.0106742
0.0106726
0.00974398
0.00974249
0.00883676
0.00883538
0.00795358
0.00795232
0.00709565
0.00709449
0.00626434
0.00626329
0.00546123
0.00546028
0.00468821
0.00468736
0.0039476
0.00394684
0.00324229
0.00324163
0.00257609
0.00257553
0.00195425
0.00195378
0.00138448
0.0013841
0.000879121
0.000878836
0.000459674
0.000459486
0.0001637
0.000163609
2.73187e-05
2.7299e-05
1.34193e-06
1.34089e-06
8.15095e-09
8.1442e-09
0.90536
0.90536
0.905594
0.905594
0.89786
0.897859
0.887515
0.887515
0.875979
0.875979
0.863876
0.863877
0.851483
0.851483
0.838921
0.838922
0.82625
0.82625
0.813497
0.813497
0.800682
0.800682
0.787816
0.787816
0.774908
0.774909
0.761967
0.761967
0.748997
0.748998
0.736006
0.736006
0.722996
0.722996
0.709972
0.709972
0.696937
0.696938
0.683897
0.683898
0.670859
0.670859
0.657831
0.657831
0.644824
0.644824
0.631851
0.631851
0.618926
0.618927
0.606066
0.606066
0.593284
0.593284
0.580595
0.580595
0.568009
0.568009
0.555536
0.555536
0.543182
0.543183
0.530954
0.530955
0.518858
0.518858
0.506899
0.506899
0.495084
0.495085
0.483425
0.483425
0.47193
0.47193
0.46061
0.46061
0.449476
0.449477
0.438539
0.43854
0.427809
0.427809
0.417293
0.417294
0.407001
0.407002
0.396941
0.396941
0.387118
0.387119
0.377541
0.377542
0.368216
0.368217
0.35915
0.35915
0.350348
0.350349
0.341818
0.341818
0.333562
0.333563
0.325585
0.325585
0.317886
0.317887
0.310465
0.310465
0.303314
0.303315
0.296429
0.296429
0.2898
0.289801
0.283422
0.283422
0.277287
0.277287
0.271391
0.271391
0.265732
0.265732
0.26031
0.260311
0.255127
0.255128
0.250187
0.250187
0.245491
0.245491
0.241042
0.241042
0.23684
0.236841
0.232884
0.232885
0.22917
0.22917
0.22569
0.22569
0.222437
0.222437
0.219401
0.219402
0.216577
0.216577
0.213956
0.213956
0.211532
0.211532
0.209298
0.209297
0.207239
0.207239
0.20534
0.205339
0.203575
0.203574
0.201915
0.201913
0.200327
0.200326
0.198781
0.19878
0.197258
0.197257
0.195749
0.19575
0.19426
0.194261
0.192807
0.192808
0.191418
0.191419
0.190121
0.190122
0.188938
0.188939
0.187874
0.187874
0.186916
0.186916
0.18603
0.186031
0.185167
0.185167
0.184269
0.184271
0.183284
0.183287
0.182162
0.182166
0.180866
0.180871
0.179377
0.179381
0.177694
0.177698
0.175833
0.175836
0.173822
0.173825
0.171698
0.171701
0.169502
0.169504
0.167274
0.167276
0.165054
0.165056
0.162874
0.162875
0.16076
0.160762
0.158734
0.158735
0.156809
0.15681
0.154993
0.154993
0.153289
0.153289
0.151696
0.151696
0.150212
0.150212
0.148831
0.14883
0.147543
0.147543
0.146341
0.14634
0.145211
0.14521
0.14414
0.144139
0.143113
0.143111
0.142113
0.142111
0.141121
0.141119
0.14012
0.140117
0.139089
0.139086
0.138011
0.138007
0.136868
0.136865
0.135649
0.135646
0.134345
0.134342
0.132952
0.13295
0.131476
0.131475
0.129929
0.129929
0.128327
0.128328
0.126695
0.126696
0.12506
0.125061
0.123451
0.123452
0.121893
0.121894
0.120407
0.120408
0.119007
0.119007
0.117692
0.117692
0.116454
0.116454
0.115275
0.115275
0.114133
0.114133
0.113002
0.113002
0.111856
0.111856
0.110675
0.110676
0.109444
0.109447
0.108155
0.108159
0.106806
0.10681
0.1054
0.105404
0.103947
0.103951
0.102459
0.102463
0.100952
0.100956
0.0994387
0.0994422
0.0979341
0.0979374
0.0964504
0.0964535
0.0949982
0.0950011
0.093586
0.0935887
0.09222
0.0922225
0.0909049
0.0909072
0.0896437
0.0896458
0.0884378
0.0884398
0.0872879
0.0872897
0.0861933
0.0861949
0.0851526
0.0851541
0.0841637
0.0841651
0.0832239
0.0832252
0.0823301
0.0823313
0.0814787
0.0814798
0.0806663
0.0806673
0.0798893
0.0798902
0.0791447
0.0791456
0.0784301
0.0784309
0.0777435
0.0777443
0.077084
0.0770847
0.0764509
0.0764516
0.0758445
0.0758452
0.0752654
0.075266
0.074714
0.0747146
0.0741912
0.0741917
0.073697
0.0736976
0.0732316
0.0732321
0.0727942
0.0727947
0.072384
0.0723844
0.0719992
0.0719996
0.0716379
0.0716383
0.0712981
0.0712985
0.0709776
0.070978
0.0706747
0.0706751
0.0703885
0.0703889
0.0701192
0.0701196
0.0698679
0.0698682
0.0696369
0.0696373
0.0694293
0.0694297
0.0692479
0.0692483
0.0690945
0.0690949
0.0689695
0.0689698
0.068871
0.0688713
0.0687942
0.0687946
0.0687332
0.0687335
0.0686809
0.0686813
0.0686308
0.0686313
0.068578
0.0685784
0.0685193
0.0685198
0.0684543
0.0684548
0.068385
0.0683855
0.0683148
0.0683153
0.0682484
0.068249
0.0681905
0.0681911
0.0681452
0.0681459
0.0681158
0.0681165
0.068104
0.0681046
0.0681101
0.0681108
0.0681335
0.0681342
0.0681727
0.0681735
0.068226
0.0682267
0.0682914
0.0682922
0.0683676
0.0683684
0.0684537
0.0684545
0.0685493
0.0685502
0.0686546
0.0686555
0.0687697
0.0687706
0.0688945
0.0688954
0.0690283
0.0690292
0.0691688
0.0691698
0.0693128
0.0693139
0.0694558
0.0694569
0.0695923
0.0695934
0.0697163
0.0697175
0.069822
0.0698234
0.0699045
0.0699059
0.0699594
0.069961
0.0699841
0.0699859
0.0699772
0.0699792
0.0699385
0.0699408
0.0698694
0.069872
0.069772
0.0697749
0.0696493
0.0696527
0.0695053
0.069509
0.0693443
0.0693485
0.0691719
0.0691765
0.068994
0.0689989
0.068817
0.0688221
0.0686473
0.0686527
0.0684909
0.0684965
0.0683524
0.0683581
0.0682345
0.0682404
0.0681362
0.0681422
0.0680518
0.068058
0.0679709
0.0679773
0.0678776
0.0678844
0.0677504
0.0677575
0.0675628
0.0675704
0.0672858
0.0672938
0.06689
0.0668984
0.0663508
0.0663596
0.0656537
0.0656626
0.0647984
0.0648074
0.0638009
0.06381
0.0626917
0.0627007
0.0615089
0.0615177
0.0602898
0.0602983
0.0590621
0.0590704
0.0578431
0.0578512
0.0566346
0.0566424
0.0554318
0.0554394
0.0542278
0.0542352
0.0530166
0.0530237
0.0517946
0.0518015
0.0505608
0.0505675
0.0493157
0.0493223
0.048061
0.0480674
0.0467986
0.0468048
0.0455305
0.0455365
0.0442588
0.0442647
0.0429854
0.0429911
0.041712
0.0417175
0.0404401
0.0404455
0.0391711
0.0391764
0.0379061
0.0379112
0.036646
0.0366509
0.0353916
0.0353964
0.0341437
0.0341483
0.032903
0.0329074
0.0316701
0.0316744
0.030446
0.0304501
0.0292312
0.0292351
0.0280265
0.0280303
0.0268327
0.0268363
0.0256504
0.0256539
0.0244804
0.0244838
0.0233232
0.0233265
0.0221796
0.0221826
0.02105
0.0210529
0.0199352
0.019938
0.0188357
0.0188384
0.0177522
0.0177547
0.0166853
0.0166877
0.0156357
0.015638
0.0146041
0.0146063
0.0135913
0.0135932
0.0125978
0.0125997
0.0116247
0.0116264
0.0106726
0.0106742
0.00974249
0.00974399
0.00883539
0.00883677
0.00795232
0.0079536
0.0070945
0.00709567
0.00626329
0.00626435
0.00546028
0.00546124
0.00468736
0.00468822
0.00394685
0.00394761
0.00324163
0.0032423
0.00257553
0.0025761
0.00195378
0.00195425
0.0013841
0.00138449
0.000878837
0.000879124
0.000459486
0.000459676
0.00016361
0.000163701
2.7299e-05
2.73189e-05
1.34089e-06
1.34194e-06
8.1442e-09
8.15101e-09
)
;

boundaryField
{
    walls
    {
        type            nutUWallFunction;
        blending        stepwise;
        Cmu             0.09;
        kappa           0.41;
        E               9.8;
        value           uniform 0;
    }
    inlet
    {
        type            cyclic;
    }
    outlet
    {
        type            cyclic;
    }
    sides
    {
        type            empty;
    }
}


// ************************************************************************* //
