/*--------------------------------*- C++ -*----------------------------------*\
| =========                 |                                                 |
| \\      /  F ield         | OpenFOAM: The Open Source CFD Toolbox           |
|  \\    /   O peration     | Version:  2012                                  |
|   \\  /    A nd           | Website:  www.openfoam.com                      |
|    \\/     M anipulation  |                                                 |
\*---------------------------------------------------------------------------*/
FoamFile
{
    version     2.0;
    format      ascii;
    class       volScalarField;
    location    "11800";
    object      omega;
}
// * * * * * * * * * * * * * * * * * * * * * * * * * * * * * * * * * * * * * //

dimensions      [0 0 -1 0 0 0 0];


internalField   nonuniform List<scalar> 
2560
(
1.52417e+06
1.52417e+06
264138
264141
87539.5
87542.4
41239.8
41240.8
25156.3
25156.1
18043
18042.4
14191.2
14190.6
11795.9
11795.3
10162.2
10161.6
8974.29
8973.73
8069.71
8069.18
7356.54
7356.05
6778.98
6778.52
6301.14
6300.71
5898.91
5898.5
5555.45
5555.07
5258.65
5258.29
4999.56
4999.22
4771.43
4771.11
4569.07
4568.76
4388.39
4388.09
4226.15
4225.87
4079.76
4079.48
3947.07
3946.8
3826.35
3826.09
3716.14
3715.89
3615.23
3614.98
3522.59
3522.35
3437.35
3437.12
3358.76
3358.54
3286.2
3285.98
3219.09
3218.88
3156.97
3156.76
3099.4
3099.19
3046.01
3045.8
2996.46
2996.26
2950.46
2950.26
2907.73
2907.53
2868.04
2867.85
2831.18
2830.99
2796.95
2796.76
2765.19
2764.99
2735.73
2735.54
2708.45
2708.26
2683.19
2682.99
2659.81
2659.62
2638.18
2637.99
2618.14
2617.94
2599.53
2599.34
2582.2
2582
2565.99
2565.79
2550.74
2550.54
2536.32
2536.12
2522.6
2522.4
2509.53
2509.33
2497.15
2496.94
2485.62
2485.41
2475.25
2475.02
2466.38
2466.15
2459.27
2459.03
2453.9
2453.65
2449.51
2449.26
2444.88
2444.63
2438.38
2438.12
2428.32
2428.06
2413.37
2413.12
2392.82
2392.57
2366.65
2366.42
2335.48
2335.27
2300.32
2300.12
2262.35
2262.16
2222.7
2222.53
2182.4
2182.24
2142.21
2142.06
2102.68
2102.54
2064.16
2064.03
2026.82
2026.68
1990.65
1990.52
1955.55
1955.43
1921.37
1921.25
1887.9
1887.8
1854.96
1854.86
1822.36
1822.27
1789.93
1789.85
1757.53
1757.47
1725.07
1725.01
1692.45
1692.4
1659.62
1659.58
1626.54
1626.51
1593.22
1593.2
1559.69
1559.67
1526.01
1525.99
1492.26
1492.25
1458.56
1458.55
1425.06
1425.05
1391.87
1391.87
1359.15
1359.15
1327
1327
1295.51
1295.5
1264.72
1264.72
1234.67
1234.66
1205.34
1205.34
1176.73
1176.73
1148.81
1148.81
1121.56
1121.56
1094.97
1094.97
1069.03
1069.03
1043.75
1043.75
1019.15
1019.15
995.226
995.227
971.985
971.987
949.417
949.419
927.495
927.497
906.173
906.175
885.39
885.392
865.071
865.074
845.141
845.144
825.529
825.532
806.182
806.186
787.072
787.076
768.202
768.206
749.602
749.607
731.328
731.333
713.444
713.449
696.014
696.018
679.087
679.091
662.696
662.7
646.838
646.842
631.492
631.496
616.618
616.622
602.174
602.178
588.115
588.119
574.406
574.41
561.026
561.03
547.96
547.964
535.205
535.209
522.764
522.768
510.641
510.645
498.84
498.844
487.363
487.367
476.21
476.213
465.374
465.378
454.849
454.852
444.624
444.627
434.684
434.687
425.017
425.02
415.607
415.61
406.443
406.446
397.514
397.517
388.815
388.817
380.342
380.344
372.097
372.099
364.085
364.087
356.312
356.313
348.786
348.787
341.516
341.517
334.509
334.51
327.772
327.772
321.309
321.309
315.121
315.121
309.209
309.208
303.57
303.568
298.196
298.194
293.078
293.075
288.203
288.2
283.554
283.55
279.107
279.102
274.833
274.828
270.7
270.695
266.669
266.663
262.699
262.692
258.747
258.739
254.773
254.765
250.743
250.736
246.634
246.628
242.434
242.43
238.15
238.148
233.803
233.802
229.426
229.427
225.067
225.069
220.777
220.779
216.609
216.61
212.605
212.606
208.797
208.798
205.199
205.199
201.807
201.806
198.594
198.594
195.525
195.524
192.552
192.551
189.628
189.627
186.707
186.707
183.753
183.755
180.74
180.744
177.653
177.657
174.483
174.488
171.238
171.243
167.929
167.934
164.576
164.58
161.2
161.203
157.823
157.827
154.47
154.473
151.16
151.163
147.914
147.916
144.747
144.75
141.675
141.676
138.707
138.708
135.852
135.853
133.118
133.119
130.509
130.509
128.026
128.027
125.672
125.673
123.444
123.445
121.337
121.337
119.343
119.343
117.45
117.45
115.641
115.641
113.896
113.895
112.189
112.188
110.492
110.491
108.776
108.775
107.013
107.012
105.18
105.178
103.259
103.257
101.242
101.24
99.1305
99.1289
96.9395
96.9383
94.6925
94.6919
92.4182
92.4182
90.1468
90.1469
87.9068
87.907
85.7213
85.7215
83.6053
83.6053
81.5609
81.5609
79.5823
79.5822
77.6572
77.657
75.7702
75.7701
73.9076
73.9077
72.061
72.0613
70.227
70.2275
68.4073
68.4079
66.6074
66.608
64.8362
64.8367
63.1025
63.1029
61.4136
61.414
59.7743
59.7746
58.1872
58.1874
56.6527
56.6529
55.1701
55.1703
53.7384
53.7386
52.3566
52.3567
51.0239
51.024
49.7398
49.7399
48.5039
48.504
47.3154
47.3155
46.173
46.173
45.0751
45.0751
44.0197
44.0197
43.0046
43.0047
42.0278
42.0278
41.0871
41.0871
40.1809
40.1809
39.3078
39.3078
38.4669
38.467
37.6578
37.6578
36.8802
36.8803
36.1342
36.1343
35.4199
35.4199
34.7372
34.7372
34.086
34.0861
33.4659
33.466
32.8763
32.8763
32.3163
32.3163
31.785
31.785
31.2814
31.2814
30.8045
30.8045
30.3536
30.3536
29.9278
29.9279
29.5264
29.5264
29.1486
29.1486
28.7937
28.7937
28.461
28.461
28.1499
28.1499
27.8596
27.8596
27.5896
27.5896
27.3391
27.3391
27.1076
27.1076
26.8945
26.8946
26.6996
26.6996
26.5225
26.5225
26.363
26.363
26.2211
26.2211
26.0968
26.0968
25.9899
25.9899
25.9003
25.9003
25.8278
25.8278
25.7723
25.7723
25.7333
25.7333
25.7106
25.7106
25.7039
25.7039
25.7132
25.7132
25.7384
25.7384
25.7797
25.7797
25.8372
25.8372
25.9114
25.9114
26.0026
26.0026
26.1114
26.1114
26.2382
26.2382
26.3835
26.3835
26.5478
26.5478
26.7317
26.7317
26.9356
26.9356
27.16
27.16
27.4052
27.4052
27.671
27.671
27.9564
27.9564
28.2578
28.2578
28.566
28.566
28.8591
28.8591
29.0862
29.0862
29.0577
29.0577
1.52417e+06
1.52417e+06
264141
264138
87542.4
87539.5
41240.8
41239.8
25156.1
25156.3
18042.4
18043
14190.6
14191.2
11795.3
11795.9
10161.6
10162.2
8973.73
8974.29
8069.18
8069.71
7356.05
7356.54
6778.52
6778.98
6300.71
6301.14
5898.5
5898.91
5555.07
5555.45
5258.29
5258.65
4999.22
4999.56
4771.11
4771.44
4568.76
4569.07
4388.09
4388.39
4225.87
4226.15
4079.48
4079.76
3946.8
3947.07
3826.09
3826.35
3715.89
3716.14
3614.98
3615.23
3522.35
3522.59
3437.12
3437.35
3358.54
3358.76
3285.98
3286.2
3218.88
3219.09
3156.76
3156.97
3099.19
3099.4
3045.8
3046.01
2996.26
2996.46
2950.26
2950.46
2907.54
2907.73
2867.85
2868.05
2830.99
2831.18
2796.76
2796.95
2764.99
2765.19
2735.54
2735.74
2708.26
2708.45
2682.99
2683.19
2659.62
2659.81
2637.99
2638.18
2617.94
2618.14
2599.34
2599.53
2582
2582.2
2565.79
2565.99
2550.54
2550.74
2536.12
2536.32
2522.4
2522.6
2509.33
2509.53
2496.94
2497.15
2485.41
2485.62
2475.02
2475.25
2466.15
2466.38
2459.03
2459.27
2453.65
2453.9
2449.26
2449.51
2444.63
2444.88
2438.12
2438.38
2428.06
2428.32
2413.12
2413.37
2392.57
2392.82
2366.42
2366.65
2335.27
2335.48
2300.12
2300.32
2262.16
2262.35
2222.53
2222.7
2182.24
2182.4
2142.06
2142.21
2102.54
2102.68
2064.03
2064.16
2026.68
2026.82
1990.52
1990.65
1955.43
1955.55
1921.25
1921.37
1887.8
1887.9
1854.86
1854.96
1822.27
1822.36
1789.85
1789.93
1757.47
1757.53
1725.01
1725.07
1692.4
1692.45
1659.58
1659.62
1626.51
1626.54
1593.2
1593.22
1559.67
1559.69
1525.99
1526.01
1492.25
1492.26
1458.55
1458.56
1425.05
1425.06
1391.87
1391.87
1359.15
1359.15
1327
1327
1295.5
1295.51
1264.72
1264.72
1234.66
1234.67
1205.34
1205.34
1176.73
1176.73
1148.81
1148.81
1121.56
1121.56
1094.97
1094.97
1069.03
1069.03
1043.75
1043.75
1019.15
1019.15
995.227
995.226
971.986
971.985
949.419
949.417
927.497
927.495
906.175
906.173
885.392
885.39
865.074
865.071
845.144
845.141
825.532
825.529
806.185
806.181
787.076
787.072
768.206
768.201
749.607
749.602
731.333
731.328
713.448
713.444
696.018
696.013
679.091
679.087
662.7
662.695
646.842
646.838
631.496
631.491
616.622
616.618
602.177
602.173
588.118
588.114
574.41
574.406
561.029
561.025
547.963
547.959
535.209
535.205
522.768
522.764
510.644
510.641
498.843
498.84
487.366
487.363
476.212
476.209
465.377
465.374
454.852
454.849
444.626
444.623
434.687
434.684
425.019
425.016
415.609
415.607
406.445
406.443
397.516
397.514
388.817
388.814
380.344
380.342
372.099
372.097
364.086
364.085
356.313
356.311
348.787
348.786
341.516
341.516
334.509
334.509
327.772
327.772
321.308
321.308
315.12
315.121
309.208
309.209
303.567
303.569
298.193
298.195
293.075
293.077
288.2
288.203
283.55
283.553
279.102
279.106
274.828
274.833
270.694
270.7
266.662
266.669
262.691
262.698
258.739
258.746
254.765
254.772
250.736
250.743
246.627
246.634
242.429
242.434
238.148
238.15
233.802
233.802
229.427
229.426
225.068
225.067
220.779
220.777
216.61
216.608
212.606
212.605
208.797
208.797
205.198
205.198
201.806
201.806
198.593
198.594
195.523
195.524
192.55
192.551
189.626
189.627
186.706
186.706
183.754
183.752
180.743
180.739
177.656
177.652
174.488
174.482
171.242
171.237
167.934
167.929
164.58
164.575
161.203
161.199
157.826
157.823
154.472
154.469
151.163
151.16
147.916
147.914
144.749
144.747
141.676
141.674
138.708
138.706
135.853
135.852
133.119
133.117
130.509
130.508
128.027
128.026
125.672
125.671
123.444
123.443
121.336
121.336
119.342
119.342
117.449
117.449
115.64
115.64
113.894
113.895
112.187
112.187
110.489
110.49
108.773
108.775
107.011
107.012
105.177
105.179
103.256
103.258
101.239
101.241
99.1286
99.1304
96.9381
96.9396
94.6919
94.6927
92.4183
92.4185
90.1472
90.147
87.9072
87.907
85.7216
85.7215
83.6053
83.6053
81.5607
81.5608
79.582
79.5821
77.6567
77.6569
75.7698
75.7699
73.9074
73.9073
72.0611
72.0607
70.2275
70.2268
68.4079
68.4072
66.6081
66.6074
64.8369
64.8362
63.1031
63.1026
61.4141
61.4137
59.7748
59.7744
58.1876
58.1872
56.653
56.6527
55.1704
55.1701
53.7386
53.7384
52.3568
52.3566
51.024
51.0239
49.74
49.7398
48.504
48.5039
47.3154
47.3153
46.173
46.1729
45.075
45.0749
44.0196
44.0195
43.0046
43.0045
42.0277
42.0277
41.0871
41.087
40.1809
40.1808
39.3078
39.3077
38.467
38.4669
37.6579
37.6578
36.8803
36.8803
36.1343
36.1343
35.42
35.4199
34.7373
34.7373
34.0861
34.0861
33.466
33.466
32.8764
32.8763
32.3163
32.3163
31.785
31.785
31.2814
31.2814
30.8046
30.8045
30.3537
30.3536
29.9279
29.9278
29.5264
29.5264
29.1486
29.1486
28.7937
28.7937
28.461
28.461
28.1499
28.1499
27.8596
27.8596
27.5896
27.5895
27.3391
27.3391
27.1076
27.1076
26.8946
26.8945
26.6996
26.6996
26.5225
26.5225
26.363
26.363
26.2212
26.2211
26.0968
26.0968
25.9899
25.9899
25.9003
25.9003
25.8278
25.8278
25.7723
25.7723
25.7333
25.7333
25.7106
25.7106
25.7039
25.7039
25.7132
25.7132
25.7384
25.7384
25.7797
25.7797
25.8372
25.8372
25.9114
25.9114
26.0026
26.0026
26.1114
26.1114
26.2381
26.2381
26.3834
26.3834
26.5477
26.5477
26.7316
26.7316
26.9355
26.9355
27.1598
27.1599
27.405
27.405
27.6708
27.6708
27.956
27.9561
28.2573
28.2573
28.5655
28.5655
28.8585
28.8585
29.0856
29.0856
29.0571
29.0571
29.0577
29.0577
29.0863
29.0863
28.8593
28.8593
28.5662
28.5662
28.2579
28.2579
27.9565
27.9565
27.6712
27.6712
27.4054
27.4054
27.1602
27.1602
26.9357
26.9357
26.7318
26.7318
26.5479
26.5479
26.3836
26.3836
26.2383
26.2383
26.1115
26.1115
26.0027
26.0027
25.9115
25.9115
25.8373
25.8373
25.7798
25.7798
25.7385
25.7385
25.7133
25.7133
25.704
25.704
25.7106
25.7106
25.7333
25.7333
25.7723
25.7723
25.8279
25.8279
25.9003
25.9003
25.9898
25.9898
26.0967
26.0967
26.2211
26.2211
26.3629
26.363
26.5224
26.5224
26.6995
26.6995
26.8944
26.8944
27.1073
27.1073
27.3387
27.3387
27.5891
27.5891
27.8591
27.8591
28.1493
28.1493
28.4604
28.4604
28.793
28.793
29.1479
29.1479
29.5256
29.5256
29.927
29.927
30.3527
30.3527
30.8035
30.8035
31.2803
31.2803
31.7838
31.7838
32.315
32.315
32.8749
32.875
33.4645
33.4645
34.0845
34.0845
34.7356
34.7356
35.4181
35.4182
36.1324
36.1324
36.8783
36.8783
37.6557
37.6557
38.4647
38.4647
39.3054
39.3055
40.1784
40.1784
41.0844
41.0844
42.0249
42.025
43.0016
43.0017
44.0166
44.0166
45.0719
45.0719
46.1697
46.1698
47.312
47.3121
48.5005
48.5006
49.7363
49.7364
51.0202
51.0203
52.3528
52.3529
53.7345
53.7347
55.1661
55.1663
56.6485
56.6488
58.183
58.1832
59.77
59.7703
61.4091
61.4095
63.098
63.0984
64.8316
64.8322
66.6029
66.6035
68.403
68.4036
70.223
70.2236
72.0572
72.0576
73.9042
73.9043
75.767
75.7669
77.6542
77.654
79.5795
79.5794
81.5582
81.5582
83.6027
83.6028
85.7189
85.7191
87.9045
87.9047
90.1446
90.1448
92.4164
92.4163
94.6911
94.6904
96.9386
96.9373
99.1298
99.1281
101.241
101.239
103.258
103.256
105.179
105.177
107.012
107.01
108.774
108.773
110.49
110.489
112.187
112.186
113.894
113.894
115.639
115.639
117.448
117.448
119.341
119.341
121.334
121.335
123.441
123.441
125.669
125.669
128.023
128.024
130.504
130.505
133.114
133.115
135.847
135.849
138.701
138.703
141.669
141.671
144.742
144.744
147.908
147.91
151.153
151.156
154.463
154.466
157.816
157.82
161.192
161.196
164.568
164.573
167.921
167.926
171.229
171.234
174.474
174.479
177.643
177.648
180.731
180.735
183.743
183.745
186.696
186.697
189.616
189.616
192.54
192.539
195.512
195.511
198.582
198.581
201.794
201.794
205.186
205.186
208.784
208.785
212.592
212.593
216.595
216.597
220.764
220.765
225.053
225.055
229.412
229.413
233.788
233.788
238.136
238.133
242.42
242.415
246.62
246.613
250.729
250.721
254.757
254.75
258.731
258.723
262.682
262.675
266.652
266.645
270.683
270.677
274.815
274.81
279.088
279.083
283.535
283.531
288.183
288.18
293.057
293.054
298.174
298.172
303.547
303.545
309.186
309.185
315.097
315.096
321.283
321.283
327.746
327.746
334.482
334.482
341.487
341.488
348.756
348.757
356.281
356.282
364.052
364.054
372.063
372.065
380.306
380.308
388.777
388.78
397.475
397.477
406.402
406.404
415.564
415.567
424.972
424.975
434.637
434.64
444.575
444.578
454.799
454.802
465.322
465.326
476.156
476.159
487.308
487.311
498.783
498.787
510.582
510.586
522.703
522.707
535.142
535.146
547.894
547.898
560.957
560.961
574.335
574.339
588.04
588.044
602.096
602.1
616.538
616.542
631.409
631.413
646.753
646.757
662.607
662.612
678.996
679.001
695.92
695.925
713.348
713.353
731.23
731.235
749.502
749.507
768.098
768.103
786.966
786.971
806.074
806.078
825.418
825.423
845.028
845.032
864.957
864.96
885.273
885.276
906.054
906.057
927.373
927.376
949.292
949.295
971.857
971.859
995.094
995.096
1019.01
1019.02
1043.62
1043.62
1068.89
1068.89
1094.82
1094.82
1121.41
1121.41
1148.66
1148.66
1176.58
1176.58
1205.19
1205.18
1234.51
1234.5
1264.56
1264.55
1295.34
1295.34
1326.83
1326.83
1358.98
1358.97
1391.7
1391.69
1424.87
1424.87
1458.38
1458.37
1492.07
1492.06
1525.82
1525.8
1559.51
1559.49
1593.04
1593.01
1626.35
1626.32
1659.42
1659.39
1692.25
1692.21
1724.87
1724.81
1757.32
1757.26
1789.71
1789.63
1822.13
1822.04
1854.73
1854.63
1887.66
1887.55
1921.12
1921
1955.3
1955.17
1990.39
1990.25
2026.55
2026.4
2063.89
2063.74
2102.4
2102.25
2141.92
2141.76
2182.1
2181.93
2222.41
2222.23
2262.04
2261.85
2300.02
2299.81
2335.18
2334.95
2366.36
2366.11
2392.53
2392.27
2413.1
2412.83
2428.05
2427.78
2438.11
2437.83
2444.61
2444.33
2449.23
2448.96
2453.62
2453.36
2459
2458.75
2466.1
2465.86
2474.97
2474.73
2485.34
2485.11
2496.87
2496.65
2509.26
2509.04
2522.33
2522.12
2536.06
2535.85
2550.49
2550.28
2565.74
2565.53
2581.95
2581.75
2599.28
2599.08
2617.89
2617.69
2637.94
2637.74
2659.57
2659.37
2682.95
2682.75
2708.21
2708.01
2735.5
2735.29
2764.95
2764.74
2796.71
2796.51
2830.94
2830.73
2867.8
2867.59
2907.48
2907.27
2950.2
2949.99
2996.2
2995.99
3045.74
3045.52
3099.12
3098.9
3156.69
3156.46
3218.8
3218.57
3285.9
3285.66
3358.45
3358.21
3437.03
3436.78
3522.26
3522.01
3614.89
3614.63
3715.79
3715.52
3825.98
3825.71
3946.69
3946.41
4079.36
4079.07
4225.74
4225.44
4387.95
4387.64
4568.61
4568.28
4770.95
4770.61
4999.05
4998.69
5258.11
5257.73
5554.88
5554.48
5898.31
5897.88
6300.5
6300.04
6778.29
6777.8
7355.8
7355.28
8068.91
8068.35
8973.43
8972.83
10161.2
10160.6
11794.9
11794.2
14190.1
14189.4
18041.8
18041.2
25155.1
25155
41239.3
41240.3
87540.1
87543.2
264139
264142
1.52418e+06
1.52418e+06
29.0571
29.0571
29.0856
29.0856
28.8587
28.8587
28.5656
28.5656
28.2575
28.2575
27.9562
27.9562
27.6709
27.6709
27.4052
27.4052
27.16
27.16
26.9356
26.9356
26.7317
26.7317
26.5479
26.5479
26.3835
26.3835
26.2382
26.2382
26.1115
26.1115
26.0027
26.0027
25.9115
25.9115
25.8373
25.8373
25.7798
25.7798
25.7385
25.7385
25.7133
25.7133
25.704
25.704
25.7106
25.7106
25.7333
25.7333
25.7723
25.7723
25.8279
25.8279
25.9003
25.9003
25.9898
25.9898
26.0967
26.0967
26.2211
26.2211
26.363
26.363
26.5224
26.5224
26.6995
26.6995
26.8944
26.8944
27.1073
27.1073
27.3387
27.3387
27.5891
27.5891
27.8591
27.8591
28.1493
28.1493
28.4604
28.4604
28.793
28.793
29.1479
29.1479
29.5256
29.5256
29.927
29.927
30.3527
30.3527
30.8035
30.8035
31.2803
31.2803
31.7838
31.7838
32.3151
32.315
32.875
32.875
33.4646
33.4645
34.0846
34.0845
34.7356
34.7356
35.4182
35.4182
36.1325
36.1324
36.8783
36.8783
37.6558
37.6557
38.4647
38.4647
39.3055
39.3054
40.1784
40.1783
41.0844
41.0843
42.0249
42.0248
43.0016
43.0015
44.0165
44.0164
45.0719
45.0718
46.1697
46.1696
47.3121
47.312
48.5006
48.5004
49.7364
49.7362
51.0204
51.0202
52.353
52.3528
53.7347
53.7345
55.1664
55.1661
56.6489
56.6486
58.1833
58.183
59.7705
59.7701
61.4097
61.4092
63.0986
63.098
64.8323
64.8316
66.6036
66.6029
68.4036
68.4029
70.2235
70.2228
72.0574
72.057
73.904
73.9039
75.7666
75.7667
77.6537
77.6539
79.5792
79.5793
81.558
81.5581
83.6028
83.6027
85.7192
85.719
87.9049
87.9047
90.145
90.1449
92.4165
92.4166
94.6904
94.6912
96.9371
96.9386
99.1277
99.1297
101.239
101.241
103.255
103.257
105.176
105.178
107.009
107.011
108.772
108.773
110.488
110.489
112.185
112.186
113.892
113.893
115.638
115.638
117.447
117.447
119.34
119.34
121.334
121.333
123.441
123.44
125.669
125.668
128.023
128.022
130.505
130.504
133.114
133.113
135.848
135.847
138.703
138.701
141.671
141.669
144.744
144.741
147.91
147.907
151.156
151.153
154.466
154.462
157.819
157.815
161.196
161.191
164.572
164.568
167.926
167.92
171.234
171.228
174.479
174.473
177.647
177.642
180.734
180.73
183.744
183.742
186.696
186.695
189.615
189.615
192.538
192.539
195.51
195.511
198.58
198.581
201.793
201.793
205.186
205.186
208.784
208.784
212.592
212.591
216.596
216.595
220.765
220.763
225.054
225.053
229.413
229.412
233.787
233.788
238.133
238.135
242.415
242.42
246.612
246.619
250.72
250.728
254.749
254.757
258.722
258.73
262.674
262.682
266.645
266.652
270.676
270.682
274.809
274.815
279.083
279.087
283.53
283.534
288.179
288.183
293.054
293.057
298.171
298.173
303.545
303.546
309.184
309.185
315.096
315.097
321.283
321.283
327.745
327.745
334.482
334.481
341.488
341.487
348.757
348.756
356.282
356.28
364.054
364.052
372.065
372.063
380.308
380.306
388.779
388.777
397.477
397.475
406.404
406.402
415.566
415.564
424.974
424.972
434.64
434.637
444.578
444.575
454.802
454.799
465.325
465.322
476.159
476.155
487.311
487.307
498.786
498.783
510.586
510.582
522.707
522.703
535.146
535.142
547.898
547.894
560.961
560.957
574.339
574.335
588.044
588.04
602.1
602.096
616.542
616.538
631.413
631.409
646.757
646.753
662.612
662.608
679.001
678.996
695.925
695.92
713.353
713.348
731.235
731.23
749.507
749.502
768.103
768.099
786.971
786.966
806.078
806.074
825.423
825.419
845.032
845.029
864.961
864.957
885.277
885.274
906.057
906.055
927.376
927.374
949.295
949.293
971.859
971.858
995.097
995.095
1019.02
1019.02
1043.62
1043.62
1068.89
1068.89
1094.82
1094.82
1121.41
1121.41
1148.66
1148.66
1176.58
1176.58
1205.19
1205.19
1234.5
1234.51
1264.55
1264.56
1295.34
1295.34
1326.83
1326.83
1358.97
1358.98
1391.69
1391.7
1424.87
1424.88
1458.37
1458.38
1492.06
1492.07
1525.81
1525.82
1559.49
1559.51
1593.02
1593.04
1626.33
1626.36
1659.39
1659.43
1692.21
1692.25
1724.81
1724.87
1757.26
1757.33
1789.63
1789.71
1822.04
1822.14
1854.63
1854.73
1887.55
1887.67
1921
1921.12
1955.17
1955.3
1990.25
1990.39
2026.41
2026.55
2063.74
2063.89
2102.25
2102.4
2141.76
2141.92
2181.94
2182.11
2222.23
2222.41
2261.85
2262.05
2299.81
2300.02
2334.95
2335.19
2366.12
2366.36
2392.28
2392.54
2412.83
2413.1
2427.78
2428.05
2437.83
2438.11
2444.34
2444.61
2448.97
2449.23
2453.36
2453.63
2458.75
2459
2465.86
2466.1
2474.73
2474.97
2485.12
2485.35
2496.65
2496.88
2509.04
2509.27
2522.12
2522.34
2535.85
2536.06
2550.28
2550.49
2565.54
2565.74
2581.75
2581.96
2599.08
2599.29
2617.69
2617.9
2637.74
2637.94
2659.37
2659.58
2682.75
2682.95
2708.01
2708.22
2735.3
2735.5
2764.75
2764.95
2796.51
2796.72
2830.73
2830.94
2867.59
2867.8
2907.28
2907.49
2949.99
2950.21
2995.99
2996.21
3045.53
3045.75
3098.91
3099.13
3156.46
3156.69
3218.58
3218.81
3285.67
3285.9
3358.22
3358.46
3436.79
3437.03
3522.01
3522.26
3614.63
3614.89
3715.52
3715.79
3825.71
3825.99
3946.41
3946.7
4079.07
4079.37
4225.44
4225.75
4387.64
4387.96
4568.28
4568.62
4770.61
4770.96
4998.69
4999.06
5257.73
5258.12
5554.48
5554.89
5897.88
5898.32
6300.05
6300.51
6777.81
6778.3
7355.29
7355.81
8068.36
8068.92
8972.84
8973.44
10160.6
10161.3
11794.2
11794.9
14189.4
14190.1
18041.2
18041.8
25155
25155.2
41240.3
41239.3
87543.2
87540.1
264142
264139
1.52418e+06
1.52418e+06
)
;

boundaryField
{
    walls
    {
        blending        binomial2;
        n               2;
        beta1           0.075;
        type            omegaWallFunction;
        value           nonuniform List<scalar> 8(1.52417e+06 1.52417e+06 1.52417e+06 1.52417e+06 1.52418e+06 1.52418e+06 1.52418e+06 1.52418e+06);
    }
    inlet
    {
        type            cyclic;
    }
    outlet
    {
        type            cyclic;
    }
    sides
    {
        type            empty;
    }
}


// ************************************************************************* //
