/*--------------------------------*- C++ -*----------------------------------*\
| =========                 |                                                 |
| \\      /  F ield         | OpenFOAM: The Open Source CFD Toolbox           |
|  \\    /   O peration     | Version:  2012                                  |
|   \\  /    A nd           | Website:  www.openfoam.com                      |
|    \\/     M anipulation  |                                                 |
\*---------------------------------------------------------------------------*/
FoamFile
{
    version     2.0;
    format      ascii;
    class       volVectorField;
    location    "11800";
    object      U;
}
// * * * * * * * * * * * * * * * * * * * * * * * * * * * * * * * * * * * * * //

dimensions      [0 1 -1 0 0 0 0];


internalField   nonuniform List<vector> 
2560
(
(0.0287002 -2.62401e-05 0.000515746)
(0.0286666 -1.19839e-05 5.4862e-08)
(0.0862626 -1.19847e-05 0.00074106)
(0.086162 1.79561e-05 1.79067e-08)
(0.144461 -2.56302e-05 0.00053045)
(0.144295 2.85459e-05 6.22943e-09)
(0.203298 -3.49622e-05 0.000278803)
(0.20307 3.47628e-05 2.03594e-09)
(0.262782 -3.8159e-05 0.000147377)
(0.262497 3.82015e-05 4.75602e-10)
(0.322921 -4.0123e-05 8.94268e-05)
(0.322584 4.01396e-05 1.32296e-10)
(0.383683 -4.14347e-05 6.13289e-05)
(0.3833 4.15044e-05 1.27326e-10)
(0.445009 -4.244e-05 4.57974e-05)
(0.444586 4.24243e-05 1.79297e-11)
(0.506835 -4.32167e-05 3.62513e-05)
(0.506377 4.32808e-05 9.2087e-11)
(0.569163 -4.38633e-05 2.99044e-05)
(0.568677 4.38063e-05 4.75258e-12)
(0.63207 -4.44169e-05 2.54308e-05)
(0.63156 4.44842e-05 8.13296e-11)
(0.695579 -4.49447e-05 2.21345e-05)
(0.695051 4.47999e-05 -3.73562e-21)
(0.759722 -4.54669e-05 1.96203e-05)
(0.759179 4.54031e-05 8.29177e-11)
(0.824561 -4.59128e-05 1.76389e-05)
(0.824009 5.90469e-05 5.00092e-08)
(0.890087 -4.62064e-05 1.60717e-05)
(0.88953 1.93391e-05 -3.08658e-37)
(0.956208 -4.62185e-05 1.47604e-05)
(0.955649 0.000101711 1.19669e-07)
(1.02278 -4.7166e-05 1.37222e-05)
(1.02223 -3.93099e-05 6.40801e-10)
(1.08967 -4.65272e-05 1.28257e-05)
(1.08912 0.000137079 4.18822e-08)
(1.15687 -4.7945e-05 1.20748e-05)
(1.15632 -5.20155e-05 8.98621e-10)
(1.2246 -4.67085e-05 1.14223e-05)
(1.22406 0.000150947 4.0704e-08)
(1.29317 -4.88594e-05 1.08685e-05)
(1.29264 -6.46708e-05 6.4001e-10)
(1.36277 -4.67914e-05 1.03779e-05)
(1.36225 0.000164609 3.89731e-08)
(1.43343 -4.97756e-05 9.95812e-06)
(1.43293 -7.72169e-05 3.11588e-36)
(1.50512 -4.66643e-05 9.55453e-06)
(1.50463 0.000204758 1.48187e-07)
(1.57782 -5.08723e-05 9.25839e-06)
(1.57734 -0.000143134 1.55186e-21)
(1.65152 -4.64536e-05 8.93413e-06)
(1.65106 0.00027643 1.82142e-07)
(1.72623 -5.21967e-05 8.7188e-06)
(1.72578 -0.000220536 1.94709e-09)
(1.8019 -4.60188e-05 8.48713e-06)
(1.80146 0.000327675 7.83557e-08)
(1.87847 -5.36689e-05 8.30086e-06)
(1.87805 -0.000245219 3.907e-09)
(1.95589 -4.52776e-05 8.1174e-06)
(1.95549 0.000353704 8.07211e-08)
(2.03418 -5.53843e-05 7.9738e-06)
(2.03379 -0.000270805 3.59549e-09)
(2.11354 -4.42099e-05 7.82694e-06)
(2.11315 0.000380132 7.66309e-08)
(2.19437 -5.74278e-05 7.7152e-06)
(2.19399 -0.000296219 1.6317e-09)
(2.27728 -4.27207e-05 7.59681e-06)
(2.27692 0.000406223 7.10528e-08)
(2.36296 -5.98981e-05 7.51052e-06)
(2.3626 -0.000321091 -1.44246e-37)
(2.45199 -4.07597e-05 7.37962e-06)
(2.45164 0.000463437 2.24299e-07)
(2.54481 -6.2957e-05 7.35547e-06)
(2.54446 -0.000409566 -1.20584e-21)
(2.6416 -3.82581e-05 7.12798e-06)
(2.64125 0.000652769 7.37157e-07)
(2.74234 -6.66716e-05 7.25439e-06)
(2.742 -0.00070149 0)
(2.84691 -3.51373e-05 7.00421e-06)
(2.84657 0.000983223 9.64996e-07)
(2.95517 -7.10233e-05 7.20825e-06)
(2.95484 -0.00107412 1.16484e-21)
(3.06723 -3.13953e-05 7.02662e-06)
(3.0669 0.00132079 8.11678e-07)
(3.18363 -7.59565e-05 7.21056e-06)
(3.18329 -0.00137918 1.15242e-21)
(3.30548 -2.70449e-05 7.14431e-06)
(3.30514 0.00155381 4.37724e-07)
(3.43452 -8.14468e-05 7.25033e-06)
(3.43418 -0.00154003 -4.43585e-37)
(3.57281 -2.20976e-05 7.24124e-06)
(3.57246 0.00168521 2.73689e-07)
(3.72244 -8.75703e-05 7.32026e-06)
(3.72209 -0.00164036 1.98412e-36)
(3.88516 -1.64792e-05 7.30539e-06)
(3.88479 0.00180129 3.61148e-07)
(4.06214 -9.44311e-05 7.42056e-06)
(4.06177 -0.00177094 -1.42545e-37)
(4.25405 -1.01019e-05 6.95955e-06)
(4.25368 0.00225384 2.27953e-06)
(4.46107 -0.000101622 7.57103e-06)
(4.4607 -0.00255256 1.1457e-21)
(4.6828 -3.06803e-06 7.36218e-06)
(4.68243 0.00288789 1.47479e-06)
(4.9177 -0.000108746 7.80188e-06)
(4.91735 -0.0030392 3.85075e-08)
(5.16216 3.88928e-06 7.90068e-06)
(5.16183 0.00322616 7.58251e-07)
(5.40908 -0.000115813 8.2275e-06)
(5.40878 -0.00322518 1.66707e-07)
(5.64645 9.38653e-06 8.45347e-06)
(5.64621 0.00344496 1.39415e-06)
(5.85655 -0.000123318 9.06276e-06)
(5.85639 -0.00347787 4.00239e-07)
(6.01626 1.23583e-05 9.4939e-06)
(6.0162 0.00374161 2.23119e-06)
(6.09913 -0.000130468 1.04624e-05)
(6.0992 -0.00382546 6.40739e-07)
(6.07913 1.35562e-05 1.10856e-05)
(6.07935 0.0041196 2.71321e-06)
(5.93544 -0.000134444 1.22565e-05)
(5.93583 -0.00424095 6.89779e-07)
(5.65705 1.44539e-05 1.29122e-05)
(5.65764 0.00452594 2.29866e-06)
(5.24599 -0.000133378 1.39248e-05)
(5.2468 -0.00463638 4.36681e-07)
(4.71801 1.45516e-05 1.44093e-05)
(4.71905 0.00487446 1.09429e-06)
(4.10049 -0.000128688 1.4973e-05)
(4.10178 -0.004927 2.54848e-21)
(3.42824 1.15507e-05 1.51888e-05)
(3.42977 0.00511699 4.91919e-08)
(2.73837 -0.000123 1.50484e-05)
(2.74013 -0.00497053 1.19168e-06)
(2.06549 4.78174e-06 1.50958e-05)
(2.06746 0.00511104 3.41466e-07)
(1.43826 -0.000117516 1.47349e-05)
(1.44037 -0.0049433 1.85619e-06)
(0.877686 -4.10667e-06 1.47442e-05)
(0.879865 0.00506164 4.32173e-07)
(0.397033 -0.000112122 1.43808e-05)
(0.399163 -0.00489939 1.92908e-06)
(0.00284256 -1.29786e-05 1.44319e-05)
(0.00478601 0.00501935 4.0683e-07)
(-0.303514 -0.000106856 9.42955e-07)
(-0.301897 -0.000187153 4.57822e-06)
(-0.524323 -1.97011e-05 7.84123e-07)
(-0.523104 0.000268775 4.62518e-07)
(-0.66422 -0.000101083 7.46903e-07)
(-0.66342 -0.000106916 1.07072e-06)
(-0.729304 -2.52658e-05 5.96323e-07)
(-0.728921 0.00019931 3.43602e-07)
(-0.726602 -9.59042e-05 5.61575e-07)
(-0.72662 -4.58298e-05 8.17587e-07)
(-0.663715 -3.00584e-05 4.27448e-07)
(-0.664111 0.000147517 2.52683e-07)
(-0.548548 -9.1425e-05 3.97538e-07)
(-0.549297 -3.27052e-06 5.75598e-07)
(-0.389016 -3.41995e-05 2.80316e-07)
(-0.390082 0.000112771 1.73009e-07)
(-0.192797 -8.75678e-05 2.57087e-07)
(-0.194128 2.36245e-05 3.67091e-07)
(0.0329207 -3.78123e-05 1.57988e-07)
(0.031404 9.20523e-05 1.42068e-07)
(0.281664 -8.41736e-05 1.45919e-07)
(0.280076 3.80553e-05 1.99733e-07)
(0.547826 -4.08739e-05 6.75549e-08)
(0.546258 8.20254e-05 1.92005e-07)
(0.826617 -8.11801e-05 6.56387e-08)
(0.825136 4.3789e-05 2.10772e-07)
(1.11393 -4.34782e-05 1.10016e-09)
(1.11258 7.96236e-05 2.3265e-07)
(1.40612 -7.85565e-05 6.44761e-08)
(1.40491 4.32618e-05 2.23753e-07)
(1.69975 -4.57275e-05 8.18751e-08)
(1.6987 7.88071e-05 2.28869e-07)
(1.99134 -7.63008e-05 1.6233e-07)
(1.99043 4.56646e-05 2.3617e-07)
(2.27717 -4.77336e-05 2.07902e-07)
(2.2764 7.66442e-05 2.41835e-07)
(2.5532 -7.44087e-05 3.13867e-07)
(2.55254 4.76851e-05 3.15107e-07)
(2.81505 -4.95703e-05 3.88818e-07)
(2.8145 7.46642e-05 3.88463e-07)
(3.05818 -7.28549e-05 5.13874e-07)
(3.05773 4.93525e-05 5.1517e-07)
(3.27813 -5.12563e-05 6.02753e-07)
(3.27776 7.28463e-05 6.02582e-07)
(3.47085 -7.15387e-05 7.25551e-07)
(3.47056 5.07688e-05 7.26907e-07)
(3.63304 -5.27515e-05 8.02577e-07)
(3.63281 7.12297e-05 8.02582e-07)
(3.76245 -7.03788e-05 8.95934e-07)
(3.76228 5.20157e-05 8.97345e-07)
(3.85821 -5.3966e-05 9.37002e-07)
(3.85809 6.99032e-05 9.37169e-07)
(3.92086 -6.92855e-05 9.84416e-07)
(3.92079 5.3184e-05 9.85871e-07)
(3.95243 -5.49206e-05 9.80968e-07)
(3.9524 6.88451e-05 9.81276e-07)
(3.95626 -6.82268e-05 9.84225e-07)
(3.95627 5.43064e-05 9.85709e-07)
(3.93681 -5.56953e-05 9.45933e-07)
(3.93683 6.79745e-05 9.46364e-07)
(3.89932 -6.72416e-05 9.21361e-07)
(3.89936 5.53448e-05 9.22862e-07)
(3.84953 -5.63568e-05 8.68692e-07)
(3.84959 6.72242e-05 8.69231e-07)
(3.79336 -6.64157e-05 8.36592e-07)
(3.79342 5.62141e-05 8.38108e-07)
(3.73661 -5.6961e-05 7.86768e-07)
(3.73667 6.65369e-05 7.87411e-07)
(3.68476 -6.57465e-05 7.60725e-07)
(3.68481 5.69176e-05 7.62263e-07)
(3.6428 -5.75307e-05 7.2211e-07)
(3.64284 6.58893e-05 7.22864e-07)
(3.6151 -6.51876e-05 7.06973e-07)
(3.61512 5.75025e-05 7.08556e-07)
(3.60532 -5.80483e-05 6.8157e-07)
(3.60532 6.5298e-05 6.82458e-07)
(3.61632 -6.4689e-05 6.78842e-07)
(3.61629 5.80192e-05 6.80505e-07)
(3.65006 -5.84764e-05 6.69874e-07)
(3.65001 6.47995e-05 6.70933e-07)
(3.70752 -6.42534e-05 6.84398e-07)
(3.70745 5.84655e-05 6.86192e-07)
(3.78863 -5.88254e-05 6.98043e-07)
(3.78853 6.43827e-05 6.99324e-07)
(3.89211 -6.3841e-05 7.39729e-07)
(3.892 5.88817e-05 7.41712e-07)
(4.01551 -5.9184e-05 7.84685e-07)
(4.01539 6.39583e-05 7.86245e-07)
(4.15517 -6.35087e-05 8.57254e-07)
(4.15504 5.92111e-05 8.59489e-07)
(4.30634 -5.94758e-05 9.3656e-07)
(4.3062 6.36021e-05 9.38455e-07)
(4.46333 -6.32414e-05 1.04307e-06)
(4.46319 5.9469e-05 1.04561e-06)
(4.61982 -5.97166e-05 1.15888e-06)
(4.6197 6.32978e-05 1.16115e-06)
(4.76923 -6.29694e-05 1.3049e-06)
(4.76912 5.97255e-05 1.30779e-06)
(4.90509 -5.98811e-05 1.46828e-06)
(4.905 6.30702e-05 1.47096e-06)
(5.02153 -6.26578e-05 1.67323e-06)
(5.02145 6.00156e-05 1.67647e-06)
(5.11368 -5.99677e-05 1.91296e-06)
(5.11362 6.29203e-05 1.91602e-06)
(5.17803 -6.23359e-05 2.21382e-06)
(5.178 6.03102e-05 2.2174e-06)
(5.21268 -6.00259e-05 2.57249e-06)
(5.21267 6.27983e-05 2.57591e-06)
(5.21743 -6.21105e-05 3.01026e-06)
(5.21744 6.05026e-05 3.01412e-06)
(5.19373 -6.0149e-05 3.52025e-06)
(5.19375 6.26105e-05 3.52396e-06)
(5.14446 -6.20855e-05 4.10988e-06)
(5.14449 6.0489e-05 4.11396e-06)
(5.07359 -6.04681e-05 4.75699e-06)
(5.07364 6.22254e-05 4.76093e-06)
(4.98581 -6.22767e-05 5.45064e-06)
(4.98587 6.02537e-05 5.4549e-06)
(4.88601 -6.10025e-05 6.14827e-06)
(4.88608 6.16236e-05 6.15239e-06)
(4.77886 -6.26727e-05 6.81729e-06)
(4.77893 5.98082e-05 6.82169e-06)
(4.66846 -6.15951e-05 7.40284e-06)
(4.66853 6.09613e-05 7.40712e-06)
(4.55806 -6.30283e-05 7.86701e-06)
(4.55814 5.93979e-05 7.87153e-06)
(4.44992 -6.2025e-05 8.15937e-06)
(4.44999 6.04592e-05 8.16379e-06)
(4.34525 -6.31155e-05 8.25635e-06)
(4.34533 5.9251e-05 8.261e-06)
(4.24436 -6.20512e-05 8.13531e-06)
(4.24442 6.03576e-05 8.13988e-06)
(4.14675 -6.27696e-05 7.80669e-06)
(4.14682 5.95322e-05 7.81147e-06)
(4.05142 -6.16472e-05 7.28563e-06)
(4.05149 6.06825e-05 7.29034e-06)
(3.95705 -6.20976e-05 6.61558e-06)
(3.95712 6.01345e-05 6.62048e-06)
(3.86226 -6.10285e-05 5.83816e-06)
(3.86233 6.12185e-05 5.84299e-06)
(3.76581 -6.13724e-05 5.01122e-06)
(3.76588 6.07848e-05 5.01621e-06)
(3.66678 -6.04948e-05 4.179e-06)
(3.66686 6.16655e-05 4.18392e-06)
(3.56467 -6.08479e-05 3.3908e-06)
(3.56474 6.12291e-05 3.39585e-06)
(3.45941 -6.02262e-05 2.67455e-06)
(3.45949 6.18435e-05 2.67953e-06)
(3.35141 -6.06572e-05 2.05433e-06)
(3.35149 6.13341e-05 2.0594e-06)
(3.24144 -6.02308e-05 1.53548e-06)
(3.24153 6.1744e-05 1.54047e-06)
(3.13059 -6.07053e-05 1.12022e-06)
(3.13067 6.11949e-05 1.12528e-06)
(3.0201 -6.04007e-05 7.96898e-07)
(3.02018 6.14745e-05 9.44263e-07)
(2.91128 -6.08546e-05 5.55456e-07)
(2.91137 6.09488e-05 9.58396e-07)
(2.80539 -6.05946e-05 3.78688e-07)
(2.80547 6.11758e-05 9.71768e-07)
(2.70349 -6.09906e-05 2.54496e-07)
(2.70358 6.07104e-05 9.85886e-07)
(2.60643 -6.07375e-05 2.19581e-07)
(2.60651 6.09229e-05 9.99171e-07)
(2.51471 -6.1062e-05 2.35515e-07)
(2.51479 6.05308e-05 1.01311e-06)
(2.4285 -6.08173e-05 2.37181e-07)
(2.42858 6.07273e-05 1.02617e-06)
(2.3476 -6.10729e-05 2.55084e-07)
(2.34768 6.04057e-05 1.03973e-06)
(2.27146 -6.08428e-05 2.54764e-07)
(2.27153 6.05802e-05 1.05242e-06)
(2.19915 -6.10396e-05 2.75078e-07)
(2.19922 6.03188e-05 1.06539e-06)
(2.12945 -6.08498e-05 2.79175e-07)
(2.12952 6.04455e-05 1.07765e-06)
(2.06083 -6.10015e-05 2.95301e-07)
(2.0609 6.02308e-05 1.08989e-06)
(1.99155 -6.07739e-05 3.0603e-07)
(1.99163 6.03877e-05 1.10172e-06)
(1.91966 -6.09866e-05 3.07975e-07)
(1.91974 6.01137e-05 1.11324e-06)
(1.84312 -6.07369e-05 3.2405e-07)
(1.84321 6.02845e-05 1.12476e-06)
(1.75984 -6.09265e-05 3.22705e-07)
(1.75994 6.00355e-05 1.13575e-06)
(1.66784 -6.06977e-05 3.42024e-07)
(1.66795 6.01769e-05 1.14722e-06)
(1.56531 -6.08662e-05 3.41947e-07)
(1.56545 5.99512e-05 1.15813e-06)
(1.4508 -6.06556e-05 3.59799e-07)
(1.45096 6.00655e-05 1.17e-06)
(1.32327 -6.08057e-05 3.60764e-07)
(1.32346 5.98603e-05 1.1815e-06)
(1.18229 -6.06103e-05 3.77247e-07)
(1.18253 5.99501e-05 1.19448e-06)
(1.02812 -6.07448e-05 3.79062e-07)
(1.02841 5.97627e-05 1.20745e-06)
(0.861778 -6.0562e-05 3.94267e-07)
(0.862154 5.98299e-05 1.22242e-06)
(0.685119 -6.06829e-05 3.96761e-07)
(0.685617 5.96581e-05 1.23786e-06)
(0.500821 -6.05099e-05 4.1076e-07)
(0.501493 5.97048e-05 1.25571e-06)
(0.312343 -6.06193e-05 4.13758e-07)
(0.313242 5.95458e-05 1.27452e-06)
(0.123843 -6.04531e-05 4.26556e-07)
(0.124975 5.95743e-05 1.29589e-06)
(-0.0599467 -6.05558e-05 4.29821e-07)
(-0.0587282 5.94283e-05 1.31852e-06)
(-0.233972 -6.03911e-05 4.42186e-07)
(-0.232964 5.94368e-05 1.34245e-06)
(-0.393296 -6.04787e-05 4.48276e-07)
(-0.392573 5.92927e-05 1.36583e-06)
(-0.533076 -6.03302e-05 4.61864e-07)
(-0.532595 5.92988e-05 1.39005e-06)
(-0.648872 -6.03974e-05 4.7052e-07)
(-0.648567 5.9147e-05 1.41343e-06)
(-0.736923 -6.02646e-05 4.84769e-07)
(-0.736741 5.91536e-05 1.43706e-06)
(-0.794328 -6.03124e-05 4.95421e-07)
(-0.794236 5.89902e-05 1.45955e-06)
(-0.819269 -6.01942e-05 5.09528e-07)
(-0.819249 5.90014e-05 1.48193e-06)
(-0.81108 -6.02231e-05 5.20949e-07)
(-0.811127 5.88226e-05 1.50319e-06)
(-0.770256 -6.0122e-05 5.34678e-07)
(-0.770372 5.88396e-05 1.52449e-06)
(-0.698449 -6.0129e-05 5.44477e-07)
(-0.69865 5.86438e-05 1.54522e-06)
(-0.59833 -6.00466e-05 5.59145e-07)
(-0.598646 5.86696e-05 1.56669e-06)
(-0.473426 -6.00315e-05 5.66851e-07)
(-0.473912 5.84515e-05 1.58861e-06)
(-0.327893 -5.99685e-05 5.82345e-07)
(-0.328619 5.84907e-05 1.61218e-06)
(-0.166252 -5.99296e-05 5.89978e-07)
(-0.167245 5.82446e-05 1.63738e-06)
(0.00672798 -5.98891e-05 6.03926e-07)
(0.00561968 5.83012e-05 1.665e-06)
(0.186355 -5.9832e-05 6.11336e-07)
(0.185459 5.80328e-05 1.69493e-06)
(0.368453 -5.97833e-05 6.28124e-07)
(0.367817 5.80775e-05 1.7232e-06)
(0.549153 -5.97413e-05 6.3995e-07)
(0.548714 5.78144e-05 1.75448e-06)
(0.72508 -5.96708e-05 6.60205e-07)
(0.724771 5.7842e-05 1.78359e-06)
(0.893421 -5.96452e-05 6.76876e-07)
(0.893193 5.75796e-05 1.81597e-06)
(1.05193 -5.95537e-05 7.00815e-07)
(1.05175 5.75916e-05 1.84538e-06)
(1.19895 -5.95386e-05 7.22463e-07)
(1.19881 5.73328e-05 1.87818e-06)
(1.33337 -5.94268e-05 7.5002e-07)
(1.33326 5.73309e-05 1.90703e-06)
(1.45451 -5.94282e-05 7.76548e-07)
(1.45442 5.70674e-05 1.9394e-06)
(1.56213 -5.92794e-05 8.07441e-07)
(1.56206 5.70703e-05 1.96666e-06)
(1.65627 -5.93054e-05 9.43578e-07)
(1.65621 5.67924e-05 1.99771e-06)
(1.73717 -5.91201e-05 1.14717e-06)
(1.73713 5.68012e-05 2.02241e-06)
(1.80522 -5.91655e-05 1.37281e-06)
(1.80519 5.65132e-05 2.05138e-06)
(1.8608 -5.89454e-05 1.62025e-06)
(1.86077 5.65278e-05 2.07265e-06)
(1.90422 -5.90143e-05 1.88236e-06)
(1.9042 5.62253e-05 2.09903e-06)
(1.93564 -5.87639e-05 2.15636e-06)
(1.93562 5.6242e-05 2.13669e-06)
(1.95497 -5.8852e-05 2.4334e-06)
(1.95496 5.59302e-05 2.41339e-06)
(1.96186 -5.85975e-05 2.70768e-06)
(1.96186 5.59234e-05 2.68636e-06)
(1.95569 -5.86858e-05 2.9734e-06)
(1.95569 5.56225e-05 2.952e-06)
(1.93557 -5.84489e-05 3.22348e-06)
(1.93558 5.55703e-05 3.201e-06)
(1.90045 -5.85396e-05 3.45614e-06)
(1.90047 5.52803e-05 3.43395e-06)
(1.84921 -5.83086e-05 3.66933e-06)
(1.84924 5.51931e-05 3.64637e-06)
(1.78083 -5.84161e-05 3.86381e-06)
(1.78087 5.49024e-05 3.84163e-06)
(1.69451 -5.81808e-05 4.04396e-06)
(1.69456 5.4788e-05 4.02141e-06)
(1.58989 -5.83069e-05 4.2149e-06)
(1.58995 5.44977e-05 4.19376e-06)
(1.4672 -5.80428e-05 4.38623e-06)
(1.46727 5.4377e-05 4.36518e-06)
(1.32737 -5.82033e-05 4.56209e-06)
(1.32746 5.40741e-05 4.54318e-06)
(1.17218 -5.78795e-05 4.75524e-06)
(1.17229 5.39727e-05 4.73691e-06)
(1.00427 -5.809e-05 4.96461e-06)
(1.00441 5.36439e-05 4.94918e-06)
(0.827151 -5.76957e-05 5.20158e-06)
(0.827324 5.35656e-05 5.18716e-06)
(0.645116 -5.79465e-05 5.46044e-06)
(0.645341 5.32219e-05 5.4496e-06)
(0.463103 -5.74979e-05 5.74468e-06)
(0.46341 5.31423e-05 5.73512e-06)
(0.2865 -5.77759e-05 6.04475e-06)
(0.286946 5.27968e-05 6.03924e-06)
(0.120884 -5.72945e-05 6.3561e-06)
(0.121527 5.26855e-05 6.3519e-06)
(-0.0282127 -5.75967e-05 6.66691e-06)
(-0.0274239 5.23461e-05 6.66683e-06)
(-0.155605 -5.70787e-05 6.96936e-06)
(-0.155022 5.22028e-05 6.96823e-06)
(-0.257243 -5.74275e-05 7.25026e-06)
(-0.256914 5.17877e-05 7.24526e-06)
(-0.330069 -5.68514e-05 7.50756e-06)
(-0.329909 5.17101e-05 7.50232e-06)
(-0.372343 -5.72866e-05 7.72577e-06)
(-0.372282 5.11481e-05 7.71742e-06)
(-0.383855 -5.66214e-05 7.91547e-06)
(-0.383859 5.11705e-05 7.90809e-06)
(-0.365999 -5.71435e-05 8.06536e-06)
(-0.366062 5.04576e-05 8.05594e-06)
(-0.321763 -5.64152e-05 8.19102e-06)
(-0.321898 5.05573e-05 8.18399e-06)
(-0.255437 -5.69737e-05 8.29522e-06)
(-0.255681 4.97387e-05 8.28719e-06)
(-0.172328 -5.61967e-05 8.39103e-06)
(-0.172734 4.99043e-05 8.38679e-06)
(-0.0784004 -5.67805e-05 8.48288e-06)
(-0.0789573 4.89825e-05 8.47835e-06)
(0.0201317 -5.59643e-05 8.58092e-06)
(0.0196074 4.92139e-05 8.58126e-06)
(0.117439 -5.65618e-05 8.68885e-06)
(0.117074 4.81932e-05 8.68694e-06)
(0.20842 -5.56734e-05 8.81525e-06)
(0.208189 4.84751e-05 8.81041e-06)
(0.288893 -5.63498e-05 8.94932e-06)
(0.288747 4.73495e-05 8.9421e-06)
(0.355914 -5.53382e-05 9.10581e-06)
(0.355821 4.77154e-05 9.09614e-06)
(0.407871 -5.61265e-05 9.26222e-06)
(0.407813 4.64493e-05 9.25053e-06)
(0.444455 -5.49958e-05 9.43364e-06)
(0.444421 4.68992e-05 9.42031e-06)
(0.466557 -5.59015e-05 9.59925e-06)
(0.46654 4.5486e-05 9.58456e-06)
(0.476073 -5.46313e-05 9.77841e-06)
(0.476068 4.60441e-05 9.76299e-06)
(0.475611 -5.56848e-05 9.94581e-06)
(0.475615 4.44526e-05 9.9297e-06)
(0.468196 -5.42544e-05 1.01285e-05)
(0.468205 4.5142e-05 1.01123e-05)
(0.456967 -5.54665e-05 1.02999e-05)
(0.456978 4.33611e-05 1.02835e-05)
(0.444885 -5.38769e-05 1.04907e-05)
(0.444896 4.41824e-05 1.04746e-05)
(0.434575 -5.5237e-05 1.06774e-05)
(0.434583 4.22227e-05 1.06611e-05)
(0.428176 -5.34704e-05 1.08899e-05)
(0.42818 4.3195e-05 1.08739e-05)
(0.427205 -5.50199e-05 1.10956e-05)
(0.427203 4.10156e-05 1.10791e-05)
(0.432569 -5.30437e-05 1.1333e-05)
(0.432561 4.21728e-05 1.13165e-05)
(0.444637 -5.47969e-05 1.15633e-05)
(0.444623 3.97609e-05 1.15458e-05)
(0.463312 -5.25933e-05 1.18256e-05)
(0.463293 4.1123e-05 1.18075e-05)
(0.488088 -5.45858e-05 1.20714e-05)
(0.488066 3.84457e-05 1.20519e-05)
(0.518152 -5.21318e-05 1.23474e-05)
(0.518129 4.00382e-05 1.23267e-05)
(0.55246 -5.43945e-05 1.25998e-05)
(0.552436 3.70686e-05 1.25772e-05)
(0.589876 -5.16405e-05 1.28852e-05)
(0.589852 3.89441e-05 1.2861e-05)
(0.629146 -5.42417e-05 1.31335e-05)
(0.629124 3.56192e-05 1.31072e-05)
(0.668982 -5.11388e-05 1.34188e-05)
(0.668961 3.783e-05 1.33906e-05)
(0.708099 -5.40995e-05 1.36615e-05)
(0.708081 3.4135e-05 1.36312e-05)
(0.745195 -5.06622e-05 1.39376e-05)
(0.745179 3.66701e-05 1.39052e-05)
(0.77912 -5.39517e-05 1.41732e-05)
(0.779107 3.26427e-05 1.41389e-05)
(0.808852 -5.01977e-05 1.44356e-05)
(0.808841 3.54876e-05 1.43995e-05)
(0.833526 -5.38488e-05 1.46466e-05)
(0.833518 3.1103e-05 1.46091e-05)
(0.852596 -4.97305e-05 1.48888e-05)
(0.852591 3.43079e-05 1.48496e-05)
(0.865887 -5.37734e-05 1.5069e-05)
(0.865884 2.95437e-05 1.50292e-05)
(0.873555 -4.92893e-05 1.52735e-05)
(0.873554 3.31119e-05 1.52322e-05)
(0.876067 -5.37445e-05 1.54058e-05)
(0.876067 2.79553e-05 1.53647e-05)
(0.87417 -4.88725e-05 1.55647e-05)
(0.874171 3.19092e-05 1.55224e-05)
(0.868833 -5.37562e-05 1.56474e-05)
(0.868835 2.63518e-05 1.5606e-05)
(0.861091 -4.84857e-05 1.57602e-05)
(0.861093 3.07007e-05 1.57176e-05)
(0.851873 -5.38298e-05 1.57946e-05)
(0.851876 2.47177e-05 1.57534e-05)
(0.841961 -4.81201e-05 1.5876e-05)
(0.841964 2.94999e-05 1.58335e-05)
(0.831862 -5.39529e-05 1.58832e-05)
(0.831865 2.30708e-05 1.58426e-05)
(0.82173 -4.77997e-05 1.59529e-05)
(0.821732 2.82868e-05 1.59105e-05)
(0.811489 -5.41046e-05 1.59632e-05)
(0.811492 2.14365e-05 1.59232e-05)
(0.800831 -4.75136e-05 1.60485e-05)
(0.800834 2.70761e-05 1.60062e-05)
(0.789265 -5.4312e-05 1.60764e-05)
(0.789269 1.97923e-05 1.60373e-05)
(0.776363 -4.72433e-05 1.61949e-05)
(0.776366 2.58897e-05 1.61527e-05)
(0.761792 -5.45696e-05 1.62452e-05)
(0.761797 1.81482e-05 1.62072e-05)
(0.745416 -4.7013e-05 1.63837e-05)
(0.745421 2.47061e-05 1.63419e-05)
(0.727392 -5.48693e-05 1.64369e-05)
(0.727397 1.65161e-05 1.64003e-05)
(0.708145 -4.68364e-05 1.65624e-05)
(0.70815 2.35136e-05 1.65213e-05)
(0.688385 -5.52193e-05 1.65774e-05)
(0.68839 1.48907e-05 1.65428e-05)
(0.668995 -4.67262e-05 1.66458e-05)
(0.669 2.23006e-05 1.66054e-05)
(0.651036 -5.56238e-05 1.65808e-05)
(0.651041 1.32701e-05 1.65482e-05)
(0.635601 -4.66831e-05 1.65559e-05)
(0.635604 2.10666e-05 1.6516e-05)
(0.62362 -5.61036e-05 1.6378e-05)
(0.623622 1.16361e-05 1.63472e-05)
(0.615909 -4.6706e-05 1.6247e-05)
(0.61591 1.98142e-05 1.62068e-05)
(0.613102 -5.66519e-05 1.59596e-05)
(0.613101 1e-05 1.59298e-05)
(0.615505 -4.67951e-05 1.57377e-05)
(0.615503 1.85466e-05 1.5696e-05)
(0.623096 -5.72657e-05 1.53631e-05)
(0.623094 8.37284e-06 1.53334e-05)
(0.635602 -4.69751e-05 1.50767e-05)
(0.635598 1.72465e-05 1.50318e-05)
(0.652504 -5.79343e-05 1.46566e-05)
(0.652499 6.77892e-06 1.46259e-05)
(0.673063 -4.72439e-05 1.43519e-05)
(0.673058 1.5928e-05 1.43023e-05)
(0.696396 -5.86701e-05 1.39238e-05)
(0.696391 5.2255e-06 1.38915e-05)
(0.721544 -4.76284e-05 1.36336e-05)
(0.721539 1.45818e-05 1.35777e-05)
(0.747483 -5.94756e-05 1.32324e-05)
(0.747479 3.73731e-06 1.31981e-05)
(0.773258 -4.81456e-05 1.29876e-05)
(0.773254 1.32134e-05 1.29241e-05)
(0.798056 -6.03669e-05 1.26357e-05)
(0.798053 2.33181e-06 1.25996e-05)
(0.821173 -4.88226e-05 1.24533e-05)
(0.821169 1.18234e-05 1.2381e-05)
(0.842124 -6.13608e-05 1.21625e-05)
(0.842121 1.03283e-06 1.21254e-05)
(0.860772 -4.96767e-05 1.20512e-05)
(0.86077 1.04262e-05 1.19689e-05)
(0.877241 -6.24722e-05 1.18143e-05)
(0.877238 -1.28341e-07 1.17776e-05)
(0.891979 -5.07368e-05 1.17498e-05)
(0.891977 9.02858e-06 1.16562e-05)
(0.905797 -6.37243e-05 1.15183e-05)
(0.905795 -1.12238e-06 1.14834e-05)
(0.919871 -5.20403e-05 1.14323e-05)
(0.919869 7.63341e-06 1.13252e-05)
(0.935832 -6.51341e-05 1.2083e-05)
(0.935829 -1.90586e-06 1.10828e-05)
(0.955879 -5.36421e-05 1.08886e-05)
(0.955876 6.23256e-06 1.07644e-05)
(0.983116 -6.67327e-05 1.30052e-05)
(0.983111 -2.43698e-06 1.03195e-05)
(1.02178 -5.56102e-05 9.83417e-06)
(1.02178 4.8195e-06 9.68669e-06)
(1.07805 -5.06194e-05 8.92427e-06)
(1.07804 -2.70447e-06 8.89818e-06)
(1.16148 -3.95238e-05 7.9799e-06)
(1.16148 3.59564e-06 7.8566e-06)
(1.28708 -3.35539e-05 6.64346e-06)
(1.28707 -2.9169e-06 6.61833e-06)
(1.47646 -2.23238e-05 5.23e-06)
(1.47646 2.5888e-06 5.13517e-06)
(1.76025 -1.53067e-05 3.51058e-06)
(1.76024 -3.13178e-06 3.48982e-06)
(2.2783 -3.87205e-06 1.69156e-06)
(2.2783 1.59188e-06 1.64369e-06)
(0.0286665 -1.19685e-05 -5.48309e-08)
(0.0287002 -2.62485e-05 -0.000514213)
(0.0861617 1.80136e-05 -1.79175e-08)
(0.0862625 -1.20146e-05 -0.000738857)
(0.144294 2.86363e-05 -6.25576e-09)
(0.14446 -2.56845e-05 -0.000528873)
(0.20307 3.4877e-05 -2.04399e-09)
(0.203298 -3.50426e-05 -0.000277974)
(0.262497 3.83273e-05 -4.76777e-10)
(0.262782 -3.83334e-05 -0.000146939)
(0.322583 4.02716e-05 -1.32702e-10)
(0.322921 -4.02194e-05 -8.9161e-05)
(0.383299 4.16409e-05 -1.27628e-10)
(0.383683 -4.15543e-05 -6.11466e-05)
(0.444584 4.25639e-05 -1.79488e-11)
(0.445008 -4.25409e-05 -4.56612e-05)
(0.506376 4.34232e-05 -9.23385e-11)
(0.506834 -4.33237e-05 -3.61435e-05)
(0.568675 4.39505e-05 -4.79233e-12)
(0.569163 -4.39802e-05 -2.98154e-05)
(0.631558 4.46305e-05 -8.14723e-11)
(0.632069 -4.45324e-05 -2.53551e-05)
(0.695049 4.49474e-05 2.57138e-22)
(0.695578 -4.49965e-05 -2.20686e-05)
(0.759177 4.55525e-05 -8.28193e-11)
(0.759721 -4.54701e-05 -1.95619e-05)
(0.824007 5.91974e-05 -5.00103e-08)
(0.82456 -4.57142e-05 -1.75864e-05)
(0.889528 1.94903e-05 -5.53865e-19)
(0.890086 -4.61652e-05 -1.6024e-05)
(0.955647 0.000101864 -1.19666e-07)
(0.956207 -4.62246e-05 -1.47165e-05)
(1.02222 -3.9156e-05 -6.40826e-10)
(1.02278 -4.72115e-05 -1.36815e-05)
(1.08911 0.000137233 -4.1885e-08)
(1.08967 -4.65819e-05 -1.27877e-05)
(1.15632 -5.18604e-05 -8.98618e-10)
(1.15687 -4.80038e-05 -1.2039e-05)
(1.22406 0.000151104 -4.07041e-08)
(1.2246 -4.67607e-05 -1.13884e-05)
(1.29264 -6.4514e-05 -6.40074e-10)
(1.29317 -4.89064e-05 -1.08364e-05)
(1.36225 0.000164768 -3.89732e-08)
(1.36277 -4.68317e-05 -1.03471e-05)
(1.43293 -7.70586e-05 5.96146e-19)
(1.43343 -4.98127e-05 -9.92866e-06)
(1.50463 0.000204918 -1.48187e-07)
(1.50512 -4.66977e-05 -9.5262e-06)
(1.57734 -0.000142974 -1.55186e-21)
(1.57781 -5.09049e-05 -9.23104e-06)
(1.65106 0.000276592 -1.82143e-07)
(1.65152 -4.64845e-05 -8.90767e-06)
(1.72578 -0.000220375 -1.94712e-09)
(1.72622 -5.22278e-05 -8.69311e-06)
(1.80146 0.000327838 -7.83559e-08)
(1.8019 -4.60492e-05 -8.46214e-06)
(1.87805 -0.000245057 -3.90701e-09)
(1.87847 -5.36999e-05 -8.27649e-06)
(1.95548 0.000353868 -8.07214e-08)
(1.95589 -4.53084e-05 -8.0936e-06)
(2.03379 -0.000270641 -3.59549e-09)
(2.03418 -5.54158e-05 -7.9505e-06)
(2.11315 0.000380299 -7.66311e-08)
(2.11353 -4.42414e-05 -7.80408e-06)
(2.19399 -0.000296054 -1.63177e-09)
(2.19436 -5.74599e-05 -7.69274e-06)
(2.27691 0.000406391 -7.1053e-08)
(2.27728 -4.27529e-05 -7.5747e-06)
(2.3626 -0.000320925 -4.73283e-19)
(2.36296 -5.99308e-05 -7.48874e-06)
(2.45164 0.000463607 -2.243e-07)
(2.45199 -4.07926e-05 -7.35812e-06)
(2.54446 -0.000409399 0)
(2.54481 -6.29904e-05 -7.33422e-06)
(2.64125 0.00065294 -7.37157e-07)
(2.64159 -3.82916e-05 -7.10695e-06)
(2.742 -0.000701322 -3.35789e-19)
(2.74234 -6.67055e-05 -7.23355e-06)
(2.84657 0.000983395 -9.64997e-07)
(2.84691 -3.51713e-05 -6.98354e-06)
(2.95484 -0.00107395 -1.16484e-21)
(2.95517 -7.10578e-05 -7.18772e-06)
(3.0669 0.00132096 -8.11678e-07)
(3.06723 -3.14298e-05 -7.00622e-06)
(3.18329 -0.00137901 -3.02775e-18)
(3.18362 -7.59913e-05 -7.19025e-06)
(3.30514 0.00155399 -4.37725e-07)
(3.30548 -2.70799e-05 -7.12408e-06)
(3.43417 -0.00153986 0)
(3.43452 -8.14821e-05 -7.23016e-06)
(3.57246 0.00168539 -2.7369e-07)
(3.57281 -2.2133e-05 -7.22111e-06)
(3.72209 -0.00164019 1.11771e-34)
(3.72244 -8.7606e-05 -7.30016e-06)
(3.88479 0.00180146 -3.61149e-07)
(3.88515 -1.65151e-05 -7.28528e-06)
(4.06177 -0.00177076 -4.56558e-21)
(4.06214 -9.44673e-05 -7.40045e-06)
(4.25368 0.00225402 -2.27954e-06)
(4.25405 -1.01382e-05 -6.9394e-06)
(4.4607 -0.00255239 -3.4371e-21)
(4.46107 -0.000101659 -7.55084e-06)
(4.68243 0.00288807 -1.47479e-06)
(4.6828 -3.10472e-06 -7.34192e-06)
(4.91735 -0.00303902 -3.85076e-08)
(4.9177 -0.000108783 -7.78155e-06)
(5.16183 0.00322634 -7.58252e-07)
(5.16216 3.85217e-06 -7.88025e-06)
(5.40879 -0.003225 -1.66707e-07)
(5.40908 -0.000115851 -8.20695e-06)
(5.64621 0.00344514 -1.39415e-06)
(5.64645 9.349e-06 -8.43279e-06)
(5.85639 -0.00347769 -4.00239e-07)
(5.85655 -0.000123356 -9.04194e-06)
(6.0162 0.0037418 -2.23119e-06)
(6.01626 1.23204e-05 -9.47293e-06)
(6.0992 -0.00382528 -6.4074e-07)
(6.09913 -0.000130506 -1.04413e-05)
(6.07935 0.00411979 -2.71321e-06)
(6.07914 1.35178e-05 -1.10643e-05)
(5.93583 -0.00424076 -6.89779e-07)
(5.93544 -0.000134483 -1.22351e-05)
(5.65764 0.00452614 -2.29866e-06)
(5.65705 1.44151e-05 -1.28905e-05)
(5.2468 -0.00463619 -4.36681e-07)
(5.246 -0.000133417 -1.39029e-05)
(4.71905 0.00487466 -1.09429e-06)
(4.71801 1.45123e-05 -1.43872e-05)
(4.10178 -0.00492681 -2.79197e-18)
(4.1005 -0.000128728 -1.49506e-05)
(3.42978 0.00511718 -4.91915e-08)
(3.42825 1.1511e-05 -1.5166e-05)
(2.74014 -0.00497034 -1.19168e-06)
(2.73837 -0.00012304 -1.50252e-05)
(2.06746 0.00511124 -3.41466e-07)
(2.06549 4.7415e-06 -1.50721e-05)
(1.44038 -0.00494311 -1.85619e-06)
(1.43826 -0.000117556 -1.47106e-05)
(0.879873 0.00506184 -4.32173e-07)
(0.877689 -4.14744e-06 -1.47193e-05)
(0.39917 -0.0048992 -1.92908e-06)
(0.397036 -0.000112164 -1.43552e-05)
(0.00479283 0.00501956 -4.06829e-07)
(0.0028452 -1.30199e-05 -1.44056e-05)
(-0.301891 -0.000186948 -4.60517e-06)
(-0.303511 -0.000106898 -9.42956e-07)
(-0.523099 0.000268975 -4.62518e-07)
(-0.524321 -1.97431e-05 -7.84123e-07)
(-0.663417 -0.000106708 -1.07072e-06)
(-0.664218 -0.000101125 -7.46904e-07)
(-0.728919 0.000199513 -3.43602e-07)
(-0.729303 -2.53084e-05 -5.96323e-07)
(-0.726619 -4.56183e-05 -8.17587e-07)
(-0.726601 -9.59474e-05 -5.61575e-07)
(-0.664112 0.000147724 -2.52683e-07)
(-0.663714 -3.01017e-05 -4.27449e-07)
(-0.549298 -3.0553e-06 -5.75598e-07)
(-0.548548 -9.1469e-05 -3.97538e-07)
(-0.390085 0.000112981 -1.73008e-07)
(-0.389017 -3.42435e-05 -2.80316e-07)
(-0.194131 2.38438e-05 -3.67091e-07)
(-0.192797 -8.76126e-05 -2.57087e-07)
(0.0314001 9.22669e-05 -1.05912e-07)
(0.03292 -3.78571e-05 -1.57988e-07)
(0.280071 3.82789e-05 -1.99733e-07)
(0.281663 -8.42193e-05 -1.45919e-07)
(0.546254 8.22444e-05 -5.45137e-08)
(0.547825 -4.09196e-05 -6.7555e-08)
(0.825131 4.40174e-05 -7.91915e-08)
(0.826615 -8.12268e-05 -6.56388e-08)
(1.11257 7.98472e-05 -5.59056e-08)
(1.11393 -4.35249e-05 -1.10041e-09)
(1.40491 4.34953e-05 -6.56495e-08)
(1.40612 -7.86043e-05 -6.44758e-08)
(1.69869 7.90363e-05 -8.11723e-08)
(1.69975 -4.57752e-05 -8.18751e-08)
(1.99043 4.59027e-05 -1.6352e-07)
(1.99134 -7.63498e-05 -1.6233e-07)
(2.27639 7.68798e-05 -2.07372e-07)
(2.27717 -4.77823e-05 -2.07902e-07)
(2.55254 4.79283e-05 -3.15103e-07)
(2.55319 -7.4459e-05 -3.13866e-07)
(2.81449 7.49069e-05 -3.88468e-07)
(2.81504 -4.96202e-05 -3.88818e-07)
(3.05772 4.96014e-05 -5.15166e-07)
(3.05818 -7.29067e-05 -5.13873e-07)
(3.27776 7.30965e-05 -6.02587e-07)
(3.27813 -5.13074e-05 -6.02753e-07)
(3.47055 5.1024e-05 -7.26903e-07)
(3.47085 -7.15921e-05 -7.25549e-07)
(3.6328 7.14883e-05 -8.02588e-07)
(3.63303 -5.28039e-05 -8.02577e-07)
(3.76228 5.22778e-05 -8.97341e-07)
(3.76245 -7.0434e-05 -8.95932e-07)