/*--------------------------------*- C++ -*----------------------------------*\
| =========                 |                                                 |
| \\      /  F ield         | OpenFOAM: The Open Source CFD Toolbox           |
|  \\    /   O peration     | Version:  2106                                  |
|   \\  /    A nd           | Website:  www.openfoam.com                      |
|    \\/     M anipulation  |                                                 |
\*---------------------------------------------------------------------------*/
FoamFile
{
    version     2.0;
    format      ascii;
    arch        "LSB;label=32;scalar=64";
    class       volScalarField;
    location    "4000";
    object      nut;
}
// * * * * * * * * * * * * * * * * * * * * * * * * * * * * * * * * * * * * * //

dimensions      [0 2 -1 0 0 0 0];

internalField   nonuniform List<scalar> 
2560
(
1.4005e-14
1.4005e-14
1.18206e-14
1.18206e-14
1.0415e-14
1.0415e-14
9.4813e-15
9.4813e-15
8.86897e-15
8.86897e-15
8.5686e-15
8.5686e-15
8.7012e-15
8.7012e-15
9.53708e-15
9.53708e-15
1.15361e-14
1.15361e-14
1.5405e-14
1.5405e-14
2.21697e-14
2.21697e-14
3.3265e-14
3.3265e-14
5.06406e-14
5.06406e-14
7.68882e-14
7.68882e-14
1.15391e-13
1.15391e-13
1.70497e-13
1.70497e-13
2.47727e-13
2.47727e-13
3.54006e-13
3.54006e-13
4.97942e-13
4.97942e-13
6.90139e-13
6.90139e-13
9.43562e-13
9.43562e-13
1.27396e-12
1.27396e-12
1.70033e-12
1.70033e-12
2.24548e-12
2.24548e-12
2.93663e-12
2.93663e-12
3.80617e-12
3.80617e-12
4.89237e-12
4.89237e-12
6.24039e-12
6.24039e-12
7.90326e-12
7.90326e-12
9.94302e-12
9.94302e-12
1.24321e-11
1.24321e-11
1.54547e-11
1.54547e-11
1.91085e-11
1.91085e-11
2.35067e-11
2.35067e-11
2.87796e-11
2.87796e-11
3.50775e-11
3.50775e-11
4.25729e-11
4.25729e-11
5.14637e-11
5.14637e-11
6.19761e-11
6.19761e-11
7.43686e-11
7.43686e-11
8.89356e-11
8.89356e-11
1.06012e-10
1.06012e-10
1.25978e-10
1.25978e-10
1.49266e-10
1.49266e-10
1.76362e-10
1.76362e-10
2.07818e-10
2.07818e-10
2.44258e-10
2.44258e-10
2.8638e-10
2.8638e-10
3.34974e-10
3.34974e-10
3.90926e-10
3.90926e-10
4.55227e-10
4.55227e-10
5.28991e-10
5.28991e-10
6.13462e-10
6.13462e-10
7.10028e-10
7.10028e-10
8.20241e-10
8.20241e-10
9.45826e-10
9.45826e-10
1.08871e-09
1.08871e-09
1.25101e-09
1.25101e-09
1.43512e-09
1.43512e-09
1.64364e-09
1.64364e-09
1.87949e-09
1.87949e-09
2.14588e-09
2.14588e-09
2.44634e-09
2.44634e-09
2.7848e-09
2.7848e-09
3.16555e-09
3.16555e-09
3.59333e-09
3.59333e-09
4.07334e-09
4.07334e-09
4.61127e-09
4.61127e-09
5.21339e-09
5.21339e-09
5.88654e-09
5.88654e-09
6.63819e-09
6.63819e-09
7.47651e-09
7.47651e-09
8.4104e-09
8.4104e-09
9.44955e-09
9.44955e-09
1.06045e-08
1.06045e-08
1.18868e-08
1.18868e-08
1.33087e-08
1.33087e-08
1.48838e-08
1.48838e-08
1.66268e-08
1.66268e-08
1.85532e-08
1.85532e-08
2.06803e-08
2.06803e-08
2.30264e-08
2.30264e-08
2.56113e-08
2.56113e-08
2.84564e-08
2.84564e-08
3.15846e-08
3.15846e-08
3.50205e-08
3.50205e-08
3.87906e-08
3.87906e-08
4.29232e-08
4.29232e-08
4.74488e-08
4.74488e-08
5.23997e-08
5.23997e-08
5.78106e-08
5.78106e-08
6.37187e-08
6.37187e-08
7.01633e-08
7.01633e-08
7.71867e-08
7.71867e-08
8.48335e-08
8.48335e-08
9.31516e-08
9.31516e-08
1.02191e-07
1.02191e-07
1.12007e-07
1.12007e-07
1.22655e-07
1.22655e-07
1.34196e-07
1.34196e-07
1.46695e-07
1.46695e-07
1.60219e-07
1.60219e-07
1.74839e-07
1.74839e-07
1.90633e-07
1.90633e-07
2.07678e-07
2.07678e-07
2.26062e-07
2.26062e-07
2.45871e-07
2.45871e-07
2.67201e-07
2.67201e-07
2.90151e-07
2.90151e-07
3.14824e-07
3.14824e-07
3.4133e-07
3.4133e-07
3.69785e-07
3.69785e-07
4.0031e-07
4.0031e-07
4.33032e-07
4.33032e-07
4.68085e-07
4.68085e-07
5.0561e-07
5.0561e-07
5.45753e-07
5.45753e-07
5.88668e-07
5.88668e-07
6.34518e-07
6.34518e-07
6.83471e-07
6.83471e-07
7.35706e-07
7.35706e-07
7.91406e-07
7.91406e-07
8.50767e-07
8.50767e-07
9.13991e-07
9.13991e-07
9.81289e-07
9.81289e-07
1.05288e-06
1.05288e-06
1.129e-06
1.129e-06
1.20989e-06
1.20989e-06
1.2958e-06
1.2958e-06
1.38698e-06
1.38698e-06
1.48372e-06
1.48372e-06
1.5863e-06
1.5863e-06
1.69501e-06
1.69501e-06
1.81015e-06
1.81015e-06
1.93206e-06
1.93206e-06
2.06105e-06
2.06105e-06
2.19748e-06
2.19748e-06
2.34171e-06
2.34171e-06
2.49409e-06
2.49409e-06
2.65502e-06
2.65502e-06
2.8249e-06
2.8249e-06
3.00413e-06
3.00413e-06
3.19315e-06
3.19315e-06
3.39239e-06
3.39239e-06
3.60231e-06
3.60231e-06
3.82338e-06
3.82338e-06
4.05608e-06
4.05608e-06
4.30091e-06
4.30091e-06
4.55839e-06
4.55839e-06
4.82905e-06
4.82905e-06
5.11342e-06
5.11342e-06
5.41207e-06
5.41207e-06
5.72558e-06
5.72558e-06
6.05452e-06
6.05452e-06
6.3995e-06
6.3995e-06
6.76115e-06
6.76115e-06
7.14008e-06
7.14008e-06
7.53695e-06
7.53695e-06
7.9524e-06
7.9524e-06
8.38711e-06
8.38711e-06
8.84176e-06
8.84176e-06
9.31704e-06
9.31704e-06
9.81366e-06
9.81366e-06
1.03323e-05
1.03323e-05
1.08738e-05
1.08738e-05
1.14387e-05
1.14387e-05
1.20279e-05
1.20279e-05
1.2642e-05
1.2642e-05
1.32819e-05
1.32819e-05
1.39482e-05
1.39482e-05
1.46418e-05
1.46418e-05
1.53635e-05
1.53635e-05
1.61138e-05
1.61138e-05
1.68937e-05
1.68937e-05
1.77038e-05
1.77038e-05
1.8545e-05
1.8545e-05
1.9418e-05
1.9418e-05
2.03234e-05
2.03234e-05
2.12622e-05
2.12622e-05
2.22348e-05
2.22348e-05
2.32422e-05
2.32422e-05
2.4285e-05
2.4285e-05
2.53638e-05
2.53638e-05
2.64794e-05
2.64794e-05
2.76323e-05
2.76323e-05
2.88233e-05
2.88233e-05
3.0053e-05
3.0053e-05
3.13219e-05
3.13219e-05
3.26306e-05
3.26306e-05
3.39797e-05
3.39797e-05
3.53697e-05
3.53697e-05
3.68011e-05
3.68011e-05
3.82744e-05
3.82744e-05
3.979e-05
3.979e-05
4.13484e-05
4.13484e-05
4.29499e-05
4.29499e-05
4.4595e-05
4.4595e-05
4.62839e-05
4.62839e-05
4.8017e-05
4.8017e-05
4.97946e-05
4.97946e-05
5.1617e-05
5.1617e-05
5.34843e-05
5.34843e-05
5.53968e-05
5.53968e-05
5.73548e-05
5.73548e-05
5.93583e-05
5.93583e-05
6.14076e-05
6.14076e-05
6.35027e-05
6.35027e-05
6.56439e-05
6.56439e-05
6.78312e-05
6.78312e-05
7.00648e-05
7.00648e-05
7.23447e-05
7.23447e-05
7.4671e-05
7.4671e-05
7.7044e-05
7.7044e-05
7.94637e-05
7.94637e-05
8.19303e-05
8.19303e-05
8.44438e-05
8.44438e-05
8.70046e-05
8.70046e-05
8.96129e-05
8.96129e-05
9.22688e-05
9.22688e-05
9.49728e-05
9.49728e-05
9.77252e-05
9.77252e-05
0.000100526
0.000100526
0.000103377
0.000103377
0.000106277
0.000106277
0.000109228
0.000109228
0.000112231
0.000112231
0.000115286
0.000115286
0.000118394
0.000118394
0.000121557
0.000121557
0.000124776
0.000124776
0.000128052
0.000128052
0.000131388
0.000131388
0.000134784
0.000134784
0.000138244
0.000138244
0.00014177
0.00014177
0.000145365
0.000145365
0.00014903
0.00014903
0.000152771
0.000152771
0.00015659
0.00015659
0.000160492
0.000160492
0.000164481
0.000164481
0.000168563
0.000168563
0.000172742
0.000172742
0.000177024
0.000177024
0.000181417
0.000181417
0.000185927
0.000185927
0.000190563
0.000190563
0.000195333
0.000195333
0.000200246
0.000200246
0.000205313
0.000205313
0.000210546
0.000210546
0.000215955
0.000215955
0.000221555
0.000221555
0.00022736
0.00022736
0.000233385
0.000233385
0.000239648
0.000239648
0.000246166
0.000246166
0.000252961
0.000252961
0.000260052
0.000260052
0.000267462
0.000267462
0.000275217
0.000275217
0.000283343
0.000283343
0.000291867
0.000291867
0.00030082
0.00030082
0.000310234
0.000310234
0.000320141
0.000320141
0.000330577
0.000330577
0.000341579
0.000341579
0.000353185
0.000353185
0.000365436
0.000365436
0.000378372
0.000378372
0.000392036
0.000392035
0.000406468
0.000406468
0.000421712
0.000421712
0.00043781
0.00043781
0.000454802
0.000454802
0.000472729
0.000472729
0.000491625
0.000491625
0.000511527
0.000511527
0.000532463
0.000532463
0.00055446
0.00055446
0.000577538
0.000577538
0.00060171
0.00060171
0.000626985
0.000626984
0.00065336
0.00065336
0.000680829
0.000680829
0.000709373
0.000709373
0.000738966
0.000738966
0.000769571
0.000769571
0.000801144
0.000801144
0.000833627
0.000833627
0.000866956
0.000866956
0.000901055
0.000901055
0.000935839
0.000935839
0.000971214
0.000971214
0.00100708
0.00100708
0.00104331
0.00104331
0.00107981
0.00107981
0.00111643
0.00111643
0.00115304
0.00115304
0.00118951
0.00118951
0.00122569
0.00122569
0.00126142
0.00126142
0.00129655
0.00129655
0.00133092
0.00133092
0.00136436
0.00136436
0.00139672
0.00139672
0.00142781
0.00142781
0.00145748
0.00145748
0.00148556
0.00148556
0.00151186
0.00151186
0.00153624
0.00153624
0.00155851
0.00155851
0.00157852
0.00157852
0.0015961
0.0015961
0.00161111
0.00161111
0.00162338
0.00162338
0.00163279
0.00163279
0.00163918
0.00163918
0.00164245
0.00164245
1.4005e-14
1.4005e-14
1.18206e-14
1.18206e-14
1.0415e-14
1.0415e-14
9.4813e-15
9.4813e-15
8.86897e-15
8.86897e-15
8.5686e-15
8.5686e-15
8.7012e-15
8.7012e-15
9.53708e-15
9.53708e-15
1.15361e-14
1.15361e-14
1.5405e-14
1.5405e-14
2.21697e-14
2.21697e-14
3.3265e-14
3.3265e-14
5.06406e-14
5.06406e-14
7.68882e-14
7.68882e-14
1.15391e-13
1.15391e-13
1.70497e-13
1.70497e-13
2.47727e-13
2.47727e-13
3.54006e-13
3.54006e-13
4.97942e-13
4.97942e-13
6.90139e-13
6.90139e-13
9.43562e-13
9.43562e-13
1.27396e-12
1.27396e-12
1.70033e-12
1.70033e-12
2.24548e-12
2.24548e-12
2.93663e-12
2.93663e-12
3.80617e-12
3.80617e-12
4.89237e-12
4.89237e-12
6.24039e-12
6.24039e-12
7.90326e-12
7.90326e-12
9.94302e-12
9.94302e-12
1.24321e-11
1.24321e-11
1.54547e-11
1.54547e-11
1.91085e-11
1.91085e-11
2.35067e-11
2.35067e-11
2.87796e-11
2.87796e-11
3.50775e-11
3.50775e-11
4.25729e-11
4.25729e-11
5.14637e-11
5.14637e-11
6.19761e-11
6.19761e-11
7.43686e-11
7.43686e-11
8.89356e-11
8.89356e-11
1.06012e-10
1.06012e-10
1.25978e-10
1.25978e-10
1.49266e-10
1.49266e-10
1.76362e-10
1.76362e-10
2.07818e-10
2.07818e-10
2.44258e-10
2.44258e-10
2.8638e-10
2.8638e-10
3.34974e-10
3.34974e-10
3.90926e-10
3.90926e-10
4.55227e-10
4.55227e-10
5.28991e-10
5.28991e-10
6.13462e-10
6.13462e-10
7.10028e-10
7.10028e-10
8.20241e-10
8.20241e-10
9.45826e-10
9.45826e-10
1.08871e-09
1.08871e-09
1.25101e-09
1.25101e-09
1.43512e-09
1.43512e-09
1.64364e-09
1.64364e-09
1.87949e-09
1.87949e-09
2.14588e-09
2.14588e-09
2.44634e-09
2.44634e-09
2.7848e-09
2.7848e-09
3.16555e-09
3.16555e-09
3.59333e-09
3.59333e-09
4.07334e-09
4.07334e-09
4.61127e-09
4.61127e-09
5.21339e-09
5.21339e-09
5.88654e-09
5.88654e-09
6.63819e-09
6.63819e-09
7.47651e-09
7.47651e-09
8.4104e-09
8.4104e-09
9.44955e-09
9.44955e-09
1.06045e-08
1.06045e-08
1.18868e-08
1.18868e-08
1.33087e-08
1.33087e-08
1.48838e-08
1.48838e-08
1.66268e-08
1.66268e-08
1.85532e-08
1.85532e-08
2.06803e-08
2.06803e-08
2.30264e-08
2.30264e-08
2.56113e-08
2.56113e-08
2.84564e-08
2.84564e-08
3.15846e-08
3.15846e-08
3.50205e-08
3.50205e-08
3.87906e-08
3.87906e-08
4.29232e-08
4.29232e-08
4.74488e-08
4.74488e-08
5.23997e-08
5.23997e-08
5.78106e-08
5.78106e-08
6.37187e-08
6.37187e-08
7.01633e-08
7.01633e-08
7.71867e-08
7.71867e-08
8.48335e-08
8.48335e-08
9.31516e-08
9.31516e-08
1.02191e-07
1.02191e-07
1.12007e-07
1.12007e-07
1.22655e-07
1.22655e-07
1.34196e-07
1.34196e-07
1.46695e-07
1.46695e-07
1.60219e-07
1.60219e-07
1.74839e-07
1.74839e-07
1.90633e-07
1.90633e-07
2.07678e-07
2.07678e-07
2.26062e-07
2.26062e-07
2.45871e-07
2.45871e-07
2.67201e-07
2.67201e-07
2.90151e-07
2.90151e-07
3.14824e-07
3.14824e-07
3.4133e-07
3.4133e-07
3.69785e-07
3.69785e-07
4.0031e-07
4.0031e-07
4.33032e-07
4.33032e-07
4.68085e-07
4.68085e-07
5.0561e-07
5.0561e-07
5.45753e-07
5.45753e-07
5.88668e-07
5.88668e-07
6.34518e-07
6.34518e-07
6.83471e-07
6.83471e-07
7.35706e-07
7.35706e-07
7.91406e-07
7.91406e-07
8.50767e-07
8.50767e-07
9.13991e-07
9.13991e-07
9.81289e-07
9.81289e-07
1.05288e-06
1.05288e-06
1.129e-06
1.129e-06
1.20989e-06
1.20989e-06
1.2958e-06
1.2958e-06
1.38698e-06
1.38698e-06
1.48372e-06
1.48372e-06
1.5863e-06
1.5863e-06
1.69501e-06
1.69501e-06
1.81015e-06
1.81015e-06
1.93206e-06
1.93206e-06
2.06105e-06
2.06105e-06
2.19748e-06
2.19748e-06
2.34171e-06
2.34171e-06
2.49409e-06
2.49409e-06
2.65502e-06
2.65502e-06
2.8249e-06
2.8249e-06
3.00413e-06
3.00413e-06
3.19315e-06
3.19315e-06
3.39239e-06
3.39239e-06
3.60231e-06
3.60231e-06
3.82338e-06
3.82338e-06
4.05608e-06
4.05608e-06
4.30091e-06
4.30091e-06
4.55839e-06
4.55839e-06
4.82905e-06
4.82905e-06
5.11342e-06
5.11342e-06
5.41207e-06
5.41207e-06
5.72558e-06
5.72558e-06
6.05452e-06
6.05452e-06
6.3995e-06
6.3995e-06
6.76115e-06
6.76115e-06
7.14008e-06
7.14008e-06
7.53695e-06
7.53695e-06
7.9524e-06
7.9524e-06
8.38711e-06
8.38711e-06
8.84176e-06
8.84176e-06
9.31704e-06
9.31704e-06
9.81366e-06
9.81366e-06
1.03323e-05
1.03323e-05
1.08738e-05
1.08738e-05
1.14387e-05
1.14387e-05
1.20279e-05
1.20279e-05
1.2642e-05
1.2642e-05
1.32819e-05
1.32819e-05
1.39482e-05
1.39482e-05
1.46418e-05
1.46418e-05
1.53635e-05
1.53635e-05
1.61138e-05
1.61138e-05
1.68937e-05
1.68937e-05
1.77038e-05
1.77038e-05
1.8545e-05
1.8545e-05
1.9418e-05
1.9418e-05
2.03234e-05
2.03234e-05
2.12622e-05
2.12622e-05
2.22348e-05
2.22348e-05
2.32422e-05
2.32422e-05
2.4285e-05
2.4285e-05
2.53638e-05
2.53638e-05
2.64794e-05
2.64794e-05
2.76323e-05
2.76323e-05
2.88233e-05
2.88233e-05
3.0053e-05
3.0053e-05
3.13219e-05
3.13219e-05
3.26306e-05
3.26306e-05
3.39797e-05
3.39797e-05
3.53697e-05
3.53697e-05
3.68011e-05
3.68011e-05
3.82744e-05
3.82744e-05
3.979e-05
3.979e-05
4.13484e-05
4.13484e-05
4.29499e-05
4.29499e-05
4.4595e-05
4.4595e-05
4.62839e-05
4.62839e-05
4.8017e-05
4.8017e-05
4.97946e-05
4.97946e-05
5.1617e-05
5.1617e-05
5.34843e-05
5.34843e-05
5.53968e-05
5.53968e-05
5.73548e-05
5.73548e-05
5.93583e-05
5.93583e-05
6.14076e-05
6.14076e-05
6.35027e-05
6.35027e-05
6.56439e-05
6.56439e-05
6.78312e-05
6.78312e-05
7.00647e-05
7.00647e-05
7.23447e-05
7.23447e-05
7.4671e-05
7.4671e-05
7.7044e-05
7.7044e-05
7.94637e-05
7.94637e-05
8.19303e-05
8.19303e-05
8.44438e-05
8.44438e-05
8.70046e-05
8.70046e-05
8.96129e-05
8.96129e-05
9.22688e-05
9.22688e-05
9.49728e-05
9.49728e-05
9.77251e-05
9.77251e-05
0.000100526
0.000100526
0.000103377
0.000103377
0.000106277
0.000106277
0.000109228
0.000109228
0.000112231
0.000112231
0.000115286
0.000115286
0.000118394
0.000118394
0.000121557
0.000121557
0.000124776
0.000124776
0.000128052
0.000128052
0.000131388
0.000131388
0.000134784
0.000134784
0.000138244
0.000138244
0.00014177
0.00014177
0.000145365
0.000145364
0.00014903
0.00014903
0.000152771
0.000152771
0.00015659
0.00015659
0.000160492
0.000160492
0.000164481
0.000164481
0.000168563
0.000168563
0.000172742
0.000172742
0.000177024
0.000177024
0.000181417
0.000181417
0.000185927
0.000185927
0.000190563
0.000190563
0.000195333
0.000195333
0.000200246
0.000200246
0.000205313
0.000205313
0.000210546
0.000210546
0.000215955
0.000215955
0.000221555
0.000221555
0.00022736
0.00022736
0.000233385
0.000233385
0.000239648
0.000239648
0.000246166
0.000246166
0.000252961
0.000252961
0.000260052
0.000260052
0.000267462
0.000267462
0.000275217
0.000275217
0.000283343
0.000283343
0.000291867
0.000291867
0.00030082
0.00030082
0.000310233
0.000310233
0.00032014
0.00032014
0.000330577
0.000330576
0.000341579
0.000341579
0.000353185
0.000353185
0.000365436
0.000365436
0.000378372
0.000378372
0.000392035
0.000392035
0.000406468
0.000406468
0.000421712
0.000421712
0.00043781
0.00043781
0.000454802
0.000454802
0.000472728
0.000472728
0.000491625
0.000491625
0.000511527
0.000511527
0.000532463
0.000532463
0.00055446
0.00055446
0.000577538
0.000577538
0.00060171
0.00060171
0.000626984
0.000626984
0.00065336
0.00065336
0.000680828
0.000680828
0.000709372
0.000709372
0.000738965
0.000738965
0.000769571
0.000769571
0.000801143
0.000801143
0.000833627
0.000833627
0.000866956
0.000866956
0.000901055
0.000901055
0.000935839
0.000935839
0.000971213
0.000971213
0.00100707
0.00100707
0.00104331
0.00104331
0.00107981
0.00107981
0.00111643
0.00111643
0.00115304
0.00115304
0.00118951
0.00118951
0.00122569
0.00122569
0.00126142
0.00126142
0.00129655
0.00129655
0.00133092
0.00133092
0.00136436
0.00136436
0.00139672
0.00139672
0.00142781
0.00142781
0.00145748
0.00145748
0.00148556
0.00148556
0.00151186
0.00151186
0.00153624
0.00153624
0.00155851
0.00155851
0.00157852
0.00157852
0.0015961
0.0015961
0.00161111
0.00161111
0.00162338
0.00162338
0.00163279
0.00163279
0.00163918
0.00163918
0.00164245
0.00164244
0.00164245
0.00164245
0.00163919
0.00163919
0.0016328
0.0016328
0.0016234
0.0016234
0.00161113
0.00161113
0.00159613
0.00159613
0.00157855
0.00157855
0.00155854
0.00155854
0.00153628
0.00153628
0.00151191
0.00151191
0.0014856
0.0014856
0.00145753
0.00145753
0.00142787
0.00142787
0.00139677
0.00139677
0.00136442
0.00136442
0.00133098
0.00133098
0.00129661
0.00129661
0.00126148
0.00126148
0.00122575
0.00122575
0.00118958
0.00118958
0.00115311
0.00115311
0.00111649
0.00111649
0.00107987
0.00107987
0.00104338
0.00104338
0.00100714
0.00100714
0.00097128
0.00097128
0.000935905
0.000935905
0.00090112
0.00090112
0.00086702
0.00086702
0.00083369
0.00083369
0.000801205
0.000801205
0.000769631
0.000769631
0.000739024
0.000739024
0.000709429
0.000709429
0.000680883
0.000680883
0.000653413
0.000653413
0.000627035
0.000627035
0.000601759
0.000601759
0.000577585
0.000577585
0.000554505
0.000554505
0.000532506
0.000532506
0.000511568
0.000511568
0.000491664
0.000491664
0.000472766
0.000472766
0.000454838
0.000454838
0.000437844
0.000437844
0.000421744
0.000421744
0.000406498
0.000406498
0.000392064
0.000392064
0.0003784
0.000378399
0.000365462
0.000365462
0.00035321
0.00035321
0.000341602
0.000341602
0.000330599
0.000330599
0.000320161
0.000320161
0.000310253
0.000310253
0.000300839
0.000300839
0.000291885
0.000291885
0.00028336
0.00028336
0.000275233
0.000275233
0.000267478
0.000267477
0.000260066
0.000260066
0.000252974
0.000252974
0.000246179
0.000246179
0.00023966
0.00023966
0.000233397
0.000233397
0.000227371
0.000227371
0.000221566
0.000221566
0.000215965
0.000215965
0.000210555
0.000210555
0.000205323
0.000205323
0.000200255
0.000200255
0.000195342
0.000195342
0.000190571
0.000190571
0.000185935
0.000185935
0.000181425
0.000181425
0.000177031
0.000177031
0.000172749
0.000172749
0.000168569
0.000168569
0.000164488
0.000164488
0.000160499
0.000160498
0.000156596
0.000156596
0.000152777
0.000152777
0.000149036
0.000149036
0.00014537
0.00014537
0.000141775
0.000141775
0.000138249
0.000138249
0.000134789
0.000134789
0.000131392
0.000131392
0.000128057
0.000128057
0.00012478
0.00012478
0.000121561
0.000121561
0.000118398
0.000118398
0.00011529
0.00011529
0.000112235
0.000112235
0.000109232
0.000109232
0.000106281
0.000106281
0.00010338
0.00010338
0.00010053
0.00010053
9.77285e-05
9.77285e-05
9.49761e-05
9.49761e-05
9.2272e-05
9.2272e-05
8.9616e-05
8.9616e-05
8.70076e-05
8.70076e-05
8.44467e-05
8.44467e-05
8.19331e-05
8.19331e-05
7.94664e-05
7.94664e-05
7.70467e-05
7.70467e-05
7.46736e-05
7.46736e-05
7.23472e-05
7.23472e-05
7.00672e-05
7.00672e-05
6.78335e-05
6.78335e-05
6.56462e-05
6.56462e-05
6.35049e-05
6.35049e-05
6.14097e-05
6.14097e-05
5.93604e-05
5.93604e-05
5.73568e-05
5.73568e-05
5.53988e-05
5.53988e-05
5.34862e-05
5.34862e-05
5.16188e-05
5.16188e-05
4.97964e-05
4.97964e-05
4.80187e-05
4.80187e-05
4.62855e-05
4.62855e-05
4.45965e-05
4.45965e-05
4.29514e-05
4.29514e-05
4.13498e-05
4.13498e-05
3.97914e-05
3.97914e-05
3.82757e-05
3.82757e-05
3.68024e-05
3.68024e-05
3.5371e-05
3.5371e-05
3.39809e-05
3.39809e-05
3.26318e-05
3.26318e-05
3.1323e-05
3.1323e-05
3.00541e-05
3.00541e-05
2.88244e-05
2.88244e-05
2.76333e-05
2.76333e-05
2.64803e-05
2.64803e-05
2.53647e-05
2.53647e-05
2.42859e-05
2.42859e-05
2.32431e-05
2.32431e-05
2.22357e-05
2.22357e-05
2.12629e-05
2.12629e-05
2.03242e-05
2.03242e-05
1.94187e-05
1.94187e-05
1.85457e-05
1.85457e-05
1.77045e-05
1.77045e-05
1.68943e-05
1.68943e-05
1.61144e-05
1.61144e-05
1.5364e-05
1.5364e-05
1.46424e-05
1.46424e-05
1.39488e-05
1.39488e-05
1.32824e-05
1.32824e-05
1.26425e-05
1.26425e-05
1.20283e-05
1.20283e-05
1.14391e-05
1.14391e-05
1.08742e-05
1.08742e-05
1.03327e-05
1.03327e-05
9.81404e-06
9.81404e-06
9.3174e-06
9.3174e-06
8.8421e-06
8.8421e-06
8.38744e-06
8.38744e-06
7.95271e-06
7.95271e-06
7.53724e-06
7.53724e-06
7.14036e-06
7.14036e-06
6.76141e-06
6.76141e-06
6.39975e-06
6.39975e-06
6.05475e-06
6.05475e-06
5.7258e-06
5.7258e-06
5.41228e-06
5.41228e-06
5.11362e-06
5.11362e-06
4.82923e-06
4.82923e-06
4.55857e-06
4.55857e-06
4.30108e-06
4.30108e-06
4.05624e-06
4.05624e-06
3.82353e-06
3.82353e-06
3.60245e-06
3.60245e-06
3.39252e-06
3.39252e-06
3.19327e-06
3.19327e-06
3.00425e-06
3.00425e-06
2.82501e-06
2.82501e-06
2.65513e-06
2.65513e-06
2.49419e-06
2.49419e-06
2.3418e-06
2.3418e-06
2.19757e-06
2.19757e-06
2.06113e-06
2.06113e-06
1.93213e-06
1.93213e-06
1.81022e-06
1.81022e-06
1.69507e-06
1.69507e-06
1.58636e-06
1.58636e-06
1.48378e-06
1.48378e-06
1.38704e-06
1.38704e-06
1.29585e-06
1.29585e-06
1.20994e-06
1.20994e-06
1.12905e-06
1.12905e-06
1.05292e-06
1.05292e-06
9.81327e-07
9.81327e-07
9.14026e-07
9.14026e-07
8.508e-07
8.508e-07
7.91437e-07
7.91437e-07
7.35734e-07
7.35734e-07
6.83498e-07
6.83498e-07
6.34542e-07
6.34542e-07
5.88691e-07
5.88691e-07
5.45773e-07
5.45773e-07
5.05629e-07
5.05629e-07
4.68103e-07
4.68103e-07
4.33049e-07
4.33049e-07
4.00325e-07
4.00325e-07
3.69799e-07
3.69799e-07
3.41343e-07
3.41343e-07
3.14836e-07
3.14836e-07
2.90162e-07
2.90162e-07
2.67211e-07
2.67211e-07
2.45881e-07
2.45881e-07
2.2607e-07
2.2607e-07
2.07686e-07
2.07686e-07
1.9064e-07
1.9064e-07
1.74846e-07
1.74846e-07
1.60225e-07
1.60225e-07
1.46701e-07
1.46701e-07
1.34201e-07
1.34201e-07
1.2266e-07
1.2266e-07
1.12011e-07
1.12011e-07
1.02195e-07
1.02195e-07
9.3155e-08
9.3155e-08
8.48367e-08
8.48367e-08
7.71895e-08
7.71895e-08
7.01659e-08
7.01659e-08
6.3721e-08
6.3721e-08
5.78128e-08
5.78128e-08
5.24016e-08
5.24016e-08
4.74505e-08
4.74505e-08
4.29248e-08
4.29248e-08
3.8792e-08
3.8792e-08
3.50218e-08
3.50218e-08
3.15857e-08
3.15857e-08
2.84574e-08
2.84574e-08
2.56123e-08
2.56123e-08
2.30273e-08
2.30273e-08
2.06811e-08
2.06811e-08
1.85539e-08
1.85539e-08
1.66274e-08
1.66274e-08
1.48844e-08
1.48844e-08
1.33092e-08
1.33092e-08
1.18872e-08
1.18872e-08
1.06049e-08
1.06049e-08
9.44989e-09
9.44989e-09
8.4107e-09
8.4107e-09
7.47677e-09
7.47677e-09
6.63843e-09
6.63843e-09
5.88675e-09
5.88675e-09
5.21358e-09
5.21358e-09
4.61144e-09
4.61144e-09
4.07348e-09
4.07348e-09
3.59346e-09
3.59346e-09
3.16566e-09
3.16566e-09
2.7849e-09
2.7849e-09
2.44643e-09
2.44643e-09
2.14595e-09
2.14595e-09
1.87956e-09
1.87956e-09
1.6437e-09
1.6437e-09
1.43517e-09
1.43517e-09
1.25106e-09
1.25106e-09
1.08874e-09
1.08874e-09
9.45859e-10
9.45859e-10
8.20269e-10
8.20269e-10
7.10053e-10
7.10053e-10
6.13483e-10
6.13483e-10
5.2901e-10
5.2901e-10
4.55243e-10
4.55243e-10
3.90939e-10
3.90939e-10
3.34986e-10
3.34986e-10
2.8639e-10
2.8639e-10
2.44266e-10
2.44266e-10
2.07826e-10
2.07826e-10
1.76368e-10
1.76368e-10
1.49271e-10
1.49271e-10
1.25983e-10
1.25983e-10
1.06016e-10
1.06016e-10
8.89386e-11
8.89386e-11
7.43712e-11
7.43712e-11
6.19782e-11
6.19782e-11
5.14654e-11
5.14654e-11
4.25743e-11
4.25743e-11
3.50787e-11
3.50787e-11
2.87806e-11
2.87806e-11
2.35075e-11
2.35075e-11
1.91092e-11
1.91092e-11
1.54552e-11
1.54552e-11
1.24325e-11
1.24325e-11
9.94335e-12
9.94335e-12
7.90352e-12
7.90352e-12
6.2406e-12
6.2406e-12
4.89253e-12
4.89253e-12
3.80629e-12
3.80629e-12
2.93673e-12
2.93673e-12
2.24555e-12
2.24555e-12
1.70038e-12
1.70038e-12
1.274e-12
1.274e-12
9.43593e-13
9.43593e-13
6.90161e-13
6.90161e-13
4.97958e-13
4.97958e-13
3.54018e-13
3.54018e-13
2.47735e-13
2.47735e-13
1.70503e-13
1.70503e-13
1.15394e-13
1.15394e-13
7.68904e-14
7.68904e-14
5.0642e-14
5.0642e-14
3.32658e-14
3.32658e-14
2.21701e-14
2.21701e-14
1.54051e-14
1.54051e-14
1.15362e-14
1.15362e-14
9.53705e-15
9.53705e-15
8.70113e-15
8.70113e-15
8.56851e-15
8.56851e-15
8.86886e-15
8.86886e-15
9.48118e-15
9.48118e-15
1.04149e-14
1.04149e-14
1.18204e-14
1.18204e-14
1.40048e-14
1.40048e-14
0.00164245
0.00164245
0.00163919
0.00163919
0.0016328
0.0016328
0.0016234
0.0016234
0.00161113
0.00161113
0.00159613
0.00159613
0.00157855
0.00157855
0.00155854
0.00155854
0.00153628
0.00153628
0.00151191
0.00151191
0.0014856
0.0014856
0.00145753
0.00145753
0.00142787
0.00142787
0.00139677
0.00139677
0.00136442
0.00136442
0.00133098
0.00133098
0.00129661
0.00129661
0.00126148
0.00126148
0.00122575
0.00122575
0.00118958
0.00118958
0.00115311
0.00115311
0.00111649
0.00111649
0.00107987
0.00107987
0.00104338
0.00104338
0.00100714
0.00100714
0.00097128
0.00097128
0.000935904
0.000935904
0.00090112
0.00090112
0.00086702
0.00086702
0.00083369
0.000833689
0.000801205
0.000801204
0.000769631
0.00076963
0.000739023
0.000739023
0.000709429
0.000709429
0.000680883
0.000680883
0.000653412
0.000653412
0.000627035
0.000627035
0.000601759
0.000601759
0.000577584
0.000577584
0.000554505
0.000554505
0.000532506
0.000532506
0.000511568
0.000511568
0.000491664
0.000491664
0.000472765
0.000472765
0.000454838
0.000454838
0.000437844
0.000437843
0.000421744
0.000421744
0.000406498
0.000406498
0.000392064
0.000392064
0.000378399
0.000378399
0.000365462
0.000365462
0.00035321
0.00035321
0.000341602
0.000341602
0.000330598
0.000330598
0.000320161
0.000320161
0.000310253
0.000310253
0.000300839
0.000300839
0.000291885
0.000291885
0.00028336
0.00028336
0.000275233
0.000275233
0.000267477
0.000267477
0.000260066
0.000260066
0.000252974
0.000252974
0.000246179
0.000246179
0.00023966
0.00023966
0.000233397
0.000233397
0.000227371
0.000227371
0.000221565
0.000221565
0.000215965
0.000215965
0.000210555
0.000210555
0.000205323
0.000205323
0.000200255
0.000200255
0.000195342
0.000195342
0.000190571
0.000190571
0.000185935
0.000185935
0.000181425
0.000181425
0.000177031
0.000177031
0.000172749
0.000172749
0.000168569
0.000168569
0.000164488
0.000164488
0.000160498
0.000160498
0.000156596
0.000156596
0.000152777
0.000152777
0.000149036
0.000149036
0.00014537
0.00014537
0.000141775
0.000141775
0.000138249
0.000138249
0.000134789
0.000134789
0.000131392
0.000131392
0.000128057
0.000128057
0.00012478
0.00012478
0.000121561
0.000121561
0.000118398
0.000118398
0.00011529
0.00011529
0.000112235
0.000112235
0.000109232
0.000109232
0.000106281
0.000106281
0.00010338
0.00010338
0.00010053
0.00010053
9.77285e-05
9.77285e-05
9.49761e-05
9.49761e-05
9.2272e-05
9.2272e-05
8.9616e-05
8.9616e-05
8.70076e-05
8.70076e-05
8.44467e-05
8.44467e-05
8.19331e-05
8.19331e-05
7.94664e-05
7.94664e-05
7.70467e-05
7.70467e-05
7.46736e-05
7.46736e-05
7.23472e-05
7.23472e-05
7.00672e-05
7.00672e-05
6.78335e-05
6.78335e-05
6.56462e-05
6.56462e-05
6.35049e-05
6.35049e-05
6.14097e-05
6.14097e-05
5.93604e-05
5.93604e-05
5.73568e-05
5.73568e-05
5.53988e-05
5.53988e-05
5.34862e-05
5.34862e-05
5.16188e-05
5.16188e-05
4.97964e-05
4.97964e-05
4.80187e-05
4.80187e-05
4.62855e-05
4.62855e-05
4.45965e-05
4.45965e-05
4.29514e-05
4.29514e-05
4.13498e-05
4.13498e-05
3.97914e-05
3.97914e-05
3.82757e-05
3.82757e-05
3.68024e-05
3.68024e-05
3.5371e-05
3.5371e-05
3.39809e-05
3.39809e-05
3.26318e-05
3.26318e-05
3.1323e-05
3.1323e-05
3.00541e-05
3.00541e-05
2.88244e-05
2.88244e-05
2.76333e-05
2.76333e-05
2.64803e-05
2.64803e-05
2.53647e-05
2.53647e-05
2.42859e-05
2.42859e-05
2.32431e-05
2.32431e-05
2.22357e-05
2.22357e-05
2.12629e-05
2.12629e-05
2.03242e-05
2.03242e-05
1.94187e-05
1.94187e-05
1.85457e-05
1.85457e-05
1.77045e-05
1.77045e-05
1.68943e-05
1.68943e-05
1.61144e-05
1.61144e-05
1.5364e-05
1.5364e-05
1.46424e-05
1.46424e-05
1.39488e-05
1.39488e-05
1.32824e-05
1.32824e-05
1.26425e-05
1.26425e-05
1.20283e-05
1.20283e-05
1.14391e-05
1.14391e-05
1.08742e-05
1.08742e-05
1.03327e-05
1.03327e-05
9.81404e-06
9.81404e-06
9.3174e-06
9.3174e-06
8.8421e-06
8.8421e-06
8.38744e-06
8.38744e-06
7.95271e-06
7.95271e-06
7.53724e-06
7.53724e-06
7.14036e-06
7.14036e-06
6.76141e-06
6.76141e-06
6.39975e-06
6.39975e-06
6.05475e-06
6.05475e-06
5.7258e-06
5.7258e-06
5.41228e-06
5.41228e-06
5.11362e-06
5.11362e-06
4.82923e-06
4.82923e-06
4.55857e-06
4.55857e-06
4.30108e-06
4.30108e-06
4.05624e-06
4.05624e-06
3.82353e-06
3.82353e-06
3.60245e-06
3.60245e-06
3.39252e-06
3.39252e-06
3.19327e-06
3.19327e-06
3.00425e-06
3.00425e-06
2.82501e-06
2.82501e-06
2.65513e-06
2.65513e-06
2.49419e-06
2.49419e-06
2.3418e-06
2.3418e-06
2.19757e-06
2.19757e-06
2.06113e-06
2.06113e-06
1.93213e-06
1.93213e-06
1.81022e-06
1.81022e-06
1.69507e-06
1.69507e-06
1.58636e-06
1.58636e-06
1.48378e-06
1.48378e-06
1.38704e-06
1.38704e-06
1.29585e-06
1.29585e-06
1.20994e-06
1.20994e-06
1.12905e-06
1.12905e-06
1.05292e-06
1.05292e-06
9.81327e-07
9.81327e-07
9.14026e-07
9.14026e-07
8.508e-07
8.508e-07
7.91437e-07
7.91437e-07
7.35734e-07
7.35734e-07
6.83498e-07
6.83498e-07
6.34542e-07
6.34542e-07
5.88691e-07
5.88691e-07
5.45773e-07
5.45773e-07
5.05629e-07
5.05629e-07
4.68103e-07
4.68103e-07
4.33049e-07
4.33049e-07
4.00325e-07
4.00325e-07
3.69799e-07
3.69799e-07
3.41343e-07
3.41343e-07
3.14836e-07
3.14836e-07
2.90162e-07
2.90162e-07
2.67211e-07
2.67211e-07
2.45881e-07
2.45881e-07
2.2607e-07
2.2607e-07
2.07686e-07
2.07686e-07
1.9064e-07
1.9064e-07
1.74846e-07
1.74846e-07
1.60225e-07
1.60225e-07
1.46701e-07
1.46701e-07
1.34201e-07
1.34201e-07
1.2266e-07
1.2266e-07
1.12011e-07
1.12011e-07
1.02195e-07
1.02195e-07
9.3155e-08
9.3155e-08
8.48367e-08
8.48367e-08
7.71895e-08
7.71895e-08
7.01659e-08
7.01659e-08
6.3721e-08
6.3721e-08
5.78128e-08
5.78128e-08
5.24016e-08
5.24016e-08
4.74505e-08
4.74505e-08
4.29248e-08
4.29248e-08
3.8792e-08
3.8792e-08
3.50218e-08
3.50218e-08
3.15857e-08
3.15857e-08
2.84574e-08
2.84574e-08
2.56123e-08
2.56123e-08
2.30273e-08
2.30273e-08
2.06811e-08
2.06811e-08
1.85539e-08
1.85539e-08
1.66274e-08
1.66274e-08
1.48844e-08
1.48844e-08
1.33092e-08
1.33092e-08
1.18872e-08
1.18872e-08
1.06049e-08
1.06049e-08
9.44989e-09
9.44989e-09
8.4107e-09
8.4107e-09
7.47677e-09
7.47677e-09
6.63843e-09
6.63843e-09
5.88675e-09
5.88675e-09
5.21358e-09
5.21358e-09
4.61144e-09
4.61144e-09
4.07348e-09
4.07348e-09
3.59346e-09
3.59346e-09
3.16566e-09
3.16566e-09
2.7849e-09
2.7849e-09
2.44643e-09
2.44643e-09
2.14595e-09
2.14595e-09
1.87956e-09
1.87956e-09
1.6437e-09
1.6437e-09
1.43517e-09
1.43517e-09
1.25106e-09
1.25106e-09
1.08874e-09
1.08874e-09
9.45859e-10
9.45859e-10
8.20269e-10
8.20269e-10
7.10053e-10
7.10053e-10
6.13483e-10
6.13483e-10
5.2901e-10
5.2901e-10
4.55243e-10
4.55243e-10
3.90939e-10
3.90939e-10
3.34986e-10
3.34986e-10
2.8639e-10
2.8639e-10
2.44266e-10
2.44266e-10
2.07826e-10