/*--------------------------------*- C++ -*----------------------------------*\
| =========                 |                                                 |
| \\      /  F ield         | OpenFOAM: The Open Source CFD Toolbox           |
|  \\    /   O peration     | Version:  2106                                  |
|   \\  /    A nd           | Website:  www.openfoam.com                      |
|    \\/     M anipulation  |                                                 |
\*---------------------------------------------------------------------------*/
FoamFile
{
    version     2.0;
    format      ascii;
    arch        "LSB;label=32;scalar=64";
    class       surfaceScalarField;
    location    "4000";
    object      phi;
}
// * * * * * * * * * * * * * * * * * * * * * * * * * * * * * * * * * * * * * //

dimensions      [0 3 -1 0 0 0 0];

oriented        oriented;

internalField   nonuniform List<scalar> 
5116
(
1.09812e-08
-6.47244e-18
1.69437e-22
2.65961e-22
2.99986e-23
3.35804e-08
-6.4752e-18
9.77337e-22
1.92147e-21
1.3309e-22
5.71574e-08
-6.47803e-18
9.97182e-22
3.61402e-21
1.38916e-22
8.17398e-08
-6.4809e-18
1.00939e-21
5.30556e-21
1.44956e-22
1.07356e-07
-6.48381e-18
1.02442e-21
7.00946e-21
1.51213e-22
1.34035e-07
-6.48672e-18
1.04194e-21
8.72564e-21
1.57693e-22
1.61806e-07
-6.48966e-18
1.06027e-21
1.04299e-20
1.64402e-22
1.90699e-07
-6.49266e-18
1.07881e-21
1.22286e-20
1.71344e-22
2.20745e-07
-6.49577e-18
1.09743e-21
1.4027e-20
1.78525e-22
2.51975e-07
-6.49892e-18
1.11612e-21
1.58442e-20
1.8595e-22
2.84421e-07
-6.50213e-18
1.13486e-21
1.76705e-20
1.93626e-22
3.18116e-07
-6.50539e-18
1.15365e-21
1.95083e-20
2.01558e-22
3.53092e-07
-6.50873e-18
1.1725e-21
2.13748e-20
2.09751e-22
3.89383e-07
-6.51194e-18
1.19139e-21
2.32571e-20
2.18212e-22
4.27023e-07
-6.51522e-18
1.21034e-21
2.50431e-20
2.26946e-22
4.66049e-07
-6.51852e-18
1.22932e-21
2.68808e-20
2.35962e-22
5.06495e-07
-6.52186e-18
1.24834e-21
2.87808e-20
2.45265e-22
5.48397e-07
-6.52526e-18
1.26738e-21
3.06923e-20
2.54859e-22
5.91793e-07
-6.52886e-18
1.28643e-21
3.2655e-20
2.64748e-22
6.36721e-07
-6.53236e-18
1.30549e-21
3.46393e-20
2.74941e-22
6.83218e-07
-6.53588e-18
1.32454e-21
3.66596e-20
2.85438e-22
7.31324e-07
-6.53952e-18
1.34356e-21
3.87635e-20
2.96253e-22
7.81079e-07
-6.54345e-18
1.36254e-21
4.09165e-20
3.07389e-22
8.32523e-07
-6.54729e-18
1.38147e-21
4.29483e-20
3.1885e-22
8.85697e-07
-6.55101e-18
1.40033e-21
4.49888e-20
3.30644e-22
9.40644e-07
-6.55477e-18
1.4191e-21
4.69654e-20
3.42775e-22
9.97405e-07
-6.55899e-18
1.43776e-21
4.94795e-20
3.55251e-22
1.05603e-06
-6.56306e-18
1.4563e-21
5.17618e-20
3.68065e-22
1.11655e-06
-6.5669e-18
1.4747e-21
5.4062e-20
3.81227e-22
1.17902e-06
-6.57079e-18
1.49295e-21
5.63583e-20
3.9474e-22
1.24348e-06
-6.57502e-18
1.51103e-21
5.86756e-20
4.08602e-22
1.30998e-06
-6.57927e-18
1.52893e-21
6.09251e-20
4.22807e-22
1.37858e-06
-6.58359e-18
1.54662e-21
6.31145e-20
4.37365e-22
1.4493e-06
-6.588e-18
1.5641e-21
6.54566e-20
4.52279e-22
1.52221e-06
-6.59228e-18
1.58134e-21
6.77165e-20
4.67561e-22
1.59735e-06
-6.59643e-18
1.59831e-21
6.97412e-20
4.832e-22
1.67478e-06
-6.6007e-18
1.615e-21
7.20481e-20
4.99213e-22
1.75454e-06
-6.60516e-18
1.6314e-21
7.40297e-20
5.15579e-22
1.83669e-06
-6.60909e-18
1.64749e-21
7.62863e-20
5.32331e-22
1.92128e-06
-6.61358e-18
1.66322e-21
7.88608e-20
5.49464e-22
2.00836e-06
-6.61802e-18
1.6786e-21
8.12744e-20
5.66955e-22
2.09799e-06
-6.6225e-18
1.69361e-21
8.3542e-20
5.84812e-22
2.19023e-06
-6.62673e-18
1.70822e-21
8.54884e-20
6.03054e-22
2.28513e-06
-6.63105e-18
1.72239e-21
8.78431e-20
6.21669e-22
2.38274e-06
-6.63574e-18
1.7361e-21
9.01377e-20
6.40631e-22
2.48314e-06
-6.64014e-18
1.74934e-21
9.26603e-20
6.59963e-22
2.58636e-06
-6.64455e-18
1.76208e-21
9.48785e-20
6.79642e-22
2.69249e-06
-6.64903e-18
1.7743e-21
9.70059e-20
6.99666e-22
2.80156e-06
-6.65381e-18
1.78594e-21
9.91626e-20
7.20041e-22
2.91366e-06
-6.6585e-18
1.79702e-21
1.01194e-19
7.40742e-22
3.02884e-06
-6.66281e-18
1.80752e-21
1.03095e-19
7.61779e-22
3.14716e-06
-6.66729e-18
1.81742e-21
1.05274e-19
7.83144e-22
3.26869e-06
-6.67201e-18
1.82669e-21
1.07162e-19
8.04813e-22
3.3935e-06
-6.67631e-18
1.83534e-21
1.08751e-19
8.26803e-22
3.52165e-06
-6.68049e-18
1.84331e-21
1.09944e-19
8.49115e-22
3.65321e-06
-6.6854e-18
1.85056e-21
1.11859e-19
8.71769e-22
3.78824e-06
-6.69025e-18
1.85712e-21
1.13122e-19
8.94728e-22
3.92682e-06
-6.6949e-18
1.86296e-21
1.14529e-19
9.17978e-22
4.06902e-06
-6.69955e-18
1.86802e-21
1.15793e-19
9.41546e-22
4.21491e-06
-6.70407e-18
1.87232e-21
1.17687e-19
9.65414e-22
4.36456e-06
-6.70792e-18
1.87582e-21
1.18448e-19
9.89509e-22
4.51805e-06
-6.71217e-18
1.87849e-21
1.20573e-19
1.01385e-21
4.67545e-06
-6.71626e-18
1.88038e-21
1.21726e-19
1.03829e-21
4.83684e-06
-6.72041e-18
1.88145e-21
1.22772e-19
1.06291e-21
5.00229e-06
-6.72413e-18
1.88168e-21
1.24042e-19
1.08772e-21
5.17188e-06
-6.72826e-18
1.88091e-21
1.24626e-19
1.11261e-21
5.34569e-06
-6.73342e-18
1.87932e-21
1.26404e-19
1.13763e-21
5.5238e-06
-6.73713e-18
1.87689e-21
1.26726e-19
1.16267e-21
5.7063e-06
-6.74115e-18
1.87342e-21
1.28432e-19
1.18788e-21
5.89326e-06
-6.74333e-18
1.86901e-21
1.27872e-19
1.21319e-21
6.08476e-06
-6.746e-18
1.8635e-21
1.27534e-19
1.2387e-21
6.2809e-06
-6.74966e-18
1.85689e-21
1.27963e-19
1.26443e-21
6.48176e-06
-6.75277e-18
1.84913e-21
1.27611e-19
1.29036e-21
6.68743e-06
-6.75793e-18
1.84025e-21
1.28499e-19
1.31654e-21
6.89799e-06
-6.76164e-18
1.83041e-21
1.30072e-19
1.34289e-21
7.11354e-06
-6.76408e-18
1.81942e-21
1.30323e-19
1.36925e-21
7.33416e-06
-6.76875e-18
1.80726e-21
1.31646e-19
1.39562e-21
7.55994e-06
-6.77275e-18
1.79406e-21
1.32134e-19
1.42186e-21
7.79099e-06
-6.77808e-18
1.7798e-21
1.31118e-19
1.44817e-21
8.02739e-06
-6.78143e-18
1.76477e-21
1.31973e-19
1.47452e-21
8.26925e-06
-6.7862e-18
1.74865e-21
1.32891e-19
1.50066e-21
8.51665e-06
-6.79054e-18
1.73182e-21
1.32393e-19
1.5265e-21
8.76969e-06
-6.79317e-18
1.71447e-21
1.30005e-19
1.55195e-21
9.02849e-06
-6.7947e-18
1.69624e-21
1.27293e-19
1.57738e-21
9.29313e-06
-6.79712e-18
1.67728e-21
1.25856e-19
1.60277e-21
9.56372e-06
-6.80082e-18
1.65776e-21
1.24126e-19
1.62801e-21
9.84036e-06
-6.80311e-18
1.63767e-21
1.21994e-19
1.65306e-21
1.01232e-05
-6.80465e-18
1.61693e-21
1.18325e-19
1.6781e-21
1.04122e-05
-6.80469e-18
1.59527e-21
1.15143e-19
1.70329e-21
1.07077e-05
-6.80676e-18
1.57233e-21
1.14076e-19
1.72856e-21
1.10096e-05
-6.80771e-18
1.54826e-21
1.11512e-19
1.75376e-21
1.13181e-05
-6.81053e-18
1.52314e-21
1.1124e-19
1.77868e-21
1.16333e-05
-6.81368e-18
1.49708e-21
1.12353e-19
1.8034e-21
1.19554e-05
-6.81815e-18
1.47039e-21
1.14087e-19
1.82783e-21
1.22844e-05
-6.82173e-18
1.44296e-21
1.12395e-19
1.85149e-21
1.26204e-05
-6.82334e-18
1.4148e-21
1.12491e-19
1.87453e-21
1.29636e-05
-6.82399e-18
1.38602e-21
1.10844e-19
1.897e-21
1.33141e-05
-6.82647e-18
1.35615e-21
1.08341e-19
1.91988e-21
1.3672e-05
-6.82909e-18
1.32564e-21
1.05435e-19
1.94275e-21
1.40375e-05
-6.82655e-18
1.29436e-21
1.02918e-19
1.96535e-21
1.44106e-05
-6.82587e-18
1.26192e-21
9.95202e-20
1.98776e-21
1.47915e-05
-6.81982e-18
1.22934e-21
9.15433e-20
2.00969e-21
1.51803e-05
-6.81993e-18
1.1956e-21
8.96833e-20
2.03156e-21
1.55771e-05
-6.82028e-18
1.16134e-21
8.59458e-20
2.05317e-21
1.59822e-05
-6.82076e-18
1.12687e-21
8.11692e-20
2.07467e-21
1.63955e-05
-6.81911e-18
1.09204e-21
7.57246e-20
2.09607e-21
1.68173e-05
-6.81569e-18
1.05786e-21
7.21185e-20
2.11674e-21
1.72477e-05
-6.81384e-18
1.02366e-21
6.46303e-20
2.13573e-21
1.76869e-05
-6.8124e-18
9.88327e-22
6.10365e-20
2.15479e-21
1.81348e-05
-6.81315e-18
9.5187e-22
5.75523e-20
2.17371e-21
1.85918e-05
-6.81413e-18
9.14917e-22
5.78673e-20
2.19286e-21
1.9058e-05
-6.80934e-18
8.76551e-22
5.30646e-20
2.21224e-21
1.95334e-05
-6.81413e-18
8.36608e-22
4.70416e-20
2.23243e-21
2.00183e-05
-6.81168e-18
7.95645e-22
4.44967e-20
2.25513e-21
2.05128e-05
-6.80924e-18
7.53455e-22
3.73601e-20
2.27943e-21
2.1017e-05
-6.8036e-18
7.09793e-22
2.84673e-20
2.30632e-21
2.15312e-05
-6.79691e-18
6.62923e-22
2.2112e-20
2.33743e-21
2.20554e-05
-6.78782e-18
6.13806e-22
1.32277e-20
2.37164e-21
2.25899e-05
-6.77978e-18
5.62336e-22
8.19066e-22
2.4099e-21
2.31347e-05
-6.77945e-18
5.08836e-22
-3.53678e-21
2.45321e-21
2.369e-05
-6.77322e-18
4.55415e-22
-8.39839e-21
2.49791e-21
2.42561e-05
-6.77151e-18
4.00413e-22
-1.4079e-20
2.54501e-21
2.48331e-05
-6.76459e-18
3.45627e-22
-1.9277e-20
2.5939e-21
2.54211e-05
-6.75877e-18
2.878e-22
-2.58094e-20
2.64588e-21
2.60204e-05
-6.75198e-18
2.27449e-22
-3.67824e-20
2.70161e-21
2.6631e-05
-6.74255e-18
1.63674e-22
-4.58027e-20
2.76286e-21
2.72532e-05
-6.72855e-18
9.77536e-23
-5.8979e-20
2.8274e-21
2.78872e-05
-6.71884e-18
2.75479e-23
-6.58116e-20
2.8957e-21
2.85331e-05
-6.71128e-18
-4.47465e-23
-6.74995e-20
2.9685e-21
2.91911e-05
-6.70575e-18
-1.1961e-22
-7.65134e-20
3.0413e-21
2.98614e-05
-6.6961e-18
-1.9562e-22
-8.62872e-20
3.11755e-21
3.05442e-05
-6.69244e-18
-2.74066e-22
-9.24417e-20
3.20025e-21
3.12397e-05
-6.68606e-18
-3.54855e-22
-1.03854e-19
3.28583e-21
3.19481e-05
-6.66737e-18
-4.363e-22
-1.12867e-19
3.37569e-21
3.26696e-05
-6.64982e-18
-5.27429e-22
-1.34914e-19
3.47111e-21
3.34043e-05
-6.6506e-18
-6.28634e-22
-1.45605e-19
3.57552e-21
3.41525e-05
-6.64262e-18
-7.28998e-22
-1.53586e-19
3.6815e-21
3.49144e-05
-6.64328e-18
-8.33461e-22
-1.66489e-19
3.78505e-21
3.56902e-05
-6.62952e-18
-9.36549e-22
-1.82385e-19
3.89059e-21
3.64801e-05
-6.61712e-18
-1.04568e-21
-1.99765e-19
3.99809e-21
3.72843e-05
-6.60958e-18
-1.16404e-21
-2.05512e-19
4.1088e-21
3.8103e-05
-6.59181e-18
-1.28321e-21
-2.16239e-19
4.21746e-21
3.89365e-05
-6.57418e-18
-1.41219e-21
-2.31563e-19
4.33226e-21
3.9785e-05
-6.55904e-18
-1.5474e-21
-2.48013e-19
4.45326e-21
4.06486e-05
-6.54177e-18
-1.68839e-21
-2.76408e-19
4.58564e-21
4.15277e-05
-6.52958e-18
-1.83616e-21
-2.85287e-19
4.73487e-21
4.24224e-05
-6.51781e-18
-1.98451e-21
-2.98152e-19
4.88508e-21
4.3333e-05
-6.49445e-18
-2.13636e-21
-3.16042e-19
5.03536e-21
4.42598e-05
-6.48843e-18
-2.29791e-21
-3.36119e-19
5.18509e-21
4.52028e-05
-6.46421e-18
-2.45508e-21
-3.62711e-19
5.33319e-21
4.61625e-05
-6.44659e-18
-2.61882e-21
-3.90122e-19
5.48322e-21
4.7139e-05
-6.4189e-18
-2.79088e-21
-4.20367e-19
5.64014e-21
4.81327e-05
-6.40482e-18
-2.97643e-21
-4.38914e-19
5.80776e-21
4.91436e-05
-6.37646e-18
-3.1643e-21
-4.56566e-19
5.97568e-21
5.01722e-05
-6.35549e-18
-3.35788e-21
-4.82909e-19
6.14726e-21
5.12186e-05
-6.34018e-18
-3.55704e-21
-5.03519e-19
6.31828e-21
5.22831e-05
-6.32044e-18
-3.75076e-21
-5.34006e-19
6.48087e-21
5.3366e-05
-6.29139e-18
-3.93136e-21
-5.63542e-19
6.64314e-21
5.44676e-05
-6.2398e-18
-4.11097e-21
-6.17533e-19
6.79627e-21
5.5588e-05
-6.19707e-18
-4.31575e-21
-6.53936e-19
6.96178e-21
5.67277e-05
-6.1588e-18
-4.53598e-21
-6.82641e-19
7.13518e-21
5.78868e-05
-6.14344e-18
-4.76718e-21
-7.15094e-19
7.31674e-21
5.90656e-05
-6.13089e-18
-4.99993e-21
-7.45503e-19
7.50066e-21
6.02645e-05
-6.10062e-18
-5.21792e-21
-7.84083e-19
7.66897e-21
6.14837e-05
-6.07679e-18
-5.45078e-21
-8.34359e-19
7.84035e-21
6.27234e-05
-6.05813e-18
-5.67125e-21
-8.70382e-19
8.00724e-21
6.39841e-05
-6.02917e-18
-5.88145e-21
-9.23175e-19
8.15211e-21
6.52659e-05
-5.98932e-18
-6.08528e-21
-9.72513e-19
8.29764e-21
6.65692e-05
-5.93773e-18
-6.28424e-21
-1.02368e-18
8.44919e-21
6.78943e-05
-5.90568e-18
-6.49811e-21
-1.06567e-18
8.60375e-21
6.92415e-05
-5.85508e-18
-6.70915e-21
-1.12249e-18
8.75179e-21
7.06111e-05
-5.80834e-18
-6.90678e-21
-1.16811e-18
8.90956e-21
7.20033e-05
-5.77511e-18
-7.10529e-21
-1.19921e-18
9.06273e-21
7.34186e-05
-5.74623e-18
-7.27873e-21
-1.22871e-18
9.18995e-21
7.48572e-05
-5.70431e-18
-7.42892e-21
-1.27369e-18
9.28615e-21
7.63195e-05
-5.66649e-18
-7.58287e-21
-1.30983e-18
9.41159e-21
7.78057e-05
-5.62417e-18
-7.75293e-21
-1.35424e-18
9.55375e-21
7.93163e-05
-5.58754e-18
-7.91341e-21
-1.38828e-18
9.67761e-21
8.08514e-05
-5.534e-18
-8.06825e-21
-1.44217e-18
9.81945e-21
8.24115e-05
-5.48047e-18
-8.23806e-21
-1.49097e-18
1.00003e-20
8.3997e-05
-5.44027e-18
-8.42563e-21
-1.54055e-18
1.01801e-20
8.56081e-05
-5.39946e-18
-8.59386e-21
-1.5883e-18
1.03263e-20
8.72451e-05
-5.3578e-18
-8.73992e-21
-1.62407e-18
1.04412e-20
8.89085e-05
-5.31559e-18
-8.88976e-21
-1.67091e-18
1.04983e-20
9.05986e-05
-5.28519e-18
-9.01705e-21
-1.71988e-18
1.05415e-20
9.23157e-05
-5.23842e-18
-9.16813e-21
-1.75314e-18
1.05704e-20
9.40601e-05
-5.1877e-18
-9.33171e-21
-1.79798e-18
1.05454e-20
9.58324e-05
-5.16137e-18
-9.55034e-21
-1.84643e-18
1.04924e-20
9.76327e-05
-5.11459e-18
-9.75788e-21
-1.88407e-18
1.04357e-20
9.94615e-05
-5.06457e-18
-1.00211e-20
-1.93597e-18
1.03144e-20
0.000101319
-5.02676e-18
-1.03055e-20
-1.98412e-18
1.01394e-20
0.000103206
-4.98093e-18
-1.05604e-20
-2.03123e-18
9.93464e-21
0.000105123
-4.9405e-18
-1.07837e-20
-2.07711e-18
9.65962e-21
0.000107069
-4.87524e-18
-1.09249e-20
-2.1528e-18
9.34333e-21
0.000109046
-4.80021e-18
-1.10867e-20
-2.21587e-18
9.04267e-21
0.000111053
-4.75113e-18
-1.12362e-20
-2.26093e-18
8.69814e-21
0.000113092
-4.69032e-18
-1.13523e-20
-2.31812e-18
8.27822e-21
0.000115162
-4.6447e-18
-1.14613e-20
-2.35492e-18
7.8511e-21
0.000117265
-4.58711e-18
-1.15682e-20
-2.40793e-18
7.35862e-21
0.000119399
-4.52122e-18
-1.17359e-20
-2.44492e-18
6.81312e-21
0.000121566
-4.43814e-18
-1.19174e-20
-2.50577e-18
6.21759e-21
0.000123767
-4.37328e-18
-1.21318e-20
-2.54667e-18
5.58264e-21
0.000126001
-4.30762e-18
-1.23069e-20
-2.60098e-18
4.88522e-21
0.000128269
-4.25914e-18
-1.25088e-20
-2.60521e-18
4.2906e-21
0.000130571
-4.21019e-18
-1.26646e-20
-2.6503e-18
3.5661e-21
0.000132908
-4.15562e-18
-1.27843e-20
-2.71907e-18
2.82924e-21
0.000135281
-4.08647e-18
-1.29049e-20
-2.74915e-18
2.10752e-21
0.000137689
-4.01631e-18
-1.30772e-20
-2.8108e-18
1.36021e-21
0.000140134
-3.97717e-18
-1.34236e-20
-2.86158e-18
5.7835e-22
0.000142615
-3.90254e-18
-1.38359e-20
-2.94236e-18
-2.47331e-22
0.000145133
-3.86331e-18
-1.43489e-20
-2.95608e-18
-9.02218e-22
0.000147688
-3.8012e-18
-1.47725e-20
-2.97261e-18
-1.70622e-21
0.000150282
-3.75295e-18
-1.52324e-20
-3.0068e-18
-2.64895e-21
0.000152914
-3.7104e-18
-1.58377e-20
-3.04095e-18
-3.58115e-21
0.000155585
-3.67699e-18
-1.64604e-20
-3.04515e-18
-4.43234e-21
0.000158295
-3.64253e-18
-1.70024e-20
-3.06108e-18
-5.31429e-21
0.000161045
-3.6135e-18
-1.75264e-20
-3.08563e-18
-6.19131e-21
0.000163835
-3.56741e-18
-1.80672e-20
-3.09779e-18
-7.03533e-21
0.000166666
-3.54515e-18
-1.88986e-20
-3.11204e-18
-7.85125e-21
0.000169539
-3.52274e-18
-1.97496e-20
-3.09735e-18
-8.6543e-21
0.000172453
-3.48277e-18
-2.06156e-20
-3.10088e-18
-9.56583e-21
0.00017541
-3.4546e-18
-2.13699e-20
-3.09706e-18
-1.06433e-20
0.000178409
-3.41976e-18
-2.21847e-20
-3.10541e-18
-1.15126e-20
0.000181452
-3.36873e-18
-2.31287e-20
-3.10444e-18
-1.22044e-20
0.000184538
-3.34732e-18
-2.39174e-20
-3.08477e-18
-1.29395e-20
0.000187669
-3.32847e-18
-2.44536e-20
-3.05239e-18
-1.38183e-20
0.000190845
-3.27992e-18
-2.46843e-20
-3.05587e-18
-1.46951e-20
0.000194066
-3.29695e-18
-2.51674e-20
-2.99921e-18
-1.5362e-20
0.000197333
-3.20598e-18
-2.51732e-20
-2.96563e-18
-1.63013e-20
0.000200647
-3.17161e-18
-2.52729e-20
-2.94002e-18
-1.73057e-20
0.000204007
-3.17818e-18
-2.52913e-20
-2.88521e-18
-1.82812e-20
0.000207416
-3.14431e-18
-2.51195e-20
-2.88171e-18
-1.92842e-20
0.000210872
-3.11903e-18
-2.49813e-20
-2.83923e-18
-2.00128e-20
0.000214377
-3.11442e-18
-2.47533e-20
-2.79191e-18
-2.07094e-20
0.000217931
-3.09771e-18
-2.42363e-20
-2.75837e-18
-2.14906e-20
0.000221536
-2.9954e-18
-2.38419e-20
-2.76241e-18
-2.18705e-20
0.00022519
-2.95178e-18
-2.33379e-20
-2.7969e-18
-2.22643e-20
0.000228896
-2.88192e-18
-2.29924e-20
-2.74674e-18
-2.22672e-20
0.000232653
-2.82949e-18
-2.32271e-20
-2.72966e-18
-2.2464e-20
0.000236462
-2.84552e-18
-2.33093e-20
-2.69912e-18
-2.28522e-20
0.000240324
-2.80133e-18
-2.33613e-20
-2.69305e-18
-2.35302e-20
0.00024424
-2.7598e-18
-2.39205e-20
-2.71235e-18
-2.4522e-20
0.000248209
-2.75805e-18
-2.44681e-20
-2.66368e-18
-2.47731e-20
0.000252233
-2.73033e-18
-2.54739e-20
-2.60726e-18
-2.50259e-20
0.000256312
-2.69097e-18
-2.61767e-20
-2.62286e-18
-2.54274e-20
0.000260447
-2.63719e-18
-2.62999e-20
-2.63476e-18
-2.58317e-20
0.000264639
-2.57992e-18
-2.61203e-20
-2.56025e-18
-2.60318e-20
0.000268888
-2.52148e-18
-2.61118e-20
-2.51862e-18
-2.67602e-20
0.000273194
-2.49937e-18
-2.72095e-20
-2.50889e-18
-2.66328e-20
0.000277559
-2.37915e-18
-2.72143e-20
-2.48164e-18
-2.66881e-20
0.000281983
-2.379e-18
-2.79486e-20
-2.44134e-18
-2.6945e-20
0.000286466
-2.32728e-18
-2.83569e-20
-2.36183e-18
-2.72887e-20
0.00029101
-2.30705e-18
-2.93397e-20
-2.3832e-18
-2.80614e-20
0.000295615
-2.26811e-18
-2.99628e-20
-2.31089e-18
-2.85031e-20
0.000300282
-2.3005e-18
-3.05616e-20
-2.25858e-18
-2.91471e-20
0.000305011
-2.25712e-18
-2.95039e-20
-2.22734e-18
-2.95992e-20
0.000309804
-2.27948e-18
-2.8714e-20
-2.16074e-18
-2.89392e-20
0.00031466
-2.20586e-18
-2.66785e-20
-2.19556e-18
-2.85734e-20
0.000319581
-2.21045e-18
-2.48266e-20
-2.04183e-18
-2.6307e-20
0.000324567
-2.17962e-18
-2.22561e-20
-2.06653e-18
-2.67965e-20
0.00032962
-2.1055e-18
-2.03103e-20
-2.0744e-18
-2.75785e-20
0.000334739
-2.09135e-18
-1.94964e-20
-2.05722e-18
-2.76825e-20
0.000339926
-2.06204e-18
-1.96826e-20
-2.06801e-18
-2.75217e-20
0.000345182
-2.0664e-18
-2.03411e-20
-2.07564e-18
-2.75979e-20
0.000350507
-1.97379e-18
-2.00719e-20
-2.09417e-18
-2.61558e-20
0.000355903
-1.92271e-18
-1.99737e-20
-1.92747e-18
-2.46013e-20
0.000361369
-1.94191e-18
-1.94247e-20
-1.95571e-18
-2.56637e-20
0.000366908
-1.88306e-18
-1.7301e-20
-1.88753e-18
-2.44116e-20
0.000372519
-1.83163e-18
-1.76208e-20
-1.92193e-18
-2.19944e-20
0.000378204
-1.85032e-18
-1.88882e-20
-1.85381e-18
-1.87623e-20
0.000383965
-1.86974e-18
-1.92128e-20
-1.83785e-18
-1.73136e-20
0.000389801
-1.82045e-18
-1.82663e-20
-1.81869e-18
-1.75497e-20
0.000395714
-1.80927e-18
-1.9234e-20
-1.83052e-18
-1.75721e-20
0.000401705
-1.79563e-18
-2.00758e-20
-1.7988e-18
-1.68443e-20
0.000407776
-1.87959e-18
-2.16292e-20
-1.70809e-18
-1.69312e-20
0.000413926
-1.83721e-18
-2.041e-20
-1.75818e-18
-1.71983e-20
0.000420159
-1.82595e-18
-1.92077e-20
-1.76879e-18
-1.83961e-20
0.000426474
-1.81651e-18
-1.75798e-20
-1.8097e-18
-1.96995e-20
0.000432874
-1.80555e-18
-1.73406e-20
-1.7871e-18
-1.91185e-20
0.000439359
-1.80805e-18
-1.70389e-20
-1.81194e-18
-1.84538e-20
0.00044593
-1.76739e-18
-1.56499e-20
-1.78545e-18
-1.85245e-20
0.000452591
-1.78317e-18
-1.45946e-20
-1.76223e-18
-1.94702e-20
0.00045934
-1.74996e-18
-1.41921e-20
-1.7371e-18
-2.32315e-20
0.000466182
-1.77418e-18
-1.42249e-20
-1.68372e-18
-2.48966e-20
0.000473115
-1.71564e-18
-1.51222e-20
-1.60649e-18
-2.35198e-20
0.000480144
-1.63539e-18
-1.37652e-20
-1.67191e-18
-2.40566e-20
0.000487268
-1.62678e-18
-1.41271e-20
-1.67546e-18
-2.40242e-20
0.00049449
-1.61461e-18
-1.35227e-20
-1.5647e-18
-2.38902e-20
0.000501811
-1.53471e-18
-1.3099e-20
-1.65763e-18
-2.16472e-20
0.000509234
-1.49557e-18
-1.03124e-20
-1.63404e-18
-1.87518e-20
0.000516759
-1.46651e-18
-1.0268e-20
-1.43779e-18
-1.37749e-20
0.000524389
-1.44479e-18
-1.07188e-20
-1.36789e-18
-1.46742e-20
0.000532125
-1.34437e-18
-1.04617e-20
-1.36491e-18
-1.49661e-20
0.000539969
-1.32499e-18
-1.15052e-20
-1.35309e-18
-1.29662e-20
0.000547923
-1.27008e-18
-1.34038e-20
-1.34387e-18
-1.37966e-20
0.000555989
-1.31498e-18
-1.82735e-20
-1.26245e-18
-1.40344e-20
0.000564169
-1.20814e-18
-2.06403e-20
-1.26169e-18
-2.11562e-20
0.000572464
-1.10322e-18
-2.44025e-20
-1.29616e-18
-1.95083e-20
0.000580877
-1.17106e-18
-3.00116e-20
-1.20063e-18
-1.32085e-20
0.000589409
-1.23193e-18
-2.96019e-20
-1.17366e-18
-1.38795e-20
0.000598062
-1.11859e-18
-2.30985e-20
-1.20309e-18
-1.28387e-20
0.000606839
-1.19851e-18
-1.95979e-20
-1.18906e-18
-1.80442e-21
0.00061574
-1.20996e-18
-9.24592e-21
-1.25276e-18
4.18812e-21
0.000624769
-1.23757e-18
-7.88338e-22
-1.15281e-18
8.32637e-21
0.000633926
-1.26944e-18
3.48707e-21
-1.17522e-18
4.58185e-21
0.000643214
-1.24489e-18
3.40042e-21
-1.19091e-18
3.09784e-21
0.000652634
-1.28429e-18
-4.34011e-21
-1.22864e-18
3.72404e-21
0.000662189
-1.14063e-18
7.84694e-22
-1.09209e-18
-6.23985e-22
0.000671881
-1.13562e-18
-8.18304e-22
-1.08597e-18
-6.74466e-21
0.00068171
-1.08559e-18
4.23347e-21
-1.1627e-18
-7.97742e-21
0.00069168
-1.13931e-18
-1.59789e-21
-1.13303e-18
-7.07361e-22
0.000701791
-1.17115e-18
-3.02619e-21
-1.1553e-18
4.80634e-21
0.000712046
-1.1527e-18
5.07908e-21
-1.11306e-18
7.15023e-21
0.000722446
-9.88131e-19
-4.36087e-22
-1.18589e-18
5.57822e-21
0.000732993
-9.87006e-19
-7.17838e-21
-1.06145e-18
5.59958e-21
0.000743688
-1.02329e-18
-1.72568e-20
-9.81632e-19
-7.79312e-21
0.000754533
-1.01661e-18
-2.69973e-20
-9.94284e-19
-5.86611e-21
0.00076553
-8.40273e-19
-2.60463e-20
-8.46221e-19
-9.12068e-21
0.000776679
-8.87482e-19
-3.46696e-20
-7.98135e-19
-2.27447e-20
0.000787982
-3.70013e-20
-8.15004e-19
-1.8041e-20
-7.92159e-19
1.09812e-08
1.54986e-22
4.44932e-23
3.35804e-08
1.0298e-21
2.70845e-22
5.71574e-08
1.92576e-21
5.14853e-22
8.17398e-08
2.82394e-21
7.61392e-22
1.07356e-07
3.74341e-21
1.02167e-21
1.34035e-07
4.6813e-21
1.27292e-21
1.61806e-07
5.62523e-21
1.56129e-21
1.90699e-07
6.58029e-21
1.83882e-21
2.20745e-07
7.56436e-21
2.12932e-21
2.51975e-07
8.49403e-21
2.49932e-21
2.84421e-07
9.45167e-21
2.8677e-21
3.18116e-07
1.03987e-20
3.14983e-21
3.53092e-07
1.13559e-20
3.51859e-21
3.89383e-07
1.24234e-20
3.82201e-21
4.27023e-07
1.34703e-20
4.23629e-21
4.66049e-07
1.46149e-20
4.72445e-21
5.06495e-07
1.57001e-20
5.04815e-21
5.48397e-07
1.6935e-20
5.39829e-21
5.91793e-07
1.81376e-20
5.83073e-21
6.36721e-07
1.95194e-20
6.00898e-21
6.83218e-07
2.06274e-20
6.6849e-21
7.31324e-07
2.15314e-20
7.30304e-21
7.81079e-07
2.27767e-20
7.87805e-21
8.32523e-07
2.36126e-20
8.48191e-21
8.85697e-07
2.46076e-20
9.22777e-21
9.40644e-07
2.57455e-20
9.94486e-21
9.97405e-07
2.67705e-20
1.03929e-20
1.05603e-06
2.79295e-20
1.09576e-20
1.11655e-06
2.91624e-20
1.1517e-20
1.17902e-06
3.0509e-20
1.20022e-20
1.24348e-06
3.20494e-20
1.23053e-20
1.30998e-06
3.30889e-20
1.29095e-20
1.37858e-06
3.4516e-20
1.32915e-20
1.4493e-06
3.58751e-20
1.4124e-20
1.52221e-06
3.72954e-20
1.46694e-20
1.59735e-06
3.87342e-20
1.5758e-20
1.67478e-06
4.04536e-20
1.58642e-20
1.75454e-06
4.19436e-20
1.66261e-20
1.83669e-06
4.33709e-20
1.74923e-20
1.92128e-06
4.47391e-20
1.81474e-20
2.00836e-06
4.62262e-20
1.86744e-20
2.09799e-06
4.77316e-20
1.96252e-20
2.19023e-06
4.87675e-20
2.05026e-20
2.28513e-06
5.00881e-20
2.1217e-20
2.38274e-06
5.18359e-20
2.25133e-20
2.48314e-06
5.35433e-20
2.36641e-20
2.58636e-06
5.51989e-20
2.45534e-20
2.69249e-06
5.61446e-20
2.58451e-20
2.80156e-06
5.75342e-20
2.68202e-20
2.91366e-06
5.8956e-20
2.80654e-20
3.02884e-06
6.08857e-20
2.92078e-20
3.14716e-06
6.22506e-20
3.00722e-20
3.26869e-06
6.40396e-20
3.1054e-20
3.3935e-06
6.54885e-20
3.25081e-20
3.52165e-06
6.70793e-20
3.42165e-20
3.65321e-06
6.89916e-20
3.52639e-20
3.78824e-06
7.07001e-20
3.60235e-20
3.92682e-06
7.1807e-20
3.77855e-20
4.06902e-06
7.36287e-20
3.89414e-20
4.21491e-06
7.51838e-20
3.99234e-20
4.36456e-06
7.6598e-20
4.13318e-20
4.51805e-06
7.84671e-20
4.23471e-20
4.67545e-06
8.02691e-20
4.40071e-20
4.83684e-06
8.14876e-20
4.55848e-20
5.00229e-06
8.09228e-20
4.65443e-20
5.17188e-06
8.31376e-20
4.82293e-20
5.34569e-06
8.42865e-20
4.99899e-20
5.5238e-06
8.39747e-20
5.26242e-20
5.7063e-06
8.56763e-20
5.4571e-20
5.89326e-06
8.70561e-20
5.60276e-20
6.08476e-06
8.91509e-20
5.79893e-20
6.2809e-06
9.04933e-20
5.97742e-20
6.48176e-06
9.25876e-20
6.12001e-20
6.68743e-06
9.49878e-20
6.30962e-20
6.89799e-06
9.6518e-20
6.45735e-20
7.11354e-06
9.85716e-20
6.56899e-20
7.33416e-06
9.99388e-20
6.72733e-20
7.55994e-06
1.01772e-19
7.03386e-20
7.79099e-06
1.05224e-19
7.17372e-20
8.02739e-06
1.05698e-19
7.26509e-20
8.26925e-06
1.07122e-19
7.49969e-20
8.51665e-06
1.08966e-19
7.63389e-20
8.76969e-06
1.07975e-19
7.95743e-20
9.02849e-06
1.08972e-19
8.21284e-20
9.29313e-06
1.11751e-19
8.45424e-20
9.56372e-06
1.14293e-19
8.6125e-20
9.84036e-06
1.16567e-19
8.94345e-20
1.01232e-05
1.16049e-19
9.28395e-20
1.04122e-05
1.15278e-19
9.49876e-20
1.07077e-05
1.15305e-19
9.81354e-20
1.10096e-05
1.17699e-19
9.87733e-20
1.13181e-05
1.19309e-19
1.00483e-19
1.16333e-05
1.22332e-19
1.03124e-19
1.19554e-05
1.22476e-19
1.05147e-19
1.22844e-05
1.23135e-19
1.04885e-19
1.26204e-05
1.25872e-19
1.04406e-19
1.29636e-05
1.25384e-19
1.08178e-19
1.33141e-05
1.26561e-19
1.09867e-19
1.3672e-05
1.27085e-19
1.12829e-19
1.40375e-05
1.28497e-19
1.17e-19
1.44106e-05
1.32168e-19
1.1784e-19
1.47915e-05
1.34728e-19
1.17352e-19
1.51803e-05
1.34728e-19
1.21046e-19
1.55771e-05
1.35551e-19
1.26146e-19
1.59822e-05
1.36062e-19
1.31014e-19
1.63955e-05
1.42938e-19
1.30831e-19
1.68173e-05
1.47138e-19
1.29106e-19
1.72477e-05
1.4535e-19
1.29898e-19
1.76869e-05
1.44606e-19
1.3003e-19
1.81348e-05
1.44832e-19
1.32572e-19
1.85918e-05
1.40604e-19
1.37147e-19
1.9058e-05
1.4348e-19
1.38793e-19
1.95334e-05
1.39954e-19
1.45882e-19
2.00183e-05
1.41881e-19
1.49207e-19
2.05128e-05
1.41732e-19
1.52316e-19
2.1017e-05
1.37248e-19
1.59522e-19
2.15312e-05
1.39163e-19
1.61606e-19
2.20554e-05
1.41888e-19
1.62793e-19
2.25899e-05
1.42893e-19
1.65432e-19
2.31347e-05
1.44313e-19
1.65556e-19
2.369e-05
1.45273e-19
1.69439e-19
2.42561e-05
1.47133e-19
1.71528e-19
2.48331e-05
1.41633e-19
1.80695e-19
2.54211e-05
1.39618e-19
1.87498e-19
2.60204e-05
1.3994e-19
1.92833e-19
2.6631e-05
1.46323e-19
1.94144e-19
2.72532e-05
1.46704e-19
1.95072e-19
2.78872e-05
1.48633e-19
2.05726e-19
2.85331e-05
1.47345e-19
2.05869e-19
2.91911e-05
1.49026e-19
2.07568e-19
2.98614e-05
1.52117e-19
2.17072e-19
3.05442e-05
1.4908e-19
2.20681e-19
3.12397e-05
1.55462e-19
2.22139e-19
3.19481e-05
1.54401e-19
2.26852e-19
3.26696e-05
1.52136e-19
2.30494e-19
3.34043e-05
1.57289e-19
2.3196e-19
3.41525e-05
1.6029e-19
2.26413e-19
3.49144e-05
1.68501e-19
2.2824e-19
3.56902e-05
1.73996e-19
2.33416e-19
3.64801e-05
1.72037e-19
2.38391e-19
3.72843e-05
1.80595e-19
2.38134e-19
3.8103e-05
1.78076e-19
2.52061e-19
3.89365e-05
1.83719e-19
2.55025e-19
3.9785e-05
1.87162e-19
2.53748e-19
4.06486e-05
1.88374e-19
2.55355e-19
4.15277e-05
1.9238e-19
2.58956e-19
4.24224e-05
1.89518e-19
2.64673e-19
4.3333e-05
1.89571e-19
2.65692e-19
4.42598e-05
1.93741e-19
2.60984e-19
4.52028e-05
1.95814e-19
2.60528e-19
4.61625e-05
1.92125e-19
2.6411e-19
4.7139e-05
1.9146e-19
2.70653e-19
4.81327e-05
1.88011e-19
2.78642e-19
4.91436e-05
1.91019e-19
2.9018e-19
5.01722e-05
1.90095e-19
2.92748e-19
5.12186e-05
1.95842e-19
2.96229e-19
5.22831e-05
2.10303e-19
2.96725e-19
5.3366e-05
2.19371e-19
2.89252e-19
5.44676e-05
2.17143e-19
2.94926e-19
5.5588e-05
2.14702e-19
3.06364e-19
5.67277e-05
2.14277e-19
3.11998e-19
5.78868e-05
2.02927e-19
3.18052e-19
5.90656e-05
2.12809e-19
3.21981e-19
6.02645e-05
2.14603e-19
3.4181e-19
6.14837e-05
2.2901e-19
3.43522e-19
6.27234e-05
2.26406e-19
3.38539e-19
6.39841e-05
2.29643e-19
3.38012e-19
6.52659e-05
2.36453e-19
3.43251e-19
6.65692e-05
2.31209e-19
3.44943e-19
6.78943e-05
2.15861e-19
3.52566e-19
6.92415e-05
2.17824e-19
3.56263e-19
7.06111e-05
2.03663e-19
3.60942e-19
7.20033e-05
2.05551e-19
3.66968e-19
7.34186e-05
2.08738e-19
3.68639e-19
7.48572e-05
2.15142e-19
3.88513e-19
7.63195e-05
2.12588e-19
4.05895e-19
7.78057e-05
2.29204e-19
4.03971e-19
7.93163e-05
2.33216e-19
4.26354e-19
8.08514e-05
2.36556e-19
4.38059e-19
8.24115e-05
2.36659e-19
4.46634e-19
8.3997e-05
2.49037e-19
4.39732e-19
8.56081e-05
2.68008e-19
4.33587e-19
8.72451e-05
2.68384e-19
4.20507e-19
8.89085e-05
2.81502e-19
4.31633e-19
9.05986e-05
2.54449e-19
4.47326e-19
9.23157e-05
2.47449e-19
4.47816e-19
9.40601e-05
2.266e-19
4.47915e-19
9.58324e-05
2.28664e-19
4.61549e-19
9.76327e-05
2.18627e-19
4.60927e-19
9.94615e-05
2.22445e-19
4.57174e-19
0.000101319
2.2881e-19
4.71329e-19
0.000103206
2.29014e-19
4.67093e-19
0.000105123
2.3663e-19
4.70029e-19
0.000107069
2.25481e-19
4.65917e-19
0.000109046
2.43988e-19
4.54605e-19
0.000111053
2.47752e-19
4.43849e-19
0.000113092
2.54428e-19
4.47377e-19
0.000115162
2.55291e-19
4.58489e-19
0.000117265
2.5713e-19
4.54188e-19
0.000119399
2.82345e-19
4.65245e-19
0.000121566
3.0685e-19
4.59965e-19
0.000123767
3.3215e-19
4.56385e-19
0.000126001
3.31541e-19
4.82654e-19
0.000128269
3.36406e-19
4.6715e-19
0.000130571
3.42182e-19
4.62833e-19
0.000132908
3.49532e-19
4.53499e-19
0.000135281
3.59122e-19
4.60453e-19
0.000137689
3.39502e-19
4.35317e-19
0.000140134
3.25272e-19
4.14571e-19
0.000142615
3.27011e-19
4.16573e-19
0.000145133
3.38638e-19
4.11481e-19
0.000147688
3.33323e-19
3.91731e-19
0.000150282
2.86059e-19
3.62744e-19
0.000152914
2.80601e-19
3.57508e-19
0.000155585
2.91867e-19
3.57288e-19
0.000158295
2.82306e-19
3.51975e-19
0.000161045
2.68915e-19
3.43413e-19
0.000163835
2.15227e-19
3.31608e-19
0.000166666
2.01123e-19
3.03833e-19
0.000169539
1.94211e-19
3.02078e-19
0.000172453
2.30183e-19
2.79569e-19
0.00017541
2.19005e-19
2.99385e-19
0.000178409
1.98617e-19
2.88038e-19
0.000181452
2.52999e-19
2.65023e-19
0.000184538
2.80739e-19
2.23457e-19
0.000187669
2.86609e-19
1.94096e-19
0.000190845
2.22302e-19
1.77119e-19
0.000194066
2.09657e-19
1.51763e-19
0.000197333
2.02788e-19
1.30162e-19
0.000200647
1.85066e-19
1.01723e-19
0.000204007
1.59176e-19
8.81355e-20
0.000207416
1.38166e-19
7.16869e-20
0.000210872
1.23383e-19
5.72661e-20
0.000214377
1.06942e-19
2.74287e-20
0.000217931
3.14549e-20
5.4504e-20
0.000221536
8.07135e-20
9.94696e-21
0.00022519
4.70774e-20
1.73755e-20
0.000228896
-1.35536e-20
3.50152e-20
0.000232653
-7.62138e-21
-9.46094e-21
0.000236462
-7.9495e-20
-4.83047e-20
0.000240324
-1.50047e-19
-8.95042e-20
0.00024424
-1.76461e-19
-7.78899e-20
0.000248209
-2.86594e-19
-1.00955e-19
0.000252233
-2.80367e-19
-1.29127e-19
0.000256312
-2.41252e-19
-2.20613e-19
0.000260447
-2.12238e-19
-2.42717e-19
0.000264639
-2.31018e-19
-2.63191e-19
0.000268888
-3.4698e-19
-2.32169e-19
0.000273194
-2.99552e-19
-3.10627e-19
0.000277559
-3.05852e-19
-3.60363e-19
0.000281983
-3.18452e-19
-3.75841e-19
0.000286466
-3.60985e-19
-3.67606e-19
0.00029101
-3.71892e-19
-4.40866e-19
0.000295615
-4.00964e-19
-4.71535e-19
0.000300282
-3.60798e-19
-4.49665e-19
0.000305011
-3.75567e-19
-3.67464e-19
0.000309804
-3.51482e-19