/*--------------------------------*- C++ -*----------------------------------*\
| =========                 |                                                 |
| \\      /  F ield         | OpenFOAM: The Open Source CFD Toolbox           |
|  \\    /   O peration     | Version:  2106                                  |
|   \\  /    A nd           | Website:  www.openfoam.com                      |
|    \\/     M anipulation  |                                                 |
\*---------------------------------------------------------------------------*/
FoamFile
{
    version     2.0;
    format      ascii;
    arch        "LSB;label=32;scalar=64";
    class       volSymmTensorField;
    location    "4000";
    object      turbulenceProperties:R;
}
// * * * * * * * * * * * * * * * * * * * * * * * * * * * * * * * * * * * * * //

dimensions      [0 2 -2 0 0 0 0];

internalField   nonuniform List<symmTensor> 
2560
(
(4.99064e-08 -2.93561e-13 -4.24976e-16 4.99064e-08 -2.27029e-27 4.99064e-08)
(4.99064e-08 -2.93561e-13 -4.24976e-16 4.99064e-08 -1.60406e-27 4.99064e-08)
(7.32836e-09 -2.47706e-13 -1.08116e-15 7.32836e-09 -4.86424e-28 7.32836e-09)
(7.32836e-09 -2.47706e-13 -1.08116e-15 7.32836e-09 -1.17524e-27 7.32836e-09)
(2.18874e-09 -2.18152e-13 -1.3092e-15 2.18874e-09 -2.66509e-28 2.18874e-09)
(2.18874e-09 -2.18152e-13 -1.3092e-15 2.18874e-09 -7.3812e-29 2.18874e-09)
(9.39557e-10 -1.98458e-13 -1.20819e-15 9.39557e-10 -1.10422e-29 9.39557e-10)
(9.39557e-10 -1.98458e-13 -1.20819e-15 9.39557e-10 -6.74945e-29 9.39557e-10)
(4.98123e-10 -1.85473e-13 -1.14544e-15 4.98123e-10 -2.21456e-28 4.98123e-10)
(4.98123e-10 -1.85473e-13 -1.14544e-15 4.98123e-10 -6.33644e-29 4.98123e-10)
(3.05626e-10 -1.78992e-13 -1.12136e-15 3.05626e-10 -2.22786e-28 3.05626e-10)
(3.05626e-10 -1.78992e-13 -1.12136e-15 3.05626e-10 -6.13509e-29 3.05626e-10)
(2.12708e-10 -1.8152e-13 -1.15362e-15 2.12708e-10 -2.31875e-28 2.12708e-10)
(2.12708e-10 -1.8152e-13 -1.15362e-15 2.12708e-10 -6.24134e-29 2.12708e-10)
(1.68695e-10 -1.98652e-13 -1.28073e-15 1.68695e-10 -2.59774e-28 1.68695e-10)
(1.68695e-10 -1.98652e-13 -1.28073e-15 1.68695e-10 -6.85009e-29 1.68695e-10)
(1.53736e-10 -2.39873e-13 -1.56881e-15 1.53736e-10 -3.20564e-28 1.53736e-10)
(1.53736e-10 -2.39873e-13 -1.56881e-15 1.53736e-10 -8.29195e-29 1.53736e-10)
(1.59572e-10 -3.19696e-13 -2.12105e-15 1.59572e-10 -4.36692e-28 1.59572e-10)
(1.59572e-10 -3.19696e-13 -2.12105e-15 1.59572e-10 -1.1077e-28 1.59572e-10)
(1.82975e-10 -4.59097e-13 -3.08989e-15 1.82975e-10 -6.4096e-28 1.82975e-10)
(1.82975e-10 -4.59097e-13 -3.08989e-15 1.82975e-10 -1.59419e-28 1.82975e-10)
(2.23201e-10 -6.87246e-13 -4.69222e-15 2.23201e-10 -9.80549e-28 2.23201e-10)
(2.23201e-10 -6.87246e-13 -4.69222e-15 2.23201e-10 -2.3909e-28 2.23201e-10)
(2.8088e-10 -1.04356e-12 -7.22789e-15 2.8088e-10 -1.5215e-27 2.8088e-10)
(2.8088e-10 -1.04356e-12 -7.22789e-15 2.8088e-10 -3.63697e-28 2.8088e-10)
(3.57505e-10 -1.58012e-12 -1.11022e-14 3.57505e-10 -2.35416e-27 3.57505e-10)
(3.57505e-10 -1.58012e-12 -1.11022e-14 3.57505e-10 -5.51462e-28 3.57505e-10)
(4.55181e-10 -2.36444e-12 -1.6853e-14 4.55181e-10 -3.59963e-27 4.55181e-10)
(4.55181e-10 -2.36444e-12 -1.6853e-14 4.55181e-10 -8.26377e-28 4.55181e-10)
(5.76497e-10 -3.48273e-12 -2.51824e-14 5.76497e-10 -5.41798e-27 5.76497e-10)
(5.76497e-10 -3.48273e-12 -2.51824e-14 5.76497e-10 -1.21923e-27 5.76497e-10)
(7.24465e-10 -5.04358e-12 -3.69952e-14 7.24465e-10 -8.01808e-27 7.24465e-10)
(7.24465e-10 -5.04358e-12 -3.69952e-14 7.24465e-10 -1.76719e-27 7.24465e-10)
(9.02495e-10 -7.18222e-12 -5.34434e-14 9.02495e-10 -1.16688e-26 9.02495e-10)
(9.02495e-10 -7.18222e-12 -5.34434e-14 9.02495e-10 -2.51817e-27 9.02495e-10)
(1.11439e-09 -1.00653e-11 -7.59789e-14 1.11439e-09 -1.67138e-26 1.11439e-09)
(1.11439e-09 -1.00653e-11 -7.59789e-14 1.11439e-09 -3.53051e-27 1.11439e-09)
(1.36434e-09 -1.38966e-11 -1.06415e-13 1.36434e-09 -2.2071e-26 1.36434e-09)
(1.36434e-09 -1.38966e-11 -1.06415e-13 1.36434e-09 -4.87398e-27 1.36434e-09)
(1.65695e-09 -1.89229e-11 -1.46998e-13 1.65695e-09 -2.20942e-26 1.65695e-09)
(1.65695e-09 -1.89229e-11 -1.46998e-13 1.65695e-09 -6.63788e-27 1.65695e-09)
(1.99727e-09 -2.54412e-11 -2.00491e-13 1.99727e-09 -2.14833e-26 1.99727e-09)
(1.99727e-09 -2.54412e-11 -2.00491e-13 1.99727e-09 -8.92612e-27 1.99727e-09)
(2.39079e-09 -3.38068e-11 -2.70266e-13 2.39079e-09 -2.91012e-26 2.39079e-09)
(2.39079e-09 -3.38068e-11 -2.70266e-13 2.39079e-09 -1.1853e-26 2.39079e-09)
(2.84349e-09 -4.4442e-11 -3.60423e-13 2.84349e-09 -3.90264e-26 2.84349e-09)
(2.84349e-09 -4.4442e-11 -3.60423e-13 2.84349e-09 -1.55696e-26 2.84349e-09)
(3.36187e-09 -5.78459e-11 -4.75909e-13 3.36187e-09 -5.18397e-26 3.36187e-09)
(3.36187e-09 -5.78459e-11 -4.75909e-13 3.36187e-09 -2.02439e-26 3.36187e-09)
(3.95297e-09 -7.46059e-11 -6.22668e-13 3.95297e-09 -6.82537e-26 3.95297e-09)
(3.95297e-09 -7.46059e-11 -6.22668e-13 3.95297e-09 -2.60978e-26 3.95297e-09)
(4.62443e-09 -9.54099e-11 -8.07809e-13 4.62443e-09 -8.91048e-26 4.62443e-09)
(4.62443e-09 -9.54099e-11 -8.07809e-13 4.62443e-09 -3.33251e-26 4.62443e-09)
(5.38451e-09 -1.2106e-10 -1.0398e-12 5.38451e-09 -1.15463e-25 5.38451e-09)
(5.38451e-09 -1.2106e-10 -1.0398e-12 5.38451e-09 -4.21537e-26 5.38451e-09)
(6.24215e-09 -1.52488e-10 -1.32867e-12 6.24215e-09 -1.48672e-25 6.24215e-09)
(6.24215e-09 -1.52488e-10 -1.32867e-12 6.24215e-09 -5.29346e-26 6.24215e-09)
(7.20701e-09 -1.90774e-10 -1.6863e-12 7.20701e-09 -1.90136e-25 7.20701e-09)
(7.20701e-09 -1.90774e-10 -1.6863e-12 7.20701e-09 -6.59884e-26 7.20701e-09)
(8.28951e-09 -2.3716e-10 -2.12663e-12 8.28951e-09 -2.41673e-25 8.28951e-09)
(8.28951e-09 -2.3716e-10 -2.12663e-12 8.28951e-09 -8.16325e-26 8.28951e-09)
(9.50089e-09 -2.93079e-10 -2.66605e-12 9.50089e-09 -3.05547e-25 9.50089e-09)
(9.50089e-09 -2.93079e-10 -2.66605e-12 9.50089e-09 -1.00321e-25 9.50089e-09)
(1.08533e-08 -3.60171e-10 -3.32373e-12 1.08533e-08 -3.84213e-25 1.08533e-08)
(1.08533e-08 -3.60171e-10 -3.32373e-12 1.08533e-08 -1.22645e-25 1.08533e-08)
(1.23597e-08 -4.4031e-10 -4.12202e-12 1.23597e-08 -4.8077e-25 1.23597e-08)
(1.23597e-08 -4.4031e-10 -4.12202e-12 1.23597e-08 -1.49132e-25 1.23597e-08)
(1.40343e-08 -5.35634e-10 -5.08692e-12 1.40343e-08 -5.99029e-25 1.40343e-08)
(1.40343e-08 -5.35634e-10 -5.08692e-12 1.40343e-08 -1.80261e-25 1.40343e-08)
(1.58922e-08 -6.48574e-10 -6.24858e-12 1.58922e-08 -7.43207e-25 1.58922e-08)
(1.58922e-08 -6.48574e-10 -6.24858e-12 1.58922e-08 -2.16894e-25 1.58922e-08)
(1.79496e-08 -7.81887e-10 -7.6419e-12 1.79496e-08 -9.17868e-25 1.79496e-08)
(1.79496e-08 -7.81887e-10 -7.6419e-12 1.79496e-08 -2.59685e-25 1.79496e-08)
(2.02239e-08 -9.38691e-10 -9.30713e-12 2.02239e-08 -1.12899e-24 2.02239e-08)
(2.02239e-08 -9.38691e-10 -9.30713e-12 2.02239e-08 -3.09429e-25 2.02239e-08)
(2.27341e-08 -1.12251e-09 -1.12907e-11 2.27341e-08 -1.38382e-24 2.27341e-08)
(2.27341e-08 -1.12251e-09 -1.12907e-11 2.27341e-08 -3.67896e-25 2.27341e-08)
(2.55002e-08 -1.33731e-09 -1.36458e-11 2.55002e-08 -1.69087e-24 2.55002e-08)
(2.55002e-08 -1.33731e-09 -1.36458e-11 2.55002e-08 -4.34753e-25 2.55002e-08)
(2.85439e-08 -1.58756e-09 -1.64335e-11 2.85439e-08 -2.06013e-24 2.85439e-08)
(2.85439e-08 -1.58756e-09 -1.64335e-11 2.85439e-08 -5.1118e-25 2.85439e-08)
(3.18883e-08 -1.87825e-09 -1.97239e-11 3.18883e-08 -2.50147e-24 3.18883e-08)
(3.18883e-08 -1.87825e-09 -1.97239e-11 3.18883e-08 -5.98633e-25 3.18883e-08)
(3.55583e-08 -2.215e-09 -2.35966e-11 3.55583e-08 -2.94164e-24 3.55583e-08)
(3.55583e-08 -2.215e-09 -2.35966e-11 3.55583e-08 -6.99407e-25 3.55583e-08)
(3.95806e-08 -2.60407e-09 -2.81426e-11 3.95806e-08 1.07785e-26 3.95806e-08)
(3.95806e-08 -2.60407e-09 -2.81426e-11 3.95806e-08 -8.13608e-25 3.95806e-08)
(4.39835e-08 -3.05244e-09 -3.34654e-11 4.39835e-08 7.03217e-25 4.39835e-08)
(4.39835e-08 -3.05244e-09 -3.34654e-11 4.39835e-08 -9.42187e-25 4.39835e-08)
(4.87977e-08 -3.56789e-09 -3.96825e-11 4.87977e-08 8.47997e-25 4.87977e-08)
(4.87977e-08 -3.56789e-09 -3.96825e-11 4.87977e-08 -1.08793e-24 4.87977e-08)
(5.40556e-08 -4.15909e-09 -4.6927e-11 5.40556e-08 1.01666e-24 5.40556e-08)
(5.40556e-08 -4.15909e-09 -4.6927e-11 5.40556e-08 -1.24868e-24 5.40556e-08)
(5.97922e-08 -4.83561e-09 -5.53495e-11 5.97922e-08 1.21628e-24 5.97922e-08)
(5.97922e-08 -4.83561e-09 -5.53495e-11 5.97922e-08 -1.43044e-24 5.97922e-08)
(6.60446e-08 -5.60811e-09 -6.51204e-11 6.60446e-08 1.44816e-24 6.60446e-08)
(6.60446e-08 -5.60811e-09 -6.51204e-11 6.60446e-08 -1.63376e-24 6.60446e-08)
(7.28525e-08 -6.48832e-09 -7.64313e-11 7.28525e-08 1.71456e-24 7.28525e-08)
(7.28525e-08 -6.48832e-09 -7.64313e-11 7.28525e-08 -1.85849e-24 7.28525e-08)
(8.02585e-08 -7.48924e-09 -8.94984e-11 8.02585e-08 2.02298e-24 8.02585e-08)
(8.02585e-08 -7.48924e-09 -8.94984e-11 8.02585e-08 -2.10664e-24 8.02585e-08)
(8.83075e-08 -8.62517e-09 -1.04564e-10 8.83075e-08 2.37685e-24 8.83075e-08)
(8.83075e-08 -8.62517e-09 -1.04564e-10 8.83075e-08 -2.38258e-24 8.83075e-08)
(9.7048e-08 -9.91187e-09 -1.21902e-10 9.7048e-08 2.77539e-24 9.7048e-08)
(9.7048e-08 -9.91187e-09 -1.21902e-10 9.7048e-08 -2.68242e-24 9.7048e-08)
(1.06531e-07 -1.13666e-08 -1.41816e-10 1.06531e-07 3.22858e-24 1.06531e-07)
(1.06531e-07 -1.13666e-08 -1.41816e-10 1.06531e-07 -3.56173e-24 1.06531e-07)
(1.16811e-07 -1.30084e-08 -1.64649e-10 1.16811e-07 3.75066e-24 1.16811e-07)
(1.16811e-07 -1.30084e-08 -1.64649e-10 1.16811e-07 -5.06841e-24 1.16811e-07)
(1.27947e-07 -1.48581e-08 -1.90781e-10 1.27947e-07 4.33341e-24 1.27947e-07)
(1.27947e-07 -1.48581e-08 -1.90781e-10 1.27947e-07 -6.25261e-24 1.27947e-07)
(1.4e-07 -1.69383e-08 -2.20639e-10 1.4e-07 4.99082e-24 1.4e-07)
(1.4e-07 -1.69383e-08 -2.20639e-10 1.4e-07 -7.16426e-24 1.4e-07)
(1.53036e-07 -1.92739e-08 -2.54696e-10 1.53036e-07 5.73865e-24 1.53036e-07)
(1.53036e-07 -1.92739e-08 -2.54696e-10 1.53036e-07 -8.23485e-24 1.53036e-07)
(1.67125e-07 -2.18919e-08 -2.93479e-10 1.67125e-07 6.54078e-24 1.67125e-07)
(1.67125e-07 -2.18919e-08 -2.93479e-10 1.67125e-07 -9.47339e-24 1.67125e-07)
(1.8234e-07 -2.48218e-08 -3.37573e-10 1.8234e-07 7.41632e-24 1.8234e-07)
(1.8234e-07 -2.48218e-08 -3.37573e-10 1.8234e-07 -1.08405e-23 1.8234e-07)
(1.9876e-07 -2.80957e-08 -3.87627e-10 1.9876e-07 8.40993e-24 1.9876e-07)
(1.9876e-07 -2.80957e-08 -3.87627e-10 1.9876e-07 -1.23939e-23 1.9876e-07)
(2.16469e-07 -3.17482e-08 -4.44358e-10 2.16469e-07 9.49167e-24 2.16469e-07)
(2.16469e-07 -3.17482e-08 -4.44358e-10 2.16469e-07 -1.40474e-23 2.16469e-07)
(2.35554e-07 -3.5817e-08 -5.08562e-10 2.35554e-07 1.06358e-23 2.35554e-07)
(2.35554e-07 -3.5817e-08 -5.08562e-10 2.35554e-07 -1.59875e-23 2.35554e-07)
(2.56109e-07 -4.03428e-08 -5.81115e-10 2.56109e-07 1.18675e-23 2.56109e-07)
(2.56109e-07 -4.03428e-08 -5.81115e-10 2.56109e-07 -1.82113e-23 2.56109e-07)
(2.78232e-07 -4.53695e-08 -6.62982e-10 2.78232e-07 1.33027e-23 2.78232e-07)
(2.78232e-07 -4.53695e-08 -6.62982e-10 2.78232e-07 -2.06047e-23 2.78232e-07)
(3.02029e-07 -5.09447e-08 -7.55226e-10 3.02029e-07 1.48351e-23 3.02029e-07)
(3.02029e-07 -5.09447e-08 -7.55226e-10 3.02029e-07 -2.34318e-23 3.02029e-07)
(3.27608e-07 -5.71193e-08 -8.59018e-10 3.27608e-07 1.63196e-23 3.27608e-07)
(3.27608e-07 -5.71193e-08 -8.59018e-10 3.27608e-07 -2.6476e-23 3.27608e-07)
(3.55086e-07 -6.39482e-08 -9.7564e-10 3.55086e-07 1.78913e-23 3.55086e-07)
(3.55086e-07 -6.39482e-08 -9.7564e-10 3.55086e-07 -2.99753e-23 3.55086e-07)
(3.84586e-07 -7.14903e-08 -1.1065e-09 3.84586e-07 1.96966e-23 3.84586e-07)
(3.84586e-07 -7.14903e-08 -1.1065e-09 3.84586e-07 -3.40741e-23 3.84586e-07)
(4.16238e-07 -7.98088e-08 -1.25313e-09 4.16238e-07 2.16454e-23 4.16238e-07)
(4.16238e-07 -7.98088e-08 -1.25313e-09 4.16238e-07 -3.85419e-23 4.16238e-07)
(4.50176e-07 -8.89713e-08 -1.41722e-09 4.50176e-07 2.3945e-23 4.50176e-07)
(4.50176e-07 -8.89713e-08 -1.41722e-09 4.50176e-07 -4.35316e-23 4.50176e-07)
(4.86546e-07 -9.90499e-08 -1.6006e-09 4.86546e-07 2.64791e-23 4.86546e-07)
(4.86546e-07 -9.90499e-08 -1.6006e-09 4.86546e-07 -4.91063e-23 4.86546e-07)
(5.25496e-07 -1.10122e-07 -1.80528e-09 5.25496e-07 2.90887e-23 5.25496e-07)
(5.25496e-07 -1.10122e-07 -1.80528e-09 5.25496e-07 -5.55845e-23 5.25496e-07)
(5.67186e-07 -1.22268e-07 -2.03343e-09 5.67186e-07 3.13723e-23 5.67186e-07)
(5.67186e-07 -1.22268e-07 -2.03343e-09 5.67186e-07 -6.28862e-23 5.67186e-07)
(6.11782e-07 -1.35577e-07 -2.28741e-09 6.11782e-07 3.3364e-23 6.11782e-07)
(6.11782e-07 -1.35577e-07 -2.28741e-09 6.11782e-07 -7.07623e-23 6.11782e-07)
(6.59458e-07 -1.50141e-07 -2.56981e-09 6.59458e-07 3.61051e-23 6.59458e-07)
(6.59458e-07 -1.50141e-07 -2.56981e-09 6.59458e-07 -7.962e-23 6.59458e-07)
(7.10396e-07 -1.66058e-07 -2.88339e-09 7.10396e-07 3.8819e-23 7.10396e-07)
(7.10396e-07 -1.66058e-07 -2.88339e-09 7.10396e-07 -8.9333e-23 7.10396e-07)
(7.64788e-07 -1.83432e-07 -3.23118e-09 7.64788e-07 4.10238e-23 7.64788e-07)
(7.64788e-07 -1.83432e-07 -3.23118e-09 7.64788e-07 -1.00092e-22 7.64788e-07)
(8.22834e-07 -2.02372e-07 -3.61643e-09 8.22834e-07 4.18772e-23 8.22834e-07)
(8.22834e-07 -2.02372e-07 -3.61643e-09 8.22834e-07 -1.13096e-22 8.22834e-07)
(8.84743e-07 -2.22994e-07 -4.04265e-09 8.84743e-07 4.22227e-23 8.84743e-07)
(8.84743e-07 -2.22994e-07 -4.04265e-09 8.84743e-07 -1.2674e-22 8.84743e-07)
(9.50733e-07 -2.4542e-07 -4.51364e-09 9.50733e-07 4.31098e-23 9.50733e-07)
(9.50733e-07 -2.4542e-07 -4.51364e-09 9.50733e-07 -1.39575e-22 9.50733e-07)
(1.02103e-06 -2.69778e-07 -5.03348e-09 1.02103e-06 4.28397e-23 1.02103e-06)
(1.02103e-06 -2.69778e-07 -5.03348e-09 1.02103e-06 -1.55568e-22 1.02103e-06)
(1.09588e-06 -2.96203e-07 -5.60655e-09 1.09588e-06 4.03339e-23 1.09588e-06)
(1.09588e-06 -2.96203e-07 -5.60655e-09 1.09588e-06 -1.75731e-22 1.09588e-06)
(1.17552e-06 -3.24836e-07 -6.23755e-09 1.17552e-06 3.64019e-23 1.17552e-06)
(1.17552e-06 -3.24836e-07 -6.23755e-09 1.17552e-06 -1.98694e-22 1.17552e-06)
(1.26022e-06 -3.55825e-07 -6.93154e-09 1.26022e-06 3.17002e-23 1.26022e-06)
(1.26022e-06 -3.55825e-07 -6.93154e-09 1.26022e-06 -2.22617e-22 1.26022e-06)
(1.35023e-06 -3.89323e-07 -7.69393e-09 1.35023e-06 2.52366e-23 1.35023e-06)
(1.35023e-06 -3.89323e-07 -7.69393e-09 1.35023e-06 -2.44741e-22 1.35023e-06)
(1.44584e-06 -4.25491e-07 -8.53049e-09 1.44584e-06 1.75571e-23 1.44584e-06)
(1.44584e-06 -4.25491e-07 -8.53049e-09 1.44584e-06 -2.72645e-22 1.44584e-06)
(1.54734e-06 -4.64498e-07 -9.4474e-09 1.54734e-06 1.04369e-23 1.54734e-06)
(1.54734e-06 -4.64498e-07 -9.4474e-09 1.54734e-06 -3.09075e-22 1.54734e-06)
(1.65503e-06 -5.06518e-07 -1.04512e-08 1.65503e-06 1.89286e-24 1.65503e-06)
(1.65503e-06 -5.06518e-07 -1.04512e-08 1.65503e-06 -3.44853e-22 1.65503e-06)
(1.76921e-06 -5.51733e-07 -1.15491e-08 1.76921e-06 -7.03927e-24 1.76921e-06)
(1.76921e-06 -5.51733e-07 -1.15491e-08 1.76921e-06 -3.83071e-22 1.76921e-06)
(1.89021e-06 -6.00329e-07 -1.27483e-08 1.89021e-06 -1.60856e-23 1.89021e-06)
(1.89021e-06 -6.00329e-07 -1.27483e-08 1.89021e-06 -4.26568e-22 1.89021e-06)
(2.01836e-06 -6.52502e-07 -1.40569e-08 2.01836e-06 -3.20823e-23 2.01836e-06)
(2.01836e-06 -6.52502e-07 -1.40569e-08 2.01836e-06 -4.70146e-22 2.01836e-06)
(2.154e-06 -7.08453e-07 -1.54834e-08 2.154e-06 -5.06077e-23 2.154e-06)
(2.154e-06 -7.08453e-07 -1.54834e-08 2.154e-06 -5.22265e-22 2.154e-06)
(2.29748e-06 -7.68389e-07 -1.70366e-08 2.29748e-06 -7.07799e-23 2.29748e-06)
(2.29748e-06 -7.68389e-07 -1.70366e-08 2.29748e-06 -5.72432e-22 2.29748e-06)
(2.44917e-06 -8.32526e-07 -1.8726e-08 2.44917e-06 -9.69486e-23 2.44917e-06)
(2.44917e-06 -8.32526e-07 -1.8726e-08 2.44917e-06 -6.27022e-22 2.44917e-06)
(2.60945e-06 -9.01083e-07 -2.05616e-08 2.60945e-06 -3.16266e-22 2.60945e-06)
(2.60945e-06 -9.01083e-07 -2.05616e-08 2.60945e-06 -6.92131e-22 2.60945e-06)
(2.77869e-06 -9.74288e-07 -2.25541e-08 2.77869e-06 -8.4408e-22 2.77869e-06)
(2.77869e-06 -9.74288e-07 -2.25541e-08 2.77869e-06 -9.48489e-22 2.77869e-06)
(2.9573e-06 -1.05237e-06 -2.47147e-08 2.9573e-06 -1.23659e-21 2.9573e-06)
(2.9573e-06 -1.05237e-06 -2.47147e-08 2.9573e-06 -1.65086e-21 2.9573e-06)
(3.14568e-06 -1.13558e-06 -2.7055e-08 3.14568e-06 -1.37811e-21 3.14568e-06)
(3.14568e-06 -1.13558e-06 -2.7055e-08 3.14568e-06 -2.25125e-21 3.14568e-06)
(3.34425e-06 -1.22414e-06 -2.95877e-08 3.34425e-06 -1.53808e-21 3.34425e-06)
(3.34425e-06 -1.22414e-06 -2.95877e-08 3.34425e-06 -2.49576e-21 3.34425e-06)
(3.55344e-06 -1.31833e-06 -3.23257e-08 3.55344e-06 -1.72684e-21 3.55344e-06)
(3.55344e-06 -1.31833e-06 -3.23257e-08 3.55344e-06 -2.76243e-21 3.55344e-06)
(3.77368e-06 -1.41838e-06 -3.52829e-08 3.77368e-06 -1.92637e-21 3.77368e-06)
(3.77368e-06 -1.41838e-06 -3.52829e-08 3.77368e-06 -3.07646e-21 3.77368e-06)
(4.00542e-06 -1.52456e-06 -3.84736e-08 4.00542e-06 -2.136e-21 4.00542e-06)
(4.00542e-06 -1.52456e-06 -3.84736e-08 4.00542e-06 -3.41311e-21 4.00542e-06)
(4.24913e-06 -1.63713e-06 -4.19132e-08 4.24913e-06 -2.40141e-21 4.24913e-06)
(4.24913e-06 -1.63713e-06 -4.19132e-08 4.24913e-06 -3.74219e-21 4.24913e-06)
(4.50525e-06 -1.75637e-06 -4.56174e-08 4.50525e-06 -2.69692e-21 4.50525e-06)
(4.50525e-06 -1.75637e-06 -4.56174e-08 4.50525e-06 -4.13847e-21 4.50525e-06)
(4.77428e-06 -1.88255e-06 -4.96031e-08 4.77428e-06 -3.0158e-21 4.77428e-06)
(4.77428e-06 -1.88255e-06 -4.96031e-08 4.77428e-06 -4.5675e-21 4.77428e-06)
(5.05669e-06 -2.01594e-06 -5.38876e-08 5.05669e-06 -3.3429e-21 5.05669e-06)
(5.05669e-06 -2.01594e-06 -5.38876e-08 5.05669e-06 -4.97208e-21 5.05669e-06)
(5.35297e-06 -2.15684e-06 -5.84892e-08 5.35297e-06 -3.69803e-21 5.35297e-06)
(5.35297e-06 -2.15684e-06 -5.84892e-08 5.35297e-06 -5.41627e-21 5.35297e-06)
(5.66363e-06 -2.30552e-06 -6.34271e-08 5.66363e-06 -4.11056e-21 5.66363e-06)
(5.66363e-06 -2.30552e-06 -6.34271e-08 5.66363e-06 -5.93501e-21 5.66363e-06)
(5.98916e-06 -2.46227e-06 -6.87213e-08 5.98916e-06 -4.56884e-21 5.98916e-06)
(5.98916e-06 -2.46227e-06 -6.87213e-08 5.98916e-06 -6.49006e-21 5.98916e-06)
(6.3301e-06 -2.62739e-06 -7.43924e-08 6.3301e-06 -5.08161e-21 6.3301e-06)
(6.3301e-06 -2.62739e-06 -7.43924e-08 6.3301e-06 -7.05236e-21 6.3301e-06)
(6.68695e-06 -2.80117e-06 -8.04622e-08 6.68695e-06 -5.55797e-21 6.68695e-06)
(6.68695e-06 -2.80117e-06 -8.04622e-08 6.68695e-06 -7.67519e-21 6.68695e-06)
(7.06024e-06 -2.98391e-06 -8.69535e-08 7.06024e-06 -6.04e-21 7.06024e-06)
(7.06024e-06 -2.98391e-06 -8.69535e-08 7.06024e-06 -8.33241e-21 7.06024e-06)
(7.4505e-06 -3.1759e-06 -9.38896e-08 7.4505e-06 -6.63417e-21 7.4505e-06)
(7.4505e-06 -3.1759e-06 -9.38896e-08 7.4505e-06 -9.01927e-21 7.4505e-06)
(7.85827e-06 -3.37745e-06 -1.01295e-07 7.85827e-06 -7.26321e-21 7.85827e-06)
(7.85827e-06 -3.37745e-06 -1.01295e-07 7.85827e-06 -9.81389e-21 7.85827e-06)
(8.28409e-06 -3.58886e-06 -1.09196e-07 8.28409e-06 -7.95552e-21 8.28409e-06)
(8.28409e-06 -3.58886e-06 -1.09196e-07 8.28409e-06 -1.06947e-20 8.28409e-06)
(8.72851e-06 -3.81043e-06 -1.17617e-07 8.72851e-06 -8.67637e-21 8.72851e-06)
(8.72851e-06 -3.81043e-06 -1.17617e-07 8.72851e-06 -1.16565e-20 8.72851e-06)
(9.19206e-06 -4.04245e-06 -1.26588e-07 9.19206e-06 -9.38572e-21 9.19206e-06)
(9.19206e-06 -4.04245e-06 -1.26588e-07 9.19206e-06 -1.27405e-20 9.19206e-06)
(9.6753e-06 -4.28525e-06 -1.36136e-07 9.6753e-06 -1.00648e-20 9.6753e-06)
(9.6753e-06 -4.28525e-06 -1.36136e-07 9.6753e-06 -1.38775e-20 9.6753e-06)
(1.01788e-05 -4.53911e-06 -1.46291e-07 1.01788e-05 -1.09393e-20 1.01788e-05)
(1.01788e-05 -4.53911e-06 -1.46291e-07 1.01788e-05 -1.49297e-20 1.01788e-05)
(1.0703e-05 -4.80435e-06 -1.57084e-07 1.0703e-05 -1.19044e-20 1.0703e-05)
(1.0703e-05 -4.80435e-06 -1.57084e-07 1.0703e-05 -1.61193e-20 1.0703e-05)
(1.12486e-05 -5.08125e-06 -1.68546e-07 1.12486e-05 -1.28726e-20 1.12486e-05)
(1.12486e-05 -5.08125e-06 -1.68546e-07 1.12486e-05 -1.74434e-20 1.12486e-05)
(1.18161e-05 -5.37012e-06 -1.8071e-07 1.18161e-05 -1.39089e-20 1.18161e-05)
(1.18161e-05 -5.37012e-06 -1.8071e-07 1.18161e-05 -1.87469e-20 1.18161e-05)
(1.2406e-05 -5.67127e-06 -1.9361e-07 1.2406e-05 -1.49421e-20 1.2406e-05)
(1.2406e-05 -5.67127e-06 -1.9361e-07 1.2406e-05 -2.01403e-20 1.2406e-05)
(1.30189e-05 -5.98497e-06 -2.07282e-07 1.30189e-05 -1.6126e-20 1.30189e-05)
(1.30189e-05 -5.98497e-06 -2.07282e-07 1.30189e-05 -2.17438e-20 1.30189e-05)
(1.36552e-05 -6.31153e-06 -2.21761e-07 1.36552e-05 -1.73617e-20 1.36552e-05)
(1.36552e-05 -6.31153e-06 -2.21761e-07 1.36552e-05 -2.34519e-20 1.36552e-05)
(1.43156e-05 -6.65123e-06 -2.37085e-07 1.43156e-05 -1.84995e-20 1.43156e-05)
(1.43156e-05 -6.65123e-06 -2.37085e-07 1.43156e-05 -2.5186e-20 1.43156e-05)
(1.50006e-05 -7.00436e-06 -2.53291e-07 1.50006e-05 -1.97744e-20 1.50006e-05)
(1.50006e-05 -7.00436e-06 -2.53291e-07 1.50006e-05 -2.69985e-20 1.50006e-05)
(1.57107e-05 -7.3712e-06 -2.70421e-07 1.57107e-05 -2.12881e-20 1.57107e-05)
(1.57107e-05 -7.3712e-06 -2.70421e-07 1.57107e-05 -2.89439e-20 1.57107e-05)
(1.64463e-05 -7.75201e-06 -2.88515e-07 1.64463e-05 -2.29398e-20 1.64463e-05)
(1.64463e-05 -7.75201e-06 -2.88515e-07 1.64463e-05 -3.11203e-20 1.64463e-05)
(1.7208e-05 -8.14708e-06 -3.07615e-07 1.7208e-05 -2.45953e-20 1.7208e-05)
(1.7208e-05 -8.14708e-06 -3.07615e-07 1.7208e-05 -3.34413e-20 1.7208e-05)
(1.79963e-05 -8.55665e-06 -3.27764e-07 1.79963e-05 -2.60858e-20 1.79963e-05)
(1.79963e-05 -8.55665e-06 -3.27764e-07 1.79963e-05 -3.53957e-20 1.79963e-05)
(1.88116e-05 -8.98099e-06 -3.49006e-07 1.88116e-05 -2.78305e-20 1.88116e-05)
(1.88116e-05 -8.98099e-06 -3.49006e-07 1.88116e-05 -3.72395e-20 1.88116e-05)
(1.96544e-05 -9.42035e-06 -3.71388e-07 1.96544e-05 -2.93699e-20 1.96544e-05)
(1.96544e-05 -9.42035e-06 -3.71388e-07 1.96544e-05 -3.99139e-20 1.96544e-05)
(2.05251e-05 -9.87495e-06 -3.94955e-07 2.05251e-05 -3.0459e-20 2.05251e-05)
(2.05251e-05 -9.87495e-06 -3.94955e-07 2.05251e-05 -4.28918e-20 2.05251e-05)
(2.14242e-05 -1.0345e-05 -4.19755e-07 2.14242e-05 -3.22524e-20 2.14242e-05)
(2.14242e-05 -1.0345e-05 -4.19755e-07 2.14242e-05 -4.53149e-20 2.14242e-05)
(2.23521e-05 -1.08308e-05 -4.45838e-07 2.23521e-05 -3.41499e-20 2.23521e-05)
(2.23521e-05 -1.08308e-05 -4.45838e-07 2.23521e-05 -4.78653e-20 2.23521e-05)
(2.33091e-05 -1.13325e-05 -4.73253e-07 2.33091e-05 -3.62909e-20 2.33091e-05)
(2.33091e-05 -1.13325e-05 -4.73253e-07 2.33091e-05 -5.0396e-20 2.33091e-05)
(2.42956e-05 -1.18503e-05 -5.02052e-07 2.42956e-05 -3.8552e-20 2.42956e-05)
(2.42956e-05 -1.18503e-05 -5.02052e-07 2.42956e-05 -5.23941e-20 2.42956e-05)
(2.53119e-05 -1.23843e-05 -5.32286e-07 2.53119e-05 -3.99989e-20 2.53119e-05)
(2.53119e-05 -1.23843e-05 -5.32286e-07 2.53119e-05 -5.5037e-20 2.53119e-05)
(2.63584e-05 -1.29349e-05 -5.64009e-07 2.63584e-05 -4.2337e-20 2.63584e-05)
(2.63584e-05 -1.29349e-05 -5.64009e-07 2.63584e-05 -5.81064e-20 2.63584e-05)
(2.74353e-05 -1.3502e-05 -5.97274e-07 2.74353e-05 -4.47765e-20 2.74353e-05)
(2.74353e-05 -1.3502e-05 -5.97274e-07 2.74353e-05 -6.07188e-20 2.74353e-05)
(2.85429e-05 -1.40858e-05 -6.32137e-07 2.85429e-05 -4.63196e-20 2.85429e-05)
(2.85429e-05 -1.40858e-05 -6.32137e-07 2.85429e-05 -6.35163e-20 2.85429e-05)
(2.96814e-05 -1.46865e-05 -6.68653e-07 2.96814e-05 -4.77249e-20 2.96814e-05)
(2.96814e-05 -1.46865e-05 -6.68653e-07 2.96814e-05 -6.67825e-20 2.96814e-05)
(3.08509e-05 -1.53042e-05 -7.06877e-07 3.08509e-05 -4.89922e-20 3.08509e-05)
(3.08509e-05 -1.53042e-05 -7.06877e-07 3.08509e-05 -7.00102e-20 3.08509e-05)
(3.20516e-05 -1.59389e-05 -7.46869e-07 3.20516e-05 -5.04229e-20 3.20516e-05)
(3.20516e-05 -1.59389e-05 -7.46869e-07 3.20516e-05 -7.28121e-20 3.20516e-05)
(3.32837e-05 -1.65907e-05 -7.88684e-07 3.32837e-05 -5.23866e-20 3.32837e-05)
(3.32837e-05 -1.65907e-05 -7.88684e-07 3.32837e-05 -7.60394e-20 3.32837e-05)
(3.45471e-05 -1.72597e-05 -8.32381e-07 3.45471e-05 -5.35238e-20 3.45471e-05)
(3.45471e-05 -1.72597e-05 -8.32381e-07 3.45471e-05 -7.90138e-20 3.45471e-05)
(3.58419e-05 -1.79458e-05 -8.78019e-07 3.58419e-05 -5.58821e-20 3.58419e-05)
(3.58419e-05 -1.79458e-05 -8.78019e-07 3.58419e-05 -8.09986e-20 3.58419e-05)
(3.7168e-05 -1.8649e-05 -9.25656e-07 3.7168e-05 -5.76967e-20 3.7168e-05)
(3.7168e-05 -1.8649e-05 -9.25656e-07 3.7168e-05 -8.34998e-20 3.7168e-05)
(3.85254e-05 -1.93693e-05 -9.75351e-07 3.85254e-05 -5.77619e-20 3.85254e-05)
(3.85254e-05 -1.93693e-05 -9.75351e-07 3.85254e-05 -8.63061e-20 3.85254e-05)
(3.9914e-05 -2.01067e-05 -1.02716e-06 3.9914e-05 -5.82333e-20 3.9914e-05)
(3.9914e-05 -2.01067e-05 -1.02716e-06 3.9914e-05 -8.87106e-20 3.9914e-05)
(4.13336e-05 -2.08611e-05 -1.08115e-06 4.13336e-05 -5.98135e-20 4.13336e-05)
(4.13336e-05 -2.08611e-05 -1.08115e-06 4.13336e-05 -9.07942e-20 4.13336e-05)
(4.27839e-05 -2.16322e-05 -1.13737e-06 4.27839e-05 -6.08371e-20 4.27839e-05)
(4.27839e-05 -2.16322e-05 -1.13737e-06 4.27839e-05 -9.28283e-20 4.27839e-05)
(4.42646e-05 -2.24201e-05 -1.19589e-06 4.42646e-05 -5.85316e-20 4.42646e-05)
(4.42646e-05 -2.24201e-05 -1.19589e-06 4.42646e-05 -9.38403e-20 4.42646e-05)
(4.57754e-05 -2.32244e-05 -1.25675e-06 4.57754e-05 -5.75553e-20 4.57754e-05)
(4.57754e-05 -2.32244e-05 -1.25675e-06 4.57754e-05 -9.10366e-20 4.57754e-05)
(4.73158e-05 -2.4045e-05 -1.32002e-06 4.73158e-05 -5.81684e-20 4.73158e-05)
(4.73158e-05 -2.4045e-05 -1.32002e-06 4.73158e-05 -8.8617e-20 4.73158e-05)
(4.88855e-05 -2.48815e-05 -1.38575e-06 4.88855e-05 -6.06966e-20 4.88855e-05)
(4.88855e-05 -2.48815e-05 -1.38575e-06 4.88855e-05 -8.86666e-20 4.88855e-05)
(5.04837e-05 -2.57338e-05 -1.454e-06 5.04837e-05 -5.91518e-20 5.04837e-05)
(5.04837e-05 -2.57338e-05 -1.454e-06 5.04837e-05 -9.16008e-20 5.04837e-05)
(5.211e-05 -2.66015e-05 -1.52481e-06 5.211e-05 -5.55638e-20 5.211e-05)
(5.211e-05 -2.66015e-05 -1.52481e-06 5.211e-05 -9.36792e-20 5.211e-05)
(5.37635e-05 -2.74842e-05 -1.59825e-06 5.37635e-05 -5.28316e-20 5.37635e-05)
(5.37635e-05 -2.74842e-05 -1.59825e-06 5.37635e-05 -9.34614e-20 5.37635e-05)
(5.54436e-05 -2.83815e-05 -1.67435e-06 5.54436e-05 -4.82905e-20 5.54436e-05)
(5.54436e-05 -2.83815e-05 -1.67435e-06 5.54436e-05 -9.01946e-20 5.54436e-05)
(5.71494e-05 -2.92929e-05 -1.75317e-06 5.71494e-05 -4.82592e-20 5.71494e-05)
(5.71494e-05 -2.92929e-05 -1.75317e-06 5.71494e-05 -8.08267e-20 5.71494e-05)
(5.888e-05 -3.0218e-05 -1.83475e-06 5.888e-05 -4.49723e-20 5.888e-05)
(5.888e-05 -3.0218e-05 -1.83475e-06 5.888e-05 -7.44036e-20 5.888e-05)
(6.06344e-05 -3.11561e-05 -1.91913e-06 6.06344e-05 -3.74434e-20 6.06344e-05)
(6.06344e-05 -3.11561e-05 -1.91913e-06 6.06344e-05 -6.88604e-20 6.06344e-05)
(6.24115e-05 -3.21068e-05 -2.00635e-06 6.24115e-05 -3.42653e-20 6.24115e-05)
(6.24115e-05 -3.21068e-05 -2.00635e-06 6.24115e-05 -5.84066e-20 6.24115e-05)
(6.42101e-05 -3.30694e-05 -2.09645e-06 6.42101e-05 -3.24454e-20 6.42101e-05)
(6.42101e-05 -3.30694e-05 -2.09645e-06 6.42101e-05 -4.9374e-20 6.42101e-05)
(6.6029e-05 -3.40431e-05 -2.18946e-06 6.6029e-05 -2.78945e-20 6.6029e-05)
(6.6029e-05 -3.40431e-05 -2.18946e-06 6.6029e-05 -4.07245e-20 6.6029e-05)
(6.7867e-05 -3.50274e-05 -2.28541e-06 6.7867e-05 -1.72078e-20 6.7867e-05)
(6.7867e-05 -3.50274e-05 -2.28541e-06 6.7867e-05 -3.14495e-20 6.7867e-05)
(6.97225e-05 -3.60213e-05 -2.38432e-06 6.97225e-05 -1.52023e-20 6.97225e-05)
(6.97225e-05 -3.60213e-05 -2.38432e-06 6.97225e-05 -2.06793e-20 6.97225e-05)
(7.15942e-05 -3.70242e-05 -2.48621e-06 7.15942e-05 -1.56846e-20 7.15942e-05)
(7.15942e-05 -3.70242e-05 -2.48621e-06 7.15942e-05 -7.65819e-21 7.15942e-05)
(7.34804e-05 -3.80351e-05 -2.5911e-06 7.34804e-05 1.68125e-21 7.34804e-05)
(7.34804e-05 -3.80351e-05 -2.5911e-06 7.34804e-05 5.31501e-21 7.34804e-05)
(7.53795e-05 -3.90531e-05 -2.699e-06 7.53795e-05 4.756e-21 7.53795e-05)
(7.53795e-05 -3.90531e-05 -2.699e-06 7.53795e-05 2.02357e-20 7.53795e-05)
(7.72898e-05 -4.00773e-05 -2.80991e-06 7.72898e-05 7.57351e-21 7.72898e-05)
(7.72898e-05 -4.00773e-05 -2.80991e-06 7.72898e-05 5.193e-20 7.72898e-05)
(7.92094e-05 -4.11067e-05 -2.92383e-06 7.92094e-05 2.56441e-20 7.92094e-05)
(7.92094e-05 -4.11067e-05 -2.92383e-06 7.92094e-05 6.18076e-20 7.92094e-05)
(8.11366e-05 -4.21402e-05 -3.04076e-06 8.11366e-05 4.89126e-20 8.11366e-05)
(8.11366e-05 -4.21402e-05 -3.04076e-06 8.11366e-05 8.77458e-20 8.11366e-05)
(8.30692e-05 -4.31768e-05 -3.16068e-06 8.30692e-05 7.20529e-20 8.30692e-05)
(8.30692e-05 -4.31768e-05 -3.16068e-06 8.30692e-05 1.12958e-19 8.30692e-05)
(8.50054e-05 -4.42152e-05 -3.28358e-06 8.50054e-05 8.96249e-20 8.50054e-05)
(8.50054e-05 -4.42152e-05 -3.28358e-06 8.50054e-05 1.4024e-19 8.50054e-05)
(8.6943e-05 -4.52545e-05 -3.40943e-06 8.6943e-05 1.09874e-19 8.6943e-05)
(8.6943e-05 -4.52545e-05 -3.40943e-06 8.6943e-05 1.60432e-19 8.6943e-05)
(8.88798e-05 -4.62933e-05 -3.5382e-06 8.88798e-05 1.32404e-19 8.88798e-05)
(8.88798e-05 -4.62933e-05 -3.5382e-06 8.88798e-05 1.778e-19 8.88798e-05)
(9.08135e-05 -4.73303e-05 -3.66984e-06 9.08135e-05 1.4975e-19 9.08135e-05)
(9.08135e-05 -4.73303e-05 -3.66984e-06 9.08135e-05 2.02858e-19 9.08135e-05)
(9.2742e-05 -4.83644e-05 -3.80432e-06 9.2742e-05 1.66397e-19 9.2742e-05)
(9.2742e-05 -4.83644e-05 -3.80432e-06 9.2742e-05 2.38549e-19 9.2742e-05)
(9.46628e-05 -4.93943e-05 -3.94158e-06 9.46628e-05 1.8263e-19 9.46628e-05)
(9.46628e-05 -4.93943e-05 -3.94158e-06 9.46628e-05 2.85265e-19 9.46628e-05)
(9.65736e-05 -5.04185e-05 -4.08156e-06 9.65736e-05 2.09281e-19 9.65736e-05)
(9.65736e-05 -5.04185e-05 -4.08156e-06 9.65736e-05 3.24613e-19 9.65736e-05)
(9.84719e-05 -5.14358e-05 -4.22419e-06 9.84719e-05 2.28656e-19 9.84719e-05)
(9.84719e-05 -5.14358e-05 -4.22419e-06 9.84719e-05 3.60682e-19 9.84719e-05)
(0.000100355 -5.24447e-05 -4.36939e-06 0.000100355 2.526e-19 0.000100355)
(0.000100355 -5.24447e-05 -4.36939e-06 0.000100355 4.0645e-19 0.000100355)
(0.000102221 -5.34439e-05 -4.51708e-06 0.000102221 2.9183e-19 0.000102221)
(0.000102221 -5.34439e-05 -4.51708e-06 0.000102221 4.54734e-19 0.000102221)
(0.000104067 -5.4432e-05 -4.66717e-06 0.000104067 3.16344e-19 0.000104067)
(0.000104067 -5.4432e-05 -4.66717e-06 0.000104067 5.1214e-19 0.000104067)
(0.00010589 -5.54075e-05 -4.81956e-06 0.00010589 3.42219e-19 0.00010589)
(0.00010589 -5.54075e-05 -4.81956e-06 0.00010589 5.65563e-19 0.00010589)
(0.000107688 -5.63689e-05 -4.97414e-06 0.000107688 3.83553e-19 0.000107688)
(0.000107688 -5.63689e-05 -4.97414e-06 0.000107688 6.19269e-19 0.000107688)
(0.000109458 -5.73149e-05 -5.1308e-06 0.000109458 4.1241e-19 0.000109458)
(0.000109458 -5.73149e-05 -5.1308e-06 0.000109458 6.81178e-19 0.000109458)