/*--------------------------------*- C++ -*----------------------------------*\
| =========                 |                                                 |
| \\      /  F ield         | OpenFOAM: The Open Source CFD Toolbox           |
|  \\    /   O peration     | Version:  2012                                  |
|   \\  /    A nd           | Website:  www.openfoam.com                      |
|    \\/     M anipulation  |                                                 |
\*---------------------------------------------------------------------------*/
FoamFile
{
    version     2.0;
    format      ascii;
    class       volTensorField;
    location    "12100";
    object      grad(U);
}
// * * * * * * * * * * * * * * * * * * * * * * * * * * * * * * * * * * * * * //

dimensions      [0 0 -1 0 0 0 0];


internalField   nonuniform List<tensor> 
2560
(
(0 -1.29632e-14 1.29337e-13 417.041 0 3.13339 0.604587 -5.42101e-20 0.00536219)
(0 0 1.14289e-18 416.552 0.0233631 0.00025349 0.604588 -0.000381596 -0.0053462)
(0 1.40814e-19 0 415.485 0.000310552 -1.743e-18 1.81746 6.16632e-05 8.67362e-19)
(0 -1.0561e-19 1.12651e-18 415.009 0.14032 -0.00016647 1.81746 6.14579e-05 -0.00760763)
(4.90492e-16 -9.97592e-20 2.22073e-18 414.115 -0.0776945 -1.648 2.48181 2.88621e-05 0.00528887)
(-5.68506e-16 2.34217e-19 -3.33109e-18 413.664 0.0560859 -5.55604e-05 2.4792 2.83549e-05 -0.0052731)
(2.46282e-16 -7.4507e-17 5.47225e-19 412.742 -0.0400897 -1.27785 2.50957 -2.15238e-06 0.0027181)
(0 2.03072e-19 -5.47225e-19 412.327 0.0312013 -1.86996e-05 2.50716 -2.83081e-06 -0.00270999)
(1.10465e-15 -5.42147e-19 1.34845e-18 411.38 -0.016156 -0.602534 2.53768 9.50056e-07 0.00143505)
(0 6.09833e-19 -8.09072e-19 411.007 0.0170521 -5.61946e-06 2.53551 -1.09358e-06 -0.00143077)
(5.88704e-16 -2.03263e-19 3.98738e-19 409.908 -0.0103123 -0.26797 2.56463 7.43283e-07 0.000875277)
(4.71178e-15 2.71017e-19 -3.98738e-19 409.579 0.0104201 -9.97334e-07 2.5627 -6.78449e-07 -0.000872666)
(-7.63171e-16 -1.35522e-19 1.31008e-19 408.121 -0.0071968 -0.134281 2.58929 1.39614e-06 0.00060328)
(3.05362e-15 2.71047e-19 -2.62015e-19 407.835 0.0071195 -3.14525e-07 2.58761 -3.74695e-07 -0.00060148)
(-9.39693e-16 2.03279e-19 -6.4565e-20 405.935 -0.00545263 -0.0764026 2.61155 5.6237e-07 0.000452228)
(2.70174e-15 -1.35561e-19 0 405.691 0.00548024 -1.28365e-07 2.6101 -1.11192e-06 -0.000450879)
(3.20308e-15 -2.03286e-19 1.27279e-19 403.557 -0.0042333 -0.0479067 2.63401 1.55471e-06 0.000358988)
(0 2.71059e-19 -1.27279e-19 403.353 0.00421977 -3.22377e-08 2.6328 -2.90315e-07 -0.000357916)
(-2.05546e-15 2.71002e-19 -1.25455e-19 401.417 -0.00343636 -0.0322465 2.65962 5.487e-07 0.000248832)
(0 -2.03252e-19 6.27275e-20 401.251 0.00362061 -2.72744e-08 2.65864 -1.65609e-06 -0.000295895)
(-1.47771e-15 -4.06595e-19 1.43894e-19 399.582 -0.00294392 -0.0228782 2.68643 2.2207e-06 0.000175873)
(0 4.7434e-19 -1.85485e-19 399.451 0.00295427 -1.22352e-08 2.68566 -2.82121e-07 -0.000252056)
(3.65713e-15 -8.80926e-19 2.56325e-19 397.907 -0.0025609 -0.0168957 2.71463 5.92264e-07 0.000129873)
(-1.99696e-15 8.13199e-19 -2.13298e-19 397.808 0.00269531 -3.03557e-08 2.71406 -1.90484e-06 -0.000219686)
(0 -4.06638e-19 1.20138e-19 396.499 -0.00255845 -0.0129053 2.7456 2.73387e-06 9.92343e-05)
(0 5.42028e-19 -1.20138e-19 396.429 0.0409017 0.000142887 2.74521 -5.96851e-07 -0.00019495)
(-2.03045e-15 3.40445e-19 -1.02291e-19 395.237 -0.0026007 -0.0100543 2.7764 0.000133553 7.83277e-05)
(8.12192e-15 2.40741e-34 5.92079e-20 395.194 -1.38801e-17 1.83197e-06 2.77618 0 -0.000174932)
(0 -4.6754e-17 -1.45898e-19 393.677 -2.07636e-19 -0.00804849 2.80375 0 6.2021e-05)
(0 -6.41952e-19 1.45898e-19 393.657 0.119411 0.000198416 2.80369 -0.000266757 -0.00015997)
(-2.41078e-15 -1.15046e-19 -4.18421e-20 391.474 -0.00283344 -0.00648163 2.82581 0.000561265 5.19853e-05)
(9.64309e-15 0 2.87614e-20 391.474 -2.15923e-17 6.44344e-06 2.82588 -5.90755e-35 -0.000145801)
(0 -3.18253e-17 -1.13397e-19 388.52 3.32069e-17 -0.00526123 2.84249 0 4.11425e-05)
(-1.04181e-14 8.26217e-16 1.13397e-19 388.538 0.0863012 -0.000224174 2.84267 -0.000314765 -0.000136752)
(0 1.67657e-18 -8.38287e-20 385.226 -0.00214983 -0.00442136 2.85947 0.000916055 3.5574e-05)
(-1.11976e-14 -3.8058e-19 8.38287e-20 385.258 -3.42994e-17 2.26116e-06 2.85975 0 -0.000127486)
(3.61004e-15 -2.20339e-19 4.13136e-20 382.577 -0.000449915 -0.00371427 2.88568 -0.000149634 2.98262e-05)
(0 1.06356e-29 -5.50848e-20 382.62 3.7267e-17 -4.68024e-06 2.88604 2.1684e-19 -0.000120448)
(-3.69217e-16 1.08591e-18 -6.92274e-20 381.358 -0.00241615 -0.00314853 2.92453 0.00105004 2.59209e-05)
(-9.19779e-15 -5.81811e-19 1.08591e-19 381.41 -3.63632e-20 8.54576e-07 2.92495 2.1684e-19 -0.000113603)
(0 0 -1.07034e-19 381.438 -0.000192028 -0.00268792 2.97146 -0.000604614 2.20184e-05)
(0 3.16355e-19 1.07034e-19 381.496 3.46747e-17 -5.83401e-06 2.97194 0 -0.000108502)
(-3.58496e-15 -4.22001e-19 2.78956e-20 382.065 -0.00234942 -0.00231054 3.02011 0.00118297 1.9509e-05)
(0 -1.44445e-33 -5.27501e-20 382.129 -4.15924e-17 -1.67093e-07 3.02063 1.75693e-34 -0.000103269)
(3.02703e-15 2.98375e-20 1.18456e-19 382.644 0.000323842 -0.00205972 3.06778 -0.00105455 1.67026e-05)
(0 4.81482e-35 -1.29985e-19 382.712 -7.21562e-36 0.000271004 3.06833 2.1684e-19 -9.94821e-05)
(0 1.63996e-18 -5.12488e-20 383.048 -0.00270888 -0.00172732 3.11514 0.00158304 1.60613e-05)
(-1.59767e-14 -6.58279e-19 8.96854e-20 383.117 -5.48566e-20 5.24824e-06 3.11571 2.1684e-19 -9.4011e-05)
(4.20377e-15 -8.08229e-19 -5.18979e-20 383.377 0.0005081 -0.00151105 3.16308 -0.00193688 1.17876e-05)
(0 4.81482e-35 6.31429e-20 383.447 2.77556e-17 8.88886e-05 3.16366 -2.1684e-19 -9.2541e-05)
(-8.83316e-15 3.5849e-18 -1.07882e-19 383.669 -0.00315383 -0.00129551 3.21127 0.00231201 1.29646e-05)
(0 0 8.7133e-20 383.739 -7.71886e-17 1.0827e-05 3.21186 -1.77963e-34 -8.74538e-05)
(2.03312e-14 1.57045e-18 1.31002e-19 383.836 0.000995216 -0.00105283 3.25857 -0.00274651 8.52613e-06)
(3.70623e-14 0 -9.81533e-20 383.905 8.32667e-17 -0.000264626 3.25915 4.33681e-19 -8.71667e-05)
(0 -3.48288e-18 6.04666e-20 383.753 -0.00338456 -0.000974933 3.30392 0.00283801 9.22423e-06)
(1.94105e-14 0 -6.04666e-20 383.82 -9.20662e-17 6.91118e-06 3.30449 4.33681e-19 -8.41275e-05)
(5.07592e-15 -1.14432e-18 -2.52396e-20 383.383 0.00163058 -0.000849702 3.34755 -0.003004 7.43416e-06)
(0 4.1716e-19 1.192e-20 383.447 1.0429e-19 2.72983e-06 3.34809 0 -8.29963e-05)
(-1.0604e-14 0 -2.03631e-20 382.922 -0.00380183 -0.000741569 3.39254 0.00310165 7.30606e-06)
(-4.24153e-14 -4.30164e-18 0 382.982 1.07541e-19 1.80219e-06 3.39305 0 -8.04319e-05)
(-1.76733e-14 -1.11175e-18 -3.34657e-20 382.929 0.00226504 -0.000648562 3.44573 -0.00327277 5.73486e-06)
(-2.21198e-14 2.27232e-18 0 382.984 9.70309e-17 -1.13037e-05 3.4462 -4.33681e-19 -7.97495e-05)
(-5.98463e-15 3.65273e-18 -1.02733e-19 384.254 -0.00436536 -0.000569621 3.5161 0.00337255 5.84718e-06)
(-1.70526e-14 -1.40327e-18 1.02733e-19 384.303 1.16939e-19 -1.87394e-06 3.51652 0 -7.75858e-05)
(5.89885e-15 1.44015e-18 4.50047e-20 387.735 0.00305219 -0.00049896 3.61112 -0.00354337 4.46234e-06)
(1.80616e-14 0 -4.50047e-20 387.778 -1.23005e-19 -1.39767e-05 3.61149 -4.33681e-19 -7.71994e-05)
(-6.22378e-15 0 -9.83476e-21 393.821 -0.00508621 -0.000437762 3.73341 0.00364461 4.71028e-06)
(0 -9.62965e-35 -2.21798e-20 393.858 -1.08436e-16 -1.2614e-06 3.73373 -4.33681e-19 -7.53544e-05)
(-6.46253e-15 -2.09874e-18 -5.37102e-20 402.374 0.0038817 -0.000457538 3.87989 -0.0038133 3.4436e-06)
(0 0 4.37238e-20 402.406 1.37454e-17 0.000322055 3.88016 -4.33681e-19 -7.51833e-05)
(-1.80068e-14 2.75822e-18 -6.31197e-20 412.737 -0.00607171 -0.000323227 4.04312 0.0042357 5.22511e-06)
(-2.68363e-14 -2.35014e-18 3.23229e-20 412.763 -4.40651e-19 6.71179e-06 4.04335 0 -7.1649e-05)
(6.96596e-15 1.35934e-18 2.72223e-17 423.972 0.0047771 -0.000194704 4.2139 -0.00473067 9.4784e-07)
(0 -3.85186e-33 -3.18596e-20 423.994 1.11022e-16 0.00103691 4.21409 -1.88647e-34 -7.36454e-05)
(7.23479e-15 -5.35944e-18 3.90563e-20 435.139 -0.00710175 -0.000209228 4.38378 0.00615525 9.09094e-06)
(0 -7.70372e-34 -3.1403e-20 435.158 0 2.14771e-05 4.38395 0 -6.4027e-05)
(-7.51626e-15 -1.32066e-18 5.37154e-34 445.548 0.00573678 -2.00577e-18 4.54747 -0.0076866 1.35525e-20)
(0 1.06702e-18 1.03176e-20 445.563 2.22311e-16 0.00042804 4.54761 0 -7.26417e-05)
(-1.06638e-14 6.50864e-18 -3.05093e-20 454.976 -0.00799398 -9.78486e-05 4.7053 0.00949093 1.00088e-05)
(1.06638e-14 -1.31684e-18 3.05093e-20 454.988 -4.44089e-16 2.73042e-05 4.7054 0 -6.05261e-05)
(-8.11417e-15 -2.56614e-18 2.54567e-18 463.873 0.00659772 1.94479e-18 4.86556 -0.0114552 0)
(3.24566e-14 0 -1.0024e-20 463.881 -7.95007e-19 -0.000323712 4.86563 1.10329e-33 -7.21801e-05)
(1.03603e-14 -1.26468e-17 6.91623e-20 473.467 -0.00868165 -2.31903e-06 5.0454 0.0129034 7.33494e-06)
(2.3347e-14 6.31089e-30 -6.91623e-20 473.471 -7.78051e-16 2.22732e-05 5.04541 1.73472e-18 -6.22886e-05)
(8.74601e-15 -4.98622e-18 1.7454e-17 485.627 0.00733738 3.79973e-18 5.26817 -0.0145537 0)
(-3.49841e-14 8.08011e-18 5.84323e-20 485.625 0 -0.000721514 5.26812 0 -7.21965e-05)
(9.07152e-15 -9.82951e-18 4.71651e-20 502.376 -0.00923883 6.92915e-05 5.55665 0.015277 4.21608e-06)
(0 0 -3.83965e-20 502.369 -3.88578e-16 1.16129e-05 5.55654 -1.73472e-18 -6.71964e-05)
(5.15139e-16 2.42216e-18 4.46853e-18 525.186 0.0079715 -5.05062e-21 5.92467 -0.0162173 1.35525e-20)
(-9.92116e-15 0 -2.83847e-20 525.174 4.11942e-16 -0.000310783 5.9245 6.72284e-34 -7.25835e-05)
(-2.38782e-17 7.16232e-18 -2.80227e-20 554.389 -0.00985521 0.000122613 6.37169 0.0166398 3.12884e-06)
(3.90204e-14 -2.61926e-32 1.86519e-20 554.373 -4.02456e-16 6.9921e-06 6.37149 0 -6.98027e-05)
(0 2.35322e-18 5.49799e-18 589.046 0.00865772 1.80249e-18 6.88355 -0.0172801 0)
(4.05048e-14 0 -3.67691e-20 589.029 8.46545e-16 0.000153582 6.88335 -4.62221e-33 -7.32701e-05)
(-1.05269e-14 0 -9.03559e-21 627.291 -0.0105707 0.000171513 7.43758 0.0178615 4.60708e-06)
(0 -7.70372e-34 -9.06053e-21 627.276 0 9.09311e-06 7.43742 0 -6.95124e-05)
(-1.09634e-14 0 0 666.998 0.00940571 -7.38966e-47 8.0113 -0.0186657 1.35525e-20)
(0 3.08149e-32 -1.78613e-20 666.988 4.47525e-16 0.00323817 8.01124 6.34562e-34 -7.42582e-05)
(1.84605e-14 -4.50697e-18 1.76053e-20 706.307 -0.0105204 0.00023921 8.58563 0.0224214 2.42018e-05)
(-1.84605e-14 4.62223e-32 -1.76053e-20 706.307 -6.69245e-16 5.5374e-05 8.5857 -3.46945e-18 -4.71608e-05)
(-3.01548e-14 8.88474e-18 1.46058e-17 743.396 0.00987954 -1.83787e-18 9.1364 -0.0264823 0)
(0 1.54074e-32 -3.4706e-20 743.412 2.22045e-16 -0.00118571 9.1367 0 -7.57389e-05)
(-1.79352e-14 2.62722e-17 -6.84172e-20 775.482 -0.00974912 0.0003673 9.61862 0.0289723 1.85608e-05)
(-5.01034e-14 -2.0102e-17 5.13129e-20 775.518 -5.57122e-16 9.81198e-05 9.6192 0 -5.76297e-05)
(-1.31477e-14 2.15797e-17 6.556e-18 797.487 0.00907806 0.000631613 9.94779 -0.0317758 3.8737e-06)
(5.25902e-14 0 -6.74366e-20 797.551 1.38337e-15 -0.0013916 9.94879 6.93889e-18 -7.76398e-05)
(0 2.55245e-17 -6.64701e-20 800.877 -0.00896011 0.000665596 9.98537 0.0325958 1.27563e-05)
(0 0 6.64701e-20 800.979 -9.14152e-31 0.000214225 9.9869 -6.27728e-34 -7.16098e-05)
(-3.17631e-14 -2.09656e-17 -5.91243e-20 773.215 0.006147 0.000854958 9.53564 -0.0336911 8.80348e-06)
(7.55263e-14 0 4.9138e-20 773.364 7.40712e-16 0.000954971 9.53785 0 -8.05543e-05)
(3.08233e-14 -1.65321e-17 2.92892e-20 699.276 -0.00894088 0.00126425 8.36992 0.0348138 2.36915e-05)
(6.16449e-14 -4.93038e-32 -1.61446e-20 699.48 -7.46985e-16 0.000377439 8.37294 9.95212e-33 -7.08413e-05)
(1.66862e-14 8.14755e-18 6.36528e-20 564.014 0.00179645 0.00155798 6.2739 -0.0362564 1.6751e-05)
(0 -5.85483e-32 -6.36528e-20 564.281 8.32667e-16 0.00121606 6.27784 -2.2614e-33 -8.64136e-05)
(-7.10206e-16 -8.03078e-18 1.07628e-20 356.941 -0.00777839 0.00205523 3.11526 0.0377609 3.75924e-05)
(-1.6447e-14 1.17097e-31 -3.13702e-20 357.278 -1.66795e-15 0.000389613 3.12018 6.93889e-18 -7.28497e-05)
(-1.62333e-12 -2.3747e-17 -6.68334e-20 0.433302 -0.00119131 0.0023132 0.00289789 -0.0397364 2.41931e-05)
(0 3.08149e-33 7.73015e-20 1.42109e-14 5.55112e-17 0.000658204 -1.16104e-29 3.82669e-33 -9.76673e-05)
(2.11201e-12 0 -5.33207e-21 -160.214 -0.00270851 0.00255954 1.08708 0.0414773 4.5428e-05)
(0 0 -1.52387e-20 -159.34 -2.87791e-18 0.000112284 1.08115 0 -8.36344e-05)
(-1.64562e-14 7.6904e-18 1.76424e-20 -642.162 -0.00186895 0.0025801 6.12353 -0.0438416 2.54721e-05)
(6.58287e-14 0 -6.00812e-20 -641.628 8.83888e-16 -0.000621062 6.11662 5.51212e-33 -0.000114594)
(6.32268e-16 7.58018e-18 -6.84196e-20 -1021.9 0.00459034 0.00231526 11.5982 0.0454641 3.93064e-05)
(-1.55242e-14 -6.18486e-32 0 -1021.31 -8.91333e-16 -0.000315939 11.5904 0 -0.000105377)
(-2.59308e-14 -2.24146e-17 -1.19358e-19 -1365.32 -0.00308656 0.00205815 16.9883 -0.0477025 1.88781e-05)
(-5.18664e-14 2.64815e-17 8.7557e-20 -1364.69 3.31018e-18 -0.00167103 16.9797 0 -0.000133233)
(-2.15948e-14 -2.94578e-17 8.4576e-20 -1638.24 0.00946626 0.00141885 21.7419 0.048882 2.19418e-05)
(8.63894e-14 0 -5.75347e-20 -1637.57 -9.40298e-16 -0.000570902 21.7326 4.38596e-30 -0.000131582)
(-2.55887e-14 -5.08123e-17 -2.28157e-19 -1817.13 -0.00717354 0.00104716 25.3905 -0.0505129 8.5092e-06)
(-3.41236e-14 1.40208e-17 1.7013e-19 -1816.45 1.92949e-15 -0.00139836 25.3807 -6.93889e-18 -0.000147659)
(-2.09539e-14 -5.0084e-17 2.12288e-18 -1892.53 0.0105154 2.81893e-18 27.6355 0.0512431 0)
(3.98617e-14 0 -1.67692e-19 -1891.86 9.50801e-16 0.0015483 27.6255 2.79524e-30 -0.000149307)
(4.2281e-15 2.11569e-17 1.00944e-19 -1868.81 -0.0117932 -0.000110227 28.382 -0.0509215 5.29171e-06)
(0 0 -8.26442e-20 -1868.19 7.0671e-18 0.000395184 28.3723 -6.93889e-18 -0.000136923)
(0 -4.86586e-17 2.02471e-20 -1761.15 0.00987368 -3.3963e-20 27.7276 0.0511627 0)
(9.5857e-15 0 -1.35766e-19 -1760.64 8.88178e-16 0.000822476 27.7189 -6.93889e-18 -0.000145656)
(0 6.8516e-18 2.67641e-20 -1590.73 -0.0140042 -0.000429243 25.91 -0.0506476 1.37835e-05)
(3.40309e-15 6.16298e-33 -2.67641e-20 -1590.39 -9.4369e-16 0.000139996 25.9032 6.93889e-18 -0.000127547)
(-3.45774e-15 6.7534e-18 -6.01853e-36 -1379.92 0.00933778 -2.04003e-33 20.4174 0.0506411 2.71051e-20)
(-3.45774e-15 1.2326e-32 2.63805e-20 -1379.83 -2.77556e-17 6.37701e-05 20.4174 -9.34775e-33 -0.000141478)
(0 -4.65963e-17 -1.04009e-19 -1148.8 -0.0134342 -0.00036557 10.4118 -0.0502135 1.38193e-05)
(0 1.57916e-14 1.04009e-19 -1149.02 -1.72085e-15 -4.39977e-06 10.4117 6.93889e-18 -0.00012353)
(0 0 4.81482e-34 -913.186 0.00874367 -3.45014e-18 2.15558 0.0501893 5.3578e-36)
(0 0 0 -913.765 1.78332e-15 0.00312128 2.15554 0 -0.000138832)
(0 4.04198e-19 -3.78935e-20 -684.309 -0.0102707 -0.0166664 -4.31627 -0.00273184 -3.53731e-05)
(0 -5.04871e-29 1.54074e-33 -685.181 0 1.19262e-18 -4.31631 -1.10517e-28 2.58243e-33)
(0 1.59362e-18 -1.55627e-21 -469.404 0.00887734 -0.00022978 -6.12545 0.00246173 3.08343e-06)
(-1.60946e-15 3.85186e-34 0 -470.419 -4.12921e-17 -0.00412041 -6.14304 -4.33681e-19 -3.08342e-06)
(1.25827e-15 -1.37326e-16 0 -272.69 3.46945e-17 -0.000214269 -3.04273 0 -3.11027e-06)
(0 0 0 -273.739 -0.0157927 -5.12289e-20 -3.06047 -0.000133065 -5.9902e-38)
(-2.23988e-12 1.35473e-18 -3.02395e-21 -27.5373 0.0076846 -0.000210993 -0.235395 0.0017314 2.42017e-06)
(4.41164e-12 -4.78313e-15 0 -29.5517 0 -0.000296302 -0.252614 0 -2.42016e-06)
(-1.90921e-15 -2.23925e-16 1.49031e-21 3.81842e-15 -4.75318e-19 -0.000187129 -1.77636e-15 2.1684e-19 -2.45617e-06)
(3.65111e-12 3.81518e-19 -3.40861e-22 0.195583 -0.0613171 -1.38934e-20 -0.00169619 -0.00141507 0)
(0 -3.7605e-19 0 190.845 0.0064629 -0.000181455 -2.27092 0.00118018 1.6687e-06)
(0 1.54074e-33 0 189.947 -1.40412e-17 -0.000273193 -2.25457 -9.76434e-34 -1.66868e-06)
(1.29735e-16 -9.1979e-17 1.44789e-21 301.961 7.3497e-19 -0.000158349 -4.46158 0 -1.7031e-06)
(0 5.55991e-19 -2.36354e-22 301.151 -0.0397421 2.36354e-22 -4.44635 -0.000956613 0)
(1.25131e-16 8.22033e-19 -1.42714e-21 392.474 0.00541153 -0.00015102 -6.33384 0.00080088 1.01872e-06)
(0 -1.85821e-15 1.42714e-21 391.782 -6.82811e-18 -0.000227333 -6.32015 0 -1.01871e-06)
(0 -2.25787e-16 0 463.873 -9.0715e-20 -0.000127811 -3.29086 -1.0842e-19 -1.04653e-06)
(0 -9.00279e-20 -5.80944e-22 463.351 -0.0230041 -3.6786e-21 -3.29084 -0.000656351 0)
(0 -3.5495e-19 0 518.123 0.00459718 -0.000116276 1.28845 0.000563055 4.87174e-07)
(0 0 0 517.834 -7.77742e-20 -0.000168093 1.28848 0 -5.30346e-08)
(0 -5.90661e-17 6.83326e-22 557.514 7.80626e-18 -9.16034e-05 6.36957 5.42101e-20 -5.05094e-07)
(0 -6.1226e-19 0 557.458 -0.0109739 0 6.36961 -0.000481756 4.21426e-34)
(4.67885e-17 6.03485e-19 1.0103e-21 584.342 0.00390028 -8.17684e-05 11.4986 0.000434589 1.12612e-07)
(1.85101e-16 -7.9479e-19 -6.66928e-22 584.462 6.19141e-18 1.15146e-05 11.5023 5.42101e-20 6.84604e-07)
(0 -4.82864e-17 0 600.622 -5.63785e-18 -6.51598e-05 11.8906 -5.42101e-20 -1.18669e-07)
(0 2.54929e-19 3.31939e-22 600.858 -0.00291884 4.05151e-05 11.8961 -0.000395794 8.94444e-07)
(3.90625e-15 -1.17262e-18 -1.96309e-21 607.931 0.00340966 -1.2907e-06 12.1263 0.000384901 -5.79327e-07)
(8.39159e-16 0 9.62965e-35 608.228 5.21887e-20 3.24313e-22 12.1325 5.42101e-20 0)
(-7.82299e-15 -8.43894e-17 9.67477e-22 607.306 -5.25558e-18 7.73445e-05 12.2137 0 7.36086e-09)
(-9.64632e-15 -3.30232e-19 -1.61391e-21 607.621 -0.00130147 -3.68225e-06 12.2201 -0.000373268 4.23581e-07)
(3.26881e-15 -4.88249e-19 -1.27148e-21 599.25 0.00296764 9.22418e-05 12.1515 0.000351894 -1.10656e-08)
(1.30719e-14 0 1.9999e-21 599.556 0 1.22817e-05 12.1576 0 2.17827e-07)
(-4.14283e-15 -6.98935e-17 1.25326e-21 583.831 4.85986e-18 0.000118418 11.9308 0 4.88093e-09)
(1.65683e-14 -1.04271e-18 -9.8865e-22 584.112 -0.00249001 1.23836e-05 11.9363 -0.000324912 2.93561e-07)
(-5.02524e-15 0 0 560.861 0.00244608 0.000139134 11.5391 0.000308499 -1.06803e-08)
(0 -1.21834e-16 0 561.11 3.86072e-18 6.53673e-05 11.5441 0 4.39612e-07)
(-5.90583e-15 -2.9861e-17 0 530.099 3.50846e-18 0.000164845 10.9647 -5.42101e-20 2.43447e-09)
(0 1.16889e-19 0 530.317 -0.00220204 0.000124113 10.969 -0.000284116 -2.382e-09)
(-6.77272e-15 -6.14471e-19 0 491.48 0.00198712 0.000178631 10.2014 0.000268853 -1.06196e-08)
(2.70888e-14 0 0 491.669 1.79941e-19 0.000178868 10.2053 0 1.05304e-08)
(1.75354e-14 -7.79818e-17 0 445.32 -6.10585e-18 0.000189254 9.25386 0 5.85863e-11)
(-9.9232e-15 4.54248e-19 0 445.484 -0.00195206 0.000189257 9.25721 -0.000250326 -2.04252e-12)
(9.78098e-15 -3.35803e-19 2.33197e-21 392.464 0.00165073 0.000183755 8.13964 0.000232543 -1.08094e-08)
(0 -7.70372e-34 0 392.607 2.85077e-18 0.000183967 8.14262 7.24921e-35 1.07108e-08)
(-9.14742e-15 -2.12894e-17 0 334.311 2.47152e-19 0.00017174 6.88999 0 -2.15584e-09)
(0 5.5165e-19 0 334.437 -0.00168586 0.000171756 6.89264 -0.000221543 2.22058e-09)
(9.50261e-15 -1.34123e-18 0 272.765 0.0014095 0.000143682 5.54881 0.000200296 -1.1127e-08)
(7.84912e-14 0 0 272.875 2.38524e-18 0.000143867 5.55117 1.82356e-32 1.10153e-08)
(-9.36642e-15 -1.62539e-17 -2.23313e-21 210.138 0 0.000112338 4.17096 0 -4.14616e-09)
(4.1551e-14 1.4292e-19 0 210.234 -0.00136378 0.000112358 4.17306 -0.000196156 4.2233e-09)
(-2.933e-14 1.19741e-18 0 148.94 0.00126247 7.23728e-05 2.8157 0.000173805 -1.14722e-08)
(-3.42293e-14 -1.12901e-16 0 149.024 -4.73352e-20 7.25277e-05 2.81753 0 1.1343e-08)
(6.9619e-15 -1.2122e-17 3.96851e-19 91.6327 -1.95156e-18 1.99312e-06 1.54214 -2.71051e-20 -5.86302e-09)
(-6.31501e-14 -5.90124e-19 -1.66245e-18 91.704 -0.00107998 -6.77957e-21 1.5437 -0.0001724 0)
(1.60021e-13 5.4745e-19 0 33.4606 0.00115455 -4.31594e-07 0.404463 0.000152633 -1.17812e-08)
(0 -3.26571e-19 0 33.5682 1.6933e-18 -3.06039e-07 0.405764 0 1.16288e-08)
(-1.57772e-30 -1.9696e-17 5.64126e-19 -9.44834e-13 1.73472e-18 -2.40783e-06 -1.60802e-30 0 -7.29219e-09)
(-8.1222e-14 -3.37253e-19 7.34684e-40 -0.019635 -0.000877512 -8.18234e-23 0.000240794 -0.000149629 -7.13786e-40)
(-5.95639e-15 1.32968e-18 -4.15524e-21 -37.0603 0.00102674 -4.90245e-05 0.552917 0.000135208 -1.20396e-08)
(0 0 0 -37.0245 3.65542e-20 -4.89232e-05 0.551888 2.71051e-20 1.18567e-08)
(-1.71785e-14 -1.64384e-17 0 -61.4107 -1.30104e-18 -5.88836e-05 1.29685 0 -8.47322e-09)
(1.07409e-13 1.68742e-18 0 -61.3864 -0.000739538 -5.88699e-05 1.29609 -0.000128564 8.6275e-09)
(0 -3.39106e-19 0 -75.8176 0.000845264 -6.4154e-05 1.80753 0.000120221 -1.22903e-08)
(8.86601e-14 0 0 -75.8043 1.44182e-18 -6.40682e-05 1.80705 9.19127e-35 1.20673e-08)
(-2.18014e-14 3.37038e-34 0 -80.6358 1.22238e-18 -6.07528e-05 2.0782 3.13601e-35 -9.49725e-09)
(0 1.27332e-19 0 -80.6331 -0.000653485 -6.07335e-05 2.07799 -0.000110835 9.697e-09)
(-1.07493e-14 0 0 -76.5891 0.000679305 -5.58321e-05 2.1127 0.000106566 -1.26189e-08)
(8.59944e-14 -2.88889e-34 0 -76.596 -1.0842e-18 -5.57512e-05 2.11276 -5.28448e-35 1.23434e-08)
(1.06419e-14 -1.80672e-17 0 -64.6746 -1.0585e-18 -4.66182e-05 1.92416 0 -1.04908e-08)
(0 5.41222e-19 0 -64.6901 -0.000590758 -4.65849e-05 1.92446 -9.63703e-05 1.07503e-08)
(-1.05899e-14 0 0 -46.0612 0.000558374 -3.8529e-05 1.53262 9.37851e-05 -1.3143e-08)
(0 0 0 -46.0838 7.61484e-35 -3.84416e-05 1.53315 1.35525e-20 1.27988e-08)
(-1.06021e-14 -9.62965e-35 0 -17.7674 0 -2.84301e-05 0.963025 -6.61799e-35 -1.15988e-08)
(4.24081e-14 -4.65726e-19 0 -17.8284 -0.000520962 -2.83745e-05 0.963729 -8.42537e-05 1.19363e-08)
(-1.31108e-13 6.66364e-19 0 0.0179288 0.000480958 -1.97513e-05 0.590183 8.21959e-05 -1.39966e-08)
(2.70205e-14 0 -1.85101e-21 7.67544e-13 7.58942e-19 -1.9647e-05 0.589263 0 1.35629e-08)
(-2.11016e-14 0 0 36.8538 0 -4.27084e-06 1.50501 -1.35525e-20 -1.2969e-08)
(0 7.29792e-20 0 36.8209 -0.000431107 -4.38296e-06 1.50407 -7.35039e-05 1.34079e-08)
(-1.05227e-14 6.76173e-19 0 68.8356 0.00040831 3.37313e-06 2.45968 7.25018e-05 -1.53187e-08)
(0 -1.47927e-17 0 68.8035 -7.04731e-19 3.50334e-06 2.45878 0 1.47688e-08)
(0 -6.42296e-18 0 100.516 5.42101e-20 1.84584e-05 3.41053 -6.77626e-21 -1.47383e-08)
(-4.22461e-14 4.04143e-19 0 100.487 -0.000354743 1.85809e-05 3.40972 -6.41562e-05 1.53084e-08)
(2.53293e-14 -5.38123e-19 0 130.351 0.000367426 3.56156e-05 4.31024 6.44883e-05 -1.72297e-08)
(2.80369e-14 -1.54074e-33 0 130.326 0 3.57771e-05 4.30958 6.77626e-21 1.65293e-08)
(2.53074e-14 -9.16023e-18 0 156.795 -4.87891e-19 5.53548e-05 5.10969 6.77626e-21 -1.70024e-08)
(-5.78915e-14 5.44187e-19 0 156.776 -0.000340385 5.55156e-05 5.10921 -5.54301e-05 1.77417e-08)
(-1.11255e-14 4.00593e-19 0 178.377 0.00029377 7.38385e-05 5.7607 5.64329e-05 -1.98006e-08)
(4.45021e-14 1.20371e-34 0 178.364 -4.33681e-19 7.40324e-05 5.76043 6.77626e-21 1.89054e-08)
(0 -1.84219e-18 0 193.786 0 9.42817e-05 6.2186 0 -1.97967e-08)
(0 -2.74388e-19 0 193.781 -0.000280342 9.44775e-05 6.21854 -4.84092e-05 2.07541e-08)
(-2.76676e-14 4.02385e-19 -3.29824e-21 201.968 0.000235209 0.000113517 6.44619 4.9799e-05 -2.30248e-08)
(4.74462e-14 2.40741e-35 0 201.97 2.71051e-20 0.000113737 6.44634 -2.0575e-35 2.18776e-08)
(2.59484e-14 -5.52016e-18 0 202.231 -3.25261e-19 0.000134011 6.41756 0 -2.30476e-08)
(-1.36355e-14 4.74641e-19 0 202.238 -0.000234591 0.000134231 6.4179 -4.27927e-05 2.42864e-08)
(-1.34401e-14 5.38335e-19 0 194.332 0.000222612 0.000155355 6.12161 4.42741e-05 -2.67881e-08)
(-5.11967e-14 -6.79635e-18 -3.20437e-21 194.346 -1.07524e-20 0.00015559 6.12211 6.77626e-21 2.53144e-08)
(-1.32475e-14 -1.32348e-18 -3.15845e-21 178.535 2.71051e-19 0.00018102 5.5637 -6.77626e-21 -2.65672e-08)
(0 4.04281e-19 0 178.552 -0.00017736 0.00018125 5.56433 -3.72305e-05 2.81691e-08)
(0 4.04713e-19 0 155.616 0.000231662 0.000212168 4.76747 4.0338e-05 -3.08771e-08)
(0 -6.91239e-18 -6.22635e-21 155.637 1.91059e-20 0.0002124 4.7682 0 2.89806e-08)
(1.42668e-14 -4.99319e-19 0 126.841 -1.35525e-20 0.000252495 3.77339 -3.38813e-21 -3.00633e-08)
(0 -1.08627e-18 0 126.864 -0.000123089 0.000252715 3.77417 -3.10455e-05 3.21322e-08)
(-1.06855e-14 4.05293e-19 0 93.8678 0.000224213 0.000302307 2.63629 3.80169e-05 -3.50119e-08)
(0 -6.44365e-18 0 93.8909 -2.71051e-19 0.000302517 2.63709 -6.77626e-21 3.25683e-08)
(-3.00762e-14 -3.00927e-36 0 58.6163 3.25261e-19 0.000363497 1.4209 3.01635e-36 -3.31993e-08)
(6.0152e-14 0 0 58.6392 -9.99161e-05 0.00036369 1.42169 -2.48018e-05 3.5866e-08)
(7.91797e-14 0 0 11.1169 0.000159807 0.000432365 0.195586 3.63608e-05 -3.89252e-08)
(0 0 0 11.1593 -1.5007e-34 0.000432541 0.196332 3.38813e-21 3.57752e-08)
(2.50699e-13 -2.05137e-18 0 -0.0202114 -1.21973e-19 0.000506988 0.000360761 -1.69407e-21 -3.56858e-08)
(-3.15544e-30 -3.38877e-19 0 -8.59757e-13 -0.000128913 0.000507144 0 -2.05402e-05 3.91131e-08)
(0 5.42425e-19 0 -41.3029 4.49207e-05 0.000579385 0.972861 3.35896e-05 -4.24549e-08)
(0 -5.38849e-19 0 -41.2853 2.03765e-19 0.000579521 0.972182 -3.38813e-21 3.83957e-08)
(-2.36051e-14 -2.39978e-18 -1.12558e-20 -67.2358 4.09769e-21 0.000641955 2.02656 -1.69407e-21 -3.73681e-08)
(0 -3.37674e-19 0 -67.2211 -0.000225015 0.000642075 2.02597 -2.02461e-05 4.176e-08)
(0 5.4363e-19 0 -87.7702 -7.07856e-05 0.000685359 2.92101 2.72143e-05 -4.56102e-08)
(1.16252e-13 0 -1.10945e-20 -87.7585 -1.21973e-19 0.000685461 2.92052 7.15022e-34 4.03863e-08)
(-2.83631e-14 0 0 -102.623 5.42101e-20 0.000700386 3.62805 0 -3.82505e-08)
(5.67265e-14 0 0 -102.615 -0.00032514 0.000700477 3.62767 -2.42001e-05 4.38673e-08)
(1.38236e-14 -4.06897e-19 0 -112.009 -0.000173534 0.000677236 4.13826 1.69012e-05 -4.85669e-08)
(0 0 0 -112.004 0 0.000677316 4.13799 0 4.18598e-08)
(0 -4.15797e-18 0 -116.552 1.70016e-19 0.000611827 4.45987 -3.38813e-21 -3.84503e-08)
(-7.61589e-14 -6.90576e-20 0 -116.548 -0.000342572 0.000611901 4.4597 -3.21619e-05 4.56307e-08)
(-1.31276e-14 -1.08385e-18 0 -117.163 -0.000151009 0.000503292 4.6157 5.69256e-06 -5.1591e-08)
(5.25106e-14 -7.70372e-34 0 -117.161 1.7197e-33 0.000503361 4.61561 -4.20955e-06 4.30088e-08)
(0 -2.5177e-18 0 -114.921 -2.43945e-19 0.000355973 4.63913 0 -3.80778e-08)
(-1.08233e-14 -3.35461e-19 0 -114.921 -0.000253783 0.000356039 4.63911 -3.94298e-05 4.72635e-08)
(0 -4.06958e-19 1.22524e-19 -110.943 -2.26273e-05 0.000172221 4.56997 -2.16124e-06 -5.49511e-08)
(0 -3.66306e-21 0 -110.944 -1.80216e-19 0.000172416 4.57 -1.31976e-05 4.40134e-08)
(-1.2203e-14 1.39931e-34 0 -106.255 5.01387e-19 -9.08994e-06 4.44927 1.40273e-36 -3.71488e-08)
(0 0 -9.51236e-38 -106.256 -5.93421e-05 -3.42719e-22 4.44932 -4.16623e-05 0)
(-1.34802e-14 -1.49254e-18 1.97688e-20 -101.7 0.000173146 -0.000208931 4.31432 -2.05236e-06 -5.88511e-08)
(9.53788e-14 -2.00491e-21 0 -101.701 -1.0842e-19 -0.00020887 4.31438 -1.44469e-05 4.49663e-08)
(0 -4.28814e-21 0 -97.8922 2.33993e-19 -0.000384949 4.19565 0 -3.55208e-08)
(-1.0216e-14 -3.40996e-19 0 -97.8928 0.000134913 -0.00038489 4.19569 -3.57593e-05 5.05732e-08)
(-1.00696e-14 5.43775e-19 0 -95.1971 0.000309937 -0.000529765 4.11504 6.52678e-06 -6.34194e-08)
(-2.01391e-14 -1.53262e-19 0 -95.1969 -5.42101e-20 -0.000529711 4.11506 -7.50385e-06 4.58497e-08)
(-3.32823e-14 7.52316e-35 1.89309e-20 -93.7397 1.35049e-19 -0.000633013 4.08472 3.38813e-21 -3.29177e-08)
(1.08603e-13 1.62569e-18 0 -93.7388 0.000223427 -0.000632964 4.08469 -2.38019e-05 5.21519e-08)
(0 -1.6263e-18 0 -93.435 0.000321594 -0.000690449 4.10731 1.9506e-05 -6.87436e-08)
(8.64479e-14 0 0 -93.4333 1.93973e-21 -0.000690409 4.10725 4.43836e-33 4.65605e-08)
(-1.05064e-14 0 0 -94.0377 4.72278e-20 -0.000702846 4.17715 2.94772e-37 -2.89864e-08)
(0 -6.77061e-19 -1.83921e-20 -94.0355 0.000179879 -0.000702811 4.17707 -1.09984e-05 5.34909e-08)
(1.01947e-14 -1.62704e-18 0 -95.1982 0.000226817 -0.000675888 4.28224 3.12657e-05 -7.49414e-08)
(8.15579e-14 0 0 -95.1956 0 -0.000675865 4.28213 0 4.69739e-08)
(0 -3.85186e-34 0 -96.518 1.34935e-20 -0.000617907 4.40618 0 -2.33546e-08)
(3.94872e-14 1.08413e-18 0 -96.5153 6.50094e-05 -0.00061789 4.40606 -2.16452e-06 5.4459e-08)
(3.06047e-16 -5.41588e-19 0 -97.61 8.41849e-05 -0.000540609 4.53076 3.8509e-05 -8.22406e-08)
(9.23408e-15 0 0 -97.6074 -1.01644e-19 -0.000540603 4.53064 -7.51604e-35 4.70194e-08)
(1.84066e-14 -2.69584e-22 0 -98.1391 8.47033e-21 -0.000453783 4.63857 4.85639e-07 -1.56624e-08)
(2.77115e-14 -4.05794e-19 -8.68008e-21 -98.1368 -4.65577e-05 -0.000453782 4.63845 2.08801e-07 5.49968e-08)
(8.97128e-15 5.43285e-19 0 -97.8492 -1.25702e-05 -0.000366547 4.71428 4.12342e-05 -9.10253e-08)
(-8.97128e-15 5.01208e-36 -4.27784e-21 -97.8474 -9.02897e-21 -0.000366556 4.71418 0 4.67211e-08)
(0 -8.84146e-19 4.21653e-21 -96.586 -2.94265e-20 -0.000285459 4.74622 0 -5.54672e-09)
(3.41277e-14 4.06368e-19 0 -96.5848 -0.00011008 -0.000221345 4.74614 -2.04636e-06 5.51179e-08)
(1.64129e-14 -4.07297e-19 0 -94.3029 -5.11811e-05 -0.000215027 4.72757 4.16496e-05 -1.01856e-07)
(0 4.81482e-35 0 -94.3024 -6.77626e-20 -5.46516e-05 4.72752 1.69407e-21 1.63014e-06)
(7.89324e-15 -1.27745e-18 -4.09652e-21 -91.0503 -7.42312e-20 -0.000156837 4.6564 -1.69407e-21 7.39049e-09)
(4.0164e-14 1.0842e-18 6.07537e-21 -91.0505 -0.00011706 9.99423e-06 4.6564 -6.30401e-06 4.8644e-07)
(0 -1.08415e-18 -6.05672e-21 -86.9626 -4.51271e-05 -0.000111194 4.53528 4.2614e-05 -1.15448e-07)
(3.03814e-14 3.85186e-34 9.00705e-21 -86.9635 -2.27856e-20 9.83925e-06 4.53531 4.07442e-34 5.21642e-07)
(-7.31484e-15 -2.95103e-19 0 -82.2433 0 -5.90729e-05 4.37106 -3.38813e-21 2.36379e-08)
(-2.92593e-14 4.06451e-19 -3.69903e-21 -82.2448 -9.64017e-05 9.67416e-06 4.37112 -1.03863e-05 4.83409e-07)
(-1.52794e-14 -4.90362e-22 -1.96145e-21 -77.1402 -2.09768e-05 -7.18801e-06 4.17415 4.57624e-05 3.31828e-07)
(0 0 1.96145e-21 -77.1421 -2.71051e-20 9.46665e-06 4.17424 3.76324e-35 5.14886e-07)
(-6.80805e-15 -1.6286e-19 0 -71.9222 -1.42302e-19 6.27616e-06 3.95716 0 1.22538e-06)
(-2.72321e-14 3.38334e-19 -2.66723e-21 -71.9243 -7.28294e-05 9.2644e-06 3.95727 -1.33121e-05 4.75779e-07)
(0 -4.06553e-19 0 -66.8636 3.48144e-07 6.94275e-06 3.73423 5.15735e-05 1.40214e-06)
(0 0 3.81125e-21 -66.8657 1.01273e-21 8.99339e-06 3.73435 2.11758e-22 5.00345e-07)
(0 -1.20491e-19 -1.87831e-21 -62.2297 0 6.07906e-06 3.52014 -6.77626e-21 2.06657e-06)
(6.66788e-14 6.10452e-19 1.32246e-20 -62.2316 -5.36519e-05 8.76132e-06 3.52025 -1.51397e-05 4.6398e-07)
(-6.16069e-15 5.41995e-19 3.70278e-21 -58.2645 1.49475e-05 6.88427e-06 3.32974 6.01907e-05 1.96891e-06)