/*--------------------------------*- C++ -*----------------------------------*\
| =========                 |                                                 |
| \\      /  F ield         | OpenFOAM: The Open Source CFD Toolbox           |
|  \\    /   O peration     | Version:  2012                                  |
|   \\  /    A nd           | Website:  www.openfoam.com                      |
|    \\/     M anipulation  |                                                 |
\*---------------------------------------------------------------------------*/
FoamFile
{
    version     2.0;
    format      ascii;
    class       volScalarField;
    location    "12100";
    object      k;
}
// * * * * * * * * * * * * * * * * * * * * * * * * * * * * * * * * * * * * * //

dimensions      [0 2 -2 0 0 0 0];


internalField   nonuniform List<scalar> 
2560
(
0.0143472
0.0143359
0.409521
0.409223
2.73938
2.73761
7.55739
7.55366
12.7299
12.7249
17.3123
17.3065
21.3443
21.3378
24.973
24.9659
28.3081
28.3005
31.4236
31.4156
34.3704
34.3619
37.1845
37.1755
39.8923
39.8829
42.5138
42.504
45.0646
45.0545
47.5572
47.5466
50.0016
49.9907
52.4063
52.395
54.7784
54.7667
57.124
57.1119
59.4483
59.4359
61.7558
61.743
64.0504
64.0373
66.3358
66.3223
68.6152
68.6013
70.8914
70.8771
73.1673
73.1526
75.4454
75.4303
77.7281
77.7126
80.0177
80.0018
82.3165
82.3002
84.6264
84.6097
86.9496
86.9324
89.2876
89.27
91.6419
91.6238
94.0137
93.9952
96.404
96.385
98.8135
98.794
101.243
101.223
103.694
103.673
106.166
106.145
108.66
108.638
111.178
111.156
113.719
113.696
116.283
116.26
118.868
118.845
121.473
121.448
124.092
124.066
126.719
126.693
129.349
129.322
131.973
131.946
134.584
134.556
137.174
137.146
139.738
139.709
142.276
142.246
144.797
144.766
147.324
147.291
149.893
149.859
152.547
152.512
155.317
155.281
158.2
158.162
161.108
161.069
163.892
163.852
166.346
166.305
168.253
168.213
169.439
169.398
169.804
169.764
169.345
169.307
168.141
168.105
166.329
166.296
164.071
164.04
161.526
161.497
158.834
158.807
156.107
156.082
153.423
153.399
150.833
150.809
148.361
148.339
146.011
145.99
143.769
143.749
141.613
141.594
139.517
139.499
137.453
137.437
135.394
135.38
133.318
133.305
131.203
131.192
129.035
129.026
126.801
126.793
124.493
124.486
122.107
122.101
119.644
119.639
117.11
117.105
114.513
114.51
111.869
111.866
109.195
109.192
106.512
106.51
103.841
103.839
101.201
101.199
98.6105
98.6086
96.0812
96.0794
93.6218
93.6201
91.2365
91.235
88.9256
88.9242
86.6873
86.686
84.5191
84.5179
82.4186
82.4175
80.3843
80.3833
78.4161
78.4152
76.5148
76.5139
74.6815
74.6808
72.9177
72.917
71.2233
71.2227
69.5966
69.596
68.0338
68.0333
66.5288
66.5283
65.073
65.0726
63.6569
63.6566
62.2703
62.27
60.9041
60.9039
59.5518
59.5516
58.2104
58.2103
56.881
56.881
55.5687
55.5687
54.2816
54.2816
53.0291
53.0292
51.8206
51.8206
50.6632
50.6632
49.5615
49.5616
48.5156
48.5156
47.5224
47.5224
46.5768
46.5769
45.6728
45.6729
44.8044
44.8045
43.9669
43.967
43.157
43.1571
42.3731
42.3732
41.6149
41.6149
40.8828
40.8828
40.1776
40.1776
39.5003
39.5003
38.8513
38.8513
38.2308
38.2308
37.6384
37.6384
37.0731
37.0731
36.5335
36.5335
36.018
36.018
35.5248
35.5247
35.052
35.0519
34.5981
34.5979
34.1619
34.1617
33.7429
33.7427
33.3412
33.341
32.9573
32.9571
32.5925
32.5923
32.2483
32.248
31.9265
31.9262
31.6288
31.6285
31.3571
31.3566
31.1127
31.1122
30.8968
30.8962
30.7102
30.7095
30.5531
30.5523
30.4253
30.4245
30.3262
30.3253
30.2541
30.2531
30.2071
30.206
30.1818
30.1806
30.1743
30.173
30.1792
30.1778
30.1901
30.1885
30.1995
30.1979
30.1992
30.1975
30.1807
30.1789
30.1358
30.134
30.0576
30.0559
29.9415
29.9401
29.7857
29.7847
29.5921
29.5917
29.3662
29.3662
29.1167
29.1169
28.8548
28.8551
28.5936
28.5939
28.3458
28.346
28.1225
28.1226
27.9316
27.9317
27.777
27.7769
27.6582
27.658
27.5689
27.5687
27.5
27.4996
27.4398
27.4394
27.3758
27.3755
27.2961
27.296
27.1906
27.191
27.0524
27.0533
26.8771
26.8783
26.6631
26.6644
26.4118
26.4131
26.1271
26.1283
25.8146
25.8158
25.4812
25.4822
25.1338
25.1348
24.7799
24.7807
24.4263
24.427
24.079
24.0797
23.7437
23.7443
23.425
23.4254
23.1266
23.127
22.8517
22.852
22.6026
22.6028
22.381
22.3812
22.1881
22.1882
22.024
22.0241
21.8885
21.8885
21.78
21.78
21.696
21.6959
21.6324
21.6323
21.5837
21.5835
21.5427
21.5424
21.5007
21.5003
21.4478
21.4473
21.3736
21.3731
21.2681
21.2675
21.1227
21.1221
20.9314
20.9307
20.6914
20.6907
20.404
20.4033
20.0755
20.075
19.7155
19.7154
19.3357
19.3357
18.948
18.9481
18.5643
18.5644
18.1941
18.1941
17.8434
17.8434
17.5136
17.5136
17.2028
17.2027
16.9063
16.9062
16.6181
16.618
16.333
16.3329
16.0471
16.0472
15.7597
15.7598
15.4716
15.4718
15.1852
15.1854
14.9043
14.9045
14.6327
14.6328
14.3736
14.3737
14.1295
14.1296
13.9015
13.9015
13.6901
13.6901
13.4951
13.4951
13.3162
13.3162
13.153
13.1531
13.0054
13.0054
12.8732
12.8732
12.7563
12.7563
12.6544
12.6544
12.5672
12.5672
12.4939
12.4939
12.4337
12.4337
12.3858
12.3858
12.3492
12.3492
12.3231
12.3231
12.3068
12.3068
12.2997
12.2997
12.3018
12.3018
12.3128
12.3128
12.3332
12.3332
12.3632
12.3632
12.4032
12.4032
12.4537
12.4537
12.5148
12.5148
12.5868
12.5868
12.6696
12.6696
12.7632
12.7632
12.8673
12.8673
12.9816
12.9816
13.106
13.106
13.2402
13.2402
13.3842
13.3842
13.5378
13.5378
13.701
13.701
13.8737
13.8737
14.0558
14.0558
14.2472
14.2472
14.448
14.4479
14.6579
14.6579
14.8769
14.8769
15.105
15.105
15.3422
15.3422
15.5886
15.5886
15.8444
15.8444
16.1101
16.1101
16.386
16.386
16.6727
16.6727
16.9705
16.9705
17.2799
17.2799
17.6011
17.6011
17.9342
17.9342
18.2793
18.2793
18.6365
18.6365
19.0059
19.0059
19.3877
19.3877
19.7822
19.7822
20.1901
20.1901
20.6119
20.6119
21.0486
21.0486
21.5011
21.5011
21.9705
21.9705
22.4577
22.4577
22.9638
22.9638
23.49
23.49
24.0372
24.0372
24.6064
24.6064
25.1984
25.1984
25.8138
25.8138
26.4522
26.4522
27.1109
27.1109
27.7825
27.7825
28.4481
28.4481
29.0632
29.0632
29.5284
29.5284
29.4917
29.4917
0.0143359
0.0143472
0.409223
0.409521
2.73761
2.73938
7.55366
7.55739
12.7249
12.7299
17.3065
17.3123
21.3378
21.3443
24.9659
24.973
28.3005
28.3081
31.4155
31.4236
34.3619
34.3704
37.1755
37.1845
39.8829
39.8923
42.504
42.5138
45.0545
45.0646
47.5466
47.5572
49.9907
50.0016
52.395
52.4063
54.7667
54.7784
57.1119
57.124
59.4359
59.4483
61.743
61.7558
64.0373
64.0504
66.3223
66.3358
68.6013
68.6152
70.8771
70.8914
73.1526
73.1673
75.4303
75.4454
77.7126
77.7281
80.0018
80.0177
82.3002
82.3165
84.6097
84.6265
86.9324
86.9496
89.27
89.2876
91.6238
91.6419
93.9952
94.0137
96.385
96.404
98.794
98.8136
101.223
101.243
103.673
103.694
106.144
106.166
108.638
108.66
111.155
111.178
113.696
113.719
116.26
116.283
118.845
118.869
121.448
121.473
124.066
124.092
126.693
126.719
129.322
129.349
131.946
131.973
134.556
134.584
137.146
137.174
139.709
139.739
142.246
142.276
144.766
144.797
147.291
147.324
149.859
149.893
152.512
152.547
155.281
155.317
158.162
158.2
161.069
161.109
163.852
163.892
166.305
166.346
168.212
168.253
169.398
169.439
169.764
169.804
169.307
169.345
168.105
168.141
166.296
166.329
164.04
164.071
161.497
161.526
158.807
158.834
156.082
156.107
153.399
153.423
150.809
150.833
148.339
148.361
145.99
146.011
143.748
143.769
141.594
141.613
139.499
139.517
137.437
137.453
135.38
135.394
133.305
133.318
131.192
131.203
129.025
129.035
126.793
126.801
124.486
124.493
122.101
122.107
119.639
119.644
117.105
117.11
114.509
114.513
111.866
111.869
109.192
109.195
106.51
106.512
103.839
103.841
101.199
101.201
98.6086
98.6105
96.0794
96.0812
93.6201
93.6217
91.235
91.2365
88.9241
88.9256
86.686
86.6873
84.5179
84.5191
82.4174
82.4185
80.3833
80.3843
78.4152
78.4161
76.5139
76.5147
74.6807
74.6815
72.917
72.9177
71.2226
71.2233
69.596
69.5966
68.0333
68.0338
66.5283
66.5287
65.0726
65.073
63.6565
63.6569
62.2699
62.2702
60.9038
60.904
59.5516
59.5518
58.2103
58.2104
56.881
56.881
55.5687
55.5687
54.2816
54.2815
53.0291
53.0291
51.8206
51.8205
50.6632
50.6631
49.5615
49.5614
48.5156
48.5155
47.5224
47.5223
46.5768
46.5768
45.6728
45.6727
44.8044
44.8043
43.9669
43.9668
43.157
43.1569
42.3731
42.373
41.6148
41.6148
40.8827
40.8827
40.1775
40.1775
39.5002
39.5002
38.8512
38.8512
38.2307
38.2307
37.6383
37.6383
37.0729
37.073
36.5334
36.5334
36.0178
36.0179
35.5246
35.5247
35.0517
35.0519
34.5978
34.5979
34.1616
34.1618
33.7426
33.7428
33.3408
33.3411
32.957
32.9572
32.5921
32.5924
32.2479
32.2482
31.926
31.9264
31.6283
31.6287
31.3565
31.3569
31.112
31.1125
30.8961
30.8966
30.7093
30.71
30.5522
30.5529
30.4243
30.4252
30.3251
30.326
30.253
30.254
30.2058
30.2069
30.1804
30.1817
30.1728
30.1742
30.1776
30.1791
30.1883
30.19
30.1977
30.1994
30.1973
30.1991
30.1787
30.1806
30.1338
30.1357
30.0558
30.0575
29.9399
29.9414
29.7846
29.7856
29.5916
29.592
29.3661
29.3661
29.1168
29.1166
28.855
28.8547
28.5938
28.5934
28.3459
28.3456
28.1224
28.1223
27.9314
27.9314
27.7767
27.7768
27.6577
27.658
27.5684
27.5687
27.4993
27.4997
27.4391
27.4395
27.3752
27.3755
27.2957
27.2957
27.1907
27.1903
27.053
27.0521
26.878
26.8768
26.6642
26.6628
26.4129
26.4115
26.1282
26.1269
25.8156
25.8144
25.4821
25.481
25.1346
25.1337
24.7806
24.7798
24.4269
24.4261
24.0796
24.0789
23.7441
23.7436
23.4253
23.4248
23.1268
23.1265
22.8518
22.8515
22.6026
22.6024
22.381
22.3808
22.1879
22.1878
22.0238
22.0237
21.8881
21.8882
21.7796
21.7796
21.6954
21.6956
21.6318
21.632
21.583
21.5833
21.5419
21.5423
21.4998
21.5002
21.4468
21.4473
21.3726
21.3732
21.2671
21.2678
21.1218
21.1225
20.9305
20.9313
20.6905
20.6913
20.4032
20.404
20.075
20.0755
19.7154
19.7156
19.3358
19.3358
18.9482
18.9481
18.5645
18.5644
18.1942
18.1941
17.8434
17.8434
17.5135
17.5136
17.2026
17.2028
16.906
16.9062
16.6179
16.618
16.3327
16.3329
16.0471
16.0471
15.7598
15.7596
15.4718
15.4716
15.1854
15.1852
14.9045
14.9043
14.6328
14.6327
14.3738
14.3736
14.1296
14.1295
13.9016
13.9015
13.6901
13.6901
13.4951
13.4951
13.3162
13.3162
13.1531
13.153
13.0054
13.0054
12.8732
12.8732
12.7563
12.7563
12.6544
12.6544
12.5671
12.5671
12.4938
12.4938
12.4337
12.4337
12.3858
12.3858
12.3492
12.3492
12.3231
12.3231
12.3067
12.3067
12.2997
12.2997
12.3017
12.3017
12.3128
12.3128
12.3332
12.3332
12.3632
12.3632
12.4032
12.4032
12.4537
12.4537
12.5148
12.5148
12.5868
12.5868
12.6696
12.6697
12.7632
12.7632
12.8673
12.8673
12.9816
12.9816
13.106
13.106
13.2402
13.2402
13.3842
13.3842
13.5378
13.5378
13.701
13.701
13.8737
13.8737
14.0558
14.0558
14.2472
14.2472
14.4479
14.4479
14.6578
14.6579
14.8769
14.8769
15.105
15.105
15.3422
15.3422
15.5886
15.5886
15.8444
15.8444
16.1101
16.1101
16.386
16.386
16.6727
16.6727
16.9705
16.9705
17.2799
17.2799
17.6011
17.6011
17.9342
17.9342
18.2793
18.2793
18.6365
18.6365
19.0059
19.0059
19.3877
19.3877
19.7822
19.7822
20.19
20.1901
20.6119
20.6119
21.0486
21.0486
21.5011
21.5011
21.9704
21.9704
22.4576
22.4576
22.9638
22.9638
23.4899
23.4899
24.037
24.037
24.6061
24.6062
25.1981
25.1981
25.8134
25.8135
26.4516
26.4516
27.1102
27.1102
27.7816
27.7816
28.4471
28.4471
29.062
29.062
29.5271
29.5271
29.4907
29.4907
29.4918
29.4918
29.5285
29.5285
29.0635
29.0635
28.4484
28.4484
27.7828
27.7828
27.1112
27.1112
26.4526
26.4526
25.8143
25.8143
25.1989
25.1989
24.6068
24.6068
24.0376
24.0376
23.4904
23.4904
22.9642
22.9642
22.4581
22.4581
21.9709
21.9709
21.5016
21.5016
21.0491
21.0491
20.6124
20.6124
20.1906
20.1906
19.7827
19.7827
19.3882
19.3882
19.0064
19.0064
18.6371
18.6371
18.2799
18.2799
17.9348
17.9348
17.6017
17.6017
17.2805
17.2805
16.9711
16.9711
16.6732
16.6732
16.3866
16.3866
16.1107
16.1107
15.845
15.845
15.5891
15.5891
15.3427
15.3427
15.1055
15.1055
14.8774
14.8773
14.6583
14.6583
14.4483
14.4483
14.2476
14.2476
14.0561
14.0561
13.874
13.874
13.7013
13.7013
13.5381
13.5381
13.3844
13.3844
13.2404
13.2404
13.1061
13.1061
12.9817
12.9817
12.8673
12.8673
12.7632
12.7632
12.6697
12.6697
12.5868
12.5868
12.5147
12.5147
12.4536
12.4536
12.4031
12.4031
12.363
12.363
12.333
12.333
12.3126
12.3126
12.3014
12.3014
12.2994
12.2994
12.3063
12.3063
12.3226
12.3226
12.3486
12.3486
12.3852
12.3852
12.433
12.433
12.4931
12.4931
12.5664
12.5664
12.6536
12.6536
12.7554
12.7554
12.8723
12.8723
13.0045
13.0045
13.152
13.1521
13.3151
13.3152
13.494
13.494
13.6889
13.689
13.9003
13.9003
14.1282
14.1283
14.3723
14.3724
14.6313
14.6314
14.9029
14.9031
15.1839
15.1841
15.4703
15.4705
15.7585
15.7587
16.0461
16.0461
16.332
16.3319
16.6173
16.6172
16.9055
16.9054
17.2022
17.2021
17.513
17.513
17.8429
17.8429
18.1936
18.1937
18.5639
18.564
18.9477
18.9478
19.3355
19.3356
19.7156
19.7154
20.0757
20.0753
20.4044
20.4037
20.6918
20.6911
20.9319
20.9312
21.1232
21.1225
21.2685
21.2679
21.3739
21.3734
21.4481
21.4477
21.501
21.5007
21.5431
21.5428
21.5841
21.5838
21.6327
21.6325
21.6962
21.6961
21.7801
21.7801
21.8886
21.8886
22.024
22.0241
22.188
22.1881
22.3809
22.3811
22.6024
22.6027
22.8515
22.8518
23.1263
23.1267
23.4246
23.4251
23.7433
23.7438
24.0785
24.0792
24.4256
24.4264
24.7792
24.7801
25.1331
25.1341
25.4803
25.4814
25.8138
25.815
26.1262
26.1275
26.4108
26.4122
26.662
26.6634
26.876
26.8772
27.0513
27.0522
27.1894
27.1898
27.2947
27.2947
27.3743
27.374
27.4382
27.4378
27.4983
27.498
27.5673
27.567
27.6565
27.6563
27.7753
27.7752
27.9299
27.9299
28.1207
28.1209
28.344
28.3443
28.5918
28.5921
28.853
28.8534
29.1149
29.1151
29.3644
29.3644
29.5904
29.5899
29.784
29.783
29.9399
29.9384
30.056
30.0542
30.1341
30.1322
30.1789
30.177
30.1974
30.1955
30.1977
30.1959
30.1882
30.1865
30.1773
30.1757
30.1723
30.1709
30.1798
30.1785
30.2049
30.2037
30.2519
30.2508
30.3238
30.3229
30.4229
30.422
30.5505
30.5498
30.7075
30.7068
30.894
30.8934
31.1098
31.1092
31.354
31.3535
31.6256
31.6252
31.9231
31.9228
32.2448
32.2445
32.5888
32.5885
32.9534
32.9531
33.337
33.3368
33.7384
33.7383
34.1571
34.157
34.593
34.5929
35.0467
35.0466
35.5192
35.5191
36.0121
36.0121
36.5273
36.5273
37.0666
37.0666
37.6317
37.6317
38.2239
38.2238
38.8441
38.8441
39.4928
39.4928
40.1698
40.1699
40.8747
40.8747
41.6065
41.6065
42.3643
42.3643
43.1477
43.1478
43.9571
43.9572
44.7942
44.7942
45.662
45.6621
46.5656
46.5657
47.5108
47.5108
48.5035
48.5036
49.549
49.5491
50.6502
50.6502
51.8071
51.8072
53.0152
53.0153
54.2672
54.2673
55.5539
55.554
56.8658
56.8657
58.1947
58.1946
59.5356
59.5355
60.8875
60.8873
62.2532
62.253
63.6395
63.6392
65.0553
65.0549
66.5105
66.5101
68.0151
68.0146
69.5773
69.5768
71.2034
71.2028
72.8973
72.8966
74.6605
74.6598
76.4931
76.4923
78.3938
78.393
80.3614
80.3605
82.3951
82.394
84.4949
84.4938
86.6625
86.6612
88.9001
88.8987
91.2104
91.2089
93.595
93.5934
96.0537
96.052
98.5822
98.5804
101.172
101.17
103.811
103.809
106.482
106.479
109.164
109.161
111.837
111.834
114.481
114.477
117.078
117.073
119.612
119.607
122.074
122.068
124.459
124.452
126.766
126.758
128.999
128.989
131.167
131.155
133.28
133.267
135.355
135.34
137.412
137.396
139.475
139.457
141.57
141.55
143.725
143.703
145.966
145.943
148.315
148.291
150.785
150.76
153.374
153.349
156.057
156.03
158.783
158.755
161.474
161.443
164.018
163.985
166.276
166.24
168.088
168.05
169.293
169.253
169.753
169.711
169.389
169.346
168.204
168.161
166.297
166.254
163.844
163.802
161.061
161.02
158.154
158.114
155.272
155.234
152.503
152.466
149.849
149.813
147.28
147.246
144.755
144.722
142.235
142.203
139.698
139.667
137.135
137.105
134.547
134.517
131.937
131.908
129.314
129.286
126.685
126.658
124.059
124.032
121.441
121.415
118.838
118.813
116.253
116.228
113.69
113.666
111.15
111.126
108.633
108.61
106.139
106.117
103.668
103.646
101.218
101.197
98.7894
98.7689
96.3805
96.3605
93.9908
93.9713
91.6196
91.6006
89.2659
89.2474
86.9285
86.9104
84.6059
84.5883
82.2964
82.2793
79.9982
79.9815
77.7091
77.6929
75.427
75.4112
73.1495
73.1341
70.8742
70.8592
68.5985
68.5839
66.3197
66.3055
64.0348
64.021
61.7407
61.7273
59.4337
59.4207
57.1099
57.0973
54.7648
54.7526
52.3933
52.3814
49.9891
49.9776
47.5452
47.5342
45.0533
45.0426
42.503
42.4928
39.8821
39.8722
37.1749
37.1655
34.3614
34.3525
31.4153
31.4068
28.3005
28.2925
24.9661
24.9587
21.3382
21.3314
17.307
17.301
12.7257
12.7205
7.55447
7.55056
2.7381
2.73624
0.409316
0.409004
0.0143403
0.0143285
29.4907
29.4907
29.5272
29.5272
29.0623
29.0623
28.4474
28.4474
27.782
27.782
27.1106
27.1106
26.452
26.4521
25.8139
25.8139
25.1986
25.1986
24.6066
24.6066
24.0374
24.0375
23.4903
23.4903
22.9642
22.9642
22.458
22.458
21.9708
21.9708
21.5015
21.5015
21.0491
21.0491
20.6124
20.6124
20.1905
20.1906
19.7827
19.7827
19.3881
19.3882
19.0064
19.0064
18.637
18.637
18.2799
18.2799
17.9347
17.9347
17.6016
17.6016
17.2804
17.2805
16.9711
16.9711
16.6732
16.6732
16.3866
16.3866
16.1107
16.1107
15.845
15.845
15.5891
15.5891
15.3427
15.3427
15.1055
15.1055
14.8773
14.8773
14.6583
14.6583
14.4483
14.4483
14.2476
14.2476
14.0561
14.0561
13.874
13.874
13.7013
13.7013
13.5381
13.5381
13.3844
13.3844
13.2404
13.2404
13.1061
13.1061
12.9817
12.9817
12.8673
12.8673
12.7632
12.7633
12.6697
12.6697
12.5868
12.5868
12.5148
12.5148
12.4536
12.4536
12.4031
12.4031
12.363
12.363
12.333
12.333
12.3126
12.3126
12.3014
12.3014
12.2993
12.2993
12.3063
12.3063
12.3225
12.3225
12.3486
12.3486
12.3851
12.3851
12.433
12.433
12.4931
12.4931
12.5664
12.5663
12.6536
12.6536
12.7554
12.7554
12.8723
12.8723
13.0045
13.0044
13.152
13.152
13.3152
13.3151
13.494
13.494
13.689
13.6889
13.9004
13.9003
14.1284
14.1282
14.3725
14.3723
14.6315
14.6313
14.9031
14.9029
15.1841
15.1839
15.4705
15.4703
15.7586
15.7585
16.046
16.046
16.3318
16.3319
16.617
16.6172
16.9053
16.9055
17.202
17.2021
17.513
17.513
17.8429
17.8429
18.1937
18.1937
18.5641
18.564
18.9479
18.9478
19.3357
19.3356
19.7155
19.7157
20.0753
20.0758
20.4036
20.4044
20.6909
20.6918
20.9309
20.9317
21.1222
21.1229
21.2675
21.2681
21.3729
21.3735
21.4472
21.4477
21.5002
21.5006
21.5423
21.5426
21.5833
21.5836
21.632
21.6323
21.6956
21.6958
21.7797
21.7798
21.8882
21.8882
22.0238
22.0237
22.1879
22.1878
22.3809
22.3807
22.6025
22.6022
22.8516
22.8513
23.1265
23.1262
23.4249
23.4245
23.7437
23.7432
24.079
24.0784
24.4263
24.4255
24.78
24.7791
25.1339
25.1329
25.4813
25.4802
25.8148
25.8136
26.1273
26.126
26.412
26.4105
26.6632
26.6618
26.877
26.8757
27.0519
27.051
27.1895
27.1891
27.2944
27.2944
27.3737
27.374
27.4375
27.4379
27.4976
27.4981
27.5667
27.567
27.6561
27.6563
27.775
27.7751
27.9297
27.9297
28.1207
28.1206
28.3441
28.3439
28.592
28.5917
28.8533
28.8529
29.115
29.1148
29.3643
29.3643
29.5898
29.5903
29.7829
29.7839
29.9382
29.9398
30.0541
30.0559
30.132
30.134
30.1768
30.1788
30.1954
30.1973
30.1957
30.1976
30.1864
30.1881
30.1755
30.1771
30.1707
30.1722
30.1783
30.1796
30.2036
30.2048
30.2507
30.2518
30.3227
30.3237
30.4219
30.4228
30.5496
30.5504
30.7067
30.7074
30.8933
30.8939
31.1091
31.1096
31.3534
31.3539
31.6251
31.6255
31.9226
31.923
32.2443
32.2447
32.5884
32.5887
32.953
32.9533
33.3366
33.3369
33.7381
33.7383
34.1569
34.157
34.5928
34.5929
35.0464
35.0466
35.519
35.5191
36.0119
36.012
36.5272
36.5272
37.0665
37.0665
37.6316
37.6316
38.2237
38.2238
38.844
38.844
39.4927
39.4927
40.1698
40.1697
40.8746
40.8746
41.6064
41.6064
42.3643
42.3642
43.1477
43.1476
43.9571
43.9571
44.7941
44.7941
45.662
45.662
46.5656
46.5656
47.5107
47.5107
48.5035
48.5035
49.549
49.549
50.6502
50.6501
51.8071
51.8071
53.0152
53.0152
54.2672
54.2672
55.5539
55.5539
56.8657
56.8658
58.1946
58.1947
59.5355
59.5357
60.8873
60.8875
62.253
62.2532
63.6392
63.6395
65.0549
65.0553
66.5101
66.5106
68.0146
68.0151
69.5767
69.5774
71.2028
71.2035
72.8966
72.8973
74.6597
74.6605
76.4923
76.4932
78.3929
78.3939
80.3604
80.3615
82.394
82.3951
84.4937
84.495
86.6612
86.6625
88.8987
88.9002
91.2089
91.2105
93.5933
93.5951
96.0519
96.0538
98.5803
98.5823
101.17
101.172
103.809
103.811
106.479
106.482
109.161
109.164
111.834
111.837
114.477
114.481
117.073
117.078
119.607
119.612
122.068
122.074
124.452
124.459
126.758
126.766
128.989
128.999
131.155
131.167
133.267
133.28
135.34
135.355
137.396
137.413
139.457
139.475
141.55
141.57
143.703
143.725
145.943
145.966
148.291
148.315
150.76
150.785
153.349
153.374
156.03
156.057
158.755
158.783
161.443
161.474
163.985
164.018
166.241
166.276
168.05
168.088
169.253
169.293
169.711
169.753
169.346
169.389
168.162
168.205
166.254
166.298
163.802
163.844
161.02
161.061
158.114
158.154
155.234
155.273
152.466
152.503
149.814
149.849
147.246
147.281
144.722
144.755
142.203
142.235
139.667
139.698
137.105
137.136
134.517
134.547
131.908
131.937
129.286
129.314
126.658
126.685
124.032
124.059
121.415
121.441
118.813
118.838
116.229
116.253
113.666
113.69
111.126
111.15
108.61
108.633
106.117
106.139
103.646
103.668
101.197
101.219
98.769
98.7896
96.3606
96.3807
93.9715
93.9911
91.6007
91.6199
89.2475
89.2661
86.9105
86.9287
84.5884
84.6061
82.2794
82.2966
79.9816
79.9984
77.693
77.7094
75.4113
75.4272
73.1342
73.1497
70.8593
70.8744
68.584
68.5987
66.3055
66.3199
64.0211
64.035
61.7273
61.7408
59.4207
59.4338
57.0973
57.1101
54.7526
54.765
52.3814
52.3934
49.9777
49.9892
47.5342
47.5454
45.0426
45.0534
42.4928
42.5031
39.8723
39.8822
37.1655
37.175
34.3525
34.3615
31.4069
31.4154
28.2925
28.3005
24.9587
24.9662
21.3314
21.3383
17.301
17.3071
12.7205
12.7257
7.55056
7.5545
2.73625
2.73811
0.409004
0.409318
0.0143285
0.0143404
)
;

boundaryField
{
    walls
    {
        type            kqRWallFunction;
        value           nonuniform List<scalar> 8(0.0143472 0.0143359 0.0143359 0.0143472 0.0143403 0.0143285 0.0143285 0.0143404);
    }
    inlet
    {
        type            cyclic;
    }
    outlet
    {
        type            cyclic;
    }
    sides
    {
        type            empty;
    }
}


// ************************************************************************* //
