/*--------------------------------*- C++ -*----------------------------------*\
| =========                 |                                                 |
| \\      /  F ield         | OpenFOAM: The Open Source CFD Toolbox           |
|  \\    /   O peration     | Version:  2012                                  |
|   \\  /    A nd           | Website:  www.openfoam.com                      |
|    \\/     M anipulation  |                                                 |
\*---------------------------------------------------------------------------*/
FoamFile
{
    version     2.0;
    format      ascii;
    class       volScalarField;
    location    "12100";
    object      omega;
}
// * * * * * * * * * * * * * * * * * * * * * * * * * * * * * * * * * * * * * //

dimensions      [0 0 -1 0 0 0 0];


internalField   nonuniform List<scalar> 
2560
(
1.52417e+06
1.52417e+06
264013
264016
87427.4
87430.3
41415.5
41416.3
25473.3
25473.1
18380.3
18379.7
14512.8
14512.1
12094.8
12094.2
10439.1
10438.5
9231.65
9231.05
8310.08
8309.52
7582.23
7581.71
6991.94
6991.45
6503
6502.55
6091.02
6090.6
5738.95
5738.55
5434.49
5434.11
5168.56
5168.2
4934.28
4933.93
4726.35
4726.02
4540.62
4540.3
4373.78
4373.48
4223.18
4222.89
4086.63
4086.35
3962.35
3962.08
3848.85
3848.59
3744.89
3744.64
3649.43
3649.18
3561.56
3561.32
3480.52
3480.28
3405.65
3405.42
3336.39
3336.17
3272.24
3272.02
3212.77
3212.55
3157.58
3157.37
3106.33
3106.12
3058.71
3058.51
3014.45
3014.25
2973.3
2973.09
2935.03
2934.83
2899.46
2899.26
2866.41
2866.21
2835.71
2835.51
2807.22
2807.02
2780.8
2780.59
2756.29
2756.09
2733.56
2733.36
2712.45
2712.25
2692.8
2692.6
2674.47
2674.26
2657.28
2657.07
2641.1
2640.89
2625.79
2625.58
2611.25
2611.03
2597.42
2597.21
2584.37
2584.15
2572.27
2572.04
2561.42
2561.18
2552.16
2551.91
2544.72
2544.47
2539.06
2538.8
2534.39
2534.13
2529.46
2529.19
2522.62
2522.34
2512.14
2511.87
2496.69
2496.42
2475.52
2475.26
2448.62
2448.37
2416.58
2416.34
2380.41
2380.19
2341.3
2341.1
2300.41
2300.23
2258.78
2258.61
2217.22
2217.05
2176.3
2176.14
2136.39
2136.24
2097.69
2097.54
2060.21
2060.07
2023.86
2023.72
1988.48
1988.35
1953.88
1953.76
1919.85
1919.74
1886.2
1886.11
1852.75
1852.67
1819.36
1819.29
1785.91
1785.85
1752.29
1752.24
1718.45
1718.42
1684.36
1684.32
1649.99
1649.97
1615.39
1615.37
1580.61
1580.59
1545.75
1545.73
1510.92
1510.91
1476.26
1476.25
1441.92
1441.91
1408.04
1408.03
1374.74
1374.73
1342.1
1342.09
1310.18
1310.17
1279.02
1279.01
1248.61
1248.61
1218.94
1218.94
1190
1190
1161.76
1161.75
1134.2
1134.2
1107.34
1107.34
1081.17
1081.17
1055.7
1055.7
1030.94
1030.94
1006.89
1006.89
983.533
983.534
960.843
960.844
938.772
938.774
917.257
917.259
896.224
896.226
875.596
875.599
855.303
855.306
835.293
835.297
815.54
815.544
796.046
796.05
776.844
776.848
757.989
757.993
739.546
739.551
721.58
721.584
704.141
704.145
687.261
687.265
670.938
670.942
655.149
655.153
639.856
639.86
625.014
625.018
610.577
610.581
596.511
596.514
582.788
582.791
569.394
569.398
556.325
556.328
543.58
543.583
531.163
531.166
519.077
519.081
507.324
507.327
495.9
495.903
484.802
484.805
474.02
474.023
463.543
463.545
453.356
453.359
443.446
443.448
433.798
433.8
424.399
424.401
415.239
415.241
406.313
406.315
397.617
397.619
389.154
389.155
380.928
380.929
372.945
372.946
365.215
365.216
357.746
357.747
350.545
350.546
343.619
343.619
336.973
336.972
330.607
330.606
324.522
324.521
318.713
318.711
313.175
313.172
307.895
307.893
302.862
302.858
298.054
298.05
293.449
293.444
289.016
289.011
284.721
284.715
280.525
280.518
276.384
276.377
272.257
272.249
268.102
268.095
263.886
263.879
259.585
259.58
255.191
255.187
250.708
250.707
246.161
246.161
241.584
241.586
237.026
237.028
232.54
232.542
228.18
228.182
223.991
223.992
220.005
220.006
216.237
216.237
212.683
212.683
209.317
209.317
206.102
206.101
202.991
202.989
199.933
199.932
196.882
196.882
193.8
193.801
190.658
190.661
187.439
187.444
184.137
184.142
180.755
180.76
177.305
177.309
173.806
173.81
170.28
170.284
166.752
166.756
163.245
163.248
159.78
159.783
156.38
156.382
153.061
153.063
149.838
149.84
146.723
146.725
143.726
143.728
140.855
140.856
138.114
138.115
135.506
135.506
133.031
133.032
130.688
130.689
128.472
128.472
126.373
126.373
124.379
124.379
122.472
122.472
120.63
120.63
118.827
118.826
117.033
117.032
115.217
115.216
113.352
113.351
111.412
111.411
109.379
109.378
107.246
107.244
105.014
105.012
102.699
102.698
100.325
100.325
97.9221
97.9223
95.5208
95.5211
93.1514
93.1518
90.8382
90.8385
88.5965
88.5966
86.4297
86.4298
84.3324
84.3323
82.2922
82.2921
80.2939
80.2937
78.3232
78.3231
76.3705
76.3706
74.4326
74.4329
72.5113
72.5118
70.612
70.6125
68.7429
68.7434
66.9131
66.9135
65.13
65.1303
63.3987
63.399
61.7219
61.7221
60.1004
60.1006
58.5335
58.5337
57.0202
57.0204
55.5595
55.5597
54.1507
54.1508
52.7931
52.7932
51.4861
51.4862
50.229
50.2291
49.0204
49.0205
47.8586
47.8587
46.7417
46.7417
45.6672
45.6673
44.6331
44.6331
43.6372
43.6372
42.6776
42.6777
41.7531
41.7531
40.8626
40.8627
40.0057
40.0058
39.1821
39.1822
38.3919
38.3919
37.635
37.6351
36.9116
36.9116
36.2214
36.2215
35.5641
35.5641
34.9389
34.939
34.3451
34.3451
33.7816
33.7816
33.2473
33.2474
32.7415
32.7415
32.263
32.263
31.8111
31.8111
31.385
31.385
30.9838
30.9839
30.6069
30.6069
30.2536
30.2536
29.923
29.923
29.6145
29.6145
29.3273
29.3273
29.0609
29.0609
28.8146
28.8146
28.5878
28.5878
28.3802
28.3802
28.1914
28.1914
28.0214
28.0214
27.87
27.87
27.7371
27.7371
27.6228
27.6228
27.5269
27.5269
27.4492
27.4492
27.3894
27.3894
27.3472
27.3472
27.3224
27.3224
27.3146
27.3146
27.3237
27.3237
27.3497
27.3497
27.3928
27.3928
27.4532
27.4532
27.5312
27.5312
27.6273
27.6273
27.742
27.742
27.8759
27.8759
28.0294
28.0294
28.2031
28.2031
28.3976
28.3976
28.6134
28.6134
28.8509
28.8509
29.1104
29.1104
29.3916
29.3916
29.6931
29.6931
30.0108
30.0108
30.3343
30.3343
30.6391
30.6391
30.8714
30.8714
30.8411
30.8411
1.52417e+06
1.52417e+06
264016
264013
87430.3
87427.4
41416.3
41415.5
25473.1
25473.3
18379.7
18380.3
14512.1
14512.8
12094.2
12094.8
10438.5
10439.1
9231.05
9231.65
8309.52
8310.08
7581.71
7582.23
6991.45
6991.94
6502.55
6503
6090.6
6091.02
5738.55
5738.95
5434.11
5434.49
5168.2
5168.56
4933.93
4934.28
4726.02
4726.35
4540.3
4540.62
4373.48
4373.78
4222.89
4223.18
4086.35
4086.63
3962.08
3962.35
3848.59
3848.85
3744.64
3744.9
3649.18
3649.43
3561.32
3561.56
3480.28
3480.52
3405.42
3405.65
3336.17
3336.39
3272.02
3272.25
3212.55
3212.77
3157.37
3157.58
3106.12
3106.33
3058.51
3058.72
3014.25
3014.45
2973.09
2973.3
2934.83
2935.04
2899.26
2899.46
2866.21
2866.41
2835.51
2835.71
2807.02
2807.22
2780.59
2780.8
2756.09
2756.29
2733.36
2733.56
2712.25
2712.45
2692.6
2692.81
2674.26
2674.47
2657.08
2657.28
2640.89
2641.1
2625.58
2625.79
2611.03
2611.25
2597.21
2597.43
2584.15
2584.37
2572.04
2572.27
2561.18
2561.42
2551.91
2552.16
2544.47
2544.72
2538.8
2539.06
2534.13
2534.39
2529.19
2529.46
2522.34
2522.62
2511.87
2512.14
2496.42
2496.69
2475.26
2475.52
2448.37
2448.62
2416.34
2416.58
2380.19
2380.41
2341.1
2341.3
2300.23
2300.41
2258.61
2258.78
2217.05
2217.22
2176.14
2176.3
2136.24
2136.39
2097.54
2097.69
2060.07
2060.21
2023.72
2023.86
1988.35
1988.48
1953.76
1953.88
1919.74
1919.85
1886.1
1886.2
1852.67
1852.75
1819.29
1819.36
1785.85
1785.91
1752.24
1752.29
1718.42
1718.46
1684.32
1684.36
1649.97
1649.99
1615.37
1615.39
1580.59
1580.61
1545.73
1545.75
1510.91
1510.92
1476.25
1476.26
1441.92
1441.92
1408.03
1408.04
1374.73
1374.74
1342.09
1342.1
1310.17
1310.18
1279.01
1279.02
1248.61
1248.61
1218.94
1218.94
1190
1190
1161.75
1161.76
1134.2
1134.2
1107.34
1107.34
1081.17
1081.17
1055.7
1055.7
1030.94
1030.94
1006.89
1006.89
983.534
983.533
960.844
960.843
938.774
938.772
917.259
917.257
896.226
896.224
875.599
875.596
855.306
855.303
835.297
835.293
815.544
815.54
796.05
796.046
776.848
776.844
757.993
757.989
739.55
739.546
721.584
721.58
704.145
704.141
687.265
687.26
670.941
670.937
655.153
655.149
639.86
639.856
625.017
625.013
610.581
610.577
596.514
596.51
582.791
582.787
569.397
569.394
556.328
556.324
543.583
543.579
531.166
531.163
519.08
519.077
507.326
507.323
495.903
495.9
484.805
484.802
474.022
474.02
463.545
463.542
453.358
453.356
443.448
443.445
433.799
433.797
424.4
424.398
415.241
415.239
406.314
406.312
397.618
397.617
389.155
389.153
380.928
380.927
372.946
372.945
365.215
365.215
357.746
357.745
350.545
350.545
343.619
343.619
336.972
336.972
330.606
330.606
324.52
324.521
318.711
318.713
313.172
313.174
307.892
307.895
302.858
302.861
298.049
298.053
293.443
293.448
289.01
289.015
284.714
284.72
280.517
280.524
276.376
276.384
272.249
272.256
268.094
268.102
263.879
263.886
259.579
259.585
255.186
255.19
250.706
250.708
246.161
246.161
241.585
241.584
237.028
237.026
232.542
232.54
228.181
228.18
223.992
223.991
220.005
220.004
216.236
216.236
212.682
212.682
209.316
209.316
206.1
206.101
202.988
202.99
199.931
199.932
196.881
196.881
193.8
193.799
190.66
190.657
187.443
187.438
184.141
184.136
180.759
180.754
177.309
177.304
173.81
173.805
170.284
170.28
166.755
166.752
163.248
163.244
159.783
159.78
156.382
156.38
153.063
153.06
149.839
149.837
146.724
146.723
143.727
143.726
140.856
140.854
138.114
138.113
135.506
135.505
133.031
133.03
130.688
130.687
128.471
128.471
126.372
126.372
124.378
124.378
122.471
122.471
120.628
120.629
118.825
118.826
117.03
117.031
115.215
115.216
113.35
113.351
111.41
111.411
109.377
109.379
107.244
107.246
105.012
105.014
102.698
102.699
100.325
100.325
97.9225
97.9224
95.5214
95.521
93.152
93.1517
90.8386
90.8384
88.5967
88.5965
86.4296
86.4296
84.3321
84.3322
82.2918
82.292
80.2934
80.2937
78.3228
78.323
76.3704
76.3702
74.4328
74.4324
72.5118
72.5112
70.6126
70.6119
68.7435
68.743
66.9137
66.9132
65.1305
65.13
63.3991
63.3988
61.7223
61.7219
60.1007
60.1004
58.5338
58.5335
57.0205
57.0202
55.5597
55.5595
54.1508
54.1507
52.7932
52.793
51.4862
51.486
50.229
50.2289
49.0204
49.0203
47.8586
47.8585
46.7416
46.7415
45.6672
45.6671
44.6331
44.633
43.6371
43.6371
42.6776
42.6775
41.7531
41.753
40.8627
40.8626
40.0058
40.0057
39.1822
39.1822
38.392
38.3919
37.6351
37.6351
36.9117
36.9116
36.2215
36.2215
35.5642
35.5641
34.939
34.939
34.3451
34.3451
33.7816
33.7816
33.2474
33.2473
32.7415
32.7415
32.263
32.263
31.8112
31.8111
31.385
31.385
30.9839
30.9838
30.6069
30.6069
30.2536
30.2535
29.923
29.923
29.6145
29.6144
29.3273
29.3273
29.0609
29.0609
28.8146
28.8146
28.5878
28.5878
28.3802
28.3802
28.1914
28.1914
28.0214
28.0214
27.87
27.87
27.7371
27.7371
27.6228
27.6228
27.5269
27.5269
27.4492
27.4492
27.3894
27.3894
27.3472
27.3472
27.3224
27.3224
27.3146
27.3146
27.3237
27.3237
27.3497
27.3497
27.3928
27.3928
27.4532
27.4532
27.5312
27.5312
27.6273
27.6273
27.742
27.742
27.8758
27.8759
28.0294
28.0294
28.2031
28.2031
28.3975
28.3975
28.6133
28.6133
28.8507
28.8507
29.1102
29.1102
29.3913
29.3913
29.6927
29.6928
30.0104
30.0104
30.3337
30.3337
30.6384
30.6384
30.8708
30.8708
30.8405
30.8405
30.8411
30.8411
30.8715
30.8715
30.6392
30.6392
30.3344
30.3344
30.011
30.011
29.6933
29.6933
29.3918
29.3918
29.1106
29.1106
28.8511
28.8511
28.6136
28.6136
28.3978
28.3978
28.2033
28.2033
28.0295
28.0295
27.876
27.876
27.7421
27.7421
27.6274
27.6274
27.5313
27.5313
27.4533
27.4533
27.3929
27.3929
27.3498
27.3498
27.3238
27.3238
27.3147
27.3147
27.3225
27.3225
27.3473
27.3473
27.3895
27.3895
27.4492
27.4492
27.5269
27.5269
27.6228
27.6228
27.7371
27.7371
27.8699
27.8699
28.0213
28.0213
28.1913
28.1913
28.3801
28.3801
28.5876
28.5876
28.8143
28.8143
29.0606
29.0606
29.3269
29.3269
29.614
29.614
29.9224
29.9224
30.253
30.253
30.6063
30.6063
30.9831
30.9831
31.3842
31.3842
31.8103
31.8103
32.2621
32.2621
32.7405
32.7405
33.2462
33.2463
33.7804
33.7804
34.3438
34.3438
34.9376
34.9376
35.5627
35.5627
36.2199
36.2199
36.91
36.91
37.6333
37.6333
38.39
38.39
39.1802
39.1802
40.0036
40.0037
40.8604
40.8605
41.7508
41.7508
42.6751
42.6752
43.6345
43.6345
44.6303
44.6303
45.6643
45.6643
46.7386
46.7386
47.8555
47.8555
49.0172
49.0172
50.2257
50.2257
51.4827
51.4828
52.7895
52.7896
54.147
54.1472
55.5558
55.5559
57.0164
57.0165
58.5296
58.5298
60.0963
60.0966
61.7177
61.718
63.3944
63.3947
65.1256
65.126
66.9086
66.909
68.7384
68.7389
70.6075
70.608
72.507
72.5076
74.4286
74.4289
76.3667
76.3668
78.3197
78.3196
80.2907
80.2905
82.2892
82.2891
84.3296
84.3295
86.427
86.427
88.5939
88.594
90.8357
90.836
93.1491
93.1494
95.5186
95.519
97.9202
97.9205
100.324
100.323
102.698
102.697
105.013
105.012
107.245
107.243
109.379
109.377
111.411
111.409
113.351
113.349
115.216
115.215
117.031
117.03
118.825
118.825
120.629
120.628
122.47
122.47
124.377
124.377
126.371
126.371
128.469
128.469
130.685
130.686
133.028
133.028
135.502
135.503
138.11
138.111
140.851
140.852
143.722
143.723
146.718
146.72
149.832
149.834
153.055
153.057
156.374
156.376
159.774
159.777
163.238
163.241
166.745
166.749
170.273
170.277
173.798
173.803
177.297
177.302
180.746
180.751
184.128
184.133
187.43
187.435
190.648
190.652
193.79
193.792
196.872
196.872
199.922
199.921
202.979
202.978
206.09
206.089
209.305
209.304
212.671
212.67
216.224
216.224
219.992
219.993
223.978
223.979
228.167
228.169
232.527
232.529
237.013
237.015
241.57
241.572
246.147
246.147
250.694
250.693
255.177
255.173
259.572
259.566
263.872
263.865
268.087
268.08
272.241
272.234
276.368
276.361
280.508
280.502
284.704
284.698
288.999
288.993
293.431
293.426
298.036
298.032
302.843
302.839
307.876
307.873
313.154
313.152
318.692
318.69
324.5
324.498
330.584
330.583
336.949
336.948
343.594
343.594
350.519
350.52
357.719
357.72
365.187
365.188
372.916
372.917
380.897
380.898
389.122
389.123
397.583
397.585
406.277
406.279
415.202
415.204
424.36
424.362
433.757
433.759
443.403
443.406
453.311
453.314
463.496
463.499
473.972
473.975
484.752
484.755
495.849
495.852
507.27
507.274
519.022
519.026
531.107
531.11
543.522
543.525
556.264
556.268
569.331
569.335
582.722
582.725
596.442
596.446
610.506
610.51
624.939
624.943
639.779
639.783
655.069
655.073
670.855
670.86
687.176
687.18
704.053
704.058
721.49
721.495
739.453
739.458
757.894
757.899
776.747
776.752
795.946
795.951
815.438
815.442
835.189
835.193
855.197
855.201
875.488
875.491
896.114
896.117
917.145
917.148
938.658
938.66
960.726
960.728
983.413
983.415
1006.77
1006.77
1030.82
1030.82
1055.57
1055.57
1081.04
1081.04
1107.21
1107.21
1134.07
1134.07
1161.62
1161.61
1189.85
1189.85
1218.8
1218.79
1248.46
1248.46
1278.86
1278.86
1310.02
1310.02
1341.94
1341.93
1374.57
1374.57
1407.88
1407.87
1441.76
1441.75
1476.09
1476.08
1510.74
1510.73
1545.57
1545.56
1580.44
1580.42
1615.22
1615.2
1649.82
1649.79
1684.18
1684.15
1718.28
1718.24
1752.11
1752.06
1785.72
1785.66
1819.17
1819.1
1852.55
1852.47
1885.99
1885.89
1919.63
1919.52
1953.65
1953.53
1988.24
1988.11
2023.62
2023.48
2059.96
2059.82
2097.43
2097.28
2136.13
2135.97
2176.03
2175.87
2216.94
2216.77
2258.51
2258.32
2300.13
2299.94
2341.01
2340.8
2380.12
2379.89
2416.3
2416.05
2448.35
2448.08
2475.26
2474.98
2496.43
2496.15
2511.89
2511.6
2522.36
2522.08
2529.21
2528.92
2534.14
2533.86
2538.81
2538.53
2544.47
2544.21
2551.9
2551.65
2561.16
2560.91
2572.02
2571.78
2584.12
2583.89
2597.18
2596.95
2611
2610.78
2625.55
2625.33
2640.87
2640.65
2657.06
2656.84
2674.24
2674.03
2692.58
2692.37
2712.23
2712.02
2733.35
2733.14
2756.08
2755.87
2780.59
2780.37
2807.01
2806.8
2835.5
2835.29
2866.2
2865.98
2899.25
2899.04
2934.82
2934.61
2973.08
2972.87
3014.23
3014.01
3058.49
3058.27
3106.1
3105.88
3157.34
3157.12
3212.53
3212.3
3271.99
3271.76
3336.13
3335.9
3405.38
3405.14
3480.24
3479.99
3561.27
3561.02
3649.13
3648.87
3744.59
3744.32
3848.53
3848.26
3962.02
3961.73
4086.28
4085.99
4222.82
4222.51
4373.41
4373.09
4540.22
4539.89
4725.93
4725.58
4933.84
4933.47
5168.1
5167.71
5434
5433.6
5738.43
5738.01
6090.47
6090.02
6502.41
6501.93
6991.3
6990.79
7581.55
7581
8309.34
8308.75
9230.85
9230.21
10438.2
10437.6
12093.9
12093.2
14511.8
14511
18379.1
18378.5
25472.3
25472
41414.8
41415.7
87428
87431
264014
264017
1.52418e+06
1.52418e+06
30.8405
30.8405
30.8708
30.8708
30.6386
30.6386
30.3338
30.3338
30.0105
30.0105
29.6929
29.6929
29.3915
29.3915
29.1103
29.1103
28.8509
28.8509
28.6134
28.6135
28.3977
28.3977
28.2032
28.2032
28.0295
28.0295
27.876
27.876
27.7421
27.7421
27.6274
27.6274
27.5313
27.5313
27.4533
27.4533
27.3929
27.3929
27.3498
27.3498
27.3238
27.3238
27.3146
27.3146
27.3224
27.3224
27.3473
27.3473
27.3894
27.3894
27.4492
27.4492
27.5269
27.5269
27.6228
27.6228
27.7371
27.7371
27.8699
27.8699
28.0213
28.0213
28.1914
28.1913
28.3801
28.3801
28.5876
28.5876
28.8143
28.8143
29.0606
29.0606
29.3269
29.3269
29.614
29.614
29.9224
29.9224
30.253
30.253
30.6063
30.6063
30.9831
30.9831
31.3842
31.3842
31.8103
31.8103
32.2621
32.2621
32.7405
32.7405
33.2463
33.2462
33.7804
33.7804
34.3438
34.3438
34.9376
34.9376
35.5627
35.5627
36.22
36.2199
36.91
36.91
37.6334
37.6333
38.3901
38.39
39.1802
39.1802
40.0037
40.0036
40.8605
40.8604
41.7508
41.7507
42.6751
42.675
43.6344
43.6344
44.6302
44.6301
45.6642
45.6641
46.7386
46.7385
47.8555
47.8554
49.0172
49.0171
50.2257
50.2256
51.4828
51.4826
52.7896
52.7895
54.1472
54.147
55.556
55.5558
57.0166
57.0164
58.5298
58.5296
60.0967
60.0964
61.7181
61.7178
63.3949
63.3945
65.1261
65.1256
66.9092
66.9086
68.739
68.7384
70.6081
70.6075
72.5075
72.5069
74.4288
74.4284
76.3666
76.3665
78.3193
78.3195
80.2901
80.2904
82.2887
82.289
84.3293
84.3294
86.4269
86.4269
88.5941
88.5939
90.8361
90.8358
93.1496
93.1493
95.5192
95.5189
97.9207
97.9205
100.323
100.324
102.697
102.698
105.011
105.013
107.243
107.245
109.376
109.378
111.408
111.41
113.348
113.35
115.214
115.215
117.029
117.03
118.823
118.824
120.627
120.627
122.469
122.469
124.376
124.376
126.37
126.37
128.468
128.468
130.685
130.684
133.028
133.027
135.502
135.501
138.11
138.109
140.851
140.85
143.723
143.721
146.719
146.718
149.834
149.832
153.057
153.055
156.376
156.373
159.777
159.774
163.241
163.237
166.748
166.744
170.277
170.272
173.802
173.798
177.301
177.296
180.751
180.745
184.132
184.127
187.434
187.429
190.651
190.647
193.791
193.789
196.871
196.871
199.92
199.921
202.977
202.978
206.088
206.089
209.303
209.304
212.669
212.67
216.224
216.223
219.992
219.992
223.979
223.978
228.168
228.167
232.529
232.527
237.014
237.012
241.572
241.57
246.147
246.147
250.692
250.694
255.172
255.177
259.565
259.572
263.864
263.872
268.079
268.087
272.233
272.241
276.36
276.368
280.501
280.508
284.698
284.704
288.993
288.998
293.426
293.431
298.031
298.035
302.839
302.842
307.872
307.875
313.151
313.154
318.69
318.691
324.498
324.499
330.583
330.584
336.948
336.948
343.594
343.594
350.519
350.519
357.719
357.718
365.187
365.187
372.917
372.915
380.898
380.896
389.123
389.121
397.585
397.583
406.279
406.277
415.204
415.201
424.361
424.359
433.759
433.756
443.405
443.403
453.314
453.311
463.499
463.496
473.974
473.972
484.755
484.752
495.852
495.848
507.273
507.27
519.026
519.022
531.11
531.106
543.525
543.521
556.268
556.264
569.335
569.331
582.725
582.721
596.445
596.442
610.51
610.506
624.943
624.939
639.783
639.779
655.073
655.069
670.86
670.855
687.18
687.176
704.058
704.054
721.495
721.49
739.458
739.454
757.899
757.894
776.752
776.747
795.951
795.947
815.442
815.438
835.194
835.19
855.201
855.197
875.491
875.488
896.117
896.114
917.148
917.146
938.66
938.658
960.728
960.727
983.415
983.414
1006.77
1006.77
1030.82
1030.82
1055.57
1055.57
1081.04
1081.04
1107.21
1107.21
1134.07
1134.07
1161.61
1161.62
1189.85
1189.86
1218.79
1218.8
1248.46
1248.46
1278.86
1278.87
1310.02
1310.03
1341.93
1341.94
1374.57
1374.58
1407.87
1407.88
1441.75
1441.76
1476.08
1476.09
1510.73
1510.74
1545.56
1545.57
1580.42
1580.44
1615.2
1615.22
1649.79
1649.82
1684.15
1684.18
1718.24
1718.28
1752.06
1752.11
1785.66
1785.72
1819.1
1819.17
1852.47
1852.55
1885.89
1885.99
1919.52
1919.63
1953.53
1953.65
1988.11
1988.25
2023.48
2023.62
2059.82
2059.96
2097.28
2097.44
2135.97
2136.13
2175.87
2176.03
2216.78
2216.95
2258.33
2258.51
2299.94
2300.14
2340.8
2341.02
2379.9
2380.13
2416.05
2416.3
2448.09
2448.35
2474.98
2475.26
2496.15
2496.44
2511.61
2511.9
2522.08
2522.37
2528.93
2529.21
2533.86
2534.14
2538.54
2538.81
2544.21
2544.48
2551.65
2551.91
2560.92
2561.17
2571.78
2572.02
2583.89
2584.13
2596.95
2597.18
2610.78
2611.01
2625.33
2625.56
2640.65
2640.88
2656.84
2657.06
2674.03
2674.25
2692.37
2692.59
2712.02
2712.24
2733.14
2733.35
2755.87
2756.08
2780.38
2780.59
2806.8
2807.02
2835.29
2835.5
2865.99
2866.2
2899.04
2899.26
2934.61
2934.83
2972.87
2973.09
3014.02
3014.24
3058.27
3058.49
3105.88
3106.11
3157.12
3157.35
3212.3
3212.53
3271.76
3272
3335.9
3336.14
3405.14
3405.39
3479.99
3480.24
3561.02
3561.27
3648.87
3649.14
3744.32
3744.59
3848.26
3848.54
3961.74
3962.02
4085.99
4086.29
4222.51
4222.82
4373.09
4373.41
4539.89
4540.23
4725.59
4725.94
4933.48
4933.84
5167.72
5168.1
5433.6
5434.01
5738.01
5738.44
6090.02
6090.48
6501.93
6502.42
6990.79
6991.31
7581
7581.56
8308.76
8309.35
9230.22
9230.86
10437.6
10438.2
12093.2
12093.9
14511
14511.8
18378.5
18379.2
25472
25472.3
41415.7
41414.8
87431
87427.9
264017
264014
1.52418e+06
1.52418e+06
)
;

boundaryField
{
    walls
    {
        blending        binomial2;
        n               2;
        beta1           0.075;
        type            omegaWallFunction;
        value           nonuniform List<scalar> 8(1.52417e+06 1.52417e+06 1.52417e+06 1.52417e+06 1.52418e+06 1.52418e+06 1.52418e+06 1.52418e+06);
    }
    inlet
    {
        type            cyclic;
    }
    outlet
    {
        type            cyclic;
    }
    sides
    {
        type            empty;
    }
}


// ************************************************************************* //
