/*--------------------------------*- C++ -*----------------------------------*\
| =========                 |                                                 |
| \\      /  F ield         | OpenFOAM: The Open Source CFD Toolbox           |
|  \\    /   O peration     | Version:  2012                                  |
|   \\  /    A nd           | Website:  www.openfoam.com                      |
|    \\/     M anipulation  |                                                 |
\*---------------------------------------------------------------------------*/
FoamFile
{
    version     2.0;
    format      ascii;
    class       volVectorField;
    location    "12100";
    object      U;
}
// * * * * * * * * * * * * * * * * * * * * * * * * * * * * * * * * * * * * * //

dimensions      [0 1 -1 0 0 0 0];


internalField   nonuniform List<vector> 
2560
(
(0.0302472 -2.6423e-05 0.000536274)
(0.0302116 -1.17451e-05 5.47923e-08)
(0.0909261 -1.26224e-05 0.000763057)
(0.0908198 1.87288e-05 1.83313e-08)
(0.152286 -2.65318e-05 0.000528893)
(0.152111 2.93254e-05 6.07219e-09)
(0.214331 -3.57403e-05 0.000271812)
(0.214091 3.54091e-05 1.83297e-09)
(0.27707 -3.87702e-05 0.000143506)
(0.27677 3.87382e-05 4.39488e-10)
(0.340512 -4.06875e-05 8.75278e-05)
(0.340158 4.06288e-05 1.17136e-10)
(0.404628 -4.19746e-05 6.03281e-05)
(0.404225 4.19768e-05 1.31574e-10)
(0.469361 -4.29574e-05 4.52228e-05)
(0.468915 4.28732e-05 1.69084e-11)
(0.534649 -4.37194e-05 3.58989e-05)
(0.534168 4.37317e-05 9.18287e-11)
(0.600499 -4.43319e-05 2.96781e-05)
(0.599988 4.42419e-05 5.26729e-12)
(0.66699 -4.48516e-05 2.52812e-05)
(0.666454 4.49266e-05 8.40304e-11)
(0.734151 -4.53161e-05 2.20344e-05)
(0.733596 4.52272e-05 5.61111e-36)
(0.802016 -4.57202e-05 1.95535e-05)
(0.801447 4.58435e-05 7.48768e-11)
(0.870656 -4.61974e-05 1.75953e-05)
(0.870077 5.94016e-05 4.95474e-08)
(0.940066 -4.66282e-05 1.60448e-05)
(0.939482 1.99455e-05 -3.08138e-37)
(1.01016 -4.66231e-05 1.47452e-05)
(1.00957 0.000102596 1.21087e-07)
(1.08081 -4.76543e-05 1.37166e-05)
(1.08022 -3.98236e-05 5.72535e-10)
(1.15187 -4.69155e-05 1.28273e-05)
(1.15129 0.000138366 4.04827e-08)
(1.22335 -4.84663e-05 1.20816e-05)
(1.22278 -5.22072e-05 8.34986e-10)
(1.2955 -4.70631e-05 1.14336e-05)
(1.29493 0.000151909 3.92894e-08)
(1.36861 -4.94137e-05 1.08831e-05)
(1.36806 -6.4529e-05 6.03671e-10)
(1.4429 -4.71037e-05 1.03954e-05)
(1.44235 0.000165242 3.75812e-08)
(1.5184 -5.0375e-05 9.97785e-06)
(1.51787 -7.67387e-05 -1.61101e-21)
(1.59509 -4.69264e-05 9.57632e-06)
(1.59458 0.000205069 1.46698e-07)
(1.67297 -5.15262e-05 9.28163e-06)
(1.67247 -0.000142322 1.49606e-21)
(1.75205 -4.665e-05 8.95751e-06)
(1.75156 0.000277689 1.85484e-07)
(1.83233 -5.29165e-05 8.74436e-06)
(1.83186 -0.000221896 1.83238e-09)
(1.91379 -4.61364e-05 8.51376e-06)
(1.91334 0.000329774 7.58383e-08)
(1.99639 -5.44725e-05 8.3279e-06)
(1.99595 -0.00024609 3.73226e-09)
(2.08008 -4.53029e-05 8.14525e-06)
(2.07965 0.000355302 7.80793e-08)
(2.16489 -5.62909e-05 8.00188e-06)
(2.16448 -0.00027115 3.44995e-09)
(2.25104 -4.41246e-05 7.8557e-06)
(2.25063 0.000381212 7.40816e-08)
(2.33894 -5.84593e-05 7.74414e-06)
(2.33855 -0.000296043 1.568e-09)
(2.42922 -4.25035e-05 7.62638e-06)
(2.42883 0.000406796 6.86671e-08)
(2.52255 -6.10796e-05 7.54029e-06)
(2.52218 -0.000320417 1.19418e-21)
(2.61955 -4.03841e-05 7.40967e-06)
(2.61918 0.000463784 2.23091e-07)
(2.72063 -6.43151e-05 7.38597e-06)
(2.72027 -0.000408919 3.80178e-37)
(2.82598 -3.76937e-05 7.1587e-06)
(2.82562 0.000653047 7.34783e-07)
(2.93557 -6.82352e-05 7.28519e-06)
(2.93522 -0.000700593 0)
(3.04926 -3.43542e-05 7.03497e-06)
(3.04891 0.000983274 9.61506e-07)
(3.16689 -7.28212e-05 7.23872e-06)
(3.16654 -0.00107287 1.12636e-21)
(3.28853 -3.03673e-05 7.05677e-06)
(3.28818 0.00132054 8.07319e-07)
(3.41466 -7.80143e-05 7.24015e-06)
(3.41432 -0.00137753 0)
(3.54637 -2.5751e-05 7.17331e-06)
(3.54602 0.00155328 4.33252e-07)
(3.68528 -8.37862e-05 7.27871e-06)
(3.68493 -0.00153811 -1.10737e-21)
(3.8334 -2.05198e-05 7.26909e-06)
(3.83305 0.00168432 2.68502e-07)
(3.99269 -9.02092e-05 7.34731e-06)
(3.99233 -0.00163798 1.96051e-36)
(4.16478 -1.46018e-05 7.33095e-06)
(4.16442 0.00180057 3.59411e-07)
(4.35072 -9.7384e-05 7.44613e-06)
(4.35035 -0.00176936 -2.02063e-37)
(4.551 -7.91358e-06 6.98924e-06)
(4.55063 0.00224987 2.25281e-06)
(4.76565 -0.000104909 7.59428e-06)
(4.76528 -0.0025435 0)
(4.99406 -5.73674e-07 7.35736e-06)
(4.99369 0.00289762 1.57393e-06)
(5.23452 -0.000112362 7.82138e-06)
(5.23417 -0.0030654 3.68594e-08)
(5.48322 6.65991e-06 7.91822e-06)
(5.48289 0.00325273 7.36607e-07)
(5.73285 -0.000119708 8.23713e-06)
(5.73257 -0.00324958 1.60949e-07)
(5.97124 1.24061e-05 8.45722e-06)
(5.97101 0.00346878 1.3522e-06)
(6.18049 -0.000127397 9.0495e-06)
(6.18034 -0.00349843 3.87114e-07)
(6.33734 1.56147e-05 9.46828e-06)
(6.33728 0.00376028 2.16213e-06)
(6.41522 -0.000134642 1.04081e-05)
(6.41529 -0.00383918 6.20008e-07)
(6.38804 1.6997e-05 1.10129e-05)
(6.38826 0.00413055 2.62796e-06)
(6.23495 -0.000138698 1.21486e-05)
(6.23534 -0.00424564 6.67551e-07)
(5.945 1.79651e-05 1.27854e-05)
(5.94558 0.00452825 2.22582e-06)
(5.52029 -0.000137747 1.37681e-05)
(5.52109 -0.00463269 4.22638e-07)
(4.97674 1.80264e-05 1.424e-05)
(4.97778 0.00486998 1.05942e-06)
(4.34198 -0.000133157 1.47886e-05)
(4.34326 -0.00491832 0)
(3.65109 1.4955e-05 1.50013e-05)
(3.65262 0.00510916 4.75793e-08)
(2.94154 -0.000127474 1.4869e-05)
(2.94331 -0.00496487 1.15324e-06)
(2.24835 8.10887e-06 1.49199e-05)
(2.25034 0.00510796 3.30311e-07)
(1.6006 -0.000121871 1.45753e-05)
(1.60276 -0.00494308 1.79615e-06)
(1.01974 -9.00254e-07 1.45908e-05)
(1.02199 0.00506481 4.17953e-07)
(0.51947 -0.000116257 1.42453e-05)
(0.521698 -0.00490528 1.86654e-06)
(0.10674 -9.98462e-06 1.4303e-05)
(0.108811 0.00502871 3.93364e-07)
(-0.216697 -0.000110696 9.14568e-07)
(-0.214937 -0.000178992 4.4247e-06)
(-0.452798 -1.69888e-05 7.5552e-07)
(-0.451442 0.00026296 4.47177e-07)
(-0.605935 -0.000104633 7.24663e-07)
(-0.605018 -0.000101352 1.03569e-06)
(-0.682003 -2.28199e-05 5.7412e-07)
(-0.68153 0.000195756 3.32103e-07)
(-0.687888 -9.92058e-05 5.45179e-07)
(-0.687845 -4.22551e-05 7.90794e-07)
(-0.631115 -2.78425e-05 4.11074e-07)
(-0.631481 0.000145653 2.44204e-07)
(-0.519575 -9.45157e-05 3.86313e-07)
(-0.520322 -1.0984e-06 5.56623e-07)
(-0.361229 -3.21758e-05 2.69055e-07)
(-0.362319 0.000112053 1.67183e-07)
(-0.163855 -9.04856e-05 2.50255e-07)
(-0.165229 2.48987e-05 3.54907e-07)
(0.0652087 -3.59395e-05 1.51041e-07)
(0.0636402 9.20302e-05 1.45736e-07)
(0.319303 -8.69623e-05 1.42521e-07)
(0.317659 3.88357e-05 2.00119e-07)
(0.592599 -3.91102e-05 6.39034e-08)
(0.590979 8.235e-05 1.94218e-07)
(0.880064 -8.38887e-05 6.46389e-08)
(0.878537 4.43593e-05 2.11333e-07)
(1.17733 -4.17741e-05 3.5171e-12)
(1.17594 8.00405e-05 2.33694e-07)
(1.48049 -8.11093e-05 6.42948e-08)
(1.47925 4.38336e-05 2.23105e-07)
(1.78583 -4.42935e-05 7.71265e-08)
(1.78475 7.92535e-05 2.30132e-07)
(2.08962 -7.86061e-05 1.58554e-07)
(2.08869 4.61674e-05 2.35578e-07)
(2.38789 -4.65342e-05 1.98954e-07)
(2.3871 7.7148e-05 2.42917e-07)
(2.67637 -7.64946e-05 3.046e-07)
(2.6757 4.8137e-05 3.04361e-07)
(2.95048 -4.85733e-05 3.73672e-07)
(2.94993 7.52154e-05 3.74727e-07)
(3.20552 -7.4745e-05 4.97368e-07)
(3.20506 4.97681e-05 4.97367e-07)
(3.43687 -5.04339e-05 5.80155e-07)
(3.43649 7.34371e-05 5.81228e-07)
(3.64036 -7.32554e-05 7.01333e-07)
(3.64006 5.11587e-05 7.01554e-07)
(3.81261 -5.20813e-05 7.72935e-07)
(3.81237 7.18514e-05 7.7404e-07)
(3.95133 -7.19434e-05 8.65418e-07)
(3.95115 5.23874e-05 8.65839e-07)
(4.0556 -5.34328e-05 9.02572e-07)
(4.05548 7.05443e-05 9.0371e-07)
(4.12599 -7.07192e-05 9.50489e-07)
(4.12592 5.35412e-05 9.51082e-07)
(4.16455 -5.45115e-05 9.44933e-07)
(4.16451 6.94954e-05 9.461e-07)
(4.17466 -6.95491e-05 9.50044e-07)
(4.17465 5.46509e-05 9.50782e-07)
(4.16084 -5.53973e-05 9.11095e-07)
(4.16085 6.86273e-05 9.12285e-07)
(4.12841 -6.84682e-05 8.89171e-07)
(4.12845 5.56794e-05 8.9003e-07)
(4.08323 -5.61568e-05 8.36546e-07)
(4.08328 6.78753e-05 8.37759e-07)
(4.03127 -6.75569e-05 8.07182e-07)
(4.03133 5.65443e-05 8.08146e-07)
(3.97845 -5.68461e-05 7.57466e-07)
(3.97851 6.71848e-05 7.58707e-07)
(3.93035 -6.68107e-05 7.33775e-07)
(3.9304 5.72484e-05 7.34842e-07)
(3.89203 -5.74888e-05 6.95014e-07)
(3.89207 6.65336e-05 6.96303e-07)
(3.86796 -6.61831e-05 6.81684e-07)
(3.86797 5.78369e-05 6.82867e-07)
(3.86184 -5.80698e-05 6.5579e-07)
(3.86184 6.59377e-05 6.57157e-07)
(3.8766 -6.56246e-05 6.54277e-07)
(3.87657 5.83583e-05 6.55605e-07)
(3.91422 -5.85543e-05 6.44333e-07)
(3.91417 6.54327e-05 6.45824e-07)
(3.97572 -6.51362e-05 6.59305e-07)
(3.97564 5.88103e-05 6.60819e-07)
(4.06098 -5.89537e-05 6.71229e-07)
(4.06088 6.50079e-05 6.729e-07)
(4.16874 -6.46785e-05 7.12209e-07)
(4.16862 5.92318e-05 7.13961e-07)
(4.29648 -5.93544e-05 7.54327e-07)
(4.29635 6.45772e-05 7.56239e-07)
(4.4405 -6.43053e-05 8.2486e-07)
(4.44036 5.95682e-05 8.26907e-07)
(4.59596 -5.96839e-05 9.00025e-07)
(4.59583 6.42138e-05 9.02241e-07)
(4.75711 -6.40012e-05 1.00299e-06)
(4.75699 5.98343e-05 1.00539e-06)
(4.91755 -5.99583e-05 1.11319e-06)
(4.91743 6.39017e-05 1.11576e-06)
(5.07059 -6.36982e-05 1.25386e-06)
(5.07049 6.00974e-05 1.25663e-06)
(5.20969 -6.01539e-05 1.4096e-06)
(5.2096 6.36646e-05 1.41254e-06)
(5.32887 -6.33622e-05 1.60649e-06)
(5.3288 6.03915e-05 1.60965e-06)
(5.42321 -6.02703e-05 1.83523e-06)
(5.42315 6.35033e-05 1.83854e-06)
(5.48912 -6.30211e-05 2.12365e-06)
(5.48908 6.06881e-05 2.12717e-06)
(5.52464 -6.03554e-05 2.46598e-06)
(5.52462 6.33697e-05 2.46962e-06)
(5.52953 -6.27767e-05 2.88489e-06)
(5.52953 6.08852e-05 2.88872e-06)
(5.50521 -6.04993e-05 3.37141e-06)
(5.50523 6.31741e-05 3.37533e-06)
(5.45454 -6.27279e-05 3.93466e-06)
(5.45458 6.08834e-05 3.93873e-06)
(5.38152 -6.08274e-05 4.55122e-06)
(5.38157 6.2791e-05 4.55536e-06)
(5.29082 -6.28884e-05 5.21245e-06)
(5.29087 6.06689e-05 5.21671e-06)
(5.18736 -6.13576e-05 5.8757e-06)
(5.18742 6.22025e-05 5.88001e-06)
(5.07586 -6.3246e-05 6.51156e-06)
(5.07593 6.02537e-05 6.51598e-06)
(4.96047 -6.1939e-05 7.066e-06)
(4.96054 6.15592e-05 7.07045e-06)
(4.84449 -6.35654e-05 7.5046e-06)
(4.84456 5.9873e-05 7.50915e-06)
(4.73024 -6.23611e-05 7.77798e-06)
(4.73031 6.10716e-05 7.78257e-06)
(4.61901 -6.36293e-05 7.8655e-06)
(4.61908 5.9744e-05 7.87018e-06)
(4.51115 -6.23954e-05 7.74459e-06)
(4.51122 6.09676e-05 7.7493e-06)
(4.40626 -6.32823e-05 7.42696e-06)
(4.40633 6.00219e-05 7.43178e-06)
(4.30338 -6.20194e-05 6.92619e-06)
(4.30345 6.12698e-05 6.93103e-06)
(4.20127 -6.26284e-05 6.28514e-06)
(4.20134 6.06026e-05 6.29007e-06)
(4.09858 -6.144e-05 5.54249e-06)
(4.09865 6.17712e-05 5.54743e-06)
(3.99416 -6.19277e-05 4.75443e-06)
(3.99423 6.12257e-05 4.75945e-06)
(3.8871 -6.09425e-05 3.96194e-06)
(3.88717 6.21866e-05 3.96697e-06)
(3.77694 -6.14208e-05 3.21275e-06)
(3.77702 6.16503e-05 3.21782e-06)
(3.66368 -6.06967e-05 2.53223e-06)
(3.66376 6.23459e-05 2.53729e-06)
(3.54771 -6.12322e-05 1.94393e-06)
(3.5478 6.17517e-05 1.94901e-06)
(3.42985 -6.0709e-05 1.45183e-06)
(3.42994 6.22428e-05 1.45689e-06)
(3.3112 -6.12704e-05 1.05868e-06)
(3.31129 6.16212e-05 1.06374e-06)
(3.19301 -6.08764e-05 7.52451e-07)
(3.1931 6.198e-05 9.15878e-07)
(3.0766 -6.14044e-05 5.24284e-07)
(3.07669 6.13898e-05 9.28936e-07)
(2.96322 -6.10651e-05 3.5703e-07)
(2.96331 6.16909e-05 9.41097e-07)
(2.85394 -6.15257e-05 2.39908e-07)
(2.85403 6.11656e-05 9.54138e-07)
(2.74959 -6.12044e-05 2.04147e-07)
(2.74967 6.14463e-05 9.66224e-07)
(2.65066 -6.15861e-05 2.21345e-07)
(2.65074 6.09967e-05 9.79096e-07)
(2.5573 -6.12833e-05 2.20802e-07)
(2.55738 6.12567e-05 9.9099e-07)
(2.4693 -6.15895e-05 2.40325e-07)
(2.46938 6.0879e-05 1.0035e-06)
(2.38606 -6.13106e-05 2.37372e-07)
(2.38613 6.11134e-05 1.0151e-06)
(2.30663 -6.15515e-05 2.59732e-07)
(2.3067 6.07966e-05 1.02705e-06)
(2.22974 -6.132e-05 2.6356e-07)
(2.22981 6.09826e-05 1.03832e-06)
(2.15384 -6.15093e-05 2.79322e-07)
(2.15391 6.07126e-05 1.04959e-06)
(2.07713 -6.12514e-05 2.89499e-07)
(2.07721 6.09245e-05 1.06056e-06)
(1.99762 -6.14889e-05 2.91323e-07)
(1.99771 6.06005e-05 1.07115e-06)
(1.91323 -6.12191e-05 3.0651e-07)
(1.91332 6.08243e-05 1.08195e-06)
(1.82183 -6.14259e-05 3.04142e-07)
(1.82193 6.05244e-05 1.09209e-06)
(1.72141 -6.11849e-05 3.23449e-07)
(1.72153 6.07205e-05 1.10298e-06)
(1.61015 -6.13627e-05 3.20943e-07)
(1.61029 6.04418e-05 1.11308e-06)
(1.48656 -6.11479e-05 3.40176e-07)
(1.48673 6.06137e-05 1.12452e-06)
(1.34964 -6.12989e-05 3.38994e-07)
(1.34984 6.03522e-05 1.13524e-06)
(1.19897 -6.11081e-05 3.5655e-07)
(1.19921 6.05037e-05 1.14788e-06)
(1.03484 -6.12344e-05 3.56474e-07)
(1.03516 6.02555e-05 1.16009e-06)
(0.858355 -6.10659e-05 3.72446e-07)
(0.858763 6.03898e-05 1.17475e-06)
(0.671448 -6.11683e-05 3.73277e-07)
(0.671994 6.01512e-05 1.1894e-06)
(0.476907 -6.10204e-05 3.87732e-07)
(0.477649 6.02718e-05 1.2069e-06)
(0.278323 -6.11e-05 3.89269e-07)
(0.279315 6.00386e-05 1.22485e-06)
(0.0800144 -6.09708e-05 4.02206e-07)
(0.0812316 6.01494e-05 1.24578e-06)
(-0.113102 -6.10338e-05 4.04184e-07)
(-0.11189 5.99227e-05 1.26741e-06)
(-0.295874 -6.09094e-05 4.17099e-07)
(-0.294919 6.00136e-05 1.29005e-06)
(-0.463197 -6.0961e-05 4.22129e-07)
(-0.46253 5.97959e-05 1.31238e-06)
(-0.610057 -6.08469e-05 4.3596e-07)
(-0.60962 5.98753e-05 1.33519e-06)
(-0.731859 -6.08843e-05 4.43829e-07)
(-0.731582 5.96592e-05 1.35747e-06)
(-0.824707 -6.07797e-05 4.58006e-07)
(-0.82454 5.97302e-05 1.37963e-06)
(-0.885591 -6.08041e-05 4.68218e-07)
(-0.885505 5.95119e-05 1.401e-06)
(-0.912607 -6.07077e-05 4.81932e-07)
(-0.912587 5.95783e-05 1.42193e-06)
(-0.905037 -6.07199e-05 4.92926e-07)
(-0.905078 5.93543e-05 1.4421e-06)
(-0.863351 -6.06336e-05 5.0633e-07)
(-0.863456 5.94171e-05 1.46196e-06)
(-0.789214 -6.06316e-05 5.15822e-07)
(-0.789393 5.91863e-05 1.4816e-06)
(-0.685341 -6.0556e-05 5.30123e-07)
(-0.68562 5.92477e-05 1.50158e-06)
(-0.555338 -6.05405e-05 5.35089e-07)
(-0.555767 5.90058e-05 1.52235e-06)
(-0.403466 -6.04748e-05 5.52715e-07)
(-0.40412 5.90691e-05 1.54425e-06)
(-0.234371 -6.0446e-05 5.57231e-07)
(-0.235316 5.88122e-05 1.56819e-06)
(-0.0529641 -6.03909e-05 5.73694e-07)
(-0.0541335 5.88792e-05 1.59386e-06)
(0.135813 -6.0355e-05 5.77975e-07)
(0.134796 5.86135e-05 1.62264e-06)
(0.327572 -6.02885e-05 5.95795e-07)
(0.326838 5.86635e-05 1.64993e-06)
(0.518277 -6.02621e-05 6.04473e-07)
(0.517778 5.83998e-05 1.67992e-06)
(0.704369 -6.01821e-05 6.25481e-07)
(0.704023 5.8439e-05 1.70783e-06)
(0.882842 -6.01641e-05 6.39025e-07)
(0.882593 5.81708e-05 1.73884e-06)
(1.05127 -6.00706e-05 6.63447e-07)
(1.05109 5.81998e-05 1.7669e-06)
(1.20785 -6.00566e-05 6.82022e-07)
(1.20771 5.79306e-05 1.79829e-06)
(1.35132 -5.99493e-05 7.0981e-07)
(1.35121 5.79504e-05 1.8257e-06)
(1.4809 -5.99453e-05 7.33356e-07)
(1.48081 5.76727e-05 1.85664e-06)
(1.59624 -5.98083e-05 7.64248e-07)
(1.59616 5.77003e-05 1.88245e-06)
(1.6973 -5.98221e-05 8.83607e-07)
(1.69724 5.74053e-05 1.9121e-06)
(1.78428 -5.96559e-05 1.07407e-06)
(1.78423 5.7442e-05 1.93536e-06)
(1.8575 -5.96825e-05 1.28546e-06)
(1.85746 5.71336e-05 1.96299e-06)
(1.91732 -5.9489e-05 1.51698e-06)
(1.91729 5.71793e-05 1.98291e-06)
(1.96402 -5.9532e-05 1.76254e-06)
(1.964 5.6853e-05 2.00802e-06)
(1.99774 -5.9316e-05 2.01894e-06)
(1.99772 5.6905e-05 2.02403e-06)
(2.01837 -5.93703e-05 2.27856e-06)
(2.01836 5.65649e-05 2.25888e-06)
(2.02554 -5.91574e-05 2.53526e-06)
(2.02554 5.66001e-05 2.51463e-06)
(2.0186 -5.92041e-05 2.78439e-06)
(2.01861 5.6264e-05 2.7633e-06)
(1.99667 -5.90161e-05 3.01847e-06)
(1.99669 5.62633e-05 2.99676e-06)
(1.95868 -5.90556e-05 3.23681e-06)
(1.95871 5.59296e-05 3.2149e-06)
(1.90352 -5.88836e-05 3.43639e-06)
(1.90355 5.59044e-05 3.41431e-06)
(1.83014 -5.89271e-05 3.61916e-06)
(1.83018 5.55604e-05 3.59724e-06)
(1.7378 -5.87638e-05 3.78785e-06)
(1.73785 5.55204e-05 3.76631e-06)
(1.62617 -5.88105e-05 3.94878e-06)
(1.62623 5.51644e-05 3.92787e-06)
(1.49553 -5.86359e-05 4.10925e-06)
(1.49561 5.51316e-05 4.08936e-06)
(1.34693 -5.86974e-05 4.27501e-06)
(1.34703 5.47486e-05 4.25627e-06)
(1.18226 -5.84857e-05 4.4559e-06)
(1.18238 5.47502e-05 4.4389e-06)
(1.00434 -5.85731e-05 4.65326e-06)
(1.00448 5.43244e-05 4.63792e-06)
(0.81684 -5.83178e-05 4.87514e-06)
(0.817029 5.43672e-05 4.86223e-06)
(0.62429 -5.8418e-05 5.11904e-06)
(0.624541 5.39052e-05 5.10821e-06)
(0.431855 -5.81383e-05 5.38508e-06)
(0.432211 5.39698e-05 5.37725e-06)
(0.245169 -5.82348e-05 5.66774e-06)
(0.245699 5.34802e-05 5.66217e-06)
(0.0700637 -5.79547e-05 5.95902e-06)
(0.0708156 5.35416e-05 5.95673e-06)
(-0.0876334 -5.80475e-05 6.25132e-06)
(-0.0868574 5.30351e-05 6.25114e-06)
(-0.222632 -5.77409e-05 6.53624e-06)
(-0.222138 5.30697e-05 6.53319e-06)
(-0.330745 -5.78865e-05 6.79953e-06)
(-0.330484 5.25057e-05 6.79436e-06)
(-0.408752 -5.75105e-05 7.04235e-06)
(-0.408625 5.25818e-05 7.03505e-06)
(-0.454829 -5.77521e-05 7.24708e-06)
(-0.454778 5.19e-05 7.23848e-06)
(-0.468745 -5.72774e-05 7.4268e-06)
(-0.468747 5.20487e-05 7.41718e-06)
(-0.451933 -5.76159e-05 7.56769e-06)
(-0.451981 5.12469e-05 7.5579e-06)
(-0.407467 -5.70664e-05 7.68748e-06)
(-0.407564 5.14451e-05 7.67796e-06)
(-0.339766 -5.74555e-05 7.78541e-06)
(-0.339936 5.05679e-05 7.77694e-06)
(-0.2543 -5.68433e-05 7.87712e-06)
(-0.25459 5.08022e-05 7.87007e-06)
(-0.157193 -5.72748e-05 7.96309e-06)
(-0.157662 4.98555e-05 7.9581e-06)
(-0.0548415 -5.66031e-05 8.05708e-06)
(-0.0554448 5.01186e-05 8.05424e-06)
(0.0465805 -5.70738e-05 8.15762e-06)
(0.0460827 4.91158e-05 8.15743e-06)
(0.141766 -5.63192e-05 8.27636e-06)
(0.141441 4.93991e-05 8.27369e-06)
(0.226382 -5.68593e-05 8.40301e-06)
(0.226183 4.83053e-05 8.39777e-06)
(0.297326 -5.59987e-05 8.55005e-06)
(0.297204 4.86632e-05 8.54251e-06)
(0.352854 -5.66333e-05 8.69767e-06)
(0.35278 4.74413e-05 8.68816e-06)
(0.392569 -5.56692e-05 8.85895e-06)
(0.392525 4.78702e-05 8.84772e-06)
(0.417315 -5.64044e-05 9.01541e-06)
(0.417292 4.65171e-05 9.00303e-06)
(0.428983 -5.5317e-05 9.18423e-06)
(0.428975 4.70366e-05 9.17083e-06)
(0.430212 -5.61815e-05 9.34258e-06)
(0.430215 4.55259e-05 9.32884e-06)
(0.424087 -5.49516e-05 9.5149e-06)
(0.424096 4.61549e-05 9.50072e-06)
(0.413828 -5.59551e-05 9.67726e-06)
(0.413839 4.44787e-05 9.66328e-06)
(0.402486 -5.4584e-05 9.85731e-06)
(0.402498 4.52152e-05 9.84312e-06)
(0.392785 -5.57158e-05 1.00342e-05)
(0.392793 4.33859e-05 1.00204e-05)
(0.386957 -5.41879e-05 1.0235e-05)
(0.38696 4.42451e-05 1.02208e-05)
(0.386602 -5.54856e-05 1.043e-05)
(0.386598 4.22268e-05 1.0416e-05)
(0.392698 -5.37714e-05 1.06543e-05)
(0.392687 4.32382e-05 1.06396e-05)
(0.405668 -5.52471e-05 1.08728e-05)
(0.405651 4.10212e-05 1.08579e-05)
(0.425447 -5.33313e-05 1.11207e-05)
(0.425426 4.22009e-05 1.11045e-05)
(0.451548 -5.50167e-05 1.13542e-05)
(0.451523 3.97568e-05 1.13373e-05)
(0.483152 -5.28797e-05 1.16151e-05)
(0.483125 4.11264e-05 1.15963e-05)
(0.519196 -5.48018e-05 1.18551e-05)
(0.519169 3.84323e-05 1.18351e-05)
(0.558509 -5.2399e-05 1.2125e-05)
(0.558482 4.00388e-05 1.21027e-05)
(0.59979 -5.46197e-05 1.23614e-05)
(0.599765 3.70378e-05 1.23378e-05)
(0.641695 -5.19078e-05 1.26312e-05)
(0.641672 3.89281e-05 1.26049e-05)
(0.682879 -5.44444e-05 1.28627e-05)
(0.682859 3.56087e-05 1.2835e-05)
(0.721977 -5.14397e-05 1.31238e-05)
(0.721959 3.777e-05 1.30933e-05)
(0.757779 -5.42604e-05 1.33488e-05)
(0.757764 3.41705e-05 1.33172e-05)
(0.789208 -5.09827e-05 1.35971e-05)
(0.789196 3.65867e-05 1.35628e-05)
(0.815352 -5.41156e-05 1.37992e-05)
(0.815343 3.2686e-05 1.37643e-05)
(0.83563 -5.05231e-05 1.40283e-05)
(0.835624 3.54019e-05 1.3991e-05)
(0.849844 -5.39935e-05 1.42018e-05)
(0.849841 3.11817e-05 1.41644e-05)
(0.858141 -5.0088e-05 1.43952e-05)
(0.858139 3.41978e-05 1.43558e-05)
(0.860992 -5.39123e-05 1.45237e-05)
(0.860992 2.96489e-05 1.44851e-05)
(0.859161 -4.96761e-05 1.4674e-05)
(0.859162 3.29836e-05 1.46336e-05)
(0.853642 -5.38664e-05 1.4756e-05)
(0.853644 2.81007e-05 1.4717e-05)
(0.845502 -4.92925e-05 1.48626e-05)
(0.845505 3.17599e-05 1.48219e-05)
(0.835706 -5.3876e-05 1.4899e-05)
(0.83571 2.65226e-05 1.48603e-05)
(0.825068 -4.8929e-05 1.49759e-05)
(0.825071 3.05395e-05 1.49353e-05)
(0.814124 -5.39292e-05 1.49868e-05)
(0.814127 2.49311e-05 1.49487e-05)
(0.803049 -4.86081e-05 1.50522e-05)
(0.803052 2.93033e-05 1.50118e-05)
(0.791781 -5.40063e-05 1.50661e-05)
(0.791785 2.33501e-05 1.50288e-05)
(0.780016 -4.83191e-05 1.51461e-05)
(0.780019 2.80649e-05 1.51059e-05)
(0.767262 -5.41327e-05 1.51768e-05)
(0.767266 2.17582e-05 1.51402e-05)
(0.753085 -4.80444e-05 1.52878e-05)
(0.75309 2.68447e-05 1.52479e-05)
(0.737154 -5.43032e-05 1.53397e-05)
(0.737159 2.01644e-05 1.53044e-05)
(0.719333 -4.78065e-05 1.54694e-05)
(0.719338 2.56223e-05 1.543e-05)
(0.699792 -5.45095e-05 1.55241e-05)
(0.699798 1.85796e-05 1.54904e-05)
(0.678983 -4.76177e-05 1.56413e-05)
(0.678989 2.43862e-05 1.56027e-05)
(0.657648 -5.47593e-05 1.566e-05)
(0.657655 1.69982e-05 1.56283e-05)
(0.636722 -4.74896e-05 1.5723e-05)
(0.636728 2.31249e-05 1.56854e-05)
(0.617318 -5.5056e-05 1.56661e-05)
(0.617323 1.54178e-05 1.56367e-05)
(0.600589 -4.74223e-05 1.56409e-05)
(0.600594 2.18375e-05 1.56039e-05)
(0.587526 -5.54187e-05 1.54774e-05)
(0.587529 1.38204e-05 1.54498e-05)
(0.578998 -4.74141e-05 1.53515e-05)
(0.578999 2.05258e-05 1.53144e-05)
(0.575682 -5.58406e-05 1.50844e-05)
(0.575682 1.22157e-05 1.50581e-05)
(0.577916 -4.74643e-05 1.48726e-05)
(0.577914 1.91924e-05 1.48341e-05)
(0.585692 -5.63183e-05 1.45229e-05)
(0.585689 1.06135e-05 1.44967e-05)
(0.598731 -4.75958e-05 1.42497e-05)
(0.598727 1.78204e-05 1.42083e-05)
(0.616495 -5.68411e-05 1.38571e-05)
(0.61649 9.03583e-06 1.38299e-05)
(0.638208 -4.78059e-05 1.35664e-05)
(0.638202 1.64228e-05 1.35205e-05)
(0.662933 -5.74206e-05 1.31661e-05)
(0.662927 7.48874e-06 1.31372e-05)
(0.689651 -4.81193e-05 1.28889e-05)
(0.689646 1.49903e-05 1.28369e-05)
(0.717272 -5.80585e-05 1.25138e-05)
(0.717267 5.99476e-06 1.2483e-05)
(0.744773 -4.85518e-05 1.22795e-05)
(0.744769 1.35278e-05 1.22203e-05)
(0.771282 -5.877e-05 1.19509e-05)
(0.771278 4.56948e-06 1.19183e-05)
(0.796042 -4.91282e-05 1.17756e-05)
(0.796038 1.20356e-05 1.1708e-05)
(0.818536 -5.95702e-05 1.15046e-05)
(0.818533 3.23438e-06 1.1471e-05)
(0.838613 -4.98642e-05 1.13964e-05)
(0.83861 1.05271e-05 1.13196e-05)
(0.856408 -6.04728e-05 1.11763e-05)
(0.856406 2.01778e-06 1.1143e-05)
(0.872415 -5.07863e-05 1.11124e-05)
(0.872413 9.00793e-06 1.1025e-05)
(0.887523 -6.14985e-05 1.08972e-05)
(0.88752 9.45799e-07 1.08656e-05)
(0.903032 -5.19285e-05 1.08129e-05)
(0.90303 7.48046e-06 1.07132e-05)
(0.920751 -6.2662e-05 1.13299e-05)
(0.920748 5.75161e-08 1.04874e-05)
(0.943129 -5.33419e-05 1.02994e-05)
(0.943125 5.93627e-06 1.01841e-05)
(0.973611 -6.39913e-05 1.21848e-05)
(0.973605 -6.09946e-07 9.76592e-06)
(1.01689 -5.50893e-05 9.30263e-06)
(1.01688 4.36844e-06 9.16583e-06)
(1.07972 -4.82711e-05 8.44555e-06)
(1.07971 -1.0476e-06 8.42155e-06)
(1.17236 -3.94552e-05 7.5503e-06)
(1.17235 2.9602e-06 7.43475e-06)
(1.31049 -3.16279e-05 6.28869e-06)
(1.31049 -1.44543e-06 6.26481e-06)
(1.51604 -2.27379e-05 4.95052e-06)
(1.51604 1.74028e-06 4.8605e-06)
(1.81875 -1.38397e-05 3.32463e-06)
(1.81874 -1.85868e-06 3.30431e-06)
(2.35579 -4.80116e-06 1.60177e-06)
(2.35579 5.1552e-07 1.55599e-06)
(0.0302115 -1.17291e-05 -5.47605e-08)
(0.0302471 -2.64145e-05 -0.000534674)
(0.0908195 1.87887e-05 -1.83439e-08)
(0.0909261 -1.25831e-05 -0.000760781)
(0.15211 2.94181e-05 -6.09809e-09)
(0.152286 -2.64899e-05 -0.000527316)
(0.21409 3.5525e-05 -1.84015e-09)
(0.214331 -3.56921e-05 -0.000271001)
(0.276769 3.88652e-05 -4.40556e-10)
(0.27707 -3.88476e-05 -0.000143078)
(0.340157 4.07619e-05 -1.17494e-10)
(0.340512 -4.06967e-05 -8.72667e-05)
(0.404224 4.21142e-05 -1.31816e-10)
(0.404628 -4.20142e-05 -6.01481e-05)
(0.468914 4.30136e-05 -1.6928e-11)
(0.46936 -4.29844e-05 -4.50879e-05)
(0.534166 4.38749e-05 -9.20253e-11)
(0.534649 -4.37608e-05 -3.57917e-05)
(0.599986 4.43867e-05 -5.23569e-12)
(0.600499 -4.44075e-05 -2.95895e-05)
(0.666452 4.50737e-05 -8.42931e-11)
(0.666989 -4.49548e-05 -2.52057e-05)
(0.733594 4.53753e-05 1.1707e-22)
(0.73415 -4.54177e-05 -2.19686e-05)
(0.801445 4.59936e-05 -7.48249e-11)
(0.802016 -4.59032e-05 -1.94951e-05)
(0.870075 5.95527e-05 -4.95488e-08)
(0.870655 -4.61525e-05 -1.75428e-05)
(0.93948 2.00973e-05 -5.86454e-19)
(0.940065 -4.66212e-05 -1.5997e-05)
(1.00957 0.00010275 -1.21085e-07)
(1.01016 -4.66364e-05 -1.47012e-05)
(1.08022 -3.96691e-05 -5.72558e-10)
(1.0808 -4.76927e-05 -1.36758e-05)
(1.15129 0.000138521 -4.04854e-08)
(1.15187 -4.69536e-05 -1.27891e-05)
(1.22278 -5.20515e-05 -8.35006e-10)
(1.22335 -4.85104e-05 -1.20457e-05)
(1.29493 0.000152067 -3.92895e-08)
(1.29549 -4.70997e-05 -1.13996e-05)
(1.36805 -6.43717e-05 -6.03641e-10)
(1.36861 -4.945e-05 -1.08508e-05)
(1.44235 0.000165401 -3.75816e-08)
(1.44289 -4.71347e-05 -1.03645e-05)
(1.51787 -7.65798e-05 6.0866e-19)
(1.5184 -5.04063e-05 -9.94821e-06)
(1.59458 0.00020523 -1.46698e-07)
(1.59509 -4.69556e-05 -9.5478e-06)
(1.67247 -0.000142162 2.38031e-36)
(1.67297 -5.15564e-05 -9.2541e-06)
(1.75156 0.000277851 -1.85485e-07)
(1.75205 -4.668e-05 -8.93087e-06)
(1.83186 -0.000221735 -1.83237e-09)
(1.83233 -5.29477e-05 -8.7185e-06)
(1.91334 0.000329938 -7.58387e-08)
(1.91379 -4.6168e-05 -8.48859e-06)
(1.99595 -0.000245928 -3.7323e-09)
(1.99639 -5.45051e-05 -8.30336e-06)
(2.07965 0.000355468 -7.80796e-08)
(2.08008 -4.53361e-05 -8.12127e-06)
(2.16448 -0.000270986 -3.45004e-09)
(2.16489 -5.63249e-05 -7.9784e-06)
(2.25063 0.000381379 -7.40819e-08)
(2.25104 -4.41592e-05 -7.83266e-06)
(2.33854 -0.000295878 -1.56803e-09)
(2.33894 -5.84945e-05 -7.7215e-06)
(2.42883 0.000406964 -6.86676e-08)
(2.42922 -4.25391e-05 -7.6041e-06)
(2.52217 -0.00032025 -4.97204e-19)
(2.52255 -6.11158e-05 -7.51833e-06)
(2.61918 0.000463955 -2.23092e-07)
(2.61955 -4.04207e-05 -7.38799e-06)
(2.72026 -0.000408752 0)
(2.72063 -6.43521e-05 -7.36454e-06)
(2.82562 0.000653219 -7.34784e-07)
(2.82597 -3.77309e-05 -7.13749e-06)
(2.93521 -0.000700424 -3.56964e-19)
(2.93557 -6.82728e-05 -7.26417e-06)
(3.0489 0.000983448 -9.61507e-07)
(3.04926 -3.4392e-05 -7.01411e-06)
(3.16654 -0.0010727 -1.12636e-21)
(3.16689 -7.28594e-05 -7.21801e-06)
(3.28818 0.00132071 -8.0732e-07)
(3.28853 -3.04056e-05 -7.03618e-06)
(3.41432 -0.00137736 -2.99151e-18)
(3.41466 -7.80529e-05 -7.21965e-06)
(3.54602 0.00155345 -4.33253e-07)
(3.54637 -2.57898e-05 -7.15289e-06)
(3.68493 -0.00153794 0)
(3.68528 -8.38253e-05 -7.25835e-06)
(3.83304 0.0016845 -2.68503e-07)
(3.8334 -2.0559e-05 -7.24877e-06)
(3.99233 -0.0016378 -1.10415e-21)
(3.99269 -9.02487e-05 -7.32701e-06)
(4.16442 0.00180075 -3.59413e-07)
(4.16478 -1.46414e-05 -7.31065e-06)
(4.35035 -0.00176918 -4.41909e-21)
(4.35072 -9.7424e-05 -7.42582e-06)
(4.55063 0.00225005 -2.25281e-06)
(4.551 -7.95357e-06 -6.96889e-06)
(4.76528 -0.00254333 -2.21829e-21)
(4.76565 -0.000104949 -7.57389e-06)
(4.99369 0.00289781 -1.57393e-06)
(4.99406 -6.14044e-07 -7.3369e-06)
(5.23417 -0.00306522 -3.68595e-08)
(5.23452 -0.000112403 -7.80084e-06)
(5.48289 0.00325292 -7.36608e-07)
(5.48322 6.61917e-06 -7.89758e-06)
(5.73257 -0.0032494 -1.60949e-07)
(5.73285 -0.00011975 -8.21638e-06)
(5.97101 0.00346897 -1.3522e-06)
(5.97124 1.23649e-05 -8.43633e-06)
(6.18034 -0.00349825 -3.87115e-07)
(6.18049 -0.000127439 -9.02848e-06)
(6.33728 0.00376047 -2.16213e-06)
(6.33734 1.55732e-05 -9.44709e-06)
(6.41529 -0.003839 -6.20008e-07)
(6.41522 -0.000134684 -1.03867e-05)
(6.38826 0.00413074 -2.62796e-06)
(6.38804 1.69552e-05 -1.09914e-05)
(6.23535 -0.00424546 -6.67551e-07)
(6.23496 -0.00013874 -1.21269e-05)
(5.94559 0.00452844 -2.22582e-06)
(5.945 1.79228e-05 -1.27635e-05)
(5.5211 -0.0046325 -4.22638e-07)
(5.5203 -0.000137789 -1.3746e-05)
(4.97778 0.00487018 -1.05942e-06)
(4.97675 1.79837e-05 -1.42177e-05)
(4.34327 -0.00491813 -2.70049e-18)
(4.34199 -0.000133201 -1.47659e-05)
(3.65263 0.00510936 -4.75791e-08)
(3.6511 1.49119e-05 -1.49783e-05)
(2.94332 -0.00496468 -1.15324e-06)
(2.94155 -0.000127518 -1.48456e-05)
(2.25035 0.00510816 -3.30311e-07)
(2.24836 8.06527e-06 -1.48959e-05)
(1.60277 -0.00494289 -1.79615e-06)
(1.60061 -0.000121915 -1.45508e-05)
(1.022 0.00506501 -4.17953e-07)
(1.01975 -9.44369e-07 -1.45657e-05)
(0.521706 -0.00490509 -1.86654e-06)
(0.519473 -0.000116302 -1.42196e-05)
(0.108818 0.00502892 -3.93364e-07)
(0.106743 -1.00293e-05 -1.42765e-05)
(-0.214931 -0.000178787 -4.45188e-06)
(-0.216694 -0.000110742 -9.14567e-07)
(-0.451437 0.000263161 -4.47177e-07)
(-0.452796 -1.70341e-05 -7.55519e-07)
(-0.605014 -0.000101144 -1.03569e-06)
(-0.605933 -0.000104679 -7.24662e-07)
(-0.681527 0.00019596 -3.32103e-07)
(-0.682001 -2.28659e-05 -5.74119e-07)
(-0.687844 -4.2043e-05 -7.90796e-07)
(-0.687887 -9.92523e-05 -5.45178e-07)
(-0.631481 0.00014586 -2.44204e-07)
(-0.631114 -2.78892e-05 -4.11072e-07)
(-0.520323 -8.82509e-07 -5.56623e-07)
(-0.519575 -9.45629e-05 -3.86312e-07)
(-0.362321 0.000112264 -1.67183e-07)
(-0.361229 -3.22233e-05 -2.69053e-07)
(-0.165232 2.51186e-05 -3.54908e-07)
(-0.163855 -9.05337e-05 -2.50254e-07)
(0.0636362 9.2245e-05 -1.02323e-07)
(0.065208 -3.59879e-05 -1.51039e-07)
(0.317655 3.906e-05 -1.9303e-07)
(0.319302 -8.70113e-05 -1.4252e-07)
(0.590974 8.25691e-05 -5.26422e-08)
(0.592598 -3.91596e-05 -6.39019e-08)
(0.878532 4.45884e-05 -7.65058e-08)
(0.880062 -8.39387e-05 -6.46375e-08)
(1.17593 8.02642e-05 -5.79362e-08)
(1.17733 -4.18242e-05 -2.123e-12)
(1.47925 4.40678e-05 -6.35588e-08)
(1.48048 -8.11604e-05 -6.42956e-08)
(1.78475 7.94829e-05 -7.8233e-08)
(1.78583 -4.43448e-05 -7.71287e-08)
(2.08869 4.64059e-05 -1.58066e-07)
(2.08961 -7.86586e-05 -1.58554e-07)
(2.3871 7.73841e-05 -2.00022e-07)
(2.38788 -4.65866e-05 -1.98956e-07)
(2.6757 4.83804e-05 -3.04356e-07)
(2.67636 -7.65486e-05 -3.04599e-07)
(2.94992 7.54587e-05 -3.74734e-07)
(2.95048 -4.86268e-05 -3.73674e-07)
(3.20506 5.00169e-05 -4.97362e-07)
(3.20552 -7.48007e-05 -4.97367e-07)
(3.43649 7.36882e-05 -5.81236e-07)
(3.43686 -5.04885e-05 -5.80157e-07)
(3.64005 5.14134e-05 -7.01549e-07)
(3.64035 -7.33129e-05 -7.01332e-07)
(3.81237 7.2111e-05 -7.74048e-07)
(3.8126 -5.21372e-05 -7.72938e-07)
(3.95115 5.26486e-05 -8.65833e-07)
(3.95132 -7.20031e-05 -8.65417e-07)
(4.05547 7.08133e-05 -9.0372e-07)