/*--------------------------------*- C++ -*----------------------------------*\
| =========                 |                                                 |
| \\      /  F ield         | OpenFOAM: The Open Source CFD Toolbox           |
|  \\    /   O peration     | Version:  2106                                  |
|   \\  /    A nd           | Website:  www.openfoam.com                      |
|    \\/     M anipulation  |                                                 |
\*---------------------------------------------------------------------------*/
FoamFile
{
    version     2.0;
    format      ascii;
    arch        "LSB;label=32;scalar=64";
    class       surfaceScalarField;
    location    "19000";
    object      phi;
}
// * * * * * * * * * * * * * * * * * * * * * * * * * * * * * * * * * * * * * //

dimensions      [0 3 -1 0 0 0 0];

oriented        oriented;

internalField   nonuniform List<scalar> 
5116
(
2.58781e-08
-8.05569e-18
-2.62213e-22
-7.67878e-22
6.78511e-23
7.91373e-08
-8.05419e-18
-4.09375e-22
-1.98813e-21
1.14808e-22
1.34712e-07
-8.05263e-18
-4.22378e-22
-3.22648e-21
1.19861e-22
1.92681e-07
-8.05098e-18
-4.45712e-22
-4.54976e-21
1.25125e-22
2.53124e-07
-8.04934e-18
-4.68965e-22
-5.86854e-21
1.30606e-22
3.16126e-07
-8.04762e-18
-4.92641e-22
-7.31423e-21
1.36311e-22
3.81771e-07
-8.0457e-18
-5.17613e-22
-8.88382e-21
1.42249e-22
4.50149e-07
-8.04371e-18
-5.43956e-22
-1.04246e-20
1.48428e-22
5.21349e-07
-8.04177e-18
-5.71572e-22
-1.20331e-20
1.54856e-22
5.95465e-07
-8.03963e-18
-6.00443e-22
-1.37332e-20
1.61539e-22
6.72591e-07
-8.03733e-18
-6.30598e-22
-1.53574e-20
1.68483e-22
7.52823e-07
-8.035e-18
-6.62074e-22
-1.72691e-20
1.75694e-22
8.36257e-07
-8.03253e-18
-6.94903e-22
-1.93419e-20
1.83177e-22
9.22992e-07
-8.02957e-18
-7.29108e-22
-2.14466e-20
1.90934e-22
1.01312e-06
-8.02673e-18
-7.64705e-22
-2.3428e-20
1.98961e-22
1.10675e-06
-8.02361e-18
-8.01692e-22
-2.59511e-20
2.07254e-22
1.20395e-06
-8.02083e-18
-8.40047e-22
-2.82309e-20
2.15808e-22
1.30482e-06
-8.01765e-18
-8.79721e-22
-3.07798e-20
2.24607e-22
1.40945e-06
-8.0146e-18
-9.20646e-22
-3.35504e-20
2.33627e-22
1.51788e-06
-8.01106e-18
-9.62712e-22
-3.65333e-20
2.42841e-22
1.63019e-06
-8.00749e-18
-1.00579e-21
-3.9469e-20
2.52211e-22
1.74642e-06
-8.00385e-18
-1.0497e-21
-4.21664e-20
2.61686e-22
1.86659e-06
-8.00052e-18
-1.09424e-21
-4.53378e-20
2.71205e-22
1.99071e-06
-7.99596e-18
-1.13914e-21
-4.91783e-20
2.80712e-22
2.11876e-06
-7.99101e-18
-1.18414e-21
-5.30485e-20
2.90136e-22
2.25071e-06
-7.98694e-18
-1.22893e-21
-5.63509e-20
2.99393e-22
2.38649e-06
-7.98286e-18
-1.27315e-21
-5.99317e-20
3.08398e-22
2.52602e-06
-7.97842e-18
-1.31649e-21
-6.28452e-20
3.17097e-22
2.6692e-06
-7.97302e-18
-1.35864e-21
-6.65541e-20
3.25397e-22
2.81589e-06
-7.96794e-18
-1.3993e-21
-7.0731e-20
3.33245e-22
2.96596e-06
-7.96204e-18
-1.43819e-21
-7.49825e-20
3.40578e-22
3.11926e-06
-7.95712e-18
-1.47512e-21
-7.86502e-20
3.47338e-22
3.27561e-06
-7.95164e-18
-1.5099e-21
-8.24026e-20
3.53497e-22
3.43486e-06
-7.9462e-18
-1.54245e-21
-8.6838e-20
3.5906e-22
3.59685e-06
-7.94057e-18
-1.57271e-21
-9.11622e-20
3.64048e-22
3.76142e-06
-7.93486e-18
-1.60073e-21
-9.47221e-20
3.68448e-22
3.92843e-06
-7.92909e-18
-1.62658e-21
-9.9063e-20
3.72256e-22
4.09774e-06
-7.92266e-18
-1.65034e-21
-1.04178e-19
3.75489e-22
4.26923e-06
-7.91698e-18
-1.67219e-21
-1.08763e-19
3.7826e-22
4.44281e-06
-7.91015e-18
-1.69225e-21
-1.13785e-19
3.80502e-22
4.61839e-06
-7.90377e-18
-1.71077e-21
-1.19344e-19
3.82302e-22
4.79591e-06
-7.89709e-18
-1.72793e-21
-1.24289e-19
3.83733e-22
4.9753e-06
-7.89031e-18
-1.74395e-21
-1.30505e-19
3.84862e-22
5.15655e-06
-7.88462e-18
-1.75903e-21
-1.34541e-19
3.85759e-22
5.33963e-06
-7.87759e-18
-1.7733e-21
-1.39894e-19
3.86341e-22
5.52453e-06
-7.87105e-18
-1.78698e-21
-1.44908e-19
3.86734e-22
5.71125e-06
-7.865e-18
-1.80025e-21
-1.50554e-19
3.8699e-22
5.89983e-06
-7.85757e-18
-1.8132e-21
-1.56385e-19
3.87134e-22
6.09027e-06
-7.85045e-18
-1.82605e-21
-1.6232e-19
3.87268e-22
6.28262e-06
-7.84362e-18
-1.83882e-21
-1.67678e-19
3.87365e-22
6.47691e-06
-7.8365e-18
-1.85167e-21
-1.73783e-19
3.87447e-22
6.6732e-06
-7.82765e-18
-1.86465e-21
-1.79724e-19
3.87566e-22
6.87154e-06
-7.82054e-18
-1.87798e-21
-1.85637e-19
3.87777e-22
7.07197e-06
-7.81206e-18
-1.89164e-21
-1.93111e-19
3.88118e-22
7.27458e-06
-7.80659e-18
-1.90577e-21
-1.97042e-19
3.88618e-22
7.4794e-06
-7.80002e-18
-1.92033e-21
-2.01638e-19
3.89226e-22
7.68652e-06
-7.79465e-18
-1.93535e-21
-2.05792e-19
3.90001e-22
7.896e-06
-7.78704e-18
-1.95082e-21
-2.11417e-19
3.90855e-22
8.10792e-06
-7.77956e-18
-1.96692e-21
-2.18121e-19
3.91839e-22
8.32233e-06
-7.77225e-18
-1.98364e-21
-2.23677e-19
3.93064e-22
8.53932e-06
-7.76515e-18
-2.00095e-21
-2.29048e-19
3.94464e-22
8.75896e-06
-7.75556e-18
-2.01886e-21
-2.34426e-19
3.96025e-22
8.98133e-06
-7.74888e-18
-2.0374e-21
-2.41337e-19
3.97546e-22
9.20649e-06
-7.74125e-18
-2.05645e-21
-2.478e-19
3.99452e-22
9.43453e-06
-7.73227e-18
-2.07619e-21
-2.5355e-19
4.01572e-22
9.66552e-06
-7.72691e-18
-2.09672e-21
-2.58072e-19
4.03833e-22
9.89955e-06
-7.72128e-18
-2.11771e-21
-2.6212e-19
4.06259e-22
1.01367e-05
-7.71337e-18
-2.13899e-21
-2.67715e-19
4.08546e-22
1.0377e-05
-7.70459e-18
-2.16071e-21
-2.74231e-19
4.11029e-22
1.06206e-05
-7.69552e-18
-2.18299e-21
-2.78144e-19
4.13749e-22
1.08675e-05
-7.68756e-18
-2.20575e-21
-2.83947e-19
4.16409e-22
1.11179e-05
-7.68259e-18
-2.229e-21
-2.88551e-19
4.19045e-22
1.13717e-05
-7.67604e-18
-2.25257e-21
-2.91841e-19
4.21582e-22
1.16292e-05
-7.66962e-18
-2.27643e-21
-2.95734e-19
4.24066e-22
1.18903e-05
-7.66373e-18
-2.30056e-21
-3.00849e-19
4.26537e-22
1.21552e-05
-7.6564e-18
-2.32501e-21
-3.05453e-19
4.28978e-22
1.24239e-05
-7.65243e-18
-2.34987e-21
-3.09128e-19
4.31231e-22
1.26965e-05
-7.64755e-18
-2.37492e-21
-3.14746e-19
4.33319e-22
1.29731e-05
-7.64358e-18
-2.40027e-21
-3.18893e-19
4.35493e-22
1.32538e-05
-7.63557e-18
-2.42582e-21
-3.22776e-19
4.37676e-22
1.35387e-05
-7.62878e-18
-2.45226e-21
-3.25249e-19
4.39568e-22
1.38278e-05
-7.62279e-18
-2.47951e-21
-3.31138e-19
4.41146e-22
1.41213e-05
-7.61444e-18
-2.50743e-21
-3.3743e-19
4.42822e-22
1.44192e-05
-7.6049e-18
-2.53612e-21
-3.4366e-19
4.44789e-22
1.47216e-05
-7.59681e-18
-2.56552e-21
-3.4998e-19
4.47038e-22
1.50286e-05
-7.5875e-18
-2.59518e-21
-3.57749e-19
4.49362e-22
1.53403e-05
-7.58083e-18
-2.62478e-21
-3.61975e-19
4.51159e-22
1.56568e-05
-7.57628e-18
-2.65409e-21
-3.66818e-19
4.5253e-22
1.59782e-05
-7.5701e-18
-2.68268e-21
-3.72064e-19
4.53335e-22
1.63046e-05
-7.56131e-18
-2.7113e-21
-3.76759e-19
4.54383e-22
1.6636e-05
-7.55425e-18
-2.74035e-21
-3.85561e-19
4.55088e-22
1.69726e-05
-7.54417e-18
-2.76957e-21
-3.95621e-19
4.56251e-22
1.73145e-05
-7.53804e-18
-2.79931e-21
-3.96352e-19
4.58394e-22
1.76617e-05
-7.5282e-18
-2.82933e-21
-4.01976e-19
4.60605e-22
1.80144e-05
-7.51895e-18
-2.86008e-21
-4.0501e-19
4.62597e-22
1.83726e-05
-7.51041e-18
-2.89168e-21
-4.09599e-19
4.64314e-22
1.87365e-05
-7.49751e-18
-2.92407e-21
-4.13415e-19
4.66599e-22
1.91061e-05
-7.48655e-18
-2.95766e-21
-4.19556e-19
4.69784e-22
1.94817e-05
-7.47716e-18
-2.99236e-21
-4.22227e-19
4.73995e-22
1.98631e-05
-7.46755e-18
-3.02736e-21
-4.26853e-19
4.78238e-22
2.02507e-05
-7.45545e-18
-3.06289e-21
-4.30908e-19
4.82878e-22
2.06445e-05
-7.44185e-18
-3.09871e-21
-4.38338e-19
4.88424e-22
2.10445e-05
-7.4299e-18
-3.1354e-21
-4.43259e-19
4.94634e-22
2.1451e-05
-7.42122e-18
-3.1723e-21
-4.51129e-19
5.01071e-22
2.1864e-05
-7.41033e-18
-3.20803e-21
-4.58131e-19
5.08218e-22
2.22836e-05
-7.39441e-18
-3.24447e-21
-4.67172e-19
5.1614e-22
2.271e-05
-7.37784e-18
-3.28116e-21
-4.79422e-19
5.25571e-22
2.31432e-05
-7.36319e-18
-3.31787e-21
-4.88893e-19
5.35833e-22
2.35834e-05
-7.34957e-18
-3.35451e-21
-4.98547e-19
5.46875e-22
2.40308e-05
-7.33488e-18
-3.39061e-21
-5.0894e-19
5.58107e-22
2.44853e-05
-7.31851e-18
-3.42645e-21
-5.19669e-19
5.69416e-22
2.49473e-05
-7.30591e-18
-3.4622e-21
-5.29971e-19
5.80467e-22
2.54167e-05
-7.29432e-18
-3.49758e-21
-5.41902e-19
5.91317e-22
2.58937e-05
-7.28632e-18
-3.53305e-21
-5.447e-19
6.0292e-22
2.63785e-05
-7.27891e-18
-3.56772e-21
-5.52524e-19
6.13673e-22
2.68712e-05
-7.26446e-18
-3.60198e-21
-5.5813e-19
6.24849e-22
2.73718e-05
-7.25598e-18
-3.63484e-21
-5.62272e-19
6.37217e-22
2.78807e-05
-7.24004e-18
-3.66777e-21
-5.68821e-19
6.50059e-22
2.83978e-05
-7.22858e-18
-3.70163e-21
-5.7484e-19
6.62998e-22
2.89233e-05
-7.21575e-18
-3.73634e-21
-5.77126e-19
6.78515e-22
2.94574e-05
-7.20096e-18
-3.77262e-21
-5.87406e-19
6.94305e-22
3.00002e-05
-7.19051e-18
-3.81127e-21
-5.95039e-19
7.13665e-22
3.05519e-05
-7.18294e-18
-3.85078e-21
-6.02433e-19
7.34416e-22
3.11126e-05
-7.17682e-18
-3.89115e-21
-6.11114e-19
7.55602e-22
3.16824e-05
-7.17121e-18
-3.93227e-21
-6.16505e-19
7.78495e-22
3.22616e-05
-7.16188e-18
-3.9734e-21
-6.30093e-19
8.02418e-22
3.28503e-05
-7.15434e-18
-4.01261e-21
-6.31236e-19
8.28121e-22
3.34486e-05
-7.14323e-18
-4.0498e-21
-6.37268e-19
8.51561e-22
3.40566e-05
-7.12235e-18
-4.08801e-21
-6.39184e-19
8.74158e-22
3.46747e-05
-7.10893e-18
-4.13161e-21
-6.46444e-19
8.96332e-22
3.53029e-05
-7.10116e-18
-4.17433e-21
-6.50078e-19
9.17591e-22
3.59413e-05
-7.08247e-18
-4.21588e-21
-6.54884e-19
9.36642e-22
3.65903e-05
-7.07123e-18
-4.25903e-21
-6.65537e-19
9.52813e-22
3.72498e-05
-7.05436e-18
-4.29947e-21
-6.69674e-19
9.67742e-22
3.79202e-05
-7.03648e-18
-4.33948e-21
-6.80346e-19
9.80544e-22
3.86016e-05
-7.02981e-18
-4.38101e-21
-6.89658e-19
9.96386e-22
3.92942e-05
-7.01297e-18
-4.41764e-21
-6.99642e-19
1.00924e-21
3.99981e-05
-7.00082e-18
-4.45671e-21
-7.10889e-19
1.02334e-21
4.07136e-05
-6.97419e-18
-4.49544e-21
-7.21426e-19
1.03914e-21
4.14409e-05
-6.9392e-18
-4.53952e-21
-7.34491e-19
1.05494e-21
4.21801e-05
-6.92768e-18
-4.594e-21
-7.47027e-19
1.07371e-21
4.29314e-05
-6.9066e-18
-4.63693e-21
-7.6161e-19
1.09278e-21
4.36951e-05
-6.87123e-18
-4.68073e-21
-7.7941e-19
1.11018e-21
4.44713e-05
-6.8507e-18
-4.73683e-21
-7.94948e-19
1.13252e-21
4.52603e-05
-6.83194e-18
-4.79588e-21
-8.12396e-19
1.16211e-21
4.60622e-05
-6.81164e-18
-4.8534e-21
-8.33413e-19
1.19556e-21
4.68773e-05
-6.78834e-18
-4.90937e-21
-8.51797e-19
1.22562e-21
4.77058e-05
-6.77172e-18
-4.96733e-21
-8.55388e-19
1.25603e-21
4.8548e-05
-6.76965e-18
-5.02921e-21
-8.55839e-19
1.28528e-21
4.94039e-05
-6.75674e-18
-5.08795e-21
-8.62646e-19
1.31212e-21
5.0274e-05
-6.75085e-18
-5.14557e-21
-8.72844e-19
1.34119e-21
5.11583e-05
-6.72692e-18
-5.19811e-21
-8.93128e-19
1.38211e-21
5.20571e-05
-6.71334e-18
-5.2558e-21
-9.05135e-19
1.42644e-21
5.29708e-05
-6.68424e-18
-5.31129e-21
-9.12602e-19
1.46849e-21
5.38994e-05
-6.66115e-18
-5.37859e-21
-9.2852e-19
1.52174e-21
5.48434e-05
-6.65082e-18
-5.45648e-21
-9.3941e-19
1.57986e-21
5.58028e-05
-6.62994e-18
-5.53587e-21
-9.60798e-19
1.62808e-21
5.6778e-05
-6.60447e-18
-5.61185e-21
-9.72525e-19
1.68578e-21
5.77692e-05
-6.56907e-18
-5.69307e-21
-9.90107e-19
1.73988e-21
5.87767e-05
-6.53792e-18
-5.77747e-21
-1.01053e-18
1.7897e-21
5.98008e-05
-6.49892e-18
-5.85755e-21
-1.0288e-18
1.84029e-21
6.08417e-05
-6.46886e-18
-5.9427e-21
-1.04916e-18
1.90083e-21
6.18997e-05
-6.46419e-18
-6.04955e-21
-1.06339e-18
1.96819e-21
6.2975e-05
-6.4595e-18
-6.13896e-21
-1.06349e-18
2.01757e-21
6.40681e-05
-6.45718e-18
-6.22008e-21
-1.07875e-18
2.02955e-21
6.51791e-05
-6.44344e-18
-6.27646e-21
-1.09337e-18
2.02764e-21
6.63083e-05
-6.41891e-18
-6.33351e-21
-1.11198e-18
2.00253e-21
6.74561e-05
-6.38916e-18
-6.42247e-21
-1.13121e-18
1.97906e-21
6.86227e-05
-6.36599e-18
-6.54351e-21
-1.15099e-18
1.96771e-21
6.98085e-05
-6.34169e-18
-6.65951e-21
-1.18242e-18
1.96984e-21
7.10137e-05
-6.32791e-18
-6.76581e-21
-1.19197e-18
1.97929e-21
7.22388e-05
-6.30445e-18
-6.86192e-21
-1.22012e-18
1.9891e-21
7.34839e-05
-6.27032e-18
-6.97176e-21
-1.24486e-18
1.99795e-21
7.47495e-05
-6.24494e-18
-7.10537e-21
-1.27231e-18
1.99271e-21
7.60358e-05
-6.20626e-18
-7.2274e-21
-1.29727e-18
1.97763e-21
7.73432e-05
-6.18328e-18
-7.387e-21
-1.3148e-18
1.98769e-21
7.86721e-05
-6.15256e-18
-7.55162e-21
-1.34704e-18
1.99456e-21
8.00228e-05
-6.14015e-18
-7.69981e-21
-1.37117e-18
1.96835e-21
8.13956e-05
-6.10419e-18
-7.83452e-21
-1.40656e-18
1.96073e-21
8.27909e-05
-6.0698e-18
-8.00899e-21
-1.4348e-18
1.98772e-21
8.42092e-05
-6.05601e-18
-8.21536e-21
-1.47064e-18
1.97511e-21
8.56506e-05
-6.02273e-18
-8.39613e-21
-1.49032e-18
1.94532e-21
8.71157e-05
-5.99393e-18
-8.60416e-21
-1.52656e-18
1.8908e-21
8.86047e-05
-5.96563e-18
-8.81366e-21
-1.554e-18
1.86577e-21
9.01182e-05
-5.93312e-18
-9.01886e-21
-1.58711e-18
1.86201e-21
9.16564e-05
-5.90634e-18
-9.18727e-21
-1.60631e-18
1.83001e-21
9.32199e-05
-5.86106e-18
-9.33353e-21
-1.62883e-18
1.76283e-21
9.48089e-05
-5.83779e-18
-9.46134e-21
-1.67202e-18
1.65754e-21
9.6424e-05
-5.79102e-18
-9.53327e-21
-1.71136e-18
1.55465e-21
9.80654e-05
-5.7583e-18
-9.64561e-21
-1.75974e-18
1.45414e-21
9.97337e-05
-5.72635e-18
-9.78055e-21
-1.78155e-18
1.41095e-21
0.000101429
-5.68406e-18
-9.90144e-21
-1.80465e-18
1.37703e-21
0.000103153
-5.6428e-18
-1.00165e-20
-1.84172e-18
1.31581e-21
0.000104904
-5.58773e-18
-1.01259e-20
-1.88319e-18
1.27876e-21
0.000106684
-5.56213e-18
-1.02915e-20
-1.90871e-18
1.28066e-21
0.000108494
-5.50552e-18
-1.04658e-20
-1.94235e-18
1.22454e-21
0.000110332
-5.47195e-18
-1.07062e-20
-1.98614e-18
1.20663e-21
0.000112201
-5.42938e-18
-1.08698e-20
-2.00904e-18
1.21136e-21
0.000114101
-5.39394e-18
-1.10373e-20
-2.04538e-18
1.19679e-21
0.000116031
-5.35029e-18
-1.12391e-20
-2.0836e-18
1.18329e-21
0.000117993
-5.27473e-18
-1.1396e-20
-2.11946e-18
1.16098e-21
0.000119987
-5.22754e-18
-1.15731e-20
-2.12514e-18
1.09586e-21
0.000122013
-5.17239e-18
-1.16885e-20
-2.14286e-18
8.91446e-22
0.000124073
-5.10406e-18
-1.18244e-20
-2.15623e-18
6.37578e-22
0.000126166
-5.05703e-18
-1.19828e-20
-2.19171e-18
3.65106e-22
0.000128293
-5.02909e-18
-1.2115e-20
-2.2152e-18
7.90745e-23
0.000130455
-4.96109e-18
-1.21838e-20
-2.24211e-18
-2.23845e-22
0.000132652
-4.95399e-18
-1.24241e-20
-2.25334e-18
-3.6881e-22
0.000134884
-4.90406e-18
-1.25493e-20
-2.28654e-18
-5.90283e-22
0.000137154
-4.83029e-18
-1.27389e-20
-2.32068e-18
-6.9763e-22
0.00013946
-4.80346e-18
-1.30592e-20
-2.32113e-18
-7.29142e-22
0.000141803
-4.75505e-18
-1.32345e-20
-2.33629e-18
-8.26726e-22
0.000144185
-4.70645e-18
-1.35121e-20
-2.3471e-18
-1.03778e-21
0.000146605
-4.6481e-18
-1.38397e-20
-2.35706e-18
-1.24549e-21
0.000149065
-4.60199e-18
-1.41592e-20
-2.38039e-18
-1.4717e-21
0.000151565
-4.54717e-18
-1.436e-20
-2.36684e-18
-1.65093e-21
0.000154105
-4.50424e-18
-1.45838e-20
-2.40737e-18
-1.81462e-21
0.000156687
-4.44183e-18
-1.47155e-20
-2.42053e-18
-1.91404e-21
0.00015931
-4.40177e-18
-1.50682e-20
-2.45233e-18
-2.116e-21
0.000161976
-4.35349e-18
-1.52988e-20
-2.4487e-18
-2.18922e-21
0.000164686
-4.31218e-18
-1.55691e-20
-2.47776e-18
-2.40778e-21
0.000167439
-4.2764e-18
-1.56709e-20
-2.49618e-18
-2.82658e-21
0.000170237
-4.22687e-18
-1.57938e-20
-2.51366e-18
-3.36005e-21
0.00017308
-4.19472e-18
-1.5951e-20
-2.52577e-18
-3.88515e-21
0.000175969
-4.13336e-18
-1.61872e-20
-2.49682e-18
-4.46805e-21
0.000178905
-4.07721e-18
-1.64179e-20
-2.5253e-18
-5.33401e-21
0.000181888
-3.99089e-18
-1.65447e-20
-2.55816e-18
-5.68661e-21
0.00018492
-3.97777e-18
-1.70518e-20
-2.58567e-18
-5.83549e-21
0.000188
-3.93677e-18
-1.71294e-20
-2.58544e-18
-6.12052e-21
0.000191131
-3.9166e-18
-1.71253e-20
-2.5806e-18
-6.50916e-21
0.000194312
-3.87903e-18
-1.69401e-20
-2.58029e-18
-6.91574e-21
0.000197544
-3.80963e-18
-1.68703e-20
-2.59363e-18
-7.1391e-21
0.000200828
-3.80751e-18
-1.67007e-20
-2.58478e-18
-7.55627e-21
0.000204166
-3.76065e-18
-1.62795e-20
-2.58012e-18
-8.19847e-21
0.000207557
-3.73239e-18
-1.60714e-20
-2.61543e-18
-9.01207e-21
0.000211002
-3.70888e-18
-1.56767e-20
-2.60987e-18
-9.57555e-21
0.000214503
-3.64341e-18
-1.52657e-20
-2.66816e-18
-9.88752e-21
0.000218061
-3.59899e-18
-1.46927e-20
-2.65735e-18
-9.96142e-21
0.000221675
-3.58677e-18
-1.40562e-20
-2.66644e-18
-1.03792e-20
0.000225348
-3.53378e-18
-1.31887e-20
-2.71003e-18
-1.06321e-20
0.00022908
-3.46388e-18
-1.23392e-20
-2.70502e-18
-1.04255e-20
0.000232871
-3.43816e-18
-1.20362e-20
-2.69904e-18
-1.05624e-20
0.000236723
-3.40383e-18
-1.18506e-20
-2.71562e-18
-1.07899e-20
0.000240637
-3.42052e-18
-1.19097e-20
-2.6841e-18
-1.11281e-20
0.000244614
-3.38468e-18
-1.16582e-20
-2.70173e-18
-1.15987e-20
0.000248654
-3.33367e-18
-1.22039e-20
-2.71182e-18
-1.12964e-20
0.000252759
-3.27701e-18
-1.20451e-20
-2.73149e-18
-1.13429e-20
0.000256929
-3.15247e-18
-1.19625e-20
-2.68499e-18
-1.17196e-20
0.000261166
-3.13882e-18
-1.1952e-20
-2.66438e-18
-1.25337e-20
0.000265471
-3.12467e-18
-1.16403e-20
-2.62915e-18
-1.27148e-20
0.000269844
-3.09873e-18
-1.123e-20
-2.59746e-18
-1.17837e-20
0.000274286
-3.04299e-18
-1.08435e-20
-2.61831e-18
-1.11377e-20
0.000278799
-3.02961e-18
-1.05472e-20
-2.66458e-18
-1.13102e-20
0.000283384
-2.96384e-18
-1.09409e-20
-2.63813e-18
-1.04984e-20
0.000288042
-2.97275e-18
-1.21305e-20
-2.56533e-18
-1.12781e-20
0.000292774
-2.97648e-18
-1.29396e-20
-2.57398e-18
-1.30908e-20
0.00029758
-2.96865e-18
-1.38417e-20
-2.60157e-18
-1.47037e-20
0.000302463
-2.9564e-18
-1.44688e-20
-2.6074e-18
-1.58549e-20
0.000307422
-2.89348e-18
-1.32314e-20
-2.66575e-18
-1.63894e-20
0.00031246
-2.8922e-18
-1.25241e-20
-2.66e-18
-1.63965e-20
0.000317578
-2.86659e-18
-1.31023e-20
-2.70798e-18
-1.67605e-20
0.000322776
-2.88407e-18
-1.32351e-20
-2.68584e-18
-1.64952e-20
0.000328055
-2.85597e-18
-1.32484e-20
-2.70055e-18
-1.7453e-20
0.000333418
-2.81789e-18
-1.33713e-20
-2.70706e-18
-1.89079e-20
0.000338864
-2.82941e-18
-1.41311e-20
-2.69439e-18
-1.82073e-20
0.000344396
-2.79171e-18
-1.44203e-20
-2.73166e-18
-1.73701e-20
0.000350015
-2.75598e-18
-1.47379e-20
-2.70681e-18
-1.5624e-20
0.000355721
-2.73156e-18
-1.47692e-20
-2.68022e-18
-1.50791e-20
0.000361516
-2.69688e-18
-1.51373e-20
-2.67681e-18
-1.52871e-20
0.000367401
-2.702e-18
-1.46043e-20
-2.66402e-18
-1.66447e-20
0.000373378
-2.56571e-18
-1.32077e-20
-2.7559e-18
-1.92815e-20
0.000379447
-2.62898e-18
-1.39448e-20
-2.65155e-18
-2.01756e-20
0.00038561
-2.6063e-18
-1.21186e-20
-2.6463e-18
-2.10793e-20
0.000391868
-2.63181e-18
-1.13887e-20
-2.65776e-18
-2.09459e-20
0.000398223
-2.60265e-18
-1.24244e-20
-2.53075e-18
-1.78329e-20
0.000404675
-2.56908e-18
-1.3208e-20
-2.50022e-18
-1.82822e-20
0.000411227
-2.518e-18
-1.33725e-20
-2.53292e-18
-2.04055e-20
0.000417878
-2.49224e-18
-1.48011e-20
-2.53644e-18
-2.0633e-20
0.000424631
-2.48982e-18
-1.52372e-20
-2.52246e-18
-1.9428e-20
0.000431487
-2.56584e-18
-1.36878e-20
-2.39157e-18
-1.86584e-20
0.000438447
-2.48845e-18
-1.16114e-20
-2.4208e-18
-2.04395e-20
0.000445512
-2.49509e-18
-1.24337e-20
-2.4111e-18
-1.98539e-20
0.000452684
-2.45088e-18
-1.26489e-20
-2.39196e-18
-2.12568e-20
0.000459963
-2.36009e-18
-1.16556e-20
-2.42821e-18
-2.30583e-20
0.000467352
-2.39398e-18
-1.09324e-20
-2.42834e-18
-2.2919e-20
0.000474851
-2.3886e-18
-1.0084e-20
-2.42369e-18
-2.28985e-20
0.000482461
-2.40244e-18
-1.0223e-20
-2.41228e-18
-2.27098e-20
0.000490185
-2.27972e-18
-1.27446e-20
-2.28801e-18
-2.3208e-20
0.000498022
-2.21713e-18
-1.33442e-20
-2.24744e-18
-2.52869e-20
0.000505974
-2.20923e-18
-1.5605e-20
-2.12859e-18
-3.01157e-20
0.000514042
-2.08649e-18
-1.80828e-20
-2.06335e-18
-3.7307e-20
0.000522228
-2.0602e-18
-2.06248e-20
-2.03935e-18
-4.34961e-20
0.000530532
-1.78012e-18
-1.85431e-20
-2.01025e-18
-4.55607e-20
0.000538956
-1.73996e-18
-2.38114e-20
-1.95136e-18
-4.48732e-20
0.000547499
-1.79967e-18
-3.1412e-20
-1.87932e-18
-4.10636e-20
0.000556165
-1.82991e-18
-3.53979e-20
-1.72327e-18
-3.52908e-20
0.000564952
-1.45145e-18
-3.79992e-20
-1.59948e-18
-3.21378e-20
0.000573862
-1.5293e-18
-5.04531e-20
-1.65655e-18
-2.96302e-20
0.000582896
-1.38203e-18
-4.33758e-20
-1.38128e-18
-1.97668e-20
0.000592054
-1.304e-18
-4.10747e-20
-1.31606e-18
-2.06273e-20
0.000601337
-1.30328e-18
-4.13936e-20
-1.31936e-18
-1.99607e-20
0.000610745
-1.38276e-18
-3.98394e-20
-1.29364e-18
-1.79945e-20
0.000620279
-1.42256e-18
-3.10849e-20
-1.3174e-18
-2.10639e-20
0.000629938
-1.28202e-18
-2.60557e-20
-1.31361e-18
-2.72176e-20
0.000639724
-1.5665e-18
-3.28403e-20
-1.27234e-18
-2.50244e-20
0.000649635
-1.34285e-18
-1.41618e-20
-1.45051e-18
-3.67707e-20
0.000659671
-1.36618e-18
-9.51085e-21
-1.20973e-18
-2.91861e-20
0.000669833
-1.24976e-18
-3.31952e-21
-1.15953e-18
-3.33179e-20
0.000680119
-1.12282e-18
-6.71638e-21
-1.11543e-18
-3.01726e-20
0.000690529
-9.69884e-19
-9.59348e-21
-1.08745e-18
-2.67015e-20
0.000701061
-8.95697e-19
-2.0827e-20
-1.10257e-18
-2.86461e-20
0.000711715
-1.04443e-18
-3.88809e-20
-1.09345e-18
-2.32454e-20
0.000722489
-9.83884e-19
-2.53545e-20
-1.02444e-18
-1.40215e-20
0.000733381
-9.63068e-19
-2.2974e-20
-9.07292e-19
-6.8367e-21
0.000744389
-1.00426e-18
-1.82024e-20
-9.31876e-19
-5.69893e-21
0.00075551
-8.67456e-19
-9.56312e-21
-8.67848e-19
-5.89426e-21
0.000766744
-8.53081e-19
-7.04281e-22
-8.42625e-19
-1.42102e-21
0.000778085
-8.31147e-19
5.30092e-21
-8.30845e-19
5.59117e-21
0.000789533
-7.31608e-19
6.31255e-21
-7.90119e-19
2.50576e-21
0.000801082
1.78287e-21
-7.65598e-19
4.45504e-21
-7.80408e-19
2.58781e-08
-2.21848e-22
2.71344e-23
7.91373e-08
-5.78101e-22
9.01227e-23
1.34712e-07
-9.25268e-22
1.46556e-22
1.92681e-07
-1.35208e-21
2.31653e-22
2.53124e-07
-1.73401e-21
2.69803e-22
3.16126e-07
-2.12803e-21
3.5426e-22
3.81771e-07
-2.6181e-21
4.61385e-22
4.50149e-07
-3.11702e-21
5.09549e-22
5.21349e-07
-3.64986e-21
6.41454e-22
5.95465e-07
-4.15672e-21
6.94754e-22
6.72591e-07
-4.68858e-21
8.09664e-22
7.52823e-07
-5.30187e-21
7.89234e-22
8.36257e-07
-5.90812e-21
7.46507e-22
9.22992e-07
-6.36769e-21
6.54359e-22
1.01312e-06
-7.27631e-21
8.26337e-22
1.10675e-06
-7.95307e-21
1.1231e-21
1.20395e-06
-8.83813e-21
1.84307e-21
1.30482e-06
-9.71748e-21
2.22062e-21
1.40945e-06
-1.03669e-20
2.69414e-21
1.51788e-06
-1.13085e-20
3.00618e-21
1.63019e-06
-1.19791e-20
3.22387e-21
1.74642e-06
-1.29839e-20
3.33934e-21
1.86659e-06
-1.36018e-20
3.51684e-21
1.99071e-06
-1.44549e-20
3.15026e-21
2.11876e-06
-1.52127e-20
2.83248e-21
2.25071e-06
-1.60641e-20
2.79279e-21
2.38649e-06
-1.76866e-20
3.52352e-21
2.52602e-06
-1.92139e-20
4.08605e-21
2.6692e-06
-2.09376e-20
4.73608e-21
2.81589e-06
-2.24984e-20
4.93659e-21
2.96596e-06
-2.36838e-20
4.94839e-21
3.11926e-06
-2.51594e-20
5.51723e-21
3.27561e-06
-2.67514e-20
5.86248e-21
3.43486e-06
-2.80739e-20
6.65867e-21
3.59685e-06
-2.97644e-20
7.38785e-21
3.76142e-06
-3.18305e-20
8.08714e-21
3.92843e-06
-3.28868e-20
7.13339e-21
4.09774e-06
-3.41267e-20
8.19772e-21
4.26923e-06
-3.44437e-20
6.46088e-21
4.44281e-06
-3.55916e-20
6.56538e-21
4.61839e-06
-3.64059e-20
5.62891e-21
4.79591e-06
-3.82887e-20
5.2616e-21
4.9753e-06
-3.96125e-20
5.52807e-21
5.15655e-06
-4.095e-20
3.83168e-21
5.33963e-06
-4.1427e-20
3.42028e-21
5.52453e-06
-4.35186e-20
3.89457e-21
5.71125e-06
-4.4668e-20
2.89893e-21
5.89983e-06
-4.68594e-20
3.83864e-21
6.09027e-06
-4.72255e-20
3.60971e-21
6.28262e-06
-4.9786e-20
3.64802e-21
6.47691e-06
-5.03277e-20
3.40565e-21
6.6732e-06
-5.21995e-20
3.37383e-21
6.87154e-06
-5.33117e-20
3.00898e-21
7.07197e-06
-5.46841e-20
2.48608e-21
7.27458e-06
-5.62167e-20
3.90796e-21
7.4794e-06
-5.71369e-20
4.84741e-21
7.68652e-06
-5.83511e-20
4.8779e-21
7.896e-06
-6.0684e-20
4.32368e-21
8.10792e-06
-6.15924e-20
4.094e-21
8.32233e-06
-6.20779e-20
3.80196e-21
8.53932e-06
-6.37332e-20
4.07419e-21
8.75896e-06
-6.40862e-20
1.89685e-21
8.98133e-06
-6.5871e-20
6.06566e-21
9.20649e-06
-7.05751e-20
6.03934e-21
9.43453e-06
-7.56222e-20
5.87877e-21
9.66552e-06
-7.88128e-20
7.54619e-21
9.89955e-06
-7.93281e-20
5.49285e-21
1.01367e-05
-8.0553e-20
7.23297e-21
1.0377e-05
-8.33907e-20
7.83264e-21
1.06206e-05
-8.45185e-20
7.34613e-21
1.08675e-05
-8.64973e-20
6.7437e-21
1.11179e-05
-8.8279e-20
6.32586e-21
1.13717e-05
-8.84726e-20
7.05363e-21
1.16292e-05
-8.86863e-20
7.96416e-21
1.18903e-05
-8.99167e-20
8.08593e-21
1.21552e-05
-9.0889e-20
7.09801e-21
1.24239e-05
-9.21199e-20
6.79915e-21
1.26965e-05
-9.34871e-20
6.13369e-21
1.29731e-05
-9.30317e-20
5.44322e-21
1.32538e-05
-9.50782e-20
1.92998e-21
1.35387e-05
-9.78278e-20
8.54846e-22
1.38278e-05
-1.00184e-19
7.46034e-22
1.41213e-05
-1.01085e-19
3.22994e-22
1.44192e-05
-1.03504e-19
1.67277e-22
1.47216e-05
-1.04784e-19
-7.17474e-23
1.50286e-05
-1.02091e-19
-5.49367e-21
1.53403e-05
-1.02566e-19
-3.84857e-21
1.56568e-05
-1.04059e-19
-4.27643e-21
1.59782e-05
-1.09385e-19
-1.00746e-21
1.63046e-05
-1.13067e-19
-3.87105e-21
1.6636e-05
-1.14868e-19
-4.16052e-21
1.69726e-05
-1.14737e-19
-5.17603e-21
1.73145e-05
-1.16277e-19
-4.79897e-21
1.76617e-05
-1.17696e-19
-7.73305e-21
1.80144e-05
-1.19683e-19
-8.86992e-21
1.83726e-05
-1.22381e-19
-9.33956e-21
1.87365e-05
-1.24282e-19
-8.9054e-21
1.91061e-05
-1.27967e-19
-8.27184e-21
1.94817e-05
-1.27441e-19
-7.42347e-21
1.98631e-05
-1.29625e-19
-6.76786e-21
2.02507e-05
-1.29922e-19
-3.65418e-21
2.06445e-05
-1.31731e-19
-5.08729e-21
2.10445e-05
-1.31342e-19
-8.33337e-21
2.1451e-05
-1.26735e-19
-7.89067e-21
2.1864e-05
-1.30539e-19
-5.5339e-21
2.22836e-05
-1.29569e-19
-2.56636e-21
2.271e-05
-1.29487e-19
-2.01383e-21
2.31432e-05
-1.31473e-19
1.01491e-21
2.35834e-05
-1.32649e-19
-1.2689e-22
2.40308e-05
-1.35888e-19
-5.81526e-22
2.44853e-05
-1.3908e-19
-3.85857e-21
2.49473e-05
-1.42009e-19
-5.58702e-21
2.54167e-05
-1.45047e-19
-5.35289e-21
2.58937e-05
-1.46342e-19
-7.03491e-21
2.63785e-05
-1.50386e-19
-7.99766e-21
2.68712e-05
-1.42471e-19
-3.18559e-21
2.73718e-05
-1.44732e-19
-1.54129e-21
2.78807e-05
-1.42692e-19
-7.24545e-21
2.83978e-05
-1.44945e-19
-3.08983e-21
2.89233e-05
-1.47372e-19
-2.82208e-21
2.94574e-05
-1.50044e-19
-1.24386e-21
3.00002e-05
-1.51554e-19
-2.84273e-21
3.05519e-05
-1.55781e-19
-2.06783e-21
3.11126e-05
-1.60274e-19
-1.15068e-21
3.16824e-05
-1.62142e-19
-9.16973e-23
3.22616e-05
-1.57016e-19
2.25557e-22
3.28503e-05
-1.57028e-19
3.93125e-21
3.34486e-05
-1.61588e-19
6.81768e-21
3.40566e-05
-1.67746e-19
1.03245e-20
3.46747e-05
-1.63493e-19
8.59582e-21
3.53029e-05
-1.64615e-19
1.07275e-20
3.59413e-05
-1.65764e-19
1.0908e-20
3.65903e-05
-1.67244e-19
8.99791e-21
3.72498e-05
-1.72374e-19
7.95705e-21
3.79202e-05
-1.82456e-19
1.66793e-20
3.86016e-05
-1.85882e-19
1.58545e-20
3.92942e-05
-1.93542e-19
1.85861e-20
3.99981e-05
-1.9769e-19
1.65678e-20
4.07136e-05
-1.98836e-19
1.42927e-20
4.14409e-05
-2.02389e-19
1.38813e-20
4.21801e-05
-1.8652e-19
5.64719e-21
4.29314e-05
-1.86683e-19
-1.61069e-21
4.36951e-05
-1.93722e-19
3.78633e-22
4.44713e-05
-2.00247e-19
1.83403e-21
4.52603e-05
-2.029e-19
2.67229e-21
4.60622e-05
-2.05618e-19
-6.97723e-21
4.68773e-05
-2.06857e-19
-9.58938e-21
4.77058e-05
-2.10023e-19
-7.17986e-21
4.8548e-05
-2.16336e-19
-9.06745e-21
4.94039e-05
-2.15823e-19
-6.68218e-21
5.0274e-05
-2.13484e-19
2.82728e-21
5.11583e-05
-2.10996e-19
-8.4751e-21
5.20571e-05
-2.0997e-19
-1.70385e-20
5.29708e-05
-2.11393e-19
-6.66648e-21
5.38994e-05
-2.13529e-19
-5.67251e-21
5.48434e-05
-2.15329e-19
-1.41591e-20
5.58028e-05
-2.04319e-19
-1.23981e-20
5.6778e-05
-2.05256e-19
-1.68358e-20
5.77692e-05
-2.01473e-19
-1.76102e-20
5.87767e-05
-2.02329e-19
-1.90443e-20
5.98008e-05
-2.05137e-19
-2.10343e-20
6.08417e-05
-2.25855e-19
-1.7104e-20
6.18997e-05
-2.16221e-19
-1.40158e-20
6.2975e-05
-2.09074e-19
-1.30698e-20
6.40681e-05
-1.94268e-19
-5.6271e-21
6.51791e-05
-1.98428e-19
-1.19788e-20
6.63083e-05
-2.18956e-19
-5.0222e-22
6.74561e-05
-2.3919e-19
1.12043e-20
6.86227e-05
-2.35394e-19
1.87823e-20
6.98085e-05
-2.30307e-19
1.23464e-20
7.10137e-05
-2.36602e-19
1.85625e-20
7.22388e-05
-2.47323e-19
1.37423e-20
7.34839e-05
-2.51135e-19
1.36942e-20
7.47495e-05
-2.35799e-19
1.27788e-20
7.60358e-05
-2.45406e-19
2.8281e-20
7.73432e-05
-2.4722e-19
3.22592e-20
7.86721e-05
-2.29778e-19
1.55719e-20
8.00228e-05
-2.29667e-19
2.78364e-20
8.13956e-05
-2.37918e-19
3.25161e-20
8.27909e-05
-2.42456e-19
1.79955e-20
8.42092e-05
-2.32178e-19
1.96962e-20
8.56506e-05
-2.39854e-19
2.22806e-20
8.71157e-05
-2.45403e-19
2.94391e-20
8.86047e-05
-2.55835e-19
4.52365e-20
9.01182e-05
-2.50031e-19
3.85075e-20
9.16564e-05
-2.67683e-19
3.84235e-20
9.32199e-05
-2.70773e-19
3.2915e-20
9.48089e-05
-2.70691e-19
2.95452e-20
9.6424e-05
-2.88638e-19
2.3743e-20
9.80654e-05
-3.04149e-19
3.04176e-20
9.97337e-05
-3.00273e-19
3.94453e-20
0.000101429
-2.96381e-19
2.9431e-20
0.000103153
-2.97933e-19
2.33279e-20
0.000104904
-3.06881e-19
2.39041e-20
0.000106684
-3.19622e-19
5.64948e-21
0.000108494
-3.27754e-19
1.27061e-20
0.000110332
-3.05082e-19
3.20029e-21
0.000112201
-3.06022e-19
1.18287e-20
0.000114101
-3.18199e-19
1.44943e-20
0.000116031
-2.97348e-19
1.80513e-20
0.000117993
-2.77715e-19
1.97252e-20
0.000119987
-2.55759e-19
9.05836e-21
0.000122013
-2.5439e-19
9.72003e-21
0.000124073
-2.46155e-19
1.64571e-20
0.000126166
-2.45576e-19
6.68652e-21
0.000128293
-2.50152e-19
6.89533e-22
0.000130455
-2.82401e-19
2.21906e-20
0.000132652
-2.77601e-19
-8.74949e-21
0.000134884
-2.83031e-19
-1.10998e-21
0.000137154
-2.94532e-19
-1.29437e-20
0.00013946
-2.88343e-19
-1.01309e-20
0.000141803
-3.33742e-19
-3.9818e-20
0.000144185
-3.64349e-19
-5.90016e-20
0.000146605
-3.65241e-19
-7.4761e-20
0.000149065
-3.50354e-19
-7.64706e-20
0.000151565
-3.61454e-19
-4.17407e-20
0.000154105
-3.4606e-19
-4.30679e-20
0.000156687
-3.81081e-19
-6.75892e-20
0.00015931
-3.71457e-19
-7.37814e-20
0.000161976
-3.92962e-19
-7.42865e-20
0.000164686
-3.73211e-19
-9.61151e-20
0.000167439
-3.9057e-19
-1.25694e-19
0.000170237
-4.00554e-19
-1.33384e-19
0.00017308
-4.36046e-19
-1.15542e-19
0.000175969
-4.25702e-19
-1.25997e-19
0.000178905
-4.09522e-19
-9.43932e-20
0.000181888
-4.44248e-19
-1.07725e-19
0.00018492
-4.08921e-19
-1.5367e-19
0.000188
-4.0408e-19
-1.85499e-19
0.000191131
-3.95787e-19
-2.11881e-19
0.000194312
-4.18459e-19
-2.04272e-19
0.000197544
-3.90432e-19
-2.52296e-19
0.000200828
-4.05222e-19
-2.70477e-19
0.000204166
-4.39251e-19
-2.93827e-19
0.000207557
-4.40347e-19
-3.13112e-19
0.000211002
-4.68475e-19
-2.87837e-19
0.000214503
-4.34489e-19
-3.08966e-19
0.000218061
-4.37054e-19
-3.36237e-19
0.000221675
-4.55826e-19
-3.6102e-19
0.000225348
-4.60514e-19
-3.86124e-19
0.00022908
-5.0585e-19
-4.16179e-19
0.000232871
-5.40211e-19