/*--------------------------------*- C++ -*----------------------------------*\
| =========                 |                                                 |
| \\      /  F ield         | OpenFOAM: The Open Source CFD Toolbox           |
|  \\    /   O peration     | Version:  2012                                  |
|   \\  /    A nd           | Website:  www.openfoam.com                      |
|    \\/     M anipulation  |                                                 |
\*---------------------------------------------------------------------------*/
FoamFile
{
    version     2.0;
    format      ascii;
    class       volTensorField;
    location    "17000";
    object      grad(U);
}
// * * * * * * * * * * * * * * * * * * * * * * * * * * * * * * * * * * * * * //

dimensions      [0 0 -1 0 0 0 0];


internalField   nonuniform List<tensor> 
160
(
(0 3.74524e-30 2.49683e-30 39.8811 -3.95344e-13 -2.70618e-13 0.866275 -2.53577e-15 -1.21185e-15)
(0 -2.88183e-28 -2.49683e-30 39.8811 0 1.34517e-14 0.866275 -3.9443e-31 6.53053e-16)
(0 -2.93708e-27 -3.48339e-30 39.6087 0 -2.32309e-13 2.83149 0 -7.47333e-15)
(0 1.39336e-29 3.48339e-30 39.6087 -7.69559e-14 1.77387e-14 2.83149 -3.49345e-15 -3.85403e-15)
(7.69448e-16 -1.0862e-29 -5.07002e-30 37.5986 2.02121e-13 -9.15505e-14 5.30774 -3.04635e-14 -7.96612e-15)
(-7.69448e-16 1.64018e-29 8.20089e-30 37.5986 -2.68218e-15 1.18274e-14 5.30774 -2.66691e-15 -4.27028e-15)
(-8.19054e-16 -8.58097e-30 -4.05526e-29 30.7026 1.04094e-13 -6.11371e-15 5.22578 -2.50794e-14 -5.48869e-16)
(1.63811e-15 1.28715e-29 1.50167e-29 30.7026 -3.7023e-14 1.26342e-14 5.22578 -4.58357e-15 -3.03258e-15)
(-1.88823e-15 3.80594e-30 3.26731e-30 20.4584 4.1567e-14 -4.26334e-15 3.98657 -9.43606e-15 -1.51904e-15)
(0 0 0 20.4584 -3.0921e-14 9.60397e-15 3.98657 -6.79021e-15 -1.26176e-15)
(1.62213e-15 -1.42646e-29 -1.19784e-29 12.238 3.13925e-14 -1.08679e-14 3.03477 -9.6055e-15 -5.27054e-15)
(5.4113e-15 1.58537e-29 0 12.238 -2.32831e-14 2.00766e-45 3.03477 -8.81251e-15 3.9443e-31)
(1.65152e-15 2.62537e-30 1.75162e-45 7.41701 2.07722e-14 1.40259e-29 2.39981 -8.57561e-15 -3.36371e-46)
(-6.6061e-15 -4.14712e-30 -1.65885e-29 7.41701 -1.69962e-14 -1.87753e-14 2.39981 -1.10087e-14 1.76211e-15)
(5.49635e-15 -9.76349e-30 -1.62725e-29 4.65343 1.26264e-14 1.82065e-14 1.95227 -6.62361e-15 -9.66595e-15)
(3.85637e-15 6.50899e-30 1.3018e-29 4.65343 -9.21858e-15 -2.68236e-14 1.95227 -1.2876e-14 -8.87282e-16)
(-2.06187e-15 1.67045e-30 5.70527e-30 2.99325 8.79755e-15 7.98532e-15 1.61899 -5.15437e-15 -7.28568e-15)
(-2.87555e-15 0 0 2.99325 -1.71935e-15 -2.62815e-14 1.61899 -1.0973e-14 -5.23982e-15)
(0 0 4.00855e-30 1.95973 6.17832e-15 -3.21153e-15 1.36315 -5.50212e-15 -7.74515e-15)
(6.58225e-15 -3.88506e-30 0 1.95973 2.03428e-15 -1.88952e-14 1.36315 -6.68029e-15 -6.7331e-15)
(0 -3.14575e-30 -2.00978e-30 1.30249 3.87017e-15 -3.82471e-30 1.16467 -3.79033e-15 0)
(0 0 3.14575e-30 1.30249 1.66311e-15 -1.14299e-14 1.16467 -4.90536e-15 -5.06265e-15)
(0 0 0 0.878728 4.02421e-15 -7.19946e-15 1.01047 -3.79209e-15 -2.28697e-15)
(0 2.46866e-30 0 0.878728 2.09001e-15 -1.31632e-14 1.01047 -2.25021e-15 -1.74737e-15)
(0 1.9373e-30 7.74922e-30 0.602086 2.26132e-15 -1.84798e-14 0.890417 -6.59197e-15 -2.20945e-15)
(0 -1.9373e-30 -7.74922e-30 0.602086 1.43442e-15 -1.92937e-14 0.890417 -4.48446e-15 -1.93424e-15)
(-2.59574e-15 2.04341e-30 0 0.418801 1.60895e-16 -1.61998e-14 0.795894 -1.63057e-16 -5.402e-16)
(-1.0383e-14 4.17432e-30 0 0.418801 2.05949e-30 -1.7456e-14 0.795894 0 -2.26971e-16)
(-2.66163e-15 1.94987e-30 -1.90894e-29 0.295076 6.39282e-16 -1.09075e-14 0.71908 -1.19577e-15 -3.56197e-15)
(0 0 1.90894e-29 0.295076 6.44004e-16 -1.04105e-14 0.71908 -8.31663e-16 -1.09037e-15)
(0 1.87257e-30 1.49806e-29 0.209543 -6.06686e-16 -1.27382e-14 0.652138 -7.38449e-15 1.92067e-15)
(-1.08833e-14 4.54462e-30 0 0.209543 -4.13272e-16 -1.18755e-14 0.652138 -6.74267e-15 1.00056e-15)
(0 -7.00649e-46 -8.92435e-31 0.148514 1.33311e-44 -1.14266e-15 0.585526 -3.15544e-30 -2.39609e-15)
(0 0 0 0.148514 3.56279e-16 -9.11305e-16 0.585526 -7.47094e-16 -1.49562e-15)
(0 5.08816e-32 -1.84515e-29 0.102791 2.73619e-16 -1.05043e-14 0.503205 -1.0119e-14 -1.73296e-15)
(-5.19364e-15 2.30644e-30 1.84515e-29 0.102791 1.53393e-16 -1.04102e-14 0.503205 -1.02009e-14 -6.89318e-16)
(2.88246e-15 -2.37748e-30 -3.25326e-31 0.0645027 6.21698e-17 0 0.357771 -2.11685e-16 1.96223e-15)
(-1.15298e-14 8.96536e-30 7.38155e-31 0.0645027 2.32461e-16 -1.34066e-16 0.357771 -1.84653e-15 -4.56487e-16)
(-2.95546e-15 1.48029e-30 0 2.04697e-15 1.53773e-16 9.26953e-15 1.42109e-14 -6.5937e-15 1.38446e-16)
(0 -8.75812e-46 0 5.20702e-29 -1.97215e-31 1.01139e-14 -3.55197e-15 -7.3744e-15 3.3311e-15)
(0 -1.09476e-47 -2.77425e-31 39.8811 3.31322e-29 8.78493e-14 -0.866275 2.53577e-15 1.21185e-15)
(0 0 0 39.8811 -3.868e-15 -3.80752e-14 -0.866275 -1.72021e-15 -6.53053e-16)
(-4.90244e-16 2.17712e-31 -6.53136e-31 39.6087 -2.31983e-14 5.20351e-14 -2.83149 3.82363e-14 7.47333e-15)
(-4.90244e-16 0 -1.32649e-27 39.6087 -1.55683e-14 -4.96141e-14 -2.83149 3.49345e-15 2.74311e-15)
(-7.69448e-16 6.83407e-31 -3.58789e-30 37.5986 -1.30758e-14 6.88542e-15 -5.30774 3.09861e-14 1.08285e-14)
(0 0 -1.4013e-44 37.5986 -8.09498e-15 -3.9443e-31 -5.30774 2.66691e-15 2.36297e-29)
(-1.22858e-15 0 7.04924e-30 30.7026 -1.14513e-14 -1.57039e-28 -5.22578 2.50794e-14 1.26988e-14)
(0 0 0 30.7026 -8.5158e-15 2.01607e-14 -5.22578 4.58357e-15 2.53441e-15)
(0 4.20875e-31 -1.97285e-30 20.4584 -6.57222e-15 -8.18485e-15 -3.98657 2.31484e-14 1.32908e-14)
(-5.6719e-15 8.4175e-31 9.99578e-31 20.4584 -6.23953e-15 3.48239e-14 -3.98657 6.79021e-15 1.26176e-15)
(-1.3465e-16 6.60572e-31 -9.90858e-31 12.238 -6.16991e-15 -5.71373e-15 -3.03477 2.10566e-14 1.41558e-14)
(3.92383e-15 0 3.30286e-31 12.238 -5.51089e-15 2.58877e-14 -3.03477 8.81251e-15 -2.2613e-15)
(6.32077e-15 0 -1.03678e-30 7.41701 -6.12813e-15 -4.6262e-15 -2.39981 1.9541e-14 1.58022e-14)
(-8.94072e-15 0 1.55517e-30 7.41701 -5.09211e-15 3.22151e-15 -2.39981 1.10087e-14 -1.76211e-15)
(9.60671e-17 2.44087e-30 -1.22044e-30 4.65343 -2.71269e-15 -6.62248e-16 -1.95227 1.8379e-14 1.39439e-14)
(7.52061e-15 -1.62725e-30 8.13624e-31 4.65343 -2.97762e-15 -1.88891e-15 -1.95227 1.2876e-14 8.87282e-16)
(-2.06187e-15 1.277e-30 -6.385e-31 2.99325 -1.7317e-15 1.0667e-14 -1.61899 1.71912e-14 1.15895e-14)
(0 1.277e-30 0 2.99325 -1.34423e-15 5.75778e-15 -1.61899 1.37794e-14 5.23982e-15)
(0 2.00428e-30 -5.01069e-30 1.95973 -2.43871e-15 1.447e-14 -1.36315 1.62812e-14 8.19197e-15)
(-8.83886e-15 -2.00428e-30 5.01069e-30 1.95973 -2.10136e-15 1.83635e-14 -1.36315 1.3679e-14 6.7331e-15)
(2.33185e-15 0 0 1.30249 -1.679e-15 1.44401e-14 -1.16467 1.58063e-14 7.60053e-15)
(-9.32739e-15 0 0 1.30249 -3.24971e-15 2.12043e-14 -1.16467 1.38768e-14 5.06265e-15)
(2.43406e-15 0 0 0.878728 -9.41318e-16 1.68491e-14 -1.01047 1.51911e-14 2.28697e-15)
(-2.77946e-15 2.46866e-30 0 0.878728 -2.2786e-15 1.88524e-14 -1.01047 1.45084e-14 1.74737e-15)
(2.18121e-15 0 0 0.602086 -1.22704e-15 2.04348e-14 -0.890417 1.37871e-14 2.20945e-15)
(-2.18121e-15 1.9373e-30 0 0.602086 -1.81828e-15 2.09182e-14 -0.890417 1.38374e-14 1.93424e-15)
(-5.19148e-15 1.27087e-30 -1.3076e-31 0.418801 -1.74434e-15 1.44685e-14 -0.795894 1.03831e-14 5.402e-16)
(0 1.52032e-30 0 0.418801 -1.76732e-15 1.85946e-14 -0.795894 1.03987e-14 2.26971e-16)
(2.66163e-15 -3.55066e-30 9.54468e-30 0.295076 -7.32358e-16 1.20189e-14 -0.71908 6.85502e-15 3.56197e-15)
(-1.33331e-14 7.17434e-30 -9.54468e-30 0.295076 -6.79732e-16 1.10851e-14 -0.71908 6.87825e-15 1.09037e-15)
(4.21666e-15 -3.74514e-30 2.99611e-29 0.209543 -8.08098e-16 1.40193e-14 -0.652138 7.97195e-15 -1.92067e-15)
(-1.08833e-14 4.22074e-30 -1.49806e-29 0.209543 -3.44274e-16 1.19654e-14 -0.652138 7.80956e-15 -1.00056e-15)
(-5.33754e-16 3.63634e-30 -2.33205e-29 0.148514 6.64232e-16 2.92728e-15 -0.585526 2.70636e-15 2.66852e-15)
(-1.11012e-14 6.04633e-30 1.35143e-30 0.148514 6.07697e-16 2.44937e-15 -0.585526 2.381e-15 1.49562e-15)
(5.19364e-15 0 0 0.102791 0 1.21128e-14 -0.503205 1.0119e-14 1.73296e-15)
(-1.65031e-14 3.19759e-32 0 0.102791 1.21419e-16 1.03873e-14 -0.503205 1.02009e-14 6.89318e-16)
(4.07576e-15 -3.62e-30 0 0.0645027 2.02802e-16 -7.88861e-31 -0.357771 2.90661e-15 -9.18326e-31)
(-7.45409e-15 2.25112e-31 -2.88078e-29 0.0645027 0 4.5376e-15 -0.357771 3.15544e-30 1.78623e-15)
(1.57772e-30 1.47633e-30 -2.27267e-29 1.52703e-29 0 -9.7293e-15 -3.55271e-15 6.5937e-15 -1.38446e-16)
(8.88178e-15 8.18245e-32 0 2.05044e-15 8.3073e-16 -1.06196e-14 -1.06552e-14 7.3744e-15 -3.3311e-15)
(2.42295e-16 9.79209e-31 0 -8.13731e-11 6.61892e-16 1.21193e-14 3.53065e-10 -2.87185e-15 1.87335e-16)
(2.046e-14 0 0 -8.15685e-11 8.84333e-29 1.08778e-14 3.5309e-10 -3.08818e-45 -4.59776e-15)
(0 4.68742e-31 0 -0.0645027 1.27104e-15 1.35426e-14 0.357771 5.31164e-16 -3.22067e-16)
(1.15298e-14 0 7.24001e-30 -0.0645027 1.97215e-31 1.2172e-14 0.357771 0 3.98211e-16)
(0 2.04913e-31 -2.30644e-30 -0.102791 2.62288e-29 3.41455e-15 0.503205 0 6.46168e-16)
(0 -2.88305e-31 -2.30644e-30 -0.102791 -5.9305e-16 2.70754e-15 0.503205 1.22435e-15 -1.3447e-15)
(0 -8.47747e-33 0 -0.148514 -9.36683e-16 4.40784e-16 0.585526 -1.96416e-15 2.51776e-15)
(1.11012e-14 0 1.09476e-47 -0.148514 -9.86076e-32 0 0.585526 0 -2.46519e-32)
(9.65828e-15 -4.61035e-31 0 -0.209543 7.41927e-16 4.81799e-15 0.652138 -1.35799e-15 -2.51464e-15)
(6.6666e-15 0 0 -0.209543 1.25281e-15 6.33777e-15 0.652138 -2.77602e-15 -6.20713e-16)
(-2.66163e-15 0 0 -0.295076 7.06837e-16 2.48251e-15 0.71908 -1.22777e-15 -8.56282e-16)
(0 2.98271e-31 0 -0.295076 2.55915e-17 1.94636e-15 0.71908 -6.06529e-16 -1.57857e-15)
(8.27713e-16 -1.9004e-31 0 -0.418801 8.94732e-16 -1.00323e-15 0.795894 -1.04551e-15 5.72626e-16)
(-1.38064e-14 2.34823e-31 0 -0.418801 1.40921e-29 -1.55006e-15 0.795894 0 1.02929e-15)
(2.52084e-15 4.84326e-31 0 -0.602086 1.28313e-15 1.73992e-15 0.890417 1.24358e-16 -1.0779e-15)
(2.01667e-14 -4.84326e-31 0 -0.602086 1.54313e-15 -6.27977e-44 0.890417 -8.85833e-16 -3.9443e-31)
(-2.43406e-15 0 0 -0.878728 0 1.5973e-15 1.01047 0 1.25137e-16)
(0 -7.71456e-32 0 -0.878728 1.34328e-15 4.13577e-15 1.01047 1.71338e-16 1.11757e-16)
(0 -2.45762e-31 -3.7655e-31 -1.30249 -7.06751e-16 -9.86076e-32 1.16467 -2.60037e-16 9.86076e-32)
(9.32739e-15 4.42643e-31 5.89828e-31 -1.30249 1.98431e-16 -1.56697e-17 1.16467 9.71886e-17 2.64503e-16)
(-6.67604e-15 1.87901e-31 2.50534e-31 -1.95973 4.16404e-16 1.24694e-15 1.36315 -1.82905e-16 -2.40864e-16)
(0 -3.35775e-32 0 -1.95973 -4.49513e-30 -9.12727e-16 1.36315 0 -3.55032e-16)
(2.87555e-15 2.87507e-31 0 -2.99325 -8.70657e-17 1.74114e-15 1.61899 2.62619e-17 -5.39085e-17)
(-2.87555e-15 7.98124e-32 0 -2.99325 -1.58303e-15 3.39297e-30 1.61899 1.2826e-17 -4.93038e-32)
(-3.71227e-15 0 1.01703e-31 -4.65343 -2.89161e-16 1.90817e-15 1.95227 -1.11497e-16 -7.75211e-17)
(1.83212e-15 0 -1.01703e-31 -4.65343 1.46097e-30 1.52679e-15 1.95227 -2.46519e-32 -1.96273e-16)
(0 4.58974e-33 1.29598e-31 -7.41701 -2.47078e-32 5.85057e-16 2.39981 -3.30725e-17 1.22249e-16)
(6.6061e-15 5.37702e-31 -1.29598e-31 -7.41701 5.5234e-16 1.0446e-15 2.39981 -3.94172e-17 -1.83145e-16)
(0 -2.32232e-32 0 -12.238 -4.83548e-16 -1.21688e-16 3.03477 -1.98573e-16 6.96271e-17)
(-5.4113e-15 -5.47382e-48 -8.25715e-32 -12.238 0 -2.02432e-16 3.03477 -1.65458e-17 -1.57477e-16)
(-2.83957e-15 2.13726e-32 -1.57828e-31 -20.4584 9.22198e-16 7.47355e-17 3.98657 -8.95135e-17 9.90374e-17)
(3.77645e-15 -1.80845e-32 1.09476e-47 -20.4584 -1.30204e-16 -1.91236e-30 3.98657 -4.06958e-17 2.61636e-47)
(-4.09527e-16 5.86694e-31 -6.70388e-32 -30.7026 6.53437e-31 -3.96712e-17 5.22578 0 1.25903e-16)
(1.63811e-15 1.67597e-32 4.71753e-32 -30.7026 -4.73057e-17 4.66669e-16 5.22578 4.33147e-17 -6.16796e-17)
(0 1.06782e-32 0 -37.5986 -4.86827e-16 2.10341e-16 5.30774 4.48936e-17 8.60873e-17)
(0 -1.06782e-32 -8.54259e-32 -37.5986 -3.82066e-16 1.07911e-15 5.30774 -1.31095e-17 -6.43779e-17)
(4.90244e-16 3.40175e-33 -5.4428e-32 -39.6087 -6.50795e-16 1.6305e-15 2.83149 4.96342e-18 6.20422e-17)
(0 7.37721e-31 3.51299e-30 -39.6087 0 3.47275e-15 2.83149 8.50957e-19 -4.6488e-17)
(0 -1.93582e-30 0 -39.8811 0 1.94054e-15 0.866275 0 -4.61053e-18)
(0 0 0 -39.8811 0 2.66582e-15 0.866275 -8.13729e-19 1.06143e-17)
(2.95768e-15 -8.75812e-46 -2.27267e-29 -8.13738e-11 1.26788e-44 -1.22396e-14 -3.53072e-10 1.57772e-30 -1.87335e-16)
(5.43668e-15 -4.59181e-30 0 -8.13738e-11 4.55043e-16 -1.14148e-14 -3.53072e-10 1.97436e-15 4.59776e-15)
(-4.07576e-15 -2.2625e-31 0 -0.0645027 2.86177e-17 -1.33555e-14 -0.357771 -9.7442e-17 3.22067e-16)
(0 0 -7.24001e-30 -0.0645027 4.83885e-16 -1.14553e-14 -0.357771 -1.53041e-15 -3.98211e-16)
(-2.82736e-15 -1.62178e-31 0 -0.102791 -2.15424e-16 -2.311e-15 -0.503205 -5.75628e-16 -6.46168e-16)
(0 3.34988e-31 0 -0.102791 -2.53931e-17 -2.78419e-15 -0.503205 -6.78522e-17 1.3447e-15)
(-2.77531e-15 2.54591e-31 -7.48643e-32 -0.148514 -8.20001e-16 -1.21399e-15 -0.585526 1.74619e-15 -2.51776e-15)
(0 0 -8.86578e-32 -0.148514 -9.38004e-16 -2.34699e-47 -0.585526 3.90407e-15 1.59712e-16)
(2.72081e-15 2.2637e-31 -1.87257e-30 -0.209543 7.75945e-16 -6.37801e-15 -0.652138 1.27689e-15 2.51464e-15)
(1.08833e-14 3.50325e-46 1.87257e-30 -0.209543 1.72324e-44 -7.23641e-15 -0.652138 0 6.20713e-16)
(0 0 -2.23704e-31 -0.295076 5.00013e-16 -1.13288e-16 -0.71908 1.22777e-15 8.56282e-16)
(-1.06465e-14 0 7.45679e-32 -0.295076 9.86076e-32 -3.35681e-16 -0.71908 6.06529e-16 1.57857e-15)
(2.59574e-15 0 0 -0.418801 5.56999e-16 4.18093e-16 -0.795894 1.04551e-15 -5.72626e-16)
(-1.38064e-14 0 -2.10195e-45 -0.418801 1.50937e-18 4.93038e-32 -0.795894 1.58524e-15 3.14877e-30)
(2.52084e-15 4.02873e-45 0 -0.602086 0 -1.86987e-15 -0.890417 -3.6471e-30 1.0779e-15)
(0 1.21082e-31 0 -0.602086 7.19812e-16 -2.10159e-15 -0.890417 8.85833e-16 2.08245e-15)
(2.77946e-15 -5.78592e-32 0 -0.878728 -7.0122e-16 -1.45487e-15 -1.01047 -2.68746e-16 -1.25137e-16)
(-2.77946e-15 7.71456e-32 0 -0.878728 4.99424e-17 -7.69842e-16 -1.01047 -1.71338e-16 -1.11757e-16)
(2.33185e-15 -1.87565e-32 -9.83047e-32 -1.30249 0 7.18189e-17 -1.16467 0 7.39633e-16)
(0 0 9.83047e-32 -1.30249 -1.74166e-16 -1.12753e-15 -1.16467 -1.33473e-16 -2.64503e-16)
(4.46633e-15 6.26336e-32 1.33706e-31 -1.95973 6.0857e-16 -2.95823e-31 -1.36315 1.82905e-16 2.40864e-16)
(-1.10955e-14 -6.26336e-32 3.75802e-31 -1.95973 9.85152e-18 -5.83395e-16 -1.36315 -2.41951e-16 3.55032e-16)
(2.06187e-15 0 5.46404e-31 -2.99325 4.32079e-16 -9.61942e-17 -1.61899 -1.0813e-16 5.39085e-17)
(-1.1123e-14 -9.63393e-46 -7.98124e-32 -2.99325 4.93038e-32 1.92932e-16 -1.61899 -1.2826e-17 3.82015e-16)
(0 6.18934e-32 5.08515e-32 -4.65343 -2.61473e-31 -1.05017e-15 -1.95227 1.11497e-16 7.75211e-17)
(-7.52061e-15 1.27129e-32 0 -4.65343 3.38285e-16 0 -1.95227 1.70041e-16 1.96273e-16)
(2.33462e-15 -6.47988e-32 9.71982e-32 -7.41701 -5.78349e-16 0 -2.39981 3.30725e-17 -2.46519e-32)
(0 3.23994e-32 -6.47988e-32 -7.41701 1.32361e-17 -8.27606e-16 -2.39981 3.94172e-17 1.83145e-16)
(0 -1.57372e-45 -4.12857e-32 -12.238 0 3.03244e-17 -3.03477 -2.83497e-30 -6.96271e-17)
(-1.23101e-14 0 0 -12.238 2.81469e-16 6.97575e-16 -3.03477 1.65458e-17 1.57477e-16)
(-7.22731e-18 5.26094e-32 -1.54699e-31 -20.4584 1.18049e-15 4.14502e-16 -3.98657 8.95135e-17 -8.77623e-17)
(0 -3.9457e-32 5.26094e-32 -20.4584 7.67479e-16 6.6837e-16 -3.98657 4.06958e-17 1.13208e-16)
(0 2.48777e-32 -6.67806e-46 -30.7026 9.26127e-16 -2.46519e-32 -5.22578 -3.95608e-17 -2.92611e-30)
(0 -2.48777e-32 6.70388e-32 -30.7026 1.65934e-16 1.00524e-16 -5.22578 -4.33147e-17 9.74625e-17)
(-7.69448e-16 -1.33478e-33 -4.27129e-32 -37.5986 -8.17215e-17 -1.08977e-15 -5.30774 -4.48936e-17 -8.60873e-17)
(0 -3.50325e-46 0 -37.5986 0 -3.81597e-16 -5.30774 -7.89295e-31 6.43779e-17)
(-4.90244e-16 5.10263e-33 -5.4428e-32 -39.6087 0 -3.09622e-15 -2.83149 -4.96342e-18 -6.20422e-17)
(0 -7.35682e-45 2.0309e-30 -39.6087 7.0092e-44 -2.17846e-15 -2.83149 -4.3526e-30 4.6488e-17)
(0 6.46086e-31 -3.42066e-30 -39.8811 1.24375e-16 -2.00812e-15 -0.866275 4.80437e-18 4.61053e-18)
(0 0 -1.8903e-30 -39.8811 0 -2.66582e-15 -0.866275 4.86702e-31 -1.06143e-17)
)
;

boundaryField
{
    walls
    {
        type            extrapolatedCalculated;
        value           nonuniform List<tensor> 8((0 3.74524e-30 2.49683e-30 39.9311 -2.53803e-13 -2.10002e-13 0.866275 -2.53577e-15 -1.21185e-15) (0 -1.09476e-47 -2.77425e-31 39.9311 2.0029e-14 9.82803e-14 -0.866275 2.53577e-15 1.21185e-15) (0 -2.88183e-28 -2.49683e-30 39.9311 1.41541e-13 2.05104e-29 0.866275 -3.9443e-31 6.53053e-16) (0 0 0 39.9311 1.7045e-14 6.02052e-14 -0.866275 -1.72021e-15 -6.53053e-16) (0 -1.93582e-30 0 -39.9311 3.18541e-16 1.21658e-15 0.866275 0 -4.61053e-18) (0 6.46086e-31 -3.42066e-30 -39.9311 1.24375e-16 -7.91538e-16 -0.866275 4.80437e-18 4.61053e-18) (0 0 0 -39.9311 -1.03324e-16 8.43643e-16 0.866275 -8.13729e-19 1.06143e-17) (0 0 -1.8903e-30 -39.9311 1.78342e-16 -1.82218e-15 -0.866275 4.86702e-31 -1.06143e-17));
    }
    inlet
    {
        type            cyclic;
    }
    outlet
    {
        type            cyclic;
    }
    sides
    {
        type            empty;
    }
}


// ************************************************************************* //
