/*--------------------------------*- C++ -*----------------------------------*\
| =========                 |                                                 |
| \\      /  F ield         | OpenFOAM: The Open Source CFD Toolbox           |
|  \\    /   O peration     | Version:  2012                                  |
|   \\  /    A nd           | Website:  www.openfoam.com                      |
|    \\/     M anipulation  |                                                 |
\*---------------------------------------------------------------------------*/
FoamFile
{
    version     2.0;
    format      ascii;
    class       surfaceScalarField;
    location    "17000";
    object      phi;
}
// * * * * * * * * * * * * * * * * * * * * * * * * * * * * * * * * * * * * * //

dimensions      [0 3 -1 0 0 0 0];
oriented        oriented;


internalField   nonuniform List<scalar> 
316
(
4.6983e-06
-7.56948e-18
-3.89086e-20
-9.92168e-20
3.54187e-21
1.95687e-05
-7.1233e-18
-1.55521e-19
-3.58035e-19
-3.12225e-20
4.67435e-05
-6.49133e-18
-2.23554e-19
-7.18719e-19
-4.58254e-20
9.17601e-05
-5.76214e-18
-2.55578e-19
-1.13158e-18
-5.12838e-20
0.000154292
-5.06099e-18
-2.41022e-19
-1.55608e-18
-4.74633e-20
0.000232932
-4.45221e-18
-2.11714e-19
-1.97971e-18
-4.40144e-20
0.000332054
-3.89226e-18
-1.80685e-19
-2.38418e-18
-4.63642e-20
0.000458632
-3.5532e-18
-1.64666e-19
-2.66304e-18
-5.61195e-20
0.000621227
-3.2223e-18
-1.64469e-19
-2.7136e-18
-8.27724e-20
0.000830507
-2.89468e-18
-1.87554e-19
-2.5578e-18
-1.30519e-19
0.00110002
-2.77335e-18
-2.55986e-19
-2.51548e-18
-1.94403e-19
0.00144716
-2.38319e-18
-2.51884e-19
-2.33838e-18
-2.2014e-19
0.00189431
-2.11306e-18
-2.54258e-19
-2.1438e-18
-2.29757e-19
0.00247027
-2.26308e-18
-2.3443e-19
-2.24523e-18
-1.74247e-19
0.00321204
-2.06831e-18
-1.99021e-19
-2.15141e-18
-2.44293e-19
0.00416698
-2.12558e-18
8.83021e-20
-2.03584e-18
-8.13759e-20
0.00539535
-2.12436e-18
-3.66243e-19
-2.12275e-18
-3.42859e-19
0.00697294
-1.42933e-18
4.03578e-19
-1.43449e-18
5.9551e-20
0.00899253
-2.30458e-18
1.23216e-18
-2.32603e-18
3.63463e-19
0.011556
5.23052e-19
-1.07912e-18
1.48052e-18
-1.18646e-18
4.6983e-06
-2.73628e-20
-7.76676e-21
1.95687e-05
-1.42814e-19
-7.04613e-20
4.67435e-05
-2.9008e-19
-1.84624e-19
9.17601e-05
-4.64913e-19
-3.09961e-19
0.000154292
-6.13992e-19
-4.43646e-19
0.000232932
-6.78795e-19
-5.62703e-19
0.000332054
-9.04432e-19
-6.45808e-19
0.000458632
-9.31366e-19
-7.66579e-19
0.000621227
-9.47198e-19
-7.90096e-19
0.000830507
-1.11995e-18
-8.42266e-19
0.00110002
-1.10345e-18
-1.01444e-18
0.00144716
-1.22434e-18
-1.23987e-18
0.00189431
-1.31337e-18
-1.31805e-18
0.00247027
-1.73667e-18
-1.75655e-18
0.00321204
-1.65501e-18
-1.74935e-18
0.00416698
-2.06672e-18
-1.92372e-18
0.00539535
-1.92308e-18
-1.97845e-18
0.00697294
-1.44375e-18
-1.49036e-18
0.00899253
-2.46925e-18
-2.38855e-18
0.011556
-1.15223e-18
-1.28219e-18
0.011556
-3.27762e-19
-7.15102e-19
-2.52585e-19
-3.30243e-19
0.00899253
-7.56311e-20
-6.79841e-19
-3.74387e-20
-8.11682e-20
0.00697294
5.1969e-20
-2.5994e-19
1.14575e-19
-5.65949e-21
0.00539535
-3.82358e-19
2.50823e-20
-4.73733e-19
-8.62076e-20
0.00416698
-3.45496e-19
-6.54707e-20
-2.06324e-19
2.7451e-19
0.00321204
-2.37778e-19
1.97478e-21
-1.98395e-19
-3.52588e-20
0.00247027
4.26258e-20
1.30633e-19
8.67778e-21
1.53608e-19
0.00189431
4.19432e-20
2.64138e-20
-2.14697e-20
-1.14521e-20
0.00144716
8.06418e-20
2.95912e-20
-4.63361e-22
1.77871e-20
0.00110002
-5.03579e-20
-8.19705e-21
1.08652e-19
1.63749e-20
0.000830507
2.84218e-20
-6.51216e-22
4.6256e-20
-8.53104e-21
0.000621227
-4.85897e-20
-3.2881e-21
5.41507e-20
-7.78554e-21
0.000458632
1.60098e-20
-8.20157e-24
-1.68501e-20
-8.44616e-21
0.000332054
-7.52023e-21
-5.10264e-22
6.76502e-21
-5.26696e-21
0.000232932
-2.28125e-20
-5.30727e-22
1.06425e-20
-3.76341e-21
0.000154292
1.85858e-20
-3.13828e-22
1.28726e-21
-2.5686e-21
9.17601e-05
9.39991e-21
-4.01647e-22
5.1661e-21
-1.95314e-21
4.67435e-05
8.24463e-21
-3.55136e-22
1.35162e-21
-1.37417e-21
1.95687e-05
-2.49099e-22
-2.31719e-22
-1.158e-22
-8.07332e-22
4.6983e-06
-5.84541e-23
-7.06746e-24
0.011556
-3.16989e-19
-2.01158e-19
0.00899253
-8.7155e-20
-6.17144e-20
0.00697294
5.13755e-20
7.17863e-20
0.00539535
-3.95234e-19
-3.36725e-19
0.00416698
-2.71093e-19
-2.94624e-19
0.00321204
-6.78183e-20
1.84007e-20
0.00247027
-2.33068e-20
-1.39685e-19
0.00189431
2.21306e-20
-3.1687e-20
0.00144716
-9.74326e-20
-7.1325e-20
0.00110002
-6.35308e-20
-6.14485e-20
0.000830507
-2.8771e-20
-6.10218e-21
0.000621227
-2.15124e-20
-1.76809e-20
0.000458632
-1.31278e-20
-2.52778e-20
0.000332054
-3.65732e-20
-2.66945e-20
0.000232932
-4.0981e-20
2.27501e-21
0.000154292
-9.78569e-21
-7.97968e-21
9.17601e-05
-4.2004e-21
1.46448e-21
4.67435e-05
-2.60363e-22
6.52855e-22
1.95687e-05
5.64251e-22
-6.02845e-22
4.6983e-06
)
;

boundaryField
{
    walls
    {
        type            calculated;
        value           uniform 0;
    }
    inlet
    {
        type            cyclic;
        value           nonuniform List<scalar> 
80
(
-4.6983e-06
-1.95687e-05
-4.67435e-05
-9.17601e-05
-0.000154292
-0.000232932
-0.000332054
-0.000458632
-0.000621227
-0.000830507
-0.00110002
-0.00144716
-0.00189431
-0.00247027
-0.00321204
-0.00416698
-0.00539535
-0.00697294
-0.00899253
-0.011556
-4.6983e-06
-1.95687e-05
-4.67435e-05
-9.17601e-05
-0.000154292
-0.000232932
-0.000332054
-0.000458632
-0.000621227
-0.000830507
-0.00110002
-0.00144716
-0.00189431
-0.00247027
-0.00321204
-0.00416698
-0.00539535
-0.00697294
-0.00899253
-0.011556
-0.011556
-0.00899253
-0.00697294
-0.00539535
-0.00416698
-0.00321204
-0.00247027
-0.00189431
-0.00144716
-0.00110002
-0.000830507
-0.000621227
-0.000458632
-0.000332054
-0.000232932
-0.000154292
-9.17601e-05
-4.67435e-05
-1.95687e-05
-4.6983e-06
-0.011556
-0.00899253
-0.00697294
-0.00539535
-0.00416698
-0.00321204
-0.00247027
-0.00189431
-0.00144716
-0.00110002
-0.000830507
-0.000621227
-0.000458632
-0.000332054
-0.000232932
-0.000154292
-9.17601e-05
-4.67435e-05
-1.95687e-05
-4.6983e-06
)
;
    }
    outlet
    {
        type            cyclic;
        value           nonuniform List<scalar> 
80
(
4.6983e-06
1.95687e-05
4.67435e-05
9.17601e-05
0.000154292
0.000232932
0.000332054
0.000458632
0.000621227
0.000830507
0.00110002
0.00144716
0.00189431
0.00247027
0.00321204
0.00416698
0.00539535
0.00697294
0.00899253
0.011556
4.6983e-06
1.95687e-05
4.67435e-05
9.17601e-05
0.000154292
0.000232932
0.000332054
0.000458632
0.000621227
0.000830507
0.00110002
0.00144716
0.00189431
0.00247027
0.00321204
0.00416698
0.00539535
0.00697294
0.00899253
0.011556
0.011556
0.00899253
0.00697294
0.00539535
0.00416698
0.00321204
0.00247027
0.00189431
0.00144716
0.00110002
0.000830507
0.000621227
0.000458632
0.000332054
0.000232932
0.000154292
9.17601e-05
4.67435e-05
1.95687e-05
4.6983e-06
0.011556
0.00899253
0.00697294
0.00539535
0.00416698
0.00321204
0.00247027
0.00189431
0.00144716
0.00110002
0.000830507
0.000621227
0.000458632
0.000332054
0.000232932
0.000154292
9.17601e-05
4.67435e-05
1.95687e-05
4.6983e-06
)
;
    }
    sides
    {
        type            empty;
        value           nonuniform List<scalar> 0();
    }
}


// ************************************************************************* //
