/*--------------------------------*- C++ -*----------------------------------*\
| =========                 |                                                 |
| \\      /  F ield         | OpenFOAM: The Open Source CFD Toolbox           |
|  \\    /   O peration     | Version:  2106                                  |
|   \\  /    A nd           | Website:  www.openfoam.com                      |
|    \\/     M anipulation  |                                                 |
\*---------------------------------------------------------------------------*/
FoamFile
{
    version     2.0;
    format      ascii;
    arch        "LSB;label=32;scalar=64";
    class       surfaceScalarField;
    location    "5000";
    object      phi;
}
// * * * * * * * * * * * * * * * * * * * * * * * * * * * * * * * * * * * * * //

dimensions      [0 3 -1 0 0 0 0];

oriented        oriented;

internalField   nonuniform List<scalar> 
5116
(
1.04434e-08
-3.34945e-18
2.53766e-23
-2.35053e-23
2.37664e-23
3.19386e-08
-3.34933e-18
-1.50144e-23
-1.48783e-22
2.49928e-23
5.43704e-08
-3.34923e-18
-6.88237e-24
-2.64492e-22
2.61058e-23
7.77706e-08
-3.34916e-18
-3.77642e-24
-3.54386e-22
2.72748e-23
1.02172e-07
-3.3491e-18
-5.44375e-25
-4.65195e-22
2.8503e-23
1.27609e-07
-3.34905e-18
3.51803e-24
-5.59298e-22
2.97941e-23
1.54117e-07
-3.349e-18
7.96274e-24
-6.53181e-22
3.11513e-23
1.81731e-07
-3.34894e-18
1.26045e-23
-7.42291e-22
3.25781e-23
2.10489e-07
-3.34889e-18
1.74695e-23
-8.60403e-22
3.40781e-23
2.40429e-07
-3.34888e-18
2.26007e-23
-9.91098e-22
3.56559e-23
2.71591e-07
-3.34885e-18
2.8031e-23
-1.07233e-21
3.73167e-23
3.04017e-07
-3.34888e-18
3.37881e-23
-1.18457e-21
3.90655e-23
3.37747e-07
-3.34893e-18
3.98962e-23
-1.21519e-21
4.09079e-23
3.72827e-07
-3.34889e-18
4.63751e-23
-1.30623e-21
4.28482e-23
4.09301e-07
-3.34883e-18
5.32424e-23
-1.50833e-21
4.48923e-23
4.47215e-07
-3.34878e-18
6.0516e-23
-1.61465e-21
4.70479e-23
4.86617e-07
-3.34881e-18
6.82156e-23
-1.58409e-21
4.93203e-23
5.27557e-07
-3.34897e-18
7.63597e-23
-1.64177e-21
5.17154e-23
5.70086e-07
-3.34918e-18
8.49711e-23
-1.59579e-21
5.42403e-23
6.14256e-07
-3.34925e-18
9.40741e-23
-1.60927e-21
5.69013e-23
6.60122e-07
-3.34943e-18
1.03687e-22
-1.75143e-21
5.97045e-23
7.0774e-07
-3.3496e-18
1.13834e-22
-1.74084e-21
6.26593e-23
7.57167e-07
-3.35001e-18
1.24538e-22
-1.82544e-21
6.57721e-23
8.08464e-07
-3.35001e-18
1.35828e-22
-2.02926e-21
6.90542e-23
8.61691e-07
-3.35014e-18
1.47719e-22
-2.07931e-21
7.25153e-23
9.16912e-07
-3.35037e-18
1.6024e-22
-2.08241e-21
7.61618e-23
9.74192e-07
-3.35074e-18
1.73419e-22
-2.04771e-21
8.00066e-23
1.0336e-06
-3.35087e-18
1.87282e-22
-1.87211e-21
8.40639e-23
1.0952e-06
-3.35153e-18
2.01849e-22
-1.71713e-21
8.8345e-23
1.15907e-06
-3.35206e-18
2.17159e-22
-1.34024e-21
9.28594e-23
1.22528e-06
-3.35252e-18
2.3324e-22
-1.27584e-21
9.76163e-23
1.2939e-06
-3.35305e-18
2.50119e-22
-1.17843e-21
1.02628e-22
1.36502e-06
-3.3535e-18
2.67826e-22
-1.13033e-21
1.07904e-22
1.43871e-06
-3.35403e-18
2.86382e-22
-9.64054e-22
1.13473e-22
1.51505e-06
-3.35471e-18
3.0582e-22
-9.51931e-22
1.19349e-22
1.59413e-06
-3.35509e-18
3.26167e-22
-8.96603e-22
1.25547e-22
1.67603e-06
-3.35609e-18
3.47441e-22
-4.29098e-22
1.32087e-22
1.76085e-06
-3.35721e-18
3.69687e-22
1.90581e-24
1.38972e-22
1.84865e-06
-3.35821e-18
3.92933e-22
2.5972e-22
1.46223e-22
1.93955e-06
-3.35865e-18
4.17207e-22
-1.86803e-22
1.53848e-22
2.03362e-06
-3.35959e-18
4.42525e-22
9.43688e-22
1.61892e-22
2.13097e-06
-3.36087e-18
4.68926e-22
1.47397e-21
1.70337e-22
2.23169e-06
-3.36201e-18
4.96424e-22
1.93078e-21
1.79226e-22
2.33586e-06
-3.36356e-18
5.25021e-22
2.67183e-21
1.88568e-22
2.44359e-06
-3.36487e-18
5.54749e-22
3.90802e-21
1.98376e-22
2.55497e-06
-3.36652e-18
5.85618e-22
4.27886e-21
2.08666e-22
2.67009e-06
-3.36842e-18
6.17645e-22
5.37715e-21
2.19443e-22
2.78906e-06
-3.36997e-18
6.50832e-22
5.80658e-21
2.3072e-22
2.91195e-06
-3.37112e-18
6.85154e-22
6.15993e-21
2.42528e-22
3.03887e-06
-3.37287e-18
7.20595e-22
6.5081e-21
2.54898e-22
3.16991e-06
-3.37461e-18
7.57148e-22
7.20228e-21
2.67849e-22
3.30514e-06
-3.37622e-18
7.94778e-22
8.13823e-21
2.81372e-22
3.44466e-06
-3.3782e-18
8.33444e-22
9.07693e-21
2.95451e-22
3.58854e-06
-3.38021e-18
8.7312e-22
1.01525e-20
3.10131e-22
3.73687e-06
-3.38238e-18
9.13747e-22
1.06274e-20
3.25388e-22
3.88972e-06
-3.38381e-18
9.55244e-22
1.11916e-20
3.41256e-22
4.04716e-06
-3.38696e-18
9.97563e-22
1.17363e-20
3.57729e-22
4.20924e-06
-3.38928e-18
1.04067e-21
1.29916e-20
3.7482e-22
4.37603e-06
-3.39124e-18
1.08444e-21
1.32709e-20
3.92521e-22
4.54759e-06
-3.39265e-18
1.12879e-21
1.28106e-20
4.10917e-22
4.72397e-06
-3.39437e-18
1.17356e-21
1.25252e-20
4.30017e-22
4.9052e-06
-3.39566e-18
1.21872e-21
1.25201e-20
4.49804e-22
5.09132e-06
-3.39951e-18
1.26414e-21
1.38786e-20
4.70215e-22
5.28238e-06
-3.40258e-18
1.30981e-21
1.56857e-20
4.9121e-22
5.47841e-06
-3.40506e-18
1.3557e-21
1.75884e-20
5.12719e-22
5.67942e-06
-3.40765e-18
1.40161e-21
1.90366e-20
5.34668e-22
5.88545e-06
-3.41198e-18
1.44743e-21
2.04997e-20
5.5719e-22
6.09651e-06
-3.41688e-18
1.49312e-21
2.38524e-20
5.80287e-22
6.31262e-06
-3.42117e-18
1.53869e-21
2.4514e-20
6.03949e-22
6.53381e-06
-3.423e-18
1.584e-21
2.63432e-20
6.28289e-22
6.76008e-06
-3.42646e-18
1.62896e-21
2.75672e-20
6.531e-22
6.99144e-06
-3.42903e-18
1.67348e-21
2.75606e-20
6.78426e-22
7.22793e-06
-3.43397e-18
1.71748e-21
2.97087e-20
7.0438e-22
7.46955e-06
-3.43803e-18
1.76099e-21
3.13348e-20
7.30981e-22
7.71631e-06
-3.44149e-18
1.80392e-21
3.05252e-20
7.58292e-22
7.96825e-06
-3.44454e-18
1.84606e-21
3.09001e-20
7.86582e-22
8.22538e-06
-3.44939e-18
1.88743e-21
3.07502e-20
8.15873e-22
8.48773e-06
-3.4583e-18
1.92802e-21
3.36811e-20
8.46095e-22
8.75533e-06
-3.46482e-18
1.96809e-21
3.62785e-20
8.77076e-22
9.0282e-06
-3.47014e-18
2.0075e-21
3.96888e-20
9.08762e-22
9.30638e-06
-3.47594e-18
2.04606e-21
4.27072e-20
9.40906e-22
9.58991e-06
-3.48278e-18
2.08398e-21
4.37026e-20
9.7344e-22
9.87884e-06
-3.48785e-18
2.12139e-21
4.5579e-20
1.00649e-21
1.01732e-05
-3.49383e-18
2.1581e-21
4.76355e-20
1.04026e-21
1.04731e-05
-3.49879e-18
2.19426e-21
4.73292e-20
1.07468e-21
1.07785e-05
-3.50366e-18
2.2297e-21
5.02529e-20
1.1102e-21
1.10895e-05
-3.50759e-18
2.26439e-21
5.2175e-20
1.14634e-21
1.14061e-05
-3.5123e-18
2.29815e-21
5.24778e-20
1.18352e-21
1.17286e-05
-3.51604e-18
2.3313e-21
5.21281e-20
1.22183e-21
1.20568e-05
-3.51924e-18
2.36339e-21
5.1534e-20
1.26157e-21
1.23909e-05
-3.52254e-18
2.3944e-21
5.05927e-20
1.30278e-21
1.27309e-05
-3.52373e-18
2.42442e-21
5.25773e-20
1.34524e-21
1.3077e-05
-3.52969e-18
2.45294e-21
5.37595e-20
1.38866e-21
1.34292e-05
-3.53642e-18
2.48029e-21
5.63001e-20
1.43329e-21
1.37876e-05
-3.54459e-18
2.50689e-21
5.91503e-20
1.47824e-21
1.41523e-05
-3.55187e-18
2.53306e-21
5.86654e-20
1.52346e-21
1.45234e-05
-3.55599e-18
2.55869e-21
6.00637e-20
1.56989e-21
1.49011e-05
-3.5602e-18
2.58356e-21
6.04057e-20
1.61753e-21
1.52853e-05
-3.56278e-18
2.60763e-21
5.92979e-20
1.66621e-21
1.56762e-05
-3.57288e-18
2.63065e-21
6.35626e-20
1.71606e-21
1.60739e-05
-3.57938e-18
2.65389e-21
7.28354e-20
1.76582e-21
1.64785e-05
-3.58099e-18
2.67714e-21
7.19072e-20
1.81556e-21
1.68902e-05
-3.58666e-18
2.6993e-21
7.65442e-20
1.86561e-21
1.7309e-05
-3.59307e-18
2.72054e-21
7.81574e-20
1.91613e-21
1.7735e-05
-3.59997e-18
2.74108e-21
8.10562e-20
1.96712e-21
1.81684e-05
-3.60639e-18
2.76079e-21
8.34077e-20
2.01882e-21
1.86094e-05
-3.61178e-18
2.78034e-21
8.43364e-20
2.07015e-21
1.90579e-05
-3.61592e-18
2.79926e-21
8.75209e-20
2.12061e-21
1.95142e-05
-3.6161e-18
2.81674e-21
8.22132e-20
2.1708e-21
1.99784e-05
-3.61857e-18
2.83152e-21
8.50385e-20
2.22263e-21
2.04506e-05
-3.62414e-18
2.84508e-21
8.37634e-20
2.27432e-21
2.09309e-05
-3.62573e-18
2.8564e-21
8.17339e-20
2.32782e-21
2.14195e-05
-3.62928e-18
2.86364e-21
8.24079e-20
2.38406e-21
2.19165e-05
-3.63625e-18
2.86836e-21
8.49642e-20
2.44197e-21
2.24221e-05
-3.6373e-18
2.87067e-21
8.21371e-20
2.50158e-21
2.29364e-05
-3.64166e-18
2.86768e-21
7.95738e-20
2.5634e-21
2.34595e-05
-3.63961e-18
2.86292e-21
7.65177e-20
2.62853e-21
2.39916e-05
-3.63588e-18
2.8534e-21
6.94926e-20
2.69608e-21
2.45329e-05
-3.63512e-18
2.83982e-21
6.81738e-20
2.76519e-21
2.50834e-05
-3.63259e-18
2.82282e-21
6.01975e-20
2.8349e-21
2.56434e-05
-3.63842e-18
2.8022e-21
6.32959e-20
2.90516e-21
2.6213e-05
-3.64454e-18
2.77906e-21
6.33255e-20
2.97458e-21
2.67923e-05
-3.64842e-18
2.75394e-21
6.23413e-20
3.04212e-21
2.73816e-05
-3.6523e-18
2.72739e-21
6.04735e-20
3.1074e-21
2.79809e-05
-3.6536e-18
2.6997e-21
6.03376e-20
3.17195e-21
2.85905e-05
-3.65803e-18
2.66931e-21
5.8195e-20
3.23769e-21
2.92104e-05
-3.65394e-18
2.63761e-21
5.51243e-20
3.30322e-21
2.9841e-05
-3.64843e-18
2.60285e-21
5.26011e-20
3.36575e-21
3.04823e-05
-3.64563e-18
2.56316e-21
5.35515e-20
3.42687e-21
3.11345e-05
-3.65161e-18
2.51788e-21
5.59766e-20
3.48798e-21
3.17979e-05
-3.65759e-18
2.47103e-21
5.00405e-20
3.54781e-21
3.24725e-05
-3.66855e-18
2.42098e-21
4.67352e-20
3.60924e-21
3.31586e-05
-3.66824e-18
2.36798e-21
4.45316e-20
3.67094e-21
3.38563e-05
-3.66216e-18
2.30783e-21
3.21307e-20
3.73032e-21
3.45659e-05
-3.67722e-18
2.23418e-21
3.66285e-20
3.79296e-21
3.52874e-05
-3.6756e-18
2.1579e-21
2.9959e-20
3.85445e-21
3.60212e-05
-3.67786e-18
2.07329e-21
2.11133e-20
3.91765e-21
3.67674e-05
-3.67448e-18
1.98435e-21
1.79015e-20
3.9846e-21
3.75262e-05
-3.67887e-18
1.88736e-21
1.60559e-20
4.05146e-21
3.82978e-05
-3.67797e-18
1.78504e-21
9.48841e-21
4.11457e-21
3.90824e-05
-3.67411e-18
1.67627e-21
-8.43e-21
4.17469e-21
3.98803e-05
-3.66622e-18
1.56413e-21
-1.74888e-20
4.23803e-21
4.06915e-05
-3.66016e-18
1.44454e-21
-2.18523e-20
4.29612e-21
4.15164e-05
-3.6654e-18
1.31751e-21
-3.3436e-20
4.34761e-21
4.23551e-05
-3.66462e-18
1.19216e-21
-4.79735e-20
4.39753e-21
4.32079e-05
-3.66196e-18
1.06489e-21
-5.45068e-20
4.44856e-21
4.40749e-05
-3.66055e-18
9.35474e-22
-6.17624e-20
4.49139e-21
4.49565e-05
-3.65639e-18
8.07657e-22
-6.90138e-20
4.52429e-21
4.58528e-05
-3.65188e-18
6.75844e-22
-9.48207e-20
4.55557e-21
4.6764e-05
-3.64125e-18
5.38368e-22
-1.05834e-19
4.59329e-21
4.76905e-05
-3.63321e-18
3.97246e-22
-1.25779e-19
4.62187e-21
4.86323e-05
-3.62931e-18
2.53855e-22
-1.39599e-19
4.65187e-21
4.95899e-05
-3.62244e-18
1.11113e-22
-1.59282e-19
4.66996e-21
5.05633e-05
-3.60162e-18
-3.28772e-23
-1.75856e-19
4.67768e-21
5.15529e-05
-3.59407e-18
-1.82189e-22
-1.9046e-19
4.68504e-21
5.25589e-05
-3.58016e-18
-3.28412e-22
-2.08524e-19
4.67635e-21
5.35815e-05
-3.57e-18
-4.78016e-22
-2.32775e-19
4.65554e-21
5.4621e-05
-3.55758e-18
-6.25563e-22
-2.52652e-19
4.63611e-21
5.56777e-05
-3.52573e-18
-7.76948e-22
-2.75562e-19
4.61248e-21
5.67519e-05
-3.4991e-18
-9.43276e-22
-3.05119e-19
4.57561e-21
5.78437e-05
-3.47069e-18
-1.11104e-21
-3.27036e-19
4.53038e-21
5.89535e-05
-3.45046e-18
-1.28225e-21
-3.5633e-19
4.48467e-21
6.00815e-05
-3.4459e-18
-1.46776e-21
-3.74476e-19
4.4516e-21
6.12281e-05
-3.42285e-18
-1.64138e-21
-4.0317e-19
4.40694e-21
6.23935e-05
-3.41827e-18
-1.84558e-21
-4.15521e-19
4.36032e-21
6.35779e-05
-3.40304e-18
-2.05809e-21
-4.42001e-19
4.30267e-21
6.47817e-05
-3.38617e-18
-2.27034e-21
-4.68891e-19
4.2471e-21
6.60052e-05
-3.37664e-18
-2.48539e-21
-4.86262e-19
4.18435e-21
6.72486e-05
-3.35213e-18
-2.70087e-21
-5.12547e-19
4.10402e-21
6.85124e-05
-3.34063e-18
-2.90663e-21
-5.26506e-19
4.01535e-21
6.97967e-05
-3.32621e-18
-3.10201e-21
-5.52824e-19
3.90868e-21
7.11018e-05
-3.30944e-18
-3.30211e-21
-5.67346e-19
3.80801e-21
7.24282e-05
-3.27693e-18
-3.50601e-21
-5.98007e-19
3.6865e-21
7.37761e-05
-3.26247e-18
-3.72105e-21
-6.18623e-19
3.55592e-21
7.51458e-05
-3.23795e-18
-3.93468e-21
-6.4901e-19
3.4261e-21
7.65377e-05
-3.21455e-18
-4.14888e-21
-6.7206e-19
3.28495e-21
7.79522e-05
-3.17733e-18
-4.37133e-21
-6.93047e-19
3.11882e-21
7.93894e-05
-3.16053e-18
-4.61061e-21
-7.19413e-19
2.93498e-21
8.08499e-05
-3.12233e-18
-4.83369e-21
-7.45451e-19
2.7475e-21
8.23338e-05
-3.087e-18
-5.08728e-21
-7.88114e-19
2.58213e-21
8.38417e-05
-3.05502e-18
-5.35415e-21
-8.07686e-19
2.42475e-21
8.53738e-05
-3.02598e-18
-5.61706e-21
-8.30519e-19
2.23198e-21
8.69305e-05
-3.00357e-18
-5.89578e-21
-8.65407e-19
2.0464e-21
8.85122e-05
-2.97256e-18
-6.16322e-21
-8.68406e-19
1.89366e-21
9.01192e-05
-2.93743e-18
-6.40517e-21
-8.99786e-19
1.68942e-21
9.1752e-05
-2.89856e-18
-6.68626e-21
-9.18755e-19
1.46918e-21
9.34108e-05
-2.86586e-18
-6.96434e-21
-9.55792e-19
1.19723e-21
9.50961e-05
-2.84559e-18
-7.28745e-21
-9.79518e-19
9.49054e-22
9.68084e-05
-2.82619e-18
-7.5647e-21
-9.84072e-19
6.95823e-22
9.85479e-05
-2.79392e-18
-7.86708e-21
-1.01301e-18
3.9415e-22
0.000100315
-2.7586e-18
-8.20029e-21
-1.04094e-18
1.18706e-22
0.00010211
-2.71664e-18
-8.54561e-21
-1.04428e-18
-1.45122e-22
0.000103934
-2.6811e-18
-8.89653e-21
-1.07949e-18
-4.54483e-22
0.000105787
-2.6521e-18
-9.26652e-21
-1.10619e-18
-7.27177e-22
0.000107669
-2.61035e-18
-9.61558e-21
-1.12025e-18
-9.56681e-22
0.000109581
-2.59001e-18
-9.98128e-21
-1.14114e-18
-1.2435e-21
0.000111523
-2.54965e-18
-1.03273e-20
-1.15738e-18
-1.54431e-21
0.000113496
-2.51825e-18
-1.06362e-20
-1.18362e-18
-1.80377e-21
0.0001155
-2.48772e-18
-1.09125e-20
-1.20897e-18
-2.05985e-21
0.000117536
-2.44382e-18
-1.12077e-20
-1.2413e-18
-2.29141e-21
0.000119604
-2.37373e-18
-1.15211e-20
-1.26732e-18
-2.4597e-21
0.000121704
-2.33748e-18
-1.18868e-20
-1.27543e-18
-2.60745e-21
0.000123837
-2.32595e-18
-1.22697e-20
-1.28714e-18
-2.79408e-21
0.000126004
-2.34716e-18
-1.26101e-20
-1.29203e-18
-2.94286e-21
0.000128205
-2.33485e-18
-1.27499e-20
-1.27277e-18
-3.05767e-21
0.00013044
-2.3022e-18
-1.28318e-20
-1.28021e-18
-3.24574e-21
0.000132711
-2.2675e-18
-1.29723e-20
-1.27801e-18
-3.48077e-21
0.000135017
-2.23761e-18
-1.32131e-20
-1.27311e-18
-3.74193e-21
0.000137359
-2.19785e-18
-1.34912e-20
-1.28039e-18
-4.12544e-21
0.000139737
-2.17326e-18
-1.3754e-20
-1.28691e-18
-4.48391e-21
0.000142153
-2.13393e-18
-1.39027e-20
-1.29997e-18
-4.92489e-21
0.000144606
-2.10705e-18
-1.41268e-20
-1.29086e-18
-5.48098e-21
0.000147097
-2.09643e-18
-1.43598e-20
-1.28705e-18
-6.1687e-21
0.000149628
-2.06612e-18
-1.4526e-20
-1.30551e-18
-6.81557e-21
0.000152197
-2.04336e-18
-1.4693e-20
-1.2843e-18
-7.37027e-21
0.000154807
-2.01789e-18
-1.46891e-20
-1.30348e-18
-7.89822e-21
0.000157457
-1.98946e-18
-1.45984e-20
-1.29443e-18
-8.20666e-21
0.000160148
-1.96505e-18
-1.45888e-20
-1.31013e-18
-8.49541e-21
0.00016288
-1.95437e-18
-1.46287e-20
-1.30228e-18
-8.63166e-21
0.000165655
-1.92771e-18
-1.45827e-20
-1.30033e-18
-8.61514e-21
0.000168473
-1.92648e-18
-1.45078e-20
-1.2707e-18
-8.50989e-21
0.000171334
-1.89418e-18
-1.41455e-20
-1.27337e-18
-8.65644e-21
0.00017424
-1.86805e-18
-1.39039e-20
-1.2971e-18
-8.64241e-21
0.00017719
-1.86575e-18
-1.37479e-20
-1.30309e-18
-8.45466e-21
0.000180186
-1.83753e-18
-1.35828e-20
-1.30257e-18
-8.20685e-21
0.000183227
-1.83671e-18
-1.33773e-20
-1.26985e-18
-7.99611e-21
0.000186316
-1.80862e-18
-1.29238e-20
-1.29149e-18
-7.7931e-21
0.000189451
-1.79069e-18
-1.26881e-20
-1.28916e-18
-7.42409e-21
0.000192635
-1.77741e-18
-1.2378e-20
-1.27111e-18
-7.01648e-21
0.000195868
-1.75435e-18
-1.17646e-20
-1.27224e-18
-6.78206e-21
0.00019915
-1.76286e-18
-1.13833e-20
-1.28296e-18
-6.37362e-21
0.000202482
-1.75619e-18
-1.1038e-20
-1.25837e-18
-5.82373e-21
0.000205866
-1.73839e-18
-1.05284e-20
-1.23254e-18
-5.33218e-21
0.000209301
-1.71885e-18
-9.88991e-21
-1.24331e-18
-5.07117e-21
0.000212788
-1.71648e-18
-9.35226e-21
-1.24163e-18
-4.37991e-21
0.000216328
-1.68623e-18
-8.65928e-21
-1.23768e-18
-3.62914e-21
0.000219922
-1.67944e-18
-8.12059e-21
-1.26239e-18
-3.01056e-21
0.000223571
-1.67796e-18
-7.2115e-21
-1.23979e-18
-2.42164e-21
0.000227275
-1.6762e-18
-6.38533e-21
-1.25043e-18
-2.08267e-21
0.000231035
-1.6788e-18
-5.8565e-21
-1.2458e-18
-9.12466e-22
0.000234852
-1.71826e-18
-4.95898e-21
-1.19696e-18
3.36088e-22
0.000238727
-1.72573e-18
-3.79391e-21
-1.1796e-18
8.55518e-22
0.000242661
-1.68515e-18
-2.03456e-21
-1.21445e-18
1.01532e-21
0.000246654
-1.6118e-18
-9.87971e-22
-1.21398e-18
1.43862e-21
0.000250707
-1.58505e-18
-6.1642e-22
-1.27045e-18
1.75437e-21
0.000254821
-1.54489e-18
-8.65309e-24
-1.29044e-18
2.00953e-21
0.000258997
-1.55797e-18
7.09814e-22
-1.26862e-18
1.86263e-21
0.000263235
-1.47049e-18
1.29479e-21
-1.27734e-18
1.02585e-21
0.000267538
-1.47942e-18
1.06972e-21
-1.29359e-18
6.77495e-22
0.000271904
-1.38179e-18
1.04254e-21
-1.30188e-18
3.1156e-22
0.000276336
-1.42361e-18
9.91612e-22
-1.25003e-18
-8.86953e-23
0.000280835
-1.39642e-18
1.8174e-21
-1.24769e-18
-9.90871e-22
0.0002854
-1.42218e-18
1.55617e-21
-1.28843e-18
-1.64856e-21
0.000290034
-1.40976e-18
2.00597e-21
-1.23231e-18
-1.72448e-21
0.000294736
-1.38542e-18
2.00228e-21
-1.21426e-18
-2.15363e-21
0.000299509
-1.37411e-18
3.02239e-21
-1.21143e-18
-3.49445e-21
0.000304352
-1.32464e-18
3.40565e-21
-1.25865e-18
-5.19347e-21
0.000309267
-1.32152e-18
2.62562e-21
-1.23588e-18
-6.62567e-21
0.000314255
-1.3218e-18
2.44986e-21
-1.21205e-18
-8.36898e-21
0.000319316
-1.24201e-18
2.65441e-21
-1.21453e-18
-1.07094e-20
0.000324452
-1.28755e-18
4.54162e-22
-1.20044e-18
-1.15225e-20
0.000329664
-1.18252e-18
-7.30687e-22
-1.29397e-18
-1.20064e-20
0.000334953
-1.20258e-18
-3.14501e-21
-1.27328e-18
-1.08908e-20
0.000340319
-1.21962e-18
-4.38493e-21
-1.22296e-18
-9.6786e-21
0.000345764
-1.25877e-18
-3.80793e-21
-1.12744e-18
-8.61047e-21
0.000351288
-1.09338e-18
-2.19506e-21
-1.11582e-18
-8.60737e-21
0.000356894
-1.09004e-18
-2.88596e-21
-1.0677e-18
-8.45089e-21
0.000362581
-1.11089e-18
-2.90862e-21
-1.0211e-18
-8.79973e-21
0.00036835
-1.04565e-18
-1.55889e-21
-9.76358e-19
-9.41409e-21
0.000374204
-9.16429e-19
-5.15396e-22
-1.045e-18
-1.11729e-20
0.000380143
-8.7062e-19
-1.20309e-21
-1.07051e-18
-1.10464e-20
0.000386167
-9.09457e-19
-2.02601e-21
-1.02001e-18
-1.0183e-20
0.000392279
-9.24789e-19
-1.93044e-21
-9.8324e-19
-8.40438e-21
0.000398479
-9.66982e-19
-2.22552e-21
-9.74125e-19
-8.4897e-21
0.000404768
-9.75791e-19
-1.97896e-21
-1.01639e-18
-8.99698e-21
0.000411147
-9.82021e-19
-3.26574e-21
-9.67671e-19
-8.36218e-21
0.000417618
-9.89947e-19
-4.67335e-21
-1.00546e-18
-1.12276e-20
0.000424181
-9.88867e-19
-5.25882e-21
-1.02019e-18
-1.37992e-20
0.000430838
-9.97499e-19
-6.40192e-21
-1.02832e-18
-1.48815e-20
0.00043759
-9.72815e-19
-7.07025e-21
-1.10726e-18
-1.42366e-20
0.000444438
-9.57278e-19
-8.50409e-21
-9.83161e-19
-1.10058e-20
0.000451383
-9.63033e-19
-1.00506e-20
-1.0039e-18
-1.19653e-20
0.000458426
-9.38919e-19
-1.23088e-20
-9.82435e-19
-1.31488e-20
0.000465568
-9.16861e-19
-1.5378e-20
-1.0318e-18
-1.45755e-20
0.000472811
-9.67605e-19
-1.94444e-20
-9.39489e-19
-1.26087e-20
0.000480156
-9.25217e-19
-1.9428e-20
-9.60962e-19
-1.15475e-20
0.000487604
-8.70462e-19
-1.76463e-20
-9.78095e-19
-1.46814e-20
0.000495156
-8.97916e-19
-2.05405e-20
-9.11701e-19
-1.58854e-20
0.000502813
-9.38398e-19
-2.23399e-20
-9.18671e-19
-1.45672e-20
0.000510577
-8.97887e-19
-2.25256e-20
-8.1706e-19
-1.24806e-20
0.000518448
-8.41108e-19
-2.38813e-20
-8.03066e-19
-1.83048e-20
0.000526428
-9.82183e-19
-2.91169e-20
-9.05096e-19
-2.25858e-20
0.000534519
-9.04447e-19
-2.65378e-20
-9.02349e-19
-2.33313e-20
0.000542721
-8.92803e-19
-2.74152e-20
-9.52832e-19
-2.1823e-20
0.000551035
-1.00683e-18
-2.83532e-20
-9.866e-19
-2.06325e-20
0.000559464
-1.00484e-18
-2.68816e-20
-9.56e-19
-2.04294e-20
0.000568007
-1.01262e-18
-2.67636e-20
-8.87868e-19
-2.46744e-20
0.000576667
-9.48809e-19
-2.91733e-20
-1.01656e-18
-2.82658e-20
0.000585444
-9.37106e-19
-3.19651e-20
-9.7917e-19
-2.75973e-20
0.00059434
-1.05925e-18
-3.98442e-20
-9.88596e-19
-3.51736e-20
0.000603357
-1.01618e-18
-4.24869e-20
-1.00687e-18
-4.13953e-20
0.000612494
-1.10593e-18
-3.93152e-20
-1.03404e-18
-4.00701e-20
0.000621754
-1.08749e-18
-3.15195e-20
-1.04943e-18
-3.72494e-20
0.000631138
-1.00876e-18
-2.59486e-20
-9.77657e-19
-3.53235e-20
0.000640647
-1.06713e-18
-2.71265e-20
-1.09669e-18
-3.27994e-20
0.000650282
-1.04311e-18
-2.04298e-20
-1.06546e-18
-3.07558e-20
0.000660044
-1.09703e-18
-2.25953e-20
-1.06282e-18
-2.95441e-20
0.000669935
-1.01179e-18
-2.28646e-20
-1.04021e-18
-2.87007e-20
0.000679955
-9.18918e-19
-2.85094e-20
-1.06686e-18
-2.73635e-20
0.000690105
-9.92056e-19
-3.06933e-20
-9.87348e-19
-2.24063e-20
0.000700387
-9.28295e-19
-3.38101e-20
-1.05899e-18
-2.38644e-20
0.000710801
-1.02675e-18
-4.50608e-20
-1.04246e-18
-2.29102e-20
0.000721348
-9.65688e-19
-4.01545e-20
-1.09315e-18
-1.08506e-20
0.000732029
-9.66232e-19
-4.16556e-20
-1.0906e-18
-6.17003e-21
0.000742844
-1.12695e-18
-4.4173e-20
-9.77471e-19
2.25394e-21
0.000753793
-1.12491e-18
-3.9282e-20
-9.91824e-19
-6.65187e-21
0.000764877
-1.09252e-18
-4.01222e-20
-1.07514e-18
-1.04141e-20
0.000776095
-1.03358e-18
-3.65895e-20
-9.83204e-19
-1.13345e-20
0.000787446
-1.04119e-18
-3.40614e-20
-1.01927e-18
-2.15012e-20
0.000798931
-3.09415e-20
-9.93232e-19
-2.55249e-20
-9.58467e-19
1.04434e-08
2.82161e-23
2.10441e-23
3.19386e-08
2.71127e-23
3.57831e-23
5.43704e-08
4.22437e-23
3.93353e-23
7.77706e-08
5.34223e-23
3.59663e-23
1.02172e-07
9.15098e-23
2.90384e-23
1.27609e-07
1.49334e-22
1.91943e-23
1.54117e-07
2.14345e-22
1.28235e-23
1.81731e-07
2.91479e-22
-1.26185e-23
2.10489e-07
3.70816e-22
-2.08266e-23
2.40429e-07
3.7039e-22
3.17479e-23
2.71591e-07
3.79918e-22
8.95642e-23
3.04017e-07
3.84145e-22
1.53107e-22
3.37747e-07
3.80825e-22
1.94577e-22
3.72827e-07
3.97893e-22
2.23481e-22
4.09301e-07
3.61592e-22
3.00628e-22
4.47215e-07
3.95118e-22
4.16467e-22
4.86617e-07
3.32704e-22
6.53083e-22
5.27557e-07
3.09751e-22
7.89965e-22
5.70086e-07
4.99502e-22
9.52006e-22
6.14256e-07
6.14825e-22
9.77834e-22
6.60122e-07
7.85309e-22
9.98976e-22
7.0774e-07
9.47204e-22
1.05034e-21
7.57167e-07
1.20133e-21
1.167e-21
8.08464e-07
1.26388e-21
1.2452e-21
8.61691e-07
1.34322e-21
1.38253e-21
9.16912e-07
1.44749e-21
1.64413e-21
9.74192e-07
1.44696e-21
1.89776e-21
1.0336e-06
1.44583e-21
2.12856e-21
1.0952e-06
1.53649e-21
2.15361e-21
1.15907e-06
1.65657e-21
2.29935e-21
1.22528e-06
1.86461e-21
2.36758e-21
1.2939e-06
2.12625e-21
2.37212e-21
1.36502e-06
2.17514e-21
2.51297e-21
1.43871e-06
2.4756e-21
2.80082e-21
1.51505e-06
2.77029e-21
3.05776e-21
1.59413e-06
2.95438e-21
3.46837e-21
1.67603e-06
3.23747e-21
3.56151e-21
1.76085e-06
3.49142e-21
3.6064e-21
1.84865e-06
3.83612e-21
3.70593e-21
1.93955e-06
4.38841e-21
4.46621e-21
2.03362e-06
5.20268e-21
4.81885e-21
2.13097e-06
5.57862e-21
4.99487e-21
2.23169e-06
5.60005e-21
4.99728e-21
2.33586e-06
5.91019e-21
5.23216e-21
2.44359e-06
6.55346e-21
6.05509e-21
2.55497e-06
7.224e-21
6.12265e-21
2.67009e-06
7.66508e-21
6.63696e-21
2.78906e-06
8.24673e-21
6.79748e-21
2.91195e-06
9.09069e-21
7.56343e-21
3.03887e-06
9.56494e-21
8.3133e-21
3.16991e-06
9.89904e-21
8.88133e-21
3.30514e-06
1.04198e-20
8.81369e-21
3.44466e-06
1.13016e-20
9.51056e-21
3.58854e-06
1.22002e-20
1.0094e-20
3.73687e-06
1.26294e-20
1.08195e-20
3.88972e-06
1.42128e-20
1.08054e-20
4.04716e-06
1.48648e-20
1.15114e-20
4.20924e-06
1.54761e-20
1.2364e-20
4.37603e-06
1.63756e-20
1.33915e-20
4.54759e-06
1.65037e-20
1.39744e-20
4.72397e-06
1.75082e-20
1.49455e-20
4.9052e-06
1.82278e-20
1.59162e-20
5.09132e-06
1.80622e-20
1.72501e-20
5.28238e-06
1.92802e-20
1.76012e-20
5.47841e-06
2.00471e-20
1.71583e-20
5.67942e-06
2.09271e-20
1.81736e-20
5.88545e-06
2.20131e-20
1.90968e-20
6.09651e-06
2.38634e-20
2.09835e-20
6.31262e-06
2.47774e-20
2.17846e-20
6.53381e-06
2.79426e-20
2.12991e-20
6.76008e-06
2.89718e-20
2.14046e-20
6.99144e-06
3.11034e-20
2.15955e-20
7.22793e-06
3.25385e-20
2.28383e-20
7.46955e-06
3.49702e-20
2.34796e-20
7.71631e-06
3.64632e-20
2.46904e-20
7.96825e-06
3.94786e-20
2.67198e-20
8.22538e-06
4.17914e-20
2.72074e-20
8.48773e-06
4.41776e-20
2.87027e-20
8.75533e-06
4.8146e-20
2.9734e-20
9.0282e-06
5.00323e-20
2.9476e-20
9.30638e-06
5.1837e-20
2.98924e-20
9.58991e-06
5.33923e-20
3.02911e-20
9.87884e-06
5.53035e-20
3.22599e-20
1.01732e-05
5.74622e-20
3.26742e-20
1.04731e-05
5.8992e-20
3.55784e-20
1.07785e-05
6.13962e-20
3.68205e-20
1.10895e-05
6.33517e-20
4.05687e-20
1.14061e-05
6.67215e-20
4.20232e-20
1.17286e-05
6.72061e-20
4.42423e-20
1.20568e-05
6.87698e-20
4.7016e-20
1.23909e-05
7.15249e-20
4.87072e-20
1.27309e-05
7.29069e-20
4.98369e-20
1.3077e-05
7.23106e-20
5.31873e-20
1.34292e-05
7.46146e-20
5.38478e-20
1.37876e-05
7.8362e-20
5.40709e-20
1.41523e-05
8.09793e-20
5.50502e-20
1.45234e-05
8.35623e-20
5.70747e-20
1.49011e-05
8.46475e-20
5.9463e-20
1.52853e-05
8.62923e-20
6.5461e-20
1.56762e-05
8.85165e-20
6.85761e-20
1.60739e-05
9.22386e-20
7.69076e-20
1.64785e-05
9.54038e-20
7.77772e-20
1.68902e-05
9.66512e-20
8.42439e-20
1.7309e-05
9.9416e-20
9.07225e-20
1.7735e-05
1.02349e-19
1.00912e-19
1.81684e-05
1.0743e-19
1.04401e-19
1.86094e-05
1.09463e-19
1.0686e-19
1.90579e-05
1.10742e-19
1.11266e-19
1.95142e-05
1.11793e-19
1.1327e-19
1.99784e-05
1.18831e-19
1.12415e-19
2.04506e-05
1.19961e-19
1.12916e-19
2.09309e-05
1.18942e-19
1.17593e-19
2.14195e-05
1.24196e-19
1.22127e-19
2.19165e-05
1.26219e-19
1.27936e-19
2.24221e-05
1.19995e-19
1.33033e-19
2.29364e-05
1.25152e-19
1.45432e-19
2.34595e-05
1.24367e-19
1.53637e-19
2.39916e-05
1.25778e-19
1.5478e-19
2.45329e-05
1.25603e-19
1.60549e-19
2.50834e-05
1.28939e-19
1.61883e-19
2.56434e-05
1.29244e-19
1.67945e-19
2.6213e-05
1.30485e-19
1.70501e-19
2.67923e-05
1.33778e-19
1.75697e-19
2.73816e-05
1.37384e-19
1.82224e-19
2.79809e-05
1.40682e-19
1.94903e-19
2.85905e-05
1.44545e-19
2.04965e-19
2.92104e-05
1.47764e-19
2.07831e-19
2.9841e-05
1.48639e-19
2.14337e-19
3.04823e-05
1.48213e-19
2.23303e-19
3.11345e-05
1.52464e-19
2.29278e-19
3.17979e-05
1.55308e-19
2.37688e-19
3.24725e-05
1.55449e-19
2.4468e-19
3.31586e-05
1.56934e-19
2.44383e-19
3.38563e-05
1.50264e-19
2.45874e-19
3.45659e-05
1.512e-19
2.54518e-19
3.52874e-05
1.56029e-19
2.62129e-19
3.60212e-05
1.67751e-19
2.69918e-19
3.67674e-05
1.75332e-19
2.73672e-19
3.75262e-05
1.78798e-19
2.76616e-19
3.82978e-05
1.82132e-19
2.7852e-19
3.90824e-05
1.90621e-19
2.82108e-19
3.98803e-05
1.9371e-19
2.84788e-19
4.06915e-05
1.94354e-19
2.90574e-19
4.15164e-05
1.97331e-19
2.92076e-19
4.23551e-05
1.96667e-19
3.00807e-19
4.32079e-05
1.96309e-19
3.06575e-19
4.40749e-05
2.03517e-19
3.09787e-19
4.49565e-05
2.07253e-19
3.24744e-19
4.58528e-05
2.05834e-19
3.31918e-19
4.6764e-05
2.08653e-19
3.3511e-19
4.76905e-05
2.1035e-19
3.44998e-19
4.86323e-05
2.10821e-19
3.42378e-19
4.95899e-05
2.07855e-19
3.40807e-19
5.05633e-05
2.11957e-19
3.53222e-19
5.15529e-05
2.14272e-19
3.51185e-19
5.25589e-05
2.12332e-19
3.54363e-19
5.35815e-05
2.14618e-19
3.62019e-19
5.4621e-05
2.14369e-19
3.67126e-19
5.56777e-05
2.14863e-19
3.69416e-19
5.67519e-05
2.17542e-19
3.6717e-19
5.78437e-05
2.19638e-19
3.64865e-19
5.89535e-05
2.09624e-19
3.72994e-19
6.00815e-05
2.24597e-19
3.74639e-19
6.12281e-05
2.21176e-19
3.7693e-19
6.23935e-05
2.16414e-19
3.85448e-19
6.35779e-05
2.21351e-19
3.91214e-19
6.47817e-05
2.24463e-19
3.88694e-19
6.60052e-05
2.16106e-19
3.86254e-19
6.72486e-05
2.23429e-19
3.83929e-19
6.85124e-05
2.11897e-19
3.8588e-19
6.97967e-05
1.88456e-19
3.8937e-19
7.11018e-05
1.76176e-19
3.84077e-19
7.24282e-05
1.78671e-19
3.83552e-19
7.37761e-05
1.72759e-19
4.06648e-19
7.51458e-05
1.79477e-19
4.02788e-19
7.65377e-05
1.78865e-19
3.94039e-19
7.79522e-05
1.80572e-19
4.00331e-19
7.93894e-05
1.85035e-19
3.91814e-19
8.08499e-05
1.79223e-19
3.95444e-19
8.23338e-05
1.82234e-19
3.93832e-19
8.38417e-05
1.93167e-19
3.88563e-19
8.53738e-05
1.89625e-19
3.96699e-19
8.69305e-05
1.90085e-19
3.98793e-19
8.85122e-05
2.02469e-19
3.86996e-19
9.01192e-05
1.7844e-19
3.80055e-19
9.1752e-05
1.80726e-19
3.60537e-19
9.34108e-05
1.53102e-19
3.61473e-19
9.50961e-05
1.67516e-19
3.59651e-19
9.68084e-05
1.48405e-19
3.50531e-19
9.85479e-05
1.40339e-19
3.52044e-19
0.000100315
1.42501e-19
3.48898e-19
0.00010211
1.46064e-19
3.42964e-19
0.000103934
1.30837e-19
3.36306e-19
0.000105787
1.33564e-19
3.37822e-19
0.000107669
1.3667e-19
3.15656e-19
0.000109581
1.32547e-19
3.05125e-19
0.000111523
1.53652e-19
3.19277e-19
0.000113496
1.70934e-19
3.13346e-19
0.0001155
1.75356e-19
3.09255e-19
0.000117536
1.90378e-19
3.14313e-19
0.000119604
2.13565e-19
3.16856e-19
0.000121704
2.16023e-19
3.01487e-19
0.000123837
2.1059e-19
2.94158e-19
0.000126004
2.16371e-19
2.87173e-19
0.000128205
2.0961e-19
2.81765e-19
0.00013044
1.91086e-19
2.66131e-19
0.000132711
1.62795e-19
2.59398e-19
0.000135017
1.49253e-19
2.38357e-19
0.000137359
1.60003e-19
2.49939e-19
0.000139737
1.77822e-19
2.19032e-19
0.000142153
1.49448e-19
1.93396e-19
0.000144606
1.22325e-19
1.77369e-19
0.000147097
1.00203e-19
1.61464e-19
0.000149628
8.78795e-20
1.25606e-19
0.000152197
1.07493e-19
1.17539e-19
0.000154807
1.01981e-19
1.21059e-19
0.000157457
6.93305e-20
1.0843e-19
0.000160148
5.05105e-20
9.57312e-20
0.00016288
5.17325e-20
9.71448e-20
0.000165655
5.67934e-20
1.03756e-19
0.000168473
8.61494e-20
8.63151e-20
0.000171334
6.49943e-20
8.79184e-20
0.00017424
4.42384e-20
7.85715e-20
0.00017719
2.67101e-20
1.04704e-19
0.000180186
4.5306e-20
9.01097e-20
0.000183227
5.94602e-20
7.65977e-20
0.000186316
1.55506e-20
5.87617e-20
0.000189451
1.54174e-20
5.83517e-20
0.000192635
5.51651e-20
2.47917e-20
0.000195868
3.40843e-20
2.26595e-20
0.00019915
1.49812e-20
1.39901e-20
0.000202482
2.9225e-20
1.97836e-20
0.000205866
4.3972e-20
9.68383e-21
0.000209301
2.77492e-20
4.78757e-20
0.000212788
3.43499e-20
3.33263e-20
0.000216328
1.94801e-20
2.42404e-20
0.000219922
4.24019e-20
2.7934e-20
0.000223571
6.17402e-21
2.86282e-20
0.000227275
-5.74745e-20
7.95991e-20
0.000231035
-4.97422e-20
5.39374e-20
0.000234852
-1.02364e-19
2.3904e-20
0.000238727
-9.67114e-20
-2.01119e-21
0.000242661
-1.59041e-19
-1.04715e-20
0.000246654
-1.45442e-19
-2.70588e-20
0.000250707
-8.05414e-20
-1.02273e-19
0.000254821
-3.5059e-20
-9.69257e-20
0.000258997
-9.41957e-20
-7.11073e-20
0.000263235
-1.22426e-19
-3.23548e-20
0.000267538
-1.48932e-19
-4.3015e-20
0.000271904
-8.56629e-20
-4.09979e-20
0.000276336
-5.85897e-20
-3.27413e-20
0.000280835
-1.26101e-19
-5.63563e-21
0.0002854
-1.13064e-19
-1.91877e-20
0.000290034
-1.56766e-19
-1.32883e-20
0.000294736
-6.10687e-20
-3.57014e-20
0.000299509
-7.82658e-20
-1.81155e-20
0.000304352
-8.22166e-20
-4.75646e-20