/*--------------------------------*- C++ -*----------------------------------*\
| =========                 |                                                 |
| \\      /  F ield         | OpenFOAM: The Open Source CFD Toolbox           |
|  \\    /   O peration     | Version:  2012                                  |
|   \\  /    A nd           | Website:  www.openfoam.com                      |
|    \\/     M anipulation  |                                                 |
\*---------------------------------------------------------------------------*/
FoamFile
{
    version     2.0;
    format      ascii;
    class       volScalarField;
    location    "6000";
    object      p;
}
// * * * * * * * * * * * * * * * * * * * * * * * * * * * * * * * * * * * * * //

dimensions      [0 2 -2 0 0 0 0];


internalField   nonuniform List<scalar> 
1280
(
1.15396e-15
7.43261e-15
2.49923e-15
7.43237e-15
2.57519e-15
7.43171e-15
2.2853e-15
7.43066e-15
2.06969e-15
7.42918e-15
1.90085e-15
7.42724e-15
1.74204e-15
7.42485e-15
1.58686e-15
7.42197e-15
1.43705e-15
7.41852e-15
1.29291e-15
7.4145e-15
1.15405e-15
7.40986e-15
1.02008e-15
7.4046e-15
8.90905e-16
7.39865e-15
7.66475e-16
7.3919e-15
6.46484e-16
7.38433e-15
5.30821e-16
7.37587e-15
4.1936e-16
7.36654e-15
3.1169e-16
7.35613e-15
2.07727e-16
7.34462e-15
1.07167e-16
7.33215e-15
9.6199e-18
7.31857e-15
-8.52623e-17
7.30349e-15
-1.77493e-16
7.28684e-15
-2.67761e-16
7.26894e-15
-3.56393e-16
7.24926e-15
-4.43681e-16
7.22809e-15
-5.29993e-16
7.20496e-15
-6.15765e-16
7.17964e-15
-7.00908e-16
7.15236e-15
-7.85507e-16
7.12296e-15
-8.69837e-16
7.09129e-15
-9.53876e-16
7.05694e-15
-1.03768e-15
7.01959e-15
-1.12196e-15
6.97988e-15
-1.2063e-15
6.93754e-15
-1.29113e-15
6.89258e-15
-1.37477e-15
6.84441e-15
-1.45816e-15
6.79366e-15
-1.54107e-15
6.73913e-15
-1.62357e-15
6.67984e-15
-1.70642e-15
6.61815e-15
-1.78871e-15
6.55458e-15
-1.8702e-15
6.4886e-15
-1.9495e-15
6.41744e-15
-2.02669e-15
6.34229e-15
-2.10419e-15
6.26528e-15
-2.17827e-15
6.18507e-15
-2.25147e-15
6.10109e-15
-2.3232e-15
6.01359e-15
-2.39029e-15
5.92111e-15
-2.45639e-15
5.82739e-15
-2.52096e-15
5.72926e-15
-2.5807e-15
5.62611e-15
-2.63587e-15
5.5201e-15
-2.68773e-15
5.41258e-15
-2.73666e-15
5.29823e-15
-2.78408e-15
5.1793e-15
-2.83152e-15
5.05919e-15
-2.8725e-15
4.93539e-15
-2.90952e-15
4.80529e-15
-2.94416e-15
4.67343e-15
-2.97599e-15
4.53509e-15
-3.00244e-15
4.39173e-15
-3.02518e-15
4.24707e-15
-3.04267e-15
4.10388e-15
-3.06003e-15
3.9561e-15
-3.07355e-15
3.80876e-15
-3.08396e-15
3.65791e-15
-3.09205e-15
3.50638e-15
-3.10097e-15
3.35945e-15
-3.10225e-15
3.20606e-15
-3.09898e-15
3.04904e-15
-3.09198e-15
2.88887e-15
-3.0796e-15
2.72118e-15
-3.065e-15
2.55116e-15
-3.05386e-15
2.3866e-15
-3.02715e-15
2.22053e-15
-3.01287e-15
2.05075e-15
-2.99936e-15
1.88765e-15
-2.9823e-15
1.71894e-15
-2.97257e-15
1.55503e-15
-2.96329e-15
1.3911e-15
-2.95258e-15
1.23257e-15
-2.93591e-15
1.06928e-15
-2.92429e-15
9.06534e-16
-2.91839e-15
7.33891e-16
-2.91879e-15
5.77758e-16
-2.92083e-15
4.224e-16
-2.90909e-15
2.51793e-16
-2.90522e-15
8.69792e-17
-2.90952e-15
-6.68903e-17
-2.91695e-15
-2.09931e-16
-2.92255e-15
-3.63992e-16
-2.9485e-15
-5.40462e-16
-2.95113e-15
-7.07082e-16
-2.95753e-15
-8.53757e-16
-2.97865e-15
-1.00338e-15
-3.00899e-15
-1.16236e-15
-3.02625e-15
-1.31501e-15
-3.05792e-15
-1.45126e-15
-3.07611e-15
-1.5998e-15
-3.10816e-15
-1.72872e-15
-3.12581e-15
-1.856e-15
-3.15093e-15
-1.98314e-15
-3.18297e-15
-2.10037e-15
-3.21042e-15
-2.22011e-15
-3.25538e-15
-2.34376e-15
-3.30603e-15
-2.47279e-15
-3.35032e-15
-2.59773e-15
-3.37585e-15
-2.70901e-15
-3.41551e-15
-2.79729e-15
-3.45743e-15
-2.92073e-15
-3.49971e-15
-3.04754e-15
-3.55195e-15
-3.15845e-15
-3.56625e-15
-3.29123e-15
-3.60639e-15
-3.41777e-15
-3.66832e-15
-3.50871e-15
-3.7171e-15
-3.60081e-15
-3.77411e-15
-3.68518e-15
-3.87299e-15
-3.77564e-15
-3.94517e-15
-3.87253e-15
-4.04783e-15
-3.96638e-15
-4.15972e-15
-4.10276e-15
-4.25744e-15
-4.19112e-15
-4.38906e-15
-4.2779e-15
-4.46778e-15
-4.35772e-15
-4.58656e-15
-4.42962e-15
-4.65719e-15
-4.53345e-15
-4.74588e-15
-4.62548e-15
-4.87556e-15
-4.75156e-15
-4.97777e-15
-4.86458e-15
-5.05118e-15
-5.01467e-15
-5.15706e-15
-5.11812e-15
-5.2707e-15
-5.2224e-15
-5.36951e-15
-5.3282e-15
-5.45126e-15
-5.43745e-15
-5.55972e-15
-5.5074e-15
-5.62315e-15
-5.5848e-15
-5.70569e-15
-5.67044e-15
-5.80777e-15
-5.78579e-15
-5.9253e-15
-5.86137e-15
-5.99091e-15
-5.95125e-15
-6.06965e-15
-6.06056e-15
-6.15626e-15
-6.19499e-15
-6.24228e-15
-6.26671e-15
-6.32785e-15
-6.27043e-15
-6.38254e-15
-6.35433e-15
-6.44644e-15
-6.43161e-15
-6.51539e-15
-6.46843e-15
-6.55673e-15
-6.49621e-15
-6.57193e-15
-6.54653e-15
-6.59237e-15
-6.54045e-15
-6.58197e-15
-6.59995e-15
-6.59792e-15
-6.61242e-15
-6.65464e-15
-6.62828e-15
-6.71511e-15
-6.66482e-15
-6.73216e-15
-6.71113e-15
-6.76399e-15
-6.7475e-15
-6.82417e-15
-6.77762e-15
-6.85927e-15
-6.87582e-15
3.04882e-15
3.2016e-15
3.04889e-15
3.20163e-15
3.04879e-15
3.20162e-15
3.04858e-15
3.20155e-15
3.04822e-15
3.20144e-15
3.04773e-15
3.20126e-15
3.04714e-15
3.20107e-15
3.04637e-15
3.20086e-15
3.04557e-15
3.20054e-15
3.04459e-15
3.20011e-15
3.04344e-15
3.19977e-15
3.04217e-15
3.19936e-15
3.04077e-15
3.19888e-15
3.03926e-15
3.19839e-15
3.03756e-15
3.19781e-15
3.03571e-15
3.19705e-15
3.03364e-15
3.19612e-15
3.0315e-15
3.19514e-15
3.02914e-15
3.19414e-15
3.02652e-15
3.19303e-15
3.02367e-15
3.19202e-15
3.02062e-15
3.19055e-15
3.01715e-15
3.18896e-15
3.01311e-15
3.1876e-15
3.00885e-15
3.18622e-15
3.00415e-15
3.18468e-15
2.99878e-15
3.18259e-15
2.99332e-15
3.18027e-15
2.98719e-15
3.17793e-15
2.9806e-15
3.17492e-15
2.97331e-15
3.17131e-15
2.96531e-15
3.16706e-15
2.95711e-15
3.16225e-15
2.94834e-15
3.15711e-15
2.93813e-15
3.15189e-15
2.92733e-15
3.1451e-15
2.91565e-15
3.13726e-15
2.90278e-15
3.12923e-15
2.88904e-15
3.12003e-15
2.87444e-15
3.10992e-15
2.85763e-15
3.0992e-15
2.83859e-15
3.08819e-15
2.81834e-15
3.07652e-15
2.79618e-15
3.06342e-15
2.77286e-15
3.04845e-15
2.74922e-15
3.03231e-15
2.72456e-15
3.01615e-15
2.69811e-15
2.99836e-15
2.66993e-15
2.97971e-15
2.64178e-15
2.95934e-15
2.61467e-15
2.93894e-15
2.58343e-15
2.91943e-15
2.5526e-15
2.89634e-15
2.51864e-15
2.87047e-15
2.48064e-15
2.84555e-15
2.44343e-15
2.81685e-15
2.40426e-15
2.78527e-15
2.36526e-15
2.74877e-15
2.3246e-15
2.71229e-15
2.28038e-15
2.67386e-15
2.23374e-15
2.63452e-15
2.19115e-15
2.59539e-15
2.14546e-15
2.5512e-15
2.09573e-15
2.50517e-15
2.04208e-15
2.45295e-15
1.98242e-15
2.39672e-15
1.92587e-15
2.33876e-15
1.87049e-15
2.27916e-15
1.80966e-15
2.21798e-15
1.74819e-15
2.15533e-15
1.68636e-15
2.09369e-15
1.61968e-15
2.02849e-15
1.54831e-15
1.95744e-15
1.47727e-15
1.87822e-15
1.40443e-15
1.80066e-15
1.32263e-15
1.72501e-15
1.23691e-15
1.63916e-15
1.15494e-15
1.55073e-15
1.06946e-15
1.46501e-15
9.80675e-16
1.37471e-15
8.8875e-16
1.28265e-15
7.9129e-16
1.19432e-15
6.9874e-16
1.09727e-15
6.06176e-16
9.91713e-16
5.19125e-16
8.72607e-16
4.2757e-16
7.55735e-16
3.21284e-16
6.46648e-16
2.2702e-16
5.35146e-16
1.34578e-16
4.16103e-16
2.82556e-17
2.95062e-16
-8.63613e-17
1.83167e-16
-1.92942e-16
7.01675e-17
-2.91182e-16
-5.99359e-17
-3.91372e-16
-1.96269e-16
-5.03709e-16
-3.16765e-16
-6.17047e-16
-4.20755e-16
-7.31503e-16
-5.29456e-16
-8.35947e-16
-6.47618e-16
-9.40994e-16
-7.80315e-16
-1.04602e-15
-8.99495e-16
-1.15049e-15
-9.99084e-16
-1.26007e-15
-1.09472e-15
-1.36369e-15
-1.20205e-15
-1.46126e-15
-1.309e-15
-1.55244e-15
-1.42621e-15
-1.64762e-15
-1.55369e-15
-1.75718e-15
-1.66901e-15
-1.86941e-15
-1.77141e-15
-1.973e-15
-1.89369e-15
-2.06713e-15
-2.01272e-15
-2.17387e-15
-2.12866e-15
-2.2814e-15
-2.25305e-15
-2.36602e-15
-2.35117e-15
-2.4844e-15
-2.43357e-15
-2.59216e-15
-2.53166e-15
-2.7023e-15
-2.63145e-15
-2.78117e-15
-2.73046e-15
-2.87336e-15
-2.84022e-15
-2.97786e-15
-2.93761e-15
-3.10696e-15
-3.03279e-15
-3.21595e-15
-3.14554e-15
-3.328e-15
-3.28666e-15
-3.4401e-15
-3.42327e-15
-3.5724e-15
-3.53221e-15
-3.67986e-15
-3.68104e-15
-3.82666e-15
-3.80399e-15
-3.96947e-15
-3.94626e-15
-4.10788e-15
-4.06263e-15
-4.24608e-15
-4.19696e-15
-4.38582e-15
-4.32592e-15
-4.52766e-15
-4.42309e-15
-4.63109e-15
-4.57451e-15
-4.7854e-15
-4.68974e-15
-4.92733e-15
-4.78563e-15
-5.06498e-15
-4.89957e-15
-5.1574e-15
-5.02544e-15
-5.36618e-15
-5.04796e-15
-5.49519e-15
-5.16451e-15
-5.57875e-15
-5.29958e-15
-5.70492e-15
-5.43853e-15
-5.87613e-15
-5.60498e-15
-5.95882e-15
-5.7071e-15
-6.02515e-15
-5.84117e-15
-6.0839e-15
-6.02204e-15
-6.19737e-15
-6.11613e-15
-6.32736e-15
-6.26254e-15
-6.38056e-15
-6.34076e-15
-6.44598e-15
-6.35642e-15
-6.49302e-15
-6.42607e-15
-6.55973e-15
-6.51292e-15
-6.59632e-15
-6.53734e-15
-6.61283e-15
-6.58491e-15
-6.64533e-15
-6.63017e-15
-6.60188e-15
-6.62709e-15
-6.69289e-15
-6.68781e-15
-6.7962e-15
-6.71236e-15
-6.72169e-15
-6.70526e-15
-6.70212e-15
-6.73627e-15
-6.84084e-15
-6.7844e-15
-6.87256e-15
-6.84913e-15
-6.82922e-15
-6.99438e-15
-6.95656e-15
-6.99139e-15
-7.04565e-15
-7.03445e-15
-7.03829e-15
-7.01089e-15
-7.29004e-15
-7.06211e-15
-7.18036e-15
-7.13913e-15
-7.16297e-15
-7.11502e-15
-7.11461e-15
-7.08146e-15
-7.11036e-15
-7.04619e-15
-7.10054e-15
-7.0437e-15
-7.08632e-15
-7.0795e-15
-7.08512e-15
-7.0795e-15
-7.09724e-15
-7.05326e-15
-7.05551e-15
-7.03225e-15
-7.03671e-15
-6.96081e-15
-7.00504e-15
-6.95974e-15
-7.04515e-15
-6.99173e-15
-6.97208e-15
-6.9689e-15
-6.98109e-15
-6.93032e-15
-6.94162e-15
-6.9612e-15
-6.95068e-15
-6.95814e-15
-6.93909e-15
-6.91363e-15
-6.9379e-15
-6.90832e-15
-6.94632e-15
-6.91945e-15
-6.96419e-15
-6.92198e-15
-6.92537e-15
-6.91765e-15
-6.91821e-15
-6.89468e-15
-6.92506e-15
-6.87731e-15
-6.87823e-15
-6.84223e-15
-6.86698e-15
-6.83742e-15
-6.86532e-15
-6.86321e-15
-6.87018e-15
-6.82846e-15
-6.86162e-15
-6.81803e-15
-6.81478e-15
-6.78088e-15
-6.81739e-15
-6.76496e-15
-6.8022e-15
-6.76984e-15
-6.81457e-15
-6.74983e-15
-6.78721e-15
-6.74781e-15
-6.7645e-15
-6.74293e-15
-6.75669e-15
-6.74855e-15
-6.76254e-15
-6.74206e-15
-6.75949e-15
-6.71073e-15
-6.7498e-15
-6.69908e-15
-6.73249e-15
-6.70724e-15
-6.7282e-15
-6.71418e-15
-6.71335e-15
-6.72084e-15
-6.71028e-15
-6.70518e-15
-6.70773e-15
-6.68954e-15
-6.71755e-15
-6.69645e-15
-6.72805e-15
-6.7143e-15
-6.72786e-15
-6.709e-15
-6.72864e-15
-6.6918e-15
-6.74243e-15
-6.67332e-15
-6.7475e-15
-6.66355e-15
-6.76726e-15
-6.66199e-15
-6.76876e-15
-6.66816e-15
-6.77447e-15
-6.67122e-15
-6.77274e-15
-6.67142e-15
-6.75212e-15
-6.65779e-15
-6.73487e-15
-6.66444e-15
-6.74242e-15
-6.6807e-15
-6.74073e-15
-6.68456e-15
-6.73532e-15
-6.67638e-15
-6.72617e-15
-6.66731e-15
-6.72425e-15
-6.6629e-15
-6.72383e-15
-6.66867e-15
-6.71917e-15
-6.67376e-15
-6.71555e-15
-6.67836e-15
-6.71271e-15
-6.67173e-15
-6.71071e-15
-6.66485e-15
-6.70954e-15
-6.66843e-15
-6.70907e-15
-6.65542e-15
-6.70938e-15
-6.64729e-15
-6.71053e-15
-6.64389e-15
-6.7072e-15
-6.65044e-15
-6.71511e-15
-6.65641e-15
-6.71835e-15
-6.64606e-15
-6.72228e-15
-6.6351e-15
-6.72699e-15
-6.63379e-15
-6.72216e-15
-6.64203e-15
-6.72059e-15
-6.64189e-15
-6.71708e-15
-6.64626e-15
-6.71664e-15
-6.6501e-15
-6.71414e-15
-6.65597e-15
-6.71204e-15
-6.66143e-15
-6.71276e-15
-6.66655e-15
-6.71375e-15
-6.66405e-15
-6.71256e-15
-6.66377e-15
-6.70921e-15
-6.66568e-15
-6.71082e-15
-6.67215e-15
-6.71021e-15
-6.67368e-15
-6.71207e-15
-6.67039e-15
-6.71403e-15
-6.66929e-15
-6.71612e-15
-6.66576e-15
-6.71833e-15
-6.66662e-15
-6.72068e-15
-6.66285e-15
-6.72096e-15
-6.66556e-15
-6.72356e-15
-6.66591e-15
-6.72627e-15
-6.66611e-15
-6.72593e-15
-6.66406e-15
-6.72677e-15
-6.66087e-15
-6.72878e-15
-6.6586e-15
-6.72686e-15
-6.65826e-15
-6.7271e-15
-6.65681e-15
-6.72746e-15
-6.6582e-15
-6.72697e-15
-6.66041e-15
-6.72566e-15
-6.6606e-15
-6.72634e-15
-6.6607e-15
-6.7271e-15
-6.66071e-15
-6.72528e-15
-6.65975e-15
-6.72621e-15
-6.66048e-15
-6.72721e-15
-6.66027e-15
-6.72744e-15
-6.65916e-15
-6.72693e-15
-6.65883e-15
-6.72651e-15
-6.65765e-15
-6.72696e-15
-6.65566e-15
-6.72747e-15
-6.65633e-15
-6.7273e-15
-6.65655e-15
-6.7272e-15
-6.65528e-15
-6.72752e-15
-6.65434e-15
-6.72858e-15
-6.65475e-15
-6.72833e-15
-6.65477e-15
-6.72815e-15
-6.65475e-15
-6.72835e-15
-6.65407e-15
-6.72828e-15
-6.65337e-15
-6.72856e-15
-6.65353e-15
-6.72859e-15
-6.65395e-15
-6.72895e-15
-6.65377e-15
-6.72906e-15
-6.65383e-15
-6.72895e-15
-6.65439e-15
-6.72888e-15
-6.65465e-15
-6.72885e-15
-6.65463e-15
-6.72885e-15
-6.65483e-15
-6.72876e-15
-6.65525e-15
-6.7287e-15
-6.65505e-15
-6.72891e-15
-6.65473e-15
-6.72902e-15
-6.65484e-15
-6.72893e-15
-6.65494e-15
-6.72886e-15
-6.65502e-15
-6.72881e-15
-6.65503e-15
-6.72856e-15
-6.65508e-15
-6.72838e-15
-6.65518e-15
-6.72833e-15
-6.65527e-15
-6.72812e-15
-6.65534e-15
-6.72804e-15
-6.65541e-15
-6.72785e-15
-6.6556e-15
-6.72768e-15
-6.65575e-15
-6.72754e-15
-6.65582e-15
-6.72748e-15
-6.65582e-15
-6.7274e-15
-6.65585e-15
-6.72732e-15
-6.65591e-15
-6.72729e-15
-6.65594e-15
-6.72726e-15
-6.65597e-15
-6.72719e-15
-6.65601e-15
-6.72721e-15
-6.65602e-15
-6.7272e-15
-6.65602e-15
-6.7272e-15
-6.65603e-15
-6.72719e-15
-6.65604e-15
-6.72718e-15
-6.65605e-15
-6.72719e-15
-6.65605e-15
-6.92441e-15
-6.93965e-15
-6.84841e-15
-7.07138e-15
-6.8953e-15
-7.07096e-15
-7.0387e-15
-7.03813e-15
-7.08436e-15
-7.0615e-15
-7.08773e-15
-7.07258e-15
-6.97862e-15
-7.05956e-15
-6.98206e-15
-7.02315e-15
-7.03455e-15
-6.99209e-15
-6.99237e-15
-6.98026e-15
-7.03007e-15
-6.99935e-15
-7.02055e-15
-6.9439e-15
-6.93044e-15
-6.93393e-15
-6.95574e-15
-7.00143e-15
-6.9511e-15
-6.98235e-15
-6.92459e-15
-6.9757e-15
-6.92055e-15
-6.93761e-15
-6.89564e-15
-6.89694e-15
-6.88485e-15
-6.84769e-15
-6.89537e-15
-6.87563e-15
-6.90514e-15
-6.91357e-15
-6.88456e-15
-6.94858e-15
-6.89363e-15
-6.92819e-15
-6.89216e-15
-6.96364e-15
-6.87341e-15
-6.92047e-15
-6.83937e-15
-6.83755e-15
-6.77524e-15
-6.77189e-15
-6.77215e-15
-6.69675e-15
-6.76892e-15
-6.66959e-15
-6.77156e-15
-6.66533e-15
-6.75785e-15
-6.68445e-15
-6.77002e-15
-6.73165e-15
-6.78089e-15
-6.79277e-15
-6.83334e-15
-6.75968e-15
-6.79991e-15
-6.71834e-15
-6.77328e-15
-6.73773e-15
-6.77196e-15
-6.75257e-15
-6.74706e-15
-6.7425e-15
-6.72099e-15
-6.73188e-15
-6.7159e-15
-6.74503e-15
-6.71905e-15
-6.74839e-15
-6.69554e-15
-6.73059e-15
-6.71446e-15
-6.71558e-15
-6.73226e-15
-6.70115e-15
-6.71693e-15
-6.69645e-15
-6.6908e-15
-6.70183e-15
-6.69833e-15
-6.69571e-15
-6.70568e-15
-6.6777e-15
-6.72574e-15
-6.68132e-15
-6.71322e-15
-6.6943e-15
-6.71265e-15
-6.69464e-15
-6.71248e-15
-6.69406e-15
-6.71265e-15
-6.70433e-15
-6.70118e-15
-6.70339e-15
-6.66615e-15
-6.70313e-15
-6.66278e-15
-6.69318e-15
-6.67983e-15
-6.68442e-15
-6.67285e-15
-6.67598e-15
-6.65329e-15
-6.66769e-15
-6.6661e-15
-6.67114e-15
-6.6724e-15
-6.66914e-15
-6.66123e-15
-6.66137e-15
-6.6549e-15
-6.65898e-15
-6.65335e-15
-6.65652e-15
-6.66221e-15
-6.64848e-15
-6.67076e-15
-6.64565e-15
-6.66824e-15
-6.64778e-15
-6.67662e-15
-6.64394e-15
-6.66876e-15
-6.63396e-15
-6.66654e-15
-6.63966e-15
-6.66981e-15
-6.65568e-15
-6.67299e-15
-6.64983e-15
-6.67084e-15
-6.64909e-15
-6.66873e-15
-6.65348e-15
-6.6772e-15
-6.65775e-15
-6.68567e-15
-6.66185e-15
-6.68891e-15
-6.66575e-15
-6.68697e-15
-6.66952e-15
-6.69024e-15
-6.66288e-15
-6.68839e-15
-6.66651e-15
-6.68915e-15
-6.66748e-15
-6.69249e-15
-6.6684e-15
-6.69335e-15
-6.67175e-15
-6.68674e-15
-6.67752e-15
-6.68513e-15
-6.6758e-15
-6.68844e-15
-6.66915e-15
-6.6991e-15
-6.66735e-15
-6.70735e-15
-6.66787e-15
-6.70607e-15
-6.67062e-15
-6.71209e-15
-6.67559e-15
-6.71347e-15
-6.68038e-15
-6.71729e-15
-6.68035e-15
-6.7166e-15
-6.67559e-15
-6.71376e-15
-6.67305e-15
-6.71333e-15
-6.67494e-15
-6.71301e-15
-6.67894e-15
-6.71277e-15
-6.67401e-15
-6.71262e-15
-6.66688e-15
-6.71472e-15
-6.66618e-15
-6.71371e-15
-6.66643e-15
-6.7128e-15
-6.66763e-15
-6.71199e-15
-6.66358e-15
-6.71632e-15
-6.65749e-15
-6.7137e-15
-6.65835e-15
-6.71122e-15
-6.65814e-15
-6.70884e-15
-6.65687e-15
-6.70657e-15
-6.65555e-15
-6.70348e-15
-6.65511e-15
-6.69867e-15
-6.65461e-15
-6.69756e-15
-6.65495e-15
-6.69651e-15
-6.65348e-15
-6.69552e-15
-6.65199e-15
-6.69457e-15
-6.65131e-15
-6.69368e-15
-6.65061e-15
-6.69282e-15
-6.64988e-15
-6.69202e-15
-6.64756e-15
-6.69087e-15
-6.64755e-15
-6.68904e-15
-6.64749e-15
-6.68763e-15
-6.64813e-15
-6.68697e-15
-6.64837e-15
-6.68498e-15
-6.64754e-15
-6.68405e-15
-6.64573e-15
-6.68315e-15
-6.64587e-15
-6.68229e-15
-6.64567e-15
-6.68147e-15
-6.64485e-15
-6.68067e-15
-6.64462e-15
-6.68019e-15
-6.64409e-15
-6.68001e-15
-6.64384e-15
-6.67983e-15
-6.64385e-15
-6.67954e-15
-6.64332e-15
-6.67913e-15
-6.64291e-15
-6.6791e-15
-6.64275e-15
-6.67908e-15
-6.6427e-15
-6.67895e-15
-6.64239e-15
-6.6794e-15
-6.64197e-15
-6.67951e-15
-6.64188e-15
-6.67962e-15
-6.64201e-15
-6.67962e-15
-6.6419e-15
-6.67939e-15
-6.64178e-15
-6.67945e-15
-6.64171e-15
-6.67958e-15
-6.64169e-15
-6.67959e-15
-6.64165e-15
-6.67942e-15
-6.64161e-15
-6.67932e-15
-6.64162e-15
-6.67933e-15
-6.64143e-15
-6.67923e-15
-6.64143e-15
-6.67922e-15
-6.64148e-15
-6.67918e-15
-6.64142e-15
-6.67914e-15
-6.6413e-15
-6.6791e-15
-6.64119e-15
-6.67902e-15
-6.64115e-15
-6.67895e-15
-6.64114e-15
-6.67887e-15
-6.64115e-15
-6.67885e-15
-6.64115e-15
-6.67883e-15
-6.64109e-15
-6.67877e-15
-6.64105e-15
-6.67876e-15
-6.64103e-15
-6.67876e-15
-6.64102e-15
-6.67876e-15
-6.64103e-15
-6.67874e-15
-6.64104e-15
)
;

boundaryField
{
    walls
    {
        type            zeroGradient;
    }
    inlet
    {
        type            cyclic;
    }
    outlet
    {
        type            cyclic;
    }
    sides
    {
        type            empty;
    }
}


// ************************************************************************* //
