/*--------------------------------*- C++ -*----------------------------------*\
| =========                 |                                                 |
| \\      /  F ield         | OpenFOAM: The Open Source CFD Toolbox           |
|  \\    /   O peration     | Version:  2012                                  |
|   \\  /    A nd           | Website:  www.openfoam.com                      |
|    \\/     M anipulation  |                                                 |
\*---------------------------------------------------------------------------*/
FoamFile
{
    version     2.0;
    format      ascii;
    class       surfaceScalarField;
    location    "6000";
    object      phi;
}
// * * * * * * * * * * * * * * * * * * * * * * * * * * * * * * * * * * * * * //

dimensions      [0 3 -1 0 0 0 0];
oriented        oriented;


internalField   nonuniform List<scalar> 
2556
(
6.77712e-08
-6.63176e-18
1.66971e-23
-8.16407e-22
2.77397e-22
2.11298e-07
-6.63508e-18
1.52518e-21
1.38287e-22
7.33677e-22
3.67438e-07
-6.63864e-18
1.6347e-21
1.14578e-21
8.00236e-22
5.37059e-07
-6.6424e-18
1.71273e-21
2.3163e-21
8.72833e-22
7.21083e-07
-6.64622e-18
1.80583e-21
3.24498e-21
9.51998e-22
9.20488e-07
-6.6501e-18
1.9114e-21
4.10209e-21
1.03834e-21
1.13631e-06
-6.65422e-18
2.02497e-21
5.04821e-21
1.13249e-21
1.36966e-06
-6.65857e-18
2.14555e-21
5.87895e-21
1.2351e-21
1.62169e-06
-6.66335e-18
2.27339e-21
6.62509e-21
1.34689e-21
1.89363e-06
-6.66823e-18
2.40869e-21
7.71603e-21
1.46857e-21
2.18677e-06
-6.6728e-18
2.55151e-21
8.07278e-21
1.60077e-21
2.50244e-06
-6.6777e-18
2.70175e-21
8.27797e-21
1.74424e-21
2.84201e-06
-6.68375e-18
2.85925e-21
9.57729e-21
1.89954e-21
3.20688e-06
-6.68935e-18
3.02361e-21
1.03515e-20
2.06704e-21
3.59844e-06
-6.69536e-18
3.19405e-21
1.06415e-20
2.24696e-21
4.01803e-06
-6.70178e-18
3.36932e-21
1.06644e-20
2.43918e-21
4.46692e-06
-6.7077e-18
3.54766e-21
1.11773e-20
2.64311e-21
4.9462e-06
-6.71398e-18
3.72655e-21
1.06268e-20
2.85745e-21
5.4568e-06
-6.72051e-18
3.90305e-21
1.05176e-20
3.08046e-21
5.99938e-06
-6.72695e-18
4.07358e-21
9.8551e-21
3.30992e-21
6.5743e-06
-6.73414e-18
4.23412e-21
9.61823e-21
3.54286e-21
7.1816e-06
-6.74297e-18
4.38069e-21
1.09254e-20
3.77619e-21
7.821e-06
-6.75065e-18
4.50988e-21
8.27201e-21
4.00621e-21
8.49194e-06
-6.75617e-18
4.61864e-21
6.49417e-21
4.22984e-21
9.19367e-06
-6.762e-18
4.70411e-21
2.26674e-21
4.44411e-21
9.92527e-06
-6.76964e-18
4.76463e-21
-5.45645e-22
4.64775e-21
1.06858e-05
-6.77326e-18
4.80028e-21
-5.06735e-21
4.83962e-21
1.14744e-05
-6.78179e-18
4.81036e-21
-8.50244e-21
5.01943e-21
1.22903e-05
-6.78669e-18
4.79718e-21
-1.39152e-20
5.18742e-21
1.3133e-05
-6.79169e-18
4.76184e-21
-1.85896e-20
5.34526e-21
1.4002e-05
-6.7964e-18
4.70643e-21
-2.24366e-20
5.49411e-21
1.48972e-05
-6.80089e-18
4.63286e-21
-2.64349e-20
5.63492e-21
1.58188e-05
-6.79863e-18
4.54212e-21
-3.65888e-20
5.76903e-21
1.67669e-05
-6.80157e-18
4.43512e-21
-4.66418e-20
5.89886e-21
1.77422e-05
-6.79972e-18
4.31422e-21
-5.80769e-20
6.02603e-21
1.87451e-05
-6.80682e-18
4.17658e-21
-6.12332e-20
6.15382e-21
1.97766e-05
-6.80941e-18
4.02562e-21
-7.09922e-20
6.28146e-21
2.08376e-05
-6.81322e-18
3.86064e-21
-7.87573e-20
6.40973e-21
2.1929e-05
-6.80851e-18
3.68249e-21
-9.20651e-20
6.53854e-21
2.30519e-05
-6.79951e-18
3.48979e-21
-1.07604e-19
6.66725e-21
2.42077e-05
-6.79422e-18
3.283e-21
-1.20711e-19
6.79667e-21
2.53974e-05
-6.7897e-18
3.06381e-21
-1.38386e-19
6.92542e-21
2.66225e-05
-6.79092e-18
2.83147e-21
-1.50878e-19
7.05486e-21
2.78844e-05
-6.78762e-18
2.59018e-21
-1.66936e-19
7.18081e-21
2.91844e-05
-6.77269e-18
2.3347e-21
-1.90767e-19
7.30733e-21
3.05242e-05
-6.77247e-18
2.0591e-21
-2.05462e-19
7.43683e-21
3.19051e-05
-6.75871e-18
1.77034e-21
-2.23287e-19
7.56296e-21
3.33289e-05
-6.74407e-18
1.46301e-21
-2.47818e-19
7.6861e-21
3.4797e-05
-6.73187e-18
1.13635e-21
-2.69421e-19
7.80465e-21
3.63114e-05
-6.71424e-18
7.8806e-22
-2.9868e-19
7.91938e-21
3.78736e-05
-6.70976e-18
4.09866e-22
-3.05372e-19
8.03784e-21
3.94854e-05
-6.69586e-18
1.92267e-23
-3.23359e-19
8.13944e-21
4.11488e-05
-6.68865e-18
-3.98506e-22
-3.4561e-19
8.23349e-21
4.28655e-05
-6.67094e-18
-8.37147e-22
-3.68137e-19
8.32736e-21
4.46375e-05
-6.65048e-18
-1.30572e-21
-3.8873e-19
8.42057e-21
4.64669e-05
-6.62438e-18
-1.80434e-21
-4.1859e-19
8.51589e-21
4.83556e-05
-6.59021e-18
-2.33293e-21
-4.56121e-19
8.61223e-21
5.03059e-05
-6.56186e-18
-2.90876e-21
-4.86383e-19
8.71561e-21
5.23198e-05
-6.53916e-18
-3.50269e-21
-5.01244e-19
8.79948e-21
5.43997e-05
-6.50725e-18
-4.11123e-21
-5.35563e-19
8.85509e-21
5.65478e-05
-6.47442e-18
-4.7445e-21
-5.67309e-19
8.88575e-21
5.87666e-05
-6.45686e-18
-5.42187e-21
-5.97061e-19
8.88068e-21
6.10585e-05
-6.41191e-18
-6.10206e-21
-6.40322e-19
8.84493e-21
6.3426e-05
-6.37658e-18
-6.7959e-21
-6.94146e-19
8.78776e-21
6.58717e-05
-6.32874e-18
-7.48595e-21
-7.35077e-19
8.75016e-21
6.83984e-05
-6.28304e-18
-8.17608e-21
-7.9695e-19
8.68813e-21
7.10087e-05
-6.23806e-18
-8.90618e-21
-8.48837e-19
8.62092e-21
7.37057e-05
-6.18575e-18
-9.66067e-21
-9.12496e-19
8.50749e-21
7.64921e-05
-6.12507e-18
-1.04384e-20
-9.78545e-19
8.35023e-21
7.93712e-05
-6.09559e-18
-1.12649e-20
-1.02027e-18
8.15992e-21
8.23459e-05
-6.05359e-18
-1.20628e-20
-1.05386e-18
7.88844e-21
8.54195e-05
-6.00718e-18
-1.28378e-20
-1.09698e-18
7.55033e-21
8.85954e-05
-5.96949e-18
-1.35651e-20
-1.13015e-18
7.18743e-21
9.18771e-05
-5.91903e-18
-1.431e-20
-1.17806e-18
6.79021e-21
9.5268e-05
-5.85617e-18
-1.5076e-20
-1.22859e-18
6.36001e-21
9.87718e-05
-5.83058e-18
-1.58328e-20
-1.28268e-18
5.9263e-21
0.000102392
-5.72423e-18
-1.65135e-20
-1.32586e-18
5.54027e-21
0.000106134
-5.65009e-18
-1.73777e-20
-1.38449e-18
5.11334e-21
0.000109999
-5.59085e-18
-1.82755e-20
-1.43952e-18
4.66758e-21
0.000113994
-5.50275e-18
-1.90979e-20
-1.52957e-18
4.14778e-21
0.000118122
-5.42625e-18
-1.9954e-20
-1.5881e-18
3.58615e-21
0.000122387
-5.34213e-18
-2.0794e-20
-1.63696e-18
2.92024e-21
0.000126794
-5.26188e-18
-2.17009e-20
-1.6903e-18
2.27953e-21
0.000131348
-5.18741e-18
-2.26246e-20
-1.76898e-18
1.60607e-21
0.000136053
-5.0934e-18
-2.35961e-20
-1.82617e-18
1.04865e-21
0.000140915
-5.00795e-18
-2.45566e-20
-1.89966e-18
3.6089e-22
0.000145939
-4.90963e-18
-2.54319e-20
-1.95891e-18
-2.29421e-22
0.00015113
-4.85877e-18
-2.63801e-20
-1.97354e-18
-8.40538e-22
0.000156494
-4.75703e-18
-2.72026e-20
-2.04409e-18
-1.76752e-21
0.000162036
-4.66958e-18
-2.79275e-20
-2.111e-18
-2.71285e-21
0.000167762
-4.57882e-18
-2.83584e-20
-2.15591e-18
-3.73465e-21
0.000173678
-4.49052e-18
-2.87895e-20
-2.1995e-18
-4.6306e-21
0.00017979
-4.39339e-18
-2.92951e-20
-2.2564e-18
-5.44348e-21
0.000186106
-4.34504e-18
-3.01469e-20
-2.30412e-18
-6.26514e-21
0.00019263
-4.2449e-18
-3.07942e-20
-2.34147e-18
-7.12292e-21
0.000199371
-4.15594e-18
-3.15139e-20
-2.35854e-18
-8.05543e-21
0.000206335
-4.06427e-18
-3.23026e-20
-2.37043e-18
-9.08815e-21
0.00021353
-3.97593e-18
-3.32552e-20
-2.39104e-18
-1.0254e-20
0.000220962
-3.88369e-18
-3.41234e-20
-2.4662e-18
-1.12789e-20
0.000228641
-3.84947e-18
-3.49309e-20
-2.49701e-18
-1.2208e-20
0.000236573
-3.7539e-18
-3.52365e-20
-2.55851e-18
-1.37766e-20
0.000244766
-3.72842e-18
-3.57407e-20
-2.57048e-18
-1.50921e-20
0.00025323
-3.6017e-18
-3.57121e-20
-2.58618e-18
-1.63802e-20
0.000261973
-3.55184e-18
-3.64277e-20
-2.60225e-18
-1.7412e-20
0.000271004
-3.46966e-18
-3.69947e-20
-2.5828e-18
-1.82432e-20
0.000280333
-3.35824e-18
-3.74738e-20
-2.5406e-18
-1.90995e-20
0.000289968
-3.2684e-18
-3.81043e-20
-2.52779e-18
-1.99344e-20
0.000299919
-3.22607e-18
-3.89288e-20
-2.55107e-18
-2.0153e-20
0.000310197
-3.19769e-18
-3.93749e-20
-2.49942e-18
-1.98153e-20
0.000320812
-3.1008e-18
-3.9121e-20
-2.52686e-18
-2.0474e-20
0.000331775
-3.07293e-18
-3.90543e-20
-2.48537e-18
-1.98447e-20
0.000343097
-3.02464e-18
-3.8457e-20
-2.47142e-18
-2.05505e-20
0.000354789
-2.93716e-18
-3.787e-20
-2.45513e-18
-2.2926e-20
0.000366863
-2.9424e-18
-3.73955e-20
-2.42325e-18
-2.55047e-20
0.00037933
-2.84936e-18
-3.59637e-20
-2.44072e-18
-2.85778e-20
0.000392204
-2.74826e-18
-3.62066e-20
-2.4616e-18
-3.17597e-20
0.000405497
-2.70112e-18
-3.85933e-20
-2.38368e-18
-3.40369e-20
0.000419222
-2.59767e-18
-3.92276e-20
-2.38139e-18
-3.62964e-20
0.000433392
-2.47179e-18
-3.98972e-20
-2.36631e-18
-3.80873e-20
0.000448022
-2.35346e-18
-3.91596e-20
-2.30798e-18
-3.95004e-20
0.000463125
-2.24205e-18
-3.93869e-20
-2.28315e-18
-3.95756e-20
0.000478716
-2.2325e-18
-4.1193e-20
-2.16018e-18
-3.68663e-20
0.00049481
-2.23275e-18
-4.26102e-20
-2.23292e-18
-3.77152e-20
0.000511423
-2.15841e-18
-3.94694e-20
-2.18277e-18
-3.72181e-20
0.00052857
-2.20408e-18
-4.27818e-20
-2.2357e-18
-3.38989e-20
0.000546267
-2.13722e-18
-4.05829e-20
-2.28161e-18
-3.08702e-20
0.000564531
-2.24097e-18
-4.13197e-20
-2.07295e-18
-2.4651e-20
0.000583378
-2.15734e-18
-3.56226e-20
-2.04206e-18
-2.80165e-20
0.000602827
-2.06144e-18
-3.02896e-20
-2.02484e-18
-3.27495e-20
0.000622895
-2.07504e-18
-2.99913e-20
-2.07146e-18
-3.76239e-20
0.000643599
-2.03179e-18
-2.42632e-20
-2.04454e-18
-4.18507e-20
0.000664959
-1.98812e-18
-2.43232e-20
-2.02245e-18
-3.78807e-20
0.000686993
-1.94372e-18
-2.42952e-20
-2.00614e-18
-3.89428e-20
0.00070972
-1.97622e-18
-2.87972e-20
-1.97987e-18
-4.31031e-20
0.00073316
-2.0561e-18
-2.50026e-20
-1.92802e-18
-4.64251e-20
0.000757333
-1.85092e-18
-2.75321e-20
-1.97787e-18
-5.0452e-20
0.000782259
-1.97924e-18
-3.01316e-20
-1.95669e-18
-6.48078e-20
0.000807957
-1.9526e-18
-2.40385e-20
-1.86729e-18
-6.49197e-20
0.000834449
-1.80087e-18
-2.66136e-20
-1.874e-18
-6.64384e-20
0.000861754
-1.71782e-18
-2.66526e-20
-1.84083e-18
-6.06738e-20
0.000889894
-1.89186e-18
-1.65844e-20
-1.70097e-18
-3.77781e-20
0.000918889
-1.786e-18
-6.69383e-21
-1.66628e-18
-3.97534e-20
0.000948759
-1.83011e-18
-1.05644e-20
-1.7173e-18
-3.97204e-20
0.000979524
-1.80851e-18
1.43063e-21
-1.82753e-18
-3.62735e-20
0.0010112
-1.73675e-18
1.37002e-20
-1.96016e-18
-4.38363e-20
0.00104382
-1.67966e-18
2.60396e-20
-1.74353e-18
1.15589e-21
0.00107738
-1.60862e-18
2.17937e-20
-1.75626e-18
1.36518e-20
0.00111192
-1.66364e-18
2.68836e-20
-1.7135e-18
1.8661e-20
0.00114743
-1.70993e-18
6.73253e-21
-1.58665e-18
3.55036e-20
0.00118395
-1.63584e-18
1.6274e-20
-1.495e-18
3.37925e-20
0.00122147
-1.55723e-18
2.64267e-20
-1.64153e-18
-3.61721e-21
0.00126001
-1.65315e-18
1.59971e-20
-1.43203e-18
3.10278e-20
0.00129957
-1.27944e-18
5.26996e-20
-1.43762e-18
2.77267e-20
0.00134014
-1.28926e-18
1.30621e-20
-1.43381e-18
2.5213e-20
0.00138174
-1.26153e-18
3.9126e-20
-1.33738e-18
5.7046e-20
0.00142433
-1.29966e-18
7.93242e-20
-1.13176e-18
5.77129e-20
0.0014679
-1.21037e-18
2.30253e-20
-1.14829e-18
1.78713e-20
0.00151243
-1.1146e-18
-4.15327e-21
-1.08469e-18
-2.05814e-23
0.00155787
-1.13072e-18
-5.753e-21
-1.09905e-18
-1.74266e-20
0.00160419
3.59793e-21
-1.27213e-18
-2.72453e-20
-1.06647e-18
6.77712e-08
4.00157e-23
3.19477e-22
2.11298e-07
1.44558e-21
1.26705e-21
3.67438e-07
2.8815e-21
2.38527e-21
5.37059e-07
4.63579e-21
3.41615e-21
7.21083e-07
6.26449e-21
4.85559e-21
9.20488e-07
7.95571e-21
6.26081e-21
1.13631e-06
9.83233e-21
7.76539e-21
1.36966e-06
1.15323e-20
9.4373e-21
1.62169e-06
1.37529e-20
1.12577e-20
1.89363e-06
1.59242e-20
1.26589e-20
2.18677e-06
1.77963e-20
1.47412e-20
2.50244e-06
2.01093e-20
1.69322e-20
2.84201e-06
2.21303e-20
1.92794e-20
3.20688e-06
2.48698e-20
2.21663e-20
3.59844e-06
2.72411e-20
2.55189e-20
4.01803e-06
2.94536e-20
3.0336e-20
4.46692e-06
3.12685e-20
3.42392e-20
4.9462e-06
3.38025e-20
3.76012e-20
5.4568e-06
3.66099e-20
4.27469e-20
5.99938e-06
3.90708e-20
4.68195e-20
6.5743e-06
4.14409e-20
5.25573e-20
7.1816e-06
4.48469e-20
5.74221e-20
7.821e-06
5.04174e-20
6.13031e-20
8.49194e-06
5.38196e-20
6.42943e-20
9.19367e-06
5.48669e-20
7.02512e-20
9.92527e-06
5.78524e-20
7.83413e-20
1.06858e-05
5.69471e-20
8.55627e-20
1.14744e-05
5.83213e-20
9.33915e-20
1.22903e-05
5.99613e-20
1.02446e-19
1.3133e-05
6.13379e-20
1.10271e-19
1.4002e-05
6.25568e-20
1.18774e-19
1.48972e-05
6.18863e-20
1.28131e-19
1.58188e-05
6.68495e-20
1.35083e-19
1.67669e-05
7.53203e-20
1.41435e-19
1.77422e-05
7.73231e-20
1.50956e-19
1.87451e-05
8.36469e-20
1.59414e-19
1.97766e-05
8.90477e-20
1.64656e-19
2.08376e-05
9.35994e-20
1.75593e-19
2.1929e-05
9.88248e-20
1.82279e-19
2.30519e-05
1.07225e-19
1.88554e-19
2.42077e-05
1.15418e-19
1.93857e-19
2.53974e-05
1.19591e-19
2.0341e-19
2.66225e-05
1.26061e-19
2.08495e-19
2.78844e-05
1.22489e-19
2.21537e-19
2.91844e-05
1.19259e-19
2.34821e-19
3.05242e-05
1.19046e-19
2.39809e-19
3.19051e-05
1.22416e-19
2.43267e-19
3.33289e-05
1.26669e-19
2.43611e-19
3.4797e-05
1.2603e-19
2.51844e-19
3.63114e-05
1.21245e-19
2.64995e-19
3.78736e-05
1.37662e-19
2.63257e-19
3.94854e-05
1.43737e-19
2.64592e-19
4.11488e-05
1.57616e-19
2.72683e-19
4.28655e-05
1.68414e-19
2.81098e-19
4.46375e-05
1.73867e-19
2.99984e-19
4.64669e-05
1.7644e-19
3.138e-19
4.83556e-05
1.61254e-19
3.30009e-19
5.03059e-05
1.68873e-19
3.28616e-19
5.23198e-05
1.68922e-19
3.40029e-19
5.43997e-05
1.66422e-19
3.41768e-19
5.65478e-05
1.47568e-19
3.45113e-19
5.87666e-05
1.43808e-19
3.55152e-19
6.10585e-05
1.48433e-19
3.53544e-19
6.3426e-05
1.55142e-19
3.74908e-19
6.58717e-05
1.68001e-19
3.83349e-19
6.83984e-05
1.45035e-19
3.91586e-19
7.10087e-05
1.33017e-19
3.91286e-19
7.37057e-05
1.32167e-19
3.82478e-19
7.64921e-05
1.24496e-19
3.73458e-19
7.93712e-05
1.22062e-19
3.69006e-19
8.23459e-05
1.20807e-19
3.73803e-19
8.54195e-05
1.36213e-19
3.71902e-19
8.85954e-05
1.19767e-19
3.70358e-19
9.18771e-05
1.2272e-19
3.61104e-19
9.5268e-05
1.43467e-19
3.59325e-19
9.87718e-05
1.45334e-19
3.73473e-19
0.000102392
1.29355e-19
3.81664e-19
0.000106134
1.22316e-19
3.84255e-19
0.000109999
1.25376e-19
3.78298e-19
0.000113994
1.20919e-19
3.5888e-19
0.000118122
1.15422e-19
3.54271e-19
0.000122387
8.78354e-20
3.8365e-19
0.000126794
6.55242e-20
3.66325e-19
0.000131348
4.0764e-20
3.75996e-19
0.000136053
4.87577e-20
3.62593e-19
0.000140915
4.17334e-20
3.64209e-19
0.000145939
1.71836e-20
3.49642e-19
0.00015113
-4.31393e-21
3.20265e-19
0.000156494
9.95251e-21
2.80485e-19
0.000162036
3.24817e-20
2.50555e-19
0.000167762
3.4177e-21
2.7639e-19
0.000173678
-1.19614e-20
2.62735e-19
0.00017979
-2.69384e-20
2.26379e-19
0.000186106
-2.56323e-20
1.90154e-19
0.00019263
-2.47595e-20
1.33974e-19
0.000199371
-4.22824e-20
9.26372e-20
0.000206335
-8.88411e-20
5.17193e-20
0.00021353
-1.19796e-19
3.15016e-20
0.000220962
-1.32062e-19
7.1641e-21
0.000228641
-1.50655e-19
-1.60997e-20
0.000236573
-1.80803e-19
-5.85254e-20
0.000244766
-2.21428e-19
-1.05262e-19
0.00025323
-2.58249e-19
-1.17987e-19
0.000261973
-2.8124e-19
-1.44385e-19
0.000271004
-2.94957e-19
-1.88917e-19
0.000280333
-3.05236e-19
-2.04395e-19
0.000289968
-3.18073e-19
-1.98302e-19
0.000299919
-3.42002e-19
-2.37234e-19
0.000310197
-3.65136e-19
-2.52316e-19
0.000320812
-3.65683e-19
-2.39625e-19
0.000331775
-3.94566e-19
-3.00636e-19
0.000343097
-4.10014e-19
-3.61995e-19
0.000354789
-3.75616e-19
-3.91773e-19
0.000366863
-4.12329e-19
-4.21366e-19
0.00037933
-4.7414e-19
-4.68541e-19
0.000392204
-5.39909e-19
-5.16962e-19
0.000405497
-5.48568e-19
-5.11531e-19
0.000419222
-5.73944e-19
-5.49485e-19
0.000433392
-5.22472e-19
-5.75358e-19
0.000448022
-5.77794e-19
-5.56736e-19
0.000463125
-6.33848e-19
-5.68454e-19
0.000478716
-6.96828e-19
-6.22047e-19
0.00049481
-6.44984e-19
-6.83402e-19
0.000511423
-7.78404e-19
-5.99613e-19
0.00052857
-7.45865e-19
-7.1296e-19
0.000546267
-7.47744e-19
-7.39098e-19
0.000564531
-7.45606e-19
-7.78958e-19
0.000583378
-7.42868e-19
-8.41846e-19
0.000602827
-8.08756e-19
-8.85033e-19
0.000622895
-8.19105e-19
-9.89296e-19
0.000643599
-9.6121e-19
-9.11966e-19
0.000664959
-9.55144e-19
-9.92234e-19
0.000686993
-9.8848e-19
-1.05114e-18
0.00070972
-9.31938e-19
-1.06208e-18
0.00073316
-1.0696e-18
-1.00553e-18
0.000757333
-8.5514e-19
-1.2075e-18
0.000782259
-9.50745e-19
-1.10359e-18
0.000807957
-1.10149e-18
-1.0621e-18
0.000834449
-1.01651e-18
-1.01354e-18
0.000861754
-9.46419e-19
-9.12069e-19
0.000889894
-1.21986e-18
-1.0886e-18
0.000918889
-1.28262e-18
-1.07763e-18
0.000948759
-1.2069e-18
-1.10983e-18
0.000979524
-1.23871e-18
-1.35611e-18
0.0010112
-1.30695e-18
-1.29192e-18
0.00104382
-1.47281e-18
-1.37023e-18
0.00107738
-1.38585e-18
-1.44233e-18
0.00111192
-1.60823e-18
-1.45611e-18
0.00114743
-1.42787e-18
-1.4455e-18
0.00118395
-1.3294e-18
-1.4917e-18
0.00122147
-1.41696e-18
-1.27499e-18
0.00126001
-1.31661e-18
-1.21926e-18
0.00129957
-1.31316e-18
-1.29022e-18
0.00134014
-1.0967e-18
-1.22468e-18
0.00138174
-1.03627e-18
-1.23074e-18
0.00142433
-1.42773e-18
-1.21285e-18
0.0014679
-1.31086e-18
-1.26193e-18
0.00151243
-1.16781e-18
-1.15617e-18
0.00155787
-1.10656e-18
-1.08675e-18
0.00160419
-1.18217e-18
-1.09061e-18
0.00160419
-8.13859e-19
5.77999e-20
-1.13313e-18
-2.79272e-21
0.00155787
-7.79765e-19
-5.13073e-20
-7.64797e-19
1.03648e-19
0.00151243
-9.07177e-19
-4.60471e-20
-8.55288e-19
3.65757e-20
0.0014679
-5.74054e-19
3.25477e-20
-9.19537e-19
4.92172e-20
0.00142433
-1.18989e-18
-4.93129e-20
-8.59608e-19
3.78529e-20
0.00138174
-1.03523e-18
-1.19579e-20
-1.07731e-18
-3.44325e-20
0.00134014
-1.13647e-18
-5.5194e-20
-1.10527e-18
-2.36387e-20
0.00129957
-9.72309e-19
-4.54847e-20
-1.09859e-18
-2.48424e-20
0.00126001
-9.89389e-19
-3.71193e-20
-9.83025e-19
-2.75902e-20
0.00122147
-7.49406e-19
-3.08318e-20
-6.78559e-19
-7.10175e-21
0.00118395
-6.60204e-19
-9.08963e-21
-6.48201e-19
-1.09047e-20
0.00114743
-5.79377e-19
-3.67832e-21
-6.33563e-19
-1.87352e-20
0.00111192
-6.14142e-19
-4.18586e-20
-5.6022e-19
-4.48061e-21
0.00107738
-5.15254e-19
-2.58582e-20
-6.26433e-19
3.89294e-20
0.00104382
-5.79975e-19
-1.58755e-20
-4.8864e-19
5.36759e-20
0.0010112
-4.44554e-19
-5.10871e-22
-4.89296e-19
1.93565e-20
0.000979524
-5.83307e-19
-1.2164e-20
-5.33252e-19
1.88546e-21
0.000948759
-5.04287e-19
-4.78e-21
-5.03082e-19
-1.65259e-21
0.000918889
-5.51978e-19
-7.66513e-21
-4.83551e-19
-9.54155e-21
0.000889894
-4.92838e-19
-5.49571e-21
-4.9983e-19
-7.07391e-21
0.000861754
-4.66835e-19
-3.23038e-21
-4.60528e-19
3.53175e-21
0.000834449
-3.65337e-19
-3.17044e-21
-4.05331e-19
2.14172e-20
0.000807957
-3.07059e-19
4.83913e-21
-2.87332e-19
2.36689e-20
0.000782259
-2.4338e-19
9.50906e-21
-3.22708e-19
1.59329e-20
0.000757333
-4.24963e-19
-4.70716e-21
-3.05853e-19
8.19961e-21
0.00073316
-3.45708e-19
-6.55972e-21
-3.29015e-19
-6.43953e-21
0.00070972
-2.48142e-19
-1.95754e-20
-3.05188e-19
-1.56045e-20
0.000686993
-3.44024e-19
-2.7604e-20
-3.07813e-19
-2.53473e-20
0.000664959
-2.43725e-19
-2.22151e-20
-2.08754e-19
-2.34537e-20
0.000643599
-2.72805e-19
-2.19598e-20
-1.601e-19
-2.2738e-20
0.000622895
-1.45118e-19
-1.71637e-20
-2.57786e-19
-1.84368e-20
0.000602827
-1.98001e-19
-1.69844e-20
-2.80173e-19
-3.54904e-21
0.000583378
-2.61089e-19
-1.03367e-20
-3.19181e-19
6.81062e-21
0.000564531
-2.05374e-19
-6.82015e-22
-3.40232e-19
6.11768e-21
0.000546267
-2.98376e-19
-1.82491e-21
-2.446e-19
5.17033e-21
0.00052857
-2.56221e-19
1.13834e-21
-2.02974e-19
8.22499e-21
0.000511423
-3.08998e-19
1.47641e-22
-1.92331e-19
1.03962e-20
0.00049481
-2.92313e-19
2.70556e-21
-2.13729e-19
8.41207e-21
0.000478716
-2.31578e-19
1.9627e-21
-2.42311e-19
7.65662e-21
0.000463125
-2.62963e-19
2.81563e-22
-2.68759e-19
5.8152e-21
0.000448022
-2.3431e-19
-3.1847e-22
-2.80111e-19
4.89964e-21
0.000433392
-2.26885e-19
-1.69848e-21
-2.1793e-19
4.69438e-21
0.000419222
-2.52226e-19
8.65273e-23
-1.69759e-19
4.19465e-21
0.000405497
-2.3861e-19
1.90468e-21
-2.09059e-19
1.20557e-21
0.000392204
-2.40795e-19
9.76662e-22
-1.62843e-19
9.59642e-22
0.00037933
-2.02354e-19
1.94818e-22
-2.09578e-19
1.18287e-21
0.000366863
-2.00721e-19
2.13655e-22
-2.00946e-19
1.85574e-21
0.000354789
-1.57213e-19
9.97041e-22
-1.74152e-19
2.24769e-21
0.000343097
-1.44657e-19
1.68237e-21
-1.87858e-19
1.95189e-21
0.000331775
-1.49197e-19
6.54672e-22
-1.88753e-19
1.76865e-21
0.000320812
-1.34916e-19
3.16709e-22
-1.74323e-19
2.0047e-21
0.000310197
-1.20961e-19
-6.91527e-22
-1.73919e-19
2.61948e-21
0.000299919
-9.49125e-20
-1.36521e-21
-1.84129e-19
3.62062e-21
0.000289968
-7.16233e-20
-2.15858e-21
-2.00573e-19
4.2667e-21
0.000280333
-1.47775e-19
-3.82189e-21
-1.70611e-19
4.35208e-21
0.000271004
-1.24635e-19
-3.46215e-21
-1.90225e-19
3.26828e-21
0.000261973
-1.48224e-19
-3.95877e-21
-1.51976e-19
2.55088e-21
0.00025323
-1.95989e-19
-4.84646e-21
-1.63521e-19
1.65994e-21
0.000244766
-1.97223e-19
-4.82156e-21
-1.10111e-19
1.23664e-21
0.000236573
-1.36157e-19
-4.07596e-21
-1.0314e-19
4.22508e-22
0.000228641
-1.19531e-19
-3.79837e-21
-1.04929e-19
-6.47722e-23
0.000220962
-1.10249e-19
-3.58052e-21
-1.11386e-19
-5.33912e-22
0.00021353
-1.01921e-19
-3.17389e-21
-1.21066e-19
-6.81489e-22
0.000206335
-9.45746e-20
-2.59447e-21
-1.00867e-19
-6.15692e-22
0.000199371
-8.73727e-20
-1.92252e-21
-9.84576e-20
-9.76e-22
0.00019263
-9.00096e-20
-1.65356e-21
-1.19106e-19
-1.06569e-21
0.000186106
-9.62083e-20
-1.50034e-21
-8.97616e-20
-9.52454e-22
0.00017979
-9.24411e-20
-1.27554e-21
-7.68541e-20
-1.04038e-21
0.000173678
-8.13492e-20
-1.24879e-21
-9.49272e-20
-1.07382e-21
0.000167762
-7.63731e-20
-1.18906e-21
-8.69767e-20
-8.46272e-22
0.000162036
-7.33875e-20
-1.10308e-21
-1.0418e-19
-5.36591e-22
0.000156494
-6.77353e-20
-1.04135e-21
-9.96694e-20
-3.02065e-22
0.00015113
-8.81129e-20
-9.45796e-22
-8.34082e-20
1.07787e-23
0.000145939
-7.74304e-20
-8.76198e-22
-6.38845e-20
2.08001e-22
0.000140915
-3.4597e-20
-7.17678e-22
-6.67258e-20
1.47327e-22
0.000136053
-4.90972e-20
-7.39985e-22
-9.37733e-20
1.83464e-22
0.000131348
-3.36691e-20
-6.94106e-22
-9.60834e-20
4.01501e-22
0.000126794
-4.27621e-20
-6.96324e-22
-7.42794e-20
5.34188e-22
0.000122387
-5.35934e-20
-6.1191e-22
-3.59208e-20
4.7718e-22
0.000118122
-5.00591e-20
-5.18426e-22
-4.58532e-20
3.70455e-22
0.000113994
-4.58372e-20
-4.11661e-22
-2.77636e-20
4.00578e-22
0.000109999
-4.69659e-20
-2.97483e-22
-3.80413e-20
3.80102e-22
0.000106134
-3.95145e-20
-1.96029e-22
-3.08533e-20
3.78626e-22
0.000102392
-3.99114e-20
-1.30864e-22
-3.64933e-20
3.55703e-22
9.87718e-05
-3.57036e-20
-2.99097e-23
-3.94617e-20
2.82811e-22
9.5268e-05
-3.52455e-20
6.90145e-23
-4.4695e-20
2.22856e-22
9.18771e-05
-3.01421e-20
1.8526e-22
-3.54644e-20
2.1678e-22
8.85955e-05
-3.25006e-20
2.69407e-22
-4.19366e-20
2.11881e-22
8.54195e-05
-1.93779e-20
3.01469e-22
-2.77943e-20
2.46345e-22
8.23459e-05
-2.15978e-20
3.38807e-22
-3.16505e-20
2.51381e-22
7.93711e-05
-2.12103e-20
3.48514e-22
-3.21125e-20
2.70723e-22
7.64921e-05
-1.43392e-20
3.57927e-22
-3.44312e-20
2.88179e-22
7.37057e-05
-1.69365e-20
3.23067e-22
-3.63718e-20
2.99568e-22
7.10087e-05
-1.03616e-20
2.85811e-22
-3.59323e-20
3.0794e-22
6.83984e-05
-1.26148e-20
2.44569e-22
-4.15435e-20
3.29472e-22
6.58717e-05
-1.77457e-20
2.07318e-22
-3.24823e-20
3.53007e-22
6.3426e-05
-1.15084e-20
1.7869e-22
-4.12034e-20
3.25961e-22
6.10584e-05
-6.86231e-21
1.47641e-22
-4.0433e-20
3.02051e-22
5.87666e-05
-1.27983e-20
1.23971e-22
-3.54829e-20
2.949e-22
5.65478e-05
-1.69273e-20
1.07386e-22
-2.48454e-20
2.90344e-22
5.43997e-05
-1.27527e-20
9.96589e-23
-2.81374e-20
2.85952e-22
5.23198e-05
-2.05304e-20
9.03619e-23
-2.1999e-20
2.75176e-22
5.03059e-05
-1.42713e-20
9.39539e-23
-2.5265e-20
2.54052e-22
4.83556e-05
-1.04086e-20
8.12059e-23
-1.55275e-20
2.49175e-22
4.64669e-05
-1.00091e-20
6.55361e-23
-1.67497e-20
2.34569e-22
4.46375e-05
-1.0928e-20
4.17321e-23
-2.17196e-20
2.22085e-22
4.28654e-05
-8.89822e-21
2.13529e-23
-2.13218e-20
2.13932e-22
4.11488e-05
-4.88214e-21
1.67279e-24
-1.70541e-20
2.08149e-22
3.94854e-05
-1.35723e-20
-1.90793e-23
-1.97905e-20
1.97012e-22
3.78736e-05
-5.71216e-21
-2.66522e-23
-1.59319e-20
1.89588e-22
3.63114e-05
-3.03198e-21
-3.45575e-23
-1.43219e-20
1.78376e-22
3.4797e-05
-4.85072e-21
-4.19725e-23
-1.5602e-20
1.69467e-22
3.33289e-05
-2.15015e-21
-4.30358e-23
-1.76903e-20
1.63613e-22
3.19051e-05
-5.81015e-21
-4.09203e-23
-1.69137e-20
1.57457e-22
3.05242e-05
-4.35264e-21
-3.69992e-23
-1.47719e-20
1.55077e-22
2.91845e-05
-9.46855e-22
-3.44525e-23
-7.88494e-21
1.52158e-22
2.78844e-05
-2.07507e-21
-3.46109e-23
-9.60559e-21
1.49192e-22
2.66225e-05
1.36201e-22
-3.48879e-23
-7.73706e-21
1.46974e-22
2.53974e-05
-1.75351e-21
-3.57543e-23
-9.93239e-21
1.45527e-22
2.42077e-05
1.94207e-21
-3.63129e-23
-3.34682e-21
1.4602e-22
2.30519e-05
-2.4751e-21
-3.96647e-23
-1.48698e-21
1.4271e-22
2.1929e-05
-3.15563e-21
-3.92177e-23
-3.33973e-21
1.37663e-22
2.08376e-05
-2.81641e-21
-3.88899e-23
-4.00808e-21
1.36187e-22
1.97766e-05
-1.2134e-21
-3.82924e-23
-4.65785e-21
1.34477e-22
1.87451e-05
-7.53311e-23
-3.87588e-23
-5.34717e-21
1.32372e-22
1.77422e-05
-1.25591e-21
-3.94785e-23
-1.62564e-21
1.29575e-22
1.67669e-05
2.25238e-21
-3.91629e-23
-3.35854e-21
1.24839e-22
1.58187e-05
1.2967e-22
-3.88842e-23
-1.51951e-21
1.20518e-22
1.48972e-05
-3.00403e-22
-3.79311e-23
1.14436e-21
1.16391e-22
1.4002e-05
-4.82769e-22
-3.64753e-23
1.0769e-21
1.10932e-22
1.3133e-05
3.53974e-22
-3.4969e-23
2.06789e-21
1.05947e-22
1.22903e-05
8.43167e-22
-3.30582e-23
8.14634e-22
1.01016e-22
1.14744e-05
3.94728e-22
-3.1034e-23
1.45442e-21
9.62602e-23
1.06858e-05
1.29151e-21
-2.9085e-23
2.57866e-22
9.12102e-23
9.92528e-06
2.8056e-21
-2.68343e-23
-1.8825e-21
8.64664e-23
9.19367e-06
7.12332e-22
-2.51724e-23
2.42625e-22
8.21268e-23
8.49195e-06
-5.57901e-22
-2.33271e-23
8.60768e-22
7.74377e-23
7.82099e-06
-9.00953e-22
-2.16186e-23
1.19254e-21
7.26066e-23
7.1816e-06
-7.6787e-22
-2.02093e-23
7.83693e-22
6.79351e-23
6.5743e-06
-2.30034e-21
-1.86339e-23
6.233e-22
6.33687e-23
5.99938e-06
-2.12534e-21
-1.6939e-23
5.22225e-22
5.89526e-23
5.45681e-06
-6.06834e-22
-1.54143e-23
1.46925e-22
5.45867e-23
4.9462e-06
-1.6875e-21
-1.42019e-23
1.33598e-21
5.04004e-23
4.46692e-06
-8.07893e-22
-1.29272e-23
7.95691e-22
4.63484e-23
4.01803e-06
-1.70439e-21
-1.17921e-23
7.8403e-22
4.24799e-23
3.59844e-06
-1.47043e-21
-1.07438e-23
6.84786e-22
3.88932e-23
3.20688e-06
-1.36362e-21
-9.77449e-24
5.23983e-22
3.55741e-23
2.84201e-06
-9.44413e-22
-8.90422e-24
5.13352e-22
3.25226e-23
2.50244e-06
-1.05098e-21
-8.12509e-24
2.5049e-22
2.97158e-23
2.18677e-06
-8.28683e-22
-7.40681e-24
2.44799e-22
2.7176e-23
1.89364e-06
-7.18564e-22
-6.7762e-24
3.73472e-22
2.48561e-23
1.62169e-06
-5.77596e-22
-6.21554e-24
3.64796e-22
2.27345e-23
1.36966e-06
-5.784e-22
-5.71539e-24
1.73569e-22
2.07974e-23
1.13631e-06
-2.78997e-22
-5.25044e-24
1.36483e-22
1.90371e-23
9.2049e-07
-2.86481e-22
-4.83051e-24
5.31884e-23
1.7422e-23
7.21082e-07
-1.5375e-22
-4.4448e-24
4.17656e-23
1.59569e-23
5.3706e-07
-1.58975e-22
-4.08594e-24
9.78396e-23
1.46211e-23
3.67438e-07
-7.91044e-23
-3.74619e-24
5.22944e-23
1.34002e-23
2.11297e-07
-1.03443e-23
-3.43589e-24
4.17056e-24
1.22846e-23
6.77713e-08
-2.7835e-24
1.93735e-25
0.00160419
-1.31607e-18
-1.01365e-18
0.00155787
-9.74662e-19
-1.16457e-18
0.00151243
-8.24209e-19
-9.45993e-19
0.0014679
-9.72215e-19
-1.00806e-18
0.00142433
-1.02597e-18
-1.10623e-18
0.00138174
-1.08723e-18
-9.63728e-19
0.00134014
-9.47506e-19
-1.0005e-18
0.00129957
-8.78439e-19
-1.02622e-18
0.00126001
-9.91895e-19
-8.52149e-19
0.00122147
-6.93877e-19
-7.15567e-19
0.00118395
-6.95299e-19
-7.82763e-19
0.00114743
-8.44771e-19
-6.39402e-19
0.00111192
-4.93047e-19
-3.26889e-19
0.00107738
-3.96689e-19
-5.05377e-19
0.00104382
-3.85619e-19
-5.67363e-19
0.0010112
-4.21825e-19
-3.88745e-19
0.000979524
-4.50695e-19
-4.04788e-19
0.000948759
-4.56334e-19
-4.82038e-19
0.000918889
-4.33817e-19
-3.5919e-19
0.000889894
-3.86451e-19
-3.51407e-19
0.000861754
-4.59456e-19
-3.4319e-19
0.000834449
-3.49824e-19
-4.88219e-19
0.000807957
-3.25383e-19
-4.91726e-19
0.000782259
-4.53126e-19
-4.61323e-19
0.000757333
-4.56673e-19
-4.29208e-19
0.00073316
-4.69658e-19
-3.95446e-19
0.00070972
-2.85672e-19
-4.53424e-19
0.000686993
-1.92479e-19
-2.99518e-19
0.000664959
-1.97907e-19
-2.06876e-19
0.000643599
-1.8774e-19
-9.84167e-20
0.000622895
-1.10158e-19
1.74749e-20
0.000602827
-2.00008e-20
-2.90119e-20
0.000583378
-1.91587e-20
-2.01431e-19
0.000564531
-1.67669e-19
-2.05702e-19
0.000546267
-1.95088e-19
-1.10219e-19
0.00052857
-2.65798e-19
-1.2145e-19
0.000511423
-2.10956e-19
-1.69932e-19
0.00049481
-2.66324e-19
-1.98745e-19
0.000478716
-2.39702e-19
-2.91197e-19
0.000463125
-2.32065e-19
-2.69033e-19
0.000448022
-2.49299e-19
-2.64459e-19
0.000433392
-1.69914e-19
-2.07832e-19
0.000419222
-1.68937e-19
-2.50653e-19
0.000405497
-2.45141e-19
-2.18564e-19
0.000392204
-2.70812e-19
-1.70182e-19
0.00037933
-2.09384e-19
-2.08663e-19
0.000366863
-1.8523e-19
-2.12432e-19
0.000354789
-1.62809e-19
-1.97607e-19
0.000343097
-2.32226e-19
-1.95121e-19
0.000331775
-1.99236e-19
-1.88658e-19
0.000320812
-2.24054e-19
-1.74745e-19
0.000310197
-2.13003e-19
-1.66845e-19
0.000299919
-2.21276e-19
-1.73063e-19
0.000289968
-2.59865e-19
-1.79047e-19
0.000280333
-1.74839e-19
-2.17494e-19
0.000271004
-1.54874e-19
-2.12505e-19
0.000261973
-1.55486e-19
-1.83066e-19
0.00025323
-1.23118e-19
-1.64691e-19
0.000244766
-7.53339e-20
-1.42431e-19
0.000236573
-7.52457e-20
-8.3121e-20
0.000228641
-9.17532e-20
-9.90441e-20
0.000220962
-8.32228e-20
-1.06357e-19
0.00021353
-5.85042e-20
-8.33971e-20
0.000206335
-2.51209e-20
-1.0496e-19
0.000199371
-4.9244e-20
-8.53697e-20
0.00019263
-6.37398e-20
-9.1472e-20
0.000186106
-6.49741e-20
-1.0431e-19
0.00017979
-9.67669e-20
-1.12178e-19
0.000173678
-9.43117e-20
-1.14867e-19
0.000167762
-9.32631e-20
-8.79568e-20
0.000162036
-9.81145e-20
-9.10802e-20
0.000156494
-8.6225e-20
-5.40387e-20
0.00015113
-9.8089e-20
-5.27403e-20
0.000145939
-5.78323e-20
-7.05067e-20
0.000140915
-5.58888e-20
-4.88173e-20
0.000136053
-5.88486e-20
-4.81727e-20
0.000131348
-6.38644e-20
-5.64746e-20
0.000126794
-5.57272e-20
-6.53972e-20
0.000122387
-6.50307e-20
-6.23618e-20
0.000118122
-6.54892e-20
-5.67221e-20
0.000113994
-6.25052e-20
-5.98656e-20
0.000109999
-6.41875e-20
-6.30824e-20
0.000106134
-6.17303e-20
-6.05084e-20
0.000102392
-3.22994e-20
-6.89651e-20
9.87718e-05
-9.51537e-21
-5.71658e-20
9.5268e-05
1.12555e-20
-5.82338e-20
9.18771e-05
1.6436e-20
-5.98521e-20
8.85955e-05
2.73451e-21
-4.7337e-20
8.54195e-05
2.02546e-20
-5.31807e-20
8.23459e-05
6.394e-21
-5.48165e-20
7.93711e-05
1.33692e-20
-5.35966e-20
7.64921e-05
-7.02997e-21
-5.26821e-20
7.37057e-05