/*--------------------------------*- C++ -*----------------------------------*\
| =========                 |                                                 |
| \\      /  F ield         | OpenFOAM: The Open Source CFD Toolbox           |
|  \\    /   O peration     | Version:  2012                                  |
|   \\  /    A nd           | Website:  www.openfoam.com                      |
|    \\/     M anipulation  |                                                 |
\*---------------------------------------------------------------------------*/
FoamFile
{
    version     2.0;
    format      ascii;
    class       surfaceScalarField;
    location    "14600";
    object      phi;
}
// * * * * * * * * * * * * * * * * * * * * * * * * * * * * * * * * * * * * * //

dimensions      [0 3 -1 0 0 0 0];
oriented        oriented;


internalField   nonuniform List<scalar> 
5116
(
6.82493e-07
2.22989e-11
-4.33282e-12
-1.28449e-11
4.34236e-12
2.08583e-06
4.23049e-11
-6.55656e-12
-3.22542e-11
6.5596e-12
3.54881e-06
5.90421e-11
-5.54677e-12
-4.87393e-11
5.54935e-12
5.07333e-06
6.95866e-11
-3.45679e-12
-5.8979e-11
3.4584e-12
6.66128e-06
7.53611e-11
-1.93352e-12
-6.47437e-11
1.93442e-12
8.31467e-06
7.89875e-11
-1.17954e-12
-6.8223e-11
1.18009e-12
1.00356e-05
8.13635e-11
-8.09177e-13
-7.06471e-11
8.09555e-13
1.18263e-05
8.3249e-11
-6.07956e-13
-7.24313e-11
6.08241e-13
1.3689e-05
8.46578e-11
-4.8695e-13
-7.38958e-11
4.87179e-13
1.56263e-05
8.59345e-11
-4.08145e-13
-7.50873e-11
4.08338e-13
1.76408e-05
8.69422e-11
-3.53666e-13
-7.61559e-11
3.53834e-13
1.97352e-05
8.79319e-11
-3.14276e-13
-7.70692e-11
3.14427e-13
2.19124e-05
8.87344e-11
-2.84811e-13
-7.79324e-11
2.84948e-13
2.41753e-05
8.95647e-11
-2.62189e-13
-7.86912e-11
2.62317e-13
2.65272e-05
9.02458e-11
-2.44473e-13
-7.9435e-11
2.44593e-13
2.89711e-05
9.0978e-11
-2.30389e-13
-8.00997e-11
2.30504e-13
3.15105e-05
9.15834e-11
-2.19071e-13
-8.07679e-11
2.19181e-13
3.41488e-05
9.2252e-11
-2.09908e-13
-8.1372e-11
2.10015e-13
3.68895e-05
9.28073e-11
-2.02463e-13
-8.19915e-11
2.02568e-13
3.97362e-05
9.34333e-11
-1.96412e-13
-8.25559e-11
1.96514e-13
4.26927e-05
9.39559e-11
-1.91511e-13
-8.31429e-11
1.91613e-13
4.57625e-05
9.45535e-11
-1.87577e-13
-8.36815e-11
1.87678e-13
4.89494e-05
9.50547e-11
-1.84465e-13
-8.42483e-11
1.84565e-13
5.22572e-05
9.56339e-11
-1.82064e-13
-8.47709e-11
1.82164e-13
5.56895e-05
9.61227e-11
-1.80285e-13
-8.53257e-11
1.80385e-13
5.925e-05
9.66909e-11
-1.79057e-13
-8.58399e-11
1.79159e-13
6.29423e-05
9.71738e-11
-1.78324e-13
-8.63897e-11
1.78427e-13
6.67698e-05
9.77372e-11
-1.78041e-13
-8.69014e-11
1.78145e-13
7.07359e-05
9.82195e-11
-1.78172e-13
-8.74513e-11
1.78277e-13
7.48437e-05
9.87831e-11
-1.78686e-13
-8.79656e-11
1.78793e-13
7.90962e-05
9.92696e-11
-1.79561e-13
-8.85203e-11
1.7967e-13
8.34961e-05
9.98378e-11
-1.80777e-13
-8.90416e-11
1.80888e-13
8.80458e-05
1.00333e-10
-1.82321e-13
-8.96051e-11
1.82434e-13
9.27475e-05
1.00909e-10
-1.8418e-13
-9.01373e-11
1.84297e-13
9.76029e-05
1.01416e-10
-1.86348e-13
-9.07135e-11
1.86467e-13
0.000102613
1.02005e-10
-1.88817e-13
-9.12604e-11
1.88939e-13
0.00010778
1.02527e-10
-1.91585e-13
-9.18529e-11
1.9171e-13
0.000113103
1.03132e-10
-1.94649e-13
-9.2418e-11
1.94778e-13
0.000118582
1.03674e-10
-1.98011e-13
-9.30304e-11
1.98143e-13
0.000124217
1.04298e-10
-2.0167e-13
-9.36174e-11
2.01807e-13
0.000130006
1.04863e-10
-2.05632e-13
-9.42532e-11
2.05772e-13
0.000135948
1.0551e-10
-2.09898e-13
-9.48657e-11
2.10043e-13
0.00014204
1.06102e-10
-2.14475e-13
-9.55286e-11
2.14625e-13
0.000148279
1.06775e-10
-2.19369e-13
-9.61704e-11
2.19523e-13
0.000154661
1.07398e-10
-2.24586e-13
-9.68641e-11
2.24745e-13
0.000161181
1.08101e-10
-2.30133e-13
-9.75392e-11
2.30298e-13
0.000167833
1.08759e-10
-2.36019e-13
-9.82675e-11
2.36189e-13
0.000174612
1.09498e-10
-2.42251e-13
-9.89799e-11
2.42427e-13
0.000181509
1.10194e-10
-2.48838e-13
-9.97471e-11
2.4902e-13
0.000188517
1.10971e-10
-2.55788e-13
-1.00501e-10
2.55977e-13
0.000195627
1.11712e-10
-2.63109e-13
-1.01311e-10
2.63304e-13
0.000202829
1.12533e-10
-2.70807e-13
-1.02111e-10
2.7101e-13
0.000210112
1.13321e-10
-2.7889e-13
-1.02969e-10
2.791e-13
0.000217465
1.1419e-10
-2.87362e-13
-1.0382e-10
2.8758e-13
0.000224875
1.15032e-10
-2.96227e-13
-1.0473e-10
2.96452e-13
0.000232328
1.15953e-10
-3.05484e-13
-1.05636e-10
3.05718e-13
0.000239811
1.16853e-10
-3.15136e-13
-1.06603e-10
3.15378e-13
0.000247309
1.17832e-10
-3.25175e-13
-1.0757e-10
3.25426e-13
0.000254806
1.18795e-10
-3.35597e-13
-1.08598e-10
3.35856e-13
0.000262285
1.19837e-10
-3.46387e-13
-1.09629e-10
3.46657e-13
0.000269731
1.20867e-10
-3.57534e-13
-1.10722e-10
3.57812e-13
0.000277124
1.21976e-10
-3.69014e-13
-1.11822e-10
3.69303e-13
0.000284448
1.23078e-10
-3.80806e-13
-1.12985e-10
3.81104e-13
0.000291685
1.24258e-10
-3.92879e-13
-1.14158e-10
3.93188e-13
0.000298815
1.25434e-10
-4.05202e-13
-1.15393e-10
4.05522e-13
0.000305821
1.26688e-10
-4.17737e-13
-1.16641e-10
4.18068e-13
0.000312683
1.27943e-10
-4.30448e-13
-1.17951e-10
4.30789e-13
0.000319385
1.29274e-10
-4.43291e-13
-1.19277e-10
4.43643e-13
0.000325907
1.30607e-10
-4.56228e-13
-1.20663e-10
4.56591e-13
0.000332233
1.32017e-10
-4.6922e-13
-1.22067e-10
4.69594e-13
0.000338346
1.33431e-10
-4.82232e-13
-1.2353e-10
4.82617e-13
0.00034423
1.34919e-10
-4.95234e-13
-1.25012e-10
4.95631e-13
0.000349871
1.36413e-10
-5.08205e-13
-1.26552e-10
5.08612e-13
0.000355254
1.3798e-10
-5.21131e-13
-1.28111e-10
5.21549e-13
0.000360368
1.39554e-10
-5.34009e-13
-1.29727e-10
5.34437e-13
0.000365202
1.41199e-10
-5.46844e-13
-1.31363e-10
5.47284e-13
0.000369746
1.42853e-10
-5.59659e-13
-1.33053e-10
5.6011e-13
0.000373993
1.44576e-10
-5.7248e-13
-1.34766e-10
5.72942e-13
0.000377936
1.46309e-10
-5.85347e-13
-1.36531e-10
5.8582e-13
0.000381571
1.48112e-10
-5.98308e-13
-1.38321e-10
5.98792e-13
0.000384897
1.49926e-10
-6.11421e-13
-1.40162e-10
6.11915e-13
0.000387911
1.51809e-10
-6.24742e-13
-1.4203e-10
6.25248e-13
0.000390615
1.53706e-10
-6.38341e-13
-1.43949e-10
6.38859e-13
0.000393011
1.55674e-10
-6.52284e-13
-1.45899e-10
6.52814e-13
0.000395104
1.57659e-10
-6.66645e-13
-1.479e-10
6.67186e-13
0.000396899
1.59715e-10
-6.8149e-13
-1.49936e-10
6.82045e-13
0.000398402
1.61793e-10
-6.96897e-13
-1.52025e-10
6.97465e-13
0.000399623
1.63946e-10
-7.1293e-13
-1.54154e-10
7.13513e-13
0.000400571
1.66124e-10
-7.29667e-13
-1.56339e-10
7.30263e-13
0.000401255
1.68381e-10
-7.47167e-13
-1.58569e-10
7.4778e-13
0.000401687
1.70669e-10
-7.65507e-13
-1.60858e-10
7.66135e-13
0.000401878
1.7304e-10
-7.84742e-13
-1.632e-10
7.85388e-13
0.000401841
1.75448e-10
-8.0495e-13
-1.65604e-10
8.05613e-13
0.000401589
1.77945e-10
-8.26179e-13
-1.68068e-10
8.26862e-13
0.000401134
1.80485e-10
-8.48511e-13
-1.706e-10
8.49212e-13
0.00040049
1.8312e-10
-8.7199e-13
-1.732e-10
8.72714e-13
0.00039967
1.85806e-10
-8.967e-13
-1.75874e-10
8.97445e-13
0.000398686
1.88595e-10
-9.22679e-13
-1.78624e-10
9.23449e-13
0.000397552
1.91441e-10
-9.50022e-13
-1.81455e-10
9.50816e-13
0.00039628
1.94399e-10
-9.78761e-13
-1.84371e-10
9.79582e-13
0.000394883
1.97423e-10
-1.009e-12
-1.87376e-10
1.00985e-12
0.000393371
2.00567e-10
-1.04076e-12
-1.90476e-10
1.04164e-12
0.000391756
2.03787e-10
-1.07417e-12
-1.93674e-10
1.07508e-12
0.00039005
2.07137e-10
-1.10924e-12
-1.96978e-10
1.11018e-12
0.000388261
2.10574e-10
-1.14611e-12
-2.00388e-10
1.14708e-12
0.0003864
2.1415e-10
-1.18477e-12
-2.03917e-10
1.18579e-12
0.000384476
2.17825e-10
-1.22542e-12
-2.07562e-10
1.22647e-12
0.000382497
2.2165e-10
-1.268e-12
-2.11338e-10
1.2691e-12
0.00038047
2.25587e-10
-1.31276e-12
-2.15243e-10
1.3139e-12
0.000378403
2.29687e-10
-1.35961e-12
-2.19292e-10
1.3608e-12
0.000376303
2.33913e-10
-1.40885e-12
-2.23483e-10
1.41008e-12
0.000374174
2.38314e-10
-1.46035e-12
-2.27832e-10
1.46163e-12
0.000372023
2.42857e-10
-1.51448e-12
-2.32337e-10
1.51581e-12
0.000369854
2.47589e-10
-1.57102e-12
-2.37016e-10
1.57241e-12
0.000367671
2.5248e-10
-1.63049e-12
-2.41866e-10
1.63193e-12
0.000365479
2.57576e-10
-1.69253e-12
-2.46908e-10
1.69404e-12
0.00036328
2.6285e-10
-1.75782e-12
-2.52138e-10
1.75939e-12
0.000361078
2.68345e-10
-1.82585e-12
-2.57577e-10
1.82749e-12
0.000358875
2.74039e-10
-1.89751e-12
-2.63224e-10
1.89922e-12
0.000356674
2.79972e-10
-1.97205e-12
-2.69099e-10
1.97384e-12
0.000354475
2.86127e-10
-2.0507e-12
-2.75204e-10
2.05256e-12
0.000352281
2.92541e-10
-2.13232e-12
-2.81558e-10
2.13428e-12
0.000350093
2.99199e-10
-2.21863e-12
-2.88165e-10
2.22066e-12
0.000347911
3.06141e-10
-2.30797e-12
-2.95044e-10
2.3101e-12
0.000345738
3.13352e-10
-2.40269e-12
-3.02201e-10
2.40492e-12
0.000343572
3.20872e-10
-2.50042e-12
-3.09655e-10
2.50275e-12
0.000341416
3.28688e-10
-2.60442e-12
-3.17417e-10
2.60685e-12
0.00033927
3.36841e-10
-2.71127e-12
-3.25502e-10
2.71382e-12
0.000337133
3.45321e-10
-2.82551e-12
-3.33926e-10
2.82817e-12
0.000335007
3.54168e-10
-2.94224e-12
-3.42702e-10
2.94504e-12
0.000332893
3.63373e-10
-3.06784e-12
-3.51853e-10
3.07076e-12
0.00033079
3.7298e-10
-3.19527e-12
-3.61388e-10
3.19833e-12
0.000328699
3.8298e-10
-3.33349e-12
-3.71336e-10
3.33669e-12
0.000326622
3.93418e-10
-3.47244e-12
-3.81702e-10
3.47581e-12
0.000324558
4.0429e-10
-3.62477e-12
-3.92524e-10
3.6283e-12
0.000322509
4.15639e-10
-3.77608e-12
-4.03801e-10
3.77979e-12
0.000320476
4.27464e-10
-3.94425e-12
-4.15582e-10
3.94813e-12
0.000318458
4.39809e-10
-4.10872e-12
-4.27857e-10
4.11281e-12
0.000316458
4.52683e-10
-4.29479e-12
-4.4069e-10
4.29908e-12
0.000314476
4.66119e-10
-4.47311e-12
-4.5406e-10
4.47763e-12
0.000312513
4.80143e-10
-4.67959e-12
-4.68047e-10
4.68433e-12
0.00031057
4.94772e-10
-4.87228e-12
-4.82615e-10
4.87728e-12
0.000308649
5.10062e-10
-5.10223e-12
-4.97869e-10
5.10747e-12
0.000306752
5.25999e-10
-5.30949e-12
-5.1375e-10
5.31502e-12
0.000304879
5.42679e-10
-5.56674e-12
-5.30397e-10
5.57254e-12
0.000303034
5.60051e-10
-5.78824e-12
-5.47714e-10
5.79436e-12
0.000301217
5.78262e-10
-6.07767e-12
-5.65892e-10
6.08409e-12
0.000299432
5.97207e-10
-6.31228e-12
-5.84779e-10
6.31904e-12
0.000297681
6.17105e-10
-6.64025e-12
-6.04643e-10
6.64735e-12
0.000295966
6.37772e-10
-6.88552e-12
-6.25249e-10
6.893e-12
0.000294291
6.59529e-10
-7.26035e-12
-6.46971e-10
7.2682e-12
0.000292657
6.82081e-10
-7.51197e-12
-6.69452e-10
7.52025e-12
0.000291068
7.05889e-10
-7.94478e-12
-6.93227e-10
7.95346e-12
0.000289526
7.305e-10
-8.19563e-12
-7.17754e-10
8.20477e-12
0.000288036
7.56574e-10
-8.70157e-12
-7.43798e-10
8.71116e-12
0.000286599
7.83429e-10
-8.94023e-12
-7.70554e-10
8.95034e-12
0.000285219
8.12013e-10
-9.54021e-12
-7.99113e-10
9.55081e-12
0.000283898
8.41304e-10
-9.74895e-12
-8.28289e-10
9.76012e-12
0.000282638
8.72676e-10
-1.04722e-11
-8.59644e-10
1.04839e-11
0.000281439
9.04603e-10
-1.06239e-11
-8.91439e-10
1.06362e-11
0.000280302
9.39083e-10
-1.15115e-11
-9.25912e-10
1.15245e-11
0.000279227
9.73847e-10
-1.15654e-11
-9.60526e-10
1.1579e-11
0.00027821
1.01181e-09
-1.26762e-11
-9.98494e-10
1.26905e-11
0.000277249
1.0496e-09
-1.25709e-11
-1.03612e-09
1.2586e-11
0.000276341
1.09149e-09
-1.39892e-11
-1.07803e-09
1.4005e-11
0.000275479
1.13249e-09
-1.36333e-11
-1.11883e-09
1.365e-11
0.000274661
1.17884e-09
-1.54812e-11
-1.16522e-09
1.54987e-11
0.000273881
1.22318e-09
-1.47386e-11
-1.20933e-09
1.47569e-11
0.000273135
1.27465e-09
-1.71936e-11
-1.26086e-09
1.72129e-11
0.000272422
1.32239e-09
-1.58618e-11
-1.30834e-09
1.58821e-11
0.00027174
1.3798e-09
-1.91836e-11
-1.36584e-09
1.92048e-11
0.000271092
1.43087e-09
-1.69616e-11
-1.41662e-09
1.69839e-11
0.000270479
1.49529e-09
-2.15312e-11
-1.48117e-09
2.15545e-11
0.000269907
1.54942e-09
-1.79711e-11
-1.53497e-09
1.79958e-11
0.000269379
1.62226e-09
-2.43505e-11
-1.60799e-09
2.43762e-11
0.000268902
1.67885e-09
-1.87851e-11
-1.66424e-09
1.88123e-11
0.00026848
1.76204e-09
-2.78059e-11
-1.74763e-09
2.78341e-11
0.000268117
1.81999e-09
-1.92393e-11
-1.80525e-09
1.92692e-11
0.000267816
1.91615e-09
-3.21369e-11
-1.90164e-09
3.21679e-11
0.000267577
1.97342e-09
-1.90799e-11
-1.9588e-09
1.91128e-11
0.000267404
2.08627e-09
-3.76963e-11
-2.07187e-09
3.77303e-11
0.000267293
2.13987e-09
-1.79169e-11
-2.12556e-09
1.79527e-11
0.000267242
2.27471e-09
-4.50072e-11
-2.26057e-09
4.5045e-11
0.000267248
2.35658e-09
-2.73081e-11
-2.34244e-09
2.73475e-11
0.000267305
2.51965e-09
-5.43988e-11
-2.50563e-09
5.44411e-11
0.000267409
2.65034e-09
-4.35463e-11
-2.63622e-09
4.35903e-11
0.000267556
2.84828e-09
-6.60208e-11
-2.83428e-09
6.60681e-11
0.000267743
3.03661e-09
-6.27574e-11
-3.02252e-09
6.28069e-11
0.000267968
3.27637e-09
-7.99632e-11
-3.26242e-09
8.00157e-11
0.000268231
3.53176e-09
-8.51668e-11
-3.51792e-09
8.52219e-11
0.000268537
3.74906e-09
-7.2473e-11
-3.73535e-09
7.253e-11
0.00026889
4.00309e-09
-8.47597e-11
-3.98966e-09
8.48202e-11
0.000269295
4.18977e-09
-6.22445e-11
-4.1764e-09
6.23055e-11
0.000269755
4.44241e-09
-8.4314e-11
-4.42939e-09
8.43783e-11
0.000270271
4.59544e-09
-5.10088e-11
-4.58243e-09
5.10718e-11
0.000270844
4.84814e-09
-8.43625e-11
-4.83557e-09
8.44286e-11
0.000271477
4.96929e-09
-4.03618e-11
-4.95666e-09
4.04304e-11
0.000272165
5.2257e-09
-8.5587e-11
-5.21349e-09
8.56568e-11
0.000272905
5.37697e-09
-5.03851e-11
-5.36464e-09
5.04601e-11
0.000273691
5.64084e-09
-8.80607e-11
-5.62889e-09
8.81372e-11
0.000274504
5.82167e-09
-6.02343e-11
-5.80958e-09
6.03155e-11
0.000275328
6.0965e-09
-9.17012e-11
-6.08477e-09
9.1785e-11
0.000276138
6.30674e-09
-7.00464e-11
-6.29488e-09
7.01341e-11
0.000276906
6.5958e-09
-9.64402e-11
-6.58428e-09
9.65313e-11
0.000277604
6.83568e-09
-7.9942e-11
-6.82407e-09
8.00369e-11
0.000278202
7.14208e-09
-1.02224e-10
-7.13082e-09
1.02322e-10
0.000278677
7.41218e-09
-9.00298e-11
-7.40086e-09
9.01322e-11
0.000279009
7.73893e-09
-1.09013e-10
-7.72797e-09
1.09119e-10
0.000279191
8.04012e-09
-1.00409e-10
-8.02913e-09
1.00519e-10
0.000279221
8.39015e-09
-1.1678e-10
-8.37954e-09
1.16894e-10
0.000279097
8.72358e-09
-1.11173e-10
-8.71299e-09
1.11291e-10
0.000278814
9.09977e-09
-1.25508e-10
-9.08957e-09
1.2563e-10
0.000278358
9.46686e-09
-1.22408e-10
-9.45671e-09
1.22535e-10
0.000277713
9.87207e-09
-1.3519e-10
-9.86234e-09
1.35321e-10
0.000276856
1.02745e-08
-1.34206e-10
-1.02649e-08
1.34341e-10
0.000275765
1.07116e-08
-1.45833e-10
-1.07024e-08
1.45973e-10
0.000274415
1.11514e-08
-1.46644e-10
-1.11423e-08
1.46788e-10
0.000272784
1.16234e-08
-1.57462e-10
-1.16147e-08
1.5761e-10
0.000270849
1.21026e-08
-1.59818e-10
-1.20941e-08
1.5997e-10
0.00026859
1.26125e-08
-1.70122e-10
-1.26045e-08
1.70279e-10
0.000266
1.31338e-08
-1.73839e-10
-1.3126e-08
1.74e-10
0.000263086
1.3685e-08
-1.83884e-10
-1.36777e-08
1.8405e-10
0.000259875
1.42513e-08
-1.88832e-10
-1.42441e-08
1.89002e-10
0.000256403
1.48474e-08
-1.9884e-10
-1.48407e-08
1.99015e-10
0.00025271
1.54619e-08
-2.04931e-10
-1.54555e-08
2.0511e-10
0.000248824
1.61067e-08
-2.15092e-10
-1.61008e-08
2.15275e-10
0.000244755
1.67732e-08
-2.22268e-10
-1.67676e-08
2.22455e-10
0.000240492
1.74711e-08
-2.32747e-10
-1.7466e-08
2.32939e-10
0.000235995
1.81937e-08
-2.40982e-10
-1.81889e-08
2.41178e-10
0.000231221
1.89491e-08
-2.51932e-10
-1.89448e-08
2.52132e-10
0.000226143
1.97325e-08
-2.61234e-10
-1.97285e-08
2.61438e-10
0.000220759
2.05505e-08
-2.72807e-10
-2.0547e-08
2.73015e-10
0.000215093
2.13998e-08
-2.83215e-10
-2.13967e-08
2.83427e-10
0.000209173
2.22861e-08
-2.95563e-10
-2.22835e-08
2.95779e-10
0.000203026
2.32072e-08
-3.07137e-10
-2.32049e-08
3.07357e-10
0.000196679
2.41681e-08
-3.20404e-10
-2.41663e-08
3.20627e-10
0.000190164
2.51674e-08
-3.33216e-10
-2.5166e-08
3.33443e-10
0.000183529
2.62096e-08
-3.47535e-10
-2.62088e-08
3.47766e-10
0.00017683
2.72943e-08
-3.61657e-10
-2.72938e-08
3.61891e-10
0.000170117
2.84254e-08
-3.77145e-10
-2.84255e-08
3.77382e-10
0.000163405
2.9603e-08
-3.9264e-10
-2.96034e-08
3.92881e-10
0.000156665
3.08308e-08
-4.09394e-10
-3.08318e-08
4.09637e-10
0.000149827
3.21096e-08
-4.26329e-10
-3.21109e-08
4.26575e-10
0.000142786
3.34426e-08
-4.44451e-10
-3.34445e-08
4.447e-10
0.000135432
3.48311e-08
-4.62923e-10
-3.48333e-08
4.63174e-10
0.000127667
3.62784e-08
-4.82557e-10
-3.62812e-08
4.8281e-10
0.000119399
3.77863e-08
-5.02719e-10
-3.77895e-08
5.02975e-10
0.000110549
3.93582e-08
-5.24068e-10
-3.9362e-08
5.24326e-10
0.000101118
4.09964e-08
-5.46145e-10
-4.10005e-08
5.46404e-10
9.12166e-05
4.27044e-08
-5.69462e-10
-4.27091e-08
5.69723e-10
8.10573e-05
4.44853e-08
-5.93698e-10
-4.44904e-08
5.9396e-10
7.08913e-05
4.63426e-08
-6.19204e-10
-4.63482e-08
6.19467e-10
6.09495e-05
4.82797e-08
-6.45755e-10
-4.82856e-08
6.46019e-10
5.14424e-05
5.03e-08
-6.7353e-10
-5.03065e-08
6.73795e-10
4.25268e-05
5.2407e-08
-7.02398e-10
-5.24138e-08
7.02663e-10
3.42027e-05
5.46038e-08
-7.32375e-10
-5.46112e-08
7.32641e-10
2.62612e-05
5.68941e-08
-7.63467e-10
-5.69017e-08
7.63732e-10
1.83835e-05
5.92804e-08
-7.95546e-10
-5.92886e-08
7.95811e-10
1.03271e-05
6.17667e-08
-8.28793e-10
-6.17752e-08
8.29058e-10
2.10126e-06
6.43551e-08
-8.62884e-10
-6.4364e-08
8.63148e-10
-6.05123e-06
6.70489e-08
-8.97984e-10
-6.70581e-08
8.98246e-10
-1.37976e-05
6.98532e-08
-9.34829e-10
-6.98629e-08
9.3509e-10
-2.08666e-05
7.27732e-08
-9.73381e-10
-7.27832e-08
9.73639e-10
-2.70946e-05
7.5814e-08
-1.01367e-09
-7.58244e-08
1.01393e-09
-3.23886e-05
7.89811e-08
-1.05572e-09
-7.89918e-08
1.05598e-09
-3.68067e-05
8.22789e-08
-1.0993e-09
-8.22899e-08
1.09955e-09
-4.05634e-05
8.57127e-08
-1.14465e-09
-8.5724e-08
1.14489e-09
-4.39117e-05
8.92865e-08
-1.19129e-09
-8.9298e-08
1.19153e-09
-4.70752e-05
9.30059e-08
-1.23983e-09
-9.30177e-08
1.24006e-09
-5.02678e-05
9.68743e-08
-1.28949e-09
-9.68863e-08
1.28972e-09
-5.37453e-05
1.00898e-07
-1.34133e-09
-1.0091e-07
1.34155e-09
-5.78225e-05
1.05081e-07
-1.39423e-09
-1.05093e-07
1.39444e-09
-6.2809e-05
1.0943e-07
-1.4499e-09
-1.09443e-07
1.45011e-09
-6.8966e-05
1.13951e-07
-1.50683e-09
-1.13964e-07
1.50703e-09
-7.64803e-05
1.18654e-07
-1.56769e-09
-1.18667e-07
1.56788e-09
-8.54225e-05
1.23545e-07
-1.6304e-09
-1.23558e-07
1.63058e-09
-9.58391e-05
1.28642e-07
-1.69896e-09
-1.28655e-07
1.69913e-09
-0.000107824
1.33953e-07
-1.77035e-09
-1.33967e-07
1.77052e-09
-0.000121343
1.39504e-07
-1.85049e-09
-1.39518e-07
1.85064e-09
-0.000136172
1.45309e-07
-1.93482e-09
-1.45323e-07
1.93496e-09
-0.000152095
1.51404e-07
-2.03185e-09
-1.51418e-07
2.03198e-09
-0.000169084
1.57807e-07
-2.13432e-09
-1.57821e-07
2.13444e-09
-0.000187299
1.64572e-07
-2.25504e-09
-1.64587e-07
2.25514e-09
-0.000206818
1.71719e-07
-2.38246e-09
-1.71734e-07
2.38256e-09
-0.000227379
1.79329e-07
-2.53663e-09
-1.79344e-07
2.53671e-09
-0.000248418
1.87423e-07
-2.69811e-09
-1.87438e-07
2.69819e-09
-0.000269281
1.96118e-07
-2.89822e-09
-1.96133e-07
2.89828e-09
-0.000289478
2.05426e-07
-3.10274e-09
-2.05441e-07
3.10279e-09
-0.000308514
2.15513e-07
-3.36246e-09
-2.15529e-07
3.36248e-09
-0.000325513
2.26363e-07
-3.61666e-09
-2.26379e-07
3.61669e-09
-0.000339417
2.38213e-07
-3.95037e-09
-2.3823e-07
3.95037e-09
-0.000349643
2.50976e-07
-4.25449e-09
-2.50993e-07
4.2545e-09
-0.000356539
2.65004e-07
-4.67635e-09
-2.65023e-07
4.67633e-09
-0.000361292
2.80073e-07
-5.02292e-09
-2.80091e-07
5.02292e-09
-0.000365395
2.96738e-07
-5.55545e-09
-2.96758e-07
5.55541e-09
-0.000369974
3.14538e-07
-5.93375e-09
-3.14559e-07
5.93373e-09
-0.000375213
3.34398e-07
-6.62047e-09
-3.34421e-07
6.62039e-09
-0.000380465
3.55432e-07
-7.01157e-09
-3.55455e-07
7.01154e-09
-0.000384806
3.79207e-07
-7.92562e-09
-3.79233e-07
7.92553e-09
-0.00038738
4.0405e-07
-8.2816e-09
-4.04077e-07
8.28155e-09
-0.000387585
4.32659e-07
-9.53736e-09
-4.32689e-07
9.53724e-09
-0.000385237
4.6192e-07
-9.75406e-09
-4.61951e-07
9.754e-09
-0.000380616
4.96529e-07
-1.15372e-08
-4.96563e-07
1.1537e-08
-0.000374016
5.30789e-07
-1.1421e-08
-5.30826e-07
1.14209e-08
-0.000365039
5.7292e-07
-1.40441e-08
-5.72958e-07
1.40439e-08
-0.000352992
6.12678e-07
-1.32551e-08
-6.12725e-07
1.32551e-08
-0.000338078
6.64382e-07
-1.72345e-08
-6.64431e-07
1.72343e-08
-0.000321262
7.09898e-07
-1.51902e-08
-7.10001e-07
1.51902e-08
-0.000303988
7.73961e-07
-2.13512e-08
-7.74078e-07
2.1351e-08
-0.000287782
8.25204e-07
-1.70958e-08
-8.25361e-07
1.70958e-08
-0.000273479
9.05477e-07
-2.67502e-08
-9.05622e-07
2.675e-08
-0.000260817
8.35451e-07
2.3347e-08
-8.3557e-07
-2.33489e-08
-0.000249362
7.83846e-07
1.72099e-08
-7.83933e-07
-1.72121e-08
-0.000239554
6.99023e-07
2.82781e-08
-6.99087e-07
-2.82802e-08
-0.000232333
6.28313e-07
2.35746e-08
-6.28358e-07
-2.35767e-08
-0.000227522
5.23349e-07
3.49903e-08
-5.23379e-07
-3.49925e-08
-0.000223587
4.2719e-07
3.20554e-08
-4.27209e-07
-3.20574e-08
-0.000219281
2.95733e-07
4.38201e-08
-2.95744e-07
-4.38225e-08
-0.000215658
1.66563e-07
4.30581e-08
-1.66567e-07
-4.306e-08
-0.000214784
5.49318e-08
1.7699e-09
-5.49344e-08
-1.76763e-09
6.82501e-07
-1.29151e-11
1.31036e-11
2.08585e-06
-3.24462e-11
3.29087e-11
3.54883e-06
-4.89985e-11
4.96344e-11
5.07333e-06
-5.92921e-11
6.00732e-11
6.66129e-06
-6.50711e-11
6.58957e-11
8.31467e-06
-6.85717e-11
6.94651e-11
1.00356e-05
-7.09971e-11
7.18969e-11
1.18263e-05
-7.27949e-11
7.37413e-11
1.3689e-05
-7.42581e-11
7.52023e-11
1.56263e-05
-7.54603e-11
7.6444e-11
1.76408e-05
-7.65262e-11
7.75028e-11
1.97352e-05
-7.74485e-11
7.84613e-11
2.19124e-05
-7.83087e-11
7.93128e-11
2.41753e-05
-7.90755e-11
8.01144e-11
2.65272e-05
-7.9816e-11
8.08439e-11
2.89711e-05
-8.0488e-11
8.15495e-11
3.15105e-05
-8.11528e-11
8.22023e-11
3.41488e-05
-8.17637e-11
8.28463e-11
3.68895e-05
-8.238e-11
8.34483e-11
3.97362e-05
-8.29508e-11
8.40515e-11
4.26927e-05
-8.35349e-11
8.46201e-11
4.57625e-05
-8.40797e-11
8.51966e-11
4.89494e-05
-8.46439e-11
8.57432e-11
5.22572e-05
-8.51727e-11
8.63028e-11
5.56895e-05
-8.57253e-11
8.68363e-11
5.925e-05
-8.62457e-11
8.73865e-11
6.29423e-05
-8.67936e-11
8.79132e-11
6.67698e-05
-8.73117e-11
8.84599e-11
7.07359e-05
-8.78602e-11
8.89855e-11
7.48437e-05
-8.83811e-11
8.95336e-11
7.90962e-05
-8.8935e-11
9.00625e-11
8.34961e-05
-8.94632e-11
9.06163e-11
8.80458e-05
-9.00265e-11
9.11526e-11
9.27475e-05
-9.0566e-11
9.1716e-11
9.76029e-05
-9.11425e-11
9.22635e-11
0.000102613
-9.16972e-11
9.284e-11
0.00010778
-9.22907e-11
9.34024e-11
0.000113103
-9.28642e-11
9.39955e-11
0.000118582
-9.34781e-11
9.45764e-11
0.000124217
-9.40741e-11
9.51896e-11
0.000130006
-9.47121e-11
9.57925e-11
0.000135948
-9.53344e-11
9.64294e-11
0.00014204
-9.60001e-11
9.70579e-11
0.000148279
-9.66525e-11
9.77221e-11
0.000154661
-9.73498e-11
9.83801e-11
0.000161181
-9.80363e-11
9.90754e-11
0.000167833
-9.8769e-11
9.97669e-11
0.000174612
-9.94938e-11
1.00497e-10
0.000181509
-1.00266e-10
1.01226e-10
0.000188517
-1.01034e-10
1.01996e-10
0.000195627
-1.0185e-10
1.02767e-10
0.000202829
-1.02665e-10
1.03581e-10
0.000210112
-1.0353e-10
1.04398e-10
0.000217465
-1.04397e-10
1.0526e-10
0.000224875
-1.05314e-10
1.06129e-10
0.000232328
-1.06238e-10
1.07043e-10
0.000239811
-1.07214e-10
1.07968e-10
0.000247309
-1.08199e-10
1.0894e-10
0.000254806
-1.09237e-10
1.09925e-10
0.000262285
-1.10288e-10
1.10959e-10
0.000269731
-1.11393e-10
1.1201e-10
0.000277124
-1.12515e-10
1.1311e-10
0.000284448
-1.1369e-10
1.1423e-10
0.000291685
-1.14886e-10
1.154e-10
0.000298815
-1.16136e-10
1.16592e-10
0.000305821
-1.17409e-10
1.17835e-10
0.000312683
-1.18734e-10
1.19103e-10
0.000319385
-1.20087e-10
1.20421e-10
0.000325907
-1.2149e-10
1.21765e-10
0.000332233
-1.22923e-10
1.2316e-10
0.000338346
-1.24404e-10
1.24581e-10
0.00034423
-1.25917e-10
1.26052e-10
0.000349871
-1.27476e-10
1.27551e-10
0.000355254
-1.29069e-10
1.29098e-10
0.000360368
-1.30705e-10
1.30674e-10
0.000365202
-1.32378e-10
1.32297e-10
0.000369746
-1.3409e-10
1.33949e-10
0.000373993
-1.35842e-10
1.35647e-10
0.000377936
-1.37631e-10
1.37375e-10
0.000381571
-1.39461e-10
1.39149e-10
0.000384897
-1.41328e-10
1.40955e-10
0.000387911
-1.43239e-10
1.42807e-10
0.000390615
-1.45186e-10
1.44693e-10
0.000393011
-1.47181e-10
1.46626e-10
0.000395104
-1.49212e-10
1.48595e-10
0.000396899
-1.51296e-10
1.50615e-10
0.000398402
-1.53417e-10
1.52674e-10
0.000399624
-1.55597e-10
1.54786e-10
0.000400571
-1.57816e-10
1.56942e-10
0.000401255
-1.60099e-10
1.59155e-10
0.000401687
-1.62424e-10
1.61418e-10
0.000401878
-1.64821e-10
1.63742e-10
0.000401842
-1.67265e-10
1.66121e-10
0.000401589
-1.69787e-10
1.68568e-10
0.000401135
-1.7236e-10
1.71077e-10
0.000400491
-1.7502e-10
1.73658e-10
0.00039967
-1.77738e-10
1.7631e-10
0.000398686
-1.80551e-10
1.79042e-10
0.000397552
-1.83427e-10
1.81852e-10
0.00039628
-1.86409e-10
1.8475e-10
0.000394883
-1.89462e-10
1.87735e-10
0.000393371
-1.92631e-10
1.90817e-10
0.000391756
-1.95879e-10
1.93996e-10
0.00039005
-1.99253e-10
1.9728e-10
0.000388261
-2.02717e-10
2.00673e-10
0.0003864
-2.06318e-10
2.04181e-10
0.000384476
-2.10019e-10
2.07811e-10
0.000382497
-2.1387e-10
2.11566e-10
0.00038047
-2.17832e-10
2.15456e-10
0.000378403
-2.21958e-10
2.19483e-10
0.000376303
-2.26208e-10
2.2366e-10
0.000374174
-2.30636e-10
2.27987e-10
0.000372023
-2.35202e-10
2.32479e-10
0.000369854
-2.39962e-10
2.37135e-10
0.000367671
-2.44875e-10
2.41974e-10
0.000365479
-2.5e-10
2.46992e-10
0.00036328
-2.55294e-10
2.52212e-10
0.000361078
-2.60819e-10
2.57628e-10
0.000358876
-2.66531e-10
2.63266e-10
0.000356674
-2.72493e-10
2.69119e-10
0.000354475
-2.78664e-10
2.75216e-10
0.000352281
-2.85107e-10
2.81547e-10
0.000350093
-2.91781e-10
2.88148e-10
0.000347911
-2.9875e-10
2.95005e-10
0.000345738
-3.05975e-10
3.02156e-10
0.000343573
-3.13522e-10
3.0959e-10
0.000341416
-3.21351e-10
3.17346e-10
0.00033927
-3.2953e-10
3.25411e-10
0.000337133
-3.38022e-10
3.3383e-10
0.000335008
-3.46894e-10
3.42587e-10
0.000332893
-3.56112e-10
3.51732e-10
0.00033079
-3.65743e-10
3.61247e-10
0.000328699
-3.75759e-10
3.71188e-10
0.000326622
-3.86221e-10
3.81533e-10
0.000324558
-3.9711e-10
3.92347e-10
0.000322509
-4.08484e-10
4.03602e-10
0.000320476
-4.20331e-10
4.15373e-10
0.000318458
-4.32704e-10
4.27625e-10
0.000316458
-4.45601e-10
4.40446e-10
0.000314476
-4.59068e-10
4.5379e-10
0.000312513
-4.73119e-10
4.67764e-10
0.00031057
-4.87784e-10
4.82304e-10
0.000308649
-5.031e-10
4.97546e-10
0.000306752
-5.19077e-10
5.13398e-10
0.000304879
-5.35784e-10
5.30033e-10
0.000303034
-5.53197e-10
5.47322e-10
0.000301218
-5.71434e-10
5.65492e-10
0.000299433
-5.90417e-10
5.84355e-10
0.000297681
-6.10337e-10
6.04214e-10
0.000295967
-6.31037e-10
6.24803e-10
0.000294291
-6.52814e-10
6.46523e-10
0.000292657
-6.75388e-10
6.68999e-10
0.000291068
-6.99214e-10
6.92772e-10
0.000289527
-7.23834e-10
7.17309e-10
0.000288036
-7.49927e-10
7.43352e-10
0.0002866
-7.76774e-10
7.70134e-10
0.000285219
-8.05378e-10
7.98691e-10
0.000283898
-8.34644e-10
8.27913e-10
0.000282638
-8.66041e-10
8.59261e-10
0.000281439
-8.97923e-10
8.91122e-10
0.000280303
-9.32435e-10
9.25583e-10
0.000279227
-9.67132e-10
9.60285e-10
0.000278211
-1.00514e-09
9.98233e-10
0.00027725
-1.04284e-09
1.03597e-09
0.000276341
-1.08478e-09
1.07785e-09
0.00027548
-1.12566e-09
1.1188e-09
0.000274661
-1.17208e-09
1.16515e-09
0.000273881
-1.21627e-09
1.20944e-09
0.000273135
-1.26782e-09
1.26091e-09
0.000272422
-1.31537e-09
1.30861e-09
0.000271741
-1.37289e-09
1.36603e-09
0.000271092
-1.42373e-09
1.41706e-09
0.000270479
-1.4883e-09
1.4815e-09
0.000269907
-1.54216e-09
1.53559e-09
0.00026938
-1.61519e-09
1.60846e-09
0.000268903
-1.6715e-09
1.66504e-09
0.000268481
-1.75489e-09
1.74825e-09
0.000268118
-1.81256e-09
1.80622e-09
0.000267816
-1.90895e-09
1.90242e-09
0.000267578
-1.96615e-09
1.9597e-09
0.000267404
-2.07922e-09
2.07258e-09
0.000267293
-2.13294e-09
2.12618e-09
0.000267243
-2.26794e-09
2.26104e-09
0.000267248
-2.34984e-09
2.34289e-09
0.000267305
-2.51301e-09
2.50601e-09
0.00026741
-2.64363e-09
2.63666e-09
0.000267557
-2.84166e-09
2.83469e-09
0.000267744
-3.02993e-09
3.02302e-09
0.000267969
-3.26979e-09
3.2629e-09
0.000268232
-3.5253e-09
3.51837e-09
0.000268538
-3.74269e-09
3.73579e-09
0.000268891
-3.997e-09
3.98993e-09
0.000269295
-4.18369e-09
4.17672e-09
0.000269755
-4.43668e-09
4.42936e-09
0.000270271
-4.58964e-09
4.58249e-09
0.000270845
-4.84276e-09
4.83518e-09
0.000271477
-4.96377e-09
4.95645e-09
0.000272166
-5.22056e-09
5.21293e-09
0.000272906
-5.37162e-09
5.36434e-09
0.000273691
-5.63582e-09
5.6283e-09
0.000274505
-5.8164e-09
5.80927e-09
0.000275329
-6.09152e-09
6.08418e-09
0.000276139
-6.30151e-09
6.29457e-09
0.000276907
-6.59083e-09
6.58372e-09
0.000277605
-6.83049e-09
6.82378e-09
0.000278203
-7.13713e-09
7.13029e-09
0.000278678
-7.40702e-09
7.40058e-09
0.00027901
-7.73401e-09
7.72747e-09
0.000279192
-8.035e-09
8.02887e-09
0.000279222
-8.38527e-09
8.37906e-09
0.000279098
-8.71852e-09
8.71273e-09
0.000278815
-9.09495e-09
9.0891e-09
0.000278359
-9.46189e-09
9.45646e-09
0.000277714
-9.86734e-09
9.86188e-09
0.000276857
-1.02696e-08
1.02646e-08
0.000275766
-1.0707e-08
1.0702e-08
0.000274416
-1.11466e-08
1.1142e-08
0.000272786
-1.16189e-08
1.16143e-08
0.00027085
-1.2098e-08
1.20938e-08
0.000268591
-1.26082e-08
1.26041e-08
0.000266001
-1.31293e-08
1.31257e-08
0.000263087
-1.36808e-08
1.36773e-08
0.000259876
-1.4247e-08
1.42439e-08
0.000256404
-1.48433e-08
1.48403e-08
0.000252711
-1.54578e-08
1.54553e-08
0.000248825
-1.61029e-08
1.61005e-08
0.000244756
-1.67693e-08
1.67675e-08
0.000240493
-1.74674e-08
1.74657e-08
0.000235995
-1.819e-08
1.81888e-08
0.000231222
-1.89456e-08
1.89446e-08
0.000226143
-1.9729e-08
1.97285e-08
0.000220759
-2.05472e-08
2.0547e-08
0.000215093
-2.13966e-08
2.13968e-08
0.000209173
-2.22831e-08
2.22836e-08
0.000203026
-2.32042e-08
2.32052e-08
0.000196678
-2.41653e-08
2.41665e-08
0.000190164
-2.51646e-08
2.51664e-08
0.000183529
-2.62071e-08
2.62092e-08
0.000176829
-2.72918e-08
2.72944e-08
0.000170116
-2.84231e-08
2.8426e-08
0.000163403
-2.96007e-08
2.96042e-08
0.000156664
-3.08288e-08
3.08326e-08
0.000149825
-3.21075e-08
3.21119e-08
0.000142784
-3.34408e-08
3.34455e-08
0.000135429
-3.48293e-08
3.48346e-08
0.000127664
-3.62769e-08
3.62825e-08
0.000119395
-3.77849e-08
3.77911e-08
0.000110545
-3.9357e-08
3.93635e-08
0.000101114
-4.09952e-08
4.10024e-08
9.12123e-05
-4.27036e-08
4.2711e-08
8.10527e-05
-4.44845e-08
4.44925e-08
7.08865e-05
-4.63421e-08
4.63505e-08
6.09446e-05
-4.82792e-08
4.82882e-08
5.14374e-05
-5.02998e-08
5.03091e-08
4.25217e-05
-5.24068e-08
5.24167e-08
3.41977e-05
-5.4604e-08
5.46142e-08
2.62562e-05