/*--------------------------------*- C++ -*----------------------------------*\
| =========                 |                                                 |
| \\      /  F ield         | OpenFOAM: The Open Source CFD Toolbox           |
|  \\    /   O peration     | Version:  2012                                  |
|   \\  /    A nd           | Website:  www.openfoam.com                      |
|    \\/     M anipulation  |                                                 |
\*---------------------------------------------------------------------------*/
FoamFile
{
    version     2.0;
    format      ascii;
    class       volVectorField;
    location    "18000";
    object      C;
}
// * * * * * * * * * * * * * * * * * * * * * * * * * * * * * * * * * * * * * //

dimensions      [0 1 0 0 0 0 0];


internalField   nonuniform List<vector> 
5120
(
(0.025 3.62647e-05 0.025)
(0.075 3.62647e-05 0.025)
(0.025 0.000109056 0.025)
(0.075 0.000109056 0.025)
(0.025 0.000182375 0.025)
(0.075 0.000182375 0.025)
(0.025 0.000256223 0.025)
(0.075 0.000256223 0.025)
(0.025 0.000330606 0.025)
(0.075 0.000330606 0.025)
(0.025 0.000405526 0.025)
(0.075 0.000405526 0.025)
(0.025 0.000480989 0.025)
(0.075 0.000480989 0.025)
(0.025 0.000556997 0.025)
(0.075 0.000556997 0.025)
(0.025 0.000633555 0.025)
(0.075 0.000633555 0.025)
(0.025 0.000710667 0.025)
(0.075 0.000710667 0.025)
(0.025 0.000788337 0.025)
(0.075 0.000788337 0.025)
(0.025 0.000866568 0.025)
(0.075 0.000866568 0.025)
(0.025 0.000945365 0.025)
(0.075 0.000945365 0.025)
(0.025 0.00102473 0.025)
(0.075 0.00102473 0.025)
(0.025 0.00110467 0.025)
(0.075 0.00110467 0.025)
(0.025 0.00118519 0.025)
(0.075 0.00118519 0.025)
(0.025 0.00126629 0.025)
(0.075 0.00126629 0.025)
(0.025 0.00134798 0.025)
(0.075 0.00134798 0.025)
(0.025 0.00143026 0.025)
(0.075 0.00143026 0.025)
(0.025 0.00151314 0.025)
(0.075 0.00151314 0.025)
(0.025 0.00159661 0.025)
(0.075 0.00159661 0.025)
(0.025 0.00168069 0.025)
(0.075 0.00168069 0.025)
(0.025 0.00176537 0.025)
(0.075 0.00176537 0.025)
(0.025 0.00185067 0.025)
(0.075 0.00185067 0.025)
(0.025 0.00193659 0.025)
(0.075 0.00193659 0.025)
(0.025 0.00202312 0.025)
(0.075 0.00202312 0.025)
(0.025 0.00211029 0.025)
(0.075 0.00211029 0.025)
(0.025 0.00219808 0.025)
(0.075 0.00219808 0.025)
(0.025 0.00228651 0.025)
(0.075 0.00228651 0.025)
(0.025 0.00237557 0.025)
(0.075 0.00237557 0.025)
(0.025 0.00246529 0.025)
(0.075 0.00246529 0.025)
(0.025 0.00255565 0.025)
(0.075 0.00255565 0.025)
(0.025 0.00264666 0.025)
(0.075 0.00264666 0.025)
(0.025 0.00273833 0.025)
(0.075 0.00273833 0.025)
(0.025 0.00283067 0.025)
(0.075 0.00283067 0.025)
(0.025 0.00292367 0.025)
(0.075 0.00292367 0.025)
(0.025 0.00301735 0.025)
(0.075 0.00301735 0.025)
(0.025 0.0031117 0.025)
(0.075 0.0031117 0.025)
(0.025 0.00320674 0.025)
(0.075 0.00320674 0.025)
(0.025 0.00330246 0.025)
(0.075 0.00330246 0.025)
(0.025 0.00339888 0.025)
(0.075 0.00339888 0.025)
(0.025 0.00349599 0.025)
(0.075 0.00349599 0.025)
(0.025 0.0035938 0.025)
(0.075 0.0035938 0.025)
(0.025 0.00369233 0.025)
(0.075 0.00369233 0.025)
(0.025 0.00379156 0.025)
(0.075 0.00379156 0.025)
(0.025 0.00389152 0.025)
(0.075 0.00389152 0.025)
(0.025 0.00399219 0.025)
(0.075 0.00399219 0.025)
(0.025 0.0040936 0.025)
(0.075 0.0040936 0.025)
(0.025 0.00419573 0.025)
(0.075 0.00419573 0.025)
(0.025 0.00429861 0.025)
(0.075 0.00429861 0.025)
(0.025 0.00440223 0.025)
(0.075 0.00440223 0.025)
(0.025 0.0045066 0.025)
(0.075 0.0045066 0.025)
(0.025 0.00461173 0.025)
(0.075 0.00461173 0.025)
(0.025 0.00471761 0.025)
(0.075 0.00471761 0.025)
(0.025 0.00482426 0.025)
(0.075 0.00482426 0.025)
(0.025 0.00493169 0.025)
(0.075 0.00493169 0.025)
(0.025 0.00503989 0.025)
(0.075 0.00503989 0.025)
(0.025 0.00514887 0.025)
(0.075 0.00514887 0.025)
(0.025 0.00525864 0.025)
(0.075 0.00525864 0.025)
(0.025 0.0053692 0.025)
(0.075 0.0053692 0.025)
(0.025 0.00548057 0.025)
(0.075 0.00548057 0.025)
(0.025 0.00559274 0.025)
(0.075 0.00559274 0.025)
(0.025 0.00570572 0.025)
(0.075 0.00570572 0.025)
(0.025 0.00581952 0.025)
(0.075 0.00581952 0.025)
(0.025 0.00593414 0.025)
(0.075 0.00593414 0.025)
(0.025 0.00604959 0.025)
(0.075 0.00604959 0.025)
(0.025 0.00616587 0.025)
(0.075 0.00616587 0.025)
(0.025 0.006283 0.025)
(0.075 0.006283 0.025)
(0.025 0.00640097 0.025)
(0.075 0.00640097 0.025)
(0.025 0.0065198 0.025)
(0.075 0.0065198 0.025)
(0.025 0.00663949 0.025)
(0.075 0.00663949 0.025)
(0.025 0.00676004 0.025)
(0.075 0.00676004 0.025)
(0.025 0.00688146 0.025)
(0.075 0.00688146 0.025)
(0.025 0.00700376 0.025)
(0.075 0.00700376 0.025)
(0.025 0.00712695 0.025)
(0.075 0.00712695 0.025)
(0.025 0.00725103 0.025)
(0.075 0.00725103 0.025)
(0.025 0.007376 0.025)
(0.075 0.007376 0.025)
(0.025 0.00750188 0.025)
(0.075 0.00750188 0.025)
(0.025 0.00762867 0.025)
(0.075 0.00762867 0.025)
(0.025 0.00775638 0.025)
(0.075 0.00775638 0.025)
(0.025 0.00788501 0.025)
(0.075 0.00788501 0.025)
(0.025 0.00801457 0.025)
(0.075 0.00801457 0.025)
(0.025 0.00814507 0.025)
(0.075 0.00814507 0.025)
(0.025 0.00827651 0.025)
(0.075 0.00827651 0.025)
(0.025 0.0084089 0.025)
(0.075 0.0084089 0.025)
(0.025 0.00854225 0.025)
(0.075 0.00854225 0.025)
(0.025 0.00867656 0.025)
(0.075 0.00867656 0.025)
(0.025 0.00881185 0.025)
(0.075 0.00881185 0.025)
(0.025 0.00894812 0.025)
(0.075 0.00894812 0.025)
(0.025 0.00908537 0.025)
(0.075 0.00908537 0.025)
(0.025 0.00922361 0.025)
(0.075 0.00922361 0.025)
(0.025 0.00936285 0.025)
(0.075 0.00936285 0.025)
(0.025 0.0095031 0.025)
(0.075 0.0095031 0.025)
(0.025 0.00964436 0.025)
(0.075 0.00964436 0.025)
(0.025 0.00978665 0.025)
(0.075 0.00978665 0.025)
(0.025 0.00992996 0.025)
(0.075 0.00992996 0.025)
(0.025 0.0100743 0.025)
(0.075 0.0100743 0.025)
(0.025 0.0102197 0.025)
(0.075 0.0102197 0.025)
(0.025 0.0103662 0.025)
(0.075 0.0103662 0.025)
(0.025 0.0105137 0.025)
(0.075 0.0105137 0.025)
(0.025 0.0106622 0.025)
(0.075 0.0106622 0.025)
(0.025 0.0108119 0.025)
(0.075 0.0108119 0.025)
(0.025 0.0109626 0.025)
(0.075 0.0109626 0.025)
(0.025 0.0111144 0.025)
(0.075 0.0111144 0.025)
(0.025 0.0112674 0.025)
(0.075 0.0112674 0.025)
(0.025 0.0114214 0.025)
(0.075 0.0114214 0.025)
(0.025 0.0115765 0.025)
(0.075 0.0115765 0.025)
(0.025 0.0117328 0.025)
(0.075 0.0117328 0.025)
(0.025 0.0118902 0.025)
(0.075 0.0118902 0.025)
(0.025 0.0120487 0.025)
(0.075 0.0120487 0.025)
(0.025 0.0122084 0.025)
(0.075 0.0122084 0.025)
(0.025 0.0123692 0.025)
(0.075 0.0123692 0.025)
(0.025 0.0125312 0.025)
(0.075 0.0125312 0.025)
(0.025 0.0126944 0.025)
(0.075 0.0126944 0.025)
(0.025 0.0128587 0.025)
(0.075 0.0128587 0.025)
(0.025 0.0130243 0.025)
(0.075 0.0130243 0.025)
(0.025 0.013191 0.025)
(0.075 0.013191 0.025)
(0.025 0.0133589 0.025)
(0.075 0.0133589 0.025)
(0.025 0.0135281 0.025)
(0.075 0.0135281 0.025)
(0.025 0.0136984 0.025)
(0.075 0.0136984 0.025)
(0.025 0.0138701 0.025)
(0.075 0.0138701 0.025)
(0.025 0.0140429 0.025)
(0.075 0.0140429 0.025)
(0.025 0.014217 0.025)
(0.075 0.014217 0.025)
(0.025 0.0143924 0.025)
(0.075 0.0143924 0.025)
(0.025 0.014569 0.025)
(0.075 0.014569 0.025)
(0.025 0.0147469 0.025)
(0.075 0.0147469 0.025)
(0.025 0.0149261 0.025)
(0.075 0.0149261 0.025)
(0.025 0.0151066 0.025)
(0.075 0.0151066 0.025)
(0.025 0.0152884 0.025)
(0.075 0.0152884 0.025)
(0.025 0.0154715 0.025)
(0.075 0.0154715 0.025)
(0.025 0.0156559 0.025)
(0.075 0.0156559 0.025)
(0.025 0.0158417 0.025)
(0.075 0.0158417 0.025)
(0.025 0.0160288 0.025)
(0.075 0.0160288 0.025)
(0.025 0.0162173 0.025)
(0.075 0.0162173 0.025)
(0.025 0.0164071 0.025)
(0.075 0.0164071 0.025)
(0.025 0.0165983 0.025)
(0.075 0.0165983 0.025)
(0.025 0.0167909 0.025)
(0.075 0.0167909 0.025)
(0.025 0.0169848 0.025)
(0.075 0.0169848 0.025)
(0.025 0.0171802 0.025)
(0.075 0.0171802 0.025)
(0.025 0.017377 0.025)
(0.075 0.017377 0.025)
(0.025 0.0175752 0.025)
(0.075 0.0175752 0.025)
(0.025 0.0177749 0.025)
(0.075 0.0177749 0.025)
(0.025 0.017976 0.025)
(0.075 0.017976 0.025)
(0.025 0.0181785 0.025)
(0.075 0.0181785 0.025)
(0.025 0.0183825 0.025)
(0.075 0.0183825 0.025)
(0.025 0.018588 0.025)
(0.075 0.018588 0.025)
(0.025 0.018795 0.025)
(0.075 0.018795 0.025)
(0.025 0.0190035 0.025)
(0.075 0.0190035 0.025)
(0.025 0.0192134 0.025)
(0.075 0.0192134 0.025)
(0.025 0.0194249 0.025)
(0.075 0.0194249 0.025)
(0.025 0.019638 0.025)
(0.075 0.019638 0.025)
(0.025 0.0198525 0.025)
(0.075 0.0198525 0.025)
(0.025 0.0200687 0.025)
(0.075 0.0200687 0.025)
(0.025 0.0202863 0.025)
(0.075 0.0202863 0.025)
(0.025 0.0205056 0.025)
(0.075 0.0205056 0.025)
(0.025 0.0207264 0.025)
(0.075 0.0207264 0.025)
(0.025 0.0209489 0.025)
(0.075 0.0209489 0.025)
(0.025 0.0211729 0.025)
(0.075 0.0211729 0.025)
(0.025 0.0213986 0.025)
(0.075 0.0213986 0.025)
(0.025 0.0216259 0.025)
(0.075 0.0216259 0.025)
(0.025 0.0218548 0.025)
(0.075 0.0218548 0.025)
(0.025 0.0220854 0.025)
(0.075 0.0220854 0.025)
(0.025 0.0223177 0.025)
(0.075 0.0223177 0.025)
(0.025 0.0225517 0.025)
(0.075 0.0225517 0.025)
(0.025 0.0227873 0.025)
(0.075 0.0227873 0.025)
(0.025 0.0230247 0.025)
(0.075 0.0230247 0.025)
(0.025 0.0232637 0.025)
(0.075 0.0232637 0.025)
(0.025 0.0235045 0.025)
(0.075 0.0235045 0.025)
(0.025 0.0237471 0.025)
(0.075 0.0237471 0.025)
(0.025 0.0239913 0.025)
(0.075 0.0239913 0.025)
(0.025 0.0242374 0.025)
(0.075 0.0242374 0.025)
(0.025 0.0244852 0.025)
(0.075 0.0244852 0.025)
(0.025 0.0247349 0.025)
(0.075 0.0247349 0.025)
(0.025 0.0249863 0.025)
(0.075 0.0249863 0.025)
(0.025 0.0252395 0.025)
(0.075 0.0252395 0.025)
(0.025 0.0254946 0.025)
(0.075 0.0254946 0.025)
(0.025 0.0257516 0.025)
(0.075 0.0257516 0.025)
(0.025 0.0260103 0.025)
(0.075 0.0260103 0.025)
(0.025 0.026271 0.025)
(0.075 0.026271 0.025)
(0.025 0.0265335 0.025)
(0.075 0.0265335 0.025)
(0.025 0.026798 0.025)
(0.075 0.026798 0.025)
(0.025 0.0270643 0.025)
(0.075 0.0270643 0.025)
(0.025 0.0273326 0.025)
(0.075 0.0273326 0.025)
(0.025 0.0276029 0.025)
(0.075 0.0276029 0.025)
(0.025 0.027875 0.025)
(0.075 0.027875 0.025)
(0.025 0.0281492 0.025)
(0.075 0.0281492 0.025)
(0.025 0.0284253 0.025)
(0.075 0.0284253 0.025)
(0.025 0.0287034 0.025)
(0.075 0.0287034 0.025)
(0.025 0.0289836 0.025)
(0.075 0.0289836 0.025)
(0.025 0.0292657 0.025)
(0.075 0.0292657 0.025)
(0.025 0.0295499 0.025)
(0.075 0.0295499 0.025)
(0.025 0.0298362 0.025)
(0.075 0.0298362 0.025)
(0.025 0.0301245 0.025)
(0.075 0.0301245 0.025)
(0.025 0.0304149 0.025)
(0.075 0.0304149 0.025)
(0.025 0.0307075 0.025)
(0.075 0.0307075 0.025)
(0.025 0.0310021 0.025)
(0.075 0.0310021 0.025)
(0.025 0.0312989 0.025)
(0.075 0.0312989 0.025)
(0.025 0.0315978 0.025)
(0.075 0.0315978 0.025)
(0.025 0.0318988 0.025)
(0.075 0.0318988 0.025)
(0.025 0.0322021 0.025)
(0.075 0.0322021 0.025)
(0.025 0.0325075 0.025)
(0.075 0.0325075 0.025)
(0.025 0.0328152 0.025)
(0.075 0.0328152 0.025)
(0.025 0.0331251 0.025)
(0.075 0.0331251 0.025)
(0.025 0.0334372 0.025)
(0.075 0.0334372 0.025)
(0.025 0.0337516 0.025)
(0.075 0.0337516 0.025)
(0.025 0.0340682 0.025)
(0.075 0.0340682 0.025)
(0.025 0.0343871 0.025)
(0.075 0.0343871 0.025)
(0.025 0.0347084 0.025)
(0.075 0.0347084 0.025)
(0.025 0.035032 0.025)
(0.075 0.035032 0.025)
(0.025 0.0353579 0.025)
(0.075 0.0353579 0.025)
(0.025 0.0356861 0.025)
(0.075 0.0356861 0.025)
(0.025 0.0360168 0.025)
(0.075 0.0360168 0.025)
(0.025 0.0363498 0.025)
(0.075 0.0363498 0.025)
(0.025 0.0366853 0.025)
(0.075 0.0366853 0.025)
(0.025 0.0370231 0.025)
(0.075 0.0370231 0.025)
(0.025 0.0373634 0.025)
(0.075 0.0373634 0.025)
(0.025 0.0377062 0.025)
(0.075 0.0377062 0.025)
(0.025 0.0380515 0.025)
(0.075 0.0380515 0.025)
(0.025 0.0383992 0.025)
(0.075 0.0383992 0.025)
(0.025 0.0387495 0.025)
(0.075 0.0387495 0.025)
(0.025 0.0391023 0.025)
(0.075 0.0391023 0.025)
(0.025 0.0394576 0.025)
(0.075 0.0394576 0.025)
(0.025 0.0398156 0.025)
(0.075 0.0398156 0.025)
(0.025 0.0401761 0.025)
(0.075 0.0401761 0.025)
(0.025 0.0405392 0.025)
(0.075 0.0405392 0.025)
(0.025 0.0409049 0.025)
(0.075 0.0409049 0.025)
(0.025 0.0412733 0.025)
(0.075 0.0412733 0.025)
(0.025 0.0416444 0.025)
(0.075 0.0416444 0.025)
(0.025 0.0420181 0.025)
(0.075 0.0420181 0.025)
(0.025 0.0423946 0.025)
(0.075 0.0423946 0.025)
(0.025 0.0427737 0.025)
(0.075 0.0427737 0.025)
(0.025 0.0431556 0.025)
(0.075 0.0431556 0.025)
(0.025 0.0435403 0.025)
(0.075 0.0435403 0.025)
(0.025 0.0439277 0.025)
(0.075 0.0439277 0.025)
(0.025 0.044318 0.025)
(0.075 0.044318 0.025)
(0.025 0.0447111 0.025)
(0.075 0.0447111 0.025)
(0.025 0.045107 0.025)
(0.075 0.045107 0.025)
(0.025 0.0455058 0.025)
(0.075 0.0455058 0.025)
(0.025 0.0459074 0.025)
(0.075 0.0459074 0.025)
(0.025 0.046312 0.025)
(0.075 0.046312 0.025)
(0.025 0.0467195 0.025)
(0.075 0.0467195 0.025)
(0.025 0.04713 0.025)
(0.075 0.04713 0.025)
(0.025 0.0475434 0.025)
(0.075 0.0475434 0.025)
(0.025 0.0479598 0.025)
(0.075 0.0479598 0.025)
(0.025 0.0483792 0.025)
(0.075 0.0483792 0.025)
(0.025 0.0488016 0.025)
(0.075 0.0488016 0.025)
(0.025 0.0492271 0.025)
(0.075 0.0492271 0.025)
(0.025 0.0496557 0.025)
(0.075 0.0496557 0.025)
(0.025 0.0500874 0.025)
(0.075 0.0500874 0.025)
(0.025 0.0505222 0.025)
(0.075 0.0505222 0.025)
(0.025 0.0509602 0.025)
(0.075 0.0509602 0.025)
(0.025 0.0514013 0.025)
(0.075 0.0514013 0.025)
(0.025 0.0518456 0.025)
(0.075 0.0518456 0.025)
(0.025 0.0522931 0.025)
(0.075 0.0522931 0.025)
(0.025 0.0527439 0.025)
(0.075 0.0527439 0.025)
(0.025 0.0531979 0.025)
(0.075 0.0531979 0.025)
(0.025 0.0536552 0.025)
(0.075 0.0536552 0.025)
(0.025 0.0541158 0.025)
(0.075 0.0541158 0.025)
(0.025 0.0545797 0.025)
(0.075 0.0545797 0.025)
(0.025 0.055047 0.025)
(0.075 0.055047 0.025)
(0.025 0.0555177 0.025)
(0.075 0.0555177 0.025)
(0.025 0.0559918 0.025)
(0.075 0.0559918 0.025)
(0.025 0.0564693 0.025)
(0.075 0.0564693 0.025)
(0.025 0.0569503 0.025)
(0.075 0.0569503 0.025)
(0.025 0.0574347 0.025)
(0.075 0.0574347 0.025)
(0.025 0.0579227 0.025)
(0.075 0.0579227 0.025)
(0.025 0.0584141 0.025)
(0.075 0.0584141 0.025)
(0.025 0.0589092 0.025)
(0.075 0.0589092 0.025)
(0.025 0.0594078 0.025)
(0.075 0.0594078 0.025)
(0.025 0.05991 0.025)
(0.075 0.05991 0.025)
(0.025 0.0604159 0.025)
(0.075 0.0604159 0.025)
(0.025 0.0609254 0.025)
(0.075 0.0609254 0.025)
(0.025 0.0614386 0.025)
(0.075 0.0614386 0.025)
(0.025 0.0619555 0.025)
(0.075 0.0619555 0.025)
(0.025 0.0624761 0.025)
(0.075 0.0624761 0.025)
(0.025 0.0630005 0.025)
(0.075 0.0630005 0.025)
(0.025 0.0635287 0.025)
(0.075 0.0635287 0.025)
(0.025 0.0640608 0.025)
(0.075 0.0640608 0.025)
(0.025 0.0645966 0.025)
(0.075 0.0645966 0.025)
(0.025 0.0651364 0.025)
(0.075 0.0651364 0.025)
(0.025 0.06568 0.025)
(0.075 0.06568 0.025)
(0.025 0.0662276 0.025)
(0.075 0.0662276 0.025)
(0.025 0.0667792 0.025)
(0.075 0.0667792 0.025)
(0.025 0.0673347 0.025)
(0.075 0.0673347 0.025)
(0.025 0.0678942 0.025)
(0.075 0.0678942 0.025)
(0.025 0.0684578 0.025)
(0.075 0.0684578 0.025)
(0.025 0.0690255 0.025)
(0.075 0.0690255 0.025)
(0.025 0.0695973 0.025)
(0.075 0.0695973 0.025)
(0.025 0.0701732 0.025)
(0.075 0.0701732 0.025)
(0.025 0.0707533 0.025)
(0.075 0.0707533 0.025)
(0.025 0.0713376 0.025)
(0.075 0.0713376 0.025)
(0.025 0.0719261 0.025)
(0.075 0.0719261 0.025)
(0.025 0.0725189 0.025)
(0.075 0.0725189 0.025)
(0.025 0.0731159 0.025)
(0.075 0.0731159 0.025)
(0.025 0.0737173 0.025)
(0.075 0.0737173 0.025)
(0.025 0.074323 0.025)
(0.075 0.074323 0.025)
(0.025 0.0749331 0.025)
(0.075 0.0749331 0.025)
(0.025 0.0755476 0.025)
(0.075 0.0755476 0.025)
(0.025 0.0761665 0.025)
(0.075 0.0761665 0.025)
(0.025 0.07679 0.025)
(0.075 0.07679 0.025)
(0.025 0.0774179 0.025)
(0.075 0.0774179 0.025)
(0.025 0.0780504 0.025)
(0.075 0.0780504 0.025)
(0.025 0.0786875 0.025)
(0.075 0.0786875 0.025)
(0.025 0.0793291 0.025)
(0.075 0.0793291 0.025)
(0.025 0.0799754 0.025)
(0.075 0.0799754 0.025)
(0.025 0.0806264 0.025)
(0.075 0.0806264 0.025)
(0.025 0.0812821 0.025)
(0.075 0.0812821 0.025)
(0.025 0.0819425 0.025)
(0.075 0.0819425 0.025)
(0.025 0.0826077 0.025)
(0.075 0.0826077 0.025)
(0.025 0.0832778 0.025)
(0.075 0.0832778 0.025)
(0.025 0.0839526 0.025)
(0.075 0.0839526 0.025)
(0.025 0.0846324 0.025)
(0.075 0.0846324 0.025)
(0.025 0.085317 0.025)
(0.075 0.085317 0.025)
(0.025 0.0860067 0.025)
(0.075 0.0860067 0.025)
(0.025 0.0867013 0.025)
(0.075 0.0867013 0.025)
(0.025 0.0874009 0.025)
(0.075 0.0874009 0.025)
(0.025 0.0881056 0.025)
(0.075 0.0881056 0.025)
(0.025 0.0888154 0.025)
(0.075 0.0888154 0.025)
(0.025 0.0895303 0.025)
(0.075 0.0895303 0.025)
(0.025 0.0902504 0.025)
(0.075 0.0902504 0.025)
(0.025 0.0909757 0.025)
(0.075 0.0909757 0.025)
(0.025 0.0917062 0.025)
(0.075 0.0917062 0.025)
(0.025 0.0924421 0.025)
(0.075 0.0924421 0.025)
(0.025 0.0931832 0.025)
(0.075 0.0931832 0.025)
(0.025 0.0939297 0.025)
(0.075 0.0939297 0.025)
(0.025 0.0946816 0.025)
(0.075 0.0946816 0.025)
(0.025 0.095439 0.025)
(0.075 0.095439 0.025)
(0.025 0.0962018 0.025)
(0.075 0.0962018 0.025)
(0.025 0.0969702 0.025)
(0.075 0.0969702 0.025)
(0.025 0.0977441 0.025)
(0.075 0.0977441 0.025)
(0.025 0.0985236 0.025)
(0.075 0.0985236 0.025)
(0.025 0.0993087 0.025)
(0.075 0.0993087 0.025)
(0.025 0.1001 0.025)
(0.075 0.1001 0.025)
(0.025 0.100896 0.025)
(0.075 0.100896 0.025)
(0.025 0.101698 0.025)
(0.075 0.101698 0.025)
(0.025 0.102506 0.025)
(0.075 0.102506 0.025)
(0.025 0.10332 0.025)
(0.075 0.10332 0.025)
(0.025 0.10414 0.025)
(0.075 0.10414 0.025)
(0.025 0.104966 0.025)
(0.075 0.104966 0.025)
(0.025 0.105798 0.025)
(0.075 0.105798 0.025)
(0.025 0.106635 0.025)
(0.075 0.106635 0.025)
(0.025 0.107479 0.025)
(0.075 0.107479 0.025)
(0.025 0.108329 0.025)
(0.075 0.108329 0.025)
(0.025 0.109185 0.025)
(0.075 0.109185 0.025)
(0.025 0.110048 0.025)
(0.075 0.110048 0.025)
(0.025 0.110916 0.025)
(0.075 0.110916 0.025)
(0.025 0.111791 0.025)
(0.075 0.111791 0.025)
(0.025 0.112672 0.025)
(0.075 0.112672 0.025)
(0.025 0.113559 0.025)
(0.075 0.113559 0.025)
(0.025 0.114453 0.025)
(0.075 0.114453 0.025)
(0.025 0.115354 0.025)
(0.075 0.115354 0.025)
(0.025 0.11626 0.025)
(0.075 0.11626 0.025)
(0.025 0.117174 0.025)
(0.075 0.117174 0.025)
(0.025 0.118094 0.025)
(0.075 0.118094 0.025)
(0.025 0.119021 0.025)
(0.075 0.119021 0.025)
(0.025 0.119954 0.025)
(0.075 0.119954 0.025)
(0.025 0.120894 0.025)
(0.075 0.120894 0.025)
(0.025 0.121841 0.025)
(0.075 0.121841 0.025)
(0.025 0.122795 0.025)
(0.075 0.122795 0.025)
(0.025 0.123756 0.025)
(0.075 0.123756 0.025)
(0.025 0.124723 0.025)
(0.075 0.124723 0.025)
(0.025 0.125698 0.025)
(0.075 0.125698 0.025)
(0.025 0.126679 0.025)
(0.075 0.126679 0.025)
(0.025 0.127668 0.025)
(0.075 0.127668 0.025)
(0.025 0.128664 0.025)
(0.075 0.128664 0.025)
(0.025 0.129667 0.025)
(0.075 0.129667 0.025)
(0.025 0.130678 0.025)
(0.075 0.130678 0.025)
(0.025 0.131695 0.025)
(0.075 0.131695 0.025)
(0.025 0.132721 0.025)
(0.075 0.132721 0.025)
(0.025 0.133753 0.025)
(0.075 0.133753 0.025)
(0.025 0.134793 0.025)
(0.075 0.134793 0.025)
(0.025 0.13584 0.025)
(0.075 0.13584 0.025)
(0.025 0.136895 0.025)
(0.075 0.136895 0.025)
(0.025 0.137958 0.025)
(0.075 0.137958 0.025)
(0.025 0.139029 0.025)
(0.075 0.139029 0.025)
(0.025 0.140107 0.025)
(0.075 0.140107 0.025)
(0.025 0.141193 0.025)
(0.075 0.141193 0.025)
(0.025 0.142286 0.025)
(0.075 0.142286 0.025)
(0.025 0.143388 0.025)
(0.075 0.143388 0.025)
(0.025 0.144498 0.025)
(0.075 0.144498 0.025)
(0.025 0.145615 0.025)
(0.075 0.145615 0.025)
(0.025 0.146741 0.025)
(0.075 0.146741 0.025)
(0.025 0.147875 0.025)
(0.075 0.147875 0.025)
(0.025 0.149017 0.025)
(0.075 0.149017 0.025)
(0.025 0.150167 0.025)
(0.075 0.150167 0.025)
(0.025 0.151326 0.025)
(0.075 0.151326 0.025)
(0.025 0.152493 0.025)
(0.075 0.152493 0.025)
(0.025 0.153669 0.025)
(0.075 0.153669 0.025)
(0.025 0.154853 0.025)
(0.075 0.154853 0.025)
(0.025 0.156045 0.025)
(0.075 0.156045 0.025)
(0.025 0.157246 0.025)
(0.075 0.157246 0.025)
(0.025 0.158456 0.025)
(0.075 0.158456 0.025)
(0.025 0.159675 0.025)
(0.075 0.159675 0.025)
(0.025 0.160902 0.025)
(0.075 0.160902 0.025)
(0.025 0.162139 0.025)
(0.075 0.162139 0.025)
(0.025 0.163384 0.025)
(0.075 0.163384 0.025)
(0.025 0.164638 0.025)
(0.075 0.164638 0.025)
(0.025 0.165901 0.025)
(0.075 0.165901 0.025)
(0.025 0.167174 0.025)
(0.075 0.167174 0.025)
(0.025 0.168456 0.025)
(0.075 0.168456 0.025)
(0.025 0.169746 0.025)
(0.075 0.169746 0.025)
(0.025 0.171047 0.025)
(0.075 0.171047 0.025)
(0.025 0.172356 0.025)
(0.075 0.172356 0.025)
(0.025 0.173676 0.025)
(0.075 0.173676 0.025)
(0.025 0.175004 0.025)
(0.075 0.175004 0.025)
(0.025 0.176343 0.025)
(0.075 0.176343 0.025)
(0.025 0.177691 0.025)
(0.075 0.177691 0.025)
(0.025 0.179048 0.025)
(0.075 0.179048 0.025)
(0.025 0.180416 0.025)
(0.075 0.180416 0.025)
(0.025 0.181793 0.025)
(0.075 0.181793 0.025)
(0.025 0.183181 0.025)
(0.075 0.183181 0.025)
(0.025 0.184578 0.025)
(0.075 0.184578 0.025)
(0.025 0.185986 0.025)
(0.075 0.185986 0.025)
(0.025 0.187404 0.025)
(0.075 0.187404 0.025)
(0.025 0.188832 0.025)
(0.075 0.188832 0.025)
(0.025 0.19027 0.025)
(0.075 0.19027 0.025)
(0.025 0.191719 0.025)
(0.075 0.191719 0.025)
(0.025 0.193178 0.025)
(0.075 0.193178 0.025)
(0.025 0.194648 0.025)
(0.075 0.194648 0.025)
(0.025 0.196128 0.025)
(0.075 0.196128 0.025)
(0.025 0.197619 0.025)
(0.075 0.197619 0.025)
(0.025 0.199121 0.025)
(0.075 0.199121 0.025)
(0.025 0.200634 0.025)
(0.075 0.200634 0.025)
(0.025 0.202157 0.025)
(0.075 0.202157 0.025)
(0.025 0.203692 0.025)
(0.075 0.203692 0.025)
(0.025 0.205238 0.025)
(0.075 0.205238 0.025)
(0.025 0.206795 0.025)
(0.075 0.206795 0.025)
(0.025 0.208363 0.025)
(0.075 0.208363 0.025)
(0.025 0.209943 0.025)
(0.075 0.209943 0.025)
(0.025 0.211534 0.025)
(0.075 0.211534 0.025)
(0.025 0.213136 0.025)
(0.075 0.213136 0.025)
(0.025 0.21475 0.025)
(0.075 0.21475 0.025)
(0.025 0.216376 0.025)
(0.075 0.216376 0.025)
(0.025 0.218014 0.025)
(0.075 0.218014 0.025)
(0.025 0.219663 0.025)
(0.075 0.219663 0.025)
(0.025 0.221324 0.025)
(0.075 0.221324 0.025)
(0.025 0.222998 0.025)
(0.075 0.222998 0.025)
(0.025 0.224683 0.025)
(0.075 0.224683 0.025)
(0.025 0.226381 0.025)
(0.075 0.226381 0.025)
(0.025 0.228091 0.025)
(0.075 0.228091 0.025)
(0.025 0.229813 0.025)
(0.075 0.229813 0.025)
(0.025 0.231548 0.025)
(0.075 0.231548 0.025)
(0.025 0.233295 0.025)
(0.075 0.233295 0.025)
(0.025 0.235055 0.025)
(0.075 0.235055 0.025)
(0.025 0.236828 0.025)
(0.075 0.236828 0.025)
(0.025 0.238613 0.025)
(0.075 0.238613 0.025)
(0.025 0.240411 0.025)
(0.075 0.240411 0.025)
(0.025 0.242223 0.025)
(0.075 0.242223 0.025)
(0.025 0.244047 0.025)
(0.075 0.244047 0.025)
(0.025 0.245885 0.025)
(0.075 0.245885 0.025)
(0.025 0.247736 0.025)
(0.075 0.247736 0.025)
(0.025 0.2496 0.025)
(0.075 0.2496 0.025)
(0.025 0.251478 0.025)
(0.075 0.251478 0.025)
(0.025 0.25337 0.025)
(0.075 0.25337 0.025)
(0.025 0.255275 0.025)
(0.075 0.255275 0.025)
(0.025 0.257194 0.025)
(0.075 0.257194 0.025)
(0.025 0.259126 0.025)
(0.075 0.259126 0.025)
(0.025 0.261073 0.025)
(0.075 0.261073 0.025)
(0.025 0.263034 0.025)
(0.075 0.263034 0.025)
(0.025 0.265009 0.025)
(0.075 0.265009 0.025)
(0.025 0.266998 0.025)
(0.075 0.266998 0.025)
(0.025 0.269002 0.025)
(0.075 0.269002 0.025)
(0.025 0.27102 0.025)
(0.075 0.27102 0.025)
(0.025 0.273053 0.025)
(0.075 0.273053 0.025)
(0.025 0.275101 0.025)
(0.075 0.275101 0.025)
(0.025 0.277163 0.025)
(0.075 0.277163 0.025)
(0.025 0.27924 0.025)
(0.075 0.27924 0.025)
(0.025 0.281332 0.025)
(0.075 0.281332 0.025)
(0.025 0.28344 0.025)
(0.075 0.28344 0.025)
(0.025 0.285562 0.025)
(0.075 0.285562 0.025)
(0.025 0.2877 0.025)
(0.075 0.2877 0.025)
(0.025 0.289854 0.025)
(0.075 0.289854 0.025)
(0.025 0.292023 0.025)
(0.075 0.292023 0.025)
(0.025 0.294207 0.025)
(0.075 0.294207 0.025)
(0.025 0.296408 0.025)
(0.075 0.296408 0.025)
(0.025 0.298624 0.025)
(0.075 0.298624 0.025)
(0.025 0.300857 0.025)
(0.075 0.300857 0.025)
(0.025 0.303105 0.025)
(0.075 0.303105 0.025)
(0.025 0.30537 0.025)
(0.075 0.30537 0.025)
(0.025 0.307651 0.025)
(0.075 0.307651 0.025)
(0.025 0.309949 0.025)
(0.075 0.309949 0.025)
(0.025 0.312263 0.025)
(0.075 0.312263 0.025)
(0.025 0.314595 0.025)
(0.075 0.314595 0.025)
(0.025 0.316943 0.025)
(0.075 0.316943 0.025)
(0.025 0.319307 0.025)
(0.075 0.319307 0.025)
(0.025 0.321689 0.025)
(0.075 0.321689 0.025)
(0.025 0.324089 0.025)
(0.075 0.324089 0.025)
(0.025 0.326505 0.025)
(0.075 0.326505 0.025)
(0.025 0.328939 0.025)
(0.075 0.328939 0.025)
(0.025 0.331391 0.025)
(0.075 0.331391 0.025)
(0.025 0.333861 0.025)
(0.075 0.333861 0.025)
(0.025 0.336348 0.025)
(0.075 0.336348 0.025)
(0.025 0.338853 0.025)
(0.075 0.338853 0.025)
(0.025 0.341377 0.025)
(0.075 0.341377 0.025)
(0.025 0.343918 0.025)
(0.075 0.343918 0.025)
(0.025 0.346478 0.025)
(0.075 0.346478 0.025)
(0.025 0.349057 0.025)
(0.075 0.349057 0.025)
(0.025 0.351654 0.025)
(0.075 0.351654 0.025)
(0.025 0.35427 0.025)
(0.075 0.35427 0.025)
(0.025 0.356905 0.025)
(0.075 0.356905 0.025)
(0.025 0.359559 0.025)
(0.075 0.359559 0.025)
(0.025 0.362232 0.025)
(0.075 0.362232 0.025)
(0.025 0.364925 0.025)
(0.075 0.364925 0.025)
(0.025 0.367637 0.025)
(0.075 0.367637 0.025)
(0.025 0.370368 0.025)
(0.075 0.370368 0.025)
(0.025 0.37312 0.025)
(0.075 0.37312 0.025)
(0.025 0.375891 0.025)
(0.075 0.375891 0.025)
(0.025 0.378682 0.025)
(0.075 0.378682 0.025)
(0.025 0.381494 0.025)
(0.075 0.381494 0.025)
(0.025 0.384325 0.025)
(0.075 0.384325 0.025)
(0.025 0.387178 0.025)
(0.075 0.387178 0.025)
(0.025 0.390051 0.025)
(0.075 0.390051 0.025)
(0.025 0.392944 0.025)
(0.075 0.392944 0.025)
(0.025 0.395859 0.025)
(0.075 0.395859 0.025)
(0.025 0.398795 0.025)
(0.075 0.398795 0.025)
(0.025 0.401752 0.025)
(0.075 0.401752 0.025)
(0.025 0.40473 0.025)
(0.075 0.40473 0.025)
(0.025 0.40773 0.025)
(0.075 0.40773 0.025)
(0.025 0.410752 0.025)
(0.075 0.410752 0.025)
(0.025 0.413795 0.025)
(0.075 0.413795 0.025)
(0.025 0.416861 0.025)
(0.075 0.416861 0.025)
(0.025 0.419948 0.025)
(0.075 0.419948 0.025)
(0.025 0.423058 0.025)
(0.075 0.423058 0.025)
(0.025 0.426191 0.025)
(0.075 0.426191 0.025)
(0.025 0.429346 0.025)
(0.075 0.429346 0.025)
(0.025 0.432524 0.025)
(0.075 0.432524 0.025)
(0.025 0.435725 0.025)
(0.075 0.435725 0.025)
(0.025 0.438949 0.025)
(0.075 0.438949 0.025)
(0.025 0.442196 0.025)
(0.075 0.442196 0.025)
(0.025 0.445467 0.025)
(0.075 0.445467 0.025)
(0.025 0.448761 0.025)
(0.075 0.448761 0.025)
(0.025 0.45208 0.025)
(0.075 0.45208 0.025)
(0.025 0.455422 0.025)
(0.075 0.455422 0.025)
(0.025 0.458789 0.025)
(0.075 0.458789 0.025)
(0.025 0.46218 0.025)
(0.075 0.46218 0.025)
(0.025 0.465595 0.025)
(0.075 0.465595 0.025)
(0.025 0.469035 0.025)
(0.075 0.469035 0.025)
(0.025 0.4725 0.025)
(0.075 0.4725 0.025)
(0.025 0.47599 0.025)
(0.075 0.47599 0.025)
(0.025 0.479505 0.025)
(0.075 0.479505 0.025)
(0.025 0.483046 0.025)
(0.075 0.483046 0.025)
(0.025 0.486613 0.025)
(0.075 0.486613 0.025)
(0.025 0.490205 0.025)
(0.075 0.490205 0.025)
(0.025 0.493823 0.025)
(0.075 0.493823 0.025)
(0.025 0.497467 0.025)
(0.075 0.497467 0.025)
(0.025 0.501138 0.025)
(0.075 0.501138 0.025)
(0.025 0.504835 0.025)
(0.075 0.504835 0.025)
(0.025 0.508559 0.025)
(0.075 0.508559 0.025)
(0.025 0.51231 0.025)
(0.075 0.51231 0.025)
(0.025 0.516088 0.025)
(0.075 0.516088 0.025)
(0.025 0.519893 0.025)
(0.075 0.519893 0.025)
(0.025 0.523726 0.025)
(0.075 0.523726 0.025)
(0.025 0.527586 0.025)
(0.075 0.527586 0.025)
(0.025 0.531475 0.025)
(0.075 0.531475 0.025)
(0.025 0.535392 0.025)
(0.075 0.535392 0.025)
(0.025 0.539336 0.025)
(0.075 0.539336 0.025)
(0.025 0.54331 0.025)
(0.075 0.54331 0.025)
(0.025 0.547312 0.025)
(0.075 0.547312 0.025)
(0.025 0.551343 0.025)
(0.075 0.551343 0.025)
(0.025 0.555404 0.025)
(0.075 0.555404 0.025)
(0.025 0.559493 0.025)
(0.075 0.559493 0.025)
(0.025 0.563613 0.025)
(0.075 0.563613 0.025)
(0.025 0.567762 0.025)
(0.075 0.567762 0.025)
(0.025 0.571941 0.025)
(0.075 0.571941 0.025)
(0.025 0.57615 0.025)
(0.075 0.57615 0.025)
(0.025 0.58039 0.025)
(0.075 0.58039 0.025)
(0.025 0.58466 0.025)
(0.075 0.58466 0.025)
(0.025 0.588962 0.025)
(0.075 0.588962 0.025)
(0.025 0.593294 0.025)
(0.075 0.593294 0.025)
(0.025 0.597658 0.025)
(0.075 0.597658 0.025)
(0.025 0.602053 0.025)
(0.075 0.602053 0.025)
(0.025 0.60648 0.025)
(0.075 0.60648 0.025)
(0.025 0.610939 0.025)
(0.075 0.610939 0.025)
(0.025 0.615431 0.025)
(0.075 0.615431 0.025)
(0.025 0.619954 0.025)
(0.075 0.619954 0.025)
(0.025 0.624511 0.025)
(0.075 0.624511 0.025)
(0.025 0.629101 0.025)
(0.075 0.629101 0.025)
(0.025 0.633723 0.025)
(0.075 0.633723 0.025)
(0.025 0.63838 0.025)
(0.075 0.63838 0.025)
(0.025 0.643069 0.025)
(0.075 0.643069 0.025)
(0.025 0.647793 0.025)
(0.075 0.647793 0.025)
(0.025 0.652551 0.025)
(0.075 0.652551 0.025)
(0.025 0.657343 0.025)
(0.075 0.657343 0.025)
(0.025 0.66217 0.025)
(0.075 0.66217 0.025)
(0.025 0.667032 0.025)
(0.075 0.667032 0.025)
(0.025 0.671929 0.025)
(0.075 0.671929 0.025)
(0.025 0.676862 0.025)
(0.075 0.676862 0.025)
(0.025 0.68183 0.025)
(0.075 0.68183 0.025)
(0.025 0.686834 0.025)
(0.075 0.686834 0.025)
(0.025 0.691875 0.025)
(0.075 0.691875 0.025)
(0.025 0.696951 0.025)
(0.075 0.696951 0.025)
(0.025 0.702065 0.025)
(0.075 0.702065 0.025)
(0.025 0.707215 0.025)
(0.075 0.707215 0.025)
(0.025 0.712403 0.025)
(0.075 0.712403 0.025)
(0.025 0.717628 0.025)
(0.075 0.717628 0.025)
(0.025 0.722891 0.025)
(0.075 0.722891 0.025)
(0.025 0.728192 0.025)
(0.075 0.728192 0.025)
(0.025 0.733532 0.025)
(0.075 0.733532 0.025)
(0.025 0.73891 0.025)
(0.075 0.73891 0.025)
(0.025 0.744327 0.025)
(0.075 0.744327 0.025)
(0.025 0.749783 0.025)
(0.075 0.749783 0.025)
(0.025 0.755279 0.025)
(0.075 0.755279 0.025)
(0.025 0.760814 0.025)
(0.075 0.760814 0.025)
(0.025 0.766389 0.025)
(0.075 0.766389 0.025)
(0.025 0.772005 0.025)
(0.075 0.772005 0.025)
(0.025 0.777661 0.025)
(0.075 0.777661 0.025)
(0.025 0.783359 0.025)
(0.075 0.783359 0.025)
(0.025 0.789097 0.025)
(0.075 0.789097 0.025)
(0.025 0.794877 0.025)
(0.075 0.794877 0.025)
(0.025 0.800699 0.025)
(0.075 0.800699 0.025)
(0.025 0.806563 0.025)
(0.075 0.806563 0.025)
(0.025 0.812469 0.025)
(0.075 0.812469 0.025)
(0.025 0.818418 0.025)
(0.075 0.818418 0.025)
(0.025 0.82441 0.025)
(0.075 0.82441 0.025)
(0.025 0.830446 0.025)
(0.075 0.830446 0.025)
(0.025 0.836525 0.025)
(0.075 0.836525 0.025)
(0.025 0.842648 0.025)
(0.075 0.842648 0.025)
(0.025 0.848815 0.025)