/*--------------------------------*- C++ -*----------------------------------*\
| =========                 |                                                 |
| \\      /  F ield         | OpenFOAM: The Open Source CFD Toolbox           |
|  \\    /   O peration     | Version:  2012                                  |
|   \\  /    A nd           | Website:  www.openfoam.com                      |
|    \\/     M anipulation  |                                                 |
\*---------------------------------------------------------------------------*/
FoamFile
{
    version     2.0;
    format      ascii;
    class       surfaceScalarField;
    location    "18000";
    object      phi;
}
// * * * * * * * * * * * * * * * * * * * * * * * * * * * * * * * * * * * * * //

dimensions      [0 3 -1 0 0 0 0];
oriented        oriented;


internalField   nonuniform List<scalar> 
10236
(
4.05108e-09
-9.38621e-18
-6.86693e-23
-1.58324e-22
5.57342e-24
1.22705e-08
-9.38645e-18
9.97824e-23
-7.19841e-23
4.53374e-23
2.06683e-08
-9.38669e-18
1.0171e-22
1.99146e-23
4.63232e-23
2.92474e-08
-9.38693e-18
1.00496e-22
1.04344e-22
4.73274e-23
3.8011e-08
-9.38717e-18
9.92555e-23
1.87691e-22
4.835e-23
4.69624e-08
-9.38739e-18
9.80594e-23
2.63268e-22
4.93912e-23
5.61048e-08
-9.38761e-18
9.6747e-23
3.34812e-22
5.0451e-23
6.54414e-08
-9.38783e-18
9.53117e-23
4.11733e-22
5.15299e-23
7.49757e-08
-9.38802e-18
9.37844e-23
4.59791e-22
5.2628e-23
8.47111e-08
-9.38823e-18
9.21798e-23
5.1079e-22
5.37457e-23
9.46509e-08
-9.38846e-18
9.04998e-23
5.86913e-22
5.48831e-23
1.04799e-07
-9.38863e-18
8.87428e-23
6.21764e-22
5.60406e-23
1.15158e-07
-9.38882e-18
8.69064e-23
6.59471e-22
5.72184e-23
1.25733e-07
-9.38901e-18
8.49885e-23
6.68372e-22
5.84169e-23
1.36527e-07
-9.3891e-18
8.29869e-23
6.6789e-22
5.96363e-23
1.47543e-07
-9.38923e-18
8.08995e-23
7.18441e-22
6.08769e-23
1.58786e-07
-9.38938e-18
7.87241e-23
7.34665e-22
6.21388e-23
1.70259e-07
-9.38952e-18
7.64591e-23
7.45302e-22
6.34223e-23
1.81967e-07
-9.38962e-18
7.41019e-23
7.5846e-22
6.47277e-23
1.93913e-07
-9.38975e-18
7.16503e-23
7.53116e-22
6.60552e-23
2.06101e-07
-9.3899e-18
6.91023e-23
7.82663e-22
6.74052e-23
2.18536e-07
-9.39e-18
6.64553e-23
7.54229e-22
6.8778e-23
2.31222e-07
-9.3901e-18
6.3707e-23
6.91223e-22
7.01741e-23
2.44162e-07
-9.39025e-18
6.08546e-23
6.0821e-22
7.15939e-23
2.57362e-07
-9.39036e-18
5.78962e-23
5.95436e-22
7.30374e-23
2.70825e-07
-9.39044e-18
5.48291e-23
5.28873e-22
7.4505e-23
2.84556e-07
-9.39044e-18
5.16505e-23
4.69834e-22
7.59973e-23
2.9856e-07
-9.3905e-18
4.83576e-23
3.76293e-22
7.75145e-23
3.12841e-07
-9.39049e-18
4.49483e-23
2.43111e-22
7.90568e-23
3.27404e-07
-9.39042e-18
4.14196e-23
3.88414e-23
8.06248e-23
3.42253e-07
-9.39039e-18
3.77688e-23
-6.03753e-23
8.22181e-23
3.57393e-07
-9.39037e-18
3.39934e-23
-1.60356e-22
8.38368e-23
3.72829e-07
-9.3904e-18
3.00905e-23
-2.78207e-22
8.54815e-23
3.88567e-07
-9.39039e-18
2.60573e-23
-3.28524e-22
8.7152e-23
4.0461e-07
-9.39023e-18
2.18908e-23
-5.4639e-22
8.88482e-23
4.20964e-07
-9.3901e-18
1.7588e-23
-7.08995e-22
9.05712e-23
4.37634e-07
-9.38993e-18
1.3146e-23
-9.59472e-22
9.23209e-23
4.54625e-07
-9.38978e-18
8.56113e-24
-1.10797e-21
9.40973e-23
4.71942e-07
-9.38961e-18
3.83088e-24
-1.31312e-21
9.59001e-23
4.89591e-07
-9.38965e-18
-1.04769e-24
-1.52222e-21
9.77296e-23
5.07576e-07
-9.38955e-18
-6.07768e-24
-1.77209e-21
9.95862e-23
5.25904e-07
-9.38957e-18
-1.1263e-23
-1.94158e-21
1.0147e-22
5.44579e-07
-9.38931e-18
-1.66058e-23
-2.21689e-21
1.03381e-22
5.63607e-07
-9.38901e-18
-2.21099e-23
-2.61283e-21
1.05319e-22
5.82993e-07
-9.38873e-18
-2.77787e-23
-2.98005e-21
1.07285e-22
6.02743e-07
-9.3886e-18
-3.36149e-23
-3.26731e-21
1.09278e-22
6.22862e-07
-9.3884e-18
-3.96202e-23
-3.54255e-21
1.11297e-22
6.43357e-07
-9.38839e-18
-4.57982e-23
-3.86398e-21
1.13342e-22
6.64231e-07
-9.38818e-18
-5.21505e-23
-4.19776e-21
1.15411e-22
6.85492e-07
-9.38761e-18
-5.86803e-23
-4.79484e-21
1.17506e-22
7.07144e-07
-9.38724e-18
-6.53915e-23
-5.29607e-21
1.19624e-22
7.29193e-07
-9.387e-18
-7.22857e-23
-5.81108e-21
1.21768e-22
7.51645e-07
-9.38664e-18
-7.93649e-23
-6.23342e-21
1.23936e-22
7.74505e-07
-9.38629e-18
-8.6633e-23
-6.66894e-21
1.26127e-22
7.97779e-07
-9.38577e-18
-9.40919e-23
-7.25865e-21
1.28338e-22
8.21472e-07
-9.38525e-18
-1.01744e-22
-7.77571e-21
1.30571e-22
8.45589e-07
-9.38463e-18
-1.09593e-22
-8.39627e-21
1.32824e-22
8.70136e-07
-9.384e-18
-1.17639e-22
-8.82277e-21
1.35097e-22
8.95118e-07
-9.38374e-18
-1.25884e-22
-9.15395e-21
1.37387e-22
9.2054e-07
-9.38324e-18
-1.3433e-22
-9.68058e-21
1.39693e-22
9.46407e-07
-9.38256e-18
-1.42977e-22
-1.03312e-20
1.42014e-22
9.72725e-07
-9.38186e-18
-1.51828e-22
-1.1027e-20
1.44349e-22
9.99498e-07
-9.38082e-18
-1.60881e-22
-1.20123e-20
1.46694e-22
1.02673e-06
-9.37994e-18
-1.7014e-22
-1.28983e-20
1.49048e-22
1.05443e-06
-9.37909e-18
-1.79602e-22
-1.38076e-20
1.5141e-22
1.08259e-06
-9.37813e-18
-1.89267e-22
-1.49627e-20
1.53777e-22
1.11123e-06
-9.37762e-18
-1.99135e-22
-1.5616e-20
1.5615e-22
1.14034e-06
-9.37668e-18
-2.09201e-22
-1.61529e-20
1.58521e-22
1.16994e-06
-9.3758e-18
-2.19468e-22
-1.72398e-20
1.60887e-22
1.20002e-06
-9.37486e-18
-2.29929e-22
-1.80101e-20
1.63247e-22
1.23059e-06
-9.37393e-18
-2.40589e-22
-1.89994e-20
1.65601e-22
1.26164e-06
-9.37281e-18
-2.51444e-22
-2.0073e-20
1.67948e-22
1.29319e-06
-9.3717e-18
-2.62492e-22
-2.1141e-20
1.70287e-22
1.32524e-06
-9.37027e-18
-2.7373e-22
-2.2319e-20
1.72613e-22
1.35778e-06
-9.3691e-18
-2.85156e-22
-2.3396e-20
1.74923e-22
1.39083e-06
-9.368e-18
-2.96764e-22
-2.4756e-20
1.77214e-22
1.42437e-06
-9.36699e-18
-3.08548e-22
-2.57826e-20
1.79486e-22
1.45842e-06
-9.36585e-18
-3.20501e-22
-2.64013e-20
1.81735e-22
1.49297e-06
-9.36481e-18
-3.32618e-22
-2.75702e-20
1.8395e-22
1.52803e-06
-9.36316e-18
-3.44893e-22
-2.87282e-20
1.86134e-22
1.56359e-06
-9.36191e-18
-3.57321e-22
-2.96291e-20
1.88282e-22
1.59966e-06
-9.36036e-18
-3.6989e-22
-3.09306e-20
1.90388e-22
1.63623e-06
-9.35866e-18
-3.82595e-22
-3.24432e-20
1.9245e-22
1.67331e-06
-9.35703e-18
-3.95429e-22
-3.39007e-20
1.94464e-22
1.71089e-06
-9.35539e-18
-4.08384e-22
-3.54237e-20
1.96427e-22
1.74897e-06
-9.35386e-18
-4.2145e-22
-3.70145e-20
1.98339e-22
1.78755e-06
-9.3524e-18
-4.34616e-22
-3.82501e-20
2.00198e-22
1.82664e-06
-9.35103e-18
-4.47874e-22
-3.94764e-20
2.01996e-22
1.86622e-06
-9.34949e-18
-4.61218e-22
-4.0913e-20
2.0373e-22
1.9063e-06
-9.34745e-18
-4.74637e-22
-4.22828e-20
2.05397e-22
1.94687e-06
-9.3453e-18
-4.88128e-22
-4.39442e-20
2.06994e-22
1.98794e-06
-9.34324e-18
-5.0168e-22
-4.58206e-20
2.08522e-22
2.02949e-06
-9.34211e-18
-5.15286e-22
-4.66935e-20
2.09975e-22
2.07153e-06
-9.34082e-18
-5.28932e-22
-4.7345e-20
2.11345e-22
2.11405e-06
-9.33979e-18
-5.42611e-22
-4.82943e-20
2.1263e-22
2.15706e-06
-9.33785e-18
-5.56318e-22
-4.9752e-20
2.13834e-22
2.20054e-06
-9.33595e-18
-5.70047e-22
-5.13395e-20
2.14955e-22
2.24449e-06
-9.33441e-18
-5.83792e-22
-5.24719e-20
2.15996e-22
2.28892e-06
-9.33244e-18
-5.97539e-22
-5.37302e-20
2.16938e-22
2.33381e-06
-9.33037e-18
-6.11285e-22
-5.48889e-20
2.17792e-22
2.37917e-06
-9.32896e-18
-6.25026e-22
-5.63523e-20
2.18561e-22
2.42499e-06
-9.32669e-18
-6.38748e-22
-5.78163e-20
2.19238e-22
2.47127e-06
-9.32443e-18
-6.52453e-22
-5.9311e-20
2.19815e-22
2.518e-06
-9.32223e-18
-6.66137e-22
-6.07649e-20
2.20294e-22
2.56519e-06
-9.31961e-18
-6.79795e-22
-6.26701e-20
2.20681e-22
2.61283e-06
-9.31766e-18
-6.93427e-22
-6.43642e-20
2.2098e-22
2.66091e-06
-9.31453e-18
-7.07037e-22
-6.64053e-20
2.21188e-22
2.70944e-06
-9.31246e-18
-7.20623e-22
-6.77612e-20
2.21296e-22
2.75842e-06
-9.30918e-18
-7.34178e-22
-6.95927e-20
2.21308e-22
2.80783e-06
-9.30667e-18
-7.47712e-22
-7.21301e-20
2.21232e-22
2.85768e-06
-9.30346e-18
-7.61219e-22
-7.46202e-20
2.21074e-22
2.90797e-06
-9.30054e-18
-7.74696e-22
-7.68085e-20
2.20827e-22
2.9587e-06
-9.29768e-18
-7.88141e-22
-7.95256e-20
2.20478e-22
3.00986e-06
-9.29387e-18
-8.01557e-22
-8.2325e-20
2.20052e-22
3.06145e-06
-9.2908e-18
-8.14952e-22
-8.47253e-20
2.19547e-22
3.11347e-06
-9.28787e-18
-8.28329e-22
-8.68608e-20
2.18962e-22
3.16593e-06
-9.28525e-18
-8.41693e-22
-8.92788e-20
2.18306e-22
3.21882e-06
-9.28116e-18
-8.55039e-22
-9.18926e-20
2.17576e-22
3.27213e-06
-9.27793e-18
-8.68386e-22
-9.47167e-20
2.16766e-22
3.32588e-06
-9.27478e-18
-8.81722e-22
-9.70799e-20
2.15887e-22
3.38005e-06
-9.2714e-18
-8.9505e-22
-1e-19
2.14949e-22
3.43466e-06
-9.26776e-18
-9.08382e-22
-1.02087e-19
2.13955e-22
3.4897e-06
-9.26404e-18
-9.2172e-22
-1.05089e-19
2.12873e-22
3.54517e-06
-9.26061e-18
-9.35061e-22
-1.08138e-19
2.11727e-22
3.60107e-06
-9.25748e-18
-9.48411e-22
-1.11188e-19
2.10527e-22
3.65741e-06
-9.25415e-18
-9.61766e-22
-1.13712e-19
2.09277e-22
3.71418e-06
-9.25058e-18
-9.75131e-22
-1.16658e-19
2.07957e-22
3.77139e-06
-9.24782e-18
-9.88523e-22
-1.1973e-19
2.06569e-22
3.82904e-06
-9.24497e-18
-1.00192e-21
-1.21335e-19
2.05117e-22
3.88713e-06
-9.24345e-18
-1.01531e-21
-1.23062e-19
2.0359e-22
3.94566e-06
-9.24061e-18
-1.02869e-21
-1.2495e-19
2.01964e-22
4.00464e-06
-9.23758e-18
-1.04205e-21
-1.27109e-19
2.00235e-22
4.06407e-06
-9.23488e-18
-1.05541e-21
-1.29394e-19
1.98414e-22
4.12395e-06
-9.23163e-18
-1.06879e-21
-1.31516e-19
1.96514e-22
4.18427e-06
-9.22878e-18
-1.0822e-21
-1.33664e-19
1.94545e-22
4.24506e-06
-9.22533e-18
-1.09564e-21
-1.35109e-19
1.92516e-22
4.30631e-06
-9.22211e-18
-1.10912e-21
-1.37568e-19
1.90422e-22
4.36801e-06
-9.21895e-18
-1.12264e-21
-1.39452e-19
1.88279e-22
4.43019e-06
-9.21525e-18
-1.13622e-21
-1.41996e-19
1.86092e-22
4.49283e-06
-9.21191e-18
-1.14985e-21
-1.4467e-19
1.83866e-22
4.55595e-06
-9.20954e-18
-1.16352e-21
-1.47428e-19
1.81611e-22
4.61954e-06
-9.20726e-18
-1.17722e-21
-1.48962e-19
1.79298e-22
4.68362e-06
-9.20361e-18
-1.19096e-21
-1.509e-19
1.76927e-22
4.74818e-06
-9.19984e-18
-1.20478e-21
-1.53044e-19
1.74531e-22
4.81323e-06
-9.19661e-18
-1.21868e-21
-1.55524e-19
1.72105e-22
4.87877e-06
-9.19422e-18
-1.23264e-21
-1.57446e-19
1.69636e-22
4.94481e-06
-9.19046e-18
-1.24667e-21
-1.59902e-19
1.67122e-22
5.01135e-06
-9.18665e-18
-1.26077e-21
-1.62707e-19
1.64589e-22
5.0784e-06
-9.18302e-18
-1.27495e-21
-1.64743e-19
1.62032e-22
5.14596e-06
-9.1787e-18
-1.28921e-21
-1.67354e-19
1.59437e-22
5.21404e-06
-9.17467e-18
-1.30354e-21
-1.70181e-19
1.56793e-22
5.28264e-06
-9.17088e-18
-1.31795e-21
-1.72742e-19
1.54105e-22
5.35176e-06
-9.16819e-18
-1.33244e-21
-1.7477e-19
1.51385e-22
5.42142e-06
-9.16448e-18
-1.34697e-21
-1.76843e-19
1.4864e-22
5.49161e-06
-9.16017e-18
-1.36156e-21
-1.78159e-19
1.45838e-22
5.56234e-06
-9.1565e-18
-1.37622e-21
-1.81276e-19
1.42956e-22
5.63362e-06
-9.15171e-18
-1.39095e-21
-1.84132e-19
1.40059e-22
5.70545e-06
-9.14794e-18
-1.40576e-21
-1.86764e-19
1.37133e-22
5.77784e-06
-9.14476e-18
-1.42059e-21
-1.88313e-19
1.34156e-22
5.85079e-06
-9.13962e-18
-1.43545e-21
-1.9232e-19
1.3109e-22
5.9243e-06
-9.13493e-18
-1.4504e-21
-1.94811e-19
1.2799e-22
5.99839e-06
-9.13186e-18
-1.46543e-21
-1.97941e-19
1.24808e-22
6.07306e-06
-9.12697e-18
-1.48048e-21
-2.00084e-19
1.2157e-22
6.14832e-06
-9.12258e-18
-1.49565e-21
-2.03256e-19
1.18286e-22
6.22416e-06
-9.11723e-18
-1.51087e-21
-2.06539e-19
1.14929e-22
6.3006e-06
-9.11277e-18
-1.52614e-21
-2.09847e-19
1.11492e-22
6.37765e-06
-9.10753e-18
-1.54144e-21
-2.1121e-19
1.07998e-22
6.4553e-06
-9.10308e-18
-1.55676e-21
-2.14368e-19
1.04369e-22
6.53356e-06
-9.09784e-18
-1.57211e-21
-2.17467e-19
1.00669e-22
6.61244e-06
-9.09402e-18
-1.58756e-21
-2.20211e-19
9.69664e-23
6.69195e-06
-9.08882e-18
-1.60305e-21
-2.22006e-19
9.31751e-23
6.7721e-06
-9.08477e-18
-1.61857e-21
-2.23836e-19
8.92952e-23
6.85288e-06
-9.07976e-18
-1.63411e-21
-2.27135e-19
8.53336e-23
6.9343e-06
-9.07384e-18
-1.64976e-21
-2.31002e-19
8.13555e-23
7.01637e-06
-9.06885e-18
-1.66549e-21
-2.34123e-19
7.73555e-23
7.09911e-06
-9.06309e-18
-1.68128e-21
-2.3772e-19
7.32505e-23
7.1825e-06
-9.05749e-18
-1.69717e-21
-2.43775e-19
6.90516e-23
7.26656e-06
-9.05216e-18
-1.71319e-21
-2.45881e-19
6.49144e-23
7.3513e-06
-9.04628e-18
-1.72927e-21
-2.49097e-19
6.06373e-23
7.43672e-06
-9.03954e-18
-1.74546e-21
-2.54106e-19
5.62521e-23
7.52284e-06
-9.03233e-18
-1.76175e-21
-2.59773e-19
5.18658e-23
7.60964e-06
-9.02599e-18
-1.77813e-21
-2.63308e-19
4.74395e-23
7.69715e-06
-9.02164e-18
-1.79459e-21
-2.65064e-19
4.28977e-23
7.78537e-06
-9.01866e-18
-1.81104e-21
-2.66158e-19
3.8111e-23
7.8743e-06
-9.01468e-18
-1.82746e-21
-2.69741e-19
3.31173e-23
7.96395e-06
-9.01047e-18
-1.84384e-21
-2.71496e-19
2.79925e-23
8.05434e-06
-9.00547e-18
-1.86018e-21
-2.74483e-19
2.26298e-23
8.14545e-06
-9.0007e-18
-1.8765e-21
-2.77693e-19
1.71643e-23
8.23732e-06
-8.99701e-18
-1.89285e-21
-2.79224e-19
1.15301e-23
8.32993e-06
-8.99262e-18
-1.90915e-21
-2.80769e-19
5.70135e-24
8.42329e-06
-8.98996e-18
-1.92547e-21
-2.83009e-19
-3.60366e-25
8.51742e-06
-8.98452e-18
-1.94173e-21
-2.86231e-19
-6.58355e-24
8.61233e-06
-8.98017e-18
-1.958e-21
-2.89264e-19
-1.29835e-23
8.708e-06
-8.97506e-18
-1.97425e-21
-2.93053e-19
-1.96506e-23
8.80447e-06
-8.96995e-18
-1.99047e-21
-2.96897e-19
-2.6558e-23
8.90172e-06
-8.96494e-18
-2.00675e-21
-2.98619e-19
-3.36416e-23
8.99977e-06
-8.96288e-18
-2.02295e-21
-2.99851e-19
-4.09714e-23
9.09863e-06
-8.95771e-18
-2.03891e-21
-3.01576e-19
-4.86154e-23
9.19831e-06
-8.95282e-18
-2.05471e-21
-3.04072e-19
-5.66079e-23
9.2988e-06
-8.94682e-18
-2.07036e-21
-3.08817e-19
-6.48847e-23
9.40013e-06
-8.93996e-18
-2.08586e-21
-3.15294e-19
-7.33269e-23
9.50228e-06
-8.93323e-18
-2.10126e-21
-3.19262e-19
-8.20605e-23
9.60529e-06
-8.92819e-18
-2.11661e-21
-3.23071e-19
-9.09697e-23
9.70914e-06
-8.92245e-18
-2.13198e-21
-3.25628e-19
-9.99518e-23
9.81385e-06
-8.91742e-18
-2.14734e-21
-3.30279e-19
-1.09168e-22
9.91943e-06
-8.91253e-18
-2.16269e-21
-3.3367e-19
-1.1844e-22
1.00259e-05
-8.90614e-18
-2.1781e-21
-3.36657e-19
-1.27884e-22
1.01332e-05
-8.90157e-18
-2.19353e-21
-3.40319e-19
-1.37447e-22
1.02414e-05
-8.89501e-18
-2.2089e-21
-3.41999e-19
-1.47101e-22
1.03506e-05
-8.88897e-18
-2.22424e-21
-3.46221e-19
-1.56978e-22
1.04606e-05
-8.88254e-18
-2.2396e-21
-3.49358e-19
-1.6692e-22
1.05715e-05
-8.8767e-18
-2.25512e-21
-3.53857e-19
-1.76883e-22
1.06834e-05
-8.87152e-18
-2.2706e-21
-3.57124e-19
-1.86794e-22
1.07962e-05
-8.86449e-18
-2.28617e-21
-3.61753e-19
-1.9677e-22
1.09099e-05
-8.85953e-18
-2.30208e-21
-3.64907e-19
-2.0681e-22
1.10245e-05
-8.8526e-18
-2.3181e-21
-3.69014e-19
-2.16826e-22
1.11402e-05
-8.84646e-18
-2.33434e-21
-3.71253e-19
-2.26636e-22
1.12567e-05
-8.83997e-18
-2.35062e-21
-3.76705e-19
-2.36602e-22
1.13743e-05
-8.83214e-18
-2.36699e-21
-3.80167e-19
-2.4642e-22
1.14928e-05
-8.82545e-18
-2.38358e-21
-3.84604e-19
-2.56165e-22
1.16123e-05
-8.82064e-18
-2.40026e-21
-3.87137e-19
-2.65991e-22
1.17328e-05
-8.81326e-18
-2.41697e-21
-3.90003e-19
-2.75835e-22
1.18544e-05
-8.80686e-18
-2.43369e-21
-3.93855e-19
-2.85783e-22
1.19769e-05
-8.79896e-18
-2.45026e-21
-3.99549e-19
-2.95781e-22
1.21004e-05
-8.79195e-18
-2.46689e-21
-4.01371e-19
-3.05639e-22
1.2225e-05
-8.78669e-18
-2.4836e-21
-4.04957e-19
-3.15711e-22
1.23506e-05
-8.77849e-18
-2.50025e-21
-4.09944e-19
-3.25937e-22
1.24773e-05
-8.77086e-18
-2.51708e-21
-4.11263e-19
-3.36066e-22
1.2605e-05
-8.76266e-18
-2.53401e-21
-4.16346e-19
-3.46414e-22
1.27337e-05
-8.75707e-18
-2.55107e-21
-4.20934e-19
-3.56715e-22
1.28636e-05
-8.74858e-18
-2.56805e-21
-4.26111e-19
-3.67168e-22
1.29945e-05
-8.74046e-18
-2.5852e-21
-4.32866e-19
-3.77587e-22
1.31265e-05
-8.73246e-18
-2.6025e-21
-4.38041e-19
-3.87814e-22
1.32596e-05
-8.72825e-18
-2.61983e-21
-4.44314e-19
-3.9796e-22
1.33939e-05
-8.71954e-18
-2.63698e-21
-4.47717e-19
-4.0811e-22
1.35292e-05
-8.71146e-18
-2.6542e-21
-4.50899e-19
-4.18366e-22
1.36657e-05
-8.70371e-18
-2.67152e-21
-4.5723e-19
-4.28727e-22
1.38033e-05
-8.69753e-18
-2.6888e-21
-4.59117e-19
-4.3875e-22
1.3942e-05
-8.68934e-18
-2.70593e-21
-4.6462e-19
-4.49009e-22
1.4082e-05
-8.68134e-18
-2.72311e-21
-4.70557e-19
-4.59087e-22
1.4223e-05
-8.67179e-18
-2.7401e-21
-4.76396e-19
-4.68947e-22
1.43653e-05
-8.66662e-18
-2.75726e-21
-4.78152e-19
-4.78992e-22
1.45087e-05
-8.6598e-18
-2.77416e-21
-4.85113e-19
-4.89235e-22
1.46533e-05
-8.65113e-18
-2.79089e-21
-4.9139e-19
-4.99113e-22
1.47992e-05
-8.64162e-18
-2.80759e-21
-4.96296e-19
-5.08811e-22
1.49462e-05
-8.63083e-18
-2.82445e-21
-5.01993e-19
-5.18305e-22
1.50944e-05
-8.62465e-18
-2.84169e-21
-5.04133e-19
-5.27197e-22
1.52439e-05
-8.61553e-18
-2.85879e-21
-5.09485e-19
-5.36073e-22
1.53947e-05
-8.60468e-18
-2.87634e-21
-5.18715e-19
-5.44546e-22
1.55467e-05
-8.59565e-18
-2.89433e-21
-5.25327e-19
-5.5244e-22
1.56999e-05
-8.58368e-18
-2.91246e-21
-5.29323e-19
-5.59621e-22
1.58544e-05
-8.57434e-18
-2.93045e-21
-5.37357e-19
-5.66771e-22
1.60102e-05
-8.56386e-18
-2.94858e-21
-5.43897e-19
-5.73265e-22
1.61673e-05
-8.55079e-18
-2.96639e-21
-5.5286e-19
-5.79809e-22
1.63257e-05
-8.53993e-18
-2.98402e-21
-5.57436e-19
-5.86152e-22
1.64855e-05
-8.52974e-18
-3.00137e-21
-5.66525e-19
-5.93351e-22
1.66465e-05
-8.51771e-18
-3.01808e-21
-5.74925e-19
-6.00613e-22
1.68089e-05
-8.50508e-18
-3.03437e-21
-5.80714e-19
-6.08457e-22
1.69726e-05
-8.49333e-18
-3.05025e-21
-5.89489e-19
-6.17053e-22
1.71377e-05
-8.48172e-18
-3.06579e-21
-5.97431e-19
-6.25744e-22
1.73041e-05
-8.471e-18
-3.081e-21
-6.05126e-19
-6.34805e-22
1.74719e-05
-8.45355e-18
-3.09585e-21
-6.11932e-19
-6.44493e-22
1.76412e-05
-8.44194e-18
-3.11113e-21
-6.19589e-19
-6.54209e-22
1.78118e-05
-8.43241e-18
-3.12659e-21
-6.29557e-19
-6.631e-22
1.79838e-05
-8.42028e-18
-3.14204e-21
-6.37797e-19
-6.71091e-22
1.81572e-05
-8.40493e-18
-3.15807e-21
-6.46051e-19
-6.78759e-22
1.83321e-05
-8.39824e-18
-3.1751e-21
-6.5219e-19
-6.85359e-22
1.85084e-05
-8.38245e-18
-3.19194e-21
-6.57944e-19
-6.9064e-22
1.86862e-05
-8.37589e-18
-3.21003e-21
-6.60349e-19
-6.95287e-22
1.88654e-05
-8.37039e-18
-3.22808e-21
-6.63777e-19
-6.99509e-22
1.90462e-05
-8.36095e-18
-3.24584e-21
-6.65239e-19
-7.0318e-22
1.92284e-05
-8.35825e-18
-3.2639e-21
-6.6982e-19
-7.05775e-22
1.94121e-05
-8.34928e-18
-3.28157e-21
-6.67944e-19
-7.0807e-22
1.95973e-05
-8.34184e-18
-3.29952e-21
-6.72526e-19
-7.10341e-22
1.97841e-05
-8.33751e-18
-3.31776e-21
-6.74367e-19
-7.12214e-22
1.99723e-05
-8.33375e-18
-3.33579e-21
-6.76693e-19
-7.13744e-22
2.01622e-05
-8.32199e-18
-3.35329e-21
-6.7952e-19
-7.15558e-22
2.03536e-05
-8.31489e-18
-3.37149e-21
-6.8519e-19
-7.16934e-22
2.05465e-05
-8.30211e-18
-3.38982e-21
-6.87048e-19
-7.17337e-22
2.07411e-05
-8.28782e-18
-3.40854e-21
-6.91925e-19
-7.17558e-22
2.09373e-05
-8.27981e-18
-3.42776e-21
-6.96824e-19
-7.17383e-22
2.1135e-05
-8.27465e-18
-3.44658e-21
-7.00296e-19
-7.16627e-22
2.13344e-05
-8.26631e-18
-3.46477e-21
-7.03329e-19
-7.15676e-22
2.15354e-05
-8.25997e-18
-3.48266e-21
-7.07009e-19
-7.14265e-22
2.17381e-05
-8.25342e-18
-3.49987e-21
-7.09673e-19
-7.12371e-22
2.19424e-05
-8.24391e-18
-3.51694e-21
-7.16064e-19
-7.10533e-22
2.21484e-05
-8.2362e-18
-3.53386e-21
-7.20652e-19
-7.07871e-22
2.23561e-05
-8.23231e-18
-3.55078e-21
-7.24749e-19
-7.05638e-22
2.25655e-05
-8.2261e-18
-3.56805e-21
-7.31074e-19
-7.02856e-22
2.27766e-05
-8.21665e-18
-3.58566e-21
-7.38297e-19
-6.98898e-22
2.29894e-05
-8.21172e-18
-3.60438e-21
-7.418e-19
-6.94315e-22
2.3204e-05
-8.20002e-18
-3.62236e-21
-7.48763e-19
-6.90257e-22
2.34203e-05
-8.19145e-18
-3.64137e-21
-7.5412e-19
-6.854e-22
2.36383e-05
-8.17898e-18
-3.66112e-21
-7.62528e-19
-6.80337e-22
2.38582e-05
-8.16968e-18
-3.68204e-21
-7.67849e-19
-6.74364e-22
2.40798e-05
-8.15724e-18
-3.7042e-21
-7.76142e-19
-6.67885e-22
2.43033e-05
-8.14642e-18
-3.72781e-21
-7.82862e-19
-6.60415e-22
2.45285e-05
-8.13707e-18
-3.75223e-21
-7.89703e-19
-6.51902e-22
2.47556e-05
-8.12672e-18
-3.77752e-21
-7.96795e-19
-6.42451e-22
2.49846e-05
-8.11245e-18
-3.8036e-21
-8.06075e-19
-6.31214e-22
2.52154e-05
-8.10446e-18
-3.83086e-21
-8.12126e-19
-6.18049e-22
2.54481e-05
-8.0917e-18
-3.85832e-21
-8.2353e-19
-6.04337e-22
2.56827e-05
-8.07951e-18
-3.88684e-21
-8.28272e-19
-5.89268e-22
2.59191e-05
-8.06616e-18
-3.91531e-21
-8.35933e-19
-5.73164e-22
2.61575e-05
-8.05165e-18
-3.9443e-21
-8.44241e-19
-5.56311e-22
2.63978e-05
-8.03916e-18
-3.97449e-21
-8.55211e-19
-5.39246e-22
2.66401e-05
-8.02715e-18
-4.00525e-21
-8.64752e-19
-5.21594e-22
2.68843e-05
-8.01227e-18
-4.03639e-21
-8.72457e-19
-5.0296e-22
2.71306e-05
-8.00015e-18
-4.06819e-21
-8.79891e-19
-4.84075e-22
2.73788e-05
-7.98239e-18
-4.10044e-21
-8.91617e-19
-4.66018e-22
2.7629e-05
-7.97071e-18
-4.13331e-21
-9.00495e-19
-4.47882e-22
2.78812e-05
-7.95421e-18
-4.16516e-21
-9.12973e-19
-4.3009e-22
2.81354e-05
-7.93594e-18
-4.19818e-21
-9.24424e-19
-4.11303e-22
2.83918e-05
-7.91729e-18
-4.23273e-21
-9.36064e-19
-3.91718e-22
2.86501e-05
-7.90667e-18
-4.26816e-21
-9.47693e-19
-3.71944e-22
2.89106e-05
-7.88859e-18
-4.30093e-21
-9.58222e-19
-3.52356e-22
2.91732e-05
-7.87782e-18
-4.33373e-21
-9.70023e-19
-3.33491e-22
2.94379e-05
-7.86088e-18
-4.36719e-21
-9.84313e-19
-3.14885e-22
2.97047e-05
-7.85491e-18
-4.40124e-21
-9.85363e-19
-2.95486e-22
2.99736e-05
-7.8442e-18
-4.43464e-21
-9.93244e-19
-2.77365e-22
3.02447e-05
-7.83467e-18
-4.46913e-21
-9.97825e-19
-2.58982e-22
3.0518e-05
-7.816e-18
-4.50441e-21
-1.01176e-18
-2.40528e-22
3.07935e-05
-7.79506e-18
-4.54144e-21
-1.02631e-18
-2.19537e-22
3.10712e-05
-7.77549e-18
-4.58048e-21
-1.04003e-18
-1.97372e-22
3.13511e-05
-7.75393e-18
-4.6221e-21
-1.05577e-18
-1.73804e-22
3.16333e-05
-7.73201e-18
-4.66693e-21
-1.0688e-18
-1.47817e-22
3.19177e-05
-7.71565e-18
-4.71327e-21
-1.08546e-18
-1.21307e-22
3.22044e-05
-7.69306e-18
-4.75996e-21
-1.10364e-18
-9.37454e-23
3.24934e-05
-7.66677e-18
-4.80866e-21
-1.11908e-18
-6.40839e-23
3.27848e-05
-7.65307e-18
-4.85788e-21
-1.13754e-18
-3.41569e-23
3.30784e-05
-7.64059e-18
-4.90668e-21
-1.14789e-18
-1.92536e-24
3.33744e-05
-7.6147e-18
-4.95172e-21
-1.16135e-18
2.88782e-23
3.36727e-05
-7.59269e-18
-4.99852e-21
-1.1706e-18
5.89041e-23
3.39735e-05
-7.567e-18
-5.04546e-21
-1.18907e-18
8.69374e-23
3.42766e-05
-7.5394e-18
-5.09559e-21
-1.20992e-18
1.18902e-22
3.45822e-05
-7.51415e-18
-5.1491e-21
-1.22553e-18
1.53058e-22
3.48902e-05
-7.50945e-18
-5.20496e-21
-1.23613e-18
1.87739e-22
3.52006e-05
-7.4945e-18
-5.25669e-21
-1.23686e-18
2.21178e-22
3.55135e-05
-7.48543e-18
-5.30473e-21
-1.24697e-18
2.50938e-22
3.58289e-05
-7.47193e-18
-5.34933e-21
-1.25226e-18
2.79345e-22
3.61468e-05
-7.45176e-18
-5.38809e-21
-1.25095e-18
3.04073e-22
3.64672e-05
-7.43782e-18
-5.42409e-21
-1.26228e-18
3.23427e-22
3.67902e-05
-7.42222e-18
-5.45704e-21
-1.27006e-18
3.39756e-22
3.71157e-05
-7.40593e-18
-5.48563e-21
-1.27627e-18
3.52344e-22
3.74439e-05
-7.39497e-18
-5.50971e-21
-1.28169e-18
3.56975e-22
3.77746e-05
-7.37543e-18
-5.53095e-21
-1.29347e-18
3.51853e-22
3.81079e-05
-7.35988e-18
-5.55008e-21
-1.3037e-18
3.41549e-22
3.84439e-05
-7.35115e-18
-5.56022e-21
-1.31321e-18
3.25191e-22
3.87825e-05
-7.35268e-18
-5.56593e-21
-1.32277e-18
3.0809e-22
3.91239e-05
-7.33649e-18
-5.56611e-21
-1.33325e-18
2.93919e-22
3.94679e-05
-7.32725e-18
-5.56718e-21
-1.33908e-18
2.80813e-22
3.98146e-05
-7.31575e-18
-5.56288e-21
-1.34259e-18
2.65892e-22
4.01641e-05
-7.29891e-18
-5.56003e-21
-1.3546e-18
2.50427e-22
4.05163e-05
-7.2907e-18
-5.56218e-21
-1.36344e-18
2.37389e-22
4.08714e-05
-7.27511e-18
-5.56559e-21
-1.3775e-18
2.25477e-22
4.12292e-05
-7.26719e-18
-5.57341e-21
-1.38803e-18
2.16168e-22
4.15898e-05
-7.25557e-18
-5.58539e-21
-1.39662e-18
2.06442e-22
4.19533e-05
-7.23914e-18
-5.60149e-21
-1.40671e-18
1.97997e-22
4.23196e-05
-7.22609e-18
-5.62045e-21
-1.42117e-18
1.91398e-22
4.26889e-05
-7.21158e-18
-5.63889e-21
-1.43539e-18
1.82198e-22
4.3061e-05
-7.1997e-18
-5.65502e-21
-1.43487e-18
1.74121e-22
4.3436e-05
-7.1776e-18
-5.66902e-21
-1.44933e-18
1.6541e-22
4.3814e-05
-7.16647e-18
-5.68739e-21
-1.46279e-18
1.5999e-22
4.4195e-05
-7.14805e-18
-5.70368e-21
-1.47775e-18
1.54818e-22
4.4579e-05
-7.13285e-18
-5.71784e-21
-1.47978e-18
1.54526e-22
4.49659e-05
-7.11213e-18
-5.73142e-21
-1.49614e-18
1.51378e-22
4.5356e-05
-7.09313e-18
-5.75254e-21
-1.50717e-18
1.54458e-22
4.5749e-05
-7.0785e-18
-5.77055e-21
-1.52083e-18
1.54738e-22
4.61452e-05
-7.05608e-18
-5.78561e-21
-1.53359e-18
1.52387e-22
4.65444e-05
-7.03252e-18
-5.80375e-21
-1.54608e-18
1.48459e-22
4.69468e-05
-7.01137e-18
-5.8216e-21
-1.56416e-18
1.44074e-22
4.73523e-05
-6.99044e-18
-5.83616e-21
-1.58012e-18
1.3862e-22
4.7761e-05
-6.97414e-18
-5.85158e-21
-1.58981e-18
1.37229e-22
4.81729e-05
-6.95497e-18
-5.86763e-21
-1.60751e-18
1.33932e-22
4.8588e-05
-6.92964e-18
-5.88593e-21
-1.61876e-18
1.3272e-22
4.90063e-05
-6.90822e-18
-5.91044e-21
-1.63146e-18
1.33393e-22
4.94279e-05
-6.88352e-18
-5.93957e-21
-1.64821e-18
1.37355e-22
4.98528e-05
-6.86422e-18
-5.9736e-21
-1.66232e-18
1.41196e-22
5.0281e-05
-6.85273e-18
-6.01051e-21
-1.67131e-18
1.37979e-22
5.07125e-05
-6.83027e-18
-6.05016e-21
-1.68506e-18
1.32453e-22
5.11474e-05
-6.80952e-18
-6.08761e-21
-1.6998e-18
1.25565e-22
5.15857e-05
-6.7897e-18
-6.12699e-21
-1.7192e-18
1.21786e-22
5.20274e-05
-6.77417e-18
-6.17093e-21
-1.72892e-18
1.21651e-22
5.24726e-05
-6.76339e-18
-6.21614e-21
-1.74245e-18
1.16819e-22
5.29211e-05
-6.74211e-18
-6.25155e-21
-1.75623e-18
1.04937e-22
5.33732e-05
-6.71939e-18
-6.28998e-21
-1.77471e-18
8.93614e-23
5.38288e-05
-6.70002e-18
-6.33087e-21
-1.78073e-18
7.58942e-23
5.42879e-05
-6.67756e-18
-6.37064e-21
-1.79632e-18
5.9372e-23
5.47506e-05
-6.66317e-18
-6.41466e-21
-1.81586e-18
3.89006e-23
5.52169e-05
-6.64136e-18
-6.45309e-21
-1.82768e-18
1.5865e-23
5.56868e-05
-6.61456e-18
-6.49559e-21
-1.843e-18
-3.92998e-24
5.61603e-05
-6.59169e-18
-6.53481e-21
-1.86473e-18
-2.31138e-23
5.66375e-05
-6.57595e-18
-6.57431e-21
-1.8689e-18
-3.43332e-23
5.71184e-05
-6.55415e-18
-6.61171e-21
-1.8829e-18
-5.07759e-23
5.7603e-05
-6.53796e-18
-6.64948e-21
-1.89384e-18
-6.72404e-23
5.80914e-05
-6.51391e-18
-6.67754e-21
-1.90984e-18
-9.09193e-23
5.85835e-05
-6.48685e-18
-6.70578e-21
-1.93068e-18
-1.07968e-22
5.90794e-05
-6.47114e-18
-6.73164e-21
-1.93723e-18
-1.15443e-22
5.95792e-05
-6.44578e-18
-6.75287e-21
-1.95432e-18
-1.27041e-22
6.00828e-05
-6.41224e-18
-6.77378e-21
-1.96975e-18
-1.32619e-22
6.05903e-05
-6.38952e-18
-6.79396e-21
-1.98504e-18
-1.37799e-22
6.11017e-05
-6.36793e-18
-6.82313e-21
-1.99051e-18
-1.42543e-22
6.16171e-05
-6.33896e-18
-6.84491e-21
-2.00833e-18
-1.56184e-22
6.21364e-05
-6.31487e-18
-6.86757e-21
-2.02934e-18
-1.66772e-22
6.26598e-05
-6.28015e-18
-6.90762e-21
-2.04706e-18
-1.71254e-22
6.31871e-05
-6.25582e-18
-6.94052e-21
-2.06561e-18
-1.69288e-22
6.37186e-05
-6.23758e-18
-6.9899e-21
-2.07562e-18
-1.66478e-22
6.42541e-05
-6.21069e-18
-7.02238e-21
-2.09297e-18
-1.79847e-22
6.47937e-05
-6.17141e-18
-7.05668e-21
-2.11155e-18
-1.99924e-22
6.53375e-05
-6.15424e-18
-7.09607e-21
-2.13127e-18
-2.20797e-22
6.58854e-05
-6.12253e-18
-7.12403e-21
-2.14872e-18
-2.41444e-22
6.64376e-05
-6.09191e-18
-7.16357e-21
-2.14339e-18
-2.68271e-22
6.6994e-05
-6.07765e-18
-7.19475e-21
-2.16553e-18
-3.27591e-22
6.75547e-05
-6.05798e-18
-7.21385e-21
-2.18245e-18
-3.8478e-22
6.81197e-05
-6.02298e-18
-7.23032e-21
-2.19331e-18
-4.26464e-22
6.8689e-05
-6.00119e-18
-7.24065e-21
-2.20363e-18
-4.75751e-22
6.92626e-05
-5.98577e-18
-7.26056e-21
-2.22642e-18
-5.29676e-22
6.98407e-05
-5.95425e-18
-7.28003e-21
-2.24581e-18
-5.61784e-22
7.04232e-05
-5.9326e-18
-7.31206e-21
-2.26194e-18
-5.9117e-22
7.10101e-05
-5.90327e-18
-7.34173e-21
-2.26737e-18
-6.2972e-22
7.16016e-05
-5.87379e-18
-7.37018e-21
-2.28963e-18
-6.77935e-22
7.21975e-05
-5.84833e-18
-7.40972e-21
-2.30773e-18
-7.32669e-22
7.2798e-05
-5.80953e-18
-7.4484e-21
-2.31429e-18
-7.73046e-22
7.34031e-05
-5.7777e-18
-7.51037e-21
-2.33331e-18
-8.20017e-22
7.40129e-05
-5.74397e-18
-7.58144e-21
-2.34809e-18
-8.77795e-22
7.46273e-05
-5.71802e-18
-7.66086e-21
-2.37192e-18
-9.41721e-22
7.52463e-05
-5.7041e-18
-7.74389e-21
-2.38534e-18
-9.90922e-22
7.58701e-05
-5.6914e-18
-7.81072e-21
-2.38586e-18
-1.05159e-21
7.64987e-05
-5.66701e-18
-7.86888e-21
-2.40388e-18
-1.13392e-21
7.7132e-05
-5.6348e-18
-7.92216e-21
-2.41821e-18
-1.2114e-21
7.77702e-05
-5.60057e-18
-7.98021e-21
-2.43128e-18
-1.28256e-21
7.84132e-05
-5.57173e-18
-8.04761e-21
-2.43301e-18
-1.3572e-21
7.90612e-05
-5.55137e-18
-8.11191e-21
-2.45124e-18
-1.43561e-21
7.9714e-05
-5.52306e-18
-8.1569e-21
-2.45516e-18
-1.49906e-21
8.03718e-05
-5.50636e-18
-8.20107e-21
-2.48281e-18
-1.55588e-21
8.10347e-05
-5.47612e-18
-8.24594e-21
-2.47814e-18
-1.58322e-21
8.17026e-05
-5.45597e-18
-8.28709e-21
-2.48344e-18
-1.61184e-21
8.23755e-05
-5.42303e-18
-8.29959e-21
-2.49723e-18
-1.64337e-21
8.30536e-05
-5.39087e-18
-8.32148e-21
-2.50717e-18
-1.68437e-21
8.37368e-05
-5.35846e-18
-8.34684e-21
-2.52638e-18
-1.7226e-21
8.44252e-05
-5.33332e-18
-8.37263e-21
-2.53685e-18
-1.75966e-21
8.51188e-05
-5.29675e-18
-8.3874e-21
-2.55704e-18
-1.77912e-21
8.58177e-05
-5.28544e-18
-8.40901e-21
-2.56113e-18
-1.78687e-21
8.65219e-05
-5.25848e-18
-8.42435e-21
-2.57607e-18
-1.79248e-21
8.72314e-05
-5.23336e-18
-8.43321e-21
-2.57805e-18
-1.81819e-21
8.79463e-05
-5.19946e-18
-8.44747e-21
-2.59007e-18
-1.85462e-21
8.86666e-05
-5.18115e-18
-8.47095e-21
-2.60056e-18
-1.89003e-21
8.93924e-05
-5.14445e-18
-8.48617e-21
-2.61154e-18
-1.92268e-21
9.01236e-05
-5.09971e-18
-8.51278e-21
-2.62947e-18
-1.97805e-21
9.08604e-05
-5.10377e-18
-8.55134e-21
-2.63927e-18
-2.02049e-21
9.16028e-05
-5.05805e-18
-8.55003e-21
-2.66098e-18
-2.07008e-21
9.23508e-05
-5.02623e-18
-8.57148e-21
-2.67544e-18
-2.12553e-21
9.31044e-05
-4.99767e-18
-8.59361e-21
-2.69347e-18
-2.19506e-21
9.38637e-05
-4.95099e-18
-8.62226e-21
-2.70329e-18
-2.26595e-21
9.46288e-05
-4.92833e-18
-8.6498e-21
-2.7179e-18
-2.32662e-21
9.53996e-05
-4.89124e-18
-8.6439e-21
-2.72495e-18
-2.35467e-21
9.61763e-05
-4.87102e-18
-8.63762e-21
-2.74811e-18
-2.40797e-21
9.69588e-05
-4.8484e-18
-8.60381e-21
-2.75452e-18
-2.43621e-21
9.77472e-05
-4.81782e-18
-8.53248e-21
-2.77213e-18
-2.4742e-21
9.85416e-05
-4.78222e-18
-8.45547e-21
-2.78485e-18
-2.51433e-21
9.93419e-05
-4.74652e-18
-8.4023e-21
-2.8107e-18
-2.58317e-21
0.000100148
-4.71681e-18
-8.33187e-21
-2.82337e-18
-2.62995e-21
0.000100961
-4.69137e-18
-8.26287e-21
-2.83394e-18
-2.68088e-21
0.000101779
-4.65782e-18
-8.15866e-21
-2.84565e-18