/*--------------------------------*- C++ -*----------------------------------*\
| =========                 |                                                 |
| \\      /  F ield         | OpenFOAM: The Open Source CFD Toolbox           |
|  \\    /   O peration     | Version:  2012                                  |
|   \\  /    A nd           | Website:  www.openfoam.com                      |
|    \\/     M anipulation  |                                                 |
\*---------------------------------------------------------------------------*/
FoamFile
{
    version     2.0;
    format      ascii;
    class       volScalarField;
    location    "12400";
    object      omega;
}
// * * * * * * * * * * * * * * * * * * * * * * * * * * * * * * * * * * * * * //

dimensions      [0 0 -1 0 0 0 0];


internalField   nonuniform List<scalar> 
2560
(
1.52417e+06
1.52417e+06
263896
263899
87342.6
87345.6
41592.5
41593.3
25765.3
25764.9
18684.4
18683.7
14800.8
14800
12361.7
12361
10686
10685.4
9461.01
9460.39
8524.28
8523.7
7783.37
7782.83
7181.76
7181.26
6682.97
6682.5
6262.35
6261.91
5902.64
5902.23
5591.4
5591
5319.39
5319.02
5079.65
5079.3
4866.79
4866.45
4676.58
4676.26
4505.67
4505.36
4351.33
4351.03
4211.35
4211.06
4083.91
4083.63
3967.49
3967.22
3860.82
3860.56
3762.84
3762.59
3672.62
3672.37
3589.38
3589.15
3512.47
3512.23
3441.28
3441.05
3375.31
3375.09
3314.13
3313.91
3257.32
3257.1
3204.53
3204.32
3155.45
3155.24
3109.8
3109.59
3067.31
3067.1
3027.77
3027.56
2990.97
2990.76
2956.73
2956.52
2924.89
2924.68
2895.29
2895.08
2867.79
2867.59
2842.24
2842.04
2818.5
2818.29
2796.4
2796.19
2775.79
2775.59
2756.52
2756.31
2738.44
2738.23
2721.4
2721.19
2705.28
2705.06
2689.98
2689.76
2675.47
2675.25
2661.82
2661.59
2649.19
2648.96
2637.91
2637.66
2628.29
2628.04
2620.56
2620.3
2614.63
2614.36
2609.7
2609.43
2604.5
2604.22
2597.33
2597.05
2586.47
2586.19
2570.56
2570.28
2548.84
2548.57
2521.27
2521.01
2488.45
2488.21
2451.38
2451.15
2411.26
2411.05
2369.27
2369.08
2326.46
2326.28
2283.67
2283.5
2241.5
2241.34
2200.35
2200.19
2160.43
2160.28
2121.77
2121.63
2084.29
2084.15
2047.83
2047.7
2012.21
2012.09
1977.2
1977.09
1942.62
1942.52
1908.27
1908.19
1874
1873.93
1839.68
1839.61
1805.19
1805.14
1770.47
1770.43
1735.48
1735.45
1700.21
1700.18
1664.67
1664.65
1628.94
1628.92
1593.1
1593.08
1557.28
1557.26
1521.61
1521.6
1486.26
1486.25
1451.35
1451.34
1417.03
1417.02
1383.37
1383.37
1350.46
1350.45
1318.31
1318.3
1286.94
1286.93
1256.34
1256.33
1226.48
1226.48
1197.36
1197.36
1168.96
1168.96
1141.28
1141.28
1114.32
1114.32
1088.08
1088.08
1062.59
1062.58
1037.82
1037.82
1013.76
1013.76
990.396
990.397
967.664
967.665
945.504
945.505
923.841
923.843
902.598
902.601
881.707
881.71
861.116
861.119
840.799
840.802
820.76
820.764
801.034
801.037
781.674
781.678
762.749
762.753
744.321
744.325
726.442
726.446
709.144
709.148
692.425
692.428
676.261
676.265
660.614
660.617
645.437
645.44
630.684
630.687
616.317
616.32
602.309
602.312
588.643
588.647
575.313
575.317
562.318
562.321
549.659
549.662
537.338
537.341
525.356
525.359
513.711
513.714
502.396
502.398
491.401
491.404
480.715
480.717
470.323
470.325
460.21
460.212
450.362
450.364
440.765
440.767
431.41
431.412
422.291
422.293
413.405
413.407
404.754
404.756
396.344
396.345
388.18
388.181
380.272
380.273
372.628
372.629
365.257
365.257
358.164
358.164
351.354
351.354
344.83
344.829
338.588
338.587
332.627
332.625
326.939
326.936
321.512
321.509
316.331
316.328
311.377
311.373
306.625
306.62
302.043
302.038
297.597
297.591
293.245
293.238
288.945
288.937
284.653
284.645
280.328
280.321
275.938
275.931
271.458
271.452
266.88
266.877
262.213
262.213
257.48
257.481
252.716
252.718
247.973
247.975
243.305
243.307
238.767
238.769
234.406
234.407
230.254
230.255
226.327
226.327
222.623
222.623
219.114
219.114
215.764
215.763
212.523
212.522
209.341
209.34
206.17
206.169
202.968
202.969
199.707
199.71
196.368
196.372
192.944
192.948
189.436
189.44
185.857
185.861
182.225
182.23
178.564
178.568
174.896
174.9
171.248
171.252
167.643
167.646
164.101
164.104
160.642
160.644
157.282
157.284
154.033
154.034
150.906
150.907
147.909
147.91
145.047
145.048
142.323
142.324
139.739
139.739
137.291
137.291
134.974
134.975
132.78
132.78
130.693
130.693
128.697
128.696
126.767
126.766
124.875
124.874
122.992
122.991
121.086
121.085
119.127
119.125
117.089
117.087
114.954
114.953
112.714
112.713
110.372
110.37
107.943
107.942
105.453
105.453
102.932
102.933
100.412
100.412
97.924
97.9245
95.4937
95.494
93.1366
93.1369
90.8575
90.8576
88.6511
88.6511
86.5054
86.5053
84.405
84.4047
82.3352
82.335
80.2856
80.2855
78.2526
78.2527
76.2381
76.2384
74.2477
74.2481
72.2892
72.2896
70.3714
70.3718
68.5021
68.5025
66.6866
66.6869
64.9278
64.928
63.2266
63.2268
61.5825
61.5826
59.9944
59.9946
58.4614
58.4616
56.9827
56.9828
55.5577
55.5578
54.1856
54.1857
52.8656
52.8657
51.5963
51.5964
50.376
50.3761
49.2026
49.2027
48.0737
48.0738
46.987
46.9871
45.9404
45.9404
44.9319
44.932
43.9602
43.9603
43.0243
43.0243
42.1235
42.1235
41.2577
41.2577
40.4268
40.4268
39.631
39.631
38.8702
38.8702
38.1442
38.1442
37.4527
37.4527
36.795
36.795
36.1701
36.1701
35.5771
35.5771
35.0148
35.0148
34.4823
34.4824
33.9787
33.9787
33.5029
33.5029
33.0542
33.0542
32.6317
32.6317
32.2346
32.2346
31.8623
31.8623
31.5139
31.5139
31.1887
31.1887
30.886
30.886
30.605
30.605
30.3451
30.3451
30.1058
30.1058
29.8865
29.8866
29.6872
29.6872
29.5074
29.5074
29.3473
29.3473
29.2067
29.2067
29.0856
29.0856
28.9839
28.9839
28.9014
28.9014
28.8377
28.8377
28.7927
28.7927
28.7658
28.7658
28.757
28.757
28.7659
28.7659
28.7927
28.7927
28.8374
28.8374
28.9002
28.9002
28.9817
28.9817
29.0822
29.0822
29.2023
29.2023
29.3426
29.3426
29.5035
29.5035
29.6857
29.6857
29.8898
29.8898
30.1163
30.1163
30.3656
30.3656
30.638
30.638
30.933
30.933
31.249
31.249
31.5811
31.5811
31.9177
31.9177
32.2324
32.2324
32.4687
32.4687
32.4367
32.4367
1.52417e+06
1.52417e+06
263899
263896
87345.6
87342.6
41593.3
41592.5
25764.9
25765.3
18683.7
18684.4
14800
14800.8
12361
12361.7
10685.4
10686
9460.39
9461.01
8523.7
8524.28
7782.83
7783.37
7181.26
7181.76
6682.5
6682.97
6261.91
6262.35
5902.23
5902.64
5591
5591.4
5319.02
5319.39
5079.3
5079.65
4866.45
4866.79
4676.26
4676.58
4505.36
4505.67
4351.03
4351.33
4211.06
4211.35
4083.63
4083.91
3967.22
3967.49
3860.56
3860.82
3762.59
3762.84
3672.37
3672.62
3589.15
3589.39
3512.23
3512.47
3441.05
3441.28
3375.09
3375.31
3313.91
3314.13
3257.1
3257.32
3204.32
3204.53
3155.24
3155.45
3109.59
3109.8
3067.1
3067.31
3027.56
3027.77
2990.76
2990.97
2956.52
2956.73
2924.68
2924.89
2895.08
2895.29
2867.59
2867.79
2842.04
2842.24
2818.29
2818.5
2796.19
2796.4
2775.59
2775.79
2756.31
2756.52
2738.23
2738.44
2721.19
2721.4
2705.06
2705.28
2689.76
2689.98
2675.25
2675.48
2661.59
2661.82
2648.96
2649.19
2637.66
2637.91
2628.04
2628.29
2620.3
2620.56
2614.36
2614.63
2609.43
2609.7
2604.22
2604.5
2597.05
2597.33
2586.19
2586.48
2570.28
2570.56
2548.57
2548.84
2521.01
2521.27
2488.21
2488.45
2451.15
2451.38
2411.05
2411.26
2369.08
2369.27
2326.28
2326.46
2283.5
2283.67
2241.34
2241.5
2200.19
2200.35
2160.28
2160.43
2121.62
2121.77
2084.15
2084.29
2047.7
2047.83
2012.09
2012.21
1977.09
1977.2
1942.52
1942.62
1908.19
1908.27
1873.93
1874
1839.61
1839.68
1805.14
1805.19
1770.43
1770.47
1735.45
1735.48
1700.18
1700.21
1664.65
1664.67
1628.92
1628.94
1593.08
1593.1
1557.26
1557.28
1521.6
1521.61
1486.25
1486.26
1451.34
1451.35
1417.02
1417.03
1383.37
1383.37
1350.45
1350.46
1318.3
1318.31
1286.93
1286.94
1256.33
1256.34
1226.48
1226.48
1197.36
1197.36
1168.96
1168.96
1141.28
1141.28
1114.32
1114.32
1088.08
1088.08
1062.58
1062.59
1037.82
1037.82
1013.76
1013.76
990.397
990.396
967.665
967.664
945.505
945.504
923.843
923.841
902.601
902.598
881.71
881.707
861.119
861.116
840.802
840.799
820.764
820.76
801.037
801.033
781.678
781.674
762.752
762.748
744.325
744.321
726.446
726.442
709.148
709.144
692.428
692.424
676.264
676.261
660.617
660.613
645.44
645.436
630.687
630.683
616.32
616.317
602.312
602.308
588.646
588.643
575.316
575.313
562.321
562.317
549.661
549.658
537.341
537.338
525.359
525.356
513.713
513.71
502.398
502.395
491.403
491.4
480.717
480.714
470.325
470.322
460.212
460.209
450.363
450.361
440.766
440.764
431.411
431.409
422.292
422.29
413.406
413.404
404.755
404.754
396.344
396.343
388.18
388.179
380.272
380.271
372.628
372.628
365.256
365.256
358.163
358.164
351.353
351.354
344.828
344.829
338.586
338.588
332.625
332.627
326.935
326.938
321.508
321.511
316.327
316.331
311.373
311.377
306.619
306.624
302.037
302.043
297.59
297.596
293.237
293.244
288.937
288.944
284.644
284.652
280.32
280.328
275.93
275.937
271.452
271.457
266.877
266.88
262.212
262.213
257.48
257.479
252.718
252.716
247.975
247.973
243.307
243.305
238.769
238.767
234.407
234.405
230.254
230.253
226.327
226.326
222.622
222.622
219.113
219.113
215.762
215.763
212.52
212.522
209.339
209.34
206.168
206.169
202.968
202.967
199.709
199.706
196.371
196.367
192.947
192.943
189.44
189.435
185.861
185.856
182.229
182.224
178.567
178.563
174.9
174.896
171.251
171.248
167.645
167.642
164.103
164.101
160.644
160.642
157.283
157.281
154.034
154.032
150.907
150.905
147.909
147.908
145.047
145.046
142.323
142.322
139.738
139.738
137.29
137.29
134.973
134.973
132.779
132.779
130.692
130.692
128.695
128.695
126.764
126.765
124.873
124.874
122.99
122.991
121.083
121.085
119.124
119.126
117.086
117.088
114.952
114.954
112.712
112.714
110.37
110.372
107.942
107.943
105.453
105.453
102.933
102.932
100.413
100.412
97.9247
97.9243
95.4942
95.4939
93.1369
93.1367
90.8575
90.8574
88.6509
88.651
86.505
86.5052
84.4044
84.4047
82.3346
82.335
80.2852
80.2854
78.2526
78.2524
76.2384
76.238
74.2482
74.2477
72.2897
72.2892
70.372
70.3715
68.5026
68.5022
66.6871
66.6867
64.9282
64.9278
63.2269
63.2266
61.5827
61.5825
59.9946
59.9944
58.4616
58.4614
56.9829
56.9827
55.5578
55.5576
54.1856
54.1855
52.8656
52.8655
51.5963
51.5962
50.376
50.3759
49.2026
49.2025
48.0737
48.0736
46.987
46.9869
45.9404
45.9403
44.9319
44.9319
43.9603
43.9602
43.0243
43.0243
42.1236
42.1235
41.2578
41.2577
40.4269
40.4268
39.631
39.631
38.8702
38.8702
38.1443
38.1443
37.4528
37.4528
36.795
36.795
36.1701
36.1701
35.5771
35.5771
35.0148
35.0148
34.4824
34.4823
33.9787
33.9787
33.5029
33.5029
33.0542
33.0541
32.6317
32.6317
32.2346
32.2346
31.8623
31.8623
31.5139
31.5139
31.1887
31.1887
30.886
30.886
30.605
30.605
30.3451
30.3451
30.1058
30.1058
29.8866
29.8866
29.6872
29.6872
29.5074
29.5074
29.3473
29.3473
29.2067
29.2067
29.0856
29.0856
28.9839
28.9839
28.9013
28.9013
28.8377
28.8377
28.7926
28.7926
28.7658
28.7658
28.7569
28.7569
28.7659
28.7659
28.7927
28.7927
28.8373
28.8373
28.9002
28.9002
28.9817
28.9817
29.0822
29.0822
29.2023
29.2023
29.3425
29.3425
29.5035
29.5035
29.6857
29.6857
29.8897
29.8897
30.1162
30.1162
30.3654
30.3654
30.6377
30.6377
30.9327
30.9327
31.2486
31.2486
31.5806
31.5806
31.9171
31.9171
32.2317
32.2317
32.468
32.468
32.4361
32.4361
32.4367
32.4367
32.4688
32.4688
32.2325
32.2325
31.9179
31.9179
31.5813
31.5813
31.2492
31.2492
30.9332
30.9332
30.6382
30.6382
30.3658
30.3658
30.1165
30.1165
29.89
29.89
29.6859
29.6859
29.5036
29.5036
29.3427
29.3427
29.2024
29.2024
29.0824
29.0824
28.9818
28.9818
28.9004
28.9004
28.8375
28.8375
28.7928
28.7928
28.766
28.766
28.7571
28.7571
28.7659
28.7659
28.7928
28.7928
28.8378
28.8378
28.9014
28.9014
28.9839
28.9839
29.0856
29.0856
29.2067
29.2067
29.3473
29.3473
29.5074
29.5074
29.6871
29.6871
29.8865
29.8865
30.1056
30.1056
30.3449
30.3449
30.6047
30.6047
30.8856
30.8856
31.1883
31.1883
31.5134
31.5134
31.8617
31.8617
32.234
32.234
32.631
32.631
33.0534
33.0534
33.502
33.5021
33.9777
33.9778
34.4813
34.4813
35.0137
35.0137
35.5759
35.5759
36.1688
36.1688
36.7936
36.7936
37.4513
37.4513
38.1427
38.1427
38.8685
38.8685
39.6292
39.6292
40.4249
40.425
41.2557
41.2557
42.1214
42.1214
43.0221
43.0221
43.9579
43.9579
44.9294
44.9295
45.9377
45.9377
46.9842
46.9842
48.0707
48.0708
49.1995
49.1996
50.3729
50.3729
51.5931
51.5932
52.8623
52.8624
54.1822
54.1822
55.5541
55.5542
56.9791
56.9792
58.4577
58.4578
59.9905
59.9907
61.5785
61.5787
63.2225
63.2228
64.9236
64.9239
66.6824
66.6827
68.4977
68.4981
70.3669
70.3673
72.2846
72.285
74.2432
74.2437
76.2338
76.2341
78.2485
78.2487
80.2819
80.2817
82.3317
82.3314
84.4017
84.4014
86.5024
86.5022
88.6482
88.6482
90.8547
90.8548
93.134
93.1342
95.4911
95.4915
97.9216
97.9221
100.41
100.41
102.93
102.931
105.452
105.452
107.942
107.941
110.371
110.37
112.714
112.712
114.954
114.952
117.088
117.086
119.125
119.124
121.085
121.083
122.991
122.99
124.874
124.873
126.765
126.764
128.695
128.695
130.691
130.691
132.777
132.777
134.972
134.972
137.288
137.288
139.735
139.736
142.32
142.32
145.043
145.044
147.904
147.906
150.901
150.903
154.028
154.03
157.276
157.279
160.637
160.639
164.095
164.098
167.636
167.64
171.242
171.245
174.889
174.893
178.556
178.56
182.218
182.222
185.849
185.854
189.427
189.432
192.935
192.94
196.359
196.363
199.698
199.701
202.959
202.959
206.16
206.159
209.33
209.329
212.512
212.51
215.752
215.751
219.103
219.102
222.611
222.611
226.315
226.315
230.242
230.243
234.393
234.395
238.755
238.757
243.293
243.295
247.96
247.963
252.703
252.705
257.466
257.467
262.2
262.199
266.867
266.864
271.445
271.439
275.924
275.917
280.314
280.307
284.638
284.63
288.93
288.922
293.23
293.223
297.581
297.575
302.027
302.022
306.609
306.604
311.36
311.356
316.314
316.31
321.494
321.49
326.92
326.917
332.608
332.606
338.568
338.566
344.808
344.807
351.332
351.332
358.141
358.141
365.233
365.233
372.603
372.604
380.246
380.247
388.153
388.154
396.315
396.316
404.724
404.726
413.373
413.375
422.258
422.259
431.375
431.377
440.728
440.73
450.323
450.325
460.169
460.172
470.28
470.283
480.671
480.673
491.355
491.358
502.348
502.351
513.662
513.665
525.306
525.309
537.286
537.29
549.605
549.609
562.263
562.266
575.256
575.26
588.584
588.587
602.246
602.25
616.251
616.255
630.615
630.619
645.365
645.369
660.54
660.544
676.184
676.188
692.346
692.35
709.063
709.067
726.358
726.363
744.235
744.239
762.66
762.664
781.583
781.588
800.941
800.945
820.665
820.669
840.701
840.705
861.016
861.02
881.606
881.609
902.495
902.498
923.736
923.738
945.397
945.399
967.555
967.557
990.285
990.286
1013.65
1013.65
1037.7
1037.7
1062.47
1062.47
1087.96
1087.96
1114.19
1114.19
1141.15
1141.15
1168.83
1168.83
1197.23
1197.23
1226.35
1226.34
1256.2
1256.19
1286.8
1286.79
1318.16
1318.16
1350.31
1350.3
1383.22
1383.22
1416.87
1416.87
1451.2
1451.19
1486.1
1486.09
1521.45
1521.44
1557.11
1557.1
1592.93
1592.92
1628.77
1628.75
1664.51
1664.48
1700.04
1700.01
1735.32
1735.28
1770.3
1770.26
1805.02
1804.96
1839.5
1839.43
1873.82
1873.74
1908.08
1908
1942.42
1942.32
1977
1976.89
2011.99
2011.87
2047.61
2047.48
2084.06
2083.92
2121.54
2121.39
2160.19
2160.04
2200.1
2199.94
2241.25
2241.08
2283.41
2283.23
2326.2
2326.01
2369.01
2368.8
2410.99
2410.77
2451.11
2450.87
2488.19
2487.93
2521.02
2520.74
2548.59
2548.31
2570.32
2570.03
2586.24
2585.95
2597.1
2596.8
2604.26
2603.97
2609.47
2609.18
2614.4
2614.12
2620.34
2620.06
2628.06
2627.8
2637.68
2637.42
2648.96
2648.72
2661.59
2661.35
2675.25
2675.01
2689.76
2689.53
2705.07
2704.84
2721.19
2720.97
2738.24
2738.02
2756.32
2756.1
2775.6
2775.38
2796.21
2795.99
2818.31
2818.09
2842.05
2841.84
2867.6
2867.39
2895.1
2894.89
2924.7
2924.49
2956.54
2956.33
2990.78
2990.57
3027.58
3027.36
3067.12
3066.9
3109.6
3109.38
3155.26
3155.03
3204.33
3204.1
3257.11
3256.88
3313.91
3313.68
3375.09
3374.86
3441.05
3440.81
3512.23
3511.98
3589.14
3588.89
3672.36
3672.11
3762.57
3762.31
3860.55
3860.28
3967.2
3966.92
4083.61
4083.32
4211.04
4210.74
4351
4350.69
4505.33
4505
4676.22
4675.89
4866.41
4866.06
5079.25
5078.88
5318.97
5318.58
5590.94
5590.53
5902.16
5901.73
6261.84
6261.38
6682.42
6681.93
7181.17
7180.65
7782.73
7782.17
8523.59
8522.99
9460.26
9459.61
10685.2
10684.5
12360.8
12360.1
14799.8
14799
18683.3
18682.6
25764.2
25763.8
41591.9
41592.6
87343.1
87346.1
263896
263900
1.52418e+06
1.52418e+06
32.4361
32.4361
32.4681
32.468
32.2318
32.2318
31.9173
31.9173
31.5808
31.5808
31.2488
31.2488
30.9329
30.9329
30.6379
30.6379
30.3656
30.3656
30.1164
30.1164
29.8899
29.8899
29.6858
29.6858
29.5036
29.5036
29.3427
29.3427
29.2024
29.2024
29.0823
29.0823
28.9818
28.9818
28.9004
28.9004
28.8375
28.8375
28.7928
28.7928
28.766
28.766
28.757
28.757
28.7659
28.7659
28.7927
28.7927
28.8378
28.8378
28.9014
28.9014
28.9839
28.9839
29.0856
29.0856
29.2067
29.2067
29.3473
29.3473
29.5074
29.5074
29.6871
29.6871
29.8865
29.8865
30.1056
30.1056
30.3449
30.3449
30.6047
30.6047
30.8856
30.8856
31.1883
31.1883
31.5134
31.5134
31.8617
31.8617
32.234
32.234
32.631
32.631
33.0534
33.0534
33.5021
33.502
33.9778
33.9777
34.4814
34.4813
35.0137
35.0137
35.5759
35.5759
36.1689
36.1688
36.7937
36.7936
37.4513
37.4513
38.1427
38.1427
38.8686
38.8685
39.6293
39.6292
40.425
40.425
41.2558
41.2557
42.1215
42.1214
43.0221
43.022
43.9579
43.9578
44.9294
44.9294
45.9377
45.9376
46.9841
46.984
48.0707
48.0706
49.1995
49.1994
50.3729
50.3728
51.5931
51.593
52.8623
52.8622
54.1822
54.1821
55.5542
55.5541
56.9792
56.9791
58.4579
58.4577
59.9908
59.9905
61.5788
61.5785
63.2229
63.2226
64.924
64.9237
66.6828
66.6824
68.4982
68.4978
70.3674
70.3669
72.2851
72.2846
74.2437
74.2431
76.2341
76.2336
78.2485
78.2484
80.2815
80.2816
82.3311
82.3315
84.4011
84.4014
86.5019
86.5021
88.648
88.6481
90.8547
90.8546
93.1343
93.134
95.4917
95.4913
97.9223
97.9219
100.411
100.41
102.931
102.93
105.452
105.452
107.941
107.942
110.369
110.371
112.711
112.713
114.951
114.953
117.085
117.087
119.123
119.125
121.082
121.083
122.988
122.989
124.871
124.872
126.763
126.764
128.693
128.694
130.69
130.69
132.776
132.776
134.971
134.971
137.287
137.287
139.735
139.734
142.32
142.319
145.043
145.042
147.905
147.904
150.902
150.901
154.029
154.027
157.278
157.276
160.639
160.636
164.098
164.095
167.639
167.636
171.245
171.241
174.893
174.889
178.56
178.556
182.222
182.217
185.853
185.848
189.432
189.427
192.939
192.934
196.362
196.358
199.7
199.697
202.958
202.957
206.158
206.159
209.328
209.329
212.509
212.511
215.75
215.751
219.101
219.102
222.61
222.61
226.315
226.314
230.242
230.241
234.394
234.393
238.756
238.754
243.294
243.292
247.962
247.96
252.705
252.703
257.467
257.466
262.199
262.2
266.864
266.867
271.439
271.445
275.917
275.924
280.306
280.314
284.63
284.638
288.922
288.929
293.222
293.229
297.574
297.581
302.021
302.027
306.603
306.608
311.355
311.36
316.309
316.313
321.49
321.493
326.917
326.919
332.605
332.607
338.566
338.567
344.807
344.808
351.331
351.332
358.14
358.141
365.232
365.232
372.603
372.603
380.246
380.245
388.153
388.152
396.316
396.314
404.725
404.724
413.375
413.373
422.259
422.257
431.376
431.375
440.73
440.728
450.325
450.322
460.171
460.169
470.282
470.28
480.673
480.67
491.358
491.355
502.351
502.348
513.665
513.662
525.309
525.306
537.289
537.286
549.608
549.605
562.266
562.262
575.259
575.256
588.587
588.583
602.249
602.246
616.255
616.251
630.619
630.615
645.369
645.365
660.543
660.54
676.188
676.184
692.35
692.346
709.067
709.063
726.363
726.358
744.239
744.235
762.664
762.66
781.587
781.583
800.945
800.941
820.669
820.665
840.705
840.701
861.02
861.017
881.609
881.606
902.498
902.495
923.738
923.736
945.399
945.398
967.557
967.556
990.286
990.285
1013.65
1013.65
1037.7
1037.7
1062.47
1062.47
1087.96
1087.96
1114.19
1114.19
1141.15
1141.15
1168.83
1168.83
1197.23
1197.23
1226.34
1226.35
1256.19
1256.2
1286.79
1286.8
1318.16
1318.16
1350.3
1350.31
1383.22
1383.22
1416.87
1416.87
1451.19
1451.2
1486.09
1486.1
1521.44
1521.45
1557.1
1557.11
1592.92
1592.93
1628.75
1628.77
1664.48
1664.51
1700.01
1700.04
1735.28
1735.32
1770.26
1770.31
1804.96
1805.02
1839.43
1839.5
1873.74
1873.82
1908
1908.08
1942.32
1942.43
1976.89
1977
2011.87
2012
2047.48
2047.61
2083.92
2084.06
2121.39
2121.54
2160.04
2160.19
2199.94
2200.11
2241.08
2241.25
2283.24
2283.42
2326.01
2326.2
2368.8
2369.01
2410.77
2411
2450.88
2451.12
2487.93
2488.19
2520.75
2521.02
2548.31
2548.6
2570.03
2570.33
2585.95
2586.25
2596.8
2597.1
2603.97
2604.26
2609.18
2609.47
2614.12
2614.4
2620.07
2620.34
2627.8
2628.07
2637.42
2637.68
2648.72
2648.97
2661.35
2661.59
2675.02
2675.25
2689.53
2689.76
2704.84
2705.07
2720.97
2721.2
2738.02
2738.24
2756.11
2756.33
2775.38
2775.6
2795.99
2796.21
2818.09
2818.31
2841.84
2842.06
2867.39
2867.61
2894.89
2895.11
2924.49
2924.71
2956.33
2956.55
2990.57
2990.79
3027.37
3027.59
3066.91
3067.13
3109.39
3109.61
3155.03
3155.26
3204.11
3204.33
3256.88
3257.11
3313.68
3313.92
3374.86
3375.1
3440.81
3441.05
3511.98
3512.23
3588.89
3589.14
3672.11
3672.37
3762.31
3762.58
3860.28
3860.55
3966.93
3967.21
4083.32
4083.61
4210.74
4211.04
4350.69
4351.01
4505.01
4505.33
4675.89
4676.23
4866.06
4866.41
5078.88
5079.25
5318.58
5318.97
5590.54
5590.95
5901.73
5902.17
6261.38
6261.84
6681.93
6682.43
7180.65
7181.18
7782.17
7782.74
8522.99
8523.6
9459.61
9460.27
10684.5
10685.2
12360.1
12360.8
14799
14799.8
18682.6
18683.3
25763.8
25764.2
41592.6
41591.9
87346.2
87343.1
263900
263896
1.52418e+06
1.52418e+06
)
;

boundaryField
{
    walls
    {
        blending        binomial2;
        n               2;
        beta1           0.075;
        type            omegaWallFunction;
        value           nonuniform List<scalar> 8(1.52417e+06 1.52417e+06 1.52417e+06 1.52417e+06 1.52418e+06 1.52418e+06 1.52418e+06 1.52418e+06);
    }
    inlet
    {
        type            cyclic;
    }
    outlet
    {
        type            cyclic;
    }
    sides
    {
        type            empty;
    }
}


// ************************************************************************* //
