/*--------------------------------*- C++ -*----------------------------------*\
| =========                 |                                                 |
| \\      /  F ield         | OpenFOAM: The Open Source CFD Toolbox           |
|  \\    /   O peration     | Version:  2012                                  |
|   \\  /    A nd           | Website:  www.openfoam.com                      |
|    \\/     M anipulation  |                                                 |
\*---------------------------------------------------------------------------*/
FoamFile
{
    version     2.0;
    format      ascii;
    class       volVectorField;
    location    "12400";
    object      U;
}
// * * * * * * * * * * * * * * * * * * * * * * * * * * * * * * * * * * * * * //

dimensions      [0 1 -1 0 0 0 0];


internalField   nonuniform List<vector> 
2560
(
(0.031783 -2.65642e-05 0.00055414)
(0.0317457 -1.15351e-05 5.47714e-08)
(0.095556 -1.30961e-05 0.00078114)
(0.0954444 1.93946e-05 1.86921e-08)
(0.160055 -2.7173e-05 0.000526235)
(0.159871 2.99737e-05 5.88712e-09)
(0.225285 -3.60965e-05 0.000265663)
(0.225033 3.59287e-05 1.667e-09)
(0.291255 -3.91359e-05 0.000140235)
(0.29094 3.91668e-05 4.12827e-10)
(0.357976 -4.10576e-05 8.59262e-05)
(0.357605 4.10182e-05 1.04595e-10)
(0.425421 -4.23413e-05 5.94762e-05)
(0.425 4.23515e-05 1.34671e-10)
(0.493535 -4.33098e-05 4.47274e-05)
(0.49307 4.32288e-05 1.64677e-11)
(0.56226 -4.40603e-05 3.55905e-05)
(0.561757 4.40895e-05 9.49161e-11)
(0.631604 -4.46807e-05 2.94766e-05)
(0.63107 4.45841e-05 5.21746e-12)
(0.70165 -4.51971e-05 2.51454e-05)
(0.701091 4.5278e-05 8.84779e-11)
(0.772432 -4.56678e-05 2.19412e-05)
(0.771854 4.55624e-05 4.29872e-36)
(0.843989 -4.60799e-05 1.94892e-05)
(0.843396 4.61919e-05 6.95192e-11)
(0.916395 -4.65576e-05 1.75513e-05)
(0.915793 5.9678e-05 4.91764e-08)
(0.989653 -4.6988e-05 1.60155e-05)
(0.989045 2.04271e-05 2.5135e-21)
(1.06368 -4.69253e-05 1.47263e-05)
(1.06307 0.000103312 1.22254e-07)
(1.13835 -4.8028e-05 1.37063e-05)
(1.13775 -4.02622e-05 5.20663e-10)
(1.21354 -4.71906e-05 1.28234e-05)
(1.21294 0.000139412 3.93231e-08)
(1.28927 -4.88738e-05 1.20826e-05)
(1.28867 -5.23791e-05 7.85419e-10)
(1.36577 -4.73095e-05 1.14387e-05)
(1.36518 0.000152689 3.813e-08)
(1.44336 -4.98565e-05 1.08913e-05)
(1.44279 -6.44278e-05 5.75149e-10)
(1.52226 -4.73129e-05 1.04063e-05)
(1.5217 0.000165749 3.64398e-08)
(1.60253 -5.08637e-05 9.99086e-06)
(1.60198 -7.63607e-05 3.32401e-36)
(1.68414 -4.70901e-05 9.59128e-06)
(1.68361 0.00020531 1.45468e-07)
(1.76711 -5.20699e-05 9.29802e-06)
(1.76659 -0.000141669 1.45018e-21)
(1.85145 -4.67536e-05 8.97423e-06)
(1.85094 0.000278705 1.88215e-07)
(1.93718 -5.35261e-05 8.76307e-06)
(1.93669 -0.00022302 1.7416e-09)
(2.0243 -4.61673e-05 8.53351e-06)
(2.02383 0.000331476 7.37547e-08)
(2.11277 -5.51638e-05 8.34816e-06)
(2.11231 -0.000246807 3.59204e-09)
(2.20254 -4.52472e-05 8.16631e-06)
(2.2021 0.00035659 7.58987e-08)
(2.29368 -5.70811e-05 8.02327e-06)
(2.29325 -0.000271434 3.3311e-09)
(2.38639 -4.39647e-05 7.87777e-06)
(2.38596 0.000382074 7.19906e-08)
(2.4811 -5.93686e-05 7.76649e-06)
(2.48069 -0.000295899 1.51439e-09)
(2.57845 -4.22188e-05 7.64936e-06)
(2.57805 0.000407241 6.67114e-08)
(2.67911 -6.21312e-05 7.56355e-06)
(2.67872 -0.000319861 -1.45263e-37)
(2.78369 -3.99496e-05 7.43323e-06)
(2.7833 0.000464041 2.22081e-07)
(2.8926 -6.55339e-05 7.41001e-06)
(2.89222 -0.000408379 3.69311e-37)
(3.00603 -3.70807e-05 7.18301e-06)
(3.00566 0.000653228 7.32755e-07)
(3.12394 -6.96483e-05 7.30965e-06)
(3.12357 -0.000699817 1.11064e-21)
(3.24615 -3.35346e-05 7.05949e-06)
(3.24579 0.00098323 9.58517e-07)
(3.37249 -7.44554e-05 7.26307e-06)
(3.37213 -0.00107175 -5.2986e-37)
(3.50297 -2.93167e-05 7.08094e-06)
(3.50262 0.0013202 8.03612e-07)
(3.63805 -7.98929e-05 7.2639e-06)
(3.6377 -0.00137604 0)
(3.77874 -2.44501e-05 7.19664e-06)
(3.77838 0.00155266 4.2949e-07)
(3.9266 -8.59292e-05 7.30159e-06)
(3.92624 -0.00153637 -4.173e-37)
(4.08354 -1.89517e-05 7.29158e-06)
(4.08318 0.00168339 2.64169e-07)
(4.25145 -9.26328e-05 7.36919e-06)
(4.25108 -0.00163582 1.94106e-36)
(4.43182 -1.27519e-05 7.35163e-06)
(4.43146 0.00179974 3.57923e-07)
(4.6256 -0.000100102 7.46684e-06)
(4.62523 -0.00176784 -1.07467e-21)
(4.83313 -5.7708e-06 7.01342e-06)
(4.83276 0.0022463 2.23052e-06)
(5.05429 -0.000107939 7.61312e-06)
(5.05392 -0.00253571 0)
(5.28833 1.85864e-06 7.35329e-06)
(5.28797 0.00290512 1.65457e-06)
(5.53337 -0.000115701 7.83709e-06)
(5.53303 -0.00308631 3.55168e-08)
(5.78543 9.35529e-06 7.93227e-06)
(5.78512 0.00327392 7.18675e-07)
(6.03707 -0.000123311 8.24461e-06)
(6.03679 -0.00326897 1.56226e-07)
(6.27594 1.53383e-05 8.45979e-06)
(6.27572 0.00348766 1.31756e-06)
(6.48403 -0.00013118 9.038e-06)
(6.48388 -0.00351461 3.76314e-07)
(6.63796 1.877e-05 9.44652e-06)
(6.63791 0.00377488 2.10515e-06)
(6.71108 -0.000138529 1.03626e-05)
(6.71115 -0.0038497 6.02922e-07)
(6.67726 2.03278e-05 1.09522e-05)
(6.67748 0.00413874 2.55764e-06)
(6.51564 -0.000142671 1.20588e-05)
(6.51603 -0.00424872 6.49197e-07)
(6.2153 2.13717e-05 1.268e-05)
(6.21588 0.00452929 2.16576e-06)
(5.77845 -0.000141829 1.3638e-05)
(5.77924 -0.00462883 4.11006e-07)
(5.22113 2.14136e-05 1.40995e-05)
(5.22215 0.0048654 1.03066e-06)
(4.57118 -0.000137328 1.46355e-05)
(4.57244 -0.0049103 0)
(3.86392 1.82844e-05 1.48456e-05)
(3.86543 0.00510177 4.63131e-08)
(3.13711 -0.000131642 1.47199e-05)
(3.13886 -0.00495933 1.12166e-06)
(2.4261 1.13617e-05 1.47736e-05)
(2.42809 0.00510445 3.21176e-07)
(1.76034 -0.000125921 1.44424e-05)
(1.76251 -0.00494198 1.74671e-06)
(1.16163 2.22257e-06 1.4463e-05)
(1.16391 0.00506647 4.06188e-07)
(0.644038 -0.000120083 1.41321e-05)
(0.646322 -0.00490918 1.8149e-06)
(0.214865 -7.0903e-06 1.41952e-05)
(0.217018 0.00503547 3.82142e-07)
(-0.12382 -0.000114214 8.91537e-07)
(-0.12195 -0.000172258 4.29857e-06)
(-0.373684 -1.44026e-05 7.31583e-07)
(-0.372213 0.000258136 4.34478e-07)
(-0.538861 -0.000107828 7.06736e-07)
(-0.537841 -9.67916e-05 1.00678e-06)
(-0.625066 -2.05427e-05 5.554e-07)
(-0.624509 0.000192787 3.22664e-07)
(-0.639049 -0.000102097 5.32153e-07)
(-0.638946 -3.93379e-05 7.68777e-07)
(-0.588253 -2.58653e-05 3.97053e-07)
(-0.588583 0.000144075 2.3728e-07)
(-0.48054 -9.71098e-05 3.7766e-07)
(-0.481273 6.65817e-07 5.41038e-07)
(-0.32389 -3.04958e-05 2.59113e-07)
(-0.324985 0.000111422 1.62448e-07)
(-0.126148 -9.27812e-05 2.45382e-07)
(-0.127541 2.59283e-05 3.44917e-07)
(0.105235 -3.45612e-05 1.44462e-07)
(0.103643 9.19738e-05 1.4802e-07)
(0.363458 -8.89501e-05 1.40701e-07)
(0.361791 3.94623e-05 1.98806e-07)
(0.642518 -3.80516e-05 5.97734e-08)
(0.640874 8.25808e-05 1.95487e-07)
(0.937179 -8.55482e-05 6.51042e-08)
(0.935632 4.48265e-05 2.09979e-07)
(1.24286 -4.10646e-05 5.08557e-22)
(1.24145 8.03535e-05 2.34192e-07)
(1.55542 -8.25812e-05 6.31755e-08)
(1.55417 4.43057e-05 2.23306e-07)
(1.87093 -4.36143e-05 7.40917e-08)
(1.86984 7.95908e-05 2.30963e-07)
(2.18542 -8.00452e-05 1.54656e-07)
(2.18449 4.6578e-05 2.35745e-07)
(2.49472 -4.58953e-05 1.92282e-07)
(2.49393 7.75361e-05 2.43696e-07)
(2.79434 -7.78889e-05 2.96326e-07)
(2.79367 4.85003e-05 2.95481e-07)
(3.07954 -4.79805e-05 3.61738e-07)
(3.07898 7.56458e-05 3.63415e-07)
(3.34544 -7.60847e-05 4.83244e-07)
(3.34497 5.00974e-05 4.82651e-07)
(3.58729 -4.98907e-05 5.61936e-07)
(3.58691 7.39032e-05 5.63614e-07)
(3.80081 -7.4535e-05 6.8094e-07)
(3.80051 5.1463e-05 6.80589e-07)
(3.98254 -5.15911e-05 7.48781e-07)
(3.98231 7.23461e-05 7.50469e-07)
(4.13014 -7.3161e-05 8.39897e-07)
(4.12996 5.26734e-05 8.39772e-07)
(4.24265 -5.30005e-05 8.74357e-07)
(4.24252 7.10583e-05 8.76055e-07)
(4.32062 -7.18764e-05 9.22207e-07)
(4.32054 5.38122e-05 9.22284e-07)
(4.36612 -5.41407e-05 9.15302e-07)
(4.36607 7.00201e-05 9.17004e-07)
(4.38256 -7.06493e-05 9.21599e-07)
(4.38255 5.49091e-05 9.21855e-07)
(4.37451 -5.50887e-05 8.82379e-07)
(4.37452 6.91568e-05 8.84079e-07)
(4.34736 -6.95139e-05 8.6241e-07)
(4.34739 5.59274e-05 8.62822e-07)
(4.307 -5.59086e-05 8.09994e-07)
(4.30704 6.84059e-05 8.11692e-07)
(4.25951 -6.85487e-05 7.82748e-07)
(4.25956 5.67868e-05 7.83302e-07)
(4.21087 -5.66549e-05 7.33215e-07)
(4.21091 6.77147e-05 7.34917e-07)
(4.16672 -6.77493e-05 7.11397e-07)
(4.16676 5.749e-05 7.12091e-07)
(4.13223 -5.73502e-05 6.72545e-07)
(4.13225 6.7062e-05 6.74271e-07)
(4.11189 -6.70706e-05 6.60694e-07)
(4.1119 5.80803e-05 6.6154e-07)
(4.10948 -5.798e-05 6.34372e-07)
(4.10947 6.64637e-05 6.36153e-07)
(4.12796 -6.64643e-05 6.33892e-07)
(4.12793 5.86046e-05 6.34919e-07)
(4.16934 -5.85108e-05 6.2308e-07)
(4.16929 6.59543e-05 6.24962e-07)
(4.23465 -6.59315e-05 6.38479e-07)
(4.23458 5.90607e-05 6.39726e-07)
(4.32378 -5.89537e-05 6.48885e-07)
(4.32369 6.55234e-05 6.50925e-07)
(4.43543 -6.54336e-05 6.89355e-07)
(4.43532 5.9486e-05 6.90873e-07)
(4.56708 -5.93928e-05 7.29001e-07)
(4.56696 6.5088e-05 7.31261e-07)
(4.71495 -6.50225e-05 7.97929e-07)
(4.71482 5.98278e-05 7.99774e-07)
(4.87418 -5.9758e-05 8.69522e-07)
(4.87405 6.47185e-05 8.72063e-07)
(5.03893 -6.46829e-05 9.69636e-07)
(5.03881 6.01005e-05 9.71856e-07)
(5.20274 -6.00653e-05 1.07501e-06)
(5.20262 6.43998e-05 1.07788e-06)
(5.35884 -6.43489e-05 1.21132e-06)
(5.35874 6.03692e-05 1.21395e-06)
(5.50063 -6.02923e-05 1.36053e-06)
(5.50054 6.41545e-05 1.36376e-06)
(5.62207 -6.39872e-05 1.55079e-06)
(5.622 6.06664e-05 1.55383e-06)
(5.71814 -6.04389e-05 1.77019e-06)
(5.71809 6.39831e-05 1.77376e-06)
(5.78523 -6.36247e-05 2.04828e-06)
(5.7852 6.09648e-05 2.05171e-06)
(5.82133 -6.05519e-05 2.37677e-06)
(5.82131 6.38391e-05 2.38066e-06)
(5.82614 -6.33592e-05 2.77996e-06)
(5.82615 6.1166e-05 2.78371e-06)
(5.80107 -6.07183e-05 3.24664e-06)
(5.80109 6.36361e-05 3.25079e-06)
(5.74897 -6.32854e-05 3.78781e-06)
(5.74901 6.11745e-05 3.79184e-06)
(5.67383 -6.10587e-05 4.37857e-06)
(5.67388 6.32537e-05 4.38293e-06)
(5.58033 -6.34157e-05 5.01264e-06)
(5.58038 6.09778e-05 5.01688e-06)
(5.47341 -6.15897e-05 5.64686e-06)
(5.47348 6.26755e-05 5.65138e-06)
(5.35783 -6.37368e-05 6.25493e-06)
(5.3579 6.05884e-05 6.25934e-06)
(5.23776 -6.21658e-05 6.7831e-06)
(5.23784 6.20471e-05 6.78775e-06)
(5.11657 -6.40219e-05 7.2003e-06)
(5.11664 6.0233e-05 7.20486e-06)
(4.99662 -6.2585e-05 7.45765e-06)
(4.99669 6.15707e-05 7.46241e-06)
(4.87925 -6.40627e-05 7.53731e-06)
(4.87932 6.01195e-05 7.54201e-06)
(4.76488 -6.26296e-05 7.41646e-06)
(4.76495 6.14637e-05 7.42134e-06)
(4.65316 -6.37119e-05 7.10822e-06)
(4.65323 6.0395e-05 7.11305e-06)
(4.5432 -6.22802e-05 6.62448e-06)
(4.54327 6.17456e-05 6.62946e-06)
(4.43379 -6.30704e-05 6.00795e-06)
(4.43387 6.0958e-05 6.01289e-06)
(4.32367 -6.17365e-05 5.29449e-06)
(4.32374 6.2217e-05 5.29957e-06)
(4.21169 -6.23879e-05 4.53922e-06)
(4.21177 6.15587e-05 4.54425e-06)
(4.09703 -6.12717e-05 3.78007e-06)
(4.09711 6.26048e-05 3.78521e-06)
(3.97924 -6.18935e-05 3.06372e-06)
(3.97932 6.19674e-05 3.06879e-06)
(3.85834 -6.10471e-05 2.41312e-06)
(3.85843 6.27476e-05 2.41828e-06)
(3.73479 -6.17048e-05 1.85166e-06)
(3.73487 6.20663e-05 1.85674e-06)
(3.60939 -6.10677e-05 1.38192e-06)
(3.60948 6.26407e-05 1.38707e-06)
(3.48327 -6.1733e-05 1.00734e-06)
(3.48336 6.19439e-05 1.0124e-06)
(3.3577 -6.12347e-05 7.15368e-07)
(3.35779 6.23827e-05 8.90988e-07)
(3.234 -6.18528e-05 4.98341e-07)
(3.23409 6.17252e-05 9.03138e-07)
(3.11342 -6.14204e-05 3.38989e-07)
(3.11351 6.21009e-05 9.14279e-07)
(2.99703 -6.19606e-05 2.27806e-07)
(2.99712 6.15136e-05 9.26422e-07)
(2.88565 -6.15579e-05 1.89887e-07)
(2.88574 6.18624e-05 9.37504e-07)
(2.77976 -6.20108e-05 2.08238e-07)
(2.77985 6.13544e-05 9.49497e-07)
(2.6795 -6.16372e-05 2.05763e-07)
(2.67958 6.16769e-05 9.60427e-07)
(2.58462 -6.20072e-05 2.26742e-07)
(2.5847 6.12434e-05 9.72084e-07)
(2.49451 -6.16667e-05 2.21507e-07)
(2.49459 6.15362e-05 9.82784e-07)
(2.4082 -6.19647e-05 2.45665e-07)
(2.40827 6.11656e-05 9.93921e-07)
(2.32437 -6.16788e-05 2.49256e-07)
(2.32444 6.14077e-05 1.00438e-06)
(2.24143 -6.19185e-05 2.64756e-07)
(2.24151 6.10857e-05 1.01488e-06)
(2.15757 -6.16166e-05 2.74478e-07)
(2.15765 6.13486e-05 1.02515e-06)
(2.07074 -6.18933e-05 2.76206e-07)
(2.07083 6.09787e-05 1.03502e-06)
(1.97884 -6.15885e-05 2.90656e-07)
(1.97894 6.12501e-05 1.04525e-06)
(1.87971 -6.18279e-05 2.88385e-07)
(1.87982 6.09054e-05 1.05472e-06)
(1.77132 -6.15584e-05 3.06728e-07)
(1.77145 6.11486e-05 1.06515e-06)
(1.65182 -6.17622e-05 3.02173e-07)
(1.65197 6.08253e-05 1.07464e-06)
(1.51974 -6.15254e-05 3.22604e-07)
(1.51991 6.10447e-05 1.08572e-06)
(1.37406 -6.1696e-05 3.19614e-07)
(1.37428 6.07381e-05 1.09587e-06)
(1.21441 -6.14898e-05 3.38118e-07)
(1.21467 6.09382e-05 1.10822e-06)
(1.04111 -6.16288e-05 3.36445e-07)
(1.04145 6.06434e-05 1.11987e-06)
(0.855324 -6.14518e-05 3.53107e-07)
(0.855762 6.08284e-05 1.13426e-06)
(0.659059 -6.15599e-05 3.52535e-07)
(0.659651 6.0541e-05 1.14832e-06)
(0.455202 -6.14108e-05 3.67413e-07)
(0.456013 6.07151e-05 1.16551e-06)
(0.24746 -6.14886e-05 3.67723e-07)
(0.248541 6.043e-05 1.18281e-06)
(0.0402896 -6.1366e-05 3.80809e-07)
(0.0415855 6.0598e-05 1.20333e-06)
(-0.161232 -6.14209e-05 3.81721e-07)
(-0.160031 6.03173e-05 1.22422e-06)
(-0.351879 -6.13037e-05 3.95094e-07)
(-0.35097 6.04622e-05 1.24575e-06)
(-0.526397 -6.13528e-05 3.99272e-07)
(-0.525776 6.01998e-05 1.26731e-06)
(-0.679624 -6.12383e-05 4.13272e-07)
(-0.67922 6.03222e-05 1.2889e-06)
(-0.806831 -6.12812e-05 4.20554e-07)
(-0.806574 6.00727e-05 1.31036e-06)
(-0.904007 -6.1168e-05 4.34577e-07)
(-0.90385 6.01755e-05 1.33125e-06)
(-0.968047 -6.12064e-05 4.44349e-07)
(-0.967965 5.99356e-05 1.35181e-06)
(-0.996974 -6.10928e-05 4.57764e-07)
(-0.996955 6.0022e-05 1.37147e-06)
(-0.990022 -6.11281e-05 4.68326e-07)
(-0.99006 5.97887e-05 1.39084e-06)
(-0.947641 -6.1015e-05 4.81493e-07)
(-0.947737 5.98592e-05 1.40945e-06)
(-0.8715 -6.10463e-05 4.90644e-07)
(-0.871664 5.96322e-05 1.4283e-06)
(-0.764354 -6.09332e-05 5.04679e-07)
(-0.764607 5.96882e-05 1.44698e-06)
(-0.629875 -6.09626e-05 5.09516e-07)
(-0.63026 5.94644e-05 1.4669e-06)
(-0.472418 -6.08472e-05 5.26687e-07)
(-0.473004 5.95077e-05 1.48737e-06)
(-0.296736 -6.08763e-05 5.27718e-07)
(-0.297605 5.92845e-05 1.51035e-06)
(-0.107864 -6.07574e-05 5.47135e-07)
(-0.109005 5.93156e-05 1.53435e-06)
(0.0891025 -6.07915e-05 5.4809e-07)
(0.0880025 5.90976e-05 1.56212e-06)
(0.289518 -6.06581e-05 5.67488e-07)
(0.2887 5.91069e-05 1.58869e-06)
(0.489213 -6.06956e-05 5.7284e-07)
(0.488656 5.88872e-05 1.61754e-06)
(0.684467 -6.05578e-05 5.95166e-07)
(0.684087 5.88927e-05 1.64456e-06)
(0.872109 -6.0595e-05 6.05421e-07)
(0.871839 5.86622e-05 1.67437e-06)
(1.04956 -6.04522e-05 6.3091e-07)
(1.04935 5.8664e-05 1.70141e-06)
(1.21485 -6.04854e-05 6.46261e-07)
(1.2147 5.84262e-05 1.73156e-06)
(1.36661 -6.03367e-05 6.7488e-07)
(1.36649 5.8425e-05 1.75788e-06)
(1.50394 -6.03722e-05 6.95301e-07)
(1.50384 5.81734e-05 1.78757e-06)
(1.62639 -6.02023e-05 7.26805e-07)
(1.62631 5.81848e-05 1.81227e-06)
(1.73386 -6.02478e-05 8.35559e-07)
(1.7338 5.79113e-05 1.84068e-06)
(1.82649 -6.00567e-05 1.01543e-06)
(1.82643 5.79363e-05 1.86287e-06)
(1.90453 -6.01079e-05 1.21549e-06)
(1.90449 5.76449e-05 1.88931e-06)
(1.96832 -5.98971e-05 1.4342e-06)
(1.96829 5.76831e-05 1.90823e-06)
(2.0181 -5.99576e-05 1.6666e-06)
(2.01808 5.73697e-05 1.9322e-06)
(2.05398 -5.97316e-05 1.90889e-06)
(2.05396 5.74186e-05 1.9473e-06)
(2.07584 -5.97966e-05 2.15462e-06)
(2.07583 5.70872e-05 2.13517e-06)
(2.08329 -5.95796e-05 2.39724e-06)
(2.08329 5.71248e-05 2.37719e-06)
(2.07567 -5.96311e-05 2.63314e-06)
(2.07568 5.67922e-05 2.61229e-06)
(2.05209 -5.9444e-05 2.85445e-06)
(2.0521 5.68007e-05 2.83335e-06)
(2.01146 -5.94822e-05 3.06132e-06)
(2.01148 5.6465e-05 3.03968e-06)
(1.95267 -5.93169e-05 3.25009e-06)
(1.9527 5.64557e-05 3.22867e-06)
(1.87471 -5.93517e-05 3.42345e-06)
(1.87475 5.61042e-05 3.40181e-06)
(1.77683 -5.92022e-05 3.58308e-06)
(1.77689 5.60868e-05 3.56227e-06)
(1.65877 -5.9232e-05 3.73592e-06)
(1.65884 5.57174e-05 3.71531e-06)
(1.52088 -5.90801e-05 3.88785e-06)
(1.52096 5.57138e-05 3.86877e-06)
(1.36427 -5.91148e-05 4.04539e-06)
(1.36437 5.5311e-05 4.02696e-06)
(1.19098 -5.89375e-05 4.21668e-06)
(1.1911 5.53477e-05 4.20058e-06)
(1.00394 -5.8986e-05 4.40423e-06)
(1.0041 5.48953e-05 4.38921e-06)
(0.807025 -5.87787e-05 4.61431e-06)
(0.807229 5.49805e-05 4.60241e-06)
(0.604937 -5.88268e-05 4.84601e-06)
(0.605215 5.44829e-05 4.83549e-06)
(0.40305 -5.86093e-05 5.09784e-06)
(0.403458 5.45998e-05 5.09113e-06)
(0.20721 -5.86394e-05 5.3663e-06)
(0.207836 5.40631e-05 5.36102e-06)
(0.0234846 -5.84366e-05 5.64194e-06)
(0.0243501 5.41898e-05 5.64091e-06)
(-0.142022 -5.84519e-05 5.91924e-06)
(-0.141294 5.3628e-05 5.91933e-06)
(-0.284004 -5.82184e-05 6.19067e-06)
(-0.283582 5.37212e-05 6.18567e-06)
(-0.398087 -5.83046e-05 6.43957e-06)
(-0.397868 5.31284e-05 6.43462e-06)
(-0.480913 -5.79792e-05 6.67134e-06)
(-0.480803 5.32318e-05 6.66197e-06)
(-0.530589 -5.81828e-05 6.86499e-06)
(-0.530543 5.25564e-05 6.85654e-06)
(-0.546868 -5.77373e-05 7.03728e-06)
(-0.546867 5.26986e-05 7.02543e-06)
(-0.531208 -5.80596e-05 7.17065e-06)
(-0.531247 5.19397e-05 7.1609e-06)
(-0.486753 -5.75162e-05 7.28631e-06)
(-0.486833 5.20977e-05 7.27437e-06)
(-0.418034 -5.79139e-05 7.37894e-06)
(-0.418165 5.12988e-05 7.37038e-06)
(-0.330665 -5.72837e-05 7.46789e-06)
(-0.330877 5.14587e-05 7.45821e-06)
(-0.230929 -5.77496e-05 7.54896e-06)
(-0.231283 5.06267e-05 7.54375e-06)
(-0.125363 -5.70351e-05 7.63986e-06)
(-0.125906 5.07804e-05 7.63422e-06)
(-0.0203166 -5.75601e-05 7.73523e-06)
(-0.0209337 4.99228e-05 7.73469e-06)
(0.0785669 -5.67623e-05 7.84749e-06)
(0.0781231 5.0084e-05 7.84669e-06)
(0.166848 -5.73445e-05 7.96837e-06)
(0.166575 4.91384e-05 7.96475e-06)
(0.241304 -5.64531e-05 8.10798e-06)
(0.241142 4.93694e-05 8.10251e-06)
(0.300075 -5.7118e-05 8.24894e-06)
(0.299979 4.83032e-05 8.24104e-06)
(0.342677 -5.6135e-05 8.40212e-06)
(0.342621 4.85991e-05 8.39306e-06)
(0.369905 -5.68863e-05 8.55174e-06)
(0.369876 4.74087e-05 8.54093e-06)
(0.38364 -5.57948e-05 8.71219e-06)
(0.383628 4.77883e-05 8.70103e-06)
(0.386538 -5.66579e-05 8.86389e-06)
(0.386539 4.64484e-05 8.85168e-06)
(0.381729 -5.54411e-05 9.02777e-06)
(0.381737 4.69295e-05 9.01585e-06)
(0.372496 -5.64238e-05 9.1835e-06)
(0.372508 4.54329e-05 9.17101e-06)
(0.361969 -5.50845e-05 9.35481e-06)
(0.361981 4.60131e-05 9.34289e-06)
(0.352952 -5.61753e-05 9.52456e-06)
(0.35296 4.4372e-05 9.51221e-06)
(0.347758 -5.46997e-05 9.71561e-06)
(0.34776 4.50651e-05 9.70376e-06)
(0.348061 -5.59329e-05 9.90278e-06)
(0.348056 4.32463e-05 9.8903e-06)
(0.354902 -5.42943e-05 1.01164e-05)
(0.35489 4.4079e-05 1.0104e-05)
(0.368754 -5.56802e-05 1.03261e-05)
(0.368734 4.20743e-05 1.03127e-05)
(0.389585 -5.38652e-05 1.05622e-05)
(0.38956 4.30608e-05 1.05483e-05)
(0.416923 -5.54327e-05 1.07865e-05)
(0.416894 4.08445e-05 1.07711e-05)
(0.449951 -5.34237e-05 1.10351e-05)
(0.44992 4.20037e-05 1.10187e-05)
(0.487588 -5.51975e-05 1.12657e-05)
(0.487557 3.95557e-05 1.12474e-05)
(0.528636 -5.29533e-05 1.1523e-05)
(0.528606 4.09307e-05 1.15031e-05)
(0.571755 -5.49911e-05 1.17505e-05)
(0.571727 3.81988e-05 1.17284e-05)
(0.615551 -5.24715e-05 1.20077e-05)
(0.615525 3.98321e-05 1.19837e-05)
(0.658625 -5.47887e-05 1.22305e-05)
(0.658603 3.68073e-05 1.22045e-05)
(0.699558 -5.20104e-05 1.24796e-05)
(0.699538 3.86848e-05 1.24514e-05)
(0.737085 -5.4576e-05 1.26964e-05)
(0.737069 3.54057e-05 1.26665e-05)
(0.770079 -5.15587e-05 1.29332e-05)
(0.770066 3.75099e-05 1.29012e-05)
(0.797587 -5.43984e-05 1.31285e-05)
(0.797577 3.39589e-05 1.30952e-05)
(0.818993 -5.11036e-05 1.33471e-05)
(0.818986 3.63301e-05 1.33119e-05)
(0.834078 -5.42404e-05 1.35151e-05)
(0.834073 3.24923e-05 1.34794e-05)
(0.842978 -5.06708e-05 1.36997e-05)
(0.842976 3.51286e-05 1.36624e-05)
(0.846167 -5.41194e-05 1.3825e-05)
(0.846167 3.09975e-05 1.3788e-05)
(0.844423 -5.02593e-05 1.39685e-05)
(0.844424 3.3914e-05 1.39301e-05)
(0.838759 -5.403e-05 1.40495e-05)
(0.838761 2.9487e-05 1.40122e-05)
(0.83027 -4.98741e-05 1.41513e-05)
(0.830273 3.26869e-05 1.41126e-05)
(0.819952 -5.39914e-05 1.41889e-05)
(0.819956 2.7947e-05 1.4152e-05)
(0.808648 -4.95071e-05 1.42622e-05)
(0.808651 3.14595e-05 1.42236e-05)
(0.796919 -5.39924e-05 1.42755e-05)
(0.796922 2.63931e-05 1.42393e-05)
(0.78496 -4.91797e-05 1.43378e-05)
(0.784964 3.02135e-05 1.42994e-05)
(0.772723 -5.40138e-05 1.43539e-05)
(0.772727 2.4848e-05 1.43185e-05)
(0.759908 -4.88817e-05 1.44299e-05)
(0.759912 2.89618e-05 1.43918e-05)
(0.746026 -5.40797e-05 1.4462e-05)
(0.746031 2.32909e-05 1.44276e-05)
(0.730642 -4.8596e-05 1.45675e-05)
(0.730647 2.77235e-05 1.45297e-05)
(0.713423 -5.41849e-05 1.46198e-05)
(0.713428 2.17301e-05 1.45867e-05)
(0.694238 -4.83436e-05 1.47429e-05)
(0.694245 2.64789e-05 1.47057e-05)
(0.673272 -5.43213e-05 1.47979e-05)
(0.673279 2.01756e-05 1.47665e-05)
(0.650996 -4.81362e-05 1.4909e-05)
(0.651003 2.52167e-05 1.48727e-05)
(0.62819 -5.44957e-05 1.49296e-05)
(0.628197 1.86216e-05 1.49005e-05)
(0.605827 -4.79842e-05 1.49889e-05)
(0.605834 2.39256e-05 1.49538e-05)
(0.585075 -5.47109e-05 1.49375e-05)
(0.585082 1.70651e-05 1.49107e-05)
(0.567141 -4.78871e-05 1.49125e-05)
(0.567146 2.26043e-05 1.48781e-05)
(0.553068 -5.49847e-05 1.47594e-05)
(0.553071 1.54883e-05 1.47346e-05)
(0.543775 -4.78429e-05 1.46383e-05)
(0.543776 2.12538e-05 1.4604e-05)
(0.539981 -5.531e-05 1.43864e-05)
(0.53998 1.38999e-05 1.43629e-05)
(0.54205 -4.78503e-05 1.41831e-05)
(0.542048 1.98764e-05 1.41476e-05)
(0.549989 -5.56831e-05 1.38524e-05)
(0.549986 1.23082e-05 1.38291e-05)
(0.563517 -4.79306e-05 1.35904e-05)
(0.563512 1.84553e-05 1.35521e-05)
(0.582075 -5.60934e-05 1.32186e-05)
(0.58207 1.07337e-05 1.31944e-05)
(0.604853 -4.80806e-05 1.29398e-05)
(0.604847 1.70026e-05 1.28972e-05)
(0.630869 -5.65513e-05 1.25606e-05)
(0.630862 9.18141e-06 1.25347e-05)
(0.659046 -4.83235e-05 1.22945e-05)
(0.659039 1.55091e-05 1.22461e-05)
(0.688233 -5.70583e-05 1.19394e-05)
(0.688227 7.67224e-06 1.19115e-05)
(0.717347 -4.86738e-05 1.17141e-05)
(0.717341 1.39792e-05 1.16587e-05)
(0.745458 -5.76284e-05 1.14033e-05)
(0.745453 6.22038e-06 1.13735e-05)
(0.771765 -4.91546e-05 1.12342e-05)
(0.771761 1.24129e-05 1.11707e-05)
(0.795719 -5.82754e-05 1.09782e-05)
(0.795715 4.84549e-06 1.09474e-05)
(0.817157 -4.97802e-05 1.08732e-05)
(0.817154 1.08226e-05 1.08009e-05)
(0.836228 -5.90117e-05 1.06657e-05)
(0.836226 3.57354e-06 1.06351e-05)
(0.853469 -5.05754e-05 1.06028e-05)
(0.853467 9.21331e-06 1.05207e-05)
(0.869846 -5.98564e-05 1.03999e-05)
(0.869844 2.42806e-06 1.0371e-05)
(0.886781 -5.15718e-05 1.03176e-05)
(0.886778 7.58656e-06 1.0224e-05)
(0.906252 -6.08224e-05 1.07037e-05)
(0.906249 1.44466e-06 1.00106e-05)
(0.930951 -5.2817e-05 9.82801e-06)
(0.930947 5.93363e-06 9.71993e-06)
(0.964644 -6.1935e-05 1.15041e-05)
(0.964638 6.56856e-07 9.32236e-06)
(1.01244 -5.43705e-05 8.87724e-06)
(1.01244 4.24728e-06 8.74903e-06)
(1.08163 -4.65591e-05 8.062e-06)
(1.08163 7.20252e-08 8.03955e-06)
(1.18306 -3.91123e-05 7.20645e-06)
(1.18306 2.69654e-06 7.09709e-06)
(1.33294 -3.02844e-05 6.00448e-06)
(1.33293 -4.85049e-07 5.98143e-06)
(1.55329 -2.27969e-05 4.72684e-06)
(1.55329 1.31083e-06 4.64063e-06)
(1.87279 -1.28947e-05 3.17569e-06)
(1.87279 -1.06791e-06 3.15559e-06)
(2.42576 -5.28953e-06 1.5299e-06)
(2.42576 -9.2052e-08 1.65759e-06)
(0.0317456 -1.15187e-05 -5.4739e-08)
(0.031783 -2.65791e-05 -0.000552489)
(0.0954441 1.94556e-05 -1.87057e-08)
(0.0955559 -1.31863e-05 -0.000778814)
(0.15987 3.00674e-05 -5.91177e-09)
(0.160055 -2.73312e-05 -0.000524667)
(0.225032 3.60451e-05 -1.67296e-09)
(0.225284 -3.64602e-05 -0.000264871)
(0.290939 3.92939e-05 -4.13608e-10)
(0.291255 -3.93609e-05 -0.000139817)
(0.357604 4.11513e-05 -1.0482e-10)
(0.357976 -4.11465e-05 -8.56702e-05)
(0.424998 4.2489e-05 -1.35063e-10)
(0.425421 -4.2426e-05 -5.9299e-05)
(0.493068 4.33692e-05 -1.6587e-11)
(0.493534 -4.33691e-05 -4.45942e-05)
(0.561756 4.42326e-05 -9.52771e-11)
(0.562259 -4.41133e-05 -3.54844e-05)
(0.631069 4.47289e-05 -5.29603e-12)
(0.631603 -4.47187e-05 -2.93888e-05)
(0.70109 4.54249e-05 -8.85184e-11)
(0.701649 -4.52408e-05 -2.50705e-05)
(0.771852 4.57104e-05 3.44505e-21)
(0.772431 -4.56823e-05 -2.18758e-05)
(0.843394 4.63417e-05 -6.953e-11)
(0.843988 -4.60558e-05 -1.94311e-05)
(0.915791 5.9829e-05 -4.91775e-08)
(0.916394 -4.64608e-05 -1.74991e-05)
(0.989042 2.05787e-05 -6.13169e-19)
(0.989651 -4.69958e-05 -1.59678e-05)
(1.06307 0.000103465 -1.22252e-07)
(1.06368 -4.69586e-05 -1.46824e-05)
(1.13774 -4.01079e-05 -5.20683e-10)
(1.13835 -4.80693e-05 -1.36656e-05)
(1.21294 0.000139567 -3.93258e-08)
(1.21354 -4.72306e-05 -1.27853e-05)
(1.28867 -5.22237e-05 -7.85437e-10)
(1.28927 -4.89133e-05 -1.20467e-05)
(1.36518 0.000152846 -3.81302e-08)
(1.36576 -4.73477e-05 -1.14047e-05)
(1.44278 -6.42707e-05 -5.75179e-10)
(1.44336 -4.98932e-05 -1.0859e-05)
(1.5217 0.000165908 -3.64397e-08)
(1.52226 -4.73498e-05 -1.03755e-05)
(1.60198 -7.62021e-05 6.20452e-19)
(1.60253 -5.08996e-05 -9.96125e-06)
(1.6836 0.000205471 -1.45468e-07)
(1.68414 -4.71266e-05 -9.56278e-06)
(1.76658 -0.000141509 -1.45018e-21)
(1.7671 -5.21054e-05 -9.27051e-06)
(1.85094 0.000278867 -1.88215e-07)
(1.85144 -4.67895e-05 -8.94759e-06)
(1.93669 -0.000222859 -1.74161e-09)
(1.93718 -5.35611e-05 -8.7372e-06)
(2.02382 0.00033164 -7.3755e-08)
(2.0243 -4.62027e-05 -8.50833e-06)
(2.1123 -0.000246645 -3.59202e-09)
(2.11276 -5.51987e-05 -8.3236e-06)
(2.2021 0.000356756 -7.58991e-08)
(2.20254 -4.52825e-05 -8.14231e-06)
(2.29324 -0.00027127 -3.33111e-09)
(2.29368 -5.71162e-05 -7.99976e-06)
(2.38596 0.000382241 -7.19908e-08)
(2.38638 -4.4e-05 -7.8547e-06)
(2.48069 -0.000295734 -1.51443e-09)
(2.4811 -5.94039e-05 -7.74381e-06)
(2.57804 0.000407409 -6.67116e-08)
(2.57844 -4.22544e-05 -7.62704e-06)
(2.67871 -0.000319695 -5.14565e-19)
(2.6791 -6.21668e-05 -7.54154e-06)
(2.7833 0.00046421 -2.22081e-07)
(2.78369 -3.99855e-05 -7.4115e-06)
(2.89222 -0.000408211 0)
(2.8926 -6.55699e-05 -7.38853e-06)
(3.00566 0.000653399 -7.32756e-07)
(3.00603 -3.71168e-05 -7.16174e-06)
(3.12357 -0.000699648 -3.74102e-19)
(3.12394 -6.96846e-05 -7.28857e-06)
(3.24579 0.000983403 -9.58518e-07)
(3.24615 -3.3571e-05 -7.03857e-06)
(3.37213 -0.00107158 -2.18947e-21)
(3.37249 -7.4492e-05 -7.24229e-06)
(3.50261 0.00132037 -8.03613e-07)
(3.50297 -2.93534e-05 -7.06028e-06)
(3.63769 -0.00137587 -2.96043e-18)
(3.63805 -7.99299e-05 -7.24333e-06)
(3.77838 0.00155284 -4.29491e-07)
(3.77873 -2.4487e-05 -7.17615e-06)
(3.92624 -0.0015362 -1.07678e-21)
(3.9266 -8.59664e-05 -7.28115e-06)
(4.08318 0.00168357 -2.6417e-07)
(4.08354 -1.89889e-05 -7.27119e-06)
(4.25108 -0.00163565 9.86624e-35)
(4.25144 -9.26704e-05 -7.34881e-06)
(4.43145 0.00179992 -3.57924e-07)
(4.43182 -1.27894e-05 -7.33125e-06)
(4.62523 -0.00176766 -4.29867e-21)
(4.6256 -0.00010014 -7.44645e-06)
(4.83276 0.00224648 -2.23052e-06)
(4.83313 -5.80859e-06 -6.99299e-06)
(5.05392 -0.00253554 -3.23725e-21)
(5.05429 -0.000107977 -7.59264e-06)
(5.28797 0.00290531 -1.65456e-06)
(5.28833 1.82054e-06 -7.33275e-06)
(5.53303 -0.00308613 -3.55168e-08)
(5.53337 -0.000115739 -7.81646e-06)
(5.78512 0.0032741 -7.18676e-07)
(5.78543 9.31686e-06 -7.91154e-06)
(6.03679 -0.00326879 -1.56226e-07)
(6.03707 -0.00012335 -8.22377e-06)
(6.27572 0.00348785 -1.31756e-06)
(6.27595 1.52996e-05 -8.43881e-06)
(6.48388 -0.00351443 -3.76314e-07)
(6.48403 -0.00013122 -9.01688e-06)
(6.63791 0.00377507 -2.10515e-06)
(6.63796 1.87309e-05 -9.42524e-06)
(6.71116 -0.00384952 -6.02922e-07)
(6.71108 -0.000138568 -1.03412e-05)
(6.67748 0.00413893 -2.55764e-06)
(6.67727 2.02883e-05 -1.09306e-05)
(6.51603 -0.00424853 -6.49197e-07)
(6.51565 -0.000142712 -1.2037e-05)
(6.21589 0.00452948 -2.16576e-06)
(6.21531 2.13318e-05 -1.2658e-05)
(5.77925 -0.00462865 -4.11005e-07)
(5.77845 -0.00014187 -1.36157e-05)
(5.22216 0.00486559 -1.03067e-06)
(5.22114 2.13733e-05 -1.4077e-05)
(4.57245 -0.00491011 -2.62457e-18)
(4.57118 -0.00013737 -1.46127e-05)
(3.86544 0.00510197 -4.63133e-08)
(3.86392 1.82437e-05 -1.48225e-05)
(3.13887 -0.00495914 -1.12166e-06)
(3.13711 -0.000131685 -1.46964e-05)
(2.42809 0.00510465 -3.21177e-07)
(2.42611 1.13206e-05 -1.47496e-05)
(1.76251 -0.00494179 -1.74672e-06)
(1.76034 -0.000125963 -1.44178e-05)
(1.16392 0.00506667 -4.06188e-07)
(1.16163 2.181e-06 -1.44378e-05)
(0.64633 -0.00490899 -1.8149e-06)
(0.644041 -0.000120127 -1.41063e-05)
(0.217026 0.00503567 -3.82142e-07)
(0.214868 -7.13234e-06 -1.41686e-05)
(-0.121944 -0.000172053 -4.32585e-06)
(-0.123818 -0.000114258 -8.91537e-07)
(-0.372207 0.000258337 -4.34478e-07)
(-0.373681 -1.44451e-05 -7.31584e-07)
(-0.537837 -9.65833e-05 -1.00678e-06)
(-0.538859 -0.000107873 -7.06735e-07)
(-0.624506 0.000192991 -3.22664e-07)
(-0.625065 -2.05857e-05 -5.55401e-07)
(-0.638944 -3.91261e-05 -7.68778e-07)
(-0.639048 -0.000102143 -5.32152e-07)
(-0.588583 0.000144281 -2.3728e-07)
(-0.588252 -2.59088e-05 -3.97055e-07)
(-0.481274 8.81396e-07 -5.41038e-07)
(-0.480539 -9.71573e-05 -3.77659e-07)
(-0.324987 0.000111633 -1.62448e-07)
(-0.32389 -3.05397e-05 -2.59115e-07)
(-0.127544 2.6148e-05 -3.44918e-07)
(-0.126148 -9.28301e-05 -2.4538e-07)
(0.103639 9.21882e-05 -9.94235e-08)
(0.105234 -3.46055e-05 -1.44464e-07)
(0.361786 3.96863e-05 -1.87565e-07)
(0.363457 -8.90004e-05 -1.40699e-07)
(0.640869 8.27994e-05 -5.11567e-08)
(0.642516 -3.80963e-05 -5.97766e-08)
(0.935626 4.50553e-05 -7.43385e-08)
(0.937176 -8.55999e-05 -6.51027e-08)
(1.24145 8.05768e-05 -5.95633e-08)
(1.24285 -4.11097e-05 1.112e-21)
(1.55417 4.45396e-05 -6.17976e-08)
(1.55542 -8.26344e-05 -6.31746e-08)
(1.86984 7.98198e-05 -7.58319e-08)
(1.87092 -4.36608e-05 -7.40895e-08)
(2.18448 4.68161e-05 -1.53544e-07)
(2.18542 -8.00998e-05 -1.54656e-07)
(2.49392 7.77721e-05 -1.93982e-07)
(2.49471 -4.59432e-05 -1.92281e-07)
(2.79367 4.87431e-05 -2.95474e-07)
(2.79434 -7.79447e-05 -2.96325e-07)
(3.07898 7.58892e-05 -3.63423e-07)
(3.07954 -4.80299e-05 -3.61736e-07)
(3.34497 5.03453e-05 -4.82644e-07)
(3.34543 -7.61421e-05 -4.83243e-07)
(3.5869 7.41547e-05 -5.63623e-07)
(3.58728 -4.99415e-05 -5.61935e-07)
(3.8005 5.17166e-05 -6.80582e-07)
(3.80081 -7.45942e-05 -6.80938e-07)
(3.9823 7.26065e-05 -7.50479e-07)
(3.98254 -5.16434e-05 -7.4878e-07)
(4.12996 5.2933e-05 -8.39763e-07)
(4.13014 -7.32222e-05 -8.39894e-07)
(4.24251 7.13284e-05 -8.76067e-07)