/*--------------------------------*- C++ -*----------------------------------*\
| =========                 |                                                 |
| \\      /  F ield         | OpenFOAM: The Open Source CFD Toolbox           |
|  \\    /   O peration     | Version:  2106                                  |
|   \\  /    A nd           | Website:  www.openfoam.com                      |
|    \\/     M anipulation  |                                                 |
\*---------------------------------------------------------------------------*/
FoamFile
{
    version     2.0;
    format      ascii;
    arch        "LSB;label=32;scalar=64";
    class       volTensorField;
    location    "6000";
    object      grad(U);
}
// * * * * * * * * * * * * * * * * * * * * * * * * * * * * * * * * * * * * * //

dimensions      [0 0 -1 0 0 0 0];

internalField   nonuniform List<tensor> 
2560
(
(-7.3145e-17 6.23671e-30 -3.24829e-32 233.581 -1.17972e-11 1.41345e-13 0.338128 -9.59472e-15 1.24189e-17)
(0 -4.15781e-30 1.62414e-32 233.581 -7.59732e-15 -2.16368e-16 0.338128 -3.13249e-17 5.30821e-16)
(0 -4.50515e-25 3.85567e-26 233.54 -5.39104e-13 6.41951e-14 1.01924 -1.58343e-15 1.8855e-16)
(0 -4.0959e-30 5.12277e-31 233.54 5.17085e-15 -3.2523e-16 1.01924 1.51875e-17 6.02203e-16)
(-4.30753e-17 2.8026e-45 2.49455e-31 233.336 1.16715e-27 3.21975e-14 1.39969 9.65278e-46 1.95273e-16)
(0 1.21184e-29 -5.04935e-31 233.336 -9.11603e-15 -2.9235e-16 1.39969 5.59176e-18 6.18431e-16)
(1.38556e-16 -1.00842e-29 5.0882e-31 232.464 7.27721e-13 2.81994e-14 1.41152 -7.81693e-15 1.45375e-16)
(0 7.96317e-30 -4.97698e-31 232.464 -3.44294e-15 -3.68975e-16 1.41152 1.29644e-17 6.32967e-16)
(1.10465e-15 -1.56981e-29 4.50273e-29 229.766 4.52419e-14 1.45874e-14 1.40736 -9.33523e-16 4.47416e-17)
(-5.52327e-16 1.17736e-29 -1.22641e-30 229.766 -3.82817e-15 -3.71799e-16 1.40736 1.99672e-17 6.4262e-16)
(3.39245e-16 -7.01496e-30 6.61668e-32 223.543 -5.36365e-14 0 1.37484 -2.78815e-16 0)
(2.71396e-15 3.86827e-30 -4.83534e-31 223.543 -3.58072e-15 -3.56871e-16 1.37484 2.69579e-17 6.42037e-16)
(-4.44027e-16 -4.44725e-30 -1.89068e-32 212.43 -3.12054e-14 -2.82602e-14 1.30723 -1.14056e-16 1.01594e-16)
(1.77611e-15 7.62565e-30 -2.38302e-31 212.43 -3.24537e-15 -3.2629e-16 1.30723 3.46472e-17 6.26306e-16)
(-1.60605e-15 1.06974e-29 -4.69772e-31 196.54 -1.82248e-14 -4.88289e-14 1.21006 -1.19472e-16 2.30994e-16)
(2.19288e-15 -3.75818e-30 2.34886e-31 196.54 -3.30804e-15 -2.90242e-16 1.21006 4.44439e-17 5.94622e-16)
(6.47748e-16 -6.89037e-30 2.3152e-31 177.627 -1.75174e-14 -6.0692e-14 1.09791 -1.08136e-16 2.19543e-16)
(0 3.70431e-30 -2.3152e-31 177.627 -3.77585e-15 -2.48662e-16 1.09791 5.00824e-17 5.51372e-16)
(0 7.30244e-30 -6.84604e-31 158.038 -1.48331e-14 -6.32126e-14 0.985308 -8.73157e-17 2.05984e-16)
(-2.05546e-15 -3.65122e-30 4.56403e-31 158.038 -3.47024e-15 -2.12168e-16 0.985308 5.24657e-17 5.03331e-16)
(-8.2235e-16 -7.59905e-30 6.74792e-31 139.583 -1.13095e-14 -5.92867e-14 0.881375 -6.38208e-17 1.92379e-16)
(-1.013e-15 1.43956e-29 -6.74792e-31 139.583 -2.48447e-15 -1.90935e-16 0.881375 5.62352e-17 4.56112e-16)
(1.89469e-15 -2.80341e-29 1.10853e-30 123.173 -7.50702e-15 -5.23151e-14 0.789813 -3.78861e-17 1.80032e-16)
(-9.98479e-16 2.48312e-29 -1.10853e-30 123.173 -3.03633e-15 -1.77692e-16 0.789813 5.97248e-17 4.12753e-16)
(0 -1.04894e-29 3.27794e-31 109.028 -5.14106e-15 -4.46254e-14 0.710999 -3.28729e-17 1.69473e-16)
(0 1.04894e-29 -4.37058e-31 109.028 -3.53283e-15 -2.54182e-17 0.710999 6.0415e-17 3.7443e-16)
(-1.02062e-15 1.69917e-29 -4.30794e-31 97.0081 -4.20099e-15 -3.73991e-14 0.643794 -2.57668e-17 1.60728e-16)
(3.11241e-15 -1.03391e-29 -2.35325e-46 97.0081 -2.6574e-15 1.35655e-29 0.643794 6.29299e-17 3.41411e-16)
(0 2.37787e-29 -6.3693e-31 86.8343 -3.74483e-15 -3.10776e-14 0.586576 -2.73234e-17 1.53703e-16)
(0 -2.37787e-29 6.3693e-31 86.8343 -1.34079e-15 3.05262e-17 0.586576 6.76038e-17 3.12958e-16)
(-1.12071e-15 6.55664e-30 0 78.2098 -2.91603e-15 -2.57306e-14 0.53773 -1.45169e-17 1.48272e-16)
(4.48285e-15 -3.34827e-30 0 78.2098 -1.0857e-15 1.50174e-17 0.53773 7.45768e-17 2.88327e-16)
(0 -1.31399e-29 -8.25071e-31 70.8648 8.80974e-28 -2.12728e-14 0.495824 0 1.44091e-16)
(-4.65536e-15 -2.3102e-29 3.70341e-32 70.8648 -3.30761e-15 5.63783e-45 0.495824 7.65158e-17 2.66859e-16)
(0 1.95179e-29 -9.14901e-31 64.5717 -3.2822e-16 -1.75733e-14 0.459658 -5.63495e-18 1.41065e-16)
(-4.81305e-15 -1.95179e-29 9.14901e-31 64.5717 -3.59588e-15 4.22748e-18 0.459658 6.83144e-17 2.48102e-16)
(1.80502e-15 -3.20636e-30 3.00596e-31 59.1438 -6.62683e-16 -1.45048e-14 0.428248 -4.30663e-18 1.18497e-16)
(0 3.20636e-30 -3.00596e-31 59.1438 -2.43642e-15 -1.96244e-17 0.428248 6.69607e-17 2.31504e-16)
(1.27304e-15 1.25954e-29 -1.92155e-31 54.4304 -6.61164e-16 -1.1952e-14 0.400793 -5.77672e-18 9.91749e-17)
(-5.09217e-15 -2.21228e-29 2.16204e-30 54.4304 -2.72638e-15 3.08149e-33 0.400793 6.70378e-17 2.16724e-16)
(-1.75365e-15 1.86906e-29 -4.86735e-31 50.3103 -1.01335e-15 -9.81221e-15 0.376648 -9.91589e-18 8.27942e-17)
(1.75365e-15 -1.86906e-29 4.86735e-31 50.3103 -2.50926e-15 7.77836e-19 0.376648 6.60688e-17 2.03539e-16)
(-1.3333e-15 1.32143e-31 1.82359e-31 46.6861 -2.28511e-15 -8.00622e-15 0.355289 -2.60336e-17 6.87658e-17)
(0 6.14092e-30 -3.83807e-31 46.6861 -1.62285e-15 -1.05625e-17 0.355289 6.6737e-17 1.91639e-16)
(2.04689e-15 -3.00887e-29 7.45305e-31 43.479 -3.43735e-15 -6.47868e-15 0.336289 -2.86707e-17 5.66936e-17)
(0 3.3291e-29 -6.62036e-31 43.479 -1.44732e-15 -3.81967e-17 0.336289 6.92191e-17 1.80835e-16)
(0 8.09784e-30 -2.79663e-31 40.6252 -2.215e-15 -5.17757e-15 0.319299 -8.93778e-18 4.63016e-17)
(-5.54515e-15 -2.98307e-29 4.66105e-31 40.6252 -1.96585e-15 -5.73473e-17 0.319299 7.13741e-17 1.7082e-16)
(1.41056e-15 1.44368e-29 -5.36879e-31 38.0724 -1.32338e-15 -4.05818e-15 0.304033 -1.27604e-17 3.72011e-17)
(0 -1.76419e-29 5.5131e-31 38.0724 -2.23537e-15 -6.17842e-17 0.304033 7.54609e-17 1.61417e-16)
(-2.86714e-15 3.82889e-29 -5.75104e-31 35.7777 -1.80892e-15 -3.08669e-15 0.290253 -1.73246e-17 2.91945e-17)
(0 -3.18799e-29 2.28665e-30 35.7777 -1.78297e-15 -2.48436e-17 0.290253 7.91937e-17 1.52672e-16)
(5.97448e-15 -3.81814e-29 9.4427e-31 33.7058 -1.96699e-15 -2.24634e-15 0.277763 -1.58178e-17 2.2034e-17)
(1.00354e-14 3.1423e-29 4.01284e-32 33.7058 -7.11209e-16 4.76164e-30 0.277763 8.02184e-17 1.44578e-16)
(0 -1.97099e-29 4.39952e-31 31.8271 -1.98759e-15 -1.51694e-15 0.266397 -1.81871e-17 1.57827e-17)
(5.90518e-15 2.53413e-29 -4.39952e-31 31.8271 -7.62706e-16 6.42044e-18 0.266397 8.34215e-17 1.3703e-16)
(1.49622e-15 -4.30294e-31 -2.40496e-31 30.117 -2.08056e-15 -8.70396e-16 0.256015 -1.79057e-17 1.0116e-17)
(0 0 1.73459e-31 30.117 -1.64644e-15 -4.63505e-17 0.256015 8.3446e-17 1.29816e-16)
(-3.03061e-15 6.41425e-30 -4.18102e-32 28.5545 -1.52556e-15 -2.96051e-16 0.2465 -8.88043e-18 4.94684e-18)
(-1.21224e-14 0 0 28.5545 -1.85974e-15 -1.10617e-16 0.2465 7.76147e-17 1.22706e-16)
(-1.53362e-15 1.12963e-29 -2.74349e-31 27.1222 -9.64766e-16 2.16877e-16 0.237752 -8.34333e-18 4.13408e-18)
(-6.1345e-15 -2.69635e-30 1.68522e-31 27.1222 -1.81746e-15 -1.06349e-16 0.237752 7.3884e-17 1.15675e-16)
(0 1.8604e-29 -5.81374e-31 25.8049 -1.0241e-15 6.71661e-16 0.229683 -1.02234e-17 8.06239e-18)
(-6.20497e-15 -1.8604e-29 5.81374e-31 25.8049 -1.14407e-15 -5.67578e-17 0.229683 7.56011e-17 1.09051e-16)
(0 -2.35765e-29 4.91178e-31 24.5898 -1.33117e-15 1.07915e-15 0.222221 -1.42725e-17 1.17992e-17)
(6.27286e-15 2.35765e-29 -4.91178e-31 24.5898 -6.56676e-16 -3.05127e-17 0.222221 7.98709e-17 1.02817e-16)
(-1.58459e-15 -1.77193e-30 -2.19033e-32 23.4659 -8.0293e-16 1.44966e-15 0.215301 -3.74309e-18 1.52579e-17)
(0 5.16414e-30 -1.61379e-31 23.4659 -1.9084e-15 -2.38469e-17 0.215301 7.74904e-17 9.67057e-17)
(-4.46591e-15 2.35681e-29 -5.78869e-31 22.4236 -3.81992e-16 1.78791e-15 0.208869 -3.48167e-18 1.85904e-17)
(2.86549e-15 -2.03605e-29 5.56732e-31 22.4236 -2.37324e-15 -3.62776e-17 0.208869 7.61654e-17 9.06982e-17)
(-1.61575e-15 8.22318e-30 -4.14412e-31 21.4546 -8.18618e-16 2.09674e-15 0.202875 -1.2294e-17 2.16753e-17)
(-9.28742e-15 0 2.3518e-31 21.4546 -1.13195e-15 -8.62067e-17 0.202875 7.68288e-17 8.46464e-17)
(1.63061e-15 -1.30971e-29 2.55135e-31 20.5517 -1.10873e-15 2.18812e-15 0.197277 -9.27392e-18 2.09274e-17)
(0 9.89052e-30 -2.31809e-31 20.5517 -5.21023e-16 -8.26652e-17 0.197277 7.90423e-17 7.8504e-17)
(1.64502e-15 -2.27029e-29 4.49399e-29 19.7084 -1.40038e-15 7.16511e-16 0.192038 -1.84578e-17 3.53878e-18)
(0 1.94975e-29 -3.80811e-31 19.7084 -3.37329e-16 -4.25367e-17 0.192038 7.88692e-17 7.26069e-17)
(-1.65903e-15 1.16453e-29 -2.51331e-31 18.9194 -1.17753e-15 4.7867e-16 0.187126 -5.90029e-18 6.07344e-18)
(-1.35235e-15 -4.80452e-30 7.50706e-32 18.9194 -5.92628e-16 -6.04543e-17 0.187126 7.83963e-17 6.65578e-17)
(-2.66594e-15 0 -3.69973e-31 18.1796 -6.31135e-28 7.13217e-16 0.18251 0 8.44649e-18)
(2.66594e-15 -2.36783e-29 3.44083e-30 18.1796 -9.1575e-16 -1.82475e-17 0.18251 8.30911e-17 6.0394e-17)
(-1.68592e-15 1.25426e-29 -1.71604e-31 17.4847 2.14944e-17 8.94939e-16 0.178167 -5.43038e-18 1.00275e-17)
(6.74368e-15 -4.66779e-30 0 17.4847 2.76098e-16 -1.8115e-17 0.178167 8.8119e-17 5.44781e-17)
(0 -2.30044e-29 3.59444e-31 16.8308 -4.70852e-16 1.09148e-15 0.174072 -4.79028e-18 1.28374e-17)
(6.79541e-15 2.30044e-29 -3.59444e-31 16.8308 -1.92281e-16 -2.66728e-17 0.174072 9.18249e-17 4.85137e-17)
(-8.41478e-16 -3.48385e-30 -3.2899e-31 16.2145 1.20693e-27 1.28228e-15 0.170205 3.15544e-30 1.44023e-17)
(-4.29292e-15 -1.81398e-29 4.96009e-31 16.2145 -1.88054e-15 -4.87643e-17 0.170205 8.7656e-17 4.24492e-17)
(1.72378e-15 -1.66165e-29 3.04503e-31 15.6328 2.93092e-16 1.4457e-15 0.166548 -7.40879e-18 1.67595e-17)
(0 1.34098e-29 -2.79372e-31 15.6328 -1.38308e-15 -8.46116e-17 0.166548 8.75917e-17 3.60583e-17)
(7.44467e-16 -5.60593e-30 1.1267e-31 15.0829 -5.14349e-16 1.63101e-15 0.163084 -1.01502e-17 1.89039e-17)
(-2.48029e-15 1.32176e-29 -2.06526e-31 15.0829 -8.61221e-16 -4.13204e-17 0.163084 8.94765e-17 2.96821e-17)
(-6.97146e-16 -1.72313e-29 -1.10608e-31 14.5623 0 1.74371e-15 0.159799 -3.15544e-30 1.97676e-17)
(6.99038e-15 -4.34273e-30 4.04626e-47 14.5623 -1.66322e-16 5.83128e-31 0.159799 9.47872e-17 2.32933e-17)
(2.4097e-15 -1.28415e-29 1.33765e-31 14.0688 -4.05748e-17 1.88568e-15 0.156678 -1.08881e-18 2.26747e-17)
(7.03646e-15 1.28415e-29 -1.33765e-31 14.0688 1.99574e-16 -1.19783e-17 0.156678 1.0098e-16 1.68557e-17)
(-1.7704e-15 3.20554e-30 -2.49603e-32 13.6003 -4.19242e-16 2.04643e-15 0.153711 -8.53359e-18 2.40422e-17)
(0 4.21914e-30 -1.31848e-31 13.6003 -1.72228e-15 -4.69493e-17 0.153711 1.06097e-16 1.01038e-17)
(-1.78146e-15 -2.7351e-30 -1.55033e-31 13.1552 0 2.12379e-15 0.150886 -3.15544e-30 2.51435e-17)
(0 0 0 13.1552 -2.60088e-15 -3.21242e-17 0.150886 1.05456e-16 3.05977e-18)
(2.30757e-15 -3.38246e-29 2.56191e-31 12.7317 4.89745e-16 2.27881e-15 0.148192 -2.87631e-18 2.84147e-17)
(-2.30757e-15 8.19813e-30 -2.56191e-31 12.7317 -1.43082e-15 -4.01345e-17 0.148192 1.07387e-16 -6.45966e-19)
(-4.07743e-15 3.20421e-30 -2.5081e-32 12.3283 3.04108e-15 2.45054e-15 0.145622 -2.15022e-17 3.00027e-17)
(0 4.04031e-30 -1.2626e-31 12.3283 -2.73e-15 -7.13692e-17 0.145622 1.15128e-16 -1.05802e-18)
(-2.24189e-15 2.38944e-29 -6.22251e-31 11.9437 3.97497e-15 2.52765e-15 0.143166 -5.11929e-17 3.11252e-17)
(-7.25354e-15 -2.38944e-29 5.04205e-31 11.9437 -3.80651e-15 -5.09176e-17 0.143166 1.06982e-16 -8.11618e-18)
(-1.82365e-15 -2.03549e-29 5.87802e-31 11.5767 2.72753e-15 2.60149e-15 0.140817 -4.48783e-17 3.27062e-17)
(7.29458e-15 2.74773e-29 -6.13332e-31 11.5767 -1.92886e-15 -2.61599e-17 0.140817 9.57771e-17 -2.73483e-17)
(0 2.32144e-29 -4.83633e-31 11.226 1.03696e-15 2.69051e-15 0.138568 -2.18677e-17 3.42687e-17)
(0 -2.32144e-29 4.83633e-31 11.226 -2.11498e-15 -1.84712e-17 0.138568 9.17494e-17 -3.54004e-17)
(-1.84364e-15 7.01534e-30 -2.64321e-31 10.8907 6.03664e-16 2.77515e-15 0.136413 -3.81074e-18 3.5817e-17)
(7.37457e-15 -3.81361e-30 2.38351e-31 10.8907 -2.4788e-15 2.04949e-17 0.136413 9.36289e-17 -4.34826e-17)
(5.82289e-15 -1.39161e-29 5.22463e-31 10.5697 1.96463e-15 2.8331e-15 0.134346 -1.75045e-17 3.67679e-17)
(5.29748e-15 7.51791e-30 -4.69869e-31 10.5697 -2.2942e-15 -1.50093e-18 0.134346 9.43411e-17 -5.17699e-17)
(2.08577e-15 -1.11152e-29 1.15784e-31 10.2623 1.91011e-15 2.92158e-15 0.132361 -3.29366e-17 3.91825e-17)
(0 1.11152e-29 -1.15784e-31 10.2623 -3.50021e-15 -6.84021e-17 0.132361 8.42426e-17 -6.07641e-17)
(2.23932e-15 -4.10626e-30 -2.66472e-32 9.96759 1.32215e-15 3.0545e-15 0.130454 -1.65899e-17 4.13754e-17)
(-4.11176e-15 7.30395e-30 -1.14124e-31 9.96759 -2.6817e-15 -6.89738e-17 0.130454 7.4701e-17 -6.99382e-17)
(-3.7635e-15 2.07905e-29 -5.04191e-31 9.68483 1.4744e-15 3.10704e-15 0.128619 -1.82853e-17 4.1746e-17)
(7.527e-15 -2.15978e-29 6.74931e-31 9.68483 -1.85042e-15 -1.11917e-17 0.128619 6.9579e-17 -7.90446e-17)
(-1.89092e-15 6.74237e-30 -2.49176e-31 9.41336 1.74803e-15 3.13861e-15 0.126853 -2.11783e-17 4.34505e-17)
(0 0 0 9.41336 -2.68348e-15 1.30955e-17 0.126853 6.01596e-17 -8.86396e-17)
(-1.89996e-15 -3.04596e-31 8.15553e-32 9.15251 2.31382e-15 3.22901e-15 0.125152 -2.63016e-17 4.54763e-17)
(7.59983e-15 6.99438e-30 -2.18574e-31 9.15251 -2.52182e-15 -3.16903e-17 0.125152 5.19081e-17 -9.86899e-17)
(-3.84939e-15 1.00838e-29 -2.4353e-31 8.90172 3.15588e-15 3.32621e-15 0.123512 -3.74912e-17 4.74584e-17)
(0 -3.44706e-30 1.07721e-31 8.90172 -4.14992e-15 -9.30056e-17 0.123512 5.07948e-17 -1.09282e-16)
(-3.83532e-15 1.99624e-29 -3.75773e-31 8.66042 3.13608e-15 3.37575e-15 0.12193 -5.07665e-17 4.82226e-17)
(-7.67063e-15 -1.35906e-29 3.18531e-31 8.66042 -4.54905e-15 -4.71847e-17 0.12193 3.17196e-17 -1.19974e-16)
(-3.85266e-15 -1.37206e-29 5.70063e-31 8.42812 2.33974e-15 3.43676e-15 0.120402 -3.80244e-17 5.06158e-17)
(1.35254e-14 1.67448e-29 -5.23275e-31 8.42812 -2.93634e-15 3.69678e-17 0.120402 2.59216e-17 -1.30708e-16)
(-5.80467e-15 3.59713e-29 -8.10218e-31 8.20434 2.1328e-15 3.53044e-15 0.118926 -2.91889e-17 5.2388e-17)
(-7.73956e-15 -2.64077e-29 7.22086e-31 8.20434 -3.25209e-15 -1.10835e-17 0.118926 1.89179e-17 -1.41753e-16)
(-1.94334e-15 -1.63351e-29 6.81653e-31 7.98863 2.44757e-15 3.54956e-15 0.117499 -3.30577e-17 5.26684e-17)
(5.94172e-15 2.27756e-29 -8.13413e-31 7.98863 -2.21088e-15 -6.61631e-17 0.117499 -1.0784e-18 -1.53546e-16)
(3.75708e-15 -1.28058e-29 2.31137e-31 7.78059 1.27106e-15 3.53435e-15 0.116118 -3.94276e-17 5.34625e-17)
(-1.80539e-15 9.62106e-30 -2.00439e-31 7.78059 -1.04378e-15 -5.39648e-17 0.116118 -5.64903e-19 -1.65842e-16)
(0 -2.21274e-29 7.90263e-31 7.57984 -4.52968e-16 3.55356e-15 0.114781 -1.23191e-17 5.48008e-17)
(7.83971e-15 2.21274e-29 -7.90263e-31 7.57984 -1.23174e-15 -6.06792e-17 0.114781 7.59873e-18 -1.78232e-16)
(0 0 4.86836e-31 7.38602 -2.99612e-30 3.75421e-15 0.113485 0 6.1275e-17)
(7.87229e-15 1.2463e-29 -4.86836e-31 7.38602 -2.24844e-15 -2.10055e-17 0.113485 7.10238e-18 -1.91355e-16)
(-3.45774e-15 1.53555e-29 -7.67773e-31 7.1988 4.70189e-15 3.89062e-15 0.11223 -4.99248e-17 6.07145e-17)
(7.90449e-15 -6.14218e-30 3.83886e-31 7.1988 -4.22314e-15 9.76201e-18 0.11223 -3.51254e-18 -2.04885e-16)
(-3.40818e-15 2.72437e-29 -8.51365e-31 7.01785 5.63281e-15 3.86213e-15 0.111012 -9.78526e-17 6.21569e-17)
(3.40818e-15 -2.72437e-29 8.51365e-31 7.01785 -6.00883e-15 -5.28167e-18 0.111012 -2.22476e-17 -2.18654e-16)
(-3.98389e-15 3.36256e-30 -6.70262e-32 6.84289 3.60756e-15 3.8642e-15 0.10983 -8.12167e-17 6.25605e-17)
(0 2.98369e-30 0 6.84289 -4.98202e-15 -1.89068e-17 0.10983 -4.97849e-17 -2.3266e-16)
(0 -2.05865e-29 9.19039e-31 6.67365 2.39646e-15 3.92163e-15 0.108682 -3.48805e-17 6.58717e-17)
(7.9989e-15 2.05865e-29 -9.19039e-31 6.67365 -2.46219e-15 5.69628e-18 0.108682 -6.24738e-17 -2.47128e-16)
(0 2.89877e-30 -5.4352e-31 6.50986 4.18725e-15 4.07158e-15 0.107566 -4.36515e-17 6.94105e-17)
(8.02969e-15 0 1.81173e-31 6.50986 -3.29952e-15 3.58032e-17 0.107566 -6.55224e-17 -2.6157e-16)
(-2.01504e-15 3.06816e-31 -3.50695e-32 6.35128 6.24938e-15 4.15121e-15 0.106482 -9.58243e-17 7.05049e-17)
(0 5.71445e-30 -1.78577e-31 6.35128 -6.22783e-15 7.96813e-18 0.106482 -7.81209e-17 -2.76927e-16)
(2.02257e-15 8.10785e-30 -4.92039e-31 6.19768 5.16476e-15 4.12813e-15 0.105427 -1.14935e-16 7.06485e-17)
(0 -8.44883e-30 3.52034e-31 6.19768 -6.53022e-15 3.1819e-17 0.105427 -1.06127e-16 -2.92946e-16)
(0 -1.11036e-29 3.46989e-31 6.04885 1.19074e-15 4.08061e-15 0.1044 -6.12755e-17 7.09101e-17)
(0 1.11036e-29 -5.20483e-31 6.04885 -3.18439e-15 1.78315e-17 0.1044 -1.2223e-16 -3.09363e-16)
(0 -8.20838e-30 3.42016e-31 5.90457 -1.83467e-15 4.11777e-15 0.103401 -4.41811e-17 7.40354e-17)
(0 5.47225e-30 -3.42016e-31 5.90457 -4.91587e-16 -5.88027e-17 0.103401 -1.11815e-16 -3.26476e-16)
(-1.05299e-15 -5.04907e-30 5.98496e-31 5.76468 -1.37527e-15 4.24912e-15 0.102427 -1.22764e-17 7.77113e-17)
(0 8.09073e-30 -6.74227e-31 5.76468 -3.14435e-16 -5.47141e-17 0.102427 -1.0303e-16 -3.4488e-16)
(-2.05196e-15 9.66896e-44 -5.37388e-31 5.62897 7.03819e-28 4.27988e-15 0.101478 -3.15544e-30 7.73265e-17)
(0 -7.97477e-30 4.98423e-31 5.62897 -9.23924e-16 -8.06196e-17 0.101478 -1.09113e-16 -3.6372e-16)
(2.05913e-15 -8.40856e-30 3.99241e-32 5.49728 7.30129e-16 4.20998e-15 0.100552 -2.06421e-17 7.74e-17)
(-1.11866e-14 5.24031e-30 0 5.49728 -2.46966e-15 -1.58333e-16 0.100552 -1.22715e-16 -3.83548e-16)
(0 -5.16521e-30 4.84238e-31 5.36944 -3.6265e-16 4.28886e-15 0.0996494 -1.97955e-17 8.25541e-17)
(-8.26493e-15 5.16521e-30 -6.45651e-31 5.36944 -2.13777e-15 -1.25117e-16 0.0996494 -1.41657e-16 -4.03819e-16)
(7.92806e-16 7.00649e-46 -6.77577e-31 5.24532 3.35732e-28 4.38066e-15 0.0987681 3.15544e-30 8.31653e-17)
(1.37201e-14 -1.01823e-29 3.18198e-31 5.24532 -6.84264e-16 6.68593e-18 0.0987681 -1.3497e-16 -4.2422e-16)
(2.08024e-15 1.1888e-29 -5.85209e-31 5.12475 2.93541e-15 4.36803e-15 0.0979076 -5.30352e-17 8.44843e-17)
(8.32097e-15 -2.00728e-29 7.84095e-31 5.12475 -3.16391e-15 7.50404e-17 0.0979076 -1.25665e-16 -4.44438e-16)
(0 0 0 5.0076 1.9355e-15 4.40875e-15 0.0970668 -5.96703e-17 8.71985e-17)
(0 4.94628e-30 -1.54571e-31 5.0076 -3.87092e-15 1.63757e-17 0.0970668 -1.5598e-16 -4.659e-16)
(-2.094e-15 -2.12063e-29 1.1753e-30 4.89374 1.43039e-15 4.49404e-15 0.0962452 -1.53722e-17 9.03526e-17)
(8.37601e-15 2.43769e-29 -1.21885e-30 4.89374 -2.55854e-15 -9.75131e-17 0.0962452 -1.612e-16 -4.884e-16)
(-4.80606e-15 1.27762e-29 -7.95586e-31 4.78305 2.83717e-15 4.50697e-15 0.0954418 -4.13199e-17 9.0275e-17)
(-8.40317e-15 -4.80551e-30 4.50517e-31 4.78305 -3.8492e-15 -1.36408e-16 0.0954418 -1.75526e-16 -5.11832e-16)
(2.10752e-15 -1.26321e-29 6.37328e-31 4.67541 3.86587e-15 4.55108e-15 0.094656 -7.26127e-17 9.48058e-17)
(8.4301e-15 9.47327e-30 -5.9208e-31 4.67541 -3.55565e-15 -1.11089e-18 0.094656 -1.95506e-16 -5.35624e-16)
(-2.1142e-15 2.1829e-29 -7.75791e-31 4.57071 3.96052e-15 4.63163e-15 0.0938871 -8.46616e-17 9.62665e-17)
(8.4568e-15 -1.8675e-29 7.29492e-31 4.57071 -3.3767e-15 8.42187e-17 0.0938871 -1.84517e-16 -5.59135e-16)
(-2.12082e-15 -1.44909e-30 -4.72581e-32 4.46884 3.28463e-15 4.65759e-15 0.0931344 -7.86726e-17 9.86776e-17)
(0 4.60183e-30 0 4.46884 -4.63131e-15 -2.80701e-17 0.0931344 -2.04091e-16 -5.83721e-16)
(-2.12738e-15 -1.38068e-30 -1.9019e-31 4.3697 2.23514e-15 4.68631e-15 0.0923972 -5.86491e-17 1.00314e-16)
(0 9.07175e-30 0 4.3697 -3.04115e-15 -6.52984e-17 0.0923972 -2.25983e-16 -6.10288e-16)
(-2.13389e-15 -5.7841e-30 5.09449e-31 4.27319 2.73027e-15 4.70961e-15 0.0916751 -3.6092e-17 1.02579e-16)
(8.53558e-15 8.94173e-30 -5.58858e-31 4.27319 -1.40486e-15 -3.20502e-17 0.0916751 -2.26339e-16 -6.36482e-16)
(4.62115e-15 -1.19619e-29 6.01696e-31 4.17922 3.13649e-15 4.67413e-15 0.0909673 -8.18511e-17 1.01691e-16)
(-2.4808e-15 8.81357e-30 -5.50848e-31 4.17922 -2.31976e-15 -8.27715e-17 0.0909673 -2.3836e-16 -6.63971e-16)
(2.44524e-15 -4.34363e-30 2.71477e-31 4.08771 1.83733e-15 4.75587e-15 0.0902735 -5.50314e-17 1.09235e-16)
(-2.44524e-15 4.34363e-30 -2.71477e-31 4.08771 -3.79739e-15 -1.96755e-16 0.0902735 -2.49515e-16 -6.93948e-16)
(-2.15312e-15 -5.40819e-30 4.81878e-31 3.99857 2.11363e-15 4.79131e-15 0.089593 -2.62266e-17 1.06276e-16)
(0 1.28441e-29 -8.02757e-31 3.99857 -4.57569e-15 -6.64806e-17 0.089593 -2.71995e-16 -7.25147e-16)
(0 -3.37601e-29 1.5825e-30 3.91172 3.45627e-15 4.85831e-15 0.0889254 -6.91628e-17 1.15515e-16)
(1.72754e-14 3.37601e-29 -1.84625e-30 3.91172 -3.12705e-15 2.34943e-16 0.0889254 -3.01489e-16 -7.53598e-16)
(-2.3416e-15 0 0 3.82708 4.07801e-15 5.03454e-15 0.0882701 -8.87156e-17 1.17608e-16)
(8.66277e-15 4.15952e-30 -5.19941e-31 3.82708 -2.8999e-15 1.7513e-16 0.0882701 -3.1413e-16 -7.82362e-16)
(-4.47995e-15 2.77357e-29 -1.85106e-30 3.74458 2.80138e-15 4.86546e-15 0.0876269 -1.00186e-16 1.10898e-16)
(-8.68762e-15 -2.45994e-29 1.53747e-30 3.74458 -3.39582e-15 -1.66307e-16 0.0876269 -3.416e-16 -8.1457e-16)
(9.68888e-17 1.12284e-29 -5.63074e-31 3.66416 1.1757e-15 4.80339e-15 0.0869952 -3.09086e-17 1.18073e-16)
(-1.09873e-14 -8.08229e-30 2.52572e-31 3.66416 -1.27167e-15 -3.59552e-16 0.0869952 -3.51815e-16 -8.51062e-16)
(2.24236e-15 4.5995e-31 -4.97903e-31 3.58574 2.07489e-15 5.01848e-15 0.0863746 -2.50808e-17 1.24622e-16)
(-2.24236e-15 -3.98323e-30 2.48952e-31 3.58574 -4.64136e-17 -2.14297e-16 0.0863746 -3.33347e-16 -8.87996e-16)
(0 3.92614e-30 -7.3615e-31 3.50926 4.30336e-15 5.14275e-15 0.0857647 -9.15287e-17 1.27673e-16)
(8.7611e-15 0 4.90767e-31 3.50926 -1.35196e-15 -3.68449e-17 0.0857647 -3.38334e-16 -9.2318e-16)
(2.19631e-15 2.78356e-29 -1.87299e-30 3.43467 5.60954e-15 5.17149e-15 0.0851652 -1.19773e-16 1.29714e-16)
(-2.17854e-15 -2.70891e-29 1.69307e-30 3.43467 -3.08495e-15 -8.31634e-17 0.0851652 -3.57679e-16 -9.59148e-16)
(0 -4.19584e-29 2.1456e-30 3.36189 6.0305e-15 5.15592e-15 0.0845758 -1.59688e-16 1.3062e-16)
(1.76184e-14 4.19584e-29 -2.1456e-30 3.36189 -3.06954e-15 2.84331e-17 0.0845758 -3.85476e-16 -9.96788e-16)
(2.11654e-15 -3.75973e-30 4.69966e-31 3.29088 4.95714e-15 5.20662e-15 0.083996 -1.4469e-16 1.3613e-16)
(1.7666e-14 3.75973e-30 -4.69966e-31 3.29088 -3.75544e-15 1.36463e-16 0.083996 -4.00627e-16 -1.03329e-15)
(-4.42831e-15 2.51315e-30 9.83243e-32 3.22158 4.39692e-15 5.30199e-15 0.0834255 -1.08983e-16 1.39439e-16)
(0 3.70584e-30 -2.31615e-31 3.22158 -4.4707e-15 -7.55713e-18 0.0834255 -4.23484e-16 -1.07231e-15)
(-2.22002e-15 -5.47957e-31 1.5945e-31 3.15394 5.02122e-15 5.2966e-15 0.0828641 -1.19602e-16 1.39831e-16)
(1.77602e-14 3.65273e-30 -6.84887e-31 3.15394 -3.37213e-15 -5.9534e-18 0.0828641 -4.48813e-16 -1.11389e-15)
(2.22585e-15 -1.7496e-29 1.19528e-30 3.0879 5.53434e-15 5.32203e-15 0.0823115 -1.45331e-16 1.44894e-16)
(0 1.44015e-29 -1.12512e-30 3.0879 -4.30279e-15 -1.76439e-17 0.0823115 -4.65105e-16 -1.15619e-15)
(-2.23164e-15 -4.61107e-31 -2.93738e-31 3.02343 4.74742e-15 5.38007e-15 0.0817673 -1.50754e-16 1.471e-16)
(0 7.09755e-30 -2.21798e-31 3.02343 -4.10226e-15 -9.75479e-17 0.0817673 -5.08968e-16 -1.19981e-15)
(-2.23739e-15 1.00862e-29 -1.16657e-30 2.96048 3.99921e-15 5.44255e-15 0.0812313 -1.06571e-16 1.52604e-16)
(8.94954e-15 -6.99582e-30 1.0931e-30 2.96048 -1.66731e-15 -3.5762e-18 0.0812313 -5.29335e-16 -1.24556e-15)
(-2.2431e-15 6.53358e-30 -1.1551e-30 2.899 4.66328e-15 5.25763e-15 0.0807032 -1.13674e-16 1.41004e-16)
(5.09053e-15 0 4.30972e-31 2.899 -2.43279e-15 7.85012e-17 0.0807032 -5.20193e-16 -1.29216e-15)
(-4.49753e-15 6.15671e-30 -1.70121e-31 2.83895 4.74649e-15 4.28695e-15 0.0801828 -1.47058e-16 1.01663e-16)
(0 0 0 2.83895 -3.79097e-15 2.28973e-17 0.0801828 -5.40987e-16 -1.33919e-15)
(-3.68715e-16 6.4296e-30 -1.34175e-30 2.78028 3.8997e-15 3.52092e-15 0.0796698 -1.21755e-16 1.0077e-16)
(-1.88569e-15 0 8.37413e-31 2.78028 -3.82755e-15 -1.31478e-16 0.0796698 -5.63095e-16 -1.3886e-15)
(0 -3.30164e-30 8.25411e-31 2.72297 4.68867e-15 3.53207e-15 0.079164 -1.02324e-16 1.05297e-16)
(-9.04e-15 3.30164e-30 -1.23812e-30 2.72297 -4.47159e-15 -1.15823e-16 0.079164 -5.88335e-16 -1.44153e-15)
(4.33542e-16 -9.57398e-30 1.30661e-30 2.66697 5.20929e-15 3.56461e-15 0.0786652 -1.71678e-16 1.05661e-16)
(1.08943e-14 6.50865e-30 -1.22037e-30 2.66697 -5.82793e-15 1.73542e-16 0.0786652 -6.25639e-16 -1.49392e-15)
(2.27109e-15 -1.26881e-29 8.86805e-31 2.61224 2.95423e-15 3.77488e-15 0.0781732 -1.36356e-16 1.21098e-16)
(-9.08436e-15 9.62304e-30 -8.0192e-31 2.61224 -5.63219e-15 2.13726e-16 0.0781732 -6.7612e-16 -1.54542e-15)
(-2.27658e-15 6.23769e-30 -1.27108e-30 2.55875 2.35624e-15 4.0786e-15 0.0776878 -4.03263e-17 1.27392e-16)
(9.10633e-15 0 7.90426e-31 2.55875 -2.96063e-15 -9.98811e-18 0.0776878 -7.06574e-16 -1.60103e-15)
(0 6.23278e-30 -7.79098e-31 2.50647 3.50872e-15 4.31931e-15 0.0772087 -1.03659e-16 1.3963e-16)
(0 -3.11639e-30 3.89549e-31 2.50647 -9.63263e-16 -2.9164e-17 0.0772087 -7.241e-16 -1.65967e-15)
(-3.45845e-15 1.22869e-29 -1.53586e-30 2.45536 3.73448e-15 4.54053e-15 0.0767358 -1.13249e-16 1.45095e-16)
(9.14985e-15 -3.07172e-30 7.67931e-31 2.45536 7.11033e-16 3.93211e-17 0.0767358 -7.48968e-16 -1.71918e-15)
(2.29285e-15 -9.1029e-30 1.60074e-30 2.4054 4.37884e-15 4.69883e-15 0.0762689 -1.20953e-16 1.53863e-16)
(0 6.0554e-30 -1.51385e-30 2.4054 -2.79635e-16 -5.99881e-17 0.0762689 -7.2951e-16 -1.78074e-15)
(0 5.96861e-30 -1.11911e-30 2.35654 3.95426e-15 4.89721e-15 0.0758079 -1.57853e-16 1.62241e-16)
(-9.19283e-15 0 3.73038e-31 2.35654 -2.76445e-15 2.34706e-16 0.0758079 -7.37655e-16 -1.84588e-15)
(-3.31187e-15 8.82459e-30 0 2.30877 2.40844e-15 4.96782e-15 0.0753525 -9.6897e-17 1.63026e-16)
(0 0 -7.35383e-31 2.30877 -1.2099e-15 1.58131e-15 0.0753525 -7.59863e-16 -1.90742e-15)
(0 5.79874e-30 -7.24843e-31 2.26205 2.64118e-15 4.97469e-15 0.0749027 -6.053e-17 1.67454e-16)
(0 -2.89937e-30 0 2.26205 8.70455e-16 2.54886e-15 0.0749027 -7.45761e-16 -1.95521e-15)
(2.31408e-15 1.12505e-29 -2.40574e-30 2.21636 4.22741e-15 4.94981e-15 0.0744582 -1.15308e-16 1.66112e-16)
(0 -1.42891e-29 2.50059e-30 2.21636 1.27673e-16 2.54704e-15 0.0744582 -7.21154e-16 -2.00379e-15)
(2.31931e-15 8.24197e-30 -2.55314e-31 2.17167 3.95778e-15 4.89838e-15 0.0740189 -1.69979e-16 1.68817e-16)
(0 -2.81686e-30 0 2.17167 -3.91977e-16 2.65805e-15 0.0740189 -7.24781e-16 -2.05132e-15)
(-4.64901e-15 1.16191e-29 -2.02712e-31 2.12795 2.82566e-15 5.01164e-15 0.0735847 -1.00116e-16 1.78892e-16)
(9.29802e-15 -5.55297e-30 0 2.12795 -3.75488e-16 2.73088e-15 0.0735847 -7.28988e-16 -2.09781e-15)
(-2.32967e-15 2.93236e-31 -4.51676e-31 2.08518 3.21815e-15 5.05269e-15 0.0731554 -9.58571e-17 1.76672e-16)
(0 8.21007e-30 0 2.08518 -2.23265e-15 2.67497e-15 0.0731554 -7.21892e-16 -2.14661e-15)
(0 0 -3.37183e-31 2.04333 4.3594e-15 5.00978e-15 0.0727309 -1.30871e-16 1.81046e-16)
(0 0 3.37183e-31 2.04333 -2.53911e-15 2.60561e-15 0.0727309 -7.27843e-16 -2.19722e-15)
(0 2.6588e-30 -1.3294e-30 2.00239 6.08094e-15 5.09986e-15 0.072311 -1.8074e-16 1.88421e-16)
(-2.99355e-15 0 9.97052e-31 2.00239 -2.43221e-15 2.66434e-15 0.072311 -6.93956e-16 -2.24911e-15)
(-2.95064e-15 1.04828e-29 -9.82761e-31 1.96233 7.39655e-15 5.10197e-15 0.0718958 -2.60313e-16 1.86505e-16)
(0 -5.24139e-30 0 1.96233 -3.11084e-15 2.95412e-15 0.0718958 -7.10298e-16 -2.29964e-15)
(0 7.74941e-30 -3.22892e-31 1.92312 6.41627e-15 5.10858e-15 0.0714849 -2.8342e-16 1.94436e-16)
(1.88003e-14 -2.58314e-30 0 1.92312 -2.43561e-15 3.12361e-15 0.0714849 -7.50742e-16 -2.35022e-15)
(-4.7101e-15 5.98176e-30 3.46748e-31 1.88475 4.58578e-15 5.27881e-15 0.0710784 -1.9432e-16 2.04939e-16)
(9.42019e-15 0 -6.36528e-31 1.88475 -3.60723e-15 2.98267e-15 0.0710784 -7.53532e-16 -2.40025e-15)
(5.18562e-15 -1.30302e-29 1.40671e-30 1.8472 4.89723e-15 5.44654e-15 0.0706761 -1.52254e-16 2.13098e-16)
(0 1.00385e-29 -1.25481e-30 1.8472 -5.09828e-15 2.84601e-15 0.0706761 -7.77394e-16 -2.45487e-15)
(0 0 -6.18413e-31 1.81044 4.47667e-15 5.44285e-15 0.0702779 -2.24088e-16 2.10653e-16)
(-9.45998e-15 4.9473e-30 0 1.81044 -3.51207e-15 3.08187e-15 0.0702779 -8.23483e-16 -2.51293e-15)
(3.75239e-16 -1.65187e-29 2.27109e-30 1.77446 3.14032e-15 5.60993e-15 0.0698837 -1.23732e-16 2.32633e-16)
(6.73454e-15 1.95056e-29 -2.4382e-30 1.77446 -1.80169e-15 3.19928e-15 0.0698837 -8.32238e-16 -2.56945e-15)
(0 9.61301e-30 -1.20163e-30 1.73924 3.47945e-15 5.82067e-15 0.0694934 -1.24327e-16 2.33836e-16)
(0 -4.8065e-30 6.00813e-31 1.73924 -3.78536e-15 3.09552e-15 0.0694934 -8.45528e-16 -2.62826e-15)
(2.66704e-15 -9.47523e-30 1.1844e-30 1.70476 3.99525e-15 6.06546e-15 0.069107 -1.54731e-16 2.59495e-16)
(0 9.47523e-30 -1.1844e-30 1.70476 -5.76055e-15 3.14354e-15 0.069107 -9.09201e-16 -2.68807e-15)
(-2.38455e-15 -1.70283e-30 -1.95876e-31 1.671 3.28132e-15 6.04618e-15 0.0687243 -1.7021e-16 2.39083e-16)
(0 4.66971e-30 0 1.671 -4.03624e-15 3.31833e-15 0.0687243 -9.791e-16 -2.74824e-15)
(-2.18761e-15 -2.16713e-29 2.47839e-30 1.63794 3.67915e-15 6.2288e-15 0.0683452 -9.99463e-17 2.8249e-16)
(1.9115e-14 2.76167e-29 -3.45209e-30 1.63794 -3.12263e-15 3.24807e-15 0.0683452 -1.01923e-15 -2.80737e-15)
(-2.554e-15 9.07362e-30 -5.67102e-31 1.60558 7.11493e-15 6.81328e-15 0.0679696 -2.08731e-16 2.96072e-16)
(0 -4.53681e-30 0 1.60558 -6.10164e-15 3.04904e-15 0.0679696 -1.03986e-15 -2.8728e-15)
(-2.51739e-15 8.94358e-30 -1.11795e-30 1.57389 7.06915e-15 6.79845e-15 0.0675976 -3.967e-16 2.89478e-16)
(0 -4.47179e-30 0 1.57389 -6.28661e-15 3.40129e-15 0.0675976 -1.12384e-15 -2.93843e-15)
(-7.21104e-15 -1.32602e-29 3.17052e-30 1.54286 5.12607e-15 6.88591e-15 0.067229 -2.10873e-16 3.12444e-16)
(1.92294e-14 2.64462e-29 -3.85673e-30 1.54286 -2.93109e-15 3.51928e-15 0.067229 -1.18912e-15 -3.0003e-15)
(0 -2.60671e-29 4.34452e-30 1.51246 5.71057e-15 7.09981e-15 0.0668636 -2.37282e-16 3.1706e-16)
(1.92672e-14 2.60671e-29 -4.34452e-30 1.51246 -3.74301e-15 3.05256e-15 0.0668636 -1.21782e-15 -3.03693e-15)
(-2.41309e-15 1.57483e-29 -2.39205e-30 1.4827 5.93466e-15 6.98401e-15 0.0665016 -2.69249e-16 3.11105e-16)
(0 -8.56451e-30 1.07056e-30 1.4827 -5.85568e-15 3.14553e-15 0.0665016 -1.30052e-15 -3.0716e-15)
(2.41775e-15 -3.2438e-29 4.48131e-30 1.45355 5.55577e-15 6.88383e-15 0.0661427 -2.64536e-16 3.17139e-16)
(1.9342e-14 2.95462e-29 -4.22088e-30 1.45355 -4.57145e-15 3.36786e-15 0.0661427 -1.40777e-15 -3.09316e-15)