/*--------------------------------*- C++ -*----------------------------------*\
| =========                 |                                                 |
| \\      /  F ield         | OpenFOAM: The Open Source CFD Toolbox           |
|  \\    /   O peration     | Version:  2012                                  |
|   \\  /    A nd           | Website:  www.openfoam.com                      |
|    \\/     M anipulation  |                                                 |
\*---------------------------------------------------------------------------*/
FoamFile
{
    version     2.0;
    format      ascii;
    class       volTensorField;
    location    "3000";
    object      grad(U);
}
// * * * * * * * * * * * * * * * * * * * * * * * * * * * * * * * * * * * * * //

dimensions      [0 0 -1 0 0 0 0];


internalField   nonuniform List<tensor> 
5120
(
(0 -4.0934e-25 3.24143e-32 88.3285 -2.24541e-11 -3.09271e-13 0.0640693 -8.14346e-15 -9.84175e-17)
(0 -1.03726e-30 -1.62071e-32 88.3285 -1.44359e-15 2.94533e-20 0.0640693 -1.57636e-18 3.64968e-17)
(0 0 3.18349e-31 88.3076 4.84678e-27 -1.89533e-14 0.192651 8.12279e-45 -2.76923e-17)
(0 -1.64769e-29 -1.93089e-31 88.3076 -1.24976e-15 5.8598e-18 0.192651 -4.77604e-19 5.83255e-17)
(2.74463e-17 -1.37712e-29 -1.48282e-31 88.2711 2.49047e-12 -8.52114e-15 0.26068 -9.65926e-15 -2.24493e-17)
(0 1.63586e-29 1.27802e-31 88.2711 -3.1614e-15 1.09644e-17 0.26068 -3.2923e-18 5.91688e-17)
(0 1.62411e-29 1.90326e-31 88.2169 1.05714e-12 -8.11273e-15 0.262379 -4.98427e-15 -2.5664e-17)
(-7.14293e-17 -8.12057e-30 -1.26884e-31 88.2169 -2.56474e-15 9.00676e-18 0.262379 -5.19377e-18 6.00155e-17)
(1.15272e-16 -3.57839e-29 -5.48126e-31 88.1452 1.15182e-13 -9.03551e-15 0.264035 -1.2703e-15 -2.8306e-17)
(1.06506e-16 2.82179e-29 5.03891e-31 88.1452 -2.54355e-15 8.67991e-18 0.264035 -7.10803e-18 6.08672e-17)
(-6.24526e-17 1.97105e-29 2.9519e-31 88.0562 -1.34079e-13 -9.57863e-15 0.26565 -2.16044e-16 -2.93154e-17)
(2.4981e-16 -8.00437e-30 -1.87602e-31 88.0562 -2.57851e-15 8.74569e-18 0.26565 -8.96074e-18 6.17228e-17)
(-8.06676e-17 1.56566e-29 1.70139e-31 87.95 -1.44016e-14 -9.76956e-15 0.267223 -2.1814e-17 -2.9878e-17)
(0 -1.19203e-29 -1.2417e-31 87.95 -2.66239e-15 8.73949e-18 0.267223 -1.09403e-17 6.25826e-17)
(-9.89976e-17 -1.74933e-28 4.16747e-31 87.8268 0 -9.87318e-15 0.268752 -3.15544e-30 -3.03757e-17)
(-3.9599e-16 -1.97246e-29 -3.69835e-31 87.8268 -2.66575e-15 7.58366e-18 0.268752 -1.30602e-17 6.34455e-17)
(-1.1744e-16 -1.77747e-31 1.0907e-31 87.6867 2.49441e-15 -9.96227e-15 0.270238 -8.61349e-18 -3.08613e-17)
(0 1.17497e-29 0 87.6867 -2.5758e-15 6.80187e-18 0.270238 -1.51291e-17 6.43101e-17)
(-2.71983e-16 3.46972e-29 4.62242e-31 87.5299 2.73152e-15 -1.0048e-14 0.27168 -6.71208e-18 -3.13491e-17)
(-5.43965e-16 -2.72192e-29 -3.64543e-31 87.5299 -2.36345e-15 6.971e-18 0.27168 -1.71774e-17 6.51779e-17)
(0 -1.15816e-29 -6.03209e-32 87.3567 3.72861e-15 -1.01346e-14 0.273078 -1.02119e-17 -3.18516e-17)
(1.23719e-15 1.93027e-29 1.20642e-31 87.3567 -2.40287e-15 7.46995e-18 0.273078 -1.89863e-17 6.60477e-17)
(1.7341e-16 -3.73755e-30 -5.08446e-32 87.1672 4.36096e-15 -1.02248e-14 0.27443 -1.30498e-17 -3.23727e-17)
(-6.93639e-16 7.66563e-30 5.98877e-32 87.1672 -2.74831e-15 7.89197e-18 0.27443 -2.10301e-17 6.69203e-17)
(3.84542e-16 7.74715e-30 7.46451e-32 86.9617 4.59054e-15 -1.03185e-14 0.275737 -1.43463e-17 -3.29091e-17)
(7.69083e-16 -1.52212e-29 -1.78373e-31 86.9617 -2.73678e-15 8.65336e-18 0.275737 -2.32826e-17 6.77958e-17)
(0 -3.77796e-30 -5.90307e-32 86.7402 4.7569e-15 -1.04148e-14 0.276998 -1.4697e-17 -3.34583e-17)
(8.44916e-16 1.13339e-29 1.77092e-31 86.7402 -2.70046e-15 9.22076e-18 0.276998 -2.53301e-17 6.86749e-17)
(-2.97602e-16 2.25198e-29 2.9769e-31 86.5031 4.92429e-15 -1.05124e-14 0.278213 -1.56185e-17 -3.40161e-17)
(0 -1.12525e-29 -1.7582e-31 86.5031 -2.8628e-15 8.25609e-18 0.278213 -2.76648e-17 6.95559e-17)
(-7.73516e-16 2.23551e-29 3.4595e-31 86.2506 4.81372e-15 -1.0611e-14 0.279381 -1.59886e-17 -3.45835e-17)
(9.97695e-16 -3.7239e-30 -5.81859e-32 86.2506 -2.81696e-15 1.02158e-17 0.279381 -3.01265e-17 7.04368e-17)
(2.68654e-16 -3.8082e-32 -1.71642e-31 85.9828 4.45599e-15 -1.07106e-14 0.280502 -1.51279e-17 -3.51608e-17)
(1.88907e-15 -3.69716e-30 1.15536e-31 85.9828 -2.88949e-15 1.28077e-17 0.280502 -3.23354e-17 7.13246e-17)
(0 -1.46824e-29 -1.7206e-31 85.7 4.29317e-15 -1.0812e-14 0.281575 -1.38829e-17 -3.57533e-17)
(0 1.83531e-29 2.29413e-31 85.7 -3.19748e-15 1.17123e-17 0.281575 -3.49829e-17 7.22133e-17)
(-5.12883e-16 1.82213e-29 2.84707e-31 85.4024 4.48613e-15 -1.09146e-14 0.282601 -1.42758e-17 -3.63511e-17)
(0 -7.2885e-30 -5.69414e-32 85.4024 -3.2043e-15 1.15385e-17 0.282601 -3.81383e-17 7.31011e-17)
(-6.53677e-16 2.91766e-29 5.14669e-31 85.0903 4.51089e-15 -1.10169e-14 0.283579 -1.53638e-17 -3.69558e-17)
(0 -2.17085e-29 -3.95728e-31 85.0903 -3.117e-15 1.15542e-17 0.283579 -4.10441e-17 7.39893e-17)
(-3.46387e-16 1.81022e-29 2.85134e-31 84.7639 4.41615e-15 -1.11201e-14 0.284509 -1.46483e-17 -3.75729e-17)
(-5.05543e-16 -7.1842e-30 -5.61266e-32 84.7639 -3.15131e-15 1.10534e-17 0.284509 -4.39038e-17 7.48743e-17)
(1.23393e-15 -1.81656e-29 -3.46502e-31 84.4234 4.36415e-15 -1.12244e-14 0.28539 -1.49496e-17 -3.81989e-17)
(1.46402e-15 1.78315e-29 2.78618e-31 84.4234 -3.07654e-15 1.40375e-17 0.28539 -4.69929e-17 7.57583e-17)
(0 3.5407e-30 0 84.0692 4.05771e-15 -1.13293e-14 0.286222 -1.45088e-17 -3.88346e-17)
(0 3.5407e-30 1.10647e-31 84.0692 -3.05004e-15 1.37499e-17 0.286222 -4.99224e-17 7.66467e-17)
(4.94731e-16 1.40611e-29 2.19704e-31 83.7013 4.19524e-15 -1.14356e-14 0.287005 -1.30755e-17 -3.94836e-17)
(-2.11651e-15 -1.40611e-29 -2.19704e-31 83.7013 -3.14803e-15 6.97082e-18 0.287005 -5.25949e-17 7.75299e-17)
(0 1.39601e-29 2.18127e-31 83.3202 4.64777e-15 -1.15418e-14 0.287738 -1.56647e-17 -4.0134e-17)
(0 -3.49003e-30 -1.09063e-31 83.3202 -3.37749e-15 7.9703e-18 0.287738 -5.55199e-17 7.84014e-17)
(-1.33539e-15 3.19847e-29 5.24936e-31 82.926 4.63912e-15 -1.16484e-14 0.288423 -1.63982e-17 -4.08e-17)
(0 -2.07898e-29 -3.24841e-31 82.926 -3.48501e-15 1.436e-17 0.288423 -5.86965e-17 7.92794e-17)
(0 -1.37603e-29 -2.15005e-31 82.5191 4.47421e-15 -1.17564e-14 0.289058 -1.58318e-17 -4.14752e-17)
(3.72044e-15 1.37603e-29 2.15005e-31 82.5191 -3.3676e-15 1.75753e-17 0.289058 -6.18974e-17 8.01597e-17)
(-4.35863e-18 -6.51517e-30 -2.50927e-31 82.0996 4.35735e-15 -1.18656e-14 0.289643 -1.5478e-17 -4.21648e-17)
(1.94012e-15 1.36615e-29 3.20192e-31 82.0996 -3.26062e-15 1.68117e-17 0.289643 -6.45371e-17 8.10443e-17)
(0 6.78171e-30 -2.11929e-31 81.6679 4.61002e-15 -1.19754e-14 0.290178 -1.52349e-17 -4.28599e-17)
(2.02022e-15 3.39086e-30 3.17893e-31 81.6679 -3.44121e-15 1.28942e-17 0.290178 -6.71117e-17 8.19249e-17)
(0 1.3466e-29 3.1561e-31 81.2241 4.85994e-15 -1.20858e-14 0.290663 -1.75031e-17 -4.35692e-17)
(-2.10049e-15 -1.68325e-29 -4.20813e-31 81.2241 -3.89746e-15 8.09921e-18 0.290663 -7.07572e-17 8.28023e-17)
(-1.09046e-15 1.74862e-29 4.59887e-31 80.7687 4.91542e-15 -1.21972e-14 0.291099 -1.72498e-17 -4.42873e-17)
(0 -1.0027e-29 -3.13344e-31 80.7687 -3.65859e-15 8.27793e-18 0.291099 -7.4683e-17 8.36713e-17)
(0 1.32733e-29 1.03698e-31 80.3019 4.94009e-15 -1.23089e-14 0.291484 -1.81582e-17 -4.50147e-17)
(2.26151e-15 -3.31833e-30 0 80.3019 -3.25032e-15 1.1542e-17 0.291484 -7.78122e-17 8.45436e-17)
(5.85556e-16 -3.66737e-29 -7.96722e-31 79.8238 4.43088e-15 -1.24226e-14 0.291819 -1.76799e-17 -4.57641e-17)
(2.34222e-15 2.96505e-29 6.17719e-31 79.8238 -3.10873e-15 1.27953e-17 0.291819 -8.04759e-17 8.541e-17)
(-1.21153e-15 -1.21676e-29 -2.53909e-31 79.3349 4.32608e-15 -1.25379e-14 0.292104 -1.46874e-17 -4.65202e-17)
(4.84612e-15 1.96251e-29 3.06642e-31 79.3349 -2.95517e-15 1.38742e-17 0.292104 -8.26181e-17 8.62767e-17)
(-6.26001e-16 1.99648e-29 4.84839e-31 78.8355 4.49296e-15 -1.26536e-14 0.292339 -1.71624e-17 -4.72893e-17)
(2.50401e-15 -1.62368e-29 -4.0592e-31 78.8355 -3.06965e-15 1.71924e-17 0.292339 -8.57568e-17 8.71331e-17)
(-1.29252e-15 -8.66455e-30 -3.42979e-31 78.3257 4.15158e-15 -1.27704e-14 0.292525 -1.61422e-17 -4.80712e-17)
(5.17009e-15 1.61202e-29 3.02254e-31 78.3257 -2.88375e-15 1.63157e-17 0.292525 -8.92733e-17 8.79882e-17)
(9.0097e-16 -9.60266e-30 -2.00055e-31 77.8058 4.34354e-15 -1.28889e-14 0.29266 -1.48533e-17 -4.88703e-17)
(0 1.28035e-29 2.00055e-31 77.8058 -3.06188e-15 5.19964e-18 0.29266 -9.18416e-17 8.88288e-17)
(-6.86835e-16 1.96164e-29 3.81327e-31 77.2763 4.67507e-15 -1.30074e-14 0.292745 -1.78255e-17 -4.96697e-17)
(0 -6.3558e-30 -9.93094e-32 77.2763 -3.42765e-15 4.01537e-18 0.292745 -9.47811e-17 8.96489e-17)
(-7.07144e-16 3.72643e-30 8.49407e-32 76.7373 4.8025e-15 -1.31252e-14 0.292781 -1.75895e-17 -5.04821e-17)
(0 6.31016e-30 9.85963e-32 76.7373 -3.20919e-15 1.30659e-17 0.292781 -9.7827e-17 9.04733e-17)
(8.81699e-16 -3.13242e-30 0 76.1891 4.94602e-15 -1.32437e-14 0.292767 -1.90602e-17 -5.13045e-17)
(0 6.26485e-30 0 76.1891 -3.14354e-15 1.57368e-17 0.292767 -1.00879e-16 9.13012e-17)
(7.47785e-16 2.11542e-29 4.95012e-31 75.632 4.93482e-15 -1.33629e-14 0.292704 -1.89519e-17 -5.21415e-17)
(-2.99114e-15 -2.48794e-29 -5.83112e-31 75.632 -3.21844e-15 8.04947e-18 0.292704 -1.04235e-16 9.21238e-17)
(7.68111e-16 -1.91628e-29 -2.82691e-31 75.0664 4.90181e-15 -1.34838e-14 0.292591 -1.92499e-17 -5.29953e-17)
(0 1.5438e-29 1.92975e-31 75.0664 -3.30148e-15 5.72049e-18 0.292591 -1.06882e-16 9.29225e-17)
(0 0 -9.57946e-32 74.4924 4.57871e-15 -1.36058e-14 0.29243 -1.89687e-17 -5.38599e-17)
(0 9.19628e-30 2.87384e-31 74.4924 -3.45108e-15 1.53246e-17 0.29243 -1.08837e-16 9.37266e-17)
(1.71329e-15 -1.21737e-29 -1.90213e-31 73.9105 4.81635e-15 -1.37285e-14 0.292219 -1.69827e-17 -5.47386e-17)
(-1.71329e-15 1.52171e-29 1.90213e-31 73.9105 -3.56671e-15 1.56612e-17 0.292219 -1.11813e-16 9.45395e-17)
(-2.53006e-15 -1.13845e-29 -2.8297e-31 73.3208 5.66245e-15 -1.38512e-14 0.29196 -2.11308e-17 -5.5623e-17)
(0 1.51078e-29 2.83271e-31 73.3208 -3.50188e-15 1.22177e-17 0.29196 -1.16129e-16 9.53369e-17)
(-8.49371e-16 3.72234e-30 9.64476e-32 72.7237 5.54666e-15 -1.3974e-14 0.291652 -2.39948e-17 -5.65227e-17)
(0 5.99972e-30 9.37457e-32 72.7237 -3.23231e-15 1.38737e-17 0.291652 -1.19674e-16 9.61312e-17)
(-8.69658e-16 -2.23433e-30 5.12422e-33 72.1195 4.71577e-15 -1.40976e-14 0.291297 -2.0505e-17 -5.74328e-17)
(0 1.19133e-29 1.86145e-31 72.1195 -3.1187e-15 1.60681e-17 0.291297 -1.22285e-16 9.69145e-17)
(8.32303e-16 -1.18277e-29 -9.24042e-32 71.5084 4.52416e-15 -1.42221e-14 0.290893 -1.76027e-17 -5.83608e-17)
(0 1.18277e-29 9.24042e-32 71.5084 -3.24142e-15 1.30199e-17 0.290893 -1.25209e-16 9.77024e-17)
(8.26326e-16 -1.17428e-29 -2.75222e-31 70.8908 4.99065e-15 -1.4348e-14 0.290443 -1.9237e-17 -5.93031e-17)
(0 1.17428e-29 2.75222e-31 70.8908 -3.96017e-15 6.54304e-18 0.290443 -1.29164e-16 9.8468e-17)
(-1.86079e-15 3.0758e-29 1.11803e-30 70.2669 5.29779e-15 -1.44741e-14 0.289945 -2.16975e-17 -6.02535e-17)
(-3.72159e-15 -2.33169e-29 -9.10818e-31 70.2669 -4.22399e-15 1.06981e-17 0.289945 -1.34749e-16 9.92224e-17)
(-1.76509e-15 -1.36424e-29 -6.1796e-31 69.637 5.92222e-15 -1.45997e-14 0.2894 -2.20624e-17 -6.12122e-17)
(7.60473e-15 2.31495e-29 7.23422e-31 69.637 -3.4429e-15 2.31312e-17 0.2894 -1.39075e-16 9.99776e-17)
(2.58806e-15 -2.67012e-29 -1.18469e-30 69.0014 6.7007e-15 -1.47243e-14 0.288809 -2.72263e-17 -6.21764e-17)
(3.88302e-15 1.72375e-29 8.97784e-31 69.0014 -3.99801e-15 2.40913e-17 0.288809 -1.41476e-16 1.0075e-16)
(-9.90883e-16 3.71663e-30 2.87529e-31 68.3604 6.26271e-15 -1.48501e-14 0.288172 -2.89297e-17 -6.3167e-17)
(0 1.14091e-29 0 68.3604 -5.11895e-15 1.957e-17 0.288172 -1.47057e-16 1.01517e-16)
(0 -5.66359e-30 -1.76987e-31 67.7143 5.96719e-15 -1.49793e-14 0.287489 -2.39115e-17 -6.41815e-17)
(4.04389e-15 1.13272e-29 1.76987e-31 67.7143 -5.55682e-15 2.11819e-17 0.287489 -1.54118e-16 1.02292e-16)
(-2.06205e-15 4.11684e-29 9.29218e-31 67.0633 6.72505e-15 -1.51084e-14 0.286761 -2.68283e-17 -6.51929e-17)
(-4.12409e-15 -3.37376e-29 -7.02866e-31 67.0633 -5.87604e-15 2.07302e-17 0.286761 -1.60623e-16 1.03073e-16)
(-2.10206e-15 1.84532e-30 5.58997e-32 66.4078 7.40312e-15 -1.52372e-14 0.285989 -3.07715e-17 -6.62284e-17)
(4.20411e-15 1.11651e-29 3.48909e-31 66.4078 -5.32456e-15 2.71066e-17 0.285989 -1.67596e-16 1.03852e-16)
(0 0 0 65.748 7.76234e-15 -1.53674e-14 0.285172 -3.30872e-17 -6.72741e-17)
(0 1.10849e-29 1.73202e-31 65.748 -5.06206e-15 2.16772e-17 0.285172 -1.74239e-16 1.04654e-16)
(-1.09089e-15 1.47166e-29 4.63188e-31 65.0842 7.51247e-15 -1.54974e-14 0.284311 -3.43501e-17 -6.83319e-17)
(-4.36357e-15 0 0 65.0842 -5.43286e-15 6.5574e-18 0.284311 -1.80206e-16 1.05434e-16)
(0 -2.73157e-29 -1.02434e-30 64.4166 6.63863e-15 -1.56288e-14 0.283407 -3.13733e-17 -6.94127e-17)
(4.44299e-15 2.73157e-29 1.02434e-30 64.4166 -4.57968e-15 2.81236e-17 0.283407 -1.8464e-16 1.06207e-16)
(0 -3.25435e-29 -1.01698e-30 63.7456 5.53663e-15 -1.57624e-14 0.282461 -2.71195e-17 -7.05145e-17)
(9.04435e-15 3.25435e-29 1.01698e-30 63.7456 -3.20203e-15 4.21573e-17 0.282461 -1.88303e-16 1.07045e-16)
(-1.51573e-15 1.07699e-29 5.04841e-31 63.0714 4.43426e-15 -1.58989e-14 0.281472 -2.20109e-17 -7.16456e-17)
(0 0 -3.3656e-31 63.0714 -3.15961e-15 1.40169e-17 0.281472 -1.93015e-16 1.07859e-16)
(3.34894e-16 -6.98184e-30 -5.40458e-31 62.3943 3.92284e-15 -1.60377e-14 0.280442 -1.7621e-17 -7.27926e-17)
(-4.67982e-15 1.06926e-29 3.34144e-31 62.3943 -2.88959e-15 -6.91438e-18 0.280442 -1.98107e-16 1.08621e-16)
(0 1.06158e-29 4.97616e-31 61.7146 4.11758e-15 -1.61768e-14 0.27937 -1.7708e-17 -7.3952e-17)
(4.75825e-15 -5.30791e-30 -1.65872e-31 61.7146 -1.79699e-15 4.05568e-18 0.27937 -2.0108e-16 1.09347e-16)
(0 1.58094e-29 3.29362e-31 61.0325 4.50564e-15 -1.63163e-14 0.278258 -1.96498e-17 -7.5129e-17)
(4.83641e-15 -1.05396e-29 -1.64681e-31 61.0325 -2.45972e-15 1.82356e-17 0.278258 -2.04167e-16 1.10087e-16)
(-1.22857e-15 -1.72194e-29 -5.19411e-31 60.3482 4.48636e-15 -1.64579e-14 0.277106 -2.15234e-17 -7.6333e-17)
(0 2.61597e-29 8.17492e-31 60.3482 -3.06234e-15 1.88755e-17 0.277106 -2.08639e-16 1.10812e-16)
(0 -2.07775e-29 -1.13627e-30 59.6621 4.13119e-15 -1.66015e-14 0.275915 -1.9757e-17 -7.75554e-17)
(4.99185e-15 2.07775e-29 1.13627e-30 59.6621 -1.92173e-15 1.61152e-17 0.275915 -2.10981e-16 1.11532e-16)
(-1.26728e-15 1.91791e-29 3.00415e-31 58.9743 4.89502e-15 -1.67468e-14 0.274685 -1.85319e-17 -7.88032e-17)
(0 -1.03142e-29 0 58.9743 -1.43301e-15 1.09715e-17 0.274685 -2.12468e-16 1.12228e-16)
(-1.54649e-16 1.16539e-29 4.98356e-31 58.2852 6.46918e-15 -1.68936e-14 0.273417 -2.72009e-17 -8.0067e-17)
(-1.44116e-15 -5.12004e-30 -1.60001e-31 58.2852 -2.3024e-15 5.79868e-18 0.273417 -2.13879e-16 1.12912e-16)
(-4.1673e-15 2.9121e-29 1.0972e-30 57.595 6.76621e-15 -1.70403e-14 0.272112 -3.36577e-17 -8.13415e-17)
(-3.79186e-15 -2.03331e-29 -7.94262e-31 57.595 -3.6909e-15 2.67914e-18 0.272112 -2.1665e-16 1.13571e-16)
(-4.07001e-15 2.2549e-29 9.23969e-31 56.9039 5.93763e-15 -1.71863e-14 0.27077 -3.04195e-17 -8.26273e-17)
(-3.87841e-15 -1.51403e-29 -6.30847e-31 56.9039 -4.31929e-15 -2.53539e-18 0.27077 -2.21613e-16 1.14252e-16)
(-2.68743e-15 3.74716e-29 1.70737e-30 56.2122 5.50839e-15 -1.7333e-14 0.269391 -2.62127e-17 -8.39368e-17)
(-5.37487e-15 -3.00632e-29 -1.40921e-30 56.2122 -3.66122e-15 6.68274e-19 0.269391 -2.26011e-16 1.14923e-16)
(0 -9.94911e-30 -3.1091e-31 55.5201 5.39603e-15 -1.74799e-14 0.267978 -2.67214e-17 -8.52539e-17)
(5.45042e-15 9.94911e-30 3.1091e-31 55.5201 -3.17734e-15 1.85955e-17 0.267978 -2.29856e-16 1.15603e-16)
(-1.3814e-15 3.70252e-30 1.54231e-31 54.8279 5.21068e-15 -1.76277e-14 0.266529 -2.55019e-17 -8.66018e-17)
(5.5256e-15 0 3.08677e-31 54.8279 -3.77731e-15 3.05869e-17 0.266529 -2.33106e-16 1.16302e-16)
(0 -4.90337e-30 0 54.1358 5.21135e-15 -1.7779e-14 0.265047 -2.52958e-17 -8.79828e-17)
(5.6004e-15 9.80673e-30 3.0646e-31 54.1358 -4.10329e-15 2.3239e-17 0.265047 -2.38039e-16 1.17012e-16)
(-2.83741e-15 7.40318e-30 1.66964e-31 53.4439 5.33392e-15 -1.79307e-14 0.263532 -2.58787e-17 -8.93646e-17)
(5.67481e-15 0 1.5213e-31 53.4439 -3.94385e-15 1.71782e-17 0.263532 -2.42468e-16 1.17698e-16)
(-1.4372e-15 3.70069e-30 1.62271e-31 52.7526 5.61955e-15 -1.80805e-14 0.261984 -2.68797e-17 -9.0758e-17)
(5.74881e-15 4.8332e-30 3.02075e-31 52.7526 -3.80595e-15 1.89491e-17 0.261984 -2.46822e-16 1.18396e-16)
(0 -4.79849e-30 -2.99906e-31 52.0621 5.67394e-15 -1.82298e-14 0.260404 -2.91102e-17 -9.21653e-17)
(5.82241e-15 4.79849e-30 2.99906e-31 52.0621 -3.61743e-15 1.25865e-17 0.260404 -2.54567e-16 1.19105e-16)
(0 4.76403e-30 0 51.3725 5.74876e-15 -1.83807e-14 0.258793 -2.78176e-17 -9.36069e-17)
(5.89558e-15 -4.76403e-30 0 51.3725 -3.18286e-15 1.22622e-17 0.258793 -2.58403e-16 1.19818e-16)
(0 9.45965e-30 5.91228e-31 50.6842 6.71585e-15 -1.8533e-14 0.257152 -3.02918e-17 -9.50586e-17)
(5.96832e-15 -4.72982e-30 -5.91228e-31 50.6842 -3.73229e-15 2.01018e-17 0.257152 -2.59021e-16 1.20574e-16)
(-2.83192e-15 1.77822e-29 1.05407e-30 49.9972 7.84981e-15 -1.86842e-14 0.255481 -3.81018e-17 -9.65225e-17)
(0 -9.39172e-30 -8.80474e-31 49.9972 -4.64812e-15 3.35024e-17 0.255481 -2.64331e-16 1.21348e-16)
(1.52812e-15 5.63143e-30 1.14844e-31 49.3118 7.45956e-15 -1.88377e-14 0.253781 -4.24006e-17 -9.80292e-17)
(6.11247e-15 -4.66214e-30 -2.91384e-31 49.3118 -4.27979e-15 3.88544e-17 0.253781 -2.68824e-16 1.22207e-16)
(0 1.3886e-29 5.78582e-31 48.6282 6.72453e-15 -1.89941e-14 0.252053 -3.461e-17 -9.95568e-17)
(-6.18387e-15 -2.31433e-29 -1.15716e-30 48.6282 -4.58327e-15 1.40028e-17 0.252053 -2.72812e-16 1.23075e-16)
(0 2.75725e-29 1.72328e-30 47.9467 7.75281e-15 -1.91491e-14 0.250299 -3.53425e-17 -1.01082e-16)
(-6.2548e-15 -2.75725e-29 -1.72328e-30 47.9467 -6.02002e-15 -2.0965e-17 0.250299 -2.78166e-16 1.23922e-16)
(1.58132e-15 1.91236e-29 1.2401e-30 47.2673 8.83498e-15 -1.93019e-14 0.248517 -4.59252e-17 -1.02621e-16)
(-1.26505e-14 -2.28121e-29 -1.42576e-30 47.2673 -6.59263e-15 -5.32553e-18 0.248517 -2.87038e-16 1.24742e-16)
(0 0 0 46.5903 8.14894e-15 -1.94539e-14 0.24671 -4.73173e-17 -1.04171e-16)
(1.27905e-14 0 0 46.5903 -5.75183e-15 6.34187e-17 0.24671 -2.96258e-16 1.25645e-16)
(9.15476e-16 -5.30765e-30 -8.91118e-32 45.9159 7.64643e-15 -1.96108e-14 0.244878 -3.92733e-17 -1.05797e-16)
(1.03978e-14 8.99427e-30 2.81071e-31 45.9159 -6.92958e-15 6.34354e-17 0.244878 -3.04484e-16 1.26695e-16)
(-1.63343e-15 3.68551e-30 -8.38719e-32 45.2442 8.59263e-15 -1.97737e-14 0.243023 -4.26046e-17 -1.07446e-16)
(0 4.46484e-30 5.58105e-31 45.2442 -8.05405e-15 2.30657e-17 0.243023 -3.18098e-16 1.27687e-16)
(-1.65056e-15 3.028e-29 1.86075e-30 44.5754 9.03393e-15 -1.99354e-14 0.241143 -5.00842e-17 -1.09096e-16)
(0 -2.65967e-29 -1.66229e-30 44.5754 -7.16388e-15 9.76236e-18 0.241143 -3.29427e-16 1.28675e-16)
(-1.66755e-15 3.00878e-29 1.85213e-30 43.9098 8.69284e-15 -2.00971e-14 0.239242 -4.80338e-17 -1.10781e-16)
(0 -2.64057e-29 -1.65035e-30 43.9098 -6.79335e-15 6.10244e-19 0.239242 -3.41795e-16 1.29627e-16)
(1.68442e-15 6.88659e-31 6.79386e-32 43.2473 8.58782e-15 -2.02626e-14 0.237318 -4.70661e-17 -1.1251e-16)
(4.27797e-15 -4.36934e-30 -2.73084e-31 43.2473 -5.60043e-15 4.94062e-18 0.237318 -3.52692e-16 1.30598e-16)
(3.40232e-15 5.6562e-30 3.96245e-31 42.5883 8.67648e-15 -2.04307e-14 0.235374 -4.75697e-17 -1.14262e-16)
(0 -2.16898e-29 -1.08449e-30 42.5883 -6.12291e-15 3.87682e-18 0.235374 -3.60862e-16 1.31581e-16)
(0 1.29204e-29 5.38352e-31 41.9329 8.92555e-15 -2.14569e-14 0.23341 -4.87371e-17 -1.25657e-16)
(-9.29558e-15 -8.61363e-30 -2.69176e-31 41.9329 -8.20381e-15 2.80062e-18 0.23341 -3.73966e-16 1.32571e-16)
(1.73424e-15 9.152e-30 3.23289e-31 41.2812 9.68935e-15 -2.46202e-14 0.231426 -5.10549e-17 -1.51671e-16)
(-6.93694e-15 -1.28277e-29 -5.34486e-31 41.2812 -7.47564e-15 9.84378e-18 0.231426 -3.82864e-16 1.33626e-16)
(1.75057e-15 4.81701e-30 8.45392e-31 40.6334 9.61025e-15 -2.69388e-14 0.229424 -5.80765e-17 -1.53874e-16)
(-2.38983e-15 -4.24518e-30 -5.30648e-31 40.6334 -6.30686e-15 1.34662e-18 0.229424 -3.90521e-16 1.34745e-16)
(2.37267e-15 -8.4294e-30 -1.05368e-30 39.9896 8.1144e-15 -2.71572e-14 0.227405 -5.08957e-17 -1.56376e-16)
(7.06708e-15 8.4294e-30 1.31709e-30 39.9896 -6.35534e-15 -5.86123e-18 0.227405 -3.99047e-16 1.35851e-16)
(-3.56567e-15 -1.35766e-29 -1.37965e-30 39.35 8.87691e-15 -2.73662e-14 0.225369 -4.17694e-17 -1.58521e-16)
(7.13133e-15 2.51066e-29 1.83069e-30 39.35 -7.55917e-15 -2.50342e-19 0.225369 -4.07007e-16 1.3702e-16)
(-5.93622e-15 1.97999e-29 1.49952e-30 38.7146 1.10414e-14 -2.75442e-14 0.223316 -6.04402e-17 -1.60717e-16)
(-4.85631e-15 -1.24632e-29 -1.0386e-30 38.7146 -9.60162e-15 1.21727e-17 0.223316 -4.21729e-16 1.38245e-16)
(-1.81454e-15 2.42879e-29 2.03992e-30 38.0837 9.95041e-15 -2.7753e-14 0.221249 -6.75526e-17 -1.63269e-16)
(-7.25815e-15 -2.06228e-29 -1.80449e-30 38.0837 -8.27227e-15 1.7226e-17 0.221249 -4.3647e-16 1.3956e-16)
(4.75064e-16 -8.61808e-30 -5.27299e-31 37.4573 8.09338e-15 -2.79727e-14 0.219167 -4.85357e-17 -1.65643e-16)
(5.01548e-15 1.22848e-29 1.02373e-30 37.4573 -6.00328e-15 -2.7629e-18 0.219167 -4.4462e-16 1.40856e-16)
(0 -1.21966e-29 -1.52457e-30 36.8356 8.13477e-15 -2.81701e-14 0.217071 -4.66194e-17 -1.67985e-16)
(5.09402e-15 1.62621e-29 1.77867e-30 36.8356 -7.18019e-15 -1.89398e-18 0.217071 -4.53833e-16 1.42148e-16)
(2.27226e-15 -8.07267e-30 -5.04542e-31 36.2187 8.72646e-15 -2.83946e-14 0.214963 -4.97323e-17 -1.70735e-16)
(-2.27226e-15 8.07267e-30 7.56813e-31 36.2187 -8.21205e-15 1.72732e-17 0.214963 -4.69005e-16 1.43541e-16)
(-1.87624e-15 1.16754e-29 1.25796e-30 35.6067 9.02901e-15 -2.86292e-14 0.212843 -5.43798e-17 -1.73253e-16)
(-2.25594e-15 -4.00735e-30 -5.00919e-31 35.6067 -6.97293e-15 1.75989e-17 0.212843 -4.82654e-16 1.44956e-16)
(-3.78262e-15 7.31847e-30 5.22983e-31 34.9997 9.08552e-15 -2.88406e-14 0.210712 -5.41026e-17 -1.75781e-16)
(7.56523e-15 0 0 34.9997 -6.56159e-15 4.36812e-18 0.210712 -4.94516e-16 1.46334e-16)
(0 7.90001e-30 4.93751e-31 34.3978 1.04479e-14 -2.90444e-14 0.20857 -5.58557e-17 -1.78262e-16)
(7.62491e-15 -3.95001e-30 0 34.3978 -7.58586e-15 1.87898e-18 0.20857 -5.06606e-16 1.47691e-16)
(-2.49438e-15 4.19025e-30 1.19811e-30 33.8011 1.07902e-14 -2.9216e-14 0.206418 -7.15546e-17 -1.80447e-16)
(7.68399e-15 0 -4.90205e-31 33.8011 -7.81502e-15 1.22422e-17 0.206418 -5.18829e-16 1.49062e-16)
(2.19183e-15 -1.16804e-29 -9.7337e-31 33.2098 8.22582e-15 -2.94166e-14 0.204258 -6.0885e-17 -1.8334e-16)
(-2.19183e-15 1.16804e-29 9.7337e-31 33.2098 -6.52868e-15 3.14845e-17 0.204258 -5.35349e-16 1.50457e-16)
(0 2.31931e-29 2.41595e-30 32.6238 6.45665e-15 -2.96481e-14 0.20209 -4.07661e-17 -1.8596e-16)
(0 -2.31931e-29 -2.41595e-30 32.6238 -5.00131e-15 3.59519e-17 0.20209 -5.41424e-16 1.51902e-16)
(4.12489e-15 -1.1329e-29 -1.24886e-30 32.0433 6.17321e-15 -2.98684e-14 0.199914 -3.96527e-17 -1.88776e-16)
(0 7.67553e-30 9.59441e-31 32.0433 -4.55086e-15 2.48597e-17 0.199914 -5.43341e-16 1.53241e-16)
(-6.10214e-15 1.87355e-29 1.54307e-30 31.4683 6.04041e-15 -3.00698e-14 0.197732 -3.77891e-17 -1.91215e-16)
(7.91438e-15 -7.62041e-30 -4.76275e-31 31.4683 -3.94553e-15 2.24918e-17 0.197732 -5.55345e-16 1.54537e-16)
(0 7.56569e-30 9.45711e-31 30.899 6.73372e-15 -3.02443e-14 0.195544 -3.85441e-17 -1.93745e-16)
(7.97047e-15 -3.78284e-30 -4.72855e-31 30.899 -3.24473e-15 2.41674e-17 0.195544 -5.61992e-16 1.55817e-16)
(-1.07768e-16 3.86317e-30 6.31778e-31 30.3354 6.82397e-15 -3.04312e-14 0.193352 -4.71942e-17 -1.96395e-16)
(8.02596e-15 -3.75568e-30 -4.6946e-31 30.3354 -3.86621e-15 2.58502e-17 0.193352 -5.676e-16 1.57088e-16)
(0 1.86435e-29 1.39827e-30 29.7776 5.82787e-15 -3.06354e-14 0.191154 -4.02648e-17 -1.99205e-16)
(0 -1.86435e-29 -1.39827e-30 29.7776 -4.60793e-15 2.07633e-17 0.191154 -5.73119e-16 1.58333e-16)
(2.03378e-15 -2.58592e-29 -1.70748e-30 29.2257 7.04541e-15 -3.08676e-14 0.188954 -3.49705e-17 -2.02277e-16)
(8.13513e-15 2.22116e-29 1.38823e-30 29.2257 -4.9354e-15 1.56349e-17 0.188954 -5.77439e-16 1.59529e-16)
(1.98168e-15 1.11545e-29 5.35646e-31 28.6796 9.48854e-15 -3.10755e-14 0.18675 -5.67423e-17 -2.0483e-16)
(4.13808e-15 -1.83768e-29 -1.37826e-30 28.6796 -5.87057e-15 1.3175e-17 0.18675 -5.87816e-16 1.6076e-16)
(0 1.09469e-29 9.1224e-31 28.1395 9.17407e-15 -3.07127e-14 0.184545 -6.75996e-17 -2.0041e-16)
(8.24185e-15 -3.64896e-30 -4.5612e-31 28.1395 -5.47119e-15 1.54361e-17 0.184545 -5.93205e-16 1.6198e-16)
(4.07886e-15 -2.17365e-29 -6.93563e-29 27.6054 7.05829e-15 -1.90987e-14 0.182338 -5.34017e-17 -6.34579e-17)
(4.21544e-15 2.17365e-29 3.16991e-30 27.6054 -4.43723e-15 1.29648e-17 0.182338 -5.98984e-16 1.63226e-16)
(-6.1749e-17 4.42617e-32 3.60164e-31 27.0774 7.01031e-15 -9.46503e-15 0.18013 -4.03596e-17 -6.32462e-17)
(6.32135e-15 7.19348e-30 4.49593e-31 27.0774 -5.12447e-15 1.18262e-17 0.18013 -6.08963e-16 1.64466e-16)
(8.90942e-17 2.49297e-29 2.76261e-30 26.5555 8.756e-15 -9.37808e-15 0.177922 -5.35323e-17 -6.32026e-17)
(0 -2.14255e-29 -2.67818e-30 26.5555 -6.52435e-15 1.7451e-17 0.177922 -6.1938e-16 1.65763e-16)
(0 -3.54527e-30 -8.86317e-31 26.0397 8.44536e-15 -9.29466e-15 0.175715 -6.45686e-17 -6.30273e-17)
(0 7.09054e-30 1.32948e-30 26.0397 -5.74649e-15 6.84696e-18 0.175715 -6.33728e-16 1.67052e-16)
(3.96296e-15 -2.46387e-29 -2.19988e-30 25.5302 6.94018e-15 -9.20731e-15 0.173509 -5.00755e-17 -6.29211e-17)
(1.3033e-14 2.46387e-29 2.19988e-30 25.5302 -3.88354e-15 2.26009e-18 0.173509 -6.43517e-16 1.68323e-16)
(-1.96725e-15 6.98907e-30 8.73634e-31 25.0268 6.57533e-15 -9.12368e-15 0.171306 -4.48418e-17 -6.27859e-17)
(0 -3.49454e-30 -4.36817e-31 25.0268 -5.88489e-15 1.59326e-17 0.171306 -6.51325e-16 1.69681e-16)
(0 6.93888e-30 1.30104e-30 24.5297 6.9466e-15 -9.02519e-15 0.169105 -4.57574e-17 -6.24628e-17)
(-8.59611e-15 0 -8.6736e-31 24.5297 -6.43019e-15 2.42772e-17 0.169105 -6.64358e-16 1.71123e-16)
(-2.16107e-15 1.05206e-29 1.6625e-30 24.0389 7.91193e-15 -8.91974e-15 0.166907 -5.06639e-17 -6.2218e-17)
(8.64427e-15 -3.44453e-30 -8.61132e-31 24.0389 -4.53473e-15 9.63587e-18 0.166907 -6.71008e-16 1.72552e-16)
(2.17295e-15 1.00507e-29 9.09919e-31 23.5543 7.50723e-15 -8.84041e-15 0.164713 -5.99641e-17 -6.22488e-17)
(0 -2.05188e-29 -2.56485e-30 23.5543 -4.56939e-15 1.38584e-17 0.164713 -6.76972e-16 1.73911e-16)
(4.09603e-15 -3.41863e-29 -2.49632e-30 23.0761 5.51544e-15 -8.73481e-15 0.162524 -4.56809e-17 -6.16184e-17)
(8.73874e-15 2.37667e-29 2.12202e-30 23.0761 -3.50339e-15 3.0305e-17 0.162524 -6.87231e-16 1.75406e-16)
(1.89762e-15 -1.34834e-29 -8.42714e-31 22.6042 5.75083e-15 -8.59423e-15 0.16034 -3.24866e-17 -6.11372e-17)
(0 1.34834e-29 8.42714e-31 22.6042 -4.34089e-15 3.60225e-17 0.16034 -6.899e-16 1.76903e-16)
(0 6.6933e-30 1.25499e-30 22.1387 7.22699e-15 -8.46817e-15 0.158161 -4.97185e-17 -6.06928e-17)
(-8.83078e-15 -1.67332e-29 -2.50999e-30 22.1387 -5.4771e-15 3.8388e-17 0.158161 -6.99472e-16 1.78462e-16)
(-2.91598e-15 7.54947e-30 7.23021e-31 21.6795 7.18828e-15 -8.34388e-15 0.155989 -5.42727e-17 -6.02171e-17)
(8.87588e-15 -3.32262e-30 -4.15327e-31 21.6795 -4.00526e-15 2.58562e-17 0.155989 -7.0787e-16 1.79923e-16)
(-8.17426e-15 -9.24744e-30 -2.53663e-30 21.2266 7.52798e-15 -8.23654e-15 0.153824 -4.98773e-17 -6.00016e-17)
(8.92038e-15 1.3195e-29 2.47407e-30 21.2266 -3.68157e-15 2.54272e-17 0.153824 -7.15582e-16 1.81313e-16)
(0 -3.27507e-30 -4.09384e-31 20.7802 8.19269e-15 -8.138e-15 0.151666 -6.00368e-17 -5.96374e-17)
(8.96427e-15 3.27507e-30 4.09384e-31 20.7802 -4.31805e-15 3.2444e-17 0.151666 -7.23196e-16 1.82752e-16)
(1.83046e-15 -9.75465e-30 -1.21933e-30 20.3401 9.45816e-15 -8.02454e-15 0.149517 -6.04089e-17 -5.91866e-17)
(0 9.75465e-30 1.21933e-30 20.3401 -6.1891e-15 2.52751e-17 0.149517 -7.30558e-16 1.84165e-16)
(0 2.25974e-29 2.42115e-30 19.9063 1.12126e-14 -7.94459e-15 0.147376 -7.9715e-17 -5.93064e-17)
(0 -2.25974e-29 -2.42115e-30 19.9063 -8.75552e-15 1.66931e-17 0.147376 -7.47854e-16 1.85485e-16)
(-4.54617e-15 8.11088e-31 1.17529e-30 19.4789 1.15238e-14 -7.89022e-15 0.145244 -8.75471e-17 -5.92262e-17)
(0 6.41004e-30 -4.00628e-31 19.4789 -9.92343e-15 1.21087e-17 0.145244 -7.68229e-16 1.86847e-16)
(4.56691e-15 -1.03989e-29 -1.57321e-30 19.0578 1.14641e-14 -7.82301e-15 0.143121 -8.55645e-17 -5.91468e-17)
(9.13383e-15 3.18201e-30 7.95501e-31 19.0578 -9.35196e-15 7.48526e-18 0.143121 -7.86949e-16 1.882e-16)
(0 -1.89549e-29 -2.36937e-30 18.6431 1.01145e-14 -7.75651e-15 0.141009 -8.79119e-17 -5.90688e-17)
(9.17473e-15 1.89549e-29 2.36937e-30 18.6431 -9.16322e-15 2.85756e-17 0.141009 -8.01089e-16 1.89561e-16)
(0 -1.56824e-29 -1.17618e-30 18.2347 1.02485e-14 -7.65932e-15 0.138907 -6.61639e-17 -5.85081e-17)
(0 1.56824e-29 1.96029e-30 18.2347 -1.02229e-14 2.81267e-17 0.138907 -8.21886e-16 1.91014e-16)
(0 -9.34184e-30 -1.16773e-30 17.8326 1.23035e-14 -7.57185e-15 0.136816 -9.12519e-17 -5.8569e-17)
(9.25474e-15 9.34184e-30 1.16773e-30 17.8326 -1.02955e-14 1.54705e-17 0.136816 -8.43543e-16 1.92295e-16)
(-2.32347e-15 -1.80446e-29 -1.53736e-30 17.4368 1.08722e-14 -7.50526e-15 0.134736 -9.90137e-17 -5.83168e-17)
(9.29387e-15 2.47327e-29 2.31869e-30 17.4368 -1.07865e-14 1.89817e-17 0.134736 -8.62552e-16 1.93574e-16)
(0 -3.06939e-30 -3.83673e-31 17.0472 9.8523e-15 -7.4162e-15 0.132669 -7.0205e-17 -5.80171e-17)
(0 3.06939e-30 3.83673e-31 17.0472 -1.14478e-14 1.30251e-17 0.132669 -8.90107e-16 1.94803e-16)
(8.1162e-15 -1.63312e-29 -1.55739e-30 16.6639 1.08073e-14 -7.33975e-15 0.130614 -8.43954e-17 -5.79512e-17)
(9.37038e-15 9.14203e-30 7.61836e-31 16.6639 -1.01262e-14 1.65076e-17 0.130614 -9.15434e-16 1.96074e-16)
(3.40637e-15 -9.07639e-30 -7.56366e-31 16.2868 1.05377e-14 -7.26522e-15 0.128572 -8.63673e-17 -5.76689e-17)
(-3.40637e-15 6.05092e-30 7.56366e-31 16.2868 -1.11028e-14 2.38917e-18 0.128572 -9.36185e-16 1.97356e-16)
(-2.36115e-15 2.76198e-29 3.77979e-30 15.9158 1.03448e-14 -7.20778e-15 0.126543 -8.13147e-17 -5.78685e-17)
(0 -2.40299e-29 -3.3792e-30 15.9158 -1.01186e-14 -6.41536e-18 0.126543 -9.65005e-16 1.98515e-16)
(0 -2.68395e-29 -2.98217e-30 15.551 1.13091e-14 -7.14979e-15 0.124527 -8.45176e-17 -5.75665e-17)
(1.89616e-14 2.68395e-29 2.98217e-30 15.551 -7.50284e-15 9.76093e-19 0.124527 -9.82064e-16 1.99767e-16)