/*--------------------------------*- C++ -*----------------------------------*\
| =========                 |                                                 |
| \\      /  F ield         | OpenFOAM: The Open Source CFD Toolbox           |
|  \\    /   O peration     | Version:  2012                                  |
|   \\  /    A nd           | Website:  www.openfoam.com                      |
|    \\/     M anipulation  |                                                 |
\*---------------------------------------------------------------------------*/
FoamFile
{
    version     2.0;
    format      ascii;
    class       volScalarField;
    location    "3000";
    object      k;
}
// * * * * * * * * * * * * * * * * * * * * * * * * * * * * * * * * * * * * * //

dimensions      [0 2 -2 0 0 0 0];


internalField   nonuniform List<scalar> 
5120
(
3.33631e-07
3.33631e-07
4.92158e-08
4.92158e-08
1.48301e-08
1.48301e-08
6.49212e-09
6.49212e-09
3.64091e-09
3.64091e-09
2.57099e-09
2.57099e-09
2.31912e-09
2.31912e-09
2.5872e-09
2.5872e-09
3.28763e-09
3.28763e-09
4.41423e-09
4.41423e-09
5.99805e-09
5.99805e-09
8.09006e-09
8.09006e-09
1.07537e-08
1.07537e-08
1.40611e-08
1.40611e-08
1.80917e-08
1.80917e-08
2.29311e-08
2.29311e-08
2.86703e-08
2.86703e-08
3.54059e-08
3.54059e-08
4.32398e-08
4.32398e-08
5.22789e-08
5.22789e-08
6.26353e-08
6.26353e-08
7.44261e-08
7.44261e-08
8.77737e-08
8.77737e-08
1.02805e-07
1.02805e-07
1.19653e-07
1.19653e-07
1.38455e-07
1.38455e-07
1.59353e-07
1.59353e-07
1.82494e-07
1.82494e-07
2.0803e-07
2.0803e-07
2.36118e-07
2.36118e-07
2.66919e-07
2.66919e-07
3.00597e-07
3.00597e-07
3.37323e-07
3.37323e-07
3.77271e-07
3.77271e-07
4.20616e-07
4.20616e-07
4.6754e-07
4.6754e-07
5.18225e-07
5.18225e-07
5.72857e-07
5.72857e-07
6.31624e-07
6.31624e-07
6.94717e-07
6.94717e-07
7.62324e-07
7.62324e-07
8.34639e-07
8.34639e-07
9.11852e-07
9.11852e-07
9.94155e-07
9.94155e-07
1.08174e-06
1.08174e-06
1.17478e-06
1.17478e-06
1.27349e-06
1.27349e-06
1.37802e-06
1.37802e-06
1.48857e-06
1.48857e-06
1.6053e-06
1.6053e-06
1.72839e-06
1.72839e-06
1.85799e-06
1.85799e-06
1.99426e-06
1.99426e-06
2.13735e-06
2.13735e-06
2.28739e-06
2.28739e-06
2.44451e-06
2.44451e-06
2.60883e-06
2.60883e-06
2.78046e-06
2.78046e-06
2.95949e-06
2.95949e-06
3.146e-06
3.146e-06
3.34007e-06
3.34007e-06
3.54176e-06
3.54176e-06
3.7511e-06
3.7511e-06
3.96812e-06
3.96812e-06
4.19284e-06
4.19284e-06
4.42527e-06
4.42527e-06
4.66537e-06
4.66537e-06
4.91312e-06
4.91312e-06
5.16847e-06
5.16847e-06
5.43135e-06
5.43135e-06
5.7017e-06
5.7017e-06
5.97939e-06
5.97939e-06
6.26434e-06
6.26434e-06
6.55641e-06
6.55641e-06
6.85545e-06
6.85545e-06
7.16131e-06
7.16131e-06
7.47382e-06
7.47382e-06
7.79279e-06
7.79279e-06
8.11801e-06
8.11801e-06
8.44928e-06
8.44928e-06
8.78637e-06
8.78637e-06
9.12904e-06
9.12904e-06
9.47704e-06
9.47704e-06
9.83011e-06
9.83011e-06
1.0188e-05
1.0188e-05
1.05504e-05
1.05504e-05
1.0917e-05
1.0917e-05
1.12876e-05
1.12876e-05
1.16618e-05
1.16618e-05
1.20394e-05
1.20394e-05
1.242e-05
1.242e-05
1.28033e-05
1.28033e-05
1.3189e-05
1.3189e-05
1.35767e-05
1.35767e-05
1.39663e-05
1.39663e-05
1.43573e-05
1.43573e-05
1.47494e-05
1.47494e-05
1.51423e-05
1.51423e-05
1.55357e-05
1.55357e-05
1.59292e-05
1.59292e-05
1.63227e-05
1.63227e-05
1.67157e-05
1.67157e-05
1.7108e-05
1.7108e-05
1.74992e-05
1.74992e-05
1.78892e-05
1.78892e-05
1.82775e-05
1.82775e-05
1.86641e-05
1.86641e-05
1.90484e-05
1.90484e-05
1.94305e-05
1.94305e-05
1.98099e-05
1.98099e-05
2.01864e-05
2.01864e-05
2.05599e-05
2.05599e-05
2.09301e-05
2.09301e-05
2.12969e-05
2.12969e-05
2.16599e-05
2.16599e-05
2.20191e-05
2.20191e-05
2.23743e-05
2.23743e-05
2.27253e-05
2.27253e-05
2.3072e-05
2.3072e-05
2.34142e-05
2.34142e-05
2.37518e-05
2.37518e-05
2.40848e-05
2.40848e-05
2.4413e-05
2.4413e-05
2.47363e-05
2.47363e-05
2.50547e-05
2.50547e-05
2.53681e-05
2.53681e-05
2.56765e-05
2.56765e-05
2.59797e-05
2.59797e-05
2.62779e-05
2.62779e-05
2.65709e-05
2.65709e-05
2.68588e-05
2.68588e-05
2.71416e-05
2.71416e-05
2.74193e-05
2.74193e-05
2.76918e-05
2.76918e-05
2.79594e-05
2.79594e-05
2.82219e-05
2.82219e-05
2.84795e-05
2.84795e-05
2.87322e-05
2.87322e-05
2.89801e-05
2.89801e-05
2.92233e-05
2.92233e-05
2.94618e-05
2.94618e-05
2.96958e-05
2.96958e-05
2.99254e-05
2.99254e-05
3.01506e-05
3.01506e-05
3.03716e-05
3.03716e-05
3.05884e-05
3.05884e-05
3.08014e-05
3.08014e-05
3.10105e-05
3.10105e-05
3.12159e-05
3.12159e-05
3.14177e-05
3.14177e-05
3.16161e-05
3.16161e-05
3.18113e-05
3.18113e-05
3.20034e-05
3.20034e-05
3.21925e-05
3.21925e-05
3.23788e-05
3.23788e-05
3.25626e-05
3.25626e-05
3.27438e-05
3.27438e-05
3.29227e-05
3.29227e-05
3.30996e-05
3.30996e-05
3.32744e-05
3.32744e-05
3.34475e-05
3.34475e-05
3.36189e-05
3.36189e-05
3.37889e-05
3.37889e-05
3.39576e-05
3.39576e-05
3.41252e-05
3.41252e-05
3.42919e-05
3.42919e-05
3.44578e-05
3.44578e-05
3.4623e-05
3.4623e-05
3.47879e-05
3.47879e-05
3.49525e-05
3.49525e-05
3.51169e-05
3.51169e-05
3.52814e-05
3.52814e-05
3.54461e-05
3.54461e-05
3.56112e-05
3.56112e-05
3.57768e-05
3.57768e-05
3.59431e-05
3.59431e-05
3.61102e-05
3.61102e-05
3.62783e-05
3.62783e-05
3.64474e-05
3.64474e-05
3.66179e-05
3.66179e-05
3.67897e-05
3.67897e-05
3.6963e-05
3.6963e-05
3.7138e-05
3.7138e-05
3.73148e-05
3.73148e-05
3.74935e-05
3.74935e-05
3.76741e-05
3.76741e-05
3.7857e-05
3.7857e-05
3.8042e-05
3.8042e-05
3.82294e-05
3.82294e-05
3.84193e-05
3.84193e-05
3.86116e-05
3.86116e-05
3.88067e-05
3.88067e-05
3.90044e-05
3.90044e-05
3.9205e-05
3.9205e-05
3.94084e-05
3.94084e-05
3.96148e-05
3.96148e-05
3.98242e-05
3.98242e-05
4.00367e-05
4.00367e-05
4.02523e-05
4.02523e-05
4.04712e-05
4.04712e-05
4.06933e-05
4.06933e-05
4.09187e-05
4.09187e-05
4.11474e-05
4.11474e-05
4.13795e-05
4.13795e-05
4.16149e-05
4.16149e-05
4.18538e-05
4.18538e-05
4.20961e-05
4.20961e-05
4.23419e-05
4.23419e-05
4.25911e-05
4.25911e-05
4.28438e-05
4.28438e-05
4.30999e-05
4.30999e-05
4.33594e-05
4.33594e-05
4.36223e-05
4.36223e-05
4.38887e-05
4.38887e-05
4.41584e-05
4.41584e-05
4.44315e-05
4.44315e-05
4.47078e-05
4.47078e-05
4.49874e-05
4.49874e-05
4.52702e-05
4.52702e-05
4.55562e-05
4.55562e-05
4.58453e-05
4.58453e-05
4.61374e-05
4.61374e-05
4.64324e-05
4.64324e-05
4.67303e-05
4.67303e-05
4.7031e-05
4.7031e-05
4.73344e-05
4.73344e-05
4.76404e-05
4.76404e-05
4.7949e-05
4.7949e-05
4.82599e-05
4.82599e-05
4.85731e-05
4.85731e-05
4.88885e-05
4.88885e-05
4.9206e-05
4.9206e-05
4.95254e-05
4.95254e-05
4.98466e-05
4.98466e-05
5.01694e-05
5.01694e-05
5.04938e-05
5.04938e-05
5.08195e-05
5.08195e-05
5.11464e-05
5.11464e-05
5.14744e-05
5.14744e-05
5.18033e-05
5.18033e-05
5.21329e-05
5.21329e-05
5.2463e-05
5.2463e-05
5.27935e-05
5.27935e-05
5.31242e-05
5.31242e-05
5.3455e-05
5.3455e-05
5.37855e-05
5.37855e-05
5.41156e-05
5.41156e-05
5.44452e-05
5.44452e-05
5.4774e-05
5.4774e-05
5.51018e-05
5.51018e-05
5.54284e-05
5.54284e-05
5.57536e-05
5.57536e-05
5.60772e-05
5.60772e-05
5.63989e-05
5.63989e-05
5.67186e-05
5.67186e-05
5.7036e-05
5.7036e-05
5.73508e-05
5.73508e-05
5.76629e-05
5.76629e-05
5.79721e-05
5.79721e-05
5.8278e-05
5.8278e-05
5.85805e-05
5.85805e-05
5.88793e-05
5.88793e-05
5.91742e-05
5.91742e-05
5.9465e-05
5.9465e-05
5.97514e-05
5.97514e-05
6.00332e-05
6.00332e-05
6.03102e-05
6.03102e-05
6.05822e-05
6.05822e-05
6.08488e-05
6.08488e-05
6.111e-05
6.111e-05
6.13655e-05
6.13655e-05
6.16151e-05
6.16151e-05
6.18586e-05
6.18586e-05
6.20958e-05
6.20958e-05
6.23266e-05
6.23266e-05
6.25507e-05
6.25507e-05
6.27681e-05
6.27681e-05
6.29786e-05
6.29786e-05
6.31821e-05
6.31821e-05
6.33785e-05
6.33785e-05
6.35677e-05
6.35677e-05
6.37497e-05
6.37497e-05
6.39244e-05
6.39244e-05
6.40919e-05
6.40919e-05
6.42522e-05
6.42522e-05
6.44052e-05
6.44052e-05
6.45511e-05
6.45511e-05
6.469e-05
6.469e-05
6.48219e-05
6.48219e-05
6.49471e-05
6.49471e-05
6.50656e-05
6.50656e-05
6.51777e-05
6.51777e-05
6.52836e-05
6.52836e-05
6.53834e-05
6.53834e-05
6.54774e-05
6.54774e-05
6.55658e-05
6.55658e-05
6.56489e-05
6.56489e-05
6.57269e-05
6.57269e-05
6.58001e-05
6.58001e-05
6.58687e-05
6.58687e-05
6.5933e-05
6.5933e-05
6.59932e-05
6.59932e-05
6.60495e-05
6.60495e-05
6.61023e-05
6.61023e-05
6.61516e-05
6.61516e-05
6.61978e-05
6.61978e-05
6.62411e-05
6.62411e-05
6.62816e-05
6.62816e-05
6.63196e-05
6.63196e-05
6.63551e-05
6.63551e-05
6.63885e-05
6.63885e-05
6.64199e-05
6.64199e-05
6.64493e-05
6.64493e-05
6.6477e-05
6.6477e-05
6.65031e-05
6.65031e-05
6.65278e-05
6.65278e-05
6.6551e-05
6.6551e-05
6.6573e-05
6.6573e-05
6.65938e-05
6.65938e-05
6.66135e-05
6.66135e-05
6.66323e-05
6.66323e-05
6.66501e-05
6.66501e-05
6.66672e-05
6.66672e-05
6.66834e-05
6.66834e-05
6.6699e-05
6.6699e-05
6.6714e-05
6.6714e-05
6.67284e-05
6.67284e-05
6.67423e-05
6.67423e-05
6.67557e-05
6.67557e-05
6.67686e-05
6.67686e-05
6.67812e-05
6.67812e-05
6.67935e-05
6.67935e-05
6.68054e-05
6.68054e-05
6.68171e-05
6.68171e-05
6.68285e-05
6.68285e-05
6.68398e-05
6.68398e-05
6.68508e-05
6.68508e-05
6.68617e-05
6.68617e-05
6.68725e-05
6.68725e-05
6.68832e-05
6.68832e-05
6.68938e-05
6.68938e-05
6.69043e-05
6.69043e-05
6.69148e-05
6.69148e-05
6.69253e-05
6.69253e-05
6.69358e-05
6.69358e-05
6.69464e-05
6.69464e-05
6.69569e-05
6.69569e-05
6.69675e-05
6.69675e-05
6.69783e-05
6.69783e-05
6.6989e-05
6.6989e-05
6.69999e-05
6.69999e-05
6.7011e-05
6.7011e-05
6.70221e-05
6.70221e-05
6.70334e-05
6.70334e-05
6.70449e-05
6.70449e-05
6.70566e-05
6.70566e-05
6.70684e-05
6.70684e-05
6.70805e-05
6.70805e-05
6.70927e-05
6.70927e-05
6.71052e-05
6.71052e-05
6.71179e-05
6.71179e-05
6.71309e-05
6.71309e-05
6.71442e-05
6.71442e-05
6.71578e-05
6.71578e-05
6.71716e-05
6.71716e-05
6.71857e-05
6.71857e-05
6.72002e-05
6.72002e-05
6.7215e-05
6.7215e-05
6.72301e-05
6.72301e-05
6.72456e-05
6.72456e-05
6.72615e-05
6.72615e-05
6.72778e-05
6.72778e-05
6.72944e-05
6.72944e-05
6.73114e-05
6.73114e-05
6.73289e-05
6.73289e-05
6.73468e-05
6.73468e-05
6.73652e-05
6.73652e-05
6.7384e-05
6.7384e-05
6.74033e-05
6.74033e-05
6.74231e-05
6.74231e-05
6.74434e-05
6.74434e-05
6.74642e-05
6.74642e-05
6.74855e-05
6.74855e-05
6.75074e-05
6.75074e-05
6.75298e-05
6.75298e-05
6.75528e-05
6.75528e-05
6.75764e-05
6.75764e-05
6.76006e-05
6.76006e-05
6.76254e-05
6.76254e-05
6.76509e-05
6.76509e-05
6.7677e-05
6.7677e-05
6.77038e-05
6.77038e-05
6.77312e-05
6.77312e-05
6.77594e-05
6.77594e-05
6.77882e-05
6.77882e-05
6.78178e-05
6.78178e-05
6.78482e-05
6.78482e-05
6.78793e-05
6.78793e-05
6.79112e-05
6.79112e-05
6.7944e-05
6.7944e-05
6.79775e-05
6.79775e-05
6.80119e-05
6.80119e-05
6.80471e-05
6.80471e-05
6.80832e-05
6.80832e-05
6.81202e-05
6.81202e-05
6.81582e-05
6.81582e-05
6.8197e-05
6.8197e-05
6.82369e-05
6.82369e-05
6.82776e-05
6.82776e-05
6.83194e-05
6.83194e-05
6.83623e-05
6.83623e-05
6.84061e-05
6.84061e-05
6.8451e-05
6.8451e-05
6.8497e-05
6.8497e-05
6.85441e-05
6.85441e-05
6.85923e-05
6.85923e-05
6.86417e-05
6.86417e-05
6.86922e-05
6.86922e-05
6.87439e-05
6.87439e-05
6.87969e-05
6.87969e-05
6.88511e-05
6.88511e-05
6.89065e-05
6.89065e-05
6.89632e-05
6.89632e-05
6.90212e-05
6.90212e-05
6.90806e-05
6.90806e-05
6.91413e-05
6.91413e-05
6.92034e-05
6.92034e-05
6.92669e-05
6.92669e-05
6.93318e-05
6.93318e-05
6.93982e-05
6.93982e-05
6.94661e-05
6.94661e-05
6.95354e-05
6.95354e-05
6.96063e-05
6.96063e-05
6.96787e-05
6.96787e-05
6.97528e-05
6.97528e-05
6.98284e-05
6.98284e-05
6.99056e-05
6.99056e-05
6.99845e-05
6.99845e-05
7.00651e-05
7.00651e-05
7.01473e-05
7.01473e-05
7.02313e-05
7.02313e-05
7.03171e-05
7.03171e-05
7.04046e-05
7.04046e-05
7.04939e-05
7.04939e-05
7.05851e-05
7.05851e-05
7.06781e-05
7.06781e-05
7.07729e-05
7.07729e-05
7.08697e-05
7.08697e-05
7.09684e-05
7.09684e-05
7.10691e-05
7.10691e-05
7.11717e-05
7.11717e-05
7.12763e-05
7.12763e-05
7.13829e-05
7.13829e-05
7.14916e-05
7.14916e-05
7.16023e-05
7.16023e-05
7.17151e-05
7.17151e-05
7.183e-05
7.183e-05
7.1947e-05
7.1947e-05
7.20662e-05
7.20662e-05
7.21876e-05
7.21876e-05
7.23111e-05
7.23111e-05
7.24368e-05
7.24368e-05
7.25648e-05
7.25648e-05
7.2695e-05
7.2695e-05
7.28274e-05
7.28274e-05
7.29621e-05
7.29621e-05
7.30991e-05
7.30991e-05
7.32385e-05
7.32385e-05
7.33801e-05
7.33801e-05
7.3524e-05
7.3524e-05
7.36703e-05
7.36703e-05
7.38189e-05
7.38189e-05
7.39699e-05
7.39699e-05
7.41232e-05
7.41232e-05
7.4279e-05
7.4279e-05
7.44371e-05
7.44371e-05
7.45975e-05
7.45975e-05
7.47604e-05
7.47604e-05
7.49257e-05
7.49257e-05
7.50933e-05
7.50933e-05
7.52633e-05
7.52633e-05
7.54358e-05
7.54358e-05
7.56106e-05
7.56106e-05
7.57877e-05
7.57877e-05
7.59673e-05
7.59673e-05
7.61492e-05
7.61492e-05
7.63335e-05
7.63335e-05
7.65201e-05
7.65201e-05
7.6709e-05
7.6709e-05
7.69003e-05
7.69003e-05
7.70938e-05
7.70938e-05
7.72897e-05
7.72897e-05
7.74877e-05
7.74877e-05
7.76881e-05
7.76881e-05
7.78906e-05
7.78906e-05
7.80953e-05
7.80953e-05
7.83021e-05
7.83021e-05
7.85111e-05
7.85111e-05
7.87221e-05
7.87221e-05
7.89352e-05
7.89352e-05
7.91503e-05
7.91503e-05
7.93674e-05
7.93674e-05
7.95863e-05
7.95863e-05
7.98072e-05
7.98072e-05
8.00299e-05
8.00299e-05
8.02543e-05
8.02543e-05
8.04805e-05
8.04805e-05
8.07083e-05
8.07083e-05
8.09378e-05
8.09378e-05
8.11688e-05
8.11688e-05
8.14012e-05
8.14012e-05
8.16351e-05
8.16351e-05
8.18703e-05
8.18703e-05
8.21067e-05
8.21067e-05
8.23444e-05
8.23444e-05
8.25831e-05
8.25831e-05
8.28229e-05
8.28229e-05
8.30636e-05
8.30636e-05
8.33052e-05
8.33052e-05
8.35475e-05
8.35475e-05
8.37905e-05
8.37905e-05
8.4034e-05
8.4034e-05
8.4278e-05
8.4278e-05
8.45223e-05
8.45223e-05
8.47669e-05
8.47669e-05
8.50117e-05
8.50117e-05
8.52564e-05
8.52564e-05
8.55011e-05
8.55011e-05
8.57455e-05
8.57455e-05
8.59896e-05
8.59896e-05
8.62333e-05
8.62333e-05
8.64763e-05
8.64763e-05
8.67186e-05
8.67186e-05
8.69601e-05
8.69601e-05
8.72005e-05
8.72005e-05
8.74398e-05
8.74398e-05
8.76778e-05
8.76778e-05
8.79144e-05
8.79144e-05
8.81494e-05
8.81494e-05
8.83827e-05
8.83827e-05
8.8614e-05
8.8614e-05
8.88433e-05
8.88433e-05
8.90704e-05
8.90704e-05
8.92951e-05
8.92951e-05
8.95172e-05
8.95172e-05
8.97366e-05
8.97366e-05
8.99532e-05
8.99532e-05
9.01666e-05
9.01666e-05
9.03769e-05
9.03769e-05
9.05837e-05
9.05837e-05
9.07869e-05
9.07869e-05
9.09863e-05
9.09863e-05
9.11818e-05
9.11818e-05
9.13732e-05
9.13732e-05
9.15602e-05
9.15602e-05
9.17427e-05
9.17427e-05
9.19205e-05
9.19205e-05
9.20934e-05
9.20934e-05
9.22612e-05
9.22612e-05
9.24238e-05
9.24238e-05
9.2581e-05
9.2581e-05
9.27325e-05
9.27325e-05
9.28782e-05
9.28782e-05
9.30178e-05
9.30178e-05
9.31513e-05
9.31513e-05
9.32784e-05
9.32784e-05
9.3399e-05
9.3399e-05
9.35128e-05
9.35128e-05
9.36198e-05
9.36198e-05
9.37196e-05
9.37196e-05
9.38122e-05
9.38122e-05
9.38974e-05
9.38974e-05
9.39751e-05
9.39751e-05
9.4045e-05
9.4045e-05
9.4107e-05
9.4107e-05
9.4161e-05
9.4161e-05
9.42068e-05
9.42068e-05
9.42443e-05
9.42443e-05
9.42734e-05
9.42734e-05
9.4294e-05
9.4294e-05
9.43059e-05
9.43059e-05
9.43091e-05
9.43091e-05
9.43034e-05
9.43034e-05
9.42888e-05
9.42888e-05
9.42653e-05
9.42653e-05
9.42327e-05
9.42327e-05
9.4191e-05
9.4191e-05
9.41402e-05
9.41402e-05
9.40802e-05
9.40802e-05
9.40111e-05
9.40111e-05
9.39329e-05
9.39329e-05
9.38457e-05
9.38457e-05
9.37493e-05
9.37493e-05
9.3644e-05
9.3644e-05
9.35298e-05
9.35298e-05
9.34068e-05
9.34068e-05
9.32751e-05
9.32751e-05
9.3135e-05
9.3135e-05
9.29864e-05
9.29864e-05
9.28298e-05
9.28298e-05
9.26652e-05
9.26652e-05
9.24929e-05
9.24929e-05
9.23132e-05
9.23132e-05
9.21263e-05
9.21263e-05
9.19327e-05
9.19327e-05
9.17326e-05
9.17326e-05
9.15265e-05
9.15265e-05
9.13147e-05
9.13147e-05
9.10978e-05
9.10978e-05
9.0876e-05
9.0876e-05
9.06501e-05
9.06501e-05
9.04205e-05
9.04205e-05
9.01878e-05
9.01878e-05
8.99526e-05
8.99526e-05
8.97155e-05
8.97155e-05
8.94772e-05
8.94772e-05
8.92384e-05
8.92384e-05
8.89998e-05
8.89998e-05
8.87622e-05
8.87622e-05
8.85264e-05
8.85264e-05
8.82931e-05
8.82931e-05
8.80633e-05
8.80633e-05
8.78378e-05
8.78378e-05
8.76175e-05
8.76175e-05
8.74032e-05
8.74032e-05
8.71959e-05
8.71959e-05
8.69965e-05
8.69965e-05
8.6806e-05
8.6806e-05
8.66252e-05
8.66252e-05
8.64552e-05
8.64552e-05
8.62967e-05
8.62967e-05
8.61508e-05
8.61508e-05
8.60182e-05
8.60182e-05
8.58999e-05
8.58999e-05
8.57966e-05
8.57966e-05
8.5709e-05
8.5709e-05
8.56379e-05
8.56379e-05
8.55839e-05
8.55839e-05
8.55475e-05
8.55475e-05
8.5529e-05
8.5529e-05
3.33631e-07
3.33631e-07
4.92158e-08
4.92158e-08
1.48301e-08
1.48301e-08
6.49212e-09
6.49212e-09
3.64091e-09
3.64091e-09
2.57099e-09
2.57099e-09
2.31912e-09
2.31912e-09
2.5872e-09
2.5872e-09
3.28763e-09
3.28763e-09
4.41423e-09
4.41423e-09
5.99805e-09
5.99805e-09
8.09006e-09
8.09006e-09
1.07537e-08
1.07537e-08
1.40611e-08
1.40611e-08
1.80917e-08
1.80917e-08
2.29311e-08
2.29311e-08
2.86703e-08
2.86703e-08
3.54059e-08
3.54059e-08
4.32398e-08
4.32398e-08
5.22789e-08
5.22789e-08
6.26353e-08
6.26353e-08
7.44261e-08
7.44261e-08
8.77737e-08
8.77737e-08
1.02805e-07
1.02805e-07
1.19653e-07
1.19653e-07
1.38455e-07
1.38455e-07
1.59353e-07
1.59353e-07
1.82494e-07
1.82494e-07
2.0803e-07
2.0803e-07
2.36118e-07
2.36118e-07
2.66919e-07
2.66919e-07
3.00597e-07
3.00597e-07
3.37323e-07
3.37323e-07
3.77271e-07
3.77271e-07
4.20616e-07
4.20616e-07
4.6754e-07
4.6754e-07
5.18225e-07
5.18225e-07
5.72857e-07
5.72857e-07
6.31624e-07
6.31624e-07
6.94717e-07
6.94717e-07
7.62324e-07
7.62324e-07
8.34639e-07
8.34639e-07
9.11852e-07
9.11852e-07
9.94155e-07
9.94155e-07
1.08174e-06
1.08174e-06
1.17478e-06
1.17478e-06
1.27349e-06
1.27349e-06
1.37802e-06
1.37802e-06
1.48857e-06
1.48857e-06
1.6053e-06
1.6053e-06
1.72839e-06
1.72839e-06
1.85799e-06
1.85799e-06
1.99426e-06
1.99426e-06
2.13735e-06
2.13735e-06
2.28739e-06
2.28739e-06
2.44451e-06
2.44451e-06
2.60883e-06
2.60883e-06
2.78046e-06
2.78046e-06
2.95949e-06
2.95949e-06
3.146e-06
3.146e-06
3.34007e-06
3.34007e-06
3.54176e-06
3.54176e-06
3.7511e-06
3.7511e-06
3.96812e-06
3.96812e-06
4.19284e-06
4.19284e-06
4.42527e-06
4.42527e-06
4.66537e-06
4.66537e-06
4.91312e-06
4.91312e-06
5.16847e-06
5.16847e-06
5.43135e-06
5.43135e-06
5.7017e-06
5.7017e-06
5.97939e-06
5.97939e-06
6.26434e-06
6.26434e-06
6.55641e-06
6.55641e-06
6.85545e-06
6.85545e-06
7.16131e-06
7.16131e-06
7.47382e-06
7.47382e-06
7.79279e-06
7.79279e-06
8.11801e-06
8.11801e-06
8.44928e-06
8.44928e-06
8.78637e-06
8.78637e-06
9.12904e-06
9.12904e-06
9.47704e-06
9.47704e-06
9.83011e-06
9.83011e-06
1.0188e-05
1.0188e-05
1.05504e-05
1.05504e-05
1.0917e-05
1.0917e-05
1.12876e-05
1.12876e-05
1.16618e-05
1.16618e-05
1.20394e-05
1.20394e-05
1.242e-05
1.242e-05
1.28033e-05
1.28033e-05
1.3189e-05
1.3189e-05
1.35767e-05
1.35767e-05
1.39663e-05
1.39663e-05
1.43573e-05
1.43573e-05
1.47494e-05
1.47494e-05
1.51423e-05
1.51423e-05
1.55357e-05
1.55357e-05
1.59292e-05
1.59292e-05
1.63227e-05
1.63227e-05
1.67157e-05
1.67157e-05
1.7108e-05
1.7108e-05
1.74992e-05
1.74992e-05
1.78892e-05
1.78892e-05
1.82775e-05
1.82775e-05
1.86641e-05
1.86641e-05
1.90484e-05
1.90484e-05
1.94305e-05
1.94305e-05
1.98099e-05
1.98099e-05
2.01864e-05
2.01864e-05
2.05599e-05
2.05599e-05
2.09301e-05
2.09301e-05
2.12969e-05
2.12969e-05
2.16599e-05
2.16599e-05
2.20191e-05
2.20191e-05
2.23743e-05
2.23743e-05
2.27253e-05
2.27253e-05
2.3072e-05
2.3072e-05
2.34142e-05
2.34142e-05
2.37518e-05
2.37518e-05
2.40848e-05
2.40848e-05
2.4413e-05
2.4413e-05
2.47363e-05
2.47363e-05
2.50547e-05
2.50547e-05
2.53681e-05
2.53681e-05
2.56765e-05
2.56765e-05
2.59797e-05
2.59797e-05
2.62779e-05
2.62779e-05
2.65709e-05
2.65709e-05
2.68588e-05
2.68588e-05
2.71416e-05
2.71416e-05
2.74193e-05
2.74193e-05
2.76918e-05
2.76918e-05
2.79594e-05
2.79594e-05
2.82219e-05
2.82219e-05
2.84795e-05
2.84795e-05
2.87322e-05
2.87322e-05
2.89801e-05
2.89801e-05
2.92233e-05
2.92233e-05
2.94618e-05
2.94618e-05
2.96958e-05
2.96958e-05
2.99254e-05
2.99254e-05
3.01506e-05
3.01506e-05
3.03716e-05
3.03716e-05
3.05884e-05
3.05884e-05
3.08014e-05
3.08014e-05
3.10105e-05
3.10105e-05
3.12159e-05
3.12159e-05
3.14177e-05
3.14177e-05
3.16161e-05
3.16161e-05
3.18113e-05
3.18113e-05
3.20034e-05
3.20034e-05
3.21925e-05
3.21925e-05
3.23788e-05
3.23788e-05
3.25625e-05
3.25625e-05
3.27438e-05
3.27438e-05
3.29227e-05
3.29227e-05
3.30996e-05
3.30996e-05
3.32744e-05
3.32744e-05
3.34475e-05
3.34475e-05
3.36189e-05
3.36189e-05
3.37889e-05
3.37889e-05
3.39576e-05
3.39576e-05
3.41252e-05
3.41252e-05
3.42919e-05
3.42919e-05
3.44578e-05
3.44578e-05
3.4623e-05
3.4623e-05
3.47879e-05
3.47879e-05
3.49525e-05
3.49525e-05
3.51169e-05
3.51169e-05
3.52814e-05
3.52814e-05
3.54461e-05
3.54461e-05
3.56112e-05
3.56112e-05
3.57768e-05
3.57768e-05
3.59431e-05
3.59431e-05
3.61102e-05
3.61102e-05
3.62783e-05
3.62783e-05
3.64474e-05
3.64474e-05
3.66179e-05
3.66179e-05
3.67897e-05
3.67897e-05
3.6963e-05
3.6963e-05
3.7138e-05
3.7138e-05
3.73148e-05
3.73148e-05
3.74935e-05
3.74935e-05
3.76741e-05
3.76741e-05
3.7857e-05
3.7857e-05
3.8042e-05
3.8042e-05
3.82294e-05
3.82294e-05
3.84193e-05
3.84193e-05
3.86116e-05
3.86116e-05
3.88067e-05
3.88067e-05
3.90044e-05
3.90044e-05
3.9205e-05
3.9205e-05
3.94084e-05
3.94084e-05
3.96148e-05
3.96148e-05
3.98242e-05
3.98242e-05
4.00367e-05
4.00367e-05
4.02523e-05
4.02523e-05
4.04712e-05
4.04712e-05
4.06933e-05
4.06933e-05
4.09187e-05
4.09187e-05
4.11474e-05
4.11474e-05
4.13795e-05
4.13795e-05
4.16149e-05
4.16149e-05
4.18538e-05
4.18538e-05
4.20961e-05
4.20961e-05
4.23419e-05
4.23419e-05
4.25911e-05
4.25911e-05
4.28438e-05
4.28438e-05
4.30999e-05
4.30999e-05
4.33594e-05
4.33594e-05
4.36223e-05
4.36223e-05
4.38887e-05
4.38887e-05
4.41584e-05
4.41584e-05
4.44315e-05
4.44315e-05
4.47078e-05
4.47078e-05
4.49874e-05
4.49874e-05
4.52702e-05
4.52702e-05
4.55562e-05
4.55562e-05
4.58453e-05
4.58453e-05
4.61374e-05
4.61374e-05
4.64324e-05
4.64324e-05
4.67303e-05
4.67303e-05
4.7031e-05
4.7031e-05
4.73344e-05
4.73344e-05
4.76404e-05
4.76404e-05
4.7949e-05
4.7949e-05
4.82599e-05
4.82599e-05
4.85731e-05
4.85731e-05
4.88885e-05
4.88885e-05
4.9206e-05
4.9206e-05
4.95254e-05
4.95254e-05
4.98466e-05
4.98466e-05
5.01694e-05
5.01694e-05
5.04938e-05
5.04938e-05
5.08195e-05
5.08195e-05
5.11464e-05
5.11464e-05
5.14744e-05
5.14744e-05
5.18033e-05
5.18033e-05
5.21329e-05
5.21329e-05
5.2463e-05
5.2463e-05
5.27935e-05
5.27935e-05
5.31242e-05
5.31242e-05
5.3455e-05
5.3455e-05
5.37855e-05
5.37855e-05
5.41156e-05
5.41156e-05
5.44452e-05
5.44452e-05
5.4774e-05
5.4774e-05
5.51018e-05
5.51018e-05
5.54284e-05
5.54284e-05
5.57536e-05
5.57536e-05
5.60772e-05
5.60772e-05
5.63989e-05
5.63989e-05
5.67186e-05
5.67186e-05
5.7036e-05
5.7036e-05
5.73508e-05
5.73508e-05
5.76629e-05
5.76629e-05
5.79721e-05
5.79721e-05
5.8278e-05
5.8278e-05
5.85805e-05
5.85805e-05
5.88793e-05
5.88793e-05
5.91742e-05
5.91742e-05
5.9465e-05
5.9465e-05
5.97514e-05
5.97514e-05
6.00332e-05
6.00332e-05
6.03102e-05
6.03102e-05
6.05822e-05
6.05822e-05
6.08488e-05
6.08488e-05
6.111e-05
6.111e-05
6.13655e-05
6.13655e-05
6.16151e-05
6.16151e-05
6.18586e-05
6.18586e-05
6.20958e-05
6.20958e-05
6.23266e-05
6.23266e-05
6.25507e-05
6.25507e-05
6.27681e-05
6.27681e-05
6.29786e-05
6.29786e-05
6.31821e-05
6.31821e-05
6.33785e-05
6.33785e-05
6.35677e-05
6.35677e-05
6.37497e-05
6.37497e-05
6.39244e-05
6.39244e-05
6.40919e-05
6.40919e-05
6.42522e-05
6.42522e-05
6.44052e-05
6.44052e-05
6.45511e-05
6.45511e-05
6.469e-05
6.469e-05
6.48219e-05
6.48219e-05
6.49471e-05
6.49471e-05
6.50656e-05
6.50656e-05
6.51777e-05
6.51777e-05
6.52836e-05
6.52836e-05
6.53834e-05
6.53834e-05
6.54774e-05
6.54774e-05
6.55658e-05
6.55658e-05
6.56489e-05
6.56489e-05
6.57269e-05
6.57269e-05
6.58001e-05
6.58001e-05
6.58687e-05
6.58687e-05
6.5933e-05
6.5933e-05
6.59932e-05
6.59932e-05
6.60495e-05
6.60495e-05
6.61023e-05
6.61023e-05
6.61516e-05
6.61516e-05
6.61978e-05
6.61978e-05
6.62411e-05
6.62411e-05
6.62816e-05
6.62816e-05
6.63196e-05
6.63196e-05
6.63551e-05
6.63551e-05
6.63885e-05
6.63885e-05
6.64199e-05
6.64199e-05
6.64493e-05
6.64493e-05
6.6477e-05
6.6477e-05
6.65031e-05
6.65031e-05
6.65278e-05
6.65278e-05
6.6551e-05
6.6551e-05
6.6573e-05
6.6573e-05
6.65938e-05
6.65938e-05
6.66135e-05
6.66135e-05
6.66323e-05
6.66323e-05
6.66501e-05
6.66501e-05
6.66672e-05
6.66672e-05
6.66834e-05
6.66834e-05
6.6699e-05
6.6699e-05
6.6714e-05
6.6714e-05
6.67284e-05
6.67284e-05
6.67423e-05
6.67423e-05
6.67557e-05
6.67557e-05
6.67686e-05
6.67686e-05
6.67812e-05
6.67812e-05
6.67935e-05
6.67935e-05
6.68054e-05
6.68054e-05
6.68171e-05
6.68171e-05
6.68285e-05
6.68285e-05
6.68398e-05
6.68398e-05
6.68508e-05
6.68508e-05
6.68617e-05
6.68617e-05
6.68725e-05
6.68725e-05
6.68832e-05
6.68832e-05
6.68938e-05
6.68938e-05
6.69043e-05
6.69043e-05
6.69148e-05
6.69148e-05
6.69253e-05
6.69253e-05
6.69358e-05
6.69358e-05
6.69464e-05
6.69464e-05
6.69569e-05
6.69569e-05
6.69675e-05
6.69675e-05
6.69783e-05
6.69783e-05
6.6989e-05
6.6989e-05
6.69999e-05
6.69999e-05
6.7011e-05
6.7011e-05
6.70221e-05
6.70221e-05
6.70334e-05
6.70334e-05
6.70449e-05
6.70449e-05
6.70566e-05
6.70566e-05
6.70684e-05
6.70684e-05
6.70805e-05
6.70805e-05
6.70927e-05
6.70927e-05
6.71052e-05
6.71052e-05
6.71179e-05
6.71179e-05
6.71309e-05
6.71309e-05
6.71442e-05
6.71442e-05
6.71578e-05
6.71578e-05
6.71716e-05
6.71716e-05
6.71857e-05
6.71857e-05
6.72002e-05
6.72002e-05
6.7215e-05
6.7215e-05
6.72301e-05
6.72301e-05
6.72456e-05
6.72456e-05
6.72615e-05
6.72615e-05
6.72778e-05
6.72778e-05
6.72944e-05
6.72944e-05
6.73114e-05
6.73114e-05
6.73289e-05
6.73289e-05
6.73468e-05
6.73468e-05
6.73652e-05
6.73652e-05
6.7384e-05
6.7384e-05
6.74033e-05
6.74033e-05
6.74231e-05
6.74231e-05
6.74434e-05
6.74434e-05
6.74642e-05
6.74642e-05
6.74855e-05
6.74855e-05
6.75074e-05
6.75074e-05
6.75298e-05
6.75298e-05
6.75528e-05
6.75528e-05
6.75764e-05
6.75764e-05
6.76006e-05
6.76006e-05
6.76254e-05
6.76254e-05
6.76509e-05
6.76509e-05
6.7677e-05
6.7677e-05
6.77038e-05
6.77038e-05
6.77312e-05
6.77312e-05
6.77594e-05
6.77594e-05
6.77882e-05
6.77882e-05
6.78178e-05
6.78178e-05
6.78482e-05
6.78482e-05
6.78793e-05
6.78793e-05
6.79112e-05
6.79112e-05
6.7944e-05
6.7944e-05
6.79775e-05
6.79775e-05
6.80119e-05
6.80119e-05
6.80471e-05
6.80471e-05
6.80832e-05
6.80832e-05
6.81202e-05
6.81202e-05
6.81582e-05
6.81582e-05
6.8197e-05
6.8197e-05
6.82369e-05
6.82369e-05
6.82776e-05
6.82776e-05
6.83194e-05
6.83194e-05
6.83623e-05
6.83623e-05
6.84061e-05
6.84061e-05
6.8451e-05
6.8451e-05
6.8497e-05
6.8497e-05
6.85441e-05
6.85441e-05
6.85923e-05
6.85923e-05
6.86417e-05
6.86417e-05
6.86922e-05
6.86922e-05
6.87439e-05
6.87439e-05
6.87969e-05
6.87969e-05
6.88511e-05
6.88511e-05
6.89065e-05
6.89065e-05
6.89632e-05
6.89632e-05
6.90212e-05
6.90212e-05
6.90806e-05
6.90806e-05
6.91413e-05
6.91413e-05
6.92034e-05
6.92034e-05
6.92669e-05
6.92669e-05
6.93318e-05
6.93318e-05
6.93982e-05
6.93982e-05
6.94661e-05
6.94661e-05
6.95354e-05
6.95354e-05
6.96063e-05
6.96063e-05
6.96787e-05
6.96787e-05
6.97528e-05
6.97528e-05
6.98284e-05
6.98284e-05
6.99056e-05
6.99056e-05
6.99845e-05
6.99845e-05
7.00651e-05
7.00651e-05
7.01473e-05
7.01473e-05
7.02313e-05
7.02313e-05
7.03171e-05
7.03171e-05
7.04046e-05
7.04046e-05
7.04939e-05
7.04939e-05
7.05851e-05
7.05851e-05
7.06781e-05
7.06781e-05
7.07729e-05
7.07729e-05
7.08697e-05
7.08697e-05
7.09684e-05
7.09684e-05
7.10691e-05
7.10691e-05
7.11717e-05
7.11717e-05
7.12763e-05
7.12763e-05
7.13829e-05
7.13829e-05
7.14916e-05
7.14916e-05
7.16023e-05
7.16023e-05
7.17151e-05
7.17151e-05
7.183e-05
7.183e-05
7.1947e-05
7.1947e-05
7.20662e-05
7.20662e-05
7.21876e-05
7.21876e-05
7.23111e-05
7.23111e-05
7.24368e-05
7.24368e-05
7.25648e-05
7.25648e-05
7.2695e-05
7.2695e-05
7.28274e-05
7.28274e-05
7.29621e-05
7.29621e-05
7.30991e-05
7.30991e-05
7.32385e-05
7.32385e-05
7.33801e-05
7.33801e-05
7.3524e-05
7.3524e-05
7.36703e-05
7.36703e-05
7.38189e-05
7.38189e-05
7.39699e-05
7.39699e-05
7.41232e-05
7.41232e-05
7.4279e-05
7.4279e-05
7.44371e-05
7.44371e-05
7.45975e-05
7.45975e-05
7.47604e-05
7.47604e-05
7.49257e-05
7.49257e-05
7.50933e-05
7.50933e-05
7.52633e-05
7.52633e-05
7.54358e-05
7.54358e-05
7.56106e-05
7.56106e-05
7.57877e-05
7.57877e-05
7.59673e-05
7.59673e-05
7.61492e-05
7.61492e-05
7.63335e-05
7.63335e-05
7.65201e-05
7.65201e-05
7.6709e-05
7.6709e-05
7.69003e-05
7.69003e-05
7.70938e-05
7.70938e-05
7.72897e-05
7.72897e-05
7.74877e-05
7.74877e-05
7.76881e-05
7.76881e-05
7.78906e-05
7.78906e-05
7.80953e-05
7.80953e-05
7.83021e-05
7.83021e-05
7.85111e-05
7.85111e-05
7.87221e-05
7.87221e-05
7.89352e-05
7.89352e-05
7.91503e-05
7.91503e-05
7.93674e-05
7.93674e-05
7.95863e-05
7.95863e-05
7.98072e-05
7.98072e-05
8.00299e-05
8.00299e-05
8.02543e-05
8.02543e-05
8.04805e-05
8.04805e-05
8.07083e-05
8.07083e-05
8.09378e-05
8.09378e-05
8.11688e-05
8.11688e-05
8.14012e-05
8.14012e-05
8.16351e-05
8.16351e-05
8.18703e-05
8.18703e-05
8.21067e-05
8.21067e-05
8.23444e-05
8.23444e-05
8.25831e-05
8.25831e-05
8.28229e-05
8.28229e-05
8.30636e-05
8.30636e-05
8.33052e-05
8.33052e-05
8.35475e-05
8.35475e-05
8.37905e-05
8.37905e-05
8.4034e-05
8.4034e-05
8.4278e-05
8.4278e-05
8.45223e-05
8.45223e-05
8.47669e-05
8.47669e-05
8.50117e-05
8.50117e-05
8.52564e-05
8.52564e-05
8.55011e-05
8.55011e-05
8.57455e-05
8.57455e-05
8.59896e-05
8.59896e-05
8.62333e-05
8.62333e-05
8.64763e-05
8.64763e-05
8.67186e-05
8.67186e-05
8.69601e-05
8.69601e-05
8.72005e-05
8.72005e-05
8.74398e-05
8.74398e-05
8.76778e-05
8.76778e-05
8.79144e-05
8.79144e-05
8.81494e-05
8.81494e-05
8.83827e-05
8.83827e-05
8.8614e-05
8.8614e-05
8.88433e-05
8.88433e-05
8.90704e-05
8.90704e-05
8.92951e-05
8.92951e-05
8.95172e-05
8.95172e-05
8.97366e-05
8.97366e-05
8.99532e-05
8.99532e-05
9.01666e-05
9.01666e-05
9.03769e-05
9.03769e-05
9.05837e-05
9.05837e-05
9.07869e-05
9.07869e-05
9.09863e-05
9.09863e-05
9.11818e-05
9.11818e-05
9.13732e-05
9.13732e-05
9.15602e-05
9.15602e-05
9.17427e-05
9.17427e-05
9.19205e-05
9.19205e-05
9.20934e-05
9.20934e-05
9.22612e-05
9.22612e-05
9.24238e-05
9.24238e-05
9.2581e-05
9.2581e-05
9.27325e-05
9.27325e-05
9.28782e-05
9.28782e-05
9.30178e-05
9.30178e-05
9.31513e-05
9.31513e-05
9.32784e-05
9.32784e-05
9.3399e-05
9.3399e-05
9.35128e-05
9.35128e-05
9.36198e-05
9.36198e-05
9.37196e-05
9.37196e-05
9.38122e-05
9.38122e-05
9.38974e-05
9.38974e-05
9.39751e-05
9.39751e-05
9.4045e-05
9.4045e-05
9.4107e-05
9.4107e-05
9.4161e-05
9.4161e-05
9.42068e-05
9.42068e-05
9.42443e-05
9.42443e-05
9.42734e-05
9.42734e-05
9.4294e-05
9.4294e-05
9.43059e-05
9.43059e-05
9.43091e-05
9.43091e-05
9.43034e-05
9.43034e-05
9.42888e-05
9.42888e-05
9.42653e-05
9.42653e-05
9.42327e-05