/*--------------------------------*- C++ -*----------------------------------*\
| =========                 |                                                 |
| \\      /  F ield         | OpenFOAM: The Open Source CFD Toolbox           |
|  \\    /   O peration     | Version:  2012                                  |
|   \\  /    A nd           | Website:  www.openfoam.com                      |
|    \\/     M anipulation  |                                                 |
\*---------------------------------------------------------------------------*/
FoamFile
{
    version     2.0;
    format      ascii;
    class       volVectorField;
    location    "3000";
    object      U;
}
// * * * * * * * * * * * * * * * * * * * * * * * * * * * * * * * * * * * * * //

dimensions      [0 1 -1 0 0 0 0];


internalField   nonuniform List<vector> 
5120
(
(0.00320347 -8.14291e-16 -1.10977e-17)
(0.00320347 -1.49744e-19 4.20771e-23)
(0.00963253 -3.07167e-15 -3.38468e-17)
(0.00963253 -5.93352e-20 -3.80935e-23)
(0.0161061 -2.83019e-15 -3.45391e-17)
(0.0161061 -3.33658e-19 9.01918e-22)
(0.0226231 -2.70558e-15 -3.51004e-17)
(0.0226231 -5.2428e-19 1.57452e-21)
(0.0291826 -2.67382e-15 -3.5742e-17)
(0.0291826 -7.13824e-19 2.23695e-21)
(0.0357834 -2.68855e-15 -3.64496e-17)
(0.0357834 -9.04038e-19 2.87034e-21)
(0.0424247 -2.69395e-15 -3.71825e-17)
(0.0424247 -1.10161e-18 3.55231e-21)
(0.0491053 -2.6945e-15 -3.79294e-17)
(0.0491053 -1.30734e-18 4.19396e-21)
(0.0558241 -2.69428e-15 -3.86888e-17)
(0.0558241 -1.50829e-18 4.70885e-21)
(0.06258 -2.69412e-15 -3.94604e-17)
(0.06258 -1.70313e-18 5.23924e-21)
(0.069372 -2.69386e-15 -4.02441e-17)
(0.069372 -1.87402e-18 5.78788e-21)
(0.076199 -2.69353e-15 -4.10404e-17)
(0.076199 -2.07786e-18 6.40404e-21)
(0.0830597 -2.69318e-15 -4.18497e-17)
(0.0830597 -2.30566e-18 7.02716e-21)
(0.0899531 -2.69281e-15 -4.26724e-17)
(0.0899531 -2.51063e-18 7.77312e-21)
(0.0968781 -2.69242e-15 -4.35089e-17)
(0.0968781 -2.73593e-18 8.496e-21)
(0.103833 -2.69202e-15 -4.43593e-17)
(0.103833 -2.97002e-18 9.09744e-21)
(0.110818 -2.69164e-15 -4.52239e-17)
(0.110818 -3.19116e-18 1.01487e-20)
(0.11783 -2.69129e-15 -4.61029e-17)
(0.11783 -3.4405e-18 1.11823e-20)
(0.12487 -2.69094e-15 -4.69967e-17)
(0.12487 -3.71553e-18 1.20686e-20)
(0.131935 -2.69055e-15 -4.79055e-17)
(0.131935 -3.96962e-18 1.30884e-20)
(0.139024 -2.69019e-15 -4.88294e-17)
(0.139024 -4.23407e-18 1.39901e-20)
(0.146137 -2.68981e-15 -4.97687e-17)
(0.146137 -4.49761e-18 1.49406e-20)
(0.153272 -2.68945e-15 -5.07237e-17)
(0.153272 -4.75324e-18 1.63608e-20)
(0.160427 -2.68912e-15 -5.16946e-17)
(0.160427 -5.01609e-18 1.7276e-20)
(0.167602 -2.68873e-15 -5.26817e-17)
(0.167602 -5.29227e-18 1.7552e-20)
(0.174796 -2.68832e-15 -5.3685e-17)
(0.174796 -5.59864e-18 1.86534e-20)
(0.182007 -2.68793e-15 -5.4705e-17)
(0.182007 -5.89757e-18 2.00473e-20)
(0.189233 -2.68754e-15 -5.57419e-17)
(0.189233 -6.18779e-18 2.17293e-20)
(0.196474 -2.68716e-15 -5.6796e-17)
(0.196474 -6.47213e-18 2.30084e-20)
(0.203728 -2.68672e-15 -5.78675e-17)
(0.203728 -6.79873e-18 2.4017e-20)
(0.210995 -2.68629e-15 -5.89567e-17)
(0.210995 -7.16907e-18 2.44543e-20)
(0.218273 -2.68583e-15 -6.00639e-17)
(0.218273 -7.45723e-18 2.55098e-20)
(0.22556 -2.68539e-15 -6.11893e-17)
(0.22556 -7.75863e-18 2.65476e-20)
(0.232855 -2.68503e-15 -6.23334e-17)
(0.232855 -8.02502e-18 2.78482e-20)
(0.240158 -2.6846e-15 -6.34964e-17)
(0.240158 -8.30244e-18 2.91004e-20)
(0.247466 -2.68419e-15 -6.46786e-17)
(0.247466 -8.59399e-18 3.10371e-20)
(0.254779 -2.68382e-15 -6.58804e-17)
(0.254779 -8.84061e-18 3.21432e-20)
(0.262096 -2.68338e-15 -6.71022e-17)
(0.262096 -9.17001e-18 3.20103e-20)
(0.269414 -2.68294e-15 -6.83439e-17)
(0.269414 -9.48972e-18 3.29073e-20)
(0.276734 -2.68246e-15 -6.9606e-17)
(0.276734 -9.78208e-18 3.45052e-20)
(0.284053 -2.68199e-15 -7.08886e-17)
(0.284053 -1.00938e-17 3.59303e-20)
(0.291371 -2.6815e-15 -7.21921e-17)
(0.291371 -1.04049e-17 3.60583e-20)
(0.298685 -2.68103e-15 -7.3517e-17)
(0.298685 -1.07374e-17 3.70485e-20)
(0.305996 -2.68061e-15 -7.48635e-17)
(0.305996 -1.10825e-17 3.90708e-20)
(0.313302 -2.68008e-15 -7.6232e-17)
(0.313302 -1.14428e-17 4.01422e-20)
(0.320601 -2.67948e-15 -7.76225e-17)
(0.320601 -1.178e-17 4.15055e-20)
(0.327892 -2.67897e-15 -7.90356e-17)
(0.327892 -1.20912e-17 4.29258e-20)
(0.335174 -2.67853e-15 -8.04714e-17)
(0.335174 -1.24102e-17 4.4754e-20)
(0.342447 -2.67804e-15 -8.19304e-17)
(0.342447 -1.2751e-17 4.55723e-20)
(0.349708 -2.6775e-15 -8.3413e-17)
(0.349708 -1.32226e-17 4.60943e-20)
(0.356956 -2.67695e-15 -8.49193e-17)
(0.356956 -1.3623e-17 4.77856e-20)
(0.364191 -2.67627e-15 -8.64497e-17)
(0.364191 -1.39384e-17 5.09105e-20)
(0.371412 -2.67555e-15 -8.80041e-17)
(0.371412 -1.44613e-17 5.28282e-20)
(0.378616 -2.67495e-15 -8.95832e-17)
(0.378616 -1.50186e-17 5.50409e-20)
(0.385803 -2.67428e-15 -9.11878e-17)
(0.385803 -1.56426e-17 5.73303e-20)
(0.392972 -2.67351e-15 -9.28176e-17)
(0.392972 -1.62766e-17 5.94782e-20)
(0.400122 -2.67268e-15 -9.44733e-17)
(0.400122 -1.67902e-17 6.31806e-20)
(0.407251 -2.67182e-15 -9.61552e-17)
(0.407251 -1.73762e-17 6.41762e-20)
(0.414359 -2.67104e-15 -9.78635e-17)
(0.414359 -1.79787e-17 6.4613e-20)
(0.421444 -2.67036e-15 -9.95988e-17)
(0.421444 -1.83845e-17 7.0392e-20)
(0.428506 -2.66981e-15 -1.01362e-16)
(0.428506 -1.86889e-17 7.39609e-20)
(0.435543 -2.66937e-15 -1.03153e-16)
(0.435543 -1.90912e-17 7.35108e-20)
(0.442554 -2.66893e-15 -1.04973e-16)
(0.442554 -1.9339e-17 7.24017e-20)
(0.449538 -2.66844e-15 -1.06821e-16)
(0.449538 -1.94984e-17 7.44418e-20)
(0.456494 -2.6679e-15 -1.087e-16)
(0.456494 -1.99017e-17 7.65673e-20)
(0.463422 -2.6674e-15 -1.10608e-16)
(0.463422 -2.02025e-17 7.87848e-20)
(0.47032 -2.66694e-15 -1.12547e-16)
(0.47032 -2.03465e-17 8.02992e-20)
(0.477187 -2.66626e-15 -1.14517e-16)
(0.477187 -2.05372e-17 8.1344e-20)
(0.484022 -2.66542e-15 -1.16519e-16)
(0.484022 -2.08883e-17 8.16598e-20)
(0.490825 -2.66466e-15 -1.18552e-16)
(0.490825 -2.14118e-17 8.19784e-20)
(0.497594 -2.664e-15 -1.20618e-16)
(0.497594 -2.19184e-17 8.10506e-20)
(0.504329 -2.66333e-15 -1.22716e-16)
(0.504329 -2.22909e-17 8.21462e-20)
(0.511029 -2.6627e-15 -1.24848e-16)
(0.511029 -2.26874e-17 8.55586e-20)
(0.517692 -2.66206e-15 -1.27013e-16)
(0.517692 -2.32119e-17 8.96032e-20)
(0.524318 -2.66142e-15 -1.29212e-16)
(0.524318 -2.36945e-17 9.12548e-20)
(0.530906 -2.66075e-15 -1.31446e-16)
(0.530906 -2.41871e-17 9.38542e-20)
(0.537456 -2.66002e-15 -1.33715e-16)
(0.537456 -2.46422e-17 9.59723e-20)
(0.543966 -2.65932e-15 -1.36019e-16)
(0.543966 -2.50946e-17 9.70076e-20)
(0.550436 -2.65857e-15 -1.3836e-16)
(0.550436 -2.54461e-17 9.90743e-20)
(0.556865 -2.65761e-15 -1.40736e-16)
(0.556865 -2.60453e-17 1.02127e-19)
(0.563252 -2.65655e-15 -1.43149e-16)
(0.563252 -2.66375e-17 1.07671e-19)
(0.569596 -2.65569e-15 -1.456e-16)
(0.569596 -2.715e-17 1.12155e-19)
(0.575898 -2.6548e-15 -1.48089e-16)
(0.575898 -2.783e-17 1.11293e-19)
(0.582155 -2.65366e-15 -1.50616e-16)
(0.582155 -2.87276e-17 1.0665e-19)
(0.588368 -2.65247e-15 -1.53181e-16)
(0.588368 -2.95692e-17 1.09917e-19)
(0.594536 -2.65149e-15 -1.55786e-16)
(0.594536 -3.02556e-17 1.2354e-19)
(0.600658 -2.65043e-15 -1.5843e-16)
(0.600658 -3.14257e-17 1.26859e-19)
(0.606733 -2.64917e-15 -1.61117e-16)
(0.606733 -3.24263e-17 1.29757e-19)
(0.612762 -2.64797e-15 -1.63844e-16)
(0.612762 -3.33708e-17 1.29498e-19)
(0.618743 -2.6468e-15 -1.66614e-16)
(0.618743 -3.42842e-17 1.29926e-19)
(0.624676 -2.64561e-15 -1.69426e-16)
(0.624676 -3.49126e-17 1.30861e-19)
(0.63056 -2.64439e-15 -1.72283e-16)
(0.63056 -3.59848e-17 1.30999e-19)
(0.636395 -2.64311e-15 -1.75424e-16)
(0.636395 -3.72061e-17 1.31646e-19)
(0.642181 -2.64166e-15 -1.79216e-16)
(0.642181 -3.80881e-17 1.33775e-19)
(0.647917 -2.64039e-15 -1.83063e-16)
(0.647917 -3.89944e-17 1.32014e-19)
(0.653602 -2.63934e-15 -1.86972e-16)
(0.653602 -3.99032e-17 1.32108e-19)
(0.659236 -2.63783e-15 -1.90935e-16)
(0.659236 -4.11702e-17 1.31941e-19)
(0.664819 -2.63614e-15 -1.94953e-16)
(0.664819 -4.26861e-17 1.35649e-19)
(0.67035 -2.63493e-15 -1.99035e-16)
(0.67035 -4.35822e-17 1.36959e-19)
(0.675829 -2.63377e-15 -2.03176e-16)
(0.675829 -4.44506e-17 1.34825e-19)
(0.681256 -2.63252e-15 -2.07376e-16)
(0.681256 -4.57094e-17 1.36412e-19)
(0.68663 -2.63116e-15 -2.11644e-16)
(0.68663 -4.68994e-17 1.39983e-19)
(0.691951 -2.62981e-15 -2.15975e-16)
(0.691951 -4.78029e-17 1.41691e-19)
(0.697219 -2.62841e-15 -2.2037e-16)
(0.697219 -4.88852e-17 1.41297e-19)
(0.702433 -2.62662e-15 -2.24826e-16)
(0.702433 -5.01151e-17 1.42269e-19)
(0.707594 -2.6251e-15 -2.29338e-16)
(0.707594 -5.12837e-17 1.45061e-19)
(0.7127 -2.62408e-15 -2.33921e-16)
(0.7127 -5.21324e-17 1.52018e-19)
(0.717752 -2.62309e-15 -2.3857e-16)
(0.717752 -5.28406e-17 1.56246e-19)
(0.72275 -2.62215e-15 -2.4329e-16)
(0.72275 -5.35598e-17 1.59813e-19)
(0.727694 -2.62118e-15 -2.4807e-16)
(0.727694 -5.40864e-17 1.63352e-19)
(0.732582 -2.62e-15 -2.52914e-16)
(0.732582 -5.45922e-17 1.67505e-19)
(0.737416 -2.619e-15 -2.57823e-16)
(0.737416 -5.53263e-17 1.71637e-19)
(0.742195 -2.61812e-15 -2.62804e-16)
(0.742195 -5.60798e-17 1.74202e-19)
(0.746919 -2.6167e-15 -2.67861e-16)
(0.746919 -5.69314e-17 1.76721e-19)
(0.751587 -2.61501e-15 -2.72981e-16)
(0.751587 -5.80032e-17 1.78514e-19)
(0.756201 -2.61368e-15 -2.77992e-16)
(0.756201 -5.8735e-17 1.81818e-19)
(0.76076 -2.61267e-15 -2.79578e-16)
(0.76076 -5.94776e-17 1.82814e-19)
(0.765263 -2.61133e-15 -2.81159e-16)
(0.765263 -6.04508e-17 1.85783e-19)
(0.769711 -2.60972e-15 -2.82739e-16)
(0.769711 -6.16778e-17 1.88696e-19)
(0.774104 -2.60847e-15 -2.84315e-16)
(0.774104 -6.24001e-17 1.88095e-19)
(0.778441 -2.60734e-15 -2.85888e-16)
(0.778441 -6.30055e-17 1.89476e-19)
(0.782724 -2.6062e-15 -2.87458e-16)
(0.782724 -6.44301e-17 1.93593e-19)
(0.786952 -2.60493e-15 -2.89019e-16)
(0.786952 -6.52341e-17 1.979e-19)
(0.791124 -2.60344e-15 -2.90575e-16)
(0.791124 -6.60147e-17 1.96941e-19)
(0.795242 -2.60229e-15 -2.92131e-16)
(0.795242 -6.68427e-17 2.02802e-19)
(0.799305 -2.60148e-15 -2.93671e-16)
(0.799305 -6.72553e-17 2.07682e-19)
(0.803314 -2.60024e-15 -2.952e-16)
(0.803314 -6.83954e-17 2.15677e-19)
(0.807268 -2.59888e-15 -2.96717e-16)
(0.807268 -6.92241e-17 2.21481e-19)
(0.811168 -2.59763e-15 -2.98222e-16)
(0.811168 -6.98456e-17 2.25036e-19)
(0.815013 -2.59613e-15 -2.99723e-16)
(0.815013 -7.05679e-17 2.30767e-19)
(0.818805 -2.59462e-15 -3.01213e-16)
(0.818805 -7.14332e-17 2.36962e-19)
(0.822543 -2.59263e-15 -3.02693e-16)
(0.822543 -7.28611e-17 2.40113e-19)
(0.826227 -2.59044e-15 -3.04176e-16)
(0.826227 -7.46994e-17 2.43186e-19)
(0.829858 -2.5883e-15 -3.05656e-16)
(0.829858 -7.65882e-17 2.44655e-19)
(0.833436 -2.5861e-15 -3.07135e-16)
(0.833436 -7.82362e-17 2.46017e-19)
(0.836961 -2.58445e-15 -3.08612e-16)
(0.836961 -8.00803e-17 2.55572e-19)
(0.840434 -2.58217e-15 -3.10075e-16)
(0.840434 -8.21604e-17 2.56781e-19)
(0.843855 -2.57969e-15 -3.11539e-16)
(0.843855 -8.40594e-17 2.61565e-19)
(0.847223 -2.57794e-15 -3.12997e-16)
(0.847223 -8.63615e-17 2.64164e-19)
(0.85054 -2.57583e-15 -3.14447e-16)
(0.85054 -8.85484e-17 2.66673e-19)
(0.853805 -2.57367e-15 -3.15896e-16)
(0.853805 -9.03601e-17 2.7069e-19)
(0.857019 -2.57164e-15 -3.17338e-16)
(0.857019 -9.29686e-17 2.67598e-19)
(0.860183 -2.56952e-15 -3.18784e-16)
(0.860183 -9.44107e-17 2.68132e-19)
(0.863296 -2.56707e-15 -3.20223e-16)
(0.863296 -9.59976e-17 2.67989e-19)
(0.866359 -2.56505e-15 -3.21665e-16)
(0.866359 -9.81386e-17 2.73226e-19)
(0.869373 -2.56415e-15 -3.23089e-16)
(0.869373 -9.88891e-17 2.80627e-19)
(0.872337 -2.56284e-15 -3.24489e-16)
(0.872337 -9.972e-17 2.82372e-19)
(0.875252 -2.56123e-15 -3.25878e-16)
(0.875252 -1.00409e-16 3.00388e-19)
(0.878119 -2.55996e-15 -3.27236e-16)
(0.878119 -1.01495e-16 3.05416e-19)
(0.880937 -2.55869e-15 -3.2857e-16)
(0.880937 -1.02468e-16 3.06929e-19)
(0.883708 -2.5571e-15 -3.29894e-16)
(0.883708 -1.03548e-16 3.15812e-19)
(0.886431 -2.55564e-15 -3.31193e-16)
(0.886431 -1.0508e-16 3.24672e-19)
(0.889108 -2.55432e-15 -3.32466e-16)
(0.889108 -1.06042e-16 3.29981e-19)
(0.891738 -2.55276e-15 -3.33717e-16)
(0.891738 -1.0696e-16 3.48195e-19)
(0.894321 -2.55108e-15 -3.34929e-16)
(0.894321 -1.08258e-16 3.6056e-19)
(0.89686 -2.5493e-15 -3.3611e-16)
(0.89686 -1.09238e-16 3.79533e-19)
(0.899353 -2.54776e-15 -3.37257e-16)
(0.899353 -1.09736e-16 3.9077e-19)
(0.901801 -2.54575e-15 -3.38371e-16)
(0.901801 -1.10499e-16 4.00186e-19)
(0.904205 -2.54336e-15 -3.39459e-16)
(0.904205 -1.11578e-16 4.14457e-19)
(0.906564 -2.54163e-15 -3.40517e-16)
(0.906564 -1.12898e-16 4.26922e-19)
(0.908881 -2.53988e-15 -3.41544e-16)
(0.908881 -1.13858e-16 4.31941e-19)
(0.911155 -2.5384e-15 -3.42557e-16)
(0.911155 -1.14653e-16 4.29986e-19)
(0.913386 -2.53685e-15 -3.43555e-16)
(0.913386 -1.15514e-16 4.37895e-19)
(0.915575 -2.53496e-15 -3.44543e-16)
(0.915575 -1.15561e-16 4.39403e-19)
(0.917722 -2.53319e-15 -3.45523e-16)
(0.917722 -1.15949e-16 4.30523e-19)
(0.919829 -2.53109e-15 -3.4651e-16)
(0.919829 -1.16913e-16 4.25196e-19)
(0.921894 -2.52875e-15 -3.47497e-16)
(0.921894 -1.17858e-16 4.25432e-19)
(0.92392 -2.52647e-15 -3.48488e-16)
(0.92392 -1.19326e-16 4.15042e-19)
(0.925906 -2.52441e-15 -3.4949e-16)
(0.925906 -1.20419e-16 4.01012e-19)
(0.927853 -2.52238e-15 -3.50505e-16)
(0.927853 -1.21376e-16 4.0116e-19)
(0.929761 -2.52003e-15 -3.51512e-16)
(0.929761 -1.2257e-16 3.98434e-19)
(0.931632 -2.51758e-15 -3.52521e-16)
(0.931632 -1.2416e-16 3.91442e-19)
(0.933464 -2.51509e-15 -3.53527e-16)
(0.933464 -1.25604e-16 3.86165e-19)
(0.935259 -2.51268e-15 -3.54534e-16)
(0.935259 -1.27203e-16 3.7652e-19)
(0.937018 -2.51023e-15 -3.55541e-16)
(0.937018 -1.28512e-16 3.73382e-19)
(0.93874 -2.5079e-15 -3.56542e-16)
(0.93874 -1.30166e-16 3.63075e-19)
(0.940427 -2.50574e-15 -3.57545e-16)
(0.940427 -1.31799e-16 3.54483e-19)
(0.942078 -2.50341e-15 -3.58546e-16)
(0.942078 -1.33716e-16 3.5678e-19)
(0.943694 -2.50076e-15 -3.59529e-16)
(0.943694 -1.35583e-16 3.56758e-19)
(0.945277 -2.4981e-15 -3.60502e-16)
(0.945277 -1.3712e-16 3.54383e-19)
(0.946825 -2.49555e-15 -3.61458e-16)
(0.946825 -1.39644e-16 3.47433e-19)
(0.948341 -2.49304e-15 -3.62404e-16)
(0.948341 -1.40416e-16 3.47382e-19)
(0.949823 -2.49017e-15 -3.63328e-16)
(0.949823 -1.42899e-16 3.57999e-19)
(0.951273 -2.48667e-15 -3.64224e-16)
(0.951273 -1.45762e-16 3.52422e-19)
(0.952692 -2.48365e-15 -3.65111e-16)
(0.952692 -1.4706e-16 3.44302e-19)
(0.954079 -2.48041e-15 -3.65977e-16)
(0.954079 -1.50231e-16 3.4029e-19)
(0.955435 -2.47671e-15 -3.6683e-16)
(0.955435 -1.52916e-16 3.38212e-19)
(0.956761 -2.47345e-15 -3.67673e-16)
(0.956761 -1.55135e-16 3.41144e-19)
(0.958057 -2.47039e-15 -3.68487e-16)
(0.958057 -1.56742e-16 3.53734e-19)
(0.959323 -2.46747e-15 -3.69253e-16)
(0.959323 -1.5893e-16 3.50961e-19)
(0.960561 -2.46414e-15 -3.69998e-16)
(0.960561 -1.61935e-16 3.56362e-19)
(0.96177 -2.46028e-15 -3.70713e-16)
(0.96177 -1.64377e-16 3.46066e-19)
(0.962951 -2.45697e-15 -3.7142e-16)
(0.962951 -1.67342e-16 3.52554e-19)
(0.964104 -2.45371e-15 -3.72084e-16)
(0.964104 -1.70272e-16 3.5337e-19)
(0.96523 -2.45034e-15 -3.72724e-16)
(0.96523 -1.73567e-16 3.46784e-19)
(0.96633 -2.44705e-15 -3.73348e-16)
(0.96633 -1.76157e-16 3.39846e-19)
(0.967403 -2.44405e-15 -3.73953e-16)
(0.967403 -1.78181e-16 3.37356e-19)
(0.968451 -2.44081e-15 -3.74528e-16)
(0.968451 -1.79745e-16 3.23219e-19)
(0.969474 -2.43756e-15 -3.75115e-16)
(0.969474 -1.81665e-16 3.15938e-19)
(0.970471 -2.43527e-15 -3.75681e-16)
(0.970471 -1.83236e-16 3.03348e-19)
(0.971444 -2.43305e-15 -3.76231e-16)
(0.971444 -1.84668e-16 2.92768e-19)
(0.972393 -2.4305e-15 -3.76762e-16)
(0.972393 -1.86982e-16 2.60898e-19)
(0.973319 -2.42759e-15 -3.77303e-16)
(0.973319 -1.88508e-16 2.30787e-19)
(0.974221 -2.425e-15 -3.77852e-16)
(0.974221 -1.90814e-16 2.18578e-19)
(0.975101 -2.42098e-15 -3.78385e-16)
(0.975101 -1.93764e-16 1.97357e-19)
(0.975958 -2.417e-15 -3.78944e-16)
(0.975958 -1.96361e-16 1.75533e-19)
(0.976794 -2.41514e-15 -3.79496e-16)
(0.976794 -1.98132e-16 1.70376e-19)
(0.977608 -2.41291e-15 -3.80012e-16)
(0.977608 -1.98824e-16 1.77046e-19)
(0.978401 -2.4102e-15 -3.80484e-16)
(0.978401 -2.00603e-16 1.5891e-19)
(0.979173 -2.40708e-15 -3.80947e-16)
(0.979173 -2.03416e-16 1.47278e-19)
(0.979925 -2.40337e-15 -3.81396e-16)
(0.979925 -2.05819e-16 1.35147e-19)
(0.980657 -2.3998e-15 -3.81834e-16)
(0.980657 -2.08709e-16 1.04582e-19)
(0.981369 -2.39619e-15 -3.82262e-16)
(0.981369 -2.1039e-16 9.67266e-20)
(0.982063 -2.39223e-15 -3.82661e-16)
(0.982063 -2.13158e-16 1.10279e-19)
(0.982737 -2.38849e-15 -3.83008e-16)
(0.982737 -2.17096e-16 9.61852e-20)
(0.983393 -2.38444e-15 -3.83311e-16)
(0.983393 -2.1914e-16 8.8954e-20)
(0.984032 -2.37974e-15 -3.83579e-16)
(0.984032 -2.21841e-16 1.05458e-19)
(0.984652 -2.37575e-15 -3.83769e-16)
(0.984652 -2.24897e-16 1.03141e-19)
(0.985255 -2.37205e-15 -3.83883e-16)
(0.985255 -2.27301e-16 1.19327e-19)
(0.985841 -2.36742e-15 -3.83919e-16)
(0.985841 -2.31233e-16 1.20218e-19)
(0.986411 -2.3628e-15 -3.83885e-16)
(0.986411 -2.34893e-16 1.3611e-19)
(0.986964 -2.35815e-15 -3.83762e-16)
(0.986964 -2.38293e-16 1.2491e-19)
(0.987501 -2.35338e-15 -3.83581e-16)
(0.987501 -2.42643e-16 1.26815e-19)
(0.988023 -2.349e-15 -3.83315e-16)
(0.988023 -2.46644e-16 1.28438e-19)
(0.988529 -2.34409e-15 -3.82967e-16)
(0.988529 -2.50058e-16 1.04122e-19)
(0.98902 -2.33867e-15 -3.82599e-16)
(0.98902 -2.54145e-16 8.31093e-20)
(0.989496 -2.33369e-15 -3.82209e-16)
(0.989496 -2.58977e-16 2.74408e-20)
(0.989959 -2.32911e-15 -3.81836e-16)
(0.989959 -2.62526e-16 1.90051e-20)
(0.990407 -2.32386e-15 -3.81436e-16)
(0.990407 -2.66491e-16 -3.86238e-20)
(0.990841 -2.31846e-15 -3.81066e-16)
(0.990841 -2.71522e-16 -8.92508e-20)
(0.991262 -2.31536e-15 -3.80717e-16)
(0.991262 -2.7425e-16 -7.91899e-20)
(0.991669 -2.31348e-15 -3.80263e-16)
(0.991669 -2.75012e-16 -9.62883e-20)
(0.992064 -2.31065e-15 -3.79749e-16)
(0.992064 -2.77033e-16 -1.07725e-19)
(0.992446 -2.30819e-15 -3.79194e-16)
(0.992446 -2.79524e-16 -9.44082e-20)
(0.992815 -2.30554e-15 -3.78514e-16)
(0.992815 -2.82317e-16 -8.12426e-20)
(0.993172 -2.30214e-15 -3.77738e-16)
(0.993172 -2.84486e-16 -9.38287e-20)
(0.993518 -2.2997e-15 -3.76883e-16)
(0.993518 -2.86667e-16 -1.13388e-19)
(0.993852 -2.2968e-15 -3.75917e-16)
(0.993852 -2.89946e-16 -1.4221e-19)
(0.994175 -2.29339e-15 -3.74885e-16)
(0.994175 -2.93089e-16 -1.36836e-19)
(0.994486 -2.28987e-15 -3.73742e-16)
(0.994486 -2.96448e-16 -1.60265e-19)
(0.994787 -2.2859e-15 -3.72499e-16)
(0.994787 -2.98873e-16 -1.40011e-19)
(0.995077 -2.2824e-15 -3.71128e-16)
(0.995077 -3.01502e-16 -1.35349e-19)
(0.995357 -2.27958e-15 -3.69624e-16)
(0.995357 -3.04173e-16 -1.37627e-19)
(0.995626 -2.27583e-15 -3.67992e-16)
(0.995626 -3.06234e-16 -1.10714e-19)
(0.995886 -2.27223e-15 -3.66247e-16)
(0.995886 -3.07817e-16 -9.73216e-20)
(0.996136 -2.26845e-15 -3.64362e-16)
(0.996136 -3.10068e-16 -1.09226e-19)
(0.996376 -2.26334e-15 -3.62371e-16)
(0.996376 -3.13892e-16 -1.21509e-19)
(0.996607 -2.25856e-15 -3.60301e-16)
(0.996607 -3.17204e-16 -1.17801e-19)
(0.99683 -2.25365e-15 -3.58082e-16)
(0.99683 -3.19193e-16 -1.14206e-19)
(0.997043 -2.2494e-15 -3.55734e-16)
(0.997043 -3.22082e-16 -1.05963e-19)
(0.997248 -2.24504e-15 -3.53221e-16)
(0.997248 -3.25649e-16 -1.09625e-19)
(0.997444 -2.24004e-15 -3.50573e-16)
(0.997444 -3.28762e-16 -1.44664e-19)
(0.997632 -2.23558e-15 -3.47792e-16)
(0.997632 -3.32351e-16 -1.6334e-19)
(0.997812 -2.23108e-15 -3.44862e-16)
(0.997812 -3.35663e-16 -1.60372e-19)
(0.997984 -2.22623e-15 -3.41747e-16)
(0.997984 -3.39906e-16 -1.42625e-19)
(0.998149 -2.22095e-15 -3.38441e-16)
(0.998149 -3.43429e-16 -1.39408e-19)
(0.998306 -2.21588e-15 -3.34946e-16)
(0.998306 -3.46663e-16 -1.68512e-19)
(0.998456 -2.21141e-15 -3.31287e-16)
(0.998456 -3.5113e-16 -2.15537e-19)
(0.998599 -2.20709e-15 -3.27494e-16)
(0.998599 -3.54925e-16 -2.55539e-19)
(0.998735 -2.20281e-15 -3.2359e-16)
(0.998735 -3.58732e-16 -3.31718e-19)
(0.998864 -2.19779e-15 -3.19606e-16)
(0.998864 -3.6309e-16 -4.16566e-19)
(0.998987 -2.19179e-15 -3.15573e-16)
(0.998987 -3.66597e-16 -4.76546e-19)
(0.999103 -2.18628e-15 -3.11484e-16)
(0.999103 -3.70598e-16 -5.78974e-19)
(0.999213 -2.18179e-15 -3.07337e-16)
(0.999213 -3.74892e-16 -6.74806e-19)
(0.999318 -2.17715e-15 -3.03098e-16)
(0.999318 -3.78748e-16 -7.21453e-19)
(0.999416 -2.17219e-15 -2.98762e-16)
(0.999416 -3.83559e-16 -8.11209e-19)
(0.999509 -2.16823e-15 -2.94339e-16)
(0.999509 -3.87313e-16 -8.99245e-19)
(0.999597 -2.16353e-15 -2.89797e-16)
(0.999597 -3.90182e-16 -9.63825e-19)
(0.999679 -2.15799e-15 -2.85183e-16)
(0.999679 -3.95233e-16 -1.02077e-18)
(0.999756 -2.15258e-15 -2.80454e-16)
(0.999756 -3.99289e-16 -1.12216e-18)
(0.999829 -2.14788e-15 -2.75674e-16)
(0.999829 -4.02024e-16 -1.18568e-18)
(0.999897 -2.14347e-15 -2.70789e-16)
(0.999897 -4.05385e-16 -1.25245e-18)
(0.99996 -2.13923e-15 -2.6577e-16)
(0.99996 -4.10235e-16 -1.30274e-18)
(1.00002 -2.13674e-15 -2.6062e-16)
(1.00002 -4.12441e-16 -1.29042e-18)
(1.00007 -2.13476e-15 -2.55202e-16)
(1.00007 -4.13731e-16 -1.33444e-18)
(1.00012 -2.13259e-15 -2.49574e-16)
(1.00012 -4.17432e-16 -1.34369e-18)
(1.00017 -2.12963e-15 -2.4375e-16)
(1.00017 -4.21909e-16 -1.38998e-18)
(1.00022 -2.1246e-15 -2.37806e-16)
(1.00022 -4.23954e-16 -1.43295e-18)
(1.00026 -2.11926e-15 -2.31758e-16)
(1.00026 -4.26672e-16 -1.4017e-18)
(1.00029 -2.11372e-15 -2.25623e-16)
(1.00029 -4.31288e-16 -1.39247e-18)
(1.00033 -2.10937e-15 -2.19401e-16)
(1.00033 -4.33441e-16 -1.42991e-18)
(1.00036 -2.10644e-15 -2.13086e-16)
(1.00036 -4.35192e-16 -1.40919e-18)
(1.00039 -2.10098e-15 -2.0668e-16)
(1.00039 -4.40285e-16 -1.43871e-18)
(1.00041 -2.09647e-15 -2.00365e-16)
(1.00041 -4.43936e-16 -1.43657e-18)
(1.00044 -2.09354e-15 -1.94041e-16)
(1.00044 -4.44624e-16 -1.45151e-18)
(1.00046 -2.09063e-15 -1.87738e-16)
(1.00046 -4.46899e-16 -1.48101e-18)
(1.00048 -2.08866e-15 -1.81531e-16)
(1.00048 -4.49677e-16 -1.47474e-18)
(1.00049 -2.08587e-15 -1.7541e-16)
(1.00049 -4.53272e-16 -1.48251e-18)
(1.00051 -2.08325e-15 -1.69378e-16)
(1.00051 -4.52774e-16 -1.46022e-18)
(1.00052 -2.08166e-15 -1.63422e-16)
(1.00052 -4.54555e-16 -1.45526e-18)
(1.00054 -2.08071e-15 -1.57554e-16)
(1.00054 -4.58265e-16 -1.5039e-18)
(1.00055 -2.07946e-15 -1.51815e-16)
(1.00055 -4.59436e-16 -1.4506e-18)
(1.00056 -2.07844e-15 -1.46178e-16)
(1.00056 -4.59697e-16 -1.4471e-18)
(1.00057 -2.07719e-15 -1.40669e-16)
(1.00057 -4.60238e-16 -1.41567e-18)
(1.00058 -2.07561e-15 -1.35315e-16)
(1.00058 -4.62501e-16 -1.46907e-18)
(1.00058 -2.07379e-15 -1.30176e-16)
(1.00058 -4.62463e-16 -1.51165e-18)
(1.00059 -2.0728e-15 -1.25291e-16)
(1.00059 -4.58546e-16 -1.35326e-18)
(1.0006 -2.07265e-15 -1.20432e-16)
(1.0006 -4.57986e-16 -1.34817e-18)
(1.0006 -2.07265e-15 -1.15751e-16)
(1.0006 -4.56763e-16 -1.30655e-18)
(1.00061 -2.07259e-15 -1.11171e-16)
(1.00061 -4.52872e-16 -1.22869e-18)
(1.00061 -2.07246e-15 -1.06733e-16)
(1.00061 -4.55892e-16 -1.37868e-18)
(1.00062 -2.07216e-15 -1.02632e-16)
(1.00062 -4.60233e-16 -1.34672e-18)
(1.00062 -2.0742e-15 -9.86944e-17)
(1.00062 -4.60261e-16 -1.30559e-18)
(1.00062 -2.07644e-15 -9.48126e-17)
(1.00062 -4.58594e-16 -1.32641e-18)
(1.00063 -2.07688e-15 -9.11561e-17)
(1.00063 -4.59697e-16 -1.28943e-18)
(1.00063 -2.07818e-15 -8.76427e-17)
(1.00063 -4.60673e-16 -1.31546e-18)
(1.00063 -2.07832e-15 -8.43288e-17)
(1.00063 -4.57896e-16 -1.37003e-18)
(1.00063 -2.07945e-15 -8.13127e-17)
(1.00063 -4.55844e-16 -1.4757e-18)
(1.00064 -2.08073e-15 -7.85635e-17)
(1.00064 -4.56132e-16 -1.48594e-18)
(1.00064 -2.07934e-15 -7.6043e-17)
(1.00064 -4.57682e-16 -1.71071e-18)
(1.00064 -2.07627e-15 -7.40307e-17)
(1.00064 -4.62069e-16 -1.84064e-18)
(1.00064 -2.07248e-15 -7.23905e-17)
(1.00064 -4.68527e-16 -1.96394e-18)
(1.00065 -2.06731e-15 -7.11055e-17)
(1.00065 -4.7154e-16 -1.93677e-18)
(1.00065 -2.06496e-15 -6.99686e-17)
(1.00065 -4.72082e-16 -1.81763e-18)
(1.00065 -2.06317e-15 -6.87161e-17)
(1.00065 -4.76503e-16 -1.83433e-18)
(1.00065 -2.0609e-15 -6.76302e-17)
(1.00065 -4.80147e-16 -1.78158e-18)
(1.00066 -2.06058e-15 -6.651e-17)
(1.00066 -4.83045e-16 -1.75108e-18)
(1.00066 -2.05821e-15 -6.53755e-17)
(1.00066 -4.86165e-16 -1.5322e-18)
(1.00066 -2.05439e-15 -6.41171e-17)
(1.00066 -4.92092e-16 -1.73585e-18)
(1.00067 -2.05197e-15 -6.31476e-17)
(1.00067 -4.97642e-16 -1.8066e-18)
(1.00067 -2.04828e-15 -6.22821e-17)
(1.00067 -5.0411e-16 -1.93422e-18)
(1.00067 -2.04249e-15 -6.17433e-17)
(1.00067 -5.09805e-16 -1.90216e-18)
(1.00067 -2.039e-15 -6.13213e-17)
(1.00067 -5.12029e-16 -1.93491e-18)
(1.00068 -2.03615e-15 -6.09738e-17)
(1.00068 -5.14967e-16 -1.95959e-18)
(1.00068 -2.03555e-15 -6.06903e-17)
(1.00068 -5.15812e-16 -1.87767e-18)
(1.00068 -2.0347e-15 -6.0307e-17)
(1.00068 -5.18087e-16 -1.87736e-18)
(1.00069 -2.03098e-15 -5.99849e-17)
(1.00069 -5.19988e-16 -1.82708e-18)
(1.00069 -2.02732e-15 -5.96481e-17)
(1.00069 -5.21804e-16 -1.81758e-18)
(1.0007 -2.02426e-15 -5.94426e-17)
(1.0007 -5.23607e-16 -1.7068e-18)
(1.0007 -2.02153e-15 -5.91834e-17)
(1.0007 -5.26194e-16 -1.69625e-18)
(1.0007 -2.01778e-15 -5.8885e-17)
(1.0007 -5.31458e-16 -1.73674e-18)
(1.00071 -2.0143e-15 -5.87142e-17)
(1.00071 -5.35992e-16 -1.76083e-18)
(1.00071 -2.01123e-15 -5.86694e-17)
(1.00071 -5.38694e-16 -1.68136e-18)
(1.00072 -2.00736e-15 -5.85696e-17)
(1.00072 -5.4333e-16 -1.67932e-18)
(1.00072 -2.00366e-15 -5.84907e-17)
(1.00072 -5.47678e-16 -1.75632e-18)
(1.00073 -2.00031e-15 -5.85616e-17)
(1.00073 -5.50495e-16 -1.69282e-18)
(1.00073 -1.99804e-15 -5.86415e-17)
(1.00073 -5.55123e-16 -1.69119e-18)
(1.00074 -1.99377e-15 -5.87475e-17)
(1.00074 -5.60198e-16 -1.95024e-18)
(1.00074 -1.98775e-15 -5.92974e-17)
(1.00074 -5.65432e-16 -1.95116e-18)
(1.00075 -1.98496e-15 -5.99535e-17)
(1.00075 -5.70401e-16 -1.84359e-18)
(1.00075 -1.98325e-15 -6.04819e-17)
(1.00075 -5.70733e-16 -1.89977e-18)
(1.00076 -1.98013e-15 -6.10184e-17)
(1.00076 -5.69142e-16 -2.02194e-18)
(1.00076 -1.97672e-15 -6.17195e-17)
(1.00076 -5.72352e-16 -2.05341e-18)
(1.00077 -1.97286e-15 -6.24301e-17)
(1.00077 -5.76603e-16 -2.09557e-18)
(1.00078 -1.97192e-15 -6.32914e-17)
(1.00078 -5.77143e-16 -1.99742e-18)
(1.00078 -1.97135e-15 -6.3883e-17)
(1.00078 -5.78377e-16 -2.08857e-18)
(1.00079 -1.96987e-15 -6.46381e-17)
(1.00079 -5.80175e-16 -1.91444e-18)
(1.0008 -1.96815e-15 -6.49783e-17)
(1.0008 -5.81609e-16 -2.00773e-18)
(1.0008 -1.96384e-15 -6.54558e-17)
(1.0008 -5.83938e-16 -2.13204e-18)
(1.00081 -1.96064e-15 -6.59759e-17)
(1.00081 -5.87729e-16 -1.98579e-18)
(1.00082 -1.95834e-15 -6.64228e-17)
(1.00082 -5.88952e-16 -1.90705e-18)
(1.00082 -1.95509e-15 -6.67667e-17)
(1.00082 -5.8971e-16 -1.9861e-18)
(1.00083 -1.95219e-15 -6.70457e-17)
(1.00083 -5.92873e-16 -2.08656e-18)
(1.00084 -1.94924e-15 -6.73984e-17)
(1.00084 -5.97625e-16 -2.12891e-18)
(1.00085 -1.94496e-15 -6.77959e-17)
(1.00085 -6.03056e-16 -2.11194e-18)
(1.00086 -1.93984e-15 -6.8189e-17)
(1.00086 -6.07223e-16 -2.15639e-18)
(1.00086 -1.93448e-15 -6.87106e-17)
(1.00086 -6.12172e-16 -2.16113e-18)
(1.00087 -1.93069e-15 -6.91784e-17)
(1.00087 -6.16061e-16 -2.23892e-18)
(1.00088 -1.92896e-15 -6.96645e-17)
(1.00088 -6.18096e-16 -1.98607e-18)
(1.00089 -1.92935e-15 -6.97632e-17)
(1.00089 -6.17368e-16 -1.69873e-18)
(1.0009 -1.92953e-15 -6.92989e-17)
(1.0009 -6.14063e-16 -1.76541e-18)
(1.00091 -1.92866e-15 -6.87678e-17)
(1.00091 -6.1005e-16 -1.47223e-18)
(1.00092 -1.92876e-15 -6.78364e-17)
(1.00092 -6.06922e-16 -1.38813e-18)
(1.00093 -1.92976e-15 -6.68169e-17)
(1.00093 -6.02877e-16 -1.53883e-18)
(1.00094 -1.9299e-15 -6.60188e-17)
(1.00094 -6.0101e-16 -1.70213e-18)
(1.00095 -1.93003e-15 -6.539e-17)
(1.00095 -5.97305e-16 -1.76932e-18)
(1.00096 -1.93087e-15 -6.49e-17)
(1.00096 -5.93481e-16 -1.96918e-18)
(1.00097 -1.93157e-15 -6.47165e-17)
(1.00097 -5.94783e-16 -2.10568e-18)
(1.00098 -1.92909e-15 -6.47904e-17)
(1.00098 -5.97563e-16 -2.35623e-18)
(1.00099 -1.92707e-15 -6.53527e-17)
(1.00099 -5.95601e-16 -2.6898e-18)
(1.001 -1.92669e-15 -6.63708e-17)
(1.001 -5.95235e-16 -2.86019e-18)
(1.00102 -1.92712e-15 -6.77896e-17)
(1.00102 -5.95772e-16 -2.65944e-18)
(1.00103 -1.92859e-15 -6.89343e-17)
(1.00103 -5.9349e-16 -2.84754e-18)
(1.00104 -1.92788e-15 -7.04845e-17)
(1.00104 -5.93055e-16 -3.07518e-18)
(1.00105 -1.93066e-15 -7.24894e-17)
(1.00105 -5.91062e-16 -3.14578e-18)
(1.00106 -1.93529e-15 -7.43667e-17)
(1.00106 -5.86591e-16 -2.99737e-18)
(1.00108 -1.93627e-15 -7.58591e-17)
(1.00108 -5.84511e-16 -3.07331e-18)
(1.00109 -1.93835e-15 -7.74147e-17)
(1.00109 -5.8784e-16 -3.08145e-18)
(1.0011 -1.9379e-15 -7.88601e-17)
(1.0011 -5.88216e-16 -3.1278e-18)
(1.00112 -1.93501e-15 -8.03541e-17)
(1.00112 -5.89887e-16 -3.12879e-18)
(1.00113 -1.93416e-15 -8.17565e-17)
(1.00113 -5.92205e-16 -3.18081e-18)
(1.00114 -1.93246e-15 -8.32049e-17)
(1.00114 -5.91999e-16 -3.13834e-18)
(1.00116 -1.93028e-15 -8.44958e-17)
(1.00116 -5.95218e-16 -3.44246e-18)
(1.00117 -1.93016e-15 -8.61403e-17)
(1.00117 -5.99301e-16 -3.53044e-18)
(1.00119 -1.92898e-15 -8.77271e-17)
(1.00119 -6.01855e-16 -3.68508e-18)
(1.0012 -1.92869e-15 -8.95636e-17)
(1.0012 -6.01522e-16 -3.48015e-18)
(1.00122 -1.93238e-15 -9.0963e-17)
(1.00122 -6.01034e-16 -3.57891e-18)
(1.00123 -1.93329e-15 -9.2227e-17)
(1.00123 -6.02823e-16 -3.37537e-18)
(1.00125 -1.93196e-15 -9.32151e-17)
(1.00125 -6.08076e-16 -3.20966e-18)
(1.00126 -1.93234e-15 -9.40545e-17)
(1.00126 -6.08626e-16 -3.44479e-18)
(1.00128 -1.93111e-15 -9.50068e-17)
(1.00128 -6.08829e-16 -3.42486e-18)
(1.0013 -1.93011e-15 -9.6066e-17)
(1.0013 -6.12031e-16 -2.9736e-18)
(1.00131 -1.92454e-15 -9.63492e-17)
(1.00131 -6.13838e-16 -3.1125e-18)
(1.00133 -1.91388e-15 -9.71766e-17)
(1.00133 -6.21597e-16 -3.28225e-18)
(1.00135 -1.90963e-15 -9.84048e-17)
(1.00135 -6.31531e-16 -3.10819e-18)
(1.00137 -1.90674e-15 -9.90449e-17)
(1.00137 -6.43409e-16 -3.20386e-18)
(1.00138 -1.89994e-15 -9.9741e-17)
(1.00138 -6.53966e-16 -3.49349e-18)
(1.0014 -1.88951e-15 -1.00719e-16)
(1.0014 -6.59481e-16 -3.68005e-18)
(1.00142 -1.8793e-15 -1.01962e-16)
(1.00142 -6.67844e-16 -3.54085e-18)
(1.00144 -1.86937e-15 -1.03149e-16)
(1.00144 -6.69781e-16 -3.40268e-18)
(1.00146 -1.85961e-15 -1.04197e-16)
(1.00146 -6.74648e-16 -3.62973e-18)
(1.00148 -1.85486e-15 -1.05479e-16)
(1.00148 -6.81691e-16 -3.18596e-18)
(1.0015 -1.8558e-15 -1.05921e-16)
(1.0015 -6.81493e-16 -3.22094e-18)