/*--------------------------------*- C++ -*----------------------------------*\
| =========                 |                                                 |
| \\      /  F ield         | OpenFOAM: The Open Source CFD Toolbox           |
|  \\    /   O peration     | Version:  2012                                  |
|   \\  /    A nd           | Website:  www.openfoam.com                      |
|    \\/     M anipulation  |                                                 |
\*---------------------------------------------------------------------------*/
FoamFile
{
    version     2.0;
    format      ascii;
    class       volScalarField;
    location    "11100";
    object      k;
}
// * * * * * * * * * * * * * * * * * * * * * * * * * * * * * * * * * * * * * //

dimensions      [0 2 -2 0 0 0 0];


internalField   nonuniform List<scalar> 
2560
(
0.00785626
0.00785043
0.223383
0.223231
1.53975
1.53879
4.64973
4.64742
8.4313
8.42807
11.9246
11.9208
15.0183
15.0141
17.7973
17.7927
20.3429
20.338
22.7134
22.7082
24.9494
24.944
27.0798
27.0741
29.1259
29.1199
31.1036
31.0974
33.0255
33.019
34.9014
34.8947
36.7394
36.7325
38.5462
38.5391
40.3276
40.3202
42.0882
42.0807
43.8323
43.8246
45.5635
45.5556
47.285
47.2768
48.9995
48.9911
50.7097
50.7011
52.4181
52.4093
54.1268
54.1178
55.838
55.8287
57.5537
57.5442
59.2759
59.2661
61.0064
60.9964
62.7471
62.7368
64.4996
64.489
66.2656
66.2547
68.0464
68.0353
69.8433
69.8319
71.6573
71.6456
73.4896
73.4776
75.341
75.3287
77.2126
77.2001
79.1055
79.0926
81.0207
81.0075
82.9593
82.9457
84.9217
84.9078
86.9081
86.8939
88.9176
88.903
90.9481
90.9332
92.9963
92.981
95.0573
95.0416
97.1247
97.1087
99.1908
99.1744
101.247
101.23
103.283
103.266
105.29
105.272
107.264
107.245
109.206
109.187
111.132
111.112
113.072
113.052
115.065
115.044
117.147
117.125
119.32
119.297
121.523
121.499
123.636
123.612
125.493
125.468
126.915
126.891
127.76
127.737
127.952
127.93
127.496
127.475
126.465
126.446
124.978
124.96
123.17
123.154
121.17
121.155
119.085
119.071
116.997
116.984
114.961
114.948
113.005
112.992
111.14
111.128
109.362
109.351
107.658
107.646
106.007
105.996
104.388
104.378
102.782
102.773
101.171
101.163
99.5399
99.533
97.8766
97.8707
96.1725
96.1676
94.4214
94.4174
92.6198
92.6165
90.7664
90.7637
88.8628
88.8607
86.9135
86.9119
84.9263
84.925
82.9119
82.9109
80.8836
80.8828
78.8562
78.8556
76.8452
76.8446
74.8645
74.8641
72.926
72.9256
71.0379
71.0375
69.2048
69.2045
67.428
67.4278
65.7062
65.706
64.0366
64.0364
62.4159
62.4158
60.8418
60.8417
59.3129
59.3128
57.8292
57.8292
56.392
56.392
55.003
55.003
53.6641
53.6641
52.3763
52.3763
51.1394
51.1394
49.9506
49.9507
48.8056
48.8057
47.6977
47.6978
46.6189
46.619
45.5608
45.561
44.5158
44.516
43.4778
43.4781
42.4441
42.4444
41.4151
41.4154
40.3947
40.3951
39.3894
39.3897
38.4067
38.407
37.4541
37.4544
36.5374
36.5377
35.6603
35.6606
34.8225
34.8228
34.0215
34.0218
33.2532
33.2534
32.5128
32.513
31.7961
31.7963
31.0997
31.0999
30.4219
30.4221
29.7621
29.7622
29.1207
29.1209
28.4988
28.499
27.8976
27.8978
27.318
27.3182
26.7608
26.7609
26.2262
26.2263
25.7141
25.7142
25.2239
25.224
24.7546
24.7547
24.3051
24.3051
23.8739
23.8739
23.4596
23.4596
23.061
23.061
22.6771
22.6771
22.3073
22.3073
21.9515
21.9515
21.6102
21.6101
21.2839
21.2838
20.9739
20.9738
20.6813
20.6811
20.4073
20.4072
20.1534
20.1531
19.9203
19.9201
19.7091
19.7088
19.5201
19.5198
19.3538
19.3534
19.2101
19.2097
19.0886
19.0881
18.9886
18.988
18.9088
18.9081
18.8473
18.8466
18.8018
18.8009
18.7688
18.7678
18.7441
18.7431
18.7229
18.7217
18.6993
18.6981
18.6674
18.6662
18.6213
18.62
18.5559
18.5546
18.4672
18.466
18.3535
18.3524
18.2154
18.2145
18.0562
18.0556
17.8816
17.8813
17.699
17.699
17.5171
17.5171
17.3444
17.3444
17.1883
17.1883
17.0538
17.0538
16.9432
16.9431
16.8557
16.8556
16.7868
16.7867
16.73
16.7299
16.6773
16.6773
16.6204
16.6206
16.5519
16.5524
16.4657
16.4664
16.3575
16.3584
16.2249
16.2259
16.068
16.0689
15.8884
15.8893
15.6894
15.6902
15.4748
15.4755
15.2493
15.25
15.0175
15.0181
14.784
14.7845
14.5528
14.5533
14.3277
14.3281
14.1117
14.112
13.9074
13.9077
13.7169
13.7171
13.5418
13.542
13.3834
13.3836
13.2426
13.2428
13.12
13.1201
13.0157
13.0157
12.9295
12.9295
12.8607
12.8607
12.8079
12.8079
12.7687
12.7686
12.7399
12.7398
12.7171
12.717
12.695
12.6949
12.6675
12.6673
12.628
12.6278
12.5701
12.5699
12.4882
12.4879
12.3781
12.3778
12.238
12.2376
12.0685
12.0682
11.8731
11.8728
11.6576
11.6574
11.43
11.4298
11.1985
11.1984
10.9706
10.9706
10.752
10.752
10.5465
10.5465
10.3544
10.3544
10.1736
10.1736
10.0005
10.0005
9.83112
9.83123
9.66191
9.66205
9.4904
9.49055
9.31585
9.316
9.13941
9.13954
8.96339
8.96351
8.79066
8.79076
8.624
8.62409
8.46561
8.46567
8.31687
8.31692
8.17848
8.17852
8.05044
8.05047
7.93251
7.93254
7.82438
7.82441
7.72584
7.72585
7.63676
7.63677
7.55713
7.55715
7.48695
7.48696
7.42608
7.42609
7.37427
7.37427
7.33109
7.33109
7.296
7.296
7.26838
7.26838
7.24761
7.24761
7.23315
7.23315
7.22454
7.22454
7.22149
7.22149
7.22386
7.22386
7.23167
7.23167
7.24508
7.24508
7.26433
7.26433
7.28969
7.28969
7.32142
7.32142
7.3597
7.3597
7.40461
7.40461
7.45615
7.45615
7.51422
7.51422
7.57868
7.57867
7.64937
7.64937
7.72616
7.72616
7.80896
7.80896
7.89769
7.89769
7.99228
7.99228
8.09272
8.09271
8.19895
8.19895
8.31095
8.31094
8.42867
8.42867
8.55208
8.55208
8.68113
8.68113
8.81577
8.81577
8.95598
8.95598
9.10177
9.10177
9.25323
9.25322
9.41048
9.41048
9.57375
9.57375
9.7433
9.7433
9.91939
9.91939
10.1023
10.1023
10.2922
10.2922
10.4892
10.4892
10.6935
10.6935
10.905
10.905
11.1238
11.1238
11.35
11.3499
11.5837
11.5837
11.8252
11.8252
12.0748
12.0748
12.333
12.333
12.6002
12.6002
12.8772
12.8772
13.1645
13.1645
13.4627
13.4627
13.7725
13.7725
14.0945
14.0945
14.4294
14.4294
14.7778
14.7778
15.1403
15.1403
15.5173
15.5173
15.9091
15.9091
16.3148
16.3148
16.7317
16.7317
17.1513
17.1513
17.551
17.551
17.8713
17.8713
17.8489
17.8489
0.00785043
0.00785626
0.223231
0.223383
1.53879
1.53975
4.64742
4.64973
8.42807
8.43131
11.9208
11.9246
15.0141
15.0183
17.7927
17.7973
20.338
20.3429
22.7082
22.7135
24.944
24.9495
27.0741
27.0799
29.1199
29.1259
31.0974
31.1036
33.019
33.0255
34.8947
34.9014
36.7325
36.7394
38.5391
38.5462
40.3202
40.3276
42.0807
42.0882
43.8246
43.8324
45.5556
45.5636
47.2768
47.285
48.9911
48.9995
50.7011
50.7098
52.4093
52.4181
54.1178
54.1269
55.8287
55.8381
57.5442
57.5538
59.2661
59.2759
60.9964
61.0064
62.7368
62.7471
64.489
64.4996
66.2547
66.2656
68.0353
68.0464
69.8319
69.8433
71.6457
71.6574
73.4776
73.4896
75.3287
75.341
77.2001
77.2127
79.0927
79.1056
81.0076
81.0208
82.9457
82.9593
84.9078
84.9217
86.8939
86.9081
88.903
88.9176
90.9332
90.9482
92.981
92.9964
95.0417
95.0573
97.1087
97.1248
99.1745
99.1909
101.23
101.247
103.266
103.283
105.273
105.29
107.245
107.264
109.187
109.206
111.112
111.132
113.052
113.072
115.044
115.065
117.125
117.147
119.297
119.32
121.499
121.523
123.612
123.636
125.468
125.493
126.891
126.915
127.737
127.76
127.93
127.952
127.475
127.496
126.446
126.465
124.96
124.978
123.154
123.17
121.155
121.17
119.071
119.085
116.984
116.997
114.948
114.961
112.992
113.005
111.128
111.14
109.351
109.362
107.646
107.658
105.996
106.007
104.378
104.388
102.773
102.782
101.163
101.171
99.533
99.5399
97.8707
97.8766
96.1676
96.1725
94.4174
94.4214
92.6165
92.6198
90.7637
90.7664
88.8607
88.8628
86.9119
86.9136
84.925
84.9264
82.9109
82.9119
80.8828
80.8836
78.8556
78.8562
76.8446
76.8452
74.8641
74.8645
72.9256
72.926
71.0375
71.0379
69.2045
69.2048
67.4278
67.428
65.706
65.7062
64.0364
64.0366
62.4158
62.4159
60.8417
60.8418
59.3128
59.3129
57.8292
57.8292
56.392
56.392
55.003
55.003
53.6641
53.6641
52.3763
52.3763
51.1394
51.1393
49.9507
49.9506
48.8057
48.8056
47.6978
47.6976
46.619
46.6189
45.561
45.5608
44.516
44.5158
43.4781
43.4778
42.4444
42.4441
41.4154
41.4151
40.395
40.3947
39.3896
39.3893
38.407
38.4066
37.4544
37.4541
36.5377
36.5374
35.6606
35.6603
34.8228
34.8225
34.0217
34.0215
33.2534
33.2532
32.513
32.5128
31.7962
31.796
31.0998
31.0996
30.422
30.4218
29.7622
29.762
29.1208
29.1207
28.499
28.4988
27.8977
27.8976
27.3181
27.318
26.7609
26.7608
26.2263
26.2262
25.7141
25.714
25.2239
25.2238
24.7546
24.7546
24.3051
24.305
23.8738
23.8738
23.4596
23.4595
23.0609
23.0609
22.677
22.677
22.3072
22.3072
21.9514
21.9515
21.61
21.6101
21.2838
21.2838
20.9737
20.9738
20.681
20.6812
20.4071
20.4073
20.153
20.1533
19.92
19.9202
19.7087
19.709
19.5197
19.5201
19.3533
19.3538
19.2095
19.21
19.088
19.0885
18.9879
18.9885
18.9079
18.9087
18.8464
18.8472
18.8008
18.8017
18.7677
18.7687
18.743
18.744
18.7216
18.7228
18.698
18.6992
18.666
18.6673
18.6199
18.6213
18.5545
18.5558
18.4659
18.4672
18.3523
18.3535
18.2144
18.2153
18.0556
18.0561
17.8812
17.8815
17.6989
17.699
17.517
17.5171
17.3443
17.3443
17.1881
17.1882
17.0536
17.0537
16.943
16.9431
16.8554
16.8556
16.7865
16.7866
16.7297
16.7298
16.6771
16.6771
16.6204
16.6202
16.5522
16.5517
16.4662
16.4655
16.3582
16.3573
16.2257
16.2247
16.0688
16.0678
15.8892
15.8883
15.6901
15.6892
15.4755
15.4747
15.2499
15.2492
15.018
15.0174
14.7844
14.7839
14.5532
14.5527
14.328
14.3276
14.1119
14.1116
13.9076
13.9073
13.717
13.7168
13.5419
13.5417
13.3835
13.3833
13.2426
13.2425
13.1199
13.1198
13.0155
13.0155
12.9293
12.9293
12.8605
12.8605
12.8076
12.8076
12.7683
12.7684
12.7395
12.7396
12.7166
12.7168
12.6945
12.6947
12.667
12.6673
12.6275
12.6278
12.5696
12.5699
12.4877
12.488
12.3776
12.378
12.2375
12.2379
12.0681
12.0685
11.8728
11.8731
11.6574
11.6577
11.4299
11.4301
11.1985
11.1986
10.9706
10.9706
10.752
10.752
10.5465
10.5465
10.3543
10.3544
10.1735
10.1735
10.0005
10.0004
9.83115
9.83104
9.662
9.66184
9.49052
9.49034
9.316
9.31582
9.13956
9.1394
8.96354
8.9634
8.79081
8.79069
8.62414
8.62403
8.46572
8.46564
8.31697
8.3169
8.17855
8.1785
8.05049
8.05045
7.93255
7.93252
7.82442
7.82439
7.72586
7.72583
7.63677
7.63675
7.55714
7.55712
7.48694
7.48693
7.42606
7.42605
7.37424
7.37423
7.33105
7.33105
7.29596
7.29595
7.26834
7.26834
7.24758
7.24757
7.23312
7.23312
7.22452
7.22451
7.22147
7.22147
7.22385
7.22385
7.23168
7.23168
7.2451
7.24509
7.26435
7.26435
7.28971
7.28971
7.32143
7.32144
7.35971
7.35971
7.40462
7.40462
7.45616
7.45616
7.51422
7.51423
7.57867
7.57868
7.64936
7.64937
7.72616
7.72616
7.80896
7.80896
7.89768
7.89768
7.99228
7.99228
8.09271
8.09271
8.19894
8.19894
8.31093
8.31094
8.42866
8.42867
8.55207
8.55208
8.68112
8.68113
8.81576
8.81577
8.95597
8.95598
9.10177
9.10177
9.25322
9.25323
9.41048
9.41048
9.57375
9.57375
9.74329
9.7433
9.91938
9.91938
10.1023
10.1023
10.2922
10.2922
10.4892
10.4892
10.6934
10.6934
10.9049
10.9049
11.1237
11.1238
11.3499
11.3499
11.5836
11.5837
11.8251
11.8251
12.0748
12.0748
12.3329
12.333
12.6002
12.6002
12.8772
12.8772
13.1644
13.1645
13.4626
13.4627
13.7724
13.7724
14.0944
14.0944
14.4293
14.4293
14.7777
14.7777
15.1401
15.1401
15.5171
15.5171
15.9088
15.9088
16.3144
16.3145
16.7312
16.7312
17.1507
17.1507
17.5502
17.5502
17.8706
17.8706
17.8482
17.8482
17.8489
17.8489
17.8714
17.8715
17.5512
17.5512
17.1515
17.1515
16.7319
16.7319
16.315
16.315
15.9093
15.9093
15.5176
15.5176
15.1405
15.1405
14.778
14.778
14.4296
14.4296
14.0947
14.0947
13.7727
13.7727
13.4629
13.4629
13.1647
13.1647
12.8775
12.8775
12.6006
12.6006
12.3333
12.3333
12.0751
12.0751
11.8255
11.8255
11.584
11.584
11.3503
11.3503
11.1241
11.1241
10.9053
10.9053
10.6938
10.6938
10.4896
10.4896
10.2926
10.2926
10.1027
10.1027
9.91976
9.91976
9.74367
9.74367
9.57414
9.57413
9.41087
9.41087
9.25361
9.25361
9.10215
9.10215
8.95633
8.95633
8.81609
8.81609
8.68142
8.68142
8.55235
8.55235
8.42892
8.42892
8.31118
8.31118
8.19917
8.19917
8.09293
8.09292
7.99248
7.99248
7.89786
7.89786
7.80912
7.80911
7.7263
7.72629
7.64948
7.64947
7.57876
7.57876
7.51428
7.51428
7.45619
7.45619
7.40463
7.40463
7.35969
7.35969
7.32138
7.32138
7.28963
7.28963
7.26424
7.26424
7.24496
7.24496
7.23151
7.23151
7.22367
7.22367
7.22127
7.22127
7.22427
7.22427
7.23281
7.23282
7.24722
7.24723
7.26795
7.26795
7.29553
7.29554
7.3306
7.3306
7.37376
7.37377
7.42555
7.42556
7.48639
7.4864
7.55654
7.55655
7.63613
7.63614
7.72516
7.72518
7.82367
7.8237
7.93176
7.93179
8.04966
8.0497
8.17768
8.17772
8.31604
8.3161
8.46474
8.46481
8.6231
8.62319
8.78975
8.78985
8.9625
8.96262
9.13858
9.13873
9.31511
9.31527
9.48975
9.48991
9.66135
9.66149
9.83063
9.83074
10.0001
10.0001
10.1733
10.1733
10.3541
10.3541
10.5463
10.5463
10.7518
10.7518
10.9704
10.9704
11.1984
11.1983
11.43
11.4298
11.6577
11.6575
11.8734
11.8731
12.0689
12.0686
12.2384
12.238
12.3785
12.3782
12.4885
12.4882
12.5704
12.5702
12.6283
12.6281
12.6678
12.6676
12.6953
12.6951
12.7174
12.7172
12.7401
12.74
12.7689
12.7688
12.8081
12.808
12.8609
12.8609
12.9296
12.9296
13.0157
13.0158
13.12
13.1201
13.2426
13.2427
13.3833
13.3835
13.5417
13.5419
13.7167
13.7169
13.9071
13.9074
14.1114
14.1117
14.3273
14.3277
14.5524
14.5529
14.7835
14.784
15.017
15.0176
15.2487
15.2494
15.4742
15.475
15.6887
15.6896
15.8877
15.8887
16.0672
16.0682
16.2241
16.2251
16.3566
16.3576
16.4647
16.4655
16.5508
16.5514
16.6192
16.6195
16.676
16.6761
16.7287
16.7286
16.7855
16.7854
16.8544
16.8543
16.9419
16.9418
17.0524
17.0524
17.1869
17.1869
17.343
17.343
17.5157
17.5157
17.6976
17.6975
17.8801
17.8798
18.0547
18.0541
18.2139
18.213
18.352
18.3509
18.4658
18.4645
18.5544
18.553
18.6198
18.6184
18.6658
18.6644
18.6976
18.6963
18.7211
18.7199
18.7423
18.7412
18.7668
18.7658
18.7997
18.7988
18.8452
18.8444
18.9066
18.9058
18.9863
18.9856
19.0862
19.0856
19.2076
19.2071
19.3512
19.3508
19.5174
19.517
19.7062
19.7058
19.9173
19.917
20.1502
20.1499
20.404
20.4038
20.6778
20.6776
20.9702
20.9701
21.2801
21.28
21.6061
21.6061
21.9473
21.9473
22.3028
22.3028
22.6724
22.6724
23.056
23.056
23.4544
23.4544
23.8684
23.8684
24.2993
24.2994
24.7486
24.7487
25.2177
25.2178
25.7076
25.7077
26.2195
26.2196
26.7538
26.754
27.3108
27.311
27.8901
27.8903
28.4911
28.4913
29.1127
29.1129
29.7536
29.7538
30.413
30.4132
31.0904
31.0906
31.7864
31.7866
32.5027
32.5029
33.2427
33.2429
34.0107
34.0109
34.8113
34.8116
35.6487
35.6489
36.5254
36.5257
37.4416
37.4419
38.3938
38.3941
39.3761
39.3764
40.3811
40.3814
41.401
41.4013
42.4296
42.4299
43.4629
43.4631
44.5004
44.5006
45.545
45.5452
46.6027
46.6028
47.6811
47.6812
48.7885
48.7886
49.9331
49.9332
51.1213
51.1213
52.3576
52.3576
53.6448
53.6448
54.9832
54.9832
56.3716
56.3715
57.8082
57.8081
59.2912
59.2912
60.8195
60.8194
62.393
62.3928
64.0129
64.0127
65.6819
65.6817
67.4031
67.4027
69.1792
69.1788
71.0115
71.0111
72.8989
72.8985
74.8367
74.8362
76.8167
76.816
78.827
78.8262
80.8537
80.8527
82.8815
82.8803
84.8955
84.8941
86.8825
86.8807
88.8315
88.8291
90.7345
90.7316
92.5871
92.5835
94.3878
94.3834
96.1379
96.1325
97.841
97.8345
99.5032
99.4956
101.133
101.125
102.743
102.733
104.348
104.337
105.965
105.953
107.615
107.602
109.318
109.305
111.095
111.081
112.959
112.944
114.913
114.899
116.949
116.934
119.036
119.02
121.12
121.103
123.119
123.101
124.927
124.906
126.414
126.392
127.445
127.422
127.902
127.877
127.711
127.685
126.867
126.84
125.445
125.418
123.588
123.561
121.475
121.449
119.273
119.248
117.101
117.077
115.019
114.996
113.027
113.005
111.088
111.066
109.163
109.142
107.222
107.201
105.249
105.23
103.243
103.224
101.209
101.19
99.1542
99.1361
97.089
97.0714
95.0226
95.0054
92.9627
92.9459
90.9156
90.8991
88.8859
88.8699
86.8774
86.8617
84.8919
84.8766
82.9303
82.9154
80.9926
80.978
79.0781
79.064
77.186
77.1722
75.3151
75.3016
73.4643
73.4512
71.6328
71.6199
69.8193
69.8068
68.0231
68.0109
66.2429
66.231
64.4775
64.4659
62.7255
62.7142
60.9854
60.9744
59.2555
59.2447
57.5339
57.5234
55.8188
55.8086
54.1082
54.0982
52.4001
52.3903
50.6923
50.6828
48.9826
48.9734
47.2686
47.2597
45.5478
45.539
43.8171
43.8086
42.0735
42.0653
40.3134
40.3054
38.5327
38.5249
36.7264
36.7189
34.889
34.8817
33.0137
33.0066
31.0924
31.0856
29.1153
29.1088
27.0699
27.0637
24.9402
24.9342
22.7049
22.6992
20.3351
20.3298
17.7903
17.7853
15.0121
15.0075
11.9193
11.9152
8.42719
8.4237
4.64704
4.64456
1.53872
1.53768
0.223227
0.223064
0.00785098
0.00784474
17.8483
17.8483
17.8706
17.8706
17.5505
17.5505
17.1509
17.1509
16.7314
16.7314
16.3147
16.3147
15.9091
15.9091
15.5174
15.5174
15.1404
15.1404
14.7779
14.7779
14.4296
14.4296
14.0947
14.0947
13.7727
13.7727
13.4629
13.4629
13.1647
13.1647
12.8775
12.8775
12.6005
12.6006
12.3333
12.3333
12.0751
12.0751
11.8255
11.8255
11.584
11.584
11.3503
11.3503
11.1241
11.1241
10.9053
10.9053
10.6938
10.6938
10.4896
10.4896
10.2925
10.2925
10.1026
10.1027
9.91975
9.91976
9.74367
9.74367
9.57413
9.57414
9.41087
9.41087
9.25361
9.25362
9.10214
9.10215
8.95632
8.95633
8.81608
8.81609
8.68141
8.68142
8.55234
8.55235
8.42891
8.42892
8.31117
8.31118
8.19916
8.19917
8.09292
8.09292
7.99247
7.99247
7.89785
7.89786
7.80911
7.80911
7.72629
7.72629
7.64947
7.64948
7.57876
7.57876
7.51429
7.51429
7.4562
7.4562
7.40464
7.40464
7.3597
7.3597
7.3214
7.3214
7.28965
7.28965
7.26426
7.26426
7.24497
7.24497
7.23152
7.23152
7.22367
7.22367
7.22126
7.22126
7.22425
7.22425
7.23278
7.23278
7.24719
7.24719
7.26791
7.2679
7.2955
7.29549
7.33057
7.33056
7.37373
7.37373
7.42553
7.42552
7.48638
7.48637
7.55654
7.55653
7.63614
7.63612
7.72519
7.72516
7.8237
7.82367
7.93181
7.93177
8.04972
8.04967
8.17775
8.17769
8.31614
8.31606
8.46485
8.46477
8.62323
8.62313
8.7899
8.78977
8.96266
8.96251
9.13874
9.13857
9.31526
9.31508
9.48987
9.48969
9.66143
9.66127
9.83066
9.83054
10.0001
10
10.1732
10.1732
10.354
10.3541
10.5463
10.5463
10.7518
10.7518
10.9704
10.9705
11.1984
11.1985
11.4299
11.4301
11.6575
11.6578
11.873
11.8734
12.0685
12.0689
12.2379
12.2383
12.378
12.3783
12.488
12.4883
12.5699
12.5702
12.6278
12.6281
12.6673
12.6675
12.6948
12.695
12.7169
12.7171
12.7397
12.7398
12.7686
12.7686
12.8078
12.8078
12.8606
12.8606
12.9294
12.9294
13.0156
13.0155
13.1199
13.1198
13.2426
13.2424
13.3834
13.3832
13.5418
13.5416
13.7168
13.7166
13.9073
13.907
14.1116
14.1113
14.3277
14.3272
14.5528
14.5523
14.784
14.7834
15.0175
15.0169
15.2494
15.2486
15.4749
15.4741
15.6895
15.6886
15.8886
15.8876
16.0681
16.0671
16.225
16.2239
16.3574
16.3564
16.4654
16.4645
16.5512
16.5506
16.6193
16.619
16.6759
16.6758
16.7284
16.7285
16.7852
16.7853
16.8541
16.8542
16.9416
16.9417
17.0522
17.0523
17.1867
17.1868
17.3429
17.3429
17.5156
17.5156
17.6974
17.6975
17.8797
17.88
18.054
18.0546
18.2129
18.2138
18.3508
18.352
18.4644
18.4657
18.5529
18.5543
18.6183
18.6197
18.6643
18.6657
18.6962
18.6975
18.7198
18.721
18.741
18.7422
18.7657
18.7667
18.7987
18.7997
18.8443
18.8451
18.9057
18.9065
18.9855
18.9862
19.0855
19.0861
19.207
19.2075
19.3507
19.3511
19.5169
19.5173
19.7058
19.7061
19.9169
19.9172
20.1499
20.1501
20.4038
20.404
20.6776
20.6777
20.97
20.9702
21.2799
21.28
21.606
21.6061
21.9472
21.9473
22.3027
22.3028
22.6723
22.6723
23.056
23.056
23.4544
23.4543
23.8684
23.8684
24.2994
24.2993
24.7487
24.7486
25.2177
25.2176
25.7077
25.7076
26.2196
26.2195
26.7539
26.7538
27.3109
27.3108
27.8903
27.8901
28.4913
28.4911
29.1128
29.1127
29.7538
29.7536
30.4132
30.413
31.0906
31.0904
31.7866
31.7864
32.5029
32.5027
33.2429
33.2427
34.0109
34.0107
34.8116
34.8113
35.649
35.6487
36.5257
36.5254
37.442
37.4417
38.3941
38.3938
39.3764
39.3761
40.3814
40.3811
41.4014
41.4011
42.4299
42.4296
43.4632
43.463
44.5006
44.5005
45.5453
45.5451
46.6029
46.6028
47.6812
47.6812
48.7887
48.7887
49.9332
49.9332
51.1214
51.1214
52.3577
52.3577
53.6449
53.645
54.9833
54.9833
56.3716
56.3717
57.8082
57.8083
59.2913
59.2914
60.8195
60.8197
62.3929
62.3931
64.0128
64.0131
65.6818
65.6821
67.4029
67.4033
69.1789
69.1794
71.0113
71.0118
72.8986
72.8992
74.8364
74.837
76.8162
76.8169
78.8264
78.8272
80.8529
80.8539
82.8805
82.8818
84.8942
84.8958
86.8808
86.8828
88.8293
88.8318
90.7318
90.7348
92.5837
92.5875
94.3836
94.3882
96.1327
96.1382
97.8347
97.8413
99.4958
99.5035
101.125
101.134
102.734
102.744
104.337
104.348
105.953
105.965
107.602
107.615
109.305
109.319
111.081
111.095
112.945
112.959
114.899
114.914
116.934
116.95
119.02
119.036
121.103
121.12
123.101
123.12
124.907
124.927
126.392
126.414
127.422
127.446
127.878
127.903
127.685
127.712
126.84
126.867
125.418
125.445
123.562
123.589
121.45
121.476
119.249
119.274
117.077
117.101
114.997
115.02
113.005
113.028
111.067
111.088
109.142
109.163
107.202
107.222
105.23
105.25
103.225
103.244
101.191
101.209
99.1365
99.1547
97.0717
97.0896
95.0057
95.0231
92.9462
92.9632
90.8995
90.9161
88.8702
88.8865
86.8621
86.8779
84.8769
84.8924
82.9157
82.9308
80.9784
80.993
79.0643
79.0786
77.1725
77.1865
75.3019
75.3155
73.4515
73.4648
71.6202
71.6332
69.8071
69.8197
68.0111
68.0235
66.2312
66.2432
64.4661
64.4779
62.7144
62.7259
60.9746
60.9858
59.2449
59.2558
57.5236
57.5342
55.8088
55.8191
54.0984
54.1085
52.3905
52.4004
50.683
50.6926
48.9736
48.9829
47.2598
47.2689
45.5392
45.548
43.8088
43.8174
42.0654
42.0738
40.3056
40.3137
38.525
38.5329
36.719
36.7266
34.8818
34.8892
33.0068
33.0139
31.0858
31.0926
29.1089
29.1155
27.0638
27.0701
24.9343
24.9404
22.6993
22.705
20.3299
20.3353
17.7854
17.7904
15.0076
15.0122
11.9153
11.9194
8.42373
8.42725
4.64458
4.64708
1.53769
1.53873
0.223065
0.223229
0.00784477
0.00785106
)
;

boundaryField
{
    walls
    {
        type            kqRWallFunction;
        value           nonuniform List<scalar> 8(0.00785626 0.00785043 0.00785043 0.00785626 0.00785098 0.00784477 0.00784474 0.00785106);
    }
    inlet
    {
        type            cyclic;
    }
    outlet
    {
        type            cyclic;
    }
    sides
    {
        type            empty;
    }
}


// ************************************************************************* //
