/*--------------------------------*- C++ -*----------------------------------*\
| =========                 |                                                 |
| \\      /  F ield         | OpenFOAM: The Open Source CFD Toolbox           |
|  \\    /   O peration     | Version:  2012                                  |
|   \\  /    A nd           | Website:  www.openfoam.com                      |
|    \\/     M anipulation  |                                                 |
\*---------------------------------------------------------------------------*/
FoamFile
{
    version     2.0;
    format      ascii;
    class       volScalarField;
    location    "11100";
    object      nut;
}
// * * * * * * * * * * * * * * * * * * * * * * * * * * * * * * * * * * * * * //

dimensions      [0 2 -1 0 0 0 0];


internalField   nonuniform List<scalar> 
2560
(
5.15447e-09
5.15065e-09
8.44663e-07
8.4408e-07
1.75061e-05
1.74946e-05
0.000113741
0.000113681
0.000346959
0.000346822
0.000698196
0.000697982
0.00113313
0.00113284
0.00163015
0.00162979
0.00217675
0.00217632
0.00276518
0.00276468
0.00339026
0.00338969
0.00404827
0.00404763
0.00473642
0.0047357
0.0054525
0.0054517
0.00619472
0.00619384
0.00696158
0.00696063
0.00775183
0.00775079
0.00856433
0.00856321
0.0093981
0.0093969
0.0102522
0.010251
0.011126
0.0111246
0.0120184
0.012017
0.012929
0.0129274
0.0138569
0.0138553
0.0148015
0.0147998
0.0157623
0.0157604
0.0167385
0.0167366
0.0177296
0.0177276
0.0187351
0.018733
0.0197543
0.0197521
0.0207867
0.0207844
0.0218319
0.0218294
0.0228891
0.0228865
0.0239578
0.0239552
0.0250375
0.0250347
0.0261274
0.0261246
0.0272271
0.0272241
0.0283357
0.0283326
0.0294526
0.0294495
0.0305773
0.030574
0.031709
0.0317056
0.032847
0.0328435
0.0339908
0.0339872
0.0351395
0.0351358
0.0362924
0.0362886
0.0374483
0.0374444
0.0386061
0.0386021
0.0397643
0.0397602
0.0409212
0.0409169
0.0420747
0.0420704
0.0432228
0.0432183
0.044363
0.0443585
0.0454931
0.0454884
0.0466109
0.0466061
0.0477151
0.0477102
0.048806
0.048801
0.0498867
0.0498815
0.0509631
0.0509577
0.0520426
0.052037
0.0531318
0.053126
0.0542296
0.0542237
0.0553214
0.0553153
0.0563807
0.0563746
0.0573723
0.0573661
0.0582595
0.0582534
0.0590134
0.0590074
0.0596194
0.0596136
0.0600787
0.0600732
0.0604067
0.0604015
0.0606279
0.060623
0.0607708
0.0607663
0.0608632
0.060859
0.0609296
0.0609255
0.0609888
0.0609849
0.0610543
0.0610504
0.0611341
0.0611303
0.0612314
0.0612277
0.061346
0.0613423
0.0614746
0.061471
0.0616125
0.0616091
0.061754
0.0617508
0.0618935
0.0618905
0.0620256
0.0620229
0.0621455
0.062143
0.0622491
0.0622469
0.062333
0.0623311
0.0623943
0.0623926
0.0624308
0.0624293
0.0624409
0.0624397
0.0624239
0.0624228
0.06238
0.062379
0.0623103
0.0623095
0.0622175
0.0622168
0.0621052
0.0621045
0.0619779
0.0619773
0.0618408
0.0618402
0.0616992
0.0616986
0.0615576
0.0615571
0.06142
0.0614195
0.0612888
0.0612884
0.0611654
0.0611649
0.0610499
0.0610494
0.0609419
0.0609415
0.0608408
0.0608404
0.0607461
0.0607457
0.0606579
0.0606575
0.060577
0.0605766
0.0605047
0.0605043
0.0604428
0.0604425
0.0603933
0.0603929
0.0603578
0.0603574
0.0603373
0.0603369
0.0603314
0.060331
0.0603386
0.0603382
0.0603559
0.0603556
0.0603793
0.060379
0.0604039
0.0604037
0.0604251
0.0604249
0.060439
0.0604388
0.0604434
0.0604432
0.0604384
0.0604382
0.0604263
0.0604261
0.0604117
0.0604116
0.0604007
0.0604005
0.0603993
0.0603992
0.0604133
0.0604131
0.0604467
0.0604465
0.060501
0.0605008
0.0605755
0.0605753
0.0606682
0.060668
0.0607762
0.060776
0.0608968
0.0608966
0.0610278
0.0610276
0.0611683
0.0611681
0.0613187
0.0613185
0.0614801
0.0614799
0.0616546
0.0616543
0.0618442
0.0618439
0.0620512
0.0620509
0.0622775
0.0622772
0.0625248
0.0625245
0.0627941
0.0627937
0.0630861
0.0630857
0.063401
0.0634006
0.0637386
0.0637382
0.0640985
0.064098
0.0644799
0.0644794
0.0648824
0.0648819
0.0653058
0.0653053
0.0657505
0.0657499
0.0662172
0.0662166
0.0667078
0.0667071
0.0672245
0.0672237
0.06777
0.0677692
0.0683477
0.0683468
0.0689608
0.0689599
0.0696128
0.0696118
0.0703067
0.0703056
0.0710453
0.0710441
0.0718309
0.0718296
0.0726651
0.0726637
0.0735491
0.0735475
0.0744829
0.0744811
0.0754659
0.075464
0.0764962
0.0764941
0.0775707
0.0775684
0.0786844
0.078682
0.0798308
0.0798281
0.081001
0.0809981
0.0821844
0.0821814
0.0833689
0.0833657
0.0845413
0.084538
0.0856885
0.085685
0.0867985
0.0867951
0.0878624
0.0878591
0.088875
0.0888722
0.0898372
0.0898349
0.0907557
0.0907542
0.0916434
0.0916425
0.0925179
0.0925175
0.0934005
0.0934002
0.0943134
0.0943131
0.0952765
0.0952763
0.0963046
0.0963043
0.0974047
0.0974042
0.0985755
0.098575
0.099805
0.0998045
0.101075
0.101075
0.102362
0.102362
0.103641
0.103642
0.104891
0.104892
0.106091
0.106093
0.107228
0.10723
0.108292
0.108295
0.109283
0.109286
0.110203
0.110206
0.111063
0.111065
0.111872
0.111874
0.112647
0.112649
0.113401
0.113403
0.114153
0.114154
0.114916
0.114917
0.115705
0.115706
0.116535
0.116536
0.117417
0.117418
0.118362
0.118363
0.11938
0.11938
0.120477
0.120477
0.121661
0.121661
0.122935
0.122935
0.124304
0.124304
0.125768
0.125768
0.127325
0.127325
0.128969
0.128968
0.130689
0.130688
0.132468
0.132468
0.134287
0.134286
0.136116
0.136114
0.137924
0.137922
0.139675
0.139674
0.141336
0.141334
0.142874
0.142872
0.144265
0.144263
0.145494
0.145492
0.146561
0.146559
0.147481
0.147479
0.148284
0.148282
0.149013
0.149012
0.149719
0.149718
0.150448
0.150448
0.151242
0.151242
0.152131
0.152131
0.153121
0.153121
0.154204
0.154204
0.155358
0.155358
0.156557
0.156558
0.157777
0.157777
0.158999
0.159
0.16022
0.160221
0.161449
0.16145
0.16271
0.162711
0.164029
0.16403
0.165437
0.165438
0.16696
0.16696
0.168618
0.168619
0.170427
0.170427
0.172394
0.172394
0.174526
0.174526
0.176827
0.176827
0.179304
0.179304
0.181963
0.181963
0.184812
0.184812
0.187858
0.187858
0.191108
0.191108
0.194566
0.194566
0.198233
0.198233
0.202108
0.202108
0.206189
0.206189
0.210474
0.210474
0.214959
0.214958
0.219642
0.219642
0.224525
0.224525
0.229609
0.229609
0.234898
0.234897
0.240397
0.240397
0.246114
0.246114
0.252056
0.252056
0.258228
0.258228
0.264635
0.264635
0.271278
0.271278
0.278157
0.278157
0.28527
0.28527
0.292612
0.292612
0.300179
0.300179
0.307964
0.307964
0.315963
0.315963
0.32417
0.32417
0.33258
0.33258
0.341185
0.341185
0.349981
0.349981
0.358959
0.358959
0.368112
0.368112
0.377432
0.377432
0.38691
0.38691
0.396537
0.396537
0.406304
0.406304
0.416202
0.416202
0.426224
0.426224
0.436363
0.436363
0.446612
0.446612
0.456969
0.456968
0.467425
0.467425
0.477977
0.477977
0.488615
0.488615
0.49933
0.49933
0.510111
0.510111
0.520944
0.520943
0.531817
0.531817
0.542718
0.542718
0.553636
0.553636
0.564563
0.564563
0.575492
0.575492
0.586418
0.586418
0.597337
0.597337
0.608245
0.608245
0.619139
0.619139
0.630016
0.630016
0.640871
0.640871
0.651699
0.651699
0.662494
0.662494
0.673249
0.673249
0.683956
0.683956
0.694601
0.694601
0.705167
0.705167
0.715615
0.715615
0.725866
0.725866
0.735735
0.735735
0.744761
0.744761
0.75178
0.75178
0.751576
0.751576
5.15065e-09
5.15448e-09
8.4408e-07
8.44664e-07
1.74946e-05
1.75061e-05
0.000113681
0.000113741
0.000346822
0.000346959
0.000697981
0.000698196
0.00113284
0.00113313
0.00162979
0.00163015
0.00217632
0.00217675
0.00276468
0.00276518
0.00338969
0.00339026
0.00404763
0.00404828
0.0047357
0.00473642
0.0054517
0.0054525
0.00619384
0.00619472
0.00696063
0.00696159
0.00775079
0.00775183
0.00856321
0.00856433
0.0093969
0.0093981
0.010251
0.0102523
0.0111246
0.011126
0.012017
0.0120184
0.0129274
0.012929
0.0138553
0.0138569
0.0147998
0.0148015
0.0157604
0.0157623
0.0167366
0.0167385
0.0177276
0.0177296
0.018733
0.0187351
0.0197521
0.0197543
0.0207844
0.0207867
0.0218294
0.0218319
0.0228865
0.0228891
0.0239552
0.0239578
0.0250347
0.0250375
0.0261246
0.0261275
0.0272241
0.0272271
0.0283326
0.0283357
0.0294495
0.0294527
0.030574
0.0305773
0.0317056
0.031709
0.0328435
0.032847
0.0339872
0.0339908
0.0351358
0.0351395
0.0362886
0.0362924
0.0374444
0.0374483
0.0386021
0.0386061
0.0397602
0.0397643
0.0409169
0.0409212
0.0420704
0.0420747
0.0432183
0.0432228
0.0443585
0.044363
0.0454884
0.0454931
0.0466061
0.0466109
0.0477102
0.0477151
0.048801
0.048806
0.0498815
0.0498868
0.0509577
0.0509631
0.052037
0.0520426
0.053126
0.0531318
0.0542237
0.0542296
0.0553153
0.0553214
0.0563746
0.0563807
0.0573661
0.0573723
0.0582534
0.0582595
0.0590074
0.0590134
0.0596136
0.0596194
0.0600732
0.0600787
0.0604015
0.0604067
0.060623
0.0606279
0.0607663
0.0607708
0.060859
0.0608632
0.0609255
0.0609296
0.0609849
0.0609888
0.0610504
0.0610543
0.0611303
0.0611341
0.0612277
0.0612314
0.0613423
0.061346
0.061471
0.0614746
0.0616091
0.0616125
0.0617508
0.061754
0.0618905
0.0618935
0.0620229
0.0620256
0.062143
0.0621455
0.0622469
0.0622491
0.0623311
0.062333
0.0623926
0.0623943
0.0624293
0.0624308
0.0624397
0.0624409
0.0624228
0.0624239
0.062379
0.06238
0.0623095
0.0623103
0.0622168
0.0622175
0.0621045
0.0621052
0.0619773
0.0619779
0.0618402
0.0618408
0.0616986
0.0616992
0.0615571
0.0615576
0.0614195
0.06142
0.0612883
0.0612888
0.0611649
0.0611654
0.0610494
0.0610499
0.0609415
0.0609419
0.0608404
0.0608408
0.0607457
0.0607461
0.0606575
0.0606579
0.0605766
0.060577
0.0605043
0.0605047
0.0604424
0.0604428
0.0603929
0.0603933
0.0603574
0.0603578
0.0603369
0.0603372
0.060331
0.0603314
0.0603382
0.0603386
0.0603556
0.0603559
0.060379
0.0603793
0.0604036
0.0604039
0.0604249
0.0604251
0.0604388
0.060439
0.0604432
0.0604434
0.0604382
0.0604383
0.0604261
0.0604262
0.0604115
0.0604117
0.0604005
0.0604006
0.0603991
0.0603993
0.0604131
0.0604132
0.0604465
0.0604466
0.0605007
0.0605009
0.0605753
0.0605755
0.060668
0.0606682
0.060776
0.0607762
0.0608965
0.0608967
0.0610275
0.0610277
0.061168
0.0611683
0.0613184
0.0613186
0.0614798
0.0614801
0.0616542
0.0616545
0.0618438
0.0618441
0.0620508
0.0620511
0.0622771
0.0622774
0.0625244
0.0625247
0.0627936
0.062794
0.0630856
0.063086
0.0634005
0.0634009
0.0637381
0.0637385
0.0640979
0.0640984
0.0644793
0.0644798
0.0648818
0.0648823
0.0653052
0.0653057
0.0657497
0.0657503
0.0662165
0.0662171
0.066707
0.0667077
0.0672236
0.0672243
0.0677691
0.0677699
0.0683466
0.0683475
0.0689597
0.0689607
0.0696116
0.0696126
0.0703054
0.0703065
0.0710439
0.0710451
0.0718293
0.0718307
0.0726634
0.072665
0.0735472
0.0735489
0.0744808
0.0744827
0.0754637
0.0754657
0.0764938
0.076496
0.0775681
0.0775705
0.0786817
0.0786842
0.0798278
0.0798305
0.0809978
0.0810007
0.082181
0.0821842
0.0833654
0.0833687
0.0845376
0.0845411
0.0856847
0.0856883
0.0867948
0.0867983
0.0878588
0.0878622
0.0888718
0.0888748
0.0898346
0.089837
0.0907539
0.0907555
0.0916422
0.0916432
0.0925171
0.0925177
0.0933999
0.0934002
0.0943128
0.094313
0.0952758
0.0952761
0.0963038
0.0963042
0.0974037
0.0974042
0.0985744
0.098575
0.0998039
0.0998044
0.101074
0.101074
0.102361
0.102361
0.103641
0.103641
0.104892
0.10489
0.106093
0.10609
0.10723
0.107227
0.108294
0.108291
0.109285
0.109282
0.110206
0.110203
0.111065
0.111062
0.111874
0.111872
0.112648
0.112646
0.113403
0.113401
0.114154
0.114152
0.114917
0.114915
0.115706
0.115705
0.116536
0.116535
0.117418
0.117417
0.118362
0.118362
0.119379
0.119379
0.120476
0.120476
0.12166
0.12166
0.122934
0.122934
0.124303
0.124303
0.125767
0.125767
0.127324
0.127324
0.128967
0.128968
0.130686
0.130687
0.132466
0.132467
0.134284
0.134285
0.136113
0.136114
0.137921
0.137922
0.139672
0.139674
0.141333
0.141335
0.142871
0.142873
0.144262
0.144264
0.145491
0.145494
0.146559
0.146561
0.147479
0.147482
0.148282
0.148284
0.149012
0.149014
0.149718
0.149719
0.150448
0.150449
0.151242
0.151243
0.152131
0.152131
0.153121
0.153121
0.154203
0.154204
0.155358
0.155357
0.156557
0.156556
0.157777
0.157776
0.159
0.158999
0.160221
0.16022
0.16145
0.161449
0.162711
0.16271
0.16403
0.164029
0.165438
0.165437
0.166961
0.16696
0.168619
0.168619
0.170427
0.170427
0.172394
0.172394
0.174526
0.174526
0.176827
0.176827
0.179303
0.179304
0.181962
0.181962
0.184811
0.184811
0.187858
0.187858
0.191108
0.191108
0.194565
0.194566
0.198232
0.198233
0.202107
0.202108
0.206189
0.206189
0.210473
0.210473
0.214958
0.214958
0.219642
0.219642
0.224525
0.224525
0.229608
0.229609
0.234897
0.234898
0.240397
0.240397
0.246114
0.246115
0.252056
0.252056
0.258228
0.258228
0.264635
0.264635
0.271278
0.271278
0.278157
0.278157
0.28527
0.28527
0.292612
0.292612
0.300178
0.300179
0.307964
0.307964
0.315963
0.315963
0.32417
0.32417
0.332579
0.33258
0.341185
0.341185
0.34998
0.34998
0.358958
0.358959
0.368111
0.368112
0.377431
0.377432
0.38691
0.38691
0.396537
0.396537
0.406304
0.406304
0.416202
0.416202
0.426224
0.426224
0.436362
0.436363
0.446612
0.446612
0.456968
0.456968
0.467425
0.467425
0.477976
0.477977
0.488615
0.488615
0.49933
0.49933
0.51011
0.51011
0.520943
0.520943
0.531816
0.531816
0.542717
0.542717
0.553635
0.553636
0.564563
0.564563
0.575492
0.575492
0.586418
0.586418
0.597336
0.597337
0.608244
0.608245
0.619138
0.619139
0.630015
0.630016
0.64087
0.64087
0.651698
0.651698
0.662492
0.662493
0.673247
0.673247
0.683952
0.683953
0.694597
0.694597
0.70516
0.705161
0.715607
0.715607
0.725856
0.725857
0.735723
0.735723
0.744746
0.744746
0.751764
0.751764
0.751562
0.751562
0.751576
0.751576
0.751782
0.751782
0.744766
0.744766
0.73574
0.73574
0.725872
0.725872
0.715621
0.715621
0.705173
0.705173
0.694609
0.694609
0.683964
0.683964
0.673258
0.673258
0.662503
0.662503
0.651708
0.651708
0.64088
0.64088
0.630026
0.630026
0.619149
0.619149
0.608256
0.608256
0.597349
0.597348
0.586431
0.586431
0.575505
0.575505
0.564576
0.564576
0.55365
0.553649
0.542732
0.542732
0.531831
0.531831
0.520959
0.520959
0.510127
0.510127
0.499347
0.499347
0.488632
0.488632
0.477994
0.477994
0.467443
0.467443
0.456987
0.456987
0.446631
0.446631
0.436382
0.436382
0.426244
0.426244
0.416222
0.416222
0.406324
0.406324
0.396556
0.396556
0.386929
0.386929
0.37745
0.37745
0.36813
0.36813
0.358977
0.358976
0.349998
0.349998
0.341203
0.341203
0.332597
0.332597
0.324187
0.324187
0.31598
0.315979
0.30798
0.30798
0.300194
0.300194
0.292627
0.292627
0.285284
0.285284
0.278171
0.278171
0.271291
0.271291
0.264647
0.264647
0.25824
0.25824
0.252067
0.252067
0.246125
0.246125
0.240407
0.240407
0.234907
0.234906
0.229617
0.229617
0.224533
0.224532
0.219649
0.219649
0.214964
0.214964
0.210478
0.210478
0.206193
0.206193
0.202111
0.202111
0.198235
0.198235
0.194568
0.194568
0.191109
0.191109
0.187859
0.187859
0.184812
0.184811
0.181962
0.181962
0.179302
0.179302
0.176825
0.176825
0.174523
0.174523
0.172391
0.172391
0.170424
0.170424
0.168615
0.168615
0.166956
0.166956
0.165433
0.165433
0.164025
0.164025
0.162706
0.162706
0.161446
0.161447
0.160217
0.160218
0.158997
0.158998
0.157775
0.157776
0.156556
0.156557
0.155358
0.155358
0.154205
0.154205
0.153122
0.153122
0.152133
0.152132
0.151244
0.151244
0.150451
0.15045
0.149722
0.149721
0.149017
0.149015
0.148288
0.148286
0.147486
0.147484
0.146567
0.146565
0.1455
0.145498
0.14427
0.144268
0.14288
0.142878
0.141342
0.14134
0.139681
0.139679
0.137929
0.137928
0.136121
0.13612
0.134292
0.134291
0.132474
0.132473
0.130694
0.130693
0.128974
0.128973
0.12733
0.12733
0.125773
0.125773
0.124309
0.124309
0.12294
0.12294
0.121665
0.121665
0.120481
0.120481
0.119383
0.119384
0.118366
0.118366
0.117421
0.117421
0.116538
0.116539
0.115708
0.115709
0.114918
0.11492
0.114155
0.114157
0.113404
0.113406
0.112649
0.112651
0.111874
0.111877
0.111065
0.111067
0.110205
0.110208
0.109284
0.109287
0.108294
0.108297
0.107229
0.107232
0.106092
0.106094
0.104892
0.104893
0.103642
0.103643
0.102362
0.102362
0.101075
0.101074
0.0998049
0.0998044
0.0985753
0.0985748
0.0974044
0.0974039
0.0963043
0.0963039
0.0952761
0.0952758
0.0943129
0.0943127
0.0934
0.0933997
0.0925174
0.0925169
0.0916429
0.0916419
0.0907551
0.0907535
0.0898367
0.0898342
0.0888746
0.0888716
0.0878621
0.0878586
0.0867981
0.0867945
0.0856879
0.0856842
0.0845406
0.084537
0.083368
0.0833646
0.0821834
0.0821802
0.0809998
0.0809968
0.0798294
0.0798266
0.078683
0.0786803
0.077569
0.0775666
0.0764944
0.0764922
0.0754639
0.0754618
0.0744807
0.0744788
0.0735467
0.0735449
0.0726626
0.072661
0.0718281
0.0718267
0.0710423
0.071041
0.0703035
0.0703023
0.0696094
0.0696083
0.0689572
0.0689562
0.0683438
0.0683429
0.067766
0.0677651
0.0672202
0.0672194
0.0667033
0.0667026
0.0662125
0.0662118
0.0657454
0.0657448
0.0653005
0.0652999
0.0648768
0.0648763
0.064474
0.0644735
0.0640923
0.0640919
0.0637322
0.0637318
0.0633944
0.063394
0.0630793
0.0630789
0.0627871
0.0627867
0.0625176
0.0625173
0.0622702
0.0622698
0.0620437
0.0620434
0.0618365
0.0618362
0.0616467
0.0616465
0.0614721
0.0614719
0.0613104
0.0613102
0.0611598
0.0611596
0.061019
0.0610188
0.0608878
0.0608875
0.060767
0.0607668
0.0606587
0.0606585
0.0605659
0.0605657
0.0604912
0.060491
0.0604367
0.0604365
0.0604032
0.060403
0.0603891
0.0603889
0.0603903
0.0603901
0.0604013
0.0604011
0.0604157
0.0604155
0.0604277
0.0604275
0.0604326
0.0604324
0.0604281
0.0604279
0.0604142
0.0604139
0.0603929
0.0603926
0.0603682
0.0603679
0.0603448
0.0603444
0.0603274
0.060327
0.0603201
0.0603197
0.0603258
0.0603254
0.0603462
0.0603458
0.0603816
0.0603812
0.0604311
0.0604307
0.0604928
0.0604924
0.060565
0.0605646
0.0606459
0.0606454
0.060734
0.0607335
0.0608286
0.0608281
0.0609296
0.0609291
0.0610375
0.061037
0.0611529
0.0611524
0.0612763
0.0612758
0.0614074
0.0614069
0.061545
0.0615444
0.0616864
0.0616859
0.061828
0.0618274
0.0619651
0.0619644
0.0620923
0.0620916
0.0622047
0.0622039
0.0622976
0.0622967
0.0623674
0.0623663
0.0624114
0.0624102
0.0624284
0.0624271
0.0624182
0.0624167
0.0623816
0.0623798
0.0623202
0.0623181
0.0622362
0.0622338
0.0621324
0.0621297
0.0620123
0.0620093
0.0618801
0.0618768
0.0617404
0.0617368
0.0615987
0.0615949
0.0614606
0.0614567
0.0613319
0.0613278
0.0612172
0.061213
0.0611197
0.0611155
0.0610399
0.0610356
0.0609743
0.0609699
0.060915
0.0609105
0.0608486
0.0608439
0.0607561
0.0607511
0.0606133
0.0606079
0.0603922
0.0603865
0.0600646
0.0600585
0.0596056
0.0595992
0.0589999
0.0589933
0.0582462
0.0582395
0.0573592
0.0573523
0.0563676
0.0563609
0.0553084
0.0553017
0.0542169
0.0542104
0.0531192
0.0531129
0.0520302
0.0520241
0.0509509
0.0509449
0.0498747
0.049869
0.0487943
0.0487887
0.0477036
0.0476982
0.0465998
0.0465945
0.0454823
0.0454772
0.0443527
0.0443476
0.0432127
0.0432078
0.042065
0.0420602
0.0409117
0.0409071
0.0397552
0.0397507
0.0385974
0.0385929
0.0374399
0.0374356
0.0362842
0.03628
0.0351317
0.0351276
0.0339832
0.0339793
0.0328398
0.0328359
0.031702
0.0316983
0.0305706
0.030567
0.0294462
0.0294428
0.0283295
0.0283262
0.0272212
0.027218
0.0261218
0.0261187
0.0250321
0.0250291
0.0239527
0.0239498
0.0228842
0.0228814
0.0218272
0.0218245
0.0207823
0.0207798
0.0197501
0.0197477
0.0187311
0.0187288
0.0177258
0.0177236
0.0167349
0.0167328
0.0157589
0.0157569
0.0147984
0.0147965
0.013854
0.0138522
0.0129262
0.0129246
0.0120159
0.0120143
0.0111236
0.0111221
0.0102501
0.0102487
0.00939608
0.00939478
0.00856248
0.00856127
0.00775014
0.00774902
0.00696005
0.00695902
0.00619333
0.00619239
0.00545126
0.0054504
0.00473533
0.00473455
0.00404732
0.00404662
0.00338944
0.00338881
0.00276448
0.00276394
0.00217617
0.0021757
0.00162968
0.00162929
0.00113277
0.00113246
0.000697941
0.000697711
0.000346805
0.000346658
0.000113676
0.000113611
1.74942e-05
1.74819e-05
8.4407e-07
8.43445e-07
5.15098e-09
5.14688e-09
0.751563
0.751562
0.751766
0.751766
0.744751
0.744751
0.735728
0.735728
0.725862
0.725862
0.715613
0.715613
0.705167
0.705168
0.694604
0.694605
0.683961
0.683961
0.673255
0.673256
0.662501
0.662501
0.651707
0.651707
0.640879
0.64088
0.630025
0.630025
0.619149
0.619149
0.608255
0.608255
0.597348
0.597348
0.58643
0.58643
0.575505
0.575505
0.564576
0.564576
0.553649
0.553649
0.542731
0.542731
0.531831
0.531831
0.520958
0.520959
0.510126
0.510126
0.499346
0.499347
0.488632
0.488632
0.477994
0.477994
0.467443
0.467443
0.456986
0.456987
0.446631
0.446631
0.436381
0.436382
0.426243
0.426244
0.416222
0.416222
0.406323
0.406324
0.396556
0.396556
0.386928
0.386929
0.37745
0.37745
0.368129
0.36813
0.358976
0.358976
0.349998
0.349998
0.341202
0.341202
0.332596
0.332597
0.324187
0.324187
0.315979
0.31598
0.30798
0.30798
0.300194
0.300194
0.292627
0.292627
0.285284
0.285284
0.278171
0.278171
0.271291
0.271291
0.264647
0.264647
0.25824
0.25824
0.252067
0.252068
0.246125
0.246125
0.240407
0.240407
0.234906
0.234907
0.229617
0.229617
0.224532
0.224532
0.219648
0.219649
0.214963
0.214963
0.210477
0.210478
0.206192
0.206192
0.20211
0.20211
0.198234
0.198235
0.194567
0.194567
0.191109
0.191109
0.187858
0.187858
0.184811
0.184811
0.181962
0.181962
0.179302
0.179302
0.176825
0.176825
0.174523
0.174523
0.172391
0.172391
0.170424
0.170424
0.168615
0.168615
0.166957
0.166956
0.165434
0.165433
0.164026
0.164025
0.162707
0.162706
0.161447
0.161446
0.160218
0.160217
0.158998
0.158996
0.157776
0.157775
0.156556
0.156556
0.155358
0.155357
0.154204
0.154204
0.153122
0.153122
0.152132
0.152132
0.151244
0.151244
0.15045
0.150451
0.149721
0.149722
0.149016
0.149017
0.148286
0.148289
0.147484
0.147487
0.146564
0.146567
0.145497
0.145499
0.144267
0.14427
0.142877
0.142879
0.141338
0.14134
0.139678
0.13968
0.137926
0.137928
0.136118
0.13612
0.134289
0.134291
0.132471
0.132472
0.130692
0.130693
0.128972
0.128973
0.127328
0.127329
0.125772
0.125772
0.124308
0.124308
0.122939
0.122939
0.121664
0.121664
0.12048
0.12048
0.119383
0.119383
0.118366
0.118365
0.117421
0.11742
0.116539
0.116538
0.115709
0.115708
0.114919
0.114918
0.114156
0.114155
0.113405
0.113403
0.112651
0.112648
0.111876
0.111874
0.111067
0.111064
0.110208
0.110205
0.109287
0.109284
0.108296
0.108293
0.107231
0.107228
0.106094
0.106091
0.104893
0.104891
0.103642
0.103641
0.102361
0.102361
0.101074
0.101074
0.0998037
0.0998043
0.0985742
0.0985748
0.0974034
0.0974039
0.0963034
0.0963039
0.0952754
0.0952757
0.0943123
0.0943126
0.0933994
0.0933997
0.0925166
0.0925171
0.0916416
0.0916426
0.0907532
0.0907549
0.0898339
0.0898365
0.0888713
0.0888744
0.0878583
0.0878619
0.0867942
0.0867979
0.0856839
0.0856877
0.0845367
0.0845404
0.0833643
0.0833678
0.0821798
0.0821832
0.0809965
0.0809996
0.0798263
0.0798292
0.0786801
0.0786827
0.0775663
0.0775688
0.0764919
0.0764942
0.0754616
0.0754637
0.0744786
0.0744805
0.0735447
0.0735465
0.0726608
0.0726624
0.0718265
0.0718279
0.0710408
0.0710422
0.0703021
0.0703034
0.0696081
0.0696092
0.0689561
0.0689571
0.0683428
0.0683437
0.067765
0.0677658
0.0672193
0.0672201
0.0667024
0.0667032
0.0662117
0.0662123
0.0657447
0.0657453
0.0652998
0.0653004
0.0648762
0.0648767
0.0644734
0.0644739
0.0640918
0.0640922
0.0637317
0.0637322
0.0633939
0.0633943
0.0630788
0.0630792
0.0627866
0.062787
0.0625172
0.0625175
0.0622698
0.0622701
0.0620433
0.0620436
0.0618362
0.0618365
0.0616464
0.0616467
0.0614718
0.0614721
0.0613101
0.0613104
0.0611595
0.0611598
0.0610187
0.061019
0.0608875
0.0608877
0.0607667
0.060767
0.0606585
0.0606587
0.0605656
0.0605659
0.060491
0.0604912
0.0604365
0.0604367
0.060403
0.0604032
0.0603889
0.0603891
0.0603901
0.0603903
0.0604011
0.0604013
0.0604155
0.0604157
0.0604275
0.0604277
0.0604324
0.0604326
0.0604279
0.0604282
0.0604139
0.0604142
0.0603926
0.0603929
0.0603679
0.0603682
0.0603444
0.0603448
0.060327
0.0603274
0.0603197
0.0603201
0.0603255
0.0603259
0.0603458
0.0603463
0.0603813
0.0603817
0.0604307
0.0604311
0.0604924
0.0604929
0.0605646
0.0605651
0.0606455
0.0606459
0.0607335
0.060734
0.0608281
0.0608286
0.0609291
0.0609297
0.061037
0.0610376
0.0611524
0.061153
0.0612758
0.0612764
0.0614069
0.0614075
0.0615445
0.0615451
0.0616859
0.0616865
0.0618275
0.0618281
0.0619644
0.0619651
0.0620916
0.0620924
0.0622039
0.0622048
0.0622967
0.0622977
0.0623664
0.0623674
0.0624103
0.0624115
0.0624271
0.0624285
0.0624167
0.0624183
0.0623798
0.0623817
0.0623181
0.0623203
0.0622338
0.0622362
0.0621298
0.0621325
0.0620094
0.0620124
0.0618768
0.0618802
0.0617369
0.0617405
0.0615949
0.0615988
0.0614567
0.0614607
0.0613278
0.061332
0.061213
0.0612173
0.0611155
0.0611198
0.0610356
0.06104
0.0609699
0.0609744
0.0609105
0.0609151
0.060844
0.0608488
0.0607512
0.0607563
0.060608
0.0606134
0.0603866
0.0603924
0.0600585
0.0600647
0.0595992
0.0596057
0.0589933
0.0590001
0.0582395
0.0582463
0.0573524
0.0573593
0.0563609
0.0563678
0.0553017
0.0553085
0.0542104
0.054217
0.0531129
0.0531193
0.0520241
0.0520303
0.050945
0.050951
0.049869
0.0498748
0.0487887
0.0487944
0.0476982
0.0477037
0.0465945
0.0465999
0.0454772
0.0454824
0.0443477
0.0443528
0.0432079
0.0432128
0.0420602
0.0420651
0.0409071
0.0409118
0.0397507
0.0397553
0.038593
0.0385975
0.0374356
0.03744
0.0362801
0.0362843
0.0351277
0.0351318
0.0339794
0.0339833
0.032836
0.0328398
0.0316983
0.0317021
0.0305671
0.0305707
0.0294428
0.0294463
0.0283263
0.0283296
0.027218
0.0272213
0.0261188
0.0261219
0.0250292
0.0250322
0.0239498
0.0239527
0.0228815
0.0228842
0.0218246
0.0218273
0.0207798
0.0207824
0.0197477
0.0197501
0.0187288
0.0187311
0.0177237
0.0177259
0.0167329
0.016735
0.015757
0.015759
0.0147965
0.0147984
0.0138522
0.013854
0.0129246
0.0129263
0.0120143
0.0120159
0.0111221
0.0111236
0.0102487
0.0102501
0.0093948
0.00939611
0.00856128
0.0085625
0.00774903
0.00775016
0.00695903
0.00696008
0.0061924
0.00619336
0.00545041
0.00545128
0.00473456
0.00473534
0.00404662
0.00404733
0.00338882
0.00338945
0.00276394
0.00276449
0.00217571
0.00217618
0.0016293
0.00162969
0.00113246
0.00113278
0.000697713
0.000697945
0.000346659
0.000346807
0.000113612
0.000113677
1.7482e-05
1.74944e-05
8.43449e-07
8.44079e-07
5.1469e-09
5.15103e-09
)
;

boundaryField
{
    walls
    {
        type            nutUWallFunction;
        blending        stepwise;
        Cmu             0.09;
        kappa           0.41;
        E               9.8;
        value           uniform 0;
    }
    inlet
    {
        type            cyclic;
    }
    outlet
    {
        type            cyclic;
    }
    sides
    {
        type            empty;
    }
}


// ************************************************************************* //
