/*--------------------------------*- C++ -*----------------------------------*\
| =========                 |                                                 |
| \\      /  F ield         | OpenFOAM: The Open Source CFD Toolbox           |
|  \\    /   O peration     | Version:  2012                                  |
|   \\  /    A nd           | Website:  www.openfoam.com                      |
|    \\/     M anipulation  |                                                 |
\*---------------------------------------------------------------------------*/
FoamFile
{
    version     2.0;
    format      ascii;
    class       volScalarField;
    location    "11100";
    object      p;
}
// * * * * * * * * * * * * * * * * * * * * * * * * * * * * * * * * * * * * * //

dimensions      [0 2 -2 0 0 0 0];


internalField   nonuniform List<scalar> 
2560
(
8.49854e-09
-0.919525
-3.65211e-05
-0.919554
-4.07422e-05
-0.919559
-3.4338e-05
-0.919562
-3.10156e-05
-0.919564
-3.01805e-05
-0.919565
-2.95621e-05
-0.919566
-2.93634e-05
-0.919566
-2.88583e-05
-0.919566
-2.8942e-05
-0.919567
-2.82557e-05
-0.919567
-2.84127e-05
-0.919568
-3.1122e-05
-0.919566
-4.29676e-05
-0.919011
-8.69699e-05
-0.919683
-0.00017957
-0.918427
-0.000358072
-0.920219
-0.000574877
-0.920234
-0.000826128
-0.921079
-0.00106837
-0.921101
-0.00133957
-0.922031
-0.00158713
-0.922047
-0.00186014
-0.923036
-0.00210832
-0.920544
-0.00245583
-0.9243
-0.0028523
-0.92173
-0.00344047
-0.926205
-0.0040762
-0.92627
-0.00489012
-0.928697
-0.00565116
-0.928827
-0.00654237
-0.931462
-0.00726624
-0.931585
-0.0081013
-0.934197
-0.00867966
-0.934255
-0.00943767
-0.936767
-0.00993983
-0.932173
-0.0108222
-0.939608
-0.0115091
-0.919058
-0.0128105
-0.943867
-0.01392
-0.917111
-0.0157947
-0.950223
-0.0173698
-0.930028
-0.019745
-0.958428
-0.0216227
-0.951911
-0.0242873
-0.967628
-0.0262637
-0.967088
-0.0290856
-0.97726
-0.031097
-0.974554
-0.0341481
-0.987385
-0.0363759
-0.917646
-0.0400062
-1.00045
-0.0433645
-0.978873
-0.0494274
-1.01787
-0.0574533
-1.01941
-0.071375
-1.04812
-0.0914624
-1.05453
-0.121429
-1.10699
-0.160736
-1.12209
-0.209939
-1.20508
-0.265345
-1.22885
-0.322694
-1.32831
-0.37621
-1.35346
-0.419523
-1.43632
-0.449527
-1.45194
-0.462299
-1.49057
-0.460678
-1.48888
-0.444237
-1.44876
-0.419975
-1.43749
-0.388393
-1.37769
-0.356638
-1.36408
-0.323808
-1.30502
-0.294993
-1.29288
-0.267817
-0.263903
-0.245481
-0.250837
-0.225138
-0.221469
-0.209031
-0.212277
-0.194576
-0.191044
-0.183606
-0.184641
-0.173938
-0.170467
-0.167079
-0.16631
-0.161183
-0.157733
-0.157472
-0.155319
-0.154338
-0.15089
-0.152781
-0.149711
-0.151491
-0.148046
-0.151384
-0.147695
-0.151482
-0.148021
-0.152692
-0.149318
-0.154348
-0.150903
-0.157341
-0.153971
-0.161206
-0.157778
-0.166727
-0.163365
-0.173488
-0.170079
-0.182044
-0.178692
-0.191879
-0.18849
-0.203267
-0.199928
-0.215566
-0.212198
-0.228799
-0.225475
-0.242288
-0.238942
-0.255962
-0.252655
-0.269236
-0.265912
-0.282095
-0.278806
-0.294134
-0.290832
-0.305461
-0.30219
-0.315866
-0.312586
-0.325548
-0.322295
-0.334423
-0.331164
-0.342716
-0.339481
-0.350391
-0.347153
-0.357657
-0.354441
-0.364489
-0.361271
-0.371072
-0.367875
-0.37741
-0.374213
-0.38368
-0.380502
-0.389919
-0.386745
-0.396327
-0.393172
-0.402957
-0.399808
-0.409984
-0.406853
-0.417466
-0.414344
-0.425554
-0.422451
-0.434307
-0.431215
-0.443876
-0.440804
-0.454358
-0.451298
-0.46596
-0.462921
-0.47887
-0.475846
-0.493392
-0.490389
-0.509819
-0.506832
-0.528521
-0.525555
-0.549824
-0.546875
-0.574042
-0.571114
-0.601365
-0.598454
-0.631875
-0.628984
-0.665436
-0.662563
-0.701723
-0.69887
-0.740167
-0.737331
-0.780024
-0.777207
-0.820372
-0.817572
-0.860223
-0.857441
-0.898569
-0.895804
-0.934507
-0.93176
-0.96728
-0.96455
-0.996364
-0.993651
-1.02146
-1.01876
-1.04253
-1.03985
-1.05972
-1.05706
-1.07337
-1.07072
-1.08391
-1.08128
-1.09184
-1.08923
-1.09765
-1.09505
-1.1018
-1.09922
-1.1047
-1.10213
-1.10667
-1.10412
-1.108
-1.10546
-1.10887
-1.10635
-1.10943
-1.10693
-1.1098
-1.1073
-1.11002
-1.10754
-1.11016
-1.10769
-1.11024
-1.10778
-1.11028
-1.10783
-1.11028
-1.10785
-1.11025
-1.10783
-1.11021
-1.1078
-1.11015
-1.10776
-1.11008
-1.1077
-1.11
-1.10763
-1.10992
-1.10756
-1.10983
-1.10748
-1.10974
-1.1074
-1.10964
-1.10731
-1.10955
-1.10723
-1.10947
-1.10715
-1.10939
-1.10708
-1.10932
-1.10701
-1.10925
-1.10695
-1.1092
-1.1069
-1.10915
-1.10686
-1.10911
-1.10682
-1.10908
-1.10679
-1.10906
-1.10676
-1.10904
-1.10675
-1.10902
-1.10674
-1.109
-1.10673
-1.10899
-1.10672
-1.10898
-1.10671
-1.10897
-1.10671
-1.10895
-1.1067
-1.10893
-1.10668
-1.10891
-1.10666
-1.10887
-1.10662
-1.10882
-1.10657
-1.10874
-1.10649
-1.10863
-1.10639
-1.10848
-1.10624
-1.10828
-1.10605
-1.10801
-1.10578
-1.10765
-1.10544
-1.10719
-1.10498
-1.1066
-1.1044
-1.10585
-1.10367
-1.10493
-1.10276
-1.10379
-1.10165
-1.10243
-1.1003
-1.1008
-1.09869
-1.0989
-1.09681
-1.09669
-1.09462
-1.09418
-1.09214
-1.09137
-1.08934
-1.08824
-1.08624
-1.08483
-1.08285
-1.08115
-1.0792
-1.07723
-1.0753
-1.07309
-1.07118
-1.06877
-1.06688
-1.06429
-1.06243
-1.05967
-1.05783
-1.05493
-1.05312
-1.05008
-1.04828
-1.04511
-1.04333
-1.04001
-1.03825
-1.03478
-1.03304
-1.0294
-1.02767
-1.02386
-1.02214
-1.01815
-1.01644
-1.01227
-1.01057
-1.00623
-1.00453
-1.00003
-0.998336
-0.993705
-0.992012
-0.987283
-0.98559
-0.980787
-0.979096
-0.974259
-0.97257
-0.967721
-0.966035
-0.961207
-0.959524
-0.954734
-0.953052
-0.948319
-0.946638
-0.941964
-0.940283
-0.935673
-0.933994
-0.929438
-0.927762
-0.923254
-0.921584
-0.917109
-0.915445
-0.910997
-0.909341
-0.904903
-0.903255
-0.898826
-0.897188
-0.892753
-0.891126
-0.886689
-0.885073
-0.880619
-0.879014
-0.874551
-0.872958
-0.86847
-0.866888
-0.862382
-0.860812
-0.856271
-0.854711
-0.850138
-0.84859
-0.843963
-0.842425
-0.83775
-0.836222
-0.831474
-0.829957
-0.825142
-0.823636
-0.818728
-0.817234
-0.812244
-0.810762
-0.805667
-0.804197
-0.799013
-0.797556
-0.792257
-0.790813
-0.785423
-0.783993
-0.778483
-0.777068
-0.771466
-0.770067
-0.764345
-0.762963
-0.757148
-0.755783
-0.749851
-0.748503
-0.742487
-0.741158
-0.73503
-0.73372
-0.727519
-0.726228
-0.719929
-0.718658
-0.712308
-0.711056
-0.704627
-0.703396
-0.696937
-0.695725
-0.689208
-0.688016
-0.681492
-0.680319
-0.673751
-0.672598
-0.666036
-0.664902
-0.658302
-0.657188
-0.650593
-0.649497
-0.642857
-0.641781
-0.635138
-0.634081
-0.627379
-0.626342
-0.61963
-0.61861
-0.611832
-0.610832
-0.604046
-0.603063
-0.596221
-0.595257
-0.588429
-0.587483
-0.580629
-0.579701
-0.572903
-0.571992
-0.565215
-0.564323
-0.557657
-0.55678
-0.550188
-0.54933
-0.542901
-0.542058
-0.535745
-0.534922
-0.528811
-0.528003
-0.522038
-0.521251
-0.515506
-0.514734
-0.509143
-0.508393
-0.503022
-0.502289
-0.497063
-0.496355
-0.491334
-0.490642
-0.485745
-0.485081
-0.480361
-0.479714
-0.475092
-0.474475
-0.469999
-0.4694
-0.46499
-0.464426
-0.460135
-0.459587
-0.455343
-0.454834
-0.450701
-0.450207
-0.446131
-0.445682
-0.441743
-0.441308
-0.437481
-0.437097
-0.433483
-0.433111
-0.429718
-0.429406
-0.426346
-0.426045
-0.423363
-0.42311
-0.420915
-0.420671
-0.419012
-0.418802
-0.417759
-0.417557
-0.417167
-0.41698
-0.922773
-0.000559154
-0.922801
-0.000595702
-0.922807
-0.000599933
-0.922809
-0.000593543
-0.922811
-0.000590241
-0.922812
-0.000589428
-0.922813
-0.000588815
-0.922813
-0.000588609
-0.922813
-0.0005881
-0.922814
-0.000588128
-0.922814
-0.000587603
-0.922815
-0.000587667
-0.922814
-0.000589783
-0.922258
-0.00060071
-0.92293
-0.000644357
-0.921674
-0.000737137
-0.923466
-0.00091591
-0.923481
-0.00113302
-0.924326
-0.0013845
-0.924348
-0.00162697
-0.925278
-0.00189832
-0.925294
-0.00214607
-0.926283
-0.0024192
-0.923791
-0.00266755
-0.927548
-0.00301517
-0.924977
-0.00341177
-0.929452
-0.00400002
-0.929517
-0.00463585
-0.931944
-0.00544984
-0.932075
-0.00621094
-0.934709
-0.00710219
-0.934832
-0.00782609
-0.937444
-0.00866117
-0.937502
-0.00923955
-0.940014
-0.00999756
-0.93542
-0.0104997
-0.942855
-0.0113821
-0.922306
-0.012069
-0.947114
-0.0133704
-0.920359
-0.0144798
-0.95347
-0.0163546
-0.933275
-0.0179296
-0.961675
-0.0203048
-0.955158
-0.0221826
-0.970875
-0.0248472
-0.970335
-0.0268235
-0.980507
-0.0296454
-0.977801
-0.0316568
-0.990632
-0.0347079
-0.920893
-0.0369357
-1.0037
-0.040566
-0.98212
-0.0439243
-1.02111
-0.0499872
-1.02266
-0.0580131
-1.05137
-0.0719348
-1.05778
-0.0920222
-1.11024
-0.121988
-1.12534
-0.161295
-1.20833
-0.210499
-1.23209
-0.265905
-1.33156
-0.323254
-1.3567
-0.37677
-1.43957
-0.420082
-1.45518
-0.450087
-1.49381
-0.462859
-1.49213
-0.461238
-1.45201
-0.444797
-1.44073
-0.420535
-1.38093
-0.388953
-1.36732
-0.357198
-1.30827
-0.324368
-1.29613
-0.295553
-0.267149
-0.268377
-0.254083
-0.246042
-0.224715
-0.225698
-0.215523
-0.209592
-0.19429
-0.195137
-0.187887
-0.184166
-0.173714
-0.174498
-0.169556
-0.167639
-0.16098
-0.161744
-0.158565
-0.158033
-0.154136
-0.154899
-0.152957
-0.153342
-0.151292
-0.152052
-0.150941
-0.151944
-0.151267
-0.152042
-0.152564
-0.153253
-0.154149
-0.154909
-0.157217
-0.157901
-0.161024
-0.161766
-0.166611
-0.167288
-0.173325
-0.174049
-0.181938
-0.182604
-0.191737
-0.19244
-0.203174
-0.203827
-0.215444
-0.216126
-0.228721
-0.229359
-0.242188
-0.242848
-0.255902
-0.256523
-0.269159
-0.269796
-0.282052
-0.282656
-0.294079
-0.294694
-0.305436
-0.306022
-0.315832
-0.316427
-0.325542
-0.326109
-0.33441
-0.334983
-0.342728
-0.343277
-0.3504
-0.350952
-0.357687
-0.358218
-0.364518
-0.365049
-0.371121
-0.371633
-0.37746
-0.37797
-0.383749
-0.384241
-0.389992
-0.39048
-0.396418
-0.396888
-0.403055
-0.403518
-0.410099
-0.410545
-0.41759
-0.418027
-0.425698
-0.426115
-0.434461
-0.434868
-0.44405
-0.444437
-0.454545
-0.454918
-0.466168
-0.466521
-0.479093
-0.479431
-0.493635
-0.493952
-0.510079
-0.51038
-0.528802
-0.529081
-0.550122
-0.550384
-0.574361
-0.574603
-0.601701
-0.601925
-0.632231
-0.632435
-0.66581
-0.665996
-0.702117
-0.702284
-0.740578
-0.740727
-0.780454
-0.780584
-0.820819
-0.820932
-0.860688
-0.860783
-0.899052
-0.899129
-0.935007
-0.935067
-0.967798
-0.96784
-0.996898
-0.996923
-1.02201
-1.02202
-1.0431
-1.04309
-1.06031
-1.06028
-1.07397
-1.07393
-1.08453
-1.08447
-1.09248
-1.0924
-1.0983
-1.09821
-1.10246
-1.10236
-1.10538
-1.10525
-1.10737
-1.10723
-1.10871
-1.10856
-1.10959
-1.10943
-1.11018
-1.10999
-1.11055
-1.11036
-1.11079
-1.11058
-1.11094
-1.11072
-1.11104
-1.1108
-1.11108
-1.11083
-1.1111
-1.11084
-1.11109
-1.11081
-1.11105
-1.11077
-1.11101
-1.11071
-1.11095
-1.11064
-1.11089
-1.11056
-1.11081
-1.11048
-1.11074
-1.11039
-1.11065
-1.11029
-1.11057
-1.1102
-1.11048
-1.11011
-1.11041
-1.11002
-1.11033
-1.10994
-1.11027
-1.10987
-1.11021
-1.10981
-1.11016
-1.10975
-1.11011
-1.10971
-1.11007
-1.10967
-1.11004
-1.10964
-1.11002
-1.10961
-1.11
-1.10959
-1.10999
-1.10958
-1.10998
-1.10956
-1.10997
-1.10955
-1.10997
-1.10954
-1.10996
-1.10952
-1.10995
-1.10951
-1.10994
-1.10949
-1.10991
-1.10946
-1.10988
-1.10943
-1.10982
-1.10937
-1.10975
-1.1093
-1.10964
-1.10919
-1.1095
-1.10904
-1.1093
-1.10884
-1.10904
-1.10857
-1.10869
-1.10821
-1.10824
-1.10774
-1.10766
-1.10715
-1.10693
-1.10641
-1.10602
-1.10548
-1.1049
-1.10435
-1.10356
-1.10298
-1.10195
-1.10135
-1.10007
-1.09945
-1.09788
-1.09724
-1.0954
-1.09474
-1.0926
-1.09191
-1.08951
-1.08879
-1.08612
-1.08538
-1.08246
-1.0817
-1.07856
-1.07777
-1.07445
-1.07364
-1.07015
-1.06931
-1.0657
-1.06484
-1.0611
-1.06021
-1.05639
-1.05548
-1.05155
-1.05061
-1.04661
-1.04565
-1.04152
-1.04055
-1.03632
-1.03532
-1.03094
-1.02993
-1.02543
-1.0244
-1.01972
-1.01868
-1.01385
-1.01281
-1.0078
-1.00675
-1.00162
-1.00057
-0.995285
-0.99423
-0.988878
-0.987822
-0.982368
-0.98131
-0.975859
-0.974799
-0.969306
-0.968242
-0.962815
-0.961749
-0.956322
-0.955254
-0.949931
-0.948861
-0.943552
-0.942482
-0.937289
-0.936217
-0.931029
-0.929953
-0.924882
-0.9238
-0.918711
-0.917621
-0.912644
-0.911544
-0.906521
-0.90541
-0.900496
-0.899372
-0.894392
-0.893254
-0.888387
-0.887235
-0.88228
-0.881113
-0.87628
-0.875097
-0.870154
-0.868956
-0.864142
-0.862928
-0.857977
-0.856748
-0.851928
-0.850684
-0.84569
-0.844431
-0.839571
-0.838296
-0.833222
-0.831932
-0.826996
-0.825689
-0.820497
-0.819174
-0.814134
-0.812793
-0.807459
-0.8061
-0.800942
-0.799562
-0.794075
-0.792674
-0.787396
-0.785972
-0.780331
-0.778882
-0.77349
-0.772014
-0.766226
-0.764723
-0.759228
-0.757695
-0.751769
-0.750204
-0.744629
-0.743031
-0.736988
-0.735356
-0.729728
-0.72806
-0.721929
-0.720226
-0.714589
-0.712845
-0.70667
-0.70489
-0.699293
-0.697471
-0.691294
-0.689434
-0.683926
-0.682022
-0.67588
-0.673937
-0.668551
-0.666563
-0.660472
-0.658445
-0.653191
-0.651115
-0.645068
-0.642953
-0.637824
-0.635657
-0.629631
-0.627426
-0.622406
-0.620145
-0.614124
-0.611825
-0.606915
-0.604558
-0.598551
-0.596157
-0.591395
-0.588939
-0.582995
-0.580505
-0.575968
-0.573411
-0.567615
-0.565027
-0.560825
-0.558164
-0.552621
-0.549932
-0.546176
-0.543406
-0.538211
-0.535416
-0.532201
-0.529314
-0.524539
-0.52163
-0.51902
-0.516004
-0.511682
-0.508648
-0.506672
-0.503512
-0.499647
-0.496474
-0.495133
-0.491809
-0.48838
-0.485051
-0.484327
-0.480816
-0.477786
-0.474283
-0.474149
-0.470424
-0.467752
-0.464056
-0.464487
-0.460521
-0.458179
-0.454273
-0.455277
-0.451038
-0.44905
-0.444914
-0.446566
-0.442019
-0.440491
-0.436107
-0.438582
-0.43368
-0.408853
-0.428174
-0.407182
-0.426282
-0.402372
-0.421854
-0.401128
-0.420572
-0.397812
-0.417616
-0.397143
-0.417091
-0.395605
-0.416029
-0.417168
-0.41698
-0.417761
-0.417554
-0.419015
-0.4188
-0.420918
-0.420667
-0.423368
-0.423106
-0.42635
-0.426039
-0.429725
-0.429403
-0.433487
-0.433104
-0.437487
-0.43709
-0.44175
-0.441301
-0.44614
-0.445676
-0.450709
-0.450199
-0.455353
-0.454826
-0.460146
-0.459579
-0.465002
-0.464418
-0.47001
-0.46939
-0.475102
-0.474464
-0.480373
-0.479703
-0.485756
-0.485068
-0.491348
-0.490631
-0.497077
-0.496343
-0.503037
-0.502276
-0.509157
-0.508379
-0.515519
-0.514718
-0.522052
-0.521235
-0.528829
-0.52799
-0.53576
-0.534905
-0.542919
-0.542044
-0.550206
-0.549314
-0.557672
-0.55676
-0.565235
-0.564307
-0.572923
-0.571975
-0.580652
-0.579687
-0.588449
-0.587464
-0.596246
-0.595244
-0.604065
-0.603042
-0.611852
-0.61081
-0.619652
-0.61859
-0.627399
-0.626318
-0.635164
-0.634061
-0.642879
-0.641757
-0.650618
-0.649475
-0.658327
-0.657164
-0.666064
-0.66488
-0.673776
-0.672572
-0.681521
-0.680296
-0.689233
-0.687988
-0.696964
-0.695698
-0.704654
-0.703367
-0.712337
-0.711029
-0.719956
-0.718627
-0.727553
-0.726203
-0.735062
-0.733691
-0.742514
-0.741124
-0.749884
-0.748474
-0.75718
-0.755751
-0.764381
-0.762934
-0.771499
-0.770034
-0.778516
-0.777034
-0.785453
-0.783956
-0.792299
-0.790786
-0.799049
-0.797522
-0.805708
-0.804167
-0.812282
-0.810728
-0.818769
-0.817203
-0.825177
-0.823599
-0.831507
-0.829917
-0.837791
-0.83619
-0.844002
-0.842389
-0.850183
-0.848559
-0.856308
-0.854672
-0.862417
-0.86077
-0.86851
-0.86685
-0.874587
-0.872915
-0.880656
-0.878972
-0.886727
-0.885032
-0.892797
-0.891089
-0.898873
-0.897154
-0.904953
-0.903223
-0.911045
-0.909306
-0.917153
-0.915406
-0.9233
-0.921546
-0.929479
-0.92772
-0.935715
-0.933952
-0.942012
-0.940247
-0.948359
-0.946594
-0.954771
-0.953005
-0.961255
-0.959487
-0.967766
-0.965995
-0.974294
-0.97252
-0.980831
-0.979054
-0.987325
-0.985546
-0.993744
-0.991965
-1.00007
-0.998291
-1.00628
-1.00449
-1.01232
-1.01053
-1.0182
-1.0164
-1.02391
-1.02211
-1.02945
-1.02763
-1.03483
-1.03299
-1.04006
-1.0382
-1.04516
-1.04329
-1.05013
-1.04824
-1.05499
-1.05307
-1.05973
-1.0578
-1.06434
-1.06238
-1.06882
-1.06683
-1.07315
-1.07114
-1.07728
-1.07525
-1.0812
-1.07914
-1.08488
-1.0828
-1.0883
-1.08619
-1.09142
-1.08928
-1.09424
-1.09208
-1.09675
-1.09457
-1.09895
-1.09675
-1.10086
-1.09863
-1.10249
-1.10024
-1.10385
-1.10159
-1.10499
-1.10271
-1.10591
-1.10362
-1.10666
-1.10435
-1.10725
-1.10492
-1.10771
-1.10538
-1.10807
-1.10572
-1.10834
-1.10599
-1.10855
-1.10618
-1.1087
-1.10633
-1.1088
-1.10643
-1.10888
-1.10651
-1.10893
-1.10656
-1.10897
-1.1066
-1.109
-1.10662
-1.10902
-1.10664
-1.10903
-1.10665
-1.10904
-1.10665
-1.10906
-1.10666
-1.10907
-1.10667
-1.10908
-1.10667
-1.1091
-1.10669
-1.10912
-1.1067
-1.10915
-1.10673
-1.10918
-1.10676
-1.10922
-1.1068
-1.10926
-1.10684
-1.10932
-1.10689
-1.10938
-1.10695
-1.10945
-1.10702
-1.10953
-1.10709
-1.10962
-1.10717
-1.10971
-1.10725
-1.1098
-1.10733
-1.10989
-1.10741
-1.10999
-1.1075
-1.11007
-1.10757
-1.11015
-1.10764
-1.11022
-1.10769
-1.11028
-1.10774
-1.11032
-1.10776
-1.11035
-1.10778
-1.11034
-1.10776
-1.11031
-1.10772
-1.11023
-1.10762
-1.1101
-1.10748
-1.10986
-1.10722
-1.10951
-1.10686
-1.10894
-1.10627
-1.10808
-1.1054
-1.10674
-1.10404
-1.10478
-1.10207
-1.10185
-1.09912
-1.09774
-1.09499
-1.0919
-1.08913
-1.08399
-1.08121
-1.07344
-1.07065
-1.05977
-1.05695
-1.04252
-1.03969
-1.02153
-1.01867
-0.996542
-0.993673
-0.967241
-0.964353
-0.934557
-0.93165
-0.898621
-0.895696
-0.860374
-0.857431
-0.820508
-0.817545
-0.780274
-0.777293
-0.740408
-0.737407
-0.701722
-0.698702
-0.665478
-0.662439
-0.632104
-0.629045
-0.601375
-0.598296
-0.574001
-0.570903
-0.549947
-0.546828
-0.528669
-0.525532
-0.509955
-0.506797
-0.49344
-0.490264
-0.47899
-0.475793
-0.466075
-0.462862
-0.454465
-0.451232
-0.443925
-0.440677
-0.434421
-0.431155
-0.42568
-0.4224
-0.417514
-0.414217
-0.410109
-0.406801
-0.403077
-0.399753
-0.396409
-0.393076
-0.389978
-0.386629
-0.383771
-0.380417
-0.377464
-0.374093
-0.371151
-0.367776
-0.364609
-0.361217
-0.357705
-0.35431
-0.350478
-0.347066
-0.342835
-0.339422
-0.334467
-0.331034
-0.325638
-0.322204
-0.316026
-0.312571
-0.30554
-0.302086
-0.294134
-0.290656
-0.28222
-0.278744
-0.269313
-0.26581
-0.256014
-0.252517
-0.242335
-0.238807
-0.228886
-0.225368
-0.21571
-0.212159
-0.203307
-0.199769
-0.192035
-0.188461
-0.182172
-0.178615
-0.173605
-0.170007
-0.166876
-0.163301
-0.161283
-0.157664
-0.157412
-0.153821
-0.154412
-0.150774
-0.152782
-0.149187
-0.151568
-0.147934
-0.151481
-0.147622
-0.151573
-0.147981
-0.152871
-0.149665
-0.154422
-0.150852
-0.15758
-0.155257
-0.161247
-0.157651
-0.167212
-0.166278
-0.174066
-0.1704
-0.1837
-0.18457
-0.194736
-0.191007
-0.20922
-0.211543
-0.225125
-0.221311
-0.245576
-1.25331
-0.267789
-1.26214
-0.29515
-1.31241
-0.323971
-1.32398
-0.356376
-1.3834
-0.388221
-1.39686
-0.420298
-1.45762
-0.444059
-1.46882
-0.460833
-1.50909
-0.462456
-1.5108
-0.449439
-1.4723
-0.419992
-1.45663
-0.37567
-1.37311
-0.323146
-1.34834
-0.266086
-1.24838
-0.210157
-1.22459
-0.16117
-1.14122
-0.121543
-1.12613
-0.0917208
-1.07343
-0.0715177
-1.06706
-0.057648
-1.03815
-0.049602
-1.03662
-0.0433878
-0.98313
-0.040085
-1.01886
-0.0364761
-0.943029
-0.0342963
-1.00601
-0.0311872
-0.990362
-0.0291476
-0.995754
-0.026377
-0.986202
-0.0243834
-0.986189
-0.0217081
-0.970572
-0.019826
-0.976991
-0.017464
-0.950224
-0.0158967
-0.968818
-0.0139887
-0.933948
-0.0128987
-0.962416
-0.0115887
-0.938559
-0.0109207
-0.958186
-0.0100131
-0.950121
-0.00953203
-0.955333
-0.00876122
-0.952825
-0.00818445
-0.952763
-0.00734476
-0.95017
-0.00663554
-0.950049
-0.00575261
-0.947433
-0.0049829
-0.947294
-0.00415407
-0.944868
-0.00352342
-0.944803
-0.00293453
-0.940493
-0.00252986
-0.942897
-0.00218943
-0.939162
-0.00194039
-0.941637
-0.00166502
-0.940646
-0.00142218
-0.940631
-0.00115443
-0.939699
-0.000909584
-0.939676
-0.000654555
-0.938826
-0.000440912
-0.938813
-0.000263091
-0.937026
-0.000167738
-0.938273
-0.000123332
-0.937583
-0.0001114
-0.938154
-0.000108801
-0.938155
-0.000108648
-0.938154
-0.000109367
-0.938154
-0.00010937
-0.938154
-0.00010998
-0.938153
-0.000110217
-0.938153
-0.000111023
-0.938152
-0.000111946
-0.938152
-0.000115594
-0.938149
-0.000122193
-0.938146
-0.00011784
-0.938141
-8.09171e-05
-0.938113
-0.395605
-0.41603
-0.397142
-0.417091
-0.39781
-0.417617
-0.401127
-0.420573
-0.402371
-0.421856
-0.407181
-0.426282
-0.408852
-0.428179
-0.438551
-0.433681
-0.44046
-0.436109
-0.446537
-0.442021
-0.44902
-0.444918
-0.455247
-0.451041
-0.458149
-0.454277
-0.464458
-0.460526
-0.467722
-0.464062
-0.474117
-0.470429
-0.477753
-0.474287
-0.484295
-0.480821
-0.488346
-0.485055
-0.495102
-0.491816
-0.499614
-0.49648
-0.506639
-0.503519
-0.511648
-0.508654
-0.518984
-0.516009
-0.524502
-0.521635
-0.532169
-0.529324
-0.538174
-0.535422
-0.546143
-0.543416
-0.552586
-0.549941
-0.560786
-0.55817
-0.567581
-0.565038
-0.575933
-0.573422
-0.582962
-0.580519
-0.591358
-0.58895
-0.598518
-0.596173
-0.606876
-0.604568
-0.614083
-0.611835
-0.622367
-0.620158
-0.629589
-0.627436
-0.637786
-0.635673
-0.645027
-0.642966
-0.653151
-0.65113
-0.660431
-0.658459
-0.668512
-0.66658
-0.675835
-0.673951
-0.683886
-0.68204
-0.691249
-0.689448
-0.699249
-0.697487
-0.706624
-0.704905
-0.714545
-0.712864
-0.721881
-0.72024
-0.729687
-0.728083
-0.736942
-0.735376
-0.744579
-0.743047
-0.751722
-0.750225
-0.75918
-0.757715
-0.766181
-0.764747
-0.773441
-0.772036
-0.78028
-0.778902
-0.787343
-0.78599
-0.794032
-0.792703
-0.800893
-0.799586
-0.807413
-0.806128
-0.814085
-0.812819
-0.82045
-0.819202
-0.826943
-0.825712
-0.833165
-0.831952
-0.839523
-0.838326
-0.845639
-0.844457
-0.851882
-0.850716
-0.857922
-0.856772
-0.864084
-0.862951
-0.8701
-0.868983
-0.876222
-0.87512
-0.882222
-0.881136
-0.888331
-0.887261
-0.894339
-0.893284
-0.900447
-0.899406
-0.906473
-0.905446
-0.912594
-0.911578
-0.918656
-0.917651
-0.924829
-0.923833
-0.930971
-0.929981
-0.937232
-0.936246
-0.943499
-0.942515
-0.949872
-0.948889
-0.956259
-0.955277
-0.962763
-0.961784
-0.96925
-0.968273
-0.975795
-0.974822
-0.982311
-0.98134
-0.988819
-0.987851
-0.995223
-0.994254
-1.00156
-1.0006
-1.00775
-1.00679
-1.0138
-1.01285
-1.01966
-1.01871
-1.02537
-1.02444
-1.03089
-1.02997
-1.03626
-1.03535
-1.04146
-1.04057
-1.04655
-1.04569
-1.05149
-1.05065
-1.05634
-1.05552
-1.06105
-1.06025
-1.06564
-1.06488
-1.07008
-1.06934
-1.0744
-1.07368
-1.0785
-1.07781
-1.08239
-1.08173
-1.08605
-1.08541
-1.08944
-1.08883
-1.09253
-1.09195
-1.09533
-1.09478
-1.09782
-1.09729
-1.1
-1.09949
-1.10188
-1.10139
-1.10349
-1.10303
-1.10483
-1.10439
-1.10595
-1.10553
-1.10686
-1.10645
-1.10759
-1.1072
-1.10817
-1.10779
-1.10862
-1.10826
-1.10897
-1.10861
-1.10923
-1.10889
-1.10943
-1.10909
-1.10957
-1.10924
-1.10968
-1.10934
-1.10975
-1.10942
-1.1098
-1.10947
-1.10984
-1.10951
-1.10986
-1.10954
-1.10988
-1.10956
-1.10989
-1.10957
-1.10989
-1.10959
-1.1099
-1.1096
-1.10991
-1.10961
-1.10992
-1.10962
-1.10993
-1.10964
-1.10995
-1.10966
-1.10997
-1.10969
-1.11
-1.10972
-1.11003
-1.10976
-1.11008
-1.1098
-1.11013
-1.10986
-1.11019
-1.10992
-1.11026
-1.10999
-1.11033
-1.11007
-1.11041
-1.11016
-1.11049
-1.11025
-1.11057
-1.11034
-1.11066
-1.11043
-1.11073
-1.11053
-1.11082
-1.11061
-1.11087
-1.11069
-1.11094
-1.11076
-1.11097
-1.11082
-1.11102
-1.11086
-1.11103
-1.11089
-1.11099
-1.11088
-1.11096
-1.11085
-1.11084
-1.11077
-1.11072
-1.11064
-1.11045
-1.1104
-1.1101
-1.11005
-1.10949
-1.10948
-1.10863
-1.10862
-1.10727
-1.10728
-1.10531
-1.10532
-1.10235
-1.10239
-1.09823
-1.09828
-1.09236
-1.09244
-1.08444
-1.08453
-1.07388
-1.07398
-1.06019
-1.06031
-1.04292
-1.04306
-1.02191
-1.02207
-0.996903
-0.997083
-0.967586
-0.967781
-0.934881
-0.935098
-0.898929
-0.899162
-0.860662
-0.860915
-0.820778
-0.821049
-0.780524
-0.780815
-0.74064
-0.740949
-0.701934
-0.702263
-0.665671
-0.666019
-0.632277
-0.632645
-0.601527
-0.601916
-0.574134
-0.574543
-0.550059
-0.550488
-0.528762
-0.529211
-0.510027
-0.510497
-0.493493
-0.493982
-0.479022
-0.479531
-0.466091
-0.466617
-0.454461
-0.455007
-0.443905
-0.444467
-0.434382
-0.434964
-0.425627
-0.426222
-0.417443
-0.418057
-0.410027
-0.410651
-0.402978
-0.40362
-0.3963
-0.396951
-0.389853
-0.390521
-0.383639
-0.384314
-0.377315
-0.378007
-0.370998
-0.371694
-0.364438
-0.365152
-0.357531
-0.358247
-0.350287
-0.351022
-0.342642
-0.343378
-0.334255
-0.335011
-0.325426
-0.32618
-0.315793
-0.316571
-0.305309
-0.306082
-0.293881
-0.29468
-0.28197
-0.282762
-0.269039
-0.269859
-0.255747
-0.256557
-0.24204
-0.242881
-0.228602
-0.229429
-0.215395
-0.216257
-0.203006
-0.203849
-0.191701
-0.192583
-0.181858
-0.182714
-0.173254
-0.174154
-0.166552
-0.167418
-0.160918
-0.161834
-0.15708
-0.157953
-0.154032
-0.154964
-0.15244
-0.153323
-0.151164
-0.152121
-0.150831
-0.152021
-0.151176
-0.152128
-0.152837
-0.15341
-0.154026
-0.154979
-0.158444
-0.158118
-0.160882
-0.161805
-0.169561
-0.167749
-0.173712
-0.174628
-0.187902
-0.184235
-0.194306
-0.195301
-0.215369
-0.209752
-0.22451
-0.225693
-0.253759
-0.246106
-0.266865
-0.268309
-1.32194
-0.295713
-1.33409
-0.324496
-1.39295
-0.356936
-1.40642
-0.388751
-1.46718
-0.420855
-1.47839
-0.444592
-1.51865
-0.461388
-1.52036
-0.462992
-1.48185
-0.449993
-1.46619
-0.420531
-1.38266
-0.376223
-1.3579
-0.323687
-1.25795
-0.266638
-1.23418
-0.2107
-1.15082
-0.161722
-1.13574
-0.122088
-1.08303
-0.0922723
-1.07665
-0.0720632
-1.04774
-0.0581994
-1.0462
-0.0501489
-0.992719
-0.0439392
-1.02845
-0.040633
-0.952616
-0.0370277
-1.0156
-0.0348452
-0.99995
-0.0317389
-1.00534
-0.0296974
-0.99579
-0.026929
-0.995778
-0.024934
-0.980163
-0.0222604
-0.986582
-0.0203773
-0.959816
-0.0180166
-0.97841
-0.0164486
-0.94354
-0.0145416
-0.972007
-0.0134511
-0.94815
-0.012142
-0.967777
-0.0114737
-0.959711
-0.0105666
-0.964922
-0.0100854
-0.962414
-0.00931509
-0.962353
-0.00873825
-0.959761
-0.00789892
-0.959642
-0.00718969
-0.957028
-0.00630704
-0.95689
-0.00553735
-0.954464
-0.00470873
-0.954398
-0.00407811
-0.950087
-0.00348937
-0.95249
-0.00308473
-0.948754
-0.0027444
-0.95123
-0.0024954
-0.950238
-0.00222009
-0.950224
-0.0019773
-0.949293
-0.0017096
-0.949271
-0.00146481
-0.948422
-0.00120983
-0.948409
-0.000996246
-0.946622
-0.000818447
-0.947869
-0.000723136
-0.947179
-0.000678681
-0.94775
-0.000666758
-0.947751
-0.000664137
-0.94775
-0.00066401
-0.94775
-0.000664785
-0.947749
-0.000664797
-0.947749
-0.000665446
-0.947749
-0.000665749
-0.947748
-0.000666601
-0.947747
-0.000667522
-0.947745
-0.00067117
-0.947742
-0.000677778
-0.947736
-0.000673424
-0.947708
-0.000636483
)
;

boundaryField
{
    walls
    {
        type            zeroGradient;
    }
    inlet
    {
        type            cyclic;
    }
    outlet
    {
        type            cyclic;
    }
    sides
    {
        type            empty;
    }
}


// ************************************************************************* //
