/*--------------------------------*- C++ -*----------------------------------*\
| =========                 |                                                 |
| \\      /  F ield         | OpenFOAM: The Open Source CFD Toolbox           |
|  \\    /   O peration     | Version:  2012                                  |
|   \\  /    A nd           | Website:  www.openfoam.com                      |
|    \\/     M anipulation  |                                                 |
\*---------------------------------------------------------------------------*/
FoamFile
{
    version     2.0;
    format      ascii;
    class       volVectorField;
    location    "12000";
    object      U;
}
// * * * * * * * * * * * * * * * * * * * * * * * * * * * * * * * * * * * * * //

dimensions      [0 1 -1 0 0 0 0];


internalField   nonuniform List<vector> 
160
(
(0.0433138 -1.0033e-15 -1.3446e-16)
(0.0433138 -1.22443e-16 0)
(0.141574 -2.18675e-15 8.95302e-18)
(0.141574 -2.01134e-17 -6.04266e-17)
(0.265387 -2.1111e-15 5.51296e-17)
(0.265387 -1.85896e-16 -1.22977e-16)
(0.408837 -1.69354e-15 1.18328e-16)
(0.408837 -3.16391e-16 -2.02418e-16)
(0.539481 -1.6083e-15 1.70254e-16)
(0.539481 -4.65329e-16 -2.65206e-16)
(0.639145 -1.50338e-15 2.30944e-16)
(0.639145 -5.78798e-16 -1.85377e-16)
(0.715015 -1.35459e-15 2.97872e-16)
(0.715015 -6.79155e-16 -6.28401e-17)
(0.77501 -1.21367e-15 1.92118e-17)
(0.77501 -7.50173e-16 -1.68292e-16)
(0.823817 -1.08263e-15 -2.21041e-16)
(0.823817 -7.81205e-16 -2.80324e-16)
(0.864291 -9.38042e-16 -3.60794e-16)
(0.864291 -7.73945e-16 -3.58498e-16)
(0.89837 -8.06972e-16 -3.86861e-16)
(0.89837 -7.76163e-16 -3.68628e-16)
(0.927487 -7.03721e-16 -1.26153e-16)
(0.927487 -6.87112e-16 -7.66577e-17)
(0.952749 -6.0489e-16 4.61459e-16)
(0.952749 -5.46059e-16 4.18955e-16)
(0.975009 -5.95029e-16 1.29998e-15)
(0.975009 -5.98453e-16 1.33912e-15)
(0.994906 -4.7528e-16 1.88771e-15)
(0.994906 -4.98128e-16 1.85293e-15)
(1.01288 -5.19423e-16 3.0255e-15)
(1.01288 -5.1244e-16 3.09375e-15)
(1.02919 -6.22507e-16 3.88059e-15)
(1.02919 -6.22325e-16 3.83522e-15)
(1.04382 -1.27104e-16 3.11989e-15)
(1.04382 -1.40176e-16 3.06485e-15)
(1.05641 -5.19156e-16 3.32653e-15)
(1.05641 -5.1298e-16 3.37452e-15)
(1.06535 -4.13681e-16 7.43558e-16)
(1.06535 -4.01955e-16 5.95835e-16)
(0.0433138 -2.46508e-17 7.30302e-17)
(0.0433138 -1.98546e-17 1.53004e-16)
(0.141574 1.57176e-17 1.12986e-16)
(0.141574 2.79785e-17 6.2714e-16)
(0.265387 6.55222e-18 1.49337e-16)
(0.265387 2.96455e-17 7.13344e-16)
(0.408837 -7.96131e-18 1.5895e-16)
(0.408837 3.82306e-17 5.93111e-16)
(0.539481 -4.02399e-17 1.42666e-16)
(0.539481 3.67116e-17 2.065e-16)
(0.639145 -6.43086e-17 1.17239e-16)
(0.639145 4.67844e-17 1.08866e-17)
(0.715015 -9.68881e-17 8.69803e-17)
(0.715015 2.46038e-17 3.58446e-17)
(0.77501 -1.08714e-16 -8.92001e-19)
(0.77501 -1.80115e-17 2.83256e-17)
(0.823817 -1.15445e-16 -1.43622e-16)
(0.823817 -4.65189e-17 2.37932e-19)
(0.864291 -1.6384e-16 -1.27973e-16)
(0.864291 -1.1026e-16 -2.83382e-17)
(0.89837 -2.23524e-16 -1.10792e-16)
(0.89837 -2.18808e-16 -8.15525e-17)
(0.927487 -2.60518e-16 -1.17484e-16)
(0.927487 -2.69139e-16 -1.41753e-16)
(0.952749 -2.89649e-16 -3.7935e-16)
(0.952749 -3.04194e-16 -3.28774e-16)
(0.975009 -3.61239e-16 -1.04808e-15)
(0.975009 -3.45453e-16 -1.09227e-15)
(0.994906 -3.31007e-16 -1.71761e-15)
(0.994906 -3.02362e-16 -1.76843e-15)
(1.01288 -5.84723e-16 -2.93599e-15)
(1.01288 -5.09646e-16 -2.93322e-15)
(1.02919 -6.26133e-16 -3.68698e-15)
(1.02919 -5.78341e-16 -3.90477e-15)
(1.04382 -5.39759e-17 -2.69239e-15)
(1.04382 -5.05175e-17 -2.85348e-15)
(1.05641 -5.29184e-16 -3.34161e-15)
(1.05641 -5.37708e-16 -3.39612e-15)
(1.06535 -4.30077e-16 -6.94616e-16)
(1.06535 -4.71229e-16 -6.63916e-16)
(1.06535 -3.19719e-16 1.42443e-15)
(1.06535 -2.32881e-16 9.57602e-16)
(1.05641 -1.17261e-16 2.28835e-15)
(1.05641 1.05106e-17 2.08507e-15)
(1.04382 6.31775e-17 1.27125e-15)
(1.04382 4.29475e-17 1.18221e-15)
(1.02919 -1.59223e-16 3.84433e-16)
(1.02919 -2.55325e-16 6.87337e-16)
(1.01288 -2.82066e-16 1.13015e-15)
(1.01288 -2.41636e-16 6.82182e-16)
(0.994906 -8.8976e-17 3.93475e-16)
(0.994906 -8.28675e-17 4.05273e-16)
(0.975009 -4.65804e-17 1.96171e-16)
(0.975009 -1.38831e-16 2.38983e-16)
(0.952749 -4.53361e-17 7.36211e-17)
(0.952749 -4.79923e-17 9.9999e-17)
(0.927487 -8.52382e-18 6.22734e-17)
(0.927487 8.63793e-18 6.32788e-17)
(0.89837 -1.16866e-17 8.80902e-17)
(0.89837 -1.02425e-17 7.95241e-17)
(0.864291 -8.58758e-18 1.27202e-17)
(0.864291 5.42276e-18 3.284e-17)
(0.823817 -5.22132e-18 1.63408e-17)
(0.823817 2.49005e-17 2.64142e-17)
(0.77501 1.04537e-17 2.13982e-17)
(0.77501 -6.83532e-18 8.66968e-18)
(0.715015 2.33975e-17 2.06379e-17)
(0.715015 -1.2514e-18 9.17115e-18)
(0.639145 8.38103e-18 1.23976e-17)
(0.639145 3.49534e-18 9.19624e-18)
(0.539481 -1.81703e-18 5.93644e-18)
(0.539481 -1.39278e-18 2.61481e-17)
(0.408837 9.42848e-18 7.17213e-18)
(0.408837 2.66623e-18 2.80937e-17)
(0.265387 1.41405e-18 1.81561e-18)
(0.265387 1.90904e-18 2.5471e-17)
(0.141574 8.00313e-19 4.25482e-19)
(0.141574 4.38178e-20 1.93274e-17)
(0.0433138 1.3987e-19 9.57059e-20)
(0.0433138 -1.01275e-19 3.31314e-18)
(1.06535 -3.28513e-16 -1.76256e-15)
(1.06535 -3.35512e-16 -1.17839e-15)
(1.05641 1.09618e-17 -2.31277e-15)
(1.05641 -1.2877e-16 -2.43806e-15)
(1.04382 9.79309e-17 -1.65298e-15)
(1.04382 1.02579e-16 -8.70914e-16)
(1.02919 -2.5115e-16 -6.27829e-16)
(1.02919 -2.49998e-16 -5.24454e-16)
(1.01288 -2.48421e-16 -1.04215e-15)
(1.01288 -2.42896e-16 -6.65813e-16)
(0.994906 -6.09113e-17 -3.07983e-16)
(0.994906 -4.68137e-17 -3.40263e-16)
(0.975009 -2.67546e-17 -1.98267e-16)
(0.975009 -5.63894e-17 -1.75357e-16)
(0.952749 -2.68527e-17 -8.24183e-17)
(0.952749 -2.27932e-17 -1.41863e-16)
(0.927487 -2.09134e-17 -5.58418e-17)
(0.927487 -4.22153e-17 -5.30718e-17)
(0.89837 -2.91337e-17 -5.27226e-17)
(0.89837 -2.77793e-17 -5.09887e-17)
(0.864291 -2.09002e-17 -5.96465e-17)
(0.864291 -2.65489e-17 -2.49897e-17)
(0.823817 -3.30442e-18 -3.09311e-17)
(0.823817 -1.50337e-17 -2.17812e-17)
(0.77501 3.98793e-18 -3.36656e-17)
(0.77501 -1.97056e-17 -1.12413e-17)
(0.715015 -2.28162e-17 -1.38709e-17)
(0.715015 -1.32403e-17 -1.81649e-17)
(0.639145 -2.35521e-17 -1.54108e-17)
(0.639145 6.6918e-18 -1.40061e-17)
(0.539481 -1.54431e-17 -2.61925e-17)
(0.539481 -1.12029e-17 -1.24838e-17)
(0.408837 -2.1975e-18 -2.82513e-17)
(0.408837 -1.77172e-18 -1.36482e-17)
(0.265387 -5.62445e-19 -2.64343e-17)
(0.265387 -6.8984e-19 -1.38724e-17)
(0.141574 -1.72113e-19 -2.02651e-17)
(0.141574 -4.91801e-19 -1.07972e-17)
(0.0433138 2.93214e-19 -2.88245e-18)
(0.0433138 -2.70472e-20 -6.27115e-19)
)
;

boundaryField
{
    walls
    {
        type            fixedValue;
        value           uniform (0 0 0);
    }
    inlet
    {
        type            cyclic;
    }
    outlet
    {
        type            cyclic;
    }
    sides
    {
        type            empty;
    }
}


// ************************************************************************* //
