/*--------------------------------*- C++ -*----------------------------------*\
| =========                 |                                                 |
| \\      /  F ield         | OpenFOAM: The Open Source CFD Toolbox           |
|  \\    /   O peration     | Version:  2012                                  |
|   \\  /    A nd           | Website:  www.openfoam.com                      |
|    \\/     M anipulation  |                                                 |
\*---------------------------------------------------------------------------*/
FoamFile
{
    version     2.0;
    format      ascii;
    class       volTensorField;
    location    "17197.8";
    object      grad(U);
}
// * * * * * * * * * * * * * * * * * * * * * * * * * * * * * * * * * * * * * //

dimensions      [0 0 -1 0 0 0 0];


internalField   nonuniform List<tensor> 
2560
(
(0 -3.48782e-23 -7.23142e-18 1564.97 0.000101962 -0.000195572 2.26634 6.79654e-08 -3.22017e-07)
(-2.9258e-16 4.14622e-18 -6.97565e-23 1564.97 3.38813e-21 -5.42354e-07 2.26634 6.80795e-08 3.12521e-07)
(0 6.09496e-19 -4.77614e-19 1563.55 8.46715e-22 5.00882e-25 6.82789 0 -5.29396e-23)
(0 0 -6.87567e-23 1563.55 3.5611e-05 -1.42838e-06 6.82789 2.92223e-07 4.48292e-07)
(-2.88505e-16 0 -6.77712e-23 1562.07 -7.55211e-05 9.64203e-05 9.37262 1.89592e-07 -3.30715e-07)
(0 0 1.35542e-22 1562.07 -4.55244e-05 -1.62405e-06 9.37262 1.35656e-07 3.20764e-07)
(9.21299e-16 1.67e-23 -3.33999e-23 1560.51 -4.65639e-05 8.1136e-05 9.49917 -8.56103e-08 -1.6961e-07)
(0 -1.67e-23 3.33999e-23 1560.51 -2.04446e-05 -1.29616e-06 9.49917 -6.18078e-08 1.64286e-07)
(0 0 -8.23031e-23 1558.88 8.18099e-06 4.10625e-05 9.62703 -1.06553e-07 -8.20387e-08)
(4.41861e-15 1.47037e-23 4.93819e-23 1558.88 4.79349e-21 -1.10405e-06 9.62703 -1.32349e-23 7.91896e-08)
(2.21274e-15 8.11235e-24 -1.62247e-23 1557.21 1.38109e-05 1.96618e-05 9.75648 -4.55127e-08 -4.06127e-08)
(1.77019e-14 -1.62247e-23 1.62247e-23 1557.21 1.29838e-05 -1.17356e-06 9.75648 -4.42908e-08 3.88652e-08)
(-2.8715e-15 7.99608e-24 0 1555.54 7.44949e-06 1.12569e-05 9.88779 -2.35827e-08 -1.73355e-08)
(1.1486e-14 -1.99902e-23 7.99608e-24 1555.54 6.40336e-06 -1.33295e-06 9.88779 -2.22099e-08 1.61231e-08)
(-3.53909e-15 1.15564e-19 0 1553.91 1.18082e-06 8.01181e-06 10.0212 -1.83828e-09 -7.58776e-10)
(9.92502e-15 1.23148e-23 0 1553.91 3.19383e-06 1.14423e-06 10.0212 -2.9601e-10 -6.75121e-16)
(4.2156e-15 1.23811e-23 -9.71064e-25 1552.35 2.40589e-06 6.83311e-06 10.1571 -1.20047e-09 -1.79882e-16)
(0 0 0 1552.35 -1.43185e-40 6.73976e-06 10.1571 3.50883e-10 -1.33276e-16)
(0 8.74255e-20 0 1550.9 -8.47137e-22 6.60818e-06 10.2955 0 3.78237e-16)
(-8.22182e-15 1.14858e-23 0 1550.9 1.59121e-06 6.54554e-06 10.2955 1.35869e-08 3.92141e-16)
(-5.59598e-15 3.74792e-23 0 1549.57 6.27358e-07 6.90529e-06 10.4367 8.93235e-09 9.63521e-16)
(0 5.87747e-39 0 1549.57 5.02926e-22 6.86096e-06 10.4367 1.23956e-08 9.59579e-16)
(6.30017e-15 5.50753e-23 0 1548.38 1.13801e-06 7.07806e-06 10.5808 6.49651e-09 1.62217e-15)
(0 -4.83551e-23 0 1548.38 7.67121e-07 7.50321e-06 10.5808 1.63529e-08 1.60875e-15)
(0 1.09208e-20 0 1547.34 4.52173e-07 5.22704e-06 10.7279 1.55667e-09 -1.56482e-09)
(0 -2.93305e-23 0 1547.34 2.38808e-07 6.45931e-06 10.7279 1.88719e-08 1.98635e-09)
(-7.73748e-15 -2.33723e-23 0 1546.45 4.94004e-07 3.61111e-06 10.8782 5.37249e-09 -5.00766e-09)
(3.09499e-14 -1.32353e-38 -1.44551e-23 1546.45 7.62963e-22 2.19141e-06 10.8782 1.92019e-08 4.71933e-09)
(0 1.01504e-20 0 1545.7 5.22578e-23 3.93366e-06 11.0316 3.30872e-24 4.30831e-12)
(0 4.98676e-23 0 1545.7 -3.38528e-08 2.59219e-06 11.0316 2.12892e-08 3.86123e-14)
(-9.21478e-15 -1.67739e-24 0 1545.09 3.0962e-07 4.26554e-06 11.188 6.24211e-09 3.26757e-12)
(3.68591e-14 0 0 1545.09 7.74241e-22 4.26552e-06 11.188 1.99841e-08 -2.50781e-14)
(0 -4.84484e-23 0 1544.59 5.88543e-07 4.61471e-06 11.3474 2.31589e-09 4.37834e-12)
(-3.98759e-14 4.84484e-23 0 1544.59 3.34364e-07 4.61469e-06 11.3474 2.25934e-08 2.61721e-14)
(0 0 0 1544.19 0 4.97645e-06 11.5097 0 3.32854e-12)
(-4.29354e-14 5.1165e-23 0 1544.19 -3.87941e-07 4.97643e-06 11.5097 2.33467e-08 -2.85352e-14)
(0 2.01727e-23 2.68969e-23 1543.83 3.07544e-08 5.34431e-06 11.6745 5.10761e-09 4.46874e-12)
(1.44402e-14 2.96662e-20 0 1543.83 -7.67624e-22 5.34429e-06 11.6745 2.05885e-08 2.13442e-14)
(1.22965e-14 -3.40399e-23 0 1543.49 5.78412e-07 5.73121e-06 11.8415 3.6942e-09 3.41199e-12)
(-4.91861e-14 4.97088e-23 0 1543.49 3.59168e-07 5.7312e-06 11.8415 2.27424e-08 -2.64441e-14)
(0 8.14938e-21 0 1543.11 1.65735e-08 6.14189e-06 12.0106 6.40416e-11 4.549e-12)
(0 4.89964e-23 0 1543.11 3.22454e-08 6.14187e-06 12.0106 2.4157e-08 2.91634e-14)
(-2.77326e-14 1.64643e-36 0 1542.64 -7.68279e-25 6.55665e-06 12.1811 3.30872e-24 3.49548e-12)
(1.38281e-14 -2.89765e-23 0 1542.64 -9.45487e-07 6.55661e-06 12.1811 2.38043e-08 -3.47725e-14)
(2.61639e-14 7.93366e-23 5.07754e-23 1542.03 5.03386e-07 6.98098e-06 12.3525 1.58507e-08 4.69317e-12)
(0 4.85809e-24 0 1542.03 -3.03119e-39 6.98095e-06 12.3525 1.75031e-08 -8.44685e-15)
(2.68691e-14 6.64273e-20 0 1541.2 9.52028e-22 7.43841e-06 12.5244 0 3.58911e-12)
(-8.91059e-14 5.00477e-23 0 1541.2 4.49082e-07 7.4384e-06 12.5244 2.71244e-08 -3.23126e-14)
(1.64044e-14 -4.78978e-23 0 1540.08 -3.89675e-07 7.91536e-06 12.696 9.83429e-09 4.77339e-12)
(0 7.86621e-20 0 1540.08 0 7.91533e-06 12.696 2.18051e-08 2.12787e-14)
(-3.45234e-14 1.46937e-39 0 1538.6 -9.40395e-38 8.39013e-06 12.8665 -1.24517e-39 3.6902e-12)
(0 6.68571e-23 0 1538.6 -8.99495e-07 8.39009e-06 12.8665 2.32017e-08 -4.25521e-14)
(5.43933e-14 7.93782e-23 0 1536.68 8.11225e-07 8.88401e-06 13.0352 1.33903e-08 4.94135e-12)
(1.45049e-13 4.17282e-24 0 1536.68 4.95147e-22 8.88398e-06 13.0352 1.50342e-08 -2.25838e-14)
(0 1.36724e-20 -9.4479e-23 1534.23 -9.00936e-22 9.41742e-06 13.2012 -3.30872e-24 3.80933e-12)
(7.60503e-14 -4.72395e-23 0 1534.23 2.40238e-07 9.4174e-06 13.2012 2.94208e-08 -5.49258e-14)
(1.99061e-14 -2.91015e-23 0 1531.17 -5.54919e-07 9.96782e-06 13.3636 1.60335e-08 5.04263e-12)
(0 2.45222e-24 -9.31249e-23 1531.17 1.0536e-39 9.96779e-06 13.3636 1.76701e-08 3.11343e-15)
(-4.16229e-14 1.46937e-39 0 1527.4 0 1.05189e-05 13.5212 0 3.91994e-12)
(-1.66492e-13 0 0 1527.4 -7.29659e-07 1.05188e-05 13.5212 2.39568e-08 -6.21578e-14)
(2.68446e-14 -2.9687e-23 0 1522.85 6.73333e-07 1.10934e-05 13.6731 1.02576e-08 5.22395e-12)
(-1.35488e-13 1.64966e-24 0 1522.85 3.69531e-22 1.10933e-05 13.6731 1.18871e-08 -4.06471e-14)
(4.7877e-14 2.85565e-20 0 1517.41 -9.63348e-25 1.17108e-05 13.818 0 4.05645e-12)
(-1.38506e-13 5.57362e-23 0 1517.41 2.92505e-07 1.17108e-05 13.818 2.93921e-08 -8.29972e-14)
(-2.35954e-14 6.31779e-23 0 1510.99 -9.07559e-07 1.23435e-05 13.9549 1.347e-08 5.34617e-12)
(1.17984e-13 0 0 1510.99 -4.53416e-36 1.23435e-05 13.9549 1.50905e-08 -2.11125e-14)
(-2.45477e-14 1.93222e-37 0 1503.51 -6.51293e-25 1.29798e-05 14.0823 3.30872e-24 4.17297e-12)
(0 -1.35375e-23 0 1503.51 -3.66592e-07 1.29798e-05 14.0823 2.03889e-08 -8.42592e-14)
(-2.58476e-15 -5.33738e-23 0 1494.88 7.28242e-07 1.36515e-05 14.1991 1.07621e-08 5.54034e-12)
(-2.29239e-14 1.71717e-24 0 1494.88 0 1.36514e-05 14.1991 1.23735e-08 -6.45454e-14)
(-2.64794e-14 4.8109e-21 0 1485.01 -2.60314e-24 1.43667e-05 14.304 0 4.33365e-12)
(-1.51108e-13 2.63044e-23 -1.68348e-22 1485.01 -4.53881e-09 1.43667e-05 14.304 2.66158e-08 -1.19592e-13)
(2.74592e-14 3.37056e-23 0 1473.82 -8.71376e-07 1.50957e-05 14.3956 1.13467e-08 5.68602e-12)
(0 1.79684e-24 0 1473.82 2.11758e-22 1.50957e-05 14.3956 1.29476e-08 -5.40477e-14)
(2.84474e-14 4.39052e-24 0 1461.23 -4.49437e-22 1.58318e-05 14.4724 0 4.46507e-12)
(0 -4.60005e-23 0 1461.23 -3.74768e-07 1.58318e-05 14.4724 1.74134e-08 -1.23906e-13)
(1.38321e-14 -3.27464e-23 0 1447.16 6.74792e-07 1.66064e-05 14.5332 8.41343e-09 5.89911e-12)
(-4.32753e-14 1.38831e-24 0 1447.16 2.77068e-22 1.66064e-05 14.5332 1.00038e-08 -1.03839e-13)
(4.2655e-14 2.60998e-20 0 1431.55 6.35275e-22 1.74316e-05 14.5766 -3.30872e-24 4.63689e-12)
(-4.2655e-14 5.21398e-23 0 1431.55 1.4523e-07 1.74316e-05 14.5766 2.34522e-08 -1.60987e-13)
(-3.14537e-14 -1.59072e-23 0 1414.33 -7.36213e-07 1.82797e-05 14.6012 1.05992e-08 6.05725e-12)
(8.37711e-14 3.6709e-24 -3.1325e-22 1414.33 1.05879e-22 1.82797e-05 14.6012 1.21784e-08 -9.21386e-14)
(0 6.01853e-36 0 1395.44 0 1.9129e-05 14.6055 0 4.7893e-12)
(1.29865e-13 -6.27169e-23 0 1395.44 -9.05908e-07 1.9129e-05 14.6055 1.50479e-08 -1.74876e-13)
(3.34821e-14 -4.16083e-23 0 1374.85 1.3331e-06 2.00237e-05 14.5883 1.93624e-09 6.29062e-12)
(-1.33928e-13 0 0 1374.85 2.11758e-22 2.00237e-05 14.5883 3.50437e-09 -1.49348e-13)
(3.44999e-14 7.4823e-24 0 1352.49 -6.37145e-22 2.09643e-05 14.5483 3.30872e-24 4.9839e-12)
(0 -2.81225e-23 0 1352.49 -9.18843e-07 2.09643e-05 14.5483 2.85179e-08 -2.24775e-13)
(-7.52029e-14 1.73246e-23 0 1328.36 2.23763e-07 2.19278e-05 14.4843 -7.42467e-09 6.48604e-12)
(3.96846e-14 0 0 1328.36 1.49045e-22 2.19277e-05 14.4843 4.64826e-39 -1.60877e-13)
(3.65357e-14 1.1907e-35 0 1302.41 -1.88079e-37 2.29077e-05 14.3949 0 5.16592e-12)
(1.07027e-13 1.36611e-23 -2.91436e-22 1302.41 -1.18394e-06 2.29076e-05 14.3949 3.04773e-08 -2.56738e-13)
(0 2.24421e-23 0 1274.63 9.97481e-07 2.39213e-05 14.2791 -2.01562e-08 6.76078e-12)
(1.50203e-13 0 0 1274.63 8.47033e-22 2.39213e-05 14.2791 -1.15881e-38 -2.45913e-13)
(-3.85613e-14 3.4433e-20 0 1245.02 6.35275e-22 2.50242e-05 14.1359 6.61744e-24 5.37802e-12)
(0 -1.76963e-23 0 1245.02 1.22987e-06 2.50242e-05 14.1359 4.14454e-08 -3.13842e-13)
(-3.95661e-14 0 0 1213.58 -4.38592e-06 2.60913e-05 13.9641 -5.81823e-09 6.93179e-12)
(0 -1.63525e-23 0 1213.58 -2.21765e-06 2.60913e-05 13.9641 -4.28593e-09 -2.18658e-13)
(3.69211e-14 2.14909e-23 5.50167e-22 1180.32 -5.29873e-07 2.7073e-05 13.7629 -1.16675e-08 5.41217e-12)
(0 -3.22363e-23 0 1180.32 -6.94445e-07 2.7073e-05 13.7629 -4.07853e-09 -1.8673e-13)
(-7.79419e-14 1.90646e-23 0 1145.28 1.05833e-05 2.83243e-05 13.5319 -1.31387e-08 7.17573e-12)
(0 5.87747e-39 0 1145.28 -2.35177e-39 2.83243e-05 13.5319 0 -2.59801e-13)
(0 1.58543e-23 -5.34509e-22 1108.49 7.92714e-24 2.95365e-05 13.27 0 5.9545e-12)
(-2.05971e-13 6.68137e-23 0 1108.49 -1.35407e-05 2.95364e-05 13.27 1.15753e-07 -5.65449e-13)
(-4.34868e-14 6.58561e-23 0 1069.97 4.01557e-06 3.05465e-05 12.9766 -1.78704e-07 7.67212e-12)
(1.73947e-13 0 0 1069.97 7.59871e-21 3.05465e-05 12.9766 -9.58976e-35 -5.4655e-13)
(0 1.55324e-19 0 1029.81 8.23873e-22 3.18491e-05 12.6518 0 6.14746e-12)
(0 6.49122e-23 0 1029.81 6.80792e-06 3.18491e-05 12.6518 1.68382e-07 -5.90665e-13)
(2.33402e-14 -3.19909e-23 0 988.062 -1.33026e-05 3.30078e-05 12.2949 -9.71293e-08 7.54375e-12)
(1.12739e-13 0 0 988.062 3.38813e-21 3.30078e-05 12.2949 0 -2.05219e-13)
(9.25337e-14 3.30875e-23 0 944.796 1.33069e-05 3.41804e-05 11.906 2.22497e-10 6.10459e-12)
(1.85067e-13 -3.30875e-23 0 944.796 1.30996e-05 3.41803e-05 11.906 1.70763e-09 -3.79863e-13)
(0 9.96553e-24 0 900.105 -4.98276e-24 3.54133e-05 11.4851 0 8.19909e-12)
(0 -3.10805e-23 0 900.105 -1.11517e-05 3.54132e-05 11.4851 7.32917e-08 -6.44036e-13)
(-4.80111e-14 3.0635e-23 0 854.09 3.55231e-06 3.64491e-05 11.0325 -1.45417e-07 6.66243e-12)
(0 -4.34933e-37 0 854.09 6.36274e-21 3.64491e-05 11.0325 -1.70058e-38 -7.69745e-13)
(-9.76876e-14 0 0 806.861 -2.97299e-21 3.76216e-05 10.5489 0 8.37315e-12)
(1.95375e-13 6.03918e-23 0 806.861 1.97738e-06 3.76215e-05 10.5489 1.22179e-07 -6.03052e-13)
(-4.96471e-14 0 0 758.541 -2.08674e-06 3.87748e-05 10.0347 -1.21152e-07 6.8203e-12)
(0 0 0 758.541 8.30527e-24 3.87747e-05 10.0347 -2.64698e-23 -7.66798e-13)
(-1.13419e-13 2.25183e-20 0 709.249 1.9189e-21 3.98703e-05 9.4908 0 8.84546e-12)
(2.64675e-13 -2.93365e-23 0 709.249 8.92699e-07 3.98703e-05 9.4908 9.56457e-08 -8.66604e-13)
(-5.11569e-14 -4.33741e-23 0 659.119 -9.39143e-06 4.06863e-05 8.91809 -1.10345e-07 6.94417e-12)
(-6.20968e-14 4.33741e-23 -9.25314e-22 659.119 -3.38058e-21 4.06863e-05 8.91809 0 -7.40676e-13)
(-1.03718e-13 -5.70033e-23 0 608.303 1.19038e-05 4.15148e-05 8.31811 -3.66169e-08 8.98666e-12)
(-2.07436e-13 5.70033e-23 0 608.303 1.16707e-05 4.15147e-05 8.31811 -3.51705e-08 -8.06837e-13)
(-1.05046e-13 0 0 556.966 -3.94403e-24 4.25728e-05 7.69246 0 7.44448e-12)
(4.20184e-13 -4.9163e-23 0 556.966 -1.72368e-06 4.25728e-05 7.69246 5.8275e-08 -1.10506e-12)
(-9.99762e-14 -8.30715e-23 0 505.258 -1.4436e-05 4.3089e-05 7.04235 -6.12278e-08 9.01173e-12)
(-2.72053e-13 9.69167e-23 -8.86096e-22 505.258 -1.46857e-05 4.30889e-05 7.04235 -5.97965e-08 -6.47313e-13)
(-5.3729e-14 8.18808e-23 -8.73396e-22 453.345 1.6987e-05 4.35915e-05 6.37018 -1.55369e-07 7.75286e-12)
(2.14916e-13 1.92593e-34 0 453.345 3.36677e-21 4.35914e-05 6.37018 -3.48789e-34 -1.29939e-12)
(5.4267e-14 5.31707e-23 0 401.419 -5.0822e-21 4.40503e-05 5.67815 0 9.68013e-12)
(0 -2.69024e-23 0 401.419 -1.51562e-05 4.40502e-05 5.67815 1.9298e-07 -1.146e-12)
(0 0 0 349.656 1.46301e-05 4.44058e-05 4.96844 -3.48322e-07 7.98351e-12)
(2.19038e-13 0 0 349.656 6.77626e-21 4.44057e-05 4.96844 -2.90924e-34 -1.43487e-12)
(0 9.62965e-35 8.36377e-22 298.235 5.86362e-23 4.45843e-05 4.24369 0 1.01541e-11)
(2.20819e-13 3.6759e-23 0 298.235 -1.70325e-05 4.45842e-05 4.24369 3.57692e-07 -1.47393e-12)
(-5.53239e-14 1.03049e-22 -1.64878e-21 247.344 8.8145e-06 4.44127e-05 3.50665 -3.5634e-07 8.54576e-12)
(2.22406e-13 0 0 247.344 7.64039e-38 4.44126e-05 3.50665 1.05879e-22 -1.93008e-12)
(0 9.91779e-21 0 197.178 -9.97865e-21 4.44262e-05 2.76053 0 1.04463e-11)
(0 0 0 197.178 1.61227e-08 4.44262e-05 2.76053 3.65712e-07 -1.64781e-12)
(-1.12489e-13 8.69368e-23 0 147.918 -8.04481e-06 4.40998e-05 2.00801 -3.64918e-07 8.70797e-12)
(0 0 0 147.918 -1.19524e-20 4.40998e-05 2.00801 1.05879e-22 -2.05412e-12)
(0 3.27149e-19 0 99.7467 8.40638e-21 4.37523e-05 1.25261 0 1.05395e-11)
(2.25954e-13 4.88425e-23 0 99.7467 9.40963e-06 4.37523e-05 1.25261 3.74137e-07 -1.6536e-12)
(0 0 0 52.8503 -9.74608e-06 4.33378e-05 0.497612 -3.73997e-07 8.95394e-12)
(2.26721e-13 -9.40395e-38 0 52.8503 8.39596e-21 4.33378e-05 0.497612 1.23858e-37 -2.28985e-12)
(6.48286e-14 1.27643e-19 0 0.00881872 -5.0822e-21 4.28187e-05 7.43038e-05 -5.29396e-23 1.08633e-11)
(0 0 0 0.00881833 7.47128e-06 4.28186e-05 7.43005e-05 3.11309e-07 -1.91212e-12)
(2.76644e-13 -5.09748e-24 0 -29.7014 -1.20554e-05 4.2123e-05 0.253894 -3.83579e-07 9.40206e-12)
(-4.39826e-13 8.00509e-19 0 -29.7014 0 4.2123e-05 0.253894 -5.29396e-23 -2.74004e-12)
(0 4.65465e-19 2.98061e-21 -78.5917 -3.07296e-23 4.1518e-05 0.998644 -1.32349e-23 1.09663e-11)
(0 -4.65721e-23 0 -78.5917 1.43163e-05 4.1518e-05 0.998644 1.1196e-07 -1.95625e-12)
(9.85793e-14 0 2.93789e-21 -118.813 -1.49123e-05 4.09131e-05 1.73301 -1.75351e-07 9.17383e-12)
(-9.85793e-14 0 0 -118.813 1.71823e-21 4.0913e-05 1.73301 2.95905e-37 -2.51352e-12)
(-6.35487e-14 -2.26233e-23 1.44789e-21 -157.022 1.37618e-05 4.0311e-05 2.45376 -1.51884e-07 1.09419e-11)
(0 5.18806e-19 0 -157.022 5.12274e-06 4.03109e-05 2.45376 -4.57284e-08 -1.89435e-12)
(-1.03636e-13 -2.93874e-37 0 -193.117 -2.12908e-21 3.97254e-05 3.15799 -5.97383e-39 1.02113e-11)
(4.78869e-14 3.34486e-23 0 -193.117 -1.48024e-05 3.97253e-05 3.15799 7.03162e-08 -3.56712e-12)
(5.53874e-14 -2.31954e-24 0 -227.008 1.08123e-05 3.90727e-05 3.84272 -4.05911e-07 1.13144e-11)
(-3.15951e-13 2.33978e-22 -2.81337e-21 -227.008 1.81105e-21 3.90727e-05 3.84272 -1.05879e-22 -2.2301e-12)
(0 3.7974e-23 0 -258.614 -3.35016e-21 3.8736e-05 4.5051 -5.29396e-23 1.07587e-11)
(-2.19932e-13 0 0 -258.614 -4.48091e-06 3.8736e-05 4.5051 2.74728e-07 -4.11876e-12)
(-5.45376e-14 1.36355e-23 0 -287.888 -3.33855e-06 3.81956e-05 5.14234 -4.16033e-07 1.11997e-11)
(4.36301e-13 0 -2.7333e-21 -287.888 4.23516e-22 3.81956e-05 5.14234 -2.98479e-35 -2.08943e-12)
(5.40538e-14 2.64975e-19 0 -314.798 0 3.78449e-05 5.7525 2.64698e-23 1.10006e-11)
(2.16215e-13 4.20958e-23 0 -314.798 5.83418e-06 3.78449e-05 5.7525 2.19542e-07 -4.36339e-12)
(0 0 0 -339.319 -1.92553e-06 3.77405e-05 6.33326 -4.0949e-07 1.09218e-11)
(0 8.81621e-37 0 -339.319 6.35275e-21 3.77404e-05 6.33326 0 -1.75808e-12)
(-5.29799e-14 0 -2.61745e-21 -361.461 2.59173e-23 3.75584e-05 6.88276 0 1.1772e-11)
(2.1192e-13 -1.22693e-22 0 -361.461 -2.45352e-06 3.75584e-05 6.88276 1.87698e-07 -5.10153e-12)
(-5.23947e-14 3.79852e-24 0 -381.249 1.82506e-06 3.74399e-05 7.39979 -4.36877e-07 1.07389e-11)
(-2.09579e-13 2.57209e-22 0 -381.249 6.43023e-23 3.74398e-05 7.39979 0 -1.54891e-12)
(5.17806e-14 6.37583e-23 0 -398.719 -2.99649e-21 3.73857e-05 7.88321 2.64698e-23 1.26018e-11)
(2.07122e-13 -3.97338e-23 0 -398.719 -2.22182e-06 3.73857e-05 7.88321 2.30571e-07 -5.92414e-12)
(-5.11401e-14 9.66241e-24 0 -413.919 -4.8868e-07 3.72928e-05 8.33206 -4.47444e-07 1.04275e-11)
(2.04561e-13 -8.93376e-37 0 -413.919 6.95379e-21 3.72927e-05 8.33206 -4.5997e-38 -1.19943e-12)
(-5.04759e-14 2.35099e-37 0 -426.907 -1.66259e-21 3.74919e-05 8.74571 0 1.35407e-11)
(0 0 0 -426.907 5.85112e-06 3.7492e-05 8.74571 2.2761e-07 -6.82969e-12)
(-4.97904e-14 0 0 -437.761 -6.18359e-06 3.77358e-05 9.12367 -4.01764e-07 9.48087e-12)
(0 -7.52316e-37 0 -437.761 5.98489e-21 3.77357e-05 9.12367 5.29396e-23 -2.48441e-13)
(-4.9086e-14 4.2431e-20 -2.40028e-21 -446.574 -1.38606e-23 3.79007e-05 9.46609 1.32349e-23 1.48443e-11)
(1.96344e-13 -7.50087e-23 0 -446.574 3.0814e-06 3.79008e-05 9.46609 1.0055e-07 -8.12922e-12)
(4.83652e-14 7.39336e-23 0 -453.444 -5.82263e-06 3.79817e-05 9.77333 -3.39438e-07 8.6615e-12)
(0 1.88079e-37 0 -453.444 -8.00014e-22 3.79816e-05 9.77333 -5.29396e-23 6.01867e-13)
(0 2.72252e-19 0 -458.467 1.69407e-21 3.83144e-05 10.0458 -2.61164e-08 1.61261e-11)
(0 -5.46555e-23 0 -458.467 1.06942e-05 3.83145e-05 10.0458 -2.55366e-08 -9.36729e-12)
(-4.68837e-14 3.59147e-23 0 -461.752 -7.72311e-06 3.88048e-05 10.284 -1.0243e-07 7.13122e-12)
(0 -5.38721e-23 0 -461.752 -8.13794e-06 3.88046e-05 10.284 -1.01899e-07 2.10672e-12)
(7.60209e-14 1.062e-22 0 -463.42 -3.1995e-06 3.88057e-05 10.4889 -2.04591e-07 1.82688e-11)
(2.92998e-13 -4.81482e-35 0 -463.42 -2.5411e-21 3.88059e-05 10.4889 -2.64698e-23 -1.15296e-11)
(0 3.48926e-23 -2.23313e-21 -463.583 1.15126e-05 3.91892e-05 10.6619 -1.76962e-07 4.79372e-12)
(1.81454e-13 -2.33461e-19 0 -463.583 6.19516e-06 3.91889e-05 10.6619 -7.17116e-08 4.42427e-12)
(-8.15229e-14 8.08828e-35 -2.20112e-21 -462.352 6.80816e-22 3.95381e-05 10.8038 0 2.13352e-11)
(-1.78377e-13 1.28972e-22 0 -462.352 -1.21788e-05 3.95383e-05 10.8038 5.86798e-08 -1.4591e-11)
(-8.02206e-14 -1.35598e-22 2.16957e-21 -459.848 9.93559e-06 3.97833e-05 10.916 -4.66066e-07 2.27115e-12)
(-1.75285e-13 1.939e-22 0 -459.848 5.68329e-21 3.9783e-05 10.916 5.29396e-23 6.86704e-12)
(0 4.14352e-23 0 -456.189 -3.30526e-21 4.02812e-05 11.0001 0 2.5149e-11)
(-7.17554e-14 0 -4.27696e-21 -456.189 -4.39563e-06 4.02815e-05 11.0001 2.98854e-07 -1.84601e-11)
(0 0 0 -451.489 -4.29325e-06 4.03383e-05 11.0575 -5.0421e-07 -1.68268e-12)
(1.69084e-13 2.18617e-19 -4.21566e-21 -451.489 6.61478e-21 4.03379e-05 11.0575 0 1.07634e-11)
(-2.82163e-14 7.57559e-20 -4.15524e-21 -445.86 -2.5411e-21 4.04932e-05 11.0901 -2.64698e-23 2.96097e-11)
(0 1.29851e-22 0 -445.86 6.82939e-06 4.04936e-05 11.0901 1.98848e-07 -2.29358e-11)
(0 2.5598e-22 0 -439.404 -6.22482e-07 4.09294e-05 11.0993 -4.20427e-07 -7.2457e-12)
(3.25804e-13 0 0 -439.404 -9.1056e-21 4.09289e-05 11.0993 -5.29396e-23 1.61982e-11)
(0 0 0 -432.224 0 4.10363e-05 11.0866 2.64698e-23 3.61828e-11)
(3.19664e-13 -6.30778e-23 0 -432.224 -5.15155e-06 4.10367e-05 11.0866 1.8428e-07 -2.9607e-11)
(-7.8391e-14 1.34563e-23 0 -424.42 7.47043e-06 4.12245e-05 11.0539 -5.12434e-07 -1.422e-11)
(0 0 0 -424.42 1.18585e-20 4.12238e-05 11.0539 0 2.30509e-11)
(-3.84391e-14 9.10996e-37 0 -416.085 -3.28221e-21 4.13974e-05 11.0029 2.85465e-53 4.50161e-11)
(3.07513e-13 -6.12826e-23 0 -416.085 -6.7534e-06 4.1398e-05 11.0029 3.81624e-07 -3.85089e-11)
(3.76898e-14 -3.36007e-23 0 -407.306 4.93948e-06 4.1425e-05 10.9351 -5.11436e-07 -2.38618e-11)
(0 4.17372e-36 0 -407.306 1.50374e-20 4.14242e-05 10.9351 -1.15844e-51 3.25052e-11)
(-3.69482e-14 -4.70198e-38 0 -398.162 1.44517e-22 4.1594e-05 10.8521 0 5.66874e-11)
(0 0 0 -398.162 -1.14483e-06 4.15949e-05 10.8521 5.20582e-07 -5.03204e-11)
(-3.62153e-14 4.14724e-23 0 -388.728 -2.16433e-06 4.15175e-05 10.7555 -5.05262e-07 -3.70703e-11)
(1.44861e-13 -2.16291e-36 0 -388.728 -7.84652e-21 4.15165e-05 10.7555 1.05879e-22 4.55533e-11)
(-3.54916e-14 5.06168e-20 0 -379.076 -1.29714e-22 4.13964e-05 10.6469 0 7.20284e-11)
(1.41967e-13 0 -3.70202e-21 -379.076 2.75726e-06 4.13975e-05 10.6469 4.67159e-07 -6.5755e-11)
(-6.95554e-14 7.0839e-23 0 -369.264 4.00804e-06 4.1581e-05 10.5275 -4.92066e-07 -5.50531e-11)
(0 0 0 -369.264 2.1604e-22 4.15797e-05 10.5275 -1.05879e-22 6.33079e-11)
(-3.40741e-14 0 0 -359.35 0 4.13213e-05 10.3986 1.05879e-22 9.31269e-11)
(0 0 -3.59666e-21 -359.35 -1.01796e-05 4.13228e-05 10.3986 5.83965e-07 -8.70306e-11)
(2.97386e-14 0 3.54511e-21 -349.389 1.41757e-05 4.12067e-05 10.2617 -4.69277e-07 -7.87646e-11)
(-1.33524e-13 5.91812e-22 0 -349.389 0 4.12049e-05 10.2617 0 8.68071e-11)
(9.13235e-14 2.79271e-22 0 -339.425 -1.01644e-20 4.09685e-05 10.118 0 1.21558e-10)
(7.21708e-14 5.16032e-23 0 -339.425 -1.42496e-05 4.09705e-05 10.118 9.12876e-07 -1.156e-10)
(3.20279e-14 -1.51855e-22 0 -329.497 1.56198e-05 4.0713e-05 9.96835 -4.33648e-07 -1.10985e-10)
(-1.28112e-13 8.48354e-22 0 -329.497 1.31284e-20 4.07106e-05 9.96835 0 1.18758e-10)
(-3.13684e-14 -4.70198e-38 0 -319.643 -3.77532e-36 4.05115e-05 9.81394 -5.74928e-38 1.5973e-10)
(1.25474e-13 2.66995e-22 -6.78971e-21 -319.643 -1.2425e-05 4.05141e-05 9.81394 1.01121e-06 -1.53978e-10)
(0 0 0 -309.895 1.22858e-05 4.01837e-05 9.65573 -3.80766e-07 -1.54724e-10)
(0 -4.70198e-36 -3.3462e-21 -309.895 1.92815e-20 4.01806e-05 9.65573 0 1.62262e-10)
(-2.76676e-14 0 -3.29824e-21 -300.279 -1.69407e-21 3.97036e-05 9.4946 2.11758e-22 2.11114e-10)
(1.20336e-13 4.23435e-22 0 -300.279 -1.20446e-05 3.97069e-05 9.4946 1.13371e-06 -2.05513e-10)
(2.94591e-14 -2.9308e-22 0 -290.819 1.36991e-05 3.91772e-05 9.3313 -3.04834e-07 -2.13472e-10)
(0 0 0 -290.819 1.86347e-20 3.91732e-05 9.3313 0 2.20722e-10)
(-5.37604e-14 6.55934e-22 0 -281.533 -2.03288e-20 3.88508e-05 9.16662 0 2.80552e-10)
(-1.15383e-13 -5.96908e-22 0 -281.533 -7.50871e-06 3.88553e-05 9.16662 1.28741e-06 -2.75172e-10)
(-2.6495e-14 3.94806e-22 -6.31689e-21 -272.437 6.99363e-06 3.83121e-05 9.00104 -1.98196e-07 -2.93297e-10)
(0 6.13552e-36 0 -272.437 2.21055e-20 3.83069e-05 9.00104 -8.51474e-52 3.00285e-10)
(0 1.20371e-35 0 -263.544 0 3.77536e-05 8.83522 0 3.74284e-10)
(0 0 0 -263.544 -3.74205e-06 3.77594e-05 8.83522 1.48164e-06 -3.69036e-10)
(2.70756e-14 -5.83523e-20 0 -254.866 3.00593e-06 3.71553e-05 8.66971 -5.06437e-08 -4.01437e-10)
(0 -1.34006e-35 0 -254.866 4.84191e-20 3.71484e-05 8.66971 -4.23516e-22 4.08077e-10)
(2.65083e-14 3.9833e-22 0 -246.408 7.9666e-22 3.63424e-05 8.50494 0 5.01471e-10)
(-2.5372e-14 0 0 -246.408 -5.39691e-06 3.63502e-05 8.50494 1.72862e-06 -4.96489e-10)
(-5.19045e-14 -3.76158e-37 0 -238.174 5.28854e-20 3.58745e-05 8.34119 -4.23516e-22 -5.48524e-10)
(1.03809e-13 -1.75054e-21 0 -238.174 8.73095e-06 3.58654e-05 8.34119 -1.51407e-07 5.54942e-10)
(-2.54073e-14 0 0 -230.168 0 3.48691e-05 8.17878 4.23516e-22 6.73966e-10)
(0 0 0 -230.168 -1.68571e-05 3.48793e-05 8.17878 2.04461e-06 -6.69159e-10)
(0 0 0 -222.389 3.04932e-20 3.42883e-05 8.018 0 -7.47507e-10)
(0 0 0 -222.389 2.2439e-05 3.42765e-05 8.018 -4.25976e-07 7.53636e-10)
(-4.78968e-14 9.62965e-35 0 -214.835 2.44184e-21 3.33761e-05 7.85891 8.47033e-22 9.06466e-10)
(0 0 0 -214.835 -2.57306e-05 3.33895e-05 7.85891 2.45074e-06 -9.01881e-10)
(-2.36051e-14 5.64237e-37 -5.6279e-21 -207.506 1.44425e-21 3.24154e-05 7.70175 -8.47033e-22 -1.0158e-09)
(0 0 0 -207.506 2.43914e-05 3.23999e-05 7.70175 -7.96425e-07 1.02167e-09)
(-4.65336e-14 7.71657e-22 0 -200.396 -1.54331e-21 3.14589e-05 7.54661 0 1.22073e-09)
(1.86682e-13 2.87023e-21 0 -200.396 -2.27616e-05 3.14765e-05 7.54661 2.97432e-06 -1.21631e-09)
(-4.5687e-14 0 0 -193.5 0 3.07335e-05 7.3934 -8.47033e-22 -1.38042e-09)
(9.1374e-14 -2.79359e-21 0 -193.5 2.48204e-05 3.07131e-05 7.3934 -1.29351e-06 1.386e-09)
(2.23619e-14 9.48221e-22 0 -186.815 -6.77626e-21 2.94373e-05 7.24227 0 1.64801e-09)
(0 0 0 -186.815 -3.05536e-05 2.94606e-05 7.24227 3.65178e-06 -1.6438e-09)
(0 -1.66697e-33 0 -180.336 5.81161e-20 2.84194e-05 7.09323 1.69407e-21 -1.8756e-09)
(-1.09842e-13 3.26845e-21 0 -180.336 3.28791e-05 2.83924e-05 7.09323 -1.95861e-06 1.88093e-09)
(2.24938e-14 -2.63311e-36 0 -174.055 -4.73783e-21 2.71812e-05 6.94624 1.69407e-21 2.22738e-09)
(4.17927e-14 2.22191e-21 0 -174.055 -3.35412e-05 2.7212e-05 6.94624 4.53145e-06 -2.22331e-09)
(0 -1.33456e-21 0 -167.968 6.09864e-20 2.63059e-05 6.80129 0 -2.54858e-09)
(-2.16466e-14 0 -5.16094e-21 -167.968 3.62627e-05 2.62703e-05 6.80129 -2.84626e-06 2.55365e-09)
(2.13363e-14 0 5.08697e-21 -162.071 -9.69672e-21 2.47976e-05 6.6584 0 3.0153e-09)
(-2.13363e-14 0 0 -162.071 -4.15792e-05 2.48384e-05 6.6584 5.67696e-06 -3.01141e-09)
(-2.01021e-14 4.47628e-35 0 -156.36 1.6315e-19 2.37859e-05 6.51759 -1.69407e-21 -3.46442e-09)
(0 0 0 -156.36 4.52762e-05 2.37388e-05 6.51759 -4.02893e-06 3.46926e-09)
(2.10068e-15 -4.5139e-36 1.48266e-20 -150.828 -7.25383e-21 2.2125e-05 6.37889 -5.03336e-37 4.08711e-09)
(1.5743e-13 4.07224e-21 0 -150.828 -4.99466e-05 2.2179e-05 6.37889 7.17275e-06 -4.08335e-09)
(0 -2.03964e-21 0 -145.469 1.16579e-19 2.10931e-05 6.2422 1.69407e-21 -4.71159e-09)
(0 0 0 -145.469 5.4296e-05 2.10308e-05 6.2422 -5.60276e-06 4.71618e-09)
(-2.01391e-14 1.92593e-34 -4.80155e-21 -140.278 -9.94075e-20 1.93715e-05 6.10749 0 5.54675e-09)
(-2.01391e-14 0 0 -140.278 -5.8528e-05 1.9443e-05 6.10749 9.13063e-06 -5.54315e-09)
(-5.539e-14 6.92131e-35 9.46546e-21 -135.249 1.25406e-19 1.84434e-05 5.9747 2.09798e-36 -6.41203e-09)
(1.47707e-13 -9.24764e-21 0 -135.249 6.35732e-05 1.83608e-05 5.9747 -7.69549e-06 6.41641e-09)
(0 1.69708e-34 0 -130.375 0 1.65437e-05 5.84369 3.38813e-21 7.5375e-09)
(1.44608e-13 4.67755e-21 0 -130.375 -6.98934e-05 1.66386e-05 5.84369 1.16991e-05 -7.53399e-09)
(-3.6983e-14 0 0 -125.65 1.38596e-19 1.55884e-05 5.71442 8.65047e-37 -8.73332e-09)
(0 0 -9.19607e-21 -125.65 7.52017e-05 1.54789e-05 5.71442 -1.04771e-05 8.73745e-09)
(1.73275e-14 3.45615e-21 0 -121.067 -8.07125e-34 1.34249e-05 5.58676 3.38813e-21 1.02559e-08)
(1.3862e-13 1.84679e-21 0 -121.067 -8.25887e-05 1.3551e-05 5.58676 1.50755e-05 -1.02525e-08)
(1.87367e-14 0 0 -116.621 -1.54176e-20 1.27279e-05 5.46058 -3.38813e-21 -1.19066e-08)
(4.91277e-14 -7.54972e-21 0 -116.621 9.1741e-05 1.25823e-05 5.46058 -1.41743e-05 1.19105e-08)
(1.66132e-14 8.59134e-21 1.057e-19 -112.306 -1.72553e-19 4.40324e-06 5.33578 0 1.39732e-08)
(0 0 0 -112.306 -0.000102141 9.55078e-06 5.33578 1.95231e-05 -1.39699e-08)
(1.43338e-14 -1.9188e-20 0 -108.116 5.77123e-19 9.71728e-06 5.21227 0 -1.62494e-08)
(6.50746e-14 -8.59171e-21 -8.68008e-21 -108.116 0.00011151 9.52352e-06 5.21227 -1.90894e-05 1.6253e-08)
(0 1.32871e-47 8.31973e-20 -104.048 2.14191e-20 -8.36451e-22 5.08995 6.77626e-21 3.30872e-24)
(-1.79426e-14 0 -9.90374e-20 -104.048 -0.000121036 3.15619e-06 5.08995 2.53927e-05 -1.9059e-08)
(1.76854e-14 -5.96686e-21 0 -100.097 2.47183e-19 6.77644e-06 4.96877 0 -2.22007e-08)
(6.24179e-14 -9.64247e-21 0 -100.097 0.000130352 6.51819e-06 4.96877 -2.56263e-05 2.22041e-08)
(4.80013e-14 2.66262e-20 8.69064e-20 -96.2589 -5.69206e-19 8.47033e-22 4.84866 -6.77626e-21 -3.30872e-24)
(-1.74319e-14 0 0 -96.2589 -0.00014269 4.1884e-06 4.84866 3.31529e-05 -2.60375e-08)
(3.21551e-14 -1.48301e-20 0 -92.5305 2.956e-19 3.65026e-06 4.7296 -6.77626e-21 -3.03696e-08)
(5.98922e-14 -1.06062e-20 0 -92.5305 0.000154646 3.30554e-06 4.7296 -3.43254e-05 3.03726e-08)
(0 1.655e-20 4.05647e-21 -88.9083 -6.50521e-19 4.23516e-22 4.61154 -6.77626e-21 0)
(5.86778e-14 8.99026e-21 0 -88.9083 -0.000168984 7.72403e-07 4.61154 4.34314e-05 -3.56216e-08)
(-1.43738e-14 1.50463e-36 0 -85.3896 0 4.91938e-07 4.49443 0 -4.15991e-08)
(-5.74953e-14 1.13774e-20 0 -85.3896 0.000183474 3.10397e-08 4.49443 -4.59114e-05 4.16019e-08)
(-3.054e-14 -2.40741e-34 -1.58692e-37 -81.972 -4.31564e-19 -2.84081e-22 4.37831 -2.85606e-36 -6.61744e-24)
(0 0 0 -81.972 -0.000200736 -2.74353e-06 4.37831 5.70695e-05 -4.88054e-08)
(-1.38063e-14 -1.88079e-36 0 -78.6543 3.79471e-19 -2.74874e-06 4.26316 1.35525e-20 -5.70614e-08)
(-5.52252e-14 1.17902e-20 0 -78.6543 0.000217579 -3.36603e-06 4.26316 -6.13573e-05 5.70639e-08)
(1.59855e-14 7.70372e-34 1.20371e-35 -75.4361 0 0 4.1491 1.35525e-20 1.32349e-23)
(0 0 0 -75.4361 -0.000237024 -6.35805e-06 4.1491 7.51978e-05 -6.69715e-08)
(1.57564e-14 -1.42594e-20 7.51325e-21 -72.3184 5.42101e-20 -6.09631e-06 4.03627 0 -7.8388e-08)
(1.06159e-13 -2.30687e-20 0 -72.3184 0.000255182 -6.92455e-06 4.03627 -8.1972e-05 7.839e-08)
(-1.30129e-14 0 2.93874e-39 -69.3039 0 -1.69407e-21 3.9249 -1.35525e-20 1.32349e-23)
(5.20517e-14 8.52612e-21 0 -69.3039 -0.000275763 -1.01046e-05 3.9249 9.93378e-05 -9.20473e-08)
(-1.5308e-14 -1.77153e-20 -7.29943e-21 -66.3965 6.50521e-19 -9.28175e-06 3.81535 0 -1.07857e-07)
(-5.10535e-14 -4.53281e-21 0 -66.3965 0.000296694 -1.03952e-05 3.81535 -0.00010952 1.07859e-07)
(-1.50886e-14 7.22224e-34 6.34767e-37 -63.6013 -1.29649e-18 -1.15344e-21 3.70801 -1.64605e-35 -1.46444e-38)
(0 2.87792e-20 0 -63.6013 -0.000322875 -1.4073e-05 3.70801 0.000131542 -1.26727e-07)
(-2.58688e-15 -2.05834e-33 -7.09169e-21 -60.9238 8.80489e-20 -1.24713e-05 3.60341 0 -1.48655e-07)
(4.91419e-14 -3.51569e-20 0 -60.9238 0.000349965 -1.39711e-05 3.60341 -0.000146383 1.48656e-07)
(1.46592e-14 1.54074e-33 2.40741e-35 -58.3689 -2.06749e-19 -9.70248e-23 3.50206 0 2.64698e-23)
(0 0 0 -58.3689 -0.000381072 -1.80052e-05 3.50206 0.000174584 -1.74782e-07)
(1.44491e-14 -5.47875e-20 1.37797e-20 -55.9406 9.75782e-19 -1.57215e-05 3.40444 0 -2.05246e-07)
(0 5.51189e-20 0 -55.9406 0.000410595 -1.77455e-05 3.40444 -0.000195788 2.05246e-07)
(-3.74761e-14 -1.20371e-34 -1.95132e-36 -53.6405 -2.30805e-19 -3.52219e-21 3.31098 0 5.29396e-23)
(1.4242e-14 0 0 -53.6405 -0.000443672 -2.20718e-05 3.31098 0.000220469 -2.41501e-07)
(2.63202e-15 -3.4099e-20 6.69378e-21 -51.468 9.47806e-19 -1.85593e-05 3.22197 0 -2.83902e-07)