/*--------------------------------*- C++ -*----------------------------------*\
| =========                 |                                                 |
| \\      /  F ield         | OpenFOAM: The Open Source CFD Toolbox           |
|  \\    /   O peration     | Version:  2012                                  |
|   \\  /    A nd           | Website:  www.openfoam.com                      |
|    \\/     M anipulation  |                                                 |
\*---------------------------------------------------------------------------*/
FoamFile
{
    version     2.0;
    format      ascii;
    class       volScalarField;
    location    "17197.8";
    object      k;
}
// * * * * * * * * * * * * * * * * * * * * * * * * * * * * * * * * * * * * * //

dimensions      [0 2 -2 0 0 0 0];


internalField   nonuniform List<scalar> 
2560
(
0.0135464
0.0135464
0.334522
0.334522
2.26253
2.26253
6.45456
6.45456
11.1738
11.1738
15.4482
15.4482
19.2515
19.2515
22.6988
22.6988
25.8816
25.8816
28.8621
28.8621
31.682
31.682
34.3703
34.3703
36.9476
36.9476
39.4285
39.4285
41.824
41.824
44.142
44.142
46.3884
46.3884
48.5674
48.5674
50.6821
50.6821
52.7343
52.7343
54.7254
54.7254
56.6556
56.6556
58.5249
58.5249
60.3326
60.3326
62.0778
62.0778
63.759
63.759
65.3745
65.3745
66.9223
66.9223
68.4002
68.4002
69.8058
69.8058
71.1366
71.1366
72.3899
72.3899
73.5631
73.5631
74.6534
74.6534
75.6581
75.6581
76.5747
76.5747
77.4006
77.4006
78.1335
78.1335
78.7714
78.7714
79.3124
79.3124
79.755
79.755
80.098
80.098
80.3408
80.3408
80.4832
80.4832
80.5253
80.5253
80.468
80.468
80.3128
80.3128
80.0617
80.0617
79.7175
79.7175
79.2836
79.2836
78.7641
78.7641
78.1639
78.1639
77.4887
77.4887
76.7446
76.7446
75.9387
75.9387
75.0786
75.0786
74.1726
74.1726
73.2296
73.2296
72.2587
72.2587
71.27
71.27
70.2732
70.2732
69.2789
69.2789
68.2972
68.2972
67.3386
67.3386
66.4133
66.4133
65.5309
65.5309
64.7009
64.7009
63.9319
63.9319
63.2319
63.2319
62.6077
62.6077
62.0651
62.0651
61.609
61.609
61.2425
61.2425
60.9679
60.9679
60.7856
60.7856
60.6949
60.6949
60.694
60.694
60.7792
60.7792
60.946
60.946
61.1887
61.1887
61.5006
61.5006
61.8743
61.8743
62.3018
62.3018
62.7745
62.7745
63.2835
63.2835
63.8199
63.8199
64.3745
64.3745
64.9385
64.9385
65.5032
65.5032
66.0602
66.0602
66.6016
66.6016
67.12
67.12
67.6088
67.6088
68.0617
68.0617
68.4732
68.4732
68.8385
68.8385
69.1535
69.1535
69.4147
69.4147
69.6194
69.6194
69.7654
69.7654
69.8512
69.8512
69.8759
69.8759
69.8391
69.8391
69.7409
69.7409
69.582
69.582
69.3631
69.3631
69.0858
69.0858
68.7515
68.7515
68.3624
68.3624
67.9203
67.9203
67.4278
67.4278
66.8873
66.8873
66.3012
66.3012
65.6724
65.6724
65.0034
65.0034
64.2971
64.2971
63.556
63.556
62.783
62.783
61.9806
61.9806
61.1516
61.1516
60.2983
60.2983
59.4233
59.4233
58.5288
58.5288
57.6173
57.6173
56.6909
56.6909
55.7515
55.7515
54.8013
54.8013
53.8421
53.8421
52.8756
52.8756
51.9035
51.9035
50.9274
50.9274
49.9488
49.9488
48.9691
48.9691
47.9896
47.9896
47.0114
47.0114
46.0359
46.0359
45.0639
45.0639
44.0967
44.0967
43.1349
43.1349
42.1796
42.1796
41.2315
41.2315
40.2914
40.2914
39.36
39.36
38.4378
38.4378
37.5256
37.5256
36.6238
36.6238
35.7329
35.7329
34.8534
34.8534
33.9857
33.9857
33.1303
33.1303
32.2875
32.2875
31.4576
31.4576
30.641
30.641
29.8379
29.8379
29.0487
29.0487
28.2735
28.2735
27.5125
27.5125
26.766
26.766
26.0341
26.0341
25.317
25.317
24.6147
24.6147
23.9274
23.9274
23.255
23.255
22.5977
22.5977
21.9553
21.9553
21.3278
21.3278
20.7151
20.7151
20.117
20.117
19.5335
19.5335
18.9642
18.9642
18.409
18.409
17.8677
17.8677
17.3402
17.3402
16.8261
16.8261
16.3254
16.3254
15.8378
15.8378
15.3632
15.3632
14.9014
14.9014
14.4523
14.4523
14.0156
14.0156
13.5912
13.5912
13.179
13.179
12.7788
12.7788
12.3903
12.3903
12.0135
12.0135
11.648
11.648
11.2938
11.2938
10.9505
10.9505
10.618
10.618
10.296
10.296
9.98447
9.98447
9.68308
9.68308
9.39169
9.39169
9.11015
9.11015
8.83828
8.83828
8.57594
8.57594
8.32298
8.32297
8.07925
8.07925
7.84462
7.84462
7.61896
7.61895
7.4021
7.4021
7.1939
7.1939
6.9942
6.9942
6.8028
6.8028
6.61951
6.61951
6.44412
6.44412
6.27638
6.27638
6.11607
6.11606
5.96292
5.96292
5.81669
5.81669
5.67715
5.67715
5.54406
5.54406
5.41718
5.41718
5.29628
5.29628
5.18109
5.18109
5.07134
5.07134
4.96675
4.96675
4.86701
4.86701
4.7718
4.7718
4.68077
4.68077
4.59357
4.59356
4.50985
4.50985
4.42929
4.42929
4.35162
4.35162
4.27659
4.27659
4.20402
4.20402
4.13374
4.13374
4.06561
4.06561
3.99945
3.99945
3.93505
3.93505
3.87217
3.87217
3.81057
3.81057
3.75002
3.75002
3.69033
3.69033
3.63134
3.63134
3.57292
3.57292
3.51501
3.51501
3.45754
3.45754
3.40054
3.40054
3.34406
3.34406
3.2882
3.2882
3.23304
3.23304
3.17862
3.17862
3.12491
3.12491
3.07179
3.0718
3.01908
3.01908
2.96651
2.96651
2.91375
2.91375
2.86044
2.86044
2.80627
2.80628
2.75108
2.75108
2.69487
2.69488
2.63786
2.63786
2.58047
2.58047
2.52325
2.52325
2.46666
2.46665
2.41096
2.41096
2.35625
2.35625
2.30253
2.30253
2.24976
2.24976
2.19794
2.19794
2.14723
2.14723
2.09791
2.09791
2.05028
2.05028
2.00467
2.00467
1.96136
1.96136
1.92053
1.92053
1.8823
1.8823
1.84673
1.84673
1.81381
1.81381
1.78352
1.78352
1.75576
1.75576
1.73039
1.73039
1.70717
1.70717
1.68581
1.68581
1.66595
1.66595
1.64716
1.64716
1.62901
1.62901
1.61099
1.61099
1.59266
1.59266
1.57366
1.57366
1.5537
1.5537
1.53244
1.53244
1.50952
1.50952
1.4846
1.4846
1.45759
1.45759
1.42867
1.42867
1.39825
1.39825
1.36689
1.36689
1.33534
1.33534
1.30447
1.30447
1.27507
1.27507
1.24762
1.24762
1.22231
1.22231
1.19913
1.19913
1.17807
1.17807
1.15916
1.15916
1.14239
1.14239
1.12777
1.12777
1.11526
1.11526
1.10472
1.10472
1.0959
1.0959
1.08844
1.08844
1.08196
1.08196
1.07603
1.07603
1.07003
1.07003
1.0632
1.0632
1.05485
1.05485
1.04465
1.04465
1.03277
1.03277
1.01976
1.01976
1.00626
1.00626
0.992759
0.992758
0.979675
0.979674
0.967522
0.967521
0.956812
0.956812
0.947884
0.947885
0.940898
0.940898
0.935978
0.935979
0.933366
0.933367
0.0135464
0.0135464
0.334522
0.334522
2.26253
2.26253
6.45456
6.45456
11.1738
11.1738
15.4482
15.4482
19.2515
19.2515
22.6988
22.6988
25.8816
25.8816
28.8621
28.8621
31.682
31.682
34.3703
34.3703
36.9476
36.9476
39.4285
39.4285
41.824
41.824
44.142
44.142
46.3884
46.3884
48.5674
48.5674
50.6821
50.6821
52.7344
52.7344
54.7254
54.7254
56.6556
56.6556
58.5249
58.5249
60.3326
60.3326
62.0778
62.0778
63.759
63.759
65.3745
65.3745
66.9223
66.9223
68.4002
68.4002
69.8058
69.8058
71.1366
71.1366
72.3899
72.3899
73.5631
73.5631
74.6534
74.6534
75.6581
75.6581
76.5747
76.5747
77.4006
77.4006
78.1335
78.1335
78.7714
78.7714
79.3124
79.3124
79.755
79.755
80.098
80.098
80.3408
80.3408
80.4832
80.4832
80.5253
80.5253
80.468
80.468
80.3128
80.3128
80.0617
80.0617
79.7175
79.7175
79.2836
79.2836
78.7641
78.7641
78.164
78.164
77.4887
77.4887
76.7446
76.7446
75.9387
75.9387
75.0786
75.0786
74.1726
74.1726
73.2296
73.2296
72.2588
72.2588
71.27
71.27
70.2732
70.2732
69.2789
69.2789
68.2972
68.2972
67.3386
67.3386
66.4133
66.4133
65.5309
65.5309
64.7009
64.7009
63.9319
63.9319
63.2319
63.2319
62.6077
62.6077
62.0651
62.0651
61.609
61.609
61.2425
61.2425
60.9679
60.9679
60.7856
60.7856
60.6949
60.6949
60.694
60.694
60.7792
60.7792
60.946
60.946
61.1887
61.1887
61.5006
61.5006
61.8743
61.8743
62.3018
62.3018
62.7745
62.7745
63.2835
63.2835
63.8199
63.8199
64.3745
64.3745
64.9385
64.9385
65.5032
65.5032
66.0601
66.0601
66.6016
66.6016
67.12
67.12
67.6088
67.6088
68.0617
68.0617
68.4732
68.4732
68.8385
68.8385
69.1535
69.1535
69.4147
69.4147
69.6194
69.6194
69.7654
69.7654
69.8512
69.8512
69.8759
69.8759
69.8391
69.8391
69.7409
69.7409
69.582
69.582
69.3631
69.3631
69.0858
69.0858
68.7515
68.7515
68.3624
68.3624
67.9203
67.9203
67.4278
67.4278
66.8873
66.8873
66.3012
66.3012
65.6724
65.6724
65.0034
65.0034
64.2971
64.2971
63.556
63.556
62.783
62.783
61.9806
61.9806
61.1516
61.1516
60.2983
60.2983
59.4233
59.4233
58.5288
58.5288
57.6173
57.6173
56.6909
56.6909
55.7515
55.7515
54.8013
54.8013
53.8421
53.8421
52.8756
52.8756
51.9035
51.9035
50.9274
50.9274
49.9488
49.9488
48.9691
48.9691
47.9896
47.9896
47.0114
47.0114
46.0359
46.0359
45.0639
45.0639
44.0967
44.0967
43.1349
43.1349
42.1796
42.1796
41.2315
41.2315
40.2914
40.2914
39.36
39.36
38.4378
38.4378
37.5256
37.5256
36.6238
36.6238
35.7329
35.7329
34.8534
34.8534
33.9857
33.9857
33.1303
33.1303
32.2875
32.2875
31.4576
31.4576
30.641
30.641
29.8379
29.8379
29.0487
29.0487
28.2735
28.2735
27.5125
27.5125
26.766
26.766
26.0341
26.0341
25.317
25.317
24.6147
24.6147
23.9274
23.9274
23.255
23.255
22.5977
22.5977
21.9553
21.9553
21.3278
21.3278
20.7151
20.7151
20.117
20.117
19.5335
19.5335
18.9642
18.9642
18.409
18.409
17.8677
17.8677
17.3402
17.3402
16.8261
16.8261
16.3254
16.3254
15.8378
15.8378
15.3632
15.3632
14.9014
14.9014
14.4523
14.4523
14.0156
14.0156
13.5912
13.5912
13.179
13.179
12.7788
12.7788
12.3903
12.3903
12.0135
12.0135
11.648
11.648
11.2938
11.2938
10.9505
10.9505
10.618
10.618
10.296
10.296
9.98447
9.98447
9.68308
9.68308
9.39169
9.39169
9.11015
9.11015
8.83828
8.83828
8.57594
8.57594
8.32297
8.32298
8.07925
8.07925
7.84462
7.84462
7.61896
7.61896
7.4021
7.4021
7.1939
7.1939
6.9942
6.9942
6.8028
6.8028
6.61951
6.61951
6.44412
6.44412
6.27638
6.27638
6.11607
6.11607
5.96292
5.96292
5.81669
5.81669
5.67715
5.67715
5.54406
5.54406
5.41718
5.41718
5.29628
5.29628
5.18109
5.18109
5.07134
5.07134
4.96675
4.96675
4.86701
4.86701
4.7718
4.7718
4.68077
4.68077
4.59357
4.59357
4.50985
4.50985
4.4293
4.4293
4.35162
4.35162
4.27659
4.27659
4.20402
4.20402
4.13375
4.13375
4.06561
4.06562
3.99945
3.99945
3.93505
3.93505
3.87218
3.87218
3.81058
3.81058
3.75002
3.75002
3.69033
3.69033
3.63134
3.63134
3.57293
3.57293
3.51501
3.51501
3.45754
3.45754
3.40054
3.40054
3.34406
3.34406
3.2882
3.2882
3.23304
3.23304
3.17862
3.17862
3.12491
3.12491
3.0718
3.0718
3.01909
3.01909
2.96651
2.96651
2.91375
2.91375
2.86044
2.86044
2.80628
2.80627
2.75108
2.75108
2.69488
2.69488
2.63787
2.63786
2.58047
2.58047
2.52325
2.52325
2.46665
2.46666
2.41096
2.41096
2.35625
2.35625
2.30253
2.30253
2.24976
2.24976
2.19794
2.19794
2.14723
2.14723
2.09791
2.09791
2.05028
2.05028
2.00467
2.00467
1.96136
1.96136
1.92053
1.92053
1.8823
1.8823
1.84673
1.84673
1.81381
1.81381
1.78352
1.78352
1.75576
1.75576
1.73039
1.73039
1.70717
1.70717
1.68581
1.68581
1.66595
1.66595
1.64716
1.64716
1.62901
1.62901
1.61099
1.61099
1.59266
1.59266
1.57366
1.57366
1.5537
1.5537
1.53244
1.53244
1.50951
1.50951
1.4846
1.4846
1.45759
1.45759
1.42867
1.42867
1.39824
1.39824
1.36689
1.36689
1.33534
1.33534
1.30447
1.30447
1.27507
1.27507
1.24762
1.24762
1.22231
1.22231
1.19913
1.19913
1.17807
1.17807
1.15916
1.15916
1.14239
1.14239
1.12777
1.12777
1.11526
1.11526
1.10472
1.10472
1.0959
1.0959
1.08844
1.08844
1.08196
1.08196
1.07603
1.07603
1.07003
1.07003
1.0632
1.0632
1.05485
1.05485
1.04465
1.04465
1.03277
1.03277
1.01976
1.01976
1.00626
1.00626
0.992758
0.992759
0.979674
0.979674
0.967521
0.967522
0.956812
0.956812
0.947884
0.947884
0.940898
0.940897
0.935979
0.935978
0.933367
0.933366
0.933358
0.933359
0.935955
0.935956
0.940854
0.940855
0.94781
0.94781
0.956712
0.956712
0.967389
0.967388
0.979498
0.979498
0.992546
0.992546
1.00597
1.00597
1.01935
1.01935
1.03223
1.03223
1.04401
1.04401
1.05414
1.05414
1.06246
1.06246
1.06933
1.06933
1.07541
1.07541
1.08143
1.08143
1.08798
1.08798
1.0955
1.0955
1.10437
1.10437
1.11497
1.11497
1.12754
1.12754
1.14222
1.14222
1.15905
1.15905
1.17803
1.17803
1.19914
1.19914
1.22238
1.22238
1.24775
1.24775
1.27525
1.27525
1.30471
1.30471
1.33564
1.33564
1.36725
1.36725
1.39863
1.39863
1.42904
1.42904
1.45789
1.45789
1.48479
1.48479
1.5096
1.5096
1.53245
1.53245
1.55365
1.55365
1.57357
1.57357
1.59253
1.59253
1.61082
1.61082
1.62881
1.62881
1.64692
1.64692
1.66566
1.66566
1.68549
1.68549
1.70681
1.70681
1.72999
1.72999
1.75535
1.75535
1.78309
1.78309
1.81338
1.81338
1.8463
1.8463
1.88187
1.88187
1.9201
1.92009
1.96093
1.96093
2.00425
2.00425
2.04987
2.04987
2.0975
2.0975
2.14684
2.14683
2.19757
2.19756
2.24942
2.24942
2.30221
2.30221
2.35593
2.35593
2.41063
2.41063
2.46629
2.46629
2.52283
2.52283
2.58003
2.58003
2.63741
2.63742
2.69442
2.69442
2.75059
2.75059
2.80573
2.80573
2.85986
2.85986
2.91316
2.91316
2.96594
2.96595
3.01857
3.01857
3.07137
3.07137
3.12458
3.12458
3.17837
3.17837
3.23285
3.23285
3.28802
3.28802
3.34386
3.34386
3.40031
3.40031
3.45727
3.45727
3.51471
3.51471
3.5726
3.5726
3.63099
3.63099
3.68997
3.68997
3.74967
3.74967
3.81023
3.81023
3.87184
3.87184
3.93475
3.93475
3.99919
3.99919
4.06541
4.06541
4.13362
4.13362
4.20398
4.20398
4.27661
4.27661
4.35168
4.35168
4.42939
4.42939
4.50997
4.50997
4.5937
4.5937
4.68092
4.68092
4.77197
4.77197
4.86721
4.86721
4.96695
4.96695
5.07154
5.07153
5.18125
5.18125
5.29641
5.29641
5.41728
5.41728
5.54412
5.54412
5.67718
5.67718
5.8167
5.8167
5.96292
5.96292
6.11607
6.11607
6.2764
6.2764
6.44414
6.44414
6.61955
6.61955
6.80285
6.80285
6.99427
6.99427
7.19399
7.19399
7.40221
7.40221
7.61907
7.61907
7.84474
7.84474
8.07937
8.07937
8.3231
8.3231
8.57607
8.57607
8.83842
8.83842
9.11029
9.11029
9.39184
9.39184
9.68323
9.68323
9.98463
9.98463
10.2962
10.2962
10.6182
10.6182
10.9507
10.9507
11.2939
11.2939
11.6482
11.6482
12.0136
12.0136
12.3905
12.3905
12.7789
12.7789
13.1792
13.1792
13.5914
13.5914
14.0157
14.0157
14.4524
14.4524
14.9016
14.9016
15.3634
15.3634
15.838
15.838
16.3256
16.3256
16.8263
16.8263
17.3404
17.3404
17.8679
17.8679
18.4092
18.4092
18.9644
18.9644
19.5337
19.5337
20.1173
20.1173
20.7154
20.7154
21.3282
21.3282
21.9557
21.9557
22.5981
22.5981
23.2554
23.2554
23.9278
23.9278
24.6151
24.6151
25.3174
25.3174
26.0345
26.0345
26.7664
26.7664
27.513
27.513
28.274
28.274
29.0492
29.0492
29.8385
29.8385
30.6416
30.6416
31.4582
31.4582
32.2882
32.2882
33.131
33.131
33.9865
33.9865
34.8541
34.8541
35.7337
35.7337
36.6246
36.6246
37.5265
37.5265
38.4388
38.4388
39.3611
39.3611
40.2926
40.2926
41.2328
41.2328
42.181
42.181
43.1364
43.1364
44.0982
44.0982
45.0656
45.0656
46.0377
46.0377
47.0133
47.0133
47.9915
47.9915
48.971
48.971
49.9508
49.9508
50.9295
50.9295
51.9056
51.9056
52.8778
52.8778
53.8444
53.8444
54.8037
54.8037
55.7539
55.7539
56.6933
56.6933
57.6198
57.6198
58.5312
58.5312
59.4256
59.4256
60.3006
60.3006
61.1538
61.1538
61.9827
61.9827
62.785
62.785
63.5578
63.5578
64.2985
64.2985
65.0046
65.0046
65.6733
65.6733
66.302
66.302
66.888
66.888
67.4286
67.4286
67.9211
67.9211
68.3631
68.3631
68.7524
68.7524
69.0866
69.0866
69.3641
69.3641
69.5829
69.5829
69.7418
69.7418
69.8399
69.8399
69.8767
69.8767
69.852
69.852
69.7663
69.7663
69.6204
69.6204
69.416
69.416
69.155
69.155
68.8401
68.8401
68.4749
68.4749
68.0633
68.0633
67.61
67.61
67.1206
67.1206
66.6011
66.6011
66.0588
66.0588
65.5011
65.5011
64.936
64.936
64.3716
64.3716
63.8166
63.8166
63.2798
63.2798
62.7702
62.7702
62.2968
62.2968
61.8686
61.8686
61.4941
61.4941
61.1815
61.1815
60.9381
60.9381
60.7707
60.7707
60.6848
60.6848
60.685
60.685
60.775
60.775
60.9565
60.9565
61.2305
61.2305
61.5962
61.5962
62.0516
62.0516
62.5934
62.5934
63.2169
63.2169
63.9164
63.9164
64.6849
64.6849
65.5144
65.5144
66.3963
66.3963
67.3214
67.3214
68.2796
68.2796
69.2609
69.2609
70.2548
70.2548
71.2511
71.2511
72.2398
72.2398
73.2106
73.2106
74.1539
74.1539
75.0602
75.0602
75.9207
75.9207
76.7271
76.7271
77.4721
77.4721
78.1484
78.1484
78.7492
78.7492
79.2692
79.2692
79.7037
79.7037
80.049
80.049
80.3011
80.3011
80.4572
80.4572
80.5154
80.5154
80.4742
80.4742
80.3328
80.3328
80.0908
80.0908
79.7485
79.7485
79.3067
79.3067
78.7664
78.7664
78.129
78.129
77.3966
77.3966
76.5711
76.5711
75.6549
75.6549
74.6505
74.6505
73.5606
73.5606
72.3876
72.3876
71.1345
71.1345
69.8039
69.8039
68.3986
68.3986
66.921
66.921
65.3736
65.3736
63.7584
63.7584
62.0774
62.0774
60.3324
60.3324
58.5248
58.5248
56.6555
56.6555
54.7254
54.7254
52.7344
52.7344
50.6821
50.6821
48.5675
48.5675
46.3884
46.3884
44.1421
44.1421
41.8241
41.8241
39.4286
39.4286
36.9477
36.9477
34.3704
34.3704
31.6821
31.6821
28.8621
28.8621
25.8817
25.8817
22.6988
22.6988
19.2515
19.2515
15.4482
15.4482
11.1738
11.1738
6.45454
6.45454
2.26252
2.26252
0.334519
0.334519
0.0135466
0.0135466
0.933359
0.933358
0.935956
0.935955
0.940855
0.940854
0.94781
0.94781
0.956712
0.956712
0.967388
0.967389
0.979498
0.979498
0.992546
0.992546
1.00597
1.00597
1.01935
1.01935
1.03223
1.03223
1.04401
1.04401
1.05414
1.05414
1.06246
1.06246
1.06933
1.06933
1.07541
1.07541
1.08143
1.08143
1.08798
1.08798
1.0955
1.0955
1.10437
1.10437
1.11497
1.11497
1.12754
1.12754
1.14222
1.14222
1.15905
1.15906
1.17803
1.17803
1.19914
1.19914
1.22238
1.22238
1.24775
1.24775
1.27525
1.27525
1.30471
1.30471
1.33564
1.33564
1.36725
1.36725
1.39863
1.39863
1.42904
1.42904
1.45789
1.4579
1.4848
1.4848
1.5096
1.5096
1.53245
1.53245
1.55365
1.55365
1.57357
1.57357
1.59253
1.59253
1.61082
1.61082
1.62881
1.62881
1.64693
1.64693
1.66566
1.66566
1.68549
1.68549
1.70681
1.70681
1.72999
1.72999
1.75535
1.75535
1.78309
1.78309
1.81338
1.81338
1.8463
1.8463
1.88187
1.88187
1.9201
1.9201
1.96093
1.96093
2.00425
2.00425
2.04987
2.04987
2.0975
2.0975
2.14684
2.14684
2.19757
2.19757
2.24942
2.24942
2.30221
2.30222
2.35593
2.35594
2.41063
2.41063
2.46629
2.46629
2.52284
2.52284
2.58003
2.58003
2.63742
2.63742
2.69442
2.69442
2.75059
2.75059
2.80574
2.80573
2.85986
2.85986
2.91317
2.91316
2.96595
2.96595
3.01857
3.01857
3.07137
3.07137
3.12458
3.12458
3.17838
3.17838
3.23285
3.23285
3.28802
3.28802
3.34386
3.34386
3.40031
3.40031
3.45727
3.45727
3.51471
3.51471
3.5726
3.5726
3.63099
3.63099
3.68997
3.68997
3.74967
3.74967
3.81023
3.81023
3.87184
3.87184
3.93474
3.93474
3.99919
3.99919
4.06541
4.06541
4.13362
4.13362
4.20397
4.20397
4.27661
4.27661
4.35168
4.35168
4.42939
4.42939
4.50996
4.50996
4.59369
4.59369
4.68091
4.68091
4.77197
4.77197
4.8672
4.8672
4.96695
4.96695
5.07153
5.07153
5.18125
5.18125
5.2964
5.2964
5.41727
5.41727
5.54411
5.54411
5.67717
5.67717
5.81669
5.81669
5.96291
5.96291
6.11607
6.11607
6.27639
6.27639
6.44414
6.44414
6.61954
6.61954
6.80284
6.80284
6.99426
6.99426
7.19399
7.19399
7.4022
7.4022
7.61907
7.61907
7.84474
7.84474
8.07936
8.07936
8.32309
8.32309
8.57607
8.57607
8.83841
8.83842
9.11028
9.11028
9.39183
9.39183
9.68322
9.68322
9.98462
9.98462
10.2962
10.2962
10.6182
10.6182
10.9507
10.9507
11.2939
11.2939
11.6482
11.6482
12.0136
12.0136
12.3905
12.3905
12.7789
12.7789
13.1792
13.1792
13.5914
13.5914
14.0157
14.0157
14.4524
14.4524
14.9016
14.9016
15.3634
15.3634
15.838
15.838
16.3256
16.3256
16.8263
16.8263
17.3404
17.3404
17.8679
17.8679
18.4092
18.4092
18.9644
18.9644
19.5337
19.5337
20.1173
20.1173
20.7154
20.7154
21.3282
21.3282
21.9557
21.9557
22.5981
22.5981
23.2554
23.2554
23.9278
23.9278
24.6151
24.6151
25.3174
25.3174
26.0345
26.0345
26.7664
26.7664
27.513
27.513
28.274
28.274
29.0492
29.0492
29.8385
29.8385
30.6416
30.6416
31.4582
31.4582
32.2881
32.2881
33.131
33.131
33.9864
33.9864
34.8541
34.8541
35.7337
35.7337
36.6246
36.6246
37.5265
37.5265
38.4388
38.4388
39.3611
39.3611
40.2926
40.2926
41.2328
41.2328
42.181
42.181
43.1364
43.1364
44.0982
44.0982
45.0656
45.0656
46.0377
46.0377
47.0133
47.0133
47.9914
47.9914
48.971
48.971
49.9508
49.9508
50.9295
50.9295
51.9056
51.9056
52.8778
52.8778
53.8444
53.8444
54.8037
54.8037
55.7539
55.7539
56.6933
56.6933
57.6197
57.6197
58.5312
58.5312
59.4256
59.4256
60.3006
60.3006
61.1538
61.1538
61.9827
61.9827
62.7849
62.7849
63.5578
63.5578
64.2985
64.2985
65.0046
65.0046
65.6733
65.6733
66.302
66.302
66.888
66.888
67.4286
67.4286
67.9211
67.9211
68.3631
68.3631
68.7524
68.7524
69.0866
69.0866
69.364
69.364
69.5829
69.5829
69.7418
69.7418
69.8399
69.8399
69.8767
69.8767
69.852
69.852
69.7662
69.7662
69.6204
69.6204
69.4159
69.4159
69.1549
69.1549
68.8401
68.8401
68.4748
68.4748
68.0632
68.0632
67.61
67.61
67.1205
67.1205
66.6011
66.6011
66.0587
66.0587
65.501
65.501
64.9359
64.9359
64.3716
64.3716
63.8166
63.8166
63.2797
63.2797
62.7701
62.7701
62.2968
62.2968
61.8686
61.8686
61.4941
61.4941
61.1815
61.1815
60.9381
60.9381
60.7707
60.7707
60.6848
60.6848
60.685
60.685
60.7749
60.7749
60.9565
60.9565
61.2305
61.2305
61.5962
61.5962
62.0516
62.0516
62.5934
62.5934
63.2169
63.2169
63.9164
63.9164
64.6849
64.6849
65.5144
65.5144
66.3963
66.3963
67.3214
67.3214
68.2796
68.2796
69.2609
69.2609
70.2548
70.2548
71.2511
71.2511
72.2398
72.2398
73.2106
73.2106
74.1539
74.1539
75.0602
75.0602
75.9207
75.9207
76.7272
76.7272
77.4721
77.4721
78.1484
78.1484
78.7492
78.7492
79.2692
79.2692
79.7037
79.7037
80.049
80.049
80.3011
80.3011
80.4572
80.4572
80.5154
80.5154
80.4742
80.4742
80.3328
80.3328
80.0908
80.0908
79.7485
79.7485
79.3067
79.3067
78.7664
78.7664
78.129
78.129
77.3966
77.3966
76.5711
76.5711
75.6549
75.6549
74.6505
74.6505
73.5606
73.5606
72.3876
72.3876
71.1345
71.1345
69.8039
69.8039
68.3986
68.3986
66.921
66.921
65.3736
65.3736
63.7584
63.7584
62.0774
62.0774
60.3324
60.3324
58.5248
58.5248
56.6555
56.6555
54.7254
54.7254
52.7344
52.7344
50.6821
50.6821
48.5675
48.5675
46.3884
46.3884
44.1421
44.1421
41.8241
41.8241
39.4286
39.4286
36.9477
36.9477
34.3704
34.3704
31.6821
31.6821
28.8621
28.8621
25.8817
25.8817
22.6988
22.6988
19.2515
19.2515
15.4482
15.4482
11.1738
11.1738
6.45454
6.45454
2.26252
2.26252
0.334519
0.334519
0.0135466
0.0135466
)
;

boundaryField
{
    walls
    {
        type            kqRWallFunction;
        value           nonuniform List<scalar> 8(0.0135464 0.0135464 0.0135464 0.0135464 0.0135466 0.0135466 0.0135466 0.0135466);
    }
    inlet
    {
        type            cyclic;
    }
    outlet
    {
        type            cyclic;
    }
    sides
    {
        type            empty;
    }
}


// ************************************************************************* //
