/*--------------------------------*- C++ -*----------------------------------*\
| =========                 |                                                 |
| \\      /  F ield         | OpenFOAM: The Open Source CFD Toolbox           |
|  \\    /   O peration     | Version:  2012                                  |
|   \\  /    A nd           | Website:  www.openfoam.com                      |
|    \\/     M anipulation  |                                                 |
\*---------------------------------------------------------------------------*/
FoamFile
{
    version     2.0;
    format      ascii;
    class       surfaceScalarField;
    location    "17197.8";
    object      phi;
}
// * * * * * * * * * * * * * * * * * * * * * * * * * * * * * * * * * * * * * //

dimensions      [0 3 -1 0 0 0 0];
oriented        oriented;


internalField   nonuniform List<scalar> 
5116
(
8.20144e-07
1.19643e-12
-4.66125e-13
-1.66414e-12
4.74667e-13
2.50681e-06
3.47296e-12
-6.81676e-13
-3.75933e-12
6.94172e-13
4.26548e-06
5.08601e-12
-5.0266e-13
-5.17193e-12
5.11875e-13
6.09845e-06
5.69727e-12
-2.729e-13
-5.90496e-12
2.77901e-13
8.00809e-06
6.07179e-12
-1.48194e-13
-6.30813e-12
1.50908e-13
9.99684e-06
6.2217e-12
-9.22537e-14
-6.57166e-12
9.39425e-14
1.20673e-05
6.43653e-12
-6.49643e-14
-6.75815e-12
6.61526e-14
1.42221e-05
6.52404e-12
-4.98566e-14
-6.90839e-12
5.07671e-14
1.64641e-05
6.68025e-12
-4.0579e-14
-7.02837e-12
4.1319e-14
1.87963e-05
6.73652e-12
-3.44293e-14
-7.13482e-12
3.50556e-14
2.12218e-05
6.86698e-12
-3.01169e-14
-7.2243e-12
3.06637e-14
2.37438e-05
6.90658e-12
-2.69646e-14
-7.30841e-12
2.74524e-14
2.63657e-05
7.01669e-12
-2.45857e-14
-7.38147e-12
2.50293e-14
2.90909e-05
7.04482e-12
-2.27474e-14
-7.45276e-12
2.31561e-14
3.19231e-05
7.14627e-12
-2.13002e-14
-7.51577e-12
2.16816e-14
3.4866e-05
7.16874e-12
-2.0146e-14
-7.57908e-12
2.05049e-14
3.79233e-05
7.2619e-12
-1.92159e-14
-7.63586e-12
1.95568e-14
4.10991e-05
7.28002e-12
-1.84627e-14
-7.69405e-12
1.87882e-14
4.43972e-05
7.36999e-12
-1.78504e-14
-7.74665e-12
1.81637e-14
4.78219e-05
7.38599e-12
-1.73541e-14
-7.80143e-12
1.76566e-14
5.1377e-05
7.4718e-12
-1.69533e-14
-7.85141e-12
1.72471e-14
5.50669e-05
7.48596e-12
-1.66339e-14
-7.90402e-12
1.692e-14
5.88956e-05
7.57072e-12
-1.63832e-14
-7.95224e-12
1.66634e-14
6.28673e-05
7.58444e-12
-1.61933e-14
-8.00347e-12
1.64679e-14
6.69859e-05
7.66733e-12
-1.60557e-14
-8.05076e-12
1.63261e-14
7.12556e-05
7.68063e-12
-1.59658e-14
-8.10131e-12
1.62322e-14
7.56802e-05
7.76355e-12
-1.59178e-14
-8.14815e-12
1.61815e-14
8.02635e-05
7.77726e-12
-1.59091e-14
-8.19851e-12
1.61701e-14
8.50091e-05
7.85955e-12
-1.59355e-14
-8.24548e-12
1.61949e-14
8.99204e-05
7.87364e-12
-1.59959e-14
-8.29612e-12
1.62535e-14
9.50005e-05
7.95659e-12
-1.60871e-14
-8.34352e-12
1.6344e-14
0.000100252
7.97172e-12
-1.62087e-14
-8.3948e-12
1.64647e-14
0.000105678
8.05502e-12
-1.63584e-14
-8.44307e-12
1.66144e-14
0.000111281
8.07123e-12
-1.65364e-14
-8.49536e-12
1.67921e-14
0.000117062
8.15577e-12
-1.67409e-14
-8.54478e-12
1.69973e-14
0.000123022
8.1736e-12
-1.69727e-14
-8.59841e-12
1.72294e-14
0.000129163
8.25929e-12
-1.72301e-14
-8.64936e-12
1.74882e-14
0.000135485
8.27881e-12
-1.75146e-14
-8.70466e-12
1.77734e-14
0.000141988
8.3662e-12
-1.78245e-14
-8.75739e-12
1.80852e-14
0.00014867
8.38785e-12
-1.81617e-14
-8.81465e-12
1.84236e-14
0.00015553
8.47713e-12
-1.85247e-14
-8.86954e-12
1.8789e-14
0.000162567
8.5011e-12
-1.89156e-14
-8.92911e-12
1.91816e-14
0.000169777
8.59267e-12
-1.93332e-14
-8.98643e-12
1.9602e-14
0.000177156
8.61939e-12
-1.97797e-14
-9.04863e-12
2.00506e-14
0.0001847
8.71363e-12
-2.02539e-14
-9.10878e-12
2.0528e-14
0.000192404
8.74336e-12
-2.07583e-14
-9.17397e-12
2.10349e-14
0.000200262
8.84053e-12
-2.12917e-14
-9.23721e-12
2.15719e-14
0.000208266
8.87368e-12
-2.18567e-14
-9.30573e-12
2.21397e-14
0.000216409
8.97432e-12
-2.2452e-14
-9.37249e-12
2.2739e-14
0.000224682
9.01123e-12
-2.30803e-14
-9.44473e-12
2.33705e-14
0.000233074
9.11553e-12
-2.37401e-14
-9.51535e-12
2.40347e-14
0.000241576
9.15659e-12
-2.44343e-14
-9.59169e-12
2.47324e-14
0.000250175
9.26517e-12
-2.51614e-14
-9.66664e-12
2.54643e-14
0.00025886
9.31084e-12
-2.59239e-14
-9.74747e-12
2.62305e-14
0.000267615
9.42395e-12
-2.67197e-14
-9.82708e-12
2.70313e-14
0.000276428
9.47462e-12
-2.75511e-14
-9.91279e-12
2.78666e-14
0.000285283
9.5929e-12
-2.84157e-14
-9.99749e-12
2.87365e-14
0.000294163
9.64898e-12
-2.93161e-14
-1.00885e-11
2.96409e-14
0.000303052
9.77262e-12
-3.02487e-14
-1.01787e-11
3.0579e-14
0.000311932
9.83436e-12
-3.12153e-14
-1.02755e-11
3.15496e-14
0.000320785
9.96389e-12
-3.22118e-14
-1.03715e-11
3.25517e-14
0.000329592
1.00319e-11
-3.32397e-14
-1.04744e-11
3.35835e-14
0.000338334
1.0168e-11
-3.42935e-14
-1.05765e-11
3.46429e-14
0.000346991
1.02428e-11
-3.53745e-14
-1.06857e-11
3.57275e-14
0.000355543
1.03857e-11
-3.64765e-14
-1.07943e-11
3.68348e-14
0.00036397
1.04675e-11
-3.75995e-14
-1.09102e-11
3.7961e-14
0.000372251
1.06178e-11
-3.87375e-14
-1.10253e-11
3.91039e-14
0.000380367
1.07067e-11
-3.98901e-14
-1.1148e-11
4.02591e-14
0.000388297
1.08642e-11
-4.10504e-14
-1.127e-11
4.14237e-14
0.000396022
1.09604e-11
-4.22188e-14
-1.13996e-11
4.2594e-14
0.000403524
1.11259e-11
-4.33884e-14
-1.15282e-11
4.37672e-14
0.000410783
1.12294e-11
-4.456e-14
-1.16647e-11
4.49398e-14
0.000417784
1.14024e-11
-4.57278e-14
-1.18001e-11
4.61103e-14
0.000424509
1.15131e-11
-4.68939e-14
-1.19436e-11
4.72764e-14
0.000430944
1.1694e-11
-4.80541e-14
-1.20854e-11
4.84384e-14
0.000437075
1.18118e-11
-4.92121e-14
-1.22358e-11
4.95954e-14
0.000442889
1.19998e-11
-5.03656e-14
-1.23844e-11
5.07497e-14
0.000448376
1.21246e-11
-5.15197e-14
-1.25417e-11
5.19017e-14
0.000453527
1.23202e-11
-5.26736e-14
-1.26967e-11
5.30556e-14
0.000458334
1.2452e-11
-5.3835e-14
-1.28608e-11
5.42139e-14
0.000462792
1.26546e-11
-5.50054e-14
-1.30226e-11
5.53835e-14
0.000466897
1.27934e-11
-5.61919e-14
-1.31937e-11
5.65661e-14
0.000470646
1.30036e-11
-5.7398e-14
-1.33622e-11
5.77707e-14
0.00047404
1.31498e-11
-5.86306e-14
-1.35405e-11
5.89987e-14
0.00047708
1.33673e-11
-5.98951e-14
-1.37165e-11
6.02612e-14
0.000479769
1.35209e-11
-6.11976e-14
-1.39025e-11
6.15584e-14
0.000482112
1.37464e-11
-6.25457e-14
-1.40859e-11
6.2904e-14
0.000484114
1.3908e-11
-6.39431e-14
-1.428e-11
6.42956e-14
0.000485783
1.41416e-11
-6.53998e-14
-1.44718e-11
6.57495e-14
0.000487127
1.43118e-11
-6.69166e-14
-1.46749e-11
6.726e-14
0.000488158
1.45546e-11
-6.85066e-14
-1.48756e-11
6.88469e-14
0.000488885
1.47343e-11
-7.0166e-14
-1.50885e-11
7.04997e-14
0.000489319
1.4987e-11
-7.19136e-14
-1.52993e-11
7.22439e-14
0.000489475
1.5177e-11
-7.37392e-14
-1.5523e-11
7.40625e-14
0.000489364
1.54403e-11
-7.56675e-14
-1.57446e-11
7.59872e-14
0.000489
1.56417e-11
-7.76811e-14
-1.59803e-11
7.79936e-14
0.000488397
1.59171e-11
-7.98144e-14
-1.62142e-11
8.0123e-14
0.000487569
1.61311e-11
-8.20375e-14
-1.6463e-11
8.23385e-14
0.00048653
1.64195e-11
-8.44002e-14
-1.67103e-11
8.46972e-14
0.000485295
1.66476e-11
-8.68553e-14
-1.69738e-11
8.71444e-14
0.000483876
1.6951e-11
-8.94723e-14
-1.72362e-11
8.97571e-14
0.000482288
1.71947e-11
-9.21808e-14
-1.75159e-11
9.24575e-14
0.000480545
1.7514e-11
-9.50778e-14
-1.77946e-11
9.53499e-14
0.000478659
1.77747e-11
-9.80617e-14
-1.80921e-11
9.83253e-14
0.000476643
1.81123e-11
-1.01268e-13
-1.83893e-11
1.01527e-13
0.000474509
1.8392e-11
-1.04551e-13
-1.87066e-11
1.04801e-13
0.000472269
1.87493e-11
-1.08099e-13
-1.90237e-11
1.08344e-13
0.000469934
1.90501e-11
-1.11704e-13
-1.93627e-11
1.1194e-13
0.000467514
1.94301e-11
-1.15628e-13
-1.97023e-11
1.15859e-13
0.000465019
1.97541e-11
-1.19579e-13
-2.00653e-11
1.198e-13
0.000462459
2.0158e-11
-1.23919e-13
-2.04291e-11
1.24135e-13
0.000459842
2.05074e-11
-1.28239e-13
-2.08185e-11
1.28444e-13
0.000457175
2.09388e-11
-1.33043e-13
-2.12092e-11
1.33242e-13
0.000454467
2.13163e-11
-1.37755e-13
-2.16276e-11
1.37944e-13
0.000451724
2.17773e-11
-1.43076e-13
-2.20478e-11
1.43259e-13
0.000448952
2.21856e-11
-1.48201e-13
-2.24979e-11
1.48373e-13
0.000446156
2.26803e-11
-1.54105e-13
-2.29506e-11
1.5427e-13
0.000443342
2.31226e-11
-1.5966e-13
-2.34357e-11
1.59814e-13
0.000440514
2.36532e-11
-1.66222e-13
-2.39239e-11
1.66368e-13
0.000437676
2.41324e-11
-1.7222e-13
-2.44471e-11
1.72355e-13
0.000434832
2.47037e-11
-1.79533e-13
-2.49744e-11
1.7966e-13
0.000431985
2.52236e-11
-1.85975e-13
-2.55396e-11
1.8609e-13
0.000429137
2.58388e-11
-1.94156e-13
-2.61096e-11
1.94262e-13
0.000426291
2.64032e-11
-2.01028e-13
-2.67206e-11
2.01122e-13
0.00042345
2.70683e-11
-2.10222e-13
-2.73376e-11
2.10307e-13
0.000420614
2.76812e-11
-2.17489e-13
-2.79989e-11
2.17561e-13
0.000417785
2.83997e-11
-2.27883e-13
-2.86673e-11
2.27945e-13
0.000414965
2.90653e-11
-2.35475e-13
-2.93835e-11
2.35524e-13
0.000412155
2.98441e-11
-2.47305e-13
-3.01086e-11
2.47343e-13
0.000409357
3.05673e-11
-2.55111e-13
-3.08849e-11
2.55135e-13
0.000406571
3.14116e-11
-2.68686e-13
-3.1672e-11
2.68699e-13
0.000403799
3.21975e-11
-2.7652e-13
-3.2514e-11
2.76518e-13
0.000401042
3.31156e-11
-2.92254e-13
-3.33695e-11
2.92239e-13
0.0003983
3.39695e-11
-2.9983e-13
-3.42831e-11
2.998e-13
0.000395575
3.49677e-11
-3.1827e-13
-3.5214e-11
3.18227e-13
0.000392869
3.58948e-11
-3.25164e-13
-3.62055e-11
3.25104e-13
0.000390181
3.69835e-11
-3.4705e-13
-3.72198e-11
3.46976e-13
0.000387514
3.79898e-11
-3.5263e-13
-3.82961e-11
3.52538e-13
0.000384868
3.91777e-11
-3.78969e-13
-3.94027e-11
3.78862e-13
0.000382244
4.02691e-11
-3.82314e-13
-4.05708e-11
3.82188e-13
0.000379644
4.15692e-11
-4.14483e-13
-4.178e-11
4.14341e-13
0.000377069
4.27517e-11
-4.14259e-13
-4.30474e-11
4.14097e-13
0.000374521
4.41757e-11
-4.54157e-13
-4.43712e-11
4.53976e-13
0.000372001
4.54542e-11
-4.48442e-13
-4.57452e-11
4.48241e-13
0.00036951
4.70195e-11
-4.98699e-13
-4.71975e-11
4.98478e-13
0.000367052
4.83992e-11
-4.84732e-13
-4.86852e-11
4.84488e-13
0.000364628
5.01229e-11
-5.49013e-13
-5.02827e-11
5.48747e-13
0.000362241
5.16073e-11
-5.22841e-13
-5.18902e-11
5.22551e-13
0.000359893
5.35134e-11
-6.06267e-13
-5.36528e-11
6.05954e-13
0.000357587
5.51045e-11
-5.62238e-13
-5.53852e-11
5.619e-13
0.000355326
5.72189e-11
-6.72004e-13
-5.73376e-11
6.7164e-13
0.000353112
5.89148e-11
-6.02038e-13
-5.91969e-11
6.01647e-13
0.000350949
6.12732e-11
-7.48277e-13
-6.13694e-11
7.47858e-13
0.00034884
6.30681e-11
-6.40832e-13
-6.33538e-11
6.40384e-13
0.000346787
6.57119e-11
-8.37865e-13
-6.57853e-11
8.37387e-13
0.000344795
6.75924e-11
-6.76441e-13
-6.78863e-11
6.75932e-13
0.000342865
7.05785e-11
-9.44571e-13
-7.06267e-11
9.44029e-13
0.000341
7.25213e-11
-7.05567e-13
-7.28262e-11
7.04993e-13
0.000339203
7.59201e-11
-1.07366e-12
-7.59415e-11
1.07305e-12
0.000337474
7.78858e-11
-7.23273e-13
-7.82064e-11
7.22629e-13
0.000335814
8.17942e-11
-1.23247e-12
-8.17843e-11
1.23178e-12
0.000334222
8.37211e-11
-7.22239e-13
-8.40596e-11
7.2152e-13
0.000332696
8.82655e-11
-1.43135e-12
-8.82189e-11
1.43059e-12
0.000331232
9.00581e-11
-6.91678e-13
-9.04171e-11
6.90879e-13
0.000329827
9.54129e-11
-1.68499e-12
-9.53208e-11
1.68414e-12
0.000328477
9.69266e-11
-6.15737e-13
-9.73067e-11
6.14852e-13
0.000327177
1.03328e-10
-2.01432e-12
-1.03181e-10
2.01338e-12
0.000325922
1.04348e-10
-4.71187e-13
-1.04749e-10
4.70212e-13
0.000324709
1.12127e-10
-2.44939e-12
-1.11912e-10
2.44836e-12
0.000323535
1.12334e-10
-2.24002e-13
-1.12753e-10
2.2293e-13
0.0003224
1.21953e-10
-3.03353e-12
-1.21652e-10
3.0324e-12
0.000321305
1.20874e-10
1.75664e-13
-1.21309e-10
-1.76838e-13
0.000320253
1.3298e-10
-3.82942e-12
-1.32581e-10
3.82817e-12
0.000319248
1.29914e-10
8.00886e-13
-1.30374e-10
-8.02168e-13
0.000318295
1.45427e-10
-4.92815e-12
-1.44933e-10
4.92679e-12
0.000317398
1.3933e-10
1.75898e-12
-1.3986e-10
-1.76037e-12
0.000316563
1.59584e-10
-6.4626e-12
-1.59019e-10
6.46112e-12
0.000315793
1.48903e-10
3.20778e-12
-1.49598e-10
-3.20928e-12
0.000315091
1.76048e-10
-8.62725e-12
-1.75257e-10
8.62567e-12
0.000314457
1.59187e-10
5.37986e-12
-1.59302e-10
-5.38146e-12
0.000313894
1.95133e-10
-1.17081e-11
-1.94226e-10
1.17063e-11
0.000313398
1.72741e-10
7.41109e-12
-1.72153e-10
-7.413e-12
0.000312968
2.21024e-10
-1.60844e-11
-2.2024e-10
1.60823e-11
0.000312599
2.26232e-10
-1.76889e-12
-2.25678e-10
1.76668e-12
0.000312284
2.91924e-10
-2.1885e-11
-2.91196e-10
2.18826e-11
0.000312021
3.30267e-10
-1.28158e-11
-3.29748e-10
1.28133e-11
0.000311803
4.17809e-10
-2.92036e-11
-4.17251e-10
2.9201e-11
0.000311628
4.9526e-10
-2.59491e-11
-4.95181e-10
2.59463e-11
0.000311492
6.09303e-10
-3.81111e-11
-6.09435e-10
3.81081e-11
0.000311396
7.33101e-10
-4.13373e-11
-7.33503e-10
4.13341e-11
0.000311343
8.22961e-10
-2.98015e-11
-8.22849e-10
2.97983e-11
0.000311337
9.3832e-10
-3.83941e-11
-9.38055e-10
3.83907e-11
0.000311382
9.95654e-10
-1.90476e-11
-9.95168e-10
1.9044e-11
0.000311479
1.10092e-09
-3.50757e-11
-1.10039e-09
3.50719e-11
0.00031163
1.12232e-09
-7.11897e-12
-1.12175e-09
7.11496e-12
0.000311835
1.21736e-09
-3.16966e-11
-1.2168e-09
3.16924e-11
0.000312094
1.20025e-09
5.72925e-12
-1.19967e-09
-5.73373e-12
0.000312402
1.28671e-09
-2.87004e-11
-1.28567e-09
2.86956e-11
0.000312756
1.2591e-09
8.56231e-12
-1.2601e-09
-8.56729e-12
0.000313145
1.33894e-09
-2.63022e-11
-1.33885e-09
2.6297e-11
0.000313554
1.32376e-09
4.64305e-12
-1.32508e-09
-4.64845e-12
0.00031396
1.39824e-09
-2.44725e-11
-1.39828e-09
2.44668e-11
0.00031434
1.39389e-09
1.10222e-12
-1.39517e-09
-1.10807e-12
0.000314665
1.46434e-09
-2.31501e-11
-1.46436e-09
2.3144e-11
0.000314902
1.46979e-09
-2.12663e-12
-1.47096e-09
2.12029e-12
0.000315023
1.53756e-09
-2.22828e-11
-1.53752e-09
2.22762e-11
0.000315001
1.55202e-09
-5.10195e-12
-1.55305e-09
5.09506e-12
0.000314814
1.61832e-09
-2.18258e-11
-1.61822e-09
2.18185e-11
0.000314454
1.6412e-09
-7.87586e-12
-1.64208e-09
7.86839e-12
0.000313917
1.70715e-09
-2.17401e-11
-1.70698e-09
2.17323e-11
0.000313198
1.73797e-09
-1.04957e-11
-1.7387e-09
1.04876e-11
0.00031229
1.8046e-09
-2.1992e-11
-1.80435e-09
2.19836e-11
0.000311179
1.84301e-09
-1.30046e-11
-1.84359e-09
1.29958e-11
0.000309844
1.91124e-09
-2.25523e-11
-1.91093e-09
2.25431e-11
0.000308261
1.95703e-09
-1.54419e-11
-1.95747e-09
1.54324e-11
0.000306405
2.02772e-09
-2.33967e-11
-2.02734e-09
2.33869e-11
0.000304249
2.08078e-09
-1.78436e-11
-2.08108e-09
1.78334e-11
0.000301771
2.15473e-09
-2.45068e-11
-2.1543e-09
2.44961e-11
0.000298942
2.21504e-09
-2.02436e-11
-2.21521e-09
2.02325e-11
0.000295741
2.29302e-09
-2.58691e-11
-2.29253e-09
2.58576e-11
0.000292159
2.36066e-09
-2.2674e-11
-2.36072e-09
2.26621e-11
0.000288202
2.44341e-09
-2.7476e-11
-2.44288e-09
2.74635e-11
0.000283894
2.51858e-09
-2.51667e-11
-2.51852e-09
2.51538e-11
0.000279269
2.60682e-09
-2.93243e-11
-2.60624e-09
2.9311e-11
0.000274364
2.68979e-09
-2.77523e-11
-2.68962e-09
2.77385e-11
0.000269207
2.78426e-09
-3.14144e-11
-2.78363e-09
3.14e-11
0.000263806
2.87539e-09
-3.04631e-11
-2.87512e-09
3.04482e-11
0.000258147
2.97683e-09
-3.37491e-11
-2.97614e-09
3.37336e-11
0.000252189
3.07659e-09
-3.33228e-11
-3.07618e-09
3.33068e-11
0.00024589
3.18576e-09
-3.63358e-11
-3.18498e-09
3.63191e-11
0.000239219
3.29465e-09
-3.63601e-11
-3.2941e-09
3.63428e-11
0.000232174
3.41235e-09
-3.91876e-11
-3.41147e-09
3.91696e-11
0.000224779
3.53102e-09
-3.96075e-11
-3.53031e-09
3.95889e-11
0.000217061
3.6581e-09
-4.23223e-11
-3.65709e-09
4.2303e-11
0.000209046
3.78727e-09
-4.30968e-11
-3.78637e-09
4.30768e-11
0.000200761
3.92465e-09
-4.57606e-11
-3.92347e-09
4.57398e-11
0.000192239
4.06513e-09
-4.68596e-11
-4.06401e-09
4.68381e-11
0.000183526
4.21378e-09
-4.95241e-11
-4.21242e-09
4.95018e-11
0.000174681
4.36649e-09
-5.09252e-11
-4.36513e-09
5.0902e-11
0.000165752
4.52744e-09
-5.3633e-11
-4.52587e-09
5.3609e-11
0.000156755
4.69336e-09
-5.53193e-11
-4.69173e-09
5.52944e-11
0.000147664
4.86772e-09
-5.81051e-11
-4.86589e-09
5.80793e-11
0.000138406
5.04789e-09
-6.00648e-11
-5.04597e-09
6.0038e-11
0.00012888
5.23679e-09
-6.2959e-11
-5.2347e-09
6.29312e-11
0.000118976
5.43236e-09
-6.51869e-11
-5.43011e-09
6.5158e-11
0.000108597
5.63702e-09
-6.82205e-11
-5.63464e-09
6.81906e-11
9.76507e-05
5.8492e-09
-7.07199e-11
-5.84663e-09
7.06888e-11
8.60623e-05
6.07097e-09
-7.39278e-11
-6.06829e-09
7.38956e-11
7.38316e-05
6.30114e-09
-7.67098e-11
-6.29821e-09
7.66763e-11
6.10712e-05
6.54149e-09
-8.01301e-11
-6.5385e-09
8.00954e-11
4.79948e-05
6.79117e-09
-8.32074e-11
-6.78789e-09
8.31713e-11
3.48547e-05
7.05171e-09
-8.68722e-11
-7.04842e-09
8.68347e-11
2.18825e-05
7.32253e-09
-9.02466e-11
-7.3189e-09
9.02075e-11
9.28951e-06
7.60493e-09
-9.41687e-11
-7.60134e-09
9.41282e-11
-2.76715e-06
7.89846e-09
-9.78125e-11
-7.89448e-09
9.77702e-11
-1.42874e-05
8.20429e-09
-1.01992e-10
-8.20042e-09
1.01948e-10
-2.54812e-05
8.52255e-09
-1.06045e-10
-8.51822e-09
1.05999e-10
-3.66685e-05
8.85433e-09
-1.10656e-10
-8.85018e-09
1.10609e-10
-4.80934e-05
9.20007e-09
-1.15196e-10
-9.1954e-09
1.15147e-10
-5.97487e-05
9.56074e-09
-1.20304e-10
-9.55634e-09
1.20253e-10
-7.13939e-05
9.93716e-09
-1.25415e-10
-9.93217e-09
1.25361e-10
-8.26982e-05
1.03302e-08
-1.31098e-10
-1.03255e-08
1.31043e-10
-9.33928e-05
1.0741e-08
-1.36857e-10
-1.07356e-08
1.36799e-10
-0.000103316
1.11701e-08
-1.43169e-10
-1.11653e-08
1.4311e-10
-0.000112379
1.16192e-08
-1.4962e-10
-1.16136e-08
1.49557e-10
-0.000120641
1.20886e-08
-1.56588e-10
-1.20835e-08
1.56524e-10
-0.000128321
1.25802e-08
-1.63763e-10
-1.25742e-08
1.63696e-10
-0.000135674
1.30939e-08
-1.71415e-10
-1.30887e-08
1.71346e-10
-0.000142927
1.36324e-08
-1.79366e-10
-1.36261e-08
1.79294e-10
-0.000150296
1.41951e-08
-1.8776e-10
-1.41896e-08
1.87686e-10
-0.000158038
1.47852e-08
-1.96581e-10
-1.47786e-08
1.96503e-10
-0.000166471
1.54021e-08
-2.05822e-10
-1.53964e-08
2.05743e-10
-0.000175905
1.60496e-08
-2.15681e-10
-1.60426e-08
2.15598e-10
-0.000186599
1.67267e-08
-2.25963e-10
-1.67209e-08
2.25878e-10
-0.00019874
1.74388e-08
-2.37162e-10
-1.74315e-08
2.37073e-10
-0.000212394
1.81844e-08
-2.48815e-10
-1.81784e-08
2.48726e-10
-0.000227601
1.89705e-08
-2.61837e-10
-1.89628e-08
2.61742e-10
-0.000244448
1.97957e-08
-2.75358e-10
-1.97894e-08
2.75262e-10
-0.000262891
2.06692e-08
-2.90917e-10
-2.0661e-08
2.90815e-10
-0.000282692
2.15891e-08
-3.06992e-10
-2.15826e-08
3.06891e-10
-0.000303622
2.25681e-08
-3.26077e-10
-2.25596e-08
3.25968e-10
-0.000325636
2.36037e-08
-3.45545e-10
-2.35969e-08
3.45438e-10
-0.000348876
2.4713e-08
-3.69473e-10
-2.4704e-08
3.69356e-10
-0.0003734
2.58919e-08
-3.93386e-10
-2.58849e-08
3.93272e-10
-0.000398924
2.71651e-08
-4.24082e-10
-2.71556e-08
4.23955e-10
-0.00042486
2.8525e-08
-4.53749e-10
-2.85178e-08
4.53627e-10
-0.00045053
3.00076e-08
-4.93861e-10
-2.99977e-08
4.93725e-10
-0.00047542
3.15974e-08
-5.3042e-10
-3.15899e-08
5.3029e-10
-0.000499013
3.33487e-08
-5.83377e-10
-3.33382e-08
5.83228e-10
-0.000520409
3.52288e-08
-6.27227e-10
-3.52209e-08
6.27087e-10
-0.000538528
3.73228e-08
-6.97621e-10
-3.73117e-08
6.9746e-10
-0.000552768
3.95632e-08
-7.47317e-10
-3.95548e-08
7.47169e-10
-0.000563466
4.20892e-08
-8.41606e-10
-4.20774e-08
8.41432e-10
-0.000571801
4.47654e-08
-8.92595e-10
-4.47563e-08
8.9244e-10
-0.000579266
4.7832e-08
-1.02179e-09
-4.78192e-08
1.0216e-09
-0.000586987
5.10253e-08
-1.06496e-09
-5.10152e-08
1.0648e-09
-0.000595146
5.47748e-08
-1.24952e-09
-5.47611e-08
1.24932e-09
-0.000603085
5.85721e-08
-1.26629e-09
-5.85614e-08
1.26612e-09
-0.000609873
6.32037e-08
-1.54365e-09
-6.31898e-08
1.54344e-09
-0.000614644
6.76862e-08
-1.49461e-09
-6.76755e-08
1.49444e-09
-0.000616788
7.34852e-08
-1.93299e-09
-7.34717e-08
1.93276e-09
-0.000616121
7.86976e-08
-1.73798e-09
-7.8687e-08
1.73781e-09
-0.000612927
8.60871e-08
-2.46356e-09
-8.60717e-08
2.46332e-09
-0.000607508
9.19879e-08
-1.96618e-09
-9.19695e-08
1.96602e-09
-0.000599474
1.01631e-07
-3.21328e-09
-1.01601e-07
3.21306e-09
-0.000588138
1.07988e-07
-2.11576e-09
-1.07953e-07
2.11565e-09
-0.000573726
1.20916e-07
-4.31764e-09
-1.20916e-07
4.31746e-09
-0.000557247
1.27037e-07
-2.06273e-09
-1.27135e-07
2.06263e-09
-0.000540204
1.44929e-07
-6.00514e-09
-1.45149e-07
6.00474e-09
-0.000524199
1.49758e-07
-1.56659e-09
-1.49796e-07
1.56602e-09
-0.000510135
1.7466e-07
-8.05215e-09
-1.73811e-07
8.05111e-09
-0.000497857
1.75636e-07
-2.19632e-10
-1.74352e-07
2.18817e-10
-0.000486941
1.91203e-07
-5.25568e-09
-1.90192e-07
5.2554e-09
-0.000477936
1.8378e-07
2.22511e-09
-1.83887e-07
-2.22473e-09
-0.000471833
1.84995e-07
-1.37453e-09
-1.88614e-07
1.37567e-09
-0.000468499
1.65071e-07
5.9442e-09
-1.71154e-07
-5.94334e-09
-0.000466402
1.56068e-07
3.83486e-09
-1.59422e-07
-3.83483e-09
-0.000464327
1.11914e-07
1.55963e-08
-1.12139e-07
-1.55942e-08
-0.00046337
6.71009e-08
1.49739e-08
-6.68736e-08
-1.49721e-08
-0.00046564
2.34775e-08
-3.4167e-09
-2.34755e-08
3.68485e-09
8.20145e-07
-1.44508e-12
1.40309e-12
2.50682e-06
-3.51061e-12
3.47159e-12
4.26548e-06
-5.01842e-12
5.0066e-12
6.09845e-06
-5.83186e-12
5.8458e-12
8.00809e-06
-6.27302e-12
6.30525e-12
9.99684e-06
-6.54993e-12
6.58907e-12
1.20673e-05
-6.74564e-12
6.78964e-12
1.42221e-05
-6.89636e-12
6.94158e-12
1.64641e-05
-7.01905e-12
7.06615e-12
1.87963e-05
-7.12348e-12
7.17024e-12
2.12218e-05
-7.21464e-12
7.26242e-12
2.37438e-05
-7.29649e-12
7.34351e-12
2.63657e-05
-7.3709e-12
7.41857e-12
2.90909e-05
-7.43997e-12
7.48669e-12
3.19231e-05
-7.50443e-12
7.55165e-12
3.4866e-05
-7.56563e-12
7.61181e-12
3.79233e-05
-7.62378e-12
7.67031e-12
4.10991e-05
-7.6799e-12
7.72529e-12
4.43972e-05
-7.73392e-12
7.77955e-12
4.78219e-05
-7.7867e-12
7.83111e-12
5.1377e-05
-7.83803e-12
7.88254e-12
5.50669e-05
-7.88864e-12
7.93185e-12
5.88956e-05
-7.93824e-12
7.98148e-12
6.28673e-05
-7.98753e-12
8.02942e-12
6.69859e-05
-8.03615e-12
8.07797e-12
7.12556e-05
-8.08478e-12
8.12516e-12
7.56802e-05
-8.13296e-12
8.17323e-12
8.02635e-05
-8.18142e-12
8.22021e-12
8.50091e-05
-8.22967e-12
8.26824e-12
8.99204e-05
-8.2784e-12
8.31543e-12
9.50005e-05
-8.32708e-12
8.36387e-12
0.000100252
-8.37646e-12
8.41167e-12
0.000105678
-8.42596e-12
8.46085e-12
0.000111281
-8.47633e-12
8.5096e-12
0.000117062
-8.52696e-12
8.55989e-12
0.000123022
-8.57865e-12
8.60991e-12
0.000129163
-8.63074e-12
8.66161e-12
0.000135485
-8.68406e-12
8.71323e-12
0.000141988
-8.73792e-12
8.7667e-12
0.00014867
-8.7932e-12
8.82024e-12
0.00015553
-8.84915e-12
8.87578e-12
0.000162567
-8.9067e-12
8.93156e-12
0.000169777
-8.96505e-12
8.98952e-12
0.000177156
-9.0252e-12
9.04788e-12
0.0001847
-9.08631e-12
9.10857e-12
0.000192404
-9.1494e-12
9.16986e-12
0.000200262
-9.21362e-12
9.23369e-12
0.000208266
-9.28002e-12
9.29827e-12
0.000216409
-9.34772e-12
9.36557e-12
0.000224682
-9.41781e-12
9.43383e-12
0.000233074
-9.48938e-12
9.50502e-12
0.000241576
-9.56354e-12
9.57734e-12
0.000250175
-9.63939e-12
9.65278e-12
0.00025886
-9.71801e-12
9.7296e-12
0.000267615
-9.7986e-12
9.80974e-12
0.000276428
-9.8821e-12
9.89148e-12
0.000285283
-9.96781e-12
9.97672e-12
0.000294163
-1.00567e-11
1.00638e-11
0.000303052
-1.0148e-11
1.01546e-11
0.000311932
-1.02426e-11
1.02473e-11
0.000320785
-1.03399e-11
1.0344e-11
0.000329592
-1.04405e-11
1.04428e-11
0.000338334
-1.05439e-11
1.05459e-11
0.000346991
-1.06508e-11
1.06512e-11
0.000355543
-1.07605e-11
1.07608e-11
0.00036397
-1.08739e-11
1.08729e-11
0.000372251
-1.09902e-11
1.09894e-11
0.000380367
-1.11104e-11
1.11084e-11
0.000388297
-1.12336e-11
1.12319e-11
0.000396022
-1.13604e-11
1.13579e-11
0.000403524
-1.14895e-11
1.14888e-11
0.000410783
-1.16227e-11
1.16218e-11
0.000417784
-1.1758e-11
1.17599e-11
0.000424509
-1.18978e-11
1.18999e-11
0.000430944
-1.20387e-11
1.20452e-11
0.000437075
-1.21851e-11
1.21922e-11
0.000442889
-1.23324e-11
1.23445e-11
0.000448376
-1.24851e-11
1.24984e-11
0.000453527
-1.26371e-11
1.2658e-11
0.000458334
-1.27959e-11
1.28189e-11
0.000462792
-1.29538e-11
1.29856e-11
0.000466897
-1.3119e-11
1.31536e-11
0.000470646
-1.32818e-11
1.33278e-11
0.00047404
-1.34541e-11
1.35029e-11
0.00047708
-1.36237e-11
1.36846e-11
0.000479769
-1.38034e-11
1.38674e-11
0.000482112
-1.39781e-11
1.40573e-11
0.000484114
-1.41654e-11
1.42483e-11
0.000485783
-1.43477e-11
1.44469e-11
0.000487127
-1.45439e-11
1.46465e-11
0.000488158
-1.47329e-11
1.48547e-11
0.000488885
-1.49389e-11
1.50639e-11
0.00048932
-1.51376e-11
1.52823e-11
0.000489475
-1.53547e-11
1.55019e-11
0.000489364
-1.5562e-11
1.57319e-11
0.000489
-1.57909e-11
1.5963e-11
0.000488397
-1.60098e-11
1.62055e-11
0.000487569
-1.62525e-11
1.64493e-11
0.00048653
-1.64829e-11
1.67059e-11
0.000485295
-1.67405e-11
1.69638e-11
0.000483876
-1.69859e-11
1.72355e-11
0.000482288
-1.72605e-11
1.75089e-11
0.000480545
-1.75205e-11
1.77978e-11
0.000478659
-1.78134e-11
1.80885e-11
0.000476643
-1.80915e-11
1.8396e-11
0.000474509
-1.84051e-11
1.87056e-11
0.000472269
-1.87019e-11
1.90341e-11
0.000469934
-1.9038e-11
1.93646e-11
0.000467514
-1.93572e-11
1.97157e-11
0.00046502
-1.97184e-11
2.00692e-11
0.000462459
-2.00608e-11
2.04459e-11
0.000459842
-2.04491e-11
2.08247e-11
0.000457176
-2.08187e-11
2.12291e-11
0.000454467
-2.12372e-11
2.16357e-11
0.000451724
-2.16353e-11
2.2071e-11
0.000448952
-2.20865e-11
2.25082e-11
0.000446156
-2.25176e-11
2.2977e-11
0.000443342
-2.30049e-11
2.34478e-11
0.000440514
-2.3471e-11
2.3954e-11
0.000437676
-2.39975e-11
2.44615e-11
0.000434832
-2.45031e-11
2.50085e-11
0.000431985
-2.50726e-11
2.55563e-11
0.000429137
-2.56208e-11
2.61485e-11
0.000426292
-2.62371e-11
2.67403e-11
0.00042345
-2.68326e-11
2.73819e-11
0.000420614
-2.75004e-11
2.80217e-11
0.000417785
-2.81475e-11
2.87181e-11
0.000414965
-2.88712e-11
2.94103e-11
0.000412156
-2.95753e-11
3.01669e-11
0.000409357
-3.03602e-11
3.09161e-11
0.000406571
-3.11267e-11
3.17393e-11
0.000403799
-3.19779e-11
3.25506e-11
0.000401042
-3.28132e-11
3.34471e-11
0.0003983
-3.3737e-11
3.43256e-11
0.000395575
-3.46483e-11
3.53035e-11
0.000392869
-3.56509e-11
3.62549e-11
0.000390181
-3.66459e-11
3.73228e-11
0.000387514
-3.77341e-11
3.83529e-11
0.000384868
-3.8822e-11
3.95211e-11
0.000382244
-4.00027e-11
4.06357e-11
0.000379644
-4.11935e-11
4.19157e-11
0.000377069
-4.24741e-11
4.31206e-11
0.000374521
-4.37803e-11
4.45259e-11
0.000372001
-4.51682e-11
4.58267e-11
0.000369511
-4.66034e-11
4.73732e-11
0.000367052
-4.81055e-11
4.87747e-11
0.000364629
-4.96866e-11
5.04811e-11
0.000362242
-5.13092e-11
5.19871e-11
0.000359894
-5.30557e-11
5.3876e-11
0.000357588
-5.48036e-11
5.54884e-11
0.000355326
-5.67409e-11
5.75874e-11
0.000353112
-5.86163e-11
5.93049e-11
0.000350949
-6.07742e-11
6.16483e-11
0.00034884
-6.27753e-11
6.34649e-11
0.000346787
-6.51931e-11
6.60956e-11
0.000344795
-6.73113e-11
6.79981e-11
0.000342865
-7.00383e-11
7.09716e-11
0.000341001
-7.22553e-11
7.29364e-11
0.000339203
-7.53582e-11
7.63245e-11
0.000337475
-7.76411e-11
7.83126e-11
0.000335815
-8.12067e-11
8.22109e-11
0.000334222
-8.35004e-11
8.41604e-11
0.000332696
-8.76482e-11
8.86965e-11
0.000331232
-8.9865e-11
9.05122e-11
0.000329828
-9.47572e-11
9.58596e-11
0.000328477
-9.67617e-11
9.73967e-11
0.000327177
-1.02625e-10
1.03793e-10
0.000325922
-1.04212e-10
1.04836e-10
0.000324709
-1.11364e-10
1.1261e-10
0.000323536
-1.12225e-10
1.12841e-10
0.000322401
-1.21112e-10
1.22455e-10
0.000321306
-1.20789e-10
1.214e-10
0.000320253
-1.3205e-10
1.33504e-10
0.000319248
-1.29863e-10
1.30465e-10
0.000318295
-1.44412e-10
1.45981e-10
0.000317399
-1.39359e-10
1.39917e-10
0.000316563
-1.58508e-10
1.60176e-10
0.000315794
-1.49108e-10
1.49503e-10
0.000315091
-1.7476e-10
1.76525e-10
0.000314458
-1.58828e-10
1.59307e-10
0.000313894
-1.93745e-10
1.95117e-10
0.000313399
-1.71695e-10
1.72769e-10
0.000312969
-2.19774e-10
2.21046e-10
0.000312599
-2.25235e-10
2.26292e-10
0.000312285
-2.90746e-10
2.91979e-10
0.000312021
-3.29321e-10
3.30363e-10
0.000311804
-4.16817e-10
4.1793e-10
0.000311628
-4.9477e-10
4.95601e-10
0.000311493
-6.09016e-10
6.09823e-10
0.000311396
-7.33108e-10
7.33755e-10
0.000311343
-8.2245e-10
8.23304e-10
0.000311338
-9.37683e-10
9.38545e-10
0.000311382
-9.94792e-10
9.9582e-10
0.00031148
-1.10004e-09
1.10109e-09
0.000311631
-1.1214e-09
1.12248e-09
0.000311836
-1.21646e-09
1.21753e-09
0.000312094
-1.19933e-09
1.2004e-09
0.000312403
-1.28535e-09
1.28694e-09
0.000312756
-1.25977e-09
1.25962e-09
0.000313146
-1.33854e-09
1.33956e-09
0.000313554
-1.32477e-09
1.3244e-09
0.000313961
-1.39799e-09
1.39889e-09
0.000314341
-1.39487e-09
1.39453e-09
0.000314665
-1.46408e-09
1.46499e-09
0.000314903
-1.47067e-09
1.47042e-09
0.000315024
-1.53725e-09
1.53818e-09
0.000315001
-1.55277e-09
1.55263e-09
0.000314815
-1.61795e-09
1.61893e-09
0.000314455
-1.64181e-09
1.64179e-09
0.000313917
-1.70672e-09
1.70775e-09
0.000313199
-1.73844e-09
1.73854e-09
0.000312291
-1.8041e-09
1.80517e-09
0.000311179
-1.84334e-09
1.84357e-09
0.000309844
-1.91069e-09
1.9118e-09
0.000308261
-1.95723e-09
1.95758e-09
0.000306405
-2.02712e-09
2.02827e-09
0.00030425
-2.08085e-09
2.08131e-09
0.000301771
-2.15409e-09
2.15526e-09
0.000298942
-2.215e-09
2.21556e-09
0.000295742
-2.29234e-09
2.29354e-09
0.00029216
-2.36053e-09
2.36117e-09
0.000288203
-2.44271e-09
2.44391e-09
0.000283894
-2.51836e-09
2.51907e-09
0.000279269
-2.60609e-09
2.60731e-09
0.000274365
-2.68947e-09
2.69026e-09
0.000269207
-2.7835e-09
2.78472e-09
0.000263806
-2.87499e-09
2.87584e-09
0.000258147
-2.97603e-09
2.97727e-09
0.000252189
-3.07607e-09
3.07701e-09
0.00024589
-3.18488e-09
3.18616e-09
0.000239219
-3.29401e-09
3.29504e-09
0.000232174
-3.41139e-09
3.41272e-09
0.000224779
-3.53023e-09
3.53137e-09
0.00021706
-3.65702e-09
3.65842e-09
0.000209046
-3.78631e-09
3.78756e-09
0.00020076
-3.92342e-09
3.92491e-09
0.000192238
-4.06396e-09
4.06537e-09
0.000183526
-4.21237e-09
4.21399e-09
0.00017468
-4.36509e-09
4.36666e-09
0.000165751
-4.52583e-09
4.52758e-09
0.000156754
-4.6917e-09
4.69346e-09
0.000147663
-4.86587e-09
4.86777e-09
0.000138405
-5.04595e-09
5.04791e-09
0.000128879
-5.23469e-09
5.23676e-09
0.000118975
-5.43011e-09
5.43228e-09
0.000108595
-5.63464e-09
5.63689e-09
9.76491e-05
-5.84663e-09
5.84902e-09
8.60607e-05
-6.06831e-09
6.07073e-09
7.38299e-05
-6.29824e-09
6.30085e-09
6.10695e-05
-6.53853e-09
6.54113e-09
4.7993e-05
-6.78793e-09
6.79076e-09
3.48528e-05
-7.04847e-09
7.05123e-09
2.18806e-05
-7.31896e-09
7.32199e-09
9.28758e-06
-7.60141e-09
7.60431e-09
-2.76911e-06
-7.89456e-09
7.89777e-09
-1.42894e-05