/*--------------------------------*- C++ -*----------------------------------*\
| =========                 |                                                 |
| \\      /  F ield         | OpenFOAM: The Open Source CFD Toolbox           |
|  \\    /   O peration     | Version:  2012                                  |
|   \\  /    A nd           | Website:  www.openfoam.com                      |
|    \\/     M anipulation  |                                                 |
\*---------------------------------------------------------------------------*/
FoamFile
{
    version     2.0;
    format      ascii;
    class       volScalarField;
    location    "18000";
    object      k;
}
// * * * * * * * * * * * * * * * * * * * * * * * * * * * * * * * * * * * * * //

dimensions      [0 2 -2 0 0 0 0];


internalField   nonuniform List<scalar> 
2560
(
1.44288e-07
1.44287e-07
3.07377e-08
3.07377e-08
7.52155e-08
7.52155e-08
2.56672e-07
2.56672e-07
6.66576e-07
6.66576e-07
1.42455e-06
1.42455e-06
2.67148e-06
2.67148e-06
4.56882e-06
4.56882e-06
7.29908e-06
7.29908e-06
1.10667e-05
1.10667e-05
1.60993e-05
1.60993e-05
2.26487e-05
2.26487e-05
3.09922e-05
3.09922e-05
4.14345e-05
4.14345e-05
5.43086e-05
5.43086e-05
6.99776e-05
6.99776e-05
8.88359e-05
8.88359e-05
0.000111311
0.000111311
0.000137865
0.000137865
0.000168994
0.000168994
0.000205233
0.000205233
0.00024715
0.00024715
0.000295353
0.000295353
0.000350485
0.000350485
0.000413225
0.000413225
0.000484283
0.000484283
0.000564401
0.000564401
0.000654346
0.000654346
0.000754902
0.000754902
0.000866866
0.000866866
0.000991039
0.000991039
0.00112821
0.00112821
0.00127914
0.00127914
0.00144456
0.00144456
0.00162515
0.00162514
0.00182147
0.00182147
0.00203404
0.00203404
0.00226323
0.00226323
0.00250926
0.00250926
0.00277222
0.00277222
0.00305203
0.00305203
0.00334841
0.00334841
0.0036609
0.0036609
0.00398884
0.00398884
0.00433138
0.00433138
0.00468746
0.00468746
0.00505583
0.00505583
0.00543507
0.00543507
0.0058236
0.0058236
0.00621971
0.00621971
0.00662162
0.00662162
0.00702751
0.00702751
0.00743555
0.00743555
0.00784399
0.00784399
0.00825127
0.00825127
0.00865616
0.00865616
0.00905796
0.00905796
0.00945675
0.00945675
0.00985346
0.00985346
0.01025
0.01025
0.010649
0.010649
0.0110536
0.0110536
0.011467
0.011467
0.0118918
0.0118918
0.0123302
0.0123302
0.0127834
0.0127834
0.013252
0.013252
0.0137357
0.0137357
0.0142337
0.0142337
0.0147442
0.0147442
0.0152654
0.0152654
0.0157948
0.0157948
0.0163296
0.0163296
0.0168667
0.0168667
0.0174029
0.0174029
0.017935
0.017935
0.0184596
0.0184596
0.0189735
0.0189735
0.0194736
0.0194736
0.0199568
0.0199568
0.0204204
0.0204204
0.0208619
0.0208619
0.0212789
0.0212789
0.0216696
0.0216696
0.0220322
0.0220322
0.0223652
0.0223652
0.0226674
0.0226674
0.0229379
0.0229379
0.0231759
0.0231759
0.0233812
0.0233812
0.0235536
0.0235536
0.0236935
0.0236935
0.0238016
0.0238016
0.023879
0.023879
0.0239271
0.0239271
0.0239476
0.0239476
0.0239427
0.0239427
0.0239143
0.0239143
0.0238648
0.0238648
0.0237961
0.0237961
0.0237105
0.0237105
0.0236095
0.0236095
0.0234948
0.0234948
0.0233676
0.0233676
0.0232288
0.0232288
0.023079
0.023079
0.0229187
0.0229187
0.0227478
0.0227478
0.0225662
0.0225662
0.0223735
0.0223735
0.0221692
0.0221692
0.0219527
0.0219527
0.0217233
0.0217233
0.0214803
0.0214803
0.0212229
0.0212229
0.0209508
0.0209508
0.0206636
0.0206636
0.0203612
0.0203612
0.0200438
0.0200438
0.0197121
0.0197121
0.0193671
0.0193671
0.01901
0.01901
0.0186424
0.0186424
0.0182663
0.0182663
0.0178837
0.0178837
0.0174966
0.0174966
0.0171072
0.0171072
0.0167173
0.0167173
0.0163289
0.0163289
0.0159436
0.0159436
0.0155626
0.0155626
0.0151872
0.0151872
0.0148184
0.0148184
0.0144568
0.0144568
0.0141031
0.0141031
0.0137577
0.0137577
0.0134212
0.0134212
0.0130937
0.0130937
0.0127758
0.0127758
0.0124676
0.0124676
0.0121695
0.0121695
0.0118818
0.0118818
0.0116049
0.0116049
0.011339
0.011339
0.0110844
0.0110844
0.0108414
0.0108414
0.0106103
0.0106103
0.0103912
0.0103912
0.0101842
0.0101842
0.00998946
0.00998946
0.00980703
0.00980703
0.00963691
0.00963691
0.00947907
0.00947907
0.00933346
0.00933346
0.0092
0.0092
0.00907857
0.00907857
0.00896907
0.00896907
0.00887136
0.00887136
0.0087853
0.0087853
0.00871076
0.00871076
0.00864759
0.00864759
0.00859566
0.00859566
0.00855483
0.00855483
0.00852498
0.00852498
0.00850596
0.00850596
0.00849766
0.00849766
0.00849994
0.00849994
0.00851267
0.00851267
0.00853571
0.00853571
0.00856892
0.00856892
0.00861215
0.00861215
0.0086652
0.0086652
0.00872791
0.00872791
0.00880007
0.00880007
0.00888143
0.00888143
0.00897175
0.00897175
0.00907069
0.00907069
0.00917789
0.00917789
0.00929287
0.00929287
0.00941504
0.00941504
0.00954367
0.00954367
0.00967784
0.00967784
0.00981647
0.00981647
0.00995826
0.00995826
0.0101017
0.0101017
0.0102453
0.0102453
0.010387
0.010387
0.0105252
0.0105252
0.0106579
0.0106579
0.0107832
0.0107832
0.0108995
0.0108995
0.0110051
0.0110051
0.0110988
0.0110988
0.0111793
0.0111793
0.0112459
0.0112459
0.011298
0.011298
0.0113354
0.0113354
0.0113579
0.0113579
0.0113659
0.0113659
0.0113598
0.0113598
0.0113402
0.0113402
0.011308
0.011308
0.0112641
0.0112641
0.0112096
0.0112096
0.0111456
0.0111456
0.0110732
0.0110732
0.0109938
0.0109938
0.0109086
0.0109086
0.0108189
0.0108189
0.010726
0.010726
0.0106313
0.0106313
0.010536
0.010536
0.0104415
0.0104415
0.0103488
0.0103488
0.0102593
0.0102593
0.0101739
0.0101739
0.0100938
0.0100938
0.0100197
0.0100197
0.00995239
0.00995239
0.0098925
0.0098925
0.0098405
0.0098405
0.00979674
0.00979674
0.00976142
0.00976142
0.00973465
0.00973465
0.00971639
0.00971639
0.00970647
0.00970647
0.00970461
0.00970461
0.00971035
0.00971035
0.00972306
0.00972306
0.00974196
0.00974196
0.00976605
0.00976605
0.0097942
0.0097942
0.00982514
0.00982514
0.00985755
0.00985755
0.00989008
0.00989008
0.00992147
0.00992147
0.00995058
0.00995058
0.00997649
0.00997649
0.0099985
0.0099985
0.0100161
0.0100161
0.0100292
0.0100292
0.0100377
0.0100377
0.0100418
0.0100418
0.0100417
0.0100417
0.0100378
0.0100378
0.0100304
0.0100304
0.0100198
0.0100198
0.0100062
0.0100062
0.00998987
0.00998987
0.00997087
0.00997087
0.0099492
0.0099492
0.00992481
0.00992481
0.00989756
0.00989756
0.00986729
0.00986729
0.00983381
0.00983381
0.0097969
0.0097969
0.00975637
0.00975637
0.00971204
0.00971204
0.00966377
0.00966377
0.00961149
0.00961149
0.00955517
0.00955517
0.00949487
0.00949487
0.00943071
0.00943071
0.00936289
0.00936289
0.00929171
0.00929171
0.00921752
0.00921752
0.00914075
0.00914075
0.00906189
0.00906189
0.00898145
0.00898145
0.00889996
0.00889996
0.00881798
0.00881798
0.00873604
0.00873604
0.00865464
0.00865464
0.00857426
0.00857426
0.00849535
0.00849535
0.00841831
0.00841831
0.00834354
0.00834354
0.00827138
0.00827138
0.00820217
0.00820217
0.00813624
0.00813624
0.0080739
0.0080739
0.00801544
0.00801544
0.00796116
0.00796116
0.0079113
0.0079113
0.0078661
0.0078661
0.00782573
0.00782573
0.00779033
0.00779033
0.00775996
0.00775996
0.00773462
0.00773462
0.00771423
0.00771423
0.00769864
0.00769864
0.00768762
0.00768762
0.00768085
0.00768085
0.00767795
0.00767795
0.00767847
0.00767847
0.00768193
0.00768193
0.00768779
0.00768779
0.00769553
0.00769553
0.00770463
0.00770463
0.0077146
0.0077146
0.00772499
0.00772499
0.00773542
0.00773542
0.00774558
0.00774558
0.0077552
0.0077552
0.00776408
0.00776408
0.00777208
0.00777208
0.00777906
0.00777906
0.00778486
0.00778486
0.00778935
0.00778935
0.00779231
0.00779231
0.00779349
0.00779349
0.00779258
0.00779258
0.00778925
0.00778925
0.00778315
0.00778315
0.00777403
0.00777403
0.00776182
0.00776182
0.00774678
0.00774678
0.00772973
0.00772973
0.00771234
0.00771234
0.00769503
0.00769503
1.44287e-07
1.44287e-07
3.07377e-08
3.07377e-08
7.52155e-08
7.52155e-08
2.56672e-07
2.56672e-07
6.66576e-07
6.66576e-07
1.42455e-06
1.42455e-06
2.67148e-06
2.67148e-06
4.56881e-06
4.56881e-06
7.29908e-06
7.29908e-06
1.10667e-05
1.10667e-05
1.60993e-05
1.60993e-05
2.26487e-05
2.26487e-05
3.09922e-05
3.09922e-05
4.14345e-05
4.14345e-05
5.43086e-05
5.43086e-05
6.99775e-05
6.99775e-05
8.88359e-05
8.88359e-05
0.000111311
0.000111311
0.000137865
0.000137865
0.000168994
0.000168994
0.000205233
0.000205233
0.00024715
0.00024715
0.000295353
0.000295353
0.000350485
0.000350485
0.000413225
0.000413225
0.000484283
0.000484283
0.000564401
0.000564401
0.000654345
0.000654345
0.000754901
0.000754901
0.000866866
0.000866866
0.000991039
0.000991039
0.00112821
0.00112821
0.00127914
0.00127914
0.00144456
0.00144456
0.00162514
0.00162514
0.00182147
0.00182147
0.00203404
0.00203404
0.00226322
0.00226322
0.00250926
0.00250926
0.00277222
0.00277222
0.00305203
0.00305203
0.00334841
0.00334841
0.00366089
0.00366089
0.00398884
0.00398884
0.00433138
0.00433138
0.00468746
0.00468746
0.00505583
0.00505583
0.00543507
0.00543507
0.00582359
0.00582359
0.0062197
0.0062197
0.00662162
0.00662162
0.00702751
0.00702751
0.00743555
0.00743555
0.00784399
0.00784399
0.00825127
0.00825127
0.00865615
0.00865615
0.00905796
0.00905796
0.00945674
0.00945674
0.00985346
0.00985346
0.01025
0.01025
0.010649
0.010649
0.0110536
0.0110536
0.011467
0.011467
0.0118918
0.0118918
0.0123302
0.0123302
0.0127834
0.0127834
0.013252
0.013252
0.0137357
0.0137357
0.0142337
0.0142337
0.0147442
0.0147442
0.0152654
0.0152654
0.0157948
0.0157948
0.0163296
0.0163296
0.0168667
0.0168667
0.0174029
0.0174029
0.017935
0.017935
0.0184596
0.0184596
0.0189735
0.0189735
0.0194736
0.0194736
0.0199568
0.0199568
0.0204204
0.0204204
0.0208619
0.0208619
0.0212789
0.0212789
0.0216696
0.0216696
0.0220322
0.0220322
0.0223652
0.0223652
0.0226674
0.0226674
0.0229379
0.0229379
0.0231759
0.0231759
0.0233812
0.0233812
0.0235536
0.0235536
0.0236935
0.0236935
0.0238016
0.0238016
0.023879
0.023879
0.0239271
0.0239271
0.0239476
0.0239476
0.0239427
0.0239427
0.0239143
0.0239143
0.0238648
0.0238648
0.0237961
0.0237961
0.0237105
0.0237105
0.0236095
0.0236095
0.0234948
0.0234948
0.0233676
0.0233676
0.0232288
0.0232288
0.023079
0.023079
0.0229187
0.0229187
0.0227478
0.0227478
0.0225662
0.0225662
0.0223735
0.0223735
0.0221692
0.0221692
0.0219527
0.0219527
0.0217233
0.0217233
0.0214803
0.0214803
0.0212229
0.0212229
0.0209508
0.0209508
0.0206636
0.0206636
0.0203612
0.0203612
0.0200438
0.0200438
0.0197121
0.0197121
0.0193671
0.0193671
0.01901
0.01901
0.0186424
0.0186424
0.0182663
0.0182663
0.0178837
0.0178837
0.0174966
0.0174966
0.0171072
0.0171072
0.0167173
0.0167173
0.0163289
0.0163289
0.0159435
0.0159435
0.0155626
0.0155626
0.0151872
0.0151872
0.0148184
0.0148184
0.0144568
0.0144568
0.0141031
0.0141031
0.0137577
0.0137577
0.0134212
0.0134212
0.0130937
0.0130937
0.0127758
0.0127758
0.0124676
0.0124676
0.0121695
0.0121695
0.0118818
0.0118818
0.0116049
0.0116049
0.011339
0.011339
0.0110844
0.0110844
0.0108414
0.0108414
0.0106103
0.0106103
0.0103912
0.0103912
0.0101842
0.0101842
0.00998946
0.00998946
0.00980703
0.00980703
0.00963691
0.00963691
0.00947907
0.00947907
0.00933346
0.00933346
0.00919999
0.00919999
0.00907857
0.00907857
0.00896906
0.00896906
0.00887135
0.00887135
0.0087853
0.0087853
0.00871075
0.00871075
0.00864759
0.00864759
0.00859566
0.00859566
0.00855483
0.00855483
0.00852497
0.00852497
0.00850596
0.00850596
0.00849765
0.00849765
0.00849993
0.00849993
0.00851266
0.00851266
0.00853571
0.00853571
0.00856892
0.00856892
0.00861214
0.00861214
0.0086652
0.0086652
0.00872791
0.00872791
0.00880006
0.00880006
0.00888143
0.00888143
0.00897174
0.00897174
0.00907069
0.00907069
0.00917789
0.00917789
0.00929287
0.00929287
0.00941504
0.00941504
0.00954366
0.00954366
0.00967783
0.00967783
0.00981646
0.00981646
0.00995826
0.00995826
0.0101017
0.0101017
0.0102452
0.0102452
0.010387
0.010387
0.0105252
0.0105252
0.0106579
0.0106579
0.0107832
0.0107832
0.0108995
0.0108995
0.0110051
0.0110051
0.0110988
0.0110988
0.0111793
0.0111793
0.0112459
0.0112459
0.011298
0.011298
0.0113353
0.0113353
0.0113579
0.0113579
0.0113659
0.0113659
0.0113598
0.0113598
0.0113402
0.0113402
0.011308
0.011308
0.0112641
0.0112641
0.0112096
0.0112096
0.0111456
0.0111456
0.0110732
0.0110732
0.0109938
0.0109938
0.0109086
0.0109086
0.0108189
0.0108189
0.010726
0.010726
0.0106313
0.0106313
0.010536
0.010536
0.0104414
0.0104414
0.0103488
0.0103488
0.0102593
0.0102593
0.0101739
0.0101739
0.0100938
0.0100938
0.0100197
0.0100197
0.00995239
0.00995239
0.0098925
0.0098925
0.0098405
0.0098405
0.00979673
0.00979673
0.00976142
0.00976142
0.00973465
0.00973465
0.00971638
0.00971638
0.00970647
0.00970647
0.00970461
0.00970461
0.00971034
0.00971034
0.00972306
0.00972306
0.00974195
0.00974195
0.00976604
0.00976604
0.00979419
0.00979419
0.00982514
0.00982514
0.00985754
0.00985754
0.00989007
0.00989007
0.00992146
0.00992146
0.00995058
0.00995058
0.00997648
0.00997648
0.00999849
0.00999849
0.0100161
0.0100161
0.0100292
0.0100292
0.0100377
0.0100377
0.0100418
0.0100418
0.0100417
0.0100417
0.0100378
0.0100378
0.0100304
0.0100304
0.0100198
0.0100198
0.0100062
0.0100062
0.00998987
0.00998987
0.00997086
0.00997086
0.0099492
0.0099492
0.0099248
0.0099248
0.00989756
0.00989756
0.00986729
0.00986729
0.00983381
0.00983381
0.0097969
0.0097969
0.00975636
0.00975636
0.00971203
0.00971203
0.00966377
0.00966377
0.00961149
0.00961149
0.00955517
0.00955517
0.00949487
0.00949487
0.0094307
0.0094307
0.00936289
0.00936289
0.00929171
0.00929171
0.00921752
0.00921752
0.00914075
0.00914075
0.00906189
0.00906189
0.00898145
0.00898145
0.00889996
0.00889996
0.00881798
0.00881798
0.00873604
0.00873604
0.00865464
0.00865464
0.00857426
0.00857426
0.00849535
0.00849535
0.00841831
0.00841831
0.00834354
0.00834354
0.00827138
0.00827138
0.00820217
0.00820217
0.00813624
0.00813624
0.0080739
0.0080739
0.00801544
0.00801544
0.00796116
0.00796116
0.0079113
0.0079113
0.0078661
0.0078661
0.00782573
0.00782573
0.00779033
0.00779033
0.00775996
0.00775996
0.00773461
0.00773461
0.00771423
0.00771423
0.00769864
0.00769864
0.00768762
0.00768762
0.00768085
0.00768085
0.00767795
0.00767795
0.00767847
0.00767847
0.00768192
0.00768192
0.00768779
0.00768779
0.00769553
0.00769553
0.00770463
0.00770463
0.0077146
0.0077146
0.00772499
0.00772499
0.00773542
0.00773542
0.00774557
0.00774557
0.00775519
0.00775519
0.00776408
0.00776408
0.00777208
0.00777208
0.00777905
0.00777905
0.00778486
0.00778486
0.00778935
0.00778935
0.00779231
0.00779231
0.00779349
0.00779349
0.00779258
0.00779258
0.00778925
0.00778925
0.00778315
0.00778315
0.00777403
0.00777403
0.00776182
0.00776182
0.00774678
0.00774678
0.00772973
0.00772973
0.00771234
0.00771234
0.00769503
0.00769503
0.00769503
0.00769503
0.00771235
0.00771235
0.00772975
0.00772975
0.0077468
0.0077468
0.00776184
0.00776184
0.00777406
0.00777406
0.00778318
0.00778318
0.00778928
0.00778928
0.00779261
0.00779261
0.0077935
0.0077935
0.0077923
0.0077923
0.00778932
0.00778932
0.00778483
0.00778483
0.00777901
0.00777901
0.00777205
0.00777205
0.00776407
0.00776407
0.0077552
0.0077552
0.00774559
0.00774559
0.00773545
0.00773545
0.00772502
0.00772502
0.00771464
0.00771464
0.00770468
0.00770468
0.00769559
0.00769559
0.00768785
0.00768785
0.00768199
0.00768199
0.00767853
0.00767853
0.007678
0.007678
0.00768089
0.00768089
0.00768766
0.00768766
0.00769867
0.00769867
0.00771425
0.00771425
0.00773462
0.00773462
0.00775995
0.00775995
0.00779032
0.00779032
0.00782573
0.00782573
0.0078661
0.0078661
0.00791131
0.00791131
0.00796117
0.00796117
0.00801546
0.00801546
0.00807391
0.00807391
0.00813626
0.00813626
0.00820219
0.00820219
0.0082714
0.0082714
0.00834356
0.00834356
0.00841834
0.00841834
0.00849537
0.00849537
0.00857429
0.00857429
0.00865467
0.00865467
0.00873606
0.00873606
0.00881801
0.00881801
0.00889998
0.00889998
0.00898146
0.00898146
0.00906189
0.00906189
0.00914075
0.00914075
0.00921751
0.00921751
0.00929169
0.00929169
0.00936286
0.00936286
0.00943067
0.00943067
0.00949482
0.00949482
0.00955511
0.00955511
0.00961142
0.00961142
0.00966369
0.00966369
0.00971195
0.00971195
0.00975628
0.00975628
0.00979681
0.00979681
0.00983373
0.00983373
0.00986721
0.00986721
0.00989748
0.00989748
0.00992473
0.00992473
0.00994913
0.00994913
0.0099708
0.0099708
0.00998981
0.00998981
0.0100061
0.0100061
0.0100197
0.0100197
0.0100303
0.0100303
0.0100377
0.0100377
0.0100416
0.0100416
0.0100417
0.0100417
0.0100376
0.0100376
0.0100291
0.0100291
0.010016
0.010016
0.00999839
0.00999839
0.0099764
0.0099764
0.00995049
0.00995049
0.00992139
0.00992139
0.00989001
0.00989001
0.00985748
0.00985748
0.00982508
0.00982508
0.00979414
0.00979414
0.00976599
0.00976599
0.0097419
0.0097419
0.009723
0.009723
0.00971028
0.00971028
0.00970454
0.00970454
0.00970639
0.00970639
0.0097163
0.0097163
0.00973456
0.00973456
0.00976133
0.00976133
0.00979664
0.00979664
0.00984041
0.00984041
0.0098924
0.0098924
0.00995229
0.00995229
0.0100196
0.0100196
0.0100937
0.0100937
0.0101739
0.0101739
0.0102592
0.0102592
0.0103487
0.0103487
0.0104414
0.0104414
0.0105359
0.0105359
0.0106312
0.0106312
0.0107259
0.0107259
0.0108188
0.0108188
0.0109085
0.0109085
0.0109937
0.0109937
0.0110731
0.0110731
0.0111455
0.0111455
0.0112095
0.0112095
0.0112641
0.0112641
0.011308
0.011308
0.0113402
0.0113402
0.0113597
0.0113597
0.0113658
0.0113658
0.0113578
0.0113578
0.0113353
0.0113353
0.0112979
0.0112979
0.0112458
0.0112458
0.0111792
0.0111792
0.0110987
0.0110987
0.0110051
0.0110051
0.0108994
0.0108994
0.0107831
0.0107831
0.0106578
0.0106578
0.0105251
0.0105251
0.010387
0.010387
0.0102452
0.0102452
0.0101017
0.0101017
0.00995827
0.00995827
0.00981649
0.00981649
0.00967787
0.00967787
0.0095437
0.0095437
0.00941509
0.00941509
0.00929293
0.00929293
0.00917796
0.00917796
0.00907077
0.00907077
0.00897184
0.00897184
0.00888153
0.00888153
0.00880018
0.00880018
0.00872804
0.00872804
0.00866534
0.00866534
0.0086123
0.0086123
0.00856909
0.00856909
0.00853589
0.00853589
0.00851286
0.00851286
0.00850015
0.00850015
0.00849788
0.00849788
0.00850621
0.00850621
0.00852524
0.00852524
0.00855512
0.00855512
0.00859596
0.00859596
0.00864791
0.00864791
0.0087111
0.0087111
0.00878566
0.00878566
0.00887173
0.00887173
0.00896947
0.00896947
0.00907899
0.00907899
0.00920044
0.00920044
0.00933392
0.00933392
0.00947956
0.00947956
0.00963742
0.00963742
0.00980756
0.00980756
0.00999002
0.00999002
0.0101848
0.0101848
0.0103918
0.0103918
0.0106109
0.0106109
0.0108421
0.0108421
0.0110851
0.0110851
0.0113397
0.0113397
0.0116056
0.0116056
0.0118825
0.0118825
0.0121702
0.0121702
0.0124683
0.0124683
0.0127766
0.0127766
0.0130946
0.0130946
0.013422
0.013422
0.0137586
0.0137586
0.014104
0.014104
0.0144577
0.0144577
0.0148193
0.0148193
0.0151882
0.0151882
0.0155636
0.0155636
0.0159446
0.0159446
0.01633
0.01633
0.0167184
0.0167184
0.0171083
0.0171083
0.0174977
0.0174977
0.0178849
0.0178849
0.0182675
0.0182675
0.0186437
0.0186437
0.0190113
0.0190113
0.0193684
0.0193684
0.0197135
0.0197135
0.0200452
0.0200452
0.0203626
0.0203626
0.0206651
0.0206651
0.0209524
0.0209524
0.0212246
0.0212246
0.021482
0.021482
0.0217251
0.0217251
0.0219545
0.0219545
0.022171
0.022171
0.0223753
0.0223753
0.022568
0.022568
0.0227497
0.0227497
0.0229206
0.0229206
0.023081
0.023081
0.0232307
0.0232307
0.0233696
0.0233696
0.0234968
0.0234968
0.0236115
0.0236115
0.0237125
0.0237125
0.0237982
0.0237982
0.0238668
0.0238668
0.0239163
0.0239163
0.0239446
0.0239446
0.0239496
0.0239496
0.023929
0.023929
0.0238809
0.0238809
0.0238035
0.0238035
0.0236954
0.0236954
0.0235555
0.0235555
0.0233832
0.0233832
0.0231779
0.0231779
0.0229398
0.0229398
0.0226694
0.0226694
0.0223671
0.0223671
0.0220341
0.0220341
0.0216715
0.0216715
0.0212807
0.0212807
0.0208636
0.0208636
0.0204221
0.0204221
0.0199585
0.0199585
0.0194752
0.0194752
0.0189751
0.0189751
0.0184612
0.0184612
0.0179365
0.0179365
0.0174044
0.0174044
0.0168682
0.0168682
0.016331
0.016331
0.0157963
0.0157963
0.0152668
0.0152668
0.0147456
0.0147456
0.0142349
0.0142349
0.0137369
0.0137369
0.0132531
0.0132531
0.0127844
0.0127844
0.0123311
0.0123311
0.0118926
0.0118926
0.0114678
0.0114678
0.0110543
0.0110543
0.0106496
0.0106496
0.0102505
0.0102505
0.00985387
0.00985387
0.00945711
0.00945711
0.0090583
0.0090583
0.00865647
0.00865647
0.00825156
0.00825156
0.00784427
0.00784427
0.00743582
0.00743582
0.00702778
0.00702778
0.00662189
0.00662189
0.00621996
0.00621996
0.00582383
0.00582383
0.0054353
0.0054353
0.00505605
0.00505605
0.00468767
0.00468767
0.00433157
0.00433157
0.00398902
0.00398902
0.00366107
0.00366107
0.00334857
0.00334857
0.00305218
0.00305218
0.00277236
0.00277236
0.00250938
0.00250938
0.00226334
0.00226334
0.00203415
0.00203414
0.00182157
0.00182157
0.00162523
0.00162523
0.00144464
0.00144464
0.00127921
0.00127921
0.00112827
0.00112827
0.00099109
0.00099109
0.000866911
0.000866911
0.000754941
0.000754941
0.00065438
0.00065438
0.000564431
0.000564431
0.000484308
0.000484308
0.000413246
0.000413246
0.000350504
0.000350504
0.000295369
0.000295369
0.000247163
0.000247163
0.000205244
0.000205244
0.000169003
0.000169003
0.000137872
0.000137872
0.000111317
0.000111317
8.88406e-05
8.88406e-05
6.99812e-05
6.99812e-05
5.43114e-05
5.43114e-05
4.14367e-05
4.14367e-05
3.09939e-05
3.09939e-05
2.26499e-05
2.26499e-05
1.61002e-05
1.61002e-05
1.10673e-05
1.10673e-05
7.29947e-06
7.29947e-06
4.56906e-06
4.56906e-06
2.67162e-06
2.67162e-06
1.42463e-06
1.42463e-06
6.66611e-07
6.66611e-07
2.56685e-07
2.56685e-07
7.52192e-08
7.52192e-08
3.07386e-08
3.07386e-08
1.44291e-07
1.44291e-07
0.00769503
0.00769503
0.00771235
0.00771235
0.00772975
0.00772975
0.0077468
0.0077468
0.00776185
0.00776185
0.00777406
0.00777406
0.00778318
0.00778318
0.00778928
0.00778928
0.00779261
0.00779261
0.0077935
0.0077935
0.00779229
0.00779229
0.00778932
0.00778932
0.00778482
0.00778482
0.00777901
0.00777901
0.00777204
0.00777204
0.00776406
0.00776406
0.00775519
0.00775519
0.00774559
0.00774559
0.00773544
0.00773544
0.00772502
0.00772502
0.00771463
0.00771463
0.00770467
0.00770467
0.00769558
0.00769558
0.00768785
0.00768785
0.00768198
0.00768198
0.00767852
0.00767852
0.007678
0.007678
0.00768089
0.00768089
0.00768765
0.00768765
0.00769867
0.00769867
0.00771424
0.00771424
0.00773462
0.00773462
0.00775995
0.00775995
0.00779032
0.00779032
0.00782573
0.00782573
0.0078661
0.0078661
0.00791131
0.00791131
0.00796117
0.00796117
0.00801546
0.00801546
0.00807391
0.00807391
0.00813626
0.00813626
0.00820219
0.00820219
0.0082714
0.0082714
0.00834356
0.00834356
0.00841834
0.00841834
0.00849537
0.00849537
0.00857429
0.00857429
0.00865467
0.00865467
0.00873606
0.00873606
0.00881801
0.00881801
0.00889998
0.00889998
0.00898146
0.00898146
0.00906189
0.00906189
0.00914075
0.00914075
0.00921751
0.00921751
0.00929169
0.00929169
0.00936286
0.00936286
0.00943066
0.00943066
0.00949482
0.00949482
0.00955511
0.00955511
0.00961142
0.00961142
0.00966369
0.00966369
0.00971194
0.00971194
0.00975627
0.00975627
0.00979681
0.00979681
0.00983372
0.00983372
0.00986721
0.00986721
0.00989748
0.00989748
0.00992472
0.00992472
0.00994912
0.00994912
0.0099708
0.0099708
0.00998981
0.00998981
0.0100061
0.0100061
0.0100197
0.0100197
0.0100303
0.0100303
0.0100377
0.0100377
0.0100416
0.0100416
0.0100417
0.0100417
0.0100376
0.0100376
0.0100291
0.0100291
0.010016
0.010016
0.00999839
0.00999839
0.00997639
0.00997639
0.00995049
0.00995049
0.00992138
0.00992138
0.00989
0.00989
0.00985748
0.00985748
0.00982507
0.00982507
0.00979413
0.00979413
0.00976598
0.00976598
0.00974189
0.00974189
0.009723
0.009723
0.00971028
0.00971028
0.00970454
0.00970454
0.00970639
0.00970639
0.0097163
0.0097163
0.00973456
0.00973456
0.00976133
0.00976133
0.00979664
0.00979664
0.0098404
0.0098404
0.0098924
0.0098924
0.00995229
0.00995229
0.0100196
0.0100196
0.0100937
0.0100937
0.0101738
0.0101738
0.0102592
0.0102592
0.0103487
0.0103487
0.0104414
0.0104414
0.0105359
0.0105359
0.0106312
0.0106312
0.0107259
0.0107259
0.0108188
0.0108188
0.0109085
0.0109085
0.0109937
0.0109937
0.0110731
0.0110731
0.0111455
0.0111455
0.0112095
0.0112095
0.0112641
0.0112641
0.011308
0.011308
0.0113402
0.0113402
0.0113597
0.0113597
0.0113658
0.0113658
0.0113578
0.0113578
0.0113353
0.0113353
0.0112979
0.0112979
0.0112458
0.0112458
0.0111792
0.0111792
0.0110987
0.0110987
0.0110051
0.0110051
0.0108994
0.0108994
0.0107831
0.0107831
0.0106578
0.0106578
0.0105251
0.0105251
0.010387
0.010387
0.0102452
0.0102452
0.0101017
0.0101017
0.00995826
0.00995826
0.00981648
0.00981648
0.00967786
0.00967786
0.0095437
0.0095437
0.00941508
0.00941508
0.00929292
0.00929292
0.00917795
0.00917795
0.00907077
0.00907077
0.00897183
0.00897183
0.00888153
0.00888153
0.00880017
0.00880017
0.00872803
0.00872803
0.00866534
0.00866534
0.00861229
0.00861229
0.00856909
0.00856909
0.00853589
0.00853589
0.00851286
0.00851286
0.00850014
0.00850014
0.00849788
0.00849788
0.0085062
0.0085062
0.00852524
0.00852524
0.00855511
0.00855511
0.00859596
0.00859596
0.00864791
0.00864791
0.00871109
0.00871109
0.00878565
0.00878565
0.00887173
0.00887173
0.00896946
0.00896946
0.00907899
0.00907899
0.00920043
0.00920043
0.00933392
0.00933392
0.00947955
0.00947955
0.00963741
0.00963741
0.00980756
0.00980756
0.00999001
0.00999001
0.0101848
0.0101848
0.0103918
0.0103918
0.0106109
0.0106109
0.0108421
0.0108421
0.0110851
0.0110851
0.0113397
0.0113397
0.0116056
0.0116056
0.0118825
0.0118825
0.0121702
0.0121702
0.0124683
0.0124683
0.0127766
0.0127766
0.0130945
0.0130945
0.013422
0.013422
0.0137586
0.0137586
0.014104
0.014104
0.0144577
0.0144577
0.0148193
0.0148193
0.0151882
0.0151882
0.0155636
0.0155636
0.0159446
0.0159446
0.01633
0.01633
0.0167184
0.0167184
0.0171083
0.0171083
0.0174977
0.0174977
0.0178849
0.0178849
0.0182675
0.0182675
0.0186437
0.0186437
0.0190113
0.0190113
0.0193684
0.0193684
0.0197135
0.0197135
0.0200452
0.0200452
0.0203626
0.0203626
0.0206651
0.0206651
0.0209524
0.0209524
0.0212246
0.0212246
0.021482
0.021482
0.0217251
0.0217251
0.0219545
0.0219545
0.022171
0.022171
0.0223753
0.0223753
0.022568
0.022568
0.0227497
0.0227497
0.0229206
0.0229206
0.023081
0.023081
0.0232307
0.0232307
0.0233695
0.0233695
0.0234968
0.0234968
0.0236115
0.0236115
0.0237125
0.0237125
0.0237982
0.0237982
0.0238668
0.0238668
0.0239163
0.0239163
0.0239446
0.0239446
0.0239496
0.0239496
0.023929
0.023929
0.0238809
0.0238809
0.0238035
0.0238035
0.0236954
0.0236954
0.0235555
0.0235555
0.0233831
0.0233831
0.0231779
0.0231779
0.0229398
0.0229398
0.0226694
0.0226694
0.0223671
0.0223671
0.0220341
0.0220341
0.0216715
0.0216715
0.0212807
0.0212807
0.0208636
0.0208636
0.0204221
0.0204221
0.0199585
0.0199585
0.0194752
0.0194752
0.0189751
0.0189751
0.0184612
0.0184612
0.0179365
0.0179365
0.0174044
0.0174044
0.0168682
0.0168682
0.016331
0.016331
0.0157963
0.0157963
0.0152668
0.0152668
0.0147456
0.0147456
0.0142349
0.0142349
0.0137369
0.0137369
0.0132531
0.0132531
0.0127844
0.0127844
0.0123311
0.0123311
0.0118926
0.0118926
0.0114678
0.0114678
0.0110543
0.0110543
0.0106496
0.0106496
0.0102505
0.0102505
0.00985387
0.00985387
0.00945711
0.00945711
0.0090583
0.0090583
0.00865647
0.00865647
0.00825156
0.00825156
0.00784427
0.00784427
0.00743582
0.00743582
0.00702778
0.00702778
0.00662188
0.00662188
0.00621996
0.00621996
0.00582383
0.00582383
0.0054353
0.0054353
0.00505605
0.00505605
0.00468767
0.00468767
0.00433157
0.00433157
0.00398902
0.00398902
0.00366107
0.00366107
0.00334857
0.00334857
0.00305218
0.00305218
0.00277236
0.00277236
0.00250938
0.00250938
0.00226334
0.00226334
0.00203414
0.00203414
0.00182157
0.00182157
0.00162523
0.00162523
0.00144464
0.00144464
0.00127921
0.00127921
0.00112827
0.00112827
0.00099109
0.00099109
0.000866911
0.000866911
0.000754941
0.000754941
0.00065438
0.00065438
0.000564431
0.000564431
0.000484308
0.000484308
0.000413246
0.000413246
0.000350504
0.000350504
0.000295369
0.000295369
0.000247163
0.000247163
0.000205244
0.000205244
0.000169003
0.000169003
0.000137872
0.000137872
0.000111317
0.000111317
8.88406e-05
8.88406e-05
6.99812e-05
6.99812e-05
5.43114e-05
5.43114e-05
4.14367e-05
4.14367e-05
3.09939e-05
3.09939e-05
2.26499e-05
2.26499e-05
1.61002e-05
1.61002e-05
1.10673e-05
1.10673e-05
7.29947e-06
7.29947e-06
4.56906e-06
4.56906e-06
2.67162e-06
2.67162e-06
1.42463e-06
1.42463e-06
6.66611e-07
6.66611e-07
2.56685e-07
2.56685e-07
7.52192e-08
7.52192e-08
3.07386e-08
3.07386e-08
1.44291e-07
1.44291e-07
)
;

boundaryField
{
    walls
    {
        type            kqRWallFunction;
        value           nonuniform List<scalar> 8(1.44288e-07 1.44287e-07 1.44287e-07 1.44287e-07 1.44291e-07 1.44291e-07 1.44291e-07 1.44291e-07);
    }
    inlet
    {
        type            cyclic;
    }
    outlet
    {
        type            cyclic;
    }
    sides
    {
        type            empty;
    }
}


// ************************************************************************* //
