/*--------------------------------*- C++ -*----------------------------------*\
| =========                 |                                                 |
| \\      /  F ield         | OpenFOAM: The Open Source CFD Toolbox           |
|  \\    /   O peration     | Version:  2012                                  |
|   \\  /    A nd           | Website:  www.openfoam.com                      |
|    \\/     M anipulation  |                                                 |
\*---------------------------------------------------------------------------*/
FoamFile
{
    version     2.0;
    format      ascii;
    class       volScalarField;
    location    "18000";
    object      omega;
}
// * * * * * * * * * * * * * * * * * * * * * * * * * * * * * * * * * * * * * //

dimensions      [0 0 -1 0 0 0 0];


internalField   nonuniform List<scalar> 
2560
(
1.52415e+06
1.52415e+06
265169
265169
89885
89885
42384.8
42384.8
24022.6
24022.6
15256
15256
10456.1
10456.1
7565.98
7565.98
5700.52
5700.52
4431.19
4431.19
3530.99
3530.99
2870.97
2870.97
2373.64
2373.64
1990.27
1990.27
1688.99
1688.99
1448.27
1448.27
1253.17
1253.17
1093.05
1093.05
960.18
960.18
848.844
848.844
754.736
754.736
674.564
674.564
605.783
605.783
546.397
546.397
494.825
494.825
449.801
449.801
410.305
410.305
375.503
375.503
344.713
344.713
317.37
317.37
293.004
293.004
271.221
271.221
251.689
251.689
234.127
234.127
218.295
218.295
203.988
203.988
191.028
191.028
179.264
179.264
168.562
168.562
158.806
158.806
149.895
149.895
141.74
141.74
134.262
134.262
127.391
127.391
121.066
121.066
115.23
115.23
109.834
109.834
104.832
104.832
100.184
100.184
95.8533
95.8533
91.8071
91.8071
88.0161
88.0161
84.454
84.454
81.0978
81.0978
77.9277
77.9277
74.9274
74.9274
72.0843
72.0843
69.3898
69.3898
66.8392
66.8392
64.431
64.431
62.1656
62.1656
60.0442
60.0442
58.0674
58.0674
56.234
56.234
54.5408
54.5408
52.9824
52.9824
51.552
51.552
50.2411
50.2411
49.0409
49.0409
47.9416
47.9416
46.9335
46.9335
46.0069
46.0069
45.1523
45.1523
44.3606
44.3606
43.6234
43.6234
42.9326
42.9326
42.281
42.281
41.6618
41.6618
41.0692
41.0692
40.4977
40.4977
39.9428
39.9428
39.4004
39.4004
38.8669
38.8669
38.3395
38.3395
37.8157
37.8157
37.2933
37.2933
36.7706
36.7706
36.2463
36.2463
35.7193
35.7193
35.1888
35.1888
34.6544
34.6544
34.1159
34.1159
33.5736
33.5736
33.028
33.028
32.4796
32.4796
31.9296
31.9296
31.3789
31.3789
30.8286
30.8286
30.2801
30.2801
29.7343
29.7343
29.1923
29.1923
28.6549
28.6549
28.1228
28.1228
27.5966
27.5966
27.0764
27.0764
26.5624
26.5624
26.0546
26.0546
25.5526
25.5526
25.0563
25.0563
24.565
24.565
24.0783
24.0783
23.5955
23.5955
23.116
23.116
22.6391
22.6391
22.1644
22.1644
21.6911
21.6911
21.219
21.219
20.7478
20.7478
20.2773
20.2773
19.8075
19.8075
19.3388
19.3388
18.8716
18.8716
18.4064
18.4064
17.9439
17.9439
17.485
17.485
17.0304
17.0304
16.5811
16.5811
16.1376
16.1376
15.7008
15.7008
15.2713
15.2713
14.8494
14.8494
14.4356
14.4356
14.0301
14.0301
13.6333
13.6333
13.245
13.245
12.8655
12.8655
12.4948
12.4948
12.1328
12.1328
11.7796
11.7796
11.4352
11.4352
11.0995
11.0995
10.7727
10.7727
10.4546
10.4546
10.1454
10.1454
9.84499
9.84499
9.55343
9.55343
9.27069
9.27069
8.99674
8.99674
8.73156
8.73156
8.47506
8.47506
8.22718
8.22718
7.98783
7.98783
7.75691
7.75691
7.53429
7.53429
7.31985
7.31985
7.11347
7.11347
6.915
6.915
6.72431
6.72431
6.54125
6.54125
6.36569
6.36569
6.19747
6.19747
6.03646
6.03646
5.88251
5.88251
5.73548
5.73548
5.59522
5.59522
5.4616
5.4616
5.33446
5.33446
5.21364
5.21364
5.099
5.099
4.99038
4.99038
4.8876
4.8876
4.7905
4.7905
4.6989
4.6989
4.61262
4.61262
4.53146
4.53146
4.45524
4.45524
4.38374
4.38374
4.31674
4.31674
4.25401
4.25401
4.19528
4.19528
4.14026
4.14026
4.08864
4.08864
4.04007
4.04007
3.99417
3.99417
3.95054
3.95054
3.90875
3.90875
3.86839
3.86839
3.82902
3.82902
3.79022
3.79022
3.75162
3.75162
3.71284
3.71284
3.67358
3.67358
3.63358
3.63358
3.59262
3.59262
3.55054
3.55054
3.50725
3.50725
3.46267
3.46267
3.41679
3.41679
3.36965
3.36965
3.32129
3.32129
3.27181
3.27181
3.22131
3.22131
3.16992
3.16992
3.11778
3.11778
3.06506
3.06506
3.01189
3.01189
2.95845
2.95845
2.90491
2.90491
2.85143
2.85143
2.79818
2.79818
2.74533
2.74533
2.69303
2.69303
2.64146
2.64146
2.59075
2.59075
2.54105
2.54105
2.49249
2.49249
2.4452
2.4452
2.39926
2.39926
2.35476
2.35476
2.31177
2.31177
2.27034
2.27034
2.2305
2.2305
2.19226
2.19226
2.15563
2.15563
2.12058
2.12058
2.08708
2.08708
2.0551
2.0551
2.02456
2.02456
1.99539
1.99539
1.96748
1.96748
1.94072
1.94072
1.91497
1.91497
1.8901
1.8901
1.86595
1.86595
1.84238
1.84238
1.81926
1.81926
1.79646
1.79646
1.7739
1.7739
1.75149
1.75149
1.72919
1.72919
1.70697
1.70697
1.68482
1.68482
1.66276
1.66276
1.64079
1.64079
1.61894
1.61894
1.59724
1.59724
1.57569
1.57569
1.55432
1.55432
1.53314
1.53314
1.51215
1.51215
1.49134
1.49134
1.4707
1.4707
1.45023
1.45023
1.4299
1.4299
1.40969
1.40969
1.38959
1.38959
1.36958
1.36958
1.34963
1.34963
1.32974
1.32974
1.30989
1.30989
1.29008
1.29008
1.27031
1.27031
1.25059
1.25059
1.23092
1.23092
1.21131
1.21131
1.1918
1.1918
1.17241
1.17241
1.15315
1.15315
1.13408
1.13408
1.11521
1.11521
1.09657
1.09657
1.07821
1.07821
1.06014
1.06014
1.0424
1.0424
1.02501
1.02501
1.008
1.008
0.991381
0.991381
0.975177
0.975177
0.959407
0.959407
0.944086
0.944086
0.929232
0.929232
0.914861
0.914861
0.900987
0.900987
0.887623
0.887623
0.874781
0.874781
0.862468
0.862468
0.850691
0.850691
0.839452
0.839452
0.828748
0.828748
0.818574
0.818574
0.808919
0.808919
0.799769
0.799769
0.791105
0.791105
0.782905
0.782905
0.775145
0.775145
0.767798
0.767798
0.760836
0.760836
0.75423
0.75423
0.747956
0.747956
0.741987
0.741987
0.736303
0.736303
0.730885
0.730885
0.72572
0.72572
0.720797
0.720797
0.716109
0.716109
0.711651
0.711651
0.707421
0.707421
0.703415
0.703415
0.699631
0.699631
0.696065
0.696065
0.69271
0.69271
0.689558
0.689558
0.686602
0.686602
0.683833
0.683833
0.681248
0.681248
0.678854
0.678854
0.676673
0.676673
0.674755
0.674755
0.673187
0.673187
0.672004
0.672004
1.52415e+06
1.52415e+06
265169
265169
89885
89885
42384.8
42384.8
24022.6
24022.6
15256
15256
10456.1
10456.1
7565.98
7565.98
5700.52
5700.52
4431.19
4431.19
3530.99
3530.99
2870.97
2870.97
2373.64
2373.64
1990.27
1990.27
1688.99
1688.99
1448.27
1448.27
1253.17
1253.17
1093.05
1093.05
960.18
960.18
848.844
848.844
754.736
754.736
674.564
674.564
605.783
605.783
546.397
546.397
494.825
494.825
449.801
449.801
410.305
410.305
375.503
375.503
344.713
344.713
317.37
317.37
293.004
293.004
271.221
271.221
251.689
251.689
234.127
234.127
218.295
218.295
203.988
203.988
191.028
191.028
179.264
179.264
168.562
168.562
158.806
158.806
149.895
149.895
141.74
141.74
134.262
134.262
127.391
127.391
121.066
121.066
115.23
115.23
109.834
109.834
104.832
104.832
100.184
100.184
95.8533
95.8533
91.8071
91.8071
88.0161
88.0161
84.454
84.454
81.0978
81.0978
77.9277
77.9277
74.9274
74.9274
72.0843
72.0843
69.3898
69.3898
66.8392
66.8392
64.431
64.431
62.1656
62.1656
60.0442
60.0442
58.0674
58.0674
56.234
56.234
54.5408
54.5408
52.9824
52.9824
51.552
51.552
50.2411
50.2411
49.0409
49.0409
47.9416
47.9416
46.9335
46.9335
46.0069
46.0069
45.1523
45.1523
44.3606
44.3606
43.6234
43.6234
42.9326
42.9326
42.281
42.281
41.6618
41.6618
41.0692
41.0692
40.4977
40.4977
39.9428
39.9428
39.4004
39.4004
38.8669
38.8669
38.3395
38.3395
37.8157
37.8157
37.2933
37.2933
36.7706
36.7706
36.2463
36.2463
35.7193
35.7193
35.1888
35.1888
34.6544
34.6544
34.1159
34.1159
33.5736
33.5736
33.028
33.028
32.4796
32.4796
31.9296
31.9296
31.3789
31.3789
30.8286
30.8286
30.2801
30.2801
29.7343
29.7343
29.1923
29.1923
28.6549
28.6549
28.1228
28.1228
27.5966
27.5966
27.0764
27.0764
26.5624
26.5624
26.0546
26.0546
25.5526
25.5526
25.0563
25.0563
24.565
24.565
24.0783
24.0783
23.5955
23.5955
23.116
23.116
22.6391
22.6391
22.1644
22.1644
21.6911
21.6911
21.219
21.219
20.7478
20.7478
20.2773
20.2773
19.8075
19.8075
19.3388
19.3388
18.8716
18.8716
18.4064
18.4064
17.9439
17.9439
17.485
17.485
17.0304
17.0304
16.5811
16.5811
16.1376
16.1376
15.7008
15.7008
15.2713
15.2713
14.8494
14.8494
14.4356
14.4356
14.0301
14.0301
13.6333
13.6333
13.245
13.245
12.8655
12.8655
12.4948
12.4948
12.1328
12.1328
11.7796
11.7796
11.4352
11.4352
11.0995
11.0995
10.7727
10.7727
10.4546
10.4546
10.1454
10.1454
9.84499
9.84499
9.55343
9.55343
9.27069
9.27069
8.99674
8.99674
8.73155
8.73155
8.47506
8.47506
8.22718
8.22718
7.98783
7.98783
7.75691
7.75691
7.53429
7.53429
7.31985
7.31985
7.11347
7.11347
6.915
6.915
6.72431
6.72431
6.54125
6.54125
6.36569
6.36569
6.19747
6.19747
6.03646
6.03646
5.88251
5.88251
5.73548
5.73548
5.59522
5.59522
5.4616
5.4616
5.33446
5.33446
5.21364
5.21364
5.099
5.099
4.99038
4.99038
4.8876
4.8876
4.7905
4.7905
4.6989
4.6989
4.61262
4.61262
4.53146
4.53146
4.45524
4.45524
4.38374
4.38374
4.31674
4.31674
4.25401
4.25401
4.19528
4.19528
4.14026
4.14026
4.08864
4.08864
4.04007
4.04007
3.99417
3.99417
3.95054
3.95054
3.90875
3.90875
3.86839
3.86839
3.82902
3.82902
3.79022
3.79022
3.75161
3.75161
3.71284
3.71284
3.67358
3.67358
3.63358
3.63358
3.59262
3.59262
3.55054
3.55054
3.50725
3.50725
3.46267
3.46267
3.41679
3.41679
3.36965
3.36965
3.32129
3.32129
3.27181
3.27181
3.22131
3.22131
3.16992
3.16992
3.11778
3.11778
3.06505
3.06505
3.01189
3.01189
2.95845
2.95845
2.90491
2.90491
2.85143
2.85143
2.79818
2.79818
2.74533
2.74533
2.69303
2.69303
2.64146
2.64146
2.59075
2.59075
2.54105
2.54105
2.49249
2.49249
2.4452
2.4452
2.39926
2.39926
2.35476
2.35476
2.31177
2.31177
2.27034
2.27034
2.2305
2.2305
2.19226
2.19226
2.15563
2.15563
2.12058
2.12058
2.08708
2.08708
2.0551
2.0551
2.02456
2.02456
1.99539
1.99539
1.96748
1.96748
1.94072
1.94072
1.91497
1.91497
1.8901
1.8901
1.86595
1.86595
1.84238
1.84238
1.81926
1.81926
1.79646
1.79646
1.7739
1.7739
1.75149
1.75149
1.72919
1.72919
1.70697
1.70697
1.68482
1.68482
1.66276
1.66276
1.64079
1.64079
1.61894
1.61894
1.59724
1.59724
1.57569
1.57569
1.55432
1.55432
1.53314
1.53314
1.51215
1.51215
1.49134
1.49134
1.4707
1.4707
1.45023
1.45023
1.4299
1.4299
1.40969
1.40969
1.38959
1.38959
1.36958
1.36958
1.34963
1.34963
1.32974
1.32974
1.30989
1.30989
1.29008
1.29008
1.27031
1.27031
1.25059
1.25059
1.23092
1.23092
1.21131
1.21131
1.1918
1.1918
1.17241
1.17241
1.15315
1.15315
1.13408
1.13408
1.11521
1.11521
1.09657
1.09657
1.07821
1.07821
1.06014
1.06014
1.0424
1.0424
1.02501
1.02501
1.008
1.008
0.991382
0.991382
0.975178
0.975178
0.959407
0.959407
0.944086
0.944086
0.929232
0.929232
0.914861
0.914861
0.900987
0.900987
0.887623
0.887623
0.874781
0.874781
0.862468
0.862468
0.850691
0.850691
0.839452
0.839452
0.828748
0.828748
0.818574
0.818574
0.808919
0.808919
0.799769
0.799769
0.791105
0.791105
0.782905
0.782905
0.775145
0.775145
0.767798
0.767798
0.760836
0.760836
0.75423
0.75423
0.747956
0.747956
0.741987
0.741987
0.736302
0.736302
0.730885
0.730885
0.72572
0.72572
0.720797
0.720797
0.716109
0.716109
0.711651
0.711651
0.707421
0.707421
0.703415
0.703415
0.699631
0.699631
0.696065
0.696065
0.69271
0.69271
0.689558
0.689558
0.686602
0.686602
0.683833
0.683833
0.681248
0.681248
0.678854
0.678854
0.676673
0.676673
0.674755
0.674755
0.673188
0.673188
0.672005
0.672005
0.672005
0.672005
0.673188
0.673188
0.674756
0.674756
0.676674
0.676674
0.678855
0.678855
0.681249
0.681249
0.683834
0.683834
0.686603
0.686603
0.68956
0.68956
0.69271
0.69271
0.696064
0.696064
0.69963
0.69963
0.703414
0.703414
0.707419
0.707419
0.71165
0.71165
0.716108
0.716108
0.720797
0.720797
0.725721
0.725721
0.730887
0.730887
0.736305
0.736305
0.741989
0.741989
0.747958
0.747958
0.754234
0.754234
0.760839
0.760839
0.767802
0.767802
0.775148
0.775148
0.782908
0.782908
0.791107
0.791107
0.799771
0.799771
0.808921
0.808921
0.818575
0.818575
0.828749
0.828749
0.839452
0.839452
0.850691
0.850691
0.862469
0.862469
0.874781
0.874781
0.887624
0.887624
0.900988
0.900988
0.914863
0.914863
0.929234
0.929234
0.944088
0.944088
0.959409
0.959409
0.97518
0.97518
0.991384
0.991384
1.008
1.008
1.02502
1.02502
1.0424
1.0424
1.06014
1.06014
1.07821
1.07821
1.09657
1.09657
1.11521
1.11521
1.13408
1.13408
1.15316
1.15316
1.17241
1.17241
1.1918
1.1918
1.21131
1.21131
1.23091
1.23091
1.25059
1.25059
1.27031
1.27031
1.29008
1.29008
1.30989
1.30989
1.32973
1.32973
1.34963
1.34963
1.36957
1.36957
1.38959
1.38959
1.40969
1.40969
1.4299
1.4299
1.45023
1.45023
1.4707
1.4707
1.49134
1.49134
1.51215
1.51215
1.53314
1.53314
1.55432
1.55432
1.57569
1.57569
1.59724
1.59724
1.61894
1.61894
1.64079
1.64079
1.66276
1.66276
1.68482
1.68482
1.70697
1.70697
1.72919
1.72919
1.75149
1.75149
1.7739
1.7739
1.79646
1.79646
1.81926
1.81926
1.84238
1.84238
1.86595
1.86595
1.8901
1.8901
1.91498
1.91498
1.94073
1.94073
1.96749
1.96749
1.9954
1.9954
2.02457
2.02457
2.05511
2.05511
2.08709
2.08709
2.12058
2.12058
2.15563
2.15563
2.19227
2.19227
2.23051
2.23051
2.27035
2.27035
2.31178
2.31178
2.35477
2.35477
2.39927
2.39927
2.44521
2.44521
2.4925
2.4925
2.54106
2.54106
2.59076
2.59076
2.64147
2.64147
2.69305
2.69305
2.74534
2.74534
2.7982
2.7982
2.85145
2.85145
2.90493
2.90493
2.95847
2.95847
3.01191
3.01191
3.06508
3.06508
3.11781
3.11781
3.16994
3.16994
3.22133
3.22133
3.27183
3.27183
3.32132
3.32132
3.36968
3.36968
3.41683
3.41683
3.4627
3.4627
3.50728
3.50728
3.55058
3.55058
3.59266
3.59266
3.63362
3.63362
3.67362
3.67362
3.71288
3.71288
3.75166
3.75166
3.79027
3.79027
3.82907
3.82907
3.86844
3.86844
3.90881
3.90881
3.95059
3.95059
3.99423
3.99423
4.04013
4.04013
4.08871
4.08871
4.14033
4.14033
4.19535
4.19535
4.25409
4.25409
4.31682
4.31682
4.38382
4.38382
4.45533
4.45533
4.53156
4.53156
4.61271
4.61271
4.699
4.699
4.79061
4.79061
4.88771
4.88771
4.99049
4.99049
5.09912
5.09912
5.21377
5.21377
5.33458
5.33458
5.46173
5.46173
5.59536
5.59536
5.73562
5.73562
5.88266
5.88266
6.03661
6.03661
6.19763
6.19763
6.36585
6.36585
6.54142
6.54142
6.72449
6.72449
6.91519
6.91519
7.11366
7.11366
7.32005
7.32005
7.53449
7.53449
7.75711
7.75711
7.98804
7.98804
8.2274
8.2274
8.47528
8.47528
8.73178
8.73178
8.99697
8.99697
9.27092
9.27092
9.55366
9.55366
9.84523
9.84523
10.1456
10.1456
10.4549
10.4549
10.7729
10.7729
11.0998
11.0998
11.4354
11.4354
11.7798
11.7798
12.133
12.133
12.495
12.495
12.8658
12.8658
13.2453
13.2453
13.6335
13.6335
14.0304
14.0304
14.4358
14.4358
14.8496
14.8496
15.2715
15.2715
15.7011
15.7011
16.1379
16.1379
16.5813
16.5813
17.0307
17.0307
17.4853
17.4853
17.9442
17.9442
18.4067
18.4067
18.8719
18.8719
19.3391
19.3391
19.8078
19.8078
20.2776
20.2776
20.7481
20.7481
21.2194
21.2194
21.6915
21.6915
22.1647
22.1647
22.6395
22.6395
23.1164
23.1164
23.5959
23.5959
24.0787
24.0787
24.5654
24.5654
25.0567
25.0567
25.5531
25.5531
26.055
26.055
26.5628
26.5628
27.0768
27.0768
27.597
27.597
28.1232
28.1232
28.6553
28.6553
29.1926
29.1926
29.7346
29.7346
30.2804
30.2804
30.8289
30.8289
31.3791
31.3791
31.9298
31.9298
32.4799
32.4799
33.0282
33.0282
33.5738
33.5738
34.1161
34.1161
34.6545
34.6545
35.1889
35.1889
35.7194
35.7194
36.2464
36.2464
36.7707
36.7707
37.2934
37.2934
37.8157
37.8157
38.3396
38.3396
38.8669
38.8669
39.4003
39.4003
39.9427
39.9427
40.4976
40.4976
41.069
41.069
41.6616
41.6616
42.2807
42.2807
42.9323
42.9323
43.623
43.623
44.3603
44.3603
45.1518
45.1518
46.0064
46.0064
46.9329
46.9329
47.9409
47.9409
49.0401
49.0401
50.2402
50.2402
51.5509
51.5509
52.9812
52.9812
54.5393
54.5393
56.2324
56.2324
58.0656
58.0656
60.0422
60.0422
62.1633
62.1633
64.4285
64.4285
66.8366
66.8366
69.3872
69.3872
72.0817
72.0817
74.9249
74.9249
77.9253
77.9253
81.0955
81.0955
84.4519
84.4519
88.0142
88.0142
91.8054
91.8054
95.8516
95.8516
100.182
100.182
104.83
104.83
109.832
109.832
115.229
115.229
121.065
121.065
127.39
127.39
134.261
134.261
141.739
141.739
149.894
149.894
158.805
158.805
168.561
168.561
179.264
179.264
191.028
191.028
203.988
203.988
218.295
218.295
234.127
234.127
251.689
251.689
271.221
271.221
293.004
293.004
317.37
317.37
344.713
344.713
375.503
375.503
410.305
410.305
449.801
449.801
494.825
494.825
546.397
546.397
605.783
605.783
674.564
674.564
754.736
754.736
848.844
848.844
960.18
960.18
1093.05
1093.05
1253.17
1253.17
1448.27
1448.27
1688.99
1688.99
1990.28
1990.28
2373.64
2373.64
2870.97
2870.97
3530.99
3530.99
4431.2
4431.2
5700.52
5700.52
7565.97
7565.97
10456.1
10456.1
15256
15256
24022.6
24022.6
42384.8
42384.8
89885.2
89885.2
265169
265169
1.52416e+06
1.52416e+06
0.672005
0.672005
0.673188
0.673188
0.674756
0.674756
0.676674
0.676674
0.678855
0.678855
0.681249
0.681249
0.683834
0.683834
0.686603
0.686603
0.68956
0.68956
0.69271
0.69271
0.696064
0.696064
0.69963
0.69963
0.703414
0.703414
0.707419
0.707419
0.71165
0.71165
0.716108
0.716108
0.720797
0.720797
0.725721
0.725721
0.730886
0.730886
0.736304
0.736304
0.741989
0.741989
0.747958
0.747958
0.754234
0.754234
0.760839
0.760839
0.767801
0.767801
0.775148
0.775148
0.782908
0.782908
0.791107
0.791107
0.799771
0.799771
0.808921
0.808921
0.818575
0.818575
0.828749
0.828749
0.839452
0.839452
0.850691
0.850691
0.862469
0.862469
0.874782
0.874782
0.887624
0.887624
0.900989
0.900989
0.914863
0.914863
0.929234
0.929234
0.944088
0.944088
0.959409
0.959409
0.97518
0.97518
0.991384
0.991384
1.008
1.008
1.02502
1.02502
1.04241
1.04241
1.06014
1.06014
1.07821
1.07821
1.09657
1.09657
1.11521
1.11521
1.13408
1.13408
1.15316
1.15316
1.17241
1.17241
1.1918
1.1918
1.21131
1.21131
1.23091
1.23091
1.25059
1.25059
1.27031
1.27031
1.29008
1.29008
1.30989
1.30989
1.32973
1.32973
1.34963
1.34963
1.36957
1.36957
1.38959
1.38959
1.40969
1.40969
1.4299
1.4299
1.45023
1.45023
1.4707
1.4707
1.49134
1.49134
1.51215
1.51215
1.53314
1.53314
1.55432
1.55432
1.57569
1.57569
1.59724
1.59724
1.61894
1.61894
1.64079
1.64079
1.66276
1.66276
1.68482
1.68482
1.70697
1.70697
1.72919
1.72919
1.75149
1.75149
1.7739
1.7739
1.79646
1.79646
1.81926
1.81926
1.84238
1.84238
1.86595
1.86595
1.8901
1.8901
1.91498
1.91498
1.94073
1.94073
1.96749
1.96749
1.9954
1.9954
2.02457
2.02457
2.05511
2.05511
2.08709
2.08709
2.12058
2.12058
2.15563
2.15563
2.19227
2.19227
2.23051
2.23051
2.27035
2.27035
2.31178
2.31178
2.35477
2.35477
2.39927
2.39927
2.44521
2.44521
2.4925
2.4925
2.54106
2.54106
2.59076
2.59076
2.64147
2.64147
2.69305
2.69305
2.74534
2.74534
2.7982
2.7982
2.85145
2.85145
2.90493
2.90493
2.95847
2.95847
3.01191
3.01191
3.06508
3.06508
3.11781
3.11781
3.16994
3.16994
3.22133
3.22133
3.27183
3.27183
3.32132
3.32132
3.36968
3.36968
3.41682
3.41682
3.4627
3.4627
3.50728
3.50728
3.55058
3.55058
3.59266
3.59266
3.63362
3.63362
3.67362
3.67362
3.71288
3.71288
3.75166
3.75166
3.79027
3.79027
3.82907
3.82907
3.86844
3.86844
3.90881
3.90881
3.95059
3.95059
3.99423
3.99423
4.04013
4.04013
4.08871
4.08871
4.14033
4.14033
4.19535
4.19535
4.25409
4.25409
4.31682
4.31682
4.38382
4.38382
4.45533
4.45533
4.53155
4.53155
4.61271
4.61271
4.699
4.699
4.79061
4.79061
4.88771
4.88771
4.99049
4.99049
5.09912
5.09912
5.21377
5.21377
5.33458
5.33458
5.46173
5.46173
5.59536
5.59536
5.73562
5.73562
5.88266
5.88266
6.03661
6.03661
6.19763
6.19763
6.36585
6.36585
6.54142
6.54142
6.72449
6.72449
6.91518
6.91518
7.11366
7.11366
7.32005
7.32005
7.53449
7.53449
7.75711
7.75711
7.98804
7.98804
8.2274
8.2274
8.47528
8.47528
8.73178
8.73178
8.99697
8.99697
9.27092
9.27092
9.55366
9.55366
9.84523
9.84523
10.1456
10.1456
10.4549
10.4549
10.7729
10.7729
11.0998
11.0998
11.4354
11.4354
11.7798
11.7798
12.133
12.133
12.495
12.495
12.8658
12.8658
13.2453
13.2453
13.6335
13.6335
14.0304
14.0304
14.4358
14.4358
14.8496
14.8496
15.2715
15.2715
15.7011
15.7011
16.1379
16.1379
16.5813
16.5813
17.0307
17.0307
17.4853
17.4853
17.9442
17.9442
18.4067
18.4067
18.8719
18.8719
19.3391
19.3391
19.8078
19.8078
20.2776
20.2776
20.7481
20.7481
21.2194
21.2194
21.6915
21.6915
22.1647
22.1647
22.6395
22.6395
23.1164
23.1164
23.5959
23.5959
24.0787
24.0787
24.5654
24.5654
25.0567
25.0567
25.5531
25.5531
26.055
26.055
26.5628
26.5628
27.0768
27.0768
27.597
27.597
28.1232
28.1232
28.6553
28.6553
29.1926
29.1926
29.7346
29.7346
30.2804
30.2804
30.8289
30.8289
31.3791
31.3791
31.9298
31.9298
32.4799
32.4799
33.0282
33.0282
33.5738
33.5738
34.1161
34.1161
34.6545
34.6545
35.1889
35.1889
35.7194
35.7194
36.2464
36.2464
36.7707
36.7707
37.2934
37.2934
37.8157
37.8157
38.3395
38.3395
38.8669
38.8669
39.4003
39.4003
39.9427
39.9427
40.4976
40.4976
41.069
41.069
41.6616
41.6616
42.2807
42.2807
42.9323
42.9323
43.623
43.623
44.3602
44.3602
45.1518
45.1518
46.0064
46.0064
46.9329
46.9329
47.9409
47.9409
49.0401
49.0401
50.2402
50.2402
51.5509
51.5509
52.9812
52.9812
54.5393
54.5393
56.2324
56.2324
58.0656
58.0656
60.0422
60.0422
62.1633
62.1633
64.4285
64.4285
66.8366
66.8366
69.3872
69.3872
72.0817
72.0817
74.9249
74.9249
77.9253
77.9253
81.0955
81.0955
84.4519
84.4519
88.0142
88.0142
91.8054
91.8054
95.8516
95.8516
100.182
100.182
104.83
104.83
109.832
109.832
115.229
115.229
121.065
121.065
127.39
127.39
134.261
134.261
141.739
141.739
149.894
149.894
158.805
158.805
168.561
168.561
179.264
179.264
191.028
191.028
203.988
203.988
218.295
218.295
234.127
234.127
251.689
251.689
271.221
271.221
293.004
293.004
317.37
317.37
344.713
344.713
375.503
375.503
410.305
410.305
449.801
449.801
494.825
494.825
546.397
546.397
605.783
605.783
674.564
674.564
754.736
754.736
848.844
848.844
960.18
960.18
1093.05
1093.05
1253.17
1253.17
1448.27
1448.27
1688.99
1688.99
1990.28
1990.28
2373.64
2373.64
2870.97
2870.97
3530.99
3530.99
4431.2
4431.2
5700.52
5700.52
7565.97
7565.97
10456.1
10456.1
15256
15256
24022.6
24022.6
42384.8
42384.8
89885.2
89885.2
265169
265169
1.52416e+06
1.52416e+06
)
;

boundaryField
{
    walls
    {
        blending        binomial2;
        n               2;
        beta1           0.075;
        type            omegaWallFunction;
        value           nonuniform List<scalar> 8(1.52415e+06 1.52415e+06 1.52415e+06 1.52415e+06 1.52416e+06 1.52416e+06 1.52416e+06 1.52416e+06);
    }
    inlet
    {
        type            cyclic;
    }
    outlet
    {
        type            cyclic;
    }
    sides
    {
        type            empty;
    }
}


// ************************************************************************* //
