/*--------------------------------*- C++ -*----------------------------------*\
| =========                 |                                                 |
| \\      /  F ield         | OpenFOAM: The Open Source CFD Toolbox           |
|  \\    /   O peration     | Version:  2012                                  |
|   \\  /    A nd           | Website:  www.openfoam.com                      |
|    \\/     M anipulation  |                                                 |
\*---------------------------------------------------------------------------*/
FoamFile
{
    version     2.0;
    format      ascii;
    class       volTensorField;
    location    "14000";
    object      grad(U);
}
// * * * * * * * * * * * * * * * * * * * * * * * * * * * * * * * * * * * * * //

dimensions      [0 0 -1 0 0 0 0];


internalField   nonuniform List<tensor> 
2560
(
(-9.14312e-18 -6.68758e-18 -6.97565e-23 29.3862 -2.72305e-05 -0.000321401 0.0425412 -7.88337e-08 -2.18668e-07)
(0 0 -3.64813e-17 29.3862 -0.000312416 -0.00031419 0.0425412 -1.20041e-06 -2.26284e-07)
(-1.80242e-17 1.83696e-17 -2.92257e-17 29.3811 -3.32365e-25 -4.87818e-05 0.128226 0 -1.43279e-07)
(0 6.47337e-24 -3.27133e-22 29.3811 2.71051e-20 -4.9318e-05 0.128226 2.33228e-08 -1.44854e-07)
(-5.38585e-18 0 1.52022e-22 29.3765 -4.23831e-05 -2.44648e-05 0.176334 1.39297e-07 -1.48364e-07)
(0 0 0 29.3765 4.34608e-05 -2.47302e-05 0.176334 1.29507e-07 -1.49953e-07)
(5.22922e-17 1.67e-23 -1.56619e-22 29.3717 -1.21949e-05 -2.48682e-05 0.178868 3.31025e-08 -1.52389e-07)
(-3.50224e-17 -1.67e-23 0 29.3717 -1.49748e-05 -2.51424e-05 0.178868 4.5675e-10 -1.54118e-07)
(0 3.29212e-23 -5.2674e-22 29.3666 6.47965e-06 -2.51919e-05 0.181436 2.83395e-08 -1.56711e-07)
(0 -1.64606e-23 0 29.3666 7.45734e-06 -2.54782e-05 0.181436 -7.71039e-09 -1.58495e-07)
(1.09606e-16 3.24494e-23 -6.85181e-22 29.3606 8.34588e-06 -2.55431e-05 0.184033 3.78598e-08 -1.61256e-07)
(3.32434e-16 -3.24494e-23 -1.36413e-21 29.3606 8.79063e-06 -2.58365e-05 0.184033 -1.15851e-09 -1.63125e-07)
(1.31155e-17 0 6.82587e-22 29.3529 7.06977e-06 -2.59082e-05 0.186654 4.04019e-08 -1.65946e-07)
(1.48766e-16 0 -1.21361e-21 29.3529 7.48438e-06 -2.62121e-05 0.186654 7.71404e-10 -1.67916e-07)
(-1.98775e-16 0 1.75822e-22 29.343 6.92113e-06 -2.62743e-05 0.189296 4.08774e-08 -1.70703e-07)
(2.66181e-16 0 -2.17825e-22 29.343 7.01243e-06 -2.65958e-05 0.189296 4.73383e-10 -1.72855e-07)
(2.09644e-16 3.1074e-23 -1.80939e-22 29.3313 6.9992e-06 -2.66384e-05 0.191968 4.12408e-08 -1.75574e-07)
(0 -3.1074e-23 0 29.3313 6.62606e-06 -2.69881e-05 0.191968 -9.0764e-10 -1.77971e-07)
(-1.28466e-16 0 0 29.3187 8.19948e-06 -2.7001e-05 0.194674 4.0257e-08 -1.80521e-07)
(0 0 4.90059e-22 29.3187 6.64253e-06 -2.73967e-05 0.194674 -4.94074e-09 -1.83345e-07)
(-1.05383e-16 0 6.74609e-22 29.3052 1.42287e-05 -2.73606e-05 0.197409 4.37486e-08 -1.85563e-07)
(0 0 0 29.3052 1.17112e-05 -2.78338e-05 0.197409 -6.64488e-09 -1.89075e-07)
(2.43508e-16 1.16011e-18 2.78961e-22 29.29 9.47958e-08 -2.76745e-05 0.20017 3.2167e-10 -1.90101e-07)
(-1.2481e-16 0 -4.76112e-22 29.29 2.75462e-05 -2.82703e-05 0.20017 3.05235e-08 -1.94684e-07)
(2.46042e-16 0 0 29.2733 0.000173484 -2.77666e-05 0.202959 1.19486e-07 -1.92276e-07)
(0 0 -4.69288e-22 29.2733 4.17897e-05 -2.85344e-05 0.202959 1.18757e-07 -1.98277e-07)
(-1.45894e-16 2.81898e-18 2.09004e-22 29.2542 -1.34264e-23 -2.73019e-05 0.205765 1.05879e-22 -1.8913e-07)
(5.83577e-16 0 -8.56023e-22 29.2542 2.04101e-05 -2.81893e-05 0.205765 -3.46212e-07 -1.9553e-07)
(0 0 0 29.2312 -0.000167064 -2.59699e-05 0.208576 2.52465e-07 -1.78892e-07)
(0 -8.52652e-19 0 29.2312 -3.16175e-05 -2.68085e-05 0.208576 1.12036e-07 -1.84371e-07)
(-1.73865e-16 0 2.17892e-22 29.203 -5.80345e-05 -2.38962e-05 0.211384 -5.91714e-09 -1.64633e-07)
(6.95461e-16 0 -8.7866e-22 29.203 -6.2941e-05 -2.46021e-05 0.211384 -5.59273e-08 -1.693e-07)
(0 -2.76848e-23 0 29.1689 -1.81953e-05 -2.18117e-05 0.214185 -2.40061e-07 -1.535e-07)
(-7.52577e-16 2.76848e-23 8.80633e-22 29.1689 -1.51489e-05 -2.24141e-05 0.214185 -2.95112e-07 -1.57618e-07)
(0 0 -8.73215e-22 29.1299 3.88613e-05 -2.04177e-05 0.216994 -1.85275e-07 -1.48672e-07)
(-8.10467e-16 0 1.75833e-21 29.1299 4.0797e-05 -2.0957e-05 0.216994 -2.31628e-07 -1.52536e-07)
(2.25627e-16 2.97031e-19 0 29.0883 2.67049e-05 -1.97152e-05 0.219831 -7.87393e-09 -1.47371e-07)
(0 0 -8.607e-22 29.0883 3.50913e-05 -2.0221e-05 0.219831 -5.33486e-08 -1.51101e-07)
(2.32135e-16 5.21246e-19 -2.2506e-22 29.0463 0 -1.93107e-05 0.222705 0 -1.46821e-07)
(-9.28539e-16 0 9.10143e-22 29.0463 5.46019e-06 -1.98003e-05 0.222705 -3.20552e-08 -1.5055e-07)
(0 0 0 29.003 1.8488e-05 -1.9051e-05 0.225597 -3.80923e-08 -1.47644e-07)
(0 0 0 29.003 1.88327e-05 -1.95347e-05 0.225597 -7.95946e-08 -1.51392e-07)
(-2.6244e-16 0 2.33086e-22 28.9559 6.02764e-05 -1.88993e-05 0.228485 8.46165e-08 -1.48726e-07)
(0 0 0 28.9559 6.05726e-05 -1.93819e-05 0.228485 4.32271e-08 -1.52547e-07)
(-2.77896e-16 0 -5.7494e-22 28.9028 6.7886e-05 -1.83718e-05 0.231355 3.61658e-07 -1.43515e-07)
(0 0 0 28.9028 6.81142e-05 -1.88562e-05 0.231355 3.2039e-07 -1.47402e-07)
(0 2.21452e-18 0 28.8429 2.03098e-20 -1.65448e-05 0.234204 0 -1.2338e-07)
(-1.17422e-15 -2.05321e-22 9.72328e-22 28.8429 2.15927e-05 -1.70328e-05 0.234204 1.37353e-07 -1.27371e-07)
(3.09413e-16 9.6381e-19 -2.35832e-22 28.7761 -2.57608e-05 -1.27466e-05 0.23703 1.05459e-07 -1.0517e-07)
(0 -8.75283e-19 0 28.7761 -3.33e-05 -1.32386e-05 0.23703 1.36323e-07 -8.91372e-08)
(-1.05883e-15 0 -3.35206e-22 28.7021 -6.85138e-05 -7.17243e-06 0.239826 1.34802e-07 -1.09236e-07)
(4.07882e-16 0 7.77973e-22 28.7021 -6.83343e-05 -7.66753e-06 0.239826 9.37374e-08 -3.78757e-08)
(1.42723e-15 9.58529e-23 -6.07279e-22 28.62 -5.25386e-05 -8.18468e-07 0.242581 -2.01547e-07 -1.13396e-07)
(2.73385e-15 0 0 28.62 -5.25504e-05 -5.27278e-20 0.242581 -2.42927e-07 -4.85937e-35)
(0 0 0 28.5292 -1.6605e-05 5.11764e-06 0.245286 -3.96528e-07 -1.17613e-07)
(1.43275e-15 0 -1.11954e-19 28.5292 -1.64936e-05 3.76444e-06 0.245286 -4.38475e-07 -1.6093e-08)
(3.74841e-16 0 -2.36415e-22 28.4289 1.07433e-05 9.78831e-06 0.247935 -4.36275e-07 -1.21912e-07)
(-3.90594e-16 0 7.44999e-22 28.4289 1.1096e-05 9.28995e-06 0.247935 -4.78124e-07 -6.3243e-08)
(-7.8337e-16 0 5.35109e-22 28.3193 2.38823e-05 5.54698e-06 0.250528 -3.99436e-07 -1.2626e-07)
(-3.13348e-15 0 2.1864e-21 28.3193 2.39804e-05 9.1546e-06 0.250528 -4.40923e-07 -9.81768e-08)
(-4.08715e-16 0 -5.53868e-22 28.2014 3.65397e-05 -6.25278e-05 0.253077 -3.27351e-07 -1.11891e-06)
(-1.63486e-15 0 1.40001e-21 28.2014 3.64647e-05 -5.87768e-05 0.253077 -3.69838e-07 -1.1208e-06)
(0 0 0 28.0772 5.90755e-05 -0.00012402 0.2556 -1.79023e-07 -1.12796e-06)
(-1.7037e-15 0 9.95875e-22 28.0772 5.92178e-05 -0.000124228 0.2556 -2.21945e-07 -1.12984e-06)
(7.37356e-16 0 0 27.9485 8.27217e-05 -0.000118079 0.258108 9.92232e-08 -1.0417e-06)
(1.0359e-15 0 -1.36901e-21 27.9485 8.28489e-05 -0.000118289 0.258108 5.62381e-08 -1.04367e-06)
(-4.60877e-16 0 4.41855e-22 27.8161 8.67493e-05 -0.000102868 0.260601 4.68414e-07 -8.75283e-07)
(0 0 0 27.8161 8.68854e-05 -0.000103067 0.260601 4.24998e-07 -8.77034e-07)
(-4.78619e-16 -5.29763e-23 -8.32226e-22 27.679 6.19943e-05 -8.2388e-05 0.263056 4.0747e-07 -6.81962e-07)
(0 0 1.36637e-21 27.679 6.20898e-05 -8.25699e-05 0.263056 4.07067e-07 -6.83652e-07)
(-1.20265e-15 5.71387e-19 6.09488e-22 27.5346 -9.70212e-23 -6.3476e-05 0.265442 1.05879e-22 -5.353e-07)
(-1.98617e-15 -4.23512e-22 3.78076e-21 27.5346 1.9832e-05 -6.36611e-05 0.265442 1.25012e-07 -5.37164e-07)
(5.14644e-16 1.20899e-18 6.63381e-22 27.3794 -6.15933e-06 -5.29759e-05 0.267719 2.99843e-08 -4.95989e-07)
(0 0 -1.32748e-21 27.3794 -2.01523e-05 -5.3165e-05 0.267719 1.24602e-07 -4.97807e-07)
(5.32925e-16 3.2465e-23 -7.02186e-22 27.2101 -4.61253e-05 -5.5169e-05 0.269849 3.67636e-07 -5.94621e-07)
(0 0 0 27.2101 -4.60654e-05 -5.53388e-05 0.269849 3.65264e-07 -5.96156e-07)
(-5.51379e-16 0 7.34005e-22 27.0239 -5.66901e-05 -7.09536e-05 0.271803 2.6139e-07 -8.29188e-07)
(0 0 1.2897e-21 27.0239 -5.67033e-05 -7.11077e-05 0.271803 2.1534e-07 -8.30741e-07)
(-6.66485e-16 0 0 26.8197 -5.45177e-05 -9.84101e-05 0.27357 -1.05064e-07 -1.17441e-06)
(6.66485e-16 0 0 26.8197 -5.44553e-05 -9.85559e-05 0.27357 -1.51593e-07 -1.17582e-06)
(-5.88756e-16 0 -2.7676e-19 26.598 -3.91032e-05 -6.9402e-05 0.275159 -4.35712e-07 -3.57941e-07)
(2.35502e-15 0 -4.10359e-21 26.598 -3.90993e-05 -3.28695e-05 0.275159 -4.8294e-07 -1.69525e-07)
(0 0 -2.29992e-19 26.3621 -9.3924e-06 0 0.276609 -6.53991e-07 0)
(2.43059e-15 0 -4.52574e-21 26.3621 -9.37564e-06 4.81142e-06 0.276609 -7.02049e-07 -1.13158e-07)
(6.26652e-16 0 -1.00014e-21 26.1168 2.71437e-05 1.90737e-05 0.277974 -6.82441e-07 -1.82317e-06)
(-2.50661e-15 0 3.96379e-21 26.1168 2.71933e-05 1.92175e-05 0.277974 -7.31106e-07 -1.83498e-06)
(6.45755e-16 0 -1.81616e-21 25.8678 5.32994e-05 8.08207e-06 0.279308 -5.17906e-07 -5.42317e-06)
(0 0 1.19989e-21 25.8678 5.32716e-05 7.86575e-06 0.279308 -5.67296e-07 -5.4348e-06)
(-6.64951e-16 0 2.25723e-22 25.619 6.22895e-05 2.78649e-06 0.28064 -2.64647e-07 -9.14793e-06)
(0 0 0 25.619 6.22044e-05 2.87667e-06 0.28064 -3.15057e-07 -9.15938e-06)
(6.84242e-16 0 0 25.3713 7.47871e-05 5.09264e-06 0.281957 2.85107e-09 -1.14993e-05)
(2.73697e-15 0 0 25.3713 7.49208e-05 5.15628e-06 0.281957 -4.85718e-08 -1.15041e-05)
(1.20485e-15 0 -1.14903e-21 25.1218 6.05492e-05 1.51989e-05 0.283207 3.94163e-07 -1.14758e-05)
(2.81453e-15 0 1.14903e-21 25.1218 6.05591e-05 1.52479e-05 0.283207 3.52959e-07 -1.148e-05)
(-7.2313e-16 0 0 24.8652 6.49871e-05 3.26417e-05 0.284316 5.20118e-07 -1.13799e-05)
(0 0 0 24.8652 6.46576e-05 3.26748e-05 0.284316 4.66992e-07 -1.13835e-05)
(-7.42734e-16 0 0 24.5954 0.000208122 6.92622e-05 0.285213 9.80361e-07 -1.11725e-05)
(0 0 0 24.5954 0.000208109 6.92706e-05 0.285213 9.25454e-07 -1.11756e-05)
(1.15378e-15 0 -1.10033e-21 24.3077 0.000422148 0.000154145 0.285837 2.76821e-06 -1.06993e-05)
(0 0 0 24.3077 0.000422227 0.000154134 0.285837 2.71324e-06 -1.0702e-05)
(-7.82233e-16 -1.08456e-21 1.08456e-21 23.9976 0.000615502 0.000321764 0.286121 5.78351e-06 -9.62218e-06)
(-1.13725e-15 0 0 23.9976 0.000615326 0.000321734 0.286121 5.72729e-06 -9.6243e-06)
(0 -2.13804e-21 0 23.6578 0.000726231 0.000599519 0.285936 9.06899e-06 -7.41638e-06)
(-3.20845e-15 -4.56482e-22 0 23.6578 0.000726194 0.000599471 0.285936 9.07048e-06 -7.41803e-06)
(-8.22077e-16 -1.10264e-21 0 23.275 0.000633569 0.000816554 0.285043 6.45491e-06 -3.42534e-06)
(3.28831e-15 4.37895e-21 0 23.275 0.000633547 0.000811511 0.285043 6.45286e-06 -3.42649e-06)
(-1.08905e-15 4.40188e-18 0 22.8258 -2.95448e-20 0.000685865 0.28305 0 1.06635e-07)
(1.08905e-15 -1.5877e-17 0 22.8258 2.05791e-05 0.000680849 0.28305 1.28047e-07 1.06194e-07)
(-1.93572e-15 -2.10544e-21 0 22.2756 -0.000248265 0.000565552 0.279398 1.56722e-06 1.03564e-07)
(4.52255e-15 8.3873e-21 0 22.2756 -0.000248588 0.000565557 0.279398 1.56926e-06 1.03142e-07)
(2.82304e-15 0 0 21.5818 -0.00147727 0.000643887 0.273439 1.02552e-05 9.4351e-08)
(2.47192e-15 0 0 21.5818 -0.0014772 0.000643908 0.273439 1.01941e-05 9.39253e-08)
(2.08577e-15 0 0 20.7028 -0.00224142 0.000624021 0.264571 -2.22935e-06 7.36735e-08)
(0 0 0 20.7028 -0.00224128 0.000624071 0.264571 -2.29068e-06 7.32804e-08)
(-9.2274e-16 0 0 19.6105 -0.0024579 0.000476895 0.252439 -1.87431e-05 3.2141e-08)
(0 0 0 19.6105 -0.00245768 0.000476993 0.252439 -1.88036e-05 3.17992e-08)
(-1.88476e-15 3.61166e-21 -2.4873e-18 18.3049 -0.00197556 8.63751e-05 0.237139 -2.12412e-05 -4.66062e-08)
(3.76952e-15 -7.26416e-21 0 18.3049 -0.00197495 8.68287e-05 0.237139 -2.12263e-05 -4.68733e-08)
(-9.61305e-16 5.21078e-21 3.03072e-18 16.8235 -0.000899554 -4.53351e-08 0.219336 -6.71686e-06 -1.92778e-07)
(0 0 0 16.8235 -0.000898017 0 0.219336 -6.71447e-06 -1.92967e-07)
(5.19724e-18 -1.5045e-18 0 15.2429 0.000352428 -0.000521325 0.200247 -2.42606e-06 -4.61567e-07)
(2.93232e-15 -2.34944e-20 0 15.2429 0.000353044 -0.000520705 0.200247 -2.4303e-06 -4.61581e-07)
(-1.96594e-15 2.83387e-21 0 13.669 0.00162771 -0.000841502 0.181471 -1.4939e-05 -9.46635e-07)
(0 0 0 13.669 0.00163359 -0.000840315 0.181471 -1.50021e-05 -9.46049e-07)
(-2.02119e-15 0 0 12.2182 0.00170207 -0.00107042 0.164696 -1.63173e-05 -1.82304e-06)
(-4.04238e-15 0 0 12.2182 0.00171193 -0.0010682 0.164696 -1.62885e-05 -1.82106e-06)
(-2.04775e-15 0 0 10.9952 -0.0135176 -0.00106744 0.151366 1.17287e-05 -3.77967e-06)
(8.19098e-15 4.81369e-16 0 10.9952 -0.0135866 -0.00106309 0.151366 1.19841e-05 -3.77947e-06)
(-3.10685e-15 3.85186e-34 1.00974e-21 10.073 3.48063e-18 0.000336291 0.142422 5.75702e-34 -3.52327e-06)
(-6.00074e-15 6.36144e-16 1.17523e-21 10.073 -0.000974297 0.000329228 0.142422 -7.10561e-06 -3.82444e-06)
(-2.87773e-15 0 -8.73396e-22 9.48272 0.018854 0.001109 0.138202 0.000189102 5.68687e-06)
(4.18434e-15 0 0 9.48272 0.0186502 0.00109986 0.138202 0.000192738 5.68476e-06)
(1.95833e-15 0 1.31217e-17 9.21395 0.0111759 6.5572e-05 0.138465 2.15213e-06 4.9223e-07)
(-9.02695e-16 0 -1.72176e-21 9.21395 0.0109469 7.38581e-05 0.138465 2.54555e-06 5.54431e-07)
(1.77952e-15 0 0 9.22365 0.00344758 7.74623e-05 0.142548 2.54175e-05 1.87754e-06)
(2.4792e-15 0 9.4656e-23 9.22365 0.00341237 8.02177e-05 0.142548 2.54601e-05 1.89898e-06)
(0 0 1.93018e-18 9.4502 -0.000376263 9.97839e-06 0.149574 7.00918e-06 7.7099e-08)
(4.29438e-15 7.51756e-21 5.41821e-22 9.4502 -0.000380566 1.15499e-05 0.149574 7.01013e-06 8.92414e-08)
(-1.72887e-15 -1.64878e-21 0 9.82747 -0.000713517 -3.00927e-36 0.158639 1.20514e-05 0)
(4.33087e-15 7.41048e-23 2.82556e-22 9.82747 -0.000715561 -9.65937e-07 0.158639 1.20859e-05 7.57193e-09)
(0 0 0 10.2953 -0.000556244 -0.000118429 0.168946 5.86323e-06 2.09225e-07)
(0 0 0 10.2953 -0.000557566 -0.000118091 0.168946 5.81088e-06 2.09277e-07)
(-2.205e-15 0 0 10.8053 -0.000367738 -0.000155572 0.179867 1.52348e-06 3.7472e-08)
(0 0 0 10.8053 -0.000368274 -0.000155391 0.179867 1.46495e-06 3.76302e-08)
(0 0 0 11.3222 -0.000195103 -0.000164663 0.190943 -1.05234e-06 -5.83674e-08)
(4.45378e-15 0 0 11.3222 -0.000195315 -0.000164566 0.190943 -1.11364e-06 -5.81496e-08)
(0 0 0 11.822 -6.4303e-05 -0.000156543 0.201858 -2.1508e-06 -1.11563e-07)
(4.50072e-15 0 0 11.822 -6.43312e-05 -0.000156492 0.201858 -2.21307e-06 -1.11324e-07)
(-1.13772e-15 0 0 12.2889 4.02928e-06 -0.000140604 0.212388 -2.32647e-06 -1.41076e-07)
(0 0 0 12.2889 4.14613e-06 -0.000140578 0.212388 -2.38864e-06 -1.40827e-07)
(1.15108e-15 0 0 12.7128 2.72997e-05 -0.00012317 0.222371 -2.1427e-06 -1.57156e-07)
(0 0 0 12.7128 2.74256e-05 -0.000123158 0.222371 -2.20411e-06 -1.56902e-07)
(1.5627e-15 2.75081e-19 0 13.0869 1.00855e-05 -0.00010723 0.23168 -1.83972e-06 -1.65886e-07)
(-1.5627e-15 -3.9483e-19 0 13.0869 1.26543e-05 -0.000107227 0.23168 -1.90031e-06 -1.65637e-07)
(1.5403e-15 0 0 13.4066 1.22258e-05 -9.32719e-05 0.24022 -1.75602e-06 -1.70424e-07)
(-1.5403e-15 0 0 13.4066 1.24161e-05 -9.32753e-05 0.24022 -1.81548e-06 -1.70188e-07)
(-8.73185e-16 3.42827e-20 3.61973e-22 13.6697 1.00302e-05 -8.07856e-05 0.247929 -1.53703e-06 -1.72861e-07)
(-1.51823e-15 -5.54841e-20 0 13.6697 1.15442e-05 -8.07951e-05 0.247929 -1.59506e-06 -1.72635e-07)
(-1.21196e-15 0 0 13.8757 -4.42575e-20 -1.01685e-05 0.254774 -1.44248e-06 -1.74176e-07)
(0 0 0 13.8757 -8.27418e-07 -1.19002e-05 0.254774 -1.49893e-06 -1.73962e-07)
(1.22881e-15 0 0 14.026 -2.12589e-06 7.8263e-05 0.260756 -1.45863e-06 6.34955e-07)
(-6.39024e-15 0 0 14.026 -1.44303e-06 7.6549e-05 0.260756 -1.51292e-06 6.30577e-07)
(1.45388e-15 0 6.93262e-22 14.1237 2.83547e-05 9.03515e-05 0.265905 -1.38671e-06 1.47763e-06)
(-6.43862e-15 0 -9.03636e-22 14.1237 2.75185e-05 9.03345e-05 0.265905 -1.43773e-06 1.47661e-06)
(-1.26403e-15 5.22383e-20 -2.35888e-22 14.1728 1.3129e-20 6.90806e-05 0.270268 -8.82516e-07 1.13311e-06)
(1.01122e-14 0 1.88045e-21 14.1728 9.07556e-06 6.91027e-05 0.270268 -9.31024e-07 1.135e-06)
(1.28228e-15 0 4.01785e-22 14.1781 0.00032527 4.79021e-05 0.273896 -1.52316e-06 7.02205e-07)
(5.12913e-15 0 1.61536e-21 14.1781 0.00030068 4.74815e-05 0.273896 -1.5685e-06 6.84032e-07)
(0 5.57913e-22 0 14.1435 -2.71051e-20 3.71565e-05 0.276829 0 7.44861e-07)
(0 0 0 14.1435 -9.19673e-05 3.68199e-05 0.276829 1.08353e-06 7.50099e-07)
(-2.69207e-15 -2.69701e-18 -1.88079e-37 14.0724 -6.33497e-05 6.42055e-22 0.279089 -6.25628e-07 0)
(5.2791e-15 6.54364e-22 2.53035e-21 14.0724 -0.000233157 -6.10053e-06 0.279089 -1.37516e-06 6.7622e-08)
(-2.69155e-15 7.15224e-18 -4.0998e-22 13.9668 1.20175e-22 -6.80268e-05 0.280675 -1.05879e-22 1.08875e-06)
(-5.35568e-15 -7.26611e-18 -2.97781e-21 13.9668 2.78888e-05 -6.62221e-05 0.280675 2.79428e-07 1.00375e-06)
(4.02476e-15 0 2.02293e-22 13.8276 -8.22104e-06 -8.73465e-05 0.281563 3.56096e-07 1.64159e-06)
(2.7666e-15 0 8.01441e-22 13.8276 -3.15813e-06 -8.76631e-05 0.281563 3.44842e-07 1.65497e-06)
(-4.00606e-15 3.44826e-19 -1.12334e-23 13.6546 -1.20619e-20 -0.000100841 0.281713 -1.05879e-22 1.9119e-06)
(8.13943e-15 3.45224e-22 4.53021e-23 13.6546 7.56455e-06 -0.00010086 0.281713 7.80123e-08 1.91129e-06)
(-1.39743e-15 -5.92841e-23 0 13.4475 -1.43388e-05 -6.54288e-05 0.28108 2.42966e-07 6.78577e-07)
(0 0 0 13.4475 -1.39903e-05 -6.56563e-05 0.28108 2.14076e-07 6.78626e-07)
(-1.41713e-15 -2.51139e-23 0 13.2058 -2.46001e-05 1.436e-05 0.279628 3.57961e-07 1.59632e-07)
(0 0 0 13.2058 -2.4896e-05 1.41518e-05 0.279628 3.7258e-07 1.59546e-07)
(-1.43685e-15 0 0 12.9299 -3.71055e-05 5.23194e-05 0.277342 2.45672e-07 1.58296e-07)
(5.7474e-15 0 0 12.9299 -3.70479e-05 5.23012e-05 0.277342 2.04822e-07 1.582e-07)
(1.45653e-15 0 0 12.6215 -4.17371e-05 5.28525e-05 0.274243 -1.59806e-07 1.5685e-07)
(0 0 0 12.6215 -4.16797e-05 5.28458e-05 0.274243 -2.00158e-07 1.56756e-07)
(2.44524e-15 0 0 12.2841 -4.00572e-05 5.01739e-05 0.270396 -5.66239e-07 1.55362e-07)
(0 0 0 12.2841 -3.99375e-05 5.01735e-05 0.270396 -6.05627e-07 1.55271e-07)
(-1.49547e-15 0 0 11.9228 -3.85446e-05 4.42268e-05 0.265906 -9.47976e-07 1.53812e-07)
(0 0 0 11.9228 -3.84439e-05 4.42295e-05 0.265906 -9.86165e-07 1.53731e-07)
(2.37565e-15 0 0 11.5443 -2.69133e-05 3.54166e-05 0.260919 -1.33461e-06 1.52232e-07)
(1.21169e-14 0 0 11.5443 -2.6779e-05 3.54205e-05 0.260919 -1.37153e-06 1.52153e-07)
(-2.3416e-15 -6.97852e-23 0 11.1567 -1.16333e-05 2.48226e-05 0.255616 -1.46196e-06 1.50607e-07)
(6.13383e-15 0 0 11.1567 -1.14771e-05 2.48285e-05 0.255616 -1.49737e-06 1.50524e-07)
(-3.85999e-15 -6.8785e-23 0 10.7684 -1.09849e-06 1.3553e-05 0.250189 -1.50574e-06 1.48918e-07)
(-6.20779e-15 0 0 10.7684 -1.0186e-06 1.35601e-05 0.250189 -1.53982e-06 1.48857e-07)
(7.04911e-16 6.77992e-23 3.19273e-20 10.3878 1.29374e-05 1.27055e-21 0.244832 -1.39083e-06 0)
(-8.55517e-15 0 -1.07602e-19 10.3878 1.30617e-05 4.40979e-07 0.244832 -1.42369e-06 5.25405e-09)
(-2.24236e-15 0 4.25408e-20 10.0223 1.96309e-05 -4.7216e-06 0.23972 -1.10068e-06 5.70735e-08)
(0 0 -1.06924e-21 10.0223 1.97662e-05 -4.71472e-06 0.23972 -1.13209e-06 5.69904e-08)
(0 0 0 9.67824 2.28336e-05 -1.38236e-05 0.235003 -8.21475e-07 1.43673e-07)
(6.42015e-15 0 -1.05391e-21 9.67824 2.29319e-05 -1.38174e-05 0.235003 -8.51568e-07 1.43624e-07)
(-5.5661e-16 -2.59702e-22 -1.03881e-21 9.36005 2.55405e-05 -1.85842e-05 0.230792 -4.46361e-07 1.41826e-07)
(0 0 0 9.36005 2.56522e-05 -1.85781e-05 0.230792 -4.75175e-07 1.41782e-07)
(0 0 0 9.07045 1.97196e-05 -2.08716e-05 0.227158 -9.32367e-08 1.3998e-07)
(1.31076e-14 0 0 9.07045 1.98182e-05 -2.08656e-05 0.227158 -1.20787e-07 1.39941e-07)
(2.11654e-15 0 0 8.81039 1.35492e-05 -2.11608e-05 0.224134 1.42381e-07 1.3805e-07)
(1.3237e-14 0 0 8.81039 1.36484e-05 -2.1155e-05 0.224134 1.16057e-07 1.38015e-07)
(-3.34104e-15 -6.37449e-23 0 8.57931 8.27133e-06 -1.99384e-05 0.221716 1.1475e-07 1.36135e-07)
(0 0 0 8.57931 8.36653e-06 -1.99327e-05 0.221716 1.17051e-07 1.36102e-07)
(-1.68616e-15 1.23619e-20 0 8.37544 4.7826e-21 -1.77797e-05 0.219872 5.29396e-23 1.34123e-07)
(1.34893e-14 4.39526e-22 0 8.37544 1.26431e-06 -1.77741e-05 0.219872 2.66049e-08 1.34099e-07)
(1.7016e-15 5.68872e-23 0 8.19611 -2.08055e-06 -1.51969e-05 0.218548 5.37475e-08 1.32145e-07)
(0 0 0 8.19611 -1.99158e-06 -1.51916e-05 0.218548 5.16065e-08 1.32122e-07)
(-1.71689e-15 3.48215e-21 0 8.03805 -4.2435e-06 -1.24904e-05 0.217673 5.7574e-08 1.30057e-07)
(0 0 0 8.03805 -4.05024e-06 -1.24849e-05 0.217673 5.49519e-08 1.30037e-07)
(-1.73206e-15 -3.23055e-23 0 7.89757 -5.54339e-06 -9.85663e-06 0.217159 1.92481e-07 1.28014e-07)
(6.92824e-15 1.18795e-22 0 7.89757 -5.47235e-06 -9.8514e-06 0.217159 1.90595e-07 1.27998e-07)
(-1.74716e-15 -4.15687e-23 0 7.7707 -2.81634e-06 -7.20886e-06 0.216911 1.12155e-07 1.25854e-07)
(3.1068e-15 1.56489e-22 0 7.7707 -2.74013e-06 -7.20378e-06 0.216911 1.10129e-07 1.25842e-07)
(-3.52446e-15 -1.07296e-22 0 7.65326 -1.96597e-06 -4.35395e-06 0.216817 4.46788e-08 1.23761e-07)
(0 0 0 7.65326 -1.89582e-06 -4.3491e-06 0.216817 4.24463e-08 1.23749e-07)
(-1.77728e-15 -5.16495e-23 -5.52347e-24 7.54086 -2.44577e-06 -1.26914e-06 0.216755 6.68975e-08 8.17336e-08)
(0 0 0 7.54086 -2.37907e-06 -1.26438e-06 0.216755 6.51579e-08 8.16821e-08)
(1.85866e-15 0 4.43139e-22 7.42893 1.71402e-06 2.267e-06 0.216592 1.75558e-07 1.19389e-07)
(-7.16938e-15 -1.38218e-22 0 7.42893 1.77779e-06 2.27153e-06 0.216592 1.77176e-07 1.1938e-07)
(3.63945e-15 2.04e-20 0 7.31281 5.29396e-21 6.45932e-06 0.216182 0 1.17102e-07)
(5.3977e-15 3.64233e-21 0 7.31281 6.92204e-07 6.46383e-06 0.216182 1.02413e-08 1.17097e-07)
(1.82254e-15 5.65632e-23 0 7.18783 -5.91034e-06 1.08692e-05 0.215378 1.35063e-07 1.14917e-07)
(-7.29017e-15 -2.19044e-22 0 7.18783 -5.84762e-06 1.08737e-05 0.215378 1.33183e-07 1.1491e-07)
(-1.83767e-15 -3.48251e-23 0 7.0496 -4.00267e-06 1.52096e-05 0.214034 2.20416e-07 1.12572e-07)
(7.3507e-15 1.32553e-22 -4.24357e-22 7.0496 -3.95738e-06 1.5214e-05 0.214034 2.18532e-07 1.12572e-07)
(-3.50874e-15 2.14109e-20 0 6.89422 -1.42209e-06 1.95934e-05 0.212015 2.19712e-08 1.10344e-07)
(0 0 0 6.89422 -1.36596e-06 1.95971e-05 0.212015 2.1104e-08 1.10341e-07)
(-3.45845e-15 -4.1228e-22 -8.2456e-22 6.7186 -5.69431e-06 2.39015e-05 0.209212 2.14614e-07 1.07957e-07)
(5.7424e-15 1.13363e-22 0 6.7186 -5.63542e-06 2.39056e-05 0.209212 2.12171e-07 1.0795e-07)
(1.88293e-15 3.5085e-23 0 6.5208 -2.58906e-06 2.81948e-05 0.205552 1.41887e-07 1.05699e-07)
(0 0 0 6.5208 -2.55392e-06 2.8199e-05 0.205552 1.40646e-07 1.05697e-07)
(0 0 0 6.30025 -2.71191e-07 3.28123e-05 0.201004 2.19387e-08 1.03269e-07)
(-7.5913e-15 -2.1542e-22 0 6.30025 -2.25373e-07 3.28161e-05 0.201004 2.09456e-08 1.03268e-07)
(-1.65593e-15 -1.97403e-22 -7.89611e-22 6.05792 3.57448e-06 3.81686e-05 0.195591 2.3104e-07 1.00991e-07)
(0 0 0 6.05792 3.62005e-06 3.81721e-05 0.195591 2.32046e-07 1.00984e-07)
(-1.6322e-15 0 0 5.79635 7.93992e-06 4.48486e-05 0.189391 2.96851e-07 9.85258e-08)
(0 0 0 5.79635 7.97658e-06 4.48523e-05 0.189391 2.98283e-07 9.85208e-08)
(3.32242e-16 5.91536e-23 0 5.51955 9.81317e-06 5.33453e-05 0.182531 3.64967e-07 9.62285e-08)
(1.60881e-15 0 0 5.51955 9.85231e-06 5.33487e-05 0.182531 3.66171e-07 9.62195e-08)
(1.95473e-15 7.58521e-23 0 5.23271 1.20677e-05 6.40432e-05 0.175185 4.60813e-07 9.37364e-08)
(0 0 0 5.23271 1.2102e-05 6.40466e-05 0.175185 4.61951e-07 9.37272e-08)
(-3.9359e-15 -3.07716e-22 0 4.94182 9.01246e-06 7.7003e-05 0.167553 1.62188e-07 9.14271e-08)
(7.8718e-15 6.10683e-22 0 4.94182 9.04593e-06 7.70061e-05 0.167553 1.63372e-07 9.14129e-08)
(-1.98065e-15 -1.73793e-22 0 4.65311 4.18493e-06 9.178e-05 0.159851 1.32107e-07 8.89115e-08)
(0 0 0 4.65311 4.21708e-06 9.17832e-05 0.159851 1.33184e-07 8.88952e-08)
(0 5.04223e-20 0 4.37258 -4.52738e-07 0.000107614 0.152287 8.08113e-09 8.65899e-08)
(0 0 0 4.37258 -1.14349e-20 0.000107617 0.152287 0 8.65696e-08)
(0 0 0 4.1055 -1.56838e-05 0.000123066 0.145046 3.22054e-07 8.40599e-08)
(0 0 0 4.1055 -1.56547e-05 0.000123069 0.145046 3.21055e-07 8.40362e-08)
(-2.95064e-15 -3.51744e-22 -2.81395e-21 3.85591 -2.63243e-05 0.000136296 0.138273 8.17591e-07 8.17458e-08)
(0 0 0 3.85591 -2.62975e-05 0.000136299 0.138273 8.16484e-07 8.17146e-08)
(0 0 0 3.62647 -3.76102e-05 0.000145445 0.132064 4.44198e-07 7.92121e-08)
(1.32982e-14 0 0 3.62647 -3.75857e-05 0.000145448 0.132064 4.39828e-07 7.91765e-08)
(-4.07152e-15 0 0 3.41832 -4.98946e-05 0.000148382 0.126463 -3.71196e-07 7.69062e-08)
(8.14304e-15 0 0 3.41832 -4.98701e-05 0.000148385 0.126463 -3.74991e-07 7.68619e-08)
(2.04523e-15 0 0 3.23108 -5.65496e-05 0.000143185 0.12146 -1.38668e-06 7.43755e-08)
(0 0 0 3.23108 -5.65277e-05 0.000143188 0.12146 -1.38993e-06 7.43246e-08)
(0 0 0 3.06318 -5.55882e-05 0.000128844 0.117001 -2.08435e-06 7.20881e-08)
(-8.21711e-15 2.02892e-22 0 3.06318 -5.5567e-05 0.000128847 0.117001 -2.1226e-06 7.2026e-08)
(-2.06295e-15 2.1083e-22 0 2.91214 -4.92483e-05 0.000105345 0.113 -1.97592e-06 6.95713e-08)
(8.2518e-15 -8.23491e-22 0 2.91214 -4.92303e-05 0.000105347 0.113 -2.01385e-06 6.95009e-08)
(0 0 0 2.77496 -3.78163e-05 7.35575e-05 0.109355 -1.87051e-06 6.73185e-08)
(-2.70582e-15 0 -5.16094e-21 2.77496 -3.77953e-05 7.35597e-05 0.109355 -1.90747e-06 6.72324e-08)
(2.66704e-15 0 6.76341e-20 2.64849 -1.95807e-05 3.04929e-05 0.105953 -1.7668e-06 6.48334e-08)
(0 0 0 2.64849 -1.9561e-05 3.05122e-05 0.105953 -1.8038e-06 6.47334e-08)
(-2.08716e-15 4.7897e-22 -2.38038e-37 2.5298 2.25617e-06 -8.60024e-22 0.102697 -1.66673e-06 1.32349e-23)
(0 0 0 2.5298 2.26622e-06 -1.8165e-08 0.102697 -1.70275e-06 3.7459e-10)
(-1.59833e-15 2.8155e-22 4.9422e-21 2.41646 2.39298e-05 -4.70904e-05 0.0995029 -1.57015e-06 6.01487e-08)
(1.9349e-14 -3.55875e-21 0 2.41646 2.39469e-05 -4.70881e-05 0.0995029 -1.60507e-06 6.00198e-08)
(0 0 0 2.30666 4.20326e-05 -8.43703e-05 0.096315 -1.4749e-06 5.79826e-08)
(-2.554e-15 0 0 2.30666 4.20493e-05 -8.43683e-05 0.096315 -1.50974e-06 5.78294e-08)
(0 3.00097e-22 -4.80155e-21 2.1993 5.41142e-05 -0.000114804 0.0931027 -2.132e-06 5.55821e-08)
(-2.51739e-15 0 -4.80155e-21 2.1993 5.41256e-05 -0.000114802 0.0931027 -2.13233e-06 5.54079e-08)
(-6.34835e-15 0 0 2.09395 5.92944e-05 -0.000136316 0.0898626 -1.68845e-06 5.34787e-08)
(1.94102e-14 0 0 2.09395 5.93067e-05 -0.000136314 0.0898626 -1.68709e-06 5.32759e-08)
(0 -4.55556e-24 0 1.99076 5.71004e-05 -0.000147987 0.0866147 -3.41724e-07 5.11411e-08)
(1.69824e-14 4.55556e-24 0 1.99076 5.71109e-05 -0.000147985 0.0866147 -3.39887e-07 5.09094e-08)
(2.81435e-16 0 0 1.89033 4.87016e-05 -0.000150105 0.0833964 8.84324e-07 4.91089e-08)
(-2.41069e-15 0 0 1.89033 4.87128e-05 -0.000150103 0.0833964 8.86702e-07 4.88406e-08)
(2.13548e-15 5.91182e-23 0 1.79357 3.76163e-05 -0.000143847 0.0802575 1.46201e-06 4.68461e-08)
(1.70839e-14 4.75894e-22 0 1.79357 3.76245e-05 -0.000143846 0.0802575 1.46225e-06 4.65403e-08)
(0 0 0 1.70149 2.28427e-05 -0.000131131 0.0772519 6.46982e-07 4.49034e-08)
(8.56587e-15 1.10709e-21 0 1.70149 2.28511e-05 -0.000131129 0.0772519 6.47524e-07 4.45483e-08)
(2.14722e-15 2.67521e-20 0 1.61506 7.25013e-06 -0.000114343 0.0744308 1.70252e-07 4.2732e-08)
(0 0 0 1.61506 7.26147e-06 -0.000114341 0.0744308 1.70519e-07 4.23249e-08)
(4.30549e-15 1.86446e-20 0 1.53508 -9.07124e-07 -9.5685e-05 0.0718384 2.16114e-08 4.08744e-08)
(6.33555e-15 0 0 1.53508 -1.77877e-20 -9.56836e-05 0.0718384 0 4.04146e-08)
(0 0 0 1.46214 -1.05891e-05 -7.70103e-05 0.0695075 3.57545e-07 3.87988e-08)
(-2.24282e-15 0 0 1.46214 -1.05826e-05 -7.70091e-05 0.0695075 3.57399e-07 3.82714e-08)
(2.21067e-15 0 0 1.39649 -1.56853e-05 -5.97632e-05 0.0674565 6.68471e-07 3.70513e-08)
(8.65264e-15 1.07847e-21 0 1.39649 -1.56814e-05 -5.97623e-05 0.0674565 6.6799e-07 3.6446e-08)
(2.15718e-15 3.64539e-22 0 1.33808 -1.77409e-05 -4.48268e-05 0.0656885 8.71537e-07 3.50919e-08)
(2.17899e-15 0 0 1.33808 -1.77392e-05 -4.48256e-05 0.0656885 8.71639e-07 3.44037e-08)
(2.17285e-15 1.19317e-22 0 1.28656 -1.72548e-05 -3.25653e-05 0.0641932 8.94095e-07 3.344e-08)
(1.08392e-14 4.81286e-22 0 1.28656 -1.72521e-05 -3.25647e-05 0.0641932 8.93826e-07 3.26662e-08)
(0 0 0 1.24134 -1.56635e-05 -2.29798e-05 0.0629475 8.47637e-07 3.16174e-08)
(8.70992e-15 2.79707e-22 0 1.24134 -1.56632e-05 -2.29791e-05 0.0629475 8.47637e-07 3.07426e-08)
(-2.18199e-15 -3.13775e-23 0 1.20163 -1.28467e-05 -1.58078e-05 0.0619174 7.561e-07 3.00174e-08)
(-8.72796e-15 -1.29887e-22 0 1.20163 -1.28481e-05 -1.58077e-05 0.0619174 7.56079e-07 2.90856e-08)
(-6.29986e-15 -2.6229e-22 -1.22591e-22 1.16652 -1.01777e-05 -1.06404e-05 0.0610626 5.77624e-07 2.84025e-08)
(0 0 0 1.16652 -1.01805e-05 -1.06402e-05 0.0610626 5.77795e-07 2.73631e-08)
(-2.19074e-15 0 0 1.13503 -7.80149e-06 -7.07205e-06 0.0603382 4.78567e-07 2.66341e-08)
(-8.76297e-15 0 0 1.13503 -7.80515e-06 -7.07234e-06 0.0603382 4.85369e-07 2.57282e-08)
(0 0 0 1.10618 -5.47395e-06 -2.23885e-07 0.0596978 2.96403e-07 2.55095e-08)
(0 0 0 1.10618 -5.48001e-06 2.41926e-07 0.0596978 3.13526e-07 2.45089e-08)
(1.96955e-15 0 0 1.07904 -3.85348e-06 5.25781e-06 0.0590955 2.33838e-07 1.44759e-07)
(1.7594e-14 0 5.86973e-23 1.07904 -3.86149e-06 5.68396e-06 0.0590955 2.29108e-07 1.57639e-07)
(-2.20343e-15 0 -2.29392e-23 1.05274 -2.17126e-06 3.20404e-06 0.058488 5.05299e-08 8.94704e-08)
(8.81372e-15 0 8.92833e-23 1.05274 -2.17882e-06 3.55522e-06 0.058488 9.35672e-08 1.05541e-07)
(-3.827e-15 -2.85134e-23 -1.14054e-22 1.02654 -2.9308e-06 3.7345e-07 0.057836 2.58848e-07 6.28017e-08)
(-8.83031e-15 -2.05011e-23 -5.67089e-21 1.02654 -2.93826e-06 -2.05894e-21 0.057836 1.4738e-07 0)
(-3.77215e-15 7.02618e-24 -1.12419e-22 0.999818 -1.00307e-06 -7.20309e-07 0.057107 -3.0599e-07 4.81439e-08)
(0 -8.78273e-24 0 0.999818 -1.00292e-06 -1.32126e-06 0.057107 -2.22851e-07 7.38615e-08)
(3.56727e-16 -1.3851e-23 -7.2912e-23 0.972111 1.24359e-06 -7.28868e-07 0.0562748 4.84925e-07 3.45714e-08)
(8.86308e-15 0 1.0325e-22 0.972111 1.24754e-06 -1.34738e-06 0.0562748 1.35113e-07 7.80724e-08)
(0 1.12776e-20 0 0.943091 -6.9598e-07 -8.04244e-07 0.0553208 -4.30375e-08 5.05599e-08)
(0 0 0 0.943091 -1.39321e-07 -1.16382e-06 0.0553208 4.1217e-09 7.90945e-08)
(3.61227e-15 -9.44164e-21 1.07654e-22 0.912619 2.11758e-22 -8.56211e-07 0.0542383 4.28656e-08 4.45686e-08)
(0 0 0 0.912619 -7.16258e-07 -9.6761e-07 0.0542383 1.48563e-08 5.84796e-08)
(-4.45545e-15 0 -4.37196e-23 0.880766 1.78829e-07 -9.01353e-07 0.0530333 -5.81477e-09 5.83253e-08)