/*--------------------------------*- C++ -*----------------------------------*\
| =========                 |                                                 |
| \\      /  F ield         | OpenFOAM: The Open Source CFD Toolbox           |
|  \\    /   O peration     | Version:  2012                                  |
|   \\  /    A nd           | Website:  www.openfoam.com                      |
|    \\/     M anipulation  |                                                 |
\*---------------------------------------------------------------------------*/
FoamFile
{
    version     2.0;
    format      ascii;
    class       volTensorField;
    location    "16000";
    object      grad(U);
}
// * * * * * * * * * * * * * * * * * * * * * * * * * * * * * * * * * * * * * //

dimensions      [0 0 -1 0 0 0 0];


internalField   nonuniform List<tensor> 
2560
(
(0 -6.72764e-18 -6.97565e-23 29.1456 -2.84788e-05 -0.000316302 0.0421929 -8.24475e-08 -2.15203e-07)
(-9.14312e-18 1.39513e-22 -3.59631e-17 29.1456 -0.000312672 -0.000309271 0.0421929 -1.20066e-06 -2.22724e-07)
(0 1.82197e-17 -2.87875e-17 29.1407 -3.26609e-25 -4.80556e-05 0.127176 0 -1.41146e-07)
(0 6.49824e-24 -4.29823e-23 29.1407 2.21243e-21 -4.85759e-05 0.127176 2.34124e-08 -1.42675e-07)
(3.01901e-17 0 1.49777e-22 29.1362 -4.18598e-05 -2.41024e-05 0.174893 1.35904e-07 -1.46177e-07)
(-3.55316e-17 0 0 29.1362 3.78054e-05 -2.43593e-05 0.174893 1.12655e-07 -1.4771e-07)
(1.71281e-17 2.505e-23 -1.5431e-22 29.1317 -1.24212e-05 -2.45017e-05 0.177408 2.96199e-08 -1.50145e-07)
(0 -2.505e-23 0 29.1317 -1.54259e-05 -2.47661e-05 0.177408 4.74427e-10 -1.51809e-07)
(6.90408e-17 3.29212e-23 -5.2674e-22 29.1269 6.26647e-06 -2.48209e-05 0.179957 2.47139e-08 -1.54403e-07)
(0 -3.29212e-23 0 29.1269 7.30489e-06 -2.50963e-05 0.179957 -7.77548e-09 -1.56118e-07)
(1.09265e-16 3.24494e-23 -1.63548e-22 29.1214 8.16243e-06 -2.51671e-05 0.182535 3.41816e-08 -1.58884e-07)
(3.29709e-16 -3.24494e-23 -1.34369e-21 29.1214 8.6397e-06 -2.5449e-05 0.182535 -1.19589e-09 -1.60677e-07)
(-5.35184e-17 1.59922e-23 1.68327e-22 29.1143 6.89093e-06 -2.5527e-05 0.185138 3.66733e-08 -1.63503e-07)
(2.14074e-16 -1.59922e-23 -6.91347e-22 29.1143 7.32264e-06 -2.58188e-05 0.185138 7.42449e-10 -1.65396e-07)
(-6.60006e-17 0 1.7324e-22 29.1051 6.74191e-06 -2.58873e-05 0.187763 3.71121e-08 -1.68188e-07)
(2.64002e-16 0 -2.07002e-22 29.1051 6.84604e-06 -2.61965e-05 0.187763 4.34735e-10 -1.70258e-07)
(3.39329e-16 0 -1.78285e-22 29.0941 6.82105e-06 -2.62452e-05 0.190417 3.74297e-08 -1.72978e-07)
(0 0 0 29.0941 6.45862e-06 -2.65823e-05 0.190417 -9.57551e-10 -1.75293e-07)
(0 -3.06287e-23 0 29.0823 8.08589e-06 -2.66009e-05 0.193107 3.64182e-08 -1.7784e-07)
(0 0 4.90059e-22 29.0823 6.47466e-06 -2.6984e-05 0.193107 -4.9911e-09 -1.8058e-07)
(-3.57772e-16 0 1.88771e-22 29.0697 1.39514e-05 -2.69526e-05 0.195825 4.00838e-08 -1.82785e-07)
(0 -3.01897e-23 0 29.0697 1.15398e-05 -2.74134e-05 0.195825 -6.63264e-09 -1.86215e-07)
(1.1773e-16 1.3171e-19 -1.9427e-22 29.0555 1.091e-05 -2.72574e-05 0.19857 3.70209e-08 -1.87217e-07)
(0 -5.9514e-23 0 29.0555 2.7366e-05 -2.78412e-05 0.19857 3.03486e-08 -1.91719e-07)
(2.46042e-16 0 0 29.0398 0.0001706 -2.73407e-05 0.201344 1.24695e-07 -1.89293e-07)
(0 0 0 29.0398 4.16178e-05 -2.8095e-05 0.201344 1.1326e-07 -1.95189e-07)
(-1.44707e-16 2.60582e-18 2.05885e-22 29.0219 6.76308e-21 -2.68671e-05 0.204135 0 -1.86037e-07)
(5.78829e-16 0 8.19491e-23 29.0219 2.02382e-05 -2.77372e-05 0.204135 -3.40748e-07 -1.92301e-07)
(0 0 0 29.0001 -0.000164462 -2.55229e-05 0.206931 2.49081e-07 -1.75647e-07)
(0 -1.43287e-18 0 29.0001 -2.8098e-05 -2.63419e-05 0.206931 9.95646e-08 -1.80986e-07)
(-1.72455e-16 0 2.14507e-22 28.9732 -5.84117e-05 -2.34323e-05 0.209725 -9.99902e-09 -1.61205e-07)
(6.8982e-16 0 -8.65083e-22 28.9732 -6.31099e-05 -2.41188e-05 0.209725 -5.60771e-08 -1.65734e-07)
(-2.32237e-16 -2.76848e-23 0 28.9405 -1.83462e-05 -2.13273e-05 0.212512 -2.44168e-07 -1.49859e-07)
(-5.14246e-16 2.76848e-23 8.66682e-22 28.9405 -1.53223e-05 -2.19107e-05 0.212512 -2.9513e-07 -1.53839e-07)
(0 0 0 28.9028 3.87151e-05 -1.9909e-05 0.215307 -1.89276e-07 -1.44783e-07)
(-8.03915e-16 0 8.70782e-22 28.9028 4.06051e-05 -2.04294e-05 0.215307 -2.31665e-07 -1.48504e-07)
(4.51255e-16 3.0335e-19 -8.607e-22 28.8628 2.63575e-05 -1.91774e-05 0.218132 -1.18725e-08 -1.43182e-07)
(0 0 0 28.8628 3.49027e-05 -1.96638e-05 0.218132 -5.33899e-08 -1.46765e-07)
(2.30266e-16 5.02283e-19 -2.21314e-22 28.8224 0 -1.87377e-05 0.220993 8.27181e-25 -1.42278e-07)
(-9.21062e-16 0 8.95048e-22 28.8224 5.27434e-06 -1.92074e-05 0.220993 -3.20914e-08 -1.45849e-07)
(-4.38412e-16 0 0 28.7807 1.83012e-05 -1.84354e-05 0.223874 -4.20491e-08 -1.4267e-07)
(4.38412e-16 0 0 28.7807 1.86291e-05 -1.88983e-05 0.223874 -7.96347e-08 -1.46252e-07)
(-2.60336e-16 0 2.2915e-22 28.7354 6.0043e-05 -1.82323e-05 0.22675 8.0601e-08 -1.43238e-07)
(0 0 0 28.7354 6.032e-05 -1.86931e-05 0.22675 4.31112e-08 -1.46882e-07)
(5.76197e-16 2.03102e-22 -1.39138e-21 28.684 6.76032e-05 -1.76437e-05 0.229609 3.57347e-07 -1.37417e-07)
(-4.25935e-16 0 0 28.684 6.78279e-05 -1.81052e-05 0.229609 3.19986e-07 -1.41115e-07)
(0 2.18563e-18 0 28.626 2.03099e-20 -1.57461e-05 0.232448 0 -1.16582e-07)
(-1.16484e-15 -2.12837e-22 9.55618e-22 28.626 2.13088e-05 -1.62098e-05 0.232448 1.22997e-07 -1.2037e-07)
(-1.06864e-16 9.42796e-19 -2.30867e-22 28.5611 -2.62821e-05 -1.18691e-05 0.235265 1.07594e-07 -1.02878e-07)
(4.13813e-16 -1.37752e-18 0 28.5611 -2.98261e-05 -1.23353e-05 0.235265 1.22102e-07 -8.1342e-08)
(-1.05366e-15 0 4.32481e-22 28.489 -6.86287e-05 -6.21029e-06 0.238051 1.30044e-07 -1.06726e-07)
(4.07882e-16 0 0 28.489 -6.84522e-05 -6.67792e-06 0.238051 9.28729e-08 -2.9224e-08)
(1.01707e-15 9.58529e-23 -5.9132e-22 28.409 -5.25762e-05 2.32356e-07 0.240799 -2.05703e-07 -1.10647e-07)
(2.7122e-15 0 0 28.409 -5.26001e-05 -5.13249e-20 0.240799 -2.43144e-07 -9.08069e-36)
(0 0 7.55832e-22 28.3203 -1.66512e-05 6.26059e-06 0.243496 -3.99813e-07 -1.14607e-07)
(1.42144e-15 0 -8.89376e-22 28.3203 -1.65533e-05 5.79435e-06 0.243496 -4.37875e-07 -2.56557e-08)
(3.71888e-16 0 -2.3391e-22 28.2222 1.06718e-05 1.10274e-05 0.246138 -4.38826e-07 -1.18621e-07)
(0 0 7.44999e-22 28.2222 1.10162e-05 1.05635e-05 0.246138 -4.7675e-07 -7.37746e-08)
(-7.77217e-16 0 5.29316e-22 28.1147 2.37947e-05 1.05606e-06 0.248724 -4.012e-07 -1.22655e-07)
(-3.10887e-15 0 2.14599e-21 28.1147 2.38683e-05 4.58188e-06 0.248724 -4.38798e-07 -1.09747e-07)
(-4.05514e-16 0 1.72392e-22 27.9991 3.63088e-05 -6.65237e-05 0.251268 -3.28505e-07 -1.09842e-06)
(-2.00153e-15 0 6.86231e-22 27.9991 3.62321e-05 -6.28634e-05 0.251268 -3.67115e-07 -1.10015e-06)
(0 0 0 27.8772 5.85632e-05 -0.00012147 0.253786 -1.80376e-07 -1.10222e-06)
(-1.6904e-15 0 1.00493e-21 27.8772 5.87012e-05 -0.00012166 0.253786 -2.19366e-07 -1.10393e-06)
(0 0 0 27.7509 8.17745e-05 -0.000114998 0.25629 9.61085e-08 -1.01076e-06)
(1.75945e-15 0 -1.37582e-21 27.7509 8.18841e-05 -0.000115186 0.25629 5.70278e-08 -1.01252e-06)
(-4.57301e-16 0 4.4256e-22 27.6209 8.53497e-05 -9.9295e-05 0.258779 4.6119e-07 -8.39573e-07)
(0 0 0 27.6209 8.54724e-05 -9.94723e-05 0.258779 4.21691e-07 -8.41115e-07)
(-1.19129e-15 -5.32863e-23 5.33523e-22 27.4863 6.04039e-05 -7.83915e-05 0.261233 3.92282e-07 -6.42035e-07)
(7.16371e-16 0 0 27.4863 6.04891e-05 -7.85501e-05 0.261233 3.91844e-07 -6.43493e-07)
(-4.92712e-16 5.31649e-19 6.0727e-22 27.3445 -3.48321e-21 -5.90887e-05 0.263617 0 -4.90988e-07)
(-1.97085e-15 -4.22551e-22 2.42538e-21 27.3445 1.8446e-05 -5.92476e-05 0.263617 1.11856e-07 -4.9258e-07)
(5.10689e-16 1.08078e-18 -6.60137e-22 27.192 -8.47081e-06 -4.81245e-05 0.265894 4.12369e-08 -4.45788e-07)
(0 0 0 27.192 -2.09788e-05 -4.82843e-05 0.265894 1.11545e-07 -4.47309e-07)
(1.21485e-15 2.87443e-23 6.12059e-22 27.0253 -4.62068e-05 -4.96283e-05 0.268024 3.72156e-07 -5.35296e-07)
(-6.86008e-16 0 -1.30846e-21 27.0253 -4.61547e-05 -4.97679e-05 0.268024 3.69958e-07 -5.36531e-07)
(-5.47169e-16 0 7.26242e-22 26.842 -5.60147e-05 -6.43442e-05 0.269981 2.43254e-07 -7.5594e-07)
(0 0 0 26.842 -5.60315e-05 -6.44666e-05 0.269981 2.0114e-07 -7.57158e-07)
(0 0 0 26.6406 -5.32622e-05 -9.02311e-05 0.27175 -1.15083e-07 -1.0812e-06)
(0 0 0 26.6406 -5.32204e-05 -9.03436e-05 0.27175 -1.57633e-07 -1.08227e-06)
(-5.84293e-16 0 -2.18191e-18 26.4219 -3.77028e-05 -1.37448e-05 0.273344 -4.34937e-07 -7.08887e-08)
(2.33717e-15 0 -7.52316e-37 26.4219 -3.76927e-05 -7.28606e-21 0.273344 -4.78149e-07 8.47033e-22)
(0 0 0 26.1889 -8.46972e-06 1.69407e-21 0.2748 -6.42666e-07 0)
(2.41223e-15 0 -4.32189e-21 26.1889 -8.44824e-06 2.301e-05 0.2748 -6.86589e-07 -1.50517e-07)
(6.21935e-16 0 -8.94433e-22 25.9467 2.69434e-05 2.49209e-05 0.276172 -6.6465e-07 -2.19275e-06)
(-2.48774e-15 0 3.53984e-21 25.9467 2.69542e-05 2.50066e-05 0.276172 -7.09219e-07 -2.20891e-06)
(6.40912e-16 0 -5.22706e-22 25.7009 5.17125e-05 1.42559e-05 0.277515 -5.00675e-07 -5.63293e-06)
(0 0 0 25.7009 5.16858e-05 1.43153e-05 0.277515 -5.46006e-07 -5.64883e-06)
(-6.59982e-16 0 1.47977e-22 25.4555 5.94286e-05 9.05736e-06 0.278858 -2.54851e-07 -9.16013e-06)
(0 0 0 25.4555 5.93607e-05 9.0887e-06 0.278858 -3.01037e-07 -9.17574e-06)
(6.79147e-16 0 0 25.2112 7.12049e-05 1.10654e-05 0.280189 -1.21267e-09 -1.07074e-05)
(1.49422e-15 0 0 25.2112 7.13248e-05 1.10712e-05 0.280189 -4.83367e-08 -1.07119e-05)
(1.20485e-15 0 -1.14903e-21 24.9652 5.70838e-05 2.04032e-05 0.281454 3.57712e-07 -1.06384e-05)
(1.5888e-15 0 0 24.9652 5.7086e-05 2.03961e-05 0.281454 3.3789e-07 -1.06424e-05)
(-7.17787e-16 0 0 24.7123 5.92372e-05 3.64134e-05 0.282581 4.88332e-07 -1.05022e-05)
(0 0 0 24.7123 5.89173e-05 3.63935e-05 0.282581 4.39598e-07 -1.05056e-05)
(-7.37268e-16 0 0 24.4464 0.000192656 6.99761e-05 0.283497 9.07646e-07 -1.02641e-05)
(0 0 0 24.4464 0.000192647 6.99351e-05 0.283497 8.57276e-07 -1.0267e-05)
(0 5.50167e-22 0 24.1626 0.000389719 0.000147959 0.284144 2.57014e-06 -9.78217e-06)
(0 0 0 24.1626 0.000389796 0.000147902 0.284144 2.51972e-06 -9.78466e-06)
(-1.91377e-15 -1.08456e-21 -1.08456e-21 23.8566 0.000563799 0.000301655 0.284453 5.34225e-06 -8.74561e-06)
(0 0 1.08456e-21 23.8566 0.000563631 0.000301584 0.284453 5.2907e-06 -8.74764e-06)
(-1.12095e-15 -2.13804e-21 0 23.5211 0.000660528 0.000555338 0.284297 8.21401e-06 -6.67592e-06)
(-3.18513e-15 -4.88803e-22 0 23.5211 0.000660492 0.000555254 0.284297 8.21538e-06 -6.67754e-06)
(-8.16129e-16 -1.02929e-21 0 23.1428 0.000570466 0.000741168 0.283437 5.76303e-06 -2.97901e-06)
(3.26452e-15 4.08827e-21 0 23.1428 0.000570444 0.000736462 0.283437 5.7611e-06 -2.9802e-06)
(-1.08905e-15 3.73234e-18 0 22.6982 -2.22253e-21 0.000617142 0.28148 0 1.02366e-07)
(1.08905e-15 -1.33626e-17 0 22.6982 1.85561e-05 0.000612481 0.28148 1.1546e-07 1.01981e-07)
(-8.56101e-16 -1.87751e-21 0 22.1528 -0.000257072 0.000513526 0.277868 1.62282e-06 9.97677e-08)
(3.42441e-15 7.47841e-21 0 22.1528 -0.000257373 0.000513529 0.277868 1.62472e-06 9.93978e-08)
(2.81046e-15 0 0 21.4641 -0.00135257 0.000582575 0.271953 9.17445e-06 9.16361e-08)
(2.44676e-15 0 0 21.4641 -0.0013525 0.000582592 0.271953 9.11849e-06 9.12641e-08)
(1.04289e-15 0 0 20.5903 -0.00203709 0.0005622 0.263134 -2.21402e-06 7.31776e-08)
(0 0 0 20.5903 -0.00203698 0.000562244 0.263134 -2.27022e-06 7.28339e-08)
(-9.16233e-16 0 0 19.5035 -0.00222095 0.000426845 0.251054 -1.71833e-05 3.60152e-08)
(0 0 0 19.5035 -0.00222076 0.00042693 0.251054 -1.72388e-05 3.57165e-08)
(-1.87154e-15 3.39547e-21 -2.38242e-18 18.2036 -0.00177118 6.59613e-05 0.235813 -1.89152e-05 -3.46133e-08)
(3.74307e-15 -6.82839e-21 0 18.2036 -0.00177064 6.63587e-05 0.235813 -1.89017e-05 -3.48442e-08)
(-9.54593e-16 4.63922e-21 2.85104e-18 16.7281 -0.000789604 -3.83033e-09 0.218073 -6.63288e-06 -1.65804e-07)
(0 0 0 16.7281 -0.00078828 0 0.218073 -6.63322e-06 -1.65965e-07)
(-9.72364e-16 5.20651e-21 0 15.1537 0.000402049 -0.000474772 0.199054 -2.77987e-06 -4.06956e-07)
(3.88946e-15 -2.08445e-20 0 15.1537 0.000404625 -0.000474232 0.199054 -2.78538e-06 -4.06973e-07)
(-1.95903e-15 2.52701e-21 0 13.5862 0.00139802 -0.000763612 0.180353 -1.3582e-05 -8.42711e-07)
(0 0 0 13.5862 0.00140385 -0.00076256 0.180353 -1.36364e-05 -8.42232e-07)
(-3.91992e-15 0 0 12.1422 0.00173483 -0.000966322 0.163659 -1.5468e-05 -1.63662e-06)
(-2.1017e-15 0 0 12.1422 0.00174225 -0.000964362 0.163659 -1.54429e-05 -1.63478e-06)
(-2.97624e-15 0 0 10.9262 -0.0126594 -0.000953958 0.150417 1.4517e-05 -3.43831e-06)
(8.13437e-15 4.30395e-16 0 10.9262 -0.0127329 -0.000950128 0.150417 1.47441e-05 -3.43837e-06)
(-3.08539e-15 5.77779e-34 9.13641e-22 10.0112 3.48059e-18 0.000310776 0.141569 1.35525e-20 -3.03652e-06)
(-4.11385e-15 5.66313e-16 1.06743e-21 10.0112 -0.000867306 0.000304517 0.141569 -6.32531e-06 -3.30195e-06)
(-1.03886e-15 0 0 9.42853 0.0169968 0.00100011 0.137452 0.00017906 5.22876e-06)
(4.15543e-15 0 0 9.42853 0.0168173 0.000991992 0.137452 0.000182269 5.22676e-06)
(2.85373e-15 0 1.35438e-17 9.16763 0.00986 1.72338e-05 0.137825 -3.85093e-06 1.29369e-07)
(-1.80539e-15 0 -3.44351e-21 9.16763 0.00966113 2.48252e-05 0.137825 -3.49411e-06 1.86355e-07)
(8.89758e-16 9.73482e-18 0 9.18552 0.00330204 6.06456e-05 0.142027 2.49074e-05 1.72965e-06)
(3.33953e-15 1.65984e-17 7.06131e-23 9.18552 0.00330825 6.3151e-05 0.142027 2.4945e-05 1.74872e-06)
(8.77005e-16 0 1.89231e-18 9.42055 -0.000450745 5.03232e-06 0.14918 6.07005e-06 3.88827e-08)
(4.26474e-15 6.65705e-21 5.03295e-22 9.42055 -0.00045441 6.43262e-06 0.14918 6.0646e-06 4.97023e-08)
(-1.72887e-15 -1.64878e-21 0 9.80661 -0.000610699 -1.95088e-34 0.158381 9.83839e-06 5.29396e-23)
(4.30104e-15 6.25442e-22 -1.39742e-21 9.80661 -0.000612691 -8.01e-07 0.158381 9.8741e-06 6.279e-09)
(0 0 0 10.2835 -0.000500311 -0.000106261 0.168832 5.26136e-06 1.8166e-07)
(0 0 0 10.2835 -0.000501481 -0.000105967 0.168832 5.21289e-06 1.81715e-07)
(-2.18996e-15 0 0 10.8029 -0.000329706 -0.00013954 0.179906 1.37494e-06 2.68153e-08)
(0 0 0 10.8029 -0.000330165 -0.000139382 0.179906 1.32108e-06 2.69621e-08)
(0 0 0 11.3295 -0.000175459 -0.000147676 0.191145 -9.41368e-07 -5.95237e-08)
(4.42361e-15 0 0 11.3295 -0.000175642 -0.000147591 0.191145 -9.97625e-07 -5.93234e-08)
(0 0 0 11.8393 -5.78315e-05 -0.000140409 0.202232 -1.92669e-06 -1.0741e-07)
(4.4705e-15 0 -1.55627e-21 11.8393 -5.78587e-05 -0.000140364 0.202232 -1.98377e-06 -1.07189e-07)
(-1.13017e-15 0 0 12.3164 3.17399e-06 -0.000126141 0.212943 -2.08375e-06 -1.33949e-07)
(0 0 0 12.3164 3.28112e-06 -0.000126118 0.212943 -2.14074e-06 -1.33721e-07)
(1.14354e-15 0 0 12.7508 2.4261e-05 -0.000110539 0.223117 -1.92285e-06 -1.48395e-07)
(-1.58542e-15 0 -1.51198e-21 12.7508 2.43748e-05 -0.000110528 0.223117 -1.9792e-06 -1.4816e-07)
(1.5627e-15 3.06733e-19 0 13.1356 6.74077e-06 -9.62733e-05 0.232625 -1.64651e-06 -1.56224e-07)
(0 -3.15691e-19 0 13.1356 1.15136e-05 -9.62706e-05 0.232625 -1.70212e-06 -1.55993e-07)
(1.5403e-15 0 0 13.4662 1.05602e-05 -8.37817e-05 0.241373 -1.57921e-06 -1.60283e-07)
(0 0 0 13.4662 1.07328e-05 -8.37847e-05 0.241373 -1.63375e-06 -1.60065e-07)
(-8.58325e-16 5.01009e-20 3.61973e-22 13.7403 7.55008e-06 -7.25966e-05 0.249299 -1.37757e-06 -1.62456e-07)
(0 -2.92347e-20 0 13.7403 1.05057e-05 -7.26051e-05 0.249299 -1.4309e-06 -1.62246e-07)
(-1.20459e-15 0 0 13.9575 -3.97047e-20 6.30532e-06 0.25637 -1.29689e-06 -1.63631e-07)
(0 0 0 13.9575 -8.49846e-07 4.62769e-06 0.25637 -1.34878e-06 -1.6343e-07)
(1.22152e-15 0 0 14.1192 -3.4681e-06 8.54724e-05 0.262586 -1.30426e-06 7.93418e-07)
(-4.88608e-15 0 0 14.1192 -2.62876e-06 8.38138e-05 0.262586 -1.35423e-06 7.89144e-07)
(0 0 0 14.2282 2.86652e-05 8.05201e-05 0.267976 -1.27025e-06 1.31413e-06)
(-4.95597e-15 0 -3.18088e-22 14.2282 2.72867e-05 8.0495e-05 0.267976 -1.31684e-06 1.31272e-06)
(-1.25695e-15 6.01853e-36 -9.25992e-22 14.2888 -1.10114e-20 6.14915e-05 0.272587 -7.31553e-07 1.00982e-06)
(8.62253e-15 0 1.93378e-21 14.2888 3.94941e-06 6.15249e-05 0.272587 -7.76843e-07 1.01253e-06)
(1.27532e-15 0 3.93528e-22 14.3055 0.0003091 4.2216e-05 0.27647 -1.50363e-06 6.07474e-07)
(5.10129e-15 0 1.58231e-21 14.3055 0.00028374 4.18229e-05 0.27647 -1.544e-06 5.89536e-07)
(0 5.70428e-22 0 14.2823 -2.71051e-20 3.26229e-05 0.279664 0 6.63163e-07)
(0 0 0 14.2823 -8.9376e-05 3.22639e-05 0.279664 1.12819e-06 6.67284e-07)
(-1.31312e-15 -2.86095e-18 -9.40395e-38 14.2226 -4.02423e-05 6.04371e-22 0.28219 -3.97424e-07 8.47033e-22)
(5.25247e-15 9.81545e-22 2.38008e-21 14.2226 -0.000221732 -5.48895e-06 0.28219 -1.42151e-06 6.65946e-08)
(-1.33244e-15 6.89423e-18 -3.96317e-22 14.1282 5.43354e-20 -6.15773e-05 0.284047 0 9.78278e-07)
(-5.32976e-15 -6.62585e-18 -2.27691e-21 14.1282 3.24724e-05 -5.98354e-05 0.284047 3.25353e-07 8.95394e-07)
(4.01848e-15 0 -4.29884e-22 14.0001 -1.26688e-05 -7.92766e-05 0.28521 2.59707e-07 1.49331e-06)
(2.74147e-15 0 1.45104e-21 14.0001 -6.69878e-06 -7.95893e-05 0.28521 2.52363e-07 1.50707e-06)
(-2.68586e-15 3.88004e-19 -3.39097e-23 13.8381 -1.20492e-20 -9.13682e-05 0.285637 0 1.73182e-06)
(6.80102e-15 3.15732e-22 1.36184e-22 13.8381 8.53257e-06 -9.1379e-05 0.285637 8.79954e-08 1.73067e-06)
(-1.39159e-15 -3.99047e-23 0 13.6417 -1.43097e-05 -6.91967e-05 0.285284 3.06644e-07 7.86603e-07)
(0 0 0 13.6417 -1.36458e-05 -6.93927e-05 0.285284 2.56014e-07 7.86349e-07)
(-1.41155e-15 -2.75311e-23 0 13.4104 -2.18228e-05 2.98492e-06 0.284113 2.92131e-07 1.49986e-07)
(0 0 0 13.4104 -2.22496e-05 2.81407e-06 0.284113 3.15512e-07 1.49908e-07)
(-1.43154e-15 0 0 13.1446 -3.37991e-05 4.71496e-05 0.282108 2.20805e-07 1.48757e-07)
(5.72616e-15 0 0 13.1446 -3.36997e-05 4.71314e-05 0.282108 1.83004e-07 1.48658e-07)
(1.45151e-15 0 0 12.846 -3.77386e-05 4.76244e-05 0.279291 -1.42858e-07 1.47418e-07)
(0 0 0 12.846 -3.77091e-05 4.76177e-05 0.279291 -1.80273e-07 1.47324e-07)
(1.22262e-15 0 5.82992e-22 12.518 -3.62149e-05 4.52082e-05 0.275722 -5.10375e-07 1.46036e-07)
(-1.22262e-15 0 0 12.518 -3.60996e-05 4.52074e-05 0.275722 -5.46914e-07 1.45942e-07)
(-1.4911e-15 0 0 12.1657 -3.49352e-05 3.9847e-05 0.271509 -8.52148e-07 1.446e-07)
(0 0 0 12.1657 -3.48442e-05 3.98493e-05 0.271509 -8.87601e-07 1.44514e-07)
(2.37565e-15 0 0 11.7958 -2.44117e-05 3.19043e-05 0.266796 -1.20392e-06 1.43129e-07)
(1.20847e-14 0 0 11.7958 -2.42879e-05 3.19079e-05 0.266796 -1.2382e-06 1.43046e-07)
(-2.3416e-15 -6.97852e-23 -5.58282e-22 11.4163 -1.05545e-05 2.23589e-05 0.261761 -1.31547e-06 1.41621e-07)
(6.11921e-15 0 0 11.4163 -1.04148e-05 2.23643e-05 0.261761 -1.34839e-06 1.41535e-07)
(-6.16477e-15 -6.8785e-23 -5.5028e-22 11.0356 -1.21705e-06 1.22062e-05 0.256598 -1.35647e-06 1.4005e-07)
(-3.88669e-15 0 0 11.0356 -1.13948e-06 1.22125e-05 0.256598 -1.38817e-06 1.39983e-07)
(7.07767e-16 6.77992e-23 2.87477e-20 10.662 1.15777e-05 1.69407e-21 0.251497 -1.25334e-06 0)
(-6.26878e-15 0 -9.60959e-20 10.662 1.16929e-05 4.12596e-07 0.251497 -1.28389e-06 4.91588e-09)
(-2.24236e-15 0 3.82444e-20 10.3031 1.7542e-05 -4.25516e-06 0.246634 -9.90072e-07 5.14354e-08)
(0 0 -1.06924e-21 10.3031 1.76645e-05 -4.24868e-06 0.246634 -1.01931e-06 5.1357e-08)
(0 0 0 9.965 2.03964e-05 -1.24481e-05 0.242157 -7.4067e-07 1.35181e-07)
(4.20201e-15 0 0 9.965 2.04882e-05 -1.24424e-05 0.242157 -7.68684e-07 1.35125e-07)
(-5.58128e-16 -2.59702e-22 -1.03881e-21 9.65216 2.29355e-05 -1.67322e-05 0.238177 -4.01626e-07 1.33464e-07)
(0 0 0 9.65216 2.30385e-05 -1.67266e-05 0.238177 -4.28462e-07 1.33414e-07)
(0 0 0 9.3673 1.76091e-05 -1.87872e-05 0.234763 -8.32731e-08 1.31753e-07)
(1.30993e-14 0 0 9.3673 1.77005e-05 -1.87817e-05 0.234763 -1.08946e-07 1.31706e-07)
(2.11654e-15 0 5.04622e-22 9.11134 1.20781e-05 -1.90442e-05 0.231947 1.27946e-07 1.29959e-07)
(1.32327e-14 0 0 9.11134 1.21696e-05 -1.90389e-05 0.231947 1.03404e-07 1.29918e-07)
(-3.34099e-15 -5.8415e-23 0 8.88371 7.36803e-06 -1.79386e-05 0.229724 1.00352e-07 1.28185e-07)
(0 0 0 8.88371 7.45569e-06 -1.79334e-05 0.229724 1.02507e-07 1.28145e-07)
(-1.68667e-15 9.61622e-21 0 8.68264 4.24107e-21 -1.59899e-05 0.228062 0 1.26316e-07)
(1.34933e-14 3.95404e-22 0 8.68264 9.97357e-07 -1.59847e-05 0.228062 2.42303e-08 1.26285e-07)
(1.70265e-15 5.05728e-23 0 8.50542 -1.9621e-06 -1.36599e-05 0.226905 5.30213e-08 1.24484e-07)
(0 0 0 8.50542 -1.88019e-06 -1.3655e-05 0.226905 5.10284e-08 1.24453e-07)
(-1.7185e-15 4.11678e-21 0 8.34878 -3.82739e-06 -1.1217e-05 0.226181 5.19284e-08 1.22546e-07)
(0 0 0 8.34878 -3.65111e-06 -1.12119e-05 0.226181 4.95368e-08 1.22519e-07)
(-1.73425e-15 -2.83374e-23 0 8.20903 -5.11327e-06 -8.84014e-06 0.225802 1.78824e-07 1.20654e-07)
(6.93698e-15 1.03604e-22 0 8.20903 -5.04718e-06 -8.83532e-06 0.225802 1.77048e-07 1.20631e-07)
(-1.74993e-15 -3.73995e-23 0 8.0822 -2.6173e-06 -6.45022e-06 0.22567 1.02157e-07 1.18651e-07)
(5.0588e-15 1.4042e-22 0 8.0822 -2.54676e-06 -6.44554e-06 0.22567 1.00292e-07 1.18631e-07)
(-3.53118e-15 -9.58604e-23 0 7.96409 -1.8366e-06 -3.87025e-06 0.225674 4.36232e-08 1.16713e-07)
(0 0 0 7.96409 -1.77147e-06 -3.86578e-06 0.225674 4.15455e-08 1.16693e-07)
(-3.66693e-15 -4.67241e-23 -5.9179e-24 7.8503 -2.32427e-06 -1.08199e-06 0.225691 6.05836e-08 7.20041e-08)
(0 0 -8.99166e-22 7.8503 -2.26246e-06 -1.07759e-06 0.225691 5.89739e-08 7.19549e-08)
(1.85866e-15 0 0 7.73629 1.49665e-06 2.11523e-06 0.225586 1.62146e-07 1.12661e-07)
(-7.18769e-15 -1.21792e-22 0 7.73629 1.55569e-06 2.11942e-06 0.225586 1.6364e-07 1.12645e-07)
(1.81263e-15 1.80454e-20 0 7.61739 4.87044e-21 5.91271e-06 0.225214 0 1.1054e-07)
(7.25051e-15 3.28422e-21 0 7.61739 6.13589e-07 5.91688e-06 0.225214 9.07815e-09 1.10528e-07)
(3.63413e-15 5.05799e-23 0 7.48893 -5.46864e-06 9.91011e-06 0.224425 1.26429e-07 1.08518e-07)
(-9.11922e-15 -1.95541e-22 0 7.48893 -5.41065e-06 9.91427e-06 0.224425 1.2466e-07 1.08504e-07)
(-1.84412e-15 -3.10253e-23 0 7.34653 -3.63129e-06 1.38485e-05 0.223074 2.02464e-07 1.06343e-07)
(5.59661e-15 1.17718e-22 0 7.34653 -3.58877e-06 1.38526e-05 0.223074 2.00751e-07 1.06336e-07)
(0 2.1112e-20 0 7.18631 -1.12604e-06 1.78358e-05 0.221025 1.73974e-08 1.04282e-07)
(-1.75437e-15 0 -4.18275e-22 7.18631 -1.06968e-06 1.78393e-05 0.221025 1.65266e-08 1.04272e-07)
(-3.45845e-15 -2.0614e-22 -8.2456e-22 7.00519 -5.23281e-06 2.17604e-05 0.21817 1.98755e-07 1.02068e-07)
(7.50248e-15 1.00182e-22 0 7.00519 -5.17912e-06 2.17643e-05 0.21817 1.96555e-07 1.02055e-07)
(1.89128e-15 3.19105e-23 0 6.80123 -2.35296e-06 2.56796e-05 0.214432 1.28831e-07 9.99782e-08)
(0 0 0 6.80123 -2.31879e-06 2.56834e-05 0.214432 1.27672e-07 9.99691e-08)
(0 0 0 6.57391 -2.91379e-07 2.99028e-05 0.209783 2.00566e-08 9.77246e-08)
(-7.62721e-15 -1.9609e-22 0 6.57391 -2.48734e-07 2.99063e-05 0.209783 1.90431e-08 9.77166e-08)
(-3.31187e-15 -1.97403e-22 -7.89611e-22 6.32419 3.21516e-06 3.48061e-05 0.204245 2.10612e-07 9.56156e-08)
(0 0 0 6.32419 3.25688e-06 3.48094e-05 0.204245 2.11593e-07 9.56031e-08)
(-3.2644e-15 0 0 6.05466 7.22371e-06 4.09261e-05 0.197895 2.69655e-07 9.33291e-08)
(0 0 0 6.05466 7.25834e-06 4.09295e-05 0.197895 2.70976e-07 9.33181e-08)
(1.95189e-15 5.43035e-23 0 5.76934 8.89684e-06 4.8714e-05 0.19086 3.30356e-07 9.12023e-08)
(0 0 0 5.76934 8.93323e-06 4.87172e-05 0.19086 3.31486e-07 9.11877e-08)
(1.96618e-15 6.84069e-23 0 5.47346 1.1044e-05 5.85278e-05 0.183314 4.25427e-07 8.88899e-08)
(0 0 0 5.47346 1.10761e-05 5.85309e-05 0.183314 4.26488e-07 8.88752e-08)
(-3.95998e-15 -2.82059e-22 0 5.17302 8.26378e-06 7.04336e-05 0.175459 1.45778e-07 8.67514e-08)
(7.91996e-15 5.59594e-22 0 5.17302 8.29508e-06 7.04365e-05 0.175459 1.46889e-07 8.67321e-08)
(-1.99327e-15 -1.57738e-22 0 4.87429 3.90137e-06 8.40349e-05 0.167509 1.28655e-07 8.44168e-08)
(0 0 0 4.87429 3.93146e-06 8.4038e-05 0.167509 1.29661e-07 8.43956e-08)
(-3.03708e-15 4.11024e-20 0 4.58331 -4.48289e-07 9.8654e-05 0.159673 8.0017e-09 8.2267e-08)
(0 0 0 4.58331 -1.10114e-20 9.86568e-05 0.159673 -2.11758e-22 8.2242e-08)
(0 0 0 4.30536 -1.42026e-05 0.000112988 0.152136 2.89496e-07 7.9918e-08)
(-2.99355e-15 0 -2.85487e-21 4.30536 -1.41754e-05 0.000112991 0.152136 2.88559e-07 7.98898e-08)
(-2.95064e-15 -1.75872e-22 -2.81395e-21 4.04453 -2.38979e-05 0.00012536 0.145042 7.42555e-07 7.77731e-08)
(0 0 0 4.04453 -2.38727e-05 0.000125362 0.145042 7.41518e-07 7.77378e-08)
(0 0 0 3.8035 -3.42971e-05 0.00013407 0.138491 4.21096e-07 7.54186e-08)
(1.63249e-14 0 0 3.8035 -3.4274e-05 0.000134073 0.138491 4.16856e-07 7.53792e-08)
(-4.10211e-15 0 0 3.58344 -4.56849e-05 0.000137156 0.132524 -3.24197e-07 7.32799e-08)
(8.20422e-15 0 0 3.58344 -4.56619e-05 0.000137159 0.132524 -3.27901e-07 7.32321e-08)
(4.88658e-15 0 0 3.38402 -5.19695e-05 0.000132827 0.127133 -1.25402e-06 7.09264e-08)
(0 0 0 3.38402 -5.19489e-05 0.00013283 0.127133 -1.25721e-06 7.08723e-08)
(0 0 0 3.20368 -5.13109e-05 0.000120119 0.122264 -1.98194e-06 6.88031e-08)
(-8.28199e-15 1.38511e-22 0 3.20368 -5.12909e-05 0.000120121 0.122264 -2.01926e-06 6.87381e-08)
(-4.82476e-15 1.83089e-22 -5.23599e-21 3.03998 -4.5738e-05 9.89612e-05 0.117833 -1.88005e-06 6.64599e-08)
(8.31838e-15 -7.13033e-22 0 3.03998 -4.5721e-05 9.89636e-05 0.117833 -1.91707e-06 6.63868e-08)
(0 0 0 2.88996 -3.54703e-05 7.0095e-05 0.113735 -1.78081e-06 6.4364e-08)
(-2.70582e-15 0 -5.16094e-21 2.88996 -3.54506e-05 7.00971e-05 0.113735 -1.81692e-06 6.42758e-08)
(2.66704e-15 0 2.33722e-20 2.7505 -1.88369e-05 3.35548e-05 0.109863 -1.68336e-06 6.2045e-08)
(-2.66704e-15 0 0 2.7505 -1.88183e-05 3.35724e-05 0.109863 -1.71951e-06 6.19432e-08)
(-2.10491e-15 4.36793e-22 -2.29221e-37 2.6187 1.19552e-06 -8.2385e-22 0.106116 -1.58905e-06 -2.31006e-39)
(0 0 0 2.6187 1.20523e-06 -1.92884e-08 0.106116 -1.62428e-06 3.97756e-10)
(-1.63444e-15 2.0736e-22 9.8844e-21 2.49215 2.12568e-05 -4.07933e-05 0.102414 -1.49775e-06 5.7679e-08)
(1.69023e-14 -3.26293e-21 0 2.49215 2.1273e-05 -4.07911e-05 0.102414 -1.53195e-06 5.75485e-08)
(0 0 0 2.36909 3.81639e-05 -7.54649e-05 0.0987003 -1.40786e-06 5.56577e-08)
(0 0 0 2.36909 3.81797e-05 -7.5463e-05 0.0987003 -1.44196e-06 5.55034e-08)
(0 3.00097e-22 0 2.24844 4.96162e-05 -0.000104004 0.0949461 -1.9462e-06 5.34104e-08)
(-2.51739e-15 0 0 2.24844 4.9627e-05 -0.000104002 0.0949461 -1.94651e-06 5.32352e-08)
(-6.40469e-15 0 0 2.1298 5.4762e-05 -0.00012444 0.0911489 -1.61777e-06 5.14432e-08)
(1.70792e-14 0 0 2.1298 5.47737e-05 -0.000124438 0.0911489 -1.6166e-06 5.12397e-08)
(0 0 0 2.01337 5.30893e-05 -0.000135852 0.0873297 -3.69288e-07 4.92496e-08)
(1.7134e-14 0 0 2.01337 5.30992e-05 -0.00013585 0.0873297 -3.67657e-07 4.90173e-08)
(-2.14834e-15 0 0 1.89979 4.55824e-05 -0.00013843 0.0835273 7.75168e-07 4.73439e-08)
(-2.41069e-15 0 0 1.89979 4.55932e-05 -0.000138429 0.0835273 7.77317e-07 4.70753e-08)
(-2.2149e-16 4.52779e-23 0 1.78996 3.55402e-05 -0.000133198 0.0797927 1.39205e-06 4.52149e-08)
(1.96134e-14 3.64912e-22 0 1.78996 3.55481e-05 -0.000133196 0.0797927 1.39228e-06 4.49086e-08)
(-2.34209e-15 0 0 1.68495 2.18937e-05 -0.000121875 0.0761813 6.29466e-07 4.33861e-08)
(1.09849e-14 1.00257e-21 0 1.68495 2.19019e-05 -0.000121874 0.0761813 6.29988e-07 4.30312e-08)
(2.16645e-15 1.23367e-20 0 1.58576 8.07936e-06 -0.000106649 0.0727457 1.89725e-07 4.13351e-08)
(0 0 0 1.58576 8.09018e-06 -0.000106648 0.0727457 1.89979e-07 4.0928e-08)
(4.3439e-15 7.18825e-21 0 1.49324 -8.73349e-07 -8.95515e-05 0.0695317 2.08068e-08 3.95826e-08)
(8.68779e-15 0 0 1.49324 -1.69407e-20 -8.95503e-05 0.0695317 0 3.91217e-08)
(0 0 0 1.40799 -9.47829e-06 -7.23135e-05 0.066574 3.11444e-07 3.76186e-08)
(0 0 0 1.40799 -9.4721e-06 -7.23123e-05 0.066574 3.11295e-07 3.70898e-08)
(2.21067e-15 0 0 1.3303 -1.43912e-05 -5.63013e-05 0.0638927 6.07071e-07 3.59625e-08)
(8.7287e-15 1.02702e-21 0 1.3303 -1.43875e-05 -5.63005e-05 0.0638927 6.06619e-07 3.53559e-08)
(4.37388e-15 3.48999e-22 0 1.26015 -1.64702e-05 -4.23654e-05 0.0614929 8.05972e-07 3.41015e-08)
(0 0 0 1.26015 -1.64686e-05 -4.23644e-05 0.0614929 8.0606e-07 3.3411e-08)
(2.1915e-15 1.15057e-22 0 1.19724 -1.61331e-05 -3.08741e-05 0.0593666 8.3324e-07 3.25286e-08)
(1.09138e-14 4.64051e-22 0 1.19724 -1.61306e-05 -3.08735e-05 0.0593666 8.32989e-07 3.17524e-08)
(-2.11698e-15 0 0 1.14101 -1.47423e-05 -2.18537e-05 0.0574927 7.95308e-07 3.07942e-08)
(1.09005e-14 2.71977e-22 0 1.14101 -1.47422e-05 -2.18531e-05 0.0574927 7.95309e-07 2.99156e-08)
(-2.2001e-15 -3.09328e-23 0 1.0907 -1.21467e-05 -1.50788e-05 0.05584 7.14153e-07 2.92602e-08)
(-8.80041e-15 -1.27898e-22 0 1.0907 -1.21482e-05 -1.50787e-05 0.05584 7.14141e-07 2.83258e-08)
(-4.26091e-15 -2.62321e-22 -1.22591e-22 1.04544 -9.6702e-06 -1.01797e-05 0.0543705 5.46907e-07 2.77264e-08)
(0 0 0 1.04544 -9.67304e-06 -1.01795e-05 0.0543705 5.4708e-07 2.66837e-08)
(-2.20814e-15 0 0 1.0043 -7.44898e-06 -6.78576e-06 0.0530423 4.59756e-07 2.60104e-08)
(-8.83255e-15 0 0 1.0043 -7.45292e-06 -6.69722e-06 0.0530423 4.66084e-07 2.51106e-08)
(0 0 0 0.966317 -5.24369e-06 7.1333e-07 0.0518118 2.83841e-07 2.49688e-08)
(0 0 0 0.966317 -5.24974e-06 1.17665e-06 0.0518118 3.00917e-07 2.637e-08)
(0 0 0 0.930609 -3.71375e-06 6.03966e-06 0.0506362 2.27577e-07 1.65041e-07)
(1.7726e-14 0 0 0.930609 -3.7219e-06 6.37363e-06 0.0506362 2.21999e-07 1.77862e-07)
(-2.78096e-16 0 -3.14334e-23 0.896352 -2.08895e-06 1.65339e-06 0.0494754 4.49158e-08 4.61697e-08)
(6.93636e-15 0 1.37287e-22 0.896352 -2.09683e-06 1.3233e-06 0.0494754 8.80544e-08 3.69522e-08)
(-1.9135e-15 -2.85134e-23 -1.14054e-22 0.862832 -2.8553e-06 -2.1433e-07 0.0482934 2.5611e-07 6.32323e-08)
(-8.89207e-15 -1.12983e-23 -1.31081e-22 0.862832 -2.86254e-06 -2.06662e-21 0.0482934 1.5949e-07 0)
(-1.88608e-15 4.39136e-24 -1.12419e-22 0.829471 -9.82921e-07 -6.64263e-07 0.0470613 -3.05179e-07 4.46435e-08)
(0 -6.14791e-24 0 0.829471 -9.82726e-07 -1.27822e-06 0.0470613 -2.31995e-07 7.14615e-08)
(-1.4881e-15 -1.3851e-23 -7.24551e-23 0.795836 1.22404e-06 -6.78379e-07 0.0457563 4.79441e-07 3.16323e-08)
(8.91995e-15 0 1.05556e-22 0.795836 1.22813e-06 -1.29584e-06 0.0457563 1.33273e-07 7.55234e-08)
(1.8324e-15 1.12797e-20 0 0.761637 -6.67177e-07 -7.56037e-07 0.0443634 -4.55914e-08 4.76098e-08)
(0 0 0 0.761637 -1.32596e-07 -1.11074e-06 0.0443634 3.92276e-09 7.56252e-08)
(3.61227e-15 -9.28278e-21 2.15308e-22 0.726764 2.11758e-22 -8.12227e-07 0.0428795 4.36438e-08 4.18155e-08)
(0 0 -1.07654e-22 0.726764 -6.88022e-07 -9.22582e-07 0.0428795 1.44775e-08 5.56728e-08)