/*--------------------------------*- C++ -*----------------------------------*\
| =========                 |                                                 |
| \\      /  F ield         | OpenFOAM: The Open Source CFD Toolbox           |
|  \\    /   O peration     | Version:  2012                                  |
|   \\  /    A nd           | Website:  www.openfoam.com                      |
|    \\/     M anipulation  |                                                 |
\*---------------------------------------------------------------------------*/
FoamFile
{
    version     2.0;
    format      ascii;
    class       volSymmTensorField;
    location    "16000";
    object      turbulenceProperties:R;
}
// * * * * * * * * * * * * * * * * * * * * * * * * * * * * * * * * * * * * * //

dimensions      [0 2 -2 0 0 0 0];


internalField   nonuniform List<symmTensor> 
2560
(
(9.67702e-08 -2.77573e-12 -4.01831e-15 9.67702e-08 3.01314e-17 9.67702e-08)
(9.67702e-08 -2.77573e-12 -4.01831e-15 9.67702e-08 2.95683e-17 9.67702e-08)
(1.98557e-08 -3.27305e-12 -1.42843e-14 1.98557e-08 5.39755e-18 1.98557e-08)
(1.98557e-08 -3.27305e-12 -1.42843e-14 1.98557e-08 5.45337e-18 1.98557e-08)
(4.49709e-08 -2.1866e-11 -1.31252e-13 4.49709e-08 1.79862e-17 4.49709e-08)
(4.49709e-08 -2.1866e-11 -1.31252e-13 4.49709e-08 1.81965e-17 4.49709e-08)
(1.51966e-07 -1.56673e-10 -9.54113e-13 1.51966e-07 1.31613e-16 1.51966e-07)
(1.51966e-07 -1.56673e-10 -9.54113e-13 1.51966e-07 1.33191e-16 1.51966e-07)
(3.94216e-07 -7.1697e-10 -4.4297e-12 3.94216e-07 6.10365e-16 3.94216e-07)
(3.94216e-07 -7.1697e-10 -4.4297e-12 3.94216e-07 6.17946e-16 3.94216e-07)
(8.42332e-07 -2.41183e-09 -1.51175e-11 8.42332e-07 2.0815e-15 8.42332e-07)
(8.42332e-07 -2.41183e-09 -1.51175e-11 8.42332e-07 2.10777e-15 8.42332e-07)
(1.57959e-06 -6.59737e-09 -4.19527e-11 1.57959e-06 5.77616e-15 1.57959e-06)
(1.57959e-06 -6.59737e-09 -4.19527e-11 1.57959e-06 5.85044e-15 1.57959e-06)
(2.70148e-06 -1.55882e-08 -1.00563e-10 2.70148e-06 1.3845e-14 2.70148e-06)
(2.70148e-06 -1.55882e-08 -1.00563e-10 2.70148e-06 1.40302e-14 2.70148e-06)
(4.31597e-06 -3.30414e-08 -2.16252e-10 4.31597e-06 2.97635e-14 4.31597e-06)
(4.31597e-06 -3.30414e-08 -2.16252e-10 4.31597e-06 3.019e-14 4.31597e-06)
(6.54402e-06 -6.44233e-08 -4.27772e-10 6.54402e-06 5.88459e-14 6.54402e-06)
(6.54402e-06 -6.44233e-08 -4.27772e-10 6.54402e-06 5.97861e-14 6.54402e-06)
(9.52027e-06 -1.17566e-07 -7.91974e-10 9.52027e-06 1.08842e-13 9.52027e-06)
(9.52027e-06 -1.17566e-07 -7.91974e-10 9.52027e-06 1.10895e-13 9.52027e-06)
(1.33938e-05 -2.03326e-07 -1.38956e-09 1.33938e-05 1.90484e-13 1.33938e-05)
(1.33938e-05 -2.03326e-07 -1.38956e-09 1.33938e-05 1.94616e-13 1.33938e-05)
(1.83288e-05 -3.36356e-07 -2.33208e-09 1.83288e-05 3.15231e-13 1.83288e-05)
(1.83288e-05 -3.36356e-07 -2.33208e-09 1.83288e-05 3.24101e-13 1.83288e-05)
(2.45056e-05 -5.35999e-07 -3.77012e-09 2.45056e-05 4.96202e-13 2.45056e-05)
(2.45056e-05 -5.35999e-07 -3.77012e-09 2.45056e-05 5.18567e-13 2.45056e-05)
(3.21216e-05 -8.27279e-07 -5.90307e-09 3.21216e-05 7.2098e-13 3.21216e-05)
(3.21216e-05 -8.27279e-07 -5.90307e-09 3.21216e-05 7.48609e-13 3.21216e-05)
(4.13917e-05 -1.24205e-06 -8.99068e-09 4.13917e-05 1.00495e-12 4.13917e-05)
(4.13917e-05 -1.24205e-06 -8.99068e-09 4.13917e-05 1.03635e-12 4.13917e-05)
(5.255e-05 -1.82031e-06 -1.33666e-08 5.255e-05 1.3568e-12 5.255e-05)
(5.255e-05 -1.82031e-06 -1.33666e-08 5.255e-05 1.39671e-12 5.255e-05)
(6.58498e-05 -2.61172e-06 -1.94555e-08 6.58497e-05 1.81612e-12 6.58498e-05)
(6.58497e-05 -2.61172e-06 -1.94555e-08 6.58497e-05 1.86698e-12 6.58497e-05)
(8.15649e-05 -3.67751e-06 -2.77929e-08 8.15649e-05 2.44497e-12 8.15649e-05)
(8.15649e-05 -3.67751e-06 -2.77929e-08 8.15649e-05 2.51224e-12 8.15649e-05)
(9.99906e-05 -5.09234e-06 -3.90451e-08 9.99906e-05 3.31058e-12 9.99906e-05)
(9.99906e-05 -5.09234e-06 -3.90451e-08 9.99906e-05 3.39923e-12 9.99906e-05)
(0.000121443 -6.94589e-06 -5.40292e-08 0.000121443 4.45931e-12 0.000121443)
(0.000121443 -6.94589e-06 -5.40292e-08 0.000121443 4.58009e-12 0.000121443)
(0.000146262 -9.3446e-06 -7.3738e-08 0.000146262 5.90286e-12 0.000146262)
(0.000146262 -9.3446e-06 -7.3738e-08 0.000146262 6.06489e-12 0.000146262)
(0.000174808 -1.24138e-05 -9.937e-08 0.000174808 7.48118e-12 0.000174808)
(0.000174808 -1.24138e-05 -9.937e-08 0.000174808 7.69706e-12 0.000174808)
(0.000207464 -1.63005e-05 -1.32363e-07 0.000207464 8.96628e-12 0.000207464)
(0.000207464 -1.63005e-05 -1.32363e-07 0.000207464 9.16033e-12 0.000207464)
(0.000244636 -2.11753e-05 -1.74426e-07 0.000244636 8.72003e-12 0.000244636)
(0.000244636 -2.11753e-05 -1.74426e-07 0.000244636 9.05493e-12 0.000244636)
(0.000286747 -2.72345e-05 -2.27569e-07 0.000286747 5.81251e-12 0.000286747)
(0.000286747 -2.72345e-05 -2.27569e-07 0.000286747 6.29509e-12 0.000286747)
(0.000334242 -3.47017e-05 -2.94136e-07 0.000334242 -3.25566e-14 0.000334242)
(0.000334242 -3.47017e-05 -2.94136e-07 0.000334242 2.97002e-13 0.000334242)
(0.000387581 -4.38288e-05 -3.76838e-07 0.000387581 -9.07021e-12 0.000387581)
(0.000387581 -4.38288e-05 -3.76838e-07 0.000387581 -8.28974e-12 0.000387581)
(0.000447238 -5.48976e-05 -4.78786e-07 0.000447238 -2.05969e-11 0.000447238)
(0.000447238 -5.48976e-05 -4.78786e-07 0.000447238 -1.96207e-11 0.000447238)
(0.000513693 -6.82216e-05 -6.0354e-07 0.000513693 -1.58903e-12 0.000513693)
(0.000513693 -6.82216e-05 -6.0354e-07 0.000513693 -1.00534e-11 0.000513693)
(0.000587434 -8.41481e-05 -7.55157e-07 0.000587434 2.00917e-10 0.000587434)
(0.000587434 -8.4148e-05 -7.55157e-07 0.000587434 1.90032e-10 0.000587434)
(0.000668942 -0.00010306 -9.38232e-07 0.000668942 4.49737e-10 0.000668942)
(0.000668942 -0.00010306 -9.38232e-07 0.000668942 4.50582e-10 0.000668942)
(0.000758691 -0.000125376 -1.1579e-06 0.00075869 5.19117e-10 0.000758691)
(0.000758691 -0.000125376 -1.1579e-06 0.00075869 5.20145e-10 0.000758691)
(0.000857132 -0.000151542 -1.41979e-06 0.000857131 5.42251e-10 0.000857132)
(0.000857132 -0.000151542 -1.41979e-06 0.000857131 5.4344e-10 0.000857132)
(0.000964687 -0.000182019 -1.72993e-06 0.000964687 5.16524e-10 0.000964687)
(0.000964687 -0.000182019 -1.72993e-06 0.000964687 5.17578e-10 0.000964687)
(0.00108174 -0.000217273 -2.09464e-06 0.00108174 4.69505e-10 0.00108174)
(0.00108174 -0.000217273 -2.09464e-06 0.00108174 4.69879e-10 0.00108174)
(0.00120861 -0.000257756 -2.52044e-06 0.00120861 4.55786e-10 0.00120861)
(0.00120861 -0.000257756 -2.52044e-06 0.00120861 4.56635e-10 0.00120861)
(0.00134557 -0.000303897 -3.01391e-06 0.00134557 5.5388e-10 0.00134557)
(0.00134557 -0.000303897 -3.01391e-06 0.00134557 5.55475e-10 0.00134557)
(0.0014928 -0.000356095 -3.58165e-06 0.00149281 8.50384e-10 0.0014928)
(0.0014928 -0.000356095 -3.58165e-06 0.00149281 8.52567e-10 0.0014928)
(0.0016504 -0.00041471 -4.23029e-06 0.0016504 1.4064e-09 0.0016504)
(0.0016504 -0.00041471 -4.23029e-06 0.0016504 1.40882e-09 0.0016504)
(0.00181836 -0.000480076 -4.96658e-06 0.00181836 2.5764e-10 0.00181836)
(0.00181836 -0.000480076 -4.96658e-06 0.00181836 8.68781e-12 0.00181836)
(0.00199658 -0.00055252 -5.79758e-06 0.00199658 1.35586e-11 0.00199658)
(0.00199658 -0.00055252 -5.79758e-06 0.00199658 -4.70968e-10 0.00199658)
(0.00218484 -0.000632374 -6.73087e-06 0.00218484 -5.91174e-10 0.00218484)
(0.00218484 -0.000632374 -6.73087e-06 0.00218484 -5.92177e-10 0.00218484)
(0.00238279 -0.000719975 -7.7742e-06 0.00238279 -3.85333e-10 0.00238279)
(0.00238279 -0.000719975 -7.7742e-06 0.00238279 -3.85728e-10 0.00238279)
(0.00258998 -0.000815615 -8.93486e-06 0.00258998 -2.8204e-10 0.00258998)
(0.00258998 -0.000815615 -8.93486e-06 0.00258998 -2.81564e-10 0.00258998)
(0.00280583 -0.00091946 -1.02186e-05 0.00280582 -4.03515e-10 0.00280583)
(0.00280583 -0.00091946 -1.02186e-05 0.00280582 -4.02009e-10 0.00280583)
(0.00302961 -0.00103147 -1.16286e-05 0.0030296 -8.57762e-10 0.00302961)
(0.00302961 -0.00103147 -1.16286e-05 0.0030296 -8.56652e-10 0.00302961)
(0.0032605 -0.00115136 -1.31656e-05 0.0032605 -1.71928e-09 0.0032605)
(0.0032605 -0.00115136 -1.31656e-05 0.0032605 -1.71608e-09 0.0032605)
(0.00349759 -0.00127862 -1.48277e-05 0.00349757 -3.70743e-09 0.00349759)
(0.00349759 -0.00127862 -1.48277e-05 0.00349757 -3.70266e-09 0.00349759)
(0.00373984 -0.00141256 -1.66112e-05 0.0037398 -8.80002e-09 0.00373984)
(0.00373984 -0.00141256 -1.66112e-05 0.0037398 -8.79372e-09 0.00373984)
(0.00398619 -0.00155231 -1.85089e-05 0.00398611 -1.99759e-08 0.00398619)
(0.00398619 -0.00155231 -1.85089e-05 0.00398611 -1.99679e-08 0.00398619)
(0.00423549 -0.00169659 -2.05065e-05 0.0042354 -4.06493e-08 0.0042355)
(0.00423549 -0.00169659 -2.05065e-05 0.0042354 -4.06433e-08 0.0042355)
(0.00448663 -0.00184329 -2.25754e-05 0.00448654 -5.94921e-08 0.00448663)
(0.00448663 -0.00184329 -2.25754e-05 0.00448654 -5.91171e-08 0.00448663)
(0.00473848 -0.00198893 -2.46647e-05 0.00473848 -5.40771e-08 0.00473848)
(0.00473848 -0.00198893 -2.46647e-05 0.00473848 -5.36787e-08 0.00473848)
(0.00499009 -0.00212802 -2.66924e-05 0.00499014 -4.94858e-08 0.00499009)
(0.00499009 -0.00212802 -2.66924e-05 0.00499014 -4.94863e-08 0.00499009)
(0.00524058 -0.00225288 -2.85444e-05 0.00524087 -6.21103e-08 0.00524058)
(0.00524058 -0.00225288 -2.85444e-05 0.00524087 -6.21063e-08 0.00524058)
(0.00548959 -0.00235407 -3.00838e-05 0.00549005 -6.40226e-08 0.00548959)
(0.00548959 -0.00235407 -3.00838e-05 0.00549005 -6.40211e-08 0.00548959)
(0.00573711 -0.00242187 -3.1175e-05 0.00573766 -5.08701e-08 0.00573711)
(0.00573711 -0.00242187 -3.1175e-05 0.00573766 -5.08738e-08 0.00573711)
(0.00598375 -0.00244869 -3.17208e-05 0.00598423 -6.32849e-09 0.00598375)
(0.00598375 -0.00244869 -3.17208e-05 0.00598423 -6.38376e-09 0.00598375)
(0.00623067 -0.00243178 -3.17014e-05 0.0062309 9.64783e-10 0.00623067)
(0.00623067 -0.00243178 -3.17014e-05 0.0062309 9.64277e-10 0.00623067)
(0.00647952 -0.00237552 -3.12039e-05 0.00647939 7.48616e-08 0.00647952)
(0.00647952 -0.00237552 -3.12039e-05 0.00647939 7.47777e-08 0.00647952)
(0.0067322 -0.00229215 -3.04277e-05 0.00673172 1.31122e-07 0.0067322)
(0.0067322 -0.00229215 -3.04277e-05 0.00673172 1.30953e-07 0.0067322)
(0.00699063 -0.00220068 -2.96622e-05 0.00699 1.77943e-07 0.00699063)
(0.00699063 -0.00220068 -2.96622e-05 0.00699 1.77583e-07 0.00699063)
(0.00725473 -0.00212371 -2.92365e-05 0.00725965 1.82598e-07 0.00725473)
(0.00725472 -0.00212371 -2.92365e-05 0.00725967 1.8181e-07 0.00725472)
(0.00753122 -0.00208327 -2.94596e-05 0.00753122 -6.46704e-08 0.00753122)
(0.0075311 -0.00208327 -2.94596e-05 0.00753146 -6.20517e-08 0.0075311)
(0.00781832 -0.00209698 -3.05704e-05 0.00781076 -2.62256e-07 0.00781832)
(0.0078183 -0.00209698 -3.05704e-05 0.00781082 -2.61165e-07 0.0078183)
(0.00811201 -0.00217543 -3.27052e-05 0.00810733 -3.17568e-09 0.00811201)
(0.00811198 -0.00217543 -3.27052e-05 0.00810739 -5.06175e-09 0.00811197)
(0.00841554 -0.00232139 -3.58935e-05 0.00841387 -2.16212e-08 0.00841554)
(0.00841554 -0.00232139 -3.58935e-05 0.00841387 -2.22639e-08 0.00841554)
(0.00872874 -0.00253088 -4.00779e-05 0.00872898 -2.98271e-09 0.00872874)
(0.00872874 -0.00253088 -4.00779e-05 0.00872898 -3.35744e-09 0.00872874)
(0.00905085 -0.0027953 -4.51452e-05 0.0090512 -2.80436e-09 0.00905085)
(0.00905085 -0.0027953 -4.51452e-05 0.0090512 -2.58622e-09 0.00905085)
(0.00938002 -0.0031039 -5.09588e-05 0.00938032 3.0485e-08 0.00938002)
(0.00938002 -0.0031039 -5.09588e-05 0.00938032 3.04106e-08 0.00938002)
(0.00971461 -0.00344576 -5.73836e-05 0.00971482 4.40698e-08 0.00971461)
(0.00971461 -0.00344576 -5.73836e-05 0.00971482 4.40364e-08 0.00971461)
(0.0100528 -0.00381103 -6.42974e-05 0.0100529 4.9992e-08 0.0100528)
(0.0100528 -0.00381103 -6.42974e-05 0.0100529 4.99822e-08 0.0100528)
(0.0103926 -0.00419128 -7.15931e-05 0.0103927 5.0389e-08 0.0103926)
(0.0103926 -0.00419128 -7.15931e-05 0.0103927 5.03933e-08 0.0103926)
(0.010732 -0.00457934 -7.91739e-05 0.010732 4.76751e-08 0.010732)
(0.010732 -0.00457934 -7.91739e-05 0.010732 4.76875e-08 0.010732)
(0.0110688 -0.00496894 -8.69476e-05 0.0110687 4.38258e-08 0.0110688)
(0.0110688 -0.00496894 -8.69476e-05 0.0110687 4.38434e-08 0.0110688)
(0.0114008 -0.00535434 -9.48231e-05 0.0114008 3.99142e-08 0.0114008)
(0.0114008 -0.00535434 -9.48231e-05 0.0114008 3.99358e-08 0.0114008)
(0.011726 -0.00573024 -0.000102711 0.011726 3.63235e-08 0.011726)
(0.011726 -0.00573024 -0.000102711 0.011726 3.63479e-08 0.011726)
(0.0120424 -0.00609195 -0.00011053 0.0120424 3.27974e-08 0.0120424)
(0.0120424 -0.00609195 -0.00011053 0.0120424 3.28248e-08 0.0120424)
(0.0123479 -0.00643552 -0.000118207 0.0123479 -2.30928e-09 0.0123479)
(0.0123479 -0.00643552 -0.000118207 0.0123479 -1.51183e-09 0.0123479)
(0.0126408 -0.00675788 -0.000125682 0.0126408 -4.02854e-08 0.0126408)
(0.0126408 -0.00675788 -0.000125682 0.0126408 -3.94677e-08 0.0126408)
(0.0129195 -0.00705693 -0.000132911 0.0129195 -3.93064e-08 0.0129195)
(0.0129195 -0.00705693 -0.000132911 0.0129195 -3.92708e-08 0.0129195)
(0.0131825 -0.0073315 -0.000139863 0.0131825 -3.11755e-08 0.0131825)
(0.0131825 -0.0073315 -0.000139863 0.0131825 -3.11694e-08 0.0131825)
(0.0134286 -0.00758103 -0.000146512 0.0134283 -2.1575e-08 0.0134286)
(0.0134286 -0.00758103 -0.000146512 0.0134283 -2.13453e-08 0.0134286)
(0.0136564 -0.00780514 -0.000152833 0.0136564 -1.7828e-08 0.0136564)
(0.0136564 -0.00780514 -0.000152833 0.0136565 -1.82484e-08 0.0136564)
(0.0138653 -0.00800338 -0.000158795 0.0138653 2.2364e-10 0.0138653)
(0.0138652 -0.00800338 -0.000158795 0.0138654 3.88868e-09 0.0138652)
(0.0140544 -0.00817491 -0.000164356 0.0140544 3.563e-08 0.0140544)
(0.0140544 -0.00817491 -0.000164356 0.0140543 3.44338e-08 0.0140544)
(0.014223 -0.00831842 -0.000169463 0.0142231 4.69493e-08 0.014223)
(0.014223 -0.00831842 -0.000169463 0.0142231 4.71395e-08 0.014223)
(0.0143709 -0.00843225 -0.000174053 0.0143709 5.56752e-08 0.0143709)
(0.0143709 -0.00843225 -0.000174053 0.0143709 5.56281e-08 0.0143709)
(0.0144977 -0.00851455 -0.000178062 0.0144977 4.29982e-08 0.0144977)
(0.0144977 -0.00851455 -0.000178062 0.0144977 4.31522e-08 0.0144977)
(0.0146035 -0.00856368 -0.00018143 0.0146035 -2.09268e-09 0.0146035)
(0.0146035 -0.00856368 -0.00018143 0.0146035 -1.9985e-09 0.0146035)
(0.0146884 -0.00857862 -0.000184113 0.0146885 -3.09155e-08 0.0146884)
(0.0146884 -0.00857862 -0.000184113 0.0146885 -3.0879e-08 0.0146884)
(0.0147531 -0.00855939 -0.000186093 0.0147531 -3.16372e-08 0.0147531)
(0.0147531 -0.00855939 -0.000186093 0.0147531 -3.16078e-08 0.0147531)
(0.0147981 -0.00850739 -0.000187384 0.0147981 -3.03772e-08 0.0147981)
(0.0147981 -0.00850739 -0.000187384 0.0147981 -3.03518e-08 0.0147981)
(0.0148245 -0.00842555 -0.000188038 0.0148245 -2.70065e-08 0.0148245)
(0.0148245 -0.00842555 -0.000188038 0.0148245 -2.69835e-08 0.0148245)
(0.0148334 -0.00831822 -0.00018814 0.0148335 -2.16494e-08 0.0148334)
(0.0148334 -0.00831822 -0.00018814 0.0148335 -2.16277e-08 0.0148334)
(0.0148262 -0.00819105 -0.000187811 0.0148262 -1.50984e-08 0.0148262)
(0.0148262 -0.00819105 -0.000187811 0.0148262 -1.50786e-08 0.0148262)
(0.0148043 -0.00805049 -0.000187189 0.0148043 -7.9149e-09 0.0148043)
(0.0148043 -0.00805049 -0.000187189 0.0148043 -7.8964e-09 0.0148043)
(0.0147691 -0.00790325 -0.000186422 0.0147691 9.29043e-10 0.0147691)
(0.0147691 -0.00790325 -0.000186422 0.014769 6.45848e-10 0.0147691)
(0.014722 -0.00775579 -0.000185657 0.0147219 3.94841e-09 0.014722)
(0.014722 -0.00775579 -0.000185657 0.0147219 3.96554e-09 0.014722)
(0.0146643 -0.0076138 -0.000185021 0.0146643 1.00769e-08 0.0146643)
(0.0146643 -0.0076138 -0.000185021 0.0146643 1.0094e-08 0.0146643)
(0.0145972 -0.00748188 -0.000184623 0.0145972 1.32813e-08 0.0145972)
(0.0145972 -0.00748188 -0.000184623 0.0145972 1.32978e-08 0.0145972)
(0.0145218 -0.00736333 -0.00018454 0.0145218 1.48334e-08 0.0145218)
(0.0145218 -0.00736333 -0.00018454 0.0145218 1.48493e-08 0.0145218)
(0.0144388 -0.00726007 -0.000184819 0.0144388 1.50728e-08 0.0144388)
(0.0144388 -0.00726007 -0.000184819 0.0144388 1.50881e-08 0.0144388)
(0.0143489 -0.00717277 -0.000185481 0.0143489 1.44028e-08 0.0143489)
(0.0143489 -0.00717277 -0.000185481 0.0143489 1.43968e-08 0.0143489)
(0.0142525 -0.00710101 -0.000186519 0.0142525 1.30772e-08 0.0142525)
(0.0142525 -0.00710101 -0.000186519 0.0142525 1.30531e-08 0.0142525)
(0.0141498 -0.00704347 -0.000187904 0.0141498 1.1268e-08 0.0141498)
(0.0141498 -0.00704347 -0.000187904 0.0141498 1.12656e-08 0.0141498)
(0.0140409 -0.00699815 -0.00018959 0.0140409 9.35879e-09 0.0140409)
(0.0140409 -0.00699815 -0.00018959 0.0140409 9.3566e-09 0.0140409)
(0.0139257 -0.00696254 -0.000191515 0.0139257 7.34615e-09 0.0139257)
(0.0139257 -0.00696254 -0.000191515 0.0139257 7.34357e-09 0.0139257)
(0.0138039 -0.00693368 -0.000193601 0.0138039 5.44597e-09 0.0138039)
(0.0138039 -0.00693368 -0.000193601 0.0138039 5.44356e-09 0.0138039)
(0.0136752 -0.00690822 -0.000195754 0.0136752 3.3193e-09 0.0136752)
(0.0136752 -0.00690822 -0.000195754 0.0136752 3.31723e-09 0.0136752)
(0.0135393 -0.00688247 -0.000197866 0.0135393 8.95476e-10 0.0135393)
(0.0135393 -0.00688247 -0.000197866 0.0135393 8.93032e-10 0.0135393)
(0.0133957 -0.0068524 -0.000199812 0.0133957 -2.01718e-09 0.0133957)
(0.0133957 -0.0068524 -0.000199812 0.0133957 -2.02221e-09 0.0133957)
(0.0132439 -0.00681372 -0.000201453 0.0132439 -5.2889e-09 0.0132439)
(0.0132439 -0.00681372 -0.000201453 0.0132439 -5.30074e-09 0.0132439)
(0.0130835 -0.00676201 -0.000202641 0.0130835 -9.06233e-09 0.0130835)
(0.0130835 -0.00676201 -0.000202641 0.0130835 -9.06449e-09 0.0130835)
(0.0129142 -0.00669297 -0.000203229 0.0129142 -1.2801e-08 0.0129142)
(0.0129142 -0.00669297 -0.000203229 0.0129142 -1.28032e-08 0.0129142)
(0.0127357 -0.00660268 -0.000203075 0.0127357 -1.64033e-08 0.0127357)
(0.0127357 -0.00660268 -0.000203075 0.0127357 -1.64057e-08 0.0127357)
(0.0125481 -0.00648795 -0.000202061 0.0125481 -2.03378e-08 0.0125481)
(0.0125481 -0.00648795 -0.000202061 0.0125481 -2.03393e-08 0.0125481)
(0.0123514 -0.00634663 -0.000200099 0.0123514 -2.40834e-08 0.0123514)
(0.0123514 -0.00634663 -0.000200099 0.0123514 -2.40858e-08 0.0123514)
(0.0121461 -0.00617796 -0.000197148 0.0121461 -2.81206e-08 0.0121461)
(0.0121461 -0.00617796 -0.000197148 0.0121461 -2.8123e-08 0.0121461)
(0.0119328 -0.00598271 -0.000193216 0.0119328 -3.31259e-08 0.0119328)
(0.0119328 -0.00598271 -0.000193216 0.0119328 -3.313e-08 0.0119328)
(0.0117122 -0.00576328 -0.000188371 0.0117122 -3.92132e-08 0.0117122)
(0.0117122 -0.00576328 -0.000188371 0.0117122 -3.92177e-08 0.0117122)
(0.0114855 -0.00552362 -0.000182731 0.0114855 -4.69555e-08 0.0114855)
(0.0114855 -0.00552362 -0.000182731 0.0114855 -4.69596e-08 0.0114855)
(0.0112538 -0.00526896 -0.000176465 0.0112538 -5.67506e-08 0.0112538)
(0.0112538 -0.00526896 -0.000176465 0.0112538 -5.67546e-08 0.0112538)
(0.0110185 -0.00500544 -0.000169775 0.0110184 -6.8293e-08 0.0110185)
(0.0110185 -0.00500544 -0.000169775 0.0110184 -6.82969e-08 0.0110185)
(0.0107807 -0.00473955 -0.000162878 0.0107807 -8.1837e-08 0.0107807)
(0.0107807 -0.00473955 -0.000162878 0.0107807 -8.18409e-08 0.0107807)
(0.0105419 -0.00447763 -0.000155991 0.0105419 -9.6387e-08 0.0105419)
(0.0105419 -0.00447763 -0.000155991 0.0105419 -9.6382e-08 0.0105419)
(0.0103033 -0.00422534 -0.000149308 0.0103033 -1.11172e-07 0.0103033)
(0.0103033 -0.00422534 -0.000149308 0.0103033 -1.11174e-07 0.0103033)
(0.010066 -0.0039872 -0.000142987 0.0100661 -1.24315e-07 0.010066)
(0.010066 -0.0039872 -0.000142987 0.0100661 -1.24316e-07 0.010066)
(0.00983111 -0.00376633 -0.000137138 0.00983118 -1.33177e-07 0.00983111)
(0.00983111 -0.00376633 -0.000137138 0.00983118 -1.33176e-07 0.00983111)
(0.00959944 -0.00356434 -0.000131818 0.00959953 -1.36103e-07 0.00959944)
(0.00959944 -0.00356434 -0.000131818 0.00959953 -1.36101e-07 0.00959944)
(0.0093717 -0.00338131 -0.000127031 0.00937181 -1.31468e-07 0.0093717)
(0.0093717 -0.00338131 -0.000127031 0.00937181 -1.31467e-07 0.0093717)
(0.00914849 -0.00321605 -0.000122736 0.0091486 -1.18593e-07 0.00914849)
(0.00914849 -0.00321605 -0.000122736 0.0091486 -1.18557e-07 0.00914849)
(0.00893027 -0.00306641 -0.000118857 0.00893037 -9.79251e-08 0.00893027)
(0.00893027 -0.00306641 -0.000118857 0.00893037 -9.78901e-08 0.00893027)
(0.00871741 -0.00292966 -0.000115298 0.00871748 -6.92526e-08 0.00871741)
(0.00871741 -0.00292966 -0.000115298 0.00871748 -6.92182e-08 0.00871741)
(0.00851018 -0.00280285 -0.000111954 0.00851021 -3.2478e-08 0.00851018)
(0.00851018 -0.00280285 -0.000111954 0.00851021 -3.24592e-08 0.00851018)
(0.00830882 -0.00268316 -0.000108728 0.00830882 1.62817e-09 0.00830882)
(0.00830882 -0.00268316 -0.000108728 0.00830882 1.68403e-09 0.00830882)
(0.00811354 -0.00256824 -0.000105541 0.0081135 4.35824e-08 0.00811354)
(0.00811354 -0.00256824 -0.000105541 0.0081135 4.36154e-08 0.00811354)
(0.00792453 -0.00245633 -0.000102335 0.00792445 7.97036e-08 0.00792453)
(0.00792453 -0.00245633 -0.000102335 0.00792445 7.9737e-08 0.00792453)
(0.00774195 -0.00234632 -9.90794e-05 0.00774185 1.10562e-07 0.00774195)
(0.00774195 -0.00234632 -9.90794e-05 0.00774185 1.10561e-07 0.00774195)
(0.007566 -0.0022378 -9.57709e-05 0.00756588 1.3245e-07 0.007566)
(0.007566 -0.0022378 -9.57709e-05 0.00756588 1.32447e-07 0.007566)
(0.00739684 -0.00213096 -9.24299e-05 0.00739673 1.44177e-07 0.00739684)
(0.00739684 -0.00213096 -9.24299e-05 0.00739673 1.44173e-07 0.00739684)
(0.00723467 -0.00202644 -8.9096e-05 0.00723457 1.46833e-07 0.00723467)
(0.00723467 -0.00202644 -8.9096e-05 0.00723457 1.46829e-07 0.00723467)
(0.00707966 -0.00192522 -8.58224e-05 0.00707958 1.41766e-07 0.00707966)
(0.00707966 -0.00192522 -8.58224e-05 0.00707958 1.41764e-07 0.00707966)
(0.00693196 -0.00182844 -8.26688e-05 0.00693192 1.31571e-07 0.00693196)
(0.00693196 -0.00182844 -8.26688e-05 0.00693192 1.31569e-07 0.00693196)
(0.00679174 -0.00173721 -7.96932e-05 0.00679172 1.16627e-07 0.00679174)
(0.00679174 -0.00173721 -7.96932e-05 0.00679172 1.16625e-07 0.00679174)
(0.00665911 -0.00165252 -7.69485e-05 0.00665912 9.90808e-08 0.00665911)
(0.00665912 -0.00165252 -7.69485e-05 0.00665912 9.91025e-08 0.00665912)
(0.00653418 -0.00157514 -7.44774e-05 0.0065342 8.05498e-08 0.00653418)
(0.00653418 -0.00157514 -7.44774e-05 0.0065342 8.05487e-08 0.00653418)
(0.006417 -0.00150551 -7.2308e-05 0.00641704 6.30298e-08 0.006417)
(0.006417 -0.00150551 -7.2308e-05 0.00641703 6.30294e-08 0.006417)
(0.00630762 -0.00144378 -7.04535e-05 0.00630766 4.76154e-08 0.00630762)
(0.00630762 -0.00144378 -7.04535e-05 0.00630766 4.76141e-08 0.00630762)
(0.00620605 -0.00138976 -6.89128e-05 0.00620609 3.48715e-08 0.00620605)
(0.00620605 -0.00138976 -6.89128e-05 0.00620609 3.48711e-08 0.00620605)
(0.00611227 -0.00134299 -6.76702e-05 0.00611231 2.47862e-08 0.00611227)
(0.00611227 -0.00134299 -6.76702e-05 0.00611231 2.47855e-08 0.00611227)
(0.00602623 -0.00130278 -6.66974e-05 0.00602626 1.71576e-08 0.00602623)
(0.00602623 -0.00130278 -6.66974e-05 0.00602626 1.71576e-08 0.00602623)
(0.00594788 -0.00126824 -6.59574e-05 0.0059479 1.16856e-08 0.00594788)
(0.00594788 -0.00126824 -6.59574e-05 0.0059479 1.16852e-08 0.00594788)
(0.00587713 -0.00123839 -6.54061e-05 0.00587715 7.80056e-09 0.00587713)
(0.00587713 -0.00123839 -6.54061e-05 0.00587715 7.68358e-09 0.00587713)
(0.00581389 -0.00121219 -6.4995e-05 0.0058139 -1.25089e-09 0.00581389)
(0.00581389 -0.00121219 -6.4995e-05 0.0058139 -1.85352e-09 0.00581389)
(0.00575806 -0.00118858 -6.46729e-05 0.00575806 -8.00456e-09 0.00575805)
(0.00575806 -0.00118858 -6.46729e-05 0.00575806 -8.42398e-09 0.00575805)
(0.00570952 -0.00116655 -6.43891e-05 0.00570952 -2.21024e-09 0.00570952)
(0.00570952 -0.00116655 -6.43891e-05 0.00570952 -1.83679e-09 0.00570952)
(0.00566817 -0.00114513 -6.40939e-05 0.00566818 -5.54501e-11 0.00566817)
(0.00566817 -0.00114513 -6.40939e-05 0.00566818 -2.11672e-10 0.00566817)
(0.0056339 -0.00112349 -6.3743e-05 0.0056339 1.31308e-09 0.0056339)
(0.0056339 -0.00112349 -6.3743e-05 0.0056339 2.04554e-09 0.0056339)
(0.0056066 -0.00110092 -6.32971e-05 0.00560659 2.75202e-10 0.0056066)
(0.0056066 -0.00110092 -6.32971e-05 0.00560659 1.60824e-09 0.0056066)
(0.00558616 -0.00107685 -6.27237e-05 0.00558616 1.13339e-09 0.00558616)
(0.00558616 -0.00107685 -6.27237e-05 0.00558616 1.56489e-09 0.00558616)
(0.00557249 -0.00105093 -6.20053e-05 0.00557249 1.1114e-09 0.00557249)
(0.00557249 -0.00105093 -6.20053e-05 0.00557249 1.31315e-09 0.00557249)
(0.0055655 -0.00102308 -6.11407e-05 0.00556549 1.28585e-09 0.0055655)
(0.0055655 -0.00102308 -6.11407e-05 0.0055655 1.2485e-09 0.00556549)
(0.0055651 -0.000993556 -6.01503e-05 0.0055651 1.19789e-09 0.0055651)
(0.0055651 -0.000993556 -6.01503e-05 0.0055651 1.11941e-09 0.0055651)
(0.00557121 -0.00096299 -5.90822e-05 0.00557121 1.19058e-09 0.00557121)
(0.00557121 -0.00096299 -5.90822e-05 0.00557121 1.05382e-09 0.00557121)
(0.00558377 -0.00093246 -5.80174e-05 0.00558377 1.11655e-09 0.00558377)
(0.00558377 -0.00093246 -5.80174e-05 0.00558377 9.86767e-10 0.00558377)
(0.00560269 -0.000903535 -5.70738e-05 0.00560269 1.06662e-09 0.00560269)
(0.00560269 -0.000903535 -5.70738e-05 0.00560269 9.30575e-10 0.00560269)
(0.00562791 -0.000878278 -5.64077e-05 0.00562791 9.99997e-10 0.00562791)
(0.00562791 -0.000878278 -5.64077e-05 0.00562791 8.75127e-10 0.00562791)
(0.00565934 -0.000859251 -5.62178e-05 0.00565934 9.42507e-10 0.00565934)
(0.00565934 -0.000859251 -5.62178e-05 0.00565934 8.24436e-10 0.00565934)
(0.0056969 -0.000849452 -5.67386e-05 0.0056969 8.82367e-10 0.0056969)
(0.0056969 -0.000849452 -5.67386e-05 0.0056969 7.75428e-10 0.0056969)
(0.0057405 -0.000852218 -5.8238e-05 0.0057405 8.28101e-10 0.0057405)
(0.0057405 -0.000852218 -5.82381e-05 0.0057405 7.30305e-10 0.0057405)
(0.00579002 -0.000871085 -6.10055e-05 0.00579002 7.71994e-10 0.00579002)
(0.00579002 -0.000871085 -6.10055e-05 0.00579002 6.83988e-10 0.00579002)
(0.00584535 -0.000909589 -6.5339e-05 0.00584535 7.23271e-10 0.00584535)
(0.00584535 -0.000909589 -6.5339e-05 0.00584535 6.43815e-10 0.00584535)
(0.00590633 -0.000971056 -7.15295e-05 0.00590633 6.71296e-10 0.00590633)
(0.00590633 -0.000971056 -7.15294e-05 0.00590633 6.00011e-10 0.00590633)
(0.00597279 -0.00105838 -7.98445e-05 0.00597279 6.24866e-10 0.00597279)
(0.00597279 -0.00105838 -7.98445e-05 0.00597279 5.60817e-10 0.00597279)
(0.0060445 -0.0011738 -9.05067e-05 0.00604451 5.77846e-10 0.0060445)
(0.0060445 -0.0011738 -9.05067e-05 0.00604451 5.20473e-10 0.0060445)
(0.00612121 -0.00131861 -0.000103673 0.00612121 5.34267e-10 0.00612121)
(0.00612121 -0.00131861 -0.000103673 0.00612121 4.82804e-10 0.00612121)
(0.00620255 -0.00149311 -0.000119428 0.00620255 4.87428e-10 0.00620255)
(0.00620255 -0.00149311 -0.000119428 0.00620255 4.41319e-10 0.00620255)
(0.00628812 -0.00169636 -0.000137756 0.00628812 4.46608e-10 0.00628812)
(0.00628812 -0.00169636 -0.000137756 0.00628812 4.06405e-10 0.00628812)
(0.00637738 -0.00192611 -0.000158538 0.00637738 4.03432e-10 0.00637738)
(0.00637738 -0.00192611 -0.000158538 0.00637738 3.66287e-10 0.00637738)
(0.00646968 -0.00217894 -0.00018156 0.00646968 3.67076e-10 0.00646968)
(0.00646968 -0.00217894 -0.00018156 0.00646968 3.33672e-10 0.00646968)
(0.00656427 -0.00245029 -0.000206498 0.00656427 3.25512e-10 0.00656427)
(0.00656427 -0.00245029 -0.000206498 0.00656427 2.97823e-10 0.00656427)
(0.00666024 -0.00273456 -0.000232942 0.00666025 2.87677e-10 0.00666024)
(0.00666024 -0.00273456 -0.000232942 0.00666025 2.60441e-10 0.00666024)
(0.00675659 -0.00302556 -0.000260414 0.00675659 2.59165e-10 0.00675659)
(0.00675659 -0.00302556 -0.000260414 0.00675659 2.34492e-10 0.00675659)
(0.00685218 -0.00331657 -0.000288369 0.00685218 2.25932e-10 0.00685217)
(0.00685218 -0.00331657 -0.000288369 0.00685218 2.03443e-10 0.00685217)
(0.00694581 -0.00360077 -0.000316241 0.00694582 1.95885e-10 0.00694581)
(0.00694581 -0.00360077 -0.000316241 0.00694582 1.75354e-10 0.00694581)
(0.00703627 -0.00387153 -0.000343458 0.00703627 1.71976e-10 0.00703627)
(0.00703627 -0.00387153 -0.000343458 0.00703627 1.53081e-10 0.00703627)
(0.00712229 -0.00412282 -0.000369482 0.00712229 1.48882e-10 0.00712229)
(0.00712229 -0.00412282 -0.000369482 0.00712229 1.31527e-10 0.00712229)
(0.00720268 -0.00434951 -0.000393838 0.00720269 1.30254e-10 0.00720268)
(0.00720268 -0.00434951 -0.000393838 0.00720269 1.14177e-10 0.00720268)
(0.00727634 -0.00454744 -0.000416096 0.00727634 1.05848e-10 0.00727634)
(0.00727634 -0.00454744 -0.000416096 0.00727634 1.0359e-10 0.00727634)
(0.00734226 -0.00471347 -0.00043592 0.00734226 7.06303e-11 0.00734226)
(0.00734226 -0.00471347 -0.00043592 0.00734226 8.65574e-11 0.00734226)
(0.00739959 -0.00484576 -0.000453071 0.0073996 9.30528e-11 0.00739959)
(0.00739959 -0.00484576 -0.000453071 0.0073996 1.62146e-10 0.00739959)
(0.00744768 -0.00494352 -0.000467386 0.00744768 -2.08875e-09 0.00744768)
(0.00744768 -0.00494352 -0.000467386 0.00744768 -2.0643e-09 0.00744768)
(0.00748603 -0.00500701 -0.000478804 0.00748604 -5.82538e-09 0.00748603)
(0.00748603 -0.00500701 -0.000478804 0.00748604 -5.8249e-09 0.00748603)
(0.00751436 -0.00503742 -0.000487332 0.00751436 -7.53372e-09 0.00751436)
(0.00751436 -0.00503742 -0.000487332 0.00751436 -7.53208e-09 0.00751436)
(0.00753254 -0.00503651 -0.000493029 0.00753254 -9.57075e-09 0.00753254)
(0.00753254 -0.00503651 -0.000493029 0.00753254 -9.57015e-09 0.00753254)
(0.00754065 -0.00500659 -0.000496025 0.00754065 -1.20823e-08 0.00754065)
(0.00754065 -0.00500659 -0.000496025 0.00754065 -1.20213e-08 0.00754065)
(0.0075389 -0.00495038 -0.000496475 0.0075389 -1.47096e-08 0.0075389)
(0.0075389 -0.00495038 -0.000496475 0.0075389 -1.47087e-08 0.0075389)
(0.00752767 -0.00487068 -0.000494556 0.00752767 -1.79161e-08 0.00752767)
(0.00752766 -0.00487068 -0.000494556 0.00752767 -1.78432e-08 0.00752766)
(0.00750743 -0.00477038 -0.000490466 0.00750743 -2.12957e-08 0.00750743)
(0.00750743 -0.00477038 -0.000490466 0.00750743 -2.12415e-08 0.00750743)
(0.00747877 -0.0046523 -0.000484401 0.00747877 -2.48134e-08 0.00747877)
(0.00747877 -0.0046523 -0.000484401 0.00747877 -2.47773e-08 0.00747877)
(0.00744236 -0.00451902 -0.000476539 0.00744236 -2.83989e-08 0.00744236)
(0.00744236 -0.00451902 -0.000476539 0.00744236 -2.83263e-08 0.00744236)