/*--------------------------------*- C++ -*----------------------------------*\
| =========                 |                                                 |
| \\      /  F ield         | OpenFOAM: The Open Source CFD Toolbox           |
|  \\    /   O peration     | Version:  2012                                  |
|   \\  /    A nd           | Website:  www.openfoam.com                      |
|    \\/     M anipulation  |                                                 |
\*---------------------------------------------------------------------------*/
FoamFile
{
    version     2.0;
    format      ascii;
    class       volScalarField;
    location    "19000";
    object      p;
}
// * * * * * * * * * * * * * * * * * * * * * * * * * * * * * * * * * * * * * //

dimensions      [0 2 -2 0 0 0 0];


internalField   nonuniform List<scalar> 
2560
(
3.10489e-09
-1.28667
-4.37415e-05
-1.28671
-4.49207e-05
-1.28671
-3.88871e-05
-1.28671
-3.67092e-05
-1.28672
-3.58341e-05
-1.28672
-3.49892e-05
-1.28672
-3.41287e-05
-1.28672
-3.32382e-05
-1.28672
-3.20781e-05
-1.28672
-3.07597e-05
-1.28672
-2.90638e-05
-1.28672
-3.01721e-05
-1.28671
-4.12283e-05
-1.28601
-8.6528e-05
-1.28683
-0.000174222
-1.28484
-0.000353809
-1.28739
-0.000564204
-1.2874
-0.000817381
-1.28827
-0.0010511
-1.28829
-0.00132562
-1.28924
-0.00156203
-1.28925
-0.00184039
-1.29024
-0.00207411
-1.28695
-0.00242972
-1.2915
-0.00280766
-1.28666
-0.0034074
-1.29346
-0.00402003
-1.29351
-0.00484949
-1.296
-0.00558215
-1.29612
-0.00649367
-1.29879
-0.00718312
-1.29891
-0.00804403
-1.30154
-0.00858128
-1.3016
-0.00937126
-1.30411
-0.00982517
-1.2976
-0.010746
-1.30696
-0.0113774
-1.27942
-0.0127237
-1.31131
-0.0137705
-1.2753
-0.0156966
-1.31778
-0.017202
-1.29009
-0.0196345
-1.32608
-0.0214365
-1.3161
-0.0241634
-1.33531
-0.0260591
-1.33329
-0.0289468
-1.34494
-0.0308745
-1.33875
-0.0339926
-1.35511
-0.0361366
-1.26865
-0.0398335
-1.36834
-0.0431062
-1.29412
-0.0492308
-1.38682
-0.0571918
-1.3882
-0.0711441
-1.41777
-0.0911998
-1.42402
-0.121161
-1.47728
-0.160473
-1.49223
-0.209635
-1.57588
-0.265079
-1.59953
-0.322358
-1.69945
-0.375936
-1.72453
-0.41916
-1.80762
-0.449238
-1.82321
-0.461915
-1.86189
-0.46037
-1.86019
-0.443835
-1.82001
-0.419647
-1.80875
-0.387973
-1.74936
-0.356289
-1.73519
-0.323371
-0.319269
-0.294621
-0.303117
-0.267373
-0.263539
-0.245096
-0.251062
-0.224673
-0.220996
-0.208631
-0.211819
-0.194094
-0.190504
-0.18319
-0.184109
-0.17344
-0.169888
-0.166647
-0.165734
-0.160671
-0.157134
-0.157025
-0.154721
-0.153813
-0.150282
-0.152319
-0.149103
-0.150956
-0.147437
-0.150908
-0.147083
-0.150937
-0.147405
-0.152203
-0.148743
-0.153794
-0.150285
-0.156837
-0.153388
-0.160643
-0.157154
-0.166211
-0.162777
-0.172917
-0.169452
-0.181513
-0.178098
-0.191299
-0.187859
-0.202723
-0.199329
-0.214977
-0.211563
-0.228243
-0.22487
-0.24169
-0.238305
-0.255394
-0.252046
-0.26863
-0.265272
-0.281515
-0.278192
-0.29352
-0.29019
-0.304869
-0.301571
-0.315243
-0.311942
-0.324945
-0.321672
-0.333792
-0.330518
-0.342102
-0.338853
-0.349752
-0.346505
-0.357032
-0.353809
-0.363841
-0.360621
-0.370436
-0.367239
-0.376753
-0.373561
-0.383033
-0.379863
-0.389253
-0.38609
-0.395669
-0.392528
-0.402283
-0.399151
-0.409315
-0.406205
-0.416782
-0.413683
-0.424875
-0.421799
-0.433614
-0.430551
-0.443187
-0.440147
-0.453656
-0.450632
-0.465261
-0.46226
-0.47816
-0.475175
-0.492683
-0.489723
-0.5091
-0.506158
-0.527803
-0.524884
-0.549096
-0.546196
-0.573315
-0.570438
-0.600628
-0.597771
-0.631138
-0.628303
-0.664691
-0.661875
-0.700977
-0.698183
-0.739413
-0.736638
-0.779269
-0.776515
-0.819609
-0.816874
-0.859459
-0.856744
-0.897798
-0.895101
-0.933734
-0.931057
-0.966501
-0.963842
-0.995582
-0.992942
-1.02067
-1.01805
-1.04174
-1.03913
-1.05892
-1.05634
-1.07257
-1.07
-1.08311
-1.08056
-1.09103
-1.0885
-1.09684
-1.09432
-1.10099
-1.09849
-1.10388
-1.10139
-1.10585
-1.10338
-1.10717
-1.10472
-1.10804
-1.1056
-1.1086
-1.10618
-1.10896
-1.10655
-1.10919
-1.10679
-1.10932
-1.10694
-1.10939
-1.10702
-1.10943
-1.10707
-1.10943
-1.10708
-1.1094
-1.10706
-1.10935
-1.10703
-1.10929
-1.10698
-1.10922
-1.10692
-1.10914
-1.10685
-1.10906
-1.10677
-1.10896
-1.10669
-1.10887
-1.10661
-1.10877
-1.10652
-1.10868
-1.10644
-1.10859
-1.10636
-1.10851
-1.10628
-1.10844
-1.10621
-1.10837
-1.10615
-1.10832
-1.10609
-1.10827
-1.10605
-1.10823
-1.10601
-1.1082
-1.10598
-1.10817
-1.10595
-1.10815
-1.10593
-1.10813
-1.10591
-1.10812
-1.1059
-1.10811
-1.10589
-1.1081
-1.10588
-1.10808
-1.10587
-1.10807
-1.10586
-1.10805
-1.10584
-1.10802
-1.10582
-1.10799
-1.10578
-1.10793
-1.10573
-1.10786
-1.10565
-1.10775
-1.10554
-1.1076
-1.1054
-1.1074
-1.1052
-1.10712
-1.10494
-1.10677
-1.10459
-1.1063
-1.10413
-1.10571
-1.10355
-1.10497
-1.10282
-1.10404
-1.10191
-1.10291
-1.10079
-1.10155
-1.09944
-1.09992
-1.09783
-1.09802
-1.09595
-1.09582
-1.09376
-1.09331
-1.09127
-1.09049
-1.08848
-1.08737
-1.08538
-1.08396
-1.08199
-1.08028
-1.07833
-1.07636
-1.07443
-1.07222
-1.07031
-1.0679
-1.06601
-1.06342
-1.06156
-1.05881
-1.05696
-1.05407
-1.05224
-1.04922
-1.04741
-1.04425
-1.04245
-1.03915
-1.03738
-1.03392
-1.03216
-1.02854
-1.0268
-1.023
-1.02127
-1.01729
-1.01557
-1.01141
-1.00969
-1.00536
-1.00365
-0.999169
-0.997463
-0.992843
-0.99114
-0.98642
-0.984719
-0.979925
-0.978225
-0.973398
-0.971698
-0.966861
-0.965161
-0.960349
-0.95865
-0.953877
-0.952177
-0.947462
-0.945764
-0.941106
-0.93941
-0.934814
-0.933122
-0.928578
-0.926891
-0.922394
-0.920714
-0.916248
-0.914575
-0.910136
-0.908473
-0.90404
-0.902387
-0.897963
-0.896322
-0.891889
-0.89026
-0.885825
-0.884208
-0.879754
-0.878149
-0.873686
-0.872094
-0.867604
-0.866024
-0.861516
-0.859949
-0.855404
-0.853848
-0.849271
-0.847727
-0.843095
-0.841562
-0.836882
-0.835361
-0.830605
-0.829096
-0.824273
-0.822776
-0.817858
-0.816373
-0.811374
-0.809903
-0.804796
-0.803338
-0.798142
-0.796698
-0.791384
-0.789956
-0.784549
-0.783138
-0.777608
-0.776213
-0.77059
-0.769214
-0.763467
-0.76211
-0.756269
-0.754933
-0.74897
-0.747654
-0.741605
-0.740311
-0.734145
-0.732874
-0.726634
-0.725385
-0.719042
-0.717817
-0.711419
-0.710217
-0.703735
-0.702558
-0.696043
-0.694891
-0.688311
-0.687184
-0.680594
-0.67949
-0.67285
-0.671771
-0.665133
-0.664079
-0.657395
-0.656366
-0.649684
-0.648679
-0.641944
-0.640966
-0.634223
-0.63327
-0.62646
-0.625533
-0.618708
-0.617806
-0.610906
-0.610031
-0.603117
-0.602266
-0.595287
-0.594464
-0.587493
-0.586694
-0.579688
-0.578916
-0.571959
-0.571211
-0.564266
-0.563546
-0.556706
-0.556008
-0.549231
-0.548563
-0.541941
-0.541295
-0.534779
-0.534164
-0.527842
-0.52725
-0.521062
-0.520503
-0.514527
-0.513991
-0.508156
-0.507658
-0.502032
-0.501558
-0.496065
-0.495632
-0.49033
-0.489924
-0.484732
-0.484373
-0.479343
-0.479012
-0.474063
-0.473784
-0.468965
-0.468716
-0.463943
-0.463754
-0.459081
-0.458922
-0.454275
-0.454184
-0.449625
-0.449565
-0.44504
-0.445056
-0.440643
-0.44069
-0.436373
-0.43649
-0.432364
-0.432512
-0.428599
-0.42881
-0.425216
-0.425459
-0.422229
-0.422529
-0.419769
-0.420101
-0.417858
-0.418241
-0.416591
-0.41701
-0.415982
-0.416451
-0.404419
-0.000549382
-0.404457
-0.0005917
-0.404462
-0.000593177
-0.404463
-0.000588259
-0.404464
-0.000586655
-0.404464
-0.000585913
-0.404466
-0.000585065
-0.404466
-0.000583949
-0.404469
-0.000582773
-0.40447
-0.000580991
-0.404475
-0.000579221
-0.404475
-0.000575773
-0.404483
-0.000575884
-0.403804
-0.00058715
-0.404614
-0.000631381
-0.402641
-0.000717643
-0.405192
-0.000895263
-0.405203
-0.00110392
-0.406081
-0.00135502
-0.4061
-0.00158639
-0.407057
-0.00185861
-0.407071
-0.00209211
-0.408094
-0.00236793
-0.404827
-0.00259821
-0.40941
-0.00295108
-0.404599
-0.00332499
-0.411397
-0.00392186
-0.411451
-0.00452983
-0.413943
-0.0053564
-0.414063
-0.00608369
-0.416742
-0.00699241
-0.41686
-0.0076757
-0.419497
-0.00853406
-0.419544
-0.00906424
-0.422104
-0.0098521
-0.415627
-0.0102979
-0.425029
-0.0112172
-0.397521
-0.0118393
-0.429443
-0.0131852
-0.393471
-0.014221
-0.435981
-0.016148
-0.408316
-0.0176406
-0.444335
-0.0200759
-0.434387
-0.0218628
-0.453615
-0.0245947
-0.451618
-0.0264727
-0.463286
-0.0293684
-0.457112
-0.0312749
-0.473475
-0.0344048
-0.387034
-0.0365236
-0.486726
-0.040237
-0.412477
-0.0434794
-0.505157
-0.0496263
-0.506484
-0.0575509
-0.536004
-0.0715327
-0.542179
-0.0915446
-0.59537
-0.121544
-0.61024
-0.160803
-0.693806
-0.210014
-0.717364
-0.265394
-0.817181
-0.322735
-0.842153
-0.376235
-0.92515
-0.419536
-0.940608
-0.449519
-0.979192
-0.462291
-0.977362
-0.460631
-0.937027
-0.444212
-0.925654
-0.419886
-0.865555
-0.388354
-0.851871
-0.356504
-0.791841
-0.323758
-0.780227
-0.29481
-0.729263
-0.267745
-0.720919
-0.245302
-0.680198
-0.224997
-0.674833
-0.208878
-0.64285
-0.194359
-0.639919
-0.183483
-0.615105
-0.173649
-0.614055
-0.166973
-0.457983
-0.160846
-0.598105
-0.157356
-0.305025
-0.153992
-0.592367
-0.152641
-0.152017
-0.151128
-0.15669
-0.151217
-0.156361
-0.151117
-0.158018
-0.152499
-0.159187
-0.15398
-0.162377
-0.157123
-0.165784
-0.160834
-0.171448
-0.166487
-0.177796
-0.173112
-0.186456
-0.181782
-0.195931
-0.191498
-0.207404
-0.202986
-0.219391
-0.21518
-0.232696
-0.2285
-0.245918
-0.241896
-0.259656
-0.255647
-0.2727
-0.268839
-0.285616
-0.281764
-0.297458
-0.293731
-0.308834
-0.305115
-0.319072
-0.315458
-0.328797
-0.325189
-0.337529
-0.334009
-0.345861
-0.342344
-0.353415
-0.349971
-0.360714
-0.357273
-0.367443
-0.364063
-0.374057
-0.370677
-0.380308
-0.376978
-0.386605
-0.383275
-0.392773
-0.389482
-0.399207
-0.395914
-0.405777
-0.402516
-0.412828
-0.409562
-0.420262
-0.417021
-0.428374
-0.425127
-0.437088
-0.433859
-0.446681
-0.443444
-0.457133
-0.453908
-0.468759
-0.465524
-0.481646
-0.478419
-0.496193
-0.492954
-0.512603
-0.509369
-0.531329
-0.528081
-0.55262
-0.549373
-0.576863
-0.573602
-0.604177
-0.600915
-0.634712
-0.631434
-0.668267
-0.664988
-0.70458
-0.701283
-0.74302
-0.73972
-0.782903
-0.779584
-0.823248
-0.819926
-0.863126
-0.859784
-0.90147
-0.898125
-0.937437
-0.934069
-0.970207
-0.966837
-0.999321
-0.995927
-1.02441
-1.02102
-1.04551
-1.04209
-1.0627
-1.05928
-1.07639
-1.07294
-1.08692
-1.08348
-1.09489
-1.09141
-1.10069
-1.09721
-1.10488
-1.10137
-1.10776
-1.10426
-1.10979
-1.10625
-1.11109
-1.10757
-1.11202
-1.10844
-1.11255
-1.10901
-1.11298
-1.10937
-1.11316
-1.1096
-1.11337
-1.10974
-1.11343
-1.10982
-1.11351
-1.10986
-1.11353
-1.10986
-1.1135
-1.10983
-1.11348
-1.10979
-1.1134
-1.10974
-1.11337
-1.10967
-1.11326
-1.10959
-1.11323
-1.10951
-1.11311
-1.10942
-1.11306
-1.10933
-1.11295
-1.10923
-1.1129
-1.10915
-1.1128
-1.10906
-1.11275
-1.10898
-1.11266
-1.10891
-1.11263
-1.10884
-1.11256
-1.10879
-1.11253
-1.10874
-1.11249
-1.1087
-1.11247
-1.10867
-1.11244
-1.10864
-1.11243
-1.10862
-1.11241
-1.10861
-1.11241
-1.1086
-1.1124
-1.10858
-1.1124
-1.10857
-1.11238
-1.10856
-1.11238
-1.10855
-1.11235
-1.10853
-1.11234
-1.1085
-1.11228
-1.10846
-1.11225
-1.10841
-1.11216
-1.10833
-1.11207
-1.10823
-1.11191
-1.10808
-1.11173
-1.10788
-1.11145
-1.1076
-1.11112
-1.10725
-1.11065
-1.10679
-1.11008
-1.1062
-1.10933
-1.10545
-1.10844
-1.10454
-1.1073
-1.1034
-1.10597
-1.10204
-1.10434
-1.10042
-1.10247
-1.09852
-1.10027
-1.09632
-1.09779
-1.09382
-1.09497
-1.09099
-1.09188
-1.08788
-1.08848
-1.08447
-1.08483
-1.0808
-1.08091
-1.07687
-1.07681
-1.07275
-1.07249
-1.06842
-1.06805
-1.06396
-1.06343
-1.05933
-1.05873
-1.05461
-1.05387
-1.04974
-1.04893
-1.04479
-1.04383
-1.03968
-1.03864
-1.03447
-1.03325
-1.02907
-1.02774
-1.02356
-1.02202
-1.01782
-1.01617
-1.01197
-1.0101
-1.0059
-1.00393
-0.999727
-0.99758
-0.993371
-0.991191
-0.98698
-0.984662
-0.980451
-0.978171
-0.97396
-0.971595
-0.967383
-0.965125
-0.960913
-0.958607
-0.954396
-0.952241
-0.948028
-0.945835
-0.941621
-0.939602
-0.935384
-0.933311
-0.929089
-0.927197
-0.922968
-0.920991
-0.916755
-0.914959
-0.910714
-0.908797
-0.904542
-0.902813
-0.898546
-0.896664
-0.892385
-0.890705
-0.886413
-0.884548
-0.880243
-0.878599
-0.874279
-0.872417
-0.868084
-0.866462
-0.862115
-0.860235
-0.855874
-0.854251
-0.849876
-0.847943
-0.843554
-0.841897
-0.837493
-0.83547
-0.831051
-0.829326
-0.824891
-0.82274
-0.818289
-0.816468
-0.811999
-0.809698
-0.80521
-0.803282
-0.798773
-0.796309
-0.791778
-0.789743
-0.785187
-0.78256
-0.777979
-0.775844
-0.771233
-0.768451
-0.763811
-0.761592
-0.756917
-0.753991
-0.749283
-0.747004
-0.742256
-0.739207
-0.734423
-0.732115
-0.727287
-0.724148
-0.719279
-0.71699
-0.712073
-0.708887
-0.703928
-0.701709
-0.696698
-0.693511
-0.688455
-0.68636
-0.681248
-0.678098
-0.672941
-0.671004
-0.665787
-0.662692
-0.657428
-0.655664
-0.650336
-0.647291
-0.641915
-0.64032
-0.634874
-0.631859
-0.626364
-0.624926
-0.619356
-0.616356
-0.610738
-0.609462
-0.603762
-0.600789
-0.595043
-0.59397
-0.588135
-0.585241
-0.579363
-0.578572
-0.572597
-0.56987
-0.563856
-0.56346
-0.557339
-0.554885
-0.54873
-0.548844
-0.54257
-0.540485
-0.534182
-0.534904
-0.528464
-0.526825
-0.520361
-0.52176
-0.515137
-0.513983
-0.507342
-0.509454
-0.502624
-0.501966
-0.495127
-0.497961
-0.490896
-0.490721
-0.483659
-0.487207
-0.479873
-0.480154
-0.472841
-0.477087
-0.469445
-0.470152
-0.462559
-0.46749
-0.459499
-0.460616
-0.452716
-0.458352
-0.449965
-0.423118
-0.443291
-0.420986
-0.440755
-0.414424
-0.434593
-0.412467
-0.432245
-0.40658
-0.426828
-0.404906
-0.42486
-0.400093
-0.420518
-0.398844
-0.419164
-0.395543
-0.416275
-0.394869
-0.4157
-0.393379
-0.414651
-0.415955
-0.416478
-0.416524
-0.417075
-0.417761
-0.418339
-0.419643
-0.420227
-0.422078
-0.422682
-0.425037
-0.425635
-0.428399
-0.429013
-0.432138
-0.432736
-0.436125
-0.436736
-0.440373
-0.44096
-0.44475
-0.445349
-0.449312
-0.449879
-0.453941
-0.45452
-0.458726
-0.45928
-0.463568
-0.464132
-0.468567
-0.469113
-0.473644
-0.474201
-0.478906
-0.47945
-0.484274
-0.484828
-0.489856
-0.490401
-0.495571
-0.496126
-0.501521
-0.50207
-0.507627
-0.508186
-0.513979
-0.514536
-0.520498
-0.521064
-0.527265
-0.527831
-0.534182
-0.534758
-0.541331
-0.541909
-0.548603
-0.549191
-0.556058
-0.55665
-0.563607
-0.564209
-0.571283
-0.57189
-0.578997
-0.579615
-0.586782
-0.587406
-0.594563
-0.595199
-0.602368
-0.603013
-0.610138
-0.610795
-0.617924
-0.618591
-0.625654
-0.626333
-0.633404
-0.634095
-0.641101
-0.641806
-0.648825
-0.649542
-0.656515
-0.657246
-0.664237
-0.664981
-0.671928
-0.672687
-0.679658
-0.680432
-0.687351
-0.688139
-0.695065
-0.695869
-0.702734
-0.703554
-0.710402
-0.711237
-0.718
-0.718851
-0.72558
-0.726448
-0.733068
-0.733952
-0.740505
-0.741406
-0.747854
-0.74877
-0.755136
-0.756068
-0.762318
-0.763264
-0.769422
-0.770384
-0.77642
-0.777396
-0.783345
-0.784336
-0.790173
-0.791176
-0.796914
-0.79793
-0.803556
-0.804583
-0.810121
-0.811162
-0.816593
-0.817643
-0.822993
-0.824056
-0.829308
-0.83038
-0.835585
-0.836669
-0.841781
-0.842874
-0.847954
-0.849061
-0.854064
-0.855178
-0.860166
-0.861295
-0.866243
-0.86738
-0.872312
-0.873464
-0.878365
-0.879525
-0.884429
-0.885605
-0.890482
-0.891666
-0.896551
-0.897751
-0.902615
-0.903821
-0.908702
-0.909925
-0.914796
-0.916022
-0.920941
-0.922182
-0.927109
-0.928349
-0.933345
-0.934598
-0.939633
-0.940883
-0.945986
-0.947246
-0.95239
-0.953643
-0.95888
-0.960142
-0.965381
-0.966635
-0.971916
-0.97318
-0.978442
-0.979697
-0.984944
-0.98621
-0.991352
-0.992609
-0.997686
-0.998959
-1.00388
-1.00514
-1.00993
-1.01121
-1.01578
-1.01706
-1.0215
-1.02281
-1.02701
-1.02832
-1.03239
-1.03372
-1.03759
-1.03892
-1.04268
-1.04406
-1.04762
-1.04899
-1.05247
-1.05389
-1.05718
-1.05859
-1.06178
-1.06325
-1.06622
-1.06767
-1.07054
-1.07206
-1.07463
-1.07613
-1.07854
-1.08011
-1.08219
-1.08372
-1.08559
-1.08721
-1.08867
-1.09025
-1.09148
-1.09316
-1.09396
-1.09558
-1.09615
-1.09788
-1.09803
-1.09967
-1.09964
-1.10142
-1.10098
-1.10266
-1.1021
-1.10393
-1.10301
-1.10471
-1.10374
-1.10561
-1.10432
-1.10604
-1.10477
-1.10668
-1.10512
-1.10688
-1.10538
-1.10732
-1.10558
-1.10744
-1.10572
-1.10769
-1.10583
-1.10775
-1.1059
-1.10789
-1.10595
-1.10792
-1.10599
-1.10799
-1.10601
-1.10801
-1.10603
-1.10805
-1.10604
-1.10806
-1.10605
-1.1081
-1.10605
-1.1081
-1.10606
-1.10813
-1.10607
-1.10814
-1.10609
-1.10818
-1.1061
-1.10819
-1.10613
-1.10824
-1.10615
-1.10825
-1.1062
-1.10833
-1.10623
-1.10834
-1.10629
-1.10844
-1.10634
-1.10847
-1.10642
-1.1086
-1.10648
-1.10863
-1.10657
-1.10878
-1.10664
-1.10882
-1.10673
-1.10899
-1.1068
-1.10903
-1.10689
-1.10919
-1.10696
-1.10923
-1.10703
-1.10938
-1.10708
-1.10941
-1.10713
-1.10953
-1.10716
-1.10955
-1.10718
-1.10963
-1.10716
-1.10962
-1.10711
-1.10953
-1.10702
-1.10948
-1.10687
-1.10924
-1.10662
-1.1091
-1.10625
-1.1085
-1.10567
-1.10815
-1.10479
-1.10709
-1.10344
-1.10593
-1.10146
-1.10381
-1.09853
-1.10103
-1.09438
-1.09678
-1.08854
-1.09106
-1.0806
-1.08304
-1.07005
-1.0726
-1.05634
-1.05884
-1.03909
-1.04167
-1.01806
-1.0206
-0.993074
-0.995684
-0.963741
-0.96632
-0.931051
-0.933693
-0.895084
-0.897705
-0.856831
-0.859507
-0.816934
-0.819598
-0.776692
-0.779403
-0.736796
-0.739502
-0.6981
-0.700848
-0.661826
-0.664575
-0.628442
-0.631228
-0.597682
-0.600474
-0.570299
-0.573125
-0.546214
-0.549049
-0.524925
-0.527791
-0.506181
-0.509059
-0.489656
-0.492562
-0.475175
-0.478095
-0.462252
-0.465198
-0.450612
-0.453573
-0.440066
-0.443049
-0.430532
-0.43353
-0.421787
-0.424805
-0.413591
-0.416624
-0.406186
-0.409235
-0.399124
-0.402189
-0.392458
-0.395537
-0.385997
-0.38909
-0.379796
-0.382901
-0.373457
-0.376577
-0.367154
-0.370284
-0.360578
-0.363724
-0.353686
-0.356839
-0.346424
-0.349594
-0.338796
-0.341973
-0.330389
-0.333584
-0.321578
-0.324778
-0.311924
-0.315143
-0.30146
-0.304683
-0.290008
-0.293253
-0.27812
-0.281366
-0.265163
-0.268432
-0.251894
-0.255165
-0.23816
-0.241454
-0.224747
-0.22804
-0.211512
-0.21483
-0.199151
-0.202464
-0.187816
-0.191156
-0.178001
-0.181333
-0.169366
-0.172726
-0.162695
-0.166041
-0.157029
-0.160405
-0.153223
-0.156581
-0.150146
-0.153534
-0.148589
-0.151956
-0.147293
-0.15069
-0.146971
-0.150658
-0.147321
-0.150696
-0.148992
-0.152051
-0.150174
-0.153546
-0.15459
-0.156764
-0.157007
-0.160373
-0.165687
-0.166398
-0.169828
-0.173196
-0.18406
-0.182888
-0.190474
-0.19387
-0.211643
-0.208407
-0.22079
-0.224265
-0.250151
-0.244763
-0.263251
-0.266884
-1.69308
-0.294369
-1.70518
-0.323088
-1.76432
-0.355598
-1.77774
-0.387341
-1.83868
-0.419521
-1.84986
-0.443183
-1.89019
-0.460056
-1.8919
-0.461585
-1.85333
-0.448662
-1.83769
-0.419129
-1.75393
-0.37489
-1.72923
-0.322293
-1.62882
-0.2653
-1.60515
-0.209318
-1.52112
-0.160372
-1.50618
-0.120724
-1.45266
-0.0909069
-1.44646
-0.0707201
-1.41667
-0.0568185
-1.41529
-0.0488245
-1.30326
-0.0425453
-1.39639
-0.0393172
-1.30592
-0.0356371
-1.38338
-0.0335313
-1.36309
-0.0303499
-1.37305
-0.028385
-1.36348
-0.0255433
-1.36347
-0.0236222
-1.34316
-0.0208784
-1.3542
-0.0190654
-1.32053
-0.0166393
-1.34592
-0.0151357
-1.3011
-0.0131693
-1.33937
-0.0121369
-1.30873
-0.0107748
-1.33504
-0.0101579
-1.32483
-0.00920462
-1.33215
-0.00876785
-1.32963
-0.00795832
-1.32957
-0.00741878
-1.32695
-0.00654707
-1.32684
-0.00586845
-1.32418
-0.00495965
-1.32405
-0.0042146
-1.32156
-0.00336522
-1.32151
-0.00275409
-1.31493
-0.00214918
-1.31954
-0.00175957
-1.31501
-0.0014071
-1.31827
-0.00116934
-1.31727
-0.000884952
-1.31726
-0.000650522
-1.31631
-0.000376082
-1.31629
-0.000137511
-1.31541
0.000122532
-1.3154
0.000331356
-1.31286
0.000513143
-1.31484
0.000604477
-1.314
0.000652263
-1.31472
0.000663862
-1.31472
0.000666198
-1.31472
0.000666129
-1.31472
0.000665148
-1.31472
0.000665014
-1.31472
0.000664218
-1.31472
0.000664014
-1.31472
0.000663205
-1.31472
0.000662391
-1.31471
0.000659593
-1.31471
0.000652752
-1.3147
0.000653906
-1.31467
0.000698742
-0.393399
-0.414632
-0.394934
-0.415642
-0.395621
-0.416195
-0.398958
-0.419055
-0.400217
-0.420393
-0.405061
-0.424707
-0.406746
-0.426664
-0.412658
-0.432052
-0.414624
-0.434387
-0.421215
-0.440525
-0.423357
-0.443051
-0.458273
-0.449698
-0.460546
-0.452437
-0.467447
-0.459198
-0.470118
-0.462246
-0.477076
-0.469109
-0.480152
-0.472491
-0.487228
-0.479504
-0.490751
-0.483276
-0.498014
-0.490499
-0.502028
-0.494715
-0.509535
-0.502197
-0.514073
-0.506901
-0.521866
-0.51468
-0.526941
-0.519891
-0.53504
-0.527984
-0.540627
-0.533685
-0.549006
-0.542064
-0.555055
-0.548209
-0.563643
-0.556803
-0.570067
-0.56331
-0.578785
-0.572038
-0.585468
-0.578792
-0.594209
-0.587548
-0.601045
-0.594446
-0.609728
-0.603145
-0.616633
-0.610105
-0.625222
-0.618712
-0.632164
-0.625701
-0.640647
-0.634203
-0.647628
-0.641224
-0.656021
-0.649634
-0.66306
-0.656708
-0.671391
-0.665055
-0.678494
-0.672188
-0.686778
-0.680486
-0.693938
-0.687671
-0.702156
-0.695902
-0.709345
-0.703113
-0.717468
-0.711247
-0.724635
-0.718431
-0.732628
-0.726433
-0.73973
-0.733549
-0.747539
-0.741365
-0.754543
-0.748379
-0.76216
-0.756
-0.769034
-0.762882
-0.776439
-0.770289
-0.783164
-0.777019
-0.790359
-0.784215
-0.796944
-0.790802
-0.803926
-0.797783
-0.810352
-0.804211
-0.817134
-0.81099
-0.823413
-0.817271
-0.830006
-0.82386
-0.836152
-0.830006
-0.842601
-0.83645
-0.848648
-0.842497
-0.854975
-0.848818
-0.860954
-0.854796
-0.867194
-0.86103
-0.873156
-0.86699
-0.879349
-0.873175
-0.885302
-0.879126
-0.891477
-0.885292
-0.897442
-0.891256
-0.903611
-0.897414
-0.909598
-0.9034
-0.915775
-0.909566
-0.921799
-0.91559
-0.928024
-0.921803
-0.934128
-0.92791
-0.940434
-0.934206
-0.946664
-0.94044
-0.953077
-0.946844
-0.959427
-0.953201
-0.96597
-0.959735
-0.972422
-0.966195
-0.979005
-0.972768
-0.985487
-0.979259
-0.992033
-0.985794
-0.998401
-0.992172
-1.00478
-0.998535
-1.01094
-1.0047
-1.01703
-1.01078
-1.02285
-1.01661
-1.02862
-1.02235
-1.03411
-1.02784
-1.03953
-1.03324
-1.04471
-1.03842
-1.04986
-1.04354
-1.05478
-1.04846
-1.05969
-1.05332
-1.06437
-1.05802
-1.06904
-1.06264
-1.07345
-1.06707
-1.07785
-1.0714
-1.08191
-1.07548
-1.0859
-1.0794
-1.0895
-1.08304
-1.093
-1.08645
-1.09602
-1.08953
-1.09894
-1.09235
-1.10135
-1.09482
-1.10366
-1.09702
-1.10545
-1.09889
-1.1072
-1.10051
-1.10843
-1.10185
-1.1097
-1.10298
-1.11048
-1.10388
-1.11138
-1.10461
-1.1118
-1.10519
-1.11245
-1.10564
-1.11265
-1.10599
-1.11309
-1.10625
-1.11321
-1.10645
-1.11346
-1.10659
-1.11352
-1.1067
-1.11366
-1.10677
-1.11369
-1.10683
-1.11376
-1.10686
-1.11377
-1.10689
-1.11382
-1.1069
-1.11383
-1.10691
-1.11386
-1.10692
-1.11387
-1.10693
-1.1139
-1.10694
-1.1139
-1.10694
-1.11395
-1.10696
-1.11395
-1.10697
-1.11401
-1.107
-1.11402
-1.10703
-1.11409
-1.10707
-1.11411
-1.10711
-1.11421
-1.10717
-1.11424
-1.10722
-1.11436
-1.10729
-1.1144
-1.10735
-1.11455
-1.10745
-1.11459
-1.10751
-1.11475
-1.10761
-1.11479
-1.10768
-1.11496
-1.10777
-1.115
-1.10784
-1.11514
-1.10791
-1.11517
-1.10796
-1.11529
-1.10801
-1.11531
-1.10803
-1.11539
-1.10806
-1.11538
-1.10803
-1.11529
-1.10799
-1.11525
-1.10789
-1.115
-1.10775
-1.11486
-1.1075
-1.11427
-1.10713
-1.11391
-1.10655
-1.11286
-1.10567
-1.1117
-1.10432
-1.10958
-1.10234
-1.10679
-1.0994
-1.10255
-1.09526
-1.09683
-1.08942
-1.08881
-1.08148
-1.07836
-1.07093
-1.0646
-1.05722
-1.04743
-1.03997
-1.02636
-1.01894
-1.00145
-0.993954
-0.972084
-0.964621
-0.939456
-0.931931
-0.903469
-0.895964
-0.865269
-0.857711
-0.825361
-0.817814
-0.785166
-0.777572
-0.745265
-0.737676
-0.706611
-0.69898
-0.670337
-0.662706
-0.636991
-0.629322
-0.606236
-0.598562
-0.578887
-0.571179
-0.554811
-0.547094
-0.533554
-0.525805
-0.514822
-0.507062
-0.498324
-0.490536
-0.483858
-0.476056
-0.47096
-0.463132
-0.459335
-0.451493
-0.448811
-0.440946
-0.439292
-0.431412
-0.430567
-0.422667
-0.422386
-0.414472
-0.414997
-0.407066
-0.407951
-0.400005
-0.401299
-0.393339
-0.394852
-0.386878
-0.388663
-0.380677
-0.382339
-0.374338
-0.376045
-0.368035
-0.369486
-0.361459
-0.362601
-0.354567
-0.355356
-0.347305
-0.347734
-0.339677
-0.339345
-0.331271
-0.33054
-0.32246
-0.320905
-0.312806
-0.310445
-0.302342
-0.299014
-0.29089
-0.287128
-0.279002
-0.274194
-0.266045
-0.260926
-0.252777
-0.247216
-0.239043
-0.233802
-0.22563
-0.220592
-0.212395
-0.208226
-0.200033
-0.196918
-0.188698
-0.187095
-0.178884
-0.178488
-0.170249
-0.171803
-0.163578
-0.166167
-0.157912
-0.162343
-0.154107
-0.159296
-0.151029
-0.157718
-0.149473
-0.156452
-0.148177
-0.15642
-0.147854
-0.156458
-0.148204
-0.157813
-0.149875
-0.159308
-0.151058
-0.162526
-0.155473
-0.166135
-0.157891
-0.17216
-0.166571
-0.178958
-0.170711
-0.18865
-0.184944
-0.199632
-0.191357
-0.21417
-0.212527
-0.230027
-0.221673
-0.250525
-0.251035
-0.272646
-0.264134
-0.300132
-1.69396
-0.32885
-1.70606
-0.36136
-1.7652
-0.393103
-1.77862
-0.425284
-1.83956
-0.448945
-1.85074
-0.465819
-1.89107
-0.467348
-1.89278
-0.454424
-1.85421
-0.424892
-1.83857
-0.380652
-1.75481
-0.328055
-1.73011
-0.271062
-1.6297
-0.21508
-1.60603
-0.166135
-1.522
-0.126487
-1.50706
-0.0966695
-1.45354
-0.0764827
-1.44734
-0.0625812
-1.41755
-0.0545872
-1.41617
-0.048308
-1.30414
-0.0450799
-1.39727
-0.0413998
-1.3068
-0.0392941
-1.38426
-0.0361128
-1.36397
-0.0341479
-1.37393
-0.0313062
-1.36436
-0.0293852
-1.36435
-0.0266414
-1.34404
-0.0248284
-1.35507
-0.0224023
-1.32141
-0.0208988
-1.3468
-0.0189324
-1.30198
-0.0179001
-1.34025
-0.016538
-1.3096
-0.0159212
-1.33592
-0.014968
-1.32571
-0.0145312
-1.33303
-0.0137217
-1.33051
-0.0131822
-1.33045
-0.0123106
-1.32783
-0.011632
-1.32772
-0.0107232
-1.32506
-0.00997819
-1.32493
-0.00912884
-1.32244
-0.00851774
-1.32239
-0.00791286
-1.3158
-0.00752328
-1.32042
-0.00717083
-1.31589
-0.0069331
-1.31915
-0.00664873
-1.31815
-0.00641433
-1.31814
-0.00613991
-1.31719
-0.00590135
-1.31717
-0.00564133
-1.31629
-0.00543252
-1.31628
-0.00525075
-1.31374
-0.00515942
-1.31572
-0.00511165
-1.31488
-0.00510005
-1.3156
-0.00509772
-1.3156
-0.0050978
-1.3156
-0.00509878
-1.3156
-0.00509892
-1.3156
-0.00509971
-1.3156
-0.00509992
-1.31559
-0.00510072
-1.31559
-0.00510153
-1.31559
-0.00510432
-1.31559
-0.00511114
-1.31559
-0.00510998
-1.31558
-0.00506517
-1.31555
)
;

boundaryField
{
    walls
    {
        type            zeroGradient;
    }
    inlet
    {
        type            cyclic;
    }
    outlet
    {
        type            cyclic;
    }
    sides
    {
        type            empty;
    }
}


// ************************************************************************* //
