/*--------------------------------*- C++ -*----------------------------------*\
| =========                 |                                                 |
| \\      /  F ield         | OpenFOAM: The Open Source CFD Toolbox           |
|  \\    /   O peration     | Version:  2106                                  |
|   \\  /    A nd           | Website:  www.openfoam.com                      |
|    \\/     M anipulation  |                                                 |
\*---------------------------------------------------------------------------*/
FoamFile
{
    version     2.0;
    format      ascii;
    arch        "LSB;label=32;scalar=64";
    class       surfaceScalarField;
    location    "17000";
    object      phi;
}
// * * * * * * * * * * * * * * * * * * * * * * * * * * * * * * * * * * * * * //

dimensions      [0 3 -1 0 0 0 0];

oriented        oriented;

internalField   nonuniform List<scalar> 
5116
(
1.24464e-08
-7.43773e-18
-1.23527e-22
-2.83099e-22
6.97461e-24
3.80621e-08
-7.43836e-18
2.65277e-22
1.22154e-23
8.13032e-23
6.47914e-08
-7.43902e-18
2.74487e-22
3.18481e-22
8.48794e-23
9.26721e-08
-7.43968e-18
2.73004e-22
6.17742e-22
8.85969e-23
1.21743e-07
-7.44035e-18
2.71083e-22
8.93995e-22
9.24599e-23
1.52044e-07
-7.44097e-18
2.69316e-22
1.14044e-21
9.64732e-23
1.83617e-07
-7.44162e-18
2.67221e-22
1.41745e-21
1.00642e-22
2.16505e-07
-7.4422e-18
2.64678e-22
1.65967e-21
1.04971e-22
2.5075e-07
-7.44276e-18
2.61676e-22
1.82406e-21
1.09466e-22
2.86399e-07
-7.44331e-18
2.58183e-22
2.01986e-21
1.14132e-22
3.23499e-07
-7.44387e-18
2.54158e-22
2.21016e-21
1.18973e-22
3.62096e-07
-7.44448e-18
2.49565e-22
2.37655e-21
1.23996e-22
4.02242e-07
-7.44496e-18
2.4437e-22
2.55288e-21
1.29207e-22
4.43986e-07
-7.44543e-18
2.38541e-22
2.666e-21
1.3461e-22
4.87382e-07
-7.44588e-18
2.32044e-22
2.68393e-21
1.40212e-22
5.32483e-07
-7.44629e-18
2.24844e-22
2.85595e-21
1.46017e-22
5.79347e-07
-7.44668e-18
2.16906e-22
2.79475e-21
1.52029e-22
6.28029e-07
-7.44699e-18
2.08188e-22
2.73812e-21
1.58255e-22
6.7859e-07
-7.44737e-18
1.98647e-22
2.54715e-21
1.64702e-22
7.3109e-07
-7.44739e-18
1.88243e-22
2.31938e-21
1.71375e-22
7.85592e-07
-7.4473e-18
1.76927e-22
1.87924e-21
1.78279e-22
8.4216e-07
-7.44751e-18
1.64653e-22
1.58266e-21
1.85424e-22
9.00861e-07
-7.44784e-18
1.51372e-22
1.42838e-21
1.92815e-22
9.61763e-07
-7.44796e-18
1.37037e-22
1.27417e-21
2.00459e-22
1.02494e-06
-7.44783e-18
1.21588e-22
8.77986e-22
2.08366e-22
1.09045e-06
-7.44773e-18
1.04966e-22
3.09636e-22
2.16539e-22
1.15838e-06
-7.44772e-18
8.71163e-23
3.04102e-23
2.2499e-22
1.22881e-06
-7.44728e-18
6.79812e-23
-4.93782e-22
2.33719e-22
1.3018e-06
-7.44684e-18
4.74936e-23
-1.27745e-21
2.42735e-22
1.37744e-06
-7.44648e-18
2.55989e-23
-1.85378e-21
2.52042e-22
1.45582e-06
-7.44591e-18
2.23814e-24
-2.68748e-21
2.61635e-22
1.537e-06
-7.44538e-18
-2.26466e-23
-3.14673e-21
2.71504e-22
1.62108e-06
-7.44491e-18
-4.91379e-23
-4.1133e-21
2.81644e-22
1.70814e-06
-7.44412e-18
-7.72947e-23
-4.87626e-21
2.92074e-22
1.79826e-06
-7.44339e-18
-1.07187e-22
-6.04735e-21
3.02789e-22
1.89154e-06
-7.4422e-18
-1.38885e-22
-7.56129e-21
3.13793e-22
1.98807e-06
-7.44056e-18
-1.72473e-22
-9.41449e-21
3.25091e-22
2.08793e-06
-7.4394e-18
-2.08021e-22
-1.06953e-20
3.36686e-22
2.1912e-06
-7.43791e-18
-2.456e-22
-1.23519e-20
3.48579e-22
2.29799e-06
-7.43603e-18
-2.85282e-22
-1.43939e-20
3.60763e-22
2.40838e-06
-7.43446e-18
-3.27122e-22
-1.608e-20
3.7324e-22
2.52245e-06
-7.4329e-18
-3.71175e-22
-1.7849e-20
3.85989e-22
2.6403e-06
-7.43067e-18
-4.17493e-22
-1.99482e-20
3.98988e-22
2.76201e-06
-7.42825e-18
-4.6613e-22
-2.21336e-20
4.12231e-22
2.88766e-06
-7.42608e-18
-5.17129e-22
-2.42818e-20
4.25689e-22
3.01733e-06
-7.42321e-18
-5.70515e-22
-2.67593e-20
4.39335e-22
3.1511e-06
-7.42054e-18
-6.26314e-22
-2.94912e-20
4.53148e-22
3.28904e-06
-7.41783e-18
-6.8452e-22
-3.22791e-20
4.67073e-22
3.43122e-06
-7.41428e-18
-7.45137e-22
-3.49682e-20
4.81057e-22
3.5777e-06
-7.41097e-18
-8.08161e-22
-3.83049e-20
4.95029e-22
3.72855e-06
-7.40682e-18
-8.73552e-22
-4.08474e-20
5.0894e-22
3.88381e-06
-7.40096e-18
-9.41282e-22
-4.51598e-20
5.22704e-22
4.04353e-06
-7.39587e-18
-1.01134e-21
-4.92906e-20
5.36295e-22
4.20776e-06
-7.39024e-18
-1.08371e-21
-5.48314e-20
5.49728e-22
4.37653e-06
-7.38641e-18
-1.15838e-21
-5.86496e-20
5.63003e-22
4.54987e-06
-7.38191e-18
-1.2352e-21
-6.19751e-20
5.7602e-22
4.72779e-06
-7.37792e-18
-1.31404e-21
-6.65518e-20
5.88757e-22
4.91032e-06
-7.3723e-18
-1.39474e-21
-7.1379e-20
6.01092e-22
5.09746e-06
-7.36621e-18
-1.47725e-21
-7.68013e-20
6.13028e-22
5.28922e-06
-7.35993e-18
-1.56153e-21
-8.26247e-20
6.24586e-22
5.4856e-06
-7.35502e-18
-1.64747e-21
-8.61617e-20
6.35694e-22
5.68659e-06
-7.34873e-18
-1.73485e-21
-8.98794e-20
6.46199e-22
5.89218e-06
-7.34248e-18
-1.82356e-21
-9.57034e-20
6.55918e-22
6.10237e-06
-7.33438e-18
-1.91347e-21
-1.01082e-19
6.65024e-22
6.31714e-06
-7.32749e-18
-2.00452e-21
-1.07485e-19
6.73441e-22
6.53647e-06
-7.3192e-18
-2.09663e-21
-1.14557e-19
6.81114e-22
6.76036e-06
-7.31082e-18
-2.18971e-21
-1.21327e-19
6.88052e-22
6.98877e-06
-7.30323e-18
-2.28362e-21
-1.27992e-19
6.94055e-22
7.22171e-06
-7.29512e-18
-2.37827e-21
-1.34333e-19
6.9922e-22
7.45916e-06
-7.28415e-18
-2.47365e-21
-1.40378e-19
7.03605e-22
7.7011e-06
-7.27377e-18
-2.56985e-21
-1.50267e-19
7.07068e-22
7.94753e-06
-7.26585e-18
-2.66685e-21
-1.56772e-19
7.09909e-22
8.19844e-06
-7.25753e-18
-2.76442e-21
-1.63002e-19
7.11773e-22
8.45384e-06
-7.24844e-18
-2.86246e-21
-1.69914e-19
7.1264e-22
8.71373e-06
-7.23995e-18
-2.96077e-21
-1.78594e-19
7.12465e-22
8.97811e-06
-7.22936e-18
-3.05948e-21
-1.87185e-19
7.11475e-22
9.247e-06
-7.21929e-18
-3.1587e-21
-1.95331e-19
7.09525e-22
9.52042e-06
-7.2097e-18
-3.25827e-21
-2.03837e-19
7.06614e-22
9.79839e-06
-7.1999e-18
-3.35825e-21
-2.13228e-19
7.02728e-22
1.00809e-05
-7.18802e-18
-3.45857e-21
-2.23562e-19
6.97918e-22
1.03681e-05
-7.17421e-18
-3.55935e-21
-2.3286e-19
6.92043e-22
1.06598e-05
-7.16265e-18
-3.6606e-21
-2.43078e-19
6.8496e-22
1.09563e-05
-7.14994e-18
-3.76221e-21
-2.53615e-19
6.76798e-22
1.12575e-05
-7.13499e-18
-3.86417e-21
-2.63529e-19
6.67728e-22
1.15635e-05
-7.11979e-18
-3.96654e-21
-2.75053e-19
6.57751e-22
1.18743e-05
-7.10468e-18
-4.06966e-21
-2.84539e-19
6.47079e-22
1.21899e-05
-7.08931e-18
-4.17359e-21
-2.97352e-19
6.35521e-22
1.25106e-05
-7.07362e-18
-4.2782e-21
-3.08382e-19
6.23251e-22
1.28362e-05
-7.0569e-18
-4.38346e-21
-3.23435e-19
6.10151e-22
1.31669e-05
-7.04203e-18
-4.48975e-21
-3.35751e-19
5.96648e-22
1.35028e-05
-7.02544e-18
-4.597e-21
-3.48771e-19
5.82317e-22
1.38439e-05
-7.0097e-18
-4.70524e-21
-3.60969e-19
5.67196e-22
1.41904e-05
-6.99147e-18
-4.81444e-21
-3.74643e-19
5.51447e-22
1.45422e-05
-6.97752e-18
-4.92487e-21
-3.88609e-19
5.3556e-22
1.48995e-05
-6.96308e-18
-5.03631e-21
-3.99467e-19
5.19309e-22
1.52623e-05
-6.94931e-18
-5.14916e-21
-4.11143e-19
5.02573e-22
1.56309e-05
-6.93441e-18
-5.26266e-21
-4.19068e-19
4.8533e-22
1.60052e-05
-6.91362e-18
-5.37751e-21
-4.31004e-19
4.67277e-22
1.63853e-05
-6.90228e-18
-5.49426e-21
-4.38009e-19
4.48891e-22
1.67714e-05
-6.88026e-18
-5.61162e-21
-4.4538e-19
4.28634e-22
1.71635e-05
-6.86076e-18
-5.73106e-21
-4.56085e-19
4.0627e-22
1.75618e-05
-6.83805e-18
-5.85207e-21
-4.67428e-19
3.83215e-22
1.79663e-05
-6.82341e-18
-5.97578e-21
-4.75267e-19
3.59161e-22
1.83773e-05
-6.80345e-18
-6.10079e-21
-4.90986e-19
3.33657e-22
1.87947e-05
-6.78439e-18
-6.22761e-21
-5.06362e-19
3.08198e-22
1.92187e-05
-6.76431e-18
-6.35678e-21
-5.20359e-19
2.8251e-22
1.96494e-05
-6.74197e-18
-6.48648e-21
-5.38234e-19
2.57011e-22
2.0087e-05
-6.72184e-18
-6.61749e-21
-5.51505e-19
2.30861e-22
2.05315e-05
-6.70069e-18
-6.75063e-21
-5.70118e-19
2.0434e-22
2.0983e-05
-6.67911e-18
-6.88532e-21
-5.85344e-19
1.77302e-22
2.14418e-05
-6.65391e-18
-7.02102e-21
-6.03009e-19
1.49244e-22
2.19079e-05
-6.63159e-18
-7.15885e-21
-6.1721e-19
1.22537e-22
2.23815e-05
-6.61019e-18
-7.29819e-21
-6.327e-19
9.48614e-23
2.28626e-05
-6.58637e-18
-7.4391e-21
-6.51865e-19
6.59312e-23
2.33515e-05
-6.56196e-18
-7.58087e-21
-6.69614e-19
3.64941e-23
2.38482e-05
-6.53753e-18
-7.72265e-21
-6.83802e-19
6.05211e-24
2.4353e-05
-6.51094e-18
-7.86348e-21
-7.02226e-19
-2.61078e-23
2.48658e-05
-6.47901e-18
-8.00539e-21
-7.17905e-19
-5.77921e-23
2.5387e-05
-6.44964e-18
-8.14883e-21
-7.38567e-19
-8.98045e-23
2.59165e-05
-6.4243e-18
-8.29344e-21
-7.53566e-19
-1.21283e-22
2.64547e-05
-6.3917e-18
-8.43807e-21
-7.72614e-19
-1.53983e-22
2.70015e-05
-6.3627e-18
-8.58501e-21
-7.93526e-19
-1.86507e-22
2.75573e-05
-6.33424e-18
-8.73258e-21
-8.12089e-19
-2.17968e-22
2.81221e-05
-6.30385e-18
-8.8809e-21
-8.27496e-19
-2.50147e-22
2.8696e-05
-6.27343e-18
-9.02988e-21
-8.49278e-19
-2.82691e-22
2.92793e-05
-6.24405e-18
-9.1805e-21
-8.69711e-19
-3.14683e-22
2.98722e-05
-6.21096e-18
-9.32984e-21
-8.844e-19
-3.47579e-22
3.04747e-05
-6.1831e-18
-9.48111e-21
-9.03473e-19
-3.84884e-22
3.1087e-05
-6.15148e-18
-9.6307e-21
-9.14505e-19
-4.23195e-22
3.17094e-05
-6.13573e-18
-9.78231e-21
-9.19272e-19
-4.62595e-22
3.23419e-05
-6.11284e-18
-9.92838e-21
-9.29813e-19
-5.09329e-22
3.29848e-05
-6.09029e-18
-1.00702e-20
-9.43591e-19
-5.60651e-22
3.36382e-05
-6.06319e-18
-1.02056e-20
-9.57898e-19
-6.16819e-22
3.43024e-05
-6.03308e-18
-1.03376e-20
-9.70865e-19
-6.75219e-22
3.49775e-05
-6.00702e-18
-1.04665e-20
-9.84118e-19
-7.37001e-22
3.56636e-05
-5.98138e-18
-1.05907e-20
-1.00217e-18
-8.00377e-22
3.63611e-05
-5.95346e-18
-1.07124e-20
-1.0212e-18
-8.66227e-22
3.707e-05
-5.93159e-18
-1.08316e-20
-1.03398e-18
-9.31984e-22
3.77906e-05
-5.90661e-18
-1.09393e-20
-1.04493e-18
-1.00058e-21
3.85231e-05
-5.87729e-18
-1.10396e-20
-1.04884e-18
-1.07715e-21
3.92676e-05
-5.85136e-18
-1.11354e-20
-1.06739e-18
-1.1623e-21
4.00244e-05
-5.82002e-18
-1.12131e-20
-1.08191e-18
-1.25366e-21
4.07937e-05
-5.79029e-18
-1.12842e-20
-1.09096e-18
-1.35135e-21
4.15757e-05
-5.75519e-18
-1.13511e-20
-1.11085e-18
-1.45445e-21
4.23706e-05
-5.72636e-18
-1.14093e-20
-1.13117e-18
-1.55577e-21
4.31787e-05
-5.69795e-18
-1.14576e-20
-1.14295e-18
-1.65698e-21
4.40001e-05
-5.66492e-18
-1.14957e-20
-1.15793e-18
-1.77188e-21
4.48351e-05
-5.6247e-18
-1.15313e-20
-1.1773e-18
-1.88703e-21
4.56839e-05
-5.60124e-18
-1.15721e-20
-1.19284e-18
-2.00002e-21
4.65467e-05
-5.57439e-18
-1.16067e-20
-1.20965e-18
-2.10399e-21
4.74238e-05
-5.54262e-18
-1.16357e-20
-1.2238e-18
-2.20036e-21
4.83155e-05
-5.50809e-18
-1.16619e-20
-1.23938e-18
-2.28452e-21
4.92219e-05
-5.47773e-18
-1.16891e-20
-1.2588e-18
-2.3614e-21
5.01433e-05
-5.42973e-18
-1.17049e-20
-1.27464e-18
-2.43983e-21
5.10799e-05
-5.40307e-18
-1.17272e-20
-1.29179e-18
-2.5108e-21
5.20321e-05
-5.37561e-18
-1.17407e-20
-1.2981e-18
-2.57475e-21
5.30001e-05
-5.34703e-18
-1.17417e-20
-1.31844e-18
-2.64445e-21
5.39841e-05
-5.31706e-18
-1.17318e-20
-1.32864e-18
-2.69889e-21
5.49844e-05
-5.26567e-18
-1.17123e-20
-1.35841e-18
-2.75639e-21
5.60013e-05
-5.22468e-18
-1.16981e-20
-1.37888e-18
-2.8073e-21
5.70351e-05
-5.17617e-18
-1.16817e-20
-1.39793e-18
-2.84774e-21
5.8086e-05
-5.14946e-18
-1.16688e-20
-1.40457e-18
-2.88165e-21
5.91543e-05
-5.13109e-18
-1.16599e-20
-1.42238e-18
-2.91712e-21
6.02404e-05
-5.09986e-18
-1.16342e-20
-1.43591e-18
-2.95251e-21
6.13445e-05
-5.07729e-18
-1.16321e-20
-1.45613e-18
-2.98862e-21
6.24668e-05
-5.03876e-18
-1.1626e-20
-1.46999e-18
-3.01233e-21
6.36078e-05
-5.00837e-18
-1.16375e-20
-1.4906e-18
-3.03634e-21
6.47678e-05
-4.97872e-18
-1.16571e-20
-1.51114e-18
-3.06639e-21
6.59469e-05
-4.93639e-18
-1.16726e-20
-1.52727e-18
-3.10306e-21
6.71456e-05
-4.90339e-18
-1.16928e-20
-1.53434e-18
-3.14705e-21
6.83642e-05
-4.87043e-18
-1.17042e-20
-1.55186e-18
-3.21292e-21
6.96031e-05
-4.85159e-18
-1.17159e-20
-1.55763e-18
-3.26799e-21
7.08624e-05
-4.81909e-18
-1.1705e-20
-1.57655e-18
-3.34239e-21
7.21427e-05
-4.78156e-18
-1.16914e-20
-1.59414e-18
-3.42135e-21
7.34442e-05
-4.74352e-18
-1.1673e-20
-1.6174e-18
-3.48663e-21
7.47672e-05
-4.70921e-18
-1.16655e-20
-1.62725e-18
-3.52133e-21
7.61122e-05
-4.67667e-18
-1.16497e-20
-1.65803e-18
-3.54123e-21
7.74795e-05
-4.62487e-18
-1.161e-20
-1.66346e-18
-3.54896e-21
7.88695e-05
-4.59106e-18
-1.15849e-20
-1.6948e-18
-3.54171e-21
8.02825e-05
-4.54848e-18
-1.15301e-20
-1.71197e-18
-3.46646e-21
8.1719e-05
-4.5141e-18
-1.14658e-20
-1.72914e-18
-3.41355e-21
8.31792e-05
-4.46993e-18
-1.13574e-20
-1.73984e-18
-3.3449e-21
8.46637e-05
-4.43295e-18
-1.1264e-20
-1.75541e-18
-3.28098e-21
8.61727e-05
-4.40393e-18
-1.11737e-20
-1.76419e-18
-3.18874e-21
8.77067e-05
-4.35703e-18
-1.10636e-20
-1.77431e-18
-3.10709e-21
8.92662e-05
-4.31931e-18
-1.09772e-20
-1.7792e-18
-3.06073e-21
9.08515e-05
-4.27692e-18
-1.09017e-20
-1.79816e-18
-3.02854e-21
9.2463e-05
-4.24641e-18
-1.08307e-20
-1.81973e-18
-2.98935e-21
9.41012e-05
-4.19791e-18
-1.07309e-20
-1.83836e-18
-2.93492e-21
9.57665e-05
-4.16515e-18
-1.06501e-20
-1.88084e-18
-2.91458e-21
9.74594e-05
-4.12099e-18
-1.05817e-20
-1.88903e-18
-2.84401e-21
9.91803e-05
-4.07536e-18
-1.05183e-20
-1.91526e-18
-2.79757e-21
0.00010093
-4.03334e-18
-1.04692e-20
-1.93669e-18
-2.74845e-21
0.000102708
-4.00148e-18
-1.04179e-20
-1.96286e-18
-2.71128e-21
0.000104516
-3.95798e-18
-1.03733e-20
-1.97308e-18
-2.66567e-21
0.000106353
-3.89801e-18
-1.03552e-20
-2.0102e-18
-2.68042e-21
0.000108221
-3.8391e-18
-1.04083e-20
-2.04904e-18
-2.67976e-21
0.00011012
-3.80614e-18
-1.0449e-20
-2.08333e-18
-2.65202e-21
0.00011205
-3.76138e-18
-1.04805e-20
-2.12057e-18
-2.61167e-21
0.000114012
-3.71272e-18
-1.05593e-20
-2.14593e-18
-2.5358e-21
0.000116007
-3.63899e-18
-1.06361e-20
-2.17223e-18
-2.46777e-21
0.000118034
-3.58607e-18
-1.07573e-20
-2.19582e-18
-2.4186e-21
0.000120095
-3.59003e-18
-1.0909e-20
-2.17074e-18
-2.35015e-21
0.00012219
-3.58307e-18
-1.10082e-20
-2.19239e-18
-2.31505e-21
0.00012432
-3.56563e-18
-1.1101e-20
-2.17263e-18
-2.17994e-21
0.000126484
-3.57219e-18
-1.11632e-20
-2.17074e-18
-2.11982e-21
0.000128684
-3.54423e-18
-1.1211e-20
-2.14929e-18
-2.0361e-21
0.000130921
-3.57687e-18
-1.13158e-20
-2.12946e-18
-1.95235e-21
0.000133194
-3.55902e-18
-1.13189e-20
-2.12859e-18
-1.98677e-21
0.000135505
-3.53118e-18
-1.13155e-20
-2.14106e-18
-2.02718e-21
0.000137854
-3.51107e-18
-1.13342e-20
-2.14729e-18
-1.97701e-21
0.000140241
-3.52724e-18
-1.13175e-20
-2.13553e-18
-1.94792e-21
0.000142668
-3.5099e-18
-1.12831e-20
-2.14589e-18
-1.87957e-21
0.000145134
-3.50104e-18
-1.13363e-20
-2.13899e-18
-1.71452e-21
0.000147642
-3.49199e-18
-1.1312e-20
-2.14041e-18
-1.50709e-21
0.00015019
-3.45125e-18
-1.11369e-20
-2.14191e-18
-1.25072e-21
0.00015278
-3.45306e-18
-1.10295e-20
-2.15102e-18
-9.96785e-22
0.000155413
-3.42349e-18
-1.09132e-20
-2.1617e-18
-7.54599e-22
0.000158089
-3.40585e-18
-1.09723e-20
-2.17271e-18
-3.9946e-22
0.000160809
-3.38389e-18
-1.10375e-20
-2.16276e-18
-6.67538e-23
0.000163573
-3.36458e-18
-1.11529e-20
-2.17382e-18
1.43335e-22
0.000166383
-3.34304e-18
-1.10724e-20
-2.17403e-18
1.43809e-22
0.000169239
-3.3233e-18
-1.11222e-20
-2.18378e-18
3.56703e-22
0.000172142
-3.3111e-18
-1.12324e-20
-2.20697e-18
5.07356e-22
0.000175092
-3.28959e-18
-1.12662e-20
-2.19196e-18
4.33108e-22
0.00017809
-3.27623e-18
-1.12769e-20
-2.20604e-18
1.57389e-22
0.000181138
-3.22909e-18
-1.10579e-20
-2.23595e-18
-8.01958e-23
0.000184235
-3.23744e-18
-1.11239e-20
-2.23454e-18
-9.21271e-23
0.000187383
-3.20511e-18
-1.11575e-20
-2.24023e-18
-3.33572e-22
0.000190582
-3.23108e-18
-1.13736e-20
-2.25924e-18
-7.12318e-22
0.000193833
-3.19515e-18
-1.1389e-20
-2.26624e-18
-9.33676e-22
0.000197138
-3.17184e-18
-1.15234e-20
-2.27387e-18
-1.11363e-21
0.000200496
-3.17258e-18
-1.15676e-20
-2.28049e-18
-1.34321e-21
0.000203909
-3.1571e-18
-1.14164e-20
-2.23681e-18
-1.30946e-21
0.000207378
-3.11857e-18
-1.11266e-20
-2.24454e-18
-1.39973e-21
0.000210903
-3.14863e-18
-1.10185e-20
-2.21489e-18
-1.22996e-21
0.000214485
-3.1187e-18
-1.06946e-20
-2.22213e-18
-1.18707e-21
0.000218126
-3.12158e-18
-1.02756e-20
-2.20583e-18
-1.3507e-21
0.000221825
-3.09239e-18
-9.80361e-21
-2.19701e-18
-1.79562e-21
0.000225585
-3.05973e-18
-9.41009e-21
-2.21252e-18
-2.32119e-21
0.000229406
-3.0621e-18
-9.15083e-21
-2.19656e-18
-2.72594e-21
0.000233288
-3.06266e-18
-8.99902e-21
-2.19264e-18
-3.37538e-21
0.000237234
-3.03729e-18
-8.82485e-21
-2.17006e-18
-4.02154e-21
0.000241243
-3.03275e-18
-8.98855e-21
-2.1497e-18
-4.766e-21
0.000245317
-2.95055e-18
-8.8611e-21
-2.13854e-18
-5.35458e-21
0.000249457
-2.87526e-18
-9.12431e-21
-2.16004e-18
-5.20614e-21
0.000253664
-2.81792e-18
-8.99862e-21
-2.17303e-18
-5.23606e-21
0.000257938
-2.7816e-18
-8.95445e-21
-2.10965e-18
-5.35116e-21
0.000262282
-2.69083e-18
-8.76101e-21
-2.11166e-18
-6.15113e-21
0.000266695
-2.63657e-18
-8.61984e-21
-2.05328e-18
-6.47177e-21
0.000271179
-2.5175e-18
-8.02601e-21
-2.18179e-18
-7.52679e-21
0.000275735
-2.47927e-18
-8.41936e-21
-2.1289e-18
-6.95436e-21
0.000280365
-2.43011e-18
-8.6754e-21
-2.08669e-18
-7.06483e-21
0.000285068
-2.38922e-18
-8.72301e-21
-2.12793e-18
-7.65086e-21
0.000289847
-2.38734e-18
-9.22687e-21
-2.06173e-18
-7.73952e-21
0.000294702
-2.32095e-18
-8.74689e-21
-2.05187e-18
-7.9207e-21
0.000299635
-2.3034e-18
-8.48946e-21
-2.01438e-18
-8.07815e-21
0.000304647
-2.24403e-18
-8.98976e-21
-2.03411e-18
-8.45344e-21
0.000309738
-2.21541e-18
-9.08481e-21
-2.01281e-18
-7.90014e-21
0.00031491
-2.17521e-18
-8.99978e-21
-1.95062e-18
-7.66504e-21
0.000320165
-2.09731e-18
-9.71472e-21
-2.02286e-18
-9.01091e-21
0.000325503
-2.08823e-18
-1.07947e-20
-1.99236e-18
-9.16057e-21
0.000330925
-2.10575e-18
-1.0844e-20
-1.95728e-18
-9.90685e-21
0.000336434
-2.09135e-18
-9.83309e-21
-1.86515e-18
-1.12626e-20
0.000342029
-1.95372e-18
-8.10621e-21
-1.93028e-18
-1.37827e-20
0.000347713
-1.85433e-18
-7.6877e-21
-1.82189e-18
-1.46499e-20
0.000353486
-1.78573e-18
-9.23371e-21
-1.84362e-18
-1.72335e-20
0.00035935
-1.75185e-18
-1.13235e-20
-1.78107e-18
-1.73611e-20
0.000365305
-1.6918e-18
-1.34288e-20
-1.76615e-18
-1.6816e-20
0.000371355
-1.65633e-18
-1.56267e-20
-1.7281e-18
-1.63766e-20
0.000377498
-1.58834e-18
-1.78966e-20
-1.65806e-18
-1.58183e-20
0.000383738
-1.57643e-18
-2.03401e-20
-1.65748e-18
-1.59009e-20
0.000390074
-1.59229e-18
-2.05951e-20
-1.64725e-18
-1.60011e-20
0.000396509
-1.60024e-18
-1.96762e-20
-1.57818e-18
-1.5877e-20
0.000403043
-1.5485e-18
-1.72698e-20
-1.52731e-18
-1.60354e-20
0.000409679
-1.54116e-18
-1.4284e-20
-1.50274e-18
-1.68881e-20
0.000416417
-1.50766e-18
-1.24463e-20
-1.46787e-18
-1.64896e-20
0.000423258
-1.48631e-18
-1.13032e-20
-1.41211e-18
-1.3959e-20
0.000430204
-1.50144e-18
-9.26366e-21
-1.38165e-18
-1.2662e-20
0.000437256
-1.44958e-18
-5.09382e-21
-1.35949e-18
-9.82078e-21
0.000444416
-1.37941e-18
-1.6982e-21
-1.36195e-18
-4.32362e-21
0.000451684
-1.28127e-18
4.54417e-22
-1.38039e-18
3.91016e-22
0.000459063
-1.3014e-18
-1.96609e-22
-1.3943e-18
2.93113e-21
0.000466552
-1.26866e-18
8.46283e-22
-1.38268e-18
5.99796e-21
0.000474154
-1.22216e-18
5.3456e-21
-1.34973e-18
7.45676e-21
0.00048187
-1.28449e-18
7.61088e-21
-1.24472e-18
8.75481e-21
0.000489701
-1.34775e-18
1.09678e-20
-1.23542e-18
5.3222e-21
0.000497647
-1.25862e-18
1.45628e-20
-1.19784e-18
3.80494e-21
0.000505711
-1.26138e-18
1.45362e-20
-1.25536e-18
2.8221e-21
0.000513894
-1.19444e-18
1.59679e-20
-1.22769e-18
4.97728e-21
0.000522196
-1.18065e-18
7.59832e-21
-1.19034e-18
8.01971e-21
0.000530618
-1.27834e-18
2.03903e-21
-1.14544e-18
7.82836e-21
0.000539162
-1.15309e-18
8.32403e-22
-1.17162e-18
5.73871e-21
0.000547828
-1.07553e-18
-3.49832e-22
-1.07006e-18
2.62459e-21
0.000556618
-1.05509e-18
-5.54027e-22
-1.0962e-18
3.74385e-21
0.000565532
-9.96176e-19
1.88969e-22
-1.1383e-18
7.43805e-21
0.00057457
-8.80122e-19
3.70731e-22
-9.61578e-19
1.26497e-20
0.000583735
-9.1351e-19
-3.39864e-21
-8.07462e-19
1.36591e-20
0.000593026
-8.31084e-19
4.13701e-21
-8.4546e-19
9.08299e-21
0.000602443
-8.30602e-19
8.38132e-22
-9.13359e-19
-1.1505e-21
0.000611987
-8.98115e-19
-6.10464e-21
-9.03654e-19
-6.0631e-21
0.000621659
-1.01954e-18
-7.62032e-21
-9.87416e-19
-3.22527e-21
0.000631459
-9.51041e-19
-4.32486e-21
-1.05432e-18
-6.8081e-23
0.000641385
-9.59452e-19
-9.75962e-21
-1.02787e-18
-2.74685e-22
0.000651439
-1.15533e-18
-2.35794e-20
-1.03738e-18
-6.00115e-21
0.00066162
-1.12836e-18
-2.28449e-20
-1.12132e-18
-2.05633e-20
0.000671927
-1.1631e-18
-2.24318e-20
-1.11361e-18
-3.25767e-20
0.00068236
-1.18972e-18
-2.98819e-20
-1.05714e-18
-3.36838e-20
0.000692917
-1.16749e-18
-3.5026e-20
-1.07343e-18
-3.34414e-20
0.000703598
-1.0444e-18
-3.48416e-20
-1.18445e-18
-3.03213e-20
0.0007144
-1.01171e-18
-3.26725e-20
-1.18757e-18
-3.10021e-20
0.000725323
-1.2591e-18
-3.70742e-20
-1.22268e-18
-3.12624e-20
0.000736363
-1.28787e-18
-1.25869e-20
-1.13463e-18
-3.79802e-20
0.00074752
-1.07618e-18
-5.32049e-21
-1.10747e-18
-3.87269e-20
0.000758789
-1.0564e-18
-1.24139e-20
-1.1228e-18
-3.41842e-20
0.000770169
-1.0803e-18
-1.93768e-20
-1.14556e-18
-3.7673e-20
0.000781655
-1.17012e-18
-2.77795e-20
-1.13644e-18
-3.74299e-20
0.000793245
-1.19145e-18
-2.92504e-20
-1.18741e-18
-3.85637e-20
0.000804934
-1.15226e-18
-3.40301e-20
-1.17584e-18
-4.22208e-20
0.000816719
-3.78577e-20
-1.2183e-18
-4.25755e-20
-1.20336e-18
1.24464e-08
-1.09466e-22
-6.99465e-24
3.80621e-08
1.45727e-22
8.46223e-23
6.47914e-08
4.03466e-22
1.80305e-22
9.26721e-08
6.60492e-22
2.77049e-22
1.21743e-07
9.24939e-22
3.57033e-22
1.52044e-07
1.24032e-21
4.32536e-22
1.83617e-07
1.50497e-21
5.15122e-22
2.16505e-07
1.73434e-21
6.81163e-22
2.5075e-07
2.02499e-21
7.69694e-22
2.86399e-07
2.3729e-21
8.19654e-22
3.23499e-07
2.69281e-21
9.24261e-22
3.62096e-07
2.88793e-21
1.12402e-21
4.02242e-07
3.09158e-21
1.25702e-21
4.43986e-07
3.29079e-21
1.36749e-21
4.87382e-07
3.46123e-21
1.51299e-21
5.32483e-07
3.72722e-21
1.7173e-21
5.79347e-07
3.89288e-21
1.95927e-21
6.28029e-07
3.93167e-21
2.26716e-21
6.7859e-07
4.05324e-21
2.52103e-21
7.3109e-07
4.25757e-21
2.67321e-21
7.85592e-07
4.5906e-21
2.85057e-21
8.4216e-07
4.74775e-21
3.02123e-21
9.00861e-07
4.97e-21
3.25275e-21
9.61763e-07
4.9515e-21
3.76589e-21
1.02494e-06
4.91959e-21
4.01713e-21
1.09045e-06
4.91111e-21
4.39831e-21
1.15838e-06
4.74417e-21
4.71655e-21
1.22881e-06
4.47492e-21
4.96142e-21
1.3018e-06
4.42179e-21
5.27826e-21
1.37744e-06
4.30496e-21
5.5591e-21
1.45582e-06
4.66002e-21
5.42331e-21
1.537e-06
4.12722e-21
5.71848e-21
1.62108e-06
3.89901e-21
6.04993e-21
1.70814e-06
3.8991e-21
6.40655e-21
1.79826e-06
3.80362e-21
7.1328e-21
1.89154e-06
3.52832e-21
7.74904e-21
1.98807e-06
3.4209e-21
8.06146e-21
2.08793e-06
2.78391e-21
8.80779e-21
2.1912e-06
2.10603e-21
9.57382e-21
2.29799e-06
1.73505e-21
1.07018e-20
2.40838e-06
9.33453e-22
1.15204e-20
2.52245e-06
-2.08456e-23
1.1817e-20
2.6403e-06
-7.95111e-22
1.2904e-20
2.76201e-06
-1.5933e-21
1.37741e-20
2.88766e-06
-2.45738e-21
1.45657e-20
3.01733e-06
-3.1232e-21
1.56616e-20
3.1511e-06
-3.86058e-21
1.63012e-20
3.28904e-06
-4.82525e-21
1.70751e-20
3.43122e-06
-5.68174e-21
1.79068e-20
3.5777e-06
-7.02104e-21
1.84202e-20
3.72855e-06
-8.01039e-21
1.89227e-20
3.88381e-06
-8.35039e-21
1.82822e-20
4.04353e-06
-1.06349e-20
1.9344e-20
4.20776e-06
-1.39322e-20
2.09926e-20
4.37653e-06
-1.6882e-20
2.30794e-20
4.54987e-06
-1.90303e-20
2.58919e-20
4.72779e-06
-2.08634e-20
2.64263e-20
4.91032e-06
-2.21041e-20
2.75015e-20
5.09746e-06
-2.42269e-20
2.88034e-20
5.28922e-06
-2.62359e-20
2.95939e-20
5.4856e-06
-2.80258e-20
3.09753e-20
5.68659e-06
-2.89439e-20
3.0685e-20
5.89218e-06
-3.05707e-20
3.26478e-20
6.10237e-06
-3.23313e-20
3.41146e-20
6.31714e-06
-3.62004e-20
3.52385e-20
6.53647e-06
-3.91234e-20
3.71473e-20
6.76036e-06
-4.16165e-20
3.71366e-20
6.98877e-06
-4.3904e-20
3.82899e-20
7.22171e-06
-4.64929e-20
3.94742e-20
7.45916e-06
-4.84685e-20
3.89187e-20
7.7011e-06
-5.07644e-20
3.95556e-20
7.94753e-06
-5.29937e-20
3.80392e-20
8.19844e-06
-5.45276e-20
3.69094e-20
8.45384e-06
-5.32866e-20
3.53357e-20
8.71373e-06
-5.49239e-20
3.55146e-20
8.97811e-06
-5.67456e-20
3.45982e-20
9.247e-06
-5.76821e-20
3.48786e-20
9.52042e-06
-6.01232e-20
3.42164e-20
9.79839e-06
-6.17903e-20
3.30261e-20
1.00809e-05
-6.24928e-20
2.944e-20
1.03681e-05
-6.30534e-20
2.70995e-20
1.06598e-05
-6.57891e-20
2.58236e-20
1.09563e-05
-6.72136e-20
2.44178e-20
1.12575e-05
-6.88465e-20
2.36253e-20
1.15635e-05
-7.46167e-20
2.50545e-20
1.18743e-05
-8.02254e-20
2.79813e-20
1.21899e-05
-8.46774e-20
2.98756e-20
1.25106e-05
-8.88485e-20
3.21335e-20
1.28362e-05
-9.48967e-20
3.34368e-20
1.31669e-05
-1.0172e-19
3.44952e-20
1.35028e-05
-1.07396e-19
3.6137e-20
1.38439e-05
-1.13435e-19
3.70131e-20
1.41904e-05
-1.19156e-19
3.88293e-20
1.45422e-05
-1.26619e-19
3.97985e-20
1.48995e-05
-1.35104e-19
4.15971e-20
1.52623e-05
-1.36938e-19
3.86325e-20
1.56309e-05
-1.41836e-19
3.5633e-20
1.60052e-05
-1.43984e-19
3.42589e-20
1.63853e-05
-1.45712e-19
3.13868e-20
1.67714e-05
-1.47235e-19
2.67209e-20
1.71635e-05
-1.48727e-19
2.68899e-20
1.75618e-05
-1.5369e-19
2.44446e-20
1.79663e-05
-1.58052e-19
2.06249e-20
1.83773e-05
-1.59911e-19
2.08781e-20
1.87947e-05
-1.65147e-19
2.09252e-20
1.92187e-05
-1.62009e-19
2.40396e-20
1.96494e-05
-1.63766e-19
2.26803e-20
2.0087e-05
-1.7174e-19
2.59215e-20
2.05315e-05
-1.76934e-19
2.0502e-20
2.0983e-05
-1.82286e-19
1.69524e-20
2.14418e-05
-1.90844e-19
2.12103e-20
2.19079e-05
-1.98874e-19
1.93527e-20
2.23815e-05
-2.08702e-19
1.68875e-20
2.28626e-05
-2.13685e-19
1.26867e-20
2.33515e-05
-2.16044e-19
8.48238e-21
2.38482e-05
-2.16007e-19
5.90005e-21
2.4353e-05
-2.21822e-19
7.33708e-21
2.48658e-05
-2.24562e-19
5.28736e-21
2.5387e-05
-2.29572e-19
1.89758e-21
2.59165e-05
-2.33394e-19
-1.5693e-21
2.64547e-05
-2.38144e-19
-6.3857e-21
2.70015e-05
-2.41607e-19
-7.17359e-21
2.75573e-05
-2.4728e-19
-6.46485e-21
2.81221e-05
-2.50589e-19
-3.42515e-21
2.8696e-05
-2.55655e-19
-6.5586e-21
2.92793e-05
-2.53181e-19
-1.15069e-20
2.98722e-05
-2.61206e-19
-1.84432e-20
3.04747e-05
-2.65537e-19
-1.79325e-20
3.1087e-05
-2.78169e-19
-1.40139e-20
3.17094e-05
-2.85955e-19
-2.35656e-20
3.23419e-05
-2.91723e-19
-2.93335e-20
3.29848e-05
-2.95623e-19
-3.72623e-20
3.36382e-05
-3.05813e-19
-3.86094e-20
3.43024e-05
-3.14458e-19
-4.44491e-20
3.49775e-05
-3.20679e-19
-4.38462e-20
3.56636e-05
-3.30364e-19
-4.85765e-20
3.63611e-05
-3.35715e-19
-5.27009e-20
3.707e-05
-3.29196e-19
-5.85851e-20
3.77906e-05
-3.35131e-19
-6.69357e-20
3.85231e-05
-3.48712e-19
-6.63944e-20
3.92676e-05
-3.40519e-19
-7.83916e-20
4.00244e-05
-3.49637e-19
-8.21701e-20
4.07937e-05
-3.63243e-19
-8.06717e-20
4.15757e-05
-3.66201e-19
-8.5592e-20
4.23706e-05
-3.74606e-19
-8.9978e-20
4.31787e-05
-3.81931e-19
-1.08187e-19
4.40001e-05
-3.92501e-19
-1.09567e-19
4.48351e-05
-4.01297e-19
-1.19116e-19
4.56839e-05
-4.05974e-19
-1.22083e-19
4.65467e-05
-4.10918e-19
-1.28313e-19
4.74238e-05
-4.15178e-19
-1.29645e-19
4.83155e-05
-4.26062e-19
-1.37928e-19
4.92219e-05
-4.2662e-19
-1.56796e-19
5.01433e-05
-4.35344e-19
-1.62129e-19
5.10799e-05
-4.4189e-19
-1.65857e-19
5.20321e-05
-4.44905e-19
-1.75437e-19
5.30001e-05
-4.52468e-19
-1.78387e-19
5.39841e-05
-4.60133e-19
-1.92028e-19
5.49844e-05
-4.65597e-19
-2.02114e-19
5.60013e-05
-4.73775e-19
-2.04191e-19
5.70351e-05
-4.77472e-19
-2.21287e-19
5.8086e-05
-4.94911e-19
-2.26585e-19
5.91543e-05
-4.8561e-19
-2.31575e-19
6.02404e-05
-4.96612e-19
-2.34629e-19
6.13445e-05
-4.92731e-19
-2.30332e-19
6.24668e-05
-5.03577e-19
-2.31527e-19
6.36078e-05
-5.09753e-19
-2.43648e-19
6.47678e-05
-5.08175e-19
-2.5969e-19
6.59469e-05
-5.10573e-19
-2.69883e-19
6.71456e-05
-5.17668e-19
-2.8075e-19
6.83642e-05
-5.3513e-19
-2.82729e-19
6.96031e-05
-5.43263e-19
-3.0072e-19
7.08624e-05
-5.53604e-19
-3.13155e-19
7.21427e-05
-5.57517e-19
-3.11294e-19
7.34442e-05
-5.67014e-19
-3.16452e-19
7.47672e-05
-5.67461e-19
-3.17758e-19
7.61122e-05
-5.67052e-19
-3.26146e-19
7.74795e-05
-5.76065e-19
-3.23226e-19
7.88695e-05
-5.73499e-19
-3.134e-19
8.02825e-05
-5.79997e-19
-3.28959e-19
8.1719e-05
-5.67353e-19
-3.19278e-19
8.31792e-05
-5.75072e-19
-3.33944e-19
8.46637e-05
-5.84213e-19
-3.43187e-19
8.61727e-05
-5.94224e-19
-3.58994e-19
8.77067e-05
-6.11426e-19
-3.79628e-19
8.92662e-05
-6.26505e-19
-3.88086e-19
9.08515e-05
-6.32709e-19
-3.96066e-19
9.2463e-05
-6.35681e-19
-3.93844e-19
9.41012e-05
-6.49048e-19
-4.09659e-19
9.57665e-05
-6.74874e-19
-4.06839e-19
9.74594e-05
-6.81003e-19
-4.0824e-19
9.91803e-05
-6.89179e-19
-4.17241e-19
0.00010093
-6.92458e-19
-4.35561e-19
0.000102708
-7.03908e-19
-4.41842e-19
0.000104516
-7.11515e-19
-4.4785e-19
0.000106353
-7.24165e-19
-4.53207e-19
0.000108221
-7.0627e-19
-4.60641e-19
0.00011012
-7.11249e-19
-4.63988e-19
0.00011205
-7.15818e-19
-4.68722e-19
0.000114012
-6.98936e-19
-4.75974e-19
0.000116007
-6.81831e-19
-4.8147e-19
0.000118034
-6.76029e-19
-4.82844e-19
0.000120095
-6.83992e-19
-4.75854e-19
0.00012219
-6.89221e-19
-4.88193e-19
0.00012432
-6.69318e-19
-5.10412e-19
0.000126484
-6.76993e-19
-5.13374e-19
0.000128684
-6.82517e-19
-5.0831e-19
0.000130921
-7.02843e-19
-5.23243e-19
0.000133194
-6.96094e-19
-5.30918e-19
0.000135505
-6.89753e-19
-5.48424e-19
0.000137854
-6.86456e-19
-5.72828e-19
0.000140241
-7.38784e-19
-5.60462e-19
0.000142668
-7.85686e-19
-5.73794e-19
0.000145134
-7.8044e-19
-5.78896e-19
0.000147642
-7.50343e-19
-5.87879e-19
0.00015019
-7.4706e-19
-5.99702e-19
0.00015278
-7.64469e-19
-6.06917e-19
0.000155413
-7.97184e-19
-5.92202e-19
0.000158089
-8.14879e-19
-6.17385e-19
0.000160809
-8.34786e-19
-6.16128e-19
0.000163573
-7.9526e-19
-6.3931e-19
0.000166383
-8.10211e-19
-6.00888e-19
0.000169239
-8.10692e-19
-6.15179e-19
0.000172142
-7.91775e-19
-6.30404e-19
0.000175092
-7.80041e-19
-6.23846e-19
0.00017809
-7.48417e-19
-6.35922e-19
0.000181138
-7.67968e-19
-6.1427e-19
0.000184235
-7.82964e-19
-6.25905e-19
0.000187383
-7.88111e-19
-6.47134e-19
0.000190582
-7.85916e-19
-6.46834e-19
0.000193833
-7.86783e-19
-6.47849e-19
0.000197138
-7.86081e-19
-6.53419e-19
0.000200496
-7.94621e-19
-6.17764e-19
0.000203909
-7.87192e-19
-6.16683e-19
0.000207378
-7.893e-19
-6.32626e-19
0.000210903
-7.92619e-19
-6.42618e-19
0.000214485
-7.50213e-19
-6.64799e-19
0.000218126
-7.53612e-19
-6.71147e-19
0.000221825
-7.53159e-19
-6.97474e-19
0.000225585
-7.59432e-19
-7.29618e-19
0.000229406
-8.01037e-19
-7.43046e-19
0.000233288
-8.27256e-19
-7.61615e-19
0.000237234
-8.57249e-19