/*--------------------------------*- C++ -*----------------------------------*\
| =========                 |                                                 |
| \\      /  F ield         | OpenFOAM: The Open Source CFD Toolbox           |
|  \\    /   O peration     | Version:  2106                                  |
|   \\  /    A nd           | Website:  www.openfoam.com                      |
|    \\/     M anipulation  |                                                 |
\*---------------------------------------------------------------------------*/
FoamFile
{
    version     2.0;
    format      ascii;
    arch        "LSB;label=32;scalar=64";
    class       volSymmTensorField;
    location    "17000";
    object      turbulenceProperties:R;
}
// * * * * * * * * * * * * * * * * * * * * * * * * * * * * * * * * * * * * * //

dimensions      [0 2 -2 0 0 0 0];

internalField   nonuniform List<symmTensor> 
2560
(
(6.40944e-08 -1.03149e-12 -1.49322e-15 6.40944e-08 4.41492e-28 6.40944e-08)
(6.40944e-08 -1.03149e-12 -1.49322e-15 6.40944e-08 -3.51787e-27 6.40944e-08)
(1.00782e-08 -9.32121e-13 -4.06792e-15 1.00782e-08 -2.95032e-27 1.00782e-08)
(1.00782e-08 -9.32121e-13 -4.06792e-15 1.00782e-08 -3.39953e-28 1.00782e-08)
(7.63138e-09 -2.08191e-12 -1.24968e-14 7.63138e-09 -2.91473e-28 7.63138e-09)
(7.63138e-09 -2.08191e-12 -1.24968e-14 7.63138e-09 -3.78837e-28 7.63138e-09)
(1.89807e-08 -1.09795e-11 -6.68634e-14 1.89807e-08 -5.53174e-29 1.89807e-08)
(1.89807e-08 -1.09795e-11 -6.68634e-14 1.89807e-08 -2.02107e-27 1.89807e-08)
(4.71922e-08 -4.81575e-11 -2.97536e-13 4.71922e-08 -1.45105e-26 4.71922e-08)
(4.71922e-08 -4.81575e-11 -2.97536e-13 4.71922e-08 -8.98583e-27 4.71922e-08)
(1.00033e-07 -1.60712e-10 -1.00738e-12 1.00033e-07 -5.57176e-26 1.00033e-07)
(1.00033e-07 -1.60712e-10 -1.00738e-12 1.00033e-07 -3.04066e-26 1.00033e-07)
(1.87197e-07 -4.38743e-10 -2.79013e-12 1.87197e-07 -1.57419e-25 1.87197e-07)
(1.87197e-07 -4.38743e-10 -2.79013e-12 1.87197e-07 -8.4166e-26 1.87197e-07)
(3.19928e-07 -1.03611e-09 -6.68481e-12 3.19928e-07 -3.80058e-25 3.19928e-07)
(3.19928e-07 -1.03611e-09 -6.68481e-12 3.19928e-07 -2.01416e-25 3.19928e-07)
(5.10971e-07 -2.19604e-09 -1.43745e-11 5.10971e-07 -8.22435e-25 5.10971e-07)
(5.10971e-07 -2.19604e-09 -1.43745e-11 5.10971e-07 -4.32635e-25 5.10971e-07)
(7.74623e-07 -4.28227e-09 -2.84378e-11 7.74623e-07 -1.63946e-24 7.74623e-07)
(7.74623e-07 -4.28227e-09 -2.84378e-11 7.74623e-07 -8.55223e-25 7.74623e-07)
(1.1268e-06 -7.8164e-09 -5.26619e-11 1.1268e-06 -3.06039e-24 1.1268e-06)
(1.1268e-06 -7.8164e-09 -5.26619e-11 1.1268e-06 -1.58183e-24 1.1268e-06)
(1.58513e-06 -1.35224e-08 -9.24297e-11 1.58513e-06 -5.4135e-24 1.58513e-06)
(1.58513e-06 -1.35224e-08 -9.24297e-11 1.58513e-06 -2.77306e-24 1.58513e-06)
(2.16903e-06 -2.23789e-08 -1.55191e-10 2.16903e-06 -9.1573e-24 2.16903e-06)
(2.16903e-06 -2.23789e-08 -1.55191e-10 2.16903e-06 -4.6516e-24 2.16903e-06)
(2.89985e-06 -3.56809e-08 -2.51034e-10 2.89985e-06 -1.4919e-23 2.89985e-06)
(2.89985e-06 -3.56809e-08 -2.51034e-10 2.89985e-06 -7.51545e-24 2.89985e-06)
(3.80097e-06 -5.51112e-08 -3.93373e-10 3.80097e-06 -2.35398e-23 3.80097e-06)
(3.80097e-06 -5.51112e-08 -3.93373e-10 3.80097e-06 -1.17716e-23 3.80097e-06)
(4.8979e-06 -8.28231e-08 -5.99769e-10 4.8979e-06 -3.61313e-23 4.8979e-06)
(4.8979e-06 -8.28231e-08 -5.99769e-10 4.8979e-06 -1.74187e-23 4.8979e-06)
(6.21844e-06 -1.21536e-07 -8.92905e-10 6.21844e-06 -5.4138e-23 6.21844e-06)
(6.21844e-06 -1.21536e-07 -8.92905e-10 6.21844e-06 -2.46111e-23 6.21844e-06)
(7.79281e-06 -1.74644e-07 -1.30173e-09 7.79281e-06 -7.94153e-23 7.79281e-06)
(7.79281e-06 -1.74644e-07 -1.30173e-09 7.79281e-06 -3.49061e-23 7.79281e-06)
(9.65379e-06 -2.46341e-07 -1.86283e-09 9.65379e-06 -1.14353e-22 9.65379e-06)
(9.65379e-06 -2.46341e-07 -1.86283e-09 9.65379e-06 -4.93815e-23 9.65379e-06)
(1.18369e-05 -3.41762e-07 -2.62197e-09 1.18369e-05 -1.61932e-22 1.18369e-05)
(1.18369e-05 -3.41762e-07 -2.62197e-09 1.18369e-05 -6.87175e-23 1.18369e-05)
(1.43803e-05 -4.67141e-07 -3.63595e-09 1.43803e-05 -2.25813e-22 1.43803e-05)
(1.43803e-05 -4.67141e-07 -3.63595e-09 1.43803e-05 -9.4308e-23 1.43803e-05)
(1.73256e-05 -6.29991e-07 -4.97474e-09 1.73256e-05 -3.10552e-22 1.73256e-05)
(1.73256e-05 -6.29991e-07 -4.97474e-09 1.73256e-05 -1.27705e-22 1.73256e-05)
(2.07171e-05 -8.39301e-07 -6.72387e-09 2.07171e-05 -4.21893e-22 2.07171e-05)
(2.07171e-05 -8.39301e-07 -6.72387e-09 2.07171e-05 -1.7048e-22 2.07171e-05)
(2.46028e-05 -1.10576e-06 -8.98726e-09 2.46028e-05 -5.66776e-22 2.46028e-05)
(2.46028e-05 -1.10576e-06 -8.98726e-09 2.46028e-05 -2.25089e-22 2.46028e-05)
(2.90339e-05 -1.442e-06 -1.18903e-08 2.90339e-05 -7.53226e-22 2.90339e-05)
(2.90339e-05 -1.442e-06 -1.18903e-08 2.90339e-05 -2.94076e-22 2.90339e-05)
(3.40654e-05 -1.86285e-06 -1.55837e-08 3.40654e-05 -9.91418e-22 3.40654e-05)
(3.40654e-05 -1.86285e-06 -1.55837e-08 3.40654e-05 -3.80462e-22 3.40654e-05)
(3.97561e-05 -2.38565e-06 -2.02471e-08 3.97561e-05 -1.29332e-21 3.97561e-05)
(3.97561e-05 -2.38565e-06 -2.02471e-08 3.97561e-05 -4.87786e-22 3.97561e-05)
(4.61687e-05 -3.03055e-06 -2.60937e-08 4.61687e-05 -1.6725e-21 4.61687e-05)
(4.61687e-05 -3.03055e-06 -2.60937e-08 4.61687e-05 -6.19872e-22 4.61687e-05)
(5.337e-05 -3.82082e-06 -3.33757e-08 5.337e-05 -2.1464e-21 5.337e-05)
(5.337e-05 -3.82082e-06 -3.33757e-08 5.337e-05 -7.81392e-22 5.337e-05)
(6.14308e-05 -4.78324e-06 -4.2389e-08 6.14308e-05 -2.73497e-21 6.14308e-05)
(6.14308e-05 -4.78324e-06 -4.2389e-08 6.14308e-05 -9.76497e-22 6.14308e-05)
(7.04263e-05 -5.94844e-06 -5.34797e-08 7.04263e-05 -3.46078e-21 7.04263e-05)
(7.04263e-05 -5.94844e-06 -5.34797e-08 7.04263e-05 -1.20861e-21 7.04263e-05)
(8.04361e-05 -7.35126e-06 -6.70502e-08 8.04361e-05 -4.34954e-21 8.04361e-05)
(8.04361e-05 -7.35126e-06 -6.70502e-08 8.04361e-05 -1.48346e-21 8.04361e-05)
(9.1544e-05 -9.03116e-06 -8.35663e-08 9.1544e-05 -5.43211e-21 9.1544e-05)
(9.1544e-05 -9.03116e-06 -8.35663e-08 9.1544e-05 -1.8107e-21 9.1544e-05)
(0.000103838 -1.10325e-05 -1.03564e-07 0.000103838 -6.74266e-21 0.000103838)
(0.000103838 -1.10325e-05 -1.03564e-07 0.000103838 -2.19689e-21 0.000103838)
(0.000117411 -1.34051e-05 -1.27658e-07 0.000117411 -8.32009e-21 0.000117411)
(0.000117411 -1.34051e-05 -1.27658e-07 0.000117411 -2.64932e-21 0.000117411)
(0.000132359 -1.62043e-05 -1.56548e-07 0.000132359 -1.02071e-20 0.000132359)
(0.000132359 -1.62043e-05 -1.56548e-07 0.000132359 -3.17658e-21 0.000132359)
(0.000148782 -1.94912e-05 -1.91025e-07 0.000148782 -1.245e-20 0.000148782)
(0.000148782 -1.94912e-05 -1.91025e-07 0.000148782 -3.78685e-21 0.000148782)
(0.000166785 -2.33331e-05 -2.31982e-07 0.000166785 -1.51076e-20 0.000166785)
(0.000166785 -2.33331e-05 -2.31982e-07 0.000166785 -4.49192e-21 0.000166785)
(0.000186475 -2.78035e-05 -2.80419e-07 0.000186475 -1.82367e-20 0.000186475)
(0.000186475 -2.78035e-05 -2.80419e-07 0.000186475 -5.29722e-21 0.000186475)
(0.000207961 -3.29821e-05 -3.37447e-07 0.000207961 -2.1886e-20 0.000207961)
(0.000207961 -3.29821e-05 -3.37447e-07 0.000207961 -6.21185e-21 0.000207961)
(0.000231356 -3.89543e-05 -4.04294e-07 0.000231356 -2.61352e-20 0.000231356)
(0.000231356 -3.89543e-05 -4.04294e-07 0.000231356 -7.23928e-21 0.000231356)
(0.000256773 -4.58116e-05 -4.82307e-07 0.000256773 -3.10545e-20 0.000256773)
(0.000256773 -4.58116e-05 -4.82307e-07 0.000256773 -8.37195e-21 0.000256773)
(0.000284326 -5.36503e-05 -5.72956e-07 0.000284326 -3.6758e-20 0.000284326)
(0.000284326 -5.36503e-05 -5.72956e-07 0.000284326 -9.61341e-21 0.000284326)
(0.000314129 -6.25714e-05 -6.77825e-07 0.000314129 -4.28803e-20 0.000314129)
(0.000314129 -6.25714e-05 -6.77825e-07 0.000314129 -1.09689e-20 0.000314129)
(0.000346293 -7.26793e-05 -7.98616e-07 0.000346293 -5.05517e-20 0.000346293)
(0.000346293 -7.26793e-05 -7.98616e-07 0.000346293 -1.241e-20 0.000346293)
(0.000380927 -8.40807e-05 -9.37134e-07 0.000380927 -5.86748e-20 0.000380927)
(0.000380927 -8.40807e-05 -9.37134e-07 0.000380927 -1.39391e-20 0.000380927)
(0.000418135 -9.68833e-05 -1.09528e-06 0.000418135 -6.78924e-20 0.000418135)
(0.000418135 -9.68833e-05 -1.09528e-06 0.000418135 -1.5516e-20 0.000418135)
(0.000458017 -0.000111194 -1.27502e-06 0.000458017 -7.81747e-20 0.000458017)
(0.000458017 -0.000111194 -1.27502e-06 0.000458017 -1.70562e-20 0.000458017)
(0.000500662 -0.000127117 -1.4784e-06 0.000500662 -8.94883e-20 0.000500662)
(0.000500662 -0.000127117 -1.4784e-06 0.000500662 -1.8508e-20 0.000500662)
(0.000546154 -0.000144751 -1.70747e-06 0.000546154 -1.01853e-19 0.000546154)
(0.000546154 -0.000144751 -1.70747e-06 0.000546154 -1.98179e-20 0.000546154)
(0.000594561 -0.000164189 -1.96432e-06 0.000594561 -1.15295e-19 0.000594561)
(0.000594561 -0.000164189 -1.96432e-06 0.000594561 -2.08888e-20 0.000594561)
(0.000645943 -0.000185514 -2.25099e-06 0.000645943 -1.29705e-19 0.000645943)
(0.000645943 -0.000185514 -2.25099e-06 0.000645943 -2.1634e-20 0.000645943)
(0.000700343 -0.000208798 -2.56947e-06 0.000700343 -1.45172e-19 0.000700343)
(0.000700343 -0.000208798 -2.56947e-06 0.000700343 -2.22019e-20 0.000700343)
(0.000757788 -0.000234098 -2.92166e-06 0.000757788 -1.61588e-19 0.000757788)
(0.000757788 -0.000234098 -2.92166e-06 0.000757788 -2.26391e-20 0.000757788)
(0.000818288 -0.000261457 -3.30932e-06 0.000818288 -1.78909e-19 0.000818288)
(0.000818288 -0.000261457 -3.30932e-06 0.000818288 -2.26838e-20 0.000818288)
(0.000881835 -0.000290898 -3.73405e-06 0.000881835 -1.96896e-19 0.000881835)
(0.000881835 -0.000290898 -3.73405e-06 0.000881835 -2.22484e-20 0.000881835)
(0.000948401 -0.000322426 -4.19728e-06 0.000948401 -2.15229e-19 0.000948401)
(0.000948401 -0.000322426 -4.19728e-06 0.000948401 -2.0978e-20 0.000948401)
(0.00101794 -0.000356028 -4.70017e-06 0.00101794 -2.34064e-19 0.00101794)
(0.00101794 -0.000356028 -4.70017e-06 0.00101794 -1.87906e-20 0.00101794)
(0.00109037 -0.000391666 -5.24368e-06 0.00109037 -2.53137e-19 0.00109037)
(0.00109037 -0.000391666 -5.24368e-06 0.00109037 -1.61533e-20 0.00109037)
(0.00116562 -0.000429284 -5.82847e-06 0.00116562 -2.72412e-19 0.00116562)
(0.00116562 -0.000429284 -5.82847e-06 0.00116562 -1.26994e-20 0.00116562)
(0.00124357 -0.000468806 -6.45493e-06 0.00124357 -2.91884e-19 0.00124357)
(0.00124357 -0.000468806 -6.45493e-06 0.00124357 -7.80262e-21 0.00124357)
(0.00132409 -0.000510136 -7.12318e-06 0.00132409 -3.11054e-19 0.00132409)
(0.00132409 -0.000510136 -7.12318e-06 0.00132409 -8.65922e-22 0.00132409)
(0.00140704 -0.000553161 -7.83303e-06 0.00140704 -3.29615e-19 0.00140704)
(0.00140704 -0.000553161 -7.83303e-06 0.00140704 7.38152e-21 0.00140704)
(0.00149225 -0.00059775 -8.58404e-06 0.00149225 -3.47498e-19 0.00149225)
(0.00149225 -0.00059775 -8.58404e-06 0.00149225 1.60614e-20 0.00149225)
(0.00157954 -0.000643762 -9.37551e-06 0.00157954 -3.65024e-19 0.00157954)
(0.00157954 -0.000643762 -9.37551e-06 0.00157954 2.64427e-20 0.00157954)
(0.00166873 -0.000691042 -1.02065e-05 0.00166873 -3.81881e-19 0.00166873)
(0.00166873 -0.000691042 -1.02065e-05 0.00166873 3.85474e-20 0.00166873)
(0.00175961 -0.000739429 -1.10758e-05 0.00175961 -3.97411e-19 0.00175961)
(0.00175961 -0.000739429 -1.10758e-05 0.00175961 5.27879e-20 0.00175961)
(0.00185197 -0.000788755 -1.19822e-05 0.00185197 -4.13135e-19 0.00185197)
(0.00185197 -0.000788755 -1.19822e-05 0.00185197 6.90859e-20 0.00185197)
(0.0019456 -0.00083885 -1.29241e-05 0.0019456 -4.27766e-19 0.0019456)
(0.0019456 -0.00083885 -1.29241e-05 0.0019456 8.57455e-20 0.0019456)
(0.00204029 -0.000889544 -1.39e-05 0.00204029 -4.40763e-19 0.00204029)
(0.00204029 -0.000889544 -1.39e-05 0.00204029 1.04186e-19 0.00204029)
(0.0021358 -0.000940669 -1.4908e-05 0.0021358 -4.53745e-19 0.0021358)
(0.0021358 -0.000940669 -1.4908e-05 0.0021358 1.23329e-19 0.0021358)
(0.00223194 -0.000992062 -1.59466e-05 0.00223194 -4.68385e-19 0.00223194)
(0.00223194 -0.000992062 -1.59466e-05 0.00223194 1.44506e-19 0.00223194)
(0.00232848 -0.00104356 -1.70138e-05 0.00232848 -4.82259e-19 0.00232848)
(0.00232848 -0.00104356 -1.70138e-05 0.00232848 1.69628e-19 0.00232848)
(0.00242522 -0.00109503 -1.8108e-05 0.00242522 -4.94239e-19 0.00242522)
(0.00242522 -0.00109503 -1.8108e-05 0.00242522 1.96574e-19 0.00242522)
(0.00252195 -0.00114631 -1.92273e-05 0.00252195 -5.07494e-19 0.00252195)
(0.00252195 -0.00114631 -1.92273e-05 0.00252195 2.23954e-19 0.00252195)
(0.00261849 -0.00119729 -2.03701e-05 0.00261849 -5.18944e-19 0.00261849)
(0.00261849 -0.00119729 -2.03701e-05 0.00261849 2.52382e-19 0.00261849)
(0.00271466 -0.00124783 -2.15347e-05 0.00271466 -5.30773e-19 0.00271466)
(0.00271466 -0.00124783 -2.15347e-05 0.00271466 2.82877e-19 0.00271466)
(0.00281027 -0.00129784 -2.27195e-05 0.00281027 -5.44746e-19 0.00281027)
(0.00281027 -0.00129784 -2.27195e-05 0.00281027 3.15068e-19 0.00281027)
(0.00290519 -0.00134721 -2.39231e-05 0.00290519 -5.58037e-19 0.00290519)
(0.00290519 -0.00134721 -2.39231e-05 0.00290519 3.49029e-19 0.00290519)
(0.00299924 -0.00139586 -2.51441e-05 0.00299924 -5.72002e-19 0.00299924)
(0.00299924 -0.00139586 -2.51441e-05 0.00299924 3.85424e-19 0.00299924)
(0.00309231 -0.00144372 -2.63812e-05 0.00309231 -5.84573e-19 0.00309231)
(0.00309231 -0.00144372 -2.63812e-05 0.00309231 4.26722e-19 0.00309231)
(0.00318427 -0.00149071 -2.76332e-05 0.00318427 -5.99932e-19 0.00318427)
(0.00318427 -0.00149071 -2.76332e-05 0.00318427 4.70225e-19 0.00318427)
(0.003275 -0.00153679 -2.8899e-05 0.003275 -6.19212e-19 0.003275)
(0.003275 -0.00153679 -2.8899e-05 0.003275 5.1097e-19 0.003275)
(0.00336441 -0.0015819 -3.01777e-05 0.00336441 -6.34369e-19 0.00336441)
(0.00336441 -0.0015819 -3.01777e-05 0.00336441 5.4998e-19 0.00336441)
(0.0034524 -0.00162602 -3.14684e-05 0.0034524 -6.48607e-19 0.0034524)
(0.0034524 -0.00162602 -3.14684e-05 0.0034524 5.89592e-19 0.0034524)
(0.00353891 -0.0016691 -3.27704e-05 0.00353891 -6.6777e-19 0.00353891)
(0.00353891 -0.0016691 -3.27704e-05 0.00353891 6.26606e-19 0.00353891)
(0.00362386 -0.00171113 -3.40829e-05 0.00362386 -6.88544e-19 0.00362386)
(0.00362386 -0.00171113 -3.40829e-05 0.00362386 6.65708e-19 0.00362386)
(0.0037072 -0.0017521 -3.54055e-05 0.0037072 -7.07087e-19 0.0037072)
(0.0037072 -0.0017521 -3.54055e-05 0.0037072 7.06836e-19 0.0037072)
(0.00378888 -0.00179199 -3.67375e-05 0.00378888 4.34185e-20 0.00378888)
(0.00378888 -0.00179199 -3.67375e-05 0.00378888 7.42611e-19 0.00378888)
(0.00386886 -0.0018308 -3.80786e-05 0.00386886 1.98167e-18 0.00386886)
(0.00386886 -0.0018308 -3.80786e-05 0.00386886 7.82759e-19 0.00386886)
(0.00394712 -0.00186853 -3.94285e-05 0.00394712 2.64478e-18 0.00394712)
(0.00394712 -0.00186853 -3.94285e-05 0.00394712 8.2785e-19 0.00394712)
(0.00402362 -0.00190518 -4.07869e-05 0.00402362 2.76407e-18 0.00402362)
(0.00402362 -0.00190518 -4.07869e-05 0.00402362 8.69041e-19 0.00402362)
(0.00409837 -0.00194077 -4.21535e-05 0.00409837 2.88557e-18 0.00409837)
(0.00409837 -0.00194077 -4.21535e-05 0.00409837 9.04877e-19 0.00409837)
(0.00417134 -0.0019753 -4.35283e-05 0.00417134 3.00503e-18 0.00417134)
(0.00417134 -0.0019753 -4.35283e-05 0.00417134 9.37664e-19 0.00417134)
(0.00424253 -0.00200878 -4.49111e-05 0.00424253 3.11742e-18 0.00424253)
(0.00424253 -0.00200878 -4.49111e-05 0.00424253 9.75047e-19 0.00424253)
(0.00431195 -0.00204124 -4.63019e-05 0.00431195 3.25537e-18 0.00431195)
(0.00431195 -0.00204124 -4.63019e-05 0.00431195 1.01545e-18 0.00431195)
(0.0043796 -0.00207269 -4.77007e-05 0.0043796 3.39083e-18 0.0043796)
(0.0043796 -0.00207269 -4.77007e-05 0.0043796 1.05929e-18 0.0043796)
(0.00444549 -0.00210315 -4.91075e-05 0.00444549 3.50483e-18 0.00444549)
(0.00444549 -0.00210315 -4.91075e-05 0.00444549 1.10541e-18 0.00444549)
(0.00450963 -0.00213264 -5.05224e-05 0.00450963 3.64033e-18 0.00450963)
(0.00450963 -0.00213264 -5.05224e-05 0.00450963 1.16767e-18 0.00450963)
(0.00457205 -0.00216118 -5.19455e-05 0.00457205 3.80028e-18 0.00457205)
(0.00457205 -0.00216118 -5.19455e-05 0.00457205 1.25184e-18 0.00457205)
(0.00463275 -0.00218879 -5.3377e-05 0.00463275 3.97662e-18 0.00463275)
(0.00463275 -0.00218879 -5.3377e-05 0.00463275 1.32055e-18 0.00463275)
(0.00469178 -0.0022155 -5.48169e-05 0.00469178 4.11098e-18 0.00469178)
(0.00469178 -0.0022155 -5.48169e-05 0.00469178 1.37656e-18 0.00469178)
(0.00474914 -0.00224133 -5.62654e-05 0.00474914 4.21676e-18 0.00474914)
(0.00474914 -0.00224133 -5.62654e-05 0.00474914 1.44722e-18 0.00474914)
(0.00480486 -0.00226629 -5.77228e-05 0.00480486 4.39102e-18 0.00480486)
(0.00480486 -0.00226629 -5.77228e-05 0.00480486 1.49849e-18 0.00480486)
(0.00485898 -0.00229043 -5.91893e-05 0.00485898 4.56151e-18 0.00485898)
(0.00485898 -0.00229043 -5.91893e-05 0.00485898 1.53846e-18 0.00485898)
(0.00491152 -0.00231375 -6.06651e-05 0.00491152 4.70672e-18 0.00491152)
(0.00491152 -0.00231375 -6.06651e-05 0.00491152 1.57666e-18 0.00491152)
(0.00496251 -0.00233628 -6.21504e-05 0.00496251 4.88867e-18 0.00496251)
(0.00496251 -0.00233628 -6.21504e-05 0.00496251 1.61722e-18 0.00496251)
(0.00501198 -0.00235804 -6.36456e-05 0.00501198 5.03316e-18 0.00501198)
(0.00501198 -0.00235804 -6.36456e-05 0.00501198 1.67475e-18 0.00501198)
(0.00505996 -0.00237906 -6.51507e-05 0.00505996 5.15126e-18 0.00505996)
(0.00505996 -0.00237906 -6.51507e-05 0.00505996 1.73552e-18 0.00505996)
(0.00510648 -0.00239935 -6.66662e-05 0.00510648 5.30702e-18 0.00510648)
(0.00510648 -0.00239935 -6.66662e-05 0.00510648 1.80587e-18 0.00510648)
(0.00515157 -0.00241894 -6.81924e-05 0.00515157 5.45688e-18 0.00515157)
(0.00515157 -0.00241894 -6.81924e-05 0.00515157 1.8455e-18 0.00515157)
(0.00519528 -0.00243785 -6.97294e-05 0.00519528 5.58399e-18 0.00519528)
(0.00519528 -0.00243785 -6.97294e-05 0.00519528 1.88581e-18 0.00519528)
(0.00523761 -0.0024561 -7.12775e-05 0.00523761 5.72272e-18 0.00523761)
(0.00523761 -0.0024561 -7.12775e-05 0.00523761 1.97461e-18 0.00523761)
(0.00527862 -0.00247371 -7.28372e-05 0.00527862 5.86488e-18 0.00527862)
(0.00527862 -0.00247371 -7.28372e-05 0.00527862 2.05683e-18 0.00527862)
(0.00531832 -0.0024907 -7.44086e-05 0.00531832 5.98218e-18 0.00531832)
(0.00531832 -0.0024907 -7.44086e-05 0.00531832 2.14632e-18 0.00531832)
(0.00535675 -0.00250708 -7.59921e-05 0.00535675 6.10905e-18 0.00535675)
(0.00535675 -0.00250708 -7.59921e-05 0.00535675 2.25271e-18 0.00535675)
(0.00539395 -0.00252287 -7.7588e-05 0.00539395 6.30113e-18 0.00539395)
(0.00539395 -0.00252287 -7.7588e-05 0.00539395 2.32714e-18 0.00539395)
(0.00542993 -0.0025381 -7.91966e-05 0.00542993 6.44087e-18 0.00542993)
(0.00542993 -0.0025381 -7.91966e-05 0.00542993 2.38552e-18 0.00542993)
(0.00546473 -0.00255278 -8.08181e-05 0.00546473 6.55536e-18 0.00546473)
(0.00546473 -0.00255278 -8.08181e-05 0.00546473 2.44693e-18 0.00546473)
(0.00549838 -0.00256693 -8.2453e-05 0.00549838 6.72416e-18 0.00549838)
(0.00549838 -0.00256693 -8.2453e-05 0.00549838 2.53655e-18 0.00549838)
(0.0055309 -0.00258055 -8.41014e-05 0.0055309 6.85524e-18 0.0055309)
(0.0055309 -0.00258055 -8.41014e-05 0.0055309 2.63047e-18 0.0055309)
(0.00556233 -0.00259368 -8.57637e-05 0.00556233 6.96729e-18 0.00556233)
(0.00556233 -0.00259368 -8.57637e-05 0.00556233 2.69411e-18 0.00556233)
(0.00559269 -0.00260631 -8.74402e-05 0.00559269 7.13591e-18 0.00559269)
(0.00559269 -0.00260631 -8.74402e-05 0.00559269 2.76283e-18 0.00559269)
(0.005622 -0.00261847 -8.91313e-05 0.005622 7.33171e-18 0.005622)
(0.005622 -0.00261847 -8.91313e-05 0.005622 2.85285e-18 0.005622)
(0.0056503 -0.00263018 -9.08371e-05 0.0056503 7.44073e-18 0.0056503)
(0.0056503 -0.00263018 -9.08371e-05 0.0056503 2.93449e-18 0.0056503)
(0.0056776 -0.00264143 -9.25581e-05 0.0056776 7.54758e-18 0.0056776)
(0.0056776 -0.00264143 -9.25581e-05 0.0056776 3.03458e-18 0.0056776)
(0.00570393 -0.00265225 -9.42945e-05 0.00570393 7.74773e-18 0.00570393)
(0.00570393 -0.00265225 -9.42945e-05 0.00570393 3.22355e-18 0.00570393)
(0.00572933 -0.00266266 -9.60465e-05 0.00572933 7.96735e-18 0.00572933)
(0.00572933 -0.00266266 -9.60465e-05 0.00572933 3.39956e-18 0.00572933)
(0.00575379 -0.00267265 -9.78146e-05 0.00575379 8.07939e-18 0.00575379)
(0.00575379 -0.00267265 -9.78146e-05 0.00575379 3.51927e-18 0.00575379)
(0.00577736 -0.00268224 -9.9599e-05 0.00577736 8.11095e-18 0.00577736)
(0.00577736 -0.00268224 -9.9599e-05 0.00577736 3.72566e-18 0.00577736)
(0.00580006 -0.00269144 -0.0001014 0.00580006 8.2298e-18 0.00580006)
(0.00580006 -0.00269144 -0.0001014 0.00580006 3.98236e-18 0.00580006)
(0.00582189 -0.00270027 -0.000103218 0.00582189 8.48802e-18 0.00582189)
(0.00582189 -0.00270027 -0.000103218 0.00582189 4.22612e-18 0.00582189)
(0.00584289 -0.00270874 -0.000105053 0.00584289 8.71702e-18 0.00584289)
(0.00584289 -0.00270874 -0.000105053 0.00584289 4.45326e-18 0.00584289)
(0.00586307 -0.00271684 -0.000106905 0.00586307 8.78491e-18 0.00586307)
(0.00586307 -0.00271684 -0.000106905 0.00586307 4.62908e-18 0.00586307)
(0.00588246 -0.0027246 -0.000108776 0.00588246 8.88803e-18 0.00588246)
(0.00588246 -0.0027246 -0.000108776 0.00588246 4.78429e-18 0.00588246)
(0.00590106 -0.00273202 -0.000110664 0.00590106 9.08239e-18 0.00590106)
(0.00590106 -0.00273202 -0.000110664 0.00590106 4.9489e-18 0.00590106)
(0.00591891 -0.00273911 -0.000112571 0.00591891 9.2325e-18 0.00591891)
(0.00591891 -0.00273911 -0.000112571 0.00591891 5.11796e-18 0.00591891)
(0.00593601 -0.00274588 -0.000114496 0.00593601 9.44938e-18 0.00593601)
(0.00593601 -0.00274588 -0.000114496 0.00593601 5.26924e-18 0.00593601)
(0.00595238 -0.00275234 -0.00011644 0.00595238 9.75126e-18 0.00595238)
(0.00595238 -0.00275234 -0.00011644 0.00595238 5.52433e-18 0.00595238)
(0.00596805 -0.00275849 -0.000118403 0.00596805 9.8359e-18 0.00596805)
(0.00596805 -0.00275849 -0.000118403 0.00596805 5.8902e-18 0.00596805)
(0.00598302 -0.00276434 -0.000120386 0.00598302 9.88768e-18 0.00598302)
(0.00598302 -0.00276434 -0.000120386 0.00598302 6.22734e-18 0.00598302)
(0.0059973 -0.0027699 -0.000122388 0.0059973 1.00636e-17 0.0059973)
(0.0059973 -0.0027699 -0.000122388 0.0059973 6.5051e-18 0.0059973)
(0.00601093 -0.00277517 -0.00012441 0.00601093 1.02603e-17 0.00601093)
(0.00601093 -0.00277517 -0.00012441 0.00601093 6.78465e-18 0.00601093)
(0.0060239 -0.00278017 -0.000126453 0.0060239 1.0467e-17 0.0060239)
(0.0060239 -0.00278017 -0.000126453 0.0060239 6.97276e-18 0.0060239)
(0.00603623 -0.00278489 -0.000128516 0.00603623 1.06253e-17 0.00603623)
(0.00603623 -0.00278489 -0.000128516 0.00603623 7.06106e-18 0.00603623)
(0.00604793 -0.00278934 -0.000130599 0.00604793 1.07293e-17 0.00604793)
(0.00604793 -0.00278934 -0.000130599 0.00604793 7.42467e-18 0.00604793)
(0.00605903 -0.00279354 -0.000132704 0.00605903 1.09424e-17 0.00605903)
(0.00605903 -0.00279354 -0.000132704 0.00605903 7.7721e-18 0.00605903)
(0.00606952 -0.00279748 -0.00013483 0.00606952 1.121e-17 0.00606952)
(0.00606952 -0.00279748 -0.00013483 0.00606952 7.8743e-18 0.00606952)
(0.00607942 -0.00280117 -0.000136977 0.00607942 1.13901e-17 0.00607942)
(0.00607942 -0.00280117 -0.000136977 0.00607942 7.88349e-18 0.00607942)
(0.00608875 -0.00280462 -0.000139146 0.00608875 1.1634e-17 0.00608875)
(0.00608875 -0.00280462 -0.000139146 0.00608875 7.79911e-18 0.00608875)
(0.0060975 -0.00280782 -0.000141336 0.0060975 1.17197e-17 0.0060975)
(0.0060975 -0.00280782 -0.000141336 0.0060975 7.68363e-18 0.0060975)
(0.0061057 -0.00281079 -0.000143549 0.0061057 9.87343e-18 0.0061057)
(0.0061057 -0.00281079 -0.000143549 0.0061057 7.56301e-18 0.0061057)
(0.00611336 -0.00281352 -0.000145785 0.00611336 6.24311e-19 0.00611336)
(0.00611336 -0.00281352 -0.000145785 0.00611336 7.71791e-18 0.00611336)
(0.00612047 -0.00281603 -0.000148042 0.00612047 -3.9269e-18 0.00612047)
(0.00612047 -0.00281603 -0.000148042 0.00612047 7.88897e-18 0.00612047)
(0.00612706 -0.00281831 -0.000150323 0.00612706 -3.63492e-18 0.00612706)
(0.00612706 -0.00281831 -0.000150323 0.00612706 7.89061e-18 0.00612706)
(0.00613312 -0.00282038 -0.000152627 0.00613312 -3.80384e-18 0.00613312)
(0.00613312 -0.00282038 -0.000152627 0.00613312 8.1081e-18 0.00613312)
(0.00613868 -0.00282222 -0.000154954 0.00613868 -4.47608e-18 0.00613868)
(0.00613868 -0.00282222 -0.000154954 0.00613868 8.17819e-18 0.00613868)
(0.00614373 -0.00282386 -0.000157304 0.00614373 -5.06767e-18 0.00614373)
(0.00614373 -0.00282386 -0.000157304 0.00614373 8.21266e-18 0.00614373)
(0.00614828 -0.00282528 -0.000159678 0.00614828 -4.51255e-18 0.00614828)
(0.00614828 -0.00282528 -0.000159678 0.00614828 8.5126e-18 0.00614828)
(0.00615235 -0.0028265 -0.000162076 0.00615235 -4.14041e-18 0.00615235)
(0.00615235 -0.0028265 -0.000162076 0.00615235 8.62235e-18 0.00615235)
(0.00615594 -0.00282751 -0.000164497 0.00615594 -4.35892e-18 0.00615594)
(0.00615594 -0.00282751 -0.000164497 0.00615594 8.68058e-18 0.00615594)
(0.00615905 -0.00282832 -0.000166943 0.00615905 -4.37211e-18 0.00615905)
(0.00615905 -0.00282832 -0.000166943 0.00615905 8.93162e-18 0.00615905)
(0.00616169 -0.00282893 -0.000169414 0.00616169 -4.74595e-18 0.00616169)
(0.00616169 -0.00282893 -0.000169414 0.00616169 9.21779e-18 0.00616169)
(0.00616387 -0.00282935 -0.000171908 0.00616387 -4.74244e-18 0.00616387)
(0.00616387 -0.00282935 -0.000171908 0.00616387 9.49731e-18 0.00616387)
(0.0061656 -0.00282957 -0.000174428 0.0061656 -4.41404e-18 0.0061656)
(0.0061656 -0.00282957 -0.000174428 0.0061656 9.62777e-18 0.0061656)
(0.00616687 -0.0028296 -0.000176972 0.00616687 -4.13005e-18 0.00616687)
(0.00616687 -0.0028296 -0.000176972 0.00616687 9.78397e-18 0.00616687)
(0.0061677 -0.00282944 -0.000179541 0.0061677 -4.04555e-18 0.0061677)
(0.0061677 -0.00282944 -0.000179541 0.0061677 1.01607e-17 0.0061677)
(0.00616809 -0.00282909 -0.000182136 0.00616809 -4.04019e-18 0.00616809)
(0.00616809 -0.00282909 -0.000182136 0.00616809 1.07137e-17 0.00616809)
(0.00616804 -0.00282856 -0.000184755 0.00616804 -3.66783e-18 0.00616804)
(0.00616804 -0.00282856 -0.000184755 0.00616804 1.13604e-17 0.00616804)
(0.00616757 -0.00282784 -0.0001874 0.00616757 -4.05429e-18 0.00616757)
(0.00616757 -0.00282784 -0.0001874 0.00616757 1.19583e-17 0.00616757)
(0.00616666 -0.00282694 -0.00019007 0.00616666 -4.4924e-18 0.00616666)
(0.00616666 -0.00282694 -0.00019007 0.00616666 1.24031e-17 0.00616666)
(0.00616534 -0.00282586 -0.000192766 0.00616534 -4.01822e-18 0.00616534)
(0.00616534 -0.00282586 -0.000192766 0.00616534 1.2912e-17 0.00616534)
(0.00616359 -0.00282459 -0.000195487 0.00616359 -3.53955e-18 0.00616359)
(0.00616359 -0.00282459 -0.000195487 0.00616359 1.35534e-17 0.00616359)
(0.00616143 -0.00282315 -0.000198235 0.00616143 -3.6548e-18 0.00616143)
(0.00616143 -0.00282315 -0.000198235 0.00616143 1.37806e-17 0.00616143)
(0.00615886 -0.00282153 -0.000201008 0.00615886 -3.56491e-18 0.00615886)
(0.00615886 -0.00282153 -0.000201008 0.00615886 1.3677e-17 0.00615886)
(0.00615589 -0.00281974 -0.000203806 0.00615589 -3.35338e-18 0.00615589)
(0.00615589 -0.00281974 -0.000203806 0.00615589 1.35847e-17 0.00615589)
(0.0061525 -0.00281777 -0.000206631 0.0061525 -3.61691e-18 0.0061525)
(0.0061525 -0.00281777 -0.000206631 0.0061525 1.37287e-17 0.0061525)
(0.00614872 -0.00281562 -0.000209482 0.00614872 -3.66601e-18 0.00614872)
(0.00614872 -0.00281562 -0.000209482 0.00614872 1.3824e-17 0.00614872)
(0.00614453 -0.0028133 -0.000212358 0.00614453 -3.75069e-18 0.00614453)
(0.00614453 -0.0028133 -0.000212358 0.00614453 1.32968e-17 0.00614453)
(0.00613995 -0.00281081 -0.000215261 0.00613995 -3.61034e-18 0.00613995)
(0.00613995 -0.00281081 -0.000215261 0.00613995 1.33716e-17 0.00613995)
(0.00613498 -0.00280814 -0.000218189 0.00613498 -3.93159e-18 0.00613498)
(0.00613498 -0.00280814 -0.000218189 0.00613498 1.38942e-17 0.00613498)
(0.00612961 -0.0028053 -0.000221144 0.00612961 -4.40039e-18 0.00612961)
(0.00612961 -0.0028053 -0.000221144 0.00612961 1.42186e-17 0.00612961)
(0.00612385 -0.00280229 -0.000224124 0.00612385 -4.10027e-18 0.00612385)
(0.00612385 -0.00280229 -0.000224124 0.00612385 1.45399e-17 0.00612385)
(0.0061177 -0.00279911 -0.000227131 0.0061177 -4.40968e-18 0.0061177)
(0.0061177 -0.00279911 -0.000227131 0.0061177 1.49023e-17 0.0061177)
(0.00611117 -0.00279576 -0.000230163 0.00611117 -3.88164e-18 0.00611117)
(0.00611117 -0.00279576 -0.000230163 0.00611117 1.59286e-17 0.00611117)
(0.00610424 -0.00279223 -0.00023322 0.00610424 -2.65317e-18 0.00610424)
(0.00610424 -0.00279223 -0.00023322 0.00610424 1.69285e-17 0.00610424)
(0.00609694 -0.00278854 -0.000236304 0.00609694 -2.29455e-18 0.00609694)
(0.00609694 -0.00278854 -0.000236304 0.00609694 1.7556e-17 0.00609694)
(0.00608925 -0.00278467 -0.000239413 0.00608925 -3.17658e-18 0.00608925)
(0.00608925 -0.00278467 -0.000239413 0.00608925 1.79506e-17 0.00608925)
(0.00608118 -0.00278063 -0.000242547 0.00608118 -3.9072e-18 0.00608118)
(0.00608118 -0.00278063 -0.000242547 0.00608118 1.86585e-17 0.00608118)
(0.00607273 -0.00277643 -0.000245707 0.00607273 -3.73232e-18 0.00607273)
(0.00607273 -0.00277643 -0.000245707 0.00607273 1.92229e-17 0.00607273)
(0.00606389 -0.00277205 -0.000248892 0.00606389 -3.0825e-18 0.00606389)
(0.00606389 -0.00277205 -0.000248892 0.00606389 1.96212e-17 0.00606389)
(0.00605468 -0.0027675 -0.000252101 0.00605468 -2.21325e-18 0.00605468)
(0.00605468 -0.0027675 -0.000252101 0.00605468 2.03857e-17 0.00605468)
(0.00604509 -0.00276278 -0.000255336 0.00604509 -2.12332e-18 0.00604509)
(0.00604509 -0.00276278 -0.000255336 0.00604509 2.11815e-17 0.00604509)
(0.00603511 -0.00275788 -0.000258594 0.00603511 -2.99819e-18 0.00603511)
(0.00603511 -0.00275788 -0.000258594 0.00603511 2.1906e-17 0.00603511)
(0.00602476 -0.00275282 -0.000261877 0.00602476 -2.07475e-18 0.00602476)
(0.00602476 -0.00275282 -0.000261877 0.00602476 2.30313e-17 0.00602476)
(0.00601403 -0.00274758 -0.000265184 0.00601403 9.56647e-19 0.00601403)
(0.00601403 -0.00274758 -0.000265184 0.00601403 2.37803e-17 0.00601403)
(0.00600292 -0.00274217 -0.000268515 0.00600292 1.92465e-18 0.00600292)
(0.00600292 -0.00274217 -0.000268515 0.00600292 2.33258e-17 0.00600292)
(0.00599143 -0.00273658 -0.000271869 0.00599143 -1.11326e-18 0.00599143)
(0.00599143 -0.00273658 -0.000271869 0.00599143 2.38131e-17 0.00599143)
(0.00597956 -0.00273082 -0.000275246 0.00597956 7.23878e-19 0.00597956)
(0.00597956 -0.00273082 -0.000275246 0.00597956 2.3629e-17 0.00597956)