/*--------------------------------*- C++ -*----------------------------------*\
| =========                 |                                                 |
| \\      /  F ield         | OpenFOAM: The Open Source CFD Toolbox           |
|  \\    /   O peration     | Version:  2012                                  |
|   \\  /    A nd           | Website:  www.openfoam.com                      |
|    \\/     M anipulation  |                                                 |
\*---------------------------------------------------------------------------*/
FoamFile
{
    version     2.0;
    format      ascii;
    class       volScalarField;
    location    "14000";
    object      k;
}
// * * * * * * * * * * * * * * * * * * * * * * * * * * * * * * * * * * * * * //

dimensions      [0 2 -2 0 0 0 0];


internalField   nonuniform List<scalar> 
2560
(
1.43984e-07
1.43984e-07
2.48295e-08
2.48295e-08
3.29284e-08
3.29284e-08
1.00828e-07
1.00828e-07
2.58417e-07
2.58417e-07
5.50921e-07
5.50921e-07
1.0325e-06
1.0325e-06
1.76542e-06
1.76542e-06
2.82016e-06
2.82016e-06
4.27568e-06
4.27568e-06
6.21983e-06
6.21983e-06
8.74987e-06
8.74987e-06
1.1973e-05
1.1973e-05
1.60067e-05
1.60067e-05
2.09799e-05
2.09799e-05
2.70327e-05
2.70327e-05
3.43178e-05
3.43178e-05
4.30006e-05
4.30006e-05
5.32599e-05
5.32599e-05
6.52887e-05
6.52887e-05
7.92943e-05
7.92943e-05
9.5499e-05
9.5499e-05
0.00011414
0.00011414
0.000135471
0.000135471
0.00015976
0.00015976
0.000187291
0.000187291
0.000218362
0.000218362
0.000253285
0.000253285
0.000292386
0.000292386
0.000336
0.000336
0.000384473
0.000384473
0.000438157
0.000438157
0.000497407
0.000497407
0.000562576
0.000562576
0.000634013
0.000634013
0.000712056
0.000712056
0.000797026
0.000797026
0.000889222
0.000889222
0.000988911
0.000988911
0.00109632
0.00109632
0.00121165
0.00121165
0.00133501
0.00133501
0.0014665
0.0014665
0.00160611
0.00160611
0.00175378
0.00175378
0.00190938
0.00190938
0.00207268
0.00207268
0.00224338
0.00224338
0.00242112
0.00242112
0.00260543
0.00260543
0.00279578
0.00279578
0.00299158
0.00299158
0.00319217
0.00319217
0.00339684
0.00339684
0.00360484
0.00360484
0.00381539
0.00381539
0.00402768
0.00402768
0.0042409
0.0042409
0.00445423
0.00445423
0.00466686
0.00466686
0.00487801
0.00487801
0.0050869
0.0050869
0.0052928
0.0052928
0.00549502
0.00549502
0.00569292
0.00569292
0.00588588
0.00588588
0.00607336
0.00607336
0.00625487
0.00625487
0.00642995
0.00642995
0.00659822
0.00659822
0.00675935
0.00675935
0.00691305
0.00691305
0.00705911
0.00705911
0.00719735
0.00719735
0.00732764
0.00732764
0.0074499
0.0074499
0.00756411
0.00756411
0.00767026
0.00767026
0.00776842
0.00776842
0.00785866
0.00785866
0.00794111
0.00794111
0.0080159
0.0080159
0.00808323
0.00808323
0.00814328
0.00814328
0.00819628
0.00819628
0.00824247
0.00824247
0.00828212
0.00828212
0.00831548
0.00831548
0.00834286
0.00834286
0.00836454
0.00836454
0.00838082
0.00838082
0.00839201
0.00839201
0.00839842
0.00839842
0.00840036
0.00840036
0.00839814
0.00839814
0.00839208
0.00839208
0.00838249
0.00838249
0.00836966
0.00836966
0.0083539
0.0083539
0.00833551
0.00833551
0.00831477
0.00831477
0.00829197
0.00829197
0.00826737
0.00826737
0.00824125
0.00824125
0.00821385
0.00821385
0.00818544
0.00818544
0.00815623
0.00815623
0.00812647
0.00812647
0.00809637
0.00809637
0.00806614
0.00806614
0.00803597
0.00803597
0.00800606
0.00800606
0.00797657
0.00797657
0.00794768
0.00794768
0.00791955
0.00791955
0.00789231
0.00789231
0.00786611
0.00786611
0.00784106
0.00784106
0.00781729
0.00781729
0.00779491
0.00779491
0.007774
0.007774
0.00775466
0.00775466
0.00773696
0.00773696
0.00772098
0.00772098
0.00770676
0.00770676
0.00769437
0.00769437
0.00768385
0.00768385
0.00767522
0.00767522
0.00766852
0.00766852
0.00766377
0.00766377
0.00766097
0.00766097
0.00766012
0.00766012
0.00766123
0.00766123
0.00766429
0.00766429
0.00766927
0.00766927
0.00767614
0.00767614
0.00768489
0.00768489
0.00769548
0.00769548
0.00770785
0.00770785
0.00772197
0.00772197
0.00773779
0.00773779
0.00775524
0.00775524
0.00777426
0.00777426
0.0077948
0.0077948
0.00781678
0.00781678
0.00784013
0.00784013
0.00786477
0.00786477
0.00789062
0.00789062
0.00791761
0.00791761
0.00794565
0.00794565
0.00797464
0.00797464
0.00800451
0.00800451
0.00803517
0.00803517
0.00806651
0.00806651
0.00809845
0.00809845
0.0081309
0.0081309
0.00816376
0.00816376
0.00819694
0.00819694
0.00823034
0.00823034
0.00826387
0.00826387
0.00829744
0.00829744
0.00833097
0.00833097
0.00836435
0.00836435
0.00839752
0.00839752
0.00843039
0.00843039
0.00846289
0.00846289
0.00849494
0.00849494
0.00852648
0.00852648
0.00855743
0.00855743
0.00858775
0.00858775
0.00861738
0.00861738
0.00864626
0.00864626
0.00867434
0.00867434
0.00870157
0.00870157
0.0087279
0.0087279
0.00875329
0.00875329
0.00877769
0.00877769
0.00880106
0.00880106
0.00882336
0.00882336
0.00884456
0.00884456
0.0088646
0.0088646
0.00888347
0.00888347
0.00890114
0.00890114
0.00891758
0.00891758
0.00893276
0.00893276
0.00894668
0.00894668
0.00895931
0.00895931
0.00897065
0.00897065
0.00898069
0.00898069
0.00898941
0.00898941
0.00899682
0.00899682
0.0090029
0.0090029
0.00900766
0.00900766
0.00901108
0.00901108
0.00901315
0.00901315
0.00901388
0.00901388
0.00901326
0.00901326
0.00901128
0.00901128
0.00900795
0.00900795
0.00900325
0.00900325
0.0089972
0.0089972
0.00898979
0.00898979
0.00898104
0.00898104
0.00897096
0.00897096
0.00895956
0.00895956
0.00894687
0.00894687
0.00893292
0.00893292
0.00891773
0.00891773
0.00890134
0.00890134
0.00888377
0.00888377
0.00886505
0.00886505
0.00884521
0.00884521
0.00882427
0.00882427
0.00880225
0.00880225
0.00877919
0.00877919
0.00875511
0.00875511
0.00873005
0.00873005
0.00870404
0.00870404
0.00867711
0.00867711
0.0086493
0.0086493
0.00862065
0.00862065
0.00859118
0.00859118
0.00856094
0.00856094
0.00852993
0.00852993
0.00849817
0.00849817
0.00846568
0.00846568
0.00843246
0.00843246
0.00839851
0.00839851
0.00836385
0.00836385
0.00832847
0.00832847
0.00829241
0.00829241
0.00825567
0.00825567
0.00821827
0.00821827
0.00818022
0.00818022
0.00814153
0.00814153
0.0081022
0.0081022
0.00806223
0.00806223
0.00802161
0.00802161
0.00798033
0.00798033
0.00793836
0.00793836
0.0078957
0.0078957
0.00785232
0.00785232
0.0078082
0.0078082
0.00776334
0.00776334
0.00771775
0.00771775
0.00767146
0.00767146
0.00762448
0.00762448
0.00757687
0.00757687
0.00752865
0.00752865
0.00747987
0.00747987
0.00743054
0.00743054
0.00738067
0.00738067
0.00733021
0.00733021
0.00727912
0.00727912
0.00722735
0.00722735
0.00717483
0.00717483
0.0071215
0.0071215
0.00706734
0.00706734
0.00701236
0.00701236
0.00695656
0.00695656
0.00689995
0.00689995
0.0068425
0.0068425
0.00678417
0.00678417
0.0067249
0.0067249
0.00666462
0.00666462
0.00660325
0.00660325
0.00654075
0.00654075
0.00647707
0.00647707
0.0064122
0.0064122
0.00634614
0.00634614
0.00627892
0.00627892
0.00621055
0.00621055
0.00614111
0.00614111
0.00607067
0.00607067
0.00599931
0.00599931
0.00592713
0.00592713
0.00585422
0.00585422
0.00578068
0.00578068
0.0057066
0.0057066
0.00563205
0.00563205
0.00555712
0.00555712
0.00548187
0.00548187
0.00540636
0.00540636
0.00533067
0.00533067
0.00525488
0.00525488
0.00517904
0.00517904
0.00510319
0.00510319
0.00502734
0.00502734
0.00495148
0.00495148
0.00487557
0.00487557
0.00479957
0.00479957
0.00472337
0.00472337
0.00464691
0.00464691
0.00457017
0.00457017
0.00449321
0.00449321
0.00441617
0.00441617
0.00433924
0.00433924
0.00426257
0.00426257
0.00418634
0.00418634
0.00411067
0.00411067
0.00403569
0.00403569
0.00396152
0.00396152
0.00388831
0.00388831
0.00381624
0.00381624
0.00374551
0.00374551
0.00367632
0.00367632
0.00360889
0.00360889
0.00354348
0.00354348
0.00348041
0.00348041
0.00342008
0.00342008
0.00336291
0.00336291
0.00330937
0.00330937
0.0032599
0.0032599
0.00321497
0.00321497
0.00317509
0.00317509
0.00314072
0.00314072
0.00311236
0.00311236
0.00309045
0.00309045
0.00307542
0.00307542
0.00306771
0.00306771
1.43984e-07
1.43984e-07
2.48295e-08
2.48295e-08
3.29284e-08
3.29284e-08
1.00828e-07
1.00828e-07
2.58417e-07
2.58417e-07
5.50921e-07
5.50921e-07
1.0325e-06
1.0325e-06
1.76542e-06
1.76542e-06
2.82016e-06
2.82016e-06
4.27567e-06
4.27567e-06
6.21982e-06
6.21982e-06
8.74986e-06
8.74986e-06
1.1973e-05
1.1973e-05
1.60067e-05
1.60067e-05
2.09799e-05
2.09799e-05
2.70327e-05
2.70327e-05
3.43178e-05
3.43178e-05
4.30005e-05
4.30005e-05
5.32599e-05
5.32599e-05
6.52886e-05
6.52886e-05
7.92942e-05
7.92942e-05
9.54989e-05
9.54989e-05
0.00011414
0.00011414
0.000135471
0.000135471
0.00015976
0.00015976
0.000187291
0.000187291
0.000218362
0.000218362
0.000253285
0.000253285
0.000292385
0.000292385
0.000336
0.000336
0.000384473
0.000384473
0.000438157
0.000438157
0.000497406
0.000497406
0.000562575
0.000562575
0.000634012
0.000634012
0.000712055
0.000712055
0.000797025
0.000797025
0.000889221
0.000889221
0.00098891
0.00098891
0.00109632
0.00109632
0.00121165
0.00121165
0.00133501
0.00133501
0.0014665
0.0014665
0.00160611
0.00160611
0.00175378
0.00175378
0.00190938
0.00190938
0.00207268
0.00207268
0.00224338
0.00224338
0.00242112
0.00242112
0.00260543
0.00260543
0.00279578
0.00279578
0.00299158
0.00299158
0.00319217
0.00319217
0.00339684
0.00339684
0.00360484
0.00360484
0.00381539
0.00381539
0.00402768
0.00402768
0.0042409
0.0042409
0.00445423
0.00445423
0.00466686
0.00466686
0.004878
0.004878
0.00508689
0.00508689
0.0052928
0.0052928
0.00549502
0.00549502
0.00569291
0.00569291
0.00588588
0.00588588
0.00607336
0.00607336
0.00625486
0.00625486
0.00642995
0.00642995
0.00659822
0.00659822
0.00675934
0.00675934
0.00691305
0.00691305
0.00705911
0.00705911
0.00719734
0.00719734
0.00732763
0.00732763
0.0074499
0.0074499
0.0075641
0.0075641
0.00767026
0.00767026
0.00776842
0.00776842
0.00785866
0.00785866
0.0079411
0.0079411
0.0080159
0.0080159
0.00808322
0.00808322
0.00814327
0.00814327
0.00819627
0.00819627
0.00824247
0.00824247
0.00828211
0.00828211
0.00831548
0.00831548
0.00834285
0.00834285
0.00836453
0.00836453
0.00838081
0.00838081
0.008392
0.008392
0.00839841
0.00839841
0.00840035
0.00840035
0.00839814
0.00839814
0.00839208
0.00839208
0.00838248
0.00838248
0.00836966
0.00836966
0.0083539
0.0083539
0.00833551
0.00833551
0.00831477
0.00831477
0.00829196
0.00829196
0.00826737
0.00826737
0.00824124
0.00824124
0.00821385
0.00821385
0.00818543
0.00818543
0.00815623
0.00815623
0.00812647
0.00812647
0.00809637
0.00809637
0.00806614
0.00806614
0.00803597
0.00803597
0.00800606
0.00800606
0.00797657
0.00797657
0.00794768
0.00794768
0.00791954
0.00791954
0.00789231
0.00789231
0.0078661
0.0078661
0.00784106
0.00784106
0.00781729
0.00781729
0.0077949
0.0077949
0.007774
0.007774
0.00775466
0.00775466
0.00773696
0.00773696
0.00772097
0.00772097
0.00770676
0.00770676
0.00769437
0.00769437
0.00768384
0.00768384
0.00767522
0.00767522
0.00766852
0.00766852
0.00766376
0.00766376
0.00766096
0.00766096
0.00766012
0.00766012
0.00766123
0.00766123
0.00766428
0.00766428
0.00766926
0.00766926
0.00767614
0.00767614
0.00768489
0.00768489
0.00769547
0.00769547
0.00770785
0.00770785
0.00772197
0.00772197
0.00773778
0.00773778
0.00775523
0.00775523
0.00777426
0.00777426
0.0077948
0.0077948
0.00781677
0.00781677
0.00784012
0.00784012
0.00786476
0.00786476
0.00789062
0.00789062
0.00791761
0.00791761
0.00794564
0.00794564
0.00797464
0.00797464
0.00800451
0.00800451
0.00803516
0.00803516
0.00806651
0.00806651
0.00809845
0.00809845
0.0081309
0.0081309
0.00816376
0.00816376
0.00819693
0.00819693
0.00823033
0.00823033
0.00826387
0.00826387
0.00829744
0.00829744
0.00833096
0.00833096
0.00836435
0.00836435
0.00839752
0.00839752
0.00843039
0.00843039
0.00846289
0.00846289
0.00849494
0.00849494
0.00852647
0.00852647
0.00855743
0.00855743
0.00858775
0.00858775
0.00861738
0.00861738
0.00864626
0.00864626
0.00867433
0.00867433
0.00870156
0.00870156
0.0087279
0.0087279
0.00875329
0.00875329
0.00877769
0.00877769
0.00880106
0.00880106
0.00882336
0.00882336
0.00884455
0.00884455
0.0088646
0.0088646
0.00888347
0.00888347
0.00890114
0.00890114
0.00891757
0.00891757
0.00893276
0.00893276
0.00894667
0.00894667
0.00895931
0.00895931
0.00897065
0.00897065
0.00898068
0.00898068
0.00898941
0.00898941
0.00899682
0.00899682
0.0090029
0.0090029
0.00900765
0.00900765
0.00901107
0.00901107
0.00901315
0.00901315
0.00901388
0.00901388
0.00901326
0.00901326
0.00901128
0.00901128
0.00900794
0.00900794
0.00900325
0.00900325
0.00899719
0.00899719
0.00898979
0.00898979
0.00898104
0.00898104
0.00897095
0.00897095
0.00895955
0.00895955
0.00894687
0.00894687
0.00893291
0.00893291
0.00891773
0.00891773
0.00890134
0.00890134
0.00888377
0.00888377
0.00886505
0.00886505
0.0088452
0.0088452
0.00882426
0.00882426
0.00880225
0.00880225
0.00877919
0.00877919
0.00875511
0.00875511
0.00873005
0.00873005
0.00870404
0.00870404
0.00867711
0.00867711
0.0086493
0.0086493
0.00862064
0.00862064
0.00859118
0.00859118
0.00856093
0.00856093
0.00852992
0.00852992
0.00849817
0.00849817
0.00846568
0.00846568
0.00843246
0.00843246
0.00839851
0.00839851
0.00836384
0.00836384
0.00832847
0.00832847
0.0082924
0.0082924
0.00825566
0.00825566
0.00821826
0.00821826
0.00818022
0.00818022
0.00814153
0.00814153
0.0081022
0.0081022
0.00806223
0.00806223
0.0080216
0.0080216
0.00798032
0.00798032
0.00793836
0.00793836
0.0078957
0.0078957
0.00785231
0.00785231
0.00780819
0.00780819
0.00776334
0.00776334
0.00771775
0.00771775
0.00767145
0.00767145
0.00762448
0.00762448
0.00757686
0.00757686
0.00752865
0.00752865
0.00747987
0.00747987
0.00743054
0.00743054
0.00738066
0.00738066
0.0073302
0.0073302
0.00727912
0.00727912
0.00722735
0.00722735
0.00717482
0.00717482
0.0071215
0.0071215
0.00706734
0.00706734
0.00701235
0.00701235
0.00695656
0.00695656
0.00689995
0.00689995
0.0068425
0.0068425
0.00678417
0.00678417
0.0067249
0.0067249
0.00666462
0.00666462
0.00660325
0.00660325
0.00654075
0.00654075
0.00647707
0.00647707
0.0064122
0.0064122
0.00634614
0.00634614
0.00627891
0.00627891
0.00621055
0.00621055
0.00614111
0.00614111
0.00607067
0.00607067
0.00599931
0.00599931
0.00592713
0.00592713
0.00585422
0.00585422
0.00578068
0.00578068
0.0057066
0.0057066
0.00563205
0.00563205
0.00555712
0.00555712
0.00548187
0.00548187
0.00540636
0.00540636
0.00533067
0.00533067
0.00525488
0.00525488
0.00517904
0.00517904
0.00510319
0.00510319
0.00502734
0.00502734
0.00495148
0.00495148
0.00487557
0.00487557
0.00479957
0.00479957
0.00472337
0.00472337
0.00464691
0.00464691
0.00457017
0.00457017
0.00449321
0.00449321
0.00441618
0.00441618
0.00433924
0.00433924
0.00426257
0.00426257
0.00418634
0.00418634
0.00411067
0.00411067
0.00403569
0.00403569
0.00396152
0.00396152
0.00388831
0.00388831
0.00381624
0.00381624
0.00374552
0.00374552
0.00367633
0.00367633
0.00360889
0.00360889
0.00354348
0.00354348
0.00348041
0.00348041
0.00342008
0.00342008
0.00336291
0.00336291
0.00330937
0.00330937
0.0032599
0.0032599
0.00321498
0.00321498
0.00317509
0.00317509
0.00314073
0.00314073
0.00311236
0.00311236
0.00309045
0.00309045
0.00307542
0.00307542
0.00306771
0.00306771
0.00306771
0.00306771
0.00307542
0.00307542
0.00309045
0.00309045
0.00311236
0.00311236
0.00314073
0.00314073
0.00317509
0.00317509
0.00321498
0.00321498
0.0032599
0.0032599
0.00330937
0.00330937
0.00336291
0.00336291
0.00342007
0.00342007
0.0034804
0.0034804
0.00354346
0.00354346
0.00360887
0.00360887
0.00367631
0.00367631
0.00374551
0.00374551
0.00381625
0.00381625
0.00388833
0.00388833
0.00396154
0.00396154
0.00403571
0.00403571
0.0041107
0.0041107
0.00418638
0.00418638
0.00426262
0.00426262
0.00433928
0.00433928
0.00441622
0.00441622
0.00449325
0.00449325
0.0045702
0.0045702
0.00464694
0.00464694
0.00472339
0.00472339
0.00479958
0.00479958
0.00487558
0.00487558
0.00495147
0.00495147
0.00502733
0.00502733
0.00510318
0.00510318
0.00517903
0.00517903
0.00525488
0.00525488
0.00533068
0.00533068
0.00540637
0.00540637
0.00548189
0.00548189
0.00555715
0.00555715
0.00563208
0.00563208
0.00570662
0.00570662
0.00578071
0.00578071
0.00585426
0.00585426
0.00592717
0.00592717
0.00599935
0.00599935
0.00607071
0.00607071
0.00614116
0.00614116
0.0062106
0.0062106
0.00627896
0.00627896
0.00634619
0.00634619
0.00641224
0.00641224
0.0064771
0.0064771
0.00654078
0.00654078
0.00660328
0.00660328
0.00666464
0.00666464
0.00672492
0.00672492
0.00678418
0.00678418
0.0068425
0.0068425
0.00689994
0.00689994
0.00695654
0.00695654
0.00701233
0.00701233
0.00706732
0.00706732
0.00712147
0.00712147
0.0071748
0.0071748
0.00722733
0.00722733
0.00727911
0.00727911
0.00733019
0.00733019
0.00738065
0.00738065
0.00743054
0.00743054
0.00747987
0.00747987
0.00752866
0.00752866
0.00757687
0.00757687
0.00762448
0.00762448
0.00767145
0.00767145
0.00771774
0.00771774
0.00776332
0.00776332
0.00780816
0.00780816
0.00785228
0.00785228
0.00789566
0.00789566
0.00793833
0.00793833
0.00798029
0.00798029
0.00802158
0.00802158
0.00806221
0.00806221
0.00810218
0.00810218
0.00814152
0.00814152
0.00818021
0.00818021
0.00821826
0.00821826
0.00825566
0.00825566
0.0082924
0.0082924
0.00832846
0.00832846
0.00836383
0.00836383
0.00839849
0.00839849
0.00843243
0.00843243
0.00846564
0.00846564
0.00849813
0.00849813
0.00852988
0.00852988
0.00856088
0.00856088
0.00859113
0.00859113
0.00862059
0.00862059
0.00864924
0.00864924
0.00867705
0.00867705
0.00870398
0.00870398
0.00872999
0.00872999
0.00875505
0.00875505
0.00877913
0.00877913
0.0088022
0.0088022
0.00882422
0.00882422
0.00884518
0.00884518
0.00886503
0.00886503
0.00888375
0.00888375
0.00890132
0.00890132
0.00891771
0.00891771
0.0089329
0.0089329
0.00894685
0.00894685
0.00895954
0.00895954
0.00897093
0.00897093
0.00898101
0.00898101
0.00898976
0.00898976
0.00899717
0.00899717
0.00900322
0.00900322
0.00900791
0.00900791
0.00901125
0.00901125
0.00901323
0.00901323
0.00901385
0.00901385
0.00901312
0.00901312
0.00901104
0.00901104
0.00900762
0.00900762
0.00900287
0.00900287
0.00899679
0.00899679
0.00898938
0.00898938
0.00898065
0.00898065
0.00897062
0.00897062
0.00895928
0.00895928
0.00894665
0.00894665
0.00893273
0.00893273
0.00891755
0.00891755
0.00890112
0.00890112
0.00888345
0.00888345
0.00886458
0.00886458
0.00884454
0.00884454
0.00882335
0.00882335
0.00880105
0.00880105
0.00877768
0.00877768
0.00875328
0.00875328
0.00872789
0.00872789
0.00870156
0.00870156
0.00867433
0.00867433
0.00864625
0.00864625
0.00861737
0.00861737
0.00858775
0.00858775
0.00855743
0.00855743
0.00852647
0.00852647
0.00849493
0.00849493
0.00846288
0.00846288
0.00843039
0.00843039
0.00839752
0.00839752
0.00836435
0.00836435
0.00833096
0.00833096
0.00829744
0.00829744
0.00826387
0.00826387
0.00823034
0.00823034
0.00819695
0.00819695
0.00816377
0.00816377
0.00813091
0.00813091
0.00809847
0.00809847
0.00806653
0.00806653
0.00803519
0.00803519
0.00800454
0.00800454
0.00797467
0.00797467
0.00794568
0.00794568
0.00791765
0.00791765
0.00789066
0.00789066
0.00786481
0.00786481
0.00784017
0.00784017
0.00781683
0.00781683
0.00779485
0.00779485
0.00777432
0.00777432
0.0077553
0.0077553
0.00773785
0.00773785
0.00772204
0.00772204
0.00770792
0.00770792
0.00769555
0.00769555
0.00768497
0.00768497
0.00767623
0.00767623
0.00766936
0.00766936
0.00766439
0.00766439
0.00766134
0.00766134
0.00766024
0.00766024
0.00766109
0.00766109
0.0076639
0.0076639
0.00766866
0.00766866
0.00767536
0.00767536
0.007684
0.007684
0.00769453
0.00769453
0.00770694
0.00770694
0.00772116
0.00772116
0.00773716
0.00773716
0.00775487
0.00775487
0.00777423
0.00777423
0.00779515
0.00779515
0.00781755
0.00781755
0.00784134
0.00784134
0.0078664
0.0078664
0.00789263
0.00789263
0.00791989
0.00791989
0.00794805
0.00794805
0.00797695
0.00797695
0.00800645
0.00800645
0.00803638
0.00803638
0.00806656
0.00806656
0.00809681
0.00809681
0.00812692
0.00812692
0.00815669
0.00815669
0.00818591
0.00818591
0.00821433
0.00821433
0.00824174
0.00824174
0.00826788
0.00826788
0.00829249
0.00829249
0.0083153
0.0083153
0.00833605
0.00833605
0.00835444
0.00835444
0.0083702
0.0083702
0.00838303
0.00838303
0.00839263
0.00839263
0.00839869
0.00839869
0.00840091
0.00840091
0.00839899
0.00839899
0.0083926
0.0083926
0.00838145
0.00838145
0.0083652
0.0083652
0.00834354
0.00834354
0.00831618
0.00831618
0.00828281
0.00828281
0.00824316
0.00824316
0.00819697
0.00819697
0.00814397
0.00814397
0.00808393
0.00808393
0.00801661
0.00801661
0.00794182
0.00794182
0.00785938
0.00785938
0.00776913
0.00776913
0.00767096
0.00767096
0.00756478
0.00756478
0.00745055
0.00745055
0.00732824
0.00732824
0.00719792
0.00719792
0.00705965
0.00705965
0.00691356
0.00691356
0.00675982
0.00675982
0.00659865
0.00659865
0.00643035
0.00643035
0.00625525
0.00625525
0.00607372
0.00607372
0.00588622
0.00588622
0.00569324
0.00569324
0.00549532
0.00549532
0.00529308
0.00529308
0.00508716
0.00508716
0.00487824
0.00487824
0.00466708
0.00466708
0.00445443
0.00445443
0.00424108
0.00424108
0.00402785
0.00402785
0.00381554
0.00381554
0.00360498
0.00360498
0.00339697
0.00339697
0.00319229
0.00319229
0.0029917
0.0029917
0.00279589
0.00279589
0.00260553
0.00260553
0.00242121
0.00242121
0.00224347
0.00224347
0.00207276
0.00207276
0.00190945
0.00190945
0.00175385
0.00175385
0.00160617
0.00160617
0.00146656
0.00146656
0.00133507
0.00133507
0.0012117
0.0012117
0.00109637
0.00109637
0.000988951
0.000988951
0.000889258
0.000889258
0.000797059
0.000797059
0.000712085
0.000712085
0.000634039
0.000634039
0.000562599
0.000562599
0.000497427
0.000497427
0.000438175
0.000438175
0.000384489
0.000384489
0.000336014
0.000336014
0.000292398
0.000292398
0.000253295
0.000253295
0.000218371
0.000218371
0.000187299
0.000187299
0.000159767
0.000159767
0.000135477
0.000135477
0.000114145
0.000114145
9.55029e-05
9.55029e-05
7.92976e-05
7.92976e-05
6.52914e-05
6.52914e-05
5.32621e-05
5.32621e-05
4.30024e-05
4.30024e-05
3.43192e-05
3.43192e-05
2.70338e-05
2.70338e-05
2.09807e-05
2.09807e-05
1.60074e-05
1.60074e-05
1.19735e-05
1.19735e-05
8.75023e-06
8.75023e-06
6.22008e-06
6.22008e-06
4.27585e-06
4.27585e-06
2.82028e-06
2.82028e-06
1.7655e-06
1.7655e-06
1.03254e-06
1.03254e-06
5.50943e-07
5.50943e-07
2.58428e-07
2.58428e-07
1.00832e-07
1.00832e-07
3.29295e-08
3.29295e-08
2.48297e-08
2.48297e-08
1.43985e-07
1.43985e-07
0.00306771
0.00306771
0.00307542
0.00307542
0.00309045
0.00309045
0.00311237
0.00311237
0.00314073
0.00314073
0.00317509
0.00317509
0.00321498
0.00321498
0.0032599
0.0032599
0.00330937
0.00330937
0.00336291
0.00336291
0.00342007
0.00342007
0.0034804
0.0034804
0.00354346
0.00354346
0.00360888
0.00360888
0.00367631
0.00367631
0.00374551
0.00374551
0.00381625
0.00381625
0.00388833
0.00388833
0.00396154
0.00396154
0.00403572
0.00403572
0.0041107
0.0041107
0.00418638
0.00418638
0.00426262
0.00426262
0.00433928
0.00433928
0.00441622
0.00441622
0.00449325
0.00449325
0.0045702
0.0045702
0.00464694
0.00464694
0.00472339
0.00472339
0.00479958
0.00479958
0.00487558
0.00487558
0.00495147
0.00495147
0.00502733
0.00502733
0.00510318
0.00510318
0.00517903
0.00517903
0.00525488
0.00525488
0.00533068
0.00533068
0.00540637
0.00540637
0.00548189
0.00548189
0.00555715
0.00555715
0.00563208
0.00563208
0.00570662
0.00570662
0.00578071
0.00578071
0.00585426
0.00585426
0.00592717
0.00592717
0.00599935
0.00599935
0.00607071
0.00607071
0.00614116
0.00614116
0.0062106
0.0062106
0.00627896
0.00627896
0.00634619
0.00634619
0.00641224
0.00641224
0.0064771
0.0064771
0.00654078
0.00654078
0.00660328
0.00660328
0.00666464
0.00666464
0.00672491
0.00672491
0.00678418
0.00678418
0.0068425
0.0068425
0.00689994
0.00689994
0.00695654
0.00695654
0.00701233
0.00701233
0.00706731
0.00706731
0.00712147
0.00712147
0.0071748
0.0071748
0.00722733
0.00722733
0.00727911
0.00727911
0.00733019
0.00733019
0.00738065
0.00738065
0.00743053
0.00743053
0.00747987
0.00747987
0.00752865
0.00752865
0.00757687
0.00757687
0.00762448
0.00762448
0.00767145
0.00767145
0.00771774
0.00771774
0.00776331
0.00776331
0.00780816
0.00780816
0.00785227
0.00785227
0.00789566
0.00789566
0.00793832
0.00793832
0.00798029
0.00798029
0.00802158
0.00802158
0.00806221
0.00806221
0.00810218
0.00810218
0.00814152
0.00814152
0.00818021
0.00818021
0.00821826
0.00821826
0.00825566
0.00825566
0.0082924
0.0082924
0.00832846
0.00832846
0.00836383
0.00836383
0.00839849
0.00839849
0.00843243
0.00843243
0.00846564
0.00846564
0.00849812
0.00849812
0.00852987
0.00852987
0.00856088
0.00856088
0.00859112
0.00859112
0.00862059
0.00862059
0.00864924
0.00864924
0.00867705
0.00867705
0.00870397
0.00870397
0.00872999
0.00872999
0.00875505
0.00875505
0.00877913
0.00877913
0.0088022
0.0088022
0.00882422
0.00882422
0.00884517
0.00884517
0.00886502
0.00886502
0.00888375
0.00888375
0.00890132
0.00890132
0.00891771
0.00891771
0.0089329
0.0089329
0.00894685
0.00894685
0.00895953
0.00895953
0.00897093
0.00897093
0.00898101
0.00898101
0.00898976
0.00898976
0.00899716
0.00899716
0.00900321
0.00900321
0.00900791
0.00900791
0.00901125
0.00901125
0.00901322
0.00901322
0.00901384
0.00901384
0.00901311
0.00901311
0.00901104
0.00901104
0.00900762
0.00900762
0.00900287
0.00900287
0.00899678
0.00899678
0.00898937
0.00898937
0.00898065
0.00898065
0.00897061
0.00897061
0.00895928
0.00895928
0.00894664
0.00894664
0.00893273
0.00893273
0.00891755
0.00891755
0.00890111
0.00890111
0.00888345
0.00888345
0.00886458
0.00886458
0.00884453
0.00884453
0.00882334
0.00882334
0.00880104
0.00880104
0.00877767
0.00877767
0.00875327
0.00875327
0.00872788
0.00872788
0.00870155
0.00870155
0.00867432
0.00867432
0.00864625
0.00864625
0.00861737
0.00861737
0.00858774
0.00858774
0.00855742
0.00855742
0.00852646
0.00852646
0.00849493
0.00849493
0.00846288
0.00846288
0.00843038
0.00843038
0.00839751
0.00839751
0.00836434
0.00836434
0.00833096
0.00833096
0.00829744
0.00829744
0.00826387
0.00826387
0.00823034
0.00823034
0.00819694
0.00819694
0.00816377
0.00816377
0.00813091
0.00813091
0.00809847
0.00809847
0.00806653
0.00806653
0.00803518
0.00803518
0.00800453
0.00800453
0.00797467
0.00797467
0.00794567
0.00794567
0.00791764
0.00791764
0.00789066
0.00789066
0.00786481
0.00786481
0.00784017
0.00784017
0.00781683
0.00781683
0.00779485
0.00779485
0.00777432
0.00777432
0.00775529
0.00775529
0.00773785
0.00773785
0.00772204
0.00772204
0.00770792
0.00770792
0.00769555
0.00769555
0.00768497
0.00768497
0.00767622
0.00767622
0.00766935
0.00766935
0.00766438
0.00766438
0.00766134
0.00766134
0.00766023
0.00766023
0.00766108
0.00766108
0.00766389
0.00766389
0.00766865
0.00766865
0.00767536
0.00767536
0.007684
0.007684
0.00769453
0.00769453
0.00770693
0.00770693
0.00772116
0.00772116
0.00773716
0.00773716
0.00775487
0.00775487
0.00777422
0.00777422
0.00779515
0.00779515
0.00781755
0.00781755
0.00784133
0.00784133
0.0078664
0.0078664
0.00789262
0.00789262
0.00791988
0.00791988
0.00794804
0.00794804
0.00797695
0.00797695
0.00800645
0.00800645
0.00803638
0.00803638
0.00806656
0.00806656
0.0080968
0.0080968
0.00812692
0.00812692
0.00815669
0.00815669
0.0081859
0.0081859
0.00821433
0.00821433
0.00824174
0.00824174
0.00826788
0.00826788
0.00829248
0.00829248
0.0083153
0.0083153
0.00833604
0.00833604
0.00835444
0.00835444
0.0083702
0.0083702
0.00838303
0.00838303
0.00839262
0.00839262
0.00839869
0.00839869
0.00840091
0.00840091
0.00839898
0.00839898
0.0083926
0.0083926
0.00838144
0.00838144
0.0083652
0.0083652
0.00834354
0.00834354
0.00831617
0.00831617
0.0082828
0.0082828
0.00824316
0.00824316
0.00819697
0.00819697
0.00814397
0.00814397
0.00808393
0.00808393
0.00801661
0.00801661
0.00794182
0.00794182
0.00785938
0.00785938
0.00776913
0.00776913
0.00767096
0.00767096
0.00756478
0.00756478
0.00745054
0.00745054
0.00732824
0.00732824
0.00719791
0.00719791
0.00705964
0.00705964
0.00691355
0.00691355
0.00675981
0.00675981
0.00659865
0.00659865
0.00643035
0.00643035
0.00625525
0.00625525
0.00607372
0.00607372
0.00588622
0.00588622
0.00569323
0.00569323
0.00549532
0.00549532
0.00529308
0.00529308
0.00508715
0.00508715
0.00487824
0.00487824
0.00466707
0.00466707
0.00445442
0.00445442
0.00424108
0.00424108
0.00402784
0.00402784
0.00381554
0.00381554
0.00360498
0.00360498
0.00339697
0.00339697
0.00319229
0.00319229
0.00299169
0.00299169
0.00279589
0.00279589
0.00260553
0.00260553
0.00242121
0.00242121
0.00224347
0.00224347
0.00207276
0.00207276
0.00190945
0.00190945
0.00175385
0.00175385
0.00160617
0.00160617
0.00146656
0.00146656
0.00133507
0.00133507
0.0012117
0.0012117
0.00109637
0.00109637
0.00098895
0.00098895
0.000889257
0.000889257
0.000797058
0.000797058
0.000712085
0.000712085
0.000634039
0.000634039
0.000562599
0.000562599
0.000497427
0.000497427
0.000438175
0.000438175
0.000384489
0.000384489
0.000336013
0.000336013
0.000292397
0.000292397
0.000253295
0.000253295
0.000218371
0.000218371
0.000187299
0.000187299
0.000159767
0.000159767
0.000135477
0.000135477
0.000114145
0.000114145
9.55029e-05
9.55029e-05
7.92975e-05
7.92975e-05
6.52914e-05
6.52914e-05
5.32621e-05
5.32621e-05
4.30023e-05
4.30023e-05
3.43192e-05
3.43192e-05
2.70338e-05
2.70338e-05
2.09807e-05
2.09807e-05
1.60074e-05
1.60074e-05
1.19735e-05
1.19735e-05
8.75022e-06
8.75022e-06
6.22007e-06
6.22007e-06
4.27585e-06
4.27585e-06
2.82028e-06
2.82028e-06
1.7655e-06
1.7655e-06
1.03254e-06
1.03254e-06
5.50943e-07
5.50943e-07
2.58428e-07
2.58428e-07
1.00832e-07
1.00832e-07
3.29295e-08
3.29295e-08
2.48297e-08
2.48297e-08
1.43985e-07
1.43985e-07
)
;

boundaryField
{
    walls
    {
        type            kqRWallFunction;
        value           nonuniform List<scalar> 8(1.43984e-07 1.43984e-07 1.43984e-07 1.43984e-07 1.43985e-07 1.43985e-07 1.43985e-07 1.43985e-07);
    }
    inlet
    {
        type            cyclic;
    }
    outlet
    {
        type            cyclic;
    }
    sides
    {
        type            empty;
    }
}


// ************************************************************************* //
