/*--------------------------------*- C++ -*----------------------------------*\
| =========                 |                                                 |
| \\      /  F ield         | OpenFOAM: The Open Source CFD Toolbox           |
|  \\    /   O peration     | Version:  2012                                  |
|   \\  /    A nd           | Website:  www.openfoam.com                      |
|    \\/     M anipulation  |                                                 |
\*---------------------------------------------------------------------------*/
FoamFile
{
    version     2.0;
    format      ascii;
    class       volSymmTensorField;
    location    "14000";
    object      turbulenceProperties:R;
}
// * * * * * * * * * * * * * * * * * * * * * * * * * * * * * * * * * * * * * //

dimensions      [0 2 -2 0 0 0 0];


internalField   nonuniform List<symmTensor> 
2560
(
(9.59891e-08 -2.74527e-12 -3.97413e-15 9.59891e-08 -1.3757e-19 9.59891e-08)
(9.59891e-08 -2.74527e-12 -3.97413e-15 9.59891e-08 -1.35733e-19 9.59891e-08)
(1.6553e-08 -2.7207e-12 -1.18736e-14 1.6553e-08 -1.22828e-20 1.6553e-08)
(1.6553e-08 -2.7207e-12 -1.18736e-14 1.6553e-08 -1.22329e-20 1.6553e-08)
(2.19523e-08 -1.06426e-11 -6.3883e-14 2.19523e-08 -2.68844e-20 2.19523e-08)
(2.19523e-08 -1.06426e-11 -6.3883e-14 2.19523e-08 -2.69603e-20 2.19523e-08)
(6.72189e-08 -6.90981e-11 -4.20793e-13 6.72189e-08 -2.27445e-19 6.72189e-08)
(6.72189e-08 -6.90981e-11 -4.20793e-13 6.72189e-08 -2.2397e-19 6.72189e-08)
(1.72278e-07 -3.12403e-10 -1.93012e-12 1.72278e-07 -1.42136e-18 1.72278e-07)
(1.72278e-07 -3.12403e-10 -1.93012e-12 1.72278e-07 -1.40392e-18 1.72278e-07)
(3.67281e-07 -1.04851e-09 -6.57216e-12 3.67281e-07 -6.86289e-18 3.67281e-07)
(3.67281e-07 -1.04851e-09 -6.57216e-12 3.67281e-07 -6.80904e-18 3.67281e-07)
(6.88332e-07 -2.86645e-09 -1.82282e-11 6.88332e-07 -2.72027e-17 6.88332e-07)
(6.88332e-07 -2.86645e-09 -1.82282e-11 6.88332e-07 -2.70516e-17 6.88332e-07)
(1.17695e-06 -6.77175e-09 -4.36879e-11 1.17695e-06 -9.21346e-17 1.17695e-06)
(1.17695e-06 -6.77175e-09 -4.36879e-11 1.17695e-06 -9.1721e-17 1.17695e-06)
(1.88011e-06 -1.43532e-08 -9.39445e-11 1.88011e-06 -2.74662e-16 1.88011e-06)
(1.88011e-06 -1.43532e-08 -9.39445e-11 1.88011e-06 -2.73836e-16 1.88011e-06)
(2.85045e-06 -2.79852e-08 -1.85828e-10 2.85045e-06 -7.37166e-16 2.85045e-06)
(2.85045e-06 -2.79852e-08 -1.85828e-10 2.85045e-06 -7.35211e-16 2.85045e-06)
(4.14655e-06 -5.10693e-08 -3.44033e-10 4.14655e-06 -1.81313e-15 4.14655e-06)
(4.14655e-06 -5.10693e-08 -3.44033e-10 4.14655e-06 -1.80926e-15 4.14655e-06)
(5.83325e-06 -8.83203e-08 -6.03611e-10 5.83325e-06 -4.14402e-15 5.83325e-06)
(5.83325e-06 -8.83203e-08 -6.03611e-10 5.83325e-06 -4.13717e-15 5.83325e-06)
(7.98198e-06 -1.46101e-07 -1.01299e-09 7.98198e-06 -8.89906e-15 7.98198e-06)
(7.98198e-06 -1.46101e-07 -1.01299e-09 7.98198e-06 -8.886e-15 7.98198e-06)
(1.06712e-05 -2.32811e-07 -1.6376e-09 1.06712e-05 -1.18962e-14 1.06712e-05)
(1.06712e-05 -2.32811e-07 -1.6376e-09 1.06712e-05 -1.14803e-14 1.06712e-05)
(1.39866e-05 -3.59334e-07 -2.56421e-09 1.39866e-05 -7.20903e-15 1.39866e-05)
(1.39866e-05 -3.59334e-07 -2.56421e-09 1.39866e-05 -7.09137e-15 1.39866e-05)
(1.80218e-05 -5.39545e-07 -3.90601e-09 1.80218e-05 -5.45909e-15 1.80218e-05)
(1.80218e-05 -5.39545e-07 -3.90601e-09 1.80218e-05 -5.35229e-15 1.80218e-05)
(2.28785e-05 -7.90893e-07 -5.80858e-09 2.28785e-05 -8.12169e-15 2.28785e-05)
(2.28785e-05 -7.90893e-07 -5.80858e-09 2.28785e-05 -7.96285e-15 2.28785e-05)
(2.8667e-05 -1.13504e-06 -8.45681e-09 2.8667e-05 -4.09535e-14 2.8667e-05)
(2.8667e-05 -1.13504e-06 -8.45681e-09 2.8667e-05 -4.34739e-14 2.8667e-05)
(3.55066e-05 -1.59856e-06 -1.20828e-08 3.55066e-05 -1.15432e-13 3.55066e-05)
(3.55066e-05 -1.59856e-06 -1.20828e-08 3.55066e-05 -1.1909e-13 3.55066e-05)
(4.35258e-05 -2.21377e-06 -1.69751e-08 4.35258e-05 -1.94695e-13 4.35258e-05)
(4.35258e-05 -2.21377e-06 -1.69751e-08 4.35258e-05 -1.94534e-13 4.35258e-05)
(5.28629e-05 -3.01954e-06 -2.34886e-08 5.28629e-05 -2.9917e-13 5.28629e-05)
(5.28629e-05 -3.01954e-06 -2.34886e-08 5.28629e-05 -2.98945e-13 5.28629e-05)
(6.3666e-05 -4.06218e-06 -3.2056e-08 6.3666e-05 -4.50857e-13 6.3666e-05)
(6.3666e-05 -4.06218e-06 -3.2056e-08 6.3666e-05 -4.50547e-13 6.3666e-05)
(7.60936e-05 -5.39647e-06 -4.32008e-08 7.60936e-05 -6.67749e-13 7.60936e-05)
(7.60936e-05 -5.39647e-06 -4.32008e-08 7.60936e-05 -6.67328e-13 7.60936e-05)
(9.03143e-05 -7.08658e-06 -5.75503e-08 9.03143e-05 -9.74038e-13 9.03143e-05)
(9.03143e-05 -7.08658e-06 -5.75503e-08 9.03143e-05 -9.73479e-13 9.03143e-05)
(0.000106507 -9.20711e-06 -7.58507e-08 0.000106507 -1.39987e-12 0.000106507)
(0.000106507 -9.20711e-06 -7.58507e-08 0.000106507 -1.39912e-12 0.000106507)
(0.000124861 -1.1844e-05 -9.89825e-08 0.000124861 -1.98257e-12 0.000124861)
(0.000124861 -1.1844e-05 -9.89825e-08 0.000124861 -1.98158e-12 0.000124861)
(0.000145575 -1.50957e-05 -1.27977e-07 0.000145575 -2.77186e-12 0.000145575)
(0.000145575 -1.50957e-05 -1.27977e-07 0.000145575 -2.77059e-12 0.000145575)
(0.000168857 -1.90736e-05 -1.64031e-07 0.000168857 -3.83119e-12 0.000168857)
(0.000168857 -1.90736e-05 -1.64031e-07 0.000168857 -3.82953e-12 0.000168857)
(0.000194924 -2.39031e-05 -2.08526e-07 0.000194924 -5.23287e-12 0.000194924)
(0.000194924 -2.39031e-05 -2.08526e-07 0.000194924 -5.23078e-12 0.000194924)
(0.000224 -2.97238e-05 -2.6304e-07 0.000224 -7.06234e-12 0.000224)
(0.000224 -2.97238e-05 -2.6304e-07 0.000224 -7.05968e-12 0.000224)
(0.000256315 -3.66901e-05 -3.29361e-07 0.000256315 -9.43047e-12 0.000256315)
(0.000256315 -3.66901e-05 -3.29361e-07 0.000256315 -9.42723e-12 0.000256315)
(0.000292105 -4.49706e-05 -4.09502e-07 0.000292105 -1.24697e-11 0.000292105)
(0.000292105 -4.49706e-05 -4.09502e-07 0.000292105 -1.24656e-11 0.000292105)
(0.000331605 -5.47481e-05 -5.05705e-07 0.000331605 -1.63168e-11 0.000331605)
(0.000331605 -5.47481e-05 -5.05705e-07 0.000331605 -1.63116e-11 0.000331605)
(0.000375051 -6.62181e-05 -6.20442e-07 0.000375051 -2.11262e-11 0.000375051)
(0.000375051 -6.62181e-05 -6.20442e-07 0.000375051 -2.11198e-11 0.000375051)
(0.000422675 -7.95875e-05 -7.56421e-07 0.000422675 -2.70956e-11 0.000422675)
(0.000422675 -7.95875e-05 -7.56421e-07 0.000422675 -2.70878e-11 0.000422675)
(0.000474704 -9.50725e-05 -9.16568e-07 0.000474704 -3.44339e-11 0.000474704)
(0.000474704 -9.50725e-05 -9.16568e-07 0.000474704 -3.44249e-11 0.000474704)
(0.000531351 -0.000112896 -1.10401e-06 0.000531351 -4.33236e-11 0.000531351)
(0.000531351 -0.000112896 -1.10401e-06 0.000531351 -4.33126e-11 0.000531351)
(0.000592814 -0.000133282 -1.32207e-06 0.000592814 -5.39583e-11 0.000592814)
(0.000592814 -0.000133282 -1.32207e-06 0.000592814 -5.39449e-11 0.000592814)
(0.000659274 -0.000156456 -1.57419e-06 0.000659274 -6.65942e-11 0.000659274)
(0.000659274 -0.000156456 -1.57419e-06 0.000659274 -6.65778e-11 0.000659274)
(0.000730883 -0.000182636 -1.86393e-06 0.000730883 -8.14713e-11 0.000730883)
(0.000730883 -0.000182636 -1.86393e-06 0.000730883 -8.14525e-11 0.000730883)
(0.000807765 -0.000212029 -2.1949e-06 0.000807765 -9.87156e-11 0.000807765)
(0.000807765 -0.000212029 -2.1949e-06 0.000807765 -9.86939e-11 0.000807765)
(0.00089001 -0.000244825 -2.57069e-06 0.00089001 -1.18416e-10 0.00089001)
(0.00089001 -0.000244825 -2.57069e-06 0.00089001 -1.18405e-10 0.00089001)
(0.000977666 -0.000281191 -2.99479e-06 0.000977666 -1.40778e-10 0.000977666)
(0.000977666 -0.000281191 -2.99479e-06 0.000977666 -1.40782e-10 0.000977666)
(0.00107074 -0.000321267 -3.47057e-06 0.00107074 -1.65948e-10 0.00107074)
(0.00107074 -0.000321267 -3.47057e-06 0.00107074 -1.65953e-10 0.00107074)
(0.00116919 -0.000365158 -4.00112e-06 0.00116919 -1.93824e-10 0.00116919)
(0.00116919 -0.000365158 -4.00112e-06 0.00116919 -1.93829e-10 0.00116919)
(0.00127292 -0.000412929 -4.58923e-06 0.00127292 -2.24357e-10 0.00127292)
(0.00127292 -0.000412929 -4.58923e-06 0.00127292 -2.24362e-10 0.00127292)
(0.00138179 -0.000464601 -5.23731e-06 0.00138179 -2.57797e-10 0.00138179)
(0.00138179 -0.000464601 -5.23731e-06 0.00138179 -2.57801e-10 0.00138179)
(0.00149559 -0.000520151 -5.94727e-06 0.00149559 -2.94159e-10 0.00149559)
(0.00149559 -0.000520151 -5.94727e-06 0.00149559 -2.94164e-10 0.00149559)
(0.00161408 -0.000579503 -6.72052e-06 0.00161408 -3.32123e-10 0.00161408)
(0.00161408 -0.000579503 -6.72052e-06 0.00161408 -3.32135e-10 0.00161408)
(0.00173695 -0.000642532 -7.55786e-06 0.00173695 -3.72579e-10 0.00173695)
(0.00173695 -0.000642532 -7.55786e-06 0.00173695 -3.72527e-10 0.00173695)
(0.00186385 -0.000709064 -8.45953e-06 0.00186385 -4.16756e-10 0.00186385)
(0.00186385 -0.000709064 -8.45953e-06 0.00186385 -4.16763e-10 0.00186385)
(0.00199439 -0.000778875 -9.42505e-06 0.00199439 -4.62573e-10 0.00199439)
(0.00199439 -0.000778875 -9.42505e-06 0.00199439 -4.62579e-10 0.00199439)
(0.00212811 -0.000851695 -1.04533e-05 0.00212811 -5.09728e-10 0.00212811)
(0.00212811 -0.000851695 -1.04533e-05 0.00212811 -5.09649e-10 0.00212811)
(0.00226456 -0.000927215 -1.15426e-05 0.00226456 -5.5967e-10 0.00226456)
(0.00226456 -0.000927215 -1.15426e-05 0.00226456 -5.5968e-10 0.00226456)
(0.00240323 -0.00100509 -1.26905e-05 0.00240323 -6.12323e-10 0.00240323)
(0.00240323 -0.00100509 -1.26905e-05 0.00240323 -6.12329e-10 0.00240323)
(0.00254359 -0.00108493 -1.38941e-05 0.00254359 -6.66948e-10 0.00254359)
(0.00254359 -0.00108493 -1.38941e-05 0.00254359 -6.66849e-10 0.00254359)
(0.00268512 -0.00116636 -1.51498e-05 0.00268512 -7.22563e-10 0.00268512)
(0.00268512 -0.00116636 -1.51498e-05 0.00268512 -7.22566e-10 0.00268512)
(0.00282727 -0.00124893 -1.64538e-05 0.00282727 -7.8137e-10 0.00282727)
(0.00282727 -0.00124893 -1.64538e-05 0.00282727 -7.81239e-10 0.00282727)
(0.00296949 -0.00133224 -1.78017e-05 0.00296949 -8.41943e-10 0.00296949)
(0.00296949 -0.00133224 -1.78017e-05 0.00296949 -8.41966e-10 0.00296949)
(0.00311124 -0.00141584 -1.91886e-05 0.00311124 -9.10436e-10 0.00311124)
(0.00311124 -0.00141584 -1.91886e-05 0.00311124 -9.1044e-10 0.00311124)
(0.003252 -0.00149931 -2.06097e-05 0.00325201 -9.77236e-10 0.003252)
(0.003252 -0.00149931 -2.06097e-05 0.00325201 -9.77241e-10 0.003252)
(0.00339126 -0.00158221 -2.20596e-05 0.00339126 -1.04606e-09 0.00339126)
(0.00339126 -0.00158221 -2.20596e-05 0.00339126 -1.04588e-09 0.00339126)
(0.00352853 -0.00166416 -2.35331e-05 0.00352853 -1.11892e-09 0.00352853)
(0.00352853 -0.00166416 -2.35331e-05 0.00352853 -1.11892e-09 0.00352853)
(0.00366335 -0.00174474 -2.50248e-05 0.00366335 -1.20146e-09 0.00366335)
(0.00366335 -0.00174474 -2.50248e-05 0.00366335 -1.20147e-09 0.00366335)
(0.00379528 -0.00182361 -2.65292e-05 0.00379528 -1.28186e-09 0.00379528)
(0.00379528 -0.00182361 -2.65292e-05 0.00379528 -1.28164e-09 0.00379528)
(0.00392392 -0.00190041 -2.80411e-05 0.00392392 -1.36093e-09 0.00392392)
(0.00392392 -0.00190041 -2.80411e-05 0.00392392 -1.36093e-09 0.00392392)
(0.00404891 -0.00197483 -2.95552e-05 0.00404891 -1.44988e-09 0.00404891)
(0.00404891 -0.00197483 -2.95552e-05 0.00404891 -1.4499e-09 0.00404891)
(0.00416991 -0.00204658 -3.10665e-05 0.00416991 -1.54662e-09 0.00416991)
(0.00416991 -0.00204658 -3.10665e-05 0.00416991 -1.54652e-09 0.00416991)
(0.00428663 -0.00211542 -3.25701e-05 0.00428663 -1.63701e-09 0.00428663)
(0.00428663 -0.00211542 -3.25701e-05 0.00428663 -1.63705e-09 0.00428663)
(0.00439881 -0.00218112 -3.40615e-05 0.00439881 -1.73583e-09 0.00439881)
(0.00439881 -0.00218112 -3.40615e-05 0.00439881 -1.73556e-09 0.00439881)
(0.00450623 -0.0022435 -3.55363e-05 0.00450623 -1.83553e-09 0.00450623)
(0.00450623 -0.0022435 -3.55363e-05 0.00450623 -1.83552e-09 0.00450623)
(0.0046087 -0.00230239 -3.69905e-05 0.0046087 -1.94366e-09 0.0046087)
(0.0046087 -0.00230239 -3.69905e-05 0.0046087 -1.94331e-09 0.0046087)
(0.00470607 -0.00235767 -3.84203e-05 0.00470607 -2.0481e-09 0.00470607)
(0.00470607 -0.00235767 -3.84203e-05 0.00470607 -2.04811e-09 0.00470607)
(0.00479823 -0.00240924 -3.98225e-05 0.00479823 -2.16421e-09 0.00479823)
(0.00479823 -0.00240924 -3.98225e-05 0.00479823 -2.16399e-09 0.00479823)
(0.00488509 -0.00245705 -4.11938e-05 0.00488509 -2.27255e-09 0.00488509)
(0.00488509 -0.00245705 -4.11938e-05 0.00488509 -2.27255e-09 0.00488509)
(0.0049666 -0.00250104 -4.25316e-05 0.0049666 -2.38704e-09 0.0049666)
(0.0049666 -0.00250104 -4.25316e-05 0.0049666 -2.38665e-09 0.0049666)
(0.00504274 -0.0025412 -4.38336e-05 0.00504274 -2.49844e-09 0.00504274)
(0.00504274 -0.0025412 -4.38336e-05 0.00504274 -2.49843e-09 0.00504274)
(0.00511351 -0.00257755 -4.50978e-05 0.00511351 -2.62077e-09 0.00511351)
(0.00511351 -0.00257755 -4.50978e-05 0.00511351 -2.62076e-09 0.00511351)
(0.00517895 -0.00261013 -4.63224e-05 0.00517895 -2.74118e-09 0.00517895)
(0.00517895 -0.00261013 -4.63224e-05 0.00517895 -2.74072e-09 0.00517895)
(0.00523911 -0.00263898 -4.75061e-05 0.00523911 -2.85055e-09 0.00523911)
(0.00523911 -0.00263898 -4.75061e-05 0.00523911 -2.85057e-09 0.00523911)
(0.00529407 -0.00266418 -4.86478e-05 0.00529407 -2.97182e-09 0.00529407)
(0.00529407 -0.00266418 -4.86478e-05 0.00529407 -2.97134e-09 0.00529407)
(0.00534394 -0.00268582 -4.97471e-05 0.00534394 -3.0855e-09 0.00534394)
(0.00534394 -0.00268582 -4.97471e-05 0.00534394 -3.08547e-09 0.00534394)
(0.00538882 -0.002704 -5.08031e-05 0.00538882 -3.2027e-09 0.00538882)
(0.00538882 -0.002704 -5.08031e-05 0.00538882 -3.20212e-09 0.00538882)
(0.00542885 -0.00271885 -5.18161e-05 0.00542885 -3.30977e-09 0.00542885)
(0.00542885 -0.00271885 -5.18161e-05 0.00542885 -3.30978e-09 0.00542885)
(0.00546418 -0.00273048 -5.27861e-05 0.00546418 -3.42935e-09 0.00546418)
(0.00546418 -0.00273048 -5.27861e-05 0.00546418 -3.42939e-09 0.00546418)
(0.00549498 -0.00273905 -5.37133e-05 0.00549498 -3.54781e-09 0.00549498)
(0.00549498 -0.00273905 -5.37133e-05 0.00549498 -3.54771e-09 0.00549498)
(0.00552141 -0.00274469 -5.45984e-05 0.00552141 -3.65218e-09 0.00552141)
(0.00552141 -0.00274469 -5.45984e-05 0.00552141 -3.65156e-09 0.00552141)
(0.00554366 -0.00274755 -5.54422e-05 0.00554366 -3.73998e-09 0.00554366)
(0.00554366 -0.00274755 -5.54422e-05 0.00554366 -3.74001e-09 0.00554366)
(0.00556191 -0.00274778 -5.62458e-05 0.00556191 -3.83766e-09 0.00556191)
(0.00556191 -0.00274778 -5.62458e-05 0.00556191 -3.83699e-09 0.00556191)
(0.00557636 -0.00274556 -5.70105e-05 0.00557636 -3.92514e-09 0.00557636)
(0.00557636 -0.00274556 -5.70105e-05 0.00557636 -3.92512e-09 0.00557636)
(0.00558721 -0.00274105 -5.77376e-05 0.00558721 -4.03035e-09 0.00558721)
(0.00558721 -0.00274105 -5.77376e-05 0.00558721 -4.03034e-09 0.00558721)
(0.00559467 -0.00273439 -5.84286e-05 0.00559467 -4.10184e-09 0.00559467)
(0.00559467 -0.00273439 -5.84286e-05 0.00559467 -4.10184e-09 0.00559467)
(0.00559894 -0.00272576 -5.90851e-05 0.00559894 -4.16958e-09 0.00559894)
(0.00559894 -0.00272576 -5.90851e-05 0.00559894 -4.16881e-09 0.00559894)
(0.00560024 -0.00271532 -5.97091e-05 0.00560024 -4.23625e-09 0.00560024)
(0.00560024 -0.00271532 -5.97091e-05 0.00560024 -4.23624e-09 0.00560024)
(0.00559876 -0.00270322 -6.03023e-05 0.00559876 -4.30723e-09 0.00559876)
(0.00559876 -0.00270322 -6.03023e-05 0.00559876 -4.3072e-09 0.00559876)
(0.00559472 -0.00268962 -6.08666e-05 0.00559472 -4.34859e-09 0.00559472)
(0.00559472 -0.00268962 -6.08666e-05 0.00559472 -4.34769e-09 0.00559472)
(0.00558832 -0.00267468 -6.14044e-05 0.00558832 -4.37475e-09 0.00558832)
(0.00558832 -0.00267468 -6.14044e-05 0.00558832 -4.37473e-09 0.00558832)
(0.00557977 -0.00265854 -6.19177e-05 0.00557977 -4.41278e-09 0.00557977)
(0.00557977 -0.00265854 -6.19177e-05 0.00557977 -4.41286e-09 0.00557977)
(0.00556927 -0.00264135 -6.24085e-05 0.00556927 -4.44891e-09 0.00556927)
(0.00556927 -0.00264135 -6.24085e-05 0.00556927 -4.44795e-09 0.00556927)
(0.00555701 -0.00262325 -6.28792e-05 0.00555701 -4.46321e-09 0.00555701)
(0.00555701 -0.00262325 -6.28792e-05 0.00555701 -4.46312e-09 0.00555701)
(0.00554318 -0.00260436 -6.33319e-05 0.00554318 -4.45326e-09 0.00554318)
(0.00554318 -0.00260436 -6.33319e-05 0.00554318 -4.45219e-09 0.00554318)
(0.00552798 -0.00258482 -6.3769e-05 0.00552798 -4.41751e-09 0.00552798)
(0.00552798 -0.00258482 -6.3769e-05 0.00552798 -4.41752e-09 0.00552798)
(0.00551158 -0.00256476 -6.41929e-05 0.00551158 -4.41189e-09 0.00551158)
(0.00551158 -0.00256476 -6.41929e-05 0.00551158 -4.41182e-09 0.00551158)
(0.00549417 -0.0025443 -6.46058e-05 0.00549417 -4.38478e-09 0.00549417)
(0.00549417 -0.0025443 -6.46058e-05 0.00549417 -4.3836e-09 0.00549417)
(0.0054759 -0.00252353 -6.50102e-05 0.0054759 -4.3215e-09 0.0054759)
(0.0054759 -0.00252353 -6.50102e-05 0.0054759 -4.3215e-09 0.0054759)
(0.00545696 -0.00250258 -6.54082e-05 0.00545696 -4.25918e-09 0.00545696)
(0.00545696 -0.00250258 -6.54082e-05 0.00545696 -4.25926e-09 0.00545696)
(0.00543749 -0.00248154 -6.58021e-05 0.00543749 -4.19781e-09 0.00543749)
(0.00543749 -0.00248154 -6.58021e-05 0.00543749 -4.19657e-09 0.00543749)
(0.00541765 -0.0024605 -6.61946e-05 0.00541765 -4.10528e-09 0.00541765)
(0.00541765 -0.0024605 -6.61946e-05 0.00541765 -4.10512e-09 0.00541765)
(0.00539758 -0.00243957 -6.65877e-05 0.00539758 -4.00301e-09 0.00539758)
(0.00539758 -0.00243957 -6.65877e-05 0.00539758 -4.00233e-09 0.00539758)
(0.00537743 -0.00241881 -6.69838e-05 0.00537743 -3.88339e-09 0.00537743)
(0.00537743 -0.00241881 -6.69838e-05 0.00537743 -3.88205e-09 0.00537743)
(0.00535732 -0.00239833 -6.73855e-05 0.00535732 -3.76996e-09 0.00535732)
(0.00535732 -0.00239833 -6.73855e-05 0.00535732 -3.76979e-09 0.00535732)
(0.00533737 -0.00237818 -6.77949e-05 0.00533737 -3.63024e-09 0.00533737)
(0.00533737 -0.00237818 -6.77949e-05 0.00533737 -3.62871e-09 0.00533737)
(0.00531772 -0.00235844 -6.82142e-05 0.00531772 -3.45489e-09 0.00531772)
(0.00531772 -0.00235844 -6.82142e-05 0.00531772 -3.45476e-09 0.00531772)
(0.00529846 -0.00233918 -6.8646e-05 0.00529846 -3.29601e-09 0.00529846)
(0.00529846 -0.00233918 -6.8646e-05 0.00529846 -3.29611e-09 0.00529846)
(0.0052797 -0.00232045 -6.90925e-05 0.0052797 -3.12005e-09 0.0052797)
(0.0052797 -0.00232045 -6.90925e-05 0.0052797 -3.11848e-09 0.0052797)
(0.00526154 -0.00230232 -6.9556e-05 0.00526154 -2.93146e-09 0.00526154)
(0.00526154 -0.00230232 -6.9556e-05 0.00526154 -2.93122e-09 0.00526154)
(0.00524407 -0.00228484 -7.00388e-05 0.00524407 -2.73973e-09 0.00524407)
(0.00524407 -0.00228484 -7.00388e-05 0.00524407 -2.73799e-09 0.00524407)
(0.00522737 -0.00226806 -7.05431e-05 0.00522737 -2.49224e-09 0.00522737)
(0.00522737 -0.00226806 -7.05431e-05 0.00522737 -2.49211e-09 0.00522737)
(0.00521153 -0.00225202 -7.10713e-05 0.00521153 -2.26757e-09 0.00521153)
(0.00521153 -0.00225202 -7.10713e-05 0.00521153 -2.26585e-09 0.00521153)
(0.00519661 -0.00223677 -7.16259e-05 0.00519661 -2.04802e-09 0.00519661)
(0.00519661 -0.00223677 -7.16259e-05 0.00519661 -2.0477e-09 0.00519661)
(0.00518267 -0.00222235 -7.2209e-05 0.00518267 -1.80201e-09 0.00518267)
(0.00518267 -0.00222235 -7.2209e-05 0.00518267 -1.80004e-09 0.00518267)
(0.00516977 -0.0022088 -7.28228e-05 0.00516977 -1.54183e-09 0.00516977)
(0.00516977 -0.0022088 -7.28228e-05 0.00516977 -1.54157e-09 0.00516977)
(0.00515797 -0.00219614 -7.34698e-05 0.00515797 -1.26111e-09 0.00515797)
(0.00515797 -0.00219614 -7.34698e-05 0.00515797 -1.26084e-09 0.00515797)
(0.00514732 -0.0021844 -7.41524e-05 0.00514732 -9.89653e-10 0.00514732)
(0.00514732 -0.0021844 -7.41524e-05 0.00514732 -9.87604e-10 0.00514732)
(0.00513784 -0.00217363 -7.48728e-05 0.00513784 -7.2644e-10 0.00513784)
(0.00513784 -0.00217363 -7.48728e-05 0.00513784 -7.26014e-10 0.00513784)
(0.00512958 -0.00216385 -7.56335e-05 0.00512958 -4.13809e-10 0.00512958)
(0.00512958 -0.00216385 -7.56335e-05 0.00512958 -4.11536e-10 0.00512958)
(0.00512256 -0.00215507 -7.64371e-05 0.00512256 -6.70823e-12 0.00512256)
(0.00512256 -0.00215507 -7.64371e-05 0.00512256 -6.36985e-12 0.00512256)
(0.00511681 -0.00214733 -7.72858e-05 0.00511681 3.98775e-12 0.00511681)
(0.00511681 -0.00214733 -7.72858e-05 0.00511681 4.40625e-12 0.00511681)
(0.00511235 -0.00214065 -7.81821e-05 0.00511235 5.098e-10 0.00511235)
(0.00511235 -0.00214065 -7.81821e-05 0.00511235 5.12143e-10 0.00511235)
(0.00510918 -0.00213504 -7.91287e-05 0.00510918 8.02844e-10 0.00510918)
(0.00510918 -0.00213504 -7.91287e-05 0.00510918 8.03364e-10 0.00510918)
(0.00510731 -0.00213053 -8.01279e-05 0.00510731 1.10373e-09 0.00510731)
(0.00510731 -0.00213053 -8.01279e-05 0.00510731 1.10433e-09 0.00510731)
(0.00510675 -0.00212713 -8.1182e-05 0.00510675 1.45414e-09 0.00510675)
(0.00510675 -0.00212713 -8.1182e-05 0.00510675 1.45468e-09 0.00510675)
(0.00510749 -0.00212483 -8.22936e-05 0.00510749 1.80283e-09 0.00510749)
(0.00510749 -0.00212483 -8.22936e-05 0.00510749 1.80336e-09 0.00510749)
(0.00510953 -0.00212367 -8.3465e-05 0.00510952 2.1078e-09 0.00510953)
(0.00510953 -0.00212367 -8.3465e-05 0.00510952 2.10847e-09 0.00510953)
(0.00511284 -0.00212363 -8.46983e-05 0.00511284 2.42867e-09 0.00511284)
(0.00511284 -0.00212363 -8.46983e-05 0.00511284 2.42938e-09 0.00511284)
(0.00511743 -0.00212472 -8.59957e-05 0.00511743 2.77307e-09 0.00511743)
(0.00511743 -0.00212472 -8.59957e-05 0.00511743 2.77379e-09 0.00511743)
(0.00512326 -0.00212693 -8.73592e-05 0.00512326 3.11166e-09 0.00512326)
(0.00512326 -0.00212693 -8.73592e-05 0.00512326 3.11247e-09 0.00512326)
(0.00513032 -0.00213026 -8.8791e-05 0.00513032 3.45478e-09 0.00513032)
(0.00513032 -0.00213026 -8.8791e-05 0.00513032 3.45558e-09 0.00513032)
(0.00513857 -0.00213469 -9.02929e-05 0.00513857 3.79512e-09 0.00513857)
(0.00513857 -0.00213469 -9.02929e-05 0.00513857 3.79596e-09 0.00513857)
(0.00514798 -0.00214023 -9.18669e-05 0.00514798 4.11073e-09 0.00514798)
(0.00514798 -0.00214023 -9.18669e-05 0.00514798 4.11171e-09 0.00514798)
(0.00515852 -0.00214685 -9.3515e-05 0.00515852 4.43083e-09 0.00515852)
(0.00515852 -0.00214685 -9.3515e-05 0.00515852 4.43185e-09 0.00515852)
(0.00517016 -0.00215453 -9.52388e-05 0.00517016 4.74472e-09 0.00517016)
(0.00517016 -0.00215453 -9.52388e-05 0.00517016 4.74581e-09 0.00517016)
(0.00518284 -0.00216327 -9.70401e-05 0.00518284 5.07377e-09 0.00518284)
(0.00518284 -0.00216327 -9.70401e-05 0.00518284 5.07487e-09 0.00518284)
(0.00519653 -0.00217304 -9.89204e-05 0.00519653 5.39498e-09 0.00519653)
(0.00519653 -0.00217304 -9.89204e-05 0.00519653 5.39609e-09 0.00519653)
(0.00521119 -0.00218382 -0.000100881 0.00521119 5.66651e-09 0.00521119)
(0.00521119 -0.00218382 -0.000100881 0.00521119 5.66789e-09 0.00521119)
(0.00522675 -0.00219557 -0.000102923 0.00522675 5.98387e-09 0.00522675)
(0.00522675 -0.00219557 -0.000102923 0.00522675 5.98527e-09 0.00522675)
(0.00524318 -0.00220827 -0.000105048 0.00524318 6.26269e-09 0.00524318)
(0.00524318 -0.00220827 -0.000105048 0.00524318 6.26404e-09 0.00524318)
(0.00526042 -0.00222187 -0.000107257 0.00526042 6.52514e-09 0.00526042)
(0.00526042 -0.00222187 -0.000107257 0.00526042 6.52671e-09 0.00526042)
(0.00527841 -0.00223635 -0.000109549 0.00527841 6.80356e-09 0.00527841)
(0.00527841 -0.00223635 -0.000109549 0.00527841 6.80521e-09 0.00527841)
(0.0052971 -0.00225165 -0.000111925 0.0052971 7.07335e-09 0.0052971)
(0.0052971 -0.00225165 -0.000111925 0.0052971 7.07503e-09 0.0052971)
(0.00531643 -0.00226773 -0.000114386 0.00531643 7.33983e-09 0.00531643)
(0.00531643 -0.00226773 -0.000114386 0.00531643 7.34165e-09 0.00531643)
(0.00533634 -0.00228454 -0.000116931 0.00533634 7.60045e-09 0.00533634)
(0.00533634 -0.00228454 -0.000116931 0.00533634 7.60236e-09 0.00533634)
(0.00535678 -0.00230202 -0.00011956 0.00535678 7.84386e-09 0.00535678)
(0.00535678 -0.00230202 -0.00011956 0.00535678 7.84593e-09 0.00535678)
(0.00537767 -0.00232011 -0.000122272 0.00537767 8.09844e-09 0.00537767)
(0.00537767 -0.00232011 -0.000122272 0.00537767 8.10058e-09 0.00537767)
(0.00539897 -0.00233876 -0.000125066 0.00539897 8.33482e-09 0.00539897)
(0.00539897 -0.00233876 -0.000125066 0.00539897 8.33706e-09 0.00539897)
(0.0054206 -0.00235788 -0.000127939 0.0054206 8.56276e-09 0.0054206)
(0.0054206 -0.00235788 -0.000127939 0.0054206 8.5652e-09 0.0054206)
(0.00544251 -0.00237742 -0.00013089 0.00544251 8.82463e-09 0.00544251)
(0.00544251 -0.00237742 -0.00013089 0.00544251 8.82713e-09 0.00544251)
(0.00546463 -0.00239727 -0.000133916 0.00546463 9.00493e-09 0.00546463)
(0.00546463 -0.00239727 -0.000133916 0.00546463 9.00767e-09 0.00546463)
(0.00548689 -0.00241734 -0.000137013 0.00548689 9.24476e-09 0.00548689)
(0.00548689 -0.00241734 -0.000137013 0.00548689 9.24755e-09 0.00548689)
(0.00550925 -0.00243755 -0.000140176 0.00550925 9.46792e-09 0.00550925)
(0.00550925 -0.00243755 -0.000140176 0.00550925 9.47079e-09 0.00550925)
(0.00553163 -0.00245777 -0.000143401 0.00553163 9.64026e-09 0.00553163)
(0.00553163 -0.00245777 -0.000143401 0.00553163 9.64352e-09 0.00553163)
(0.00555398 -0.00247791 -0.000146683 0.00555398 9.8725e-09 0.00555398)
(0.00555398 -0.00247791 -0.000146683 0.00555398 9.87588e-09 0.00555398)
(0.00557624 -0.00249787 -0.000150016 0.00557624 1.00605e-08 0.00557624)
(0.00557624 -0.00249787 -0.000150016 0.00557624 1.00639e-08 0.00557624)
(0.00559835 -0.00251756 -0.000153396 0.00559835 1.026e-08 0.00559835)
(0.00559835 -0.00251756 -0.000153396 0.00559835 1.02635e-08 0.00559835)
(0.00562026 -0.00253688 -0.000156819 0.00562026 1.03866e-08 0.00562026)
(0.00562026 -0.00253688 -0.000156819 0.00562026 1.03906e-08 0.00562026)
(0.00564193 -0.00255579 -0.000160282 0.00564193 1.06979e-08 0.00564193)
(0.00564193 -0.00255579 -0.000160282 0.00564193 1.07018e-08 0.00564193)
(0.00566329 -0.00257423 -0.000163782 0.00566329 1.08166e-08 0.00566329)
(0.00566329 -0.00257423 -0.000163782 0.00566329 1.08209e-08 0.00566329)
(0.00568432 -0.00259217 -0.000167317 0.00568432 1.09809e-08 0.00568432)
(0.00568432 -0.00259217 -0.000167317 0.00568432 1.09855e-08 0.00568432)
(0.00570496 -0.00260961 -0.000170889 0.00570496 1.11348e-08 0.00570496)
(0.00570496 -0.00260961 -0.000170889 0.00570496 1.11396e-08 0.00570496)
(0.00572517 -0.00262657 -0.000174498 0.00572517 1.13585e-08 0.00572517)
(0.00572517 -0.00262657 -0.000174498 0.00572517 1.13634e-08 0.00572517)
(0.00574492 -0.00264308 -0.000178147 0.00574492 1.14966e-08 0.00574492)
(0.00574492 -0.00264308 -0.000178147 0.00574492 1.15019e-08 0.00574492)
(0.00576417 -0.00265916 -0.000181837 0.00576417 1.15976e-08 0.00576417)
(0.00576417 -0.00265916 -0.000181837 0.00576417 1.16028e-08 0.00576417)
(0.00578289 -0.00267484 -0.000185569 0.00578289 1.18237e-08 0.00578289)
(0.00578289 -0.00267484 -0.000185569 0.00578289 1.183e-08 0.00578289)
(0.00580105 -0.0026901 -0.000189343 0.00580105 1.18524e-08 0.00580105)
(0.00580105 -0.0026901 -0.000189343 0.00580105 1.18574e-08 0.00580105)
(0.0058186 -0.00270493 -0.000193154 0.0058186 1.19901e-08 0.0058186)
(0.0058186 -0.00270493 -0.000193154 0.0058186 1.19988e-08 0.0058186)
(0.00583553 -0.00271929 -0.000197002 0.00583553 1.19923e-08 0.00583553)
(0.00583553 -0.00271929 -0.000197002 0.00583553 1.19946e-08 0.00583553)
(0.0058518 -0.00273314 -0.000200881 0.0058518 1.21502e-08 0.0058518)
(0.0058518 -0.00273314 -0.000200881 0.0058518 1.21657e-08 0.0058518)
(0.00586738 -0.00274641 -0.000204785 0.00586738 1.20505e-08 0.00586738)
(0.00586738 -0.00274641 -0.000204785 0.00586738 1.20416e-08 0.00586738)
(0.00588224 -0.00275905 -0.000208713 0.00588224 1.22022e-08 0.00588224)
(0.00588224 -0.00275905 -0.000208713 0.00588224 1.22412e-08 0.00588224)
(0.00589637 -0.00277102 -0.000212658 0.00589637 1.21397e-08 0.00589637)
(0.00589637 -0.00277102 -0.000212658 0.00589637 1.2088e-08 0.00589637)
(0.00590973 -0.00278226 -0.000216613 0.00590974 1.22479e-08 0.00590973)
(0.00590973 -0.00278226 -0.000216613 0.00590974 1.23405e-08 0.00590973)
(0.00592232 -0.0027927 -0.000220574 0.00592232 1.20735e-08 0.00592232)
(0.00592232 -0.0027927 -0.000220574 0.00592232 1.18666e-08 0.00592232)
(0.00593409 -0.0028023 -0.000224535 0.00593409 1.23317e-08 0.00593409)
(0.00593409 -0.0028023 -0.000224535 0.00593409 1.28834e-08 0.00593409)
(0.00594505 -0.00281104 -0.000228494 0.00594505 1.18718e-08 0.00594505)
(0.00594505 -0.00281104 -0.000228494 0.00594505 1.11068e-08 0.00594505)
(0.00595517 -0.00281891 -0.000232451 0.00595518 1.28891e-08 0.00595517)
(0.00595517 -0.00281891 -0.000232451 0.00595518 1.43568e-08 0.00595517)
(0.00596445 -0.00282596 -0.000236406 0.00596445 1.15093e-08 0.00596445)
(0.00596445 -0.00282596 -0.000236406 0.00596445 8.78855e-09 0.00596445)
(0.00597288 -0.0028322 -0.000240361 0.00597288 1.36879e-08 0.00597288)
(0.00597288 -0.0028322 -0.000240361 0.00597288 1.87999e-08 0.00597287)
(0.00598043 -0.0028377 -0.000244318 0.00598044 5.90305e-09 0.00598043)
(0.00598043 -0.0028377 -0.000244318 0.00598044 -8.01972e-09 0.00598044)
(0.00598713 -0.0028425 -0.000248283 0.00598713 3.23193e-09 0.00598713)
(0.00598713 -0.0028425 -0.000248283 0.00598713 1.85905e-08 0.00598713)
(0.00599294 -0.00284674 -0.000252268 0.00599294 -1.96471e-09 0.00599294)
(0.00599294 -0.00284674 -0.000252268 0.00599294 -2.00357e-08 0.00599294)
(0.00599788 -0.00285048 -0.000256271 0.00599788 -4.31454e-09 0.00599788)
(0.00599788 -0.00285048 -0.000256271 0.00599788 1.07811e-08 0.00599788)
(0.00600194 -0.00285372 -0.000260292 0.00600194 -1.47284e-08 0.00600194)
(0.00600194 -0.00285372 -0.000260292 0.00600194 -2.08415e-08 0.00600194)
(0.00600511 -0.00285647 -0.000264329 0.00600511 -1.21534e-08 0.00600511)
(0.0060051 -0.00285647 -0.000264329 0.00600511 -8.6713e-09 0.00600511)
(0.00600738 -0.00285868 -0.000268374 0.00600738 -1.43135e-08 0.00600738)
(0.00600738 -0.00285868 -0.000268374 0.00600738 -1.635e-08 0.00600738)
(0.00600877 -0.00286034 -0.000272431 0.00600877 -1.31207e-08 0.00600877)
(0.00600877 -0.00286034 -0.000272431 0.00600877 -1.16857e-08 0.00600877)
(0.00600925 -0.00286147 -0.000276496 0.00600926 -1.40413e-08 0.00600925)
(0.00600925 -0.00286147 -0.000276496 0.00600926 -1.4736e-08 0.00600925)
(0.00600884 -0.00286201 -0.00028056 0.00600884 -1.34512e-08 0.00600884)
(0.00600884 -0.00286201 -0.00028056 0.00600884 -1.31101e-08 0.00600884)
(0.00600752 -0.00286193 -0.000284623 0.00600752 -1.38415e-08 0.00600752)
(0.00600752 -0.00286193 -0.000284623 0.00600752 -1.40836e-08 0.00600752)
(0.0060053 -0.00286119 -0.000288672 0.0060053 -1.35146e-08 0.0060053)
(0.0060053 -0.00286119 -0.000288672 0.0060053 -1.34262e-08 0.0060053)