/*--------------------------------*- C++ -*----------------------------------*\
| =========                 |                                                 |
| \\      /  F ield         | OpenFOAM: The Open Source CFD Toolbox           |
|  \\    /   O peration     | Version:  2106                                  |
|   \\  /    A nd           | Website:  www.openfoam.com                      |
|    \\/     M anipulation  |                                                 |
\*---------------------------------------------------------------------------*/
FoamFile
{
    version     2.0;
    format      ascii;
    arch        "LSB;label=32;scalar=64";
    class       volVectorField;
    location    "16000";
    object      U;
}
// * * * * * * * * * * * * * * * * * * * * * * * * * * * * * * * * * * * * * //

dimensions      [0 1 -1 0 0 0 0];

internalField   nonuniform List<vector> 
2560
(
(0.00225028 -1.42665e-15 1.41648e-18)
(0.00225028 -1.38634e-20 4.01225e-34)
(0.0067829 -2.54133e-15 1.2415e-17)
(0.0067829 -1.62627e-20 2.35173e-22)
(0.0113807 -2.5845e-15 1.27345e-17)
(0.0113807 7.92166e-20 -5.31018e-22)
(0.0160447 -2.37124e-15 1.35318e-17)
(0.0160447 1.54779e-19 -1.10086e-21)
(0.0207758 -2.36092e-15 1.42226e-17)
(0.0207758 2.18478e-19 -1.59203e-21)
(0.025575 -2.37607e-15 1.48742e-17)
(0.025575 3.05323e-19 -2.19539e-21)
(0.0304432 -2.38051e-15 1.55489e-17)
(0.0304432 4.09189e-19 -3.00096e-21)
(0.0353813 -2.38012e-15 1.62536e-17)
(0.0353813 4.87595e-19 -3.77729e-21)
(0.0403905 -2.37989e-15 1.69841e-17)
(0.0403905 5.6363e-19 -4.34179e-21)
(0.0454717 -2.38018e-15 1.77396e-17)
(0.0454717 6.50452e-19 -5.13366e-21)
(0.0506259 -2.3805e-15 1.85209e-17)
(0.0506259 7.43369e-19 -5.90557e-21)
(0.0558541 -2.38078e-15 1.93285e-17)
(0.0558541 8.38861e-19 -6.72733e-21)
(0.0611574 -2.38105e-15 2.01631e-17)
(0.0611574 8.93074e-19 -7.57125e-21)
(0.0665369 -2.38135e-15 2.10253e-17)
(0.0665369 9.6645e-19 -8.01918e-21)
(0.0719934 -2.38165e-15 2.19159e-17)
(0.0719934 1.03307e-18 -9.17193e-21)
(0.0775282 -2.38195e-15 2.28355e-17)
(0.0775282 1.10467e-18 -1.00768e-20)
(0.0831421 -2.38226e-15 2.37853e-17)
(0.0831421 1.19901e-18 -1.14069e-20)
(0.0888362 -2.38257e-15 2.47657e-17)
(0.0888362 1.22567e-18 -1.30203e-20)
(0.0946115 -2.38295e-15 2.57776e-17)
(0.0946115 1.29059e-18 -1.42562e-20)
(0.100469 -2.38332e-15 2.68214e-17)
(0.100469 1.31814e-18 -1.61343e-20)
(0.106409 -2.38368e-15 2.78982e-17)
(0.106409 1.33211e-18 -1.75283e-20)
(0.112433 -2.3841e-15 2.90085e-17)
(0.112433 1.41625e-18 -1.96172e-20)
(0.118542 -2.3846e-15 3.01525e-17)
(0.118542 1.54629e-18 -2.14805e-20)
(0.124736 -2.3851e-15 3.13302e-17)
(0.124736 1.67819e-18 -2.42741e-20)
(0.131016 -2.38543e-15 3.25418e-17)
(0.131016 1.73844e-18 -2.75487e-20)
(0.137383 -2.38576e-15 3.37874e-17)
(0.137383 1.72309e-18 -3.01862e-20)
(0.143835 -2.38611e-15 3.50673e-17)
(0.143835 1.72368e-18 -3.22291e-20)
(0.150374 -2.38651e-15 3.63808e-17)
(0.150374 1.81503e-18 -3.29892e-20)
(0.157 -2.38699e-15 3.7727e-17)
(0.157 1.90934e-18 -3.47768e-20)
(0.163711 -2.38745e-15 3.91048e-17)
(0.163711 1.90479e-18 -3.77058e-20)
(0.170507 -2.38796e-15 4.05128e-17)
(0.170507 1.90979e-18 -4.16726e-20)
(0.177387 -2.3884e-15 4.19489e-17)
(0.177387 1.95303e-18 -4.61739e-20)
(0.18435 -2.38881e-15 4.34107e-17)
(0.18435 2.06126e-18 -5.03691e-20)
(0.191393 -2.38921e-15 4.48958e-17)
(0.191393 2.09566e-18 -5.44743e-20)
(0.198514 -2.38961e-15 4.64006e-17)
(0.198514 2.03632e-18 -5.71941e-20)
(0.20571 -2.39005e-15 4.79215e-17)
(0.20571 2.01819e-18 -6.25452e-20)
(0.212977 -2.39058e-15 4.94543e-17)
(0.212977 2.04113e-18 -6.7821e-20)
(0.220313 -2.39114e-15 5.09945e-17)
(0.220313 2.15501e-18 -7.19986e-20)
(0.227711 -2.3916e-15 5.25368e-17)
(0.227711 2.17651e-18 -7.57106e-20)
(0.235167 -2.39212e-15 5.40772e-17)
(0.235167 2.04389e-18 -8.0482e-20)
(0.242675 -2.3927e-15 5.56085e-17)
(0.242675 1.94366e-18 -8.47783e-20)
(0.250229 -2.39325e-15 5.7126e-17)
(0.250229 1.98493e-18 -8.98123e-20)
(0.257822 -2.39393e-15 5.86225e-17)
(0.257822 1.99842e-18 -9.41714e-20)
(0.265447 -2.39485e-15 6.00921e-17)
(0.265447 2.27112e-18 -1.05311e-19)
(0.273096 -2.39576e-15 6.15286e-17)
(0.273096 2.47217e-18 -1.17212e-19)
(0.280761 -2.39638e-15 6.2928e-17)
(0.280761 2.48218e-18 -1.22937e-19)
(0.288434 -2.39687e-15 6.42856e-17)
(0.288434 2.91138e-18 -1.2832e-19)
(0.296106 -2.3975e-15 6.55974e-17)
(0.296106 3.20316e-18 -1.38359e-19)
(0.303769 -2.39798e-15 6.68607e-17)
(0.303769 3.12813e-18 -1.41884e-19)
(0.311416 -2.39839e-15 6.80732e-17)
(0.311416 3.01254e-18 -1.45361e-19)
(0.319036 -2.39867e-15 6.92304e-17)
(0.319036 2.88274e-18 -1.46371e-19)
(0.326624 -2.39897e-15 7.03348e-17)
(0.326624 2.50786e-18 -1.50929e-19)
(0.33417 -2.39946e-15 7.1383e-17)
(0.33417 2.2241e-18 -1.54213e-19)
(0.341669 -2.39978e-15 7.23753e-17)
(0.341669 1.76459e-18 -1.6162e-19)
(0.349113 -2.4006e-15 7.3313e-17)
(0.349113 1.34803e-18 -1.62247e-19)
(0.356495 -2.40168e-15 7.41955e-17)
(0.356495 1.63415e-18 -1.75672e-19)
(0.363811 -2.40277e-15 7.50245e-17)
(0.363811 1.83659e-18 -1.89295e-19)
(0.371056 -2.40388e-15 7.58013e-17)
(0.371056 1.70519e-18 -2.08441e-19)
(0.378224 -2.40483e-15 7.65323e-17)
(0.378224 1.60199e-18 -2.22078e-19)
(0.385313 -2.40567e-15 7.72221e-17)
(0.385313 1.52205e-18 -2.30406e-19)
(0.392318 -2.40641e-15 7.78727e-17)
(0.392318 1.49932e-18 -2.41083e-19)
(0.399237 -2.40689e-15 7.84904e-17)
(0.399237 1.531e-18 -2.4243e-19)
(0.406068 -2.40739e-15 7.90854e-17)
(0.406068 7.33466e-19 -2.47885e-19)
(0.412809 -2.40776e-15 7.96595e-17)
(0.412809 6.82991e-19 -2.48895e-19)
(0.419458 -2.40831e-15 8.02188e-17)
(0.419458 6.99792e-19 -2.51164e-19)
(0.426016 -2.40948e-15 8.07669e-17)
(0.426016 9.14663e-19 -2.61696e-19)
(0.432481 -2.41039e-15 8.08939e-17)
(0.432481 1.46506e-18 -2.85402e-19)
(0.438854 -2.4113e-15 7.75896e-17)
(0.438854 1.58905e-18 -2.99257e-19)
(0.445134 -2.41253e-15 7.42645e-17)
(0.445134 2.26179e-18 -3.23624e-19)
(0.451322 -2.41335e-15 7.09428e-17)
(0.451322 2.32717e-18 -3.49443e-19)
(0.45742 -2.41331e-15 6.75716e-17)
(0.45742 1.94268e-18 -3.60723e-19)
(0.463427 -2.41411e-15 6.41629e-17)
(0.463427 1.49604e-18 -3.86107e-19)
(0.469345 -2.41556e-15 6.07464e-17)
(0.469345 1.35607e-18 -4.152e-19)
(0.475175 -2.41628e-15 5.7325e-17)
(0.475175 1.33652e-18 -4.4255e-19)
(0.480919 -2.41737e-15 5.39061e-17)
(0.480919 9.67801e-19 -4.70343e-19)
(0.486578 -2.41819e-15 5.0467e-17)
(0.486578 1.9114e-19 -5.0547e-19)
(0.492154 -2.41913e-15 4.70107e-17)
(0.492154 -4.15402e-19 -5.33082e-19)
(0.497648 -2.42049e-15 4.35597e-17)
(0.497648 -8.89729e-19 -5.69386e-19)
(0.503062 -2.42135e-15 4.00988e-17)
(0.503062 -1.92344e-18 -6.0636e-19)
(0.508398 -2.42244e-15 3.80847e-17)
(0.508398 -2.60295e-18 -6.36686e-19)
(0.513658 -2.42323e-15 3.77137e-17)
(0.513658 -2.71745e-18 -6.51411e-19)
(0.518843 -2.42407e-15 3.7281e-17)
(0.518843 -3.23298e-18 -6.82436e-19)
(0.523955 -2.42523e-15 3.69478e-17)
(0.523955 -3.56531e-18 -7.06292e-19)
(0.528996 -2.42557e-15 3.6602e-17)
(0.528996 -4.09837e-18 -6.81298e-19)
(0.533967 -2.42554e-15 3.62319e-17)
(0.533967 -5.70421e-18 -6.64262e-19)
(0.538872 -2.4256e-15 3.58878e-17)
(0.538872 -6.37981e-18 -6.66151e-19)
(0.54371 -2.42593e-15 3.55248e-17)
(0.54371 -7.30933e-18 -6.6757e-19)
(0.548484 -2.42579e-15 3.51399e-17)
(0.548484 -8.79776e-18 -6.9037e-19)
(0.553196 -2.42552e-15 3.47904e-17)
(0.553196 -9.24152e-18 -6.8688e-19)
(0.557847 -2.42545e-15 3.44607e-17)
(0.557847 -1.04374e-17 -6.93956e-19)
(0.562439 -2.42566e-15 3.41611e-17)
(0.562439 -1.16322e-17 -6.97757e-19)
(0.566973 -2.42626e-15 3.37859e-17)
(0.566973 -1.20559e-17 -7.1261e-19)
(0.571451 -2.42525e-15 3.35115e-17)
(0.571451 -1.24375e-17 -6.59502e-19)
(0.575874 -2.42439e-15 3.31601e-17)
(0.575874 -1.35573e-17 -6.45905e-19)
(0.580244 -2.42481e-15 3.29225e-17)
(0.580244 -1.57094e-17 -6.1898e-19)
(0.584563 -2.42438e-15 3.25528e-17)
(0.584563 -1.71098e-17 -5.93484e-19)
(0.588831 -2.42367e-15 3.2293e-17)
(0.588831 -1.8053e-17 -5.25773e-19)
(0.593051 -2.42332e-15 3.1997e-17)
(0.593051 -2.043e-17 -4.64593e-19)
(0.597222 -2.42333e-15 3.16795e-17)
(0.597222 -2.29302e-17 -4.29481e-19)
(0.601348 -2.42374e-15 3.12947e-17)
(0.601348 -2.30601e-17 -4.24819e-19)
(0.605428 -2.42453e-15 3.08955e-17)
(0.605428 -2.16182e-17 -4.75067e-19)
(0.609464 -2.42636e-15 3.05926e-17)
(0.609464 -2.11093e-17 -4.92035e-19)
(0.613457 -2.42816e-15 3.01892e-17)
(0.613457 -2.10887e-17 -5.66118e-19)
(0.617409 -2.42955e-15 2.97682e-17)
(0.617409 -2.02928e-17 -5.61663e-19)
(0.62132 -2.43121e-15 2.94574e-17)
(0.62132 -2.13568e-17 -5.7676e-19)
(0.625192 -2.43285e-15 2.91234e-17)
(0.625192 -2.16322e-17 -6.01595e-19)
(0.629026 -2.43323e-15 2.87329e-17)
(0.629026 -2.14823e-17 -6.04061e-19)
(0.632822 -2.43344e-15 2.83517e-17)
(0.632822 -2.34648e-17 -6.38055e-19)
(0.636581 -2.43389e-15 2.80366e-17)
(0.636581 -2.458e-17 -6.82641e-19)
(0.640305 -2.43348e-15 2.77381e-17)
(0.640305 -2.53017e-17 -6.96803e-19)
(0.643994 -2.43347e-15 2.73658e-17)
(0.643994 -2.67337e-17 -7.17361e-19)
(0.64765 -2.43349e-15 2.71705e-17)
(0.64765 -2.7483e-17 -7.52344e-19)
(0.651273 -2.43398e-15 2.6702e-17)
(0.651273 -2.97177e-17 -8.33819e-19)
(0.654864 -2.43546e-15 2.63043e-17)
(0.654864 -3.04361e-17 -8.63976e-19)
(0.658423 -2.43554e-15 2.60399e-17)
(0.658423 -3.18731e-17 -9.90424e-19)
(0.661952 -2.43451e-15 2.57481e-17)
(0.661952 -3.49882e-17 -1.02424e-18)
(0.665452 -2.43303e-15 2.54596e-17)
(0.665452 -3.58775e-17 -1.09472e-18)
(0.668922 -2.43106e-15 2.52962e-17)
(0.668922 -3.63188e-17 -1.21198e-18)
(0.672365 -2.42883e-15 2.48434e-17)
(0.672365 -3.75966e-17 -1.30501e-18)
(0.675779 -2.42563e-15 2.45434e-17)
(0.675779 -4.14504e-17 -1.28997e-18)
(0.679167 -2.4222e-15 2.43943e-17)
(0.679167 -4.47682e-17 -1.3565e-18)
(0.682529 -2.41892e-15 2.40912e-17)
(0.682529 -4.72453e-17 -1.3243e-18)
(0.685865 -2.4168e-15 2.37042e-17)
(0.685865 -4.91313e-17 -1.34813e-18)
(0.689177 -2.41632e-15 2.32527e-17)
(0.689177 -5.17928e-17 -1.38423e-18)
(0.692464 -2.4166e-15 2.29601e-17)
(0.692464 -5.2942e-17 -1.46588e-18)
(0.695727 -2.41496e-15 2.27593e-17)
(0.695727 -5.44766e-17 -1.50413e-18)
(0.698967 -2.41247e-15 2.24171e-17)
(0.698967 -5.6484e-17 -6.16207e-19)
(0.702184 -2.40975e-15 2.1943e-17)
(0.702184 -5.6483e-17 2.98572e-19)
(0.705379 -2.4039e-15 2.19169e-17)
(0.705379 -6.02058e-17 1.54639e-18)
(0.708553 -2.39864e-15 2.17309e-17)
(0.708553 -6.2921e-17 2.85153e-18)
(0.711705 -2.39636e-15 2.14441e-17)
(0.711705 -6.42903e-17 3.91705e-18)
(0.714837 -2.39695e-15 2.07741e-17)
(0.714837 -6.57285e-17 4.68325e-18)
(0.717949 -2.39896e-15 2.03555e-17)
(0.717949 -6.48243e-17 6.03384e-18)
(0.721041 -2.39897e-15 2.02856e-17)
(0.721041 -6.38546e-17 7.54244e-18)
(0.724114 -2.39766e-15 1.98685e-17)
(0.724114 -6.28928e-17 8.6651e-18)
(0.727168 -2.39635e-15 1.95336e-17)
(0.727168 -6.29616e-17 1.0008e-17)
(0.730204 -2.39668e-15 1.93558e-17)
(0.730204 -6.4925e-17 1.1499e-17)
(0.733221 -2.39862e-15 1.85783e-17)
(0.733221 -6.57019e-17 1.29824e-17)
(0.736222 -2.39828e-15 1.83318e-17)
(0.736222 -6.45206e-17 1.42298e-17)
(0.739205 -2.39625e-15 1.83415e-17)
(0.739205 -6.62386e-17 1.59494e-17)
(0.742171 -2.39322e-15 1.79821e-17)
(0.742171 -6.68024e-17 1.80511e-17)
(0.745121 -2.39103e-15 1.75962e-17)
(0.745121 -6.57162e-17 1.95755e-17)
(0.748054 -2.38949e-15 1.7123e-17)
(0.748054 -7.11284e-17 2.10281e-17)
(0.750972 -2.38641e-15 1.6825e-17)
(0.750972 -7.56238e-17 2.3204e-17)
(0.753875 -2.38078e-15 1.68336e-17)
(0.753875 -7.81207e-17 2.52224e-17)
(0.756763 -2.37583e-15 1.64557e-17)
(0.756763 -8.4253e-17 2.69053e-17)
(0.759635 -2.37091e-15 1.61278e-17)
(0.759635 -8.78934e-17 2.91739e-17)
(0.762494 -2.36572e-15 1.59802e-17)
(0.762494 -9.19973e-17 3.13758e-17)
(0.765338 -2.3612e-15 1.57519e-17)
(0.765338 -9.71142e-17 3.36026e-17)
(0.768169 -2.3583e-15 1.55008e-17)
(0.768169 -1.01375e-16 3.57215e-17)
(0.770986 -2.35481e-15 1.48774e-17)
(0.770986 -1.06391e-16 3.80085e-17)
(0.77379 -2.35031e-15 1.44734e-17)
(0.77379 -1.09239e-16 4.02357e-17)
(0.776581 -2.34502e-15 1.42218e-17)
(0.776581 -1.1507e-16 4.24224e-17)
(0.779359 -2.33461e-15 1.49843e-17)
(0.779359 -1.22124e-16 4.48317e-17)
(0.782124 -2.32413e-15 1.46447e-17)
(0.782124 -1.28152e-16 4.76841e-17)
(0.784878 -2.32137e-15 1.37463e-17)
(0.784878 -1.34497e-16 5.10571e-17)
(0.78762 -2.32154e-15 1.32356e-17)
(0.78762 -1.35726e-16 5.4051e-17)
(0.790349 -2.3191e-15 1.25388e-17)
(0.790349 -1.35844e-16 5.63857e-17)
(0.793068 -2.31449e-15 1.2601e-17)
(0.793068 -1.40491e-16 5.92516e-17)
(0.795775 -2.30659e-15 1.25342e-17)
(0.795775 -1.46844e-16 6.2829e-17)
(0.798471 -2.29715e-15 1.24319e-17)
(0.798471 -1.50125e-16 6.63604e-17)
(0.801157 -2.2913e-15 1.16181e-17)
(0.801157 -1.55624e-16 6.96036e-17)
(0.803832 -2.28999e-15 1.06965e-17)
(0.803832 -1.61897e-16 7.31137e-17)
(0.806496 -2.28584e-15 1.14945e-17)
(0.806496 -1.71559e-16 7.66964e-17)
(0.809151 -2.27293e-15 1.10392e-17)
(0.809151 -1.86746e-16 8.07658e-17)
(0.811795 -2.26905e-15 1.09711e-17)
(0.811795 -1.96386e-16 8.43511e-17)
(0.81443 -2.26731e-15 1.04914e-17)
(0.81443 -1.97223e-16 8.82321e-17)
(0.817055 -2.26763e-15 1.01094e-17)
(0.817055 -2.01867e-16 9.21849e-17)
(0.81967 -2.26522e-15 9.88778e-18)
(0.81967 -2.11077e-16 9.61136e-17)
(0.822277 -2.26166e-15 9.70185e-18)
(0.822277 -2.1633e-16 1.00329e-16)
(0.824874 -2.25791e-15 9.11945e-18)
(0.824874 -2.22075e-16 1.04215e-16)
(0.827462 -2.25241e-15 9.18174e-18)
(0.827462 -2.27645e-16 1.08654e-16)
(0.830042 -2.24717e-15 9.46884e-18)
(0.830042 -2.33201e-16 1.13754e-16)
(0.832613 -2.24151e-15 9.53727e-18)
(0.832613 -2.42783e-16 1.18715e-16)
(0.835176 -2.23389e-15 9.48861e-18)
(0.835176 -2.53505e-16 1.23308e-16)
(0.837731 -2.22778e-15 9.58544e-18)
(0.837731 -2.60051e-16 1.28664e-16)
(0.840277 -2.22233e-15 8.82425e-18)
(0.840277 -2.6898e-16 1.3347e-16)
(0.842815 -2.21278e-15 9.24837e-18)
(0.842815 -2.82005e-16 1.38922e-16)
(0.845346 -2.20244e-15 9.26973e-18)
(0.845346 -2.91834e-16 1.43113e-16)
(0.847869 -2.19216e-15 9.28113e-18)
(0.847869 -3.01985e-16 1.47841e-16)
(0.850384 -2.17945e-15 9.49724e-18)
(0.850384 -3.14003e-16 1.53599e-16)
(0.852892 -2.16918e-15 9.97143e-18)
(0.852892 -3.21155e-16 1.59822e-16)
(0.855393 -2.16152e-15 9.12195e-18)
(0.855393 -3.27391e-16 1.6602e-16)
(0.857886 -2.15306e-15 9.55083e-18)
(0.857886 -3.36293e-16 1.71561e-16)
(0.860373 -2.14272e-15 9.41844e-18)
(0.860373 -3.47926e-16 1.78592e-16)
(0.862852 -2.13089e-15 9.99525e-18)
(0.862852 -3.57465e-16 1.85671e-16)
(0.865325 -2.11842e-15 1.07694e-17)
(0.865325 -3.71011e-16 1.92378e-16)
(0.867791 -2.10476e-15 1.11973e-17)
(0.867791 -3.87221e-16 1.99548e-16)
(0.87025 -2.09323e-15 1.15661e-17)
(0.87025 -4.01118e-16 2.06644e-16)
(0.872703 -2.08306e-15 1.20386e-17)
(0.872703 -4.14642e-16 2.13625e-16)
(0.875149 -2.07295e-15 1.21265e-17)
(0.875149 -4.25558e-16 2.21421e-16)
(0.877589 -2.06359e-15 1.21197e-17)
(0.877589 -4.34038e-16 2.30401e-16)
(0.880023 -2.04819e-15 1.23586e-17)
(0.880023 -4.43815e-16 2.38477e-16)
(0.882451 -2.03275e-15 1.33641e-17)
(0.882451 -4.54772e-16 2.45699e-16)
(0.884872 -2.02042e-15 1.3348e-17)
(0.884872 -4.67731e-16 2.53488e-16)
(0.887288 -2.00309e-15 1.50426e-17)
(0.887288 -4.88582e-16 2.65467e-16)
(0.889698 -1.98656e-15 1.53482e-17)
(0.889698 -4.97006e-16 2.7404e-16)
(0.892102 -1.97148e-15 1.52541e-17)
(0.892102 -5.08941e-16 2.80524e-16)
(0.8945 -1.95357e-15 1.64943e-17)
(0.8945 -5.33313e-16 2.90107e-16)
(0.896893 -1.93536e-15 1.70907e-17)
(0.896893 -5.4349e-16 3.02332e-16)
(0.89928 -1.9128e-15 1.98079e-17)
(0.89928 -5.57033e-16 3.11262e-16)
(0.901661 -1.89897e-15 1.82624e-17)
(0.901661 -5.69739e-16 3.21024e-16)
(0.904037 -1.88045e-15 1.85389e-17)
(0.904037 -5.77941e-16 3.31404e-16)
(0.906408 -1.8638e-15 1.9251e-17)
(0.906408 -5.93149e-16 3.47942e-16)
(0.908774 -1.84701e-15 2.05548e-17)
(0.908774 -6.03758e-16 3.65261e-16)
(0.911134 -1.82557e-15 2.22112e-17)
(0.911134 -6.07753e-16 3.83239e-16)
(0.913488 -1.80413e-15 2.27394e-17)
(0.913488 -6.22193e-16 4.00832e-16)
(0.915838 -1.78631e-15 2.49505e-17)
(0.915838 -6.35289e-16 4.20169e-16)
(0.918183 -1.76401e-15 2.66864e-17)
(0.918183 -6.45977e-16 4.40427e-16)
(0.920522 -1.74708e-15 2.75517e-17)
(0.920522 -6.57512e-16 4.60426e-16)
(0.922856 -1.72957e-15 2.81265e-17)
(0.922856 -6.61767e-16 4.78453e-16)
(0.925186 -1.71182e-15 3.00699e-17)
(0.925186 -6.78698e-16 5.00328e-16)
(0.92751 -1.68935e-15 3.11668e-17)
(0.92751 -6.90939e-16 5.23906e-16)
(0.92983 -1.66931e-15 3.28423e-17)
(0.92983 -6.93483e-16 5.44477e-16)
(0.932144 -1.65777e-15 3.76235e-17)
(0.932144 -6.9911e-16 5.6327e-16)
(0.934454 -1.63401e-15 3.76939e-17)
(0.934454 -7.07083e-16 5.79194e-16)
(0.936759 -1.60916e-15 4.06496e-17)
(0.936759 -7.2076e-16 5.99573e-16)
(0.939059 -1.58899e-15 4.01525e-17)
(0.939059 -7.34711e-16 6.21297e-16)
(0.941354 -1.57019e-15 4.14629e-17)
(0.941354 -7.31812e-16 6.39114e-16)
(0.943645 -1.54311e-15 4.23778e-17)
(0.943645 -7.35926e-16 6.35494e-16)
(0.94593 -1.51638e-15 4.3637e-17)
(0.94593 -7.56058e-16 6.30645e-16)
(0.948211 -1.49744e-15 4.42323e-17)
(0.948211 -7.59427e-16 6.22978e-16)
(0.950487 -1.47847e-15 4.31932e-17)
(0.950487 -7.54865e-16 6.1116e-16)
(0.952758 -1.45824e-15 4.48047e-17)
(0.952758 -7.72215e-16 6.00042e-16)
(0.955025 -1.43868e-15 4.746e-17)
(0.955025 -7.87105e-16 5.86858e-16)
(0.957287 -1.42261e-15 4.61933e-17)
(0.957287 -7.85967e-16 5.70059e-16)
(0.959544 -1.40544e-15 4.76581e-17)
(0.959544 -8.06835e-16 5.54739e-16)
(0.961796 -1.38846e-15 5.0201e-17)
(0.961796 -8.25243e-16 5.44371e-16)
(0.964043 -1.37979e-15 4.93985e-17)
(0.964043 -8.32957e-16 5.40306e-16)
(0.966286 -1.36564e-15 5.24563e-17)
(0.966286 -8.45653e-16 5.2992e-16)
(0.968523 -1.35459e-15 5.3415e-17)
(0.968523 -8.64315e-16 5.15674e-16)
(0.970756 -1.34747e-15 5.2574e-17)
(0.970756 -8.68924e-16 5.06745e-16)
(0.972984 -1.35212e-15 5.04222e-17)
(0.972984 -8.69385e-16 5.05233e-16)
(0.975207 -1.34223e-15 5.37478e-17)
(0.975207 -8.81683e-16 4.90469e-16)
(0.977425 -1.32939e-15 5.46966e-17)
(0.977425 -8.72523e-16 4.71741e-16)
(0.979638 -1.31212e-15 5.62677e-17)
(0.979638 -8.67144e-16 4.60778e-16)
(0.981846 -1.30174e-15 6.0371e-17)
(0.981846 -8.70518e-16 4.45975e-16)
(0.984049 -1.29277e-15 5.97427e-17)
(0.984049 -8.65805e-16 4.33983e-16)
(0.986246 -1.28337e-15 6.12664e-17)
(0.986246 -8.71015e-16 4.14583e-16)
(0.988439 -1.27282e-15 6.24487e-17)
(0.988439 -8.67091e-16 3.98368e-16)
(0.990626 -1.26118e-15 6.53219e-17)
(0.990626 -8.67388e-16 3.82664e-16)
(0.992808 -1.24597e-15 6.58856e-17)
(0.992808 -8.68495e-16 3.63014e-16)
(0.994984 -1.22974e-15 7.05764e-17)
(0.994984 -8.57811e-16 3.41073e-16)
(0.997155 -1.24123e-15 6.61313e-17)
(0.997155 -8.52735e-16 3.30439e-16)
(0.99932 -1.22006e-15 7.19642e-17)
(0.99932 -8.46946e-16 3.02443e-16)
(1.00148 -1.18483e-15 7.84863e-17)
(1.00148 -8.63266e-16 2.88081e-16)
(1.00363 -1.15029e-15 7.4191e-17)
(1.00363 -8.8808e-16 2.78881e-16)
(1.00578 -1.12043e-15 8.44131e-17)
(1.00578 -8.87912e-16 2.56287e-16)
(1.00792 -1.09978e-15 7.99875e-17)
(1.00792 -8.81503e-16 2.42057e-16)
(1.01006 -1.06651e-15 8.15822e-17)
(1.01006 -8.71571e-16 2.20692e-16)
(1.01219 -1.04119e-15 8.69783e-17)
(1.01219 -8.61931e-16 1.97208e-16)
(1.01431 -1.0557e-15 7.74514e-17)
(1.01431 -8.63303e-16 2.0192e-16)
(1.01643 -1.04748e-15 8.49971e-17)
(1.01643 -8.62129e-16 1.84561e-16)
(1.01854 -1.01897e-15 8.27764e-17)
(1.01854 -8.6533e-16 1.8838e-16)
(1.02064 -1.00576e-15 8.15923e-17)
(1.02064 -8.5876e-16 1.81627e-16)
(1.02274 -9.86485e-16 7.85566e-17)
(1.02274 -8.56011e-16 1.62509e-16)
(1.02483 -9.6018e-16 8.31335e-17)
(1.02483 -8.57703e-16 1.43084e-16)
(1.02691 -9.52161e-16 8.74949e-17)
(1.02691 -8.5777e-16 1.4117e-16)
(1.02898 -9.4056e-16 8.30217e-17)
(1.02898 -8.50581e-16 1.53651e-16)
(1.03105 -9.14569e-16 7.9733e-17)
(1.03105 -8.4075e-16 1.54551e-16)
(1.03311 -9.08075e-16 8.55313e-17)
(1.03311 -8.35354e-16 1.34056e-16)
(1.03516 -8.95808e-16 9.36782e-17)
(1.03516 -8.45644e-16 1.26411e-16)
(1.0372 -8.84872e-16 7.14348e-17)
(1.0372 -8.54199e-16 1.22255e-16)
(1.03923 -8.85361e-16 8.27135e-17)
(1.03923 -8.28045e-16 1.12698e-16)
(1.04126 -8.87471e-16 6.97998e-17)
(1.04126 -8.0212e-16 1.19724e-16)
(1.04327 -8.57287e-16 9.2125e-17)
(1.04327 -7.99802e-16 1.07146e-16)
(1.04528 -8.2987e-16 7.91003e-17)
(1.04528 -7.93159e-16 1.04798e-16)
(1.04728 -8.00526e-16 8.43445e-17)
(1.04728 -7.62076e-16 7.93051e-17)
(1.04926 -7.81939e-16 1.01896e-16)
(1.04926 -7.85936e-16 7.01314e-17)
(1.05124 -7.56792e-16 1.01123e-16)
(1.05124 -7.63752e-16 9.61474e-17)
(1.05321 -7.46551e-16 1.03832e-16)
(1.05321 -7.66799e-16 1.0661e-16)
(1.05516 -7.33882e-16 1.05629e-16)
(1.05516 -7.70113e-16 9.79107e-17)
(1.0571 -7.27054e-16 7.53079e-17)
(1.0571 -7.52019e-16 9.99863e-17)
(1.05904 -7.43411e-16 6.6201e-17)
(1.05904 -7.14479e-16 9.40265e-17)
(1.06096 -7.25162e-16 8.0474e-17)
(1.06096 -7.02223e-16 9.0183e-17)
(1.06286 -7.10751e-16 8.4448e-17)
(1.06286 -7.01202e-16 1.00831e-16)
(1.06476 -7.07533e-16 9.74992e-17)
(1.06476 -7.01143e-16 9.9508e-17)
(1.06664 -6.90747e-16 7.45227e-17)
(1.06664 -6.88318e-16 7.68792e-17)
(1.0685 -6.79383e-16 8.3305e-17)
(1.0685 -6.87642e-16 5.47482e-17)
(1.07036 -7.32367e-16 4.38508e-17)
(1.07036 -6.61015e-16 8.01956e-17)
(1.07219 -7.12381e-16 5.05775e-17)
(1.07219 -6.50316e-16 9.3051e-17)
(1.07401 -6.84953e-16 6.74846e-17)
(1.07401 -6.48712e-16 9.25371e-17)
(1.07582 -6.64101e-16 5.77457e-17)
(1.07582 -6.62416e-16 7.66232e-17)
(1.07761 -6.35167e-16 6.70077e-17)
(1.07761 -7.18486e-16 3.34942e-17)
(1.07938 -6.17964e-16 5.29391e-17)
(1.07938 -6.5182e-16 3.72992e-17)
(1.08113 -6.20348e-16 5.93716e-17)
(1.08113 -6.61121e-16 6.80125e-17)
(1.08286 -6.11719e-16 2.33299e-17)
(1.08286 -6.79763e-16 6.59028e-17)
(1.08457 -5.98723e-16 3.5712e-17)
(1.08457 -6.49259e-16 3.08811e-17)
(1.08626 -5.98331e-16 2.88423e-17)
(1.08626 -6.17403e-16 5.60017e-17)
(1.08793 -6.0331e-16 9.26158e-18)
(1.08793 -6.0023e-16 7.64077e-17)
(1.08958 -6.09717e-16 1.79081e-18)
(1.08958 -5.88404e-16 4.75746e-17)
(1.0912 -6.02363e-16 6.97303e-31)
(1.0912 -5.73938e-16 3.59457e-17)
(1.0928 -5.72644e-16 1.30135e-17)
(1.0928 -5.56761e-16 3.89949e-33)
(1.09437 -5.28817e-16 5.25448e-18)
(1.09437 -5.36915e-16 1.23446e-17)
(1.09592 -5.38834e-16 -4.24061e-18)
(1.09592 -5.24832e-16 3.55429e-17)
(1.09744 -4.97068e-16 1.18725e-18)
(1.09744 -5.0331e-16 2.40725e-17)
(1.09892 -4.88045e-16 1.22835e-18)
(1.09892 -4.90369e-16 -4.65071e-18)
(1.10038 -4.51448e-16 -7.45923e-18)
(1.10038 -4.45764e-16 -7.54811e-18)
(1.1018 -4.41421e-16 -1.52192e-17)
(1.1018 -4.57309e-16 -1.259e-17)
(1.10318 -4.27023e-16 -5.89512e-18)
(1.10318 -4.79863e-16 -1.10952e-17)
(1.10453 -4.30529e-16 -1.66671e-17)
(1.10453 -3.98983e-16 3.34963e-18)
(1.10584 -4.17519e-16 -3.76637e-18)
(1.10584 -3.9657e-16 6.03524e-18)
(1.10711 -4.43957e-16 2.18428e-17)
(1.10711 -4.05254e-16 -2.82343e-18)
(1.10834 -4.05755e-16 -3.71008e-18)
(1.10834 -3.99903e-16 -6.07084e-18)
(1.10952 -3.88579e-16 -2.05489e-32)
(1.10952 -4.08265e-16 6.51712e-18)
(1.11066 -4.39141e-16 2.90828e-17)
(1.11066 -4.08381e-16 -1.14093e-18)
(1.11174 -4.34496e-16 8.96959e-18)
(1.11174 -4.16611e-16 -1.74698e-17)
(1.11277 -4.17171e-16 2.12926e-17)
(1.11277 -3.88606e-16 -1.20149e-17)
(1.11374 -4.04148e-16 1.61752e-17)
(1.11374 -3.81719e-16 3.29126e-17)
(1.11466 -3.7843e-16 1.45272e-17)
(1.11466 -3.9835e-16 3.15507e-17)
(1.11551 -3.45003e-16 -2.97728e-17)
(1.11551 -4.10362e-16 2.66713e-17)
(1.1163 -3.50245e-16 -2.54795e-17)
(1.1163 -4.12342e-16 6.55578e-17)
(1.11701 -3.87814e-16 3.24493e-17)
(1.11701 -3.51765e-16 7.81434e-17)
(1.11765 -4.02599e-16 1.85544e-17)
(1.11765 -3.24703e-16 2.6552e-17)
(1.11821 -3.89328e-16 6.95813e-18)
(1.11821 -3.74752e-16 3.09485e-18)
(1.11869 -3.75179e-16 1.47879e-17)
(1.11869 -3.62283e-16 -5.46784e-18)
(1.11908 -3.38616e-16 3.23227e-17)
(1.11908 -3.39323e-16 2.85895e-18)
(1.11939 -3.24385e-16 1.29436e-17)
(1.11939 -3.36704e-16 -1.76695e-18)
(1.11959 -3.25373e-16 -1.80466e-17)
(1.11959 -3.32897e-16 -6.46279e-18)
(1.1197 -3.12401e-16 -3.4075e-18)
(1.1197 -3.09066e-16 4.66208e-17)
(0.00225028 1.08693e-20 -2.70123e-19)
(0.00225028 1.48829e-20 -5.01084e-19)
(0.0067829 6.16622e-20 6.69961e-19)
(0.0067829 5.31791e-20 -2.34921e-17)
(0.0113807 1.66442e-19 -1.18307e-18)
(0.0113807 1.13046e-19 -2.41801e-17)
(0.0160447 2.79321e-19 1.61544e-19)
(0.0160447 1.7018e-19 -2.48885e-17)
(0.0207758 3.99189e-19 8.07547e-19)
(0.0207758 2.23132e-19 -2.56177e-17)
(0.025575 5.17685e-19 1.07118e-18)
(0.025575 2.78054e-19 -2.63684e-17)
(0.0304432 6.36762e-19 1.34517e-18)
(0.0304432 3.39488e-19 -2.71414e-17)
(0.0353813 7.50776e-19 1.18049e-18)
(0.0353813 4.34898e-19 -2.79371e-17)
(0.0403905 8.7508e-19 7.78292e-19)
(0.0403905 5.10248e-19 -2.87563e-17)
(0.0454717 1.01476e-18 3.60349e-19)
(0.0454717 5.86489e-19 -2.95996e-17)
(0.0506259 1.15867e-18 -7.64662e-20)
(0.0506259 6.69253e-19 -3.04678e-17)
(0.0558541 1.29753e-18 -5.32346e-19)
(0.0558541 7.39759e-19 -3.13616e-17)
(0.0611574 1.42784e-18 -1.00845e-18)
(0.0611574 8.247e-19 -3.22816e-17)
(0.0665369 1.56471e-18 -1.50458e-18)
(0.0665369 9.14599e-19 -3.32284e-17)
(0.0719934 1.71845e-18 -2.0225e-18)
(0.0719934 1.0141e-18 -3.4203e-17)
(0.0775282 1.89998e-18 -2.56225e-18)
(0.0775282 1.10847e-18 -3.52058e-17)
(0.0831421 2.0946e-18 -3.1254e-18)
(0.0831421 1.24418e-18 -3.62378e-17)
(0.0888362 2.22335e-18 -3.71095e-18)
(0.0888362 1.36416e-18 -3.72995e-17)
(0.0946115 2.38344e-18 -4.16046e-18)
(0.0946115 1.52159e-18 -3.83915e-17)
(0.100469 2.65642e-18 -4.2845e-18)
(0.100469 1.69545e-18 -3.95144e-17)
(0.106409 2.94986e-18 -4.41214e-18)
(0.106409 1.80129e-18 -4.06684e-17)
(0.112433 3.20998e-18 -4.54146e-18)
(0.112433 1.84041e-18 -4.18539e-17)
(0.118542 3.4575e-18 -4.673e-18)
(0.118542 1.88603e-18 -4.30709e-17)
(0.124736 3.6515e-18 -4.80787e-18)
(0.124736 1.93866e-18 -4.43198e-17)
(0.131016 3.74734e-18 -4.94638e-18)
(0.131016 2.08628e-18 -4.56004e-17)
(0.137383 3.87816e-18 -5.08858e-18)
(0.137383 2.29486e-18 -4.69122e-17)
(0.143835 4.01137e-18 -5.23255e-18)
(0.143835 2.39493e-18 -4.82542e-17)
(0.150374 4.11621e-18 -5.37861e-18)
(0.150374 2.55439e-18 -4.9625e-17)
(0.157 4.32195e-18 -5.52731e-18)
(0.157 2.76396e-18 -5.10235e-17)
(0.163711 4.57329e-18 -5.67933e-18)
(0.163711 2.89283e-18 -5.24488e-17)
(0.170507 4.81982e-18 -5.83427e-18)
(0.170507 3.07341e-18 -5.38988e-17)
(0.177387 5.09568e-18 -5.99169e-18)
(0.177387 3.37759e-18 -5.53709e-17)
(0.18435 5.38539e-18 -6.15091e-18)
(0.18435 3.64011e-18 -5.68615e-17)
(0.191393 5.63048e-18 -6.31183e-18)
(0.191393 3.75991e-18 -5.83673e-17)
(0.198514 5.82805e-18 -6.47468e-18)
(0.198514 4.02862e-18 -5.98837e-17)
(0.20571 6.02987e-18 -6.63622e-18)
(0.20571 4.37916e-18 -6.14061e-17)
(0.212977 6.25715e-18 -6.79894e-18)
(0.212977 4.76056e-18 -6.29299e-17)
(0.220313 6.53295e-18 -6.9593e-18)
(0.220313 5.03706e-18 -6.44487e-17)
(0.227711 6.91766e-18 -7.12184e-18)
(0.227711 5.12059e-18 -6.59572e-17)
(0.235167 7.2732e-18 -7.27829e-18)
(0.235167 5.40242e-18 -6.7448e-17)
(0.242675 7.65779e-18 -7.43019e-18)
(0.242675 5.80814e-18 -6.89144e-17)
(0.250229 8.00637e-18 -7.57393e-18)
(0.250229 6.01062e-18 -7.03498e-17)
(0.257822 8.23792e-18 -7.71418e-18)
(0.257822 6.28895e-18 -7.17478e-17)
(0.265447 8.59218e-18 -7.85215e-18)
(0.265447 6.66181e-18 -7.31045e-17)
(0.273096 8.97121e-18 -7.97606e-18)
(0.273096 6.79051e-18 -7.44114e-17)
(0.280761 9.32986e-18 -8.09663e-18)
(0.280761 7.18089e-18 -7.56638e-17)
(0.288434 9.5256e-18 -8.20665e-18)
(0.288434 7.72979e-18 -7.68546e-17)
(0.296106 9.72389e-18 -8.31099e-18)
(0.296106 8.21298e-18 -7.7982e-17)
(0.303769 9.95262e-18 -8.40631e-18)
(0.303769 8.82099e-18 -7.9041e-17)
(0.311416 1.00496e-17 -8.49515e-18)
(0.311416 9.64154e-18 -8.00291e-17)
(0.319036 1.02541e-17 -8.57467e-18)
(0.319036 1.00482e-17 -8.09432e-17)
(0.326624 1.05425e-17 -8.63545e-18)
(0.326624 1.04571e-17 -8.17827e-17)
(0.33417 1.07912e-17 -8.68427e-18)
(0.33417 1.08169e-17 -8.25488e-17)
(0.341669 1.09584e-17 -8.72252e-18)
(0.341669 1.11182e-17 -8.32437e-17)
(0.349113 1.11228e-17 -8.74787e-18)
(0.349113 1.1937e-17 -8.38671e-17)
(0.356495 1.14317e-17 -8.76187e-18)
(0.356495 1.25853e-17 -8.44255e-17)
(0.363811 1.15704e-17 -8.7719e-18)
(0.363811 1.2917e-17 -8.49237e-17)
(0.371056 1.17622e-17 -8.77324e-18)
(0.371056 1.33102e-17 -8.53649e-17)
(0.378224 1.24285e-17 -8.79613e-18)
(0.378224 1.35267e-17 -8.57534e-17)
(0.385313 1.27836e-17 -8.83067e-18)
(0.385313 1.38038e-17 -8.60936e-17)
(0.392318 1.29269e-17 -8.87337e-18)
(0.392318 1.41668e-17 -8.63905e-17)
(0.399237 1.37149e-17 -8.93113e-18)
(0.399237 1.43222e-17 -8.66454e-17)
(0.406068 1.45592e-17 -8.99233e-18)
(0.406068 1.43004e-17 -8.68609e-17)
(0.412809 1.50135e-17 -9.03697e-18)
(0.412809 1.45348e-17 -8.70451e-17)
(0.419458 1.56541e-17 -9.07854e-18)
(0.419458 1.50814e-17 -8.7201e-17)
(0.426016 1.63224e-17 -9.11794e-18)
(0.426016 1.54054e-17 -8.7336e-17)
(0.432481 1.62684e-17 -9.1327e-18)
(0.432481 1.6351e-17 -8.74602e-17)
(0.438854 1.62081e-17 -9.17057e-18)
(0.438854 1.70494e-17 -8.75728e-17)
(0.445134 1.6573e-17 -9.1856e-18)
(0.445134 1.76527e-17 -8.76785e-17)
(0.451322 1.7389e-17 -9.22074e-18)
(0.451322 1.84188e-17 -8.77877e-17)
(0.45742 1.83616e-17 -9.24516e-18)
(0.45742 1.85029e-17 -8.78928e-17)
(0.463427 1.89644e-17 -9.27932e-18)
(0.463427 1.84426e-17 -8.8001e-17)
(0.469345 1.92712e-17 -9.3279e-18)
(0.469345 1.83286e-17 -8.81151e-17)
(0.475175 2.00535e-17 -9.41392e-18)
(0.475175 1.8543e-17 -8.82369e-17)
(0.480919 2.10917e-17 -9.49271e-18)
(0.480919 1.89772e-17 -8.83696e-17)
(0.486578 2.17648e-17 -9.55469e-18)
(0.486578 1.94144e-17 -8.85186e-17)
(0.492154 2.25094e-17 -9.61555e-18)
(0.492154 2.03625e-17 -8.8685e-17)
(0.497648 2.3263e-17 -9.68333e-18)
(0.497648 2.0941e-17 -8.88688e-17)
(0.503062 2.40234e-17 -9.76555e-18)
(0.503062 2.14207e-17 -8.90743e-17)
(0.508398 2.45967e-17 -9.835e-18)
(0.508398 2.19221e-17 -8.93002e-17)
(0.513658 2.49824e-17 -1.08105e-17)
(0.513658 2.24431e-17 -8.9541e-17)
(0.518843 2.49382e-17 -1.40835e-17)
(0.518843 2.29145e-17 -8.98078e-17)
(0.523955 2.53189e-17 -1.73672e-17)
(0.523955 2.33306e-17 -9.0097e-17)
(0.528996 2.57903e-17 -2.07228e-17)
(0.528996 2.4272e-17 -9.03949e-17)
(0.533967 2.59066e-17 -2.41492e-17)
(0.533967 2.4138e-17 -9.07096e-17)
(0.538872 2.65163e-17 -2.76212e-17)
(0.538872 2.47995e-17 -9.10455e-17)
(0.54371 2.72712e-17 -3.11936e-17)
(0.54371 2.53243e-17 -9.13992e-17)
(0.548484 2.79275e-17 -3.47743e-17)