/*--------------------------------*- C++ -*----------------------------------*\
| =========                 |                                                 |
| \\      /  F ield         | OpenFOAM: The Open Source CFD Toolbox           |
|  \\    /   O peration     | Version:  2012                                  |
|   \\  /    A nd           | Website:  www.openfoam.com                      |
|    \\/     M anipulation  |                                                 |
\*---------------------------------------------------------------------------*/
FoamFile
{
    version     2.0;
    format      ascii;
    class       volTensorField;
    location    "9000";
    object      grad(U);
}
// * * * * * * * * * * * * * * * * * * * * * * * * * * * * * * * * * * * * * //

dimensions      [0 0 -1 0 0 0 0];


internalField   nonuniform List<tensor> 
2560
(
(0 4.15781e-30 1.29932e-31 22.3352 -1.38722e-11 -3.44729e-13 0.0323333 -1.00405e-14 -2.23293e-16)
(0 -2.05477e-28 -1.57424e-27 22.3352 -1.21664e-15 -3.56744e-14 0.0323333 -8.87694e-19 -3.57848e-17)
(0 -9.57221e-25 -1.20932e-26 22.3318 4.57159e-32 -4.57034e-14 0.0974598 0 -1.34238e-16)
(0 -8.19643e-30 -1.28069e-31 22.3318 -3.73893e-15 -2.70556e-14 0.0974598 -6.30248e-18 -2.20166e-16)
(-4.09298e-18 -4.04563e-30 -5.05425e-32 22.3286 1.50628e-12 -2.07361e-14 0.13403 -1.04843e-14 -1.1277e-16)
(0 1.61579e-29 2.52467e-31 22.3286 -4.22846e-15 -2.02503e-15 0.13403 -1.30297e-17 -2.26605e-16)
(1.31251e-17 -2.80863e-29 -2.02754e-31 22.3257 8.12895e-13 -1.9134e-14 0.135963 -7.44778e-15 -1.18656e-16)
(0 2.38895e-29 1.24424e-31 22.3257 -4.36504e-15 -2.04263e-15 0.135963 -2.01885e-17 -2.33215e-16)
(6.90408e-17 -3.13961e-29 -6.13206e-31 22.3231 1.5678e-13 -1.97703e-14 0.137924 -2.34552e-15 -1.23936e-16)
(0 2.35471e-29 4.90565e-31 22.3231 -4.42452e-15 -2.06333e-15 0.137924 -2.7647e-17 -2.40002e-16)
(9.96325e-17 -1.09396e-27 -2.05447e-31 22.3208 -3.15872e-14 -2.02005e-14 0.139916 -9.82912e-17 -1.27525e-16)
(1.84598e-16 1.54731e-29 2.41767e-31 22.3208 -4.48709e-15 -2.08583e-15 0.139916 -3.53768e-17 -2.46972e-16)
(-4.10092e-17 -1.41992e-44 -3.11823e-32 22.3187 1.63706e-27 -2.04933e-14 0.141938 -4.79034e-60 -1.3129e-16)
(1.64037e-16 1.52513e-29 3.57452e-31 22.3187 -4.60492e-15 -2.10897e-15 0.141938 -4.34242e-17 -2.54132e-16)
(-5.05732e-17 2.77001e-29 5.61197e-31 22.3168 1.49084e-14 -2.08241e-14 0.143991 -1.07626e-16 -1.3553e-16)
(2.02293e-16 -1.50327e-29 -2.34886e-31 22.3168 -4.72479e-15 -2.13134e-15 0.143991 -5.16758e-17 -2.6149e-16)
(1.25442e-16 -1.99693e-29 -3.26506e-31 22.3153 1.04312e-14 -2.11936e-14 0.146075 -8.31982e-17 -1.39973e-16)
(0 1.48173e-29 4.63039e-31 22.3153 -4.80813e-15 -2.15263e-15 0.146075 -6.04196e-17 -2.69047e-16)
(0 2.19073e-29 4.56403e-31 22.3139 7.57473e-15 -2.15707e-14 0.148191 -5.21618e-17 -1.4451e-16)
(-2.56932e-16 -1.46049e-29 0 22.3139 -4.86109e-15 -2.1747e-15 0.148191 -6.92106e-17 -2.76806e-16)
(-8.01024e-17 -3.08343e-29 -3.47371e-31 22.3128 7.39571e-15 -2.19466e-14 0.150339 -4.76931e-17 -1.4914e-16)
(0 3.59889e-29 6.74792e-31 22.3128 -4.92682e-15 -2.19612e-15 0.150339 -7.80279e-17 -2.84781e-16)
(9.02316e-17 -4.0626e-29 -7.71557e-31 22.3119 7.79657e-15 -2.23234e-14 0.15252 -5.12773e-17 -1.53894e-16)
(0 2.12839e-29 6.65121e-31 22.3119 -5.05864e-15 -2.21702e-15 0.15252 -8.72482e-17 -2.92965e-16)
(1.23021e-16 -2.09788e-29 -2.18529e-31 22.3113 8.11622e-15 -2.27038e-14 0.154734 -5.45707e-17 -1.58785e-16)
(0 2.09788e-29 2.18529e-31 22.3113 -5.1232e-15 -2.23961e-15 0.154734 -9.68824e-17 -3.01367e-16)
(-1.10933e-16 1.89349e-29 7.60913e-31 22.3108 8.35229e-15 -2.30887e-14 0.156981 -5.7213e-17 -1.63819e-16)
(3.22472e-16 -6.89271e-30 -4.30794e-31 22.3108 -5.18633e-15 -2.26349e-15 0.156981 -1.06704e-16 -3.09996e-16)
(0 2.71757e-29 1.06155e-30 22.3105 8.53898e-15 -2.34787e-14 0.159263 -5.94915e-17 -1.69003e-16)
(0 -2.71757e-29 -1.06155e-30 22.3105 -5.3412e-15 -2.28613e-15 0.159263 -1.17063e-16 -3.18863e-16)
(-1.32238e-16 5.14596e-30 1.23559e-31 22.3104 8.77091e-15 -2.38736e-14 0.161578 -6.15543e-17 -1.74338e-16)
(5.28954e-16 0 0 22.3104 -5.47e-15 -2.30861e-15 0.161578 -1.27929e-16 -3.27964e-16)
(0 2.64023e-29 8.25071e-31 22.3104 8.9402e-15 -2.42737e-14 0.163928 -6.45936e-17 -1.79834e-16)
(-5.72496e-16 -2.64023e-29 -8.25071e-31 22.3104 -5.58223e-15 -2.33024e-15 0.163928 -1.38926e-16 -3.3732e-16)
(0 2.60238e-29 6.09934e-31 22.3106 8.91644e-15 -2.46795e-14 0.166313 -6.58452e-17 -1.85495e-16)
(-6.16671e-16 -2.60238e-29 -6.09934e-31 22.3106 -5.48099e-15 -2.35012e-15 0.166313 -1.49936e-16 -3.46927e-16)
(4.51255e-16 -6.41271e-30 -4.00795e-31 22.3108 9.15546e-15 -2.50903e-14 0.168734 -6.61315e-17 -1.91315e-16)
(-2.25627e-16 1.28254e-29 4.00795e-31 22.3108 -5.64668e-15 -2.36964e-15 0.168734 -1.60038e-16 -3.5679e-16)
(1.7674e-16 7.50328e-30 4.4954e-31 22.3111 9.57944e-15 -2.55045e-14 0.17119 -7.13893e-17 -1.97285e-16)
(-7.06959e-16 -1.89624e-29 -9.87626e-31 22.3111 -5.99971e-15 -2.38946e-15 0.17119 -1.7201e-16 -3.66897e-16)
(-2.19206e-16 3.73813e-29 9.7347e-31 22.3114 9.66603e-15 -2.59219e-14 0.173681 -7.4575e-17 -2.03418e-16)
(2.19206e-16 -3.73813e-29 -9.7347e-31 22.3114 -5.93381e-15 -2.41526e-15 0.173681 -1.84883e-16 -3.7726e-16)
(-1.99973e-16 -7.14759e-30 -3.81459e-32 22.3116 9.61118e-15 -2.63432e-14 0.176208 -7.48286e-17 -2.09719e-16)
(0 2.45637e-29 3.83807e-31 22.3116 -5.94415e-15 -2.44194e-15 0.176208 -1.97315e-16 -3.87914e-16)
(1.12284e-18 -4.93438e-29 -2.11046e-30 22.3118 9.7499e-15 -2.67683e-14 0.178771 -7.58932e-17 -2.16188e-16)
(0 4.84232e-29 1.89153e-30 22.3118 -6.1012e-15 -2.46209e-15 0.178771 -2.10427e-16 -3.98866e-16)
(0 2.38646e-29 1.11865e-30 22.3118 1.03024e-14 -2.71964e-14 0.18137 -7.92435e-17 -2.22823e-16)
(-8.95555e-16 -2.98307e-29 -1.49154e-30 22.3118 -6.27718e-15 -2.47782e-15 0.18137 -2.2394e-16 -4.10113e-16)
(-1.77705e-16 2.42764e-29 9.31442e-31 22.3115 1.08005e-14 -2.76254e-14 0.184004 -8.70983e-17 -2.29597e-16)
(4.13813e-16 -2.94032e-29 -1.10262e-30 22.3115 -6.55379e-15 -2.4975e-15 0.184004 -2.38426e-16 -4.21625e-16)
(-4.97012e-16 3.923e-29 2.16609e-30 22.3109 1.06195e-14 -2.80541e-14 0.186673 -8.97816e-17 -2.36524e-16)
(0 -2.89818e-29 -1.81136e-30 22.3109 -6.56607e-15 -2.52425e-15 0.186673 -2.54332e-16 -4.33431e-16)
(1.18529e-15 -5.53603e-29 -2.33663e-30 22.3098 1.02705e-14 -2.84856e-14 0.189376 -8.6621e-17 -2.43648e-16)
(1.68663e-15 3.99929e-29 2.14248e-30 22.3098 -6.19981e-15 -2.55348e-15 0.189376 -2.70465e-16 -4.45547e-16)
(0 -2.81569e-29 -1.40785e-30 22.3082 1.07012e-14 -2.8918e-14 0.192113 -8.64867e-17 -2.50902e-16)
(1.09538e-15 2.81569e-29 1.40785e-30 22.3082 -6.12087e-15 -2.5797e-15 0.192113 -2.85543e-16 -4.58002e-16)
(2.86791e-16 1.15354e-29 4.9671e-31 22.3058 1.15179e-14 -2.93468e-14 0.194882 -9.65761e-17 -2.58277e-16)
(0 -5.55068e-30 -3.46917e-31 22.3058 -6.69239e-15 -2.59316e-15 0.194882 -3.00597e-16 -4.70814e-16)
(-5.99849e-16 1.56974e-29 6.63383e-32 22.3025 1.17204e-14 -2.97711e-14 0.197682 -1.03292e-16 -2.65774e-16)
(-2.3994e-15 -5.47112e-30 3.41945e-31 22.3025 -7.09177e-15 -2.59814e-15 0.197682 -3.18358e-16 -4.83925e-16)
(-3.13249e-16 2.12887e-29 1.22251e-30 22.2982 1.16228e-14 -3.01903e-14 0.200512 -1.02996e-16 -2.73383e-16)
(-1.253e-15 -1.07854e-29 -3.37044e-31 22.2982 -7.00721e-15 -2.61791e-15 0.200512 -3.36947e-16 -4.97298e-16)
(0 2.65771e-29 1.99328e-30 22.2925 1.18616e-14 -3.06047e-14 0.203369 -1.04562e-16 -2.81122e-16)
(-1.30706e-15 -2.65771e-29 -1.99328e-30 22.2925 -7.11483e-15 -2.65341e-15 0.203369 -3.54947e-16 -5.10987e-16)
(0 -4.19139e-29 -1.96471e-30 22.2853 1.21918e-14 -3.10104e-14 0.206252 -1.1037e-16 -2.88902e-16)
(1.36191e-15 4.19139e-29 1.96471e-30 22.2853 -7.21024e-15 -2.67804e-15 0.206252 -3.73904e-16 -5.25057e-16)
(-3.54386e-16 5.10118e-30 2.34486e-31 22.2762 1.22724e-14 -3.14038e-14 0.209156 -1.13739e-16 -2.96745e-16)
(0 5.16414e-30 0 22.2762 -7.1697e-15 -2.6839e-15 0.209156 -3.92963e-16 -5.39477e-16)
(-1.08486e-15 3.0549e-29 1.83334e-30 22.265 1.24218e-14 -3.17835e-14 0.21208 -1.15116e-16 -3.04602e-16)
(7.16371e-16 -2.54506e-29 -1.59066e-30 22.265 -7.33997e-15 -2.68494e-15 0.21208 -4.10736e-16 -5.54189e-16)
(-3.82801e-16 3.51981e-29 1.81899e-30 22.2512 1.27463e-14 -3.21468e-14 0.215018 -1.19918e-16 -3.1246e-16)
(-1.53121e-15 -2.00687e-29 -1.25429e-30 22.2512 -7.66809e-15 -2.688e-15 0.215018 -4.29282e-16 -5.69216e-16)
(3.97312e-16 -2.98179e-29 -1.18708e-30 22.2346 1.32505e-14 -3.24895e-14 0.217967 -1.24763e-16 -3.20247e-16)
(0 2.47263e-29 9.27237e-31 22.2346 -7.98265e-15 -2.69306e-15 0.217967 -4.4952e-16 -5.84512e-16)
(4.12027e-16 -2.94592e-29 -2.09673e-30 22.2147 1.36575e-14 -3.28068e-14 0.22092 -1.33319e-16 -3.27928e-16)
(0 2.43719e-29 1.82789e-30 22.2147 -8.06043e-15 -2.68922e-15 0.22092 -4.71766e-16 -6.00147e-16)
(-4.26946e-16 2.43015e-29 1.47922e-30 22.191 1.39992e-14 -3.30953e-14 0.223873 -1.36516e-16 -3.35452e-16)
(-6.76176e-16 -9.60904e-30 -6.00565e-31 22.191 -8.27054e-15 -2.68829e-15 0.223873 -4.96069e-16 -6.16008e-16)
(0 1.89426e-29 1.18391e-30 22.163 1.45414e-14 -3.33493e-14 0.226819 -1.44123e-16 -3.42736e-16)
(0 -2.36783e-29 -1.18391e-30 22.163 -8.52982e-15 -2.70019e-15 0.226819 -5.21318e-16 -6.32147e-16)
(-4.57404e-16 5.07337e-30 2.97437e-31 22.1302 1.44109e-14 -3.35644e-14 0.229749 -1.51621e-16 -3.49748e-16)
(1.82962e-15 4.66779e-30 5.83473e-31 22.1302 -8.15291e-15 -2.70031e-15 0.229749 -5.46339e-16 -6.48629e-16)
(0 -2.30044e-29 -2.30044e-30 22.0919 1.41965e-14 -3.37398e-14 0.232656 -1.45633e-16 -3.56474e-16)
(1.89177e-15 2.30044e-29 2.30044e-30 22.0919 -8.17565e-15 -2.68435e-15 0.232656 -5.70828e-16 -6.65404e-16)
(-1.49549e-16 2.21437e-29 8.15879e-31 22.0476 1.45425e-14 -3.38689e-14 0.235531 -1.51543e-16 -3.62754e-16)
(-1.31651e-15 -3.17446e-29 -2.26747e-30 22.0476 -8.58142e-15 -2.66299e-15 0.235531 -5.98222e-16 -6.82424e-16)
(5.04637e-16 -2.29411e-29 -1.44596e-30 21.9966 1.46431e-14 -3.39458e-14 0.238364 -1.57299e-16 -3.68585e-16)
(0 1.78798e-29 1.11749e-30 21.9966 -8.51334e-15 -2.65101e-15 0.238364 -6.24351e-16 -6.99582e-16)
(9.92808e-17 5.05732e-30 -2.11363e-31 21.9381 1.52262e-14 -3.39656e-14 0.241144 -1.58166e-16 -3.73816e-16)
(-6.20072e-16 8.81176e-30 1.10147e-30 21.9381 -8.7667e-15 -2.63438e-15 0.241144 -6.51969e-16 -7.16988e-16)
(5.37147e-16 1.23206e-29 -3.50535e-31 21.8715 1.5951e-14 -3.39202e-14 0.243859 -1.74742e-16 -3.78368e-16)
(2.14859e-15 -8.68546e-30 0 21.8715 -9.07331e-15 -2.59567e-15 0.243859 -6.79953e-16 -7.34497e-16)
(0 -1.28415e-29 -1.60518e-30 21.7961 1.565e-14 -3.3809e-14 0.246498 -1.78989e-16 -3.82247e-16)
(2.21481e-15 1.28415e-29 1.60518e-30 21.7961 -9.12887e-15 -2.55763e-15 0.246498 -7.09378e-16 -7.52047e-16)
(-5.70453e-16 1.34799e-29 3.7359e-31 21.7111 1.55177e-14 -3.36297e-14 0.249048 -1.7304e-16 -3.85331e-16)
(0 0 1.05478e-30 21.7111 -9.48898e-15 -2.51603e-15 0.249048 -7.42674e-16 -7.69756e-16)
(-5.87394e-16 5.03588e-30 3.85473e-31 21.6157 1.60894e-14 -3.33747e-14 0.251495 -1.81191e-16 -3.87496e-16)
(0 8.31733e-30 1.03967e-30 21.6157 -9.81588e-15 -2.4654e-15 0.251495 -7.77542e-16 -7.87467e-16)
(5.76892e-16 -1.63963e-29 -1.02477e-30 21.5094 1.63217e-14 -3.3043e-14 0.253827 -1.91442e-16 -3.8877e-16)
(0 1.63963e-29 1.53715e-30 21.5094 -9.54689e-15 -2.40826e-15 0.253827 -8.10761e-16 -8.05192e-16)
(-1.19045e-15 5.02512e-30 -9.52048e-32 21.3914 1.64811e-14 -3.26351e-14 0.25603 -1.91996e-16 -3.89055e-16)
(0 1.61613e-29 2.02016e-30 21.3914 -9.52193e-15 -2.34008e-15 0.25603 -8.41948e-16 -8.22801e-16)
(-1.12095e-15 3.18592e-29 2.9868e-30 21.2611 1.73024e-14 -3.21487e-14 0.258089 -2.00876e-16 -3.8831e-16)
(-1.99676e-15 -3.18592e-29 -2.489e-30 21.2611 -1.02453e-14 -2.27133e-15 0.258089 -8.75882e-16 -8.40209e-16)
(-6.56953e-16 -1.85403e-29 -2.50909e-30 21.118 1.8044e-14 -3.15792e-14 0.259992 -2.17626e-16 -3.8638e-16)
(2.62781e-15 2.3552e-29 3.43466e-30 21.118 -1.10449e-14 -2.17902e-15 0.259992 -9.14368e-16 -8.57414e-16)
(0 3.09525e-29 2.9018e-30 20.9615 1.799e-14 -3.09263e-14 0.261727 -2.25084e-16 -3.83316e-16)
(0 -3.09525e-29 -2.9018e-30 20.9615 -1.15388e-14 -2.05994e-15 0.261727 -9.55053e-16 -8.74244e-16)
(-6.92698e-16 2.02536e-29 2.36724e-30 20.7913 1.75861e-14 -3.01977e-14 0.263281 -2.22648e-16 -3.79167e-16)
(2.77079e-15 -1.52545e-29 -1.90681e-30 20.7913 -1.12652e-14 -1.94415e-15 0.263281 -9.9437e-16 -8.90641e-16)
(2.47961e-15 -2.50234e-29 -2.82601e-30 20.6072 1.70334e-14 -2.93996e-14 0.264643 -2.21406e-16 -3.7395e-16)
(1.78506e-15 1.50358e-29 1.87948e-30 20.6072 -1.04915e-14 -1.83443e-15 0.264643 -1.03628e-15 -9.06694e-16)
(0 -2.22305e-29 -1.85254e-30 20.409 1.68395e-14 -2.85379e-14 0.265804 -2.14906e-16 -3.67717e-16)
(0 2.22305e-29 1.85254e-30 20.409 -9.9391e-15 -1.76107e-15 0.265804 -1.0813e-15 -9.22205e-16)
(-7.47292e-16 -9.62508e-30 -4.1412e-31 20.1966 1.73024e-14 -2.76142e-14 0.266755 -2.22815e-16 -3.60371e-16)
(0 2.19119e-29 2.73898e-30 20.1966 -9.61606e-15 -1.70441e-15 0.266755 -1.12359e-15 -9.37461e-16)
(-1.5314e-15 2.43497e-29 2.82295e-30 19.9703 1.76752e-14 -2.66359e-14 0.26749 -2.33497e-16 -3.52126e-16)
(3.0628e-15 -2.15978e-29 -2.69972e-30 19.9703 -9.68337e-15 -1.58628e-15 0.26749 -1.16408e-15 -9.52432e-16)
(-7.84189e-16 4.96875e-30 5.24148e-31 19.7302 1.80566e-14 -2.56136e-14 0.268005 -2.39388e-16 -3.42981e-16)
(0 7.09608e-30 8.8701e-31 19.7302 -1.01598e-14 -1.45301e-15 0.268005 -1.2049e-15 -9.66676e-16)
(-8.02745e-16 -2.03347e-30 -3.3773e-31 19.4767 1.85578e-14 -2.45557e-14 0.268297 -2.50763e-16 -3.33099e-16)
(3.21098e-15 1.39888e-29 1.74859e-30 19.4767 -1.01092e-14 -1.33479e-15 0.268297 -1.24436e-15 -9.80456e-16)
(-8.21353e-16 2.56352e-29 2.27234e-30 19.2105 1.90974e-14 -2.34697e-14 0.268364 -2.60302e-16 -3.22468e-16)
(-9.70262e-16 -1.37883e-29 -8.61766e-31 19.2105 -1.05318e-14 -1.24113e-15 0.268364 -1.28068e-15 -9.93388e-16)
(-2.63635e-15 3.02731e-29 2.82044e-30 18.932 1.97519e-14 -2.2364e-14 0.268207 -2.73292e-16 -3.11292e-16)
(-2.40363e-15 -2.0386e-29 -1.69883e-30 18.932 -1.1084e-14 -1.14133e-15 0.268207 -1.33032e-15 -1.00592e-15)
(-1.71732e-15 -2.36216e-29 -1.36668e-30 18.6422 2.05143e-14 -2.12511e-14 0.267831 -2.86613e-16 -2.9968e-16)
(6.86927e-15 2.00938e-29 1.67448e-30 18.6422 -1.14909e-14 -1.03015e-15 0.267831 -1.38547e-15 -1.01746e-15)
(-2.63198e-15 4.77817e-29 5.87789e-30 18.3419 2.04345e-14 -2.01418e-14 0.26724 -3.03378e-16 -2.87816e-16)
(-3.5093e-15 -3.30096e-29 -4.1262e-30 18.3419 -1.18504e-14 -9.46671e-16 0.26724 -1.44234e-15 -1.02858e-15)
(-8.9598e-16 -2.11109e-29 -3.47213e-30 18.0321 1.89694e-14 -1.9047e-14 0.26644 -2.92665e-16 -2.75819e-16)
(2.6681e-15 3.25365e-29 4.06706e-30 18.0321 -1.03283e-14 -8.39625e-16 0.26644 -1.49675e-15 -1.03934e-15)
(9.14606e-16 -1.77429e-29 -3.01086e-30 17.7138 1.78827e-14 -1.79779e-14 0.26544 -2.68589e-16 -2.63913e-16)
(0 1.28281e-29 2.40526e-30 17.7138 -9.83911e-15 -7.58527e-16 0.26544 -1.53972e-15 -1.04896e-15)
(0 -3.16105e-29 -3.95132e-30 17.388 1.77053e-14 -1.69397e-14 0.26425 -2.6837e-16 -2.52042e-16)
(3.73276e-15 3.16105e-29 3.95132e-30 17.388 -1.06941e-14 -6.61533e-16 0.26425 -1.58769e-15 -1.05842e-15)
(0 -1.86945e-29 -1.55787e-30 17.056 1.82449e-14 -1.59415e-14 0.26288 -2.71012e-16 -2.4057e-16)
(3.80687e-15 1.86945e-29 1.55787e-30 17.056 -1.07172e-14 -5.07672e-16 0.26288 -1.63796e-15 -1.06709e-15)
(-8.64435e-16 1.84265e-29 1.53555e-30 16.7188 1.95582e-14 -1.49842e-14 0.261341 -2.9303e-16 -2.2919e-16)
(3.88068e-15 -6.14218e-30 0 16.7188 -1.09219e-14 -4.01184e-16 0.261341 -1.69049e-15 -1.07472e-15)
(0 3.02707e-29 3.02707e-30 16.3776 1.97581e-14 -1.40722e-14 0.259648 -3.20432e-16 -2.18392e-16)
(0 -3.02707e-29 -3.02707e-30 16.3776 -1.15021e-14 -3.36966e-16 0.259648 -1.74577e-15 -1.08189e-15)
(-2.01362e-15 9.74316e-30 1.30608e-30 16.0336 1.91015e-14 -1.32102e-14 0.257811 -3.08018e-16 -2.07883e-16)
(0 0 0 16.0336 -1.14767e-14 -2.64617e-16 0.257811 -1.80759e-15 -1.08846e-15)
(0 -2.94092e-29 -2.94092e-30 15.6877 1.894e-14 -1.24009e-14 0.255846 -3.08473e-16 -1.98096e-16)
(4.09989e-15 2.94092e-29 2.94092e-30 15.6877 -1.11002e-14 -1.78674e-16 0.255846 -1.86582e-15 -1.09433e-15)
(0 1.73926e-29 7.24693e-31 15.341 1.86239e-14 -1.16493e-14 0.253764 -3.11713e-16 -1.88824e-16)
(4.17206e-15 -1.15951e-29 0 15.341 -1.16535e-14 -6.97839e-17 0.253764 -1.9197e-15 -1.09939e-15)
(-1.06093e-15 4.84671e-30 1.39106e-30 14.9946 1.87245e-14 -1.09535e-14 0.251579 -3.06933e-16 -1.80276e-16)
(0 1.14289e-29 0 14.9946 -1.25488e-14 4.95819e-17 0.251579 -1.98505e-15 -1.1039e-15)
(1.0787e-15 1.2062e-29 1.42829e-30 14.6493 1.92337e-14 -1.03168e-14 0.249304 -3.2426e-16 -1.72429e-16)
(0 -1.12651e-29 -1.40814e-30 14.6493 -1.27006e-14 1.49596e-16 0.249304 -2.05632e-15 -1.10772e-15)
(0 -1.66555e-29 -2.08193e-30 14.3059 1.91671e-14 -9.73859e-15 0.246952 -3.3346e-16 -1.65352e-16)
(0 1.66555e-29 2.08193e-30 14.3059 -1.22939e-14 2.22285e-16 0.246952 -2.12151e-15 -1.11069e-15)
(1.5403e-15 -1.09445e-29 -1.36806e-30 13.9654 1.82474e-14 -9.21502e-15 0.244535 -3.31434e-16 -1.5892e-16)
(0 1.09445e-29 1.36806e-30 13.9654 -1.23642e-14 3.10998e-16 0.244535 -2.18798e-15 -1.11351e-15)
(-2.26221e-15 -6.55772e-30 5.83398e-32 13.6283 1.7689e-14 -8.74505e-15 0.242064 -3.10622e-16 -1.53292e-16)
(0 1.61815e-29 1.34845e-30 13.6283 -1.27578e-14 4.35061e-16 0.242064 -2.2575e-15 -1.11567e-15)
(-2.64472e-15 2.07508e-29 4.69668e-30 13.2954 1.86164e-14 -8.3255e-15 0.23955 -3.2106e-16 -1.48266e-16)
(1.49647e-15 -1.59495e-29 -3.98738e-30 13.2954 -1.27197e-14 5.04415e-16 0.23955 -2.32636e-15 -1.11713e-15)
(1.16523e-15 -4.7873e-30 -2.02499e-30 12.9671 1.91999e-14 -7.959e-15 0.237002 -3.53562e-16 -1.44215e-16)
(-6.13593e-15 0 1.31008e-30 12.9671 -1.30622e-14 5.17699e-16 0.237002 -2.39958e-15 -1.11877e-15)
(1.45388e-15 -1.54956e-29 -1.2913e-30 12.644 1.8931e-14 -7.64688e-15 0.234432 -3.52066e-16 -1.40887e-16)
(-4.72812e-15 1.54956e-29 1.2913e-30 12.644 -1.29542e-14 5.7669e-16 0.234432 -2.48114e-15 -1.1198e-15)
(-1.19866e-15 2.00434e-29 1.99834e-30 12.3265 1.8312e-14 -7.37577e-15 0.231846 -3.53818e-16 -1.38109e-16)
(8.15621e-15 -5.09117e-30 0 12.3265 -1.1415e-14 6.93916e-16 0.231846 -2.55631e-15 -1.11985e-15)
(1.2151e-15 1.02912e-29 3.03309e-30 12.0149 1.70834e-14 -7.15196e-15 0.229254 -3.38794e-16 -1.36362e-16)
(4.86041e-15 -2.5091e-29 -5.01821e-30 12.0149 -1.07391e-14 7.79243e-16 0.229254 -2.62051e-15 -1.11961e-15)
(0 0 -1.23657e-30 11.7096 1.62341e-14 -6.97652e-15 0.226662 -3.16687e-16 -1.35274e-16)
(0 9.89256e-30 2.47314e-30 11.7096 -9.86308e-15 8.13728e-16 0.226662 -2.69291e-15 -1.11962e-15)
(-1.24746e-15 -2.4501e-29 -4.13508e-30 11.4107 1.60652e-14 -6.83434e-15 0.224077 -3.15408e-16 -1.34699e-16)
(3.61753e-15 2.92523e-29 6.09424e-30 11.4107 -8.48613e-15 7.95097e-16 0.224077 -2.7459e-15 -1.11928e-15)
(-1.26336e-15 1.91593e-29 1.94644e-30 11.1184 1.60038e-14 -6.72254e-15 0.221504 -3.19244e-16 -1.34724e-16)
(-5.05345e-15 -9.61102e-30 -1.20138e-30 11.1184 -8.19643e-15 7.78082e-16 0.221504 -2.79887e-15 -1.11958e-15)
(1.27909e-15 -1.89445e-29 -8.79393e-29 10.833 1.62677e-14 -1.64649e-15 0.21895 -3.22171e-16 -1.67367e-17)
(5.11635e-15 1.42099e-29 1.18416e-30 10.833 -7.58041e-15 7.80777e-16 0.21895 -2.85354e-15 -1.11928e-15)
(-1.29463e-15 2.80676e-29 -3.9838e-42 10.5544 1.65839e-14 7.61323e-29 0.216418 -3.39402e-16 7.88861e-31)
(5.17853e-15 -2.33437e-29 -4.66875e-30 10.5544 -7.89927e-15 7.34673e-16 0.216418 -2.89757e-15 -1.11928e-15)
(-1.31e-15 4.71451e-30 7.00069e-31 10.2828 1.64936e-14 1.92571e-14 0.213912 -3.44749e-16 -3.99656e-16)
(0 0 0 10.2828 -9.01169e-15 7.2373e-16 0.213912 -2.9598e-15 -1.1206e-15)
(-1.32518e-15 4.706e-30 -4.48768e-31 10.0181 1.64423e-14 1.92449e-14 0.211437 -3.45536e-16 -4.06327e-16)
(0 9.07175e-30 2.26794e-30 10.0181 -8.82499e-15 7.54804e-16 0.211437 -3.01931e-15 -1.12132e-15)
(-2.59863e-15 -1.76581e-29 -2.68271e-30 9.76032 1.63361e-14 1.907e-14 0.208994 -3.52654e-16 -4.10842e-16)
(5.36077e-15 2.23543e-29 3.35315e-30 9.76032 -8.06057e-15 7.85767e-16 0.208994 -3.0749e-15 -1.12195e-15)
(1.35503e-15 -1.79079e-29 -2.85972e-30 9.50947 1.60164e-14 1.88788e-14 0.206588 -3.51048e-16 -4.10643e-16)
(0 1.32204e-29 2.20339e-30 9.50947 -7.46245e-15 8.13054e-16 0.206588 -3.1395e-15 -1.1233e-15)
(2.44524e-15 -1.30309e-29 -2.17181e-30 9.26547 1.52279e-14 1.88712e-14 0.204219 -3.48912e-16 -4.14461e-16)
(-2.44524e-15 1.30309e-29 2.17181e-30 9.26547 -7.71319e-15 7.41393e-16 0.204219 -3.20474e-15 -1.12404e-15)
(-1.38419e-15 3.92547e-31 -4.44523e-31 9.02822 1.51545e-14 1.87982e-14 0.20189 -3.26119e-16 -4.22331e-16)
(0 1.28441e-29 2.14069e-30 9.02822 -8.32053e-15 6.43344e-16 0.20189 -3.27826e-15 -1.12499e-15)
(0 -4.22001e-29 -6.33001e-30 8.79765 1.64145e-14 1.85854e-14 0.199602 -3.55804e-16 -4.23293e-16)
(1.11881e-14 4.22001e-29 7.38501e-30 8.79765 -8.14506e-15 6.17482e-16 0.199602 -3.3543e-15 -1.12586e-15)
(-1.1708e-15 4.15952e-30 -1.03988e-30 8.57363 1.62158e-14 1.83159e-14 0.197356 -3.93594e-16 -4.24921e-16)
(5.6507e-15 8.31905e-30 2.07976e-30 8.57363 -8.58043e-15 6.81141e-16 0.197356 -3.42076e-15 -1.12797e-15)
(-3.73472e-15 3.33398e-29 5.70631e-30 8.35605 1.57934e-14 1.71807e-14 0.195153 -3.56959e-16 -4.23121e-16)
(-5.7067e-15 -2.45994e-29 -4.09991e-30 8.35605 -9.8332e-15 7.3748e-16 0.195153 -3.49788e-15 -1.1304e-15)
(-3.71548e-15 1.27092e-29 2.59413e-30 8.14477 1.62376e-14 1.28811e-14 0.192995 -3.85138e-16 -3.83655e-16)
(-5.76206e-15 -4.04115e-30 -2.02057e-30 8.14477 -9.55813e-15 7.28043e-16 0.192995 -3.58138e-15 -1.13306e-15)
(0 1.19497e-29 1.99161e-30 7.93966 1.59465e-14 9.55141e-15 0.19088 -3.8874e-16 -2.29116e-16)
(0 -3.98323e-30 -9.95806e-31 7.93966 -8.22496e-15 6.42498e-16 0.19088 -3.64254e-15 -1.13448e-15)
(0 1.17784e-29 9.81534e-31 7.74056 1.63327e-14 9.48026e-15 0.188811 -3.82241e-16 -2.3273e-16)
(5.87093e-15 -3.92614e-30 0 7.74056 -9.35655e-15 6.37385e-16 0.188811 -3.69086e-15 -1.13802e-15)
(-6.97425e-16 3.4109e-29 5.23466e-30 7.54734 1.62722e-14 9.34695e-15 0.186786 -4.19212e-16 -2.32312e-16)
(0 -3.09589e-29 -4.83733e-30 7.54734 -1.08453e-14 7.7337e-16 0.186786 -3.76223e-15 -1.14006e-15)
(0 -4.57728e-29 -6.6752e-30 7.35983 1.47683e-14 9.19554e-15 0.184805 -3.90404e-16 -2.32865e-16)
(1.19548e-14 4.57728e-29 6.6752e-30 7.35983 -9.62988e-15 9.05905e-16 0.184805 -3.83436e-15 -1.14271e-15)
(0 -7.51946e-30 -1.87986e-30 7.17789 1.33571e-14 8.97784e-15 0.18287 -3.55009e-16 -2.31417e-16)
(1.20595e-14 1.50389e-29 1.87986e-30 7.17789 -9.41573e-15 1.00217e-15 0.18287 -3.88695e-15 -1.14427e-15)
(-3.04079e-15 9.14071e-30 1.09322e-30 7.00135 1.2994e-14 8.73757e-15 0.180978 -3.29025e-16 -2.28453e-16)
(0 0 0 7.00135 -9.39524e-15 1.091e-15 0.180978 -3.96263e-15 -1.14576e-15)
(-1.53321e-15 4.55934e-30 5.39178e-31 6.83007 1.43167e-14 8.46695e-15 0.17913 -3.464e-16 -2.25619e-16)
(1.22657e-14 7.30546e-30 9.13182e-31 6.83007 -8.60751e-15 1.25357e-15 0.17913 -4.03163e-15 -1.14644e-15)
(-4.80942e-16 -1.89409e-29 -3.23252e-30 6.66389 1.53409e-14 8.14173e-15 0.177325 -4.08913e-16 -2.20773e-16)
(2.02683e-15 1.44015e-29 2.70028e-30 6.66389 -1.02088e-14 1.28855e-15 0.177325 -4.09364e-15 -1.14494e-15)
(-1.55844e-15 -2.5688e-30 5.25666e-31 6.50265 1.43867e-14 7.80528e-15 0.175563 -4.11729e-16 -2.14704e-16)
(0 1.41951e-29 8.87193e-31 6.50265 -1.07095e-14 1.40279e-15 0.175563 -4.17963e-15 -1.1455e-15)
(-1.57086e-15 1.8518e-29 2.26843e-30 6.34621 1.35155e-14 7.47663e-15 0.173843 -3.68733e-16 -2.08849e-16)
(6.28344e-15 -1.39916e-29 -1.74895e-30 6.34621 -8.12687e-15 1.6566e-15 0.173843 -4.26394e-15 -1.14275e-15)
(-1.58315e-15 1.14107e-29 3.09938e-30 6.19441 1.40659e-14 7.21013e-15 0.172165 -3.75471e-16 -2.02767e-16)
(2.45077e-15 0 -1.72389e-30 6.19441 -6.76146e-15 1.69774e-15 0.172165 -4.32663e-15 -1.13763e-15)
(-3.19066e-15 8.9982e-30 1.64715e-31 6.04711 1.36368e-14 6.93e-15 0.170527 -4.10504e-16 -1.99971e-16)
(0 0 8.4959e-31 6.04711 -7.39581e-15 1.73152e-15 0.170527 -4.39975e-15 -1.13404e-15)
(-1.60738e-15 1.78945e-29 3.01388e-30 5.90417 1.21179e-14 6.70679e-15 0.16893 -3.61977e-16 -1.92716e-16)
(-1.88569e-15 -6.69931e-30 -8.37413e-31 5.90417 -8.88449e-15 1.89355e-15 0.16893 -4.4802e-15 -1.13078e-15)
(1.85866e-15 -1.32066e-29 -1.65082e-30 5.76544 1.27384e-14 6.54889e-15 0.167371 -3.34563e-16 -1.92902e-16)
(-6.47728e-15 1.98099e-29 2.47623e-30 5.76544 -9.69761e-15 2.1126e-15 0.167371 -4.56525e-15 -1.12556e-15)
(1.63115e-15 -1.74859e-29 -2.11659e-30 5.63079 1.38284e-14 6.26644e-15 0.165852 -4.09038e-16 -1.89083e-16)
(6.52458e-15 1.30173e-29 1.62716e-30 5.63079 -9.11789e-15 2.22564e-15 0.165852 -4.65469e-15 -1.11633e-15)
(1.64286e-15 -1.72872e-29 -2.89006e-30 5.50008 1.36835e-14 5.99726e-15 0.164369 -4.09337e-16 -1.81716e-16)
(-6.57144e-15 1.28307e-29 2.40576e-30 5.50008 -8.95986e-15 2.22057e-15 0.164369 -4.75308e-15 -1.10848e-15)
(-1.65447e-15 1.70919e-29 1.26915e-30 5.37319 1.38294e-14 5.74941e-15 0.162924 -4.12256e-16 -1.78343e-16)
(3.0581e-15 0 0 5.37319 -7.91043e-15 2.3392e-15 0.162924 -4.83734e-15 -1.10149e-15)
(1.75437e-15 1.24656e-29 2.33729e-30 5.24999 1.42345e-14 5.53369e-15 0.161515 -4.30285e-16 -1.71831e-16)
(-1.75437e-15 -6.23278e-30 -7.79098e-31 5.24999 -5.99588e-15 2.49322e-15 0.161515 -4.88715e-15 -1.09262e-15)
(-3.45845e-15 1.22869e-29 3.07172e-30 5.13036 1.46344e-14 5.31475e-15 0.160141 -4.49547e-16 -1.70139e-16)
(4.98023e-15 0 -1.53586e-30 5.13036 -5.51746e-15 2.52055e-15 0.160141 -4.95125e-15 -1.08015e-15)
(1.68866e-15 -1.65128e-29 -1.97767e-30 5.01417 1.38814e-14 5.05161e-15 0.158802 -4.68147e-16 -1.63038e-16)
(0 1.21108e-29 1.51385e-30 5.01417 -6.82707e-15 2.5442e-15 0.158802 -5.02169e-15 -1.07009e-15)
(0 1.19372e-29 1.49215e-30 4.90131 1.23528e-14 4.93949e-15 0.157496 -4.14467e-16 -1.58262e-16)
(-8.47946e-15 0 -7.46076e-31 4.90131 -6.55392e-15 2.62201e-15 0.157496 -5.09724e-15 -1.05957e-15)
(-1.65593e-15 0 7.35383e-31 4.79168 1.14925e-14 4.92208e-15 0.156223 -3.82494e-16 -1.60525e-16)
(0 5.88306e-30 7.35383e-31 4.79168 -4.93485e-15 2.68483e-15 0.156223 -5.16094e-15 -1.04749e-15)
(0 1.15975e-29 2.17453e-30 4.68515 1.09124e-14 4.90214e-15 0.154983 -3.69875e-16 -1.6175e-16)
(-3.2644e-15 -5.79874e-30 -1.44969e-30 4.68515 -4.66466e-15 2.70169e-15 0.154983 -5.22128e-15 -1.03492e-15)
(1.7329e-15 2.42007e-29 2.41577e-30 4.58164 1.04577e-14 4.9749e-15 0.153773 -3.54881e-16 -1.63893e-16)
(0 -2.85782e-29 -2.85782e-30 4.58164 -4.71307e-15 2.50652e-15 0.153773 -5.26651e-15 -1.02099e-15)
(-1.42776e-15 6.8985e-30 9.73309e-31 4.48103 1.02957e-14 5.09225e-15 0.152594 -3.49845e-16 -1.71428e-16)
(0 0 -7.04214e-31 4.48103 -4.71469e-15 2.25136e-15 0.152594 -5.32891e-15 -1.01009e-15)
(-3.50897e-15 1.42703e-29 8.56371e-31 4.38324 1.01001e-14 5.14606e-15 0.151445 -3.54121e-16 -1.76776e-16)
(7.01793e-15 -5.55297e-30 0 4.38324 -4.34682e-15 5.96645e-17 0.151445 -5.40139e-15 -1.00002e-15)
(-1.76515e-15 9.82281e-30 4.21359e-31 4.28816 1.00913e-14 5.21505e-15 0.150324 -3.46422e-16 -1.80209e-16)
(0 5.47338e-30 6.84172e-31 4.28816 -4.47869e-15 7.1091e-17 0.150324 -5.45954e-15 -1.00954e-15)
(0 5.39493e-30 1.34873e-30 4.1957 1.06559e-14 5.35946e-15 0.149232 -3.6387e-16 -1.86845e-16)
(-3.03708e-15 -5.39493e-30 -1.34873e-30 4.1957 -4.35332e-15 9.73032e-17 0.149232 -5.52661e-15 -1.01955e-15)
(0 1.06352e-29 1.9941e-30 4.10579 1.05074e-14 5.52043e-15 0.148167 -3.97175e-16 -1.95874e-16)
(0 -5.31761e-30 -1.3294e-30 4.10579 -4.04254e-15 8.84691e-17 0.148167 -5.55232e-15 -1.03069e-15)
(0 1.57242e-29 1.96552e-30 4.01832 1.03654e-14 5.68495e-15 0.147129 -3.63693e-16 -2.04063e-16)
(-1.47532e-15 -5.24139e-30 4.2039e-45 4.01832 -4.3369e-15 -7.79114e-30 0.147129 -5.60189e-15 -1.03144e-15)
(2.90835e-15 5.16627e-30 1.93735e-30 3.93323 1.16104e-14 5.67672e-15 0.146117 -3.98305e-16 -2.1379e-16)
(1.15477e-14 0 -6.45784e-31 3.93323 -5.92255e-15 -2.54209e-16 0.146117 -5.67596e-15 -1.02955e-15)
(-3.63457e-15 8.57122e-30 1.252e-31 3.85043 1.27655e-14 5.36955e-15 0.14513 -4.67843e-16 -2.09422e-16)
(7.26913e-15 0 6.36528e-31 3.85043 -8.22879e-15 -1.91122e-16 0.14513 -5.7525e-15 -1.0285e-15)
(1.82749e-15 -1.43086e-29 -1.63034e-30 3.76985 1.34393e-14 5.10643e-15 0.144168 -4.97985e-16 -1.96649e-16)
(2.82558e-15 1.00385e-29 1.88222e-30 3.76985 -9.64292e-15 -1.10779e-16 0.144168 -5.85199e-15 -1.02367e-15)
(0 4.9473e-30 1.23683e-30 3.69141 1.37487e-14 4.94171e-15 0.14323 -5.33627e-16 -1.95218e-16)
(-7.35048e-15 0 -6.18413e-31 3.69141 -1.00812e-14 -2.10176e-16 0.14323 -5.95469e-15 -1.0186e-15)
(-4.59285e-15 -1.52664e-29 -2.68429e-30 3.61505 1.37109e-14 4.65271e-15 0.142316 -5.36842e-16 -1.89491e-16)
(7.39075e-15 1.95056e-29 3.6573e-30 3.61505 -9.13336e-15 -2.12557e-16 0.142316 -6.05561e-15 -1.01192e-15)
(0 9.61301e-30 6.00813e-31 3.54069 1.27379e-14 4.3795e-15 0.141424 -5.46249e-16 -1.77943e-16)
(-2.70582e-15 0 0 3.54069 -7.4481e-15 -2.33815e-17 0.141424 -6.15131e-15 -1.0027e-15)
(0 -9.47523e-30 -1.1844e-30 3.46828 9.66728e-15 4.39937e-15 0.140554 -4.74023e-16 -1.72988e-16)
(0 9.47523e-30 -2.74585e-31 3.46828 -5.85312e-15 -1.35092e-29 0.140554 -6.21909e-15 -9.89298e-16)
(-1.87749e-15 4.23143e-30 3.46729e-31 3.39774 6.42767e-15 4.59509e-15 0.139706 -3.10786e-16 -1.84783e-16)
(0 0 0 3.39774 -4.68001e-15 -6.54542e-17 0.139706 -6.30049e-15 -9.78694e-16)
(-3.7746e-15 -2.83467e-29 -3.92476e-30 3.32902 5.17967e-15 4.65845e-15 0.138879 -2.18743e-16 -1.94317e-16)
(1.50984e-14 3.22195e-29 4.02743e-30 3.32902 -3.2763e-15 -8.77077e-17 0.138879 -6.37506e-15 -9.70209e-16)
(2.554e-15 9.07362e-30 1.1342e-30 3.26206 5.79135e-15 4.70859e-15 0.138072 -2.1469e-16 -1.95536e-16)
(-2.554e-15 0 -5.67102e-31 3.26206 -2.95755e-15 2.18894e-17 0.138072 -6.43032e-15 -9.60253e-16)
(-2.51739e-15 1.34154e-29 1.11795e-30 3.1968 7.27888e-15 4.81658e-15 0.137285 -2.77461e-16 -2.04297e-16)
(-2.51739e-15 -4.47179e-30 -3.40248e-45 3.1968 -3.14458e-15 -6.12936e-30 0.137285 -6.515e-15 -9.51096e-16)
(-5.74911e-15 -1.82788e-29 -2.35748e-30 3.13319 8.16835e-15 4.61864e-15 0.136517 -3.50043e-16 -2.10634e-16)
(1.5331e-14 3.52616e-29 3.85673e-30 3.13319 -2.10386e-15 -2.2842e-16 0.136517 -6.58394e-15 -9.47415e-16)
(0 -3.47562e-29 -3.25839e-30 3.07118 8.17766e-15 4.30252e-15 0.135768 -3.63885e-16 -1.92857e-16)
(1.54076e-14 3.47562e-29 3.25839e-30 3.07118 -2.30077e-15 -6.05726e-17 0.135768 -6.61246e-15 -9.4044e-16)
(-1.93547e-15 1.70177e-29 1.37615e-30 3.01071 8.50182e-15 4.18797e-15 0.135038 -3.61128e-16 -1.88573e-16)