/*--------------------------------*- C++ -*----------------------------------*\
| =========                 |                                                 |
| \\      /  F ield         | OpenFOAM: The Open Source CFD Toolbox           |
|  \\    /   O peration     | Version:  2106                                  |
|   \\  /    A nd           | Website:  www.openfoam.com                      |
|    \\/     M anipulation  |                                                 |
\*---------------------------------------------------------------------------*/
FoamFile
{
    version     2.0;
    format      ascii;
    arch        "LSB;label=32;scalar=64";
    class       volVectorField;
    location    "19000";
    object      U;
}
// * * * * * * * * * * * * * * * * * * * * * * * * * * * * * * * * * * * * * //

dimensions      [0 1 -1 0 0 0 0];

internalField   nonuniform List<vector> 
2560
(
(0.00225042 -1.11399e-16 -1.62681e-17)
(0.00225042 2.07227e-19 -5.87654e-18)
(0.00678333 -2.39689e-15 -9.70215e-17)
(0.00678333 -9.31667e-19 -6.98149e-17)
(0.0113815 -1.62843e-15 -1.01762e-16)
(0.0113815 -1.4926e-18 -7.18631e-17)
(0.0160458 -1.58234e-15 -1.06538e-16)
(0.0160458 -2.3626e-18 -7.39691e-17)
(0.0207772 -1.57184e-15 -1.11519e-16)
(0.0207772 -3.25494e-18 -7.61341e-17)
(0.0255767 -1.57762e-15 -1.16689e-16)
(0.0255767 -4.16026e-18 -7.83598e-17)
(0.0304451 -1.57825e-15 -1.22027e-16)
(0.0304451 -5.09159e-18 -8.06477e-17)
(0.0353836 -1.576e-15 -1.27536e-16)
(0.0353836 -6.0468e-18 -8.29988e-17)
(0.0403931 -1.57375e-15 -1.33229e-16)
(0.0403931 -7.02125e-18 -8.54152e-17)
(0.0454746 -1.57192e-15 -1.39113e-16)
(0.0454746 -7.99878e-18 -8.78987e-17)
(0.050629 -1.57019e-15 -1.45194e-16)
(0.050629 -9.00012e-18 -9.04508e-17)
(0.0558575 -1.56842e-15 -1.51478e-16)
(0.0558575 -1.00503e-17 -9.30736e-17)
(0.0611611 -1.56663e-15 -1.57969e-16)
(0.0611611 -1.10887e-17 -9.57675e-17)
(0.0665407 -1.56481e-15 -1.64674e-16)
(0.0665407 -1.21191e-17 -9.85353e-17)
(0.0719974 -1.56292e-15 -1.71597e-16)
(0.0719974 -1.32051e-17 -1.01378e-16)
(0.0775322 -1.56102e-15 -1.78745e-16)
(0.0775322 -1.4291e-17 -1.04297e-16)
(0.0831462 -1.55905e-15 -1.86123e-16)
(0.0831462 -1.53976e-17 -1.07294e-16)
(0.0888404 -1.55699e-15 -1.93736e-16)
(0.0888404 -1.65815e-17 -1.10371e-16)
(0.0946156 -1.55495e-15 -2.01589e-16)
(0.0946156 -1.7762e-17 -1.1353e-16)
(0.100473 -1.55289e-15 -2.09689e-16)
(0.100473 -1.89115e-17 -1.16769e-16)
(0.106413 -1.55066e-15 -2.18038e-16)
(0.106413 -2.01753e-17 -1.20093e-16)
(0.112437 -1.54845e-15 -2.26641e-16)
(0.112437 -2.14547e-17 -1.23497e-16)
(0.118546 -1.54627e-15 -2.35501e-16)
(0.118546 -2.26723e-17 -1.26984e-16)
(0.12474 -1.54401e-15 -2.44619e-16)
(0.12474 -2.40157e-17 -1.30552e-16)
(0.131019 -1.54167e-15 -2.53998e-16)
(0.131019 -2.53549e-17 -1.34201e-16)
(0.137385 -1.53926e-15 -2.63636e-16)
(0.137385 -2.67281e-17 -1.37931e-16)
(0.143837 -1.53685e-15 -2.73531e-16)
(0.143837 -2.80125e-17 -1.41738e-16)
(0.150375 -1.5344e-15 -2.83681e-16)
(0.150375 -2.92254e-17 -1.45618e-16)
(0.157 -1.53193e-15 -2.94077e-16)
(0.157 -3.05627e-17 -1.49564e-16)
(0.163711 -1.5294e-15 -3.04711e-16)
(0.163711 -3.19799e-17 -1.53572e-16)
(0.170506 -1.52686e-15 -3.15572e-16)
(0.170506 -3.33473e-17 -1.57634e-16)
(0.177385 -1.52422e-15 -3.26644e-16)
(0.177385 -3.47582e-17 -1.61745e-16)
(0.184347 -1.52151e-15 -3.37911e-16)
(0.184347 -3.62526e-17 -1.65893e-16)
(0.191389 -1.5188e-15 -3.4935e-16)
(0.191389 -3.77559e-17 -1.70065e-16)
(0.198509 -1.51611e-15 -3.60936e-16)
(0.198509 -3.92622e-17 -1.74251e-16)
(0.205704 -1.51343e-15 -3.72639e-16)
(0.205704 -4.0673e-17 -1.78429e-16)
(0.212971 -1.51073e-15 -3.84428e-16)
(0.212971 -4.19262e-17 -1.82588e-16)
(0.220305 -1.50803e-15 -3.9484e-16)
(0.220305 -4.30523e-17 -1.86711e-16)
(0.227703 -1.50523e-15 -4.00396e-16)
(0.227703 -4.44258e-17 -1.90788e-16)
(0.235158 -1.50228e-15 -4.05795e-16)
(0.235158 -4.59511e-17 -1.94792e-16)
(0.242666 -1.49932e-15 -4.11e-16)
(0.242666 -4.74149e-17 -1.98707e-16)
(0.250219 -1.49636e-15 -4.15981e-16)
(0.250219 -4.87643e-17 -2.02508e-16)
(0.257812 -1.49335e-15 -4.20707e-16)
(0.257812 -5.03279e-17 -2.0618e-16)
(0.265436 -1.49041e-15 -4.2515e-16)
(0.265436 -5.19038e-17 -2.09698e-16)
(0.273085 -1.48749e-15 -4.29265e-16)
(0.273085 -5.33785e-17 -2.13042e-16)
(0.28075 -1.48448e-15 -4.33043e-16)
(0.28075 -5.46942e-17 -2.16203e-16)
(0.288423 -1.48131e-15 -4.36472e-16)
(0.288423 -5.59755e-17 -2.19175e-16)
(0.296096 -1.47813e-15 -4.39526e-16)
(0.296096 -5.74804e-17 -2.21928e-16)
(0.303761 -1.47495e-15 -4.42205e-16)
(0.303761 -5.90435e-17 -2.2448e-16)
(0.311408 -1.47188e-15 -4.44517e-16)
(0.311408 -6.04362e-17 -2.26802e-16)
(0.319031 -1.46891e-15 -4.46424e-16)
(0.319031 -6.14326e-17 -2.28889e-16)
(0.32662 -1.46594e-15 -4.47949e-16)
(0.32662 -6.27665e-17 -2.30746e-16)
(0.334169 -1.46278e-15 -4.49114e-16)
(0.334169 -6.41546e-17 -2.32367e-16)
(0.34167 -1.45938e-15 -4.49937e-16)
(0.34167 -6.56306e-17 -2.3377e-16)
(0.349117 -1.45626e-15 -4.5045e-16)
(0.349117 -6.72292e-17 -2.34956e-16)
(0.356504 -1.45318e-15 -4.50672e-16)
(0.356504 -6.85901e-17 -2.35932e-16)
(0.363824 -1.4501e-15 -4.5062e-16)
(0.363824 -7.02694e-17 -2.36708e-16)
(0.371072 -1.44717e-15 -4.50313e-16)
(0.371072 -7.20746e-17 -2.37284e-16)
(0.378246 -1.44417e-15 -4.49792e-16)
(0.378246 -7.34219e-17 -2.37689e-16)
(0.385339 -1.44105e-15 -4.49095e-16)
(0.385339 -7.50133e-17 -2.3795e-16)
(0.392349 -1.43783e-15 -4.48248e-16)
(0.392349 -7.67052e-17 -2.38067e-16)
(0.399274 -1.43442e-15 -4.47271e-16)
(0.399274 -7.80731e-17 -2.38031e-16)
(0.406111 -1.43125e-15 -4.46194e-16)
(0.406111 -7.99715e-17 -2.37854e-16)
(0.412858 -1.42819e-15 -4.45039e-16)
(0.412858 -8.12676e-17 -2.37606e-16)
(0.419515 -1.42522e-15 -4.43865e-16)
(0.419515 -8.26968e-17 -2.37238e-16)
(0.426079 -1.42265e-15 -4.42655e-16)
(0.426079 -8.36194e-17 -2.36779e-16)
(0.432552 -1.41993e-15 -4.41426e-16)
(0.432552 -8.43499e-17 -2.36268e-16)
(0.438932 -1.41703e-15 -4.34839e-16)
(0.438932 -8.58054e-17 -2.35672e-16)
(0.44522 -1.41449e-15 -4.26853e-16)
(0.44522 -8.62687e-17 -2.3504e-16)
(0.451416 -1.41199e-15 -4.18876e-16)
(0.451416 -8.66454e-17 -2.34383e-16)
(0.457522 -1.40885e-15 -4.10949e-16)
(0.457522 -8.77067e-17 -2.33685e-16)
(0.463537 -1.40652e-15 -4.03092e-16)
(0.463537 -8.90844e-17 -2.32942e-16)
(0.469464 -1.40465e-15 -3.95275e-16)
(0.469464 -9.01488e-17 -2.32192e-16)
(0.475303 -1.40266e-15 -3.87557e-16)
(0.475303 -9.09546e-17 -2.31433e-16)
(0.481055 -1.40085e-15 -3.79954e-16)
(0.481055 -9.20285e-17 -2.30647e-16)
(0.486723 -1.39891e-15 -3.72453e-16)
(0.486723 -9.32454e-17 -2.29873e-16)
(0.492308 -1.39742e-15 -3.65055e-16)
(0.492308 -9.43269e-17 -2.29095e-16)
(0.497812 -1.39604e-15 -3.5775e-16)
(0.497812 -9.54267e-17 -2.28324e-16)
(0.503235 -1.39489e-15 -3.50587e-16)
(0.503235 -9.66099e-17 -2.27588e-16)
(0.508581 -1.39379e-15 -3.43604e-16)
(0.508581 -9.74727e-17 -2.26889e-16)
(0.51385 -1.39205e-15 -3.36826e-16)
(0.51385 -9.752e-17 -2.26053e-16)
(0.519044 -1.39025e-15 -3.3014e-16)
(0.519044 -9.82965e-17 -2.25256e-16)
(0.524166 -1.38899e-15 -3.23621e-16)
(0.524166 -9.87862e-17 -2.24462e-16)
(0.529217 -1.38677e-15 -3.17312e-16)
(0.529217 -9.9199e-17 -2.2372e-16)
(0.534199 -1.38402e-15 -3.11257e-16)
(0.534199 -1.00881e-16 -2.22976e-16)
(0.539113 -1.3829e-15 -3.05428e-16)
(0.539113 -1.00626e-16 -2.22192e-16)
(0.543961 -1.38209e-15 -2.99729e-16)
(0.543961 -1.0024e-16 -2.21353e-16)
(0.548745 -1.38004e-15 -2.94154e-16)
(0.548745 -1.01471e-16 -2.20585e-16)
(0.553467 -1.37753e-15 -2.88781e-16)
(0.553467 -1.01999e-16 -2.19914e-16)
(0.558128 -1.37532e-15 -2.83717e-16)
(0.558128 -1.03444e-16 -2.19152e-16)
(0.56273 -1.37344e-15 -2.78792e-16)
(0.56273 -1.04906e-16 -2.18408e-16)
(0.567274 -1.37159e-15 -2.74034e-16)
(0.567274 -1.05501e-16 -2.1768e-16)
(0.571762 -1.36956e-15 -2.69515e-16)
(0.571762 -1.05424e-16 -2.16929e-16)
(0.576196 -1.36828e-15 -2.6514e-16)
(0.576196 -1.04984e-16 -2.16206e-16)
(0.580576 -1.36765e-15 -2.60865e-16)
(0.580576 -1.05025e-16 -2.15486e-16)
(0.584905 -1.36646e-15 -2.56769e-16)
(0.584905 -1.05071e-16 -2.14855e-16)
(0.589183 -1.36409e-15 -2.52954e-16)
(0.589183 -1.0523e-16 -2.14247e-16)
(0.593413 -1.36215e-15 -2.49402e-16)
(0.593413 -1.06589e-16 -2.13599e-16)
(0.597595 -1.36093e-15 -2.45977e-16)
(0.597595 -1.07996e-16 -2.12975e-16)
(0.60173 -1.35965e-15 -2.42676e-16)
(0.60173 -1.08747e-16 -2.12385e-16)
(0.60582 -1.35807e-15 -2.39489e-16)
(0.60582 -1.08843e-16 -2.11774e-16)
(0.609867 -1.35574e-15 -2.36555e-16)
(0.609867 -1.10676e-16 -2.11146e-16)
(0.61387 -1.35395e-15 -2.33806e-16)
(0.61387 -1.12236e-16 -2.10558e-16)
(0.617832 -1.35459e-15 -2.31228e-16)
(0.617832 -1.11192e-16 -2.09959e-16)
(0.621753 -1.35631e-15 -2.28776e-16)
(0.621753 -1.11149e-16 -2.09311e-16)
(0.625635 -1.35738e-15 -2.26361e-16)
(0.625635 -1.10182e-16 -2.08758e-16)
(0.629478 -1.35816e-15 -2.24085e-16)
(0.629478 -1.08996e-16 -2.08169e-16)
(0.633284 -1.35882e-15 -2.21879e-16)
(0.633284 -1.09451e-16 -2.07459e-16)
(0.637053 -1.35997e-15 -2.1964e-16)
(0.637053 -1.08457e-16 -2.06915e-16)
(0.640787 -1.36107e-15 -2.17486e-16)
(0.640787 -1.07024e-16 -2.06368e-16)
(0.644486 -1.36207e-15 -2.15448e-16)
(0.644486 -1.06565e-16 -2.05776e-16)
(0.648151 -1.36271e-15 -2.13628e-16)
(0.648151 -1.05378e-16 -2.0507e-16)
(0.651783 -1.36334e-15 -2.11842e-16)
(0.651783 -1.06376e-16 -2.04493e-16)
(0.655383 -1.36365e-15 -2.1017e-16)
(0.655383 -1.06722e-16 -2.0388e-16)
(0.658952 -1.36335e-15 -2.0867e-16)
(0.658952 -1.06447e-16 -2.0322e-16)
(0.662491 -1.3642e-15 -2.07251e-16)
(0.662491 -1.06134e-16 -2.02444e-16)
(0.666 -1.36541e-15 -2.06039e-16)
(0.666 -1.05539e-16 -2.01702e-16)
(0.669479 -1.36461e-15 -2.04952e-16)
(0.669479 -1.06365e-16 -2.00907e-16)
(0.672931 -1.3625e-15 -2.0769e-16)
(0.672931 -1.06808e-16 -2.00254e-16)
(0.676354 -1.36068e-15 -2.12654e-16)
(0.676354 -1.09503e-16 -1.99371e-16)
(0.679751 -1.35961e-15 -2.17791e-16)
(0.679751 -1.10869e-16 -2.00788e-16)
(0.683122 -1.36006e-15 -2.23188e-16)
(0.683122 -1.10031e-16 -2.05978e-16)
(0.686467 -1.36055e-15 -2.28615e-16)
(0.686467 -1.10121e-16 -2.11108e-16)
(0.689787 -1.36063e-15 -2.34192e-16)
(0.689787 -1.11093e-16 -2.15967e-16)
(0.693082 -1.36118e-15 -2.39818e-16)
(0.693082 -1.11562e-16 -2.20995e-16)
(0.696354 -1.36215e-15 -2.45941e-16)
(0.696354 -1.11043e-16 -2.25886e-16)
(0.699602 -1.36272e-15 -2.5199e-16)
(0.699602 -1.11016e-16 -2.30738e-16)
(0.702827 -1.36244e-15 -2.58093e-16)
(0.702827 -1.09297e-16 -2.35118e-16)
(0.706031 -1.36045e-15 -2.64128e-16)
(0.706031 -1.07225e-16 -2.39626e-16)
(0.709212 -1.35853e-15 -2.70227e-16)
(0.709212 -1.04476e-16 -2.4429e-16)
(0.712372 -1.3602e-15 -2.76285e-16)
(0.712372 -1.01124e-16 -2.49118e-16)
(0.715512 -1.36211e-15 -2.82409e-16)
(0.715512 -9.89687e-17 -2.53618e-16)
(0.718631 -1.36256e-15 -2.88176e-16)
(0.718631 -9.84294e-17 -2.57875e-16)
(0.721731 -1.36276e-15 -2.93579e-16)
(0.721731 -9.78039e-17 -2.62398e-16)
(0.724811 -1.36175e-15 -2.99281e-16)
(0.724811 -9.64285e-17 -2.66786e-16)
(0.727872 -1.36059e-15 -3.04817e-16)
(0.727872 -9.67778e-17 -2.71048e-16)
(0.730915 -1.36092e-15 -3.10031e-16)
(0.730915 -9.85323e-17 -2.75363e-16)
(0.733939 -1.36142e-15 -3.15097e-16)
(0.733939 -9.93224e-17 -2.80032e-16)
(0.736946 -1.35976e-15 -3.20317e-16)
(0.736946 -9.87842e-17 -2.84119e-16)
(0.739936 -1.35397e-15 -3.25565e-16)
(0.739936 -1.00535e-16 -2.87803e-16)
(0.742908 -1.3505e-15 -3.30318e-16)
(0.742908 -1.0149e-16 -2.92235e-16)
(0.745864 -1.34851e-15 -3.3532e-16)
(0.745864 -1.0025e-16 -2.96587e-16)
(0.748804 -1.34733e-15 -3.40517e-16)
(0.748804 -1.02881e-16 -3.00349e-16)
(0.751728 -1.34729e-15 -3.45164e-16)
(0.751728 -1.05247e-16 -3.04395e-16)
(0.754637 -1.34499e-15 -3.49784e-16)
(0.754637 -1.07513e-16 -3.08744e-16)
(0.75753 -1.34366e-15 -3.54885e-16)
(0.75753 -1.13944e-16 -3.12602e-16)
(0.760408 -1.34225e-15 -3.60072e-16)
(0.760408 -1.16126e-16 -3.1597e-16)
(0.763272 -1.34031e-15 -3.65113e-16)
(0.763272 -1.18598e-16 -3.18744e-16)
(0.766121 -1.33898e-15 -3.70269e-16)
(0.766121 -1.22807e-16 -3.21585e-16)
(0.768957 -1.33731e-15 -3.76234e-16)
(0.768957 -1.28543e-16 -3.24057e-16)
(0.771779 -1.33564e-15 -3.82102e-16)
(0.771779 -1.34427e-16 -3.26604e-16)
(0.774587 -1.33689e-15 -3.88249e-16)
(0.774587 -1.3354e-16 -3.28693e-16)
(0.777382 -1.33954e-15 -3.94244e-16)
(0.777382 -1.33685e-16 -3.30382e-16)
(0.780165 -1.34e-15 -3.99989e-16)
(0.780165 -1.33822e-16 -3.31801e-16)
(0.782934 -1.34014e-15 -4.05481e-16)
(0.782934 -1.33472e-16 -3.32976e-16)
(0.785692 -1.34291e-15 -4.09967e-16)
(0.785692 -1.3803e-16 -3.34285e-16)
(0.788437 -1.34459e-15 -4.14008e-16)
(0.788437 -1.38056e-16 -3.36115e-16)
(0.79117 -1.34506e-15 -4.18347e-16)
(0.79117 -1.36154e-16 -3.37842e-16)
(0.793892 -1.34252e-15 -4.22728e-16)
(0.793892 -1.38892e-16 -3.383e-16)
(0.796602 -1.33783e-15 -4.2663e-16)
(0.796602 -1.40005e-16 -3.38721e-16)
(0.799302 -1.33381e-15 -4.30041e-16)
(0.799302 -1.3906e-16 -3.39696e-16)
(0.80199 -1.33007e-15 -4.33631e-16)
(0.80199 -1.42143e-16 -3.40773e-16)
(0.804667 -1.32921e-15 -4.36879e-16)
(0.804667 -1.46027e-16 -3.41298e-16)
(0.807334 -1.3319e-15 -4.40013e-16)
(0.807334 -1.50472e-16 -3.41814e-16)
(0.80999 -1.33521e-15 -4.42597e-16)
(0.80999 -1.56899e-16 -3.42379e-16)
(0.812637 -1.33873e-15 -4.44718e-16)
(0.812637 -1.63847e-16 -3.42509e-16)
(0.815273 -1.34223e-15 -4.46499e-16)
(0.815273 -1.68646e-16 -3.42588e-16)
(0.8179 -1.34091e-15 -4.48034e-16)
(0.8179 -1.73747e-16 -3.42531e-16)
(0.820516 -1.33897e-15 -4.49423e-16)
(0.820516 -1.80315e-16 -3.42072e-16)
(0.823124 -1.33849e-15 -4.50773e-16)
(0.823124 -1.86803e-16 -3.42586e-16)
(0.825722 -1.33504e-15 -4.52487e-16)
(0.825722 -1.9635e-16 -3.42675e-16)
(0.828311 -1.32958e-15 -4.54403e-16)
(0.828311 -2.00328e-16 -3.41457e-16)
(0.830891 -1.32834e-15 -4.55448e-16)
(0.830891 -2.0414e-16 -3.40891e-16)
(0.833463 -1.32633e-15 -4.56236e-16)
(0.833463 -2.12115e-16 -3.4042e-16)
(0.836026 -1.31994e-15 -4.568e-16)
(0.836026 -2.21319e-16 -3.39684e-16)
(0.83858 -1.31527e-15 -4.57327e-16)
(0.83858 -2.2895e-16 -3.38661e-16)
(0.841126 -1.30998e-15 -4.57143e-16)
(0.841126 -2.41783e-16 -3.37797e-16)
(0.843664 -1.30441e-15 -4.57429e-16)
(0.843664 -2.53772e-16 -3.36394e-16)
(0.846194 -1.30049e-15 -4.58167e-16)
(0.846194 -2.57071e-16 -3.35759e-16)
(0.848715 -1.29693e-15 -4.59177e-16)
(0.848715 -2.67862e-16 -3.34411e-16)
(0.85123 -1.28915e-15 -4.59256e-16)
(0.85123 -2.78314e-16 -3.32555e-16)
(0.853736 -1.28062e-15 -4.59569e-16)
(0.853736 -2.87232e-16 -3.30659e-16)
(0.856235 -1.27701e-15 -4.59564e-16)
(0.856235 -2.97773e-16 -3.29742e-16)
(0.858726 -1.27295e-15 -4.60028e-16)
(0.858726 -3.01742e-16 -3.28015e-16)
(0.861211 -1.26633e-15 -4.59694e-16)
(0.861211 -3.10492e-16 -3.26453e-16)
(0.863688 -1.25673e-15 -4.58713e-16)
(0.863688 -3.18558e-16 -3.23404e-16)
(0.866158 -1.24757e-15 -4.5747e-16)
(0.866158 -3.27073e-16 -3.21256e-16)
(0.868621 -1.24145e-15 -4.56372e-16)
(0.868621 -3.38361e-16 -3.19087e-16)
(0.871077 -1.23539e-15 -4.5429e-16)
(0.871077 -3.47335e-16 -3.17767e-16)
(0.873527 -1.2248e-15 -4.53434e-16)
(0.873527 -3.57551e-16 -3.16297e-16)
(0.87597 -1.21318e-15 -4.52255e-16)
(0.87597 -3.66178e-16 -3.147e-16)
(0.878406 -1.20379e-15 -4.49849e-16)
(0.878406 -3.74558e-16 -3.12751e-16)
(0.880836 -1.19155e-15 -4.46853e-16)
(0.880836 -3.84294e-16 -3.12815e-16)
(0.883259 -1.1799e-15 -4.45313e-16)
(0.883259 -3.94888e-16 -3.13227e-16)
(0.885677 -1.16892e-15 -4.44828e-16)
(0.885677 -4.06685e-16 -3.10222e-16)
(0.888088 -1.15662e-15 -4.41301e-16)
(0.888088 -4.23354e-16 -3.09654e-16)
(0.890493 -1.14055e-15 -4.39422e-16)
(0.890493 -4.30447e-16 -3.11825e-16)
(0.892892 -1.1248e-15 -4.41099e-16)
(0.892892 -4.42e-16 -3.12116e-16)
(0.895285 -1.11617e-15 -4.4132e-16)
(0.895285 -4.63415e-16 -3.10876e-16)
(0.897672 -1.10249e-15 -4.39701e-16)
(0.897672 -4.68978e-16 -3.12361e-16)
(0.900053 -1.08299e-15 -4.41359e-16)
(0.900053 -4.80439e-16 -3.15181e-16)
(0.902429 -1.06834e-15 -4.43904e-16)
(0.902429 -4.92049e-16 -3.17202e-16)
(0.904799 -1.05597e-15 -4.44527e-16)
(0.904799 -4.99602e-16 -3.21021e-16)
(0.907163 -1.04874e-15 -4.46468e-16)
(0.907163 -5.10649e-16 -3.2594e-16)
(0.909522 -1.04864e-15 -4.4794e-16)
(0.909522 -5.11565e-16 -3.2807e-16)
(0.911875 -1.04852e-15 -4.49173e-16)
(0.911875 -5.12541e-16 -3.30522e-16)
(0.914223 -1.04547e-15 -4.51386e-16)
(0.914223 -5.11588e-16 -3.30698e-16)
(0.916565 -1.04538e-15 -4.51895e-16)
(0.916565 -5.04407e-16 -3.30945e-16)
(0.918903 -1.04562e-15 -4.50741e-16)
(0.918903 -5.06324e-16 -3.31341e-16)
(0.921234 -1.04484e-15 -4.50506e-16)
(0.921234 -5.06288e-16 -3.30681e-16)
(0.923561 -1.0407e-15 -4.50046e-16)
(0.923561 -4.93894e-16 -3.25591e-16)
(0.925882 -1.0357e-15 -4.45473e-16)
(0.925882 -4.92115e-16 -3.18791e-16)
(0.928198 -1.03088e-15 -4.37553e-16)
(0.928198 -4.89809e-16 -3.16463e-16)
(0.930509 -1.024e-15 -4.31436e-16)
(0.930509 -4.94641e-16 -3.17729e-16)
(0.932815 -1.01704e-15 -4.29316e-16)
(0.932815 -5.09317e-16 -3.18951e-16)
(0.935116 -1.00857e-15 -4.29783e-16)
(0.935116 -5.10283e-16 -3.16172e-16)
(0.937412 -1.00687e-15 -4.26691e-16)
(0.937412 -5.09874e-16 -3.10381e-16)
(0.939703 -1.0008e-15 -4.19338e-16)
(0.939703 -5.1853e-16 -3.09194e-16)
(0.941988 -9.95244e-16 -4.15253e-16)
(0.941988 -5.15659e-16 -3.11554e-16)
(0.944269 -9.97478e-16 -4.11688e-16)
(0.944269 -5.12916e-16 -3.07346e-16)
(0.946545 -9.8863e-16 -4.01776e-16)
(0.946545 -5.25672e-16 -3.04903e-16)
(0.948816 -9.83392e-16 -3.91697e-16)
(0.948816 -5.27989e-16 -3.05399e-16)
(0.951082 -9.76834e-16 -3.85542e-16)
(0.951082 -5.25161e-16 -3.03636e-16)
(0.953342 -9.68866e-16 -3.80662e-16)
(0.953342 -5.35956e-16 -3.02712e-16)
(0.955598 -9.65336e-16 -3.72645e-16)
(0.955598 -5.39123e-16 -2.98587e-16)
(0.957849 -9.49445e-16 -3.5995e-16)
(0.957849 -5.33521e-16 -2.98367e-16)
(0.960095 -9.36486e-16 -3.54804e-16)
(0.960095 -5.44788e-16 -2.90971e-16)
(0.962336 -9.30162e-16 -3.49248e-16)
(0.962336 -5.49618e-16 -2.82016e-16)
(0.964572 -9.19939e-16 -3.46697e-16)
(0.964572 -5.47552e-16 -2.78739e-16)
(0.966803 -9.13526e-16 -3.42203e-16)
(0.966803 -5.5565e-16 -2.76083e-16)
(0.969029 -9.10006e-16 -3.35128e-16)
(0.969029 -5.64191e-16 -2.69395e-16)
(0.97125 -9.08227e-16 -3.28984e-16)
(0.97125 -5.56148e-16 -2.59844e-16)
(0.973466 -9.09532e-16 -3.25371e-16)
(0.973466 -5.5161e-16 -2.56068e-16)
(0.975677 -9.12339e-16 -3.15248e-16)
(0.975677 -5.66599e-16 -2.5073e-16)
(0.977882 -9.06477e-16 -3.06144e-16)
(0.977882 -5.59914e-16 -2.43909e-16)
(0.980083 -8.97993e-16 -3.01113e-16)
(0.980083 -5.50429e-16 -2.36391e-16)
(0.982278 -8.94196e-16 -2.97948e-16)
(0.982278 -5.52073e-16 -2.25189e-16)
(0.984468 -8.91026e-16 -2.90846e-16)
(0.984468 -5.50186e-16 -2.19155e-16)
(0.986653 -8.94165e-16 -2.84934e-16)
(0.986653 -5.5058e-16 -2.16718e-16)
(0.988832 -8.92456e-16 -2.74516e-16)
(0.988832 -5.3826e-16 -2.11913e-16)
(0.991006 -8.85601e-16 -2.63352e-16)
(0.991006 -5.45196e-16 -2.0582e-16)
(0.993174 -8.7878e-16 -2.543e-16)
(0.993174 -5.56558e-16 -1.98165e-16)
(0.995337 -8.73219e-16 -2.44672e-16)
(0.995337 -5.44885e-16 -1.90979e-16)
(0.997494 -8.74692e-16 -2.34342e-16)
(0.997494 -5.35952e-16 -1.91537e-16)
(0.999646 -8.61406e-16 -2.29787e-16)
(0.999646 -5.36331e-16 -1.85397e-16)
(1.00179 -8.32934e-16 -2.29234e-16)
(1.00179 -5.53576e-16 -1.74669e-16)
(1.00393 -8.02695e-16 -2.154e-16)
(1.00393 -5.59883e-16 -1.66735e-16)
(1.00606 -7.6226e-16 -2.12944e-16)
(1.00606 -5.47209e-16 -1.71848e-16)
(1.00819 -7.28825e-16 -2.13838e-16)
(1.00819 -5.43086e-16 -1.84169e-16)
(1.01031 -7.14298e-16 -2.16043e-16)
(1.01031 -5.43015e-16 -1.90457e-16)
(1.01243 -7.03223e-16 -2.06477e-16)
(1.01243 -5.32874e-16 -1.85952e-16)
(1.01454 -6.80906e-16 -1.99367e-16)
(1.01454 -5.34983e-16 -1.81964e-16)
(1.01664 -6.43434e-16 -1.9154e-16)
(1.01664 -5.43569e-16 -1.83885e-16)
(1.01873 -6.04793e-16 -1.98618e-16)
(1.01873 -5.42013e-16 -1.78596e-16)
(1.02082 -5.76709e-16 -2.09957e-16)
(1.02082 -5.32905e-16 -1.86134e-16)
(1.0229 -5.6781e-16 -2.06493e-16)
(1.0229 -5.14691e-16 -1.80131e-16)
(1.02498 -5.89393e-16 -2.07737e-16)
(1.02498 -4.7869e-16 -1.83802e-16)
(1.02704 -5.88393e-16 -2.10253e-16)
(1.02704 -4.60363e-16 -1.94757e-16)
(1.0291 -5.5086e-16 -1.96144e-16)
(1.0291 -4.56447e-16 -2.05161e-16)
(1.03116 -5.30695e-16 -1.90559e-16)
(1.03116 -4.4624e-16 -2.11673e-16)
(1.0332 -5.20967e-16 -2.00893e-16)
(1.0332 -4.34685e-16 -2.16657e-16)
(1.03523 -5.1218e-16 -2.05213e-16)
(1.03523 -4.26642e-16 -2.15471e-16)
(1.03726 -4.9958e-16 -2.00274e-16)
(1.03726 -4.27743e-16 -2.14589e-16)
(1.03928 -4.77341e-16 -1.83889e-16)
(1.03928 -3.94251e-16 -2.22173e-16)
(1.04129 -4.48873e-16 -1.86937e-16)
(1.04129 -3.66484e-16 -2.24236e-16)
(1.04329 -4.31201e-16 -1.9354e-16)
(1.04329 -3.48126e-16 -2.37891e-16)
(1.04528 -3.9801e-16 -1.94216e-16)
(1.04528 -3.29397e-16 -2.66358e-16)
(1.04726 -3.63191e-16 -1.96146e-16)
(1.04726 -3.45439e-16 -2.69937e-16)
(1.04923 -3.42438e-16 -2.11001e-16)
(1.04923 -3.27647e-16 -2.56464e-16)
(1.05119 -3.21986e-16 -2.26961e-16)
(1.05119 -3.11107e-16 -2.78435e-16)
(1.05314 -3.20978e-16 -2.43795e-16)
(1.05314 -3.15428e-16 -2.84581e-16)
(1.05508 -3.2445e-16 -2.58318e-16)
(1.05508 -3.12699e-16 -2.94341e-16)
(1.05701 -3.28062e-16 -2.54402e-16)
(1.05701 -2.66315e-16 -3.00115e-16)
(1.05893 -3.34569e-16 -2.52193e-16)
(1.05893 -3.02165e-16 -3.01692e-16)
(1.06083 -3.2523e-16 -2.56601e-16)
(1.06083 -2.97396e-16 -3.1433e-16)
(1.06272 -3.01264e-16 -2.70103e-16)
(1.06272 -3.14109e-16 -3.21571e-16)
(1.0646 -3.02004e-16 -2.90631e-16)
(1.0646 -3.21574e-16 -3.36119e-16)
(1.06647 -3.0802e-16 -2.96596e-16)
(1.06647 -3.1037e-16 -3.4533e-16)
(1.06832 -3.19431e-16 -3.05872e-16)
(1.06832 -2.98257e-16 -3.53129e-16)
(1.07016 -3.27294e-16 -2.76589e-16)
(1.07016 -2.88559e-16 -3.73569e-16)
(1.07198 -3.51912e-16 -2.74664e-16)
(1.07198 -2.93492e-16 -3.57406e-16)
(1.07379 -3.35254e-16 -2.7917e-16)
(1.07379 -3.16715e-16 -3.59442e-16)
(1.07558 -3.17333e-16 -3.10858e-16)
(1.07558 -3.31622e-16 -3.67257e-16)
(1.07735 -2.98097e-16 -3.16521e-16)
(1.07735 -3.36777e-16 -3.65889e-16)
(1.0791 -2.72425e-16 -3.30129e-16)
(1.0791 -3.34143e-16 -3.659e-16)
(1.08084 -2.9008e-16 -3.56912e-16)
(1.08084 -3.12462e-16 -3.65034e-16)
(1.08256 -3.28483e-16 -3.60506e-16)
(1.08256 -3.11903e-16 -3.9369e-16)
(1.08426 -3.40267e-16 -3.77591e-16)
(1.08426 -2.4923e-16 -3.96305e-16)
(1.08594 -3.4472e-16 -3.59526e-16)
(1.08594 -3.33141e-16 -3.78259e-16)
(1.08759 -3.61284e-16 -3.43851e-16)
(1.08759 -3.32864e-16 -3.84316e-16)
(1.08923 -3.73317e-16 -3.70934e-16)
(1.08923 -3.32612e-16 -3.88286e-16)
(1.09084 -3.44199e-16 -3.4645e-16)
(1.09084 -3.55805e-16 -4.17174e-16)
(1.09242 -3.64656e-16 -3.50273e-16)
(1.09242 -3.7773e-16 -4.18443e-16)
(1.09398 -3.52391e-16 -3.76608e-16)
(1.09398 -4.00156e-16 -4.0951e-16)
(1.09551 -3.77963e-16 -3.86186e-16)
(1.09551 -4.00148e-16 -4.01836e-16)
(1.09702 -3.99908e-16 -3.83171e-16)
(1.09702 -4.16336e-16 -4.19357e-16)
(1.09849 -3.90019e-16 -4.3437e-16)
(1.09849 -4.04387e-16 -4.28902e-16)
(1.09993 -3.55171e-16 -4.55868e-16)
(1.09993 -3.42751e-16 -4.16449e-16)
(1.10134 -3.31196e-16 -4.41458e-16)
(1.10134 -3.71043e-16 -4.35481e-16)
(1.10272 -3.6566e-16 -5.04846e-16)
(1.10272 -4.06762e-16 -4.83707e-16)
(1.10406 -3.99176e-16 -5.54405e-16)
(1.10406 -3.59633e-16 -4.89326e-16)
(1.10536 -4.03814e-16 -5.37975e-16)
(1.10536 -3.84707e-16 -4.62641e-16)
(1.10662 -4.06333e-16 -4.86688e-16)
(1.10662 -3.98775e-16 -4.44623e-16)
(1.10783 -3.94112e-16 -4.90901e-16)
(1.10783 -3.86973e-16 -4.42618e-16)
(1.10901 -3.97408e-16 -4.81989e-16)
(1.10901 -3.86474e-16 -4.27418e-16)
(1.11013 -4.09541e-16 -4.26726e-16)
(1.11013 -3.9389e-16 -4.23431e-16)
(1.11121 -4.01748e-16 -3.73683e-16)
(1.11121 -4.0815e-16 -4.33875e-16)
(1.11223 -4.1424e-16 -3.66183e-16)
(1.11223 -4.05176e-16 -4.18531e-16)
(1.1132 -3.69759e-16 -3.79856e-16)
(1.1132 -3.72691e-16 -3.80884e-16)
(1.1141 -3.27863e-16 -3.74585e-16)
(1.1141 -3.77187e-16 -3.60734e-16)
(1.11495 -3.42762e-16 -4.05577e-16)
(1.11495 -4.05204e-16 -3.48686e-16)
(1.11573 -3.33149e-16 -4.28957e-16)
(1.11573 -3.86323e-16 -3.44563e-16)
(1.11644 -4.09691e-16 -3.4031e-16)
(1.11644 -3.72613e-16 -3.72074e-16)
(1.11707 -4.17855e-16 -3.65665e-16)
(1.11707 -3.83972e-16 -3.78553e-16)
(1.11763 -4.18884e-16 -3.40454e-16)
(1.11763 -4.13056e-16 -4.02591e-16)
(1.11811 -4.25595e-16 -3.51507e-16)
(1.11811 -4.25915e-16 -3.99056e-16)
(1.1185 -4.28352e-16 -3.29767e-16)
(1.1185 -4.21099e-16 -3.64998e-16)
(1.11879 -4.22032e-16 -3.06575e-16)
(1.11879 -4.36544e-16 -3.4482e-16)
(1.119 -4.07918e-16 -2.80839e-16)
(1.119 -4.15002e-16 -3.42197e-16)
(1.1191 -3.78995e-16 -2.55604e-16)
(1.1191 -3.45274e-16 -2.95608e-16)
(0.00225042 1.07007e-19 5.6946e-18)
(0.00225042 3.53675e-20 3.91113e-18)
(0.00678333 -4.52465e-19 2.89117e-17)
(0.00678333 -1.5651e-19 1.54237e-17)
(0.0113815 -7.21055e-19 2.97526e-17)
(0.0113815 -2.7089e-19 1.58853e-17)
(0.0160458 -1.14675e-18 3.0614e-17)
(0.0160458 -4.33382e-19 1.63673e-17)
(0.0207772 -1.58539e-18 3.14961e-17)
(0.0207772 -6.12519e-19 1.68709e-17)
(0.0255767 -2.02891e-18 3.23994e-17)
(0.0255767 -8.1804e-19 1.73966e-17)
(0.0304451 -2.47302e-18 3.33242e-17)
(0.0304451 -1.03973e-18 1.79458e-17)
(0.0353836 -2.92626e-18 3.42715e-17)
(0.0353836 -1.23967e-18 1.85197e-17)
(0.0403931 -3.38736e-18 3.52411e-17)
(0.0403931 -1.46053e-18 1.91196e-17)
(0.0454746 -3.87035e-18 3.62336e-17)
(0.0454746 -1.68717e-18 1.97461e-17)
(0.050629 -4.37736e-18 3.72496e-17)
(0.050629 -1.91182e-18 2.04007e-17)
(0.0558575 -4.90063e-18 3.82892e-17)
(0.0558575 -2.16064e-18 2.10847e-17)
(0.0611611 -5.42487e-18 3.93528e-17)
(0.0611611 -2.43623e-18 2.17991e-17)
(0.0665407 -5.9464e-18 4.04411e-17)
(0.0665407 -2.74812e-18 2.25437e-17)
(0.0719974 -6.44565e-18 4.15542e-17)
(0.0719974 -3.05799e-18 2.33215e-17)
(0.0775322 -6.92641e-18 4.26932e-17)
(0.0775322 -3.37838e-18 2.41335e-17)
(0.0831462 -7.41863e-18 4.38583e-17)
(0.0831462 -3.65898e-18 2.49809e-17)
(0.0888404 -7.95158e-18 4.50491e-17)
(0.0888404 -3.97121e-18 2.58648e-17)
(0.0946156 -8.51072e-18 4.62657e-17)
(0.0946156 -4.31115e-18 2.67868e-17)
(0.100473 -9.07374e-18 4.75081e-17)
(0.100473 -4.6161e-18 2.77475e-17)
(0.106413 -9.65436e-18 4.87754e-17)
(0.106413 -4.91329e-18 2.87474e-17)
(0.112437 -1.02744e-17 5.00677e-17)
(0.112437 -5.20465e-18 2.97905e-17)
(0.118546 -1.09295e-17 5.13838e-17)
(0.118546 -5.5271e-18 3.08762e-17)
(0.12474 -1.162e-17 5.2723e-17)
(0.12474 -5.91718e-18 3.20079e-17)
(0.131019 -1.23531e-17 5.40837e-17)
(0.131019 -6.21031e-18 3.31861e-17)
(0.137385 -1.3193e-17 5.54645e-17)
(0.137385 -6.39795e-18 3.441e-17)
(0.143837 -1.40657e-17 5.68635e-17)
(0.143837 -6.73448e-18 3.56809e-17)
(0.150375 -1.48612e-17 5.82799e-17)
(0.150375 -7.13326e-18 3.6998e-17)
(0.157 -1.54999e-17 5.97111e-17)
(0.157 -7.61166e-18 3.83656e-17)
(0.163711 -1.60602e-17 6.11578e-17)
(0.163711 -8.28605e-18 3.97814e-17)
(0.170506 -1.66759e-17 6.26156e-17)
(0.170506 -8.93277e-18 4.12409e-17)
(0.177385 -1.73271e-17 6.40815e-17)
(0.177385 -9.46712e-18 4.2739e-17)
(0.184347 -1.80997e-17 6.555e-17)
(0.184347 -9.92997e-18 4.42784e-17)
(0.191389 -1.88245e-17 6.70127e-17)
(0.191389 -1.04874e-17 4.58665e-17)
(0.198509 -1.95118e-17 6.84647e-17)
(0.198509 -1.09033e-17 4.74974e-17)
(0.205704 -2.04104e-17 6.9901e-17)
(0.205704 -1.12721e-17 4.91655e-17)
(0.212971 -2.14088e-17 7.13117e-17)
(0.212971 -1.16558e-17 5.08632e-17)
(0.220305 -2.23214e-17 7.26898e-17)
(0.220305 -1.21829e-17 5.25919e-17)
(0.227703 -2.32194e-17 7.40272e-17)
(0.227703 -1.28223e-17 5.43445e-17)
(0.235158 -2.41183e-17 7.53178e-17)
(0.235158 -1.33741e-17 5.61175e-17)
(0.242666 -2.48883e-17 7.65584e-17)
(0.242666 -1.39231e-17 5.78968e-17)
(0.250219 -2.57019e-17 7.77405e-17)
(0.250219 -1.44893e-17 5.96874e-17)
(0.257812 -2.68844e-17 7.88525e-17)
(0.257812 -1.51125e-17 6.14911e-17)
(0.265436 -2.80392e-17 7.98809e-17)
(0.265436 -1.54487e-17 6.3293e-17)
(0.273085 -2.89139e-17 8.08291e-17)
(0.273085 -1.59928e-17 6.50818e-17)
(0.28075 -2.97686e-17 8.1689e-17)
(0.28075 -1.62503e-17 6.6863e-17)
(0.288423 -3.08012e-17 8.24548e-17)
(0.288423 -1.66341e-17 6.86247e-17)
(0.296096 -3.17656e-17 8.31294e-17)
(0.296096 -1.73995e-17 7.03666e-17)
(0.303761 -3.27285e-17 8.37013e-17)
(0.303761 -1.7923e-17 7.20806e-17)
(0.311408 -3.38147e-17 8.41669e-17)
(0.311408 -1.83712e-17 7.37737e-17)
(0.319031 -3.49451e-17 8.45307e-17)
(0.319031 -1.90283e-17 7.54295e-17)
(0.32662 -3.61864e-17 8.47915e-17)
(0.32662 -1.97903e-17 7.70414e-17)
(0.334169 -3.70713e-17 8.49479e-17)
(0.334169 -2.0818e-17 7.86201e-17)
(0.34167 -3.79403e-17 8.50129e-17)
(0.34167 -2.1906e-17 8.01602e-17)
(0.349117 -3.89929e-17 8.49856e-17)
(0.349117 -2.26301e-17 8.16705e-17)
(0.356504 -3.9806e-17 8.48728e-17)
(0.356504 -2.34796e-17 8.31548e-17)
(0.363824 -4.06484e-17 8.46733e-17)
(0.363824 -2.45271e-17 8.46094e-17)
(0.371072 -4.13453e-17 8.44003e-17)
(0.371072 -2.58403e-17 8.6028e-17)
(0.378246 -4.20528e-17 8.40682e-17)
(0.378246 -2.68831e-17 8.7419e-17)
(0.385339 -4.29491e-17 8.36562e-17)
(0.385339 -2.7748e-17 8.88052e-17)
(0.392349 -4.36819e-17 8.31893e-17)
(0.392349 -2.85964e-17 9.01715e-17)
(0.399274 -4.44576e-17 8.26566e-17)
(0.399274 -2.89567e-17 9.15202e-17)
(0.406111 -4.51822e-17 8.20668e-17)
(0.406111 -2.98001e-17 9.28617e-17)
(0.412858 -4.60111e-17 8.14235e-17)
(0.412858 -3.08649e-17 9.42001e-17)
(0.419515 -4.73815e-17 8.07352e-17)
(0.419515 -3.17798e-17 9.5554e-17)
(0.426079 -4.87899e-17 7.99975e-17)
(0.426079 -3.30683e-17 9.68937e-17)
(0.432552 -4.99597e-17 7.92102e-17)
(0.432552 -3.3993e-17 9.82192e-17)
(0.438932 -5.0997e-17 7.83931e-17)
(0.438932 -3.5056e-17 9.95676e-17)
(0.44522 -5.17829e-17 7.7551e-17)
(0.44522 -3.63444e-17 1.00928e-16)
(0.451416 -5.2197e-17 7.66766e-17)
(0.451416 -3.71765e-17 1.02297e-16)
(0.457522 -5.24711e-17 7.57897e-17)
(0.457522 -3.79055e-17 1.0368e-16)
(0.463537 -5.27925e-17 7.48792e-17)
(0.463537 -3.86734e-17 1.05075e-16)
(0.469464 -5.33854e-17 7.39395e-17)
(0.469464 -3.92558e-17 1.06473e-16)
(0.475303 -5.37426e-17 7.29723e-17)
(0.475303 -3.99532e-17 1.07909e-16)
(0.481055 -5.40268e-17 7.19971e-17)
(0.481055 -4.09655e-17 1.09392e-16)
(0.486723 -5.49172e-17 7.1002e-17)
(0.486723 -4.17755e-17 1.10902e-16)
(0.492308 -5.57645e-17 6.99762e-17)
(0.492308 -4.2181e-17 1.12461e-16)
(0.497812 -5.62211e-17 6.89523e-17)
(0.497812 -4.31415e-17 1.14055e-16)
(0.503235 -5.60734e-17 6.79315e-17)
(0.503235 -4.44178e-17 1.15696e-16)
(0.508581 -5.64231e-17 6.69382e-17)