/*--------------------------------*- C++ -*----------------------------------*\
| =========                 |                                                 |
| \\      /  F ield         | OpenFOAM: The Open Source CFD Toolbox           |
|  \\    /   O peration     | Version:  2106                                  |
|   \\  /    A nd           | Website:  www.openfoam.com                      |
|    \\/     M anipulation  |                                                 |
\*---------------------------------------------------------------------------*/
FoamFile
{
    version     2.0;
    format      ascii;
    arch        "LSB;label=32;scalar=64";
    class       volTensorField;
    location    "15000";
    object      grad(U);
}
// * * * * * * * * * * * * * * * * * * * * * * * * * * * * * * * * * * * * * //

dimensions      [0 0 -1 0 0 0 0];

internalField   nonuniform List<tensor> 
2560
(
(-1.82862e-17 3.11836e-30 1.94897e-31 93.2979 -9.80454e-12 -1.01137e-12 0.135061 -7.09642e-15 -3.14538e-16)
(0 -9.13052e-28 -6.49658e-32 93.2979 -1.53595e-15 -6.67062e-14 0.135061 -1.02991e-18 2.47041e-16)
(0 -7.489e-25 -5.23803e-26 93.2841 3.54454e-32 -1.1373e-13 0.407107 0 -3.3404e-16)
(0 0 -5.12277e-31 93.2841 -1.27714e-14 -5.80928e-14 0.407107 -2.14807e-17 8.53901e-16)
(-1.70985e-17 -9.32404e-30 -3.50338e-31 93.27 1.42083e-12 -5.61837e-14 0.55986 -1.00531e-14 -3.35649e-16)
(0 2.01974e-29 1.00987e-30 93.27 -1.45018e-14 -3.648e-15 0.55986 -4.80121e-17 8.7867e-16)
(5.48311e-17 -2.29091e-29 -1.15503e-30 93.2542 5.97449e-13 -5.69504e-14 0.567897 -6.85932e-15 -3.53164e-16)
(0 1.99079e-29 9.95396e-31 93.2542 -1.49241e-14 -3.70145e-15 0.567897 -7.58682e-17 9.04201e-16)
(2.76163e-16 -2.35471e-29 -1.96226e-30 93.2337 -1.55718e-14 -5.8604e-14 0.576007 -5.15318e-16 -3.65916e-16)
(0 1.96226e-29 1.47169e-30 93.2337 -1.54279e-14 -3.75079e-15 0.576007 -1.05384e-16 9.30484e-16)
(4.04158e-16 -3.18204e-27 -1.14004e-30 93.2016 -8.18887e-15 -5.94639e-14 0.584131 -2.54817e-17 -3.74291e-16)
(1.05562e-15 1.16048e-29 9.67067e-31 93.2016 -1.57005e-14 -3.78903e-15 0.584131 -1.36359e-16 9.57446e-16)
(-1.7137e-16 -1.09044e-44 1.8076e-31 93.1455 1.2572e-27 -5.96996e-14 0.592166 -1.70708e-59 -3.79632e-16)
(6.85479e-16 1.52513e-29 4.76603e-31 93.1455 -1.59977e-14 -3.80032e-15 0.592166 -1.68596e-16 9.84976e-16)
(-2.1138e-16 1.8968e-29 6.59026e-31 93.0449 3.01051e-14 -5.93613e-14 0.599944 -1.85399e-16 -3.8089e-16)
(5.81062e-16 -3.75818e-30 0 93.0449 -1.65153e-14 -3.77568e-15 0.599944 -2.01332e-16 1.01285e-15)
(7.73336e-16 -2.24497e-29 -1.12475e-30 92.8696 3.03212e-14 -5.82302e-14 0.607216 -2.00403e-16 -3.75944e-16)
(0 2.22259e-29 9.26079e-31 92.8696 -1.69767e-14 -3.69522e-15 0.607216 -2.36048e-16 1.0407e-15)
(0 1.09537e-29 9.12806e-31 92.5778 2.97351e-14 -5.59987e-14 0.613643 -1.93659e-16 -3.62407e-16)
(0 -3.65122e-30 0 92.5778 -1.69207e-14 -3.53313e-15 0.613643 -2.70818e-16 1.06801e-15)
(1.71391e-16 -1.76745e-29 -1.12856e-30 92.117 3.00675e-14 -5.23694e-14 0.618794 -1.9849e-16 -3.38049e-16)
(-5.06499e-16 2.51922e-29 1.79945e-30 92.117 -1.70157e-14 -3.27892e-15 0.618794 -3.05669e-16 1.09408e-15)
(8.76816e-16 -3.22915e-29 -3.78141e-30 91.4262 3.03412e-14 -4.71135e-14 0.622173 -2.03811e-16 -3.01165e-16)
(-4.99239e-16 2.48312e-29 3.1039e-30 91.4262 -1.75239e-14 -2.91108e-15 0.622173 -3.43874e-16 1.11796e-15)
(0 -1.04894e-29 -8.74117e-31 90.4416 3.06102e-14 -4.01414e-14 0.623264 -2.08046e-16 -2.51243e-16)
(0 1.39859e-29 1.31118e-30 90.4416 -1.75886e-14 -2.42818e-15 0.623264 -3.83963e-16 1.13864e-15)
(-4.64076e-16 1.76866e-29 1.98621e-30 89.1055 3.12289e-14 -3.15688e-14 0.621597 -2.13513e-16 -1.89351e-16)
(1.37127e-15 -3.44635e-30 -4.30794e-31 89.1055 -1.78268e-14 -1.84708e-15 0.621597 -4.24476e-16 1.155e-15)
(0 2.71757e-29 2.97234e-30 87.376 3.21125e-14 -2.17479e-14 0.616829 -2.22847e-16 -1.18391e-16)
(0 -2.71757e-29 -2.97234e-30 87.376 -1.85007e-14 -1.17359e-15 0.616829 -4.66812e-16 1.16609e-15)
(-5.51784e-16 3.88699e-30 -1.26764e-31 85.2357 3.29213e-14 -1.12417e-14 0.608805 -2.32383e-16 -4.27193e-17)
(2.20714e-15 0 4.18534e-31 85.2357 -1.87352e-14 -4.5077e-16 0.608805 -5.08717e-16 1.17125e-15)
(-9.28947e-16 2.3102e-29 -2.54854e-29 82.6975 3.33126e-14 8.2215e-29 0.597598 -2.41088e-16 0)
(-1.45339e-15 -2.3102e-29 -2.47521e-30 82.6975 -1.89615e-14 2.652e-16 0.597598 -5.50068e-16 1.17015e-15)
(0 2.27709e-29 -1.95232e-29 79.804 3.30939e-14 8.79432e-15 0.5835 -2.44942e-16 -3.25418e-17)
(-2.55603e-15 -2.27709e-29 -2.43974e-30 79.804 -1.88215e-14 9.26287e-16 0.5835 -5.95001e-16 1.16288e-15)
(9.02509e-16 -1.28254e-29 -8.01589e-31 76.6222 3.23659e-14 1.76591e-14 0.566977 -2.44889e-16 -1.02464e-16)
(0 1.60318e-29 1.60318e-30 76.6222 -1.79996e-14 1.50075e-15 0.566977 -6.37926e-16 1.14991e-15)
(-1.65893e-16 1.51015e-29 2.09673e-30 73.2337 3.11719e-14 2.46146e-14 0.548595 -2.41107e-16 -1.63152e-16)
(-2.00515e-15 -2.21228e-29 -3.1604e-30 73.2337 -1.69893e-14 1.96012e-15 0.548595 -6.80614e-16 1.1321e-15)
(-1.75365e-15 2.49208e-29 3.11511e-30 69.7245 2.98875e-14 2.98072e-14 0.528952 -2.33739e-16 -2.12201e-16)
(1.75365e-15 -2.49208e-29 -3.11511e-30 69.7245 -1.59983e-14 2.29286e-15 0.528952 -7.22525e-16 1.11038e-15)
(-8.04e-16 -8.43099e-30 2.53846e-31 66.1758 2.82426e-14 3.32823e-14 0.508613 -2.28174e-16 -2.48774e-16)
(0 1.84227e-29 1.53523e-30 66.1758 -1.51819e-14 2.52549e-15 0.508613 -7.61505e-16 1.08583e-15)
(9.72711e-18 -3.247e-29 -4.29409e-30 62.6577 2.65118e-14 3.52184e-14 0.488069 -2.14605e-16 -2.73308e-16)
(0 3.63174e-29 3.78306e-30 62.6577 -1.45434e-14 2.65179e-15 0.488069 -7.99232e-16 1.05951e-15)
(0 1.78984e-29 1.49154e-30 59.2258 2.61299e-14 3.58693e-14 0.467717 -2.07121e-16 -2.87087e-16)
(-3.51534e-15 -2.38646e-29 -2.98307e-30 59.2258 -1.44675e-14 2.66745e-15 0.467717 -8.37557e-16 1.03223e-15)
(9.14044e-16 1.38041e-29 2.70773e-30 55.9213 2.55632e-14 3.55137e-14 0.447861 -2.14682e-16 -2.91895e-16)
(0 -1.76419e-29 -2.94032e-30 55.9213 -1.43984e-14 2.61508e-15 0.447861 -8.74001e-16 1.00473e-15)
(-1.89556e-15 3.66512e-29 4.0781e-30 52.7717 2.42732e-14 3.44142e-14 0.428713 -2.03842e-16 -2.89632e-16)
(0 -2.89818e-29 -3.62272e-30 52.7717 -1.3535e-14 2.51121e-15 0.428713 -9.08584e-16 9.77676e-16)
(4.54834e-15 -4.57712e-29 -3.88475e-30 49.7934 2.38473e-14 3.27944e-14 0.410415 -1.99384e-16 -2.82047e-16)
(7.84052e-15 3.99929e-29 3.92788e-30 49.7934 -1.25821e-14 2.37135e-15 0.410415 -9.44608e-16 9.514e-16)
(-1.5851e-15 -2.25256e-29 -2.46373e-30 46.9935 2.32687e-14 3.08389e-14 0.393046 -2.02582e-16 -2.70616e-16)
(4.04381e-15 2.81569e-29 2.46373e-30 46.9935 -1.19353e-14 2.24808e-15 0.393046 -9.78791e-16 9.26251e-16)
(1.0405e-15 7.28047e-30 1.51674e-30 44.3728 2.20227e-14 2.86916e-14 0.376642 -1.95259e-16 -2.56626e-16)
(-1.56238e-15 -5.55068e-30 -1.04075e-30 44.3728 -1.15189e-14 2.12896e-15 0.376642 -1.01172e-15 9.02583e-16)
(-2.13756e-15 7.63519e-30 4.31643e-31 41.9274 2.11479e-14 2.64593e-14 0.361205 -1.86742e-16 -2.41019e-16)
(-8.55024e-15 0 0 41.9274 -1.11436e-14 1.97172e-15 0.361205 -1.04722e-15 8.80364e-16)
(-1.09585e-15 9.20606e-30 8.88355e-31 39.6502 2.1042e-14 2.42215e-14 0.346716 -1.85471e-16 -2.24568e-16)
(-4.38342e-15 0 0 39.6502 -1.12747e-14 1.77248e-15 0.346716 -1.07958e-15 8.59591e-16)
(0 2.65771e-29 2.32549e-30 37.5323 2.05336e-14 2.20312e-14 0.333138 -1.90306e-16 -2.0783e-16)
(-4.48719e-15 -2.65771e-29 -2.32549e-30 37.5323 -1.11833e-14 1.59466e-15 0.333138 -1.11312e-15 8.40218e-16)
(1.47471e-15 -2.61962e-29 -1.96471e-30 35.5637 1.90379e-14 1.99228e-14 0.320428 -1.81628e-16 -1.91177e-16)
(3.112e-15 2.61962e-29 1.96471e-30 35.5637 -1.00473e-14 1.43798e-15 0.320428 -1.14796e-15 8.22347e-16)
(-1.17056e-15 -1.36212e-30 -1.10944e-31 33.7343 1.796e-14 1.79177e-14 0.308536 -1.68189e-16 -1.74884e-16)
(0 1.54924e-29 3.22759e-31 33.7343 -9.5499e-15 1.30855e-15 0.308536 -1.18239e-15 8.05788e-16)
(-1.19351e-15 2.41584e-29 1.80225e-30 32.0338 1.75125e-14 1.60266e-14 0.297409 -1.66703e-16 -1.59116e-16)
(0 -2.03605e-29 -1.59066e-30 32.0338 -9.26554e-15 1.2167e-15 0.297409 -1.20934e-15 7.90876e-16)
(-1.2156e-15 1.88461e-29 1.77949e-30 30.4523 1.70909e-14 1.42505e-14 0.286998 -1.64588e-16 -1.43971e-16)
(-6.2746e-15 -1.00343e-29 -9.40719e-31 30.4523 -8.78653e-15 1.07957e-15 0.286998 -1.23367e-15 7.77398e-16)
(1.23686e-15 -1.86267e-29 -1.13915e-30 28.9803 1.71491e-14 1.25953e-14 0.27725 -1.63436e-16 -1.29439e-16)
(0 1.48358e-29 9.27237e-31 28.9803 -8.61631e-15 9.38341e-16 0.27725 -1.26304e-15 7.6499e-16)
(2.62939e-15 -1.84086e-29 -1.73564e-30 27.609 1.66174e-14 1.10599e-14 0.268118 -1.7055e-16 -1.15724e-16)
(-1.37202e-15 1.46231e-29 1.52324e-30 27.609 -8.48707e-15 8.32998e-16 0.268118 -1.29322e-15 7.53799e-16)
(-1.27716e-15 2.30015e-29 1.11395e-30 26.3303 1.56232e-14 9.63285e-15 0.259556 -1.57645e-16 -1.02677e-16)
(-1.35235e-15 -9.60904e-30 -9.00848e-31 26.3303 -8.37101e-15 7.3575e-16 0.259556 -1.32277e-15 7.43835e-16)
(0 1.4207e-29 1.47989e-30 25.1366 1.53293e-14 8.31132e-15 0.251522 -1.55474e-16 -9.03039e-17)
(0 -1.89426e-29 -1.77587e-30 25.1366 -7.60411e-15 6.4507e-16 0.251522 -1.34858e-15 7.35047e-16)
(-1.31479e-15 1.77793e-29 2.15091e-31 24.0209 1.50565e-14 7.09042e-15 0.243976 -1.56243e-16 -7.8617e-17)
(5.25915e-15 -4.66779e-30 5.83473e-31 24.0209 -6.42802e-15 5.4291e-16 0.243976 -1.3722e-15 7.27247e-16)
(0 -2.30044e-29 -2.01289e-30 22.9769 1.50304e-14 5.96238e-15 0.236881 -1.54359e-16 -6.75789e-17)
(5.3308e-15 2.30044e-29 2.01289e-30 22.9769 -6.8389e-15 4.79132e-16 0.236881 -1.39626e-15 7.20247e-16)
(1.35006e-15 1.43717e-29 6.32535e-31 21.9989 1.49605e-14 4.91646e-15 0.230203 -1.60271e-16 -5.71384e-17)
(-5.40026e-15 -2.26747e-29 -1.41717e-30 21.9989 -7.63213e-15 4.3403e-16 0.230203 -1.4271e-15 7.14435e-16)
(1.36691e-15 -1.71753e-29 -1.05749e-30 21.0814 1.42183e-14 3.94389e-15 0.223911 -1.57384e-16 -4.71876e-17)
(0 1.34098e-29 8.38115e-31 21.0814 -7.19241e-15 3.48914e-16 0.223911 -1.45258e-15 7.09435e-16)
(-1.43127e-16 -6.42367e-31 2.21153e-31 20.2198 1.33794e-14 3.04515e-15 0.217977 -1.4886e-16 -3.77076e-17)
(-1.24014e-15 1.32176e-29 5.50735e-31 20.2198 -6.98774e-15 2.56071e-16 0.217977 -1.47711e-15 7.05166e-16)
(1.39917e-15 4.92488e-30 -2.23082e-31 19.4096 1.32252e-14 2.21449e-15 0.212374 -1.43526e-16 -2.8784e-17)
(5.5967e-15 -4.34273e-30 0 19.4096 -6.70594e-15 1.70899e-16 0.212374 -1.49735e-15 7.01491e-16)
(2.4097e-15 -4.28049e-30 -1.07012e-30 18.6469 1.34473e-14 1.44013e-15 0.207079 -1.49777e-16 -2.02589e-17)
(5.65858e-15 4.28049e-30 1.07012e-30 18.6469 -6.45194e-15 1.30197e-16 0.207079 -1.5121e-15 6.98628e-16)
(-1.42971e-15 7.97169e-30 2.27432e-31 17.928 1.35337e-14 7.23795e-16 0.202069 -1.52763e-16 -1.20802e-17)
(0 0 5.27392e-31 17.928 -7.14419e-15 9.45753e-17 0.202069 -1.53613e-15 6.96762e-16)
(-1.44439e-15 3.74826e-30 -2.90017e-31 17.2497 1.32207e-14 6.19376e-17 0.197324 -1.56151e-16 -4.38397e-18)
(0 0 1.03967e-30 17.2497 -8.14257e-15 -5.19501e-18 0.197324 -1.56518e-15 6.95499e-16)
(2.30757e-15 -4.09906e-30 -1.02477e-30 16.609 1.27115e-14 -5.59842e-16 0.192826 -1.49939e-16 -1.02009e-17)
(0 4.09906e-30 1.02477e-30 16.609 -7.91106e-15 -3.87168e-17 0.192826 -1.59182e-15 6.94773e-16)
(-3.74717e-15 3.74182e-30 2.31291e-31 16.003 1.25661e-14 -1.13681e-15 0.188558 -1.48674e-16 -1.69425e-17)
(0 8.08063e-30 1.01008e-30 16.003 -6.42367e-15 -1.62036e-17 0.188558 -1.61793e-15 6.95254e-16)
(0 2.38944e-29 2.489e-30 15.4294 1.17397e-14 -1.67865e-15 0.184504 -1.50842e-16 -2.36968e-17)
(-5.9453e-15 -1.9912e-29 -1.9912e-30 15.4294 -4.56457e-15 -6.36957e-17 0.184504 -1.63961e-15 6.96358e-16)
(-1.49966e-15 -1.58892e-29 -1.72925e-30 14.8858 9.83621e-15 -2.19265e-15 0.180649 -1.32901e-16 -3.014e-17)
(5.99865e-15 2.3552e-29 1.96266e-30 14.8858 -3.58331e-15 -1.33836e-16 0.180649 -1.65909e-15 6.97779e-16)
(0 1.93453e-29 1.93453e-30 14.3702 8.01275e-15 -2.67868e-15 0.176981 -1.08224e-16 -3.65755e-17)
(0 -1.93453e-29 -1.93453e-30 14.3702 -4.20795e-15 -1.94908e-16 0.176981 -1.67907e-15 6.99519e-16)
(-3.67235e-15 1.51798e-29 1.1897e-30 13.8806 7.81636e-15 -3.13941e-15 0.173488 -9.10805e-17 -4.27414e-17)
(8.24876e-15 -1.14408e-29 -9.53403e-31 13.8806 -4.31404e-15 -2.08165e-16 0.173488 -1.69058e-15 7.01803e-16)
(3.07594e-15 -1.12278e-29 -1.41586e-30 13.4152 8.2733e-15 -3.56993e-15 0.170158 -1.06399e-16 -4.8756e-17)
(6.15189e-15 3.75895e-30 9.39738e-31 13.4152 -3.75061e-15 -2.03569e-16 0.170158 -1.70107e-15 7.04921e-16)
(0 -1.11152e-29 -9.2627e-31 12.9726 7.86918e-15 -3.97581e-15 0.166981 -1.05539e-16 -5.46193e-17)
(0 1.11152e-29 9.2627e-31 12.9726 -3.64012e-15 -2.10334e-16 0.166981 -1.72093e-15 7.08723e-16)
(-1.56223e-15 -7.22504e-30 2.42239e-31 12.5511 7.90047e-15 -4.3487e-15 0.163948 -9.8936e-17 -6.00882e-17)
(0 1.46079e-29 4.56497e-31 12.5511 -3.31112e-15 -2.79125e-16 0.163948 -1.74462e-15 7.13046e-16)
(-3.14801e-15 1.82516e-29 2.28899e-30 12.1495 8.11067e-15 -4.69384e-15 0.16105 -1.09462e-16 -6.55194e-17)
(6.29603e-15 -1.79982e-29 -2.24977e-30 12.1495 -3.34358e-15 -3.21767e-16 0.16105 -1.76739e-15 7.17089e-16)
(-1.58557e-15 3.72398e-30 2.47114e-31 11.7664 7.56325e-15 -5.02577e-15 0.158279 -1.07498e-16 -7.09226e-17)
(0 7.09608e-30 8.8701e-31 11.7664 -3.95256e-15 -3.51721e-16 0.158279 -1.7913e-15 7.21995e-16)
(-1.59692e-15 -3.2714e-30 -6.24482e-31 11.4008 7.29028e-15 -5.34603e-15 0.155627 -9.77031e-17 -7.63214e-17)
(6.38767e-15 6.99438e-30 1.31145e-30 11.4008 -3.42832e-15 -3.34306e-16 0.155627 -1.81478e-15 7.27065e-16)
(-1.60807e-15 1.06137e-29 1.54535e-30 11.0515 7.90465e-15 -5.65127e-15 0.153087 -1.03076e-16 -8.15894e-17)
(-1.94052e-15 -3.44706e-30 -4.30883e-31 11.0515 -3.66213e-15 -3.21673e-16 0.153087 -1.82931e-15 7.33396e-16)
(-5.15077e-15 2.44175e-29 1.80695e-30 10.7176 7.83142e-15 -1.42116e-15 0.150654 -1.17853e-16 -1.00696e-17)
(-4.5634e-15 -1.69883e-29 -1.27412e-30 10.7176 -2.72476e-15 -3.72003e-16 0.150654 -1.85108e-15 7.3938e-16)
(-1.37431e-15 -9.31619e-30 0 10.3982 6.62813e-15 1.34573e-31 0.14832 -1.04005e-16 -3.9443e-31)
(1.11531e-14 1.33958e-29 2.0931e-30 10.3982 -1.47944e-15 -3.61809e-16 0.14832 -1.85998e-15 7.45878e-16)
(-4.92123e-15 3.42544e-29 2.85405e-30 10.0924 6.38708e-15 2.46479e-15 0.146081 -8.64541e-17 -3.73186e-17)
(-6.56163e-15 -2.31067e-29 -2.0631e-30 10.0924 -3.54967e-15 -3.89038e-16 0.146081 -1.86853e-15 7.52922e-16)
(-3.48249e-15 -1.90626e-29 -9.56267e-31 9.79944 7.85179e-15 2.21328e-15 0.143932 -9.99689e-17 -3.45649e-17)
(8.43502e-15 2.92829e-29 1.22012e-30 9.79944 -4.36818e-15 -4.48164e-16 0.143932 -1.89799e-15 7.59956e-16)
(1.66112e-15 -1.01196e-29 -1.46693e-30 9.51859 8.6184e-15 1.94145e-15 0.141866 -1.32652e-16 -3.09139e-17)
(0 6.41404e-30 1.20263e-30 9.51859 -4.72257e-15 -4.97221e-16 0.141866 -1.9184e-15 7.67058e-16)
(-3.55903e-15 -2.21274e-29 -1.97566e-30 9.24918 8.20909e-15 1.65962e-15 0.139881 -1.26084e-16 -2.73561e-17)
(1.0244e-14 2.21274e-29 1.97566e-30 9.24918 -4.79043e-15 -5.41007e-16 0.139881 -1.93931e-15 7.74778e-16)
(0 -6.2315e-30 -1.16841e-30 8.99058 8.47985e-15 1.35642e-15 0.137972 -1.23978e-16 -2.31714e-17)
(1.02329e-14 6.2315e-30 3.89468e-31 8.99058 -3.94552e-15 -5.687e-16 0.137972 -1.96468e-15 7.82702e-16)
(-3.45774e-15 1.53555e-29 1.15166e-30 8.7422 8.44741e-15 1.10875e-15 0.136134 -1.38206e-16 -1.87184e-17)
(5.03528e-15 -6.14218e-30 -3.83886e-31 8.7422 -4.17717e-15 -5.31142e-16 0.136134 -1.98811e-15 7.91459e-16)
(1.70409e-15 3.02707e-29 1.51354e-30 8.50351 7.38582e-15 8.60053e-16 0.134365 -1.26585e-16 -1.60278e-17)
(-1.70409e-15 -3.02707e-29 -1.51354e-30 8.50351 -4.55808e-15 -5.4273e-16 0.134365 -2.00979e-15 8.0133e-16)
(-3.42058e-15 7.38616e-30 1.64848e-31 8.27398 6.98808e-15 6.06042e-16 0.13266 -1.08238e-16 -1.12978e-17)
(0 0 3.72961e-31 8.27398 -4.35445e-15 -6.59018e-16 0.13266 -2.04359e-15 8.1088e-16)
(0 -1.76455e-29 -1.83808e-30 8.05315 6.50477e-15 4.04877e-16 0.131017 -1.17363e-16 -8.23968e-18)
(6.87889e-15 1.76455e-29 1.83808e-30 8.05315 -2.58721e-15 -6.4931e-16 0.131017 -2.07743e-15 8.20046e-16)
(0 1.15951e-29 1.08704e-30 7.84057 5.62799e-15 1.83988e-16 0.129433 -9.54682e-17 -4.99403e-18)
(3.6524e-15 -5.79755e-30 -3.62347e-31 7.84057 -1.69036e-15 -6.43264e-16 0.129433 -2.08381e-15 8.30578e-16)
(-1.73823e-15 -2.02718e-30 -4.4145e-31 7.63582 6.48446e-15 -5.75042e-18 0.127904 -9.14633e-17 -1.30086e-18)
(0 5.71445e-30 7.14307e-31 7.63582 -3.42405e-15 -6.66555e-16 0.127904 -2.09408e-15 8.40725e-16)
(1.74731e-15 1.9535e-30 1.13462e-30 7.43852 7.27814e-15 -1.58084e-16 0.126429 -1.2734e-16 -4.12485e-18)
(-1.58542e-15 0 -1.0561e-30 7.43852 -4.95802e-15 -7.05166e-16 0.126429 -2.12327e-15 8.5206e-16)
(0 -1.11036e-29 -1.38796e-30 7.24831 6.90395e-15 -3.41352e-16 0.125005 -1.21478e-16 -7.74279e-18)
(0 1.11036e-29 1.38796e-30 7.24831 -6.03452e-15 -8.16094e-16 0.125005 -2.14597e-15 8.63128e-16)
(0 -1.09445e-29 -1.71008e-30 7.06483 6.80791e-15 -5.23568e-16 0.123628 -1.17995e-16 -1.07053e-17)
(1.5403e-15 1.09445e-29 1.71008e-30 7.06483 -6.63474e-15 -8.40553e-16 0.123628 -2.1802e-15 8.74658e-16)
(-3.54781e-15 -3.44661e-30 -8.08885e-31 6.88777 6.27504e-15 -1.92552e-15 0.122298 -1.21632e-16 -5.83921e-17)
(3.03645e-15 1.07876e-29 1.68557e-30 6.88777 -4.43013e-15 -7.95886e-16 0.122298 -2.21853e-15 8.87099e-16)
(-1.78257e-15 1.43035e-29 5.9596e-31 6.71682 5.73178e-15 -5.02763e-15 0.121012 -1.02286e-16 -1.24211e-16)
(0 -1.0633e-29 -3.32282e-31 6.71682 -2.30922e-15 -6.87724e-16 0.121012 -2.23379e-15 9.00954e-16)
(1.79114e-15 -8.90874e-30 -9.23486e-31 6.55171 6.22625e-15 -6.86864e-15 0.119768 -1.05372e-16 -1.28256e-16)
(-7.16455e-15 5.24031e-30 6.55039e-31 6.55171 -4.30316e-15 -7.19719e-16 0.119768 -2.2521e-15 9.1581e-16)
(2.90775e-15 -1.03304e-29 -9.68476e-31 6.39216 5.29373e-15 -6.99055e-15 0.118565 -1.23588e-16 -1.32428e-16)
(-7.19846e-15 1.03304e-29 9.68476e-31 6.39216 -3.4776e-15 -8.38286e-16 0.118565 -2.29086e-15 9.2948e-16)
(1.05807e-15 1.38533e-29 2.18725e-30 6.23792 3.97021e-15 -7.10564e-15 0.1174 -7.34356e-17 -1.36398e-16)
(1.1598e-14 -1.01823e-29 -1.27279e-30 6.23792 1.09707e-15 -8.33026e-16 0.1174 -2.2992e-15 9.43282e-16)
(1.81631e-15 6.36806e-30 9.75337e-31 6.08875 4.59068e-15 -7.19213e-15 0.116272 -7.67768e-17 -1.39651e-16)
(7.26523e-15 -2.00728e-29 -1.56819e-30 6.08875 1.04926e-15 -7.88228e-16 0.116272 -2.28787e-15 9.57552e-16)
(0 0 0 5.94444 4.89772e-15 -7.26838e-15 0.115179 -9.95729e-17 -1.43384e-16)
(0 0 6.18285e-31 5.94444 3.34656e-16 -7.61099e-16 0.115179 -2.30052e-15 9.72184e-16)
(-4.57727e-15 -1.09641e-29 -2.15614e-30 5.80476 4.43566e-15 -7.37289e-15 0.11412 -9.10678e-17 -1.479e-16)
(7.33066e-15 1.95016e-29 2.43769e-30 5.80476 2.08932e-16 -7.32692e-16 0.11412 -2.29489e-15 9.8713e-16)
(-1.84073e-15 8.46687e-30 1.48446e-30 5.66953 4.4564e-15 -7.43632e-15 0.113093 -8.41045e-17 -1.50145e-16)
(-1.00682e-14 0 -6.00689e-31 5.66953 -1.07631e-15 -8.31691e-16 0.113093 -2.31192e-15 1.00199e-15)
(1.84871e-15 -8.39452e-30 -8.76343e-31 5.53854 4.50279e-15 -7.51025e-15 0.112098 -9.45727e-17 -1.55261e-16)
(7.39485e-15 4.73664e-30 5.9208e-31 5.53854 8.62768e-17 -9.8116e-16 0.112098 -2.31574e-15 1.01489e-15)
(-1.85663e-15 2.23323e-29 2.0367e-30 5.41162 3.97281e-15 -7.6005e-15 0.111133 -8.84679e-17 -1.58294e-16)
(7.4265e-15 -1.8675e-29 -1.75078e-30 5.41162 -2.26986e-17 -9.29248e-16 0.111133 -2.28773e-15 1.02738e-15)
(-1.86447e-15 -9.44041e-31 2.87312e-31 5.28861 4.58067e-15 -7.67586e-15 0.110196 -7.53216e-17 -1.62986e-16)
(0 4.60183e-30 0 5.28861 -1.68405e-15 -8.81826e-16 0.110196 -2.29881e-15 1.04179e-15)
(-1.87224e-15 3.64993e-30 8.55601e-31 5.16934 5.65054e-15 -7.84452e-15 0.109287 -1.16684e-16 -1.70144e-16)
(0 0 0 5.16934 -1.32742e-15 -1.01629e-15 0.109287 -2.30523e-15 1.05537e-15)
(-4.39682e-15 -9.76647e-30 -1.38535e-30 5.05365 6.24807e-15 -7.88213e-15 0.108405 -1.23285e-16 -1.69392e-16)
(7.51978e-15 1.78835e-29 2.23543e-30 5.05365 -1.32019e-15 -1.09568e-15 0.108405 -2.29925e-15 1.06762e-15)
(1.88759e-15 -8.0458e-30 -8.43868e-31 4.94142 6.19804e-15 -7.84714e-15 0.107548 -1.4603e-16 -1.73588e-16)
(0 4.40679e-30 5.50848e-31 4.94142 -2.25077e-15 -1.03002e-15 0.107548 -2.31628e-15 1.08156e-15)
(0 -4.34363e-30 -5.42953e-31 4.83249 4.62225e-15 -7.95761e-15 0.106715 -1.24694e-16 -1.79287e-16)
(0 4.34363e-30 5.42953e-31 4.83249 -3.12395e-15 -1.03628e-15 0.106715 -2.33827e-15 1.09622e-15)
(-4.31288e-15 3.64351e-30 2.96868e-31 4.72673 4.22899e-15 -8.09236e-15 0.105906 -7.99301e-17 -1.84779e-16)
(2.4102e-15 4.28137e-30 5.35171e-31 4.72673 -2.74916e-15 -1.24164e-15 0.105906 -2.36706e-15 1.10877e-15)
(0 -2.95401e-29 -3.69251e-30 4.62404 5.84353e-15 -8.18624e-15 0.10512 -1.10527e-16 -1.88855e-16)
(1.52811e-14 2.95401e-29 4.22001e-30 4.62404 -8.68502e-16 -1.32397e-15 0.10512 -2.38967e-15 1.11873e-15)
(0 8.31905e-30 0 4.52428 6.67885e-15 -8.25257e-15 0.104356 -1.56492e-16 -1.93284e-16)
(7.67016e-15 0 5.19941e-31 4.52428 -1.0326e-15 -1.13289e-15 0.104356 -2.3916e-15 1.13054e-15)
(3.8316e-16 2.82222e-29 3.89143e-30 4.42735 6.27388e-15 -8.27308e-15 0.103613 -1.52723e-16 -1.95358e-16)
(-1.00076e-14 -2.45994e-29 -3.07493e-30 4.42735 -2.61809e-15 -1.06464e-15 0.103613 -2.41065e-15 1.14578e-15)
(3.4279e-16 1.17034e-29 1.31678e-30 4.33314 5.66189e-15 -8.31013e-15 0.10289 -1.41914e-16 -2.00725e-16)
(-1.00037e-14 -8.08229e-30 -1.01029e-30 4.33314 -3.15774e-15 -1.25982e-15 0.10289 -2.43253e-15 1.15959e-15)
(0 7.96645e-30 9.95806e-31 4.24154 4.37505e-15 -8.39686e-15 0.102187 -1.27818e-16 -2.05305e-16)
(0 -3.98323e-30 -4.97903e-31 4.24154 -1.68693e-15 -1.34459e-15 0.102187 -2.44008e-15 1.16995e-15)
(2.21022e-15 7.85227e-30 4.90767e-31 4.15247 4.30506e-15 -8.57788e-15 0.101503 -8.33988e-17 -2.15549e-16)
(5.57617e-15 -3.92614e-30 0 4.15247 -4.13271e-16 -1.27368e-15 0.101503 -2.44121e-15 1.18122e-15)
(1.95373e-15 2.73459e-29 3.55467e-30 4.06583 5.49868e-15 -8.68087e-15 0.100838 -1.28105e-16 -2.16482e-16)
(-2.17854e-15 -2.32192e-29 -2.9024e-30 4.06583 -1.9024e-15 -1.46646e-15 0.100838 -2.45064e-15 1.19224e-15)
(0 -3.43296e-29 -5.7216e-30 3.98153 5.84886e-15 -8.63077e-15 0.100189 -1.45677e-16 -2.19315e-16)
(1.56865e-14 3.43296e-29 5.7216e-30 3.98153 -2.0639e-15 -1.55997e-15 0.100189 -2.46898e-15 1.20012e-15)
(0 -7.51946e-30 -4.69966e-31 3.89949 5.73603e-15 -8.68429e-15 0.0995584 -1.49667e-16 -2.25585e-16)
(1.57429e-14 7.51946e-30 9.39932e-31 3.89949 -2.76191e-15 -1.40287e-15 0.0995584 -2.46743e-15 1.21188e-15)
(-3.9497e-15 3.47584e-30 6.50444e-31 3.81963 5.20738e-15 -8.76086e-15 0.0989438 -1.44123e-16 -2.29748e-16)
(0 3.70584e-30 0 3.81963 -3.71563e-15 -1.46773e-15 0.0989438 -2.49609e-15 1.22417e-15)
(-1.9818e-15 3.58739e-30 3.29214e-31 3.74187 5.87252e-15 -8.75274e-15 0.0983451 -1.26377e-16 -2.31761e-16)
(1.58544e-14 3.65273e-30 1.36977e-30 3.74187 -2.49627e-15 -1.56475e-15 0.0983451 -2.51306e-15 1.23559e-15)
(-3.81259e-17 -7.1717e-30 -1.68294e-30 3.66615 6.97357e-15 -8.77373e-15 0.0977619 -1.8367e-16 -2.37609e-16)
(2.02683e-15 3.60038e-30 1.35014e-30 3.66615 -4.0685e-15 -1.50148e-15 0.0977619 -2.52297e-15 1.24774e-15)
(-1.99557e-15 -3.53293e-30 3.36467e-31 3.59238 6.37045e-15 -8.85278e-15 0.0971936 -1.89405e-16 -2.42872e-16)
(0 1.06463e-29 8.87193e-31 3.59238 -4.80063e-15 -1.56499e-15 0.0971936 -2.56805e-15 1.2609e-15)
(-2.00239e-15 1.05607e-29 2.08964e-30 3.52051 5.81627e-15 -8.89903e-15 0.0966396 -1.56081e-16 -2.47134e-16)
(8.00955e-15 -6.99582e-30 -1.74895e-30 3.52051 -3.39723e-15 -1.71535e-15 0.0966396 -2.597e-15 1.27295e-15)
(-2.00917e-15 1.39009e-29 1.20674e-30 3.45046 6.24255e-15 -8.94905e-15 0.0960996 -1.64219e-16 -2.52801e-16)
(6.09575e-15 -1.03433e-29 0 3.45046 -3.87182e-15 -1.69195e-15 0.0960996 -2.61877e-15 1.28495e-15)
(-4.03182e-15 3.00333e-31 6.98556e-31 3.38219 5.77259e-15 -8.98251e-15 0.0955731 -1.84638e-16 -2.56284e-16)
(0 6.79672e-30 0 3.38219 -3.42412e-15 -1.52231e-15 0.0955731 -2.65458e-15 1.29972e-15)
(-2.02261e-15 1.02494e-29 2.02877e-30 3.31562 4.73769e-15 -8.97032e-15 0.0950597 -1.42202e-16 -2.59501e-16)
(0 -6.69931e-30 -8.37413e-31 3.31562 -3.22378e-15 -1.52904e-15 0.0950597 -2.67996e-15 1.31772e-15)
(0 -6.60329e-30 -1.65082e-30 3.25072 4.10294e-15 -9.04841e-15 0.0945589 -1.30111e-16 -2.68379e-16)
(-8.11712e-15 6.60329e-30 1.65082e-30 3.25072 -3.58367e-15 -1.72623e-15 0.0945589 -2.71356e-15 1.33368e-15)
(-1.62813e-15 -1.6563e-29 -1.99306e-30 3.18741 3.5207e-15 -8.79546e-15 0.0940704 -1.09072e-16 -2.52024e-16)
(1.18077e-14 1.30173e-29 1.62716e-30 3.18741 -3.19516e-15 -1.7406e-15 0.0940704 -2.75121e-15 1.35046e-15)
(2.36739e-16 -1.31646e-29 -1.18898e-30 3.12565 2.78689e-15 -6.43873e-15 0.0935938 -9.9214e-17 -1.33711e-16)
(-6.36424e-15 9.62304e-30 8.0192e-31 3.12565 -2.09148e-15 -1.53884e-15 0.0935938 -2.79489e-15 1.36967e-15)
(-2.04906e-15 9.86536e-30 1.1789e-30 3.06539 2.09063e-15 -4.28802e-15 0.0931287 -6.78884e-17 -1.27445e-16)
(6.41636e-15 -3.16171e-30 0 3.06539 3.85453e-16 -1.53075e-15 0.0931287 -2.79523e-15 1.3912e-15)
(0 3.11639e-30 1.5582e-30 3.00658 2.76097e-15 -4.2194e-15 0.0926748 -5.93997e-17 -1.33356e-16)
(-3.50874e-15 0 -7.79098e-31 3.00658 1.71594e-16 -1.66294e-15 0.0926748 -2.76646e-15 1.41127e-15)
(-3.45845e-15 1.53586e-29 2.30379e-30 2.94918 3.42056e-15 -4.30504e-15 0.0922317 -1.11605e-16 -1.36587e-16)
(6.51909e-15 -9.21517e-30 -7.67931e-31 2.94918 -7.04663e-16 -1.6626e-15 0.0922317 -2.78674e-15 1.43124e-15)
(3.64095e-16 -9.57774e-30 -2.6589e-30 2.89314 2.60436e-15 -4.30152e-15 0.0917991 -1.02796e-16 -1.37037e-16)
(1.70444e-15 6.0554e-30 2.27077e-30 2.89314 -9.77825e-16 -1.50657e-15 0.0917991 -2.80404e-15 1.45072e-15)
(0 8.95291e-30 2.23823e-30 2.83843 2.3493e-15 -4.17637e-15 0.0913767 -6.25784e-17 -1.32453e-16)
(-9.97988e-15 -2.9843e-30 -7.46076e-31 2.83843 -1.75551e-15 -1.55404e-15 0.0913767 -2.82286e-15 1.47312e-15)
(-3.31187e-15 5.88306e-30 7.35383e-31 2.78499 4.11834e-15 -4.15982e-15 0.0909642 -8.92265e-17 -1.39959e-16)
(0 5.88306e-30 1.47077e-30 2.78499 -3.66766e-16 -1.60563e-15 0.0909642 -2.8331e-15 1.4903e-15)
(0 1.15975e-29 1.44969e-30 2.7328 5.29205e-15 -4.08665e-15 0.0905613 -1.8108e-16 -1.31438e-16)
(0 -5.79874e-30 -7.24843e-31 2.7328 6.70292e-16 -1.58757e-15 0.0905613 -2.82407e-15 1.51031e-15)
(2.09407e-15 1.3654e-29 3.17971e-30 2.68181 4.63424e-15 -3.94651e-15 0.0901677 -1.70372e-16 -1.34547e-16)
(0 -1.71469e-29 -3.57227e-30 2.68181 -4.34003e-16 -1.61292e-15 0.0901677 -2.80483e-15 1.52559e-15)
(2.10038e-15 7.77504e-30 1.71825e-30 2.63199 4.47846e-15 -3.89719e-15 0.0897832 -1.41731e-16 -1.31891e-16)
(-3.1715e-15 -5.63371e-30 -7.04214e-31 2.63199 -8.64599e-16 -1.70137e-15 0.0897832 -2.79466e-15 1.54071e-15)
(-4.21333e-15 6.96796e-30 7.88249e-31 2.58331 4.96181e-15 -3.96678e-15 0.0894075 -1.64634e-16 -1.43351e-16)
(8.42665e-15 0 0 2.58331 -9.94424e-16 -1.90868e-15 0.0894075 -2.77442e-15 1.54988e-15)
(-2.11292e-15 3.47633e-30 3.95094e-31 2.53573 4.55137e-15 -4.15686e-15 0.0890403 -1.79654e-16 -1.49228e-16)
(0 0 1.36834e-30 2.53573 -2.61375e-15 -1.76093e-15 0.0890403 -2.76194e-15 1.55929e-15)
(0 5.39493e-30 6.74366e-31 2.48922 4.23102e-15 -4.0389e-15 0.0886815 -1.40362e-16 -1.39067e-16)
(-3.03708e-15 -5.39493e-30 -6.74366e-31 2.48922 -2.33222e-15 -1.56444e-15 0.0886815 -2.787e-15 1.57247e-15)
(0 0 1.9941e-30 2.44374 4.4785e-15 -3.80119e-15 0.0883307 -1.61878e-16 -1.36256e-16)
(-2.99355e-15 0 -1.3294e-30 2.44374 -8.31255e-16 -1.62033e-15 0.0883307 -2.77208e-15 1.58415e-15)
(0 1.04828e-29 1.96552e-30 2.39927 3.97254e-15 -3.63331e-15 0.0879877 -1.62531e-16 -1.30714e-16)
(-2.95064e-15 -5.24139e-30 0 2.39927 -9.67296e-16 -1.9131e-15 0.0879877 -2.78793e-15 1.59092e-15)
(0 5.16627e-30 3.22892e-30 2.35579 3.18207e-15 -3.58499e-15 0.0876524 -1.29167e-16 -1.36618e-16)
(1.71014e-14 0 -1.93735e-30 2.35579 -1.90011e-15 -2.1416e-15 0.0876524 -2.8372e-15 1.58884e-15)
(-4.28761e-15 6.9293e-30 8.03153e-31 2.31326 2.63003e-15 -3.75625e-15 0.0873245 -1.07928e-16 -1.47591e-16)
(8.57522e-15 0 0 2.31326 -3.36934e-15 -1.98662e-15 0.0873245 -2.85403e-15 1.58604e-15)
(2.14991e-15 -1.35033e-29 -2.28561e-30 2.27165 3.20072e-15 -3.74667e-15 0.0870038 -9.08898e-17 -1.3988e-16)
(0 1.00385e-29 1.25481e-30 2.27165 -3.96505e-15 -1.55723e-15 0.0870038 -2.88719e-15 1.58783e-15)
(0 0 1.23683e-30 2.23094 3.60549e-15 -3.38032e-15 0.0866901 -1.55204e-16 -1.23184e-16)
(-8.62396e-15 4.9473e-30 0 2.23094 -2.23789e-15 -1.807e-15 0.0866901 -2.93399e-15 1.59423e-15)
(-4.90721e-15 -1.11787e-29 -4.47184e-30 2.19111 3.57026e-15 -3.26353e-15 0.0863833 -1.25296e-16 -1.34685e-16)
(8.64819e-15 1.95056e-29 4.87639e-30 2.19111 -1.56511e-15 -2.09137e-15 0.0863833 -2.94397e-15 1.58412e-15)
(0 9.61301e-30 2.40325e-30 2.15213 4.91831e-15 -3.33912e-15 0.086083 -1.56947e-16 -1.32894e-16)
(0 -4.8065e-30 -1.20163e-30 2.15213 -3.50246e-15 -1.86712e-15 0.086083 -2.94817e-15 1.57918e-15)
(0 -9.47523e-30 -1.1844e-30 2.11398 4.78396e-15 -3.33788e-15 0.0857893 -2.37783e-16 -1.38529e-16)
(0 4.73761e-30 1.1844e-30 2.11398 -4.44177e-15 -1.96845e-15 0.0857893 -2.97803e-15 1.57361e-15)
(-2.18009e-15 3.43049e-30 4.04346e-31 2.07663 3.68895e-15 -3.32985e-15 0.0855018 -1.50541e-16 -1.3612e-16)
(0 0 0 2.07663 -3.59509e-15 -2.30457e-15 0.0855018 -3.03387e-15 1.56282e-15)
(8.1015e-16 -2.5375e-29 -4.95117e-30 2.04007 4.6374e-15 -3.51706e-15 0.0852205 -1.53769e-16 -1.58367e-16)
(1.74885e-14 3.22195e-29 4.60278e-30 2.04007 -2.36575e-15 -2.11394e-15 0.0852205 -3.06866e-15 1.54782e-15)
(0 9.07362e-30 1.1342e-30 2.00427 5.297e-15 -3.86028e-15 0.0849451 -2.349e-16 -1.6946e-16)
(0 -4.53681e-30 0 2.00427 -3.06313e-15 -1.63853e-15 0.0849451 -3.07196e-15 1.54789e-15)
(-2.51739e-15 8.94358e-30 1.11795e-30 1.96922 4.62519e-15 -3.729e-15 0.0846755 -2.14682e-16 -1.51616e-16)
(-2.51739e-15 0 0 1.96922 -4.44022e-15 -2.22664e-15 0.0846755 -3.12098e-15 1.54702e-15)
(-6.61157e-15 -2.06868e-29 -4.31766e-30 1.93489 3.29146e-15 -3.9414e-15 0.0844115 -1.83492e-16 -1.9312e-16)
(2.01122e-14 3.08539e-29 5.50962e-30 1.93489 -3.15821e-15 -2.69995e-15 0.0844115 -3.16362e-15 1.5249e-15)
(0 -2.60671e-29 -4.34452e-30 1.90126 1.66842e-15 -4.49814e-15 0.084153 -1.03569e-16 -2.05777e-16)
(1.7678e-14 2.60671e-29 4.34452e-30 1.90126 -1.53488e-15 -1.98725e-15 0.084153 -3.14829e-15 1.51386e-15)
(1.95071e-16 1.19705e-29 2.54272e-30 1.86833 7.91342e-16 -4.26477e-15 0.0838999 -4.3922e-17 -1.77633e-16)
(-2.41069e-15 -4.28225e-30 -1.07056e-30 1.86833 -6.63924e-16 -1.91372e-15 0.0838999 -3.15041e-15 1.51519e-15)