/*--------------------------------*- C++ -*----------------------------------*\
| =========                 |                                                 |
| \\      /  F ield         | OpenFOAM: The Open Source CFD Toolbox           |
|  \\    /   O peration     | Version:  2012                                  |
|   \\  /    A nd           | Website:  www.openfoam.com                      |
|    \\/     M anipulation  |                                                 |
\*---------------------------------------------------------------------------*/
FoamFile
{
    version     2.0;
    format      ascii;
    class       volTensorField;
    location    "5000";
    object      grad(U);
}
// * * * * * * * * * * * * * * * * * * * * * * * * * * * * * * * * * * * * * //

dimensions      [0 0 -1 0 0 0 0];


internalField   nonuniform List<tensor> 
1280
(
(1.8364e-17 -7.82903e-31 -6.52419e-32 32.658 -1.24709e-12 -1.50178e-13 0.0941599 -1.7852e-15 -1.2057e-16)
(-1.8364e-17 -1.75162e-46 6.52419e-32 32.658 1.13774e-48 -9.11351e-14 0.0941599 -1.54074e-33 2.85808e-16)
(3.56794e-17 -7.11642e-26 -2.11213e-27 32.6483 4.04096e-28 -6.82197e-14 0.285191 6.31089e-30 -4.04886e-16)
(0 -3.24502e-29 -5.07035e-31 32.6483 -6.78727e-15 -8.21625e-14 0.285191 -2.8333e-17 8.29673e-16)
(1.97255e-16 -1.57619e-29 -4.35831e-31 32.6384 1.94059e-12 -3.34944e-14 0.404602 -1.92936e-14 -4.13772e-16)
(4.28412e-17 1.18214e-29 2.4628e-31 32.6384 -4.11651e-15 -1.00512e-14 0.404602 -3.59118e-17 8.79026e-16)
(0 -7.65598e-30 -2.39249e-31 32.6282 8.04606e-14 -3.42311e-14 0.416359 -1.72024e-15 -4.47836e-16)
(2.97229e-16 7.65598e-30 2.39249e-31 32.6282 -5.9297e-15 -1.03813e-14 0.416359 -5.65265e-17 9.31467e-16)
(1.95207e-16 -6.2896e-30 -5.37674e-31 32.6175 5.22489e-15 -3.58362e-14 0.428451 -2.83007e-16 -4.80624e-16)
(2.57465e-16 3.71871e-30 4.64838e-31 32.6175 -6.01933e-15 -1.07221e-14 0.428451 -7.84452e-17 9.8725e-16)
(-9.23705e-17 6.22266e-30 8.27327e-32 32.6062 -7.01072e-15 -3.72276e-14 0.440884 -4.67197e-17 -5.12177e-16)
(3.69482e-16 -3.61255e-30 0 32.6062 -6.03323e-15 -1.10752e-14 0.440884 -1.01159e-16 1.04651e-15)
(1.25763e-16 -1.33123e-44 -3.45256e-31 32.5939 1.11629e-30 -3.85175e-14 0.453661 -3.15544e-30 -5.45202e-16)
(4.84759e-16 3.50942e-30 0 32.5939 -6.23752e-15 -1.14349e-14 0.453661 -1.24733e-16 1.10948e-15)
(0 6.81846e-30 8.52307e-31 32.5801 1.26846e-14 -3.98377e-14 0.46678 -1.89334e-16 -5.80559e-16)
(0 -3.40923e-30 0 32.5801 -6.3315e-15 -1.18032e-14 0.46678 -1.50494e-16 1.17637e-15)
(-1.81371e-16 -2.05969e-29 -1.53883e-30 32.5635 1.09113e-14 -4.11921e-14 0.480228 -1.68655e-16 -6.17675e-16)
(7.25485e-16 2.31833e-29 2.06994e-30 32.5635 -6.16968e-15 -1.21789e-14 0.480228 -1.77697e-16 1.2474e-15)
(2.12785e-16 -5.80278e-30 -9.34746e-31 32.5426 9.95786e-15 -4.25395e-14 0.493983 -1.48307e-16 -6.56102e-16)
(8.5114e-16 3.21735e-30 1.20651e-30 32.5426 -6.20732e-15 -1.25484e-14 0.493983 -2.04763e-16 1.32262e-15)
(4.39876e-16 -1.2502e-29 -3.90688e-31 32.5149 9.79475e-15 -4.38463e-14 0.508 -1.49756e-16 -6.95366e-16)
(9.80467e-16 1.2502e-29 3.90688e-31 32.5149 -6.21781e-15 -1.28983e-14 0.508 -2.32699e-16 1.40223e-15)
(5.76243e-16 -3.49497e-30 -9.78145e-31 32.4767 9.52975e-15 -4.50773e-14 0.522214 -1.52053e-16 -7.34845e-16)
(1.11358e-15 6.07256e-30 7.5907e-31 32.4767 -6.15549e-15 -1.3242e-14 0.522214 -2.60574e-16 1.48629e-15)
(4.15119e-16 -2.9496e-30 0 32.4231 9.50488e-15 -4.61865e-14 0.536521 -1.50159e-16 -7.73581e-16)
(8.35457e-16 2.9496e-30 0 32.4231 -6.3103e-15 -1.35544e-14 0.536521 -2.88913e-16 1.57456e-15)
(5.53743e-17 -1.17581e-29 -5.20205e-31 32.3475 9.83532e-15 -4.71085e-14 0.550778 -1.60297e-16 -8.1011e-16)
(9.88308e-16 1.14616e-29 7.16349e-31 32.3475 -6.47578e-15 -1.37929e-14 0.550778 -3.19155e-16 1.66703e-15)
(-3.84168e-16 -3.00397e-30 2.16526e-31 32.2413 1.01113e-14 -4.77681e-14 0.564789 -1.70382e-16 -8.42867e-16)
(0 8.35078e-30 0 32.2413 -6.64301e-15 -1.3946e-14 0.564789 -3.5126e-16 1.76348e-15)
(7.61144e-16 -1.08165e-29 -6.76032e-31 32.094 1.02928e-14 -4.80799e-14 0.578303 -1.79542e-16 -8.69691e-16)
(0 1.08165e-29 6.76032e-31 32.094 -6.58322e-15 -1.39903e-14 0.578303 -3.84346e-16 1.86315e-15)
(-4.59847e-16 5.1784e-30 1.57679e-30 31.8933 9.95044e-15 -4.79482e-14 0.591009 -1.87104e-16 -8.88234e-16)
(0 0 0 31.8933 -6.32784e-15 -1.38953e-14 0.591009 -4.19312e-16 1.965e-15)
(1.21756e-15 -7.65206e-30 -1.56594e-30 31.6257 9.37884e-15 -4.72876e-14 0.602544 -1.77515e-16 -8.96262e-16)
(0 5.10387e-30 1.27597e-30 31.6257 -6.24889e-15 -1.36698e-14 0.602544 -4.55597e-16 2.06769e-15)
(6.978e-16 -4.95817e-30 -6.19771e-31 31.277 9.62202e-15 -4.60296e-14 0.612512 -1.76376e-16 -8.91626e-16)
(1.46093e-15 4.95817e-30 6.19771e-31 31.277 -6.24494e-15 -1.32396e-14 0.612512 -4.92725e-16 2.16932e-15)
(-5.81074e-16 -2.2803e-30 3.49713e-31 30.8342 1.0363e-14 -4.41279e-14 0.62051 -1.97686e-16 -8.72553e-16)
(2.32429e-15 9.63325e-30 0 30.8342 -6.52843e-15 -1.25634e-14 0.62051 -5.26192e-16 2.26879e-15)
(0 2.33956e-30 2.33956e-30 30.2864 1.06226e-14 -4.15914e-14 0.626165 -2.1696e-16 -8.38865e-16)
(-2.49338e-15 0 -1.16978e-30 30.2864 -6.46953e-15 -1.17388e-14 0.626165 -5.63171e-16 2.36437e-15)
(0 -1.13639e-29 -1.13639e-30 29.6273 9.86435e-15 -3.8491e-14 0.629178 -2.20315e-16 -7.91296e-16)
(2.6655e-15 1.13639e-29 1.13639e-30 29.6273 -5.36737e-15 -1.07403e-14 0.629178 -6.05912e-16 2.4534e-15)
(-7.10009e-16 -1.89716e-30 4.50075e-31 28.8557 9.21462e-15 -3.49566e-14 0.629359 -1.97301e-16 -7.32476e-16)
(0 8.83155e-30 0 28.8557 -5.12831e-15 -9.63952e-15 0.629359 -6.39901e-16 2.53426e-15)
(0 -1.07243e-29 -1.07243e-30 27.9767 9.25964e-15 -3.11569e-14 0.626656 -2.047e-16 -6.65389e-16)
(0 1.07243e-29 1.07243e-30 27.9767 -5.16582e-15 -8.47061e-15 0.626656 -6.77584e-16 2.60452e-15)
(-1.5966e-15 -9.5745e-30 -3.0965e-28 27.0014 9.16398e-15 -4.86101e-29 0.621158 -2.11118e-16 0)
(3.1932e-15 1.45854e-29 3.12544e-30 27.0014 -5.22095e-15 -7.29708e-15 0.621158 -7.11033e-16 2.66459e-15)
(-8.42522e-16 1.86935e-29 1.59694e-30 25.9462 9.51908e-15 4.99396e-15 0.613087 -2.12422e-16 -7.7547e-17)
(-3.37009e-15 -1.61931e-29 -1.01207e-30 25.9462 -6.74503e-15 -6.19793e-15 0.613087 -7.53004e-16 2.71316e-15)
(-8.86496e-16 2.49041e-30 5.68045e-31 24.8306 9.44074e-15 8.10987e-15 0.602767 -2.4085e-16 -1.61248e-16)
(0 0 0 24.8306 -6.15948e-15 -5.14811e-15 0.602767 -8.12676e-16 2.75125e-15)
(0 -1.52818e-29 -2.86533e-30 23.6759 8.64852e-15 1.05565e-14 0.590588 -2.21198e-16 -2.37006e-16)
(3.72005e-15 1.52818e-29 2.86533e-30 23.6759 -4.12628e-15 -4.24648e-15 0.590588 -8.47889e-16 2.77875e-15)
(0 -1.11341e-29 -2.78353e-30 22.5032 8.18965e-15 1.23866e-14 0.576964 -2.1469e-16 -2.96015e-16)
(3.89153e-15 1.11341e-29 2.78353e-30 22.5032 -4.25637e-15 -3.56158e-15 0.576964 -8.69867e-16 2.7969e-15)
(-2.0299e-15 8.56123e-30 1.93224e-30 21.3316 7.7373e-15 1.3764e-14 0.562304 -2.10227e-16 -3.47502e-16)
(3.04497e-15 0 0 21.3316 -4.73377e-15 -3.03689e-15 0.562304 -9.08763e-16 2.80708e-15)
(-1.0561e-15 2.47344e-30 4.98267e-31 20.1775 7.56008e-15 1.4633e-14 0.546982 -2.02975e-16 -3.8833e-16)
(4.22438e-15 0 0 20.1775 -5.26345e-15 -2.60856e-15 0.546982 -9.44572e-16 2.8108e-15)
(-1.09622e-15 9.27093e-30 1.33271e-30 19.0543 7.24744e-15 1.51019e-14 0.531324 -2.12877e-16 -4.16713e-16)
(0 -3.40251e-30 0 19.0543 -4.77446e-15 -2.26779e-15 0.531324 -9.85288e-16 2.80921e-15)
(1.54506e-15 2.5302e-30 2.53889e-31 17.9718 6.06826e-15 1.52549e-14 0.515603 -1.97123e-16 -4.3842e-16)
(4.54109e-15 -9.91613e-30 -1.65269e-30 17.9718 -2.83578e-15 -2.00194e-15 0.515603 -1.0135e-15 2.80388e-15)
(6.34429e-16 -7.46976e-31 4.51544e-31 16.937 5.05587e-15 1.50219e-14 0.500035 -1.55857e-16 -4.50608e-16)
(-1.80764e-15 6.42203e-30 8.02753e-31 16.937 -2.70442e-15 -1.9762e-15 0.500035 -1.02905e-15 2.79516e-15)
(-1.21002e-15 8.70007e-30 1.21852e-30 15.9543 5.01016e-15 1.4682e-14 0.484785 -1.47264e-16 -4.50387e-16)
(4.8401e-15 -3.11935e-30 0 15.9543 -2.72709e-15 -2.07108e-15 0.484785 -1.06127e-15 2.78221e-15)
(2.95162e-15 -1.15449e-29 -1.18236e-30 15.0258 5.05111e-15 1.42209e-14 0.469976 -1.62288e-16 -4.56188e-16)
(3.27697e-15 9.09088e-30 7.57574e-31 15.0258 -2.15468e-15 -2.16747e-15 0.469976 -1.08915e-15 2.76808e-15)
(0 -1.76627e-29 -2.20784e-30 14.152 4.71684e-15 1.35584e-14 0.455691 -1.58687e-16 -4.47511e-16)
(5.12125e-15 1.76627e-29 2.20784e-30 14.152 -3.5589e-15 -2.22998e-15 0.455691 -1.1103e-15 2.75097e-15)
(-1.31383e-15 1.96066e-29 1.83172e-30 13.3322 4.9552e-15 1.29688e-14 0.441985 -1.49776e-16 -4.39413e-16)
(-5.25533e-15 -1.71585e-29 -1.42987e-30 13.3322 -5.53546e-15 -2.25956e-15 0.441985 -1.15177e-15 2.7351e-15)
(1.34632e-15 5.89649e-30 9.98704e-31 12.5648 4.68238e-15 1.23898e-14 0.428886 -1.84439e-16 -4.33906e-16)
(-5.38528e-15 -2.77811e-30 -1.38905e-30 12.5648 -4.74252e-15 -2.44871e-15 0.428886 -1.20642e-15 2.71825e-15)
(-1.37781e-15 1.32342e-29 1.72925e-30 11.8476 3.09552e-15 1.16913e-14 0.416409 -1.39518e-16 -4.2489e-16)
(2.47267e-15 -8.0964e-30 0 11.8476 -2.17031e-15 -2.81043e-15 0.416409 -1.22936e-15 2.69936e-15)
(-2.8167e-15 -8.2213e-30 7.41709e-31 11.178 2.6924e-15 5.92643e-15 0.404551 -8.05322e-17 -4.09203e-16)
(1.12668e-14 7.86526e-30 0 11.178 -1.51852e-15 -3.04089e-15 0.404551 -1.23107e-15 2.67664e-15)
(-1.43798e-15 2.43295e-30 4.12783e-31 10.5532 3.37778e-15 -1.33384e-15 0.393301 -1.1779e-16 -1.23469e-16)
(5.75194e-15 0 0 10.5532 -2.99602e-15 -3.05409e-15 0.393301 -1.23206e-15 2.65745e-15)
(-2.7857e-15 7.4226e-30 0 9.97034 3.70572e-15 -3.30711e-15 0.382642 -1.37924e-16 -1.34112e-16)
(0 -2.4742e-30 0 9.97034 -3.67845e-15 -3.23645e-15 0.382642 -1.25801e-15 2.64156e-15)
(-2.98941e-15 4.82962e-30 8.28874e-31 9.42664 3.55003e-15 -3.55884e-15 0.372551 -1.50717e-16 -1.513e-16)
(5.97882e-15 4.80713e-30 0 9.42664 -3.65011e-15 -3.58736e-15 0.372551 -1.30864e-15 2.62216e-15)
(-4.56564e-15 1.89038e-29 2.38249e-30 8.91934 2.57888e-15 -3.56433e-15 0.363002 -1.33491e-16 -1.4257e-16)
(0 -1.16747e-29 -1.16747e-30 8.91934 -3.09066e-15 -3.83481e-15 0.363002 -1.36137e-15 2.5978e-15)
(-5.42778e-16 -6.51274e-30 -3.54515e-31 8.44579 1.68065e-15 -3.67669e-15 0.353971 -7.84248e-17 -1.70003e-16)
(1.23866e-14 1.36097e-29 1.13415e-30 8.44579 -1.17001e-15 -3.89291e-15 0.353971 -1.37158e-15 2.57242e-15)
(-1.57407e-15 -1.9929e-30 3.77796e-31 8.00352 1.80177e-15 -4.04283e-15 0.345428 -6.40656e-17 -1.83544e-16)
(0 8.81414e-30 1.10177e-30 8.00352 -1.19318e-15 -3.96161e-15 0.345428 -1.37154e-15 2.54993e-15)
(-1.59916e-15 2.40713e-30 3.68581e-31 7.59018 1.99518e-15 -4.07373e-15 0.337346 -9.38434e-17 -1.82961e-16)
(0 4.28126e-30 1.07031e-30 7.59018 -1.75405e-15 -4.07726e-15 0.337346 -1.38767e-15 2.52634e-15)
(2.34133e-15 -8.31808e-30 -1.03976e-30 7.20361 2.32994e-15 -4.42786e-15 0.3297 -8.5543e-17 -2.27771e-16)
(0 8.31808e-30 1.03976e-30 7.20361 -1.48346e-15 -4.51574e-15 0.3297 -1.4001e-15 2.50044e-15)
(-6.26978e-16 5.69263e-30 6.64494e-31 6.84178 2.95979e-15 -4.79846e-15 0.322462 -1.30899e-16 -2.29723e-16)
(6.59005e-15 -4.04031e-30 1.01008e-30 6.84178 -2.03656e-15 -4.86734e-15 0.322462 -1.4527e-15 2.45564e-15)
(-1.67084e-15 1.02258e-29 1.31787e-30 6.50283 2.54519e-15 -4.70415e-15 0.315609 -1.51575e-16 -2.31963e-16)
(1.11571e-14 -3.92496e-30 9.81241e-31 6.50283 -2.63581e-15 -4.75382e-15 0.315609 -1.47123e-15 2.41088e-15)
(2.14648e-15 -3.81291e-30 -9.53229e-31 6.18503 1.8781e-15 -4.84079e-15 0.309117 -9.74199e-17 -2.57429e-16)
(-2.14648e-15 7.62583e-30 9.53229e-31 6.18503 -3.13586e-15 -5.04446e-15 0.309117 -1.51525e-15 2.36877e-15)
(0 -1.48163e-29 -1.85203e-30 5.88681 1.155e-15 -5.09305e-15 0.302964 -9.22337e-17 -2.72415e-16)
(1.37275e-14 1.48163e-29 1.85203e-30 5.88681 -2.41766e-15 -5.37642e-15 0.302964 -1.5546e-15 2.31395e-15)
(-1.73777e-15 2.37106e-30 3.05427e-31 5.60671 3.55201e-16 -5.24101e-15 0.297128 -2.69291e-17 -2.88853e-16)
(6.9511e-15 3.59832e-30 0 5.60671 -1.76988e-15 -5.20392e-15 0.297128 -1.5479e-15 2.25752e-15)
(1.75916e-15 4.6224e-30 -2.95096e-31 5.34339 2.1373e-16 -5.40549e-15 0.29159 -1.08611e-17 -3.07051e-16)
(0 0 0 5.34339 -2.31089e-15 -5.24767e-15 0.29159 -1.58016e-15 2.20195e-15)
(-7.25204e-15 1.72913e-29 1.70343e-30 5.09563 3.38341e-16 -5.59768e-15 0.286331 -1.2717e-17 -3.282e-16)
(1.91167e-15 -1.01874e-29 -8.48951e-31 5.09563 -2.55426e-15 -5.64289e-15 0.286331 -1.60406e-15 2.13465e-15)
(-1.85709e-15 3.34006e-30 8.24715e-31 4.86231 8.85594e-16 -5.56783e-15 0.281335 -2.58512e-17 -3.21826e-16)
(1.85709e-15 -9.89658e-30 -8.24715e-31 4.86231 -2.3395e-15 -5.94186e-15 0.281335 -1.63184e-15 2.05366e-15)
(0 -3.20468e-30 0 4.64238 2.71941e-15 -5.74155e-15 0.276585 -1.60011e-16 -3.68961e-16)
(7.28346e-15 6.40937e-30 0 4.64238 -3.54343e-15 -6.14256e-15 0.276585 -1.64551e-15 1.9614e-15)
(1.84068e-15 7.0106e-30 1.30063e-30 4.43491 2.74052e-15 -6.08582e-15 0.272067 -1.66948e-16 -3.8424e-16)
(0 -6.2264e-30 1.5566e-30 4.43491 -4.58181e-15 -6.42089e-15 0.272067 -1.68563e-15 1.86203e-15)
(-1.86016e-15 -7.0505e-31 2.48551e-31 4.23903 2.2628e-15 -6.12241e-15 0.267765 -1.72204e-16 -3.95693e-16)
(7.44064e-15 3.02432e-30 0 4.23903 -2.6814e-15 -6.27902e-15 0.267765 -1.71488e-15 1.75161e-15)
(0 8.81395e-30 1.46899e-30 4.05393 9.8717e-16 -6.12373e-15 0.263668 -1.15166e-16 -4.07331e-16)
(-1.65394e-15 -5.87597e-30 0 4.05393 -1.66174e-15 -6.17594e-15 0.263668 -1.71085e-15 1.64779e-15)
(0 -6.20462e-30 -1.42706e-30 3.87888 3.78634e-16 -6.43576e-15 0.259762 -1.27749e-17 -4.6202e-16)
(0 2.85411e-30 0 3.87888 -3.59216e-15 -6.91785e-15 0.259762 -1.73298e-15 1.52261e-15)
(7.1167e-16 -1.29406e-29 -4.57584e-31 3.7132 1.00284e-15 -6.36981e-15 0.256037 -1.41986e-16 -4.22327e-16)
(1.07885e-14 8.3179e-30 0 3.7132 -4.97291e-15 -7.16843e-15 0.256037 -1.77723e-15 1.36866e-15)
(0 -8.08044e-30 -1.34674e-30 3.55627 -4.60794e-16 -6.37854e-15 0.252482 -6.19313e-17 -4.9084e-16)
(7.73979e-15 8.08044e-30 1.34674e-30 3.55627 -4.92956e-15 -7.01677e-15 0.252482 -1.83061e-15 1.23946e-15)
(0 -2.32728e-30 0 3.40752 1.97215e-31 -6.76146e-15 0.249088 0 -5.04712e-16)
(0 2.61659e-30 0 3.40752 -5.99706e-15 -7.49672e-15 0.249088 -1.92635e-15 1.10775e-15)
(0 -1.01676e-29 -1.27094e-30 3.26642 4.69693e-15 -6.74572e-15 0.245844 -3.06975e-16 -5.17691e-16)
(7.88269e-15 1.01676e-29 1.27094e-30 3.26642 -6.91134e-15 -7.60846e-15 0.245844 -2.00701e-15 9.56224e-16)
(0 -7.40797e-30 0 3.13248 4.97416e-15 -6.78922e-15 0.242742 -4.06213e-16 -5.41696e-16)
(0 1.23466e-29 0 3.13248 -7.07099e-15 -7.58175e-15 0.242742 -2.10045e-15 8.12144e-16)
(-4.01083e-15 1.16606e-29 3.972e-31 3.00525 3.92144e-15 -6.89245e-15 0.239775 -3.69163e-16 -5.65385e-16)
(0 -7.19649e-30 0 3.00525 -5.04539e-15 -7.60018e-15 0.239775 -2.21058e-15 6.47358e-16)
(0 4.66069e-30 0 2.88431 1.8296e-15 -7.06142e-15 0.236935 -2.58916e-16 -6.02341e-16)
(8.0898e-15 0 0 2.88431 -1.31311e-15 -7.51474e-15 0.236935 -2.20623e-15 4.90481e-16)
(-2.03927e-15 6.79458e-30 1.96569e-31 2.76927 6.67215e-16 -7.14248e-15 0.234214 -4.03354e-17 -6.13098e-16)
(0 0 0 2.76927 -6.77051e-16 -7.48326e-15 0.234214 -2.17077e-15 3.1494e-16)
(2.05588e-15 -1.10543e-29 -1.88159e-31 2.65979 7.25198e-16 -7.4135e-15 0.231607 -7.36732e-17 -6.8643e-16)
(0 8.79677e-30 0 2.65979 -1.76777e-15 -7.7838e-15 0.231607 -2.13587e-15 1.21437e-16)
(-2.0723e-15 -2.01604e-30 1.85289e-31 2.55552 -2.67618e-16 -7.9577e-15 0.229106 -1.03564e-16 -7.4922e-16)
(0 8.54564e-30 0 2.55552 -3.21737e-15 -8.28295e-15 0.229106 -2.10839e-15 -1.11684e-16)
(2.33672e-15 -1.346e-30 -2.07542e-30 2.45615 9.11391e-30 -8.18921e-15 0.226707 0 -7.70964e-16)
(0 4.15084e-30 0 2.45615 -5.50038e-15 -8.48751e-15 0.226707 -2.17142e-15 -3.54915e-16)
(-2.10458e-15 -3.35628e-31 2.01641e-31 2.36141 1.25411e-15 -8.14904e-15 0.224403 -5.98991e-17 -7.86114e-16)
(0 4.03234e-30 0 2.36141 -5.81258e-15 -8.73417e-15 0.224403 -2.34834e-15 -6.29247e-16)
(2.12046e-15 -2.20681e-30 -2.09873e-31 2.27102 2.36582e-15 -8.0322e-15 0.22219 -3.54912e-16 -7.93629e-16)
(6.27663e-15 0 0 2.27102 -3.99516e-15 -8.92415e-15 0.22219 -2.44362e-15 -9.29857e-16)
(-2.13009e-15 -1.45523e-29 -1.49176e-30 2.18474 1.35936e-15 -8.28035e-15 0.220062 -1.06763e-16 -8.83969e-16)
(8.54468e-15 1.52216e-29 0 2.18474 -4.71827e-15 -9.1571e-15 0.220062 -2.51229e-15 -1.25358e-15)
(-2.15172e-15 4.25675e-30 2.13847e-31 2.10234 3.25033e-15 -8.66688e-15 0.218016 -1.69335e-16 -9.22691e-16)
(0 0 0 2.10234 -6.88965e-15 -9.61954e-15 0.218016 -2.67743e-15 -1.59579e-15)
(-2.16713e-15 2.12603e-30 2.20449e-31 2.0236 5.15233e-15 -8.85592e-15 0.216047 -6.44648e-16 -9.77833e-16)
(8.6685e-15 3.59123e-30 3.59123e-30 2.0236 -4.62712e-15 -9.41877e-15 0.216047 -2.82416e-15 -1.97555e-15)
(0 3.48871e-30 1.74435e-30 1.94832 3.16732e-15 -9.00507e-15 0.214151 -4.57898e-16 -1.01114e-15)
(0 0 0 1.94832 -5.48336e-15 -9.36594e-15 0.214151 -2.82972e-15 -2.33304e-15)
(0 1.01673e-29 0 1.87631 2.70661e-15 -8.90634e-15 0.212324 -2.38327e-16 -1.01338e-15)
(-8.78997e-15 -1.01673e-29 0 1.87631 -5.8735e-15 -8.5468e-15 0.212324 -3.06899e-15 -2.74645e-15)
(5.91934e-15 -8.70794e-30 -2.53682e-31 1.80741 3.0949e-15 -8.86024e-15 0.210562 -3.78944e-16 -1.06049e-15)
(5.14302e-15 6.58472e-30 0 1.80741 -4.09414e-15 -2.72599e-15 0.210562 -3.12659e-15 -3.12233e-15)
(2.22732e-15 -5.3127e-30 -2.56129e-31 1.74143 2.93781e-15 -9.25553e-15 0.208862 -3.4473e-16 -1.17042e-15)
(0 3.19837e-30 0 1.74143 -4.84684e-15 2.50088e-15 0.208862 -3.14171e-15 -3.26784e-15)
(5.74028e-15 -1.45215e-29 -3.41298e-30 1.67824 3.59411e-15 -8.72154e-15 0.207221 -3.6315e-16 -9.89394e-16)
(8.96815e-15 1.24282e-29 3.10706e-30 1.67824 -4.01851e-15 2.57153e-15 0.207221 -3.16308e-15 -3.34007e-15)
(0 1.20734e-29 -6.10366e-30 1.61769 4.6838e-15 5.23865e-30 0.205636 -5.30403e-16 -3.9443e-31)
(-9.02655e-15 -1.20734e-29 0 1.61769 -6.39314e-15 2.15631e-15 0.205636 -3.30594e-15 -3.4592e-15)
(-2.27112e-15 1.99594e-30 4.05288e-31 1.55963 4.85123e-15 2.32641e-15 0.204103 -6.67015e-16 -2.91689e-16)
(0 5.86439e-30 0 1.55963 -7.87399e-15 2.83943e-15 0.204103 -3.54336e-15 -3.61118e-15)
(-9.21623e-16 6.56904e-30 2.47002e-30 1.50396 4.10506e-15 2.51074e-15 0.20262 -6.06669e-16 -3.19936e-16)
(1.23491e-14 -8.54546e-30 -2.84849e-30 1.50396 -5.92851e-15 3.74393e-15 0.20262 -3.73841e-15 -3.76001e-15)
(2.29975e-15 -1.30374e-29 -5.88239e-30 1.45053 3.64123e-15 2.87771e-15 0.201184 -5.02028e-16 -3.59667e-16)
(9.19898e-15 1.10687e-29 5.53434e-30 1.45053 -5.74097e-15 3.97277e-15 0.201184 -3.8708e-15 -3.83332e-15)
(3.02661e-15 -2.68817e-30 0 1.39926 3.03911e-15 3.57344e-15 0.199793 -5.11823e-16 -4.42683e-16)
(0 2.68817e-30 0 1.39926 -6.38348e-15 3.90435e-15 0.199793 -4.09156e-15 -3.93881e-15)
(0 -2.61143e-30 0 1.35002 3.51078e-15 4.21091e-15 0.198444 -3.56877e-16 -5.83426e-16)
(9.3118e-15 2.61143e-30 0 1.35002 -5.06882e-15 4.14746e-15 0.198444 -4.44115e-15 -4.07159e-15)
(-4.6838e-15 6.3008e-30 2.98863e-30 1.30272 5.36458e-15 4.17491e-15 0.197134 -6.83535e-16 -6.59899e-16)
(9.3676e-15 0 2.53688e-30 1.30272 -4.76174e-15 4.04245e-15 0.197134 -4.63585e-15 -4.20338e-15)
(0 2.46446e-30 0 1.25727 6.79207e-15 3.95543e-15 0.195862 -9.49372e-16 -6.07128e-16)
(0 -2.46446e-30 0 1.25727 -5.00842e-15 3.76374e-15 0.195862 -4.70547e-15 -4.32688e-15)
(0 -4.7882e-30 0 1.21358 6.25508e-15 3.85383e-15 0.194625 -1.17708e-15 -6.29638e-16)
(0 4.7882e-30 0 1.21358 -5.65651e-15 3.49833e-15 0.194625 -4.73416e-15 -4.41758e-15)
(-9.53276e-15 6.95743e-30 6.0955e-31 1.17157 4.14279e-15 5.30103e-15 0.193421 -8.30658e-16 -6.10164e-16)
(-1.90655e-14 4.65151e-30 0 1.17157 -6.14446e-15 2.78329e-15 0.193421 -5.10113e-15 -4.51827e-15)
(1.47037e-16 -5.01205e-30 -4.48179e-30 1.13115 4.48324e-15 6.64263e-15 0.192249 -5.37332e-16 -1.15359e-15)
(9.5871e-15 2.25936e-30 2.25936e-30 1.13115 -3.30121e-15 1.06999e-15 0.192249 -5.2791e-15 -4.48007e-15)
(0 4.38972e-30 2.19486e-30 1.09226 5.71459e-15 5.73919e-15 0.191105 -9.97987e-16 -1.11072e-15)
(9.64109e-15 0 2.19486e-30 1.09226 -1.69083e-15 -1.81134e-15 0.191105 -5.241e-15 -4.22871e-15)
(-4.84738e-15 3.22233e-30 2.14206e-30 1.05482 5.66203e-15 3.89137e-15 0.189988 -1.00792e-15 -9.00634e-16)
(7.29411e-15 0 0 1.05482 -3.16178e-15 -3.73243e-15 0.189988 -5.38689e-15 -4.17223e-15)
(-2.43702e-15 5.7169e-30 2.1059e-30 1.01876 5.31874e-15 5.55767e-16 0.188896 -1.03823e-15 -4.99526e-16)
(-2.33211e-15 0 0 1.01876 -3.88575e-15 -3.60466e-15 0.188896 -5.59839e-15 -4.2107e-15)
(4.71581e-15 -1.56969e-30 -5.82887e-32 0.984038 4.76634e-15 -1.84662e-15 0.187828 -9.38478e-16 -4.03955e-16)
(9.80112e-15 0 0 0.984038 -2.85586e-15 -2.16647e-15 0.187828 -5.72766e-15 -4.23544e-15)
(2.46346e-15 2.35699e-30 -3.02404e-31 0.950577 3.5202e-15 -1.32379e-15 0.186781 -8.85556e-16 -1.30427e-16)
(0 -3.90951e-30 0 0.950577 -3.74056e-15 -1.91744e-15 0.186781 -5.88225e-15 -4.14416e-15)
(-6.77067e-16 -6.27194e-31 -1.60777e-30 0.918326 2.27637e-15 -2.42252e-16 0.185754 -4.96121e-16 -2.45694e-17)
(-9.90624e-15 0 0 0.918326 -4.40986e-15 -3.24572e-15 0.185754 -6.14288e-15 -4.05015e-15)
(0 3.68948e-30 -1.04269e-31 0.887232 3.02688e-15 -2.56179e-30 0.184744 -4.26352e-16 0)
(7.88137e-15 0 -3.19637e-31 0.887232 -3.03129e-15 -3.68004e-15 0.184744 -6.42472e-15 -3.42319e-15)
(0 -3.58415e-30 -4.91397e-30 0.857244 4.04365e-15 1.32241e-16 0.183751 -8.43733e-16 -1.42119e-17)
(0 3.58415e-30 3.58415e-30 0.857244 -3.99519e-15 -2.85912e-15 0.183751 -6.65315e-15 -2.64356e-15)
(0 0 1.74092e-30 0.828313 4.05912e-15 1.10532e-15 0.182772 -8.95286e-16 -2.67651e-16)
(0 6.96366e-30 0 0.828313 -3.07241e-15 -8.05539e-16 0.182772 -6.90499e-15 -1.91669e-15)
(3.80828e-15 3.38243e-30 1.69122e-30 0.800395 4.60484e-15 1.00259e-15 0.181805 -9.00999e-16 -2.20785e-16)
(-3.80828e-15 0 1.69122e-30 0.800395 9.5861e-17 3.5073e-16 0.181805 -6.83562e-15 -1.80692e-15)
(0 0 0 0.773446 4.57516e-15 1.72896e-16 0.18085 -1.20091e-15 -2.3613e-16)
(0 0 0 0.773446 -7.05241e-16 1.11927e-15 0.18085 -6.76237e-15 -1.61862e-15)
(-2.55368e-15 4.53497e-30 -2.18953e-47 0.747425 3.24826e-15 4.48625e-32 0.179903 -9.40609e-16 0)
(0 -3.19207e-30 0 0.747425 -1.74844e-15 1.39499e-15 0.179903 -7.06753e-15 -2.26272e-15)
(0 0 1.55047e-30 0.722292 3.23176e-15 1.26156e-15 0.178964 -6.22655e-16 -3.3684e-16)
(-3.49135e-15 0 1.55047e-30 0.722292 -2.17515e-16 5.11896e-16 0.178964 -7.07134e-15 -2.11161e-15)
(2.57884e-15 -1.30898e-30 -1.2314e-31 0.698011 3.38494e-15 1.36938e-15 0.178031 -9.88385e-16 -2.89294e-16)
(0 0 1.50621e-30 0.698011 2.11682e-16 1.15894e-15 0.178031 -6.98361e-15 -1.88921e-15)
(2.59132e-15 -4.26013e-30 -1.23494e-31 0.674545 3.07777e-15 1.319e-15 0.177101 -7.39288e-16 -4.12887e-16)
(0 2.92641e-30 0 0.674545 2.0445e-15 2.06722e-15 0.177101 -7.22496e-15 -2.00893e-15)
(3.20079e-15 0 0 0.651862 3.12676e-15 1.23851e-15 0.176173 -8.83226e-16 -2.79629e-16)
(7.21417e-15 0 9.95531e-31 0.651862 3.38935e-15 2.10832e-15 0.176173 -6.75457e-15 -2.28542e-15)
(0 0 0 0.629927 2.67143e-15 2.70923e-15 0.175246 -8.10319e-16 -3.93246e-16)
(-2.09287e-14 0 6.33317e-31 0.629927 1.31364e-15 3.27514e-15 0.175246 -6.58457e-15 -2.47914e-15)
(0 0 0 0.608711 3.38214e-15 3.22545e-15 0.174317 -6.78145e-16 -1.12887e-15)
(-3.02065e-15 2.68287e-30 1.34144e-30 0.608711 1.30384e-15 3.53782e-15 0.174317 -6.81023e-15 -2.47604e-15)
(-2.64061e-15 1.12513e-30 1.41203e-31 0.588183 4.98812e-15 2.85359e-15 0.173384 -1.27279e-15 -7.17513e-16)
(0 0 0 0.588183 6.09252e-16 2.02851e-15 0.173384 -6.7587e-15 -1.9051e-15)
(0 -2.53188e-30 -2.53188e-30 0.568317 5.6613e-15 2.74084e-15 0.172445 -1.68193e-15 -9.73134e-16)
(0 0 2.53188e-30 0.568317 -8.3498e-16 1.307e-15 0.172445 -7.13895e-15 -1.69272e-15)
(0 0 0 0.549083 5.03753e-15 2.26998e-15 0.171499 -1.76438e-15 -6.90678e-16)
(0 0 0 0.549083 -2.07548e-16 8.18787e-18 0.171499 -5.2427e-15 -1.62991e-15)
(-5.3538e-15 2.00848e-30 1.90278e-31 0.530457 3.68306e-15 7.98433e-16 0.170542 -1.38575e-15 -7.3188e-16)
(1.07076e-14 -2.03369e-30 -5.16455e-31 0.530457 9.65055e-16 -1.08077e-16 0.170542 -3.89762e-15 -6.75073e-16)
(0 0 -4.37906e-47 0.512414 3.61123e-15 5.55709e-46 0.169574 -9.83363e-16 -1.97215e-31)
(1.07555e-14 -2.26631e-30 -1.19716e-31 0.512414 1.57643e-15 7.87296e-16 0.169574 -3.50382e-15 -1.22812e-15)
(0 2.25491e-30 0 0.49493 4.45567e-15 6.28796e-16 0.16859 -1.42002e-15 -4.67114e-16)
(0 -2.25491e-30 0 0.49493 1.61315e-15 -3.0303e-16 0.16859 -2.53869e-15 -9.59733e-16)
(-2.46632e-15 2.19053e-30 0 0.477981 4.05481e-15 1.2819e-30 0.16759 -1.62748e-15 1.97215e-31)
(0 0 0 0.477981 1.85899e-15 -3.3888e-16 0.16759 -1.56139e-15 -5.89953e-16)
(0 -2.128e-30 -2.128e-30 0.461546 3.92631e-15 8.60759e-16 0.166571 -1.21861e-15 -6.66217e-16)
(0 0 0 0.461546 1.66774e-15 -1.53016e-16 0.166571 -1.00025e-15 -3.02841e-16)
(4.08565e-16 -2.88336e-30 -1.59998e-31 0.445604 4.39705e-15 -3.31052e-16 0.165528 -1.63014e-15 -1.95374e-16)
(-2.32751e-15 2.06725e-30 -1.90927e-44 0.445604 2.93096e-15 8.5909e-30 0.165528 -5.48458e-16 1.40943e-46)
(-5.49543e-15 1.5304e-30 2.78805e-31 0.430134 3.53846e-15 -9.61493e-16 0.164461 -1.64728e-15 -5.47394e-16)
(1.09909e-14 -9.71136e-31 9.83738e-31 0.430134 3.51851e-15 -4.68386e-17 0.164461 -1.652e-15 -1.11424e-16)
(4.39304e-15 0 -1.9509e-30 0.415117 1.29359e-15 -2.17816e-15 0.163366 -1.05896e-15 -1.18202e-15)
(0 0 0 0.415117 1.2039e-15 -4.79526e-16 0.163366 -1.03857e-15 -5.63939e-16)
(0 0 -6.13549e-31 0.400532 -9.12728e-16 -1.65012e-30 0.162238 -6.97912e-16 0)
(1.10831e-14 -3.78294e-30 -2.00851e-31 0.400532 -4.38841e-16 1.11632e-15 0.162238 -2.54613e-16 -1.45935e-15)
(1.10738e-14 -4.63034e-30 -2.03214e-30 0.386363 -1.32348e-15 1.11045e-15 0.161076 -4.05422e-16 -4.75531e-16)
(0 0 0 0.386363 -9.70897e-16 2.56772e-15 0.161076 -5.62347e-16 -1.68605e-15)
(-2.79353e-15 1.01805e-30 1.93284e-31 0.37259 -7.20672e-16 2.10546e-15 0.159875 -2.1261e-16 -4.53438e-16)
(0 0 0 0.37259 -1.5955e-15 1.59357e-15 0.159875 -8.1577e-16 -1.82772e-15)
(1.10767e-15 -7.67392e-31 -1.73748e-30 0.359197 7.04904e-16 3.87563e-15 0.158631 -4.64778e-16 -1.30029e-15)
(0 1.10441e-30 1.73748e-30 0.359197 5.30116e-29 1.67235e-15 0.158631 0 -1.37447e-15)
(0 0 0 0.346165 1.5001e-15 2.59015e-15 0.157339 -8.53129e-16 -7.62895e-16)
(-7.60155e-15 0 0 0.346165 4.19094e-15 -2.8359e-16 0.157339 -1.97365e-15 -1.34872e-15)
(0 0 0 0.33348 1.01691e-15 1.25476e-15 0.155996 -5.11249e-16 -8.15485e-16)
(-1.86929e-14 2.69453e-30 -3.17044e-44 0.33348 1.37268e-15 7.07693e-30 0.155996 -1.99465e-15 2.02728e-46)
(0 1.59289e-30 0 0.321124 1.21673e-15 -1.32976e-15 0.154595 -4.43313e-16 -9.89771e-16)
(-1.13524e-14 1.88116e-30 1.10953e-30 0.321124 -2.00563e-16 1.52384e-16 0.154595 -9.55602e-16 -2.44887e-16)
(-4.11989e-15 -9.32032e-31 -8.75812e-47 0.309081 1.0328e-15 2.45134e-46 0.153132 -7.37852e-16 1.97215e-31)
(0 1.54741e-30 1.54741e-30 0.309081 -2.24927e-17 -1.21746e-15 0.153132 -6.34148e-16 -1.12449e-15)
(5.25115e-16 1.05835e-30 0 0.297335 7.41054e-16 2.34796e-15 0.1516 -2.83928e-16 -5.99264e-16)
(0 0 0 0.297335 -1.36466e-15 -5.73197e-30 0.1516 -9.5464e-16 -3.9443e-31)
(0 0 0 0.285871 9.32747e-16 -1.31048e-15 0.149991 -1.53421e-15 -1.08985e-15)
(0 0 0 0.285871 4.24013e-30 1.25352e-15 0.149991 -1.57772e-30 -5.13815e-16)
(2.88126e-15 1.83593e-30 -1.85754e-31 0.274673 -5.08802e-17 -5.49933e-16 0.1483 -6.34542e-16 -3.66121e-16)
(1.1525e-14 -6.49849e-30 -8.06742e-31 0.274673 1.23379e-15 1.91748e-15 0.1483 -1.40575e-15 -8.13073e-16)
(-5.7836e-15 2.20507e-30 0 0.263726 -3.50124e-16 -5.85695e-16 0.146517 -1.44905e-16 -1.51762e-15)
(0 2.44806e-47 0 0.263726 0 2.80822e-15 0.146517 0 -1.27616e-15)
(3.12716e-15 1.86777e-30 0 0.253013 6.83999e-16 -2.16937e-30 0.144634 -1.96794e-16 -5.06464e-47)
(1.71884e-14 -9.90162e-30 0 0.253013 6.03696e-16 4.38634e-16 0.144634 -1.7464e-16 -8.15148e-16)
(5.85726e-15 -2.60115e-30 -1.30057e-30 0.242519 -2.95136e-16 1.84818e-15 0.14264 -2.27278e-15 -1.34461e-15)
(-1.16502e-14 3.95385e-30 6.26594e-31 0.242519 9.35578e-16 -1.23878e-15 0.14264 -5.25197e-16 -5.83959e-16)
(-2.92273e-15 1.68769e-43 0 0.232227 -3.80226e-29 -1.08654e-15 0.140524 0 -1.57183e-15)
(1.16909e-14 -3.681e-30 -9.05702e-31 0.232227 8.10172e-16 -1.93239e-16 0.140524 -1.35167e-15 -2.05451e-16)
(-2.93279e-15 9.34927e-31 5.73657e-44 0.22212 2.57379e-15 1.29271e-29 0.138274 -9.61651e-16 3.9443e-31)
(-5.52761e-15 2.45475e-30 0 0.22212 -2.93225e-16 1.30861e-15 0.138274 -7.91361e-16 -1.71084e-15)
(0 -1.19234e-30 0 0.212182 -5.48811e-16 7.72519e-15 0.135874 -3.07532e-15 -1.38644e-15)
(1.17709e-14 -1.56245e-43 0 0.212182 -3.51517e-29 2.41553e-15 0.135874 -1.57772e-30 -1.55246e-15)
(-2.95251e-15 1.566e-30 0 0.202394 -1.09206e-16 3.39753e-15 0.133309 -3.6316e-17 -4.40253e-16)
(0 -2.3166e-30 0 0.202394 4.2931e-16 2.11485e-15 0.133309 -1.44427e-15 -1.23369e-15)
(0 2.25046e-30 0 0.192736 -1.28558e-16 -2.14989e-15 0.130559 -1.41234e-16 -9.82284e-16)
(0 -2.25046e-30 1.12523e-30 0.192736 -5.89512e-16 2.06599e-15 0.130559 -1.38816e-15 -8.52393e-16)
(0 1.86548e-43 0 0.18319 4.20157e-29 -1.52835e-15 0.127605 -1.82112e-46 -1.02981e-15)
(-1.18864e-14 2.11476e-30 0 0.18319 -8.51717e-16 1.54074e-15 0.127605 -8.05477e-16 -8.70844e-16)
(0 0 -1.49965e-31 0.173732 3.90477e-15 -4.79887e-30 0.124421 -1.73229e-15 0)
(0 0 0 0.173732 -1.34407e-16 1.04273e-15 0.124421 -4.87538e-17 -5.76128e-16)
(4.64585e-15 -2.06317e-30 0 0.164339 2.23898e-15 4.52021e-15 0.12098 -5.41411e-15 2.49544e-16)
(0 0 0 0.164339 4.12118e-29 1.55359e-15 0.12098 0 -5.08142e-16)
(-4.51322e-15 -2.00427e-30 0 0.154986 -9.92813e-16 8.6573e-16 0.11725 -3.52906e-15 5.2694e-16)
(1.19957e-14 -2.36857e-30 0 0.154986 1.49846e-15 1.28799e-15 0.11725 -1.19612e-15 4.43143e-16)
(-3.00762e-15 9.26386e-31 -2.53133e-31 0.145643 -1.29158e-16 -3.69285e-16 0.113192 -1.58299e-15 7.61943e-17)
(0 0 0 0.145643 7.34584e-16 -1.36071e-15 0.113192 -1.1064e-15 -6.42798e-17)
(-1.77297e-15 3.68132e-30 0 0.13628 -2.97996e-16 8.93626e-16 0.108764 -2.19917e-15 2.01869e-16)
(7.80516e-15 -6.3169e-30 -6.42846e-44 0.13628 1.0005e-16 -7.24044e-30 0.108764 -4.07489e-17 -1.1145e-46)
(-3.02431e-15 1.76914e-43 -4.59369e-31 0.126861 3.99533e-29 7.15887e-16 0.103915 -4.28164e-46 9.1406e-17)
(1.20973e-14 -5.52545e-30 4.59369e-31 0.126861 1.94406e-15 1.10903e-15 0.103915 -1.9467e-15 -1.66122e-16)
(-3.03226e-15 1.02067e-30 0 0.117348 9.82211e-16 -5.79303e-16 0.0985862 -9.15105e-16 -1.44085e-16)
(1.21291e-14 -3.61151e-30 -4.37906e-47 0.117348 5.33924e-16 -1.92147e-30 0.0985862 -1.30551e-15 0)
(0 1.73406e-30 -1.33445e-31 0.107697 1.38359e-15 5.78329e-17 0.0927098 -7.78514e-16 2.47469e-16)