/*--------------------------------*- C++ -*----------------------------------*\
| =========                 |                                                 |
| \\      /  F ield         | OpenFOAM: The Open Source CFD Toolbox           |
|  \\    /   O peration     | Version:  2012                                  |
|   \\  /    A nd           | Website:  www.openfoam.com                      |
|    \\/     M anipulation  |                                                 |
\*---------------------------------------------------------------------------*/
FoamFile
{
    version     2.0;
    format      ascii;
    class       surfaceScalarField;
    location    "8000";
    object      phi;
}
// * * * * * * * * * * * * * * * * * * * * * * * * * * * * * * * * * * * * * //

dimensions      [0 3 -1 0 0 0 0];
oriented        oriented;


internalField   nonuniform List<scalar> 
5116
(
2.66306e-08
-5.12865e-18
8.99543e-23
-1.65705e-22
1.14463e-22
8.14398e-08
-5.12923e-18
3.22604e-22
-9.36023e-23
1.83292e-22
1.38633e-07
-5.12983e-18
3.26261e-22
-8.90372e-24
1.9135e-22
1.9829e-07
-5.13043e-18
3.2878e-22
5.27309e-23
1.99742e-22
2.60495e-07
-5.13109e-18
3.34777e-22
1.28403e-22
2.08478e-22
3.25332e-07
-5.13174e-18
3.43425e-22
1.33226e-22
2.17573e-22
3.9289e-07
-5.13237e-18
3.53029e-22
1.6476e-22
2.27038e-22
4.63258e-07
-5.13284e-18
3.63112e-22
1.5574e-22
2.36884e-22
5.3653e-07
-5.13339e-18
3.73594e-22
1.25926e-22
2.47126e-22
6.12799e-07
-5.13392e-18
3.8446e-22
-4.40536e-23
2.57774e-22
6.92162e-07
-5.1346e-18
3.95711e-22
-2.75474e-23
2.68838e-22
7.74716e-07
-5.13545e-18
4.07355e-22
2.63228e-23
2.80325e-22
8.60558e-07
-5.1362e-18
4.19406e-22
-3.57663e-23
2.9224e-22
9.49788e-07
-5.13694e-18
4.31867e-22
-3.82094e-23
3.04583e-22
1.0425e-06
-5.13775e-18
4.44737e-22
-5.7664e-23
3.17347e-22
1.13878e-06
-5.13835e-18
4.58004e-22
-3.0079e-22
3.30524e-22
1.23873e-06
-5.139e-18
4.71647e-22
-4.19316e-22
3.441e-22
1.34242e-06
-5.13965e-18
4.85623e-22
-6.82767e-22
3.58038e-22
1.44992e-06
-5.14057e-18
4.99881e-22
-1.03332e-21
3.723e-22
1.5613e-06
-5.14127e-18
5.14362e-22
-9.57169e-22
3.86834e-22
1.67659e-06
-5.14174e-18
5.28976e-22
-1.68301e-21
4.01558e-22
1.79583e-06
-5.14255e-18
5.4363e-22
-1.52187e-21
4.16397e-22
1.91902e-06
-5.14333e-18
5.58209e-22
-2.32604e-21
4.3124e-22
2.04613e-06
-5.1435e-18
5.72601e-22
-3.03209e-21
4.45998e-22
2.17715e-06
-5.14467e-18
5.86652e-22
-2.71262e-21
4.60542e-22
2.31199e-06
-5.14571e-18
6.00245e-22
-2.27158e-21
4.7474e-22
2.45057e-06
-5.14711e-18
6.13238e-22
-2.38144e-21
4.88464e-22
2.59277e-06
-5.14794e-18
6.25505e-22
-2.12357e-21
5.01609e-22
2.73847e-06
-5.14818e-18
6.36932e-22
-2.34059e-21
5.14066e-22
2.88752e-06
-5.14905e-18
6.47414e-22
-2.45031e-21
5.2576e-22
3.03974e-06
-5.14939e-18
6.56889e-22
-2.74705e-21
5.3662e-22
3.19498e-06
-5.14985e-18
6.65309e-22
-3.35221e-21
5.46593e-22
3.35306e-06
-5.15109e-18
6.7267e-22
-3.67106e-21
5.55652e-22
3.51381e-06
-5.15196e-18
6.79002e-22
-3.94646e-21
5.63808e-22
3.67707e-06
-5.1529e-18
6.84353e-22
-4.75842e-21
5.71095e-22
3.84269e-06
-5.15341e-18
6.88787e-22
-5.12256e-21
5.77557e-22
4.01053e-06
-5.15368e-18
6.92364e-22
-5.20777e-21
5.83222e-22
4.18048e-06
-5.15401e-18
6.95202e-22
-5.77607e-21
5.88168e-22
4.35243e-06
-5.15396e-18
6.97412e-22
-6.14168e-21
5.92513e-22
4.5263e-06
-5.15478e-18
6.99099e-22
-6.27217e-21
5.96307e-22
4.70202e-06
-5.15536e-18
7.0037e-22
-6.32061e-21
5.99631e-22
4.87955e-06
-5.15492e-18
7.01362e-22
-7.13907e-21
6.02571e-22
5.05885e-06
-5.15547e-18
7.02099e-22
-7.52751e-21
6.05227e-22
5.23992e-06
-5.15607e-18
7.027e-22
-8.0519e-21
6.07655e-22
5.42274e-06
-5.15624e-18
7.03268e-22
-9.16266e-21
6.09903e-22
5.60733e-06
-5.15526e-18
7.03861e-22
-9.18806e-21
6.12087e-22
5.7937e-06
-5.15543e-18
7.04477e-22
-9.87356e-21
6.14229e-22
5.98189e-06
-5.15583e-18
7.05239e-22
-1.05201e-20
6.16379e-22
6.17194e-06
-5.15564e-18
7.06219e-22
-1.14455e-20
6.18606e-22
6.36388e-06
-5.15575e-18
7.07451e-22
-1.22908e-20
6.20903e-22
6.55778e-06
-5.15498e-18
7.08996e-22
-1.28773e-20
6.23313e-22
6.75368e-06
-5.15365e-18
7.10835e-22
-1.40213e-20
6.25877e-22
6.95164e-06
-5.15387e-18
7.12984e-22
-1.4888e-20
6.28599e-22
7.15174e-06
-5.15359e-18
7.15571e-22
-1.61904e-20
6.31543e-22
7.35403e-06
-5.15311e-18
7.18584e-22
-1.69246e-20
6.34708e-22
7.55858e-06
-5.15401e-18
7.21996e-22
-1.86139e-20
6.38109e-22
7.76547e-06
-5.15664e-18
7.25891e-22
-1.8744e-20
6.4182e-22
7.97476e-06
-5.15846e-18
7.30289e-22
-1.79607e-20
6.45697e-22
8.18653e-06
-5.16039e-18
7.35258e-22
-1.75275e-20
6.49769e-22
8.40086e-06
-5.16182e-18
7.40926e-22
-1.72723e-20
6.54055e-22
8.61781e-06
-5.1643e-18
7.47254e-22
-1.67711e-20
6.5849e-22
8.83747e-06
-5.16685e-18
7.54265e-22
-1.74435e-20
6.63122e-22
9.0599e-06
-5.1682e-18
7.61993e-22
-1.69705e-20
6.67919e-22
9.2852e-06
-5.16969e-18
7.70448e-22
-1.67497e-20
6.72913e-22
9.51343e-06
-5.17236e-18
7.79574e-22
-1.70439e-20
6.78051e-22
9.74467e-06
-5.17366e-18
7.89255e-22
-1.72458e-20
6.83521e-22
9.97901e-06
-5.17465e-18
7.99425e-22
-1.80667e-20
6.89379e-22
1.02165e-05
-5.17729e-18
8.09965e-22
-1.81078e-20
6.95539e-22
1.04573e-05
-5.18096e-18
8.21029e-22
-1.83399e-20
7.02277e-22
1.07014e-05
-5.17921e-18
8.32513e-22
-1.69303e-20
7.09692e-22
1.09488e-05
-5.18014e-18
8.442e-22
-1.8914e-20
7.17474e-22
1.11998e-05
-5.18215e-18
8.56258e-22
-1.96201e-20
7.25775e-22
1.14544e-05
-5.18283e-18
8.68761e-22
-2.08435e-20
7.34581e-22
1.17126e-05
-5.18463e-18
8.81671e-22
-2.16493e-20
7.44028e-22
1.19745e-05
-5.18554e-18
8.95162e-22
-2.3396e-20
7.54143e-22
1.22403e-05
-5.18578e-18
9.09218e-22
-2.1184e-20
7.65105e-22
1.25099e-05
-5.18861e-18
9.23704e-22
-2.09129e-20
7.76426e-22
1.27836e-05
-5.19017e-18
9.38811e-22
-2.18423e-20
7.88255e-22
1.30613e-05
-5.19243e-18
9.54439e-22
-2.39803e-20
8.0085e-22
1.33432e-05
-5.19215e-18
9.70574e-22
-2.63447e-20
8.1458e-22
1.36293e-05
-5.19205e-18
9.86945e-22
-2.82392e-20
8.29382e-22
1.39197e-05
-5.19226e-18
1.00376e-21
-3.10993e-20
8.45051e-22
1.42145e-05
-5.19173e-18
1.02091e-21
-3.41768e-20
8.61554e-22
1.45138e-05
-5.19161e-18
1.03818e-21
-3.67894e-20
8.79303e-22
1.48178e-05
-5.19246e-18
1.05595e-21
-4.00858e-20
8.98114e-22
1.51264e-05
-5.19511e-18
1.07455e-21
-3.91873e-20
9.18008e-22
1.54397e-05
-5.19714e-18
1.09401e-21
-3.54037e-20
9.38316e-22
1.57579e-05
-5.1984e-18
1.1141e-21
-3.50733e-20
9.58864e-22
1.60811e-05
-5.20067e-18
1.13517e-21
-3.37923e-20
9.79643e-22
1.64093e-05
-5.20451e-18
1.15729e-21
-3.35474e-20
1.00097e-21
1.67427e-05
-5.20651e-18
1.18015e-21
-3.13164e-20
1.0229e-21
1.70813e-05
-5.20479e-18
1.20384e-21
-3.00221e-20
1.04494e-21
1.74252e-05
-5.2082e-18
1.22775e-21
-3.13284e-20
1.06731e-21
1.77746e-05
-5.20916e-18
1.25187e-21
-3.05386e-20
1.09091e-21
1.81295e-05
-5.21081e-18
1.27643e-21
-3.24396e-20
1.11538e-21
1.849e-05
-5.20846e-18
1.30087e-21
-3.40965e-20
1.14108e-21
1.88563e-05
-5.20723e-18
1.32555e-21
-3.32575e-20
1.16841e-21
1.92284e-05
-5.20549e-18
1.35004e-21
-3.43146e-20
1.19782e-21
1.96064e-05
-5.20399e-18
1.37352e-21
-3.62824e-20
1.22924e-21
1.99905e-05
-5.20317e-18
1.39656e-21
-3.89369e-20
1.26274e-21
2.03807e-05
-5.19873e-18
1.41899e-21
-4.10502e-20
1.2983e-21
2.07772e-05
-5.18643e-18
1.44136e-21
-4.72281e-20
1.33632e-21
2.118e-05
-5.1843e-18
1.46057e-21
-4.96516e-20
1.37737e-21
2.15894e-05
-5.18174e-18
1.47841e-21
-5.53421e-20
1.42155e-21
2.20053e-05
-5.18094e-18
1.49562e-21
-5.87718e-20
1.46914e-21
2.2428e-05
-5.17632e-18
1.51127e-21
-6.38976e-20
1.51976e-21
2.28575e-05
-5.1781e-18
1.52528e-21
-6.46434e-20
1.57363e-21
2.32939e-05
-5.18301e-18
1.5396e-21
-6.29284e-20
1.62859e-21
2.37374e-05
-5.18514e-18
1.55403e-21
-6.38758e-20
1.68583e-21
2.41881e-05
-5.19227e-18
1.56883e-21
-6.62937e-20
1.74522e-21
2.46461e-05
-5.19701e-18
1.58601e-21
-6.37989e-20
1.80538e-21
2.51115e-05
-5.19593e-18
1.605e-21
-6.51689e-20
1.86597e-21
2.55845e-05
-5.20932e-18
1.62433e-21
-5.97898e-20
1.92776e-21
2.60652e-05
-5.21462e-18
1.64658e-21
-5.8374e-20
1.98908e-21
2.65537e-05
-5.21605e-18
1.66944e-21
-6.24573e-20
2.05105e-21
2.70502e-05
-5.21972e-18
1.69083e-21
-6.56399e-20
2.11531e-21
2.75547e-05
-5.2203e-18
1.71284e-21
-6.2857e-20
2.18257e-21
2.80675e-05
-5.21158e-18
1.73206e-21
-6.53083e-20
2.25186e-21
2.85886e-05
-5.21194e-18
1.74713e-21
-7.17512e-20
2.32449e-21
2.91183e-05
-5.20909e-18
1.76028e-21
-7.59107e-20
2.40359e-21
2.96566e-05
-5.20253e-18
1.77123e-21
-8.20051e-20
2.4864e-21
3.02036e-05
-5.19895e-18
1.77825e-21
-8.69507e-20
2.57307e-21
3.07597e-05
-5.20004e-18
1.78309e-21
-8.66494e-20
2.66265e-21
3.13248e-05
-5.20362e-18
1.78918e-21
-9.51521e-20
2.75205e-21
3.18991e-05
-5.20506e-18
1.79597e-21
-1.02214e-19
2.84386e-21
3.24829e-05
-5.19814e-18
1.80141e-21
-1.07608e-19
2.94095e-21
3.30762e-05
-5.20039e-18
1.80209e-21
-1.14502e-19
3.04309e-21
3.36792e-05
-5.19826e-18
1.80222e-21
-1.15145e-19
3.1471e-21
3.4292e-05
-5.18186e-18
1.79851e-21
-1.22781e-19
3.25243e-21
3.49149e-05
-5.17191e-18
1.78234e-21
-1.36951e-19
3.36432e-21
3.55481e-05
-5.16725e-18
1.75792e-21
-1.45406e-19
3.48501e-21
3.61915e-05
-5.16524e-18
1.72697e-21
-1.49632e-19
3.61201e-21
3.68456e-05
-5.17081e-18
1.68939e-21
-1.39164e-19
3.74252e-21
3.75103e-05
-5.17745e-18
1.65008e-21
-1.42793e-19
3.86892e-21
3.81859e-05
-5.17495e-18
1.60913e-21
-1.41527e-19
3.99983e-21
3.88726e-05
-5.17388e-18
1.5652e-21
-1.44686e-19
4.13006e-21
3.95705e-05
-5.1778e-18
1.51711e-21
-1.51851e-19
4.25987e-21
4.02799e-05
-5.18834e-18
1.47421e-21
-1.53949e-19
4.38807e-21
4.10009e-05
-5.19171e-18
1.43659e-21
-1.59315e-19
4.51946e-21
4.17337e-05
-5.17349e-18
1.39961e-21
-1.63095e-19
4.65342e-21
4.24786e-05
-5.17894e-18
1.34869e-21
-1.66542e-19
4.78408e-21
4.32356e-05
-5.1713e-18
1.29582e-21
-1.76952e-19
4.91857e-21
4.4005e-05
-5.16469e-18
1.23217e-21
-1.83498e-19
5.05424e-21
4.47871e-05
-5.16646e-18
1.16021e-21
-1.9137e-19
5.18777e-21
4.55819e-05
-5.15293e-18
1.08708e-21
-2.03883e-19
5.32349e-21
4.63898e-05
-5.14451e-18
1.00396e-21
-2.15665e-19
5.45949e-21
4.72109e-05
-5.13562e-18
9.07531e-22
-2.31496e-19
5.59136e-21
4.80455e-05
-5.12435e-18
8.04394e-22
-2.35599e-19
5.71618e-21
4.88937e-05
-5.11503e-18
6.90148e-22
-2.50597e-19
5.83151e-21
4.97559e-05
-5.10697e-18
5.68274e-22
-2.5788e-19
5.94264e-21
5.06321e-05
-5.09507e-18
4.43986e-22
-2.79239e-19
6.04128e-21
5.15227e-05
-5.07751e-18
3.15143e-22
-3.0016e-19
6.13194e-21
5.24279e-05
-5.05899e-18
1.757e-22
-3.23476e-19
6.21284e-21
5.33479e-05
-5.03419e-18
2.12568e-23
-3.47694e-19
6.29006e-21
5.42829e-05
-5.02812e-18
-1.51159e-22
-3.54651e-19
6.36218e-21
5.52333e-05
-5.02304e-18
-3.31885e-22
-3.70502e-19
6.42218e-21
5.61992e-05
-5.02301e-18
-5.18791e-22
-3.80169e-19
6.4807e-21
5.71809e-05
-5.01403e-18
-6.96808e-22
-3.96329e-19
6.53172e-21
5.81787e-05
-4.99241e-18
-8.78423e-22
-4.14827e-19
6.57721e-21
5.91928e-05
-4.96262e-18
-1.07596e-21
-4.30482e-19
6.60873e-21
6.02235e-05
-4.93698e-18
-1.28419e-21
-4.51931e-19
6.63418e-21
6.1271e-05
-4.91096e-18
-1.49311e-21
-4.89184e-19
6.66481e-21
6.23356e-05
-4.89604e-18
-1.72078e-21
-5.37052e-19
6.71992e-21
6.34177e-05
-4.89534e-18
-1.93791e-21
-5.53225e-19
6.78352e-21
6.45174e-05
-4.8961e-18
-2.14012e-21
-5.7033e-19
6.81689e-21
6.56351e-05
-4.89241e-18
-2.31315e-21
-5.84372e-19
6.81792e-21
6.6771e-05
-4.87212e-18
-2.48347e-21
-5.98666e-19
6.80611e-21
6.79255e-05
-4.87553e-18
-2.65678e-21
-6.00762e-19
6.76665e-21
6.90988e-05
-4.86397e-18
-2.81476e-21
-6.23328e-19
6.6946e-21
7.02913e-05
-4.85129e-18
-2.96668e-21
-6.48688e-19
6.63668e-21
7.15033e-05
-4.82826e-18
-3.14454e-21
-6.74281e-19
6.59146e-21
7.2735e-05
-4.82119e-18
-3.34945e-21
-6.9268e-19
6.56846e-21
7.39868e-05
-4.79413e-18
-3.55013e-21
-7.23326e-19
6.5556e-21
7.5259e-05
-4.77135e-18
-3.7702e-21
-7.39788e-19
6.541e-21
7.6552e-05
-4.75023e-18
-3.98612e-21
-7.51409e-19
6.49927e-21
7.7866e-05
-4.72233e-18
-4.18921e-21
-7.83365e-19
6.44452e-21
7.92015e-05
-4.70492e-18
-4.39529e-21
-8.15751e-19
6.38709e-21
8.05587e-05
-4.69319e-18
-4.58446e-21
-8.25352e-19
6.31033e-21
8.1938e-05
-4.66738e-18
-4.7208e-21
-8.58565e-19
6.21097e-21
8.33398e-05
-4.63826e-18
-4.84565e-21
-8.81886e-19
6.13308e-21
8.47644e-05
-4.59713e-18
-4.95211e-21
-9.08775e-19
6.00489e-21
8.62121e-05
-4.56893e-18
-5.06397e-21
-9.42354e-19
5.85143e-21
8.76835e-05
-4.55616e-18
-5.21443e-21
-9.65091e-19
5.7051e-21
8.91787e-05
-4.52205e-18
-5.35796e-21
-9.96232e-19
5.56435e-21
9.06983e-05
-4.4957e-18
-5.50801e-21
-1.03187e-18
5.40205e-21
9.22425e-05
-4.47715e-18
-5.71762e-21
-1.04362e-18
5.25647e-21
9.38119e-05
-4.4497e-18
-5.93172e-21
-1.07639e-18
5.08785e-21
9.54068e-05
-4.42962e-18
-6.19653e-21
-1.10052e-18
4.92684e-21
9.70276e-05
-4.41505e-18
-6.43733e-21
-1.12123e-18
4.75635e-21
9.86746e-05
-4.39105e-18
-6.68462e-21
-1.1571e-18
4.55967e-21
0.000100348
-4.35797e-18
-6.91506e-21
-1.18556e-18
4.3509e-21
0.000102049
-4.33596e-18
-7.15311e-21
-1.20728e-18
4.11184e-21
0.000103778
-4.30809e-18
-7.39132e-21
-1.23971e-18
3.81037e-21
0.000105535
-4.26923e-18
-7.64198e-21
-1.26151e-18
3.51776e-21
0.00010732
-4.24183e-18
-7.92518e-21
-1.29459e-18
3.22494e-21
0.000109134
-4.22087e-18
-8.26363e-21
-1.31642e-18
2.94395e-21
0.000110977
-4.19892e-18
-8.60167e-21
-1.33968e-18
2.66258e-21
0.00011285
-4.16023e-18
-8.82305e-21
-1.37597e-18
2.39055e-21
0.000114754
-4.12139e-18
-9.04885e-21
-1.40767e-18
2.15547e-21
0.000116689
-4.09094e-18
-9.32292e-21
-1.42691e-18
1.94234e-21
0.000118654
-4.04901e-18
-9.57412e-21
-1.46212e-18
1.66879e-21
0.000120652
-4.01203e-18
-9.82004e-21
-1.48723e-18
1.38486e-21
0.000122682
-3.96837e-18
-1.00338e-20
-1.5277e-18
1.04975e-21
0.000124744
-3.92447e-18
-1.02566e-20
-1.55129e-18
8.44607e-22
0.00012684
-3.89339e-18
-1.04575e-20
-1.58276e-18
6.49325e-22
0.00012897
-3.86546e-18
-1.06694e-20
-1.59906e-18
5.23366e-22
0.000131135
-3.82557e-18
-1.08078e-20
-1.60937e-18
3.51334e-22
0.000133334
-3.78111e-18
-1.09292e-20
-1.65603e-18
3.84766e-23
0.000135569
-3.71004e-18
-1.0967e-20
-1.68834e-18
-3.01693e-22
0.000137839
-3.6858e-18
-1.1263e-20
-1.72901e-18
-6.46814e-22
0.000140147
-3.63146e-18
-1.14808e-20
-1.75801e-18
-9.69971e-22
0.000142491
-3.58765e-18
-1.1654e-20
-1.76242e-18
-1.36203e-21
0.000144874
-3.5272e-18
-1.18296e-20
-1.78743e-18
-1.84335e-21
0.000147295
-3.50886e-18
-1.21559e-20
-1.81725e-18
-2.18203e-21
0.000149754
-3.44408e-18
-1.23636e-20
-1.83946e-18
-2.47657e-21
0.000152254
-3.41327e-18
-1.24876e-20
-1.82465e-18
-2.79309e-21
0.000154793
-3.37924e-18
-1.25544e-20
-1.83672e-18
-3.28831e-21
0.000157374
-3.33665e-18
-1.26992e-20
-1.84527e-18
-3.66272e-21
0.000159996
-3.28882e-18
-1.29654e-20
-1.88025e-18
-4.04514e-21
0.00016266
-3.25035e-18
-1.32258e-20
-1.90282e-18
-4.18654e-21
0.000165367
-3.22922e-18
-1.35484e-20
-1.90169e-18
-4.27327e-21
0.000168117
-3.21091e-18
-1.37022e-20
-1.90874e-18
-4.5135e-21
0.000170912
-3.17653e-18
-1.38243e-20
-1.90032e-18
-4.48196e-21
0.000173751
-3.15547e-18
-1.39714e-20
-1.91679e-18
-4.53576e-21
0.000176636
-3.11426e-18
-1.4046e-20
-1.92973e-18
-4.75565e-21
0.000179567
-3.07434e-18
-1.40558e-20
-1.94935e-18
-5.11546e-21
0.000182545
-3.02711e-18
-1.3898e-20
-1.95676e-18
-5.3096e-21
0.000185571
-3.02176e-18
-1.39351e-20
-1.95789e-18
-5.52036e-21
0.000188646
-2.94493e-18
-1.38223e-20
-1.96501e-18
-5.90153e-21
0.000191769
-2.94253e-18
-1.3877e-20
-1.9713e-18
-6.25905e-21
0.000194943
-2.9044e-18
-1.39376e-20
-1.96659e-18
-6.44163e-21
0.000198167
-2.88491e-18
-1.41475e-20
-1.97085e-18
-6.61589e-21
0.000201443
-2.84068e-18
-1.43209e-20
-1.96133e-18
-6.83802e-21
0.000204771
-2.79119e-18
-1.45129e-20
-1.9618e-18
-7.22986e-21
0.000208153
-2.76664e-18
-1.47837e-20
-1.96543e-18
-7.6976e-21
0.000211588
-2.72731e-18
-1.50207e-20
-1.95367e-18
-7.73389e-21
0.000215078
-2.69344e-18
-1.5227e-20
-1.94223e-18
-7.7102e-21
0.000218624
-2.65523e-18
-1.51294e-20
-1.90729e-18
-7.87311e-21
0.000222226
-2.65067e-18
-1.52428e-20
-1.92147e-18
-8.46618e-21
0.000225885
-2.59961e-18
-1.50164e-20
-1.91577e-18
-8.75552e-21
0.000229603
-2.58538e-18
-1.49411e-20
-1.9225e-18
-9.02818e-21
0.00023338
-2.58929e-18
-1.46894e-20
-1.87878e-18
-9.5085e-21
0.000237217
-2.56918e-18
-1.41784e-20
-1.85387e-18
-1.04094e-20
0.000241115
-2.53676e-18
-1.40597e-20
-1.86816e-18
-1.14058e-20
0.000245075
-2.51743e-18
-1.42949e-20
-1.88014e-18
-1.22838e-20
0.000249098
-2.46778e-18
-1.45863e-20
-1.9172e-18
-1.255e-20
0.000253184
-2.42179e-18
-1.42264e-20
-1.87926e-18
-1.28149e-20
0.000257335
-2.32969e-18
-1.41593e-20
-1.89608e-18
-1.34954e-20
0.000261552
-2.32187e-18
-1.46888e-20
-1.88579e-18
-1.37806e-20
0.000265836
-2.27437e-18
-1.48616e-20
-1.84908e-18
-1.39357e-20
0.000270187
-2.26095e-18
-1.47102e-20
-1.84989e-18
-1.37651e-20
0.000274607
-2.23824e-18
-1.43297e-20
-1.8046e-18
-1.30426e-20
0.000279097
-2.21404e-18
-1.44884e-20
-1.79473e-18
-1.21529e-20
0.000283657
-2.16693e-18
-1.44548e-20
-1.73718e-18
-1.14408e-20
0.00028829
-2.17138e-18
-1.52733e-20
-1.7537e-18
-1.20746e-20
0.000292995
-2.10103e-18
-1.46098e-20
-1.85145e-18
-1.29726e-20
0.000297775
-2.09576e-18
-1.55887e-20
-1.86909e-18
-1.30432e-20
0.000302629
-2.09561e-18
-1.59081e-20
-1.89027e-18
-1.41609e-20
0.00030756
-2.07311e-18
-1.50215e-20
-1.91392e-18
-1.47563e-20
0.000312568
-2.07951e-18
-1.4599e-20
-1.93603e-18
-1.54848e-20
0.000317655
-2.01266e-18
-1.45554e-20
-1.98326e-18
-1.7078e-20
0.000322821
-2.02295e-18
-1.65811e-20
-1.9951e-18
-1.6729e-20
0.000328068
-2.01998e-18
-1.81123e-20
-1.98965e-18
-1.66256e-20
0.000333397
-2.04499e-18
-1.92938e-20
-1.97365e-18
-1.72765e-20
0.000338809
-1.95234e-18
-2.00554e-20
-2.02842e-18
-1.56855e-20
0.000344305
-1.8882e-18
-2.0561e-20
-1.95071e-18
-1.47605e-20
0.000349887
-1.88065e-18
-2.20394e-20
-1.95184e-18
-1.50741e-20
0.000355555
-1.98444e-18
-2.33594e-20
-1.87344e-18
-1.519e-20
0.000361312
-1.88139e-18
-2.23017e-20
-1.87642e-18
-1.56741e-20
0.000367157
-1.87518e-18
-2.26253e-20
-1.86947e-18
-1.55661e-20
0.000373093
-1.94767e-18
-2.34969e-20
-1.79176e-18
-1.58944e-20
0.000379121
-1.91842e-18
-2.32037e-20
-1.78322e-18
-1.88568e-20
0.000385241
-1.90891e-18
-2.4531e-20
-1.87176e-18
-2.03936e-20
0.000391456
-1.93265e-18
-2.6957e-20
-1.87667e-18
-2.00794e-20
0.000397766
-1.90848e-18
-2.6097e-20
-1.84909e-18
-2.00824e-20
0.000404173
-1.88964e-18
-2.46251e-20
-1.82214e-18
-1.94518e-20
0.000410678
-1.88002e-18
-2.27698e-20
-1.8142e-18
-2.15622e-20
0.000417283
-1.89114e-18
-2.15639e-20
-1.90613e-18
-2.54857e-20
0.000423987
-1.9069e-18
-1.94923e-20
-1.88406e-18
-2.65529e-20
0.000430794
-1.88609e-18
-1.56272e-20
-1.92125e-18
-2.59992e-20
0.000437704
-1.89311e-18
-1.47358e-20
-1.93356e-18
-2.36724e-20
0.000444719
-1.88447e-18
-1.48575e-20
-1.92612e-18
-2.26967e-20
0.000451839
-1.85339e-18
-1.55351e-20
-1.91749e-18
-2.43395e-20
0.000459067
-1.82331e-18
-1.79326e-20
-1.94121e-18
-2.49761e-20
0.000466403
-1.8999e-18
-2.16369e-20
-1.81064e-18
-2.31105e-20
0.000473848
-1.77573e-18
-1.93209e-20
-1.91897e-18
-2.4869e-20
0.000481404
-1.88272e-18
-2.01874e-20
-1.92936e-18
-2.44747e-20
0.000489073
-1.81835e-18
-1.74482e-20
-1.85929e-18
-2.61321e-20
0.000496855
-1.71806e-18
-1.772e-20
-1.76271e-18
-2.43064e-20
0.000504751
-1.70703e-18
-1.76299e-20
-1.76655e-18
-2.33702e-20
0.000512764
-1.80285e-18
-1.99616e-20
-1.57695e-18
-2.05211e-20
0.000520893
-1.68307e-18
-1.57576e-20
-1.5315e-18
-2.31051e-20
0.00052914
-1.50507e-18
-1.48323e-20
-1.64186e-18
-2.7353e-20
0.000537507
-1.41432e-18
-1.53061e-20
-1.5676e-18
-2.68461e-20
0.000545994
-1.49351e-18
-1.78773e-20
-1.4817e-18
-2.23252e-20
0.000554602
-1.35477e-18
-1.5804e-20
-1.39532e-18
-2.15541e-20
0.000563332
-1.28707e-18
-1.77326e-20
-1.25409e-18
-2.58935e-20
0.000572185
-1.27557e-18
-2.35293e-20
-1.43566e-18
-2.58034e-20
0.000581162
-1.33161e-18
-2.41822e-20
-1.31277e-18
-1.38273e-20
0.000590264
-1.25883e-18
-2.29964e-20
-1.28232e-18
-1.62042e-20
0.000599491
-1.22499e-18
-2.67115e-20
-1.36239e-18
-1.96421e-20
0.000608843
-1.28767e-18
-2.91491e-20
-1.43478e-18
-2.02094e-20
0.000618322
-1.31165e-18
-3.28527e-20
-1.52031e-18
-2.41892e-20
0.000627927
-1.42764e-18
-3.88786e-20
-1.38666e-18
-2.08616e-20
0.000637659
-1.55337e-18
-3.78734e-20
-1.33305e-18
-1.2861e-20
0.000647518
-1.39236e-18
-2.73727e-20
-1.40648e-18
-7.8045e-21
0.000657502
-1.38609e-18
-3.22095e-20
-1.42972e-18
1.4747e-21
0.000667613
-1.5093e-18
-3.87299e-20
-1.28918e-18
1.29915e-20
0.00067785
-1.34198e-18
-2.41835e-20
-1.09436e-18
8.63262e-21
0.000688211
-1.31414e-18
-1.85369e-20
-1.11722e-18
-3.77031e-22
0.000698696
-1.20354e-18
-1.23205e-20
-1.06514e-18
-3.46829e-21
0.000709303
-1.32473e-18
-1.284e-20
-1.1325e-18
-6.04509e-21
0.000720031
-1.16055e-18
1.81258e-21
-1.19069e-18
-7.19193e-21
0.000730878
-1.13249e-18
-8.63295e-21
-1.20578e-18
-7.62992e-21
0.000741843
-1.12948e-18
-1.80089e-20
-1.22353e-18
-7.47012e-21
0.000752922
-1.09276e-18
-1.92596e-20
-1.18888e-18
-2.55073e-20
0.000764113
-1.16437e-18
-2.25675e-20
-1.12124e-18
-3.45379e-20
0.000775413
-1.15936e-18
-1.0537e-20
-1.07992e-18
-5.23352e-20
0.000786819
-1.03077e-18
2.07807e-21
-1.09755e-18
-6.9743e-20
0.000798328
-1.23264e-21
-1.05679e-18
-6.53322e-20
-1.10368e-18
2.66306e-08
8.59864e-23
1.16232e-22
8.14398e-08
4.25836e-22
2.80141e-22
1.38633e-07
7.43586e-22
5.00976e-22
1.9829e-07
1.05137e-21
6.96086e-22
2.60495e-07
1.36448e-21
9.24239e-22
3.25332e-07
1.70964e-21
1.14341e-21
3.9289e-07
2.00169e-21
1.32836e-21
4.63258e-07
2.3545e-21
1.55942e-21
5.3653e-07
2.6984e-21
1.85783e-21
6.12799e-07
3.21848e-21
2.09358e-21
6.92162e-07
3.51836e-21
2.45458e-21
7.74716e-07
3.89643e-21
2.77039e-21
8.60558e-07
4.21561e-21
3.07487e-21
9.49788e-07
4.67683e-21
3.31564e-21
1.0425e-06
5.08649e-21
3.78364e-21
1.13878e-06
5.75561e-21
4.46317e-21
1.23873e-06
6.13399e-21
4.79676e-21
1.34242e-06
6.46428e-21
5.2898e-21
1.44992e-06
7.15112e-21
5.99628e-21
1.5613e-06
7.53002e-21
6.40336e-21
1.67659e-06
8.43446e-21
6.69828e-21
1.79583e-06
8.85796e-21
7.06288e-21
1.91902e-06
1.01394e-20
7.86748e-21
2.04613e-06
1.04714e-20
8.15837e-21
2.17715e-06
1.11488e-20
9.11453e-21
2.31199e-06
1.15198e-20
9.98429e-21
2.45057e-06
1.15408e-20
1.05723e-20
2.59277e-06
1.23936e-20
1.11612e-20
2.73847e-06
1.317e-20
1.17689e-20
2.88752e-06
1.36172e-20
1.22937e-20
3.03974e-06
1.42746e-20
1.28066e-20
3.19498e-06
1.51304e-20
1.28243e-20
3.35306e-06
1.57296e-20
1.28063e-20
3.51381e-06
1.66821e-20
1.35029e-20
3.67707e-06
1.75228e-20
1.45901e-20
3.84269e-06
1.75555e-20
1.51699e-20
4.01053e-06
1.83431e-20
1.60535e-20
4.18048e-06
1.94606e-20
1.72208e-20
4.35243e-06
2.12212e-20
1.75595e-20
4.5263e-06
2.17824e-20
1.89644e-20
4.70202e-06
2.32962e-20
1.98277e-20
4.87955e-06
2.27641e-20
2.02423e-20
5.05885e-06
2.24153e-20
2.15207e-20
5.23992e-06
2.30985e-20
2.20052e-20
5.42274e-06
2.42251e-20
2.32424e-20
5.60733e-06
2.43094e-20
2.45395e-20
5.7937e-06
2.47942e-20
2.48913e-20
5.98189e-06
2.55546e-20
2.62073e-20
6.17194e-06
2.61819e-20
2.65108e-20
6.36388e-06
2.62537e-20
2.72274e-20
6.55778e-06
2.55419e-20
2.8636e-20
6.75368e-06
2.49178e-20
2.88782e-20
6.95164e-06
2.54738e-20
2.98596e-20
7.15174e-06
2.57579e-20
3.10508e-20
7.35403e-06
2.56327e-20
3.30779e-20
7.55858e-06
2.58795e-20
3.43804e-20
7.76547e-06
2.40843e-20
3.43837e-20
7.97476e-06
2.39677e-20
3.55302e-20
8.18653e-06
2.61292e-20
3.55243e-20
8.40086e-06
2.71788e-20
3.42643e-20
8.61781e-06
2.74594e-20
3.49454e-20
8.83747e-06
2.80914e-20
3.47292e-20
9.0599e-06
2.95442e-20
3.48522e-20
9.2852e-06
3.04266e-20
3.23215e-20
9.51343e-06
2.97477e-20
3.28681e-20
9.74467e-06
3.03332e-20
3.35862e-20
9.97901e-06
2.99019e-20
3.23493e-20
1.02165e-05
3.15495e-20
3.48712e-20
1.04573e-05
3.05498e-20
3.7301e-20
1.07014e-05
3.15456e-20
3.77896e-20
1.09488e-05
3.31099e-20
3.82968e-20
1.11998e-05
3.44502e-20
3.93363e-20
1.14544e-05
3.52884e-20
4.03575e-20
1.17126e-05
3.71881e-20
4.10216e-20
1.19745e-05
3.92239e-20
4.28877e-20
1.22403e-05
3.93401e-20
4.31282e-20
1.25099e-05
3.98693e-20
4.36648e-20
1.27836e-05
4.11097e-20
4.42092e-20
1.30613e-05
4.22197e-20
4.69834e-20
1.33432e-05
4.23797e-20
4.7975e-20
1.36293e-05
4.26301e-20
4.85704e-20
1.39197e-05
4.03305e-20
4.95244e-20
1.42145e-05
3.74078e-20
5.27805e-20
1.45138e-05
3.77146e-20
5.34224e-20
1.48178e-05
3.94017e-20
5.48937e-20
1.51264e-05
4.02525e-20
5.52191e-20
1.54397e-05
3.87487e-20
5.76301e-20
1.57579e-05
4.04636e-20
5.61332e-20
1.60811e-05
4.33058e-20
5.77917e-20
1.64093e-05
4.24826e-20
6.02728e-20
1.67427e-05
4.39427e-20
6.18128e-20
1.70813e-05
4.41604e-20
6.19438e-20
1.74252e-05
4.01114e-20
6.5436e-20
1.77746e-05
4.21986e-20
6.79304e-20
1.81295e-05
3.99709e-20
6.73955e-20
1.849e-05
4.46528e-20
6.53476e-20
1.88563e-05
4.58066e-20
6.63981e-20
1.92284e-05
4.24711e-20
6.70095e-20
1.96064e-05
4.49687e-20
7.13506e-20
1.99905e-05
4.66357e-20
7.31294e-20
2.03807e-05
5.48819e-20
7.47432e-20
2.07772e-05
5.24766e-20
7.55517e-20
2.118e-05
5.24312e-20
7.88419e-20
2.15894e-05
5.80853e-20
8.31915e-20
2.20053e-05
5.95141e-20
8.76258e-20
2.2428e-05
6.42057e-20
8.88315e-20
2.28575e-05
7.16578e-20
8.58466e-20
2.32939e-05
7.35874e-20
9.12703e-20
2.37374e-05
7.7483e-20
9.23226e-20
2.41881e-05
8.27326e-20
8.77767e-20
2.46461e-05
8.52979e-20
8.719e-20
2.51115e-05
8.89289e-20
8.92375e-20
2.55845e-05
9.25498e-20
9.12681e-20
2.60652e-05
9.52077e-20
9.23962e-20
2.65537e-05
9.40885e-20
9.51072e-20
2.70502e-05
1.015e-19
1.01504e-19
2.75547e-05
9.94594e-20
1.07787e-19
2.80675e-05
1.00677e-19
1.09151e-19
2.85886e-05
1.00902e-19
1.17588e-19
2.91183e-05
1.04581e-19
1.20568e-19
2.96566e-05
1.05362e-19
1.22624e-19
3.02036e-05
1.06268e-19
1.27777e-19
3.07597e-05
1.11603e-19
1.354e-19
3.13248e-05
1.13844e-19
1.4082e-19
3.18991e-05
1.16752e-19
1.52081e-19
3.24829e-05
1.18266e-19
1.63193e-19
3.30762e-05
1.20724e-19
1.63257e-19
3.36792e-05
1.18248e-19
1.67698e-19
3.4292e-05
1.0745e-19
1.76111e-19
3.49149e-05
1.05881e-19
1.82266e-19
3.55481e-05
1.08144e-19
1.89309e-19
3.61915e-05
1.08176e-19
1.95607e-19
3.68456e-05
1.13645e-19
1.97651e-19
3.75103e-05
1.1682e-19
2.06493e-19
3.81859e-05
1.21639e-19
2.10586e-19
3.88726e-05
1.21609e-19
2.13784e-19
3.95705e-05
1.39257e-19
2.05829e-19
4.02799e-05
1.47416e-19
2.12487e-19
4.10009e-05
1.52543e-19
2.20217e-19
4.17337e-05
1.50604e-19
2.18386e-19
4.24786e-05
1.50825e-19
2.29949e-19
4.32356e-05
1.49163e-19
2.37122e-19
4.4005e-05
1.54243e-19
2.43998e-19
4.47871e-05
1.62343e-19
2.50627e-19
4.55819e-05
1.67827e-19
2.54822e-19
4.63898e-05
1.5908e-19
2.60267e-19
4.72109e-05
1.60696e-19
2.60751e-19
4.80455e-05
1.59267e-19
2.67913e-19
4.88937e-05
1.58441e-19
2.71567e-19
4.97559e-05
1.61051e-19
2.7878e-19
5.06321e-05
1.65295e-19
2.80546e-19
5.15227e-05
1.64308e-19
2.81941e-19
5.24279e-05
1.54956e-19
2.93616e-19
5.33479e-05
1.51412e-19
2.95497e-19
5.42829e-05
1.47294e-19
3.03946e-19
5.52333e-05
1.43165e-19
3.17115e-19
5.61992e-05
1.53342e-19
3.21494e-19
5.71809e-05
1.589e-19
3.23822e-19
5.81787e-05
1.57288e-19
3.25e-19
5.91928e-05
1.59906e-19
3.35431e-19
6.02235e-05
1.6523e-19
3.40256e-19
6.1271e-05
1.49886e-19
3.60878e-19
6.23356e-05
1.62583e-19
3.65509e-19
6.34177e-05
1.71328e-19
3.62411e-19
6.45174e-05
1.83067e-19
3.63066e-19
6.56351e-05
1.6626e-19
3.87941e-19
6.6771e-05
1.64006e-19
3.92588e-19
6.79255e-05
1.56673e-19
3.91694e-19
6.90988e-05
1.6338e-19
3.98562e-19
7.02913e-05
1.45219e-19
3.92667e-19
7.15033e-05
1.29539e-19
3.90843e-19
7.2735e-05
1.25191e-19
3.9495e-19
7.39868e-05
1.24547e-19
3.91176e-19
7.5259e-05
1.3339e-19
3.89429e-19
7.6552e-05
1.42616e-19
3.98926e-19
7.7866e-05
1.43182e-19
4.00753e-19
7.92015e-05
1.44739e-19
4.0098e-19
8.05587e-05
1.6608e-19
4.01763e-19
8.1938e-05
1.73685e-19
4.06013e-19
8.33398e-05
1.92096e-19
3.95936e-19
8.47644e-05
2.14094e-19
4.02145e-19
8.62121e-05
2.14046e-19
4.06844e-19
8.76835e-05
2.2368e-19
4.11985e-19
8.91787e-05
2.3473e-19
4.00631e-19
9.06983e-05
2.02358e-19
4.13862e-19
9.22425e-05
1.89794e-19
4.18349e-19
9.38119e-05
1.57627e-19
4.16996e-19
9.54068e-05
1.60428e-19
4.20941e-19
9.70276e-05
1.44082e-19
4.24018e-19
9.86746e-05
1.50358e-19
4.20654e-19
0.000100348
1.54907e-19
4.18532e-19
0.000102049
1.49726e-19
4.06412e-19
0.000103778
1.45028e-19
4.06155e-19
0.000105535
1.53078e-19
4.06385e-19
0.00010732
1.45875e-19
4.02731e-19
0.000109134
1.51011e-19
3.98678e-19
0.000110977
1.96384e-19
3.93673e-19
0.00011285
2.10597e-19
3.94773e-19
0.000114754
2.13909e-19
3.92173e-19
0.000116689
2.34198e-19
3.75023e-19
0.000118654
2.54379e-19
3.73179e-19
0.000120652
2.74077e-19
3.63275e-19
0.000122682
2.8062e-19
3.87727e-19
0.000124744
2.87518e-19
3.7715e-19
0.00012684
2.63713e-19
3.9551e-19
0.00012897
2.64928e-19
4.09639e-19
0.000131135
2.63336e-19
3.98011e-19
0.000133334
2.93584e-19
3.86376e-19
0.000135569
2.50323e-19
3.88127e-19
0.000137839
2.48206e-19
3.77549e-19
0.000140147
2.58873e-19
3.70515e-19
0.000142491
2.34803e-19
3.79821e-19
0.000144874
1.81601e-19
4.04583e-19
0.000147295
1.74795e-19
3.97365e-19
0.000149754
2.12444e-19
3.80055e-19
0.000152254
2.03754e-19
3.60326e-19
0.000154793
1.74461e-19
3.87992e-19
0.000157374
1.42104e-19
3.74782e-19
0.000159996
1.42735e-19
3.73451e-19
0.00016266
1.34385e-19
3.6822e-19
0.000165367
1.65638e-19
3.56422e-19
0.000168117
1.64874e-19
3.85889e-19
0.000170912
1.59669e-19
3.63486e-19
0.000173751
1.60716e-19
3.39815e-19
0.000176636
1.76994e-19
3.06624e-19
0.000179567
1.97046e-19
2.88172e-19
0.000182545
1.64257e-19
2.65934e-19
0.000185571
1.50081e-19
2.46325e-19
0.000188646
1.53489e-19
2.4e-19
0.000191769
1.23216e-19
2.38707e-19
0.000194943
1.12384e-19
2.29157e-19
0.000198167
1.01756e-19
2.22086e-19
0.000201443
1.03506e-19
2.13816e-19
0.000204771
1.02197e-19
1.86349e-19
0.000208153
9.29653e-20
1.99911e-19
0.000211588
9.8306e-20
1.97658e-19
0.000215078
1.30582e-19
1.98626e-19
0.000218624
9.67273e-20
1.89976e-19
0.000222226
8.72711e-20
1.84392e-19
0.000225885
6.86929e-20
1.54944e-19
0.000229603
6.10909e-20
1.17642e-19
0.00023338
4.57302e-20
8.80773e-20
0.000237217
1.04051e-20
7.30466e-20
0.000241115
2.25236e-21
4.12214e-20
0.000245075
-2.20449e-20
5.37795e-20
0.000249098
2.83983e-20
5.72971e-20
0.000253184
-2.56804e-20
9.53333e-20
0.000257335
-5.53904e-20
6.98989e-20
0.000261552
-7.68431e-20
4.39751e-20
0.000265836
-4.54998e-20
6.55268e-20
0.000270187
-3.58845e-20
6.22832e-20
0.000274607
-9.9907e-20
9.25379e-20
0.000279097
-1.09154e-19
5.73868e-20
0.000283657
-1.62207e-19
-7.4717e-21
0.00028829
-7.66368e-20
-1.61852e-20
0.000292995
-1.40947e-19
-1.52787e-20
0.000297775