/*--------------------------------*- C++ -*----------------------------------*\
| =========                 |                                                 |
| \\      /  F ield         | OpenFOAM: The Open Source CFD Toolbox           |
|  \\    /   O peration     | Version:  2106                                  |
|   \\  /    A nd           | Website:  www.openfoam.com                      |
|    \\/     M anipulation  |                                                 |
\*---------------------------------------------------------------------------*/
FoamFile
{
    version     2.0;
    format      ascii;
    arch        "LSB;label=32;scalar=64";
    class       volTensorField;
    location    "16000";
    object      grad(U);
}
// * * * * * * * * * * * * * * * * * * * * * * * * * * * * * * * * * * * * * //

dimensions      [0 0 -1 0 0 0 0];

internalField   nonuniform List<tensor> 
2560
(
(0 4.15781e-30 -7.61318e-34 51.4287 -1.26213e-11 3.15608e-15 0.0744498 -1.28234e-14 1.50956e-17)
(0 -1.08987e-28 1.71657e-30 51.4287 0 2.91678e-29 0.0744498 -2.72465e-29 5.52842e-17)
(0 -3.47546e-25 4.85112e-27 51.4211 -1.1191e-13 4.95733e-15 0.22441 -3.28696e-16 1.45604e-17)
(0 -4.09822e-30 3.20173e-32 51.4211 -5.90576e-16 6.40888e-18 0.22441 -1.55402e-18 -2.4291e-16)
(-9.425e-18 2.8026e-45 3.4955e-32 51.4134 1.11195e-27 3.877e-15 0.308614 9.19626e-46 3.17754e-17)
(0 4.03948e-30 -9.46753e-32 51.4134 2.82316e-16 -7.80435e-19 0.308614 7.86025e-19 -2.50017e-16)
(3.02232e-17 -5.92459e-30 5.98819e-32 51.4057 6.35966e-13 5.03341e-15 0.313054 -7.89824e-15 2.90728e-17)
(0 3.98158e-30 -3.11061e-32 51.4057 -1.11061e-16 3.17735e-18 0.313054 1.80773e-18 -2.57316e-16)
(2.76163e-16 -1.56981e-29 1.53301e-31 51.3978 -3.67986e-14 4.71112e-15 0.317557 -1.84269e-16 2.87234e-17)
(-1.38082e-16 1.17736e-29 -1.22641e-31 51.3978 -1.82455e-16 3.26387e-18 0.317557 2.95636e-18 -2.64826e-16)
(2.08825e-16 -1.46294e-29 6.02996e-32 51.3897 -3.2082e-14 4.68626e-15 0.322122 -2.15279e-16 2.96128e-17)
(4.45674e-16 1.16048e-29 -3.02208e-32 51.3897 -1.62273e-16 4.42407e-18 0.322122 4.12833e-18 -2.7255e-16)
(-9.44315e-17 -5.29283e-28 -9.72659e-34 51.3812 -9.68913e-28 4.77057e-15 0.326751 -3.15544e-30 3.06372e-17)
(3.77726e-16 3.81283e-30 -5.95754e-32 51.3812 -1.18081e-16 4.87156e-18 0.326751 5.46594e-18 -2.80493e-16)
(-1.16454e-16 1.05668e-29 -9.01883e-32 51.3719 6.25953e-15 4.83862e-15 0.331439 -6.43721e-17 3.13585e-17)
(4.65815e-16 -3.75818e-30 2.93608e-32 51.3719 -1.01833e-16 4.30069e-18 0.331439 7.05697e-18 -2.8866e-16)
(3.99461e-16 -1.04651e-29 9.00554e-32 51.3615 3.9598e-16 4.88077e-15 0.336185 -1.54695e-17 3.20865e-17)
(0 7.40863e-30 -8.68199e-32 51.3615 -2.13759e-16 3.29995e-18 0.336185 8.00452e-18 -2.97057e-16)
(-2.56932e-16 1.46049e-29 -5.70503e-32 51.3491 -2.05716e-15 4.92898e-15 0.340984 -1.66618e-17 3.29174e-17)
(0 -7.30244e-30 0 51.3491 -2.79526e-16 3.87844e-18 0.340984 8.88282e-18 -3.05685e-16)
(-4.37693e-16 -1.13389e-29 7.88632e-32 51.3338 -2.53171e-15 4.98753e-15 0.345827 -1.7213e-17 3.38154e-17)
(0 1.43956e-29 -1.40582e-31 51.3338 -1.48698e-16 3.39883e-18 0.345827 1.02884e-17 -3.14536e-16)
(4.57383e-16 -2.43411e-29 2.5604e-31 51.3141 -2.37416e-15 5.05051e-15 0.350704 -1.49958e-17 3.47428e-17)
(-2.4962e-16 1.41892e-29 -1.6628e-31 51.3141 -8.68465e-17 1.45754e-18 0.350704 1.16784e-17 -3.23621e-16)
(0 -3.49647e-30 8.19485e-32 51.2883 -2.17437e-15 5.11233e-15 0.355599 -1.4946e-17 3.56634e-17)
(0 3.49647e-30 -1.09265e-31 51.2883 1.00502e-16 2.71678e-19 0.355599 1.31783e-17 -3.32925e-16)
(-2.55414e-16 6.50418e-30 -8.97032e-32 51.2539 -2.13898e-15 5.16831e-15 0.360493 -1.49371e-17 3.65483e-17)
(1.02166e-15 0 0 51.2539 2.8925e-16 -2.6404e-18 0.360493 1.4829e-17 -3.4244e-16)
(0 1.35878e-29 -2.1231e-31 51.208 -2.09063e-15 5.21469e-15 0.36536 -1.46935e-17 3.73703e-17)
(0 -1.35878e-29 2.1231e-31 51.208 1.95859e-16 -3.77747e-18 0.36536 1.67096e-17 -3.52152e-16)
(-3.04438e-16 9.75476e-30 -3.74594e-32 51.1468 -2.00144e-15 5.24766e-15 0.370167 -1.40828e-17 3.80965e-17)
(1.21775e-15 -6.69654e-30 0 51.1468 -1.23944e-16 -2.42938e-18 0.370167 1.9338e-17 -3.62028e-16)
(0 1.65014e-29 -2.57835e-31 51.0658 -1.82026e-15 5.26256e-15 0.374873 -1.24616e-17 3.86839e-17)
(-1.31788e-15 -1.65014e-29 2.57835e-31 51.0658 -6.3749e-16 -3.62404e-19 0.374873 2.14777e-17 -3.72034e-16)
(0 1.62649e-29 -3.04967e-31 50.9599 -1.92893e-15 5.25644e-15 0.379431 -1.61154e-17 3.91213e-17)
(-1.4194e-15 -1.62649e-29 3.04967e-31 50.9599 -5.40778e-16 -4.87447e-19 0.379431 2.15364e-17 -3.8212e-16)
(9.02509e-16 -9.61907e-30 1.00199e-31 50.8229 -2.26458e-15 5.22457e-15 0.383783 -1.79036e-17 3.93351e-17)
(0 9.61907e-30 -1.00199e-31 50.8229 -2.65941e-16 -1.1163e-18 0.383783 2.39186e-17 -3.92242e-16)
(4.06638e-16 1.27429e-29 -1.07189e-31 50.6483 -2.06973e-15 5.16242e-15 0.387866 -1.35974e-17 3.93135e-17)
(-1.62655e-15 -1.89624e-29 1.97525e-31 50.6483 -5.80285e-16 -7.1313e-19 0.387866 2.60343e-17 -4.02326e-16)
(0 1.24604e-29 -1.94694e-31 50.4287 -1.62728e-15 5.06867e-15 0.391606 -1.15397e-17 3.90276e-17)
(0 -1.24604e-29 1.94694e-31 50.4287 -7.78267e-16 5.64595e-19 0.391606 2.59547e-17 -4.12295e-16)
(-4.59744e-16 -6.15218e-30 5.31464e-32 50.1565 -1.51392e-15 4.9391e-15 0.394929 -1.22052e-17 3.84186e-17)
(0 1.22818e-29 -1.43928e-31 50.1565 -5.47474e-16 1.01326e-18 0.394929 2.58683e-17 -4.22048e-16)
(1.21698e-15 -3.32579e-29 4.76429e-31 49.8242 -1.36834e-15 4.7701e-15 0.397753 -9.54481e-18 3.74627e-17)
(-8.5187e-16 3.63174e-29 -5.20171e-31 49.8242 -6.72807e-16 -2.63118e-18 0.397753 2.64736e-17 -4.31497e-16)
(0 8.94922e-30 -2.79663e-31 49.4245 -1.44902e-15 4.55969e-15 0.399999 -1.38744e-17 3.61232e-17)
(-2.05618e-15 -1.49154e-29 3.72884e-31 49.4245 -8.86142e-16 -2.03643e-18 0.399999 2.68444e-17 -4.40547e-16)
(5.41578e-16 1.16433e-29 -3.21938e-31 48.951 -2.06704e-15 4.30774e-15 0.401594 -2.00182e-17 3.44044e-17)
(0 -1.47016e-29 3.6754e-31 48.951 -5.29142e-16 -4.83816e-18 0.401594 2.80183e-17 -4.49074e-16)
(-1.13865e-15 3.50998e-29 -5.00548e-31 48.3983 -2.18911e-15 4.01901e-15 0.402469 -1.63236e-17 3.23499e-17)
(0 -2.89818e-29 4.07556e-31 48.3983 -1.63205e-16 -1.04049e-17 0.402469 3.02606e-17 -4.57003e-16)
(1.79171e-15 -4.06003e-29 5.4375e-31 47.763 -2.03845e-15 3.69641e-15 0.402571 -1.80467e-17 2.99351e-17)
(4.77788e-15 3.71363e-29 -4.90985e-31 47.763 1.1727e-16 -1.05638e-17 0.402571 3.22907e-17 -4.64212e-16)
(0 -1.97099e-29 3.07967e-31 47.0433 -1.82355e-15 3.34719e-15 0.401863 -1.31002e-17 2.72825e-17)
(2.50107e-15 1.97099e-29 -3.95957e-31 47.0433 -3.20317e-17 -6.28925e-18 0.401863 3.56657e-17 -4.70611e-16)
(-1.27822e-16 5.26544e-30 -8.12618e-32 46.24 -1.33374e-15 2.98401e-15 0.400325 -1.00161e-17 2.44656e-17)
(0 -5.55068e-30 4.33647e-32 46.24 -8.18665e-16 -2.9782e-18 0.400325 3.86479e-17 -4.76105e-16)
(-1.36295e-15 6.11955e-30 -9.88921e-32 45.3557 -1.42572e-15 2.61395e-15 0.397958 -1.51146e-17 2.15209e-17)
(-5.45178e-15 0 0 45.3557 -1.27513e-15 -1.67592e-18 0.397958 3.75374e-17 -4.8067e-16)
(-7.09527e-16 1.11487e-29 -2.18481e-31 44.3958 -1.76208e-15 2.24414e-15 0.394785 -1.63595e-17 1.85307e-17)
(-3.59706e-15 -5.39271e-30 8.4261e-32 44.3958 -1.21983e-15 -4.77086e-18 0.394785 3.6639e-17 -4.84261e-16)
(0 1.8604e-29 -4.15267e-31 43.3672 -1.81924e-15 1.88248e-15 0.390846 -1.66004e-17 1.55517e-17)
(-2.94987e-15 -1.8604e-29 4.15267e-31 43.3672 -1.38199e-15 -6.21544e-18 0.390846 3.69605e-17 -4.86911e-16)
(0 -1.83373e-29 4.91178e-31 42.2788 -1.64326e-15 1.53781e-15 0.386199 -1.35807e-17 1.26925e-17)
(3.06093e-15 1.83373e-29 -4.91178e-31 42.2788 -1.50712e-15 2.50384e-18 0.386199 3.48853e-17 -4.88583e-16)
(-7.92764e-16 8.2245e-30 -1.29191e-31 41.1404 -1.28583e-15 1.2185e-15 0.380914 -1.03731e-17 1.00096e-17)
(0 0 0 41.1404 -1.50502e-15 3.86668e-18 0.380914 3.12977e-17 -4.89308e-16)
(-8.20006e-16 1.83303e-29 -4.4452e-31 39.9628 -1.19351e-15 9.2814e-16 0.375071 -1.22193e-17 7.53128e-18)
(0 -1.52704e-29 3.97666e-31 39.9628 -1.8517e-15 1.17403e-18 0.375071 3.09735e-17 -4.89188e-16)
(-2.25912e-15 1.5602e-29 -3.59437e-31 38.7567 -1.52586e-15 6.685e-16 0.368755 -1.71023e-17 5.28327e-18)
(-3.38763e-15 -7.52576e-30 1.56787e-31 38.7567 -2.0554e-15 5.55203e-18 0.368755 2.79423e-17 -4.88272e-16)
(8.73426e-16 -1.29507e-29 2.78201e-31 37.5329 -1.40446e-15 4.40328e-16 0.362054 -1.01961e-17 3.27652e-18)
(0 9.89052e-30 -2.31809e-31 37.5329 -1.39245e-15 6.94206e-18 0.362054 2.5857e-17 -4.86619e-16)
(8.9952e-16 -1.28093e-29 3.51468e-31 36.3014 -8.31327e-16 2.47568e-16 0.355052 -6.19847e-18 1.60226e-18)
(0 9.74877e-30 -3.04649e-31 36.3014 -1.0989e-15 7.32936e-18 0.355052 2.53994e-17 -4.8436e-16)
(-9.25159e-16 7.86472e-30 9.39183e-31 35.0715 -5.78801e-16 4.89143e-17 0.34783 -5.39658e-18 2.45096e-19)
(0 0 7.50706e-32 35.0715 -1.81494e-15 1.24537e-17 0.34783 2.10162e-17 -4.81557e-16)
(-1.33297e-15 9.47132e-30 0 33.8514 -4.78225e-16 -9.30609e-30 0.340463 -4.32003e-18 -4.93038e-32)
(1.33297e-15 -1.4207e-29 2.95979e-31 33.8514 -2.07867e-15 1.49447e-17 0.340463 2.16228e-17 -4.78292e-16)
(-9.74974e-16 7.72728e-30 -1.93151e-31 32.6483 -4.47323e-16 -1.2261e-16 0.333019 -4.91253e-18 8.53553e-19)
(2.58603e-15 0 0 32.6483 -1.49504e-15 1.27466e-17 0.333019 2.48319e-17 -4.74665e-16)
(0 -1.38027e-29 4.31333e-31 31.4681 -5.42446e-16 -1.90425e-16 0.325556 -6.45197e-18 1.68187e-18)
(3.99647e-15 1.38027e-29 -4.31333e-31 31.4681 -1.71183e-15 1.52449e-17 0.325556 2.45766e-17 -4.70769e-16)
(1.02274e-15 -1.42669e-29 -9.47961e-32 30.3157 -1.15455e-27 -2.37529e-16 0.318125 0 2.30824e-18)
(-4.09096e-15 -1.36048e-29 2.12575e-31 30.3157 -2.82348e-15 1.37373e-17 0.318125 1.95152e-17 -4.66636e-16)
(1.04583e-15 -7.52716e-30 2.5568e-31 29.1948 -9.86209e-16 -2.6209e-16 0.31077 -2.24312e-17 2.73865e-18)
(0 4.46994e-30 -2.09529e-31 29.1948 -2.11189e-15 1.28861e-17 0.31077 1.44946e-17 -4.62401e-16)
(-1.0684e-15 -1.35103e-30 2.34409e-32 28.1084 -3.0138e-15 -2.71157e-16 0.303525 -4.35923e-17 2.90881e-18)
(0 8.81176e-30 -2.06526e-31 28.1084 -3.72213e-16 -4.83185e-18 0.303525 1.06364e-17 -4.58038e-16)
(1.09045e-15 5.62636e-30 -9.10521e-32 27.0584 -2.85152e-15 -2.6802e-16 0.296421 -1.94636e-17 3.01847e-18)
(4.3618e-15 -4.34273e-30 0 27.0584 3.78759e-17 -1.47049e-17 0.296421 1.32573e-17 -4.53785e-16)
(1.20485e-15 -4.28049e-30 1.33765e-31 26.0461 -2.00449e-15 -2.47636e-16 0.289478 -2.56755e-17 2.92397e-18)
(4.44793e-15 4.28049e-30 -1.33765e-31 26.0461 -1.47576e-16 -5.82466e-18 0.289478 1.72165e-17 -4.4946e-16)
(-1.13301e-15 3.05814e-30 -4.32695e-32 25.0722 -2.47474e-15 -2.18926e-16 0.282714 -3.08445e-17 2.64499e-18)
(0 4.21914e-30 -6.5924e-32 25.0722 -2.53297e-16 -1.43474e-17 0.282714 1.80699e-17 -4.45202e-16)
(-1.15354e-15 3.05901e-30 2.23668e-32 24.1368 -2.55517e-15 -1.81704e-16 0.276142 -2.83036e-17 2.34958e-18)
(0 4.15867e-30 -1.29958e-31 24.1368 -3.5675e-16 -1.82631e-17 0.276142 2.1216e-17 -4.41057e-16)
(1.15378e-15 -8.19813e-30 1.28096e-31 23.2398 -2.48952e-15 -1.428e-16 0.269769 -3.01946e-17 1.85432e-18)
(0 8.19813e-30 -1.28096e-31 23.2398 -1.2218e-16 -1.14308e-17 0.269769 2.70956e-17 -4.37027e-16)
(-1.19316e-15 -9.77403e-31 -1.045e-31 22.3804 -1.79846e-15 -1.01822e-16 0.2636 -1.25423e-17 1.4978e-18)
(-1.13725e-15 1.21209e-29 -6.31299e-32 22.3804 -1.48524e-16 -1.52831e-17 0.2636 3.11002e-17 -4.33079e-16)
(-2.24189e-15 2.38944e-29 -4.97801e-31 21.558 -1.00408e-15 -4.72027e-17 0.257639 -1.1731e-17 9.24878e-19)
(-3.72816e-15 -1.9912e-29 4.35575e-31 21.558 -3.67713e-16 -2.39035e-17 0.257639 3.15278e-17 -4.29335e-16)
(-1.23095e-15 -2.04893e-29 3.89118e-31 20.7714 -1.00232e-15 8.44015e-18 0.251886 -1.28661e-17 4.2299e-19)
(3.81893e-15 2.74773e-29 -4.90666e-31 20.7714 -1.07901e-15 -1.77902e-17 0.251886 3.3487e-17 -4.25734e-16)
(-1.08905e-15 1.93453e-29 -4.23179e-31 20.0196 -8.71584e-16 6.339e-17 0.246337 -8.79721e-18 1.16003e-18)
(1.08905e-15 -1.93453e-29 4.23179e-31 20.0196 -2.34709e-15 -2.11904e-18 0.246337 3.17609e-17 -4.22278e-16)
(-2.34047e-15 1.06901e-29 -1.57956e-31 19.3011 -7.65027e-16 1.22681e-16 0.240992 -1.05328e-17 1.9434e-18)
(6.14158e-15 -7.62723e-30 1.19175e-31 19.3011 -1.52711e-15 7.0488e-18 0.240992 3.1453e-17 -4.18889e-16)
(2.56894e-15 -9.88524e-30 1.93665e-31 18.6148 -6.96785e-16 1.77949e-16 0.235844 -7.294e-18 2.62015e-18)
(5.13789e-15 3.75895e-30 -1.17467e-31 18.6148 -3.75399e-16 -8.61458e-18 0.235844 3.45363e-17 -4.15663e-16)
(2.08577e-15 -9.52892e-30 5.78919e-32 17.9593 -4.70034e-28 2.25875e-16 0.23089 0 3.25502e-18)
(0 7.41016e-30 -5.78919e-32 17.9593 -1.6356e-15 -3.19258e-17 0.23089 3.02355e-17 -4.12693e-16)
(-1.31821e-15 -4.24055e-30 2.02677e-32 17.3332 6.63963e-17 2.76614e-16 0.226124 -3.43157e-18 4.04452e-18)
(0 1.09559e-29 -1.14124e-31 17.3332 -2.46549e-15 -2.4496e-17 0.226124 2.14892e-17 -4.09953e-16)
(-2.66907e-15 2.05236e-29 -2.97585e-31 16.7352 -3.05303e-16 2.89472e-16 0.22154 -6.48381e-18 3.69684e-18)
(5.33813e-15 -2.15978e-29 2.81221e-31 16.7352 -2.3804e-15 -2.16712e-17 0.22154 1.45823e-17 -4.07261e-16)
(-1.35052e-15 0 0 16.164 -1.53176e-30 1.81321e-32 0.217131 -3.15544e-30 0)
(0 0 -1.66314e-31 16.164 -2.59092e-15 -2.68882e-17 0.217131 5.80708e-18 -4.04861e-16)
(6.0257e-16 3.06172e-30 2.193e-32 15.6182 1.14562e-15 -1.15335e-15 0.212892 -1.21656e-17 1.66325e-17)
(3.49595e-15 3.49719e-30 -1.09287e-31 15.6182 -1.81386e-15 -2.13543e-17 0.212892 -2.35571e-18 -4.02567e-16)
(-5.26256e-15 1.34007e-29 -1.39444e-31 15.0966 1.13456e-15 -1.06216e-15 0.208815 -1.94319e-17 1.51146e-17)
(0 -3.44706e-30 5.38604e-32 15.0966 -2.46634e-15 -3.32928e-17 0.208815 -4.79167e-18 -4.00466e-16)
(-2.79309e-15 1.29134e-29 -2.73507e-31 14.598 8.11242e-16 -1.02185e-15 0.204894 -1.22109e-17 1.45537e-17)
(-5.58618e-15 -6.79532e-30 2.12354e-31 14.598 -2.83595e-15 -3.32178e-17 0.204894 -1.67396e-17 -3.9857e-16)
(-9.37271e-16 -1.06286e-29 3.07527e-31 14.1212 8.17095e-16 -9.43197e-16 0.201123 -1.07709e-17 1.44064e-17)
(9.40498e-15 1.00469e-29 -3.13965e-31 14.1212 -1.90418e-15 -7.41921e-18 0.201123 -1.70744e-17 -3.96822e-16)
(-4.27723e-15 3.22793e-29 -5.49465e-31 13.6652 9.22059e-16 -8.89721e-16 0.197496 -1.27381e-17 1.27021e-17)
(-7.56125e-15 -2.31067e-29 4.64198e-31 13.6652 -2.22917e-15 2.55478e-18 0.197496 -1.84706e-17 -3.95096e-16)
(-1.43993e-15 -1.3212e-29 3.2875e-31 13.2289 -2.97759e-16 -8.98347e-16 0.194006 -2.32535e-17 1.32571e-17)
(5.75973e-15 1.95219e-29 -4.06706e-31 13.2289 -7.67244e-16 1.00032e-17 0.194006 -2.62735e-17 -3.93554e-16)
(3.25925e-15 -6.2598e-30 1.2611e-31 12.8112 -2.73929e-15 -8.55558e-16 0.190648 -5.92586e-17 1.33313e-17)
(-1.80539e-15 3.20702e-30 -1.00219e-31 12.8112 8.55776e-16 2.7004e-18 0.190648 -1.28992e-17 -3.92057e-16)
(0 -2.21274e-29 3.95132e-31 12.4112 -3.41246e-15 -8.31694e-16 0.187415 -4.45906e-17 1.23512e-17)
(5.87015e-15 2.21274e-29 -3.95132e-31 12.4112 1.05622e-15 -1.97024e-18 0.187415 2.71179e-19 -3.9088e-16)
(1.75401e-15 -9.34724e-30 1.46051e-31 12.028 -2.31215e-15 -7.04938e-16 0.184303 -2.67407e-17 1.29896e-17)
(5.9239e-15 9.34724e-30 -1.46051e-31 12.028 2.13614e-15 2.78417e-18 0.184303 8.23694e-18 -3.89739e-16)
(-1.72887e-15 -1.28831e-29 -1.91943e-31 11.6607 0 -6.07612e-16 0.181306 -3.15544e-30 8.76701e-18)
(4.24784e-15 -3.07109e-30 4.79858e-32 11.6607 2.18342e-15 -2.89202e-17 0.181306 2.47655e-17 -3.88866e-16)
(0 2.11895e-29 -3.78384e-31 11.3086 -7.21842e-16 -6.54141e-16 0.178419 -2.78778e-17 1.02962e-17)
(0 -2.11895e-29 3.78384e-31 11.3086 9.61111e-17 -2.31469e-17 0.178419 3.48483e-17 -3.8832e-16)
(-3.03985e-15 9.10277e-30 -4.07214e-32 10.9708 -2.05378e-15 -6.39533e-16 0.175636 -3.84831e-17 1.05147e-17)
(0 -2.98369e-30 0 10.9708 -9.57388e-16 -7.77726e-18 0.175636 3.21935e-17 -3.87724e-16)
(0 -3.18778e-29 3.67616e-31 10.6467 -3.71445e-28 -5.58688e-16 0.172954 -3.15544e-30 1.01229e-17)
(6.12994e-15 1.47046e-29 -3.67616e-31 10.6467 -3.147e-16 -4.33724e-18 0.172954 2.98595e-17 -3.87335e-16)
(-3.26373e-15 8.69632e-30 -1.3588e-31 10.3355 3.95838e-16 -4.97792e-16 0.170368 -1.09019e-17 8.15637e-18)
(6.17938e-15 -2.89877e-30 9.05867e-32 10.3355 -7.97712e-17 4.5981e-18 0.170368 3.43522e-17 -3.86958e-16)
(-1.55701e-15 3.06051e-30 -1.70364e-32 10.0366 -5.90329e-16 -4.86829e-16 0.167874 -2.2257e-17 8.38177e-18)
(0 5.71445e-30 -8.92883e-32 10.0366 -5.25837e-16 1.50273e-18 0.167874 3.78566e-17 -3.86729e-16)
(1.569e-15 2.57608e-30 -1.16147e-31 9.74936 -2.20852e-15 -5.16795e-16 0.165467 -5.34839e-17 8.02314e-18)
(-1.58542e-15 -2.81628e-30 4.40043e-32 9.74936 4.72851e-16 -5.67063e-18 0.165467 3.45333e-17 -3.86645e-16)
(3.1254e-15 -8.32773e-30 8.67472e-32 9.47327 -3.37483e-15 -5.28489e-16 0.163144 -6.36627e-17 9.65936e-18)
(-3.1254e-15 8.32773e-30 -8.67472e-32 9.47327 1.39593e-15 -4.00352e-17 0.163144 5.10766e-17 -3.86744e-16)
(1.5403e-15 -8.20838e-30 1.71008e-31 9.20774 -3.53278e-15 -4.96531e-16 0.160901 -6.06499e-17 8.6668e-18)
(0 8.20838e-30 -1.71008e-31 9.20774 -1.08271e-16 -3.14955e-17 0.160901 6.43394e-17 -3.87263e-16)
(-1.68957e-15 3.43538e-30 1.82462e-32 8.95228 -2.34521e-15 -3.88558e-16 0.158735 -2.28157e-17 8.80939e-18)
(0 5.39382e-30 -8.42784e-32 8.95228 -1.67196e-15 -5.18075e-18 0.158735 7.08627e-17 -3.87618e-16)
(-4.60813e-15 9.3887e-44 -5.28506e-32 8.70638 6.81018e-28 -3.29326e-16 0.156642 -3.15544e-30 5.03733e-18)
(2.99293e-15 -7.97477e-30 4.15352e-32 8.70638 -1.85539e-15 1.7497e-17 0.156642 7.52609e-17 -3.88235e-16)
(1.62635e-15 -8.30522e-30 9.79162e-33 8.4696 1.95554e-16 -4.1978e-16 0.15462 -2.28995e-17 6.90614e-18)
(-9.45544e-15 5.24031e-30 0 8.4696 -9.3093e-16 -1.91454e-17 0.15462 6.80471e-17 -3.88586e-16)
(1.45388e-15 -1.2913e-29 1.21059e-31 8.24151 -1.66587e-15 -4.05284e-16 0.152664 -4.63405e-17 8.53345e-18)
(-6.54941e-15 1.2913e-29 -1.21059e-31 8.24151 3.3094e-16 -9.69873e-17 0.152664 6.62974e-17 -3.89759e-16)
(-1.64821e-15 -1.19296e-30 -2.45945e-31 8.02169 3.24715e-28 -3.12373e-16 0.150773 0 6.56402e-18)
(1.17526e-14 -2.54559e-30 1.59099e-31 8.02169 -2.25782e-16 -5.11431e-17 0.150773 7.57029e-17 -3.91266e-16)
(1.65892e-15 9.47921e-30 -2.28957e-31 7.80976 1.61924e-15 -2.93225e-16 0.148944 -1.61164e-17 5.24316e-18)
(6.63569e-15 -2.00728e-29 3.92047e-31 7.80976 -2.86212e-15 2.79731e-17 0.148944 7.85819e-17 -3.92349e-16)
(0 0 0 7.60536 1.51316e-15 -2.91485e-16 0.147173 -4.62459e-17 6.01604e-18)
(0 4.94628e-30 0 7.60536 -2.66916e-15 1.33077e-17 0.147173 5.21378e-17 -3.93298e-16)
(-1.67995e-15 -1.15625e-29 3.77227e-31 7.40815 5.17234e-16 -2.73271e-16 0.145459 -1.24279e-17 5.32853e-18)
(6.71982e-15 1.95016e-29 -3.8089e-31 7.40815 -1.61418e-15 -2.86693e-17 0.145459 5.35218e-17 -3.94794e-16)
(-1.69028e-15 -7.17094e-31 -7.72669e-32 7.21779 7.95682e-16 -2.58007e-16 0.1438 -7.97224e-18 5.46752e-18)
(-6.76111e-15 -9.61102e-30 7.50861e-32 7.21779 -2.96795e-15 -4.8158e-17 0.1438 4.36788e-17 -3.96471e-16)
(1.70048e-15 -1.25266e-29 7.49141e-32 7.03399 9.44226e-16 -3.12035e-16 0.142192 -5.05494e-17 4.86844e-18)
(6.80192e-15 9.47327e-30 -7.40099e-32 7.03399 -2.07487e-15 -3.938e-17 0.142192 2.1359e-17 -3.98485e-16)
(-1.71056e-15 2.17289e-29 -2.91797e-31 6.85644 -1.49885e-15 -3.22965e-16 0.140635 -4.94833e-17 4.11282e-19)
(6.84225e-15 -1.8675e-29 2.91797e-31 6.85644 -6.03586e-16 -3.31434e-17 0.140635 3.6637e-17 -4.00369e-16)
(-1.72053e-15 -4.02873e-44 -7.19036e-32 6.68489 2.89603e-28 -2.43582e-16 0.139126 3.15544e-30 -1.07197e-17)
(0 0 7.19036e-32 6.68489 -1.6151e-15 -9.46682e-17 0.139126 4.63004e-17 -4.0271e-16)
(-1.73039e-15 -1.47243e-30 0 6.51905 2.44598e-16 -1.69261e-16 0.137662 -1.12862e-17 -2.12393e-17)
(0 9.07175e-30 -7.08731e-32 6.51905 -2.07361e-15 -1.10891e-16 0.137662 4.9941e-17 -4.05956e-16)
(-4.25701e-15 7.00649e-46 1.39715e-31 6.3587 3.06579e-30 -2.06032e-16 0.136243 -3.15544e-30 -3.19814e-17)
(6.96054e-15 1.78835e-29 -1.39715e-31 6.3587 -1.32847e-15 -9.47199e-17 0.136243 5.37808e-17 -4.09191e-16)
(1.74978e-15 -1.18783e-29 6.8856e-32 6.20359 1.59155e-16 -3.30306e-16 0.134867 -1.52991e-17 -4.42779e-17)
(0 8.81357e-30 -6.8856e-32 6.20359 -9.44115e-16 -1.05439e-16 0.134867 5.19351e-17 -4.1282e-16)
(2.44524e-15 -3.06876e-30 1.35738e-31 6.0535 2.70679e-28 -2.37076e-16 0.133531 0 -5.60304e-17)
(-2.44524e-15 8.68725e-30 -1.35738e-31 6.0535 -1.82412e-15 -1.46169e-16 0.133531 5.08022e-17 -4.16776e-16)
(-4.17897e-15 -1.26689e-29 6.68964e-32 5.90823 1.28024e-15 -9.8637e-17 0.132235 -1.43976e-17 -6.65831e-17)
(2.4102e-15 4.28137e-30 -6.68964e-32 5.90823 -3.07195e-15 -1.277e-16 0.132235 3.74586e-17 -4.2149e-16)
(0 -2.95401e-29 4.61563e-31 5.76757 3.14594e-15 -1.15657e-16 0.130977 -8.54602e-17 -7.74136e-17)
(1.4225e-14 3.37601e-29 -5.27501e-31 5.76757 -2.66424e-15 -2.46901e-17 0.130977 2.62543e-17 -4.25732e-16)
(0 0 -1.29985e-31 5.63133 2.175e-15 -8.86664e-17 0.129755 -5.79156e-17 -8.98258e-17)
(7.14951e-15 8.31905e-30 0 5.63133 -2.84915e-15 3.09774e-17 0.129755 2.2241e-17 -4.29513e-16)
(-4.10459e-15 2.35559e-29 1.85119e-30 5.49933 1.77279e-15 -6.375e-17 0.128568 -4.26806e-17 -1.01599e-16)
(-7.18619e-15 -2.04995e-29 2.56244e-31 5.49933 -3.27643e-15 -7.61344e-18 0.128568 -4.69492e-18 -4.3317e-16)
(-1.80563e-15 1.51781e-29 -1.89429e-31 5.3714 1.66945e-15 -1.82367e-16 0.127414 -4.05811e-17 -1.13154e-16)
(-7.22251e-15 -8.08229e-30 1.89429e-31 5.3714 -2.32574e-15 -5.48733e-17 0.127414 -1.36469e-17 -4.37657e-16)
(0 7.96645e-30 -1.24476e-31 5.24739 1.88841e-15 -1.40723e-16 0.126294 -3.897e-17 -1.24208e-16)
(0 -3.98323e-30 6.22379e-32 5.24739 -2.07779e-15 -1.85052e-17 0.126294 -6.82883e-19 -4.42326e-16)
(0 1.17784e-29 -1.22692e-31 5.12712 2.53583e-15 -5.42722e-17 0.125205 -5.24336e-17 -1.36927e-16)
(5.08394e-15 -7.85227e-30 6.13459e-32 5.12712 -2.91975e-15 4.29174e-17 0.125205 -6.46388e-18 -4.46613e-16)
(-2.52471e-15 1.63087e-29 2.06991e-32 5.01047 3.30789e-15 -1.664e-30 0.124146 -7.21011e-17 -1.49153e-16)
(0 -1.54795e-29 3.02333e-31 5.01047 -3.33118e-15 1.01412e-17 0.124146 -2.93325e-17 -4.50554e-16)
(0 -3.43296e-29 5.96e-31 4.89728 2.8462e-15 -2.42872e-16 0.123116 -9.26724e-17 -1.63457e-16)
(1.4729e-14 3.43296e-29 -5.96e-31 4.89728 -2.5571e-15 -6.73533e-18 0.123116 -6.4354e-17 -4.55363e-16)
(2.11654e-15 -3.75973e-30 1.17492e-31 4.78742 1.49888e-15 -1.36971e-16 0.122114 -5.07323e-17 -1.77546e-16)
(1.47985e-14 3.75973e-30 -1.17492e-31 4.78742 -3.41812e-15 3.87435e-17 0.122114 -7.83935e-17 -4.5961e-16)
(-3.71684e-15 6.07632e-30 0 4.68077 1.35033e-15 -2.04611e-30 0.121139 -2.58688e-17 -1.90928e-16)
(0 0 0 4.68077 -4.01065e-15 -2.08795e-18 0.121139 -9.4343e-17 -4.63799e-16)
(-1.86696e-15 3.03305e-30 5.70739e-32 4.57721 1.83897e-15 -2.00452e-16 0.120191 -4.44418e-17 -2.04424e-16)
(1.49357e-14 3.65273e-30 -1.14148e-31 4.57721 -2.3406e-15 -2.71399e-17 0.120191 -1.05179e-16 -4.68864e-16)
(1.87543e-15 -1.02309e-29 1.68768e-31 4.47662 1.47325e-15 -2.12488e-16 0.119268 -5.25782e-17 -2.21118e-16)
(0 7.20075e-30 -1.68768e-31 4.47662 -2.36121e-15 -5.25001e-17 0.119268 -9.47244e-17 -4.73906e-16)
(-1.88383e-15 3.03264e-30 0 4.37888 3.10116e-16 -1.64922e-16 0.118369 -2.60382e-17 -2.38149e-16)
(0 3.54877e-30 -5.54496e-32 4.37888 -1.97047e-15 -1.02682e-16 0.118369 -1.08807e-16 -4.79784e-16)
(-3.86131e-15 1.00302e-29 -5.46548e-32 4.2839 -3.08393e-16 -1.63085e-16 0.117494 -7.50142e-18 -2.53625e-16)
(9.5378e-15 -6.99582e-30 5.46548e-32 4.2839 -2.88938e-16 -5.83729e-17 0.117494 -1.18316e-16 -4.86136e-16)
(-1.90043e-15 6.4792e-30 -1.61614e-31 4.19158 -4.3956e-16 -1.31415e-16 0.116642 -1.71219e-17 -2.68207e-16)
(5.66081e-15 0 1.07743e-31 4.19158 7.15971e-17 -1.33789e-17 0.116642 -1.04255e-16 -4.91947e-16)
(-3.81728e-15 0 1.06199e-31 4.10181 -1.2326e-32 -8.72267e-17 0.115811 0 -2.85646e-16)
(0 3.39836e-30 -1.06199e-31 4.10181 -3.01021e-16 -2.75355e-17 0.115811 -9.90329e-17 -4.97978e-16)
(-3.80248e-15 4.26866e-30 3.77444e-31 4.01451 7.67757e-16 -6.6062e-17 0.115003 -1.10358e-17 -3.02225e-16)
(0 0 5.23383e-32 4.01451 -1.57687e-15 -1.19123e-17 0.115003 -1.07822e-16 -5.04396e-16)
(0 -9.90493e-30 5.15882e-32 3.92959 1.10162e-15 -1.81914e-16 0.114214 -4.59443e-17 -3.19817e-16)
(-5.84086e-15 9.90493e-30 -5.15882e-32 3.92959 -1.26466e-15 -9.59276e-18 0.114214 -1.2216e-16 -5.10597e-16)
(1.93291e-15 -6.28361e-30 1.52546e-31 3.84697 4.37772e-16 -1.53412e-16 0.113446 -1.81147e-17 -3.36766e-16)
(7.73165e-15 3.25432e-30 -1.52546e-31 3.84697 -7.18982e-16 -2.07613e-17 0.113446 -1.13226e-16 -5.17323e-16)
(1.94089e-15 -1.26528e-29 5.012e-32 3.76656 2.1866e-16 -1.30429e-16 0.112697 -7.71783e-18 -3.53694e-16)
(-7.76355e-15 9.62304e-30 -5.012e-32 3.76656 -1.76488e-15 6.27561e-19 0.112697 -1.23659e-16 -5.24051e-16)
(-1.94881e-15 1.25145e-29 -9.88033e-32 3.68829 2.293e-16 -1.9165e-16 0.111967 -5.39398e-18 -3.70996e-16)
(7.79523e-15 -6.32341e-30 4.94017e-32 3.68829 -1.17157e-15 -1.29887e-17 0.111967 -1.30718e-16 -5.30762e-16)
(1.75437e-15 9.48365e-32 -1.46081e-31 3.61209 5.56426e-16 -8.10109e-17 0.111255 -8.59679e-18 -3.90975e-16)
(-1.75437e-15 0 9.73872e-32 3.61209 -7.95635e-16 -3.76318e-17 0.111255 -1.17591e-16 -5.38051e-16)
(-1.72923e-15 9.21517e-30 5.65136e-32 3.53788 2.43684e-15 -1.2326e-32 0.11056 -4.68552e-17 -4.07223e-16)
(7.85797e-15 0 9.59914e-32 3.53788 -1.07356e-15 -1.90515e-17 0.11056 -1.20211e-16 -5.45479e-16)
(1.97226e-15 -1.5119e-29 1.89231e-31 3.4656 2.96133e-15 -2.89362e-16 0.109883 -1.06361e-16 -4.28905e-16)
(0 1.21108e-29 -1.89231e-31 3.4656 -1.43942e-15 -1.65763e-19 0.109883 -1.21558e-16 -5.52591e-16)
(0 8.95291e-30 -9.32595e-32 3.39519 2.53401e-15 -1.178e-16 0.109222 -8.18333e-17 -4.49373e-16)
(-7.9199e-15 -5.96861e-30 4.66298e-32 3.39519 -1.59074e-15 -9.25757e-17 0.109222 -1.32212e-16 -5.59856e-16)
(-3.31187e-15 2.94153e-30 6.47117e-32 3.32658 2.80265e-15 -3.95047e-30 0.108577 -8.16988e-17 -4.66297e-16)
(0 5.88306e-30 -9.19229e-32 3.32658 -1.54465e-15 -1.07381e-16 0.108577 -1.38234e-16 -5.69218e-16)
(-3.2644e-15 8.69812e-30 2.03439e-31 3.25971 1.9191e-15 -2.38784e-16 0.107947 -1.01947e-16 -4.85281e-16)
(0 -2.89937e-30 4.53027e-32 3.25971 -1.98963e-15 -3.52651e-17 0.107947 -1.45773e-16 -5.7756e-16)
(2.00284e-15 1.12759e-29 -2.6792e-31 3.19453 3.10907e-16 -3.23962e-16 0.107333 -2.49748e-17 -5.06493e-16)
(0 -1.42891e-29 2.6792e-31 3.19453 -2.90105e-15 -7.9131e-17 0.107333 -1.52785e-16 -5.86396e-16)
(2.01037e-15 2.45227e-45 -1.3204e-31 3.13098 -6.03601e-30 -1.75737e-16 0.106733 -3.15544e-30 -5.26895e-16)
(0 0 4.40134e-32 3.13098 -4.01689e-15 -7.73966e-17 0.106733 -1.88049e-16 -5.95957e-16)
(-4.03572e-15 4.80795e-31 0 3.06901 2.10654e-17 -9.10609e-17 0.106147 -3.65304e-19 -5.45382e-16)
(8.07143e-15 5.55297e-30 0 3.06901 -4.65123e-15 -2.1254e-17 0.106147 -2.22238e-16 -6.05094e-16)
(-2.0253e-15 8.48265e-30 8.55215e-32 3.00857 1.51828e-15 -8.98417e-17 0.105575 -2.76956e-17 -5.63483e-16)
(0 0 -1.28282e-31 3.00857 -5.87248e-15 -2.40242e-18 0.105575 -2.51234e-16 -6.1416e-16)
(0 5.39493e-30 6.23421e-32 2.94961 2.36877e-15 -1.96645e-16 0.105016 -7.95264e-17 -5.84044e-16)
(-3.03708e-15 -5.39493e-30 0 2.94961 -5.18605e-15 -1.59004e-17 0.105016 -3.20502e-16 -6.23356e-16)
(0 2.6588e-30 -8.30876e-32 2.89209 2.83699e-15 -5.48256e-17 0.104471 -8.96714e-17 -6.06936e-16)
(0 0 0 2.89209 -4.42608e-15 -1.16735e-16 0.104471 -3.50594e-16 -6.32801e-16)
(-2.95064e-15 1.04828e-29 8.70616e-31 2.83595 3.90042e-15 0 0.103937 -1.16019e-16 -6.2475e-16)
(0 -2.6207e-30 1.22845e-31 2.83595 -5.4722e-15 -1.15595e-16 0.103937 -4.02744e-16 -6.44506e-16)
(0 7.74941e-30 -1.21084e-31 2.78117 4.08521e-15 -5.9155e-17 0.103416 -1.71017e-16 -6.43152e-16)
(1.64374e-14 -2.58314e-30 8.0723e-32 2.78117 -5.20532e-15 5.39456e-18 0.103416 -4.64551e-16 -6.54829e-16)
(-4.12385e-15 8.63651e-31 3.9783e-32 2.72769 2.47148e-15 -1.40427e-16 0.102907 -1.33296e-16 -6.65145e-16)
(8.24769e-15 5.09222e-30 -3.9783e-32 2.72769 -5.51729e-15 5.73986e-17 0.102907 -4.64891e-16 -6.64438e-16)
(2.06913e-15 -2.9903e-30 7.84256e-32 2.67547 1.8193e-15 -2.53028e-16 0.10241 -5.30727e-17 -6.90088e-16)
(0 0 -7.84256e-32 2.67547 -6.39037e-15 3.40123e-17 0.10241 -5.03398e-16 -6.73756e-16)
(0 0 -7.73016e-32 2.62449 3.67091e-15 5.75273e-17 0.101923 -8.6787e-17 -7.05405e-16)
(-1.10903e-14 0 0 2.62449 -6.05326e-15 -6.04947e-17 0.101923 -5.45721e-16 -6.8402e-16)
(-2.08345e-15 -1.65416e-29 5.8526e-61 2.57469 4.07217e-15 -9.72346e-63 0.101448 -1.99838e-16 -7.17402e-16)
(8.33378e-15 1.95056e-29 -2.66678e-31 2.57469 -4.31865e-15 6.16003e-17 0.101448 -5.77209e-16 -6.96197e-16)
(0 9.61301e-30 -7.51016e-32 2.52606 2.45032e-15 -2.87943e-16 0.100983 -1.21255e-16 -7.34915e-16)
(0 -4.8065e-30 0 2.52606 -3.07305e-15 4.39907e-17 0.100983 -5.95794e-16 -7.04149e-16)
(2.66704e-15 0 3.70126e-32 2.47854 2.67591e-15 -1.36779e-16 0.100529 -7.47749e-17 -7.52962e-16)
(0 0 -3.70126e-32 2.47854 -4.20884e-15 -8.82438e-17 0.100529 -6.10561e-16 -7.16585e-16)
(-2.10466e-15 2.96289e-30 -7.29642e-32 2.43212 2.1098e-15 -1.03045e-29 0.100084 -1.43282e-16 -7.67106e-16)
(0 0 7.29642e-32 2.43212 -4.04414e-15 -5.35901e-17 0.100084 -6.50693e-16 -7.28055e-16)
(-1.63219e-15 -2.19683e-29 3.59592e-31 2.38675 1.43056e-15 -2.66964e-16 0.0996491 -2.99292e-17 -7.87415e-16)
(1.68933e-14 2.76167e-29 -3.23633e-31 2.38675 -3.19658e-15 -7.50514e-18 0.0996491 -6.53392e-16 -7.40825e-16)
(0 5.88685e-30 -2.12663e-31 2.34241 4.43465e-15 1.243e-16 0.0992238 -9.41281e-17 -8.02363e-16)
(-2.554e-15 -4.53681e-30 1.41775e-31 2.34241 -5.36324e-15 1.06399e-18 0.0992238 -6.6824e-16 -7.52121e-16)
(-2.51739e-15 1.34154e-29 7.56501e-31 2.29907 6.85801e-15 9.34127e-17 0.0988077 -3.04594e-16 -8.14362e-16)
(-2.51739e-15 -4.47179e-30 3.49358e-32 2.29907 -6.16637e-15 -3.94035e-17 0.0988077 -7.48286e-16 -7.65102e-16)
(-6.39747e-15 -1.32827e-29 2.97776e-45 2.25669 4.6358e-15 -5.2262e-30 0.0984005 -2.86e-16 -8.28636e-16)
(1.70599e-14 2.64462e-29 -3.44351e-31 2.25669 -2.5643e-15 9.94341e-17 0.0984005 -8.12193e-16 -7.78113e-16)
(0 -2.60671e-29 3.73357e-31 2.21526 1.17661e-15 -3.05468e-16 0.0980022 -1.17907e-16 -8.50403e-16)
(1.7115e-14 2.60671e-29 -3.73357e-31 2.21526 -8.26599e-16 1.36972e-16 0.0980022 -8.15875e-16 -7.88022e-16)
(-2.14623e-15 1.15149e-29 4.41763e-31 2.17475 -5.46422e-16 -1.06569e-16 0.0976123 -3.47514e-17 -8.66286e-16)
(0 -4.28225e-30 1.67276e-31 2.17475 -1.31666e-15 1.16706e-17 0.0976123 -8.45741e-16 -7.99118e-16)
(2.15305e-15 -7.34572e-30 3.29756e-31 2.13512 4.93038e-32 -2.35408e-16 0.0972307 0 -8.85649e-16)
(1.72244e-14 2.53253e-29 -3.29756e-31 2.13512 8.71114e-16 -6.43456e-18 0.0972307 -8.54624e-16 -8.11751e-16)