/*--------------------------------*- C++ -*----------------------------------*\
| =========                 |                                                 |
| \\      /  F ield         | OpenFOAM: The Open Source CFD Toolbox           |
|  \\    /   O peration     | Version:  2106                                  |
|   \\  /    A nd           | Website:  www.openfoam.com                      |
|    \\/     M anipulation  |                                                 |
\*---------------------------------------------------------------------------*/
FoamFile
{
    version     2.0;
    format      ascii;
    arch        "LSB;label=32;scalar=64";
    class       surfaceScalarField;
    location    "16000";
    object      phi;
}
// * * * * * * * * * * * * * * * * * * * * * * * * * * * * * * * * * * * * * //

dimensions      [0 3 -1 0 0 0 0];

oriented        oriented;

internalField   nonuniform List<scalar> 
5116
(
2.6942e-08
-5.50866e-18
3.14825e-23
-2.76821e-22
1.13153e-22
8.23906e-08
-5.50919e-18
3.19606e-22
-2.87991e-22
2.31659e-22
1.4025e-07
-5.50972e-18
3.35403e-22
-3.30638e-22
2.41905e-22
2.00601e-07
-5.51031e-18
3.45573e-22
-3.48465e-22
2.52605e-22
2.6353e-07
-5.51091e-18
3.5751e-22
-4.10231e-22
2.63776e-22
3.29121e-07
-5.51153e-18
3.70383e-22
-5.0493e-22
2.75441e-22
3.97466e-07
-5.51211e-18
3.8375e-22
-5.51261e-22
2.8762e-22
4.68654e-07
-5.51281e-18
3.97581e-22
-6.04069e-22
3.00332e-22
5.42782e-07
-5.51361e-18
4.12021e-22
-6.29325e-22
3.13598e-22
6.19944e-07
-5.5141e-18
4.27093e-22
-8.38851e-22
3.27435e-22
7.00238e-07
-5.51489e-18
4.42775e-22
-8.49736e-22
3.41861e-22
7.83763e-07
-5.51566e-18
4.59049e-22
-9.11538e-22
3.56889e-22
8.70619e-07
-5.51651e-18
4.75899e-22
-8.93247e-22
3.72527e-22
9.60904e-07
-5.51734e-18
4.93308e-22
-6.83406e-22
3.88778e-22
1.05471e-06
-5.51828e-18
5.11256e-22
-6.03378e-22
4.05636e-22
1.15214e-06
-5.51922e-18
5.29716e-22
-6.33071e-22
4.23091e-22
1.25328e-06
-5.52006e-18
5.48644e-22
-1.01948e-21
4.41121e-22
1.3582e-06
-5.52076e-18
5.6797e-22
-1.18879e-21
4.59691e-22
1.46697e-06
-5.52203e-18
5.87618e-22
-1.36215e-21
4.78739e-22
1.57966e-06
-5.523e-18
6.07493e-22
-1.56398e-21
4.98201e-22
1.6963e-06
-5.52377e-18
6.27472e-22
-2.04144e-21
5.17976e-22
1.81692e-06
-5.52442e-18
6.47417e-22
-2.33298e-21
5.37955e-22
1.94151e-06
-5.52529e-18
6.67161e-22
-2.50988e-21
5.57999e-22
2.07006e-06
-5.52559e-18
6.86534e-22
-3.21917e-21
5.77968e-22
2.2025e-06
-5.52715e-18
7.05323e-22
-3.30848e-21
5.97724e-22
2.33877e-06
-5.52795e-18
7.23372e-22
-3.40326e-21
6.17072e-22
2.47877e-06
-5.52934e-18
7.40477e-22
-3.19685e-21
6.35852e-22
2.62238e-06
-5.53041e-18
7.56468e-22
-3.39459e-21
6.53894e-22
2.76945e-06
-5.53089e-18
7.71185e-22
-3.72378e-21
6.71073e-22
2.91981e-06
-5.53166e-18
7.84491e-22
-4.67722e-21
6.87268e-22
3.0733e-06
-5.53262e-18
7.96293e-22
-5.05192e-21
7.02397e-22
3.22974e-06
-5.53378e-18
8.06544e-22
-5.82511e-21
7.16373e-22
3.38895e-06
-5.53475e-18
8.15227e-22
-6.93591e-21
7.29161e-22
3.55076e-06
-5.53544e-18
8.22357e-22
-7.6942e-21
7.40774e-22
3.71498e-06
-5.53604e-18
8.27974e-22
-8.68519e-21
7.51245e-22
3.88149e-06
-5.5367e-18
8.32136e-22
-1.01178e-20
7.60616e-22
4.05012e-06
-5.53818e-18
8.34933e-22
-1.07969e-20
7.68978e-22
4.22078e-06
-5.5383e-18
8.36507e-22
-1.14954e-20
7.76437e-22
4.39334e-06
-5.53861e-18
8.36934e-22
-1.26972e-20
7.83111e-22
4.56774e-06
-5.53896e-18
8.3636e-22
-1.41007e-20
7.89104e-22
4.74391e-06
-5.53924e-18
8.34903e-22
-1.48332e-20
7.94539e-22
4.92179e-06
-5.53944e-18
8.3268e-22
-1.63109e-20
7.99512e-22
5.10138e-06
-5.53999e-18
8.2977e-22
-1.78048e-20
8.04155e-22
5.28264e-06
-5.5396e-18
8.26283e-22
-2.01339e-20
8.08549e-22
5.46558e-06
-5.54261e-18
8.22291e-22
-1.92243e-20
8.12775e-22
5.65022e-06
-5.54466e-18
8.17982e-22
-1.97689e-20
8.16821e-22
5.83658e-06
-5.54552e-18
8.13424e-22
-1.98523e-20
8.20798e-22
6.02468e-06
-5.54789e-18
8.08655e-22
-1.99038e-20
8.24742e-22
6.21457e-06
-5.54883e-18
8.03736e-22
-1.99522e-20
8.2873e-22
6.4063e-06
-5.55167e-18
7.98705e-22
-2.05902e-20
8.32813e-22
6.59992e-06
-5.55295e-18
7.93601e-22
-2.0299e-20
8.37052e-22
6.79548e-06
-5.5529e-18
7.8845e-22
-2.05119e-20
8.41404e-22
6.99305e-06
-5.55432e-18
7.83237e-22
-2.11092e-20
8.45915e-22
7.19269e-06
-5.5551e-18
7.7802e-22
-2.33785e-20
8.50671e-22
7.39447e-06
-5.55478e-18
7.728e-22
-2.49219e-20
8.55696e-22
7.59846e-06
-5.55591e-18
7.67501e-22
-2.51117e-20
8.60999e-22
7.80472e-06
-5.55665e-18
7.62225e-22
-2.55741e-20
8.66521e-22
8.01334e-06
-5.55545e-18
7.56947e-22
-2.86202e-20
8.72137e-22
8.22438e-06
-5.55647e-18
7.51587e-22
-2.98485e-20
8.78041e-22
8.43792e-06
-5.55629e-18
7.46297e-22
-3.24681e-20
8.84179e-22
8.65403e-06
-5.55539e-18
7.40993e-22
-3.41553e-20
8.90587e-22
8.8728e-06
-5.55385e-18
7.356e-22
-3.57981e-20
8.9722e-22
9.09429e-06
-5.5536e-18
7.30163e-22
-3.80187e-20
9.03917e-22
9.31859e-06
-5.55337e-18
7.24701e-22
-4.05341e-20
9.10994e-22
9.54576e-06
-5.55206e-18
7.19133e-22
-4.18489e-20
9.18498e-22
9.7759e-06
-5.55069e-18
7.13181e-22
-4.37409e-20
9.26264e-22
1.00091e-05
-5.55513e-18
7.06753e-22
-4.1668e-20
9.34631e-22
1.02454e-05
-5.55757e-18
7.00135e-22
-4.16354e-20
9.43283e-22
1.04848e-05
-5.5612e-18
6.93274e-22
-3.97365e-20
9.5257e-22
1.07276e-05
-5.56037e-18
6.86341e-22
-3.62411e-20
9.62311e-22
1.09737e-05
-5.56076e-18
6.78991e-22
-3.72083e-20
9.72272e-22
1.12232e-05
-5.56398e-18
6.7133e-22
-3.74953e-20
9.82712e-22
1.14763e-05
-5.56523e-18
6.63541e-22
-3.83284e-20
9.93464e-22
1.1733e-05
-5.56372e-18
6.55574e-22
-3.82816e-20
1.00467e-21
1.19933e-05
-5.56418e-18
6.47328e-22
-3.90888e-20
1.0163e-21
1.22574e-05
-5.56663e-18
6.38827e-22
-3.91666e-20
1.02852e-21
1.25253e-05
-5.57123e-18
6.30186e-22
-3.57084e-20
1.04107e-21
1.27971e-05
-5.57426e-18
6.2155e-22
-3.72295e-20
1.05375e-21
1.3073e-05
-5.57878e-18
6.12996e-22
-3.78311e-20
1.06706e-21
1.33529e-05
-5.5765e-18
6.04391e-22
-4.30542e-20
1.08103e-21
1.3637e-05
-5.57599e-18
5.95575e-22
-4.2241e-20
1.09558e-21
1.39254e-05
-5.57972e-18
5.86764e-22
-3.98332e-20
1.11009e-21
1.42181e-05
-5.58113e-18
5.78246e-22
-4.11379e-20
1.12453e-21
1.45153e-05
-5.57749e-18
5.69797e-22
-4.65128e-20
1.13947e-21
1.4817e-05
-5.57633e-18
5.60719e-22
-4.86486e-20
1.15547e-21
1.51233e-05
-5.57586e-18
5.5128e-22
-5.10155e-20
1.17203e-21
1.54343e-05
-5.57433e-18
5.41503e-22
-5.3465e-20
1.18895e-21
1.57501e-05
-5.57001e-18
5.314e-22
-5.74566e-20
1.20594e-21
1.60707e-05
-5.57619e-18
5.20558e-22
-5.898e-20
1.22338e-21
1.63964e-05
-5.5751e-18
5.09401e-22
-5.88841e-20
1.24151e-21
1.67271e-05
-5.57588e-18
4.9719e-22
-6.28265e-20
1.26012e-21
1.7063e-05
-5.57475e-18
4.84474e-22
-6.42719e-20
1.27899e-21
1.74041e-05
-5.57362e-18
4.70979e-22
-6.682e-20
1.2978e-21
1.77506e-05
-5.57673e-18
4.56363e-22
-6.62192e-20
1.31677e-21
1.81026e-05
-5.57082e-18
4.41784e-22
-7.10774e-20
1.33444e-21
1.84601e-05
-5.56609e-18
4.25982e-22
-7.59093e-20
1.35198e-21
1.88233e-05
-5.56489e-18
4.09459e-22
-8.19675e-20
1.36994e-21
1.91923e-05
-5.55992e-18
3.92498e-22
-8.50672e-20
1.38862e-21
1.95671e-05
-5.55947e-18
3.74357e-22
-8.76109e-20
1.40759e-21
1.99479e-05
-5.55534e-18
3.56092e-22
-9.09381e-20
1.42681e-21
2.03347e-05
-5.55264e-18
3.36438e-22
-9.81975e-20
1.44628e-21
2.07278e-05
-5.54614e-18
3.16084e-22
-1.00068e-19
1.46702e-21
2.11271e-05
-5.54125e-18
2.93375e-22
-1.05473e-19
1.48733e-21
2.15329e-05
-5.54122e-18
2.6897e-22
-1.12285e-19
1.50823e-21
2.19451e-05
-5.53724e-18
2.44347e-22
-1.16926e-19
1.52958e-21
2.2364e-05
-5.53338e-18
2.18334e-22
-1.22636e-19
1.552e-21
2.27897e-05
-5.53305e-18
1.91083e-22
-1.25466e-19
1.5754e-21
2.32222e-05
-5.53183e-18
1.63569e-22
-1.2696e-19
1.59828e-21
2.36617e-05
-5.53253e-18
1.35538e-22
-1.29335e-19
1.62086e-21
2.41083e-05
-5.53304e-18
1.06837e-22
-1.29204e-19
1.64423e-21
2.45622e-05
-5.53433e-18
7.73668e-23
-1.2881e-19
1.66771e-21
2.50234e-05
-5.53069e-18
4.6666e-23
-1.32998e-19
1.69208e-21
2.54921e-05
-5.52887e-18
1.42246e-23
-1.34367e-19
1.71726e-21
2.59684e-05
-5.52866e-18
-2.03755e-23
-1.35619e-19
1.74303e-21
2.64524e-05
-5.52825e-18
-5.67572e-23
-1.4011e-19
1.76921e-21
2.69443e-05
-5.52672e-18
-9.42619e-23
-1.41484e-19
1.79671e-21
2.74442e-05
-5.52762e-18
-1.3312e-22
-1.42519e-19
1.82419e-21
2.79523e-05
-5.52038e-18
-1.72427e-22
-1.45137e-19
1.85142e-21
2.84686e-05
-5.5146e-18
-2.13562e-22
-1.50928e-19
1.87785e-21
2.89934e-05
-5.51244e-18
-2.55601e-22
-1.48712e-19
1.90531e-21
2.95267e-05
-5.50264e-18
-2.97692e-22
-1.54608e-19
1.93079e-21
3.00688e-05
-5.49937e-18
-3.40936e-22
-1.59654e-19
1.95688e-21
3.06197e-05
-5.5005e-18
-3.85409e-22
-1.63394e-19
1.98401e-21
3.11796e-05
-5.50178e-18
-4.28729e-22
-1.72677e-19
2.00707e-21
3.17486e-05
-5.49919e-18
-4.69964e-22
-1.83273e-19
2.02981e-21
3.2327e-05
-5.49585e-18
-5.10388e-22
-1.96691e-19
2.05349e-21
3.29148e-05
-5.48956e-18
-5.48626e-22
-2.10425e-19
2.07758e-21
3.35123e-05
-5.48617e-18
-5.85816e-22
-2.15028e-19
2.09925e-21
3.41196e-05
-5.47416e-18
-6.20492e-22
-2.29333e-19
2.11766e-21
3.47368e-05
-5.46684e-18
-6.59951e-22
-2.41989e-19
2.13538e-21
3.53641e-05
-5.45595e-18
-7.01695e-22
-2.56881e-19
2.15263e-21
3.60017e-05
-5.45888e-18
-7.50894e-22
-2.7251e-19
2.17242e-21
3.66498e-05
-5.44802e-18
-7.97932e-22
-2.80169e-19
2.19194e-21
3.73086e-05
-5.43091e-18
-8.49743e-22
-3.02336e-19
2.21306e-21
3.79781e-05
-5.43227e-18
-9.05651e-22
-3.02021e-19
2.23681e-21
3.86586e-05
-5.42509e-18
-9.59306e-22
-3.1544e-19
2.25789e-21
3.93503e-05
-5.41325e-18
-1.01282e-21
-3.22832e-19
2.27843e-21
4.00534e-05
-5.41754e-18
-1.06797e-21
-3.35433e-19
2.30082e-21
4.0768e-05
-5.40337e-18
-1.11607e-21
-3.46937e-19
2.32532e-21
4.14943e-05
-5.3847e-18
-1.15935e-21
-3.6071e-19
2.34808e-21
4.22326e-05
-5.367e-18
-1.20969e-21
-3.73818e-19
2.37354e-21
4.2983e-05
-5.36952e-18
-1.2611e-21
-3.75043e-19
2.40403e-21
4.37458e-05
-5.36632e-18
-1.31267e-21
-3.76363e-19
2.43048e-21
4.45211e-05
-5.37348e-18
-1.36974e-21
-3.75741e-19
2.45825e-21
4.53091e-05
-5.36719e-18
-1.42704e-21
-3.72639e-19
2.49518e-21
4.61101e-05
-5.35853e-18
-1.48614e-21
-3.76699e-19
2.53171e-21
4.69243e-05
-5.35036e-18
-1.55225e-21
-3.81137e-19
2.56294e-21
4.77518e-05
-5.34014e-18
-1.62053e-21
-3.8554e-19
2.59246e-21
4.8593e-05
-5.33447e-18
-1.69407e-21
-3.90397e-19
2.61864e-21
4.9448e-05
-5.32918e-18
-1.7709e-21
-4.01247e-19
2.64508e-21
5.0317e-05
-5.31475e-18
-1.84709e-21
-4.06307e-19
2.67714e-21
5.12004e-05
-5.31563e-18
-1.9271e-21
-4.09365e-19
2.71325e-21
5.20982e-05
-5.30199e-18
-1.99906e-21
-4.18148e-19
2.74205e-21
5.30109e-05
-5.28027e-18
-2.07648e-21
-4.29524e-19
2.76823e-21
5.39385e-05
-5.26259e-18
-2.16091e-21
-4.38647e-19
2.80239e-21
5.48814e-05
-5.25323e-18
-2.24863e-21
-4.4771e-19
2.83944e-21
5.58398e-05
-5.23595e-18
-2.33394e-21
-4.6269e-19
2.87678e-21
5.68139e-05
-5.22148e-18
-2.41256e-21
-4.70702e-19
2.92097e-21
5.78041e-05
-5.19369e-18
-2.48734e-21
-4.90001e-19
2.95763e-21
5.88106e-05
-5.15818e-18
-2.571e-21
-5.08533e-19
2.98798e-21
5.98336e-05
-5.13577e-18
-2.66565e-21
-5.18865e-19
3.0186e-21
6.08734e-05
-5.12324e-18
-2.76655e-21
-5.30531e-19
3.04739e-21
6.19303e-05
-5.11547e-18
-2.87997e-21
-5.50286e-19
3.08241e-21
6.30046e-05
-5.10565e-18
-2.98029e-21
-5.71404e-19
3.09374e-21
6.40965e-05
-5.10181e-18
-3.08984e-21
-6.02032e-19
3.09249e-21
6.52064e-05
-5.07762e-18
-3.1764e-21
-6.31988e-19
3.07381e-21
6.63345e-05
-5.06363e-18
-3.26001e-21
-6.56547e-19
3.05417e-21
6.74812e-05
-5.04883e-18
-3.35326e-21
-6.94116e-19
3.03789e-21
6.86467e-05
-5.0158e-18
-3.45866e-21
-7.21198e-19
3.03567e-21
6.98313e-05
-4.99562e-18
-3.58804e-21
-7.55649e-19
3.0386e-21
7.10354e-05
-4.9945e-18
-3.71312e-21
-7.82681e-19
3.04441e-21
7.22593e-05
-4.96628e-18
-3.82282e-21
-8.03366e-19
3.05215e-21
7.35033e-05
-4.94382e-18
-3.96498e-21
-8.18361e-19
3.05745e-21
7.47677e-05
-4.9242e-18
-4.0977e-21
-8.58679e-19
3.03871e-21
7.60528e-05
-4.89388e-18
-4.20498e-21
-8.91569e-19
3.0114e-21
7.73591e-05
-4.8622e-18
-4.3186e-21
-9.2934e-19
2.99099e-21
7.86868e-05
-4.82755e-18
-4.42123e-21
-9.66491e-19
2.95464e-21
8.00362e-05
-4.80059e-18
-4.5197e-21
-1.00207e-18
2.87105e-21
8.14078e-05
-4.76717e-18
-4.63901e-21
-1.03481e-18
2.80384e-21
8.28019e-05
-4.75864e-18
-4.78732e-21
-1.04487e-18
2.78857e-21
8.42189e-05
-4.74453e-18
-4.94935e-21
-1.05619e-18
2.75235e-21
8.56591e-05
-4.73664e-18
-5.09313e-21
-1.07969e-18
2.70007e-21
8.7123e-05
-4.72109e-18
-5.24361e-21
-1.084e-18
2.68061e-21
8.86108e-05
-4.71862e-18
-5.42669e-21
-1.08547e-18
2.68621e-21
9.0123e-05
-4.70964e-18
-5.58403e-21
-1.0956e-18
2.68526e-21
9.166e-05
-4.69185e-18
-5.75208e-21
-1.11412e-18
2.68016e-21
9.32221e-05
-4.66333e-18
-5.95954e-21
-1.14032e-18
2.67848e-21
9.48099e-05
-4.65247e-18
-6.20862e-21
-1.15926e-18
2.6688e-21
9.64236e-05
-4.62821e-18
-6.42167e-21
-1.18582e-18
2.62548e-21
9.80638e-05
-4.60946e-18
-6.67111e-21
-1.2129e-18
2.57542e-21
9.97308e-05
-4.5795e-18
-6.93963e-21
-1.22264e-18
2.54346e-21
0.000101425
-4.5755e-18
-7.23053e-21
-1.23511e-18
2.50967e-21
0.000103147
-4.53674e-18
-7.47795e-21
-1.25463e-18
2.43432e-21
0.000104897
-4.50819e-18
-7.73012e-21
-1.27219e-18
2.3412e-21
0.000106676
-4.48248e-18
-7.97658e-21
-1.28781e-18
2.25083e-21
0.000108484
-4.45704e-18
-8.20873e-21
-1.31207e-18
2.12603e-21
0.000110322
-4.41743e-18
-8.46889e-21
-1.33676e-18
2.01285e-21
0.000112189
-4.39705e-18
-8.72422e-21
-1.36116e-18
1.90949e-21
0.000114087
-4.36763e-18
-8.96902e-21
-1.39538e-18
1.78977e-21
0.000116016
-4.33264e-18
-9.20738e-21
-1.41141e-18
1.70943e-21
0.000117977
-4.26723e-18
-9.42948e-21
-1.44179e-18
1.62517e-21
0.000119969
-4.23054e-18
-9.71834e-21
-1.45293e-18
1.54095e-21
0.000121994
-4.2089e-18
-9.95832e-21
-1.47379e-18
1.39181e-21
0.000124052
-4.19102e-18
-1.01944e-20
-1.49993e-18
1.24769e-21
0.000126144
-4.15274e-18
-1.0362e-20
-1.52459e-18
1.1461e-21
0.00012827
-4.13931e-18
-1.05071e-20
-1.56402e-18
1.0149e-21
0.00013043
-4.09828e-18
-1.05412e-20
-1.58396e-18
9.2932e-22
0.000132626
-4.06278e-18
-1.06157e-20
-1.60637e-18
7.76403e-22
0.000134857
-4.02846e-18
-1.06879e-20
-1.64418e-18
7.3324e-22
0.000137125
-4.02363e-18
-1.07777e-20
-1.64889e-18
6.96035e-22
0.000139429
-3.99319e-18
-1.08093e-20
-1.66353e-18
6.16706e-22
0.000141772
-3.99505e-18
-1.08177e-20
-1.66741e-18
3.69979e-22
0.000144152
-3.93449e-18
-1.08304e-20
-1.68499e-18
1.03023e-22
0.000146571
-3.91679e-18
-1.09846e-20
-1.7212e-18
-9.35335e-23
0.000149029
-3.87898e-18
-1.10417e-20
-1.7476e-18
-2.03665e-22
0.000151527
-3.82212e-18
-1.08914e-20
-1.76784e-18
-2.99506e-22
0.000154066
-3.78835e-18
-1.0814e-20
-1.79456e-18
-2.66228e-22
0.000156646
-3.7585e-18
-1.07317e-20
-1.81398e-18
-4.38968e-22
0.000159268
-3.73841e-18
-1.08016e-20
-1.85915e-18
-6.06278e-22
0.000161933
-3.70248e-18
-1.09236e-20
-1.85453e-18
-4.40223e-22
0.000164641
-3.65647e-18
-1.09759e-20
-1.87066e-18
-4.93031e-22
0.000167392
-3.61167e-18
-1.10869e-20
-1.88663e-18
-7.04802e-22
0.000170189
-3.59213e-18
-1.12483e-20
-1.91494e-18
-8.85601e-22
0.00017303
-3.5459e-18
-1.14235e-20
-1.93191e-18
-9.77304e-22
0.000175918
-3.50687e-18
-1.17627e-20
-1.92518e-18
-1.19116e-21
0.000178852
-3.42948e-18
-1.19994e-20
-1.95246e-18
-1.74997e-21
0.000181834
-3.40531e-18
-1.2433e-20
-1.97786e-18
-2.05834e-21
0.000184864
-3.39512e-18
-1.29439e-20
-1.99267e-18
-2.28603e-21
0.000187944
-3.34376e-18
-1.33012e-20
-2.00119e-18
-2.67086e-21
0.000191072
-3.30589e-18
-1.37141e-20
-2.02257e-18
-3.0117e-21
0.000194252
-3.29953e-18
-1.39146e-20
-2.00677e-18
-3.27226e-21
0.000197482
-3.25538e-18
-1.39922e-20
-2.05186e-18
-3.4666e-21
0.000200765
-3.24773e-18
-1.40086e-20
-2.02969e-18
-3.37093e-21
0.000204101
-3.20507e-18
-1.40174e-20
-2.01047e-18
-3.25948e-21
0.000207491
-3.16341e-18
-1.40786e-20
-2.01921e-18
-3.42106e-21
0.000210935
-3.15592e-18
-1.38546e-20
-2.01898e-18
-3.62315e-21
0.000214434
-3.08458e-18
-1.3517e-20
-2.08728e-18
-3.6094e-21
0.00021799
-3.07198e-18
-1.34295e-20
-2.06167e-18
-3.49252e-21
0.000221603
-3.0511e-18
-1.33739e-20
-2.08477e-18
-3.80956e-21
0.000225274
-3.0253e-18
-1.32788e-20
-2.10052e-18
-4.06977e-21
0.000229004
-2.98293e-18
-1.31332e-20
-2.10491e-18
-4.41732e-21
0.000232794
-2.95742e-18
-1.28262e-20
-2.11386e-18
-4.87441e-21
0.000236645
-2.92194e-18
-1.24227e-20
-2.11607e-18
-5.29999e-21
0.000240557
-2.88799e-18
-1.20442e-20
-2.07001e-18
-5.96716e-21
0.000244532
-2.85187e-18
-1.16147e-20
-2.06031e-18
-6.92998e-21
0.000248571
-2.80015e-18
-1.06111e-20
-2.06485e-18
-7.72323e-21
0.000252674
-2.77687e-18
-9.36761e-21
-2.01724e-18
-8.82433e-21
0.000256843
-2.68539e-18
-8.07442e-21
-2.05157e-18
-1.01042e-20
0.000261078
-2.63699e-18
-7.70185e-21
-1.96607e-18
-1.00775e-20
0.000265381
-2.61262e-18
-7.65858e-21
-1.99083e-18
-1.05586e-20
0.000269752
-2.57119e-18
-7.21794e-21
-2.05211e-18
-1.05617e-20
0.000274193
-2.54638e-18
-6.6424e-21
-2.04524e-18
-1.03722e-20
0.000278705
-2.54624e-18
-6.16073e-21
-2.0786e-18
-1.08983e-20
0.000283288
-2.52639e-18
-5.06888e-21
-2.10065e-18
-1.21096e-20
0.000287944
-2.42627e-18
-5.6644e-21
-2.15275e-18
-1.39494e-20
0.000292674
-2.39781e-18
-7.15624e-21
-2.14342e-18
-1.45454e-20
0.000297479
-2.37883e-18
-9.46922e-21
-2.18226e-18
-1.55425e-20
0.00030236
-2.37993e-18
-1.17889e-20
-2.1799e-18
-1.59792e-20
0.000307318
-2.33549e-18
-1.29011e-20
-2.19123e-18
-1.62292e-20
0.000312355
-2.35861e-18
-1.41157e-20
-2.23612e-18
-1.62562e-20
0.00031747
-2.32283e-18
-1.59277e-20
-2.23386e-18
-1.64182e-20
0.000322667
-2.26741e-18
-1.79011e-20
-2.26742e-18
-1.6596e-20
0.000327945
-2.31035e-18
-1.98172e-20
-2.25283e-18
-1.67385e-20
0.000333306
-2.30733e-18
-2.06135e-20
-2.21692e-18
-1.76922e-20
0.000338751
-2.32401e-18
-2.03889e-20
-2.17125e-18
-1.86402e-20
0.000344281
-2.27801e-18
-1.94764e-20
-2.14756e-18
-2.06126e-20
0.000349898
-2.26756e-18
-1.90554e-20
-2.14386e-18
-2.28936e-20
0.000355602
-2.23676e-18
-1.79413e-20
-2.08357e-18
-2.36634e-20
0.000361396
-2.12204e-18
-1.62687e-20
-2.15427e-18
-2.46538e-20
0.000367279
-2.10562e-18
-1.58606e-20
-2.13291e-18
-2.43081e-20
0.000373254
-2.09252e-18
-1.50496e-20
-2.11948e-18
-2.4923e-20
0.000379322
-2.0987e-18
-1.33636e-20
-2.12223e-18
-2.63341e-20
0.000385483
-2.07846e-18
-1.16893e-20
-2.11481e-18
-2.63469e-20
0.00039174
-2.08311e-18
-1.00035e-20
-2.08226e-18
-2.63515e-20
0.000398093
-2.00935e-18
-9.64693e-21
-2.06605e-18
-2.43124e-20
0.000404543
-2.04363e-18
-1.04282e-20
-1.96949e-18
-2.2677e-20
0.000411093
-2.0471e-18
-9.84592e-21
-1.95356e-18
-2.47166e-20
0.000417743
-1.99725e-18
-8.96466e-21
-1.96951e-18
-2.80339e-20
0.000424494
-2.00545e-18
-1.19616e-20
-1.93724e-18
-2.81084e-20
0.000431348
-2.02329e-18
-1.33439e-20
-1.93402e-18
-2.67722e-20
0.000438307
-2.00033e-18
-1.34701e-20
-1.88394e-18
-2.52973e-20
0.00044537
-2.01966e-18
-1.50538e-20
-1.85809e-18
-2.57848e-20
0.00045254
-1.9358e-18
-1.5412e-20
-1.95406e-18
-3.10536e-20
0.000459818
-1.88122e-18
-1.64107e-20
-2.00912e-18
-3.1521e-20
0.000467205
-1.75725e-18
-1.72081e-20
-2.09747e-18
-2.90358e-20
0.000474702
-1.86895e-18
-1.90649e-20
-1.99195e-18
-2.22693e-20
0.000482311
-1.87155e-18
-1.80121e-20
-2.00513e-18
-2.00224e-20
0.000490033
-1.81154e-18
-1.93883e-20
-1.98235e-18
-1.56375e-20
0.000497868
-1.8449e-18
-1.75842e-20
-1.77002e-18
-8.40589e-21
0.000505819
-1.83902e-18
-1.4083e-20
-1.73101e-18
-6.76221e-21
0.000513885
-1.78844e-18
-1.30756e-20
-1.62192e-18
-6.53986e-21
0.000522069
-1.76486e-18
-1.1019e-20
-1.66634e-18
-9.14166e-21
0.000530372
-1.57056e-18
-7.71578e-21
-1.72002e-18
-1.12162e-20
0.000538794
-1.45724e-18
-1.14065e-20
-1.59308e-18
-8.99075e-21
0.000547336
-1.53009e-18
-1.95702e-20
-1.52189e-18
-7.58622e-21
0.000555999
-1.51713e-18
-2.04308e-20
-1.38183e-18
-1.02716e-20
0.000564784
-1.28816e-18
-1.7404e-20
-1.30371e-18
-1.64273e-20
0.000573693
-1.25083e-18
-2.01438e-20
-1.32032e-18
-2.29142e-20
0.000582725
-1.14942e-18
-1.41941e-20
-1.22735e-18
-2.07325e-20
0.000591881
-1.14545e-18
-1.67422e-20
-1.23207e-18
-2.55676e-20
0.000601162
-1.05249e-18
-2.91817e-20
-1.21785e-18
-2.4034e-20
0.000610569
-1.20569e-18
-3.77392e-20
-1.20782e-18
-1.88331e-20
0.000620101
-1.1125e-18
-2.9217e-20
-1.09917e-18
-1.32475e-20
0.000629758
-1.0708e-18
-2.88962e-20
-1.06726e-18
-6.97488e-21
0.000639542
-1.24904e-18
-3.34778e-20
-1.09726e-18
1.36836e-21
0.000649451
-1.14619e-18
-1.98178e-20
-1.1315e-18
-3.92371e-21
0.000659486
-1.08051e-18
-1.74794e-20
-1.04035e-18
-6.30886e-21
0.000669645
-9.97674e-19
-1.83709e-20
-9.80423e-19
-8.27143e-21
0.000679929
-9.92643e-19
-2.27899e-20
-9.63143e-19
-6.14876e-21
0.000690337
-9.00829e-19
-1.26286e-20
-9.16029e-19
-4.60098e-21
0.000700867
-8.8834e-19
-1.07718e-20
-9.31202e-19
-5.31156e-21
0.000711519
-8.3722e-19
-1.31156e-20
-1.01352e-18
-6.0437e-21
0.00072229
-9.50697e-19
-1.3159e-20
-8.15729e-19
5.99486e-21
0.00073318
-9.00584e-19
-9.32161e-21
-8.23329e-19
7.05573e-21
0.000744185
-8.60116e-19
-3.42937e-21
-8.22327e-19
3.69615e-21
0.000755305
-8.84272e-19
-6.84371e-21
-7.93518e-19
4.16543e-21
0.000766535
-7.5424e-19
1.48172e-22
-8.09744e-19
6.16388e-21
0.000777874
-5.99564e-19
3.22886e-21
-7.78481e-19
4.19565e-21
0.000789319
-7.32608e-19
-1.17154e-20
-6.65533e-19
6.47634e-21
0.000800865
-1.16573e-20
-6.6067e-19
2.78453e-22
-6.73306e-19
2.6942e-08
2.88265e-23
1.13718e-22
8.23906e-08
3.09288e-22
3.70129e-22
1.4025e-07
6.0246e-22
6.27779e-22
2.00601e-07
8.95233e-22
9.48542e-22
2.6353e-07
1.17481e-21
1.32204e-21
3.29121e-07
1.47056e-21
1.70093e-21
3.97466e-07
1.76051e-21
2.10733e-21
4.68654e-07
2.05522e-21
2.47488e-21
5.42782e-07
2.48738e-21
2.80059e-21
6.19944e-07
2.92075e-21
3.12984e-21
7.00238e-07
3.43533e-21
3.63101e-21
7.83763e-07
3.91814e-21
3.96769e-21
8.70619e-07
4.38522e-21
4.35464e-21
9.60904e-07
4.84812e-21
4.60681e-21
1.05471e-06
5.59106e-21
5.08955e-21
1.15214e-06
6.37939e-21
5.77995e-21
1.25328e-06
6.70657e-21
6.41945e-21
1.3582e-06
7.29401e-21
6.79382e-21
1.46697e-06
7.86708e-21
7.69777e-21
1.57966e-06
8.5878e-21
8.14913e-21
1.6963e-06
9.64054e-21
8.53428e-21
1.81692e-06
1.03797e-20
8.6474e-21
1.94151e-06
1.14388e-20
9.02119e-21
2.07006e-06
1.14791e-20
1.01799e-20
2.2025e-06
1.2401e-20
1.05237e-20
2.33877e-06
1.30984e-20
1.13549e-20
2.47877e-06
1.33356e-20
1.17235e-20
2.62238e-06
1.40358e-20
1.26233e-20
2.76945e-06
1.48794e-20
1.32631e-20
2.91981e-06
1.5637e-20
1.39355e-20
3.0733e-06
1.6711e-20
1.45814e-20
3.22974e-06
1.77006e-20
1.49559e-20
3.38895e-06
1.88325e-20
1.50102e-20
3.55076e-06
1.99365e-20
1.56717e-20
3.71498e-06
2.08982e-20
1.61681e-20
3.88149e-06
2.16677e-20
1.65304e-20
4.05012e-06
2.27482e-20
1.72498e-20
4.22078e-06
2.35441e-20
1.74964e-20
4.39334e-06
2.49562e-20
1.78803e-20
4.56774e-06
2.58511e-20
1.98885e-20
4.74391e-06
2.6792e-20
2.10331e-20
4.92179e-06
2.67195e-20
2.15571e-20
5.10138e-06
2.65763e-20
2.24861e-20
5.28264e-06
2.67531e-20
2.25638e-20
5.46558e-06
2.74856e-20
2.26985e-20
5.65022e-06
2.86458e-20
2.34938e-20
5.83658e-06
2.97748e-20
2.38203e-20
6.02468e-06
3.01099e-20
2.47968e-20
6.21457e-06
3.16744e-20
2.62641e-20
6.4063e-06
3.10088e-20
2.77391e-20
6.59992e-06
3.17954e-20
2.81301e-20
6.79548e-06
3.30224e-20
2.84949e-20
6.99305e-06
3.35954e-20
2.99673e-20
7.19269e-06
3.46867e-20
3.1198e-20
7.39447e-06
3.53412e-20
3.27668e-20
7.59846e-06
3.63809e-20
3.33651e-20
7.80472e-06
3.64156e-20
3.20494e-20
8.01334e-06
3.67894e-20
3.25496e-20
8.22438e-06
3.79206e-20
3.28341e-20
8.43792e-06
3.76697e-20
3.29134e-20
8.65403e-06
3.70996e-20
3.35632e-20
8.8728e-06
3.92061e-20
3.2026e-20
9.09429e-06
4.09065e-20
3.47323e-20
9.31859e-06
4.17953e-20
3.63933e-20
9.54576e-06
4.06371e-20
3.56741e-20
9.7759e-06
3.93393e-20
3.88845e-20
1.00091e-05
3.78859e-20
3.97063e-20
1.02454e-05
3.77639e-20
4.27067e-20
1.04848e-05
3.95022e-20
4.36497e-20
1.07276e-05
4.01086e-20
4.42075e-20
1.09737e-05
4.09648e-20
4.56856e-20
1.12232e-05
4.10734e-20
4.55182e-20
1.14763e-05
4.174e-20
4.62311e-20
1.1733e-05
4.43791e-20
4.68108e-20
1.19933e-05
4.57558e-20
4.85772e-20
1.22574e-05
4.61914e-20
4.88568e-20
1.25253e-05
4.61629e-20
5.06959e-20
1.27971e-05
4.82347e-20
5.3598e-20
1.3073e-05
4.66038e-20
5.83046e-20
1.33529e-05
4.88511e-20
5.85745e-20
1.3637e-05
5.00435e-20
5.848e-20
1.39254e-05
5.03904e-20
5.94671e-20
1.42181e-05
5.20119e-20
6.0433e-20
1.45153e-05
5.17785e-20
6.18412e-20
1.4817e-05
5.28207e-20
6.22637e-20
1.51233e-05
5.45424e-20
6.28233e-20
1.54343e-05
5.79014e-20
6.23188e-20
1.57501e-05
6.05535e-20
6.29524e-20
1.60707e-05
5.77633e-20
6.72937e-20
1.63964e-05
5.44383e-20
7.31871e-20
1.67271e-05
5.32119e-20
7.58407e-20
1.7063e-05
5.18508e-20
7.70389e-20
1.74041e-05
4.6853e-20
8.00614e-20
1.77506e-05
4.65667e-20
7.85796e-20
1.81026e-05
4.55104e-20
8.06773e-20
1.84601e-05
4.69509e-20
8.21448e-20
1.88233e-05
4.67583e-20
8.18351e-20
1.91923e-05
4.57934e-20
8.3081e-20
1.95671e-05
5.011e-20
8.78611e-20
1.99479e-05
5.09348e-20
9.01347e-20
2.03347e-05
5.53103e-20
9.26523e-20
2.07278e-05
5.34985e-20
8.9501e-20
2.11271e-05
5.35371e-20
8.78914e-20
2.15329e-05
5.79355e-20
8.71814e-20
2.19451e-05
6.06102e-20
9.33209e-20
2.2364e-05
6.11955e-20
9.70946e-20
2.27897e-05
6.10715e-20
9.92529e-20
2.32222e-05
6.28714e-20
1.00409e-19
2.36617e-05
6.53521e-20
1.01952e-19
2.41083e-05
6.77166e-20
1.02389e-19
2.45622e-05
6.68268e-20
1.04524e-19
2.50234e-05
6.93131e-20
1.03281e-19
2.54921e-05
6.7986e-20
1.05734e-19
2.59684e-05
6.69952e-20
1.05794e-19
2.64524e-05
6.91001e-20
1.08184e-19
2.69443e-05
7.0654e-20
1.10721e-19
2.74442e-05
7.24408e-20
1.14333e-19
2.79523e-05
7.27968e-20
1.13154e-19
2.84686e-05
7.25738e-20
1.16238e-19
2.89934e-05
7.25136e-20
1.17445e-19
2.95267e-05
7.49763e-20
1.18325e-19
3.00688e-05
6.77725e-20
1.245e-19
3.06197e-05
6.32328e-20
1.19833e-19
3.11796e-05
6.37441e-20
1.21461e-19
3.17486e-05
6.67692e-20
1.24657e-19
3.2327e-05
7.24346e-20
1.26486e-19
3.29148e-05
7.33696e-20
1.21714e-19
3.35123e-05
7.77464e-20
1.24374e-19
3.41196e-05
7.13693e-20
1.22855e-19
3.47368e-05
6.91092e-20
1.24797e-19
3.53641e-05
5.78594e-20
1.35226e-19
3.60017e-05
5.72202e-20
1.36922e-19
3.66498e-05
5.02143e-20
1.50177e-19
3.73086e-05
5.1545e-20
1.46918e-19
3.79781e-05
4.77962e-20
1.53688e-19
3.86586e-05
4.60146e-20
1.54853e-19
3.93503e-05
4.54539e-20
1.64293e-19
4.00534e-05
4.53307e-20
1.68407e-19
4.0768e-05
5.38607e-20
1.68992e-19
4.14943e-05
4.23688e-20
1.71802e-19
4.22326e-05
4.8829e-20
1.69904e-19
4.2983e-05
4.56374e-20
1.61616e-19
4.37458e-05
4.06993e-20
1.62065e-19
4.45211e-05
3.26386e-20
1.72375e-19
4.53091e-05
3.38113e-20
1.74308e-19
4.61101e-05
2.7489e-20
1.68016e-19
4.69243e-05
3.0621e-20
1.69276e-19
4.77518e-05
3.21265e-20
1.65676e-19
4.8593e-05
2.93183e-20
1.64533e-19
4.9448e-05
2.95902e-20
1.70932e-19
5.0317e-05
3.24081e-20
1.79586e-19
5.12004e-05
3.51891e-20
1.75478e-19
5.20982e-05
2.91188e-20
1.75244e-19
5.30109e-05
3.05067e-20
1.81298e-19
5.39385e-05
3.25757e-20
1.85563e-19
5.48814e-05
2.92705e-20
1.89765e-19
5.58398e-05
3.6339e-20
1.92608e-19
5.68139e-05
3.76173e-20
1.87218e-19
5.78041e-05
3.40928e-20
1.86201e-19
5.88106e-05
3.15727e-20
1.92073e-19
5.98336e-05
2.47136e-20
1.90765e-19
6.08734e-05
1.03675e-20
2.0944e-19
6.19303e-05
2.90934e-20
2.06835e-19
6.30046e-05
2.82174e-20
2.19967e-19
6.40965e-05
4.28669e-20
2.16422e-19
6.52064e-05
4.89843e-20
2.25582e-19
6.63345e-05
3.95415e-20
2.39485e-19
6.74812e-05
2.923e-20
2.42117e-19
6.86467e-05
2.11921e-20
2.4636e-19
6.98313e-05
2.36611e-20
2.43256e-19
7.10354e-05
1.80189e-20
2.36526e-19
7.22593e-05
1.44088e-21
2.36496e-19
7.35033e-05
1.1598e-20
2.38282e-19
7.47677e-05
2.35299e-20
2.34351e-19
7.60528e-05
2.04964e-20
2.45699e-19
7.73591e-05
3.12737e-20
2.42081e-19
7.86868e-05
3.79413e-20
2.26603e-19
8.00362e-05
2.86889e-20
2.30388e-19
8.14078e-05
3.18613e-20
2.44397e-19
8.28019e-05
2.34729e-20
2.46383e-19
8.42189e-05
4.44727e-20
2.48481e-19
8.56591e-05
4.80759e-20
2.52065e-19
8.7123e-05
3.90299e-20
2.57099e-19
8.86108e-05
4.50906e-20
2.5268e-19
9.0123e-05
3.10686e-20
2.53004e-19
9.166e-05
8.6314e-21
2.48104e-19
9.32221e-05
-6.60937e-21
2.3318e-19
9.48099e-05
-2.65221e-21
2.22298e-19
9.64236e-05
-2.09837e-20
2.22345e-19
9.80638e-05
-3.07233e-20
2.31512e-19
9.97308e-05
-2.90957e-20
2.48339e-19
0.000101425
-2.59338e-20
2.4078e-19
0.000103147
-1.66705e-20
2.30243e-19
0.000104897
-9.78652e-21
2.33933e-19
0.000106676
7.23416e-23
2.34722e-19
0.000108484
-1.1702e-20
2.42413e-19
0.000110322
-5.02105e-21
2.48939e-19
0.000112189
-1.84429e-20
2.54013e-19
0.000114087
-1.5919e-20
2.58593e-19
0.000116016
-1.19041e-21
2.64179e-19
0.000117977
1.42362e-20
2.65433e-19
0.000119969
4.57106e-20
2.53317e-19
0.000121994
4.30007e-20
2.453e-19
0.000124052
4.65937e-20
2.46942e-19
0.000126144
4.6493e-20
2.4716e-19
0.00012827
4.6333e-20
2.6514e-19
0.00013043
2.82221e-20
2.5404e-19
0.000132626
2.8087e-20
2.91835e-19
0.000134857
2.7925e-20
2.69935e-19
0.000137125
2.02929e-20
2.56362e-19
0.000139429
2.12522e-20
2.27122e-19
0.000141772
-2.08139e-20
2.44217e-19
0.000144152
-3.87197e-20
2.38401e-19
0.000146571
-4.11441e-20
2.26628e-19
0.000149029
2.55627e-21
2.15921e-19
0.000151527
-4.07343e-21
2.43861e-19
0.000154066
-4.93313e-21
1.98034e-19
0.000156646
-4.202e-20
1.93433e-19
0.000159268
-7.15858e-20
2.18412e-19
0.000161933
-5.22605e-20
2.04606e-19
0.000164641
-4.17955e-20
2.07697e-19
0.000167392
-3.04649e-20
2.23e-19
0.000170189
-4.42408e-20
2.40136e-19
0.00017303
-5.8677e-20
2.61858e-19
0.000175918
-3.25446e-20
2.37804e-19
0.000178852
-3.21423e-20
2.42022e-19
0.000181834
-6.20089e-20
2.29209e-19
0.000184864
-6.4975e-20
1.99358e-19
0.000187944
-6.68356e-20
1.90948e-19
0.000191072
-3.89663e-20
1.62533e-19
0.000194252
-5.10398e-20
1.7372e-19
0.000197482
-3.65223e-20
1.69629e-19
0.000200765
-6.64251e-20
1.92288e-19
0.000204101
-7.10402e-20
1.58642e-19
0.000207491
-3.48723e-20
1.20922e-19
0.000210935
-5.15282e-20
1.50328e-19
0.000214434
-4.3581e-20
1.36002e-19
0.00021799
-6.94964e-20
1.47025e-19
0.000221603
-9.18649e-20
1.22045e-19
0.000225274
-1.14246e-19
7.9868e-20
0.000229004
-1.11969e-19
8.09422e-20
0.000232794
-1.3566e-19
6.28134e-20
0.000236645
-1.49308e-19
1.75447e-20
0.000240557
-1.59913e-19
2.37957e-20
0.000244532
-1.28934e-19
2.48647e-20
0.000248571
-1.07145e-19
6.81216e-21
0.000252674
-1.09821e-19
2.66404e-20
0.000256843
-1.20325e-19
2.40984e-20
0.000261078
-1.38387e-19
3.14932e-21
0.000265381
-1.22217e-19
4.38262e-21
0.000269752
-8.21908e-20
-5.49775e-20
0.000274193
-9.59332e-20
-8.6207e-20
0.000278705
-9.63034e-20
-1.43836e-19
0.000283288