/*--------------------------------*- C++ -*----------------------------------*\
| =========                 |                                                 |
| \\      /  F ield         | OpenFOAM: The Open Source CFD Toolbox           |
|  \\    /   O peration     | Version:  2012                                  |
|   \\  /    A nd           | Website:  www.openfoam.com                      |
|    \\/     M anipulation  |                                                 |
\*---------------------------------------------------------------------------*/
FoamFile
{
    version     2.0;
    format      ascii;
    class       surfaceScalarField;
    location    "7000";
    object      phi;
}
// * * * * * * * * * * * * * * * * * * * * * * * * * * * * * * * * * * * * * //

dimensions      [0 3 -1 0 0 0 0];
oriented        oriented;


internalField   nonuniform List<scalar> 
636
(
1.12832e-06
-1.42969e-17
-1.40773e-20
-4.56404e-20
4.51652e-21
3.96529e-06
-1.42103e-17
-1.70846e-20
-1.26767e-19
1.25996e-20
7.87111e-06
-1.40923e-17
-2.4083e-20
-2.37356e-19
1.74651e-20
1.31625e-05
-1.39207e-17
-3.57674e-20
-3.96061e-19
2.37351e-20
2.0212e-05
-1.36846e-17
-5.04166e-20
-6.15648e-19
3.11551e-20
2.93632e-05
-1.33753e-17
-6.6587e-20
-8.94886e-19
3.84975e-20
4.07452e-05
-1.30128e-17
-8.15419e-20
-1.23274e-18
4.37574e-20
5.41909e-05
-1.26046e-17
-9.30722e-20
-1.59769e-18
4.57527e-20
6.94842e-05
-1.21586e-17
-1.01664e-19
-1.97379e-18
4.49001e-20
8.66172e-05
-1.17138e-17
-1.09176e-19
-2.36174e-18
4.19977e-20
0.000105792
-1.12302e-17
-1.16859e-19
-2.76777e-18
3.74728e-20
0.000127332
-1.07305e-17
-1.25011e-19
-3.15142e-18
3.12932e-20
0.000151631
-1.02649e-17
-1.34195e-19
-3.52061e-18
2.30592e-20
0.00017913
-9.75089e-18
-1.43937e-19
-3.8735e-18
1.18971e-20
0.000210324
-9.24747e-18
-1.53856e-19
-4.23547e-18
-3.17972e-21
0.000245761
-8.75731e-18
-1.62949e-19
-4.52128e-18
-2.20642e-20
0.000286053
-8.23569e-18
-1.72056e-19
-4.86388e-18
-4.56152e-20
0.000331883
-7.61971e-18
-1.80884e-19
-5.15008e-18
-7.00573e-20
0.00038402
-7.21068e-18
-1.90551e-19
-5.28037e-18
-9.75244e-20
0.000443324
-6.83234e-18
-1.97651e-19
-5.34985e-18
-1.26667e-19
0.000510764
-6.45356e-18
-1.98203e-19
-5.40961e-18
-1.57372e-19
0.000587432
-6.01047e-18
-2.0174e-19
-5.45395e-18
-1.83971e-19
0.000674556
-5.6624e-18
-2.14698e-19
-5.38427e-18
-2.03221e-19
0.000773521
-5.36801e-18
-2.26359e-19
-5.11652e-18
-2.10984e-19
0.00088589
-5.1076e-18
-2.32965e-19
-5.06982e-18
-2.19373e-19
0.00101343
-4.82855e-18
-2.18242e-19
-4.81566e-18
-2.01079e-19
0.00115812
-4.61814e-18
-2.05718e-19
-4.63319e-18
-1.75647e-19
0.00132223
-4.49255e-18
-1.83748e-19
-4.36434e-18
-1.28202e-19
0.00150826
-4.31494e-18
-1.76228e-19
-4.33701e-18
-1.45263e-19
0.00171909
-4.17919e-18
-1.6941e-19
-4.15541e-18
-1.20478e-19
0.00195792
-3.63672e-18
-6.65189e-21
-3.71604e-18
-1.00248e-19
0.00222834
-3.56797e-18
7.12555e-21
-3.55051e-18
-6.58584e-20
0.00253439
-3.41627e-18
-1.0428e-19
-3.41422e-18
8.99856e-21
0.00288052
-3.28233e-18
-1.10589e-19
-3.28769e-18
-5.32049e-20
0.00327167
-3.04096e-18
-2.26849e-19
-2.99515e-18
-8.32957e-22
0.00371319
-3.00627e-18
-5.44968e-20
-3.03432e-18
-5.6179e-20
0.00421076
-2.58903e-18
-5.53561e-20
-2.54318e-18
-9.98122e-20
0.00477007
-2.23006e-18
-1.20311e-19
-2.24842e-18
-2.44574e-19
0.00539614
-2.35631e-18
-1.80723e-19
-2.37336e-18
4.65202e-20
0.0060917
-4.3134e-19
-1.65236e-18
-2.37607e-19
-1.67261e-18
1.12832e-06
-9.49536e-21
2.2379e-22
3.96529e-06
-1.73459e-20
3.29633e-21
7.87111e-06
-2.7757e-20
8.30845e-21
1.31625e-05
-4.89691e-20
1.61108e-20
2.0212e-05
-7.4779e-20
2.45485e-20
2.93632e-05
-1.12639e-19
3.69198e-20
4.07452e-05
-1.60309e-19
5.02476e-20
5.41909e-05
-2.16953e-19
5.91903e-20
6.94842e-05
-2.83961e-19
4.8637e-20
8.66172e-05
-3.52395e-19
4.98467e-20
0.000105792
-3.65415e-19
3.26299e-20
0.000127332
-4.69628e-19
8.51991e-21
0.000151631
-5.8048e-19
-4.46482e-20
0.00017913
-6.56047e-19
-1.35031e-19
0.000210324
-7.19531e-19
-2.41944e-19
0.000245761
-8.79722e-19
-3.44111e-19
0.000286053
-9.88579e-19
-4.06642e-19
0.000331883
-1.02262e-18
-6.43897e-19
0.00038402
-1.14941e-18
-7.85006e-19
0.000443324
-1.23721e-18
-9.78644e-19
0.000510764
-1.49082e-18
-1.17386e-18
0.000587432
-1.67654e-18
-1.36716e-18
0.000674556
-1.80758e-18
-1.55718e-18
0.000773521
-2.01864e-18
-1.84441e-18
0.00088589
-2.16799e-18
-2.16673e-18
0.00101343
-2.48336e-18
-2.44592e-18
0.00115812
-2.73856e-18
-2.69112e-18
0.00132223
-3.01893e-18
-2.96856e-18
0.00150826
-3.21167e-18
-3.1978e-18
0.00171909
-3.14509e-18
-3.39347e-18
0.00195792
-3.12728e-18
-3.19019e-18
0.00222834
-3.40216e-18
-3.18489e-18
0.00253439
-3.23702e-18
-3.25172e-18
0.00288052
-3.19181e-18
-3.07743e-18
0.00327167
-2.87662e-18
-2.98383e-18
0.00371319
-3.01632e-18
-3.04655e-18
0.00421076
-2.65444e-18
-2.62304e-18
0.00477007
-2.27429e-18
-2.20747e-18
0.00539614
-2.38412e-18
-2.41674e-18
0.0060917
-1.70849e-18
-1.7539e-18
0.0060917
-1.1886e-18
-4.09285e-19
-1.23063e-18
-5.47808e-19
0.00539614
-8.81389e-19
6.65933e-19
-9.06449e-19
4.20961e-19
0.00477007
-5.55835e-19
2.38431e-19
-5.33819e-19
2.30108e-19
0.00421076
-4.6072e-19
-3.60358e-19
-4.13545e-19
-3.36299e-19
0.00371319
-1.45031e-19
-2.03578e-19
-7.18339e-20
3.23652e-19
0.00327167
1.6198e-19
-1.40028e-19
1.18337e-19
-6.14499e-20
0.00288052
-1.46721e-19
-2.66525e-19
-2.98125e-21
-2.85945e-19
0.00253439
-5.06345e-21
-1.44078e-19
-5.8383e-20
-2.18019e-19
0.00222834
-8.15275e-21
-9.80403e-20
-3.57008e-20
-1.81468e-19
0.00195792
-2.39314e-20
8.47718e-20
6.05991e-20
-4.61424e-20
0.00171909
-2.41998e-22
-9.60932e-21
-1.34608e-19
2.46526e-21
0.00150826
-1.51162e-20
4.56596e-20
-4.2092e-20
4.79927e-20
0.00132223
1.45194e-20
2.15839e-20
1.11263e-19
4.1909e-20
0.00115812
1.423e-19
4.87039e-21
1.11143e-19
-7.87959e-21
0.00101343
1.67437e-20
-1.69104e-20
-1.92816e-20
-3.3263e-20
0.00088589
1.4081e-20
-2.1611e-20
-8.46094e-20
-2.16853e-20
0.000773521
-2.75405e-20
-2.02255e-20
-5.83262e-21
-1.30959e-20
0.000674556
5.62134e-20
-1.35289e-20
5.2013e-20
-6.81718e-22
0.000587432
9.86296e-20
-1.00688e-20
2.31195e-21
1.48578e-21
0.000510764
-6.75872e-20
-1.38631e-20
4.19966e-20
-1.98704e-21
0.000443324
-2.77543e-20
-8.26162e-21
2.67869e-20
-5.40939e-21
0.00038402
1.49124e-21
-7.84731e-21
2.11444e-20
-4.55366e-21
0.000331883
-3.06991e-20
-8.47353e-21
1.87105e-20
-4.39221e-21
0.000286053
-4.45133e-20
-8.37157e-21
5.06404e-20
-4.93058e-21
0.000245761
-6.5743e-20
-6.33069e-21
1.48584e-21
-6.21914e-21
0.000210324
-5.63627e-20
-4.41319e-21
-1.50568e-20
-5.24249e-21
0.00017913
-5.23053e-20
-3.1696e-21
2.01522e-20
-3.93933e-21
0.000151631
4.89581e-22
-2.06696e-21
8.12004e-21
-3.36513e-21
0.000127332
-1.83004e-20
-1.60547e-21
7.31562e-22
-2.78012e-21
0.000105792
-2.27704e-20
-1.26295e-21
-6.3975e-21
-2.28186e-21
8.66172e-05
-1.7717e-20
-9.62854e-22
-1.82578e-21
-1.88646e-21
6.94842e-05
-8.27717e-21
-7.48083e-22
-5.42172e-21
-1.63902e-21
5.41909e-05
-1.84119e-21
-6.38108e-22
-7.46156e-21
-1.3818e-21
4.07452e-05
-6.35885e-22
-5.41812e-22
-3.1955e-21
-1.14393e-21
2.93632e-05
-2.68204e-21
-4.36659e-22
-5.40773e-22
-9.12687e-22
2.0212e-05
3.10758e-23
-3.30126e-22
-9.37952e-22
-6.91361e-22
1.31626e-05
5.18736e-22
-2.44179e-22
1.17163e-22
-5.02967e-22
7.87112e-06
8.53178e-22
-1.77224e-22
-5.05169e-22
-3.60232e-22
3.96529e-06
1.29173e-23
-1.27942e-22
3.06044e-23
-2.54698e-22
1.12832e-06
-3.49067e-23
-2.71622e-23
0.0060917
-9.51279e-19
-1.03907e-18
0.00539614
-9.72107e-19
-9.88315e-19
0.00477007
-7.27644e-19
-7.07324e-19
0.00421076
-3.25812e-19
-4.92312e-20
0.00371319
-1.07222e-19
-2.61857e-19
0.00327167
-3.4182e-21
-1.17898e-19
0.00288052
-1.26096e-19
-2.90517e-20
0.00253439
4.29995e-20
9.34669e-21
0.00222834
3.4492e-19
1.96242e-19
0.00195792
-4.42364e-20
2.34902e-19
0.00171909
3.1984e-19
1.75672e-19
0.00150826
7.81693e-20
9.87674e-20
0.00132223
7.49808e-20
2.69015e-20
0.00115812
1.08184e-19
5.58076e-20
0.00101343
9.82504e-21
5.77047e-20
0.00088589
6.49579e-21
-4.36302e-20
0.000773521
-2.24673e-20
3.39588e-20
0.000674556
4.96358e-20
6.23354e-21
0.000587432
1.4972e-20
-5.34671e-20
0.000510764
2.17992e-20
-1.03431e-20
0.000443324
-2.72134e-20
4.88465e-20
0.00038402
-2.9151e-20
2.84628e-20
0.000331883
-6.18139e-20
-3.11344e-21
0.000286053
-7.42003e-22
-5.0025e-20
0.000245761
7.67654e-23
-7.25022e-21
0.000210324
-3.01908e-21
1.08993e-20
0.00017913
1.54676e-20
-7.92232e-21
0.000151631
2.42974e-20
-3.98349e-21
0.000127332
1.48024e-20
-3.10939e-21
0.000105792
2.50084e-20
-1.13545e-21
8.66172e-05
2.09756e-20
-7.7525e-22
6.94842e-05
1.19652e-21
1.09862e-20
5.41909e-05
-1.75865e-22
3.4079e-21
4.07452e-05
6.77499e-22
1.69457e-21
2.93632e-05
8.53306e-22
9.71507e-22
2.0212e-05
-1.42368e-21
4.99569e-22
1.31626e-05
-1.30882e-21
5.52169e-23
7.87112e-06
-1.74409e-21
1.43387e-21
3.96529e-06
-1.98816e-22
-2.56272e-23
1.12832e-06
)
;

boundaryField
{
    walls
    {
        type            calculated;
        value           uniform 0;
    }
    inlet
    {
        type            cyclic;
        value           nonuniform List<scalar> 
160
(
-1.12832e-06
-3.96529e-06
-7.87111e-06
-1.31625e-05
-2.0212e-05
-2.93632e-05
-4.07452e-05
-5.41909e-05
-6.94842e-05
-8.66172e-05
-0.000105792
-0.000127332
-0.000151631
-0.00017913
-0.000210324
-0.000245761
-0.000286053
-0.000331883
-0.00038402
-0.000443324
-0.000510764
-0.000587432
-0.000674556
-0.000773521
-0.00088589
-0.00101343
-0.00115812
-0.00132223
-0.00150826
-0.00171909
-0.00195792
-0.00222834
-0.00253439
-0.00288052
-0.00327167
-0.00371319
-0.00421076
-0.00477007
-0.00539614
-0.0060917
-1.12832e-06
-3.96529e-06
-7.87111e-06
-1.31625e-05
-2.0212e-05
-2.93632e-05
-4.07452e-05
-5.41909e-05
-6.94842e-05
-8.66172e-05
-0.000105792
-0.000127332
-0.000151631
-0.00017913
-0.000210324
-0.000245761
-0.000286053
-0.000331883
-0.00038402
-0.000443324
-0.000510764
-0.000587432
-0.000674556
-0.000773521
-0.00088589
-0.00101343
-0.00115812
-0.00132223
-0.00150826
-0.00171909
-0.00195792
-0.00222834
-0.00253439
-0.00288052
-0.00327167
-0.00371319
-0.00421076
-0.00477007
-0.00539614
-0.0060917
-0.0060917
-0.00539614
-0.00477007
-0.00421076
-0.00371319
-0.00327167
-0.00288052
-0.00253439
-0.00222834
-0.00195792
-0.00171909
-0.00150826
-0.00132223
-0.00115812
-0.00101343
-0.00088589
-0.000773521
-0.000674556
-0.000587432
-0.000510764
-0.000443324
-0.00038402
-0.000331883
-0.000286053
-0.000245761
-0.000210324
-0.00017913
-0.000151631
-0.000127332
-0.000105792
-8.66172e-05
-6.94842e-05
-5.41909e-05
-4.07452e-05
-2.93632e-05
-2.0212e-05
-1.31626e-05
-7.87112e-06
-3.96529e-06
-1.12832e-06
-0.0060917
-0.00539614
-0.00477007
-0.00421076
-0.00371319
-0.00327167
-0.00288052
-0.00253439
-0.00222834
-0.00195792
-0.00171909
-0.00150826
-0.00132223
-0.00115812
-0.00101343
-0.00088589
-0.000773521
-0.000674556
-0.000587432
-0.000510764
-0.000443324
-0.00038402
-0.000331883
-0.000286053
-0.000245761
-0.000210324
-0.00017913
-0.000151631
-0.000127332
-0.000105792
-8.66172e-05
-6.94842e-05
-5.41909e-05
-4.07452e-05
-2.93632e-05
-2.0212e-05
-1.31626e-05
-7.87112e-06
-3.96529e-06
-1.12832e-06
)
;
    }
    outlet
    {
        type            cyclic;
        value           nonuniform List<scalar> 
160
(
1.12832e-06
3.96529e-06
7.87111e-06
1.31625e-05
2.0212e-05
2.93632e-05
4.07452e-05
5.41909e-05
6.94842e-05
8.66172e-05
0.000105792
0.000127332
0.000151631
0.00017913
0.000210324
0.000245761
0.000286053
0.000331883
0.00038402
0.000443324
0.000510764
0.000587432
0.000674556
0.000773521
0.00088589
0.00101343
0.00115812
0.00132223
0.00150826
0.00171909
0.00195792
0.00222834
0.00253439
0.00288052
0.00327167
0.00371319
0.00421076
0.00477007
0.00539614
0.0060917
1.12832e-06
3.96529e-06
7.87111e-06
1.31625e-05
2.0212e-05
2.93632e-05
4.07452e-05
5.41909e-05
6.94842e-05
8.66172e-05
0.000105792
0.000127332
0.000151631
0.00017913
0.000210324
0.000245761
0.000286053
0.000331883
0.00038402
0.000443324
0.000510764
0.000587432
0.000674556
0.000773521
0.00088589
0.00101343
0.00115812
0.00132223
0.00150826
0.00171909
0.00195792
0.00222834
0.00253439
0.00288052
0.00327167
0.00371319
0.00421076
0.00477007
0.00539614
0.0060917
0.0060917
0.00539614
0.00477007
0.00421076
0.00371319
0.00327167
0.00288052
0.00253439
0.00222834
0.00195792
0.00171909
0.00150826
0.00132223
0.00115812
0.00101343
0.00088589
0.000773521
0.000674556
0.000587432
0.000510764
0.000443324
0.00038402
0.000331883
0.000286053
0.000245761
0.000210324
0.00017913
0.000151631
0.000127332
0.000105792
8.66172e-05
6.94842e-05
5.41909e-05
4.07452e-05
2.93632e-05
2.0212e-05
1.31626e-05
7.87112e-06
3.96529e-06
1.12832e-06
0.0060917
0.00539614
0.00477007
0.00421076
0.00371319
0.00327167
0.00288052
0.00253439
0.00222834
0.00195792
0.00171909
0.00150826
0.00132223
0.00115812
0.00101343
0.00088589
0.000773521
0.000674556
0.000587432
0.000510764
0.000443324
0.00038402
0.000331883
0.000286053
0.000245761
0.000210324
0.00017913
0.000151631
0.000127332
0.000105792
8.66172e-05
6.94842e-05
5.41909e-05
4.07452e-05
2.93632e-05
2.0212e-05
1.31626e-05
7.87112e-06
3.96529e-06
1.12832e-06
)
;
    }
    sides
    {
        type            empty;
        value           nonuniform List<scalar> 0();
    }
}


// ************************************************************************* //
