/*--------------------------------*- C++ -*----------------------------------*\
| =========                 |                                                 |
| \\      /  F ield         | OpenFOAM: The Open Source CFD Toolbox           |
|  \\    /   O peration     | Version:  2012                                  |
|   \\  /    A nd           | Website:  www.openfoam.com                      |
|    \\/     M anipulation  |                                                 |
\*---------------------------------------------------------------------------*/
FoamFile
{
    version     2.0;
    format      ascii;
    class       surfaceScalarField;
    location    "2000";
    object      phi;
}
// * * * * * * * * * * * * * * * * * * * * * * * * * * * * * * * * * * * * * //

dimensions      [0 3 -1 0 0 0 0];
oriented        oriented;


internalField   nonuniform List<scalar> 
10236
(
1.53753e-08
-6.7136e-18
-5.86416e-23
-1.3066e-22
2.86352e-24
4.65647e-08
-6.7129e-18
-2.34235e-22
-5.68851e-22
-1.37882e-23
7.84171e-08
-6.71222e-18
-2.34281e-22
-1.00103e-21
-1.40878e-23
1.10935e-07
-6.71152e-18
-2.36221e-22
-1.44851e-21
-1.43927e-23
1.44119e-07
-6.71082e-18
-2.38463e-22
-1.88319e-21
-1.4703e-23
1.77971e-07
-6.71009e-18
-2.40816e-22
-2.31725e-21
-1.50188e-23
2.12492e-07
-6.70932e-18
-2.43351e-22
-2.78091e-21
-1.53402e-23
2.47684e-07
-6.70854e-18
-2.4601e-22
-3.22842e-21
-1.56672e-23
2.83547e-07
-6.70779e-18
-2.4874e-22
-3.68248e-21
-1.60001e-23
3.20081e-07
-6.70703e-18
-2.51516e-22
-4.17068e-21
-1.63389e-23
3.57288e-07
-6.70624e-18
-2.54328e-22
-4.67665e-21
-1.66836e-23
3.95167e-07
-6.70547e-18
-2.57171e-22
-5.1332e-21
-1.70341e-23
4.33718e-07
-6.70465e-18
-2.60044e-22
-5.66332e-21
-1.73909e-23
4.72941e-07
-6.70381e-18
-2.62946e-22
-6.15481e-21
-1.77536e-23
5.12836e-07
-6.70296e-18
-2.65875e-22
-6.76736e-21
-1.81225e-23
5.53401e-07
-6.70192e-18
-2.68833e-22
-7.33441e-21
-1.84971e-23
5.94635e-07
-6.7011e-18
-2.7182e-22
-7.91367e-21
-1.88776e-23
6.36538e-07
-6.70049e-18
-2.74834e-22
-8.56892e-21
-1.92638e-23
6.79109e-07
-6.69957e-18
-2.77877e-22
-8.90682e-21
-1.96558e-23
7.22344e-07
-6.69883e-18
-2.80948e-22
-9.40526e-21
-2.00542e-23
7.66243e-07
-6.69797e-18
-2.84048e-22
-1.00149e-20
-2.04588e-23
8.10804e-07
-6.6972e-18
-2.87176e-22
-1.05153e-20
-2.08699e-23
8.56024e-07
-6.69631e-18
-2.90333e-22
-1.10139e-20
-2.12874e-23
9.01901e-07
-6.69571e-18
-2.93519e-22
-1.16118e-20
-2.17119e-23
9.48432e-07
-6.6948e-18
-2.96734e-22
-1.20348e-20
-2.21434e-23
9.95615e-07
-6.69371e-18
-2.99977e-22
-1.29418e-20
-2.2583e-23
1.04345e-06
-6.69277e-18
-3.0325e-22
-1.35879e-20
-2.30289e-23
1.09192e-06
-6.69193e-18
-3.06552e-22
-1.43384e-20
-2.3481e-23
1.14104e-06
-6.69099e-18
-3.09884e-22
-1.50308e-20
-2.39396e-23
1.19079e-06
-6.68967e-18
-3.13247e-22
-1.60016e-20
-2.44046e-23
1.24118e-06
-6.68874e-18
-3.16644e-22
-1.66639e-20
-2.48741e-23
1.2922e-06
-6.68777e-18
-3.20072e-22
-1.7342e-20
-2.53498e-23
1.34384e-06
-6.68705e-18
-3.23531e-22
-1.8137e-20
-2.5831e-23
1.39611e-06
-6.68595e-18
-3.27023e-22
-1.90172e-20
-2.63179e-23
1.44899e-06
-6.68457e-18
-3.30547e-22
-2.01791e-20
-2.68095e-23
1.50248e-06
-6.68341e-18
-3.34105e-22
-2.1033e-20
-2.73049e-23
1.55658e-06
-6.68259e-18
-3.37696e-22
-2.16916e-20
-2.78047e-23
1.61128e-06
-6.68158e-18
-3.41321e-22
-2.26269e-20
-2.83103e-23
1.66658e-06
-6.68054e-18
-3.4498e-22
-2.34035e-20
-2.88208e-23
1.72247e-06
-6.67952e-18
-3.48673e-22
-2.42911e-20
-2.93351e-23
1.77895e-06
-6.67827e-18
-3.52399e-22
-2.51586e-20
-2.98531e-23
1.836e-06
-6.67757e-18
-3.5616e-22
-2.55987e-20
-3.03759e-23
1.89363e-06
-6.67634e-18
-3.59955e-22
-2.64632e-20
-3.09054e-23
1.95182e-06
-6.67502e-18
-3.63784e-22
-2.74074e-20
-3.14404e-23
2.01058e-06
-6.67392e-18
-3.67645e-22
-2.83829e-20
-3.19814e-23
2.0699e-06
-6.67278e-18
-3.71539e-22
-2.90931e-20
-3.25307e-23
2.12976e-06
-6.67128e-18
-3.75464e-22
-3.00649e-20
-3.30897e-23
2.19017e-06
-6.67069e-18
-3.79423e-22
-3.05668e-20
-3.3653e-23
2.25111e-06
-6.66927e-18
-3.83413e-22
-3.15349e-20
-3.42248e-23
2.31258e-06
-6.66812e-18
-3.87439e-22
-3.27312e-20
-3.48044e-23
2.37458e-06
-6.66686e-18
-3.91498e-22
-3.31385e-20
-3.53931e-23
2.43709e-06
-6.66589e-18
-3.95589e-22
-3.41435e-20
-3.59906e-23
2.50011e-06
-6.66474e-18
-3.9971e-22
-3.49566e-20
-3.6595e-23
2.56363e-06
-6.66346e-18
-4.03866e-22
-3.60149e-20
-3.72081e-23
2.62765e-06
-6.66182e-18
-4.08053e-22
-3.71529e-20
-3.783e-23
2.69216e-06
-6.66048e-18
-4.12276e-22
-3.83376e-20
-3.84606e-23
2.75714e-06
-6.65895e-18
-4.16536e-22
-3.93186e-20
-3.90976e-23
2.82261e-06
-6.65779e-18
-4.20831e-22
-4.02776e-20
-3.97417e-23
2.88853e-06
-6.65685e-18
-4.25162e-22
-4.0466e-20
-4.03917e-23
2.95492e-06
-6.65559e-18
-4.29528e-22
-4.15502e-20
-4.10498e-23
3.02176e-06
-6.65416e-18
-4.33933e-22
-4.29079e-20
-4.17092e-23
3.08905e-06
-6.6537e-18
-4.38379e-22
-4.31142e-20
-4.23705e-23
3.15677e-06
-6.65247e-18
-4.42862e-22
-4.42168e-20
-4.30398e-23
3.22492e-06
-6.6506e-18
-4.47387e-22
-4.53886e-20
-4.37087e-23
3.2935e-06
-6.64916e-18
-4.51955e-22
-4.67503e-20
-4.43781e-23
3.36249e-06
-6.64828e-18
-4.56565e-22
-4.72509e-20
-4.50497e-23
3.43189e-06
-6.64693e-18
-4.61211e-22
-4.77779e-20
-4.57237e-23
3.50169e-06
-6.64478e-18
-4.65897e-22
-4.89634e-20
-4.64035e-23
3.57188e-06
-6.64234e-18
-4.70628e-22
-5.03467e-20
-4.70841e-23
3.64246e-06
-6.64073e-18
-4.75403e-22
-5.17874e-20
-4.77638e-23
3.71343e-06
-6.63926e-18
-4.80219e-22
-5.29377e-20
-4.84459e-23
3.78476e-06
-6.63803e-18
-4.85073e-22
-5.44829e-20
-4.91309e-23
3.85646e-06
-6.63623e-18
-4.89964e-22
-5.59868e-20
-4.98169e-23
3.92852e-06
-6.63426e-18
-4.94893e-22
-5.7615e-20
-5.05024e-23
4.00093e-06
-6.63251e-18
-4.99864e-22
-5.89165e-20
-5.11901e-23
4.07368e-06
-6.63121e-18
-5.04875e-22
-6.08584e-20
-5.18902e-23
4.14677e-06
-6.63012e-18
-5.09919e-22
-6.23189e-20
-5.2589e-23
4.2202e-06
-6.62771e-18
-5.14996e-22
-6.35772e-20
-5.32954e-23
4.29395e-06
-6.62615e-18
-5.20113e-22
-6.51054e-20
-5.40119e-23
4.36801e-06
-6.62308e-18
-5.25267e-22
-6.70392e-20
-5.47355e-23
4.44239e-06
-6.62125e-18
-5.30468e-22
-6.89976e-20
-5.54586e-23
4.51708e-06
-6.61897e-18
-5.35702e-22
-7.02998e-20
-5.61849e-23
4.59206e-06
-6.61682e-18
-5.40968e-22
-7.1803e-20
-5.69211e-23
4.66734e-06
-6.61492e-18
-5.4627e-22
-7.32589e-20
-5.7675e-23
4.74291e-06
-6.61285e-18
-5.51606e-22
-7.53308e-20
-5.84471e-23
4.81876e-06
-6.61019e-18
-5.56988e-22
-7.72648e-20
-5.92171e-23
4.89488e-06
-6.60835e-18
-5.62408e-22
-7.93716e-20
-5.99864e-23
4.97128e-06
-6.60627e-18
-5.67876e-22
-8.06699e-20
-6.07632e-23
5.04794e-06
-6.60307e-18
-5.73387e-22
-8.39126e-20
-6.1552e-23
5.12486e-06
-6.6002e-18
-5.78947e-22
-8.48749e-20
-6.23361e-23
5.20204e-06
-6.59754e-18
-5.84558e-22
-8.69215e-20
-6.31261e-23
5.27947e-06
-6.59494e-18
-5.90215e-22
-8.80331e-20
-6.39044e-23
5.35714e-06
-6.59167e-18
-5.95924e-22
-9.14046e-20
-6.46821e-23
5.43506e-06
-6.58931e-18
-6.01694e-22
-9.29805e-20
-6.54343e-23
5.51321e-06
-6.58778e-18
-6.07532e-22
-9.53786e-20
-6.6175e-23
5.59159e-06
-6.58368e-18
-6.1342e-22
-9.70876e-20
-6.68922e-23
5.67021e-06
-6.58111e-18
-6.19384e-22
-9.96882e-20
-6.7589e-23
5.74904e-06
-6.57864e-18
-6.25398e-22
-1.01999e-19
-6.82635e-23
5.8281e-06
-6.577e-18
-6.31479e-22
-1.03518e-19
-6.89288e-23
5.90738e-06
-6.57425e-18
-6.37605e-22
-1.05389e-19
-6.95722e-23
5.98687e-06
-6.57214e-18
-6.43787e-22
-1.0733e-19
-7.01884e-23
6.06657e-06
-6.56972e-18
-6.50013e-22
-1.10077e-19
-7.07918e-23
6.14649e-06
-6.56636e-18
-6.56307e-22
-1.1237e-19
-7.13684e-23
6.2266e-06
-6.56394e-18
-6.6267e-22
-1.14077e-19
-7.19226e-23
6.30692e-06
-6.56199e-18
-6.69087e-22
-1.13658e-19
-7.24637e-23
6.38744e-06
-6.56155e-18
-6.75556e-22
-1.14957e-19
-7.29946e-23
6.46816e-06
-6.55998e-18
-6.82061e-22
-1.15475e-19
-7.35049e-23
6.54908e-06
-6.55861e-18
-6.88612e-22
-1.16728e-19
-7.40307e-23
6.63019e-06
-6.55647e-18
-6.952e-22
-1.17006e-19
-7.4554e-23
6.71149e-06
-6.555e-18
-7.01839e-22
-1.17307e-19
-7.50686e-23
6.79299e-06
-6.55321e-18
-7.0853e-22
-1.17308e-19
-7.55771e-23
6.87468e-06
-6.5515e-18
-7.15261e-22
-1.19082e-19
-7.60959e-23
6.95655e-06
-6.54963e-18
-7.22043e-22
-1.19682e-19
-7.66172e-23
7.03862e-06
-6.54658e-18
-7.28875e-22
-1.20985e-19
-7.712e-23
7.12087e-06
-6.54509e-18
-7.35771e-22
-1.22395e-19
-7.76031e-23
7.20332e-06
-6.54289e-18
-7.42719e-22
-1.23306e-19
-7.80765e-23
7.28595e-06
-6.54104e-18
-7.49723e-22
-1.24616e-19
-7.85292e-23
7.36877e-06
-6.53729e-18
-7.56765e-22
-1.25808e-19
-7.89684e-23
7.45177e-06
-6.53653e-18
-7.6388e-22
-1.25566e-19
-7.94082e-23
7.53497e-06
-6.53386e-18
-7.71028e-22
-1.26787e-19
-7.98523e-23
7.61836e-06
-6.53156e-18
-7.78201e-22
-1.27237e-19
-8.02836e-23
7.70194e-06
-6.52652e-18
-7.85406e-22
-1.2885e-19
-8.07126e-23
7.7857e-06
-6.52174e-18
-7.92706e-22
-1.31829e-19
-8.11618e-23
7.86967e-06
-6.51752e-18
-8.0008e-22
-1.35889e-19
-8.15541e-23
7.95382e-06
-6.51377e-18
-8.07556e-22
-1.39759e-19
-8.18674e-23
8.03817e-06
-6.51135e-18
-8.15145e-22
-1.42091e-19
-8.20995e-23
8.12272e-06
-6.5068e-18
-8.22834e-22
-1.4705e-19
-8.22947e-23
8.20747e-06
-6.50333e-18
-8.30633e-22
-1.50196e-19
-8.24198e-23
8.29242e-06
-6.49725e-18
-8.38505e-22
-1.53777e-19
-8.24962e-23
8.37758e-06
-6.49193e-18
-8.46549e-22
-1.58417e-19
-8.25008e-23
8.46294e-06
-6.48745e-18
-8.54738e-22
-1.60763e-19
-8.24115e-23
8.54851e-06
-6.48614e-18
-8.6303e-22
-1.62419e-19
-8.23016e-23
8.6343e-06
-6.48571e-18
-8.71409e-22
-1.61938e-19
-8.21415e-23
8.7203e-06
-6.48527e-18
-8.79861e-22
-1.61598e-19
-8.19847e-23
8.80652e-06
-6.48634e-18
-8.88387e-22
-1.60289e-19
-8.18294e-23
8.89296e-06
-6.48165e-18
-8.9698e-22
-1.62028e-19
-8.16531e-23
8.97963e-06
-6.48147e-18
-9.05692e-22
-1.62414e-19
-8.14603e-23
9.06652e-06
-6.47874e-18
-9.14482e-22
-1.62477e-19
-8.12683e-23
9.15365e-06
-6.47664e-18
-9.23402e-22
-1.6364e-19
-8.10434e-23
9.24102e-06
-6.47741e-18
-9.32441e-22
-1.61965e-19
-8.07524e-23
9.32863e-06
-6.47742e-18
-9.4154e-22
-1.64684e-19
-8.04594e-23
9.41649e-06
-6.47231e-18
-9.50722e-22
-1.67528e-19
-8.00991e-23
9.5046e-06
-6.4712e-18
-9.60062e-22
-1.69051e-19
-7.96601e-23
9.59296e-06
-6.4693e-18
-9.69447e-22
-1.67551e-19
-7.91331e-23
9.68159e-06
-6.46626e-18
-9.78901e-22
-1.69929e-19
-7.85968e-23
9.77048e-06
-6.46154e-18
-9.88455e-22
-1.73436e-19
-7.80279e-23
9.85964e-06
-6.45982e-18
-9.98157e-22
-1.74835e-19
-7.7352e-23
9.94907e-06
-6.45604e-18
-1.00793e-21
-1.76803e-19
-7.66145e-23
1.00388e-05
-6.45377e-18
-1.01781e-21
-1.80058e-19
-7.58221e-23
1.01288e-05
-6.45165e-18
-1.02776e-21
-1.81805e-19
-7.49511e-23
1.02191e-05
-6.44749e-18
-1.03774e-21
-1.84234e-19
-7.40385e-23
1.03097e-05
-6.44551e-18
-1.04783e-21
-1.86153e-19
-7.30734e-23
1.04006e-05
-6.44173e-18
-1.05799e-21
-1.88533e-19
-7.20763e-23
1.04918e-05
-6.4382e-18
-1.06817e-21
-1.89435e-19
-7.10363e-23
1.05833e-05
-6.43443e-18
-1.07844e-21
-1.90532e-19
-6.9995e-23
1.06752e-05
-6.43205e-18
-1.08877e-21
-1.92185e-19
-6.9003e-23
1.07673e-05
-6.4279e-18
-1.09914e-21
-1.92126e-19
-6.80127e-23
1.08598e-05
-6.42428e-18
-1.10963e-21
-1.93105e-19
-6.70489e-23
1.09527e-05
-6.41973e-18
-1.12018e-21
-1.95408e-19
-6.6124e-23
1.10459e-05
-6.4171e-18
-1.13084e-21
-1.9506e-19
-6.52017e-23
1.11394e-05
-6.41374e-18
-1.14163e-21
-1.96286e-19
-6.43329e-23
1.12334e-05
-6.41066e-18
-1.15257e-21
-1.98515e-19
-6.34371e-23
1.13276e-05
-6.40576e-18
-1.16364e-21
-1.99964e-19
-6.24284e-23
1.14223e-05
-6.40228e-18
-1.17487e-21
-2.01593e-19
-6.13952e-23
1.15173e-05
-6.39796e-18
-1.18625e-21
-2.02161e-19
-6.03637e-23
1.16128e-05
-6.39186e-18
-1.19777e-21
-2.03968e-19
-5.92958e-23
1.17086e-05
-6.3882e-18
-1.20952e-21
-2.0407e-19
-5.81277e-23
1.18048e-05
-6.38205e-18
-1.22137e-21
-2.06684e-19
-5.69938e-23
1.19014e-05
-6.37684e-18
-1.23342e-21
-2.10001e-19
-5.5836e-23
1.19985e-05
-6.37131e-18
-1.24556e-21
-2.13508e-19
-5.45842e-23
1.2096e-05
-6.36486e-18
-1.25794e-21
-2.16007e-19
-5.32468e-23
1.21939e-05
-6.35783e-18
-1.27044e-21
-2.18274e-19
-5.18705e-23
1.22922e-05
-6.35354e-18
-1.28308e-21
-2.22022e-19
-5.04328e-23
1.2391e-05
-6.34718e-18
-1.29587e-21
-2.26352e-19
-4.88706e-23
1.24903e-05
-6.33979e-18
-1.30886e-21
-2.28483e-19
-4.71259e-23
1.259e-05
-6.33383e-18
-1.32209e-21
-2.30657e-19
-4.53284e-23
1.26902e-05
-6.33156e-18
-1.33561e-21
-2.35471e-19
-4.33772e-23
1.27909e-05
-6.32475e-18
-1.34922e-21
-2.39501e-19
-4.12059e-23
1.2892e-05
-6.3189e-18
-1.36304e-21
-2.44158e-19
-3.89071e-23
1.29937e-05
-6.31379e-18
-1.37707e-21
-2.47925e-19
-3.65229e-23
1.30958e-05
-6.30888e-18
-1.39125e-21
-2.52095e-19
-3.3993e-23
1.31985e-05
-6.30612e-18
-1.40555e-21
-2.53408e-19
-3.13261e-23
1.33017e-05
-6.30205e-18
-1.41992e-21
-2.56597e-19
-2.86303e-23
1.34054e-05
-6.29857e-18
-1.43452e-21
-2.58236e-19
-2.58008e-23
1.35096e-05
-6.29655e-18
-1.4492e-21
-2.6094e-19
-2.28531e-23
1.36144e-05
-6.29232e-18
-1.46393e-21
-2.63462e-19
-1.97367e-23
1.37197e-05
-6.28892e-18
-1.47875e-21
-2.65189e-19
-1.65914e-23
1.38256e-05
-6.28551e-18
-1.4936e-21
-2.65826e-19
-1.33594e-23
1.39321e-05
-6.28152e-18
-1.50846e-21
-2.67623e-19
-1.00816e-23
1.40391e-05
-6.27566e-18
-1.52333e-21
-2.719e-19
-6.74129e-24
1.41467e-05
-6.2729e-18
-1.53834e-21
-2.74246e-19
-3.28266e-24
1.42549e-05
-6.26897e-18
-1.5533e-21
-2.76536e-19
3.3162e-25
1.43637e-05
-6.26693e-18
-1.56828e-21
-2.80467e-19
4.04948e-24
1.44731e-05
-6.26114e-18
-1.58316e-21
-2.83985e-19
7.82165e-24
1.45831e-05
-6.25741e-18
-1.5981e-21
-2.88262e-19
1.1677e-23
1.46937e-05
-6.25359e-18
-1.61296e-21
-2.92188e-19
1.56585e-23
1.4805e-05
-6.24739e-18
-1.62772e-21
-2.95799e-19
1.98289e-23
1.49169e-05
-6.23892e-18
-1.64244e-21
-3.00213e-19
2.40598e-23
1.50294e-05
-6.23351e-18
-1.65716e-21
-3.02682e-19
2.83565e-23
1.51426e-05
-6.22771e-18
-1.67167e-21
-3.07116e-19
3.26243e-23
1.52565e-05
-6.22244e-18
-1.68594e-21
-3.12024e-19
3.69472e-23
1.5371e-05
-6.21613e-18
-1.69997e-21
-3.16119e-19
4.13951e-23
1.54862e-05
-6.20636e-18
-1.71374e-21
-3.18778e-19
4.60675e-23
1.56021e-05
-6.19761e-18
-1.72721e-21
-3.21772e-19
5.07438e-23
1.57187e-05
-6.18863e-18
-1.74029e-21
-3.27171e-19
5.54327e-23
1.5836e-05
-6.1825e-18
-1.75292e-21
-3.31303e-19
6.02253e-23
1.5954e-05
-6.1744e-18
-1.76528e-21
-3.34433e-19
6.52592e-23
1.60727e-05
-6.16551e-18
-1.77724e-21
-3.40729e-19
7.03839e-23
1.61922e-05
-6.15695e-18
-1.7886e-21
-3.444e-19
7.55105e-23
1.63124e-05
-6.14988e-18
-1.79947e-21
-3.49663e-19
8.06321e-23
1.64333e-05
-6.13973e-18
-1.8096e-21
-3.53761e-19
8.56815e-23
1.6555e-05
-6.12873e-18
-1.81892e-21
-3.58305e-19
9.06032e-23
1.66774e-05
-6.12426e-18
-1.82745e-21
-3.66334e-19
9.56247e-23
1.68007e-05
-6.11535e-18
-1.83511e-21
-3.70333e-19
1.00756e-22
1.69246e-05
-6.11043e-18
-1.8419e-21
-3.74608e-19
1.05651e-22
1.70494e-05
-6.10239e-18
-1.84729e-21
-3.82602e-19
1.10571e-22
1.7175e-05
-6.09515e-18
-1.85129e-21
-3.86068e-19
1.15666e-22
1.73014e-05
-6.09385e-18
-1.85383e-21
-3.89911e-19
1.20558e-22
1.74285e-05
-6.08491e-18
-1.85447e-21
-3.94355e-19
1.25341e-22
1.75565e-05
-6.07753e-18
-1.85362e-21
-4.02304e-19
1.30096e-22
1.76853e-05
-6.0717e-18
-1.85106e-21
-4.08393e-19
1.34825e-22
1.7815e-05
-6.0638e-18
-1.84655e-21
-4.08842e-19
1.39511e-22
1.79455e-05
-6.05599e-18
-1.84021e-21
-4.15183e-19
1.43891e-22
1.80769e-05
-6.05061e-18
-1.83196e-21
-4.2268e-19
1.48167e-22
1.82091e-05
-6.04315e-18
-1.8214e-21
-4.25925e-19
1.52264e-22
1.83422e-05
-6.03734e-18
-1.80859e-21
-4.31952e-19
1.55923e-22
1.84761e-05
-6.02876e-18
-1.79328e-21
-4.40321e-19
1.59241e-22
1.8611e-05
-6.02125e-18
-1.77557e-21
-4.43018e-19
1.6247e-22
1.87467e-05
-6.01534e-18
-1.75532e-21
-4.48723e-19
1.65305e-22
1.88834e-05
-6.01402e-18
-1.73221e-21
-4.5254e-19
1.67892e-22
1.90209e-05
-6.0075e-18
-1.70599e-21
-4.5612e-19
1.70091e-22
1.91594e-05
-6.00532e-18
-1.67709e-21
-4.63355e-19
1.71604e-22
1.92988e-05
-5.99761e-18
-1.64542e-21
-4.67273e-19
1.73123e-22
1.94392e-05
-5.99283e-18
-1.61153e-21
-4.71859e-19
1.74231e-22
1.95805e-05
-5.98392e-18
-1.57495e-21
-4.75471e-19
1.74691e-22
1.97228e-05
-5.97524e-18
-1.53612e-21
-4.7947e-19
1.74408e-22
1.98661e-05
-5.97107e-18
-1.49561e-21
-4.83277e-19
1.73753e-22
2.00103e-05
-5.96359e-18
-1.4532e-21
-4.87033e-19
1.72727e-22
2.01555e-05
-5.95666e-18
-1.40918e-21
-4.89987e-19
1.71208e-22
2.03018e-05
-5.95461e-18
-1.36356e-21
-4.90602e-19
1.69211e-22
2.0449e-05
-5.94914e-18
-1.31617e-21
-4.92679e-19
1.66753e-22
2.05973e-05
-5.9362e-18
-1.26828e-21
-4.96628e-19
1.63635e-22
2.07466e-05
-5.93437e-18
-1.22087e-21
-5.03085e-19
1.60638e-22
2.0897e-05
-5.92839e-18
-1.17274e-21
-5.06508e-19
1.57628e-22
2.10484e-05
-5.92352e-18
-1.12463e-21
-5.11353e-19
1.54453e-22
2.12009e-05
-5.9208e-18
-1.07699e-21
-5.12004e-19
1.51429e-22
2.13544e-05
-5.91869e-18
-1.03003e-21
-5.14135e-19
1.4832e-22
2.1509e-05
-5.92198e-18
-9.83592e-22
-5.12556e-19
1.45112e-22
2.16648e-05
-5.91931e-18
-9.37841e-22
-5.09085e-19
1.4174e-22
2.18216e-05
-5.91683e-18
-8.93738e-22
-5.10917e-19
1.38307e-22
2.19796e-05
-5.91643e-18
-8.51167e-22
-5.1211e-19
1.34869e-22
2.21387e-05
-5.91456e-18
-8.10122e-22
-5.13441e-19
1.31678e-22
2.22989e-05
-5.91511e-18
-7.71135e-22
-5.13077e-19
1.2904e-22
2.24603e-05
-5.91393e-18
-7.33794e-22
-5.12855e-19
1.26638e-22
2.26228e-05
-5.91248e-18
-6.98549e-22
-5.12852e-19
1.247e-22
2.27865e-05
-5.9145e-18
-6.65486e-22
-5.1154e-19
1.22359e-22
2.29514e-05
-5.90597e-18
-6.34307e-22
-5.19092e-19
1.20236e-22
2.31174e-05
-5.90971e-18
-6.05704e-22
-5.22056e-19
1.19424e-22
2.32847e-05
-5.90339e-18
-5.78588e-22
-5.29112e-19
1.18715e-22
2.34532e-05
-5.89637e-18
-5.54312e-22
-5.36399e-19
1.18948e-22
2.36228e-05
-5.89117e-18
-5.31675e-22
-5.49925e-19
1.18796e-22
2.37937e-05
-5.88801e-18
-5.10952e-22
-5.54282e-19
1.19757e-22
2.39659e-05
-5.88281e-18
-4.92328e-22
-5.58035e-19
1.21513e-22
2.41392e-05
-5.87617e-18
-4.75532e-22
-5.64489e-19
1.23789e-22
2.43139e-05
-5.8724e-18
-4.59762e-22
-5.62952e-19
1.264e-22
2.44898e-05
-5.86786e-18
-4.44905e-22
-5.67062e-19
1.27867e-22
2.46669e-05
-5.87085e-18
-4.31266e-22
-5.70179e-19
1.2967e-22
2.48454e-05
-5.86791e-18
-4.17336e-22
-5.77008e-19
1.31313e-22
2.50251e-05
-5.86291e-18
-4.04428e-22
-5.79394e-19
1.33305e-22
2.52061e-05
-5.8633e-18
-3.93075e-22
-5.83347e-19
1.35573e-22
2.53885e-05
-5.85906e-18
-3.82148e-22
-5.79776e-19
1.38117e-22
2.55721e-05
-5.86328e-18
-3.72271e-22
-5.84539e-19
1.40695e-22
2.57571e-05
-5.85755e-18
-3.6261e-22
-5.86014e-19
1.43657e-22
2.59434e-05
-5.85645e-18
-3.54963e-22
-5.886e-19
1.46794e-22
2.61311e-05
-5.85817e-18
-3.48013e-22
-5.93074e-19
1.50393e-22
2.63201e-05
-5.86019e-18
-3.41718e-22
-5.96612e-19
1.54317e-22
2.65105e-05
-5.85703e-18
-3.35288e-22
-5.98493e-19
1.57632e-22
2.67023e-05
-5.85245e-18
-3.30265e-22
-6.00924e-19
1.6052e-22
2.68955e-05
-5.84925e-18
-3.26199e-22
-5.99414e-19
1.63313e-22
2.70901e-05
-5.84346e-18
-3.22713e-22
-5.99719e-19
1.6519e-22
2.7286e-05
-5.84421e-18
-3.19501e-22
-6.03312e-19
1.66402e-22
2.74834e-05
-5.84053e-18
-3.15843e-22
-6.08685e-19
1.67857e-22
2.76822e-05
-5.84024e-18
-3.11614e-22
-6.02587e-19
1.68649e-22
2.78825e-05
-5.83818e-18
-3.06803e-22
-6.05658e-19
1.67875e-22
2.80842e-05
-5.83421e-18
-3.01149e-22
-6.09808e-19
1.67005e-22
2.82874e-05
-5.82682e-18
-2.96011e-22
-6.19658e-19
1.66111e-22
2.8492e-05
-5.82082e-18
-2.9132e-22
-6.21855e-19
1.66393e-22
2.86982e-05
-5.81929e-18
-2.86571e-22
-6.25409e-19
1.65794e-22
2.89058e-05
-5.81734e-18
-2.8195e-22
-6.2059e-19
1.65483e-22
2.91149e-05
-5.80825e-18
-2.77023e-22
-6.28182e-19
1.64366e-22
2.93255e-05
-5.81316e-18
-2.73644e-22
-6.32965e-19
1.63925e-22
2.95377e-05
-5.81791e-18
-2.68928e-22
-6.29021e-19
1.63374e-22
2.97514e-05
-5.81036e-18
-2.62039e-22
-6.35715e-19
1.62555e-22
2.99666e-05
-5.80532e-18
-2.55486e-22
-6.39843e-19
1.6149e-22
3.01835e-05
-5.80425e-18
-2.48863e-22
-6.43501e-19
1.60552e-22
3.04018e-05
-5.80235e-18
-2.40695e-22
-6.44513e-19
1.58438e-22
3.06218e-05
-5.79979e-18
-2.31859e-22
-6.47647e-19
1.56406e-22
3.08433e-05
-5.79243e-18
-2.21535e-22
-6.51443e-19
1.54291e-22
3.10665e-05
-5.79534e-18
-2.12348e-22
-6.51278e-19
1.53118e-22
3.12913e-05
-5.78857e-18
-2.0389e-22
-6.4183e-19
1.52694e-22
3.15177e-05
-5.79249e-18
-1.96596e-22
-6.46713e-19
1.52181e-22
3.17457e-05
-5.79135e-18
-1.89075e-22
-6.45383e-19
1.5124e-22
3.19754e-05
-5.7873e-18
-1.81631e-22
-6.41499e-19
1.49844e-22
3.22068e-05
-5.77114e-18
-1.74026e-22
-6.58622e-19
1.47515e-22
3.24398e-05
-5.77016e-18
-1.69535e-22
-6.61566e-19
1.49098e-22
3.26745e-05
-5.76732e-18
-1.65501e-22
-6.65895e-19
1.50243e-22
3.29109e-05
-5.76059e-18
-1.61581e-22
-6.6822e-19
1.53154e-22
3.31491e-05
-5.75845e-18
-1.58604e-22
-6.6856e-19
1.56354e-22
3.33889e-05
-5.75607e-18
-1.55756e-22
-6.60841e-19
1.5913e-22
3.36305e-05
-5.75768e-18
-1.52669e-22
-6.62913e-19
1.59868e-22
3.38739e-05
-5.74885e-18
-1.47339e-22
-6.64535e-19
1.61333e-22
3.4119e-05
-5.74621e-18
-1.43313e-22
-6.67304e-19
1.6418e-22
3.43659e-05
-5.74861e-18
-1.40131e-22
-6.67289e-19
1.67317e-22
3.46145e-05
-5.74333e-18
-1.36399e-22
-6.62081e-19
1.70496e-22
3.4865e-05
-5.74073e-18
-1.35774e-22
-6.73461e-19
1.73582e-22
3.51173e-05
-5.73383e-18
-1.33717e-22
-6.7282e-19
1.78307e-22
3.53714e-05
-5.74249e-18
-1.3355e-22
-6.81704e-19
1.84201e-22
3.56274e-05
-5.73807e-18
-1.33018e-22
-6.74997e-19
1.91458e-22
3.58852e-05
-5.72962e-18
-1.33223e-22
-6.78175e-19
1.9707e-22
3.61449e-05
-5.73316e-18
-1.39444e-22
-6.80116e-19
2.04503e-22
3.64064e-05
-5.73282e-18
-1.44777e-22
-6.8452e-19
2.13269e-22
3.66699e-05
-5.72613e-18
-1.51372e-22
-6.87383e-19
2.22415e-22
3.69353e-05
-5.74034e-18
-1.58406e-22
-6.76316e-19
2.29595e-22
3.72026e-05
-5.73784e-18
-1.60949e-22
-6.803e-19
2.3337e-22
3.74718e-05
-5.73465e-18
-1.65342e-22
-6.86257e-19
2.35557e-22
3.7743e-05
-5.72708e-18
-1.68117e-22
-6.8998e-19
2.36081e-22
3.80161e-05
-5.72467e-18
-1.71236e-22
-6.84406e-19
2.34702e-22
3.82913e-05
-5.71987e-18
-1.7376e-22
-6.89385e-19
2.30373e-22
3.85684e-05
-5.71731e-18
-1.78727e-22
-6.86129e-19
2.25208e-22
3.88475e-05
-5.71288e-18
-1.82975e-22
-6.94345e-19
2.16869e-22
3.91287e-05
-5.71435e-18
-1.8763e-22
-6.93353e-19
2.09021e-22
3.94118e-05
-5.71445e-18
-1.90181e-22
-6.96392e-19
1.98309e-22
3.96971e-05
-5.70494e-18
-1.91885e-22
-6.98241e-19
1.86813e-22
3.99844e-05
-5.70209e-18
-1.96863e-22
-7.00063e-19
1.74836e-22
4.02738e-05
-5.68211e-18
-2.01925e-22
-7.19894e-19
1.61293e-22
4.05653e-05
-5.67773e-18
-2.1386e-22
-7.24028e-19
1.53248e-22
4.08589e-05
-5.67471e-18
-2.25214e-22
-7.2671e-19
1.45174e-22
4.11546e-05
-5.6699e-18
-2.35221e-22
-7.28005e-19
1.35232e-22
4.14525e-05
-5.67859e-18
-2.44373e-22
-7.36236e-19
1.25194e-22
4.17525e-05
-5.68587e-18
-2.50162e-22
-7.32231e-19
1.16381e-22
4.20548e-05
-5.68075e-18
-2.51649e-22
-7.35166e-19
1.05972e-22
4.23592e-05
-5.67621e-18
-2.51731e-22
-7.41944e-19
9.81694e-23
4.26658e-05
-5.66893e-18
-2.53892e-22
-7.48223e-19
9.34953e-23
4.29746e-05
-5.66065e-18
-2.56428e-22
-7.52142e-19
8.96986e-23
4.32857e-05
-5.65803e-18
-2.59561e-22
-7.5629e-19
8.72296e-23
4.3599e-05
-5.64997e-18
-2.63734e-22
-7.59329e-19
8.34708e-23
4.39146e-05
-5.64395e-18
-2.69837e-22
-7.5654e-19
7.79386e-23
4.42325e-05
-5.64187e-18
-2.74566e-22
-7.60819e-19
6.99062e-23
4.45527e-05
-5.63565e-18
-2.80653e-22
-7.6483e-19
6.52841e-23
4.48752e-05
-5.62811e-18
-2.88824e-22
-7.71665e-19
6.57788e-23
4.52001e-05
-5.62249e-18
-3.00522e-22
-7.70681e-19
6.6772e-23
4.55273e-05
-5.61627e-18
-3.10303e-22
-7.77625e-19
6.44682e-23
4.58569e-05
-5.61251e-18
-3.19444e-22
-7.78866e-19
5.98476e-23
4.61888e-05
-5.60137e-18
-3.33249e-22
-7.9348e-19
5.90546e-23
4.65232e-05
-5.59008e-18
-3.51023e-22
-7.9881e-19
6.25291e-23
4.686e-05
-5.59202e-18
-3.71551e-22
-8.07033e-19
6.57313e-23
4.71993e-05
-5.58655e-18
-3.9136e-22
-8.09404e-19
6.89064e-23
4.7541e-05
-5.58176e-18
-4.08954e-22
-8.16922e-19
6.69112e-23
4.78852e-05
-5.57014e-18
-4.21989e-22
-8.25053e-19
6.57224e-23
4.82319e-05
-5.5679e-18
-4.40353e-22
-8.30836e-19
6.94358e-23
4.85811e-05
-5.55703e-18
-4.57412e-22
-8.47542e-19
7.47284e-23
4.89328e-05
-5.55024e-18
-4.76758e-22
-8.44449e-19
8.87237e-23
4.92871e-05
-5.54133e-18
-4.97745e-22
-8.54012e-19
9.73749e-23
4.96439e-05
-5.53208e-18
-5.20213e-22
-8.6392e-19
1.06592e-22
5.00034e-05
-5.5337e-18
-5.44265e-22
-8.6498e-19
1.25123e-22
5.03655e-05
-5.52111e-18
-5.62851e-22
-8.58344e-19
1.42181e-22
5.07301e-05
-5.5123e-18
-5.85789e-22
-8.6853e-19
1.53524e-22
5.10975e-05
-5.51916e-18
-6.08796e-22
-8.62835e-19
1.66265e-22
5.14675e-05
-5.50176e-18
-6.26149e-22
-8.73776e-19
1.75614e-22
5.18402e-05
-5.49201e-18
-6.5277e-22
-8.81886e-19
1.97483e-22
5.22155e-05
-5.47254e-18
-6.79109e-22
-8.92273e-19
2.22487e-22
5.25937e-05
-5.47781e-18
-7.08507e-22
-8.84604e-19
2.50533e-22
5.29745e-05
-5.46545e-18
-7.36603e-22
-8.98988e-19
2.80004e-22
5.33581e-05
-5.46798e-18
-7.66172e-22
-8.94138e-19
3.10102e-22
5.37445e-05
-5.46088e-18
-7.87935e-22
-9.04316e-19
3.35267e-22
5.41337e-05
-5.4599e-18
-8.06633e-22
-9.05148e-19
3.65802e-22
5.45258e-05
-5.45363e-18
-8.23777e-22
-9.28678e-19
3.95898e-22
5.49207e-05
-5.43347e-18
-8.43599e-22
-9.49531e-19
4.43937e-22
5.53184e-05
-5.42273e-18
-8.76283e-22
-9.62795e-19
4.96288e-22
5.57191e-05
-5.40935e-18
-9.1584e-22
-9.77082e-19
5.45174e-22
5.61226e-05
-5.39332e-18
-9.61354e-22
-9.88887e-19
6.06258e-22
5.65291e-05
-5.38334e-18
-1.00978e-21
-9.88727e-19
6.73694e-22
5.69385e-05
-5.37719e-18
-1.05683e-21
-9.9122e-19
7.3738e-22
5.73509e-05
-5.38482e-18
-1.09898e-21
-9.89063e-19
8.00114e-22
5.77663e-05
-5.3884e-18
-1.12669e-21
-9.90199e-19
8.56902e-22
5.81847e-05
-5.39523e-18
-1.1496e-21
-9.7737e-19
9.0681e-22
5.86062e-05
-5.39957e-18
-1.16197e-21
-9.79182e-19
9.4473e-22
5.90307e-05
-5.39144e-18
-1.16824e-21
-9.80348e-19
9.79199e-22
5.94583e-05
-5.39814e-18
-1.18466e-21
-9.79014e-19
1.01317e-21
5.9889e-05
-5.39087e-18
-1.1904e-21
-9.82038e-19
1.03968e-21
6.03229e-05
-5.38546e-18
-1.19996e-21
-9.83834e-19
1.0667e-21
6.07599e-05
-5.38325e-18
-1.21159e-21
-9.73377e-19
1.09991e-21
6.12e-05
-5.35694e-18
-1.22424e-21
-1.00113e-18
1.1267e-21
6.16434e-05
-5.33945e-18
-1.26114e-21
-1.01037e-18
1.16413e-21
6.209e-05
-5.3382e-18
-1.30605e-21
-1.03211e-18
1.1936e-21
6.25398e-05
-5.32345e-18
-1.34168e-21
-1.04585e-18
1.22499e-21
6.29929e-05
-5.31088e-18
-1.37454e-21
-1.06335e-18
1.23353e-21
6.34493e-05
-5.28828e-18
-1.40455e-21
-1.08766e-18
1.2382e-21
6.3909e-05
-5.27108e-18
-1.4352e-21
-1.10572e-18
1.24241e-21
6.43721e-05
-5.25802e-18
-1.47467e-21
-1.10815e-18
1.25159e-21
6.48385e-05
-5.25063e-18
-1.51166e-21
-1.12635e-18
1.2478e-21
6.53083e-05
-5.20494e-18
-1.53682e-21
-1.16197e-18
1.22858e-21
6.57815e-05
-5.2079e-18
-1.57497e-21
-1.16143e-18
1.21945e-21
6.62582e-05
-5.18989e-18
-1.60204e-21
-1.18036e-18
1.20285e-21
6.67384e-05
-5.14355e-18
-1.62911e-21
-1.21611e-18
1.19099e-21
6.7222e-05
-5.13427e-18
-1.67095e-21
-1.22417e-18
1.19001e-21
6.77091e-05
-5.1084e-18
-1.71647e-21
-1.23857e-18
1.17266e-21
6.81998e-05
-5.1e-18
-1.77098e-21
-1.26597e-18
1.15734e-21
6.86941e-05
-5.07713e-18
-1.83095e-21
-1.28385e-18
1.15752e-21
6.91919e-05
-5.05085e-18
-1.89784e-21
-1.31481e-18
1.17201e-21
6.96934e-05
-5.02572e-18
-1.97536e-21
-1.32687e-18
1.19748e-21
7.01986e-05
-4.997e-18
-2.06964e-21
-1.35281e-18
1.2197e-21
7.07074e-05
-4.99352e-18
-2.16443e-21
-1.37503e-18
1.24089e-21
7.12199e-05
-4.96167e-18
-2.22478e-21
-1.40456e-18
1.25569e-21
7.17361e-05
-4.93614e-18
-2.29604e-21
-1.41196e-18
1.28067e-21
7.22561e-05
-4.91365e-18
-2.38694e-21
-1.44503e-18
1.30408e-21
7.27799e-05
-4.88992e-18
-2.4953e-21
-1.46425e-18
1.33411e-21
7.33075e-05
-4.89241e-18
-2.61422e-21
-1.45108e-18
1.36903e-21
7.38389e-05
-4.91113e-18
-2.73396e-21
-1.44727e-18
1.37272e-21
7.43742e-05
-4.91221e-18
-2.82249e-21
-1.4528e-18
1.34378e-21
7.49134e-05
-4.91361e-18
-2.88572e-21
-1.44335e-18
1.2989e-21
7.54566e-05
-4.90822e-18
-2.93109e-21
-1.44759e-18
1.2286e-21
7.60037e-05
-4.91008e-18
-2.96398e-21
-1.4448e-18
1.16031e-21
7.65547e-05
-4.90785e-18
-2.98244e-21
-1.4475e-18
1.06218e-21
7.71098e-05
-4.90219e-18
-2.98174e-21
-1.44887e-18
9.37596e-22
7.7669e-05
-4.89613e-18
-3.00781e-21
-1.42717e-18
8.11011e-22
7.82322e-05
-4.89037e-18
-3.06718e-21
-1.44215e-18
6.64718e-22
7.87995e-05
-4.90761e-18
-3.1655e-21
-1.44151e-18
5.66096e-22
7.93709e-05
-4.9015e-18
-3.24614e-21
-1.45511e-18
4.71001e-22
7.99465e-05
-4.91432e-18
-3.35265e-21
-1.43885e-18
4.12765e-22
8.05263e-05
-4.90513e-18
-3.45423e-21
-1.44368e-18
3.44065e-22
8.11104e-05
-4.88888e-18
-3.55085e-21
-1.43622e-18
2.88617e-22
8.16987e-05
-4.89312e-18
-3.64393e-21
-1.42682e-18
2.42776e-22
8.22912e-05
-4.88144e-18
-3.73059e-21
-1.4363e-18
2.18835e-22
8.28881e-05
-4.89912e-18
-3.85549e-21
-1.44109e-18
2.10574e-22
8.34894e-05
-4.91456e-18
-3.95299e-21
-1.43998e-18
2.26611e-22
8.4095e-05
-4.89836e-18
-4.01749e-21
-1.4563e-18
2.46999e-22
8.47051e-05
-4.88389e-18
-4.08185e-21
-1.45746e-18
3.09541e-22
8.53196e-05
-4.87588e-18
-4.15752e-21
-1.45052e-18
3.63108e-22
8.59386e-05
-4.86214e-18
-4.2247e-21
-1.46449e-18
3.5476e-22
8.65621e-05
-4.84138e-18
-4.29296e-21
-1.48291e-18
3.51329e-22
8.71902e-05
-4.83133e-18
-4.37748e-21
-1.4855e-18
3.63114e-22
8.78228e-05
-4.8161e-18
-4.44437e-21
-1.51119e-18
3.61047e-22
8.84601e-05
-4.79713e-18
-4.50319e-21
-1.51288e-18
3.58151e-22
8.9102e-05
-4.82212e-18
-4.56413e-21
-1.5269e-18
3.75183e-22
8.97486e-05
-4.78239e-18
-4.57521e-21
-1.54228e-18
4.16892e-22
9.03999e-05
-4.79305e-18
-4.61025e-21
-1.55192e-18
4.45777e-22
9.1056e-05
-4.76979e-18
-4.60243e-21
-1.57138e-18
4.50614e-22
9.17169e-05
-4.74341e-18
-4.6006e-21
-1.5511e-18
4.81239e-22
9.23826e-05
-4.76398e-18
-4.59406e-21
-1.55351e-18
4.65102e-22
9.30531e-05
-4.73272e-18
-4.52997e-21
-1.56112e-18
4.42885e-22
9.37286e-05
-4.72569e-18
-4.48882e-21
-1.57975e-18
4.06374e-22
9.4409e-05
-4.70029e-18
-4.39614e-21
-1.58561e-18
3.60339e-22
9.50944e-05
-4.68004e-18
-4.33301e-21
-1.57391e-18
2.99879e-22
9.57848e-05
-4.63991e-18
-4.26865e-21
-1.59044e-18
2.23764e-22
9.64802e-05
-4.62538e-18
-4.24281e-21
-1.59111e-18
2.19379e-22
9.71807e-05
-4.60279e-18
-4.20823e-21
-1.60905e-18
1.98204e-22
9.78864e-05
-4.58251e-18
-4.19953e-21
-1.6184e-18
2.25605e-22
9.85972e-05
-4.58534e-18
-4.1907e-21
-1.62392e-18
2.8313e-22
9.93132e-05
-4.55846e-18
-4.1541e-21
-1.62718e-18
3.61923e-22
0.000100034
-4.5482e-18
-4.15127e-21
-1.65028e-18
4.43884e-22
0.000100761
-4.51626e-18
-4.1556e-21
-1.62884e-18
6.28611e-22
0.000101493
-4.52783e-18
-4.19266e-21
-1.61978e-18
7.81862e-22
0.00010223