/*--------------------------------*- C++ -*----------------------------------*\
| =========                 |                                                 |
| \\      /  F ield         | OpenFOAM: The Open Source CFD Toolbox           |
|  \\    /   O peration     | Version:  2106                                  |
|   \\  /    A nd           | Website:  www.openfoam.com                      |
|    \\/     M anipulation  |                                                 |
\*---------------------------------------------------------------------------*/
FoamFile
{
    version     2.0;
    format      ascii;
    arch        "LSB;label=32;scalar=64";
    class       volSymmTensorField;
    location    "1000";
    object      turbulenceProperties:R;
}
// * * * * * * * * * * * * * * * * * * * * * * * * * * * * * * * * * * * * * //

dimensions      [0 2 -2 0 0 0 0];

internalField   nonuniform List<symmTensor> 
2560
(
(6.11019e-07 -8.68145e-11 -1.25697e-13 6.11019e-07 1.8173e-25 6.11019e-07)
(6.11019e-07 -8.68145e-11 -1.25697e-13 6.11019e-07 1.03918e-29 6.11019e-07)
(9.05037e-08 -7.3858e-11 -3.22493e-13 9.05037e-08 1.9447e-26 9.05037e-08)
(9.05037e-08 -7.3858e-11 -3.22493e-13 9.05037e-08 1.12895e-29 9.05037e-08)
(3.21856e-08 -7.73904e-11 -4.64222e-13 3.21856e-08 1.34313e-26 3.21856e-08)
(3.21856e-08 -7.73904e-11 -4.64222e-13 3.21856e-08 9.6143e-30 3.21856e-08)
(3.13177e-08 -1.594e-10 -9.69773e-13 3.13177e-08 3.2894e-26 3.13177e-08)
(3.13177e-08 -1.594e-10 -9.69773e-13 3.13177e-08 2.9028e-29 3.13177e-08)
(5.80368e-08 -5.19885e-10 -3.20801e-12 5.80368e-08 5.27941e-26 5.80368e-08)
(5.80368e-08 -5.19885e-10 -3.20801e-12 5.80368e-08 1.2147e-28 5.80368e-08)
(1.15076e-07 -1.61804e-09 -1.01266e-11 1.15076e-07 1.74776e-25 1.15076e-07)
(1.15076e-07 -1.61804e-09 -1.01266e-11 1.15076e-07 4.61851e-28 1.15076e-07)
(2.11846e-07 -4.32909e-09 -2.74801e-11 2.11846e-07 4.60739e-25 2.11846e-07)
(2.11846e-07 -4.32909e-09 -2.74801e-11 2.11846e-07 1.48533e-27 2.11846e-07)
(3.60678e-07 -1.01379e-08 -6.52712e-11 3.60678e-07 1.09867e-24 3.60678e-07)
(3.60678e-07 -1.01379e-08 -6.52712e-11 3.60678e-07 3.96968e-27 3.60678e-07)
(5.76068e-07 -2.13702e-08 -1.39551e-10 5.76068e-07 2.35668e-24 5.76068e-07)
(5.76068e-07 -2.13702e-08 -1.39551e-10 5.76068e-07 9.24339e-27 5.76068e-07)
(8.74533e-07 -4.14592e-08 -2.74597e-10 8.74533e-07 4.65275e-24 8.74533e-07)
(8.74533e-07 -4.14592e-08 -2.74597e-10 8.74533e-07 2.07544e-26 8.74533e-07)
(1.27461e-06 -7.52445e-08 -5.05479e-10 1.27461e-06 8.62182e-24 1.27461e-06)
(1.27461e-06 -7.52445e-08 -5.05479e-10 1.27461e-06 3.96294e-26 1.27461e-06)
(1.79691e-06 -1.29293e-07 -8.80961e-10 1.79691e-06 1.5141e-23 1.79691e-06)
(1.79691e-06 -1.29293e-07 -8.80961e-10 1.79691e-06 7.63445e-26 1.79691e-06)
(2.46411e-06 -2.12228e-07 -1.4667e-09 2.46411e-06 2.54026e-23 2.46411e-06)
(2.46411e-06 -2.12228e-07 -1.4667e-09 2.46411e-06 1.42218e-25 2.46411e-06)
(3.30101e-06 -3.35049e-07 -2.34856e-09 3.30101e-06 4.10523e-23 3.30101e-06)
(3.30101e-06 -3.35049e-07 -2.34856e-09 3.30101e-06 2.50012e-25 3.30101e-06)
(4.33441e-06 -5.11412e-07 -3.63598e-09 4.33441e-06 6.41919e-23 4.33441e-06)
(4.33441e-06 -5.11412e-07 -3.63598e-09 4.33441e-06 4.38711e-25 4.33441e-06)
(5.59302e-06 -7.57843e-07 -5.46494e-09 5.59302e-06 9.74388e-23 5.59302e-06)
(5.59302e-06 -7.57843e-07 -5.46494e-09 5.59302e-06 6.74938e-25 5.59302e-06)
(7.10726e-06 -1.09384e-06 -8.00052e-09 7.10726e-06 1.44077e-22 7.10726e-06)
(7.10726e-06 -1.09384e-06 -8.00052e-09 7.10726e-06 1.04969e-24 7.10726e-06)
(8.90893e-06 -1.54187e-06 -1.14384e-08 8.90893e-06 2.08104e-22 8.90893e-06)
(8.90893e-06 -1.54187e-06 -1.14384e-08 8.90893e-06 1.70599e-24 8.90893e-06)
(1.10308e-05 -2.12712e-06 -1.60054e-08 1.10308e-05 2.94124e-22 1.10308e-05)
(1.10308e-05 -2.12712e-06 -1.60054e-08 1.10308e-05 2.61013e-24 1.10308e-05)
(1.35063e-05 -2.87717e-06 -2.1958e-08 1.35063e-05 4.07861e-22 1.35063e-05)
(1.35063e-05 -2.87717e-06 -2.1958e-08 1.35063e-05 3.74715e-24 1.35063e-05)
(1.63684e-05 -3.82134e-06 -2.958e-08 1.63684e-05 5.55302e-22 1.63684e-05)
(1.63684e-05 -3.82134e-06 -2.958e-08 1.63684e-05 5.29617e-24 1.63684e-05)
(1.96495e-05 -4.98998e-06 -3.91771e-08 1.96495e-05 7.42682e-22 1.96495e-05)
(1.96495e-05 -4.98998e-06 -3.91771e-08 1.96495e-05 7.65796e-24 1.96495e-05)
(2.33803e-05 -6.41343e-06 -5.1071e-08 2.33803e-05 9.78465e-22 2.33803e-05)
(2.33803e-05 -6.41343e-06 -5.1071e-08 2.33803e-05 1.02632e-23 2.33803e-05)
(2.75887e-05 -8.12102e-06 -6.55909e-08 2.75887e-05 1.27141e-21 2.75887e-05)
(2.75887e-05 -8.12102e-06 -6.55909e-08 2.75887e-05 1.37037e-23 2.75887e-05)
(3.22997e-05 -1.01399e-05 -8.30643e-08 3.22997e-05 1.62962e-21 3.22997e-05)
(3.22997e-05 -1.01399e-05 -8.30643e-08 3.22997e-05 1.89291e-23 3.22997e-05)
(3.75336e-05 -1.24939e-05 -1.03807e-07 3.75336e-05 2.05812e-21 3.75336e-05)
(3.75336e-05 -1.24939e-05 -1.03807e-07 3.75336e-05 2.59566e-23 3.75336e-05)
(4.33057e-05 -1.52026e-05 -1.28111e-07 4.33057e-05 2.56833e-21 4.33057e-05)
(4.33057e-05 -1.52026e-05 -1.28111e-07 4.33057e-05 3.28776e-23 4.33057e-05)
(4.96255e-05 -1.82801e-05 -1.5624e-07 4.96255e-05 3.16964e-21 4.96255e-05)
(4.96255e-05 -1.82801e-05 -1.5624e-07 4.96255e-05 3.94887e-23 4.96255e-05)
(5.64959e-05 -2.17347e-05 -1.88411e-07 5.64959e-05 3.86075e-21 5.64959e-05)
(5.64959e-05 -2.17347e-05 -1.88411e-07 5.64959e-05 5.26288e-23 5.64959e-05)
(6.39126e-05 -2.55681e-05 -2.24798e-07 6.39126e-05 4.65171e-21 6.39126e-05)
(6.39126e-05 -2.55681e-05 -2.24798e-07 6.39126e-05 7.1306e-23 6.39126e-05)
(7.18643e-05 -2.97754e-05 -2.65516e-07 7.18643e-05 5.55666e-21 7.18643e-05)
(7.18643e-05 -2.97754e-05 -2.65516e-07 7.18643e-05 8.84782e-23 7.18643e-05)
(8.03318e-05 -3.4345e-05 -3.10624e-07 8.03318e-05 6.58276e-21 8.03318e-05)
(8.03318e-05 -3.4345e-05 -3.10624e-07 8.03318e-05 1.07642e-22 8.03318e-05)
(8.92886e-05 -3.92587e-05 -3.60119e-07 8.92886e-05 7.72346e-21 8.92886e-05)
(8.92886e-05 -3.92587e-05 -3.60119e-07 8.92886e-05 1.29594e-22 8.92886e-05)
(9.87011e-05 -4.44925e-05 -4.13938e-07 9.87011e-05 8.98483e-21 9.87011e-05)
(9.87011e-05 -4.44925e-05 -4.13938e-07 9.87011e-05 1.57673e-22 9.87011e-05)
(0.000108528 -5.0017e-05 -4.71959e-07 0.000108528 1.03674e-20 0.000108528)
(0.000108528 -5.0017e-05 -4.71959e-07 0.000108528 1.97563e-22 0.000108528)
(0.000118724 -5.5798e-05 -5.34004e-07 0.000118724 1.18788e-20 0.000118724)
(0.000118724 -5.5798e-05 -5.34004e-07 0.000118724 2.56396e-22 0.000118724)
(0.000129235 -6.17976e-05 -5.99843e-07 0.000129235 1.3533e-20 0.000129235)
(0.000129235 -6.17976e-05 -5.99843e-07 0.000129235 2.94773e-22 0.000129235)
(0.000140005 -6.7975e-05 -6.692e-07 0.000140005 1.52904e-20 0.000140005)
(0.000140005 -6.7975e-05 -6.692e-07 0.000140005 3.33718e-22 0.000140005)
(0.000150971 -7.4287e-05 -7.41757e-07 0.000150971 1.71801e-20 0.000150971)
(0.000150971 -7.4287e-05 -7.41757e-07 0.000150971 4.04381e-22 0.000150971)
(0.000162071 -8.06893e-05 -8.17163e-07 0.000162071 1.92305e-20 0.000162071)
(0.000162071 -8.06893e-05 -8.17163e-07 0.000162071 4.36071e-22 0.000162071)
(0.000173238 -8.7137e-05 -8.95035e-07 0.000173238 2.13889e-20 0.000173238)
(0.000173238 -8.7137e-05 -8.95035e-07 0.000173238 4.85315e-22 0.000173238)
(0.000184405 -9.35853e-05 -9.74972e-07 0.000184405 2.36788e-20 0.000184405)
(0.000184405 -9.35853e-05 -9.74972e-07 0.000184405 5.39376e-22 0.000184405)
(0.000195504 -9.99904e-05 -1.05655e-06 0.000195504 2.61246e-20 0.000195504)
(0.000195504 -9.99904e-05 -1.05655e-06 0.000195504 6.37563e-22 0.000195504)
(0.000206469 -0.00010631 -1.13935e-06 0.000206469 2.87014e-20 0.000206469)
(0.000206469 -0.00010631 -1.13935e-06 0.000206469 7.52176e-22 0.000206469)
(0.000217234 -0.000112503 -1.22292e-06 0.000217234 3.13451e-20 0.000217234)
(0.000217234 -0.000112503 -1.22292e-06 0.000217234 8.72066e-22 0.000217234)
(0.000227737 -0.000118531 -1.30683e-06 0.000227737 3.4154e-20 0.000227737)
(0.000227737 -0.000118531 -1.30683e-06 0.000227737 9.7929e-22 0.000227737)
(0.000237919 -0.000124358 -1.39065e-06 0.000237919 3.71337e-20 0.000237919)
(0.000237919 -0.000124358 -1.39065e-06 0.000237919 1.04685e-21 0.000237919)
(0.000247722 -0.000129952 -1.47396e-06 0.000247722 4.01351e-20 0.000247722)
(0.000247722 -0.000129952 -1.47396e-06 0.000247722 1.18414e-21 0.000247722)
(0.000257095 -0.000135283 -1.55633e-06 0.000257095 4.32743e-20 0.000257095)
(0.000257095 -0.000135283 -1.55633e-06 0.000257095 1.33502e-21 0.000257095)
(0.000265989 -0.000140323 -1.63738e-06 0.000265989 4.65895e-20 0.000265989)
(0.000265989 -0.000140323 -1.63738e-06 0.000265989 1.5508e-21 0.000265989)
(0.000274363 -0.00014505 -1.71672e-06 0.000274363 5.00491e-20 0.000274363)
(0.000274363 -0.00014505 -1.71672e-06 0.000274363 1.75596e-21 0.000274363)
(0.000282177 -0.000149442 -1.79399e-06 0.000282177 5.37089e-20 0.000282177)
(0.000282177 -0.000149442 -1.79399e-06 0.000282177 1.90012e-21 0.000282177)
(0.000289399 -0.000153484 -1.86886e-06 0.000289399 5.74722e-20 0.000289399)
(0.000289399 -0.000153484 -1.86886e-06 0.000289399 2.12098e-21 0.000289399)
(0.000296001 -0.000157162 -1.94101e-06 0.000296001 6.12087e-20 0.000296001)
(0.000296001 -0.000157162 -1.94101e-06 0.000296001 2.45716e-21 0.000296001)
(0.00030196 -0.000160464 -2.01014e-06 0.00030196 6.50424e-20 0.00030196)
(0.00030196 -0.000160464 -2.01014e-06 0.00030196 2.58504e-21 0.00030196)
(0.00030726 -0.000163384 -2.07601e-06 0.00030726 6.89388e-20 0.00030726)
(0.00030726 -0.000163384 -2.07601e-06 0.00030726 2.78949e-21 0.00030726)
(0.000311888 -0.000165917 -2.13836e-06 0.000311888 7.28984e-20 0.000311888)
(0.000311888 -0.000165917 -2.13836e-06 0.000311888 3.18912e-21 0.000311888)
(0.000315836 -0.000168061 -2.197e-06 0.000315836 7.69918e-20 0.000315836)
(0.000315836 -0.000168061 -2.197e-06 0.000315836 3.4344e-21 0.000315836)
(0.000319103 -0.000169817 -2.25174e-06 0.000319103 8.12067e-20 0.000319103)
(0.000319103 -0.000169817 -2.25174e-06 0.000319103 3.55651e-21 0.000319103)
(0.000321689 -0.000171188 -2.30242e-06 0.000321689 8.56034e-20 0.000321689)
(0.000321689 -0.000171188 -2.30242e-06 0.000321689 3.78579e-21 0.000321689)
(0.000323601 -0.00017218 -2.34892e-06 0.000323601 9.0166e-20 0.000323601)
(0.000323601 -0.00017218 -2.34892e-06 0.000323601 4.04072e-21 0.000323601)
(0.000324849 -0.000172799 -2.39114e-06 0.000324849 9.47617e-20 0.000324849)
(0.000324849 -0.000172799 -2.39114e-06 0.000324849 4.20113e-21 0.000324849)
(0.000325447 -0.000173056 -2.429e-06 0.000325447 9.94096e-20 0.000325447)
(0.000325447 -0.000173056 -2.429e-06 0.000325447 4.67468e-21 0.000325447)
(0.00032541 -0.000172962 -2.46246e-06 0.00032541 1.04252e-19 0.00032541)
(0.00032541 -0.000172962 -2.46246e-06 0.00032541 4.88933e-21 0.00032541)
(0.00032476 -0.000172529 -2.49149e-06 0.00032476 1.09266e-19 0.00032476)
(0.00032476 -0.000172529 -2.49149e-06 0.00032476 5.14988e-21 0.00032476)
(0.000323518 -0.000171771 -2.5161e-06 0.000323518 1.14221e-19 0.000323518)
(0.000323518 -0.000171771 -2.5161e-06 0.000323518 5.81807e-21 0.000323518)
(0.00032171 -0.000170704 -2.53629e-06 0.00032171 1.19325e-19 0.00032171)
(0.00032171 -0.000170704 -2.53629e-06 0.00032171 6.20258e-21 0.00032171)
(0.000319362 -0.000169343 -2.55213e-06 0.000319362 1.24313e-19 0.000319362)
(0.000319362 -0.000169343 -2.55213e-06 0.000319362 6.76076e-21 0.000319362)
(0.000316503 -0.000167705 -2.56366e-06 0.000316503 1.29153e-19 0.000316503)
(0.000316503 -0.000167705 -2.56366e-06 0.000316503 7.44345e-21 0.000316503)
(0.000313163 -0.000165807 -2.57098e-06 0.000313163 1.34477e-19 0.000313163)
(0.000313163 -0.000165807 -2.57098e-06 0.000313163 7.55864e-21 0.000313163)
(0.000309373 -0.000163668 -2.57419e-06 0.000309373 1.40351e-19 0.000309373)
(0.000309373 -0.000163668 -2.57419e-06 0.000309373 7.83059e-21 0.000309373)
(0.000305164 -0.000161305 -2.57339e-06 0.000305164 1.4562e-19 0.000305164)
(0.000305164 -0.000161305 -2.57339e-06 0.000305164 8.69481e-21 0.000305164)
(0.00030057 -0.000158737 -2.56871e-06 0.00030057 1.50981e-19 0.00030057)
(0.00030057 -0.000158737 -2.56871e-06 0.00030057 9.16675e-21 0.00030057)
(0.000295623 -0.000155982 -2.56031e-06 0.000295623 1.56711e-19 0.000295623)
(0.000295623 -0.000155982 -2.56031e-06 0.000295623 9.45221e-21 0.000295623)
(0.000290355 -0.000153059 -2.54833e-06 0.000290355 1.62047e-19 0.000290355)
(0.000290355 -0.000153059 -2.54833e-06 0.000290355 1.02106e-20 0.000290355)
(0.0002848 -0.000149985 -2.53294e-06 0.0002848 1.67595e-19 0.0002848)
(0.0002848 -0.000149985 -2.53294e-06 0.0002848 1.14188e-20 0.0002848)
(0.000278989 -0.000146779 -2.51432e-06 0.000278989 1.72713e-19 0.000278989)
(0.000278989 -0.000146779 -2.51432e-06 0.000278989 1.2226e-20 0.000278989)
(0.000272955 -0.000143457 -2.49263e-06 0.000272955 1.77985e-19 0.000272955)
(0.000272955 -0.000143457 -2.49263e-06 0.000272955 1.2826e-20 0.000272955)
(0.000266728 -0.000140038 -2.46808e-06 0.000266728 1.83141e-19 0.000266728)
(0.000266728 -0.000140038 -2.46808e-06 0.000266728 1.35319e-20 0.000266728)
(0.000260339 -0.000136537 -2.44084e-06 0.000260339 1.88543e-19 0.000260339)
(0.000260339 -0.000136537 -2.44084e-06 0.000260339 1.35788e-20 0.000260339)
(0.000253816 -0.000132969 -2.41112e-06 0.000253816 1.94323e-19 0.000253816)
(0.000253816 -0.000132969 -2.41112e-06 0.000253816 1.3915e-20 0.000253816)
(0.000247188 -0.000129351 -2.37911e-06 0.000247188 2.00015e-19 0.000247188)
(0.000247188 -0.000129351 -2.37911e-06 0.000247188 1.46779e-20 0.000247188)
(0.000240482 -0.000125697 -2.345e-06 0.000240482 2.05739e-19 0.000240482)
(0.000240482 -0.000125697 -2.345e-06 0.000240482 1.46046e-20 0.000240482)
(0.000233724 -0.000122021 -2.309e-06 0.000233724 2.11538e-19 0.000233724)
(0.000233724 -0.000122021 -2.309e-06 0.000233724 1.50001e-20 0.000233724)
(0.000226938 -0.000118335 -2.2713e-06 0.000226938 2.17589e-19 0.000226938)
(0.000226938 -0.000118335 -2.2713e-06 0.000226938 1.64869e-20 0.000226938)
(0.000220146 -0.000114651 -2.2321e-06 0.000220146 2.23285e-19 0.000220146)
(0.000220146 -0.000114651 -2.2321e-06 0.000220146 1.74495e-20 0.000220146)
(0.000213371 -0.000110982 -2.19158e-06 0.000213371 2.29164e-19 0.000213371)
(0.000213371 -0.000110982 -2.19158e-06 0.000213371 1.88195e-20 0.000213371)
(0.000206633 -0.000107338 -2.14993e-06 0.000206633 2.3534e-19 0.000206633)
(0.000206633 -0.000107338 -2.14993e-06 0.000206633 2.00622e-20 0.000206633)
(0.000199949 -0.000103728 -2.10734e-06 0.000199949 2.4085e-19 0.000199949)
(0.000199949 -0.000103728 -2.10734e-06 0.000199949 2.03681e-20 0.000199949)
(0.000193339 -0.000100162 -2.06398e-06 0.000193339 2.46597e-19 0.000193339)
(0.000193339 -0.000100162 -2.06398e-06 0.000193339 2.18011e-20 0.000193339)
(0.000186816 -9.66477e-05 -2.02002e-06 0.000186816 2.52258e-19 0.000186816)
(0.000186816 -9.66477e-05 -2.02002e-06 0.000186816 2.33414e-20 0.000186816)
(0.000180396 -9.31928e-05 -1.97564e-06 0.000180396 2.57439e-19 0.000180396)
(0.000180396 -9.31928e-05 -1.97564e-06 0.000180396 2.34402e-20 0.000180396)
(0.000174092 -8.98038e-05 -1.93098e-06 0.000174092 2.63204e-19 0.000174092)
(0.000174092 -8.98038e-05 -1.93098e-06 0.000174092 2.42679e-20 0.000174092)
(0.000167915 -8.64867e-05 -1.88621e-06 0.000167915 2.68833e-19 0.000167915)
(0.000167915 -8.64867e-05 -1.88621e-06 0.000167915 2.54054e-20 0.000167915)
(0.000161875 -8.32467e-05 -1.84145e-06 0.000161875 2.74668e-19 0.000161875)
(0.000161875 -8.32467e-05 -1.84145e-06 0.000161875 2.58373e-20 0.000161875)
(0.000155982 -8.00884e-05 -1.79686e-06 0.000155982 2.81046e-19 0.000155982)
(0.000155982 -8.00884e-05 -1.79686e-06 0.000155982 2.6219e-20 0.000155982)
(0.000150243 -7.70155e-05 -1.75255e-06 0.000150243 2.87063e-19 0.000150243)
(0.000150243 -7.70155e-05 -1.75255e-06 0.000150243 2.72033e-20 0.000150243)
(0.000144664 -7.40313e-05 -1.70865e-06 0.000144664 2.92257e-19 0.000144664)
(0.000144664 -7.40313e-05 -1.70865e-06 0.000144664 2.93308e-20 0.000144664)
(0.000139252 -7.11385e-05 -1.66526e-06 0.000139252 2.9769e-19 0.000139252)
(0.000139252 -7.11385e-05 -1.66526e-06 0.000139252 3.06619e-20 0.000139252)
(0.00013401 -6.8339e-05 -1.6225e-06 0.00013401 3.03505e-19 0.00013401)
(0.00013401 -6.8339e-05 -1.6225e-06 0.00013401 3.0904e-20 0.00013401)
(0.000128942 -6.56344e-05 -1.58045e-06 0.000128942 3.08755e-19 0.000128942)
(0.000128942 -6.56344e-05 -1.58045e-06 0.000128942 3.16517e-20 0.000128942)
(0.00012405 -6.30257e-05 -1.5392e-06 0.00012405 3.15107e-19 0.00012405)
(0.00012405 -6.30257e-05 -1.5392e-06 0.00012405 3.29303e-20 0.00012405)
(0.000119336 -6.05133e-05 -1.49884e-06 0.000119336 3.20438e-19 0.000119336)
(0.000119336 -6.05133e-05 -1.49884e-06 0.000119336 3.52688e-20 0.000119336)
(0.000114801 -5.80975e-05 -1.45942e-06 0.000114801 3.24777e-19 0.000114801)
(0.000114801 -5.80975e-05 -1.45942e-06 0.000114801 3.7021e-20 0.000114801)
(0.000110444 -5.57779e-05 -1.42102e-06 0.000110444 3.30532e-19 0.000110444)
(0.000110444 -5.57779e-05 -1.42102e-06 0.000110444 3.79466e-20 0.000110444)
(0.000106265 -5.35538e-05 -1.38368e-06 0.000106265 3.36168e-19 0.000106265)
(0.000106265 -5.35538e-05 -1.38368e-06 0.000106265 3.96678e-20 0.000106265)
(0.000102263 -5.14243e-05 -1.34746e-06 0.000102263 3.42846e-19 0.000102263)
(0.000102263 -5.14243e-05 -1.34746e-06 0.000102263 4.1383e-20 0.000102263)
(9.84352e-05 -4.9388e-05 -1.3124e-06 9.84352e-05 3.48128e-19 9.84352e-05)
(9.84352e-05 -4.9388e-05 -1.31239e-06 9.84352e-05 4.3609e-20 9.84352e-05)
(9.47797e-05 -4.74434e-05 -1.27852e-06 9.47797e-05 3.53064e-19 9.47797e-05)
(9.47797e-05 -4.74434e-05 -1.27852e-06 9.47797e-05 4.58744e-20 9.47797e-05)
(9.12937e-05 -4.55885e-05 -1.24585e-06 9.12937e-05 3.59314e-19 9.12937e-05)
(9.12937e-05 -4.55885e-05 -1.24585e-06 9.12937e-05 4.73408e-20 9.12937e-05)
(8.79739e-05 -4.38214e-05 -1.21441e-06 8.79739e-05 3.64629e-19 8.79739e-05)
(8.79739e-05 -4.38214e-05 -1.21441e-06 8.79739e-05 4.82779e-20 8.79739e-05)
(8.48168e-05 -4.21398e-05 -1.18422e-06 8.48168e-05 3.67542e-19 8.48168e-05)
(8.48168e-05 -4.21398e-05 -1.18422e-06 8.48168e-05 5.2125e-20 8.48168e-05)
(8.18185e-05 -4.05413e-05 -1.15528e-06 8.18185e-05 3.69463e-19 8.18185e-05)
(8.18185e-05 -4.05413e-05 -1.15528e-06 8.18185e-05 5.66097e-20 8.18185e-05)
(7.8975e-05 -3.90234e-05 -1.12759e-06 7.8975e-05 3.74359e-19 7.8975e-05)
(7.8975e-05 -3.90234e-05 -1.12759e-06 7.8975e-05 5.73357e-20 7.8975e-05)
(7.6282e-05 -3.75832e-05 -1.10115e-06 7.6282e-05 3.80827e-19 7.6282e-05)
(7.6282e-05 -3.75832e-05 -1.10115e-06 7.6282e-05 5.91565e-20 7.6282e-05)
(7.3735e-05 -3.6218e-05 -1.07594e-06 7.3735e-05 3.852e-19 7.3735e-05)
(7.3735e-05 -3.6218e-05 -1.07594e-06 7.3735e-05 6.20198e-20 7.3735e-05)
(7.13296e-05 -3.4925e-05 -1.05194e-06 7.13296e-05 3.88583e-19 7.13296e-05)
(7.13296e-05 -3.4925e-05 -1.05194e-06 7.13296e-05 6.43753e-20 7.13296e-05)
(6.90612e-05 -3.37009e-05 -1.02914e-06 6.90612e-05 3.92544e-19 6.90612e-05)
(6.90612e-05 -3.37009e-05 -1.02914e-06 6.90612e-05 6.71818e-20 6.90612e-05)
(6.69251e-05 -3.25428e-05 -1.0075e-06 6.69251e-05 3.94955e-19 6.69251e-05)
(6.69251e-05 -3.25428e-05 -1.0075e-06 6.69251e-05 7.07705e-20 6.69251e-05)
(6.49168e-05 -3.14476e-05 -9.86992e-07 6.49168e-05 3.9509e-19 6.49168e-05)
(6.49168e-05 -3.14476e-05 -9.86992e-07 6.49168e-05 7.7127e-20 6.49168e-05)
(6.30316e-05 -3.04118e-05 -9.67566e-07 6.30316e-05 3.94865e-19 6.30316e-05)
(6.30316e-05 -3.04118e-05 -9.67566e-07 6.30316e-05 8.22961e-20 6.30316e-05)
(6.12649e-05 -2.94323e-05 -9.49178e-07 6.12649e-05 3.9242e-19 6.12649e-05)
(6.12649e-05 -2.94323e-05 -9.49178e-07 6.12649e-05 8.65428e-20 6.12649e-05)
(5.96124e-05 -2.85055e-05 -9.31772e-07 5.96124e-05 3.8356e-19 5.96124e-05)
(5.96124e-05 -2.85055e-05 -9.31772e-07 5.96124e-05 9.25011e-20 5.96124e-05)
(5.80695e-05 -2.76281e-05 -9.15284e-07 5.80695e-05 3.74437e-19 5.80695e-05)
(5.80695e-05 -2.76281e-05 -9.15284e-07 5.80695e-05 1.03475e-19 5.80695e-05)
(5.66321e-05 -2.67964e-05 -8.99642e-07 5.66321e-05 3.64511e-19 5.66321e-05)
(5.66321e-05 -2.67964e-05 -8.99642e-07 5.66321e-05 1.08796e-19 5.66321e-05)
(5.52961e-05 -2.60067e-05 -8.84764e-07 5.52961e-05 3.48445e-19 5.52961e-05)
(5.52961e-05 -2.60067e-05 -8.84764e-07 5.52961e-05 1.13801e-19 5.52961e-05)
(5.40573e-05 -2.52552e-05 -8.70558e-07 5.40573e-05 3.28141e-19 5.40573e-05)
(5.40573e-05 -2.52552e-05 -8.70558e-07 5.40573e-05 1.22381e-19 5.40573e-05)
(5.29119e-05 -2.45379e-05 -8.56923e-07 5.29119e-05 3.0089e-19 5.29119e-05)
(5.29119e-05 -2.45379e-05 -8.56923e-07 5.29119e-05 1.31983e-19 5.29119e-05)
(5.18562e-05 -2.38506e-05 -8.43741e-07 5.18562e-05 2.38929e-20 5.18562e-05)
(5.18562e-05 -2.38506e-05 -8.43741e-07 5.18562e-05 1.4077e-19 5.18562e-05)
(5.08865e-05 -2.31892e-05 -8.30886e-07 5.08865e-05 -6.95589e-19 5.08865e-05)
(5.08865e-05 -2.31892e-05 -8.30886e-07 5.08865e-05 1.50535e-19 5.08865e-05)
(4.99994e-05 -2.2549e-05 -8.18215e-07 4.99994e-05 -8.5537e-19 4.99994e-05)
(4.99994e-05 -2.2549e-05 -8.18215e-07 4.99994e-05 1.61763e-19 4.99994e-05)
(4.91915e-05 -2.19254e-05 -8.05573e-07 4.91915e-05 -9.63504e-19 4.91915e-05)
(4.91915e-05 -2.19254e-05 -8.05573e-07 4.91915e-05 1.81157e-19 4.91915e-05)
(4.84594e-05 -2.13136e-05 -7.9279e-07 4.84594e-05 -1.09581e-18 4.84594e-05)
(4.84594e-05 -2.13136e-05 -7.92789e-07 4.84594e-05 2.03941e-19 4.84594e-05)
(4.78e-05 -2.07086e-05 -7.79684e-07 4.78e-05 -1.24105e-18 4.78e-05)
(4.78e-05 -2.07086e-05 -7.79684e-07 4.78e-05 2.2628e-19 4.78e-05)
(4.72099e-05 -2.01053e-05 -7.66065e-07 4.72099e-05 -1.38674e-18 4.72099e-05)
(4.72099e-05 -2.01053e-05 -7.66065e-07 4.72099e-05 2.48092e-19 4.72099e-05)
(4.66859e-05 -1.94987e-05 -7.51734e-07 4.66859e-05 -1.56152e-18 4.66859e-05)
(4.66859e-05 -1.94987e-05 -7.51734e-07 4.66859e-05 2.79984e-19 4.66859e-05)
(4.62247e-05 -1.88839e-05 -7.36494e-07 4.62247e-05 -1.7591e-18 4.62247e-05)
(4.62247e-05 -1.88839e-05 -7.36494e-07 4.62247e-05 3.17905e-19 4.62247e-05)
(4.58229e-05 -1.82562e-05 -7.20153e-07 4.58229e-05 -1.97228e-18 4.58229e-05)
(4.58229e-05 -1.82562e-05 -7.20153e-07 4.58229e-05 3.51095e-19 4.58229e-05)
(4.5477e-05 -1.76115e-05 -7.02536e-07 4.5477e-05 -2.21546e-18 4.5477e-05)
(4.5477e-05 -1.76115e-05 -7.02536e-07 4.5477e-05 3.99889e-19 4.5477e-05)
(4.51834e-05 -1.69462e-05 -6.83493e-07 4.51834e-05 -2.11095e-18 4.51834e-05)
(4.51834e-05 -1.69462e-05 -6.83493e-07 4.51834e-05 4.65064e-19 4.51834e-05)
(4.49382e-05 -1.6258e-05 -6.62915e-07 4.49382e-05 -1.81151e-18 4.49382e-05)
(4.49382e-05 -1.6258e-05 -6.62915e-07 4.49382e-05 5.32778e-19 4.49382e-05)
(4.47374e-05 -1.55456e-05 -6.40742e-07 4.47374e-05 -1.89348e-18 4.47374e-05)
(4.47374e-05 -1.55456e-05 -6.40742e-07 4.47374e-05 1.02214e-18 4.47374e-05)
(4.45769e-05 -1.48091e-05 -6.16975e-07 4.45769e-05 -2.20935e-18 4.45769e-05)
(4.45769e-05 -1.48091e-05 -6.16975e-07 4.45769e-05 1.14551e-18 4.45769e-05)
(4.44526e-05 -1.40504e-05 -5.91687e-07 4.44526e-05 -2.48855e-18 4.44526e-05)
(4.44526e-05 -1.40504e-05 -5.91687e-07 4.44526e-05 1.21687e-18 4.44526e-05)
(4.43602e-05 -1.32729e-05 -5.65028e-07 4.43602e-05 -2.75195e-18 4.43602e-05)
(4.43602e-05 -1.32729e-05 -5.65028e-07 4.43602e-05 1.2795e-18 4.43602e-05)
(4.42955e-05 -1.24821e-05 -5.37226e-07 4.42955e-05 -3.10795e-18 4.42955e-05)
(4.42955e-05 -1.24821e-05 -5.37225e-07 4.42955e-05 1.39549e-18 4.42955e-05)
(4.42545e-05 -1.16848e-05 -5.08585e-07 4.42545e-05 -3.48454e-18 4.42545e-05)
(4.42545e-05 -1.16848e-05 -5.08585e-07 4.42545e-05 1.5509e-18 4.42545e-05)
(4.42332e-05 -1.08894e-05 -4.79482e-07 4.42332e-05 -3.83031e-18 4.42332e-05)
(4.42332e-05 -1.08894e-05 -4.79482e-07 4.42332e-05 1.6662e-18 4.42332e-05)
(4.4228e-05 -1.01053e-05 -4.50354e-07 4.4228e-05 -4.1792e-18 4.4228e-05)
(4.4228e-05 -1.01053e-05 -4.50354e-07 4.4228e-05 1.822e-18 4.4228e-05)
(4.42359e-05 -9.34286e-06 -4.21689e-07 4.42359e-05 -4.42909e-18 4.42359e-05)
(4.42359e-05 -9.34285e-06 -4.21689e-07 4.42359e-05 2.03647e-18 4.42359e-05)
(4.42538e-05 -8.61274e-06 -3.94012e-07 4.42538e-05 -4.52843e-18 4.42538e-05)
(4.42538e-05 -8.61274e-06 -3.94012e-07 4.42538e-05 2.19086e-18 4.42538e-05)
(4.42793e-05 -7.92574e-06 -3.67877e-07 4.42793e-05 -4.60405e-18 4.42793e-05)
(4.42793e-05 -7.92574e-06 -3.67877e-07 4.42793e-05 2.31924e-18 4.42793e-05)
(4.43103e-05 -7.29239e-06 -3.43852e-07 4.43103e-05 -4.64784e-18 4.43103e-05)
(4.43103e-05 -7.29239e-06 -3.43852e-07 4.43103e-05 2.63178e-18 4.43103e-05)
(4.43453e-05 -6.72273e-06 -3.2251e-07 4.43453e-05 -4.6781e-18 4.43453e-05)
(4.43453e-05 -6.72273e-06 -3.2251e-07 4.43453e-05 2.92935e-18 4.43453e-05)
(4.43827e-05 -6.22612e-06 -3.04427e-07 4.43827e-05 -4.82546e-18 4.43827e-05)
(4.43827e-05 -6.22612e-06 -3.04427e-07 4.43827e-05 3.17555e-18 4.43827e-05)
(4.44216e-05 -5.81109e-06 -2.90167e-07 4.44216e-05 -4.87782e-18 4.44216e-05)
(4.44216e-05 -5.81109e-06 -2.90167e-07 4.44216e-05 3.6762e-18 4.44216e-05)
(4.44612e-05 -5.48527e-06 -2.80286e-07 4.44612e-05 -4.92564e-18 4.44612e-05)
(4.44612e-05 -5.48527e-06 -2.80286e-07 4.44612e-05 3.8532e-18 4.44612e-05)
(4.45009e-05 -5.25536e-06 -2.75324e-07 4.45009e-05 -4.83581e-18 4.45009e-05)
(4.45009e-05 -5.25536e-06 -2.75324e-07 4.45009e-05 3.89564e-18 4.45009e-05)
(4.45404e-05 -5.1271e-06 -2.75801e-07 4.45404e-05 -4.58168e-18 4.45404e-05)
(4.45404e-05 -5.1271e-06 -2.75801e-07 4.45404e-05 4.39403e-18 4.45404e-05)
(4.45794e-05 -5.10535e-06 -2.8222e-07 4.45794e-05 -4.4318e-18 4.45794e-05)
(4.45794e-05 -5.10535e-06 -2.8222e-07 4.45794e-05 4.84938e-18 4.45794e-05)
(4.46178e-05 -5.19404e-06 -2.9506e-07 4.46178e-05 -4.30364e-18 4.46178e-05)
(4.46178e-05 -5.19404e-06 -2.9506e-07 4.46178e-05 5.34443e-18 4.46178e-05)
(4.46555e-05 -5.39626e-06 -3.14776e-07 4.46555e-05 -4.31637e-18 4.46555e-05)
(4.46555e-05 -5.39626e-06 -3.14776e-07 4.46555e-05 5.85161e-18 4.46555e-05)
(4.46926e-05 -5.71428e-06 -3.418e-07 4.46926e-05 -4.22394e-18 4.46926e-05)
(4.46926e-05 -5.71428e-06 -3.418e-07 4.46926e-05 6.25024e-18 4.46926e-05)
(4.4729e-05 -6.14959e-06 -3.76533e-07 4.4729e-05 -4.43068e-18 4.4729e-05)
(4.4729e-05 -6.14959e-06 -3.76533e-07 4.4729e-05 7.12207e-18 4.4729e-05)
(4.47649e-05 -6.70294e-06 -4.19352e-07 4.47649e-05 -4.92854e-18 4.47649e-05)
(4.47649e-05 -6.70294e-06 -4.19352e-07 4.47649e-05 7.99174e-18 4.47649e-05)
(4.48005e-05 -7.37437e-06 -4.70602e-07 4.48005e-05 -4.66353e-18 4.48005e-05)
(4.48005e-05 -7.37437e-06 -4.70602e-07 4.48005e-05 9.04229e-18 4.48005e-05)
(4.48357e-05 -8.16326e-06 -5.30597e-07 4.48357e-05 -4.27927e-18 4.48357e-05)
(4.48357e-05 -8.16326e-06 -5.30597e-07 4.48357e-05 1.01456e-17 4.48357e-05)
(4.48708e-05 -9.06837e-06 -5.99619e-07 4.48708e-05 -4.32896e-18 4.48708e-05)
(4.48708e-05 -9.06837e-06 -5.99619e-07 4.48708e-05 1.11033e-17 4.48708e-05)
(4.49059e-05 -1.00879e-05 -6.77918e-07 4.49059e-05 -4.63503e-18 4.49059e-05)
(4.49059e-05 -1.00879e-05 -6.77918e-07 4.49059e-05 1.22223e-17 4.49059e-05)
(4.49411e-05 -1.12193e-05 -7.6571e-07 4.49411e-05 -4.48016e-18 4.49411e-05)
(4.49411e-05 -1.12193e-05 -7.6571e-07 4.49411e-05 1.37628e-17 4.49411e-05)
(4.49765e-05 -1.24599e-05 -8.63177e-07 4.49765e-05 -3.61488e-18 4.49765e-05)
(4.49765e-05 -1.24599e-05 -8.63177e-07 4.49765e-05 1.50234e-17 4.49765e-05)
(4.50124e-05 -1.38061e-05 -9.70468e-07 4.50124e-05 -3.25064e-18 4.50124e-05)
(4.50124e-05 -1.38061e-05 -9.70468e-07 4.50124e-05 1.54966e-17 4.50124e-05)
(4.50488e-05 -1.52543e-05 -1.0877e-06 4.50488e-05 -2.8373e-18 4.50488e-05)
(4.50488e-05 -1.52543e-05 -1.0877e-06 4.50488e-05 1.67922e-17 4.50488e-05)
(4.50858e-05 -1.68002e-05 -1.21495e-06 4.50858e-05 -2.18003e-18 4.50858e-05)
(4.50858e-05 -1.68002e-05 -1.21495e-06 4.50858e-05 1.80179e-17 4.50858e-05)
(4.51236e-05 -1.84393e-05 -1.35228e-06 4.51236e-05 -1.7795e-18 4.51236e-05)
(4.51236e-05 -1.84393e-05 -1.35228e-06 4.51236e-05 1.91014e-17 4.51236e-05)
(4.51624e-05 -2.01668e-05 -1.49969e-06 4.51624e-05 -1.79344e-18 4.51624e-05)
(4.51624e-05 -2.01668e-05 -1.49969e-06 4.51624e-05 2.00992e-17 4.51624e-05)
(4.52021e-05 -2.19777e-05 -1.6572e-06 4.52021e-05 -1.42986e-18 4.52021e-05)
(4.52021e-05 -2.19777e-05 -1.6572e-06 4.52021e-05 2.12306e-17 4.52021e-05)
(4.52431e-05 -2.38668e-05 -1.82475e-06 4.52431e-05 -6.3856e-19 4.52431e-05)
(4.52431e-05 -2.38668e-05 -1.82475e-06 4.52431e-05 2.20755e-17 4.52431e-05)
(4.52853e-05 -2.58286e-05 -2.00229e-06 4.52853e-05 -2.49268e-19 4.52853e-05)
(4.52853e-05 -2.58286e-05 -2.00229e-06 4.52853e-05 2.2729e-17 4.52853e-05)
(4.53289e-05 -2.78576e-05 -2.18973e-06 4.53289e-05 -1.12098e-19 4.53289e-05)
(4.53289e-05 -2.78576e-05 -2.18973e-06 4.53289e-05 2.38877e-17 4.53289e-05)
(4.5374e-05 -2.99484e-05 -2.38697e-06 4.5374e-05 4.52765e-19 4.5374e-05)
(4.5374e-05 -2.99484e-05 -2.38697e-06 4.5374e-05 2.50087e-17 4.5374e-05)
(4.54208e-05 -3.20954e-05 -2.59387e-06 4.54208e-05 1.66872e-20 4.54208e-05)
(4.54208e-05 -3.20954e-05 -2.59387e-06 4.54208e-05 2.64917e-17 4.54208e-05)
(4.54693e-05 -3.4293e-05 -2.81031e-06 4.54693e-05 -1.2931e-18 4.54693e-05)
(4.54693e-05 -3.4293e-05 -2.81031e-06 4.54693e-05 2.73059e-17 4.54693e-05)
(4.55197e-05 -3.65358e-05 -3.03613e-06 4.55197e-05 -2.39391e-18 4.55197e-05)
(4.55197e-05 -3.65358e-05 -3.03613e-06 4.55197e-05 2.80853e-17 4.55197e-05)
(4.55721e-05 -3.88183e-05 -3.27115e-06 4.55721e-05 -2.80917e-18 4.55721e-05)
(4.55721e-05 -3.88183e-05 -3.27115e-06 4.55721e-05 3.03458e-17 4.55721e-05)
(4.56266e-05 -4.11353e-05 -3.5152e-06 4.56266e-05 -2.4565e-18 4.56266e-05)
(4.56266e-05 -4.11353e-05 -3.5152e-06 4.56266e-05 3.15383e-17 4.56266e-05)
(4.56833e-05 -4.34817e-05 -3.76811e-06 4.56833e-05 -1.04581e-18 4.56833e-05)
(4.56833e-05 -4.34817e-05 -3.76811e-06 4.56833e-05 3.21042e-17 4.56833e-05)
(4.57423e-05 -4.58525e-05 -4.02967e-06 4.57423e-05 3.29855e-18 4.57423e-05)
(4.57423e-05 -4.58525e-05 -4.02967e-06 4.57423e-05 3.15821e-17 4.57423e-05)
(4.58039e-05 -4.82431e-05 -4.29971e-06 4.58039e-05 5.22645e-18 4.58039e-05)
(4.58039e-05 -4.82431e-05 -4.29971e-06 4.58039e-05 3.06466e-17 4.58039e-05)
(4.5868e-05 -5.06487e-05 -4.57804e-06 4.5868e-05 4.29184e-18 4.5868e-05)
(4.5868e-05 -5.06487e-05 -4.57804e-06 4.5868e-05 3.14022e-17 4.5868e-05)
(4.59348e-05 -5.30652e-05 -4.86445e-06 4.59348e-05 4.93505e-18 4.59348e-05)
(4.59348e-05 -5.30652e-05 -4.86445e-06 4.59348e-05 3.30543e-17 4.59348e-05)
(4.60044e-05 -5.54885e-05 -5.15878e-06 4.60044e-05 7.2586e-18 4.60044e-05)
(4.60044e-05 -5.54885e-05 -5.15878e-06 4.60044e-05 3.51435e-17 4.60044e-05)
(4.6077e-05 -5.79146e-05 -5.46084e-06 4.6077e-05 7.6479e-18 4.6077e-05)