/*--------------------------------*- C++ -*----------------------------------*\
| =========                 |                                                 |
| \\      /  F ield         | OpenFOAM: The Open Source CFD Toolbox           |
|  \\    /   O peration     | Version:  2106                                  |
|   \\  /    A nd           | Website:  www.openfoam.com                      |
|    \\/     M anipulation  |                                                 |
\*---------------------------------------------------------------------------*/
FoamFile
{
    version     2.0;
    format      ascii;
    arch        "LSB;label=32;scalar=64";
    class       volTensorField;
    location    "20000";
    object      grad(U);
}
// * * * * * * * * * * * * * * * * * * * * * * * * * * * * * * * * * * * * * //

dimensions      [0 0 -1 0 0 0 0];

internalField   nonuniform List<tensor> 
2560
(
(0 1.55918e-30 3.24829e-32 12.8543 -4.75976e-12 -1.75232e-13 0.0186083 -3.44651e-15 -8.43179e-17)
(0 -5.19726e-31 -7.51488e-27 12.8543 -1.70331e-15 -3.30616e-14 0.0186083 -3.46223e-18 -8.73085e-18)
(0 -4.68203e-25 -1.4092e-26 12.8525 8.07828e-28 -4.07505e-14 0.0560902 -6.31089e-30 -1.1969e-16)
(0 -8.19643e-30 0 12.8525 -2.35161e-15 -6.2932e-14 0.0560902 -1.86187e-18 -1.64161e-16)
(-2.35574e-18 -4.03948e-30 -6.48821e-32 12.8506 4.1083e-12 -1.99759e-14 0.0771365 -1.77034e-14 -1.18402e-16)
(0 8.07896e-30 2.52467e-31 12.8506 -4.75243e-15 -3.96037e-15 0.0771365 -1.08118e-17 -1.69045e-16)
(7.55419e-18 -5.17482e-26 -3.12861e-31 12.8486 -8.31683e-32 -2.01987e-14 0.078246 -3.15544e-30 -1.2591e-16)
(0 7.96317e-30 2.48849e-31 12.8486 -4.11862e-15 -4.04426e-15 0.078246 -1.7449e-17 -1.74065e-16)
(3.45204e-17 -1.96226e-29 -6.13206e-31 12.8466 7.42203e-14 -2.11282e-14 0.0793711 -1.39239e-15 -1.33356e-16)
(0 1.56981e-29 4.90565e-31 12.8466 -4.20135e-15 -4.13176e-15 0.0793711 -2.43667e-17 -1.79228e-16)
(1.81766e-17 -6.46872e-30 -3.12251e-31 12.8445 -5.77253e-14 -2.17988e-14 0.0805121 -2.21084e-16 -1.38007e-16)
(1.45413e-16 3.86827e-30 2.41767e-31 12.8445 -4.21784e-15 -4.22201e-15 0.0805121 -3.15225e-17 -1.84541e-16)
(-2.36027e-17 -6.9477e-28 -1.64045e-31 12.8424 -8.36358e-28 -2.2183e-14 0.0816691 0 -1.42149e-16)
(9.44107e-17 7.62565e-30 2.38302e-31 12.8424 -4.21166e-15 -4.31454e-15 0.0816691 -3.88259e-17 -1.90007e-16)
(-2.91068e-17 1.0152e-29 3.12996e-31 12.8402 7.14066e-15 -2.25401e-14 0.0828424 -2.33024e-17 -1.46658e-16)
(1.16427e-16 -3.75818e-30 0 12.8402 -4.22653e-15 -4.40979e-15 0.0828424 -4.62034e-17 -1.95635e-16)
(9.9857e-17 -6.33178e-30 -3.13572e-31 12.8379 9.89584e-15 -2.29401e-14 0.0840323 -6.85071e-17 -1.5155e-16)
(0 3.70431e-30 2.3152e-31 12.8379 -4.27158e-15 -4.50809e-15 0.0840323 -5.37528e-17 -2.01429e-16)
(0 7.30244e-30 4.56403e-31 12.8357 8.5553e-15 -2.33732e-14 0.0852389 -6.00569e-17 -1.56707e-16)
(0 -3.65122e-30 -2.28201e-31 12.8357 -4.27946e-15 -4.60746e-15 0.0852389 -6.13781e-17 -2.07393e-16)
(-4.60983e-17 -1.17688e-29 -1.34616e-31 12.8333 7.63796e-15 -2.38247e-14 0.0864624 -5.27078e-17 -1.62074e-16)
(0 1.43956e-29 2.24931e-31 12.8333 -4.2538e-15 -4.70856e-15 0.0864624 -6.9053e-17 -2.13526e-16)
(1.14331e-16 -2.74571e-29 -7.59782e-31 12.8309 7.23631e-15 -2.42873e-14 0.0877032 -4.94542e-17 -1.67621e-16)
(0 2.12839e-29 6.65121e-31 12.8309 -4.32262e-15 -4.81241e-15 0.0877032 -7.69614e-17 -2.19837e-16)
(6.15105e-17 -6.99293e-30 -2.18529e-31 12.8285 7.08827e-15 -2.47572e-14 0.0889614 -4.87604e-17 -1.7334e-16)
(0 6.99293e-30 4.37058e-31 12.8285 -4.42645e-15 -4.91837e-15 0.0889614 -8.52111e-17 -2.26327e-16)
(-1.8509e-16 9.51639e-30 5.34621e-31 12.826 7.00842e-15 -2.52329e-14 0.0902373 -4.88495e-17 -1.79227e-16)
(2.5533e-16 -3.44635e-30 0 12.826 -4.44615e-15 -5.02473e-15 0.0902373 -9.38427e-17 -2.33e-16)
(0 2.03818e-29 8.4924e-31 12.8235 6.97883e-15 -2.57147e-14 0.091531 -4.90651e-17 -1.85295e-16)
(0 -2.03818e-29 -8.4924e-31 12.8235 -4.36438e-15 -5.13291e-15 0.091531 -1.02468e-16 -2.39851e-16)
(-7.60836e-17 -7.27107e-31 1.13654e-31 12.8209 7.0372e-15 -2.62026e-14 0.092843 -4.9858e-17 -1.91544e-16)
(3.04334e-16 3.34827e-30 0 12.8209 -4.33014e-15 -5.24506e-15 0.092843 -1.10778e-16 -2.46895e-16)
(0 1.65014e-29 6.18803e-31 12.8182 7.07347e-15 -2.55185e-14 0.0941734 -5.13478e-17 -1.8067e-16)
(-3.29365e-16 -1.65014e-29 -6.18803e-31 12.8182 -4.43801e-15 -5.35865e-15 0.0941734 -1.19339e-16 -2.54131e-16)
(0 1.30119e-29 -9.88315e-30 12.8155 7.02967e-15 -1.61636e-14 0.0955224 -5.18515e-17 -5.98105e-17)
(-3.54755e-16 -1.30119e-29 -8.13245e-31 12.8155 -4.41082e-15 -5.47346e-15 0.0955224 -1.28568e-16 -2.61561e-16)
(2.25627e-16 -9.61907e-30 -8.01589e-31 12.8128 7.04532e-15 -8.05735e-15 0.0968903 -5.2199e-17 -6.11927e-17)
(0 9.61907e-30 4.00795e-31 12.8128 -4.36179e-15 -5.59083e-15 0.0968903 -1.37438e-16 -2.69189e-16)
(1.01658e-16 6.86556e-30 2.488e-31 12.81 7.14847e-15 -8.13143e-15 0.0982774 -5.36072e-17 -6.26994e-17)
(-4.0663e-16 -1.5802e-29 -7.90101e-31 12.81 -4.44502e-15 -5.70842e-15 0.0982774 -1.46618e-16 -2.77017e-16)
(0 1.86906e-29 7.78776e-31 12.8071 7.13227e-15 -8.21592e-15 0.0996839 -5.53109e-17 -6.43005e-17)
(0 -1.86906e-29 -7.78776e-31 12.8071 -4.36692e-15 -5.82574e-15 0.0996839 -1.56291e-16 -2.8504e-16)
(-1.15001e-16 -4.57612e-31 -4.29847e-32 12.8042 6.98265e-15 -8.30428e-15 0.10111 -5.49253e-17 -6.59317e-17)
(0 6.14092e-30 5.75711e-31 12.8042 -4.28417e-15 -5.94706e-15 0.10111 -1.65567e-16 -2.93267e-16)
(3.04119e-16 -2.16e-29 -1.36293e-30 12.8012 7.03295e-15 -8.39662e-15 0.102556 -5.45679e-17 -6.76638e-17)
(0 2.11852e-29 1.32407e-30 12.8012 -4.37317e-15 -6.06977e-15 0.102556 -1.75091e-16 -3.01707e-16)
(0 1.19323e-29 7.45768e-31 12.7981 7.24593e-15 -8.49713e-15 0.104023 -5.73403e-17 -6.94973e-17)
(-5.14915e-16 -1.78984e-29 -7.45768e-31 12.7981 -4.40964e-15 -6.1945e-15 0.104023 -1.85186e-16 -3.10345e-16)
(-7.1166e-17 1.50338e-29 5.81921e-31 12.7951 7.29643e-15 -8.6047e-15 0.105509 -5.96291e-17 -7.14201e-17)
(2.06907e-16 -1.76419e-29 -7.3508e-31 12.7951 -4.49834e-15 -6.32291e-15 0.105509 -1.94931e-16 -3.19194e-16)
(-2.85705e-16 2.55006e-29 1.39609e-30 12.7919 7.34674e-15 -8.72246e-15 0.107017 -5.98529e-17 -7.35037e-17)
(0 -2.02872e-29 -1.08682e-30 12.7919 -4.61415e-15 -6.45271e-15 0.107017 -2.05288e-16 -3.28247e-16)
(4.50198e-16 -3.63809e-29 -1.18264e-30 12.7887 7.4837e-15 -8.85099e-15 0.108546 -6.22177e-17 -7.56944e-17)
(1.20053e-15 2.85664e-29 1.07124e-30 12.7887 -4.56513e-15 -6.5842e-15 0.108546 -2.16491e-16 -3.37515e-16)
(0 -1.68942e-29 -7.03924e-31 12.7854 7.50402e-15 -8.98792e-15 0.110095 -6.39314e-17 -7.80154e-17)
(6.29532e-16 1.68942e-29 7.03924e-31 12.7854 -4.40952e-15 -6.71201e-15 0.110095 -2.27536e-16 -3.46989e-16)
(1.64804e-16 8.4998e-30 1.8757e-31 12.7821 7.40978e-15 -9.1303e-15 0.111667 -6.43903e-17 -8.03996e-17)
(-3.90594e-16 -5.55068e-30 0 12.7821 -4.29352e-15 -6.84107e-15 0.111667 -2.37559e-16 -3.56652e-16)
(-3.44663e-16 2.46464e-30 3.22051e-31 12.7787 7.4489e-15 -9.27645e-15 0.11326 -6.41573e-17 -8.28919e-17)
(-1.37865e-15 2.73556e-30 0 12.7787 -4.39138e-15 -6.97683e-15 0.11326 -2.47923e-16 -3.66525e-16)
(-1.79966e-16 1.60799e-29 4.99796e-31 12.7752 7.60854e-15 -9.43264e-15 0.114875 -6.697e-17 -8.55643e-17)
(-7.19866e-16 -8.08906e-30 0 12.7752 -4.47955e-15 -7.11397e-15 0.114875 -2.59602e-16 -3.76611e-16)
(-1.8702e-16 1.8604e-29 9.9664e-31 12.7716 7.53616e-15 -9.60119e-15 0.116513 -6.89083e-17 -8.83956e-17)
(-5.63821e-16 -1.8604e-29 -9.9664e-31 12.7716 -4.46114e-15 -7.25063e-15 0.116513 -2.709e-16 -3.86908e-16)
(3.68678e-16 -1.57177e-29 -9.82356e-31 12.768 7.43755e-15 -9.777e-15 0.118173 -6.76109e-17 -9.13256e-17)
(4.1358e-16 1.57177e-29 9.82356e-31 12.768 -4.4267e-15 -7.38794e-15 0.118173 -2.82927e-16 -3.97415e-16)
(-2.03531e-16 2.59288e-30 1.683e-31 12.7643 7.47115e-15 -9.96019e-15 0.119856 -6.91012e-17 -9.44259e-17)
(0 5.16414e-30 0 12.7643 -4.29549e-15 -7.52908e-15 0.119856 -2.95792e-16 -4.08142e-16)
(-2.11611e-16 1.53163e-29 1.44281e-30 12.7605 7.48374e-15 -1.01557e-14 0.121563 -7.02226e-17 -9.77273e-17)
(0 -1.27253e-29 -1.27253e-30 12.7605 -4.06627e-15 -7.66658e-15 0.121563 -3.07141e-16 -4.1908e-16)
(-2.19806e-16 1.5132e-29 7.99499e-31 12.7566 7.37084e-15 -1.03551e-14 0.123293 -7.13652e-17 -1.01046e-16)
(-8.79223e-16 -7.52576e-30 0 12.7566 -3.9411e-15 -7.80946e-15 0.123293 -3.17585e-16 -4.30196e-16)
(2.28118e-16 -1.49507e-29 -4.83587e-31 12.7527 7.27732e-15 -1.05547e-14 0.125046 -7.0097e-17 -1.04505e-16)
(0 1.23632e-29 3.09079e-31 12.7527 -3.97595e-15 -7.95942e-15 0.125046 -3.28299e-16 -4.4158e-16)
(2.36548e-16 -9.89722e-30 -1.09068e-30 12.7486 7.42093e-15 -1.07653e-14 0.126823 -7.16214e-17 -1.08196e-16)
(0 7.31157e-30 9.13947e-31 12.7486 -4.18273e-15 -8.10879e-15 0.126823 -3.39654e-16 -4.53166e-16)
(-5.83186e-16 7.3879e-30 4.79317e-31 12.7444 7.5194e-15 -1.0996e-14 0.128625 -7.50083e-17 -1.12224e-16)
(0 0 0 12.7444 -4.53479e-15 -8.25934e-15 0.128625 -3.52592e-16 -4.64964e-16)
(0 1.65748e-29 1.18391e-30 12.7401 7.5061e-15 -1.12473e-14 0.130451 -7.57073e-17 -1.16513e-16)
(0 -2.13105e-29 -1.18391e-30 12.7401 -4.47921e-15 -8.40253e-15 0.130451 -3.65674e-16 -4.76938e-16)
(-2.62565e-16 4.91334e-30 4.7567e-31 12.7357 7.4704e-15 -1.15097e-14 0.132301 -7.6933e-17 -1.20965e-16)
(7.21793e-16 0 0 12.7357 -4.11959e-15 -8.54587e-15 0.132301 -3.77805e-16 -4.89047e-16)
(0 -1.38027e-29 -5.75111e-31 12.7312 7.34138e-15 -1.17795e-14 0.134176 -7.71832e-17 -1.25614e-16)
(1.08594e-15 1.38027e-29 5.75111e-31 12.7312 -4.19295e-15 -8.68815e-15 0.134176 -3.90859e-16 -5.01346e-16)
(2.80531e-16 1.10288e-29 6.60984e-31 12.7265 7.17498e-15 -1.20562e-14 0.136076 -7.64667e-17 -1.30425e-16)
(-1.12213e-15 -1.58723e-29 -8.50302e-31 12.7265 -4.27812e-15 -8.82715e-15 0.136076 -4.05476e-16 -5.13777e-16)
(2.89706e-16 -1.59842e-29 -7.5096e-31 12.7217 6.98426e-15 -1.23374e-14 0.138002 -7.58852e-17 -1.35397e-16)
(0 1.34098e-29 5.58743e-31 12.7217 -4.08052e-15 -8.96841e-15 0.138002 -4.18333e-16 -5.26346e-16)
(1.10247e-17 -6.23898e-30 1.95227e-31 12.7166 6.94775e-15 -1.26335e-14 0.139952 -7.4568e-17 -1.40765e-16)
(-3.10036e-16 1.32176e-29 0 12.7166 -3.96292e-15 -9.11059e-15 0.139952 -4.32229e-16 -5.39039e-16)
(3.08448e-16 6.11497e-30 -1.98375e-31 12.7114 7.22756e-15 -1.29506e-14 0.141928 -7.73042e-17 -1.46445e-16)
(1.23379e-15 -4.34273e-30 0 12.7114 -3.89379e-15 -9.25794e-15 0.141928 -4.45554e-16 -5.51858e-16)
(0 -8.56098e-30 -5.35061e-31 12.706 7.40981e-15 -1.32829e-14 0.143929 -8.3002e-17 -1.52417e-16)
(1.27208e-15 8.56098e-30 5.35061e-31 12.706 -4.07473e-15 -9.39827e-15 0.143929 -4.58335e-16 -5.64806e-16)
(-3.27725e-16 2.56555e-30 2.05133e-31 12.7004 7.26014e-15 -1.363e-14 0.145956 -8.36987e-17 -1.58715e-16)
(0 4.21914e-30 0 12.7004 -4.25627e-15 -9.54441e-15 0.145956 -4.7378e-16 -5.77797e-16)
(-3.37568e-16 -1.59484e-30 2.08751e-31 12.6946 6.83877e-15 -1.39944e-14 0.148009 -8.19924e-17 -1.65381e-16)
(0 4.15867e-30 0 12.6946 -3.98208e-15 -9.69071e-15 0.148009 -4.88833e-16 -5.90959e-16)
(5.76892e-16 -1.22972e-29 -5.12383e-31 12.6884 6.82627e-15 -1.43404e-14 0.150087 -7.63226e-17 -1.71553e-16)
(0 1.22972e-29 5.12383e-31 12.6884 -3.72769e-15 -9.83868e-15 0.150087 -5.01802e-16 -6.04104e-16)
(-3.57672e-16 -1.4806e-30 2.11965e-31 12.682 7.5603e-15 -1.47098e-14 0.15219 -8.40984e-17 -1.79095e-16)
(-5.68623e-16 8.08063e-30 1.01008e-30 12.682 -4.03907e-15 -9.99031e-15 0.15219 -5.15468e-16 -6.17424e-16)
(0 1.9912e-29 9.95601e-31 12.6752 7.92133e-15 -1.5121e-14 0.154319 -9.61803e-17 -1.86593e-16)
(-1.47175e-15 -1.59296e-29 -9.95601e-31 12.6752 -4.30592e-15 -1.01318e-14 0.154319 -5.31795e-16 -6.30744e-16)
(-3.78346e-16 -1.31479e-29 -2.80567e-31 12.6681 7.72503e-15 -1.55299e-14 0.156473 -9.53553e-17 -1.94444e-16)
(1.51338e-15 1.57013e-29 9.81332e-31 12.6681 -4.30048e-15 -1.02799e-14 0.156473 -5.49215e-16 -6.44131e-16)
(-5.44523e-16 1.54763e-29 9.67267e-31 12.6606 7.30582e-15 -1.59601e-14 0.158651 -9.41471e-17 -2.02845e-16)
(5.44523e-16 -1.54763e-29 -9.67267e-31 12.6606 -4.29979e-15 -1.04271e-14 0.158651 -5.66793e-16 -6.57569e-16)
(-3.99604e-16 1.0177e-29 6.852e-31 12.6527 7.02096e-15 -1.64072e-14 0.160855 -8.76392e-17 -2.11511e-16)
(1.59842e-15 -7.62723e-30 -4.76702e-31 12.6527 -4.01599e-15 -1.0572e-14 0.160855 -5.8202e-16 -6.70998e-16)
(8.20913e-16 -1.26124e-29 -8.85609e-31 12.6443 7.26816e-15 -1.6859e-14 0.163082 -8.96598e-17 -2.20445e-16)
(1.64183e-15 7.51791e-30 4.69869e-31 12.6443 -3.93163e-15 -1.07111e-14 0.163082 -5.965e-16 -6.84422e-16)
(0 -7.41016e-30 -9.2627e-31 12.6354 7.09978e-15 -1.73035e-14 0.165333 -9.6585e-17 -2.29344e-16)
(0 3.70508e-30 4.63135e-31 12.6354 -3.897e-15 -1.08378e-14 0.165333 -6.13694e-16 -6.97759e-16)
(8.13531e-17 -1.10908e-30 2.07026e-31 12.6259 6.64402e-15 -1.77517e-14 0.167606 -8.78782e-17 -2.38806e-16)
(-5.1397e-16 3.65198e-30 4.56497e-31 12.6259 -3.43802e-15 -1.09756e-14 0.167606 -6.30033e-16 -7.11039e-16)
(-1.39446e-15 1.22808e-29 8.63399e-31 12.6157 6.60321e-15 -1.82339e-14 0.169902 -8.73093e-17 -2.49056e-16)
(2.28232e-15 -1.07989e-29 -8.99908e-31 12.6157 -3.54479e-15 -1.11266e-14 0.169902 -6.44997e-16 -7.24395e-16)
(-4.55396e-16 2.53825e-30 2.06636e-31 12.6049 6.45931e-15 -1.87265e-14 0.17222 -8.93529e-17 -2.5927e-16)
(0 3.54804e-30 4.43505e-31 12.6049 -3.66876e-15 -1.12585e-14 0.17222 -6.62692e-16 -7.37679e-16)
(-4.67022e-16 -9.60547e-31 2.06715e-31 12.5933 6.3541e-15 -1.9211e-14 0.174557 -8.59328e-17 -2.69789e-16)
(1.86809e-15 1.04916e-29 0 12.5933 -2.87717e-15 -1.13623e-14 0.174557 -6.7792e-16 -7.50744e-16)
(-4.78807e-16 9.42806e-30 2.0368e-31 12.5808 6.4017e-15 -2.05437e-14 0.176914 -8.90523e-17 -3.04364e-16)
(-4.85131e-16 0 0 12.5808 -2.99171e-15 -1.14685e-14 0.176914 -6.88732e-16 -7.63535e-16)
(-1.45968e-15 1.52561e-29 1.24371e-30 12.5674 6.33488e-15 -2.38422e-14 0.179289 -8.97896e-17 -3.7186e-16)
(-1.48483e-15 -1.0193e-29 -8.49415e-31 12.5674 -3.36139e-15 -1.15985e-14 0.179289 -7.05343e-16 -7.76295e-16)
(-1.00572e-15 -4.98782e-30 -1.27294e-30 12.553 6.38987e-15 -2.62169e-14 0.18168 -8.97533e-17 -3.82057e-16)
(4.0229e-15 6.69792e-30 1.67448e-30 12.553 -2.90818e-15 -1.17077e-14 0.18168 -7.20928e-16 -7.88926e-16)
(-1.5454e-15 2.40855e-29 1.43884e-30 12.5376 6.39415e-15 -2.65619e-14 0.184086 -9.40127e-17 -3.92892e-16)
(-2.06054e-15 -1.65048e-29 -8.25241e-31 12.5376 -2.89116e-15 -1.38377e-14 0.184086 -7.36487e-16 -8.0112e-16)
(-5.27573e-16 -1.37434e-29 -6.049e-31 12.5209 5.79129e-15 -2.69273e-14 0.186504 -9.25083e-17 -4.0414e-16)
(2.11029e-15 1.62683e-29 1.62683e-30 12.5209 -2.58869e-15 -1.64186e-14 0.186504 -7.5428e-16 -8.28133e-16)
(5.40177e-16 -1.21461e-29 -3.9766e-28 12.5029 5.24836e-15 -8.52036e-15 0.188934 -7.87943e-17 -6.39598e-17)
(0 9.62106e-30 8.01755e-31 12.5029 -2.2481e-15 -1.68714e-14 0.188934 -7.64542e-16 -8.58367e-16)
(0 -1.58053e-29 -7.90263e-31 12.4834 5.56759e-15 -3.81835e-15 0.191372 -7.87971e-17 -5.22759e-17)
(2.21179e-15 1.58053e-29 7.90263e-31 12.4834 -2.3911e-15 -1.67697e-14 0.191372 -7.76262e-16 -8.87877e-16)
(0 -6.2315e-30 -7.78937e-31 12.4624 5.92304e-15 -3.20503e-15 0.193815 -9.0898e-17 -4.67399e-17)
(2.26355e-15 6.2315e-30 0 12.4624 -2.31485e-15 -1.66424e-14 0.193815 -7.89931e-16 -9.16518e-16)
(-8.64435e-16 1.22844e-29 7.67773e-31 12.4398 5.87813e-15 -2.81562e-15 0.196262 -9.21708e-17 -4.15083e-17)
(2.31599e-15 -6.14218e-30 0 12.4398 -2.08943e-15 -1.64637e-14 0.196262 -8.01397e-16 -9.44004e-16)
(0 1.21083e-29 7.56769e-31 12.4153 5.5147e-15 -2.44033e-15 0.198708 -9.21422e-17 -3.60837e-17)
(0 -1.21083e-29 -7.56769e-31 12.4153 -2.27783e-15 -1.62451e-14 0.198708 -8.13886e-16 -9.70058e-16)
(-1.21145e-15 5.02707e-30 4.63938e-31 12.3889 4.92776e-15 -2.06241e-15 0.201151 -8.32254e-17 -3.04385e-17)
(0 0 0 12.3889 -2.48186e-15 -1.6014e-14 0.201151 -8.30994e-16 -9.94877e-16)
(0 -1.76455e-29 -7.35231e-31 12.3603 4.82899e-15 -1.66462e-15 0.203587 -7.57608e-17 -2.40207e-17)
(2.47738e-15 1.76455e-29 7.35231e-31 12.3603 -1.9598e-15 -1.57465e-14 0.203587 -8.46714e-16 -1.01816e-15)
(0 8.69632e-30 0 12.3295 4.88487e-15 -1.25412e-15 0.206012 -8.24058e-17 -1.75945e-17)
(1.71661e-15 -2.89877e-30 0 12.3295 -1.97463e-15 -1.54587e-14 0.206012 -8.56859e-16 -1.03975e-15)
(-6.47096e-16 2.50758e-30 2.109e-31 12.2962 4.60489e-15 -8.40605e-16 0.208422 -7.98497e-17 -1.06864e-17)
(0 2.85723e-30 0 12.2962 -2.56599e-15 -1.51408e-14 0.208422 -8.70902e-16 -1.05951e-15)
(-1.31485e-16 5.94213e-30 -2.03433e-31 12.2604 4.37616e-15 -4.19048e-16 0.210813 -7.53151e-17 -3.59084e-18)
(0 -5.63255e-30 0 12.2604 -2.30694e-15 -1.48023e-14 0.210813 -8.87335e-16 -1.07714e-15)
(7.8135e-16 -5.55182e-30 -1.95236e-31 12.2218 4.08953e-15 3.90473e-31 0.213178 -7.43111e-17 0)
(0 8.32773e-30 0 12.2218 -1.70143e-15 -1.44578e-14 0.213178 -8.99429e-16 -1.09259e-15)
(0 -5.47225e-30 -1.36806e-30 12.1802 3.31188e-15 4.64128e-16 0.215515 -6.75059e-17 -4.50344e-18)
(0 8.20838e-30 0 12.1802 -1.3671e-15 -1.40945e-14 0.215515 -9.14034e-16 -1.10609e-15)
(1.08967e-16 -3.07874e-30 -9.97628e-31 12.1355 2.83949e-15 9.17847e-16 0.217817 -4.89199e-17 -1.18846e-17)
(-7.59113e-16 8.09073e-30 6.74227e-31 12.1355 -1.00186e-15 -1.3715e-14 0.217817 -9.26042e-16 -1.11742e-15)
(-2.21589e-15 1.04793e-29 1.64656e-31 12.0876 3.19516e-15 1.38779e-15 0.220078 -5.24935e-17 -2.09537e-17)
(1.49647e-15 -7.97477e-30 0 12.0876 -1.01186e-15 -1.32607e-14 0.220078 -9.35434e-16 -1.12629e-15)
(7.34393e-16 -2.50169e-30 -1.53824e-31 12.0362 3.25743e-15 1.81278e-15 0.222294 -6.33306e-17 -2.93805e-17)
(-2.93757e-15 0 6.55039e-31 12.0362 -1.82027e-15 -1.27416e-14 0.222294 -9.48037e-16 -1.13211e-15)
(7.26938e-16 -7.74781e-30 0 11.9811 2.76004e-15 2.25348e-15 0.224458 -5.63365e-17 -3.73003e-17)
(-3.72501e-15 7.74781e-30 0 11.9811 -1.62636e-15 -1.22376e-14 0.224458 -9.68731e-16 -1.13514e-15)
(-7.648e-16 1.2684e-29 1.31515e-31 11.9223 2.78037e-15 2.74417e-15 0.226564 -4.65051e-17 -4.67927e-17)
(6.1184e-15 -7.63676e-30 0 11.9223 -6.42728e-16 -1.1694e-14 0.226564 -9.82226e-16 -1.13556e-15)
(7.80237e-16 5.02872e-30 -1.19821e-31 11.8596 3.55278e-15 3.22733e-15 0.228607 -5.87612e-17 -5.70901e-17)
(3.12095e-15 -1.25455e-29 0 11.8596 -1.57664e-15 -1.1062e-14 0.228607 -9.88646e-16 -1.13243e-15)
(0 0 0 11.7927 3.51665e-15 3.67182e-15 0.23058 -7.77274e-17 -6.68415e-17)
(0 0 0 11.7927 -1.58747e-15 -1.04089e-14 0.23058 -1.01251e-15 -1.12513e-15)
(-8.11563e-16 -9.6939e-30 -1.1226e-30 11.7217 2.81493e-15 4.14177e-15 0.232476 -5.90653e-17 -7.61955e-17)
(3.24625e-15 1.70639e-29 1.21885e-30 11.7217 -4.29949e-16 -9.78743e-15 0.232476 -1.02264e-15 -1.11418e-15)
(-8.27442e-16 9.70182e-30 1.28531e-30 11.6463 2.7115e-15 4.60467e-15 0.234291 -5.20826e-17 -8.74988e-17)
(-4.6624e-15 -2.40276e-30 0 11.6463 -1.23562e-15 -9.12278e-15 0.234291 -1.0363e-15 -1.09983e-15)
(8.4346e-16 -9.59622e-30 -1.25595e-30 11.5665 2.93083e-15 5.0638e-15 0.236018 -5.66202e-17 -9.71142e-17)
(3.37384e-15 7.10495e-30 1.18416e-30 11.5665 -1.61973e-15 -8.40305e-15 0.236018 -1.05441e-15 -1.08132e-15)
(-8.5961e-16 1.41605e-29 5.91682e-32 11.4822 2.96944e-15 5.53605e-15 0.237651 -6.25911e-17 -1.08866e-16)
(3.43844e-15 -1.16719e-29 -6.17852e-32 11.4822 -1.48313e-15 -7.61351e-15 0.237651 -1.05918e-15 -9.47199e-16)
(-8.75887e-16 2.48748e-30 4.66463e-32 11.3933 2.02873e-15 5.98251e-15 0.239186 -5.98834e-17 -1.19582e-16)
(0 0 0 11.3933 -1.24068e-15 -6.79685e-15 0.239186 -1.07587e-15 -6.78393e-16)
(-8.92286e-16 2.49218e-30 3.39522e-32 11.2999 6.33464e-16 6.44338e-15 0.240616 -2.47681e-17 -1.30876e-16)
(0 4.53588e-30 0 11.2999 5.88797e-16 -6.04343e-15 0.240616 -1.08432e-15 -4.12386e-16)
(-9.08799e-16 -7.10311e-30 2.10565e-32 11.2018 1.82383e-16 6.89163e-15 0.241937 -1.96414e-18 -1.42796e-16)
(2.37676e-15 8.94173e-30 -4.5087e-31 11.2018 1.84669e-15 -5.29904e-15 0.241937 -1.07983e-15 -1.48217e-16)
(2.16582e-15 -9.10479e-30 -8.15867e-33 11.0991 6.60905e-17 7.32167e-15 0.243145 -8.13341e-18 -1.54159e-16)
(-1.2404e-15 6.61018e-30 0 11.0991 1.09598e-15 -4.6042e-15 0.243145 -1.07978e-15 -9.43411e-17)
(0 -8.68725e-30 -1.08591e-30 10.9919 -9.34977e-16 7.77933e-15 0.244236 -3.63376e-17 -1.3018e-16)
(0 8.68725e-30 0 10.9919 1.09993e-16 -3.91544e-15 0.244236 -1.08323e-15 -7.91567e-17)
(-9.58951e-16 -1.78675e-30 0 10.8802 -1.31925e-15 8.2025e-15 0.245206 -2.29105e-17 -4.66016e-17)
(0 6.42206e-30 0 10.8802 8.36529e-16 -3.14459e-15 0.245206 -1.09087e-15 -6.2177e-17)
(1.18783e-15 -6.82151e-30 0 10.7641 -2.18958e-28 8.59065e-15 0.246054 -3.15544e-30 3.65991e-17)
(6.61896e-15 2.321e-29 -7.35934e-31 10.7641 2.32587e-15 -3.71064e-15 0.246054 -1.09012e-15 -1.07497e-16)
(-1.1708e-15 2.04195e-30 1.03988e-30 10.6438 5.96468e-16 9.01564e-15 0.246776 -6.90437e-18 1.19978e-16)
(3.97129e-15 4.15952e-30 -3.10155e-31 10.6438 1.60808e-15 -5.95393e-15 0.246776 -1.07886e-15 -1.68621e-16)
(-2.16388e-15 2.09438e-29 1.02498e-30 10.5193 8.03168e-16 6.3418e-15 0.247372 -2.09606e-17 2.0339e-16)
(-4.03945e-15 -1.63996e-29 2.98025e-31 10.5193 1.52391e-16 -7.04785e-15 0.247372 -1.08569e-15 -1.62406e-16)
(1.10519e-16 6.53581e-30 -1.01029e-30 10.3909 4.40763e-16 3.19642e-15 0.24784 -1.67377e-17 2.49928e-16)
(-4.10785e-15 0 2.85735e-31 10.3909 3.92558e-16 -6.65765e-15 0.24784 -1.09419e-15 -1.5483e-16)
(-1.12118e-15 7.96645e-30 0 10.2587 5.41506e-17 2.89529e-15 0.248181 -4.17752e-18 2.90484e-16)
(0 -3.98323e-30 0 10.2587 1.34445e-15 -6.20964e-15 0.248181 -1.08627e-15 -1.45344e-16)
(0 0 0 10.123 2.03493e-28 2.74292e-15 0.248394 3.46326e-46 3.26588e-16)
(4.24521e-15 0 7.2243e-31 10.123 7.15026e-16 -5.7635e-15 0.248394 -1.07547e-15 -1.37321e-16)
(-1.10001e-15 2.07297e-29 0 9.98397 1.23243e-15 2.55972e-15 0.248482 -3.15555e-17 3.58209e-16)
(1.08927e-15 -1.93493e-29 9.67466e-31 9.98397 -8.7176e-16 -5.37158e-15 0.248482 -1.08242e-15 -1.29955e-16)
(0 -3.05152e-29 9.536e-31 9.84192 -1.50637e-16 2.38044e-15 0.248446 -3.78605e-17 3.83662e-16)
(8.76619e-15 3.05152e-29 -1.41203e-30 9.84192 7.30145e-16 -4.92857e-15 0.248446 -1.09935e-15 -1.18813e-16)
(1.05827e-15 -7.51946e-30 0 9.69709 -2.11923e-15 2.24043e-15 0.248288 -7.0936e-17 4.04445e-16)
(7.84602e-15 7.51946e-30 -4.24178e-31 9.69709 2.30003e-15 -4.46386e-15 0.248288 -1.08002e-15 -1.09784e-16)
(-2.2606e-15 4.97142e-30 0 9.54975 -2.5816e-15 2.17694e-15 0.248011 -6.3174e-17 4.21536e-16)
(0 0 0 9.54975 1.68841e-15 -4.1096e-15 0.248011 -1.06484e-15 -1.03749e-16)
(-1.14757e-15 2.49029e-30 0 9.40021 -1.97785e-15 1.9999e-15 0.247619 -4.09495e-17 4.34234e-16)
(9.18053e-15 3.65273e-30 -1.265e-30 9.40021 1.85863e-15 -3.71305e-15 0.247619 -1.05564e-15 -9.19394e-17)
(1.16482e-15 -9.6905e-30 0 9.24876 -1.59379e-15 1.81004e-15 0.247116 -4.43305e-17 4.40808e-16)
(0 7.20075e-30 0 9.24876 1.04666e-15 -3.1669e-15 0.247116 -1.0327e-15 -7.73605e-17)
(-1.18205e-15 2.48636e-30 0 9.09568 -2.16985e-15 1.72583e-15 0.246505 -7.36395e-17 4.42928e-16)
(0 3.54877e-30 -8.87193e-31 9.09568 1.44443e-15 -2.71999e-15 0.246505 -1.03049e-15 -7.02024e-17)
(-1.19925e-15 9.48155e-30 0 8.94128 -3.0185e-15 1.63002e-15 0.245792 -9.26952e-17 4.41009e-16)
(4.79701e-15 -6.99582e-30 -1.17149e-31 8.94128 4.34017e-15 -2.36068e-15 0.245792 -1.01718e-15 -5.96994e-17)
(-1.21642e-15 5.93687e-30 -8.61944e-31 8.78585 -3.13375e-15 1.53886e-15 0.244981 -8.22808e-17 4.34795e-16)
(4.86569e-15 0 7.66187e-31 8.78585 4.5827e-15 -1.95719e-15 0.244981 -9.77285e-16 -4.95564e-17)
(-2.46709e-15 4.97849e-30 0 8.62968 -3.22924e-15 1.39119e-15 0.244077 -1.00862e-16 4.23963e-16)
(0 0 0 8.62968 3.17999e-15 -1.51494e-15 0.244077 -9.54832e-16 -3.62025e-17)
(-1.25062e-15 1.25448e-29 -1.67483e-30 8.47306 -3.07262e-15 1.33095e-15 0.243086 -7.56209e-17 4.08257e-16)
(0 -3.34965e-30 1.67483e-30 8.47306 2.78023e-15 -1.14012e-15 0.243086 -9.424e-16 -2.93003e-17)
(1.85866e-15 -3.30164e-30 0 8.31626 -2.19175e-15 1.34839e-15 0.242014 -5.2059e-17 3.90206e-16)
(-5.07054e-15 9.90493e-30 -7.97553e-31 8.31626 2.69225e-15 -8.74995e-16 0.242014 -9.22539e-16 -2.16853e-17)
(1.28459e-15 -1.22596e-29 0 8.15955 -2.29017e-15 1.26742e-15 0.240865 -8.37031e-17 3.68206e-16)
(5.13835e-15 9.76297e-30 -5.19728e-33 8.15955 1.98509e-15 -5.65516e-16 0.240865 -9.02109e-16 -1.17103e-17)
(1.30147e-15 -8.91329e-30 0 8.00317 -2.70968e-15 1.18798e-15 0.239646 -7.8955e-17 3.41774e-16)
(-5.20588e-15 6.41536e-30 4.22463e-33 8.00317 1.20857e-15 2.95823e-31 0.239646 -9.04638e-16 3.04417e-17)
(-1.31828e-15 8.82475e-30 -7.90426e-31 7.84738 -2.2274e-15 1.12122e-15 0.238362 -5.6564e-17 3.12262e-16)
(3.49323e-15 0 7.90426e-31 7.84738 1.36378e-15 7.74667e-18 0.238362 -8.98788e-16 8.31633e-17)
(0 2.01305e-30 -7.79098e-31 7.69238 -1.39873e-16 1.04303e-15 0.237018 -2.16104e-18 2.78957e-16)
(0 -3.11639e-30 7.79098e-31 7.69238 9.48505e-16 2.69029e-16 0.237018 -8.76212e-16 1.34334e-16)
(-1.72923e-15 1.4013e-45 0 7.53841 4.93038e-32 8.63643e-16 0.23562 -3.15544e-30 2.41494e-16)
(5.40658e-15 -6.14345e-30 7.67931e-31 7.53841 9.83321e-16 5.12915e-16 0.23562 -8.59725e-16 1.8683e-16)
(1.36819e-15 -8.5584e-30 7.56925e-31 7.38564 4.41694e-16 6.47626e-16 0.234173 -2.09755e-17 1.96254e-16)
(0 6.0554e-30 -7.56925e-31 7.38564 5.68146e-16 7.88918e-16 0.234173 -8.32692e-16 2.40075e-16)
(-3.36003e-15 2.9843e-30 -7.46076e-31 7.23427 -9.25877e-17 5.74484e-16 0.232682 -1.31408e-17 1.48283e-16)
(-5.5386e-15 0 7.46076e-31 7.23427 -3.45981e-16 1.00443e-15 0.232682 -8.23191e-16 2.94438e-16)
(-1.65593e-15 2.94153e-30 7.35383e-31 7.08445 -4.58084e-16 4.36085e-16 0.231152 -1.68786e-17 9.77087e-17)
(0 2.94153e-30 -7.35383e-31 7.08445 -1.85434e-16 1.1097e-15 0.231152 -8.12124e-16 3.47759e-16)
(-1.6322e-15 8.69812e-30 -1.44969e-30 6.93634 -8.10774e-16 1.36669e-16 0.229588 -3.71238e-17 4.11662e-17)
(0 -2.89937e-30 1.44969e-30 6.93634 -1.81774e-16 1.24631e-15 0.229588 -8.08017e-16 4.01341e-16)
(-1.7842e-15 1.46607e-29 -7.14454e-31 6.79008 -2.06167e-15 -1.45516e-16 0.227995 -1.02286e-16 -2.13046e-17)
(3.21762e-15 -1.71469e-29 7.14454e-31 6.79008 4.2433e-16 1.62298e-15 0.227995 -8.03816e-16 4.55911e-16)
(1.44946e-15 3.39375e-31 0 6.64578 -4.02232e-15 -1.87202e-16 0.226376 -1.73239e-16 -8.91978e-17)
(0 0 0 6.64578 1.99548e-15 1.90405e-15 0.226376 -7.75745e-16 5.13708e-16)
(-2.9308e-15 4.96028e-30 0 6.50355 -5.10878e-15 -1.79557e-16 0.224736 -1.81193e-16 -1.57404e-16)
(5.86159e-15 0 0 6.50355 2.69095e-15 1.98253e-15 0.224736 -7.39918e-16 5.67585e-16)
(-1.48122e-15 2.49018e-30 0 6.36348 -4.45944e-15 -3.7243e-16 0.223079 -1.32285e-16 -2.28434e-16)
(0 2.73669e-30 0 6.36348 2.06832e-15 2.15786e-15 0.223079 -7.00793e-16 6.21689e-16)
(0 2.69747e-30 -1.34873e-30 6.22566 -3.29113e-15 -5.08945e-16 0.221407 -1.0248e-16 -3.02777e-16)
(-3.03708e-15 -2.69747e-30 1.34873e-30 6.22566 1.76895e-15 2.40408e-15 0.221407 -6.67433e-16 6.76196e-16)
(-1.49677e-15 7.97641e-30 -6.64701e-31 6.09015 -2.27212e-15 -5.2068e-16 0.219726 -6.18099e-17 -3.80458e-16)
(0 -2.6588e-30 6.64701e-31 6.09015 6.84087e-16 2.57226e-15 0.219726 -6.2618e-16 7.30809e-16)
(-1.47532e-15 3.28818e-30 6.55174e-31 5.95701 -4.93361e-16 -4.85544e-16 0.218038 -9.06419e-18 -4.59487e-16)
(-1.47532e-15 -5.24139e-30 1.31035e-30 5.95701 -1.46346e-16 2.48436e-15 0.218038 -6.1313e-16 7.82386e-16)
(0 1.03325e-29 0 5.82628 -1.12895e-15 -1.51146e-15 0.216345 -7.55883e-17 -5.41039e-16)
(1.2347e-14 -5.16627e-30 1.29157e-30 5.82628 6.77879e-16 2.45203e-15 0.216345 -6.10788e-16 8.31577e-16)
(-3.11724e-15 5.00699e-30 0 5.698 -2.23208e-15 -6.35719e-15 0.214651 -9.33793e-17 -6.46924e-16)
(6.23449e-15 0 0 5.698 5.08793e-16 2.6933e-15 0.214651 -5.74805e-16 8.82571e-16)
(2.98654e-15 -1.0039e-29 -1.25481e-30 5.5722 -1.8941e-15 -9.9984e-15 0.212958 -5.16766e-17 -8.28093e-16)
(0 7.52886e-30 0 5.5722 -8.15329e-16 2.94997e-15 0.212958 -5.42513e-16 9.35788e-16)
(0 2.47365e-30 0 5.44889 -1.82982e-15 -9.70462e-15 0.211268 -9.10732e-17 -1.00662e-15)
(-6.35505e-15 0 0 5.44889 -8.55314e-16 3.03696e-16 0.211268 -5.3535e-16 9.87728e-16)
(-1.60366e-15 -1.45669e-29 1.2191e-30 5.32808 -2.78073e-15 -9.66779e-15 0.209584 -1.28849e-16 -1.1341e-15)
(6.41462e-15 1.70674e-29 -1.2191e-30 5.32808 1.74742e-16 -4.61265e-15 0.209584 -5.19901e-16 9.82789e-16)
(2.70582e-15 9.61301e-30 0 5.20978 -3.00726e-15 -9.61e-15 0.207908 -1.12027e-16 -1.22198e-15)
(-2.70582e-15 -4.8065e-30 1.20163e-30 5.20978 -3.9726e-16 -6.70071e-15 0.207908 -4.92315e-16 9.34659e-16)
(0 -7.10642e-30 0 5.09398 -2.5699e-15 -9.33598e-15 0.20624 -9.68057e-17 -1.31036e-15)
(0 7.10642e-30 -1.1844e-30 5.09398 -2.42599e-15 -6.54577e-15 0.20624 -4.85868e-16 8.83781e-16)
(-1.64763e-15 2.52e-30 0 4.98068 -1.9788e-15 -9.15987e-15 0.204584 -6.6197e-17 -1.40052e-15)
(0 0 0 4.98068 -3.15929e-15 -6.48527e-15 0.204584 -5.08002e-16 8.29947e-16)
(-7.32972e-16 5.25487e-45 -1.12513e-30 4.86985 1.02173e-29 -9.31483e-15 0.20294 -3.15544e-30 -1.40276e-15)
(1.32964e-14 2.30139e-29 0 4.86985 -2.45743e-15 -6.04124e-15 0.20294 -5.10974e-16 7.74862e-16)
(0 1.67705e-30 0 4.76149 8.19974e-16 -9.56944e-15 0.20131 -1.74044e-17 -1.23671e-15)
(-2.554e-15 0 0 4.76149 -3.40043e-15 -5.35675e-15 0.20131 -4.86615e-16 7.31558e-16)
(-2.51739e-15 6.70768e-30 0 4.65556 1.77138e-15 -9.55988e-15 0.199694 -7.11692e-17 -1.04491e-15)
(-2.51739e-15 0 1.11795e-30 4.65556 -4.91654e-15 -5.33154e-15 0.199694 -5.10717e-16 6.89635e-16)
(-5.1139e-15 -1.23206e-29 3.99175e-31 4.55204 4.10158e-16 -9.75788e-15 0.198094 -8.14864e-17 -8.72631e-16)
(1.36371e-14 1.98346e-29 0 4.55204 -3.35983e-15 -5.30537e-15 0.198094 -5.59609e-16 6.42065e-16)
(-2.44575e-15 -2.38949e-29 0 4.45089 -2.48771e-15 -1.00051e-14 0.196511 -1.7492e-16 -6.55483e-16)
(1.61945e-14 2.38949e-29 0 4.45089 -3.31332e-16 -4.7027e-15 0.196511 -5.62853e-16 6.00605e-16)
(-1.73245e-15 1.32041e-29 2.31129e-31 4.35209 -3.53934e-15 -9.67137e-15 0.194946 -1.43213e-16 -4.22607e-16)
(0 -8.56451e-30 0 4.35209 1.39218e-15 -4.42461e-15 0.194946 -5.32674e-16 5.65822e-16)
(4.12234e-15 -2.78223e-29 8.05577e-31 4.2556 -3.49707e-15 -9.18751e-15 0.193398 -1.76159e-16 -4.15771e-16)
(1.15934e-14 2.53253e-29 -1.05522e-30 4.2556 2.11953e-15 -4.42153e-15 0.193398 -5.14368e-16 5.24007e-16)
(2.34209e-15 -1.66415e-29 -1.0401e-30 4.16139 -3.59932e-15 -8.86869e-15 0.19187 -1.56943e-16 -4.05254e-16)
(4.69721e-15 1.66415e-29 1.0401e-30 4.16139 5.97039e-16 -4.15479e-15 0.19187 -4.63067e-16 4.81734e-16)
(1.77335e-15 -1.07144e-29 -2.8743e-31 4.0694 -2.62499e-15 -8.47689e-15 0.190361 -8.91336e-17 -3.90881e-16)
(0 8.20151e-30 0 4.0694 -6.59366e-16 -3.88924e-15 0.190361 -4.61586e-16 4.42809e-16)