/*--------------------------------*- C++ -*----------------------------------*\
| =========                 |                                                 |
| \\      /  F ield         | OpenFOAM: The Open Source CFD Toolbox           |
|  \\    /   O peration     | Version:  2106                                  |
|   \\  /    A nd           | Website:  www.openfoam.com                      |
|    \\/     M anipulation  |                                                 |
\*---------------------------------------------------------------------------*/
FoamFile
{
    version     2.0;
    format      ascii;
    arch        "LSB;label=32;scalar=64";
    class       volScalarField;
    location    "20000";
    object      p;
}
// * * * * * * * * * * * * * * * * * * * * * * * * * * * * * * * * * * * * * //

dimensions      [0 2 -2 0 0 0 0];

internalField   nonuniform List<scalar> 
2560
(
6.18955e-15
4.22163e-14
1.43437e-14
4.22165e-14
1.62965e-14
4.22176e-14
1.6463e-14
4.22201e-14
1.69175e-14
4.2224e-14
1.76869e-14
4.22294e-14
1.85046e-14
4.22361e-14
1.92939e-14
4.22442e-14
2.00575e-14
4.22536e-14
2.08025e-14
4.22643e-14
2.15319e-14
4.22764e-14
2.22474e-14
4.22897e-14
2.295e-14
4.23044e-14
2.36403e-14
4.23205e-14
2.43184e-14
4.23379e-14
2.49845e-14
4.23567e-14
2.56385e-14
4.23768e-14
2.62806e-14
4.23983e-14
2.6911e-14
4.24212e-14
2.75298e-14
4.24454e-14
2.8137e-14
4.24709e-14
2.87327e-14
4.24979e-14
2.93172e-14
4.25261e-14
2.98907e-14
4.25558e-14
3.0453e-14
4.25868e-14
3.10044e-14
4.2619e-14
3.15449e-14
4.26526e-14
3.20747e-14
4.26879e-14
3.25939e-14
4.27247e-14
3.31025e-14
4.27628e-14
3.36008e-14
4.28021e-14
3.40885e-14
4.28426e-14
3.4566e-14
4.28847e-14
3.50336e-14
4.29282e-14
3.54913e-14
4.29732e-14
3.59388e-14
4.30195e-14
3.63766e-14
4.30667e-14
3.6805e-14
4.31153e-14
3.7224e-14
4.31652e-14
3.76333e-14
4.32164e-14
3.80331e-14
4.32693e-14
3.84236e-14
4.33235e-14
3.8805e-14
4.33793e-14
3.91773e-14
4.34365e-14
3.95406e-14
4.34948e-14
3.9895e-14
4.35547e-14
4.02404e-14
4.3616e-14
4.05772e-14
4.3679e-14
4.0905e-14
4.37435e-14
4.1224e-14
4.38096e-14
4.15353e-14
4.38767e-14
4.18375e-14
4.39455e-14
4.2131e-14
4.40156e-14
4.24162e-14
4.40873e-14
4.2693e-14
4.41606e-14
4.29616e-14
4.42355e-14
4.32222e-14
4.4312e-14
4.34752e-14
4.43896e-14
4.37202e-14
4.44683e-14
4.39573e-14
4.45484e-14
4.41871e-14
4.46301e-14
4.44096e-14
4.4713e-14
4.46247e-14
4.47966e-14
4.48325e-14
4.48815e-14
4.50333e-14
4.4968e-14
4.52266e-14
4.50554e-14
4.54129e-14
4.51436e-14
4.5593e-14
4.52328e-14
4.57663e-14
4.53229e-14
4.59332e-14
4.54146e-14
4.60929e-14
4.55072e-14
4.62461e-14
4.56005e-14
4.63931e-14
4.56949e-14
4.65339e-14
4.57903e-14
4.66685e-14
4.5887e-14
4.67967e-14
4.5985e-14
4.69191e-14
4.60839e-14
4.70362e-14
4.61833e-14
4.71475e-14
4.62835e-14
4.72541e-14
4.63847e-14
4.73544e-14
4.64872e-14
4.74496e-14
4.65895e-14
4.75404e-14
4.66922e-14
4.76259e-14
4.67965e-14
4.77058e-14
4.69027e-14
4.77806e-14
4.70099e-14
4.78508e-14
4.71171e-14
4.79157e-14
4.72252e-14
4.79765e-14
4.73341e-14
4.80322e-14
4.74452e-14
4.80832e-14
4.75573e-14
4.81306e-14
4.76696e-14
4.81735e-14
4.77827e-14
4.82134e-14
4.78961e-14
4.82502e-14
4.80091e-14
4.82831e-14
4.81228e-14
4.83136e-14
4.82376e-14
4.83399e-14
4.8354e-14
4.83609e-14
4.847e-14
4.83791e-14
4.85855e-14
4.83936e-14
4.87013e-14
4.84053e-14
4.88176e-14
4.84113e-14
4.89349e-14
4.84149e-14
4.90542e-14
4.84173e-14
4.91727e-14
4.84164e-14
4.92911e-14
4.84117e-14
4.94106e-14
4.84057e-14
4.95289e-14
4.83971e-14
4.96464e-14
4.83858e-14
4.97642e-14
4.83726e-14
4.98801e-14
4.83573e-14
4.99959e-14
4.834e-14
5.01093e-14
4.83205e-14
5.02212e-14
4.82996e-14
5.03327e-14
4.82788e-14
5.04438e-14
4.82556e-14
5.05531e-14
4.82315e-14
5.06632e-14
4.82021e-14
5.07743e-14
4.81724e-14
5.08858e-14
4.81415e-14
5.09944e-14
4.81066e-14
5.11036e-14
4.80701e-14
5.12138e-14
4.80328e-14
5.1325e-14
4.79954e-14
5.14322e-14
4.79586e-14
5.154e-14
4.79222e-14
5.16469e-14
4.78861e-14
5.17511e-14
4.78502e-14
5.1852e-14
4.78124e-14
5.19507e-14
4.77726e-14
5.20519e-14
4.77324e-14
5.21549e-14
4.76952e-14
5.22535e-14
4.76581e-14
5.2346e-14
4.7619e-14
5.24411e-14
4.75814e-14
5.25332e-14
4.75442e-14
5.26227e-14
4.75072e-14
5.27126e-14
4.747e-14
5.28089e-14
4.74324e-14
5.29004e-14
4.73883e-14
5.29892e-14
4.73431e-14
5.30855e-14
4.73026e-14
5.31837e-14
4.72623e-14
5.32721e-14
4.72261e-14
5.33591e-14
4.71956e-14
5.34448e-14
4.71686e-14
5.35256e-14
4.71467e-14
5.36037e-14
4.71256e-14
5.36774e-14
4.71111e-14
5.3749e-14
4.71009e-14
5.38188e-14
4.70988e-14
5.38871e-14
4.71025e-14
5.39586e-14
4.71094e-14
5.40249e-14
4.71151e-14
5.40864e-14
4.71254e-14
5.41412e-14
4.71466e-14
5.41874e-14
4.71785e-14
5.42427e-14
4.72119e-14
5.4303e-14
4.72398e-14
5.43556e-14
4.72707e-14
5.4405e-14
4.7293e-14
5.44605e-14
4.7324e-14
5.45159e-14
4.73657e-14
5.45692e-14
4.73904e-14
5.4632e-14
4.74271e-14
5.46868e-14
4.74685e-14
5.47383e-14
4.75096e-14
5.47892e-14
4.75544e-14
5.48353e-14
4.75954e-14
5.48839e-14
4.76415e-14
5.49401e-14
4.76967e-14
5.49903e-14
4.77417e-14
5.50443e-14
4.77759e-14
5.51026e-14
4.78126e-14
5.5161e-14
4.78512e-14
5.52153e-14
4.7891e-14
5.52659e-14
4.79457e-14
5.53086e-14
4.80003e-14
5.53533e-14
4.80589e-14
5.54006e-14
4.81208e-14
5.54413e-14
4.81853e-14
5.54759e-14
4.82566e-14
5.54996e-14
4.83342e-14
5.55278e-14
4.84126e-14
5.55508e-14
4.8491e-14
5.55741e-14
4.85737e-14
5.5588e-14
4.86552e-14
5.55979e-14
4.87499e-14
5.56089e-14
4.8842e-14
5.56215e-14
4.8946e-14
5.56157e-14
4.90464e-14
5.56019e-14
4.91477e-14
5.559e-14
4.92595e-14
5.55905e-14
4.93662e-14
5.55881e-14
4.94672e-14
5.55678e-14
4.95722e-14
5.5555e-14
4.96806e-14
5.55652e-14
4.97971e-14
5.55627e-14
4.99111e-14
5.55475e-14
5.00271e-14
5.55452e-14
5.01242e-14
5.55611e-14
5.02376e-14
5.55594e-14
5.03412e-14
5.55606e-14
5.04448e-14
5.557e-14
5.05529e-14
5.55824e-14
5.06701e-14
5.55979e-14
5.07961e-14
5.55958e-14
5.092e-14
5.55966e-14
5.10416e-14
5.56106e-14
5.11604e-14
5.56376e-14
5.1276e-14
5.56463e-14
5.13984e-14
5.56469e-14
5.15378e-14
5.56497e-14
5.16836e-14
5.56753e-14
5.1825e-14
5.57128e-14
5.19618e-14
5.57411e-14
5.21043e-14
5.57495e-14
5.2242e-14
5.57689e-14
5.23853e-14
5.58198e-14
5.25233e-14
5.58392e-14
5.26875e-14
5.58474e-14
5.28365e-14
5.58854e-14
5.29912e-14
5.59319e-14
5.31307e-14
5.59652e-14
5.3255e-14
5.59953e-14
5.33952e-14
5.60216e-14
5.3531e-14
5.6054e-14
5.36727e-14
5.61022e-14
5.37996e-14
5.61447e-14
5.39219e-14
5.61704e-14
5.40503e-14
5.61993e-14
5.41955e-14
5.62516e-14
5.43265e-14
5.62848e-14
5.44436e-14
5.62874e-14
5.45789e-14
5.63101e-14
5.47018e-14
5.63412e-14
5.48335e-14
5.63694e-14
5.49542e-14
5.63934e-14
5.50539e-14
5.64425e-14
5.51844e-14
5.64954e-14
5.53046e-14
5.65099e-14
5.54465e-14
5.65252e-14
5.55808e-14
5.65699e-14
5.56979e-14
5.66317e-14
5.58385e-14
5.66791e-14
5.59833e-14
5.67104e-14
5.61549e-14
5.67027e-14
5.62548e-14
5.67328e-14
5.63445e-14
5.67784e-14
5.64639e-14
5.68586e-14
5.65733e-14
5.69719e-14
5.66922e-14
5.7058e-14
5.68408e-14
5.71563e-14
5.69601e-14
5.72251e-14
5.70705e-14
5.7283e-14
5.71923e-14
5.73678e-14
5.73061e-14
5.7478e-14
5.74305e-14
5.76131e-14
5.7526e-14
5.77332e-14
5.76506e-14
5.78388e-14
5.77261e-14
5.79485e-14
5.78089e-14
5.80248e-14
5.79172e-14
5.81649e-14
5.80689e-14
5.82725e-14
5.82265e-14
5.83843e-14
5.8335e-14
5.84597e-14
5.84341e-14
5.85723e-14
5.85801e-14
5.8684e-14
5.868e-14
5.88314e-14
5.8769e-14
5.89418e-14
5.8883e-14
5.8961e-14
5.89702e-14
5.90155e-14
5.90495e-14
5.91595e-14
5.91351e-14
5.93778e-14
5.92562e-14
5.95121e-14
5.93741e-14
5.95659e-14
5.94735e-14
5.96077e-14
5.95926e-14
5.97235e-14
5.96778e-14
5.98929e-14
5.97777e-14
6.00854e-14
5.9886e-14
6.01847e-14
5.99846e-14
6.02264e-14
6.01112e-14
6.0275e-14
6.02517e-14
6.03943e-14
6.04063e-14
6.05149e-14
6.04236e-14
6.05834e-14
6.04692e-14
6.06375e-14
6.05723e-14
6.07093e-14
6.06669e-14
6.07957e-14
6.07542e-14
6.08948e-14
6.0865e-14
6.09073e-14
6.10056e-14
6.10198e-14
6.10489e-14
6.11297e-14
6.11495e-14
6.12108e-14
6.12754e-14
6.13277e-14
6.13336e-14
6.14482e-14
6.1381e-14
6.15138e-14
6.14752e-14
6.16199e-14
6.15848e-14
6.16158e-14
6.16892e-14
6.16726e-14
6.17311e-14
6.18123e-14
6.18216e-14
6.19262e-14
6.19004e-14
6.20796e-14
6.19285e-14
6.21045e-14
6.20498e-14
6.22076e-14
6.22089e-14
6.22721e-14
6.22756e-14
6.2375e-14
6.23882e-14
6.24921e-14
6.25462e-14
6.26235e-14
6.26466e-14
6.27114e-14
6.27201e-14
6.27571e-14
6.28245e-14
6.28386e-14
6.28846e-14
6.29561e-14
6.2947e-14
6.29563e-14
6.30203e-14
6.29393e-14
6.30672e-14
6.30442e-14
6.31074e-14
6.3148e-14
6.3162e-14
6.31527e-14
6.3215e-14
6.32035e-14
3.8478e-14
4.11746e-14
3.84781e-14
4.11746e-14
3.84786e-14
4.11746e-14
3.84799e-14
4.11746e-14
3.84818e-14
4.11747e-14
3.84845e-14
4.11749e-14
3.84878e-14
4.11752e-14
3.84918e-14
4.11755e-14
3.84965e-14
4.1176e-14
3.85019e-14
4.11764e-14
3.85079e-14
4.11769e-14
3.85146e-14
4.11774e-14
3.85221e-14
4.11779e-14
3.85302e-14
4.11785e-14
3.8539e-14
4.11792e-14
3.85485e-14
4.11799e-14
3.85586e-14
4.11807e-14
3.85695e-14
4.11814e-14
3.85812e-14
4.11822e-14
3.85936e-14
4.1183e-14
3.86067e-14
4.1184e-14
3.86205e-14
4.11851e-14
3.86351e-14
4.11863e-14
3.86505e-14
4.11875e-14
3.86667e-14
4.11885e-14
3.86837e-14
4.11895e-14
3.87013e-14
4.11907e-14
3.87197e-14
4.11921e-14
3.87391e-14
4.11936e-14
3.87593e-14
4.11949e-14
3.87802e-14
4.11961e-14
3.88018e-14
4.11974e-14
3.88244e-14
4.11991e-14
3.88477e-14
4.1201e-14
3.88716e-14
4.1203e-14
3.88962e-14
4.12052e-14
3.89216e-14
4.12075e-14
3.89477e-14
4.12099e-14
3.89746e-14
4.12121e-14
3.90024e-14
4.12144e-14
3.9031e-14
4.1217e-14
3.90601e-14
4.12199e-14
3.90903e-14
4.12229e-14
3.91217e-14
4.12258e-14
3.91537e-14
4.1229e-14
3.91865e-14
4.12324e-14
3.92201e-14
4.12361e-14
3.92545e-14
4.12402e-14
3.92896e-14
4.12444e-14
3.93254e-14
4.12487e-14
3.93621e-14
4.12535e-14
3.9399e-14
4.12585e-14
3.94371e-14
4.12641e-14
3.94755e-14
4.12703e-14
3.95145e-14
4.1277e-14
3.9554e-14
4.12842e-14
3.95942e-14
4.12918e-14
3.9635e-14
4.13001e-14
3.96764e-14
4.13091e-14
3.97184e-14
4.13183e-14
3.97611e-14
4.13282e-14
3.98043e-14
4.13386e-14
3.98481e-14
4.135e-14
3.98924e-14
4.13615e-14
3.99372e-14
4.13739e-14
3.99833e-14
4.13871e-14
4.00299e-14
4.14004e-14
4.00772e-14
4.14146e-14
4.01251e-14
4.1429e-14
4.0174e-14
4.14434e-14
4.02236e-14
4.14586e-14
4.02741e-14
4.14746e-14
4.03252e-14
4.14915e-14
4.03773e-14
4.15093e-14
4.04293e-14
4.15278e-14
4.04822e-14
4.15466e-14
4.05361e-14
4.1566e-14
4.05909e-14
4.15867e-14
4.06463e-14
4.16079e-14
4.07018e-14
4.16299e-14
4.07589e-14
4.16529e-14
4.08167e-14
4.16769e-14
4.0875e-14
4.17021e-14
4.09343e-14
4.17284e-14
4.09945e-14
4.17557e-14
4.10553e-14
4.17835e-14
4.11164e-14
4.18124e-14
4.11783e-14
4.18425e-14
4.12406e-14
4.18732e-14
4.13038e-14
4.19053e-14
4.13686e-14
4.19376e-14
4.14334e-14
4.19718e-14
4.1499e-14
4.20069e-14
4.15654e-14
4.2042e-14
4.16326e-14
4.20789e-14
4.17011e-14
4.21178e-14
4.17699e-14
4.21592e-14
4.18396e-14
4.22014e-14
4.19114e-14
4.22432e-14
4.1984e-14
4.22869e-14
4.20583e-14
4.23329e-14
4.21315e-14
4.23809e-14
4.2208e-14
4.24307e-14
4.22863e-14
4.2482e-14
4.23643e-14
4.25355e-14
4.24445e-14
4.25904e-14
4.25241e-14
4.26467e-14
4.26047e-14
4.27068e-14
4.26873e-14
4.2767e-14
4.27722e-14
4.28293e-14
4.2857e-14
4.28954e-14
4.29426e-14
4.29627e-14
4.30298e-14
4.30313e-14
4.31187e-14
4.31011e-14
4.32085e-14
4.31747e-14
4.33e-14
4.32502e-14
4.339e-14
4.33286e-14
4.34827e-14
4.3409e-14
4.35764e-14
4.34922e-14
4.36712e-14
4.35757e-14
4.37671e-14
4.36611e-14
4.38641e-14
4.37467e-14
4.39615e-14
4.3836e-14
4.40602e-14
4.39305e-14
4.41601e-14
4.40261e-14
4.42614e-14
4.41252e-14
4.43613e-14
4.42253e-14
4.44627e-14
4.43298e-14
4.45655e-14
4.44343e-14
4.46735e-14
4.45378e-14
4.47793e-14
4.46485e-14
4.48868e-14
4.47609e-14
4.49949e-14
4.48721e-14
4.51038e-14
4.49831e-14
4.52135e-14
4.50994e-14
4.53279e-14
4.52172e-14
4.54441e-14
4.53385e-14
4.55622e-14
4.54593e-14
4.56804e-14
4.55835e-14
4.58006e-14
4.57053e-14
4.59269e-14
4.58244e-14
4.60456e-14
4.59506e-14
4.61665e-14
4.60841e-14
4.62918e-14
4.62168e-14
4.64195e-14
4.63466e-14
4.65436e-14
4.64795e-14
4.66683e-14
4.66196e-14
4.67957e-14
4.67628e-14
4.69237e-14
4.6907e-14
4.70504e-14
4.70501e-14
4.71758e-14
4.71963e-14
4.73062e-14
4.73413e-14
4.74396e-14
4.74893e-14
4.75762e-14
4.76403e-14
4.77116e-14
4.779e-14
4.78504e-14
4.79362e-14
4.79991e-14
4.80854e-14
4.81383e-14
4.82418e-14
4.82767e-14
4.84034e-14
4.84165e-14
4.85702e-14
4.85556e-14
4.87312e-14
4.86985e-14
4.88819e-14
4.88476e-14
4.90287e-14
4.8985e-14
4.91808e-14
4.91288e-14
4.93381e-14
4.92677e-14
4.94939e-14
4.94065e-14
4.9648e-14
4.95427e-14
4.98029e-14
4.96766e-14
4.99492e-14
4.98082e-14
5.00962e-14
4.99422e-14
5.02533e-14
5.00788e-14
5.04017e-14
5.02132e-14
5.05368e-14
5.03458e-14
5.0682e-14
5.04717e-14
5.08328e-14
5.06006e-14
5.09795e-14
5.07327e-14
5.11223e-14
5.08584e-14
5.12756e-14
5.09827e-14
5.1425e-14
5.11105e-14
5.15609e-14
5.1242e-14
5.17077e-14
5.13576e-14
5.18555e-14
5.14771e-14
5.20048e-14
5.15956e-14
5.21407e-14
5.17131e-14
5.22783e-14
5.18396e-14
5.24126e-14
5.19655e-14
5.25488e-14
5.21057e-14
5.26771e-14
5.22356e-14
5.27975e-14
5.23704e-14
5.29199e-14
5.25002e-14
5.30346e-14
5.26305e-14
5.31465e-14
5.27512e-14
5.32709e-14
5.28726e-14
5.33928e-14
5.3e-14
5.35074e-14
5.31286e-14
5.36148e-14
5.32637e-14
5.3715e-14
5.337e-14
5.38336e-14
5.34834e-14
5.39351e-14
5.36144e-14
5.40195e-14
5.37377e-14
5.41125e-14
5.38539e-14
5.42142e-14
5.39475e-14
5.43349e-14
5.40549e-14
5.4439e-14
5.41556e-14
5.4537e-14
5.4255e-14
5.46448e-14
5.43637e-14
5.47522e-14
5.4461e-14
5.48491e-14
5.45576e-14
5.49566e-14
5.46535e-14
5.50648e-14
5.47384e-14
5.51741e-14
5.48227e-14
5.52744e-14
5.49168e-14
5.53559e-14
5.5042e-14
5.54293e-14
5.51676e-14
5.55153e-14
5.52521e-14
5.56245e-14
5.53268e-14
5.57156e-14
5.54127e-14
5.57889e-14
5.55308e-14
5.58762e-14
5.56293e-14
5.59776e-14
5.57292e-14
5.60516e-14
5.58099e-14
5.61296e-14
5.5903e-14
5.62228e-14
5.59978e-14
5.63103e-14
5.61156e-14
5.63927e-14
5.62046e-14
5.64908e-14
5.62543e-14
5.65529e-14
5.63484e-14
5.66213e-14
5.64452e-14
5.67173e-14
5.65242e-14
5.68306e-14
5.66057e-14
5.68892e-14
5.66799e-14
5.69456e-14
5.67574e-14
5.70417e-14
5.68276e-14
5.7126e-14
5.68902e-14
5.71787e-14
5.69661e-14
5.72314e-14
5.70453e-14
5.72741e-14
5.71077e-14
5.73377e-14
5.71945e-14
5.74331e-14
5.72645e-14
5.75096e-14
5.73383e-14
5.75783e-14
5.7416e-14
5.76499e-14
5.74978e-14
5.7715e-14
5.76146e-14
5.77947e-14
5.77365e-14
5.78582e-14
5.78345e-14
5.79153e-14
5.78688e-14
5.79861e-14
5.79809e-14
5.80721e-14
5.81099e-14
5.81132e-14
5.82383e-14
5.81691e-14
5.82878e-14
5.82591e-14
5.83587e-14
5.83439e-14
5.84508e-14
5.84242e-14
5.85244e-14
5.85201e-14
5.86588e-14
5.85927e-14
5.87565e-14
5.86609e-14
5.88588e-14
5.87446e-14
5.90063e-14
5.88436e-14
5.90435e-14
5.89765e-14
5.9086e-14
5.9107e-14
5.91901e-14
5.91993e-14
5.92779e-14
5.92536e-14
5.9371e-14
5.92886e-14
5.94335e-14
5.94186e-14
5.95215e-14
5.95299e-14
5.9576e-14
5.96624e-14
5.96319e-14
5.97817e-14
5.96866e-14
5.98918e-14
5.97567e-14
5.99578e-14
5.98602e-14
6.0018e-14
5.9924e-14
6.00699e-14
5.99863e-14
6.00944e-14
6.00855e-14
6.00912e-14
6.01894e-14
6.01484e-14
6.02831e-14
6.02807e-14
6.04025e-14
6.03228e-14
6.04791e-14
6.04347e-14
6.0566e-14
6.05104e-14
6.06283e-14
6.06594e-14
6.06972e-14
6.07615e-14
6.07892e-14
6.08358e-14
6.08702e-14
6.09325e-14
6.09395e-14
6.10706e-14
6.10457e-14
6.11347e-14
6.11735e-14
6.11771e-14
6.12594e-14
6.12777e-14
6.1336e-14
6.13341e-14
6.14416e-14
6.14482e-14
6.15107e-14
6.15213e-14
6.15435e-14
6.16222e-14
6.16347e-14
6.17237e-14
6.17175e-14
6.18279e-14
6.17904e-14
6.19409e-14
6.18813e-14
6.20022e-14
6.19625e-14
6.20102e-14
6.2008e-14
6.20864e-14
6.20773e-14
6.22001e-14
6.21674e-14
6.22614e-14
6.21895e-14
6.22698e-14
6.22676e-14
6.23459e-14
6.23696e-14
6.24323e-14
6.24063e-14
6.24693e-14
6.24096e-14
6.25147e-14
6.24919e-14
6.26004e-14
6.25635e-14
6.26353e-14
6.26024e-14
6.26771e-14
6.26634e-14
6.27238e-14
6.2743e-14
6.2803e-14
6.28138e-14
6.29137e-14
6.2841e-14
6.30046e-14
6.29221e-14
6.30548e-14
6.30032e-14
6.31159e-14
6.30322e-14
6.31325e-14
6.30888e-14
6.321e-14
6.31423e-14
6.32131e-14
6.31724e-14
6.32988e-14
6.31948e-14
6.33493e-14
6.31765e-14
6.3473e-14
6.31962e-14
6.35364e-14
6.32158e-14
6.35546e-14
6.32698e-14
6.32753e-14
6.32767e-14
6.32985e-14
6.33363e-14
6.34077e-14
6.33358e-14
6.34617e-14
6.33736e-14
6.34179e-14
6.34349e-14
6.34294e-14
6.34718e-14
6.34369e-14
6.34602e-14
6.34326e-14
6.34798e-14
6.34751e-14
6.35012e-14
6.3545e-14
6.34882e-14
6.34867e-14
6.34998e-14
6.34867e-14
6.35087e-14
6.35426e-14
6.35111e-14
6.35459e-14
6.35355e-14
6.35803e-14
6.35526e-14
6.36168e-14
6.35638e-14
6.35984e-14
6.35718e-14
6.36399e-14
6.35729e-14
6.36569e-14
6.35928e-14
6.35908e-14
6.36093e-14
6.361e-14
6.36243e-14
6.36536e-14
6.36376e-14
6.36962e-14
6.36467e-14
6.36805e-14
6.36223e-14
6.36681e-14
6.36261e-14
6.36917e-14
6.36251e-14
6.36903e-14
6.36525e-14
6.36322e-14
6.36198e-14
6.37056e-14
6.3614e-14
6.36899e-14
6.36358e-14
6.35813e-14
6.36619e-14
6.36015e-14
6.36919e-14
6.36518e-14
6.36238e-14
6.36653e-14
6.36215e-14
6.36808e-14
6.36153e-14
6.36648e-14
6.3587e-14
6.36149e-14
6.35211e-14
6.35972e-14
6.35017e-14
6.3598e-14
6.34576e-14
6.36186e-14
6.34204e-14
6.35752e-14
6.33915e-14
6.35733e-14
6.33704e-14
6.35808e-14
6.33201e-14
6.35467e-14
6.33115e-14
6.35436e-14
6.33096e-14
6.34991e-14
6.32815e-14
6.33919e-14
6.32306e-14
6.33467e-14
6.32312e-14
6.33269e-14
6.3211e-14
6.33506e-14
6.31673e-14
6.33071e-14
6.31375e-14
6.31953e-14
6.30869e-14
6.31619e-14
6.30712e-14
6.31878e-14
6.30514e-14
6.31027e-14
6.30296e-14
6.30753e-14
6.30248e-14
6.31248e-14
6.30352e-14
6.31197e-14
6.3023e-14
6.30977e-14
6.30081e-14
6.30971e-14
6.30096e-14
6.3118e-14
6.30273e-14
6.31023e-14
6.29829e-14
6.31076e-14
6.30316e-14
6.31158e-14
6.30166e-14
6.31455e-14
6.29961e-14
6.31589e-14
6.29696e-14
6.31569e-14
6.29968e-14
6.31606e-14
6.30389e-14
6.31695e-14
6.30367e-14
6.3162e-14
6.3071e-14
6.31778e-14
6.31023e-14
6.3176e-14
6.3112e-14
6.31761e-14
6.31e-14
6.31777e-14
6.31063e-14
6.3181e-14
6.31715e-14
6.31857e-14
6.31952e-14
6.31907e-14
6.31569e-14
6.31748e-14
6.31379e-14
6.31484e-14
6.31693e-14
6.3173e-14
6.31898e-14
6.31973e-14
6.3189e-14
6.32213e-14
6.3187e-14
6.3235e-14
6.31937e-14
6.32488e-14
6.31988e-14
6.32629e-14
6.32022e-14
6.32672e-14
6.31934e-14
6.32616e-14
6.31621e-14
6.32665e-14
6.31806e-14
6.32722e-14
6.31762e-14
6.32577e-14
6.31805e-14
6.32544e-14
6.31832e-14
6.32725e-14
6.31945e-14
6.32809e-14
6.31831e-14
6.32796e-14
6.31802e-14
6.32791e-14
6.3186e-14
6.33107e-14
6.31896e-14
6.3333e-14
6.32014e-14
6.3346e-14
6.3211e-14
6.33393e-14
6.3208e-14
6.33336e-14
6.32241e-14
6.33392e-14
6.32385e-14
6.33559e-14
6.3251e-14
6.33523e-14
6.32621e-14
6.33494e-14
6.32615e-14
6.3368e-14
6.32699e-14
6.33768e-14
6.32875e-14
6.33758e-14
6.3283e-14
6.33754e-14
6.32775e-14
6.33754e-14
6.32812e-14
6.33866e-14
6.32837e-14
6.33984e-14
6.32849e-14
6.3411e-14
6.32744e-14
6.34035e-14
6.32936e-14
6.33864e-14
6.33015e-14
6.33907e-14
6.33083e-14
6.34057e-14
6.33089e-14
6.33902e-14
6.33086e-14
6.33801e-14
6.33074e-14
6.33702e-14
6.33004e-14
6.33759e-14
6.3308e-14
6.33714e-14
6.33097e-14
6.33722e-14
6.33004e-14
6.33679e-14
6.33109e-14
6.33534e-14
6.33004e-14
6.33491e-14
6.32995e-14
6.3355e-14
6.3298e-14
6.33506e-14
6.33061e-14
6.33361e-14
6.33036e-14
6.33264e-14
6.33008e-14
6.33318e-14
6.32974e-14
6.3337e-14
6.32937e-14
6.33422e-14
6.32795e-14
6.33423e-14
6.32747e-14
6.33475e-14
6.32892e-14
6.33478e-14
6.32933e-14
6.33382e-14
6.3297e-14
6.33187e-14
6.33052e-14
6.33139e-14
6.33132e-14
6.33236e-14
6.33259e-14
6.33331e-14
6.33333e-14
6.33327e-14
6.33358e-14
6.3332e-14
6.33429e-14
6.3331e-14
6.33548e-14
6.3325e-14
6.33665e-14
6.33235e-14
6.33734e-14
6.33312e-14
6.33803e-14
6.33338e-14
6.33919e-14
6.33313e-14
6.33988e-14
6.33379e-14
6.34104e-14
6.33441e-14
6.3422e-14
6.33406e-14
6.34198e-14
6.3346e-14
6.34223e-14
6.3351e-14
6.34295e-14
6.3358e-14
6.34321e-14
6.33669e-14
6.34417e-14
6.33754e-14
6.34468e-14
6.33836e-14
6.34519e-14
6.33893e-14
6.34548e-14
6.33924e-14
6.34578e-14
6.33953e-14
6.34541e-14
6.34023e-14
6.34572e-14
6.34069e-14
6.34647e-14
6.34025e-14
6.34569e-14
6.34045e-14
6.3447e-14
6.34085e-14
6.3448e-14
6.34123e-14
6.3449e-14
6.34181e-14
6.34586e-14
6.34216e-14
6.34596e-14
6.34228e-14
6.34543e-14
6.34176e-14
6.34533e-14
6.34144e-14
6.34564e-14
6.34153e-14
6.34574e-14
6.34223e-14
6.34544e-14
6.34291e-14
6.34493e-14
6.34318e-14
6.34443e-14
6.34364e-14
6.34453e-14
6.34409e-14
6.34423e-14
6.34393e-14
6.34372e-14
6.34397e-14
6.34342e-14
6.3448e-14
6.34369e-14
6.34542e-14
6.34338e-14
6.34546e-14
6.34325e-14
6.3455e-14
6.34331e-14
6.34573e-14
6.34317e-14
6.34558e-14
6.34284e-14
6.34524e-14
6.3426e-14
6.34528e-14
6.34263e-14
6.34541e-14
6.34257e-14
6.34545e-14
6.34231e-14
6.3455e-14
6.34196e-14
6.34554e-14
6.34178e-14
6.34531e-14
6.3416e-14
6.34518e-14
6.34142e-14
6.34513e-14
6.34123e-14
6.34518e-14
6.34121e-14
6.34523e-14
6.34119e-14
6.3451e-14
6.34124e-14
6.34489e-14
6.34129e-14
6.34494e-14
6.34134e-14
6.34517e-14
6.34155e-14
6.34514e-14
6.34167e-14
6.34502e-14
6.34187e-14
6.34499e-14
6.34198e-14
6.34522e-14
6.342e-14
6.34561e-14
6.3421e-14
6.34583e-14
6.34211e-14
6.34605e-14
6.34212e-14
6.3462e-14
6.34221e-14
6.34634e-14
6.34213e-14
6.34665e-14
6.34204e-14
6.34704e-14
6.34211e-14
6.34726e-14
6.3421e-14
6.34733e-14
6.34209e-14
6.3474e-14
6.34211e-14
6.34759e-14
6.34213e-14
6.34774e-14
6.3421e-14
6.34773e-14
6.34219e-14
6.34772e-14
6.34236e-14
6.34771e-14
6.34236e-14
6.34791e-14
6.34232e-14
6.34807e-14
6.34228e-14
6.34815e-14
6.34227e-14
6.34819e-14
6.34226e-14
6.34832e-14
6.34225e-14
6.34845e-14
6.34224e-14
6.34845e-14
6.34222e-14
6.34842e-14
6.34237e-14
6.34838e-14
6.34239e-14
6.34847e-14
6.34232e-14
6.34861e-14
6.34229e-14
6.34862e-14
6.34218e-14
6.34855e-14
6.3421e-14
6.34852e-14
6.34206e-14
6.34849e-14
6.34203e-14
6.34851e-14
6.34196e-14
6.34851e-14
6.34192e-14
6.34848e-14
6.34183e-14
6.34837e-14
6.34176e-14
6.34828e-14
6.34171e-14
6.34825e-14
6.34168e-14
6.34821e-14
6.34165e-14
6.34814e-14
6.34157e-14
6.34809e-14
6.34151e-14
6.34802e-14
6.3415e-14
6.34786e-14
6.34149e-14
6.34777e-14
6.34144e-14
6.34772e-14
6.34143e-14
6.34763e-14
6.34138e-14
6.34756e-14
6.34134e-14
6.34746e-14
6.34131e-14
6.34739e-14
6.34132e-14
6.34732e-14
6.34132e-14
6.34717e-14
6.34132e-14
6.34707e-14
6.34129e-14
6.34702e-14
6.34127e-14
6.34698e-14
6.34127e-14
6.34692e-14
6.34125e-14
6.34683e-14
6.34122e-14
6.34674e-14
6.3412e-14
6.34668e-14
6.34116e-14
6.3466e-14
6.34112e-14
6.34654e-14
6.34107e-14
6.34655e-14
6.34101e-14
6.34654e-14
6.34095e-14
6.34649e-14
6.34091e-14
6.34644e-14
6.34088e-14
6.34642e-14
6.3408e-14
6.34639e-14
6.34074e-14
6.34637e-14
6.3407e-14
6.34635e-14
6.34069e-14
6.34635e-14
6.34065e-14
6.34632e-14
6.34063e-14
6.34628e-14
6.34061e-14
6.34625e-14
6.34057e-14
6.34623e-14
6.34054e-14
6.3462e-14
6.34054e-14
6.34618e-14
6.34053e-14
6.34615e-14
6.34053e-14
6.34611e-14
6.34052e-14
6.34607e-14
6.34052e-14
6.34604e-14
6.3405e-14
6.346e-14
6.34049e-14
6.34599e-14
6.34048e-14
6.34596e-14
6.34046e-14
6.34593e-14
6.34047e-14
6.34592e-14
6.34047e-14
6.34593e-14
6.34047e-14
6.34591e-14
6.34046e-14
6.34592e-14
6.34046e-14
6.34592e-14
6.34047e-14
6.34591e-14
6.34048e-14
6.34589e-14
6.34048e-14
6.34585e-14
6.34049e-14
6.34581e-14
6.34049e-14
6.34578e-14
6.34049e-14
6.34577e-14
6.3405e-14
6.34575e-14
6.34051e-14
6.34574e-14
6.3405e-14
6.34573e-14
6.3405e-14
6.34571e-14
6.34051e-14
6.3457e-14
6.34051e-14
6.34569e-14
6.34051e-14
6.34568e-14
6.34051e-14
6.34567e-14
6.34051e-14
6.34566e-14
6.34052e-14
6.34565e-14
6.34052e-14
6.34565e-14
6.34051e-14
6.34564e-14
6.34051e-14
6.34564e-14
6.34051e-14
6.34564e-14
6.3405e-14
6.34564e-14
6.3405e-14
6.34564e-14
6.3405e-14
6.34564e-14
6.3405e-14
6.34564e-14
6.34049e-14
6.34564e-14
6.34049e-14
6.34564e-14
6.34049e-14
6.34564e-14
6.34049e-14
6.34564e-14
6.34049e-14
6.34564e-14
6.34049e-14
6.34564e-14
6.3205e-14
6.3554e-14
6.32351e-14
6.35829e-14
6.32845e-14
6.35863e-14
6.32821e-14
6.35987e-14
6.33338e-14
6.34833e-14
6.34143e-14
6.34752e-14
6.34579e-14
6.35335e-14
6.34627e-14
6.35004e-14
6.34627e-14
6.34769e-14
6.35152e-14
6.34552e-14
6.35488e-14
6.34478e-14
6.35709e-14
6.34817e-14
6.35514e-14
6.35333e-14
6.35653e-14
6.35826e-14
6.35804e-14
6.36365e-14
6.35331e-14
6.36709e-14
6.35582e-14
6.36645e-14
6.35719e-14
6.36728e-14
6.36357e-14
6.36631e-14
6.367e-14
6.37172e-14
6.36424e-14
6.37518e-14
6.36058e-14
6.37419e-14
6.3618e-14
6.37172e-14
6.36206e-14
6.36705e-14
6.36177e-14
6.36592e-14
6.36111e-14
6.36508e-14
6.36006e-14
6.36117e-14
6.35556e-14
6.35701e-14
6.36038e-14
6.36252e-14
6.36171e-14
6.36462e-14
6.36286e-14
6.36014e-14
6.36753e-14
6.35886e-14
6.36612e-14
6.36705e-14
6.36113e-14
6.36863e-14
6.36243e-14
6.37078e-14
6.36667e-14
6.37355e-14
6.362e-14
6.37524e-14
6.35661e-14
6.37115e-14
6.35575e-14
6.37172e-14
6.35238e-14
6.36822e-14
6.34652e-14
6.36574e-14
6.34152e-14
6.35731e-14
6.33934e-14
6.34965e-14
6.3385e-14
6.34587e-14
6.33381e-14
6.34404e-14
6.32685e-14
6.33878e-14
6.32472e-14
6.33009e-14
6.31858e-14
6.3251e-14
6.31388e-14
6.32202e-14
6.3161e-14
6.32465e-14
6.31224e-14
6.32179e-14
6.31167e-14
6.31535e-14
6.30902e-14
6.31841e-14
6.30601e-14
6.32189e-14
6.30622e-14
6.31836e-14
6.30601e-14
6.31731e-14
6.3074e-14
6.31296e-14
6.30676e-14
6.31265e-14
6.30403e-14
6.31254e-14
6.303e-14
6.3147e-14
6.3036e-14
6.31534e-14
6.30782e-14
6.31638e-14
6.31386e-14
6.3158e-14
6.3181e-14
6.31533e-14
6.31668e-14
6.31484e-14
6.31351e-14
6.31231e-14
6.31054e-14
6.3077e-14
6.3098e-14
6.30691e-14
6.31328e-14
6.30996e-14
6.31292e-14
6.31487e-14
6.31263e-14
6.31578e-14
6.30827e-14
6.31471e-14
6.31187e-14
6.31578e-14
6.31539e-14
6.31692e-14
6.31895e-14
6.31808e-14
6.32262e-14
6.31923e-14
6.32437e-14
6.32237e-14
6.32517e-14
6.32345e-14
6.32507e-14
6.32148e-14
6.32306e-14
6.32259e-14
6.32421e-14
6.32477e-14
6.3285e-14
6.32907e-14
6.32976e-14
6.33137e-14
6.33004e-14
6.33169e-14
6.33038e-14
6.33209e-14
6.33077e-14
6.3336e-14
6.33016e-14
6.33728e-14
6.32952e-14
6.33697e-14
6.32992e-14
6.33371e-14
6.3293e-14
6.33157e-14
6.32872e-14
6.3316e-14
6.33132e-14
6.33274e-14
6.33293e-14
6.33289e-14
6.33147e-14
6.33307e-14
6.33217e-14
6.33434e-14
6.33398e-14
6.33672e-14
6.33374e-14
6.33811e-14
6.33458e-14
6.33853e-14
6.3365e-14
6.33901e-14
6.33637e-14
6.34268e-14
6.33731e-14
6.34331e-14
6.33932e-14
6.34299e-14
6.33821e-14
6.34169e-14
6.33817e-14
6.3394e-14
6.33818e-14
6.34029e-14
6.33822e-14
6.34225e-14
6.33828e-14
6.34322e-14
6.33937e-14
6.34111e-14
6.33946e-14
6.34007e-14
6.34167e-14
6.34114e-14
6.34184e-14
6.34117e-14
6.3431e-14
6.34224e-14
6.34338e-14
6.34227e-14
6.34372e-14
6.34125e-14
6.34412e-14
6.34231e-14
6.34561e-14
6.3444e-14
6.3456e-14
6.34546e-14
6.3446e-14
6.3455e-14
6.34518e-14
6.34659e-14
6.34579e-14
6.34721e-14
6.34644e-14
6.34734e-14
6.3461e-14
6.34699e-14
6.34732e-14
6.34718e-14
6.34552e-14
6.3474e-14
6.34426e-14
6.34715e-14
6.34506e-14
6.34744e-14
6.34537e-14
6.34828e-14
6.3457e-14
6.34815e-14
6.34555e-14
6.34604e-14
6.34493e-14
6.34396e-14
6.34484e-14
6.34442e-14
6.34528e-14
6.3444e-14
6.34626e-14
6.34389e-14
6.34479e-14
6.34389e-14
6.34534e-14
6.3449e-14
6.34542e-14
6.34543e-14
6.34455e-14
6.34498e-14
6.34369e-14
6.34506e-14
6.34384e-14
6.34663e-14
6.34498e-14
6.34823e-14
6.34418e-14
6.34985e-14
6.34386e-14
6.35006e-14
6.34402e-14
6.34933e-14
6.34467e-14
6.34913e-14
6.34627e-14
6.34945e-14
6.34644e-14
6.35027e-14
6.3466e-14
6.35159e-14
6.34629e-14
6.35247e-14
6.34645e-14
6.35291e-14
6.3466e-14
6.35198e-14
6.34627e-14
6.35202e-14
6.34687e-14
6.35303e-14
6.34746e-14
6.35359e-14
6.34827e-14
6.35373e-14
6.34815e-14
6.35458e-14
6.3494e-14
6.355e-14
6.34995e-14
6.355e-14
6.35004e-14
6.35479e-14
6.34945e-14
6.35438e-14
6.34976e-14
6.35422e-14
6.34983e-14
6.35453e-14
6.34968e-14
6.35441e-14
6.34975e-14
6.35365e-14
6.34981e-14
6.35247e-14
6.35053e-14
6.35262e-14
6.35016e-14
6.35299e-14
6.35043e-14
6.35252e-14
6.35007e-14
6.35248e-14
6.35013e-14
6.35203e-14
6.35104e-14
6.35181e-14
6.35131e-14
6.35159e-14
6.35075e-14
6.35117e-14
6.35062e-14
6.35097e-14
6.35089e-14
6.35078e-14
6.35097e-14
6.3512e-14
6.35124e-14
6.35082e-14
6.35173e-14
6.35024e-14
6.35201e-14
6.34966e-14
6.3527e-14
6.34929e-14
6.35279e-14
6.34931e-14
6.3529e-14
6.34894e-14
6.3532e-14
6.34819e-14
6.35371e-14
6.34782e-14
6.35384e-14
6.34821e-14
6.35417e-14
6.34822e-14
6.35412e-14
6.34841e-14
6.35399e-14
6.34842e-14
6.35397e-14
6.3486e-14
6.35386e-14
6.34869e-14
6.35376e-14
6.34831e-14
6.35367e-14
6.34794e-14
6.35395e-14
6.34802e-14
6.35378e-14
6.34836e-14
6.35363e-14
6.34843e-14
6.35321e-14
6.3485e-14
6.35342e-14
6.34839e-14
6.35347e-14
6.34801e-14
6.3536e-14
6.34781e-14
6.35349e-14
6.34787e-14
6.35338e-14
6.34801e-14
6.35327e-14
6.34806e-14
6.35326e-14
6.34828e-14
6.35325e-14
6.34825e-14
6.35325e-14
6.3483e-14
6.35326e-14
6.34826e-14
6.35326e-14
6.34822e-14
6.35319e-14
6.34826e-14
6.35329e-14
6.34821e-14
6.35323e-14
6.34817e-14
6.35326e-14
6.3482e-14
6.35313e-14
6.34832e-14
6.353e-14
6.34843e-14
6.35296e-14
6.34846e-14
6.35287e-14
6.34849e-14
6.3528e-14
6.34864e-14
6.35268e-14
6.34875e-14
6.35253e-14
6.34877e-14
6.35243e-14
6.34884e-14
6.35228e-14
6.34882e-14
6.35218e-14
6.34884e-14
6.35204e-14
6.34894e-14
6.35194e-14
6.34905e-14
6.3518e-14
6.34898e-14
6.35179e-14
6.34896e-14
6.35157e-14
6.3491e-14
6.35144e-14
6.34925e-14
6.35123e-14
6.34939e-14
6.3511e-14
6.34953e-14
6.35101e-14
6.34967e-14
6.35101e-14
6.34982e-14
6.35092e-14
6.35e-14
6.35079e-14
6.35011e-14
6.35066e-14
6.35017e-14
6.35058e-14
6.35027e-14
6.35054e-14
6.35042e-14
6.35043e-14
6.35062e-14
6.35032e-14
6.35079e-14
6.35022e-14
6.35083e-14
6.35015e-14
6.35092e-14
6.35e-14
6.35115e-14
6.34984e-14
6.35131e-14
6.34978e-14
6.35137e-14
6.34972e-14
6.35147e-14
6.34963e-14
6.35159e-14
6.34954e-14
6.35166e-14
6.34948e-14
6.35166e-14
6.34949e-14
6.35166e-14
6.34945e-14
6.35174e-14
6.34938e-14
6.35181e-14
6.34934e-14
6.35182e-14
6.34933e-14
6.35185e-14
6.34931e-14
6.35188e-14
6.3493e-14
6.35188e-14
6.34931e-14
6.35191e-14
6.34924e-14
6.35203e-14
6.34918e-14
6.35208e-14
6.34912e-14
6.35207e-14
6.34909e-14
6.35205e-14
6.34909e-14
6.35204e-14
6.34905e-14
6.35208e-14
6.34897e-14
6.35214e-14
6.34894e-14
6.35215e-14
6.34886e-14
6.35216e-14
6.34885e-14
6.3522e-14
6.3488e-14