/*--------------------------------*- C++ -*----------------------------------*\
| =========                 |                                                 |
| \\      /  F ield         | OpenFOAM: The Open Source CFD Toolbox           |
|  \\    /   O peration     | Version:  2012                                  |
|   \\  /    A nd           | Website:  www.openfoam.com                      |
|    \\/     M anipulation  |                                                 |
\*---------------------------------------------------------------------------*/
FoamFile
{
    version     2.0;
    format      ascii;
    class       volVectorField;
    location    "7000";
    object      C;
}
// * * * * * * * * * * * * * * * * * * * * * * * * * * * * * * * * * * * * * //

dimensions      [0 1 0 0 0 0 0];


internalField   nonuniform List<vector> 
160
(
(0.025 0.00108471 0.025)
(0.075 0.00108471 0.025)
(0.025 0.00355165 0.025)
(0.075 0.00355165 0.025)
(0.025 0.0066952 0.025)
(0.075 0.0066952 0.025)
(0.025 0.010701 0.025)
(0.075 0.010701 0.025)
(0.025 0.0158054 0.025)
(0.075 0.0158054 0.025)
(0.025 0.0223098 0.025)
(0.075 0.0223098 0.025)
(0.025 0.0305983 0.025)
(0.075 0.0305983 0.025)
(0.025 0.04116 0.025)
(0.075 0.04116 0.025)
(0.025 0.0546186 0.025)
(0.075 0.0546186 0.025)
(0.025 0.0717686 0.025)
(0.075 0.0717686 0.025)
(0.025 0.0936223 0.025)
(0.075 0.0936223 0.025)
(0.025 0.12147 0.025)
(0.075 0.12147 0.025)
(0.025 0.156956 0.025)
(0.075 0.156956 0.025)
(0.025 0.202174 0.025)
(0.075 0.202174 0.025)
(0.025 0.259795 0.025)
(0.075 0.259795 0.025)
(0.025 0.333219 0.025)
(0.075 0.333219 0.025)
(0.025 0.426783 0.025)
(0.075 0.426783 0.025)
(0.025 0.546008 0.025)
(0.075 0.546008 0.025)
(0.025 0.697934 0.025)
(0.075 0.697934 0.025)
(0.025 0.891529 0.025)
(0.075 0.891529 0.025)
(0.025 0.00108471 0.075)
(0.075 0.00108471 0.075)
(0.025 0.00355165 0.075)
(0.075 0.00355165 0.075)
(0.025 0.0066952 0.075)
(0.075 0.0066952 0.075)
(0.025 0.010701 0.075)
(0.075 0.010701 0.075)
(0.025 0.0158054 0.075)
(0.075 0.0158054 0.075)
(0.025 0.0223098 0.075)
(0.075 0.0223098 0.075)
(0.025 0.0305983 0.075)
(0.075 0.0305983 0.075)
(0.025 0.04116 0.075)
(0.075 0.04116 0.075)
(0.025 0.0546186 0.075)
(0.075 0.0546186 0.075)
(0.025 0.0717686 0.075)
(0.075 0.0717686 0.075)
(0.025 0.0936223 0.075)
(0.075 0.0936223 0.075)
(0.025 0.12147 0.075)
(0.075 0.12147 0.075)
(0.025 0.156956 0.075)
(0.075 0.156956 0.075)
(0.025 0.202174 0.075)
(0.075 0.202174 0.075)
(0.025 0.259795 0.075)
(0.075 0.259795 0.075)
(0.025 0.333219 0.075)
(0.075 0.333219 0.075)
(0.025 0.426783 0.075)
(0.075 0.426783 0.075)
(0.025 0.546008 0.075)
(0.075 0.546008 0.075)
(0.025 0.697934 0.075)
(0.075 0.697934 0.075)
(0.025 0.891529 0.075)
(0.075 0.891529 0.075)
(0.025 1.10847 0.025)
(0.075 1.10847 0.025)
(0.025 1.30207 0.025)
(0.075 1.30207 0.025)
(0.025 1.45399 0.025)
(0.075 1.45399 0.025)
(0.025 1.57322 0.025)
(0.075 1.57322 0.025)
(0.025 1.66678 0.025)
(0.075 1.66678 0.025)
(0.025 1.74021 0.025)
(0.075 1.74021 0.025)
(0.025 1.79783 0.025)
(0.075 1.79783 0.025)
(0.025 1.84304 0.025)
(0.075 1.84304 0.025)
(0.025 1.87853 0.025)
(0.075 1.87853 0.025)
(0.025 1.90638 0.025)
(0.075 1.90638 0.025)
(0.025 1.92823 0.025)
(0.075 1.92823 0.025)
(0.025 1.94538 0.025)
(0.075 1.94538 0.025)
(0.025 1.95884 0.025)
(0.075 1.95884 0.025)
(0.025 1.9694 0.025)
(0.075 1.9694 0.025)
(0.025 1.97769 0.025)
(0.075 1.97769 0.025)
(0.025 1.98419 0.025)
(0.075 1.98419 0.025)
(0.025 1.9893 0.025)
(0.075 1.9893 0.025)
(0.025 1.9933 0.025)
(0.075 1.9933 0.025)
(0.025 1.99645 0.025)
(0.075 1.99645 0.025)
(0.025 1.99892 0.025)
(0.075 1.99892 0.025)
(0.025 1.10847 0.075)
(0.075 1.10847 0.075)
(0.025 1.30207 0.075)
(0.075 1.30207 0.075)
(0.025 1.45399 0.075)
(0.075 1.45399 0.075)
(0.025 1.57322 0.075)
(0.075 1.57322 0.075)
(0.025 1.66678 0.075)
(0.075 1.66678 0.075)
(0.025 1.74021 0.075)
(0.075 1.74021 0.075)
(0.025 1.79783 0.075)
(0.075 1.79783 0.075)
(0.025 1.84304 0.075)
(0.075 1.84304 0.075)
(0.025 1.87853 0.075)
(0.075 1.87853 0.075)
(0.025 1.90638 0.075)
(0.075 1.90638 0.075)
(0.025 1.92823 0.075)
(0.075 1.92823 0.075)
(0.025 1.94538 0.075)
(0.075 1.94538 0.075)
(0.025 1.95884 0.075)
(0.075 1.95884 0.075)
(0.025 1.9694 0.075)
(0.075 1.9694 0.075)
(0.025 1.97769 0.075)
(0.075 1.97769 0.075)
(0.025 1.98419 0.075)
(0.075 1.98419 0.075)
(0.025 1.9893 0.075)
(0.075 1.9893 0.075)
(0.025 1.9933 0.075)
(0.075 1.9933 0.075)
(0.025 1.99645 0.075)
(0.075 1.99645 0.075)
(0.025 1.99892 0.075)
(0.075 1.99892 0.075)
)
;

boundaryField
{
    walls
    {
        type            calculated;
        value           nonuniform List<vector> 8((0.025 0 0.025) (0.025 0 0.075) (0.075 0 0.025) (0.075 0 0.075) (0.025 2 0.025) (0.025 2 0.075) (0.075 2 0.025) (0.075 2 0.075));
    }
    inlet
    {
        type            cyclic;
    }
    outlet
    {
        type            cyclic;
    }
    sides
    {
        type            empty;
    }
}


// ************************************************************************* //
