/*--------------------------------*- C++ -*----------------------------------*\
| =========                 |                                                 |
| \\      /  F ield         | OpenFOAM: The Open Source CFD Toolbox           |
|  \\    /   O peration     | Version:  2012                                  |
|   \\  /    A nd           | Website:  www.openfoam.com                      |
|    \\/     M anipulation  |                                                 |
\*---------------------------------------------------------------------------*/
FoamFile
{
    version     2.0;
    format      ascii;
    class       surfaceScalarField;
    location    "7000";
    object      phi;
}
// * * * * * * * * * * * * * * * * * * * * * * * * * * * * * * * * * * * * * //

dimensions      [0 3 -1 0 0 0 0];
oriented        oriented;


internalField   nonuniform List<scalar> 
316
(
4.6983e-06
-7.25073e-18
-3.64022e-20
-5.05363e-20
-9.4082e-21
1.95687e-05
-6.60989e-18
-2.83974e-19
-2.85439e-19
-1.24071e-19
4.67435e-05
-5.72692e-18
-4.00171e-19
-5.76911e-19
-1.89913e-19
9.17601e-05
-4.75714e-18
-4.43928e-19
-8.69077e-19
-2.22903e-19
0.000154292
-3.87362e-18
-4.08925e-19
-1.1102e-18
-2.12175e-19
0.000232932
-3.12727e-18
-3.44903e-19
-1.33038e-18
-1.81458e-19
0.000332054
-2.55626e-18
-2.65426e-19
-1.52756e-18
-1.36083e-19
0.000458632
-2.20503e-18
-1.76868e-19
-1.73759e-18
-7.30718e-20
0.000621227
-2.07074e-18
-7.55393e-20
-1.69736e-18
9.26732e-21
0.000830507
-2.11909e-18
1.74497e-20
-1.81165e-18
7.00382e-20
0.00110002
-1.9562e-18
1.23535e-19
-1.9538e-18
6.66815e-20
0.00144716
-2.02505e-18
1.22205e-19
-2.12428e-18
7.84085e-20
0.00189431
-2.01887e-18
1.0425e-19
-2.03159e-18
6.79778e-20
0.00247027
-1.77709e-18
1.37613e-20
-1.80443e-18
-2.87925e-21
0.00321204
-1.14204e-18
1.0949e-19
-1.37198e-18
-9.97026e-21
0.00416698
-1.74744e-18
3.37509e-19
-1.52487e-18
-1.91426e-20
0.00539535
-8.70462e-19
-2.42345e-19
-9.47593e-19
4.03197e-19
0.00697294
-1.07224e-18
-5.30178e-19
-1.05186e-18
-3.27096e-19
0.00899253
-2.00498e-18
8.03827e-19
-2.00166e-18
1.4283e-19
0.011556
2.09932e-19
-6.41063e-19
1.18829e-18
-5.87207e-19
4.6983e-06
-3.19507e-20
-1.37395e-20
1.95687e-05
-2.77224e-19
-1.72797e-19
4.67435e-05
-6.08999e-19
-4.21625e-19
9.17601e-05
-9.70739e-19
-7.22747e-19
0.000154292
-1.30016e-18
-1.01812e-18
0.000232932
-1.5218e-18
-1.27022e-18
0.000332054
-1.80663e-18
-1.46871e-18
0.000458632
-1.78529e-18
-1.58207e-18
0.000621227
-1.84608e-18
-1.69901e-18
0.000830507
-1.67095e-18
-1.88446e-18
0.00110002
-1.66985e-18
-1.58638e-18
0.00144716
-1.54884e-18
-1.62426e-18
0.00189431
-1.60198e-18
-1.58923e-18
0.00247027
-1.3754e-18
-1.42526e-18
0.00321204
-9.6344e-19
-1.25536e-18
0.00416698
-1.88834e-18
-1.38517e-18
0.00539535
-7.95687e-19
-9.47009e-19
0.00697294
-8.34823e-19
-9.43169e-19
0.00899253
-2.06423e-18
-2.05496e-18
0.011556
-7.05899e-19
-7.66137e-19
0.011556
-1.28043e-18
-2.64681e-19
-1.2415e-18
-1.04364e-18
0.00899253
-8.16711e-20
-6.8774e-19
-8.17905e-20
-1.08639e-19
0.00697294
-4.58817e-19
-2.95521e-19
-4.72844e-19
-4.7325e-19
0.00539535
-7.34391e-19
-4.03418e-19
-6.18843e-19
-1.93817e-19
0.00416698
-1.77034e-19
7.55803e-20
-2.14234e-19
-2.15058e-19
0.00321204
3.05872e-20
5.48865e-20
1.20912e-20
1.38423e-20
0.00247027
-8.60379e-20
-9.34151e-20
-2.88645e-20
-1.42343e-19
0.00189431
3.52515e-20
-4.70791e-21
-8.24761e-21
-4.67649e-20
0.00144716
2.49702e-21
5.80803e-21
-1.60083e-20
-6.46949e-21
0.00110002
-1.87926e-20
2.63311e-21
-7.66917e-20
3.85806e-21
0.000830507
5.63474e-21
1.32549e-21
5.57213e-20
1.04222e-20
0.000621227
-1.26778e-20
-1.05513e-21
2.51815e-20
1.08665e-21
0.000458632
-3.15202e-20
-4.74972e-22
-1.35006e-20
1.69124e-21
0.000332054
-4.74838e-20
1.79707e-21
3.42635e-20
3.49356e-21
0.000232932
-1.74826e-20
2.47193e-21
5.61041e-21
2.88858e-21
0.000154292
-4.79069e-21
1.8052e-21
9.9696e-21
2.62926e-21
9.17601e-05
5.62555e-22
1.54549e-21
1.14239e-20
2.32796e-21
4.67435e-05
6.49592e-22
1.07951e-21
3.89417e-21
1.72605e-21
1.95687e-05
-2.94944e-22
6.40327e-22
2.0719e-23
1.03528e-21
4.6983e-06
9.27866e-23
1.67077e-22
0.011556
-1.39084e-18
-1.28797e-18
0.00899253
3.59309e-20
-8.08688e-20
0.00697294
-3.87514e-19
-3.33663e-19
0.00539535
-5.47047e-19
-5.79816e-19
0.00416698
-1.31887e-19
-5.11661e-20
0.00321204
-1.28312e-20
-3.02032e-20
0.00247027
5.15876e-20
8.43521e-20
0.00189431
-3.9513e-21
-4.85829e-20
0.00144716
-9.91595e-20
-1.04029e-19
0.00110002
-9.75358e-20
-1.15107e-19
0.000830507
-4.76768e-20
-5.97023e-20
0.000621227
-1.99686e-20
1.08366e-20
0.000458632
2.88244e-21
-1.9934e-21
0.000332054
-3.28814e-20
-1.3741e-20
0.000232932
-5.22858e-20
-1.60378e-20
0.000154292
-8.9698e-21
-4.52169e-22
9.17601e-05
-1.51481e-20
-4.95673e-22
4.67435e-05
-6.23383e-21
-1.25879e-21
1.95687e-05
-2.71552e-22
3.48726e-22
4.6983e-06
)
;

boundaryField
{
    walls
    {
        type            calculated;
        value           uniform 0;
    }
    inlet
    {
        type            cyclic;
        value           nonuniform List<scalar> 
80
(
-4.6983e-06
-1.95687e-05
-4.67435e-05
-9.17601e-05
-0.000154292
-0.000232932
-0.000332054
-0.000458632
-0.000621227
-0.000830507
-0.00110002
-0.00144716
-0.00189431
-0.00247027
-0.00321204
-0.00416698
-0.00539535
-0.00697294
-0.00899253
-0.011556
-4.6983e-06
-1.95687e-05
-4.67435e-05
-9.17601e-05
-0.000154292
-0.000232932
-0.000332054
-0.000458632
-0.000621227
-0.000830507
-0.00110002
-0.00144716
-0.00189431
-0.00247027
-0.00321204
-0.00416698
-0.00539535
-0.00697294
-0.00899253
-0.011556
-0.011556
-0.00899253
-0.00697294
-0.00539535
-0.00416698
-0.00321204
-0.00247027
-0.00189431
-0.00144716
-0.00110002
-0.000830507
-0.000621227
-0.000458632
-0.000332054
-0.000232932
-0.000154292
-9.17601e-05
-4.67435e-05
-1.95687e-05
-4.6983e-06
-0.011556
-0.00899253
-0.00697294
-0.00539535
-0.00416698
-0.00321204
-0.00247027
-0.00189431
-0.00144716
-0.00110002
-0.000830507
-0.000621227
-0.000458632
-0.000332054
-0.000232932
-0.000154292
-9.17601e-05
-4.67435e-05
-1.95687e-05
-4.6983e-06
)
;
    }
    outlet
    {
        type            cyclic;
        value           nonuniform List<scalar> 
80
(
4.6983e-06
1.95687e-05
4.67435e-05
9.17601e-05
0.000154292
0.000232932
0.000332054
0.000458632
0.000621227
0.000830507
0.00110002
0.00144716
0.00189431
0.00247027
0.00321204
0.00416698
0.00539535
0.00697294
0.00899253
0.011556
4.6983e-06
1.95687e-05
4.67435e-05
9.17601e-05
0.000154292
0.000232932
0.000332054
0.000458632
0.000621227
0.000830507
0.00110002
0.00144716
0.00189431
0.00247027
0.00321204
0.00416698
0.00539535
0.00697294
0.00899253
0.011556
0.011556
0.00899253
0.00697294
0.00539535
0.00416698
0.00321204
0.00247027
0.00189431
0.00144716
0.00110002
0.000830507
0.000621227
0.000458632
0.000332054
0.000232932
0.000154292
9.17601e-05
4.67435e-05
1.95687e-05
4.6983e-06
0.011556
0.00899253
0.00697294
0.00539535
0.00416698
0.00321204
0.00247027
0.00189431
0.00144716
0.00110002
0.000830507
0.000621227
0.000458632
0.000332054
0.000232932
0.000154292
9.17601e-05
4.67435e-05
1.95687e-05
4.6983e-06
)
;
    }
    sides
    {
        type            empty;
        value           nonuniform List<scalar> 0();
    }
}


// ************************************************************************* //
