/*--------------------------------*- C++ -*----------------------------------*\
| =========                 |                                                 |
| \\      /  F ield         | OpenFOAM: The Open Source CFD Toolbox           |
|  \\    /   O peration     | Version:  2012                                  |
|   \\  /    A nd           | Website:  www.openfoam.com                      |
|    \\/     M anipulation  |                                                 |
\*---------------------------------------------------------------------------*/
FoamFile
{
    version     2.0;
    format      ascii;
    class       volScalarField;
    location    "15700";
    object      k;
}
// * * * * * * * * * * * * * * * * * * * * * * * * * * * * * * * * * * * * * //

dimensions      [0 2 -2 0 0 0 0];


internalField   nonuniform List<scalar> 
2560
(
0.00941013
0.00941013
0.228176
0.228176
1.57017
1.57017
4.73297
4.73297
8.58771
8.58771
12.1787
12.1787
15.3901
15.3901
18.2995
18.2995
20.9817
20.9817
23.4899
23.4899
25.8604
25.8604
28.1185
28.1185
30.282
30.282
32.3639
32.3639
34.3738
34.3738
36.3186
36.3186
38.2034
38.2034
40.0322
40.0322
41.8074
41.8074
43.5309
43.5309
45.2038
45.2038
46.8265
46.8265
48.3989
48.3989
49.9206
49.9206
51.3907
51.3907
52.8081
52.8081
54.1713
54.1713
55.4785
55.4785
56.7279
56.7279
57.9175
57.9175
59.0449
59.0449
60.108
60.108
61.1044
61.1044
62.0315
62.0315
62.8872
62.8872
63.6691
63.6691
64.3748
64.3748
65.0024
65.0024
65.55
65.55
66.0157
66.0157
66.3983
66.3983
66.6967
66.6967
66.91
66.91
67.0379
67.0379
67.0806
67.0806
67.0387
67.0387
66.9132
66.9132
66.7059
66.7059
66.419
66.419
66.0554
66.0554
65.6186
65.6186
65.1127
65.1127
64.5424
64.5424
63.9133
63.9133
63.2312
63.2312
62.5028
62.5028
61.7352
61.7352
60.9361
60.9361
60.1135
60.1135
59.276
59.276
58.4322
58.4322
57.591
57.591
56.7614
56.7614
55.9524
55.9524
55.1727
55.1727
54.4307
54.4307
53.7344
53.7344
53.0912
53.0912
52.5077
52.5077
51.9898
51.9898
51.5422
51.5422
51.1686
51.1686
50.8716
50.8716
50.6525
50.6525
50.5117
50.5117
50.448
50.448
50.459
50.459
50.5413
50.5413
50.6905
50.6905
50.9014
50.9014
51.1678
51.1678
51.483
51.483
51.8398
51.8398
52.2307
52.2307
52.6479
52.6479
53.0835
53.0835
53.5299
53.5299
53.9794
53.9794
54.4249
54.4249
54.8593
54.8593
55.2762
55.2762
55.6697
55.6697
56.0344
56.0344
56.3654
56.3654
56.6586
56.6586
56.9103
56.9103
57.1176
57.1176
57.278
57.278
57.3897
57.3897
57.4514
57.4514
57.4624
57.4624
57.4222
57.4222
57.3311
57.3311
57.1896
57.1896
56.9985
56.9985
56.7589
56.7589
56.4724
56.4724
56.1406
56.1406
55.7653
55.7653
55.3485
55.3485
54.8924
54.8924
54.3992
54.3992
53.871
53.871
53.3102
53.3102
52.7191
52.7191
52.1
52.1
51.4551
51.4551
50.7867
50.7867
50.0969
50.0969
49.3878
49.3878
48.6615
48.6615
47.9199
47.9199
47.1649
47.1649
46.3982
46.3982
45.6216
45.6216
44.8367
44.8367
44.0449
44.0449
43.2478
43.2478
42.4466
42.4466
41.6427
41.6427
40.8372
40.8372
40.0313
40.0313
39.2259
39.2259
38.4221
38.4221
37.6208
37.6208
36.8228
36.8228
36.0289
36.0289
35.2399
35.2399
34.4564
34.4564
33.679
33.679
32.9084
32.9084
32.1451
32.1451
31.3895
31.3895
30.6422
30.6422
29.9036
29.9036
29.174
29.174
28.4539
28.4539
27.7435
27.7435
27.0431
27.0431
26.3531
26.3531
25.6737
25.6737
25.0052
25.0052
24.3477
24.3477
23.7016
23.7016
23.0669
23.0669
22.4438
22.4438
21.8325
21.8325
21.2332
21.2332
20.646
20.646
20.0709
20.0709
19.508
19.508
18.9574
18.9574
18.419
18.419
17.893
17.893
17.3792
17.3792
16.8775
16.8775
16.388
16.388
15.9103
15.9103
15.4444
15.4444
14.9902
14.9902
14.5474
14.5474
14.1159
14.1159
13.6954
13.6954
13.2859
13.2859
12.8871
12.8871
12.499
12.499
12.1213
12.1213
11.7539
11.7539
11.3967
11.3967
11.0495
11.0495
10.7123
10.7123
10.3848
10.3848
10.0669
10.0669
9.75853
9.75853
9.45946
9.45946
9.16955
9.16955
8.88862
8.88862
8.6165
8.6165
8.35302
8.35302
8.098
8.098
7.8513
7.8513
7.61276
7.61276
7.38222
7.38222
7.15958
7.15958
6.94468
6.94468
6.73742
6.73742
6.53769
6.53768
6.34535
6.34535
6.16032
6.16032
5.98248
5.98248
5.81172
5.81172
5.64791
5.64791
5.49092
5.49092
5.3406
5.3406
5.19681
5.19681
5.05935
5.05935
4.92804
4.92804
4.80268
4.80268
4.68307
4.68307
4.56901
4.56901
4.46029
4.46029
4.35674
4.35674
4.25815
4.25815
4.16433
4.16433
4.07506
4.07506
3.99013
3.99013
3.90928
3.90928
3.83228
3.83228
3.75883
3.75883
3.68867
3.68867
3.62148
3.62148
3.55698
3.55698
3.49489
3.49489
3.43499
3.43499
3.37709
3.37709
3.32103
3.32103
3.26669
3.26669
3.21395
3.21395
3.16269
3.16269
3.11273
3.11273
3.06388
3.06388
3.01593
3.01593
2.9687
2.9687
2.92205
2.92205
2.87583
2.87583
2.82997
2.82997
2.7844
2.7844
2.7391
2.7391
2.6941
2.6941
2.64946
2.64946
2.60529
2.60529
2.56165
2.56166
2.51862
2.51862
2.47615
2.47615
2.43417
2.43417
2.3925
2.39251
2.35093
2.35093
2.30915
2.30915
2.26686
2.26686
2.22378
2.22379
2.17977
2.17977
2.13484
2.13484
2.08917
2.08917
2.04309
2.04309
1.99699
1.99699
1.95127
1.95127
1.90633
1.90633
1.86236
1.86235
1.81935
1.81934
1.7772
1.77719
1.73589
1.73589
1.69557
1.69557
1.65647
1.65646
1.61885
1.61885
1.58299
1.58299
1.54911
1.54911
1.51736
1.51736
1.48782
1.48782
1.46054
1.46054
1.43551
1.43551
1.41271
1.41271
1.39209
1.39209
1.37352
1.37352
1.35682
1.35682
1.34177
1.34177
1.32805
1.32805
1.31532
1.31532
1.30318
1.30318
1.2912
1.2912
1.27898
1.27898
1.26619
1.26618
1.25254
1.25254
1.23773
1.23773
1.22139
1.22139
1.20321
1.20321
1.18306
1.18306
1.16109
1.16109
1.13765
1.13765
1.11324
1.11323
1.08851
1.08851
1.06427
1.06427
1.04123
1.04122
1.01979
1.01979
1.0001
1.0001
0.982161
0.98216
0.965966
0.965965
0.951528
0.951527
0.938857
0.938856
0.927957
0.927957
0.918801
0.9188
0.911278
0.911278
0.90517
0.90517
0.900169
0.900169
0.895948
0.895949
0.892131
0.892132
0.888177
0.888177
0.883389
0.88339
0.877151
0.877151
0.869173
0.869173
0.859623
0.859623
0.849015
0.849015
0.837921
0.83792
0.826778
0.826777
0.815957
0.815957
0.805901
0.805901
0.79705
0.79705
0.789686
0.789687
0.783931
0.783932
0.779874
0.779876
0.777715
0.777717
0.00941013
0.00941013
0.228176
0.228176
1.57017
1.57017
4.73297
4.73297
8.58771
8.58771
12.1787
12.1787
15.3901
15.3901
18.2995
18.2995
20.9817
20.9817
23.4899
23.4899
25.8604
25.8604
28.1185
28.1185
30.282
30.282
32.3639
32.3639
34.3738
34.3738
36.3186
36.3186
38.2034
38.2034
40.0322
40.0322
41.8074
41.8074
43.5309
43.5309
45.2038
45.2038
46.8265
46.8265
48.3989
48.3989
49.9206
49.9206
51.3907
51.3907
52.8081
52.8081
54.1713
54.1713
55.4785
55.4785
56.7279
56.7279
57.9175
57.9175
59.045
59.045
60.108
60.108
61.1044
61.1044
62.0316
62.0316
62.8872
62.8872
63.6691
63.6691
64.3748
64.3748
65.0024
65.0024
65.55
65.55
66.0157
66.0157
66.3983
66.3983
66.6967
66.6967
66.91
66.91
67.0379
67.0379
67.0806
67.0806
67.0387
67.0387
66.9132
66.9132
66.7059
66.7059
66.419
66.419
66.0554
66.0554
65.6186
65.6186
65.1127
65.1127
64.5424
64.5424
63.9133
63.9133
63.2312
63.2312
62.5028
62.5028
61.7352
61.7352
60.9361
60.9361
60.1135
60.1135
59.276
59.276
58.4322
58.4322
57.591
57.591
56.7614
56.7614
55.9524
55.9524
55.1727
55.1727
54.4307
54.4307
53.7344
53.7344
53.0912
53.0912
52.5077
52.5077
51.9898
51.9898
51.5422
51.5422
51.1686
51.1686
50.8716
50.8716
50.6525
50.6525
50.5117
50.5117
50.448
50.448
50.459
50.459
50.5413
50.5413
50.6905
50.6905
50.9014
50.9014
51.1678
51.1678
51.483
51.483
51.8398
51.8398
52.2307
52.2307
52.6479
52.6479
53.0835
53.0835
53.5299
53.5299
53.9794
53.9794
54.4249
54.4249
54.8593
54.8593
55.2762
55.2762
55.6697
55.6697
56.0344
56.0344
56.3654
56.3654
56.6586
56.6586
56.9103
56.9103
57.1176
57.1176
57.278
57.278
57.3897
57.3897
57.4514
57.4514
57.4624
57.4624
57.4222
57.4222
57.3311
57.3311
57.1896
57.1896
56.9984
56.9984
56.7589
56.7589
56.4724
56.4724
56.1406
56.1406
55.7653
55.7653
55.3485
55.3485
54.8924
54.8924
54.3992
54.3992
53.871
53.871
53.3102
53.3102
52.7191
52.7191
52.1
52.1
51.4551
51.4551
50.7867
50.7867
50.0969
50.0969
49.3878
49.3878
48.6615
48.6615
47.9199
47.9199
47.1649
47.1649
46.3982
46.3982
45.6216
45.6216
44.8367
44.8367
44.0449
44.0449
43.2478
43.2478
42.4466
42.4466
41.6427
41.6427
40.8372
40.8372
40.0313
40.0313
39.2259
39.2259
38.4221
38.4221
37.6208
37.6208
36.8228
36.8228
36.0289
36.0289
35.2399
35.2399
34.4564
34.4564
33.679
33.679
32.9084
32.9084
32.1451
32.1451
31.3895
31.3895
30.6422
30.6422
29.9036
29.9036
29.174
29.174
28.4539
28.4539
27.7435
27.7435
27.0431
27.0431
26.3531
26.3531
25.6737
25.6737
25.0052
25.0052
24.3477
24.3477
23.7016
23.7016
23.0669
23.0669
22.4438
22.4438
21.8325
21.8325
21.2332
21.2332
20.646
20.646
20.0709
20.0709
19.508
19.508
18.9574
18.9574
18.419
18.419
17.893
17.893
17.3792
17.3792
16.8775
16.8775
16.388
16.388
15.9103
15.9103
15.4444
15.4444
14.9902
14.9902
14.5474
14.5474
14.1159
14.1159
13.6954
13.6954
13.2859
13.2859
12.8871
12.8871
12.499
12.499
12.1213
12.1213
11.7539
11.7539
11.3967
11.3967
11.0495
11.0495
10.7123
10.7123
10.3848
10.3848
10.0669
10.0669
9.75853
9.75853
9.45946
9.45946
9.16955
9.16955
8.88862
8.88862
8.6165
8.6165
8.35301
8.35301
8.098
8.098
7.8513
7.8513
7.61275
7.61276
7.38222
7.38222
7.15957
7.15958
6.94468
6.94468
6.73742
6.73742
6.53768
6.53768
6.34535
6.34535
6.16032
6.16032
5.98248
5.98248
5.81172
5.81172
5.64791
5.64791
5.49092
5.49092
5.3406
5.34061
5.19681
5.19681
5.05935
5.05935
4.92804
4.92804
4.80268
4.80268
4.68307
4.68307
4.56901
4.56901
4.46029
4.46029
4.35674
4.35674
4.25815
4.25815
4.16433
4.16433
4.07506
4.07506
3.99013
3.99013
3.90929
3.90929
3.83228
3.83228
3.75884
3.75884
3.68867
3.68867
3.62148
3.62148
3.55698
3.55698
3.4949
3.4949
3.435
3.435
3.37709
3.37709
3.32103
3.32103
3.26669
3.26669
3.21396
3.21396
3.1627
3.1627
3.11273
3.11273
3.06388
3.06388
3.01594
3.01594
2.96871
2.96871
2.92205
2.92205
2.87584
2.87584
2.82998
2.82998
2.78441
2.78441
2.73911
2.73911
2.69411
2.69411
2.64947
2.64947
2.60529
2.60529
2.56166
2.56166
2.51862
2.51862
2.47616
2.47616
2.43418
2.43417
2.39251
2.39251
2.35093
2.35093
2.30916
2.30916
2.26687
2.26686
2.22379
2.22379
2.17978
2.17977
2.13484
2.13484
2.08918
2.08917
2.04309
2.04309
1.99699
1.99699
1.95127
1.95127
1.90633
1.90633
1.86235
1.86236
1.81934
1.81935
1.77719
1.7772
1.73589
1.73589
1.69557
1.69557
1.65646
1.65647
1.61885
1.61885
1.58299
1.58299
1.54911
1.54911
1.51736
1.51736
1.48782
1.48782
1.46054
1.46054
1.43551
1.43551
1.41271
1.41271
1.39209
1.39209
1.37352
1.37352
1.35683
1.35683
1.34177
1.34177
1.32805
1.32805
1.31532
1.31532
1.30318
1.30318
1.2912
1.2912
1.27898
1.27898
1.26619
1.26619
1.25254
1.25254
1.23772
1.23773
1.22139
1.22139
1.20321
1.20321
1.18306
1.18306
1.16109
1.16109
1.13765
1.13765
1.11323
1.11323
1.08851
1.08851
1.06427
1.06427
1.04122
1.04122
1.01979
1.01979
1.0001
1.0001
0.98216
0.98216
0.965965
0.965966
0.951527
0.951528
0.938856
0.938857
0.927957
0.927957
0.918801
0.918801
0.911279
0.911279
0.90517
0.90517
0.90017
0.90017
0.895949
0.895949
0.892132
0.892132
0.888178
0.888177
0.88339
0.883389
0.877151
0.877151
0.869173
0.869173
0.859622
0.859622
0.849014
0.849015
0.83792
0.83792
0.826776
0.826777
0.815956
0.815956
0.805901
0.8059
0.79705
0.797049
0.789687
0.789686
0.783932
0.78393
0.779876
0.779874
0.777717
0.777715
0.777708
0.77771
0.779855
0.779857
0.783895
0.783896
0.789623
0.789624
0.796964
0.796965
0.805785
0.805785
0.815801
0.815801
0.826588
0.826587
0.83766
0.837659
0.848635
0.848635
0.859127
0.859126
0.868587
0.868587
0.876497
0.876497
0.882707
0.882707
0.887529
0.88753
0.891561
0.891562
0.895457
0.895457
0.899744
0.899744
0.904798
0.904798
0.910957
0.910957
0.918537
0.918537
0.927756
0.927756
0.938718
0.938718
0.951449
0.951449
0.965946
0.965945
0.982197
0.982196
1.00019
1.00019
1.01994
1.01994
1.04143
1.04143
1.06453
1.06453
1.08883
1.08883
1.11361
1.11361
1.13805
1.13804
1.16147
1.16147
1.18338
1.18338
1.20343
1.20343
1.22151
1.22151
1.23777
1.23777
1.25253
1.25253
1.26614
1.26614
1.2789
1.2789
1.29109
1.29109
1.30304
1.30304
1.31514
1.31514
1.32783
1.32783
1.34152
1.34152
1.35654
1.35654
1.3732
1.3732
1.39175
1.39175
1.41236
1.41236
1.43515
1.43515
1.46018
1.46017
1.48745
1.48745
1.51698
1.51698
1.54873
1.54873
1.58262
1.58262
1.61848
1.61848
1.6561
1.65609
1.6952
1.6952
1.73554
1.73554
1.77687
1.77686
1.81903
1.81903
1.86204
1.86204
1.906
1.906
1.95091
1.95091
1.99658
1.99659
2.04266
2.04266
2.08873
2.08874
2.13439
2.13439
2.17929
2.1793
2.22326
2.22326
2.26631
2.26631
2.30859
2.30859
2.35039
2.35039
2.39201
2.39201
2.43375
2.43375
2.47583
2.47583
2.51837
2.51837
2.56145
2.56145
2.6051
2.6051
2.64926
2.64926
2.69387
2.69387
2.73884
2.73884
2.78411
2.78411
2.82966
2.82966
2.8755
2.8755
2.9217
2.9217
2.96837
2.96837
3.0156
3.0156
3.06356
3.06356
3.11244
3.11244
3.16244
3.16244
3.21376
3.21376
3.26656
3.26656
3.32098
3.32098
3.3771
3.3771
3.43504
3.43504
3.49497
3.49497
3.55707
3.55707
3.62159
3.62159
3.68879
3.68879
3.75898
3.75898
3.83244
3.83244
3.90946
3.90946
3.9903
3.9903
4.07521
4.07521
4.16444
4.16444
4.25824
4.25824
4.35679
4.35679
4.46032
4.46032
4.56902
4.56902
4.68308
4.68308
4.80269
4.80269
4.92806
4.92806
5.05937
5.05937
5.19684
5.19684
5.34065
5.34065
5.49098
5.49098
5.64799
5.64799
5.81181
5.81181
5.98259
5.98259
6.16043
6.16043
6.34546
6.34546
6.5378
6.5378
6.73755
6.73755
6.94481
6.94481
7.15971
7.15971
7.38236
7.38236
7.61289
7.61289
7.85145
7.85145
8.09816
8.09816
8.35318
8.35318
8.61666
8.61666
8.88878
8.88878
9.1697
9.1697
9.45961
9.45961
9.75867
9.75867
10.067
10.067
10.3849
10.3849
10.7124
10.7124
11.0496
11.0496
11.3968
11.3968
11.754
11.754
12.1214
12.1214
12.4991
12.4991
12.8873
12.8873
13.2861
13.2861
13.6956
13.6956
14.1161
14.1161
14.5476
14.5476
14.9904
14.9904
15.4447
15.4447
15.9106
15.9106
16.3882
16.3882
16.8779
16.8779
17.3795
17.3795
17.8933
17.8933
18.4194
18.4194
18.9577
18.9577
19.5084
19.5084
20.0712
20.0712
20.6464
20.6464
21.2336
21.2336
21.833
21.833
22.4442
22.4442
23.0673
23.0673
23.702
23.702
24.3482
24.3482
25.0057
25.0057
25.6743
25.6743
26.3537
26.3537
27.0437
27.0437
27.7441
27.7441
28.4546
28.4546
29.1748
29.1748
29.9044
29.9044
30.6431
30.6431
31.3905
31.3905
32.1461
32.1461
32.9095
32.9095
33.6802
33.6802
34.4576
34.4576
35.2412
35.2412
36.0304
36.0304
36.8243
36.8243
37.6224
37.6224
38.4238
38.4238
39.2276
39.2276
40.033
40.033
40.839
40.839
41.6446
41.6446
42.4486
42.4486
43.2498
43.2498
44.047
44.047
44.8388
44.8388
45.6238
45.6238
46.4004
46.4004
47.167
47.167
47.922
47.922
48.6635
48.6635
49.3898
49.3898
50.0987
50.0987
50.7884
50.7884
51.4567
51.4567
52.1013
52.1013
52.7201
52.7201
53.311
53.311
53.8717
53.8717
54.3998
54.3998
54.8931
54.8931
55.3492
55.3492
55.766
55.766
56.1413
56.1413
56.4731
56.4731
56.7597
56.7597
56.9993
56.9993
57.1903
57.1903
57.3318
57.3318
57.4229
57.4229
57.4631
57.4631
57.4522
57.4522
57.3906
57.3906
57.2792
57.2792
57.1189
57.1189
56.9118
56.9118
56.6601
56.6601
56.3669
56.3669
56.0355
56.0355
55.6702
55.6702
55.2758
55.2758
54.858
54.858
54.4229
54.4229
53.9771
53.9771
53.5273
53.5273
53.0805
53.0805
52.6445
52.6445
52.2268
52.2268
51.8353
51.8353
51.4779
51.4779
51.162
51.162
50.8949
50.8949
50.6834
50.6834
50.5336
50.5336
50.4507
50.4507
50.4392
50.4392
50.5023
50.5023
50.6425
50.6425
50.861
50.861
51.1573
51.1573
51.5303
51.5303
51.9773
51.9773
52.4947
52.4947
53.0777
53.0777
53.7204
53.7204
54.4163
54.4163
55.158
55.158
55.9374
55.9374
56.7462
56.7462
57.5754
57.5754
58.4162
58.4162
59.2597
59.2597
60.0971
60.0971
60.9197
60.9197
61.719
61.719
62.4869
62.4869
63.2156
63.2156
63.8982
63.8982
64.5282
64.5282
65.0993
65.0993
65.6059
65.6059
66.0432
66.0432
66.4073
66.4073
66.6952
66.6951
66.9034
66.9034
67.0296
67.0296
67.0724
67.0724
67.0305
67.0305
66.9034
66.9034
66.6907
66.6907
66.3931
66.3931
66.0112
66.0112
65.546
65.546
64.9989
64.9989
64.3717
64.3717
63.6663
63.6663
62.8848
62.8848
62.0294
62.0294
61.1025
61.1025
60.1063
60.1063
59.0434
59.0434
57.916
57.916
56.7268
56.7268
55.4776
55.4776
54.1707
54.1707
52.8077
52.8077
51.3906
51.3906
49.9206
49.9206
48.399
48.399
46.8266
46.8266
45.2039
45.2039
43.531
43.531
41.8075
41.8075
40.0323
40.0323
38.2036
38.2036
36.3187
36.3187
34.3739
34.3739
32.3641
32.3641
30.2821
30.2821
28.1186
28.1186
25.8605
25.8605
23.49
23.49
20.9818
20.9818
18.2995
18.2995
15.3902
15.3902
12.1787
12.1787
8.58771
8.58771
4.73296
4.73296
1.57016
1.57016
0.228175
0.228175
0.00941031
0.00941031
0.77771
0.777708
0.779857
0.779855
0.783896
0.783895
0.789624
0.789623
0.796965
0.796964
0.805785
0.805785
0.815801
0.815801
0.826588
0.826588
0.837659
0.83766
0.848635
0.848636
0.859127
0.859127
0.868587
0.868587
0.876498
0.876497
0.882707
0.882707
0.88753
0.887529
0.891561
0.891561
0.895457
0.895456
0.899744
0.899744
0.904798
0.904798
0.910957
0.910957
0.918537
0.918537
0.927756
0.927756
0.938718
0.938718
0.951449
0.951449
0.965945
0.965946
0.982197
0.982197
1.00019
1.00019
1.01994
1.01994
1.04143
1.04143
1.06453
1.06453
1.08883
1.08883
1.11361
1.11361
1.13805
1.13805
1.16147
1.16147
1.18339
1.18339
1.20343
1.20343
1.22151
1.22151
1.23777
1.23777
1.25253
1.25253
1.26614
1.26614
1.2789
1.2789
1.29109
1.29109
1.30304
1.30304
1.31514
1.31514
1.32783
1.32783
1.34152
1.34152
1.35654
1.35654
1.3732
1.3732
1.39175
1.39175
1.41236
1.41236
1.43515
1.43515
1.46018
1.46018
1.48745
1.48745
1.51698
1.51698
1.54873
1.54873
1.58262
1.58262
1.61848
1.61848
1.6561
1.6561
1.6952
1.69521
1.73554
1.73554
1.77687
1.77687
1.81903
1.81904
1.86204
1.86204
1.906
1.906
1.95091
1.95091
1.99659
1.99659
2.04267
2.04266
2.08874
2.08874
2.1344
2.1344
2.1793
2.1793
2.22327
2.22327
2.26631
2.26631
2.3086
2.3086
2.35039
2.35039
2.39202
2.39201
2.43376
2.43376
2.47583
2.47583
2.51837
2.51837
2.56145
2.56145
2.6051
2.6051
2.64926
2.64926
2.69387
2.69387
2.73884
2.73884
2.78411
2.78411
2.82966
2.82966
2.8755
2.8755
2.9217
2.9217
2.96837
2.96837
3.0156
3.0156
3.06355
3.06355
3.11244
3.11244
3.16244
3.16244
3.21375
3.21375
3.26656
3.26656
3.32097
3.32097
3.37709
3.37709
3.43503
3.43503
3.49496
3.49496
3.55707
3.55707
3.62158
3.62158
3.68879
3.68879
3.75898
3.75898
3.83244
3.83244
3.90945
3.90945
3.99029
3.99029
4.0752
4.0752
4.16443
4.16443
4.25823
4.25823
4.35678
4.35678
4.46031
4.46031
4.56901
4.56901
4.68307
4.68307
4.80268
4.80268
4.92805
4.92805
5.05936
5.05936
5.19683
5.19683
5.34064
5.34064
5.49097
5.49097
5.64798
5.64798
5.8118
5.81181
5.98258
5.98258
6.16042
6.16042
6.34545
6.34545
6.53779
6.53779
6.73754
6.73754
6.9448
6.94481
7.1597
7.1597
7.38235
7.38235
7.61289
7.61289
7.85144
7.85144
8.09816
8.09816
8.35318
8.35318
8.61666
8.61666
8.88877
8.88877
9.16969
9.16969
9.4596
9.4596
9.75866
9.75866
10.067
10.067
10.3849
10.3849
10.7124
10.7124
11.0496
11.0496
11.3968
11.3968
11.754
11.754
12.1214
12.1214
12.4991
12.4991
12.8873
12.8873
13.2861
13.2861
13.6956
13.6956
14.116
14.116
14.5476
14.5476
14.9904
14.9904
15.4447
15.4447
15.9106
15.9106
16.3882
16.3882
16.8778
16.8778
17.3795
17.3795
17.8933
17.8933
18.4194
18.4194
18.9577
18.9577
19.5083
19.5083
20.0712
20.0712
20.6464
20.6464
21.2336
21.2336
21.833
21.833
22.4442
22.4442
23.0673
23.0673
23.702
23.702
24.3482
24.3482
25.0057
25.0057
25.6743
25.6743
26.3537
26.3537
27.0437
27.0437
27.7441
27.7441
28.4545
28.4545
29.1748
29.1748
29.9044
29.9044
30.6431
30.6431
31.3905
31.3905
32.1461
32.1461
32.9095
32.9095
33.6802
33.6802
34.4576
34.4576
35.2412
35.2412
36.0304
36.0304
36.8243
36.8243
37.6224
37.6224
38.4237
38.4237
39.2276
39.2276
40.033
40.033
40.839
40.839
41.6446
41.6446
42.4486
42.4486
43.2498
43.2498
44.047
44.047
44.8388
44.8388
45.6237
45.6237
46.4003
46.4003
47.167
47.167
47.922
47.922
48.6635
48.6635
49.3898
49.3898
50.0987
50.0987
50.7884
50.7884
51.4566
51.4566
52.1012
52.1012
52.7201
52.7201
53.311
53.311
53.8717
53.8717
54.3998
54.3998
54.8931
54.8931
55.3492
55.3492
55.7659
55.7659
56.1413
56.1413
56.4731
56.4731
56.7597
56.7597
56.9993
56.9993
57.1903
57.1903
57.3318
57.3318
57.4229
57.4229
57.4631
57.4631
57.4522
57.4522
57.3906
57.3906
57.2791
57.2791
57.1189
57.1189
56.9118
56.9118
56.6601
56.6601
56.3668
56.3668
56.0355
56.0355
55.6702
55.6702
55.2758
55.2758
54.858
54.858
54.4229
54.4229
53.9771
53.9771
53.5272
53.5272
53.0805
53.0805
52.6444
52.6444
52.2268
52.2268
51.8353
51.8353
51.4779
51.4779
51.162
51.162
50.8949
50.8949
50.6834
50.6834
50.5336
50.5336
50.4507
50.4507
50.4392
50.4392
50.5023
50.5023
50.6425
50.6425
50.861
50.861
51.1573
51.1573
51.5303
51.5303
51.9773
51.9773
52.4947
52.4947
53.0777
53.0777
53.7204
53.7204
54.4163
54.4163
55.158
55.158
55.9374
55.9374
56.7462
56.7462
57.5754
57.5754
58.4162
58.4162
59.2597
59.2597
60.0971
60.0971
60.9197
60.9197
61.719
61.719
62.4869
62.4869
63.2157
63.2157
63.8983
63.8983
64.5282
64.5282
65.0994
65.0994
65.6059
65.6059
66.0432
66.0432
66.4074
66.4074
66.6952
66.6952
66.9034
66.9034
67.0297
67.0297
67.0724
67.0724
67.0305
67.0305
66.9034
66.9034
66.6907
66.6907
66.3931
66.3931
66.0112
66.0112
65.546
65.546
64.9989
64.9989
64.3717
64.3717
63.6663
63.6663
62.8848
62.8848
62.0294
62.0294
61.1025
61.1025
60.1063
60.1063
59.0434
59.0434
57.916
57.916
56.7267
56.7267
55.4776
55.4776
54.1706
54.1707
52.8077
52.8077
51.3906
51.3906
49.9206
49.9206
48.399
48.399
46.8266
46.8266
45.2039
45.2039
43.531
43.531
41.8075
41.8075
40.0323
40.0323
38.2036
38.2036
36.3187
36.3187
34.3739
34.3739
32.3641
32.3641
30.2821
30.2821
28.1186
28.1186
25.8605
25.8605
23.49
23.49
20.9818
20.9818
18.2995
18.2995
15.3902
15.3902
12.1787
12.1787
8.58771
8.58771
4.73296
4.73296
1.57016
1.57016
0.228175
0.228175
0.00941031
0.00941031
)
;

boundaryField
{
    walls
    {
        type            kqRWallFunction;
        value           nonuniform List<scalar> 8(0.00941013 0.00941013 0.00941013 0.00941013 0.00941031 0.00941031 0.00941031 0.00941031);
    }
    inlet
    {
        type            cyclic;
    }
    outlet
    {
        type            cyclic;
    }
    sides
    {
        type            empty;
    }
}


// ************************************************************************* //
