/*--------------------------------*- C++ -*----------------------------------*\
| =========                 |                                                 |
| \\      /  F ield         | OpenFOAM: The Open Source CFD Toolbox           |
|  \\    /   O peration     | Version:  2012                                  |
|   \\  /    A nd           | Website:  www.openfoam.com                      |
|    \\/     M anipulation  |                                                 |
\*---------------------------------------------------------------------------*/
FoamFile
{
    version     2.0;
    format      ascii;
    class       volScalarField;
    location    "1000";
    object      p;
}
// * * * * * * * * * * * * * * * * * * * * * * * * * * * * * * * * * * * * * //

dimensions      [0 2 -2 0 0 0 0];


internalField   nonuniform List<scalar> 
80
(
-1.19374e-16
1.61991e-16
-1.91104e-16
8.0414e-17
-3.10598e-16
-8.56649e-17
-5.34385e-16
-3.84695e-16
-9.25788e-16
-8.41244e-16
-1.5926e-15
-1.58544e-15
-2.92982e-15
-2.95114e-15
-5.97452e-15
-5.97456e-15
-1.11756e-14
-1.1208e-14
-2.22363e-14
-2.19952e-14
-2.63934e-16
-2.18129e-16
-2.68717e-16
-2.23277e-16
-2.9497e-16
-2.51368e-16
-4.23478e-16
-3.74445e-16
-7.6166e-16
-7.13233e-16
-1.49736e-15
-1.44193e-15
-2.82524e-15
-2.8028e-15
-5.96312e-15
-6.06961e-15
-1.12359e-14
-1.12406e-14
-2.2669e-14
-2.22094e-14
-2.64664e-14
-2.65041e-14
-3.23337e-14
-3.23312e-14
-3.29097e-14
-3.26903e-14
-3.28761e-14
-3.28119e-14
-3.28748e-14
-3.28655e-14
-3.28906e-14
-3.2878e-14
-3.28854e-14
-3.28792e-14
-3.28833e-14
-3.28732e-14
-3.28828e-14
-3.2873e-14
-3.28825e-14
-3.28729e-14
-2.6159e-14
-2.63525e-14
-3.23285e-14
-3.23277e-14
-3.28388e-14
-3.27107e-14
-3.28501e-14
-3.28332e-14
-3.28722e-14
-3.28656e-14
-3.28917e-14
-3.28716e-14
-3.28932e-14
-3.28818e-14
-3.28919e-14
-3.28848e-14
-3.2892e-14
-3.2885e-14
-3.28917e-14
-3.28851e-14
)
;

boundaryField
{
    walls
    {
        type            zeroGradient;
    }
    inlet
    {
        type            cyclic;
    }
    outlet
    {
        type            cyclic;
    }
    sides
    {
        type            empty;
    }
}


// ************************************************************************* //
