/*--------------------------------*- C++ -*----------------------------------*\
| =========                 |                                                 |
| \\      /  F ield         | OpenFOAM: The Open Source CFD Toolbox           |
|  \\    /   O peration     | Version:  2012                                  |
|   \\  /    A nd           | Website:  www.openfoam.com                      |
|    \\/     M anipulation  |                                                 |
\*---------------------------------------------------------------------------*/
FoamFile
{
    version     2.0;
    format      ascii;
    class       volTensorField;
    location    "12000";
    object      grad(U);
}
// * * * * * * * * * * * * * * * * * * * * * * * * * * * * * * * * * * * * * //

dimensions      [0 0 -1 0 0 0 0];


internalField   nonuniform List<tensor> 
2560
(
(0 5.87747e-39 1.44703e-18 447.602 -3.38813e-21 8.96424e-05 0.648895 3.29336e-08 1.19014e-07)
(-1.4629e-16 -1.74391e-23 -2.95897e-18 447.602 8.27815e-05 9.06186e-05 0.648895 1.22005e-07 4.84806e-08)
(-2.88386e-16 0 1.41668e-18 446.245 9.78319e-05 9.65407e-06 1.95217 2.47954e-07 2.83554e-08)
(0 -3.43783e-23 -4.29054e-23 446.245 8.00696e-05 9.62709e-06 1.95217 3.60123e-07 2.82762e-08)
(-8.38177e-17 0 -1.88741e-23 444.87 0.000112517 5.91253e-06 2.66641 5.59609e-07 4.22186e-08)
(0 0 0 444.87 7.62028e-05 5.90984e-06 2.66641 4.42369e-07 4.22667e-08)
(2.64684e-16 7.78445e-23 1.50507e-23 443.45 6.7924e-05 8.59377e-06 2.69633 2.5252e-07 6.18452e-08)
(0 0 0 443.45 5.94673e-05 8.59573e-06 2.69633 2.75549e-07 6.18204e-08)
(2.20931e-15 2.6337e-22 0 441.948 1.26377e-06 1.12412e-05 2.72595 7.57482e-08 7.61718e-08)
(-1.10465e-15 0 0 441.948 4.26005e-06 1.12055e-05 2.72595 1.39435e-08 7.57555e-08)
(1.7216e-15 2.19459e-19 7.39043e-23 440.332 -7.73118e-05 1.17656e-05 2.75506 2.40574e-07 7.0232e-08)
(5.06224e-15 9.78462e-19 6.44132e-23 440.332 -7.29208e-05 1.16535e-05 2.75506 2.26911e-07 6.92481e-08)
(2.53222e-16 0 -8.86373e-24 438.584 -0.000130243 9.35872e-06 2.78358 4.57379e-07 4.77876e-08)
(2.20676e-15 0 3.72753e-23 438.584 -0.000129674 9.17163e-06 2.78358 4.66375e-07 4.6406e-08)
(-1.00925e-15 8.37406e-24 -7.92393e-24 436.715 -0.000115792 6.44012e-06 2.81164 1.48479e-08 3.46256e-08)
(1.92133e-15 -5.17222e-24 -2.97293e-23 436.715 -0.000115309 6.22469e-06 2.81164 2.42497e-08 3.32472e-08)
(5.37115e-15 -2.02665e-18 5.01561e-24 434.767 -2.94305e-05 6.10783e-06 2.83962 -9.56336e-08 4.4837e-08)
(-4.17069e-15 0 0 434.767 -2.86858e-05 7.12815e-25 2.83962 -9.32138e-08 0)
(0 -8.46181e-20 -2.93874e-38 432.819 1.35553e-20 -3.40088e-21 2.86812 5.29396e-23 -1.32349e-23)
(0 0 0 432.819 -1.67055e-06 -1.88172e-05 2.86812 -7.01529e-08 1.19448e-08)
(-3.61443e-15 3.0335e-23 0 430.969 1.39689e-05 -1.84207e-05 2.89787 -7.02901e-08 3.39544e-08)
(0 0 0 430.969 1.42005e-05 2.15971e-06 2.89787 -7.23797e-08 1.62315e-13)
(3.78206e-15 -1.56015e-23 0 429.324 1.79126e-05 -3.41231e-06 2.92965 -1.16931e-07 -8.33445e-13)
(0 0 0 429.324 1.80906e-05 6.66658e-06 2.92965 -1.17932e-07 1.69551e-13)
(1.96834e-15 0 0 427.988 1.5134e-05 8.08959e-06 2.96423 -1.26267e-07 -7.97675e-13)
(-1.96834e-15 0 0 427.988 1.53035e-05 8.08956e-06 2.96423 -1.27684e-07 1.88762e-13)
(-2.18398e-15 5.82883e-24 0 427.058 1.11618e-05 9.62274e-06 3.00237 -8.18147e-08 -7.77079e-13)
(8.73592e-15 -1.77416e-23 0 427.058 1.1293e-05 9.62274e-06 3.00237 -8.27292e-08 1.86932e-13)
(0 0 0 426.619 8.04521e-06 1.11241e-05 3.0448 -7.40685e-08 -7.56228e-13)
(0 0 0 426.619 8.16561e-06 1.11241e-05 3.0448 -7.64932e-08 2.04234e-13)
(-2.59112e-15 3.6165e-24 0 426.748 6.7146e-06 1.25764e-05 3.09219 -3.97157e-08 -7.76956e-13)
(1.03645e-14 0 0 426.748 6.81671e-06 1.25764e-05 3.09219 -5.66231e-08 2.03276e-13)
(0 1.38424e-23 1.10739e-22 427.507 6.08322e-06 1.40137e-05 3.14515 -3.68253e-08 -7.95818e-13)
(-1.11933e-14 -1.38424e-23 -1.10739e-22 427.507 6.17951e-06 1.40137e-05 3.14515 -2.7663e-08 2.22631e-13)
(-7.32506e-15 1.3644e-23 0 428.946 2.52139e-06 1.54291e-05 3.20422 -2.05593e-08 -6.47827e-13)
(-4.70845e-15 -1.3644e-23 0 428.946 2.60749e-06 1.54291e-05 3.20422 -1.13729e-08 2.2441e-13)
(7.22008e-15 -2.5647e-20 0 431.098 1.47323e-06 1.68105e-05 3.26984 -5.5307e-09 -7.75917e-13)
(-3.61004e-15 6.72422e-24 2.15175e-22 431.098 2.24555e-06 1.68105e-05 3.26984 -8.21521e-09 2.46874e-13)
(-1.19864e-16 9.94177e-24 0 433.985 4.27348e-06 1.82234e-05 3.34237 -3.40681e-09 -9.20437e-13)
(-1.01954e-14 -1.65696e-23 0 433.985 4.34556e-06 1.82234e-05 3.34237 5.79571e-09 2.51626e-13)
(-3.5073e-15 1.87819e-23 0 437.608 1.9314e-06 1.96923e-05 3.42204 1.59581e-08 -5.38616e-13)
(3.5073e-15 -1.87819e-23 0 437.608 2.00455e-06 1.96923e-05 3.42204 2.51431e-08 2.77687e-13)
(-3.88469e-15 -3.21961e-24 0 441.955 -1.39712e-06 2.11501e-05 3.50893 1.21604e-08 -6.50959e-13)
(0 8.04902e-24 0 441.955 -1.32845e-06 2.11501e-05 3.50893 2.13281e-08 2.8613e-13)
(2.69984e-15 -1.57386e-24 2.03102e-22 446.991 1.97857e-22 2.26257e-05 3.603 5.67045e-09 -9.60666e-13)
(0 2.53877e-23 0 446.991 2.5195e-06 2.26257e-05 3.603 1.49085e-08 3.15737e-13)
(0 1.25119e-23 0 452.672 3.3389e-06 2.4212e-05 3.70408 3.26328e-08 -5.98089e-13)
(-1.74044e-14 -2.17486e-23 0 452.672 3.40073e-06 2.4212e-05 3.70408 3.64339e-08 3.28391e-13)
(4.59317e-15 2.00405e-23 1.97321e-22 458.934 -1.15628e-06 2.5862e-05 3.81183 3.31545e-08 -6.40421e-13)
(0 -2.00405e-23 -1.97321e-22 458.934 -1.09466e-06 2.5862e-05 3.81183 3.68057e-08 3.62435e-13)
(-9.68372e-15 2.27922e-23 1.94493e-22 465.697 -1.83146e-06 2.75013e-05 3.92575 2.37285e-08 -6.4546e-13)
(0 -2.27922e-23 -1.94493e-22 465.697 -1.77255e-06 2.75014e-05 3.92575 3.29534e-08 3.79678e-13)
(2.17256e-14 -2.5849e-24 0 472.868 3.40533e-37 2.92132e-05 4.04525 1.86262e-08 -8.77698e-13)
(3.43489e-14 2.65842e-23 0 472.868 3.14494e-06 2.92132e-05 4.04525 2.78396e-08 4.18889e-13)
(0 -2.36198e-23 -3.77916e-22 480.35 2.0526e-06 3.10741e-05 4.16961 5.06972e-08 -7.17347e-13)
(2.14445e-14 2.99377e-23 0 480.35 2.10587e-06 3.1074e-05 4.16961 3.78854e-08 4.41298e-13)
(5.63263e-15 -8.13373e-20 0 488.031 -5.62203e-07 3.3008e-05 4.29797 3.64832e-08 -4.58082e-13)
(0 -5.82031e-24 -3.725e-22 488.031 -1.77374e-06 3.30079e-05 4.29797 3.8238e-08 4.86925e-13)
(-1.18252e-14 0 0 495.793 -1.55101e-06 3.49604e-05 4.42936 3.55537e-08 -6.43315e-13)
(-4.7301e-14 -6.88502e-24 0 495.793 -1.50112e-06 3.49605e-05 4.42936 3.85888e-08 5.15621e-13)
(-6.20146e-15 0 0 503.516 0 3.70198e-05 4.56279 2.33429e-08 -7.87197e-13)
(-2.48058e-14 -6.18479e-24 0 503.516 2.64701e-06 3.70198e-05 4.56279 3.25707e-08 5.68332e-13)
(0 2.22945e-23 0 511.084 1.87633e-06 3.9258e-05 4.69721 5.97328e-08 -5.74554e-13)
(-2.59976e-14 -3.87591e-23 0 511.084 1.92864e-06 3.9258e-05 4.69721 3.92897e-08 6.04796e-13)
(0 -1.64812e-23 0 518.376 -2.87581e-06 4.15848e-05 4.83146 4.05874e-08 -5.26831e-13)
(2.72269e-14 2.21289e-23 0 518.376 -2.82456e-06 4.15848e-05 4.83146 3.96416e-08 6.66257e-13)
(-7.12352e-15 -1.24314e-20 0 525.273 0 4.39671e-05 4.96435 3.40246e-08 -5.13984e-13)
(0 4.06125e-24 0 525.273 -3.67546e-07 4.39671e-05 4.96435 3.99958e-08 7.12128e-13)
(-7.44989e-15 -8.82609e-20 0 531.663 1.28233e-06 4.65221e-05 5.09475 3.73949e-08 -5.78137e-13)
(0 -1.86808e-23 0 531.663 2.83407e-06 4.65221e-05 5.09475 4.66384e-08 7.83918e-13)
(-7.78583e-15 1.57827e-23 0 537.441 9.27564e-07 4.92883e-05 5.22148 6.11663e-08 -4.71252e-13)
(-4.2441e-14 -2.17367e-23 -6.73393e-22 537.441 9.77088e-07 4.92883e-05 5.22148 4.07138e-08 8.41444e-13)
(8.13124e-15 -1.0371e-23 0 542.503 -2.81386e-06 5.21702e-05 5.34328 4.66733e-08 -3.85211e-13)
(0 1.0371e-23 0 542.503 -2.76264e-06 5.21702e-05 5.34328 4.10797e-08 9.25931e-13)
(1.94621e-14 -1.53237e-20 -6.54229e-22 546.748 9.52912e-22 5.5158e-05 5.4589 3.44566e-08 -4.10425e-13)
(-1.09761e-14 1.27779e-23 6.54229e-22 546.748 -1.34448e-07 5.5158e-05 5.4589 4.14499e-08 9.98371e-13)
(-8.84972e-15 7.55686e-24 0 550.084 2.42605e-06 5.83702e-05 5.56715 4.56957e-08 -2.63786e-13)
(0 -7.55686e-24 0 550.084 2.47796e-06 5.83702e-05 5.56715 4.18288e-08 1.09733e-12)
(0 1.98628e-23 0 552.426 1.9275e-06 6.18673e-05 5.66678 5.94881e-08 -1.73188e-13)
(0 -1.98628e-23 0 552.426 1.97547e-06 6.18673e-05 5.66678 4.22098e-08 1.18963e-12)
(-9.60296e-15 9.78906e-24 0 553.687 -2.69583e-06 6.55631e-05 5.75643 6.59365e-08 -3.08292e-13)
(2.79009e-14 1.8079e-23 0 553.687 -2.64501e-06 6.55631e-05 5.75643 4.2608e-08 1.30505e-12)
(0 -6.85508e-20 -1.23504e-21 553.778 -2.11758e-22 6.94084e-05 5.83471 3.20791e-08 -7.48424e-14)
(3.99661e-14 1.68853e-23 1.23504e-21 553.778 -1.24111e-06 6.94084e-05 5.83471 4.13609e-08 1.42455e-12)
(1.03873e-14 9.51046e-24 6.0867e-22 552.619 4.24032e-06 7.35692e-05 5.90027 5.35529e-08 1.09089e-13)
(-4.15492e-14 -2.69273e-23 -6.0867e-22 552.619 4.2927e-06 7.35692e-05 5.90027 4.85484e-08 1.55678e-12)
(1.07896e-14 0 0 550.131 -9.53305e-07 7.80769e-05 5.95164 7.78826e-08 4.20031e-14)
(0 0 0 550.131 -9.04008e-07 7.80769e-05 5.95164 4.38194e-08 1.7159e-12)
(8.6447e-15 0 0 546.232 6.58831e-37 8.28749e-05 5.98726 4.35896e-08 3.89975e-13)
(-1.98423e-14 6.92985e-24 0 546.232 4.28611e-07 8.28748e-05 5.98726 5.28476e-08 1.86035e-12)
(1.16105e-14 0 1.16574e-21 540.837 -1.86136e-06 8.79677e-05 6.00548 8.33327e-08 3.90098e-13)
(4.64422e-14 1.74954e-23 -1.16574e-21 540.837 -1.80635e-06 8.79677e-05 6.00548 4.46725e-08 2.08018e-12)
(0 -3.19646e-24 0 533.864 5.68345e-22 9.34524e-05 6.00463 2.30329e-08 8.04867e-14)
(4.81095e-14 8.41578e-24 0 533.864 3.49119e-06 9.34524e-05 6.00463 3.23333e-08 2.22967e-12)
(-1.2447e-14 0 0 525.232 6.85757e-06 9.95621e-05 5.98298 1.23987e-07 1.49866e-12)
(0 0 0 525.232 6.9271e-06 9.95621e-05 5.98298 4.5577e-08 2.41309e-12)
(-1.28683e-14 0 0 514.859 -1.62259e-05 0.000105876 5.93859 1.01439e-07 5.32164e-13)
(0 0 0 514.859 -7.97718e-06 0.000105876 5.93859 4.61791e-08 2.81453e-12)
(1.84605e-14 -8.90612e-24 0 502.665 1.47785e-21 0.000112271 5.86968 0 1.14193e-12)
(0 0 0 502.665 8.14513e-07 0.000112271 5.86968 -5.49054e-08 3.05134e-12)
(-3.19064e-14 -1.69463e-23 -1.08456e-21 488.593 3.81619e-05 0.000120072 5.77473 1.13753e-07 3.3126e-12)
(0 0 0 488.593 3.82573e-05 0.000120072 5.77473 1.23034e-07 3.15877e-12)
(-1.79352e-14 6.37582e-19 2.13804e-21 472.583 -3.37744e-05 0.000128158 5.65167 2.0417e-07 8.05224e-13)
(-5.65129e-14 -3.65047e-18 -2.13804e-21 472.583 -7.88373e-06 0.000128158 5.65167 4.76581e-08 3.36512e-12)
(-3.22197e-14 0 -2.10739e-21 454.568 -3.26107e-23 0.000136062 5.49874 0 -5.57078e-13)
(5.81665e-14 -2.09938e-19 2.10739e-21 454.568 1.57848e-05 0.000136062 5.49874 -9.68084e-08 4.57884e-12)
(0 0 2.07719e-21 434.535 2.24319e-05 0.000145506 5.31499 2.08028e-07 1.65576e-12)
(0 -1.30406e-18 -2.07719e-21 434.535 7.89723e-06 0.000145505 5.31499 4.91382e-08 4.84336e-12)
(-3.25224e-14 5.87747e-39 0 412.48 0 0.000155023 5.09886 -2.64698e-23 4.92923e-12)
(7.85648e-14 -5.30166e-23 0 412.48 -1.56593e-05 0.000155023 5.09886 -9.88519e-08 4.37072e-12)
(4.84005e-14 0 -2.01807e-21 388.41 4.30489e-05 0.000165126 4.84958 1.14832e-07 5.25211e-12)
(4.60146e-14 0 2.01807e-21 388.41 4.31241e-05 0.000165126 4.84958 1.24199e-07 5.25208e-12)
(1.66862e-14 0 0 362.386 -3.24757e-05 0.000175983 4.56694 2.15038e-07 1.86246e-12)
(0 0 0 362.386 -7.83905e-06 0.000175983 4.56694 5.0935e-08 5.97108e-12)
(-1.64723e-14 -1.19313e-36 0 334.5 7.6233e-21 0.000186599 4.251 0 2.31581e-12)
(0 0 0 334.5 7.13515e-06 0.000186599 4.251 -1.01462e-07 6.58101e-12)
(-3.36313e-14 -6.45653e-23 0 304.888 1.57373e-05 0.000198114 3.90278 2.20572e-07 4.77421e-12)
(6.72625e-14 2.27675e-22 0 304.888 7.83313e-06 0.000198114 3.90278 5.23875e-08 7.09633e-12)
(-1.71391e-14 -2.43594e-19 0 273.725 -7.65059e-24 0.000209884 3.52358 0 5.25038e-12)
(0 0 0 273.725 -1.18709e-05 0.000209884 3.52358 -1.009e-07 7.27722e-12)
(-1.69025e-15 -1.01915e-23 0 241.221 8.11794e-06 0.000221507 3.1156 2.25939e-07 6.09467e-12)
(5.40108e-14 1.4154e-22 0 241.221 7.82316e-06 0.000221506 3.1156 5.38535e-08 8.0321e-12)
(-1.77166e-14 1.4458e-23 0 207.636 -4.46163e-05 0.000231777 2.68176 -2.1465e-09 8.56985e-12)
(0 -7.22902e-24 -3.70126e-21 207.636 -4.45161e-05 0.000231777 2.68176 7.15222e-09 8.02852e-12)
(-5.12335e-14 4.70198e-37 3.64821e-21 173.284 6.79861e-21 0.000241778 2.22616 0 4.7936e-12)
(-5.65619e-14 3.33596e-18 -3.64821e-21 173.284 1.52078e-05 0.000241778 2.22616 -1.07755e-07 9.59443e-12)
(-3.63719e-14 -1.64566e-22 -3.59592e-21 138.522 -1.80218e-05 0.000251966 1.7535 2.34716e-07 2.29705e-12)
(1.45488e-13 7.752e-19 3.59592e-21 138.522 -7.93569e-06 0.000251966 1.7535 5.7046e-08 1.01649e-11)
(-5.51247e-14 3.00927e-36 0 103.719 2.71881e-20 0.000258917 1.26871 3.14341e-36 9.38082e-12)
(-7.34996e-14 2.76083e-18 -3.54438e-21 103.719 -1.50078e-05 0.000258916 1.26871 -1.09453e-07 9.25335e-12)
(-1.8531e-14 4.05103e-19 0 69.2849 3.39609e-05 0.000264481 0.778334 9.54162e-08 9.96512e-12)
(7.4124e-14 1.62541e-18 0 69.2849 3.39898e-05 0.000264482 0.778334 1.05009e-07 9.59233e-12)
(4.75392e-14 9.59736e-19 0 35.6645 -3.28429e-05 0.00026854 0.289027 2.21599e-07 6.4908e-12)
(-2.88863e-14 0 0 35.6646 -7.9431e-06 0.00026854 0.289027 5.96265e-08 9.52799e-12)
(1.19156e-13 -9.2008e-23 0 0.0163818 6.68426e-21 0.000270878 0.000124761 0 6.33244e-12)
(3.13165e-13 -2.26474e-18 0 0.0163819 1.49765e-05 0.000270878 0.000124762 -1.14059e-07 1.01314e-11)
(9.0933e-14 1.23083e-18 6.69102e-21 -24.9012 -3.30633e-05 0.000271096 0.192401 2.55467e-07 5.59557e-12)
(1.02756e-13 4.93306e-22 0 -24.9012 -8.06047e-06 0.000271097 0.192401 6.228e-08 9.00511e-12)
(-2.76619e-14 4.70198e-38 0 -56.0967 1.48397e-34 0.000269069 0.658807 0 2.02758e-12)
(7.42503e-14 -8.91568e-22 -6.59512e-21 -56.0967 1.49142e-05 0.000269069 0.658807 -1.16911e-07 9.71789e-12)
(0 0 0 -82.3533 -5.22745e-07 0.000267338 1.10336 2.63842e-07 1.25792e-12)
(0 0 0 -82.3533 -4.06722e-07 0.000267338 1.10336 6.52338e-08 9.15139e-12)
(-3.65223e-14 4.70198e-36 0 -105.927 -3.4129e-20 0.000264397 1.51945 -6.87323e-38 3.98383e-12)
(0 0 0 -105.927 -1.49458e-05 0.000264397 1.51945 -1.20592e-07 7.57351e-12)
(0 0 0 -126.623 3.03343e-05 0.000261753 1.90203 2.74422e-07 3.99607e-12)
(7.23043e-14 1.50577e-18 0 -126.623 8.26195e-06 0.000261753 1.90203 6.76315e-08 7.74526e-12)
(0 -4.79286e-19 0 -144.326 -4.40457e-20 0.000260015 2.24654 0 4.30944e-12)
(7.14895e-14 -6.59074e-22 -1.24501e-20 -144.326 -1.50128e-05 0.000260016 2.24654 -1.24681e-07 6.60334e-12)
(-1.76533e-14 -3.0492e-23 0 -159.035 1.05777e-05 0.000258871 2.55012 2.85479e-07 1.3017e-13)
(0 0 0 -159.035 8.3351e-06 0.000258871 2.55012 7.0229e-08 6.74868e-12)
(1.74219e-14 -1.03888e-18 0 -170.843 0 0.000258346 2.81169 -2.11758e-22 1.13942e-12)
(0 1.09801e-18 -1.20958e-20 -170.843 -1.49603e-05 0.000258345 2.81169 -1.27884e-07 5.8718e-12)
(0 2.03611e-19 5.96122e-21 -179.908 3.42341e-05 0.000259553 3.0315 -1.85344e-08 5.79746e-12)
(0 -2.06837e-18 0 -179.908 8.43369e-06 0.000259553 3.0315 -8.79406e-09 5.45869e-12)
(0 0 1.17516e-20 -186.453 -4.42701e-05 0.000261999 3.2108 -4.70221e-07 5.13731e-12)
(0 0 0 -186.453 -4.41597e-05 0.000262 3.2108 -4.60505e-07 5.24602e-12)
(-3.33622e-14 -2.35099e-38 0 -190.763 -1.10154e-22 0.000265522 3.35233 -2.11758e-22 1.28056e-12)
(2.42916e-14 1.42967e-18 1.15831e-20 -190.763 1.5151e-05 0.000265522 3.35233 -1.35246e-07 6.19187e-12)
(-1.64261e-14 0 0 -193.147 -3.46598e-05 0.00026977 3.45987 2.2093e-07 6.56646e-13)
(0 -2.42349e-18 0 -193.147 -8.67968e-06 0.000269771 3.45987 7.86063e-08 5.57509e-12)
(1.61699e-14 -2.3413e-22 0 -193.914 -2.3413e-22 0.000274362 3.53754 -2.11758e-22 -2.30378e-12)
(-6.46795e-14 9.92091e-19 -1.12535e-20 -193.914 1.51992e-05 0.000274362 3.53754 -1.39651e-07 6.96271e-12)
(0 0 1.10922e-20 -193.353 -5.36278e-06 0.000280699 3.5896 3.26507e-07 -3.38945e-12)
(-6.36543e-14 -4.2312e-22 0 -193.353 -5.22578e-06 0.000280699 3.5896 8.25498e-08 7.26636e-12)
(-1.56581e-14 -4.74869e-19 0 -191.745 2.71051e-20 0.000286226 3.62011 0 8.88383e-13)
(1.25265e-13 -1.03289e-18 0 -191.745 -1.5306e-05 0.000286226 3.62011 -1.44752e-07 6.48402e-12)
(1.54042e-14 1.88291e-19 1.07765e-20 -189.334 3.55496e-05 0.000292526 3.63346 2.4794e-07 4.79319e-12)
(6.16166e-14 9.54556e-23 -1.07765e-20 -189.334 8.96989e-06 0.000292525 3.63346 8.60635e-08 7.65538e-12)
(0 -2.53974e-19 0 -186.32 -1.35525e-20 0.000300081 3.63297 0 5.75412e-12)
(0 0 0 -186.32 -1.54734e-05 0.000300081 3.63297 -1.50621e-07 6.98173e-12)
(-1.49024e-14 -4.08977e-23 0 -182.877 -1.16713e-05 0.000306824 3.62168 -7.8366e-08 2.76885e-12)
(5.96096e-14 1.37722e-19 0 -182.877 -9.08608e-06 0.000306824 3.62168 -6.83274e-08 8.46543e-12)
(-1.46551e-14 -2.68483e-35 1.03198e-20 -179.148 1.76046e-20 0.000313636 3.60239 0 3.79861e-12)
(-5.86204e-14 6.40409e-22 -1.03198e-20 -179.148 6.99827e-06 0.000313636 3.60239 -1.55985e-07 9.10878e-12)
(1.44104e-14 -1.49002e-23 0 -175.236 -1.54782e-05 0.0003203 3.57723 8.20892e-08 1.97177e-12)
(5.76415e-14 1.49002e-23 0 -175.236 -9.24615e-06 0.0003203 3.57723 9.20508e-08 9.93053e-12)
(-1.41683e-14 -4.60428e-20 0 -171.216 2.26934e-20 0.000326422 3.54771 2.11758e-22 6.99348e-14)
(5.66732e-14 -8.21913e-22 0 -171.216 -1.5834e-06 0.000326422 3.54771 -1.62132e-07 1.13371e-11)
(-1.3929e-14 0 0 -167.137 2.69852e-05 0.00033375 3.51497 7.55528e-08 5.08654e-12)
(0 -9.39581e-19 0 -167.137 9.44386e-06 0.000333749 3.51497 8.55949e-08 1.18458e-11)
(-1.36924e-14 -4.11382e-19 0 -163.037 1.37058e-20 0.000341023 3.47967 0 8.8326e-12)
(0 0 0 -163.037 -1.59368e-05 0.000341023 3.47967 -1.69169e-07 1.18328e-11)
(-1.34587e-14 0 -1.92022e-20 -158.95 8.46075e-06 0.000347448 3.4426 -5.83204e-07 8.86587e-12)
(5.38347e-14 0 0 -158.95 8.60453e-06 0.000347448 3.4426 -5.72992e-07 1.33202e-11)
(1.32278e-14 -3.30095e-23 -1.8927e-20 -154.894 -3.13995e-05 0.000352957 3.40427 -6.8613e-07 1.32866e-11)
(0 0 1.8927e-20 -154.894 -3.12117e-05 0.000352957 3.40427 -6.80738e-07 1.3818e-11)
(1.9562e-14 -1.75426e-22 0 -150.872 6.42541e-21 0.000359847 3.36489 2.11758e-22 9.14672e-12)
(0 0 0 -150.872 1.63062e-05 0.000359848 3.36489 -1.80751e-07 1.6475e-11)
(-1.27747e-14 1.49746e-19 0 -146.889 -3.88716e-05 0.000367247 3.32437 4.26741e-07 -3.34313e-13)
(0 0 0 -146.889 -1.00144e-05 0.000367247 3.32437 1.12622e-07 1.87392e-11)
(0 -2.31227e-19 0 -142.956 -3.04932e-20 0.000371574 3.28296 0 7.64023e-12)
(1.19426e-13 -2.39819e-19 0 -142.956 -1.63661e-05 0.000371573 3.28296 -1.8673e-07 1.809e-11)
(0 2.52377e-19 -1.7865e-20 -139.074 3.97956e-05 0.000377888 3.24098 3.73851e-08 1.89743e-11)
(4.93343e-14 2.43815e-18 0 -139.074 1.02153e-05 0.000377888 3.24098 4.81719e-08 1.97282e-11)
(-1.21176e-14 1.47385e-22 -1.7609e-20 -135.237 -6.74792e-05 0.00038394 3.19807 -9.79668e-07 2.14404e-11)
(-4.84705e-14 3.60492e-23 0 -135.237 -6.73024e-05 0.000383941 3.19807 -9.75017e-07 2.07194e-11)
(6.29489e-15 -2.67276e-51 3.47132e-20 -131.451 1.35525e-20 0.000389144 3.15435 -3.19087e-51 1.00397e-11)
(-6.5819e-14 1.43505e-18 -1.73566e-20 -131.451 1.68775e-05 0.000389145 3.15435 -2.01087e-07 2.43124e-11)
(0 1.67069e-23 1.71078e-20 -127.719 -1.69993e-05 0.00039585 3.11001 1.02073e-07 6.13513e-12)
(-1.79389e-14 -1.67069e-23 -1.71078e-20 -127.719 -1.06309e-05 0.000395849 3.11001 1.12923e-07 2.72584e-11)
(0 -1.04118e-18 0 -124.045 2.03288e-20 0.000399516 3.06501 4.23516e-22 2.6009e-11)
(2.82732e-14 1.29521e-18 -1.68626e-20 -124.045 -1.71408e-05 0.000399516 3.06501 -2.10207e-07 2.63374e-11)
(1.12855e-14 2.59702e-22 -1.66209e-20 -120.432 5.79377e-05 0.000403756 3.0196 -9.96878e-07 2.50606e-11)
(-1.74283e-14 0 -1.66209e-20 -120.432 5.81438e-05 0.000403757 3.0196 -9.86171e-07 2.92579e-11)
(0 0 0 -116.878 -2.27645e-05 0.000409728 2.97367 -5.23747e-07 1.31161e-11)
(8.86843e-14 1.01171e-18 0 -116.878 -1.10799e-05 0.000409728 2.97367 -5.12805e-07 3.36623e-11)
(0 -4.37661e-19 3.22958e-20 -113.386 -3.38813e-21 0.00041352 2.92726 -2.11758e-22 2.82803e-11)
(8.71109e-14 -1.48645e-21 0 -113.386 -1.76699e-05 0.000413519 2.92726 -2.26286e-07 3.34021e-11)
(-2.13909e-14 0 0 -109.96 2.77295e-05 0.000417649 2.8806 -1.02092e-06 3.2031e-11)
(0 0 0 -109.96 2.6051e-05 0.00041765 2.8806 -1.00975e-06 3.60019e-11)
(-1.05053e-14 0 0 -106.605 -2.69912e-05 0.000421734 2.83371 -8.502e-07 2.44304e-11)
(8.40427e-14 0 0 -106.605 -1.15779e-05 0.000421735 2.83371 -8.39273e-07 4.05826e-11)
(1.03185e-14 -4.80764e-22 0 -103.323 1.91155e-20 0.000424631 2.78677 0 2.48702e-11)
(0 0 0 -103.323 6.40881e-06 0.000424631 2.78677 -2.45412e-07 4.30175e-11)
(-1.01349e-14 0 0 -100.115 1.61106e-05 0.000428616 2.7399 -6.62623e-07 3.81327e-11)
(0 0 0 -100.115 1.19396e-05 0.000428616 2.7399 -6.51436e-07 4.48937e-11)
(-9.9545e-15 0 0 -96.9826 -5.07113e-05 0.000430561 2.69302 -1.29787e-06 4.63684e-11)
(3.9818e-14 0 0 -96.9826 -5.04412e-05 0.000430561 2.69302 -1.28648e-06 4.66767e-11)
(5.75007e-15 2.06887e-36 0 -93.9301 7.34518e-21 0.000432446 2.64645 7.89527e-38 3.17822e-11)
(2.35819e-14 -9.83851e-22 0 -93.9301 1.90516e-05 0.000432446 2.64645 -2.66056e-07 5.28214e-11)
(-1.92067e-14 0 0 -90.9533 -1.70156e-05 0.000436136 2.60016 1.99794e-07 2.81824e-11)
(0 0 0 -90.9533 -1.25792e-05 0.000436137 2.60016 1.78223e-07 5.74457e-11)
(-9.43251e-15 -2.93804e-19 0 -88.0543 6.77626e-21 0.000436951 2.55404 -4.23516e-22 4.08298e-11)
(-1.50855e-14 4.09828e-19 -2.87733e-20 -88.0543 -1.95747e-05 0.00043695 2.55404 -2.81369e-07 5.80138e-11)
(0 0 0 -85.2372 4.40884e-05 0.000438333 2.50843 -6.31303e-07 5.89501e-11)
(-3.70591e-14 0 0 -85.2372 1.29989e-05 0.000438333 2.50843 -6.19592e-07 6.09708e-11)
(9.10012e-15 0 0 -82.4991 -4.91609e-05 0.000439138 2.46334 -1.27879e-06 6.29562e-11)
(3.64005e-14 0 0 -82.4991 -4.88753e-05 0.000439139 2.46334 -1.26657e-06 6.40123e-11)
(8.93848e-15 -5.75991e-22 0 -79.8384 2.03288e-20 0.000439443 2.41869 0 4.79041e-11)
(-3.57539e-14 9.75689e-22 0 -79.8384 2.03928e-05 0.000439443 2.41869 -3.06103e-07 7.04796e-11)
(-8.77983e-15 2.98376e-23 0 -77.2556 -2.90046e-05 0.000440391 2.37458 9.37039e-08 5.15179e-11)
(2.08803e-14 -1.98917e-23 -2.71588e-20 -77.2556 -1.37784e-05 0.000440391 2.37458 1.0654e-07 7.469e-11)
(0 -4.14029e-22 0 -74.7508 1.69407e-21 0.000440095 2.33107 -4.23516e-22 6.20498e-11)
(-1.4035e-14 0 0 -74.7508 1.30803e-05 0.000440095 2.33107 -3.25771e-07 7.6335e-11)
(-1.38338e-14 -5.1535e-23 -5.27718e-20 -72.3224 -2.43312e-05 0.000438736 2.28822 5.49319e-07 6.14321e-11)
(3.38852e-14 1.87541e-22 -2.63859e-20 -72.3224 -1.43029e-05 0.000438736 2.28822 2.24193e-07 8.08554e-11)
(8.3213e-15 -1.05165e-21 0 -69.9694 3.38813e-20 0.000436763 2.24599 0 5.32191e-11)
(0 0 0 -69.9694 2.05041e-05 0.000436764 2.24599 -3.47601e-07 8.79367e-11)
(0 0 5.127e-20 -67.6891 1.34556e-05 0.000436598 2.20449 9.0635e-07 5.99717e-11)
(-3.26964e-14 -7.8064e-22 -5.127e-20 -67.6891 1.3809e-05 0.000436598 2.20449 2.40647e-07 9.22154e-11)
(-1.32475e-14 -3.43258e-19 -5.05351e-20 -65.4789 3.38813e-20 0.000434336 2.16356 0 6.63232e-11)
(0 0 0 -65.4789 -2.26292e-05 0.000434335 2.16356 -3.70405e-07 9.33062e-11)
(1.30576e-14 2.43217e-23 0 -63.3393 5.06863e-05 0.000432416 2.1233 1.92708e-08 8.579e-11)
(-1.30576e-14 -1.18866e-18 0 -63.3393 1.55315e-05 0.000432416 2.1233 3.27367e-08 9.6913e-11)
(7.7488e-15 -4.32606e-19 0 -61.2688 -3.56627e-05 0.000429328 2.08378 -6.00843e-07 1.06483e-10)
(0 8.75844e-19 0 -61.2688 -3.49397e-05 0.000429329 2.08378 -5.88661e-07 9.9979e-11)
(7.61229e-15 -2.82789e-22 0 -59.2638 -5.65578e-22 0.000425521 2.04495 -4.23516e-22 7.04765e-11)
(-6.343e-15 1.06943e-18 -4.83932e-20 -59.2638 2.39532e-05 0.000425522 2.04495 -4.0943e-07 1.08358e-10)
(-1.49567e-14 0 0 -57.3212 -2.88581e-05 0.000423191 2.00674 2.20794e-07 6.80981e-11)
(2.99134e-14 0 0 -57.3212 -1.66046e-05 0.000423191 2.00674 2.35186e-07 1.1347e-10)
(-7.34693e-15 -6.34743e-20 0 -55.4395 0 0.000417917 1.96913 -4.23516e-22 7.1211e-11)
(0 0 0 -55.4395 -7.67888e-06 0.000417916 1.96913 -4.39558e-07 1.18266e-10)
(0 2.2628e-23 0 -53.6146 3.96854e-05 0.000414477 1.93213 1.72079e-09 9.07022e-11)
(-6.07415e-15 -2.2628e-23 0 -53.6146 1.73783e-05 0.000414475 1.93213 1.63242e-08 1.21279e-10)
(1.19742e-14 -6.25441e-19 0 -51.8433 -7.47464e-06 0.000410014 1.89556 -1.35358e-07 1.14794e-10)
(-1.19742e-14 6.65325e-19 -4.56779e-20 -51.8433 -2.6091e-05 0.000410015 1.89556 -4.72481e-07 1.20627e-10)
(-5.90128e-15 1.41059e-37 4.50232e-20 -50.1242 4.75228e-22 0.000403191 1.85949 0 8.08569e-11)
(-1.18026e-14 0 -9.00465e-20 -50.1242 2.17748e-05 0.000403193 1.85949 -4.88091e-07 1.30042e-10)
(0 0 4.43779e-20 -48.4525 1.33748e-05 0.000398472 1.82384 -8.41632e-07 9.73075e-11)
(5.47673e-14 0 -4.43779e-20 -48.4525 1.38864e-05 0.000398472 1.82384 -8.27194e-07 1.34631e-10)
(-1.34535e-14 2.6993e-22 0 -46.8252 -1.18706e-05 0.000393419 1.78842 -2.24479e-07 1.02989e-10)
(2.69069e-14 -3.63911e-22 0 -46.8252 -1.22496e-05 0.000393419 1.78842 -5.26279e-07 1.37425e-10)
(6.60995e-15 -6.93547e-23 0 -45.2415 -1.3258e-05 0.000385967 1.75328 -7.97099e-07 9.98985e-11)
(0 0 0 -45.2415 -1.27258e-05 0.000385967 1.75328 -7.73443e-07 1.43079e-10)
(0 -3.64055e-34 0 -43.6989 1.24503e-20 0.000377964 1.71839 0 9.066e-11)
(-3.71225e-14 6.09305e-22 0 -43.6989 1.30573e-05 0.000377964 1.71839 -5.6717e-07 1.46485e-10)
(-6.38354e-15 0 -4.18879e-20 -42.1954 1.07026e-05 0.000371295 1.68366 -7.71931e-07 9.86187e-11)
(2.55342e-14 0 4.18879e-20 -42.1954 1.12621e-05 0.000371294 1.68366 -7.56462e-07 1.51531e-10)
(5.41164e-15 -1.67294e-19 4.12875e-20 -40.7299 -8.47033e-21 0.000364077 1.6491 0 1.11182e-10)
(-5.41164e-15 0 -4.12875e-20 -40.7299 -1.14667e-05 0.000364076 1.6491 -6.11428e-07 1.55474e-10)
(0 0 0 -39.3025 -7.5853e-07 0.000355362 1.61469 -6.67089e-08 1.02935e-10)
(0 0 0 -39.3025 -1.69039e-07 0.000355363 1.61469 -6.33892e-07 1.6006e-10)
(-6.06172e-15 4.70198e-36 0 -37.9136 1.69901e-20 0.000346265 1.58051 -2.11758e-22 1.0469e-10)
(0 0 0 -37.9136 3.03115e-06 0.000346265 1.58051 -6.59377e-07 1.64277e-10)
(3.6286e-15 -3.7519e-25 0 -36.5623 -3.07319e-06 0.000336584 1.54659 -5.30568e-07 1.03864e-10)
(4.76729e-14 -4.25279e-22 7.90752e-20 -36.5623 -2.4159e-06 0.000336584 1.54659 -6.85421e-07 1.68717e-10)
(0 -1.84868e-22 7.79418e-20 -35.2471 9.2098e-21 0.000326501 1.51289 2.11758e-22 9.63694e-11)
(0 0 -7.79418e-20 -35.2471 5.30459e-06 0.000326502 1.51289 -7.14405e-07 1.73033e-10)
(-5.03479e-15 1.50048e-22 0 -33.9673 6.40968e-06 0.000316841 1.47942 -8.4547e-07 1.07141e-10)
(0 0 -7.68247e-20 -33.9673 7.11002e-06 0.000316841 1.47942 -8.27737e-07 1.77402e-10)
(-1.69952e-14 3.68954e-22 0 -32.7211 -6.05787e-06 0.000306709 1.44617 -1.34466e-07 1.06869e-10)
(4.53205e-14 -2.52232e-22 0 -32.7211 -5.33552e-06 0.00030671 1.44617 -7.74777e-07 1.8199e-10)
(0 -1.06067e-35 0 -31.507 0 0.000296192 1.41306 -2.11758e-22 1.04575e-10)
(4.45728e-14 -2.71061e-22 0 -31.507 8.01997e-06 0.000296192 1.41306 -8.04446e-07 1.86171e-10)
(-5.48041e-15 0 0 -30.3237 -1.47899e-05 0.000284465 1.38011 -6.50105e-07 1.0072e-10)
(-9.64278e-15 0 0 -30.3237 -1.39904e-05 0.000284466 1.38011 -6.31158e-07 1.91221e-10)
(-4.11308e-15 -2.3548e-22 -7.25141e-20 -29.1691 1.2182e-34 0.00027249 1.34725 -2.11758e-22 8.27639e-11)
(5.26365e-14 -8.87526e-22 7.25141e-20 -29.1691 1.88033e-05 0.000272492 1.34725 -8.76375e-07 1.95196e-10)
(0 -1.91949e-22 -7.14748e-20 -28.0415 -7.5803e-07 0.000261554 1.3144 2.42705e-07 8.21908e-11)
(2.12194e-14 1.91949e-22 7.14748e-20 -28.0415 7.39206e-08 0.000261553 1.3144 2.61532e-07 2.00794e-10)
(5.22048e-15 -2.05998e-19 0 -26.9396 -1.11129e-20 0.000248941 1.28156 0 8.47488e-11)
(0 0 0 -26.9396 -1.07276e-05 0.000248941 1.28156 -9.53485e-07 2.04671e-10)
(1.02768e-14 0 0 -25.8623 1.84383e-05 0.000236415 1.24866 -2.23909e-07 9.33207e-11)
(1.60027e-14 0 -6.94407e-20 -25.8623 1.92983e-05 0.000236416 1.24866 -2.02918e-07 2.11075e-10)
(0 -9.15588e-20 0 -24.8088 1.25651e-21 0.000224317 1.21569 -1.05879e-22 8.93278e-11)
(-4.48564e-15 0 0 -24.8088 -7.03415e-06 0.000224317 1.21569 -7.66248e-07 2.14609e-10)
(0 -1.31766e-22 0 -23.7784 -1.84402e-07 0.000210861 1.18264 -4.51864e-07 7.40321e-11)
(2.43459e-14 0 0 -23.7784 7.59923e-07 0.000210862 1.18264 -5.20958e-07 2.2249e-10)
(9.81196e-15 -4.09718e-22 0 -22.7709 8.24534e-21 0.000196754 1.1495 1.05879e-22 7.12751e-11)
(0 0 0 -22.7709 1.07416e-06 0.000196754 1.1495 -7.14969e-07 2.24902e-10)
(4.83313e-15 -3.84049e-22 0 -21.786 -1.16578e-07 0.000181953 1.11629 -4.70692e-07 6.10628e-11)
(1.93325e-14 2.56033e-22 0 -21.786 9.09473e-07 0.000181954 1.11629 -4.46311e-07 2.35939e-10)
(0 -1.88213e-22 0 -20.8231 7.6233e-21 0.000166507 1.08301 0 5.37668e-11)
(1.90504e-14 2.52363e-22 0 -20.8231 2.12266e-06 0.000166508 1.08301 -6.53331e-07 2.35103e-10)
(-4.6944e-15 0 0 -19.8823 3.31392e-06 0.000150723 1.04965 -3.39845e-07 4.60735e-11)
(-1.87776e-14 0 0 -19.8823 4.40687e-06 0.000150723 1.04965 -3.13987e-07 2.52795e-10)
(-8.74197e-15 2.45181e-22 -1.25533e-19 -18.9635 -8.04358e-06 0.000133586 1.01625 -4.32206e-07 6.03429e-11)
(0 0 0 -18.9635 -6.8509e-06 0.000133588 1.01625 -4.05999e-07 2.44031e-10)
(-4.56495e-15 0 0 -18.0677 3.38813e-21 0.000116012 0.982832 -3.83362e-52 6.9061e-12)
(-1.82598e-14 0 0 -18.0677 1.37431e-05 0.000116012 0.982832 -6.54765e-07 2.76266e-10)
(3.99639e-15 -1.19102e-22 6.098e-20 -17.1963 -1.27017e-05 9.74088e-05 0.949496 3.35654e-07 2.91048e-11)
(0 1.19102e-22 0 -17.1963 -1.13745e-05 9.74101e-05 0.949496 3.62433e-07 2.4782e-10)
(0 -1.80316e-22 1.20212e-19 -16.3519 0 7.66907e-05 0.916373 0 -6.52518e-11)
(3.55577e-14 0 0 -16.3519 4.57433e-06 7.66905e-05 0.916373 -1.26792e-06 3.13456e-10)
(-4.38793e-15 1.30176e-22 5.92446e-20 -15.5384 1.73335e-05 5.70903e-05 0.883672 6.39506e-07 6.78852e-11)
(1.75517e-14 -1.30176e-22 -5.92446e-20 -15.5384 1.88089e-05 5.70915e-05 0.883672 6.68021e-07 2.37313e-10)
(-3.827e-15 5.70268e-22 -5.83954e-20 -14.7608 -3.10585e-05 3.47143e-05 0.851696 -2.46606e-07 -7.31968e-11)
(-2.11601e-14 -3.42161e-22 0 -14.7608 -2.97993e-05 3.47143e-05 0.851696 -2.13839e-07 3.80501e-10)
(-7.5443e-15 -5.17218e-36 3.60971e-20 -14.0248 9.26786e-21 1.37439e-06 0.820795 1.17667e-37 5.55383e-11)
(0 -4.49676e-22 -1.86622e-19 -14.0248 3.27985e-05 1.41601e-06 0.820795 -9.85991e-07 1.90664e-10)
(-3.20641e-15 0 6.19668e-20 -13.3366 -1.7376e-05 -5.44015e-08 0.791417 1.68632e-06 -2.73822e-10)
(1.69191e-14 2.37318e-23 0 -13.3366 -1.62006e-05 5.68573e-25 0.791417 1.27749e-06 1.03398e-25)
(0 -1.20371e-35 1.11841e-19 -12.7014 1.94071e-21 -3.82391e-05 0.763979 -4.23516e-22 2.01444e-10)