/*--------------------------------*- C++ -*----------------------------------*\
| =========                 |                                                 |
| \\      /  F ield         | OpenFOAM: The Open Source CFD Toolbox           |
|  \\    /   O peration     | Version:  2012                                  |
|   \\  /    A nd           | Website:  www.openfoam.com                      |
|    \\/     M anipulation  |                                                 |
\*---------------------------------------------------------------------------*/
FoamFile
{
    version     2.0;
    format      ascii;
    class       volScalarField;
    location    "12000";
    object      k;
}
// * * * * * * * * * * * * * * * * * * * * * * * * * * * * * * * * * * * * * //

dimensions      [0 2 -2 0 0 0 0];


internalField   nonuniform List<scalar> 
2560
(
9.11517e-05
9.11517e-05
0.00107057
0.00107057
0.00763269
0.00763269
0.0281143
0.0281143
0.0732749
0.0732749
0.154327
0.154327
0.278795
0.278795
0.444912
0.444912
0.640606
0.640606
0.850481
0.850481
1.06312
1.06312
1.27263
1.27263
1.47682
1.47682
1.67536
1.67536
1.86867
1.86867
2.05744
2.05744
2.24237
2.24237
2.42411
2.42411
2.60318
2.60318
2.78001
2.78001
2.95494
2.95494
3.12818
3.12818
3.29987
3.29987
3.47003
3.47003
3.63859
3.63859
3.80541
3.80541
3.97024
3.97024
4.13276
4.13276
4.29253
4.29253
4.44908
4.44908
4.60181
4.60181
4.7501
4.7501
4.89322
4.89322
5.03039
5.03039
5.1608
5.1608
5.28358
5.28358
5.39782
5.39782
5.5026
5.5026
5.59701
5.59701
5.6801
5.6801
5.75099
5.75099
5.8088
5.8088
5.85272
5.85272
5.882
5.882
5.896
5.896
5.89416
5.89416
5.87608
5.87608
5.84151
5.84151
5.79037
5.79037
5.72278
5.72278
5.6391
5.6391
5.5399
5.5399
5.42604
5.42604
5.29863
5.29863
5.15908
5.15908
5.00903
5.00903
4.85043
4.85043
4.68542
4.68542
4.51636
4.51636
4.34577
4.34577
4.17622
4.17622
4.01032
4.01032
3.85059
3.85059
3.69938
3.69938
3.55878
3.55878
3.43052
3.43052
3.31589
3.31589
3.21566
3.21566
3.13009
3.13009
3.05892
3.05892
3.00131
3.00131
2.95603
2.95603
2.92152
2.92152
2.89603
2.89603
2.87768
2.87768
2.86464
2.86464
2.85519
2.85519
2.84779
2.84779
2.84114
2.84114
2.83415
2.83415
2.826
2.826
2.81608
2.81608
2.80395
2.80395
2.78935
2.78935
2.77215
2.77215
2.75229
2.75229
2.72982
2.72982
2.7048
2.7048
2.67736
2.67736
2.64761
2.64761
2.6157
2.6157
2.58179
2.58179
2.54601
2.54601
2.50853
2.50853
2.46948
2.46948
2.42901
2.42901
2.38726
2.38726
2.34437
2.34437
2.30046
2.30046
2.25568
2.25568
2.21013
2.21013
2.16396
2.16396
2.11726
2.11726
2.07017
2.07017
2.02279
2.02279
1.97522
1.97522
1.92757
1.92757
1.87993
1.87993
1.8324
1.8324
1.78505
1.78505
1.73796
1.73796
1.69122
1.69122
1.64488
1.64488
1.59901
1.59901
1.55367
1.55367
1.5089
1.5089
1.46475
1.46475
1.42126
1.42126
1.37847
1.37847
1.33639
1.33639
1.29507
1.29507
1.25452
1.25452
1.21476
1.21476
1.17579
1.17579
1.13763
1.13763
1.10029
1.10029
1.06376
1.06376
1.02805
1.02805
0.993153
0.993153
0.959065
0.959065
0.925782
0.925782
0.893298
0.893298
0.861605
0.861605
0.830696
0.830696
0.800563
0.800563
0.771197
0.771197
0.742591
0.742591
0.714734
0.714734
0.687617
0.687617
0.661229
0.661229
0.635561
0.635561
0.610601
0.610601
0.586339
0.586339
0.562764
0.562764
0.539865
0.539865
0.517632
0.517632
0.496056
0.496056
0.475128
0.475128
0.454839
0.454839
0.435183
0.435183
0.416151
0.416151
0.397738
0.397738
0.379939
0.379939
0.362749
0.362749
0.346164
0.346164
0.33018
0.33018
0.314794
0.314794
0.300003
0.300003
0.285805
0.285805
0.272193
0.272193
0.259163
0.259163
0.246707
0.246707
0.234814
0.234814
0.223471
0.223471
0.21266
0.21266
0.202362
0.202362
0.192554
0.192554
0.183209
0.183209
0.174301
0.174301
0.1658
0.1658
0.15768
0.15768
0.149914
0.149914
0.142478
0.142478
0.135352
0.135352
0.12852
0.12852
0.12197
0.12197
0.115692
0.115692
0.109679
0.109679
0.103926
0.103926
0.0984286
0.0984286
0.0931824
0.0931824
0.0881829
0.0881829
0.0834246
0.0834246
0.0789006
0.0789006
0.0746026
0.0746026
0.0705209
0.0705209
0.0666452
0.0666452
0.0629645
0.0629645
0.0594677
0.0594677
0.0561445
0.0561445
0.0529859
0.0529859
0.0499851
0.049985
0.0471371
0.0471371
0.0444386
0.0444386
0.0418874
0.0418874
0.0394822
0.0394822
0.0372226
0.0372226
0.0351083
0.0351084
0.0331396
0.0331396
0.0313162
0.0313162
0.0296375
0.0296375
0.0281016
0.0281016
0.0267058
0.0267058
0.0254461
0.0254461
0.024317
0.024317
0.0233113
0.0233113
0.0224204
0.0224204
0.0216339
0.0216339
0.0209414
0.0209414
0.0203335
0.0203335
0.0198024
0.0198024
0.0193423
0.0193423
0.0189481
0.0189481
0.018615
0.018615
0.0183375
0.0183375
0.0181093
0.0181093
0.0179224
0.0179224
0.0177674
0.0177674
0.0176333
0.0176333
0.0175071
0.0175071
0.0173752
0.0173752
0.0172251
0.0172251
0.0170488
0.0170488
0.016845
0.016845
0.0166194
0.0166194
0.0163828
0.0163828
0.0161483
0.0161483
0.0159269
0.0159269
0.0157247
0.0157247
0.0155416
0.0155416
0.0153724
0.0153724
0.0152093
0.0152093
0.0150457
0.0150457
0.0148776
0.0148776
0.0147042
0.0147042
0.0145273
0.0145274
0.0143519
0.0143519
0.0141861
0.0141861
0.0140421
0.0140421
0.0139345
0.0139345
0.0138768
0.0138768
0.0138782
0.0138782
0.0139429
0.0139429
0.0140707
0.0140707
0.0142583
0.0142583
0.0144981
0.0144981
0.0147765
0.0147765
0.0150698
0.0150698
0.0153433
0.0153433
0.0155587
0.0155587
0.0156896
0.0156896
0.0157342
0.0157342
0.0157155
0.0157156
0.0156723
0.0156723
0.0156458
0.0156459
0.0156655
0.0156655
0.015743
0.015743
0.0158789
0.0158789
0.0160661
0.0160661
0.016289
0.016289
0.0165315
0.0165315
0.0167922
0.0167922
0.0170849
0.0170849
0.0174273
0.0174273
0.0178286
0.0178286
0.0182838
0.0182838
0.0187767
0.0187767
0.0192939
0.0192939
0.0198286
0.0198286
0.0203805
0.0203805
0.0209557
0.0209557
0.0215668
0.0215669
0.0222301
0.0222301
0.0229594
0.0229594
0.0237578
0.0237578
0.0246193
0.0246193
0.0255307
0.0255307
0.0264718
0.0264718
0.0274171
0.0274171
0.0283452
0.0283452
0.029247
0.029247
0.0301171
0.0301171
0.0309346
0.0309346
0.0316479
0.0316479
0.0321808
0.0321808
0.0324625
0.0324625
0.0324555
0.0324555
0.0321558
0.0321558
0.0315823
0.0315823
0.0307996
0.0307996
0.0299353
0.0299353
0.0291284
0.0291284
0.0284155
0.0284155
0.027779
0.027779
0.0272232
0.0272232
0.0267655
0.0267656
0.0263811
0.0263811
0.0259834
0.0259834
0.0254943
0.0254943
0.0248882
0.0248882
0.0241903
0.0241903
0.0234473
0.0234473
0.0226956
0.0226956
0.0219538
0.0219538
0.021242
0.021242
0.0205991
0.0205991
0.02003
0.02003
0.0195049
0.0195049
0.0190092
0.0190092
0.0185648
0.0185648
0.0181982
0.0181982
0.0179099
0.0179099
0.0176856
0.0176856
0.0175123
0.0175123
0.0173557
0.0173557
0.0171551
0.0171552
0.0168926
0.0168926
0.0166379
0.016638
0.0164599
0.0164601
0.0163666
0.0163668
9.11517e-05
9.11517e-05
0.00107057
0.00107057
0.0076327
0.0076327
0.0281143
0.0281143
0.073275
0.073275
0.154327
0.154327
0.278796
0.278796
0.444913
0.444913
0.640606
0.640606
0.850481
0.850481
1.06313
1.06313
1.27264
1.27264
1.47682
1.47682
1.67536
1.67536
1.86867
1.86867
2.05744
2.05744
2.24238
2.24238
2.42411
2.42411
2.60318
2.60318
2.78001
2.78001
2.95494
2.95494
3.12819
3.12819
3.29987
3.29987
3.47003
3.47003
3.6386
3.6386
3.80542
3.80542
3.97025
3.97025
4.13276
4.13276
4.29253
4.29253
4.44908
4.44908
4.60182
4.60182
4.7501
4.7501
4.89322
4.89322
5.0304
5.0304
5.16081
5.16081
5.28358
5.28358
5.39782
5.39782
5.50261
5.50261
5.59701
5.59701
5.68011
5.68011
5.75099
5.75099
5.8088
5.8088
5.85272
5.85272
5.88201
5.88201
5.896
5.896
5.89416
5.89416
5.87609
5.87609
5.84152
5.84152
5.79038
5.79038
5.72279
5.72279
5.6391
5.6391
5.5399
5.5399
5.42604
5.42604
5.29864
5.29864
5.15908
5.15908
5.00904
5.00904
4.85043
4.85043
4.68543
4.68543
4.51637
4.51637
4.34577
4.34577
4.17623
4.17623
4.01033
4.01033
3.85059
3.85059
3.69939
3.69939
3.55879
3.55879
3.43053
3.43053
3.31589
3.31589
3.21566
3.21566
3.13009
3.13009
3.05892
3.05892
3.00131
3.00131
2.95603
2.95603
2.92153
2.92153
2.89603
2.89603
2.87768
2.87768
2.86464
2.86464
2.85519
2.85519
2.84779
2.84779
2.84114
2.84114
2.83415
2.83415
2.826
2.826
2.81608
2.81608
2.80395
2.80395
2.78935
2.78935
2.77215
2.77215
2.75229
2.75229
2.72982
2.72982
2.7048
2.7048
2.67736
2.67736
2.64761
2.64761
2.6157
2.6157
2.58179
2.58179
2.54601
2.54601
2.50853
2.50853
2.46948
2.46948
2.42901
2.42901
2.38727
2.38727
2.34437
2.34437
2.30047
2.30047
2.25568
2.25568
2.21014
2.21014
2.16396
2.16396
2.11727
2.11727
2.07017
2.07017
2.02279
2.02279
1.97522
1.97522
1.92757
1.92757
1.87993
1.87993
1.8324
1.8324
1.78505
1.78505
1.73797
1.73797
1.69122
1.69122
1.64488
1.64488
1.59902
1.59902
1.55367
1.55367
1.5089
1.5089
1.46475
1.46475
1.42126
1.42126
1.37847
1.37847
1.3364
1.3364
1.29507
1.29507
1.25452
1.25452
1.21476
1.21476
1.17579
1.17579
1.13764
1.13764
1.10029
1.10029
1.06376
1.06376
1.02805
1.02805
0.993154
0.993154
0.959067
0.959067
0.925784
0.925784
0.893299
0.893299
0.861606
0.861606
0.830697
0.830697
0.800564
0.800564
0.771199
0.771199
0.742592
0.742592
0.714735
0.714735
0.687618
0.687618
0.66123
0.66123
0.635562
0.635562
0.610602
0.610602
0.58634
0.58634
0.562764
0.562764
0.539866
0.539866
0.517633
0.517633
0.496057
0.496057
0.475129
0.475129
0.45484
0.45484
0.435183
0.435183
0.416152
0.416152
0.397739
0.397739
0.37994
0.37994
0.36275
0.36275
0.346164
0.346164
0.33018
0.33018
0.314794
0.314794
0.300004
0.300004
0.285805
0.285805
0.272193
0.272193
0.259164
0.259164
0.246708
0.246708
0.234815
0.234815
0.223471
0.223471
0.21266
0.21266
0.202362
0.202362
0.192554
0.192554
0.183209
0.183209
0.174301
0.174301
0.1658
0.1658
0.15768
0.15768
0.149914
0.149914
0.142478
0.142478
0.135352
0.135352
0.12852
0.12852
0.12197
0.12197
0.115692
0.115692
0.109679
0.109679
0.103926
0.103926
0.0984287
0.0984287
0.0931825
0.0931825
0.088183
0.088183
0.0834247
0.0834247
0.0789007
0.0789007
0.0746027
0.0746027
0.070521
0.070521
0.0666453
0.0666453
0.0629646
0.0629646
0.0594679
0.0594679
0.0561446
0.0561446
0.052986
0.052986
0.0499852
0.0499852
0.0471372
0.0471372
0.0444387
0.0444387
0.0418875
0.0418875
0.0394823
0.0394824
0.0372227
0.0372227
0.0351084
0.0351084
0.0331396
0.0331397
0.0313163
0.0313163
0.0296375
0.0296375
0.0281016
0.0281016
0.0267058
0.0267058
0.0254461
0.0254461
0.024317
0.024317
0.0233113
0.0233113
0.0224203
0.0224203
0.0216338
0.0216338
0.0209413
0.0209413
0.0203334
0.0203334
0.0198023
0.0198023
0.0193421
0.0193421
0.0189479
0.0189479
0.0186148
0.0186148
0.0183374
0.0183374
0.0181091
0.0181091
0.0179222
0.0179222
0.0177672
0.0177672
0.0176331
0.0176331
0.0175069
0.0175069
0.017375
0.017375
0.0172249
0.017225
0.0170487
0.0170487
0.0168449
0.016845
0.0166193
0.0166193
0.0163828
0.0163828
0.0161483
0.0161483
0.0159269
0.0159269
0.0157247
0.0157247
0.0155416
0.0155416
0.0153724
0.0153724
0.0152093
0.0152093
0.0150457
0.0150457
0.0148776
0.0148776
0.0147042
0.0147042
0.0145274
0.0145274
0.0143519
0.0143519
0.0141861
0.0141861
0.0140421
0.0140421
0.0139345
0.0139345
0.0138768
0.0138768
0.0138781
0.0138781
0.0139427
0.0139427
0.0140705
0.0140705
0.014258
0.014258
0.0144978
0.0144978
0.0147761
0.0147762
0.0150695
0.0150695
0.015343
0.015343
0.0155585
0.0155585
0.0156895
0.0156895
0.0157342
0.0157342
0.0157156
0.0157156
0.0156724
0.0156724
0.0156459
0.0156459
0.0156655
0.0156655
0.015743
0.015743
0.0158789
0.0158789
0.0160661
0.0160661
0.0162889
0.0162889
0.0165315
0.0165315
0.0167921
0.0167921
0.0170848
0.0170848
0.0174271
0.0174271
0.0178283
0.0178283
0.0182834
0.0182834
0.0187764
0.0187764
0.0192936
0.0192936
0.0198282
0.0198282
0.0203801
0.0203801
0.0209553
0.0209553
0.0215664
0.0215664
0.0222295
0.0222295
0.0229586
0.0229586
0.0237568
0.0237568
0.0246182
0.0246182
0.0255294
0.0255294
0.0264704
0.0264704
0.0274156
0.0274156
0.0283436
0.0283436
0.0292454
0.0292454
0.0301155
0.0301155
0.0309331
0.0309331
0.0316465
0.0316465
0.0321798
0.0321798
0.032462
0.032462
0.0324557
0.0324557
0.0321565
0.0321565
0.0315835
0.0315835
0.030801
0.030801
0.0299365
0.0299365
0.0291291
0.0291292
0.0284159
0.0284159
0.027779
0.027779
0.0272228
0.0272228
0.0267647
0.0267647
0.02638
0.02638
0.0259823
0.0259823
0.0254936
0.0254936
0.0248878
0.0248879
0.0241904
0.0241904
0.0234477
0.0234477
0.0226961
0.0226962
0.0219545
0.0219545
0.0212425
0.0212425
0.0205994
0.0205994
0.0200301
0.0200302
0.019505
0.019505
0.0190092
0.0190093
0.0185646
0.0185646
0.0181978
0.0181978
0.0179092
0.0179092
0.0176847
0.0176847
0.0175114
0.0175114
0.017355
0.0173549
0.0171548
0.0171546
0.0168924
0.0168922
0.0166377
0.0166375
0.0164595
0.0164593
0.0163661
0.0163659
0.0163614
0.0163616
0.0164445
0.0164447
0.0166125
0.0166126
0.016858
0.0168581
0.0171099
0.0171099
0.0173049
0.0173049
0.01746
0.01746
0.0176301
0.0176301
0.0178557
0.0178557
0.0181491
0.0181491
0.0185193
0.0185193
0.018967
0.0189671
0.0194676
0.0194677
0.0200006
0.0200006
0.0205823
0.0205824
0.0212382
0.0212382
0.0219613
0.0219613
0.0227158
0.0227159
0.0234827
0.0234827
0.0242411
0.0242411
0.0249488
0.0249488
0.0255586
0.0255586
0.0260477
0.0260477
0.026448
0.026448
0.0268411
0.0268411
0.0273055
0.0273056
0.0278682
0.0278682
0.0285121
0.0285121
0.0292333
0.0292333
0.0300487
0.0300487
0.0309263
0.0309263
0.0317212
0.0317212
0.0322976
0.0322976
0.0325898
0.0325898
0.0325794
0.0325794
0.0322728
0.0322728
0.0317203
0.0317204
0.0309969
0.030997
0.0301759
0.0301759
0.0293064
0.0293064
0.0284058
0.0284059
0.0274789
0.0274789
0.0265344
0.0265344
0.0255926
0.0255926
0.0246798
0.0246799
0.0238168
0.0238168
0.023017
0.023017
0.0222863
0.0222863
0.0216212
0.0216212
0.0210074
0.0210075
0.0204287
0.0204287
0.0198727
0.0198727
0.0193355
0.0193355
0.0188165
0.0188165
0.0183202
0.0183202
0.0178608
0.0178608
0.0174559
0.0174559
0.0171099
0.0171099
0.0168137
0.0168137
0.0165515
0.0165515
0.0163086
0.0163086
0.0160837
0.0160837
0.0158928
0.0158928
0.0157522
0.0157522
0.0156694
0.0156694
0.0156438
0.0156438
0.0156654
0.0156654
0.0157061
0.0157061
0.0157217
0.0157217
0.0156703
0.0156703
0.0155293
0.0155293
0.0153057
0.0153057
0.0150283
0.0150283
0.0147339
0.0147339
0.0144571
0.0144572
0.0142212
0.0142212
0.0140382
0.0140382
0.0139144
0.0139144
0.0138525
0.0138525
0.013852
0.013852
0.0139088
0.0139088
0.0140145
0.0140145
0.014156
0.014156
0.01432
0.01432
0.0144938
0.0144938
0.0146683
0.0146683
0.014841
0.014841
0.0150104
0.0150104
0.0151746
0.0151746
0.0153382
0.0153382
0.0155105
0.0155105
0.0156982
0.0156982
0.0159063
0.0159063
0.0161361
0.0161361
0.0163799
0.0163799
0.0166228
0.0166228
0.0168519
0.0168519
0.0170582
0.0170582
0.0172353
0.0172353
0.0173855
0.0173855
0.0175191
0.0175191
0.0176482
0.0176482
0.0177845
0.0177845
0.0179405
0.0179405
0.0181261
0.0181261
0.0183501
0.0183501
0.0186223
0.0186223
0.0189504
0.0189504
0.0193391
0.0193391
0.0197943
0.0197943
0.0203226
0.0203226
0.0209294
0.0209294
0.021622
0.021622
0.0224096
0.0224096
0.0233016
0.0233016
0.0243082
0.0243082
0.0254389
0.0254389
0.0267006
0.0267007
0.0280983
0.0280983
0.0296356
0.0296356
0.0313152
0.0313152
0.0331383
0.0331384
0.0351065
0.0351065
0.0372211
0.0372211
0.0394818
0.0394818
0.0418872
0.0418873
0.0444377
0.0444378
0.0471357
0.0471358
0.0499839
0.049984
0.0529858
0.0529858
0.0561461
0.0561461
0.0594702
0.0594702
0.0629658
0.0629658
0.066644
0.066644
0.0705175
0.0705175
0.0745969
0.0745969
0.0788925
0.0788925
0.0834148
0.0834148
0.0881724
0.0881724
0.0931712
0.0931712
0.0984168
0.0984168
0.103914
0.103914
0.109666
0.109666
0.11568
0.11568
0.12196
0.12196
0.128511
0.128511
0.135341
0.135341
0.142464
0.142464
0.149899
0.149899
0.157666
0.157666
0.165788
0.165788
0.174292
0.174292
0.183204
0.183204
0.192552
0.192552
0.202362
0.202362
0.212661
0.212661
0.223472
0.223472
0.234816
0.234816
0.246708
0.246708
0.259162
0.259162
0.27219
0.27219
0.285799
0.285799
0.299997
0.299997
0.314785
0.314785
0.330169
0.330169
0.346152
0.346152
0.362735
0.362735
0.379922
0.379922
0.397718
0.397718
0.416128
0.416128
0.435156
0.435156
0.454809
0.454809
0.475094
0.475094
0.496018
0.496018
0.517592
0.517592
0.539822
0.539822
0.562721
0.562721
0.586299
0.586299
0.610566
0.610566
0.635529
0.635529
0.661205
0.661205
0.687603
0.687603
0.714733
0.714733
0.742601
0.742601
0.771217
0.771217
0.800586
0.800586
0.830718
0.830718
0.861632
0.861632
0.893332
0.893332
0.925822
0.925822
0.95912
0.95912
0.993236
0.993236
1.02816
1.02816
1.0639
1.0639
1.10044
1.10044
1.13781
1.13781
1.17598
1.17598
1.21495
1.21495
1.25472
1.25472
1.29529
1.29529
1.33661
1.33661
1.37867
1.37867
1.42145
1.42145
1.4649
1.4649
1.50899
1.50899
1.5537
1.5537
1.599
1.599
1.64484
1.64484
1.69116
1.69116
1.73789
1.73789
1.78495
1.78495
1.83229
1.83229
1.87981
1.87981
1.92743
1.92743
1.97507
1.97507
2.02262
2.02262
2.06995
2.06995
2.11699
2.11699
2.16368
2.16368
2.20986
2.20986
2.25542
2.25542
2.30026
2.30026
2.34426
2.34426
2.38724
2.38724
2.42908
2.42908
2.46963
2.46963
2.50871
2.50871
2.54616
2.54616
2.58181
2.58181
2.61552
2.61552
2.64722
2.64722
2.67686
2.67686
2.70433
2.70433
2.72941
2.72941
2.75191
2.75191
2.77177
2.77177
2.78895
2.78895
2.80344
2.80344
2.81545
2.81545
2.82526
2.82526
2.83328
2.83328
2.84017
2.84017
2.8468
2.8468
2.85421
2.85421
2.86374
2.86374
2.8769
2.8769
2.89535
2.89535
2.92092
2.92092
2.95546
2.95546
3.00079
3.00079
3.05845
3.05845
3.12963
3.12963
3.21521
3.21521
3.31545
3.31545
3.4301
3.4301
3.55837
3.55837
3.699
3.699
3.85023
3.85023
4.00997
4.00997
4.17583
4.17583
4.34535
4.34535
4.51601
4.51601
4.68517
4.68517
4.85032
4.85032
5.00909
5.00909
5.15932
5.15932
5.2991
5.2991
5.42682
5.42682
5.54102
5.54102
5.64042
5.64042
5.72419
5.72419
5.7919
5.7919
5.8433
5.8433
5.87812
5.87812
5.89635
5.89635
5.89835
5.89835
5.88452
5.88452
5.85535
5.85535
5.81151
5.81151
5.75378
5.75378
5.68296
5.68296
5.59988
5.59988
5.50544
5.50544
5.40061
5.40061
5.28631
5.28631
5.16346
5.16346
5.03297
5.03297
4.89571
4.89571
4.75248
4.75248
4.60407
4.60407
4.45122
4.45122
4.29461
4.29461
4.13479
4.13479
3.97223
3.97223
3.80735
3.80735
3.64047
3.64047
3.47183
3.47183
3.30159
3.30159
3.12982
3.12982
2.95648
2.95648
2.78145
2.78145
2.60453
2.60453
2.42538
2.42538
2.24356
2.24356
2.05855
2.05855
1.8697
1.8697
1.6763
1.6763
1.47769
1.47769
1.27341
1.27341
1.06381
1.06381
0.851069
0.851069
0.641083
0.641083
0.445268
0.445269
0.279032
0.279032
0.154462
0.154462
0.0733404
0.0733404
0.0281395
0.0281395
0.00763955
0.00763955
0.00107153
0.00107153
9.11975e-05
9.11975e-05
0.0163609
0.0163607
0.0164441
0.0164439
0.0166123
0.0166121
0.0168578
0.0168577
0.0171095
0.0171094
0.0173042
0.0173041
0.0174592
0.0174591
0.0176293
0.0176293
0.017855
0.017855
0.0181487
0.0181487
0.0185191
0.0185191
0.0189671
0.0189671
0.0194677
0.0194678
0.0200007
0.0200008
0.0205827
0.0205827
0.0212388
0.0212388
0.021962
0.021962
0.0227165
0.0227165
0.0234831
0.0234832
0.0242412
0.0242412
0.0249486
0.0249486
0.0255579
0.0255579
0.0260468
0.0260468
0.0264471
0.0264471
0.0268405
0.0268405
0.0273053
0.0273053
0.0278683
0.0278684
0.0285126
0.0285126
0.0292341
0.0292341
0.0300499
0.0300499
0.0309277
0.0309277
0.0317224
0.0317224
0.0322983
0.0322983
0.0325899
0.0325899
0.0325789
0.0325789
0.0322717
0.0322717
0.031719
0.031719
0.0309954
0.0309954
0.0301743
0.0301743
0.0293048
0.0293048
0.0284043
0.0284043
0.0274774
0.0274774
0.026533
0.026533
0.0255913
0.0255913
0.0246787
0.0246787
0.0238159
0.0238159
0.0230162
0.0230162
0.0222857
0.0222858
0.0216207
0.0216208
0.0210071
0.0210071
0.0204284
0.0204284
0.0198724
0.0198724
0.0193352
0.0193352
0.0188162
0.0188162
0.0183198
0.0183198
0.0178605
0.0178605
0.0174557
0.0174557
0.0171097
0.0171097
0.0168136
0.0168136
0.0165514
0.0165514
0.0163085
0.0163085
0.0160837
0.0160837
0.0158928
0.0158928
0.0157522
0.0157523
0.0156694
0.0156694
0.0156438
0.0156438
0.0156654
0.0156654
0.0157061
0.0157061
0.0157216
0.0157216
0.0156702
0.0156702
0.0155291
0.0155291
0.0153054
0.0153054
0.015028
0.015028
0.0147335
0.0147336
0.0144569
0.0144569
0.0142209
0.0142209
0.014038
0.014038
0.0139143
0.0139143
0.0138524
0.0138524
0.0138519
0.0138519
0.0139088
0.0139088
0.0140145
0.0140145
0.0141561
0.0141561
0.01432
0.01432
0.0144938
0.0144938
0.0146684
0.0146684
0.0148411
0.0148411
0.0150105
0.0150105
0.0151746
0.0151746
0.0153383
0.0153383
0.0155105
0.0155105
0.0156982
0.0156982
0.0159063
0.0159063
0.0161361
0.0161361
0.0163798
0.0163798
0.0166228
0.0166228
0.0168519
0.0168519
0.0170581
0.0170581
0.0172352
0.0172352
0.0173853
0.0173853
0.0175189
0.0175189
0.017648
0.017648
0.0177843
0.0177844
0.0179403
0.0179403
0.0181259
0.0181259
0.0183499
0.0183499
0.0186221
0.0186221
0.0189502
0.0189503
0.0193389
0.0193389
0.0197941
0.0197941
0.0203224
0.0203224
0.0209293
0.0209293
0.0216219
0.0216219
0.0224095
0.0224095
0.0233015
0.0233016
0.0243082
0.0243082
0.0254389
0.0254389
0.0267007
0.0267007
0.0280983
0.0280983
0.0296357
0.0296357
0.0313153
0.0313153
0.0331384
0.0331384
0.0351066
0.0351066
0.0372212
0.0372212
0.0394819
0.0394819
0.0418874
0.0418874
0.0444379
0.0444379
0.0471359
0.0471359
0.0499841
0.0499841
0.0529859
0.0529859
0.0561462
0.0561462
0.0594703
0.0594703
0.0629659
0.0629659
0.0666441
0.0666442
0.0705176
0.0705176
0.074597
0.074597
0.0788926
0.0788926
0.0834149
0.083415
0.0881725
0.0881725
0.0931713
0.0931713
0.0984169
0.0984169
0.103914
0.103914
0.109666
0.109666
0.11568
0.11568
0.12196
0.12196
0.128511
0.128511
0.135341
0.135341
0.142464
0.142465
0.149899
0.149899
0.157666
0.157666
0.165788
0.165788
0.174292
0.174292
0.183204
0.183204
0.192552
0.192552
0.202362
0.202362
0.212661
0.212661
0.223472
0.223472
0.234816
0.234816
0.246708
0.246708
0.259162
0.259162
0.27219
0.27219
0.2858
0.2858
0.299997
0.299997
0.314786
0.314786
0.33017
0.33017
0.346152
0.346152
0.362735
0.362735
0.379923
0.379923
0.397719
0.397719
0.416128
0.416128
0.435156
0.435156
0.454809
0.454809
0.475094
0.475094
0.496019
0.496019
0.517592
0.517592
0.539822
0.539822
0.562721
0.562721
0.5863
0.5863
0.610566
0.610566
0.63553
0.63553
0.661205
0.661205
0.687604
0.687604
0.714733
0.714733
0.742602
0.742602
0.771218
0.771218
0.800587
0.800587
0.830719
0.830719
0.861633
0.861633
0.893333
0.893333
0.925823
0.925823
0.959121
0.959121
0.993237
0.993237
1.02816
1.02816
1.0639
1.0639
1.10044
1.10044
1.13781
1.13781
1.17598
1.17598
1.21495
1.21495
1.25472
1.25472
1.29529
1.29529
1.33661
1.33661
1.37867
1.37867
1.42145
1.42145
1.4649
1.4649
1.50899
1.50899
1.5537
1.5537
1.599
1.599
1.64484
1.64484
1.69116
1.69116
1.73789
1.73789
1.78495
1.78495
1.83229
1.83229
1.87981
1.87981
1.92743
1.92743
1.97507
1.97507
2.02262
2.02262
2.06995
2.06995
2.11699
2.11699
2.16368
2.16368
2.20986
2.20986
2.25542
2.25542
2.30026
2.30026
2.34426
2.34426
2.38725
2.38725
2.42908
2.42908
2.46963
2.46963
2.50871
2.50871
2.54616
2.54616
2.58181
2.58181
2.61552
2.61552
2.64722
2.64722
2.67687
2.67687
2.70433
2.70433
2.72941
2.72941
2.75191
2.75191
2.77177
2.77177
2.78895
2.78895
2.80345
2.80345
2.81546
2.81546
2.82526
2.82526
2.83328
2.83328
2.84018
2.84018
2.84681
2.84681
2.85421
2.85421
2.86374
2.86374
2.8769
2.8769
2.89535
2.89535
2.92092
2.92092
2.95547
2.95547
3.00079
3.00079
3.05845
3.05845
3.12964
3.12964
3.21522
3.21522
3.31545
3.31545
3.4301
3.4301
3.55838
3.55838
3.699
3.699
3.85024
3.85024
4.00997
4.00997
4.17584
4.17584
4.34536
4.34536
4.51601
4.51601
4.68518
4.68518
4.85033
4.85033
5.0091
5.0091
5.15932
5.15932
5.2991
5.2991
5.42682
5.42682
5.54102
5.54102
5.64043
5.64043
5.72419
5.72419
5.79191
5.79191
5.8433
5.8433
5.87812
5.87812
5.89636
5.89636
5.89835
5.89835
5.88452
5.88452
5.85536
5.85536
5.81152
5.81152
5.75378
5.75378
5.68296
5.68296
5.59988
5.59988
5.50545
5.50545
5.40061
5.40061
5.28632
5.28632
5.16347
5.16347
5.03298
5.03298
4.89571
4.89571
4.75248
4.75248
4.60407
4.60407
4.45122
4.45122
4.29461
4.29461
4.13479
4.13479
3.97223
3.97223
3.80735
3.80735
3.64047
3.64047
3.47183
3.47183
3.30159
3.30159
3.12982
3.12982
2.95648
2.95648
2.78146
2.78146
2.60453
2.60453
2.42538
2.42538
2.24356
2.24356
2.05855
2.05855
1.8697
1.8697
1.6763
1.6763
1.47769
1.47769
1.27341
1.27341
1.06381
1.06381
0.851069
0.851069
0.641083
0.641083
0.445269
0.445269
0.279032
0.279032
0.154462
0.154462
0.0733405
0.0733405
0.0281395
0.0281395
0.00763956
0.00763956
0.00107153
0.00107153
9.11976e-05
9.11976e-05
)
;

boundaryField
{
    walls
    {
        type            kqRWallFunction;
        value           nonuniform List<scalar> 8(9.11517e-05 9.11517e-05 9.11517e-05 9.11517e-05 9.11975e-05 9.11976e-05 9.11975e-05 9.11976e-05);
    }
    inlet
    {
        type            cyclic;
    }
    outlet
    {
        type            cyclic;
    }
    sides
    {
        type            empty;
    }
}


// ************************************************************************* //
