/*--------------------------------*- C++ -*----------------------------------*\
| =========                 |                                                 |
| \\      /  F ield         | OpenFOAM: The Open Source CFD Toolbox           |
|  \\    /   O peration     | Version:  2012                                  |
|   \\  /    A nd           | Website:  www.openfoam.com                      |
|    \\/     M anipulation  |                                                 |
\*---------------------------------------------------------------------------*/
FoamFile
{
    version     2.0;
    format      ascii;
    class       volScalarField;
    location    "12000";
    object      omega;
}
// * * * * * * * * * * * * * * * * * * * * * * * * * * * * * * * * * * * * * //

dimensions      [0 0 -1 0 0 0 0];


internalField   nonuniform List<scalar> 
2560
(
1.52415e+06
1.52415e+06
265167
265167
89868
89868
42329.6
42329.6
23908.8
23908.8
15084.2
15084.2
10262.3
10262.3
7414.88
7414.88
5657.05
5657.05
4534
4534
3789.23
3789.23
3274.95
3274.95
2905.68
2905.68
2631.17
2631.17
2420.98
2420.98
2256.05
2256.05
2123.98
2123.98
2016.45
2016.45
1927.68
1927.68
1853.54
1853.54
1791.04
1791.04
1737.89
1737.89
1692.38
1692.38
1653.15
1653.15
1619.12
1619.12
1589.43
1589.43
1563.36
1563.36
1540.31
1540.31
1519.77
1519.77
1501.3
1501.3
1484.52
1484.52
1469.09
1469.09
1454.7
1454.7
1441.09
1441.09
1428.01
1428.01
1415.24
1415.24
1402.56
1402.56
1389.8
1389.8
1376.78
1376.78
1363.35
1363.35
1349.34
1349.34
1334.65
1334.65
1319.14
1319.14
1302.71
1302.71
1285.28
1285.28
1266.76
1266.76
1247.1
1247.1
1226.25
1226.25
1204.18
1204.18
1180.9
1180.9
1156.42
1156.42
1130.77
1130.77
1104.02
1104.02
1076.26
1076.26
1047.61
1047.61
1018.2
1018.2
988.216
988.216
957.846
957.846
927.312
927.312
896.852
896.852
866.722
866.722
837.181
837.181
808.49
808.49
780.897
780.897
754.629
754.629
729.877
729.877
706.79
706.79
685.462
685.462
665.928
665.928
648.168
648.168
632.096
632.096
617.58
617.58
604.452
604.452
592.521
592.521
581.586
581.586
571.45
571.45
561.93
561.93
552.863
552.863
544.113
544.113
535.569
535.569
527.143
527.143
518.773
518.773
510.413
510.413
502.036
502.036
493.623
493.623
485.167
485.167
476.666
476.666
468.125
468.125
459.549
459.549
450.946
450.946
442.324
442.324
433.693
433.693
425.061
425.061
416.439
416.439
407.833
407.833
399.254
399.254
390.708
390.708
382.204
382.204
373.749
373.749
365.35
365.35
357.013
357.013
348.747
348.747
340.556
340.556
332.447
332.447
324.426
324.426
316.498
316.498
308.667
308.667
300.94
300.94
293.319
293.319
285.809
285.809
278.414
278.414
271.136
271.136
263.979
263.979
256.945
256.945
250.036
250.036
243.253
243.253
236.599
236.599
230.073
230.073
223.677
223.677
217.411
217.411
211.275
211.275
205.268
205.268
199.391
199.391
193.642
193.642
188.02
188.02
182.525
182.525
177.154
177.154
171.906
171.906
166.779
166.779
161.772
161.772
156.883
156.883
152.109
152.109
147.449
147.449
142.9
142.9
138.462
138.462
134.131
134.131
129.907
129.907
125.786
125.786
121.768
121.768
117.849
117.849
114.029
114.029
110.306
110.306
106.677
106.677
103.14
103.14
99.6947
99.6947
96.3383
96.3383
93.0694
93.0694
89.8865
89.8865
86.7882
86.7882
83.7732
83.7732
80.8403
80.8403
77.9883
77.9883
75.2164
75.2164
72.5236
72.5236
69.9094
69.9094
67.373
67.373
64.9139
64.9139
62.5317
62.5317
60.2261
60.2261
57.9964
57.9964
55.8422
55.8422
53.7627
53.7627
51.7568
51.7568
49.8232
49.8232
47.9603
47.9603
46.1659
46.1659
44.4375
44.4375
42.7724
42.7724
41.1675
41.1675
39.6195
39.6195
38.1253
38.1253
36.6816
36.6816
35.2856
35.2856
33.935
33.935
32.6277
32.6277
31.3621
31.3621
30.1373
30.1373
28.9523
28.9523
27.8066
27.8066
26.6998
26.6998
25.6314
25.6314
24.601
24.601
23.6082
23.6082
22.6522
22.6522
21.732
21.732
20.8464
20.8464
19.9942
19.9942
19.174
19.174
18.3842
18.3842
17.6235
17.6235
16.8907
16.8907
16.1849
16.1849
15.5056
15.5056
14.8524
14.8524
14.2252
14.2252
13.6241
13.6241
13.0494
13.0494
12.5012
12.5012
11.9801
11.9801
11.4864
11.4864
11.0203
11.0203
10.5818
10.5818
10.1707
10.1707
9.78677
9.78677
9.42909
9.42909
9.09657
9.09657
8.78768
8.78768
8.50058
8.50058
8.23329
8.23329
7.98402
7.98402
7.7513
7.7513
7.53397
7.53397
7.33111
7.33111
7.14177
7.14177
6.96491
6.96491
6.79924
6.79924
6.64323
6.64323
6.49505
6.49505
6.35259
6.35259
6.21338
6.21338
6.07485
6.07485
5.93472
5.93472
5.79153
5.79153
5.64498
5.64499
5.49606
5.49606
5.34662
5.34662
5.19885
5.19885
5.0546
5.05461
4.91491
4.91491
4.77974
4.77974
4.64827
4.64827
4.51928
4.51928
4.39172
4.39172
4.26499
4.26499
4.13899
4.13899
4.01398
4.01398
3.89066
3.89066
3.77022
3.77022
3.65436
3.65436
3.54508
3.54508
3.44418
3.44418
3.35283
3.35283
3.27149
3.27149
3.20005
3.20005
3.13794
3.13794
3.08414
3.08414
3.0369
3.0369
2.99348
2.99348
2.9501
2.9501
2.90278
2.90278
2.8489
2.8489
2.78827
2.78827
2.723
2.723
2.65658
2.65658
2.59264
2.59264
2.53371
2.53371
2.48071
2.48071
2.43361
2.43361
2.39174
2.39174
2.35377
2.35377
2.31838
2.31838
2.28537
2.28537
2.25565
2.25565
2.23031
2.23031
2.20987
2.20987
2.19385
2.19385
2.18109
2.18109
2.17064
2.17064
2.162
2.162
2.15506
2.15506
2.15006
2.15006
2.14762
2.14762
2.14847
2.14847
2.15322
2.15322
2.16192
2.16192
2.17415
2.17415
2.1892
2.1892
2.20607
2.20607
2.22359
2.22359
2.24082
2.24082
2.25736
2.25736
2.27301
2.27301
2.28696
2.28696
2.29725
2.29725
2.30105
2.30105
2.29581
2.29581
2.28019
2.28019
2.25408
2.25409
2.21816
2.21816
2.1747
2.1747
2.12834
2.12834
2.08419
2.08419
2.04365
2.04365
2.0061
2.0061
1.97175
1.97175
1.94129
1.94129
1.91383
1.91383
1.88612
1.88612
1.85523
1.85523
1.82016
1.82016
1.78185
1.78185
1.74204
1.74204
1.70214
1.70214
1.66288
1.66288
1.62506
1.62506
1.59026
1.59026
1.55872
1.55872
1.5293
1.5293
1.50142
1.50142
1.47602
1.47602
1.45424
1.45424
1.43617
1.43617
1.42126
1.42126
1.40902
1.40902
1.39805
1.39805
1.38586
1.38586
1.3717
1.37171
1.35856
1.35857
1.34939
1.3494
1.34459
1.3446
1.52415e+06
1.52415e+06
265167
265167
89868
89868
42329.6
42329.6
23908.8
23908.8
15084.2
15084.2
10262.3
10262.3
7414.88
7414.88
5657.05
5657.05
4534
4534
3789.23
3789.23
3274.95
3274.95
2905.68
2905.68
2631.17
2631.17
2420.98
2420.98
2256.05
2256.05
2123.98
2123.98
2016.45
2016.45
1927.68
1927.68
1853.54
1853.54
1791.04
1791.04
1737.89
1737.89
1692.38
1692.38
1653.15
1653.15
1619.12
1619.12
1589.43
1589.43
1563.36
1563.36
1540.31
1540.31
1519.77
1519.77
1501.3
1501.3
1484.52
1484.52
1469.09
1469.09
1454.7
1454.7
1441.09
1441.09
1428.01
1428.01
1415.24
1415.24
1402.56
1402.56
1389.8
1389.8
1376.78
1376.78
1363.35
1363.35
1349.34
1349.34
1334.65
1334.65
1319.14
1319.14
1302.71
1302.71
1285.28
1285.28
1266.76
1266.76
1247.1
1247.1
1226.25
1226.25
1204.18
1204.18
1180.9
1180.9
1156.42
1156.42
1130.77
1130.77
1104.02
1104.02
1076.26
1076.26
1047.61
1047.61
1018.2
1018.2
988.217
988.217
957.847
957.847
927.312
927.312
896.853
896.853
866.722
866.722
837.182
837.182
808.491
808.491
780.898
780.898
754.629
754.629
729.878
729.878
706.79
706.79
685.462
685.462
665.929
665.929
648.169
648.169
632.096
632.096
617.58
617.58
604.452
604.452
592.521
592.521
581.586
581.586
571.45
571.45
561.93
561.93
552.864
552.864
544.113
544.113
535.569
535.569
527.143
527.143
518.773
518.773
510.414
510.414
502.036
502.036
493.623
493.623
485.167
485.167
476.667
476.667
468.125
468.125
459.549
459.549
450.946
450.946
442.324
442.324
433.693
433.693
425.062
425.062
416.439
416.439
407.833
407.833
399.254
399.254
390.708
390.708
382.204
382.204
373.749
373.749
365.35
365.35
357.014
357.014
348.747
348.747
340.556
340.556
332.447
332.447
324.426
324.426
316.498
316.498
308.667
308.667
300.94
300.94
293.319
293.319
285.809
285.809
278.414
278.414
271.136
271.136
263.979
263.979
256.945
256.945
250.036
250.036
243.253
243.253
236.599
236.599
230.073
230.073
223.677
223.677
217.411
217.411
211.275
211.275
205.268
205.268
199.391
199.391
193.642
193.642
188.02
188.02
182.525
182.525
177.154
177.154
171.906
171.906
166.779
166.779
161.772
161.772
156.883
156.883
152.109
152.109
147.449
147.449
142.901
142.901
138.462
138.462
134.131
134.131
129.907
129.907
125.786
125.786
121.768
121.768
117.849
117.849
114.03
114.03
110.306
110.306
106.677
106.677
103.14
103.14
99.6948
99.6948
96.3384
96.3384
93.0695
93.0695
89.8866
89.8866
86.7883
86.7883
83.7733
83.7733
80.8403
80.8403
77.9884
77.9884
75.2164
75.2164
72.5237
72.5237
69.9094
69.9094
67.373
67.373
64.9139
64.9139
62.5318
62.5318
60.2261
60.2261
57.9964
57.9964
55.8422
55.8422
53.7627
53.7627
51.7568
51.7568
49.8233
49.8233
47.9603
47.9603
46.1659
46.1659
44.4375
44.4375
42.7724
42.7724
41.1675
41.1675
39.6196
39.6196
38.1253
38.1253
36.6816
36.6816
35.2856
35.2856
33.935
33.935
32.6277
32.6277
31.3622
31.3622
30.1373
30.1373
28.9523
28.9523
27.8066
27.8066
26.6998
26.6998
25.6314
25.6314
24.6011
24.6011
23.6082
23.6082
22.6522
22.6522
21.732
21.732
20.8464
20.8464
19.9942
19.9942
19.174
19.174
18.3842
18.3842
17.6235
17.6235
16.8907
16.8907
16.1849
16.1849
15.5056
15.5056
14.8524
14.8524
14.2252
14.2252
13.6241
13.6241
13.0494
13.0494
12.5013
12.5013
11.9802
11.9802
11.4864
11.4864
11.0203
11.0203
10.5818
10.5818
10.1708
10.1708
9.78679
9.78679
9.4291
9.4291
9.09658
9.09658
8.78769
8.78769
8.50058
8.50058
8.23329
8.2333
7.98402
7.98402
7.75129
7.75129
7.53397
7.53397
7.3311
7.3311
7.14176
7.14177
6.9649
6.9649
6.79923
6.79923
6.64322
6.64322
6.49505
6.49505
6.35259
6.35259
6.21338
6.21338
6.07485
6.07485
5.93473
5.93473
5.79154
5.79154
5.645
5.645
5.49608
5.49608
5.34665
5.34665
5.19888
5.19888
5.05464
5.05464
4.91494
4.91494
4.77978
4.77978
4.64831
4.64831
4.51932
4.51932
4.39176
4.39176
4.26504
4.26504
4.13904
4.13904
4.01403
4.01403
3.89071
3.89071
3.77027
3.77027
3.65441
3.65441
3.54512
3.54512
3.44421
3.44422
3.35286
3.35286
3.27151
3.27151
3.20006
3.20006
3.13795
3.13795
3.08414
3.08414
3.0369
3.0369
2.99348
2.99348
2.95009
2.9501
2.90279
2.90279
2.84892
2.84892
2.78829
2.78829
2.72303
2.72303
2.65661
2.65661
2.59267
2.59267
2.53374
2.53374
2.48073
2.48073
2.43363
2.43363
2.39176
2.39176
2.35378
2.35378
2.3184
2.3184
2.28539
2.28539
2.25566
2.25566
2.23032
2.23032
2.20987
2.20987
2.19385
2.19385
2.18109
2.18109
2.17064
2.17064
2.162
2.162
2.15505
2.15505
2.15006
2.15006
2.14761
2.14761
2.14845
2.14845
2.1532
2.1532
2.16188
2.16188
2.17411
2.17411
2.18915
2.18915
2.20602
2.20602
2.22353
2.22353
2.24076
2.24076
2.2573
2.2573
2.27295
2.27295
2.2869
2.2869
2.2972
2.2972
2.30102
2.30102
2.29579
2.29579
2.2802
2.2802
2.25411
2.25411
2.2182
2.2182
2.17475
2.17476
2.12839
2.12839
2.08422
2.08422
2.04367
2.04367
2.0061
2.00611
1.97174
1.97174
1.94126
1.94127
1.91379
1.91379
1.88608
1.88608
1.8552
1.8552
1.82015
1.82015
1.78185
1.78185
1.74206
1.74206
1.70216
1.70217
1.66291
1.66291
1.62508
1.62508
1.59027
1.59027
1.55873
1.55873
1.5293
1.5293
1.50142
1.50142
1.47601
1.47601
1.45423
1.45423
1.43615
1.43615
1.42123
1.42123
1.40898
1.40898
1.39802
1.39802
1.38584
1.38584
1.3717
1.37169
1.35855
1.35855
1.34938
1.34936
1.34457
1.34456
1.34435
1.34436
1.34869
1.3487
1.3574
1.35741
1.37013
1.37013
1.38379
1.38379
1.39571
1.39571
1.40657
1.40657
1.41862
1.41862
1.43353
1.43353
1.45176
1.45176
1.47363
1.47363
1.49911
1.49911
1.52713
1.52713
1.55682
1.55682
1.5888
1.5888
1.62405
1.62405
1.66225
1.66225
1.70195
1.70195
1.74237
1.74237
1.78269
1.78269
1.82131
1.82131
1.85645
1.85645
1.88729
1.88729
1.91504
1.91504
1.94277
1.94277
1.97342
1.97342
2.00794
2.00794
2.04568
2.04568
2.08643
2.08643
2.13078
2.13078
2.17752
2.17752
2.22131
2.22131
2.25725
2.25725
2.28302
2.28302
2.29798
2.29798
2.30231
2.30231
2.29782
2.29782
2.28722
2.28722
2.2732
2.2732
2.25765
2.25765
2.24124
2.24124
2.22413
2.22413
2.20671
2.20671
2.18987
2.18987
2.17481
2.17481
2.16256
2.16256
2.15383
2.15383
2.14903
2.14903
2.1481
2.1481
2.15042
2.15042
2.15523
2.15523
2.16194
2.16194
2.17044
2.17044
2.18078
2.18078
2.19332
2.19332
2.20907
2.20907
2.22927
2.22927
2.25435
2.25435
2.28382
2.28382
2.3167
2.3167
2.35204
2.35204
2.38983
2.38983
2.43138
2.43138
2.47808
2.47808
2.53061
2.53061
2.58903
2.58903
2.65254
2.65254
2.71875
2.71875
2.78376
2.78376
2.84381
2.84381
2.8968
2.8968
2.94344
2.94344
2.98659
2.98659
3.03007
3.03007
3.07767
3.07767
3.13208
3.13209
3.19488
3.19488
3.26694
3.26694
3.34874
3.34875
3.44032
3.44032
3.54123
3.54123
3.65038
3.65039
3.76605
3.76605
3.88639
3.88639
4.00964
4.00964
4.13449
4.13449
4.26058
4.26058
4.38766
4.38767
4.51546
4.51546
4.64471
4.64471
4.7768
4.7768
4.91283
4.91283
5.05359
5.0536
5.19928
5.19928
5.34861
5.34862
5.49911
5.49911
5.64857
5.64857
5.79545
5.79545
5.93871
5.93871
6.07875
6.07875
6.21748
6.21748
6.35711
6.35711
6.49986
6.49987
6.64808
6.64808
6.80369
6.80369
6.96839
6.96839
7.1441
7.14411
7.33235
7.33235
7.53402
7.53402
7.75029
7.75029
7.98242
7.98242
8.23145
8.23145
8.49874
8.49874
8.78603
8.78603
9.0951
9.0951
9.42779
9.42779
9.78577
9.78577
10.1701
10.1701
10.5815
10.5815
11.0203
11.0203
11.4866
11.4866
11.9802
11.9802
12.5012
12.5012
13.0494
13.0494
13.6243
13.6243
14.2254
14.2255
14.8525
14.8525
15.5056
15.5056
16.185
16.185
16.891
16.891
17.624
17.624
18.3849
18.3849
19.1745
19.1745
19.9943
19.9943
20.8462
20.8462
21.7314
21.7314
22.6513
22.6513
23.6071
23.6071
24.5998
24.5998
25.6301
25.6301
26.6984
26.6984
27.8052
27.8052
28.9508
28.9508
30.1359
30.1359
31.361
31.361
32.6267
32.6267
33.9338
33.9338
35.2841
35.2841
36.6799
36.6799
38.1237
38.1237
39.6182
39.6182
41.1666
41.1666
42.772
42.772
44.4375
44.4375
46.166
46.166
47.9606
47.9606
49.8236
49.8236
51.7572
51.7572
53.763
53.763
55.8423
55.8423
57.9963
57.9963
60.2258
60.2258
62.5313
62.5313
64.9133
64.9133
67.3721
67.3721
69.9084
69.9084
72.5224
72.5224
75.2149
75.2149
77.9865
77.9865
80.8382
80.8382
83.7707
83.7707
86.7854
86.7854
89.8834
89.8834
93.0659
93.0659
96.3345
96.3345
99.6907
99.6907
103.136
103.136
106.673
106.673
110.303
110.303
114.026
114.026
117.847
117.847
121.766
121.766
125.786
125.786
129.907
129.907
134.133
134.133
138.464
138.464
142.902
142.902
147.451
147.451
152.111
152.111
156.886
156.886
161.776
161.776
166.786
166.786
171.915
171.915
177.164
177.164
182.536
182.536
188.034
188.034
193.657
193.657
199.406
199.406
205.284
205.284
211.291
211.291
217.427
217.427
223.692
223.692
230.087
230.087
236.609
236.609
243.259
243.259
250.036
250.036
256.942
256.942
263.973
263.973
271.129
271.129
278.406
278.406
285.799
285.799
293.308
293.308
300.927
300.927
308.653
308.653
316.483
316.483
324.41
324.41
332.426
332.426
340.531
340.531
348.722
348.722
356.988
356.988
365.326
365.326
373.729
373.729
382.192
382.192
390.703
390.703
399.255
399.255
407.841
407.841
416.449
416.449
425.067
425.067
433.688
433.688
442.3
442.3
450.904
450.904
459.498
459.498
468.076
468.076
476.622
476.622
485.125
485.125
493.581
493.581
501.991
501.991
510.359
510.359
518.707
518.707
527.066
527.066
535.479
535.479
544.016
544.016
552.764
552.764
561.832
561.832
571.36
571.36
581.509
581.509
592.455
592.455
604.393
604.393
617.526
617.526
632.047
632.047
648.124
648.124
665.885
665.885
685.42
685.42
706.75
706.75
729.838
729.838
754.592
754.592
780.864
780.864
808.46
808.46
837.153
837.153
866.69
866.69
896.818
896.818
927.285
927.285
957.832
957.832
988.218
988.218
1018.22
1018.22
1047.65
1047.65
1076.32
1076.32
1104.12
1104.12
1130.9
1130.9
1156.57
1156.57
1181.07
1181.07
1204.36
1204.36
1226.45
1226.45
1247.33
1247.33
1267.01
1267.01
1285.55
1285.55
1303
1303
1319.44
1319.44
1334.96
1334.96
1349.67
1349.67
1363.68
1363.68
1377.12
1377.12
1390.14
1390.14
1402.9
1402.9
1415.57
1415.57
1428.33
1428.33
1441.41
1441.41
1455.01
1455.01
1469.39
1469.39
1484.81
1484.81
1501.59
1501.59
1520.06
1520.06
1540.6
1540.6
1563.66
1563.66
1589.73
1589.73
1619.42
1619.42
1653.44
1653.44
1692.67
1692.67
1738.18
1738.18
1791.32
1791.32
1853.82
1853.82
1927.95
1927.95
2016.72
2016.72
2124.25
2124.25
2256.31
2256.31
2421.24
2421.24
2631.43
2631.43
2905.93
2905.93
3275.18
3275.18
3789.42
3789.42
4534.14
4534.14
5657.11
5657.11
7414.84
7414.84
10262.1
10262.1
15084.1
15084.1
23908.7
23908.7
42329.6
42329.6
89868.2
89868.2
265167
265167
1.52416e+06
1.52416e+06
1.34433
1.34432
1.34867
1.34866
1.35739
1.35739
1.37012
1.37011
1.38378
1.38377
1.39568
1.39568
1.40653
1.40653
1.41859
1.41859
1.43351
1.43351
1.45175
1.45175
1.47362
1.47362
1.49911
1.49911
1.52714
1.52714
1.55683
1.55683
1.58881
1.58882
1.62408
1.62408
1.66228
1.66228
1.70197
1.70198
1.74238
1.74239
1.7827
1.7827
1.82131
1.82131
1.85643
1.85643
1.88726
1.88726
1.91501
1.91501
1.94275
1.94275
1.97341
1.97341
2.00795
2.00795
2.0457
2.0457
2.08646
2.08646
2.13083
2.13083
2.17757
2.17757
2.22135
2.22135
2.25728
2.25728
2.28303
2.28303
2.29796
2.29796
2.30228
2.30228
2.29777
2.29777
2.28716
2.28716
2.27315
2.27315
2.25759
2.25759
2.24118
2.24118
2.22408
2.22408
2.20666
2.20666
2.18982
2.18982
2.17477
2.17477
2.16252
2.16252
2.15381
2.15381
2.14902
2.14902
2.14809
2.14809
2.15041
2.15041
2.15522
2.15522
2.16194
2.16194
2.17043
2.17044
2.18077
2.18077
2.19332
2.19332
2.20907
2.20907
2.22928
2.22928
2.25436
2.25436
2.28383
2.28383
2.31671
2.31672
2.35205
2.35206
2.38985
2.38985
2.4314
2.4314
2.4781
2.4781
2.53064
2.53064
2.58906
2.58906
2.65257
2.65257
2.71878
2.71878
2.78379
2.78379
2.84383
2.84383
2.89681
2.89681
2.94344
2.94344
2.98658
2.98658
3.03006
3.03006
3.07767
3.07767
3.13209
3.13209
3.19489
3.19489
3.26696
3.26697
3.34877
3.34877
3.44036
3.44036
3.54127
3.54127
3.65043
3.65043
3.7661
3.7661
3.88644
3.88644
4.00969
4.00969
4.13454
4.13454
4.26062
4.26062
4.38771
4.38771
4.51551
4.51551
4.64475
4.64475
4.77684
4.77684
4.91286
4.91287
5.05363
5.05363
5.19931
5.19932
5.34864
5.34864
5.49913
5.49914
5.64859
5.64859
5.79547
5.79547
5.93872
5.93872
6.07875
6.07875
6.21748
6.21748
6.35711
6.35711
6.49986
6.49986
6.64807
6.64807
6.80368
6.80368
6.96838
6.96838
7.1441
7.1441
7.33234
7.33234
7.53402
7.53402
7.75029
7.75029
7.98242
7.98242
8.23145
8.23145
8.49874
8.49874
8.78604
8.78604
9.09511
9.09511
9.4278
9.4278
9.78579
9.78579
10.1701
10.1701
10.5815
10.5815
11.0203
11.0203
11.4866
11.4866
11.9803
11.9803
12.5013
12.5013
13.0494
13.0494
13.6244
13.6244
14.2255
14.2255
14.8525
14.8525
15.5057
15.5057
16.185
16.185
16.891
16.891
17.6241
17.6241
18.3849
18.3849
19.1745
19.1745
19.9944
19.9944
20.8462
20.8462
21.7315
21.7315
22.6513
22.6513
23.6071
23.6071
24.5998
24.5998
25.6301
25.6301
26.6984
26.6984
27.8052
27.8052
28.9508
28.9508
30.1359
30.1359
31.361
31.361
32.6267
32.6267
33.9339
33.9339
35.2842
35.2842
36.6799
36.6799
38.1237
38.1237
39.6182
39.6182
41.1666
41.1666
42.772
42.772
44.4375
44.4375
46.166
46.166
47.9606
47.9606
49.8236
49.8236
51.7572
51.7572
53.763
53.763
55.8423
55.8423
57.9963
57.9963
60.2258
60.2258
62.5313
62.5313
64.9133
64.9133
67.3722
67.3722
69.9084
69.9084
72.5224
72.5224
75.2149
75.2149
77.9866
77.9866
80.8382
80.8382
83.7708
83.7708
86.7855
86.7855
89.8834
89.8834
93.066
93.066
96.3346
96.3346
99.6908
99.6908
103.136
103.136
106.673
106.673
110.303
110.303
114.026
114.026
117.847
117.847
121.766
121.766
125.786
125.786
129.907
129.907
134.133
134.133
138.464
138.464
142.902
142.902
147.451
147.451
152.111
152.111
156.886
156.886
161.776
161.776
166.786
166.786
171.915
171.915
177.164
177.164
182.537
182.537
188.034
188.034
193.657
193.657
199.406
199.406
205.284
205.284
211.291
211.291
217.427
217.427
223.692
223.692
230.087
230.087
236.609
236.609
243.259
243.259
250.036
250.036
256.942
256.942
263.973
263.973
271.129
271.129
278.406
278.406
285.799
285.799
293.308
293.308
300.927
300.927
308.653
308.653
316.483
316.483
324.41
324.41
332.427
332.427
340.531
340.531
348.722
348.722
356.989
356.989
365.326
365.326
373.729
373.729
382.192
382.192
390.703
390.703
399.256
399.256
407.841
407.841
416.449
416.449
425.067
425.067
433.688
433.688
442.3
442.3
450.904
450.904
459.498
459.498
468.076
468.076
476.622
476.622
485.125
485.125
493.582
493.582
501.991
501.991
510.359
510.359
518.707
518.707
527.066
527.066
535.479
535.479
544.016
544.016
552.764
552.764
561.832
561.832
571.361
571.361
581.509
581.509
592.455
592.455
604.394
604.394
617.526
617.526
632.047
632.047
648.124
648.124
665.885
665.885
685.42
685.42
706.75
706.75
729.839
729.839
754.593
754.593
780.865
780.865
808.461
808.461
837.153
837.153
866.69
866.69
896.819
896.819
927.285
927.285
957.832
957.832
988.218
988.218
1018.22
1018.22
1047.65
1047.65
1076.33
1076.33
1104.12
1104.12
1130.9
1130.9
1156.57
1156.57
1181.07
1181.07
1204.36
1204.36
1226.45
1226.45
1247.33
1247.33
1267.01
1267.01
1285.55
1285.55
1303
1303
1319.44
1319.44
1334.96
1334.96
1349.67
1349.67
1363.68
1363.68
1377.12
1377.12
1390.14
1390.14
1402.9
1402.9
1415.57
1415.57
1428.33
1428.33
1441.41
1441.41
1455.01
1455.01
1469.39
1469.39
1484.81
1484.81
1501.59
1501.59
1520.06
1520.06
1540.6
1540.6
1563.66
1563.66
1589.73
1589.73
1619.42
1619.42
1653.44
1653.44
1692.67
1692.67
1738.18
1738.18
1791.32
1791.32
1853.82
1853.82
1927.95
1927.95
2016.72
2016.72
2124.25
2124.25
2256.31
2256.31
2421.24
2421.24
2631.43
2631.43
2905.93
2905.93
3275.18
3275.18
3789.42
3789.42
4534.14
4534.14
5657.11
5657.11
7414.84
7414.84
10262.1
10262.1
15084.1
15084.1
23908.7
23908.7
42329.6
42329.6
89868.2
89868.2
265167
265167
1.52416e+06
1.52416e+06
)
;

boundaryField
{
    walls
    {
        blending        binomial2;
        n               2;
        beta1           0.075;
        type            omegaWallFunction;
        value           nonuniform List<scalar> 8(1.52415e+06 1.52415e+06 1.52415e+06 1.52415e+06 1.52416e+06 1.52416e+06 1.52416e+06 1.52416e+06);
    }
    inlet
    {
        type            cyclic;
    }
    outlet
    {
        type            cyclic;
    }
    sides
    {
        type            empty;
    }
}


// ************************************************************************* //
