/*--------------------------------*- C++ -*----------------------------------*\
| =========                 |                                                 |
| \\      /  F ield         | OpenFOAM: The Open Source CFD Toolbox           |
|  \\    /   O peration     | Version:  2012                                  |
|   \\  /    A nd           | Website:  www.openfoam.com                      |
|    \\/     M anipulation  |                                                 |
\*---------------------------------------------------------------------------*/
FoamFile
{
    version     2.0;
    format      ascii;
    class       surfaceScalarField;
    location    "12000";
    object      phi;
}
// * * * * * * * * * * * * * * * * * * * * * * * * * * * * * * * * * * * * * //

dimensions      [0 3 -1 0 0 0 0];
oriented        oriented;


internalField   nonuniform List<scalar> 
5116
(
2.34823e-07
-2.40143e-12
1.72853e-13
-6.31394e-14
1.18152e-13
7.16727e-07
-2.76285e-12
2.69912e-13
-1.63818e-13
1.84579e-13
1.21816e-06
-3.13681e-12
2.81176e-13
-2.66379e-13
1.92364e-13
1.73968e-06
-3.51976e-12
2.90906e-13
-3.69736e-13
1.99054e-13
2.28186e-06
-3.91106e-12
2.94652e-13
-4.77366e-13
2.0162e-13
2.84519e-06
-4.2876e-12
2.84783e-13
-5.80304e-13
1.94865e-13
3.43017e-06
-4.62782e-12
2.55619e-13
-6.74161e-13
1.74909e-13
4.03727e-06
-4.91168e-12
2.12106e-13
-7.54576e-13
1.45134e-13
4.66699e-06
-5.1344e-12
1.67375e-13
-8.15783e-13
1.14526e-13
5.31995e-06
-5.30778e-12
1.30672e-13
-8.64174e-13
8.94122e-14
5.99686e-06
-5.4454e-12
1.03734e-13
-9.014e-13
7.09799e-14
6.69864e-06
-5.55745e-12
8.46809e-14
-9.32606e-13
5.79424e-14
7.42641e-06
-5.65185e-12
7.11793e-14
-9.57948e-13
4.87038e-14
8.18146e-06
-5.73308e-12
6.14378e-14
-9.8068e-13
4.2038e-14
8.96536e-06
-5.80507e-12
5.42486e-14
-9.99872e-13
3.71187e-14
9.77986e-06
-5.8696e-12
4.88248e-14
-1.01803e-12
3.34073e-14
1.06269e-05
-5.92886e-12
4.46526e-14
-1.03376e-12
3.05522e-14
1.15088e-05
-5.98352e-12
4.13907e-14
-1.04922e-12
2.832e-14
1.2428e-05
-6.03505e-12
3.88072e-14
-1.06281e-12
2.65521e-14
1.33871e-05
-6.08352e-12
3.67413e-14
-1.07655e-12
2.51383e-14
1.4389e-05
-6.13009e-12
3.50789e-14
-1.08879e-12
2.40005e-14
1.54367e-05
-6.17456e-12
3.37368e-14
-1.10144e-12
2.3082e-14
1.65334e-05
-6.21794e-12
3.26544e-14
-1.11278e-12
2.23411e-14
1.76824e-05
-6.25979e-12
3.1786e-14
-1.12471e-12
2.17465e-14
1.88873e-05
-6.30111e-12
3.10966e-14
-1.13548e-12
2.12745e-14
2.01514e-05
-6.34131e-12
3.05597e-14
-1.14695e-12
2.09069e-14
2.14783e-05
-6.38141e-12
3.01546e-14
-1.15736e-12
2.06294e-14
2.28715e-05
-6.42068e-12
2.98654e-14
-1.16858e-12
2.0431e-14
2.43343e-05
-6.46016e-12
2.96792e-14
-1.1788e-12
2.03032e-14
2.58701e-05
-6.49904e-12
2.9586e-14
-1.18991e-12
2.02391e-14
2.74822e-05
-6.53843e-12
2.95785e-14
-1.20008e-12
2.02335e-14
2.91734e-05
-6.57738e-12
2.96505e-14
-1.21119e-12
2.02822e-14
3.09466e-05
-6.61708e-12
2.97974e-14
-1.22142e-12
2.03822e-14
3.28043e-05
-6.6565e-12
3.00159e-14
-1.23264e-12
2.05311e-14
3.47487e-05
-6.69693e-12
3.03037e-14
-1.24305e-12
2.07275e-14
3.67819e-05
-6.73718e-12
3.06594e-14
-1.25447e-12
2.09702e-14
3.89054e-05
-6.7787e-12
3.10823e-14
-1.26514e-12
2.12589e-14
4.11205e-05
-6.82013e-12
3.15725e-14
-1.27684e-12
2.15936e-14
4.3428e-05
-6.86312e-12
3.21307e-14
-1.28789e-12
2.19747e-14
4.58283e-05
-6.90609e-12
3.27581e-14
-1.29996e-12
2.24032e-14
4.83213e-05
-6.95093e-12
3.34567e-14
-1.31148e-12
2.28803e-14
5.09065e-05
-6.99585e-12
3.42292e-14
-1.32405e-12
2.34078e-14
5.35826e-05
-7.04294e-12
3.50785e-14
-1.33616e-12
2.39879e-14
5.63479e-05
-7.09023e-12
3.60082e-14
-1.34933e-12
2.46229e-14
5.91997e-05
-7.14e-12
3.70229e-14
-1.36212e-12
2.53159e-14
6.2135e-05
-7.19003e-12
3.81272e-14
-1.37593e-12
2.60703e-14
6.51495e-05
-7.24296e-12
3.9327e-14
-1.38953e-12
2.68898e-14
6.82382e-05
-7.2962e-12
4.06288e-14
-1.40402e-12
2.77788e-14
7.13951e-05
-7.35283e-12
4.20382e-14
-1.41858e-12
2.87419e-14
7.46131e-05
-7.41036e-12
4.35645e-14
-1.43448e-12
2.97842e-14
7.7884e-05
-7.47141e-12
4.52149e-14
-1.45022e-12
3.09115e-14
8.11983e-05
-7.53436e-12
4.69968e-14
-1.46812e-12
3.21297e-14
8.45454e-05
-7.60051e-12
4.89232e-14
-1.48519e-12
3.34453e-14
8.79131e-05
-7.66895e-12
5.10028e-14
-1.50451e-12
3.4864e-14
9.12885e-05
-7.74083e-12
5.32424e-14
-1.52292e-12
3.63929e-14
9.46569e-05
-7.81475e-12
5.56504e-14
-1.54308e-12
3.80392e-14
9.80027e-05
-7.89322e-12
5.82376e-14
-1.56303e-12
3.98076e-14
0.000101309
-7.97375e-12
6.10143e-14
-1.58442e-12
4.1703e-14
0.000104559
-8.0601e-12
6.39824e-14
-1.60643e-12
4.3729e-14
0.000107735
-8.14937e-12
6.71421e-14
-1.63044e-12
4.58868e-14
0.000110817
-8.24474e-12
7.04927e-14
-1.65489e-12
4.81754e-14
0.000113789
-8.345e-12
7.40266e-14
-1.68297e-12
5.05892e-14
0.000116631
-8.45031e-12
7.77289e-14
-1.71005e-12
5.31197e-14
0.000119327
-8.56212e-12
8.15853e-14
-1.74207e-12
5.57517e-14
0.000121861
-8.67788e-12
8.55684e-14
-1.77165e-12
5.8468e-14
0.00012422
-8.79999e-12
8.9637e-14
-1.80594e-12
6.12481e-14
0.000126392
-8.92641e-12
9.37615e-14
-1.8379e-12
6.40664e-14
0.000128367
-9.05755e-12
9.79095e-14
-1.8729e-12
6.68985e-14
0.000130141
-9.19516e-12
1.02044e-13
-1.9076e-12
6.97209e-14
0.00013171
-9.33533e-12
1.06141e-13
-1.94323e-12
7.25169e-14
0.000133077
-9.48459e-12
1.10184e-13
-1.98124e-12
7.52737e-14
0.000134246
-9.63473e-12
1.14168e-13
-2.01863e-12
7.79893e-14
0.000135225
-9.79579e-12
1.18096e-13
-2.06031e-12
8.06699e-14
0.000136025
-9.95654e-12
1.2199e-13
-2.1003e-12
8.33263e-14
0.00013666
-1.01293e-11
1.25875e-13
-2.14567e-12
8.59783e-14
0.000137145
-1.03014e-11
1.2979e-13
-2.18906e-12
8.86468e-14
0.000137496
-1.04858e-11
1.33764e-13
-2.2379e-12
9.13571e-14
0.00013773
-1.06707e-11
1.37829e-13
-2.28583e-12
9.41331e-14
0.000137862
-1.08669e-11
1.42024e-13
-2.33804e-12
9.69979e-14
0.000137908
-1.10656e-11
1.46384e-13
-2.39098e-12
9.99715e-14
0.000137882
-1.12742e-11
1.50935e-13
-2.44625e-12
1.03075e-13
0.000137796
-1.14867e-11
1.55704e-13
-2.50332e-12
1.06324e-13
0.00013766
-1.17083e-11
1.60712e-13
-2.5615e-12
1.09734e-13
0.000137483
-1.1935e-11
1.65973e-13
-2.62208e-12
1.1332e-13
0.000137272
-1.2171e-11
1.71503e-13
-2.68346e-12
1.17094e-13
0.000137032
-1.24137e-11
1.77325e-13
-2.7484e-12
1.21067e-13
0.000136769
-1.26658e-11
1.83459e-13
-2.81366e-12
1.25249e-13
0.000136485
-1.29265e-11
1.89916e-13
-2.88367e-12
1.29652e-13
0.000136183
-1.31969e-11
1.96716e-13
-2.95343e-12
1.34286e-13
0.000135865
-1.34769e-11
2.03875e-13
-3.02835e-12
1.39162e-13
0.000135532
-1.37673e-11
2.11402e-13
-3.10306e-12
1.44292e-13
0.000135185
-1.40672e-11
2.19315e-13
-3.18215e-12
1.4969e-13
0.000134826
-1.43798e-11
2.27638e-13
-3.26243e-12
1.55366e-13
0.000134456
-1.47011e-11
2.36386e-13
-3.34542e-12
1.61335e-13
0.000134074
-1.50387e-11
2.4559e-13
-3.43226e-12
1.67608e-13
0.000133683
-1.53856e-11
2.55282e-13
-3.52159e-12
1.74202e-13
0.000133282
-1.57512e-11
2.65461e-13
-3.61612e-12
1.81136e-13
0.000132873
-1.61286e-11
2.76144e-13
-3.71472e-12
1.88424e-13
0.000132456
-1.6525e-11
2.87372e-13
-3.81772e-12
1.96085e-13
0.000132032
-1.69348e-11
2.99194e-13
-3.92535e-12
2.04134e-13
0.000131603
-1.73644e-11
3.11627e-13
-4.0369e-12
2.12592e-13
0.000131168
-1.78085e-11
3.24666e-13
-4.15293e-12
2.21486e-13
0.00013073
-1.82745e-11
3.38375e-13
-4.27378e-12
2.30831e-13
0.000130288
-1.87572e-11
3.52806e-13
-4.39992e-12
2.4065e-13
0.000129843
-1.92638e-11
3.67951e-13
-4.53135e-12
2.50973e-13
0.000129397
-1.97894e-11
3.83866e-13
-4.66912e-12
2.61822e-13
0.000128949
-2.03406e-11
4.00609e-13
-4.8122e-12
2.7322e-13
0.000128501
-2.09118e-11
4.1821e-13
-4.96082e-12
2.852e-13
0.000128052
-2.15121e-11
4.3669e-13
-5.11659e-12
2.97791e-13
0.000127605
-2.21322e-11
4.56102e-13
-5.27606e-12
3.11027e-13
0.000127158
-2.27871e-11
4.76536e-13
-5.44615e-12
3.24931e-13
0.000126712
-2.34634e-11
4.98025e-13
-5.61955e-12
3.39542e-13
0.000126268
-2.41788e-11
5.20592e-13
-5.80575e-12
3.54902e-13
0.000125826
-2.49197e-11
5.44283e-13
-5.99727e-12
3.71047e-13
0.000125387
-2.57018e-11
5.69183e-13
-6.20136e-12
3.88017e-13
0.00012495
-2.65152e-11
5.95391e-13
-6.41408e-12
4.05848e-13
0.000124516
-2.73704e-11
6.22938e-13
-6.63717e-12
4.24588e-13
0.000124085
-2.82637e-11
6.51881e-13
-6.87304e-12
4.44291e-13
0.000123657
-2.91987e-11
6.82316e-13
-7.11638e-12
4.65002e-13
0.000123232
-3.01779e-11
7.14336e-13
-7.37539e-12
4.86767e-13
0.000122811
-3.1201e-11
7.47995e-13
-7.64047e-12
5.09648e-13
0.000122393
-3.22713e-11
7.83379e-13
-7.92112e-12
5.33711e-13
0.000121978
-3.33913e-11
8.20553e-13
-8.21042e-12
5.59014e-13
0.000121567
-3.45608e-11
8.5961e-13
-8.51374e-12
5.85625e-13
0.00012116
-3.57891e-11
9.00776e-13
-8.83064e-12
6.13602e-13
0.000120757
-3.70716e-11
9.44093e-13
-9.16165e-12
6.43028e-13
0.000120357
-3.84213e-11
9.89668e-13
-9.50988e-12
6.73983e-13
0.000119962
-3.98317e-11
1.03759e-12
-9.87414e-12
7.06555e-13
0.000119571
-4.13155e-11
1.08797e-12
-1.02574e-11
7.40844e-13
0.000119185
-4.28671e-11
1.14109e-12
-1.06586e-11
7.76921e-13
0.000118804
-4.44993e-11
1.19698e-12
-1.10798e-11
8.14901e-13
0.000118429
-4.62068e-11
1.25584e-12
-1.15214e-11
8.54896e-13
0.000118061
-4.80026e-11
1.31785e-12
-1.19847e-11
8.97013e-13
0.0001177
-4.98824e-11
1.3832e-12
-1.24709e-11
9.41382e-13
0.000117346
-5.18595e-11
1.45206e-12
-1.29805e-11
9.88129e-13
0.000117001
-5.39302e-11
1.5246e-12
-1.35163e-11
1.0374e-12
0.000116666
-5.61082e-11
1.60111e-12
-1.40781e-11
1.08933e-12
0.00011634
-5.8391e-11
1.68179e-12
-1.46697e-11
1.14408e-12
0.000116024
-6.07923e-11
1.7669e-12
-1.52894e-11
1.20183e-12
0.00011572
-6.33102e-11
1.85672e-12
-1.59429e-11
1.26275e-12
0.000115428
-6.59595e-11
1.95149e-12
-1.66276e-11
1.32703e-12
0.000115149
-6.87376e-11
2.05154e-12
-1.73494e-11
1.39487e-12
0.000114884
-7.16624e-11
2.15719e-12
-1.81072e-11
1.46651e-12
0.000114633
-7.473e-11
2.2688e-12
-1.89051e-11
1.54216e-12
0.000114399
-7.79626e-11
2.38679e-12
-1.9745e-11
1.62208e-12
0.000114181
-8.13556e-11
2.5115e-12
-2.06294e-11
1.70653e-12
0.000113983
-8.49324e-11
2.64334e-12
-2.15613e-11
1.7958e-12
0.000113803
-8.86895e-11
2.78274e-12
-2.2543e-11
1.89018e-12
0.000113646
-9.2652e-11
2.93021e-12
-2.35772e-11
1.99001e-12
0.000113511
-9.68169e-11
3.08629e-12
-2.4667e-11
2.09561e-12
0.0001134
-1.0121e-10
3.25149e-12
-2.58155e-11
2.20735e-12
0.000113316
-1.05833e-10
3.4264e-12
-2.70259e-11
2.3256e-12
0.000113259
-1.10711e-10
3.61159e-12
-2.83011e-11
2.45078e-12
0.000113232
-1.15851e-10
3.80771e-12
-2.96473e-11
2.58326e-12
0.000113236
-1.21275e-10
4.01533e-12
-3.10643e-11
2.72356e-12
0.000113273
-1.26996e-10
4.23536e-12
-3.25614e-11
2.872e-12
0.000113343
-1.33035e-10
4.46825e-12
-3.4135e-11
3.02927e-12
0.000113449
-1.39405e-10
4.71514e-12
-3.57952e-11
3.1955e-12
0.000113591
-1.46132e-10
4.97595e-12
-3.75439e-11
3.37171e-12
0.000113768
-1.53226e-10
5.25244e-12
-3.93798e-11
3.5576e-12
0.00011398
-1.60728e-10
5.54441e-12
-4.13224e-11
3.75493e-12
0.000114225
-1.6863e-10
5.85438e-12
-4.3346e-11
3.96231e-12
0.0001145
-1.77009e-10
6.18014e-12
-4.55064e-11
4.18325e-12
0.000114801
-1.85806e-10
6.52725e-12
-4.77298e-11
4.41376e-12
0.000115125
-1.95168e-10
6.88962e-12
-5.0134e-11
4.66154e-12
0.000115467
-2.04951e-10
7.27968e-12
-5.25688e-11
4.91627e-12
0.000115822
-2.15416e-10
7.6808e-12
-5.52515e-11
5.19564e-12
0.000116187
-2.26268e-10
8.12091e-12
-5.79036e-11
5.47428e-12
0.000116558
-2.37976e-10
8.55964e-12
-6.09106e-11
5.79446e-12
0.000116934
-2.49972e-10
9.0651e-12
-6.37665e-11
6.09123e-12
0.000117316
-2.63044e-10
9.5348e-12
-6.71621e-11
6.47089e-12
0.000117705
-2.76227e-10
1.01354e-11
-7.01661e-11
6.768e-12
0.000118105
-2.90859e-10
1.06089e-11
-7.4079e-11
7.24672e-12
0.000118522
-3.05339e-10
1.1369e-11
-7.70889e-11
7.49533e-12
0.000118962
-3.21562e-10
1.1766e-11
-8.17362e-11
8.1675e-12
0.00011943
-3.37365e-10
1.28375e-11
-8.44273e-11
8.23074e-12
0.000119931
-3.56101e-10
1.29403e-11
-9.03289e-11
9.33196e-12
0.00012047
-3.72951e-10
1.47005e-11
-9.19952e-11
8.85001e-12
0.00012105
-3.93236e-10
1.393e-11
-1.00342e-10
1.09772e-11
0.000121673
-4.10861e-10
1.73456e-11
-9.92984e-11
9.00186e-12
0.00012234
-4.29835e-10
1.41624e-11
-1.13052e-10
1.37131e-11
0.00012305
-4.51918e-10
2.17687e-11
-1.05081e-10
7.72834e-12
0.0001238
-4.62511e-10
1.20685e-11
-1.3196e-10
1.91477e-11
0.000124586
-5.15188e-10
3.06181e-11
-1.05443e-10
2.4221e-12
0.000125405
-4.97091e-10
3.34154e-12
-1.66209e-10
3.1631e-11
0.000126253
-6.1848e-10
5.11191e-11
-8.70391e-11
-1.40956e-11
0.000127126
-5.13619e-10
-2.39575e-11
-2.37995e-10
6.31526e-11
0.000128023
-6.68447e-10
6.32051e-11
-1.31852e-10
-2.17046e-11
0.000128943
-3.4606e-10
-9.38555e-11
-5.01548e-10
1.37801e-10
0.000129889
-9.3591e-12
-1.0239e-10
-9.03285e-10
1.48931e-10
0.000130866
-1.2891e-10
5.61157e-11
-8.33527e-10
-6.81753e-12
0.000131882
1.20576e-11
-3.60327e-11
-1.04838e-09
8.82566e-11
0.000132943
-1.4496e-10
7.20914e-11
-9.42212e-10
-1.67593e-11
0.000134055
-1.01725e-10
2.64989e-12
-1.05329e-09
5.5976e-11
0.000135223
-1.86932e-10
5.16417e-11
-1.02126e-09
1.04776e-11
0.000136452
-1.89508e-10
2.24821e-11
-1.08619e-09
4.33323e-11
0.000137746
-2.46957e-10
4.48059e-11
-1.08941e-09
2.4912e-11
0.000139107
-2.73199e-10
3.37505e-11
-1.13569e-09
4.00794e-11
0.000140536
-3.23134e-10
4.44526e-11
-1.15671e-09
3.36947e-11
0.000142031
-3.63261e-10
4.13611e-11
-1.19728e-09
4.13043e-11
0.00014358
-4.14256e-10
4.71994e-11
-1.2286e-09
4.01686e-11
0.000145173
-4.63898e-10
4.75458e-11
-1.2695e-09
4.47014e-11
0.000146793
-5.19385e-10
5.14556e-11
-1.30806e-09
4.5831e-11
0.000148421
-5.76614e-10
5.32572e-11
-1.35207e-09
4.91754e-11
0.000150036
-6.3776e-10
5.64347e-11
-1.39667e-09
5.12523e-11
0.000151622
-7.01708e-10
5.8841e-11
-1.44506e-09
5.41782e-11
0.000153164
-7.68878e-10
6.1751e-11
-1.49523e-09
5.66463e-11
0.000154655
-8.39084e-10
6.43806e-11
-1.54856e-09
5.94349e-11
0.000156102
-9.12237e-10
6.71874e-11
-1.60416e-09
6.20608e-11
0.000157515
-9.88411e-10
6.98842e-11
-1.66265e-09
6.47993e-11
0.000158907
-1.06742e-09
7.26307e-11
-1.72361e-09
6.74726e-11
0.000160288
-1.14934e-09
7.53196e-11
-1.78732e-09
7.01728e-11
0.000161657
-1.23402e-09
7.80027e-11
-1.85359e-09
7.28401e-11
0.000163013
-1.32148e-09
8.06397e-11
-1.92252e-09
7.54988e-11
0.000164349
-1.4116e-09
8.32487e-11
-1.99404e-09
7.81257e-11
0.000165654
-1.50438e-09
8.58214e-11
-2.06815e-09
8.07409e-11
0.000166919
-1.59976e-09
8.83722e-11
-2.14485e-09
8.33359e-11
0.000168135
-1.69774e-09
9.09128e-11
-2.22415e-09
8.59359e-11
0.000169288
-1.7983e-09
9.34666e-11
-2.30605e-09
8.85513e-11
0.000170371
-1.90152e-09
9.60603e-11
-2.39062e-09
9.12089e-11
0.000171384
-2.00742e-09
9.87275e-11
-2.47791e-09
9.39516e-11
0.000172342
-2.11614e-09
1.01497e-10
-2.56806e-09
9.67986e-11
0.000173277
-2.22777e-09
1.04393e-10
-2.66113e-09
9.97707e-11
0.000174229
-2.34247e-09
1.07419e-10
-2.75729e-09
1.02878e-10
0.000175239
-2.46035e-09
1.10566e-10
-2.85664e-09
1.06107e-10
0.000176335
-2.5815e-09
1.13803e-10
-2.95924e-09
1.09426e-10
0.000177526
-2.70599e-09
1.17094e-10
-3.06524e-09
1.12816e-10
0.000178799
-2.83379e-09
1.20401e-10
-3.1746e-09
1.16236e-10
0.000180112
-2.96497e-09
1.237e-10
-3.28737e-09
1.19645e-10
0.000181418
-3.09947e-09
1.26987e-10
-3.40348e-09
1.23045e-10
0.000182687
-3.23731e-09
1.3027e-10
-3.52299e-09
1.26452e-10
0.000183912
-3.37848e-09
1.33573e-10
-3.64591e-09
1.29892e-10
0.000185113
-3.52302e-09
1.36914e-10
-3.77229e-09
1.33378e-10
0.000186313
-3.67101e-09
1.40307e-10
-3.90217e-09
1.36924e-10
0.000187535
-3.82247e-09
1.43749e-10
-4.03559e-09
1.40517e-10
0.000188799
-3.97747e-09
1.4723e-10
-4.1726e-09
1.44158e-10
0.000190138
-4.13601e-09
1.50724e-10
-4.31319e-09
1.47816e-10
0.000191595
-4.29806e-09
1.54172e-10
-4.45733e-09
1.51436e-10
0.000193225
-4.46352e-09
1.57523e-10
-4.60495e-09
1.54977e-10
0.00019508
-4.63219e-09
1.60688e-10
-4.75586e-09
1.58337e-10
0.000197175
-4.80384e-09
1.63601e-10
-4.90984e-09
1.61459e-10
0.000199485
-4.97813e-09
1.66215e-10
-5.0666e-09
1.64289e-10
0.000201941
-5.15478e-09
1.68516e-10
-5.22583e-09
1.66812e-10
0.000204439
-5.33347e-09
1.70532e-10
-5.38727e-09
1.69072e-10
0.000206867
-5.51399e-09
1.72312e-10
-5.55068e-09
1.71098e-10
0.00020912
-5.69618e-09
1.73933e-10
-5.71591e-09
1.72967e-10
0.000211095
-5.88e-09
1.75506e-10
-5.8829e-09
1.74796e-10
0.000212698
-6.06555e-09
1.77174e-10
-6.05174e-09
1.7673e-10
0.000213902
-6.25315e-09
1.79113e-10
-6.22267e-09
1.78936e-10
0.000214788
-6.44324e-09
1.81472e-10
-6.3961e-09
1.81575e-10
0.000215533
-6.63641e-09
1.84367e-10
-6.57252e-09
1.84757e-10
0.000216353
-6.83317e-09
1.8775e-10
-6.75238e-09
1.88437e-10
0.000217439
-7.03395e-09
1.91498e-10
-6.93607e-09
1.92506e-10
0.000218966
-7.23887e-09
1.9539e-10
-7.12369e-09
1.96735e-10
0.000221055
-7.44798e-09
1.99243e-10
-7.3152e-09
2.00941e-10
0.000223672
-7.66098e-09
2.02843e-10
-7.51035e-09
2.04911e-10
0.000226572
-7.87767e-09
2.06183e-10
-7.70891e-09
2.08641e-10
0.0002294
-8.09771e-09
2.09215e-10
-7.91055e-09
2.12091e-10
0.000231879
-8.32099e-09
2.12076e-10
-8.11515e-09
2.15392e-10
0.000233985
-8.54735e-09
2.1478e-10
-8.32251e-09
2.1856e-10
0.000235932
-8.77686e-09
2.17522e-10
-8.53272e-09
2.21805e-10
0.000238032
-9.00943e-09
2.20144e-10
-8.7456e-09
2.24942e-10
0.000240545
-9.2452e-09
2.22847e-10
-8.96126e-09
2.28206e-10
0.000243638
-9.48377e-09
2.25172e-10
-9.17934e-09
2.31142e-10
0.000247418
-9.72533e-09
2.27605e-10
-9.39994e-09
2.34193e-10
0.000251859
-9.96939e-09
2.29549e-10
-9.62256e-09
2.36812e-10
0.000256797
-1.02165e-08
2.31964e-10
-9.8477e-09
2.39951e-10
0.000262049
-1.04661e-08
2.33811e-10
-1.00748e-08
2.4259e-10
0.000267484
-1.07193e-08
2.36609e-10
-1.03048e-08
2.46265e-10
0.000273002
-1.09751e-08
2.38466e-10
-1.05368e-08
2.49069e-10
0.000278477
-1.12351e-08
2.41805e-10
-1.07723e-08
2.53463e-10
0.000283737
-1.14978e-08
2.43424e-10
-1.10096e-08
2.56244e-10
0.000288615
-1.17653e-08
2.47314e-10
-1.1251e-08
2.61387e-10
0.000292993
-1.20349e-08
2.48271e-10
-1.14936e-08
2.63718e-10
0.000296811
-1.23104e-08
2.52911e-10
-1.17411e-08
2.69869e-10
0.000300108
-1.25872e-08
2.52871e-10
-1.19889e-08
2.7149e-10
0.000302919
-1.28713e-08
2.58905e-10
-1.22432e-08
2.79352e-10
0.000305203
-1.31557e-08
2.57608e-10
-1.24967e-08
2.8008e-10
0.000307013
-1.34503e-08
2.66109e-10
-1.27593e-08
2.90831e-10
0.000308553
-1.37435e-08
2.63001e-10
-1.30194e-08
2.90244e-10
0.000309978
-1.40511e-08
2.75288e-10
-1.32926e-08
3.05341e-10
0.00031121
-1.43546e-08
2.69092e-10
-1.35605e-08
3.02289e-10
0.000311927
-1.46785e-08
2.87018e-10
-1.38475e-08
3.2377e-10
0.000311841
-1.4994e-08
2.75912e-10
-1.41247e-08
3.16704e-10
0.000310952
-1.53394e-08
3.02863e-10
-1.44305e-08
3.4827e-10
0.000309526
-1.56696e-08
2.84307e-10
-1.47196e-08
3.35047e-10
0.000307901
-1.60449e-08
3.25583e-10
-1.50523e-08
3.82512e-10
0.00030626
-1.63936e-08
2.94502e-10
-1.53568e-08
3.5866e-10
0.000304826
-1.68103e-08
3.57691e-10
-1.57278e-08
4.30297e-10
0.000304271
-1.71796e-08
3.04545e-10
-1.605e-08
3.8698e-10
0.000305524
-1.76508e-08
4.00448e-10
-1.64732e-08
4.94339e-10
0.000309109
-1.80368e-08
3.08362e-10
-1.68107e-08
4.15329e-10
0.000314664
-1.85746e-08
4.53013e-10
-1.73004e-08
5.75086e-10
0.000321012
-1.8965e-08
2.97433e-10
-1.76442e-08
4.37042e-10
0.000326669
-1.95839e-08
5.17606e-10
-1.82196e-08
6.77656e-10
0.000330507
-1.99578e-08
2.62986e-10
-1.85551e-08
4.46772e-10
0.000332305
-2.06794e-08
6.01086e-10
-1.92458e-08
8.12514e-10
0.000332635
-2.10045e-08
1.93216e-10
-1.95504e-08
4.36914e-10
0.000332321
-2.18657e-08
7.18084e-10
-2.04056e-08
1.00022e-09
0.000332113
-2.20922e-08
6.97387e-11
-2.06455e-08
3.97123e-10
0.000332532
-2.31545e-08
8.92342e-10
-2.17477e-08
1.27487e-09
0.000333721
-2.31987e-08
-1.4188e-10
-2.18658e-08
3.04695e-10
0.000335416
-2.45536e-08
1.15404e-09
-2.33421e-08
1.68092e-09
0.000337407
-2.42755e-08
-4.96739e-10
-2.32435e-08
1.20462e-10
0.000340266
-2.60572e-08
1.54786e-09
-2.52892e-08
2.28507e-09
0.000344933
-2.52299e-08
-1.07825e-09
-2.48211e-08
-2.17112e-10
0.000351504
-2.76325e-08
2.13814e-09
-2.77362e-08
3.18758e-09
0.000359325
-2.58973e-08
-2.01034e-09
-2.66609e-08
-8.00859e-10
0.000367277
-2.9205e-08
3.02242e-09
-3.0926e-08
4.56067e-09
0.000374128
-2.6001e-08
-3.48019e-09
-2.887e-08
-1.78251e-09
0.000379345
-3.06157e-08
4.33177e-09
-3.52671e-08
6.69252e-09
0.000383395
-2.51097e-08
-5.72344e-09
-3.1623e-08
-3.43188e-09
0.000386996
-3.15205e-08
6.17834e-09
-4.14545e-08
1.00792e-08
0.000389825
-2.26031e-08
-8.94622e-09
-3.51308e-08
-6.30347e-09
0.000391148
-3.1143e-08
8.44462e-09
-5.0829e-08
1.5808e-08
0.000391377
-1.77543e-08
-1.29738e-08
-3.93921e-08
-1.18632e-08
0.00039245
-2.74433e-08
9.91482e-09
-6.64418e-08
2.68221e-08
0.000396066
-1.08639e-08
-1.53222e-08
-4.30525e-08
-2.46618e-08
0.000401717
-1.36008e-08
3.95995e-09
-4.74911e-08
3.19798e-09
0.000407857
-1.12911e-08
-1.15949e-10
-4.95663e-08
-1.31192e-10
2.34823e-07
2.24179e-13
6.53982e-14
7.16727e-07
5.72273e-13
1.65681e-13
1.21816e-06
9.37712e-13
2.72425e-13
1.73968e-06
1.31741e-12
3.85908e-13
2.28186e-06
1.70038e-12
4.97389e-13
2.84519e-06
2.07139e-12
6.06484e-13
3.43017e-06
2.40319e-12
7.02273e-13
4.03727e-06
2.67605e-12
7.79745e-13
4.66699e-06
2.89335e-12
8.42484e-13
5.31995e-06
3.06199e-12
8.91439e-13
5.99686e-06
3.19734e-12
9.30855e-13
6.69864e-06
3.30684e-12
9.62818e-13
7.42641e-06
3.4e-12
9.89967e-13
8.18146e-06
3.47938e-12
1.01314e-12
8.96536e-06
3.55058e-12
1.03386e-12
9.77985e-06
3.6136e-12
1.05222e-12
1.06269e-05
3.67235e-12
1.0693e-12
1.15088e-05
3.72576e-12
1.08484e-12
1.2428e-05
3.77698e-12
1.09971e-12
1.33871e-05
3.82441e-12
1.1135e-12
1.4389e-05
3.87082e-12
1.12696e-12
1.54367e-05
3.91439e-12
1.13961e-12
1.65334e-05
3.95771e-12
1.15217e-12
1.76824e-05
3.99881e-12
1.16409e-12
1.88873e-05
4.04015e-12
1.17607e-12
2.01514e-05
4.07972e-12
1.18752e-12
2.14783e-05
4.11989e-12
1.19916e-12
2.28715e-05
4.15861e-12
1.21035e-12
2.43343e-05
4.19823e-12
1.22182e-12
2.58701e-05
4.23665e-12
1.2329e-12
2.74822e-05
4.27619e-12
1.24435e-12
2.91734e-05
4.31478e-12
1.25548e-12
3.09466e-05
4.35468e-12
1.26703e-12
3.28043e-05
4.39383e-12
1.27831e-12
3.47487e-05
4.43445e-12
1.29008e-12
3.67819e-05
4.47455e-12
1.30163e-12
3.89054e-05
4.51626e-12
1.31371e-12
4.11205e-05
4.55768e-12
1.32565e-12
4.3428e-05
4.60081e-12
1.33815e-12
4.58283e-05
4.64392e-12
1.35059e-12
4.83213e-05
4.68885e-12
1.36359e-12
5.09065e-05
4.734e-12
1.37665e-12
5.35826e-05
4.78111e-12
1.39027e-12
5.63479e-05
4.82872e-12
1.40404e-12
5.91997e-05
4.87846e-12
1.41843e-12
6.2135e-05
4.92909e-12
1.43313e-12
6.51495e-05
4.98193e-12
1.44843e-12
6.82382e-05
5.03613e-12
1.46428e-12
7.13951e-05
5.09263e-12
1.48066e-12
7.46131e-05
5.15045e-12
1.4973e-12
7.7884e-05
5.21116e-12
1.51486e-12
8.11983e-05
5.27286e-12
1.53206e-12
8.45454e-05
5.33853e-12
1.55104e-12
8.79131e-05
5.40562e-12
1.56976e-12
9.12885e-05
5.47727e-12
1.5906e-12
9.46569e-05
5.55143e-12
1.61193e-12
9.80027e-05
5.63e-12
1.63495e-12
0.000101309
5.71205e-12
1.659e-12
0.000104559
5.7983e-12
1.68423e-12
0.000107735
5.88814e-12
1.71025e-12
0.000110817
5.98299e-12
1.73789e-12
0.000113789
6.08046e-12
1.76495e-12
0.000116631
6.18492e-12
1.79536e-12
0.000119327
6.2913e-12
1.8241e-12
0.000121861
6.40654e-12
1.85782e-12
0.00012422
6.52431e-12
1.89029e-12
0.000126392
6.65105e-12
1.92774e-12
0.000128367
6.78217e-12
1.96567e-12
0.000130141
6.92022e-12
2.00653e-12
0.00013171
7.06471e-12
2.0499e-12
0.000133077
7.21324e-12
2.09348e-12
0.000134246
7.3696e-12
2.14101e-12
0.000135225
7.52793e-12
2.18681e-12
0.000136025
7.69503e-12
2.23756e-12
0.00013666
7.86294e-12
2.28549e-12
0.000137145
8.03999e-12
2.33867e-12
0.000137496
8.21792e-12
2.38902e-12
0.00013773
8.40425e-12
2.44374e-12
0.000137862
8.59299e-12
2.49694e-12
0.000137909
8.78901e-12
2.55306e-12
0.000137882
8.98997e-12
2.60984e-12
0.000137796
9.19781e-12
2.66872e-12
0.00013766
9.41263e-12
2.72985e-12
0.000137483
9.63454e-12
2.79283e-12
0.000137272
9.8647e-12
2.85884e-12
0.000137032
1.01018e-11
2.92599e-12
0.000136769
1.03486e-11
2.99707e-12
0.000136485
1.06021e-11
3.06853e-12
0.000136183
1.08672e-11
3.14499e-12
0.000135865
1.11397e-11
3.22189e-12
0.000135532
1.1425e-11
3.30429e-12
0.000135186
1.17197e-11
3.38855e-12
0.000134827
1.20272e-11
3.47747e-12
0.000134456
1.23471e-11
3.57049e-12
0.000134074
1.26787e-11
3.6662e-12
0.000133683
1.30245e-11
3.76684e-12
0.000133282
1.33822e-11
3.86953e-12
0.000132873
1.37542e-11
3.9764e-12
0.000132456
1.41408e-11
4.08693e-12
0.000132032
1.45429e-11
4.20183e-12
0.000131603
1.49622e-11
4.32165e-12
0.000131169
1.53991e-11
4.44693e-12
0.00013073
1.58545e-11
4.57728e-12
0.000130288
1.63288e-11
4.71316e-12
0.000129843
1.68237e-11
4.85471e-12
0.000129397
1.7339e-11
5.00191e-12
0.000128949
1.78775e-11
5.15586e-12
0.000128501
1.84399e-11
5.31743e-12
0.000128053
1.90266e-11
5.48519e-12
0.000127605
1.9642e-11
5.66378e-12
0.000127158
2.02816e-11
5.84651e-12
0.000126712
2.09535e-11
6.04172e-12
0.000126268
2.16512e-11
6.24052e-12
0.000125827
2.23828e-11
6.45155e-12
0.000125387
2.31444e-11
6.66817e-12
0.00012495
2.39407e-11
6.89539e-12
0.000124516
2.47736e-11
7.13218e-12
0.000124085
2.56414e-11
7.37741e-12
0.000123657
2.65537e-11
7.63727e-12
0.000123232
2.75031e-11
7.90466e-12
0.000122811
2.85038e-11
8.1903e-12
0.000122393
2.95471e-11
8.48605e-12
0.000121978
3.0645e-11
8.80027e-12
0.000121567
3.17932e-11
9.12867e-12
0.00012116
3.29977e-11
9.47339e-12
0.000120757
3.42593e-11
9.83456e-12
0.000120357
3.55811e-11
1.02114e-11
0.000119962
3.69655e-11
1.06061e-11
0.000119571
3.84165e-11
1.10184e-11
0.000119185
3.99368e-11
1.14504e-11
0.000118804
4.15316e-11
1.19025e-11
0.00011843
4.32028e-11
1.23764e-11
0.000118061
4.49572e-11
1.28732e-11
0.0001177
4.6796e-11
1.33941e-11
0.000117346
4.87276e-11
1.39408e-11
0.000117001
5.07522e-11
1.45141e-11
0.000116666
5.28799e-11
1.51166e-11
0.00011634
5.51103e-11
1.57482e-11
0.000116025
5.74559e-11
1.64125e-11
0.00011572
5.99153e-11
1.71096e-11
0.000115429
6.25028e-11
1.78432e-11
0.000115149
6.52178e-11
1.86151e-11
0.000114884
6.8074e-11
1.94267e-11
0.000114634
7.10737e-11
2.02821e-11
0.000114399
7.42291e-11
2.118e-11
0.000114182
7.75451e-11
2.21268e-11
0.000113983
8.10343e-11
2.31208e-11
0.000113804
8.47031e-11
2.41686e-11
0.000113646
8.85658e-11
2.52693e-11
0.000113511
9.26299e-11
2.643e-11
0.000113401
9.69109e-11
2.7651e-11
0.000113316
1.01418e-10
2.89366e-11
0.00011326
1.06169e-10
3.029e-11
0.000113232
1.11172e-10
3.17118e-11
0.000113236
1.16449e-10
3.32115e-11
0.000113273
1.22009e-10
3.47845e-11
0.000113344
1.27879e-10
3.6445e-11
0.00011345
1.34069e-10
3.81897e-11
0.000113591
1.40605e-10
4.00308e-11
0.000113768
1.47507e-10
4.19711e-11
0.00011398
1.54788e-10
4.40097e-11
0.000114225
1.62496e-10
4.61715e-11
0.0001145
1.70609e-10
4.84195e-11
0.000114801
1.79227e-10
5.08357e-11
0.000115125
1.88268e-10
5.33147e-11
0.000115467
1.97912e-10
5.60273e-11
0.000115822
2.07982e-10
5.87554e-11
0.000116187
2.18789e-10
6.18249e-11
0.000116558
2.29991e-10
6.48176e-11
0.000116935
2.42133e-10
6.83368e-11
0.000117316
2.54575e-10
7.1652e-11
0.000117705
2.68292e-10
7.57678e-11
0.000118106
2.8204e-10
7.94108e-11
0.000118523
2.97681e-10
8.42321e-11
0.000118962
3.1274e-10
8.84035e-11
0.00011943
3.30871e-10
9.41507e-11
0.000119931
3.46978e-10
9.81927e-11
0.000120471
3.68577e-10
1.05426e-10
0.000121051
3.84833e-10
1.10604e-10
0.000121673
4.11895e-10
1.19917e-10
0.00012234
4.25665e-10
1.29431e-10
0.00012305
4.62753e-10
1.375e-10
0.0001238
4.66685e-10
1.588e-10
0.000124587
5.25803e-10
1.39889e-10
0.000125406
4.99542e-10
1.93712e-10
0.000126253
6.1523e-10
1.1015e-10
0.000127127
5.02933e-10
2.55045e-10
0.000128024
6.49999e-10
1.42602e-10
0.000128944
3.23636e-10
5.09869e-10
0.000129889
-3.22175e-11
8.94087e-10
0.000130866
8.61309e-11
8.24883e-10
0.000131882
-7.72511e-11
1.01916e-09
0.000132943
8.34323e-11
9.18657e-10
0.000134056
3.01165e-11
1.02173e-09
0.000135224
1.23332e-10
9.99969e-10
0.000136452
1.23229e-10
1.06458e-09
0.000137747
1.88677e-10
1.07833e-09
0.000139108
2.15107e-10
1.12746e-09
0.000140536
2.71038e-10
1.15734e-09
0.000142031
3.11869e-10
1.20164e-09
0.000143581
3.66561e-10
1.23989e-09
0.000145173
4.16486e-10
1.28449e-09
0.000146793
4.73664e-10
1.32843e-09
0.000148421
5.30485e-10
1.37588e-09
0.000150037
5.91879e-10
1.42479e-09
0.000151622
6.54731e-10
1.47637e-09
0.000153164
7.2107e-10
1.53025e-09
0.000154655
7.89594e-10
1.58666e-09
0.000156102
8.61156e-10
1.64569e-09
0.000157516
9.35182e-10
1.7073e-09
0.000158908
1.01203e-09
1.77164e-09
0.000160288
1.09142e-09
1.83861e-09
0.000161658
1.17346e-09
1.90833e-09
0.000163014
1.25804e-09
1.98073e-09
0.000164349
1.34513e-09
2.05585e-09
0.000165655
1.43469e-09
2.13367e-09
0.00016692
1.52666e-09
2.2142e-09
0.000168136
1.62104e-09
2.29744e-09
0.000169289
1.7178e-09
2.38344e-09
0.000170372
1.81701e-09
2.47221e-09
0.000171385
1.91872e-09
2.5639e-09
0.000172343
2.02302e-09
2.65859e-09
0.000173278
2.13004e-09
2.75644e-09
0.000174231
2.2399e-09
2.85759e-09
0.00017524
2.35271e-09
2.96218e-09
0.000176336
2.46857e-09
3.07031e-09
0.000177527
2.58746e-09
3.18204e-09
0.000178801
2.70945e-09
3.29745e-09
0.000180113
2.83443e-09
3.41651e-09
0.000181419
2.96245e-09
3.53923e-09
0.000182688
3.09343e-09
3.66563e-09
0.000183913
3.22741e-09
3.79576e-09
0.000185115
3.36441e-09
3.9297e-09
0.000186314
3.50444e-09
4.06752e-09
0.000187536
3.64757e-09
4.2093e-09
0.000188801
3.79381e-09
4.35507e-09
0.00019014
3.94315e-09
4.50491e-09
0.000191596
4.09554e-09
4.65877e-09
0.000193226
4.25081e-09
4.81661e-09
0.000195081
4.40882e-09
4.97825e-09
0.000197176
4.56924e-09
5.14349e-09
0.000199486
4.73181e-09
5.31203e-09
0.000201942
4.89616e-09
5.48357e-09
0.00020444
5.06201e-09
5.6579e-09
0.000206868
5.22907e-09
5.83478e-09
0.000209122
5.39721e-09
6.01407e-09
0.000211097
5.56633e-09
6.19577e-09
0.0002127
5.73652e-09
6.37999e-09
0.000213904
5.90798e-09
6.56707e-09
0.000214791
6.08111e-09
6.75747e-09
0.000215536
6.25636e-09
6.95181e-09
0.000216356
6.43419e-09
7.15065e-09
0.000217441
6.61485e-09
7.35445e-09
0.000218968
6.79847e-09
7.56344e-09
0.000221057
6.98489e-09
7.77764e-09
0.000223673
7.17388e-09
7.99687e-09
0.000226573
7.36506e-09
8.22094e-09
0.000229401
7.55812e-09
8.44964e-09
0.000231881
7.75275e-09
8.68287e-09
0.000233987
7.94881e-09
8.92058e-09
0.000235933
8.14615e-09
9.16293e-09
0.000238033
8.34467e-09
9.4099e-09
0.000240545
8.54423e-09
9.66174e-09
0.000243637
8.74444e-09
9.91824e-09
0.000247416
8.94525e-09