/*--------------------------------*- C++ -*----------------------------------*\
| =========                 |                                                 |
| \\      /  F ield         | OpenFOAM: The Open Source CFD Toolbox           |
|  \\    /   O peration     | Version:  2012                                  |
|   \\  /    A nd           | Website:  www.openfoam.com                      |
|    \\/     M anipulation  |                                                 |
\*---------------------------------------------------------------------------*/
FoamFile
{
    version     2.0;
    format      ascii;
    class       volSymmTensorField;
    location    "12000";
    object      turbulenceProperties:R;
}
// * * * * * * * * * * * * * * * * * * * * * * * * * * * * * * * * * * * * * //

dimensions      [0 2 -2 0 0 0 0];


internalField   nonuniform List<symmTensor> 
2560
(
(6.07678e-05 -2.67688e-08 -3.8807e-11 6.07678e-05 -5.36301e-15 6.07678e-05)
(6.07678e-05 -2.67688e-08 -3.8807e-11 6.07678e-05 -5.42672e-15 6.07678e-05)
(0.000713715 -1.80165e-06 -7.88161e-09 0.000713715 -3.99779e-14 0.000713715)
(0.000713715 -1.80165e-06 -7.88161e-09 0.000713715 -4.03218e-14 0.000713715)
(0.00508846 -3.77838e-05 -2.26464e-07 0.00508846 -5.49693e-13 0.00508846)
(0.00508846 -3.77838e-05 -2.26464e-07 0.00508846 -5.39508e-13 0.00508846)
(0.0187429 -0.000294529 -1.79084e-06 0.0187429 -5.87549e-12 0.0187429)
(0.0187429 -0.000294529 -1.79084e-06 0.0187429 -5.89209e-12 0.0187429)
(0.04885 -0.00135447 -8.35442e-06 0.04885 -3.46839e-11 0.04885)
(0.04885 -0.00135447 -8.35442e-06 0.04885 -3.4385e-11 0.04885)
(0.102884 -0.00450503 -2.8187e-05 0.102884 -1.22836e-10 0.102884)
(0.102884 -0.00450503 -2.8187e-05 0.102884 -1.21548e-10 0.102884)
(0.185864 -0.011915 -7.56216e-05 0.185864 -2.66674e-10 0.185864)
(0.185864 -0.011915 -7.56216e-05 0.185864 -2.61836e-10 0.185864)
(0.296608 -0.026204 -0.000168705 0.296608 -3.87315e-10 0.296608)
(0.296608 -0.026204 -0.000168705 0.296608 -3.74953e-10 0.296608)
(0.42707 -0.0492331 -0.000321559 0.42707 -6.80822e-10 0.42707)
(0.42707 -0.0492331 -0.000321559 0.42707 1.05555e-11 0.42707)
(0.566987 -0.0811875 -0.000537998 0.566987 6.28001e-25 0.566987)
(0.566987 -0.0811875 -0.000537998 0.566987 3.54286e-09 0.566987)
(0.70875 -0.120915 -0.000813042 0.70875 5.18792e-09 0.70875)
(0.70875 -0.120915 -0.000813042 0.70875 -5.85632e-10 0.70875)
(0.848423 -0.166834 -0.00113845 0.848423 1.37145e-09 0.848423)
(0.848423 -0.166834 -0.00113845 0.848423 -2.54478e-09 0.848423)
(0.984549 -0.217526 -0.00150658 0.984549 -4.04738e-09 0.984549)
(0.984549 -0.217526 -0.00150658 0.984549 -4.04665e-09 0.984549)
(1.1169 -0.271923 -0.00191172 1.1169 -6.07504e-09 1.1169)
(1.1169 -0.271923 -0.00191172 1.1169 -6.07446e-09 1.1169)
(1.24578 -0.329292 -0.00235018 1.24578 -8.5291e-09 1.24578)
(1.24578 -0.329292 -0.00235018 1.24578 -8.52723e-09 1.24578)
(1.37163 -0.38918 -0.00281997 1.37163 -1.1433e-08 1.37163)
(1.37163 -0.38918 -0.00281997 1.37163 -1.14176e-08 1.37163)
(1.49492 -0.451337 -0.00332047 1.49492 -1.4756e-08 1.49492)
(1.49492 -0.451337 -0.00332047 1.49492 -1.47657e-08 1.49492)
(1.61607 -0.515664 -0.00385201 1.61607 -1.85237e-08 1.61607)
(1.61607 -0.515664 -0.00385201 1.61607 -1.85347e-08 1.61607)
(1.73545 -0.582164 -0.00441566 1.73545 -2.26938e-08 1.73545)
(1.73545 -0.582164 -0.00441566 1.73545 -2.26902e-08 1.73545)
(1.85334 -0.650906 -0.00501301 1.85334 -2.73269e-08 1.85334)
(1.85334 -0.650906 -0.00501301 1.85334 -2.73407e-08 1.85334)
(1.96996 -0.721988 -0.00564586 1.96996 -3.25156e-08 1.96996)
(1.96996 -0.721988 -0.00564586 1.96996 -3.25307e-08 1.96996)
(2.08546 -0.795514 -0.00631604 2.08546 -3.80918e-08 2.08546)
(2.08546 -0.795514 -0.00631604 2.08546 -3.81084e-08 2.08546)
(2.19991 -0.871563 -0.00702529 2.19991 -4.41276e-08 2.19991)
(2.19991 -0.871563 -0.00702529 2.19991 -4.41457e-08 2.19991)
(2.31335 -0.95018 -0.00777504 2.31335 -5.08907e-08 2.31335)
(2.31335 -0.95018 -0.00777504 2.31335 -5.08986e-08 2.31335)
(2.42573 -1.03135 -0.00856619 2.42573 -5.81934e-08 2.42573)
(2.42573 -1.03135 -0.00856619 2.42573 -5.82015e-08 2.42573)
(2.53694 -1.11497 -0.00939901 2.53694 -6.59003e-08 2.53694)
(2.53694 -1.11497 -0.00939901 2.53694 -6.59225e-08 2.53694)
(2.64683 -1.20087 -0.0102731 2.64683 -7.42356e-08 2.64683)
(2.64683 -1.20087 -0.0102731 2.64683 -7.42592e-08 2.64683)
(2.75517 -1.28881 -0.0111873 2.75517 -8.35096e-08 2.75517)
(2.75517 -1.28881 -0.0111873 2.75517 -8.34751e-08 2.75517)
(2.86169 -1.37842 -0.0121394 2.86169 -9.33325e-08 2.86169)
(2.86169 -1.37842 -0.0121394 2.86169 -9.33373e-08 2.86169)
(2.96605 -1.46927 -0.0131263 2.96605 -1.0371e-07 2.96605)
(2.96605 -1.46927 -0.0131263 2.96605 -1.03719e-07 2.96605)
(3.06788 -1.56083 -0.014144 3.06788 -1.14829e-07 3.06788)
(3.06788 -1.56083 -0.014144 3.06788 -1.14857e-07 3.06788)
(3.16673 -1.65252 -0.0151878 3.16673 -1.27129e-07 3.16673)
(3.16673 -1.65252 -0.0151878 3.16673 -1.27063e-07 3.16673)
(3.26214 -1.74368 -0.0162517 3.26214 -1.40016e-07 3.26214)
(3.26214 -1.74368 -0.0162517 3.26214 -1.40013e-07 3.26214)
(3.3536 -1.83356 -0.017329 3.3536 -1.53594e-07 3.3536)
(3.3536 -1.83356 -0.017329 3.3536 -1.53615e-07 3.3536)
(3.44054 -1.92142 -0.0184123 3.44054 -1.68265e-07 3.44054)
(3.44054 -1.92142 -0.0184123 3.44054 -1.68299e-07 3.44054)
(3.52239 -2.00646 -0.0194936 3.52239 -1.84239e-07 3.52239)
(3.52239 -2.00646 -0.0194936 3.52239 -1.84163e-07 3.52239)
(3.59855 -2.08784 -0.0205638 3.59855 -2.00958e-07 3.59855)
(3.59855 -2.08784 -0.0205638 3.59855 -2.00937e-07 3.59855)
(3.6684 -2.16472 -0.0216132 3.6684 -2.18522e-07 3.6684)
(3.6684 -2.16472 -0.0216132 3.6684 -2.1855e-07 3.6684)
(3.73134 -2.23624 -0.022632 3.73134 -2.37477e-07 3.73134)
(3.73134 -2.23624 -0.022632 3.73134 -2.37461e-07 3.73134)
(3.78674 -2.30157 -0.0236095 3.78674 -2.58005e-07 3.78674)
(3.78674 -2.30157 -0.0236095 3.78674 -2.57933e-07 3.78674)
(3.83399 -2.35985 -0.0245343 3.83399 -2.79715e-07 3.83399)
(3.83399 -2.35985 -0.0245343 3.83399 -2.79616e-07 3.83399)
(3.87253 -2.41021 -0.0253945 3.87253 -3.02226e-07 3.87253)
(3.87253 -2.41021 -0.0253945 3.87253 -3.02267e-07 3.87253)
(3.90181 -2.45184 -0.0261781 3.90181 -3.26647e-07 3.90181)
(3.90181 -2.45184 -0.0261781 3.90181 -3.26625e-07 3.90181)
(3.92133 -2.48395 -0.0268728 3.92133 -3.52884e-07 3.92133)
(3.92133 -2.48395 -0.0268728 3.92133 -3.5273e-07 3.92133)
(3.93066 -2.50574 -0.0274655 3.93066 -3.80374e-07 3.93066)
(3.93066 -2.50574 -0.0274655 3.93066 -3.80416e-07 3.93066)
(3.92944 -2.51648 -0.0279431 3.92944 -4.09696e-07 3.92944)
(3.92944 -2.51648 -0.0279431 3.92944 -4.09516e-07 3.92944)
(3.91739 -2.51546 -0.0282927 3.91739 -4.40438e-07 3.91739)
(3.91739 -2.51546 -0.0282927 3.91739 -4.40482e-07 3.91739)
(3.89434 -2.50206 -0.0285013 3.89434 -4.74877e-07 3.89434)
(3.89434 -2.50206 -0.0285013 3.89434 -4.74504e-07 3.89434)
(3.86025 -2.47572 -0.028556 3.86025 -5.09595e-07 3.86025)
(3.86025 -2.47572 -0.028556 3.86025 -5.0933e-07 3.86025)
(3.81519 -2.43597 -0.0284451 3.81519 -5.44077e-07 3.81519)
(3.81519 -2.43597 -0.0284451 3.81519 -5.43809e-07 3.81519)
(3.7594 -2.38255 -0.0281596 3.7594 -5.86065e-07 3.7594)
(3.7594 -2.38255 -0.0281596 3.7594 -5.86111e-07 3.7594)
(3.69327 -2.31529 -0.0276888 3.69327 -6.28875e-07 3.69327)
(3.69327 -2.31529 -0.0276888 3.69327 -6.2811e-07 3.69327)
(3.61736 -2.23411 -0.0270252 3.61736 -6.68716e-07 3.61736)
(3.61736 -2.23411 -0.0270252 3.61736 -6.6824e-07 3.61736)
(3.53242 -2.1393 -0.0261667 3.53242 -7.17375e-07 3.53242)
(3.53242 -2.1393 -0.0261667 3.53242 -7.16591e-07 3.53242)
(3.43939 -2.03131 -0.02511 3.43939 -7.63433e-07 3.43939)
(3.43939 -2.03131 -0.02511 3.43939 -7.62945e-07 3.43939)
(3.33936 -1.91078 -0.0238574 3.33936 -8.12899e-07 3.33936)
(3.33936 -1.91078 -0.0238574 3.33936 -8.12947e-07 3.33936)
(3.23362 -1.77869 -0.0224158 3.23362 -8.64825e-07 3.23362)
(3.23362 -1.77869 -0.0224158 3.23362 -8.64022e-07 3.23362)
(3.12361 -1.63625 -0.0207943 3.12361 -9.12772e-07 3.12361)
(3.12361 -1.63625 -0.0207943 3.12361 -9.12275e-07 3.12361)
(3.01091 -1.48492 -0.019008 3.01091 -9.65966e-07 3.01091)
(3.01091 -1.48492 -0.019008 3.01091 -9.65145e-07 3.01091)
(2.89718 -1.32635 -0.0170738 2.89718 -1.01701e-06 2.89718)
(2.89718 -1.32635 -0.0170738 2.89718 -1.01652e-06 2.89718)
(2.78415 -1.1623 -0.0150122 2.78415 -1.0684e-06 2.78415)
(2.78415 -1.1623 -0.0150122 2.78415 -1.06757e-06 2.78415)
(2.67355 -0.994634 -0.0128464 2.67355 -1.11026e-06 2.67355)
(2.67355 -0.994634 -0.0128464 2.67355 -1.11031e-06 2.67355)
(2.56706 -0.825297 -0.0106025 2.56706 -1.15151e-06 2.56706)
(2.56706 -0.825297 -0.0106025 2.56706 -1.151e-06 2.56706)
(2.46625 -0.656225 -0.00830694 2.46625 -1.19476e-06 2.46625)
(2.46625 -0.656225 -0.00830694 2.46625 -1.19392e-06 2.46625)
(2.37252 -0.489132 -0.00598317 2.37252 -1.22103e-06 2.37252)
(2.37252 -0.489132 -0.00598317 2.37252 -1.22052e-06 2.37252)
(2.28701 -0.325649 -0.00365827 2.28701 -1.24355e-06 2.28701)
(2.28701 -0.325649 -0.00365827 2.28701 -1.24359e-06 2.28701)
(2.21059 -0.167319 -0.00135596 2.21059 -1.26089e-06 2.21059)
(2.21059 -0.167319 -0.00135596 2.21059 -1.26013e-06 2.21059)
(2.14377 -7.68508e-05 -5.85284e-07 2.14377 -1.27075e-06 2.14377)
(2.14377 -7.68512e-05 -5.85287e-07 2.14377 -1.27022e-06 2.14377)
(2.08673 0.117044 -0.000904353 2.08673 -1.27545e-06 2.08673)
(2.08673 0.117044 -0.000904353 2.08673 -1.27454e-06 2.08673)
(2.03928 0.264738 -0.00310913 2.03928 -1.26982e-06 2.03928)
(2.03928 0.264738 -0.00310912 2.03928 -1.26927e-06 2.03928)
(2.00087 0.391028 -0.00523894 2.00087 -1.27062e-06 2.00087)
(2.00087 0.391028 -0.00523894 2.00087 -1.26968e-06 2.00087)
(1.97068 0.507016 -0.00727279 1.97068 -1.26553e-06 1.97068)
(1.97068 0.507016 -0.00727279 1.97068 -1.26495e-06 1.97068)
(1.94768 0.612012 -0.00919318 1.94768 -1.26647e-06 1.94768)
(1.94768 0.612012 -0.00919318 1.94768 -1.26547e-06 1.94768)
(1.93069 0.705413 -0.0109803 1.93069 -1.27086e-06 1.93069)
(1.93069 0.705413 -0.0109803 1.93069 -1.27025e-06 1.93069)
(1.91845 0.786903 -0.012618 1.91845 -1.2823e-06 1.91845)
(1.91845 0.786903 -0.012618 1.91845 -1.28124e-06 1.91845)
(1.90976 0.856423 -0.0140948 1.90976 -1.29507e-06 1.90976)
(1.90976 0.856423 -0.0140948 1.90976 -1.29443e-06 1.90976)
(1.90346 0.914119 -0.0154032 1.90346 -1.31871e-06 1.90346)
(1.90346 0.914119 -0.0154032 1.90346 -1.31875e-06 1.90346)
(1.89853 0.960417 -0.0165388 1.89853 -1.34713e-06 1.89853)
(1.89853 0.960417 -0.0165388 1.89853 -1.34719e-06 1.89853)
(1.89409 0.996085 -0.0175045 1.89409 -1.38645e-06 1.89409)
(1.89409 0.996085 -0.0175045 1.89409 -1.38574e-06 1.89409)
(1.88943 1.02211 -0.0183091 1.88943 -1.42875e-06 1.88943)
(1.88943 1.02211 -0.0183091 1.88943 -1.428e-06 1.88943)
(1.884 1.03957 -0.0189647 1.884 -1.47085e-06 1.884)
(1.884 1.03957 -0.0189647 1.884 -1.4701e-06 1.884)
(1.87738 1.04959 -0.0194856 1.87738 -1.5255e-06 1.87738)
(1.87738 1.04959 -0.0194856 1.87738 -1.52418e-06 1.87738)
(1.8693 1.05335 -0.019887 1.8693 -1.57238e-06 1.8693)
(1.8693 1.05335 -0.019887 1.8693 -1.57158e-06 1.8693)
(1.85957 1.05196 -0.0201878 1.85957 -1.62667e-06 1.85957)
(1.85957 1.05196 -0.0201878 1.85957 -1.62577e-06 1.85957)
(1.8481 1.04636 -0.0204025 1.8481 -1.68523e-06 1.8481)
(1.8481 1.04636 -0.0204025 1.8481 -1.68439e-06 1.8481)
(1.83486 1.03744 -0.0205453 1.83486 -1.74013e-06 1.83486)
(1.83486 1.03744 -0.0205453 1.83486 -1.74019e-06 1.83486)
(1.81988 1.02596 -0.0206305 1.81988 -1.79616e-06 1.81988)
(1.81988 1.02596 -0.0206305 1.81988 -1.79527e-06 1.81988)
(1.8032 1.0125 -0.020669 1.8032 -1.85115e-06 1.8032)
(1.8032 1.0125 -0.020669 1.8032 -1.85121e-06 1.8032)
(1.7849 0.997511 -0.0206691 1.7849 -1.90175e-06 1.7849)
(1.7849 0.997511 -0.0206691 1.7849 -1.9008e-06 1.7849)
(1.76507 0.981297 -0.0206372 1.76507 -1.95997e-06 1.76507)
(1.76507 0.981297 -0.0206372 1.76507 -1.96002e-06 1.76507)
(1.7438 0.964125 -0.0205772 1.7438 -2.01665e-06 1.7438)
(1.7438 0.964125 -0.0205772 1.7438 -2.01565e-06 1.7438)
(1.72119 0.946235 -0.0204939 1.72119 -2.0649e-06 1.72119)
(1.72119 0.946235 -0.0204939 1.72119 -2.06496e-06 1.72119)
(1.69734 0.927777 -0.0203908 1.69734 -2.11002e-06 1.69734)
(1.69734 0.927777 -0.0203908 1.69734 -2.11005e-06 1.69734)
(1.67235 0.908818 -0.0202693 1.67235 -2.16763e-06 1.67235)
(1.67235 0.908818 -0.0202693 1.67235 -2.16655e-06 1.67235)
(1.64632 0.889428 -0.0201295 1.64632 -2.22631e-06 1.64632)
(1.64632 0.889428 -0.0201295 1.64632 -2.22441e-06 1.64632)
(1.61934 0.869728 -0.0199731 1.61934 -2.26062e-06 1.61934)
(1.61934 0.869728 -0.0199731 1.61934 -2.25947e-06 1.61934)
(1.59151 0.849756 -0.0198027 1.59151 -2.30916e-06 1.59151)
(1.59151 0.849756 -0.0198027 1.59151 -2.30922e-06 1.59151)
(1.56291 0.829517 -0.0196164 1.56291 -2.34901e-06 1.56291)
(1.56291 0.829517 -0.0196164 1.56291 -2.34904e-06 1.56291)
(1.53364 0.809093 -0.0194154 1.53364 -2.39523e-06 1.53364)
(1.53364 0.809093 -0.0194154 1.53364 -2.39399e-06 1.53364)
(1.50378 0.78854 -0.0192013 1.50378 -2.44462e-06 1.50378)
(1.50378 0.78854 -0.0192013 1.50378 -2.44468e-06 1.50378)
(1.47342 0.767918 -0.0189743 1.47342 -2.47325e-06 1.47342)
(1.47342 0.767918 -0.0189743 1.47342 -2.47195e-06 1.47342)
(1.44264 0.747276 -0.0187364 1.44264 -2.4991e-06 1.44264)
(1.44264 0.747276 -0.0187364 1.44264 -2.49917e-06 1.44264)
(1.41151 0.726637 -0.0184875 1.41151 -2.54405e-06 1.41151)
(1.41151 0.726637 -0.0184875 1.41151 -2.54412e-06 1.41151)
(1.38011 0.706059 -0.0182283 1.38011 -2.57502e-06 1.38011)
(1.38011 0.706059 -0.0182283 1.38011 -2.5736e-06 1.38011)
(1.34853 0.6856 -0.0179605 1.34853 -2.59767e-06 1.34853)
(1.34853 0.6856 -0.0179605 1.34853 -2.59774e-06 1.34853)
(1.31681 0.665306 -0.0176848 1.31681 -2.62668e-06 1.31681)
(1.31681 0.665306 -0.0176848 1.31681 -2.62675e-06 1.31681)
(1.28505 0.645234 -0.0174029 1.28505 -2.65174e-06 1.28505)
(1.28505 0.645234 -0.0174029 1.28505 -2.65021e-06 1.28505)
(1.25329 0.625405 -0.0171158 1.25329 -2.67337e-06 1.25329)
(1.25329 0.625405 -0.0171158 1.25329 -2.67344e-06 1.25329)
(1.2216 0.605861 -0.0168236 1.2216 -2.68165e-06 1.2216)
(1.2216 0.605861 -0.0168236 1.2216 -2.68172e-06 1.2216)
(1.19003 0.586649 -0.0165286 1.19003 -2.70088e-06 1.19003)
(1.19003 0.586649 -0.0165286 1.19003 -2.69922e-06 1.19003)
(1.15864 0.567764 -0.0162312 1.15864 -2.72377e-06 1.15864)
(1.15864 0.567764 -0.0162312 1.15864 -2.72364e-06 1.15864)
(1.12748 0.549241 -0.0159309 1.12748 -2.72549e-06 1.12748)
(1.12748 0.549241 -0.0159309 1.12748 -2.72373e-06 1.12748)
(1.09659 0.531122 -0.0156303 1.09659 -2.72737e-06 1.09659)
(1.09659 0.531122 -0.0156303 1.09659 -2.72744e-06 1.09659)
(1.06601 0.513406 -0.0153298 1.06601 -2.72487e-06 1.06601)
(1.06601 0.513406 -0.0153298 1.06601 -2.72495e-06 1.06601)
(1.03578 0.496098 -0.0150292 1.03578 -2.7306e-06 1.03578)
(1.03578 0.496098 -0.0150292 1.03578 -2.7287e-06 1.03578)
(1.00593 0.479216 -0.0147295 1.00593 -2.73232e-06 1.00593)
(1.00593 0.479216 -0.0147295 1.00593 -2.7324e-06 1.00593)
(0.9765 0.462772 -0.0144314 0.9765 -2.72457e-06 0.9765)
(0.9765 0.462772 -0.0144314 0.9765 -2.72255e-06 0.9765)
(0.947507 0.446766 -0.0141353 0.947507 -2.71365e-06 0.947507)
(0.947507 0.446766 -0.0141353 0.947507 -2.71165e-06 0.947507)
(0.918977 0.431204 -0.0138415 0.918977 -2.69166e-06 0.918977)
(0.918977 0.431204 -0.0138415 0.918977 -2.68952e-06 0.918977)
(0.89093 0.416076 -0.0135507 0.89093 -2.68928e-06 0.89093)
(0.89093 0.416076 -0.0135507 0.89093 -2.68518e-06 0.89093)
(0.863382 0.401373 -0.0132622 0.863382 -2.6624e-06 0.863382)
(0.863382 0.401373 -0.0132622 0.863382 -2.66012e-06 0.863382)
(0.836348 0.387106 -0.0129768 0.836347 -2.64288e-06 0.836348)
(0.836348 0.387106 -0.0129768 0.836348 -2.64296e-06 0.836348)
(0.809838 0.37327 -0.0126951 0.809838 -2.61195e-06 0.809838)
(0.809838 0.37327 -0.0126951 0.809838 -2.61203e-06 0.809838)
(0.783861 0.359849 -0.0124169 0.783861 -2.58376e-06 0.783861)
(0.783861 0.359849 -0.0124169 0.783861 -2.58128e-06 0.783861)
(0.758423 0.346827 -0.0121419 0.758423 -2.56189e-06 0.758423)
(0.758423 0.346827 -0.0121419 0.758423 -2.56198e-06 0.758423)
(0.733527 0.334199 -0.0118702 0.733527 -2.51927e-06 0.733527)
(0.733527 0.334199 -0.0118702 0.733527 -2.51662e-06 0.733527)
(0.709175 0.321941 -0.0116019 0.709175 -2.48883e-06 0.709175)
(0.709175 0.321941 -0.0116019 0.709175 -2.48891e-06 0.709175)
(0.685367 0.310039 -0.0113361 0.685367 -2.4512e-06 0.685367)
(0.685367 0.310039 -0.0113361 0.685367 -2.44919e-06 0.685367)
(0.662102 0.298484 -0.0110731 0.662102 -2.40096e-06 0.662102)
(0.662102 0.298484 -0.0110731 0.662102 -2.39806e-06 0.662102)
(0.639377 0.28725 -0.0108126 0.639377 -2.35735e-06 0.639377)
(0.639377 0.28725 -0.0108126 0.639377 -2.35743e-06 0.639377)
(0.617188 0.276321 -0.0105536 0.617188 -2.32028e-06 0.617188)
(0.617188 0.276321 -0.0105536 0.617188 -2.3185e-06 0.617188)
(0.595532 0.265692 -0.0102966 0.595532 -2.26201e-06 0.595532)
(0.595532 0.265692 -0.0102966 0.595532 -2.26215e-06 0.595532)
(0.574403 0.255351 -0.0100413 0.574403 -2.2086e-06 0.574403)
(0.574403 0.255351 -0.0100413 0.574403 -2.20529e-06 0.574403)
(0.553797 0.245286 -0.00978732 0.553797 -2.15389e-06 0.553797)
(0.553797 0.245286 -0.00978732 0.553797 -2.15398e-06 0.553797)
(0.533709 0.235493 -0.00953479 0.533709 -2.10503e-06 0.533709)
(0.533709 0.235493 -0.00953479 0.533709 -2.10149e-06 0.533709)
(0.514132 0.225973 -0.00928378 0.514132 -2.0428e-06 0.514132)
(0.514132 0.225973 -0.00928378 0.514132 -2.03954e-06 0.514132)
(0.49506 0.216727 -0.00903472 0.49506 -1.97937e-06 0.49506)
(0.495061 0.216727 -0.00903472 0.49506 -1.9756e-06 0.495061)
(0.476489 0.207752 -0.00878795 0.476489 -1.9095e-06 0.476489)
(0.476489 0.207752 -0.00878795 0.476489 -1.90862e-06 0.476489)
(0.458411 0.199039 -0.00854325 0.458411 -1.84374e-06 0.458411)
(0.458411 0.199039 -0.00854325 0.458411 -1.83971e-06 0.458411)
(0.440819 0.190583 -0.00830075 0.440819 -1.77299e-06 0.440819)
(0.440819 0.190583 -0.00830075 0.440819 -1.77309e-06 0.440819)
(0.423707 0.182376 -0.00806045 0.423707 -1.70874e-06 0.423707)
(0.423707 0.182376 -0.00806045 0.423707 -1.70518e-06 0.423707)
(0.407067 0.174408 -0.00782206 0.407067 -1.63958e-06 0.407067)
(0.407067 0.174408 -0.00782206 0.407067 -1.63512e-06 0.407067)
(0.390893 0.166671 -0.00758564 0.390893 -1.55996e-06 0.390893)
(0.390893 0.166671 -0.00758564 0.390893 -1.56007e-06 0.390893)
(0.375176 0.159155 -0.00735098 0.375176 -1.48679e-06 0.375176)
(0.375176 0.159155 -0.00735098 0.375176 -1.48201e-06 0.375176)
(0.35991 0.15185 -0.00711774 0.35991 -1.41767e-06 0.35991)
(0.35991 0.15185 -0.00711774 0.35991 -1.41777e-06 0.35991)
(0.345088 0.144748 -0.00688589 0.345088 -1.33757e-06 0.345088)
(0.345088 0.144748 -0.00688589 0.345088 -1.33245e-06 0.345088)
(0.330704 0.137845 -0.0066553 0.330704 -1.25889e-06 0.330704)
(0.330704 0.137845 -0.0066553 0.330704 -1.259e-06 0.330704)
(0.316752 0.131136 -0.00642595 0.316752 -1.18571e-06 0.316752)
(0.316752 0.131136 -0.00642595 0.316752 -1.18166e-06 0.316752)
(0.303226 0.124618 -0.00619796 0.303226 -1.10271e-06 0.303226)
(0.303226 0.124618 -0.00619796 0.303226 -1.10235e-06 0.303226)
(0.290122 0.11829 -0.00597138 0.290122 -1.02209e-06 0.290122)
(0.290122 0.11829 -0.00597138 0.290122 -1.01838e-06 0.290122)
(0.277434 0.11215 -0.00574647 0.277434 -9.34241e-07 0.277434)
(0.277434 0.11215 -0.00574647 0.277434 -9.34369e-07 0.277434)
(0.265159 0.106197 -0.00552332 0.265159 -8.49181e-07 0.265159)
(0.265159 0.106197 -0.00552332 0.265159 -8.45853e-07 0.265159)
(0.253293 0.100431 -0.00530208 0.253293 -7.59628e-07 0.253293)
(0.253293 0.100431 -0.00530208 0.253293 -7.59757e-07 0.253293)
(0.241833 0.094852 -0.00508308 0.241833 -6.66011e-07 0.241833)
(0.241833 0.094852 -0.00508308 0.241833 -6.6615e-07 0.241833)
(0.230776 0.089464 -0.0048666 0.230776 -5.74445e-07 0.230776)
(0.230776 0.089464 -0.0048666 0.230776 -5.71206e-07 0.230776)
(0.22012 0.0842751 -0.00465327 0.22012 -4.79024e-07 0.22012)
(0.22012 0.0842751 -0.00465327 0.22012 -4.79162e-07 0.22012)
(0.209863 0.079297 -0.00444387 0.209863 -3.71905e-07 0.209863)
(0.209863 0.079297 -0.00444387 0.209863 -3.65755e-07 0.209863)
(0.200002 0.0745475 -0.00423952 0.200002 -2.76966e-07 0.200002)
(0.200002 0.0745475 -0.00423952 0.200002 -2.77108e-07 0.200002)
(0.190536 0.0700478 -0.00404175 0.190537 -1.63567e-07 0.190536)
(0.190536 0.0700479 -0.00404175 0.190537 -1.63723e-07 0.190536)
(0.181462 0.0658225 -0.00385222 0.181462 -6.4504e-09 0.181462)
(0.181462 0.0658225 -0.00385222 0.181462 -2.01819e-09 0.181462)
(0.172775 0.0618952 -0.00367296 0.172776 -7.57375e-09 0.172775)
(0.172775 0.0618952 -0.00367296 0.172776 -5.92881e-09 0.172775)
(0.164472 0.0582842 -0.00350576 0.164472 1.75472e-07 0.164472)
(0.164472 0.0582842 -0.00350576 0.164471 1.84036e-07 0.164472)
(0.156543 0.0550014 -0.0033522 0.156543 2.87357e-07 0.156543)
(0.156543 0.0550014 -0.0033522 0.156543 2.91754e-07 0.156543)
(0.148981 0.0520477 -0.00321343 0.148981 4.15292e-07 0.148981)
(0.148981 0.0520477 -0.00321343 0.148981 4.24032e-07 0.148981)
(0.141773 0.0494125 -0.00308986 0.141774 5.14949e-07 0.141773)
(0.141773 0.0494125 -0.00308986 0.141774 5.26495e-07 0.141773)
(0.134908 0.0470691 -0.00298124 0.134908 6.73155e-07 0.134908)
(0.134908 0.0470691 -0.00298124 0.134908 6.81522e-07 0.134908)
(0.128369 0.0449834 -0.00288598 0.128369 7.83505e-07 0.128369)
(0.128369 0.0449834 -0.00288598 0.128369 7.9096e-07 0.128369)
(0.122139 0.0431109 -0.00280272 0.122139 9.11199e-07 0.122139)
(0.122139 0.0431109 -0.00280272 0.122139 9.10562e-07 0.122139)
(0.1162 0.04139 -0.00272834 0.1162 1.03048e-06 0.1162)
(0.1162 0.04139 -0.00272834 0.1162 1.03093e-06 0.1162)
(0.110533 0.0397546 -0.00265897 0.110534 1.1556e-06 0.110533)
(0.110533 0.0397546 -0.00265897 0.110534 1.15439e-06 0.110533)
(0.10512 0.0381465 -0.00259046 0.10512 1.27736e-06 0.10512)
(0.10512 0.0381465 -0.00259046 0.10512 1.2943e-06 0.10512)
(0.0999422 0.0365169 -0.00251952 0.0999429 1.3835e-06 0.0999422)
(0.0999422 0.0365169 -0.00251952 0.0999429 1.363e-06 0.0999422)
(0.094985 0.0348301 -0.00244287 0.094985 1.50659e-06 0.094985)
(0.0949853 0.0348301 -0.00244287 0.0949846 1.55538e-06 0.0949853)
(0.0902345 0.0330769 -0.00235863 0.0902345 1.62832e-06 0.0902345)
(0.0902343 0.0330769 -0.00235863 0.0902349 1.56283e-06 0.0902343)
(0.08568 0.0312675 -0.00226696 0.08568 1.70227e-06 0.08568)
(0.0856803 0.0312675 -0.00226696 0.0856793 1.78892e-06 0.0856803)
(0.0813132 0.0294221 -0.00216864 0.0813132 1.83708e-06 0.0813132)
(0.0813127 0.0294221 -0.00216864 0.081314 1.70145e-06 0.0813127)
(0.0771278 0.0275689 -0.00206533 0.0771278 1.88471e-06 0.0771278)
(0.0771284 0.0275689 -0.00206533 0.0771267 2.05439e-06 0.0771284)
(0.0731193 0.0257449 -0.00195914 0.0731193 2.04662e-06 0.0731193)
(0.0731186 0.0257449 -0.00195914 0.0731207 1.79163e-06 0.0731186)
(0.069284 0.0239768 -0.00185326 0.069284 2.02748e-06 0.069284)
(0.0692849 0.0239768 -0.00185327 0.0692822 2.36034e-06 0.0692849)
(0.0656191 0.0222856 -0.00174854 0.0656191 2.29297e-06 0.0656191)
(0.0656178 0.0222856 -0.00174854 0.0656215 1.80221e-06 0.0656178)
(0.0621216 0.020705 -0.00164754 0.0621216 2.12464e-06 0.0621216)
(0.0621233 0.020705 -0.00164755 0.0621181 2.80572e-06 0.0621233)
(0.0587886 0.019256 -0.00155328 0.0587886 2.5919e-06 0.0587886)
(0.0587863 0.0192561 -0.00155327 0.0587932 1.57889e-06 0.0587863)
(0.0556164 0.0179528 -0.0014666 0.0556164 2.13241e-06 0.0556164)
(0.0556193 0.0179528 -0.00146661 0.0556105 3.58549e-06 0.0556193)
(0.0526004 0.0168025 -0.00138964 0.0526004 1.06937e-06 0.0526004)
(0.0525968 0.0168025 -0.00138964 0.0526076 9.05565e-07 0.0525968)
(0.049735 0.0157861 -0.00132229 0.049735 1.91136e-06 0.0497351)
(0.0497393 0.0157862 -0.00132229 0.0497265 5.02987e-06 0.0497393)
(0.0470139 0.0148819 -0.0012625 0.0470139 -5.29673e-23 0.0470139)
(0.0470091 0.0148819 -0.0012625 0.0470235 -7.0912e-07 0.0470092)
(0.0444301 0.0140675 -0.00120952 0.0444301 1.8364e-06 0.0444302)
(0.044435 0.0140675 -0.00120952 0.0444206 7.88951e-06 0.0444349)
(0.0419763 0.0133162 -0.00116104 0.0419763 2.80865e-22 0.0419763)
(0.0419723 0.0133162 -0.00116104 0.0419843 -5.48697e-06 0.0419724)
(0.0396451 0.0125975 -0.00111537 0.0396451 3.9447e-06 0.0396452)
(0.039647 0.0125976 -0.00111538 0.0396415 8.90704e-06 0.039647)
(0.0374296 0.0118615 -0.00106931 0.0374296 -3.35287e-06 0.0374298)
(0.0374302 0.0118615 -0.00106931 0.0374285 -9.08745e-06 0.0374302)
(0.0353239 0.0110852 -0.00101746 0.0353239 -3.40113e-22 0.0353239)
(0.0353209 0.0110852 -0.00101745 0.0353297 5.8028e-06 0.0353211)
(0.0333233 0.0102814 -0.000960924 0.0333233 -2.7262e-06 0.0333234)
(0.0333274 0.0102814 -0.000960927 0.0333154 -8.85064e-06 0.0333273)
(0.0314247 0.0094569 -0.000900539 0.0314247 5.94868e-22 0.0314247)
(0.0314204 0.00945688 -0.000900533 0.0314333 2.92998e-07 0.0314205)
(0.0296257 0.00863468 -0.000836441 0.0296257 -2.87146e-06 0.0296258)
(0.0296297 0.00863467 -0.000836441 0.0296178 -6.2295e-06 0.0296297)
(0.027925 0.00782875 -0.000772532 0.027925 -3.30125e-06 0.0279249)
(0.0279215 0.00782873 -0.000772528 0.0279317 -1.93119e-06 0.0279216)
(0.0263215 0.0070363 -0.000707493 0.0263215 -3.47539e-06 0.0263215)
(0.0263243 0.0070363 -0.000707494 0.0263159 -5.05383e-06 0.0263243)
(0.0248151 0.00627957 -0.00064215 0.0248151 -4.12294e-06 0.024815)
(0.0248128 0.00627957 -0.000642149 0.0248195 -3.0682e-06 0.0248128)
(0.0234056 0.00557359 -0.000580015 0.0234056 -3.83291e-06 0.0234056)
(0.0234073 0.00557359 -0.000580015 0.0234021 -4.56145e-06 0.0234073)
(0.022093 0.00493204 -0.000520749 0.022093 -4.16786e-06 0.022093)
(0.0220917 0.00493204 -0.000520748 0.0220956 -3.69982e-06 0.0220918)
(0.0208775 0.00439917 -0.000467768 0.0208775 -4.05655e-06 0.0208775)
(0.0208783 0.00439917 -0.000467769 0.0208757 -4.38659e-06 0.0208783)
(0.0197583 0.00400162 -0.000427125 0.0197583 -4.24951e-06 0.0197583)
(0.0197577 0.00400162 -0.000427125 0.0197595 -4.07964e-06 0.0197577)
(0.0187344 0.00374392 -0.000399159 0.0187344 -4.23047e-06 0.0187344)
(0.0187348 0.00374392 -0.000399159 0.0187336 -4.39045e-06 0.0187348)
(0.0178039 0.00363828 -0.00038566 0.0178039 -4.32746e-06 0.0178039)
(0.0178035 0.00363828 -0.00038566 0.0178045 -4.28911e-06 0.0178035)
(0.0169642 0.00368026 -0.000388709 0.0169639 -4.34624e-06 0.0169642)
(0.0169643 0.00368026 -0.000388709 0.0169636 -4.4196e-06 0.0169643)
(0.0162112 0.00384713 -0.0004067 0.0162116 -4.37655e-06 0.0162112)
(0.0162113 0.00384713 -0.0004067 0.0162113 -4.38365e-06 0.0162113)
(0.015541 0.00410743 -0.000437698 0.0155407 -4.41265e-06 0.015541)
(0.015541 0.00410743 -0.000437698 0.0155407 -4.42289e-06 0.015541)
(0.0149468 0.00441393 -0.000477875 0.0149471 -4.34784e-06 0.0149468)
(0.0149469 0.00441393 -0.000477875 0.0149469 -4.36579e-06 0.0149469)
(0.0144226 0.00470252 -0.000521324 0.0144225 -4.37326e-06 0.0144226)
(0.0144226 0.00470252 -0.000521324 0.0144225 -4.37494e-06 0.0144226)
(0.0139608 0.00492555 -0.000559693 0.0139611 -4.28275e-06 0.0139608)
(0.0139609 0.00492555 -0.000559693 0.0139609 -4.29188e-06 0.0139609)
(0.0135557 0.00506988 -0.000590083 0.0135555 -4.27905e-06 0.0135557)
(0.0135557 0.00506989 -0.000590083 0.0135555 -4.28028e-06 0.0135557)
(0.0132015 0.00514951 -0.000611625 0.0132018 -4.21754e-06 0.0132015)
(0.0132016 0.00514952 -0.000611625 0.0132016 -4.21845e-06 0.0132016)
(0.0128949 0.00520163 -0.000627777 0.0128948 -4.16129e-06 0.0128949)
(0.0128949 0.00520163 -0.000627777 0.0128948 -4.16242e-06 0.0128949)
(0.012632 0.0052596 -0.000643496 0.0126321 -4.1059e-06 0.012632)
(0.012632 0.0052596 -0.000643497 0.0126321 -4.10704e-06 0.012632)
(0.01241 0.00534722 -0.000661788 0.01241 -4.01419e-06 0.01241)
(0.01241 0.00534722 -0.000661788 0.01241 -4.01545e-06 0.01241)
(0.0122249 0.00548013 -0.0006857 0.0122252 -3.94161e-06 0.0122249)
(0.012225 0.00548013 -0.000685701 0.0122252 -3.94292e-06 0.012225)
(0.0120728 0.00566188 -0.000716486 0.012073 -3.85972e-06 0.0120728)
(0.0120729 0.00566189 -0.000716486 0.0120729 -3.86298e-06 0.0120729)
(0.0119482 0.0058889 -0.000754302 0.0119483 -3.865e-06 0.0119482)
(0.0119482 0.0058889 -0.000754302 0.0119483 -3.8665e-06 0.0119482)
(0.0118448 0.00616493 -0.000798577 0.0118451 -3.86452e-06 0.0118448)
(0.0118449 0.00616493 -0.000798577 0.0118449 -3.87101e-06 0.0118449)
(0.0117555 0.00648431 -0.000851424 0.0117554 -3.95151e-06 0.0117555)
(0.0117556 0.00648431 -0.000851424 0.0117554 -3.95319e-06 0.0117556)
(0.0116713 0.00680933 -0.000909653 0.0116716 -4.05672e-06 0.0116713)
(0.0116713 0.00680933 -0.000909654 0.0116716 -4.05856e-06 0.0116713)
(0.0115834 0.00708154 -0.000966517 0.0115835 -4.19068e-06 0.0115834)
(0.0115834 0.00708154 -0.000966517 0.0115834 -4.20125e-06 0.0115834)
(0.0114833 0.00723011 -0.0010125 0.0114834 -4.41775e-06 0.0114833)
(0.0114834 0.00723012 -0.0010125 0.0114834 -4.41982e-06 0.0114834)
(0.0113659 0.00720337 -0.00103654 0.0113659 -4.62931e-06 0.0113659)
(0.0113659 0.00720337 -0.00103654 0.0113659 -4.64262e-06 0.0113659)
(0.0112301 0.0069899 -0.00103367 0.0112298 -4.88225e-06 0.0112301)
(0.0112301 0.0069899 -0.00103367 0.0112298 -4.8846e-06 0.0112301)
(0.0110795 0.00662633 -0.00100367 0.0110797 -5.0364e-06 0.0110795)
(0.0110795 0.00662634 -0.00100367 0.0110797 -5.03886e-06 0.0110795)
(0.010922 0.00619216 -0.000955503 0.0109217 -5.0768e-06 0.010922)
(0.0109219 0.00619216 -0.000955503 0.0109219 -5.07948e-06 0.0109219)
(0.0107654 0.00578648 -0.000902153 0.0107657 -5.07905e-06 0.0107654)
(0.0107655 0.00578649 -0.000902154 0.0107657 -5.08198e-06 0.0107655)
(0.0106178 0.00552112 -0.000859769 0.0106182 -4.8919e-06 0.0106178)
(0.0106179 0.00552112 -0.000859769 0.0106179 -4.90512e-06 0.0106179)
(0.0104831 0.00545402 -0.000846971 0.0104831 -4.86336e-06 0.0104831)
(0.0104832 0.00545402 -0.000846971 0.0104831 -4.86654e-06 0.0104832)
(0.0103608 0.00555377 -0.000864784 0.0103615 -4.78934e-06 0.0103608)
(0.0103609 0.00555377 -0.000864785 0.0103615 -4.7928e-06 0.0103609)
(0.0102483 0.00573069 -0.000904635 0.0102481 -4.82813e-06 0.0102483)
(0.0102483 0.00573069 -0.000904635 0.0102483 -4.84377e-06 0.0102483)
(0.0101395 0.00587573 -0.00094823 0.0101397 -4.98387e-06 0.0101395)
(0.0101395 0.00587573 -0.000948231 0.0101397 -4.98786e-06 0.0101395)
(0.0100304 0.00593343 -0.000979247 0.0100305 -5.06146e-06 0.0100304)
(0.0100305 0.00593343 -0.000979247 0.0100305 -5.07567e-06 0.0100305)
(0.00991843 0.00589867 -0.000995435 0.00991829 -5.25072e-06 0.00991843)