/*--------------------------------*- C++ -*----------------------------------*\
| =========                 |                                                 |
| \\      /  F ield         | OpenFOAM: The Open Source CFD Toolbox           |
|  \\    /   O peration     | Version:  2012                                  |
|   \\  /    A nd           | Website:  www.openfoam.com                      |
|    \\/     M anipulation  |                                                 |
\*---------------------------------------------------------------------------*/
FoamFile
{
    version     2.0;
    format      ascii;
    class       volTensorField;
    location    "10500";
    object      grad(U);
}
// * * * * * * * * * * * * * * * * * * * * * * * * * * * * * * * * * * * * * //

dimensions      [0 0 -1 0 0 0 0];


internalField   nonuniform List<tensor> 
2560
(
(0 -1.08206e-14 5.82566e-14 297.51 0 2.55865 0.431727 0 0.00366351)
(0 0 5.71445e-19 297.235 -0.00544578 0.000248366 0.431727 -0.000386062 -0.00365411)
(-2.88386e-16 7.04068e-20 3.86235e-14 295.947 0.0217571 -5.55171e-17 1.29633 4.70204e-05 0)
(0 -3.52034e-20 1.12651e-18 295.678 0.121056 -0.000175884 1.29633 4.65319e-05 -0.00550163)
(-5.62457e-17 -6.93977e-20 8.09448e-19 294.573 -0.0695144 -0.774525 1.76418 3.08563e-05 0.00267804)
(0 1.34458e-19 -2.22073e-18 294.317 0.0539212 -3.9e-05 1.7627 3.00716e-05 -0.00483394)
(1.76221e-16 -2.71049e-19 5.47225e-19 293.188 -0.0461651 -1.00751 1.78139 9.75663e-07 0.00320088)
(0 2.71049e-19 -5.47225e-19 292.953 0.0356787 -1.2981e-05 1.78003 -6.51154e-08 -0.00319267)
(1.10465e-15 -4.06906e-19 1.34845e-18 291.789 -0.0220328 -0.697725 1.79857 -2.5603e-07 0.0018023)
(-5.52327e-16 4.0638e-19 -1.07876e-18 291.578 0.0219304 -1.06117e-05 1.79735 -1.46797e-06 -0.00179767)
(9.64417e-16 -2.03295e-19 3.98738e-19 290.233 -0.0123439 -0.354556 1.81406 8.98344e-07 0.00106567)
(3.36124e-15 2.7105e-19 -5.31651e-19 290.049 0.0127257 -3.24494e-06 1.813 -3.77424e-07 -0.00106293)
(-5.44099e-16 -1.35518e-19 0 288.298 -0.00842865 -0.177573 1.82664 1.04967e-06 0.000701708)
(2.1769e-15 2.71051e-19 -1.31008e-19 288.142 0.00828961 -7.67713e-07 1.82574 -2.75847e-07 -0.000699908)
(-6.69505e-16 2.70997e-19 -3.22825e-19 285.887 -0.005957 -0.0974058 1.83609 5.39188e-07 0.000506288)
(2.67843e-15 -2.03279e-19 1.93695e-19 285.758 0.00609739 -2.21501e-07 1.83535 -8.20885e-07 -0.000504988)
(1.83833e-15 -1.35545e-19 6.36396e-20 283.196 -0.00475662 -0.0588018 1.84492 1.57446e-06 0.000390302)
(0 2.03286e-19 -6.36396e-20 283.094 0.0045937 -8.9515e-08 1.84434 1.87412e-07 -0.0003893)
(0 2.71248e-19 -1.88183e-19 280.644 -0.00368157 -0.038333 1.85597 4.01694e-08 0.000299168)
(-1.02773e-15 -2.03374e-19 6.27275e-20 280.567 0.00384035 -2.15797e-08 1.85554 -1.38581e-06 -0.000314701)
(-1.04934e-15 -4.7434e-19 1.4646e-19 278.284 -0.00322634 -0.0265005 1.86716 2.16372e-06 0.00020565)
(0 5.42207e-19 -1.54571e-19 278.23 0.00311006 -2.12886e-08 1.86687 7.46882e-07 -0.00026342)
(5.17122e-15 -7.45353e-19 2.54663e-19 275.959 -0.00273058 -0.0191652 1.87857 -3.48112e-07 0.000148478)
(-3.99392e-15 7.45353e-19 -2.13298e-19 275.927 0.00277194 2.21853e-07 1.87841 -1.82761e-06 -0.000226396)
(0 -2.03436e-19 9.01033e-20 273.767 -0.00223702 -0.0143883 1.89144 2.3699e-06 0.000111386)
(0 2.71248e-19 -9.01033e-20 273.753 0.043137 0.000157886 1.89141 9.34682e-07 -0.00019862)
(-3.37567e-15 2.66436e-19 -7.17498e-20 271.573 -0.00210629 -0.0110525 1.90272 0.000141466 8.65686e-05)
(5.74213e-15 2.40741e-34 2.9604e-20 271.576 -1.38802e-17 1.82154e-06 1.9028 2.71051e-20 -0.000176487)
(-1.91232e-15 5.25234e-19 -1.45898e-19 268.921 -0.00177059 -0.00872095 1.909 -1.56505e-05 6.77077e-05)
(1.91232e-15 -5.25234e-19 1.45898e-19 268.939 0.103637 0.000142211 1.90917 -0.000284045 -0.000160151)
(-1.69927e-15 0 1.6309e-20 265.456 -0.00270189 -0.00696637 1.90827 0.000511239 5.58165e-05)
(6.79695e-15 -4.81482e-35 -2.87614e-20 265.486 -1.96688e-17 8.38621e-06 1.90853 -4.90865e-35 -0.000145169)
(0 -4.69888e-17 -1.70095e-19 261.062 2.93002e-17 -0.00562733 1.90034 1.0842e-19 4.42769e-05)
(-7.331e-15 6.23377e-17 1.70095e-19 261.102 0.0803006 -0.000143465 1.90066 -0.000292879 -0.000135177)
(0 1.45303e-18 -8.38287e-20 256.136 -0.00161951 -0.00467417 1.89073 0.00082187 3.7774e-05)
(-7.8638e-15 -3.41538e-19 8.38287e-20 256.183 -3.07808e-17 2.55172e-06 1.8911 -1.0842e-19 -0.000125222)
(3.61004e-15 -1.1017e-19 5.50848e-20 251.655 -0.000826311 -0.00390188 1.88823 -0.00031165 3.13634e-05)
(0 1.20613e-29 -6.8856e-20 251.708 3.46325e-17 -4.23327e-06 1.88864 0 -0.000117936)
(2.2275e-15 1.08591e-18 -6.98254e-20 248.396 -0.00188422 -0.00328951 1.8961 0.000987604 2.71992e-05)
(-8.90977e-15 -5.47375e-19 1.22164e-19 248.451 -3.42109e-20 4.10837e-07 1.89653 0 -0.000110627)
(0 -2.14068e-19 -8.02757e-20 246.216 -0.000699772 -0.0027952 1.90961 -0.000916744 2.28849e-05)
(0 3.0582e-19 8.02757e-20 246.273 3.46754e-17 -6.21945e-06 1.91006 0 -0.000105454)
(-2.48798e-15 -6.33001e-19 2.84836e-20 244.356 -0.00162249 -0.00239323 1.92225 0.00115339 2.03002e-05)
(0 -1.15556e-33 -5.27501e-20 244.413 -3.46545e-17 -7.70655e-07 1.9227 2.1684e-19 -9.98758e-05)
(7.6023e-15 2.07976e-19 1.19001e-19 242.209 -0.000272499 -0.00212301 1.93114 -0.00126549 1.72061e-05)
(0 9.62965e-35 -1.29985e-19 242.265 -2.16469e-35 0.000272934 1.93159 2.1684e-19 -9.61121e-05)
(0 1.63996e-18 -2.56244e-20 239.636 -0.00189863 -0.00177591 1.93674 0.00158495 1.65645e-05)
(-1.10133e-14 -6.59214e-19 5.12488e-20 239.691 -5.49345e-20 5.82283e-06 1.93717 0 -9.03534e-05)
(2.88737e-15 -8.08229e-19 -6.50671e-20 236.727 -0.000348583 -0.0015137 1.93973 -0.00196426 1.20671e-05)
(0 4.81482e-35 7.57714e-20 236.779 3.69932e-32 -3.76058e-05 1.94016 3.78607e-35 -8.8973e-05)
(-6.044e-15 3.5849e-18 -1.07061e-19 233.506 -0.00223969 -0.0013201 1.93957 0.00220794 1.27248e-05)
(0 0 8.7133e-20 233.556 -7.37226e-17 1.2953e-05 1.93997 -4.33681e-19 -8.43034e-05)
(1.59043e-14 1.96307e-18 1.16905e-19 229.871 -1.47864e-05 -0.00110425 1.93485 -0.0025362 9.18084e-06)
(2.52576e-14 0 -8.58842e-20 229.918 8.32667e-17 -0.000116553 1.93523 4.33681e-19 -8.34789e-05)
(0 -3.09589e-18 8.46532e-20 225.684 -0.00223953 -0.000984097 1.92425 0.00263836 9.43293e-06)
(1.31718e-14 0 -8.46532e-20 225.727 -8.55967e-17 9.2015e-06 1.92461 0 -8.01365e-05)
(3.04069e-16 -1.14432e-18 -2.57566e-20 220.889 0.000486424 -0.000854543 1.90774 -0.00283903 7.38027e-06)
(0 3.94217e-19 2.384e-20 220.928 9.85542e-20 5.39439e-06 1.90807 -4.33681e-19 -7.9262e-05)
(-7.12787e-15 0 -1.91938e-20 215.671 -0.00243846 -0.000743597 1.88812 0.00294827 7.44533e-06)
(-2.85111e-14 -4.08932e-18 0 215.706 1.02233e-19 1.84033e-06 1.88841 4.33681e-19 -7.64029e-05)
(-3.6972e-15 -1.11175e-18 -4.45359e-20 210.575 0.000917398 -0.000649255 1.87196 -0.00315616 5.62951e-06)
(-1.47887e-14 2.19114e-18 2.31615e-20 210.606 9.7035e-17 -1.40043e-05 1.87222 -4.33681e-19 -7.60091e-05)
(0 4.38327e-18 -6.84886e-20 206.443 -0.00276242 -0.00057069 1.86804 0.00326662 5.96654e-06)
(-1.53105e-14 -1.35933e-18 6.84886e-20 206.47 -6.82562e-18 -3.10698e-06 1.86825 -4.33681e-19 -7.35605e-05)
(0 2.16022e-18 7.87582e-20 204.113 0.00148563 -0.000500235 1.88366 -0.00347386 4.36075e-06)
(1.58203e-14 7.88861e-31 -7.87582e-20 204.135 -1.2058e-19 -1.79975e-05 1.88383 -4.33681e-19 -7.34629e-05)
(-4.08058e-15 0 1.83617e-21 204.041 -0.00322215 -0.000440382 1.9214 0.00358429 4.83696e-06)
(0 -1.92593e-34 -2.21798e-20 204.058 -1.06653e-16 -2.06721e-06 1.92154 -4.33681e-19 -7.13367e-05)
(-4.20602e-15 -2.79833e-18 -7.5058e-20 206.111 0.00203405 -0.000452384 1.97827 -0.00378756 3.36428e-06)
(0 0 6.55858e-20 206.123 1.37463e-17 0.000293863 1.97837 7.29774e-35 -7.14417e-05)
(-4.33373e-15 4.13733e-18 -5.18059e-20 209.703 -0.0039692 -0.000324715 2.04714 0.00418831 5.20736e-06)
(-1.73349e-14 -2.32407e-18 3.23229e-20 209.712 -4.35763e-19 7.09059e-06 2.0472 0 -6.77855e-05)
(1.00336e-14 1.35934e-18 2.64299e-17 213.942 0.00261441 -0.000204314 2.11935 -0.00468819 9.94626e-07)
(-5.56787e-15 -3.85186e-33 -3.18596e-20 213.946 1.11022e-16 0.00105831 2.11938 -8.67362e-19 -6.98959e-05)
(4.60339e-15 -4.01958e-18 4.89726e-20 217.974 -0.00474563 -0.000202938 2.18735 0.00609692 9.05038e-06)
(0 -7.70372e-34 -4.18706e-20 217.975 0 2.21573e-05 2.18735 0 -6.00548e-05)
(-4.74687e-15 -2.64131e-18 7.44793e-34 221.226 0.00329954 -1.89735e-18 2.2471 -0.00764771 0)
(0 1.06157e-18 2.06353e-20 221.225 1.11288e-16 0.00044779 2.24707 8.67362e-19 -6.8923e-05)
(0 6.50864e-18 -5.08488e-20 223.632 -0.00539057 -7.9548e-05 2.3007 0.0094295 9.85391e-06)
(0 -1.30837e-18 5.08488e-20 223.627 -5.55112e-16 2.82577e-05 2.30062 1.73472e-18 -5.65102e-05)
(-5.04694e-15 -2.56614e-18 3.77544e-18 225.838 0.00395239 1.8567e-18 2.35875 -0.0114231 0)
(2.01878e-14 0 0 225.827 -7.92756e-19 -0.000304573 2.35862 -1.73472e-18 -6.85544e-05)
(0 -1.26468e-17 5.92819e-20 229.311 -0.00587306 2.6099e-05 2.44132 0.0128439 7.67655e-06)
(2.07967e-14 0 -5.92819e-20 229.294 -7.78047e-16 2.34874e-05 2.44111 1.73472e-18 -5.82862e-05)
(5.34994e-15 -4.98622e-18 2.02615e-17 236.209 0.00456492 3.63686e-18 2.57539 -0.0145343 0)
(-2.13999e-14 8.0691e-18 5.84323e-20 236.185 5.55112e-17 -0.000732765 2.57508 -1.73472e-18 -6.87195e-05)
(5.49911e-15 -9.82951e-18 3.69988e-20 248.895 -0.00628477 0.000102163 2.7881 0.0152063 4.50407e-06)
(0 0 -2.87974e-20 248.86 -3.88578e-16 1.26821e-05 2.78768 -1.73472e-18 -6.34379e-05)
(-5.6495e-15 4.84431e-18 5.11996e-18 269.225 0.00511788 -3.19238e-20 3.09842 -0.0161707 0)
(0 0 -2.83847e-20 269.181 4.10749e-16 -0.000278354 3.09788 1.34457e-33 -6.92832e-05)
(5.80712e-15 7.16232e-18 -1.92943e-20 297.966 -0.00683413 0.000155751 3.51172 0.0165702 3.59139e-06)
(2.32288e-14 -2.61926e-32 1.86519e-20 297.913 -4.02456e-16 8.44428e-06 3.51108 0 -6.60007e-05)
(9.6388e-15 4.70645e-18 7.67075e-18 334.652 0.00577968 1.73472e-18 4.02049 -0.0172647 0)
(1.42822e-14 3.08149e-33 -3.67691e-20 334.592 8.46545e-16 0.000111499 4.01977 -5.27292e-33 -7.01543e-05)
(-6.1774e-15 0 -8.5359e-21 377.921 -0.00755426 0.000205098 4.60932 0.0177796 4.84292e-06)
(0 -7.70372e-34 -1.81211e-20 377.856 0 9.9541e-06 4.60857 3.46945e-18 -6.61885e-05)
(-6.40643e-15 0 0 426.163 0.00658651 -1.0842e-19 5.26346 -0.0185936 0)
(0 3.00445e-32 -1.78613e-20 426.099 4.45789e-16 0.00348416 5.26273 3.46945e-18 -7.13337e-05)
(9.23027e-15 -4.50697e-18 1.76053e-20 478.032 -0.00740431 0.000283161 5.97172 0.0225092 2.59333e-05)
(-9.23027e-15 4.62223e-32 -1.76053e-20 477.971 -6.69257e-16 5.97484e-05 5.97104 -3.46945e-18 -4.22871e-05)
(-6.98416e-15 4.44237e-18 1.99221e-17 532.184 0.00735195 0.000319927 6.7177 -0.0268191 1.90628e-06)
(0 1.54074e-33 -3.4706e-20 532.133 -6.16503e-34 -0.00315517 6.71717 0 -7.30774e-05)
(-8.96758e-15 2.18935e-17 -6.84172e-20 586.249 -0.00684045 0.000438889 7.46348 0.0274805 8.75572e-06)
(-2.93873e-14 -1.90668e-17 6.84172e-20 586.216 -6.40285e-16 0.000105402 7.46321 0 -6.78291e-05)
(-7.77208e-15 2.58957e-17 5.76273e-20 635.46 0.00711674 0.000548192 8.13051 -0.0285004 4.66305e-06)
(2.22492e-14 0 -6.74366e-20 635.453 1.2728e-15 0.000615791 8.13062 -4.20463e-30 -7.51834e-05)
(0 2.55245e-17 -6.64701e-20 671.448 -0.00691621 0.000827711 8.58431 0.0293696 1.60197e-05)
(0 1.54074e-33 6.64701e-20 671.477 -2.77556e-17 0.000289187 8.58494 3.46945e-18 -6.73032e-05)
(-8.86252e-15 -1.25793e-17 -5.85207e-20 681.75 0.00457598 0.00108042 8.63071 -0.0305683 1.12272e-05)
(3.54493e-14 0 4.9138e-20 681.827 6.72038e-16 0.00129199 8.63203 3.46945e-18 -7.86715e-05)
(3.60158e-14 -1.65321e-17 4.20516e-20 650.89 -0.00840845 0.00163439 8.03944 0.0318439 3.07835e-05)
(2.1244e-14 -4.93038e-32 -3.22892e-20 651.024 -6.63924e-16 0.000507354 8.04157 9.49453e-33 -6.57907e-05)
(1.66862e-14 8.14755e-18 3.18264e-20 563.311 0.00033425 0.00202971 6.59078 -0.0335129 2.19053e-05)
(0 -5.54668e-32 -3.18264e-20 563.509 7.77156e-16 0.00165157 6.5938 -6.93889e-18 -8.61271e-05)
(-1.10996e-14 -8.03078e-18 1.31194e-20 407.736 -0.00855192 0.002706 4.14288 0.0353037 4.96477e-05)
(0 1.01689e-31 -4.70553e-20 407.999 -1.50125e-15 0.000523866 4.1468 6.93889e-18 -6.79674e-05)
(-1.62614e-12 -2.3747e-17 -6.5578e-20 104.759 -0.00191539 0.00305246 0.700624 -0.0377005 3.18828e-05)
(4.74571e-14 -3.08149e-33 7.73015e-20 105.47 -1.81527e-33 0.000904495 0.705375 3.63054e-33 -0.000100878)
(2.09408e-12 0 -3.02946e-21 -0.700427 -0.00354638 0.00338881 0.00475253 0.0398127 6.02972e-05)
(0 0 -3.04774e-20 -6.00547e-15 -2.76239e-18 0.000149345 0 6.93889e-18 -8.1956e-05)
(-2.70231e-14 1.53808e-17 1.7542e-20 -426.099 -0.000961883 0.00340986 3.54502 -0.0427479 3.34005e-05)
(6.08456e-14 0 -6.00812e-20 -425.69 8.61818e-16 -0.000823484 3.5396 6.93889e-18 -0.00012329)
(-1.00539e-14 1.51604e-17 -6.73987e-20 -752.525 0.00447508 0.00305032 8.22155 0.0447024 5.19465e-05)
(0 -5.79931e-32 2.96101e-20 -752.102 -8.35769e-16 -0.000429264 8.21571 0 -0.000110705)
(-1.70469e-14 -2.98861e-17 -9.27801e-20 -1046.77 -0.000793053 0.00269212 12.8341 -0.0474818 2.4153e-05)
(-3.4097e-14 2.63584e-17 5.83713e-20 -1046.35 3.2948e-18 -0.00224728 12.8282 0 -0.000147948)
(-1.35891e-14 -5.15511e-17 8.25194e-20 -1276.76 0.00934789 0.00182372 16.8624 0.0488389 2.83165e-05)
(5.43626e-14 0 -8.63021e-20 -1276.38 -9.40301e-16 -0.000773402 16.8567 5.92497e-30 -0.000145412)
(-1.49948e-14 -5.08123e-17 -2.35574e-19 -1421.02 -0.00468577 0.00131031 19.8714 -0.0508078 9.77438e-06)
(-1.99959e-14 1.41023e-17 1.7013e-19 -1420.7 1.94071e-15 -0.00188665 19.8663 0 -0.000166785)
(-3.26071e-15 -5.0084e-17 7.20817e-19 -1471.8 0.00930662 3.16452e-18 21.5952 0.0515568 0)
(1.30451e-14 -1.57772e-30 -1.11795e-19 -1471.57 9.23089e-16 0.00209634 21.5911 -6.93889e-18 -0.000168581)
(-5.53671e-15 1.41046e-17 4.73634e-20 -1434.72 -0.00959079 -0.000279005 21.9674 -0.0508878 8.80803e-06)
(7.22156e-15 6.16298e-33 -2.75481e-20 -1434.59 7.06227e-18 0.0005374 21.9647 6.93889e-18 -0.000151406)
(0 -5.56098e-17 2.25988e-20 -1325.54 0.00733168 -8.58214e-20 21.1064 0.0509719 0)
(1.35989e-15 0 -1.62919e-19 -1325.53 9.4369e-16 0.00111627 21.1053 -6.93889e-18 -0.00016265)
(0 6.8516e-18 5.35281e-20 -1165.3 -0.0116549 -0.000748379 13.9246 -0.050041 2.08484e-05)
(3.50802e-15 0 -5.35281e-20 -1165.41 -8.88178e-16 0.000192991 13.9245 6.93889e-18 -0.000137584)
(-8.64435e-16 6.7534e-18 1.69024e-17 -975.57 0.00592904 -0.000273797 5.55581 0.0497846 2.14628e-06)
(-8.64435e-16 1.2326e-32 2.63805e-20 -975.809 -1.08347e-32 9.00765e-05 5.55578 -6.93889e-18 -0.000155678)
(2.13011e-16 -3.99396e-17 -7.80071e-20 -775.106 -0.0105618 -0.000703477 -1.36175 -0.0489691 2.16178e-05)
(-2.13011e-16 2.13996e-14 7.80071e-20 -775.452 -1.66533e-15 -5.65773e-06 -1.36177 0 -0.000130651)
(0 0 -4.16455e-20 -578.025 0.00539873 -7.55282e-05 -6.76476 0.0486815 6.09405e-07)
(0 0 0 -578.433 1.78311e-15 0.0043019 -6.76478 0 -0.000150441)
(-3.31119e-15 1.61679e-18 -5.05247e-20 -393.611 -0.00751177 -0.0178989 -5.03703 -0.00350967 -4.85277e-05)
(1.81385e-16 0 -1.54074e-33 -394.03 8.88178e-16 1.6263e-18 -5.04388 4.33681e-19 -6.77626e-21)
(0 1.19521e-18 -3.11253e-21 -227.107 0.0060771 -0.000309289 -2.48903 0.00293611 4.42156e-06)
(-5.94343e-15 0 0 -227.509 -5.51035e-17 -0.00565207 -2.49553 -6.78859e-34 -4.4216e-06)
(-8.98824e-13 0 0 -26.1965 -0.0058081 -0.000294425 -0.220723 -0.00241352 -4.39061e-06)
(0 0 -9.40395e-38 -26.9107 2.77556e-17 -7.23157e-20 -0.226741 5.44973e-35 -8.45588e-38)
(-1.444e-12 1.54826e-18 0 0.025006 0.00525431 -0.000284879 -0.000213756 0.00198293 3.49456e-06)
(2.02064e-15 -6.49006e-15 0 0 0 -0.000401877 -1.77636e-15 0 -3.49459e-06)
(0 0 0 149.219 -0.0047178 -0.000257697 -1.75435 -0.000137803 -3.49788e-06)
(0 5.31867e-15 -4.85417e-22 148.918 2.18867e-19 -4.85417e-22 -1.74886 0 0)
(0 -5.64075e-19 1.46895e-21 234.39 0.00429557 -0.00024512 -3.43421 0.00126756 2.45758e-06)
(0 3.08149e-33 0 234.124 -2.79317e-17 -0.000370517 -3.42925 -2.1684e-19 -2.45762e-06)
(-2.04793e-16 -5.97771e-17 2.89578e-21 301.319 2.97928e-19 -0.000218434 -4.82506 0 -2.47314e-06)
(0 1.8533e-19 -3.43205e-22 301.088 -0.0539639 3.43205e-22 -4.82065 -0.00098375 4.23516e-22)
(-1.40692e-15 5.48022e-19 -7.1357e-22 351.758 0.00348584 -0.000204015 -5.94196 0.000780415 1.55792e-06)
(1.49647e-15 -2.5324e-15 7.1357e-22 351.566 -6.83039e-18 -0.000308633 -5.93813 1.0842e-19 -1.55795e-06)
(0 -1.44632e-16 0 387.764 -8.25928e-20 -0.000176784 -3.18453 0 -1.5774e-06)
(0 0 -8.75588e-22 387.617 -0.0313261 -4.37794e-22 -3.18451 -0.000600821 2.11758e-22)
(0 -3.5495e-19 6.93262e-22 411.657 0.00292668 -0.000157031 0.539367 0.000481012 8.18567e-07)
(0 0 -6.93262e-22 411.567 -6.6961e-20 -0.000240151 0.53939 5.42101e-20 -8.18601e-07)
(0 -3.61668e-17 0 425.882 5.63785e-18 -0.000127426 4.49092 0 -8.31796e-07)
(0 -3.49863e-19 0 425.846 -0.014983 0 4.49094 -0.000385256 1.05879e-22)
(2.71242e-17 8.19015e-19 6.73532e-22 432.731 0.00246861 -0.000110269 8.39998 0.000326871 2.91932e-07)
(1.08271e-16 -1.06777e-18 -6.73532e-22 432.736 5.29533e-18 -4.55394e-05 8.40041 0 8.53357e-07)
(0 -2.83659e-17 0 434.109 -3.90313e-18 -9.13822e-05 8.50363 0 -2.92737e-07)
(0 2.12441e-19 6.63879e-22 434.143 -0.00398273 5.2812e-05 8.50453 -0.000287351 6.70518e-07)
(-1.18107e-15 -1.0051e-18 -2.29027e-21 431.37 0.00206171 -6.47518e-07 8.53707 0.0002772 -5.94827e-07)
(4.7236e-15 -1.92593e-34 0 431.424 3.86919e-20 3.13417e-22 8.5383 5.42101e-20 0)
(-7.18841e-15 -4.42618e-17 6.44985e-22 425.244 -3.94046e-18 0.000106111 8.50542 0 -9.08847e-08)
(-7.11073e-15 -2.47674e-19 -1.46125e-21 425.311 -0.0015647 -5.66471e-06 8.50688 -0.000275127 1.21181e-07)
(2.3824e-15 -4.47561e-19 -6.35741e-22 415.851 0.00166441 0.000129035 8.40247 0.000253269 8.10094e-08)
(9.52872e-15 0 9.27529e-22 415.927 4.33681e-19 1.23851e-05 8.40409 0 6.14516e-07)
(-2.99178e-15 -3.63925e-17 0 402.819 3.09824e-18 0.000162679 8.21306 2.71051e-20 -8.01708e-08)
(1.19662e-14 -8.82293e-19 0 402.9 -0.0029634 4.50304e-05 8.2148 -0.000231068 4.03817e-07)
(-3.6028e-15 0 0 385.469 0.00127946 0.000194232 7.9172 0.000215393 6.97408e-08)
(0 -1.43168e-16 0 385.554 3.0057e-18 0.000162191 7.91903 0 -7.12547e-08)
(-4.21089e-15 -1.61412e-17 0 363.042 2.41159e-18 0.000227677 7.49448 0 -7.13699e-08)
(0 1.94814e-19 0 363.13 -0.00255945 0.000228824 7.49638 -0.00019565 7.30528e-08)
(-4.8094e-15 -6.52876e-19 0 334.933 0.000933338 0.000249437 6.92947 0.000180902 5.94854e-08)
(1.92365e-14 -1.2326e-32 0 335.023 -2.52418e-20 0.000248562 6.93142 0 -6.10998e-08)
(5.38923e-15 -4.35351e-17 0 300.918 -4.14252e-18 0.000262322 6.21662 0 -6.37419e-08)
(0 4.73175e-19 0 301.008 -0.00222202 0.000263317 6.2186 -0.000168152 6.55206e-08)
(9.78098e-15 -3.35803e-19 2.33197e-21 261.31 0.000716365 0.000257077 5.3635 0.000149314 5.03034e-08)
(0 -4.81482e-34 0 261.399 1.75554e-18 0.000256332 5.36548 7.50811e-35 -5.2003e-08)
(-6.44623e-15 -1.18063e-17 0 217.004 1.94958e-20 0.000238727 4.39117 0 -5.70723e-08)
(0 5.33262e-19 0 217.091 -0.00186969 0.00023959 4.39312 -0.000145967 5.89304e-08)
(9.50261e-15 -1.35936e-18 0 169.434 0.000597494 0.000201803 3.33384 0.00012176 4.20823e-08)
(4.56771e-14 0 0 169.518 1.30104e-18 0.000201165 3.33572 1.90669e-32 -4.38495e-08)
(-9.36642e-15 -8.06669e-18 0 120.492 -1.0842e-19 0.000156639 2.23721 0 -5.11976e-08)
(2.91243e-14 2.67975e-19 0 120.57 -0.00144431 0.000157381 2.23898 -0.000126973 5.31143e-08)
(-1.68194e-14 1.00371e-18 0 72.3204 0.000580913 0.000102773 1.15221 0.000100713 3.48136e-08)
(-2.11157e-14 -1.16271e-16 0 72.3929 -2.79707e-20 0.000102221 1.15384 1.35525e-20 -3.66278e-08)
(1.79878e-13 -4.6659e-18 2.97761e-19 10.9571 -1.24683e-18 2.52691e-05 0.130548 -1.35525e-20 -4.59566e-08)
(-7.79315e-13 -4.68628e-19 -2.36616e-18 11.0791 -0.00107541 -2.65944e-23 0.132002 -0.000108811 0)
(3.05094e-13 4.10588e-19 3.15294e-20 -0.00810073 0.000594033 4.31422e-22 9.79196e-05 8.56774e-05 -3.30872e-24)
(-7.83621e-15 -2.73725e-19 -4.27696e-21 -6.64043e-13 8.43655e-19 8.92747e-07 -7.10543e-15 -1.35525e-20 -3.0318e-08)
(0 -6.65716e-18 4.08398e-19 -47.1859 1.02999e-18 -1.94538e-05 0.779954 0 -4.12472e-08)
(2.18554e-14 -2.02352e-19 0 -47.1399 -0.000821932 -4.76948e-22 0.778709 -9.06692e-05 -4.16065e-39)
(-9.96677e-15 1.20502e-18 -8.31047e-21 -73.4853 0.000557818 -6.64232e-05 1.54019 7.45614e-05 2.30241e-08)
(0 0 0 -73.4498 2.05286e-20 -6.68408e-05 1.53918 1.35525e-20 -2.48572e-08)
(0 -5.25152e-18 0 -91.5885 -7.31836e-19 -8.14143e-05 2.12117 0 -3.70277e-08)
(5.78709e-14 1.69561e-18 0 -91.5641 -0.000659851 -8.09703e-05 2.12041 -7.36356e-05 3.89674e-08)
(8.46616e-15 -3.39106e-19 0 -101.401 0.000427782 -8.7593e-05 2.50601 6.56212e-05 1.83426e-08)
(5.60524e-14 0 0 -101.388 7.76895e-19 -8.79501e-05 2.50553 8.5039e-35 -2.01427e-08)
(-1.35888e-14 1.80556e-34 0 -103.248 6.38772e-19 -8.39486e-05 2.68961 6.77626e-21 -3.33278e-08)
(0 0 0 -103.246 -0.000570731 -8.3572e-05 2.68941 -6.00654e-05 3.52175e-08)
(-6.61056e-15 0 0 -97.77 0.000302462 -7.60286e-05 2.6761 5.73954e-05 1.42763e-08)
(5.28844e-14 -1.44445e-34 0 -97.7785 -4.33681e-19 -7.63252e-05 2.67619 -4.6748e-35 -1.60128e-08)
(6.46621e-15 -6.94994e-18 0 -85.8308 -5.02421e-19 -6.4133e-05 2.47747 0 -3.02032e-08)
(0 5.41222e-19 0 -85.8491 -0.000513976 -6.38049e-05 2.47783 -4.99438e-05 3.2012e-08)
(-6.37052e-15 0 0 -68.4188 0.000225148 -5.18875e-05 2.11119 4.93195e-05 1.0636e-08)
(0 4.81482e-35 0 -68.4455 5.42101e-20 -5.21219e-05 2.11181 0 -1.22731e-08)
(-6.33078e-15 0 0 -46.5899 2.71051e-20 -3.86237e-05 1.59821 -7.57797e-35 -2.7736e-08)
(2.53227e-14 -5.40843e-19 0 -46.6234 -0.000446407 -3.83248e-05 1.59905 -4.20803e-05 2.94279e-08)
(-1.05265e-13 4.07222e-19 0 -16.4625 0.000195968 -2.56248e-05 0.962413 4.19113e-05 7.2011e-09)
(1.76445e-14 -3.00927e-36 0 -16.5433 4.33681e-19 -2.57953e-05 0.963424 0 -8.69973e-09)
(-1.27812e-14 0 0 0.0195051 0 -9.95276e-06 0.57049 0 -2.60082e-08)
(7.90083e-17 6.56813e-20 0 1.27815e-14 -0.000349095 -9.66582e-06 0.569315 -3.51813e-05 2.75409e-08)
(-6.31412e-15 5.39499e-19 0 34.2798 0.00016251 6.88028e-06 1.40651 3.62311e-05 3.76015e-09)
(0 -1.18939e-17 0 34.2394 -3.25261e-19 6.77569e-06 1.40536 -6.77626e-21 -5.072e-09)
(1.48693e-14 -1.91106e-18 0 62.4556 0 2.75165e-05 2.24272 0 -2.51104e-08)
(-2.51831e-14 5.42402e-19 0 62.418 -0.000268588 2.78057e-05 2.24167 -2.93694e-05 2.64308e-08)
(6.34059e-15 -4.71731e-19 0 89.1648 0.000164288 5.25315e-05 3.03987 3.20531e-05 1.22661e-10)
(2.53628e-14 0 0 89.1321 0 5.24923e-05 3.03898 3.38813e-21 -1.18845e-09)
(1.36751e-14 -3.76268e-18 0 113.106 -1.89735e-19 8.00432e-05 3.75635 3.38813e-21 -2.50981e-08)
(-3.30317e-14 5.44187e-19 0 113.081 -0.000273374 8.03425e-05 3.75569 -2.3613e-05 2.61384e-08)
(-6.63023e-15 4.07383e-19 0 133.016 0.000111342 0.000107147 4.35052 2.70136e-05 -3.82728e-09)
(2.65211e-14 7.22224e-35 -3.39486e-21 132.998 -1.89735e-19 0.00010717 4.35011 -2.0906e-35 3.08782e-09)
(0 -2.77533e-19 0 147.74 0 0.000136073 4.78295 -1.69407e-21 -2.59929e-08)
(-7.01749e-15 -3.37966e-19 0 147.731 -0.000211531 0.000136384 4.7828 -1.95102e-05 2.66606e-08)
(-1.38338e-14 5.37613e-19 -3.29824e-21 156.324 7.23949e-05 0.000164576 5.02007 2.3237e-05 -8.11927e-09)
(2.86841e-14 1.20371e-35 0 156.324 -5.03735e-35 0.000164652 5.02019 -3.38813e-21 7.81565e-09)
(1.43347e-14 -1.69648e-18 0 158.116 -1.0842e-19 0.000194113 5.03787 0 -2.77042e-08)
(-6.81777e-15 5.42911e-19 0 158.123 -0.000167482 0.000194429 5.03823 -1.66953e-05 2.78662e-08)
(-1.34401e-14 5.41539e-19 0 152.859 9.24467e-05 0.000226099 4.82537 2.03432e-05 -1.26465e-08)
(-3.15837e-14 -4.80972e-18 -6.40874e-21 152.873 -4.60764e-21 0.000226211 4.82592 3.38813e-21 1.29341e-08)
(-1.32475e-14 -1.28969e-19 -6.31689e-21 140.742 7.45389e-20 0.000263702 4.38639 0 -3.00302e-08)
(0 2.70047e-19 0 140.762 -0.000104344 0.00026401 4.38711 -1.32975e-05 2.94939e-08)
(-1.30576e-14 5.41693e-19 0 122.433 0.000138627 0.000310395 3.74165 1.90836e-05 -1.71893e-08)
(0 -5.73973e-18 -1.24527e-20 122.456 8.27741e-21 0.000310522 3.74247 1.69407e-21 1.82965e-08)
(9.05827e-15 0 0 99.0483 8.34579e-33 0.000369973 2.9275 -7.02305e-35 -3.26607e-08)
(0 -1.0832e-18 0 99.0736 -4.24984e-05 0.000370256 2.92839 -8.36372e-06 3.1142e-08)
(-3.295e-15 5.41399e-19 0 72.0796 0.000157503 0.000444581 1.99396 1.95672e-05 -2.14389e-08)
(0 -5.77777e-18 -6.04915e-21 72.1058 -1.35525e-19 0.0004447 1.99486 0 2.36992e-08)
(-1.93346e-14 0 0 43.2707 3.38813e-20 0.000535713 1.00038 1.81451e-06 -3.52461e-08)
(3.86686e-14 0 0 43.2965 -2.28975e-05 0.000535955 1.00126 -2.687e-06 3.23317e-08)
(9.98376e-14 0 0 0.543963 9.03447e-05 0.000639636 0.00957027 2.04805e-05 -2.5088e-08)
(0 0 0 0.590862 1.35525e-20 0.000639731 0.0103954 1.69407e-21 2.89895e-08)
(2.93847e-13 -1.11626e-19 0 -0.0222631 4.06576e-20 0.000752508 0.000397383 5.21133e-06 -3.75127e-08)
(-1.57772e-30 -3.38814e-19 -1.15855e-20 -5.52447e-13 -7.77602e-05 0.0007527 0 7.95264e-07 3.25976e-08)
(0 5.42425e-19 0 -36.4383 -5.55845e-05 0.000864135 0.917324 1.92453e-05 -2.79364e-08)
(0 -1.83986e-21 0 -36.4196 -9.79642e-20 0.0008642 0.916588 0 3.41665e-08)
(-1.18026e-14 -2.11526e-18 0 -55.8787 2.71051e-20 0.000962361 1.72797 3.36196e-06 -3.93713e-08)
(-1.18026e-14 -3.38729e-19 0 -55.8635 -0.000231685 0.000962508 1.72735 -8.47628e-07 3.16042e-08)
(0 5.42243e-19 0 -70.2783 -0.000210157 0.00103446 2.38324 1.21407e-05 -2.99651e-08)
(7.35738e-14 0 0 -70.2669 3.40019e-33 0.0010345 2.38275 1.7001e-33 3.95246e-08)
(-1.78641e-14 -1.88079e-37 0 -79.4701 0 0.00106547 2.86 0 -4.09582e-08)
(3.57284e-14 0 0 -79.4626 -0.000395372 0.00106559 2.85965 -8.13877e-06 2.91262e-08)
(8.67253e-15 -3.38857e-19 4.31149e-20 -83.7623 -0.000354083 0.00104117 3.1534 -1.52868e-06 -3.1337e-08)
(0 -9.62965e-35 0 -83.7584 0 0.0010412 3.15318 -9.70352e-06 4.56557e-08)
(0 -5.32533e-18 0 -83.8471 1.13349e-19 0.000953517 3.27556 0 -4.25826e-08)
(-3.37132e-14 -6.90576e-20 0 -83.8463 -0.000441023 0.000953615 3.27548 -2.08637e-05 2.49192e-08)
(-8.20582e-15 -1.01578e-18 0 -80.6798 -0.000318029 0.000800767 3.25242 -1.75088e-05 -3.22913e-08)
(3.28233e-14 1.54074e-33 0 -80.6814 -5.42101e-20 0.00080081 3.25244 -2.73633e-05 5.34484e-08)
(1.08233e-14 -3.34995e-18 0 -75.3537 -2.1684e-19 0.000587228 3.11951 0 -4.45793e-08)
(-1.08233e-14 -3.40622e-19 0 -75.3568 -0.000327607 0.000587324 3.11961 -3.20612e-05 1.85888e-08)
(0 -3.40827e-19 0 -68.9728 -0.000122305 0.000324879 2.91776 -1.32876e-05 -3.30406e-08)
(1.06682e-14 -1.15731e-20 0 -68.9767 -5.69376e-19 0.000324937 2.91791 -4.16965e-05 6.39671e-08)
(-7.67863e-15 1.33912e-34 0 -62.5274 4.78067e-19 8.16059e-06 2.68833 1.34024e-36 -4.71425e-08)
(0 0 -7.25455e-40 -62.5313 -4.73742e-05 -2.61373e-24 2.6885 -3.49165e-05 -1.65436e-24)
(-4.71148e-15 -1.28515e-18 2.37482e-19 -56.8058 0.000183795 -0.00023115 2.46771 -1.33414e-05 -3.37084e-08)
(7.06685e-14 -6.36032e-21 1.54839e-18 -56.8091 -3.25261e-19 -0.000231742 2.46787 -4.5831e-05 7.84119e-08)
(1.0216e-14 -2.18986e-18 0 -52.3529 9.22165e-05 -0.000534229 2.28479 -1.95735e-06 -5.03105e-08)
(-1.0216e-14 -2.04597e-19 -3.89709e-20 -52.3552 0.000245776 -0.000534121 2.28491 -2.40443e-05 -3.86685e-09)
(-1.00696e-14 4.08131e-19 0 -49.4577 0.000410514 -0.000763522 2.15919 -1.91788e-05 -3.42464e-08)
(-1.00696e-14 -2.01665e-19 0 -49.4588 0.000275696 -0.000763448 2.15926 -3.89246e-05 9.82009e-08)
(-2.14045e-14 -1.2873e-18 0 -48.166 0.000432522 -0.000932406 2.10053 -8.52101e-06 -5.38888e-08)
(5.70788e-14 1.42218e-18 0 -48.1657 0.000387557 -0.000932305 2.10054 -1.70542e-06 -2.30702e-08)
(0 -1.42279e-18 0 -48.3159 0.000449485 -0.00103239 2.10873 -1.50625e-06 -3.4323e-08)
(5.58992e-14 2.69467e-18 0 -48.3144 0.000390711 -0.00103232 2.10869 -2.73597e-05 1.25064e-07)
(2.8156e-15 6.77635e-19 0 -49.5928 0.000372673 -0.00106364 2.17545 1.20569e-05 -5.77549e-08)
(-9.64278e-15 -4.74334e-19 0 -49.5905 0.000327514 -0.00106356 2.17536 2.08878e-05 -5.06816e-08)
(6.65318e-15 -1.42309e-18 0 -51.587 0.00031962 -0.0010331 2.2862 1.38036e-05 -3.37508e-08)
(5.32256e-14 4.84925e-18 0 -51.584 0.000213002 -0.00103304 2.28607 -2.04953e-05 1.61383e-07)
(0 -1.08329e-18 0 -53.8513 0.000196713 -0.000953021 2.42247 2.74777e-05 -6.16492e-08)
(2.58648e-14 1.10543e-18 0 -53.8481 0.00015102 -0.000952957 2.42233 9.15357e-06 -9.00048e-08)
(6.26856e-15 -5.41588e-19 0 -55.9615 0.000105831 -0.000840539 2.56433 2.12105e-05 -3.24805e-08)
(0 3.43158e-21 0 -55.9584 1.49078e-19 -0.000840503 2.56418 -2.47271e-05 2.10517e-07)
(2.12294e-14 1.34541e-19 0 -57.556 1.84165e-05 -0.00071102 2.69309 3.34965e-05 -6.53514e-08)
(1.51537e-14 -1.68221e-19 0 -57.5533 -2.80014e-05 -0.000710976 2.69295 2.9475e-06 -1.45162e-07)
(8.97128e-15 4.06395e-19 0 -58.3609 -4.39171e-05 -0.000578422 2.79251 2.01472e-05 -3.06758e-08)
(-8.97128e-15 0 0 -58.3588 -1.35525e-20 -0.0005784 2.79239 -4.17696e-05 2.77184e-07)
(0 -3.3943e-19 0 -58.2103 -8.86902e-05 -0.00045367 2.85036 3.26405e-05 -6.86827e-08)
(2.26019e-14 5.83542e-19 0 -58.2092 -0.00013607 -0.000453642 2.85028 8.60787e-06 -2.21371e-07)
(1.09016e-14 -5.4237e-19 0 -57.0494 -0.000105604 -0.000343979 2.85944 1.36208e-05 -2.87553e-08)
(0 5.4237e-19 0 -57.0492 -0.000149243 -0.000209387 2.8594 -7.01368e-05 3.67588e-07)
(5.26111e-15 -1.21974e-18 0 -54.9199 -0.000106417 -0.000252608 2.81748 2.88587e-05 -7.14117e-08)
(2.10444e-14 1.20417e-18 4.37906e-21 -54.9207 -0.000154941 1.28454e-05 2.8175 1.01805e-05 2.53798e-06)
(-8.4679e-15 -1.15179e-18 -4.03781e-21 -51.9455 -9.63244e-05 -0.000180198 2.72664 5.86633e-06 -2.74443e-08)
(2.88059e-14 1.15179e-18 0 -51.9472 -0.000142237 4.12603e-20 2.7267 -0.000107595 5.41377e-35)
(-4.9231e-15 0 0 -48.3145 -7.80123e-05 -0.000125347 2.59314 2.5547e-05 -7.30715e-08)
(-1.96924e-14 2.02143e-19 1.29778e-21 -48.3169 -0.000127784 2.25525e-05 2.59325 9.16795e-06 3.1281e-06)
(-8.89132e-15 -1.22591e-22 -3.9229e-21 -44.2532 -5.66157e-05 -6.02169e-05 2.42644 -7.01146e-07 -2.78397e-08)
(0 2.71048e-19 0 -44.2562 -0.000104773 5.75982e-20 2.42658 -0.000154352 2.72206e-37)
(-4.64876e-15 6.76667e-20 0 -40.0037 -4.27258e-05 -4.33927e-06 2.23781 2.42194e-05 5.9187e-07)
(-1.85949e-14 1.08925e-19 -3.6314e-21 -40.007 -9.37901e-05 2.2921e-05 2.23798 6.99282e-06 3.90134e-06)
(0 -3.38725e-19 -1.90563e-21 -35.8079 -2.02895e-05 8.19541e-06 2.03967 -1.04205e-06 1.22118e-06)
(0 5.42151e-19 3.76158e-36 -35.8113 -7.06618e-05 7.30603e-21 2.03985 -0.000213238 1.69407e-21)
(0 -3.39036e-19 0 -31.895 -1.28719e-05 8.02405e-06 1.84473 2.46163e-05 1.7393e-06)