/*--------------------------------*- C++ -*----------------------------------*\
| =========                 |                                                 |
| \\      /  F ield         | OpenFOAM: The Open Source CFD Toolbox           |
|  \\    /   O peration     | Version:  2012                                  |
|   \\  /    A nd           | Website:  www.openfoam.com                      |
|    \\/     M anipulation  |                                                 |
\*---------------------------------------------------------------------------*/
FoamFile
{
    version     2.0;
    format      ascii;
    class       volTensorField;
    location    "16000";
    object      grad(U);
}
// * * * * * * * * * * * * * * * * * * * * * * * * * * * * * * * * * * * * * //

dimensions      [0 0 -1 0 0 0 0];


internalField   nonuniform List<tensor> 
2560
(
(0 6.23671e-30 6.84228e-49 32.3801 -1.29107e-11 0 0.0468744 -9.34258e-15 -1.14452e-27)
(-9.14312e-18 -8.67467e-29 0 32.3801 0 1.5237e-18 0.0468744 -2.16867e-29 5.78671e-17)
(0 -6.314e-25 -1.60087e-32 32.3753 -9.67483e-14 2.4349e-14 0.141291 -2.84164e-16 2.63496e-16)
(0 -4.09822e-30 0 32.3753 -7.13484e-16 6.43573e-18 0.141291 -2.21003e-18 -8.16134e-17)
(2.95975e-17 2.8026e-45 1.57792e-32 32.3704 1.35577e-27 7.6489e-16 0.194306 1.12127e-45 2.8529e-16)
(-3.55316e-17 1.61579e-29 -3.15584e-32 32.3704 4.73758e-16 6.82905e-18 0.194306 1.52057e-19 -8.39845e-17)
(8.90736e-17 -1.83037e-29 3.11061e-32 32.3655 7.89623e-13 1.79991e-15 0.197102 -9.58271e-15 2.71465e-16)
(-7.00448e-17 1.59263e-29 -3.11061e-32 32.3655 -6.00473e-17 1.07494e-17 0.197102 7.02101e-19 -8.64079e-17)
(1.38082e-16 -2.35471e-29 6.13206e-32 32.3606 -3.3021e-14 1.05252e-15 0.199937 -3.02636e-16 2.54385e-16)
(0 1.96226e-29 -4.59904e-32 32.3606 -6.14179e-17 1.20923e-17 0.199937 1.22513e-18 -8.88884e-17)
(1.81889e-16 -1.52852e-29 2.26656e-32 32.3555 -4.78561e-14 7.66069e-16 0.202813 -2.92958e-16 2.45905e-16)
(3.66291e-16 1.54731e-29 -3.02208e-32 32.3555 -1.13671e-16 1.11722e-17 0.202813 1.68985e-18 -9.14298e-17)
(-5.94546e-17 -9.19727e-28 1.48939e-32 32.3505 -1.18037e-27 7.22046e-16 0.205729 0 2.37636e-16)
(2.37818e-16 1.90641e-29 -3.72346e-32 32.3505 -9.70046e-17 1.26182e-17 0.205729 2.17109e-18 -9.40365e-17)
(-7.33194e-17 1.87583e-29 -2.93608e-32 32.3453 3.17375e-15 7.21244e-16 0.208687 -3.11411e-17 2.2804e-16)
(1.61049e-16 -7.51636e-30 1.46804e-32 32.3453 1.36642e-17 1.48225e-17 0.208687 3.05787e-18 -9.66984e-17)
(2.17718e-16 -2.22493e-29 2.1705e-32 32.34 -2.45332e-16 7.14802e-16 0.211687 -1.27106e-17 2.17817e-16)
(0 2.22259e-29 -2.894e-32 32.34 -3.12549e-17 1.49602e-17 0.211687 3.73408e-18 -9.94263e-17)
(0 7.30244e-30 -3.56565e-32 32.3346 -2.08868e-15 7.19014e-16 0.214729 -1.4848e-17 2.07203e-16)
(0 0 2.13939e-32 32.3346 -1.08757e-16 1.62679e-17 0.214729 4.21083e-18 -1.02219e-16)
(1.37127e-16 -1.42659e-29 4.21745e-32 32.3291 -1.97162e-15 7.33067e-16 0.217813 -1.15055e-17 1.96125e-16)
(-2.53249e-16 2.15933e-29 -4.21745e-32 32.3291 -3.51978e-18 1.9785e-17 0.217813 4.88357e-18 -1.05075e-16)
(3.80422e-16 -3.21074e-29 6.92834e-32 32.3233 -1.59374e-15 7.50692e-16 0.22094 -1.01166e-17 1.84506e-16)
(0 2.48312e-29 -6.92834e-32 32.3233 4.05759e-17 2.1424e-17 0.22094 5.8117e-18 -1.07991e-16)
(4.92084e-16 -6.99293e-30 1.36581e-32 32.3173 -1.37377e-15 7.68459e-16 0.224109 -8.79135e-18 1.49199e-16)
(0 1.39859e-29 -2.73162e-32 32.3173 -1.44733e-16 2.02503e-17 0.224109 6.72354e-18 -1.10981e-16)
(-1.60798e-16 1.75153e-29 -3.6965e-32 32.3109 -1.1094e-15 7.85892e-16 0.227322 -6.69264e-18 8.71288e-17)
(6.43191e-16 -3.44635e-30 0 32.3109 -2.74172e-16 2.063e-17 0.227322 6.96144e-18 -1.1404e-16)
(0 2.37787e-29 -5.30775e-32 32.304 -1.01082e-15 8.02978e-16 0.230576 -7.64147e-18 2.20252e-17)
(0 -2.37787e-29 5.30775e-32 32.304 -1.7358e-16 2.0531e-17 0.230576 7.48632e-18 -1.17166e-16)
(-1.91662e-16 3.72978e-30 -1.74644e-32 32.2964 -1.06347e-15 8.19934e-16 0.233871 -7.65133e-18 6.00058e-18)
(7.66647e-16 0 0 32.2964 -1.63442e-16 2.31929e-17 0.233871 8.5897e-18 -1.20367e-16)
(0 1.98017e-29 -5.15669e-32 32.288 -1.06149e-15 8.36927e-16 0.237207 -7.8362e-18 6.21098e-18)
(-8.29708e-16 -1.98017e-29 5.15669e-32 32.288 -3.93303e-16 2.76684e-17 0.237207 9.50568e-18 -1.23627e-16)
(0 2.27709e-29 -6.35348e-32 32.2786 -1.30256e-15 8.53391e-16 0.240582 -1.14695e-17 6.42181e-18)
(-8.93673e-16 -2.27709e-29 6.35348e-32 32.2786 -2.81296e-16 3.13493e-17 0.240582 9.42479e-18 -1.26953e-16)
(2.25627e-16 -1.28254e-29 3.75745e-32 32.2678 -1.61567e-15 8.69223e-16 0.243993 -1.28018e-17 6.63239e-18)
(0 1.60318e-29 -3.75745e-32 32.2678 3.44811e-17 3.55323e-17 0.243993 1.06003e-17 -1.30341e-16)
(2.56091e-16 1.83929e-29 -2.71867e-32 32.2554 -1.45871e-15 8.84585e-16 0.247438 -9.39677e-18 6.84567e-18)
(-1.02436e-15 -2.84436e-29 6.17266e-32 32.2554 -1.40637e-16 3.45327e-17 0.247438 1.25439e-17 -1.33794e-16)
(0 2.80359e-29 -6.08419e-32 32.2409 -1.08165e-15 9.00423e-16 0.250914 -7.30654e-18 7.07326e-18)
(0 -2.80359e-29 6.08419e-32 32.2409 -4.32955e-16 3.15483e-17 0.250914 1.32213e-17 -1.37327e-16)
(-2.89702e-16 -8.55192e-30 1.73273e-33 32.2238 -1.08657e-15 9.16535e-16 0.254416 -9.74973e-18 7.30069e-18)
(0 2.14932e-29 -2.3988e-32 32.2238 -3.64494e-16 3.45248e-17 0.254416 1.35178e-17 -1.40927e-16)
(1.19068e-16 -3.25882e-29 1.19564e-31 32.2035 -1.55588e-15 9.31577e-16 0.25794 -1.50412e-17 7.5215e-18)
(0 3.63174e-29 -1.30043e-31 32.2035 -2.14705e-16 4.31629e-17 0.25794 1.43377e-17 -1.44577e-16)
(0 1.78984e-29 -5.82632e-32 32.1795 -1.84089e-15 9.44752e-16 0.261478 -1.46688e-17 7.72874e-18)
(-1.2971e-15 -2.38646e-29 6.99158e-32 32.1795 -2.24297e-16 4.90645e-17 0.261478 1.55562e-17 -1.48268e-16)
(3.41926e-16 1.97927e-29 -8.09434e-32 32.1508 -1.78746e-15 9.57155e-16 0.265023 -1.46006e-17 7.94641e-18)
(0 -2.35225e-29 9.1885e-32 32.1508 -3.53642e-16 4.90668e-17 0.265023 1.71624e-17 -1.5202e-16)
(-7.19648e-16 4.22377e-29 -1.35567e-31 32.1167 -1.93387e-15 9.70153e-16 0.268566 -1.75487e-17 8.17267e-18)
(0 -3.47781e-29 1.1321e-31 32.1167 -7.29636e-17 4.76701e-17 0.268566 1.9317e-17 -1.55825e-16)
(1.53594e-15 -4.5471e-29 1.34718e-31 32.0761 -2.00337e-15 9.81186e-16 0.272097 -1.62081e-17 8.36649e-18)
(2.62172e-15 3.99929e-29 -1.11587e-31 32.0761 4.93516e-16 4.41432e-17 0.272097 2.2889e-17 -1.59679e-16)
(0 -2.25256e-29 8.79905e-32 32.0278 -1.5743e-15 9.90183e-16 0.275603 -1.06724e-17 8.56704e-18)
(1.58545e-15 2.81569e-29 -9.89893e-32 32.0278 3.80961e-16 4.85648e-17 0.275603 2.65527e-17 -1.63582e-16)
(4.15006e-16 1.29201e-29 -3.14059e-32 31.9707 -1.29403e-15 9.98651e-16 0.279069 -1.17853e-17 8.75955e-18)
(0 -1.11014e-29 3.25235e-32 31.9707 -2.0423e-16 5.98472e-17 0.279069 3.0035e-17 -1.67476e-16)
(-8.67794e-16 7.46326e-30 -2.44612e-32 31.9033 -1.54908e-15 1.00539e-15 0.282481 -1.55068e-17 8.93739e-18)
(-3.47118e-15 0 0 31.9033 -6.68067e-16 7.10867e-17 0.282481 3.13361e-17 -1.71374e-16)
(-4.53035e-16 1.99096e-29 -3.35744e-32 31.8242 -1.87202e-15 1.00984e-15 0.285821 -1.79391e-17 9.09623e-18)
(-1.81214e-15 -1.07854e-29 0 31.8242 -4.15838e-16 8.07991e-17 0.285821 3.02291e-17 -1.75247e-16)
(0 2.65771e-29 -1.03817e-31 31.7317 -2.01196e-15 1.00991e-15 0.289069 -1.85146e-17 9.20051e-18)
(-1.88967e-15 -2.65771e-29 1.03817e-31 31.7317 3.77945e-16 7.04403e-17 0.289069 3.24645e-17 -1.79095e-16)
(7.37356e-16 -2.09569e-29 1.02329e-31 31.6242 -2.14532e-15 1.00634e-15 0.292204 -2.09336e-17 9.29668e-18)
(1.2308e-15 2.09569e-29 -1.02329e-31 31.6242 5.02753e-16 6.07215e-17 0.292204 3.724e-17 -1.82984e-16)
(-5.11899e-16 3.73276e-30 -3.35788e-32 31.5 -1.87573e-15 1.00195e-15 0.295203 -1.39933e-17 9.38752e-18)
(0 1.03283e-29 0 31.5 -1.00099e-16 6.60733e-17 0.295203 3.89924e-17 -1.86821e-16)
(-5.31989e-16 2.40932e-29 -1.13129e-31 31.3572 -1.48687e-15 9.96481e-16 0.298042 -1.41368e-17 9.46475e-18)
(0 -2.03605e-29 9.94165e-32 31.3572 -7.78469e-16 7.02643e-17 0.298042 4.00131e-17 -1.9059e-16)
(-5.52302e-16 2.38003e-29 -7.28335e-32 31.1941 -1.93828e-15 9.8518e-16 0.300697 -2.31302e-17 9.44404e-18)
(-2.20921e-15 -1.00343e-29 1.95983e-32 31.1941 -5.44995e-16 6.49118e-17 0.300697 3.98091e-17 -1.94263e-16)
(5.72827e-16 -1.85682e-29 9.16335e-32 31.009 -2.26768e-15 9.67454e-16 0.303143 -2.10118e-17 9.39432e-18)
(0 1.48358e-29 -7.72697e-32 31.009 -1.59331e-17 5.81449e-17 0.303143 4.31305e-17 -1.97875e-16)
(5.93555e-16 -2.32301e-29 9.08529e-32 30.8003 -2.1726e-15 9.47061e-16 0.305353 -2.19159e-17 9.31489e-18)
(0 1.94975e-29 -7.61622e-32 30.8003 -4.38758e-17 5.70865e-17 0.305353 4.57359e-17 -2.01364e-16)
(-6.14472e-16 2.29515e-29 -7.13269e-32 30.5666 -1.95851e-15 9.23566e-16 0.307305 -1.7305e-17 9.19519e-18)
(0 -9.60904e-30 3.75353e-32 30.5666 -1.93776e-16 5.57611e-17 0.307305 4.72353e-17 -2.0472e-16)
(0 1.4207e-29 -5.5496e-32 30.3067 -1.84609e-15 8.97299e-16 0.308974 -2.02553e-17 9.04974e-18)
(0 -1.89426e-29 7.39947e-32 30.3067 -2.48192e-16 5.64773e-17 0.308974 4.96737e-17 -2.07906e-16)
(-6.56814e-16 1.7737e-29 -1.56626e-32 30.0196 -1.82836e-15 8.6937e-16 0.31034 -1.74435e-17 8.88419e-18)
(1.31339e-15 -4.66779e-30 -1.82335e-32 30.0196 -3.039e-16 6.40501e-17 0.31034 5.26332e-17 -2.10892e-16)
(0 -2.76053e-29 1.25805e-31 29.7046 -1.59401e-15 8.39376e-16 0.311385 -1.59081e-17 8.68249e-18)
(2.71281e-15 2.76053e-29 -1.25805e-31 29.7046 -6.79109e-16 7.92518e-17 0.311385 5.40951e-17 -2.13616e-16)
(6.99712e-16 5.33755e-30 -8.99776e-32 29.3615 -2.16101e-15 8.06387e-16 0.312093 -3.00818e-17 8.43884e-18)
(-2.79885e-15 -1.36048e-29 1.24002e-31 29.3615 -6.46432e-16 7.51882e-17 0.312093 5.45963e-17 -2.16045e-16)
(7.21318e-16 -1.71433e-29 6.90101e-32 28.9904 -2.6423e-15 7.71151e-16 0.312453 -2.68179e-17 8.17223e-18)
(0 1.34098e-29 -5.23822e-32 28.9904 -7.63236e-16 6.97068e-17 0.312453 5.70288e-17 -2.18285e-16)
(-7.42998e-16 -6.71667e-31 2.85798e-34 28.5917 -2.33086e-15 7.36791e-16 0.312458 -2.41066e-17 7.92959e-18)
(0 1.32176e-29 -5.16314e-32 28.5917 -1.28958e-15 8.22636e-17 0.312458 5.44573e-17 -2.20191e-16)
(7.64728e-16 4.9509e-30 -3.36605e-32 28.1663 -2.13969e-15 7.00193e-16 0.312105 -2.33338e-17 7.59419e-18)
(1.83654e-15 0 1.69638e-32 28.1663 -1.17709e-15 8.88567e-17 0.312105 5.70116e-17 -2.21761e-16)
(1.20485e-15 -8.56098e-30 6.68826e-32 27.7155 -1.81172e-15 6.58732e-16 0.311396 -1.73807e-17 7.22237e-18)
(3.14593e-15 1.28415e-29 -6.68826e-32 27.7155 -1.21891e-15 9.21395e-17 0.311396 6.08887e-17 -2.23012e-16)
(-8.08237e-16 -4.83072e-31 -1.7802e-32 27.2409 -1.45704e-15 6.20152e-16 0.310336 -1.58634e-17 6.92971e-18)
(0 1.26574e-29 -3.2962e-32 27.2409 -1.67265e-15 8.4582e-17 0.310336 5.82616e-17 -2.23906e-16)
(-8.29965e-16 3.73514e-30 -1.80618e-32 26.7445 -1.5494e-15 5.85104e-16 0.308938 -2.00442e-17 6.61648e-18)
(0 8.31733e-30 -3.24896e-32 26.7445 -1.45856e-15 7.69397e-17 0.308938 5.74765e-17 -2.24532e-16)
(0 -8.19813e-30 6.40479e-32 26.2283 -2.11823e-15 5.4789e-16 0.307214 -2.97883e-17 6.25211e-18)
(0 1.22972e-29 -6.40479e-32 26.2283 -7.14838e-16 6.6505e-17 0.307214 6.0709e-17 -2.24818e-16)
(-8.7324e-16 3.73511e-30 1.3156e-32 25.695 -2.24723e-15 5.09003e-16 0.305183 -2.37282e-17 5.87671e-18)
(0 1.21209e-29 -6.31299e-32 25.695 -1.05525e-15 5.86695e-17 0.305183 6.53256e-17 -2.24867e-16)
(-1.12095e-15 2.78768e-29 -1.55563e-31 25.1469 -1.95493e-15 4.71258e-16 0.302864 -2.35416e-17 5.51592e-18)
(-3.57895e-15 -2.78768e-29 1.2445e-31 25.1469 -1.37415e-15 6.91191e-17 0.302864 6.56106e-17 -2.24585e-16)
(-2.02099e-15 -1.58915e-29 1.04253e-31 24.5868 -2.241e-15 4.38265e-16 0.300282 -3.14923e-17 5.2336e-18)
(3.66445e-15 2.3552e-29 -1.22666e-31 24.5868 -6.82486e-16 7.2932e-17 0.300282 6.4556e-17 -2.23963e-16)
(0 2.32144e-29 -1.20908e-31 24.0173 -2.6947e-15 4.10508e-16 0.29746 -3.56054e-17 4.98164e-18)
(0 -2.32144e-29 1.20908e-31 24.0173 -8.97967e-16 7.40969e-17 0.29746 6.62637e-17 -2.23048e-16)
(-2.03184e-15 2.28043e-29 -1.0769e-31 23.4411 -2.68467e-15 3.86513e-16 0.294423 -3.21597e-17 4.77662e-18)
(4.90704e-15 -1.90681e-29 8.93816e-32 23.4411 -1.1679e-15 8.61653e-17 0.294423 7.03267e-17 -2.2182e-16)
(3.01661e-15 -2.25101e-29 9.51834e-32 22.8607 -2.31869e-15 3.66757e-16 0.291197 -2.72046e-17 4.61777e-18)
(2.85907e-15 1.50358e-29 -5.87337e-32 22.8607 -1.05137e-15 9.02746e-17 0.291197 7.33851e-17 -2.20235e-16)
(0 -1.48203e-29 5.78919e-32 22.2786 -1.96144e-15 3.51296e-16 0.287809 -2.37491e-17 4.51178e-18)
(0 1.85254e-29 -5.78919e-32 22.2786 -1.46345e-15 7.88506e-17 0.287809 7.31146e-17 -2.1842e-16)
(-1.02042e-15 8.60931e-32 1.05453e-32 21.6971 -1.66041e-15 3.40636e-16 0.284283 -2.00061e-17 4.46992e-18)
(0 1.09559e-29 -5.70621e-32 21.6971 -1.1896e-15 7.13653e-17 0.284283 7.25826e-17 -2.16397e-16)
(-2.08129e-15 2.18737e-29 -1.20058e-31 21.1184 -1.59018e-15 3.32e-16 0.280644 -2.25523e-17 4.41124e-18)
(4.16259e-15 -1.79982e-29 1.12489e-31 21.1184 -9.22846e-16 6.516e-17 0.280644 7.53268e-17 -2.14159e-16)
(-1.06064e-15 3.73778e-30 -4.54622e-32 20.5442 -1.74886e-15 3.18834e-16 0.276914 -2.49303e-17 4.24093e-18)
(0 7.09608e-30 0 20.5442 -9.20425e-16 6.56732e-17 0.276914 7.62244e-17 -2.11774e-16)
(-9.60088e-17 -3.25696e-30 -1.75971e-32 19.9763 -2.08177e-15 3.03875e-16 0.273115 -3.24463e-17 4.12557e-18)
(3.33715e-15 1.74859e-29 -2.73218e-32 19.9763 6.09215e-17 5.60526e-17 0.273115 7.9412e-17 -2.09166e-16)
(-1.09986e-15 1.06312e-29 -9.8205e-32 19.4163 -2.49283e-15 2.92891e-16 0.269267 -3.72274e-17 4.05607e-18)
(0 0 5.38604e-32 19.4163 -3.04899e-16 4.22501e-17 0.269267 8.99044e-17 -2.0651e-16)
(-2.23817e-15 2.44659e-29 -8.7452e-32 18.8655 -2.32901e-15 2.86723e-16 0.265389 -2.87199e-17 4.07034e-18)
(-4.47635e-15 -1.69883e-29 5.30884e-32 18.8655 -3.5329e-16 3.64115e-17 0.265389 9.25466e-17 -2.03693e-16)
(-2.27609e-15 -1.26128e-29 4.45751e-32 18.3248 -1.69017e-15 2.85687e-16 0.261497 -1.98151e-17 4.14487e-18)
(9.10434e-15 2.00938e-29 -5.23275e-32 18.3248 -1.50649e-16 4.13531e-17 0.261497 1.02006e-16 -2.00822e-16)
(-3.47018e-15 4.09219e-29 -2.04988e-31 17.7954 -2.19562e-15 2.88565e-16 0.257606 -4.44136e-17 4.27416e-18)
(-4.62691e-15 -2.97087e-29 1.54733e-31 17.7954 -1.20255e-15 4.70694e-17 0.257606 1.07642e-16 -1.97725e-16)
(-1.17514e-15 -2.22926e-29 1.10543e-31 17.2779 -3.61958e-15 2.87204e-16 0.25373 -6.28462e-17 4.22569e-18)
(4.70056e-15 2.92829e-29 -1.27096e-31 17.2779 -4.65087e-16 1.83418e-17 0.25373 1.05137e-16 -1.94553e-16)
(1.19328e-15 -1.97746e-29 9.15067e-32 16.7729 -3.76998e-15 2.82089e-16 0.249878 -5.02633e-17 4.24468e-18)
(0 1.60351e-29 -7.51645e-32 16.7729 4.74541e-16 -8.06269e-18 0.249878 1.12074e-16 -1.88797e-16)
(0 -2.21274e-29 1.48174e-31 16.2808 -3.21823e-15 2.80152e-16 0.246063 -4.77571e-17 4.29005e-18)
(4.8446e-15 2.21274e-29 -1.48174e-31 16.2808 8.35898e-16 -2.12758e-17 0.246063 1.22742e-16 -1.80644e-16)
(1.75401e-15 -9.34724e-30 9.73671e-32 15.802 -3.07811e-15 2.75461e-16 0.242292 -4.73734e-17 4.22296e-18)
(4.91499e-15 1.2463e-29 -4.86836e-32 15.802 7.13121e-16 -1.70434e-17 0.242292 1.32877e-16 -1.72693e-16)
(-1.72887e-15 1.84265e-29 -4.79858e-32 15.3366 -2.06839e-15 2.72928e-16 0.238573 -1.72653e-17 4.33574e-18)
(4.9843e-15 -6.14218e-30 0 15.3366 -6.33798e-16 6.24376e-18 0.238573 1.3469e-16 -1.6466e-16)
(-1.70409e-15 1.81624e-29 -9.45961e-32 14.8848 -1.22164e-15 2.79517e-16 0.234912 -2.16288e-17 4.55778e-18)
(1.70409e-15 -1.81624e-29 9.45961e-32 14.8848 -1.78601e-15 2.58311e-17 0.234912 1.30509e-16 -1.56283e-16)
(-2.55987e-15 7.48819e-30 -3.15825e-32 14.4465 -1.94411e-15 2.90339e-16 0.231314 -4.12577e-17 4.81456e-18)
(0 0 0 14.4465 -1.30923e-15 2.81236e-17 0.231314 1.27989e-16 -1.47516e-16)
(0 -1.76455e-29 1.1488e-31 14.0218 -1.86912e-15 3.03574e-16 0.227783 -1.97891e-17 5.1278e-18)
(5.18591e-15 1.76455e-29 -1.1488e-31 14.0218 -2.88257e-16 3.31979e-17 0.227783 1.3115e-16 -1.38612e-16)
(0 1.15951e-29 -2.26467e-32 13.6103 -1.17524e-15 3.25208e-16 0.224323 -1.92481e-17 5.67953e-18)
(5.25106e-15 -5.79755e-30 0 13.6103 -3.58334e-16 4.65161e-17 0.224323 1.37444e-16 -1.29429e-16)
(-1.3288e-15 3.74536e-30 -3.78608e-32 13.2121 -1.45141e-15 3.48706e-16 0.220936 -2.97442e-17 6.07571e-18)
(0 1.14289e-29 0 13.2121 -4.24977e-16 3.97507e-17 0.220936 1.39523e-16 -1.20098e-16)
(1.34459e-15 1.31518e-29 -7.25315e-32 12.8267 -1.63528e-15 3.69921e-16 0.217623 -2.61445e-17 6.57656e-18)
(-1.58542e-15 -1.12651e-29 6.60065e-32 12.8267 -4.7611e-16 2.88715e-17 0.217623 1.40666e-16 -1.10698e-16)
(1.5627e-15 -5.55182e-30 6.50604e-32 12.4541 -1.90019e-15 3.89802e-16 0.214386 -3.98721e-17 6.94837e-18)
(0 1.11036e-29 -6.50604e-32 12.4541 -3.2919e-16 4.76984e-17 0.214386 1.49985e-16 -1.01069e-16)
(3.0806e-15 -5.47225e-30 2.1376e-32 12.0938 -2.68753e-15 4.05915e-16 0.211226 -5.48221e-17 7.34042e-18)
(0 1.09445e-29 -2.1376e-32 12.0938 -1.6865e-16 3.56879e-17 0.211226 1.62489e-16 -9.09523e-17)
(-1.26285e-15 -3.29084e-30 3.26456e-32 11.7456 -2.32133e-15 4.28372e-16 0.208143 -2.78692e-17 7.9596e-18)
(0 1.61815e-29 -6.32088e-32 11.7456 -7.78826e-16 4.25387e-17 0.208143 1.71369e-16 -8.11383e-17)
(-1.4054e-15 1.14906e-43 -9.82349e-32 11.4091 8.32253e-28 4.62216e-16 0.205136 -6.31089e-30 8.79038e-18)
(0 -1.59495e-29 8.30705e-32 11.4091 -8.74393e-16 6.44582e-17 0.205136 1.70717e-16 -7.08741e-17)
(1.42004e-15 -3.74847e-30 1.51296e-32 11.0841 -1.2084e-16 4.98615e-16 0.202206 -1.0588e-17 9.54022e-18)
(-7.15517e-15 0 0 11.0841 -1.54742e-15 9.50554e-18 0.202206 1.68376e-16 -6.03403e-17)
(1.45388e-15 -9.00032e-30 8.07063e-32 10.7701 -4.0592e-28 5.23995e-16 0.199352 -3.15544e-30 1.00011e-17)
(-5.73787e-15 1.54956e-29 -8.07063e-32 10.7701 -2.00116e-15 -1.3651e-17 0.199352 1.64167e-16 -4.97207e-17)
(-1.44869e-15 4.31977e-30 -9.46946e-32 10.4668 4.32168e-16 5.49515e-16 0.196573 -4.08709e-18 1.07921e-17)
(1.15895e-14 -5.09117e-30 7.95496e-32 10.4668 -1.83455e-15 3.34162e-17 0.196573 1.6495e-16 -3.86177e-17)
(-1.3623e-15 6.29815e-30 -6.31938e-32 10.1738 2.36652e-15 5.7822e-16 0.193867 -5.04937e-17 1.14037e-17)
(8.6758e-15 -1.50546e-29 1.56819e-31 10.1738 -3.48655e-15 6.90478e-17 0.193867 1.64019e-16 -2.70993e-17)
(0 0 0 9.89084 1.5286e-15 5.9621e-16 0.191233 -4.02568e-17 1.18138e-17)
(0 9.89256e-30 -3.86428e-32 9.89084 -3.80789e-15 4.01988e-17 0.191233 1.42873e-16 -1.56408e-17)
(-1.49014e-15 -1.5763e-29 1.38644e-31 9.61754 2.65884e-16 6.12283e-16 0.188671 -1.91097e-17 1.23773e-17)
(5.96057e-15 2.43769e-29 -1.90445e-31 9.61754 -2.67292e-15 1.64286e-17 0.188671 1.33366e-16 -4.68981e-18)
(-1.50358e-15 1.33466e-29 -1.24718e-31 9.35355 -1.00717e-15 6.23044e-16 0.186178 -3.17223e-17 1.25943e-17)
(-6.01432e-15 -4.80551e-30 7.50861e-32 9.35355 -2.20634e-15 -1.57631e-17 0.186178 1.21609e-16 6.82543e-18)
(1.51684e-15 -2.26824e-29 8.44907e-32 9.09854 -1.66101e-15 6.1729e-16 0.183754 -3.58447e-17 1.25043e-17)
(6.06734e-15 1.89465e-29 -7.40099e-32 9.09854 -8.27616e-16 -3.34377e-17 0.183754 1.22957e-16 1.81215e-17)
(-1.52991e-15 2.24119e-29 -1.54656e-31 8.85217 -1.71992e-15 6.12615e-16 0.181395 -3.50993e-17 1.2769e-17)
(6.11966e-15 -1.8675e-29 1.45898e-31 8.85217 -7.11642e-16 -1.19734e-17 0.181395 1.46207e-16 2.97059e-17)
(-1.54282e-15 3.73837e-30 -7.08457e-33 8.61413 -1.49316e-15 6.15455e-16 0.179102 -2.73354e-17 1.29902e-17)
(0 0 0 8.61413 -2.08724e-15 -2.26864e-17 0.179102 1.42792e-16 4.12087e-17)
(-1.55556e-15 2.11309e-30 -9.57919e-47 8.38411 -6.96825e-16 -6.93511e-31 0.176871 -7.39679e-18 -2.0218e-48)
(0 9.07175e-30 -7.08731e-32 8.38411 -2.06773e-15 -4.70599e-17 0.176871 1.41181e-16 5.2375e-17)
(9.48744e-16 7.00649e-46 1.02923e-31 8.1618 3.74256e-30 -1.11347e-15 0.174702 -3.15544e-30 1.86121e-17)
(3.75565e-15 2.23543e-29 0 8.1618 -2.08716e-15 -2.31562e-46 0.174702 1.48213e-16 6.39234e-17)
(4.06135e-15 -1.69609e-29 3.4428e-32 7.94691 3.69136e-16 -1.39236e-15 0.172592 -1.25646e-17 9.11767e-18)
(-2.4808e-15 1.32204e-29 -3.4428e-32 7.94691 -2.93581e-15 -1.46465e-17 0.172592 1.46109e-16 7.5398e-17)
(2.44524e-15 -8.68725e-30 1.01804e-31 7.73916 1.40786e-16 -1.32326e-15 0.170541 -3.50261e-18 -1.35582e-17)
(0 1.30309e-29 -1.01804e-31 7.73916 -4.04805e-15 -4.54655e-17 0.170541 1.44167e-16 8.59838e-17)
(-1.60492e-15 -1.33749e-29 3.34482e-32 7.53828 2.43127e-16 -1.2692e-15 0.168546 -2.7342e-18 -3.51108e-17)
(0 1.71255e-29 -6.68964e-32 7.53828 -3.81359e-15 -2.19666e-17 0.168546 1.29986e-16 9.6775e-17)
(0 -2.95401e-29 1.97813e-31 7.344 2.11543e-15 -1.25293e-15 0.166606 -3.96568e-17 -5.2348e-17)
(1.2935e-14 3.37601e-29 -2.30782e-31 7.344 -1.58057e-15 -2.89092e-17 0.166606 1.26876e-16 1.08611e-16)
(-2.3416e-15 0 0 7.15607 2.13268e-15 -1.18299e-15 0.164719 -5.70123e-17 -6.31538e-17)
(6.51481e-15 8.31905e-30 -3.24963e-32 7.15607 -1.60264e-15 -4.61188e-17 0.164719 1.33292e-16 1.20502e-16)
(-3.94843e-15 3.65317e-29 -1.60153e-31 6.97425 9.31636e-16 -1.30562e-15 0.162883 -4.16231e-17 -7.41079e-17)
(-6.56155e-15 -2.86994e-29 1.28122e-31 6.97425 -3.29095e-15 -6.89303e-17 0.162883 1.18624e-16 1.31836e-16)
(6.23025e-16 1.58614e-29 -9.47144e-32 6.7983 -1.62195e-16 -1.35762e-15 0.161097 -9.6664e-18 -8.67652e-17)
(-6.60775e-15 -8.08229e-30 6.31429e-32 6.7983 -2.45952e-15 -1.08283e-16 0.161097 1.07492e-16 1.41808e-16)
(0 8.96831e-44 -6.22379e-32 6.62799 -3.16747e-28 -1.30226e-15 0.15936 -3.15544e-30 -9.86579e-17)
(-2.24236e-15 -7.96645e-30 3.1119e-32 6.62799 -1.79781e-16 -1.26417e-16 0.15936 1.20268e-16 1.51988e-16)
(0 -7.84535e-32 -3.06729e-32 6.46312 5.16594e-16 -1.18447e-15 0.15767 -6.33526e-18 -1.10928e-16)
(4.48838e-15 -3.92614e-30 0 6.46312 -1.26556e-15 -1.0946e-16 0.15767 1.36642e-16 1.62943e-16)
(-4.92721e-16 2.72343e-29 -1.814e-31 6.30347 2.40332e-15 -1.18087e-15 0.156025 -4.49834e-17 -1.21736e-16)
(0 -2.70891e-29 1.51167e-31 6.30347 -3.85301e-15 -6.23242e-17 0.156025 1.30554e-16 1.73997e-16)
(0 -4.19584e-29 1.937e-31 6.14884 2.11096e-15 -1.31938e-15 0.154425 -7.48393e-17 -1.34459e-16)
(1.35749e-14 4.19584e-29 -1.937e-31 6.14884 -2.8243e-15 -2.52893e-17 0.154425 1.1437e-16 1.85566e-16)
(2.11654e-15 -7.51946e-30 4.40593e-32 5.99905 1.02207e-15 -1.21927e-15 0.152867 -3.14321e-17 -1.47362e-16)
(1.15459e-14 1.12792e-29 2.7296e-32 5.99905 -3.25214e-15 2.13085e-30 0.152867 1.3172e-16 1.96689e-16)
(-3.43723e-15 3.74004e-30 0 5.8539 1.21532e-15 -1.12394e-15 0.15135 -2.08471e-17 -1.58867e-16)
(0 3.70584e-30 0 5.8539 -4.93376e-15 5.52855e-18 0.15135 1.26841e-16 2.07421e-16)
(-1.72932e-15 3.7156e-30 -2.85369e-32 5.71324 1.70151e-15 -1.22536e-15 0.149874 -4.24693e-17 -1.70718e-16)
(1.38346e-14 7.30546e-30 0 5.71324 -3.56007e-15 5.90735e-17 0.149874 1.00637e-16 2.18445e-16)
(3.76675e-15 -1.8112e-29 2.81279e-32 5.57687 2.41707e-15 -1.22468e-15 0.148436 -4.72789e-17 -1.84205e-16)
(-2.02683e-15 1.44015e-29 -2.81279e-32 5.57687 -3.82851e-15 3.58521e-17 0.148436 9.93439e-17 2.30784e-16)
(-1.75042e-15 3.70242e-30 0 5.44466 2.02249e-15 -1.20153e-15 0.147037 -8.22686e-17 -1.96549e-16)
(0 1.06463e-29 -1.38624e-32 5.44466 -3.73641e-15 -1.20398e-17 0.147037 7.29458e-17 2.44195e-16)
(-1.76081e-15 1.7701e-29 -4.09911e-32 5.31643 2.56552e-16 -1.2296e-15 0.145673 -2.70942e-17 -2.1005e-16)
(7.04323e-15 -1.39916e-29 4.09911e-32 5.31643 -1.10741e-15 -4.14931e-17 0.145673 5.79039e-17 2.57021e-16)
(-1.7711e-15 1.4013e-45 -1.34679e-32 5.19205 7.42317e-30 -1.19635e-15 0.144345 1.03017e-45 -2.22871e-16)
(7.0844e-15 0 0 5.19205 -1.15486e-15 -6.85613e-17 0.144345 7.03434e-17 2.68189e-16)
(-3.56259e-15 7.40787e-30 0 5.07137 1.10491e-15 -1.2057e-15 0.143052 -3.55831e-17 -2.36048e-16)
(0 0 0 5.07137 -1.44392e-15 -6.33548e-17 0.143052 5.8328e-17 2.80542e-16)
(-1.7914e-15 2.04533e-29 -1.96269e-32 4.95426 7.789e-16 -1.28917e-15 0.141791 -2.69725e-17 -2.49411e-16)
(-3.77137e-15 -6.69931e-30 6.54229e-33 4.95426 -8.65996e-16 -1.31413e-16 0.141791 6.09566e-17 2.92125e-16)
(0 -9.90493e-30 1.2897e-32 4.84058 7.52959e-16 -1.31453e-15 0.140563 -1.77448e-17 -2.6397e-16)
(-3.48831e-15 1.65082e-29 -1.2897e-32 4.84058 -1.65428e-15 -1.6506e-16 0.140563 7.81645e-17 3.01928e-16)
(1.81133e-15 -1.34683e-29 1.27122e-32 4.73021 1.26023e-15 -1.15071e-15 0.139366 -2.62384e-17 -2.77781e-16)
(7.24531e-15 9.76297e-30 -1.35978e-31 4.73021 -2.74137e-15 -8.1661e-17 0.139366 9.06227e-17 3.11715e-16)
(1.82116e-15 -1.9739e-29 6.265e-33 4.62304 1.64104e-15 -5.41196e-16 0.138199 -4.85035e-17 -2.90153e-16)
(-7.28463e-15 1.60384e-29 -6.265e-33 4.62304 -2.97424e-15 -6.61362e-17 0.138199 7.05974e-17 3.22197e-16)
(-5.1024e-17 1.00213e-29 -9.26281e-33 4.51894 2.26239e-15 -1.93805e-17 0.137061 -5.00374e-17 -2.94935e-16)
(5.54374e-15 0 6.17521e-33 4.51894 -1.39944e-15 -1.14983e-16 0.137061 6.63672e-17 3.31534e-16)
(0 9.34917e-30 4.15995e-32 4.41781 3.31627e-15 -3.08149e-33 0.135952 -8.80486e-17 -2.99756e-16)
(0 0 3.04335e-33 4.41781 -1.43655e-15 -1.48196e-16 0.135952 8.90205e-17 3.40156e-16)
(-1.72923e-15 1.22869e-29 -1.19989e-32 4.31955 4.29136e-15 -7.20811e-18 0.13487 -1.17107e-16 -3.05068e-16)
(7.40062e-15 0 5.99946e-33 4.31955 -2.94649e-15 -1.1115e-16 0.13487 7.85474e-17 3.48244e-16)
(1.55216e-16 -1.57761e-29 4.30179e-32 4.22404 4.23941e-15 -2.70509e-30 0.133815 -1.52209e-16 -3.09977e-16)
(1.70444e-15 1.21108e-29 -5.91347e-33 4.22404 -4.12556e-15 -7.62476e-17 0.133815 6.66331e-17 3.57771e-16)
(1.68001e-15 1.19372e-29 -5.82872e-33 4.13121 4.02365e-15 1.04665e-17 0.132786 -1.17208e-16 -3.16201e-16)
(-9.15636e-15 0 2.91436e-33 4.13121 -4.43534e-15 -1.33266e-16 0.132786 3.4385e-17 3.64652e-16)
(-1.65593e-15 1.17661e-29 5.87615e-31 4.04094 5.15233e-15 7.90266e-18 0.131782 -1.42643e-16 -3.19808e-16)
(0 0 -2.87259e-33 4.04094 -3.02251e-15 -1.55749e-16 0.131782 1.10133e-17 3.70551e-16)
(0 1.15975e-29 2.18953e-47 3.95316 5.16371e-15 0 0.130802 -1.95078e-16 -3.24976e-16)
(-1.6322e-15 0 8.49425e-33 3.95316 -2.60176e-15 -1.56783e-16 0.130802 -3.19024e-18 3.75196e-16)
(1.89693e-15 1.92182e-29 3.75935e-32 3.86778 4.2557e-15 -4.92442e-17 0.129847 -1.47582e-16 -3.30482e-16)
(0 -2.28625e-29 2.51175e-32 3.86778 -4.17402e-15 -1.79561e-16 0.129847 -4.04289e-18 3.78898e-16)
(1.90607e-15 7.62504e-30 -1.37542e-32 3.78471 3.84899e-15 -2.77201e-17 0.128914 -1.39156e-16 -3.36209e-16)
(0 0 3.36811e-31 3.78471 -5.23995e-15 -1.05512e-16 0.128914 -1.11136e-17 3.83528e-16)
(-3.83028e-15 7.28381e-30 0 3.70389 3.40527e-15 -5.45423e-30 0.128003 -1.23896e-16 -3.40862e-16)
(7.66056e-15 0 0 3.70389 -4.14438e-15 -4.53229e-17 0.128003 -2.5713e-17 3.87964e-16)
(-1.92415e-15 -1.83371e-30 0 3.62522 2.73282e-15 -8.81839e-17 0.127114 -1.12229e-16 -3.46408e-16)
(0 5.47338e-30 -8.01764e-33 3.62522 -2.85042e-15 -7.73461e-17 0.127114 -1.9332e-17 3.89868e-16)
(3.03708e-15 5.39493e-30 -7.90273e-33 3.54865 2.21302e-15 -1.01425e-16 0.126246 -7.98581e-17 -3.52125e-16)
(-3.03708e-15 -5.39493e-30 9.21985e-33 3.54865 -2.37306e-15 -1.31581e-16 0.126246 -1.17441e-17 3.91423e-16)
(2.99355e-15 5.31761e-30 -1.42807e-32 3.4741 3.19747e-15 -2.72327e-17 0.125398 -7.81339e-17 -3.57441e-16)
(-2.99355e-15 0 1.0386e-32 3.4741 -3.33489e-15 -1.24053e-16 0.125398 8.26874e-18 3.92525e-16)
(0 1.57242e-29 -1.4076e-32 3.40151 5.02383e-15 3.16689e-17 0.12457 -1.54025e-16 -3.61615e-16)
(-2.95064e-15 -5.24139e-30 8.95746e-33 3.40151 -4.42773e-15 -6.74721e-17 0.12457 -2.43611e-17 3.93314e-16)
(0 5.16627e-30 -1.2613e-32 3.33081 5.22593e-15 5.32504e-17 0.123762 -2.15617e-16 -3.66324e-16)
(1.27679e-14 0 1.0909e-31 3.33081 -3.77094e-15 2.92631e-30 0.123762 -8.61035e-17 3.93037e-16)
(-3.93647e-15 7.21755e-30 0 3.26193 4.61857e-15 1.46485e-17 0.122972 -1.73715e-16 -3.70899e-16)
(7.87293e-15 0 0 3.26193 -3.62614e-15 -2.71516e-19 0.122972 -8.75487e-17 3.94679e-16)
(4.80245e-15 -8.62283e-30 5.22552e-32 3.19483 4.00392e-15 0 0.1222 -1.75657e-16 -3.76538e-16)
(0 5.01924e-30 -1.34794e-32 3.19483 -5.62713e-15 -9.9569e-17 0.1222 -8.44892e-17 3.94701e-16)
(0 4.9473e-30 -7.24702e-33 3.12944 3.22939e-15 1.42252e-17 0.121446 -1.31291e-16 -3.83479e-16)
(-7.94183e-15 0 2.41567e-33 3.12944 -6.62022e-15 -1.24031e-16 0.121446 -1.31633e-16 3.89933e-16)
(-4.73915e-15 -1.5895e-29 2.41202e-32 3.06571 2.995e-15 -3.85186e-34 0.120709 -1.20061e-16 -3.87602e-16)
(7.97595e-15 2.4382e-29 0 3.06571 -5.25824e-15 -1.49869e-46 0.120709 -1.77643e-16 3.84624e-16)
(2.70582e-15 9.61301e-30 -1.5255e-32 3.00358 3.021e-15 -3.4953e-17 0.119989 -1.16488e-16 -3.94856e-16)
(-2.70582e-15 -4.8065e-30 9.3877e-33 3.00358 -5.58384e-15 2.10787e-18 0.119989 -2.08483e-16 3.80976e-16)
(0 -4.73761e-30 6.93986e-33 2.94301 3.42214e-15 5.7765e-17 0.119284 -1.25677e-16 -3.99702e-16)
(2.66704e-15 4.73761e-30 -1.04098e-32 2.94301 -7.2797e-15 -5.89182e-17 0.119284 -2.49015e-16 3.76262e-16)
(-2.01926e-15 8.26598e-30 -3.4202e-33 2.88395 2.50498e-15 -5.44884e-30 0.118596 -1.52751e-16 -4.04811e-16)
(0 -4.66971e-30 3.4202e-33 2.88395 -7.08803e-15 -3.91166e-17 0.118596 -3.16565e-16 3.7188e-16)
(-1.46403e-15 -2.9607e-29 4.15779e-32 2.82635 1.93433e-15 -3.35188e-17 0.117923 -5.31556e-17 -4.11595e-16)
(1.88118e-14 3.22195e-29 5.08451e-32 2.82635 -6.13291e-15 2.4303e-30 0.117923 -3.63057e-16 3.66378e-16)
(0 4.53681e-30 -9.96858e-33 2.77016 4.69944e-15 3.80439e-17 0.117265 -1.09124e-16 -4.1751e-16)
(0 0 6.64572e-33 2.77016 -6.71822e-15 4.1491e-17 0.117265 -3.90514e-16 3.63383e-16)
(-2.51739e-15 1.34154e-29 5.86255e-32 2.71534 6.00821e-15 -2.72243e-30 0.116622 -2.91184e-16 -4.22441e-16)
(0 -4.47179e-30 1.31009e-32 2.71534 -6.46725e-15 -1.54596e-16 0.116622 -4.5462e-16 3.56838e-16)
(-6.15678e-15 -2.01686e-29 4.25059e-32 2.66186 5.45671e-15 -4.19172e-17 0.115992 -2.25874e-16 -4.29972e-16)
(1.64181e-14 3.08539e-29 4.8492e-32 2.66186 -5.7896e-15 1.2326e-32 0.115992 -5.01843e-16 3.49422e-16)
(0 -3.04117e-29 1.54348e-46 2.60966 5.90567e-15 0 0.115376 -2.51167e-16 -4.34449e-16)
(1.64832e-14 3.04117e-29 -2.30575e-30 2.60966 -8.0933e-15 6.83671e-17 0.115376 -5.58693e-16 3.4218e-16)
(-2.06848e-15 1.63829e-29 -1.93412e-32 2.55871 5.71079e-15 -1.33286e-16 0.114774 -2.72585e-16 -4.42521e-16)
(-2.41069e-15 -1.28468e-29 1.35911e-32 2.55871 -8.86214e-15 4.93824e-17 0.114774 -6.76949e-16 3.3896e-16)
(2.07653e-15 -3.30783e-29 4.4311e-32 2.50898 6.2236e-15 -5.68391e-17 0.114185 -2.40868e-16 -4.477e-16)
(1.66122e-14 2.95462e-29 -4.4311e-32 2.50898 -6.77324e-15 -7.00308e-17 0.114185 -7.73299e-16 3.34502e-16)
(0 -2.49623e-29 2.8948e-32 2.46043 6.37337e-15 -1.04956e-16 0.113608 -3.27707e-16 -4.53263e-16)
(8.33813e-15 2.49623e-29 4.51097e-32 2.46043 -8.07337e-15 1.94891e-30 0.113608 -8.27684e-16 3.2505e-16)