/*--------------------------------*- C++ -*----------------------------------*\
| =========                 |                                                 |
| \\      /  F ield         | OpenFOAM: The Open Source CFD Toolbox           |
|  \\    /   O peration     | Version:  2012                                  |
|   \\  /    A nd           | Website:  www.openfoam.com                      |
|    \\/     M anipulation  |                                                 |
\*---------------------------------------------------------------------------*/
FoamFile
{
    version     2.0;
    format      ascii;
    class       volTensorField;
    location    "13000";
    object      grad(U);
}
// * * * * * * * * * * * * * * * * * * * * * * * * * * * * * * * * * * * * * //

dimensions      [0 0 -1 0 0 0 0];


internalField   nonuniform List<tensor> 
80
(
(0 -8.75812e-47 0 47.4415 0 -1.24128e-13 1.93012 6.30383e-29 -1.75051e-15)
(-3.36348e-16 1.19495e-30 -4.66322e-28 47.4415 1.95438e-14 -1.0707e-13 1.93012 2.28746e-15 -1.86724e-15)
(1.61308e-15 -2.62475e-28 -2.65698e-28 38.9655 -5.46229e-31 -4.99399e-31 6.98086 0 0)
(0 5.73083e-30 4.08698e-30 38.9655 -2.11313e-14 -4.50181e-14 6.98086 -2.96061e-15 -6.05161e-15)
(0 5.17559e-30 0 20.8382 6.07328e-14 1.24286e-14 6.41738 -4.47109e-15 -8.76977e-15)
(3.39383e-15 0 -5.43491e-30 20.8382 0 1.43309e-16 6.41738 -4.84798e-16 -3.21351e-17)
(0 5.14888e-31 0 7.14001 3.21845e-15 -5.94427e-15 3.5466 -3.66658e-15 -4.32744e-15)
(6.76861e-15 0 4.1191e-30 7.14001 -5.73095e-15 -4.15462e-15 3.5466 -2.24417e-15 -3.76421e-15)
(-2.12232e-15 -3.54931e-31 4.93868e-30 2.44368 7.68951e-17 -1.76975e-14 2.2202 -2.18095e-15 -1.60788e-15)
(2.78023e-15 0 -9.87735e-30 2.44368 -2.45883e-15 -1.99207e-14 2.2202 -3.16676e-15 -2.08727e-15)
(-2.36715e-15 1.09476e-45 0 0.948812 1.91283e-30 -1.86592e-14 1.56616 -3.08154e-47 5.52203e-29)
(0 0 0 0.948812 2.74235e-17 -1.77925e-14 1.56616 -2.85426e-17 1.57772e-29)
(2.52272e-15 5.54646e-32 -2.8026e-45 0.414562 1.14339e-15 7.88861e-31 1.22824 7.49027e-16 3.15544e-29)
(0 -1.66394e-31 0 0.414562 9.34578e-16 -7.06166e-15 1.22824 4.93454e-16 4.73317e-29)
(0 -8.66279e-32 0 0.19891 3.60232e-16 5.64186e-15 1.02519 -2.39924e-16 1.74757e-15)
(1.05445e-14 -4.37906e-47 0 0.19891 -2.09284e-32 4.42745e-32 1.02519 0 9.23952e-16)
(-2.72692e-15 -4.75319e-30 5.10284e-30 0.100608 2.29219e-16 1.58169e-15 0.883493 1.10736e-15 2.59406e-15)
(1.89427e-14 1.55543e-29 0 0.100608 1.27052e-16 2.75286e-15 0.883493 6.13791e-16 3.83872e-15)
(1.18038e-18 7.64768e-31 -6.84665e-32 0 -2.17778e-15 -1.19088e-15 5.90189e-19 7.07148e-15 -5.1294e-15)
(8.88178e-15 -7.64768e-31 5.95552e-45 1.10328e-15 -2.15799e-15 7.88861e-31 7.10602e-15 6.43082e-15 1.6895e-29)
(3.36348e-16 0 1.49369e-31 47.4415 -1.32992e-14 2.96332e-14 -1.93012 -6.22201e-15 1.75051e-15)
(0 0 -7.46843e-32 47.4415 -1.15897e-14 2.11058e-14 -1.93012 -2.28746e-15 1.86724e-15)
(0 0 -1.43271e-30 38.9655 -1.74819e-14 3.93595e-14 -6.98086 1.5744e-14 1.43942e-14)
(0 -7.67559e-29 1.43271e-30 38.9655 -4.42677e-15 3.74901e-14 -6.98086 5.95073e-16 1.3414e-14)
(-1.93404e-15 4.29443e-31 -3.43554e-30 20.8382 -1.31669e-15 3.3785e-14 -6.41738 4.17053e-15 8.76977e-15)
(0 0 1.71777e-30 20.8382 1.89804e-16 3.53312e-14 -6.41738 4.84798e-16 9.82279e-15)
(3.38431e-15 -8.60994e-31 -4.1191e-30 7.14001 -1.70633e-15 2.62445e-14 -3.5466 8.37328e-16 4.32744e-15)
(-6.76861e-15 1.848e-31 4.1191e-30 7.14001 -3.15188e-15 2.77684e-14 -3.5466 1.91126e-15 3.76421e-15)
(0 -4.37906e-46 0 2.44368 1.55987e-46 2.50792e-14 -2.2202 -7.88861e-31 1.60788e-15)
(0 -4.57428e-31 0 2.44368 2.67433e-16 2.57889e-14 -2.2202 1.66865e-16 2.08727e-15)
(2.36715e-15 0 0 0.948812 2.9334e-15 2.05909e-14 -1.56616 2.73531e-15 -5.52203e-29)
(-9.46859e-15 0 0 0.948812 2.96918e-15 2.03e-14 -1.56616 2.63965e-15 -1.57772e-29)
(0 -6.39903e-32 -1.47383e-29 0.414562 1.38517e-16 3.19316e-16 -1.22824 -2.4049e-16 -3.15544e-29)
(-2.01817e-14 -3.50325e-46 0 0.414562 -1.13433e-45 8.65166e-15 -1.22824 6.91833e-31 -4.73317e-29)
(0 1.9522e-31 0 0.19891 6.27725e-16 -4.66825e-15 -1.02519 2.39924e-16 -1.74757e-15)
(-1.05445e-14 -1.33001e-31 -1.13856e-45 0.19891 1.07634e-15 0 -1.02519 4.36748e-16 -1.92866e-30)
(-2.72692e-15 3.50325e-46 0 0.100608 1.97215e-31 -2.56099e-15 -0.883493 -3.32586e-30 -2.59406e-15)
(-1.09077e-14 -8.6631e-30 0 0.100608 2.43182e-16 -2.83363e-15 -0.883493 -1.17482e-15 -3.83872e-15)
(3.04391e-16 1.52954e-30 1.22363e-29 0 -2.16772e-15 2.12465e-15 0 -7.07148e-15 5.1294e-15)
(-1.49835e-16 0 8.57055e-31 0 -2.14903e-15 3.9443e-31 3.55507e-15 -6.43082e-15 1.54393e-15)
(-2.91025e-15 1.20512e-42 -8.7297e-32 -2.79258e-09 1.35684e-28 7.46992e-16 2.25029e-08 6.31315e-46 -3.96653e-15)
(1.16433e-14 -8.50203e-30 0 -2.79221e-09 -2.51677e-18 1.74303e-15 2.25029e-08 -2.02817e-17 5.56054e-17)
(-2.72692e-15 0 0 -0.100608 3.99687e-16 1.29385e-15 0.883493 1.11418e-15 8.82831e-16)
(-1.09077e-14 -6.19834e-32 -5.17879e-31 -0.100608 8.3457e-16 1.22245e-15 0.883493 1.41283e-15 -1.47642e-15)
(0 5.32003e-31 -3.30308e-31 -0.19891 -2.90025e-16 9.86076e-32 1.02519 1.3421e-15 0)
(0 -5.32003e-31 1.06401e-30 -0.19891 -7.55888e-17 5.04544e-16 1.02519 2.49758e-15 1.86829e-15)
(-5.04544e-15 0 1.86138e-31 -0.414562 -5.05791e-16 8.47134e-16 1.22824 2.72831e-16 -1.20401e-16)
(1.00909e-14 -1.10929e-31 -2.77323e-32 -0.414562 -2.02034e-16 1.85268e-16 1.22824 3.25721e-16 1.96006e-15)
(0 0 -8.58957e-32 -0.948812 4.21377e-18 -1.82497e-16 1.56616 -1.8573e-16 5.16936e-18)
(0 -6.45035e-32 9.25206e-32 -0.948812 -2.46519e-32 -1.77912e-16 1.56616 -2.32398e-16 -4.76752e-17)
(0 1.75162e-45 -8.75812e-46 -2.44368 -4.64998e-30 4.93038e-32 2.2202 0 2.88038e-16)
(8.48929e-15 -7.71668e-32 0 -2.44368 -3.67147e-16 2.78455e-16 2.2202 1.31181e-16 -2.23893e-16)
(-1.69215e-15 1.90082e-31 2.01128e-33 -7.14001 1.20882e-18 1.3598e-15 3.5466 -1.04192e-16 2.95715e-16)
(6.76862e-15 -1.60903e-31 1.54069e-33 -7.14001 -7.10436e-16 -8.42215e-45 3.5466 1.32512e-16 -1.11019e-17)
(0 -2.8026e-45 -9.39406e-32 -20.8382 -2.92684e-31 8.78372e-16 6.41738 3.08149e-33 5.19462e-16)
(0 0 6.71004e-32 -20.8382 4.4776e-31 -2.53811e-16 6.41738 0 -1.75026e-16)
(0 8.39477e-33 4.47721e-32 -38.9655 -6.944e-16 -1.77866e-15 6.98086 8.91078e-18 5.07581e-16)
(0 -1.67895e-32 -6.71581e-32 -38.9655 7.93684e-16 5.6491e-16 6.98086 -2.90252e-18 -2.52083e-16)
(0 -1.19765e-30 -2.17284e-30 -47.4415 0 -1.81444e-15 1.93012 -3.08611e-30 1.53521e-16)
(0 1.16694e-33 -1.92546e-32 -47.4415 3.31491e-16 1.01238e-15 1.93012 2.91854e-18 8.40561e-18)
(0 3.05907e-30 -1.22363e-29 -2.79258e-09 -1.24009e-16 -2.19127e-15 -2.25029e-08 9.99344e-16 3.96653e-15)
(-3.44185e-15 0 -1.18891e-29 -2.7924e-09 1.94138e-18 -9.49084e-16 -2.25029e-08 6.04047e-16 -5.56054e-17)
(2.72692e-15 3.18927e-31 -6.37855e-31 -0.100608 1.01719e-15 -1.29385e-15 -0.883493 -1.11418e-15 -8.82831e-16)
(-1.09077e-14 -1.97276e-31 -1.26792e-31 -0.100608 4.46889e-16 -1.22245e-15 -0.883493 -1.41283e-15 1.47642e-15)
(4.55166e-15 7.59618e-31 -2.78127e-32 -0.19891 -2.34321e-16 -1.04099e-16 -1.02519 -6.78622e-16 2.38012e-15)
(-1.53363e-14 -5.47382e-45 4.2039e-45 -0.19891 -1.60495e-44 -3.22985e-44 -1.02519 -9.86076e-30 7.09975e-30)
(-5.04544e-15 9.60347e-32 1.34888e-30 -0.414562 -7.65942e-16 -8.47134e-16 -1.22824 -2.72831e-16 1.20401e-16)
(-1.00909e-14 -8.3197e-32 -1.33115e-30 -0.414562 -1.13763e-15 -1.33137e-15 -1.22824 -3.25721e-16 -1.96006e-15)
(3.33341e-15 0 9.86903e-32 -0.948812 1.96475e-16 1.82497e-16 -1.56616 1.8573e-16 -5.16936e-18)
(-3.33341e-15 0 -4.35175e-31 -0.948812 -1.28877e-46 -7.28888e-16 -1.56616 1.82668e-30 4.76752e-17)
(2.12232e-15 0 -3.50325e-46 -2.44368 5.58472e-17 -4.88884e-45 -2.2202 -2.5622e-16 4.93038e-31)
(0 3.90427e-32 2.315e-31 -2.44368 7.62725e-16 -6.37225e-17 -2.2202 -1.31181e-16 2.23893e-16)
(0 4.37906e-47 -2.57444e-31 -7.14001 2.21511e-45 -5.91727e-16 -3.5466 -1.47911e-31 -2.95715e-16)
(0 1.75162e-46 2.57444e-31 -7.14001 -1.2326e-32 -3.10115e-16 -3.5466 7.85985e-31 1.11019e-17)
(1.69692e-15 -1.50976e-32 1.07465e-31 -20.8382 5.00506e-16 2.6362e-16 -6.41738 -2.18511e-17 -1.3369e-16)
(3.39383e-15 1.50976e-32 0 -20.8382 -3.71798e-16 -6.69439e-16 -6.41738 5.04133e-17 1.99394e-16)
(8.06542e-16 -8.39477e-33 5.00829e-45 -38.9655 5.01785e-16 -3.72568e-44 -6.98086 -8.91078e-18 9.02213e-30)
(0 1.53904e-32 8.40779e-45 -38.9655 -4.74604e-16 1.15543e-43 -6.98086 2.90252e-18 1.39037e-29)
(-3.36348e-16 2.33389e-33 -9.33554e-32 -47.4415 2.28904e-16 -5.42681e-15 -1.93012 4.03893e-18 -1.53521e-16)
(0 -3.50083e-33 7.46843e-32 -47.4415 -3.49778e-16 1.20202e-15 -1.93012 -2.91854e-18 -8.40561e-18)
)
;

boundaryField
{
    walls
    {
        type            extrapolatedCalculated;
        value           nonuniform List<tensor> 8((0 -8.75812e-47 0 47.9021 3.00531e-13 -1.05508e-13 1.93012 6.30383e-29 -1.75051e-15) (3.36348e-16 0 1.49369e-31 47.9021 8.30569e-15 1.86196e-14 -1.93012 -6.22201e-15 1.75051e-15) (-3.36348e-16 1.19495e-30 -4.66322e-28 47.9021 1.04194e-13 -9.98764e-14 1.93012 2.28746e-15 -1.86724e-15) (0 0 -7.46843e-32 47.9021 9.34763e-15 7.19351e-15 -1.93012 -2.28746e-15 1.86724e-15) (0 -1.19765e-30 -2.17284e-30 -47.9021 2.67581e-16 -9.36311e-16 1.93012 -3.08611e-30 1.53521e-16) (-3.36348e-16 2.33389e-33 -9.33554e-32 -47.9021 -6.71038e-17 -6.6839e-15 -1.93012 4.03893e-18 -1.53521e-16) (0 1.16694e-33 -1.92546e-32 -47.9021 1.51143e-16 8.78128e-16 1.93012 2.91854e-18 8.40561e-18) (0 -3.50083e-33 7.46843e-32 -47.9021 -2.96008e-16 -1.29535e-15 -1.93012 -2.91854e-18 -8.40561e-18));
    }
    inlet
    {
        type            cyclic;
    }
    outlet
    {
        type            cyclic;
    }
    sides
    {
        type            empty;
    }
}


// ************************************************************************* //
