/*--------------------------------*- C++ -*----------------------------------*\
| =========                 |                                                 |
| \\      /  F ield         | OpenFOAM: The Open Source CFD Toolbox           |
|  \\    /   O peration     | Version:  2012                                  |
|   \\  /    A nd           | Website:  www.openfoam.com                      |
|    \\/     M anipulation  |                                                 |
\*---------------------------------------------------------------------------*/
FoamFile
{
    version     2.0;
    format      ascii;
    class       volScalarField;
    location    "16100";
    object      nut;
}
// * * * * * * * * * * * * * * * * * * * * * * * * * * * * * * * * * * * * * //

dimensions      [0 2 -1 0 0 0 0];


internalField   nonuniform List<scalar> 
2560
(
6.86196e-09
6.86196e-09
9.64392e-07
9.64392e-07
1.98485e-05
1.98485e-05
0.000125339
0.000125339
0.000369039
0.000369039
0.000721464
0.000721464
0.00114357
0.00114357
0.00161174
0.00161174
0.0021123
0.0021123
0.00263671
0.00263671
0.00317921
0.00317921
0.00373568
0.00373568
0.004303
0.004303
0.00487873
0.00487873
0.00546092
0.00546092
0.00604794
0.00604794
0.00663844
0.00663844
0.00723122
0.00723122
0.00782526
0.00782526
0.00841964
0.00841964
0.00901355
0.00901355
0.00960622
0.00960622
0.010197
0.010197
0.0107852
0.0107852
0.0113702
0.0113702
0.0119514
0.0119514
0.0125284
0.0125284
0.0131005
0.0131005
0.0136673
0.0136673
0.0142282
0.0142282
0.0147828
0.0147828
0.0153307
0.0153307
0.0158713
0.0158713
0.0164043
0.0164043
0.0169291
0.0169291
0.0174455
0.0174455
0.0179529
0.0179529
0.0184512
0.0184512
0.0189398
0.0189398
0.0194185
0.0194185
0.0198871
0.0198871
0.0203452
0.0203452
0.0207927
0.0207927
0.0212295
0.0212295
0.0216554
0.0216554
0.0220704
0.0220704
0.0224746
0.0224746
0.0228682
0.0228682
0.0232512
0.0232512
0.0236242
0.0236242
0.0239874
0.0239874
0.0243416
0.0243416
0.0246873
0.0246873
0.0250254
0.0250254
0.025357
0.025357
0.0256832
0.0256832
0.0260054
0.0260054
0.0263252
0.0263252
0.0266442
0.0266442
0.0269644
0.0269644
0.0272879
0.0272879
0.0276172
0.0276172
0.0279545
0.0279545
0.0283027
0.0283027
0.0286644
0.0286644
0.0290424
0.0290424
0.0294397
0.0294397
0.029859
0.029859
0.0303031
0.0303031
0.0307746
0.0307746
0.0312757
0.0312757
0.0318086
0.0318086
0.0323747
0.0323747
0.0329752
0.0329752
0.0336108
0.0336108
0.0342817
0.0342817
0.0349872
0.0349872
0.0357265
0.0357265
0.0364979
0.0364979
0.0372995
0.0372995
0.0381288
0.0381288
0.0389829
0.0389829
0.0398588
0.0398588
0.040753
0.040753
0.0416622
0.0416622
0.0425828
0.0425828
0.0435112
0.0435112
0.0444439
0.0444439
0.0453775
0.0453775
0.0463088
0.0463088
0.0472348
0.0472348
0.0481527
0.0481527
0.0490598
0.0490598
0.0499538
0.0499538
0.0508325
0.0508325
0.0516942
0.0516942
0.0525371
0.0525371
0.0533599
0.0533599
0.0541614
0.0541614
0.0549407
0.0549407
0.055697
0.055697
0.0564296
0.0564296
0.0571383
0.0571383
0.0578226
0.0578226
0.0584826
0.0584826
0.0591181
0.0591181
0.0597293
0.0597293
0.0603164
0.0603164
0.0608796
0.0608796
0.0614193
0.0614193
0.0619359
0.0619359
0.0624298
0.0624298
0.0629016
0.0629016
0.0633517
0.0633517
0.0637807
0.0637807
0.0641891
0.0641891
0.0645775
0.0645775
0.0649465
0.0649465
0.0652966
0.0652966
0.0656284
0.0656284
0.0659425
0.0659425
0.0662393
0.0662393
0.0665195
0.0665195
0.0667835
0.0667835
0.0670318
0.0670318
0.0672649
0.0672649
0.0674832
0.0674832
0.0676873
0.0676873
0.0678774
0.0678774
0.068054
0.068054
0.0682175
0.0682175
0.0683682
0.0683682
0.0685064
0.0685064
0.0686326
0.0686326
0.068747
0.068747
0.0688499
0.0688499
0.0689415
0.0689415
0.0690223
0.0690223
0.0690924
0.0690924
0.0691521
0.0691521
0.0692016
0.0692016
0.0692412
0.0692412
0.069271
0.069271
0.0692914
0.0692914
0.0693025
0.0693025
0.0693046
0.0693046
0.0692978
0.0692978
0.0692824
0.0692824
0.0692587
0.0692587
0.0692268
0.0692268
0.069187
0.069187
0.0691395
0.0691395
0.0690846
0.0690846
0.0690226
0.0690226
0.0689538
0.0689538
0.0688784
0.0688784
0.0687969
0.0687969
0.0687094
0.0687094
0.0686163
0.0686163
0.0685181
0.0685181
0.068415
0.068415
0.0683073
0.0683073
0.0681955
0.0681955
0.0680798
0.0680798
0.0679605
0.0679605
0.0678379
0.0678379
0.0677122
0.0677122
0.0675837
0.0675837
0.0674524
0.0674524
0.0673187
0.0673187
0.0671825
0.0671825
0.0670442
0.0670442
0.0669038
0.0669038
0.0667615
0.0667615
0.0666176
0.0666176
0.0664723
0.0664723
0.066326
0.066326
0.0661788
0.0661788
0.0660313
0.0660313
0.0658838
0.0658838
0.0657366
0.0657366
0.0655903
0.0655903
0.0654453
0.0654453
0.0653019
0.0653019
0.0651607
0.0651607
0.0650221
0.0650221
0.0648865
0.0648865
0.0647545
0.0647545
0.0646264
0.0646264
0.0645027
0.0645027
0.0643841
0.0643841
0.0642711
0.0642711
0.0641644
0.0641644
0.0640648
0.0640648
0.0639729
0.0639729
0.0638898
0.0638898
0.0638162
0.0638162
0.0637532
0.0637532
0.0637018
0.0637018
0.063663
0.063663
0.063638
0.063638
0.0636278
0.0636278
0.0636334
0.0636334
0.0636557
0.0636557
0.0636958
0.0636958
0.0637545
0.0637545
0.0638323
0.0638323
0.0639299
0.0639299
0.0640478
0.0640478
0.0641866
0.0641866
0.0643466
0.0643466
0.0645283
0.0645283
0.064732
0.064732
0.064958
0.064958
0.0652062
0.0652062
0.0654766
0.0654766
0.0657686
0.0657686
0.0660817
0.0660817
0.0664148
0.0664148
0.0667668
0.0667668
0.0671362
0.0671362
0.0675214
0.0675214
0.0679208
0.0679208
0.068333
0.068333
0.0687568
0.0687568
0.0691913
0.0691913
0.0696358
0.0696358
0.0700896
0.0700896
0.0705516
0.0705516
0.0710204
0.0710204
0.0714942
0.0714942
0.0719708
0.0719708
0.0724483
0.0724483
0.072925
0.072925
0.0733992
0.0733992
0.0738698
0.0738698
0.0743358
0.0743358
0.0747967
0.0747967
0.0752526
0.0752526
0.0757041
0.0757041
0.0761523
0.0761524
0.0765983
0.0765983
0.0770426
0.0770426
0.0774849
0.0774849
0.0779237
0.0779237
0.0783564
0.0783564
0.0787792
0.0787793
0.0791874
0.0791874
0.0795751
0.0795751
0.0799371
0.0799371
0.0802696
0.0802697
0.0805719
0.080572
0.0808457
0.0808458
0.0810956
0.0810957
0.081328
0.0813281
0.0815517
0.0815518
0.0817737
0.0817737
0.0819972
0.0819971
0.0822216
0.0822215
0.0824457
0.0824457
0.0826703
0.0826703
0.082899
0.0828989
0.0831379
0.0831378
0.0833946
0.0833946
0.0836774
0.0836773
0.0839937
0.0839937
0.08435
0.08435
0.0847509
0.0847509
0.0852002
0.0852002
0.0857003
0.0857003
0.086253
0.086253
0.0868583
0.0868584
0.0875149
0.0875149
0.0882187
0.0882187
0.0889633
0.0889633
0.08974
0.0897401
0.0905382
0.0905382
0.0913449
0.091345
0.0921457
0.0921457
0.0929264
0.0929264
0.0936749
0.0936749
0.0943802
0.0943802
0.0950296
0.0950296
0.0956084
0.0956084
0.0961023
0.0961023
0.0965036
0.0965036
0.0968135
0.0968135
0.097042
0.097042
0.0972053
0.0972052
0.0973274
0.0973274
0.0974399
0.0974399
0.0975734
0.0975734
0.0977482
0.0977482
0.0979731
0.0979732
0.098251
0.098251
0.0985839
0.0985839
0.0989746
0.0989746
0.0994253
0.0994253
0.0999377
0.0999377
0.100511
0.100511
0.10114
0.10114
0.101814
0.101814
0.102514
0.102514
0.103222
0.103222
0.103915
0.103915
0.104562
0.104562
0.105121
0.105121
0.105555
0.105555
0.105844
0.105844
0.105991
0.105991
0.106021
0.106021
0.105963
0.105963
0.10584
0.10584
0.105671
0.105671
0.105481
0.105481
0.105296
0.105296
0.105132
0.105132
0.104997
0.104997
0.104895
0.104895
0.104837
0.104837
6.86196e-09
6.86196e-09
9.64392e-07
9.64392e-07
1.98485e-05
1.98485e-05
0.000125339
0.000125339
0.000369039
0.000369039
0.000721464
0.000721464
0.00114357
0.00114357
0.00161174
0.00161174
0.0021123
0.0021123
0.00263671
0.00263671
0.00317921
0.00317921
0.00373568
0.00373568
0.004303
0.004303
0.00487873
0.00487873
0.00546092
0.00546092
0.00604794
0.00604794
0.00663844
0.00663844
0.00723122
0.00723122
0.00782526
0.00782526
0.00841964
0.00841964
0.00901355
0.00901355
0.00960622
0.00960622
0.010197
0.010197
0.0107852
0.0107852
0.0113702
0.0113702
0.0119514
0.0119514
0.0125284
0.0125284
0.0131005
0.0131005
0.0136673
0.0136673
0.0142282
0.0142282
0.0147828
0.0147828
0.0153307
0.0153307
0.0158713
0.0158713
0.0164043
0.0164043
0.0169291
0.0169291
0.0174455
0.0174455
0.0179529
0.0179529
0.0184512
0.0184512
0.0189398
0.0189398
0.0194185
0.0194185
0.0198871
0.0198871
0.0203452
0.0203452
0.0207927
0.0207927
0.0212295
0.0212295
0.0216554
0.0216554
0.0220704
0.0220704
0.0224746
0.0224746
0.0228682
0.0228682
0.0232512
0.0232512
0.0236242
0.0236242
0.0239874
0.0239874
0.0243416
0.0243416
0.0246873
0.0246873
0.0250254
0.0250254
0.025357
0.025357
0.0256832
0.0256832
0.0260054
0.0260054
0.0263252
0.0263252
0.0266442
0.0266442
0.0269644
0.0269644
0.0272879
0.0272879
0.0276172
0.0276172
0.0279545
0.0279545
0.0283027
0.0283027
0.0286644
0.0286644
0.0290424
0.0290424
0.0294397
0.0294397
0.029859
0.029859
0.0303031
0.0303031
0.0307746
0.0307746
0.0312757
0.0312757
0.0318086
0.0318086
0.0323747
0.0323747
0.0329752
0.0329752
0.0336108
0.0336108
0.0342817
0.0342817
0.0349872
0.0349872
0.0357265
0.0357265
0.0364979
0.0364979
0.0372995
0.0372995
0.0381288
0.0381288
0.0389829
0.0389829
0.0398588
0.0398588
0.040753
0.040753
0.0416622
0.0416622
0.0425828
0.0425828
0.0435112
0.0435112
0.0444438
0.0444438
0.0453775
0.0453775
0.0463088
0.0463088
0.0472348
0.0472348
0.0481527
0.0481527
0.0490598
0.0490598
0.0499538
0.0499538
0.0508325
0.0508325
0.0516942
0.0516942
0.0525371
0.0525371
0.0533599
0.0533599
0.0541614
0.0541614
0.0549407
0.0549407
0.055697
0.055697
0.0564296
0.0564296
0.0571383
0.0571383
0.0578226
0.0578226
0.0584826
0.0584826
0.0591181
0.0591181
0.0597293
0.0597293
0.0603164
0.0603164
0.0608796
0.0608796
0.0614193
0.0614193
0.0619359
0.0619359
0.0624298
0.0624298
0.0629016
0.0629016
0.0633517
0.0633517
0.0637807
0.0637807
0.0641891
0.0641891
0.0645775
0.0645775
0.0649465
0.0649465
0.0652966
0.0652966
0.0656284
0.0656284
0.0659425
0.0659425
0.0662393
0.0662393
0.0665195
0.0665195
0.0667835
0.0667835
0.0670318
0.0670318
0.0672649
0.0672649
0.0674832
0.0674832
0.0676872
0.0676872
0.0678774
0.0678774
0.068054
0.068054
0.0682175
0.0682175
0.0683682
0.0683682
0.0685064
0.0685064
0.0686326
0.0686326
0.068747
0.068747
0.0688499
0.0688499
0.0689415
0.0689415
0.0690223
0.0690223
0.0690924
0.0690924
0.0691521
0.0691521
0.0692016
0.0692016
0.0692412
0.0692412
0.069271
0.069271
0.0692914
0.0692914
0.0693025
0.0693025
0.0693046
0.0693046
0.0692978
0.0692978
0.0692824
0.0692824
0.0692587
0.0692587
0.0692268
0.0692268
0.069187
0.069187
0.0691395
0.0691395
0.0690846
0.0690846
0.0690226
0.0690226
0.0689538
0.0689538
0.0688784
0.0688784
0.0687969
0.0687969
0.0687094
0.0687094
0.0686163
0.0686163
0.0685181
0.0685181
0.068415
0.068415
0.0683073
0.0683073
0.0681955
0.0681955
0.0680798
0.0680798
0.0679605
0.0679605
0.0678379
0.0678379
0.0677122
0.0677122
0.0675837
0.0675837
0.0674524
0.0674524
0.0673187
0.0673187
0.0671825
0.0671825
0.0670442
0.0670442
0.0669038
0.0669038
0.0667615
0.0667615
0.0666176
0.0666176
0.0664723
0.0664723
0.066326
0.066326
0.0661788
0.0661788
0.0660313
0.0660313
0.0658838
0.0658838
0.0657366
0.0657366
0.0655903
0.0655903
0.0654453
0.0654453
0.0653019
0.0653019
0.0651607
0.0651607
0.0650221
0.0650221
0.0648865
0.0648865
0.0647545
0.0647545
0.0646264
0.0646264
0.0645027
0.0645027
0.0643841
0.0643841
0.0642711
0.0642711
0.0641644
0.0641644
0.0640648
0.0640648
0.0639729
0.0639729
0.0638898
0.0638898
0.0638162
0.0638162
0.0637532
0.0637532
0.0637018
0.0637018
0.063663
0.063663
0.063638
0.063638
0.0636278
0.0636278
0.0636334
0.0636334
0.0636558
0.0636558
0.0636959
0.0636959
0.0637545
0.0637545
0.0638323
0.0638323
0.0639299
0.0639299
0.0640478
0.0640478
0.0641866
0.0641866
0.0643466
0.0643466
0.0645283
0.0645283
0.064732
0.064732
0.064958
0.064958
0.0652063
0.0652063
0.0654766
0.0654766
0.0657686
0.0657686
0.0660817
0.0660817
0.0664148
0.0664148
0.0667669
0.0667669
0.0671363
0.0671363
0.0675215
0.0675215
0.0679209
0.0679209
0.068333
0.068333
0.0687568
0.0687568
0.0691914
0.0691913
0.0696359
0.0696359
0.0700897
0.0700897
0.0705517
0.0705517
0.0710205
0.0710205
0.0714942
0.0714942
0.0719709
0.0719709
0.0724484
0.0724484
0.0729251
0.072925
0.0733993
0.0733993
0.0738699
0.0738699
0.0743359
0.0743359
0.0747968
0.0747968
0.0752526
0.0752526
0.0757042
0.0757042
0.0761524
0.0761524
0.0765984
0.0765984
0.0770427
0.0770427
0.077485
0.0774849
0.0779238
0.0779237
0.0783565
0.0783564
0.0787793
0.0787793
0.0791875
0.0791874
0.0795752
0.0795751
0.0799372
0.0799371
0.0802697
0.0802697
0.080572
0.0805719
0.0808458
0.0808457
0.0810957
0.0810956
0.0813281
0.081328
0.0815518
0.0815518
0.0817737
0.0817737
0.0819971
0.0819972
0.0822216
0.0822216
0.0824457
0.0824457
0.0826703
0.0826703
0.082899
0.082899
0.0831378
0.0831379
0.0833946
0.0833946
0.0836773
0.0836774
0.0839937
0.0839937
0.08435
0.08435
0.084751
0.084751
0.0852002
0.0852002
0.0857003
0.0857003
0.086253
0.086253
0.0868584
0.0868584
0.0875149
0.0875149
0.0882187
0.0882187
0.0889633
0.0889633
0.0897401
0.0897401
0.0905382
0.0905382
0.091345
0.091345
0.0921457
0.0921457
0.0929264
0.0929264
0.0936749
0.0936749
0.0943802
0.0943802
0.0950296
0.0950296
0.0956083
0.0956083
0.0961023
0.0961023
0.0965035
0.0965035
0.0968134
0.0968134
0.0970419
0.0970419
0.0972052
0.0972052
0.0973273
0.0973274
0.0974398
0.0974398
0.0975734
0.0975734
0.0977481
0.0977481
0.0979731
0.0979731
0.098251
0.098251
0.0985839
0.0985839
0.0989746
0.0989746
0.0994253
0.0994253
0.0999377
0.0999377
0.100511
0.100511
0.10114
0.10114
0.101814
0.101814
0.102514
0.102514
0.103222
0.103222
0.103915
0.103915
0.104562
0.104562
0.105121
0.105121
0.105555
0.105555
0.105844
0.105844
0.105991
0.105991
0.106021
0.106021
0.105963
0.105963
0.10584
0.10584
0.105671
0.105671
0.105481
0.105481
0.105296
0.105296
0.105132
0.105132
0.104997
0.104997
0.104895
0.104895
0.104837
0.104837
0.104836
0.104836
0.104893
0.104893
0.104994
0.104994
0.105127
0.105127
0.105289
0.105289
0.105472
0.105472
0.10566
0.10566
0.105827
0.105827
0.105946
0.105946
0.105996
0.105996
0.105959
0.10596
0.105807
0.105807
0.105515
0.105515
0.10508
0.10508
0.104522
0.104522
0.10388
0.10388
0.103191
0.103191
0.102487
0.102487
0.10179
0.10179
0.101119
0.10112
0.100494
0.100494
0.0999235
0.0999236
0.0994147
0.0994147
0.0989673
0.0989673
0.0985798
0.0985798
0.0982499
0.0982499
0.0979749
0.097975
0.0977527
0.0977527
0.0975806
0.0975806
0.0974496
0.0974496
0.0973398
0.0973398
0.0972201
0.0972201
0.0970579
0.0970579
0.0968288
0.0968288
0.0965167
0.0965167
0.0961119
0.0961119
0.0956143
0.0956143
0.095033
0.095033
0.0943817
0.0943818
0.0936753
0.0936753
0.0929258
0.0929258
0.092144
0.092144
0.0913422
0.0913422
0.0905342
0.0905343
0.0897348
0.0897348
0.0889569
0.0889569
0.0882112
0.0882112
0.0875066
0.0875066
0.0868495
0.0868495
0.0862438
0.0862438
0.085691
0.085691
0.0851908
0.0851908
0.0847415
0.0847415
0.0843405
0.0843405
0.0839844
0.0839844
0.0836682
0.0836682
0.0833857
0.0833857
0.0831291
0.0831291
0.0828904
0.0828904
0.0826623
0.0826622
0.0824384
0.0824383
0.0822147
0.0822146
0.0819903
0.0819903
0.0817667
0.0817667
0.0815443
0.0815443
0.0813199
0.08132
0.0810871
0.0810872
0.0808372
0.0808373
0.0805633
0.0805634
0.0802607
0.0802608
0.0799274
0.0799275
0.079565
0.0795651
0.0791773
0.0791774
0.0787696
0.0787697
0.0783476
0.0783476
0.0779162
0.0779162
0.0774788
0.0774788
0.0770378
0.0770378
0.0765943
0.0765943
0.0761485
0.0761486
0.0757002
0.0757002
0.0752484
0.0752484
0.0747923
0.0747923
0.0743312
0.0743312
0.073865
0.073865
0.0733942
0.0733942
0.07292
0.07292
0.0724435
0.0724435
0.0719661
0.0719661
0.0714897
0.0714897
0.0710163
0.0710163
0.070548
0.0705481
0.0700867
0.0700867
0.0696337
0.0696337
0.06919
0.06919
0.0687561
0.0687561
0.0683327
0.0683327
0.0679209
0.0679209
0.0675218
0.0675218
0.0671368
0.0671368
0.0667676
0.0667676
0.0664158
0.0664158
0.0660828
0.0660828
0.0657699
0.0657699
0.0654778
0.0654778
0.0652074
0.0652074
0.0649589
0.0649589
0.0647328
0.0647328
0.0645289
0.0645289
0.064347
0.064347
0.0641869
0.0641869
0.0640481
0.0640481
0.0639303
0.0639303
0.0638327
0.0638327
0.063755
0.063755
0.0636965
0.0636965
0.0636565
0.0636565
0.0636342
0.0636342
0.0636287
0.0636287
0.063639
0.063639
0.0636641
0.0636641
0.0637029
0.0637029
0.0637543
0.0637543
0.0638173
0.0638173
0.063891
0.063891
0.0639742
0.0639742
0.064066
0.064066
0.0641657
0.0641657
0.0642724
0.0642724
0.0643854
0.0643854
0.0645041
0.0645041
0.0646278
0.0646278
0.0647559
0.0647559
0.0648879
0.0648879
0.0650235
0.0650235
0.0651621
0.0651621
0.0653033
0.0653033
0.0654466
0.0654466
0.0655917
0.0655917
0.065738
0.065738
0.0658852
0.0658852
0.0660327
0.0660327
0.0661803
0.0661803
0.0663274
0.0663274
0.0664739
0.0664739
0.0666192
0.0666192
0.0667631
0.0667631
0.0669054
0.0669054
0.0670458
0.0670458
0.0671842
0.0671842
0.0673203
0.0673203
0.0674542
0.0674542
0.0675855
0.0675855
0.0677141
0.0677141
0.0678398
0.0678398
0.0679624
0.0679624
0.0680817
0.0680817
0.0681975
0.0681975
0.0683093
0.0683093
0.068417
0.068417
0.0685201
0.0685201
0.0686184
0.0686184
0.0687115
0.0687115
0.068799
0.068799
0.0688806
0.0688806
0.068956
0.068956
0.0690249
0.0690249
0.0690869
0.0690869
0.0691418
0.0691418
0.0691893
0.0691893
0.0692291
0.0692291
0.0692611
0.0692611
0.0692849
0.0692849
0.0693003
0.0693003
0.0693071
0.0693071
0.0693051
0.0693051
0.0692941
0.0692941
0.0692738
0.0692738
0.069244
0.069244
0.0692045
0.0692045
0.0691551
0.0691551
0.0690955
0.0690955
0.0690255
0.0690255
0.0689449
0.0689449
0.0688533
0.0688533
0.0687504
0.0687504
0.0686361
0.0686361
0.0685099
0.0685099
0.0683717
0.0683717
0.068221
0.068221
0.0680576
0.0680576
0.0678811
0.0678811
0.067691
0.067691
0.067487
0.067487
0.0672687
0.0672687
0.0670356
0.0670356
0.0667873
0.0667873
0.0665233
0.0665233
0.0662431
0.0662431
0.0659462
0.0659462
0.0656321
0.0656321
0.0653002
0.0653002
0.06495
0.06495
0.0645809
0.0645809
0.0641924
0.0641924
0.0637838
0.0637838
0.0633547
0.0633547
0.0629045
0.0629045
0.0624328
0.0624328
0.0619388
0.0619388
0.0614222
0.0614222
0.0608825
0.0608825
0.0603193
0.0603193
0.0597323
0.0597323
0.0591211
0.0591211
0.0584856
0.0584856
0.0578256
0.0578256
0.0571412
0.0571412
0.0564326
0.0564326
0.0556999
0.0556999
0.0549437
0.0549437
0.0541644
0.0541644
0.053363
0.053363
0.0525403
0.0525403
0.0516974
0.0516974
0.0508358
0.0508358
0.049957
0.049957
0.0490629
0.0490629
0.0481555
0.0481555
0.0472373
0.0472373
0.0463109
0.0463109
0.0453792
0.0453792
0.0444454
0.0444454
0.0435125
0.0435125
0.0425839
0.0425839
0.0416631
0.0416631
0.0407537
0.0407537
0.0398591
0.0398591
0.0389829
0.0389829
0.0381285
0.0381285
0.0372988
0.0372988
0.0364969
0.0364969
0.0357252
0.0357252
0.0349856
0.0349856
0.0342798
0.0342798
0.0336087
0.0336087
0.0329728
0.0329728
0.032372
0.032372
0.0318056
0.0318056
0.0312725
0.0312725
0.0307711
0.0307711
0.0302994
0.0302994
0.0298551
0.0298551
0.0294356
0.0294356
0.0290382
0.0290382
0.02866
0.02866
0.0282982
0.0282982
0.02795
0.02795
0.0276125
0.0276125
0.0272832
0.0272832
0.0269595
0.0269595
0.0266393
0.0266393
0.0263203
0.0263203
0.0260006
0.0260006
0.0256784
0.0256784
0.0253523
0.0253523
0.0250208
0.0250208
0.0246828
0.0246828
0.0243373
0.0243373
0.0239833
0.0239833
0.0236202
0.0236202
0.0232473
0.0232473
0.0228645
0.0228645
0.0224711
0.0224711
0.0220671
0.0220671
0.0216522
0.0216522
0.0212265
0.0212265
0.0207899
0.0207899
0.0203425
0.0203425
0.0198846
0.0198846
0.0194162
0.0194162
0.0189376
0.0189376
0.0184491
0.0184491
0.017951
0.017951
0.0174436
0.0174436
0.0169274
0.0169274
0.0164026
0.0164026
0.0158698
0.0158698
0.0153292
0.0153292
0.0147815
0.0147815
0.0142269
0.0142269
0.0136661
0.0136661
0.0130994
0.0130994
0.0125274
0.0125274
0.0119505
0.0119505
0.0113694
0.0113694
0.0107844
0.0107844
0.0101963
0.0101963
0.00960565
0.00960565
0.00901303
0.00901303
0.00841919
0.00841919
0.00782485
0.00782485
0.00723087
0.00723087
0.00663813
0.00663813
0.00604768
0.00604768
0.0054607
0.0054607
0.00487855
0.00487855
0.00430285
0.00430285
0.00373557
0.00373557
0.00317913
0.00317913
0.00263664
0.00263664
0.00211225
0.00211225
0.00161171
0.00161171
0.00114355
0.00114355
0.000721456
0.000721456
0.000369037
0.000369037
0.000125338
0.000125338
1.98484e-05
1.98484e-05
9.64383e-07
9.64383e-07
6.86204e-09
6.86204e-09
0.104836
0.104836
0.104893
0.104893
0.104994
0.104994
0.105127
0.105127
0.105289
0.105289
0.105472
0.105472
0.10566
0.10566
0.105827
0.105827
0.105946
0.105946
0.105996
0.105996
0.10596
0.105959
0.105807
0.105807
0.105515
0.105515
0.10508
0.10508
0.104522
0.104522
0.10388
0.10388
0.103191
0.103191
0.102487
0.102487
0.10179
0.10179
0.10112
0.101119
0.100494
0.100493
0.0999236
0.0999235
0.0994147
0.0994147
0.0989673
0.0989673
0.0985798
0.0985798
0.0982499
0.0982499
0.097975
0.097975
0.0977528
0.0977528
0.0975806
0.0975806
0.0974496
0.0974496
0.0973399
0.0973399
0.0972201
0.0972201
0.0970579
0.0970579
0.0968289
0.0968289
0.0965168
0.0965168
0.0961119
0.0961119
0.0956144
0.0956144
0.0950331
0.095033
0.0943818
0.0943818
0.0936754
0.0936753
0.0929258
0.0929258
0.092144
0.092144
0.0913422
0.0913422
0.0905343
0.0905342
0.0897348
0.0897348
0.0889569
0.0889569
0.0882112
0.0882112
0.0875066
0.0875066
0.0868495
0.0868495
0.0862438
0.0862438
0.085691
0.085691
0.0851909
0.0851909
0.0847416
0.0847416
0.0843406
0.0843406
0.0839844
0.0839844
0.0836683
0.0836683
0.0833857
0.0833858
0.0831291
0.0831292
0.0828905
0.0828905
0.0826623
0.0826624
0.0824384
0.0824384
0.0822147
0.0822148
0.0819904
0.0819904
0.0817668
0.0817668
0.0815444
0.0815443
0.08132
0.08132
0.0810873
0.0810872
0.0808374
0.0808373
0.0805635
0.0805634
0.0802608
0.0802608
0.0799276
0.0799275
0.0795651
0.0795651
0.0791774
0.0791774
0.0787697
0.0787697
0.0783477
0.0783477
0.0779162
0.0779162
0.0774789
0.0774788
0.0770378
0.0770378
0.0765943
0.0765943
0.0761486
0.0761486
0.0757002
0.0757002
0.0752484
0.0752484
0.0747923
0.0747923
0.0743312
0.0743311
0.073865
0.073865
0.0733942
0.0733942
0.07292
0.07292
0.0724435
0.0724435
0.0719661
0.0719661
0.0714896
0.0714896
0.0710163
0.0710163
0.070548
0.070548
0.0700866
0.0700866
0.0696336
0.0696336
0.0691899
0.0691899
0.068756
0.068756
0.0683327
0.0683327
0.0679209
0.0679209
0.0675217
0.0675217
0.0671367
0.0671367
0.0667675
0.0667675
0.0664157
0.0664157
0.0660828
0.0660828
0.0657698
0.0657698
0.0654778
0.0654778
0.0652073
0.0652073
0.0649589
0.0649589
0.0647327
0.0647327
0.0645288
0.0645288
0.0643469
0.0643469
0.0641869
0.0641869
0.0640481
0.0640481
0.0639302
0.0639302
0.0638327
0.0638327
0.0637549
0.0637549
0.0636964
0.0636964
0.0636564
0.0636564
0.0636341
0.0636341
0.0636286
0.0636286
0.063639
0.063639
0.0636641
0.0636641
0.0637029
0.0637029
0.0637543
0.0637543
0.0638173
0.0638173
0.0638909
0.0638909
0.0639741
0.0639741
0.064066
0.064066
0.0641657
0.0641657
0.0642724
0.0642724
0.0643854
0.0643854
0.0645041
0.0645041
0.0646278
0.0646278
0.0647559
0.0647559
0.0648879
0.0648879
0.0650235
0.0650235
0.0651621
0.0651621
0.0653033
0.0653033
0.0654466
0.0654466
0.0655917
0.0655917
0.065738
0.065738
0.0658852
0.0658852
0.0660327
0.0660327
0.0661803
0.0661803
0.0663274
0.0663274
0.0664738
0.0664738
0.0666192
0.0666192
0.0667631
0.0667631
0.0669053
0.0669053
0.0670458
0.0670458
0.0671842
0.0671842
0.0673203
0.0673203
0.0674541
0.0674541
0.0675854
0.0675854
0.067714
0.067714
0.0678398
0.0678398
0.0679624
0.0679624
0.0680817
0.0680817
0.0681974
0.0681974
0.0683093
0.0683093
0.068417
0.068417
0.0685201
0.0685201
0.0686184
0.0686184
0.0687115
0.0687115
0.068799
0.068799
0.0688806
0.0688806
0.068956
0.068956
0.0690248
0.0690248
0.0690869
0.0690869
0.0691418
0.0691418
0.0691893
0.0691893
0.0692291
0.0692291
0.0692611
0.0692611
0.0692849
0.0692849
0.0693003
0.0693003
0.0693071
0.0693071
0.0693051
0.0693051
0.0692941
0.0692941
0.0692738
0.0692738
0.069244
0.069244
0.0692045
0.0692045
0.0691551
0.0691551
0.0690955
0.0690955
0.0690255
0.0690255
0.0689449
0.0689449
0.0688533
0.0688533
0.0687504
0.0687504
0.0686361
0.0686361
0.0685099
0.0685099
0.0683717
0.0683717
0.068221
0.068221
0.0680576
0.0680576
0.0678811
0.0678811
0.067691
0.067691
0.067487
0.067487
0.0672687
0.0672687
0.0670356
0.0670356
0.0667873
0.0667873
0.0665233
0.0665233
0.0662431
0.0662431
0.0659462
0.0659462
0.0656321
0.0656321
0.0653002
0.0653002
0.06495
0.06495
0.0645809
0.0645809
0.0641924
0.0641924
0.0637838
0.0637838
0.0633547
0.0633547
0.0629045
0.0629045
0.0624328
0.0624328
0.0619388
0.0619388
0.0614222
0.0614222
0.0608825
0.0608825
0.0603193
0.0603193
0.0597323
0.0597323
0.0591211
0.0591211
0.0584856
0.0584856
0.0578256
0.0578256
0.0571412
0.0571412
0.0564325
0.0564325
0.0556999
0.0556999
0.0549437
0.0549437
0.0541644
0.0541644
0.053363
0.053363
0.0525403
0.0525403
0.0516974
0.0516974
0.0508358
0.0508358
0.049957
0.049957
0.0490628
0.0490628
0.0481555
0.0481555
0.0472373
0.0472373
0.0463109
0.0463109
0.0453792
0.0453792
0.0444454
0.0444454
0.0435125
0.0435125
0.0425839
0.0425839
0.0416631
0.0416631
0.0407537
0.0407537
0.0398591
0.0398591
0.0389829
0.0389829
0.0381284
0.0381284
0.0372988
0.0372988
0.0364969
0.0364969
0.0357252
0.0357252
0.0349856
0.0349856
0.0342798
0.0342798
0.0336087
0.0336087
0.0329728
0.0329728
0.032372
0.032372
0.0318056
0.0318056
0.0312725
0.0312725
0.0307711
0.0307711
0.0302994
0.0302994
0.0298551
0.0298551
0.0294356
0.0294356
0.0290382
0.0290382
0.02866
0.02866
0.0282982
0.0282982
0.02795
0.02795
0.0276125
0.0276125
0.0272832
0.0272832
0.0269595
0.0269595
0.0266393
0.0266393
0.0263203
0.0263203
0.0260006
0.0260006
0.0256784
0.0256784
0.0253523
0.0253523
0.0250208
0.0250208
0.0246828
0.0246828
0.0243373
0.0243373
0.0239833
0.0239833
0.0236202
0.0236202
0.0232473
0.0232473
0.0228645
0.0228645
0.0224711
0.0224711
0.0220671
0.0220671
0.0216522
0.0216522
0.0212265
0.0212265
0.0207899
0.0207899
0.0203425
0.0203425
0.0198846
0.0198846
0.0194162
0.0194162
0.0189376
0.0189376
0.0184491
0.0184491
0.017951
0.017951
0.0174436
0.0174436
0.0169274
0.0169274
0.0164026
0.0164026
0.0158698
0.0158698
0.0153292
0.0153292
0.0147815
0.0147815
0.0142269
0.0142269
0.0136661
0.0136661
0.0130994
0.0130994
0.0125274
0.0125274
0.0119505
0.0119505
0.0113694
0.0113694
0.0107844
0.0107844
0.0101963
0.0101963
0.00960565
0.00960565
0.00901303
0.00901303
0.00841919
0.00841919
0.00782485
0.00782485
0.00723087
0.00723087
0.00663813
0.00663813
0.00604768
0.00604768
0.0054607
0.0054607
0.00487855
0.00487855
0.00430285
0.00430285
0.00373557
0.00373557
0.00317913
0.00317913
0.00263664
0.00263664
0.00211225
0.00211225
0.00161171
0.00161171
0.00114355
0.00114355
0.000721456
0.000721456
0.000369037
0.000369037
0.000125338
0.000125338
1.98484e-05
1.98484e-05
9.64383e-07
9.64383e-07
6.86204e-09
6.86204e-09
)
;

boundaryField
{
    walls
    {
        type            nutUWallFunction;
        blending        stepwise;
        Cmu             0.09;
        kappa           0.41;
        E               9.8;
        value           uniform 0;
    }
    inlet
    {
        type            cyclic;
    }
    outlet
    {
        type            cyclic;
    }
    sides
    {
        type            empty;
    }
}


// ************************************************************************* //
