/*--------------------------------*- C++ -*----------------------------------*\
| =========                 |                                                 |
| \\      /  F ield         | OpenFOAM: The Open Source CFD Toolbox           |
|  \\    /   O peration     | Version:  2012                                  |
|   \\  /    A nd           | Website:  www.openfoam.com                      |
|    \\/     M anipulation  |                                                 |
\*---------------------------------------------------------------------------*/
FoamFile
{
    version     2.0;
    format      ascii;
    class       volTensorField;
    location    "10400";
    object      grad(U);
}
// * * * * * * * * * * * * * * * * * * * * * * * * * * * * * * * * * * * * * //

dimensions      [0 0 -1 0 0 0 0];


internalField   nonuniform List<tensor> 
2560
(
(0 -1.05485e-14 5.28266e-14 289.029 0 2.43964 0.419472 -5.42101e-20 0.003452)
(-7.3145e-17 0 1.14289e-18 288.786 -0.00900787 0.000248587 0.419472 -0.000386409 -0.00344063)
(0 7.04068e-20 4.03698e-14 287.466 0.0248347 -5.65752e-21 1.25939 4.535e-05 8.67362e-19)
(0 -5.28051e-20 2.25302e-18 287.229 0.118009 -0.000178902 1.25939 4.4926e-05 -0.00520084)
(-5.47076e-17 -9.97592e-20 7.52153e-19 286.093 -0.0675624 -0.6666 1.71328 3.06904e-05 0.00210965)
(0 1.69157e-19 -2.22073e-18 285.868 0.0525351 -3.78659e-05 1.71198 2.99009e-05 -0.00467528)
(1.71259e-16 -3.04929e-19 1.09445e-18 284.709 -0.0462645 -0.938579 1.72975 1.08186e-06 0.00322511)
(0 3.04929e-19 -1.09445e-18 284.503 0.035619 -1.08029e-05 1.72856 -5.79931e-08 -0.00321441)
(1.10465e-15 -4.06906e-19 1.34845e-18 283.308 -0.0227559 -0.695423 1.74616 -8.23031e-07 0.00185405)
(-5.52327e-16 4.0638e-19 -1.07876e-18 283.125 0.0225334 -1.08239e-05 1.7451 -2.27854e-06 -0.0018479)
(9.52469e-16 -2.03263e-19 3.98738e-19 281.744 -0.0126558 -0.366034 1.76082 7.01353e-07 0.00109661)
(3.26548e-15 2.71017e-19 -5.31651e-19 281.587 0.0131177 -3.78282e-06 1.75991 -7.61265e-07 -0.00109297)
(1.61784e-15 -6.76788e-20 0 279.795 -0.0086062 -0.184707 1.77251 7.61203e-07 0.00071779)
(-3.16653e-17 2.03292e-19 -2.62015e-19 279.663 0.0084567 -8.08413e-07 1.77175 -7.74419e-07 -0.000715409)
(-6.50375e-16 2.71123e-19 -1.93695e-19 277.361 -0.00605627 -0.101004 1.78099 3.31187e-07 0.00051476)
(2.60184e-15 -2.03279e-19 6.4565e-20 277.255 0.00617671 4.4711e-08 1.78039 -1.25219e-06 -0.000513053)
(1.81553e-15 -2.71059e-19 6.36396e-20 274.637 -0.00481182 -0.0606497 1.78877 1.23323e-06 0.000394885)
(0 3.38831e-19 -6.36396e-20 274.556 0.0046544 1.00342e-07 1.78832 -3.37596e-07 -0.000393576)
(0 2.71002e-19 -2.5091e-19 272.041 -0.00369696 -0.0393397 1.79867 -1.37268e-07 0.000307582)
(0 -2.03129e-19 1.25455e-19 271.983 0.00383114 -4.60073e-08 1.79837 -1.79375e-06 -0.000316936)
(-3.045e-15 -4.7434e-19 1.46955e-19 269.625 -0.00324889 -0.0270816 1.80861 1.74614e-06 0.000210485)
(0 5.42116e-19 -1.54571e-19 269.589 0.00310892 -1.16108e-07 1.80844 4.45202e-08 -0.000264488)
(3.14006e-15 -8.13199e-19 2.54332e-19 267.233 -0.00273938 -0.0195174 1.81866 -5.95345e-07 0.000151404)
(-1.99696e-15 8.13199e-19 -2.13298e-19 267.216 0.00278418 -2.00607e-07 1.81861 -2.24097e-06 -0.000226764)
(0 -2.0326e-19 3.00344e-20 264.96 -0.00220332 -0.0146103 1.83006 1.9739e-06 0.000113233)
(0 2.71014e-19 -3.00344e-20 264.96 0.0435123 0.000160986 1.83012 3.56987e-07 -0.000198549)
(-1.39336e-15 3.55247e-19 -7.15498e-20 262.672 -0.0020678 -0.0111964 1.83975 0.000142648 8.77756e-05)
(5.57334e-15 0 2.9604e-20 262.688 -2.44434e-21 2.17897e-06 1.8399 0 -0.00017612)
(0 4.66874e-19 -1.75078e-19 259.915 -0.00182701 -0.00881357 1.8443 -1.66553e-05 6.85075e-05)
(0 -4.66874e-19 1.75078e-19 259.942 0.100957 0.00013153 1.84454 -0.000287727 -0.000159609)
(-1.64873e-15 -5.75229e-20 -4.10703e-20 256.331 -0.00269853 -0.00703069 1.84173 0.000502724 5.63275e-05)
(6.59474e-15 -4.81482e-35 2.87614e-20 256.368 -1.93297e-17 7.74331e-06 1.84203 -4.82403e-35 -0.000144537)
(-1.85789e-15 -4.79573e-17 -1.41746e-19 251.805 2.86491e-17 -0.00567443 1.83182 1.0842e-19 4.469e-05)
(-5.25354e-15 1.7846e-16 1.41746e-19 251.851 0.0776923 -0.000129735 1.83218 -0.000283366 -0.000134426)
(0 1.5648e-18 -8.38287e-20 246.738 -0.00155844 -0.00470433 1.82012 0.000806121 3.8047e-05)
(-7.62639e-15 -3.34868e-19 8.38287e-20 246.788 -3.01797e-17 3.53013e-06 1.82051 1.0842e-19 -0.000124384)
(0 0 5.50848e-20 242.105 -0.000845526 -0.00392267 1.81542 -0.000342841 3.1536e-05)
(0 1.09732e-29 -6.8856e-20 242.158 3.42123e-17 -3.32107e-06 1.81583 0 -0.000117083)
(2.15883e-15 1.30309e-18 -5.63857e-20 238.685 -0.00183469 -0.00330377 1.82096 0.000977318 2.73384e-05)
(-8.63509e-15 -5.41509e-19 1.08591e-19 238.739 -3.38443e-20 8.16485e-07 1.82137 1.0842e-19 -0.00010972)
(0 0 -9.36549e-20 236.338 -0.000734176 -0.00280497 1.83205 -0.000972332 2.29625e-05)
(0 3.04251e-19 9.36549e-20 236.392 4.16143e-17 -6.24452e-06 1.83247 0 -0.000104555)
(-2.40939e-15 -6.33001e-19 -1.09488e-20 234.303 -0.00154838 -0.00239992 1.84216 0.00114884 2.03735e-05)
(0 -1.15556e-33 -1.31875e-20 234.355 -3.46547e-17 -1.3248e-06 1.84257 2.92822e-34 -9.89387e-05)
(7.68608e-15 0 1.45119e-19 231.975 -0.000311223 -0.00212737 1.84842 -0.00126598 1.72374e-05)
(0 4.33334e-34 -1.55982e-19 232.025 1.38778e-17 0.000273247 1.84881 2.1684e-19 -9.51975e-05)
(0 1.84496e-18 -2.56244e-20 229.216 -0.00182119 -0.00177855 1.85126 0.00158593 1.66027e-05)
(-1.06568e-14 -6.59505e-19 5.12488e-20 229.263 -5.49587e-20 5.92491e-06 1.85163 2.1684e-19 -8.94037e-05)
(2.7927e-15 -1.21234e-18 -6.51866e-20 226.112 -0.000420954 -0.0015093 1.85137 -0.00197028 1.20714e-05)
(0 0 7.57714e-20 226.156 3.71124e-32 -5.89501e-05 1.85172 3.79826e-35 -8.80534e-05)
(-9.1063e-15 3.5849e-18 -1.06866e-19 222.686 -0.0021562 -0.00131994 1.84816 0.00219133 1.26479e-05)
(3.26306e-15 0 8.7133e-20 222.727 -7.31579e-17 1.36092e-05 1.84849 -1.6867e-34 -8.34644e-05)
(9.15294e-15 1.57045e-18 1.16516e-19 218.833 -0.000101564 -0.00110902 1.84018 -0.00250207 9.25607e-06)
(2.44075e-14 0 -8.58842e-20 218.871 8.32667e-17 -9.18665e-05 1.84049 -2.98886e-30 -8.25604e-05)
(6.34038e-15 -2.7089e-18 4.83733e-20 214.408 -0.00212869 -0.000982211 1.82608 0.00260595 9.43767e-06)
(6.38201e-15 7.88861e-31 -4.83733e-20 214.442 -8.4535e-17 9.65431e-06 1.82636 0 -7.91775e-05)
(1.85428e-16 -7.62879e-19 -2.0298e-21 209.35 0.000389349 -0.000852269 1.80571 -0.00281271 7.34297e-06)
(0 3.8144e-19 0 209.382 9.76522e-20 6.11595e-06 1.80597 0 -7.83538e-05)
(-6.8776e-15 0 -1.89456e-20 203.838 -0.00230387 -0.000741079 1.78183 0.00292397 7.44343e-06)
(-2.75102e-14 -4.05517e-18 0 203.865 1.01379e-19 1.89099e-06 1.78206 0 -7.5453e-05)
(-3.56535e-15 -1.11175e-18 -3.28443e-20 198.406 0.000799365 -0.000646779 1.76091 -0.00313841 5.58679e-06)
(-2.0333e-14 2.17906e-18 0 198.43 9.70356e-17 -1.46087e-05 1.76111 0 -7.51152e-05)
(0 4.38327e-18 -7.99034e-20 193.89 -0.00260186 -0.000568538 1.75161 0.00325078 5.96535e-06)
(-1.47553e-14 -1.35261e-18 7.99034e-20 193.91 -6.82618e-18 -3.61282e-06 1.75178 0 -7.26262e-05)
(5.89885e-15 1.44015e-18 7.87582e-20 191.116 0.00134539 -0.000498402 1.76115 -0.00346469 4.32268e-06)
(9.33733e-15 7.88861e-31 -7.87582e-20 191.133 -1.20274e-19 -1.86407e-05 1.76128 0 -7.2584e-05)
(-3.92699e-15 0 1.9579e-21 190.534 -0.00303334 -0.000438924 1.792 0.00357683 4.84164e-06)
(0 -9.62965e-35 -1.10899e-20 190.547 -1.06422e-16 -2.28243e-06 1.7921 -4.33681e-19 -7.04151e-05)
(-4.04453e-15 -2.09874e-18 -6.40177e-20 192.02 0.00186235 -0.000449725 1.84106 -0.00378671 3.33214e-06)
(0 0 5.46548e-20 192.029 1.37463e-17 0.000289053 1.84113 7.29677e-35 -7.05731e-05)
(-9.81278e-15 3.44777e-18 -5.16922e-20 194.95 -0.0037571 -0.0003233 1.90112 0.00418372 5.1893e-06)
(-1.66558e-14 -2.32135e-18 2.15486e-20 194.956 -2.81908e-17 7.15635e-06 1.90117 0 -6.69003e-05)
(4.28721e-15 1.35934e-18 2.64574e-17 198.441 0.00240596 -0.000202457 1.96348 -0.00468505 9.85586e-07)
(0 -3.85186e-33 -3.18596e-20 198.445 1.11022e-16 0.00106182 1.9635 -1.88647e-34 -6.90356e-05)
(4.41554e-15 -4.01958e-18 4.88579e-20 201.644 -0.00450655 -0.000200387 2.02053 0.00609069 9.02945e-06)
(0 -7.70372e-34 -4.18706e-20 201.645 0 2.22724e-05 2.02054 0 -5.91609e-05)
(-4.54912e-15 -2.64131e-18 4.27642e-50 203.985 0.00305803 -1.89735e-18 2.06827 -0.00764505 3.86298e-50)
(-5.40941e-15 1.06124e-18 2.06353e-20 203.985 1.11288e-16 0.000450042 2.06825 8.67362e-19 -6.80764e-05)
(0 6.50864e-18 -2.03395e-20 205.407 -0.00511985 -7.51259e-05 2.10883 0.00942154 9.80983e-06)
(0 -1.30722e-18 3.05093e-20 205.403 -5.55112e-16 2.84034e-05 2.10878 0 -5.56239e-05)
(-4.82721e-15 0 4.00071e-18 206.565 0.00368159 1.81604e-18 2.15294 -0.0114193 0)
(1.93089e-14 0 0 206.558 -7.92513e-19 -0.000298289 2.15284 -1.73472e-18 -6.77312e-05)
(0 -1.26468e-17 4.94016e-20 208.949 -0.00556923 3.21101e-05 2.22085 0.0128372 7.75834e-06)
(1.98688e-14 0 -4.94016e-20 208.936 -6.67024e-16 2.37211e-05 2.22068 1.73472e-18 -5.73898e-05)
(5.10476e-15 -7.47933e-18 2.12496e-17 214.737 0.00426999 3.5826e-18 2.33981 -0.0145367 -1.35525e-20)
(-2.04192e-14 8.07059e-18 5.84323e-20 214.717 6.59921e-43 -0.000756501 2.33955 0 -6.79286e-05)
(5.23969e-15 -7.37213e-18 3.69134e-20 226.324 -0.00595122 0.000108964 2.53734 0.0151796 4.4597e-06)
(0 0 -2.87974e-20 226.296 -3.88578e-16 1.37338e-05 2.53698 -1.73472e-18 -6.27357e-05)
(-5.37473e-15 4.84431e-18 5.08158e-18 245.608 0.00480214 -4.76902e-21 2.8329 -0.0161274 0)
(0 0 -4.73078e-20 245.571 4.09651e-16 -0.000244313 2.83244 1.34457e-33 -6.85227e-05)
(5.51583e-15 7.16232e-18 -1.01061e-20 273.405 -0.00648092 0.000162501 3.23251 0.016532 3.73042e-06)
(1.22847e-14 -2.77334e-32 9.32594e-21 273.359 -4.16334e-16 7.67882e-06 3.23196 0 -6.51039e-05)
(9.6388e-15 4.70645e-18 7.44558e-18 309.307 0.00544997 1.70762e-18 3.72944 -0.0172445 0)
(2.26849e-14 3.08149e-33 -3.67691e-20 309.254 8.32667e-16 0.000158289 3.7288 -3.46945e-18 -6.94381e-05)
(-5.84945e-15 0 -1.73813e-20 352.021 -0.00718711 0.000211889 4.30918 0.0178095 5.24698e-06)
(0 -7.70372e-34 -9.06053e-21 351.963 0 1.09987e-05 4.3085 0 -6.49982e-05)
(-6.05838e-15 0 0 400.015 0.00624889 0 4.95809 -0.0186881 1.35525e-20)
(0 3.08149e-32 -2.6792e-20 399.955 4.48065e-16 0.00306269 4.95739 6.34562e-34 -7.06576e-05)
(9.23027e-15 -4.50697e-18 0 452.027 -0.0070167 0.000290431 5.66619 0.022235 2.39005e-05)
(0 4.62223e-32 -1.76053e-20 451.969 -6.69219e-16 5.73048e-05 5.66552 6.25467e-34 -4.4195e-05)
(-1.56909e-14 4.44237e-18 1.78143e-17 506.805 0.00707019 0.000326533 6.4184 -0.0261811 1.94564e-06)
(0 1.54074e-33 -4.33825e-20 506.754 -6.16503e-34 -0.00277845 6.41784 0 -7.24213e-05)
(-8.96758e-15 2.18935e-17 -6.84172e-20 562.07 -0.00649101 0.000449949 7.17822 0.0268411 8.98514e-06)
(-2.77313e-14 -1.86211e-17 6.84172e-20 562.032 -6.12485e-16 0.000109527 7.17785 0 -6.70055e-05)
(-7.33507e-15 3.02116e-17 5.77245e-20 613.143 0.00692868 0.000562949 7.86844 -0.0278665 4.79494e-06)
(2.93403e-14 0 -8.42957e-20 613.126 1.21738e-15 0.000642502 7.86839 -4.33873e-30 -7.45718e-05)
(-8.71236e-15 2.55245e-17 -6.64701e-20 651.73 -0.00668989 0.000854044 8.35587 0.0287433 1.6546e-05)
(8.71236e-15 1.54074e-33 6.64701e-20 651.744 -2.77556e-17 0.000300925 8.35627 -5.5347e-34 -6.64026e-05)
(-8.38053e-15 -8.38622e-18 -5.84003e-20 665.431 0.00441262 0.00111693 8.44741 -0.0299552 1.16217e-05)
(3.35216e-14 0 4.9138e-20 665.486 6.58507e-16 0.00134837 8.4484 0 -7.81554e-05)
(1.80816e-14 -1.65321e-17 4.14553e-20 638.801 -0.00839472 0.00169481 7.91347 0.0312557 3.19426e-05)
(3.61623e-14 -4.93038e-32 -3.22892e-20 638.906 -6.63965e-16 0.000528627 7.91518 6.93889e-18 -6.47578e-05)
(0 8.14755e-18 3.18264e-20 556.282 0.000152356 0.00210683 6.53457 -0.0329587 2.27483e-05)
(0 -4.93038e-32 -3.18264e-20 556.444 7.21645e-16 0.00172472 6.53708 -2.2614e-33 -8.58706e-05)
(-1.05632e-14 -8.03078e-18 2.92154e-20 406.552 -0.00872261 0.00281297 4.16845 0.0347967 5.16335e-05)
(0 1.07852e-31 -3.13702e-20 406.773 -1.55673e-15 0.000546392 4.17176 6.93889e-18 -6.69486e-05)
(-1.3693e-12 -2.3747e-17 -4.98658e-20 122.434 -0.00200388 0.00317423 0.818829 -0.0372602 3.31491e-05)
(4.52675e-14 9.24446e-33 7.73015e-20 123.038 1.11022e-16 0.000946477 0.822869 3.58789e-33 -0.000101193)
(1.84392e-12 0 -2.62453e-21 -0.539939 -0.00369894 0.00352583 0.00366359 0.0394338 6.27584e-05)
(3.98571e-31 0 0 -5.74402e-15 -2.73587e-18 0.000155987 1.42109e-14 6.93889e-18 -8.14545e-05)
(-1.07959e-14 7.6904e-18 1.75489e-20 -406.305 -0.000804367 0.00354719 3.32548 -0.0424608 3.47124e-05)
(4.31863e-14 6.16298e-33 -6.00812e-20 -405.959 8.55978e-16 -0.00085642 3.32088 6.93889e-18 -0.000124507)
(-9.61408e-15 1.51604e-17 -3.75943e-20 -725.341 0.0044702 0.00317221 7.89527 0.0444705 5.40455e-05)
(-1.55242e-14 -6.18438e-32 0 -724.988 -8.91264e-16 -0.000447859 7.89035 0 -0.000111359)
(-1.62573e-14 -2.98861e-17 -1.51534e-19 -1012.55 -0.000432149 0.00279755 12.4002 -0.0473367 2.50332e-05)
(-3.25172e-14 2.62763e-17 1.16743e-19 -1012.21 3.28454e-18 -0.00234251 12.3953 0 -0.00015016)
(-2.04436e-14 -3.68222e-17 8.22311e-20 -1236.28 0.00937238 0.00189149 16.3257 0.0487236 2.93863e-05)
(5.91558e-14 3.15544e-30 -8.63021e-20 -1235.98 -9.40309e-16 -0.000807944 16.3211 -6.93889e-18 -0.000147474)
(-1.41334e-14 -5.08123e-17 -2.36732e-19 -1375.47 -0.00432558 0.00135476 19.2434 -0.0507462 9.995e-06)
(-1.88467e-14 1.40845e-17 1.7013e-19 -1375.23 1.93826e-15 -0.0019697 19.2395 0 -0.00016974)
(-3.03238e-15 -5.0084e-17 4.94829e-19 -1422.73 0.00918738 3.22211e-18 20.8939 0.0514981 0)
(1.21312e-14 0 -8.3846e-20 -1422.57 9.50836e-16 0.00218797 20.8909 3.92682e-30 -0.000171566)
(-2.09525e-15 2.11569e-17 7.51397e-20 -1383.94 -0.00931965 -0.000306928 21.2163 -0.0507668 9.39173e-06)
(3.61078e-15 -6.16298e-33 -5.50962e-20 -1383.87 6.25562e-17 0.000562408 21.2145 0 -0.000153585)
(0 -4.86586e-17 2.29656e-20 -1274.94 0.0070367 2.29656e-20 20.3327 0.050824 2.71051e-20)
(9.09353e-16 0 -1.08613e-19 -1274.96 8.88178e-16 0.00116668 20.3324 6.27275e-30 -0.000165244)
(0 6.8516e-18 8.02922e-20 -1116.68 -0.0114112 -0.000802073 12.7238 -0.0498196 2.20371e-05)
(0 0 -8.02922e-20 -1116.8 -9.4369e-16 0.000202738 12.7237 -5.73953e-33 -0.000139008)
(-8.64435e-16 6.7534e-18 1.68433e-17 -930.523 0.00554908 -0.00033319 4.72234 0.0495202 2.61186e-06)
(0 0 0 -930.731 -1.10723e-32 9.5934e-05 4.72231 -6.93889e-18 -0.000157793)
(0 -3.99396e-17 -1.04009e-19 -734.889 -0.0102998 -0.000760667 -1.85627 -0.0486356 2.2945e-05)
(0 2.23464e-14 1.04009e-19 -735.168 -1.72085e-15 -5.68055e-06 -1.8563 6.93889e-18 -0.000131565)
(0 0 -4.19898e-20 -543.526 0.00507698 -0.000135762 -6.95829 0.0483019 1.0954e-06)
(0 0 0 -543.84 8.94881e-16 0.0044984 -6.95831 0 -0.000152112)
(-1.65559e-15 1.61679e-18 -5.05247e-20 -365.346 -0.00727094 -0.0180812 -4.62373 -0.00361295 -5.07588e-05)
(-1.66981e-15 0 0 -365.663 0 1.70762e-18 -4.62888 4.33681e-19 3.66137e-33)
(0 1.19521e-18 0 -205.266 0.00581149 -0.000322679 -2.17748 0.00301663 4.64782e-06)
(-5.96757e-15 3.85186e-34 0 -205.567 -5.50905e-17 -0.00590973 -2.18234 -7.00443e-34 -4.64771e-06)
(-1.05454e-12 0 0 -1.23939 -0.00556701 -0.000307765 -0.0104428 -0.00247137 -4.59088e-06)
(0 4.81482e-35 0 -1.76897 5.55112e-17 -7.56148e-20 -0.0149048 4.79659e-35 -8.47033e-22)
(-1.74932e-12 1.54826e-18 -4.53593e-21 0.0869023 0.0050225 -0.000297406 -0.00074286 0.00202391 3.68091e-06)
(1.94689e-15 -6.77608e-15 3.02395e-21 0 1.38778e-17 -0.000419512 -1.77636e-15 0 -3.68094e-06)
(0 0 0 153.103 -0.00449364 -0.000269518 -1.86708 -0.000499995 -3.65985e-06)
(0 5.55601e-15 -5.07894e-22 152.882 2.24088e-19 -5.07894e-22 -1.86305 0 -4.23516e-22)
(0 -9.40125e-19 2.93789e-21 233.243 0.0040825 -0.000256002 -3.45553 0.00127899 2.59048e-06)
(-3.0806e-15 0 -2.93789e-21 233.05 -1.40574e-17 -0.000386048 -3.45192 -2.1684e-19 -2.59046e-06)
(-3.45245e-16 -5.65859e-17 0 295.754 -1.35638e-19 -0.000228564 -4.76278 0 -2.59808e-06)
(0 1.8533e-19 -3.60559e-22 295.588 -0.0563987 3.60559e-22 -4.7596 -0.000997603 4.23516e-22)
(3.91475e-17 6.39359e-19 -1.42714e-21 342.411 0.00329056 -0.000213148 -5.80499 0.00077195 1.63946e-06)
(0 -2.64787e-15 1.42714e-21 342.273 -6.82961e-18 -0.000321572 -5.80225 1.0842e-19 -1.63927e-06)
(0 -1.36383e-16 0 375.27 -8.03223e-20 -0.000185089 -2.78526 0 -1.67044e-06)
(0 9.00279e-20 -9.27398e-22 375.165 -0.0327561 -1.40162e-20 -2.78524 -0.00059957 0)
(9.08673e-17 -2.66213e-19 6.93262e-22 396.637 0.00275436 -0.00016411 0.810065 0.000460656 8.5885e-07)
(0 3.85186e-34 -6.93262e-22 396.571 -3.53559e-18 -0.000250741 0.810086 0 -8.58477e-07)
(0 -3.37306e-17 0 408.927 4.77049e-18 -0.000133519 4.61022 0 -8.93685e-07)
(0 -2.62397e-19 0 408.897 -0.0156734 0 4.61025 -0.000375893 3.86752e-34)
(-1.34165e-15 5.60379e-19 1.34706e-21 414.395 0.00231784 -0.000115275 8.0348 0.000300899 3.0797e-07)
(1.69584e-15 -7.72156e-19 -1.34706e-21 414.392 7.02698e-18 -5.13047e-05 8.03495 0 8.40088e-07)
(0 -2.61645e-17 0 414.908 -3.68629e-18 -9.5845e-05 8.12107 0 -3.2314e-07)
(0 1.69953e-19 0 414.924 -0.00419233 5.57366e-05 8.12153 -0.000274637 6.53417e-07)
(-1.17652e-15 -9.63223e-19 -2.29027e-21 411.781 0.00192914 -4.31792e-07 8.14574 0.000249897 -5.2055e-07)
(1.96109e-15 0 0 411.811 3.70354e-20 3.21488e-22 8.14645 5.42101e-20 4.23516e-22)
(-7.15677e-15 -4.04107e-17 6.44985e-22 405.701 -3.28605e-18 0.00011101 8.11349 2.71051e-20 -9.12928e-08)
(-6.98448e-15 -2.88953e-19 -1.50477e-21 405.74 -0.00157665 -6.07779e-06 8.11438 -0.000263491 9.77472e-08)
(7.65556e-15 -4.88249e-19 0 396.743 0.00154543 0.000135408 8.01751 0.00022769 7.45645e-08)
(3.95677e-15 0 2.7322e-22 396.791 0 1.23003e-05 8.01855 0 6.52081e-07)
(-2.90331e-15 -3.33697e-17 0 384.488 2.87435e-18 0.000170492 7.84195 0 -7.95717e-08)
(1.16126e-14 -7.21876e-19 0 384.542 -0.00302194 5.20276e-05 7.84312 -0.000219996 3.93432e-07)
(-3.48578e-15 7.90589e-20 0 368.207 0.00117007 0.000203855 7.56602 0.000192284 6.02689e-08)
(0 -1.45114e-16 0 368.266 2.5735e-18 0.000173841 7.56731 -2.71051e-20 -7.54385e-08)
(-4.06601e-15 -1.48708e-17 0 347.086 2.19159e-18 0.000238794 7.16837 0 -6.88489e-08)
(0 1.94814e-19 0 347.15 -0.00259778 0.000240075 7.16978 -0.000185048 8.39796e-08)
(-4.63783e-15 -6.9128e-19 0 320.465 0.00083136 0.000261898 6.63253 0.00016038 4.86613e-08)
(1.85505e-14 0 0 320.532 -2.38038e-20 0.000260862 6.63403 2.71051e-20 -6.41008e-08)
(5.19257e-15 -4.04089e-17 -2.36588e-21 288.059 -3.70609e-18 0.000275326 5.95183 0 -5.97689e-08)
(0 4.73175e-19 2.36588e-21 288.13 -0.00224544 0.000276425 5.95341 -0.000158267 7.49424e-08)
(0 -3.35803e-19 0 250.126 0.000624642 0.000270099 5.13267 0.000131388 3.88324e-08)
(0 -3.85186e-34 0 250.199 1.53731e-18 0.000269218 5.13431 -2.71051e-20 -5.40721e-08)
(-6.20564e-15 -1.09557e-17 0 207.506 1.71692e-20 0.000250777 4.195 -2.71051e-20 -5.22843e-08)
(0 4.78097e-19 0 207.579 -0.0018795 0.000251719 4.19666 -0.000136905 6.70204e-08)
(0 -1.35936e-18 4.5312e-21 161.583 0.000517981 0.000212267 3.17194 0.000106405 3.06163e-08)
(5.31083e-14 0 0 161.655 1.30104e-18 0.000211513 3.17357 1.88702e-32 -4.51907e-08)
(-9.36642e-15 -7.30344e-18 -4.46626e-21 114.204 0 0.000164781 2.10824 -1.35525e-20 -4.61732e-08)
(2.80253e-14 2.67975e-19 0 114.274 -0.00143822 0.000165584 2.10981 -0.000118745 6.00164e-08)
(-1.65314e-14 1.00371e-18 -4.40224e-21 67.4794 0.000516352 0.000108413 1.054 8.79508e-05 2.38902e-08)
(-2.91959e-14 -1.1477e-16 0 67.5443 -2.548e-20 0.000107761 1.05547 0 -3.73725e-08)
(2.07692e-13 -3.92997e-18 2.61608e-19 5.05417 -1.02999e-18 3.12861e-05 0.0602179 0 -4.1178e-08)
(-8.88397e-13 -4.68628e-19 -2.37528e-18 5.16545 -0.00105669 3.06887e-06 0.0615438 -0.00010131 3.65641e-08)
(3.60148e-13 3.9348e-19 4.47325e-20 -0.0184389 0.00054393 5.14519e-24 0.000222885 7.54535e-05 0)
(-7.52286e-15 -2.05294e-19 0 -6.34994e-13 8.45933e-19 1.38284e-06 -7.10543e-15 0 -3.0574e-08)
(8.84087e-15 -5.34497e-18 3.60126e-19 -48.6446 8.67362e-19 -2.3101e-05 0.825876 1.35525e-20 -3.71119e-08)
(2.05637e-14 -2.02352e-19 0 -48.6021 -0.000796356 -5.30569e-22 0.82473 -8.37513e-05 -4.62841e-39)
(-1.02886e-14 1.13853e-18 -4.15524e-21 -74.1893 0.000517918 -6.93104e-05 1.56568 6.66857e-05 1.43677e-08)
(0 0 0 -74.1564 1.84812e-20 -6.97992e-05 1.56474 0 -2.47017e-08)
(0 -4.13474e-18 0 -91.7399 -6.77626e-19 -8.51935e-05 2.13061 0 -3.3818e-08)
(5.53087e-14 1.69561e-18 0 -91.7171 -0.000632057 -8.47216e-05 2.12991 -6.72151e-05 4.29693e-08)
(8.46616e-15 -3.39106e-19 4.03698e-21 -101.205 0.000391676 -9.16144e-05 2.50413 5.98002e-05 1.11597e-08)
(5.35038e-14 0 0 -101.192 7.75073e-19 -9.20299e-05 2.50369 6.77626e-21 -1.96459e-08)
(-1.29545e-14 1.32408e-34 0 -102.908 5.55909e-19 -8.7903e-05 2.68139 9.80657e-36 -3.12156e-08)
(0 0 0 -102.906 -0.000544267 -8.75049e-05 2.6812 -5.4183e-05 3.8478e-08)
(-6.29427e-15 0 0 -97.4835 0.000268855 -7.95113e-05 2.66664 5.32643e-05 8.62951e-09)
(5.03541e-14 -1.44445e-34 0 -97.4914 -5.42101e-19 -7.98555e-05 2.66672 6.77626e-21 -1.52305e-08)
(6.14977e-15 -5.90898e-18 0 -85.7816 -4.4937e-19 -6.71058e-05 2.47184 0 -2.92496e-08)
(0 5.41222e-19 0 -85.7987 -0.000490324 -6.67616e-05 2.47218 -4.46496e-05 3.46388e-08)
(-6.05267e-15 0 0 -68.771 0.000195153 -5.41651e-05 2.11425 4.65025e-05 6.48854e-09)
(0 -4.81482e-35 0 -68.7961 -5.42101e-20 -5.44379e-05 2.11483 6.77626e-21 -1.12621e-08)
(-6.01e-15 -9.62965e-35 0 -47.4804 2.71051e-20 -4.02988e-05 1.61436 -7.57213e-35 -2.7909e-08)
(2.40396e-14 -5.40843e-19 0 -47.512 -0.00042465 -3.9988e-05 1.61515 -3.73755e-05 3.15269e-08)
(-6.03458e-14 4.07222e-19 0 -20.2385 0.000170964 -2.65605e-05 0.995415 4.00912e-05 4.43541e-09)
(1.63429e-14 0 0 -20.3151 3.79471e-19 -2.67616e-05 0.996369 0 -7.51461e-09)
(-1.21528e-14 -1.50463e-36 0 0.0127234 -2.71051e-20 -1.01338e-05 0.496215 -3.38813e-21 -2.72029e-08)
(6.8708e-17 0 0 1.21532e-14 -0.00032728 -9.8382e-06 0.495093 -3.1011e-05 2.92157e-08)
(-5.99787e-15 5.43096e-19 0 31.3137 0.000141322 7.65363e-06 1.31008 3.51871e-05 2.1999e-09)
(0 -1.10594e-17 0 31.275 -3.25261e-19 7.52483e-06 1.30898 0 -3.77117e-09)
(7.43464e-15 -1.49566e-18 0 58.7841 0 2.93437e-05 2.12482 0 -2.71692e-08)
(-2.39032e-14 5.42402e-19 0 58.7477 -0.0002471 2.96387e-05 2.1238 -2.5697e-05 2.77843e-08)
(6.01515e-15 -5.41617e-19 0 84.8531 0.000147971 5.57791e-05 2.90246 3.15998e-05 -4.40636e-10)
(2.40611e-14 -1.54074e-33 0 84.8212 0 5.5721e-05 2.90159 3.38813e-21 1.60492e-10)
(6.11935e-15 -3.31476e-18 0 108.259 -1.6263e-19 8.47662e-05 3.6026 0 -2.7834e-08)
(-2.44778e-14 5.44187e-19 0 108.234 -0.000256399 8.5069e-05 3.60194 -2.03596e-05 2.72783e-08)
(-6.28854e-15 4.07383e-19 0 127.77 9.61829e-05 0.00011345 4.18463 2.68851e-05 -3.61648e-09)
(1.09153e-14 4.81482e-35 -3.39486e-21 127.752 -1.6263e-19 0.000113459 4.1842 -1.87005e-35 4.40253e-09)
(0 -1.51538e-19 0 142.256 0 0.000143997 4.60989 -1.69407e-21 -2.92102e-08)
(-7.01749e-15 -3.37966e-19 0 142.247 -0.000195053 0.00014431 4.60972 -1.66986e-05 2.77076e-08)
(-6.91691e-15 5.40911e-19 -3.29824e-21 150.776 5.84926e-05 0.000174221 4.84529 2.33268e-05 -7.35009e-09)
(2.72282e-14 0 -3.29824e-21 150.775 -4.36012e-35 0.000174286 4.84537 -1.09003e-35 8.98843e-09)
(1.39581e-14 -1.37469e-18 0 152.681 -9.48677e-20 0.000205499 4.86694 0 -3.12164e-08)
(-6.81777e-15 5.42911e-19 0 152.687 -0.000152061 0.000205815 4.86726 -1.43469e-05 2.89711e-08)
(0 5.41539e-19 0 147.703 8.25034e-05 0.000239483 4.66364 2.05662e-05 -1.15171e-08)
(-3.00246e-14 -4.30028e-18 0 147.716 -3.92612e-21 0.000239587 4.66417 1.69407e-21 1.38211e-08)
(-1.32475e-14 -2.54194e-20 -6.31689e-21 136.016 6.90332e-20 0.000279384 4.23874 0 -3.36689e-08)
(0 2.71626e-19 0 136.034 -8.84151e-05 0.00027969 4.23943 -1.13521e-05 3.08508e-08)
(-1.30576e-14 5.41693e-19 0 118.26 0.000133744 0.000329014 3.61224 1.94364e-05 -1.58683e-08)
(0 -5.4068e-18 0 118.282 7.18428e-21 0.000329135 3.61304 1.69407e-21 1.86877e-08)
(8.63056e-15 4.81482e-35 0 95.526 4.79077e-33 0.000392278 2.81969 -4.02981e-35 -3.62777e-08)
(0 -1.08473e-18 0 95.5508 -2.56671e-05 0.000392557 2.82056 -6.73237e-06 3.30155e-08)
(-3.73354e-15 5.44424e-19 0 69.2762 0.000155891 0.00047158 1.91027 2.00878e-05 -2.00629e-08)
(0 -5.5629e-18 0 69.3019 -1.35525e-19 0.000471695 1.91116 -1.69407e-21 2.329e-08)
(-1.84387e-14 0 0 41.2275 4.74338e-20 0.000568429 0.942527 2.82743e-06 -3.87147e-08)
(3.68769e-14 0 0 41.2529 -7.15119e-06 0.000568666 0.943399 -1.35783e-06 3.50895e-08)
(9.46038e-14 0 0 0 8.6715e-05 0.000679005 0 2.11602e-05 -2.37627e-08)
(0 0 0 0.0286836 -1.5007e-34 0.000679097 0.000504648 1.69407e-21 2.73332e-08)
(2.77796e-13 6.01853e-36 0 -1.2018 4.91279e-20 0.000799185 0.0214515 6.37072e-06 -4.07239e-08)
(0 -3.38877e-19 0 -1.15614 -6.72782e-05 0.000799373 0.0206364 1.61378e-06 3.6766e-08)
(0 5.42425e-19 0 -36.1771 -6.64353e-05 0.000918289 0.921191 1.99409e-05 -2.67373e-08)
(-1.19742e-14 -1.84273e-21 0 -36.1586 -1.04735e-19 0.000918351 0.920464 0 3.06355e-08)
(-1.18026e-14 -2.17509e-18 -2.25116e-20 -54.9028 2.71051e-20 0.00102337 1.70499 4.3769e-06 -4.22436e-08)
(-1.18026e-14 -3.38817e-19 0 -54.8879 -0.000232443 0.00102352 1.70437 -1.00057e-06 3.79261e-08)
(0 5.42243e-19 0 -68.6409 -0.000229625 0.00110101 2.33432 1.24901e-05 -2.89415e-08)
(6.99688e-14 7.70372e-34 0 -68.6299 -2.71051e-20 0.00110105 2.33384 1.89525e-33 3.32039e-08)
(-1.69798e-14 6.02902e-22 0 -77.2383 -8.73305e-05 0.00113522 2.78667 -1.65146e-06 -4.34406e-08)
(3.39598e-14 0 0 -77.2312 -0.000408479 0.00113533 2.78633 -9.87454e-06 3.86778e-08)
(8.24012e-15 -3.38183e-19 0 -81.015 -0.000382572 0.00111085 3.05775 -1.94614e-06 -3.05234e-08)
(0 0 0 -81.0114 0 0.00111088 3.05755 -8.76008e-06 3.52499e-08)
(0 -2.59265e-18 0 -80.6721 -0.000212928 0.00101917 3.16023 -4.14452e-06 -4.46606e-08)
(-3.20265e-14 -6.37455e-20 -4.2497e-20 -80.6715 -0.000459801 0.00101927 3.16016 -2.49463e-05 3.93025e-08)
(-7.79561e-15 -1.01578e-18 -4.18879e-20 -77.1697 -0.000345041 0.000858196 3.12043 -1.88766e-05 -3.17533e-08)
(3.11824e-14 0 0 -77.1716 3.16279e-33 0.000858238 3.12046 -2.57721e-05 3.712e-08)
(0 -3.28026e-18 0 -71.6013 -2.16822e-05 0.000632236 2.97414 -4.34396e-07 -4.62303e-08)
(0 -3.40622e-19 0 -71.6047 -0.000342037 0.000632329 2.97426 -3.90323e-05 4.00544e-08)
(0 -3.3574e-19 4.06958e-20 -65.0664 -0.000137424 0.000353896 2.76235 -1.08137e-05 -3.27829e-08)
(0 -1.07193e-20 0 -65.0706 -5.27369e-19 0.000353956 2.76251 -3.86203e-05 3.90702e-08)
(-7.30475e-15 1.38426e-34 0 -58.5461 5.02922e-19 8.22218e-06 2.52609 1.41001e-36 -4.84423e-08)
(0 0 0 -58.5502 -4.566e-05 6.76484e-21 2.52627 -4.51263e-05 0)
(-3.98787e-15 -1.2196e-18 3.09006e-19 -52.8165 0.000189016 -0.000229162 2.30152 -1.08154e-05 -3.3738e-08)
(5.74095e-14 -5.50423e-21 2.12829e-18 -52.82 -2.71051e-19 -0.000229608 2.30169 -3.96621e-05 4.12862e-08)
(0 -5.92852e-19 0 -48.4081 0.000233692 -0.000561641 2.11712 -4.96025e-06 -5.13444e-08)
(0 -1.99726e-19 0 -48.4105 0.000266379 -0.000561533 2.11725 -3.77796e-05 4.25243e-08)
(0 4.12933e-19 -3.84124e-20 -45.5949 0.000432466 -0.000807218 1.99194 -2.05404e-05 -3.44446e-08)
(-1.00696e-14 -2.06466e-19 -3.84124e-20 -45.5959 0.000399696 -0.00080714 1.99201 -2.75347e-05 4.37548e-08)
(-2.0423e-14 -1.2873e-18 0 -44.4082 0.000462213 -0.000988836 1.93505 -9.00577e-06 -5.48922e-08)
(5.44613e-14 1.35593e-18 0 -44.4079 0.000418556 -0.000988734 1.93507 -1.97869e-05 4.4064e-08)
(0 -1.35515e-18 0 -44.6738 0.000476389 -0.0010972 1.94583 -1.56243e-06 -3.4502e-08)
(5.33693e-14 1.35515e-18 0 -44.6723 0.000440656 -0.00109713 1.94579 -8.45098e-06 4.62074e-08)
(3.12113e-15 6.77635e-19 0 -46.0669 0.000399777 -0.00113231 2.01545 1.28395e-05 -5.90376e-08)
(-9.64278e-15 -4.74316e-19 0 -46.0645 0.000355599 -0.00113222 2.01536 6.26169e-07 4.55077e-08)
(6.35815e-15 -1.35511e-18 0 -48.1707 0.000339615 -0.00110133 2.12905 1.49629e-05 -3.34475e-08)
(5.08654e-14 1.35511e-18 0 -48.1677 0.000301222 -0.00110127 2.12893 8.31959e-06 4.84128e-08)
(-9.36835e-15 -1.08329e-18 0 -50.5343 0.000212466 -0.00101724 2.26788 2.92856e-05 -6.38224e-08)
(3.40945e-14 1.08807e-18 0 -50.5311 0.000167463 -0.00101717 2.26773 6.75573e-06 4.66366e-08)
(5.9942e-15 -5.41588e-19 0 -52.7325 0.000111874 -0.0008982 2.41185 2.30375e-05 -3.09348e-08)
(0 0 0 -52.7294 -1.0842e-19 -0.00089816 2.4117 -7.51604e-35 5.02119e-08)
(1.15994e-14 1.36711e-19 0 -54.4055 2.14969e-05 -0.000760621 2.54229 3.58002e-05 -6.93846e-08)
(2.31989e-14 -1.93066e-19 0 -54.4028 -5.53113e-06 -0.000760577 2.54215 1.31774e-07 4.73797e-08)
(0 4.06395e-19 0 -55.2826 -4.84568e-05 -0.00061941 2.64308 2.19276e-05 -2.66425e-08)
(-8.97128e-15 -2.03197e-19 -8.55568e-21 -55.2806 -9.16234e-05 -0.000619385 2.64297 2.22504e-06 5.15465e-08)
(0 -3.3943e-19 0 -55.2026 -9.40295e-05 -0.000486313 2.70218 3.51289e-05 -7.6142e-08)
(2.16265e-14 5.49435e-19 0 -55.2015 -0.000141343 -0.000486283 2.7021 6.66535e-06 4.77837e-08)
(1.04339e-14 -6.08868e-19 0 -54.1149 -0.000115032 -0.000369093 2.7126 1.47e-05 -2.03051e-08)
(0 6.08868e-19 0 -54.1147 -0.000160434 -0.000234742 2.71257 7.20253e-06 5.25331e-08)
(5.03711e-15 -1.15112e-18 0 -52.0651 -0.000113919 -0.000271322 2.67231 3.16163e-05 -8.47259e-08)
(2.01484e-14 1.15176e-18 4.70076e-21 -52.0659 -0.000162687 -1.21871e-05 2.67232 8.77432e-06 2.32587e-06)
(-4.23395e-15 -1.01652e-18 -8.07562e-21 -49.1794 -0.000105531 -0.000193736 2.58361 5.70834e-06 -1.15904e-08)
(2.37145e-14 1.01652e-18 1.11166e-20 -49.1811 -0.000153103 2.18112e-05 2.58368 3.06911e-06 1.11374e-06)
(-4.71808e-15 -6.81565e-20 0 -45.6462 -8.40968e-05 -0.000120979 2.45285 2.91165e-05 -9.59861e-08)
(-1.88723e-14 3.38792e-19 -4.31992e-21 -45.6487 -0.000134467 2.17412e-05 2.45296 3.50385e-06 1.1458e-06)
(-1.28088e-14 -3.06476e-23 -3.9229e-21 -41.6904 -6.31279e-05 -3.79411e-05 2.28947 -2.70966e-06 3.64232e-07)
(0 2.71048e-19 0 -41.6935 -0.000112818 2.16041e-05 2.28961 -2.95783e-06 1.13181e-06)
(-4.4615e-15 0 0 -37.5503 -4.65767e-05 1.02862e-05 2.10462 2.9586e-05 1.31468e-06)
(-1.78459e-14 2.70909e-19 -5.97192e-21 -37.5536 -9.8665e-05 2.1393e-05 2.10479 -9.24064e-07 1.15662e-06)
(0 -4.05255e-19 0 -33.4621 -1.76358e-05 9.77265e-06 1.91047 -4.78451e-07 2.30496e-06)
(0 5.41674e-19 3.81125e-21 -33.4655 -7.58911e-05 2.11202e-05 1.91065 -7.19766e-06 1.13515e-06)
(0 -3.39036e-19 -3.75663e-21 -29.6481 -1.46363e-05 1.0391e-05 1.7194 3.32187e-05 2.68359e-06)
(3.80434e-14 5.41893e-19 2.13506e-20 -29.6513 -6.85013e-05 2.07442e-05 1.71958 -3.44242e-06 1.1488e-06)