/*--------------------------------*- C++ -*----------------------------------*\
| =========                 |                                                 |
| \\      /  F ield         | OpenFOAM: The Open Source CFD Toolbox           |
|  \\    /   O peration     | Version:  2012                                  |
|   \\  /    A nd           | Website:  www.openfoam.com                      |
|    \\/     M anipulation  |                                                 |
\*---------------------------------------------------------------------------*/
FoamFile
{
    version     2.0;
    format      ascii;
    class       volScalarField;
    location    "10400";
    object      p;
}
// * * * * * * * * * * * * * * * * * * * * * * * * * * * * * * * * * * * * * //

dimensions      [0 2 -2 0 0 0 0];


internalField   nonuniform List<scalar> 
2560
(
6.4868e-09
-0.700494
-3.57493e-05
-0.700523
-4.08446e-05
-0.700528
-3.6394e-05
-0.70053
-3.31433e-05
-0.700532
-3.21237e-05
-0.700533
-3.152e-05
-0.700533
-3.1248e-05
-0.700534
-3.07389e-05
-0.700534
-3.06598e-05
-0.700534
-2.99971e-05
-0.700534
-3.00701e-05
-0.700535
-3.25493e-05
-0.700533
-4.41489e-05
-0.700099
-8.57569e-05
-0.700652
-0.000181261
-0.699915
-0.000356848
-0.701164
-0.000577214
-0.701186
-0.000824582
-0.701995
-0.00107166
-0.702022
-0.00133728
-0.70293
-0.00159176
-0.70295
-0.00185666
-0.70393
-0.00211485
-0.701988
-0.00245068
-0.705191
-0.00286128
-0.704058
-0.00343316
-0.707051
-0.00408809
-0.707127
-0.00488002
-0.709494
-0.00566684
-0.709634
-0.00652853
-0.712225
-0.00728677
-0.712355
-0.00808259
-0.714941
-0.00870633
-0.715003
-0.00941276
-0.717506
-0.00997416
-0.71411
-0.0107897
-0.72033
-0.0115525
-0.704095
-0.0127695
-0.724527
-0.013973
-0.703441
-0.0157452
-0.730801
-0.0174321
-0.715061
-0.0196873
-0.738942
-0.0216942
-0.734976
-0.0242219
-0.748102
-0.0263444
-0.748107
-0.0290123
-0.757723
-0.0311874
-0.75551
-0.0340669
-0.76785
-0.0364761
-0.717443
-0.0399224
-0.780616
-0.0434639
-0.780649
-0.0493532
-0.797376
-0.0575387
-0.799056
-0.0713205
-0.827023
-0.0915283
-0.833581
-0.1214
-0.885344
-0.160776
-0.900568
-0.209943
-0.982985
-0.265354
-1.00684
-0.322735
-1.10591
-0.376184
-1.13111
-0.419602
-1.21377
-0.449467
-1.22941
-0.462414
-1.26798
-0.460588
-1.2663
-0.444382
-1.22621
-0.419863
-1.21492
-0.388556
-1.15524
-0.356515
-1.1416
-0.323977
-1.08271
-0.294885
-1.07054
-0.267959
-0.264501
-0.24539
-0.251431
-0.225264
-0.22216
-0.208954
-0.212954
-0.19469
-0.191792
-0.183542
-0.185379
-0.174039
-0.171249
-0.167026
-0.167084
-0.161275
-0.158525
-0.157429
-0.156104
-0.15442
-0.151682
-0.152747
-0.1505
-0.151565
-0.148837
-0.151357
-0.148487
-0.151549
-0.148813
-0.152673
-0.150085
-0.15441
-0.151697
-0.157328
-0.154738
-0.161263
-0.158572
-0.166721
-0.164133
-0.173543
-0.170874
-0.182043
-0.179461
-0.191932
-0.189285
-0.203272
-0.200698
-0.215617
-0.212992
-0.22881
-0.226246
-0.242338
-0.239734
-0.255979
-0.253426
-0.269286
-0.266703
-0.282117
-0.279577
-0.294184
-0.291621
-0.305487
-0.30296
-0.315917
-0.313373
-0.325579
-0.323065
-0.334475
-0.331948
-0.342752
-0.34025
-0.350446
-0.347935
-0.357697
-0.355209
-0.364545
-0.36205
-0.371116
-0.368641
-0.377468
-0.37499
-0.383728
-0.381268
-0.38998
-0.387519
-0.39638
-0.393935
-0.403021
-0.400578
-0.410041
-0.407614
-0.417533
-0.41511
-0.425617
-0.423209
-0.434378
-0.431977
-0.443944
-0.441558
-0.454433
-0.452056
-0.466033
-0.463671
-0.47895
-0.476599
-0.49347
-0.491134
-0.509905
-0.50758
-0.528605
-0.526296
-0.549914
-0.547617
-0.574133
-0.57185
-0.601461
-0.599191
-0.631971
-0.629715
-0.665537
-0.663294
-0.701825
-0.699596
-0.740274
-0.738057
-0.780132
-0.777928
-0.820484
-0.818292
-0.860336
-0.858158
-0.898686
-0.89652
-0.934625
-0.932472
-0.967402
-0.965261
-0.996487
-0.994358
-1.02159
-1.01947
-1.04266
-1.04055
-1.05985
-1.05776
-1.0735
-1.07142
-1.08405
-1.08198
-1.09198
-1.08992
-1.09779
-1.09574
-1.10194
-1.09991
-1.10484
-1.10282
-1.10682
-1.10481
-1.10815
-1.10614
-1.10902
-1.10703
-1.10959
-1.1076
-1.10995
-1.10798
-1.11018
-1.10822
-1.11032
-1.10837
-1.1104
-1.10845
-1.11044
-1.1085
-1.11044
-1.10852
-1.11042
-1.1085
-1.11037
-1.10847
-1.11032
-1.10842
-1.11025
-1.10836
-1.11017
-1.1083
-1.11009
-1.10822
-1.11
-1.10814
-1.10991
-1.10805
-1.10982
-1.10797
-1.10973
-1.10789
-1.10964
-1.10781
-1.10956
-1.10774
-1.10949
-1.10767
-1.10943
-1.10761
-1.10937
-1.10756
-1.10932
-1.10751
-1.10928
-1.10748
-1.10925
-1.10745
-1.10923
-1.10742
-1.10921
-1.10741
-1.10919
-1.10739
-1.10918
-1.10738
-1.10917
-1.10737
-1.10916
-1.10736
-1.10915
-1.10735
-1.10914
-1.10734
-1.10912
-1.10732
-1.1091
-1.1073
-1.10906
-1.10726
-1.10901
-1.10721
-1.10893
-1.10714
-1.10882
-1.10703
-1.10867
-1.10689
-1.10847
-1.10669
-1.10819
-1.10643
-1.10784
-1.10608
-1.10737
-1.10563
-1.10678
-1.10505
-1.10604
-1.10432
-1.10512
-1.10341
-1.10398
-1.10229
-1.10262
-1.10094
-1.101
-1.09933
-1.09909
-1.09744
-1.09689
-1.09526
-1.09439
-1.09277
-1.09157
-1.08997
-1.08845
-1.08687
-1.08504
-1.08347
-1.08136
-1.07981
-1.07744
-1.07591
-1.07331
-1.0718
-1.06899
-1.0675
-1.06451
-1.06304
-1.0599
-1.05844
-1.05516
-1.05372
-1.05031
-1.04888
-1.04534
-1.04393
-1.04025
-1.03885
-1.03502
-1.03363
-1.02964
-1.02827
-1.0241
-1.02274
-1.01839
-1.01704
-1.01251
-1.01117
-1.00646
-1.00513
-1.00026
-0.998935
-0.993936
-0.992613
-0.987511
-0.986193
-0.981015
-0.9797
-0.974486
-0.973175
-0.967947
-0.966639
-0.961434
-0.960129
-0.95496
-0.953658
-0.948543
-0.947246
-0.942185
-0.940894
-0.935892
-0.934607
-0.929655
-0.928377
-0.92347
-0.9222
-0.917323
-0.916062
-0.911211
-0.90996
-0.905115
-0.903875
-0.899038
-0.897809
-0.892964
-0.891747
-0.8869
-0.885695
-0.880829
-0.879636
-0.874762
-0.873581
-0.868679
-0.86751
-0.862593
-0.861435
-0.856479
-0.855333
-0.850348
-0.849214
-0.84417
-0.843047
-0.83796
-0.836848
-0.831681
-0.83058
-0.825352
-0.824262
-0.818934
-0.817856
-0.812455
-0.811388
-0.805873
-0.804819
-0.799224
-0.798183
-0.792463
-0.791434
-0.785635
-0.78462
-0.77869
-0.777688
-0.77168
-0.770693
-0.764553
-0.76358
-0.757365
-0.756407
-0.75006
-0.749118
-0.742707
-0.741781
-0.735242
-0.734331
-0.727743
-0.726848
-0.720144
-0.719266
-0.712536
-0.711674
-0.704845
-0.703999
-0.697169
-0.69634
-0.689428
-0.688615
-0.681729
-0.680932
-0.673974
-0.673194
-0.666277
-0.665513
-0.658527
-0.657779
-0.650838
-0.650106
-0.643084
-0.642368
-0.635388
-0.634688
-0.627609
-0.626926
-0.619883
-0.619215
-0.612064
-0.611413
-0.604302
-0.603667
-0.596454
-0.595835
-0.588688
-0.588085
-0.580864
-0.580277
-0.573165
-0.572593
-0.565451
-0.564896
-0.557921
-0.557381
-0.550425
-0.549902
-0.543166
-0.542659
-0.535982
-0.535493
-0.529078
-0.528603
-0.522276
-0.521821
-0.515773
-0.515334
-0.509381
-0.508963
-0.50329
-0.502889
-0.497303
-0.496924
-0.491602
-0.491241
-0.485985
-0.485649
-0.480631
-0.480313
-0.475334
-0.475045
-0.470269
-0.469998
-0.465234
-0.464996
-0.460404
-0.460184
-0.455588
-0.455407
-0.450968
-0.450805
-0.446377
-0.446258
-0.442008
-0.441907
-0.437726
-0.437678
-0.433744
-0.433711
-0.429961
-0.429992
-0.426602
-0.426647
-0.423606
-0.4237
-0.421167
-0.421272
-0.419256
-0.419396
-0.418008
-0.418155
-0.417414
-0.417575
-0.703489
-0.000679556
-0.703518
-0.000715317
-0.703523
-0.000720412
-0.703525
-0.000715954
-0.703527
-0.000712689
-0.703528
-0.000711654
-0.703529
-0.000711045
-0.703529
-0.000710781
-0.703529
-0.000710272
-0.70353
-0.000710216
-0.70353
-0.000709574
-0.70353
-0.000709718
-0.703529
-0.00071228
-0.703095
-0.000723829
-0.703647
-0.000765352
-0.702911
-0.000860877
-0.70416
-0.00103652
-0.704181
-0.00125697
-0.70499
-0.00150441
-0.705018
-0.00175158
-0.705925
-0.00201725
-0.705946
-0.0022718
-0.706925
-0.00253674
-0.704983
-0.00279499
-0.708186
-0.00313087
-0.707053
-0.00354153
-0.710046
-0.00411345
-0.710122
-0.00476843
-0.712489
-0.00556042
-0.71263
-0.0063473
-0.71522
-0.00720905
-0.715351
-0.00796734
-0.717937
-0.00876323
-0.717998
-0.00938703
-0.720502
-0.0100935
-0.717105
-0.010655
-0.723326
-0.0114706
-0.707091
-0.0122335
-0.727523
-0.0134506
-0.706437
-0.0146541
-0.733796
-0.0164265
-0.718056
-0.0181135
-0.741937
-0.0203688
-0.737969
-0.0223757
-0.751097
-0.0249036
-0.751103
-0.0270261
-0.760719
-0.0296942
-0.758509
-0.0318693
-0.770846
-0.034749
-0.72041
-0.0371582
-0.783611
-0.0406047
-0.783644
-0.0441462
-0.800372
-0.0500357
-0.802051
-0.0582213
-0.830019
-0.0720032
-0.836577
-0.092211
-0.88834
-0.122083
-0.903564
-0.161459
-0.985981
-0.210626
-1.00984
-0.266037
-1.1089
-0.323418
-1.13411
-0.376868
-1.21677
-0.420286
-1.23241
-0.450151
-1.27098
-0.463098
-1.26929
-0.461272
-1.22921
-0.445065
-1.21792
-0.420547
-1.15824
-0.38924
-1.14459
-0.357199
-1.08571
-0.324661
-1.07354
-0.295569
-0.267139
-0.268644
-0.254069
-0.246075
-0.224798
-0.225949
-0.215592
-0.209639
-0.19443
-0.195375
-0.188017
-0.184227
-0.173886
-0.174725
-0.169721
-0.167711
-0.161162
-0.16196
-0.158742
-0.158115
-0.15432
-0.155106
-0.153138
-0.153432
-0.151475
-0.152251
-0.151125
-0.152043
-0.151451
-0.152235
-0.152703
-0.153359
-0.154335
-0.155096
-0.157356
-0.158014
-0.16121
-0.161949
-0.166752
-0.167407
-0.173511
-0.174229
-0.18208
-0.182729
-0.191921
-0.192618
-0.203318
-0.203959
-0.215627
-0.216303
-0.228866
-0.229496
-0.242368
-0.243025
-0.256048
-0.256665
-0.269336
-0.269973
-0.282199
-0.282803
-0.294253
-0.294871
-0.305584
-0.306174
-0.316003
-0.316604
-0.32569
-0.326266
-0.334578
-0.335162
-0.342876
-0.343439
-0.350564
-0.351132
-0.357835
-0.358384
-0.364679
-0.365232
-0.371268
-0.371803
-0.377618
-0.378155
-0.383895
-0.384415
-0.390146
-0.390667
-0.396563
-0.397067
-0.403205
-0.403708
-0.410241
-0.410729
-0.417737
-0.41822
-0.425836
-0.426304
-0.434603
-0.435065
-0.444186
-0.444631
-0.454683
-0.45512
-0.466299
-0.46672
-0.479225
-0.479637
-0.493762
-0.494157
-0.510207
-0.510591
-0.528924
-0.529292
-0.550244
-0.550601
-0.574478
-0.57482
-0.601817
-0.602148
-0.632343
-0.632658
-0.665921
-0.666224
-0.702224
-0.702512
-0.740683
-0.74096
-0.780556
-0.780819
-0.820919
-0.821171
-0.860786
-0.861023
-0.899146
-0.899373
-0.9351
-0.935312
-0.967887
-0.968089
-0.996987
-0.997174
-1.0221
-1.02227
-1.04318
-1.04334
-1.06038
-1.06054
-1.07405
-1.07419
-1.0846
-1.08473
-1.09255
-1.09267
-1.09837
-1.09848
-1.10254
-1.10263
-1.10544
-1.10553
-1.10744
-1.10751
-1.10877
-1.10883
-1.10966
-1.10971
-1.11023
-1.11027
-1.11061
-1.11064
-1.11084
-1.11087
-1.111
-1.11101
-1.11107
-1.11108
-1.11114
-1.11112
-1.11115
-1.11113
-1.11112
-1.1111
-1.1111
-1.11106
-1.11105
-1.111
-1.111
-1.11094
-1.11092
-1.11086
-1.11085
-1.11077
-1.11076
-1.11068
-1.11069
-1.11059
-1.1106
-1.1105
-1.11052
-1.11041
-1.11044
-1.11033
-1.11037
-1.11025
-1.1103
-1.11017
-1.11024
-1.11011
-1.11019
-1.11005
-1.11015
-1.11001
-1.11011
-1.10997
-1.11008
-1.10994
-1.11005
-1.10991
-1.11004
-1.10989
-1.11002
-1.10988
-1.11001
-1.10987
-1.11
-1.10986
-1.10999
-1.10985
-1.10998
-1.10984
-1.10997
-1.10982
-1.10995
-1.10981
-1.10993
-1.10978
-1.10989
-1.10974
-1.10984
-1.10969
-1.10977
-1.10961
-1.10967
-1.1095
-1.10952
-1.10935
-1.10933
-1.10915
-1.10906
-1.10888
-1.10871
-1.10852
-1.10826
-1.10806
-1.10768
-1.10747
-1.10695
-1.10672
-1.10604
-1.1058
-1.10492
-1.10467
-1.10357
-1.1033
-1.10196
-1.10168
-1.10008
-1.09977
-1.09789
-1.09757
-1.0954
-1.09506
-1.0926
-1.09225
-1.0895
-1.08913
-1.08611
-1.08572
-1.08245
-1.08204
-1.07855
-1.07812
-1.07444
-1.07398
-1.07014
-1.06966
-1.06568
-1.06518
-1.06108
-1.06057
-1.05637
-1.05583
-1.05153
-1.05098
-1.04658
-1.04601
-1.0415
-1.04091
-1.03628
-1.03568
-1.03092
-1.0303
-1.02539
-1.02476
-1.01969
-1.01905
-1.01382
-1.01317
-1.00778
-1.00712
-1.00159
-1.00092
-0.995267
-0.994592
-0.98885
-0.988171
-0.982354
-0.98167
-0.975833
-0.975146
-0.969293
-0.968602
-0.962788
-0.962093
-0.956312
-0.955612
-0.949907
-0.949202
-0.943548
-0.942836
-0.93727
-0.936551
-0.931032
-0.930303
-0.924867
-0.924127
-0.918719
-0.917967
-0.912631
-0.911866
-0.906533
-0.905754
-0.900485
-0.89969
-0.894408
-0.893597
-0.888377
-0.887549
-0.8823
-0.881455
-0.87627
-0.875408
-0.870177
-0.869298
-0.864133
-0.863236
-0.858004
-0.857089
-0.85192
-0.850988
-0.84572
-0.844771
-0.839563
-0.838596
-0.833256
-0.832271
-0.826988
-0.825985
-0.820536
-0.819513
-0.814127
-0.813084
-0.807502
-0.806438
-0.800935
-0.79985
-0.794121
-0.793012
-0.787389
-0.786256
-0.78038
-0.779221
-0.773482
-0.772296
-0.766278
-0.765063
-0.759218
-0.757974
-0.751822
-0.750546
-0.744617
-0.743309
-0.737042
-0.7357
-0.729714
-0.728337
-0.721985
-0.720572
-0.714572
-0.713121
-0.706727
-0.705238
-0.699274
-0.697746
-0.691352
-0.689783
-0.683905
-0.682296
-0.675939
-0.674287
-0.668529
-0.666835
-0.660533
-0.658795
-0.653169
-0.651386
-0.645131
-0.643302
-0.637803
-0.635926
-0.629697
-0.627772
-0.622387
-0.620411
-0.614193
-0.612167
-0.6069
-0.60482
-0.598625
-0.596494
-0.591385
-0.589196
-0.583075
-0.580834
-0.575966
-0.573663
-0.567703
-0.565346
-0.560832
-0.558409
-0.552717
-0.550239
-0.546194
-0.543643
-0.538317
-0.535709
-0.532232
-0.529542
-0.524655
-0.521906
-0.519065
-0.516223
-0.51181
-0.508906
-0.506734
-0.50372
-0.499787
-0.496711
-0.495213
-0.492007
-0.488533
-0.485264
-0.484427
-0.481004
-0.477954
-0.474471
-0.474271
-0.470602
-0.467935
-0.464215
-0.464635
-0.460687
-0.458381
-0.454399
-0.455455
-0.451191
-0.449272
-0.445003
-0.446778
-0.442156
-0.440736
-0.436153
-0.438833
-0.4338
-0.412046
-0.428172
-0.410394
-0.426338
-0.405545
-0.421853
-0.404316
-0.420579
-0.400959
-0.417622
-0.400298
-0.417078
-0.398738
-0.416032
-0.417415
-0.417575
-0.418009
-0.418153
-0.419257
-0.419394
-0.421168
-0.42127
-0.423608
-0.423698
-0.426603
-0.426643
-0.429966
-0.429991
-0.433746
-0.433706
-0.43773
-0.437673
-0.442013
-0.441903
-0.446383
-0.446256
-0.450975
-0.450802
-0.455596
-0.455404
-0.460413
-0.460182
-0.465244
-0.464994
-0.470278
-0.469993
-0.475342
-0.47504
-0.48064
-0.480307
-0.485994
-0.485643
-0.491615
-0.491237
-0.497314
-0.496918
-0.503302
-0.502883
-0.509393
-0.508956
-0.515784
-0.515325
-0.522287
-0.521812
-0.529093
-0.528598
-0.535994
-0.535483
-0.543182
-0.542652
-0.550439
-0.549893
-0.557932
-0.557369
-0.565468
-0.564888
-0.573181
-0.572584
-0.580884
-0.58027
-0.588705
-0.588074
-0.596476
-0.595829
-0.604318
-0.603653
-0.61208
-0.611399
-0.619901
-0.619203
-0.627625
-0.62691
-0.635409
-0.634676
-0.643103
-0.642354
-0.650859
-0.650092
-0.658548
-0.657765
-0.666301
-0.6655
-0.673994
-0.673176
-0.681753
-0.680918
-0.689449
-0.688597
-0.697192
-0.696322
-0.704867
-0.70398
-0.712561
-0.711656
-0.720166
-0.719244
-0.727772
-0.726833
-0.735269
-0.734313
-0.74273
-0.741757
-0.750088
-0.749099
-0.757392
-0.756386
-0.764584
-0.763562
-0.771708
-0.770671
-0.778717
-0.777665
-0.78566
-0.784593
-0.792499
-0.791418
-0.799255
-0.79816
-0.805908
-0.8048
-0.812488
-0.811366
-0.81897
-0.817836
-0.825382
-0.824236
-0.831709
-0.83055
-0.837997
-0.836826
-0.844205
-0.843022
-0.850388
-0.849194
-0.856511
-0.855304
-0.862623
-0.861404
-0.868714
-0.867482
-0.874793
-0.873548
-0.880861
-0.879604
-0.886934
-0.885664
-0.893003
-0.89172
-0.899081
-0.897785
-0.905161
-0.903853
-0.911255
-0.909935
-0.917363
-0.916033
-0.923512
-0.922172
-0.929693
-0.928344
-0.935931
-0.934574
-0.94223
-0.940867
-0.94858
-0.947212
-0.954994
-0.953621
-0.961479
-0.960102
-0.96799
-0.966609
-0.974518
-0.973134
-0.981056
-0.979668
-0.98755
-0.986159
-0.993972
-0.992576
-1.0003
-0.998899
-1.00651
-1.0051
-1.01256
-1.01114
-1.01843
-1.017
-1.02415
-1.02271
-1.02968
-1.02824
-1.03506
-1.0336
-1.04029
-1.03881
-1.04539
-1.0439
-1.05036
-1.04885
-1.05521
-1.05369
-1.05996
-1.05841
-1.06456
-1.063
-1.06904
-1.06745
-1.07337
-1.07176
-1.07749
-1.07587
-1.08141
-1.07977
-1.08509
-1.08343
-1.0885
-1.08682
-1.09162
-1.08992
-1.09444
-1.09273
-1.09695
-1.09522
-1.09914
-1.0974
-1.10105
-1.09928
-1.10268
-1.1009
-1.10404
-1.10224
-1.10517
-1.10336
-1.1061
-1.10427
-1.10684
-1.105
-1.10743
-1.10558
-1.10789
-1.10604
-1.10825
-1.10638
-1.10852
-1.10665
-1.10873
-1.10684
-1.10888
-1.10699
-1.10899
-1.10709
-1.10906
-1.10716
-1.10912
-1.10722
-1.10916
-1.10725
-1.10918
-1.10728
-1.1092
-1.10729
-1.10921
-1.10731
-1.10922
-1.10732
-1.10923
-1.10732
-1.10924
-1.10733
-1.10925
-1.10734
-1.10927
-1.10736
-1.10929
-1.10738
-1.10931
-1.1074
-1.10934
-1.10743
-1.10938
-1.10747
-1.10943
-1.10751
-1.10948
-1.10756
-1.10955
-1.10762
-1.10962
-1.10769
-1.1097
-1.10776
-1.10979
-1.10784
-1.10987
-1.10792
-1.10997
-1.10801
-1.11006
-1.10809
-1.11015
-1.10817
-1.11023
-1.10824
-1.11031
-1.10832
-1.11038
-1.10837
-1.11044
-1.10842
-1.11047
-1.10845
-1.11051
-1.10847
-1.11049
-1.10845
-1.11046
-1.10841
-1.11038
-1.10831
-1.11025
-1.10817
-1.11001
-1.10792
-1.10965
-1.10756
-1.10908
-1.10697
-1.10822
-1.1061
-1.10688
-1.10475
-1.10492
-1.10278
-1.10199
-1.09984
-1.09787
-1.09571
-1.09202
-1.08985
-1.08411
-1.08193
-1.07356
-1.07137
-1.05989
-1.05768
-1.04263
-1.04041
-1.02164
-1.01941
-0.99665
-0.994404
-0.96735
-0.965092
-0.934658
-0.932387
-0.898725
-0.89644
-0.86047
-0.858173
-0.820606
-0.818296
-0.780364
-0.778042
-0.740499
-0.738163
-0.701805
-0.699457
-0.665563
-0.6632
-0.632181
-0.629806
-0.601453
-0.599063
-0.574072
-0.57167
-0.550018
-0.547601
-0.528734
-0.526304
-0.510021
-0.507575
-0.493498
-0.491041
-0.479049
-0.476576
-0.466127
-0.463644
-0.454519
-0.452021
-0.443971
-0.441464
-0.43447
-0.431948
-0.425719
-0.42319
-0.417558
-0.415015
-0.410142
-0.407594
-0.403117
-0.400555
-0.396436
-0.393871
-0.390014
-0.387434
-0.383794
-0.381214
-0.377496
-0.374901
-0.371169
-0.368576
-0.364638
-0.362029
-0.357717
-0.355112
-0.350505
-0.347881
-0.342842
-0.340226
-0.334491
-0.331854
-0.32564
-0.323013
-0.316048
-0.313396
-0.305536
-0.302898
-0.294155
-0.291487
-0.28221
-0.279561
-0.269332
-0.266647
-0.255999
-0.253339
-0.242353
-0.239651
-0.228865
-0.226195
-0.215727
-0.213007
-0.203279
-0.2006
-0.192053
-0.189315
-0.182136
-0.179451
-0.173624
-0.170868
-0.166833
-0.164144
-0.161305
-0.158531
-0.157361
-0.15467
-0.154437
-0.151645
-0.152724
-0.150033
-0.151597
-0.148784
-0.151414
-0.148457
-0.151608
-0.148806
-0.152794
-0.150469
-0.154464
-0.151655
-0.157494
-0.156055
-0.161296
-0.15848
-0.167115
-0.167118
-0.174125
-0.17127
-0.18359
-0.185414
-0.194806
-0.191848
-0.209095
-0.212315
-0.225207
-0.222047
-0.245435
-1.02707
-0.267881
-1.03594
-0.294989
-1.08593
-0.324089
-1.09755
-0.356198
-1.15678
-0.388331
-1.17028
-0.42013
-1.23092
-0.444148
-1.24214
-0.460686
-1.28237
-0.462511
-1.28408
-0.449323
-1.24563
-0.420008
-1.22995
-0.375587
-1.14663
-0.323122
-1.12182
-0.266033
-1.02227
-0.210096
-0.998398
-0.161146
-0.915611
-0.121449
-0.900403
-0.0917206
-0.848387
-0.0713942
-0.841871
-0.0576663
-0.813697
-0.049456
-0.812024
-0.0434193
-0.791008
-0.0399292
-0.794991
-0.0365032
-0.728349
-0.0341426
-0.782235
-0.0312034
-0.769159
-0.029
-0.772027
-0.0263818
-0.762491
-0.0242421
-0.762475
-0.0217024
-0.749616
-0.0196909
-0.75333
-0.017448
-0.730736
-0.015768
-0.745219
-0.0139624
-0.716439
-0.012777
-0.738908
-0.0115517
-0.719248
-0.0108063
-0.734741
-0.00996597
-0.728014
-0.00942409
-0.731909
-0.00870536
-0.729412
-0.00808184
-0.729347
-0.00728171
-0.726779
-0.00653703
-0.726652
-0.00568373
-0.724082
-0.00488741
-0.723933
-0.00408056
-0.721569
-0.00343009
-0.721492
-0.00285728
-0.718626
-0.0024381
-0.719631
-0.00210903
-0.716447
-0.0018497
-0.718376
-0.00158219
-0.717394
-0.00133219
-0.717377
-0.00106985
-0.716469
-0.000820027
-0.71644
-0.000568855
-0.715626
-0.00035165
-0.715606
-0.000176784
-0.714359
-7.85378e-05
-0.715088
-3.6338e-05
-0.714522
-2.43461e-05
-0.714968
-2.18982e-05
-0.714969
-2.17983e-05
-0.714969
-2.24767e-05
-0.714969
-2.25526e-05
-0.714968
-2.31467e-05
-0.714968
-2.33584e-05
-0.714968
-2.40545e-05
-0.714967
-2.49739e-05
-0.714966
-2.83828e-05
-0.714964
-3.28714e-05
-0.714962
-2.75897e-05
-0.714957
8.54328e-06
-0.714928
-0.398738
-0.416033
-0.400298
-0.417077
-0.400958
-0.417622
-0.404316
-0.420578
-0.405544
-0.421853
-0.410394
-0.426335
-0.412046
-0.428173
-0.438807
-0.433797
-0.440709
-0.436151
-0.446754
-0.442156
-0.449247
-0.445004
-0.45543
-0.451192
-0.458356
-0.4544
-0.464612
-0.46069
-0.467912
-0.464218
-0.474247
-0.470603
-0.477927
-0.474471
-0.484402
-0.481005
-0.488506
-0.485265
-0.495189
-0.49201
-0.499761
-0.496712
-0.506708
-0.503722
-0.511782
-0.508907
-0.519036
-0.516223
-0.524626
-0.521906
-0.532206
-0.529546
-0.538286
-0.535709
-0.546167
-0.543647
-0.552688
-0.550242
-0.560799
-0.558408
-0.567675
-0.565351
-0.575936
-0.573667
-0.583049
-0.580841
-0.591354
-0.5892
-0.598599
-0.596502
-0.606867
-0.604822
-0.61416
-0.61217
-0.622355
-0.620415
-0.629662
-0.627774
-0.637772
-0.635932
-0.645096
-0.643306
-0.653136
-0.651392
-0.660498
-0.6588
-0.668496
-0.666843
-0.675901
-0.674292
-0.683872
-0.682304
-0.691313
-0.689788
-0.699236
-0.697752
-0.706687
-0.705243
-0.714534
-0.713129
-0.721944
-0.720576
-0.729679
-0.728349
-0.737004
-0.73571
-0.744574
-0.743314
-0.751783
-0.750557
-0.759177
-0.757983
-0.76624
-0.765077
-0.773439
-0.772306
-0.780336
-0.779231
-0.787343
-0.786263
-0.794085
-0.793031
-0.800893
-0.799862
-0.807463
-0.806455
-0.814084
-0.813099
-0.820496
-0.81953
-0.826942
-0.825996
-0.833207
-0.83228
-0.839521
-0.838614
-0.845676
-0.844787
-0.851879
-0.851009
-0.857955
-0.857102
-0.864081
-0.863247
-0.87013
-0.869313
-0.876218
-0.875419
-0.882248
-0.881468
-0.888326
-0.887564
-0.894362
-0.893616
-0.900441
-0.899713
-0.906492
-0.905779
-0.912586
-0.911889
-0.91867
-0.917987
-0.924819
-0.924149
-0.930979
-0.93032
-0.937218
-0.936568
-0.943501
-0.942859
-0.949853
-0.949218
-0.956254
-0.955625
-0.962741
-0.962117
-0.969243
-0.968623
-0.975773
-0.975157
-0.982302
-0.98169
-0.988796
-0.988189
-0.995209
-0.994607
-1.00154
-1.00094
-1.00773
-1.00715
-1.01377
-1.0132
-1.01964
-1.01907
-1.02534
-1.02479
-1.03087
-1.03032
-1.03623
-1.0357
-1.04144
-1.04093
-1.04653
-1.04604
-1.05147
-1.051
-1.05631
-1.05586
-1.06104
-1.0606
-1.06563
-1.06521
-1.07008
-1.06968
-1.07439
-1.07402
-1.07849
-1.07814
-1.08239
-1.08206
-1.08605
-1.08574
-1.08944
-1.08915
-1.09254
-1.09227
-1.09534
-1.09509
-1.09783
-1.0976
-1.10001
-1.0998
-1.1019
-1.10171
-1.10351
-1.10333
-1.10486
-1.1047
-1.10598
-1.10583
-1.10689
-1.10676
-1.10762
-1.1075
-1.1082
-1.10809
-1.10865
-1.10855
-1.109
-1.10891
-1.10926
-1.10918
-1.10946
-1.10939
-1.1096
-1.10954
-1.1097
-1.10964
-1.10978
-1.10972
-1.10983
-1.10978
-1.10986
-1.10982
-1.10989
-1.10984
-1.10991
-1.10986
-1.10992
-1.10986
-1.10993
-1.10988
-1.10993
-1.10988
-1.10995
-1.10991
-1.10995
-1.1099
-1.10997
-1.10994
-1.10999
-1.10992
-1.11001
-1.11001
-1.11004
-1.10999
-1.11008
-1.1101
-1.11012
-1.11011
-1.11018
-1.11021
-1.11023
-1.11024
-1.1103
-1.11037
-1.11037
-1.1104
-1.11046
-1.11055
-1.11053
-1.11059
-1.11062
-1.11074
-1.1107
-1.11079
-1.11079
-1.11094
-1.11086
-1.11098
-1.11093
-1.11112
-1.11098
-1.11115
-1.11103
-1.11127
-1.11106
-1.11129
-1.11108
-1.11136
-1.11106
-1.11135
-1.11102
-1.11126
-1.11093
-1.11121
-1.11078
-1.11097
-1.11054
-1.11082
-1.11017
-1.11037
-1.10959
-1.10988
-1.10871
-1.10894
-1.10736
-1.10767
-1.10539
-1.10566
-1.10245
-1.10277
-1.09832
-1.09861
-1.09246
-1.0928
-1.08454
-1.08486
-1.07398
-1.07433
-1.06029
-1.06064
-1.04303
-1.0434
-1.02202
-1.0224
-0.997018
-0.997415
-0.967704
-0.968109
-0.935001
-0.935422
-0.899053
-0.899484
-0.860787
-0.861233
-0.820909
-0.821366
-0.780656
-0.781126
-0.740776
-0.74126
-0.702071
-0.702568
-0.665813
-0.666324
-0.63242
-0.632943
-0.601676
-0.602214
-0.574285
-0.574834
-0.550214
-0.55078
-0.528919
-0.529496
-0.510188
-0.510782
-0.493657
-0.49426
-0.479189
-0.479811
-0.46626
-0.466889
-0.454634
-0.455281
-0.44408
-0.444733
-0.434561
-0.435232
-0.425807
-0.426481
-0.417628
-0.418321
-0.410211
-0.410904
-0.403167
-0.40388
-0.396489
-0.397199
-0.390046
-0.390777
-0.383833
-0.384556
-0.377513
-0.378259
-0.371195
-0.371931
-0.36464
-0.365401
-0.357732
-0.35848
-0.350492
-0.351268
-0.342847
-0.343605
-0.334464
-0.335255
-0.325634
-0.326402
-0.316005
-0.316812
-0.30552
-0.306299
-0.294096
-0.294919
-0.282183
-0.282972
-0.269256
-0.270097
-0.255962
-0.256761
-0.242258
-0.243118
-0.228819
-0.229627
-0.215614
-0.216493
-0.203224
-0.204041
-0.191921
-0.19282
-0.182075
-0.182898
-0.173474
-0.174392
-0.166767
-0.167594
-0.161137
-0.162074
-0.157293
-0.158122
-0.15425
-0.155207
-0.152656
-0.153483
-0.151392
-0.152368
-0.151067
-0.152173
-0.151415
-0.15238
-0.153079
-0.153552
-0.154264
-0.155238
-0.158663
-0.15825
-0.161085
-0.162072
-0.169722
-0.167869
-0.173871
-0.174903
-0.188012
-0.184342
-0.194446
-0.195587
-0.215462
-0.209844
-0.224646
-0.225991
-0.253821
-0.246181
-0.266935
-0.268621
-1.09574
-0.29577
-1.10792
-0.324834
-1.16661
-0.356976
-1.18011
-0.38908
-1.24074
-0.420904
-1.25197
-0.4449
-1.29219
-0.461459
-1.2939
-0.463266
-1.25546
-0.450093
-1.23977
-0.420764
-1.15645
-0.376356
-1.13164
-0.323881
-1.03208
-0.266801
-1.00821
-0.210856
-0.925421
-0.161914
-0.910213
-0.12221
-0.858195
-0.0924875
-0.851679
-0.0721562
-0.823505
-0.0584328
-0.821834
-0.0502188
-0.800818
-0.0441856
-0.804802
-0.0406927
-0.738168
-0.0372693
-0.792047
-0.0349067
-0.778969
-0.0319694
-0.781839
-0.0297646
-0.772303
-0.0271478
-0.772287
-0.025007
-0.759428
-0.0224684
-0.763142
-0.0204562
-0.740548
-0.0182141
-0.755032
-0.0165335
-0.726252
-0.0147286
-0.748721
-0.0135428
-0.729061
-0.0123179
-0.744555
-0.0115722
-0.737828
-0.0107322
-0.741724
-0.0101902
-0.739226
-0.00947167
-0.739162
-0.00884804
-0.736594
-0.00804805
-0.736467
-0.00730328
-0.733896
-0.00645006
-0.733748
-0.00565366
-0.731383
-0.00484685
-0.731307
-0.00419629
-0.728443
-0.00362348
-0.729446
-0.00320422
-0.726262
-0.00287511
-0.728192
-0.00261573
-0.72721
-0.0023482
-0.727193
-0.00209818
-0.726284
-0.00183589
-0.726256
-0.00158607
-0.725442
-0.00133503
-0.725421
-0.00111781
-0.724176
-0.000943115
-0.724904
-0.000844773
-0.724337
-0.000802515
-0.724784
-0.000790341
-0.724785
-0.000787861
-0.724785
-0.0007878
-0.724785
-0.000788462
-0.724785
-0.000788701
-0.724784
-0.000789376
-0.724784
-0.000789664
-0.724783
-0.000790361
-0.724782
-0.000791299
-0.72478
-0.000794703
-0.724778
-0.000799204
-0.724773
-0.000793942
-0.724745
-0.000757826
)
;

boundaryField
{
    walls
    {
        type            zeroGradient;
    }
    inlet
    {
        type            cyclic;
    }
    outlet
    {
        type            cyclic;
    }
    sides
    {
        type            empty;
    }
}


// ************************************************************************* //
