/*--------------------------------*- C++ -*----------------------------------*\
| =========                 |                                                 |
| \\      /  F ield         | OpenFOAM: The Open Source CFD Toolbox           |
|  \\    /   O peration     | Version:  2012                                  |
|   \\  /    A nd           | Website:  www.openfoam.com                      |
|    \\/     M anipulation  |                                                 |
\*---------------------------------------------------------------------------*/
FoamFile
{
    version     2.0;
    format      ascii;
    class       volSymmTensorField;
    location    "10400";
    object      turbulenceProperties:R;
}
// * * * * * * * * * * * * * * * * * * * * * * * * * * * * * * * * * * * * * //

dimensions      [0 2 -2 0 0 0 0];


internalField   nonuniform List<symmTensor> 
2560
(
(0.0021837 -6.21148e-07 -9.01482e-10 0.0021837 -5.24299e-09 0.0021837)
(0.00218244 -6.20267e-07 -9.00962e-10 0.00218244 2.9602e-13 0.00218244)
(0.0611766 -9.9604e-05 -4.36365e-07 0.0611766 -1.57133e-11 0.0611766)
(0.0611448 -9.94693e-05 -4.36136e-07 0.0611448 4.63969e-11 0.0611448)
(0.431479 -0.00208662 -1.24958e-05 0.43148 4.86163e-06 0.431479)
(0.43127 -0.00208391 -1.24799e-05 0.431269 5.80629e-11 0.43127)
(1.43622 -0.0150112 -9.12007e-05 1.43622 4.94863e-05 1.43622)
(1.43563 -0.0149936 -9.10969e-05 1.43563 5.7238e-10 1.43563)
(2.92802 -0.0534026 -0.000329145 2.92803 0.000131085 2.92802)
(2.92712 -0.0533496 -0.000328831 2.92711 2.46891e-09 2.92712)
(4.45878 -0.120021 -0.000750097 4.45879 0.000155928 4.45878)
(4.45771 -0.119922 -0.000749512 4.4577 1.93524e-09 4.45771)
(5.85404 -0.207859 -0.00131679 5.85406 0.000137218 5.85404)
(5.85287 -0.207717 -0.00131595 5.85286 1.17563e-09 5.85287)
(7.1114 -0.310262 -0.00199225 7.11141 0.000112985 7.1114)
(7.11017 -0.310089 -0.00199123 7.11015 1.35048e-09 7.11017)
(8.25942 -0.423011 -0.00275516 8.25944 9.34143e-05 8.25942)
(8.25814 -0.422822 -0.00275405 8.25812 3.65376e-10 8.25814)
(9.32372 -0.544035 -0.00359704 9.32373 7.8673e-05 9.32372)
(9.3224 -0.543846 -0.00359594 9.32238 3.67871e-09 9.3224)
(10.3234 -0.671936 -0.00450727 10.3234 6.74862e-05 10.3234)
(10.322 -0.671764 -0.00450628 10.322 1.78382e-10 10.322)
(11.2723 -0.805299 -0.00548048 11.2723 5.88168e-05 11.2723)
(11.2709 -0.805157 -0.0054797 11.2709 7.3568e-09 11.2709)
(12.1807 -0.94358 -0.00651725 12.1807 5.20236e-05 12.1807)
(12.1794 -0.943482 -0.00651677 12.1791 -5.74517e-07 12.1794)
(13.0565 -1.0857 -0.00760422 13.0565 4.56884e-05 13.0565)
(13.055 -1.08566 -0.00760411 13.055 -9.00542e-09 13.055)
(13.9056 -1.2289 -0.00871998 13.9056 4.17499e-05 13.9056)
(13.9044 -1.22891 -0.00872028 13.9034 7.38445e-07 13.9044)
(14.7328 -1.36988 -0.00984252 14.7328 3.48866e-05 14.7328)
(14.7313 -1.36996 -0.00984327 14.7313 -4.1378e-08 14.7313)
(15.542 -1.50592 -0.0109552 15.542 3.39359e-05 15.542)
(15.5408 -1.50606 -0.0109564 15.5398 2.47034e-06 15.5408)
(16.3364 -1.63736 -0.0120784 16.3365 2.58687e-05 16.3364)
(16.3349 -1.63756 -0.01208 16.3349 -2.34242e-08 16.3349)
(17.1188 -1.76978 -0.0132706 17.1189 3.11807e-05 17.1188)
(17.1173 -1.77003 -0.0132725 17.1173 2.42749e-08 17.1173)
(17.8915 -1.90983 -0.0145704 17.8916 1.86151e-05 17.8915)
(17.8899 -1.91012 -0.0145725 17.8899 -6.53257e-09 17.8899)
(18.6565 -2.05847 -0.0159569 18.6565 3.28998e-05 18.6565)
(18.6548 -2.05879 -0.0159593 18.6548 5.43849e-08 18.6548)
(19.4154 -2.21054 -0.0173799 19.4154 1.18034e-05 19.4154)
(19.4137 -2.21087 -0.0173824 19.4137 1.24979e-08 19.4137)
(20.1698 -2.3603 -0.0188072 20.1698 3.45266e-05 20.1698)
(20.1681 -2.36064 -0.0188098 20.1681 -2.78003e-06 20.1681)
(20.921 -2.50534 -0.0202343 20.9211 2.10539e-06 20.921)
(20.9193 -2.50568 -0.020237 20.9193 -6.47552e-08 20.9193)
(21.6704 -2.64548 -0.0216607 21.6704 4.07106e-05 21.6704)
(21.6687 -2.64581 -0.0216634 21.6687 6.8966e-07 21.6687)
(22.4191 -2.77993 -0.0230717 22.4191 -1.08782e-05 22.4191)
(22.4173 -2.78025 -0.0230743 22.4173 -1.69881e-07 22.4173)
(23.1681 -2.90628 -0.0244391 23.1681 4.79582e-05 23.1681)
(23.1663 -2.90659 -0.0244416 23.1663 1.21998e-06 23.1663)
(23.9186 -3.02122 -0.0257312 23.9186 -2.28802e-05 23.9185)
(23.9167 -3.02151 -0.0257336 23.9167 -1.3603e-07 23.9167)
(24.6714 -3.12218 -0.0269298 24.6714 5.46583e-05 24.6714)
(24.6696 -3.12245 -0.026932 24.6696 -9.12056e-08 24.6696)
(25.4276 -3.21011 -0.028061 25.4277 -3.43769e-05 25.4276)
(25.4258 -3.21035 -0.0280629 25.4258 -2.97781e-08 25.4258)
(26.1882 -3.29247 -0.0292216 26.1882 6.28138e-05 26.1882)
(26.1863 -3.29267 -0.0292232 26.1863 2.42411e-07 26.1863)
(26.954 -3.38375 -0.0305691 26.9541 -4.68104e-05 26.954)
(26.952 -3.3839 -0.0305702 26.952 6.3047e-08 26.952)
(27.7259 -3.50124 -0.0322642 27.7258 7.26037e-05 27.7259)
(27.7239 -3.50133 -0.0322647 27.7239 3.41476e-07 27.7239)
(28.5047 -3.65789 -0.0344029 28.5048 -6.02417e-05 28.5047)
(28.5026 -3.65792 -0.0344028 28.5026 4.38157e-08 28.5027)
(29.2912 -3.85689 -0.0369791 29.2911 8.50924e-05 29.2912)
(29.2891 -3.85685 -0.0369784 29.2891 -5.80554e-06 29.2891)
(30.086 -4.09057 -0.0398907 30.0861 -8.10022e-05 30.086)
(30.0839 -4.09047 -0.0398894 30.0839 -1.50151e-07 30.0839)
(30.89 -4.34353 -0.042977 30.8898 0.000106979 30.89)
(30.8878 -4.34337 -0.0429752 30.8878 -2.32401e-05 30.8878)
(31.7034 -4.59783 -0.0460717 31.7036 -0.000134309 31.7034)
(31.7013 -4.59762 -0.0460693 31.7013 -5.07823e-07 31.7013)
(32.5274 -4.83911 -0.0490652 32.5272 0.000181362 32.5274)
(32.5251 -4.83884 -0.0490622 32.5251 -1.06757e-05 32.5251)
(33.3621 -5.06346 -0.0519845 33.3623 -0.000230398 33.3621)
(33.3599 -5.06311 -0.0519806 33.3599 -7.00134e-07 33.3599)
(34.2088 -5.28507 -0.0550839 34.2086 0.000292168 34.2088)
(34.2064 -5.28461 -0.0550785 34.2064 7.63145e-06 34.2064)
(35.0676 -5.54255 -0.05891 35.0679 -0.000341369 35.0676)
(35.0654 -5.54194 -0.0589026 35.0654 -6.29192e-07 35.0654)
(35.94 -5.89921 -0.0642787 35.9398 0.00039935 35.94)
(35.9375 -5.89837 -0.0642686 35.9375 2.07814e-05 35.9375)
(36.8258 -6.4327 -0.0721176 36.8261 -0.00043454 36.8258)
(36.8235 -6.43159 -0.072104 36.8235 -3.9033e-07 36.8235)
(37.7262 -7.21535 -0.0832235 37.7259 0.000473782 37.7262)
(37.7236 -7.21391 -0.0832059 37.7236 7.17695e-06 37.7236)
(38.6402 -8.29393 -0.0980606 38.6406 -0.000506441 38.6402)
(38.6378 -8.29215 -0.098039 38.6378 -2.32931e-07 38.6378)
(39.5684 -9.68016 -0.116717 39.568 0.000539689 39.5684)
(39.5657 -9.67805 -0.116692 39.5657 -4.95361e-06 39.5657)
(40.5083 -11.3555 -0.139005 40.5088 -0.000581333 40.5083)
(40.5059 -11.3531 -0.138977 40.5059 -3.54778e-07 40.5059)
(41.4591 -13.2882 -0.164704 41.4587 0.000620804 41.4591)
(41.4563 -13.2856 -0.164673 41.4563 -0.000101735 41.4563)
(42.4165 -15.4495 -0.19366 42.417 -0.000769878 42.4165)
(42.414 -15.4468 -0.193629 42.414 -1.95849e-06 42.414)
(43.3777 -17.8055 -0.225497 43.3772 0.000908347 43.3777)
(43.3748 -17.8029 -0.225467 43.3748 9.76107e-05 43.3748)
(44.3361 -20.2799 -0.258995 44.3366 -0.000984682 44.3361)
(44.3335 -20.2776 -0.258971 44.3335 -3.95165e-06 44.3335)
(45.2867 -22.6979 -0.291281 45.2862 0.00101075 45.2867)
(45.2838 -22.6962 -0.291266 45.2838 -2.37837e-05 45.2838)
(46.2214 -24.7297 -0.317061 46.2219 -0.00112306 46.2214)
(46.2188 -24.7291 -0.317062 46.2188 -1.1418e-05 46.2188)
(47.1359 -25.8558 -0.32823 47.1355 0.00112053 47.1359)
(47.1329 -25.8568 -0.328254 47.1329 -5.23895e-05 47.1329)
(48.0267 -25.3931 -0.31457 48.0273 -0.00130982 48.0267)
(48.024 -25.3962 -0.314625 48.024 -2.10126e-05 48.024)
(48.8999 -22.6035 -0.26552 48.8999 0.00125361 48.8999)
(48.8969 -22.6091 -0.265611 48.8969 -7.00777e-05 48.8969)
(49.7684 -16.8746 -0.173019 49.7692 -0.00156105 49.7684)
(49.7656 -16.8831 -0.173149 49.7656 -2.2678e-05 49.7656)
(50.654 -5.18871 -0.0347018 50.6542 0.00144455 50.654)
(50.6509 -5.21409 -0.0348715 50.6509 -4.01097e-05 50.6509)
(51.5788 0.023358 -0.000158488 51.5791 -0.00185845 51.5788)
(51.5755 2.48478e-16 -6.14741e-16 51.5755 -6.74776e-06 51.5755)
(52.5464 17.9379 -0.146816 52.5465 0.00171799 52.5464)
(52.5429 17.9218 -0.146606 52.5429 3.78083e-05 52.5429)
(53.5323 32.6648 -0.355554 53.5319 -0.00214553 53.5323)
(53.5285 32.6476 -0.355317 53.5285 2.01679e-05 53.5285)
(54.4788 46.468 -0.569072 54.4789 0.002044 54.4788)
(54.4751 46.4506 -0.568822 54.4751 0.000107498 54.4752)
(55.3039 57.7234 -0.76227 55.303 -0.00236328 55.3039)
(55.2999 57.7072 -0.762024 55.2999 3.77224e-05 55.2999)
(55.918 65.1938 -0.912094 55.9184 0.00234104 55.918)
(55.9147 65.18 -0.911871 55.9147 9.33554e-05 55.9147)
(56.2536 68.2706 -1.0026 56.2527 -0.00247116 56.2536)
(56.2501 68.2604 -1.00242 56.2501 -0.000104987 56.2502)
(56.2759 67.0423 -1.02778 56.2768 0.00247416 56.2759)
(56.2734 67.0367 -1.02766 56.2734 -2.72438e-05 56.2734)
(55.9958 62.1834 -0.991701 55.9951 -0.00247887 55.9958)
(55.9932 62.1828 -0.991654 55.9932 -5.69017e-05 55.9932)
(55.4538 54.7104 -0.623386 55.455 0.00248015 55.4538)
(55.4522 54.7148 -0.623368 55.4522 -9.93263e-06 55.4522)
(54.715 45.7144 -0.231997 54.7144 -0.00241644 54.715)
(54.7131 45.7235 -0.23199 54.7131 -4.7129e-06 54.7131)
(53.8443 36.1575 0.0913307 53.8453 0.00243036 53.8443)
(53.8432 36.1704 0.0913301 53.8432 2.79484e-07 53.8432)
(52.9047 26.7628 0.342621 52.9042 -0.00237167 52.9047)
(52.9033 26.7778 0.342615 52.9033 -0.000221494 52.9033)
(51.9423 17.9976 0.227774 51.9431 0.0010687 51.9423)
(51.9414 18.0129 0.228023 51.9414 -1.05482e-19 51.9414)
(50.9923 10.1163 0.107314 50.9917 -0.000132768 50.9923)
(50.991 10.1309 0.107552 50.991 0.000291248 50.991)
(50.0728 0.0611199 0.000514977 50.0734 0.000137051 50.0728)
(50.0719 0.087234 0.000735007 50.0719 3.72882e-21 50.0719)
(49.1953 -0.00428938 3.66665e-05 49.1948 -8.52176e-05 49.1953)
(49.1941 3.34451e-16 8.76766e-17 49.1941 2.07061e-05 49.1941)
(48.3588 -7.56595 0.0922665 48.3592 3.80274e-05 48.3588)
(48.3578 -7.5549 0.0920651 48.3578 2.50983e-23 48.3578)
(47.5588 -11.5429 0.17101 47.5584 -5.06264e-05 47.5588)
(47.5577 -11.5331 0.170828 47.5577 1.91047e-05 47.5577)
(46.7866 -14.6602 0.236086 46.7866 1.13297e-05 46.7866)
(46.7837 -14.6517 0.235924 46.7893 4.94492e-05 46.7837)
(46.0335 -17.002 0.288239 46.0332 -2.77466e-05 46.0335)
(46.0325 -16.9948 0.288098 46.0325 1.59669e-05 46.0325)
(45.2903 -18.6654 0.138535 45.2903 9.20605e-06 45.2903)
(45.2883 -18.6599 0.138532 45.2916 2.98212e-05 45.2883)
(44.5493 -19.7602 -0.0403568 44.549 -1.47737e-05 44.5493)
(44.5484 -19.7566 -0.0403572 44.5484 1.24915e-05 44.5484)
(43.8038 -20.4022 -0.230014 43.8038 6.66153e-06 43.8038)
(43.8027 -20.4004 -0.230011 43.8042 1.87538e-05 43.8027)
(43.0493 -20.7007 -0.40137 43.049 -9.27266e-06 43.0493)
(43.0487 -20.7002 -0.401372 43.0487 2.56284e-06 43.0487)
(42.2817 -20.7464 -0.406072 42.2817 4.79248e-06 42.2817)
(42.2812 -20.7469 -0.406091 42.2817 1.09454e-05 42.2812)
(41.4989 -20.6035 -0.407574 41.4987 -1.2482e-05 41.4989)
(41.4986 -20.6048 -0.407605 41.4986 -2.72847e-21 41.4986)
(40.6989 -20.3056 -0.406086 40.6989 -5.55611e-06 40.6989)
(40.6987 -20.3074 -0.406127 40.6989 1.3492e-05 40.6987)
(39.8808 -19.856 -0.401257 39.8806 -1.81721e-05 39.8808)
(39.8807 -19.8582 -0.401305 39.8807 -6.15595e-07 39.8807)
(39.0441 -19.2338 -0.39229 39.0441 -8.52879e-06 39.0441)
(39.0441 -19.2364 -0.392345 39.0444 8.40248e-06 39.0441)
(38.1897 -18.4033 -0.378157 38.1895 -1.97994e-05 38.1897)
(38.1898 -18.4062 -0.378219 38.1898 -8.6887e-06 38.1898)
(37.3189 -17.3255 -0.357823 37.3189 -1.19198e-05 37.3189)
(37.3191 -17.3286 -0.357891 37.3194 -2.74677e-06 37.3191)
(36.4349 -15.9698 -0.33052 36.4349 -2.10435e-05 36.4349)
(36.4353 -15.9731 -0.330593 36.4353 -1.29995e-05 36.4353)
(35.5419 -14.3256 -0.295994 35.5419 -1.36924e-05 35.5419)
(35.5423 -14.3291 -0.296072 35.5425 -5.87612e-06 35.5423)
(34.6455 -12.41 -0.254657 34.6454 -1.99197e-05 34.6455)
(34.6459 -12.4136 -0.254738 34.6459 -1.33572e-05 34.6459)
(33.7518 -10.2688 -0.207597 33.7518 -1.24101e-05 33.7518)
(33.7522 -10.2724 -0.207679 33.7524 -5.68175e-06 33.7522)
(32.8676 -7.97436 -0.15654 32.8675 -1.5727e-05 32.8676)
(32.868 -7.97791 -0.156621 32.868 -1.04385e-05 32.868)
(31.9988 -5.62037 -0.103753 31.9988 -8.1094e-06 31.9988)
(31.9993 -5.62378 -0.103831 31.9994 -2.30509e-06 31.9993)
(31.1506 -3.31162 -0.0517259 31.1506 -9.63674e-06 31.1506)
(31.1511 -3.3148 -0.051798 31.1511 -5.28847e-06 31.1511)
(30.3262 -0.247363 -0.00294721 30.3262 -1.53121e-06 30.3262)
(30.3266 -0.252809 -0.00301209 30.3267 4.80814e-06 30.3266)
(29.5275 0.000900084 -1.088e-05 29.5274 -3.68322e-06 29.5275)
(29.5279 3.09969e-14 3.46847e-16 29.5279 -6.75027e-08 29.5279)
(28.7541 2.36864 -0.0402142 28.7541 1.12485e-06 28.7541)
(28.7545 2.36657 -0.0401583 28.7545 4.07808e-06 28.7545)
(28.0047 3.60388 -0.0760557 28.0046 1.27502e-07 28.0047)
(28.0051 3.60227 -0.0760101 28.0051 3.39062e-06 28.0051)
(27.2773 4.44622 -0.103261 27.2773 4.12895e-06 27.2773)
(27.2777 4.44511 -0.103227 27.2777 7.36368e-06 27.2777)
(26.5701 4.89405 -0.121094 26.57 1.53846e-06 26.5701)
(26.5705 4.89345 -0.121073 26.5705 4.45036e-06 26.5705)
(25.8815 4.96562 -0.129385 25.8815 4.24159e-06 25.8815)
(25.8819 4.96552 -0.129376 25.8819 6.83686e-06 25.8819)
(25.2109 4.69391 -0.128401 25.2108 1.26381e-06 25.2109)
(25.2112 4.69429 -0.128405 25.2112 3.84511e-06 25.2112)
(24.5583 4.12196 -0.118777 24.5583 3.22456e-06 24.5583)
(24.5587 4.12278 -0.118793 24.5587 5.35351e-06 24.5587)
(23.9246 3.29806 -0.101393 23.9246 3.67476e-07 23.9246)
(23.9249 3.29926 -0.101421 23.9249 2.61069e-06 23.9249)
(23.3109 2.27283 -0.0772776 23.3109 1.92906e-06 23.3109)
(23.3113 2.27434 -0.0773152 23.3113 3.70329e-06 23.3113)
(22.7186 0.967165 -0.0475693 22.7186 -6.46609e-07 22.7186)
(22.7189 0.970824 -0.0476148 22.7189 1.27889e-06 22.7189)
(22.1486 -0.000607134 -0.0236783 22.1486 4.83565e-07 22.1486)
(22.1489 -5.79922e-16 -0.0236248 22.1489 1.94924e-06 22.1489)
(21.601 -1.49236 -0.0624364 21.601 -2.04172e-06 21.601)
(21.6013 -1.49051 -0.0623837 21.6013 -3.58621e-07 21.6013)
(21.0751 -2.7987 -0.101162 21.0751 -1.39705e-06 21.0751)
(21.0753 -2.79696 -0.101114 21.0754 -1.8766e-07 21.0753)
(20.5689 -4.03656 -0.138073 20.5689 -4.15672e-06 20.5689)
(20.5692 -4.03504 -0.138032 20.5692 -2.65071e-06 20.5692)
(20.0795 -5.14661 -0.171267 20.0795 -4.02977e-06 20.0795)
(20.0798 -5.14539 -0.171235 20.0798 -3.07627e-06 20.0798)
(19.6032 -6.07062 -0.19882 19.6032 -6.66762e-06 19.6032)
(19.6035 -6.06977 -0.1988 19.6035 -5.39067e-06 19.6035)
(19.1357 -6.75481 -0.218893 19.1357 -6.83747e-06 19.1357)
(19.136 -6.75435 -0.218885 19.136 -6.0594e-06 19.136)
(18.6732 -7.15422 -0.229905 18.6732 -9.37349e-06 18.6732)
(18.6735 -7.15416 -0.229909 18.6735 -8.26974e-06 18.6735)
(18.2125 -7.23792 -0.23072 18.2125 -9.74182e-06 18.2125)
(18.2128 -7.23823 -0.230736 18.2128 -9.07668e-06 18.2128)
(17.7522 -6.99375 -0.220824 17.7522 -1.23133e-05 17.7522)
(17.7525 -6.99437 -0.220849 17.7525 -1.13445e-05 17.7525)
(17.2921 -6.43113 -0.200417 17.2921 -1.32099e-05 17.2921)
(17.2924 -6.43201 -0.20045 17.2924 -1.26876e-05 17.2924)
(16.8342 -5.58232 -0.170512 16.8342 -1.64482e-05 16.8342)
(16.8345 -5.58338 -0.17055 16.8345 -1.55364e-05 16.8345)
(16.3814 -4.50105 -0.13286 16.3814 -1.84836e-05 16.3814)
(16.3817 -4.50222 -0.132901 16.3817 -1.81795e-05 16.3817)
(15.9375 -3.25818 -0.0898431 15.9375 -2.3124e-05 15.9375)
(15.9378 -3.25939 -0.0898851 15.9378 -2.21846e-05 15.9378)
(15.5062 -1.93557 -0.0442503 15.5062 -2.68197e-05 15.5062)
(15.5064 -1.93677 -0.0442913 15.5064 -2.66343e-05 15.5064)
(15.09 -0 -0 15.09 -3.28194e-05 15.09)
(15.0902 -0.00134451 -2.36548e-05 15.0902 -3.18318e-05 15.0902)
(14.6905 0.0562568 -0.00100415 14.6905 -3.77084e-05 14.6905)
(14.6907 0.0541194 -0.000966001 14.6907 -3.74945e-05 14.6907)
(14.3075 1.69162 -0.0430745 14.3075 -4.38712e-05 14.3075)
(14.3078 1.69076 -0.0430405 14.3078 -4.29417e-05 14.3078)
(13.9396 2.56505 -0.0796567 13.9396 -4.80164e-05 13.9396)
(13.9398 2.56435 -0.0796281 13.9398 -4.77717e-05 13.9398)
(13.5845 3.20475 -0.108986 13.5846 -5.19877e-05 13.5845)
(13.5847 3.20424 -0.108964 13.5847 -5.14064e-05 13.5847)
(13.2401 3.60419 -0.130035 13.2401 -5.28958e-05 13.2401)
(13.2402 3.60385 -0.130019 13.2403 -5.25171e-05 13.2402)
(12.9042 3.77859 -0.142616 12.9043 -5.17199e-05 12.9042)
(12.9044 3.77842 -0.142606 12.9044 -5.14036e-05 12.9044)
(12.5758 3.76089 -0.147328 12.5758 -4.73201e-05 12.5758)
(12.576 3.76086 -0.147325 12.576 -4.63547e-05 12.576)
(12.2543 3.59602 -0.145409 12.2544 -3.91114e-05 12.2543)
(12.2545 3.59611 -0.14541 12.2545 -3.8792e-05 12.2545)
(11.9399 3.33517 -0.138535 11.9399 -2.94292e-05 11.9399)
(11.9401 3.33533 -0.13854 11.9401 -2.76356e-05 11.9401)
(11.6332 3.02972 -0.128625 11.6332 -1.59751e-05 11.6332)
(11.6334 3.02991 -0.128632 11.6334 -1.46831e-05 11.6334)
(11.3349 2.72544 -0.117595 11.3349 -3.8276e-07 11.3349)
(11.3351 2.72563 -0.117603 11.3351 2.10072e-06 11.3351)
(11.0457 2.45848 -0.10713 11.0457 1.11703e-05 11.0457)
(11.0459 2.45864 -0.107138 11.0459 1.25338e-05 11.0459)
(10.7663 2.25349 -0.098556 10.7663 2.63764e-05 10.7663)
(10.7664 2.2536 -0.0985618 10.7664 2.78991e-05 10.7664)
(10.4969 2.12321 -0.0927582 10.4969 3.85461e-05 10.4969)
(10.4971 2.12325 -0.0927615 10.497 3.88681e-05 10.4971)
(10.2378 2.06913 -0.0901606 10.2377 4.64928e-05 10.2378)
(10.2379 2.06911 -0.0901612 10.2379 4.69903e-05 10.2379)
(9.98872 2.08326 -0.0907394 9.98868 5.12382e-05 9.98872)
(9.98884 2.08318 -0.0907372 9.9888 5.15559e-05 9.98884)
(9.74952 2.15063 -0.0940912 9.74948 5.22622e-05 9.74952)
(9.74963 2.15051 -0.0940867 9.74959 5.28283e-05 9.74963)
(9.51969 2.25199 -0.0995336 9.51966 5.0788e-05 9.51969)
(9.51979 2.25184 -0.0995274 9.51976 5.10956e-05 9.51979)
(9.29864 2.36643 -0.1062 9.29862 4.6264e-05 9.29864)
(9.29873 2.36627 -0.106193 9.29872 4.73159e-05 9.29873)
(9.08567 2.47411 -0.113159 9.08566 4.10609e-05 9.08567)
(9.08576 2.47396 -0.113152 9.08576 4.21398e-05 9.08576)
(8.88007 2.5581 -0.119536 8.88007 3.40805e-05 8.88007)
(8.88016 2.55796 -0.119529 8.88016 3.57554e-05 8.88016)
(8.68119 2.6055 -0.12457 8.68119 2.81597e-05 8.68119)
(8.68127 2.60539 -0.124564 8.68128 2.9087e-05 8.68127)
(8.48847 2.60841 -0.127682 8.48848 2.13191e-05 8.48847)
(8.48855 2.60835 -0.127678 8.48856 2.26626e-05 8.48855)
(8.30159 2.56409 -0.128529 8.3016 1.67919e-05 8.30159)
(8.30166 2.56407 -0.128527 8.30168 1.07813e-05 8.30166)
(8.12043 2.47429 -0.126996 8.12044 1.13915e-05 8.12043)
(8.1205 2.47432 -0.126996 8.12051 1.62186e-07 8.1205)
(7.94509 2.34462 -0.123174 7.9451 8.96421e-06 7.94509)
(7.94516 2.34469 -0.123176 7.94517 -1.18616e-06 7.94516)
(7.77589 2.1837 -0.117344 7.7759 4.3947e-06 7.77589)
(7.77594 2.18381 -0.117349 7.77596 -1.20771e-06 7.77594)
(7.61326 2.00196 -0.10994 7.61326 1.95204e-06 7.61326)
(7.61331 2.0021 -0.109946 7.61332 -8.95385e-07 7.61331)
(7.45774 1.81058 -0.10148 7.45774 -1.92254e-06 7.45774)
(7.45778 1.81074 -0.101487 7.45779 -9.86957e-07 7.45778)
(7.30987 1.62078 -0.0925358 7.30987 -4.50176e-07 7.30987)
(7.3099 1.62093 -0.0925442 7.30991 -6.74353e-07 7.3099)
(7.17018 1.44322 -0.0836978 7.17018 -2.12286e-06 7.17018)
(7.1702 1.44337 -0.0837062 7.17021 -8.42218e-07 7.1702)
(7.0391 1.28763 -0.0755487 7.0391 -4.75057e-07 7.0391)
(7.03911 1.28775 -0.0755564 7.03912 -5.14421e-07 7.03911)
(6.91699 1.16253 -0.0686381 6.91699 -2.47855e-06 6.91699)
(6.91699 1.16262 -0.0686443 6.917 -7.5052e-07 6.91699)
(6.80411 1.07505 -0.0634823 6.80411 -6.82523e-07 6.80411)
(6.8041 1.07509 -0.0634864 6.8041 -3.62567e-07 6.8041)
(6.7006 1.03094 -0.0605301 6.70059 -2.57012e-06 6.7006)
(6.70057 1.03093 -0.0605314 6.70057 -6.48498e-07 6.70057)
(6.6065 1.03485 -0.0601892 6.6065 -3.53136e-07 6.6065)
(6.60646 1.03479 -0.0601871 6.60646 -3.40176e-07 6.60646)
(6.52175 1.08983 -0.062824 6.52175 -2.46835e-06 6.52175)
(6.5217 1.0897 -0.062818 6.5217 -4.90805e-07 6.5217)
(6.44617 1.19695 -0.068687 6.44617 -2.43358e-07 6.44617)
(6.4461 1.19674 -0.0686768 6.4461 -2.41451e-07 6.4461)
(6.37942 1.35528 -0.0779295 6.37942 -2.331e-06 6.37942)
(6.37934 1.355 -0.0779145 6.37934 -4.05691e-07 6.37934)
(6.32097 1.56153 -0.0905714 6.32097 -2.60709e-07 6.32097)
(6.32087 1.56116 -0.0905512 6.32087 -1.47132e-07 6.32087)
(6.27004 1.80962 -0.106463 6.27004 -2.2165e-06 6.27004)
(6.26992 1.80917 -0.106437 6.26993 -3.24398e-07 6.26992)
(6.22557 2.09056 -0.125251 6.22557 -2.74211e-07 6.22557)
(6.22543 2.09001 -0.125219 6.22543 -7.05093e-08 6.22543)
(6.18616 2.39245 -0.146361 6.18616 -2.133e-06 6.18616)
(6.186 2.3918 -0.146323 6.186 -2.61278e-07 6.186)
(6.15007 2.70049 -0.168996 6.15007 -2.8439e-07 6.15007)
(6.1499 2.69974 -0.16895 6.1499 -2.58106e-08 6.1499)
(6.11531 2.9975 -0.192107 6.11531 -2.07756e-06 6.11531)
(6.11512 2.99664 -0.192053 6.11513 -2.31311e-07 6.11512)
(6.07967 3.2646 -0.214457 6.07967 -4.43269e-07 6.07967)
(6.07947 3.2636 -0.214393 6.07947 -2.40272e-08 6.07947)
(6.04094 3.48214 -0.234635 6.04094 -2.04723e-06 6.04094)
(6.04073 3.48101 -0.234561 6.04074 -2.43505e-07 6.04073)
(5.99711 3.63121 -0.251159 5.99711 -6.11881e-07 5.99711)
(5.99691 3.62994 -0.251074 5.99691 -6.76268e-08 5.99691)
(5.94662 3.69486 -0.262563 5.94662 -2.03648e-06 5.94662)
(5.94643 3.69349 -0.262468 5.94643 -2.91844e-07 5.94643)
(5.88859 3.65944 -0.267502 5.88859 -7.75192e-07 5.88859)
(5.88841 3.65805 -0.2674 5.88842 -1.41181e-07 5.88841)
(5.82301 3.51594 -0.264848 5.82301 -2.03832e-06 5.82301)
(5.82286 3.51469 -0.264748 5.82287 -3.52237e-07 5.82286)
(5.75083 3.26135 -0.253817 5.75083 -9.28276e-07 5.75083)
(5.75071 3.26051 -0.253734 5.75072 -2.08732e-07 5.75071)
(5.67391 2.89863 -0.140707 5.67391 -2.04569e-06 5.67391)
(5.67384 2.89855 -0.140693 5.67385 -3.85584e-07 5.67384)
(5.59493 2.43721 -0.0389276 5.59493 -1.06737e-06 5.59493)
(5.5949 2.43828 -0.0389142 5.59491 -2.25208e-07 5.5949)
(5.5169 1.8932 0.0454721 5.5169 -2.0698e-06 5.5169)
(5.51691 1.8956 0.0454843 5.51691 -3.28611e-07 5.51691)
(5.44281 1.28712 0.0768383 5.44281 -1.23714e-06 5.44281)
(5.44284 1.29047 0.0771274 5.44285 -1.17457e-07 5.44284)
(5.3752 0.627487 0.0251378 5.3752 -2.12814e-06 5.3752)
(5.37524 0.635116 0.0254434 5.37525 -1.66853e-07 5.37524)
(5.31576 -0.000603832 2.45418e-05 5.31576 -1.3963e-06 5.31576)
(5.3158 -5.31236e-05 2.15913e-06 5.31581 4.4129e-08 5.3158)
(5.26504 -0.656702 0.0282488 5.26504 -2.17783e-06 5.26504)
(5.26508 -0.653118 0.0279417 5.26508 1.59884e-08 5.26508)
(5.22239 -1.26172 0.0813037 5.22239 -1.5367e-06 5.22239)
(5.22244 -1.25864 0.0810167 5.22245 2.06248e-07 5.22244)
(5.18614 -1.80633 0.0469966 5.18614 -2.23302e-06 5.18614)
(5.1862 -1.80432 0.0469842 5.18621 1.65649e-07 5.1862)
(5.15384 -2.27273 -0.0411028 5.15383 -1.69466e-06 5.15384)
(5.15393 -2.2721 -0.0411176 5.15393 3.35127e-07 5.15392)
(5.12265 -2.64852 -0.149987 5.12265 -2.36496e-06 5.12265)
(5.12277 -2.64899 -0.150004 5.12278 3.15461e-07 5.12277)
(5.08975 -2.92783 -0.270254 5.08975 -1.95095e-06 5.08975)
(5.0899 -2.92894 -0.27037 5.08991 4.70182e-07 5.0899)
(5.05264 -3.10987 -0.286278 5.05264 -2.57258e-06 5.05264)
(5.05282 -3.11122 -0.286404 5.05283 4.42893e-07 5.05282)
(5.00948 -3.19829 -0.294484 5.00948 -2.24943e-06 5.00948)
(5.00968 -3.19964 -0.294603 5.00969 5.74632e-07 5.00968)
(4.95919 -3.20187 -0.295518 4.95918 -2.82107e-06 4.95919)
(4.95939 -3.20309 -0.295622 4.9594 5.51281e-07 4.95939)
(4.9014 -3.13208 -0.290173 4.90139 -2.57461e-06 4.90139)
(4.9016 -3.13311 -0.290261 4.90161 6.7631e-07 4.9016)
(4.83642 -3.00222 -0.279557 4.83642 -3.08677e-06 4.83642)
(4.83662 -3.00307 -0.279631 4.83663 6.78698e-07 4.83662)
(4.76511 -2.8265 -0.264766 4.76511 -2.91473e-06 4.76511)
(4.76529 -2.8272 -0.264828 4.7653 8.01781e-07 4.76529)
(4.68866 -2.61792 -0.246826 4.68866 -3.3597e-06 4.68866)
(4.68883 -2.61849 -0.246877 4.68884 8.49333e-07 4.68883)
(4.6085 -2.38861 -0.226813 4.6085 -3.25303e-06 4.6085)
(4.60866 -2.38909 -0.226856 4.60867 9.79727e-07 4.60865)
(4.52613 -2.14945 -0.205633 4.52613 -3.64571e-06 4.52613)
(4.52627 -2.14984 -0.205669 4.52628 1.06724e-06 4.52627)
(4.44302 -1.90897 -0.184015 4.44302 -3.59982e-06 4.44302)
(4.44315 -1.90929 -0.184045 4.44316 1.20712e-06 4.44315)
(4.36054 -1.67406 -0.162625 4.36054 -7.49587e-06 4.36054)
(4.36065 -1.67433 -0.16265 4.36066 1.35716e-06 4.36065)
(4.27991 -1.44991 -0.14192 4.2799 -1.17092e-05 4.27991)
(4.28 -1.45013 -0.141942 4.28001 1.45582e-06 4.28)
(4.20215 -1.23951 -0.122157 4.20215 -1.31628e-05 4.20215)
(4.20224 -1.2397 -0.122175 4.20225 1.69408e-06 4.20224)
(4.12814 -1.04408 -0.103448 4.12814 -1.45087e-05 4.12814)
(4.12821 -1.04424 -0.103464 4.12822 1.74456e-06 4.12821)
(4.05857 -0.863176 -0.0857043 4.05857 -1.57292e-05 4.05857)
(4.05863 -0.863308 -0.0857179 4.05864 2.05869e-06 4.05863)
(3.99398 -0.694672 -0.0686578 3.99397 -1.68614e-05 3.99398)
(3.99403 -0.694787 -0.0686699 3.99404 -1.74067e-06 3.99403)
(3.9348 -0.534936 -0.0518541 3.9348 -1.75396e-05 3.9348)
(3.93484 -0.535039 -0.0518653 3.93485 -7.95784e-06 3.93484)
(3.88134 -0.379039 -0.0346834 3.88133 -1.82145e-05 3.88134)
(3.88137 -0.379135 -0.0346942 3.88138 -1.09139e-05 3.88137)
(3.83384 -0.221086 -0.0164047 3.83384 -1.81505e-05 3.83384)
(3.83386 -0.22118 -0.0164157 3.83387 -1.0438e-05 3.83386)
(3.79244 -5.94054e-07 -3.5142e-08 3.79244 -1.81976e-05 3.79244)
(3.79246 -0.000125749 -7.43884e-06 3.79247 -1.01982e-05 3.79246)
(3.75721 0.0625762 -0.0037556 3.75721 -1.75118e-05 3.75721)
(3.75722 0.0623793 -0.00374378 3.75723 -9.0713e-06 3.75722)
(3.7281 0.323238 -0.0267069 3.7281 -1.70036e-05 3.7281)
(3.72811 0.323127 -0.026694 3.72812 -8.21793e-06 3.72811)
(3.7049 0.543015 -0.0528782 3.7049 -1.5995e-05 3.7049)
(3.7049 0.542891 -0.0528637 3.70492 -6.73172e-06 3.7049)
(3.6872 0.784644 -0.0826126 3.68719 -1.54054e-05 3.6872)
(3.68719 0.784506 -0.0825962 3.68721 -5.7371e-06 3.68719)
(3.67432 1.04581 -0.115934 3.67432 -1.4443e-05 3.67432)
(3.67431 1.04566 -0.115915 3.67433 -4.25477e-06 3.67431)
(3.66531 1.32125 -0.152484 3.6653 -1.43191e-05 3.66531)
(3.66529 1.32108 -0.152464 3.66531 -3.66603e-06 3.66529)
(3.65883 1.60264 -0.191484 3.65883 -1.38983e-05 3.65883)
(3.65881 1.60246 -0.191461 3.65883 -2.68096e-06 3.65881)
(3.65324 1.87898 -0.231689 3.65323 -1.46875e-05 3.65324)
(3.65321 1.87878 -0.231663 3.65323 -2.94902e-06 3.65321)
(3.6466 2.13707 -0.271473 3.6466 -1.48887e-05 3.6466)
(3.64657 2.13685 -0.271445 3.64659 -2.54445e-06 3.64657)
(3.63682 2.36232 -0.308832 3.63682 -1.67163e-05 3.63682)
(3.63679 2.36208 -0.308801 3.63681 -3.8028e-06 3.63679)
(3.62184 2.5399 -0.341566 3.62184 -1.72143e-05 3.62184)
(3.62181 2.53965 -0.341533 3.62183 -3.66132e-06 3.62181)
(3.59981 2.65548 -0.367386 3.59981 -1.981e-05 3.59981)
(3.59979 2.65523 -0.36735 3.5998 -5.65092e-06 3.59979)
(3.56936 2.69662 -0.384016 3.56936 -2.00909e-05 3.56936)
(3.56934 2.69637 -0.38398 3.56936 -5.2679e-06 3.56934)
(3.52981 2.65382 -0.389488 3.5298 -2.28002e-05 3.52981)
(3.52979 2.6536 -0.389453 3.5298 -7.34349e-06 3.52979)
(3.48127 2.52175 -0.382189 3.48127 -2.22363e-05 3.48127)
(3.48126 2.52158 -0.382159 3.48128 -6.09513e-06 3.48126)
(3.42479 2.30007 -0.361193 3.42478 -2.44846e-05 3.42479)
(3.42478 2.3 -0.361174 3.42479 -7.68205e-06 3.42478)
(3.36219 1.99389 -0.326253 3.36219 -2.26508e-05 3.36219)
(3.36219 1.99399 -0.326253 3.3622 -5.13471e-06 3.36219)
(3.2959 1.61495 -0.278019 3.29589 -2.42342e-05 3.2959)
(3.2959 1.61527 -0.27805 3.29591 -6.01324e-06 3.2959)
(3.22857 1.18041 -0.218292 3.22857 -2.08701e-05 3.22857)
(3.22858 1.18098 -0.218361 3.2286 -1.88229e-06 3.22858)
(3.16269 0.712009 -0.149539 3.16269 -2.25389e-05 3.16269)
(3.16271 0.712771 -0.149647 3.16271 -2.77405e-06 3.16271)
(3.10014 7.32037e-16 -0.0752702 3.10014 -1.77162e-05 3.10014)
(3.10015 0.000831409 -0.0754043 3.10017 2.90045e-06 3.10015)
(3.04203 -0.00590391 -0.072787 3.04203 -2.04152e-05 3.04203)
(3.04204 -0.00421401 -0.0726729 3.04204 1.07889e-06 3.04204)
(2.98831 -0.638422 -0.137664 2.98831 -1.46309e-05 2.98831)
(2.98831 -0.637844 -0.137589 2.98833 7.8221e-06 2.98831)
(2.93798 -0.985972 -0.191466 2.93797 -1.91927e-05 2.93798)
(2.93799 -0.985648 -0.191433 2.93799 4.24751e-06 2.93799)
(2.88959 -1.24948 -0.231281 2.88959 -1.31045e-05 2.88959)
(2.8896 -1.24939 -0.231283 2.88962 1.13995e-05 2.8896)
(2.84163 -1.41833 -0.255288 2.84162 -1.99579e-05 2.84163)
(2.84164 -1.41842 -0.255314 2.84164 5.63182e-06 2.84164)
(2.79283 -1.48922 -0.262832 2.79283 -1.31814e-05 2.79283)
(2.79284 -1.4894 -0.26287 2.79286 1.35633e-05 2.79284)
(2.74253 -1.46638 -0.25462 2.74253 -2.2453e-05 2.74253)
(2.74255 -1.46661 -0.254663 2.74255 5.46365e-06 2.74255)
(2.69072 -1.36113 -0.232548 2.69072 -1.43621e-05 2.69072)
(2.69073 -1.36136 -0.23259 2.69075 1.47977e-05 2.69073)
(2.63797 -1.18978 -0.199341 2.63797 -2.59798e-05 2.63797)
(2.63799 -1.19001 -0.19938 2.63799 4.44653e-06 2.63799)
(2.58525 -0.972357 -0.158574 2.58525 -1.55389e-05 2.58525)
(2.58526 -0.972562 -0.15861 2.58528 1.62417e-05 2.58526)
(2.53364 -0.730462 -0.113997 2.53364 -2.98997e-05 2.53364)
(2.53366 -0.730642 -0.114029 2.53366 3.27579e-06 2.53366)
(2.48413 -0.484663 -0.0692455 2.48413 -1.60151e-05 2.48413)
(2.48414 -0.484816 -0.0692721 2.48416 1.86695e-05 2.48414)
(2.43743 -0.25346 -0.0277119 2.43743 -3.36265e-05 2.43743)
(2.43744 -0.253585 -0.0277334 2.43744 2.62797e-06 2.43744)
(2.39393 -8.30478e-15 -0 2.39393 -1.57718e-05 2.39393)
(2.39393 -4.44086e-05 -4.35416e-06 2.39396 2.21943e-05 2.39393)
(2.35376 0.0784716 -0.00780582 2.35376 -3.77539e-05 2.35376)
(2.35376 0.0783062 -0.00778936 2.35376 1.99911e-06 2.35376)
(2.31683 0.218388 -0.0354317 2.31683 -1.49583e-05 2.31683)
(2.31683 0.218346 -0.0354206 2.31685 2.67487e-05 2.31683)
(2.28299 0.279606 -0.0535881 2.28299 -4.27063e-05 2.28299)
(2.28299 0.27959 -0.0535823 2.28299 1.03861e-06 2.28299)
(2.25209 0.293167 -0.0618796 2.25209 -1.39218e-05 2.25209)
(2.25208 0.293174 -0.0618787 2.25211 3.20531e-05 2.25208)
(2.22405 0.264655 -0.0608571 2.22405 -4.89679e-05 2.22405)
(2.22405 0.264681 -0.0608608 2.22405 -6.72313e-07 2.22405)
(2.19886 0.201423 -0.051471 2.19886 -1.29418e-05 2.19886)
(2.19885 0.201463 -0.0514784 2.19888 3.7897e-05 2.19885)
(2.17653 0.112888 -0.0351526 2.17653 -5.68987e-05 2.17653)
(2.17653 0.112937 -0.0351626 2.17653 -3.41881e-06 2.17653)
(2.15708 9.402e-05 -0.0139243 2.15708 -1.13705e-05 2.15708)
(2.15708 0.000118115 -0.0139357 2.1571 4.50096e-05 2.15708)
(2.14049 -0.091858 -0.0349841 2.14049 -6.65548e-05 2.14049)