/*--------------------------------*- C++ -*----------------------------------*\
| =========                 |                                                 |
| \\      /  F ield         | OpenFOAM: The Open Source CFD Toolbox           |
|  \\    /   O peration     | Version:  2012                                  |
|   \\  /    A nd           | Website:  www.openfoam.com                      |
|    \\/     M anipulation  |                                                 |
\*---------------------------------------------------------------------------*/
FoamFile
{
    version     2.0;
    format      ascii;
    class       volVectorField;
    location    "10400";
    object      U;
}
// * * * * * * * * * * * * * * * * * * * * * * * * * * * * * * * * * * * * * //

dimensions      [0 1 -1 0 0 0 0];


internalField   nonuniform List<vector> 
2560
(
(0.0209825 -2.4786e-05 0.000345257)
(0.0209648 -1.3855e-05 5.68722e-08)
(0.062996 -6.93866e-06 0.000521829)
(0.0629431 1.14297e-05 1.47912e-08)
(0.105418 -1.76982e-05 0.000469088)
(0.105331 2.06903e-05 4.55588e-09)
(0.14825 -2.70612e-05 0.000322514)
(0.14813 2.70636e-05 3.57446e-09)
(0.191494 -3.16503e-05 0.000185406)
(0.191344 3.14442e-05 1.28049e-09)
(0.235148 -3.40248e-05 0.000109661)
(0.234972 3.39614e-05 2.63832e-10)
(0.279168 -3.55826e-05 7.17791e-05)
(0.27897 3.55192e-05 1.09603e-10)
(0.323481 -3.67388e-05 5.1476e-05)
(0.323264 3.6628e-05 9.00404e-12)
(0.368006 -3.75197e-05 3.94887e-05)
(0.367773 3.74958e-05 1.25491e-10)
(0.412725 -3.83024e-05 3.17991e-05)
(0.412481 3.81388e-05 4.01532e-11)
(0.457692 -3.87359e-05 2.6537e-05)
(0.45744 3.87586e-05 1.11454e-10)
(0.502907 -3.93907e-05 2.27519e-05)
(0.502651 3.91771e-05 6.70162e-21)
(0.548374 -3.96627e-05 1.9921e-05)
(0.548117 3.97042e-05 4.45079e-11)
(0.594125 -4.01508e-05 1.77267e-05)
(0.59387 5.42581e-05 5.58239e-08)
(0.640119 -4.03831e-05 1.6014e-05)
(0.639867 1.16275e-05 -4.71569e-21)
(0.686226 -4.07995e-05 1.46058e-05)
(0.685981 9.09121e-05 1.03582e-07)
(0.732269 -4.13542e-05 1.34885e-05)
(0.732031 -3.42875e-05 1.29779e-09)
(0.778065 -4.12555e-05 1.25374e-05)
(0.777836 0.000121706 5.74071e-08)
(0.823568 -4.19365e-05 1.1749e-05)
(0.823349 -5.05075e-05 1.79766e-09)
(0.868954 -4.15654e-05 1.10655e-05)
(0.868744 0.000139133 5.69599e-08)
(0.914478 -4.26458e-05 1.04914e-05)
(0.914278 -6.69541e-05 1.30878e-09)
(0.960279 -4.18354e-05 9.9821e-06)
(0.96009 0.000156553 5.53387e-08)
(1.00633 -4.3269e-05 9.55116e-06)
(1.00615 -8.34979e-05 -1.19679e-21)
(1.05254 -4.19393e-05 9.13609e-06)
(1.05237 0.000200365 1.65612e-07)
(1.09882 -4.40285e-05 8.83431e-06)
(1.09867 -0.00015317 1.10407e-21)
(1.14511 -4.20825e-05 8.51811e-06)
(1.14496 0.000261047 1.43712e-07)
(1.19131 -4.49589e-05 8.28671e-06)
(1.19117 -0.000205419 3.60375e-09)
(1.23732 -4.20837e-05 8.05077e-06)
(1.23718 0.000302508 1.06757e-07)
(1.28297 -4.59173e-05 7.86719e-06)
(1.28284 -0.000235527 6.261e-09)
(1.32811 -4.18579e-05 7.68111e-06)
(1.32799 0.000334082 1.10891e-07)
(1.37266 -4.69975e-05 7.54144e-06)
(1.37254 -0.000267018 5.57771e-09)
(1.41668 -4.14237e-05 7.39231e-06)
(1.41657 0.000366328 1.05853e-07)
(1.46047 -4.82655e-05 7.28424e-06)
(1.46036 -0.000298379 2.47143e-09)
(1.5045 -4.07015e-05 7.1632e-06)
(1.5044 0.000398209 9.87286e-08)
(1.5493 -4.97998e-05 7.07989e-06)
(1.5492 -0.000329049 2.87139e-21)
(1.59533 -3.9682e-05 6.95016e-06)
(1.59523 0.000457878 2.37868e-07)
(1.64285 -5.17629e-05 6.92552e-06)
(1.64276 -0.000416921 8.3781e-22)
(1.69194 -3.83266e-05 6.69979e-06)
(1.69184 0.000647217 7.61992e-07)
(1.74245 -5.42002e-05 6.82912e-06)
(1.74236 -0.000710484 0)
(1.79416 -3.65523e-05 6.58387e-06)
(1.79406 0.000978524 1.00022e-06)
(1.84688 -5.70784e-05 6.79421e-06)
(1.84678 -0.00108503 -1.87835e-21)
(1.90071 -3.43413e-05 6.61972e-06)
(1.9006 0.00131787 8.59799e-07)
(1.95623 -6.03443e-05 6.81367e-06)
(1.95612 -0.0013935 0)
(2.01472 -3.16799e-05 6.76204e-06)
(2.01461 0.00154943 4.67786e-07)
(2.07815 -6.39896e-05 6.87354e-06)
(2.07803 -0.0015489 6.48414e-10)
(2.14898 -2.85671e-05 6.87105e-06)
(2.14885 0.00168155 3.40113e-07)
(2.22979 -6.81236e-05 6.96431e-06)
(2.22964 -0.00165648 7.83134e-22)
(2.32303 -2.49045e-05 6.95505e-06)
(2.32286 0.00180565 4.3473e-07)
(2.43076 -7.28827e-05 7.08623e-06)
(2.43058 -0.00179612 3.64843e-21)
(2.55471 -2.05631e-05 6.66663e-06)
(2.55451 0.00224371 2.2269e-06)
(2.69636 -7.77944e-05 7.26414e-06)
(2.69615 -0.00254018 1.51893e-09)
(2.85682 -1.54875e-05 7.31278e-06)
(2.8566 0.00269908 5.9169e-07)
(3.03628 -8.26529e-05 7.53741e-06)
(3.03604 -0.00270385 5.96293e-08)
(3.23299 -1.02306e-05 7.65728e-06)
(3.23275 0.00288402 9.96339e-07)
(3.44189 -8.78988e-05 8.07094e-06)
(3.44166 -0.00290746 2.34611e-07)
(3.65307 -6.29544e-06 8.36148e-06)
(3.65287 0.00313132 1.86479e-06)
(3.85091 -9.45009e-05 9.16004e-06)
(3.85075 -0.0032012 5.51926e-07)
(4.01427 -4.91313e-06 9.72875e-06)
(4.01418 0.00348402 3.01268e-06)
(4.11848 -0.000101595 1.10196e-05)
(4.11847 -0.00362425 8.78949e-07)
(4.13895 -4.8572e-06 1.18483e-05)
(4.13904 0.00394766 3.6813e-06)
(4.05582 -0.00010553 1.34173e-05)
(4.05602 -0.00414037 9.4481e-07)
(3.85844 -3.95106e-06 1.42851e-05)
(3.85876 0.00445042 3.12726e-06)
(3.54843 -0.000103862 1.56362e-05)
(3.54888 -0.00462962 5.98018e-07)
(3.14029 -2.80667e-06 1.62621e-05)
(3.14085 0.00487456 1.49218e-06)
(2.6592 -9.85456e-05 1.69967e-05)
(2.65986 -0.00497587 0)
(2.13685 -4.59215e-06 1.72466e-05)
(2.13759 0.00515378 6.69238e-08)
(1.60645 -9.30645e-05 1.70118e-05)
(1.60723 -0.00498341 1.6297e-06)
(1.09813 -1.03525e-05 1.70179e-05)
(1.09892 0.00509212 4.69452e-07)
(0.635804 -8.88692e-05 1.6467e-05)
(0.636565 -0.00489287 2.54156e-06)
(0.235766 -1.80919e-05 1.64017e-05)
(0.236462 0.00496946 5.97107e-07)
(-0.0931145 -8.55169e-05 1.58281e-05)
(-0.0925173 -0.00477781 2.64558e-06)
(-0.348153 -2.53623e-05 1.58007e-05)
(-0.347679 0.00485489 5.6277e-07)
(-0.531142 -8.22654e-05 1.27924e-06)
(-0.530799 -0.000280855 6.33183e-06)
(-0.646735 -3.05301e-05 1.10312e-06)
(-0.646521 0.000333611 6.38322e-07)
(-0.701172 -7.81562e-05 1.01187e-06)
(-0.701079 -0.000170856 1.47094e-06)
(-0.701434 -3.45623e-05 8.43244e-07)
(-0.701452 0.000238416 4.75128e-07)
(-0.654756 -7.44655e-05 7.58242e-07)
(-0.654876 -8.69654e-05 1.1242e-06)
(-0.568368 -3.79075e-05 6.0904e-07)
(-0.568578 0.000167316 3.49973e-07)
(-0.449299 -7.1379e-05 5.33528e-07)
(-0.449588 -2.83395e-05 7.93324e-07)
(-0.304174 -4.06984e-05 4.04626e-07)
(-0.304532 0.00011945 2.40679e-07)
(-0.139055 -6.88234e-05 3.40964e-07)
(-0.139469 8.90859e-06 5.08016e-07)
(0.0407314 -4.30716e-05 2.34255e-07)
(0.0402779 9.07421e-05 1.48386e-07)
(0.23075 -6.66116e-05 1.88426e-07)
(0.230275 2.90646e-05 2.77814e-07)
(0.42751 -4.49644e-05 1.07732e-07)
(0.427028 7.67085e-05 1.91717e-07)
(0.62838 -6.46863e-05 7.81922e-08)
(0.627902 3.72648e-05 2.29483e-07)
(0.831407 -4.64771e-05 1.41854e-08)
(0.83094 7.31715e-05 2.45818e-07)
(1.03505 -6.30321e-05 7.86934e-08)
(1.0346 3.67249e-05 2.43374e-07)
(1.23789 -4.77248e-05 1.25281e-07)
(1.23746 7.21103e-05 2.3972e-07)
(1.43833 -6.16723e-05 2.16659e-07)
(1.43792 3.97148e-05 2.56022e-07)
(1.63437 -4.88389e-05 3.01057e-07)
(1.634 6.94422e-05 2.93528e-07)
(1.82353 -6.06258e-05 4.30273e-07)
(1.82319 4.2164e-05 4.38686e-07)
(2.00273 -4.99006e-05 5.545e-07)
(2.00243 6.70613e-05 5.48109e-07)
(2.16855 -5.98799e-05 7.12564e-07)
(2.16828 4.40977e-05 7.20069e-07)
(2.31734 -5.09166e-05 8.55208e-07)
(2.31712 6.4924e-05 8.49824e-07)
(2.44566 -5.93128e-05 1.01207e-06)
(2.44547 4.56692e-05 1.01877e-06)
(2.55054 -5.18132e-05 1.137e-06)
(2.55039 6.30749e-05 1.13251e-06)
(2.62983 -5.88266e-05 1.2542e-06)
(2.62973 4.70022e-05 1.2602e-06)
(2.68254 -5.24486e-05 1.32742e-06)
(2.68248 6.16317e-05 1.32371e-06)
(2.70889 -5.83085e-05 1.38137e-06)
(2.70886 4.82312e-05 1.38675e-06)
(2.71039 -5.28376e-05 1.39069e-06)
(2.7104 6.05584e-05 1.38766e-06)
(2.68975 -5.77258e-05 1.38361e-06)
(2.68978 4.94082e-05 1.38842e-06)
(2.65061 -5.30803e-05 1.34261e-06)
(2.65066 5.97368e-05 1.34016e-06)
(2.59734 -5.71443e-05 1.29735e-06)
(2.59742 5.0484e-05 1.30165e-06)
(2.53474 -5.32598e-05 1.23494e-06)
(2.53482 5.90678e-05 1.233e-06)
(2.4677 -5.66955e-05 1.18008e-06)
(2.46779 5.13418e-05 1.18393e-06)
(2.40104 -5.34454e-05 1.1207e-06)
(2.40113 5.84678e-05 1.1192e-06)
(2.33924 -5.63858e-05 1.07537e-06)
(2.33932 5.19882e-05 1.07885e-06)
(2.28638 -5.36601e-05 1.03097e-06)
(2.28645 5.79016e-05 1.02985e-06)
(2.24603 -5.61587e-05 1.00199e-06)
(2.24607 5.24907e-05 1.00516e-06)
(2.22114 -5.3871e-05 9.75516e-07)
(2.22116 5.73915e-05 9.7477e-07)
(2.21407 -5.59515e-05 9.65016e-07)
(2.21407 5.29213e-05 9.67961e-07)
(2.22648 -5.40175e-05 9.61207e-07)
(2.22645 5.69894e-05 9.60829e-07)
(2.25923 -5.5775e-05 9.76153e-07)
(2.25917 5.32769e-05 9.7896e-07)
(2.31235 -5.41071e-05 1.00409e-06)
(2.31227 5.66804e-05 1.0041e-06)
(2.38491 -5.55788e-05 1.05887e-06)
(2.38481 5.36145e-05 1.06163e-06)
(2.47498 -5.42609e-05 1.13146e-06)
(2.47485 5.63373e-05 1.13188e-06)
(2.57959 -5.54504e-05 1.23184e-06)
(2.57946 5.38517e-05 1.23465e-06)
(2.69484 -5.43638e-05 1.35409e-06)
(2.6947 5.60699e-05 1.35497e-06)
(2.81597 -5.53738e-05 1.50513e-06)
(2.81584 5.40093e-05 1.50808e-06)
(2.93765 -5.4433e-05 1.68107e-06)
(2.93752 5.58563e-05 1.68242e-06)
(3.05424 -5.52534e-05 1.89176e-06)
(3.05412 5.41867e-05 1.8949e-06)
(3.16021 -5.44263e-05 2.13864e-06)
(3.16011 5.57348e-05 2.14047e-06)
(3.25051 -5.50418e-05 2.43852e-06)
(3.25043 5.44348e-05 2.44187e-06)
(3.321 -5.43356e-05 2.79999e-06)
(3.32095 5.57102e-05 2.80227e-06)
(3.36876 -5.47836e-05 3.24519e-06)
(3.36873 5.47112e-05 3.24876e-06)
(3.39232 -5.42282e-05 3.78642e-06)
(3.39231 5.57122e-05 3.7891e-06)
(3.39179 -5.4638e-05 4.44062e-06)
(3.3918 5.48593e-05 4.44437e-06)
(3.36876 -5.4239e-05 5.21378e-06)
(3.36879 5.56036e-05 5.21678e-06)
(3.32613 -5.4765e-05 6.1044e-06)
(3.32618 5.47207e-05 6.10826e-06)
(3.26778 -5.45642e-05 7.09467e-06)
(3.26783 5.51863e-05 7.09792e-06)
(3.19811 -5.51991e-05 8.15714e-06)
(3.19817 5.42625e-05 8.16109e-06)
(3.12167 -5.52403e-05 9.24158e-06)
(3.12173 5.44217e-05 9.24503e-06)
(3.04266 -5.59378e-05 1.02881e-05)
(3.04273 5.34884e-05 1.02921e-05)
(2.96465 -5.60414e-05 1.12246e-05)
(2.96472 5.35338e-05 1.12282e-05)
(2.8903 -5.66226e-05 1.19815e-05)
(2.89036 5.27581e-05 1.19856e-05)
(2.82124 -5.66334e-05 1.24894e-05)
(2.8213 5.28548e-05 1.24932e-05)
(2.75808 -5.69038e-05 1.26987e-05)
(2.75814 5.24223e-05 1.27029e-05)
(2.70055 -5.66334e-05 1.25788e-05)
(2.7006 5.27663e-05 1.25828e-05)
(2.64762 -5.65094e-05 1.21319e-05)
(2.64767 5.27536e-05 1.21363e-05)
(2.59782 -5.59725e-05 1.13845e-05)
(2.59787 5.3336e-05 1.13888e-05)
(2.54944 -5.55792e-05 1.03918e-05)
(2.54949 5.36121e-05 1.03964e-05)
(2.5008 -5.49611e-05 9.22292e-06)
(2.50085 5.4253e-05 9.22737e-06)
(2.45041 -5.45245e-05 7.9592e-06)
(2.45046 5.45866e-05 7.96393e-06)
(2.39719 -5.40619e-05 6.67652e-06)
(2.39724 5.50536e-05 6.68116e-06)
(2.34049 -5.37508e-05 5.44697e-06)
(2.34055 5.5272e-05 5.45183e-06)
(2.28019 -5.35711e-05 4.32277e-06)
(2.28025 5.54409e-05 4.32756e-06)
(2.21663 -5.34888e-05 3.33877e-06)
(2.2167 5.54376e-05 3.34373e-06)
(2.15056 -5.35207e-05 2.51179e-06)
(2.15063 5.5382e-05 2.51669e-06)
(2.083 -5.36063e-05 1.84276e-06)
(2.08307 5.52153e-05 1.84779e-06)
(2.01519 -5.37517e-05 1.32032e-06)
(2.01526 5.50353e-05 1.32528e-06)
(1.94838 -5.38925e-05 9.25434e-07)
(1.94845 5.48159e-05 1.26713e-06)
(1.88379 -5.40393e-05 6.36256e-07)
(1.88386 5.46248e-05 1.29514e-06)
(1.82247 -5.41625e-05 4.29925e-07)
(1.82253 5.44238e-05 1.32298e-06)
(1.76523 -5.42576e-05 3.22671e-07)
(1.76529 5.42759e-05 1.35163e-06)
(1.71262 -5.43288e-05 3.30755e-07)
(1.71267 5.41264e-05 1.37992e-06)
(1.66486 -5.4382e-05 3.50259e-07)
(1.66491 5.40123e-05 1.40884e-06)
(1.62187 -5.4394e-05 3.57177e-07)
(1.62192 5.39207e-05 1.43722e-06)
(1.58328 -5.44224e-05 3.78967e-07)
(1.58333 5.38237e-05 1.46594e-06)
(1.54844 -5.43822e-05 3.84159e-07)
(1.54848 5.37822e-05 1.49401e-06)
(1.51642 -5.44373e-05 4.08788e-07)
(1.51646 5.36511e-05 1.52205e-06)
(1.48612 -5.43601e-05 4.2366e-07)
(1.48616 5.36445e-05 1.5495e-06)
(1.45623 -5.4311e-05 4.29416e-07)
(1.45627 5.36103e-05 1.57645e-06)
(1.42529 -5.4376e-05 4.52223e-07)
(1.42533 5.34585e-05 1.60302e-06)
(1.39178 -5.42574e-05 4.58742e-07)
(1.39182 5.34868e-05 1.62872e-06)
(1.35413 -5.431e-05 4.81246e-07)
(1.35418 5.33444e-05 1.65432e-06)
(1.31082 -5.42027e-05 4.88954e-07)
(1.31089 5.3354e-05 1.67886e-06)
(1.26048 -5.42426e-05 5.10436e-07)
(1.26055 5.32218e-05 1.70369e-06)
(1.20191 -5.4145e-05 5.19121e-07)
(1.202 5.32138e-05 1.72755e-06)
(1.13427 -5.41738e-05 5.39655e-07)
(1.13437 5.30902e-05 1.75228e-06)
(1.05708 -5.40842e-05 5.49152e-07)
(1.05721 5.30658e-05 1.77643e-06)
(0.970379 -5.41038e-05 5.6889e-07)
(0.970523 5.29493e-05 1.8022e-06)
(0.87471 -5.40206e-05 5.79139e-07)
(0.87488 5.2909e-05 1.82804e-06)
(0.77122 -5.40319e-05 5.98308e-07)
(0.771421 5.27989e-05 1.85638e-06)
(0.661638 -5.39529e-05 6.09321e-07)
(0.661872 5.27439e-05 1.88556e-06)
(0.548247 -5.39574e-05 6.28159e-07)
(0.54852 5.26379e-05 1.91798e-06)
(0.433824 -5.38796e-05 6.39915e-07)
(0.434138 5.25704e-05 1.95184e-06)
(0.321539 -5.38788e-05 6.58544e-07)
(0.321893 5.2466e-05 1.98928e-06)
(0.21482 -5.38008e-05 6.70864e-07)
(0.215207 5.23869e-05 2.02828e-06)
(0.117171 -5.37935e-05 6.89171e-07)
(0.117574 5.22825e-05 2.07052e-06)
(0.0320152 -5.37154e-05 7.01636e-07)
(0.0324055 5.21928e-05 2.11382e-06)
(-0.0375447 -5.37054e-05 7.19249e-07)
(-0.0372106 5.20878e-05 2.15915e-06)
(-0.0889365 -5.36177e-05 7.32406e-07)
(-0.0887007 5.1981e-05 2.20337e-06)
(-0.120251 -5.36102e-05 7.5062e-07)
(-0.120133 5.18753e-05 2.24784e-06)
(-0.130409 -5.35155e-05 7.64315e-07)
(-0.130414 5.17601e-05 2.2908e-06)
(-0.119211 -5.35081e-05 7.82148e-07)
(-0.119338 5.16467e-05 2.3336e-06)
(-0.0873236 -5.3411e-05 7.95479e-07)
(-0.0875634 5.15214e-05 2.37526e-06)
(-0.0362668 -5.33985e-05 8.12336e-07)
(-0.0365956 5.14016e-05 2.41736e-06)
(0.0317369 -5.33046e-05 8.24853e-07)
(0.0313651 5.12711e-05 2.45956e-06)
(0.113934 -5.32827e-05 8.41737e-07)
(0.113563 5.11343e-05 2.50217e-06)
(0.207258 -5.31875e-05 8.56609e-07)
(0.206916 5.0998e-05 2.54476e-06)
(0.308566 -5.31658e-05 8.76436e-07)
(0.308266 5.08494e-05 2.58868e-06)
(0.414738 -5.30677e-05 8.95204e-07)
(0.414484 5.07043e-05 2.63352e-06)
(0.52286 -5.30427e-05 9.19284e-07)
(0.522649 5.0544e-05 2.68022e-06)
(0.630359 -5.29429e-05 9.43008e-07)
(0.630183 5.03905e-05 2.72824e-06)
(0.735018 -5.29172e-05 9.72156e-07)
(0.734873 5.02133e-05 2.77816e-06)
(0.835069 -5.28091e-05 1.00138e-06)
(0.834949 5.00582e-05 2.82921e-06)
(0.929158 -5.27861e-05 1.03592e-06)
(0.929059 4.98594e-05 2.88179e-06)
(1.0163 -5.26703e-05 1.07073e-06)
(1.01622 4.97018e-05 2.93487e-06)
(1.09589 -5.26397e-05 1.11058e-06)
(1.09582 4.9491e-05 2.98883e-06)
(1.16763 -5.25159e-05 1.15071e-06)
(1.16758 4.93304e-05 3.04241e-06)
(1.23147 -5.249e-05 1.1955e-06)
(1.23142 4.90953e-05 3.09613e-06)
(1.28756 -5.23249e-05 1.4982e-06)
(1.28752 4.89644e-05 3.1485e-06)
(1.33622 -5.23198e-05 1.84814e-06)
(1.33618 4.86895e-05 3.20031e-06)
(1.37784 -5.21134e-05 2.24816e-06)
(1.37782 4.85879e-05 3.24983e-06)
(1.41286 -5.21192e-05 2.69314e-06)
(1.41284 4.82841e-05 3.29823e-06)
(1.44166 -5.18742e-05 3.17969e-06)
(1.44165 4.82089e-05 3.34348e-06)
(1.46456 -5.18994e-05 3.6964e-06)
(1.46455 4.78689e-05 3.67205e-06)
(1.48171 -5.16238e-05 4.23487e-06)
(1.4817 4.78122e-05 4.20948e-06)
(1.49308 -5.16596e-05 4.78018e-06)
(1.49307 4.74463e-05 4.75372e-06)
(1.4984 -5.1405e-05 5.31795e-06)
(1.4984 4.73572e-05 5.2906e-06)
(1.49721 -5.14133e-05 5.83925e-06)
(1.49721 4.7005e-05 5.81104e-06)
(1.48883 -5.12231e-05 6.32714e-06)
(1.48884 4.68408e-05 6.29827e-06)
(1.47246 -5.12068e-05 6.7808e-06)
(1.47247 4.65009e-05 6.75136e-06)
(1.44722 -5.10599e-05 7.19304e-06)
(1.44723 4.62834e-05 7.16327e-06)
(1.41229 -5.10443e-05 7.56843e-06)
(1.41231 4.59319e-05 7.5385e-06)
(1.36701 -5.09232e-05 7.91226e-06)
(1.36703 4.56791e-05 7.88245e-06)
(1.31097 -5.09089e-05 8.23818e-06)
(1.311 4.5316e-05 8.20871e-06)
(1.24414 -5.07692e-05 8.56137e-06)
(1.24418 4.50722e-05 8.53255e-06)
(1.16696 -5.0784e-05 8.89406e-06)
(1.167 4.46696e-05 8.86617e-06)
(1.08035 -5.05695e-05 9.2572e-06)
(1.08041 4.44895e-05 9.23052e-06)
(0.985794 -5.06411e-05 9.65331e-06)
(0.98586 4.40179e-05 9.62812e-06)
(0.885299 -5.03349e-05 1.01002e-05)
(0.885374 4.39159e-05 1.00767e-05)
(0.781379 -5.04437e-05 1.05915e-05)
(0.781464 4.33915e-05 1.057e-05)
(0.676974 -5.00806e-05 1.11295e-05)
(0.677067 4.33287e-05 1.11102e-05)
(0.575368 -5.0202e-05 1.17006e-05)
(0.575468 4.27716e-05 1.16835e-05)
(0.480027 -4.98255e-05 1.22911e-05)
(0.480132 4.26993e-05 1.22761e-05)
(0.394448 -4.99506e-05 1.28831e-05)
(0.394553 4.21131e-05 1.28703e-05)
(0.321939 -4.95491e-05 1.34561e-05)
(0.322037 4.20377e-05 1.34452e-05)
(0.265326 -4.97817e-05 1.39821e-05)
(0.265405 4.13135e-05 1.39729e-05)
(0.226768 -4.92305e-05 1.44644e-05)
(0.226819 4.1355e-05 1.44563e-05)
(0.207482 -4.96843e-05 1.48634e-05)
(0.207499 4.03755e-05 1.48561e-05)
(0.207605 -4.89087e-05 1.52094e-05)
(0.207587 4.06063e-05 1.52022e-05)
(0.226123 -4.95983e-05 1.54702e-05)
(0.226076 3.93551e-05 1.54624e-05)
(0.260874 -4.86304e-05 1.56897e-05)
(0.260809 3.97426e-05 1.56807e-05)
(0.308804 -4.94796e-05 1.58608e-05)
(0.30873 3.82961e-05 1.585e-05)
(0.366194 -4.83256e-05 1.60259e-05)
(0.366121 3.88344e-05 1.60128e-05)
(0.428979 -4.93423e-05 1.61763e-05)
(0.428913 3.71854e-05 1.61605e-05)
(0.49305 -4.79886e-05 1.63529e-05)
(0.492992 3.78889e-05 1.63341e-05)
(0.55458 -4.91839e-05 1.65388e-05)
(0.554533 3.60273e-05 1.65169e-05)
(0.610299 -4.75862e-05 1.67693e-05)
(0.610262 3.69415e-05 1.67443e-05)
(0.657657 -4.90602e-05 1.70044e-05)
(0.657629 3.47685e-05 1.69765e-05)
(0.695006 -4.71037e-05 1.72924e-05)
(0.694987 3.60101e-05 1.72619e-05)
(0.721615 -4.89611e-05 1.75642e-05)
(0.721603 3.34233e-05 1.75315e-05)
(0.737625 -4.66081e-05 1.78771e-05)
(0.737619 3.50327e-05 1.78426e-05)
(0.743966 -4.89082e-05 1.81576e-05)
(0.743965 3.19757e-05 1.81218e-05)
(0.742221 -4.60664e-05 1.8481e-05)
(0.742223 3.4048e-05 1.84444e-05)
(0.734401 -4.89242e-05 1.87558e-05)
(0.734406 3.04089e-05 1.87187e-05)
(0.722736 -4.5493e-05 1.9083e-05)
(0.722742 3.30477e-05 1.90458e-05)
(0.709462 -4.89958e-05 1.93567e-05)
(0.709469 2.87418e-05 1.93195e-05)
(0.696609 -4.49056e-05 1.96974e-05)
(0.696615 3.20191e-05 1.96602e-05)
(0.685916 -4.91105e-05 1.99903e-05)
(0.68592 2.69917e-05 1.99531e-05)
(0.678738 -4.42464e-05 2.037e-05)
(0.67874 3.10249e-05 2.03329e-05)
(0.675946 -4.93189e-05 2.06871e-05)
(0.675946 2.51137e-05 2.06497e-05)
(0.677963 -4.35273e-05 2.11113e-05)
(0.677961 3.00597e-05 2.10734e-05)
(0.684847 -4.95932e-05 2.14617e-05)
(0.684842 2.31426e-05 2.14232e-05)
(0.696346 -4.27362e-05 2.19306e-05)
(0.69634 2.91433e-05 2.18911e-05)
(0.711959 -4.99718e-05 2.22974e-05)
(0.711952 2.10488e-05 2.22567e-05)
(0.731009 -4.18904e-05 2.27921e-05)
(0.731 2.82681e-05 2.27501e-05)
(0.752704 -5.0474e-05 2.3159e-05)
(0.752696 1.88234e-05 2.31155e-05)
(0.77626 -4.09478e-05 2.36741e-05)
(0.776251 2.74869e-05 2.36289e-05)
(0.800843 -5.11381e-05 2.40223e-05)
(0.800835 1.64395e-05 2.39754e-05)
(0.825633 -3.9936e-05 2.45421e-05)
(0.825625 2.67842e-05 2.44934e-05)
(0.849838 -5.19164e-05 2.48688e-05)
(0.849831 1.39573e-05 2.48184e-05)
(0.872642 -3.89107e-05 2.53785e-05)
(0.872636 2.61168e-05 2.53264e-05)
(0.893354 -5.27819e-05 2.56803e-05)
(0.893349 1.14165e-05 2.56268e-05)
(0.911354 -3.7839e-05 2.6173e-05)
(0.91135 2.55303e-05 2.61179e-05)
(0.926102 -5.38286e-05 2.64178e-05)
(0.926099 8.73658e-06 2.63616e-05)
(0.937279 -3.6686e-05 2.68827e-05)
(0.937277 2.50728e-05 2.68253e-05)
(0.944831 -5.50264e-05 2.7059e-05)
(0.94483 5.96039e-06 2.70011e-05)
(0.948921 -3.5496e-05 2.74663e-05)
(0.948921 2.47121e-05 2.74075e-05)
(0.949919 -5.64108e-05 2.75438e-05)
(0.94992 3.06431e-06 2.7485e-05)
(0.948384 -3.42603e-05 2.78816e-05)
(0.948384 2.44677e-05 2.78222e-05)
(0.945023 -5.79725e-05 2.78582e-05)
(0.945023 6.86119e-08 2.77993e-05)
(0.940573 -3.29847e-05 2.81279e-05)
(0.940574 2.43431e-05 2.80684e-05)
(0.935665 -5.97509e-05 2.80066e-05)
(0.935666 -3.05695e-06 2.79479e-05)
(0.930805 -3.16511e-05 2.82361e-05)
(0.930806 2.43653e-05 2.81768e-05)
(0.92629 -6.17251e-05 2.80551e-05)
(0.926291 -6.28245e-06 2.79967e-05)
(0.922142 -3.03014e-05 2.82802e-05)
(0.922142 2.45006e-05 2.82207e-05)
(0.918235 -6.38594e-05 2.80931e-05)
(0.918235 -9.56243e-06 2.80347e-05)
(0.914285 -2.89168e-05 2.83627e-05)
(0.914286 2.4777e-05 2.83029e-05)
(0.909883 -6.62022e-05 2.8195e-05)
(0.909883 -1.29349e-05 2.81367e-05)
(0.904692 -2.74674e-05 2.85397e-05)
(0.904693 2.52342e-05 2.84795e-05)
(0.898462 -6.87443e-05 2.83997e-05)
(0.898463 -1.6379e-05 2.83415e-05)
(0.891076 -2.60004e-05 2.8796e-05)
(0.891077 2.58355e-05 2.87354e-05)
(0.88263 -7.14713e-05 2.86494e-05)
(0.882632 -1.98677e-05 2.85916e-05)
(0.873392 -2.4546e-05 2.90394e-05)
(0.873393 2.65613e-05 2.89783e-05)
(0.863811 -7.43978e-05 2.88151e-05)
(0.863813 -2.34025e-05 2.87577e-05)
(0.854429 -2.31347e-05 2.91212e-05)
(0.85443 2.73923e-05 2.90595e-05)
(0.845901 -7.75306e-05 2.87475e-05)
(0.845902 -2.69753e-05 2.86907e-05)
(0.83889 -2.1779e-05 2.89068e-05)
(0.83889 2.83287e-05 2.88439e-05)
(0.833912 -8.09052e-05 2.83287e-05)
(0.833912 -3.06047e-05 2.8272e-05)
(0.831411 -2.04897e-05 2.83184e-05)
(0.831411 2.93747e-05 2.82533e-05)
(0.83172 -8.45079e-05 2.75437e-05)
(0.83172 -3.42553e-05 2.74864e-05)
(0.834949 -1.92815e-05 2.73898e-05)
(0.834948 3.05347e-05 2.73211e-05)
(0.840997 -8.83304e-05 2.64598e-05)
(0.840996 -3.7891e-05 2.64011e-05)
(0.849636 -1.82129e-05 2.62063e-05)
(0.849635 3.17752e-05 2.61322e-05)
(0.860512 -9.2349e-05 2.51958e-05)
(0.860511 -4.14513e-05 2.51347e-05)
(0.873164 -1.72969e-05 2.49204e-05)
(0.873162 3.31155e-05 2.48387e-05)
(0.887071 -9.6579e-05 2.38963e-05)
(0.887069 -4.49045e-05 2.38321e-05)
(0.901703 -1.65974e-05 2.36521e-05)
(0.901701 3.45325e-05 2.35606e-05)
(0.916498 -0.000101016 2.26771e-05)
(0.916496 -4.81859e-05 2.26094e-05)
(0.930956 -1.61626e-05 2.25135e-05)
(0.930954 3.60276e-05 2.24096e-05)
(0.944677 -0.000105679 2.16286e-05)
(0.944675 -5.12407e-05 2.15575e-05)
(0.957302 -1.60596e-05 2.15708e-05)
(0.9573 3.7593e-05 2.14516e-05)
(0.968594 -0.000110588 2.07996e-05)
(0.968593 -5.39982e-05 2.07257e-05)
(0.978519 -1.63426e-05 2.08585e-05)
(0.978518 3.92445e-05 2.07202e-05)
(0.987146 -0.000115765 2.01928e-05)
(0.987145 -5.63694e-05 2.01172e-05)
(0.994696 -1.70903e-05 2.03226e-05)
(0.994695 4.09842e-05 2.01604e-05)
(1.00154 -0.000121248 1.9683e-05)
(1.00154 -5.82613e-05 1.96076e-05)
(1.00818 -1.84008e-05 1.97626e-05)
(1.00818 4.28084e-05 1.95699e-05)
(1.01525 -0.000127068 2.07384e-05)
(1.01525 -5.95475e-05 1.89229e-05)
(1.02358 -2.04098e-05 1.88175e-05)
(1.02358 4.46959e-05 1.85845e-05)
(1.03429 -0.000133291 2.26055e-05)
(1.03429 -6.00952e-05 1.76238e-05)
(1.04885 -2.32681e-05 1.69973e-05)
(1.04885 4.66272e-05 1.67091e-05)
(1.06953 -0.000114686 1.5265e-05)
(1.06953 -5.98295e-05 1.52018e-05)
(1.10035 -1e-06 1.37811e-05)
(1.10035 4.90688e-05 1.35541e-05)
(1.1489 -9.46874e-05 1.13588e-05)
(1.1489 -5.92188e-05 1.13065e-05)
(1.2287 2.26492e-05 9.01509e-06)
(1.2287 5.20248e-05 8.8552e-06)
(1.36518 -7.29346e-05 5.99007e-06)
(1.36518 -5.83397e-05 5.95585e-06)
(1.68655 4.78367e-05 2.9123e-06)
(1.68655 5.50709e-05 2.83791e-06)
(0.0209647 -1.38435e-05 -5.68467e-08)
(0.0209824 -2.47858e-05 -0.000344119)
(0.0629428 1.14737e-05 -1.47911e-08)
(0.0629959 -6.93713e-06 -0.000520099)
(0.105331 2.07672e-05 -4.58125e-09)
(0.105418 -1.77002e-05 -0.000467532)
(0.14813 2.71694e-05 -3.59424e-09)
(0.14825 -2.70694e-05 -0.000321445)
(0.191344 3.1568e-05 -1.28778e-09)
(0.191494 -3.16721e-05 -0.000184791)
(0.234971 3.40949e-05 -2.66668e-10)
(0.235148 -3.40376e-05 -0.000109297)
(0.278969 3.56587e-05 -1.11748e-10)
(0.279168 -3.55966e-05 -7.1541e-05)
(0.323262 3.67719e-05 -1.00389e-11)
(0.323481 -3.67532e-05 -5.13053e-05)
(0.367772 3.7643e-05 -1.27447e-10)
(0.368005 -3.75295e-05 -3.93577e-05)
(0.41248 3.82887e-05 -3.9906e-11)
(0.412724 -3.83181e-05 -3.16936e-05)
(0.457439 3.89105e-05 -1.15062e-10)
(0.457691 -3.87542e-05 -2.6449e-05)
(0.50265 3.93311e-05 -6.73428e-22)
(0.502906 -3.94012e-05 -2.26764e-05)
(0.548115 3.98601e-05 -3.83525e-11)
(0.548373 -3.96685e-05 -1.9855e-05)
(0.593868 5.44156e-05 -5.5831e-08)
(0.594124 -4.01674e-05 -1.76678e-05)
(0.639865 1.1787e-05 -1.70688e-19)
(0.640118 -4.04003e-05 -1.59609e-05)
(0.685979 9.10719e-05 -1.03567e-07)
(0.686225 -4.08165e-05 -1.45573e-05)
(0.732029 -3.41266e-05 -1.27529e-09)
(0.732268 -4.13716e-05 -1.34439e-05)
(0.777834 0.000121868 -5.73928e-08)
(0.778064 -4.1273e-05 -1.24959e-05)
(0.823346 -5.03437e-05 -1.78393e-09)
(0.823567 -4.19545e-05 -1.17101e-05)
(0.868742 0.000139297 -5.6952e-08)
(0.868952 -4.15833e-05 -1.1029e-05)
(0.914276 -6.67874e-05 -1.30454e-09)
(0.914476 -4.2664e-05 -1.04568e-05)
(0.960088 0.000156719 -5.53373e-08)
(0.960278 -4.18535e-05 -9.94921e-06)
(1.00615 -8.33295e-05 4.4429e-19)
(1.00633 -4.32875e-05 -9.51975e-06)
(1.05237 0.000200532 -1.65611e-07)
(1.05254 -4.19574e-05 -9.10598e-06)
(1.09866 -0.000153 -2.20813e-21)
(1.09882 -4.40472e-05 -8.80534e-06)
(1.14496 0.000261216 -1.43718e-07)
(1.14511 -4.21007e-05 -8.49015e-06)
(1.19117 -0.000205248 -3.6111e-09)
(1.19131 -4.49779e-05 -8.25965e-06)
(1.23718 0.000302679 -1.06763e-07)
(1.23732 -4.2102e-05 -8.0245e-06)
(1.28284 -0.000235354 -6.26758e-09)
(1.28297 -4.59366e-05 -7.84164e-06)
(1.32799 0.000334255 -1.10895e-07)
(1.32811 -4.18762e-05 -7.65619e-06)
(1.37254 -0.000266844 -5.58043e-09)
(1.37266 -4.70172e-05 -7.5171e-06)
(1.41657 0.000366502 -1.05852e-07)
(1.41668 -4.14419e-05 -7.36847e-06)
(1.46036 -0.000298204 -2.47041e-09)
(1.46047 -4.82857e-05 -7.26087e-06)
(1.50439 0.000398384 -9.87267e-08)
(1.5045 -4.07196e-05 -7.14024e-06)
(1.5492 -0.000328872 -1.99723e-19)
(1.5493 -4.98207e-05 -7.05731e-06)
(1.59523 0.000458054 -2.37868e-07)
(1.59532 -3.96999e-05 -6.9279e-06)
(1.64275 -0.000416742 -4.74759e-21)
(1.64285 -5.17844e-05 -6.90356e-06)
(1.69184 0.000647396 -7.61996e-07)
(1.69194 -3.83442e-05 -6.67808e-06)
(1.74236 -0.000710305 -7.67263e-20)
(1.74245 -5.42225e-05 -6.80764e-06)
(1.79406 0.000978707 -1.00022e-06)
(1.79416 -3.65695e-05 -6.5626e-06)
(1.84678 -0.00108485 -8.05006e-22)
(1.84688 -5.71017e-05 -6.77312e-06)
(1.9006 0.00131806 -8.59811e-07)
(1.9007 -3.43578e-05 -6.59878e-06)
(1.95612 -0.00139333 -3.54528e-18)
(1.95623 -6.03687e-05 -6.79286e-06)
(2.01461 0.00154964 -4.67849e-07)
(2.01472 -3.16957e-05 -6.74135e-06)
(2.07803 -0.00154875 -6.47527e-10)
(2.07815 -6.40153e-05 -6.85292e-06)
(2.14884 0.00168177 -3.40114e-07)
(2.14898 -2.85819e-05 -6.8505e-06)
(2.22964 -0.00165633 -1.04418e-21)
(2.22979 -6.81506e-05 -6.94381e-06)
(2.32286 0.00180585 -4.3461e-07)
(2.32303 -2.49181e-05 -6.93455e-06)
(2.43058 -0.00179593 -4.69084e-21)
(2.43076 -7.29115e-05 -7.06576e-06)
(2.55451 0.00224406 -2.22787e-06)
(2.55471 -2.05754e-05 -6.6464e-06)
(2.69615 -0.00254032 -1.50623e-09)
(2.69636 -7.7825e-05 -7.24364e-06)
(2.8566 0.0026996 -5.91689e-07)
(2.85682 -1.54983e-05 -7.29224e-06)
(3.03604 -0.00270399 -5.96185e-08)
(3.03628 -8.26853e-05 -7.51681e-06)
(3.23275 0.00288456 -9.96341e-07)
(3.23299 -1.02399e-05 -7.6366e-06)
(3.44166 -0.00290762 -2.34607e-07)
(3.44189 -8.79331e-05 -8.05015e-06)
(3.65287 0.00313187 -1.86479e-06)
(3.65307 -6.30324e-06 -8.34057e-06)
(3.85075 -0.00320137 -5.51928e-07)
(3.85091 -9.4537e-05 -9.13899e-06)
(4.01418 0.00348458 -3.01269e-06)
(4.01428 -4.91961e-06 -9.70754e-06)
(4.11847 -0.00362442 -8.78953e-07)
(4.11849 -0.000101633 -1.09982e-05)
(4.13905 0.00394824 -3.68131e-06)
(4.13896 -4.86257e-06 -1.18268e-05)
(4.05602 -0.00414055 -9.44807e-07)
(4.05582 -0.000105569 -1.33955e-05)
(3.85877 0.00445101 -3.12726e-06)
(3.85844 -3.9556e-06 -1.42631e-05)
(3.54888 -0.00462981 -5.98009e-07)
(3.54844 -0.000103903 -1.56141e-05)
(3.14086 0.00487517 -1.49217e-06)
(3.14029 -2.81073e-06 -1.62396e-05)
(2.65987 -0.00497608 -3.80622e-18)
(2.65921 -9.85865e-05 -1.6974e-05)
(2.1376 0.0051544 -6.69293e-08)
(2.13686 -4.59603e-06 -1.72235e-05)
(1.60723 -0.00498362 -1.6297e-06)
(1.60645 -9.31058e-05 -1.69882e-05)
(1.09892 0.00509275 -4.69439e-07)
(1.09813 -1.03565e-05 -1.69938e-05)
(0.636571 -0.00489309 -2.54154e-06)
(0.635807 -8.89108e-05 -1.64423e-05)
(0.236468 0.00497011 -5.97081e-07)
(0.235769 -1.80962e-05 -1.63764e-05)
(-0.0925125 -0.00477804 -2.64555e-06)
(-0.0931123 -8.55585e-05 -1.5802e-05)
(-0.347675 0.00485555 -5.62746e-07)
(-0.348152 -2.53673e-05 -1.57739e-05)
(-0.530796 -0.00027903 -6.35512e-06)
(-0.531141 -8.23069e-05 -1.27923e-06)
(-0.646519 0.000332194 -6.38334e-07)
(-0.646735 -3.05356e-05 -1.10309e-06)
(-0.701078 -0.00016898 -1.47096e-06)
(-0.701172 -7.81976e-05 -1.01186e-06)
(-0.701452 0.000236953 -4.75152e-07)
(-0.701433 -3.45681e-05 -8.43222e-07)
(-0.654876 -8.50381e-05 -1.12423e-06)
(-0.654756 -7.4507e-05 -7.58229e-07)
(-0.568579 0.000165807 -3.49992e-07)
(-0.568368 -3.79135e-05 -6.0902e-07)
(-0.44959 -2.63583e-05 -7.93335e-07)
(-0.449299 -7.14208e-05 -5.33514e-07)
(-0.304534 0.000117893 -2.4068e-07)
(-0.304174 -4.07045e-05 -4.04606e-07)
(-0.139471 1.0945e-05 -5.08009e-07)
(-0.139056 -6.88656e-05 -3.40951e-07)
(0.040275 8.91371e-05 -1.4837e-07)
(0.0407307 -4.30778e-05 -2.34234e-07)
(0.230272 3.11575e-05 -2.77794e-07)
(0.230749 -6.66539e-05 -1.88414e-07)
(0.427025 7.50542e-05 -7.69349e-08)
(0.427509 -4.49712e-05 -1.07709e-07)
(0.627899 3.9415e-05 -1.10506e-07)
(0.628379 -6.47285e-05 -7.81819e-08)
(0.830937 7.14667e-05 -6.62404e-08)
(0.831406 -4.64847e-05 -1.41615e-08)
(1.0346 3.89354e-05 -8.78226e-08)
(1.03505 -6.3074e-05 -7.87153e-08)
(1.23746 7.04938e-05 -1.17824e-07)
(1.23789 -4.77331e-05 -1.25293e-07)
(1.43792 4.17028e-05 -2.24617e-07)
(1.43832 -6.17144e-05 -2.16679e-07)
(1.634 6.80673e-05 -2.9503e-07)
(1.63437 -4.88475e-05 -3.01072e-07)
(1.82318 4.39153e-05 -4.37158e-07)
(1.82352 -6.06687e-05 -4.30288e-07)
(2.00243 6.59386e-05 -5.49634e-07)
(2.00273 -4.99088e-05 -5.54519e-07)
(2.16828 4.56074e-05 -7.18541e-07)
(2.16855 -5.99244e-05 -7.12575e-07)
(2.31711 6.40554e-05 -8.51325e-07)
(2.31734 -5.09237e-05 -8.55231e-07)
(2.44547 4.69411e-05 -1.01729e-06)
(2.44566 -5.93597e-05 -1.01207e-06)
(2.55039 6.24538e-05 -1.13394e-06)
(2.55053 -5.18185e-05 -1.13703e-06)
(2.62973 4.80481e-05 -1.25881e-06)