/*--------------------------------*- C++ -*----------------------------------*\
| =========                 |                                                 |
| \\      /  F ield         | OpenFOAM: The Open Source CFD Toolbox           |
|  \\    /   O peration     | Version:  2106                                  |
|   \\  /    A nd           | Website:  www.openfoam.com                      |
|    \\/     M anipulation  |                                                 |
\*---------------------------------------------------------------------------*/
FoamFile
{
    version     2.0;
    format      ascii;
    arch        "LSB;label=32;scalar=64";
    class       volScalarField;
    location    "18000";
    object      p;
}
// * * * * * * * * * * * * * * * * * * * * * * * * * * * * * * * * * * * * * //

dimensions      [0 2 -2 0 0 0 0];

internalField   nonuniform List<scalar> 
2560
(
1.79905e-16
1.62198e-14
3.8023e-16
1.62195e-14
4.15045e-16
1.62189e-14
4.08149e-16
1.62181e-14
4.09792e-16
1.6217e-14
4.15536e-16
1.62157e-14
4.21101e-16
1.6214e-14
4.26571e-16
1.62121e-14
4.3254e-16
1.62099e-14
4.39238e-16
1.62073e-14
4.46678e-16
1.62045e-14
4.549e-16
1.62015e-14
4.64007e-16
1.61981e-14
4.74078e-16
1.61945e-14
4.85075e-16
1.61905e-14
4.97021e-16
1.61864e-14
5.0996e-16
1.6182e-14
5.23828e-16
1.61773e-14
5.38688e-16
1.61724e-14
5.5466e-16
1.61673e-14
5.71676e-16
1.61618e-14
5.89698e-16
1.6156e-14
6.08622e-16
1.615e-14
6.28753e-16
1.61437e-14
6.49794e-16
1.61372e-14
6.71532e-16
1.61303e-14
6.94015e-16
1.61234e-14
7.17673e-16
1.61163e-14
7.42447e-16
1.61093e-14
7.67939e-16
1.61019e-14
7.94466e-16
1.6094e-14
8.21943e-16
1.60855e-14
8.50458e-16
1.60767e-14
8.80107e-16
1.60676e-14
9.10798e-16
1.60583e-14
9.42329e-16
1.60488e-14
9.74789e-16
1.60387e-14
1.00849e-15
1.6028e-14
1.04356e-15
1.6017e-14
1.07943e-15
1.60055e-14
1.11633e-15
1.59937e-14
1.154e-15
1.59818e-14
1.19293e-15
1.59702e-14
1.23285e-15
1.59584e-14
1.27351e-15
1.59462e-14
1.3154e-15
1.59341e-14
1.35853e-15
1.59218e-14
1.40289e-15
1.591e-14
1.44764e-15
1.58983e-14
1.49304e-15
1.58868e-14
1.53991e-15
1.58753e-14
1.58709e-15
1.58639e-14
1.63513e-15
1.58523e-14
1.68402e-15
1.58407e-14
1.73311e-15
1.58299e-14
1.7833e-15
1.58195e-14
1.83426e-15
1.58096e-14
1.88726e-15
1.57992e-14
1.94066e-15
1.57888e-14
1.99377e-15
1.57788e-14
2.04787e-15
1.57695e-14
2.10363e-15
1.57608e-14
2.16e-15
1.57515e-14
2.21659e-15
1.57431e-14
2.27373e-15
1.57355e-14
2.33102e-15
1.57283e-14
2.3884e-15
1.57216e-14
2.4462e-15
1.5715e-14
2.50511e-15
1.57086e-14
2.56586e-15
1.57023e-14
2.62578e-15
1.56959e-14
2.68596e-15
1.56893e-14
2.74674e-15
1.56819e-14
2.80884e-15
1.56755e-14
2.87107e-15
1.56699e-14
2.93376e-15
1.56642e-14
2.99688e-15
1.56566e-14
3.06118e-15
1.56489e-14
3.12581e-15
1.56426e-14
3.1899e-15
1.56376e-14
3.25338e-15
1.56332e-14
3.31785e-15
1.56252e-14
3.38243e-15
1.56171e-14
3.44707e-15
1.56087e-14
3.51169e-15
1.56028e-14
3.5771e-15
1.5596e-14
3.63979e-15
1.55908e-14
3.70314e-15
1.55822e-14
3.76708e-15
1.55754e-14
3.83069e-15
1.55704e-14
3.89388e-15
1.55648e-14
3.95659e-15
1.55584e-14
4.01784e-15
1.5555e-14
4.07934e-15
1.55528e-14
4.14285e-15
1.55492e-14
4.20465e-15
1.55442e-14
4.26833e-15
1.55453e-14
4.33012e-15
1.55497e-14
4.38899e-15
1.5552e-14
4.45044e-15
1.55513e-14
4.51347e-15
1.55514e-14
4.578e-15
1.55524e-14
4.64112e-15
1.55524e-14
4.70558e-15
1.55554e-14
4.7713e-15
1.55604e-14
4.83724e-15
1.55628e-14
4.90426e-15
1.55665e-14
4.9713e-15
1.55696e-14
5.03924e-15
1.55703e-14
5.10798e-15
1.55726e-14
5.17939e-15
1.55745e-14
5.24945e-15
1.55772e-14
5.32e-15
1.55768e-14
5.39194e-15
1.55763e-14
5.46416e-15
1.55768e-14
5.53657e-15
1.55785e-14
5.60903e-15
1.55795e-14
5.68244e-15
1.55818e-14
5.75163e-15
1.55835e-14
5.82252e-15
1.55869e-14
5.89705e-15
1.55858e-14
5.96489e-15
1.55885e-14
6.03406e-15
1.55892e-14
6.10443e-15
1.55898e-14
6.17587e-15
1.55905e-14
6.24412e-15
1.55957e-14
6.31315e-15
1.56033e-14
6.38281e-15
1.56094e-14
6.45295e-15
1.5614e-14
6.52133e-15
1.56216e-14
6.58988e-15
1.56323e-14
6.65423e-15
1.56504e-14
6.72468e-15
1.56698e-14
6.79266e-15
1.56824e-14
6.85799e-15
1.56987e-14
6.92468e-15
1.57127e-14
6.99044e-15
1.57244e-14
7.05507e-15
1.57342e-14
7.12685e-15
1.57549e-14
7.19711e-15
1.57676e-14
7.2635e-15
1.57704e-14
7.33435e-15
1.57783e-14
7.40304e-15
1.57937e-14
7.4715e-15
1.57998e-14
7.53951e-15
1.58074e-14
7.60469e-15
1.58188e-14
7.66681e-15
1.58323e-14
7.72776e-15
1.58458e-14
7.78943e-15
1.58553e-14
7.84942e-15
1.58654e-14
7.90962e-15
1.58742e-14
7.97408e-15
1.58841e-14
8.0382e-15
1.58996e-14
8.10389e-15
1.59104e-14
8.16e-15
1.59165e-14
8.21708e-15
1.5914e-14
8.27702e-15
1.59097e-14
8.34169e-15
1.59168e-14
8.40864e-15
1.59248e-14
8.46886e-15
1.59209e-14
8.51768e-15
1.59229e-14
8.55475e-15
1.59267e-14
8.59709e-15
1.59326e-14
8.64867e-15
1.59368e-14
8.69168e-15
1.5935e-14
8.74317e-15
1.59322e-14
8.7984e-15
1.59286e-14
8.84828e-15
1.59246e-14
8.90113e-15
1.59206e-14
8.95222e-15
1.59212e-14
9.00551e-15
1.59269e-14
9.06494e-15
1.59294e-14
9.12575e-15
1.59159e-14
9.18322e-15
1.58999e-14
9.2413e-15
1.58817e-14
9.29527e-15
1.58487e-14
9.34912e-15
1.58097e-14
9.40685e-15
1.57739e-14
9.4594e-15
1.57416e-14
9.51074e-15
1.57129e-14
9.56047e-15
1.56797e-14
9.60384e-15
1.56421e-14
9.64044e-15
1.56092e-14
9.68287e-15
1.5577e-14
9.72634e-15
1.55328e-14
9.77479e-15
1.54769e-14
9.81919e-15
1.5414e-14
9.8592e-15
1.53528e-14
9.90312e-15
1.52936e-14
9.94192e-15
1.52366e-14
9.97956e-15
1.51907e-14
1.00199e-14
1.51344e-14
1.00583e-14
1.50767e-14
1.0103e-14
1.50307e-14
1.0145e-14
1.49924e-14
1.01925e-14
1.49232e-14
1.02408e-14
1.48619e-14
1.02854e-14
1.48259e-14
1.03345e-14
1.47895e-14
1.03834e-14
1.47359e-14
1.0436e-14
1.46952e-14
1.04706e-14
1.4659e-14
1.05167e-14
1.46233e-14
1.05653e-14
1.45797e-14
1.0616e-14
1.45285e-14
1.06687e-14
1.44781e-14
1.0723e-14
1.4437e-14
1.07787e-14
1.43967e-14
1.08356e-14
1.43488e-14
1.0885e-14
1.431e-14
1.0935e-14
1.42888e-14
1.09853e-14
1.42431e-14
1.1044e-14
1.41729e-14
1.10946e-14
1.4128e-14
1.11535e-14
1.40998e-14
1.1212e-14
1.4088e-14
1.12698e-14
1.40675e-14
1.13269e-14
1.403e-14
1.13831e-14
1.40001e-14
1.14382e-14
1.3994e-14
1.14918e-14
1.39702e-14
1.1552e-14
1.39369e-14
1.16105e-14
1.39266e-14
1.1667e-14
1.3939e-14
1.17211e-14
1.39171e-14
1.17807e-14
1.3877e-14
1.18379e-14
1.38588e-14
1.18927e-14
1.38458e-14
1.19531e-14
1.3846e-14
1.20108e-14
1.38347e-14
1.20659e-14
1.38038e-14
1.21264e-14
1.37926e-14
1.21847e-14
1.38168e-14
1.22481e-14
1.38045e-14
1.23012e-14
1.37871e-14
1.236e-14
1.37956e-14
1.24165e-14
1.37981e-14
1.24785e-14
1.37943e-14
1.25305e-14
1.37915e-14
1.25881e-14
1.37889e-14
1.26592e-14
1.37859e-14
1.27288e-14
1.37581e-14
1.27975e-14
1.37352e-14
1.28587e-14
1.37232e-14
1.29128e-14
1.37362e-14
1.29827e-14
1.37275e-14
1.30537e-14
1.37111e-14
1.31273e-14
1.36701e-14
1.31602e-14
1.36474e-14
1.32134e-14
1.36414e-14
1.32725e-14
1.36356e-14
1.33241e-14
1.36432e-14
1.3369e-14
1.36481e-14
1.34229e-14
1.36493e-14
1.34722e-14
1.36598e-14
1.35173e-14
1.36196e-14
1.35457e-14
1.36143e-14
1.35581e-14
1.36567e-14
1.3582e-14
1.36893e-14
1.36029e-14
1.37126e-14
1.3621e-14
1.3741e-14
1.36499e-14
1.37462e-14
1.36333e-14
1.37563e-14
1.36835e-14
1.37723e-14
1.37163e-14
1.38068e-14
1.37598e-14
1.38315e-14
1.37584e-14
1.38181e-14
1.37952e-14
1.37938e-14
1.3858e-14
1.37974e-14
1.38937e-14
1.38123e-14
1.39036e-14
1.38368e-14
1.38737e-14
1.38438e-14
1.38694e-14
1.38345e-14
1.39039e-14
1.38755e-14
1.39498e-14
1.39524e-14
1.3979e-14
1.40132e-14
1.40032e-14
1.40066e-14
1.39974e-14
1.40234e-14
1.40515e-14
1.40641e-14
1.40877e-14
1.4127e-14
1.41698e-14
1.41747e-14
1.42103e-14
1.41804e-14
1.42117e-14
1.42061e-14
1.42354e-14
1.42265e-14
1.42684e-14
1.42912e-14
1.42836e-14
1.43761e-14
1.42766e-14
1.43864e-14
1.43184e-14
1.43974e-14
1.43593e-14
1.44804e-14
1.44199e-14
1.45532e-14
1.44756e-14
1.4617e-14
1.45244e-14
1.46491e-14
1.46612e-14
1.47194e-14
1.47272e-14
1.47978e-14
1.47694e-14
1.48857e-14
1.48766e-14
1.49657e-14
1.49812e-14
1.50144e-14
1.49737e-14
1.50729e-14
1.50724e-14
1.51709e-14
1.50991e-14
1.51965e-14
1.51865e-14
1.52834e-14
1.52638e-14
1.53883e-14
1.53493e-14
1.54938e-14
1.54419e-14
1.55824e-14
1.54776e-14
1.5634e-14
1.56013e-14
1.56955e-14
1.56951e-14
1.57586e-14
1.57861e-14
1.58188e-14
1.58999e-14
1.59139e-14
1.59965e-14
1.60215e-14
1.60779e-14
1.61226e-14
1.61209e-14
1.61992e-14
1.62396e-14
1.62769e-14
1.63413e-14
1.63709e-14
1.63869e-14
1.64405e-14
1.64919e-14
1.65082e-14
1.65813e-14
1.65864e-14
1.66779e-14
1.66754e-14
1.67439e-14
1.67354e-14
1.68201e-14
1.68234e-14
1.21218e-14
1.31123e-14
1.21217e-14
1.31123e-14
1.21217e-14
1.31123e-14
1.21217e-14
1.31122e-14
1.21217e-14
1.31122e-14
1.21217e-14
1.31121e-14
1.21217e-14
1.3112e-14
1.21217e-14
1.3112e-14
1.21217e-14
1.31118e-14
1.21217e-14
1.31117e-14
1.21218e-14
1.31115e-14
1.21218e-14
1.31112e-14
1.21219e-14
1.31109e-14
1.2122e-14
1.31106e-14
1.21221e-14
1.31102e-14
1.21223e-14
1.31097e-14
1.21225e-14
1.31092e-14
1.21228e-14
1.31085e-14
1.21232e-14
1.31077e-14
1.21235e-14
1.31067e-14
1.21238e-14
1.31058e-14
1.2124e-14
1.31049e-14
1.21243e-14
1.3104e-14
1.21244e-14
1.31029e-14
1.21247e-14
1.31016e-14
1.21249e-14
1.31002e-14
1.21248e-14
1.30988e-14
1.21249e-14
1.30974e-14
1.21251e-14
1.3096e-14
1.21253e-14
1.30944e-14
1.21253e-14
1.30922e-14
1.21251e-14
1.30901e-14
1.21252e-14
1.30884e-14
1.21255e-14
1.30865e-14
1.21255e-14
1.30845e-14
1.21257e-14
1.30826e-14
1.21258e-14
1.30806e-14
1.2126e-14
1.30787e-14
1.21263e-14
1.30763e-14
1.21267e-14
1.30738e-14
1.21273e-14
1.30715e-14
1.21274e-14
1.30694e-14
1.21273e-14
1.30673e-14
1.21279e-14
1.30646e-14
1.21283e-14
1.30623e-14
1.21287e-14
1.30594e-14
1.21291e-14
1.30564e-14
1.21296e-14
1.30539e-14
1.213e-14
1.3051e-14
1.21303e-14
1.3048e-14
1.21308e-14
1.30449e-14
1.21311e-14
1.30414e-14
1.21314e-14
1.30385e-14
1.21314e-14
1.30354e-14
1.21311e-14
1.30323e-14
1.21309e-14
1.30291e-14
1.2131e-14
1.30257e-14
1.21312e-14
1.30226e-14
1.21308e-14
1.30201e-14
1.21304e-14
1.30169e-14
1.21304e-14
1.30135e-14
1.21304e-14
1.30104e-14
1.21302e-14
1.30086e-14
1.21296e-14
1.30056e-14
1.21292e-14
1.3003e-14
1.21295e-14
1.30013e-14
1.21296e-14
1.29984e-14
1.21293e-14
1.29973e-14
1.21292e-14
1.29947e-14
1.21292e-14
1.29915e-14
1.21292e-14
1.29891e-14
1.21306e-14
1.29869e-14
1.21316e-14
1.29855e-14
1.21325e-14
1.29847e-14
1.21322e-14
1.29842e-14
1.21322e-14
1.29833e-14
1.21323e-14
1.29823e-14
1.21325e-14
1.2982e-14
1.21325e-14
1.29808e-14
1.21306e-14
1.29795e-14
1.21293e-14
1.29798e-14
1.21278e-14
1.298e-14
1.2126e-14
1.2981e-14
1.2124e-14
1.29828e-14
1.21235e-14
1.29844e-14
1.2122e-14
1.29861e-14
1.21202e-14
1.29893e-14
1.21173e-14
1.29925e-14
1.2116e-14
1.29956e-14
1.21154e-14
1.29996e-14
1.21155e-14
1.30017e-14
1.21154e-14
1.30046e-14
1.21152e-14
1.30084e-14
1.21157e-14
1.30093e-14
1.2117e-14
1.30111e-14
1.212e-14
1.30147e-14
1.21229e-14
1.302e-14
1.21257e-14
1.30243e-14
1.21294e-14
1.30229e-14
1.2132e-14
1.30205e-14
1.21356e-14
1.30217e-14
1.21353e-14
1.30219e-14
1.21387e-14
1.30229e-14
1.2145e-14
1.30219e-14
1.21494e-14
1.30207e-14
1.21557e-14
1.30175e-14
1.21582e-14
1.30142e-14
1.21616e-14
1.30145e-14
1.21671e-14
1.30108e-14
1.21747e-14
1.30069e-14
1.21823e-14
1.30058e-14
1.219e-14
1.30025e-14
1.21989e-14
1.2997e-14
1.22099e-14
1.29912e-14
1.22191e-14
1.29903e-14
1.22306e-14
1.29901e-14
1.22392e-14
1.29896e-14
1.22502e-14
1.29909e-14
1.22604e-14
1.29939e-14
1.22698e-14
1.29947e-14
1.22786e-14
1.29972e-14
1.22867e-14
1.29973e-14
1.22941e-14
1.29971e-14
1.23049e-14
1.29986e-14
1.23152e-14
1.29998e-14
1.23269e-14
1.30027e-14
1.2338e-14
1.30031e-14
1.23465e-14
1.30073e-14
1.23524e-14
1.3009e-14
1.2364e-14
1.30081e-14
1.2371e-14
1.30152e-14
1.23775e-14
1.30218e-14
1.23856e-14
1.30237e-14
1.23912e-14
1.3023e-14
1.23965e-14
1.3026e-14
1.24013e-14
1.30284e-14
1.241e-14
1.30324e-14
1.24184e-14
1.30357e-14
1.24243e-14
1.30426e-14
1.243e-14
1.30468e-14
1.24418e-14
1.3046e-14
1.24469e-14
1.30509e-14
1.2454e-14
1.30658e-14
1.24631e-14
1.30756e-14
1.24741e-14
1.30804e-14
1.24828e-14
1.30865e-14
1.24915e-14
1.30982e-14
1.25021e-14
1.31112e-14
1.25149e-14
1.31212e-14
1.25298e-14
1.31238e-14
1.25404e-14
1.31298e-14
1.25532e-14
1.31326e-14
1.25683e-14
1.31409e-14
1.25835e-14
1.31546e-14
1.25989e-14
1.31607e-14
1.26145e-14
1.31634e-14
1.26325e-14
1.31736e-14
1.264e-14
1.31869e-14
1.265e-14
1.32077e-14
1.2669e-14
1.32272e-14
1.26863e-14
1.32453e-14
1.27018e-14
1.32622e-14
1.27286e-14
1.3269e-14
1.27452e-14
1.32787e-14
1.27689e-14
1.32957e-14
1.27868e-14
1.33112e-14
1.27989e-14
1.33294e-14
1.28096e-14
1.33418e-14
1.28234e-14
1.33526e-14
1.28314e-14
1.33661e-14
1.28339e-14
1.33955e-14
1.28394e-14
1.34189e-14
1.28567e-14
1.34276e-14
1.28815e-14
1.34391e-14
1.2892e-14
1.34576e-14
1.29144e-14
1.34614e-14
1.29358e-14
1.34678e-14
1.29519e-14
1.349e-14
1.29714e-14
1.35061e-14
1.29944e-14
1.35118e-14
1.30166e-14
1.35246e-14
1.30251e-14
1.35442e-14
1.30373e-14
1.35623e-14
1.30489e-14
1.357e-14
1.306e-14
1.35718e-14
1.30794e-14
1.3585e-14
1.30984e-14
1.35966e-14
1.31215e-14
1.36024e-14
1.31359e-14
1.36025e-14
1.31546e-14
1.3614e-14
1.31692e-14
1.36156e-14
1.31798e-14
1.36114e-14
1.31865e-14
1.36144e-14
1.31937e-14
1.36248e-14
1.32058e-14
1.36384e-14
1.32229e-14
1.36421e-14
1.32495e-14
1.36405e-14
1.32512e-14
1.36551e-14
1.32626e-14
1.36602e-14
1.32966e-14
1.36429e-14
1.33192e-14
1.36375e-14
1.33264e-14
1.3648e-14
1.33313e-14
1.36661e-14
1.33423e-14
1.36747e-14
1.33595e-14
1.36827e-14
1.33745e-14
1.36985e-14
1.33959e-14
1.37139e-14
1.34153e-14
1.37205e-14
1.34414e-14
1.37268e-14
1.34575e-14
1.37583e-14
1.34721e-14
1.37815e-14
1.34767e-14
1.38135e-14
1.34964e-14
1.38295e-14
1.35396e-14
1.38467e-14
1.35816e-14
1.38736e-14
1.35892e-14
1.39185e-14
1.3604e-14
1.39403e-14
1.36176e-14
1.39728e-14
1.36546e-14
1.40081e-14
1.36821e-14
1.40465e-14
1.37167e-14
1.40637e-14
1.3742e-14
1.40765e-14
1.37748e-14
1.40932e-14
1.38072e-14
1.41058e-14
1.38393e-14
1.41305e-14
1.38633e-14
1.41512e-14
1.38632e-14
1.41523e-14
1.38875e-14
1.41502e-14
1.39123e-14
1.41772e-14
1.39376e-14
1.42014e-14
1.39554e-14
1.41988e-14
1.39742e-14
1.41939e-14
1.39942e-14
1.42266e-14
1.40074e-14
1.42491e-14
1.40215e-14
1.42542e-14
1.40445e-14
1.42739e-14
1.40766e-14
1.42847e-14
1.40944e-14
1.43102e-14
1.41372e-14
1.43431e-14
1.4166e-14
1.4368e-14
1.42044e-14
1.43854e-14
1.42451e-14
1.44031e-14
1.42884e-14
1.44138e-14
1.43429e-14
1.44251e-14
1.4394e-14
1.44445e-14
1.44429e-14
1.44486e-14
1.44449e-14
1.44599e-14
1.44607e-14
1.44791e-14
1.449e-14
1.44767e-14
1.45188e-14
1.4483e-14
1.45025e-14
1.44978e-14
1.45004e-14
1.45074e-14
1.45121e-14
1.45122e-14
1.45077e-14
1.45424e-14
1.45604e-14
1.454e-14
1.45684e-14
1.45337e-14
1.45765e-14
1.45385e-14
1.46142e-14
1.45402e-14
1.45813e-14
1.45376e-14
1.45352e-14
1.45605e-14
1.45456e-14
1.45533e-14
1.45411e-14
1.453e-14
1.45224e-14
1.45189e-14
1.45466e-14
1.45341e-14
1.45431e-14
1.45474e-14
1.45677e-14
1.45453e-14
1.46071e-14
1.4541e-14
1.46223e-14
1.45334e-14
1.46561e-14
1.45226e-14
1.46551e-14
1.45481e-14
1.46596e-14
1.45563e-14
1.46564e-14
1.45613e-14
1.46464e-14
1.45638e-14
1.46433e-14
1.46053e-14
1.46717e-14
1.46477e-14
1.46775e-14
1.4678e-14
1.46864e-14
1.46839e-14
1.46986e-14
1.46928e-14
1.47154e-14
1.47312e-14
1.47093e-14
1.47742e-14
1.47291e-14
1.47727e-14
1.47487e-14
1.47769e-14
1.47688e-14
1.48121e-14
1.47896e-14
1.48415e-14
1.47984e-14
1.48921e-14
1.4805e-14
1.49412e-14
1.48443e-14
1.49664e-14
1.49184e-14
1.49686e-14
1.49595e-14
1.50053e-14
1.49689e-14
1.50628e-14
1.50393e-14
1.50961e-14
1.51015e-14
1.51505e-14
1.51334e-14
1.52268e-14
1.51759e-14
1.52818e-14
1.52275e-14
1.52933e-14
1.52919e-14
1.53267e-14
1.53703e-14
1.53777e-14
1.54642e-14
1.53987e-14
1.54482e-14
1.5451e-14
1.55169e-14
1.55158e-14
1.56497e-14
1.55502e-14
1.57243e-14
1.56097e-14
1.57664e-14
1.56685e-14
1.58176e-14
1.57256e-14
1.59196e-14
1.57585e-14
1.59328e-14
1.5845e-14
1.59742e-14
1.59294e-14
1.60364e-14
1.59965e-14
1.61387e-14
1.6069e-14
1.61797e-14
1.61627e-14
1.62546e-14
1.62624e-14
1.636e-14
1.63302e-14
1.64027e-14
1.64024e-14
1.64968e-14
1.64825e-14
1.6563e-14
1.6568e-14
1.66608e-14
1.66628e-14
1.67305e-14
1.67092e-14
1.68145e-14
1.67813e-14
1.68747e-14
1.68561e-14
1.69287e-14
1.69178e-14
1.68866e-14
1.69236e-14
1.69216e-14
1.69856e-14
1.7037e-14
1.70716e-14
1.71023e-14
1.714e-14
1.7155e-14
1.7192e-14
1.72365e-14
1.72868e-14
1.73048e-14
1.73471e-14
1.73405e-14
1.74103e-14
1.74225e-14
1.74799e-14
1.75165e-14
1.75757e-14
1.7563e-14
1.76365e-14
1.76187e-14
1.76646e-14
1.76834e-14
1.77387e-14
1.7695e-14
1.77974e-14
1.77734e-14
1.7889e-14
1.78776e-14
1.79302e-14
1.79536e-14
1.79775e-14
1.80254e-14
1.80275e-14
1.80954e-14
1.80557e-14
1.81452e-14
1.81009e-14
1.8173e-14
1.81835e-14
1.8241e-14
1.8263e-14
1.83495e-14
1.8318e-14
1.83917e-14
1.83891e-14
1.84106e-14
1.84334e-14
1.84949e-14
1.84764e-14
1.85321e-14
1.85384e-14
1.85674e-14
1.8599e-14
1.86478e-14
1.86615e-14
1.87036e-14
1.8724e-14
1.87336e-14
1.87145e-14
1.8812e-14
1.87502e-14
1.88955e-14
1.88277e-14
1.88992e-14
1.89108e-14
1.89665e-14
1.89677e-14
1.90363e-14
1.90228e-14
1.90456e-14
1.90624e-14
1.90667e-14
1.91131e-14
1.91236e-14
1.91642e-14
1.91647e-14
1.92291e-14
1.9162e-14
1.92844e-14
1.92155e-14
1.93195e-14
1.93025e-14
1.93466e-14
1.92823e-14
1.93759e-14
1.93479e-14
1.93968e-14
1.9384e-14
1.94196e-14
1.93911e-14
1.9431e-14
1.94225e-14
1.94714e-14
1.94926e-14
1.95012e-14
1.95909e-14
1.95319e-14
1.96112e-14
1.95605e-14
1.96074e-14
1.95736e-14
1.96336e-14
1.95992e-14
1.96898e-14
1.96507e-14
1.97074e-14
1.96857e-14
1.97268e-14
1.97196e-14
1.97754e-14
1.97811e-14
1.98251e-14
1.98148e-14
1.9834e-14
1.98339e-14
1.98299e-14
1.98673e-14
1.98688e-14
1.99163e-14
1.98931e-14
1.99237e-14
1.98596e-14
1.99459e-14
1.98818e-14
1.99698e-14
1.98865e-14
1.99957e-14
1.98731e-14
2.0009e-14
1.98405e-14
2.00108e-14
1.98321e-14
2.00168e-14
1.98477e-14
2.00128e-14
1.9828e-14
2.00127e-14
1.98473e-14
2.00168e-14
1.98464e-14
2.00097e-14
1.98259e-14
2.00062e-14
1.98002e-14
2.00071e-14
1.97839e-14
1.99974e-14
1.98077e-14
2.00078e-14
1.98111e-14
1.99996e-14
1.97943e-14
1.99566e-14
1.9789e-14
1.99162e-14
1.98115e-14
1.99242e-14
1.98162e-14
1.99339e-14
1.98187e-14
1.99376e-14
1.98266e-14
1.99272e-14
1.98328e-14
1.99178e-14
1.98295e-14
1.99251e-14
1.98324e-14
1.99098e-14
1.9826e-14
1.98952e-14
1.98025e-14
1.98969e-14
1.98014e-14
1.98914e-14
1.97987e-14
1.98707e-14
1.9803e-14
1.98587e-14
1.97983e-14
1.9863e-14
1.97928e-14
1.98678e-14
1.97944e-14
1.98488e-14
1.97872e-14
1.9838e-14
1.97796e-14
1.986e-14
1.97792e-14
1.98662e-14
1.9778e-14
1.98649e-14
1.97762e-14
1.98641e-14
1.97819e-14
1.98392e-14
1.97709e-14
1.98473e-14
1.97675e-14
1.98556e-14
1.97635e-14
1.98478e-14
1.97588e-14
1.98404e-14
1.97452e-14
1.98418e-14
1.97391e-14
1.98522e-14
1.97321e-14
1.98549e-14
1.97325e-14
1.98332e-14
1.97154e-14
1.98286e-14
1.97142e-14
1.98331e-14
1.97121e-14
1.98298e-14
1.97089e-14
1.98355e-14
1.97132e-14
1.98167e-14
1.97168e-14
1.97983e-14
1.97197e-14
1.98142e-14
1.97219e-14
1.98306e-14
1.97234e-14
1.98136e-14
1.97243e-14
1.9797e-14
1.97246e-14
1.97892e-14
1.97245e-14
1.97816e-14
1.97282e-14
1.97741e-14
1.97273e-14
1.97667e-14
1.97261e-14
1.97551e-14
1.9729e-14
1.97434e-14
1.97232e-14
1.97359e-14
1.9713e-14
1.97413e-14
1.97198e-14
1.97251e-14
1.97354e-14
1.97045e-14
1.97165e-14
1.96965e-14
1.97108e-14
1.96969e-14
1.97139e-14
1.96928e-14
1.97042e-14
1.96928e-14
1.96903e-14
1.96796e-14
1.96765e-14
1.96836e-14
1.96715e-14
1.96919e-14
1.96664e-14
1.96785e-14
1.96527e-14
1.9665e-14
1.96391e-14
1.96688e-14
1.96298e-14
1.9677e-14
1.96205e-14
1.96897e-14
1.96067e-14
1.96894e-14
1.95971e-14
1.9685e-14
1.95961e-14
1.96809e-14
1.95992e-14
1.96682e-14
1.95936e-14
1.96644e-14
1.95922e-14
1.96651e-14
1.95907e-14
1.96572e-14
1.95936e-14
1.96494e-14
1.95834e-14
1.96417e-14
1.95863e-14
1.96341e-14
1.95804e-14
1.96266e-14
1.95659e-14
1.96191e-14
1.95601e-14
1.96117e-14
1.95499e-14
1.96131e-14
1.95397e-14
1.96102e-14
1.95339e-14
1.96117e-14
1.95281e-14
1.96177e-14
1.95222e-14
1.96194e-14
1.95162e-14
1.96125e-14
1.95102e-14
1.96058e-14
1.95041e-14
1.96035e-14
1.95023e-14
1.96013e-14
1.95048e-14
1.95971e-14
1.94941e-14
1.95995e-14
1.94878e-14
1.95998e-14
1.94879e-14
1.96023e-14
1.94879e-14
1.9605e-14
1.94965e-14
1.96165e-14
1.94964e-14
1.96151e-14
1.94919e-14
1.96031e-14
1.94917e-14
1.95976e-14
1.94914e-14
1.95965e-14
1.94932e-14
1.95999e-14
1.94929e-14
1.96055e-14
1.94903e-14
1.96047e-14
1.94921e-14
1.9604e-14
1.94916e-14
1.96077e-14
1.9489e-14
1.9603e-14
1.94863e-14
1.95983e-14
1.94857e-14
1.96065e-14
1.94872e-14
1.96148e-14
1.94844e-14
1.96147e-14
1.94815e-14
1.96147e-14
1.94807e-14
1.9619e-14
1.94778e-14
1.96234e-14
1.94748e-14
1.96216e-14
1.94717e-14
1.96241e-14
1.94686e-14
1.96309e-14
1.94654e-14
1.96357e-14
1.94621e-14
1.96385e-14
1.94567e-14
1.96414e-14
1.94512e-14
1.96444e-14
1.94519e-14
1.96455e-14
1.94504e-14
1.96446e-14
1.94468e-14
1.96479e-14
1.94431e-14
1.96534e-14
1.94393e-14
1.96549e-14
1.94334e-14
1.96565e-14
1.94294e-14
1.96582e-14
1.94254e-14
1.96621e-14
1.94213e-14
1.9662e-14
1.94171e-14
1.9662e-14
1.94148e-14
1.96601e-14
1.94105e-14
1.96623e-14
1.9405e-14
1.96647e-14
1.94015e-14
1.96661e-14
1.93989e-14
1.96657e-14
1.93953e-14
1.96643e-14
1.93925e-14
1.96631e-14
1.93906e-14
1.9661e-14
1.93887e-14
1.96599e-14
1.93877e-14
1.9658e-14
1.93837e-14
1.96543e-14
1.93806e-14
1.96516e-14
1.93793e-14
1.96509e-14
1.93761e-14
1.96494e-14
1.93728e-14
1.96432e-14
1.93723e-14
1.9637e-14
1.93736e-14
1.96329e-14
1.9372e-14
1.96308e-14
1.93695e-14
1.96296e-14
1.93669e-14
1.96267e-14
1.93652e-14
1.96229e-14
1.93625e-14
1.9622e-14
1.93616e-14
1.96202e-14
1.93607e-14
1.96175e-14
1.93606e-14
1.9614e-14
1.93623e-14
1.96115e-14
1.93622e-14
1.96136e-14
1.93602e-14
1.96166e-14
1.9359e-14
1.96169e-14
1.9357e-14
1.96147e-14
1.93567e-14
1.96125e-14
1.93563e-14
1.96121e-14
1.93559e-14
1.96117e-14
1.93546e-14
1.96123e-14
1.93541e-14
1.96111e-14
1.93519e-14
1.96084e-14
1.93505e-14
1.96065e-14
1.93499e-14
1.96063e-14
1.93485e-14
1.96062e-14
1.93478e-14
1.96053e-14
1.93455e-14
1.96045e-14
1.93432e-14
1.96037e-14
1.93413e-14
1.96025e-14
1.93401e-14
1.96013e-14
1.9339e-14
1.96006e-14
1.9337e-14
1.96007e-14
1.93343e-14
1.96009e-14
1.93315e-14
1.96006e-14
1.93295e-14
1.96004e-14
1.93279e-14
1.96003e-14
1.93262e-14
1.95983e-14
1.93246e-14
1.95978e-14
1.93226e-14
1.95988e-14
1.93206e-14
1.96006e-14
1.93189e-14
1.96012e-14
1.93172e-14
1.96005e-14
1.93152e-14
1.95999e-14
1.93139e-14
1.95996e-14
1.93132e-14
1.95986e-14
1.93122e-14
1.95977e-14
1.93111e-14
1.95985e-14
1.93104e-14
1.95983e-14
1.93094e-14
1.95974e-14
1.93093e-14
1.9596e-14
1.93095e-14
1.95953e-14
1.93087e-14
1.95946e-14
1.93077e-14
1.95942e-14
1.93072e-14
1.95938e-14
1.9307e-14
1.95937e-14
1.93065e-14
1.95929e-14
1.9306e-14
1.9592e-14
1.93055e-14
1.95912e-14
1.93048e-14
1.95906e-14
1.93043e-14
1.95901e-14
1.93038e-14
1.95897e-14
1.93037e-14
1.9589e-14
1.93035e-14
1.9588e-14
1.9303e-14
1.95876e-14
1.93023e-14
1.95872e-14
1.93019e-14
1.95866e-14
1.93015e-14
1.95863e-14
1.93011e-14
1.95859e-14
1.93008e-14
1.95849e-14
1.93005e-14
1.95846e-14
1.93003e-14
1.95846e-14
1.93e-14
1.95843e-14
1.92996e-14
1.95845e-14
1.92992e-14
1.95843e-14
1.92987e-14
1.95843e-14
1.92984e-14
1.95842e-14
1.92981e-14
1.95839e-14
1.92978e-14
1.95835e-14
1.92975e-14
1.95835e-14
1.92972e-14
1.95835e-14
1.92971e-14
1.95835e-14
1.92969e-14
1.95836e-14
1.92966e-14
1.95836e-14
1.92964e-14
1.95834e-14
1.92961e-14
1.95834e-14
1.9296e-14
1.95833e-14
1.92958e-14
1.95833e-14
1.92956e-14
1.95833e-14
1.92955e-14
1.95832e-14
1.92954e-14
1.95831e-14
1.92954e-14
1.95831e-14
1.92953e-14
1.95831e-14
1.92953e-14
1.95831e-14
1.92952e-14
1.95831e-14
1.92952e-14
1.95831e-14
1.92952e-14
1.95831e-14
1.92952e-14
1.95831e-14
1.92952e-14
1.95831e-14
1.92951e-14
1.95831e-14
1.92952e-14
1.9583e-14
1.92951e-14
1.95831e-14
1.92951e-14
1.95831e-14
1.92951e-14
1.9583e-14
1.92952e-14
1.9583e-14
1.69542e-14
1.69856e-14
1.70194e-14
1.7064e-14
1.71054e-14
1.71167e-14
1.71954e-14
1.71751e-14
1.72363e-14
1.72333e-14
1.73241e-14
1.73146e-14
1.74e-14
1.7397e-14
1.74227e-14
1.74628e-14
1.74457e-14
1.75176e-14
1.75019e-14
1.76055e-14
1.76064e-14
1.76473e-14
1.77301e-14
1.76952e-14
1.77606e-14
1.77621e-14
1.78169e-14
1.78099e-14
1.78602e-14
1.78794e-14
1.79066e-14
1.79295e-14
1.79959e-14
1.79824e-14
1.80676e-14
1.80346e-14
1.81455e-14
1.80841e-14
1.82327e-14
1.81739e-14
1.82633e-14
1.82846e-14
1.83189e-14
1.83577e-14
1.83751e-14
1.84166e-14
1.84061e-14
1.8484e-14
1.84775e-14
1.85165e-14
1.8549e-14
1.85561e-14
1.85757e-14
1.85998e-14
1.85788e-14
1.86245e-14
1.86503e-14
1.87016e-14
1.87186e-14
1.87606e-14
1.87848e-14
1.8776e-14
1.88053e-14
1.88418e-14
1.88477e-14
1.89137e-14
1.8835e-14
1.89934e-14
1.88969e-14
1.90368e-14
1.89983e-14
1.9104e-14
1.90423e-14
1.91555e-14
1.90671e-14
1.92041e-14
1.91608e-14
1.92252e-14
1.92268e-14
1.92518e-14
1.92547e-14
1.93193e-14
1.92428e-14
1.93396e-14
1.93051e-14
1.93524e-14
1.93787e-14
1.93678e-14
1.93893e-14
1.94222e-14
1.94127e-14
1.94126e-14
1.94369e-14
1.94161e-14
1.94228e-14
1.94453e-14
1.94483e-14
1.94886e-14
1.95258e-14
1.952e-14
1.95479e-14
1.95511e-14
1.95549e-14
1.95823e-14
1.95875e-14
1.96426e-14
1.96035e-14
1.972e-14
1.96557e-14
1.97193e-14
1.9691e-14
1.97496e-14
1.97097e-14
1.97825e-14
1.97392e-14
1.98181e-14
1.97506e-14
1.98422e-14
1.97721e-14
1.98694e-14
1.97899e-14
1.99142e-14
1.98174e-14
1.99628e-14
1.98689e-14
2.00019e-14
1.99169e-14
2.00165e-14
1.99336e-14
2.00491e-14
1.99332e-14
2.00415e-14
1.99307e-14
2.00074e-14
1.99424e-14
1.999e-14
1.99691e-14
2.00031e-14
1.99966e-14
2.0017e-14
1.99656e-14
2.00164e-14
1.99346e-14
1.99867e-14
1.99488e-14
1.99579e-14
1.99489e-14
1.9959e-14
1.99503e-14
1.99445e-14
1.99382e-14
1.99447e-14
1.99349e-14
1.99675e-14
1.99167e-14
1.99752e-14
1.98907e-14
1.99609e-14
1.98565e-14
1.9956e-14
1.9852e-14
1.99531e-14
1.98696e-14
1.99755e-14
1.98625e-14
1.99921e-14
1.98693e-14
1.9972e-14
1.98669e-14
1.99616e-14
1.98634e-14
1.99609e-14
1.98507e-14
1.99778e-14
1.98444e-14
1.99732e-14
1.98446e-14
1.99389e-14
1.98358e-14
1.99141e-14
1.98262e-14
1.99146e-14
1.98156e-14
1.99246e-14
1.98038e-14
1.99364e-14
1.97905e-14
1.99258e-14
1.97836e-14
1.9909e-14
1.97754e-14
1.99185e-14
1.97492e-14
1.99217e-14
1.97373e-14
1.99269e-14
1.97315e-14
1.99345e-14
1.97317e-14
1.99444e-14
1.97378e-14
1.99487e-14
1.97419e-14
1.99388e-14
1.97357e-14
1.99146e-14
1.97361e-14
1.98921e-14
1.97351e-14
1.98879e-14
1.97328e-14
1.991e-14
1.9729e-14
1.99256e-14
1.97237e-14
1.99179e-14
1.97336e-14
1.98952e-14
1.97424e-14
1.98907e-14
1.97502e-14
1.9879e-14
1.97489e-14
1.98769e-14
1.97468e-14
1.98673e-14
1.9744e-14
1.98417e-14
1.97492e-14
1.98423e-14
1.97539e-14
1.98606e-14
1.9758e-14
1.9854e-14
1.97617e-14
1.98397e-14
1.9765e-14
1.98429e-14
1.9768e-14
1.98382e-14
1.97708e-14
1.98298e-14
1.97605e-14
1.98261e-14
1.97586e-14
1.98228e-14
1.97392e-14
1.98114e-14
1.97238e-14
1.97963e-14
1.97252e-14
1.97859e-14
1.97092e-14
1.97931e-14
1.9697e-14
1.97922e-14
1.96844e-14
1.97703e-14
1.9667e-14
1.97489e-14
1.96578e-14
1.97539e-14
1.96481e-14
1.97594e-14
1.96465e-14
1.97524e-14
1.96272e-14
1.97417e-14
1.96203e-14
1.97401e-14
1.96085e-14
1.97347e-14
1.95919e-14
1.97211e-14
1.95704e-14
1.97123e-14
1.95614e-14
1.97084e-14
1.95605e-14
1.97182e-14
1.95503e-14
1.97197e-14
1.95439e-14
1.97086e-14
1.95326e-14
1.96981e-14
1.95251e-14
1.96881e-14
1.95171e-14
1.96916e-14
1.95041e-14
1.96913e-14
1.9495e-14
1.96958e-14
1.94764e-14
1.97008e-14
1.94747e-14
1.9689e-14
1.94723e-14
1.96691e-14
1.94606e-14
1.96583e-14
1.94483e-14
1.96655e-14
1.94399e-14
1.96688e-14
1.94351e-14
1.9664e-14
1.94211e-14
1.96683e-14
1.94152e-14
1.96776e-14
1.94087e-14
1.96788e-14
1.94016e-14
1.96761e-14
1.93939e-14
1.96696e-14
1.93943e-14
1.96723e-14
1.93941e-14
1.96756e-14
1.9389e-14
1.96751e-14
1.93856e-14
1.96685e-14
1.93795e-14
1.96625e-14
1.93771e-14
1.96699e-14
1.937e-14
1.96713e-14
1.93645e-14
1.96667e-14
1.93541e-14
1.96626e-14
1.93498e-14
1.96589e-14
1.93514e-14
1.96578e-14
1.93461e-14
1.96572e-14
1.93382e-14
1.96548e-14
1.93384e-14
1.96528e-14
1.93403e-14
1.96555e-14
1.93396e-14
1.96608e-14
1.93406e-14
1.96578e-14
1.93412e-14
1.96553e-14
1.93414e-14
1.9653e-14
1.93476e-14
1.96533e-14
1.93428e-14
1.96624e-14
1.93376e-14
1.96612e-14
1.93363e-14
1.96561e-14
1.93389e-14
1.96533e-14
1.9339e-14
1.96573e-14
1.93388e-14
1.96615e-14
1.93341e-14
1.96639e-14
1.93311e-14
1.96645e-14
1.93299e-14
1.96674e-14
1.93285e-14
1.96706e-14
1.93246e-14
1.96678e-14
1.93226e-14
1.96652e-14
1.93265e-14
1.96692e-14
1.93239e-14
1.96775e-14
1.93231e-14
1.9686e-14
1.93179e-14
1.96928e-14
1.93187e-14
1.96997e-14
1.93171e-14
1.96986e-14
1.93173e-14
1.96998e-14
1.93131e-14
1.97033e-14
1.93088e-14
1.9707e-14
1.93062e-14
1.97048e-14
1.93034e-14
1.97069e-14
1.92984e-14
1.97112e-14
1.92951e-14
1.97137e-14
1.92917e-14
1.97165e-14
1.9289e-14
1.97174e-14
1.92871e-14
1.97185e-14
1.9286e-14
1.97188e-14
1.92828e-14
1.97183e-14
1.92813e-14
1.9719e-14
1.92747e-14
1.97209e-14
1.92728e-14
1.9719e-14
1.92708e-14
1.97163e-14
1.92695e-14
1.97138e-14
1.92671e-14
1.97144e-14
1.92646e-14
1.97152e-14
1.92618e-14
1.97142e-14
1.9259e-14
1.97143e-14
1.9256e-14
1.97127e-14
1.92537e-14
1.97113e-14
1.92504e-14
1.97109e-14
1.92489e-14
1.97116e-14
1.92481e-14
1.97088e-14
1.9249e-14
1.9707e-14
1.92471e-14
1.97072e-14
1.92468e-14
1.97075e-14
1.92464e-14
1.9708e-14
1.92468e-14
1.97086e-14
1.9248e-14
1.97093e-14
1.92508e-14
1.97101e-14
1.92517e-14
1.9711e-14
1.92525e-14
1.97102e-14
1.92532e-14
1.97087e-14
1.92546e-14
1.97073e-14
1.92568e-14
1.97069e-14
1.92581e-14
1.97066e-14
1.92592e-14
1.97055e-14
1.92602e-14
1.97012e-14
1.9262e-14
1.96994e-14
1.9262e-14
1.9702e-14
1.92628e-14
1.97029e-14
1.92634e-14
1.97023e-14
1.92632e-14
1.97026e-14
1.92629e-14
1.9703e-14
1.92617e-14
1.97026e-14
1.92597e-14
1.97015e-14
1.92588e-14
1.97009e-14
1.92567e-14
1.97022e-14
1.92538e-14
1.97033e-14
1.92524e-14
1.97025e-14
1.92509e-14
1.97022e-14
1.92508e-14
1.97023e-14
1.92504e-14
1.97013e-14
1.92502e-14
1.97012e-14
1.92482e-14
1.97032e-14
1.92476e-14
1.97035e-14
1.92469e-14
1.97028e-14
1.92473e-14
1.97019e-14
1.92483e-14
1.97013e-14
1.92485e-14
1.97018e-14
1.92487e-14
1.97023e-14
1.92495e-14
1.97016e-14
1.92493e-14
1.97012e-14
1.92506e-14
1.97009e-14
1.92513e-14