/*--------------------------------*- C++ -*----------------------------------*\
| =========                 |                                                 |
| \\      /  F ield         | OpenFOAM: The Open Source CFD Toolbox           |
|  \\    /   O peration     | Version:  2106                                  |
|   \\  /    A nd           | Website:  www.openfoam.com                      |
|    \\/     M anipulation  |                                                 |
\*---------------------------------------------------------------------------*/
FoamFile
{
    version     2.0;
    format      ascii;
    arch        "LSB;label=32;scalar=64";
    class       volVectorField;
    location    "18000";
    object      U;
}
// * * * * * * * * * * * * * * * * * * * * * * * * * * * * * * * * * * * * * //

dimensions      [0 1 -1 0 0 0 0];

internalField   nonuniform List<vector> 
2560
(
(0.0155908 -7.62358e-16 -8.24792e-17)
(0.0155908 -1.8256e-18 8.61587e-32)
(0.0469941 -2.67036e-15 -2.0063e-16)
(0.0469941 -1.6648e-18 -3.44517e-20)
(0.0788447 -2.59519e-15 -2.06498e-16)
(0.0788447 -4.65787e-18 -4.82287e-20)
(0.111118 -2.504e-15 -2.11547e-16)
(0.111118 -6.99001e-18 -7.29118e-20)
(0.143697 -2.39106e-15 -2.15344e-16)
(0.143697 -9.6031e-18 -9.99764e-20)
(0.176276 -2.40676e-15 -2.16282e-16)
(0.176276 -1.21801e-17 -1.2834e-19)
(0.208283 -2.40487e-15 -2.1268e-16)
(0.208283 -1.47001e-17 -1.55412e-19)
(0.238966 -2.40009e-15 -2.03932e-16)
(0.238966 -1.70634e-17 -1.7817e-19)
(0.267627 -2.39611e-15 -1.91045e-16)
(0.267627 -1.93995e-17 -1.98306e-19)
(0.293844 -2.39251e-15 -1.76014e-16)
(0.293844 -2.18325e-17 -2.12845e-19)
(0.317514 -2.38927e-15 -1.60734e-16)
(0.317514 -2.41966e-17 -2.24073e-19)
(0.338771 -2.3864e-15 -1.46421e-16)
(0.338771 -2.62457e-17 -2.32163e-19)
(0.357861 -2.38385e-15 -1.33622e-16)
(0.357861 -2.78416e-17 -2.42415e-19)
(0.375064 -2.38141e-15 -1.22451e-16)
(0.375064 -2.91569e-17 -2.53549e-19)
(0.390642 -2.37892e-15 -1.12808e-16)
(0.390642 -3.07651e-17 -2.62648e-19)
(0.404829 -2.37667e-15 -1.04512e-16)
(0.404829 -3.22613e-17 -2.67771e-19)
(0.417824 -2.37439e-15 -9.73688e-17)
(0.417824 -3.38399e-17 -2.54047e-19)
(0.429793 -2.3724e-15 -9.11982e-17)
(0.429793 -3.55627e-17 -2.43321e-19)
(0.440876 -2.37071e-15 -8.58449e-17)
(0.440876 -3.66432e-17 -2.33126e-19)
(0.451188 -2.36902e-15 -8.11768e-17)
(0.451188 -3.7622e-17 -2.25775e-19)
(0.460825 -2.36761e-15 -7.70865e-17)
(0.460825 -3.86643e-17 -2.19174e-19)
(0.469869 -2.36622e-15 -7.34844e-17)
(0.469869 -3.93683e-17 -2.06136e-19)
(0.478388 -2.36471e-15 -7.02968e-17)
(0.478388 -4.03199e-17 -2.02348e-19)
(0.48644 -2.3628e-15 -6.74631e-17)
(0.48644 -4.19232e-17 -1.9691e-19)
(0.494074 -2.36046e-15 -6.4933e-17)
(0.494074 -4.32125e-17 -1.88952e-19)
(0.501333 -2.35833e-15 -6.26652e-17)
(0.501333 -4.47748e-17 -1.81655e-19)
(0.508253 -2.35627e-15 -6.06253e-17)
(0.508253 -4.62024e-17 -1.62398e-19)
(0.514867 -2.35447e-15 -5.87862e-17)
(0.514867 -4.71543e-17 -1.41199e-19)
(0.521201 -2.35259e-15 -5.71238e-17)
(0.521201 -4.81188e-17 -1.25426e-19)
(0.527281 -2.35075e-15 -5.5617e-17)
(0.527281 -4.91822e-17 -1.26456e-19)
(0.533128 -2.34934e-15 -5.42484e-17)
(0.533128 -5.02761e-17 -1.33035e-19)
(0.53876 -2.34789e-15 -5.30035e-17)
(0.53876 -5.11519e-17 -1.34498e-19)
(0.544194 -2.3462e-15 -5.18707e-17)
(0.544194 -5.18262e-17 -1.24898e-19)
(0.549446 -2.3445e-15 -5.0839e-17)
(0.549446 -5.25977e-17 -1.14476e-19)
(0.554529 -2.34309e-15 -4.98974e-17)
(0.554529 -5.35087e-17 -1.01636e-19)
(0.559454 -2.34175e-15 -4.90383e-17)
(0.559454 -5.44566e-17 -9.69849e-20)
(0.564234 -2.34025e-15 -4.82547e-17)
(0.564234 -5.52675e-17 -1.06169e-19)
(0.568876 -2.33889e-15 -4.75395e-17)
(0.568876 -5.57661e-17 -1.02961e-19)
(0.573391 -2.33782e-15 -4.6889e-17)
(0.573391 -5.61613e-17 -9.44288e-20)
(0.577787 -2.33641e-15 -4.62968e-17)
(0.577787 -5.68039e-17 -9.5897e-20)
(0.58207 -2.3349e-15 -4.57581e-17)
(0.58207 -5.77691e-17 -8.94501e-20)
(0.586248 -2.33382e-15 -4.52669e-17)
(0.586248 -5.84287e-17 -7.57839e-20)
(0.590327 -2.33296e-15 -4.48202e-17)
(0.590327 -5.9623e-17 -6.81785e-20)
(0.594312 -2.33163e-15 -4.44166e-17)
(0.594312 -6.08933e-17 -7.26258e-20)
(0.598209 -2.33096e-15 -4.40493e-17)
(0.598209 -6.1743e-17 -7.90426e-20)
(0.602022 -2.33075e-15 -4.372e-17)
(0.602022 -6.22409e-17 -7.27383e-20)
(0.605756 -2.33007e-15 -4.34252e-17)
(0.605756 -6.28005e-17 -6.59428e-20)
(0.609415 -2.32915e-15 -4.31629e-17)
(0.609415 -6.40007e-17 -4.88743e-20)
(0.613003 -2.32794e-15 -4.29282e-17)
(0.613003 -6.5457e-17 -4.64653e-20)
(0.616523 -2.32676e-15 -4.27209e-17)
(0.616523 -6.66818e-17 -3.58086e-20)
(0.619979 -2.32525e-15 -4.25382e-17)
(0.619979 -6.76533e-17 -3.8103e-20)
(0.623374 -2.32377e-15 -4.23765e-17)
(0.623374 -6.9258e-17 -4.01091e-20)
(0.62671 -2.32243e-15 -4.22392e-17)
(0.62671 -7.03047e-17 -4.40418e-20)
(0.62999 -2.32056e-15 -4.21216e-17)
(0.62999 -7.1768e-17 -3.33611e-20)
(0.633217 -2.31919e-15 -4.20213e-17)
(0.633217 -7.39302e-17 -1.08572e-20)
(0.636393 -2.3182e-15 -4.19445e-17)
(0.636393 -7.50197e-17 1.03074e-20)
(0.639521 -2.31711e-15 -4.18873e-17)
(0.639521 -7.62654e-17 1.41054e-20)
(0.642602 -2.31609e-15 -4.18508e-17)
(0.642602 -7.78868e-17 -1.73648e-21)
(0.645638 -2.31444e-15 -4.18297e-17)
(0.645638 -7.89744e-17 4.43871e-21)
(0.648631 -2.31267e-15 -4.18233e-17)
(0.648631 -8.04818e-17 2.96754e-20)
(0.651584 -2.31145e-15 -4.18344e-17)
(0.651584 -8.21237e-17 4.98665e-20)
(0.654497 -2.30985e-15 -4.18646e-17)
(0.654497 -8.33675e-17 5.13434e-20)
(0.657372 -2.30775e-15 -4.19092e-17)
(0.657372 -8.601e-17 4.93833e-20)
(0.66021 -2.30598e-15 -4.19686e-17)
(0.66021 -8.75591e-17 8.96737e-20)
(0.663013 -2.30393e-15 -4.2042e-17)
(0.663013 -8.92717e-17 1.15309e-19)
(0.665783 -2.30159e-15 -4.21263e-17)
(0.665783 -9.16773e-17 1.32583e-19)
(0.66852 -2.29933e-15 -4.22188e-17)
(0.66852 -9.33442e-17 1.37074e-19)
(0.671226 -2.29765e-15 -4.23213e-17)
(0.671226 -9.49129e-17 1.46909e-19)
(0.673901 -2.29628e-15 -4.24378e-17)
(0.673901 -9.55238e-17 1.72894e-19)
(0.676548 -2.29425e-15 -4.25713e-17)
(0.676548 -9.61268e-17 1.85717e-19)
(0.679166 -2.29181e-15 -4.27161e-17)
(0.679166 -9.70802e-17 1.89412e-19)
(0.681757 -2.28969e-15 -4.28786e-17)
(0.681757 -9.8699e-17 1.7127e-19)
(0.684322 -2.28782e-15 -4.30525e-17)
(0.684322 -1.00162e-16 1.70867e-19)
(0.686862 -2.28572e-15 -4.32411e-17)
(0.686862 -1.0136e-16 2.19773e-19)
(0.689377 -2.28358e-15 -4.34381e-17)
(0.689377 -1.02752e-16 2.4413e-19)
(0.691868 -2.2813e-15 -4.36466e-17)
(0.691868 -1.03727e-16 2.14907e-19)
(0.694336 -2.27924e-15 -4.38664e-17)
(0.694336 -1.04547e-16 1.69209e-19)
(0.696782 -2.27764e-15 -4.40992e-17)
(0.696782 -1.06189e-16 1.99764e-19)
(0.699207 -2.27571e-15 -4.434e-17)
(0.699207 -1.0833e-16 2.69043e-19)
(0.70161 -2.27347e-15 -4.45787e-17)
(0.70161 -1.10201e-16 3.07455e-19)
(0.703994 -2.27148e-15 -4.48161e-17)
(0.703994 -1.10502e-16 2.71533e-19)
(0.706358 -2.27049e-15 -4.50578e-17)
(0.706358 -1.11324e-16 1.63747e-19)
(0.708703 -2.26903e-15 -4.53059e-17)
(0.708703 -1.11333e-16 1.74933e-19)
(0.711029 -2.26658e-15 -4.55512e-17)
(0.711029 -1.11102e-16 2.24875e-19)
(0.713338 -2.26454e-15 -4.58108e-17)
(0.713338 -1.132e-16 3.01679e-19)
(0.715629 -2.26168e-15 -4.60761e-17)
(0.715629 -1.14611e-16 3.13715e-19)
(0.717903 -2.25857e-15 -4.63358e-17)
(0.717903 -1.16609e-16 3.14242e-19)
(0.720161 -2.25634e-15 -4.65955e-17)
(0.720161 -1.18518e-16 2.49047e-19)
(0.722403 -2.25403e-15 -4.68707e-17)
(0.722403 -1.19129e-16 3.51614e-19)
(0.72463 -2.25135e-15 -4.71573e-17)
(0.72463 -1.20504e-16 3.79952e-19)
(0.726842 -2.24819e-15 -4.74452e-17)
(0.726842 -1.22712e-16 3.25829e-19)
(0.729038 -2.24486e-15 -4.77368e-17)
(0.729038 -1.24974e-16 3.34247e-19)
(0.731221 -2.24175e-15 -4.80295e-17)
(0.731221 -1.27561e-16 4.6398e-19)
(0.73339 -2.23943e-15 -4.83402e-17)
(0.73339 -1.29531e-16 4.7722e-19)
(0.735546 -2.23704e-15 -4.86736e-17)
(0.735546 -1.31668e-16 3.81518e-19)
(0.737688 -2.23397e-15 -4.90123e-17)
(0.737688 -1.3441e-16 4.3806e-19)
(0.739818 -2.23e-15 -4.93607e-17)
(0.739818 -1.3646e-16 5.20555e-19)
(0.741935 -2.2263e-15 -4.97092e-17)
(0.741935 -1.38138e-16 5.47713e-19)
(0.74404 -2.22355e-15 -5.0063e-17)
(0.74404 -1.38337e-16 5.37982e-19)
(0.746134 -2.22169e-15 -5.042e-17)
(0.746134 -1.40832e-16 4.92713e-19)
(0.748215 -2.22007e-15 -5.07998e-17)
(0.748215 -1.41197e-16 4.86032e-19)
(0.750286 -2.21699e-15 -5.11784e-17)
(0.750286 -1.42582e-16 4.7709e-19)
(0.752346 -2.21383e-15 -5.15859e-17)
(0.752346 -1.45267e-16 4.73992e-19)
(0.754395 -2.2112e-15 -5.20221e-17)
(0.754395 -1.45273e-16 4.55789e-19)
(0.756434 -2.20874e-15 -5.24743e-17)
(0.756434 -1.47867e-16 4.89197e-19)
(0.758463 -2.20608e-15 -5.29446e-17)
(0.758463 -1.49824e-16 4.54375e-19)
(0.760482 -2.20286e-15 -5.34193e-17)
(0.760482 -1.50519e-16 4.90331e-19)
(0.762491 -2.19954e-15 -5.39157e-17)
(0.762491 -1.52271e-16 5.22419e-19)
(0.764491 -2.19664e-15 -5.44266e-17)
(0.764491 -1.54784e-16 5.09681e-19)
(0.766482 -2.19454e-15 -5.49586e-17)
(0.766482 -1.55305e-16 5.1801e-19)
(0.768464 -2.19191e-15 -5.55254e-17)
(0.768464 -1.56666e-16 5.14119e-19)
(0.770437 -2.18825e-15 -5.61025e-17)
(0.770437 -1.56727e-16 5.38847e-19)
(0.772402 -2.1848e-15 -5.67056e-17)
(0.772402 -1.62044e-16 4.97849e-19)
(0.774359 -2.18086e-15 -5.73411e-17)
(0.774359 -1.64547e-16 5.54256e-19)
(0.776307 -2.176e-15 -5.79803e-17)
(0.776307 -1.67449e-16 5.74234e-19)
(0.778247 -2.17173e-15 -5.86496e-17)
(0.778247 -1.7076e-16 6.18115e-19)
(0.78018 -2.16725e-15 -5.93412e-17)
(0.78018 -1.7383e-16 5.78366e-19)
(0.782105 -2.16188e-15 -6.00596e-17)
(0.782105 -1.75851e-16 6.50801e-19)
(0.784023 -2.1565e-15 -6.07869e-17)
(0.784023 -1.74774e-16 6.98378e-19)
(0.785934 -2.1519e-15 -6.1512e-17)
(0.785934 -1.76492e-16 7.7819e-19)
(0.787837 -2.14795e-15 -6.22563e-17)
(0.787837 -1.81541e-16 8.46783e-19)
(0.789734 -2.1433e-15 -6.29862e-17)
(0.789734 -1.81874e-16 9.49181e-19)
(0.791624 -2.13814e-15 -6.37118e-17)
(0.791624 -1.84338e-16 9.62084e-19)
(0.793507 -2.13355e-15 -6.44625e-17)
(0.793507 -1.87142e-16 1.03866e-18)
(0.795384 -2.12934e-15 -6.52245e-17)
(0.795384 -1.89054e-16 9.28186e-19)
(0.797254 -2.1256e-15 -6.59905e-17)
(0.797254 -1.91704e-16 8.41354e-19)
(0.799119 -2.12204e-15 -6.6784e-17)
(0.799119 -1.94633e-16 8.0887e-19)
(0.800977 -2.11623e-15 -6.75811e-17)
(0.800977 -1.96157e-16 7.73476e-19)
(0.80283 -2.11111e-15 -6.83637e-17)
(0.80283 -2.00876e-16 6.06005e-19)
(0.804677 -2.10584e-15 -6.92063e-17)
(0.804677 -2.03425e-16 5.02218e-19)
(0.806518 -2.09977e-15 -7.0008e-17)
(0.806518 -2.04325e-16 2.6035e-19)
(0.808353 -2.09478e-15 -7.07847e-17)
(0.808353 -2.09949e-16 1.02394e-19)
(0.810184 -2.08838e-15 -7.15816e-17)
(0.810184 -2.14683e-16 2.12275e-19)
(0.812009 -2.08216e-15 -7.23506e-17)
(0.812009 -2.15669e-16 8.65352e-20)
(0.813829 -2.07648e-15 -7.31165e-17)
(0.813829 -2.16158e-16 1.2856e-19)
(0.815643 -2.0692e-15 -7.38949e-17)
(0.815643 -2.19113e-16 9.12077e-20)
(0.817453 -2.06364e-15 -7.46739e-17)
(0.817453 -2.23108e-16 1.28308e-19)
(0.819258 -2.06091e-15 -7.54951e-17)
(0.819258 -2.26398e-16 -2.0043e-19)
(0.821059 -2.05655e-15 -7.63848e-17)
(0.821059 -2.28429e-16 1.09521e-20)
(0.822854 -2.04935e-15 -7.73188e-17)
(0.822854 -2.29341e-16 1.77965e-19)
(0.824645 -2.04554e-15 -7.82946e-17)
(0.824645 -2.34075e-16 1.81048e-19)
(0.826432 -2.04236e-15 -7.93161e-17)
(0.826432 -2.35009e-16 6.02695e-20)
(0.828214 -2.03567e-15 -8.03716e-17)
(0.828214 -2.41029e-16 3.11262e-19)
(0.829992 -2.02907e-15 -8.14491e-17)
(0.829992 -2.44629e-16 3.80165e-19)
(0.831766 -2.02233e-15 -8.25483e-17)
(0.831766 -2.46778e-16 4.10652e-19)
(0.833536 -2.01642e-15 -8.36403e-17)
(0.833536 -2.53388e-16 4.76382e-19)
(0.835301 -2.00912e-15 -8.47558e-17)
(0.835301 -2.58741e-16 3.08673e-19)
(0.837063 -2.00369e-15 -8.58684e-17)
(0.837063 -2.63565e-16 3.02026e-19)
(0.838821 -2.00194e-15 -8.70097e-17)
(0.838821 -2.64685e-16 3.97985e-19)
(0.840575 -1.99883e-15 -8.81932e-17)
(0.840575 -2.6538e-16 4.37718e-19)
(0.842325 -1.99567e-15 -8.93749e-17)
(0.842325 -2.69475e-16 3.37689e-19)
(0.844072 -1.99349e-15 -9.05815e-17)
(0.844072 -2.6986e-16 2.43107e-19)
(0.845815 -1.98921e-15 -9.17913e-17)
(0.845815 -2.73246e-16 3.52512e-19)
(0.847555 -1.98437e-15 -9.29783e-17)
(0.847555 -2.75992e-16 4.59295e-19)
(0.849291 -1.97998e-15 -9.41614e-17)
(0.849291 -2.74793e-16 4.84682e-19)
(0.851024 -1.97514e-15 -9.53171e-17)
(0.851024 -2.82379e-16 2.47351e-19)
(0.852754 -1.97111e-15 -9.64909e-17)
(0.852754 -2.84269e-16 4.97898e-19)
(0.85448 -1.96696e-15 -9.75725e-17)
(0.85448 -2.84097e-16 4.99139e-19)
(0.856204 -1.95932e-15 -9.87207e-17)
(0.856204 -2.87875e-16 4.99688e-19)
(0.857924 -1.94449e-15 -9.98978e-17)
(0.857924 -3.03598e-16 3.18827e-19)
(0.859641 -1.9281e-15 -1.00964e-16)
(0.859641 -3.11262e-16 4.33943e-19)
(0.861355 -1.9183e-15 -1.01913e-16)
(0.861355 -3.17701e-16 4.0512e-19)
(0.863066 -1.91456e-15 -1.02964e-16)
(0.863066 -3.28262e-16 4.64041e-19)
(0.864774 -1.91395e-15 -1.0402e-16)
(0.864774 -3.34564e-16 4.83229e-19)
(0.866479 -1.91399e-15 -1.05078e-16)
(0.866479 -3.44129e-16 3.07429e-19)
(0.868182 -1.9132e-15 -1.06161e-16)
(0.868182 -3.54502e-16 1.89269e-19)
(0.869882 -1.90907e-15 -1.07301e-16)
(0.869882 -3.62219e-16 1.12587e-19)
(0.871579 -1.90371e-15 -1.0829e-16)
(0.871579 -3.74102e-16 -1.67558e-19)
(0.873273 -1.89759e-15 -1.09259e-16)
(0.873273 -3.89032e-16 8.88833e-20)
(0.874965 -1.89133e-15 -1.10123e-16)
(0.874965 -3.98678e-16 2.36439e-19)
(0.876654 -1.88696e-15 -1.10964e-16)
(0.876654 -4.07997e-16 5.64775e-19)
(0.878341 -1.88213e-15 -1.11862e-16)
(0.878341 -4.1778e-16 3.36242e-19)
(0.880026 -1.87627e-15 -1.12909e-16)
(0.880026 -4.17111e-16 -1.16197e-18)
(0.881707 -1.8673e-15 -1.1405e-16)
(0.881707 -4.24765e-16 -1.30631e-18)
(0.883387 -1.85537e-15 -1.15104e-16)
(0.883387 -4.27802e-16 -1.61037e-18)
(0.885064 -1.84391e-15 -1.16073e-16)
(0.885064 -4.32892e-16 -2.58039e-18)
(0.886739 -1.83284e-15 -1.1703e-16)
(0.886739 -4.45235e-16 -3.02611e-18)
(0.888411 -1.8213e-15 -1.18825e-16)
(0.888411 -4.58714e-16 -2.9334e-18)
(0.890081 -1.80929e-15 -1.27055e-16)
(0.890081 -4.66185e-16 -2.16236e-18)
(0.891749 -1.7968e-15 -1.34746e-16)
(0.891749 -4.79266e-16 -1.89913e-18)
(0.893415 -1.78278e-15 -1.42586e-16)
(0.893415 -4.90565e-16 -2.4145e-18)
(0.895079 -1.769e-15 -1.49784e-16)
(0.895079 -5.02319e-16 -2.89051e-18)
(0.89674 -1.76408e-15 -1.57282e-16)
(0.89674 -5.10134e-16 -2.15093e-18)
(0.8984 -1.76295e-15 -1.64928e-16)
(0.8984 -5.05061e-16 -2.38528e-18)
(0.900057 -1.76013e-15 -1.73792e-16)
(0.900057 -5.00746e-16 -4.218e-18)
(0.901713 -1.75594e-15 -1.83003e-16)
(0.901713 -5.0024e-16 -5.83164e-18)
(0.903366 -1.75023e-15 -1.81088e-16)
(0.903366 -5.05295e-16 -6.44699e-18)
(0.905017 -1.74318e-15 -1.79312e-16)
(0.905017 -5.14353e-16 -6.26784e-18)
(0.906666 -1.7364e-15 -1.77411e-16)
(0.906666 -5.21338e-16 -6.00848e-18)
(0.908314 -1.73128e-15 -1.75675e-16)
(0.908314 -5.32614e-16 -5.02613e-18)
(0.909959 -1.72501e-15 -1.74269e-16)
(0.909959 -5.49848e-16 -5.03237e-18)
(0.911602 -1.7182e-15 -1.73021e-16)
(0.911602 -5.54553e-16 -6.42287e-18)
(0.913244 -1.70895e-15 -1.72055e-16)
(0.913244 -5.61861e-16 -6.10322e-18)
(0.914884 -1.70067e-15 -1.71551e-16)
(0.914884 -5.6825e-16 -3.85077e-18)
(0.916521 -1.69448e-15 -1.70986e-16)
(0.916521 -5.77409e-16 -4.5959e-18)
(0.918157 -1.687e-15 -1.69011e-16)
(0.918157 -5.87865e-16 -7.39751e-18)
(0.919791 -1.67739e-15 -1.67166e-16)
(0.919791 -5.91682e-16 -5.79528e-18)
(0.921424 -1.66547e-15 -1.66652e-16)
(0.921424 -6.02945e-16 -3.14828e-18)
(0.923054 -1.65496e-15 -1.66238e-16)
(0.923054 -6.29242e-16 -4.42373e-18)
(0.924683 -1.64457e-15 -1.65063e-16)
(0.924683 -6.31992e-16 -5.58747e-18)
(0.926309 -1.62917e-15 -1.63739e-16)
(0.926309 -6.43167e-16 -3.58855e-18)
(0.927934 -1.61335e-15 -1.63193e-16)
(0.927934 -6.55522e-16 -3.024e-18)
(0.929558 -1.60327e-15 -1.62099e-16)
(0.929558 -6.6022e-16 -3.77726e-18)
(0.931179 -1.59415e-15 -1.60447e-16)
(0.931179 -6.60781e-16 -5.69157e-18)
(0.932799 -1.5877e-15 -1.58226e-16)
(0.932799 -6.57548e-16 -6.80128e-18)
(0.934417 -1.5815e-15 -1.55769e-16)
(0.934417 -6.62324e-16 -5.88003e-18)
(0.936033 -1.57471e-15 -1.53435e-16)
(0.936033 -6.79883e-16 -5.41686e-18)
(0.937647 -1.56334e-15 -1.5173e-16)
(0.937647 -6.98219e-16 -5.93845e-18)
(0.939259 -1.54982e-15 -1.50319e-16)
(0.939259 -7.06643e-16 -5.59388e-18)
(0.94087 -1.54507e-15 -1.48591e-16)
(0.94087 -7.17621e-16 -2.43209e-18)
(0.942479 -1.5356e-15 -1.46537e-16)
(0.942479 -7.25723e-16 -2.40377e-18)
(0.944086 -1.52202e-15 -1.44005e-16)
(0.944086 -7.28952e-16 -7.17864e-18)
(0.945692 -1.5109e-15 -1.39621e-16)
(0.945692 -7.38226e-16 -9.3913e-18)
(0.947295 -1.4997e-15 -1.36514e-16)
(0.947295 -7.4574e-16 -5.25954e-18)
(0.948897 -1.49285e-15 -1.34448e-16)
(0.948897 -7.56306e-16 -6.40353e-19)
(0.950497 -1.47821e-15 -1.32903e-16)
(0.950497 -7.6511e-16 1.84118e-19)
(0.952095 -1.46411e-15 -1.32612e-16)
(0.952095 -7.86666e-16 -3.24877e-18)
(0.953691 -1.45793e-15 -1.31204e-16)
(0.953691 -7.95683e-16 -5.25594e-18)
(0.955285 -1.44792e-15 -1.29939e-16)
(0.955285 -7.99745e-16 -9.88773e-19)
(0.956878 -1.43365e-15 -1.2971e-16)
(0.956878 -8.07666e-16 -7.19014e-18)
(0.958468 -1.41924e-15 -1.28341e-16)
(0.958468 -8.32436e-16 -1.19684e-17)
(0.960057 -1.40971e-15 -1.26858e-16)
(0.960057 -8.44493e-16 -1.38268e-17)
(0.961643 -1.39674e-15 -1.2652e-16)
(0.961643 -8.51633e-16 -1.59152e-17)
(0.963228 -1.38527e-15 -1.28522e-16)
(0.963228 -8.62269e-16 -1.44666e-17)
(0.964811 -1.37755e-15 -1.26393e-16)
(0.964811 -8.63468e-16 -1.80088e-17)
(0.966391 -1.36671e-15 -1.22684e-16)
(0.966391 -8.58889e-16 -2.26026e-17)
(0.96797 -1.35086e-15 -1.21107e-16)
(0.96797 -8.67655e-16 -2.49175e-17)
(0.969546 -1.33875e-15 -1.28953e-16)
(0.969546 -8.79049e-16 -2.45608e-17)
(0.97112 -1.33239e-15 -1.3072e-16)
(0.97112 -8.78688e-16 -2.52479e-17)
(0.972693 -1.31861e-15 -1.31705e-16)
(0.972693 -8.83037e-16 -2.7708e-17)
(0.974262 -1.31109e-15 -1.31331e-16)
(0.974262 -8.96112e-16 -2.97971e-17)
(0.97583 -1.29986e-15 -1.29544e-16)
(0.97583 -8.94236e-16 -3.04826e-17)
(0.977395 -1.28021e-15 -1.28055e-16)
(0.977395 -8.91651e-16 -3.1338e-17)
(0.978958 -1.26864e-15 -1.24511e-16)
(0.978958 -9.04692e-16 -3.27649e-17)
(0.980519 -1.25949e-15 -1.21691e-16)
(0.980519 -8.97878e-16 -3.33926e-17)
(0.982077 -1.24252e-15 -1.19024e-16)
(0.982077 -8.91952e-16 -3.32303e-17)
(0.983633 -1.22719e-15 -1.19711e-16)
(0.983633 -8.93968e-16 -3.41612e-17)
(0.985186 -1.21658e-15 -1.20308e-16)
(0.985186 -8.93456e-16 -3.66284e-17)
(0.986736 -1.20674e-15 -1.24937e-16)
(0.986736 -8.90962e-16 -3.95894e-17)
(0.988284 -1.20303e-15 -1.27005e-16)
(0.988284 -8.73128e-16 -4.32741e-17)
(0.989829 -1.2015e-15 -1.26246e-16)
(0.989829 -8.66373e-16 -4.63863e-17)
(0.991371 -1.18579e-15 -1.25965e-16)
(0.991371 -8.70476e-16 -5.28836e-17)
(0.992911 -1.1695e-15 -1.27561e-16)
(0.992911 -8.63997e-16 -5.57038e-17)
(0.994447 -1.16827e-15 -1.30972e-16)
(0.994447 -8.60745e-16 -5.6208e-17)
(0.995981 -1.16482e-15 -1.33689e-16)
(0.995981 -8.52215e-16 -5.6578e-17)
(0.997511 -1.15857e-15 -1.32376e-16)
(0.997511 -8.5762e-16 -6.02212e-17)
(0.999038 -1.13648e-15 -1.27213e-16)
(0.999038 -8.7353e-16 -6.19784e-17)
(1.00056 -1.10299e-15 -1.23168e-16)
(1.00056 -8.77474e-16 -6.94974e-17)
(1.00208 -1.08844e-15 -1.20928e-16)
(1.00208 -8.83662e-16 -7.35267e-17)
(1.0036 -1.07687e-15 -1.13579e-16)
(1.0036 -8.78449e-16 -7.68742e-17)
(1.00511 -1.05578e-15 -1.00992e-16)
(1.00511 -8.61842e-16 -8.12246e-17)
(1.00662 -1.04367e-15 -9.26569e-17)
(1.00662 -8.50737e-16 -8.43035e-17)
(1.00813 -1.03875e-15 -8.50051e-17)
(1.00813 -8.46781e-16 -9.11982e-17)
(1.00963 -1.03789e-15 -7.99903e-17)
(1.00963 -8.58158e-16 -9.53661e-17)
(1.01113 -1.02833e-15 -8.28284e-17)
(1.01113 -8.57644e-16 -9.65537e-17)
(1.01262 -1.00145e-15 -8.00556e-17)
(1.01262 -8.69268e-16 -1.03636e-16)
(1.01411 -9.84015e-16 -8.42639e-17)
(1.01411 -8.98097e-16 -1.02696e-16)
(1.01559 -9.67723e-16 -9.55583e-17)
(1.01559 -9.10263e-16 -9.01417e-17)
(1.01707 -9.60257e-16 -9.75693e-17)
(1.01707 -9.20122e-16 -7.79892e-17)
(1.01855 -9.65976e-16 -9.45917e-17)
(1.01855 -9.30884e-16 -6.87065e-17)
(1.02002 -9.61996e-16 -9.83473e-17)
(1.02002 -9.36865e-16 -6.14586e-17)
(1.02148 -9.53908e-16 -9.60563e-17)
(1.02148 -9.43365e-16 -5.68924e-17)
(1.02294 -9.28183e-16 -9.79864e-17)
(1.02294 -9.39257e-16 -5.88046e-17)
(1.0244 -9.66353e-16 -9.7743e-17)
(1.0244 -9.25273e-16 -6.14153e-17)
(1.02585 -9.57767e-16 -9.68878e-17)
(1.02585 -9.2993e-16 -5.18656e-17)
(1.02729 -9.39047e-16 -9.91952e-17)
(1.02729 -9.1663e-16 -3.87515e-17)
(1.02873 -9.11054e-16 -1.108e-16)
(1.02873 -8.7852e-16 -3.84555e-17)
(1.03016 -9.45748e-16 -1.08746e-16)
(1.03016 -8.90839e-16 -4.34267e-17)
(1.03158 -9.36691e-16 -1.07785e-16)
(1.03158 -8.6207e-16 -4.47146e-17)
(1.033 -9.19257e-16 -1.03663e-16)
(1.033 -8.60016e-16 -5.38834e-17)
(1.03441 -8.85695e-16 -1.0121e-16)
(1.03441 -9.03141e-16 -6.04221e-17)
(1.03581 -8.58092e-16 -1.08941e-16)
(1.03581 -9.25127e-16 -6.61009e-17)
(1.03721 -8.65912e-16 -1.18283e-16)
(1.03721 -8.86384e-16 -7.104e-17)
(1.03859 -8.7459e-16 -1.20936e-16)
(1.03859 -9.03006e-16 -7.58858e-17)
(1.03997 -8.74407e-16 -1.1998e-16)
(1.03997 -8.95112e-16 -7.24156e-17)
(1.04134 -8.63189e-16 -1.16083e-16)
(1.04134 -8.86198e-16 -7.53014e-17)
(1.0427 -8.62179e-16 -1.05998e-16)
(1.0427 -8.86418e-16 -8.1957e-17)
(1.04406 -8.39374e-16 -1.01943e-16)
(1.04406 -8.79048e-16 -8.82515e-17)
(1.0454 -8.95893e-16 -8.89557e-17)
(1.0454 -8.62734e-16 -9.43528e-17)
(1.04673 -8.86909e-16 -8.33863e-17)
(1.04673 -8.44244e-16 -9.24283e-17)
(1.04805 -8.7516e-16 -7.29897e-17)
(1.04805 -8.34255e-16 -9.01318e-17)
(1.04936 -8.45291e-16 -7.76674e-17)
(1.04936 -8.49697e-16 -9.58531e-17)
(1.05066 -8.22868e-16 -9.32679e-17)
(1.05066 -8.78741e-16 -9.34874e-17)
(1.05195 -8.20569e-16 -1.00631e-16)
(1.05195 -8.48514e-16 -9.50122e-17)
(1.05323 -7.99329e-16 -9.48891e-17)
(1.05323 -8.3157e-16 -1.01206e-16)
(1.05449 -7.86756e-16 -9.75054e-17)
(1.05449 -8.4151e-16 -1.08112e-16)
(1.05574 -7.76373e-16 -1.214e-16)
(1.05574 -8.56332e-16 -1.19707e-16)
(1.05698 -8.02755e-16 -1.33599e-16)
(1.05698 -8.36163e-16 -1.27557e-16)
(1.0582 -8.11066e-16 -1.46815e-16)
(1.0582 -8.41143e-16 -1.29401e-16)
(1.0594 -8.09364e-16 -1.40883e-16)
(1.0594 -8.13788e-16 -1.27654e-16)
(1.06059 -7.78302e-16 -1.50739e-16)
(1.06059 -7.60361e-16 -1.35685e-16)
(1.06176 -7.87214e-16 -1.6308e-16)
(1.06176 -7.45758e-16 -1.46166e-16)
(1.06292 -7.62264e-16 -1.29788e-16)
(1.06292 -7.20303e-16 -1.44641e-16)
(1.06405 -7.12236e-16 -1.14625e-16)
(1.06405 -7.03299e-16 -1.39926e-16)
(1.06517 -6.93643e-16 -1.18371e-16)
(1.06517 -6.84944e-16 -1.14936e-16)
(1.06627 -6.73664e-16 -1.10939e-16)
(1.06627 -6.69136e-16 -8.5761e-17)
(1.06734 -6.09722e-16 -1.09399e-16)
(1.06734 -6.59447e-16 -6.60787e-17)
(1.06839 -4.93843e-16 -1.43216e-16)
(1.06839 -6.01013e-16 -5.68208e-17)
(1.06942 -5.9108e-16 -9.29107e-17)
(1.06942 -5.94676e-16 -5.19738e-17)
(1.07043 -6.17696e-16 -9.47169e-17)
(1.07043 -6.40895e-16 -5.1737e-17)
(1.0714 -6.23551e-16 -9.82633e-17)
(1.0714 -6.20207e-16 -2.35708e-17)
(1.07235 -6.36891e-16 -1.03422e-16)
(1.07235 -6.41715e-16 -2.90801e-18)
(1.07327 -6.31974e-16 -9.98636e-17)
(1.07327 -6.59697e-16 1.46347e-17)
(1.07416 -6.14817e-16 -1.00533e-16)
(1.07416 -6.19551e-16 2.63159e-17)
(1.07502 -6.54701e-16 -1.09412e-16)
(1.07502 -5.97753e-16 3.46009e-17)
(1.07584 -6.28574e-16 -7.24933e-17)
(1.07584 -6.09519e-16 1.55867e-17)
(1.07662 -6.34452e-16 -6.70918e-17)
(1.07662 -6.03034e-16 -6.95859e-18)
(1.07737 -6.36385e-16 -5.5185e-17)
(1.07737 -5.94501e-16 -1.77463e-17)
(1.07808 -6.04426e-16 -4.75406e-17)
(1.07808 -5.72515e-16 -1.36466e-17)
(1.07874 -5.62231e-16 -3.87998e-17)
(1.07874 -5.61538e-16 -2.21447e-17)
(1.07936 -5.29382e-16 -5.89415e-17)
(1.07936 -5.47997e-16 -3.16481e-17)
(1.07993 -5.39794e-16 -1.04614e-16)
(1.07993 -5.27137e-16 -3.53212e-17)
(1.08044 -5.50954e-16 -8.207e-17)
(1.08044 -5.10215e-16 -5.04497e-17)
(1.08091 -5.02463e-16 -7.21972e-17)
(1.08091 -4.87925e-16 -6.17893e-17)
(1.08132 -5.09652e-16 -5.73688e-17)
(1.08132 -4.94305e-16 -8.78986e-17)
(1.08166 -4.99224e-16 -4.11819e-17)
(1.08166 -4.8818e-16 -1.1572e-16)
(1.08195 -4.71424e-16 -3.86187e-17)
(1.08195 -4.55681e-16 -9.37701e-17)
(1.08217 -4.23233e-16 -6.02568e-17)
(1.08217 -4.46487e-16 -7.71519e-17)
(1.08232 -3.92459e-16 -8.21227e-17)
(1.08232 -4.43086e-16 -6.51142e-17)
(1.08239 -3.78811e-16 -8.81689e-17)
(1.08239 -3.9022e-16 -6.28074e-17)
(0.0155908 -5.22518e-19 2.33881e-17)
(0.0155908 -3.27856e-19 6.55104e-17)
(0.0469941 -5.19276e-19 2.62945e-17)
(0.0469941 2.95279e-19 -1.07786e-17)
(0.0788447 -2.00269e-18 2.70248e-17)
(0.0788447 5.33934e-21 -1.11148e-17)
(0.111118 -3.24096e-18 2.77081e-17)
(0.111118 -2.50168e-20 -1.1452e-17)
(0.143697 -4.42979e-18 2.82201e-17)
(0.143697 -1.30835e-19 -1.17405e-17)
(0.176276 -5.62551e-18 2.83547e-17)
(0.176276 -2.90176e-19 -1.18953e-17)
(0.208283 -6.89254e-18 2.78946e-17)
(0.208283 -3.8701e-19 -1.18209e-17)
(0.238966 -8.09103e-18 2.67581e-17)
(0.238966 -3.34978e-19 -1.1474e-17)
(0.267627 -9.1966e-18 2.50753e-17)
(0.267627 -5.06761e-19 -1.08996e-17)
(0.293844 -1.02695e-17 2.31063e-17)
(0.293844 -5.34997e-19 -1.01987e-17)
(0.317514 -1.12852e-17 2.11011e-17)
(0.317514 -5.47719e-19 -9.47289e-18)
(0.338771 -1.22498e-17 1.92184e-17)
(0.338771 -6.63842e-19 -8.7888e-18)
(0.357861 -1.32008e-17 1.75296e-17)
(0.357861 -6.71793e-19 -8.18145e-18)
(0.375064 -1.41699e-17 1.60515e-17)
(0.375064 -8.0266e-19 -7.66254e-18)
(0.390642 -1.50947e-17 1.47708e-17)
(0.390642 -8.50322e-19 -7.22578e-18)
(0.404829 -1.5981e-17 1.36622e-17)
(0.404829 -6.22233e-19 -6.85925e-18)
(0.417824 -1.66899e-17 1.27007e-17)
(0.417824 -3.36043e-19 -6.55331e-18)
(0.429793 -1.73841e-17 1.18648e-17)
(0.429793 -3.58885e-19 -6.29848e-18)
(0.440876 -1.79277e-17 1.11335e-17)
(0.440876 -1.70473e-19 -6.08798e-18)
(0.451188 -1.80529e-17 1.04932e-17)
(0.451188 -2.59268e-19 -5.917e-18)
(0.460825 -1.81326e-17 9.93166e-18)
(0.460825 -6.14455e-19 -5.78564e-18)
(0.469869 -1.82035e-17 9.44002e-18)
(0.469869 -6.80337e-19 -5.68696e-18)
(0.478388 -1.81885e-17 9.00473e-18)
(0.478388 -8.73484e-19 -5.6191e-18)
(0.48644 -1.84147e-17 8.62058e-18)
(0.48644 -1.22217e-18 -5.57103e-18)
(0.494074 -1.86887e-17 8.27351e-18)
(0.494074 -1.24675e-18 -5.53952e-18)
(0.501333 -1.89809e-17 7.96201e-18)
(0.501333 -1.21887e-18 -5.52886e-18)
(0.508253 -1.95008e-17 7.6833e-18)
(0.508253 -1.41209e-18 -5.53181e-18)
(0.514867 -2.00197e-17 7.43109e-18)
(0.514867 -1.42521e-18 -5.55091e-18)
(0.521201 -2.04955e-17 7.20339e-18)
(0.521201 -1.17999e-18 -5.58503e-18)
(0.527281 -2.08318e-17 6.98881e-18)
(0.527281 -1.34134e-18 -5.63318e-18)
(0.533128 -2.09599e-17 6.79215e-18)
(0.533128 -1.77116e-18 -5.69788e-18)
(0.53876 -2.12219e-17 6.61358e-18)
(0.53876 -1.72387e-18 -5.78449e-18)
(0.544194 -2.18268e-17 6.44992e-18)
(0.544194 -1.62368e-18 -5.89506e-18)
(0.549446 -2.21636e-17 6.29259e-18)
(0.549446 -2.07201e-18 -6.0225e-18)
(0.554529 -2.23354e-17 6.14846e-18)
(0.554529 -2.08534e-18 -6.16565e-18)
(0.559454 -2.26468e-17 6.01547e-18)
(0.559454 -2.05508e-18 -6.32853e-18)
(0.564234 -2.28646e-17 5.894e-18)
(0.564234 -2.01727e-18 -6.51408e-18)
(0.568876 -2.30571e-17 5.7819e-18)
(0.568876 -2.30803e-18 -6.72007e-18)
(0.573391 -2.34042e-17 5.67344e-18)
(0.573391 -2.65442e-18 -6.94202e-18)
(0.577787 -2.38574e-17 5.57093e-18)
(0.577787 -2.2841e-18 -7.18852e-18)
(0.58207 -2.38605e-17 5.47584e-18)
(0.58207 -2.086e-18 -7.45168e-18)
(0.586248 -2.38034e-17 5.39396e-18)
(0.586248 -2.24294e-18 -7.72328e-18)
(0.590327 -2.42879e-17 5.32215e-18)
(0.590327 -2.36826e-18 -7.99422e-18)
(0.594312 -2.48198e-17 5.24202e-18)
(0.594312 -1.95409e-18 -8.25714e-18)
(0.598209 -2.50889e-17 5.17052e-18)
(0.598209 -1.86845e-18 -8.52278e-18)
(0.602022 -2.52405e-17 5.09621e-18)
(0.602022 -1.0873e-18 -8.77989e-18)
(0.605756 -2.55861e-17 5.02314e-18)
(0.605756 -6.29743e-19 -9.03797e-18)
(0.609415 -2.60492e-17 4.9609e-18)
(0.609415 -9.46597e-19 -9.29148e-18)
(0.613003 -2.66627e-17 4.89697e-18)
(0.613003 -9.96824e-19 -9.53784e-18)
(0.616523 -2.72684e-17 4.83567e-18)
(0.616523 -7.60347e-19 -9.77665e-18)
(0.619979 -2.75936e-17 4.77758e-18)
(0.619979 -6.904e-19 -1.00099e-17)
(0.623374 -2.81948e-17 4.71921e-18)
(0.623374 -9.26087e-19 -1.02292e-17)
(0.62671 -2.84372e-17 4.66524e-18)
(0.62671 -1.42696e-18 -1.04494e-17)
(0.62999 -2.82841e-17 4.61884e-18)
(0.62999 -1.78717e-18 -1.06629e-17)
(0.633217 -2.88596e-17 4.58592e-18)
(0.633217 -9.62995e-19 -1.08642e-17)
(0.636393 -2.95126e-17 4.54596e-18)
(0.636393 -1.06897e-18 -1.1049e-17)
(0.639521 -2.98941e-17 4.50815e-18)
(0.639521 -1.51241e-18 -1.12291e-17)
(0.642602 -3.00097e-17 4.47144e-18)
(0.642602 -1.69352e-18 -1.14082e-17)
(0.645638 -2.99493e-17 4.45007e-18)
(0.645638 -2.53878e-18 -1.15924e-17)
(0.648631 -3.0215e-17 4.42145e-18)
(0.648631 -2.86512e-18 -1.17588e-17)
(0.651584 -3.05426e-17 4.38798e-18)
(0.651584 -3.35734e-18 -1.19119e-17)
(0.654497 -3.08646e-17 4.36151e-18)
(0.654497 -3.60198e-18 -1.2054e-17)
(0.657372 -3.1375e-17 4.34688e-18)
(0.657372 -3.92332e-18 -1.22044e-17)
(0.66021 -3.20113e-17 4.32392e-18)
(0.66021 -4.28985e-18 -1.23281e-17)
(0.663013 -3.30564e-17 4.30793e-18)
(0.663013 -4.66021e-18 -1.24387e-17)
(0.665783 -3.41114e-17 4.30593e-18)
(0.665783 -5.91562e-18 -1.25514e-17)
(0.66852 -3.45837e-17 4.3162e-18)
(0.66852 -6.11627e-18 -1.26547e-17)
(0.671226 -3.49689e-17 4.34203e-18)
(0.671226 -5.72884e-18 -1.27542e-17)
(0.673901 -3.54244e-17 4.34528e-18)
(0.673901 -5.94732e-18 -1.28359e-17)
(0.676548 -3.59293e-17 4.33452e-18)
(0.676548 -6.28581e-18 -1.2923e-17)
(0.679166 -3.66806e-17 4.3188e-18)
(0.679166 -6.76075e-18 -1.30208e-17)
(0.681757 -3.69137e-17 4.28469e-18)
(0.681757 -7.56915e-18 -1.31259e-17)
(0.684322 -3.69873e-17 4.25571e-18)
(0.684322 -8.2882e-18 -1.32404e-17)
(0.686862 -3.64958e-17 4.23182e-18)
(0.686862 -8.50618e-18 -1.33476e-17)
(0.689377 -3.61599e-17 4.24033e-18)
(0.689377 -8.79506e-18 -1.34546e-17)
(0.691868 -3.63803e-17 4.24871e-18)
(0.691868 -9.77138e-18 -1.35612e-17)
(0.694336 -3.64566e-17 4.26855e-18)
(0.694336 -9.83518e-18 -1.36962e-17)
(0.696782 -3.68483e-17 4.30715e-18)
(0.696782 -9.75067e-18 -1.38494e-17)
(0.699207 -3.72145e-17 4.35424e-18)
(0.699207 -9.96313e-18 -1.39876e-17)
(0.70161 -3.74951e-17 4.43193e-18)
(0.70161 -1.06093e-17 -1.4117e-17)
(0.703994 -3.79872e-17 4.56848e-18)
(0.703994 -1.17595e-17 -1.42594e-17)