/*--------------------------------*- C++ -*----------------------------------*\
| =========                 |                                                 |
| \\      /  F ield         | OpenFOAM: The Open Source CFD Toolbox           |
|  \\    /   O peration     | Version:  2106                                  |
|   \\  /    A nd           | Website:  www.openfoam.com                      |
|    \\/     M anipulation  |                                                 |
\*---------------------------------------------------------------------------*/
FoamFile
{
    version     2.0;
    format      ascii;
    arch        "LSB;label=32;scalar=64";
    class       surfaceScalarField;
    location    "14000";
    object      phi;
}
// * * * * * * * * * * * * * * * * * * * * * * * * * * * * * * * * * * * * * //

dimensions      [0 3 -1 0 0 0 0];

oriented        oriented;

internalField   nonuniform List<scalar> 
5116
(
1.62374e-08
-7.92316e-18
-3.06867e-22
-6.48026e-22
-2.72789e-24
4.96552e-08
-7.91955e-18
-1.2521e-21
-2.81836e-21
-1.69356e-22
8.45258e-08
-7.91582e-18
-1.29777e-21
-5.0725e-21
-1.76852e-22
1.20898e-07
-7.91193e-18
-1.34588e-21
-7.4282e-21
-1.84673e-22
1.58824e-07
-7.90796e-18
-1.39168e-21
-9.8034e-21
-1.92835e-22
1.98355e-07
-7.9039e-18
-1.43618e-21
-1.22623e-20
-2.01353e-22
2.39545e-07
-7.89959e-18
-1.48135e-21
-1.48316e-20
-2.10242e-22
2.82451e-07
-7.89529e-18
-1.52773e-21
-1.74e-20
-2.19518e-22
3.27129e-07
-7.89081e-18
-1.57546e-21
-2.00736e-20
-2.29197e-22
3.73638e-07
-7.88617e-18
-1.62462e-21
-2.28204e-20
-2.39298e-22
4.2204e-07
-7.88141e-18
-1.67531e-21
-2.56068e-20
-2.49838e-22
4.72398e-07
-7.87647e-18
-1.72761e-21
-2.85418e-20
-2.60835e-22
5.24776e-07
-7.87132e-18
-1.78159e-21
-3.14966e-20
-2.72307e-22
5.7924e-07
-7.86604e-18
-1.83731e-21
-3.45203e-20
-2.84274e-22
6.3586e-07
-7.86064e-18
-1.89482e-21
-3.76976e-20
-2.96759e-22
6.94705e-07
-7.85509e-18
-1.95418e-21
-4.10905e-20
-3.09777e-22
7.55848e-07
-7.84915e-18
-2.01544e-21
-4.46108e-20
-3.2335e-22
8.19362e-07
-7.84314e-18
-2.07867e-21
-4.83399e-20
-3.37495e-22
8.85325e-07
-7.83713e-18
-2.1439e-21
-5.19632e-20
-3.52234e-22
9.53814e-07
-7.83089e-18
-2.21118e-21
-5.55588e-20
-3.6759e-22
1.02491e-06
-7.82461e-18
-2.28057e-21
-5.90706e-20
-3.8359e-22
1.09869e-06
-7.81819e-18
-2.35209e-21
-6.25955e-20
-4.00258e-22
1.17524e-06
-7.81176e-18
-2.42578e-21
-6.64661e-20
-4.17619e-22
1.25465e-06
-7.80485e-18
-2.50165e-21
-7.04599e-20
-4.3568e-22
1.33699e-06
-7.79755e-18
-2.57972e-21
-7.47137e-20
-4.54458e-22
1.42236e-06
-7.79013e-18
-2.66001e-21
-7.9017e-20
-4.73966e-22
1.51083e-06
-7.7827e-18
-2.74248e-21
-8.33426e-20
-4.94217e-22
1.60251e-06
-7.77486e-18
-2.82709e-21
-8.82736e-20
-5.15218e-22
1.69746e-06
-7.76648e-18
-2.9138e-21
-9.30044e-20
-5.36962e-22
1.79578e-06
-7.75783e-18
-3.00253e-21
-9.78859e-20
-5.59455e-22
1.89756e-06
-7.749e-18
-3.09316e-21
-1.02937e-19
-5.82691e-22
2.00286e-06
-7.74082e-18
-3.18557e-21
-1.07889e-19
-6.06671e-22
2.11177e-06
-7.73182e-18
-3.27957e-21
-1.13157e-19
-6.3137e-22
2.22436e-06
-7.7225e-18
-3.37496e-21
-1.18336e-19
-6.56757e-22
2.3407e-06
-7.71293e-18
-3.47149e-21
-1.23811e-19
-6.82802e-22
2.46086e-06
-7.70272e-18
-3.56889e-21
-1.29575e-19
-7.09462e-22
2.58489e-06
-7.69256e-18
-3.66686e-21
-1.35108e-19
-7.36673e-22
2.71284e-06
-7.68227e-18
-3.76503e-21
-1.40902e-19
-7.64375e-22
2.84476e-06
-7.67132e-18
-3.86304e-21
-1.46557e-19
-7.92476e-22
2.98068e-06
-7.66024e-18
-3.96049e-21
-1.52937e-19
-8.20911e-22
3.12062e-06
-7.64865e-18
-4.05693e-21
-1.58793e-19
-8.49586e-22
3.2646e-06
-7.63727e-18
-4.15191e-21
-1.65326e-19
-8.78426e-22
3.41263e-06
-7.62537e-18
-4.24497e-21
-1.72382e-19
-9.07298e-22
3.5647e-06
-7.61316e-18
-4.33567e-21
-1.79136e-19
-9.36102e-22
3.7208e-06
-7.60076e-18
-4.42356e-21
-1.86614e-19
-9.64781e-22
3.88091e-06
-7.5881e-18
-4.50824e-21
-1.93084e-19
-9.93182e-22
4.04501e-06
-7.57755e-18
-4.58931e-21
-1.9975e-19
-1.0212e-21
4.21305e-06
-7.56499e-18
-4.66637e-21
-2.0578e-19
-1.04875e-21
4.38499e-06
-7.55218e-18
-4.7392e-21
-2.13138e-19
-1.07577e-21
4.5608e-06
-7.54062e-18
-4.80751e-21
-2.19563e-19
-1.10216e-21
4.74041e-06
-7.52784e-18
-4.8711e-21
-2.25875e-19
-1.12792e-21
4.92377e-06
-7.51427e-18
-4.92979e-21
-2.32825e-19
-1.153e-21
5.11085e-06
-7.5002e-18
-4.98353e-21
-2.4097e-19
-1.17735e-21
5.30157e-06
-7.48749e-18
-5.03224e-21
-2.47781e-19
-1.20091e-21
5.4959e-06
-7.47325e-18
-5.07588e-21
-2.5598e-19
-1.22374e-21
5.69378e-06
-7.45986e-18
-5.1146e-21
-2.63799e-19
-1.2457e-21
5.89517e-06
-7.4461e-18
-5.14846e-21
-2.71535e-19
-1.26682e-21
6.10003e-06
-7.43274e-18
-5.17765e-21
-2.78566e-19
-1.28715e-21
6.30833e-06
-7.41893e-18
-5.20229e-21
-2.86519e-19
-1.30672e-21
6.52004e-06
-7.40504e-18
-5.22261e-21
-2.94993e-19
-1.32544e-21
6.73515e-06
-7.39106e-18
-5.23885e-21
-3.03561e-19
-1.34335e-21
6.95362e-06
-7.3758e-18
-5.25117e-21
-3.1154e-19
-1.36046e-21
7.17547e-06
-7.36098e-18
-5.25986e-21
-3.19566e-19
-1.37688e-21
7.40068e-06
-7.34728e-18
-5.26509e-21
-3.26631e-19
-1.39254e-21
7.62925e-06
-7.33196e-18
-5.26702e-21
-3.34959e-19
-1.4076e-21
7.86121e-06
-7.3187e-18
-5.2661e-21
-3.43302e-19
-1.42204e-21
8.09656e-06
-7.3051e-18
-5.26228e-21
-3.49291e-19
-1.43594e-21
8.33534e-06
-7.29328e-18
-5.25581e-21
-3.54161e-19
-1.44938e-21
8.57756e-06
-7.2813e-18
-5.24669e-21
-3.59723e-19
-1.4624e-21
8.82326e-06
-7.26619e-18
-5.23507e-21
-3.67376e-19
-1.47495e-21
9.07249e-06
-7.2511e-18
-5.22132e-21
-3.74581e-19
-1.48718e-21
9.32527e-06
-7.23764e-18
-5.20548e-21
-3.82785e-19
-1.49915e-21
9.58167e-06
-7.22496e-18
-5.18755e-21
-3.89349e-19
-1.51087e-21
9.84173e-06
-7.21068e-18
-5.1676e-21
-3.96184e-19
-1.52223e-21
1.01055e-05
-7.19666e-18
-5.14587e-21
-4.02343e-19
-1.53318e-21
1.03731e-05
-7.18257e-18
-5.12247e-21
-4.06776e-19
-1.54391e-21
1.06445e-05
-7.16821e-18
-5.09752e-21
-4.14021e-19
-1.5544e-21
1.09198e-05
-7.15511e-18
-5.07123e-21
-4.19241e-19
-1.56427e-21
1.1199e-05
-7.1416e-18
-5.04369e-21
-4.26217e-19
-1.57368e-21
1.14824e-05
-7.12776e-18
-5.01476e-21
-4.31168e-19
-1.58246e-21
1.17698e-05
-7.11346e-18
-4.98457e-21
-4.37056e-19
-1.5909e-21
1.20614e-05
-7.10304e-18
-4.95301e-21
-4.40348e-19
-1.59897e-21
1.23573e-05
-7.08894e-18
-4.91997e-21
-4.42984e-19
-1.60676e-21
1.26576e-05
-7.07085e-18
-4.88605e-21
-4.52382e-19
-1.61389e-21
1.29623e-05
-7.05686e-18
-4.85146e-21
-4.58611e-19
-1.61997e-21
1.32715e-05
-7.04664e-18
-4.81562e-21
-4.62554e-19
-1.62527e-21
1.35853e-05
-7.02979e-18
-4.77812e-21
-4.69267e-19
-1.63018e-21
1.39039e-05
-7.01646e-18
-4.73965e-21
-4.76979e-19
-1.63413e-21
1.42271e-05
-7.0009e-18
-4.69969e-21
-4.83272e-19
-1.63699e-21
1.45553e-05
-6.9877e-18
-4.65852e-21
-4.91186e-19
-1.63907e-21
1.48885e-05
-6.9733e-18
-4.61615e-21
-4.98611e-19
-1.64035e-21
1.52267e-05
-6.96171e-18
-4.57273e-21
-5.06266e-19
-1.6408e-21
1.557e-05
-6.95091e-18
-4.5281e-21
-5.12375e-19
-1.63985e-21
1.59187e-05
-6.94412e-18
-4.48209e-21
-5.1656e-19
-1.63771e-21
1.62726e-05
-6.93744e-18
-4.43454e-21
-5.16842e-19
-1.63466e-21
1.66321e-05
-6.93321e-18
-4.3852e-21
-5.22408e-19
-1.63152e-21
1.69971e-05
-6.91921e-18
-4.33282e-21
-5.26753e-19
-1.62764e-21
1.73677e-05
-6.90394e-18
-4.27891e-21
-5.33665e-19
-1.62222e-21
1.77442e-05
-6.89052e-18
-4.22534e-21
-5.3797e-19
-1.61447e-21
1.81265e-05
-6.8758e-18
-4.1711e-21
-5.45053e-19
-1.6052e-21
1.85148e-05
-6.86168e-18
-4.11652e-21
-5.49943e-19
-1.59398e-21
1.89092e-05
-6.85031e-18
-4.06103e-21
-5.56664e-19
-1.58121e-21
1.93098e-05
-6.83789e-18
-4.00574e-21
-5.61623e-19
-1.56642e-21
1.97168e-05
-6.82535e-18
-3.95024e-21
-5.66473e-19
-1.54999e-21
2.01302e-05
-6.81504e-18
-3.89398e-21
-5.73523e-19
-1.53171e-21
2.05501e-05
-6.80506e-18
-3.83777e-21
-5.81027e-19
-1.51131e-21
2.09768e-05
-6.79323e-18
-3.7802e-21
-5.8876e-19
-1.48829e-21
2.14102e-05
-6.77863e-18
-3.72205e-21
-5.95614e-19
-1.46399e-21
2.18505e-05
-6.77319e-18
-3.66347e-21
-5.98945e-19
-1.43766e-21
2.22979e-05
-6.76166e-18
-3.60372e-21
-6.02313e-19
-1.41003e-21
2.27525e-05
-6.74967e-18
-3.5428e-21
-6.10818e-19
-1.38099e-21
2.32144e-05
-6.73654e-18
-3.48042e-21
-6.22251e-19
-1.34924e-21
2.36837e-05
-6.73114e-18
-3.41654e-21
-6.24453e-19
-1.31497e-21
2.41606e-05
-6.72646e-18
-3.34995e-21
-6.25416e-19
-1.28004e-21
2.46451e-05
-6.71795e-18
-3.27925e-21
-6.30254e-19
-1.24523e-21
2.51375e-05
-6.7111e-18
-3.20575e-21
-6.34226e-19
-1.20896e-21
2.56379e-05
-6.70384e-18
-3.12973e-21
-6.37459e-19
-1.16911e-21
2.61464e-05
-6.69359e-18
-3.05242e-21
-6.38223e-19
-1.12761e-21
2.66632e-05
-6.68394e-18
-2.97458e-21
-6.37831e-19
-1.08527e-21
2.71883e-05
-6.67518e-18
-2.89646e-21
-6.37851e-19
-1.04227e-21
2.7722e-05
-6.66099e-18
-2.81877e-21
-6.41738e-19
-9.9927e-22
2.82644e-05
-6.65401e-18
-2.74333e-21
-6.38369e-19
-9.55057e-22
2.88156e-05
-6.6444e-18
-2.669e-21
-6.40706e-19
-9.11724e-22
2.93759e-05
-6.63584e-18
-2.59507e-21
-6.46744e-19
-8.68335e-22
2.99453e-05
-6.62871e-18
-2.5219e-21
-6.4993e-19
-8.22945e-22
3.0524e-05
-6.61863e-18
-2.44921e-21
-6.53086e-19
-7.72119e-22
3.11122e-05
-6.60656e-18
-2.37663e-21
-6.52932e-19
-7.15713e-22
3.171e-05
-6.58761e-18
-2.30582e-21
-6.52935e-19
-6.55339e-22
3.23176e-05
-6.57366e-18
-2.2409e-21
-6.55075e-19
-5.90079e-22
3.29352e-05
-6.56715e-18
-2.17966e-21
-6.58804e-19
-5.21248e-22
3.3563e-05
-6.54927e-18
-2.11986e-21
-6.63693e-19
-4.46952e-22
3.42011e-05
-6.54136e-18
-2.06644e-21
-6.82268e-19
-3.67805e-22
3.48496e-05
-6.54323e-18
-2.01341e-21
-6.73649e-19
-2.7581e-22
3.55089e-05
-6.54356e-18
-1.95827e-21
-6.68857e-19
-1.83666e-22
3.6179e-05
-6.5458e-18
-1.90532e-21
-6.61602e-19
-9.17261e-23
3.68601e-05
-6.55077e-18
-1.84953e-21
-6.69413e-19
-1.75381e-24
3.75525e-05
-6.55057e-18
-1.79052e-21
-6.7219e-19
8.97334e-23
3.82562e-05
-6.55267e-18
-1.73314e-21
-6.73658e-19
1.82498e-22
3.89716e-05
-6.54743e-18
-1.67218e-21
-6.73537e-19
2.78697e-22
3.96988e-05
-6.54966e-18
-1.61529e-21
-6.82087e-19
3.74795e-22
4.0438e-05
-6.5436e-18
-1.55618e-21
-6.90514e-19
4.72644e-22
4.11894e-05
-6.53687e-18
-1.49576e-21
-6.96291e-19
5.67687e-22
4.19533e-05
-6.53434e-18
-1.43781e-21
-6.94578e-19
6.60981e-22
4.27297e-05
-6.52754e-18
-1.37808e-21
-7.01879e-19
7.47757e-22
4.3519e-05
-6.51731e-18
-1.31762e-21
-7.13577e-19
8.38624e-22
4.43214e-05
-6.50832e-18
-1.25685e-21
-7.24549e-19
9.3464e-22
4.5137e-05
-6.49263e-18
-1.1974e-21
-7.32873e-19
1.03427e-21
4.59661e-05
-6.48332e-18
-1.14859e-21
-7.35617e-19
1.13781e-21
4.6809e-05
-6.46767e-18
-1.11025e-21
-7.55444e-19
1.248e-21
4.76657e-05
-6.45211e-18
-1.08215e-21
-7.76598e-19
1.37338e-21
4.85367e-05
-6.43487e-18
-1.06536e-21
-7.99989e-19
1.5114e-21
4.94221e-05
-6.4258e-18
-1.06281e-21
-8.07179e-19
1.67477e-21
5.03222e-05
-6.41798e-18
-1.06957e-21
-8.12153e-19
1.84475e-21
5.12372e-05
-6.40438e-18
-1.0806e-21
-8.12431e-19
2.01456e-21
5.21673e-05
-6.40146e-18
-1.09701e-21
-8.19096e-19
2.19012e-21
5.31129e-05
-6.39777e-18
-1.10413e-21
-8.42266e-19
2.35919e-21
5.40741e-05
-6.39906e-18
-1.11014e-21
-8.54336e-19
2.53572e-21
5.50513e-05
-6.39348e-18
-1.10732e-21
-8.62434e-19
2.7227e-21
5.60446e-05
-6.3814e-18
-1.1012e-21
-8.72773e-19
2.90874e-21
5.70544e-05
-6.36468e-18
-1.10074e-21
-8.89419e-19
3.08563e-21
5.8081e-05
-6.34572e-18
-1.10332e-21
-9.03919e-19
3.26028e-21
5.91245e-05
-6.33396e-18
-1.10832e-21
-9.22524e-19
3.44583e-21
6.01854e-05
-6.32339e-18
-1.11939e-21
-9.40891e-19
3.63864e-21
6.12638e-05
-6.31787e-18
-1.12928e-21
-9.38352e-19
3.82906e-21
6.23602e-05
-6.32247e-18
-1.14797e-21
-9.50856e-19
4.01723e-21
6.34747e-05
-6.31443e-18
-1.15803e-21
-9.62899e-19
4.19407e-21
6.46076e-05
-6.30209e-18
-1.18101e-21
-9.80218e-19
4.35899e-21
6.57594e-05
-6.2982e-18
-1.23535e-21
-9.96345e-19
4.52968e-21
6.69302e-05
-6.28658e-18
-1.30256e-21
-1.02094e-18
4.69268e-21
6.81205e-05
-6.27324e-18
-1.38876e-21
-1.05341e-18
4.83744e-21
6.93304e-05
-6.27385e-18
-1.50693e-21
-1.07707e-18
4.96909e-21
7.05605e-05
-6.2538e-18
-1.62887e-21
-1.0729e-18
5.09191e-21
7.18109e-05
-6.23389e-18
-1.77507e-21
-1.10564e-18
5.19601e-21
7.3082e-05
-6.21313e-18
-1.91651e-21
-1.12844e-18
5.29725e-21
7.43742e-05
-6.1859e-18
-2.0431e-21
-1.15701e-18
5.38574e-21
7.56878e-05
-6.16769e-18
-2.20031e-21
-1.18197e-18
5.50012e-21
7.70231e-05
-6.15481e-18
-2.37891e-21
-1.21178e-18
5.6143e-21
7.83806e-05
-6.13872e-18
-2.5535e-21
-1.23398e-18
5.69913e-21
7.97605e-05
-6.12258e-18
-2.74202e-21
-1.26609e-18
5.78194e-21
8.11633e-05
-6.10596e-18
-2.93271e-21
-1.30151e-18
5.86151e-21
8.25893e-05
-6.08194e-18
-3.13499e-21
-1.33242e-18
5.91802e-21
8.4039e-05
-6.05395e-18
-3.35299e-21
-1.35052e-18
5.94826e-21
8.55126e-05
-6.02649e-18
-3.60004e-21
-1.39159e-18
5.93561e-21
8.70106e-05
-6.0087e-18
-3.8753e-21
-1.40974e-18
5.94649e-21
8.85334e-05
-5.97504e-18
-4.12736e-21
-1.42917e-18
5.91268e-21
9.00813e-05
-5.93798e-18
-4.42637e-21
-1.45221e-18
5.83343e-21
9.16549e-05
-5.90673e-18
-4.77778e-21
-1.49798e-18
5.75182e-21
9.32545e-05
-5.89372e-18
-5.13506e-21
-1.5258e-18
5.67369e-21
9.48806e-05
-5.84969e-18
-5.43578e-21
-1.56216e-18
5.55904e-21
9.65335e-05
-5.81671e-18
-5.72403e-21
-1.62321e-18
5.41327e-21
9.82137e-05
-5.76992e-18
-5.9944e-21
-1.661e-18
5.29702e-21
9.99217e-05
-5.73035e-18
-6.25494e-21
-1.68663e-18
5.15992e-21
0.000101658
-5.69239e-18
-6.50883e-21
-1.72317e-18
5.00338e-21
0.000103423
-5.6486e-18
-6.72365e-21
-1.75781e-18
4.84082e-21
0.000105217
-5.60266e-18
-6.90593e-21
-1.7875e-18
4.68092e-21
0.000107041
-5.55518e-18
-7.0977e-21
-1.81958e-18
4.46677e-21
0.000108894
-5.49131e-18
-7.34266e-21
-1.86755e-18
4.24185e-21
0.000110779
-5.454e-18
-7.58947e-21
-1.91567e-18
4.07189e-21
0.000112694
-5.39664e-18
-7.86365e-21
-1.95548e-18
3.92736e-21
0.000114641
-5.34761e-18
-8.21547e-21
-1.99471e-18
3.77539e-21
0.00011662
-5.27362e-18
-8.54085e-21
-2.02377e-18
3.63066e-21
0.000118632
-5.23261e-18
-8.90735e-21
-2.04824e-18
3.44551e-21
0.000120677
-5.19276e-18
-9.23971e-21
-2.06688e-18
3.18965e-21
0.000122755
-5.16326e-18
-9.59645e-21
-2.06002e-18
2.94408e-21
0.000124868
-5.10284e-18
-9.84643e-21
-2.06681e-18
2.58642e-21
0.000127016
-5.0288e-18
-1.00649e-20
-2.13651e-18
2.11297e-21
0.000129199
-4.96728e-18
-1.03878e-20
-2.13473e-18
1.67508e-21
0.000131418
-4.90351e-18
-1.07177e-20
-2.15997e-18
1.09435e-21
0.000133673
-4.87438e-18
-1.12029e-20
-2.17845e-18
6.02485e-22
0.000135965
-4.8206e-18
-1.15467e-20
-2.18441e-18
8.20075e-23
0.000138296
-4.7678e-18
-1.17954e-20
-2.22572e-18
-5.5155e-22
0.000140664
-4.70218e-18
-1.19791e-20
-2.24738e-18
-1.22399e-21
0.000143071
-4.63954e-18
-1.23584e-20
-2.26973e-18
-1.89431e-21
0.000145518
-4.60783e-18
-1.27701e-20
-2.3194e-18
-2.50431e-21
0.000148005
-4.54591e-18
-1.31196e-20
-2.3599e-18
-2.82324e-21
0.000150533
-4.49092e-18
-1.35164e-20
-2.40397e-18
-2.95021e-21
0.000153102
-4.46445e-18
-1.397e-20
-2.44494e-18
-3.00556e-21
0.000155713
-4.42227e-18
-1.43726e-20
-2.48392e-18
-3.09918e-21
0.000158368
-4.39048e-18
-1.48731e-20
-2.52546e-18
-3.24479e-21
0.000161065
-4.35226e-18
-1.51707e-20
-2.51841e-18
-3.36887e-21
0.000163807
-4.31545e-18
-1.53812e-20
-2.5686e-18
-3.66436e-21
0.000166594
-4.26709e-18
-1.5538e-20
-2.58025e-18
-3.98904e-21
0.000169426
-4.23607e-18
-1.57603e-20
-2.62091e-18
-4.54332e-21
0.000172305
-4.19843e-18
-1.59248e-20
-2.64931e-18
-4.97235e-21
0.00017523
-4.16425e-18
-1.62593e-20
-2.64616e-18
-5.44673e-21
0.000178204
-4.115e-18
-1.6555e-20
-2.67584e-18
-6.0668e-21
0.000181226
-4.09422e-18
-1.70093e-20
-2.70751e-18
-6.39002e-21
0.000184297
-4.05416e-18
-1.74994e-20
-2.70607e-18
-6.69387e-21
0.000187418
-4.01724e-18
-1.79536e-20
-2.73584e-18
-7.55254e-21
0.00019059
-3.98431e-18
-1.87068e-20
-2.7449e-18
-8.13458e-21
0.000193814
-3.92958e-18
-1.93967e-20
-2.78429e-18
-8.71431e-21
0.000197091
-3.93765e-18
-2.02416e-20
-2.80972e-18
-9.08132e-21
0.00020042
-3.91515e-18
-2.0811e-20
-2.78151e-18
-9.43498e-21
0.000203804
-3.88995e-18
-2.14501e-20
-2.76428e-18
-9.83225e-21
0.000207243
-3.85064e-18
-2.19815e-20
-2.77151e-18
-1.01613e-20
0.000210738
-3.81215e-18
-2.23245e-20
-2.7698e-18
-1.05177e-20
0.000214289
-3.74901e-18
-2.27563e-20
-2.78864e-18
-1.06811e-20
0.000217899
-3.71849e-18
-2.30824e-20
-2.75674e-18
-1.09727e-20
0.000221566
-3.68083e-18
-2.3452e-20
-2.73743e-18
-1.17374e-20
0.000225293
-3.64421e-18
-2.38684e-20
-2.73204e-18
-1.2269e-20
0.000229081
-3.60481e-18
-2.41778e-20
-2.72588e-18
-1.26253e-20
0.000232929
-3.5735e-18
-2.46139e-20
-2.69982e-18
-1.30119e-20
0.00023684
-3.54897e-18
-2.5123e-20
-2.68492e-18
-1.33878e-20
0.000240814
-3.56358e-18
-2.56977e-20
-2.63502e-18
-1.39839e-20
0.000244852
-3.45553e-18
-2.60408e-20
-2.67664e-18
-1.50143e-20
0.000248956
-3.43511e-18
-2.71712e-20
-2.72079e-18
-1.53695e-20
0.000253125
-3.3585e-18
-2.75955e-20
-2.71755e-18
-1.56404e-20
0.000257362
-3.22125e-18
-2.77714e-20
-2.6892e-18
-1.65043e-20
0.000261666
-3.18803e-18
-2.89536e-20
-2.72363e-18
-1.71699e-20
0.00026604
-3.17596e-18
-2.95232e-20
-2.67029e-18
-1.74394e-20
0.000270484
-3.0875e-18
-2.86965e-20
-2.68333e-18
-1.83298e-20
0.000275
-3.07797e-18
-2.85212e-20
-2.73703e-18
-1.86813e-20
0.000279587
-2.99153e-18
-2.82538e-20
-2.74753e-18
-1.83321e-20
0.000284249
-2.95229e-18
-2.84239e-20
-2.67732e-18
-1.78837e-20
0.000288984
-2.91434e-18
-2.84662e-20
-2.61123e-18
-1.80675e-20
0.000293796
-2.84614e-18
-2.87253e-20
-2.607e-18
-1.91673e-20
0.000298684
-2.87518e-18
-2.97968e-20
-2.52725e-18
-1.96958e-20
0.00030365
-2.81163e-18
-3.13447e-20
-2.50293e-18
-2.11175e-20
0.000308695
-2.77896e-18
-3.20511e-20
-2.50951e-18
-2.32387e-20
0.00031382
-2.75421e-18
-3.24578e-20
-2.52702e-18
-2.56619e-20
0.000319026
-2.68204e-18
-3.3979e-20
-2.5317e-18
-2.7551e-20
0.000324315
-2.66559e-18
-3.52181e-20
-2.51295e-18
-2.91775e-20
0.000329688
-2.65603e-18
-3.56461e-20
-2.43874e-18
-3.11052e-20
0.000335145
-2.59957e-18
-3.56921e-20
-2.45417e-18
-3.37437e-20
0.000340689
-2.58204e-18
-3.61634e-20
-2.44792e-18
-3.54731e-20
0.00034632
-2.49446e-18
-3.69768e-20
-2.43883e-18
-3.54458e-20
0.00035204
-2.45498e-18
-3.81254e-20
-2.40665e-18
-3.47446e-20
0.000357849
-2.47018e-18
-3.93456e-20
-2.37345e-18
-3.48363e-20
0.00036375
-2.35818e-18
-3.8538e-20
-2.38309e-18
-3.55487e-20
0.000369743
-2.33459e-18
-3.9613e-20
-2.38557e-18
-3.52006e-20
0.000375829
-2.31169e-18
-4.00843e-20
-2.36512e-18
-3.46159e-20
0.00038201
-2.30057e-18
-4.08692e-20
-2.40272e-18
-3.4047e-20
0.000388287
-2.35881e-18
-3.83359e-20
-2.2461e-18
-3.18899e-20
0.000394662
-2.27782e-18
-3.33702e-20
-2.19307e-18
-3.10577e-20
0.000401135
-2.17116e-18
-2.89383e-20
-2.14542e-18
-3.03416e-20
0.000407708
-2.01682e-18
-2.58717e-20
-2.10242e-18
-2.88738e-20
0.000414383
-1.98562e-18
-2.44805e-20
-2.06759e-18
-2.75144e-20
0.00042116
-2.00567e-18
-2.30984e-20
-1.92415e-18
-2.30942e-20
0.000428041
-1.99586e-18
-2.01416e-20
-1.87586e-18
-2.09445e-20
0.000435026
-1.99142e-18
-1.5697e-20
-1.88807e-18
-1.80617e-20
0.000442119
-1.91758e-18
-1.2853e-20
-1.83924e-18
-1.37195e-20
0.000449318
-1.9384e-18
-1.13941e-20
-1.78455e-18
-1.0808e-20
0.000456627
-1.7795e-18
-1.03631e-20
-1.87956e-18
-1.14164e-20
0.000464046
-1.80949e-18
-1.31936e-20
-1.80921e-18
-9.08764e-21
0.000471577
-1.73417e-18
-1.17828e-20
-1.81795e-18
-1.00535e-20
0.00047922
-1.69019e-18
-1.50477e-20
-1.80864e-18
-1.12575e-20
0.000486976
-1.7207e-18
-2.02671e-20
-1.79038e-18
-1.51264e-20
0.000494848
-1.6598e-18
-2.8782e-20
-1.755e-18
-1.57441e-20
0.000502836
-1.7039e-18
-2.8419e-20
-1.59886e-18
-1.43382e-20
0.000510941
-1.74153e-18
-2.21882e-20
-1.64081e-18
-1.78292e-20
0.000519165
-1.66474e-18
-1.86336e-20
-1.57114e-18
-1.85712e-20
0.000527508
-1.67488e-18
-1.62221e-20
-1.5368e-18
-1.91073e-20
0.000535972
-1.48227e-18
-1.08949e-20
-1.61205e-18
-2.13587e-20
0.000544557
-1.46817e-18
-7.81334e-21
-1.57098e-18
-1.93794e-20
0.000553265
-1.47381e-18
-2.8774e-21
-1.5929e-18
-1.8447e-20
0.000562096
-1.56754e-18
3.46656e-21
-1.42572e-18
-1.57328e-20
0.000571051
-1.2556e-18
8.91635e-21
-1.41734e-18
-1.39653e-20
0.00058013
-1.32697e-18
3.544e-21
-1.3775e-18
-1.24482e-20
0.000589335
-1.27258e-18
5.06829e-21
-1.38576e-18
-1.04394e-20
0.000598666
-1.31066e-18
-5.85151e-22
-1.21934e-18
-1.53451e-20
0.000608123
-1.31237e-18
-1.26307e-20
-1.30237e-18
-1.50629e-20
0.000617707
-1.3485e-18
-1.45711e-20
-1.29189e-18
-7.26939e-21
0.000627417
-1.2682e-18
-6.59181e-21
-1.25273e-18
-6.19143e-21
0.000637254
-1.17764e-18
-6.27359e-21
-1.24435e-18
-5.64679e-21
0.000647218
-1.20238e-18
-1.20077e-20
-1.22121e-18
-2.05474e-21
0.000657309
-1.19056e-18
-1.02339e-20
-1.25003e-18
3.2845e-21
0.000667525
-1.17136e-18
-1.04467e-20
-1.17525e-18
2.15196e-21
0.000677866
-1.20836e-18
-1.53424e-20
-1.08867e-18
7.58747e-22
0.000688332
-1.08575e-18
-1.77665e-20
-8.62502e-19
1.335e-21
0.000698921
-9.50844e-19
-1.40448e-20
-9.85023e-19
-7.0977e-21
0.000709632
-9.55892e-19
-1.69978e-20
-9.90207e-19
-1.11929e-20
0.000720464
-9.83754e-19
-3.04208e-20
-1.06847e-18
-1.62736e-20
0.000731413
-1.00007e-18
-2.25192e-20
-9.69944e-19
-1.6753e-20
0.000742479
-9.54131e-19
-2.72591e-20
-9.72494e-19
-1.6495e-20
0.000753659
-1.03471e-18
-3.22918e-20
-9.62001e-19
-2.49263e-20
0.00076495
-9.8837e-19
-2.73094e-20
-9.79896e-19
-3.65203e-20
0.000776348
-9.66361e-19
-2.80895e-20
-9.34552e-19
-3.66569e-20
0.000787852
-8.88196e-19
-2.3373e-20
-8.96346e-19
-3.53208e-20
0.000799457
-8.50848e-19
-2.54886e-20
-8.35364e-19
-3.00522e-20
0.000811159
-3.2061e-20
-8.13326e-19
-1.73961e-20
-8.95803e-19
1.62374e-08
-2.59082e-22
-4.71911e-23
4.96552e-08
-1.32699e-21
-4.04165e-22
8.45258e-08
-2.43513e-21
-7.66825e-22
1.20898e-07
-3.58181e-21
-1.14174e-21
1.58824e-07
-4.75625e-21
-1.53612e-21
1.98355e-07
-5.96727e-21
-1.95337e-21
2.39545e-07
-7.20972e-21
-2.40481e-21
2.82451e-07
-8.50268e-21
-2.84583e-21
3.27129e-07
-9.8411e-21
-3.36224e-21
3.73638e-07
-1.12319e-20
-3.88361e-21
4.2204e-07
-1.26291e-20
-4.44342e-21
4.72398e-07
-1.40539e-20
-4.96154e-21
5.24776e-07
-1.56143e-20
-5.5414e-21
5.7924e-07
-1.71347e-20
-6.18894e-21
6.3586e-07
-1.86693e-20
-6.75164e-21
6.94705e-07
-2.01386e-20
-7.33239e-21
7.55848e-07
-2.18542e-20
-7.90213e-21
8.19362e-07
-2.35731e-20
-8.61985e-21
8.85325e-07
-2.51304e-20
-9.18845e-21
9.53814e-07
-2.70468e-20
-9.9738e-21
1.02491e-06
-2.86225e-20
-1.07984e-20
1.09869e-06
-3.07225e-20
-1.18404e-20
1.17524e-06
-3.24837e-20
-1.26732e-20
1.25465e-06
-3.45812e-20
-1.35505e-20
1.33699e-06
-3.69286e-20
-1.43605e-20
1.42236e-06
-3.90762e-20
-1.53643e-20
1.51083e-06
-4.14835e-20
-1.64289e-20
1.60251e-06
-4.36187e-20
-1.74005e-20
1.69746e-06
-4.58582e-20
-1.85305e-20
1.79578e-06
-4.82653e-20
-1.95699e-20
1.89756e-06
-5.04528e-20
-2.11647e-20
2.00286e-06
-5.33256e-20
-2.21621e-20
2.11177e-06
-5.57886e-20
-2.37579e-20
2.22436e-06
-5.81115e-20
-2.52197e-20
2.3407e-06
-6.07648e-20
-2.64723e-20
2.46086e-06
-6.37746e-20
-2.73781e-20
2.58489e-06
-6.6879e-20
-2.88237e-20
2.71284e-06
-7.02188e-20
-3.02131e-20
2.84476e-06
-7.35537e-20
-3.17187e-20
2.98068e-06
-7.64648e-20
-3.31384e-20
3.12062e-06
-7.93501e-20
-3.50258e-20
3.2646e-06
-8.28393e-20
-3.65665e-20
3.41263e-06
-8.6706e-20
-3.79888e-20
3.5647e-06
-8.98925e-20
-4.06344e-20
3.7208e-06
-9.30648e-20
-4.24718e-20
3.88091e-06
-9.59751e-20
-4.33364e-20
4.04501e-06
-9.94402e-20
-4.4957e-20
4.21305e-06
-1.03757e-19
-4.62053e-20
4.38499e-06
-1.06875e-19
-4.74355e-20
4.5608e-06
-1.12298e-19
-4.90638e-20
4.74041e-06
-1.16044e-19
-5.07374e-20
4.92377e-06
-1.21161e-19
-5.30159e-20
5.11085e-06
-1.24388e-19
-5.54017e-20
5.30157e-06
-1.27945e-19
-5.82877e-20
5.4959e-06
-1.31816e-19
-5.95371e-20
5.69378e-06
-1.35888e-19
-6.17881e-20
5.89517e-06
-1.40696e-19
-6.46178e-20
6.10003e-06
-1.44437e-19
-6.73285e-20
6.30833e-06
-1.48252e-19
-6.94442e-20
6.52004e-06
-1.53069e-19
-7.19717e-20
6.73515e-06
-1.56687e-19
-7.36138e-20
6.95362e-06
-1.60567e-19
-7.59695e-20
7.17547e-06
-1.64001e-19
-7.66979e-20
7.40068e-06
-1.67665e-19
-8.03319e-20
7.62925e-06
-1.73837e-19
-8.35707e-20
7.86121e-06
-1.7705e-19
-8.72726e-20
8.09656e-06
-1.8162e-19
-8.93786e-20
8.33534e-06
-1.84752e-19
-9.19643e-20
8.57756e-06
-1.88359e-19
-9.44089e-20
8.82326e-06
-1.9309e-19
-9.90198e-20
9.07249e-06
-1.96143e-19
-1.02361e-19
9.32527e-06
-1.9857e-19
-1.06198e-19
9.58167e-06
-2.01777e-19
-1.07762e-19
9.84173e-06
-2.04908e-19
-1.0914e-19
1.01055e-05
-2.07675e-19
-1.13324e-19
1.03731e-05
-2.10041e-19
-1.16724e-19
1.06445e-05
-2.13017e-19
-1.19173e-19
1.09198e-05
-2.17286e-19
-1.2336e-19
1.1199e-05
-2.1863e-19
-1.2721e-19
1.14824e-05
-2.211e-19
-1.31222e-19
1.17698e-05
-2.23456e-19
-1.33924e-19
1.20614e-05
-2.2966e-19
-1.35776e-19
1.23573e-05
-2.37363e-19
-1.35101e-19
1.26576e-05
-2.42427e-19
-1.3835e-19
1.29623e-05
-2.45757e-19
-1.40907e-19
1.32715e-05
-2.48421e-19
-1.43885e-19
1.35853e-05
-2.51463e-19
-1.43728e-19
1.39039e-05
-2.53786e-19
-1.44057e-19
1.42271e-05
-2.55799e-19
-1.46778e-19
1.45553e-05
-2.59399e-19
-1.5036e-19
1.48885e-05
-2.62476e-19
-1.5393e-19
1.52267e-05
-2.66215e-19
-1.56929e-19
1.557e-05
-2.69518e-19
-1.61315e-19
1.59187e-05
-2.75357e-19
-1.63621e-19
1.62726e-05
-2.79756e-19
-1.68764e-19
1.66321e-05
-2.78652e-19
-1.77144e-19
1.69971e-05
-2.78816e-19
-1.80319e-19
1.73677e-05
-2.89004e-19
-1.78853e-19
1.77442e-05
-2.91534e-19
-1.78025e-19
1.81265e-05
-2.93474e-19
-1.78804e-19
1.85148e-05
-2.91482e-19
-1.82427e-19
1.89092e-05
-2.97381e-19
-1.85637e-19
1.93098e-05
-2.9875e-19
-1.91832e-19
1.97168e-05
-2.96123e-19
-1.93453e-19
2.01302e-05
-3.00172e-19
-1.94706e-19
2.05501e-05
-2.98894e-19
-1.95384e-19
2.09768e-05
-3.0162e-19
-2.00815e-19
2.14102e-05
-3.01382e-19
-2.03188e-19
2.18505e-05
-3.06361e-19
-2.07755e-19
2.22979e-05
-3.08366e-19
-2.09123e-19
2.27525e-05
-3.10848e-19
-2.09904e-19
2.32144e-05
-3.11661e-19
-2.13238e-19
2.36837e-05
-3.14241e-19
-2.15183e-19
2.41606e-05
-3.12128e-19
-2.21444e-19
2.46451e-05
-3.12682e-19
-2.24082e-19
2.51375e-05
-3.13154e-19
-2.17747e-19
2.56379e-05
-3.14595e-19
-2.20508e-19
2.61464e-05
-3.15268e-19
-2.25672e-19
2.66632e-05
-3.16897e-19
-2.28799e-19
2.71883e-05
-3.19309e-19
-2.3122e-19
2.7722e-05
-3.20738e-19
-2.33182e-19
2.82644e-05
-3.25529e-19
-2.32283e-19
2.88156e-05
-3.26412e-19
-2.30988e-19
2.93759e-05
-3.2896e-19
-2.32689e-19
2.99453e-05
-3.29219e-19
-2.26828e-19
3.0524e-05
-3.24468e-19
-2.2432e-19
3.11122e-05
-3.24789e-19
-2.24852e-19
3.171e-05
-3.2948e-19
-2.22117e-19
3.23176e-05
-3.3009e-19
-2.2855e-19
3.29352e-05
-3.31466e-19
-2.31118e-19
3.3563e-05
-3.34644e-19
-2.32749e-19
3.42011e-05
-3.32392e-19
-2.23234e-19
3.48496e-05
-3.33327e-19
-2.19355e-19
3.55089e-05
-3.42763e-19
-2.21144e-19
3.6179e-05
-3.43033e-19
-2.19792e-19
3.68601e-05
-3.43868e-19
-2.19875e-19
3.75525e-05
-3.47485e-19
-2.1929e-19
3.82562e-05
-3.41923e-19
-2.15348e-19
3.89716e-05
-3.4752e-19
-2.1289e-19
3.96988e-05
-3.46257e-19
-2.13315e-19
4.0438e-05
-3.42142e-19
-2.23177e-19
4.11894e-05
-3.49186e-19
-2.18952e-19
4.19533e-05
-3.55373e-19
-2.15394e-19
4.27297e-05
-3.60999e-19
-2.1041e-19
4.3519e-05
-3.59227e-19
-2.08552e-19
4.43214e-05
-3.56674e-19
-2.09227e-19
4.5137e-05
-3.58683e-19
-2.11329e-19
4.59661e-05
-3.60523e-19
-2.08342e-19
4.6809e-05
-3.56569e-19
-2.11312e-19
4.76657e-05
-3.56223e-19
-2.13586e-19
4.85367e-05
-3.5594e-19
-2.00142e-19
4.94221e-05
-3.57733e-19
-1.97569e-19
5.03222e-05
-3.58286e-19
-1.97264e-19
5.12372e-05
-3.56411e-19
-1.86728e-19
5.21673e-05
-3.45233e-19
-1.93073e-19
5.31129e-05
-3.46321e-19
-1.93777e-19
5.40741e-05
-3.41373e-19
-1.86815e-19
5.50513e-05
-3.34667e-19
-1.85832e-19
5.60446e-05
-3.36481e-19
-1.83402e-19
5.70544e-05
-3.38636e-19
-1.81669e-19
5.8081e-05
-3.36604e-19
-1.76145e-19
5.91245e-05
-3.37733e-19
-1.73794e-19
6.01854e-05
-3.24263e-19
-1.6947e-19
6.12638e-05
-3.19721e-19
-1.42028e-19
6.23602e-05
-3.114e-19
-1.41708e-19
6.34747e-05
-3.1533e-19
-1.42183e-19
6.46076e-05
-3.24717e-19
-1.25279e-19
6.57594e-05
-3.23527e-19
-1.19893e-19
6.69302e-05
-3.25246e-19
-1.27949e-19
6.81205e-05
-3.41192e-19
-1.34644e-19
6.93304e-05
-3.49316e-19
-1.418e-19
7.05605e-05
-3.56087e-19
-1.31866e-19
7.18109e-05
-3.42739e-19
-1.34765e-19
7.3082e-05
-3.25917e-19
-1.2994e-19
7.43742e-05
-3.33363e-19
-1.08091e-19
7.56878e-05
-3.37276e-19
-1.00063e-19
7.70231e-05
-3.2985e-19
-1.03624e-19
7.83806e-05
-3.29995e-19
-9.48477e-20
7.97605e-05
-3.19579e-19
-1.01994e-19
8.11633e-05
-3.2055e-19
-1.07501e-19
8.25893e-05
-3.19331e-19
-1.08704e-19
8.4039e-05
-3.17934e-19
-1.12938e-19
8.55126e-05
-3.19391e-19
-1.04731e-19
8.70106e-05
-3.06617e-19
-1.09785e-19
8.85334e-05
-3.27966e-19
-1.05693e-19
9.00813e-05
-3.60555e-19
-8.61347e-20
9.16549e-05
-3.80859e-19
-8.49658e-20
9.32545e-05
-3.90827e-19
-7.82617e-20
9.48806e-05
-3.97608e-19
-7.32269e-20
9.65335e-05
-4.13668e-19
-6.32819e-20
9.82137e-05
-4.15876e-19
-5.87454e-20
9.99217e-05
-4.27959e-19
-4.85079e-20
0.000101658
-4.29769e-19
-5.29666e-20
0.000103423
-4.23112e-19
-5.03669e-20
0.000105217
-4.2564e-19
-5.79856e-20
0.000107041
-4.4071e-19
-5.34937e-20
0.000108894
-4.16711e-19
-4.08536e-20
0.000110779
-4.19383e-19
-3.07444e-20
0.000112694
-4.09992e-19
-3.12951e-20
0.000114641
-3.75858e-19
-2.64223e-20
0.00011662
-3.50082e-19
-2.12194e-20
0.000118632
-3.28387e-19
-3.00014e-20
0.000120677
-3.3381e-19
-1.91485e-20
0.000122755
-3.2156e-19
-3.56049e-20
0.000124868
-3.10675e-19
-5.55133e-20
0.000127016
-3.27806e-19
-7.90241e-20
0.000129199
-3.24518e-19
-9.488e-20
0.000131418
-3.57188e-19
-6.46087e-20
0.000133673
-3.3898e-19
-6.78159e-20
0.000135965
-3.19734e-19
-9.59448e-20
0.000138296
-3.20022e-19
-1.17228e-19
0.000140664
-3.87362e-19
-1.10234e-19
0.000143071
-4.11513e-19
-1.17594e-19
0.000145518
-4.27212e-19
-9.10641e-20
0.000148005
-4.30844e-19
-7.65234e-20
0.000150533
-4.4449e-19
-8.87925e-20
0.000153102
-4.51412e-19
-1.16253e-19
0.000155713
-4.73624e-19
-1.54407e-19
0.000158368
-4.49637e-19
-1.84698e-19
0.000161065
-4.45558e-19
-1.75094e-19
0.000163807
-4.41428e-19
-1.75416e-19
0.000166594
-4.44964e-19
-2.1336e-19
0.000169426
-4.44667e-19
-2.13103e-19
0.000172305
-4.74646e-19
-2.05539e-19
0.00017523
-4.65252e-19
-2.10445e-19
0.000178204
-4.81611e-19
-2.02694e-19
0.000181226
-4.98562e-19
-2.21657e-19
0.000184297
-4.83875e-19
-2.89118e-19
0.000187418
-5.33622e-19
-2.77599e-19
0.00019059
-5.27851e-19
-3.12958e-19
0.000193814
-5.38708e-19
-3.44534e-19
0.000197091
-5.52847e-19
-3.7875e-19
0.00020042
-5.83424e-19
-3.56266e-19
0.000203804
-5.93739e-19
-3.37008e-19
0.000207243
-5.97013e-19
-3.70604e-19
0.000210738
-6.3142e-19