/*--------------------------------*- C++ -*----------------------------------*\
| =========                 |                                                 |
| \\      /  F ield         | OpenFOAM: The Open Source CFD Toolbox           |
|  \\    /   O peration     | Version:  2106                                  |
|   \\  /    A nd           | Website:  www.openfoam.com                      |
|    \\/     M anipulation  |                                                 |
\*---------------------------------------------------------------------------*/
FoamFile
{
    version     2.0;
    format      ascii;
    arch        "LSB;label=32;scalar=64";
    class       volScalarField;
    location    "11000";
    object      p;
}
// * * * * * * * * * * * * * * * * * * * * * * * * * * * * * * * * * * * * * //

dimensions      [0 2 -2 0 0 0 0];

internalField   nonuniform List<scalar> 
2560
(
4.92431e-16
1.71327e-14
1.02423e-15
1.71322e-14
1.04416e-15
1.71314e-14
9.13006e-16
1.71301e-14
7.95744e-16
1.71282e-14
6.93469e-16
1.71258e-14
5.95433e-16
1.71229e-14
4.99354e-16
1.71193e-14
4.05465e-16
1.71152e-14
3.1385e-16
1.71105e-14
2.2433e-16
1.71051e-14
1.36742e-16
1.70992e-14
5.08423e-17
1.70925e-14
-3.36596e-17
1.70852e-14
-1.17148e-16
1.70772e-14
-1.99997e-16
1.70684e-14
-2.82599e-16
1.70588e-14
-3.6543e-16
1.70483e-14
-4.48952e-16
1.70369e-14
-5.33405e-16
1.70244e-14
-6.19317e-16
1.70108e-14
-7.07045e-16
1.69961e-14
-7.96875e-16
1.69801e-14
-8.88969e-16
1.69627e-14
-9.83726e-16
1.6944e-14
-1.08133e-15
1.69239e-14
-1.18183e-15
1.69021e-14
-1.28517e-15
1.68788e-14
-1.39157e-15
1.68539e-14
-1.50101e-15
1.68271e-14
-1.61367e-15
1.67984e-14
-1.72952e-15
1.67677e-14
-1.84852e-15
1.67351e-14
-1.97051e-15
1.67007e-14
-2.09549e-15
1.66643e-14
-2.22345e-15
1.66256e-14
-2.35438e-15
1.65848e-14
-2.48792e-15
1.65416e-14
-2.62385e-15
1.6496e-14
-2.76234e-15
1.64479e-14
-2.90325e-15
1.63974e-14
-3.04638e-15
1.63445e-14
-3.1917e-15
1.62893e-14
-3.33887e-15
1.62312e-14
-3.48765e-15
1.617e-14
-3.63834e-15
1.61061e-14
-3.79084e-15
1.60397e-14
-3.94442e-15
1.59709e-14
-4.09994e-15
1.58993e-14
-4.25691e-15
1.58248e-14
-4.41497e-15
1.5748e-14
-4.5748e-15
1.56686e-14
-4.73684e-15
1.55868e-14
-4.89995e-15
1.55027e-14
-5.06458e-15
1.54162e-14
-5.23039e-15
1.53277e-14
-5.3973e-15
1.52369e-14
-5.56493e-15
1.51435e-14
-5.73382e-15
1.50472e-14
-5.9045e-15
1.4949e-14
-6.07572e-15
1.48486e-14
-6.24772e-15
1.4746e-14
-6.42045e-15
1.46403e-14
-6.59387e-15
1.45321e-14
-6.76793e-15
1.44219e-14
-6.94227e-15
1.43087e-14
-7.11616e-15
1.41921e-14
-7.28886e-15
1.40721e-14
-7.46032e-15
1.39492e-14
-7.6294e-15
1.3823e-14
-7.79853e-15
1.3694e-14
-7.96698e-15
1.3562e-14
-8.13436e-15
1.34266e-14
-8.30027e-15
1.32887e-14
-8.46468e-15
1.31485e-14
-8.62796e-15
1.30056e-14
-8.79086e-15
1.28591e-14
-8.95185e-15
1.27099e-14
-9.11209e-15
1.25591e-14
-9.26964e-15
1.24052e-14
-9.42567e-15
1.22485e-14
-9.5806e-15
1.20867e-14
-9.73448e-15
1.19224e-14
-9.88776e-15
1.17567e-14
-1.00388e-14
1.15899e-14
-1.01885e-14
1.14213e-14
-1.03387e-14
1.12516e-14
-1.04884e-14
1.10777e-14
-1.06362e-14
1.09031e-14
-1.07828e-14
1.07279e-14
-1.09285e-14
1.05504e-14
-1.10733e-14
1.03699e-14
-1.12182e-14
1.01892e-14
-1.13615e-14
1.00066e-14
-1.15015e-14
9.82136e-15
-1.16419e-14
9.63355e-15
-1.17802e-14
9.44783e-15
-1.19191e-14
9.26348e-15
-1.20589e-14
9.07608e-15
-1.21923e-14
8.88298e-15
-1.23221e-14
8.68705e-15
-1.24467e-14
8.4875e-15
-1.25717e-14
8.28444e-15
-1.26927e-14
8.08082e-15
-1.28087e-14
7.87682e-15
-1.29219e-14
7.66782e-15
-1.30314e-14
7.45776e-15
-1.31374e-14
7.24489e-15
-1.324e-14
7.02837e-15
-1.33404e-14
6.81029e-15
-1.34369e-14
6.58982e-15
-1.35324e-14
6.37007e-15
-1.36243e-14
6.14331e-15
-1.37117e-14
5.91463e-15
-1.37969e-14
5.68615e-15
-1.38799e-14
5.45707e-15
-1.39611e-14
5.22454e-15
-1.40386e-14
4.99174e-15
-1.41167e-14
4.75681e-15
-1.41925e-14
4.52297e-15
-1.42623e-14
4.28328e-15
-1.43323e-14
4.04095e-15
-1.43967e-14
3.79817e-15
-1.44556e-14
3.55308e-15
-1.45072e-14
3.30377e-15
-1.45559e-14
3.05452e-15
-1.46018e-14
2.80548e-15
-1.46431e-14
2.55269e-15
-1.46801e-14
2.29629e-15
-1.47191e-14
2.04057e-15
-1.47542e-14
1.7878e-15
-1.47877e-14
1.54025e-15
-1.48156e-14
1.2876e-15
-1.48403e-14
1.02999e-15
-1.48661e-14
7.7175e-16
-1.48913e-14
5.17266e-16
-1.4916e-14
2.56103e-16
-1.49427e-14
-1.01409e-18
-1.49608e-14
-2.56055e-16
-1.49814e-14
-5.13135e-16
-1.50109e-14
-7.74265e-16
-1.5037e-14
-1.02863e-15
-1.50619e-14
-1.27823e-15
-1.50901e-14
-1.53145e-15
-1.51134e-14
-1.7839e-15
-1.51385e-14
-2.03329e-15
-1.51612e-14
-2.28593e-15
-1.51839e-14
-2.53739e-15
-1.52091e-14
-2.7897e-15
-1.52348e-14
-3.0406e-15
-1.52591e-14
-3.29644e-15
-1.52779e-14
-3.54848e-15
-1.52958e-14
-3.79444e-15
-1.53129e-14
-4.04287e-15
-1.53447e-14
-4.29155e-15
-1.53761e-14
-4.54469e-15
-1.54032e-14
-4.80221e-15
-1.54238e-14
-5.04665e-15
-1.54426e-14
-5.28663e-15
-1.54663e-14
-5.5373e-15
-1.5495e-14
-5.78774e-15
-1.55356e-14
-6.027e-15
-1.55707e-14
-6.26369e-15
-1.55963e-14
-6.5108e-15
-1.56387e-14
-6.74649e-15
-1.56676e-14
-6.9925e-15
-1.56961e-14
-7.23571e-15
-1.57333e-14
-7.4761e-15
-1.57705e-14
-7.71803e-15
-1.58123e-14
-7.95711e-15
-1.585e-14
-8.18457e-15
-1.58882e-14
-8.41785e-15
-1.59357e-14
-8.65258e-15
-1.59928e-14
-8.87998e-15
-1.60464e-14
-9.11312e-15
-1.61098e-14
-9.34324e-15
-1.61701e-14
-9.57469e-15
-1.62275e-14
-9.80742e-15
-1.62908e-14
-1.00284e-14
-1.63601e-14
-1.02419e-14
-1.64269e-14
-1.04566e-14
-1.65002e-14
-1.06769e-14
-1.658e-14
-1.08983e-14
-1.66578e-14
-1.1112e-14
-1.67426e-14
-1.13268e-14
-1.68301e-14
-1.1547e-14
-1.69249e-14
-1.1768e-14
-1.70229e-14
-1.19857e-14
-1.712e-14
-1.22043e-14
-1.72207e-14
-1.24236e-14
-1.73209e-14
-1.26395e-14
-1.74251e-14
-1.28561e-14
-1.75293e-14
-1.3069e-14
-1.76249e-14
-1.32697e-14
-1.77079e-14
-1.34708e-14
-1.78043e-14
-1.36854e-14
-1.78969e-14
-1.38919e-14
-1.79902e-14
-1.40733e-14
-1.80759e-14
-1.42679e-14
-1.81625e-14
-1.44714e-14
-1.8246e-14
-1.46626e-14
-1.83562e-14
-1.4837e-14
-1.84636e-14
-1.50159e-14
-1.856e-14
-1.52033e-14
-1.8654e-14
-1.53821e-14
-1.87628e-14
-1.55522e-14
-1.88611e-14
-1.57304e-14
-1.89576e-14
-1.59164e-14
-1.90607e-14
-1.61018e-14
-1.91788e-14
-1.62781e-14
-1.92871e-14
-1.64452e-14
-1.94025e-14
-1.66195e-14
-1.95251e-14
-1.68176e-14
-1.963e-14
-1.70142e-14
-1.97339e-14
-1.71929e-14
-1.98451e-14
-1.73535e-14
-1.99556e-14
-1.75208e-14
-2.00736e-14
-1.7711e-14
-2.0199e-14
-1.78911e-14
-2.03075e-14
-1.80609e-14
-2.04237e-14
-1.82448e-14
-2.05313e-14
-1.84593e-14
-2.06379e-14
-1.86473e-14
-2.07432e-14
-1.88336e-14
-2.08632e-14
-1.90346e-14
-2.09974e-14
-1.92344e-14
-2.11296e-14
-1.94331e-14
-2.12595e-14
-1.96228e-14
-2.1387e-14
-1.98117e-14
-2.15363e-14
-1.99919e-14
-2.16915e-14
-2.01875e-14
-2.18288e-14
-2.03821e-14
-2.19482e-14
-2.05519e-14
-2.20813e-14
-2.07369e-14
-2.22121e-14
-2.09371e-14
-2.23399e-14
-2.11132e-14
-2.24646e-14
-2.12891e-14
-2.25779e-14
-2.14805e-14
-2.26945e-14
-2.16803e-14
-2.28055e-14
-2.18736e-14
-2.29098e-14
-2.20614e-14
-2.30137e-14
-2.22682e-14
-2.30999e-14
-2.24952e-14
-2.32122e-14
-2.26909e-14
-2.33413e-14
-2.28724e-14
-2.34707e-14
-2.30332e-14
-2.35999e-14
-2.32345e-14
-2.37116e-14
-2.3447e-14
-2.38638e-14
-2.36579e-14
-2.3995e-14
-2.38681e-14
-2.41637e-14
-2.40344e-14
-2.43095e-14
-2.42019e-14
-2.44769e-14
-2.4356e-14
-2.46363e-14
-2.45259e-14
-2.48023e-14
-2.46972e-14
-2.49604e-14
-2.49143e-14
-2.51381e-14
-2.50906e-14
-2.53356e-14
-2.52263e-14
-2.54824e-14
-2.5378e-14
-2.5636e-14
-2.55455e-14
-2.58097e-14
-2.57148e-14
-2.59895e-14
-2.58859e-14
-2.61618e-14
-2.60722e-14
-2.63122e-14
-2.6231e-14
-2.64546e-14
-2.64054e-14
-2.6602e-14
-2.65543e-14
-2.6768e-14
-2.67339e-14
-2.69378e-14
-2.68896e-14
-2.70707e-14
-2.70355e-14
-2.72355e-14
-2.71581e-14
-2.7393e-14
-2.73109e-14
-2.75438e-14
-2.75202e-14
-2.77133e-14
-2.76934e-14
-2.78749e-14
-2.7804e-14
-2.80317e-14
-2.78769e-14
-2.81616e-14
-2.79882e-14
-2.82934e-14
-2.82015e-14
-2.84371e-14
-2.84151e-14
-2.85776e-14
-2.85685e-14
-2.87147e-14
-2.86912e-14
-2.88367e-14
-2.87575e-14
-2.89604e-14
-2.89056e-14
-2.91106e-14
-2.90601e-14
-2.92368e-14
-2.92106e-14
-2.93519e-14
-2.93093e-14
-2.9458e-14
-2.9418e-14
-2.96182e-14
-2.95616e-14
-2.9773e-14
-2.96898e-14
-2.98782e-14
-2.98273e-14
-3.00069e-14
-2.9953e-14
-3.01351e-14
-3.00682e-14
-3.02641e-14
-3.0222e-14
-3.03222e-14
-3.03465e-14
-3.04467e-14
-3.04716e-14
-3.0544e-14
-3.05974e-14
-3.06356e-14
-3.07019e-14
-3.07431e-14
-3.07866e-14
-3.08903e-14
-3.09194e-14
-3.09884e-14
-3.1009e-14
-3.11058e-14
-3.11445e-14
-3.12201e-14
-3.12624e-14
-3.13554e-14
-3.13225e-14
-3.14547e-14
-3.14272e-14
-3.15598e-14
-3.15325e-14
-3.16928e-14
-3.16593e-14
-3.17696e-14
-3.17631e-14
-3.18707e-14
-3.18892e-14
-3.19937e-14
-3.19964e-14
-3.20996e-14
-3.20815e-14
-3.21903e-14
-3.21643e-14
-3.22852e-14
-3.22848e-14
-3.24005e-14
-3.24065e-14
-3.24741e-14
-3.24908e-14
-3.2583e-14
-3.25364e-14
-3.26758e-14
-3.26735e-14
-3.27652e-14
-3.27897e-14
-3.28449e-14
-3.28534e-14
-3.29521e-14
-3.29042e-14
-3.30168e-14
-3.30114e-14
-3.3089e-14
-3.30858e-14
1.01613e-14
9.30015e-15
1.01612e-14
9.30007e-15
1.01608e-14
9.29988e-15
1.01603e-14
9.29955e-15
1.01595e-14
9.29906e-15
1.01585e-14
9.29841e-15
1.01572e-14
9.29759e-15
1.01557e-14
9.29663e-15
1.01539e-14
9.29549e-15
1.01519e-14
9.29415e-15
1.01496e-14
9.29265e-15
1.0147e-14
9.29092e-15
1.01442e-14
9.289e-15
1.0141e-14
9.28687e-15
1.01376e-14
9.28451e-15
1.01338e-14
9.28191e-15
1.01295e-14
9.27905e-15
1.01249e-14
9.27591e-15
1.01198e-14
9.27243e-15
1.01141e-14
9.26854e-15
1.01079e-14
9.26432e-15
1.01011e-14
9.25972e-15
1.00935e-14
9.2548e-15
1.00852e-14
9.24934e-15
1.00762e-14
9.24326e-15
1.00664e-14
9.23654e-15
1.00556e-14
9.22923e-15
1.00439e-14
9.22142e-15
1.00313e-14
9.21303e-15
1.00177e-14
9.20384e-15
1.00028e-14
9.19373e-15
9.98691e-15
9.18295e-15
9.96985e-15
9.17161e-15
9.95164e-15
9.15956e-15
9.93199e-15
9.1466e-15
9.91108e-15
9.13295e-15
9.88897e-15
9.11835e-15
9.86543e-15
9.10284e-15
9.84051e-15
9.08613e-15
9.81419e-15
9.06855e-15
9.78642e-15
9.05028e-15
9.75686e-15
9.03132e-15
9.72599e-15
9.01114e-15
9.6939e-15
8.98959e-15
9.66012e-15
8.96731e-15
9.62475e-15
8.94395e-15
9.58787e-15
8.91972e-15
9.5491e-15
8.89485e-15
9.50853e-15
8.86861e-15
9.46601e-15
8.84147e-15
9.42177e-15
8.81317e-15
9.37551e-15
8.78343e-15
9.32776e-15
8.75303e-15
9.27822e-15
8.72114e-15
9.2269e-15
8.68775e-15
9.17405e-15
8.65339e-15
9.11968e-15
8.61749e-15
9.06409e-15
8.5806e-15
9.0067e-15
8.54242e-15
8.94779e-15
8.50202e-15
8.88738e-15
8.45998e-15
8.82516e-15
8.41627e-15
8.76081e-15
8.37216e-15
8.69496e-15
8.32539e-15
8.62698e-15
8.27788e-15
8.55854e-15
8.22931e-15
8.48797e-15
8.17797e-15
8.41562e-15
8.12659e-15
8.34151e-15
8.07274e-15
8.26564e-15
8.01638e-15
8.18766e-15
7.95855e-15
8.10832e-15
7.89926e-15
8.02615e-15
7.83958e-15
7.94191e-15
7.77843e-15
7.85485e-15
7.71618e-15
7.7661e-15
7.65092e-15
7.67608e-15
7.58416e-15
7.58442e-15
7.51629e-15
7.49076e-15
7.44534e-15
7.39473e-15
7.37207e-15
7.29754e-15
7.29767e-15
7.19882e-15
7.22134e-15
7.09862e-15
7.14306e-15
6.99572e-15
7.06366e-15
6.8918e-15
6.98147e-15
6.7844e-15
6.89732e-15
6.67437e-15
6.81205e-15
6.56343e-15
6.72481e-15
6.44906e-15
6.63561e-15
6.33212e-15
6.54616e-15
6.21527e-15
6.45301e-15
6.09506e-15
6.35965e-15
5.9724e-15
6.26432e-15
5.84731e-15
6.16438e-15
5.71982e-15
6.06425e-15
5.59089e-15
5.96307e-15
5.45965e-15
5.86177e-15
5.32705e-15
5.75671e-15
5.1959e-15
5.64513e-15
5.06075e-15
5.5316e-15
4.92535e-15
5.41891e-15
4.78509e-15
5.30524e-15
4.64468e-15
5.18966e-15
4.50421e-15
5.07126e-15
4.35993e-15
4.95097e-15
4.21572e-15
4.82787e-15
4.06685e-15
4.70195e-15
3.91527e-15
4.57805e-15
3.7649e-15
4.44944e-15
3.6139e-15
4.31807e-15
3.45939e-15
4.18785e-15
3.30339e-15
4.05393e-15
3.14498e-15
3.91631e-15
2.98718e-15
3.77601e-15
2.82808e-15
3.63502e-15
2.67076e-15
3.49338e-15
2.50729e-15
3.34813e-15
2.34475e-15
3.20028e-15
2.18019e-15
3.05391e-15
2.01368e-15
2.90198e-15
1.84631e-15
2.74754e-15
1.67815e-15
2.5886e-15
1.50725e-15
2.42516e-15
1.33571e-15
2.2634e-15
1.16569e-15
2.09721e-15
9.95197e-16
1.93073e-15
8.16058e-16
1.76195e-15
6.36595e-16
1.59091e-15
4.54811e-16
1.41973e-15
2.7911e-16
1.24013e-15
9.91627e-17
1.06465e-15
-8.28745e-17
8.89193e-16
-2.64829e-16
7.07504e-16
-4.50828e-16
5.23825e-16
-6.36589e-16
3.42423e-16
-8.22033e-16
1.61262e-16
-1.00496e-15
-2.17139e-17
-1.19376e-15
-2.04321e-16
-1.38414e-15
-3.86488e-16
-1.57602e-15
-5.70266e-16
-1.76508e-15
-7.61985e-16
-1.95976e-15
-9.55189e-16
-2.1493e-15
-1.14339e-15
-2.34219e-15
-1.33293e-15
-2.53835e-15
-1.52803e-15
-2.73773e-15
-1.72432e-15
-2.93163e-15
-1.92389e-15
-3.12645e-15
-2.11804e-15
-3.31994e-15
-2.31531e-15
-3.51634e-15
-2.51778e-15
-3.71558e-15
-2.71891e-15
-3.91325e-15
-2.92076e-15
-4.11146e-15
-3.11892e-15
-4.30581e-15
-3.31762e-15
-4.50488e-15
-3.52329e-15
-4.7021e-15
-3.73585e-15
-4.89085e-15
-3.94653e-15
-5.09276e-15
-4.15093e-15
-5.29038e-15
-4.35545e-15
-5.48581e-15
-4.56001e-15
-5.68333e-15
-4.76887e-15
-5.87851e-15
-4.9841e-15
-6.06688e-15
-5.21003e-15
-6.26573e-15
-5.42916e-15
-6.45754e-15
-5.64144e-15
-6.65964e-15
-5.85552e-15
-6.8545e-15
-6.0713e-15
-7.0595e-15
-6.28435e-15
-7.26582e-15
-6.50328e-15
-7.47341e-15
-6.72802e-15
-7.68216e-15
-6.94102e-15
-7.88769e-15
-7.164e-15
-8.08553e-15
-7.39253e-15
-8.28866e-15
-7.61347e-15
-8.50134e-15
-7.83112e-15
-8.71478e-15
-8.0541e-15
-8.92019e-15
-8.28667e-15
-9.13054e-15
-8.50699e-15
-9.34138e-15
-8.72368e-15
-9.54833e-15
-8.9497e-15
-9.75561e-15
-9.1676e-15
-9.96752e-15
-9.38164e-15
-1.01753e-14
-9.59607e-15
-1.03832e-14
-9.81944e-15
-1.05955e-14
-1.00387e-14
-1.07948e-14
-1.02536e-14
-1.09982e-14
-1.04643e-14
-1.11928e-14
-1.06835e-14
-1.14085e-14
-1.09026e-14
-1.16195e-14
-1.11214e-14
-1.18341e-14
-1.13484e-14
-1.20481e-14
-1.15835e-14
-1.22655e-14
-1.18053e-14
-1.24777e-14
-1.20221e-14
-1.26846e-14
-1.22425e-14
-1.28862e-14
-1.24664e-14
-1.3078e-14
-1.26896e-14
-1.329e-14
-1.28992e-14
-1.34962e-14
-1.31165e-14
-1.36839e-14
-1.335e-14
-1.38741e-14
-1.357e-14
-1.4071e-14
-1.37809e-14
-1.42786e-14
-1.39868e-14
-1.44756e-14
-1.42049e-14
-1.46874e-14
-1.44096e-14
-1.48969e-14
-1.46178e-14
-1.51043e-14
-1.48211e-14
-1.53181e-14
-1.50277e-14
-1.55298e-14
-1.52376e-14
-1.57311e-14
-1.54505e-14
-1.59471e-14
-1.56499e-14
-1.61697e-14
-1.58522e-14
-1.63823e-14
-1.60574e-14
-1.65682e-14
-1.62735e-14
-1.67523e-14
-1.64839e-14
-1.69762e-14
-1.66806e-14
-1.71985e-14
-1.68799e-14
-1.74029e-14
-1.70899e-14
-1.75896e-14
-1.72856e-14
-1.77833e-14
-1.7492e-14
-1.79758e-14
-1.7709e-14
-1.81915e-14
-1.79203e-14
-1.83978e-14
-1.81258e-14
-1.8595e-14
-1.83417e-14
-1.87913e-14
-1.85438e-14
-1.89867e-14
-1.87318e-14
-1.91976e-14
-1.89382e-14
-1.93757e-14
-1.91544e-14
-1.95529e-14
-1.93404e-14
-1.97452e-14
-1.95205e-14
-1.99287e-14
-1.97346e-14
-2.01189e-14
-1.99587e-14
-2.03153e-14
-2.01453e-14
-2.05104e-14
-2.03422e-14
-2.07121e-14
-2.05494e-14
-2.09048e-14
-2.07507e-14
-2.10964e-14
-2.09544e-14
-2.13028e-14
-2.11528e-14
-2.14931e-14
-2.13377e-14
-2.16912e-14
-2.15246e-14
-2.18822e-14
-2.17209e-14
-2.20743e-14
-2.19108e-14
-2.22526e-14
-2.21017e-14
-2.24177e-14
-2.22704e-14
-2.25929e-14
-2.24394e-14
-2.27785e-14
-2.26314e-14
-2.30207e-14
-2.28158e-14
-2.32145e-14
-2.30063e-14
-2.33766e-14
-2.32326e-14
-2.35358e-14
-2.34353e-14
-2.37368e-14
-2.36152e-14
-2.39198e-14
-2.38017e-14
-2.40854e-14
-2.39801e-14
-2.42779e-14
-2.41358e-14
-2.44243e-14
-2.43121e-14
-2.4627e-14
-2.45093e-14
-2.47983e-14
-2.46972e-14
-2.49524e-14
-2.48617e-14
-2.51757e-14
-2.50323e-14
-2.53832e-14
-2.51932e-14
-2.55485e-14
-2.53568e-14
-2.57148e-14
-2.55659e-14
-2.58808e-14
-2.57786e-14
-2.6059e-14
-2.59397e-14
-2.62219e-14
-2.61053e-14
-2.63981e-14
-2.6261e-14
-2.65746e-14
-2.63919e-14
-2.67395e-14
-2.65373e-14
-2.68796e-14
-2.66956e-14
-2.70224e-14
-2.68395e-14
-2.71674e-14
-2.70103e-14
-2.73135e-14
-2.71951e-14
-2.74454e-14
-2.73806e-14
-2.7587e-14
-2.75151e-14
-2.77247e-14
-2.76259e-14
-2.78323e-14
-2.77926e-14
-2.79468e-14
-2.79518e-14
-2.8052e-14
-2.81044e-14
-2.81837e-14
-2.81853e-14
-2.83176e-14
-2.82951e-14
-2.84283e-14
-2.84186e-14
-2.85537e-14
-2.85315e-14
-2.86809e-14
-2.86193e-14
-2.87857e-14
-2.87412e-14
-2.88792e-14
-2.88711e-14
-2.89833e-14
-2.89989e-14
-2.90958e-14
-2.91261e-14
-2.91763e-14
-2.92156e-14
-2.92708e-14
-2.93283e-14
-2.94132e-14
-2.94271e-14
-2.9557e-14
-2.95076e-14
-2.96584e-14
-2.96119e-14
-2.97638e-14
-2.9737e-14
-2.98728e-14
-2.98832e-14
-2.99811e-14
-3.0053e-14
-3.01066e-14
-3.01818e-14
-3.0249e-14
-3.02711e-14
-3.03672e-14
-3.03853e-14
-3.05053e-14
-3.05223e-14
-3.05962e-14
-3.06149e-14
-3.06831e-14
-3.06836e-14
-3.07878e-14
-3.07907e-14
-3.09515e-14
-3.0915e-14
-3.107e-14
-3.10521e-14
-3.11854e-14
-3.12043e-14
-3.13348e-14
-3.13327e-14
-3.14377e-14
-3.14999e-14
-3.15502e-14
-3.16505e-14
-3.16867e-14
-3.17284e-14
-3.18336e-14
-3.18309e-14
-3.19574e-14
-3.1932e-14
-3.2083e-14
-3.20475e-14
-3.22116e-14
-3.21948e-14
-3.23238e-14
-3.2278e-14
-3.24435e-14
-3.23964e-14
-3.25725e-14
-3.24672e-14
-3.27218e-14
-3.25177e-14
-3.2833e-14
-3.259e-14
-3.29334e-14
-3.26773e-14
-3.30487e-14
-3.27738e-14
-3.31649e-14
-3.31466e-14
-3.32438e-14
-3.32254e-14
-3.33072e-14
-3.32421e-14
-3.33863e-14
-3.33154e-14
-3.34422e-14
-3.3424e-14
-3.34841e-14
-3.34761e-14
-3.3531e-14
-3.35723e-14
-3.35973e-14
-3.36638e-14
-3.36401e-14
-3.36714e-14
-3.3682e-14
-3.36261e-14
-3.37139e-14
-3.36965e-14
-3.37722e-14
-3.37236e-14
-3.37997e-14
-3.37455e-14
-3.38366e-14
-3.37829e-14
-3.3861e-14
-3.37947e-14
-3.38945e-14
-3.38234e-14
-3.39147e-14
-3.38693e-14
-3.39631e-14
-3.38709e-14
-3.39796e-14
-3.38872e-14
-3.39855e-14
-3.39626e-14
-3.40187e-14
-3.39961e-14
-3.4011e-14
-3.39881e-14
-3.4027e-14
-3.40052e-14
-3.40447e-14
-3.40458e-14
-3.41309e-14
-3.40654e-14
-3.41777e-14
-3.4081e-14
-3.42103e-14
-3.41137e-14
-3.42274e-14
-3.41877e-14
-3.4295e-14
-3.41652e-14
-3.43028e-14
-3.42061e-14
-3.43433e-14
-3.42912e-14
-3.43657e-14
-3.43276e-14
-3.43925e-14
-3.43148e-14
-3.44382e-14
-3.43357e-14
-3.4467e-14
-3.43513e-14
-3.44663e-14
-3.441e-14
-3.44575e-14
-3.45046e-14
-3.45091e-14
-3.45422e-14
-3.45463e-14
-3.45469e-14
-3.45716e-14
-3.45551e-14
-3.45987e-14
-3.45912e-14
-3.46268e-14
-3.45913e-14
-3.46565e-14
-3.46033e-14
-3.47285e-14
-3.46656e-14
-3.47257e-14
-3.46997e-14
-3.47381e-14
-3.47343e-14
-3.47642e-14
-3.48242e-14
-3.4815e-14
-3.48381e-14
-3.48384e-14
-3.48408e-14
-3.48761e-14
-3.48175e-14
-3.49037e-14
-3.48475e-14
-3.4948e-14
-3.49316e-14
-3.49801e-14
-3.4975e-14
-3.49848e-14
-3.49924e-14
-3.50171e-14
-3.50401e-14
-3.50771e-14
-3.50761e-14
-3.5096e-14
-3.50848e-14
-3.51018e-14
-3.51224e-14
-3.51218e-14
-3.51472e-14
-3.51409e-14
-3.51736e-14
-3.51444e-14
-3.51872e-14
-3.51456e-14
-3.51883e-14
-3.51738e-14
-3.52058e-14
-3.51866e-14
-3.51955e-14
-3.51995e-14
-3.51709e-14
-3.52282e-14
-3.51603e-14
-3.52739e-14
-3.51627e-14
-3.52785e-14
-3.51766e-14
-3.52563e-14
-3.51875e-14
-3.52808e-14
-3.51815e-14
-3.52633e-14
-3.51883e-14
-3.52781e-14
-3.51936e-14
-3.52952e-14
-3.52122e-14
-3.53299e-14
-3.5229e-14
-3.53526e-14
-3.52438e-14
-3.53326e-14
-3.52413e-14
-3.53305e-14
-3.52372e-14
-3.53537e-14
-3.52624e-14
-3.53716e-14
-3.52789e-14
-3.53451e-14
-3.52632e-14
-3.53355e-14
-3.52384e-14
-3.53352e-14
-3.52276e-14
-3.53445e-14
-3.52228e-14
-3.53403e-14
-3.52239e-14
-3.533e-14
-3.5231e-14
-3.5329e-14
-3.52365e-14
-3.53374e-14
-3.52405e-14
-3.53473e-14
-3.5251e-14
-3.53267e-14
-3.52602e-14
-3.53311e-14
-3.52683e-14
-3.53203e-14
-3.52754e-14
-3.53179e-14
-3.52655e-14
-3.53162e-14
-3.52546e-14
-3.53151e-14
-3.52668e-14
-3.53144e-14
-3.527e-14
-3.53059e-14
-3.52481e-14
-3.53061e-14
-3.52332e-14
-3.52986e-14
-3.52253e-14
-3.52999e-14
-3.52243e-14
-3.53101e-14
-3.52304e-14
-3.52963e-14
-3.52272e-14
-3.52831e-14
-3.5215e-14
-3.52705e-14
-3.52184e-14
-3.52664e-14
-3.52211e-14
-3.5271e-14
-3.52066e-14
-3.52594e-14
-3.51913e-14
-3.52482e-14
-3.51919e-14
-3.52457e-14
-3.51919e-14
-3.52437e-14
-3.5183e-14
-3.52336e-14
-3.51735e-14
-3.52324e-14
-3.51634e-14
-3.52318e-14
-3.51526e-14
-3.52233e-14
-3.51665e-14
-3.52069e-14
-3.51799e-14
-3.51907e-14
-3.51676e-14
-3.51831e-14
-3.5155e-14
-3.51928e-14
-3.51591e-14
-3.51943e-14
-3.51628e-14
-3.51961e-14
-3.51662e-14
-3.52068e-14
-3.51564e-14
-3.52051e-14
-3.51462e-14
-3.51954e-14
-3.5144e-14
-3.5199e-14
-3.51285e-14
-3.51859e-14
-3.51296e-14
-3.51904e-14
-3.51217e-14
-3.5191e-14
-3.51046e-14
-3.51793e-14
-3.50997e-14
-3.51636e-14
-3.51073e-14
-3.51655e-14
-3.51101e-14
-3.51591e-14
-3.50954e-14
-3.51486e-14
-3.50802e-14
-3.51514e-14
-3.50688e-14
-3.51632e-14
-3.5057e-14
-3.51582e-14
-3.50402e-14
-3.51535e-14
-3.50228e-14
-3.51537e-14
-3.50178e-14
-3.51544e-14
-3.50209e-14
-3.51511e-14
-3.50103e-14
-3.51526e-14
-3.4986e-14
-3.51502e-14
-3.4961e-14
-3.51484e-14
-3.49483e-14
-3.51514e-14
-3.49349e-14
-3.51507e-14
-3.4925e-14
-3.51462e-14
-3.49186e-14
-3.51378e-14
-3.49114e-14
-3.513e-14
-3.48948e-14
-3.51226e-14
-3.48904e-14
-3.51157e-14
-3.48852e-14
-3.5118e-14
-3.48793e-14
-3.51076e-14
-3.48771e-14
-3.51063e-14
-3.48785e-14
-3.51141e-14
-3.48792e-14
-3.5118e-14
-3.48792e-14
-3.51179e-14
-3.48785e-14
-3.51225e-14
-3.48772e-14
-3.51232e-14
-3.48753e-14
-3.51244e-14
-3.48727e-14
-3.51259e-14
-3.48695e-14
-3.51236e-14
-3.48744e-14
-3.5126e-14
-3.48743e-14
-3.51288e-14
-3.48736e-14
-3.51189e-14
-3.48768e-14
-3.51073e-14
-3.48837e-14
-3.51091e-14
-3.48837e-14
-3.5109e-14
-3.48809e-14
-3.51006e-14
-3.48821e-14
-3.50925e-14
-3.48828e-14
-3.50696e-14
-3.48808e-14
-3.506e-14
-3.48872e-14
-3.50636e-14
-3.49019e-14
-3.50587e-14
-3.49118e-14
-3.50541e-14
-3.4915e-14
-3.50475e-14
-3.49136e-14
-3.50454e-14
-3.49142e-14
-3.50477e-14
-3.49166e-14
-3.50437e-14
-3.49209e-14
-3.50378e-14
-3.49229e-14
-3.50363e-14
-3.49332e-14
-3.5037e-14
-3.4939e-14
-3.50356e-14
-3.4934e-14
-3.50302e-14
-3.49289e-14
-3.50312e-14
-3.493e-14
-3.50301e-14
-3.4933e-14
-3.50249e-14
-3.4936e-14
-3.50219e-14
-3.49388e-14
-3.50169e-14
-3.49478e-14
-3.5014e-14
-3.49546e-14
-3.5007e-14
-3.49571e-14
-3.5e-14
-3.49596e-14
-3.49951e-14
-3.49641e-14
-3.49924e-14
-3.49685e-14
-3.49875e-14
-3.4975e-14
-3.49848e-14
-3.49793e-14
-3.49799e-14
-3.49837e-14
-3.49772e-14
-3.49838e-14
-3.49765e-14
-3.4984e-14
-3.49737e-14
-3.49883e-14
-3.49708e-14
-3.49946e-14
-3.49659e-14
-3.49969e-14
-3.49631e-14
-3.49991e-14
-3.49602e-14
-3.50034e-14
-3.49572e-14
-3.50088e-14
-3.49512e-14
-3.50151e-14
-3.49452e-14
-3.50174e-14
-3.49421e-14
-3.50178e-14
-3.4938e-14
-3.50182e-14
-3.49338e-14
-3.50197e-14
-3.49305e-14
-3.50221e-14
-3.49263e-14
-3.50247e-14
-3.49229e-14
-3.50252e-14
-3.49215e-14
-3.50229e-14
-3.492e-14
-3.50207e-14
-3.49204e-14
-3.50205e-14
-3.49207e-14
-3.50212e-14
-3.492e-14
-3.50182e-14
-3.49202e-14
-3.50171e-14
-3.49222e-14
-3.5019e-14
-3.49214e-14
-3.50199e-14
-3.49195e-14
-3.50208e-14
-3.49204e-14
-3.5019e-14
-3.49232e-14
-3.50172e-14
-3.49249e-14
-3.50182e-14
-3.49266e-14
-3.50193e-14
-3.49282e-14
-3.50185e-14
-3.49298e-14
-3.50178e-14
-3.49313e-14
-3.5018e-14
-3.49328e-14
-3.50192e-14
-3.49324e-14
-3.50195e-14
-3.49338e-14
-3.50171e-14
-3.49387e-14
-3.50139e-14
-3.49417e-14
-3.50134e-14
-3.49456e-14
-3.50155e-14
-3.49477e-14
-3.50158e-14
-3.49498e-14
-3.50154e-14
-3.49518e-14
-3.50141e-14
-3.49546e-14
-3.5012e-14
-3.49557e-14
-3.50116e-14
-3.49584e-14
-3.5012e-14
-3.49611e-14
-3.50116e-14
-3.4963e-14
-3.50096e-14
-3.49648e-14
-3.50077e-14
-3.49665e-14
-3.50058e-14
-3.49691e-14
-3.50039e-14
-3.49716e-14
-3.5002e-14
-3.49729e-14
-3.50013e-14
-3.49738e-14
-3.50006e-14
-3.49754e-14
-3.49985e-14
-3.49767e-14
-3.49967e-14
-3.49783e-14
-3.49949e-14
-3.49802e-14
-3.49939e-14
-3.4981e-14
-3.49926e-14
-3.49822e-14
-3.49916e-14
-3.4983e-14
-3.49924e-14
-3.49844e-14
-3.49918e-14
-3.49862e-14
-3.49902e-14
-3.49876e-14
-3.49886e-14
-3.49881e-14
-3.49884e-14
-3.49888e-14
-3.49888e-14
-3.49901e-14
-3.49895e-14
-3.49908e-14
-3.49896e-14
-3.49918e-14
-3.499e-14
-3.49931e-14
-3.49904e-14
-3.49941e-14
-3.49893e-14
-3.4995e-14
-3.49891e-14
-3.49965e-14
-3.49894e-14
-3.49974e-14
-3.49901e-14
-3.4998e-14
-3.49902e-14
-3.49994e-14
-3.49905e-14
-3.50008e-14
-3.49906e-14
-3.50014e-14
-3.49906e-14
-3.50022e-14
-3.49904e-14
-3.50033e-14
-3.49907e-14
-3.5004e-14
-3.4991e-14
-3.50047e-14
-3.49912e-14
-3.50059e-14
-3.49908e-14
-3.50071e-14
-3.49907e-14
-3.50076e-14
-3.49908e-14
-3.50082e-14
-3.49908e-14
-3.50087e-14
-3.49911e-14
-3.50093e-14
-3.49912e-14
-3.501e-14
-3.49913e-14
-3.50107e-14
-3.49916e-14
-3.50112e-14
-3.49917e-14
-3.50116e-14
-3.49919e-14
-3.50121e-14
-3.49922e-14
-3.50125e-14
-3.49923e-14
-3.50128e-14
-3.49921e-14
-3.50132e-14
-3.49921e-14
-3.50134e-14
-3.4992e-14
-3.50136e-14
-3.49919e-14
-3.50139e-14
-3.49918e-14
-3.50142e-14
-3.49917e-14
-3.50144e-14
-3.49917e-14
-3.50146e-14
-3.49918e-14
-3.50148e-14
-3.49917e-14
-3.5015e-14
-3.49916e-14
-3.50151e-14
-3.49914e-14
-3.50152e-14
-3.49913e-14
-3.50154e-14
-3.49912e-14
-3.50155e-14
-3.49912e-14
-3.50157e-14
-3.49911e-14
-3.50158e-14
-3.4991e-14
-3.50159e-14
-3.4991e-14
-3.5016e-14
-3.49909e-14
-3.50161e-14
-3.49908e-14
-3.50162e-14
-3.49907e-14
-3.50163e-14
-3.49906e-14
-3.50164e-14
-3.49905e-14
-3.50165e-14
-3.49905e-14
-3.50166e-14
-3.49904e-14
-3.50166e-14
-3.49904e-14
-3.50167e-14
-3.49903e-14
-3.50167e-14
-3.49903e-14
-3.50167e-14
-3.49903e-14
-3.50168e-14
-3.49903e-14
-3.50168e-14
-3.49903e-14
-3.50168e-14
-3.49902e-14
-3.50168e-14
-3.49902e-14
-3.50168e-14
-3.49902e-14
-3.50168e-14
-3.49902e-14
-3.31675e-14
-3.28959e-14
-3.32342e-14
-3.29906e-14
-3.32418e-14
-3.31447e-14
-3.3319e-14
-3.32368e-14
-3.3404e-14
-3.33504e-14
-3.34348e-14
-3.34112e-14
-3.34657e-14
-3.34441e-14
-3.35155e-14
-3.3546e-14
-3.35965e-14
-3.3604e-14
-3.36331e-14
-3.36384e-14
-3.36662e-14
-3.36953e-14
-3.36928e-14
-3.37145e-14
-3.37541e-14
-3.37359e-14
-3.37943e-14
-3.37548e-14
-3.38368e-14
-3.37464e-14
-3.38886e-14
-3.3768e-14
-3.38884e-14
-3.37953e-14
-3.39187e-14
-3.38309e-14
-3.39339e-14
-3.38557e-14
-3.39324e-14
-3.38714e-14
-3.39792e-14
-3.38768e-14
-3.40342e-14
-3.38895e-14
-3.40356e-14
-3.39529e-14
-3.40678e-14
-3.40072e-14
-3.41064e-14
-3.40317e-14
-3.41506e-14
-3.40488e-14
-3.42024e-14
-3.40799e-14
-3.42402e-14
-3.41475e-14
-3.42383e-14
-3.41354e-14
-3.42659e-14
-3.41383e-14
-3.42775e-14
-3.42022e-14
-3.43166e-14
-3.42582e-14
-3.43583e-14
-3.42589e-14
-3.44057e-14
-3.43007e-14
-3.44468e-14
-3.43473e-14
-3.44311e-14
-3.43752e-14
-3.44681e-14
-3.43989e-14
-3.45098e-14
-3.44281e-14
-3.45182e-14
-3.44239e-14
-3.45439e-14
-3.44496e-14
-3.45872e-14
-3.44675e-14
-3.46368e-14
-3.45671e-14
-3.46642e-14
-3.45976e-14
-3.4669e-14
-3.46247e-14
-3.4701e-14
-3.46356e-14
-3.47358e-14
-3.46686e-14
-3.47603e-14
-3.47376e-14
-3.47859e-14
-3.47769e-14
-3.48114e-14
-3.47877e-14
-3.48238e-14
-3.4769e-14
-3.48787e-14
-3.48019e-14
-3.49088e-14
-3.48725e-14
-3.49674e-14
-3.48715e-14
-3.50018e-14
-3.48929e-14
-3.49986e-14
-3.49647e-14
-3.50244e-14
-3.50203e-14
-3.50495e-14
-3.50467e-14
-3.50741e-14
-3.50725e-14
-3.5127e-14
-3.51118e-14
-3.51664e-14
-3.51359e-14
-3.52073e-14
-3.51443e-14
-3.52076e-14
-3.51501e-14
-3.51815e-14
-3.51683e-14
-3.51557e-14
-3.51857e-14
-3.51873e-14
-3.51598e-14
-3.52048e-14
-3.51624e-14
-3.52232e-14
-3.52084e-14
-3.52414e-14
-3.5225e-14
-3.52298e-14
-3.5212e-14
-3.52182e-14
-3.51839e-14
-3.52217e-14
-3.51699e-14
-3.5241e-14
-3.51999e-14
-3.52306e-14
-3.52291e-14
-3.52347e-14
-3.52281e-14
-3.5238e-14
-3.5227e-14
-3.52556e-14
-3.52255e-14
-3.52732e-14
-3.52079e-14
-3.52915e-14
-3.52042e-14
-3.5311e-14
-3.52293e-14
-3.53391e-14
-3.52371e-14
-3.53535e-14
-3.52429e-14
-3.5323e-14
-3.52313e-14
-3.53251e-14
-3.52261e-14
-3.53287e-14
-3.5235e-14
-3.53257e-14
-3.52505e-14
-3.53238e-14
-3.52651e-14
-3.53227e-14
-3.52553e-14
-3.53225e-14
-3.52605e-14
-3.53149e-14
-3.5289e-14
-3.53236e-14
-3.53173e-14
-3.53323e-14
-3.53219e-14
-3.53252e-14
-3.53186e-14
-3.53262e-14
-3.53236e-14
-3.53436e-14
-3.5329e-14
-3.53451e-14
-3.53265e-14
-3.53306e-14
-3.53159e-14
-3.5341e-14
-3.53137e-14
-3.53272e-14
-3.53198e-14
-3.53219e-14
-3.53099e-14
-3.53168e-14
-3.52839e-14
-3.53038e-14
-3.52659e-14
-3.52911e-14
-3.52643e-14
-3.52952e-14
-3.52709e-14
-3.52914e-14
-3.52776e-14
-3.52878e-14
-3.52678e-14
-3.52761e-14
-3.52414e-14
-3.52647e-14
-3.52232e-14
-3.52537e-14
-3.52215e-14
-3.52514e-14
-3.52196e-14
-3.52241e-14
-3.52177e-14
-3.52136e-14
-3.52074e-14
-3.5203e-14
-3.51973e-14
-3.51924e-14
-3.51956e-14
-3.51901e-14
-3.5211e-14
-3.51706e-14
-3.52182e-14
-3.51508e-14
-3.52089e-14
-3.51474e-14
-3.52086e-14
-3.51521e-14
-3.52258e-14
-3.51392e-14
-3.52265e-14
-3.51342e-14
-3.52195e-14
-3.51285e-14
-3.52173e-14
-3.51307e-14
-3.52157e-14
-3.51237e-14
-3.52148e-14
-3.51375e-14
-3.52102e-14
-3.51466e-14
-3.52105e-14
-3.51381e-14
-3.5207e-14
-3.51334e-14
-3.51868e-14
-3.51284e-14
-3.51757e-14
-3.51318e-14
-3.51778e-14
-3.51349e-14
-3.51802e-14
-3.51421e-14
-3.51658e-14
-3.51405e-14
-3.51558e-14
-3.51345e-14
-3.51505e-14
-3.51458e-14
-3.5141e-14
-3.5144e-14
-3.51274e-14
-3.51509e-14
-3.51182e-14
-3.51623e-14
-3.51177e-14
-3.51739e-14
-3.51173e-14
-3.5177e-14
-3.51038e-14
-3.51717e-14
-3.50815e-14
-3.51797e-14
-3.50636e-14
-3.51881e-14
-3.50584e-14
-3.5197e-14
-3.50575e-14
-3.52063e-14
-3.50563e-14
-3.5203e-14
-3.50549e-14
-3.52089e-14
-3.5049e-14
-3.52153e-14
-3.50385e-14
-3.52267e-14
-3.50321e-14
-3.52255e-14
-3.50341e-14
-3.52206e-14
-3.5049e-14
-3.52249e-14
-3.50549e-14
-3.52166e-14
-3.50476e-14
-3.52088e-14
-3.50444e-14
-3.51927e-14
-3.50498e-14
-3.519e-14
-3.50464e-14
-3.51746e-14
-3.50384e-14
-3.51639e-14
-3.50391e-14
-3.51578e-14
-3.50485e-14
-3.51607e-14
-3.50534e-14
-3.51464e-14
-3.5054e-14
-3.51366e-14
-3.50545e-14
-3.51291e-14
-3.50573e-14
-3.51152e-14
-3.50688e-14
-3.51057e-14
-3.5076e-14
-3.50855e-14
-3.50789e-14
-3.50761e-14
-3.50776e-14
-3.50601e-14
-3.5083e-14
-3.50572e-14
-3.50864e-14
-3.50499e-14
-3.50878e-14
-3.50338e-14
-3.50915e-14
-3.50285e-14
-3.50933e-14
-3.50317e-14
-3.50909e-14
-3.50327e-14
-3.50866e-14
-3.50294e-14
-3.50845e-14
-3.50281e-14
-3.50805e-14
-3.50267e-14
-3.5081e-14
-3.50274e-14
-3.50794e-14
-3.50302e-14
-3.50759e-14
-3.50265e-14
-3.50703e-14
-3.50292e-14
-3.50605e-14
-3.5034e-14
-3.50573e-14
-3.50366e-14
-3.50563e-14
-3.5035e-14
-3.50532e-14
-3.50333e-14
-3.50439e-14
-3.50317e-14
-3.50367e-14