/*--------------------------------*- C++ -*----------------------------------*\
| =========                 |                                                 |
| \\      /  F ield         | OpenFOAM: The Open Source CFD Toolbox           |
|  \\    /   O peration     | Version:  2106                                  |
|   \\  /    A nd           | Website:  www.openfoam.com                      |
|    \\/     M anipulation  |                                                 |
\*---------------------------------------------------------------------------*/
FoamFile
{
    version     2.0;
    format      ascii;
    arch        "LSB;label=32;scalar=64";
    class       volVectorField;
    location    "11000";
    object      U;
}
// * * * * * * * * * * * * * * * * * * * * * * * * * * * * * * * * * * * * * //

dimensions      [0 1 -1 0 0 0 0];

internalField   nonuniform List<vector> 
2560
(
(0.00671584 -1.01961e-15 -3.43556e-18)
(0.00671584 -7.34882e-19 4.51043e-18)
(0.0202434 -2.35999e-15 1.91453e-16)
(0.0202434 3.63515e-19 5.35713e-17)
(0.0339657 -2.51689e-15 1.98129e-16)
(0.0339657 9.36201e-19 5.51291e-17)
(0.0478856 -2.30783e-15 2.05696e-16)
(0.0478856 1.80486e-18 5.67249e-17)
(0.0620055 -2.28377e-15 2.13449e-16)
(0.0620055 2.67276e-18 5.83645e-17)
(0.0763271 -2.29398e-15 2.21358e-16)
(0.0763271 3.58486e-18 6.00475e-17)
(0.0908509 -2.30041e-15 2.29437e-16)
(0.0908509 4.55728e-18 6.17669e-17)
(0.105575 -2.30355e-15 2.37648e-16)
(0.105575 5.51719e-18 6.35103e-17)
(0.120492 -2.3064e-15 2.45907e-16)
(0.120492 6.45468e-18 6.52548e-17)
(0.135591 -2.30935e-15 2.54088e-16)
(0.135591 7.37576e-18 6.69683e-17)
(0.150851 -2.31247e-15 2.6202e-16)
(0.150851 8.38236e-18 6.8607e-17)
(0.16624 -2.31566e-15 2.69483e-16)
(0.16624 9.39742e-18 7.01137e-17)
(0.181716 -2.31898e-15 2.76221e-16)
(0.181716 1.03734e-17 7.14247e-17)
(0.197221 -2.32242e-15 2.81967e-16)
(0.197221 1.14046e-17 7.24746e-17)
(0.212689 -2.326e-15 2.86471e-16)
(0.212689 1.23799e-17 7.32012e-17)
(0.228042 -2.32978e-15 2.89542e-16)
(0.228042 1.34013e-17 7.35583e-17)
(0.2432 -2.33357e-15 2.91072e-16)
(0.2432 1.44129e-17 7.35211e-17)
(0.258085 -2.3374e-15 2.91061e-16)
(0.258085 1.53081e-17 7.30922e-17)
(0.272624 -2.34146e-15 2.89607e-16)
(0.272624 1.64328e-17 7.23023e-17)
(0.286757 -2.34552e-15 2.8689e-16)
(0.286757 1.75593e-17 7.11943e-17)
(0.300437 -2.34938e-15 2.83144e-16)
(0.300437 1.84371e-17 6.9838e-17)
(0.313632 -2.35322e-15 2.78622e-16)
(0.313632 1.93387e-17 6.82947e-17)
(0.326324 -2.35705e-15 2.73569e-16)
(0.326324 2.03948e-17 6.6625e-17)
(0.338507 -2.36055e-15 2.68208e-16)
(0.338507 2.10309e-17 6.48812e-17)
(0.350186 -2.36363e-15 2.62726e-16)
(0.350186 2.14522e-17 6.31116e-17)
(0.361372 -2.367e-15 2.57272e-16)
(0.361372 2.20256e-17 6.13514e-17)
(0.372083 -2.37034e-15 2.51958e-16)
(0.372083 2.29122e-17 5.96316e-17)
(0.382339 -2.37346e-15 2.46868e-16)
(0.382339 2.41322e-17 5.79762e-17)
(0.392164 -2.37669e-15 2.42058e-16)
(0.392164 2.53346e-17 5.639e-17)
(0.40158 -2.37952e-15 2.37562e-16)
(0.40158 2.60309e-17 5.4872e-17)
(0.410613 -2.38204e-15 2.33404e-16)
(0.410613 2.63451e-17 5.34362e-17)
(0.419285 -2.38463e-15 2.29591e-16)
(0.419285 2.68524e-17 5.2095e-17)
(0.427619 -2.38719e-15 2.26125e-16)
(0.427619 2.76299e-17 5.08416e-17)
(0.435637 -2.38982e-15 2.22999e-16)
(0.435637 2.83071e-17 4.96711e-17)
(0.443358 -2.39239e-15 2.20206e-16)
(0.443358 2.89866e-17 4.85725e-17)
(0.450803 -2.39497e-15 2.17731e-16)
(0.450803 2.96295e-17 4.75442e-17)
(0.457988 -2.39755e-15 2.15561e-16)
(0.457988 3.02103e-17 4.65838e-17)
(0.464931 -2.39999e-15 2.13683e-16)
(0.464931 3.09531e-17 4.56867e-17)
(0.471646 -2.40257e-15 2.12081e-16)
(0.471646 3.17599e-17 4.48398e-17)
(0.478149 -2.40511e-15 2.10744e-16)
(0.478149 3.2348e-17 4.4042e-17)
(0.484451 -2.40761e-15 2.09657e-16)
(0.484451 3.27821e-17 4.331e-17)
(0.490565 -2.41009e-15 2.08808e-16)
(0.490565 3.36099e-17 4.26236e-17)
(0.496503 -2.41263e-15 2.08186e-16)
(0.496503 3.42819e-17 4.19741e-17)
(0.502274 -2.41539e-15 2.07779e-16)
(0.502274 3.50987e-17 4.13453e-17)
(0.507889 -2.41791e-15 2.07576e-16)
(0.507889 3.59122e-17 4.07589e-17)
(0.513356 -2.42005e-15 2.07571e-16)
(0.513356 3.63571e-17 4.02186e-17)
(0.518684 -2.42227e-15 2.07755e-16)
(0.518684 3.69607e-17 3.9716e-17)
(0.52388 -2.42441e-15 2.08121e-16)
(0.52388 3.75326e-17 3.92456e-17)
(0.528952 -2.42619e-15 2.08662e-16)
(0.528952 3.7908e-17 3.878e-17)
(0.533906 -2.42768e-15 2.09375e-16)
(0.533906 3.81925e-17 3.83502e-17)
(0.538747 -2.42875e-15 2.10251e-16)
(0.538747 3.8126e-17 3.79533e-17)
(0.543483 -2.42872e-15 2.11284e-16)
(0.543483 3.73052e-17 3.75923e-17)
(0.548118 -2.42876e-15 2.12475e-16)
(0.548118 3.6719e-17 3.72759e-17)
(0.552657 -2.4295e-15 2.13815e-16)
(0.552657 3.62202e-17 3.69892e-17)
(0.557104 -2.43061e-15 2.153e-16)
(0.557104 3.55516e-17 3.67248e-17)
(0.561465 -2.43147e-15 2.16926e-16)
(0.561465 3.53288e-17 3.64959e-17)
(0.565744 -2.43199e-15 2.18693e-16)
(0.565744 3.48308e-17 3.6272e-17)
(0.569943 -2.43253e-15 2.20592e-16)
(0.569943 3.37999e-17 3.60824e-17)
(0.574067 -2.43257e-15 2.2263e-16)
(0.574067 3.30907e-17 3.59071e-17)
(0.578119 -2.43298e-15 2.24803e-16)
(0.578119 3.21015e-17 3.57621e-17)
(0.582103 -2.4334e-15 2.27108e-16)
(0.582103 3.11109e-17 3.56232e-17)
(0.58602 -2.43356e-15 2.29546e-16)
(0.58602 3.08349e-17 3.54981e-17)
(0.589875 -2.43382e-15 2.32113e-16)
(0.589875 2.94997e-17 3.53971e-17)
(0.593669 -2.43373e-15 2.34809e-16)
(0.593669 2.88323e-17 3.53067e-17)
(0.597405 -2.43435e-15 2.37632e-16)
(0.597405 2.84458e-17 3.52574e-17)
(0.601085 -2.43595e-15 2.40577e-16)
(0.601085 2.82851e-17 3.52024e-17)
(0.604713 -2.43776e-15 2.43639e-16)
(0.604713 2.90519e-17 3.51246e-17)
(0.608289 -2.44034e-15 2.46817e-16)
(0.608289 2.9556e-17 3.50825e-17)
(0.611816 -2.44291e-15 2.50107e-16)
(0.611816 3.0789e-17 3.50425e-17)
(0.615295 -2.44471e-15 2.5351e-16)
(0.615295 3.14115e-17 3.49752e-17)
(0.618729 -2.4456e-15 2.57032e-16)
(0.618729 3.09887e-17 3.49371e-17)
(0.622119 -2.44664e-15 2.60672e-16)
(0.622119 3.04662e-17 3.48945e-17)
(0.625467 -2.44773e-15 2.64436e-16)
(0.625467 3.01265e-17 3.48548e-17)
(0.628774 -2.44823e-15 2.6832e-16)
(0.628774 2.95931e-17 3.48489e-17)
(0.632041 -2.44895e-15 2.72323e-16)
(0.632041 2.86073e-17 3.48432e-17)
(0.635271 -2.44871e-15 2.74853e-16)
(0.635271 2.76499e-17 3.47764e-17)
(0.638464 -2.44838e-15 2.7711e-16)
(0.638464 2.6802e-17 3.46955e-17)
(0.641622 -2.44843e-15 2.79503e-16)
(0.641622 2.51204e-17 3.46695e-17)
(0.644746 -2.44935e-15 2.81932e-16)
(0.644746 2.41527e-17 3.46283e-17)
(0.647837 -2.45041e-15 2.84492e-16)
(0.647837 2.37133e-17 3.45314e-17)
(0.650896 -2.45009e-15 2.8717e-16)
(0.650896 2.31679e-17 3.4463e-17)
(0.653924 -2.44924e-15 2.89943e-16)
(0.653924 2.16664e-17 3.43524e-17)
(0.656922 -2.44888e-15 2.92824e-16)
(0.656922 2.02329e-17 3.43047e-17)
(0.659891 -2.44821e-15 2.95747e-16)
(0.659891 1.95386e-17 3.42827e-17)
(0.662832 -2.44679e-15 2.98817e-16)
(0.662832 1.66894e-17 3.42283e-17)
(0.665747 -2.4457e-15 3.02039e-16)
(0.665747 1.46167e-17 3.41684e-17)
(0.668635 -2.44459e-15 3.05329e-16)
(0.668635 1.23755e-17 3.41174e-17)
(0.671497 -2.44286e-15 3.08668e-16)
(0.671497 9.48994e-18 3.39757e-17)
(0.674335 -2.44059e-15 3.12143e-16)
(0.674335 8.15469e-18 3.3902e-17)
(0.677148 -2.43869e-15 3.15728e-16)
(0.677148 5.50314e-18 3.37851e-17)
(0.679939 -2.43653e-15 3.19434e-16)
(0.679939 1.94183e-18 3.36047e-17)
(0.682706 -2.43381e-15 3.23264e-16)
(0.682706 -3.27926e-19 3.34468e-17)
(0.685452 -2.43086e-15 3.27133e-16)
(0.685452 -3.05218e-18 3.33044e-17)
(0.688177 -2.42878e-15 3.31048e-16)
(0.688177 -6.48895e-18 3.30484e-17)
(0.690881 -2.42638e-15 3.35195e-16)
(0.690881 -1.0581e-17 3.28306e-17)
(0.693564 -2.42242e-15 3.39349e-16)
(0.693564 -1.46195e-17 3.26596e-17)
(0.696229 -2.41764e-15 3.43705e-16)
(0.696229 -1.78061e-17 3.26262e-17)
(0.698874 -2.41282e-15 3.48166e-16)
(0.698874 -2.23073e-17 3.24558e-17)
(0.7015 -2.41157e-15 3.52474e-16)
(0.7015 -2.56173e-17 3.21023e-17)
(0.704109 -2.41209e-15 3.56987e-16)
(0.704109 -2.62384e-17 3.1713e-17)
(0.7067 -2.41135e-15 3.61553e-16)
(0.7067 -2.58962e-17 3.14826e-17)
(0.709273 -2.40888e-15 3.6643e-16)
(0.709273 -2.75909e-17 3.12579e-17)
(0.711831 -2.40585e-15 3.7125e-16)
(0.711831 -3.00079e-17 3.1071e-17)
(0.714372 -2.40425e-15 3.76163e-16)
(0.714372 -3.08651e-17 3.09041e-17)
(0.716897 -2.40313e-15 3.81258e-16)
(0.716897 -3.41414e-17 3.06756e-17)
(0.719407 -2.40178e-15 3.86444e-16)
(0.719407 -3.68593e-17 3.02775e-17)
(0.721901 -2.39857e-15 3.9173e-16)
(0.721901 -3.97716e-17 2.99749e-17)
(0.724382 -2.39497e-15 3.97144e-16)
(0.724382 -4.47029e-17 2.97294e-17)
(0.726847 -2.3919e-15 4.02736e-16)
(0.726847 -4.75424e-17 2.93954e-17)
(0.729299 -2.38816e-15 4.08383e-16)
(0.729299 -4.917e-17 2.90273e-17)
(0.731738 -2.38448e-15 4.14276e-16)
(0.731738 -5.23371e-17 2.86941e-17)
(0.734163 -2.38111e-15 4.20166e-16)
(0.734163 -5.51781e-17 2.83594e-17)
(0.736575 -2.37714e-15 4.26163e-16)
(0.736575 -5.95124e-17 2.78079e-17)
(0.738974 -2.3725e-15 4.324e-16)
(0.738974 -6.32402e-17 2.7491e-17)
(0.741361 -2.36806e-15 4.3879e-16)
(0.741361 -6.7162e-17 2.72373e-17)
(0.743736 -2.36349e-15 4.45325e-16)
(0.743736 -7.15291e-17 2.69519e-17)
(0.7461 -2.35926e-15 4.51902e-16)
(0.7461 -7.40921e-17 2.65467e-17)
(0.748451 -2.35368e-15 4.58825e-16)
(0.748451 -7.74958e-17 2.62084e-17)
(0.750792 -2.34691e-15 4.6578e-16)
(0.750792 -8.02136e-17 2.59326e-17)
(0.753121 -2.34188e-15 4.72719e-16)
(0.753121 -8.48862e-17 2.56614e-17)
(0.75544 -2.33728e-15 4.80104e-16)
(0.75544 -8.87861e-17 2.51663e-17)
(0.757748 -2.33302e-15 4.87354e-16)
(0.757748 -9.17512e-17 2.47256e-17)
(0.760046 -2.32961e-15 4.94747e-16)
(0.760046 -9.54275e-17 2.42928e-17)
(0.762334 -2.32653e-15 5.02207e-16)
(0.762334 -9.97415e-17 2.38737e-17)
(0.764611 -2.32352e-15 5.10065e-16)
(0.764611 -1.02294e-16 2.33331e-17)
(0.76688 -2.31973e-15 5.18124e-16)
(0.76688 -1.05507e-16 2.2947e-17)
(0.769138 -2.31451e-15 5.2624e-16)
(0.769138 -1.09805e-16 2.25924e-17)
(0.771388 -2.30867e-15 5.34592e-16)
(0.771388 -1.12345e-16 2.21388e-17)
(0.773628 -2.30277e-15 5.43451e-16)
(0.773628 -1.18732e-16 2.19154e-17)
(0.77586 -2.29632e-15 5.52225e-16)
(0.77586 -1.23612e-16 2.18464e-17)
(0.778083 -2.29066e-15 5.61297e-16)
(0.778083 -1.26572e-16 2.20475e-17)
(0.780297 -2.28533e-15 5.621e-16)
(0.780297 -1.31049e-16 2.23076e-17)
(0.782503 -2.27987e-15 5.60279e-16)
(0.782503 -1.37884e-16 2.21405e-17)
(0.784701 -2.27435e-15 5.58211e-16)
(0.784701 -1.41739e-16 2.22071e-17)
(0.78689 -2.26756e-15 5.56029e-16)
(0.78689 -1.44149e-16 2.25785e-17)
(0.789072 -2.25929e-15 5.53849e-16)
(0.789072 -1.50317e-16 2.75293e-17)
(0.791246 -2.25231e-15 5.51326e-16)
(0.791246 -1.577e-16 3.40188e-17)
(0.793413 -2.24667e-15 5.48333e-16)
(0.793413 -1.62441e-16 4.04482e-17)
(0.795572 -2.23849e-15 5.4545e-16)
(0.795572 -1.66216e-16 4.69968e-17)
(0.797724 -2.22708e-15 5.42866e-16)
(0.797724 -1.75832e-16 5.37485e-17)
(0.799868 -2.21703e-15 5.39543e-16)
(0.799868 -1.82578e-16 6.08225e-17)
(0.802006 -2.20888e-15 5.36384e-16)
(0.802006 -1.85498e-16 6.7815e-17)
(0.804136 -2.2002e-15 5.33533e-16)
(0.804136 -1.9457e-16 7.49091e-17)
(0.80626 -2.19165e-15 5.30012e-16)
(0.80626 -2.00597e-16 8.24889e-17)
(0.808378 -2.18198e-15 5.26773e-16)
(0.808378 -2.03786e-16 9.004e-17)
(0.810488 -2.17293e-15 5.23202e-16)
(0.810488 -2.12101e-16 9.78127e-17)
(0.812592 -2.16332e-15 5.19686e-16)
(0.812592 -2.17482e-16 1.05937e-16)
(0.81469 -2.15301e-15 5.16424e-16)
(0.81469 -2.24147e-16 1.14405e-16)
(0.816782 -2.14277e-15 5.13173e-16)
(0.816782 -2.31175e-16 1.23017e-16)
(0.818868 -2.13285e-15 5.09758e-16)
(0.818868 -2.35643e-16 1.31676e-16)
(0.820947 -2.12448e-15 5.05953e-16)
(0.820947 -2.41701e-16 1.40757e-16)
(0.823021 -2.11445e-15 5.02577e-16)
(0.823021 -2.48319e-16 1.4997e-16)
(0.825089 -2.10222e-15 4.99145e-16)
(0.825089 -2.57874e-16 1.59306e-16)
(0.827151 -2.0865e-15 4.9686e-16)
(0.827151 -2.659e-16 1.69075e-16)
(0.829208 -2.07087e-15 4.94059e-16)
(0.829208 -2.73254e-16 1.78853e-16)
(0.831259 -2.05909e-15 4.9095e-16)
(0.831259 -2.82728e-16 1.89217e-16)
(0.833304 -2.04813e-15 4.87785e-16)
(0.833304 -2.87527e-16 2.00244e-16)
(0.835344 -2.03645e-15 4.83756e-16)
(0.835344 -2.93043e-16 2.1094e-16)
(0.837379 -2.02103e-15 4.80172e-16)
(0.837379 -3.038e-16 2.21873e-16)
(0.839409 -2.00333e-15 4.7681e-16)
(0.839409 -3.14144e-16 2.33755e-16)
(0.841434 -1.98257e-15 4.74165e-16)
(0.841434 -3.23854e-16 2.45728e-16)
(0.843453 -1.96246e-15 4.70515e-16)
(0.843453 -3.3589e-16 2.57292e-16)
(0.845468 -1.94881e-15 4.66349e-16)
(0.845468 -3.42732e-16 2.6889e-16)
(0.847477 -1.9355e-15 4.63272e-16)
(0.847477 -3.50703e-16 2.81587e-16)
(0.849482 -1.92515e-15 4.58863e-16)
(0.849482 -3.60328e-16 2.94302e-16)
(0.851482 -1.916e-15 4.54328e-16)
(0.851482 -3.66388e-16 3.08098e-16)
(0.853478 -1.90244e-15 4.51013e-16)
(0.853478 -3.72289e-16 3.21796e-16)
(0.855469 -1.8862e-15 4.47336e-16)
(0.855469 -3.81187e-16 3.35787e-16)
(0.857455 -1.86957e-15 4.43859e-16)
(0.857455 -3.91471e-16 3.50096e-16)
(0.859437 -1.85702e-15 4.3977e-16)
(0.859437 -3.99707e-16 3.64639e-16)
(0.861414 -1.84166e-15 4.35638e-16)
(0.861414 -4.09301e-16 3.78873e-16)
(0.863387 -1.82066e-15 4.31838e-16)
(0.863387 -4.18871e-16 3.93609e-16)
(0.865355 -1.80332e-15 4.28696e-16)
(0.865355 -4.29018e-16 4.08676e-16)
(0.867319 -1.78626e-15 4.25109e-16)
(0.867319 -4.38002e-16 4.2387e-16)
(0.869279 -1.76668e-15 4.21761e-16)
(0.869279 -4.47238e-16 4.40115e-16)
(0.871235 -1.74994e-15 4.17692e-16)
(0.871235 -4.54873e-16 4.56627e-16)
(0.873187 -1.73342e-15 4.13795e-16)
(0.873187 -4.6518e-16 4.73611e-16)
(0.875135 -1.7189e-15 4.10325e-16)
(0.875135 -4.7437e-16 4.91422e-16)
(0.877078 -1.70125e-15 4.07641e-16)
(0.877078 -4.80155e-16 5.08558e-16)
(0.879018 -1.68318e-15 4.0438e-16)
(0.879018 -4.9122e-16 5.25101e-16)
(0.880953 -1.66452e-15 4.01627e-16)
(0.880953 -5.00672e-16 5.42571e-16)
(0.882885 -1.64498e-15 3.9856e-16)
(0.882885 -5.07437e-16 5.6121e-16)
(0.884813 -1.62607e-15 3.9522e-16)
(0.884813 -5.15978e-16 5.80153e-16)
(0.886737 -1.60499e-15 3.91828e-16)
(0.886737 -5.24123e-16 5.98475e-16)
(0.888657 -1.58615e-15 3.87677e-16)
(0.888657 -5.30579e-16 6.1759e-16)
(0.890574 -1.56377e-15 3.85235e-16)
(0.890574 -5.35678e-16 6.19532e-16)
(0.892487 -1.54146e-15 3.82387e-16)
(0.892487 -5.46681e-16 6.14628e-16)
(0.894396 -1.5229e-15 3.80766e-16)
(0.894396 -5.5687e-16 6.09296e-16)
(0.896301 -1.50389e-15 3.78745e-16)
(0.896301 -5.60819e-16 6.03256e-16)
(0.898203 -1.48524e-15 3.76715e-16)
(0.898203 -5.68297e-16 5.97649e-16)
(0.900101 -1.46844e-15 3.74992e-16)
(0.900101 -5.7991e-16 5.91831e-16)
(0.901996 -1.45343e-15 3.73322e-16)
(0.901996 -5.9031e-16 5.86507e-16)
(0.903887 -1.43736e-15 3.70531e-16)
(0.903887 -5.9765e-16 5.82776e-16)
(0.905775 -1.42364e-15 3.66744e-16)
(0.905775 -6.04009e-16 5.78964e-16)
(0.907659 -1.41061e-15 3.65902e-16)
(0.907659 -6.13724e-16 5.72674e-16)
(0.90954 -1.39411e-15 3.64756e-16)
(0.90954 -6.29346e-16 5.66849e-16)
(0.911417 -1.37729e-15 3.645e-16)
(0.911417 -6.33348e-16 5.60565e-16)
(0.913291 -1.36021e-15 3.60958e-16)
(0.913291 -6.38822e-16 5.5613e-16)
(0.915162 -1.34668e-15 3.581e-16)
(0.915162 -6.56989e-16 5.49173e-16)
(0.917029 -1.33111e-15 3.56643e-16)
(0.917029 -6.63203e-16 5.40087e-16)
(0.918893 -1.30377e-15 3.58834e-16)
(0.918893 -6.74876e-16 5.31802e-16)
(0.920753 -1.28009e-15 3.5852e-16)
(0.920753 -6.85075e-16 5.29721e-16)
(0.92261 -1.27054e-15 3.56501e-16)
(0.92261 -6.83178e-16 5.27219e-16)
(0.924464 -1.26329e-15 3.55083e-16)
(0.924464 -6.83798e-16 5.21324e-16)
(0.926315 -1.2538e-15 3.55525e-16)
(0.926315 -6.82037e-16 5.16311e-16)
(0.928162 -1.24152e-15 3.54464e-16)
(0.928162 -6.81501e-16 5.12965e-16)
(0.930006 -1.23408e-15 3.53356e-16)
(0.930006 -6.76632e-16 5.08691e-16)
(0.931847 -1.22863e-15 3.531e-16)
(0.931847 -6.71116e-16 5.02096e-16)
(0.933684 -1.21152e-15 3.53787e-16)
(0.933684 -6.78688e-16 4.96476e-16)
(0.935519 -1.19802e-15 3.51306e-16)
(0.935519 -6.85426e-16 4.94449e-16)
(0.93735 -1.18816e-15 3.47496e-16)
(0.93735 -6.83283e-16 4.93252e-16)
(0.939177 -1.17966e-15 3.43335e-16)
(0.939177 -6.84218e-16 4.91166e-16)
(0.941002 -1.17238e-15 3.37582e-16)
(0.941002 -6.78306e-16 4.87429e-16)
(0.942823 -1.15862e-15 3.35998e-16)
(0.942823 -6.74558e-16 4.79146e-16)
(0.944641 -1.14924e-15 3.34561e-16)
(0.944641 -6.78585e-16 4.72562e-16)
(0.946456 -1.13905e-15 3.28559e-16)
(0.946456 -6.80298e-16 4.70148e-16)
(0.948267 -1.12766e-15 3.22575e-16)
(0.948267 -6.84612e-16 4.65506e-16)
(0.950076 -1.11688e-15 3.19154e-16)
(0.950076 -6.90186e-16 4.59166e-16)
(0.951881 -1.1149e-15 3.14072e-16)
(0.951881 -6.77573e-16 4.55892e-16)
(0.953682 -1.11088e-15 3.10951e-16)
(0.953682 -6.73652e-16 4.4832e-16)
(0.955481 -1.10051e-15 3.05534e-16)
(0.955481 -6.80209e-16 4.41521e-16)
(0.957276 -1.10024e-15 2.98985e-16)
(0.957276 -6.69859e-16 4.29437e-16)
(0.959068 -1.09448e-15 2.94024e-16)
(0.959068 -6.65936e-16 4.18662e-16)
(0.960856 -1.08216e-15 2.91652e-16)
(0.960856 -6.72388e-16 4.05539e-16)
(0.962641 -1.06705e-15 2.88813e-16)
(0.962641 -6.79051e-16 3.95404e-16)
(0.964423 -1.04958e-15 2.8225e-16)
(0.964423 -6.73983e-16 3.8928e-16)
(0.966202 -1.04054e-15 2.71522e-16)
(0.966202 -6.76535e-16 3.78324e-16)
(0.967977 -1.03195e-15 2.64517e-16)
(0.967977 -6.77411e-16 3.66243e-16)
(0.969748 -1.01801e-15 2.61828e-16)
(0.969748 -6.75167e-16 3.57127e-16)
(0.971516 -1.00586e-15 2.58196e-16)
(0.971516 -6.79166e-16 3.55544e-16)
(0.973281 -1.00752e-15 2.47647e-16)
(0.973281 -6.84612e-16 3.49672e-16)
(0.975042 -1.01015e-15 2.33706e-16)
(0.975042 -6.77021e-16 3.40119e-16)
(0.976799 -1.00013e-15 2.28115e-16)
(0.976799 -6.70376e-16 3.33359e-16)
(0.978553 -9.97392e-16 2.18885e-16)
(0.978553 -6.81108e-16 3.26497e-16)
(0.980303 -9.9088e-16 2.07923e-16)
(0.980303 -6.7394e-16 3.14601e-16)
(0.98205 -9.78339e-16 2.0017e-16)
(0.98205 -6.67626e-16 3.04035e-16)
(0.983793 -9.77435e-16 1.91039e-16)
(0.983793 -6.62472e-16 2.92801e-16)
(0.985532 -9.79045e-16 1.84578e-16)
(0.985532 -6.51363e-16 2.7718e-16)
(0.987267 -9.78018e-16 1.76193e-16)
(0.987267 -6.4655e-16 2.64193e-16)
(0.988999 -9.75235e-16 1.67508e-16)
(0.988999 -6.34469e-16 2.5056e-16)
(0.990726 -9.71312e-16 1.58822e-16)
(0.990726 -6.3466e-16 2.34404e-16)
(0.992449 -9.64801e-16 1.40756e-16)
(0.992449 -6.30718e-16 2.15354e-16)
(0.994169 -9.46758e-16 1.29474e-16)
(0.994169 -6.21366e-16 1.87052e-16)
(0.995884 -9.26614e-16 1.29849e-16)
(0.995884 -6.28074e-16 1.70897e-16)
(0.997595 -9.04837e-16 1.28746e-16)
(0.997595 -6.37593e-16 1.58981e-16)
(0.999301 -8.81206e-16 1.27432e-16)
(0.999301 -6.42434e-16 1.42817e-16)
(1.001 -8.61053e-16 1.18196e-16)
(1.001 -6.57124e-16 1.22498e-16)
(1.0027 -8.34098e-16 1.19547e-16)
(1.0027 -6.60259e-16 9.82591e-17)
(1.00439 -8.19077e-16 1.20505e-16)
(1.00439 -6.45259e-16 8.31185e-17)
(1.00608 -7.83156e-16 1.33034e-16)
(1.00608 -6.4961e-16 7.28602e-17)
(1.00777 -7.48239e-16 1.17559e-16)
(1.00777 -6.38508e-16 7.20458e-17)
(1.00945 -7.45666e-16 1.11737e-16)
(1.00945 -6.40279e-16 6.59229e-17)
(1.01112 -7.36034e-16 1.0878e-16)
(1.01112 -6.31151e-16 7.32491e-17)
(1.01279 -7.19214e-16 1.02716e-16)
(1.01279 -6.12841e-16 7.2641e-17)
(1.01445 -7.02701e-16 1.04105e-16)
(1.01445 -6.12693e-16 8.31834e-17)
(1.01611 -6.78598e-16 1.0325e-16)
(1.01611 -6.20112e-16 8.21536e-17)
(1.01777 -6.49693e-16 1.14771e-16)
(1.01777 -6.32458e-16 7.4061e-17)
(1.01941 -6.47016e-16 1.10936e-16)
(1.01941 -6.2571e-16 8.21313e-17)
(1.02106 -6.46285e-16 9.71482e-17)
(1.02106 -6.18508e-16 9.40055e-17)
(1.02269 -6.32803e-16 9.29509e-17)
(1.02269 -6.17225e-16 1.13043e-16)
(1.02432 -6.22973e-16 1.06171e-16)
(1.02432 -6.04896e-16 1.31148e-16)
(1.02595 -6.07697e-16 1.14993e-16)
(1.02595 -6.14053e-16 1.38861e-16)
(1.02756 -6.01897e-16 1.15686e-16)
(1.02756 -6.11885e-16 1.33073e-16)
(1.02917 -6.04851e-16 1.15378e-16)
(1.02917 -5.85357e-16 1.46789e-16)
(1.03078 -5.94211e-16 1.21591e-16)
(1.03078 -5.73446e-16 1.47728e-16)
(1.03238 -5.80644e-16 1.30811e-16)
(1.03238 -5.66489e-16 1.595e-16)
(1.03397 -5.63091e-16 1.39761e-16)
(1.03397 -5.48139e-16 1.65095e-16)
(1.03555 -5.50739e-16 1.32959e-16)
(1.03555 -5.35218e-16 1.60784e-16)
(1.03712 -5.37069e-16 1.45158e-16)
(1.03712 -5.26653e-16 1.50868e-16)
(1.03869 -5.18222e-16 1.5092e-16)
(1.03869 -5.09919e-16 1.60311e-16)
(1.04025 -5.03825e-16 1.46949e-16)
(1.04025 -5.12644e-16 1.90649e-16)
(1.0418 -4.92362e-16 1.56936e-16)
(1.0418 -5.18556e-16 1.97342e-16)
(1.04334 -4.80314e-16 1.74474e-16)
(1.04334 -5.18606e-16 1.67014e-16)
(1.04488 -4.71473e-16 1.9307e-16)
(1.04488 -5.03979e-16 1.48639e-16)
(1.0464 -4.73615e-16 1.97763e-16)
(1.0464 -4.85106e-16 1.83734e-16)
(1.04792 -4.72632e-16 2.19651e-16)
(1.04792 -4.58489e-16 2.0306e-16)
(1.04942 -4.79177e-16 2.3863e-16)
(1.04942 -4.33959e-16 2.33328e-16)
(1.05091 -4.83144e-16 2.55643e-16)
(1.05091 -4.27519e-16 2.27598e-16)
(1.0524 -4.87235e-16 2.64694e-16)
(1.0524 -4.37786e-16 2.33092e-16)
(1.05387 -4.91886e-16 2.64075e-16)
(1.05387 -4.66432e-16 2.02555e-16)
(1.05533 -4.82388e-16 2.69882e-16)
(1.05533 -4.83793e-16 2.29307e-16)
(1.05678 -4.7947e-16 2.83565e-16)
(1.05678 -4.8069e-16 2.50425e-16)
(1.05821 -4.84928e-16 2.76939e-16)
(1.05821 -4.80277e-16 2.78711e-16)
(1.05964 -4.78146e-16 2.74342e-16)
(1.05964 -4.87557e-16 2.69299e-16)
(1.06105 -4.5919e-16 2.69173e-16)
(1.06105 -4.67123e-16 2.72315e-16)
(1.06244 -4.56097e-16 2.98865e-16)
(1.06244 -4.83779e-16 2.98177e-16)
(1.06382 -4.56275e-16 3.10188e-16)
(1.06382 -5.01883e-16 3.07606e-16)
(1.06519 -4.49113e-16 3.01059e-16)
(1.06519 -4.64878e-16 3.26722e-16)
(1.06654 -4.64039e-16 3.20796e-16)
(1.06654 -4.36747e-16 3.15331e-16)
(1.06787 -4.66968e-16 3.30542e-16)
(1.06787 -4.3344e-16 3.08888e-16)
(1.06918 -4.5126e-16 3.36723e-16)
(1.06918 -4.39616e-16 3.51393e-16)
(1.07048 -4.81151e-16 2.99787e-16)
(1.07048 -4.3793e-16 3.6607e-16)
(1.07176 -4.83044e-16 3.41543e-16)
(1.07176 -4.13563e-16 3.77366e-16)
(1.07301 -4.79882e-16 3.45703e-16)
(1.07301 -4.26165e-16 3.78035e-16)
(1.07425 -4.695e-16 3.50341e-16)
(1.07425 -4.48507e-16 3.49371e-16)
(1.07546 -4.66592e-16 3.58232e-16)
(1.07546 -4.77792e-16 3.42093e-16)
(1.07665 -4.37e-16 3.95819e-16)
(1.07665 -4.89136e-16 3.98654e-16)
(1.07782 -4.29715e-16 3.87644e-16)
(1.07782 -4.35339e-16 3.85976e-16)
(1.07896 -4.2918e-16 3.9691e-16)
(1.07896 -4.38423e-16 3.95996e-16)
(1.08007 -4.28714e-16 4.17286e-16)
(1.08007 -4.80942e-16 4.05157e-16)
(1.08115 -4.14357e-16 4.50869e-16)
(1.08115 -4.45464e-16 3.94404e-16)
(1.08221 -4.40219e-16 4.41234e-16)
(1.08221 -4.49867e-16 4.11794e-16)
(1.08323 -4.51572e-16 4.24719e-16)
(1.08323 -4.42948e-16 4.19689e-16)
(1.08422 -4.38911e-16 4.48668e-16)
(1.08422 -4.44167e-16 4.24325e-16)
(1.08517 -4.72186e-16 4.18114e-16)
(1.08517 -4.52828e-16 4.18585e-16)
(1.08608 -4.57062e-16 3.88511e-16)
(1.08608 -4.46317e-16 4.31021e-16)
(1.08696 -4.50638e-16 4.01221e-16)
(1.08696 -4.39521e-16 3.97079e-16)
(1.08779 -4.49881e-16 4.06967e-16)
(1.08779 -4.36436e-16 3.34563e-16)
(1.08858 -4.2517e-16 3.96906e-16)
(1.08858 -4.17424e-16 3.43722e-16)
(1.08932 -4.14576e-16 3.88767e-16)
(1.08932 -3.87846e-16 3.75566e-16)
(1.09 -4.13716e-16 4.08709e-16)
(1.09 -3.91833e-16 3.96524e-16)
(1.09064 -4.41617e-16 3.85666e-16)
(1.09064 -4.45471e-16 3.76865e-16)
(1.09122 -4.11715e-16 3.79858e-16)
(1.09122 -4.79091e-16 3.26401e-16)
(1.09174 -4.18628e-16 3.64786e-16)
(1.09174 -4.27743e-16 4.31083e-16)
(1.0922 -4.18721e-16 3.4931e-16)
(1.0922 -4.13489e-16 4.17247e-16)
(1.09259 -4.06107e-16 3.23035e-16)
(1.09259 -4.27816e-16 3.78879e-16)
(1.09291 -3.80526e-16 2.79488e-16)
(1.09291 -4.04023e-16 3.76531e-16)
(1.09315 -3.6652e-16 1.96537e-16)
(1.09315 -3.79181e-16 4.14553e-16)
(1.09332 -3.75212e-16 1.65526e-16)
(1.09332 -3.72958e-16 4.13334e-16)
(1.0934 -3.46735e-16 1.17757e-16)
(1.0934 -3.22906e-16 3.87893e-16)
(0.00671584 -2.36826e-19 -5.47939e-18)
(0.00671584 5.88415e-20 7.27242e-17)
(0.0202434 4.91598e-19 -6.50883e-17)
(0.0202434 6.71004e-19 2.86611e-16)
(0.0339657 1.2175e-18 -6.69808e-17)
(0.0339657 1.5079e-18 2.94955e-16)
(0.0478856 2.0456e-18 -6.89221e-17)
(0.0478856 2.45331e-18 3.03526e-16)
(0.0620055 2.92573e-18 -7.0914e-17)
(0.0620055 3.44108e-18 3.12318e-16)
(0.0763271 3.85889e-18 -7.29524e-17)
(0.0763271 4.4684e-18 3.21314e-16)
(0.0908509 4.81272e-18 -7.50307e-17)
(0.0908509 5.56675e-18 3.30473e-16)
(0.105575 5.8104e-18 -7.71317e-17)
(0.105575 6.75554e-18 3.39722e-16)
(0.120492 6.80223e-18 -7.92272e-17)
(0.120492 7.92145e-18 3.48938e-16)
(0.135591 7.79661e-18 -8.12774e-17)
(0.135591 9.16681e-18 3.57946e-16)
(0.150851 8.82155e-18 -8.32284e-17)
(0.150851 1.05203e-17 3.66508e-16)
(0.16624 9.87867e-18 -8.50117e-17)
(0.16624 1.18775e-17 3.74321e-16)
(0.181716 1.09202e-17 -8.65486e-17)
(0.181716 1.33212e-17 3.81043e-16)
(0.197221 1.19946e-17 -8.77607e-17)
(0.197221 1.47811e-17 3.8632e-16)
(0.212689 1.31902e-17 -8.85725e-17)
(0.212689 1.6255e-17 3.8983e-16)
(0.228042 1.44705e-17 -8.89292e-17)
(0.228042 1.77154e-17 3.91334e-16)
(0.2432 1.57106e-17 -8.8802e-17)
(0.2432 1.92871e-17 3.90717e-16)
(0.258085 1.68777e-17 -8.82003e-17)
(0.258085 2.08478e-17 3.88003e-16)
(0.272624 1.80036e-17 -8.7154e-17)
(0.272624 2.25962e-17 3.83353e-16)
(0.286757 1.91371e-17 -8.57247e-17)
(0.286757 2.43425e-17 3.7703e-16)
(0.300437 2.04164e-17 -8.39933e-17)
(0.300437 2.58336e-17 3.69371e-16)
(0.313632 2.1674e-17 -8.20308e-17)
(0.313632 2.71665e-17 3.60721e-16)
(0.326324 2.29616e-17 -7.99255e-17)
(0.326324 2.8548e-17 3.51418e-16)
(0.338507 2.41521e-17 -7.77307e-17)
(0.338507 2.99744e-17 3.41748e-16)
(0.350186 2.51033e-17 -7.55098e-17)
(0.350186 3.15012e-17 3.31959e-16)
(0.361372 2.58869e-17 -7.32983e-17)
(0.361372 3.32549e-17 3.2225e-16)
(0.372083 2.68376e-17 -7.11394e-17)
(0.372083 3.45776e-17 3.12764e-16)
(0.382339 2.81081e-17 -6.90594e-17)
(0.382339 3.5678e-17 3.03605e-16)
(0.392164 2.92541e-17 -6.70695e-17)
(0.392164 3.69223e-17 2.94831e-16)
(0.40158 3.02877e-17 -6.51749e-17)
(0.40158 3.78683e-17 2.86475e-16)
(0.410613 3.13753e-17 -6.33751e-17)
(0.410613 3.88659e-17 2.78557e-16)
(0.419285 3.26434e-17 -6.16855e-17)
(0.419285 4.00204e-17 2.71098e-16)
(0.427619 3.37376e-17 -6.01008e-17)
(0.427619 4.07948e-17 2.64083e-16)
(0.435637 3.49183e-17 -5.8613e-17)
(0.435637 4.12673e-17 2.57493e-16)
(0.443358 3.61935e-17 -5.72089e-17)
(0.443358 4.22918e-17 2.5131e-16)
(0.450803 3.71007e-17 -5.5907e-17)
(0.450803 4.34601e-17 2.45523e-16)
(0.457988 3.8098e-17 -5.46898e-17)
(0.457988 4.45784e-17 2.40093e-16)
(0.464931 3.93198e-17 -5.35494e-17)
(0.464931 4.54022e-17 2.35008e-16)
(0.471646 4.05909e-17 -5.24791e-17)
(0.471646 4.58539e-17 2.30233e-16)
(0.478149 4.16818e-17 -5.14779e-17)
(0.478149 4.6797e-17 2.25762e-16)
(0.484451 4.2817e-17 -5.05509e-17)
(0.484451 4.78796e-17 2.2158e-16)
(0.490565 4.36668e-17 -4.96857e-17)
(0.490565 4.86621e-17 2.17656e-16)
(0.496503 4.41275e-17 -4.88867e-17)
(0.496503 4.96475e-17 2.13961e-16)
(0.502274 4.48936e-17 -4.81288e-17)
(0.502274 5.09629e-17 2.10481e-16)
(0.507889 4.56048e-17 -4.74155e-17)
(0.507889 5.14373e-17 2.07219e-16)
(0.513356 4.6417e-17 -4.67513e-17)
(0.513356 5.22138e-17 2.04137e-16)
(0.518684 4.73791e-17 -4.6128e-17)
(0.518684 5.32511e-17 2.01238e-16)
(0.52388 4.82739e-17 -4.55436e-17)
(0.52388 5.383e-17 1.98516e-16)
(0.528952 4.94944e-17 -4.49862e-17)
(0.528952 5.44801e-17 1.95921e-16)
(0.533906 5.07721e-17 -4.44592e-17)
(0.533906 5.53135e-17 1.93481e-16)
(0.538747 5.16076e-17 -4.39609e-17)
(0.538747 5.65842e-17 1.91168e-16)
(0.543483 5.24794e-17 -4.35014e-17)
(0.543483 5.76889e-17 1.88986e-16)
(0.548118 5.34419e-17 -4.30919e-17)
(0.548118 5.82266e-17 1.86928e-16)
(0.552657 5.40522e-17 -4.27064e-17)
(0.552657 5.93128e-17 1.84963e-16)
(0.557104 5.44745e-17 -4.23515e-17)
(0.557104 6.1141e-17 1.83095e-16)
(0.561465 5.50316e-17 -4.20404e-17)
(0.561465 6.22253e-17 1.81335e-16)
(0.565744 5.49723e-17 -4.17451e-17)
(0.565744 6.32231e-17 1.7964e-16)
(0.569943 5.49924e-17 -4.15042e-17)
(0.569943 6.42805e-17 1.78048e-16)
(0.574067 5.56329e-17 -4.12588e-17)
(0.574067 6.51494e-17 1.76501e-16)
(0.578119 5.60437e-17 -4.10342e-17)
(0.578119 6.66992e-17 1.75017e-16)
(0.582103 5.68018e-17 -4.08204e-17)
(0.582103 6.80067e-17 1.736e-16)
(0.58602 5.76003e-17 -4.06132e-17)
(0.58602 6.95798e-17 1.72239e-16)
(0.589875 5.79607e-17 -4.04512e-17)
(0.589875 7.088e-17 1.70959e-16)
(0.593669 5.80731e-17 -4.02955e-17)
(0.593669 7.17344e-17 1.69663e-16)
(0.597405 5.81304e-17 -4.01678e-17)
(0.597405 7.26044e-17 1.68465e-16)
(0.601085 5.78344e-17 -4.00744e-17)
(0.601085 7.30109e-17 1.67292e-16)
(0.604713 5.78853e-17 -3.99361e-17)
(0.604713 7.40164e-17 1.66103e-16)
(0.608289 5.82024e-17 -3.98469e-17)
(0.608289 7.55043e-17 1.65005e-16)
(0.611816 5.83528e-17 -3.9768e-17)
(0.611816 7.68752e-17 1.6389e-16)
(0.615295 5.89394e-17 -3.96837e-17)
(0.615295 7.82845e-17 1.62777e-16)
(0.618729 5.96103e-17 -3.96047e-17)
(0.618729 7.93666e-17 1.61706e-16)
(0.622119 6.11501e-17 -4.08582e-17)
(0.622119 7.93369e-17 1.60643e-16)
(0.625467 6.26055e-17 -4.27336e-17)
(0.625467 7.96916e-17 1.59612e-16)
(0.628774 6.35855e-17 -4.46389e-17)
(0.628774 8.11053e-17 1.58587e-16)
(0.632041 6.46215e-17 -4.65969e-17)
(0.632041 8.2035e-17 1.57576e-16)
(0.635271 6.50167e-17 -4.8531e-17)
(0.635271 8.24924e-17 1.56512e-16)
(0.638464 6.52748e-17 -5.04843e-17)
(0.638464 8.41092e-17 1.55483e-16)
(0.641622 6.56768e-17 -5.24815e-17)
(0.641622 8.57695e-17 1.54483e-16)
(0.644746 6.59061e-17 -5.44942e-17)
(0.644746 8.76179e-17 1.53427e-16)
(0.647837 6.6382e-17 -5.65531e-17)
(0.647837 8.91786e-17 1.52391e-16)
(0.650896 6.66088e-17 -5.86251e-17)
(0.650896 8.98532e-17 1.5135e-16)
(0.653924 6.59235e-17 -6.07431e-17)
(0.653924 9.08187e-17 1.50278e-16)
(0.656922 6.62574e-17 -6.29086e-17)
(0.656922 9.20542e-17 1.49183e-16)
(0.659891 6.73153e-17 -6.5145e-17)
(0.659891 9.36362e-17 1.47717e-16)
(0.662832 6.79626e-17 -6.73731e-17)
(0.662832 9.43792e-17 1.45888e-16)
(0.665747 6.84847e-17 -6.96936e-17)
(0.665747 9.60258e-17 1.44084e-16)
(0.668635 6.84841e-17 -7.20976e-17)
(0.668635 9.6401e-17 1.4229e-16)
(0.671497 6.8536e-17 -7.44902e-17)
(0.671497 9.7465e-17 1.40385e-16)
(0.674335 6.91055e-17 -7.69362e-17)
(0.674335 9.99286e-17 1.38538e-16)
(0.677148 6.87387e-17 -7.94373e-17)
(0.677148 1.00563e-16 1.36694e-16)
(0.679939 6.76363e-17 -8.18733e-17)
(0.679939 1.02228e-16 1.34853e-16)
(0.682706 6.76865e-17 -8.44333e-17)
(0.682706 1.03039e-16 1.32973e-16)