/*--------------------------------*- C++ -*----------------------------------*\
| =========                 |                                                 |
| \\      /  F ield         | OpenFOAM: The Open Source CFD Toolbox           |
|  \\    /   O peration     | Version:  2012                                  |
|   \\  /    A nd           | Website:  www.openfoam.com                      |
|    \\/     M anipulation  |                                                 |
\*---------------------------------------------------------------------------*/
FoamFile
{
    version     2.0;
    format      ascii;
    class       volVectorField;
    location    "10300";
    object      U;
}
// * * * * * * * * * * * * * * * * * * * * * * * * * * * * * * * * * * * * * //

dimensions      [0 1 -1 0 0 0 0];


internalField   nonuniform List<vector> 
2560
(
(0.0203448 -2.44915e-05 0.000311451)
(0.0203304 -1.41624e-05 5.75081e-08)
(0.0610739 -5.91099e-06 0.000473035)
(0.061031 1.02829e-05 1.46993e-08)
(0.102194 -1.5912e-05 0.000437348)
(0.102123 1.88048e-05 4.00143e-09)
(0.143705 -2.49361e-05 0.000318144)
(0.143608 2.50155e-05 3.67416e-09)
(0.185609 -2.96435e-05 0.000189437)
(0.185488 2.94562e-05 1.5813e-09)
(0.227903 -3.20832e-05 0.000112474)
(0.227762 3.20759e-05 3.95143e-10)
(0.270542 -3.36777e-05 7.30525e-05)
(0.270384 3.36701e-05 1.82472e-10)
(0.313449 -3.48406e-05 5.19272e-05)
(0.313277 3.47954e-05 6.82222e-11)
(0.356542 -3.56321e-05 3.95398e-05)
(0.356361 3.56667e-05 8.70638e-11)
(0.3998 -3.64099e-05 3.16531e-05)
(0.399612 3.63148e-05 1.37855e-11)
(0.443274 -3.6839e-05 2.62919e-05)
(0.443083 3.69363e-05 9.40996e-11)
(0.486961 -3.74927e-05 2.2457e-05)
(0.486769 3.73396e-05 7.33059e-21)
(0.53086 -3.77525e-05 1.9602e-05)
(0.53067 3.78776e-05 1.83767e-10)
(0.575002 -3.82345e-05 1.73973e-05)
(0.574817 5.26191e-05 5.72098e-08)
(0.619341 -3.8451e-05 1.56825e-05)
(0.619161 9.24126e-06 -3.01629e-37)
(0.663744 -3.88905e-05 1.42778e-05)
(0.663571 8.78602e-05 1.00287e-07)
(0.70803 -3.94099e-05 1.31639e-05)
(0.707865 -3.36325e-05 2.02227e-09)
(0.752013 -3.93496e-05 1.22182e-05)
(0.751857 0.00011756 6.12778e-08)
(0.795645 -3.99509e-05 1.14365e-05)
(0.795499 -5.07089e-05 2.11749e-09)
(0.8391 -3.96603e-05 1.0759e-05)
(0.838962 0.0001358 6.07844e-08)
(0.882632 -4.06266e-05 1.01916e-05)
(0.882503 -6.80803e-05 1.30165e-09)
(0.926378 -3.9941e-05 9.68767e-06)
(0.926257 0.000154125 5.92953e-08)
(0.970313 -4.12013e-05 9.26281e-06)
(0.9702 -8.55874e-05 2.99893e-21)
(1.01434 -4.00593e-05 8.85266e-06)
(1.01423 0.00019882 1.69819e-07)
(1.05837 -4.1909e-05 8.55632e-06)
(1.05827 -0.000156165 2.76217e-21)
(1.10234 -4.02392e-05 8.24802e-06)
(1.10225 0.000256879 1.34491e-07)
(1.14616 -4.27817e-05 8.01813e-06)
(1.14607 -0.000202424 3.95976e-09)
(1.18971 -4.02886e-05 7.7859e-06)
(1.18962 0.000295985 1.13248e-07)
(1.23282 -4.36625e-05 7.60719e-06)
(1.23274 -0.000233775 6.72776e-09)
(1.27533 -4.01208e-05 7.42426e-06)
(1.27526 0.00032882 1.17766e-07)
(1.31715 -4.46457e-05 7.28894e-06)
(1.31708 -0.000266637 5.8922e-09)
(1.35834 -3.97624e-05 7.14232e-06)
(1.35827 0.000362407 1.12659e-07)
(1.39915 -4.57946e-05 7.03795e-06)
(1.39909 -0.000299389 2.64335e-09)
(1.44006 -3.91361e-05 6.91878e-06)
(1.44 0.000395638 1.05232e-07)
(1.48156 -4.71843e-05 6.83857e-06)
(1.4815 -0.00033142 9.18601e-22)
(1.52408 -3.82408e-05 6.71128e-06)
(1.52402 0.000455784 2.40601e-07)
(1.56788 -4.89784e-05 6.68839e-06)
(1.56782 -0.000418971 2.0831e-21)
(1.61296 -3.70438e-05 6.46516e-06)
(1.6129 0.000644671 7.66003e-07)
(1.65918 -5.12177e-05 6.59639e-06)
(1.65912 -0.0007122 2.03559e-21)
(1.70626 -3.54628e-05 6.3547e-06)
(1.7062 0.000974937 1.00403e-06)
(1.75399 -5.38617e-05 6.56682e-06)
(1.75393 -0.00108544 -1.99899e-21)
(1.80243 -3.3481e-05 6.39653e-06)
(1.80237 0.00131258 8.64792e-07)
(1.85215 -5.68519e-05 6.59247e-06)
(1.85209 -0.00139222 8.45077e-22)
(1.90441 -3.10849e-05 6.55076e-06)
(1.90434 0.0015381 4.50535e-07)
(1.96116 -6.0179e-05 6.65844e-06)
(1.96109 -0.00153742 2.196e-10)
(2.02485 -2.82734e-05 6.6565e-06)
(2.02477 0.00166671 3.60776e-07)
(2.09812 -6.39576e-05 6.7551e-06)
(2.09802 -0.00164831 8.32214e-22)
(2.18342 -2.49449e-05 6.73652e-06)
(2.18331 0.0018012 4.97051e-07)
(2.2829 -6.8326e-05 6.88318e-06)
(2.28278 -0.00180562 -1.93777e-21)
(2.39838 -2.09684e-05 6.56481e-06)
(2.39825 0.0021799 1.83633e-06)
(2.53147 -7.28063e-05 7.06555e-06)
(2.53133 -0.00241185 2.80479e-09)
(2.68345 -1.62288e-05 7.11531e-06)
(2.6833 0.00256584 6.18318e-07)
(2.85473 -7.72481e-05 7.34785e-06)
(2.85456 -0.00257525 6.50736e-08)
(3.0438 -1.12349e-05 7.47235e-06)
(3.04363 0.00275161 1.04833e-06)
(3.24591 -8.21788e-05 7.90482e-06)
(3.24575 -0.00278088 2.50982e-07)
(3.45148 -7.54419e-06 8.20961e-06)
(3.45133 0.00300337 1.97123e-06)
(3.64524 -8.86632e-05 9.05035e-06)
(3.64512 -0.00308208 5.87758e-07)
(3.80642 -6.42257e-06 9.64973e-06)
(3.80635 0.00336695 3.19114e-06)
(3.91074 -9.58273e-05 1.10131e-05)
(3.91072 -0.00352056 9.34394e-07)
(3.93393 -6.52916e-06 1.18879e-05)
(3.93398 0.00384831 3.90292e-06)
(3.85644 -9.98301e-05 1.35467e-05)
(3.85658 -0.00405796 1.00348e-06)
(3.66783 -5.5252e-06 1.44619e-05)
(3.66806 0.00437131 3.31689e-06)
(3.3698 -9.80943e-05 1.58894e-05)
(3.37011 -0.00456697 6.34566e-07)
(2.97671 -4.05613e-06 1.65465e-05)
(2.9771 0.00481098 1.58301e-06)
(2.51343 -9.26848e-05 1.73195e-05)
(2.51389 -0.00492414 0)
(2.01111 -5.50274e-06 1.75764e-05)
(2.0116 0.00509674 7.14965e-08)
(1.50219 -8.72653e-05 1.7319e-05)
(1.50271 -0.0049215 1.73196e-06)
(1.01598 -1.10143e-05 1.73152e-05)
(1.01649 0.00502024 4.98962e-07)
(0.575498 -8.33242e-05 1.67193e-05)
(0.575982 -0.00481428 2.7017e-06)
(0.196205 -1.85372e-05 1.66365e-05)
(0.19664 0.0048785 6.35074e-07)
(-0.113729 -8.03246e-05 1.6013e-05)
(-0.113363 -0.00468053 2.81373e-06)
(-0.352159 -2.55618e-05 1.59673e-05)
(-0.351873 0.00474489 5.98889e-07)
(-0.521233 -7.73862e-05 1.36031e-06)
(-0.52103 -0.000303597 6.75156e-06)
(-0.625799 -3.04902e-05 1.179e-06)
(-0.625676 0.000347813 6.81456e-07)
(-0.672142 -7.35582e-05 1.07659e-06)
(-0.672095 -0.000186425 1.56888e-06)
(-0.667177 -3.42666e-05 9.02531e-07)
(-0.667199 0.00024639 5.08652e-07)
(-0.617992 -7.012e-05 8.06987e-07)
(-0.618075 -9.69434e-05 1.20018e-06)
(-0.531604 -3.73653e-05 6.52966e-07)
(-0.531743 0.000170565 3.74673e-07)
(-0.4148 -6.72732e-05 5.67788e-07)
(-0.414986 -3.43148e-05 8.47264e-07)
(-0.273941 -3.9924e-05 4.34816e-07)
(-0.274167 0.000119436 2.57005e-07)
(-0.114816 -6.49434e-05 3.62557e-07)
(-0.115075 5.53597e-06 5.42303e-07)
(0.0575219 -4.20852e-05 2.52715e-07)
(0.0572393 8.87091e-05 1.57676e-07)
(0.238905 -6.29335e-05 1.99806e-07)
(0.238609 2.71375e-05 2.96188e-07)
(0.426104 -4.37793e-05 1.17246e-07)
(0.425801 7.3635e-05 1.98779e-07)
(0.616739 -6.11853e-05 8.20723e-08)
(0.616435 3.5945e-05 2.40388e-07)
(0.809099 -4.51088e-05 1.68879e-08)
(0.808798 6.98014e-05 2.5616e-07)
(1.00188 -5.9686e-05 8.29358e-08)
(1.00158 3.54487e-05 2.55267e-07)
(1.19387 -4.61933e-05 1.35741e-07)
(1.19358 6.86967e-05 2.5118e-07)
(1.38369 -5.8465e-05 2.31297e-07)
(1.38341 3.85256e-05 2.69066e-07)
(1.56953 -4.717e-05 3.24518e-07)
(1.56928 6.60009e-05 3.16098e-07)
(1.74906 -5.75462e-05 4.61237e-07)
(1.74882 4.09998e-05 4.69863e-07)
(1.91938 -4.81227e-05 5.97205e-07)
(1.91916 6.36076e-05 5.90158e-07)
(2.07713 -5.69206e-05 7.65538e-07)
(2.07694 4.29209e-05 7.73054e-07)
(2.21879 -4.90554e-05 9.21382e-07)
(2.21862 6.1472e-05 9.15553e-07)
(2.34094 -5.6461e-05 1.08906e-06)
(2.3408 4.44534e-05 1.09561e-06)
(2.44062 -4.98858e-05 1.22595e-06)
(2.44051 5.9641e-05 1.2212e-06)
(2.5157 -5.60655e-05 1.35149e-06)
(2.51562 4.57324e-05 1.35721e-06)
(2.5651 -5.04577e-05 1.4327e-06)
(2.56505 5.82401e-05 1.42888e-06)
(2.58901 -5.56153e-05 1.49045e-06)
(2.58899 4.69053e-05 1.49544e-06)
(2.58884 -5.07832e-05 1.50262e-06)
(2.58885 5.72304e-05 1.49961e-06)
(2.56721 -5.50771e-05 1.49471e-06)
(2.56724 4.80298e-05 1.49906e-06)
(2.52764 -5.09671e-05 1.45231e-06)
(2.52769 5.64842e-05 1.44999e-06)
(2.47439 -5.45241e-05 1.40323e-06)
(2.47446 4.9054e-05 1.40702e-06)
(2.41212 -5.10964e-05 1.33743e-06)
(2.41219 5.58943e-05 1.33569e-06)
(2.34559 -5.4101e-05 1.27799e-06)
(2.34567 4.98521e-05 1.28129e-06)
(2.27945 -5.1244e-05 1.21521e-06)
(2.27953 5.53701e-05 1.21397e-06)
(2.21806 -5.3817e-05 1.16611e-06)
(2.21813 5.04309e-05 1.16902e-06)
(2.16535 -5.14332e-05 1.11934e-06)
(2.16541 5.4873e-05 1.11855e-06)
(2.12474 -5.36132e-05 1.08801e-06)
(2.12478 5.0863e-05 1.09061e-06)
(2.0991 -5.16269e-05 1.06053e-06)
(2.09912 5.44274e-05 1.06014e-06)
(2.09067 -5.34233e-05 1.04931e-06)
(2.09067 5.12265e-05 1.05169e-06)
(2.10106 -5.17575e-05 1.04636e-06)
(2.10103 5.40898e-05 1.04635e-06)
(2.13112 -5.32605e-05 1.06289e-06)
(2.13107 5.15176e-05 1.06514e-06)
(2.18088 -5.18319e-05 1.09446e-06)
(2.18081 5.38446e-05 1.09485e-06)
(2.24949 -5.3071e-05 1.15453e-06)
(2.2494 5.17979e-05 1.15677e-06)
(2.33509 -5.19806e-05 1.23487e-06)
(2.33499 5.35536e-05 1.23568e-06)
(2.43487 -5.29516e-05 1.34496e-06)
(2.43476 5.19774e-05 1.34728e-06)
(2.54506 -5.20773e-05 1.47979e-06)
(2.54494 5.33368e-05 1.48105e-06)
(2.66107 -5.28859e-05 1.64568e-06)
(2.66095 5.20779e-05 1.64818e-06)
(2.77774 -5.21401e-05 1.83971e-06)
(2.77762 5.31708e-05 1.84144e-06)
(2.8896 -5.27699e-05 2.07157e-06)
(2.88949 5.22078e-05 2.07431e-06)
(2.99125 -5.21215e-05 2.34408e-06)
(2.99116 5.30985e-05 2.34628e-06)
(3.07778 -5.25519e-05 2.67471e-06)
(3.07771 5.24226e-05 2.67772e-06)
(3.14513 -5.20117e-05 3.07409e-06)
(3.14508 5.31262e-05 3.07673e-06)
(3.19043 -5.22809e-05 3.56571e-06)
(3.1904 5.26762e-05 3.569e-06)
(3.21228 -5.18839e-05 4.16432e-06)
(3.21227 5.31776e-05 4.16734e-06)
(3.2108 -5.2132e-05 4.88787e-06)
(3.21081 5.27956e-05 4.89139e-06)
(3.18759 -5.18866e-05 5.74426e-06)
(3.18762 5.31019e-05 5.74759e-06)
(3.14555 -5.22824e-05 6.73128e-06)
(3.14559 5.2605e-05 6.73497e-06)
(3.08852 -5.22373e-05 7.83066e-06)
(3.08857 5.268e-05 7.83422e-06)
(3.02087 -5.27729e-05 9.01153e-06)
(3.02093 5.20654e-05 9.01536e-06)
(2.94707 -5.29786e-05 1.02197e-05)
(2.94714 5.18669e-05 1.02234e-05)
(2.87127 -5.36038e-05 1.13881e-05)
(2.87134 5.11776e-05 1.1392e-05)
(2.79693 -5.38639e-05 1.24377e-05)
(2.79699 5.09078e-05 1.24416e-05)
(2.72661 -5.43804e-05 1.32903e-05)
(2.72667 5.03367e-05 1.32944e-05)
(2.66185 -5.4524e-05 1.38689e-05)
(2.6619 5.01711e-05 1.3873e-05)
(2.60316 -5.47135e-05 1.41166e-05)
(2.60321 4.99322e-05 1.41209e-05)
(2.55016 -5.45303e-05 1.39992e-05)
(2.55021 5.00841e-05 1.40035e-05)
(2.50178 -5.42955e-05 1.35168e-05)
(2.50183 5.02718e-05 1.35213e-05)
(2.45649 -5.38e-05 1.26987e-05)
(2.45653 5.07288e-05 1.27033e-05)
(2.41253 -5.32757e-05 1.16044e-05)
(2.41258 5.12063e-05 1.16091e-05)
(2.36822 -5.26732e-05 1.0311e-05)
(2.36826 5.17646e-05 1.03158e-05)
(2.32206 -5.21096e-05 8.90818e-06)
(2.3221 5.228e-05 8.91309e-06)
(2.27297 -5.16655e-05 7.48126e-06)
(2.27302 5.26751e-05 7.48625e-06)
(2.22035 -5.12509e-05 6.11036e-06)
(2.2204 5.30391e-05 6.11545e-06)
(2.16407 -5.11111e-05 4.85498e-06)
(2.16413 5.31257e-05 4.86012e-06)
(2.1045 -5.09623e-05 3.75406e-06)
(2.10456 5.32207e-05 3.75929e-06)
(2.04239 -5.10505e-05 2.82767e-06)
(2.04245 5.30752e-05 2.83294e-06)
(1.97879 -5.10999e-05 2.07686e-06)
(1.97886 5.29683e-05 2.0822e-06)
(1.91492 -5.13086e-05 1.48997e-06)
(1.91498 5.26983e-05 1.49532e-06)
(1.85202 -5.14291e-05 1.04554e-06)
(1.85209 5.2516e-05 1.449e-06)
(1.7913 -5.16338e-05 7.19838e-07)
(1.79136 5.22459e-05 1.48343e-06)
(1.73377 -5.17425e-05 5.80618e-07)
(1.73384 5.20707e-05 1.51753e-06)
(1.68024 -5.1884e-05 6.08576e-07)
(1.6803 5.18594e-05 1.55292e-06)
(1.63121 -5.19405e-05 6.23091e-07)
(1.63127 5.17316e-05 1.58774e-06)
(1.58692 -5.20306e-05 6.53945e-07)
(1.58696 5.1567e-05 1.62362e-06)
(1.54727 -5.20253e-05 6.66706e-07)
(1.54731 5.1496e-05 1.65869e-06)
(1.5119 -5.20839e-05 7.01009e-07)
(1.51194 5.13579e-05 1.69446e-06)
(1.48019 -5.20234e-05 7.10986e-07)
(1.48023 5.13369e-05 1.72929e-06)
(1.45127 -5.21098e-05 7.49347e-07)
(1.45131 5.11656e-05 1.7643e-06)
(1.42408 -5.20101e-05 7.7329e-07)
(1.42411 5.11789e-05 1.79846e-06)
(1.3974 -5.19758e-05 7.86305e-07)
(1.39743 5.11231e-05 1.83211e-06)
(1.36986 -5.20406e-05 8.1932e-07)
(1.36989 5.09661e-05 1.86526e-06)
(1.34003 -5.1926e-05 8.30077e-07)
(1.34007 5.09855e-05 1.89728e-06)
(1.30646 -5.19779e-05 8.65378e-07)
(1.3065 5.08356e-05 1.92919e-06)
(1.26772 -5.1876e-05 8.7805e-07)
(1.26778 5.08371e-05 1.95962e-06)
(1.22254 -5.1914e-05 9.11492e-07)
(1.22261 5.06954e-05 1.99045e-06)
(1.16982 -5.18236e-05 9.25581e-07)
(1.1699 5.068e-05 2.01979e-06)
(1.10876 -5.18492e-05 9.57464e-07)
(1.10885 5.05449e-05 2.05023e-06)
(1.03892 -5.17688e-05 9.72884e-07)
(1.03903 5.05141e-05 2.0796e-06)
(0.960318 -5.17835e-05 1.00367e-06)
(0.960438 5.03837e-05 2.11098e-06)
(0.873448 -5.17121e-05 1.02057e-06)
(0.873588 5.03381e-05 2.14206e-06)
(0.779354 -5.17162e-05 1.05091e-06)
(0.779516 5.02115e-05 2.17621e-06)
(0.679615 -5.1652e-05 1.06959e-06)
(0.6798 5.01529e-05 2.21098e-06)
(0.576323 -5.16468e-05 1.10014e-06)
(0.576532 5.00271e-05 2.24971e-06)
(0.472025 -5.15871e-05 1.12083e-06)
(0.472256 4.99584e-05 2.28982e-06)
(0.36964 -5.15733e-05 1.15201e-06)
(0.369891 4.98301e-05 2.33428e-06)
(0.272333 -5.15178e-05 1.17458e-06)
(0.272596 4.97527e-05 2.38031e-06)
(0.18335 -5.14933e-05 1.20624e-06)
(0.183613 4.96198e-05 2.4302e-06)
(0.10587 -5.14427e-05 1.22997e-06)
(0.106116 4.95353e-05 2.48106e-06)
(0.0427784 -5.14073e-05 1.2614e-06)
(0.042987 4.93927e-05 2.53439e-06)
(-0.00353114 -5.13624e-05 1.28516e-06)
(-0.00338112 4.9305e-05 2.58744e-06)
(-0.0312839 -5.13171e-05 1.31547e-06)
(-0.0312098 4.9148e-05 2.64091e-06)
(-0.0395051 -5.1269e-05 1.33934e-06)
(-0.0395145 4.90547e-05 2.6922e-06)
(-0.0280671 -5.12238e-05 1.36857e-06)
(-0.0281577 4.88882e-05 2.74337e-06)
(0.00233645 -5.11762e-05 1.39146e-06)
(0.00217633 4.87854e-05 2.79291e-06)
(0.0502085 -5.11264e-05 1.41912e-06)
(0.0499996 4.8613e-05 2.84256e-06)
(0.113411 -5.1072e-05 1.44277e-06)
(0.113176 4.8492e-05 2.89047e-06)
(0.189322 -5.10278e-05 1.47195e-06)
(0.189082 4.83167e-05 2.93939e-06)
(0.275056 -5.09649e-05 1.49872e-06)
(0.274826 4.81801e-05 2.98809e-06)
(0.367698 -5.09254e-05 1.53176e-06)
(0.367488 4.79964e-05 3.03885e-06)
(0.464388 -5.08574e-05 1.56381e-06)
(0.464203 4.78452e-05 3.09063e-06)
(0.562493 -5.08178e-05 1.60257e-06)
(0.562332 4.7653e-05 3.14509e-06)
(0.659713 -5.07468e-05 1.64135e-06)
(0.659575 4.74876e-05 3.20111e-06)
(0.754093 -5.07096e-05 1.68686e-06)
(0.753977 4.72811e-05 3.2598e-06)
(0.844096 -5.06288e-05 1.73293e-06)
(0.843998 4.71092e-05 3.31987e-06)
(0.928561 -5.05971e-05 1.78541e-06)
(0.928478 4.6883e-05 3.38204e-06)
(1.00666 -5.05082e-05 1.83863e-06)
(1.00659 4.67034e-05 3.44488e-06)
(1.0779 -5.04692e-05 1.89766e-06)
(1.07784 4.64688e-05 3.50892e-06)
(1.14205 -5.03728e-05 1.95734e-06)
(1.142 4.62807e-05 3.57262e-06)
(1.1991 -5.03399e-05 2.02208e-06)
(1.19906 4.60239e-05 3.63647e-06)
(1.24922 -5.01989e-05 2.08722e-06)
(1.24919 4.58646e-05 3.69888e-06)
(1.29273 -5.01894e-05 2.1566e-06)
(1.29271 4.5568e-05 3.76041e-06)
(1.33 -5.00049e-05 2.59122e-06)
(1.32998 4.54365e-05 3.81947e-06)
(1.36141 -5.00063e-05 3.10285e-06)
(1.3614 4.51133e-05 3.87675e-06)
(1.38734 -4.97828e-05 3.66147e-06)
(1.38733 4.50056e-05 3.93067e-06)
(1.40806 -4.98036e-05 4.25407e-06)
(1.40805 4.46481e-05 4.22843e-06)
(1.42371 -4.95522e-05 4.87036e-06)
(1.4237 4.45541e-05 4.84362e-06)
(1.43424 -4.95805e-05 5.4935e-06)
(1.43424 4.41752e-05 5.46573e-06)
(1.43941 -4.9362e-05 6.1062e-06)
(1.43941 4.40352e-05 6.0775e-06)
(1.43876 -4.93526e-05 6.69884e-06)
(1.43876 4.36817e-05 6.66931e-06)
(1.43167 -4.92187e-05 7.25108e-06)
(1.43167 4.34451e-05 7.22087e-06)
(1.41738 -4.91725e-05 7.76305e-06)
(1.41739 4.31175e-05 7.73228e-06)
(1.39508 -4.91013e-05 8.22545e-06)
(1.3951 4.28078e-05 8.19433e-06)
(1.36403 -4.90444e-05 8.645e-06)
(1.36405 4.2481e-05 8.61371e-06)
(1.32361 -4.90186e-05 9.02643e-06)
(1.32363 4.21164e-05 8.99525e-06)
(1.27345 -4.89485e-05 9.38722e-06)
(1.27348 4.17936e-05 9.35635e-06)
(1.21354 -4.89208e-05 9.74293e-06)
(1.21357 4.14218e-05 9.71268e-06)
(1.14424 -4.88655e-05 1.01098e-05)
(1.14428 4.10746e-05 1.00804e-05)
(1.06641 -4.8776e-05 1.05092e-05)
(1.06646 4.07542e-05 1.04809e-05)
(0.981357 -4.87635e-05 1.09467e-05)
(0.981412 4.0353e-05 1.09199e-05)
(0.890881 -4.85978e-05 1.14395e-05)
(0.890944 4.00959e-05 1.14143e-05)
(0.797233 -4.86017e-05 1.19837e-05)
(0.797302 3.9664e-05 1.19603e-05)
(0.703048 -4.84049e-05 1.25779e-05)
(0.703123 3.94211e-05 1.25565e-05)
(0.611287 -4.83926e-05 1.32106e-05)
(0.611366 3.89863e-05 1.31912e-05)
(0.525094 -4.82201e-05 1.38616e-05)
(0.525174 3.86974e-05 1.38444e-05)
(0.447666 -4.81763e-05 1.45157e-05)
(0.447744 3.827e-05 1.45004e-05)
(0.382057 -4.80219e-05 1.51437e-05)
(0.382126 3.7936e-05 1.51302e-05)
(0.330898 -4.80572e-05 1.57198e-05)
(0.330953 3.74006e-05 1.57078e-05)
(0.296226 -4.77883e-05 1.62409e-05)
(0.29626 3.71502e-05 1.623e-05)
(0.279203 -4.80233e-05 1.66694e-05)
(0.279213 3.63832e-05 1.6659e-05)
(0.279981 -4.75642e-05 1.70318e-05)
(0.279967 3.62901e-05 1.70215e-05)
(0.297626 -4.80074e-05 1.73005e-05)
(0.297593 3.52818e-05 1.72895e-05)
(0.33012 -4.74021e-05 1.75164e-05)
(0.330073 3.53024e-05 1.75042e-05)
(0.374608 -4.796e-05 1.76815e-05)
(0.374554 3.41468e-05 1.76674e-05)
(0.427632 -4.72239e-05 1.78337e-05)
(0.427577 3.42669e-05 1.78173e-05)
(0.485423 -4.78976e-05 1.79739e-05)
(0.485373 3.29642e-05 1.79548e-05)
(0.544194 -4.70238e-05 1.81364e-05)
(0.54415 3.3192e-05 1.81145e-05)
(0.600436 -4.78183e-05 1.83141e-05)
(0.600399 3.17386e-05 1.82891e-05)
(0.65116 -4.67654e-05 1.85331e-05)
(0.651131 3.21171e-05 1.85051e-05)
(0.694047 -4.77846e-05 1.87615e-05)
(0.694026 3.04111e-05 1.87307e-05)
(0.727612 -4.6433e-05 1.90386e-05)
(0.727597 3.10625e-05 1.90054e-05)
(0.751212 -4.77865e-05 1.93017e-05)
(0.751203 2.89972e-05 1.92665e-05)
(0.765002 -4.61001e-05 1.95994e-05)
(0.764998 2.99609e-05 1.95626e-05)
(0.769868 -4.78484e-05 1.98655e-05)
(0.769868 2.74795e-05 1.98274e-05)
(0.767297 -4.57296e-05 2.01678e-05)
(0.767299 2.88569e-05 2.0129e-05)
(0.759169 -4.79962e-05 2.0421e-05)
(0.759173 2.58397e-05 2.03818e-05)
(0.747567 -4.53356e-05 2.07212e-05)
(0.747572 2.77438e-05 2.06819e-05)
(0.734575 -4.82165e-05 2.09672e-05)
(0.734581 2.4098e-05 2.09279e-05)
(0.722081 -4.49351e-05 2.12765e-05)
(0.722086 2.66108e-05 2.12374e-05)
(0.711699 -4.84977e-05 2.15374e-05)
(0.711702 2.22721e-05 2.14984e-05)
(0.704686 -4.44634e-05 2.18841e-05)
(0.704688 2.55289e-05 2.18451e-05)
(0.701842 -4.88967e-05 2.21652e-05)
(0.701842 2.03117e-05 2.2126e-05)
(0.703546 -4.39303e-05 2.25553e-05)
(0.703544 2.44955e-05 2.25158e-05)
(0.709833 -4.9386e-05 2.28663e-05)
(0.70983 1.82522e-05 2.28263e-05)
(0.720455 -4.332e-05 2.33012e-05)
(0.720449 2.3535e-05 2.32604e-05)
(0.734925 -5.00098e-05 2.36244e-05)
(0.734919 1.60587e-05 2.35826e-05)
(0.7526 -4.26466e-05 2.40853e-05)
(0.752593 2.26431e-05 2.40423e-05)
(0.772731 -5.07913e-05 2.4404e-05)
(0.772724 1.37186e-05 2.43597e-05)
(0.794584 -4.18614e-05 2.48866e-05)
(0.794577 2.18792e-05 2.48408e-05)
(0.817384 -5.17739e-05 2.51816e-05)
(0.817377 1.11995e-05 2.51343e-05)
(0.840371 -4.09886e-05 2.5671e-05)
(0.840365 2.12309e-05 2.56222e-05)
(0.862813 -5.29111e-05 2.59398e-05)
(0.862807 8.56e-06 2.58895e-05)
(0.883954 -4.00812e-05 2.64221e-05)
(0.883949 2.06572e-05 2.63703e-05)
(0.903155 -5.4179e-05 2.66612e-05)
(0.903151 5.8364e-06 2.66081e-05)
(0.919843 -3.90996e-05 2.71309e-05)
(0.919839 2.021e-05 2.70765e-05)
(0.933511 -5.56796e-05 2.7307e-05)
(0.933509 2.93933e-06 2.72516e-05)
(0.943863 -3.80021e-05 2.77545e-05)
(0.943861 1.99434e-05 2.76981e-05)
(0.95085 -5.7386e-05 2.7856e-05)
(0.950849 -9.19741e-08 2.77991e-05)
(0.954631 -3.68297e-05 2.82523e-05)
(0.95463 1.98283e-05 2.81948e-05)
(0.955554 -5.93392e-05 2.82485e-05)
(0.955554 -3.28682e-06 2.81909e-05)
(0.954148 -3.55685e-05 2.85836e-05)
(0.954148 1.9889e-05 2.85256e-05)
(0.951082 -6.15334e-05 2.84726e-05)
(0.951083 -6.62905e-06 2.84149e-05)
(0.947052 -3.42205e-05 2.87496e-05)
(0.947053 2.01328e-05 2.86915e-05)
(0.942647 -6.40128e-05 2.85347e-05)
(0.942648 -1.01532e-05 2.84771e-05)
(0.938341 -3.27636e-05 2.87836e-05)
(0.938342 2.05904e-05 2.87254e-05)
(0.934407 -6.67598e-05 2.85033e-05)
(0.934407 -1.38321e-05 2.84458e-05)
(0.930852 -3.12384e-05 2.87613e-05)
(0.930853 2.12306e-05 2.87029e-05)
(0.927553 -6.97412e-05 2.84695e-05)
(0.927554 -1.76222e-05 2.84119e-05)
(0.924236 -2.96241e-05 2.87868e-05)
(0.924236 2.20839e-05 2.87278e-05)
(0.920506 -7.30092e-05 2.85085e-05)
(0.920507 -2.15638e-05 2.84507e-05)
(0.916047 -2.78902e-05 2.8916e-05)
(0.916048 2.31919e-05 2.88563e-05)
(0.910623 -7.65563e-05 2.86586e-05)
(0.910624 -2.56362e-05 2.86006e-05)
(0.904124 -2.60857e-05 2.91325e-05)
(0.904125 2.45176e-05 2.9072e-05)
(0.896641 -8.03693e-05 2.88607e-05)
(0.896643 -2.98113e-05 2.88027e-05)
(0.888425 -2.42434e-05 2.93422e-05)
(0.888426 2.60411e-05 2.92808e-05)
(0.879895 -8.44633e-05 2.89842e-05)
(0.879896 -3.4088e-05 2.89263e-05)
(0.871552 -2.23981e-05 2.93952e-05)
(0.871553 2.77414e-05 2.93326e-05)
(0.864006 -8.88446e-05 2.88791e-05)
(0.864007 -3.84546e-05 2.88211e-05)
(0.857871 -2.05677e-05 2.91559e-05)
(0.857872 2.96166e-05 2.90915e-05)
(0.853617 -9.35475e-05 2.84269e-05)
(0.853618 -4.29238e-05 2.83685e-05)
(0.851648 -1.877e-05 2.85463e-05)
(0.851648 3.16672e-05 2.8479e-05)
(0.852266 -9.85557e-05 2.76133e-05)
(0.852265 -4.74529e-05 2.75537e-05)
(0.855558 -1.70288e-05 2.76005e-05)
(0.855557 3.38932e-05 2.75288e-05)
(0.861419 -0.000103858 2.65061e-05)
(0.861417 -5.19963e-05 2.64444e-05)
(0.869626 -1.54136e-05 2.64039e-05)
(0.869624 3.62555e-05 2.63259e-05)
(0.879846 -0.000109426 2.52245e-05)
(0.879844 -5.64827e-05 2.51597e-05)
(0.891648 -1.39496e-05 2.5109e-05)
(0.891647 3.87671e-05 2.50224e-05)
(0.904554 -0.000115272 2.39131e-05)
(0.904552 -6.08672e-05 2.38444e-05)
(0.918078 -1.27153e-05 2.38353e-05)
(0.918076 4.1398e-05 2.37375e-05)
(0.93171 -0.000121388 2.26875e-05)
(0.931708 -6.50708e-05 2.26143e-05)
(0.944997 -1.17751e-05 2.26945e-05)
(0.944995 4.41417e-05 2.25827e-05)
(0.957583 -0.000127791 2.16384e-05)
(0.957582 -6.90216e-05 2.15606e-05)
(0.969148 -1.12146e-05 2.17525e-05)
(0.969147 4.69823e-05 2.1623e-05)
(0.979481 -0.000134499 2.08141e-05)
(0.97948 -7.26298e-05 2.07321e-05)
(0.98856 -1.11082e-05 2.10426e-05)
(0.988558 4.99275e-05 2.08912e-05)
(0.996448 -0.000141533 2.05348e-05)
(0.996447 -7.57835e-05 2.01312e-05)
(1.00335 -1.15569e-05 2.05093e-05)
(1.00335 5.29712e-05 2.03303e-05)
(1.0096 -0.000148934 2.2128e-05)
(1.0096 -7.8363e-05 1.9632e-05)
(1.01563 -1.26826e-05 1.99499e-05)
(1.01562 5.61022e-05 1.97354e-05)
(1.022 -0.000156739 2.39407e-05)
(1.022 -8.021e-05 1.89581e-05)
(1.02941 -1.46496e-05 1.90009e-05)
(1.02941 5.92916e-05 1.87396e-05)
(1.03883 -0.00016502 2.60121e-05)
(1.03883 -8.11545e-05 1.76672e-05)
(1.05147 -1.76264e-05 1.71684e-05)
(1.05147 6.25122e-05 1.6844e-05)
(1.06922 -0.000143858 1.53245e-05)
(1.06921 -8.10862e-05 1.52476e-05)
(1.09547 9.0631e-06 1.39217e-05)
(1.09546 6.63041e-05 1.36682e-05)
(1.13681 -0.000121066 1.14089e-05)
(1.1368 -8.05426e-05 1.13464e-05)
(1.20522 3.72035e-05 9.10979e-06)
(1.20522 7.06578e-05 8.93309e-06)
(1.32405 -9.62402e-05 6.01752e-06)
(1.32404 -7.96017e-05 5.97741e-06)
(1.61432 6.69844e-05 2.94461e-06)
(1.61432 7.51209e-05 2.86314e-06)
(0.0203304 -1.41559e-05 -5.74955e-08)
(0.0203447 -2.44867e-05 -0.000311048)
(0.0610308 1.03074e-05 -1.46953e-08)
(0.0610738 -5.89399e-06 -0.000472363)
(0.102123 1.88575e-05 -4.0281e-09)
(0.102194 -1.58913e-05 -0.000436726)
(0.143607 2.50779e-05 -3.71172e-09)
(0.143705 -2.49119e-05 -0.000317691)
(0.185487 2.95299e-05 -1.62816e-09)
(0.185608 -2.96171e-05 -0.000189168)
(0.227761 3.21554e-05 -4.35286e-10)
(0.227902 -3.20557e-05 -0.000112314)
(0.270383 3.37545e-05 -2.2899e-10)
(0.270541 -3.3648e-05 -7.29486e-05)
(0.313276 3.4881e-05 -1.06184e-10)
(0.313448 -3.48133e-05 -5.18533e-05)
(0.356359 3.57542e-05 -1.1501e-10)
(0.356541 -3.56002e-05 -3.94835e-05)
(0.399611 3.64088e-05 -4.13823e-11)
(0.3998 -3.63812e-05 -3.16081e-05)
(0.443081 3.70304e-05 -1.76753e-10)
(0.443273 -3.68103e-05 -2.62545e-05)
(0.486768 3.74176e-05 1.3255e-22)
(0.48696 -3.74605e-05 -2.2425e-05)
(0.530669 3.79873e-05 -1.43362e-10)
(0.53086 -3.7722e-05 -1.95741e-05)
(0.574815 5.27167e-05 -5.72889e-08)
(0.575002 -3.82049e-05 -1.73725e-05)
(0.619159 9.32139e-06 -8.70708e-20)
(0.61934 -3.84182e-05 -1.56602e-05)
(0.663569 8.79596e-05 -1.00307e-07)
(0.663743 -3.88603e-05 -1.42575e-05)
(0.707863 -3.35251e-05 -2.04429e-09)
(0.708029 -3.93776e-05 -1.31451e-05)
(0.751855 0.000117658 -6.12992e-08)
(0.752012 -3.93183e-05 -1.22008e-05)
(0.795496 -5.05971e-05 -2.14215e-09)
(0.795644 -3.99188e-05 -1.14202e-05)
(0.83896 0.0001359 -6.07931e-08)
(0.839099 -3.96284e-05 -1.07437e-05)
(0.882501 -6.79659e-05 -1.31532e-09)
(0.882631 -4.05946e-05 -1.01771e-05)
(0.926255 0.000154233 -5.94006e-08)
(0.926377 -3.99085e-05 -9.67391e-06)
(0.970198 -8.55003e-05 4.05966e-19)
(0.970312 -4.11695e-05 -9.24966e-06)
(1.01423 0.000198938 -1.69916e-07)
(1.01434 -4.00262e-05 -8.84003e-06)
(1.05827 -0.000156075 1.1778e-36)
(1.05837 -4.18774e-05 -8.54416e-06)
(1.10225 0.000256996 -1.34509e-07)
(1.10234 -4.02054e-05 -8.23626e-06)
(1.14607 -0.000202308 -3.97068e-09)
(1.14616 -4.27506e-05 -8.00675e-06)
(1.18962 0.000296101 -1.13266e-07)
(1.1897 -4.02541e-05 -7.77485e-06)
(1.23274 -0.000233657 -6.73718e-09)
(1.23282 -4.36319e-05 -7.59645e-06)
(1.27526 0.000328939 -1.17774e-07)
(1.27533 -4.00852e-05 -7.41379e-06)
(1.31708 -0.000266514 -5.89787e-09)
(1.31715 -4.46161e-05 -7.27871e-06)
(1.35826 0.000362529 -1.12663e-07)
(1.35833 -3.97255e-05 -7.1323e-06)
(1.39909 -0.000299267 -2.62228e-09)
(1.39915 -4.57661e-05 -7.02813e-06)
(1.43999 0.000395773 -1.05361e-07)
(1.44006 -3.90976e-05 -6.90915e-06)
(1.4815 -0.000331322 -1.39997e-19)
(1.48156 -4.71574e-05 -6.82906e-06)
(1.52402 0.000455937 -2.40717e-07)
(1.52408 -3.82001e-05 -6.70189e-06)
(1.56781 -0.000418877 -8.92756e-22)
(1.56788 -4.89536e-05 -6.6791e-06)
(1.6129 0.00064485 -7.66182e-07)
(1.61296 -3.70005e-05 -6.45598e-06)
(1.65912 -0.000712137 -3.50458e-21)
(1.65918 -5.11956e-05 -6.58727e-06)
(1.7062 0.000975174 -1.00429e-06)
(1.70626 -3.54163e-05 -6.34568e-06)
(1.75393 -0.00108544 -4.56912e-21)
(1.75399 -5.3843e-05 -6.55782e-06)
(1.80237 0.00131292 -8.65183e-07)
(1.80243 -3.34306e-05 -6.38766e-06)
(1.85209 -0.00139235 -3.74721e-18)
(1.85215 -5.68373e-05 -6.58355e-06)
(1.90434 0.00153859 -4.50942e-07)
(1.90441 -3.10299e-05 -6.54198e-06)
(1.96108 -0.00153771 -1.04392e-10)
(1.96116 -6.01694e-05 -6.6496e-06)
(2.02477 0.00166731 -3.60878e-07)
(2.02485 -2.82128e-05 -6.64771e-06)
(2.09802 -0.00164861 3.60626e-21)
(2.09812 -6.39537e-05 -6.7463e-06)
(2.18331 0.00180179 -4.96797e-07)
(2.18342 -2.4878e-05 -6.72769e-06)
(2.28278 -0.00180586 -7.19743e-21)
(2.2829 -6.83287e-05 -6.87442e-06)
(2.39825 0.00218123 -1.8408e-06)
(2.39838 -2.08942e-05 -6.55717e-06)
(2.53133 -0.00241366 -2.68305e-09)
(2.53147 -7.28164e-05 -7.05679e-06)
(2.6833 0.002568 -6.18299e-07)
(2.68346 -1.6147e-05 -7.10655e-06)
(2.85456 -0.00257713 -6.49454e-08)
(2.85473 -7.72658e-05 -7.33908e-06)
(3.04364 0.00275384 -1.0483e-06)
(3.04381 -1.11454e-05 -7.46356e-06)
(3.24575 -0.00278282 -2.50835e-07)
(3.24591 -8.22038e-05 -7.896e-06)
(3.45133 0.00300568 -1.97116e-06)
(3.45149 -7.44763e-06 -8.20077e-06)
(3.64512 -0.0030841 -5.87579e-07)
(3.64524 -8.86948e-05 -9.04146e-06)
(3.80635 0.00336933 -3.19104e-06)
(3.80643 -6.31968e-06 -9.64082e-06)
(3.91072 -0.00352265 -9.3419e-07)
(3.91074 -9.58646e-05 -1.10042e-05)
(3.93399 0.00385076 -3.90277e-06)
(3.93394 -6.42107e-06 -1.18789e-05)
(3.85658 -0.00406013 -1.00319e-06)
(3.85644 -9.98717e-05 -1.35377e-05)
(3.66806 0.00437384 -3.31686e-06)
(3.66784 -5.41332e-06 -1.44529e-05)
(3.37011 -0.00456924 -6.34176e-07)
(3.3698 -9.81387e-05 -1.58803e-05)
(2.9771 0.0048136 -1.58261e-06)
(2.97671 -3.94186e-06 -1.65374e-05)
(2.51389 -0.00492642 -4.03488e-18)
(2.51344 -9.27309e-05 -1.73103e-05)
(2.01161 0.00509939 -7.20895e-08)
(2.01111 -5.38717e-06 -1.75672e-05)
(1.50271 -0.00492389 -1.73253e-06)
(1.5022 -8.7312e-05 -1.73097e-05)
(1.0165 0.00502295 -4.99499e-07)
(1.01599 -1.08978e-05 -1.73059e-05)
(0.575988 -0.00481673 -2.70232e-06)
(0.575501 -8.33717e-05 -1.671e-05)
(0.196645 0.00488125 -6.35687e-07)
(0.196208 -1.84194e-05 -1.6627e-05)
(-0.113359 -0.00468308 -2.81416e-06)
(-0.113727 -8.03738e-05 -1.60034e-05)
(-0.351869 0.00474772 -5.99523e-07)
(-0.352157 -2.54412e-05 -1.59576e-05)
(-0.521028 -0.000314157 -6.77765e-06)
(-0.521232 -7.74383e-05 -1.3603e-06)
(-0.625675 0.000358766 -6.81815e-07)
(-0.625798 -3.03664e-05 -1.17901e-06)
(-0.672094 -0.000197229 -1.56993e-06)
(-0.672141 -7.3614e-05 -1.07659e-06)
(-0.667199 0.000257655 -5.09255e-07)
(-0.667177 -3.41402e-05 -9.02532e-07)
(-0.618076 -0.00010817 -1.19976e-06)
(-0.617992 -7.01786e-05 -8.06985e-07)
(-0.531744 0.000182353 -3.75078e-07)
(-0.531604 -3.72369e-05 -6.52961e-07)
(-0.414987 -4.62026e-05 -8.44802e-07)
(-0.4148 -6.7334e-05 -5.67788e-07)
(-0.274169 0.000131906 -2.56835e-07)
(-0.273941 -3.97939e-05 -4.34809e-07)
(-0.115077 -7.00602e-06 -5.37866e-07)
(-0.114816 -6.5007e-05 -3.62551e-07)
(0.0572366 0.000101598 -1.54916e-07)
(0.0575211 -4.19521e-05 -2.52714e-07)
(0.238606 1.5503e-05 -3.01616e-07)
(0.238905 -6.30021e-05 -1.99785e-07)
(0.425798 8.57042e-05 -7.42967e-08)
(0.426103 -4.36405e-05 -1.17254e-07)
(0.616432 2.51286e-05 -1.25713e-07)
(0.616738 -6.12609e-05 -8.20406e-08)
(0.808795 8.11786e-05 -4.42253e-08)
(0.809098 -4.49631e-05 -1.68996e-08)
(1.00158 2.43922e-05 -1.08599e-07)
(1.00187 -5.9769e-05 -8.29283e-08)
(1.19358 7.88965e-05 -1.0801e-07)
(1.19387 -4.60415e-05 -1.35758e-07)
(1.38341 2.99906e-05 -2.51319e-07)
(1.38369 -5.85542e-05 -2.31304e-07)
(1.56927 7.38572e-05 -3.1041e-07)
(1.56953 -4.70139e-05 -3.2453e-07)
(1.74882 3.4017e-05 -4.79197e-07)
(1.74906 -5.76396e-05 -4.61262e-07)
(1.91916 7.02028e-05 -5.83664e-07)
(1.91938 -4.79645e-05 -5.97204e-07)
(2.07694 3.71967e-05 -7.81238e-07)
(2.07713 -5.70156e-05 -7.65581e-07)
(2.21862 6.6864e-05 -9.08975e-07)
(2.21879 -4.88981e-05 -9.21369e-07)
(2.3408 3.99116e-05 -1.10216e-06)
(2.34094 -5.65551e-05 -1.08912e-06)
(2.44051 6.39814e-05 -1.21526e-06)
(2.44062 -4.9732e-05 -1.22593e-06)
(2.51562 4.21913e-05 -1.36219e-06)