/*--------------------------------*- C++ -*----------------------------------*\
| =========                 |                                                 |
| \\      /  F ield         | OpenFOAM: The Open Source CFD Toolbox           |
|  \\    /   O peration     | Version:  2012                                  |
|   \\  /    A nd           | Website:  www.openfoam.com                      |
|    \\/     M anipulation  |                                                 |
\*---------------------------------------------------------------------------*/
FoamFile
{
    version     2.0;
    format      ascii;
    class       volTensorField;
    location    "13100";
    object      grad(U);
}
// * * * * * * * * * * * * * * * * * * * * * * * * * * * * * * * * * * * * * //

dimensions      [0 0 -1 0 0 0 0];


internalField   nonuniform List<tensor> 
2560
(
(0 -1.35699e-14 1.66017e-13 487.418 0 3.09952 0.706405 0 0.00587916)
(0 0 1.14289e-18 486.855 0.0320049 0.000257208 0.706405 -0.000379221 -0.00586682)
(0 9.68094e-20 0 485.861 -0.00481337 -2.77644e-17 2.12439 6.63476e-05 0)
(0 -6.1606e-20 1.12651e-18 485.314 0.143046 -0.000168986 2.1244 6.63088e-05 -0.0081061)
(4.77644e-16 -1.38795e-19 0 484.49 -0.0770984 -1.87509 2.90427 2.75299e-05 0.00517888)
(-5.68506e-16 2.73254e-19 -1.11036e-18 483.975 0.0544155 -6.04384e-05 2.9013 2.7314e-05 -0.00516821)
(2.87574e-16 -2.71208e-19 1.09445e-18 483.119 -0.0380043 -1.2727 2.9382 -7.90113e-07 0.00253769)
(0 2.71208e-19 -1.09445e-18 482.648 0.0290223 -1.67182e-05 2.93548 -4.9232e-06 -0.00253246)
(1.10465e-15 -4.74362e-19 1.34845e-18 481.77 -0.015604 -0.558547 2.97268 8.18213e-07 0.00134175)
(0 5.42098e-19 -1.07876e-18 481.349 0.0158699 -4.27871e-06 2.97024 -5.31344e-07 -0.00133898)
(1.77693e-15 -1.35509e-19 3.98738e-19 480.33 -0.00977424 -0.245833 3.00622 1.17254e-07 0.000829497)
(4.41842e-15 2.03263e-19 -3.98738e-19 479.961 0.00993566 -7.42481e-07 3.00407 -7.4198e-07 -0.000827783)
(-8.92251e-16 -1.35486e-19 6.55039e-20 478.601 -0.00701531 -0.124349 3.03777 1.40416e-06 0.000578671)
(3.57004e-15 2.71035e-19 -1.96512e-19 478.283 0.00680577 -1.98375e-07 3.0359 4.38703e-07 -0.000577475)
(-1.09889e-15 2.03279e-19 -6.4565e-20 476.504 -0.00512536 -0.0715712 3.06722 -5.18582e-07 0.000437723)
(4.39642e-15 -1.35687e-19 0 476.235 0.00533017 -1.39087e-07 3.06564 -1.55007e-06 -0.00043682)
(3.39283e-15 -2.03349e-19 1.27279e-19 474.253 -0.0042715 -0.045313 3.09728 2.13166e-06 0.000349819)
(-2.08534e-15 2.7109e-19 -1.27279e-19 474.03 0.00410539 -2.51756e-08 3.09597 8.22608e-07 -0.000349097)
(0 2.71248e-19 -1.25455e-19 472.284 -0.00339794 -0.030734 3.13092 -1.07028e-06 0.000236527)
(0 -2.03374e-19 6.27275e-20 472.105 0.00355778 -3.50115e-08 3.12987 -2.18194e-06 -0.000290088)
(-1.73e-15 -6.09832e-19 8.15913e-20 470.67 -0.00303426 -0.0219365 3.16626 2.73554e-06 0.000168267)
(0 6.77698e-19 -1.23657e-19 470.532 0.00290169 -1.11171e-08 3.16545 1.30484e-06 -0.000248108)
(3.94146e-15 -2.84198e-17 2.26135e-19 469.273 -0.00239268 -0.016278 3.20354 -1.5471e-06 0.0001249)
(0 8.13199e-19 -1.82827e-19 469.171 0.00266255 -8.88991e-08 3.20296 -2.69222e-06 -0.000216948)
(0 -3.38826e-19 6.00689e-20 468.207 -0.00221345 -0.0124825 3.24422 2.97227e-06 9.58345e-05)
(0 5.42028e-19 -6.00689e-20 468.138 0.0404326 0.000139955 3.24384 1.53402e-06 -0.000193038)
(-2.38051e-15 4.73663e-19 -1.02421e-19 467.356 -0.00253365 -0.00975543 3.28541 0.000130937 7.59128e-05)
(9.52216e-15 0 5.92079e-20 467.316 -2.25197e-21 1.82853e-06 3.28523 0 -0.000173614)
(0 -3.1751e-17 -8.7539e-20 466.282 -0.000119626 -0.00783532 3.32392 -4.23893e-07 6.02652e-05)
(0 -5.25234e-19 8.7539e-20 466.268 0.122863 0.000210422 3.3239 -0.000262566 -0.000159065)
(-2.82906e-15 0 -1.31486e-20 464.645 -0.00319612 -0.00632098 3.35793 0.000571815 5.07232e-05)
(1.13162e-14 0 0 464.652 -2.20164e-17 6.18308e-06 3.35806 -5.49455e-35 -0.000145166)
(0 -2.10875e-17 -1.41746e-19 462.343 3.4075e-17 -0.00513545 3.38746 0 4.0096e-05)
(-1.22317e-14 1.71772e-15 1.41746e-19 462.369 0.0828171 -0.000241973 3.38772 -0.000302057 -0.000136402)
(0 1.67657e-18 -1.11772e-19 459.791 -0.002471 -0.00432753 3.41825 0.000936825 3.47873e-05)
(-1.31548e-14 -3.89503e-19 1.11772e-19 459.832 -3.51036e-17 2.152e-06 3.4186 0 -0.000127355)
(7.22008e-15 -2.20339e-19 5.50848e-20 457.978 -0.000158094 -0.00364043 3.45927 -0.000127346 2.92255e-05)
(0 1.0723e-29 -6.8856e-20 458.031 3.78586e-17 -4.54556e-06 3.45971 0 -0.00012043)
(3.75272e-15 1.30309e-18 -4.20054e-20 457.693 -0.00270612 -0.00308948 3.514 0.00106447 2.54135e-05)
(-1.50106e-14 -5.90175e-19 8.14429e-20 457.755 -3.6886e-20 8.87359e-07 3.51451 0 -0.000113736)
(0 -4.28137e-19 -9.36549e-20 458.807 0.000133144 -0.00264005 3.57795 -0.000547118 2.16269e-05)
(0 3.19022e-19 9.36549e-20 458.875 3.46745e-17 -5.58064e-06 3.5785 0 -0.000108696)
(-4.22671e-15 -6.33001e-19 1.44276e-21 460.57 -0.00269829 -0.00227114 3.64479 0.00119116 1.9161e-05)
(0 -1.54074e-33 -3.95625e-20 460.643 -4.15921e-17 -7.92305e-08 3.64538 2.92822e-34 -0.000103577)
(2.34464e-15 4.34686e-20 1.18384e-19 462.386 0.000678615 -0.00202716 3.71187 -0.000960242 1.64334e-05)
(0 0 -1.29985e-19 462.463 -1.44312e-35 0.000270527 3.71249 2.1684e-19 -9.98212e-05)
(-6.71728e-15 1.63996e-18 -3.84366e-20 464.128 -0.00310695 -0.00170015 3.77987 0.00158532 1.58125e-05)
(-1.21563e-14 -6.5946e-19 7.68732e-20 464.206 -5.4955e-20 5.12608e-06 3.78051 0 -9.44428e-05)
(4.97108e-15 -4.04114e-19 -7.70791e-20 465.893 0.000940932 -0.00149559 3.84971 -0.0019349 1.15983e-05)
(0 4.81482e-35 8.84e-20 465.971 3.64373e-32 0.000115531 3.85036 -2.1684e-19 -9.29828e-05)
(-1.04567e-14 3.5849e-18 -1.2043e-19 467.713 -0.00360738 -0.00127705 3.92106 0.00233761 1.29017e-05)
(0 -9.62965e-35 9.95806e-20 467.791 -7.80622e-17 1.04954e-05 3.9217 -1.79977e-34 -8.78333e-05)
(1.64715e-14 1.96307e-18 1.31286e-19 469.495 0.00149065 -0.00103006 3.99273 -0.00279568 8.28094e-06)
(4.39232e-14 0 -9.81533e-20 469.571 1.11022e-16 -0.000296277 3.99337 -4.01823e-30 -8.76826e-05)
(0 -3.48288e-18 7.25599e-20 471.104 -0.00392196 -0.000962348 4.06364 0.00288482 9.08648e-06)
(2.30305e-14 0 -7.25599e-20 471.177 -9.36042e-17 6.40094e-06 4.06425 0 -8.47311e-05)
(-2.19546e-16 -1.14432e-18 -2.51606e-20 472.489 0.00219026 -0.000839082 4.1339 -0.00304443 7.35714e-06)
(0 4.22695e-19 1.192e-20 472.559 1.05674e-19 2.32282e-06 4.13449 -4.33681e-19 -8.3563e-05)
(-1.26135e-14 0 -3.23018e-20 473.833 -0.00442567 -0.00073236 4.2065 0.00313965 7.19861e-06)
(-5.04534e-14 -4.35518e-18 1.17491e-20 473.898 1.0888e-19 1.74889e-06 4.20705 0 -8.10804e-05)
(-6.58733e-15 -1.11175e-18 -5.67085e-20 475.673 0.00291044 -0.000640444 4.28808 -0.00330426 5.6806e-06)
(-3.24207e-14 2.29378e-18 3.47422e-20 475.733 1.03969e-16 -1.05632e-05 4.2886 -4.33681e-19 -8.03526e-05)
(0 3.65273e-18 -1.02733e-19 478.835 -0.00508625 -0.000562019 4.38743 0.00340195 5.75622e-06)
(-2.74842e-14 -1.41576e-18 1.02733e-19 478.89 1.1798e-19 -1.6488e-06 4.38791 -4.33681e-19 -7.8265e-05)
(0 1.44015e-18 4.50047e-20 484.131 0.00379316 -0.000491945 4.51173 -0.00356668 4.4159e-06)
(2.8633e-14 0 -4.50047e-20 484.18 -1.23794e-19 -1.29973e-05 4.51216 -4.33681e-19 -7.78323e-05)
(-7.45037e-15 0 -9.9348e-21 491.973 -0.00591501 -0.000430908 4.66326 0.00366632 4.62752e-06)
(0 -1.92593e-34 -1.10899e-20 492.016 -1.09101e-16 -1.11436e-06 4.66363 0 -7.60597e-05)
(-7.74964e-15 -2.79833e-18 -7.56609e-20 502.185 0.0047378 -0.000452735 4.83849 -0.00382962 3.39883e-06)
(0 0 6.55858e-20 502.222 1.37449e-17 0.000327662 4.83882 7.37835e-35 -7.58444e-05)
(-8.05888e-15 3.44777e-18 -4.16656e-20 514.062 -0.0070092 -0.000317462 5.02949 0.0042567 5.17899e-06)
(-4.3533e-14 -2.36214e-18 1.07743e-20 514.096 -2.81985e-17 6.62627e-06 5.02979 8.67362e-19 -7.23491e-05)
(1.95163e-14 2.03901e-18 2.78908e-17 526.616 0.00575885 -0.000181422 5.22644 -0.00475243 8.83184e-07)
(-1.11357e-14 -3.46667e-33 -3.18596e-20 526.645 1.11022e-16 0.00103093 5.22672 -2.8297e-34 -7.43324e-05)
(8.71633e-15 -5.35944e-18 6.00933e-20 538.846 -0.0081498 -0.000205798 5.42019 0.00617915 9.04933e-06)
(0 -7.70372e-34 -5.23383e-20 538.873 0 2.13072e-05 5.42045 0 -6.47818e-05)
(-9.06685e-15 -1.32066e-18 1.92593e-34 549.995 0.00682726 -2.03288e-18 5.60462 -0.00770698 0)
(-1.08188e-14 1.06976e-18 2.06353e-20 550.02 1.1129e-16 0.000422721 5.60486 0 -7.33442e-05)
(-1.06638e-14 6.50864e-18 -2.03395e-20 559.766 -0.00913573 -9.75468e-05 5.77912 0.00951388 9.9913e-06)
(1.06638e-14 -1.32011e-18 4.0679e-20 559.789 -4.44089e-16 2.70605e-05 5.77933 1.73472e-18 -6.13182e-05)
(-9.80871e-15 -1.28307e-18 2.47776e-18 568.531 0.00776205 1.95834e-18 5.95093 -0.0114715 0)
(3.92347e-14 0 0 568.551 -7.96099e-19 -0.000327314 5.95113 -1.73472e-18 -7.2883e-05)
(1.03603e-14 -1.26468e-17 4.94016e-20 577.432 -0.00988523 -4.69942e-06 6.13605 0.012924 7.29547e-06)
(3.04235e-14 6.31089e-30 -4.94016e-20 577.448 -6.6703e-16 2.19814e-05 6.1362 1.50209e-29 -6.30942e-05)
(1.05911e-14 -7.47933e-18 1.71547e-17 588.246 0.00853652 3.82688e-18 6.35656 -0.014566 0)
(-4.23645e-14 8.08657e-18 5.84323e-20 588.258 0 -0.000721313 6.35667 0 -7.28861e-05)
(1.09937e-14 -1.22869e-17 3.76728e-20 602.905 -0.0104737 6.54201e-05 6.63389 0.0152964 4.1716e-06)
(0 -1.54074e-33 -2.87974e-20 602.912 -3.60822e-16 1.13281e-05 6.63394 -1.73472e-18 -6.79822e-05)
(-1.14059e-14 2.42216e-18 4.37371e-18 622.786 0.0091834 -5.09279e-21 6.98045 -0.0162297 0)
(0 0 -2.83847e-20 622.789 4.12242e-16 -0.000313299 6.98046 6.72284e-34 -7.32517e-05)
(-7.72504e-15 7.16232e-18 -1.8588e-20 648.129 -0.0110979 0.000118072 7.39426 0.0166577 3.06517e-06)
(4.73316e-14 -2.77334e-32 9.32594e-21 648.129 -4.02456e-16 6.67534e-06 7.39425 0 -7.0583e-05)
(0 4.70645e-18 5.07711e-18 677.909 0.00986761 1.82959e-18 7.85975 -0.017289 0)
(4.91255e-14 0 -3.67691e-20 677.908 8.60423e-16 0.000167822 7.85974 -3.46945e-18 -7.39128e-05)
(-1.27583e-14 0 -9.11699e-21 710.184 -0.0118049 0.000166118 8.35287 0.0178903 4.6136e-06)
(0 -7.70372e-34 -1.81211e-20 710.185 0 8.98498e-06 8.3529 0 -7.01656e-05)
(-1.32689e-14 0 -1.50463e-36 742.765 0.0105929 -3.69483e-47 8.84991 -0.0187004 1.35525e-20)
(0 3.00445e-32 -8.93067e-21 742.771 4.48342e-16 0.00313839 8.85002 3.46945e-18 -7.48702e-05)
(0 -4.50697e-18 1.76053e-20 773.75 -0.0117584 0.000230713 9.33076 0.0223812 2.36037e-05)
(0 6.16298e-32 -1.76053e-20 773.765 -8.91284e-16 5.38373e-05 9.33099 1.25093e-33 -4.84959e-05)
(-3.25987e-14 4.44237e-18 1.15795e-17 801.3 0.0109696 -1.72942e-18 9.77053 -0.0263498 0)
(0 7.70372e-34 -1.7353e-20 801.327 -3.08251e-34 -0.000712725 9.77095 0 -7.62994e-05)
(-3.58703e-14 2.18935e-17 -6.84172e-20 822.64 -0.0108826 0.000351367 10.1239 0.029241 2.07217e-05)
(-4.21911e-14 -2.02889e-17 5.13129e-20 822.686 -6.68163e-16 9.73849e-05 10.1245 -3.46945e-18 -5.53577e-05)
(-1.57088e-14 2.58957e-17 9.069e-18 832.743 0.00995926 0.000600909 10.3064 -0.0324371 3.68539e-06)
(6.28348e-14 0 -5.05774e-20 832.813 1.4943e-15 -0.00183453 10.3074 -1.24007e-29 -7.81493e-05)
(0 2.55245e-17 -6.64701e-20 823.161 -0.00980049 0.000628676 10.1802 0.0332458 1.20218e-05)
(0 -7.70372e-34 6.64701e-20 823.264 -8.55166e-31 0.000198216 10.1817 -6.40259e-34 -7.25351e-05)
(-3.44103e-14 -1.25793e-17 -5.92439e-20 781.588 0.00682848 0.000804014 9.55091 -0.034317 8.25297e-06)
(8.61151e-14 -3.08149e-33 4.9138e-20 781.733 7.54458e-16 0.000882974 9.55305 0 -8.09272e-05)
(3.61735e-14 -1.65321e-17 3.00041e-20 692.971 -0.00934392 0.00118181 8.19175 0.0354059 2.21225e-05)
(7.23454e-14 -6.16298e-32 -1.61446e-20 693.167 -7.46944e-16 0.000349452 8.19462 1.00435e-32 -7.19092e-05)
(1.66862e-14 8.14755e-18 3.18264e-20 542.483 0.00234638 0.00145345 5.891 -0.036798 1.56061e-05)
(0 -5.85483e-32 -1.59132e-20 542.737 8.32667e-16 0.00112302 5.89473 -2.2614e-33 -8.64259e-05)
(-1.98513e-14 -8.03078e-18 1.0265e-20 319.89 -0.00779504 0.00191209 2.51964 0.0382398 3.49522e-05)
(0 1.10934e-31 -3.13702e-20 320.207 -1.61248e-15 0.000360559 2.52428 6.93889e-18 -7.38586e-05)
(-5.36813e-13 -1.58314e-17 -6.70744e-20 0.465506 -0.000901431 0.00215108 0.00311327 -0.0401231 2.25031e-05)
(0 0 7.73015e-20 6.95016e-30 -1.93193e-33 0.000605771 2.84217e-14 -6.93889e-18 -9.69085e-05)
(1.04709e-12 0 -5.81389e-21 -279.956 -0.00260787 0.00237836 1.89956 0.0417829 4.21894e-05)
(0 0 -1.52387e-20 -279.135 -2.89916e-18 0.000104012 1.89399 6.93889e-18 -8.39311e-05)
(-1.87557e-14 7.6904e-18 2.66174e-21 -724.525 -0.00203336 0.00239915 7.15256 -0.0440231 2.3739e-05)
(7.50263e-14 6.16298e-33 -6.00812e-20 -724.024 8.87535e-16 -0.000577016 7.14609 6.59331e-33 -0.000112639)
(-1.55179e-15 1.51604e-17 -6.86221e-20 -1117.83 0.00464443 0.00215495 12.8386 0.0455725 3.65537e-05)
(-1.55242e-14 -6.18492e-32 2.96101e-20 -1117.28 -8.91341e-16 -0.000291841 12.8313 0 -0.000104147)
(-3.00432e-14 -2.24146e-17 -1.18756e-19 -1473.47 -0.00366477 0.0019198 18.4294 -0.0476938 1.77213e-05)
(-6.00908e-14 2.64763e-17 8.7557e-20 -1472.88 3.30953e-18 -0.00154659 18.4213 0 -0.000129972)
(-2.54304e-14 -3.68222e-17 8.50587e-20 -1756.89 0.00964452 0.00132995 23.3674 0.0488328 2.05408e-05)
(1.01731e-13 0 -1.15069e-19 -1756.27 -9.40301e-16 -0.000527449 23.3586 6.93889e-18 -0.000128508)
(-3.09024e-14 -5.08123e-17 -2.26493e-19 -1944.26 -0.00792826 0.000988931 27.1781 -0.0503903 8.21961e-06)
(-4.12083e-14 1.39866e-17 1.7013e-19 -1943.61 1.92479e-15 -0.00129316 27.1689 0 -0.000143438)
(-7.91997e-15 -5.0084e-17 2.38964e-18 -2025.81 0.0110751 2.71051e-18 29.5574 0.0511136 0)
(3.16852e-14 0 -1.39743e-19 -2025.16 9.36905e-16 0.00143054 29.5478 -6.93889e-18 -0.000145051)
(5.69282e-15 1.41046e-17 7.30376e-20 -2005.72 -0.0126449 -7.5937e-05 30.4054 -0.0508658 4.57296e-06)
(0 0 -5.50962e-20 -2005.1 7.05928e-18 0.000364752 30.3958 0 -0.000133689)
(0 -4.86586e-17 1.97129e-20 -1899.07 0.0108924 1.97129e-20 29.8158 0.0511368 0)
(1.48294e-14 0 -1.35766e-19 -1898.5 9.15934e-16 0.000759135 29.8066 4.12369e-30 -0.000141877)
(0 6.8516e-18 2.67641e-20 -1726.98 -0.0150733 -0.000363502 28.0233 -0.0507099 1.23204e-05)
(1.50629e-14 0 -2.67641e-20 -1726.54 -9.4369e-16 0.000128687 28.0153 -5.80838e-33 -0.000125253)
(-6.91548e-15 1.35068e-17 -3.00927e-36 -1511.94 0.0107474 -1.70248e-33 25.3321 0.0507524 0)
(-9.4851e-16 1.2326e-32 5.27609e-20 -1511.69 -9.02041e-33 5.81185e-05 25.3264 -6.93889e-18 -0.00013828)
(3.40818e-15 -3.99396e-17 -1.04009e-19 -1274.16 -0.0148676 -0.000296386 18.8211 -0.0504058 1.22204e-05)
(-3.40818e-15 1.45819e-14 1.04009e-19 -1274.18 -1.7486e-15 -4.37417e-06 18.8211 0 -0.000121841)
(0 0 0 -1029.72 0.0104548 1.89234e-20 9.59287 0.0504324 5.25229e-36)
(0 0 0 -1030.06 1.78336e-15 0.00287798 9.59282 0 -0.000136171)
(0 8.08395e-19 -3.15779e-20 -790.108 -0.0119634 -0.0163744 2.21492 -0.00157694 -3.24946e-05)
(0 0 1.54074e-33 -790.805 0 1.0842e-18 2.21487 -1.11183e-28 -6.77626e-21)
(8.15932e-16 7.96809e-19 0 -562.906 0.010586 -0.000212869 -3.33516 0.00240144 2.75852e-06)
(0 0 0 -563.883 -2.74226e-17 -0.00380136 -3.3352 -5.54598e-34 -2.75871e-06)
(3.95068e-16 -1.64215e-16 0 -352.751 3.29597e-17 -0.000196982 -4.28358 0 -2.79387e-06)
(0 0 4.70198e-38 -353.866 -0.0788981 -4.60151e-20 -4.3031 -0.00100145 -4.23516e-22)
(-5.4226e-13 1.1612e-18 0 -145.605 0.00926633 -0.000195189 -1.24466 0.00171125 2.15013e-06)
(1.01058e-12 -4.4164e-15 0 -147.903 0 -0.000273399 -1.26431 2.1684e-19 -2.15031e-06)
(-1.3745e-15 -2.7306e-16 0 2.74899e-15 3.91243e-19 -0.000172004 0 2.1684e-19 -2.19234e-06)
(2.98139e-13 3.81518e-19 -3.04231e-22 1.13678 -0.0566219 -3.04231e-22 -0.00985874 -0.00141143 0)
(0 -3.7605e-19 0 154.258 0.00796777 -0.000167734 -1.50415 0.00118723 1.45885e-06)
(0 2.31112e-33 0 153.216 -2.09812e-17 -0.000252319 -1.48517 -9.02967e-34 -1.45903e-06)
(-6.16814e-16 -1.14804e-16 1.44789e-21 279.76 7.3251e-19 -0.000145612 -3.94249 0 -1.49579e-06)
(0 5.55991e-19 -2.07565e-22 278.824 -0.0366749 2.07565e-22 -3.92478 -0.000973566 2.11758e-22)
(0 7.30696e-19 0 384.081 0.00687129 -0.00013949 -4.16311 0.00082255 8.60219e-07)
(0 -1.71396e-15 0 383.301 -1.02944e-17 -0.000209814 -4.16309 -1.0842e-19 -8.60406e-07)
(0 -2.91561e-16 0 468.448 -9.43854e-20 -0.000117618 -0.233991 0 -8.88532e-07)
(0 9.00279e-20 -4.93169e-22 467.896 -0.0212166 -2.46584e-22 -0.233965 -0.000682016 1.05879e-22)
(7.26938e-16 -3.5495e-19 0 534.625 0.00604007 -0.000107216 4.44545 0.000588561 3.69526e-07)
(0 -1.92593e-34 0 534.338 -8.14219e-20 -0.000162407 4.44548 1.0842e-19 -2.07851e-07)
(0 -8.00439e-17 0 584.73 6.93889e-18 -8.43947e-05 9.7349 0 -3.86241e-07)
(0 -6.1226e-19 -3.85186e-34 584.678 -0.0101122 0 9.73493 -0.000506314 5.29396e-23)
(-2.37825e-15 6.03485e-19 3.36766e-22 620.913 0.00535976 -7.51827e-05 12.2891 0.000455146 2.20438e-08)
(4.6099e-15 -6.96724e-19 -9.73783e-22 621.038 5.32997e-18 -1.83734e-05 12.2929 0 9.64428e-07)
(0 -6.95665e-17 0 645.109 -6.07153e-18 -5.13928e-05 12.8334 0 -2.62633e-08)
(0 1.69953e-19 3.31939e-22 645.35 -0.00268875 3.56561e-05 12.839 -0.000411696 9.25764e-07)
(-2.06442e-15 -1.0051e-18 -1.63591e-21 658.859 0.00413982 -8.49199e-06 13.1961 0.000393548 -6.59783e-07)
(2.76498e-15 -1.92593e-34 0 659.159 5.43483e-20 3.64979e-21 13.2025 0 2.11758e-22)
(-2.95412e-15 -8.43783e-17 3.22492e-22 663.205 -5.25694e-18 6.98249e-05 13.3848 0 1.65447e-08)
(-1.18129e-14 -3.30232e-19 -7.06069e-22 663.522 -0.0012198 -5.38352e-06 13.3912 -0.000382258 4.73061e-07)
(9.21423e-15 -6.10311e-19 -1.27148e-21 658.698 0.00297023 8.46398e-05 13.3981 0.000361622 -2.02105e-08)
(1.01887e-14 -9.62965e-35 1.83451e-21 659.003 4.33681e-19 9.50436e-06 13.4041 0 1.22828e-07)
(-4.83477e-15 -7.04371e-17 6.26629e-22 645.484 4.86317e-18 0.000108642 13.2279 0 1.36948e-08)
(1.93361e-14 -1.16302e-18 -5.56311e-22 645.762 -0.00234393 9.46011e-06 13.2333 -0.00033597 2.68467e-07)
(-5.80345e-15 -1.18588e-19 0 623.483 0.00248011 0.000127506 12.8631 0.000319787 -1.96623e-08)
(0 -1.14905e-16 0 623.728 4.29271e-18 8.86209e-05 12.8679 0 1.17588e-07)
(-6.77517e-15 -3.03648e-17 0 592.585 4.37766e-18 0.000151059 12.2939 0 1.09144e-08)
(0 3.50666e-19 0 592.797 -0.00208413 0.000141702 12.2981 -0.000296502 -1.0618e-08)
(-7.73625e-15 -6.14471e-19 0 552.868 0.00204623 0.00016351 11.5166 0.000281325 -1.93646e-08)
(3.09429e-14 0 0 553.051 1.7809e-19 0.000163802 11.5203 0 1.9398e-08)
(1.85945e-14 -7.98409e-17 0 504.805 -6.54147e-18 0.000173225 10.5382 5.42101e-20 8.1902e-09)
(-9.9232e-15 5.29956e-19 0 504.964 -0.00185688 0.000173179 10.5415 -0.000263404 -7.87342e-09)
(9.78098e-15 -3.35803e-19 0 449.399 0.00172386 0.000167985 9.3794 0.000245899 -1.92709e-08)
(0 -9.62965e-34 0 449.537 3.28643e-18 0.000168255 9.38227 -2.71051e-20 1.92795e-08)
(-1.03955e-14 -2.19928e-17 0 388.206 2.49131e-19 0.000156993 8.07422 0 5.57253e-09)
(0 5.5165e-19 0 388.327 -0.00161306 0.00015696 8.07678 -0.000234875 -5.23054e-09)
(0 -1.34123e-18 0 323.281 0.00148813 0.000131122 6.66954 0.000214209 -1.92879e-08)
(8.92038e-14 2.46519e-32 0 323.387 2.60209e-18 0.000131367 6.67181 1.76813e-32 1.92624e-08)
(-1.87328e-14 -1.70776e-17 -2.23313e-21 257.075 -2.1684e-19 0.000102493 5.22303 -2.71051e-20 3.12979e-09)
(4.72565e-14 4.28761e-19 0 257.168 -0.00131706 0.000102467 5.22504 -0.000209468 -2.75128e-09)
(-3.08392e-14 1.02132e-18 -2.20112e-21 192.229 0.00133839 6.5772e-05 3.79661 0.000187825 -1.93308e-08)
(-4.94984e-14 -1.10002e-16 0 192.309 -2.68325e-19 6.59884e-05 3.79837 2.71051e-20 1.92631e-08)
(5.37473e-15 -1.28966e-17 3.7839e-19 131.314 -1.95156e-18 0 2.45183 0 1.03398e-25)
(-5.12991e-14 -7.6369e-19 -1.49993e-18 131.382 -0.00105547 2.66237e-07 2.45333 -0.000185591 -4.89191e-10)
(-1.79389e-14 6.84313e-19 0 76.6389 0.00122446 -8.53685e-07 1.24503 0.000166363 -1.93485e-08)
(0 -3.21762e-19 0 76.6957 1.68922e-18 -6.66127e-07 1.24627 -2.71051e-20 1.92261e-08)
(2.69928e-13 -2.16194e-17 5.64456e-19 18.1397 1.95156e-18 -3.91771e-07 0.222456 0 -1.04784e-09)
(-4.8472e-13 -3.37253e-19 1.83671e-40 18.2198 -0.000867698 -1.69365e-23 0.223439 -0.000162676 -1.47746e-40)
(2.38062e-26 1.46264e-18 -4.15524e-21 -1.08001e-12 0.00109262 -4.52883e-05 1.42109e-14 0.000148401 -1.9336e-08)
(0 0 0 -0.00587656 4.04868e-20 -4.51255e-05 7.31152e-05 2.71051e-20 1.91446e-08)
(0 -1.8269e-17 0 -34.1116 -1.51788e-18 -5.41706e-05 0.581248 0 -2.78419e-09)
(1.06532e-13 1.75295e-18 0 -34.0881 -0.000738344 -5.41937e-05 0.580526 -0.000141402 3.34809e-09)
(0 -3.39106e-19 0 -50.8463 0.000912248 -5.91098e-05 1.14515 0.000132753 -1.93468e-08)
(1.22202e-13 -9.62965e-35 0 -50.833 1.66241e-18 -5.89642e-05 1.14469 9.62387e-35 1.90645e-08)
(-2.60266e-14 3.37038e-34 0 -57.6432 1.33457e-18 -5.58709e-05 1.46174 3.51237e-35 -4.36899e-09)
(0 0 0 -57.6395 -0.000655983 -5.58842e-05 1.46153 -0.000123274 5.03337e-09)
(-1.28967e-14 0 0 -55.2328 0.000746827 -5.14975e-05 1.53451 0.000118421 -1.94684e-08)
(1.03174e-13 -3.85186e-34 0 -55.2378 -1.19262e-18 -5.13592e-05 1.53453 -5.48296e-35 1.90707e-08)
(1.28231e-14 -2.02336e-17 0 -44.6326 -1.16329e-18 -4.29549e-05 1.37655 -1.35525e-20 -5.91531e-09)
(0 4.63905e-19 0 -44.6451 -0.000594585 -4.29508e-05 1.37679 -0.000108233 6.70738e-09)
(-1.28042e-14 0 0 -27.0435 0.000623444 -3.56909e-05 1.0083 0.000104998 -1.98209e-08)
(0 0 0 -27.0622 7.61484e-35 -3.55494e-05 1.00873 1.35525e-20 1.92736e-08)
(-1.28494e-14 0 0 4.44089e-16 0 -2.63527e-05 0.455371 1.35525e-20 -7.5534e-09)
(5.13971e-14 -6.76053e-19 0 -0.00613281 -0.000526546 -2.63234e-05 0.455957 -9.54483e-05 8.51043e-09)
(-1.41467e-13 6.66364e-19 0 18.049 0.000540701 -1.85588e-05 1.08018 9.27816e-05 -2.05332e-08)
(5.11209e-14 6.01853e-36 -1.85101e-21 17.9988 9.21572e-19 -1.84039e-05 1.07941 0 1.97967e-08)
(-2.54572e-14 -1.50463e-36 0 54.0827 1.0842e-19 -2.82428e-06 1.99139 -1.35525e-20 -9.42158e-09)
(0 1.45958e-19 0 54.0553 -0.000440235 -2.19191e-06 1.9906 -8.40271e-05 1.05879e-08)
(-1.27345e-14 4.02826e-19 0 85.7169 0.000463235 2.48946e-06 2.9439 8.24152e-05 -2.17432e-08)
(0 -1.53575e-17 -3.59666e-21 85.6901 -7.58942e-19 2.66637e-06 2.94315 -1.35525e-20 2.07633e-08)
(2.97386e-14 -7.51706e-18 3.54511e-21 117.079 0 1.63018e-05 3.89245 -1.35525e-20 -1.16433e-08)
(-8.09676e-14 6.80662e-19 0 117.055 -0.000366392 1.64017e-05 3.89178 -7.40027e-05 1.30778e-08)
(1.29529e-14 -5.45111e-19 0 146.57 0.000415596 3.17451e-05 4.78813 7.37037e-05 -2.35651e-08)
(5.1812e-14 0 0 146.549 0 3.19492e-05 4.78758 1.35525e-20 2.22773e-08)
(4.20674e-14 -1.05677e-17 0 172.593 -5.42101e-19 4.97142e-05 5.5803 0 -1.43048e-08)
(-8.15933e-14 5.37298e-19 0 172.578 -0.000349129 4.98536e-05 5.5799 -6.46647e-05 1.60789e-08)
(-1.34737e-14 6.78971e-19 0 193.634 0.000339146 6.62851e-05 6.21939 6.50811e-05 -2.60739e-08)
(3.96559e-14 1.68519e-34 0 193.624 -5.42101e-19 6.65174e-05 6.21917 1.35525e-20 2.4392e-08)
(-2.80699e-14 -2.26154e-18 0 208.346 0 8.47872e-05 6.65956 6.77626e-21 -1.74259e-08)
(0 -2.67696e-19 -1.6731e-21 208.342 -0.000290563 8.49623e-05 6.65953 -5.69942e-05 1.96336e-08)
(-1.38338e-14 6.72841e-19 -3.29824e-21 215.647 0.000277343 0.000101933 6.86269 5.78781e-05 -2.92651e-08)
(5.71123e-14 0 0 215.649 -2.71051e-20 0.000102188 6.86284 -6.77626e-21 2.70835e-08)
(1.47627e-14 -6.63053e-18 0 214.829 -4.33681e-19 0.000120342 6.80224 -6.77626e-21 -2.0925e-08)
(0 5.46162e-19 0 214.837 -0.000245277 0.000120543 6.80255 -5.07131e-05 2.36826e-08)
(-2.68802e-14 5.44743e-19 0 205.646 0.000258028 0.000139256 6.46674 5.18092e-05 -3.30416e-08)
(-6.11247e-14 -7.35813e-18 -3.20437e-21 205.658 -1.31628e-20 0.000139521 6.46721 6.77626e-21 3.02208e-08)
(0 -1.48601e-18 -3.15845e-21 188.361 3.52366e-19 0.000162162 5.86156 0 -2.46022e-08)
(0 1.32655e-19 0 188.377 -0.00019003 0.000162373 5.86214 -4.45944e-05 2.80607e-08)
(0 6.78673e-19 0 163.767 0.000258876 0.000189734 5.01061 4.73045e-05 -3.72058e-08)
(-2.61152e-14 -7.31577e-18 0 163.785 -3.50058e-21 0.000189993 5.01128 6.77626e-21 3.35726e-08)
(1.6833e-14 -1.02323e-18 0 133.149 0 0.000225616 3.95487 -6.77626e-21 -2.81605e-08)
(0 -1.22129e-18 0 133.169 -0.000137985 0.000225818 3.95559 -3.80283e-05 3.25067e-08)
(-8.09729e-15 5.44424e-19 0 98.1919 0.000245282 0.000269703 2.74996 4.43806e-05 -4.15068e-08)
(0 -6.75093e-18 0 98.2131 -2.98156e-19 0.000269938 2.7507 0 3.68379e-08)
(-3.52887e-14 0 0 60.8487 4.60786e-19 0.000323965 1.46155 3.38813e-21 -3.12523e-08)
(7.0577e-14 0 0 60.8699 -0.00011441 0.000324143 1.46228 -3.15298e-05 3.67203e-08)
(9.34413e-14 0 0 9.0442 0.000181096 0.000384704 0.15912 4.21782e-05 -4.57016e-08)
(0 0 0 9.08356 -1.5007e-34 0.000384903 0.159813 0 3.97218e-08)
(3.00367e-13 -2.72977e-18 0 -0.0250926 -1.89735e-19 0.000450438 0.000447888 0 -3.35747e-08)
(-3.15544e-30 -4.0839e-19 -1.15855e-20 -1.00719e-12 -0.000137751 0.000450581 0 -2.69323e-05 4.04501e-08)
(0 5.42425e-19 0 -45.6386 7.28405e-05 0.000513692 1.08935 3.91102e-05 -4.96584e-08)
(0 -1.23224e-18 0 -45.6222 2.53e-19 0.000513849 1.08872 0 4.20215e-08)
(0 -2.60917e-18 -1.12558e-20 -73.7366 3.36324e-20 0.000567941 2.22472 0 -3.49419e-08)
(0 -4.08023e-19 0 -73.7227 -0.000220614 0.00056805 2.22416 -2.5993e-05 4.35785e-08)
(0 5.4363e-19 0 -96.3653 -3.43577e-05 0.000604634 3.20118 3.2985e-05 -5.34061e-08)
(1.13241e-13 0 0 -96.354 -1.76183e-19 0.000604755 3.20071 3.38813e-21 4.36872e-08)
(-3.33545e-14 0 0 -113.21 5.42101e-20 0.000615926 3.9893 -3.38813e-21 -3.53121e-08)
(6.67092e-14 0 0 -113.202 -0.000305931 0.000616007 3.98892 -2.8914e-05 4.6152e-08)
(1.62778e-14 -4.06897e-19 0 -124.458 -0.000128084 0.000593045 4.57841 2.35676e-05 -5.71401e-08)
(2.26046e-14 0 0 -124.452 0 0.000593139 4.57813 0 4.48162e-08)
(0 -4.00977e-18 0 -130.708 2.26213e-19 0.000532851 4.9756 0 -3.47373e-08)
(-8.57905e-14 -1.38115e-19 0 -130.704 -0.000316643 0.000532914 4.97541 -3.54227e-05 4.83419e-08)
(-1.54849e-14 -1.08385e-18 -2.0944e-20 -132.855 -0.000109299 0.000434662 5.20268 1.36304e-05 -6.11439e-08)
(6.19398e-14 0 0 -132.853 1.14606e-21 0.00043474 5.20257 8.47033e-22 4.55796e-08)
(0 -2.44528e-18 0 -131.964 -2.98156e-19 0.000302837 5.29217 0 -3.32576e-08)
(0 -3.40622e-19 0 -131.964 -0.000233442 0.00030289 5.29212 -4.13057e-05 5.03387e-08)
(0 -4.06322e-19 2.30798e-19 -129.145 2.73458e-06 0.000127925 5.28319 6.96364e-06 -6.57159e-08)
(0 -1.11473e-21 0 -129.145 -5.48427e-20 0.000127643 5.28318 -4.01624e-06 4.61395e-08)
(-1.43873e-14 1.60996e-34 0 -125.42 5.87837e-19 -9.32798e-06 5.2163 -6.77626e-21 -3.08156e-08)
(0 0 -1.01658e-37 -125.42 -5.87686e-05 -3.66262e-22 5.21631 -4.27464e-05 0)
(-2.80872e-14 -1.49254e-18 1.97688e-20 -121.636 0.000172258 -0.00019605 5.12848 7.59954e-06 -7.11057e-08)
(1.12349e-13 -7.21163e-22 0 -121.636 -2.71051e-20 -0.000195989 5.1285 -5.19652e-06 4.65804e-08)
(0 -5.31824e-21 0 -118.414 2.65218e-19 -0.000349529 5.05014 0 -2.7207e-08)
(0 -4.09195e-19 -1.94855e-20 -118.414 0.000112877 -0.000349486 5.05015 -3.70995e-05 5.41362e-08)
(-2.01391e-14 5.42275e-19 -1.92062e-20 -116.129 0.00028779 -0.000474868 5.00313 1.59057e-05 -7.75182e-08)
(-2.01391e-14 -1.4419e-19 0 -116.128 -5.42101e-20 -0.000474818 5.00311 -1.05879e-22 4.6895e-08)
(-3.90508e-14 1.11343e-34 0 -114.92 2.0163e-19 -0.000563095 4.99985 3.37318e-36 -2.20975e-08)
(1.04136e-13 1.62569e-18 0 -114.919 0.000189651 -0.000563063 4.9998 -2.62956e-05 5.58464e-08)
(0 -1.62572e-18 0 -114.717 0.000292959 -0.000610954 5.04327 2.82639e-05 -8.51443e-08)
(1.01288e-13 0 0 -114.715 1.68444e-19 -0.00061092 5.0432 4.14043e-33 4.7007e-08)
(-1.22934e-14 0 0 -115.291 1.23642e-19 -0.000619302 5.12817 7.7171e-37 -1.50728e-08)
(-1.92856e-14 -6.77061e-19 0 -115.289 0.000150653 -0.000619284 5.12808 -1.49424e-05 5.72586e-08)
(-7.09553e-15 -1.62704e-18 0 -116.311 0.000206164 -0.000593516 5.24305 3.97958e-05 -9.42335e-08)
(1.14318e-13 0 0 -116.308 0 -0.0005935 5.24293 0 4.68306e-08)
(0 -3.85186e-34 0 -117.394 5.13508e-21 -0.000540947 5.37208 -1.69407e-21 -5.68552e-09)
(4.60919e-14 1.08427e-18 0 -117.391 5.06289e-05 -0.000540946 5.37196 -7.21291e-06 5.82485e-08)
(1.11241e-14 -4.0509e-19 0 -118.172 7.95669e-05 -0.000472038 5.49767 4.77379e-05 -1.05167e-07)
(0 0 0 -118.169 -1.28749e-19 -0.00047204 5.49755 -5.62175e-35 4.63333e-08)
(2.14413e-14 -1.03062e-19 0 -118.325 -3.04113e-19 -0.000395243 5.60303 0 6.53565e-09)
(2.46792e-14 -4.06336e-19 0 -118.323 -4.50652e-05 -0.000395257 5.60291 -5.19775e-06 5.87497e-08)
(0 5.41147e-19 0 -117.614 -5.61054e-06 -0.000318576 5.67345 5.22289e-05 -1.18477e-07)
(-1.79426e-14 0 -4.27784e-21 -117.613 -1.19987e-20 -0.000318592 5.67335 -3.38813e-21 4.55722e-08)
(8.8427e-15 -9.2038e-19 0 -115.9 -1.35069e-19 -0.000247571 5.69793 0 2.21107e-08)
(3.96738e-14 5.42087e-19 0 -115.899 -9.82576e-05 -0.000247596 5.69785 -7.2331e-06 5.87526e-08)
(1.90577e-14 -5.40292e-19 0 -113.149 -3.96621e-05 -0.00018615 5.67025 5.53117e-05 -1.34863e-07)
(0 9.62965e-35 0 -113.148 -1.0842e-19 -0.000125922 5.67021 3.38813e-21 4.47013e-08)
(9.15227e-15 -1.28726e-18 0 -109.425 -1.94703e-19 -0.000135514 5.58911 0 4.16465e-08)
(3.66091e-14 1.08404e-18 2.04826e-21 -109.425 -0.00010244 -1.64371e-05 5.58909 -1.10038e-05 1.56819e-06)
(0 -1.08415e-18 -4.03781e-21 -104.875 -3.50024e-05 -9.59303e-05 5.45765 5.95674e-05 -1.55144e-07)
(3.51672e-14 3.85186e-34 5.59242e-21 -104.875 -5.96551e-20 4.32517e-06 5.45767 3.41482e-34 2.49624e-07)
(-8.4494e-15 -3.01915e-19 0 -99.7122 0 -6.61556e-05 5.28334 -6.77626e-21 6.58755e-08)
(-3.37976e-14 4.06949e-19 -2.18675e-21 -99.7133 -8.30811e-05 4.26222e-06 5.28338 -1.46146e-05 1.9289e-07)
(-2.45795e-14 -9.80724e-22 -9.80724e-22 -94.1955 -1.48825e-05 -2.30278e-05 5.07714 6.65101e-05 -1.80328e-07)
(0 0 9.80724e-22 -94.1969 -6.09864e-20 4.15036e-06 5.07721 3.75644e-35 2.45058e-07)
(-7.82023e-15 -4.25372e-20 0 -88.6027 -2.84603e-19 1.46428e-06 4.85225 0 6.70348e-07)
(-3.12809e-14 1.363e-19 -2.9008e-21 -88.6042 -6.15783e-05 4.08246e-06 4.85233 -1.72151e-05 1.91225e-07)
(0 -4.06375e-19 -9.52813e-22 -83.2164 2.68227e-06 6.01413e-06 4.6233 7.66709e-05 6.20066e-07)
(0 -9.62965e-35 1.90563e-21 -83.2179 5.53826e-21 3.92488e-06 4.62339 1.69407e-21 2.35012e-07)
(0 -1.91469e-19 0 -78.3088 0 6.12778e-06 4.40562 0 1.37357e-06)
(6.59237e-14 5.41893e-19 6.88864e-21 -78.31 -4.41326e-05 3.8601e-06 4.4057 -1.88466e-05 1.89643e-07)
(-6.98978e-15 6.77841e-19 9.25696e-22 -74.1295 1.4389e-05 5.99347e-06 4.21451 8.90201e-05 1.15129e-06)
(2.79591e-14 0 2.1024e-21 -74.1302 0 3.65977e-06 4.21456 1.69407e-21 2.19357e-07)
(-7.65401e-15 0 3.64971e-21 -70.897 -4.06576e-19 9.51368e-06 4.06447 -2.85578e-34 1.70131e-06)