/*--------------------------------*- C++ -*----------------------------------*\
| =========                 |                                                 |
| \\      /  F ield         | OpenFOAM: The Open Source CFD Toolbox           |
|  \\    /   O peration     | Version:  2012                                  |
|   \\  /    A nd           | Website:  www.openfoam.com                      |
|    \\/     M anipulation  |                                                 |
\*---------------------------------------------------------------------------*/
FoamFile
{
    version     2.0;
    format      ascii;
    class       volScalarField;
    location    "13100";
    object      p;
}
// * * * * * * * * * * * * * * * * * * * * * * * * * * * * * * * * * * * * * //

dimensions      [0 2 -2 0 0 0 0];


internalField   nonuniform List<scalar> 
2560
(
2.48658e-08
-1.19895
-3.70221e-05
-1.19898
-3.92056e-05
-1.19899
-3.07649e-05
-1.19899
-2.84378e-05
-1.19899
-2.78961e-05
-1.19899
-2.71516e-05
-1.19899
-2.69628e-05
-1.19899
-2.61267e-05
-1.19899
-2.60502e-05
-1.19899
-2.50853e-05
-1.19899
-2.50912e-05
-1.19899
-2.75709e-05
-1.19899
-3.90562e-05
-1.19827
-9.07989e-05
-1.19911
-0.000175224
-1.19713
-0.000362716
-1.19967
-0.00056957
-1.19968
-0.000832098
-1.20055
-0.00106108
-1.20057
-0.00134761
-1.20152
-0.00157685
-1.20154
-0.0018712
-1.20253
-0.00209386
-1.19931
-0.00247094
-1.2038
-0.00283251
-1.1993
-0.00346057
-1.20576
-0.00405007
-1.20581
-0.0049164
-1.20829
-0.00561687
-1.20842
-0.00657656
-1.21109
-0.00722165
-1.21121
-0.00814543
-1.21384
-0.0086223
-1.2139
-0.00949413
-1.21642
-0.00986682
-1.21027
-0.0108934
-1.21928
-0.0114179
-1.19316
-0.0128975
-1.22363
-0.0138105
-1.18962
-0.0158965
-1.23009
-0.0172437
-1.20414
-0.0198595
-1.23838
-0.0214817
-1.22932
-0.0244132
-1.24763
-0.0261079
-1.24613
-0.0292223
-1.25728
-0.0309261
-1.252
-0.0342948
-1.26745
-0.0361908
-1.18561
-0.0401552
-1.28066
-0.0431796
-1.22145
-0.0495581
-1.29886
-0.0572957
-1.30028
-0.0714688
-1.32964
-0.0913393
-1.33593
-0.121477
-1.38899
-0.160655
-1.40399
-0.209935
-1.48748
-0.265314
-1.51116
-0.32263
-1.61098
-0.376234
-1.63608
-0.419396
-1.71913
-0.449609
-1.73473
-0.462109
-1.77341
-0.460816
-1.77173
-0.443988
-1.73158
-0.420161
-1.72032
-0.388097
-1.66041
-0.356861
-1.64683
-0.323477
-1.58762
-0.295241
-1.57549
-0.267498
-0.26385
-0.245698
-0.250794
-0.22485
-0.221335
-0.209221
-0.212158
-0.194316
-0.190853
-0.183772
-0.184458
-0.1737
-0.170245
-0.167226
-0.166092
-0.160964
-0.157495
-0.157605
-0.155083
-0.154132
-0.150648
-0.152901
-0.14947
-0.151295
-0.147803
-0.151494
-0.147452
-0.151438
-0.147777
-0.152792
-0.149094
-0.154311
-0.150658
-0.15743
-0.153748
-0.161174
-0.157533
-0.166807
-0.163144
-0.173461
-0.169836
-0.182114
-0.178473
-0.191855
-0.18825
-0.203328
-0.199713
-0.215543
-0.211961
-0.22885
-0.225263
-0.242266
-0.23871
-0.256005
-0.252448
-0.269214
-0.265686
-0.282129
-0.278603
-0.29411
-0.290612
-0.305486
-0.301992
-0.31584
-0.312372
-0.325565
-0.322102
-0.334394
-0.330957
-0.342724
-0.339294
-0.35036
-0.346953
-0.357656
-0.354259
-0.364453
-0.361079
-0.371063
-0.3677
-0.377369
-0.374029
-0.383662
-0.380334
-0.389873
-0.386569
-0.3963
-0.393011
-0.402905
-0.39964
-0.409947
-0.4067
-0.417407
-0.414185
-0.425508
-0.422307
-0.43424
-0.431066
-0.44382
-0.440668
-0.454283
-0.451159
-0.465893
-0.462795
-0.478786
-0.475717
-0.493314
-0.490272
-0.509726
-0.506714
-0.528432
-0.525449
-0.549721
-0.546768
-0.573943
-0.571018
-0.601252
-0.598358
-0.631764
-0.628899
-0.665313
-0.662478
-0.701602
-0.698795
-0.740034
-0.737257
-0.779891
-0.777142
-0.820229
-0.817509
-0.86008
-0.857387
-0.898416
-0.895752
-0.934353
-0.931716
-0.967117
-0.964508
-0.9962
-0.993617
-1.02129
-1.01873
-1.04235
-1.03982
-1.05954
-1.05703
-1.07319
-1.07071
-1.08372
-1.08127
-1.09165
-1.08922
-1.09745
-1.09505
-1.1016
-1.09922
-1.10449
-1.10213
-1.10647
-1.10413
-1.10778
-1.10547
-1.10866
-1.10636
-1.10921
-1.10694
-1.10958
-1.10732
-1.1098
-1.10757
-1.10993
-1.10772
-1.11001
-1.10781
-1.11004
-1.10787
-1.11004
-1.10788
-1.11001
-1.10787
-1.10997
-1.10784
-1.10991
-1.1078
-1.10984
-1.10774
-1.10976
-1.10768
-1.10967
-1.10761
-1.10958
-1.10753
-1.10948
-1.10745
-1.10939
-1.10737
-1.1093
-1.10728
-1.10921
-1.10721
-1.10913
-1.10713
-1.10906
-1.10707
-1.109
-1.107
-1.10894
-1.10695
-1.1089
-1.10691
-1.10886
-1.10687
-1.10883
-1.10684
-1.1088
-1.10682
-1.10877
-1.10681
-1.10876
-1.1068
-1.10874
-1.10679
-1.10872
-1.10679
-1.10871
-1.10678
-1.10869
-1.10678
-1.10867
-1.10677
-1.10865
-1.10676
-1.10862
-1.10674
-1.10858
-1.10671
-1.10853
-1.10666
-1.10845
-1.10659
-1.10834
-1.10648
-1.10819
-1.10633
-1.10799
-1.10614
-1.10772
-1.10587
-1.10736
-1.10552
-1.1069
-1.10507
-1.10631
-1.10449
-1.10556
-1.10376
-1.10464
-1.10285
-1.1035
-1.10174
-1.10213
-1.1004
-1.1005
-1.09879
-1.09859
-1.09691
-1.09639
-1.09473
-1.09388
-1.09225
-1.09105
-1.08945
-1.08793
-1.08636
-1.08451
-1.08297
-1.08083
-1.07932
-1.0769
-1.07543
-1.07276
-1.07132
-1.06843
-1.06702
-1.06395
-1.06257
-1.05933
-1.05798
-1.05459
-1.05327
-1.04973
-1.04843
-1.04476
-1.04348
-1.03966
-1.03841
-1.03443
-1.0332
-1.02905
-1.02783
-1.02351
-1.0223
-1.0178
-1.0166
-1.01192
-1.01073
-1.00587
-1.00468
-0.999679
-0.99849
-0.993351
-0.992168
-0.986925
-0.985751
-0.980424
-0.979261
-0.973891
-0.972742
-0.967346
-0.96621
-0.960829
-0.959707
-0.954348
-0.953239
-0.947929
-0.946833
-0.941567
-0.940481
-0.935274
-0.934199
-0.929035
-0.927966
-0.922855
-0.921791
-0.916708
-0.915646
-0.910604
-0.909543
-0.904508
-0.903449
-0.898439
-0.897385
-0.892364
-0.891313
-0.886309
-0.885265
-0.880234
-0.879195
-0.874176
-0.873146
-0.868089
-0.867064
-0.862013
-0.860997
-0.855893
-0.854881
-0.849774
-0.848773
-0.843587
-0.842589
-0.837391
-0.836404
-0.831101
-0.830116
-0.824789
-0.823816
-0.818356
-0.817386
-0.811897
-0.810942
-0.805296
-0.804344
-0.798671
-0.797737
-0.791884
-0.790955
-0.785085
-0.784177
-0.778107
-0.777205
-0.771132
-0.770257
-0.763963
-0.763096
-0.756816
-0.755981
-0.749461
-0.748633
-0.742157
-0.741368
-0.734631
-0.733846
-0.727191
-0.726451
-0.719518
-0.71878
-0.711982
-0.711296
-0.704202
-0.703512
-0.696614
-0.695983
-0.688767
-0.688126
-0.681172
-0.680599
-0.673293
-0.672699
-0.665722
-0.665206
-0.657825
-0.657277
-0.650285
-0.649828
-0.642358
-0.641856
-0.63484
-0.634442
-0.626858
-0.626398
-0.619342
-0.619005
-0.611286
-0.610866
-0.603773
-0.603495
-0.595648
-0.595264
-0.588174
-0.587956
-0.580027
-0.579676
-0.572669
-0.572511
-0.564582
-0.564259
-0.557448
-0.557349
-0.549521
-0.549221
-0.542721
-0.542683
-0.53504
-0.534761
-0.528663
-0.528692
-0.521292
-0.521031
-0.515391
-0.515495
-0.50835
-0.508107
-0.50294
-0.503133
-0.496221
-0.495993
-0.491282
-0.491584
-0.484849
-0.484633
-0.480338
-0.48077
-0.47414
-0.47393
-0.469997
-0.47059
-0.46398
-0.463767
-0.460141
-0.460919
-0.454267
-0.45401
-0.4507
-0.451636
-0.445008
-0.444572
-0.441758
-0.44249
-0.436348
-0.430541
-0.433464
-0.428519
-0.428583
-0.422574
-0.426247
-0.420855
-0.422252
-0.415998
-0.420693
-0.414726
-0.417992
-0.411369
-0.417338
-0.410687
-0.416374
-0.409108
-1.20179
-0.000309523
-1.20182
-0.000346516
-1.20182
-0.000348622
-1.20183
-0.000339842
-1.20183
-0.00033695
-1.20183
-0.000336082
-1.20183
-0.000335348
-1.20183
-0.000335271
-1.20183
-0.00033466
-1.20183
-0.000334712
-1.20183
-0.000333825
-1.20183
-0.000333876
-1.20183
-0.000336395
-1.20111
-0.000348039
-1.20195
-0.000399718
-1.19997
-0.000484309
-1.20251
-0.00067163
-1.20252
-0.000878561
-1.20339
-0.00114097
-1.20341
-0.00137001
-1.20436
-0.00165644
-1.20437
-0.00188573
-1.20537
-0.00218001
-1.20215
-0.00240269
-1.20664
-0.00277971
-1.20213
-0.00314128
-1.2086
-0.00376929
-1.20865
-0.00435878
-1.21113
-0.00522507
-1.21125
-0.00592552
-1.21393
-0.00688516
-1.21404
-0.00753023
-1.21668
-0.00845396
-1.21673
-0.0089308
-1.21926
-0.00980258
-1.21311
-0.0101752
-1.22212
-0.0112017
-1.196
-0.0117262
-1.22646
-0.0132058
-1.19245
-0.0141187
-1.23293
-0.0162047
-1.20698
-0.0175518
-1.24122
-0.0201676
-1.23216
-0.0217897
-1.25046
-0.0247211
-1.24897
-0.0264158
-1.26011
-0.0295301
-1.25484
-0.0312338
-1.27029
-0.0346025
-1.18845
-0.0364985
-1.2835
-0.0404628
-1.22429
-0.0434871
-1.30169
-0.0498655
-1.30312
-0.0576031
-1.33248
-0.0717761
-1.33877
-0.0916465
-1.39183
-0.121785
-1.40682
-0.160962
-1.49032
-0.210242
-1.514
-0.265621
-1.61382
-0.322937
-1.63892
-0.376541
-1.72197
-0.419702
-1.73757
-0.449916
-1.77625
-0.462415
-1.77457
-0.461122
-1.73441
-0.444295
-1.72315
-0.420467
-1.66325
-0.388403
-1.64967
-0.357167
-1.59046
-0.323783
-1.57833
-0.295548
-0.266688
-0.267804
-0.253631
-0.246004
-0.224172
-0.225156
-0.214995
-0.209527
-0.19369
-0.194622
-0.187295
-0.184078
-0.173082
-0.174006
-0.168929
-0.167532
-0.160333
-0.161269
-0.15792
-0.15791
-0.153485
-0.154438
-0.152307
-0.153206
-0.15064
-0.151601
-0.150289
-0.151799
-0.150614
-0.151744
-0.151931
-0.153098
-0.153495
-0.154617
-0.156585
-0.157736
-0.16037
-0.16148
-0.165981
-0.167113
-0.172673
-0.173767
-0.181311
-0.18242
-0.191087
-0.192161
-0.20255
-0.203633
-0.214799
-0.215849
-0.228101
-0.229156
-0.241547
-0.242571
-0.255285
-0.25631
-0.268523
-0.269519
-0.28144
-0.282434
-0.293449
-0.294415
-0.304829
-0.305791
-0.31521
-0.316145
-0.32494
-0.325869
-0.333794
-0.334699
-0.342131
-0.343029
-0.349791
-0.350665
-0.357097
-0.357961
-0.363917
-0.364758
-0.370537
-0.371367
-0.376867
-0.377674
-0.383172
-0.383966
-0.389407
-0.390178
-0.395849
-0.396604
-0.402479
-0.40321
-0.409537
-0.410251
-0.417024
-0.417711
-0.425144
-0.425812
-0.433905
-0.434545
-0.443505
-0.444124
-0.453999
-0.454587
-0.465632
-0.466197
-0.478557
-0.47909
-0.493109
-0.493618
-0.509555
-0.510031
-0.528285
-0.528735
-0.549608
-0.550025
-0.573855
-0.574246
-0.6012
-0.601556
-0.631735
-0.632067
-0.66532
-0.665617
-0.70163
-0.701904
-0.7401
-0.740338
-0.779977
-0.780194
-0.820353
-0.820533
-0.860221
-0.860382
-0.898597
-0.89872
-0.934549
-0.934655
-0.967355
-0.967422
-0.996449
-0.996501
-1.02158
-1.02159
-1.04265
-1.04266
-1.05988
-1.05984
-1.07354
-1.07349
-1.08412
-1.08403
-1.09205
-1.09195
-1.0979
-1.09775
-1.10204
-1.1019
-1.10499
-1.10479
-1.10695
-1.10677
-1.10833
-1.10809
-1.10918
-1.10896
-1.10981
-1.10952
-1.11013
-1.10988
-1.11044
-1.1101
-1.11054
-1.11023
-1.11069
-1.11031
-1.11073
-1.11034
-1.11077
-1.11034
-1.11076
-1.11031
-1.11071
-1.11027
-1.11069
-1.11021
-1.11059
-1.11014
-1.11056
-1.11006
-1.11044
-1.10997
-1.11041
-1.10988
-1.11028
-1.10978
-1.11024
-1.10969
-1.11012
-1.1096
-1.11008
-1.10951
-1.10997
-1.10943
-1.10993
-1.10936
-1.10984
-1.1093
-1.10981
-1.10925
-1.10975
-1.1092
-1.10973
-1.10916
-1.10969
-1.10913
-1.10968
-1.1091
-1.10966
-1.10907
-1.10965
-1.10905
-1.10964
-1.10904
-1.10964
-1.10902
-1.10963
-1.10901
-1.10963
-1.10899
-1.10962
-1.10897
-1.10961
-1.10895
-1.10957
-1.10892
-1.10955
-1.10888
-1.10947
-1.10883
-1.10943
-1.10875
-1.10929
-1.10864
-1.10917
-1.10849
-1.10894
-1.10829
-1.10871
-1.10802
-1.10833
-1.10766
-1.10791
-1.1072
-1.1073
-1.10661
-1.1066
-1.10586
-1.10567
-1.10493
-1.10457
-1.1038
-1.10321
-1.10243
-1.10162
-1.1008
-1.09973
-1.09889
-1.09756
-1.09668
-1.09507
-1.09417
-1.09228
-1.09134
-1.08918
-1.08822
-1.0858
-1.0848
-1.08215
-1.08112
-1.07826
-1.07719
-1.07415
-1.07305
-1.06985
-1.06872
-1.0654
-1.06424
-1.06081
-1.05961
-1.0561
-1.05488
-1.05126
-1.05001
-1.04632
-1.04505
-1.04124
-1.03993
-1.03604
-1.03472
-1.03066
-1.02932
-1.02515
-1.0238
-1.01943
-1.01807
-1.01357
-1.01221
-1.00751
-1.00614
-1.00134
-0.999973
-0.994993
-0.993619
-0.988602
-0.98722
-0.982085
-0.980689
-0.975596
-0.974188
-0.969033
-0.967608
-0.962564
-0.961126
-0.956062
-0.954606
-0.949695
-0.948227
-0.943302
-0.941821
-0.937064
-0.935574
-0.930785
-0.929285
-0.924659
-0.923156
-0.918462
-0.916955
-0.912415
-0.910908
-0.906262
-0.904752
-0.90026
-0.898747
-0.894123
-0.892604
-0.888144
-0.886619
-0.882002
-0.880469
-0.87603
-0.87449
-0.869867
-0.868318
-0.863887
-0.862329
-0.857682
-0.856116
-0.851667
-0.850094
-0.845386
-0.843805
-0.839304
-0.837715
-0.832909
-0.831312
-0.826723
-0.825116
-0.820176
-0.81856
-0.813856
-0.812228
-0.80713
-0.805491
-0.800659
-0.799005
-0.793738
-0.79207
-0.787108
-0.785422
-0.779987
-0.778283
-0.773198
-0.771471
-0.765876
-0.764128
-0.758933
-0.757157
-0.751413
-0.749612
-0.744332
-0.742498
-0.736628
-0.734766
-0.729429
-0.72753
-0.721566
-0.719638
-0.714288
-0.712319
-0.706302
-0.704304
-0.69899
-0.696948
-0.690922
-0.688851
-0.68362
-0.681502
-0.675503
-0.673359
-0.668242
-0.666047
-0.66009
-0.657871
-0.652877
-0.650604
-0.64468
-0.642386
-0.637503
-0.635153
-0.629235
-0.626867
-0.622077
-0.619647
-0.613719
-0.611276
-0.606577
-0.604069
-0.598135
-0.59562
-0.591044
-0.58846
-0.582566
-0.579983
-0.575602
-0.572944
-0.567172
-0.564523
-0.560441
-0.557711
-0.552161
-0.549448
-0.545772
-0.542969
-0.537733
-0.534954
-0.531774
-0.528894
-0.52404
-0.521192
-0.518567
-0.515601
-0.511161
-0.508235
-0.506191
-0.503125
-0.499102
-0.496086
-0.494624
-0.491438
-0.487811
-0.484689
-0.483788
-0.480461
-0.477192
-0.473949
-0.473579
-0.470086
-0.467132
-0.463753
-0.463884
-0.460197
-0.457532
-0.453996
-0.454638
-0.450728
-0.448376
-0.444675
-0.445897
-0.441743
-0.439797
-0.435923
-0.437886
-0.433435
-0.405322
-0.42803
-0.403625
-0.426091
-0.398855
-0.42169
-0.397593
-0.420409
-0.394312
-0.417433
-0.393637
-0.416926
-0.392112
-0.415849
-0.416376
-0.409103
-0.417352
-0.410671
-0.418004
-0.411349
-0.420714
-0.414698
-0.422266
-0.415964
-0.426264
-0.42081
-0.428592
-0.422511
-0.433473
-0.428425
-0.436353
-0.430416
-0.441785
-0.442793
-0.44505
-0.444975
-0.450754
-0.451961
-0.454313
-0.454277
-0.460185
-0.461155
-0.464018
-0.463995
-0.470034
-0.470807
-0.474175
-0.474151
-0.480375
-0.480983
-0.484885
-0.484851
-0.491321
-0.491795
-0.49626
-0.496209
-0.502979
-0.503341
-0.50839
-0.508321
-0.515428
-0.515699
-0.521331
-0.521242
-0.528705
-0.528898
-0.535081
-0.534971
-0.542764
-0.542889
-0.549565
-0.549432
-0.557488
-0.55755
-0.564629
-0.56447
-0.572714
-0.572715
-0.580078
-0.579889
-0.588219
-0.588159
-0.595701
-0.595478
-0.603819
-0.603696
-0.611334
-0.611071
-0.619392
-0.619207
-0.626907
-0.626601
-0.634893
-0.634645
-0.642411
-0.642059
-0.650339
-0.650029
-0.65788
-0.65748
-0.665779
-0.665408
-0.673348
-0.672898
-0.681231
-0.680799
-0.688824
-0.688323
-0.696672
-0.696179
-0.704261
-0.703708
-0.712043
-0.711492
-0.719577
-0.718973
-0.727257
-0.726649
-0.734696
-0.734042
-0.742217
-0.741557
-0.749528
-0.748828
-0.756881
-0.756173
-0.764033
-0.763292
-0.771198
-0.770449
-0.778173
-0.777397
-0.785149
-0.784365
-0.791959
-0.791153
-0.79874
-0.797928
-0.805369
-0.80454
-0.811968
-0.811134
-0.81843
-0.817582
-0.824857
-0.824005
-0.831167
-0.830303
-0.837465
-0.836598
-0.843659
-0.842781
-0.849851
-0.848969
-0.855962
-0.85507
-0.86208
-0.861183
-0.86816
-0.867254
-0.874244
-0.873332
-0.880303
-0.879382
-0.886378
-0.885453
-0.892439
-0.891506
-0.898517
-0.89758
-0.904589
-0.903647
-0.910682
-0.909739
-0.916782
-0.915838
-0.92293
-0.921985
-0.929106
-0.928155
-0.935346
-0.934388
-0.941644
-0.940676
-0.948
-0.947021
-0.954416
-0.953423
-0.960908
-0.959901
-0.967423
-0.966401
-0.973959
-0.972923
-0.980499
-0.97945
-0.986999
-0.985938
-0.993422
-0.992351
-0.999752
-0.998675
-1.00596
-1.00488
-1.012
-1.01092
-1.01787
-1.01679
-1.02359
-1.0225
-1.02913
-1.02802
-1.0345
-1.03338
-1.03973
-1.03859
-1.04484
-1.04368
-1.04981
-1.04862
-1.05467
-1.05346
-1.05942
-1.05817
-1.06404
-1.06276
-1.06851
-1.0672
-1.07285
-1.07151
-1.07698
-1.07561
-1.08091
-1.0795
-1.08459
-1.08315
-1.08801
-1.08654
-1.09114
-1.08963
-1.09397
-1.09243
-1.09648
-1.09491
-1.09868
-1.09708
-1.10059
-1.09897
-1.10223
-1.10057
-1.10359
-1.10192
-1.10473
-1.10303
-1.10566
-1.10394
-1.1064
-1.10467
-1.107
-1.10524
-1.10746
-1.1057
-1.10782
-1.10605
-1.10809
-1.10631
-1.10829
-1.10651
-1.10844
-1.10665
-1.10854
-1.10676
-1.10862
-1.10683
-1.10868
-1.10688
-1.10872
-1.10692
-1.10875
-1.10694
-1.10877
-1.10695
-1.10879
-1.10695
-1.10881
-1.10696
-1.10882
-1.10696
-1.10884
-1.10696
-1.10885
-1.10697
-1.10887
-1.10698
-1.1089
-1.10699
-1.10893
-1.10702
-1.10896
-1.10704
-1.109
-1.10708
-1.10904
-1.10712
-1.1091
-1.10718
-1.10916
-1.10723
-1.10923
-1.10731
-1.10931
-1.10737
-1.1094
-1.10746
-1.10949
-1.10753
-1.10959
-1.10762
-1.10967
-1.1077
-1.10977
-1.10778
-1.10985
-1.10785
-1.10994
-1.10792
-1.11001
-1.10797
-1.11007
-1.10801
-1.11011
-1.10803
-1.11015
-1.10806
-1.11014
-1.10803
-1.11012
-1.10798
-1.11003
-1.10788
-1.10991
-1.10774
-1.10967
-1.10748
-1.10933
-1.10711
-1.10876
-1.10652
-1.1079
-1.10564
-1.10657
-1.10429
-1.10461
-1.10231
-1.10169
-1.09936
-1.09758
-1.09522
-1.09174
-1.08936
-1.08383
-1.08143
-1.0733
-1.07087
-1.05962
-1.05717
-1.04239
-1.0399
-1.02139
-1.01888
-0.996417
-0.993876
-0.967113
-0.964544
-0.934442
-0.931844
-0.898503
-0.895877
-0.86027
-0.857614
-0.820401
-0.817716
-0.780181
-0.777466
-0.740312
-0.737568
-0.701639
-0.698864
-0.665393
-0.662588
-0.632033
-0.629196
-0.6013
-0.598433
-0.573941
-0.571042
-0.549884
-0.546955
-0.52862
-0.525658
-0.509903
-0.506912
-0.493402
-0.490379
-0.478947
-0.475897
-0.466048
-0.462967
-0.454432
-0.451325
-0.443909
-0.440772
-0.434397
-0.431236
-0.425675
-0.422485
-0.417498
-0.414287
-0.410114
-0.406876
-0.403069
-0.399813
-0.396423
-0.393142
-0.389976
-0.386679
-0.383795
-0.380474
-0.377469
-0.374134
-0.371184
-0.367825
-0.36462
-0.361249
-0.357746
-0.354351
-0.350494
-0.34709
-0.342886
-0.339456
-0.334488
-0.33105
-0.325697
-0.322234
-0.316051
-0.312581
-0.305608
-0.302111
-0.294163
-0.290662
-0.282296
-0.278766
-0.269344
-0.265812
-0.2561
-0.252536
-0.242368
-0.238807
-0.22898
-0.225385
-0.215745
-0.212156
-0.203409
-0.199784
-0.19207
-0.188457
-0.182283
-0.178631
-0.173639
-0.170005
-0.166996
-0.16332
-0.161316
-0.157665
-0.15754
-0.153844
-0.154442
-0.150778
-0.152919
-0.149206
-0.151594
-0.147922
-0.151626
-0.147597
-0.151384
-0.147945
-0.153022
-0.149614
-0.154226
-0.150796
-0.157742
-0.15521
-0.161041
-0.157627
-0.167387
-0.166305
-0.173846
-0.170447
-0.183892
-0.184675
-0.194498
-0.191092
-0.209432
-0.211665
-0.224863
-0.221403
-0.245814
-1.54439
-0.26746
-1.5532
-0.295445
-1.6036
-0.323636
-1.61514
-0.356641
-1.67474
-0.387926
-1.68818
-0.420523
-1.74905
-0.443817
-1.76024
-0.461005
-1.80054
-0.462278
-1.80225
-0.449551
-1.76368
-0.419883
-1.74804
-0.375722
-1.66432
-0.323102
-1.63961
-0.266083
-1.5393
-0.210174
-1.5156
-0.161117
-1.43173
-0.121616
-1.41676
-0.0916246
-1.36343
-0.0716379
-1.35719
-0.0575158
-1.32762
-0.0497622
-1.3262
-0.0432269
-1.23078
-0.0402646
-1.30761
-0.0363175
-1.22113
-0.0344736
-1.29464
-0.0310435
-1.2756
-0.0293153
-1.28433
-0.0262499
-1.27476
-0.0245408
-1.27475
-0.0215964
-1.25578
-0.019973
-1.2655
-0.0173682
-1.23341
-0.0160318
-1.25725
-0.0139101
-1.21457
-0.01302
-1.25073
-0.0115293
-1.22145
-0.0110271
-1.24642
-0.00997252
-1.23661
-0.00962316
-1.24354
-0.00873724
-1.24102
-0.00826397
-1.24096
-0.00733453
-1.23835
-0.00670577
-1.23823
-0.00575366
-1.23558
-0.00504588
-1.23545
-0.00416421
-1.23297
-0.00358084
-1.23291
-0.00295192
-1.22666
-0.00258286
-1.23096
-0.00221292
-1.22649
-0.00198994
-1.22969
-0.00169329
-1.22869
-0.00146919
-1.22868
-0.00118621
-1.22773
-0.000954951
-1.22771
-0.000688795
-1.22683
-0.000485402
-1.22682
-0.000298847
-1.22428
-0.000211901
-1.22626
-0.000159882
-1.2254
-0.000148239
-1.22614
-0.000145845
-1.22614
-0.000145869
-1.22614
-0.000146875
-1.22614
-0.000146929
-1.22614
-0.000147766
-1.22614
-0.000147921
-1.22614
-0.000148733
-1.22614
-0.000149357
-1.22614
-0.000151896
-1.22613
-0.000160578
-1.22613
-0.000158388
-1.22612
-0.000121073
-1.2261
-0.392111
-0.41585
-0.393632
-0.416925
-0.394304
-0.417432
-0.397581
-0.420404
-0.398837
-0.421682
-0.403601
-0.426076
-0.405292
-0.428014
-0.437816
-0.433412
-0.439731
-0.435902
-0.445837
-0.44173
-0.448319
-0.444673
-0.454581
-0.450729
-0.457472
-0.453996
-0.463823
-0.460194
-0.467069
-0.463746
-0.473512
-0.470076
-0.477123
-0.473939
-0.483717
-0.480449
-0.487737
-0.484676
-0.494551
-0.491426
-0.499027
-0.496072
-0.506114
-0.503109
-0.511081
-0.508218
-0.518485
-0.515581
-0.523957
-0.521172
-0.531694
-0.528877
-0.537648
-0.534933
-0.54569
-0.542951
-0.552078
-0.549429
-0.560354
-0.557688
-0.56709
-0.564506
-0.575518
-0.572926
-0.582486
-0.579968
-0.590959
-0.588441
-0.598055
-0.595607
-0.606489
-0.604049
-0.613631
-0.611257
-0.62199
-0.61963
-0.629145
-0.626847
-0.637417
-0.635138
-0.644591
-0.642369
-0.652789
-0.650589
-0.660001
-0.657856
-0.668154
-0.666034
-0.675411
-0.673342
-0.683532
-0.68149
-0.690829
-0.688835
-0.698898
-0.696933
-0.706208
-0.704289
-0.714196
-0.712306
-0.72147
-0.719622
-0.729339
-0.727521
-0.736535
-0.734755
-0.744234
-0.742482
-0.75132
-0.749602
-0.758837
-0.757145
-0.765784
-0.76412
-0.773101
-0.77146
-0.77989
-0.778272
-0.787008
-0.785408
-0.793648
-0.792068
-0.800562
-0.798996
-0.807038
-0.805487
-0.81376
-0.81222
-0.820083
-0.818555
-0.826624
-0.825105
-0.832808
-0.831299
-0.83921
-0.83771
-0.84529
-0.843798
-0.851575
-0.850092
-0.857582
-0.856106
-0.863784
-0.862317
-0.869769
-0.86831
-0.875927
-0.874477
-0.8819
-0.880458
-0.888043
-0.886609
-0.894027
-0.892599
-0.900166
-0.898745
-0.906171
-0.904753
-0.912321
-0.910906
-0.918365
-0.916949
-0.924563
-0.923152
-0.930684
-0.929277
-0.936963
-0.935565
-0.943208
-0.941819
-0.949592
-0.948218
-0.955956
-0.954594
-0.962469
-0.961125
-0.968935
-0.967604
-0.975487
-0.974174
-0.981985
-0.980683
-0.988499
-0.987214
-0.994888
-0.993609
-1.00123
-0.999965
-1.00742
-1.00615
-1.01348
-1.01221
-1.01933
-1.01806
-1.02505
-1.0238
-1.03056
-1.02932
-1.03593
-1.03471
-1.04113
-1.03993
-1.04623
-1.04505
-1.05116
-1.05001
-1.056
-1.05488
-1.06071
-1.05962
-1.0653
-1.06425
-1.06975
-1.06871
-1.07405
-1.07306
-1.07815
-1.07719
-1.08204
-1.08112
-1.08569
-1.0848
-1.08907
-1.08823
-1.09217
-1.09134
-1.09496
-1.09418
-1.09745
-1.09669
-1.09961
-1.0989
-1.10151
-1.1008
-1.1031
-1.10244
-1.10446
-1.1038
-1.10555
-1.10494
-1.10649
-1.10587
-1.10719
-1.10662
-1.1078
-1.10721
-1.10822
-1.10767
-1.1086
-1.10803
-1.10883
-1.1083
-1.10906
-1.1085
-1.10917
-1.10865
-1.10932
-1.10876
-1.10936
-1.10884
-1.10944
-1.10889
-1.10946
-1.10893
-1.1095
-1.10896
-1.10951
-1.10898
-1.10952
-1.109
-1.10952
-1.10902
-1.10953
-1.10903
-1.10953
-1.10905
-1.10954
-1.10907
-1.10955
-1.10909
-1.10957
-1.10911
-1.10958
-1.10914
-1.10962
-1.10917
-1.10964
-1.10921
-1.10971
-1.10926
-1.10973
-1.10931
-1.10982
-1.10937
-1.10986
-1.10945
-1.10997
-1.10952
-1.11
-1.10961
-1.11013
-1.1097
-1.11017
-1.1098
-1.1103
-1.10989
-1.11034
-1.10998
-1.11045
-1.11007
-1.11049
-1.11015
-1.11058
-1.11022
-1.1106
-1.11028
-1.11066
-1.11032
-1.11066
-1.11036
-1.11062
-1.11035
-1.11059
-1.11033
-1.11043
-1.11025
-1.11033
-1.11012
-1.10999
-1.10989
-1.1097
-1.10954
-1.10903
-1.10897
-1.10822
-1.10812
-1.10681
-1.10678
-1.10488
-1.10483
-1.10188
-1.1019
-1.09779
-1.09779
-1.09189
-1.09195
-1.084
-1.08405
-1.0734
-1.07351
-1.05973
-1.05984
-1.04243
-1.0426
-1.02144
-1.0216
-0.996414
-0.996628
-0.967102
-0.967328
-0.934384
-0.934653
-0.898433
-0.898718
-0.860155
-0.860482
-0.820271
-0.820615
-0.780008
-0.780392
-0.740121
-0.740526
-0.701407
-0.701851
-0.66514
-0.665607
-0.63174
-0.632244
-0.600985
-0.601514
-0.573587
-0.574153
-0.549506
-0.550097
-0.528204
-0.528831
-0.509463
-0.510116
-0.492926
-0.493613
-0.478447
-0.47916
-0.465514
-0.46626
-0.453875
-0.454645
-0.443319
-0.444121
-0.433786
-0.434609
-0.425033
-0.425886
-0.416838
-0.41771
-0.409424
-0.410325
-0.402363
-0.403281
-0.39569
-0.396634
-0.389229
-0.390188
-0.383022
-0.384006
-0.376683
-0.37768
-0.370374
-0.371395
-0.363799
-0.364831
-0.3569
-0.357957
-0.34964
-0.350705
-0.342005
-0.343096
-0.3336
-0.334699
-0.324783
-0.325908
-0.315131
-0.316261
-0.30466
-0.305818
-0.293211
-0.294373
-0.281315
-0.282507
-0.268362
-0.269555
-0.255086
-0.25631
-0.241357
-0.242578
-0.227935
-0.22919
-0.214706
-0.215955
-0.202334
-0.203619
-0.191007
-0.19228
-0.181181
-0.182492
-0.172555
-0.173849
-0.16587
-0.167205
-0.160215
-0.161526
-0.156394
-0.15775
-0.153328
-0.154652
-0.151756
-0.153128
-0.150472
-0.151804
-0.150148
-0.151835
-0.150496
-0.151602
-0.152165
-0.153232
-0.153347
-0.154444
-0.157761
-0.157952
-0.160178
-0.161259
-0.168856
-0.167596
-0.172998
-0.174065
-0.187226
-0.184101
-0.193643
-0.194716
-0.214803
-0.209641
-0.223956
-0.225082
-0.253315
-0.246022
-0.26641
-0.267666
-1.61069
-0.295661
-1.62282
-0.323843
-1.68183
-0.356856
-1.69528
-0.388134
-1.75614
-0.420737
-1.76734
-0.444025
-1.80763
-0.461219
-1.80934
-0.462487
-1.77078
-0.449765
-1.75513
-0.420092
-1.67142
-0.375935
-1.6467
-0.323312
-1.54639
-0.266295
-1.5227
-0.210384
-1.43883
-0.16133
-1.42385
-0.121826
-1.37053
-0.0918367
-1.36428
-0.0718484
-1.33472
-0.0577278
-1.33329
-0.0499728
-1.23787
-0.0434388
-1.31471
-0.0404754
-1.22823
-0.0365293
-1.30174
-0.0346845
-1.28269
-0.0312551
-1.29142
-0.0295263
-1.28186
-0.0264614
-1.28185
-0.0247519
-1.26288
-0.0218079
-1.27259
-0.0201841
-1.2405
-0.0175796
-1.26434
-0.016243
-1.22166
-0.0141215
-1.25782
-0.0132311
-1.22854
-0.0117407
-1.25351
-0.0112382
-1.24371
-0.0101839
-1.25063
-0.00983456
-1.24812
-0.00894865
-1.24806
-0.00847535
-1.24544
-0.00754592
-1.24532
-0.00691714
-1.24267
-0.00596505
-1.24254
-0.00525724
-1.24006
-0.00437559
-1.24001
-0.00379219
-1.23376
-0.00316329
-1.23805
-0.00279421
-1.23359
-0.00242428
-1.23678
-0.00220128
-1.23578
-0.00190464
-1.23577
-0.00168053
-1.23482
-0.00139755
-1.2348
-0.00116628
-1.23392
-0.000900122
-1.23392
-0.00069673
-1.23138
-0.000510168
-1.23335
-0.000423225
-1.23249
-0.000371199
-1.23323
-0.000359556
-1.23323
-0.00035716
-1.23323
-0.000357183
-1.23323
-0.00035819
-1.23323
-0.000358244
-1.23323
-0.000359082
-1.23323
-0.000359237
-1.23323
-0.00036005
-1.23323
-0.000360675
-1.23323
-0.000363217
-1.23322
-0.00037191
-1.23322
-0.000369727
-1.23319
-0.000332405
)
;

boundaryField
{
    walls
    {
        type            zeroGradient;
    }
    inlet
    {
        type            cyclic;
    }
    outlet
    {
        type            cyclic;
    }
    sides
    {
        type            empty;
    }
}


// ************************************************************************* //
