/*--------------------------------*- C++ -*----------------------------------*\
| =========                 |                                                 |
| \\      /  F ield         | OpenFOAM: The Open Source CFD Toolbox           |
|  \\    /   O peration     | Version:  2012                                  |
|   \\  /    A nd           | Website:  www.openfoam.com                      |
|    \\/     M anipulation  |                                                 |
\*---------------------------------------------------------------------------*/
FoamFile
{
    version     2.0;
    format      ascii;
    class       surfaceScalarField;
    location    "8000";
    object      phi;
}
// * * * * * * * * * * * * * * * * * * * * * * * * * * * * * * * * * * * * * //

dimensions      [0 3 -1 0 0 0 0];
oriented        oriented;


internalField   nonuniform List<scalar> 
76
(
8.28029e-05
8.11092e-18
7.32201e-19
1.17764e-18
1.48228e-19
0.000807704
4.87519e-18
1.25759e-18
2.80561e-18
3.93123e-19
0.00307871
2.64264e-18
1.46402e-18
2.37577e-18
1.12086e-18
0.0104889
1.87418e-18
-1.69019e-18
1.86895e-18
-3.77376e-19
0.0355418
-4.39297e-18
-7.83933e-19
-8.10308e-19
-7.72493e-19
8.28029e-05
5.68289e-19
3.1352e-19
0.000807704
1.54172e-18
1.17419e-18
0.00307871
2.17056e-18
2.14217e-18
0.0104889
1.83403e-18
1.84016e-18
0.0355418
-7.38154e-19
-7.47006e-19
0.0355418
3.22456e-20
-8.10792e-19
3.69957e-20
-1.2717e-18
0.0104889
1.41052e-19
2.66921e-19
1.99472e-19
-2.96071e-19
0.00307871
-5.06074e-20
-1.0156e-19
4.98142e-20
-1.11515e-19
0.000807704
5.40153e-21
-2.41674e-20
-1.58733e-20
-2.02229e-20
8.28029e-05
-3.80347e-21
-1.76034e-21
0.0355418
3.62619e-20
2.36382e-20
0.0104889
-4.00767e-20
7.45632e-20
0.00307871
-1.03297e-19
-6.54096e-21
0.000807704
3.08565e-20
-1.69459e-20
8.28029e-05
)
;

boundaryField
{
    walls
    {
        type            calculated;
        value           uniform 0;
    }
    inlet
    {
        type            cyclic;
        value           nonuniform List<scalar> 
20
(
-8.28029e-05
-0.000807704
-0.00307871
-0.0104889
-0.0355418
-8.28029e-05
-0.000807704
-0.00307871
-0.0104889
-0.0355418
-0.0355418
-0.0104889
-0.00307871
-0.000807704
-8.28029e-05
-0.0355418
-0.0104889
-0.00307871
-0.000807704
-8.28029e-05
)
;
    }
    outlet
    {
        type            cyclic;
        value           nonuniform List<scalar> 
20
(
8.28029e-05
0.000807704
0.00307871
0.0104889
0.0355418
8.28029e-05
0.000807704
0.00307871
0.0104889
0.0355418
0.0355418
0.0104889
0.00307871
0.000807704
8.28029e-05
0.0355418
0.0104889
0.00307871
0.000807704
8.28029e-05
)
;
    }
    sides
    {
        type            empty;
        value           nonuniform List<scalar> 0();
    }
}


// ************************************************************************* //
