/*--------------------------------*- C++ -*----------------------------------*\
| =========                 |                                                 |
| \\      /  F ield         | OpenFOAM: The Open Source CFD Toolbox           |
|  \\    /   O peration     | Version:  2012                                  |
|   \\  /    A nd           | Website:  www.openfoam.com                      |
|    \\/     M anipulation  |                                                 |
\*---------------------------------------------------------------------------*/
FoamFile
{
    version     2.0;
    format      ascii;
    class       volVectorField;
    location    "8000";
    object      U;
}
// * * * * * * * * * * * * * * * * * * * * * * * * * * * * * * * * * * * * * //

dimensions      [0 1 -1 0 0 0 0];


internalField   nonuniform List<vector> 
40
(
(0.241428 5.07815e-16 1.77215e-15)
(0.241428 2.94623e-16 8.64379e-16)
(0.744724 3.05536e-15 1.72985e-15)
(0.744724 1.36897e-15 7.2494e-16)
(0.89766 1.12313e-15 1.15944e-15)
(0.89766 9.97878e-16 1.23164e-15)
(0.967108 1.08443e-15 5.53467e-16)
(0.967108 9.64167e-16 4.99122e-16)
(1.03629 -8.85259e-16 7.89367e-31)
(1.03629 -8.77161e-16 9.96532e-17)
(0.241428 1.75433e-16 -4.8165e-16)
(0.241428 1.90838e-16 2.07301e-17)
(0.744724 5.61521e-16 2.54018e-16)
(0.744724 4.45039e-16 4.80076e-16)
(0.89766 8.73222e-16 -5.78382e-16)
(0.89766 8.10902e-16 -7.00663e-16)
(0.967108 8.09863e-16 -5.53467e-16)
(0.967108 8.22975e-16 -4.99122e-16)
(1.03629 -8.50687e-16 -2.56172e-16)
(1.03629 -8.68481e-16 5.87126e-17)
(1.03629 2.23472e-16 -1.39791e-15)
(1.03629 2.24097e-16 -1.42962e-15)
(0.967108 -6.18977e-17 -9.38304e-16)
(0.967108 -6.28145e-17 -9.21374e-16)
(0.89766 2.20249e-17 -3.55439e-16)
(0.89766 5.4186e-17 -4.11619e-16)
(0.744724 -1.52268e-17 4.86929e-17)
(0.744724 6.86977e-18 -3.65318e-17)
(0.241428 2.73021e-18 3.62354e-17)
(0.241428 -1.35541e-18 -1.02652e-17)
(1.03629 2.2732e-16 1.6068e-15)
(1.03629 2.14381e-16 9.32137e-16)
(0.967108 -6.72765e-17 1.03026e-15)
(0.967108 -6.54521e-17 9.22335e-16)
(0.89766 -1.40521e-17 1.94237e-16)
(0.89766 2.94824e-17 3.628e-16)
(0.744724 -3.14831e-17 -4.74573e-17)
(0.744724 -1.53378e-17 1.71661e-17)
(0.241428 5.00606e-18 -5.55356e-17)
(0.241428 -5.15082e-18 -1.62553e-30)
)
;

boundaryField
{
    walls
    {
        type            fixedValue;
        value           uniform (0 0 0);
    }
    inlet
    {
        type            cyclic;
    }
    outlet
    {
        type            cyclic;
    }
    sides
    {
        type            empty;
    }
}


// ************************************************************************* //
