/*--------------------------------*- C++ -*----------------------------------*\
| =========                 |                                                 |
| \\      /  F ield         | OpenFOAM: The Open Source CFD Toolbox           |
|  \\    /   O peration     | Version:  2012                                  |
|   \\  /    A nd           | Website:  www.openfoam.com                      |
|    \\/     M anipulation  |                                                 |
\*---------------------------------------------------------------------------*/
FoamFile
{
    version     2.0;
    format      ascii;
    class       volScalarField;
    location    "13500";
    object      nut;
}
// * * * * * * * * * * * * * * * * * * * * * * * * * * * * * * * * * * * * * //

dimensions      [0 2 -1 0 0 0 0];


internalField   nonuniform List<scalar> 
2560
(
1.49583e-08
1.49473e-08
2.46643e-06
2.46474e-06
4.81539e-05
4.81246e-05
0.000253939
0.000253828
0.000644508
0.0006443
0.00116398
0.00116367
0.0017727
0.0017723
0.00244942
0.00244893
0.0031819
0.00318132
0.00396232
0.00396165
0.00478528
0.0047845
0.00564676
0.00564589
0.00654369
0.00654271
0.00747357
0.00747249
0.00843436
0.00843316
0.00942429
0.00942299
0.0104419
0.0104404
0.0114857
0.0114842
0.0125547
0.012553
0.0136477
0.0136459
0.0147637
0.0147618
0.0159017
0.0158996
0.0170608
0.0170587
0.0182403
0.018238
0.0194392
0.0194367
0.0206568
0.0206542
0.0218923
0.0218895
0.023145
0.0231421
0.0244141
0.0244111
0.025699
0.0256958
0.0269989
0.0269955
0.0283131
0.0283096
0.029641
0.0296373
0.0309818
0.030978
0.0323347
0.0323307
0.033699
0.0336948
0.0350737
0.0350694
0.0364582
0.0364536
0.0378514
0.0378467
0.0392527
0.0392478
0.0406612
0.0406561
0.0420761
0.0420709
0.0434967
0.0434913
0.0449221
0.0449165
0.0463515
0.0463457
0.0477837
0.0477777
0.0492174
0.0492112
0.0506512
0.0506448
0.0520836
0.052077
0.053513
0.0535062
0.0549377
0.0549307
0.0563562
0.0563491
0.0577675
0.0577601
0.0591707
0.0591631
0.0605663
0.0605584
0.0619559
0.0619478
0.0633437
0.0633353
0.0647352
0.0647266
0.0661364
0.0661275
0.0675493
0.0675401
0.0689688
0.0689594
0.0703759
0.0703662
0.0717398
0.07173
0.0730215
0.0730115
0.0741809
0.0741709
0.0751862
0.0751762
0.0760196
0.0760098
0.0766799
0.0766702
0.0771805
0.0771711
0.0775456
0.0775365
0.077805
0.0777964
0.0779897
0.0779814
0.0781285
0.0781206
0.0782459
0.0782383
0.0783614
0.0783541
0.0784889
0.0784817
0.0786366
0.0786297
0.0788084
0.0788016
0.0790039
0.0789973
0.0792194
0.0792131
0.0794495
0.0794435
0.0796871
0.0796815
0.0799249
0.0799197
0.0801554
0.0801507
0.0803717
0.0803674
0.0805673
0.0805634
0.0807366
0.0807331
0.080875
0.0808718
0.080979
0.0809761
0.0810461
0.0810435
0.0810757
0.0810733
0.0810686
0.0810663
0.0810274
0.0810253
0.0809562
0.0809543
0.0808609
0.080859
0.0807479
0.0807461
0.0806243
0.0806226
0.0804968
0.0804952
0.0803715
0.0803699
0.080253
0.0802515
0.0801451
0.0801436
0.0800499
0.0800485
0.0799689
0.0799676
0.0799032
0.0799019
0.0798533
0.079852
0.0798202
0.079819
0.0798051
0.079804
0.0798096
0.0798085
0.0798354
0.0798343
0.079884
0.079883
0.0799566
0.0799556
0.0800534
0.0800525
0.0801739
0.080173
0.0803159
0.0803151
0.0804765
0.0804756
0.0806514
0.0806506
0.0808365
0.0808357
0.0810276
0.0810269
0.0812221
0.0812214
0.0814189
0.0814183
0.0816197
0.0816191
0.0818285
0.081828
0.0820515
0.082051
0.0822962
0.0822957
0.0825704
0.0825698
0.0828808
0.0828803
0.0832329
0.0832324
0.0836289
0.0836283
0.0840686
0.084068
0.08455
0.0845495
0.08507
0.0850694
0.085625
0.0856244
0.086212
0.0862115
0.0868289
0.0868284
0.0874748
0.0874743
0.0881498
0.0881492
0.0888548
0.0888542
0.0895911
0.0895905
0.0903604
0.0903598
0.0911638
0.0911632
0.0920023
0.0920016
0.0928763
0.0928757
0.0937858
0.0937851
0.09473
0.0947293
0.0957081
0.0957073
0.0967188
0.096718
0.0977609
0.0977601
0.0988336
0.0988327
0.0999364
0.0999355
0.10107
0.101069
0.102235
0.102234
0.103434
0.103432
0.104668
0.104667
0.105943
0.105942
0.107261
0.107259
0.108625
0.108624
0.11004
0.110039
0.111509
0.111508
0.113034
0.113033
0.114618
0.114616
0.11626
0.116258
0.117962
0.117959
0.11972
0.119718
0.121534
0.121531
0.123397
0.123394
0.125304
0.125301
0.127246
0.127243
0.129212
0.129209
0.131189
0.131186
0.133164
0.13316
0.135119
0.135115
0.137039
0.137035
0.138908
0.138905
0.140714
0.140711
0.142447
0.142445
0.144107
0.144106
0.145696
0.145697
0.147228
0.147228
0.14872
0.148721
0.150198
0.150199
0.151692
0.151693
0.153233
0.153234
0.154848
0.154849
0.156559
0.156559
0.158377
0.158376
0.160303
0.160302
0.162324
0.162322
0.164416
0.164415
0.16655
0.166549
0.168693
0.168691
0.170809
0.170808
0.172869
0.172869
0.174849
0.17485
0.176733
0.176735
0.178512
0.178515
0.180185
0.180188
0.181758
0.181761
0.183245
0.183248
0.184662
0.184665
0.186031
0.186034
0.187376
0.187378
0.18872
0.188722
0.190086
0.190087
0.191497
0.191498
0.192974
0.192975
0.194536
0.194537
0.1962
0.1962
0.197979
0.197979
0.199885
0.199885
0.201926
0.201926
0.204107
0.204107
0.206427
0.206427
0.208882
0.208881
0.211458
0.211457
0.214138
0.214137
0.216894
0.216893
0.219691
0.219689
0.222487
0.222485
0.225233
0.22523
0.227878
0.227875
0.230372
0.230369
0.232672
0.232668
0.234743
0.234739
0.236567
0.236564
0.238149
0.238147
0.239515
0.239514
0.240704
0.240705
0.24177
0.241771
0.242781
0.242782
0.243804
0.243805
0.244901
0.244902
0.246117
0.246117
0.247474
0.247474
0.248977
0.248977
0.250605
0.250605
0.252331
0.25233
0.254124
0.254123
0.255962
0.255961
0.257835
0.257834
0.259748
0.259746
0.261722
0.261722
0.26379
0.26379
0.265985
0.265985
0.268339
0.268339
0.270882
0.270882
0.273637
0.273637
0.276622
0.276622
0.279849
0.279849
0.283329
0.283329
0.28707
0.28707
0.291084
0.291084
0.295378
0.295378
0.299963
0.299963
0.304845
0.304845
0.310031
0.310031
0.315523
0.315522
0.32132
0.32132
0.327422
0.327421
0.333825
0.333824
0.340526
0.340526
0.347524
0.347524
0.354819
0.354819
0.362414
0.362414
0.370314
0.370314
0.378526
0.378526
0.387059
0.387059
0.395923
0.395922
0.405125
0.405125
0.414673
0.414673
0.42457
0.42457
0.434815
0.434815
0.445406
0.445406
0.456337
0.456337
0.467602
0.467602
0.479192
0.479192
0.491099
0.491099
0.503315
0.503314
0.515829
0.515829
0.528635
0.528634
0.54172
0.54172
0.555075
0.555075
0.568688
0.568688
0.582547
0.582547
0.596639
0.596639
0.610949
0.610949
0.625465
0.625465
0.640174
0.640174
0.655065
0.655065
0.670129
0.670128
0.685358
0.685357
0.700745
0.700745
0.716285
0.716285
0.731968
0.731968
0.747785
0.747785
0.763721
0.763721
0.779761
0.77976
0.795883
0.795883
0.81207
0.81207
0.8283
0.8283
0.844557
0.844557
0.860826
0.860826
0.877095
0.877095
0.893354
0.893354
0.909598
0.909598
0.925822
0.925822
0.94202
0.94202
0.958188
0.958188
0.974318
0.974318
0.990402
0.990402
1.00643
1.00643
1.02239
1.02239
1.03826
1.03826
1.054
1.054
1.06957
1.06957
1.08485
1.08485
1.09961
1.09961
1.11341
1.11341
1.12535
1.12535
1.13373
1.13373
1.13344
1.13344
1.49473e-08
1.49583e-08
2.46473e-06
2.46643e-06
4.81246e-05
4.81539e-05
0.000253828
0.000253939
0.000644299
0.000644508
0.00116367
0.00116398
0.0017723
0.0017727
0.00244893
0.00244942
0.00318132
0.0031819
0.00396164
0.00396232
0.0047845
0.00478528
0.00564588
0.00564676
0.00654271
0.00654369
0.00747249
0.00747357
0.00843316
0.00843436
0.00942298
0.00942429
0.0104404
0.0104419
0.0114842
0.0114857
0.012553
0.0125547
0.0136459
0.0136477
0.0147617
0.0147637
0.0158996
0.0159017
0.0170587
0.0170608
0.018238
0.0182403
0.0194367
0.0194392
0.0206542
0.0206568
0.0218895
0.0218923
0.0231421
0.023145
0.0244111
0.0244141
0.0256958
0.025699
0.0269955
0.0269989
0.0283096
0.0283131
0.0296373
0.029641
0.030978
0.0309818
0.0323307
0.0323347
0.0336948
0.033699
0.0350694
0.0350737
0.0364536
0.0364582
0.0378467
0.0378514
0.0392478
0.0392527
0.0406561
0.0406612
0.0420708
0.0420761
0.0434913
0.0434967
0.0449165
0.0449221
0.0463457
0.0463515
0.0477777
0.0477837
0.0492112
0.0492174
0.0506448
0.0506512
0.052077
0.0520836
0.0535062
0.053513
0.0549307
0.0549377
0.056349
0.0563562
0.0577601
0.0577675
0.0591631
0.0591707
0.0605584
0.0605662
0.0619478
0.0619559
0.0633353
0.0633437
0.0647266
0.0647352
0.0661274
0.0661364
0.0675401
0.0675492
0.0689593
0.0689688
0.0703662
0.0703759
0.07173
0.0717398
0.0730115
0.0730215
0.0741709
0.0741809
0.0751762
0.0751862
0.0760097
0.0760196
0.0766702
0.0766799
0.077171
0.0771805
0.0775365
0.0775456
0.0777963
0.077805
0.0779814
0.0779897
0.0781205
0.0781284
0.0782383
0.0782459
0.0783541
0.0783614
0.0784817
0.0784888
0.0786296
0.0786366
0.0788016
0.0788084
0.0789973
0.0790038
0.0792131
0.0792194
0.0794435
0.0794495
0.0796815
0.0796871
0.0799197
0.0799249
0.0801507
0.0801554
0.0803673
0.0803716
0.0805633
0.0805672
0.080733
0.0807366
0.0808718
0.080875
0.080976
0.0809789
0.0810434
0.0810461
0.0810733
0.0810757
0.0810663
0.0810686
0.0810252
0.0810273
0.0809542
0.0809562
0.080859
0.0808609
0.0807461
0.0807479
0.0806226
0.0806243
0.0804952
0.0804968
0.0803699
0.0803714
0.0802515
0.080253
0.0801436
0.080145
0.0800484
0.0800498
0.0799676
0.0799689
0.0799018
0.0799031
0.079852
0.0798532
0.0798189
0.0798202
0.0798039
0.0798051
0.0798085
0.0798096
0.0798343
0.0798354
0.0798829
0.079884
0.0799555
0.0799565
0.0800524
0.0800534
0.0801729
0.0801738
0.080315
0.0803159
0.0804756
0.0804764
0.0806506
0.0806514
0.0808357
0.0808364
0.0810269
0.0810276
0.0812213
0.081222
0.0814182
0.0814189
0.0816191
0.0816197
0.0818279
0.0818285
0.0820509
0.0820515
0.0822956
0.0822961
0.0825697
0.0825703
0.0828802
0.0828807
0.0832322
0.0832328
0.0836282
0.0836287
0.0840679
0.0840684
0.0845493
0.0845499
0.0850693
0.0850698
0.0856243
0.0856248
0.0862113
0.0862118
0.0868282
0.0868287
0.0874741
0.0874746
0.088149
0.0881496
0.088854
0.0888546
0.0895904
0.0895909
0.0903596
0.0903602
0.0911629
0.0911636
0.0920014
0.0920021
0.0928754
0.0928761
0.0937849
0.0937856
0.0947291
0.0947298
0.0957071
0.0957079
0.0967177
0.0967185
0.0977598
0.0977607
0.0988324
0.0988333
0.0999352
0.0999362
0.101069
0.10107
0.102234
0.102235
0.103432
0.103433
0.104667
0.104668
0.105941
0.105943
0.107259
0.10726
0.108624
0.108625
0.110039
0.11004
0.111507
0.111509
0.113032
0.113034
0.114616
0.114618
0.116258
0.11626
0.117959
0.117961
0.119718
0.11972
0.121531
0.121534
0.123394
0.123397
0.125301
0.125304
0.127242
0.127246
0.129208
0.129212
0.131186
0.131189
0.13316
0.133164
0.135115
0.135119
0.137035
0.137039
0.138904
0.138908
0.14071
0.140713
0.142445
0.142447
0.144106
0.144107
0.145696
0.145696
0.147228
0.147227
0.14872
0.148719
0.150199
0.150198
0.151693
0.151692
0.153233
0.153233
0.154848
0.154848
0.156558
0.156558
0.158376
0.158376
0.160301
0.160302
0.162322
0.162323
0.164414
0.164415
0.166548
0.166549
0.16869
0.168692
0.170807
0.170808
0.172868
0.172868
0.174849
0.174848
0.176734
0.176732
0.178514
0.178511
0.180188
0.180184
0.181761
0.181757
0.183247
0.183244
0.184664
0.184661
0.186034
0.186031
0.187378
0.187376
0.188721
0.188719
0.190087
0.190085
0.191498
0.191496
0.192974
0.192973
0.194536
0.194535
0.196199
0.196199
0.197978
0.197978
0.199884
0.199884
0.201925
0.201925
0.204105
0.204106
0.206425
0.206426
0.208879
0.20888
0.211455
0.211456
0.214135
0.214136
0.21689
0.216892
0.219687
0.219689
0.222482
0.222485
0.225228
0.225231
0.227873
0.227876
0.230367
0.230371
0.232667
0.232671
0.234738
0.234742
0.236563
0.236567
0.238147
0.238149
0.239514
0.239515
0.240705
0.240704
0.241772
0.241771
0.242782
0.242781
0.243805
0.243804
0.244902
0.244901
0.246117
0.246117
0.247474
0.247474
0.248976
0.248976
0.250603
0.250604
0.252329
0.25233
0.254122
0.254123
0.25596
0.255962
0.257833
0.257835
0.259746
0.259747
0.261721
0.261722
0.26379
0.26379
0.265985
0.265985
0.268339
0.268339
0.270882
0.270882
0.273637
0.273637
0.276622
0.276622
0.279849
0.279849
0.283328
0.283328
0.28707
0.28707
0.291083
0.291084
0.295378
0.295378
0.299962
0.299962
0.304845
0.304845
0.31003
0.310031
0.315522
0.315522
0.321319
0.321319
0.327421
0.327421
0.333823
0.333824
0.340525
0.340525
0.347523
0.347524
0.354819
0.354819
0.362414
0.362414
0.370314
0.370314
0.378526
0.378526
0.387059
0.387059
0.395923
0.395923
0.405125
0.405126
0.414673
0.414673
0.424569
0.42457
0.434815
0.434815
0.445406
0.445406
0.456337
0.456337
0.467602
0.467602
0.479192
0.479192
0.491099
0.491099
0.503314
0.503314
0.515829
0.515829
0.528634
0.528634
0.541719
0.54172
0.555074
0.555075
0.568688
0.568688
0.582547
0.582547
0.596638
0.596638
0.610948
0.610949
0.625464
0.625465
0.640173
0.640174
0.655065
0.655065
0.670128
0.670129
0.685357
0.685358
0.700745
0.700745
0.716284
0.716285
0.731967
0.731968
0.747784
0.747784
0.76372
0.763721
0.779759
0.77976
0.795882
0.795883
0.812069
0.812069
0.828299
0.8283
0.844556
0.844557
0.860825
0.860825
0.877094
0.877094
0.893353
0.893354
0.909598
0.909598
0.925821
0.925821
0.942019
0.942019
0.958186
0.958186
0.974315
0.974316
0.990399
0.990399
1.00643
1.00643
1.02238
1.02238
1.03825
1.03825
1.05399
1.05399
1.06956
1.06956
1.08483
1.08483
1.0996
1.0996
1.11339
1.11339
1.12533
1.12533
1.13371
1.13371
1.13342
1.13342
1.13344
1.13344
1.13373
1.13373
1.12535
1.12535
1.11342
1.11342
1.09962
1.09962
1.08486
1.08486
1.06958
1.06958
1.05401
1.05401
1.03827
1.03827
1.0224
1.0224
1.00644
1.00644
0.990412
0.990412
0.974328
0.974328
0.958199
0.958199
0.942032
0.942032
0.925835
0.925835
0.909612
0.909612
0.893369
0.893369
0.87711
0.87711
0.860842
0.860841
0.844573
0.844573
0.828317
0.828317
0.812088
0.812087
0.795902
0.795902
0.77978
0.77978
0.763741
0.763741
0.747805
0.747805
0.731989
0.731988
0.716306
0.716306
0.700767
0.700767
0.68538
0.68538
0.670152
0.670151
0.655088
0.655088
0.640197
0.640197
0.625488
0.625488
0.610971
0.610971
0.59666
0.59666
0.582568
0.582568
0.568709
0.568709
0.555096
0.555095
0.54174
0.54174
0.528654
0.528654
0.515849
0.515849
0.503333
0.503333
0.491118
0.491117
0.47921
0.47921
0.467619
0.467619
0.456354
0.456353
0.445422
0.445421
0.43483
0.43483
0.424584
0.424584
0.414686
0.414686
0.405138
0.405137
0.395934
0.395934
0.38707
0.38707
0.378536
0.378536
0.370323
0.370323
0.362422
0.362422
0.354827
0.354826
0.34753
0.34753
0.340531
0.34053
0.333828
0.333828
0.327424
0.327424
0.321322
0.321321
0.315524
0.315523
0.310032
0.310031
0.304845
0.304845
0.299962
0.299962
0.295377
0.295377
0.291082
0.291082
0.287068
0.287068
0.283326
0.283325
0.279845
0.279845
0.276618
0.276618
0.273632
0.273633
0.270877
0.270877
0.268333
0.268334
0.265979
0.265979
0.263784
0.263784
0.261716
0.261716
0.259742
0.259741
0.25783
0.257829
0.255958
0.255957
0.254121
0.25412
0.252328
0.252327
0.250603
0.250602
0.248975
0.248975
0.247473
0.247473
0.246116
0.246116
0.244901
0.244901
0.243804
0.243805
0.242782
0.242783
0.241772
0.241773
0.240707
0.240708
0.239519
0.239518
0.238154
0.238152
0.236572
0.236569
0.234748
0.234744
0.232677
0.232673
0.230377
0.230374
0.227883
0.22788
0.225238
0.225235
0.222492
0.22249
0.219697
0.219694
0.216899
0.216897
0.214143
0.214141
0.211463
0.211462
0.208886
0.208885
0.206432
0.206431
0.204111
0.204111
0.20193
0.20193
0.199889
0.199889
0.197982
0.197982
0.196203
0.196203
0.194539
0.19454
0.192977
0.192978
0.191499
0.191501
0.190088
0.19009
0.188721
0.188723
0.187378
0.18738
0.186033
0.186036
0.184663
0.184666
0.183246
0.183249
0.181759
0.181763
0.180186
0.180189
0.178512
0.178516
0.176733
0.176735
0.174849
0.17485
0.172869
0.172869
0.170809
0.170808
0.168692
0.16869
0.166549
0.166548
0.164415
0.164414
0.162323
0.162321
0.160302
0.160301
0.158376
0.158376
0.156558
0.156558
0.154848
0.154848
0.153232
0.153233
0.151692
0.151692
0.150197
0.150198
0.148719
0.14872
0.147227
0.147228
0.145696
0.145696
0.144106
0.144106
0.142447
0.142445
0.140714
0.14071
0.138908
0.138904
0.137039
0.137035
0.135119
0.135115
0.133164
0.13316
0.131189
0.131186
0.129212
0.129208
0.127246
0.127242
0.125304
0.125301
0.123397
0.123394
0.121534
0.121531
0.11972
0.119718
0.117961
0.117959
0.11626
0.116258
0.114617
0.114615
0.113034
0.113032
0.111508
0.111507
0.110039
0.110038
0.108624
0.108623
0.107259
0.107258
0.105942
0.10594
0.104667
0.104666
0.103432
0.103431
0.102233
0.102232
0.101067
0.101066
0.0999338
0.0999328
0.0988306
0.0988297
0.0977577
0.0977568
0.0967153
0.0967144
0.0957043
0.0957035
0.094726
0.0947252
0.0937815
0.0937808
0.0928719
0.0928711
0.0919976
0.0919969
0.0911589
0.0911582
0.0903553
0.0903546
0.0895859
0.0895852
0.0888493
0.0888487
0.0881441
0.0881435
0.0874688
0.0874682
0.0868225
0.086822
0.0862053
0.0862047
0.085618
0.0856174
0.0850626
0.0850621
0.0845423
0.0845418
0.0840607
0.0840601
0.0836207
0.0836202
0.0832245
0.083224
0.0828722
0.0828717
0.0825615
0.082561
0.0822872
0.0822866
0.0820423
0.0820417
0.0818192
0.0818186
0.0816102
0.0816096
0.0814092
0.0814086
0.0812123
0.0812116
0.0810177
0.081017
0.0808265
0.0808257
0.0806414
0.0806405
0.0804663
0.0804654
0.0803057
0.0803048
0.0801636
0.0801626
0.080043
0.080042
0.079946
0.079945
0.0798733
0.0798722
0.0798246
0.0798235
0.0797987
0.0797976
0.0797941
0.0797929
0.0798091
0.0798078
0.079842
0.0798407
0.0798918
0.0798905
0.0799575
0.0799561
0.0800384
0.0800369
0.0801335
0.080132
0.0802414
0.0802398
0.0803597
0.0803581
0.080485
0.0804833
0.0806123
0.0806106
0.0807358
0.080734
0.0808487
0.0808468
0.080944
0.080942
0.0810152
0.081013
0.0810565
0.0810541
0.0810637
0.0810612
0.0810342
0.0810315
0.0809671
0.080964
0.080863
0.0808597
0.0807245
0.0807208
0.080555
0.080551
0.0803593
0.0803548
0.0801429
0.0801379
0.0799122
0.0799068
0.0796742
0.0796684
0.0794364
0.0794302
0.0792062
0.0791996
0.0789904
0.0789836
0.0787948
0.0787877
0.0786229
0.0786156
0.078475
0.0784676
0.0783475
0.0783398
0.0782318
0.0782239
0.0781143
0.0781061
0.0779755
0.0779669
0.0777908
0.0777818
0.0775314
0.077522
0.0771665
0.0771567
0.0766663
0.0766562
0.0760064
0.0759961
0.0751734
0.075163
0.0741684
0.074158
0.0730092
0.0729988
0.0717277
0.0717175
0.070364
0.0703539
0.0689572
0.0689474
0.067538
0.0675284
0.0661253
0.066116
0.0647243
0.0647153
0.0633329
0.0633242
0.0619453
0.0619369
0.0605559
0.0605477
0.0591607
0.0591527
0.0577578
0.05775
0.0563469
0.0563394
0.0549286
0.0549213
0.0535042
0.0534971
0.0520751
0.0520683
0.0506431
0.0506364
0.0492095
0.0492031
0.0477761
0.0477699
0.0463443
0.0463382
0.0449152
0.0449094
0.0434901
0.0434844
0.0420697
0.0420643
0.0406551
0.0406498
0.0392469
0.0392418
0.0378459
0.037841
0.0364529
0.0364482
0.0350687
0.0350642
0.0336942
0.0336898
0.0323302
0.032326
0.0309775
0.0309735
0.0296369
0.0296331
0.0283093
0.0283056
0.0269952
0.0269917
0.0256955
0.0256922
0.0244108
0.0244077
0.0231419
0.0231389
0.0218894
0.0218866
0.0206541
0.0206514
0.0194367
0.0194341
0.018238
0.0182355
0.0170587
0.0170564
0.0158997
0.0158976
0.0147618
0.0147598
0.013646
0.0136441
0.0125531
0.0125514
0.0114843
0.0114827
0.0104406
0.0104391
0.00942313
0.00942177
0.00843332
0.00843208
0.00747266
0.00747153
0.00654288
0.00654186
0.00564606
0.00564514
0.00478467
0.00478386
0.00396181
0.0039611
0.00318148
0.00318087
0.00244908
0.00244857
0.00177243
0.00177202
0.00116378
0.00116347
0.000644382
0.000644165
0.000253875
0.000253759
4.81378e-05
4.81073e-05
2.46552e-06
2.46376e-06
1.4953e-08
1.49415e-08
1.13342
1.13342
1.13371
1.13371
1.12533
1.12533
1.1134
1.1134
1.0996
1.0996
1.08484
1.08484
1.06957
1.06957
1.054
1.054
1.03826
1.03826
1.02239
1.02239
1.00644
1.00644
0.99041
0.99041
0.974326
0.974327
0.958197
0.958198
0.942031
0.942031
0.925834
0.925834
0.909612
0.909612
0.893368
0.893369
0.877109
0.877109
0.860841
0.860841
0.844573
0.844573
0.828316
0.828316
0.812087
0.812087
0.795901
0.795901
0.779779
0.779779
0.76374
0.763741
0.747804
0.747805
0.731988
0.731988
0.716305
0.716306
0.700766
0.700767
0.68538
0.68538
0.670151
0.670152
0.655088
0.655088
0.640197
0.640197
0.625487
0.625488
0.610971
0.610971
0.59666
0.59666
0.582568
0.582568
0.568709
0.568709
0.555095
0.555095
0.54174
0.54174
0.528654
0.528654
0.515848
0.515849
0.503333
0.503333
0.491117
0.491117
0.479209
0.47921
0.467619
0.467619
0.456353
0.456354
0.445421
0.445422
0.434829
0.43483
0.424584
0.424584
0.414686
0.414687
0.405138
0.405138
0.395934
0.395935
0.38707
0.38707
0.378536
0.378536
0.370323
0.370323
0.362422
0.362422
0.354826
0.354826
0.347529
0.34753
0.34053
0.34053
0.333827
0.333827
0.327423
0.327423
0.321321
0.321321
0.315523
0.315523
0.310031
0.310031
0.304845
0.304845
0.299961
0.299962
0.295376
0.295377
0.291081
0.291082
0.287068
0.287068
0.283325
0.283325
0.279845
0.279845
0.276618
0.276618
0.273633
0.273633
0.270877
0.270877
0.268334
0.268333
0.265979
0.265979
0.263784
0.263784
0.261715
0.261716
0.25974
0.259742
0.257828
0.25783
0.255956
0.255958
0.254119
0.25412
0.252326
0.252327
0.250601
0.250602
0.248974
0.248975
0.247473
0.247473
0.246116
0.246116
0.244902
0.244901
0.243806
0.243805
0.242783
0.242782
0.241774
0.241773
0.240708
0.240707
0.239519
0.239519
0.238152
0.238154
0.236568
0.236572
0.234743
0.234747
0.232672
0.232676
0.230372
0.230376
0.227878
0.227881
0.225233
0.225236
0.222488
0.22249
0.219692
0.219695
0.216895
0.216897
0.21414
0.214141
0.21146
0.211461
0.208883
0.208885
0.206429
0.20643
0.204109
0.20411
0.201929
0.201929
0.199888
0.199888
0.197982
0.197981
0.196203
0.196202
0.194539
0.194538
0.192977
0.192976
0.1915
0.191499
0.190089
0.190087
0.188723
0.188721
0.18738
0.187377
0.186035
0.186032
0.184666
0.184663
0.183249
0.183245
0.181762
0.181759
0.180189
0.180185
0.178515
0.178512
0.176735
0.176732
0.174849
0.174849
0.172868
0.172869
0.170807
0.170808
0.16869
0.168691
0.166547
0.166549
0.164413
0.164414
0.162321
0.162322
0.160301
0.160302
0.158375
0.158376
0.156557
0.156558
0.154847
0.154847
0.153233
0.153232
0.151692
0.151691
0.150198
0.150197
0.14872
0.148719
0.147228
0.147227
0.145696
0.145696
0.144105
0.144106
0.142445
0.142447
0.14071
0.140713
0.138904
0.138908
0.137035
0.137039
0.135115
0.135119
0.133159
0.133163
0.131185
0.131189
0.129208
0.129212
0.127242
0.127245
0.1253
0.125304
0.123394
0.123397
0.12153
0.121533
0.119717
0.11972
0.117959
0.117961
0.116257
0.116259
0.114615
0.114617
0.113032
0.113033
0.111506
0.111508
0.110038
0.110039
0.108622
0.108624
0.107258
0.107259
0.10594
0.105941
0.104665
0.104667
0.10343
0.103431
0.102231
0.102233
0.101066
0.101067
0.0999326
0.0999336
0.0988295
0.0988304
0.0977566
0.0977575
0.0967142
0.0967151
0.0957033
0.0957041
0.094725
0.0947258
0.0937806
0.0937813
0.092871
0.0928717
0.0919967
0.0919974
0.091158
0.0911587
0.0903545
0.0903551
0.0895851
0.0895857
0.0888485
0.0888491
0.0881433
0.0881439
0.0874681
0.0874686
0.0868218
0.0868224
0.0862046
0.0862052
0.0856173
0.0856178
0.0850619
0.0850625
0.0845417
0.0845422
0.08406
0.0840606
0.0836201
0.0836207
0.0832239
0.0832244
0.0828716
0.0828721
0.0825609
0.0825615
0.0822865
0.0822871
0.0820417
0.0820423
0.0818185
0.0818191
0.0816095
0.0816101
0.0814085
0.0814092
0.0812115
0.0812122
0.0810169
0.0810177
0.0808256
0.0808264
0.0806405
0.0806413
0.0804654
0.0804663
0.0803047
0.0803057
0.0801625
0.0801635
0.0800419
0.080043
0.0799449
0.079946
0.0798722
0.0798733
0.0798234
0.0798246
0.0797975
0.0797987
0.0797928
0.0797941
0.0798077
0.079809
0.0798407
0.079842
0.0798904
0.0798918
0.079956
0.0799575
0.0800368
0.0800384
0.0801319
0.0801334
0.0802397
0.0802413
0.080358
0.0803597
0.0804832
0.0804849
0.0806105
0.0806123
0.0807339
0.0807358
0.0808467
0.0808487
0.0809419
0.080944
0.0810129
0.0810151
0.081054
0.0810565
0.0810611
0.0810637
0.0810314
0.0810342
0.080964
0.080967
0.0808596
0.080863
0.0807207
0.0807245
0.0805509
0.080555
0.0803547
0.0803593
0.0801379
0.0801429
0.0799067
0.0799122
0.0796683
0.0796742
0.0794301
0.0794364
0.0791995
0.0792062
0.0789835
0.0789904
0.0787877
0.0787948
0.0786156
0.0786229
0.0784675
0.078475
0.0783398
0.0783475
0.0782239
0.0782318
0.078106
0.0781143
0.0779669
0.0779755
0.0777818
0.0777908
0.0775219
0.0775314
0.0771566
0.0771665
0.0766561
0.0766663
0.075996
0.0760064
0.0751629
0.0751734
0.0741579
0.0741684
0.0729987
0.0730092
0.0717174
0.0717277
0.0703538
0.070364
0.0689473
0.0689572
0.0675284
0.067538
0.0661159
0.0661253
0.0647152
0.0647243
0.0633241
0.0633329
0.0619368
0.0619454
0.0605477
0.0605559
0.0591527
0.0591607
0.05775
0.0577578
0.0563393
0.0563469
0.0549213
0.0549286
0.0534971
0.0535042
0.0520682
0.0520751
0.0506364
0.0506431
0.0492031
0.0492096
0.0477699
0.0477761
0.0463382
0.0463443
0.0449093
0.0449152
0.0434844
0.0434901
0.0420642
0.0420698
0.0406498
0.0406551
0.0392418
0.0392469
0.037841
0.0378459
0.0364481
0.0364529
0.0350642
0.0350687
0.0336898
0.0336942
0.032326
0.0323302
0.0309735
0.0309775
0.0296331
0.029637
0.0283056
0.0283093
0.0269917
0.0269952
0.0256922
0.0256955
0.0244077
0.0244108
0.0231389
0.0231419
0.0218866
0.0218894
0.0206514
0.0206541
0.0194341
0.0194367
0.0182355
0.018238
0.0170564
0.0170587
0.0158976
0.0158997
0.0147598
0.0147618
0.0136441
0.013646
0.0125514
0.0125532
0.0114827
0.0114843
0.0104391
0.0104406
0.00942177
0.00942314
0.00843208
0.00843333
0.00747152
0.00747266
0.00654186
0.00654289
0.00564514
0.00564606
0.00478386
0.00478467
0.0039611
0.00396181
0.00318087
0.00318148
0.00244857
0.00244908
0.00177202
0.00177243
0.00116347
0.00116378
0.000644165
0.000644383
0.000253759
0.000253876
4.81073e-05
4.81379e-05
2.46376e-06
2.46553e-06
1.49415e-08
1.4953e-08
)
;

boundaryField
{
    walls
    {
        type            nutUWallFunction;
        blending        stepwise;
        Cmu             0.09;
        kappa           0.41;
        E               9.8;
        value           uniform 0;
    }
    inlet
    {
        type            cyclic;
    }
    outlet
    {
        type            cyclic;
    }
    sides
    {
        type            empty;
    }
}


// ************************************************************************* //
