/*--------------------------------*- C++ -*----------------------------------*\
| =========                 |                                                 |
| \\      /  F ield         | OpenFOAM: The Open Source CFD Toolbox           |
|  \\    /   O peration     | Version:  2012                                  |
|   \\  /    A nd           | Website:  www.openfoam.com                      |
|    \\/     M anipulation  |                                                 |
\*---------------------------------------------------------------------------*/
FoamFile
{
    version     2.0;
    format      ascii;
    class       volScalarField;
    location    "13500";
    object      omega;
}
// * * * * * * * * * * * * * * * * * * * * * * * * * * * * * * * * * * * * * //

dimensions      [0 0 -1 0 0 0 0];


internalField   nonuniform List<scalar> 
2560
(
1.52418e+06
1.52418e+06
263522
263525
87186.7
87189.4
42212.9
42213.4
26665.4
26664.9
19593.8
19593.1
15653
15652.2
13148.5
13147.8
11413
11412.3
10136.1
10135.4
9154.84
9154.25
8375.74
8375.2
7741.16
7740.66
7213.69
7213.22
6767.92
6767.48
6386.01
6385.6
6055.02
6054.64
5765.36
5765
5509.74
5509.39
5282.51
5282.18
5079.25
5078.94
4896.43
4896.13
4731.17
4730.88
4581.15
4580.88
4444.44
4444.18
4319.44
4319.19
4204.8
4204.55
4099.38
4099.14
4002.22
4001.98
3912.47
3912.24
3829.43
3829.2
3752.47
3752.25
3681.06
3680.84
3614.71
3614.49
3552.99
3552.78
3495.53
3495.32
3441.98
3441.78
3392.04
3391.84
3345.44
3345.24
3301.93
3301.73
3261.29
3261.09
3223.34
3223.14
3187.9
3187.7
3154.81
3154.61
3123.91
3123.71
3095.05
3094.85
3068.09
3067.89
3042.86
3042.66
3019.22
3019.01
2997.01
2996.81
2976.11
2975.9
2956.39
2956.17
2937.74
2937.52
2920.11
2919.89
2903.49
2903.26
2887.96
2887.73
2873.74
2873.5
2861.12
2860.87
2850.4
2850.14
2841.73
2841.46
2834.92
2834.65
2829.14
2828.86
2823.03
2822.75
2814.84
2814.55
2802.79
2802.49
2785.45
2785.16
2762.03
2761.75
2732.46
2732.19
2697.32
2697.05
2657.58
2657.33
2614.48
2614.25
2569.24
2569.02
2522.96
2522.75
2476.54
2476.35
2430.68
2430.5
2385.83
2385.65
2342.25
2342.08
2300.03
2299.87
2259.14
2258.99
2219.44
2219.29
2180.75
2180.61
2142.83
2142.7
2105.48
2105.36
2068.48
2068.37
2031.63
2031.54
1994.79
1994.71
1957.81
1957.75
1920.6
1920.55
1883.1
1883.05
1845.26
1845.22
1807.11
1807.07
1768.7
1768.67
1730.12
1730.09
1691.5
1691.47
1652.98
1652.96
1614.73
1614.71
1576.91
1576.89
1539.66
1539.64
1503.09
1503.07
1467.28
1467.27
1432.29
1432.28
1398.14
1398.13
1364.83
1364.82
1332.36
1332.35
1300.7
1300.69
1269.85
1269.84
1239.81
1239.8
1210.58
1210.57
1182.15
1182.14
1154.53
1154.52
1127.7
1127.7
1101.65
1101.65
1076.34
1076.34
1051.71
1051.71
1027.7
1027.7
1004.24
1004.24
981.242
981.241
958.647
958.648
936.408
936.409
914.502
914.503
892.938
892.939
871.752
871.754
851.003
851.005
830.757
830.76
811.08
811.083
792.022
792.024
773.613
773.615
755.851
755.853
738.709
738.712
722.147
722.149
706.113
706.115
690.557
690.56
675.437
675.439
660.718
660.721
646.38
646.382
632.409
632.411
618.799
618.802
605.55
605.552
592.657
592.66
580.12
580.122
567.932
567.934
556.084
556.086
544.565
544.567
533.361
533.363
522.454
522.456
511.829
511.83
501.469
501.47
491.361
491.363
481.496
481.497
471.866
471.868
462.471
462.472
453.312
453.313
444.395
444.396
435.728
435.728
427.32
427.32
419.18
419.18
411.317
411.317
403.738
403.738
396.448
396.447
389.447
389.446
382.736
382.734
376.308
376.306
370.156
370.153
364.266
364.263
358.622
358.618
353.201
353.196
347.975
347.969
342.91
342.904
337.969
337.963
333.109
333.102
328.285
328.278
323.454
323.446
318.574
318.567
313.614
313.607
308.551
308.547
303.382
303.381
298.117
298.118
292.781
292.784
287.418
287.421
282.08
282.083
276.827
276.829
271.717
271.719
266.801
266.803
262.115
262.116
257.677
257.677
253.485
253.485
249.514
249.513
245.723
245.722
242.063
242.061
238.479
238.478
234.919
234.918
231.336
231.336
227.696
227.697
223.976
223.979
220.166
220.171
216.266
216.271
212.284
212.289
208.24
208.244
204.156
204.16
200.058
200.062
195.974
195.977
191.929
191.932
187.948
187.951
184.054
184.056
180.265
180.267
176.597
176.599
173.063
173.064
169.673
169.674
166.434
166.435
163.35
163.35
160.421
160.422
157.646
157.646
155.017
155.017
152.524
152.524
150.149
150.149
147.873
147.872
145.667
145.667
143.501
143.5
141.341
141.34
139.151
139.15
136.899
136.897
134.556
134.554
132.103
132.102
129.532
129.53
126.847
126.846
124.066
124.066
121.215
121.215
118.325
118.326
115.433
115.433
112.573
112.574
109.775
109.776
107.057
107.058
104.426
104.426
101.879
101.879
99.4035
99.4035
96.9845
96.9844
94.6064
94.6062
92.2576
92.2573
89.9319
89.9316
87.6294
87.6292
85.3562
85.3562
83.1206
83.1208
80.9315
80.9318
78.7962
78.7965
76.7207
76.7209
74.7083
74.7086
72.7606
72.7608
70.8775
70.8776
69.0581
69.0583
67.3015
67.3016
65.6068
65.6069
63.9731
63.9732
62.3995
62.3996
60.885
60.8851
59.428
59.428
58.0265
58.0266
56.6782
56.6783
55.3807
55.3808
54.1313
54.1313
52.9277
52.9277
51.7677
51.7678
50.6498
50.6499
49.5729
49.5729
48.5361
48.5362
47.5394
47.5394
46.5826
46.5827
45.6659
45.6659
44.7892
44.7892
43.9524
43.9524
43.155
43.155
42.3963
42.3963
41.6753
41.6753
40.991
40.991
40.342
40.342
39.7273
39.7273
39.1457
39.1457
38.5961
38.5961
38.0776
38.0776
37.5893
37.5893
37.1302
37.1302
36.6995
36.6995
36.2963
36.2963
35.9196
35.9196
35.5688
35.5688
35.2428
35.2428
34.9411
34.9411
34.663
34.663
34.408
34.408
34.1757
34.1757
33.9661
33.9661
33.779
33.779
33.6145
33.6145
33.4725
33.4725
33.3529
33.3529
33.2555
33.2555
33.1799
33.1799
33.1259
33.1259
33.0929
33.0929
33.0808
33.0808
33.0892
33.0892
33.1181
33.1181
33.1677
33.1677
33.2382
33.2382
33.3301
33.3301
33.444
33.444
33.5804
33.5804
33.7401
33.7401
33.9236
33.9236
34.1316
34.1316
34.3649
34.3649
34.6238
34.6238
34.9089
34.9089
35.2201
35.2201
35.5566
35.5566
35.9153
35.9153
36.2892
36.2892
36.6622
36.6622
37.0019
37.0019
37.2457
37.2457
37.2087
37.2087
1.52418e+06
1.52418e+06
263525
263522
87189.4
87186.7
42213.4
42212.9
26664.9
26665.4
19593.1
19593.8
15652.2
15653
13147.8
13148.5
11412.3
11413
10135.4
10136.1
9154.25
9154.84
8375.2
8375.74
7740.66
7741.16
7213.22
7213.69
6767.48
6767.92
6385.6
6386.01
6054.64
6055.02
5764.99
5765.36
5509.39
5509.74
5282.18
5282.51
5078.94
5079.25
4896.13
4896.43
4730.88
4731.17
4580.88
4581.15
4444.18
4444.44
4319.18
4319.44
4204.55
4204.8
4099.14
4099.38
4001.98
4002.22
3912.24
3912.47
3829.2
3829.43
3752.25
3752.47
3680.84
3681.06
3614.49
3614.71
3552.78
3552.99
3495.32
3495.53
3441.78
3441.98
3391.84
3392.04
3345.24
3345.44
3301.73
3301.93
3261.09
3261.29
3223.14
3223.34
3187.7
3187.9
3154.61
3154.81
3123.71
3123.91
3094.85
3095.05
3067.89
3068.09
3042.66
3042.86
3019.01
3019.22
2996.81
2997.01
2975.9
2976.11
2956.17
2956.39
2937.52
2937.74
2919.89
2920.11
2903.26
2903.49
2887.73
2887.97
2873.5
2873.74
2860.87
2861.12
2850.14
2850.4
2841.46
2841.73
2834.65
2834.92
2828.86
2829.14
2822.75
2823.03
2814.55
2814.84
2802.49
2802.79
2785.16
2785.45
2761.75
2762.03
2732.19
2732.47
2697.05
2697.32
2657.33
2657.58
2614.25
2614.48
2569.02
2569.24
2522.75
2522.96
2476.35
2476.54
2430.5
2430.68
2385.65
2385.83
2342.08
2342.25
2299.87
2300.03
2258.99
2259.14
2219.29
2219.44
2180.61
2180.75
2142.7
2142.83
2105.36
2105.48
2068.37
2068.48
2031.54
2031.63
1994.71
1994.79
1957.75
1957.81
1920.55
1920.6
1883.05
1883.1
1845.22
1845.26
1807.07
1807.11
1768.67
1768.7
1730.09
1730.12
1691.47
1691.5
1652.96
1652.98
1614.71
1614.73
1576.89
1576.91
1539.64
1539.66
1503.07
1503.09
1467.27
1467.28
1432.28
1432.29
1398.13
1398.14
1364.82
1364.83
1332.35
1332.36
1300.69
1300.7
1269.84
1269.85
1239.8
1239.81
1210.57
1210.58
1182.14
1182.15
1154.52
1154.53
1127.7
1127.7
1101.65
1101.65
1076.34
1076.34
1051.71
1051.71
1027.7
1027.7
1004.24
1004.24
981.241
981.242
958.647
958.647
936.408
936.408
914.503
914.502
892.939
892.938
871.754
871.752
851.005
851.003
830.759
830.757
811.082
811.08
792.024
792.021
773.615
773.612
755.853
755.85
738.711
738.709
722.148
722.146
706.115
706.112
690.559
690.557
675.439
675.436
660.72
660.718
646.382
646.379
632.411
632.408
618.801
618.799
605.551
605.549
592.659
592.657
580.122
580.119
567.933
567.931
556.086
556.084
544.567
544.565
533.362
533.36
522.455
522.453
511.829
511.828
501.47
501.468
491.362
491.361
481.496
481.495
471.867
471.866
462.471
462.47
453.312
453.311
444.395
444.394
435.728
435.727
427.319
427.319
419.179
419.179
411.316
411.316
403.737
403.738
396.446
396.447
389.445
389.447
382.733
382.735
376.305
376.307
370.152
370.155
364.262
364.266
358.617
358.621
353.195
353.2
347.969
347.974
342.904
342.91
337.962
337.969
333.101
333.109
328.277
328.285
323.446
323.453
318.566
318.574
313.607
313.613
308.547
308.551
303.38
303.382
298.117
298.116
292.784
292.781
287.421
287.418
282.083
282.08
276.829
276.826
271.719
271.717
266.802
266.8
262.115
262.114
257.676
257.676
253.484
253.484
249.512
249.513
245.721
245.722
242.06
242.062
238.476
238.478
234.916
234.918
231.334
231.335
227.696
227.695
223.978
223.975
220.17
220.165
216.27
216.265
212.288
212.284
208.244
208.239
204.16
204.155
200.061
200.058
195.977
195.973
191.932
191.929
187.951
187.948
184.056
184.054
180.267
180.265
176.598
176.597
173.064
173.062
169.674
169.672
166.434
166.433
163.35
163.349
160.421
160.42
157.645
157.645
155.016
155.016
152.522
152.522
150.148
150.148
147.871
147.871
145.665
145.666
143.499
143.5
141.338
141.339
139.148
139.15
136.896
136.898
134.553
134.555
132.101
132.103
129.529
129.531
126.845
126.846
124.066
124.066
121.215
121.215
118.326
118.325
115.434
115.433
112.574
112.574
109.776
109.775
107.058
107.057
104.426
104.426
101.879
101.879
99.4031
99.4032
96.9839
96.9841
94.6057
94.606
92.2569
92.2573
89.9313
89.9317
87.629
87.6293
85.356
85.3561
83.1208
83.1206
80.9318
80.9315
78.7965
78.7962
76.721
76.7207
74.7086
74.7083
72.7608
72.7606
70.8777
70.8775
69.0583
69.0581
67.3016
67.3015
65.6069
65.6067
63.9731
63.973
62.3995
62.3994
60.885
60.8849
59.4279
59.4278
58.0264
58.0264
56.6782
56.6781
55.3806
55.3806
54.1312
54.1312
52.9276
52.9275
51.7677
51.7676
50.6498
50.6498
49.5729
49.5728
48.5362
48.5361
47.5395
47.5394
46.5827
46.5827
45.666
45.6659
44.7893
44.7892
43.9524
43.9524
43.155
43.155
42.3963
42.3963
41.6754
41.6753
40.991
40.991
40.342
40.342
39.7273
39.7273
39.1457
39.1456
38.5961
38.5961
38.0776
38.0776
37.5893
37.5893
37.1302
37.1302
36.6995
36.6995
36.2963
36.2962
35.9196
35.9196
35.5688
35.5688
35.2428
35.2428
34.9411
34.9411
34.663
34.663
34.408
34.408
34.1757
34.1757
33.9661
33.9661
33.779
33.779
33.6145
33.6145
33.4725
33.4725
33.3528
33.3528
33.2554
33.2554
33.1799
33.1799
33.1258
33.1258
33.0929
33.0929
33.0807
33.0807
33.0891
33.0891
33.1181
33.1181
33.1676
33.1676
33.2382
33.2382
33.3301
33.3301
33.444
33.444
33.5804
33.5804
33.74
33.74
33.9235
33.9235
34.1316
34.1316
34.3647
34.3647
34.6236
34.6236
34.9087
34.9087
35.2198
35.2198
35.5562
35.5562
35.9148
35.9148
36.2886
36.2886
36.6616
36.6616
37.0012
37.0012
37.2451
37.2451
37.2082
37.2082
37.2088
37.2088
37.2457
37.2458
37.002
37.002
36.6623
36.6623
36.2893
36.2893
35.9155
35.9155
35.5568
35.5567
35.2203
35.2203
34.9091
34.9091
34.624
34.624
34.365
34.365
34.1318
34.1318
33.9237
33.9237
33.7402
33.7402
33.5806
33.5806
33.4441
33.4441
33.3303
33.3303
33.2384
33.2384
33.1678
33.1678
33.1182
33.1182
33.0893
33.0893
33.0809
33.0809
33.0931
33.0931
33.126
33.126
33.1801
33.1801
33.2556
33.2556
33.353
33.353
33.4725
33.4725
33.6145
33.6145
33.779
33.779
33.9661
33.9661
34.1757
34.1757
34.4079
34.4079
34.6629
34.6629
34.941
34.941
35.2426
35.2426
35.5684
35.5684
35.9192
35.9192
36.2958
36.2958
36.699
36.699
37.1296
37.1296
37.5886
37.5887
38.0769
38.0769
38.5953
38.5953
39.1448
39.1448
39.7263
39.7263
40.3409
40.341
40.9898
40.9898
41.6741
41.6741
42.395
42.395
43.1535
43.1536
43.9508
43.9509
44.7875
44.7876
45.6641
45.6642
46.5808
46.5808
47.5374
47.5375
48.534
48.5341
49.5706
49.5707
50.6475
50.6475
51.7652
51.7653
52.925
52.925
54.1284
54.1285
55.3777
55.3778
56.6752
56.6752
58.0233
58.0234
59.4247
59.4248
60.8817
60.8818
62.3961
62.3962
63.9696
63.9697
65.6032
65.6033
67.2978
67.298
69.0543
69.0545
70.8736
70.8738
72.7567
72.7569
74.7043
74.7045
76.7165
76.7168
78.7919
78.7922
80.9271
80.9273
83.1162
83.1164
85.3518
85.3518
87.6252
87.625
89.928
89.9276
92.2539
92.2536
94.603
94.6028
96.9813
96.9812
99.4006
99.4006
101.876
101.876
104.423
104.423
107.055
107.055
109.773
109.774
112.571
112.572
115.431
115.432
118.323
118.324
121.213
121.214
124.065
124.065
126.846
126.845
129.532
129.53
132.103
132.101
134.556
134.554
136.898
136.896
139.15
139.149
141.34
141.339
143.5
143.499
145.666
145.665
147.872
147.871
150.148
150.148
152.522
152.522
155.015
155.015
157.643
157.644
160.418
160.419
163.347
163.347
166.431
166.432
169.669
169.671
173.059
173.061
176.593
176.595
180.26
180.262
184.049
184.052
187.943
187.946
191.923
191.926
195.968
195.971
200.052
200.056
204.149
204.154
208.233
208.238
212.277
212.282
216.258
216.263
220.158
220.163
223.968
223.971
227.687
227.689
231.328
231.327
234.91
234.908
238.47
238.468
242.053
242.051
245.712
245.711
249.503
249.502
253.474
253.474
257.666
257.666
262.104
262.105
266.79
266.792
271.706
271.708
276.816
276.818
282.069
282.072
287.407
287.41
292.77
292.772
298.105
298.106
303.371
303.369
308.54
308.536
313.603
313.596
318.563
318.555
323.442
323.434
328.273
328.265
333.097
333.089
337.957
337.95
342.897
342.891
347.962
347.956
353.187
353.182
358.608
358.604
364.252
364.248
370.141
370.138
376.292
376.29
382.719
382.717
389.43
389.429
396.43
396.429
403.72
403.719
411.298
411.298
419.16
419.16
427.298
427.299
435.706
435.706
444.372
444.372
453.287
453.288
462.445
462.446
471.839
471.84
481.466
481.468
491.33
491.332
501.436
501.438
511.794
511.796
522.417
522.419
533.323
533.325
544.526
544.528
556.043
556.046
567.889
567.892
580.076
580.078
592.612
592.615
605.503
605.505
618.751
618.754
632.358
632.361
646.327
646.33
660.663
660.665
675.378
675.381
690.496
690.499
706.049
706.051
722.08
722.082
738.64
738.643
755.779
755.782
773.539
773.542
791.946
791.948
811.002
811.004
830.676
830.679
850.92
850.922
871.667
871.669
892.851
892.852
914.413
914.414
936.317
936.318
958.555
958.555
981.147
981.147
1004.14
1004.14
1027.61
1027.61
1051.61
1051.61
1076.24
1076.24
1101.55
1101.55
1127.6
1127.59
1154.42
1154.42
1182.04
1182.03
1210.46
1210.46
1239.7
1239.69
1269.73
1269.73
1300.58
1300.57
1332.23
1332.22
1364.71
1364.7
1398.02
1398
1432.16
1432.15
1467.15
1467.14
1502.95
1502.94
1539.52
1539.5
1576.77
1576.75
1614.59
1614.57
1652.84
1652.81
1691.35
1691.32
1729.97
1729.94
1768.55
1768.52
1806.97
1806.93
1845.12
1845.07
1882.95
1882.9
1920.45
1920.39
1957.66
1957.59
1994.63
1994.55
2031.47
2031.38
2068.31
2068.2
2105.3
2105.18
2142.65
2142.52
2180.56
2180.41
2219.25
2219.09
2258.94
2258.78
2299.83
2299.65
2342.04
2341.86
2385.61
2385.43
2430.46
2430.27
2476.32
2476.11
2522.73
2522.51
2569.01
2568.78
2614.25
2614.01
2657.35
2657.09
2697.09
2696.81
2732.25
2731.96
2761.83
2761.53
2785.25
2784.95
2802.6
2802.3
2814.66
2814.35
2822.85
2822.55
2828.96
2828.67
2834.75
2834.46
2841.56
2841.28
2850.22
2849.96
2860.94
2860.68
2873.57
2873.32
2887.79
2887.55
2903.32
2903.08
2919.94
2919.71
2937.58
2937.35
2956.24
2956.01
2975.97
2975.74
2996.87
2996.65
3019.08
3018.86
3042.73
3042.51
3067.96
3067.75
3094.93
3094.72
3123.78
3123.57
3154.68
3154.47
3187.78
3187.57
3223.22
3223.01
3261.17
3260.96
3301.81
3301.6
3345.32
3345.11
3391.92
3391.71
3441.86
3441.64
3495.4
3495.18
3552.86
3552.63
3614.57
3614.34
3680.91
3680.69
3752.32
3752.09
3829.27
3829.03
3912.3
3912.06
4002.04
4001.79
4099.2
4098.95
4204.61
4204.35
4319.25
4318.98
4444.24
4443.96
4580.93
4580.64
4730.94
4730.64
4896.18
4895.87
5078.99
5078.66
5282.23
5281.89
5509.44
5509.07
5765.04
5764.66
6054.68
6054.27
6385.64
6385.21
6767.52
6767.06
7213.26
7212.77
7740.7
7740.17
8375.23
8374.67
9154.28
9153.67
10135.4
10134.8
11412.3
11411.6
13147.7
13147
15652.1
15651.3
19592.9
19592.1
26664.5
26663.9
42212.2
42212.7
87187
87189.8
263523
263526
1.52419e+06
1.52419e+06
37.2082
37.2082
37.2451
37.2451
37.0014
37.0014
36.6617
36.6617
36.2887
36.2887
35.915
35.915
35.5564
35.5564
35.2201
35.2201
34.9089
34.9089
34.6239
34.6239
34.3649
34.3649
34.1317
34.1317
33.9237
33.9237
33.7402
33.7402
33.5805
33.5805
33.4441
33.4441
33.3303
33.3303
33.2384
33.2384
33.1678
33.1678
33.1182
33.1182
33.0893
33.0893
33.0809
33.0809
33.093
33.093
33.126
33.126
33.18
33.18
33.2556
33.2556
33.3529
33.3529
33.4725
33.4725
33.6145
33.6145
33.7791
33.779
33.9661
33.9661
34.1757
34.1757
34.4079
34.4079
34.6629
34.6629
34.941
34.941
35.2426
35.2426
35.5684
35.5684
35.9192
35.9192
36.2958
36.2958
36.699
36.699
37.1296
37.1296
37.5886
37.5886
38.0769
38.0769
38.5953
38.5953
39.1448
39.1448
39.7263
39.7263
40.341
40.3409
40.9898
40.9898
41.6741
41.6741
42.395
42.395
43.1536
43.1536
43.9509
43.9509
44.7876
44.7876
45.6642
45.6642
46.5808
46.5808
47.5375
47.5374
48.5341
48.534
49.5707
49.5706
50.6475
50.6474
51.7652
51.7651
52.9249
52.9248
54.1284
54.1283
55.3777
55.3776
56.6751
56.675
58.0233
58.0232
59.4247
59.4246
60.8817
60.8816
62.3962
62.396
63.9696
63.9695
65.6033
65.6031
67.298
67.2978
69.0545
69.0543
70.8738
70.8736
72.7569
72.7566
74.7045
74.7043
76.7168
76.7165
78.7922
78.7919
80.9273
80.927
83.1163
83.1161
85.3517
85.3517
87.6248
87.6251
89.9273
89.9278
92.2532
92.2536
94.6023
94.6027
96.9808
96.981
99.4002
99.4003
101.876
101.876
104.423
104.423
107.055
107.055
109.774
109.773
112.572
112.571
115.432
115.431
118.324
118.323
121.214
121.214
124.065
124.065
126.845
126.846
129.529
129.531
132.1
132.103
134.553
134.555
136.895
136.897
139.147
139.149
141.337
141.339
143.498
143.499
145.664
145.665
147.87
147.87
150.146
150.147
152.521
152.521
155.014
155.014
157.643
157.642
160.418
160.418
163.347
163.346
166.431
166.43
169.67
169.669
173.06
173.059
176.594
176.592
180.262
180.26
184.051
184.049
187.946
187.943
191.926
191.923
195.971
195.967
200.055
200.051
204.153
204.149
208.237
208.232
212.282
212.276
216.262
216.257
220.162
220.158
223.97
223.967
227.688
227.686
231.326
231.327
234.907
234.909
238.467
238.469
242.05
242.052
245.71
245.712
249.502
249.502
253.474
253.474
257.666
257.665
262.104
262.103
266.791
266.79
271.708
271.706
276.818
276.815
282.072
282.068
287.41
287.406
292.772
292.77
298.106
298.105
303.369
303.371
308.536
308.54
313.596
313.602
318.555
318.563
323.434
323.442
328.265
328.273
333.089
333.096
337.949
337.956
342.891
342.897
347.955
347.961
353.182
353.187
358.603
358.608
364.247
364.251
370.137
370.14
376.289
376.292
382.717
382.719
389.428
389.43
396.428
396.429
403.718
403.719
411.297
411.297
419.159
419.159
427.298
427.298
435.705
435.705
444.372
444.371
453.288
453.287
462.445
462.444
471.839
471.838
481.467
481.466
491.331
491.329
501.437
501.435
511.795
511.793
522.419
522.417
533.324
533.322
544.527
544.525
556.045
556.043
567.891
567.889
580.078
580.075
592.614
592.612
605.505
605.502
618.753
618.751
632.361
632.358
646.329
646.327
660.665
660.662
675.381
675.378
690.498
690.496
706.051
706.048
722.082
722.08
738.642
738.64
755.782
755.779
773.541
773.539
791.948
791.946
811.004
811.002
830.678
830.676
850.922
850.92
871.669
871.667
892.852
892.851
914.414
914.413
936.318
936.317
958.555
958.555
981.147
981.148
1004.14
1004.14
1027.6
1027.61
1051.61
1051.61
1076.24
1076.24
1101.55
1101.55
1127.59
1127.6
1154.42
1154.42
1182.03
1182.04
1210.46
1210.46
1239.69
1239.7
1269.73
1269.73
1300.57
1300.58
1332.22
1332.23
1364.7
1364.71
1398
1398.02
1432.15
1432.17
1467.14
1467.15
1502.94
1502.95
1539.5
1539.52
1576.75
1576.77
1614.57
1614.59
1652.81
1652.84
1691.32
1691.35
1729.94
1729.97
1768.52
1768.55
1806.93
1806.97
1845.07
1845.12
1882.9
1882.95
1920.39
1920.46
1957.59
1957.66
1994.55
1994.63
2031.38
2031.47
2068.2
2068.31
2105.18
2105.3
2142.52
2142.65
2180.41
2180.56
2219.09
2219.25
2258.78
2258.94
2299.65
2299.83
2341.86
2342.04
2385.43
2385.61
2430.27
2430.46
2476.11
2476.32
2522.51
2522.73
2568.78
2569.01
2614.01
2614.25
2657.09
2657.35
2696.81
2697.09
2731.96
2732.25
2761.53
2761.83
2784.95
2785.26
2802.3
2802.6
2814.35
2814.66
2822.55
2822.85
2828.67
2828.96
2834.46
2834.75
2841.28
2841.56
2849.96
2850.23
2860.68
2860.94
2873.32
2873.57
2887.55
2887.79
2903.08
2903.32
2919.71
2919.95
2937.36
2937.59
2956.01
2956.24
2975.75
2975.97
2996.65
2996.87
3018.86
3019.08
3042.51
3042.73
3067.75
3067.96
3094.72
3094.93
3123.58
3123.79
3154.48
3154.69
3187.57
3187.78
3223.01
3223.23
3260.97
3261.18
3301.6
3301.81
3345.11
3345.32
3391.71
3391.92
3441.64
3441.86
3495.18
3495.4
3552.64
3552.86
3614.34
3614.57
3680.69
3680.92
3752.09
3752.32
3829.03
3829.27
3912.06
3912.31
4001.8
4002.05
4098.95
4099.21
4204.35
4204.62
4318.98
4319.25
4443.96
4444.24
4580.64
4580.94
4730.64
4730.94
4895.87
4896.19
5078.66
5079
5281.89
5282.23
5509.07
5509.44
5764.66
5765.04
6054.27
6054.68
6385.21
6385.64
6767.06
6767.53
7212.77
7213.26
7740.17
7740.7
8374.67
8375.24
9153.67
9154.29
10134.8
10135.4
11411.6
11412.3
13147
13147.8
15651.3
15652.2
19592.1
19592.9
26664
26664.5
42212.7
42212.2
87189.8
87187
263526
263523
1.52419e+06
1.52419e+06
)
;

boundaryField
{
    walls
    {
        blending        binomial2;
        n               2;
        beta1           0.075;
        type            omegaWallFunction;
        value           nonuniform List<scalar> 8(1.52418e+06 1.52418e+06 1.52418e+06 1.52418e+06 1.52419e+06 1.52419e+06 1.52419e+06 1.52419e+06);
    }
    inlet
    {
        type            cyclic;
    }
    outlet
    {
        type            cyclic;
    }
    sides
    {
        type            empty;
    }
}


// ************************************************************************* //
