/*--------------------------------*- C++ -*----------------------------------*\
| =========                 |                                                 |
| \\      /  F ield         | OpenFOAM: The Open Source CFD Toolbox           |
|  \\    /   O peration     | Version:  2012                                  |
|   \\  /    A nd           | Website:  www.openfoam.com                      |
|    \\/     M anipulation  |                                                 |
\*---------------------------------------------------------------------------*/
FoamFile
{
    version     2.0;
    format      ascii;
    class       volScalarField;
    location    "13500";
    object      p;
}
// * * * * * * * * * * * * * * * * * * * * * * * * * * * * * * * * * * * * * //

dimensions      [0 2 -2 0 0 0 0];


internalField   nonuniform List<scalar> 
2560
(
9.09507e-08
-1.23094
-3.69818e-05
-1.23097
-3.88715e-05
-1.23098
-3.03154e-05
-1.23098
-2.82974e-05
-1.23098
-2.79193e-05
-1.23099
-2.71484e-05
-1.23099
-2.68308e-05
-1.23099
-2.59264e-05
-1.23099
-2.57732e-05
-1.23099
-2.473e-05
-1.23099
-2.46791e-05
-1.23099
-2.71234e-05
-1.23099
-3.86505e-05
-1.23025
-9.19047e-05
-1.2311
-0.000174747
-1.22903
-0.000363875
-1.23167
-0.000568787
-1.23168
-0.000833398
-1.23255
-0.00105986
-1.23257
-0.0013492
-1.23352
-0.00157506
-1.23354
-0.00187326
-1.23453
-0.00209131
-1.23123
-0.00247363
-1.23581
-0.00282904
-1.23106
-0.00346404
-1.23777
-0.00404555
-1.23782
-0.00492082
-1.24031
-0.00561105
-1.24043
-0.00658216
-1.2431
-0.00721424
-1.24322
-0.00815246
-1.24586
-0.00861295
-1.24591
-0.00950282
-1.24843
-0.00985511
-1.2421
-0.010904
-1.2513
-0.0114039
-1.22453
-0.0129158
-1.25566
-0.0137943
-1.2208
-0.0159167
-1.26214
-0.0172252
-1.23552
-0.0198812
-1.27044
-0.0214612
-1.26108
-0.0244362
-1.27968
-0.0260855
-1.27808
-0.0292467
-1.28934
-0.0309016
-1.28376
-0.0343204
-1.29952
-0.0361644
-1.2163
-0.040181
-1.31275
-0.0431535
-1.24924
-0.0495808
-1.33102
-0.0572739
-1.33244
-0.0714858
-1.36186
-0.0913227
-1.36814
-0.121488
-1.42126
-0.160644
-1.43624
-0.209937
-1.51978
-0.265311
-1.54346
-0.322624
-1.64331
-0.376239
-1.6684
-0.41938
-1.75147
-0.449623
-1.76707
-0.462083
-1.80576
-0.460839
-1.80407
-0.443953
-1.76391
-0.420193
-1.75266
-0.388052
-1.69274
-0.356901
-1.67916
-0.323424
-1.61994
-0.295289
-1.60781
-0.267438
-0.263208
-0.245741
-0.250153
-0.224795
-0.220684
-0.20926
-0.211509
-0.194264
-0.190197
-0.183809
-0.183803
-0.173651
-0.169586
-0.167261
-0.165434
-0.160916
-0.156835
-0.157638
-0.154423
-0.154086
-0.149986
-0.152934
-0.148809
-0.151249
-0.147141
-0.151527
-0.14679
-0.151466
-0.147116
-0.152825
-0.148434
-0.154338
-0.149996
-0.157463
-0.153088
-0.161201
-0.156871
-0.16684
-0.162485
-0.173488
-0.169175
-0.182146
-0.177814
-0.191882
-0.187589
-0.203359
-0.199054
-0.21557
-0.211301
-0.228881
-0.224605
-0.242292
-0.23805
-0.256034
-0.251791
-0.269239
-0.265027
-0.282158
-0.277947
-0.294135
-0.289954
-0.305513
-0.301336
-0.315864
-0.311715
-0.325591
-0.321448
-0.334417
-0.330301
-0.342749
-0.33864
-0.350382
-0.346298
-0.35768
-0.353607
-0.364474
-0.360425
-0.371086
-0.367048
-0.377389
-0.373376
-0.383683
-0.379684
-0.389892
-0.385917
-0.39632
-0.392362
-0.402923
-0.39899
-0.409966
-0.406052
-0.417423
-0.413536
-0.425525
-0.42166
-0.434255
-0.430418
-0.443836
-0.440023
-0.454296
-0.450514
-0.465907
-0.462151
-0.478798
-0.475073
-0.493327
-0.48963
-0.509737
-0.506072
-0.528443
-0.524808
-0.54973
-0.546127
-0.573952
-0.570379
-0.60126
-0.597719
-0.631772
-0.628261
-0.665319
-0.661841
-0.701608
-0.698159
-0.740038
-0.736621
-0.779896
-0.776508
-0.820232
-0.816875
-0.860083
-0.856755
-0.898417
-0.895119
-0.934355
-0.931085
-0.967117
-0.963877
-0.9962
-0.992988
-1.02129
-1.0181
-1.04235
-1.0392
-1.05953
-1.05641
-1.07318
-1.07008
-1.08372
-1.08064
-1.09165
-1.0886
-1.09745
-1.09442
-1.10159
-1.09859
-1.10448
-1.10151
-1.10646
-1.10351
-1.10778
-1.10485
-1.10865
-1.10574
-1.10921
-1.10632
-1.10957
-1.1067
-1.10979
-1.10695
-1.10992
-1.1071
-1.11
-1.10719
-1.11003
-1.10725
-1.11003
-1.10726
-1.11
-1.10725
-1.10995
-1.10722
-1.1099
-1.10718
-1.10982
-1.10713
-1.10974
-1.10706
-1.10965
-1.10699
-1.10956
-1.10691
-1.10947
-1.10683
-1.10938
-1.10675
-1.10928
-1.10667
-1.1092
-1.10659
-1.10912
-1.10652
-1.10905
-1.10645
-1.10898
-1.10639
-1.10893
-1.10633
-1.10888
-1.10629
-1.10885
-1.10625
-1.10881
-1.10623
-1.10878
-1.10621
-1.10876
-1.10619
-1.10874
-1.10618
-1.10872
-1.10618
-1.10871
-1.10617
-1.10869
-1.10617
-1.10867
-1.10617
-1.10866
-1.10616
-1.10863
-1.10615
-1.1086
-1.10613
-1.10856
-1.1061
-1.10851
-1.10605
-1.10843
-1.10597
-1.10832
-1.10587
-1.10817
-1.10572
-1.10797
-1.10552
-1.1077
-1.10526
-1.10735
-1.10491
-1.10688
-1.10446
-1.10629
-1.10388
-1.10554
-1.10315
-1.10462
-1.10224
-1.10348
-1.10113
-1.10211
-1.09978
-1.10048
-1.09818
-1.09858
-1.0963
-1.09637
-1.09412
-1.09386
-1.09164
-1.09103
-1.08884
-1.08791
-1.08575
-1.08449
-1.08236
-1.08081
-1.07871
-1.07688
-1.07481
-1.07274
-1.07071
-1.06841
-1.06641
-1.06393
-1.06196
-1.0593
-1.05737
-1.05457
-1.05266
-1.0497
-1.04782
-1.04474
-1.04288
-1.03963
-1.03779
-1.03441
-1.03259
-1.02902
-1.02721
-1.02349
-1.0217
-1.01777
-1.01598
-1.0119
-1.01012
-1.00585
-1.00406
-0.999663
-0.997886
-0.993322
-0.991551
-0.986909
-0.985149
-0.980393
-0.978644
-0.973875
-0.972141
-0.967313
-0.965593
-0.960813
-0.959109
-0.954313
-0.952622
-0.947913
-0.946238
-0.941528
-0.939864
-0.935258
-0.933607
-0.928993
-0.927348
-0.922839
-0.921202
-0.916663
-0.915028
-0.910589
-0.908958
-0.904462
-0.902828
-0.898428
-0.8968
-0.892317
-0.890688
-0.886301
-0.884681
-0.880186
-0.878567
-0.874173
-0.872564
-0.868039
-0.86643
-0.862014
-0.860416
-0.855842
-0.854243
-0.84978
-0.848193
-0.843534
-0.841946
-0.837402
-0.835826
-0.831046
-0.829468
-0.824805
-0.823241
-0.818298
-0.816732
-0.811919
-0.810369
-0.805235
-0.803684
-0.798699
-0.797168
-0.79182
-0.790288
-0.785119
-0.783612
-0.77804
-0.776531
-0.771173
-0.769695
-0.763893
-0.762414
-0.756866
-0.755423
-0.749388
-0.747942
-0.742215
-0.740813
-0.734554
-0.733145
-0.727257
-0.7259
-0.719438
-0.71807
-0.712057
-0.710749
-0.704119
-0.702792
-0.696699
-0.69544
-0.688681
-0.687394
-0.681267
-0.68006
-0.673204
-0.671956
-0.665827
-0.664671
-0.657733
-0.656522
-0.6504
-0.649297
-0.642264
-0.641089
-0.634965
-0.633914
-0.626763
-0.625619
-0.619478
-0.61848
-0.611189
-0.610075
-0.603918
-0.602973
-0.595551
-0.594462
-0.588329
-0.587436
-0.579931
-0.578862
-0.572833
-0.571992
-0.564487
-0.563435
-0.557622
-0.556831
-0.549429
-0.548388
-0.542902
-0.542164
-0.534952
-0.533921
-0.528852
-0.52817
-0.52121
-0.520183
-0.515586
-0.514969
-0.508277
-0.507253
-0.503142
-0.502601
-0.496162
-0.495134
-0.491493
-0.491043
-0.484811
-0.483772
-0.48056
-0.480223
-0.474133
-0.473075
-0.470239
-0.470058
-0.464016
-0.462954
-0.460395
-0.460437
-0.454326
-0.453207
-0.450921
-0.45077
-0.445051
-0.440452
-0.441918
-0.438297
-0.436412
-0.431736
-0.433635
-0.429749
-0.4287
-0.423858
-0.426453
-0.422145
-0.422424
-0.417319
-0.420925
-0.416037
-0.418214
-0.412703
-0.417591
-0.412005
-0.416648
-0.410443
-1.23455
-0.000488273
-1.23458
-0.000525278
-1.23459
-0.000527089
-1.23459
-0.000517999
-1.23459
-0.000514946
-1.23459
-0.000513936
-1.23459
-0.000513165
-1.23459
-0.000513104
-1.23459
-0.00051269
-1.23459
-0.000512968
-1.23459
-0.000512228
-1.23459
-0.0005123
-1.23459
-0.000514761
-1.23385
-0.000526211
-1.23471
-0.000579017
-1.23264
-0.000662161
-1.23527
-0.000851124
-1.23528
-0.00105624
-1.23616
-0.00132073
-1.23618
-0.00154731
-1.23713
-0.00183657
-1.23714
-0.0020625
-1.23814
-0.00236065
-1.23483
-0.00257874
-1.23941
-0.00296102
-1.23467
-0.00331643
-1.24137
-0.00395139
-1.24143
-0.00453288
-1.24391
-0.00540811
-1.24403
-0.00609829
-1.24671
-0.00706936
-1.24683
-0.00770138
-1.24946
-0.00863957
-1.24952
-0.00910001
-1.25204
-0.00998988
-1.24571
-0.0103421
-1.25491
-0.011391
-1.22813
-0.0118907
-1.25926
-0.0134024
-1.22441
-0.0142806
-1.26574
-0.016403
-1.23913
-0.0177114
-1.27404
-0.0203675
-1.26469
-0.0219473
-1.28329
-0.0249223
-1.28169
-0.0265715
-1.29294
-0.0297326
-1.28737
-0.0313874
-1.30312
-0.0348062
-1.2199
-0.0366501
-1.31635
-0.0406665
-1.25285
-0.0436389
-1.33463
-0.0500662
-1.33604
-0.0577592
-1.36546
-0.071971
-1.37174
-0.0918077
-1.42486
-0.121973
-1.43984
-0.161129
-1.52339
-0.210422
-1.54706
-0.265795
-1.64691
-0.323109
-1.672
-0.376724
-1.75508
-0.419865
-1.77067
-0.450107
-1.80936
-0.462568
-1.80767
-0.461323
-1.76752
-0.444437
-1.75626
-0.420677
-1.69635
-0.388536
-1.68277
-0.357385
-1.62354
-0.323907
-1.61142
-0.295772
-0.266811
-0.267921
-0.253756
-0.246225
-0.224287
-0.225278
-0.215111
-0.209743
-0.1938
-0.194748
-0.187406
-0.184292
-0.173189
-0.174134
-0.169036
-0.167744
-0.160437
-0.161399
-0.158026
-0.158121
-0.153589
-0.154569
-0.152412
-0.153416
-0.150744
-0.151731
-0.150393
-0.15201
-0.150719
-0.151948
-0.152037
-0.153308
-0.153599
-0.154821
-0.156691
-0.157945
-0.160475
-0.161684
-0.166088
-0.167322
-0.172778
-0.173971
-0.181417
-0.182628
-0.191193
-0.192364
-0.202657
-0.203841
-0.214905
-0.216052
-0.228209
-0.229363
-0.241654
-0.242774
-0.255394
-0.256516
-0.268631
-0.269721
-0.28155
-0.282639
-0.293557
-0.294617
-0.304939
-0.305995
-0.315319
-0.316346
-0.325051
-0.326072
-0.333905
-0.334899
-0.342244
-0.343231
-0.349902
-0.350863
-0.35721
-0.358162
-0.364029
-0.364955
-0.370651
-0.371567
-0.37698
-0.37787
-0.383287
-0.384164
-0.389522
-0.390373
-0.395965
-0.396801
-0.402595
-0.403404
-0.409655
-0.410446
-0.417142
-0.417904
-0.425263
-0.426006
-0.434024
-0.434736
-0.443626
-0.444316
-0.45412
-0.454777
-0.465754
-0.466387
-0.47868
-0.479279
-0.493233
-0.493806
-0.509679
-0.510218
-0.52841
-0.528922
-0.549735
-0.550211
-0.573981
-0.574431
-0.601328
-0.60174
-0.631863
-0.63225
-0.66545
-0.6658
-0.70176
-0.702086
-0.740232
-0.740519
-0.780108
-0.780374
-0.820486
-0.820712
-0.860354
-0.86056
-0.898732
-0.898897
-0.934683
-0.934832
-0.967492
-0.967597
-0.996584
-0.996676
-1.02172
-1.02177
-1.04279
-1.04283
-1.06003
-1.06001
-1.07367
-1.07366
-1.08427
-1.0842
-1.09219
-1.09212
-1.09805
-1.09792
-1.10218
-1.10207
-1.10514
-1.10496
-1.10709
-1.10693
-1.10848
-1.10826
-1.10932
-1.10912
-1.10996
-1.10968
-1.11027
-1.11004
-1.11059
-1.11027
-1.11069
-1.1104
-1.11085
-1.11047
-1.11088
-1.11051
-1.11093
-1.11051
-1.11092
-1.11048
-1.11087
-1.11043
-1.11084
-1.11037
-1.11075
-1.1103
-1.11072
-1.11022
-1.1106
-1.11013
-1.11056
-1.11004
-1.11043
-1.10994
-1.11039
-1.10985
-1.11027
-1.10976
-1.11023
-1.10968
-1.11012
-1.10959
-1.11009
-1.10952
-1.10999
-1.10946
-1.10997
-1.10941
-1.1099
-1.10936
-1.10988
-1.10932
-1.10984
-1.10929
-1.10983
-1.10926
-1.10981
-1.10923
-1.1098
-1.10921
-1.10979
-1.1092
-1.10979
-1.10918
-1.10978
-1.10917
-1.10978
-1.10915
-1.10977
-1.10913
-1.10976
-1.10911
-1.10973
-1.10908
-1.10971
-1.10904
-1.10962
-1.10898
-1.10958
-1.1089
-1.10943
-1.1088
-1.10933
-1.10865
-1.10909
-1.10845
-1.10886
-1.10817
-1.10848
-1.10782
-1.10806
-1.10735
-1.10745
-1.10676
-1.10675
-1.10601
-1.10581
-1.10509
-1.10472
-1.10395
-1.10336
-1.10259
-1.10177
-1.10095
-1.09987
-1.09905
-1.09771
-1.09683
-1.09521
-1.09433
-1.09244
-1.0915
-1.08933
-1.08838
-1.08596
-1.08495
-1.0823
-1.08127
-1.07841
-1.07734
-1.0743
-1.0732
-1.07001
-1.06887
-1.06556
-1.06439
-1.06096
-1.05976
-1.05625
-1.05503
-1.05142
-1.05016
-1.04648
-1.0452
-1.04139
-1.04008
-1.03619
-1.03487
-1.03081
-1.02947
-1.0253
-1.02395
-1.01958
-1.01822
-1.01372
-1.01236
-1.00766
-1.00629
-1.00149
-1.00012
-0.995147
-0.993766
-0.988757
-0.987369
-0.98224
-0.980834
-0.975752
-0.974334
-0.96919
-0.967752
-0.962723
-0.961271
-0.956219
-0.954748
-0.949855
-0.948371
-0.943462
-0.941961
-0.937226
-0.935716
-0.930946
-0.929423
-0.924824
-0.923296
-0.918625
-0.917091
-0.912581
-0.911047
-0.906424
-0.904888
-0.900424
-0.898887
-0.894283
-0.892741
-0.888307
-0.886761
-0.882161
-0.880608
-0.876192
-0.874633
-0.870024
-0.868459
-0.864047
-0.862475
-0.857837
-0.856258
-0.851827
-0.850241
-0.84554
-0.843948
-0.839462
-0.837863
-0.833061
-0.831456
-0.82688
-0.825266
-0.820326
-0.818706
-0.814011
-0.81238
-0.807279
-0.805638
-0.800813
-0.799159
-0.793885
-0.792219
-0.787261
-0.785577
-0.780132
-0.778433
-0.77335
-0.771627
-0.76602
-0.764279
-0.759084
-0.757315
-0.751556
-0.749765
-0.744482
-0.742657
-0.736769
-0.73492
-0.729577
-0.727691
-0.721705
-0.719793
-0.714435
-0.712481
-0.70644
-0.704461
-0.699135
-0.697111
-0.691058
-0.68901
-0.683763
-0.681667
-0.675637
-0.673519
-0.668383
-0.666214
-0.660222
-0.658033
-0.653015
-0.650773
-0.644809
-0.64255
-0.637639
-0.635322
-0.629362
-0.627034
-0.62221
-0.619819
-0.613843
-0.611446
-0.606707
-0.604243
-0.598256
-0.595794
-0.591171
-0.588637
-0.582685
-0.580161
-0.575726
-0.573125
-0.567288
-0.564706
-0.560561
-0.557896
-0.552274
-0.549636
-0.545888
-0.543158
-0.537841
-0.535148
-0.531886
-0.529087
-0.524145
-0.521392
-0.518674
-0.515799
-0.511263
-0.508442
-0.506295
-0.50333
-0.499202
-0.496302
-0.494726
-0.491651
-0.48791
-0.484916
-0.483889
-0.480684
-0.47729
-0.47419
-0.473679
-0.470324
-0.467228
-0.46401
-0.463976
-0.460447
-0.457612
-0.454257
-0.454707
-0.450961
-0.448429
-0.444914
-0.445939
-0.441952
-0.439826
-0.436154
-0.437908
-0.433651
-0.405725
-0.428283
-0.404033
-0.426338
-0.399273
-0.421962
-0.398014
-0.42068
-0.39474
-0.417719
-0.394064
-0.417212
-0.392541
-0.416144
-0.416663
-0.410418
-0.417677
-0.411917
-0.418306
-0.412599
-0.421076
-0.415894
-0.422569
-0.417165
-0.426651
-0.421963
-0.428891
-0.423671
-0.43388
-0.429543
-0.436646
-0.431541
-0.442206
-0.438108
-0.445313
-0.440286
-0.451213
-0.452753
-0.454573
-0.455064
-0.460662
-0.46215
-0.464274
-0.464764
-0.470526
-0.471808
-0.474428
-0.474904
-0.480879
-0.481989
-0.485136
-0.485591
-0.491834
-0.492804
-0.49651
-0.496942
-0.503498
-0.504352
-0.50864
-0.509047
-0.51595
-0.51671
-0.521582
-0.521966
-0.529228
-0.52991
-0.535333
-0.535694
-0.543286
-0.543899
-0.54982
-0.550155
-0.558008
-0.558557
-0.564888
-0.565196
-0.573231
-0.573718
-0.580342
-0.580618
-0.588733
-0.589157
-0.595971
-0.59621
-0.604329
-0.604687
-0.61161
-0.611808
-0.619898
-0.62019
-0.62719
-0.627343
-0.635395
-0.63562
-0.642701
-0.642806
-0.650837
-0.650996
-0.658179
-0.658232
-0.666272
-0.666365
-0.673655
-0.673656
-0.68172
-0.681748
-0.689139
-0.689086
-0.697156
-0.69712
-0.704583
-0.704476
-0.712523
-0.712424
-0.719907
-0.719747
-0.727732
-0.727573
-0.735033
-0.73482
-0.742688
-0.742473
-0.749872
-0.749612
-0.757347
-0.757083
-0.764384
-0.764081
-0.771658
-0.771352
-0.778529
-0.778191
-0.785604
-0.785263
-0.79232
-0.791953
-0.79919
-0.798822
-0.805734
-0.805344
-0.812413
-0.812024
-0.818799
-0.818392
-0.825297
-0.824891
-0.831538
-0.831117
-0.837901
-0.837481
-0.844033
-0.8436
-0.850282
-0.84985
-0.856338
-0.855893
-0.862507
-0.862062
-0.868538
-0.868082
-0.874667
-0.874209
-0.880682
-0.880214
-0.886798
-0.886328
-0.89282
-0.892341
-0.898933
-0.898454
-0.90497
-0.904486
-0.911094
-0.910612
-0.917165
-0.916679
-0.923342
-0.922854
-0.929493
-0.928996
-0.935759
-0.935254
-0.942035
-0.941517
-0.948413
-0.947883
-0.95481
-0.954263
-0.961322
-0.96076
-0.96782
-0.96724
-0.974373
-0.973778
-0.9809
-0.980288
-0.987415
-0.986791
-0.993825
-0.993189
-1.00017
-0.999525
-1.00636
-1.00572
-1.01242
-1.01177
-1.01828
-1.01763
-1.024
-1.02334
-1.02953
-1.02886
-1.03492
-1.03423
-1.04014
-1.03943
-1.04525
-1.04452
-1.05022
-1.04946
-1.05509
-1.0543
-1.05983
-1.05901
-1.06445
-1.0636
-1.06892
-1.06804
-1.07327
-1.07235
-1.0774
-1.07645
-1.08132
-1.08034
-1.08501
-1.08399
-1.08843
-1.08738
-1.09155
-1.09046
-1.09439
-1.09326
-1.0969
-1.09574
-1.0991
-1.09792
-1.10101
-1.0998
-1.10265
-1.10141
-1.10401
-1.10275
-1.10515
-1.10387
-1.10608
-1.10477
-1.10682
-1.1055
-1.10741
-1.10608
-1.10788
-1.10653
-1.10824
-1.10688
-1.10851
-1.10715
-1.10871
-1.10734
-1.10886
-1.10749
-1.10896
-1.10759
-1.10904
-1.10767
-1.1091
-1.10772
-1.10914
-1.10775
-1.10917
-1.10777
-1.10919
-1.10778
-1.10921
-1.10779
-1.10923
-1.10779
-1.10924
-1.10779
-1.10926
-1.1078
-1.10928
-1.1078
-1.1093
-1.10781
-1.10932
-1.10782
-1.10935
-1.10785
-1.10938
-1.10787
-1.10943
-1.10791
-1.10947
-1.10795
-1.10953
-1.10801
-1.10959
-1.10806
-1.10966
-1.10814
-1.10974
-1.1082
-1.10983
-1.10829
-1.10991
-1.10836
-1.11001
-1.10845
-1.1101
-1.10853
-1.1102
-1.10861
-1.11028
-1.10868
-1.11037
-1.10875
-1.11043
-1.10879
-1.1105
-1.10884
-1.11054
-1.10886
-1.11058
-1.10888
-1.11057
-1.10886
-1.11055
-1.10881
-1.11046
-1.10871
-1.11034
-1.10856
-1.11011
-1.10831
-1.10976
-1.10794
-1.10919
-1.10735
-1.10834
-1.10647
-1.107
-1.10511
-1.10505
-1.10313
-1.10213
-1.10018
-1.09801
-1.09605
-1.09218
-1.09018
-1.08427
-1.08225
-1.07374
-1.07169
-1.06006
-1.05799
-1.04283
-1.04072
-1.02183
-1.01969
-0.996859
-0.994694
-0.967555
-0.96536
-0.934886
-0.93266
-0.898947
-0.896691
-0.860716
-0.858429
-0.820847
-0.818529
-0.780628
-0.778278
-0.740759
-0.738379
-0.702088
-0.699675
-0.665842
-0.663397
-0.632483
-0.630005
-0.601751
-0.599241
-0.574394
-0.571849
-0.550336
-0.54776
-0.529074
-0.526464
-0.510357
-0.507716
-0.493858
-0.491183
-0.479403
-0.476699
-0.466506
-0.463769
-0.45489
-0.452125
-0.444369
-0.441572
-0.434856
-0.432034
-0.426136
-0.423284
-0.417958
-0.415085
-0.410576
-0.407674
-0.403531
-0.400609
-0.396887
-0.393938
-0.390439
-0.387473
-0.384261
-0.381268
-0.377933
-0.374926
-0.371651
-0.368619
-0.365085
-0.362041
-0.358214
-0.355144
-0.350961
-0.34788
-0.343355
-0.340248
-0.334955
-0.33184
-0.326168
-0.323024
-0.316519
-0.31337
-0.30608
-0.3029
-0.294632
-0.291449
-0.282769
-0.279555
-0.269814
-0.266599
-0.256574
-0.253324
-0.242839
-0.239593
-0.229455
-0.226172
-0.216216
-0.212941
-0.203885
-0.200571
-0.192542
-0.189242
-0.182759
-0.179417
-0.174111
-0.170789
-0.167473
-0.164106
-0.161789
-0.158449
-0.158017
-0.15463
-0.154915
-0.151563
-0.153397
-0.149992
-0.152067
-0.148707
-0.152104
-0.148383
-0.15178
-0.148731
-0.1535
-0.150401
-0.154623
-0.151582
-0.158221
-0.155996
-0.161438
-0.158414
-0.167867
-0.167094
-0.174241
-0.171235
-0.184374
-0.185467
-0.19489
-0.191883
-0.209917
-0.212462
-0.225251
-0.222201
-0.246303
-1.57917
-0.267834
-1.58798
-0.295927
-1.6384
-0.324017
-1.64993
-0.357116
-1.70955
-0.388316
-1.72299
-0.420989
-1.78386
-0.444217
-1.79505
-0.461462
-1.83535
-0.462689
-1.83706
-0.449999
-1.79849
-0.420304
-1.78285
-0.37616
-1.69912
-0.323533
-1.67441
-0.266513
-1.57406
-0.210614
-1.55038
-0.16154
-1.46646
-0.122064
-1.45149
-0.0920401
-1.39811
-0.0720937
-1.39188
-0.0579256
-1.36226
-0.0502245
-1.36084
-0.0436317
-1.26064
-0.0407307
-1.34217
-0.0367217
-1.25447
-0.0349403
-1.32918
-0.0314489
-1.30975
-0.0297817
-1.31886
-0.0266564
-1.30929
-0.0250072
-1.30929
-0.0220037
-1.28994
-0.0204397
-1.30002
-0.0177758
-1.26732
-0.0164989
-1.29176
-0.0143179
-1.24817
-0.0134877
-1.28523
-0.0119368
-1.25531
-0.0114409
-1.28091
-0.0103792
-1.2709
-0.0100302
-1.27803
-0.00914346
-1.27551
-0.00867174
-1.27545
-0.00774055
-1.27283
-0.00711403
-1.27272
-0.00615968
-1.27006
-0.00545443
-1.26993
-0.00457034
-1.26745
-0.00398954
-1.26739
-0.00335822
-1.26091
-0.00299159
-1.26543
-0.0026195
-1.26088
-0.00239859
-1.26416
-0.00210015
-1.26316
-0.00187775
-1.26315
-0.0015933
-1.2622
-0.00136343
-1.26218
-0.00109606
-1.2613
-0.000893816
-1.26129
-0.000706218
-1.25866
-0.000620247
-1.26072
-0.00056737
-1.25985
-0.000555738
-1.26061
-0.000553355
-1.26061
-0.000553391
-1.26061
-0.00055439
-1.26061
-0.000554461
-1.26061
-0.000555301
-1.26061
-0.000555459
-1.2606
-0.000556262
-1.2606
-0.000556873
-1.2606
-0.000559348
-1.2606
-0.000568243
-1.2606
-0.000566364
-1.26059
-0.000529047
-1.26056
-0.392538
-0.416148
-0.394053
-0.417223
-0.394727
-0.417735
-0.397998
-0.420701
-0.399256
-0.421988
-0.404015
-0.426367
-0.405709
-0.428321
-0.437877
-0.433692
-0.439794
-0.436201
-0.445903
-0.442005
-0.448387
-0.444964
-0.454652
-0.451
-0.457545
-0.45428
-0.463899
-0.460461
-0.467146
-0.464024
-0.473592
-0.47034
-0.477204
-0.474211
-0.483802
-0.48071
-0.487823
-0.484943
-0.494641
-0.491683
-0.499116
-0.496334
-0.506209
-0.503363
-0.511175
-0.508475
-0.518584
-0.515832
-0.524054
-0.521425
-0.531797
-0.529124
-0.537749
-0.535182
-0.545798
-0.543196
-0.552182
-0.549673
-0.560466
-0.55793
-0.567197
-0.564746
-0.575633
-0.573165
-0.582596
-0.580205
-0.591077
-0.588678
-0.598167
-0.595841
-0.60661
-0.604284
-0.613745
-0.611488
-0.622113
-0.619863
-0.629262
-0.627076
-0.637543
-0.635369
-0.644709
-0.642595
-0.652916
-0.65082
-0.660121
-0.658081
-0.668282
-0.666263
-0.675532
-0.673565
-0.683661
-0.681718
-0.690951
-0.689057
-0.699028
-0.69716
-0.706332
-0.70451
-0.714327
-0.712532
-0.721594
-0.719842
-0.729472
-0.727747
-0.736661
-0.734974
-0.744367
-0.742706
-0.751447
-0.74982
-0.758972
-0.757368
-0.765912
-0.764337
-0.773237
-0.771682
-0.780019
-0.778487
-0.787144
-0.785629
-0.793779
-0.792282
-0.8007
-0.799216
-0.80717
-0.8057
-0.813899
-0.812438
-0.820217
-0.818768
-0.826764
-0.825322
-0.832943
-0.83151
-0.839352
-0.837925
-0.845427
-0.844007
-0.851718
-0.850305
-0.857721
-0.856314
-0.863928
-0.862529
-0.86991
-0.868517
-0.876073
-0.874687
-0.882042
-0.880663
-0.88819
-0.886817
-0.894171
-0.892803
-0.900314
-0.898951
-0.906316
-0.904955
-0.912471
-0.911111
-0.918511
-0.917152
-0.924711
-0.923358
-0.930829
-0.929482
-0.937109
-0.935774
-0.94335
-0.942025
-0.949735
-0.948428
-0.956097
-0.954803
-0.96261
-0.961336
-0.969074
-0.967815
-0.975626
-0.974387
-0.982123
-0.980896
-0.988637
-0.987429
-0.995024
-0.993823
-1.00137
-1.00018
-1.00755
-1.00636
-1.01361
-1.01243
-1.01946
-1.01828
-1.02519
-1.02402
-1.0307
-1.02953
-1.03607
-1.03493
-1.04127
-1.04014
-1.04636
-1.04527
-1.0513
-1.05022
-1.05614
-1.0551
-1.06085
-1.05983
-1.06544
-1.06446
-1.06988
-1.06893
-1.07418
-1.07328
-1.07829
-1.0774
-1.08217
-1.08134
-1.08583
-1.08502
-1.0892
-1.08845
-1.09231
-1.09156
-1.09509
-1.0944
-1.09759
-1.09691
-1.09974
-1.09912
-1.10165
-1.10102
-1.10323
-1.10266
-1.1046
-1.10402
-1.10568
-1.10517
-1.10662
-1.10609
-1.10731
-1.10684
-1.10793
-1.10743
-1.10834
-1.1079
-1.10873
-1.10825
-1.10895
-1.10852
-1.1092
-1.10872
-1.10929
-1.10887
-1.10945
-1.10898
-1.1095
-1.10906
-1.10958
-1.10911
-1.1096
-1.10915
-1.10963
-1.10918
-1.10964
-1.10921
-1.10966
-1.10922
-1.10966
-1.10924
-1.10966
-1.10926
-1.10966
-1.10928
-1.10968
-1.10929
-1.10968
-1.10931
-1.10971
-1.10933
-1.10971
-1.10937
-1.10976
-1.1094
-1.10977
-1.10944
-1.10984
-1.10948
-1.10987
-1.10954
-1.10996
-1.1096
-1.10999
-1.10967
-1.1101
-1.10975
-1.11014
-1.10984
-1.11027
-1.10993
-1.11031
-1.11002
-1.11044
-1.11012
-1.11047
-1.11021
-1.11059
-1.1103
-1.11062
-1.11038
-1.11072
-1.11045
-1.11074
-1.11051
-1.11079
-1.11055
-1.1108
-1.11059
-1.11076
-1.11058
-1.11072
-1.11056
-1.11056
-1.11048
-1.11046
-1.11036
-1.11011
-1.11012
-1.10983
-1.10977
-1.10916
-1.1092
-1.10835
-1.10835
-1.10693
-1.10701
-1.10501
-1.10506
-1.10201
-1.10213
-1.09792
-1.09803
-1.09201
-1.09219
-1.08412
-1.08429
-1.07352
-1.07375
-1.05985
-1.06008
-1.04255
-1.04283
-1.02156
-1.02184
-0.996531
-0.996869
-0.967221
-0.967568
-0.934499
-0.934895
-0.89855
-0.89896
-0.86027
-0.860725
-0.820386
-0.820859
-0.780121
-0.780637
-0.740234
-0.740772
-0.701518
-0.702097
-0.665251
-0.665854
-0.63185
-0.632492
-0.601095
-0.601762
-0.573695
-0.574403
-0.549614
-0.550347
-0.528311
-0.529083
-0.509569
-0.510368
-0.49303
-0.493866
-0.478551
-0.479413
-0.465617
-0.466514
-0.453977
-0.454899
-0.44342
-0.444377
-0.433886
-0.434865
-0.425132
-0.426144
-0.416936
-0.417968
-0.409522
-0.410584
-0.40246
-0.403539
-0.395787
-0.396895
-0.389324
-0.390448
-0.383118
-0.384268
-0.376777
-0.377941
-0.370468
-0.371658
-0.363891
-0.365093
-0.356993
-0.358222
-0.349731
-0.350968
-0.342097
-0.343362
-0.33369
-0.334962
-0.324874
-0.326175
-0.31522
-0.316526
-0.30475
-0.306086
-0.293299
-0.294638
-0.281404
-0.282776
-0.268449
-0.269821
-0.255174
-0.25658
-0.241443
-0.242845
-0.228022
-0.229461
-0.214791
-0.216222
-0.202421
-0.20389
-0.191092
-0.192547
-0.181267
-0.182764
-0.172639
-0.174117
-0.165956
-0.167478
-0.160299
-0.161794
-0.15648
-0.158023
-0.153412
-0.15492
-0.151842
-0.153402
-0.150556
-0.152071
-0.150232
-0.152109
-0.15058
-0.151793
-0.15225
-0.153504
-0.153431
-0.154636
-0.157846
-0.158225
-0.160263
-0.161451
-0.168943
-0.16787
-0.173084
-0.174254
-0.187316
-0.184377
-0.193733
-0.194903
-0.2149
-0.20992
-0.224051
-0.225265
-0.253419
-0.246305
-0.266513
-0.267844
-1.6445
-0.295948
-1.65663
-0.324028
-1.71566
-0.357136
-1.7291
-0.388328
-1.78997
-0.421008
-1.80117
-0.444229
-1.84147
-0.461481
-1.84317
-0.462701
-1.80461
-0.450016
-1.78896
-0.420317
-1.70523
-0.376177
-1.68052
-0.323547
-1.58018
-0.266529
-1.55649
-0.210628
-1.47257
-0.161556
-1.45761
-0.122078
-1.40422
-0.0920556
-1.39799
-0.0721072
-1.36837
-0.0579407
-1.36695
-0.050238
-1.26675
-0.0436465
-1.34828
-0.0407442
-1.26058
-0.0367362
-1.33529
-0.0349538
-1.31586
-0.0314631
-1.32497
-0.0297951
-1.3154
-0.0266704
-1.31539
-0.0250205
-1.29605
-0.0220174
-1.30613
-0.0204528
-1.27342
-0.0177893
-1.29787
-0.0165119
-1.25428
-0.0143312
-1.29134
-0.0135005
-1.26142
-0.0119501
-1.28702
-0.0114541
-1.27701
-0.0103923
-1.28413
-0.0100432
-1.28162
-0.00915646
-1.28156
-0.00868467
-1.27894
-0.00775343
-1.27882
-0.00712683
-1.27617
-0.00617243
-1.27604
-0.00546711
-1.27355
-0.00458298
-1.2735
-0.00400211
-1.26702
-0.00337076
-1.27154
-0.00300405
-1.26699
-0.00263194
-1.27027
-0.00241096
-1.26927
-0.0021125
-1.26926
-0.00189003
-1.26831
-0.00160558
-1.26829
-0.00137563
-1.2674
-0.00110827
-1.2674
-0.00090597
-1.26477
-0.000718368
-1.26683
-0.000632363
-1.26595
-0.000579452
-1.26671
-0.000567819
-1.26671
-0.00056542
-1.26671
-0.000565444
-1.26671
-0.000566444
-1.26671
-0.000566509
-1.26671
-0.000567343
-1.26671
-0.000567499
-1.26671
-0.000568298
-1.26671
-0.00056891
-1.26671
-0.000571392
-1.2667
-0.000580307
-1.2667
-0.000578428
-1.26667
-0.000541087
)
;

boundaryField
{
    walls
    {
        type            zeroGradient;
    }
    inlet
    {
        type            cyclic;
    }
    outlet
    {
        type            cyclic;
    }
    sides
    {
        type            empty;
    }
}


// ************************************************************************* //
