/*--------------------------------*- C++ -*----------------------------------*\
| =========                 |                                                 |
| \\      /  F ield         | OpenFOAM: The Open Source CFD Toolbox           |
|  \\    /   O peration     | Version:  2106                                  |
|   \\  /    A nd           | Website:  www.openfoam.com                      |
|    \\/     M anipulation  |                                                 |
\*---------------------------------------------------------------------------*/
FoamFile
{
    version     2.0;
    format      ascii;
    arch        "LSB;label=32;scalar=64";
    class       volTensorField;
    location    "10000";
    object      grad(U);
}
// * * * * * * * * * * * * * * * * * * * * * * * * * * * * * * * * * * * * * //

dimensions      [0 0 -1 0 0 0 0];

internalField   nonuniform List<tensor> 
2560
(
(0 1.03945e-30 6.49658e-32 50.6327 -2.55826e-12 -3.4306e-13 0.0732971 -1.84444e-15 -1.30805e-16)
(0 -5.25547e-28 -3.24829e-32 50.6327 -3.9443e-31 -1.78471e-13 0.0732971 -1.31387e-28 5.03824e-17)
(-3.60483e-17 -5.10882e-25 -2.12346e-26 50.6258 2.91343e-32 -6.32364e-14 0.220937 -3.15544e-30 -1.85735e-16)
(0 -4.09822e-30 0 50.6258 -6.61736e-15 -1.55367e-13 0.220937 -1.55263e-17 -1.21672e-16)
(6.1785e-17 -4.03948e-30 -1.85654e-31 50.6189 3.16731e-12 -3.10069e-14 0.303846 -1.74853e-14 -1.83835e-16)
(-7.10633e-17 8.07896e-30 2.52467e-31 50.6189 -3.50951e-15 -9.6475e-15 0.303846 -1.82881e-17 -1.25236e-16)
(2.97546e-17 -2.42951e-30 -3.19425e-31 50.6119 -7.59223e-32 -3.10857e-14 0.308222 0 -1.92136e-16)
(0 7.96317e-30 2.48849e-31 50.6119 -5.52781e-15 -9.80767e-15 0.308222 -2.87392e-17 -1.28869e-16)
(2.76163e-16 -1.37358e-29 -9.81129e-31 50.6048 5.16944e-14 -3.20243e-14 0.312659 -7.70301e-16 -2.00819e-16)
(0 1.17736e-29 4.90565e-31 50.6048 -5.59883e-15 -9.9724e-15 0.312659 -3.94658e-17 -1.3257e-16)
(7.15965e-17 -1.01358e-29 -5.62475e-31 50.5976 -1.71096e-14 -3.28583e-14 0.31716 -6.97632e-17 -2.0822e-16)
(5.72772e-16 9.67067e-30 2.41767e-31 50.5976 -5.72959e-15 -1.01393e-14 0.31716 -5.06461e-17 -1.36344e-16)
(-9.29708e-17 -3.69923e-29 8.3613e-32 50.5899 -7.64163e-28 -3.35323e-14 0.321722 0 -2.15275e-16)
(3.71883e-16 7.62565e-30 0 50.5899 -5.83609e-15 -1.03052e-14 0.321722 -6.24379e-17 -1.40186e-16)
(-1.14653e-16 1.36767e-29 7.93144e-31 50.5817 1.00185e-14 -3.41565e-14 0.326344 -6.00757e-17 -2.22375e-16)
(4.58613e-16 -7.51636e-30 0 50.5817 -5.91484e-15 -1.04697e-14 0.326344 -7.40752e-17 -1.44089e-16)
(3.97316e-16 -9.80795e-30 -3.25082e-31 50.5723 1.00723e-14 -3.47617e-14 0.331023 -6.8337e-17 -2.29505e-16)
(0 7.40863e-30 2.3152e-31 50.5723 -6.07574e-15 -1.06338e-14 0.331023 -8.65677e-17 -1.48041e-16)
(0 3.65122e-30 2.28201e-31 50.5612 9.72568e-15 -3.53444e-14 0.335756 -6.25403e-17 -2.3663e-16)
(-2.56932e-16 0 0 50.5612 -6.05418e-15 -1.07966e-14 0.335756 -9.93776e-17 -1.52055e-16)
(-1.81596e-16 -4.80117e-30 -3.45508e-31 50.5473 1.00885e-14 -3.59013e-14 0.340533 -6.57342e-17 -2.43732e-16)
(0 1.07967e-29 8.99723e-31 50.5473 -5.85011e-15 -1.09494e-14 0.340533 -1.12108e-16 -1.56124e-16)
(4.54177e-16 -2.0131e-29 -9.96901e-31 50.5294 1.01878e-14 -3.64294e-14 0.345346 -6.92621e-17 -2.50781e-16)
(0 1.41892e-29 8.86827e-31 50.5294 -5.75622e-15 -1.10928e-14 0.345346 -1.25217e-16 -1.60237e-16)
(2.46042e-16 -3.49647e-30 -4.37058e-31 50.5057 1.02413e-14 -3.692e-14 0.35018 -6.90164e-17 -2.57677e-16)
(-2.46042e-16 6.99293e-30 4.37058e-31 50.5057 -5.76827e-15 -1.12264e-14 0.35018 -1.38244e-16 -1.6441e-16)
(-2.51477e-16 9.2833e-30 1.22228e-31 50.4739 1.07669e-14 -3.7358e-14 0.355015 -7.20338e-17 -2.6429e-16)
(1.00591e-15 -3.44635e-30 0 50.4739 -6.06506e-15 -1.13444e-14 0.355015 -1.51835e-16 -1.68633e-16)
(0 1.69848e-29 8.4924e-31 50.4313 1.12823e-14 -3.7725e-14 0.359829 -7.84341e-17 -2.70466e-16)
(0 -1.69848e-29 -8.4924e-31 50.4313 -6.42849e-15 -1.14336e-14 0.359829 -1.67044e-16 -1.72913e-16)
(-2.99751e-16 2.38497e-30 1.35432e-31 50.3743 1.11513e-14 -3.80006e-14 0.364589 -8.1503e-17 -2.76025e-16)
(1.199e-15 0 0 50.3743 -6.22523e-15 -1.1478e-14 0.364589 -1.83043e-16 -1.77201e-16)
(0 1.65014e-29 4.12535e-31 50.2986 1.0718e-14 -3.81626e-14 0.369258 -7.88343e-17 -2.80769e-16)
(-1.2976e-15 -1.65014e-29 -4.12535e-31 50.2986 -5.86023e-15 -1.14838e-14 0.369258 -1.97745e-16 -1.81457e-16)
(-4.57816e-16 1.62649e-29 4.06623e-31 50.1994 1.05061e-14 -3.81847e-14 0.37379 -7.75219e-17 -2.8444e-16)
(-9.39762e-16 -1.62649e-29 -4.06623e-31 50.1994 -5.66595e-15 -1.1447e-14 0.37379 -2.12972e-16 -1.85724e-16)
(4.51255e-16 -6.41271e-30 -4.00795e-31 50.0708 1.06216e-14 -3.80379e-14 0.37813 -7.79851e-17 -2.86773e-16)
(0 6.41271e-30 4.00795e-31 50.0708 -5.77446e-15 -1.13504e-14 0.37813 -2.28441e-16 -1.89978e-16)
(4.004e-16 1.02652e-29 6.24684e-31 49.9065 1.11051e-14 -3.76928e-14 0.382218 -8.15401e-17 -2.87476e-16)
(-1.6016e-15 -1.89624e-29 -7.90101e-31 49.9065 -6.05346e-15 -1.11797e-14 0.382218 -2.45145e-16 -1.94201e-16)
(0 1.55755e-29 7.78776e-31 49.6995 1.13817e-14 -3.71219e-14 0.385984 -8.76889e-17 -2.86285e-16)
(0 -1.55755e-29 -7.78776e-31 49.6995 -5.96147e-15 -1.09291e-14 0.385984 -2.62121e-16 -1.98335e-16)
(-4.52714e-16 -6.99691e-31 1.823e-31 49.4425 1.09561e-14 -3.63039e-14 0.389355 -8.82348e-17 -2.82976e-16)
(0 6.14092e-30 7.67614e-31 49.4425 -5.91479e-15 -1.05879e-14 0.389355 -2.77916e-16 -2.02357e-16)
(3.72541e-16 -2.18422e-29 -2.45697e-30 49.1282 1.09755e-14 -3.5224e-14 0.392253 -8.35356e-17 -2.77366e-16)
(0 2.11852e-29 1.89153e-30 49.1282 -6.50061e-15 -1.01611e-14 0.392253 -2.93658e-16 -2.06168e-16)
(0 1.19323e-29 1.11865e-30 48.7493 1.21217e-14 -3.387e-14 0.394602 -9.113e-17 -2.69254e-16)
(-2.02488e-15 -1.49154e-29 -1.49154e-30 48.7493 -7.14644e-15 -9.64815e-15 0.394602 -3.11618e-16 -2.09748e-16)
(5.33363e-16 1.23398e-29 1.26055e-30 48.2996 1.24295e-14 -3.22421e-14 0.396326 -1.04618e-16 -2.58641e-16)
(0 -1.47016e-29 -1.47016e-30 48.2996 -7.20694e-15 -9.0329e-15 0.396326 -3.29686e-16 -2.13004e-16)
(-1.9372e-15 2.21096e-29 1.88716e-30 47.7738 1.19637e-14 -3.0355e-14 0.397361 -9.88766e-17 -2.45562e-16)
(8.15764e-16 -1.73891e-29 -1.44909e-30 47.7738 -6.73067e-15 -8.33551e-15 0.397361 -3.47459e-16 -2.15896e-16)
(2.56883e-15 -2.70705e-29 -2.82789e-30 47.168 1.21036e-14 -2.82366e-14 0.397651 -9.98873e-17 -2.30253e-16)
(4.70602e-15 2.28531e-29 2.14248e-30 47.168 -5.78433e-15 -7.57023e-15 0.397651 -3.65792e-16 -2.1842e-16)
(0 -1.12628e-29 -1.40785e-30 46.4802 1.21818e-14 -2.59269e-14 0.397156 -1.04148e-16 -2.12971e-16)
(2.46365e-15 1.40785e-29 1.40785e-30 46.4802 -4.97985e-15 -6.73242e-15 0.397156 -3.81119e-16 -2.20544e-16)
(6.43652e-16 8.74855e-30 1.14069e-30 45.7108 1.21381e-14 -2.34739e-14 0.395853 -1.04161e-16 -1.94131e-16)
(-1.56238e-15 -5.55068e-30 -1.38767e-30 45.7108 -5.19574e-15 -5.85036e-15 0.395853 -3.94833e-16 -2.22136e-16)
(-1.34283e-15 4.69991e-30 5.11647e-31 44.862 1.21984e-14 -2.09344e-14 0.393741 -1.06436e-16 -1.74188e-16)
(-5.3713e-15 0 0 44.862 -6.17645e-15 -4.97479e-15 0.393741 -4.12224e-16 -2.23218e-16)
(-6.99138e-16 1.04361e-29 2.64256e-31 43.9384 1.19688e-14 -1.83687e-14 0.390836 -1.08281e-16 -1.53671e-16)
(-2.79655e-15 -2.69635e-30 0 43.9384 -6.28724e-15 -4.10451e-15 0.390836 -4.32495e-16 -2.23945e-16)
(0 1.8604e-29 1.32885e-30 42.9464 1.14015e-14 -1.58411e-14 0.387175 -1.05424e-16 -1.33166e-16)
(-2.90706e-15 -1.8604e-29 -1.32885e-30 42.9464 -5.21479e-15 -3.25471e-15 0.387175 -4.49399e-16 -2.24274e-16)
(0 -1.57177e-29 -1.30981e-30 41.8944 1.09082e-14 -1.34062e-14 0.382808 -1.011e-16 -1.13095e-16)
(3.01695e-15 1.57177e-29 1.30981e-30 41.8944 -4.62077e-15 -2.44816e-15 0.382808 -4.63397e-16 -2.24224e-16)
(-7.81494e-16 2.34088e-30 2.86218e-31 40.7916 1.09749e-14 -1.1109e-14 0.377803 -9.93796e-17 -9.39178e-17)
(0 2.58207e-30 0 40.7916 -5.29419e-15 -1.7011e-15 0.377803 -4.80083e-16 -2.23702e-16)
(-8.08482e-16 1.50627e-29 1.56479e-30 39.6483 1.15614e-14 -8.98837e-15 0.372235 -1.05313e-16 -7.59976e-17)
(0 -1.27253e-29 -1.27253e-30 39.6483 -6.35575e-15 -1.02344e-15 0.372235 -4.98381e-16 -2.22814e-16)
(-8.35151e-16 1.23678e-29 1.55191e-30 38.4749 1.14817e-14 -7.07401e-15 0.366186 -1.13467e-16 -5.96587e-17)
(-3.3406e-15 -7.52576e-30 -6.27146e-31 38.4749 -6.14165e-15 -4.05671e-16 0.366186 -5.20623e-16 -2.21527e-16)
(2.25342e-15 -9.74982e-30 -1.53862e-30 37.282 1.10012e-14 -5.38693e-15 0.35974 -1.06859e-16 -4.51335e-17)
(-1.39197e-15 7.41789e-30 1.23632e-30 37.282 -4.80064e-15 1.05617e-16 0.35974 -5.39894e-16 -2.19882e-16)
(8.87355e-16 -1.45152e-29 -6.21741e-31 36.0793 1.17347e-14 6.29325e-29 0.35298 -1.07366e-16 0)
(0 1.2186e-29 1.2186e-30 36.0793 -4.52312e-15 5.24801e-16 0.35298 -5.5705e-16 -2.18068e-16)
(-9.12818e-16 1.19323e-29 -9.96473e-30 34.876 1.18792e-14 1.2519e-14 0.345986 -1.24585e-16 -6.27293e-17)
(0 -4.80452e-30 -1.20113e-30 34.876 -4.88772e-15 8.74563e-16 0.345986 -5.79517e-16 -2.1594e-16)
(0 9.47132e-30 5.91957e-31 33.6804 9.82339e-15 1.97629e-14 0.338832 -1.13429e-16 -1.97458e-16)
(0 -1.18391e-29 -1.18391e-30 33.6804 -4.00528e-15 1.14361e-15 0.338832 -5.97574e-16 -2.13718e-16)
(-9.62336e-16 4.65655e-30 2.69215e-31 32.4997 7.97386e-15 2.00579e-14 0.331585 -8.61265e-17 -2.04457e-16)
(3.84934e-15 2.33389e-30 5.83473e-31 32.4997 -2.25137e-15 1.36095e-15 0.331585 -6.07873e-16 -2.11407e-16)
(0 -1.38027e-29 -1.15022e-30 31.3399 7.6317e-15 2.01519e-14 0.324305 -7.8318e-17 -2.09372e-16)
(3.94542e-15 1.38027e-29 1.15022e-30 31.3399 -1.80391e-15 1.51631e-15 0.324305 -6.1558e-16 -2.0888e-16)
(-2.66607e-16 1.12848e-29 3.1115e-31 30.2059 7.98876e-15 2.00938e-14 0.317044 -8.14359e-17 -2.12428e-16)
(-2.76299e-15 -1.58723e-29 -1.13374e-30 30.2059 -2.60568e-15 1.59317e-15 0.317044 -6.27275e-16 -2.06224e-16)
(1.03286e-15 -6.78757e-30 -8.07972e-31 29.1017 8.21471e-15 1.98992e-14 0.309845 -8.82494e-17 -2.14263e-16)
(0 4.46994e-30 5.58743e-31 29.1017 -2.93591e-15 1.60613e-15 0.309845 -6.36839e-16 -2.03643e-16)
(-1.05535e-15 -2.09014e-30 2.43002e-31 28.0303 8.05943e-15 1.95672e-14 0.302744 -8.87245e-17 -2.14429e-16)
(0 8.81176e-30 5.50735e-31 28.0303 -2.3909e-15 1.57857e-15 0.302744 -6.48487e-16 -2.01158e-16)
(1.07732e-15 -1.4249e-31 -2.37037e-31 26.9938 8.10161e-15 1.9145e-14 0.295771 -8.7416e-17 -2.13231e-16)
(3.08692e-15 0 0 26.9938 -1.50663e-15 1.52097e-15 0.295771 -6.55382e-16 -1.9875e-16)
(1.20485e-15 -4.28049e-30 -5.35061e-31 25.9937 8.08554e-15 1.86529e-14 0.288951 -9.22656e-17 -2.1128e-16)
(4.39517e-15 6.42073e-30 5.35061e-31 25.9937 -1.9547e-15 1.44416e-15 0.288951 -6.59824e-16 -1.96488e-16)
(-1.11977e-15 2.30955e-30 7.5314e-31 25.0309 7.47289e-15 1.80996e-14 0.282299 -8.96126e-17 -2.08327e-16)
(0 4.21914e-30 0 25.0309 -2.99475e-15 1.34206e-15 0.282299 -6.73003e-16 -1.941e-16)
(-1.14025e-15 4.38834e-30 2.20451e-31 24.1055 6.72412e-15 1.75037e-14 0.275831 -8.08837e-17 -2.04747e-16)
(0 2.07933e-30 0 24.1055 -2.56035e-15 1.22571e-15 0.275831 -6.86373e-16 -1.91837e-16)
(1.15378e-15 -6.14859e-30 -5.12383e-31 23.2174 6.17958e-15 1.68713e-14 0.269555 -7.47732e-17 -2.00531e-16)
(-1.15378e-15 6.14859e-30 5.12383e-31 23.2174 -1.59889e-15 1.08475e-15 0.269555 -6.9153e-16 -1.89577e-16)
(-2.31706e-15 2.30786e-30 2.10594e-31 22.3663 6.61729e-15 1.6225e-14 0.263477 -7.03676e-17 -1.9578e-16)
(0 6.06047e-30 5.05039e-31 22.3663 -2.69504e-15 9.27138e-16 0.263477 -6.97172e-16 -1.87567e-16)
(-2.24189e-15 1.79208e-29 9.95601e-31 21.5512 7.49478e-15 1.56101e-14 0.2576 -8.74719e-17 -1.90888e-16)
(-3.67469e-15 -1.59296e-29 -9.95601e-31 21.5512 -3.35509e-15 7.79921e-16 0.2576 -7.1307e-16 -1.85607e-16)
(-2.32245e-15 -1.14383e-29 -7.79905e-31 20.7714 7.18486e-15 1.49806e-14 0.251925 -9.38014e-17 -1.86541e-16)
(4.87028e-15 1.57013e-29 9.81332e-31 20.7714 -2.40463e-15 5.95306e-16 0.251925 -7.27109e-16 -1.83742e-16)
(0 1.35417e-29 1.4509e-30 20.0257 6.04897e-15 1.43378e-14 0.246451 -8.23759e-17 -1.80925e-16)
(0 -1.35417e-29 -1.4509e-30 20.0257 -2.71051e-15 3.99496e-16 0.246451 -7.38212e-16 -1.82259e-16)
(-1.25364e-15 9.92764e-30 1.93146e-31 19.3129 5.27924e-15 1.37349e-14 0.241175 -6.80725e-17 -1.75889e-16)
(5.01458e-15 -7.62723e-30 0 19.3129 -2.07737e-15 2.66498e-16 0.241175 -7.45641e-16 -1.80906e-16)
(2.54217e-15 -1.58751e-29 -8.48286e-31 18.6317 4.34257e-15 1.31225e-14 0.236094 -6.52115e-17 -1.70892e-16)
(5.08434e-15 1.12769e-29 4.69869e-31 18.6317 -5.90256e-16 1.47356e-16 0.236094 -7.5214e-16 -1.79273e-16)
(0 -7.41016e-30 -4.63135e-31 17.9809 2.7952e-15 1.24872e-14 0.231203 -4.58966e-17 -1.65238e-16)
(0 7.41016e-30 4.63135e-31 17.9809 -7.93112e-16 -2.42414e-17 0.231203 -7.59579e-16 -1.77897e-16)
(-1.30484e-15 -1.3491e-30 -2.74379e-31 17.3592 2.26883e-15 1.18952e-14 0.226497 -2.66125e-17 -1.59267e-16)
(0 7.30395e-30 4.56497e-31 17.3592 -7.31894e-16 -2.04167e-16 0.226497 -7.71046e-16 -1.77023e-16)
(-2.64237e-15 1.18027e-29 1.25728e-30 16.7652 3.0909e-15 1.135e-14 0.22197 -3.32608e-17 -1.54353e-16)
(5.28474e-15 -1.43985e-29 -8.99908e-31 16.7652 -4.04663e-16 -3.84092e-16 0.22197 -7.78379e-16 -1.76438e-16)
(-1.33719e-15 2.29874e-30 1.7548e-31 16.1977 3.69376e-15 1.08205e-14 0.217616 -4.95437e-17 -1.49242e-16)
(0 3.54804e-30 4.43505e-31 16.1977 -9.3251e-16 -5.49739e-16 0.217616 -7.80752e-16 -1.76019e-16)
(-1.35287e-15 2.29716e-30 -2.64744e-31 15.6553 3.35432e-15 1.0282e-14 0.213429 -5.07162e-17 -1.44399e-16)
(5.41149e-15 3.49719e-30 8.74297e-31 15.6553 3.40769e-16 -6.54498e-16 0.213429 -7.92032e-16 -1.75707e-16)
(-1.36824e-15 9.19185e-30 6.00507e-31 15.1369 2.93866e-15 4.79098e-15 0.209403 -4.15803e-17 -1.38678e-16)
(-1.94052e-15 -3.44706e-30 0 15.1369 9.53563e-16 -8.05212e-16 0.209403 -7.89508e-16 -1.7567e-16)
(-2.76662e-15 1.81856e-29 1.22514e-30 14.6412 3.0899e-15 -8.21487e-16 0.205531 -4.05058e-17 -1.74845e-17)
(-5.53324e-15 -1.35906e-29 -8.49415e-31 14.6412 2.32995e-16 -1.00297e-15 0.205531 -7.89973e-16 -1.7624e-16)
(-2.79618e-15 -8.80373e-30 -4.04044e-32 14.1672 3.06261e-15 -1.36446e-15 0.201808 -4.71157e-17 -2.17803e-17)
(1.11847e-14 1.00469e-29 1.25586e-30 14.1672 -3.09936e-18 -1.13997e-15 0.201808 -7.92025e-16 -1.77142e-16)
(-4.23776e-15 2.33946e-29 1.81027e-30 13.7137 2.42637e-15 -1.56285e-15 0.198227 -4.09021e-17 -2.38264e-17)
(-5.65035e-15 -1.65048e-29 -1.23786e-30 13.7137 -7.91097e-16 -1.2634e-15 0.198227 -7.95219e-16 -1.78281e-16)
(-1.42682e-15 -1.07171e-29 -2.14244e-31 13.2797 2.76087e-15 -1.70233e-15 0.194782 -2.98003e-17 -2.65763e-17)
(5.70728e-15 1.30146e-29 1.22012e-30 13.2797 -6.5727e-16 -1.4108e-15 0.194782 -8.0698e-16 -1.7958e-16)
(1.4408e-15 -1.19142e-29 -9.95871e-31 12.8643 3.51344e-15 -1.87981e-15 0.191467 -5.20724e-17 -2.98922e-17)
(0 9.62106e-30 8.01755e-31 12.8643 -3.53057e-16 -1.54966e-15 0.191467 -8.08399e-16 -1.81516e-16)
(0 -1.58053e-29 -3.95132e-31 12.4663 2.96437e-15 -2.02559e-15 0.188277 -5.34348e-17 -3.1828e-17)
(5.8181e-15 1.58053e-29 3.95132e-31 12.4663 6.57945e-16 -1.6848e-15 0.188277 -8.04816e-16 -1.83565e-16)
(1.75401e-15 -6.2315e-30 -3.89468e-31 12.085 2.40115e-15 -2.24182e-15 0.185206 -3.67496e-17 -3.74993e-17)
(5.87206e-15 9.34724e-30 3.89468e-31 12.085 1.41229e-15 -1.82347e-15 0.185206 -8.00522e-16 -1.8576e-16)
(-5.18661e-15 9.21327e-30 1.15166e-30 11.7196 3.26042e-15 -2.40229e-15 0.182249 -3.74665e-17 -3.78289e-17)
(5.92511e-15 -3.07109e-30 0 11.7196 -1.55824e-16 -1.94679e-15 0.182249 -8.09071e-16 -1.88512e-16)
(0 1.51354e-29 1.13515e-30 11.3691 3.88376e-15 -2.50518e-15 0.179401 -6.49651e-17 -4.18944e-17)
(0 -1.51354e-29 -1.13515e-30 11.3691 -1.35664e-15 -2.03927e-15 0.179401 -8.24416e-16 -1.91982e-16)
(-3.0143e-15 4.57369e-30 3.74425e-31 11.0328 3.30776e-15 -2.64449e-15 0.176657 -5.85376e-17 -4.34659e-17)
(0 0 0 11.0328 -1.10186e-15 -2.19028e-15 0.176657 -8.33863e-16 -1.95608e-16)
(1.65559e-15 -1.17637e-29 -7.35231e-31 10.7101 3.11162e-15 -2.77432e-15 0.174012 -4.81431e-17 -4.74037e-17)
(4.4235e-15 1.17637e-29 7.35231e-31 10.7101 -6.41688e-16 -2.3315e-15 0.174012 -8.41516e-16 -2.0045e-16)
(0 5.79755e-30 3.62347e-31 10.4003 3.06422e-15 -2.92041e-15 0.171463 -5.37833e-17 -4.96275e-17)
(6.1288e-15 -2.89877e-30 0 10.4003 -7.71078e-16 -2.42657e-15 0.171463 -8.46477e-16 -2.05246e-16)
(-1.54444e-15 2.28325e-30 1.7841e-31 10.1026 3.64462e-15 -3.02221e-15 0.169005 -4.79671e-17 -5.22484e-17)
(0 2.85723e-30 0 10.1026 -1.30607e-15 -2.50065e-15 0.169005 -8.5397e-16 -2.10496e-16)
(-2.89261e-17 3.35568e-30 8.80315e-31 9.81652 4.52019e-15 -3.12874e-15 0.166633 -7.50622e-17 -5.47501e-17)
(0 -2.81628e-30 -7.04069e-31 9.81652 -1.71712e-15 -2.61984e-15 0.166633 -8.66318e-16 -2.15542e-16)
(0 -8.32773e-30 -6.93978e-31 9.54147 4.28241e-15 -3.26624e-15 0.164344 -7.95282e-17 -5.85837e-17)
(0 8.32773e-30 6.93978e-31 9.54147 -2.18925e-15 -2.78914e-15 0.164344 -8.63642e-16 -2.21934e-16)
(0 -8.20838e-30 -3.42016e-31 9.2769 2.98268e-15 -3.36963e-15 0.162135 -6.89526e-17 -6.00189e-17)
(0 8.20838e-30 3.42016e-31 9.2769 -1.92796e-15 -2.88102e-15 0.162135 -8.67122e-16 -2.28324e-16)
(-1.66504e-15 -8.35565e-31 -1.01125e-30 9.02231 1.61078e-15 -3.46765e-15 0.160002 -3.57819e-17 -6.38253e-17)
(0 5.39382e-30 6.74227e-31 9.02231 -9.43318e-16 -2.97047e-15 0.160002 -8.79592e-16 -2.34868e-16)
(-1.60302e-15 1.29132e-29 1.66477e-31 8.77721 2.38848e-15 -3.61323e-15 0.157941 -2.16309e-17 -6.70889e-17)
(0 -1.0633e-29 0 8.77721 -1.15126e-15 -3.01403e-15 0.157941 -8.84583e-16 -2.41976e-16)
(1.61426e-15 -2.27074e-30 -1.64849e-31 8.54115 4.38751e-15 -3.66461e-15 0.15595 -7.32306e-17 -6.75971e-17)
(-9.40706e-15 0 6.55039e-31 8.54115 -3.32166e-15 -3.10312e-15 0.15595 -8.93714e-16 -2.49205e-16)
(0 -7.74781e-30 -6.45651e-31 8.31371 3.8695e-15 -3.75032e-15 0.154026 -8.81275e-17 -7.22733e-17)
(-6.50138e-15 7.74781e-30 6.45651e-31 8.31371 -3.10857e-15 -3.27963e-15 0.154026 -9.18434e-16 -2.57681e-16)
(-2.03253e-16 1.24534e-29 1.61063e-31 8.09447 3.06717e-15 -3.88398e-15 0.152165 -5.59206e-17 -7.46704e-17)
(1.16573e-14 -5.09117e-30 0 8.09447 -4.36004e-16 -3.4226e-15 0.152165 -9.25437e-16 -2.67261e-16)
(1.6471e-15 7.76738e-30 -1.59464e-31 7.88305 3.62693e-15 -3.96913e-15 0.150365 -6.01371e-17 -7.76821e-17)
(6.5884e-15 -1.25455e-29 -6.27276e-31 7.88305 -1.4907e-15 -3.47043e-15 0.150365 -9.17457e-16 -2.77267e-16)
(0 2.47314e-30 0 7.67911 3.50539e-15 -4.06639e-15 0.148623 -7.91978e-17 -8.06723e-17)
(0 2.47314e-30 0 7.67911 -2.12363e-15 -3.50776e-15 0.148623 -9.46644e-16 -2.86383e-16)
(-1.66832e-15 -9.92478e-30 -4.52541e-31 7.48228 1.76985e-15 -4.13037e-15 0.146938 -5.7132e-17 -8.25032e-17)
(6.67329e-15 1.46262e-29 1.21885e-30 7.48228 -2.37265e-16 -3.48792e-15 0.146938 -9.60269e-16 -2.96655e-16)
(1.02652e-15 1.18791e-29 1.55597e-31 7.29226 1.30492e-16 -4.17569e-15 0.145306 -1.246e-17 -8.48653e-17)
(-9.42024e-15 -4.80551e-30 0 7.29226 -3.92789e-16 -3.61651e-15 0.145306 -9.57838e-16 -3.06406e-16)
(1.68905e-15 -4.54034e-30 -7.463e-31 7.10873 2.25616e-28 -4.27675e-15 0.143725 0 -8.90589e-17)
(6.75618e-15 9.47327e-30 5.9208e-31 7.10873 -4.23378e-16 -3.85394e-15 0.143725 -9.50526e-16 -3.19197e-16)
(-1.69923e-15 1.39388e-29 7.36822e-31 6.9314 1.25822e-15 -4.38728e-15 0.142194 -2.41815e-17 -9.19439e-17)
(6.79693e-15 -1.16719e-29 -5.83594e-31 6.9314 -1.62712e-16 -3.83454e-15 0.142194 -9.28357e-16 -3.32206e-16)
(-1.7093e-15 4.56724e-30 1.52209e-31 6.76001 1.16457e-15 -4.48281e-15 0.140711 -2.77478e-17 -9.56949e-17)
(0 -2.30092e-30 0 6.76001 -1.68526e-15 -3.86386e-15 0.140711 -9.26999e-16 -3.44152e-16)
(-1.71927e-15 2.26766e-30 1.51497e-31 6.5943 1.87726e-15 -4.59484e-15 0.139272 -2.0942e-17 -9.94286e-17)
(0 4.53588e-30 5.66985e-31 6.5943 -2.03841e-15 -4.01047e-15 0.139272 -9.36275e-16 -3.57604e-16)
(-4.246e-15 -8.9159e-30 -4.07736e-31 6.43401 3.22407e-15 -4.65819e-15 0.137878 -5.90414e-17 -1.01247e-16)
(6.9165e-15 1.34126e-29 5.58858e-31 6.43401 -1.55412e-15 -4.11035e-15 0.137878 -9.42171e-16 -3.72278e-16)
(-7.41921e-16 -6.66278e-30 -7.01628e-31 6.27893 3.31107e-15 -4.68051e-15 0.136525 -7.99943e-17 -1.03324e-16)
(2.4808e-15 4.40679e-30 5.50848e-31 6.27893 -2.0505e-15 -4.11411e-15 0.136525 -9.49689e-16 -3.87064e-16)
(0 -8.68725e-30 -5.42953e-31 6.12882 2.42946e-15 -4.76532e-15 0.135212 -6.46008e-17 -1.08e-16)
(0 1.08591e-29 0 6.12882 -2.38725e-15 -4.15265e-15 0.135212 -9.59094e-16 -4.01088e-16)
(-1.75809e-15 -2.02327e-30 -3.84956e-31 5.98347 2.25795e-15 -4.86701e-15 0.133939 -4.29634e-17 -1.10958e-16)
(0 8.56274e-30 1.07034e-30 5.98347 -2.53404e-15 -4.39936e-15 0.133939 -9.85782e-16 -4.17643e-16)
(-2.37565e-15 -1.899e-29 -1.055e-30 5.8427 2.96274e-15 -4.92716e-15 0.132702 -5.87219e-17 -1.13929e-16)
(1.65161e-14 2.11e-29 1.055e-30 5.8427 -1.93903e-15 -4.5272e-15 0.132702 -1.00699e-15 -4.38026e-16)
(-2.3416e-15 2.07976e-30 5.19941e-31 5.70631 3.71234e-15 -5.02344e-15 0.131501 -7.66208e-17 -1.18699e-16)
(7.10774e-15 4.15952e-30 0 5.70631 -1.44958e-15 -4.41321e-15 0.131501 -1.00892e-15 -4.56941e-16)
(-4.09426e-15 1.86427e-29 1.68782e-30 5.57413 3.12733e-15 -5.03451e-15 0.130335 -9.54021e-17 -1.1779e-16)
(-7.14488e-15 -1.43497e-29 -1.02498e-30 5.57413 -1.59784e-15 -4.35305e-15 0.130335 -1.01722e-15 -4.73859e-16)
(4.79541e-16 8.30778e-30 1.50183e-31 5.44598 -1.9708e-16 -5.06317e-15 0.129202 -6.13899e-17 -1.23552e-16)
(-9.45665e-15 -4.04115e-30 0 5.44598 -7.57103e-16 -4.50078e-15 0.129202 -1.01933e-15 -4.9141e-16)
(2.24236e-15 5.97484e-30 0 5.3217 -1.86887e-15 -5.14921e-15 0.1281 -2.87361e-17 -1.25431e-16)
(-2.24236e-15 -1.99161e-30 0 5.3217 3.088e-16 -4.68773e-15 0.1281 -1.00185e-15 -5.13233e-16)
(0 3.50325e-46 0 5.20114 1.8392e-28 -5.30876e-15 0.127029 3.13015e-46 -1.35054e-16)
(5.04409e-15 -1.96307e-30 0 5.20114 -1.33549e-15 -4.74682e-15 0.127029 -9.91267e-16 -5.36699e-16)
(-3.56004e-16 1.71102e-29 1.29956e-30 5.08416 3.33437e-15 -5.41446e-15 0.125988 -8.48871e-17 -1.34404e-16)
(0 -1.74144e-29 -9.67466e-31 5.08416 -3.14912e-15 -4.87418e-15 0.125988 -1.0056e-15 -5.60759e-16)
(0 -2.28864e-29 -1.4304e-30 4.97061 2.45555e-15 -5.36809e-15 0.124976 -8.10278e-17 -1.36652e-16)
(1.46514e-14 2.28864e-29 1.4304e-30 4.97061 -3.05483e-15 -5.0422e-15 0.124976 -1.02185e-15 -5.86814e-16)
(0 -7.51946e-30 -9.39932e-31 4.86037 1.00712e-15 -5.48521e-15 0.123991 -4.26788e-17 -1.44385e-16)
(1.68384e-14 9.39932e-30 9.39932e-31 4.86037 -4.37313e-15 -4.95019e-15 0.123991 -1.01924e-15 -6.13095e-16)
(-3.69793e-15 6.34308e-30 3.0775e-31 4.7533 5.38822e-16 -5.64506e-15 0.123032 -8.66552e-18 -1.49023e-16)
(0 -1.85292e-30 0 4.7533 -4.23462e-15 -4.93869e-15 0.123032 -1.03901e-15 -6.35909e-16)
(-1.85763e-15 4.77743e-30 1.55663e-31 4.64929 1.47288e-15 -5.6814e-15 0.122099 -1.94147e-17 -1.50544e-16)
(1.4861e-14 0 0 4.64929 -2.17841e-15 -5.0671e-15 0.122099 -1.06672e-15 -6.62164e-16)
(1.86623e-15 -1.30341e-29 -1.56905e-31 4.54823 2.05249e-15 -5.71578e-15 0.12119 -6.41619e-17 -1.55241e-16)
(0 1.08011e-29 0 4.54823 -2.93928e-15 -5.0432e-15 0.12119 -1.07013e-15 -6.8998e-16)
(-1.87476e-15 2.23393e-30 1.58181e-31 4.44999 1.92062e-15 -5.80822e-15 0.120306 -4.54964e-17 -1.60008e-16)
(0 7.09755e-30 0 4.44999 -3.79838e-15 -5.13303e-15 0.120306 -1.09665e-15 -7.17332e-16)
(2.05507e-15 1.27244e-29 1.60167e-31 4.35449 1.99976e-15 -5.84866e-15 0.119444 -5.88326e-17 -1.62031e-16)
(3.59462e-15 -1.04937e-29 0 4.35449 -2.16797e-15 -5.21897e-15 0.119444 -1.12359e-15 -7.46942e-16)
(-1.89163e-15 5.67752e-30 1.61423e-31 4.26162 1.54807e-15 -5.95012e-15 0.118604 -5.12184e-17 -1.70403e-16)
(5.62561e-15 0 0 4.26162 -1.5312e-15 -5.29364e-15 0.118604 -1.11918e-15 -7.77542e-16)
(-3.79995e-15 1.06388e-30 3.28018e-31 4.17129 1.67923e-15 -6.00971e-15 0.117786 -3.5141e-17 -1.70179e-16)
(0 3.39836e-30 0 4.17129 -2.21371e-15 -5.25836e-15 0.117786 -1.13622e-15 -8.10833e-16)
(-1.90826e-15 1.22751e-29 1.65693e-31 4.0834 2.0737e-15 -6.024e-15 0.116989 -6.02057e-17 -1.76223e-16)
(-1.88569e-15 -6.69931e-30 0 4.0834 -2.61068e-15 -5.2961e-15 0.116989 -1.16729e-15 -8.41271e-16)
(1.85866e-15 -3.30164e-30 0 3.99787 1.69495e-15 -6.1277e-15 0.116211 -5.90162e-17 -1.81258e-16)
(-7.66594e-15 3.30164e-30 0 3.99787 -2.43146e-15 -5.52424e-15 0.116211 -1.19419e-15 -8.73982e-16)
(1.92466e-15 -1.19881e-29 -1.70145e-31 3.91462 1.36956e-15 -6.23049e-15 0.115453 -3.97149e-17 -1.87512e-16)
(7.69862e-15 9.76297e-30 0 3.91462 -2.24719e-15 -5.54201e-15 0.115453 -1.20167e-15 -9.06109e-16)
(3.73853e-15 -1.18456e-29 -1.73188e-31 3.83356 1.49851e-15 -6.27491e-15 0.114713 -4.13487e-17 -1.89254e-16)
(-9.53684e-15 9.62304e-30 0 3.83356 -2.86412e-15 -5.5264e-15 0.114713 -1.22995e-15 -9.37887e-16)
(-1.94083e-15 8.54329e-30 1.75637e-31 3.75463 2.52162e-15 -6.30395e-15 0.113992 -4.86763e-17 -1.94787e-16)
(4.20355e-15 -3.16171e-30 7.90426e-31 3.75463 -3.27811e-15 -5.65193e-15 0.113992 -1.24999e-15 -9.7203e-16)
(0 9.34917e-30 0 3.67775 4.50733e-15 -6.49798e-15 0.113288 -1.05335e-16 -2.06876e-16)
(0 -6.23278e-30 0 3.67775 -3.69946e-15 -5.81456e-15 0.113288 -1.24526e-15 -1.00811e-15)
(-3.45845e-15 1.22869e-29 2.30379e-30 3.60285 4.95731e-15 -5.93617e-15 0.112601 -1.73711e-16 -1.65012e-16)
(6.09794e-15 -6.14345e-30 0 3.60285 -2.73453e-15 -5.83038e-15 0.112601 -1.25965e-15 -1.04581e-15)
(1.9647e-15 -8.25216e-30 -1.98558e-31 3.52986 3.58507e-15 -4.21816e-15 0.11193 -1.3684e-16 -1.02858e-16)
(0 6.0554e-30 0 3.52986 -2.25712e-15 -5.74985e-15 0.11193 -1.26695e-15 -1.08222e-15)
(0 5.96861e-30 0 3.45872 3.29491e-15 -3.2163e-15 0.111275 -9.08764e-17 -1.04721e-16)
(-9.57024e-15 -2.9843e-30 0 3.45872 -3.60721e-15 -5.88317e-15 0.111275 -1.2957e-15 -1.11913e-15)
(-1.65593e-15 2.94153e-30 1.47077e-30 3.38938 3.39742e-15 -3.30327e-15 0.110635 -1.21986e-16 -1.11606e-16)
(0 5.88306e-30 0 3.38938 -2.39728e-15 -5.99412e-15 0.110635 -1.32799e-15 -1.1613e-15)
(0 8.69812e-30 0 3.32176 3.87156e-16 -3.28709e-15 0.110011 -1.00299e-16 -1.06706e-16)
(-1.6322e-15 -5.79874e-30 1.44969e-30 3.32176 1.11738e-15 -5.94433e-15 0.110011 -1.32916e-15 -1.20289e-15)
(1.99585e-15 6.3754e-30 5.11271e-31 3.25582 -2.28862e-15 -2.97175e-15 0.1094 -7.83991e-17 -9.34697e-17)
(0 -8.57345e-30 -7.14454e-31 3.25582 1.40917e-15 -6.02276e-15 0.1094 -1.27748e-15 -1.24637e-15)
(5.17502e-15 -2.16663e-30 -2.03915e-31 3.19151 -8.47623e-16 -2.71909e-15 0.108804 -1.44883e-17 -9.2431e-17)
(-3.1715e-15 -5.63371e-30 0 3.19151 -1.14169e-15 -6.24697e-15 0.108804 -1.25817e-15 -1.29403e-15)
(-4.02231e-15 7.18735e-30 4.08293e-31 3.12876 -1.14507e-15 -2.72548e-15 0.108221 -6.53073e-17 -9.66547e-17)
(8.04461e-15 -2.77648e-30 0 3.12876 -1.12488e-15 -4.76593e-15 0.108221 -1.27892e-15 -1.34458e-15)
(-2.01874e-15 -4.4152e-30 2.05356e-31 3.06753 -1.25559e-16 -2.72712e-15 0.107651 -2.20903e-18 -9.52546e-17)
(0 5.47338e-30 0 3.06753 -7.88744e-16 -2.26061e-15 0.107651 -1.28144e-15 -1.36653e-15)
(0 -7.00649e-46 0 3.00778 1.23851e-28 -2.57704e-15 0.107094 0 -8.86929e-17)
(-3.03708e-15 -8.0924e-30 0 3.00778 -1.52138e-15 -1.31343e-15 0.107094 -1.30598e-15 -1.37242e-15)
(0 7.97641e-30 0 2.94946 1.21503e-15 -2.42094e-15 0.106549 -4.43072e-17 -8.66557e-17)
(0 -2.6588e-30 0 2.94946 -1.35923e-15 -1.16293e-15 0.106549 -1.29897e-15 -1.38001e-15)
(-2.95064e-15 7.86209e-30 1.31035e-30 2.89251 1.24351e-15 -2.2914e-15 0.106016 -4.37005e-17 -8.17017e-17)
(0 -2.6207e-30 1.31035e-30 2.89251 -9.25264e-16 -1.25901e-15 0.106016 -1.29748e-15 -1.38681e-15)
(0 5.16627e-30 0 2.83691 1.21076e-15 -2.25947e-15 0.105494 -4.77134e-17 -8.67962e-17)
(1.63895e-14 -2.58314e-30 0 2.83691 -8.41083e-16 -1.44103e-15 0.105494 -1.31686e-15 -1.40038e-15)
(-4.11216e-15 1.85216e-30 4.17153e-31 2.78261 1.36849e-15 -2.42495e-15 0.104984 -4.25208e-17 -9.6703e-17)
(8.22433e-15 2.54611e-30 0 2.78261 -1.56883e-15 -1.36043e-15 0.104984 -1.29188e-15 -1.41252e-15)
(4.88902e-15 -4.70555e-30 -2.09933e-31 2.72958 1.59114e-15 -2.49616e-15 0.104485 -6.11287e-17 -9.48438e-17)
(0 5.01924e-30 0 2.72958 -3.41429e-15 -1.04673e-15 0.104485 -1.27599e-15 -1.42164e-15)
(0 2.47365e-30 0 2.67776 1.3268e-15 -2.29272e-15 0.103996 -6.09772e-17 -8.3581e-17)
(-1.10681e-14 2.47365e-30 1.23683e-30 2.67776 -3.44068e-15 -8.91046e-16 0.103996 -1.31007e-15 -1.42585e-15)
(-2.07804e-15 -7.55191e-30 2.13126e-31 2.62714 1.59421e-15 -2.26412e-15 0.103518 -4.21886e-17 -9.53467e-17)
(8.31215e-15 9.75279e-30 0 2.62714 -7.73026e-16 -8.56752e-16 0.103518 -1.3457e-15 -1.43482e-15)
(0 7.20975e-30 0 2.57767 1.88139e-15 -2.29787e-15 0.103049 -8.40403e-17 -8.87534e-17)
(0 -2.40325e-30 0 2.57767 -2.44738e-16 -6.93375e-16 0.103049 -1.35304e-15 -1.44202e-15)
(2.66704e-15 -7.10642e-30 0 2.52932 8.95776e-16 -2.11744e-15 0.10259 -6.66054e-17 -8.33637e-17)
(-2.66704e-15 7.10642e-30 0 2.52932 -2.07258e-15 -6.18361e-16 0.10259 -1.36675e-15 -1.44993e-15)
(-2.09968e-15 2.19966e-30 2.21595e-31 2.48205 -3.74585e-16 -1.86704e-15 0.102141 -3.69923e-17 -7.05487e-17)
(0 0 0 2.48205 -1.62834e-15 -7.74858e-16 0.102141 -1.40279e-15 -1.46152e-15)
(-1.62252e-15 5.60519e-45 -3.00731e-30 2.43584 8.81542e-30 -1.70423e-15 0.101701 -3.15544e-30 -7.20819e-17)
(1.68546e-14 1.84111e-29 2.30139e-30 2.43584 -4.45156e-16 -7.61665e-16 0.101701 -1.39969e-15 -1.47685e-15)
(-2.554e-15 5.79824e-31 1.1342e-30 2.39066 2.09151e-15 -1.82738e-15 0.101269 -4.43936e-17 -8.3147e-17)
(0 -4.53681e-30 0 2.39066 -3.16934e-15 -5.16565e-16 0.101269 -1.38813e-15 -1.48657e-15)
(-2.51739e-15 8.94358e-30 1.11795e-30 2.34648 3.71399e-15 -1.7424e-15 0.100846 -1.89375e-16 -6.682e-17)
(0 -2.23589e-30 1.11795e-30 2.34648 -4.54426e-15 -8.67297e-16 0.100846 -1.45239e-15 -1.49582e-15)
(-6.38426e-15 -1.11318e-29 -4.22859e-31 2.30327 2.96503e-15 -1.61064e-15 0.100432 -1.30109e-16 -7.39847e-17)
(1.70247e-14 1.98346e-29 1.10192e-30 2.30327 -2.49353e-15 -1.1779e-15 0.100432 -1.521e-15 -1.51814e-15)
(0 -1.73781e-29 -2.17226e-30 2.261 2.81299e-15 -1.80376e-15 0.100026 -1.28996e-16 -8.60236e-17)
(1.70809e-14 1.73781e-29 2.17226e-30 2.261 -3.80797e-15 -9.2919e-16 0.100026 -1.5363e-15 -1.53286e-15)
(-2.14211e-15 1.0724e-29 1.29722e-30 2.21964 2.73367e-15 -1.92236e-15 0.0996271 -1.20342e-16 -8.68981e-17)
(0 -4.28225e-30 1.07056e-30 2.21964 -4.80537e-15 -9.60548e-16 0.0996271 -1.59313e-15 -1.54665e-15)
(2.14907e-15 -2.32589e-29 -2.33798e-30 2.17918 2.79978e-15 -1.95474e-15 0.0992363 -1.25588e-16 -9.15196e-17)
(1.71926e-14 2.11044e-29 2.11044e-30 2.17918 -2.72295e-15 -1.23228e-15 0.0992363 -1.64303e-15 -1.5652e-15)
(2.34209e-15 -1.0401e-29 -2.08019e-30 2.13959 2.7716e-15 -1.89515e-15 0.098853 -1.29944e-16 -8.38865e-17)