/*--------------------------------*- C++ -*----------------------------------*\
| =========                 |                                                 |
| \\      /  F ield         | OpenFOAM: The Open Source CFD Toolbox           |
|  \\    /   O peration     | Version:  2012                                  |
|   \\  /    A nd           | Website:  www.openfoam.com                      |
|    \\/     M anipulation  |                                                 |
\*---------------------------------------------------------------------------*/
FoamFile
{
    version     2.0;
    format      ascii;
    class       volVectorField;
    location    "14000";
    object      U;
}
// * * * * * * * * * * * * * * * * * * * * * * * * * * * * * * * * * * * * * //

dimensions      [0 1 -1 0 0 0 0];


internalField   nonuniform List<vector> 
40
(
(0.241428 2.69545e-16 -2.71796e-15)
(0.241428 8.33771e-17 -1.29495e-15)
(0.744724 -2.71476e-15 -4.0641e-15)
(0.744724 -1.9242e-16 -2.09338e-15)
(0.89766 -1.02413e-15 -4.10945e-15)
(0.89766 -3.15631e-16 -4.23914e-15)
(0.967108 -1.16532e-15 -4.82303e-15)
(0.967108 -1.13507e-15 -4.88075e-15)
(1.03629 -2.9933e-16 -1.78955e-14)
(1.03629 -2.84375e-16 -1.78855e-14)
(0.241428 -1.70178e-16 6.53781e-16)
(0.241428 -8.08186e-17 4.05546e-16)
(0.744724 -5.55562e-16 2.76455e-15)
(0.744724 -4.92847e-16 2.69227e-15)
(0.89766 -5.95065e-16 4.10945e-15)
(0.89766 -5.89743e-16 4.23914e-15)
(0.967108 -1.11403e-15 4.82303e-15)
(0.967108 -1.13713e-15 4.88075e-15)
(1.03629 -2.95783e-16 1.78955e-14)
(1.03629 -2.88887e-16 1.78855e-14)
(1.03629 6.953e-16 -2.34097e-15)
(1.03629 6.87045e-16 -2.44218e-15)
(0.967108 3.8916e-17 -1.72569e-16)
(0.967108 5.49913e-17 -1.33954e-16)
(0.89766 2.58132e-17 -1.95495e-16)
(0.89766 2.32729e-17 -2.20546e-16)
(0.744724 -2.96686e-17 -1.15911e-16)
(0.744724 -3.70186e-17 -1.63421e-16)
(0.241428 8.13368e-19 -4.7492e-17)
(0.241428 -1.20971e-17 -1.31834e-16)
(1.03629 7.2061e-16 2.20482e-15)
(1.03629 7.09671e-16 2.31398e-15)
(0.967108 4.70693e-17 1.07927e-16)
(0.967108 3.36013e-17 1.5569e-16)
(0.89766 7.95292e-18 3.74103e-16)
(0.89766 1.09096e-17 3.17353e-16)
(0.744724 -2.76928e-17 1.29503e-16)
(0.744724 -2.29495e-17 9.91297e-17)
(0.241428 -2.97602e-18 5.81331e-17)
(0.241428 6.29363e-18 4.9701e-17)
)
;

boundaryField
{
    walls
    {
        type            fixedValue;
        value           uniform (0 0 0);
    }
    inlet
    {
        type            cyclic;
    }
    outlet
    {
        type            cyclic;
    }
    sides
    {
        type            empty;
    }
}


// ************************************************************************* //
