/*--------------------------------*- C++ -*----------------------------------*\
| =========                 |                                                 |
| \\      /  F ield         | OpenFOAM: The Open Source CFD Toolbox           |
|  \\    /   O peration     | Version:  2106                                  |
|   \\  /    A nd           | Website:  www.openfoam.com                      |
|    \\/     M anipulation  |                                                 |
\*---------------------------------------------------------------------------*/
FoamFile
{
    version     2.0;
    format      ascii;
    arch        "LSB;label=32;scalar=64";
    class       surfaceScalarField;
    location    "4000";
    object      phi;
}
// * * * * * * * * * * * * * * * * * * * * * * * * * * * * * * * * * * * * * //

dimensions      [0 3 -1 0 0 0 0];

oriented        oriented;

internalField   nonuniform List<scalar> 
5116
(
1.33441e-07
-6.13666e-18
1.35959e-21
-7.73815e-22
1.31153e-21
4.0809e-07
-6.16158e-18
1.07675e-20
8.28554e-21
5.04364e-21
6.94632e-07
-6.18748e-18
1.11981e-20
1.78102e-20
5.25571e-21
9.93029e-07
-6.2143e-18
1.15935e-20
2.73649e-20
5.45692e-21
1.30201e-06
-6.24171e-18
1.18888e-20
3.75745e-20
5.61116e-21
1.61776e-06
-6.26984e-18
1.19666e-20
4.7997e-20
5.66258e-21
1.93338e-06
-6.29675e-18
1.17276e-20
5.82312e-20
5.56381e-21
2.24054e-06
-6.32288e-18
1.11716e-20
6.75029e-20
5.31395e-21
2.53251e-06
-6.34678e-18
1.04037e-20
7.596e-20
4.96233e-21
2.80605e-06
-6.3686e-18
9.56112e-21
8.40494e-20
4.57384e-21
3.06103e-06
-6.3887e-18
8.74568e-21
9.17513e-20
4.19707e-21
3.29913e-06
-6.40728e-18
8.00888e-21
9.91239e-20
3.85681e-21
3.5227e-06
-6.42512e-18
7.3663e-21
1.05483e-19
3.56076e-21
3.73412e-06
-6.44015e-18
6.81498e-21
1.10491e-19
3.30778e-21
3.93552e-06
-6.45445e-18
6.34462e-21
1.14959e-19
3.09317e-21
4.12875e-06
-6.46747e-18
5.94331e-21
1.1979e-19
2.9114e-21
4.31534e-06
-6.48051e-18
5.59985e-21
1.24389e-19
2.75723e-21
4.49656e-06
-6.4924e-18
5.30453e-21
1.28473e-19
2.62611e-21
4.67345e-06
-6.50542e-18
5.04924e-21
1.31262e-19
2.51426e-21
4.8469e-06
-6.51568e-18
4.82737e-21
1.35331e-19
2.41859e-21
5.01763e-06
-6.52648e-18
4.63348e-21
1.38824e-19
2.33653e-21
5.18626e-06
-6.53725e-18
4.46316e-21
1.42727e-19
2.26602e-21
5.35331e-06
-6.54797e-18
4.31283e-21
1.44983e-19
2.20533e-21
5.51922e-06
-6.55715e-18
4.17955e-21
1.48102e-19
2.15312e-21
5.68439e-06
-6.56611e-18
4.06086e-21
1.49817e-19
2.10822e-21
5.84914e-06
-6.57393e-18
3.95477e-21
1.51832e-19
2.0697e-21
6.01376e-06
-6.58249e-18
3.85957e-21
1.54529e-19
2.03676e-21
6.17852e-06
-6.5914e-18
3.77387e-21
1.56917e-19
2.00874e-21
6.34365e-06
-6.60021e-18
3.6965e-21
1.58947e-19
1.98509e-21
6.50934e-06
-6.60786e-18
3.62641e-21
1.61149e-19
1.96539e-21
6.67579e-06
-6.61513e-18
3.56273e-21
1.63648e-19
1.94918e-21
6.84316e-06
-6.62224e-18
3.50471e-21
1.655e-19
1.93609e-21
7.0116e-06
-6.62968e-18
3.45169e-21
1.6801e-19
1.92581e-21
7.18126e-06
-6.63689e-18
3.40308e-21
1.70223e-19
1.91815e-21
7.35227e-06
-6.64376e-18
3.35843e-21
1.72284e-19
1.91291e-21
7.52474e-06
-6.6509e-18
3.31726e-21
1.75572e-19
1.90988e-21
7.69879e-06
-6.65846e-18
3.27917e-21
1.78248e-19
1.90884e-21
7.87452e-06
-6.66626e-18
3.24393e-21
1.80748e-19
1.9096e-21
8.05204e-06
-6.67153e-18
3.21116e-21
1.81637e-19
1.91214e-21
8.23144e-06
-6.67965e-18
3.18055e-21
1.83601e-19
1.91625e-21
8.41282e-06
-6.68739e-18
3.15189e-21
1.85814e-19
1.92185e-21
8.59625e-06
-6.6962e-18
3.12503e-21
1.88208e-19
1.92884e-21
8.78183e-06
-6.70347e-18
3.09973e-21
1.90611e-19
1.9371e-21
8.96963e-06
-6.71148e-18
3.07572e-21
1.92576e-19
1.94662e-21
9.15974e-06
-6.72017e-18
3.05284e-21
1.95309e-19
1.95728e-21
9.35222e-06
-6.72637e-18
3.03101e-21
1.96207e-19
1.969e-21
9.54715e-06
-6.73516e-18
3.01005e-21
1.96775e-19
1.98176e-21
9.74462e-06
-6.74226e-18
2.98989e-21
1.98837e-19
1.99551e-21
9.94467e-06
-6.74885e-18
2.97035e-21
1.99991e-19
2.01018e-21
1.01474e-05
-6.75408e-18
2.95132e-21
2.00093e-19
2.02568e-21
1.03529e-05
-6.7594e-18
2.93274e-21
2.01122e-19
2.04197e-21
1.05611e-05
-6.76273e-18
2.91455e-21
2.01427e-19
2.05895e-21
1.07723e-05
-6.76845e-18
2.89655e-21
2.03618e-19
2.07666e-21
1.09863e-05
-6.77275e-18
2.87875e-21
2.02022e-19
2.09502e-21
1.12034e-05
-6.77775e-18
2.86094e-21
2.01375e-19
2.11419e-21
1.14236e-05
-6.78574e-18
2.84308e-21
2.01955e-19
2.13405e-21
1.16469e-05
-6.79128e-18
2.82527e-21
2.02046e-19
2.15454e-21
1.18734e-05
-6.79629e-18
2.80738e-21
2.01755e-19
2.17549e-21
1.21031e-05
-6.8009e-18
2.78933e-21
2.01144e-19
2.19683e-21
1.23362e-05
-6.80617e-18
2.77104e-21
1.99415e-19
2.21864e-21
1.25727e-05
-6.8092e-18
2.75249e-21
1.97805e-19
2.24088e-21
1.28127e-05
-6.81432e-18
2.73351e-21
1.97214e-19
2.2635e-21
1.30562e-05
-6.81783e-18
2.7141e-21
1.95281e-19
2.28639e-21
1.33033e-05
-6.81937e-18
2.69414e-21
1.94167e-19
2.30985e-21
1.35541e-05
-6.8216e-18
2.67338e-21
1.93861e-19
2.33382e-21
1.38086e-05
-6.82524e-18
2.65171e-21
1.90898e-19
2.35813e-21
1.40669e-05
-6.82685e-18
2.62915e-21
1.88054e-19
2.38327e-21
1.43291e-05
-6.82994e-18
2.60557e-21
1.85468e-19
2.40902e-21
1.45952e-05
-6.83777e-18
2.58097e-21
1.86043e-19
2.43541e-21
1.48654e-05
-6.83865e-18
2.55567e-21
1.87266e-19
2.46241e-21
1.51396e-05
-6.84251e-18
2.5292e-21
1.86483e-19
2.48979e-21
1.54179e-05
-6.84557e-18
2.50173e-21
1.82211e-19
2.51746e-21
1.57005e-05
-6.84596e-18
2.47292e-21
1.77557e-19
2.54573e-21
1.59874e-05
-6.84138e-18
2.4426e-21
1.72471e-19
2.57438e-21
1.62786e-05
-6.84151e-18
2.41044e-21
1.6896e-19
2.60344e-21
1.65743e-05
-6.83922e-18
2.37648e-21
1.62308e-19
2.63293e-21
1.68745e-05
-6.83784e-18
2.34033e-21
1.56573e-19
2.66291e-21
1.71793e-05
-6.83562e-18
2.30205e-21
1.5059e-19
2.69317e-21
1.74887e-05
-6.84023e-18
2.26144e-21
1.43831e-19
2.72418e-21
1.78029e-05
-6.84515e-18
2.21936e-21
1.45295e-19
2.75544e-21
1.81219e-05
-6.84966e-18
2.17533e-21
1.46337e-19
2.78605e-21
1.84458e-05
-6.85097e-18
2.1298e-21
1.45284e-19
2.81551e-21
1.87746e-05
-6.85567e-18
2.08223e-21
1.48853e-19
2.84444e-21
1.91085e-05
-6.85757e-18
2.03307e-21
1.46722e-19
2.87277e-21
1.94476e-05
-6.85995e-18
1.98182e-21
1.43596e-19
2.90105e-21
1.97918e-05
-6.85864e-18
1.92848e-21
1.37398e-19
2.92883e-21
2.01414e-05
-6.86242e-18
1.87274e-21
1.34204e-19
2.95584e-21
2.04963e-05
-6.86271e-18
1.81524e-21
1.33696e-19
2.98162e-21
2.08568e-05
-6.8622e-18
1.75564e-21
1.30407e-19
3.00559e-21
2.12227e-05
-6.8636e-18
1.69403e-21
1.25908e-19
3.02857e-21
2.15943e-05
-6.86353e-18
1.63038e-21
1.19888e-19
3.05044e-21
2.19717e-05
-6.85698e-18
1.56483e-21
1.17182e-19
3.0712e-21
2.23549e-05
-6.85918e-18
1.49657e-21
1.10485e-19
3.09082e-21
2.27439e-05
-6.8624e-18
1.42645e-21
1.04401e-19
3.11061e-21
2.3139e-05
-6.86354e-18
1.35428e-21
1.01835e-19
3.12968e-21
2.35402e-05
-6.86863e-18
1.27956e-21
9.37928e-20
3.14775e-21
2.39476e-05
-6.86319e-18
1.20275e-21
8.76584e-20
3.16646e-21
2.43612e-05
-6.859e-18
1.12219e-21
7.92322e-20
3.18573e-21
2.47813e-05
-6.85524e-18
1.03773e-21
7.02717e-20
3.20487e-21
2.52078e-05
-6.85022e-18
9.50022e-22
6.1898e-20
3.22364e-21
2.56409e-05
-6.84579e-18
8.58675e-22
5.50935e-20
3.24105e-21
2.60807e-05
-6.83886e-18
7.64841e-22
4.50607e-20
3.25785e-21
2.65272e-05
-6.83286e-18
6.66363e-22
3.15825e-20
3.27506e-21
2.69807e-05
-6.82841e-18
5.64159e-22
2.23944e-20
3.2931e-21
2.74412e-05
-6.81994e-18
4.59794e-22
1.02369e-20
3.31046e-21
2.79087e-05
-6.81289e-18
3.51132e-22
-3.21159e-21
3.32718e-21
2.83835e-05
-6.81404e-18
2.40702e-22
-1.09721e-20
3.34504e-21
2.88656e-05
-6.81111e-18
1.29221e-22
-1.98227e-20
3.36095e-21
2.93551e-05
-6.80847e-18
1.5696e-23
-2.82126e-20
3.37584e-21
2.98521e-05
-6.79864e-18
-9.98695e-23
-3.343e-20
3.38989e-21
3.03568e-05
-6.79531e-18
-2.18829e-22
-4.13945e-20
3.40242e-21
3.08693e-05
-6.78351e-18
-3.39551e-22
-5.53789e-20
3.41367e-21
3.13897e-05
-6.77396e-18
-4.65318e-22
-7.22067e-20
3.42462e-21
3.19181e-05
-6.75867e-18
-5.95514e-22
-9.12294e-20
3.43579e-21
3.24546e-05
-6.75644e-18
-7.31263e-22
-9.60584e-20
3.44837e-21
3.29994e-05
-6.74743e-18
-8.7131e-22
-1.03079e-19
3.45995e-21
3.35525e-05
-6.74561e-18
-1.01276e-21
-1.10503e-19
3.47005e-21
3.41142e-05
-6.72984e-18
-1.15555e-21
-1.23293e-19
3.47698e-21
3.46845e-05
-6.7232e-18
-1.30095e-21
-1.34592e-19
3.48333e-21
3.52635e-05
-6.70933e-18
-1.44583e-21
-1.4024e-19
3.48866e-21
3.58515e-05
-6.69903e-18
-1.59286e-21
-1.52564e-19
3.49064e-21
3.64484e-05
-6.68658e-18
-1.74184e-21
-1.61721e-19
3.4934e-21
3.70546e-05
-6.67716e-18
-1.89046e-21
-1.73382e-19
3.49411e-21
3.767e-05
-6.66106e-18
-2.04246e-21
-1.89377e-19
3.49292e-21
3.82948e-05
-6.65461e-18
-2.1994e-21
-2.03336e-19
3.49167e-21
3.89293e-05
-6.63457e-18
-2.3578e-21
-2.19012e-19
3.49114e-21
3.95734e-05
-6.623e-18
-2.51868e-21
-2.40192e-19
3.49096e-21
4.02275e-05
-6.60241e-18
-2.68056e-21
-2.55336e-19
3.49154e-21
4.08915e-05
-6.57818e-18
-2.84335e-21
-2.68502e-19
3.49226e-21
4.15657e-05
-6.56172e-18
-3.01196e-21
-2.81662e-19
3.49377e-21
4.22502e-05
-6.54077e-18
-3.18411e-21
-3.00359e-19
3.49587e-21
4.29452e-05
-6.52603e-18
-3.36249e-21
-3.06713e-19
3.49958e-21
4.36508e-05
-6.5045e-18
-3.53931e-21
-3.26181e-19
3.49677e-21
4.43672e-05
-6.48107e-18
-3.72013e-21
-3.44429e-19
3.49339e-21
4.50945e-05
-6.45394e-18
-3.90682e-21
-3.61021e-19
3.49126e-21
4.58329e-05
-6.43319e-18
-4.09899e-21
-3.83137e-19
3.484e-21
4.65826e-05
-6.41044e-18
-4.29445e-21
-4.03177e-19
3.47196e-21
4.73438e-05
-6.39887e-18
-4.48924e-21
-4.26853e-19
3.45553e-21
4.81165e-05
-6.37544e-18
-4.68073e-21
-4.54555e-19
3.43856e-21
4.8901e-05
-6.35519e-18
-4.87419e-21
-4.5763e-19
3.42031e-21
4.96975e-05
-6.34113e-18
-5.06615e-21
-4.73868e-19
3.39286e-21
5.05061e-05
-6.32759e-18
-5.25508e-21
-4.80133e-19
3.36594e-21
5.1327e-05
-6.31493e-18
-5.44337e-21
-4.98878e-19
3.32893e-21
5.21604e-05
-6.29066e-18
-5.62879e-21
-5.12457e-19
3.28962e-21
5.30065e-05
-6.2717e-18
-5.81758e-21
-5.33927e-19
3.24995e-21
5.38654e-05
-6.25088e-18
-6.0063e-21
-5.54275e-19
3.21581e-21
5.47374e-05
-6.22178e-18
-6.19454e-21
-5.77806e-19
3.1819e-21
5.56226e-05
-6.18985e-18
-6.38666e-21
-6.02564e-19
3.14735e-21
5.65212e-05
-6.17351e-18
-6.58633e-21
-6.26838e-19
3.11858e-21
5.74335e-05
-6.14247e-18
-6.78003e-21
-6.54325e-19
3.09228e-21
5.83597e-05
-6.11633e-18
-6.97722e-21
-6.7644e-19
3.06644e-21
5.92999e-05
-6.08511e-18
-7.17387e-21
-7.07408e-19
3.03831e-21
6.02543e-05
-6.05508e-18
-7.37416e-21
-7.41091e-19
3.00806e-21
6.12232e-05
-6.04068e-18
-7.57717e-21
-7.61203e-19
2.97911e-21
6.22067e-05
-6.0129e-18
-7.7653e-21
-7.74972e-19
2.95686e-21
6.32052e-05
-6.00224e-18
-7.95733e-21
-7.84218e-19
2.92928e-21
6.42187e-05
-5.96608e-18
-8.1404e-21
-7.98156e-19
2.90036e-21
6.52476e-05
-5.93673e-18
-8.3128e-21
-8.11957e-19
2.87031e-21
6.6292e-05
-5.90422e-18
-8.4715e-21
-8.38622e-19
2.8383e-21
6.73523e-05
-5.85645e-18
-8.63678e-21
-8.64376e-19
2.81343e-21
6.84285e-05
-5.80442e-18
-8.80258e-21
-8.79988e-19
2.80024e-21
6.9521e-05
-5.7789e-18
-8.98834e-21
-9.01296e-19
2.80261e-21
7.06299e-05
-5.775e-18
-9.17798e-21
-9.102e-19
2.80656e-21
7.17556e-05
-5.71505e-18
-9.34454e-21
-9.50198e-19
2.78996e-21
7.28983e-05
-5.69023e-18
-9.55104e-21
-9.84812e-19
2.77066e-21
7.40581e-05
-5.65749e-18
-9.74304e-21
-1.01262e-18
2.7542e-21
7.52355e-05
-5.61627e-18
-9.94155e-21
-1.04976e-18
2.74545e-21
7.64306e-05
-5.58049e-18
-1.01463e-20
-1.07941e-18
2.74139e-21
7.76436e-05
-5.52832e-18
-1.03453e-20
-1.1107e-18
2.7328e-21
7.8875e-05
-5.49909e-18
-1.05476e-20
-1.14338e-18
2.70923e-21
8.01248e-05
-5.44146e-18
-1.0714e-20
-1.18329e-18
2.6759e-21
8.13934e-05
-5.38756e-18
-1.08778e-20
-1.22446e-18
2.64179e-21
8.26811e-05
-5.33607e-18
-1.10526e-20
-1.26903e-18
2.61869e-21
8.39881e-05
-5.29626e-18
-1.12264e-20
-1.28464e-18
2.60307e-21
8.53148e-05
-5.23916e-18
-1.1374e-20
-1.3317e-18
2.55806e-21
8.66613e-05
-5.18543e-18
-1.15502e-20
-1.36733e-18
2.53105e-21
8.80281e-05
-5.14264e-18
-1.17512e-20
-1.38965e-18
2.50045e-21
8.94153e-05
-5.10128e-18
-1.19576e-20
-1.40949e-18
2.45132e-21
9.08233e-05
-5.07815e-18
-1.21688e-20
-1.4264e-18
2.4038e-21
9.22524e-05
-5.04842e-18
-1.2374e-20
-1.44758e-18
2.3646e-21
9.3703e-05
-5.00387e-18
-1.25734e-20
-1.4706e-18
2.32685e-21
9.51752e-05
-4.97698e-18
-1.27759e-20
-1.48894e-18
2.26157e-21
9.66694e-05
-4.93709e-18
-1.2974e-20
-1.52039e-18
2.21024e-21
9.8186e-05
-4.90066e-18
-1.31612e-20
-1.53936e-18
2.20846e-21
9.97252e-05
-4.86494e-18
-1.33077e-20
-1.5723e-18
2.1878e-21
0.000101287
-4.82252e-18
-1.34769e-20
-1.59984e-18
2.15405e-21
0.000102873
-4.81317e-18
-1.365e-20
-1.61591e-18
2.13339e-21
0.000104482
-4.78728e-18
-1.37856e-20
-1.62551e-18
2.15043e-21
0.000106115
-4.76536e-18
-1.38422e-20
-1.64975e-18
2.13169e-21
0.000107773
-4.7374e-18
-1.38714e-20
-1.66463e-18
2.09252e-21
0.000109455
-4.69684e-18
-1.38489e-20
-1.6909e-18
2.01166e-21
0.000111163
-4.65636e-18
-1.38403e-20
-1.72182e-18
1.91285e-21
0.000112895
-4.61721e-18
-1.38383e-20
-1.74849e-18
1.78507e-21
0.000114654
-4.57925e-18
-1.38252e-20
-1.76865e-18
1.63377e-21
0.000116439
-4.53959e-18
-1.38183e-20
-1.79763e-18
1.465e-21
0.00011825
-4.50312e-18
-1.38049e-20
-1.82929e-18
1.23785e-21
0.000120088
-4.47068e-18
-1.37739e-20
-1.845e-18
1.02685e-21
0.000121953
-4.43625e-18
-1.3652e-20
-1.87291e-18
7.78172e-22
0.000123847
-4.37701e-18
-1.35291e-20
-1.92726e-18
4.78797e-22
0.000125768
-4.32098e-18
-1.35349e-20
-1.98209e-18
1.9228e-22
0.000127717
-4.23636e-18
-1.35195e-20
-2.05842e-18
-3.09032e-23
0.000129696
-4.19301e-18
-1.35252e-20
-2.11421e-18
-1.03356e-22
0.000131704
-4.11766e-18
-1.34607e-20
-2.1454e-18
-2.44163e-22
0.000133742
-4.07299e-18
-1.34624e-20
-2.2211e-18
-4.45572e-22
0.000135809
-4.00709e-18
-1.3404e-20
-2.26455e-18
-5.50559e-22
0.000137908
-3.95497e-18
-1.33892e-20
-2.30511e-18
-6.61308e-22
0.000140037
-3.90645e-18
-1.33694e-20
-2.34619e-18
-8.31963e-22
0.000142198
-3.85158e-18
-1.33163e-20
-2.39098e-18
-1.01633e-21
0.00014439
-3.80083e-18
-1.32806e-20
-2.42967e-18
-1.24583e-21
0.000146615
-3.74911e-18
-1.32625e-20
-2.47377e-18
-1.52765e-21
0.000148873
-3.69326e-18
-1.3164e-20
-2.52267e-18
-1.65469e-21
0.000151164
-3.66072e-18
-1.3046e-20
-2.52148e-18
-1.79572e-21
0.000153489
-3.61074e-18
-1.28632e-20
-2.55614e-18
-2.09999e-21
0.000155848
-3.57024e-18
-1.28185e-20
-2.5586e-18
-2.32162e-21
0.000158241
-3.53229e-18
-1.28573e-20
-2.57593e-18
-2.5549e-21
0.00016067
-3.47307e-18
-1.27717e-20
-2.59788e-18
-2.88304e-21
0.000163135
-3.43004e-18
-1.27325e-20
-2.62584e-18
-3.19262e-21
0.000165635
-3.39363e-18
-1.2885e-20
-2.65057e-18
-3.53467e-21
0.000168173
-3.35035e-18
-1.31242e-20
-2.6672e-18
-3.87916e-21
0.000170747
-3.31487e-18
-1.31797e-20
-2.64392e-18
-4.22956e-21
0.000173359
-3.30606e-18
-1.32018e-20
-2.66053e-18
-4.80077e-21
0.00017601
-3.28269e-18
-1.29672e-20
-2.66714e-18
-5.12593e-21
0.000178699
-3.26131e-18
-1.28456e-20
-2.6759e-18
-5.43858e-21
0.000181427
-3.22359e-18
-1.28001e-20
-2.67797e-18
-5.41684e-21
0.000184195
-3.19339e-18
-1.28232e-20
-2.62726e-18
-5.35159e-21
0.000187004
-3.16253e-18
-1.28476e-20
-2.64964e-18
-5.67503e-21
0.000189853
-3.11819e-18
-1.24666e-20
-2.64335e-18
-5.85569e-21
0.000192744
-3.08525e-18
-1.24955e-20
-2.62819e-18
-5.87239e-21
0.000195677
-3.06239e-18
-1.31056e-20
-2.65624e-18
-5.92361e-21
0.000198653
-3.03508e-18
-1.35187e-20
-2.65694e-18
-6.2773e-21
0.000201672
-3.04256e-18
-1.40696e-20
-2.65881e-18
-6.59882e-21
0.000204735
-3.03419e-18
-1.43142e-20
-2.68116e-18
-6.92149e-21
0.000207842
-2.99309e-18
-1.43915e-20
-2.6394e-18
-7.17628e-21
0.000210994
-2.98519e-18
-1.45888e-20
-2.62625e-18
-7.89408e-21
0.000214192
-2.94041e-18
-1.47363e-20
-2.61441e-18
-8.665e-21
0.000217436
-2.92831e-18
-1.50235e-20
-2.60515e-18
-9.3917e-21
0.000220727
-2.90225e-18
-1.52538e-20
-2.59467e-18
-1.00652e-20
0.000224065
-2.90835e-18
-1.58444e-20
-2.57265e-18
-1.05042e-20
0.000227452
-2.89934e-18
-1.61376e-20
-2.55615e-18
-1.14145e-20
0.000230887
-2.88952e-18
-1.61451e-20
-2.52469e-18
-1.22077e-20
0.000234372
-2.81586e-18
-1.59205e-20
-2.54813e-18
-1.30144e-20
0.000237907
-2.81686e-18
-1.64977e-20
-2.51004e-18
-1.36506e-20
0.000241493
-2.77857e-18
-1.65802e-20
-2.51684e-18
-1.46039e-20
0.00024513
-2.79513e-18
-1.70962e-20
-2.58506e-18
-1.54282e-20
0.000248819
-2.76116e-18
-1.67329e-20
-2.57252e-18
-1.52449e-20
0.000252562
-2.75481e-18
-1.62593e-20
-2.57626e-18
-1.5144e-20
0.000256358
-2.69762e-18
-1.50982e-20
-2.58855e-18
-1.5305e-20
0.000260208
-2.63687e-18
-1.4731e-20
-2.54806e-18
-1.54416e-20
0.000264113
-2.64256e-18
-1.51537e-20
-2.56135e-18
-1.56239e-20
0.000268074
-2.53917e-18
-1.45853e-20
-2.56828e-18
-1.57947e-20
0.000272092
-2.54984e-18
-1.45819e-20
-2.57201e-18
-1.59738e-20
0.000276167
-2.5513e-18
-1.38515e-20
-2.54868e-18
-1.59791e-20
0.0002803
-2.49378e-18
-1.27566e-20
-2.58265e-18
-1.64042e-20
0.000284492
-2.52176e-18
-1.20813e-20
-2.4974e-18
-1.61188e-20
0.000288744
-2.46972e-18
-1.08654e-20
-2.45401e-18
-1.79127e-20
0.000293057
-2.46915e-18
-1.05272e-20
-2.45437e-18
-1.90867e-20
0.00029743
-2.47377e-18
-1.14621e-20
-2.49147e-18
-1.93628e-20
0.000301866
-2.44783e-18
-1.23081e-20
-2.49075e-18
-1.89553e-20
0.000306365
-2.41681e-18
-1.296e-20
-2.4336e-18
-1.72926e-20
0.000310928
-2.47506e-18
-1.39685e-20
-2.36016e-18
-1.72018e-20
0.000315556
-2.40995e-18
-1.42704e-20
-2.41919e-18
-1.86168e-20
0.00032025
-2.33894e-18
-1.52236e-20
-2.42529e-18
-1.78355e-20
0.00032501
-2.38627e-18
-1.73171e-20
-2.41279e-18
-1.76526e-20
0.000329838
-2.35414e-18
-1.80885e-20
-2.35383e-18
-1.81283e-20
0.000334734
-2.33033e-18
-1.8295e-20
-2.35999e-18
-1.93231e-20
0.0003397
-2.28948e-18
-1.75769e-20
-2.31119e-18
-2.01333e-20
0.000344737
-2.24819e-18
-1.63673e-20
-2.29431e-18
-2.13934e-20
0.000349845
-2.31395e-18
-1.59051e-20
-2.18539e-18
-2.21682e-20
0.000355026
-2.25576e-18
-1.48399e-20
-2.16999e-18
-2.36362e-20
0.00036028
-2.25405e-18
-1.57609e-20
-2.15487e-18
-2.3658e-20
0.000365609
-2.24013e-18
-1.57148e-20
-2.12867e-18
-2.42801e-20
0.000371014
-2.23005e-18
-1.44805e-20
-2.12701e-18
-2.59439e-20
0.000376496
-2.20717e-18
-1.44663e-20
-2.19133e-18
-2.68318e-20
0.000382056
-2.08653e-18
-1.30955e-20
-2.27083e-18
-2.60004e-20
0.000387695
-2.07891e-18
-1.33824e-20
-2.1669e-18
-2.29323e-20
0.000393414
-2.04785e-18
-1.48691e-20
-2.16018e-18
-2.00757e-20
0.000399215
-2.11752e-18
-1.61002e-20
-2.09203e-18
-1.68455e-20
0.000405099
-2.09828e-18
-1.5185e-20
-2.0445e-18
-1.67397e-20
0.000411067
-2.08609e-18
-1.50503e-20
-2.06233e-18
-1.8245e-20
0.00041712
-2.0207e-18
-1.46685e-20
-2.04996e-18
-1.65255e-20
0.00042326
-2.01135e-18
-1.52474e-20
-1.92478e-18
-1.39491e-20
0.000429488
-1.98244e-18
-1.64662e-20
-1.98116e-18
-1.52621e-20
0.000435805
-1.95879e-18
-1.84381e-20
-1.94356e-18
-1.68135e-20
0.000442212
-1.94002e-18
-2.07204e-20
-1.91746e-18
-1.91696e-20
0.000448711
-1.91594e-18
-2.18228e-20
-1.90365e-18
-2.08926e-20
0.000455304
-1.77412e-18
-2.06656e-20
-2.0028e-18
-2.1735e-20
0.000461991
-1.84062e-18
-2.36672e-20
-1.99657e-18
-1.95433e-20
0.000468774
-1.92478e-18
-2.45173e-20
-1.9124e-18
-1.64631e-20
0.000475654
-1.87715e-18
-1.87552e-20
-1.87898e-18
-9.92377e-21
0.000482634
-1.96718e-18
-1.34996e-20
-1.91458e-18
-5.03914e-21
0.000489714
-1.93939e-18
-4.6768e-21
-1.73451e-18
3.33814e-22
0.000496895
-1.86979e-18
2.65396e-21
-1.79732e-18
-4.83091e-22
0.00050418
-1.75415e-18
6.22276e-21
-1.6834e-18
3.35569e-21
0.00051157
-1.71889e-18
5.13279e-21
-1.70468e-18
1.44195e-21
0.000519067
-1.7399e-18
6.01965e-21
-1.66965e-18
5.67345e-22
0.000526671
-1.63819e-18
1.06191e-20
-1.6516e-18
5.97146e-22
0.000534385
-1.46942e-18
1.39589e-20
-1.58141e-18
-1.57774e-21
0.00054221
-1.45812e-18
1.24032e-20
-1.53481e-18
-5.37647e-21
0.000550148
-1.37746e-18
1.25172e-20
-1.4535e-18
-2.59872e-21
0.0005582
-1.43245e-18
7.09546e-21
-1.37439e-18
-3.87201e-21
0.000566368
-1.28252e-18
4.17477e-21
-1.45091e-18
-6.64227e-21
0.000574653
-1.32666e-18
-4.95333e-21
-1.44002e-18
-3.21808e-21
0.000583058
-1.39987e-18
-1.02576e-20
-1.35243e-18
-3.64772e-21
0.000591584
-1.2156e-18
-7.90996e-21
-1.20555e-18
-6.07355e-21
0.000600233
-1.23925e-18
-1.41296e-20
-1.21622e-18
-1.08476e-20
0.000609006
-1.20157e-18
-1.17419e-20
-1.14223e-18
-1.49059e-20
0.000617905
-1.11589e-18
-1.02071e-20
-1.12087e-18
-1.12932e-20
0.000626932
-1.08012e-18
-9.66437e-21
-1.11432e-18
-1.27883e-20
0.000636088
-1.06546e-18
-1.05507e-20
-9.767e-19
-1.16766e-20
0.000645376
-9.64056e-19
-2.47874e-21
-9.54873e-19
-1.00677e-20
0.000654796
-9.21695e-19
-2.38957e-21
-9.70998e-19
-1.06447e-20
0.000664352
-9.704e-19
-1.08778e-20
-9.69566e-19
-1.3762e-20
0.000674044
-9.1094e-19
-9.82316e-21
-9.10071e-19
-1.48832e-20
0.000683874
-8.54567e-19
-1.16642e-20
-8.17008e-19
-1.88723e-20
0.000693844
-8.26556e-19
-1.18974e-20
-9.52071e-19
-2.13625e-20
0.000703955
-8.00204e-19
-1.00772e-20
-8.76755e-19
-1.72585e-20
0.000714211
-7.32714e-19
-1.35865e-20
-8.7682e-19
-1.25077e-20
0.000724611
-8.00849e-19
-1.1905e-20
-6.36406e-19
-6.70826e-21
0.000735158
-7.78569e-19
-4.0736e-21
-6.96036e-19
-3.52402e-20
0.000745853
-2.121e-21
-7.42974e-19
-4.92723e-20
-7.71712e-19
1.33441e-07
9.00447e-22
1.74212e-21
4.0809e-07
8.99402e-21
9.37097e-21
6.94632e-07
1.73678e-20
1.73184e-20
9.93029e-07
2.60295e-20
2.5579e-20
1.30201e-06
3.52838e-20
3.39777e-20
1.61776e-06
4.44821e-20
4.25888e-20
1.93338e-06
5.30122e-20
5.11582e-20
2.24054e-06
6.0804e-20
5.96964e-20
2.53251e-06
6.89441e-20
6.70438e-20
2.80605e-06
7.59687e-20
7.36692e-20
3.06103e-06
8.2134e-20
8.03949e-20
3.29913e-06
8.84593e-20
8.60711e-20
3.5227e-06
9.38322e-20
9.08367e-20
3.73412e-06
9.90574e-20
9.56598e-20
3.93552e-06
1.04037e-19
1.00184e-19
4.12875e-06
1.09798e-19
1.04411e-19
4.31534e-06
1.14213e-19
1.08248e-19
4.49656e-06
1.18531e-19
1.11454e-19
4.67345e-06
1.22986e-19
1.15448e-19
4.8469e-06
1.26944e-19
1.18871e-19
5.01763e-06
1.31461e-19
1.21982e-19
5.18626e-06
1.3518e-19
1.22721e-19
5.35331e-06
1.39699e-19
1.24936e-19
5.51922e-06
1.42438e-19
1.27065e-19
5.68439e-06
1.458e-19
1.30887e-19
5.84914e-06
1.49116e-19
1.33581e-19
6.01376e-06
1.51597e-19
1.36276e-19
6.17852e-06
1.55162e-19
1.39003e-19
6.34365e-06
1.56621e-19
1.43726e-19
6.50934e-06
1.59088e-19
1.45563e-19
6.67579e-06
1.62155e-19
1.47645e-19
6.84316e-06
1.64969e-19
1.48305e-19
7.0116e-06
1.66372e-19
1.50961e-19
7.18126e-06
1.69824e-19
1.53627e-19
7.35227e-06
1.72322e-19
1.57504e-19
7.52474e-06
1.73702e-19
1.61471e-19
7.69879e-06
1.78802e-19
1.625e-19
7.87452e-06
1.80646e-19
1.66981e-19
8.05204e-06
1.84422e-19
1.67865e-19
8.23144e-06
1.86428e-19
1.72418e-19
8.41282e-06
1.9115e-19
1.75466e-19
8.59625e-06
1.9342e-19
1.7582e-19
8.78183e-06
1.94023e-19
1.80451e-19
8.96963e-06
1.94738e-19
1.82969e-19
9.15974e-06
1.97137e-19
1.85652e-19
9.35222e-06
1.99504e-19
1.88653e-19
9.54715e-06
2.01001e-19
1.91423e-19
9.74462e-06
2.02247e-19
1.95535e-19
9.94467e-06
2.03797e-19
1.99194e-19
1.01474e-05
2.05778e-19
2.01976e-19
1.03529e-05
2.08439e-19
2.03892e-19
1.05611e-05
2.10233e-19
2.07364e-19
1.07723e-05
2.11608e-19
2.0966e-19
1.09863e-05
2.11619e-19
2.14923e-19
1.12034e-05
2.13315e-19
2.18021e-19
1.14236e-05
2.15044e-19
2.20223e-19
1.16469e-05
2.17042e-19
2.21407e-19
1.18734e-05
2.19687e-19
2.21555e-19
1.21031e-05
2.2303e-19
2.23039e-19
1.23362e-05
2.25331e-19
2.24812e-19
1.25727e-05
2.2794e-19
2.26939e-19
1.28127e-05
2.29712e-19
2.29747e-19
1.30562e-05
2.32131e-19
2.35493e-19
1.33033e-05
2.3405e-19
2.38909e-19
1.35541e-05
2.35548e-19
2.39668e-19
1.38086e-05
2.36092e-19
2.46639e-19
1.40669e-05
2.37367e-19
2.50164e-19
1.43291e-05
2.38507e-19
2.52747e-19
1.45952e-05
2.41264e-19
2.56389e-19
1.48654e-05
2.43514e-19
2.59532e-19
1.51396e-05
2.47202e-19
2.61748e-19
1.54179e-05
2.47586e-19
2.6703e-19
1.57005e-05
2.49263e-19
2.68757e-19
1.59874e-05
2.53663e-19
2.71354e-19
1.62786e-05
2.56107e-19
2.76382e-19
1.65743e-05
2.56618e-19
2.79857e-19
1.68745e-05
2.59075e-19
2.82254e-19
1.71793e-05
2.61006e-19
2.90882e-19
1.74887e-05
2.6851e-19
2.92293e-19
1.78029e-05
2.69831e-19
2.92698e-19
1.81219e-05
2.7441e-19
2.89439e-19
1.84458e-05
2.74623e-19
2.91945e-19
1.87746e-05
2.77637e-19
2.9546e-19
1.91085e-05
2.77692e-19
3.00278e-19
1.94476e-05
2.77907e-19
3.03294e-19
1.97918e-05
2.80466e-19
3.05295e-19
2.01414e-05
2.83075e-19
3.08688e-19
2.04963e-05
2.82891e-19
3.10498e-19
2.08568e-05
2.83962e-19
3.16408e-19
2.12227e-05
2.82515e-19
3.20568e-19
2.15943e-05
2.82328e-19
3.24163e-19
2.19717e-05
2.82631e-19
3.26561e-19
2.23549e-05
2.83169e-19
3.34785e-19
2.27439e-05
2.83594e-19
3.3975e-19
2.3139e-05
2.85647e-19
3.43379e-19
2.35402e-05
2.88777e-19
3.48327e-19
2.39476e-05
2.89428e-19
3.53082e-19
2.43612e-05
2.8705e-19
3.55168e-19
2.47813e-05
2.89659e-19
3.61907e-19
2.52078e-05
2.9032e-19
3.63422e-19
2.56409e-05
2.96786e-19
3.69606e-19
2.60807e-05
2.93797e-19
3.78143e-19
2.65272e-05
2.94537e-19
3.83882e-19
2.69807e-05
3.01921e-19
3.87943e-19
2.74412e-05
3.01401e-19
3.89807e-19
2.79087e-05
3.09689e-19
3.992e-19
2.83835e-05
3.09878e-19
4.02276e-19
2.88656e-05
3.09844e-19
4.07743e-19
2.93551e-05
3.11298e-19
4.10695e-19
2.98521e-05
3.12534e-19
4.14132e-19
3.03568e-05
3.15214e-19
4.14706e-19
3.08693e-05
3.13337e-19
4.1641e-19
3.13897e-05
3.15042e-19
4.19404e-19
3.19181e-05
3.168e-19
4.23284e-19
3.24546e-05
3.08681e-19
4.32531e-19
3.29994e-05
3.17382e-19
4.42353e-19
3.35525e-05
3.1755e-19
4.46094e-19
3.41142e-05
3.2209e-19
4.5374e-19
3.46845e-05
3.24689e-19
4.62643e-19
3.52635e-05
3.2463e-19
4.68117e-19
3.58515e-05
3.23618e-19
4.7607e-19
3.64484e-05
3.33304e-19
4.76137e-19
3.70546e-05
3.27941e-19
4.78605e-19
3.767e-05
3.25758e-19
4.78979e-19
3.82948e-05
3.26857e-19
4.78264e-19
3.89293e-05
3.35942e-19
4.75738e-19
3.95734e-05
3.3504e-19
4.73251e-19
4.02275e-05
3.39304e-19
4.76811e-19
4.08915e-05
3.32476e-19
4.80017e-19
4.15657e-05
3.2727e-19
4.81542e-19
4.22502e-05
3.22083e-19
4.84151e-19
4.29452e-05
3.303e-19
4.81306e-19
4.36508e-05
3.27552e-19
4.84217e-19
4.43672e-05
3.21758e-19
4.91508e-19
4.50945e-05
3.21556e-19
4.89338e-19
4.58329e-05
3.22753e-19
4.87725e-19
4.65826e-05
3.37232e-19
4.83404e-19
4.73438e-05
3.4358e-19
4.80544e-19
4.81165e-05
3.44645e-19
4.77538e-19
4.8901e-05
3.47638e-19
4.81714e-19
4.96975e-05
3.44795e-19
4.88465e-19
5.05061e-05
3.36566e-19
4.88917e-19
5.1327e-05
3.34359e-19
4.88854e-19
5.21604e-05
3.30564e-19
4.84687e-19
5.30065e-05
3.26582e-19
4.88388e-19
5.38654e-05
3.22645e-19
4.89352e-19
5.47374e-05
3.18817e-19
4.8735e-19
5.56226e-05
3.13837e-19
4.93309e-19
5.65212e-05
3.11237e-19
4.91912e-19
5.74335e-05
3.0525e-19
4.92586e-19
5.83597e-05
3.03546e-19
4.94245e-19
5.92999e-05
2.98652e-19
4.9052e-19
6.02543e-05
2.92272e-19
4.91512e-19
6.12232e-05
2.9623e-19
5.02014e-19
6.22067e-05
2.89677e-19
4.97496e-19
6.32052e-05
2.84467e-19
4.99222e-19
6.42187e-05
3.04079e-19
4.87661e-19
6.52476e-05
3.21286e-19
4.7618e-19
6.6292e-05
3.1046e-19
4.74697e-19
6.73523e-05
3.09668e-19
4.75732e-19
6.84285e-05
2.90188e-19
4.7987e-19
6.9521e-05
2.74243e-19
4.75955e-19
7.06299e-05
2.77299e-19
4.77661e-19
7.17556e-05
2.73426e-19
4.70413e-19
7.28983e-05
2.83989e-19
4.70516e-19
7.40581e-05
2.74011e-19
4.77332e-19
7.52355e-05
2.71045e-19
4.74138e-19
7.64306e-05
2.64729e-19
4.69638e-19
7.76436e-05
2.58082e-19
4.57916e-19
7.8875e-05
2.53875e-19
4.57549e-19
8.01248e-05
2.3978e-19
4.50532e-19
8.13934e-05
2.18435e-19
4.50497e-19
8.26811e-05
2.1777e-19
4.50007e-19
8.39881e-05
2.31281e-19
4.51097e-19
8.53148e-05
2.2336e-19
4.48748e-19
8.66613e-05
2.167e-19
4.39538e-19
8.80281e-05
2.12828e-19
4.39717e-19
8.94153e-05
2.14048e-19
4.32869e-19
9.08233e-05
2.08076e-19
4.25407e-19
9.22524e-05
2.04983e-19
4.31296e-19
9.3703e-05
2.10422e-19
4.16528e-19
9.51752e-05
2.06423e-19
4.19236e-19
9.66694e-05
2.11023e-19
4.25794e-19
9.8186e-05
2.19878e-19
4.15119e-19
9.97252e-05
1.84577e-19
4.04386e-19
0.000101287
1.6216e-19
4.05369e-19
0.000102873
1.30029e-19
4.22757e-19
0.000104482
1.41733e-19
4.09151e-19
0.000106115
1.29952e-19
3.98545e-19
0.000107773
1.42795e-19
3.92729e-19
0.000109455
1.3881e-19
3.94702e-19
0.000111163
1.33994e-19
3.877e-19
0.000112895
1.326e-19
3.74544e-19
0.000114654
1.29366e-19
3.66746e-19
0.000116439
1.38546e-19
3.39022e-19
0.00011825
1.46345e-19
3.34341e-19
0.000120088
1.71605e-19
3.23128e-19
0.000121953
1.67661e-19
3.14871e-19
0.000123847
1.51035e-19
3.1599e-19
0.000125768
1.84772e-19
3.42902e-19
0.000127717
2.17744e-19
3.84196e-19
0.000129696
2.33505e-19
3.61261e-19
0.000131704
2.2707e-19
3.56934e-19
0.000133742
2.26118e-19
3.49588e-19
0.000135809
2.14753e-19
3.45853e-19
0.000137908
2.12208e-19
3.30257e-19
0.000140037
2.15155e-19
3.17979e-19
0.000142198
2.12692e-19
2.98679e-19
0.00014439
2.07384e-19
2.78266e-19
0.000146615
2.2303e-19
2.93104e-19
0.000148873
2.18942e-19
2.70729e-19
0.000151164
2.03099e-19
2.54043e-19
0.000153489
1.57335e-19
2.38319e-19
0.000155848
1.35542e-19
2.40938e-19
0.000158241
1.6812e-19
2.25069e-19
0.00016067
1.73353e-19
2.32487e-19
0.000163135
1.35804e-19
2.1793e-19
0.000165635
1.12196e-19
2.00909e-19
0.000168173
1.47158e-19
1.78493e-19
0.000170747
1.5538e-19
1.68481e-19
0.000173359
1.95554e-19
2.26174e-19
0.00017601
1.79269e-19
2.11553e-19
0.000178699
1.68306e-19
2.6023e-19
0.000181427
1.78069e-19
2.88491e-19
0.000184195
1.88852e-19
2.65955e-19
0.000187004
2.65391e-19
2.41609e-19
0.000189853
2.30469e-19
2.75326e-19
0.000192744
1.69478e-19
3.10483e-19
0.000195677
2.20658e-19
2.47659e-19
0.000198653
2.137e-19
2.44695e-19
0.000201672
2.24689e-19
2.32929e-19
0.000204735
2.1563e-19
2.20716e-19
0.000207842
2.0339e-19
1.95221e-19
0.000210994
1.88955e-19
1.85003e-19
0.000214192
1.86817e-19
1.61979e-19
0.000217436
1.77405e-19
1.48797e-19
0.000220727
1.22129e-19
1.96301e-19
0.000224065
1.12464e-19
1.61754e-19
0.000227452
1.04104e-19
1.53257e-19
0.000230887
8.86223e-20
1.35101e-19
0.000234372
1.49342e-20
1.04243e-19
0.000237907
7.69842e-21
6.13731e-20
0.000241493
-4.30165e-20
3.07288e-20
0.00024513
2.4001e-21
3.91284e-20
0.000248819
4.66122e-22
1.75967e-20
0.000252562
3.96131e-20
2.88658e-20
0.000256358
-8.23054e-21
4.90047e-20
0.000260208
-5.10551e-20
5.03643e-20
0.000264113
-1.1239e-20
1.04648e-20
0.000268074
-3.58222e-21
-3.33705e-20
0.000272092
2.25999e-20
-6.88826e-20
0.000276167
2.78481e-20
-1.11473e-19
0.0002803
2.78145e-20
-1.31728e-19
0.000284492
5.87997e-21
-2.42997e-19
0.000288744
-5.00308e-20
-1.45295e-19
0.000293057
-1.6773e-19
-7.20907e-20
0.00029743
-1.92245e-19
-9.12093e-20
0.000301866