/*--------------------------------*- C++ -*----------------------------------*\
| =========                 |                                                 |
| \\      /  F ield         | OpenFOAM: The Open Source CFD Toolbox           |
|  \\    /   O peration     | Version:  2012                                  |
|   \\  /    A nd           | Website:  www.openfoam.com                      |
|    \\/     M anipulation  |                                                 |
\*---------------------------------------------------------------------------*/
FoamFile
{
    version     2.0;
    format      ascii;
    class       volTensorField;
    location    "18000";
    object      grad(U);
}
// * * * * * * * * * * * * * * * * * * * * * * * * * * * * * * * * * * * * * //

dimensions      [0 0 -1 0 0 0 0];


internalField   nonuniform List<tensor> 
640
(
(-3.70426e-17 4.21126e-30 -2.0828e-27 33.4827 -4.61977e-12 -1.26211e-29 0.191462 -1.32318e-14 -4.93038e-32)
(0 -2.10563e-30 -6.5801e-32 33.4827 -7.5782e-15 -3.01391e-16 0.191462 -1.08825e-16 5.20264e-16)
(-1.3978e-16 -5.37808e-26 3.01099e-31 33.4629 -1.78756e-31 1.87538e-16 0.585653 6.31089e-30 -1.24963e-16)
(0 0 -1.2415e-31 33.4629 7.88861e-31 -3.87568e-16 0.585653 2.63387e-44 1.30677e-15)
(0 -3.0767e-27 -3.02017e-29 33.4416 1.21536e-13 1.98821e-31 0.884741 -1.56137e-15 -2.46519e-32)
(-6.60786e-17 -7.49565e-30 -1.1712e-31 33.4416 -1.10603e-14 -2.85954e-16 0.884741 -6.99719e-17 1.45576e-15)
(1.78224e-16 -1.06154e-29 -3.21518e-31 33.4172 2.35518e-13 2.54022e-15 0.937103 -1.23523e-14 -5.59222e-17)
(-2.48796e-16 1.41424e-29 3.31462e-31 33.4172 -7.79858e-15 -5.86663e-16 0.937103 -1.10533e-16 1.61281e-15)
(0 0 0 33.3848 8.35174e-15 3.31672e-15 0.992219 -1.20562e-16 -5.6165e-17)
(-5.11788e-16 0 0 33.3848 -9.19742e-15 -8.67892e-16 0.992219 -1.61518e-16 1.77728e-15)
(0 -1.25861e-29 -2.94986e-31 33.3322 2.43258e-14 4.17095e-15 1.04966 -1.21514e-15 2.94395e-17)
(7.55296e-16 1.25861e-29 2.94986e-31 33.3322 -1.04638e-14 -1.17568e-15 1.04966 -2.27352e-16 1.94663e-15)
(-5.07047e-16 5.18656e-29 3.71042e-31 33.2331 6.77419e-15 5.14588e-15 1.10829 -2.45552e-16 1.33085e-16)
(0 -4.15567e-29 -3.71042e-31 33.2331 -1.23776e-14 -1.49518e-15 1.10829 -3.05639e-16 2.11703e-15)
(-1.11066e-15 -1.02745e-28 1.75016e-31 33.0388 1.11913e-14 6.02344e-15 1.1657 -1.92426e-16 2.54842e-16)
(0 -1.68015e-29 -8.75078e-32 33.0388 -1.43041e-14 -1.82132e-15 1.1657 -4.08012e-16 2.28222e-15)
(7.43567e-16 -1.58501e-29 -1.23829e-31 32.6719 2.61745e-14 6.77568e-15 1.21778 -1.73252e-15 3.93231e-16)
(3.16894e-15 1.58501e-29 1.23829e-31 32.6719 -1.56457e-14 -2.1375e-15 1.21778 -5.22085e-16 2.43272e-15)
(4.74937e-16 -1.46556e-28 -7.78779e-32 32.0296 6.67808e-15 7.39956e-15 1.25872 -1.29023e-16 5.44525e-16)
(0 1.49526e-29 7.78779e-32 32.0296 -1.78495e-14 -2.46833e-15 1.25872 -6.58314e-16 2.55483e-15)
(-1.11807e-15 2.40696e-29 0 31.0069 2.27441e-14 7.83222e-15 1.28207 -8.62083e-16 7.04061e-16)
(0 -1.41058e-29 3.6734e-32 31.0069 -1.9834e-14 -2.70132e-15 1.28207 -8.37212e-16 2.63094e-15)
(4.71973e-17 -5.42824e-30 0 29.5385 2.46265e-14 8.00947e-15 1.28302 -1.0053e-15 8.6327e-16)
(5.18293e-15 0 3.46538e-32 29.5385 -2.06777e-14 -2.67958e-15 1.28302 -1.02861e-15 2.64832e-15)
(-1.91784e-15 1.32484e-29 -6.5383e-32 27.6399 2.51894e-14 7.91197e-15 1.2606 -1.13706e-15 1.01558e-15)
(2.96002e-15 0 6.5383e-32 27.6399 -2.13433e-14 -2.51796e-15 1.2606 -1.24311e-15 2.60223e-15)
(8.33361e-16 -3.64186e-29 2.62142e-31 25.4164 2.54734e-14 7.56341e-15 1.2182 -1.18297e-15 1.15718e-15)
(6.66689e-15 3.15804e-29 -2.62142e-31 25.4164 -2.24804e-14 -2.31679e-15 1.2182 -1.48788e-15 2.49288e-15)
(-1.9739e-15 -1.01113e-29 2.80029e-31 23.0282 2.62086e-14 7.06887e-15 1.16204 -1.30621e-15 1.28658e-15)
(0 2.23441e-29 -3.09123e-31 23.0282 -2.33425e-14 -2.11396e-15 1.16204 -1.77452e-15 2.3328e-15)
(-1.0151e-15 -2.33717e-29 5.21482e-31 20.6369 2.66789e-14 6.55793e-15 1.09878 -1.40758e-15 1.40242e-15)
(4.06038e-15 2.81051e-29 -5.21482e-31 20.6369 -2.30237e-14 -1.97444e-15 1.09878 -2.07419e-15 2.13772e-15)
(1.10035e-15 8.58666e-30 -2.45976e-31 18.3659 2.70146e-14 6.15004e-15 1.03386 -1.52084e-15 1.50862e-15)
(4.40139e-15 -6.6284e-30 1.94191e-31 18.3659 -2.26348e-14 -1.71361e-15 1.03386 -2.39809e-15 1.92251e-15)
(-1.18082e-15 -1.41548e-29 1.95408e-31 16.2875 2.66463e-14 5.83569e-15 0.970919 -1.62181e-15 1.61544e-15)
(4.72329e-15 1.87592e-29 -3.17538e-31 16.2875 -2.26452e-14 -1.44954e-15 0.970919 -2.76657e-15 1.7042e-15)
(-2.51274e-15 1.5e-29 -4.60857e-31 14.4313 2.55845e-14 5.59149e-15 0.912008 -1.66217e-15 1.72047e-15)
(0 -5.89897e-30 4.60857e-31 14.4313 -2.15267e-14 -1.30773e-15 0.912008 -3.12436e-15 1.48623e-15)
(0 -3.89545e-29 1.04342e-30 12.7976 2.44005e-14 5.42656e-15 0.858038 -1.67952e-15 1.82427e-15)
(5.30856e-15 3.89545e-29 -1.04342e-30 12.7976 -1.96975e-14 -1.24448e-15 0.858038 -3.46376e-15 1.27588e-15)
(0 3.14988e-29 -1.39448e-30 11.3714 2.48763e-14 5.28037e-15 0.809213 -1.69889e-15 1.73873e-15)
(0 -3.14988e-29 1.39448e-30 11.3714 -2.0588e-14 -1.36695e-15 0.809213 -3.82109e-15 1.07114e-15)
(-2.78802e-15 1.48576e-29 -6.19066e-31 10.1306 2.59493e-14 5.26769e-15 0.765343 -1.95912e-15 1.3424e-15)
(-5.82277e-15 -9.90505e-30 3.09533e-31 10.1306 -1.97567e-14 -1.45402e-15 0.765343 -4.23211e-15 8.72095e-16)
(-1.51425e-15 1.36358e-29 -3.8848e-31 9.05181 2.54583e-14 5.38082e-15 0.726051 -2.08087e-15 9.09829e-16)
(-2.63015e-15 0 -7.30012e-32 9.05181 -1.73893e-14 -1.43552e-15 0.726051 -4.59806e-15 6.82048e-16)
(1.56951e-15 -3.50771e-29 1.68798e-30 8.11255 2.50621e-14 5.50216e-15 0.690884 -2.11798e-15 5.01658e-16)
(1.25561e-14 3.08526e-29 -1.44622e-30 8.11255 -1.83333e-14 -9.79429e-16 0.690884 -5.00575e-15 4.91433e-16)
(1.62182e-15 2.08133e-29 -1.04781e-30 7.29277 2.3462e-14 5.683e-15 0.659385 -2.26686e-15 5.52764e-16)
(0 -2.49476e-29 1.29935e-30 7.29277 -1.81615e-14 -6.67948e-16 0.659385 -5.482e-15 3.37657e-16)
(-3.343e-15 1.6045e-29 -1.14194e-30 6.57503 2.20506e-14 5.86528e-15 0.631122 -2.07453e-15 6.00564e-16)
(6.686e-15 0 2.45155e-31 6.57503 -1.74114e-14 -8.79341e-16 0.631122 -5.96115e-15 1.8262e-16)
(-5.52076e-15 2.28227e-29 -1.59643e-30 5.94444 2.25797e-14 6.04686e-15 0.6057 -2.26165e-15 6.60054e-16)
(-4.79217e-15 -1.48015e-29 1.04073e-30 5.94444 -1.74473e-14 -8.43252e-16 0.6057 -6.47329e-15 3.0289e-17)
(0 6.98165e-30 -4.36353e-31 5.38839 2.22905e-14 6.20403e-15 0.58277 -2.4445e-15 7.10554e-16)
(-1.96516e-15 0 2.18176e-31 5.38839 -1.60595e-14 -9.26257e-16 0.58277 -6.95753e-15 -1.06722e-16)
(1.80735e-15 2.73761e-30 -9.29105e-31 4.89629 2.14326e-14 6.39185e-15 0.562024 -2.47559e-15 7.86927e-16)
(0 0 8.23287e-31 4.89629 -1.52981e-14 -8.73691e-16 0.562024 -7.43875e-15 -7.65592e-17)
(1.84896e-15 -2.86135e-29 1.32343e-30 4.45921 2.06212e-14 -5.53239e-30 0.543195 -2.54005e-15 0)
(0 2.48534e-29 -2.33e-30 4.45921 -1.40716e-14 -7.11409e-16 0.543195 -8.04128e-15 -1.00551e-16)
(0 -5.8615e-30 1.83172e-31 4.06966 1.78873e-14 -1.77166e-14 0.526049 -2.57448e-15 1.16615e-15)
(0 1.1723e-29 -9.15859e-31 4.06966 -1.16007e-14 -8.72341e-16 0.526049 -8.54199e-15 -1.29598e-16)
(-2.67025e-15 2.76588e-29 -1.38239e-30 3.72129 1.46832e-14 -2.67767e-14 0.510384 -2.11394e-15 1.99131e-15)
(-1.08237e-14 -1.65887e-29 1.72961e-30 3.72129 -1.03307e-14 -1.42437e-15 0.510384 -8.94518e-15 -2.71417e-16)
(1.96512e-15 -1.40857e-29 0 3.40879 1.47702e-14 -2.77911e-14 0.496024 -1.97324e-15 9.98905e-16)
(7.86046e-15 5.21646e-30 -5.76972e-31 3.40879 -1.05804e-14 -1.36579e-15 0.496024 -9.32178e-15 -1.278e-16)
(-2.00137e-15 3.51355e-30 0 3.1276 1.57129e-14 -2.80094e-14 0.482815 -2.40182e-15 -8.66703e-17)
(8.00547e-15 0 0 3.1276 -1.11483e-14 -5.53281e-16 0.482815 -9.81297e-15 -1.00903e-15)
(-2.03656e-15 -1.21643e-30 0 2.87387 1.54297e-14 -2.80358e-14 0.470624 -2.52125e-15 -1.22688e-15)
(0 4.6424e-30 5.803e-31 2.87387 -1.05239e-14 2.17407e-15 0.470624 -1.03187e-14 -8.80872e-16)
(-2.07078e-15 3.3468e-30 0 2.64431 1.48076e-14 -2.86399e-14 0.459333 -2.60199e-15 -2.46781e-15)
(0 4.37952e-30 1.09488e-30 2.64431 -9.27061e-15 6.40428e-16 0.459333 -1.08386e-14 -7.02733e-16)
(2.32584e-15 -8.26304e-30 -3.60521e-29 2.43609 1.49056e-14 0 0.44884 -2.60758e-15 -7.88861e-31)
(0 8.26304e-30 1.03288e-30 2.43609 -9.75453e-15 -3.29364e-15 0.44884 -1.14047e-14 -8.65514e-16)
(-4.33075e-15 1.87084e-29 5.25363e-30 2.24679 1.47399e-14 5.35415e-15 0.439053 -2.96138e-15 -8.98201e-16)
(2.19413e-15 -1.55903e-29 -4.87196e-30 2.24679 -1.04844e-14 -2.95724e-15 0.439053 -1.21281e-14 -1.01689e-15)
(0 7.35372e-30 2.75764e-30 2.0743 1.38735e-14 5.90709e-15 0.429893 -2.86258e-15 -1.22795e-15)
(8.67341e-15 -7.35372e-30 -2.75764e-30 2.0743 -7.77189e-15 -2.67072e-15 0.429893 -1.27385e-14 -1.19352e-15)
(-8.0574e-15 9.85711e-30 1.98429e-30 1.91681 1.42574e-14 1.95906e-15 0.421288 -2.95362e-15 -1.24792e-15)
(8.79751e-15 0 0 1.91681 -5.75873e-15 -2.8095e-15 0.421288 -1.32787e-14 -1.40988e-15)
(-3.6842e-15 6.54446e-30 4.02873e-45 1.77273 1.40138e-14 3.56917e-30 0.413174 -3.39216e-15 -7.88861e-31)
(0 0 0 1.77273 -6.49514e-15 -3.31754e-15 0.413174 -1.3934e-14 -1.64641e-15)
(-2.25947e-15 -3.48508e-30 -1.95427e-30 1.64068 1.21448e-14 1.60636e-15 0.405496 -3.20072e-15 -4.66526e-16)
(9.03788e-15 6.17387e-30 2.3152e-30 1.64068 -6.13117e-15 -3.54599e-15 0.405496 -1.44495e-14 -1.92721e-15)
(0 0 -1.45607e-30 1.51946 9.31506e-15 1.05221e-15 0.398203 -2.85074e-15 -3.31298e-16)
(9.15448e-15 0 2.91213e-30 1.51946 -4.74806e-15 -2.78794e-15 0.398203 -1.49614e-14 -2.07826e-15)
(7.75887e-16 2.75594e-30 3.76946e-31 1.40799 6.76626e-15 8.54314e-16 0.391248 -2.05444e-15 -2.22226e-16)
(0 0 0 1.40799 -4.62871e-15 -2.92406e-15 0.391248 -1.53867e-14 -2.0824e-15)
(2.34529e-15 -1.31379e-29 -2.95689e-30 1.30535 6.8053e-15 7.74389e-16 0.38459 -1.73089e-15 -2.57945e-16)
(1.22991e-14 0 2.59166e-30 1.30535 -5.08399e-15 -2.89098e-15 0.38459 -1.60775e-14 -2.38284e-15)
(-2.37286e-15 1.24e-29 2.81205e-30 1.2107 6.4515e-15 7.81524e-16 0.378191 -2.33239e-15 -2.00763e-16)
(0 -9.77961e-30 -2.4449e-30 1.2107 -1.24383e-15 -1.87907e-15 0.378191 -1.48927e-14 -2.53354e-15)
(2.59684e-15 -4.61291e-30 0 1.12332 4.51236e-15 1.38464e-15 0.372019 -1.71527e-15 -2.94473e-16)
(7.00301e-15 3.13672e-30 0 1.12332 1.8218e-15 -2.23835e-15 0.372019 -1.40229e-14 -2.79136e-15)
(2.44979e-15 0 1.08792e-30 1.04254 5.00043e-15 2.01478e-15 0.366041 -1.28655e-15 -6.40567e-16)
(-1.21562e-14 2.05574e-30 1.08792e-30 1.04254 4.22036e-16 -1.89478e-15 0.366041 -1.30936e-14 -3.03287e-15)
(0 0 0 0.96779 5.87843e-15 2.14756e-15 0.360229 -2.28336e-15 -7.9049e-16)
(7.50018e-15 -3.3975e-30 -4.28084e-31 0.96779 4.72326e-16 -8.73959e-16 0.360229 -1.07394e-14 -2.11759e-15)
(-2.47859e-15 2.56453e-30 1.93276e-31 0.898548 5.37324e-15 9.31598e-16 0.354556 -2.12446e-15 -8.22436e-16)
(-1.20946e-14 8.26442e-30 2.08435e-30 0.898548 1.30719e-15 -4.61433e-16 0.354556 -9.05523e-15 -9.89253e-16)
(7.5119e-15 -1.12994e-29 -1.25247e-30 0.834348 5.05417e-15 -4.15693e-30 0.348999 -2.15167e-15 0)
(1.00159e-14 -1.70055e-30 -1.03942e-30 0.834348 9.53605e-16 -7.81505e-16 0.348999 -7.50816e-15 -1.04365e-15)
(0 0 -5.26204e-31 0.77477 3.7577e-15 8.03385e-16 0.343534 -2.10997e-15 -1.79569e-16)
(0 6.89323e-30 0 0.77477 -7.50575e-16 -4.79425e-16 0.343534 -5.58574e-15 -2.42297e-16)
(0 0 0 0.719436 2.71613e-15 2.37457e-15 0.338139 -1.22383e-15 -9.39717e-16)
(1.02141e-14 -8.44726e-30 -2.19985e-30 0.719436 9.89019e-17 9.18452e-16 0.338139 -3.4719e-15 -2.17611e-16)
(0 0 -7.66832e-31 0.668005 3.11221e-15 2.57639e-15 0.332794 -1.35412e-15 -1.32187e-15)
(1.03109e-14 -8.75326e-30 -1.13478e-30 0.668005 1.71745e-15 1.65551e-15 0.332794 -3.15776e-15 -8.78993e-16)
(-5.85951e-15 2.48843e-30 2.12974e-31 0.620166 3.20025e-15 1.67579e-15 0.327478 -1.78501e-15 -1.40612e-15)
(3.25794e-15 0 0 0.620166 -1.35421e-17 1.04034e-15 0.327478 -2.0475e-15 -7.81318e-16)
(-2.62502e-15 2.545e-30 1.84849e-31 0.575638 2.52645e-15 -3.80632e-16 0.322171 -1.61814e-15 -1.59067e-15)
(-1.05001e-14 8.29558e-30 1.83e-30 0.575638 5.43247e-29 7.02455e-18 0.322171 0 -3.23531e-16)
(5.29623e-15 -5.26488e-30 -6.9074e-31 0.534162 2.26323e-15 -7.44069e-16 0.316853 -1.2223e-15 -9.44302e-16)
(1.05925e-14 -1.09099e-29 0 0.534162 1.61526e-15 -1.30734e-29 0.316853 -5.83931e-16 7.88861e-31)
(0 0 -1.21469e-30 0.495504 2.80862e-15 -5.75121e-16 0.311503 -1.4938e-15 -8.69102e-16)
(0 0 0 0.495504 2.2688e-15 1.23311e-15 0.311503 -1.37185e-15 -1.04984e-15)
(0 0 -4.7811e-31 0.459446 2.91415e-15 8.37437e-30 0.306097 -2.086e-15 0)
(2.15457e-14 -2.06234e-29 -2.29761e-30 0.459446 2.83253e-15 5.04728e-16 0.306097 -1.50999e-15 -1.3618e-15)
(0 0 0 0.425789 2.25829e-15 3.29375e-16 0.300611 -1.82466e-15 -8.86572e-16)
(1.08608e-14 -9.68347e-30 -1.73899e-30 0.425789 2.42473e-15 1.58054e-16 0.300611 -2.32221e-15 -6.4613e-16)
(4.59277e-15 0 -3.23895e-32 0.394347 1.53654e-15 -1.3601e-29 0.295018 -1.4226e-15 0)
(-4.59277e-15 0 0 0.394347 2.67907e-15 -3.53767e-16 0.295018 -1.09803e-15 -1.15325e-15)
(-5.51623e-15 4.94252e-30 4.99201e-31 0.364948 1.52751e-15 -5.83815e-16 0.289286 -9.27113e-16 -1.54843e-15)
(1.10325e-14 -8.52467e-30 -1.7243e-30 0.364948 2.89608e-15 -1.03769e-15 0.289286 -3.00515e-15 -1.07102e-15)
(0 -3.63029e-30 -9.07574e-31 0.33743 7.47329e-16 -1.46507e-15 0.28338 -1.537e-15 -9.20456e-16)
(0 0 0 0.33743 1.1036e-15 4.8101e-16 0.28338 -1.5918e-15 -4.73981e-16)
(1.05113e-14 -3.09566e-30 -1.28282e-30 0.311641 -3.4476e-29 -9.34471e-30 0.277256 0 0)
(1.11981e-14 -8.62974e-30 0 0.311641 1.37913e-15 3.38462e-15 0.277256 -1.27513e-15 -2.03165e-15)
(8.17904e-16 2.04059e-30 0 0.287436 8.33721e-16 3.64304e-15 0.270864 -2.16887e-15 -2.76568e-15)
(7.64103e-15 -7.89544e-30 0 0.287436 1.37758e-15 3.76303e-15 0.270864 -2.29935e-15 -1.51381e-15)
(-2.83937e-15 0 0 0.264679 9.86076e-30 4.48615e-15 0.264142 -6.02669e-46 -2.13786e-15)
(0 0 3.8098e-31 0.264679 2.87157e-16 2.47106e-15 0.264142 -2.33588e-15 -2.27938e-15)
(0 0 0 0.243236 1.69167e-15 3.20285e-15 0.257015 -2.90921e-15 -2.01804e-15)
(1.14348e-14 -9.33086e-30 8.98517e-32 0.243236 1.27797e-16 3.22754e-15 0.257015 -3.12578e-16 -1.98965e-15)
(3.05393e-15 0 -1.01716e-30 0.222976 2.31287e-16 1.82443e-15 0.24939 -9.60941e-16 -1.92429e-15)
(-1.45643e-14 9.75672e-30 1.01716e-30 0.222976 -3.41599e-29 3.86982e-15 0.24939 0 -9.15913e-16)
(0 -2.65951e-31 1.27942e-30 0.203769 6.22156e-16 1.97022e-15 0.241148 -3.74616e-16 1.26409e-15)
(-1.44651e-14 1.00937e-29 -7.11496e-32 0.203769 7.26648e-16 -1.18164e-31 0.241148 -4.37534e-16 4.93038e-32)
(2.91401e-15 -1.94102e-30 -4.56889e-31 0.185483 1.66938e-15 1.43719e-15 0.232141 -3.13245e-15 1.18558e-15)
(-5.43571e-15 0 0 0.185483 4.02656e-16 -2.14746e-15 0.232141 -3.26623e-15 -1.05467e-15)
(0 0 5.69312e-31 0.167979 1.22567e-15 1.02113e-15 0.222176 -3.71375e-15 5.96344e-16)
(1.1726e-14 -3.51726e-43 -5.69312e-31 0.167979 -7.91092e-29 -5.56211e-16 0.222176 -3.15544e-30 -1.43997e-15)
(5.89695e-15 -3.55674e-30 1.13482e-30 0.151109 6.00835e-16 -3.9443e-31 0.210997 -2.28292e-15 0)
(0 -3.22301e-31 0 0.151109 2.16431e-15 7.34008e-16 0.210997 -5.72956e-15 -1.51396e-15)
(7.52848e-15 -2.37212e-30 1.01332e-30 0.134704 5.66812e-16 -2.72161e-15 0.198265 -4.30915e-16 -8.52386e-16)
(-4.5636e-15 0 0 0.134704 1.05347e-15 -1.05323e-29 0.198265 -1.55223e-15 -4.56767e-47)
(7.61756e-15 -7.11369e-31 1.1051e-32 0.118569 2.5184e-15 -2.48079e-15 0.183515 -4.57725e-15 6.68078e-16)
(1.19227e-14 -6.62934e-30 2.68858e-31 0.118569 2.05283e-15 -1.16009e-15 0.183515 -1.65433e-15 -8.54248e-17)
(1.00531e-14 -2.36729e-30 -2.06458e-30 0.102467 3.51874e-16 -1.38033e-29 0.16611 -3.50974e-15 0)
(1.19833e-14 -8.53037e-31 1.12726e-30 0.102467 -2.16937e-30 5.87944e-16 0.16611 -6.14678e-15 -1.51762e-16)
(0 1.59688e-30 2.92443e-31 0.086107 -4.80561e-16 1.38472e-17 0.14517 -4.35162e-16 1.31116e-16)
(-1.20411e-14 5.43568e-30 -1.861e-31 0.086107 -1.26946e-15 -1.4238e-16 0.14517 -2.60849e-15 1.06942e-15)
(5.90544e-16 -1.65938e-30 -6.02926e-31 0.0691332 2.94167e-16 -1.09476e-46 0.119522 -1.13021e-15 -3.9443e-31)
(1.20956e-14 0 1.20385e-30 0.0691332 -3.37547e-44 -3.61599e-16 0.119522 -3.1645e-45 -8.19847e-16)
(0 0 0 0.0511463 8.12049e-16 2.46519e-32 0.0877168 -1.62465e-15 6.16298e-33)
(-3.40977e-15 1.51424e-30 4.732e-32 0.0511463 1.25199e-15 3.23931e-18 0.0877168 -1.27391e-15 -5.33571e-16)
(3.21668e-15 -1.42849e-30 -5.3117e-31 0.0317812 1.35573e-15 -1.97215e-31 0.0482471 -2.01841e-15 0)
(1.21927e-14 -4.06777e-30 3.57124e-31 0.0317812 1.8867e-15 -2.00432e-15 0.0482471 -4.16572e-15 6.94819e-16)
(3.08585e-15 -1.26224e-30 6.73802e-31 2.33043e-14 1.21009e-15 2.65238e-16 2.48677e-14 -4.24154e-15 -2.77933e-16)
(0 1.3476e-30 -6.73802e-31 7.76809e-15 5.80511e-16 -1.18746e-15 1.06581e-14 -3.96834e-15 -1.35765e-15)
(0 -8.22512e-33 0 33.4827 -8.3674e-16 4.30028e-14 -0.191462 1.32318e-14 2.94563e-16)
(0 8.22512e-33 1.31602e-31 33.4827 2.90551e-16 1.58097e-13 -0.191462 1.08825e-16 -5.20264e-16)
(0 2.27342e-29 0 33.4629 1.88774e-27 9.07075e-15 -0.585653 4.12184e-14 1.91798e-16)
(-6.98901e-17 4.41812e-29 4.08231e-27 33.4629 1.38466e-15 4.94019e-14 -0.585653 -1.67813e-17 -5.98726e-16)
(3.28931e-17 6.40497e-33 4.68478e-31 33.4416 -2.13381e-15 6.29187e-15 -0.884741 4.08519e-14 1.85159e-16)
(0 -6.40497e-33 -4.68478e-31 33.4416 2.36848e-17 2.40896e-14 -0.884741 6.99719e-17 -6.40405e-16)
(1.78224e-16 -4.31591e-33 -2.20975e-31 33.4172 -5.21885e-16 6.90237e-15 -0.937103 3.77668e-14 1.2758e-16)
(0 9.49501e-33 4.4195e-31 33.4172 1.09854e-15 2.41804e-14 -0.937103 1.10533e-16 -6.77853e-16)
(1.49134e-16 1.79147e-32 4.16923e-31 33.3848 -5.68144e-16 7.53192e-15 -0.992219 3.77409e-14 5.6165e-17)
(-7.46495e-16 -3.25721e-32 -1.4275e-30 33.3848 1.13497e-15 2.39828e-14 -0.992219 1.61518e-16 -7.07844e-16)
(0 0 0 33.3322 -7.41659e-16 8.1623e-15 -1.04966 3.7441e-14 -2.94395e-17)
(0 -6.14554e-33 0 33.3322 1.06907e-15 2.33761e-14 -1.04966 2.27352e-16 -7.2342e-16)
(-2.53523e-16 5.79754e-32 1.48417e-30 33.2331 -1.34255e-15 8.71766e-15 -1.10829 3.73871e-14 -1.33085e-16)
(0 -5.79754e-32 -1.48417e-30 33.2331 1.28317e-15 2.21942e-14 -1.10829 3.05639e-16 -7.16387e-16)
(3.22459e-16 0 0 33.0388 -2.16206e-15 9.07819e-15 -1.1657 3.73535e-14 -2.54842e-16)
(0 -8.20386e-33 -7.00063e-31 33.0388 1.73572e-15 2.02065e-14 -1.1657 4.08012e-16 -6.72063e-16)
(-3.96117e-16 6.19144e-32 1.32084e-30 32.6719 -2.86478e-15 9.09732e-15 -1.21778 3.69433e-14 -3.93231e-16)
(-7.43567e-16 -4.64358e-32 -1.32084e-30 32.6719 1.94812e-15 1.71393e-14 -1.21778 5.22085e-16 -5.74645e-16)
(0 6.17547e-32 6.23023e-31 32.0296 -3.33552e-15 8.67618e-15 -1.25872 3.69405e-14 -5.44525e-16)
(-1.89975e-15 -4.624e-32 -2.43692e-30 32.0296 1.60327e-15 1.27974e-14 -1.25872 6.58314e-16 -4.09546e-16)
(1.02703e-16 -4.59174e-33 5.87743e-31 31.0069 -3.42647e-15 7.73182e-15 -1.28207 3.67602e-14 -7.04061e-16)
(-2.23615e-15 0 -1.35718e-30 31.0069 1.77128e-15 7.35002e-15 -1.28207 8.37212e-16 -1.8606e-16)
(6.47866e-16 1.21288e-31 5.54461e-31 29.5385 -3.33355e-15 6.34927e-15 -1.28302 3.65439e-14 -8.6327e-16)
(-1.24854e-15 -7.79711e-32 5.60519e-45 29.5385 2.01213e-15 1.97215e-31 -1.28302 1.02861e-15 -3.9443e-31)
(-1.48001e-15 1.30766e-31 0 27.6399 -3.52888e-15 4.87333e-15 -1.2606 3.6297e-14 -1.01558e-15)
(1.78219e-15 -9.80745e-32 5.89436e-29 27.6399 1.42387e-15 -2.96396e-15 -1.2606 1.24311e-15 -6.82085e-17)
(1.66672e-15 -1.54201e-31 -9.86889e-31 25.4164 -4.45692e-15 3.56059e-15 -1.2182 3.60452e-14 -1.15718e-15)
(3.33344e-15 1.54201e-31 2.19208e-30 25.4164 7.45614e-16 -8.66759e-15 -1.2182 1.48788e-15 -3.21796e-16)
(1.9739e-15 -4.36408e-31 -1.39651e-30 23.0282 -5.73605e-15 2.4304e-15 -1.16204 3.57841e-14 -1.28658e-15)
(0 3.78221e-31 1.39651e-30 23.0282 6.83406e-16 -1.15814e-14 -1.16204 1.77452e-15 -5.30018e-16)
(1.0151e-15 -2.19571e-31 0 20.6369 -4.45582e-15 1.55288e-15 -1.09878 3.55156e-14 -1.40242e-15)
(0 1.15141e-30 0 20.6369 4.20068e-29 -1.29727e-14 -1.09878 2.07419e-15 -6.72016e-16)
(-7.65381e-16 3.10706e-31 1.24283e-30 18.3659 -2.41521e-15 1.1809e-15 -1.03386 3.51728e-14 -1.50862e-15)
(-4.40139e-15 -1.55353e-31 -1.89221e-30 18.3659 -5.53163e-16 -1.32036e-14 -1.03386 2.39809e-15 -7.52686e-16)
(0 3.90816e-31 1.17245e-30 16.2875 -3.22553e-15 1.04416e-15 -0.970919 3.48e-14 -1.61544e-15)
(-4.72329e-15 -5.37372e-31 -1.68395e-30 16.2875 -9.45379e-16 -1.27158e-14 -0.970919 2.76657e-15 -7.82754e-16)
(-1.66041e-15 5.99114e-31 7.37371e-31 14.4313 -4.5033e-15 8.05731e-16 -0.912008 3.44521e-14 -1.72047e-15)
(0 -5.53028e-31 -1.10606e-30 14.4313 1.55748e-16 -1.1818e-14 -0.912008 3.12436e-15 -7.83851e-16)
(-1.56639e-15 7.82568e-31 6.95616e-31 12.7976 -5.53911e-15 5.71969e-16 -0.858038 3.4112e-14 -1.78673e-15)
(-5.30856e-15 1.92277e-30 -1.33047e-30 12.7976 -5.55654e-29 -1.0754e-14 -0.858038 3.46376e-15 -7.58788e-16)
(4.34883e-15 -8.20282e-32 4.53537e-31 11.3714 -6.21443e-15 2.14521e-16 -0.809213 3.38002e-14 -1.02429e-15)
(0 0 0 11.3714 -3.13459e-16 -9.64429e-15 -0.809213 3.82109e-15 -7.29062e-16)
(0 -3.09533e-31 0 10.1306 -5.54359e-15 -5.42911e-17 -0.765343 3.34255e-14 -3.42369e-16)
(0 -2.3493e-30 0 10.1306 -6.04121e-29 -8.55823e-15 -0.765343 4.23211e-15 -6.84883e-16)
(1.51425e-15 5.8401e-31 2.94968e-31 9.05181 -4.45564e-15 -9.61547e-17 -0.726051 3.30053e-14 -5.56372e-18)
(-6.05701e-15 -5.8401e-31 -2.04514e-32 9.05181 -1.34871e-15 -7.79849e-15 -0.726051 4.59806e-15 -6.45206e-16)
(4.70854e-15 4.13204e-31 9.29797e-31 8.11255 -3.40878e-15 -1.46836e-16 -0.690884 3.2559e-14 -1.0433e-17)
(-6.27805e-15 -4.13204e-31 0 8.11255 -1.8499e-15 -6.92657e-15 -0.690884 5.00575e-15 -4.91433e-16)
(0 -1.29935e-31 2.59871e-31 7.29277 -3.11639e-15 -1.86121e-17 -0.659385 3.20575e-14 -7.88596e-17)
(-6.4873e-15 2.59871e-31 0 7.29277 -2.46301e-15 -5.99828e-15 -0.659385 5.482e-15 -3.37657e-16)
(0 2.45155e-31 0 6.57503 -3.80976e-15 1.72727e-16 -0.631122 3.16184e-14 -6.18877e-16)
(-6.686e-15 -2.45155e-31 0 6.57503 -2.75832e-15 -5.38233e-15 -0.631122 5.96115e-15 -1.8262e-16)
(2.08312e-15 -6.93818e-31 6.93818e-31 5.94444 -5.0385e-15 4.09208e-17 -0.6057 3.11614e-14 -1.19801e-15)
(-6.87529e-15 4.62545e-31 0 5.94444 -1.71211e-15 -4.72458e-15 -0.6057 6.47329e-15 -3.0289e-17)
(1.96516e-15 4.36353e-31 0 5.38839 -5.03725e-15 -2.53479e-16 -0.58277 3.07055e-14 -1.87201e-15)
(-1.96516e-15 -2.18176e-31 0 5.38839 -1.4414e-15 -4.24426e-15 -0.58277 6.95753e-15 1.06722e-16)
(3.6147e-15 8.23287e-31 -3.10271e-31 4.89629 -3.16596e-15 -3.3117e-16 -0.562024 3.02083e-14 -2.6254e-15)
(-7.2294e-15 -1.23493e-30 6.17465e-31 4.89629 -3.17255e-15 -3.83865e-15 -0.562024 7.43875e-15 2.55312e-16)
(3.69792e-15 -1.165e-30 7.76667e-31 4.45921 -2.32479e-15 -1.74039e-16 -0.543195 2.9635e-14 -3.17877e-15)
(-5.64694e-15 7.76667e-31 -5.825e-31 4.45921 -3.77244e-15 -3.53842e-15 -0.543195 8.04128e-15 3.81666e-16)
(0 7.32687e-31 -3.66344e-31 4.06966 -3.62785e-15 -8.70647e-17 -0.526049 2.90744e-14 -2.28856e-15)
(-9.20599e-15 -3.66344e-31 1.83172e-31 4.06966 -2.19744e-15 -3.41248e-15 -0.526049 8.54199e-15 5.19097e-16)
(-3.85542e-15 1.38239e-30 -1.84739e-30 3.72129 -3.49689e-15 -2.16607e-16 -0.510384 2.87034e-14 -1.50887e-17)
(-7.71083e-15 -1.38239e-30 1.2096e-30 3.72129 -8.7467e-16 -3.63611e-15 -0.510384 8.94518e-15 6.63443e-16)
(-9.71488e-16 3.26029e-31 -3.58609e-31 3.40879 -1.51141e-15 -3.13614e-16 -0.496024 2.82941e-14 -5.90339e-17)
(0 8.95749e-31 1.63014e-31 3.40879 -1.00736e-15 -3.34387e-15 -0.496024 9.32178e-15 8.73521e-16)
(2.00137e-15 9.227e-31 -7.68916e-31 3.1276 -1.8137e-15 -4.06483e-16 -0.482815 2.77196e-14 8.66703e-17)
(-8.00547e-15 -1.53783e-30 1.07648e-30 3.1276 -1.58334e-15 3.61204e-16 -0.482815 9.81297e-15 1.00903e-15)
(-2.03656e-15 -5.803e-31 7.25375e-31 2.87387 -3.35299e-15 -6.27153e-16 -0.470624 2.7208e-14 1.22688e-15)
(8.14625e-15 1.1606e-30 -8.7045e-31 2.87387 -1.8322e-15 1.50003e-15 -0.470624 1.03187e-14 8.80872e-16)
(-2.07078e-15 0 2.7372e-31 2.64431 -3.08008e-15 -6.74332e-16 -0.459333 2.67182e-14 2.46781e-15)
(0 5.4744e-31 -5.4744e-31 2.64431 -3.06117e-15 -3.52855e-16 -0.459333 1.08386e-14 7.02733e-16)
(2.10411e-15 0 6.4555e-31 2.43609 -1.1511e-15 -1.02275e-15 -0.44884 2.6175e-14 3.80802e-15)
(0 0 -6.4555e-31 2.43609 -4.02765e-15 -7.95969e-17 -0.44884 1.14047e-14 8.65514e-16)
(-6.52488e-15 1.46159e-30 -1.09619e-30 2.24679 8.21217e-16 -1.0299e-15 -0.439053 2.543e-14 3.64848e-15)
(0 -9.74391e-31 9.74391e-31 2.24679 -3.04491e-15 -3.54326e-16 -0.439053 1.21281e-14 1.01689e-15)
(-4.13977e-15 9.19214e-31 -5.74509e-31 2.0743 -1.15201e-16 -2.01594e-16 -0.429893 2.46357e-14 3.37741e-15)
(1.73468e-14 0 1.14902e-31 2.0743 -3.23124e-15 -1.06961e-15 -0.429893 1.27385e-14 1.19352e-15)
(3.65865e-15 -1.73432e-30 4.33581e-31 1.91681 -2.01684e-15 -4.93038e-32 -0.421288 2.39931e-14 3.04911e-15)
(-8.79751e-15 4.33581e-31 -5.41976e-31 1.91681 -4.97683e-15 -1.26353e-15 -0.421288 1.32787e-14 1.40988e-15)
(-3.6842e-15 8.18058e-31 -7.15801e-31 1.77273 -1.9661e-15 -2.61948e-16 -0.413174 2.32742e-14 3.21482e-15)
(7.07684e-15 0 4.09029e-31 1.77273 -3.48522e-15 -1.06631e-15 -0.413174 1.3934e-14 1.64641e-15)
(0 -7.71734e-31 4.82334e-31 1.64068 -3.2e-15 5.77341e-16 -0.405496 2.25755e-14 3.06732e-15)
(0 0 -6.75267e-31 1.64068 -2.10362e-15 5.476e-17 -0.405496 1.44495e-14 1.92721e-15)
(0 7.28033e-31 -7.81785e-31 1.51946 -4.27256e-15 -1.23506e-29 -0.398203 2.21665e-14 2.94302e-15)
(-1.24332e-14 0 4.55021e-31 1.51946 -2.3566e-15 1.5823e-15 -0.398203 1.49614e-14 2.07826e-15)
(2.31722e-15 0 8.58508e-32 1.40799 -3.43003e-15 -4.83272e-16 -0.391248 2.19131e-14 2.93841e-15)
(0 0 -8.58508e-32 1.40799 -3.27645e-15 8.13362e-16 -0.391248 1.53867e-14 2.0824e-15)
(0 0 -2.42968e-31 1.30535 -2.15849e-15 -1.54065e-16 -0.38459 2.16999e-14 2.88971e-15)
(-9.38115e-15 6.47915e-31 0 1.30535 -4.51662e-15 -1.73765e-16 -0.38459 1.60775e-14 2.38284e-15)
(-2.75272e-15 2.4449e-30 -6.11226e-31 1.2107 -1.10446e-15 5.5558e-16 -0.378191 2.12145e-14 2.84637e-15)
(0 0 3.05613e-31 1.2107 -2.75532e-15 -6.94163e-16 -0.378191 1.68149e-14 2.53354e-15)
(0 -1.15323e-30 4.32461e-31 1.12332 -2.1586e-15 9.74655e-16 -0.372019 2.08613e-14 2.67533e-15)
(0 1.15323e-30 -4.32461e-31 1.12332 -1.67068e-15 -7.5447e-16 -0.372019 1.66822e-14 2.79136e-15)
(4.87639e-15 0 1.36047e-30 1.04254 -3.25622e-15 -7.68503e-30 -0.366041 2.08308e-14 2.4508e-15)
(-1.21562e-14 1.08792e-30 2.71981e-31 1.04254 -1.4337e-15 1.28116e-15 -0.366041 1.67969e-14 3.03287e-15)
(2.45281e-15 0 0 0.96779 -4.61538e-15 -8.98198e-16 -0.360229 2.05451e-14 2.35377e-15)
(9.81124e-15 2.40143e-30 0 0.96779 -9.63174e-16 1.08913e-15 -0.360229 1.68598e-14 2.88876e-15)
(6.54059e-15 0 -1.21025e-31 0.898548 -5.25094e-15 -1.34679e-15 -0.354556 2.06038e-14 2.21514e-15)
(-1.20946e-14 0 1.21025e-31 0.898548 -2.77027e-15 2.95387e-16 -0.354556 1.69665e-14 2.99994e-15)
(5.45516e-15 0 2.28344e-31 0.834348 -2.32743e-15 -4.76604e-15 -0.348999 2.05165e-14 2.65482e-15)
(1.20726e-14 0 -2.28344e-31 0.834348 -4.0764e-15 -5.37332e-16 -0.348999 1.71532e-14 2.9161e-15)
(0 0 -1.07707e-31 0.77477 -7.82206e-16 -3.74423e-15 -0.343534 2.00169e-14 3.20768e-15)
(-2.02315e-14 0 1.07707e-31 0.77477 -6.04626e-15 -1.10847e-15 -0.343534 1.76335e-14 3.2914e-15)
(0 -1.62572e-30 -1.01608e-31 0.719436 -1.80436e-15 -2.3232e-15 -0.338139 1.98615e-14 3.20113e-15)
(-1.02141e-14 0 0 0.719436 -5.65578e-15 3.79833e-16 -0.338139 1.86891e-14 3.25915e-15)
(2.57773e-15 0 0 0.668005 -2.5365e-15 -1.56859e-15 -0.332794 1.98037e-14 3.19553e-15)
(0 1.53366e-30 7.35682e-45 0.668005 -3.66721e-15 -6.46104e-30 -0.332794 1.89262e-14 2.92323e-15)
(0 -2.89363e-30 -1.80852e-31 0.620166 -3.73933e-15 -6.24877e-16 -0.327478 1.9716e-14 2.94076e-15)
(1.36642e-14 2.89363e-30 0 0.620166 -4.048e-15 -3.63311e-15 -0.327478 1.91793e-14 3.15723e-15)
(3.07346e-15 0 0 0.575638 -4.21029e-15 -1.30889e-15 -0.322171 1.99568e-14 2.92264e-15)
(0 0 0 0.575638 -3.65138e-15 -2.84628e-15 -0.322171 2.00248e-14 3.62017e-15)
(5.29623e-15 0 0 0.534162 -2.38112e-15 -2.2151e-15 -0.316853 2.0191e-14 3.43296e-15)
(7.69305e-15 0 6.438e-31 0.534162 -7.18619e-16 -2.66328e-16 -0.316853 2.02374e-14 3.95476e-15)
(0 0 0 0.495504 -2.30806e-15 -5.29464e-16 -0.311503 1.9979e-14 3.19852e-15)
(0 5.99587e-30 1.58276e-30 0.495504 -3.49071e-29 6.21228e-30 -0.311503 1.97358e-14 3.50542e-15)
(1.12866e-16 1.8494e-30 2.86476e-31 0.459446 -2.11636e-16 2.05728e-15 -0.306097 1.68524e-14 3.77148e-15)
(-1.07728e-14 2.37044e-30 5.72951e-31 0.459446 -2.98173e-15 -6.00086e-16 -0.306097 1.99442e-14 3.4313e-15)
(2.71521e-15 2.02276e-31 3.72005e-31 0.425789 0 1.97215e-31 -0.300611 1.72055e-14 3.10214e-15)
(8.42662e-15 -1.77012e-30 -4.62856e-31 0.425789 -1.15362e-15 -1.49432e-15 -0.300611 1.65776e-14 1.97132e-15)
(2.73685e-15 -5.00048e-31 0 0.394347 -7.21292e-16 -7.10162e-16 -0.295018 1.52378e-14 3.34022e-15)
(-1.55402e-14 2.63426e-30 1.3986e-30 0.394347 9.50945e-16 -6.89191e-16 -0.295018 1.48931e-14 1.38137e-15)
(0 0 -4.81026e-31 0.364948 2.85833e-16 -1.44683e-15 -0.289286 1.381e-14 3.34699e-15)
(6.69976e-15 -2.42714e-30 -1.01361e-30 0.364948 2.89401e-15 5.08139e-16 -0.289286 1.39895e-14 1.48476e-15)
(2.77901e-15 -6.69515e-31 -6.05998e-32 0.33743 1.19212e-15 -2.06477e-15 -0.28338 1.32753e-14 3.90742e-15)
(-1.92907e-14 1.32308e-30 5.52335e-31 0.33743 2.56299e-15 4.43737e-15 -0.28338 1.49439e-14 3.92514e-15)
(1.74314e-15 4.21982e-30 1.21344e-30 0.311641 1.68424e-15 2.35045e-15 -0.277256 1.46199e-14 3.80384e-15)
(-1.11981e-14 -9.15051e-30 -1.12779e-30 0.311641 -2.04118e-29 -2.76101e-30 -0.277256 1.64841e-14 2.03165e-15)
(-8.17904e-16 -2.32707e-31 4.41125e-31 0.287436 -6.56859e-47 5.74458e-16 -0.270864 1.44894e-14 2.76568e-15)
(-7.64103e-15 1.91114e-30 0 0.287436 -2.18009e-15 -4.20407e-15 -0.270864 1.30797e-14 1.51381e-15)
(2.83937e-15 -7.5168e-31 0 0.264679 -1.40088e-15 -2.97793e-15 -0.264142 1.23274e-14 2.13786e-15)
(-1.13575e-14 4.18275e-30 -1.18133e-30 0.264679 -1.5196e-15 -1.67253e-15 -0.264142 9.69823e-15 8.45498e-16)
(2.85869e-15 -1.04154e-30 -8.48116e-32 0.243236 1.22683e-16 -2.76331e-15 -0.257015 9.49282e-15 1.48076e-15)
(0 0 7.18813e-31 0.243236 -2.1174e-16 -7.2574e-16 -0.257015 9.51963e-15 7.06029e-16)
(-2.87758e-15 1.01826e-30 0 0.222976 -2.48777e-46 2.65166e-45 -0.24939 9.03359e-15 8.28304e-30)
(-2.30207e-14 9.24473e-30 7.06892e-31 0.222976 -5.38522e-16 7.91361e-17 -0.24939 8.95933e-15 2.79201e-16)
(0 0 -6.3971e-31 0.203769 -1.25658e-15 5.05591e-15 -0.241148 8.42576e-15 -1.26409e-15)