/*--------------------------------*- C++ -*----------------------------------*\
| =========                 |                                                 |
| \\      /  F ield         | OpenFOAM: The Open Source CFD Toolbox           |
|  \\    /   O peration     | Version:  2106                                  |
|   \\  /    A nd           | Website:  www.openfoam.com                      |
|    \\/     M anipulation  |                                                 |
\*---------------------------------------------------------------------------*/
FoamFile
{
    version     2.0;
    format      ascii;
    arch        "LSB;label=32;scalar=64";
    class       volVectorField;
    location    "14000";
    object      U;
}
// * * * * * * * * * * * * * * * * * * * * * * * * * * * * * * * * * * * * * //

dimensions      [0 1 -1 0 0 0 0];

internalField   nonuniform List<vector> 
2560
(
(0.000926413 -1.09953e-15 -2.77046e-17)
(0.000926413 -3.08083e-19 -4.68829e-18)
(0.00279243 -4.75568e-15 -8.25341e-17)
(0.00279243 -4.07045e-19 -1.53704e-17)
(0.00468531 -4.29347e-15 -8.59777e-17)
(0.00468531 -1.33946e-18 -1.58252e-17)
(0.00660545 -4.12411e-15 -8.90773e-17)
(0.00660545 -2.10259e-18 -1.62949e-17)
(0.00855325 -4.07646e-15 -9.24493e-17)
(0.00855325 -2.88902e-18 -1.67803e-17)
(0.0105291 -4.09246e-15 -9.60942e-17)
(0.0105291 -3.69891e-18 -1.72822e-17)
(0.0125335 -4.09819e-15 -9.99153e-17)
(0.0125335 -4.53841e-18 -1.78012e-17)
(0.0145668 -4.0983e-15 -1.03884e-16)
(0.0145668 -5.40032e-18 -1.83381e-17)
(0.0166295 -4.09718e-15 -1.07995e-16)
(0.0166295 -6.2781e-18 -1.88933e-17)
(0.0187219 -4.09597e-15 -1.1225e-16)
(0.0187219 -7.17833e-18 -1.94677e-17)
(0.0208446 -4.09466e-15 -1.16651e-16)
(0.0208446 -8.10574e-18 -2.00618e-17)
(0.0229979 -4.09324e-15 -1.21199e-16)
(0.0229979 -9.05553e-18 -2.06763e-17)
(0.0251824 -4.09174e-15 -1.25899e-16)
(0.0251824 -1.00366e-17 -2.13116e-17)
(0.0273985 -4.09017e-15 -1.30756e-16)
(0.0273985 -1.10442e-17 -2.1969e-17)
(0.0296466 -4.08854e-15 -1.35772e-16)
(0.0296466 -1.21018e-17 -2.26487e-17)
(0.0319273 -4.08687e-15 -1.40955e-16)
(0.0319273 -1.31635e-17 -2.33512e-17)
(0.034241 -4.08516e-15 -1.46308e-16)
(0.034241 -1.42432e-17 -2.40776e-17)
(0.0365882 -4.0834e-15 -1.51836e-16)
(0.0365882 -1.53879e-17 -2.48282e-17)
(0.0389694 -4.08158e-15 -1.57546e-16)
(0.0389694 -1.65448e-17 -2.5604e-17)
(0.0413851 -4.07971e-15 -1.63442e-16)
(0.0413851 -1.77355e-17 -2.64055e-17)
(0.0438358 -4.07777e-15 -1.69531e-16)
(0.0438358 -1.89753e-17 -2.72342e-17)
(0.0463221 -4.07578e-15 -1.75819e-16)
(0.0463221 -2.02353e-17 -2.80906e-17)
(0.0488444 -4.0738e-15 -1.8231e-16)
(0.0488444 -2.14703e-17 -2.8976e-17)
(0.0514033 -4.07173e-15 -1.89013e-16)
(0.0514033 -2.27699e-17 -2.9892e-17)
(0.0539993 -4.06952e-15 -1.95934e-16)
(0.0539993 -2.41538e-17 -3.08383e-17)
(0.0566329 -4.06729e-15 -2.03078e-16)
(0.0566329 -2.55332e-17 -3.18159e-17)
(0.0593048 -4.06506e-15 -2.10453e-16)
(0.0593048 -2.69097e-17 -3.28266e-17)
(0.0620155 -4.06276e-15 -2.18067e-16)
(0.0620155 -2.83305e-17 -3.38704e-17)
(0.0647655 -4.06035e-15 -2.25925e-16)
(0.0647655 -2.9784e-17 -3.49482e-17)
(0.0675554 -4.05785e-15 -2.34036e-16)
(0.0675554 -3.13194e-17 -3.60608e-17)
(0.0703857 -4.05529e-15 -2.42408e-16)
(0.0703857 -3.28983e-17 -3.72088e-17)
(0.0732572 -4.05266e-15 -2.51047e-16)
(0.0732572 -3.45089e-17 -3.83943e-17)
(0.0761704 -4.04997e-15 -2.59963e-16)
(0.0761704 -3.61746e-17 -3.96173e-17)
(0.0791258 -4.04718e-15 -2.69163e-16)
(0.0791258 -3.78725e-17 -4.08783e-17)
(0.0821241 -4.04432e-15 -2.78656e-16)
(0.0821241 -3.96195e-17 -4.21786e-17)
(0.0851659 -4.04143e-15 -2.88451e-16)
(0.0851659 -4.14031e-17 -4.35211e-17)
(0.0882518 -4.03845e-15 -3.01906e-16)
(0.0882518 -4.32761e-17 -4.49067e-17)
(0.0913825 -4.03535e-15 -3.15811e-16)
(0.0913825 -4.51852e-17 -4.63355e-17)
(0.0945586 -4.0321e-15 -3.30162e-16)
(0.0945586 -4.71538e-17 -4.78081e-17)
(0.0977807 -4.02881e-15 -3.44971e-16)
(0.0977807 -4.9113e-17 -4.93259e-17)
(0.101049 -4.02554e-15 -3.60248e-16)
(0.101049 -5.10172e-17 -5.08927e-17)
(0.104366 -4.02217e-15 -3.76008e-16)
(0.104366 -5.29785e-17 -5.25094e-17)
(0.10773 -4.01867e-15 -3.92265e-16)
(0.10773 -5.51322e-17 -5.41752e-17)
(0.111142 -4.01503e-15 -4.0903e-16)
(0.111142 -5.73629e-17 -5.58908e-17)
(0.114604 -4.01134e-15 -4.26318e-16)
(0.114604 -5.96188e-17 -5.76568e-17)
(0.118116 -4.0076e-15 -4.44144e-16)
(0.118116 -6.19125e-17 -5.94734e-17)
(0.121679 -4.00377e-15 -4.62521e-16)
(0.121679 -6.41313e-17 -6.13419e-17)
(0.125293 -3.99984e-15 -4.81463e-16)
(0.125293 -6.64724e-17 -6.32656e-17)
(0.128959 -3.99575e-15 -4.91038e-16)
(0.128959 -6.89713e-17 -6.52415e-17)
(0.132678 -3.99168e-15 -4.96762e-16)
(0.132678 -7.13827e-17 -6.72731e-17)
(0.13645 -3.98762e-15 -5.02506e-16)
(0.13645 -7.37969e-17 -6.93654e-17)
(0.140276 -3.9831e-15 -5.08263e-16)
(0.140276 -7.64976e-17 -7.15141e-17)
(0.144156 -3.97835e-15 -5.14049e-16)
(0.144156 -7.93343e-17 -7.37231e-17)
(0.148092 -3.97365e-15 -5.19846e-16)
(0.148092 -8.22024e-17 -7.59888e-17)
(0.152084 -3.96875e-15 -5.2565e-16)
(0.152084 -8.51433e-17 -7.83149e-17)
(0.156133 -3.9638e-15 -5.31458e-16)
(0.156133 -8.79476e-17 -8.07012e-17)
(0.160239 -3.95894e-15 -5.37265e-16)
(0.160239 -9.07592e-17 -8.31539e-17)
(0.164403 -3.95398e-15 -5.43067e-16)
(0.164403 -9.38481e-17 -8.56734e-17)
(0.168625 -3.94874e-15 -5.48852e-16)
(0.168625 -9.69828e-17 -8.82581e-17)
(0.172906 -3.9433e-15 -5.54628e-16)
(0.172906 -1.00282e-16 -9.0904e-17)
(0.177247 -3.93771e-15 -5.60387e-16)
(0.177247 -1.03563e-16 -9.36146e-17)
(0.181648 -3.93203e-15 -5.66123e-16)
(0.181648 -1.06627e-16 -9.63915e-17)
(0.186109 -3.92622e-15 -5.71818e-16)
(0.186109 -1.10085e-16 -9.87694e-17)
(0.190632 -3.92019e-15 -5.77473e-16)
(0.190632 -1.13424e-16 -1.00965e-16)
(0.195215 -3.91387e-15 -5.83079e-16)
(0.195215 -1.1698e-16 -1.03184e-16)
(0.199861 -3.9074e-15 -5.88649e-16)
(0.199861 -1.20696e-16 -1.05429e-16)
(0.204569 -3.90089e-15 -5.94159e-16)
(0.204569 -1.24328e-16 -1.07677e-16)
(0.209339 -3.89421e-15 -5.99589e-16)
(0.209339 -1.28388e-16 -1.09954e-16)
(0.214171 -3.88755e-15 -6.04939e-16)
(0.214171 -1.3212e-16 -1.12234e-16)
(0.219066 -3.88092e-15 -6.10181e-16)
(0.219066 -1.35557e-16 -1.14524e-16)
(0.224023 -3.87372e-15 -6.15317e-16)
(0.224023 -1.39513e-16 -1.16833e-16)
(0.229044 -3.86629e-15 -6.20349e-16)
(0.229044 -1.43919e-16 -1.19145e-16)
(0.234126 -3.85896e-15 -6.25251e-16)
(0.234126 -1.48107e-16 -1.21462e-16)
(0.23927 -3.85132e-15 -6.30003e-16)
(0.23927 -1.52229e-16 -1.23773e-16)
(0.244477 -3.8436e-15 -6.34572e-16)
(0.244477 -1.56696e-16 -1.26071e-16)
(0.249744 -3.83559e-15 -6.38966e-16)
(0.249744 -1.61157e-16 -1.2835e-16)
(0.255072 -3.82764e-15 -6.43185e-16)
(0.255072 -1.65505e-16 -1.30617e-16)
(0.26046 -3.81991e-15 -6.47211e-16)
(0.26046 -1.69899e-16 -1.32864e-16)
(0.265907 -3.81185e-15 -6.51006e-16)
(0.265907 -1.74461e-16 -1.35072e-16)
(0.271412 -3.80326e-15 -6.54541e-16)
(0.271412 -1.79191e-16 -1.3722e-16)
(0.276974 -3.79446e-15 -6.57805e-16)
(0.276974 -1.83894e-16 -1.3936e-16)
(0.282591 -3.78583e-15 -6.60813e-16)
(0.282591 -1.88621e-16 -1.41476e-16)
(0.288262 -3.77707e-15 -6.63518e-16)
(0.288262 -1.92966e-16 -1.43542e-16)
(0.293986 -3.76735e-15 -6.65894e-16)
(0.293986 -1.97979e-16 -1.45528e-16)
(0.29976 -3.75728e-15 -6.67929e-16)
(0.29976 -2.04063e-16 -1.47438e-16)
(0.305582 -3.74761e-15 -6.6961e-16)
(0.305582 -2.09384e-16 -1.49275e-16)
(0.311451 -3.73741e-15 -6.70918e-16)
(0.311451 -2.15073e-16 -1.5105e-16)
(0.317364 -3.7267e-15 -6.71878e-16)
(0.317364 -2.21262e-16 -1.52694e-16)
(0.323319 -3.71649e-15 -6.72434e-16)
(0.323319 -2.26359e-16 -1.54214e-16)
(0.329313 -3.70676e-15 -6.72568e-16)
(0.329313 -2.31283e-16 -1.55656e-16)
(0.335344 -3.69664e-15 -6.7233e-16)
(0.335344 -2.36576e-16 -1.56964e-16)
(0.341408 -3.68615e-15 -6.71653e-16)
(0.341408 -2.42183e-16 -1.58162e-16)
(0.347503 -3.67519e-15 -6.7052e-16)
(0.347503 -2.48129e-16 -1.5924e-16)
(0.353625 -3.66449e-15 -6.68966e-16)
(0.353625 -2.5373e-16 -1.60131e-16)
(0.359772 -3.65414e-15 -6.6697e-16)
(0.359772 -2.59748e-16 -1.6095e-16)
(0.36594 -3.6428e-15 -6.64529e-16)
(0.36594 -2.66125e-16 -1.61605e-16)
(0.372126 -3.63151e-15 -6.61561e-16)
(0.372126 -2.71734e-16 -1.6212e-16)
(0.378327 -3.62033e-15 -6.58138e-16)
(0.378327 -2.77967e-16 -1.62445e-16)
(0.384539 -3.60904e-15 -6.54311e-16)
(0.384539 -2.84052e-16 -1.62639e-16)
(0.390759 -3.59758e-15 -6.50072e-16)
(0.390759 -2.89704e-16 -1.62711e-16)
(0.396984 -3.58533e-15 -6.45418e-16)
(0.396984 -2.95411e-16 -1.62681e-16)
(0.40321 -3.57213e-15 -6.40264e-16)
(0.40321 -3.01849e-16 -1.62475e-16)
(0.409435 -3.55951e-15 -6.34781e-16)
(0.409435 -3.08215e-16 -1.62121e-16)
(0.415655 -3.54741e-15 -6.28913e-16)
(0.415655 -3.13625e-16 -1.61571e-16)
(0.421866 -3.5358e-15 -6.2262e-16)
(0.421866 -3.19975e-16 -1.60897e-16)
(0.428067 -3.52448e-15 -6.1598e-16)
(0.428067 -3.25345e-16 -1.60036e-16)
(0.434254 -3.5126e-15 -6.08867e-16)
(0.434254 -3.30195e-16 -1.59065e-16)
(0.440424 -3.50057e-15 -6.01443e-16)
(0.440424 -3.36195e-16 -1.5809e-16)
(0.446575 -3.48814e-15 -5.93824e-16)
(0.446575 -3.4241e-16 -1.5689e-16)
(0.452703 -3.4752e-15 -5.85912e-16)
(0.452703 -3.48794e-16 -1.55486e-16)
(0.458808 -3.46228e-15 -5.77683e-16)
(0.458808 -3.56028e-16 -1.54028e-16)
(0.464887 -3.44989e-15 -5.69277e-16)
(0.464887 -3.63282e-16 -1.52345e-16)
(0.470936 -3.4367e-15 -5.6079e-16)
(0.470936 -3.70701e-16 -1.5047e-16)
(0.476956 -3.42293e-15 -5.52249e-16)
(0.476956 -3.77736e-16 -1.48431e-16)
(0.482943 -3.41054e-15 -5.43699e-16)
(0.482943 -3.84802e-16 -1.46187e-16)
(0.488896 -3.39908e-15 -5.35067e-16)
(0.488896 -3.90274e-16 -1.43785e-16)
(0.494814 -3.38731e-15 -5.26218e-16)
(0.494814 -3.94609e-16 -1.41344e-16)
(0.500695 -3.37497e-15 -5.17248e-16)
(0.500695 -4.00787e-16 -1.3876e-16)
(0.506538 -3.36213e-15 -5.08209e-16)
(0.506538 -4.05959e-16 -1.36124e-16)
(0.512342 -3.34952e-15 -4.99148e-16)
(0.512342 -4.11582e-16 -1.33398e-16)
(0.518107 -3.33603e-15 -4.90087e-16)
(0.518107 -4.17974e-16 -1.30617e-16)
(0.52383 -3.3221e-15 -4.81078e-16)
(0.52383 -4.24635e-16 -1.27742e-16)
(0.529512 -3.30957e-15 -4.72195e-16)
(0.529512 -4.31482e-16 -1.24736e-16)
(0.535152 -3.29556e-15 -4.63506e-16)
(0.535152 -4.39367e-16 -1.21726e-16)
(0.540749 -3.28112e-15 -4.55151e-16)
(0.540749 -4.46971e-16 -1.18487e-16)
(0.546303 -3.26828e-15 -4.4691e-16)
(0.546303 -4.53461e-16 -1.15012e-16)
(0.551814 -3.25577e-15 -4.38719e-16)
(0.551814 -4.58901e-16 -1.1142e-16)
(0.557281 -3.24388e-15 -4.30676e-16)
(0.557281 -4.62312e-16 -1.07995e-16)
(0.562705 -3.23099e-15 -4.22849e-16)
(0.562705 -4.67698e-16 -1.04562e-16)
(0.568085 -3.21716e-15 -4.15477e-16)
(0.568085 -4.71607e-16 -1.00864e-16)
(0.573422 -3.20519e-15 -4.10576e-16)
(0.573422 -4.74744e-16 -9.72926e-17)
(0.578715 -3.19425e-15 -4.05815e-16)
(0.578715 -4.78601e-16 -9.38155e-17)
(0.583964 -3.18224e-15 -4.00863e-16)
(0.583964 -4.82836e-16 -9.04874e-17)
(0.589171 -3.16943e-15 -3.95898e-16)
(0.589171 -4.86984e-16 -8.71965e-17)
(0.594334 -3.15607e-15 -3.91129e-16)
(0.594334 -4.91939e-16 -8.41751e-17)
(0.599455 -3.14193e-15 -3.86636e-16)
(0.599455 -4.98922e-16 -8.1238e-17)
(0.604533 -3.13e-15 -3.82375e-16)
(0.604533 -5.06463e-16 -7.83504e-17)
(0.60957 -3.11851e-15 -3.78404e-16)
(0.60957 -5.11611e-16 -7.53167e-17)
(0.614565 -3.10556e-15 -3.74718e-16)
(0.614565 -5.15708e-16 -7.25589e-17)
(0.619519 -3.09038e-15 -3.71184e-16)
(0.619519 -5.2305e-16 -6.98664e-17)
(0.624432 -3.07737e-15 -3.67828e-16)
(0.624432 -5.2892e-16 -6.70284e-17)
(0.629305 -3.06526e-15 -3.64569e-16)
(0.629305 -5.33458e-16 -6.44345e-17)
(0.634139 -3.05196e-15 -3.61529e-16)
(0.634139 -5.41769e-16 -6.23033e-17)
(0.638933 -3.03837e-15 -3.58662e-16)
(0.638933 -5.5041e-16 -5.99106e-17)
(0.643689 -3.02697e-15 -3.56096e-16)
(0.643689 -5.55099e-16 -5.71214e-17)
(0.648406 -3.01646e-15 -3.53472e-16)
(0.648406 -5.61595e-16 -5.47199e-17)
(0.653086 -3.00346e-15 -3.50937e-16)
(0.653086 -5.6811e-16 -5.29123e-17)
(0.657729 -2.98977e-15 -3.48505e-16)
(0.657729 -5.75452e-16 -5.13156e-17)
(0.662336 -2.97776e-15 -3.4623e-16)
(0.662336 -5.83416e-16 -4.9698e-17)
(0.666907 -2.96393e-15 -3.43991e-16)
(0.666907 -5.92636e-16 -4.79642e-17)
(0.671443 -2.9487e-15 -3.41898e-16)
(0.671443 -6.02746e-16 -4.62566e-17)
(0.675944 -2.93516e-15 -3.39813e-16)
(0.675944 -6.10358e-16 -4.42571e-17)
(0.680411 -2.92073e-15 -3.37805e-16)
(0.680411 -6.21819e-16 -4.26986e-17)
(0.684844 -2.90244e-15 -3.35758e-16)
(0.684844 -6.32751e-16 -4.1852e-17)
(0.689245 -2.88345e-15 -3.34044e-16)
(0.689245 -6.42066e-16 -4.0674e-17)
(0.693613 -2.86572e-15 -3.3213e-16)
(0.693613 -6.55768e-16 -3.98083e-17)
(0.697949 -2.85075e-15 -3.30468e-16)
(0.697949 -6.64346e-16 -3.86207e-17)
(0.702254 -2.83929e-15 -3.2834e-16)
(0.702254 -6.69019e-16 -3.76421e-17)
(0.706528 -2.82511e-15 -3.25602e-16)
(0.706528 -6.78222e-16 -3.72358e-17)
(0.710773 -2.80906e-15 -3.22208e-16)
(0.710773 -6.86181e-16 -3.75771e-17)
(0.714987 -2.79098e-15 -3.18394e-16)
(0.714987 -6.90605e-16 -3.80305e-17)
(0.719173 -2.77542e-15 -3.15059e-16)
(0.719173 -6.96365e-16 -3.85728e-17)
(0.72333 -2.7634e-15 -3.11937e-16)
(0.72333 -7.05034e-16 -3.8919e-17)
(0.727459 -2.7507e-15 -3.09177e-16)
(0.727459 -7.14042e-16 -3.96881e-17)
(0.731561 -2.73985e-15 -3.06918e-16)
(0.731561 -7.21066e-16 -3.87259e-17)
(0.735636 -2.72863e-15 -3.04718e-16)
(0.735636 -7.29388e-16 -3.6368e-17)
(0.739684 -2.71642e-15 -3.02695e-16)
(0.739684 -7.36999e-16 -3.41878e-17)
(0.743706 -2.70302e-15 -3.009e-16)
(0.743706 -7.45565e-16 -3.19921e-17)
(0.747703 -2.68685e-15 -2.99253e-16)
(0.747703 -7.55094e-16 -2.96653e-17)
(0.751675 -2.67116e-15 -2.97899e-16)
(0.751675 -7.63848e-16 -2.76404e-17)
(0.755623 -2.65686e-15 -2.97085e-16)
(0.755623 -7.73652e-16 -2.55188e-17)
(0.759546 -2.64308e-15 -2.9589e-16)
(0.759546 -7.79872e-16 -2.37291e-17)
(0.763446 -2.63113e-15 -2.93944e-16)
(0.763446 -7.88316e-16 -2.2388e-17)
(0.767323 -2.61529e-15 -2.91952e-16)
(0.767323 -7.96845e-16 -2.10866e-17)
(0.771177 -2.59657e-15 -2.89696e-16)
(0.771177 -8.05978e-16 -2.02047e-17)
(0.775009 -2.5807e-15 -2.87335e-16)
(0.775009 -8.14336e-16 -1.94007e-17)
(0.778819 -2.56254e-15 -2.8444e-16)
(0.778819 -8.25613e-16 -1.89108e-17)
(0.782608 -2.54452e-15 -2.81159e-16)
(0.782608 -8.374e-16 -1.91067e-17)
(0.786376 -2.52798e-15 -2.77294e-16)
(0.786376 -8.44297e-16 -1.87485e-17)
(0.790123 -2.50946e-15 -2.73285e-16)
(0.790123 -8.55954e-16 -1.86426e-17)
(0.79385 -2.49106e-15 -2.70012e-16)
(0.79385 -8.66289e-16 -1.88405e-17)
(0.797557 -2.47433e-15 -2.65892e-16)
(0.797557 -8.76717e-16 -1.93979e-17)
(0.801244 -2.45668e-15 -2.62145e-16)
(0.801244 -8.89604e-16 -1.95982e-17)
(0.804913 -2.43741e-15 -2.58655e-16)
(0.804913 -8.95112e-16 -1.90777e-17)
(0.808563 -2.4177e-15 -2.553e-16)
(0.808563 -9.00377e-16 -1.90547e-17)
(0.812194 -2.39741e-15 -2.52226e-16)
(0.812194 -9.05835e-16 -1.98214e-17)
(0.815807 -2.37766e-15 -2.48985e-16)
(0.815807 -9.14935e-16 -2.11394e-17)
(0.819403 -2.35847e-15 -2.45986e-16)
(0.819403 -9.26746e-16 -2.19687e-17)
(0.822981 -2.33708e-15 -2.42865e-16)
(0.822981 -9.3894e-16 -2.23429e-17)
(0.826543 -2.31266e-15 -2.4067e-16)
(0.826543 -9.55452e-16 -2.2343e-17)
(0.830087 -2.29134e-15 -2.38818e-16)
(0.830087 -9.66196e-16 -2.26812e-17)
(0.833615 -2.27188e-15 -2.36692e-16)
(0.833615 -9.75462e-16 -2.37653e-17)
(0.837127 -2.24918e-15 -2.34786e-16)
(0.837127 -9.86246e-16 -2.5632e-17)
(0.840623 -2.22592e-15 -2.32605e-16)
(0.840623 -9.94619e-16 -2.79189e-17)
(0.844104 -2.20489e-15 -2.30963e-16)
(0.844104 -1.00905e-15 -3.02999e-17)
(0.847569 -2.18426e-15 -2.29518e-16)
(0.847569 -1.03099e-15 -3.29005e-17)
(0.851019 -2.16014e-15 -2.28283e-16)
(0.851019 -1.04101e-15 -3.54833e-17)
(0.854455 -2.13862e-15 -2.27918e-16)
(0.854455 -1.05238e-15 -3.7366e-17)
(0.857875 -2.12253e-15 -2.26563e-16)
(0.857875 -1.07567e-15 -3.95666e-17)
(0.861282 -2.10203e-15 -2.25792e-16)
(0.861282 -1.08677e-15 -4.08404e-17)
(0.864675 -2.07993e-15 -2.24802e-16)
(0.864675 -1.09826e-15 -4.18858e-17)
(0.868053 -2.05876e-15 -2.23142e-16)
(0.868053 -1.10678e-15 -4.26413e-17)
(0.871418 -2.03893e-15 -2.21085e-16)
(0.871418 -1.11146e-15 -4.44909e-17)
(0.87477 -2.01849e-15 -2.19084e-16)
(0.87477 -1.12163e-15 -4.63855e-17)
(0.878109 -1.99611e-15 -2.17199e-16)
(0.878109 -1.12957e-15 -4.69784e-17)
(0.881434 -1.97383e-15 -2.15202e-16)
(0.881434 -1.13378e-15 -4.81572e-17)
(0.884747 -1.95622e-15 -2.14198e-16)
(0.884747 -1.13794e-15 -5.02085e-17)
(0.888048 -1.93858e-15 -2.12119e-16)
(0.888048 -1.14021e-15 -5.15717e-17)
(0.891336 -1.91823e-15 -2.10942e-16)
(0.891336 -1.14384e-15 -5.33753e-17)
(0.894611 -1.90292e-15 -2.09561e-16)
(0.894611 -1.14555e-15 -5.48905e-17)
(0.897875 -1.88112e-15 -2.07454e-16)
(0.897875 -1.14483e-15 -5.61249e-17)
(0.901127 -1.86003e-15 -2.05116e-16)
(0.901127 -1.15766e-15 -5.73528e-17)
(0.904367 -1.84631e-15 -2.03204e-16)
(0.904367 -1.16118e-15 -5.88672e-17)
(0.907596 -1.83267e-15 -2.01868e-16)
(0.907596 -1.15907e-15 -5.9757e-17)
(0.910813 -1.81887e-15 -2.0032e-16)
(0.910813 -1.15648e-15 -6.04232e-17)
(0.914019 -1.80042e-15 -1.9898e-16)
(0.914019 -1.1489e-15 -6.04503e-17)
(0.917214 -1.77949e-15 -1.97451e-16)
(0.917214 -1.15208e-15 -6.3076e-17)
(0.920398 -1.76171e-15 -1.96004e-16)
(0.920398 -1.1569e-15 -6.60145e-17)
(0.923571 -1.74455e-15 -1.94635e-16)
(0.923571 -1.15395e-15 -7.03571e-17)
(0.926733 -1.73165e-15 -1.93029e-16)
(0.926733 -1.15326e-15 -7.29877e-17)
(0.929885 -1.72017e-15 -1.89511e-16)
(0.929885 -1.15497e-15 -7.80972e-17)
(0.933026 -1.7061e-15 -1.84229e-16)
(0.933026 -1.15094e-15 -8.53098e-17)
(0.936157 -1.69084e-15 -1.80685e-16)
(0.936157 -1.14421e-15 -9.01109e-17)
(0.939277 -1.67458e-15 -1.77465e-16)
(0.939277 -1.15171e-15 -9.23682e-17)
(0.942387 -1.66112e-15 -1.76605e-16)
(0.942387 -1.15613e-15 -9.39618e-17)
(0.945487 -1.6466e-15 -1.74657e-16)
(0.945487 -1.14341e-15 -9.83015e-17)
(0.948577 -1.62989e-15 -1.72017e-16)
(0.948577 -1.14682e-15 -9.98896e-17)
(0.951656 -1.61232e-15 -1.7211e-16)
(0.951656 -1.15268e-15 -9.8507e-17)
(0.954726 -1.6005e-15 -1.73263e-16)
(0.954726 -1.15245e-15 -9.88878e-17)
(0.957786 -1.5843e-15 -1.73192e-16)
(0.957786 -1.158e-15 -9.99115e-17)
(0.960836 -1.5755e-15 -1.74826e-16)
(0.960836 -1.16177e-15 -9.95526e-17)
(0.963876 -1.57306e-15 -1.74632e-16)
(0.963876 -1.15324e-15 -1.00192e-16)
(0.966906 -1.55887e-15 -1.72204e-16)
(0.966906 -1.14625e-15 -9.97515e-17)
(0.969926 -1.54902e-15 -1.70335e-16)
(0.969926 -1.15253e-15 -1.00751e-16)
(0.972937 -1.53616e-15 -1.67745e-16)
(0.972937 -1.14114e-15 -9.96318e-17)
(0.975938 -1.51898e-15 -1.657e-16)
(0.975938 -1.13345e-15 -9.8366e-17)
(0.978929 -1.50813e-15 -1.65372e-16)
(0.978929 -1.1379e-15 -9.50512e-17)
(0.98191 -1.49931e-15 -1.64626e-16)
(0.98191 -1.13179e-15 -9.23895e-17)
(0.984882 -1.4891e-15 -1.65271e-16)
(0.984882 -1.1285e-15 -9.21007e-17)
(0.987843 -1.47914e-15 -1.63691e-16)
(0.987843 -1.11612e-15 -9.3487e-17)
(0.990795 -1.46929e-15 -1.61573e-16)
(0.990795 -1.11181e-15 -9.6703e-17)
(0.993737 -1.4561e-15 -1.60657e-16)
(0.993737 -1.11424e-15 -1.00356e-16)
(0.99667 -1.4512e-15 -1.60545e-16)
(0.99667 -1.0985e-15 -1.0131e-16)
(0.999592 -1.45423e-15 -1.6194e-16)
(0.999592 -1.08846e-15 -1.02217e-16)
(1.0025 -1.44729e-15 -1.6224e-16)
(1.0025 -1.08823e-15 -1.03092e-16)
(1.00541 -1.42487e-15 -1.61236e-16)
(1.00541 -1.1023e-15 -9.6633e-17)
(1.0083 -1.38719e-15 -1.59458e-16)
(1.0083 -1.12029e-15 -9.19136e-17)
(1.01118 -1.33191e-15 -1.57852e-16)
(1.01118 -1.11092e-15 -8.70904e-17)
(1.01405 -1.28956e-15 -1.5653e-16)
(1.01405 -1.07913e-15 -8.38017e-17)
(1.01691 -1.26272e-15 -1.54219e-16)
(1.01691 -1.07162e-15 -8.20113e-17)
(1.01976 -1.23118e-15 -1.45313e-16)
(1.01976 -1.07035e-15 -7.10856e-17)
(1.0226 -1.21721e-15 -1.42612e-16)
(1.0226 -1.05068e-15 -5.73698e-17)
(1.02543 -1.21902e-15 -1.28043e-16)
(1.02543 -1.03885e-15 -5.78317e-17)
(1.02825 -1.19955e-15 -1.14468e-16)
(1.02825 -1.02732e-15 -5.41158e-17)
(1.03106 -1.18035e-15 -1.03387e-16)
(1.03106 -1.00659e-15 -5.79857e-17)
(1.03385 -1.16863e-15 -8.63252e-17)
(1.03385 -1.00532e-15 -6.23011e-17)
(1.03664 -1.14175e-15 -7.51997e-17)
(1.03664 -1.00271e-15 -6.42298e-17)
(1.03941 -1.1242e-15 -7.17319e-17)
(1.03941 -9.96919e-16 -6.76836e-17)
(1.04217 -1.10557e-15 -6.19519e-17)
(1.04217 -9.9652e-16 -6.523e-17)
(1.04492 -1.08237e-15 -5.3557e-17)
(1.04492 -9.94378e-16 -6.6278e-17)
(1.04766 -1.06447e-15 -5.09366e-17)
(1.04766 -9.80727e-16 -6.11434e-17)
(1.05038 -1.04994e-15 -4.62173e-17)
(1.05038 -9.80365e-16 -5.47747e-17)
(1.05309 -1.03557e-15 -3.70105e-17)
(1.05309 -9.79983e-16 -5.02071e-17)
(1.05579 -1.02303e-15 -4.0045e-17)
(1.05579 -9.54624e-16 -4.41994e-17)
(1.05848 -1.00341e-15 -4.0977e-17)
(1.05848 -9.56282e-16 -4.1325e-17)
(1.06115 -9.90185e-16 -3.75781e-17)
(1.06115 -9.52618e-16 -3.22965e-17)
(1.0638 -9.83621e-16 -4.0864e-17)
(1.0638 -9.13895e-16 -2.97809e-17)
(1.06645 -9.46834e-16 -4.32021e-17)
(1.06645 -9.22554e-16 -3.7964e-17)
(1.06907 -9.1247e-16 -5.58912e-17)
(1.06907 -9.27541e-16 -2.83762e-17)
(1.07169 -8.89624e-16 -6.55395e-17)
(1.07169 -9.08175e-16 -3.1332e-17)
(1.07428 -8.70373e-16 -7.58004e-17)
(1.07428 -9.14773e-16 -3.86117e-17)
(1.07687 -8.67337e-16 -8.28999e-17)
(1.07687 -9.02e-16 -5.43784e-17)
(1.07943 -8.73802e-16 -8.47641e-17)
(1.07943 -8.83648e-16 -6.5397e-17)
(1.08198 -8.84657e-16 -7.89379e-17)
(1.08198 -8.67745e-16 -6.58472e-17)
(1.08451 -8.70559e-16 -7.04793e-17)
(1.08451 -8.3563e-16 -5.88243e-17)
(1.08702 -8.38505e-16 -5.88628e-17)
(1.08702 -8.10673e-16 -5.77426e-17)
(1.08952 -8.16579e-16 -4.69934e-17)
(1.08952 -8.26871e-16 -5.66168e-17)
(1.09199 -8.06417e-16 -4.066e-17)
(1.09199 -8.26123e-16 -5.04664e-17)
(1.09445 -8.1252e-16 -2.45132e-17)
(1.09445 -8.10153e-16 -4.50578e-17)
(1.09688 -8.07087e-16 -6.58312e-18)
(1.09688 -8.037e-16 -3.43928e-17)
(1.0993 -7.93467e-16 -1.93497e-18)
(1.0993 -7.89153e-16 -1.80789e-17)
(1.10169 -7.78105e-16 6.57723e-18)
(1.10169 -7.67769e-16 -2.41763e-17)
(1.10406 -7.5626e-16 -4.63104e-18)
(1.10406 -7.69378e-16 -2.32798e-17)
(1.10641 -7.40657e-16 -1.31734e-17)
(1.10641 -7.57375e-16 -2.03107e-17)
(1.10873 -7.20688e-16 -1.93477e-17)
(1.10873 -7.46961e-16 -1.88871e-17)
(1.11103 -7.28922e-16 -3.08291e-17)
(1.11103 -7.56145e-16 2.26851e-18)
(1.1133 -7.60394e-16 -3.11625e-17)
(1.1133 -7.59989e-16 1.41817e-18)
(1.11554 -7.51541e-16 -3.56987e-17)
(1.11554 -7.61548e-16 -8.34076e-18)
(1.11775 -7.39655e-16 -1.88919e-17)
(1.11775 -7.33134e-16 -7.50287e-18)
(1.11994 -7.80998e-16 -2.96904e-17)
(1.11994 -7.50049e-16 -6.36167e-18)
(1.12209 -7.67927e-16 -5.43075e-18)
(1.12209 -7.22422e-16 1.07508e-17)
(1.12422 -7.60771e-16 -1.39287e-17)
(1.12422 -6.89773e-16 5.75282e-19)
(1.1263 -6.98872e-16 1.92371e-17)
(1.1263 -6.74895e-16 -2.37196e-17)
(1.12836 -6.59407e-16 2.27342e-17)
(1.12836 -6.90058e-16 -3.36114e-17)
(1.13038 -6.87083e-16 -2.75871e-17)
(1.13038 -6.9226e-16 -5.38135e-17)
(1.13235 -6.65797e-16 -4.41973e-17)
(1.13235 -6.74245e-16 -6.03581e-17)
(1.13429 -6.03624e-16 1.43468e-17)
(1.13429 -6.76263e-16 -6.85321e-17)
(1.13619 -5.83374e-16 -2.06213e-17)
(1.13619 -6.1721e-16 -6.6671e-17)
(1.13804 -5.59506e-16 -1.25142e-17)
(1.13804 -5.83522e-16 -6.93385e-17)
(1.13985 -5.79585e-16 -3.39787e-17)
(1.13985 -5.89165e-16 -6.30581e-17)
(1.14161 -5.53565e-16 -3.1806e-17)
(1.14161 -5.37615e-16 -6.0416e-17)
(1.14331 -5.83447e-16 -1.29984e-17)
(1.14331 -5.51634e-16 -6.37178e-17)
(1.14497 -5.48372e-16 2.8297e-17)
(1.14497 -5.67149e-16 -6.68692e-17)
(1.14657 -5.11491e-16 1.84896e-17)
(1.14657 -5.6129e-16 -4.3764e-17)
(1.1481 -5.8278e-16 -6.78209e-18)
(1.1481 -5.45799e-16 -2.88088e-17)
(1.14958 -5.8917e-16 2.41093e-17)
(1.14958 -5.49736e-16 -1.96713e-17)
(1.15099 -5.69817e-16 2.29635e-17)
(1.15099 -5.46755e-16 2.87551e-17)
(1.15232 -5.32554e-16 4.65488e-17)
(1.15232 -5.29535e-16 2.00239e-17)
(1.15359 -4.94485e-16 3.6958e-17)
(1.15359 -5.11746e-16 3.43647e-17)
(1.15478 -4.72978e-16 2.75292e-17)
(1.15478 -5.01321e-16 4.44622e-17)
(1.15588 -4.60981e-16 1.24349e-17)
(1.15588 -4.87754e-16 3.17747e-17)
(1.1569 -4.13041e-16 -2.6627e-17)
(1.1569 -4.97732e-16 2.84532e-18)
(1.15783 -4.76667e-16 9.56603e-18)
(1.15783 -4.9695e-16 -9.13438e-18)
(1.15866 -4.73103e-16 -1.36719e-17)
(1.15866 -4.82582e-16 -1.15741e-17)
(1.15939 -4.78826e-16 -4.23891e-17)
(1.15939 -5.28789e-16 9.60793e-19)
(1.16001 -5.17977e-16 -8.00644e-17)
(1.16001 -5.11956e-16 3.8559e-18)
(1.16052 -5.37465e-16 -7.40243e-17)
(1.16052 -4.83269e-16 -2.32406e-17)
(1.16091 -5.11583e-16 -6.52078e-17)
(1.16091 -4.97089e-16 -3.96572e-17)
(1.16118 -4.85807e-16 -6.07047e-17)
(1.16118 -5.07844e-16 -7.62903e-17)
(1.16131 -5.11112e-16 -1.55207e-17)
(1.16131 -4.74541e-16 -6.37347e-17)
(0.000926413 -1.51362e-19 2.76641e-18)
(0.000926413 -3.52385e-20 -1.91783e-23)
(0.00279243 -2.03429e-19 6.82742e-18)
(0.00279243 -1.02674e-20 -3.23144e-23)
(0.00468531 -6.76409e-19 7.02935e-18)
(0.00468531 -7.41536e-20 -5.46164e-22)
(0.00660545 -1.06385e-18 7.23774e-18)
(0.00660545 -1.17007e-19 -8.76083e-22)
(0.00855325 -1.4643e-18 7.45291e-18)
(0.00855325 -1.60912e-19 -1.12785e-21)
(0.0105291 -1.87391e-18 7.67524e-18)
(0.0105291 -2.12249e-19 -1.47222e-21)
(0.0125335 -2.29421e-18 7.90503e-18)
(0.0125335 -2.72955e-19 -1.99351e-21)
(0.0145668 -2.72611e-18 8.1426e-18)
(0.0145668 -3.28977e-19 -2.56783e-21)
(0.0166295 -3.16493e-18 8.38816e-18)
(0.0166295 -3.9262e-19 -2.84067e-21)
(0.0187219 -3.61576e-18 8.64197e-18)
(0.0187219 -4.51648e-19 -3.23431e-21)
(0.0208446 -4.07965e-18 8.90445e-18)
(0.0208446 -5.11825e-19 -3.73777e-21)
(0.0229979 -4.55319e-18 9.17573e-18)
(0.0229979 -5.80786e-19 -4.10748e-21)
(0.0251824 -5.0404e-18 9.45614e-18)
(0.0251824 -6.56157e-19 -4.74934e-21)
(0.0273985 -5.55849e-18 9.7462e-18)
(0.0273985 -7.44132e-19 -5.57063e-21)
(0.0296466 -6.09177e-18 1.00458e-17)
(0.0296466 -8.15501e-19 -6.26351e-21)
(0.0319273 -6.64125e-18 1.03554e-17)
(0.0319273 -8.78818e-19 -6.8091e-21)
(0.034241 -7.21469e-18 1.06752e-17)
(0.034241 -9.36083e-19 -7.2174e-21)
(0.0365882 -7.79447e-18 1.10052e-17)
(0.0365882 -1.02148e-18 -7.79534e-21)
(0.0389694 -8.38913e-18 1.13461e-17)
(0.0389694 -1.10713e-18 -8.49603e-21)
(0.0413851 -8.98442e-18 1.16981e-17)
(0.0413851 -1.2059e-18 -9.39462e-21)
(0.0438358 -9.59309e-18 1.2062e-17)
(0.0438358 -1.32914e-18 -1.10922e-20)
(0.0463221 -1.02336e-17 1.2438e-17)
(0.0463221 -1.42668e-18 -1.25645e-20)
(0.0488444 -1.0856e-17 1.28263e-17)
(0.0488444 -1.55482e-18 -1.37447e-20)
(0.0514033 -1.15219e-17 1.32279e-17)
(0.0514033 -1.68416e-18 -1.46154e-20)
(0.0539993 -1.22692e-17 1.36414e-17)
(0.0539993 -1.7498e-18 -1.45398e-20)
(0.0566329 -1.30285e-17 1.40673e-17)
(0.0566329 -1.81433e-18 -1.52681e-20)
(0.0593048 -1.37989e-17 1.45065e-17)
(0.0593048 -1.90762e-18 -1.71805e-20)
(0.0620155 -1.45777e-17 1.4959e-17)
(0.0620155 -1.97576e-18 -1.91159e-20)
(0.0647655 -1.53975e-17 1.54255e-17)
(0.0647655 -2.01077e-18 -2.0039e-20)
(0.0675554 -1.62582e-17 1.59052e-17)
(0.0675554 -2.10266e-18 -1.81905e-20)
(0.0703857 -1.71122e-17 1.63995e-17)
(0.0703857 -2.24335e-18 -1.84931e-20)
(0.0732572 -1.79571e-17 1.69085e-17)
(0.0732572 -2.35115e-18 -2.17545e-20)
(0.0761704 -1.8839e-17 1.74328e-17)
(0.0761704 -2.49125e-18 -2.54677e-20)
(0.0791258 -1.97325e-17 1.79719e-17)
(0.0791258 -2.70363e-18 -2.71063e-20)
(0.0821241 -2.05659e-17 1.8527e-17)
(0.0821241 -2.86443e-18 -2.88203e-20)
(0.0851659 -2.14683e-17 1.90998e-17)
(0.0851659 -3.05098e-18 -3.162e-20)
(0.0882518 -2.24409e-17 1.9689e-17)
(0.0882518 -3.28292e-18 -3.41233e-20)
(0.0913825 -2.33762e-17 2.02962e-17)
(0.0913825 -3.60466e-18 -3.6771e-20)
(0.0945586 -2.42882e-17 2.09217e-17)
(0.0945586 -3.97459e-18 -3.88512e-20)
(0.0977807 -2.52184e-17 2.15663e-17)
(0.0977807 -4.23621e-18 -4.40672e-20)
(0.101049 -2.61332e-17 2.22313e-17)
(0.101049 -4.47121e-18 -5.07533e-20)
(0.104366 -2.7082e-17 2.29181e-17)
(0.104366 -4.77134e-18 -5.50504e-20)
(0.10773 -2.82684e-17 2.36257e-17)
(0.10773 -5.04372e-18 -5.69359e-20)
(0.111142 -2.95754e-17 2.43499e-17)
(0.111142 -5.14458e-18 -5.91127e-20)
(0.114604 -3.08323e-17 2.50924e-17)
(0.114604 -5.35015e-18 -6.27719e-20)
(0.118116 -3.21088e-17 2.58533e-17)
(0.118116 -5.52433e-18 -6.7086e-20)
(0.121679 -3.34509e-17 2.66327e-17)
(0.121679 -5.71933e-18 -7.4986e-20)
(0.125293 -3.48573e-17 2.74324e-17)
(0.125293 -5.96408e-18 -7.98953e-20)
(0.128959 -3.6287e-17 2.82484e-17)
(0.128959 -6.16892e-18 -7.83386e-20)
(0.132678 -3.77706e-17 2.90847e-17)
(0.132678 -6.47224e-18 -8.33552e-20)
(0.13645 -3.93002e-17 2.99404e-17)
(0.13645 -6.80403e-18 -9.22123e-20)
(0.140276 -4.07829e-17 3.08146e-17)
(0.140276 -7.23804e-18 -9.95113e-20)
(0.144156 -4.22063e-17 3.17103e-17)
(0.144156 -7.85258e-18 -1.10045e-19)
(0.148092 -4.36014e-17 3.26276e-17)
(0.148092 -8.36479e-18 -1.18372e-19)
(0.152084 -4.50766e-17 3.35688e-17)
(0.152084 -8.65686e-18 -1.29399e-19)
(0.156133 -4.65544e-17 3.45319e-17)
(0.156133 -9.16067e-18 -1.33883e-19)
(0.160239 -4.80807e-17 3.55194e-17)
(0.160239 -9.86827e-18 -1.37677e-19)
(0.164403 -4.9645e-17 3.65298e-17)
(0.164403 -1.04854e-17 -1.43466e-19)
(0.168625 -5.11901e-17 3.75628e-17)
(0.168625 -1.12124e-17 -1.48877e-19)
(0.172906 -5.27957e-17 3.86181e-17)
(0.172906 -1.20785e-17 -1.51107e-19)
(0.177247 -5.43689e-17 3.97012e-17)
(0.177247 -1.29193e-17 -1.54665e-19)
(0.181648 -5.59811e-17 4.08105e-17)
(0.181648 -1.35512e-17 -1.55097e-19)
(0.186109 -5.76596e-17 4.19519e-17)
(0.186109 -1.43037e-17 -1.60865e-19)
(0.190632 -5.92953e-17 4.31175e-17)
(0.190632 -1.50872e-17 -2.3378e-19)
(0.195215 -6.12054e-17 4.43115e-17)
(0.195215 -1.57329e-17 -9.55357e-19)
(0.199861 -6.33381e-17 4.55242e-17)
(0.199861 -1.65011e-17 -1.73229e-18)
(0.204569 -6.53052e-17 4.67551e-17)
(0.204569 -1.71154e-17 -2.53295e-18)
(0.209339 -6.72495e-17 4.80119e-17)
(0.209339 -1.81044e-17 -3.38466e-18)
(0.214171 -6.91176e-17 4.92933e-17)
(0.214171 -1.93222e-17 -4.29463e-18)
(0.219066 -7.08745e-17 5.05949e-17)
(0.219066 -2.02155e-17 -5.25046e-18)
(0.224023 -7.26407e-17 5.19191e-17)
(0.224023 -2.12822e-17 -6.24674e-18)
(0.229044 -7.44144e-17 5.32673e-17)
(0.229044 -2.25779e-17 -7.28593e-18)
(0.234126 -7.63127e-17 5.46364e-17)
(0.234126 -2.38654e-17 -8.36663e-18)
(0.23927 -7.82351e-17 5.60253e-17)
(0.23927 -2.49831e-17 -9.49693e-18)
(0.244477 -8.01081e-17 5.74266e-17)
(0.244477 -2.61343e-17 -1.06837e-17)
(0.249744 -8.22357e-17 5.88373e-17)
(0.249744 -2.75763e-17 -1.19144e-17)
(0.255072 -8.47064e-17 6.02515e-17)
(0.255072 -2.85848e-17 -1.31853e-17)