/*--------------------------------*- C++ -*----------------------------------*\
| =========                 |                                                 |
| \\      /  F ield         | OpenFOAM: The Open Source CFD Toolbox           |
|  \\    /   O peration     | Version:  2106                                  |
|   \\  /    A nd           | Website:  www.openfoam.com                      |
|    \\/     M anipulation  |                                                 |
\*---------------------------------------------------------------------------*/
FoamFile
{
    version     2.0;
    format      ascii;
    arch        "LSB;label=32;scalar=64";
    class       volTensorField;
    location    "3000";
    object      grad(U);
}
// * * * * * * * * * * * * * * * * * * * * * * * * * * * * * * * * * * * * * //

dimensions      [0 0 -1 0 0 0 0];

internalField   nonuniform List<tensor> 
2560
(
(0 4.15781e-30 6.49658e-32 58.1337 -1.00856e-11 -2.38166e-13 0.084152 -7.30041e-15 -7.28869e-17)
(0 -2.0789e-30 -3.24829e-32 58.1337 -1.88507e-15 -7.14764e-18 0.084152 -2.22931e-18 1.12848e-16)
(0 -4.99766e-25 -1.22049e-26 58.1306 2.62173e-32 -2.27503e-14 0.253671 -3.15544e-30 -6.68208e-17)
(0 -4.09822e-30 0 58.1306 -2.58194e-15 -1.12867e-18 0.253671 -3.72601e-18 3.8521e-16)
(-1.06465e-17 2.32974e-30 -2.13389e-31 58.1273 6.56839e-13 -1.0974e-14 0.34893 -5.91733e-15 -6.39626e-17)
(0 4.03948e-30 3.78701e-31 58.1273 -3.82088e-15 1.11637e-17 0.34893 -1.09899e-17 3.96482e-16)
(1.04202e-16 -1.07879e-29 -4.11989e-31 58.1235 5.80496e-13 -1.14185e-14 0.353979 -1.88268e-15 -7.41922e-17)
(-7.00448e-17 7.96317e-30 3.73273e-31 58.1235 -3.67287e-15 5.93855e-18 0.353979 -1.73252e-17 4.08082e-16)
(1.38082e-16 -2.35471e-29 -4.90565e-31 58.1192 2.38569e-13 -1.27211e-14 0.359098 -5.16077e-15 -8.19337e-17)
(0 1.56981e-29 3.67923e-31 58.1192 -3.78236e-15 2.39989e-18 0.359098 -2.41335e-17 4.20009e-16)
(2.18309e-16 -1.19834e-26 -4.03167e-31 58.1143 -6.76869e-14 -1.34953e-14 0.364286 -2.10624e-16 -8.60718e-17)
(6.57655e-16 7.73654e-30 3.6265e-31 58.1143 -3.87451e-15 1.9466e-18 0.364286 -3.11362e-17 4.32286e-16)
(-1.06755e-16 -7.21985e-28 -7.70136e-32 58.1084 -9.49976e-28 -1.3879e-14 0.369543 0 -8.9214e-17)
(4.2702e-16 7.62565e-30 2.38302e-31 58.1084 -4.06526e-15 1.29494e-18 0.369543 -3.82802e-17 4.44911e-16)
(-3.96117e-16 -8.31011e-29 1.61293e-31 58.1011 1.50398e-15 -1.41567e-14 0.374864 -4.81708e-18 -9.21767e-17)
(5.26634e-16 -3.75818e-30 0 58.1011 -4.2153e-15 1.70408e-18 0.374864 -4.55596e-17 4.57894e-16)
(4.17591e-16 -1.41011e-29 -2.77164e-31 58.0917 6.21293e-15 -1.44053e-14 0.380244 -4.24019e-17 -9.50831e-17)
(0 1.11129e-29 2.3152e-31 58.0917 -4.21679e-15 2.93273e-18 0.380244 -5.35923e-17 4.71247e-16)
(0 7.30244e-30 3.42302e-31 58.0791 6.11989e-15 -1.46334e-14 0.385677 -3.83235e-17 -9.79065e-17)
(0 -3.65122e-30 -2.28201e-31 58.0791 -4.11345e-15 3.63564e-18 0.385677 -6.15384e-17 4.84973e-16)
(-2.08557e-16 -1.14093e-29 -4.00371e-31 58.0616 6.68598e-15 -1.484e-14 0.391148 -4.24083e-17 -1.00653e-16)
(-2.53249e-16 1.43956e-29 5.62327e-31 58.0616 -4.21069e-15 2.61803e-18 0.391148 -6.94767e-17 4.99046e-16)
(4.84555e-16 -2.42683e-29 -8.27514e-31 58.0374 7.01471e-15 -1.50242e-14 0.396643 -4.70747e-17 -1.03292e-16)
(0 1.77365e-29 7.75974e-31 58.0374 -4.40323e-15 3.49782e-18 0.396643 -7.86147e-17 5.13474e-16)
(4.92084e-16 -1.04894e-29 -2.18529e-31 58.0036 7.10026e-15 -1.51805e-14 0.402137 -4.81449e-17 -1.05769e-16)
(0 1.04894e-29 2.18529e-31 58.0036 -4.3051e-15 4.86303e-18 0.402137 -8.82531e-17 5.28233e-16)
(-2.88841e-16 9.87434e-30 1.6362e-31 57.9566 7.42688e-15 -1.53e-14 0.407601 -4.96402e-17 -1.07999e-16)
(1.15536e-15 -3.44635e-30 0 57.9566 -4.37651e-15 3.41692e-18 0.407601 -9.71832e-17 5.43275e-16)
(0 1.35878e-29 5.30775e-31 57.8922 7.73456e-15 -1.53726e-14 0.412997 -5.41517e-17 -1.09904e-16)
(0 -1.35878e-29 -5.30775e-31 57.8922 -4.55737e-15 2.25608e-18 0.412997 -1.06894e-16 5.58558e-16)
(-3.443e-16 2.97787e-30 1.65354e-31 57.8049 8.01122e-15 -1.5387e-14 0.418277 -5.54871e-17 -1.11372e-16)
(1.3772e-15 0 -1.04633e-31 57.8049 -4.78715e-15 -4.78392e-19 0.418277 -1.1635e-16 5.74047e-16)
(0 1.65014e-29 8.25071e-31 57.6883 8.25978e-15 -1.5329e-14 0.423382 -5.97453e-17 -1.12272e-16)
(-1.49046e-15 -1.65014e-29 -8.25071e-31 57.6883 -5.22728e-15 1.64256e-18 0.423382 -1.26453e-16 5.89664e-16)
(0 1.62649e-29 1.01656e-30 57.5351 7.92228e-15 -1.51865e-14 0.428245 -6.07651e-17 -1.12509e-16)
(-1.60527e-15 -1.62649e-29 -1.01656e-30 57.5351 -4.85723e-15 8.35918e-18 0.428245 -1.38281e-16 6.05344e-16)
(1.35376e-15 -6.41271e-30 -4.00795e-31 57.337 7.86812e-15 -1.49466e-14 0.432788 -5.64637e-17 -1.11933e-16)
(-4.51255e-16 6.41271e-30 4.00795e-31 57.337 -4.56926e-15 8.88848e-18 0.432788 -1.4785e-16 6.20943e-16)
(4.5986e-16 6.51043e-30 9.15822e-31 57.0851 8.73366e-15 -1.45949e-14 0.436924 -6.17259e-17 -1.10408e-16)
(-1.83944e-15 -1.26416e-29 -1.18515e-30 57.0851 -5.43053e-15 3.98716e-18 0.436924 -1.59329e-16 6.36319e-16)
(-8.76824e-16 1.55755e-29 9.7347e-31 56.77 9.38587e-15 -1.41195e-14 0.44056 -7.13999e-17 -1.0781e-16)
(8.76824e-16 -1.55755e-29 -9.7347e-31 56.77 -6.34651e-15 -4.7388e-19 0.44056 -1.73563e-16 6.51296e-16)
(-5.19821e-16 -3.17579e-30 -3.05717e-31 56.3824 9.35103e-15 -1.35163e-14 0.443601 -7.36883e-17 -1.04115e-16)
(0 1.22818e-29 5.75711e-31 56.3824 -6.44681e-15 6.07453e-18 0.443601 -1.89111e-16 6.65746e-16)
(3.01594e-16 -3.33542e-29 -1.43185e-30 55.9134 9.29517e-15 -1.27855e-14 0.445952 -7.2941e-17 -9.92563e-17)
(0 3.63174e-29 1.32407e-30 55.9134 -6.114e-15 1.51463e-17 0.445952 -2.04695e-16 6.79514e-16)
(0 1.49154e-29 7.45768e-31 55.3555 9.66294e-15 -1.19317e-14 0.447525 -7.49517e-17 -9.32846e-17)
(-2.32401e-15 -2.08815e-29 -9.32211e-31 55.3555 -6.01462e-15 1.52136e-17 0.447525 -2.19827e-16 6.92413e-16)
(-2.15671e-16 1.17437e-29 1.01453e-30 54.7026 9.62516e-15 -1.09658e-14 0.448245 -8.1057e-17 -8.62312e-17)
(8.27626e-16 -1.47016e-29 -1.10262e-30 54.7026 -5.87728e-15 1.19283e-17 0.448245 -2.32709e-16 7.04285e-16)
(-1.28617e-15 2.62004e-29 1.63196e-30 53.9508 9.06156e-15 -9.90476e-15 0.448053 -7.65241e-17 -7.82619e-17)
(0 -2.02872e-29 -1.44909e-30 53.9508 -5.49925e-15 7.97019e-18 0.448053 -2.44649e-16 7.14935e-16)
(2.023e-15 -4.02887e-29 -1.53392e-30 53.0989 8.72304e-15 -8.77735e-15 0.446913 -7.40001e-17 -6.96168e-17)
(5.39467e-15 3.42797e-29 1.24978e-30 53.0989 -5.00847e-15 7.44505e-18 0.446913 -2.58567e-16 7.24229e-16)
(1.5851e-15 -1.12628e-29 -7.03924e-31 52.1487 8.62104e-15 -7.61306e-15 0.444812 -7.30185e-17 -6.05004e-17)
(1.23745e-15 1.12628e-29 7.03924e-31 52.1487 -4.76525e-15 1.21329e-17 0.444812 -2.71532e-16 7.32055e-16)
(-4.42645e-17 2.59894e-30 2.46059e-31 51.1048 8.61784e-15 -6.43809e-15 0.441762 -7.4411e-17 -5.11237e-17)
(0 -2.77534e-30 0 51.1048 -4.94492e-15 2.11114e-17 0.441762 -2.83461e-16 7.38367e-16)
(-1.53625e-15 5.89944e-30 2.07282e-31 49.9744 8.6837e-15 -5.28391e-15 0.437802 -7.51014e-17 -4.18104e-17)
(-6.14502e-15 0 0 49.9744 -4.90654e-15 2.96521e-17 0.437802 -2.97924e-16 7.43189e-16)
(-7.99173e-16 1.10365e-29 6.11759e-31 48.7673 9.13553e-15 -4.17961e-15 0.432991 -7.77585e-17 -3.27588e-17)
(-3.95565e-15 -2.69635e-30 -3.37044e-31 48.7673 -4.80358e-15 2.22895e-17 0.432991 -3.11957e-16 7.46527e-16)
(0 1.59462e-29 9.9664e-31 47.4949 9.59719e-15 -3.1472e-15 0.427408 -8.54282e-17 -2.41956e-17)
(-3.31997e-15 -1.59462e-29 -9.9664e-31 47.4949 -4.98509e-15 1.11188e-17 0.427408 -3.24974e-16 7.48272e-16)
(0 -1.83373e-29 -6.54904e-31 46.17 9.97671e-15 -2.20635e-15 0.421146 -8.84608e-17 -1.62999e-17)
(3.44208e-15 1.83373e-29 6.54904e-31 46.17 -5.21757e-15 -1.87942e-18 0.421146 -3.39539e-16 7.48569e-16)
(-8.90691e-16 5.51997e-30 1.1218e-31 44.8058 1.06413e-14 -1.3682e-15 0.414305 -9.49568e-17 -9.16162e-18)
(0 0 3.22759e-31 44.8058 -5.73048e-15 -1.63753e-17 0.414305 -3.57619e-16 7.47584e-16)
(-9.20455e-16 1.82041e-29 -6.22313e-31 43.4155 1.11409e-14 -6.06879e-16 0.40699 -1.03534e-16 -2.87028e-18)
(0 -1.52704e-29 -1.11346e-30 43.4155 -6.39678e-15 -2.24144e-17 0.40699 -3.72971e-16 7.45552e-16)
(-9.49762e-16 1.04563e-29 0 42.0118 1.11473e-14 8.58277e-32 0.399304 -1.07259e-16 -9.86076e-32)
(-3.79905e-15 -5.01717e-30 -4.7036e-31 42.0118 -6.93584e-15 -3.19137e-17 0.399304 -3.88652e-16 7.42595e-16)
(9.78574e-16 -1.52913e-29 -7.32575e-31 40.6064 1.07861e-14 4.68558e-16 0.391346 -1.0669e-16 -2.40322e-18)
(0 1.23632e-29 6.18158e-31 40.6064 -6.69739e-15 -3.66554e-17 0.391346 -4.08316e-16 7.38827e-16)
(1.00686e-15 -1.02374e-29 -5.71006e-31 39.2097 1.06066e-14 8.55931e-16 0.383208 -1.03318e-16 -6.75215e-18)
(0 7.31157e-30 4.56973e-31 39.2097 -6.13113e-15 -3.31241e-17 0.383208 -4.26743e-16 7.34486e-16)
(-1.03459e-15 1.01291e-29 5.64138e-31 37.8309 1.07418e-14 1.14449e-15 0.374973 -1.06244e-16 -1.01821e-17)
(0 -2.40226e-30 -1.50141e-31 37.8309 -6.22917e-15 -3.56855e-17 0.374973 -4.46249e-16 7.29842e-16)
(0 4.73566e-30 1.03593e-30 36.4775 1.02799e-14 1.34078e-15 0.366714 -1.09074e-16 -1.27755e-17)
(0 -9.47132e-30 -1.18391e-30 36.4775 -5.83313e-15 -3.33998e-17 0.366714 -4.65623e-16 7.2482e-16)
(-1.08834e-15 1.22528e-29 4.05002e-31 35.1558 9.63696e-15 1.4584e-15 0.358492 -9.98945e-17 -1.45008e-17)
(4.35337e-15 -4.66779e-30 0 35.1558 -4.99572e-15 -4.06997e-17 0.358492 -4.81173e-16 7.19574e-16)
(0 -1.84035e-29 -1.00644e-30 33.8706 9.59083e-15 1.50731e-15 0.350361 -9.89089e-17 -1.55938e-17)
(4.45739e-15 1.84035e-29 1.00644e-30 33.8706 -5.74637e-15 -4.39267e-17 0.350361 -4.99905e-16 7.1407e-16)
(1.13977e-15 6.15827e-30 8.78961e-31 32.6256 9.44102e-15 1.49474e-15 0.342364 -1.01848e-16 -1.59567e-17)
(-4.55907e-15 -1.36048e-29 -1.27545e-30 32.6256 -6.25347e-15 -2.64661e-17 0.342364 -5.23131e-16 7.08694e-16)
(1.16461e-15 -7.37978e-30 -6.71856e-31 31.4232 8.99607e-15 1.43284e-15 0.334534 -9.8602e-17 -1.57819e-17)
(0 4.46994e-30 5.58743e-31 31.4232 -5.45656e-15 -2.87445e-17 0.334534 -5.39255e-16 7.03537e-16)
(-1.18888e-15 2.90822e-30 1.13251e-31 30.2652 9.31688e-15 1.33147e-15 0.326898 -9.51765e-17 -1.50809e-17)
(0 4.40588e-30 2.75367e-31 30.2652 -5.51813e-15 -4.20818e-17 0.326898 -5.59819e-16 6.98335e-16)
(-9.77341e-18 -2.9033e-30 4.29374e-31 29.1523 1.00649e-14 1.20373e-15 0.319477 -1.08553e-16 -1.40125e-17)
(4.85039e-15 0 -2.71421e-31 29.1523 -5.60082e-15 -4.66275e-17 0.319477 -5.76086e-16 6.93327e-16)
(1.20485e-15 -4.28049e-30 -5.35061e-31 28.0848 9.55187e-15 1.05339e-15 0.312284 -1.14672e-16 -1.26694e-17)
(4.94305e-15 4.28049e-30 5.35061e-31 28.0848 -5.75032e-15 -4.295e-17 0.312284 -5.90825e-16 6.88604e-16)
(-1.2584e-15 -1.32135e-30 -1.49597e-31 27.0623 8.55071e-15 8.82612e-16 0.305329 -1.00108e-16 -1.10163e-17)
(0 8.43828e-30 5.27392e-31 27.0623 -6.05904e-15 -3.2317e-17 0.305329 -6.14221e-16 6.84245e-16)
(-1.28052e-15 7.0544e-30 1.14535e-31 26.0841 8.09998e-15 6.96055e-16 0.298616 -9.50148e-17 -9.11452e-18)
(0 0 2.59917e-31 26.0841 -5.46797e-15 -2.77395e-17 0.298616 -6.34973e-16 6.80375e-16)
(0 -8.19813e-30 -2.56191e-31 25.1491 8.25017e-15 4.91998e-16 0.292147 -9.25272e-17 -6.98772e-18)
(0 8.19813e-30 2.56191e-31 25.1491 -4.957e-15 -2.7927e-17 0.292147 -6.4884e-16 6.76835e-16)
(-2.46052e-15 -1.14973e-30 1.15676e-31 24.256 9.29724e-15 2.81849e-16 0.285922 -1.01352e-16 -4.55288e-18)
(0 1.21209e-29 2.5252e-31 24.256 -5.84301e-15 -2.81194e-17 0.285922 -6.64874e-16 6.73737e-16)
(-2.24189e-15 1.9912e-29 1.2445e-30 23.4033 8.9326e-15 7.31247e-17 0.279938 -1.20375e-16 -2.14732e-18)
(-4.25481e-15 -1.59296e-29 -9.95601e-31 23.4033 -5.75547e-15 -1.66065e-17 0.279938 -6.89381e-16 6.71003e-16)
(8.456e-16 -8.89014e-30 -8.6468e-31 22.5896 7.1452e-15 -1.41419e-16 0.27419 -9.54396e-17 -3.09125e-18)
(3.24689e-15 1.1776e-29 9.81332e-31 22.5896 -3.9524e-15 -1.25156e-17 0.27419 -7.07107e-16 6.68769e-16)
(0 1.54763e-29 7.2545e-31 21.8131 6.69454e-15 -3.57424e-16 0.268673 -7.97337e-17 -5.82435e-18)
(0 -1.54763e-29 -7.2545e-31 21.8131 -4.18962e-15 -3.45542e-17 0.268673 -7.15453e-16 6.66864e-16)
(-1.40333e-15 6.69625e-30 8.31999e-31 21.0722 6.49288e-15 -5.674e-16 0.263378 -8.69375e-17 -8.52239e-18)
(5.61333e-15 -3.81361e-30 -7.15052e-31 21.0722 -4.04402e-15 -2.52294e-17 0.263378 -7.24292e-16 6.65391e-16)
(2.84462e-15 -1.70405e-29 -4.69304e-31 20.3653 5.94999e-15 -7.79106e-16 0.2583 -7.69402e-17 -1.14579e-17)
(5.68925e-15 1.12769e-29 2.34935e-31 20.3653 -2.84643e-15 -8.89022e-18 0.2583 -7.29634e-16 6.64701e-16)
(2.08577e-15 -1.11152e-29 -4.63135e-31 19.6906 6.22141e-15 -9.87975e-16 0.253431 -7.54755e-17 -1.42401e-17)
(0 1.11152e-29 4.63135e-31 19.6906 -3.73496e-15 -4.72822e-18 0.253431 -7.42567e-16 6.64491e-16)
(-1.45914e-15 -4.42743e-30 -1.10311e-31 19.0465 6.46692e-15 -1.18974e-15 0.248761 -8.62996e-17 -1.71523e-17)
(0 1.09559e-29 4.56497e-31 19.0465 -4.05335e-15 -7.39378e-18 0.248761 -7.61747e-16 6.64525e-16)
(-2.95405e-15 2.37485e-29 1.36165e-30 18.4316 6.30371e-15 -1.3921e-15 0.244283 -8.42072e-17 -2.01102e-17)
(5.90811e-15 -1.79982e-29 -1.34986e-30 18.4316 -3.78641e-15 -1.56122e-17 0.244283 -7.78105e-16 6.64718e-16)
(-1.49457e-15 2.87356e-30 -1.02803e-31 17.8441 6.5692e-15 -1.59039e-15 0.239989 -8.44298e-17 -2.30757e-17)
(0 3.54804e-30 4.43505e-31 17.8441 -4.3033e-15 -2.11945e-17 0.239989 -7.98503e-16 6.65753e-16)
(-1.5118e-15 -6.27114e-31 -3.17535e-31 17.2828 6.55701e-15 -1.78348e-15 0.235871 -9.39319e-17 -2.60546e-17)
(6.04719e-15 6.99438e-30 8.74297e-31 17.2828 -3.1478e-15 8.89041e-18 0.235871 -8.19089e-16 6.67132e-16)
(-1.52871e-15 9.76304e-30 5.51243e-31 16.7462 6.16293e-15 -1.96859e-15 0.231919 -8.65648e-17 -2.89604e-17)
(-1.94052e-15 -3.44706e-30 -2.15442e-31 16.7462 -2.7475e-15 1.87775e-17 0.231919 -8.24622e-16 6.69216e-16)
(-3.09066e-15 1.25286e-29 1.09171e-30 16.233 5.74981e-15 -2.14102e-15 0.228128 -8.55946e-17 -3.17405e-17)
(-6.18132e-15 -6.79532e-30 -8.49415e-31 16.233 -2.80502e-15 -1.10786e-17 0.228128 -8.36861e-16 6.70875e-16)
(-1.23803e-15 -4.31626e-30 -8.025e-31 15.7418 5.21365e-15 -2.30965e-15 0.224488 -7.73066e-17 -3.46927e-17)
(1.0608e-14 6.69792e-30 8.37241e-31 15.7418 -2.17876e-15 -2.86679e-18 0.224488 -8.43586e-16 6.73399e-16)
(-4.73318e-15 2.50969e-29 1.81304e-30 15.2716 5.56324e-15 -2.47558e-15 0.220992 -7.25732e-17 -3.7546e-17)
(-8.16919e-15 -1.65048e-29 -1.44417e-30 15.2716 -3.10367e-15 -3.29947e-20 0.220992 -8.53835e-16 6.76384e-16)
(2.38115e-16 -1.01546e-29 -8.92805e-31 14.8211 5.41557e-15 -2.63593e-15 0.217634 -8.98437e-17 -4.04894e-17)
(4.54247e-15 1.30146e-29 1.01677e-30 14.8211 -2.52869e-15 1.38217e-17 0.217634 -8.77191e-16 6.79489e-16)
(3.41447e-15 -6.06897e-30 -7.26336e-31 14.3893 4.16227e-15 -2.80309e-15 0.214407 -7.02967e-17 -4.37014e-17)
(-1.80539e-15 3.20702e-30 6.01316e-31 14.3893 -2.15153e-15 3.16224e-18 0.214407 -8.82545e-16 6.83285e-16)
(0 -1.26442e-29 -9.87829e-31 13.9752 3.71416e-15 -2.96707e-15 0.211303 -5.45694e-17 -4.67074e-17)
(6.49754e-15 1.26442e-29 9.87829e-31 13.9752 -3.10124e-15 -2.41203e-17 0.211303 -8.91932e-16 6.86533e-16)
(0 -9.34724e-30 -7.78937e-31 13.5778 4.66336e-15 -3.12812e-15 0.208317 -5.86058e-17 -4.99952e-17)
(6.55785e-15 9.34724e-30 7.78937e-31 13.5778 -3.26413e-15 -3.11765e-17 0.208317 -9.04971e-16 6.90881e-16)
(-3.45774e-15 6.14218e-30 5.7583e-31 13.1963 6.45489e-15 -3.28236e-15 0.205442 -8.57176e-17 -5.29471e-17)
(6.61726e-15 0 0 13.1963 -3.9441e-15 -3.14658e-17 0.205442 -9.17853e-16 6.95772e-16)
(0 1.81624e-29 7.56769e-31 12.8297 6.50098e-15 -3.42899e-15 0.202673 -1.16906e-16 -5.61583e-17)
(0 -1.81624e-29 -7.56769e-31 12.8297 -4.52109e-15 -4.31218e-18 0.202673 -9.37193e-16 7.01007e-16)
(-3.36678e-15 -2.6583e-31 -1.09599e-31 12.4773 4.60059e-15 -3.58078e-15 0.200005 -8.97056e-17 -5.94324e-17)
(0 5.96738e-30 3.72961e-31 12.4773 -3.31268e-15 9.51417e-18 0.200005 -9.58069e-16 7.06766e-16)
(1.65559e-15 -1.47046e-29 -1.10285e-30 12.1384 4.89263e-15 -3.73389e-15 0.197432 -5.85505e-17 -6.28534e-17)
(5.13491e-15 1.47046e-29 1.10285e-30 12.1384 -1.9043e-15 -1.62239e-17 0.197432 -9.70986e-16 7.12662e-16)
(0 8.69632e-30 7.24693e-31 11.8122 6.79526e-15 -3.87094e-15 0.194949 -1.01965e-16 -6.5759e-17)
(6.84668e-15 -5.79755e-30 -5.4352e-31 11.8122 -2.97237e-15 -3.95688e-17 0.194949 -9.78082e-16 7.18526e-16)
(-1.72553e-15 -1.87878e-32 1.36768e-31 11.4981 7.46827e-15 -3.99609e-15 0.192551 -1.2393e-16 -6.89434e-17)
(0 5.71445e-30 3.57153e-31 11.4981 -4.39391e-15 -2.75907e-17 0.192551 -9.94709e-16 7.24937e-16)
(1.73921e-15 5.61447e-30 2.13324e-31 11.1954 7.20926e-15 -4.11969e-15 0.190235 -1.27799e-16 -7.19423e-17)
(0 -5.63255e-30 -1.76017e-31 11.1954 -4.15764e-15 -4.69583e-17 0.190235 -1.02115e-15 7.32293e-16)
(1.5627e-15 -1.11036e-29 -3.46989e-31 10.9036 5.24973e-15 -4.24058e-15 0.187995 -1.1864e-16 -7.51872e-17)
(0 1.11036e-29 3.46989e-31 10.9036 -3.73348e-15 -7.07129e-17 0.187995 -1.04033e-15 7.3981e-16)
(3.0806e-15 -1.36806e-29 -1.71008e-31 10.6221 3.68115e-15 -4.36096e-15 0.185828 -6.30722e-17 -7.83171e-17)
(-3.0806e-15 1.36806e-29 1.71008e-31 10.6221 -3.60353e-15 -7.56075e-17 0.185828 -1.06288e-15 7.4776e-16)
(-2.04028e-15 2.79773e-31 -5.52463e-31 10.3504 4.20538e-15 -4.47181e-15 0.18373 -6.65087e-17 -8.13765e-17)
(0 8.09073e-30 8.42784e-31 10.3504 -3.46122e-15 -8.87939e-17 0.18373 -1.08167e-15 7.56071e-16)
(-1.79228e-15 1.34653e-29 4.79789e-31 10.088 4.3652e-15 -4.58345e-15 0.181697 -8.37743e-17 -8.46847e-17)
(0 -1.0633e-29 -3.32282e-31 10.088 -2.79667e-15 -3.23236e-17 0.181697 -1.09753e-15 7.6542e-16)
(1.80517e-15 -2.83264e-30 -4.77375e-31 9.83444 4.05556e-15 -4.71372e-15 0.179726 -7.42885e-17 -8.85831e-17)
(-8.69568e-15 0 3.2752e-31 9.83444 -3.6556e-15 -2.15892e-17 0.179726 -1.11897e-15 7.75693e-16)
(0 -1.2913e-29 -3.22825e-31 9.58933 4.98847e-15 -4.84561e-15 0.177814 -7.47658e-17 -9.21186e-17)
(-7.27161e-15 1.2913e-29 3.22825e-31 9.58933 -4.68059e-15 -7.23147e-17 0.177814 -1.15122e-15 7.85602e-16)
(-4.69657e-15 1.55519e-29 1.10975e-30 9.35223 7.26123e-15 -4.95852e-15 0.175957 -1.11503e-16 -9.54805e-17)
(1.4644e-14 -7.63676e-30 -9.54595e-31 9.35223 -3.33365e-15 -7.85712e-17 0.175957 -1.17266e-15 7.95648e-16)
(1.84296e-15 9.73276e-30 7.82981e-31 9.12277 7.6599e-15 -5.0654e-15 0.174152 -1.63557e-16 -9.89489e-17)
(7.37183e-15 -1.50546e-29 -1.56819e-30 9.12277 -3.56443e-15 -4.3854e-17 0.174152 -1.19165e-15 8.06527e-16)
(0 0 -3.09143e-31 8.9006 6.65279e-15 -5.18402e-15 0.172397 -1.30181e-16 -1.0293e-16)
(0 2.47314e-30 6.18285e-31 8.9006 -3.61408e-15 -3.87256e-17 0.172397 -1.23583e-15 8.18617e-16)
(-1.86749e-15 -1.18153e-29 -1.05484e-30 8.68536 7.71219e-15 -5.28942e-15 0.170689 -1.28849e-16 -1.06041e-16)
(7.46994e-15 1.46262e-29 1.52356e-30 8.68536 -3.12535e-15 -4.17377e-17 0.170689 -1.2495e-15 8.31416e-16)
(-1.87956e-15 1.00065e-29 4.67405e-31 8.47675 8.41135e-15 -5.37548e-15 0.169026 -1.76148e-16 -1.09419e-16)
(-7.51824e-15 -2.40276e-30 0 8.47675 -4.28768e-15 -6.66788e-17 0.169026 -1.27766e-15 8.44076e-16)
(1.89151e-15 -9.90114e-30 -7.62367e-31 8.27447 6.87554e-15 -5.47548e-15 0.167405 -1.60848e-16 -1.13244e-16)
(7.56605e-15 7.10495e-30 5.9208e-31 8.27447 -3.20411e-15 -1.1113e-16 0.167405 -1.3127e-15 8.56908e-16)
(-1.90335e-15 1.91401e-29 1.9245e-30 8.07823 5.4169e-15 -5.57469e-15 0.165823 -1.18407e-16 -1.16746e-16)
(7.6134e-15 -1.63406e-29 -1.75078e-30 8.07823 -1.85172e-15 -1.06973e-16 0.165823 -1.31368e-15 8.71127e-16)
(-1.91507e-15 7.40159e-30 1.7714e-31 7.88777 5.01919e-15 -5.66775e-15 0.164279 -1.04951e-16 -1.20484e-16)
(0 -4.60183e-30 0 7.88777 -3.3451e-15 -1.38328e-16 0.164279 -1.33386e-15 8.85451e-16)
(-1.92668e-15 -1.73652e-30 1.80944e-31 7.70283 5.17753e-15 -5.76287e-15 0.162771 -1.0511e-16 -1.24234e-16)
(0 9.07175e-30 2.83492e-31 7.70283 -4.04698e-15 -1.83842e-16 0.162771 -1.35565e-15 9.00893e-16)
(-1.93818e-15 -6.14621e-30 -6.5339e-31 7.52319 5.72335e-15 -5.83764e-15 0.161297 -1.14797e-16 -1.27258e-16)
(7.75271e-15 8.94173e-30 1.11772e-30 7.52319 -3.47695e-15 -1.94513e-16 0.161297 -1.3686e-15 9.16491e-16)
(1.94957e-15 -1.6009e-29 -1.01517e-30 7.34861 5.15349e-15 -5.90211e-15 0.159854 -1.31873e-16 -1.30712e-16)
(0 1.32204e-29 8.26273e-31 7.34861 -3.49039e-15 -1.64388e-16 0.159854 -1.39886e-15 9.33762e-16)
(2.44524e-15 -8.68725e-30 -8.1443e-31 7.17889 4.42669e-15 -5.98146e-15 0.158442 -9.30739e-17 -1.34529e-16)
(0 8.68725e-30 1.08591e-30 7.17889 -4.03986e-15 -1.58489e-16 0.158442 -1.424e-15 9.53122e-16)
(-1.97204e-15 -1.49378e-30 -3.37882e-31 7.01383 3.16728e-15 -6.05546e-15 0.157058 -1.03275e-16 -1.37894e-16)
(0 8.56274e-30 1.07034e-30 7.01383 -3.15656e-15 -1.47128e-16 0.157058 -1.4468e-15 9.72331e-16)
(2.37565e-15 -2.95401e-29 -2.37375e-30 6.85324 1.57724e-15 -6.14863e-15 0.155701 -3.87355e-17 -1.42753e-16)
(1.34894e-14 2.532e-29 2.63751e-30 6.85324 7.47982e-16 -9.19336e-17 0.155701 -1.45631e-15 9.9243e-16)
(-2.3416e-15 4.15952e-30 2.5997e-31 6.69694 2.83966e-15 -6.24218e-15 0.154369 -3.32069e-17 -1.46296e-16)
(7.97648e-15 0 5.19941e-31 6.69694 1.73537e-15 -6.05523e-17 0.154369 -1.4378e-15 1.01359e-15)
(-4.31305e-15 1.50831e-29 2.77306e-30 6.54476 3.42995e-15 -6.30686e-15 0.153061 -9.87472e-17 -1.49995e-16)
(-8.02005e-15 -8.19982e-30 -2.3062e-30 6.54476 -4.89339e-16 -4.18811e-18 0.153061 -1.45209e-15 1.03609e-15)
(-2.01581e-15 1.08695e-29 1.2256e-30 6.39655 2.09396e-15 -6.39073e-15 0.151776 -6.211e-17 -1.54608e-16)
(-8.06324e-15 -8.08229e-30 -7.57715e-31 6.39655 -5.36887e-17 6.51368e-18 0.151776 -1.47543e-15 1.06053e-15)
(0 3.98323e-30 7.46855e-31 6.25216 1.35038e-15 -6.48936e-15 0.150513 -3.75064e-17 -1.59192e-16)
(0 0 -2.48952e-31 6.25216 2.16459e-15 -7.22405e-18 0.150513 -1.46692e-15 1.08327e-15)
(0 7.85227e-30 4.90767e-31 6.11144 1.54451e-15 -6.58457e-15 0.149269 -2.77151e-17 -1.63842e-16)
(8.14854e-15 -3.92614e-30 0 6.11144 1.83598e-15 7.13934e-19 0.149269 -1.43747e-15 1.10599e-15)
(-1.30878e-16 2.0435e-29 2.18889e-30 5.97425 2.36304e-15 -6.68935e-15 0.148045 -4.8197e-17 -1.69108e-16)
(0 -1.93493e-29 -1.93493e-30 5.97425 -3.22449e-16 -2.67416e-17 0.148045 -1.42339e-15 1.1285e-15)
(0 -2.67008e-29 -2.8608e-30 5.84047 2.75302e-15 -6.8039e-15 0.146838 -6.95595e-17 -1.74467e-16)
(1.64648e-14 2.67008e-29 2.8608e-30 5.84047 5.15197e-16 -4.36945e-17 0.146838 -1.43374e-15 1.1523e-15)
(0 -3.75973e-30 -9.39932e-31 5.70999 2.55464e-15 -6.90793e-15 0.145649 -6.94427e-17 -1.79429e-16)
(1.65476e-14 3.75973e-30 9.39932e-31 5.70999 -1.01861e-16 -2.81396e-17 0.145649 -1.41782e-15 1.17697e-15)
(-4.15745e-15 9.25199e-30 2.91652e-32 5.58267 2.27415e-15 -7.01092e-15 0.144475 -6.1361e-17 -1.84969e-16)
(0 -3.70584e-30 4.6323e-31 5.58267 -1.62729e-15 -2.87556e-17 0.144475 -1.439e-15 1.20203e-15)
(-2.08891e-15 2.77198e-30 7.08601e-31 5.45842 2.68265e-15 -7.12039e-15 0.143316 -5.67938e-17 -1.90499e-16)
(1.67113e-14 3.65273e-30 0 5.45842 -4.62351e-16 -2.12174e-17 0.143316 -1.46294e-15 1.22689e-15)
(2.09901e-15 -1.35657e-29 -7.07882e-31 5.33714 3.07084e-15 -7.24059e-15 0.142172 -8.48536e-17 -1.96864e-16)
(0 1.08011e-29 4.50047e-31 5.33714 -1.90297e-15 2.81305e-18 0.142172 -1.45771e-15 1.25275e-15)
(-2.10904e-15 2.76232e-30 -1.79726e-31 5.21871 2.32912e-15 -7.37109e-15 0.141041 -7.93739e-17 -2.03213e-16)
(0 3.54877e-30 8.87193e-31 5.21871 -2.85534e-15 -2.1926e-17 0.141041 -1.49299e-15 1.27797e-15)
(-2.11898e-15 1.67569e-29 1.58207e-30 5.10305 2.36931e-15 -7.49704e-15 0.139922 -4.67927e-17 -2.09616e-16)
(8.47591e-15 -1.39916e-29 -1.31172e-30 5.10305 -1.49302e-15 -4.70045e-17 0.139922 -1.52197e-15 1.30363e-15)
(-2.12884e-15 9.653e-30 2.00078e-30 4.99008 3.22509e-15 -7.62596e-15 0.138816 -8.3928e-17 -2.1642e-16)
(8.51537e-15 -3.44778e-30 -1.29292e-30 4.99008 -1.68441e-15 -3.9702e-17 0.138816 -1.51446e-15 1.32912e-15)
(-4.27725e-15 5.50882e-30 5.67795e-31 4.8797 3.2154e-15 -7.74496e-15 0.13772 -9.63152e-17 -2.2255e-16)
(0 0 0 4.8797 -1.60379e-15 -1.86541e-17 0.13772 -1.52835e-15 1.35641e-15)
(-2.14833e-15 1.28026e-29 1.12857e-30 4.77183 2.93896e-15 -7.8471e-15 0.136635 -8.58335e-17 -2.28674e-16)
(0 -3.34965e-30 -4.18707e-31 4.77183 -1.58225e-15 -3.00653e-17 0.136635 -1.55116e-15 1.38444e-15)
(3.71732e-15 -6.60329e-30 -8.25411e-31 4.66641 2.08882e-15 -7.95536e-15 0.13556 -8.31264e-17 -2.3543e-16)
(-8.63185e-15 6.60329e-30 8.25411e-31 4.66641 -1.21928e-15 -7.43952e-17 0.13556 -1.56892e-15 1.41244e-15)
(5.83156e-15 -1.57736e-29 -1.93317e-30 4.56334 2.10424e-15 -8.07193e-15 0.134494 -3.83968e-17 -2.42322e-16)
(5.00603e-15 1.30173e-29 1.62716e-30 4.56334 -1.22159e-15 -1.49354e-16 0.134494 -1.56884e-15 1.43962e-15)
(2.177e-15 -1.23689e-29 -1.51673e-30 4.46258 3.47092e-15 -8.17034e-15 0.133437 -8.64808e-17 -2.48278e-16)
(-8.70798e-15 9.62304e-30 1.20288e-30 4.46258 -3.30624e-15 -2.2819e-16 0.133437 -1.59213e-15 1.46714e-15)
(-2.1864e-15 9.06029e-30 1.51591e-30 4.36404 2.59751e-15 -7.2899e-15 0.132388 -1.22175e-16 -1.95399e-16)
(8.7456e-15 -3.16171e-30 -7.90426e-31 4.36404 -3.01158e-15 -2.23828e-16 0.132388 -1.6296e-15 1.49627e-15)
(-3.50874e-15 5.33472e-30 1.16865e-30 4.26767 2.2928e-15 -7.32519e-15 0.131347 -3.54238e-17 -2.57748e-16)
(0 -3.11639e-30 -3.89549e-31 4.26767 -1.95549e-17 -1.51409e-16 0.131347 -1.63677e-15 1.52603e-15)
(-3.45845e-15 1.53586e-29 1.53586e-30 4.17341 4.78554e-15 -8.11059e-15 0.130313 -1.34607e-16 -2.50725e-16)
(8.81996e-15 -9.21517e-30 -3.83966e-31 4.17341 1.0577e-15 -1.21688e-16 0.130313 -1.62409e-15 1.55634e-15)
(2.21417e-15 -1.48288e-29 -1.47723e-30 4.08119 4.07057e-15 -8.10111e-15 0.129286 -1.65664e-16 -2.64691e-16)
(0 1.21108e-29 1.13539e-30 4.08119 3.0246e-15 2.9971e-17 0.129286 -1.60559e-15 1.58731e-15)
(0 8.95291e-30 1.11911e-30 3.99097 3.61849e-15 -8.44906e-15 0.128265 -9.27405e-17 -2.80688e-16)
(-8.89315e-15 -2.9843e-30 -3.73038e-31 3.99097 1.33949e-15 1.90283e-16 0.128265 -1.55126e-15 1.62244e-15)
(-3.31187e-15 2.94153e-30 0 3.90268 3.37677e-15 -8.51654e-15 0.12725 -1.41129e-16 -2.76895e-16)
(0 5.88306e-30 1.10307e-30 3.90268 -1.59653e-15 1.54809e-16 0.12725 -1.57039e-15 1.65749e-15)
(0 1.15975e-29 1.44969e-30 3.81628 2.33973e-15 -8.4684e-15 0.126242 -7.95159e-17 -2.85689e-16)
(-3.2644e-15 -8.69812e-30 -7.24843e-31 3.81628 8.52765e-17 1.63317e-16 0.126242 -1.5758e-15 1.69456e-15)
(2.2502e-15 1.15744e-29 3.19645e-30 3.73172 3.13283e-15 -8.66264e-15 0.125238 -7.58764e-17 -2.98191e-16)
(0 -1.42891e-29 -3.57227e-30 3.73172 -6.04702e-17 2.01101e-16 0.125238 -1.55834e-15 1.73201e-15)
(2.25902e-15 2.93146e-30 1.72749e-30 3.64895 2.92645e-15 -8.83309e-15 0.12424 -1.35682e-16 -3.05797e-16)
(0 0 -7.04214e-31 3.64895 -8.84052e-16 1.68325e-16 0.12424 -1.57376e-15 1.76808e-15)
(-4.53557e-15 5.42175e-30 7.8771e-31 3.56793 2.02263e-15 -9.01759e-15 0.123246 -6.38858e-17 -3.19817e-16)
(9.07113e-15 0 0 3.56793 -4.30057e-16 1.1248e-16 0.123246 -1.60326e-15 1.80282e-15)
(-2.27647e-15 8.17572e-30 1.08784e-30 3.48862 2.44176e-15 -9.23791e-15 0.122257 -7.65069e-17 -3.30372e-16)
(0 0 6.84172e-31 3.48862 2.93083e-16 1.8039e-16 0.122257 -1.60616e-15 1.83774e-15)
(0 5.39493e-30 2.0231e-30 3.41097 2.61881e-15 -9.36924e-15 0.121272 -9.54671e-17 -3.3863e-16)
(0 -5.39493e-30 -2.0231e-30 3.41097 1.12307e-15 3.09194e-16 0.121272 -1.63384e-15 1.87347e-15)
(0 7.97641e-30 1.9941e-30 3.33494 3.64684e-15 -9.56556e-15 0.120291 -9.14815e-17 -3.54374e-16)
(0 -5.31761e-30 -6.64701e-31 3.33494 -7.54601e-17 3.30462e-16 0.120291 -1.60804e-15 1.90592e-15)
(-2.95064e-15 1.04828e-29 3.27587e-30 3.2605 5.56741e-15 -9.75177e-15 0.119314 -1.73272e-16 -3.62334e-16)
(0 -2.6207e-30 -1.96552e-30 3.2605 -1.75831e-15 1.33584e-16 0.119314 -1.60617e-15 1.93766e-15)
(-2.90835e-15 7.74941e-30 1.93735e-30 3.1876 4.92794e-15 -9.90069e-15 0.11834 -2.36329e-16 -3.75938e-16)
(1.84843e-14 -2.58314e-30 -1.29157e-30 3.1876 -1.38467e-15 -3.13035e-16 0.11834 -1.61246e-15 1.96797e-15)
(-4.63777e-15 5.34596e-30 9.14946e-31 3.11622 3.66897e-15 -9.93268e-15 0.11737 -1.30323e-16 -3.75385e-16)
(9.27555e-15 0 0 3.11622 -2.15906e-15 -2.6106e-16 0.11737 -1.60813e-15 1.99283e-15)
(2.32716e-15 -1.27044e-29 -1.0945e-30 3.04632 4.97201e-15 -1.0077e-14 0.116403 -1.47329e-16 -3.98108e-16)
(0 1.00385e-29 1.25481e-30 3.04632 -3.48712e-15 1.73668e-16 0.116403 -1.6368e-15 2.02423e-15)
(0 4.9473e-30 1.23683e-30 2.97786 4.75933e-15 -1.01934e-14 0.115439 -2.34865e-16 -3.95512e-16)
(-9.3415e-15 0 -6.18413e-31 2.97786 -3.49257e-15 1.78248e-16 0.115439 -1.67769e-15 2.05704e-15)
(-2.34352e-15 -1.44085e-29 -2.5555e-30 2.91081 3.8978e-15 -1.02218e-14 0.114479 -1.34965e-16 -4.12027e-16)
(9.37408e-15 1.70674e-29 3.6573e-30 2.91081 -2.37403e-15 -9.58471e-18 0.114479 -1.70435e-15 2.08641e-15)
(0 7.20975e-30 2.40325e-30 2.84515 4.68497e-15 -1.02996e-14 0.113521 -1.73198e-16 -4.13378e-16)
(-2.70582e-15 -2.40325e-30 -1.20163e-30 2.84515 -2.85277e-15 8.70698e-17 0.113521 -1.72324e-15 2.11429e-15)
(0 -9.47523e-30 -1.1844e-30 2.78084 4.42499e-15 -1.04517e-14 0.112565 -2.0246e-16 -4.36549e-16)
(0 9.47523e-30 1.1844e-30 2.78084 -4.45494e-15 2.28621e-16 0.112565 -1.75705e-15 2.14527e-15)
(-2.36755e-15 2.63762e-30 5.33805e-31 2.71785 3.60748e-15 -1.05098e-14 0.111613 -1.56979e-16 -4.30319e-16)
(0 0 0 2.71785 -4.25471e-15 -8.62836e-17 0.111613 -1.80965e-15 2.17448e-15)
(-2.15971e-15 -1.77516e-29 -5.23767e-30 2.65616 4.39997e-15 -1.05271e-14 0.110662 -1.40468e-16 -4.50792e-16)
(1.90034e-14 2.07125e-29 5.75348e-30 2.65616 -3.3475e-15 -1.47011e-16 0.110662 -1.85221e-15 2.1979e-15)
(0 6.80522e-30 1.1342e-30 2.59573 5.14044e-15 -1.09137e-14 0.109714 -2.2838e-16 -4.75987e-16)
(0 -4.53681e-30 0 2.59573 -4.08935e-15 3.68951e-16 0.109714 -1.86919e-15 2.22963e-15)
(-2.51739e-15 8.94358e-30 1.67692e-30 2.53654 3.31736e-15 -1.09701e-14 0.108769 -2.07907e-16 -4.6889e-16)
(0 -4.47179e-30 0 2.53654 -3.44364e-15 3.53514e-16 0.108769 -1.9344e-15 2.26784e-15)
(-4.71466e-15 -1.85889e-29 -2.64126e-30 2.47857 1.99003e-15 -1.09608e-14 0.107825 -7.68938e-17 -4.89117e-16)
(1.91893e-14 2.64462e-29 4.4077e-30 2.47857 -4.68837e-16 -8.47441e-17 0.107825 -1.95653e-15 2.29828e-15)
(0 -2.60671e-29 -7.60291e-30 2.42179 2.21671e-15 -1.12064e-14 0.106884 -9.71603e-17 -5.04552e-16)
(1.92502e-14 2.60671e-29 7.60291e-30 2.42179 -5.29777e-16 1.60793e-16 0.106884 -1.90844e-15 2.3274e-15)
(-2.41382e-15 1.11763e-29 2.76289e-30 2.36618 1.57352e-15 -1.1205e-14 0.105945 -9.93894e-17 -5.03323e-16)
(0 -8.56451e-30 -1.07056e-30 2.36618 -1.92653e-15 3.95581e-16 0.105945 -1.91775e-15 2.36381e-15)