/*--------------------------------*- C++ -*----------------------------------*\
| =========                 |                                                 |
| \\      /  F ield         | OpenFOAM: The Open Source CFD Toolbox           |
|  \\    /   O peration     | Version:  2012                                  |
|   \\  /    A nd           | Website:  www.openfoam.com                      |
|    \\/     M anipulation  |                                                 |
\*---------------------------------------------------------------------------*/
FoamFile
{
    version     2.0;
    format      ascii;
    class       volScalarField;
    location    "2000";
    object      p;
}
// * * * * * * * * * * * * * * * * * * * * * * * * * * * * * * * * * * * * * //

dimensions      [0 2 -2 0 0 0 0];


internalField   nonuniform List<scalar> 
2560
(
3.24493e-15
1.78984e-14
6.85785e-15
1.78982e-14
7.4171e-15
1.78979e-14
7.1466e-15
1.78975e-14
7.02192e-15
1.78968e-14
6.99468e-15
1.78961e-14
6.97394e-15
1.78951e-14
6.94553e-15
1.7894e-14
6.91612e-15
1.78927e-14
6.88783e-15
1.78913e-14
6.86039e-15
1.78896e-14
6.83359e-15
1.78877e-14
6.80744e-15
1.78857e-14
6.78196e-15
1.78835e-14
6.7571e-15
1.7881e-14
6.73285e-15
1.78784e-14
6.70923e-15
1.78756e-14
6.68631e-15
1.78726e-14
6.66402e-15
1.78693e-14
6.64248e-15
1.78657e-14
6.62151e-15
1.7862e-14
6.60107e-15
1.78581e-14
6.58125e-15
1.78539e-14
6.56228e-15
1.78495e-14
6.54388e-15
1.78448e-14
6.52606e-15
1.78399e-14
6.50881e-15
1.78347e-14
6.49225e-15
1.78294e-14
6.47642e-15
1.7824e-14
6.4612e-15
1.78183e-14
6.44663e-15
1.78121e-14
6.43253e-15
1.78056e-14
6.419e-15
1.77989e-14
6.40616e-15
1.7792e-14
6.39404e-15
1.77849e-14
6.38259e-15
1.77775e-14
6.37158e-15
1.77697e-14
6.36138e-15
1.77616e-14
6.35194e-15
1.77532e-14
6.34297e-15
1.77444e-14
6.3346e-15
1.77354e-14
6.32695e-15
1.7726e-14
6.31985e-15
1.77165e-14
6.31346e-15
1.77065e-14
6.30793e-15
1.76958e-14
6.3031e-15
1.76847e-14
6.29881e-15
1.76734e-14
6.2955e-15
1.76619e-14
6.29263e-15
1.765e-14
6.29033e-15
1.76376e-14
6.28891e-15
1.7625e-14
6.28805e-15
1.7612e-14
6.28776e-15
1.75984e-14
6.28826e-15
1.75844e-14
6.28966e-15
1.75699e-14
6.29171e-15
1.75552e-14
6.29452e-15
1.75402e-14
6.2982e-15
1.75244e-14
6.30258e-15
1.75081e-14
6.30735e-15
1.74916e-14
6.31302e-15
1.74746e-14
6.31935e-15
1.74572e-14
6.32658e-15
1.74391e-14
6.33433e-15
1.74205e-14
6.34299e-15
1.74015e-14
6.35217e-15
1.7382e-14
6.36225e-15
1.73616e-14
6.37315e-15
1.73408e-14
6.38465e-15
1.73196e-14
6.39724e-15
1.72982e-14
6.41012e-15
1.72763e-14
6.42377e-15
1.72537e-14
6.43841e-15
1.72304e-14
6.45393e-15
1.72067e-14
6.47038e-15
1.71825e-14
6.48754e-15
1.71577e-14
6.50531e-15
1.7132e-14
6.52374e-15
1.71061e-14
6.54313e-15
1.70795e-14
6.56339e-15
1.70526e-14
6.5839e-15
1.70253e-14
6.60521e-15
1.69965e-14
6.62772e-15
1.6967e-14
6.65084e-15
1.69374e-14
6.6747e-15
1.69077e-14
6.69994e-15
1.68771e-14
6.72571e-15
1.68456e-14
6.75168e-15
1.68135e-14
6.7787e-15
1.6781e-14
6.80641e-15
1.67484e-14
6.83448e-15
1.67151e-14
6.86326e-15
1.66816e-14
6.89219e-15
1.66477e-14
6.92228e-15
1.66128e-14
6.95364e-15
1.65768e-14
6.98591e-15
1.65399e-14
7.01942e-15
1.65031e-14
7.05316e-15
1.64665e-14
7.08745e-15
1.6429e-14
7.12281e-15
1.639e-14
7.15889e-15
1.63506e-14
7.19598e-15
1.63106e-14
7.23293e-15
1.62702e-14
7.27124e-15
1.62291e-14
7.31078e-15
1.61876e-14
7.3504e-15
1.61457e-14
7.39077e-15
1.61034e-14
7.43235e-15
1.60602e-14
7.47479e-15
1.60161e-14
7.51776e-15
1.59719e-14
7.5615e-15
1.59276e-14
7.60569e-15
1.58829e-14
7.65e-15
1.58375e-14
7.69521e-15
1.5792e-14
7.74156e-15
1.57457e-14
7.78816e-15
1.56988e-14
7.8345e-15
1.56518e-14
7.88189e-15
1.56044e-14
7.92876e-15
1.5557e-14
7.97742e-15
1.55089e-14
8.02735e-15
1.54596e-14
8.07737e-15
1.54098e-14
8.12802e-15
1.53598e-14
8.17947e-15
1.53098e-14
8.23124e-15
1.52595e-14
8.28285e-15
1.52094e-14
8.3345e-15
1.51592e-14
8.38668e-15
1.51088e-14
8.43988e-15
1.50573e-14
8.49236e-15
1.50055e-14
8.54524e-15
1.49543e-14
8.59838e-15
1.49037e-14
8.65254e-15
1.48524e-14
8.70727e-15
1.47999e-14
8.7612e-15
1.47483e-14
8.8148e-15
1.46966e-14
8.86913e-15
1.46447e-14
8.92315e-15
1.45926e-14
8.97877e-15
1.45409e-14
9.03409e-15
1.44886e-14
9.08841e-15
1.44353e-14
9.14303e-15
1.43828e-14
9.19781e-15
1.43307e-14
9.25179e-15
1.42786e-14
9.30595e-15
1.4227e-14
9.35989e-15
1.41759e-14
9.41432e-15
1.41244e-14
9.46882e-15
1.40729e-14
9.52195e-15
1.40221e-14
9.57573e-15
1.39711e-14
9.62951e-15
1.39197e-14
9.68372e-15
1.38685e-14
9.73875e-15
1.38181e-14
9.79298e-15
1.37681e-14
9.84528e-15
1.37174e-14
9.89764e-15
1.36662e-14
9.95047e-15
1.36149e-14
1.00032e-14
1.35656e-14
1.00557e-14
1.35177e-14
1.0106e-14
1.34687e-14
1.01551e-14
1.34206e-14
1.02029e-14
1.33739e-14
1.02502e-14
1.33281e-14
1.02981e-14
1.3282e-14
1.03436e-14
1.32368e-14
1.03891e-14
1.31922e-14
1.04341e-14
1.31488e-14
1.04776e-14
1.3106e-14
1.05201e-14
1.30637e-14
1.05621e-14
1.30233e-14
1.06039e-14
1.29837e-14
1.06453e-14
1.29453e-14
1.06851e-14
1.29075e-14
1.07236e-14
1.28708e-14
1.0762e-14
1.2834e-14
1.07986e-14
1.27985e-14
1.08344e-14
1.27632e-14
1.08703e-14
1.27279e-14
1.0905e-14
1.26939e-14
1.09386e-14
1.26611e-14
1.09707e-14
1.26287e-14
1.10024e-14
1.25967e-14
1.10337e-14
1.25639e-14
1.10638e-14
1.2534e-14
1.10913e-14
1.25058e-14
1.11179e-14
1.24771e-14
1.11447e-14
1.24483e-14
1.11693e-14
1.24212e-14
1.11935e-14
1.2395e-14
1.12141e-14
1.23718e-14
1.12334e-14
1.23503e-14
1.12521e-14
1.23275e-14
1.1271e-14
1.23044e-14
1.12903e-14
1.22837e-14
1.13067e-14
1.2266e-14
1.13233e-14
1.22434e-14
1.13379e-14
1.22248e-14
1.1349e-14
1.22103e-14
1.13596e-14
1.21972e-14
1.13684e-14
1.21807e-14
1.13739e-14
1.21686e-14
1.13794e-14
1.21559e-14
1.1387e-14
1.21391e-14
1.13953e-14
1.2123e-14
1.14086e-14
1.21038e-14
1.14239e-14
1.20848e-14
1.14332e-14
1.20724e-14
1.14475e-14
1.20535e-14
1.14654e-14
1.20248e-14
1.1488e-14
1.19925e-14
1.15031e-14
1.19716e-14
1.1516e-14
1.19464e-14
1.153e-14
1.19105e-14
1.15396e-14
1.18836e-14
1.15513e-14
1.18633e-14
1.1559e-14
1.185e-14
1.15732e-14
1.18269e-14
1.15841e-14
1.17964e-14
1.15881e-14
1.17727e-14
1.1593e-14
1.17604e-14
1.15991e-14
1.17312e-14
1.1607e-14
1.1705e-14
1.16129e-14
1.16911e-14
1.16122e-14
1.16855e-14
1.16144e-14
1.16598e-14
1.1625e-14
1.16174e-14
1.16247e-14
1.15931e-14
1.1613e-14
1.15879e-14
1.16003e-14
1.16037e-14
1.15806e-14
1.15901e-14
1.15591e-14
1.15631e-14
1.15484e-14
1.15467e-14
1.15365e-14
1.15668e-14
1.15167e-14
1.15545e-14
1.1495e-14
1.15282e-14
1.14784e-14
1.15353e-14
1.14669e-14
1.1508e-14
1.14465e-14
1.14948e-14
1.1439e-14
1.14381e-14
1.14233e-14
1.14024e-14
1.14073e-14
1.13807e-14
1.13757e-14
1.135e-14
1.13519e-14
1.13182e-14
1.13205e-14
1.13257e-14
1.1264e-14
1.13091e-14
1.12308e-14
1.12853e-14
1.11875e-14
1.12547e-14
1.11508e-14
1.11836e-14
1.10869e-14
1.11048e-14
1.10303e-14
1.10173e-14
1.10176e-14
1.09379e-14
1.09796e-14
1.0919e-14
1.09338e-14
1.08716e-14
1.08621e-14
1.08686e-14
1.07808e-14
1.08207e-14
1.0726e-14
1.07274e-14
1.06806e-14
1.06431e-14
1.06271e-14
1.05852e-14
1.05266e-14
1.05916e-14
1.04332e-14
1.05519e-14
1.03645e-14
1.04865e-14
1.02427e-14
1.04533e-14
1.01609e-14
1.03399e-14
1.01005e-14
1.02618e-14
1.00625e-14
1.01791e-14
1.00294e-14
1.01095e-14
9.94486e-15
9.99336e-15
9.84927e-15
9.92605e-15
9.80013e-15
9.86971e-15
9.74017e-15
9.80491e-15
9.65061e-15
9.75127e-15
9.58831e-15
9.59435e-15
9.51795e-15
9.46702e-15
9.48056e-15
9.40638e-15
9.38019e-15
9.45102e-15
9.30683e-15
9.41504e-15
9.23885e-15
9.26333e-15
9.12286e-15
9.12544e-15
9.01681e-15
9.03708e-15
8.91865e-15
8.99782e-15
8.82496e-15
9.01141e-15
8.74772e-15
8.91593e-15
8.63167e-15
8.80518e-15
8.55124e-15
8.69626e-15
8.46971e-15
8.66099e-15
8.43819e-15
8.57366e-15
8.33211e-15
8.44988e-15
8.22655e-15
8.37805e-15
8.22563e-15
8.32268e-15
8.1528e-15
8.28079e-15
8.09642e-15
8.2544e-15
8.05407e-15
8.15595e-15
8.02902e-15
8.0862e-15
7.95481e-15
8.00413e-15
7.86636e-15
7.90906e-15
7.83165e-15
7.83702e-15
7.75261e-15
7.81909e-15
7.62506e-15
7.72462e-15
7.54263e-15
7.6919e-15
7.49977e-15
7.53168e-15
7.44184e-15
7.42995e-15
7.33927e-15
7.4113e-15
7.28034e-15
7.35697e-15
7.20305e-15
7.30182e-15
7.10411e-15
7.21765e-15
7.10301e-15
7.17017e-15
7.11408e-15
7.09235e-15
7.05604e-15
7.06749e-15
6.98741e-15
7.03718e-15
6.96265e-15
7.03387e-15
6.95436e-15
7.00014e-15
6.87701e-15
6.93574e-15
6.8719e-15
6.90284e-15
6.82973e-15
6.90187e-15
6.77256e-15
6.82317e-15
6.73119e-15
6.74832e-15
6.68375e-15
6.72166e-15
6.62783e-15
6.71925e-15
6.58662e-15
6.58021e-15
6.523e-15
6.55622e-15
1.32404e-14
1.38868e-14
1.32404e-14
1.38868e-14
1.32403e-14
1.38868e-14
1.32402e-14
1.38868e-14
1.324e-14
1.38868e-14
1.32398e-14
1.38868e-14
1.32395e-14
1.38868e-14
1.32392e-14
1.38869e-14
1.32388e-14
1.38869e-14
1.32383e-14
1.3887e-14
1.32378e-14
1.3887e-14
1.32372e-14
1.38871e-14
1.32366e-14
1.38872e-14
1.3236e-14
1.38872e-14
1.32353e-14
1.38872e-14
1.32346e-14
1.38872e-14
1.32337e-14
1.38872e-14
1.32329e-14
1.38872e-14
1.32321e-14
1.38871e-14
1.32311e-14
1.3887e-14
1.32301e-14
1.38869e-14
1.32289e-14
1.38869e-14
1.32278e-14
1.38869e-14
1.32266e-14
1.38868e-14
1.32255e-14
1.38866e-14
1.32243e-14
1.38864e-14
1.3223e-14
1.38863e-14
1.32216e-14
1.38862e-14
1.32204e-14
1.38861e-14
1.3219e-14
1.38861e-14
1.32175e-14
1.38859e-14
1.3216e-14
1.38856e-14
1.32145e-14
1.38855e-14
1.32131e-14
1.38852e-14
1.32114e-14
1.3885e-14
1.32096e-14
1.38848e-14
1.32078e-14
1.38844e-14
1.32059e-14
1.3884e-14
1.32039e-14
1.38835e-14
1.3202e-14
1.3883e-14
1.32e-14
1.38827e-14
1.31975e-14
1.38825e-14
1.31953e-14
1.38822e-14
1.31929e-14
1.38818e-14
1.31906e-14
1.38815e-14
1.31881e-14
1.38809e-14
1.31855e-14
1.38806e-14
1.31829e-14
1.38802e-14
1.31803e-14
1.38796e-14
1.31775e-14
1.3879e-14
1.31747e-14
1.38784e-14
1.31717e-14
1.38779e-14
1.31692e-14
1.38774e-14
1.31666e-14
1.38767e-14
1.31638e-14
1.3876e-14
1.31609e-14
1.38755e-14
1.3158e-14
1.3875e-14
1.31553e-14
1.38744e-14
1.31525e-14
1.38737e-14
1.31494e-14
1.38731e-14
1.31461e-14
1.38724e-14
1.31426e-14
1.38716e-14
1.31391e-14
1.3871e-14
1.31351e-14
1.38705e-14
1.31311e-14
1.38699e-14
1.31275e-14
1.38691e-14
1.31233e-14
1.3868e-14
1.31195e-14
1.38671e-14
1.31156e-14
1.38659e-14
1.31114e-14
1.38646e-14
1.31072e-14
1.38634e-14
1.31031e-14
1.38624e-14
1.30991e-14
1.38612e-14
1.30952e-14
1.38604e-14
1.30908e-14
1.38598e-14
1.30866e-14
1.38587e-14
1.30824e-14
1.38577e-14
1.30783e-14
1.38568e-14
1.30742e-14
1.38556e-14
1.30694e-14
1.38546e-14
1.30651e-14
1.38534e-14
1.30613e-14
1.38522e-14
1.30576e-14
1.38509e-14
1.30535e-14
1.38503e-14
1.30499e-14
1.38493e-14
1.30461e-14
1.38479e-14
1.30423e-14
1.38466e-14
1.30385e-14
1.38452e-14
1.30345e-14
1.3844e-14
1.30303e-14
1.3843e-14
1.30265e-14
1.3842e-14
1.30225e-14
1.38408e-14
1.30186e-14
1.38397e-14
1.30146e-14
1.38383e-14
1.3011e-14
1.38367e-14
1.30075e-14
1.38354e-14
1.30044e-14
1.38343e-14
1.30013e-14
1.38328e-14
1.29979e-14
1.38305e-14
1.29945e-14
1.38284e-14
1.29912e-14
1.3827e-14
1.29864e-14
1.38254e-14
1.29825e-14
1.38238e-14
1.29786e-14
1.38221e-14
1.29743e-14
1.38206e-14
1.29702e-14
1.38193e-14
1.29655e-14
1.38174e-14
1.29618e-14
1.38155e-14
1.29581e-14
1.38129e-14
1.29551e-14
1.38103e-14
1.29524e-14
1.38076e-14
1.29491e-14
1.38046e-14
1.29457e-14
1.38012e-14
1.29429e-14
1.37976e-14
1.29401e-14
1.37944e-14
1.29378e-14
1.37907e-14
1.29342e-14
1.37874e-14
1.29303e-14
1.37844e-14
1.29266e-14
1.37815e-14
1.29227e-14
1.37786e-14
1.2919e-14
1.37753e-14
1.29154e-14
1.37714e-14
1.29114e-14
1.37679e-14
1.29077e-14
1.37651e-14
1.29045e-14
1.37617e-14
1.29016e-14
1.37578e-14
1.28986e-14
1.37533e-14
1.28959e-14
1.37487e-14
1.28935e-14
1.37435e-14
1.2892e-14
1.3737e-14
1.28909e-14
1.37307e-14
1.28898e-14
1.37249e-14
1.28887e-14
1.37184e-14
1.28874e-14
1.37118e-14
1.28865e-14
1.37052e-14
1.2886e-14
1.3699e-14
1.28862e-14
1.36927e-14
1.28853e-14
1.36865e-14
1.28844e-14
1.36804e-14
1.2883e-14
1.36737e-14
1.28818e-14
1.3667e-14
1.288e-14
1.36603e-14
1.28784e-14
1.36545e-14
1.28765e-14
1.36482e-14
1.28746e-14
1.36414e-14
1.28724e-14
1.36346e-14
1.28708e-14
1.36276e-14
1.28692e-14
1.36213e-14
1.28677e-14
1.36148e-14
1.28662e-14
1.36076e-14
1.28643e-14
1.36007e-14
1.28611e-14
1.35946e-14
1.28591e-14
1.35883e-14
1.28583e-14
1.35813e-14
1.2857e-14
1.35727e-14
1.28564e-14
1.35635e-14
1.28569e-14
1.35549e-14
1.2856e-14
1.35463e-14
1.28558e-14
1.35379e-14
1.28563e-14
1.35296e-14
1.28569e-14
1.35211e-14
1.28577e-14
1.35119e-14
1.28597e-14
1.35021e-14
1.286e-14
1.34932e-14
1.2861e-14
1.34842e-14
1.28613e-14
1.34757e-14
1.28614e-14
1.34669e-14
1.28613e-14
1.34582e-14
1.28615e-14
1.34488e-14
1.28615e-14
1.34388e-14
1.28619e-14
1.34295e-14
1.28631e-14
1.34193e-14
1.28655e-14
1.34086e-14
1.28679e-14
1.33988e-14
1.28693e-14
1.33901e-14
1.28706e-14
1.33816e-14
1.28723e-14
1.33728e-14
1.28741e-14
1.33647e-14
1.28759e-14
1.33555e-14
1.28782e-14
1.33453e-14
1.288e-14
1.33359e-14
1.2881e-14
1.33256e-14
1.28826e-14
1.33153e-14
1.28833e-14
1.3304e-14
1.28817e-14
1.32938e-14
1.28822e-14
1.32847e-14
1.28829e-14
1.32752e-14
1.28853e-14
1.32653e-14
1.28874e-14
1.32545e-14
1.28898e-14
1.32443e-14
1.28925e-14
1.32337e-14
1.28944e-14
1.32226e-14
1.28967e-14
1.32127e-14
1.29e-14
1.32033e-14
1.29031e-14
1.31934e-14
1.29087e-14
1.318e-14
1.29129e-14
1.31669e-14
1.29115e-14
1.31569e-14
1.29113e-14
1.31442e-14
1.29138e-14
1.313e-14
1.29131e-14
1.31173e-14
1.29088e-14
1.31094e-14
1.29039e-14
1.31014e-14
1.29003e-14
1.30897e-14
1.2894e-14
1.30795e-14
1.28868e-14
1.3073e-14
1.28785e-14
1.30683e-14
1.2871e-14
1.3059e-14
1.28667e-14
1.30443e-14
1.28608e-14
1.30337e-14
1.2853e-14
1.30223e-14
1.28404e-14
1.30155e-14
1.28308e-14
1.29993e-14
1.28305e-14
1.29817e-14
1.28311e-14
1.2969e-14
1.28191e-14
1.29613e-14
1.28073e-14
1.29418e-14
1.27955e-14
1.29274e-14
1.27912e-14
1.29187e-14
1.27872e-14
1.29041e-14
1.27834e-14
1.2883e-14
1.27713e-14
1.28589e-14
1.27636e-14
1.28361e-14
1.27562e-14
1.28096e-14
1.27492e-14
1.27838e-14
1.27326e-14
1.27687e-14
1.27055e-14
1.2739e-14
1.26942e-14
1.27099e-14
1.26833e-14
1.27035e-14
1.26667e-14
1.26981e-14
1.26443e-14
1.26701e-14
1.26217e-14
1.26304e-14
1.25865e-14
1.26348e-14
1.25634e-14
1.26149e-14
1.2533e-14
1.25625e-14
1.2509e-14
1.25236e-14
1.24989e-14
1.24563e-14
1.2454e-14
1.24156e-14
1.24241e-14
1.23881e-14
1.23721e-14
1.23521e-14
1.23197e-14
1.23077e-14
1.22744e-14
1.22624e-14
1.22126e-14
1.22003e-14
1.21659e-14
1.21693e-14
1.21263e-14
1.21128e-14
1.20947e-14
1.20295e-14
1.20216e-14
1.1951e-14
1.19747e-14
1.18944e-14
1.19201e-14
1.18429e-14
1.18756e-14
1.17794e-14
1.17886e-14
1.17215e-14
1.17291e-14
1.16524e-14
1.16432e-14
1.15895e-14
1.15665e-14
1.15151e-14
1.14993e-14
1.14839e-14
1.14038e-14
1.14232e-14
1.13349e-14
1.13719e-14
1.13114e-14
1.13311e-14
1.12015e-14
1.12631e-14
1.1099e-14
1.12061e-14
1.10412e-14
1.11426e-14
1.09519e-14
1.1034e-14
1.08707e-14
1.0898e-14
1.07611e-14
1.08493e-14
1.06788e-14
1.07742e-14
1.05647e-14
1.06929e-14
1.04552e-14
1.06264e-14
1.03488e-14
1.05384e-14
1.0225e-14
1.04493e-14
1.01204e-14
1.03604e-14
1.00333e-14
1.02335e-14
9.96554e-15
1.00661e-14
9.90156e-15
9.89348e-15
9.84631e-15
9.76898e-15
9.76391e-15
9.72704e-15
9.69217e-15
9.63173e-15
9.59394e-15
9.55828e-15
9.50634e-15
9.47124e-15
9.43037e-15
9.41055e-15
9.32813e-15
9.32049e-15
9.25655e-15
9.21992e-15
9.14226e-15
9.14241e-15
9.02073e-15
9.10925e-15
8.94338e-15
9.03394e-15
8.89131e-15
8.93718e-15
8.7941e-15
8.85218e-15
8.66823e-15
8.79845e-15
8.61867e-15
8.74643e-15
8.55583e-15
8.66103e-15
8.46149e-15
8.61297e-15
8.38592e-15
8.60544e-15
8.34101e-15
8.55554e-15
8.29116e-15
8.53684e-15
8.23293e-15
8.44952e-15
8.16906e-15
8.29355e-15
8.07352e-15
8.19894e-15
7.97842e-15
8.16479e-15
7.94541e-15
8.06043e-15
7.8497e-15
7.88154e-15
7.76593e-15
7.78216e-15
7.72674e-15
7.72982e-15
7.63618e-15
7.62754e-15
7.49747e-15
7.53608e-15
7.43118e-15
7.45856e-15
7.40629e-15
7.3612e-15
7.30872e-15
7.29902e-15
7.28678e-15
7.21244e-15
7.22186e-15
7.18663e-15
7.1715e-15
7.19445e-15
7.0393e-15
7.1843e-15
7.01479e-15
7.11192e-15
7.01156e-15
7.0302e-15
6.92655e-15
6.9285e-15
6.90406e-15
6.9172e-15
6.8562e-15
6.87999e-15
6.78265e-15
6.90801e-15
6.72331e-15
6.85246e-15
6.61939e-15
6.85538e-15
6.53444e-15
6.87817e-15
6.44566e-15
6.84135e-15
6.48827e-15
6.54182e-15
6.45459e-15
6.49052e-15
6.42079e-15
6.53795e-15
6.39211e-15
6.51457e-15
6.33848e-15
6.44973e-15
6.37393e-15
6.4546e-15
6.39107e-15
6.40912e-15
6.37009e-15
6.388e-15
6.36881e-15
6.42543e-15
6.35871e-15
6.50235e-15
6.32779e-15
6.42767e-15
6.33997e-15
6.39965e-15
6.34024e-15
6.43999e-15
6.32802e-15
6.43151e-15
6.33607e-15
6.43227e-15
6.33531e-15
6.44095e-15
6.32801e-15
6.42558e-15
6.31129e-15
6.44768e-15
6.27989e-15
6.44858e-15
6.29323e-15
6.36631e-15
6.29487e-15
6.34819e-15
6.31996e-15
6.35682e-15
6.33891e-15
6.39087e-15
6.35105e-15
6.35322e-15
6.29357e-15
6.34143e-15
6.29748e-15
6.36099e-15
6.2935e-15
6.34588e-15
6.28405e-15
6.29539e-15
6.23872e-15
6.34814e-15
6.2197e-15
6.33668e-15
6.19186e-15
6.18826e-15
6.19928e-15
6.12416e-15
6.15747e-15
6.15761e-15
6.09697e-15
6.1313e-15
6.07074e-15
6.13836e-15
6.05871e-15
6.12664e-15
6.04118e-15
6.02215e-15
5.98695e-15
5.98515e-15
5.98826e-15
5.94252e-15
5.93504e-15
5.94722e-15
5.89866e-15
5.90916e-15
5.86011e-15
5.88471e-15
5.83835e-15
5.83793e-15
5.75841e-15
5.76705e-15
5.71483e-15
5.76811e-15
5.66792e-15
5.74753e-15
5.61707e-15
5.66905e-15
5.56337e-15
5.6486e-15
5.56379e-15
5.65015e-15
5.56068e-15
5.69363e-15
5.51261e-15
5.66398e-15
5.45795e-15
5.60105e-15
5.41624e-15
5.58285e-15
5.40646e-15
5.62816e-15
5.38814e-15
5.58231e-15
5.34242e-15
5.56125e-15
5.34576e-15
5.60432e-15
5.33891e-15
5.61653e-15
5.32182e-15
5.56001e-15
5.29588e-15
5.53069e-15
5.31899e-15
5.52794e-15
5.37333e-15
5.43525e-15
5.31155e-15
5.40015e-15
5.30418e-15
5.4599e-15
5.32953e-15
5.44693e-15
5.3327e-15
5.41708e-15
5.31521e-15
5.3881e-15
5.29623e-15
5.39692e-15
5.29327e-15
5.42566e-15
5.28744e-15
5.41996e-15
5.29667e-15
5.43327e-15
5.30332e-15
5.44753e-15
5.29015e-15
5.46347e-15
5.29147e-15
5.44734e-15
5.27318e-15
5.43349e-15
5.26928e-15
5.47199e-15
5.27868e-15
5.46365e-15
5.26886e-15
5.40969e-15
5.25693e-15
5.38228e-15
5.26655e-15
5.39604e-15
5.27401e-15
5.40369e-15
5.26429e-15
5.40573e-15
5.25975e-15
5.38031e-15
5.24612e-15
5.37108e-15
5.22365e-15
5.37045e-15
5.21975e-15
5.34403e-15
5.2071e-15
5.31272e-15
5.17341e-15
5.3087e-15
5.16364e-15
5.31828e-15
5.16394e-15
5.30427e-15
5.17393e-15
5.27993e-15
5.17622e-15
5.27441e-15
5.17698e-15
5.26406e-15
5.18184e-15
5.24362e-15
5.18034e-15
5.22926e-15
5.16799e-15
5.2457e-15
5.16956e-15
5.24238e-15
5.17008e-15
5.23477e-15
5.16973e-15
5.2276e-15
5.16868e-15
5.21644e-15
5.16706e-15
5.21817e-15
5.16486e-15
5.22382e-15
5.16205e-15
5.21792e-15
5.16235e-15
5.21244e-15
5.16208e-15
5.21081e-15
5.15795e-15
5.21269e-15
5.15981e-15
5.21145e-15
5.1641e-15
5.19825e-15
5.16498e-15
5.19428e-15
5.16554e-15
5.19868e-15
5.16579e-15
5.195e-15
5.16578e-15
5.19394e-15
5.16553e-15
5.18816e-15
5.16734e-15
5.18261e-15
5.16677e-15
5.18579e-15
5.16808e-15
5.18675e-15
5.16916e-15
5.17988e-15
5.16824e-15
5.1751e-15
5.16727e-15
5.17396e-15
5.16457e-15
5.17445e-15
5.16349e-15
5.17326e-15
5.15927e-15
5.17511e-15
5.15653e-15
5.17541e-15
5.15513e-15
5.1757e-15
5.15225e-15
5.17599e-15
5.14928e-15
5.17891e-15
5.14996e-15
5.17678e-15
5.15042e-15
5.17416e-15
5.14713e-15
5.1746e-15
5.14717e-15
5.17279e-15
5.14812e-15
5.17165e-15
5.14779e-15
5.17112e-15
5.14514e-15
5.17064e-15
5.14497e-15
5.17073e-15
5.14719e-15
5.16985e-15
5.1482e-15
5.168e-15
5.14853e-15
5.1657e-15
5.1502e-15
5.16394e-15
5.15172e-15
5.16365e-15
5.15359e-15
5.16336e-15
5.15486e-15
5.16211e-15
5.15554e-15
5.16036e-15
5.15756e-15
5.1586e-15
5.15902e-15
5.15776e-15
5.16089e-15
5.15734e-15
5.16129e-15
5.15782e-15
5.1621e-15
5.15778e-15
5.16286e-15
5.15817e-15
5.16264e-15
5.15898e-15
5.16426e-15
5.15834e-15
5.1649e-15
5.15812e-15
5.16458e-15
5.15738e-15
5.1647e-15
5.15707e-15
5.1648e-15
5.15717e-15
5.16441e-15
5.15722e-15
5.16446e-15
5.15722e-15
5.16402e-15
5.15765e-15
5.16356e-15
5.15755e-15
5.16355e-15
5.15693e-15
5.16304e-15
5.15627e-15
5.16202e-15
5.15604e-15
5.16147e-15
5.15528e-15
5.1614e-15
5.15448e-15
5.15981e-15
5.15463e-15
5.15819e-15
5.15475e-15
5.15805e-15
5.15483e-15
5.15789e-15
5.15489e-15
5.15924e-15
5.15544e-15
5.15903e-15
5.15492e-15
5.15776e-15
5.15386e-15
5.15724e-15
5.15328e-15
5.1567e-15
5.15321e-15
5.15586e-15
5.15418e-15
5.15472e-15
5.15487e-15
5.15328e-15
5.15528e-15
5.15235e-15
5.15567e-15
5.15138e-15
5.15633e-15
5.14981e-15
5.15615e-15
5.14877e-15
5.15568e-15
5.14798e-15
5.15718e-15
5.14772e-15
5.1584e-15
5.14656e-15
5.15876e-15
5.14594e-15
5.15883e-15
5.14529e-15
5.15948e-15
5.14461e-15
5.15984e-15
5.14359e-15
5.1599e-15
5.14222e-15
5.16027e-15
5.14174e-15
5.16064e-15
5.14122e-15
5.16102e-15
5.14066e-15
5.16109e-15
5.14007e-15
5.16116e-15
5.13882e-15
5.16125e-15
5.13784e-15
5.16165e-15
5.13715e-15
5.16207e-15
5.1361e-15
5.16283e-15
5.13568e-15
5.16327e-15
5.13588e-15
5.16272e-15
5.1354e-15
5.16218e-15
5.13522e-15
5.16198e-15
5.13501e-15
5.16213e-15
5.13409e-15
5.16194e-15
5.13348e-15
5.16175e-15
5.13285e-15
5.16122e-15
5.13254e-15
5.16105e-15
5.13186e-15
5.1616e-15
5.1315e-15
5.16217e-15
5.13112e-15
5.16201e-15
5.13035e-15
5.16186e-15
5.12936e-15
5.16191e-15
5.12853e-15
5.16234e-15
5.12767e-15
5.16278e-15
5.12698e-15
5.16304e-15
5.12625e-15
5.16293e-15
5.12511e-15
5.16302e-15
5.12433e-15
5.16372e-15
5.12313e-15
5.16403e-15
5.12189e-15
5.16375e-15
5.12123e-15
5.16328e-15
5.12117e-15
5.16302e-15
5.12066e-15
5.16338e-15
5.11993e-15
5.16398e-15
5.11895e-15
5.16416e-15
5.11837e-15
5.16393e-15
5.11777e-15
5.16414e-15
5.11693e-15
5.16436e-15
5.11606e-15
5.16415e-15
5.11539e-15
5.16395e-15
5.11514e-15
5.16398e-15
5.11487e-15
5.16425e-15
5.11436e-15
5.16453e-15
5.11382e-15
5.1646e-15
5.11326e-15
5.1642e-15
5.11291e-15
5.16381e-15
5.11303e-15
5.16343e-15
5.11264e-15
5.16353e-15
5.11248e-15
5.1634e-15
5.11231e-15
5.16303e-15
5.11137e-15
5.16266e-15
5.11079e-15
5.16255e-15
5.11057e-15
5.16283e-15
5.11046e-15
5.16312e-15
5.11086e-15
5.16263e-15
5.11086e-15
5.16228e-15
5.11085e-15
5.16207e-15
5.11055e-15
5.16159e-15
5.11065e-15
5.16125e-15
5.11074e-15
5.16105e-15
5.11068e-15
5.16099e-15
5.11033e-15
5.16094e-15
5.10982e-15
5.16089e-15
5.10973e-15
5.16071e-15
5.11006e-15
5.16053e-15
5.11025e-15
5.1599e-15
5.11013e-15
5.15972e-15
5.10984e-15
5.15985e-15
5.11016e-15
5.15999e-15
5.11047e-15
5.15982e-15
5.11063e-15
5.15966e-15
5.11045e-15
5.15949e-15
5.11076e-15
5.15933e-15
5.1109e-15
5.15901e-15
5.11103e-15
5.15885e-15
5.11115e-15
5.15903e-15
5.11128e-15
5.15905e-15
5.11139e-15
5.15864e-15
5.11159e-15
5.15832e-15
5.11197e-15
5.15808e-15
5.11181e-15
5.15784e-15
5.11163e-15
5.1577e-15
5.11155e-15
5.15764e-15
5.11164e-15
5.1575e-15
5.11163e-15
5.15707e-15
5.11163e-15
5.15684e-15
5.11161e-15
5.1566e-15
5.11149e-15
5.15646e-15
5.11127e-15
5.15632e-15
5.11124e-15
5.15618e-15
5.11131e-15
5.15615e-15
5.11149e-15
5.15591e-15
5.11144e-15
5.15577e-15
5.1114e-15
5.15585e-15
5.11141e-15
5.15571e-15
5.11152e-15
5.15569e-15
5.11163e-15
5.15561e-15
5.11185e-15
5.1553e-15
5.11207e-15
5.15517e-15
5.1123e-15
5.15521e-15
5.11252e-15
5.15513e-15
5.11275e-15
5.15512e-15
5.11291e-15
5.15517e-15
5.11307e-15
5.15528e-15
5.11324e-15
5.15534e-15
5.11346e-15
5.1552e-15
5.11363e-15
5.15507e-15
5.11372e-15
5.15506e-15
5.11379e-15
5.1551e-15
5.11392e-15
5.15513e-15
5.11401e-15
5.15516e-15
5.11404e-15
5.15517e-15
5.11403e-15
5.1551e-15
5.11405e-15
5.15504e-15
5.11408e-15
5.15501e-15
5.1141e-15
5.15499e-15
5.11408e-15
5.155e-15
5.1141e-15
5.15498e-15
5.1141e-15
5.15494e-15
5.11412e-15
5.1549e-15
5.11408e-15
5.15486e-15
5.11405e-15
5.15481e-15
5.11403e-15
5.15478e-15
5.11401e-15
5.15479e-15
5.114e-15
5.15478e-15
5.11396e-15
5.15478e-15
5.11393e-15
5.15475e-15
5.11392e-15
5.15474e-15
5.11393e-15
5.15474e-15
5.11392e-15
5.15475e-15
5.11391e-15
5.15475e-15
5.11392e-15
5.15475e-15
5.11391e-15
5.15475e-15
6.36783e-15
6.75552e-15
6.38211e-15
6.72467e-15
6.47487e-15
6.60038e-15
6.46787e-15
6.55664e-15
6.45297e-15
6.50103e-15
6.46802e-15
6.51344e-15
6.48343e-15
6.50792e-15
6.47287e-15
6.42531e-15
6.38757e-15
6.39685e-15
6.39057e-15
6.36747e-15
6.39866e-15
6.35602e-15
6.41668e-15
6.39502e-15
6.3507e-15
6.43144e-15
6.30589e-15
6.47731e-15
6.30173e-15
6.48393e-15
6.24372e-15
6.514e-15
6.30905e-15
6.51449e-15
6.32022e-15
6.50953e-15
6.34472e-15
6.49494e-15
6.39023e-15
6.53017e-15
6.39438e-15
6.58731e-15
6.38503e-15
6.60814e-15
6.39159e-15
6.5942e-15
6.38248e-15
6.53971e-15
6.36103e-15
6.50645e-15
6.36437e-15
6.4921e-15
6.32536e-15
6.45877e-15
6.2767e-15
6.37037e-15
6.25536e-15
6.39706e-15
6.22386e-15
6.40091e-15
6.21513e-15
6.31273e-15
6.20027e-15
6.28926e-15
6.16107e-15
6.31369e-15
6.09327e-15
6.2989e-15
6.06673e-15
6.28441e-15
6.10016e-15
6.25114e-15
6.05139e-15
6.21211e-15
6.0118e-15
6.16935e-15
6.00125e-15
6.17841e-15
5.98107e-15
6.14734e-15
5.95299e-15
6.13063e-15
5.89773e-15
6.05276e-15
5.85441e-15
6.0252e-15
5.82202e-15
5.9915e-15
5.74425e-15
5.97136e-15
5.67558e-15
5.8892e-15
5.63596e-15
5.78101e-15
5.59022e-15
5.70097e-15
5.55968e-15
5.68518e-15
5.58232e-15
5.71442e-15
5.5414e-15
5.67131e-15
5.51545e-15
5.59435e-15
5.468e-15
5.6572e-15
5.43402e-15
5.70893e-15
5.44921e-15
5.67437e-15
5.45753e-15
5.66891e-15
5.44109e-15
5.63358e-15
5.41987e-15
5.62465e-15
5.41279e-15
5.54497e-15
5.40301e-15
5.52741e-15
5.37188e-15
5.55213e-15
5.35548e-15
5.56328e-15
5.33295e-15
5.58218e-15
5.36073e-15
5.55363e-15
5.34622e-15
5.55058e-15
5.32665e-15
5.53561e-15
5.30182e-15
5.47196e-15
5.2912e-15
5.45089e-15
5.27676e-15
5.52565e-15
5.27449e-15
5.58862e-15
5.2471e-15
5.60642e-15
5.22919e-15
5.56325e-15
5.22098e-15
5.56388e-15
5.23944e-15
5.55548e-15
5.21678e-15
5.55469e-15
5.20398e-15
5.545e-15
5.2172e-15
5.52619e-15
5.24011e-15
5.49779e-15
5.24977e-15
5.45143e-15
5.24003e-15
5.44129e-15
5.25751e-15
5.41215e-15
5.27947e-15
5.43881e-15
5.27648e-15
5.46035e-15
5.27802e-15
5.44175e-15
5.2773e-15
5.44063e-15
5.27459e-15
5.43558e-15
5.26337e-15
5.46034e-15
5.25011e-15
5.45564e-15
5.24131e-15
5.42948e-15
5.23696e-15
5.39493e-15
5.22523e-15
5.37591e-15
5.22391e-15
5.37149e-15
5.22676e-15
5.36393e-15
5.22822e-15
5.34253e-15
5.2286e-15
5.33416e-15
5.22809e-15
5.33792e-15
5.217e-15
5.33345e-15
5.21006e-15
5.33551e-15
5.20233e-15
5.33022e-15
5.2025e-15
5.32254e-15
5.20584e-15
5.3168e-15
5.20822e-15
5.30877e-15
5.20215e-15
5.29472e-15
5.19572e-15
5.28241e-15
5.19598e-15
5.28214e-15
5.19232e-15
5.2862e-15
5.18823e-15
5.28792e-15
5.18367e-15
5.28153e-15
5.18157e-15
5.27071e-15
5.17897e-15
5.27232e-15
5.18113e-15
5.26692e-15
5.18265e-15
5.26013e-15
5.18363e-15
5.25441e-15
5.18417e-15
5.24064e-15
5.18866e-15
5.23449e-15
5.18661e-15
5.23722e-15
5.18636e-15
5.23251e-15
5.18774e-15
5.22291e-15
5.18716e-15
5.22112e-15
5.18816e-15
5.21973e-15
5.1906e-15
5.21708e-15
5.19134e-15
5.21327e-15
5.19349e-15
5.21129e-15
5.19133e-15
5.20956e-15
5.18926e-15
5.20807e-15
5.19117e-15
5.20548e-15
5.19178e-15
5.20626e-15
5.19241e-15
5.20531e-15
5.19304e-15
5.20155e-15
5.19315e-15
5.19743e-15
5.19556e-15
5.19626e-15
5.19637e-15
5.19681e-15
5.19778e-15
5.19634e-15
5.19614e-15
5.19643e-15
5.19871e-15
5.19606e-15
5.20085e-15
5.19472e-15
5.20156e-15
5.19293e-15
5.20239e-15
5.19117e-15
5.20381e-15
5.1909e-15
5.2063e-15
5.19064e-15
5.20699e-15
5.18989e-15
5.20684e-15
5.18914e-15
5.20777e-15
5.18743e-15
5.20882e-15
5.18525e-15
5.21093e-15
5.18399e-15
5.21084e-15
5.18409e-15
5.21041e-15
5.18604e-15
5.20729e-15
5.18843e-15
5.20661e-15
5.1894e-15
5.20602e-15
5.1885e-15
5.20411e-15
5.18853e-15
5.20322e-15
5.19043e-15
5.20239e-15
5.19141e-15
5.20209e-15
5.19146e-15
5.20043e-15
5.19295e-15
5.20024e-15
5.19446e-15
5.19961e-15
5.19409e-15
5.19855e-15
5.19326e-15
5.19703e-15
5.19245e-15
5.19652e-15
5.19214e-15
5.19604e-15
5.19235e-15
5.19559e-15
5.19208e-15
5.19567e-15
5.19085e-15
5.19579e-15
5.19013e-15
5.19694e-15
5.18993e-15
5.19713e-15
5.18974e-15
5.19838e-15
5.18854e-15
5.19814e-15
5.18734e-15
5.19846e-15
5.18666e-15
5.19986e-15
5.18598e-15
5.20001e-15
5.18556e-15
5.19887e-15
5.18566e-15
5.19777e-15
5.18604e-15
5.19723e-15
5.18643e-15
5.19673e-15
5.1871e-15
5.19598e-15
5.18696e-15
5.19499e-15
5.1871e-15
5.19373e-15
5.18753e-15
5.19306e-15
5.18825e-15
5.19099e-15
5.18985e-15
5.18892e-15
5.19061e-15
5.18713e-15
5.19082e-15
5.18623e-15
5.19134e-15
5.18532e-15
5.19248e-15
5.18442e-15
5.19304e-15
5.18322e-15
5.19304e-15
5.18172e-15
5.19305e-15
5.18051e-15
5.1934e-15
5.17899e-15
5.19346e-15
5.17776e-15
5.19198e-15
5.17653e-15
5.19083e-15
5.17593e-15
5.19032e-15
5.17468e-15
5.19015e-15
5.17374e-15
5.19e-15
5.17182e-15
5.19018e-15
5.17153e-15
5.18974e-15
5.17057e-15
5.18864e-15
5.16993e-15
5.18822e-15
5.16827e-15
5.18917e-15
5.16728e-15
5.18878e-15
5.16627e-15
5.18875e-15
5.16561e-15
5.18909e-15
5.16493e-15
5.1891e-15
5.16459e-15
5.18912e-15
5.16461e-15
5.18881e-15
5.1639e-15
5.18887e-15
5.16391e-15
5.18859e-15
5.16429e-15
5.18758e-15
5.16374e-15
5.18713e-15
5.16355e-15
5.1867e-15
5.16298e-15
5.18665e-15
5.1624e-15
5.18643e-15
5.16201e-15
5.18602e-15
5.16181e-15
5.18543e-15
5.162e-15
5.18485e-15
5.16199e-15
5.18447e-15
5.16177e-15
5.18389e-15
5.16156e-15
5.18332e-15
5.16155e-15
5.18255e-15
5.16153e-15
5.18178e-15
5.16152e-15
5.18165e-15
5.16172e-15
5.18131e-15
5.16128e-15
5.18075e-15
5.16148e-15
5.18042e-15
5.16125e-15
5.18031e-15
5.16124e-15
5.17998e-15
5.16123e-15
5.17966e-15
5.161e-15
5.17957e-15
5.16099e-15
5.17925e-15
5.16144e-15
5.17894e-15
5.16144e-15
5.17886e-15
5.16143e-15
5.17855e-15
5.16072e-15
5.17825e-15
5.16048e-15
5.17794e-15
5.16024e-15
5.17813e-15
5.15999e-15
5.17807e-15
5.15975e-15
5.17777e-15
5.1595e-15
5.17722e-15
5.15976e-15
5.17655e-15
5.15989e-15
5.17663e-15
5.15977e-15
5.17686e-15
5.16004e-15
5.1763e-15
5.16031e-15
5.17574e-15
5.16059e-15
5.17545e-15
5.16128e-15
5.17475e-15
5.16129e-15
5.17377e-15
5.162e-15
5.17306e-15
5.16202e-15
5.17318e-15
5.16218e-15
5.17303e-15
5.16206e-15
5.17273e-15
5.16209e-15
5.17257e-15
5.16226e-15
5.17227e-15
5.16244e-15
5.17167e-15
5.16262e-15
5.17122e-15
5.16235e-15
5.17121e-15
5.16208e-15
5.17106e-15
5.16197e-15
5.17059e-15
5.16201e-15
5.1698e-15
5.16237e-15
5.16916e-15
5.16226e-15
5.16884e-15
5.16198e-15
5.16868e-15
5.16203e-15
5.16803e-15
5.16166e-15
5.16761e-15
5.16163e-15
5.16745e-15
5.16143e-15
5.16703e-15
5.16167e-15