/*--------------------------------*- C++ -*----------------------------------*\
| =========                 |                                                 |
| \\      /  F ield         | OpenFOAM: The Open Source CFD Toolbox           |
|  \\    /   O peration     | Version:  2012                                  |
|   \\  /    A nd           | Website:  www.openfoam.com                      |
|    \\/     M anipulation  |                                                 |
\*---------------------------------------------------------------------------*/
FoamFile
{
    version     2.0;
    format      ascii;
    class       surfaceScalarField;
    location    "2000";
    object      phi;
}
// * * * * * * * * * * * * * * * * * * * * * * * * * * * * * * * * * * * * * //

dimensions      [0 3 -1 0 0 0 0];
oriented        oriented;


internalField   nonuniform List<scalar> 
5116
(
2.17637e-08
-9.2572e-18
-6.0801e-23
-2.27638e-22
3.16645e-23
6.65473e-08
-9.25736e-18
9.63896e-23
-2.34755e-22
6.53535e-23
1.13258e-07
-9.25754e-18
1.04694e-22
-2.28849e-22
6.82415e-23
1.61943e-07
-9.25769e-18
1.0183e-22
-2.58812e-22
7.12542e-23
2.12652e-07
-9.25783e-18
1.00767e-22
-2.80863e-22
7.43971e-23
2.65434e-07
-9.25804e-18
1.01178e-22
-2.81569e-22
7.76751e-23
3.20338e-07
-9.25817e-18
1.01659e-22
-4.18438e-22
8.10938e-23
3.77416e-07
-9.2583e-18
1.01913e-22
-3.1675e-22
8.46594e-23
4.36717e-07
-9.25844e-18
1.02027e-22
-4.36481e-22
8.83756e-23
4.98292e-07
-9.25859e-18
1.02026e-22
-4.06105e-22
9.22516e-23
5.62195e-07
-9.25868e-18
1.01898e-22
-5.57354e-22
9.62909e-23
6.28478e-07
-9.25881e-18
1.01632e-22
-7.5706e-22
1.00503e-22
6.97192e-07
-9.25889e-18
1.01219e-22
-1.10128e-21
1.04894e-22
7.68393e-07
-9.25905e-18
1.00647e-22
-1.04688e-21
1.09476e-22
8.42133e-07
-9.25904e-18
9.991e-23
-1.15788e-21
1.14251e-22
9.18468e-07
-9.25908e-18
9.89931e-23
-1.33376e-21
1.19228e-22
9.97452e-07
-9.25941e-18
9.78915e-23
-1.41058e-21
1.24416e-22
1.07914e-06
-9.25947e-18
9.65914e-23
-1.50217e-21
1.29824e-22
1.16359e-06
-9.25961e-18
9.50789e-23
-1.79026e-21
1.35461e-22
1.25086e-06
-9.25938e-18
9.33515e-23
-2.18981e-21
1.41337e-22
1.341e-06
-9.25907e-18
9.13829e-23
-2.55576e-21
1.4746e-22
1.43407e-06
-9.25916e-18
8.916e-23
-2.58633e-21
1.53839e-22
1.53013e-06
-9.25943e-18
8.66649e-23
-2.89975e-21
1.60483e-22
1.62924e-06
-9.2595e-18
8.389e-23
-3.20253e-21
1.67406e-22
1.73145e-06
-9.25936e-18
8.08096e-23
-3.74697e-21
1.74617e-22
1.83683e-06
-9.25909e-18
7.74058e-23
-4.43126e-21
1.82123e-22
1.94543e-06
-9.25869e-18
7.36594e-23
-4.55482e-21
1.89942e-22
2.05731e-06
-9.25885e-18
6.95534e-23
-5.06987e-21
1.98088e-22
2.17254e-06
-9.25844e-18
6.50636e-23
-5.34686e-21
2.06579e-22
2.29117e-06
-9.25789e-18
6.01744e-23
-5.8385e-21
2.15411e-22
2.41327e-06
-9.25681e-18
5.48647e-23
-6.39187e-21
2.24602e-22
2.53889e-06
-9.25606e-18
4.90932e-23
-7.33671e-21
2.34169e-22
2.6681e-06
-9.25546e-18
4.28567e-23
-8.64995e-21
2.44126e-22
2.80096e-06
-9.25542e-18
3.61212e-23
-8.7634e-21
2.54518e-22
2.93752e-06
-9.25544e-18
2.89007e-23
-9.28665e-21
2.65319e-22
3.07786e-06
-9.2543e-18
2.11409e-23
-1.02666e-20
2.76549e-22
3.22204e-06
-9.25375e-18
1.27916e-23
-1.10061e-20
2.88255e-22
3.37011e-06
-9.25302e-18
3.85219e-24
-1.20052e-20
3.00431e-22
3.52213e-06
-9.25183e-18
-5.69529e-24
-1.3004e-20
3.13098e-22
3.67818e-06
-9.25053e-18
-1.58909e-23
-1.48683e-20
3.26245e-22
3.83831e-06
-9.24963e-18
-2.67533e-23
-1.50004e-20
3.3989e-22
4.00259e-06
-9.24795e-18
-3.82845e-23
-1.64879e-20
3.5401e-22
4.17107e-06
-9.24796e-18
-5.05945e-23
-1.67067e-20
3.68678e-22
4.34382e-06
-9.24879e-18
-6.36539e-23
-1.64164e-20
3.83898e-22
4.52091e-06
-9.24731e-18
-7.74747e-23
-1.75049e-20
3.99677e-22
4.70238e-06
-9.24699e-18
-9.21848e-23
-1.81468e-20
4.16111e-22
4.88832e-06
-9.2467e-18
-1.07802e-22
-1.9192e-20
4.33155e-22
5.07877e-06
-9.2446e-18
-1.2434e-22
-2.05359e-20
4.50872e-22
5.2738e-06
-9.24268e-18
-1.41899e-22
-2.25833e-20
4.69285e-22
5.47346e-06
-9.2414e-18
-1.60485e-22
-2.47406e-20
4.88381e-22
5.67783e-06
-9.23764e-18
-1.80109e-22
-2.76015e-20
5.0818e-22
5.88696e-06
-9.23559e-18
-2.00867e-22
-2.89222e-20
5.28682e-22
6.10092e-06
-9.23469e-18
-2.22826e-22
-3.04204e-20
5.49857e-22
6.31975e-06
-9.23337e-18
-2.45946e-22
-3.27772e-20
5.71768e-22
6.54353e-06
-9.23168e-18
-2.70297e-22
-3.50384e-20
5.94445e-22
6.7723e-06
-9.2293e-18
-2.95923e-22
-3.77794e-20
6.17884e-22
7.00614e-06
-9.22646e-18
-3.22883e-22
-3.9997e-20
6.42164e-22
7.2451e-06
-9.22447e-18
-3.51265e-22
-4.29669e-20
6.6724e-22
7.48924e-06
-9.22125e-18
-3.81022e-22
-4.62644e-20
6.93124e-22
7.73861e-06
-9.219e-18
-4.12211e-22
-4.86731e-20
7.19766e-22
7.99327e-06
-9.21435e-18
-4.44807e-22
-5.2784e-20
7.47224e-22
8.25329e-06
-9.21271e-18
-4.78952e-22
-5.41946e-20
7.75605e-22
8.51872e-06
-9.2089e-18
-5.14568e-22
-5.88981e-20
8.04637e-22
8.78962e-06
-9.20717e-18
-5.51746e-22
-6.03796e-20
8.34527e-22
9.06604e-06
-9.20259e-18
-5.90612e-22
-6.32995e-20
8.65239e-22
9.34804e-06
-9.20132e-18
-6.31481e-22
-6.43782e-20
8.96897e-22
9.63568e-06
-9.19628e-18
-6.74061e-22
-6.94017e-20
9.29534e-22
9.92901e-06
-9.19113e-18
-7.18902e-22
-7.42854e-20
9.63197e-22
1.02281e-05
-9.18733e-18
-7.65715e-22
-7.83928e-20
9.98015e-22
1.0533e-05
-9.17864e-18
-8.14388e-22
-8.45794e-20
1.03386e-21
1.08437e-05
-9.17333e-18
-8.65291e-22
-8.89268e-20
1.07071e-21
1.11604e-05
-9.17084e-18
-9.18206e-22
-9.33041e-20
1.10831e-21
1.1483e-05
-9.16572e-18
-9.73052e-22
-9.82441e-20
1.14669e-21
1.18117e-05
-9.1615e-18
-1.03007e-21
-1.03538e-19
1.18579e-21
1.21465e-05
-9.15531e-18
-1.08912e-21
-1.09408e-19
1.22571e-21
1.24874e-05
-9.14902e-18
-1.15066e-21
-1.14455e-19
1.26656e-21
1.28345e-05
-9.14202e-18
-1.21488e-21
-1.23565e-19
1.30828e-21
1.31878e-05
-9.13323e-18
-1.28185e-21
-1.31315e-19
1.35111e-21
1.35475e-05
-9.12872e-18
-1.35163e-21
-1.39065e-19
1.39488e-21
1.39135e-05
-9.12206e-18
-1.42371e-21
-1.45169e-19
1.43956e-21
1.4286e-05
-9.11296e-18
-1.49873e-21
-1.51043e-19
1.48495e-21
1.46649e-05
-9.1073e-18
-1.57695e-21
-1.60164e-19
1.53081e-21
1.50504e-05
-9.09845e-18
-1.65806e-21
-1.69894e-19
1.57731e-21
1.54425e-05
-9.09172e-18
-1.7424e-21
-1.7656e-19
1.62484e-21
1.58412e-05
-9.0854e-18
-1.83037e-21
-1.81415e-19
1.67345e-21
1.62466e-05
-9.07628e-18
-1.92132e-21
-1.88915e-19
1.72289e-21
1.66588e-05
-9.05961e-18
-2.01603e-21
-1.9885e-19
1.77321e-21
1.70779e-05
-9.04888e-18
-2.11502e-21
-2.11356e-19
1.82456e-21
1.75038e-05
-9.03764e-18
-2.2175e-21
-2.20752e-19
1.87723e-21
1.79367e-05
-9.02065e-18
-2.32347e-21
-2.32183e-19
1.93078e-21
1.83766e-05
-9.00787e-18
-2.43395e-21
-2.48638e-19
1.98486e-21
1.88236e-05
-8.98882e-18
-2.5479e-21
-2.59944e-19
2.04015e-21
1.92777e-05
-8.97772e-18
-2.66637e-21
-2.66796e-19
2.09602e-21
1.97391e-05
-8.97051e-18
-2.78828e-21
-2.74536e-19
2.15194e-21
2.02077e-05
-8.95844e-18
-2.91358e-21
-2.85866e-19
2.20731e-21
2.06836e-05
-8.94478e-18
-3.04331e-21
-2.99406e-19
2.26284e-21
2.11669e-05
-8.92979e-18
-3.17757e-21
-3.15674e-19
2.31984e-21
2.16578e-05
-8.91231e-18
-3.31652e-21
-3.31298e-19
2.37837e-21
2.21561e-05
-8.89525e-18
-3.45964e-21
-3.44418e-19
2.43732e-21
2.26621e-05
-8.87654e-18
-3.60785e-21
-3.63236e-19
2.49564e-21
2.31757e-05
-8.85998e-18
-3.7605e-21
-3.74504e-19
2.55393e-21
2.36971e-05
-8.83868e-18
-3.91563e-21
-3.94877e-19
2.61138e-21
2.42263e-05
-8.82274e-18
-4.07547e-21
-4.07095e-19
2.66882e-21
2.47635e-05
-8.80403e-18
-4.23863e-21
-4.2194e-19
2.72497e-21
2.53086e-05
-8.78215e-18
-4.40629e-21
-4.43552e-19
2.77971e-21
2.58617e-05
-8.76248e-18
-4.57984e-21
-4.63589e-19
2.83416e-21
2.6423e-05
-8.74223e-18
-4.7584e-21
-4.83829e-19
2.89015e-21
2.69925e-05
-8.72412e-18
-4.94272e-21
-5.0342e-19
2.94586e-21
2.75703e-05
-8.70072e-18
-5.13164e-21
-5.21644e-19
3.00097e-21
2.81564e-05
-8.67989e-18
-5.32597e-21
-5.43082e-19
3.05408e-21
2.87511e-05
-8.65302e-18
-5.52394e-21
-5.66813e-19
3.10504e-21
2.93542e-05
-8.62481e-18
-5.7258e-21
-5.90971e-19
3.15448e-21
2.9966e-05
-8.60026e-18
-5.93283e-21
-6.18977e-19
3.20189e-21
3.05866e-05
-8.57586e-18
-6.14508e-21
-6.36399e-19
3.24813e-21
3.12159e-05
-8.54095e-18
-6.36113e-21
-6.61039e-19
3.2905e-21
3.18541e-05
-8.49587e-18
-6.58474e-21
-6.90023e-19
3.33188e-21
3.25013e-05
-8.46829e-18
-6.81559e-21
-7.10066e-19
3.37181e-21
3.31576e-05
-8.43292e-18
-7.04896e-21
-7.32656e-19
3.40744e-21
3.38231e-05
-8.40963e-18
-7.28745e-21
-7.50207e-19
3.43953e-21
3.44979e-05
-8.3866e-18
-7.52704e-21
-7.71715e-19
3.4663e-21
3.5182e-05
-8.34529e-18
-7.7687e-21
-7.97334e-19
3.48994e-21
3.58757e-05
-8.31627e-18
-8.01804e-21
-8.26036e-19
3.51149e-21
3.65789e-05
-8.2822e-18
-8.2692e-21
-8.55797e-19
3.52976e-21
3.72918e-05
-8.24036e-18
-8.52552e-21
-8.9093e-19
3.54269e-21
3.80145e-05
-8.20106e-18
-8.79139e-21
-9.22848e-19
3.55754e-21
3.8747e-05
-8.15532e-18
-9.06606e-21
-9.56823e-19
3.57244e-21
3.94896e-05
-8.11199e-18
-9.35041e-21
-9.97442e-19
3.58702e-21
4.02423e-05
-8.07795e-18
-9.64451e-21
-1.01958e-18
3.60174e-21
4.10053e-05
-8.032e-18
-9.9429e-21
-1.04753e-18
3.6107e-21
4.17785e-05
-7.99084e-18
-1.02491e-20
-1.08285e-18
3.61717e-21
4.25623e-05
-7.94159e-18
-1.05611e-20
-1.11685e-18
3.62148e-21
4.33566e-05
-7.9047e-18
-1.08818e-20
-1.15185e-18
3.62224e-21
4.41616e-05
-7.86287e-18
-1.12043e-20
-1.18014e-18
3.61765e-21
4.49774e-05
-7.8069e-18
-1.15305e-20
-1.22141e-18
3.60434e-21
4.58041e-05
-7.7531e-18
-1.18691e-20
-1.25747e-18
3.58869e-21
4.66419e-05
-7.70778e-18
-1.22178e-20
-1.30611e-18
3.56552e-21
4.74909e-05
-7.66291e-18
-1.25726e-20
-1.33823e-18
3.53656e-21
4.83512e-05
-7.63495e-18
-1.29271e-20
-1.36614e-18
3.49542e-21
4.92229e-05
-7.58168e-18
-1.32775e-20
-1.39926e-18
3.44231e-21
5.01062e-05
-7.52458e-18
-1.36301e-20
-1.43933e-18
3.37779e-21
5.10012e-05
-7.46739e-18
-1.39913e-20
-1.47906e-18
3.30286e-21
5.1908e-05
-7.41623e-18
-1.43561e-20
-1.51797e-18
3.21972e-21
5.28267e-05
-7.35504e-18
-1.4723e-20
-1.56523e-18
3.1264e-21
5.37575e-05
-7.30133e-18
-1.50932e-20
-1.6061e-18
3.02319e-21
5.47006e-05
-7.2412e-18
-1.54636e-20
-1.65089e-18
2.91444e-21
5.56561e-05
-7.19316e-18
-1.58343e-20
-1.68846e-18
2.79536e-21
5.6624e-05
-7.13909e-18
-1.62024e-20
-1.73044e-18
2.66476e-21
5.76046e-05
-7.07566e-18
-1.65693e-20
-1.77001e-18
2.52095e-21
5.8598e-05
-7.01978e-18
-1.6941e-20
-1.81184e-18
2.36082e-21
5.96043e-05
-6.96133e-18
-1.73167e-20
-1.85211e-18
2.18974e-21
6.06236e-05
-6.90433e-18
-1.76906e-20
-1.89766e-18
2.00037e-21
6.16562e-05
-6.88187e-18
-1.80559e-20
-1.92515e-18
1.79337e-21
6.27021e-05
-6.82799e-18
-1.83957e-20
-1.96533e-18
1.55808e-21
6.37616e-05
-6.75138e-18
-1.87291e-20
-2.00079e-18
1.29897e-21
6.48347e-05
-6.69461e-18
-1.90731e-20
-2.04209e-18
1.03478e-21
6.59216e-05
-6.64019e-18
-1.94227e-20
-2.08755e-18
7.52653e-22
6.70224e-05
-6.57839e-18
-1.97783e-20
-2.1339e-18
4.4843e-22
6.81374e-05
-6.52256e-18
-2.01278e-20
-2.17521e-18
1.43953e-22
6.92666e-05
-6.43559e-18
-2.0476e-20
-2.21235e-18
-1.71044e-22
7.04102e-05
-6.35335e-18
-2.0844e-20
-2.25899e-18
-5.1382e-22
7.15683e-05
-6.28322e-18
-2.12234e-20
-2.30102e-18
-8.69045e-22
7.27412e-05
-6.20603e-18
-2.16069e-20
-2.34567e-18
-1.23844e-21
7.39289e-05
-6.15027e-18
-2.20117e-20
-2.38372e-18
-1.61782e-21
7.51316e-05
-6.07247e-18
-2.23832e-20
-2.42549e-18
-2.02639e-21
7.63495e-05
-6.00869e-18
-2.27698e-20
-2.4775e-18
-2.45076e-21
7.75827e-05
-5.946e-18
-2.31501e-20
-2.51933e-18
-2.88652e-21
7.88314e-05
-5.87301e-18
-2.35122e-20
-2.55214e-18
-3.3314e-21
8.00956e-05
-5.78921e-18
-2.38626e-20
-2.5872e-18
-3.79424e-21
8.13757e-05
-5.72751e-18
-2.42303e-20
-2.64658e-18
-4.26754e-21
8.26717e-05
-5.67126e-18
-2.45762e-20
-2.67635e-18
-4.72784e-21
8.39838e-05
-5.60503e-18
-2.49085e-20
-2.7189e-18
-5.20739e-21
8.53121e-05
-5.53843e-18
-2.52349e-20
-2.75791e-18
-5.68383e-21
8.66568e-05
-5.46421e-18
-2.55577e-20
-2.79912e-18
-6.1777e-21
8.80181e-05
-5.41019e-18
-2.58841e-20
-2.82368e-18
-6.68861e-21
8.93961e-05
-5.34807e-18
-2.61758e-20
-2.86239e-18
-7.25227e-21
9.0791e-05
-5.28991e-18
-2.64605e-20
-2.8888e-18
-7.83417e-21
9.2203e-05
-5.23177e-18
-2.6731e-20
-2.90279e-18
-8.41569e-21
9.36322e-05
-5.16404e-18
-2.69809e-20
-2.93333e-18
-9.02113e-21
9.50788e-05
-5.10486e-18
-2.72246e-20
-2.95417e-18
-9.58485e-21
9.6543e-05
-5.03911e-18
-2.7452e-20
-2.96841e-18
-1.01172e-20
9.8025e-05
-4.97856e-18
-2.76542e-20
-2.99707e-18
-1.06461e-20
9.95249e-05
-4.92455e-18
-2.78236e-20
-2.98542e-18
-1.11166e-20
0.000101043
-4.84934e-18
-2.79452e-20
-3.04025e-18
-1.16107e-20
0.00010258
-4.77028e-18
-2.80072e-20
-3.05118e-18
-1.20169e-20
0.000104135
-4.70187e-18
-2.80036e-20
-3.0675e-18
-1.24503e-20
0.000105709
-4.64521e-18
-2.79706e-20
-3.08147e-18
-1.29089e-20
0.000107302
-4.57536e-18
-2.78781e-20
-3.10994e-18
-1.33327e-20
0.000108915
-4.52337e-18
-2.78154e-20
-3.13035e-18
-1.37082e-20
0.000110548
-4.42434e-18
-2.76587e-20
-3.1781e-18
-1.40694e-20
0.0001122
-4.36917e-18
-2.75303e-20
-3.19769e-18
-1.43359e-20
0.000113873
-4.31354e-18
-2.73434e-20
-3.19978e-18
-1.45793e-20
0.000115568
-4.2682e-18
-2.71094e-20
-3.21465e-18
-1.48037e-20
0.000117283
-4.23198e-18
-2.68156e-20
-3.21715e-18
-1.49797e-20
0.00011902
-4.15654e-18
-2.64899e-20
-3.23707e-18
-1.50763e-20
0.00012078
-4.13137e-18
-2.61694e-20
-3.22455e-18
-1.50872e-20
0.000122562
-4.06981e-18
-2.57617e-20
-3.27198e-18
-1.50866e-20
0.000124367
-3.9847e-18
-2.52914e-20
-3.28745e-18
-1.4913e-20
0.000126196
-3.94472e-18
-2.48123e-20
-3.31824e-18
-1.4694e-20
0.00012805
-3.90501e-18
-2.42944e-20
-3.3038e-18
-1.43443e-20
0.000129928
-3.85712e-18
-2.38307e-20
-3.31834e-18
-1.40427e-20
0.000131832
-3.82762e-18
-2.33639e-20
-3.30561e-18
-1.36808e-20
0.000133762
-3.83499e-18
-2.28026e-20
-3.25762e-18
-1.33693e-20
0.000135718
-3.82123e-18
-2.21681e-20
-3.25132e-18
-1.30915e-20
0.000137702
-3.85452e-18
-2.15597e-20
-3.18843e-18
-1.27909e-20
0.000139714
-3.87137e-18
-2.07145e-20
-3.16881e-18
-1.27022e-20
0.000141753
-3.80909e-18
-1.97508e-20
-3.1845e-18
-1.26424e-20
0.000143822
-3.82763e-18
-1.89368e-20
-3.1129e-18
-1.24594e-20
0.00014592
-3.80101e-18
-1.79841e-20
-3.05077e-18
-1.24157e-20
0.000148049
-3.83055e-18
-1.71834e-20
-3.00005e-18
-1.2299e-20
0.000150208
-3.77421e-18
-1.62176e-20
-3.0258e-18
-1.23341e-20
0.000152398
-3.70597e-18
-1.53435e-20
-3.04717e-18
-1.22409e-20
0.00015462
-3.66203e-18
-1.46024e-20
-3.03736e-18
-1.21863e-20
0.000156874
-3.6048e-18
-1.39077e-20
-3.05608e-18
-1.21575e-20
0.000159161
-3.59258e-18
-1.33746e-20
-3.06175e-18
-1.19638e-20
0.000161482
-3.55435e-18
-1.27673e-20
-3.07402e-18
-1.18459e-20
0.000163837
-3.52596e-18
-1.20842e-20
-3.06505e-18
-1.18099e-20
0.000166226
-3.5054e-18
-1.14234e-20
-3.07291e-18
-1.17847e-20
0.000168651
-3.46387e-18
-1.08779e-20
-3.09715e-18
-1.19156e-20
0.000171111
-3.45274e-18
-1.05484e-20
-3.09556e-18
-1.19881e-20
0.000173608
-3.41835e-18
-1.02017e-20
-3.07704e-18
-1.20294e-20
0.000176142
-3.40854e-18
-9.91824e-21
-3.14193e-18
-1.22194e-20
0.000178713
-3.40823e-18
-9.52188e-21
-3.1482e-18
-1.21376e-20
0.000181322
-3.37555e-18
-9.16077e-21
-3.13439e-18
-1.19221e-20
0.00018397
-3.37879e-18
-9.02546e-21
-3.13364e-18
-1.17598e-20
0.000186657
-3.39797e-18
-8.838e-21
-3.10056e-18
-1.17497e-20
0.000189384
-3.3394e-18
-8.45812e-21
-3.14323e-18
-1.20484e-20
0.000192152
-3.26257e-18
-8.25821e-21
-3.19152e-18
-1.21358e-20
0.000194961
-3.28163e-18
-8.58566e-21
-3.25469e-18
-1.20353e-20
0.000197811
-3.25987e-18
-8.7837e-21
-3.18095e-18
-1.15831e-20
0.000200705
-3.25423e-18
-9.08836e-21
-3.19424e-18
-1.15762e-20
0.000203641
-3.26544e-18
-9.34198e-21
-3.19604e-18
-1.13157e-20
0.000206621
-3.26713e-18
-9.49845e-21
-3.19423e-18
-1.1041e-20
0.000209646
-3.24187e-18
-9.43209e-21
-3.21246e-18
-1.10123e-20
0.000212715
-3.24607e-18
-9.40727e-21
-3.20786e-18
-1.07193e-20
0.000215831
-3.24395e-18
-9.33351e-21
-3.21198e-18
-1.01758e-20
0.000218993
-3.22385e-18
-9.27213e-21
-3.13804e-18
-9.48881e-21
0.000222202
-3.22768e-18
-9.29282e-21
-3.13755e-18
-9.15906e-21
0.000225459
-3.21746e-18
-8.79599e-21
-3.09741e-18
-9.26105e-21
0.000228765
-3.21819e-18
-8.44401e-21
-3.08981e-18
-9.76769e-21
0.000232121
-3.18012e-18
-7.77927e-21
-3.15919e-18
-1.00827e-20
0.000235527
-3.12576e-18
-7.21125e-21
-3.20235e-18
-9.9611e-21
0.000238983
-3.1198e-18
-6.9407e-21
-3.20391e-18
-9.66129e-21
0.000242492
-3.11912e-18
-6.37471e-21
-3.20513e-18
-9.28647e-21
0.000246053
-3.07544e-18
-6.10446e-21
-3.15873e-18
-8.90225e-21
0.000249667
-3.0319e-18
-6.40632e-21
-3.09536e-18
-8.21302e-21
0.000253336
-3.00919e-18
-7.2417e-21
-3.08434e-18
-7.74908e-21
0.00025706
-2.97663e-18
-7.76074e-21
-3.02054e-18
-7.43533e-21
0.000260839
-2.90736e-18
-8.47473e-21
-2.94912e-18
-7.76603e-21
0.000264676
-2.87157e-18
-9.01438e-21
-2.87783e-18
-8.67328e-21
0.00026857
-2.91447e-18
-9.1902e-21
-2.81259e-18
-9.63037e-21
0.000272522
-2.83482e-18
-8.03631e-21
-2.8303e-18
-1.06799e-20
0.000276534
-2.76582e-18
-7.77973e-21
-2.75458e-18
-1.0255e-20
0.000280606
-2.72659e-18
-7.24839e-21
-2.77538e-18
-1.03139e-20
0.000284739
-2.67135e-18
-6.99718e-21
-2.68718e-18
-8.96059e-21
0.000288935
-2.67169e-18
-7.34796e-21
-2.6221e-18
-8.64959e-21
0.000293193
-2.65861e-18
-7.02128e-21
-2.58886e-18
-9.08478e-21
0.000297516
-2.5906e-18
-6.8122e-21
-2.54623e-18
-8.59622e-21
0.000301903
-2.47319e-18
-7.7153e-21
-2.62109e-18
-8.44782e-21
0.000306357
-2.42605e-18
-8.16673e-21
-2.56773e-18
-6.60931e-21
0.000310877
-2.42461e-18
-8.68924e-21
-2.55081e-18
-5.86241e-21
0.000315466
-2.36722e-18
-9.01203e-21
-2.50892e-18
-5.16648e-21
0.000320124
-2.40491e-18
-8.56431e-21
-2.40856e-18
-4.38911e-21
0.000324851
-2.37163e-18
-7.10169e-21
-2.36206e-18
-4.71169e-21
0.00032965
-2.39018e-18
-6.05174e-21
-2.30243e-18
-5.6688e-21
0.000334522
-2.35061e-18
-4.88251e-21
-2.28835e-18
-6.30382e-21
0.000339466
-2.26033e-18
-2.90762e-21
-2.24924e-18
-6.67321e-21
0.000344485
-2.23386e-18
-2.06385e-21
-2.1776e-18
-7.34183e-21
0.00034958
-2.17814e-18
-1.04988e-21
-2.1723e-18
-7.70966e-21
0.000354751
-2.16022e-18
3.07647e-23
-2.07682e-18
-8.02392e-21
0.00036
-2.12748e-18
4.23048e-22
-2.09533e-18
-8.66842e-21
0.000365328
-2.12443e-18
-2.09279e-22
-2.0359e-18
-7.97351e-21
0.000370736
-2.0837e-18
-1.8141e-21
-2.0299e-18
-8.57516e-21
0.000376226
-2.08571e-18
-3.30228e-21
-1.97706e-18
-7.99898e-21
0.000381798
-1.93094e-18
-4.09536e-21
-2.05078e-18
-7.22501e-21
0.000387454
-1.90907e-18
-6.22033e-21
-1.96424e-18
-5.26045e-21
0.000393195
-1.88161e-18
-7.15215e-21
-1.84267e-18
-4.65065e-21
0.000399022
-1.82308e-18
-8.34404e-21
-1.832e-18
-5.94447e-21
0.000404936
-1.803e-18
-1.00071e-20
-1.79792e-18
-6.68138e-21
0.00041094
-1.78897e-18
-1.20371e-20
-1.76955e-18
-6.79749e-21
0.000417033
-1.74372e-18
-1.2808e-20
-1.86875e-18
-5.85184e-21
0.000423218
-1.77659e-18
-1.5731e-20
-1.76872e-18
-1.97535e-21
0.000429495
-1.72037e-18
-1.39479e-20
-1.81346e-18
-3.57256e-21
0.000435866
-1.7778e-18
-1.23484e-20
-1.70078e-18
-5.1909e-21
0.000442333
-1.69582e-18
-1.13122e-20
-1.69856e-18
-6.47201e-21
0.000448896
-1.67468e-18
-1.23497e-20
-1.65705e-18
-3.78519e-21
0.000455558
-1.64857e-18
-1.11778e-20
-1.62957e-18
-2.15453e-21
0.000462318
-1.60571e-18
-9.29634e-21
-1.72416e-18
-6.47341e-21
0.000469179
-1.69982e-18
-1.09874e-20
-1.65792e-18
-9.146e-21
0.000476143
-1.59853e-18
-7.88895e-21
-1.67429e-18
-1.02559e-20
0.000483209
-1.64696e-18
-8.22753e-21
-1.63444e-18
-1.23248e-20
0.000490381
-1.71182e-18
-8.29054e-21
-1.55394e-18
-1.57184e-20
0.000497659
-1.6119e-18
-8.41543e-21
-1.50928e-18
-1.82179e-20
0.000505044
-1.51472e-18
-1.01078e-20
-1.43307e-18
-2.17781e-20
0.000512539
-1.44608e-18
-1.30741e-20
-1.4665e-18
-2.43416e-20
0.000520143
-1.43041e-18
-1.63785e-20
-1.46156e-18
-2.2876e-20
0.00052786
-1.40427e-18
-1.66174e-20
-1.49592e-18
-2.05677e-20
0.00053569
-1.2683e-18
-1.60761e-20
-1.33048e-18
-1.87971e-20
0.000543634
-1.20088e-18
-2.10267e-20
-1.29374e-18
-1.73556e-20
0.000551694
-1.31402e-18
-2.25911e-20
-1.1899e-18
-9.58612e-21
0.000559871
-1.17585e-18
-1.73574e-20
-1.1756e-18
-1.01732e-20
0.000568167
-1.1702e-18
-1.94066e-20
-1.15918e-18
-9.49865e-21
0.000576583
-1.18781e-18
-1.90844e-20
-1.13619e-18
-5.80712e-22
0.000585121
-1.11399e-18
-1.58867e-20
-1.08549e-18
5.21543e-21
0.00059378
-1.11432e-18
-1.98273e-20
-1.14177e-18
2.12217e-21
0.000602564
-1.24891e-18
-2.62153e-20
-1.18311e-18
1.4409e-21
0.000611473
-1.28116e-18
-2.20063e-20
-1.0934e-18
-2.83757e-22
0.000620507
-1.16028e-18
-2.00314e-20
-1.13724e-18
-4.0377e-21
0.00062967
-1.11287e-18
-1.31481e-20
-1.06169e-18
-1.11428e-20
0.000638961
-1.06423e-18
-1.22799e-20
-1.1057e-18
-1.71907e-20
0.000648381
-1.10409e-18
-2.00266e-21
-1.06727e-18
-1.75327e-20
0.000657932
-9.73143e-19
-5.20071e-22
-1.05634e-18
-1.30171e-20
0.000667615
-1.11732e-18
-8.928e-21
-1.06723e-18
-1.15828e-20
0.000677431
-1.08272e-18
-1.19296e-22
-1.03867e-18
-7.51691e-21
0.00068738
-9.63916e-19
3.41478e-21
-1.04941e-18
-4.50829e-21
0.000697464
-9.19982e-19
5.67997e-21
-1.00607e-18
-2.31184e-21
0.000707683
-8.81992e-19
9.33115e-21
-9.75289e-19
-6.38656e-21
0.000718037
-8.37283e-19
8.71617e-21
-9.57679e-19
9.24199e-22
0.000728528
-8.08189e-19
7.22716e-21
-7.11146e-19
7.63509e-21
0.000739157
-8.04579e-19
1.02837e-20
-7.54317e-19
-1.31376e-20
0.000749923
1.09607e-20
-8.7573e-19
-2.03962e-20
-8.13049e-19
2.17637e-08
-5.38739e-23
2.52296e-23
6.65473e-08
4.07441e-23
8.35633e-23
1.13258e-07
1.46971e-22
1.56975e-22
1.61943e-07
2.36622e-22
2.45376e-22
2.12652e-07
3.38917e-22
2.98726e-22
2.65434e-07
4.47543e-22
3.6686e-22
3.20338e-07
6.14895e-22
3.57893e-22
3.77416e-07
8.12618e-22
3.75993e-22
4.36717e-07
9.6373e-22
4.37769e-22
4.98292e-07
1.11953e-21
4.39779e-22
5.62195e-07
1.3362e-21
4.86148e-22
6.28478e-07
1.43609e-21
5.49875e-22
6.97192e-07
1.52883e-21
7.30878e-22
7.68393e-07
1.72084e-21
8.27441e-22
8.42133e-07
1.80906e-21
9.03558e-22
9.18468e-07
2.37036e-21
9.22513e-22
9.97452e-07
2.52447e-21
1.0435e-21
1.07914e-06
2.75924e-21
1.09375e-21
1.16359e-06
3.53393e-21
1.18613e-21
1.25086e-06
3.78873e-21
1.15714e-21
1.341e-06
4.28599e-21
1.24753e-21
1.43407e-06
4.3203e-21
1.46519e-21
1.53013e-06
4.72676e-21
1.5659e-21
1.62924e-06
4.71421e-21
1.67012e-21
1.73145e-06
4.88124e-21
1.52949e-21
1.83683e-06
5.11925e-21
1.45035e-21
1.94543e-06
5.58835e-21
1.52643e-21
2.05731e-06
5.33195e-21
1.62005e-21
2.17254e-06
5.72663e-21
1.16065e-21
2.29117e-06
6.0185e-21
8.76613e-22
2.41327e-06
5.83006e-21
1.39242e-21
2.53889e-06
6.27146e-21
1.57925e-21
2.6681e-06
6.23503e-21
2.13931e-21
2.80096e-06
7.66186e-21
1.75949e-21
2.93752e-06
7.91926e-21
1.91241e-21
3.07786e-06
8.26305e-21
3.21882e-21
3.22204e-06
8.54912e-21
3.49743e-21
3.37011e-06
8.82354e-21
3.65179e-21
3.52213e-06
8.82172e-21
3.56468e-21
3.67818e-06
9.18416e-21
3.84139e-21
3.83831e-06
1.03608e-20
3.72624e-21
4.00259e-06
9.58582e-21
3.48122e-21
4.17107e-06
9.431e-21
4.26788e-21
4.34382e-06
9.83615e-21
4.6258e-21
4.52091e-06
1.02986e-20
5.27721e-21
4.70238e-06
1.02992e-20
4.66437e-21
4.88832e-06
1.06522e-20
5.14953e-21
5.07877e-06
1.09785e-20
5.68157e-21
5.2738e-06
1.17987e-20
5.22435e-21
5.47346e-06
1.19651e-20
5.25766e-21
5.67783e-06
1.27877e-20
4.53159e-21
5.88696e-06
1.15294e-20
4.09907e-21
6.10092e-06
1.16174e-20
4.3952e-21
6.31975e-06
1.16133e-20
5.04025e-21
6.54353e-06
1.21938e-20
5.14278e-21
6.7723e-06
1.23914e-20
5.49052e-21
7.00614e-06
1.14844e-20
6.10461e-21
7.2451e-06
1.19376e-20
6.47211e-21
7.48924e-06
1.30325e-20
5.07252e-21
7.73861e-06
1.4014e-20
6.28985e-21
7.99327e-06
1.49588e-20
8.30835e-21
8.25329e-06
1.49479e-20
8.34736e-21
8.51872e-06
1.62724e-20
8.10235e-21
8.78962e-06
1.54712e-20
8.01147e-21
9.06604e-06
1.38932e-20
8.53207e-21
9.34804e-06
1.532e-20
1.12202e-20
9.63568e-06
1.11763e-20
1.08075e-20
9.92901e-06
1.19612e-20
1.18841e-20
1.02281e-05
1.26691e-20
1.16321e-20
1.0533e-05
1.24483e-20
1.13625e-20
1.08437e-05
1.29784e-20
1.0951e-20
1.11604e-05
1.26583e-20
1.11904e-20
1.1483e-05
1.16795e-20
9.57846e-21
1.18117e-05
1.36174e-20
9.69118e-21
1.21465e-05
1.42352e-20
9.82289e-21
1.24874e-05
1.44957e-20
9.80471e-21
1.28345e-05
1.45226e-20
9.72231e-21
1.31878e-05
1.51147e-20
9.26246e-21
1.35475e-05
1.76673e-20
9.35978e-21
1.39135e-05
1.44338e-20
1.01857e-20
1.4286e-05
1.04396e-20
1.03442e-20
1.46649e-05
8.5251e-21
9.34854e-21
1.50504e-05
8.7246e-21
9.29633e-21
1.54425e-05
4.03719e-21
1.11582e-20
1.58412e-05
6.94464e-21
1.22392e-20
1.62466e-05
5.46511e-21
1.23533e-20
1.66588e-05
5.57522e-21
1.23604e-20
1.70779e-05
7.0946e-21
1.23588e-20
1.75038e-05
9.47705e-21
1.07255e-20
1.79367e-05
7.06745e-21
7.26838e-21
1.83766e-05
8.17208e-21
7.54183e-21
1.88236e-05
5.89802e-21
5.87157e-21
1.92777e-05
5.33393e-21
5.98322e-21
1.97391e-05
2.88346e-21
5.08469e-21
2.02077e-05
-1.33131e-21
5.60062e-21
2.06836e-05
-4.00649e-21
8.78526e-21
2.11669e-05
-5.32331e-21
8.00709e-21
2.16578e-05
1.83488e-22
4.53224e-21
2.21561e-05
-1.54329e-21
3.6111e-21
2.26621e-05
1.55303e-21
1.86056e-21
2.31757e-05
1.28537e-20
1.34026e-21
2.36971e-05
1.4561e-20
-1.6116e-21
2.42263e-05
1.96136e-20
-6.24641e-21
2.47635e-05
2.14321e-20
-1.11782e-20
2.53086e-05
2.09631e-20
-1.45535e-20
2.58617e-05
2.13149e-20
-6.08739e-21
2.6423e-05
1.42383e-20
-1.67786e-21
2.69925e-05
7.65078e-21
4.88672e-21
2.75703e-05
-1.46108e-21
7.83286e-21
2.81564e-05
-7.49946e-21
1.16555e-20
2.87511e-05
-1.16766e-20
1.68812e-20
2.93542e-05
-1.95301e-20
2.11059e-20
2.9966e-05
-2.75635e-20
2.45462e-20
3.05866e-05
-2.57167e-20
2.11148e-20
3.12159e-05
-2.84257e-20
2.37521e-20
3.18541e-05
-2.00666e-20
2.33852e-20
3.25013e-05
-1.15551e-20
2.09161e-20
3.31576e-05
-1.11611e-20
1.58476e-20
3.38231e-05
-1.00704e-20
7.61734e-21
3.44979e-05
-1.05545e-20
4.1754e-21
3.5182e-05
-1.23531e-20
-2.09795e-21
3.58757e-05
-6.06661e-21
-1.12342e-20
3.65789e-05
-7.02712e-21
-2.08694e-20
3.72918e-05
-1.44545e-20
-1.17038e-20
3.80145e-05
-2.0259e-20
-7.14465e-21
3.8747e-05
-2.43935e-20
-9.69519e-22
3.94896e-05
-3.91493e-20
5.24942e-21
4.02423e-05
-5.3154e-20
1.46013e-20
4.10053e-05
-6.742e-20
2.37258e-20
4.17785e-05
-7.92367e-20
2.58681e-20
4.25623e-05
-9.08772e-20
3.11094e-20
4.33566e-05
-9.73681e-20
3.33284e-20
4.41616e-05
-1.0604e-19
3.40959e-20
4.49774e-05
-1.24268e-19
3.75719e-20
4.58041e-05
-1.38107e-19
3.88406e-20
4.66419e-05
-1.49072e-19
3.77705e-20
4.74909e-05
-1.43801e-19
3.49686e-20
4.83512e-05
-1.49347e-19
3.46228e-20
4.92229e-05
-1.47605e-19
3.51244e-20
5.01062e-05
-1.56994e-19
3.03343e-20
5.10012e-05
-1.57982e-19
2.60526e-20
5.1908e-05
-1.63532e-19
2.56834e-20
5.28267e-05
-1.6459e-19
1.73312e-20
5.37575e-05
-1.73876e-19
1.56295e-20
5.47006e-05
-1.80965e-19
9.2165e-21
5.56561e-05
-1.97388e-19
1.44494e-20
5.6624e-05
-2.07144e-19
1.11905e-20
5.76046e-05
-2.11219e-19
2.41999e-22
5.8598e-05
-2.2287e-19
-8.06794e-21
5.96043e-05
-2.27758e-19
-1.71904e-20
6.06236e-05
-2.28185e-19
-2.65146e-20
6.16562e-05
-2.4618e-19
-2.62212e-20
6.27021e-05
-2.68311e-19
-2.27343e-20
6.37616e-05
-2.88053e-19
4.9339e-21
6.48347e-05
-3.11657e-19
5.81864e-21
6.59216e-05
-3.37447e-19
-3.41658e-21
6.70224e-05
-3.41695e-19
6.5899e-21
6.81374e-05
-3.58014e-19
5.12333e-21
6.92666e-05
-3.74981e-19
-2.64063e-21
7.04102e-05
-3.93099e-19
-4.87968e-21
7.15683e-05
-4.14171e-19
-2.138e-20
7.27412e-05
-4.42144e-19
-2.86027e-20
7.39289e-05
-4.22416e-19
-4.09268e-20
7.51316e-05
-4.29015e-19
-4.57839e-20
7.63495e-05
-4.34447e-19
-6.0706e-20
7.75827e-05
-4.35613e-19
-6.87332e-20
7.88314e-05
-4.33958e-19
-7.55087e-20
8.00956e-05
-4.53334e-19
-7.79668e-20
8.13757e-05
-4.58655e-19
-8.46441e-20
8.26717e-05
-4.83159e-19
-9.22705e-20
8.39838e-05
-5.1005e-19
-1.03419e-19
8.53121e-05
-5.32118e-19
-1.29063e-19
8.66568e-05
-5.48495e-19
-1.46404e-19
8.80181e-05
-5.53277e-19
-1.74373e-19
8.93961e-05
-5.65456e-19
-2.05004e-19
9.0791e-05
-5.74231e-19
-2.14056e-19
9.2203e-05
-5.81983e-19
-2.23982e-19
9.36322e-05
-5.93069e-19
-2.31408e-19
9.50788e-05
-6.09404e-19
-2.48648e-19
9.6543e-05
-6.16828e-19
-2.58503e-19
9.8025e-05
-6.28293e-19
-2.46888e-19
9.95249e-05
-6.42523e-19
-2.62094e-19
0.000101043
-6.37465e-19
-2.84153e-19
0.00010258
-6.31259e-19
-3.26807e-19
0.000104135
-6.63431e-19
-3.66612e-19
0.000105709
-6.94185e-19
-3.81284e-19
0.000107302
-7.60195e-19
-4.07035e-19
0.000108915
-7.74527e-19
-4.34711e-19
0.000110548
-8.00855e-19
-4.48232e-19
0.0001122
-8.19947e-19
-4.77462e-19
0.000113873
-8.38508e-19
-4.92596e-19
0.000115568
-8.58992e-19
-5.17902e-19
0.000117283
-9.0314e-19
-5.26514e-19
0.00011902
-9.19781e-19
-5.46541e-19
0.00012078
-9.37474e-19
-5.61485e-19
0.000122562
-9.2302e-19
-5.68189e-19
0.000124367
-9.03582e-19
-5.95663e-19
0.000126196
-9.04383e-19
-6.0007e-19
0.00012805
-9.23072e-19
-6.40187e-19
0.000129928
-9.03172e-19
-6.63624e-19
0.000131832
-8.65208e-19
-6.92176e-19
0.000133762
-8.62963e-19
-6.83737e-19
0.000135718
-8.69186e-19
-7.10293e-19
0.000137702
-8.48546e-19
-7.64941e-19
0.000139714
-8.61316e-19
-7.8878e-19
0.000141753
-8.73213e-19
-8.07153e-19
0.000143822
-8.73978e-19
-8.3614e-19
0.00014592
-9.16979e-19
-7.98373e-19
0.000148049
-9.22012e-19
-8.29396e-19
0.000150208
-9.25621e-19
-8.49985e-19
0.000152398
-9.4171e-19
-8.80078e-19
0.00015462
-9.72134e-19
-8.82502e-19
0.000156874
-1.01869e-18
-8.90817e-19
0.000159161
-1.03043e-18
-9.23574e-19
0.000161482
-1.00374e-18
-9.42384e-19
0.000163837
-1.00959e-18
-9.20344e-19
0.000166226
-1.03667e-18
-9.47793e-19
0.000168651
-1.06281e-18
-9.56097e-19
0.000171111
-1.07087e-18
-9.60879e-19
0.000173608
-1.07568e-18
-9.57008e-19
0.000176142
-1.06048e-18
-9.32814e-19
0.000178713
-1.06703e-18
-9.21242e-19
0.000181322
-1.07201e-18
-9.24379e-19
0.00018397
-1.06013e-18
-9.17909e-19
0.000186657
-1.04413e-18
-9.30001e-19
0.000189384
-1.0228e-18
-9.66304e-19
0.000192152
-1.04229e-18
-9.96518e-19
0.000194961
-1.04493e-18
-9.98058e-19
0.000197811
-1.05279e-18
-1.00885e-18
0.000200705
-1.05014e-18
-1.00107e-18
0.000203641
-1.05435e-18
-1.01571e-18
0.000206621
-1.04385e-18
-1.03981e-18
0.000209646
-1.0538e-18
-9.90001e-19
0.000212715
-1.07764e-18
-9.42448e-19
0.000215831
-1.0998e-18
-9.50639e-19
0.000218993
-1.09809e-18
-9.46104e-19
0.000222202
-1.03483e-18
-1.00041e-18
0.000225459
-1.05991e-18
-1.00778e-18
0.000228765
-1.05045e-18
-1.00988e-18
0.000232121
-1.05106e-18
-1.05568e-18
0.000235527
-1.06474e-18
-1.06959e-18
0.000238983
-1.06369e-18
-1.07873e-18
0.000242492
-1.11677e-18
-1.09933e-18
0.000246053
-1.13654e-18
-1.06082e-18
0.000249667
-1.14875e-18
-1.08881e-18
0.000253336
-1.11781e-18