/*--------------------------------*- C++ -*----------------------------------*\
| =========                 |                                                 |
| \\      /  F ield         | OpenFOAM: The Open Source CFD Toolbox           |
|  \\    /   O peration     | Version:  2012                                  |
|   \\  /    A nd           | Website:  www.openfoam.com                      |
|    \\/     M anipulation  |                                                 |
\*---------------------------------------------------------------------------*/
FoamFile
{
    version     2.0;
    format      ascii;
    class       volTensorField;
    location    "11000";
    object      grad(U);
}
// * * * * * * * * * * * * * * * * * * * * * * * * * * * * * * * * * * * * * //

dimensions      [0 0 -1 0 0 0 0];


internalField   nonuniform List<tensor> 
2560
(
(0 6.81216e-26 2.26772e-20 29.6593 1.93237e-07 1.37373e-06 0.0429361 3.94671e-10 1.83575e-09)
(0 -6.81216e-26 -4.48231e-20 29.6593 3.1711e-07 1.35506e-06 0.0429361 5.03969e-10 1.70333e-09)
(0 0 2.33607e-20 29.6542 5.79524e-07 1.24696e-07 0.129419 1.67071e-09 3.66249e-10)
(0 2.57416e-25 1.25684e-24 29.6542 2.10992e-07 1.22802e-07 0.129419 9.6506e-10 3.60688e-10)
(-5.43745e-18 -1.16338e-25 -3.34981e-25 29.6484 5.02698e-07 6.88553e-08 0.177962 2.2614e-09 4.55107e-10)
(0 -5.29463e-25 0 29.6484 2.62308e-07 6.79574e-08 0.177962 2.12218e-09 4.49969e-10)
(1.7433e-17 3.31729e-25 3.16221e-25 29.6416 3.35974e-07 8.93601e-08 0.180505 1.7981e-09 6.2674e-10)
(0 0 0 29.6416 4.44176e-07 8.85518e-08 0.180505 3.18532e-09 6.22108e-10)
(6.90408e-17 1.02879e-24 1.02879e-24 29.6338 3.04223e-07 1.25764e-07 0.183078 1.93527e-09 9.18307e-10)
(-6.90408e-17 0 0 29.6338 3.68624e-07 1.24999e-07 0.183078 2.59583e-09 9.13557e-10)
(1.09995e-16 5.52601e-25 1.23349e-24 29.6249 3.36673e-07 1.83647e-07 0.185681 2.25762e-09 1.37081e-09)
(3.35548e-16 3.59415e-24 1.71359e-24 29.6249 3.45103e-07 1.8286e-07 0.185681 2.39803e-09 1.36576e-09)
(-5.44626e-17 -6.97782e-25 -1.3372e-25 29.6147 3.65388e-07 2.68962e-07 0.188312 2.35721e-09 2.03039e-09)
(2.1785e-16 2.36659e-24 5.13358e-25 29.6147 3.44962e-07 2.68138e-07 0.188312 2.49302e-09 2.02503e-09)
(-6.71604e-17 -8.86337e-25 -1.86342e-26 29.6031 3.54816e-07 3.88192e-07 0.19097 2.18732e-09 2.9496e-09)
(2.68642e-16 2.91246e-24 5.23745e-26 29.6031 3.33267e-07 3.87341e-07 0.19097 2.65647e-09 2.94405e-09)
(8.00389e-17 1.0147e-24 1.94213e-24 29.5899 3.51477e-07 5.48345e-07 0.193655 2.38254e-09 3.26227e-09)
(0 0 0 29.5899 3.3938e-07 5.47477e-07 0.193655 2.76873e-09 3.21541e-09)
(-1.28466e-16 0 0 29.575 3.4533e-07 7.56931e-07 0.196366 2.16974e-09 3.58145e-09)
(0 0 -1.91429e-24 29.575 3.41661e-07 7.56051e-07 0.196366 2.81322e-09 3.53316e-09)
(-1.06346e-16 -1.37145e-24 0 29.5581 3.25499e-07 1.02204e-06 0.199101 2.1851e-09 4.10745e-09)
(0 0 0 29.5581 3.26447e-07 1.02115e-06 0.199101 2.81681e-09 4.05769e-09)
(1.19779e-16 1.50916e-24 3.71962e-24 29.5392 3.33649e-07 1.35221e-06 0.201859 2.34473e-09 4.92242e-09)
(0 0 0 29.5392 3.36674e-07 1.35131e-06 0.201859 2.80038e-09 4.87114e-09)
(2.46042e-16 0 3.66631e-24 29.5179 3.31799e-07 1.75652e-06 0.204639 2.22345e-09 6.12486e-09)
(-2.46042e-16 0 0 29.5179 3.3589e-07 1.7556e-06 0.204639 2.7757e-09 6.07201e-09)
(-1.47211e-16 -1.87659e-24 1.52491e-20 29.4941 3.10189e-07 1.06051e-06 0.207437 2.10931e-09 3.70403e-09)
(5.88845e-16 6.76497e-24 -8.80211e-25 29.4941 3.15583e-07 8.16942e-07 0.207437 2.744e-09 2.85333e-09)
(-2.3904e-16 0 0 29.4675 2.96254e-07 3.97843e-07 0.210254 2.08962e-09 1.9221e-09)
(2.3904e-16 0 0 29.4675 3.03366e-07 3.35296e-07 0.210254 2.70025e-09 1.8922e-09)
(-1.75411e-16 -2.14692e-24 -3.80928e-25 29.4379 3.1242e-07 2.71109e-07 0.213085 2.40527e-09 1.97686e-09)
(7.01643e-16 8.03391e-24 1.38842e-24 29.4379 3.21249e-07 2.66883e-07 0.213085 2.72377e-09 1.94597e-09)
(0 0 0 29.405 3.03812e-07 4.1817e-07 0.215929 2.02433e-09 2.33216e-09)
(-7.59207e-16 -8.62284e-24 0 29.405 3.14086e-07 4.92808e-07 0.215929 2.95931e-09 2.04983e-09)
(-2.28908e-16 0 0 29.3686 2.41271e-07 1.32819e-06 0.218783 1.54331e-09 2.75078e-13)
(-5.88647e-16 -9.10695e-24 0 29.3686 2.52679e-07 1.40495e-06 0.218783 3.19945e-09 -1.76409e-14)
(2.25627e-16 3.36211e-24 1.34484e-23 29.3282 2.55568e-07 2.23375e-06 0.221645 2.29988e-09 3.11095e-13)
(0 0 0 29.3282 2.6757e-07 2.23375e-06 0.221645 3.44782e-09 -2.36661e-14)
(2.34155e-16 2.75864e-24 0 29.2837 3.12972e-07 2.52739e-06 0.224509 2.46942e-09 2.7281e-13)
(-9.3662e-16 -1.00128e-23 0 29.2837 3.25002e-07 2.52739e-06 0.224509 3.70591e-09 -1.67053e-14)
(0 0 0 29.2347 2.18232e-07 2.84426e-06 0.227375 1.86612e-09 3.116e-13)
(0 0 0 29.2347 2.29812e-07 2.84426e-06 0.227375 3.97372e-09 -1.73597e-14)
(1.67413e-16 -3.04875e-24 0 29.181 1.29896e-07 3.1824e-06 0.230236 2.24758e-09 2.643e-13)
(-4.32129e-16 0 0 29.181 1.40604e-07 3.1824e-06 0.230236 4.25395e-09 -1.1063e-14)
(5.71574e-16 3.31601e-24 3.80816e-23 29.122 2.62787e-07 3.54328e-06 0.233091 3.04797e-09 2.4152e-13)
(-4.25935e-16 0 0 29.122 2.72238e-07 3.54328e-06 0.233091 4.54876e-09 -3.13243e-14)
(-4.1983e-16 0 0 29.0576 2.88895e-07 3.93022e-06 0.235934 3.00088e-09 2.21923e-13)
(-7.6447e-16 -1.17286e-23 0 29.0576 2.96914e-07 3.93022e-06 0.235934 4.8416e-09 -1.57448e-14)
(3.12054e-16 3.32719e-24 0 28.9874 5.78583e-08 4.34063e-06 0.238761 3.43836e-09 3.64677e-13)
(0 0 0 28.9874 6.77349e-08 4.34063e-06 0.238761 5.21176e-09 1.60334e-14)
(-6.56464e-16 -6.46375e-24 0 28.9111 2.41474e-08 4.77064e-06 0.241567 3.90509e-09 2.74011e-13)
(0 7.41026e-24 0 28.9111 8.93355e-22 4.77065e-06 0.241567 5.56865e-09 -2.53009e-14)
(1.43586e-15 9.80049e-24 0 28.8282 2.53972e-07 5.2237e-06 0.244348 4.29419e-09 2.56629e-13)
(2.75686e-15 2.38764e-23 0 28.8282 2.62963e-07 5.22371e-06 0.244348 5.8597e-09 -5.49024e-14)
(0 0 0 28.7384 2.1232e-07 5.70314e-06 0.247098 4.77788e-09 2.6987e-13)
(1.44473e-15 1.26766e-23 0 28.7384 2.17715e-07 5.70314e-06 0.247098 6.25801e-09 2.25732e-14)
(3.77951e-16 3.4203e-24 0 28.6415 -8.07282e-08 6.20311e-06 0.249812 5.22668e-09 3.15993e-13)
(0 0 0 28.6415 -8.3105e-08 6.20309e-06 0.249812 6.64588e-09 4.89785e-14)
(-7.89828e-16 -6.50423e-24 0 28.5371 -8.01246e-08 6.71787e-06 0.252484 5.63027e-09 2.4624e-13)
(-3.15931e-15 2.09243e-20 0 28.5371 7.44697e-25 6.71786e-06 0.252484 7.11454e-09 1.98244e-14)
(-4.12069e-16 -3.23283e-24 0 28.4247 1.6668e-07 7.25101e-06 0.255109 6.0984e-09 2.08641e-13)
(-1.64828e-15 9.47982e-21 0 28.4247 1.02721e-07 7.25104e-06 0.255109 7.54483e-09 -4.41266e-14)
(-7.48078e-16 0 0 28.3042 6.24718e-08 7.80425e-06 0.257682 6.70678e-09 1.80137e-13)
(-9.69578e-16 -1.24589e-23 0 28.3042 7.77471e-08 7.80427e-06 0.257682 7.95114e-09 -6.65627e-14)
(7.37356e-16 0 0 28.1753 -2.58537e-07 8.36817e-06 0.260195 7.26122e-09 2.78477e-13)
(1.05043e-15 1.18889e-23 0 28.1753 -2.63457e-07 8.36814e-06 0.260195 8.4024e-09 -2.56422e-14)
(-4.6466e-16 -2.9207e-24 0 28.0375 -1.56548e-07 8.93611e-06 0.262642 7.63215e-09 4.2847e-13)
(0 0 0 28.0375 -8.47033e-22 8.93609e-06 0.262642 8.96306e-09 6.76711e-14)
(-1.19893e-15 -2.89633e-24 0 27.8907 8.58208e-08 9.512e-06 0.265019 8.1382e-09 4.2766e-13)
(7.16371e-16 3.39058e-21 0 27.8907 5.71737e-08 9.51202e-06 0.265019 9.54321e-09 6.56534e-14)
(-5.00625e-16 -2.92128e-24 0 27.7346 -1.37779e-07 1.00938e-05 0.267318 8.71296e-09 1.10187e-13)
(-2.70861e-15 -1.07256e-23 -8.41742e-23 27.7346 -1.26001e-07 1.00939e-05 0.267318 9.96673e-09 -4.00687e-14)
(5.18867e-16 2.59037e-24 0 27.569 -4.85017e-07 1.06675e-05 0.269534 9.29016e-09 1.33036e-13)
(0 0 0 27.569 -4.77871e-07 1.06675e-05 0.269534 1.0466e-08 -5.14872e-14)
(1.22328e-15 -4.56741e-21 0 27.3936 -2.91028e-07 1.1225e-05 0.271659 9.96393e-09 4.35979e-13)
(-6.86008e-16 0 0 27.3936 -2.55419e-07 1.1225e-05 0.271659 1.10453e-08 1.01709e-13)
(-1.23202e-15 -1.97508e-24 0 27.2083 -4.24291e-08 1.17709e-05 0.273688 1.06755e-08 5.1595e-13)
(0 1.62813e-24 0 27.2083 6.81156e-22 1.17709e-05 0.273688 1.17319e-08 1.27609e-13)
(0 0 0 27.0129 -2.31043e-07 1.23036e-05 0.275615 1.12286e-08 1.07616e-13)
(0 0 0 27.0129 -2.30177e-07 1.23036e-05 0.275615 1.22988e-08 -5.31478e-14)
(-5.93439e-16 -1.52473e-24 0 26.8074 -6.76349e-07 1.28066e-05 0.277434 1.18436e-08 9.31437e-14)
(2.37376e-15 5.27877e-24 0 26.8074 -6.726e-07 1.28066e-05 0.277434 1.28504e-08 -7.66739e-14)
(0 -2.65076e-21 0 26.5915 -4.99675e-07 1.3269e-05 0.279139 1.26355e-08 3.73229e-13)
(2.44981e-15 -5.45131e-21 0 26.5915 -4.95788e-07 1.3269e-05 0.279139 1.35483e-08 1.30931e-13)
(6.31602e-16 5.67142e-25 0 26.3653 -2.26111e-07 1.36967e-05 0.280723 1.34044e-08 4.1761e-13)
(-2.52641e-15 -1.51591e-24 0 26.3653 -2.2432e-07 1.36967e-05 0.280723 1.42832e-08 1.25462e-13)
(6.50879e-16 3.43242e-25 0 26.1288 -4.39683e-07 1.40893e-05 0.282182 1.40998e-08 1.43105e-13)
(0 0 0 26.1288 -4.37706e-07 1.40893e-05 0.282182 1.49387e-08 -1.12302e-13)
(-6.70275e-16 0 0 25.8818 -7.2684e-07 1.44338e-05 0.28351 1.30932e-08 1.59916e-13)
(0 0 0 25.8818 -7.24312e-07 1.44338e-05 0.28351 1.26153e-08 -1.09122e-13)
(6.89782e-16 0 0 25.6246 -5.905e-07 1.47253e-05 0.284703 9e-09 7.82762e-13)
(2.75913e-15 0 0 25.6246 -5.9199e-07 1.47253e-05 0.284703 8.52555e-09 4.26748e-13)
(0 0 2.87259e-22 25.3571 -3.76192e-08 1.49789e-05 0.285755 7.00597e-09 9.37938e-13)
(2.83757e-15 1.80248e-24 0 25.3571 3.24255e-22 1.49788e-05 0.285755 6.49412e-09 5.51366e-13)
(-7.29094e-16 0 0 25.0796 -6.98141e-07 1.51928e-05 0.286661 9.0017e-09 1.62177e-13)
(0 0 0 25.0796 -7.06767e-07 1.51928e-05 0.286661 8.45662e-09 -2.18568e-14)
(-7.4888e-16 0 0 24.792 -1.83852e-06 1.53271e-05 0.287419 -6.84239e-10 -7.14574e-13)
(0 0 0 24.792 -1.83138e-06 1.53271e-05 0.287419 -1.25791e-09 -8.25816e-13)
(1.15378e-15 -1.11165e-20 2.75083e-22 24.4947 2.26551e-07 1.54111e-05 0.288023 -1.33055e-09 -9.4405e-13)
(0 0 0 24.4947 2.13477e-22 1.54112e-05 0.288023 1.65436e-24 -1.00767e-12)
(-1.92591e-15 6.61965e-26 0 24.1879 7.51116e-07 1.55102e-05 0.288472 5.44967e-09 5.57123e-13)
(0 -9.92947e-26 0 24.1879 7.61903e-07 1.55102e-05 0.288472 4.98844e-09 1.82973e-13)
(-1.12095e-15 1.04396e-24 -2.67255e-22 23.8718 -2.4879e-06 1.55574e-05 0.288762 -2.45391e-09 4.02379e-13)
(-3.23456e-15 0 0 23.8718 -2.50023e-06 1.55573e-05 0.288762 -2.94508e-09 1.27767e-13)
(-8.28659e-16 3.19089e-24 -2.63424e-22 23.5468 -1.50085e-07 1.55339e-05 0.28889 -1.34614e-09 -7.96441e-13)
(2.20975e-15 0 0 23.5468 -1.14165e-21 1.55339e-05 0.28889 -3.30872e-24 -1.00172e-12)
(-1.08905e-15 0 0 23.2131 4.95828e-07 1.55173e-05 0.288855 -3.74785e-09 3.88209e-13)
(1.08905e-15 0 0 23.2131 4.89532e-07 1.55173e-05 0.288855 -4.36426e-09 -1.00847e-13)
(-1.94222e-15 1.80192e-24 0 22.8711 -7.80086e-07 1.54827e-05 0.288656 -4.92443e-09 2.637e-12)
(4.54856e-15 -7.69041e-24 0 22.8711 -7.40269e-07 1.54828e-05 0.288656 -4.67308e-09 1.94707e-12)
(1.77772e-15 -5.19599e-24 0 22.5213 7.75005e-08 1.54246e-05 0.28829 -1.24946e-09 1.34319e-12)
(3.55544e-15 3.23261e-38 0 22.5213 4.48561e-22 1.54246e-05 0.28829 -3.16419e-39 1.05112e-12)
(0 0 0 22.164 -1.09132e-06 1.53522e-05 0.287758 -1.6339e-08 -2.30965e-12)
(0 0 0 22.164 -1.08985e-06 1.53521e-05 0.287758 -1.68432e-08 -2.27753e-12)
(-9.29003e-16 -5.90667e-21 0 21.7997 -1.84298e-07 1.52535e-05 0.28706 -1.21491e-09 -1.1136e-12)
(0 1.02856e-37 0 21.7997 -1.4799e-21 1.52535e-05 0.28706 -6.61747e-39 -1.47211e-12)
(-1.89808e-15 0 0 21.429 9.08273e-07 1.51847e-05 0.286197 -2.17096e-08 2.69528e-12)
(3.79616e-15 0 0 21.429 9.0692e-07 1.51847e-05 0.286197 -2.23668e-08 2.09456e-12)
(-9.69043e-16 2.21651e-24 0 21.0522 -1.79681e-07 1.51567e-05 0.285169 -5.21076e-09 7.44138e-13)
(0 0 0 21.0522 -1.66584e-07 1.51568e-05 0.285169 -5.03189e-09 7.32562e-13)
(-9.88995e-16 0 0 20.67 -1.68602e-06 1.51001e-05 0.283979 -2.37893e-08 -1.56378e-12)
(3.95598e-15 0 0 20.67 -1.68501e-06 1.51e-05 0.283979 -2.43525e-08 -1.61838e-12)
(-1.00889e-15 -3.26481e-20 0 20.2828 -1.75115e-07 1.49909e-05 0.282628 -1.22299e-09 1.78325e-12)
(-9.70262e-16 0 -4.62657e-22 20.2828 -1.05568e-21 1.49908e-05 0.282628 0 1.10365e-12)
(-3.01377e-15 6.26269e-24 0 19.8912 1.98029e-06 1.49438e-05 0.281119 -1.40314e-08 -4.84927e-13)
(-3.15848e-15 3.19883e-20 0 19.8912 1.96756e-06 1.49439e-05 0.281119 -1.39412e-08 -1.01927e-12)
(-2.09689e-15 0 0 19.4959 -8.24346e-07 1.49648e-05 0.279456 -1.00716e-08 -3.65352e-12)
(7.44492e-15 0 0 19.4959 -8.18952e-07 1.49648e-05 0.279456 -1.06866e-08 -3.56216e-12)
(-3.20427e-15 1.97658e-23 0 19.0973 -1.59101e-07 1.49189e-05 0.277642 -1.16033e-09 1.23106e-12)
(-5.20149e-15 1.71576e-19 -8.86096e-22 19.0973 1.7009e-21 1.49189e-05 0.277642 6.61744e-24 1.25024e-12)
(-2.00345e-15 3.96065e-24 -8.73396e-22 18.6961 1.02585e-06 1.48582e-05 0.275681 -1.30877e-08 1.89727e-12)
(4.3505e-15 -1.62915e-23 0 18.6961 1.02573e-06 1.48582e-05 0.275681 -1.29617e-08 1.77165e-12)
(1.10705e-15 -2.1766e-24 0 18.2928 4.886e-07 1.4863e-05 0.273578 -1.73042e-08 1.80123e-12)
(0 0 0 18.2928 4.94069e-07 1.4863e-05 0.273578 -1.74285e-08 1.3649e-12)
(0 0 0 17.8881 -1.88461e-07 1.48967e-05 0.271338 -2.96441e-09 2.73412e-12)
(4.50537e-15 -1.74784e-23 0 17.8881 -1.8902e-07 1.48966e-05 0.271338 -3.02146e-09 2.19162e-12)
(0 0 4.18189e-22 17.4825 -1.53906e-06 1.48946e-05 0.268966 -3.50734e-08 -1.06658e-12)
(4.58199e-15 0 0 17.4825 -1.53449e-06 1.48946e-05 0.268966 -3.57759e-08 -1.29283e-12)
(-3.45774e-15 -1.41265e-20 -4.12195e-22 17.0767 1.24972e-07 1.48766e-05 0.266469 -9.79646e-10 -3.31886e-12)
(4.65803e-15 -5.87747e-39 -4.12195e-22 17.0767 6.70027e-39 1.48766e-05 0.266469 5.58356e-39 -3.16511e-12)
(0 0 0 16.6712 4.31561e-07 1.49029e-05 0.263852 -2.58673e-08 -1.37741e-12)
(0 0 0 16.6712 4.33087e-07 1.49028e-05 0.263852 -2.65002e-08 -1.528e-12)
(-2.4041e-15 1.36529e-23 0 16.2666 -1.15776e-07 1.49248e-05 0.261121 -9.34145e-10 1.08863e-12)
(0 0 0 16.2666 -9.59963e-22 1.49247e-05 0.261121 0 6.60708e-13)
(0 0 0 15.8635 5.32245e-07 1.49439e-05 0.258285 -1.96485e-08 2.64711e-12)
(4.88224e-15 -1.17838e-23 0 15.8635 5.3186e-07 1.4944e-05 0.258285 -1.9493e-08 1.82728e-12)
(0 0 0 15.4624 -1.22196e-07 1.49853e-05 0.25535 -1.67432e-09 1.44052e-12)
(3.3237e-15 -2.22054e-23 0 15.4624 -1.14044e-07 1.49853e-05 0.25535 -1.54878e-09 8.43436e-13)
(-1.25703e-15 1.99975e-24 0 15.0638 -8.44333e-07 1.50007e-05 0.252322 -2.69646e-08 -1.71009e-12)
(0 0 0 15.0638 -8.43806e-07 1.50007e-05 0.252322 -2.70741e-08 -1.4132e-12)
(1.27497e-15 -1.43094e-21 0 14.6684 -1.08619e-07 1.49864e-05 0.249209 -9.28496e-10 -1.24879e-12)
(-1.58542e-15 1.02348e-20 0 14.6684 0 1.49864e-05 0.249209 -6.61744e-24 -1.18208e-12)
(0 0 0 14.2764 5.21794e-07 1.49874e-05 0.246019 -2.21058e-08 9.57176e-13)
(0 0 0 14.2764 5.23767e-07 1.49875e-05 0.246019 -2.20395e-08 3.32621e-13)
(1.5403e-15 0 0 13.8886 -2.47445e-07 1.49992e-05 0.24276 -4.51651e-09 1.25934e-12)
(-1.5403e-15 0 0 13.8886 -2.44634e-07 1.49992e-05 0.24276 -4.55495e-09 6.78147e-13)
(-1.13684e-15 -4.49513e-22 7.23946e-22 13.5053 -1.0049e-07 1.49973e-05 0.23944 -8.97029e-10 1.84586e-12)
(0 6.96547e-21 0 13.5053 -2.19188e-08 1.49973e-05 0.23944 -1.9566e-10 1.18621e-12)
(-1.34462e-15 2.22948e-24 0 13.127 -8.34146e-07 1.49583e-05 0.236066 -3.03607e-08 4.81886e-13)
(0 0 0 13.127 -8.32199e-07 1.49583e-05 0.236066 -3.01675e-08 1.9258e-13)
(1.36147e-15 -2.62564e-20 0 12.754 8.97074e-08 1.49096e-05 0.232646 -8.24236e-10 -2.66332e-12)
(-5.44588e-15 3.44527e-23 0 12.754 1.23105e-22 1.49096e-05 0.232646 -1.32349e-23 -2.58247e-12)
(2.90775e-15 0 0 12.3868 -1.81907e-07 1.48739e-05 0.22919 -3.31988e-08 -2.10025e-12)
(-5.51238e-15 0 0 12.3868 -1.80693e-07 1.48739e-05 0.22919 -3.39733e-08 -2.0738e-12)
(-2.82752e-15 -1.42703e-20 0 12.0257 -8.26318e-08 1.47845e-05 0.225703 -7.81466e-10 1.86733e-12)
(1.11558e-14 0 -1.36665e-21 12.0257 0 1.47845e-05 0.225703 -1.32349e-23 1.35887e-12)
(1.41063e-15 -3.88483e-24 0 11.6711 1.26256e-06 1.46952e-05 0.222194 -2.39e-08 7.03394e-13)
(5.64252e-15 -1.60905e-23 0 11.6711 1.26093e-06 1.46952e-05 0.222194 -2.37821e-08 2.93114e-13)
(0 0 0 11.3232 -1.49409e-07 1.46402e-05 0.218672 -3.07773e-08 -1.24031e-12)
(0 0 0 11.3232 -1.46809e-07 1.46401e-05 0.218672 -3.07327e-08 -1.31385e-12)
(-1.4422e-15 -8.65375e-21 0 10.9824 -2.23992e-07 1.45366e-05 0.215143 -2.21209e-09 1.50194e-12)
(5.7688e-15 -3.47783e-20 0 10.9824 -2.19996e-07 1.45366e-05 0.215143 -2.17263e-09 9.89358e-13)
(-4.16288e-15 -5.75984e-22 0 10.6489 7.57293e-08 1.43924e-05 0.211615 -7.58761e-10 2.18443e-12)
(-5.83047e-15 3.10053e-23 -1.28997e-21 10.6489 7.75132e-24 1.43924e-05 0.211615 0 1.42246e-12)
(1.47279e-15 -2.65955e-24 0 10.323 -6.36798e-07 1.42133e-05 0.208095 -3.23218e-08 -1.66234e-12)
(5.89116e-15 -1.1177e-23 0 10.323 -6.33866e-07 1.42133e-05 0.208095 -3.22535e-08 -1.26571e-12)
(-1.48772e-15 -7.75713e-21 0 10.0047 6.2e-08 1.40085e-05 0.20459 -6.39399e-10 -2.49882e-12)
(5.95086e-15 -1.29304e-37 0 10.0047 9.27288e-22 1.40085e-05 0.20459 1.32349e-23 -1.94448e-12)
(-1.50239e-15 0 0 9.69441 8.59133e-07 1.38402e-05 0.201109 -4.31348e-08 1.15083e-12)
(0 0 0 9.69441 8.59419e-07 1.38402e-05 0.201109 -4.40426e-08 5.40915e-13)
(-1.51683e-15 4.85604e-24 0 9.39215 -5.97241e-07 1.3669e-05 0.197656 -1.35414e-08 1.55626e-12)
(0 0 0 9.39215 -5.99609e-07 1.3669e-05 0.197656 -1.35859e-08 7.75699e-13)
(9.85856e-16 3.87889e-24 0 9.09807 -9.3907e-07 1.34166e-05 0.194239 -2.70084e-08 -5.84003e-13)
(3.6072e-15 -1.60925e-23 0 9.09807 -9.37944e-07 1.34167e-05 0.194239 -2.69144e-08 -7.49332e-13)
(4.02577e-15 -5.11927e-21 0 8.81225 5.29774e-08 1.31148e-05 0.190864 -5.78827e-10 1.74963e-12)
(-2.4808e-15 0 0 8.81225 3.60445e-23 1.31148e-05 0.190864 0 1.20598e-12)
(0 0 1.16598e-21 8.53477 1.65732e-06 1.28786e-05 0.187537 -3.56366e-08 2.34056e-12)
(0 0 0 8.53477 1.66019e-06 1.28786e-05 0.187537 -3.57512e-08 1.67943e-12)
(-1.57214e-15 0 0 8.26569 -1.67643e-06 1.26251e-05 0.184263 -3.02017e-08 -5.30261e-12)
(0 0 0 8.26569 -1.67743e-06 1.2625e-05 0.184263 -3.11845e-08 -4.67362e-12)
(2.37565e-15 -5.54801e-21 1.1328e-21 8.005 -4.46833e-08 1.22556e-05 0.181047 -5.09814e-10 -4.38358e-12)
(1.2683e-14 0 0 8.005 -1.05879e-21 1.22556e-05 0.181047 -6.80982e-36 -3.80846e-12)
(-2.3416e-15 8.72316e-24 -1.11656e-21 7.75271 1.62461e-06 1.19208e-05 0.177894 -3.98717e-08 5.01246e-12)
(6.39348e-15 0 0 7.75271 1.62376e-06 1.19208e-05 0.177894 -4.09305e-08 4.13043e-12)
(-3.91918e-15 1.05506e-23 -1.10056e-21 7.50881 -1.12885e-06 1.15915e-05 0.17481 -3.45432e-08 4.2722e-12)
(-6.44457e-15 8.49292e-24 0 7.50881 -1.12501e-06 1.15915e-05 0.17481 -3.4378e-08 3.16039e-12)
(6.51273e-16 -1.07717e-20 1.08479e-21 7.27325 3.21882e-08 1.12384e-05 0.171797 -3.83507e-10 -3.39982e-12)
(-8.76972e-15 2.76973e-23 -1.08479e-21 7.27325 8.11821e-22 1.12384e-05 0.171797 0 -3.80719e-12)
(0 0 0 7.04595 -3.94732e-07 1.08962e-05 0.16886 -2.46414e-08 -4.19652e-12)
(0 0 -1.06924e-21 7.04595 -3.94117e-07 1.08961e-05 0.16886 -2.56882e-08 -3.55946e-12)
(0 -3.1041e-20 0 6.82682 -2.89325e-08 1.04492e-05 0.166003 -3.54814e-10 2.80421e-12)
(6.59253e-15 6.34125e-20 0 6.82682 1.03779e-21 1.04491e-05 0.166003 0 2.44332e-12)
(-5.18504e-16 2.92101e-23 -2.07762e-21 6.61577 1.87875e-06 1.00096e-05 0.163227 -3.36302e-08 1.04219e-12)
(0 0 0 6.61577 1.87992e-06 1.00097e-05 0.163227 -3.36082e-08 5.33265e-13)
(0 0 0 6.41267 -2.05089e-07 9.63836e-06 0.160536 -2.67798e-08 -2.40502e-12)
(1.33739e-14 0 0 6.41267 -2.02429e-07 9.63834e-06 0.160536 -2.78938e-08 -1.98293e-12)
(0 -1.5994e-20 1.00924e-21 6.21739 -1.89543e-08 9.20361e-06 0.157932 -2.42735e-10 1.557e-12)
(1.34659e-14 0 0 6.21739 -6.52718e-22 9.20358e-06 0.157932 -9.68279e-39 1.04449e-12)
(-3.38909e-15 3.06648e-24 0 6.02977 8.49958e-07 8.75982e-06 0.155417 -3.33477e-08 2.21422e-12)
(0 0 0 6.02977 8.49091e-07 8.75982e-06 0.155417 -3.32806e-08 1.09409e-12)
(-1.70566e-15 0 0 5.84964 -5.23488e-07 8.31906e-06 0.152992 -3.85513e-08 -4.018e-13)
(1.36453e-14 -1.43323e-24 0 5.84964 -5.20177e-07 8.31909e-06 0.152992 -3.84651e-08 2.59555e-13)
(1.7166e-15 -1.23647e-20 0 5.67682 1.0045e-08 7.85952e-06 0.150658 -1.34334e-10 -3.63388e-12)
(0 3.33462e-37 0 5.67682 1.20142e-21 7.85954e-06 0.150658 -9.25543e-53 -2.5308e-12)
(-1.72737e-15 0 0 5.51112 2.01525e-07 7.42092e-06 0.148416 -2.61979e-08 4.88682e-14)
(0 0 0 5.51112 2.02065e-07 7.42086e-06 0.148416 -2.74157e-08 -5.93607e-13)
(-1.73797e-15 6.89958e-24 0 5.35234 -7.41958e-08 6.92919e-06 0.146265 -1.0213e-09 5.18873e-12)
(6.95187e-15 -2.83161e-23 0 5.35234 -7.02759e-08 6.92921e-06 0.146265 -9.67338e-10 4.05951e-12)
(-1.7484e-15 -2.82893e-20 0 5.20026 3.67959e-09 6.45369e-06 0.144206 -5.13856e-11 -2.21259e-12)
(6.99361e-15 -5.87747e-39 0 5.20026 6.35275e-22 6.45375e-06 0.144206 0 -2.16153e-12)
(-3.51736e-15 0 0 5.05467 -2.07667e-07 6.03738e-06 0.142239 -9.54954e-09 -5.01696e-12)
(0 0 0 5.05467 -2.0513e-07 6.03733e-06 0.142239 -1.08184e-08 -4.11752e-12)
(-1.76881e-15 -6.16143e-21 0 4.91535 0 5.5642e-06 0.140362 -6.61744e-24 -3.9549e-13)
(0 2.44651e-20 0 4.91535 -6.39388e-09 5.56417e-06 0.140362 -9.19063e-11 1.67955e-13)
(1.85866e-15 0 0 4.78206 7.91622e-07 5.09215e-06 0.138574 -2.58186e-08 3.07035e-12)
(-8.97385e-15 0 0 4.78206 7.90813e-07 5.09215e-06 0.138574 -2.71381e-08 2.01025e-12)
(3.62067e-15 -2.90124e-24 0 4.65457 -4.0131e-07 4.63527e-06 0.136874 -1.06369e-08 1.66976e-12)
(5.32258e-15 -1.24477e-23 0 4.65457 -3.98094e-07 4.6353e-06 0.136874 -1.04927e-08 1.20025e-12)
(1.79837e-15 -1.00675e-23 0 4.53264 4.23516e-22 4.18277e-06 0.13526 0 -2.42499e-12)
(-7.19349e-15 2.07482e-23 0 4.53264 1.26559e-08 4.18282e-06 0.13526 -1.89969e-10 -1.58466e-12)
(-1.80797e-15 0 0 4.41603 8.03417e-08 3.76471e-06 0.133729 -1.28009e-08 -1.26156e-12)
(7.23188e-15 0 0 4.41603 8.1142e-08 3.76466e-06 0.133729 -1.41486e-08 -1.33711e-12)
(0 -1.85927e-21 0 4.30451 0 3.33467e-06 0.132279 -6.61744e-24 2.0946e-12)
(0 0 0 4.30451 -1.54306e-08 3.33461e-06 0.132279 -2.38403e-10 9.39678e-13)
(-1.72923e-15 1.28837e-23 -1.64912e-21 4.19783 -2.46105e-07 2.87194e-06 0.130909 -1.72918e-08 7.19061e-13)
(5.57805e-15 0 0 4.19783 -2.44643e-07 2.872e-06 0.130909 -1.87194e-08 1.25414e-12)
(1.83608e-15 -1.08266e-23 0 4.09575 4.23516e-22 2.43634e-06 0.129614 0 -3.05712e-12)
(0 0 0 4.09575 2.08219e-08 2.43638e-06 0.129614 -3.31121e-10 -1.88128e-12)
(-1.68001e-15 0 0 3.99805 1.99325e-07 2.05815e-06 0.128392 7.91854e-09 -2.24168e-12)
(-7.38098e-15 0 0 3.99805 2.01134e-07 2.0581e-06 0.128392 6.45112e-09 -2.02286e-12)
(-1.65593e-15 -3.33564e-21 -1.57922e-21 3.90449 3.17637e-22 1.66586e-06 0.127241 0 -5.33081e-13)
(0 0 0 3.90449 -2.73487e-08 1.66583e-06 0.127241 -4.47655e-10 -3.27498e-13)
(0 0 0 3.81485 5.34075e-07 1.28236e-06 0.126156 -2.84369e-09 2.28806e-12)
(-3.2644e-15 0 0 3.81485 5.34298e-07 1.28236e-06 0.126156 -4.33024e-09 1.73359e-12)
(2.63382e-16 0 0 3.72891 -6.00513e-07 8.93234e-07 0.125134 -1.22473e-08 2.3601e-12)
(1.60881e-15 0 0 3.72891 -5.97453e-07 8.93266e-07 0.125134 -1.38076e-08 1.54153e-12)
(1.88101e-15 -2.9565e-24 0 3.64645 -5.913e-24 5.18749e-07 0.124172 -3.30872e-24 -2.17163e-12)
(-1.58575e-15 2.51898e-20 0 3.64645 3.59116e-08 5.18789e-07 0.124172 -6.13834e-10 -1.79442e-12)
(-3.7795e-15 0 0 3.56727 -2.30561e-07 1.99125e-08 0.123268 1.74429e-08 -3.35501e-12)
(7.55899e-15 0 0 3.56727 -2.29096e-07 1.97719e-08 0.123268 1.58492e-08 -1.99356e-12)
(-1.89842e-15 -1.43656e-21 0 3.49118 -2.64698e-23 -1.48356e-51 0.122416 0 -2.39497e-12)
(0 0 0 3.49118 -4.07086e-08 -1.58567e-10 0.122416 -7.16211e-10 -1.1859e-12)
(0 0 0 3.418 8.20544e-07 -4.91886e-07 0.121615 1.34906e-08 2.77486e-12)
(0 0 0 3.418 8.20936e-07 -4.91878e-07 0.121615 1.18684e-08 1.63392e-12)
(0 0 0 3.34754 -7.9662e-07 -8.02993e-07 0.120861 2.92046e-09 2.79635e-13)
(0 0 0 3.34754 -7.94345e-07 -8.0297e-07 0.120861 1.22285e-09 5.6857e-13)
(-2.95064e-15 1.46937e-39 0 3.27964 3.75966e-24 -1.14999e-06 0.120151 0 -3.38276e-12)
(-2.95064e-15 0 0 3.27964 4.51274e-08 -1.14996e-06 0.120151 -8.29095e-10 -1.67255e-12)
(0 0 0 3.21413 6.02386e-07 -1.42926e-06 0.119483 1.51353e-08 4.54073e-13)
(1.54599e-14 0 0 3.21413 6.03853e-07 -1.42928e-06 0.119483 1.3439e-08 2.48726e-13)
(-3.88172e-15 0 0 3.15088 -3.7669e-07 -1.68794e-06 0.118852 1.08592e-08 8.99263e-13)
(7.76345e-15 0 0 3.15088 -3.75528e-07 -1.68797e-06 0.118852 9.12458e-09 3.47165e-13)
(1.94919e-15 -2.21099e-21 0 3.08974 -1.09946e-07 -1.9918e-06 0.118256 2.91417e-09 -5.13791e-13)
(0 0 0 3.08974 -1.06522e-07 -1.99178e-06 0.118256 1.1705e-09 5.97542e-13)
(0 -7.52316e-37 0 3.03057 5.29396e-23 -2.28604e-06 0.117693 2.93811e-09 -2.0872e-12)
(-1.0615e-14 8.32841e-21 0 3.03057 5.33334e-08 -2.28601e-06 0.117693 1.1894e-09 -3.42493e-13)
(-1.96572e-15 0 0 2.97326 2.74425e-07 -2.52752e-06 0.11716 1.85355e-08 -5.42467e-13)
(5.1177e-15 0 0 2.97326 2.76074e-07 -2.52753e-06 0.11716 1.67404e-08 -5.45952e-13)
(-2.70582e-15 0 0 2.91768 -2.20652e-07 -2.75971e-06 0.116655 1.59189e-08 1.58631e-13)
(0 0 0 2.91768 -2.19458e-07 -2.75972e-06 0.116655 1.40623e-08 1.38775e-13)
(2.66704e-15 -4.97906e-22 0 2.86373 0 -3.00752e-06 0.116174 1.19646e-08 -1.31227e-12)
(0 0 0 2.86373 -3.63292e-08 -3.00753e-06 0.116174 1.01264e-08 -1.00901e-13)
(-1.9902e-15 0 0 2.81131 8.08108e-08 -3.24663e-06 0.115716 1.67331e-08 -2.5224e-13)
(0 0 0 2.81131 8.21842e-08 -3.24664e-06 0.115716 1.48317e-08 1.08535e-13)
(1.18569e-15 -4.82637e-24 1.23555e-21 2.76031 -4.82045e-08 -3.47767e-06 0.115279 1.76895e-08 -9.12061e-13)
(1.59863e-14 0 0 2.76031 -4.65296e-08 -3.47764e-06 0.115279 1.5753e-08 6.61648e-14)
(-2.554e-15 -2.37497e-24 0 2.71066 1.11892e-22 -3.69569e-06 0.11486 1.71134e-08 -1.78637e-12)
(0 0 0 2.71066 6.50786e-08 -3.69567e-06 0.11486 1.51742e-08 7.44704e-15)
(-2.51739e-15 4.68901e-24 -1.20039e-21 2.66228 8.54232e-08 -3.88849e-06 0.114458 2.58027e-08 -7.75083e-13)
(0 0 0 2.66228 8.71321e-08 -3.88851e-06 0.114458 2.37985e-08 7.78762e-14)
(-3.5858e-15 6.46274e-24 0 2.61511 -1.52201e-22 -4.0693e-06 0.114072 2.32845e-08 -7.41825e-13)
(1.36976e-14 0 0 2.61511 -3.07104e-08 -4.06931e-06 0.114072 2.12576e-08 5.35024e-14)
(0 0 0 2.56908 1.08953e-08 -4.2441e-06 0.1137 2.70272e-08 -5.41108e-13)
(1.62427e-14 0 0 2.56908 1.16186e-08 -4.24411e-06 0.1137 2.49685e-08 3.53877e-13)
(-2.03828e-15 0 0 2.52413 -1.64397e-07 -4.42479e-06 0.113341 2.6394e-08 -3.32001e-13)
(-2.41069e-15 0 0 2.52413 -1.62277e-07 -4.42476e-06 0.113341 2.42731e-08 5.98985e-13)
(2.04619e-15 -3.1015e-24 0 2.48023 5.87747e-39 -4.58987e-06 0.112995 2.23487e-08 -2.66552e-12)
(1.63695e-14 -8.21271e-21 0 2.48023 7.4143e-08 -4.58983e-06 0.112995 2.02376e-08 -2.49109e-13)
(2.34209e-15 0 0 2.43731 -9.07926e-09 -4.72432e-06 0.11266 4.03058e-08 -1.68481e-12)
(5.87422e-15 0 0 2.43731 -7.86005e-09 -4.72436e-06 0.11266 3.81153e-08 -1.12227e-13)
(4.37046e-15 -3.23235e-21 0 2.39535 1.58819e-22 -4.86683e-06 0.112335 2.45593e-08 -3.54222e-13)
(-2.30852e-15 0 0 2.39535 -7.68768e-08 -4.86685e-06 0.112335 2.23389e-08 5.90754e-13)
(4.13955e-15 0 0 2.3543 2.16203e-07 -4.99558e-06 0.11202 3.48734e-08 -1.43264e-12)
(8.27911e-15 0 -1.08501e-21 2.3543 2.1666e-07 -4.99554e-06 0.11202 3.26304e-08 4.4217e-13)
(0 0 0 2.31414 -8.45018e-08 -5.10066e-06 0.111714 3.77487e-08 -1.61047e-12)
(0 0 0 2.31414 -8.32826e-08 -5.10067e-06 0.111714 3.54306e-08 4.14739e-13)
(2.21067e-15 -1.05472e-21 0 2.27482 1.98523e-22 -5.2113e-06 0.111416 3.3794e-08 -1.03283e-12)
(6.13087e-15 0 0 2.27482 -8.09789e-08 -5.21132e-06 0.111416 3.14499e-08 4.73176e-13)
(4.18631e-15 0 0 2.23631 1.21724e-09 -5.31898e-06 0.111127 3.63639e-08 -1.34883e-12)
(0 0 0 2.23631 2.07449e-09 -5.31896e-06 0.111127 3.39856e-08 5.18543e-13)
(4.24867e-15 0 0 2.1986 -6.17215e-08 -5.42032e-06 0.110845 3.70323e-08 -1.66596e-12)
(6.25587e-15 0 0 2.1986 -6.03018e-08 -5.42031e-06 0.110845 3.45815e-08 5.87219e-13)
(2.11698e-15 -1.01349e-23 0 2.16166 3.9578e-22 -5.51409e-06 0.11057 3.65147e-08 -2.08109e-12)
(6.31757e-15 0 0 2.16166 8.93145e-09 -5.51408e-06 0.11057 3.40487e-08 6.42604e-13)
(-2.11635e-15 0 0 2.12545 -3.67986e-08 -5.5972e-06 0.110302 4.08066e-08 -1.40375e-12)
(-8.46538e-15 0 0 2.12545 -3.54964e-08 -5.59722e-06 0.110302 3.82648e-08 6.86678e-13)
(-4.18076e-15 -1.60414e-22 -1.96145e-21 2.08996 -7.35521e-08 -5.68108e-06 0.11004 3.8004e-08 -1.21798e-12)
(0 0 0 2.08996 -8.87187e-08 -5.68107e-06 0.11004 3.5424e-08 8.13355e-13)
(-2.13171e-15 -5.38455e-24 0 2.05517 2.01361e-22 -5.75303e-06 0.109784 3.87997e-08 -1.79051e-12)
(-8.52683e-15 0 0 2.05517 7.80288e-08 -5.75301e-06 0.109784 3.61747e-08 7.63268e-13)
(1.99819e-15 0 9.52813e-22 2.02104 -2.03828e-07 -5.82345e-06 0.109533 4.57856e-08 -2.39779e-12)
(-1.99819e-15 0 0 2.02104 -2.02103e-07 -5.82345e-06 0.109533 4.3073e-08 1.04887e-12)
(1.96955e-15 7.34684e-40 0 1.98755 3.30872e-24 -5.89706e-06 0.109287 3.12899e-08 -3.28945e-12)
(1.7176e-14 0 0 1.98755 3.05601e-08 -5.89706e-06 0.109287 2.8582e-08 7.35182e-13)
(-2.15461e-15 0 0 1.95467 6.65776e-08 -5.94336e-06 0.109043 5.14208e-08 -1.66737e-12)
(8.61845e-15 0 0 1.95467 6.78175e-08 -5.94338e-06 0.109043 4.86046e-08 6.96585e-13)
(-3.827e-15 -6.09431e-22 -9.12429e-22 1.92237 -1.81345e-07 -5.99975e-06 0.108801 3.86916e-08 -7.684e-13)
(-8.64885e-15 2.47037e-21 0 1.92237 -1.79164e-07 -5.99973e-06 0.108801 3.58279e-08 1.77708e-12)
(-5.65823e-15 -1.58664e-23 -1.7987e-21 1.89061 3.44107e-22 -6.0547e-06 0.108559 3.81098e-08 -3.12787e-12)
(1.88608e-15 1.29989e-21 0 1.89061 9.62321e-08 -6.05465e-06 0.108559 3.52142e-08 1.28332e-12)
(3.18318e-16 6.92548e-24 -8.86461e-22 1.85935 -1.33042e-07 -6.08797e-06 0.108315 5.21977e-08 -3.28374e-12)
(8.70945e-15 0 0 1.85935 -1.31691e-07 -6.08801e-06 0.108315 4.91995e-08 1.153e-12)
(1.8324e-15 -8.89382e-22 0 1.82856 1.32349e-23 -6.12958e-06 0.108069 3.4323e-08 -2.22989e-12)
(0 0 0 1.82856 -9.88445e-08 -6.12962e-06 0.108069 3.12911e-08 1.50296e-12)
(1.80614e-15 -6.72838e-24 8.61233e-22 1.7982 -8.56641e-08 -6.17405e-06 0.107818 5.0801e-08 -1.55207e-12)
(0 0 0 1.7982 -8.41048e-08 -6.17399e-06 0.107818 4.77019e-08 1.6429e-12)
(-4.39992e-15 0 0 1.76827 0 -6.19147e-06 0.107561 3.33609e-08 -2.80336e-12)
(0 6.93451e-22 0 1.76827 1.02181e-07 -6.19142e-06 0.107561 3.01944e-08 1.41379e-12)
(4.81147e-15 -6.53689e-24 8.36722e-22 1.73873 -3.11361e-07 -6.20905e-06 0.107299 6.41682e-08 -5.08912e-12)
(-3.50947e-15 0 0 1.73873 -3.09535e-07 -6.20909e-06 0.107299 6.08782e-08 1.75383e-12)
(0 -1.51547e-21 8.2473e-22 1.70959 1.58819e-22 -6.26562e-06 0.107032 1.81872e-08 -5.05246e-12)
(0 0 0 1.70959 -1.06533e-07 -6.26562e-06 0.107032 1.49422e-08 1.58246e-12)