/*--------------------------------*- C++ -*----------------------------------*\
| =========                 |                                                 |
| \\      /  F ield         | OpenFOAM: The Open Source CFD Toolbox           |
|  \\    /   O peration     | Version:  2012                                  |
|   \\  /    A nd           | Website:  www.openfoam.com                      |
|    \\/     M anipulation  |                                                 |
\*---------------------------------------------------------------------------*/
FoamFile
{
    version     2.0;
    format      ascii;
    class       volScalarField;
    location    "11000";
    object      k;
}
// * * * * * * * * * * * * * * * * * * * * * * * * * * * * * * * * * * * * * //

dimensions      [0 2 -2 0 0 0 0];


internalField   nonuniform List<scalar> 
2560
(
1.49939e-07
1.49939e-07
2.49968e-08
2.49968e-08
2.80903e-08
2.80903e-08
8.21485e-08
8.21485e-08
2.09278e-07
2.09278e-07
4.45699e-07
4.45699e-07
8.35155e-07
8.35155e-07
1.42806e-06
1.42806e-06
2.28151e-06
2.28151e-06
3.45954e-06
3.45954e-06
5.03348e-06
5.03348e-06
7.08235e-06
7.08235e-06
9.69328e-06
9.69328e-06
1.2962e-05
1.2962e-05
1.69934e-05
1.69934e-05
2.19019e-05
2.19019e-05
2.78121e-05
2.78121e-05
3.48593e-05
3.48593e-05
4.31898e-05
4.31898e-05
5.29617e-05
5.29617e-05
6.43451e-05
6.43451e-05
7.75229e-05
7.75229e-05
9.26905e-05
9.26905e-05
0.000110057
0.000110057
0.000129843
0.000129843
0.000152284
0.000152284
0.000177627
0.000177627
0.000206134
0.000206134
0.000238073
0.000238073
0.000273729
0.000273729
0.00031339
0.00031339
0.000357354
0.000357354
0.000405923
0.000405923
0.0004594
0.0004594
0.000518086
0.000518086
0.000582277
0.000582277
0.000652257
0.000652257
0.000728295
0.000728295
0.000810639
0.000810639
0.00089951
0.00089951
0.000995097
0.000995097
0.00109755
0.00109755
0.00120697
0.00120697
0.00132341
0.00132341
0.00144686
0.00144686
0.00157727
0.00157727
0.00171451
0.00171451
0.00185837
0.00185837
0.00200861
0.00200861
0.00216489
0.00216489
0.00232681
0.00232681
0.00249393
0.00249393
0.00266574
0.00266574
0.00284166
0.00284166
0.0030211
0.0030211
0.00320341
0.00320341
0.00338793
0.00338793
0.00357398
0.00357398
0.00376084
0.00376084
0.00394784
0.00394784
0.00413429
0.00413429
0.0043195
0.0043195
0.00450284
0.00450284
0.00468368
0.00468368
0.00486144
0.00486144
0.00503557
0.00503557
0.00520558
0.00520558
0.00537101
0.00537101
0.00553145
0.00553145
0.00568655
0.00568655
0.005836
0.005836
0.00597956
0.00597956
0.006117
0.006117
0.00624819
0.00624819
0.00637302
0.00637302
0.00649141
0.00649141
0.00660336
0.00660336
0.00670888
0.00670888
0.00680804
0.00680804
0.00690093
0.00690093
0.00698767
0.00698767
0.00706843
0.00706843
0.00714339
0.00714339
0.00721275
0.00721275
0.00727675
0.00727675
0.00733561
0.00733561
0.0073896
0.0073896
0.00743898
0.00743898
0.00748404
0.00748404
0.00752505
0.00752505
0.0075623
0.0075623
0.00759608
0.00759608
0.00762667
0.00762667
0.00765437
0.00765437
0.00767943
0.00767943
0.00770215
0.00770215
0.00772278
0.00772278
0.00774159
0.00774159
0.00775881
0.00775881
0.00777468
0.00777468
0.00778943
0.00778943
0.00780327
0.00780327
0.00781639
0.00781639
0.00782898
0.00782898
0.00784121
0.00784121
0.00785323
0.00785323
0.00786519
0.00786519
0.00787721
0.00787721
0.00788941
0.00788941
0.0079019
0.0079019
0.00791475
0.00791475
0.00792804
0.00792804
0.00794184
0.00794184
0.00795619
0.00795619
0.00797114
0.00797114
0.00798672
0.00798672
0.00800293
0.00800293
0.0080198
0.0080198
0.00803732
0.00803732
0.00805548
0.00805548
0.00807427
0.00807427
0.00809367
0.00809367
0.00811365
0.00811365
0.00813418
0.00813418
0.00815522
0.00815522
0.00817673
0.00817673
0.00819868
0.00819868
0.008221
0.008221
0.00824365
0.00824365
0.00826659
0.00826659
0.00828976
0.00828976
0.00831311
0.00831311
0.00833659
0.00833659
0.00836014
0.00836014
0.00838371
0.00838371
0.00840726
0.00840726
0.00843073
0.00843073
0.00845408
0.00845408
0.00847725
0.00847725
0.0085002
0.0085002
0.0085229
0.0085229
0.00854528
0.00854528
0.00856733
0.00856733
0.008589
0.008589
0.00861025
0.00861025
0.00863105
0.00863105
0.00865137
0.00865137
0.00867118
0.00867118
0.00869044
0.00869044
0.00870914
0.00870914
0.00872725
0.00872725
0.00874475
0.00874475
0.0087616
0.0087616
0.0087778
0.0087778
0.00879332
0.00879332
0.00880815
0.00880815
0.00882226
0.00882226
0.00883564
0.00883564
0.00884827
0.00884827
0.00886015
0.00886015
0.00887126
0.00887126
0.00888159
0.00888159
0.00889113
0.00889113
0.00889988
0.00889988
0.00890783
0.00890783
0.00891498
0.00891498
0.00892135
0.00892135
0.00892692
0.00892692
0.00893171
0.00893171
0.00893572
0.00893572
0.00893897
0.00893897
0.00894146
0.00894146
0.0089432
0.0089432
0.0089442
0.0089442
0.00894447
0.00894447
0.008944
0.008944
0.00894281
0.00894281
0.0089409
0.0089409
0.00893826
0.00893826
0.00893489
0.00893489
0.00893081
0.00893081
0.00892601
0.00892601
0.00892049
0.00892049
0.00891425
0.00891425
0.00890731
0.00890731
0.00889966
0.00889966
0.00889131
0.00889131
0.00888227
0.00888227
0.00887254
0.00887254
0.00886213
0.00886213
0.00885104
0.00885104
0.00883929
0.00883929
0.00882686
0.00882686
0.00881376
0.00881376
0.0088
0.0088
0.00878555
0.00878555
0.00877043
0.00877043
0.00875463
0.00875463
0.00873813
0.00873813
0.00872094
0.00872094
0.00870305
0.00870305
0.00868446
0.00868446
0.00866516
0.00866516
0.00864516
0.00864516
0.00862446
0.00862446
0.00860308
0.00860308
0.00858101
0.00858101
0.00855829
0.00855829
0.0085349
0.0085349
0.00851087
0.00851087
0.0084862
0.0084862
0.0084609
0.0084609
0.00843496
0.00843496
0.00840839
0.00840839
0.00838119
0.00838119
0.00835337
0.00835337
0.00832494
0.00832494
0.00829589
0.00829589
0.00826625
0.00826625
0.00823603
0.00823603
0.00820523
0.00820523
0.00817387
0.00817387
0.00814195
0.00814195
0.00810948
0.00810948
0.00807645
0.00807645
0.00804285
0.00804285
0.00800866
0.00800866
0.00797388
0.00797388
0.00793849
0.00793849
0.0079025
0.0079025
0.00786591
0.00786591
0.00782872
0.00782872
0.00779094
0.00779094
0.00775257
0.00775257
0.0077136
0.0077136
0.00767403
0.00767403
0.00763386
0.00763386
0.00759307
0.00759307
0.00755164
0.00755164
0.00750955
0.00750955
0.00746677
0.00746677
0.00742328
0.00742328
0.00737905
0.00737905
0.00733409
0.00733409
0.00728838
0.00728838
0.00724195
0.00724195
0.00719482
0.00719482
0.00714702
0.00714702
0.00709859
0.00709859
0.00704956
0.00704956
0.00699995
0.00699995
0.00694975
0.00694975
0.00689894
0.00689894
0.00684748
0.00684748
0.00679533
0.00679533
0.00674242
0.00674242
0.00668872
0.00668872
0.00663423
0.00663423
0.00657895
0.00657895
0.00652294
0.00652294
0.0064662
0.0064662
0.00640874
0.00640874
0.00635054
0.00635054
0.00629154
0.00629154
0.00623171
0.00623171
0.006171
0.006171
0.00610936
0.00610936
0.00604676
0.00604676
0.0059832
0.0059832
0.00591867
0.00591867
0.00585319
0.00585319
0.00578677
0.00578677
0.00571944
0.00571944
0.00565126
0.00565126
0.00558227
0.00558227
0.00551254
0.00551254
0.0054421
0.0054421
0.00537102
0.00537102
0.00529934
0.00529934
0.00522713
0.00522713
0.0051544
0.0051544
0.00508119
0.00508119
0.00500756
0.00500756
0.00493357
0.00493357
0.00485927
0.00485927
0.00478474
0.00478474
0.00471002
0.00471002
0.00463512
0.00463512
0.00456008
0.00456008
0.0044849
0.0044849
0.00440955
0.00440955
0.00433399
0.00433399
0.00425818
0.00425818
0.00418214
0.00418214
0.00410597
0.00410597
0.00402984
0.00402984
0.00395392
0.00395392
0.00387843
0.00387843
0.00380352
0.00380352
0.00372933
0.00372933
0.00365601
0.00365601
0.00358369
0.00358369
0.00351253
0.00351253
0.00344272
0.00344272
0.00337444
0.00337444
0.00330791
0.00330791
0.00324331
0.00324331
0.00318091
0.00318091
0.00312099
0.00312099
0.00306389
0.00306389
0.00301
0.00301
0.0029597
0.0029597
0.00291338
0.00291338
0.00287145
0.00287145
0.00283431
0.00283431
0.00280239
0.00280239
0.00277609
0.00277609
0.0027558
0.0027558
0.00274191
0.00274191
0.00273478
0.00273478
1.49939e-07
1.49939e-07
2.49968e-08
2.49968e-08
2.80903e-08
2.80903e-08
8.21485e-08
8.21485e-08
2.09278e-07
2.09278e-07
4.45699e-07
4.45699e-07
8.35155e-07
8.35155e-07
1.42806e-06
1.42806e-06
2.28151e-06
2.28151e-06
3.45954e-06
3.45954e-06
5.03348e-06
5.03348e-06
7.08235e-06
7.08235e-06
9.69328e-06
9.69328e-06
1.2962e-05
1.2962e-05
1.69934e-05
1.69934e-05
2.19019e-05
2.19019e-05
2.78121e-05
2.78121e-05
3.48593e-05
3.48593e-05
4.31898e-05
4.31898e-05
5.29616e-05
5.29616e-05
6.43451e-05
6.43451e-05
7.75229e-05
7.75229e-05
9.26905e-05
9.26905e-05
0.000110057
0.000110057
0.000129843
0.000129843
0.000152284
0.000152284
0.000177627
0.000177627
0.000206134
0.000206134
0.000238073
0.000238073
0.000273729
0.000273729
0.00031339
0.00031339
0.000357354
0.000357354
0.000405923
0.000405923
0.0004594
0.0004594
0.000518086
0.000518086
0.000582277
0.000582277
0.000652257
0.000652257
0.000728294
0.000728294
0.000810638
0.000810638
0.00089951
0.00089951
0.000995096
0.000995096
0.00109755
0.00109755
0.00120697
0.00120697
0.0013234
0.0013234
0.00144686
0.00144686
0.00157727
0.00157727
0.00171451
0.00171451
0.00185837
0.00185837
0.00200861
0.00200861
0.00216489
0.00216489
0.00232681
0.00232681
0.00249393
0.00249393
0.00266573
0.00266573
0.00284166
0.00284166
0.0030211
0.0030211
0.00320341
0.00320341
0.00338793
0.00338793
0.00357397
0.00357397
0.00376084
0.00376084
0.00394784
0.00394784
0.00413429
0.00413429
0.0043195
0.0043195
0.00450284
0.00450284
0.00468368
0.00468368
0.00486144
0.00486144
0.00503557
0.00503557
0.00520558
0.00520558
0.00537101
0.00537101
0.00553145
0.00553145
0.00568655
0.00568655
0.005836
0.005836
0.00597955
0.00597955
0.006117
0.006117
0.00624819
0.00624819
0.00637302
0.00637302
0.00649141
0.00649141
0.00660336
0.00660336
0.00670888
0.00670888
0.00680804
0.00680804
0.00690093
0.00690093
0.00698767
0.00698767
0.00706843
0.00706843
0.00714339
0.00714339
0.00721275
0.00721275
0.00727674
0.00727674
0.00733561
0.00733561
0.0073896
0.0073896
0.00743898
0.00743898
0.00748404
0.00748404
0.00752505
0.00752505
0.0075623
0.0075623
0.00759608
0.00759608
0.00762667
0.00762667
0.00765436
0.00765436
0.00767943
0.00767943
0.00770215
0.00770215
0.00772278
0.00772278
0.00774159
0.00774159
0.00775881
0.00775881
0.00777468
0.00777468
0.00778943
0.00778943
0.00780327
0.00780327
0.00781639
0.00781639
0.00782898
0.00782898
0.00784121
0.00784121
0.00785323
0.00785323
0.00786519
0.00786519
0.00787721
0.00787721
0.00788941
0.00788941
0.0079019
0.0079019
0.00791475
0.00791475
0.00792804
0.00792804
0.00794184
0.00794184
0.00795619
0.00795619
0.00797114
0.00797114
0.00798672
0.00798672
0.00800293
0.00800293
0.0080198
0.0080198
0.00803731
0.00803731
0.00805548
0.00805548
0.00807427
0.00807427
0.00809367
0.00809367
0.00811365
0.00811365
0.00813418
0.00813418
0.00815522
0.00815522
0.00817673
0.00817673
0.00819867
0.00819867
0.008221
0.008221
0.00824365
0.00824365
0.00826659
0.00826659
0.00828976
0.00828976
0.00831311
0.00831311
0.00833659
0.00833659
0.00836014
0.00836014
0.00838371
0.00838371
0.00840726
0.00840726
0.00843073
0.00843073
0.00845408
0.00845408
0.00847725
0.00847725
0.0085002
0.0085002
0.00852289
0.00852289
0.00854528
0.00854528
0.00856733
0.00856733
0.008589
0.008589
0.00861025
0.00861025
0.00863105
0.00863105
0.00865137
0.00865137
0.00867117
0.00867117
0.00869044
0.00869044
0.00870914
0.00870914
0.00872725
0.00872725
0.00874475
0.00874475
0.0087616
0.0087616
0.0087778
0.0087778
0.00879332
0.00879332
0.00880815
0.00880815
0.00882226
0.00882226
0.00883564
0.00883564
0.00884827
0.00884827
0.00886015
0.00886015
0.00887126
0.00887126
0.00888159
0.00888159
0.00889113
0.00889113
0.00889988
0.00889988
0.00890783
0.00890783
0.00891498
0.00891498
0.00892134
0.00892134
0.00892692
0.00892692
0.00893171
0.00893171
0.00893572
0.00893572
0.00893897
0.00893897
0.00894146
0.00894146
0.0089432
0.0089432
0.0089442
0.0089442
0.00894447
0.00894447
0.008944
0.008944
0.00894281
0.00894281
0.00894089
0.00894089
0.00893825
0.00893825
0.00893489
0.00893489
0.00893081
0.00893081
0.00892601
0.00892601
0.00892049
0.00892049
0.00891425
0.00891425
0.00890731
0.00890731
0.00889966
0.00889966
0.00889131
0.00889131
0.00888226
0.00888226
0.00887253
0.00887253
0.00886212
0.00886212
0.00885104
0.00885104
0.00883928
0.00883928
0.00882686
0.00882686
0.00881376
0.00881376
0.0088
0.0088
0.00878555
0.00878555
0.00877043
0.00877043
0.00875463
0.00875463
0.00873813
0.00873813
0.00872094
0.00872094
0.00870305
0.00870305
0.00868446
0.00868446
0.00866516
0.00866516
0.00864516
0.00864516
0.00862446
0.00862446
0.00860307
0.00860307
0.00858101
0.00858101
0.00855828
0.00855828
0.0085349
0.0085349
0.00851087
0.00851087
0.0084862
0.0084862
0.0084609
0.0084609
0.00843496
0.00843496
0.00840839
0.00840839
0.00838119
0.00838119
0.00835337
0.00835337
0.00832494
0.00832494
0.00829589
0.00829589
0.00826625
0.00826625
0.00823603
0.00823603
0.00820523
0.00820523
0.00817387
0.00817387
0.00814195
0.00814195
0.00810948
0.00810948
0.00807645
0.00807645
0.00804284
0.00804284
0.00800866
0.00800866
0.00797388
0.00797388
0.00793849
0.00793849
0.0079025
0.0079025
0.00786591
0.00786591
0.00782872
0.00782872
0.00779094
0.00779094
0.00775256
0.00775256
0.0077136
0.0077136
0.00767403
0.00767403
0.00763386
0.00763386
0.00759307
0.00759307
0.00755164
0.00755164
0.00750955
0.00750955
0.00746677
0.00746677
0.00742328
0.00742328
0.00737905
0.00737905
0.00733409
0.00733409
0.00728838
0.00728838
0.00724195
0.00724195
0.00719482
0.00719482
0.00714702
0.00714702
0.00709859
0.00709859
0.00704956
0.00704956
0.00699995
0.00699995
0.00694975
0.00694975
0.00689894
0.00689894
0.00684748
0.00684748
0.00679532
0.00679532
0.00674242
0.00674242
0.00668872
0.00668872
0.00663422
0.00663422
0.00657895
0.00657895
0.00652294
0.00652294
0.0064662
0.0064662
0.00640874
0.00640874
0.00635054
0.00635054
0.00629154
0.00629154
0.00623171
0.00623171
0.006171
0.006171
0.00610936
0.00610936
0.00604676
0.00604676
0.0059832
0.0059832
0.00591867
0.00591867
0.00585319
0.00585319
0.00578677
0.00578677
0.00571944
0.00571944
0.00565126
0.00565126
0.00558227
0.00558227
0.00551253
0.00551253
0.0054421
0.0054421
0.00537102
0.00537102
0.00529934
0.00529934
0.00522713
0.00522713
0.0051544
0.0051544
0.00508119
0.00508119
0.00500756
0.00500756
0.00493356
0.00493356
0.00485927
0.00485927
0.00478474
0.00478474
0.00471002
0.00471002
0.00463512
0.00463512
0.00456008
0.00456008
0.0044849
0.0044849
0.00440955
0.00440955
0.00433399
0.00433399
0.00425818
0.00425818
0.00418214
0.00418214
0.00410598
0.00410598
0.00402984
0.00402984
0.00395393
0.00395393
0.00387843
0.00387843
0.00380352
0.00380352
0.00372933
0.00372933
0.00365601
0.00365601
0.00358369
0.00358369
0.00351253
0.00351253
0.00344272
0.00344272
0.00337444
0.00337444
0.00330791
0.00330791
0.00324332
0.00324332
0.00318091
0.00318091
0.00312099
0.00312099
0.00306389
0.00306389
0.00301
0.00301
0.0029597
0.0029597
0.00291338
0.00291338
0.00287145
0.00287145
0.00283431
0.00283431
0.00280239
0.00280239
0.00277609
0.00277609
0.0027558
0.0027558
0.00274191
0.00274191
0.00273478
0.00273478
0.00273478
0.00273478
0.00274191
0.00274191
0.00275581
0.00275581
0.0027761
0.0027761
0.00280239
0.00280239
0.00283432
0.00283432
0.00287145
0.00287145
0.00291339
0.00291339
0.0029597
0.0029597
0.00301
0.00301
0.00306388
0.00306388
0.00312098
0.00312098
0.0031809
0.0031809
0.0032433
0.0032433
0.00330789
0.00330789
0.00337444
0.00337444
0.00344272
0.00344272
0.00351254
0.00351254
0.0035837
0.0035837
0.00365602
0.00365602
0.00372935
0.00372935
0.00380353
0.00380353
0.00387845
0.00387845
0.00395395
0.00395395
0.00402986
0.00402986
0.00410599
0.00410599
0.00418216
0.00418216
0.00425819
0.00425819
0.004334
0.004334
0.00440955
0.00440955
0.00448489
0.00448489
0.00456007
0.00456007
0.0046351
0.0046351
0.00470999
0.00470999
0.00478473
0.00478473
0.00485926
0.00485926
0.00493357
0.00493357
0.00500757
0.00500757
0.0050812
0.0050812
0.0051544
0.0051544
0.00522713
0.00522713
0.00529935
0.00529935
0.00537102
0.00537102
0.00544211
0.00544211
0.00551254
0.00551254
0.00558229
0.00558229
0.00565128
0.00565128
0.00571946
0.00571946
0.00578679
0.00578679
0.00585321
0.00585321
0.00591869
0.00591869
0.00598321
0.00598321
0.00604677
0.00604677
0.00610937
0.00610937
0.00617101
0.00617101
0.00623172
0.00623172
0.00629154
0.00629154
0.00635054
0.00635054
0.00640874
0.00640874
0.0064662
0.0064662
0.00652293
0.00652293
0.00657894
0.00657894
0.0066342
0.0066342
0.0066887
0.0066887
0.0067424
0.0067424
0.00679532
0.00679532
0.00684748
0.00684748
0.00689894
0.00689894
0.00694975
0.00694975
0.00699995
0.00699995
0.00704957
0.00704957
0.00709861
0.00709861
0.00714704
0.00714704
0.00719484
0.00719484
0.00724196
0.00724196
0.00728838
0.00728838
0.00733408
0.00733408
0.00737903
0.00737903
0.00742325
0.00742325
0.00746674
0.00746674
0.00750953
0.00750953
0.00755162
0.00755162
0.00759306
0.00759306
0.00763386
0.00763386
0.00767403
0.00767403
0.0077136
0.0077136
0.00775257
0.00775257
0.00779095
0.00779095
0.00782873
0.00782873
0.00786592
0.00786592
0.00790251
0.00790251
0.0079385
0.0079385
0.00797388
0.00797388
0.00800866
0.00800866
0.00804283
0.00804283
0.00807643
0.00807643
0.00810946
0.00810946
0.00814193
0.00814193
0.00817385
0.00817385
0.00820521
0.00820521
0.00823601
0.00823601
0.00826623
0.00826623
0.00829587
0.00829587
0.00832491
0.00832491
0.00835335
0.00835335
0.00838117
0.00838117
0.00840837
0.00840837
0.00843495
0.00843495
0.0084609
0.0084609
0.00848621
0.00848621
0.00851088
0.00851088
0.00853491
0.00853491
0.00855829
0.00855829
0.00858102
0.00858102
0.00860308
0.00860308
0.00862447
0.00862447
0.00864516
0.00864516
0.00866516
0.00866516
0.00868445
0.00868445
0.00870304
0.00870304
0.00872093
0.00872093
0.00873812
0.00873812
0.00875462
0.00875462
0.00877042
0.00877042
0.00878554
0.00878554
0.00879999
0.00879999
0.00881376
0.00881376
0.00882685
0.00882685
0.00883928
0.00883928
0.00885103
0.00885103
0.00886212
0.00886212
0.00887252
0.00887252
0.00888225
0.00888225
0.0088913
0.0088913
0.00889965
0.00889965
0.0089073
0.0089073
0.00891425
0.00891425
0.00892049
0.00892049
0.00892601
0.00892601
0.00893081
0.00893081
0.00893489
0.00893489
0.00893826
0.00893826
0.0089409
0.0089409
0.00894281
0.00894281
0.00894401
0.00894401
0.00894447
0.00894447
0.0089442
0.0089442
0.00894321
0.00894321
0.00894146
0.00894146
0.00893897
0.00893897
0.00893572
0.00893572
0.00893171
0.00893171
0.00892692
0.00892692
0.00892134
0.00892134
0.00891498
0.00891498
0.00890783
0.00890783
0.00889987
0.00889987
0.00889113
0.00889113
0.00888159
0.00888159
0.00887126
0.00887126
0.00886015
0.00886015
0.00884827
0.00884827
0.00883564
0.00883564
0.00882226
0.00882226
0.00880815
0.00880815
0.00879332
0.00879332
0.0087778
0.0087778
0.00876161
0.00876161
0.00874475
0.00874475
0.00872726
0.00872726
0.00870915
0.00870915
0.00869045
0.00869045
0.00867118
0.00867118
0.00865137
0.00865137
0.00863105
0.00863105
0.00861025
0.00861025
0.008589
0.008589
0.00856733
0.00856733
0.00854528
0.00854528
0.00852289
0.00852289
0.0085002
0.0085002
0.00847724
0.00847724
0.00845406
0.00845406
0.00843072
0.00843072
0.00840724
0.00840724
0.0083837
0.0083837
0.00836012
0.00836012
0.00833657
0.00833657
0.0083131
0.0083131
0.00828975
0.00828975
0.00826658
0.00826658
0.00824364
0.00824364
0.00822098
0.00822098
0.00819866
0.00819866
0.00817672
0.00817672
0.00815521
0.00815521
0.00813417
0.00813417
0.00811365
0.00811365
0.00809368
0.00809368
0.00807428
0.00807428
0.0080555
0.0080555
0.00803735
0.00803735
0.00801984
0.00801984
0.00800298
0.00800298
0.00798678
0.00798678
0.00797123
0.00797123
0.00795629
0.00795629
0.00794195
0.00794195
0.00792816
0.00792816
0.00791487
0.00791487
0.00790203
0.00790203
0.00788955
0.00788955
0.00787735
0.00787735
0.00786534
0.00786534
0.00785338
0.00785338
0.00784137
0.00784137
0.00782915
0.00782915
0.00781657
0.00781657
0.00780346
0.00780346
0.00778963
0.00778963
0.00777488
0.00777488
0.00775901
0.00775901
0.00774179
0.00774179
0.00772298
0.00772298
0.00770235
0.00770235
0.00767964
0.00767964
0.00765458
0.00765458
0.0076269
0.0076269
0.00759633
0.00759633
0.00756258
0.00756258
0.00752536
0.00752536
0.00748437
0.00748437
0.00743932
0.00743932
0.00738993
0.00738993
0.00733595
0.00733595
0.00727709
0.00727709
0.0072131
0.0072131
0.00714375
0.00714375
0.0070688
0.0070688
0.00698805
0.00698805
0.0069013
0.0069013
0.00680842
0.00680842
0.00670925
0.00670925
0.00660371
0.00660371
0.00649174
0.00649174
0.00637331
0.00637331
0.00624846
0.00624846
0.00611724
0.00611724
0.00597977
0.00597977
0.00583619
0.00583619
0.00568671
0.00568671
0.00553159
0.00553159
0.00537113
0.00537113
0.00520569
0.00520569
0.00503567
0.00503567
0.00486152
0.00486152
0.00468375
0.00468375
0.0045029
0.0045029
0.00431955
0.00431955
0.00413432
0.00413432
0.00394786
0.00394786
0.00376085
0.00376085
0.00357398
0.00357398
0.00338793
0.00338793
0.0032034
0.0032034
0.00302109
0.00302109
0.00284164
0.00284164
0.00266572
0.00266572
0.00249392
0.00249392
0.0023268
0.0023268
0.00216487
0.00216487
0.0020086
0.0020086
0.00185836
0.00185836
0.0017145
0.0017145
0.00157726
0.00157726
0.00144685
0.00144685
0.0013234
0.0013234
0.00120696
0.00120696
0.00109754
0.00109754
0.000995091
0.000995091
0.000899505
0.000899505
0.000810634
0.000810634
0.00072829
0.00072829
0.000652253
0.000652253
0.000582274
0.000582274
0.000518083
0.000518083
0.000459397
0.000459397
0.000405921
0.000405921
0.000357352
0.000357352
0.000313388
0.000313388
0.000273727
0.000273727
0.000238072
0.000238072
0.000206132
0.000206132
0.000177626
0.000177626
0.000152283
0.000152283
0.000129842
0.000129842
0.000110056
0.000110056
9.26899e-05
9.26899e-05
7.75224e-05
7.75224e-05
6.43447e-05
6.43447e-05
5.29613e-05
5.29613e-05
4.31895e-05
4.31895e-05
3.4859e-05
3.4859e-05
2.78119e-05
2.78119e-05
2.19018e-05
2.19018e-05
1.69933e-05
1.69933e-05
1.29619e-05
1.29619e-05
9.69321e-06
9.69321e-06
7.0823e-06
7.0823e-06
5.03344e-06
5.03344e-06
3.45951e-06
3.45951e-06
2.28149e-06
2.28149e-06
1.42805e-06
1.42805e-06
8.35149e-07
8.35149e-07
4.45695e-07
4.45695e-07
2.09276e-07
2.09276e-07
8.21477e-08
8.21477e-08
2.80902e-08
2.80902e-08
2.4997e-08
2.4997e-08
1.49941e-07
1.49941e-07
0.00273478
0.00273478
0.00274191
0.00274191
0.00275581
0.00275581
0.0027761
0.0027761
0.0028024
0.0028024
0.00283432
0.00283432
0.00287145
0.00287145
0.00291339
0.00291339
0.0029597
0.0029597
0.00301
0.00301
0.00306389
0.00306389
0.00312098
0.00312098
0.0031809
0.0031809
0.0032433
0.0032433
0.00330789
0.00330789
0.00337444
0.00337444
0.00344272
0.00344272
0.00351254
0.00351254
0.0035837
0.0035837
0.00365602
0.00365602
0.00372935
0.00372935
0.00380353
0.00380353
0.00387845
0.00387845
0.00395395
0.00395395
0.00402986
0.00402986
0.00410599
0.00410599
0.00418216
0.00418216
0.00425819
0.00425819
0.004334
0.004334
0.00440955
0.00440955
0.00448489
0.00448489
0.00456007
0.00456007
0.0046351
0.0046351
0.00470999
0.00470999
0.00478472
0.00478472
0.00485926
0.00485926
0.00493357
0.00493357
0.00500757
0.00500757
0.0050812
0.0050812
0.0051544
0.0051544
0.00522713
0.00522713
0.00529935
0.00529935
0.00537102
0.00537102
0.0054421
0.0054421
0.00551254
0.00551254
0.00558229
0.00558229
0.00565128
0.00565128
0.00571946
0.00571946
0.00578679
0.00578679
0.00585321
0.00585321
0.00591869
0.00591869
0.00598321
0.00598321
0.00604677
0.00604677
0.00610937
0.00610937
0.00617101
0.00617101
0.00623172
0.00623172
0.00629154
0.00629154
0.00635054
0.00635054
0.00640874
0.00640874
0.00646619
0.00646619
0.00652292
0.00652292
0.00657893
0.00657893
0.0066342
0.0066342
0.0066887
0.0066887
0.0067424
0.0067424
0.00679532
0.00679532
0.00684748
0.00684748
0.00689893
0.00689893
0.00694975
0.00694975
0.00699995
0.00699995
0.00704957
0.00704957
0.00709861
0.00709861
0.00714704
0.00714704
0.00719484
0.00719484
0.00724196
0.00724196
0.00728838
0.00728838
0.00733408
0.00733408
0.00737903
0.00737903
0.00742325
0.00742325
0.00746674
0.00746674
0.00750953
0.00750953
0.00755162
0.00755162
0.00759306
0.00759306
0.00763385
0.00763385
0.00767403
0.00767403
0.0077136
0.0077136
0.00775257
0.00775257
0.00779095
0.00779095
0.00782873
0.00782873
0.00786592
0.00786592
0.00790251
0.00790251
0.0079385
0.0079385
0.00797388
0.00797388
0.00800865
0.00800865
0.00804283
0.00804283
0.00807643
0.00807643
0.00810946
0.00810946
0.00814193
0.00814193
0.00817385
0.00817385
0.00820521
0.00820521
0.008236
0.008236
0.00826623
0.00826623
0.00829586
0.00829586
0.00832491
0.00832491
0.00835334
0.00835334
0.00838117
0.00838117
0.00840837
0.00840837
0.00843495
0.00843495
0.00846089
0.00846089
0.00848621
0.00848621
0.00851088
0.00851088
0.00853491
0.00853491
0.00855829
0.00855829
0.00858102
0.00858102
0.00860308
0.00860308
0.00862446
0.00862446
0.00864516
0.00864516
0.00866516
0.00866516
0.00868445
0.00868445
0.00870304
0.00870304
0.00872093
0.00872093
0.00873812
0.00873812
0.00875462
0.00875462
0.00877042
0.00877042
0.00878554
0.00878554
0.00879999
0.00879999
0.00881375
0.00881375
0.00882685
0.00882685
0.00883928
0.00883928
0.00885103
0.00885103
0.00886211
0.00886211
0.00887252
0.00887252
0.00888225
0.00888225
0.0088913
0.0088913
0.00889965
0.00889965
0.0089073
0.0089073
0.00891425
0.00891425
0.00892049
0.00892049
0.00892601
0.00892601
0.00893081
0.00893081
0.00893489
0.00893489
0.00893826
0.00893826
0.0089409
0.0089409
0.00894281
0.00894281
0.008944
0.008944
0.00894447
0.00894447
0.0089442
0.0089442
0.0089432
0.0089432
0.00894146
0.00894146
0.00893897
0.00893897
0.00893572
0.00893572
0.00893171
0.00893171
0.00892692
0.00892692
0.00892134
0.00892134
0.00891498
0.00891498
0.00890783
0.00890783
0.00889987
0.00889987
0.00889113
0.00889113
0.00888159
0.00888159
0.00887126
0.00887126
0.00886015
0.00886015
0.00884827
0.00884827
0.00883564
0.00883564
0.00882226
0.00882226
0.00880815
0.00880815
0.00879332
0.00879332
0.0087778
0.0087778
0.0087616
0.0087616
0.00874475
0.00874475
0.00872725
0.00872725
0.00870914
0.00870914
0.00869044
0.00869044
0.00867118
0.00867118
0.00865137
0.00865137
0.00863105
0.00863105
0.00861025
0.00861025
0.008589
0.008589
0.00856733
0.00856733
0.00854528
0.00854528
0.00852289
0.00852289
0.00850019
0.00850019
0.00847724
0.00847724
0.00845406
0.00845406
0.00843072
0.00843072
0.00840724
0.00840724
0.0083837
0.0083837
0.00836012
0.00836012
0.00833657
0.00833657
0.00831309
0.00831309
0.00828975
0.00828975
0.00826658
0.00826658
0.00824364
0.00824364
0.00822098
0.00822098
0.00819866
0.00819866
0.00817672
0.00817672
0.00815521
0.00815521
0.00813417
0.00813417
0.00811365
0.00811365
0.00809367
0.00809367
0.00807428
0.00807428
0.0080555
0.0080555
0.00803734
0.00803734
0.00801984
0.00801984
0.00800298
0.00800298
0.00798678
0.00798678
0.00797122
0.00797122
0.00795629
0.00795629
0.00794194
0.00794194
0.00792815
0.00792815
0.00791487
0.00791487
0.00790203
0.00790203
0.00788955
0.00788955
0.00787735
0.00787735
0.00786534
0.00786534
0.00785338
0.00785338
0.00784137
0.00784137
0.00782915
0.00782915
0.00781657
0.00781657
0.00780346
0.00780346
0.00778963
0.00778963
0.00777488
0.00777488
0.00775901
0.00775901
0.00774179
0.00774179
0.00772298
0.00772298
0.00770235
0.00770235
0.00767963
0.00767963
0.00765457
0.00765457
0.0076269
0.0076269
0.00759633
0.00759633
0.00756258
0.00756258
0.00752536
0.00752536
0.00748437
0.00748437
0.00743932
0.00743932
0.00738993
0.00738993
0.00733595
0.00733595
0.00727709
0.00727709
0.0072131
0.0072131
0.00714375
0.00714375
0.0070688
0.0070688
0.00698804
0.00698804
0.0069013
0.0069013
0.00680841
0.00680841
0.00670925
0.00670925
0.00660371
0.00660371
0.00649174
0.00649174
0.00637331
0.00637331
0.00624846
0.00624846
0.00611724
0.00611724
0.00597977
0.00597977
0.00583619
0.00583619
0.00568671
0.00568671
0.00553159
0.00553159
0.00537113
0.00537113
0.00520569
0.00520569
0.00503567
0.00503567
0.00486152
0.00486152
0.00468375
0.00468375
0.0045029
0.0045029
0.00431955
0.00431955
0.00413432
0.00413432
0.00394786
0.00394786
0.00376085
0.00376085
0.00357398
0.00357398
0.00338793
0.00338793
0.0032034
0.0032034
0.00302108
0.00302108
0.00284164
0.00284164
0.00266572
0.00266572
0.00249392
0.00249392
0.0023268
0.0023268
0.00216487
0.00216487
0.0020086
0.0020086
0.00185836
0.00185836
0.0017145
0.0017145
0.00157726
0.00157726
0.00144685
0.00144685
0.0013234
0.0013234
0.00120696
0.00120696
0.00109754
0.00109754
0.00099509
0.00099509
0.000899505
0.000899505
0.000810634
0.000810634
0.00072829
0.00072829
0.000652253
0.000652253
0.000582274
0.000582274
0.000518083
0.000518083
0.000459397
0.000459397
0.00040592
0.00040592
0.000357352
0.000357352
0.000313388
0.000313388
0.000273727
0.000273727
0.000238072
0.000238072
0.000206132
0.000206132
0.000177626
0.000177626
0.000152283
0.000152283
0.000129842
0.000129842
0.000110056
0.000110056
9.26899e-05
9.26899e-05
7.75224e-05
7.75224e-05
6.43447e-05
6.43447e-05
5.29613e-05
5.29613e-05
4.31895e-05
4.31895e-05
3.4859e-05
3.4859e-05
2.78119e-05
2.78119e-05
2.19018e-05
2.19018e-05
1.69933e-05
1.69933e-05
1.29619e-05
1.29619e-05
9.69321e-06
9.69321e-06
7.08229e-06
7.08229e-06
5.03344e-06
5.03344e-06
3.45951e-06
3.45951e-06
2.28149e-06
2.28149e-06
1.42805e-06
1.42805e-06
8.35148e-07
8.35148e-07
4.45695e-07
4.45695e-07
2.09276e-07
2.09276e-07
8.21477e-08
8.21477e-08
2.80902e-08
2.80902e-08
2.4997e-08
2.4997e-08
1.49941e-07
1.49941e-07
)
;

boundaryField
{
    walls
    {
        type            kqRWallFunction;
        value           nonuniform List<scalar> 8(1.49939e-07 1.49939e-07 1.49939e-07 1.49939e-07 1.49941e-07 1.49941e-07 1.49941e-07 1.49941e-07);
    }
    inlet
    {
        type            cyclic;
    }
    outlet
    {
        type            cyclic;
    }
    sides
    {
        type            empty;
    }
}


// ************************************************************************* //
