/*--------------------------------*- C++ -*----------------------------------*\
| =========                 |                                                 |
| \\      /  F ield         | OpenFOAM: The Open Source CFD Toolbox           |
|  \\    /   O peration     | Version:  2012                                  |
|   \\  /    A nd           | Website:  www.openfoam.com                      |
|    \\/     M anipulation  |                                                 |
\*---------------------------------------------------------------------------*/
FoamFile
{
    version     2.0;
    format      ascii;
    class       volScalarField;
    location    "11000";
    object      p;
}
// * * * * * * * * * * * * * * * * * * * * * * * * * * * * * * * * * * * * * //

dimensions      [0 2 -2 0 0 0 0];


internalField   nonuniform List<scalar> 
2560
(
-3.3209e-11
-6.63119e-10
-1.7748e-10
-7.58241e-10
-7.59813e-10
-1.30431e-09
-2.53374e-09
-3.06127e-09
-6.64373e-09
-7.17465e-09
-1.46574e-08
-1.51921e-08
-2.85341e-08
-2.90679e-08
-5.06284e-08
-5.11567e-08
-8.37051e-08
-8.42272e-08
-1.30939e-07
-1.31455e-07
-1.95918e-07
-1.96428e-07
-2.82648e-07
-2.83152e-07
-3.95532e-07
-3.9603e-07
-5.39387e-07
-5.39878e-07
-7.19438e-07
-7.19923e-07
-9.41302e-07
-9.4178e-07
-1.21097e-06
-1.21144e-06
-1.53484e-06
-1.5353e-06
-1.91968e-06
-1.92014e-06
-2.37262e-06
-2.37307e-06
-2.90109e-06
-2.90153e-06
-3.51296e-06
-3.5134e-06
-4.21641e-06
-4.21685e-06
-5.01983e-06
-5.02026e-06
-5.93197e-06
-5.9324e-06
-6.96201e-06
-6.96243e-06
-8.11925e-06
-8.11967e-06
-9.41316e-06
-9.41357e-06
-1.08536e-05
-1.0854e-05
-1.24507e-05
-1.24511e-05
-1.42148e-05
-1.42152e-05
-1.61561e-05
-1.61565e-05
-1.82853e-05
-1.82857e-05
-2.06134e-05
-2.06138e-05
-2.31512e-05
-2.31516e-05
-2.59096e-05
-2.591e-05
-2.88999e-05
-2.89003e-05
-3.21336e-05
-3.2134e-05
-3.56218e-05
-3.56222e-05
-3.93757e-05
-3.93761e-05
-4.34069e-05
-4.34073e-05
-4.77272e-05
-4.77275e-05
-5.23478e-05
-5.23482e-05
-5.72802e-05
-5.72805e-05
-6.25358e-05
-6.25361e-05
-6.81262e-05
-6.81266e-05
-7.40629e-05
-7.40633e-05
-8.03569e-05
-8.03573e-05
-8.70201e-05
-8.70204e-05
-9.40639e-05
-9.40643e-05
-0.000101498
-0.000101498
-0.000109334
-0.000109334
-0.000117583
-0.000117584
-0.000126257
-0.000126257
-0.000135364
-0.000135365
-0.000144917
-0.000144917
-0.000154925
-0.000154925
-0.000165398
-0.000165398
-0.000176346
-0.000176346
-0.000187777
-0.000187777
-0.000199701
-0.000199702
-0.00021213
-0.00021213
-0.000225071
-0.000225071
-0.000238529
-0.000238529
-0.000252515
-0.000252515
-0.000267038
-0.000267038
-0.000282102
-0.000282103
-0.000297715
-0.000297715
-0.000313883
-0.000313883
-0.000330613
-0.000330613
-0.000347909
-0.000347909
-0.000365775
-0.000365775
-0.000384216
-0.000384216
-0.000403234
-0.000403235
-0.000422834
-0.000422835
-0.000443018
-0.000443019
-0.000463787
-0.000463788
-0.000485141
-0.000485141
-0.000507079
-0.000507079
-0.000529601
-0.000529602
-0.000552707
-0.000552708
-0.000576392
-0.000576392
-0.000600653
-0.000600654
-0.000625487
-0.000625487
-0.000650885
-0.000650886
-0.000676844
-0.000676844
-0.000703359
-0.000703359
-0.00073042
-0.00073042
-0.00075802
-0.00075802
-0.000786145
-0.000786145
-0.000814785
-0.000814786
-0.000843932
-0.000843932
-0.000873574
-0.000873574
-0.000903694
-0.000903694
-0.000934277
-0.000934277
-0.000965314
-0.000965314
-0.000996786
-0.000996786
-0.00102867
-0.00102867
-0.00106096
-0.00106096
-0.00109363
-0.00109363
-0.00112667
-0.00112667
-0.00116005
-0.00116005
-0.00119375
-0.00119375
-0.00122775
-0.00122775
-0.00126204
-0.00126204
-0.00129658
-0.00129658
-0.00133136
-0.00133136
-0.00136635
-0.00136635
-0.00140154
-0.00140154
-0.00143689
-0.00143689
-0.00147238
-0.00147238
-0.00150798
-0.00150798
-0.00154368
-0.00154368
-0.00157945
-0.00157945
-0.00161526
-0.00161526
-0.00165109
-0.00165109
-0.00168692
-0.00168692
-0.00172271
-0.00172271
-0.00175845
-0.00175845
-0.0017941
-0.0017941
-0.00182965
-0.00182965
-0.00186507
-0.00186507
-0.00190034
-0.00190034
-0.00193544
-0.00193544
-0.00197033
-0.00197033
-0.002005
-0.002005
-0.00203942
-0.00203942
-0.00207358
-0.00207358
-0.00210745
-0.00210745
-0.00214101
-0.00214101
-0.00217423
-0.00217423
-0.00220711
-0.00220711
-0.00223962
-0.00223962
-0.00227173
-0.00227173
-0.00230344
-0.00230344
-0.00233472
-0.00233472
-0.00236555
-0.00236555
-0.00239593
-0.00239593
-0.00242582
-0.00242582
-0.00245522
-0.00245522
-0.00248411
-0.00248411
-0.00251247
-0.00251247
-0.00254029
-0.00254029
-0.00256757
-0.00256757
-0.00259428
-0.00259428
-0.00262041
-0.00262041
-0.00264597
-0.00264597
-0.00267093
-0.00267093
-0.00269528
-0.00269528
-0.00271903
-0.00271903
-0.00274217
-0.00274217
-0.00276468
-0.00276468
-0.00278656
-0.00278656
-0.00280782
-0.00280782
-0.00282843
-0.00282843
-0.0028484
-0.0028484
-0.00286773
-0.00286773
-0.00288642
-0.00288642
-0.00290445
-0.00290445
-0.00292184
-0.00292184
-0.00293857
-0.00293857
-0.00295466
-0.00295466
-0.00297009
-0.00297009
-0.00298488
-0.00298488
-0.00299902
-0.00299902
-0.00301251
-0.00301251
-0.00302536
-0.00302536
-0.00303757
-0.00303757
-0.00304915
-0.00304915
-0.00306009
-0.00306009
-0.0030704
-0.0030704
-0.00308009
-0.00308009
-0.00308916
-0.00308916
-0.00309762
-0.00309762
-0.00310548
-0.00310548
-0.00311274
-0.00311274
-0.00311941
-0.00311941
-0.00312551
-0.00312551
-0.00313104
-0.00313104
-0.00313601
-0.00313601
-0.00314045
-0.00314045
-0.00314435
-0.00314435
-0.00314774
-0.00314774
-0.00315062
-0.00315062
-0.003153
-0.003153
-0.0031549
-0.0031549
-0.00315633
-0.00315633
-0.00315729
-0.00315729
-0.0031578
-0.0031578
-0.00315786
-0.00315786
-0.00315748
-0.00315748
-0.00315667
-0.00315667
-0.00315544
-0.00315544
-0.00315379
-0.00315379
-0.00315175
-0.00315175
-0.00314931
-0.00314931
-0.00314648
-0.00314648
-0.00314329
-0.00314329
-0.00313973
-0.00313973
-0.00313582
-0.00313582
-0.00313157
-0.00313157
-0.00312698
-0.00312698
-0.00312206
-0.00312206
-0.00311683
-0.00311683
-0.00311128
-0.00311128
-0.00310541
-0.00310541
-0.00309925
-0.00309925
-0.00309279
-0.00309279
-0.00308605
-0.00308605
-0.00307902
-0.00307902
-0.00307172
-0.00307172
-0.00306415
-0.00306415
-0.00305632
-0.00305632
-0.00304823
-0.00304823
-0.00303989
-0.00303989
-0.00303131
-0.00303131
-0.00302249
-0.00302249
-0.00301343
-0.00301343
-0.00300413
-0.00300413
-0.00299459
-0.00299459
-0.0029848
-0.0029848
-0.00297475
-0.00297475
-0.00296445
-0.00296445
-0.00295388
-0.00295388
-0.00294305
-0.00294305
-0.00293194
-0.00293194
-0.00292057
-0.00292057
-0.00290894
-0.00290894
-0.00289708
-0.00289708
-0.00288497
-0.00288497
-0.00287262
-0.00287262
-0.00286003
-0.00286003
-0.00284719
-0.00284719
-0.00283409
-0.00283409
-0.00282073
-0.00282073
-0.00280711
-0.00280711
-0.00279323
-0.00279323
-0.00277908
-0.00277908
-0.00276466
-0.00276466
-0.00274997
-0.00274997
-0.00273501
-0.00273501
-0.00271979
-0.00271979
-0.00270431
-0.00270431
-0.0026886
-0.0026886
-0.00267264
-0.00267264
-0.00265644
-0.00265644
-0.00264001
-0.00264001
-0.00262333
-0.00262333
-0.0026064
-0.0026064
-0.00258922
-0.00258922
-0.00257177
-0.00257177
-0.00255407
-0.00255407
-0.00253611
-0.00253611
-0.0025179
-0.0025179
-0.00249945
-0.00249945
-0.00248076
-0.00248076
-0.00246186
-0.00246186
-0.00244276
-0.00244276
-0.00242349
-0.00242349
-0.00240402
-0.00240402
-0.00238436
-0.00238436
-0.00236446
-0.00236446
-0.00234431
-0.00234431
-0.00232389
-0.00232389
-0.00230318
-0.00230318
-0.00228217
-0.00228217
-0.0022609
-0.0022609
-0.00223939
-0.00223939
-0.00221767
-0.00221767
-0.00219578
-0.00219578
-0.00217369
-0.00217369
-0.0021514
-0.0021514
-0.00212888
-0.00212888
-0.00210614
-0.00210614
-0.00208318
-0.00208318
-0.00206001
-0.00206001
-0.00203664
-0.00203664
-0.00201305
-0.00201305
-0.00198924
-0.00198924
-0.00196522
-0.00196522
-0.00194096
-0.00194096
-0.00191648
-0.00191648
-0.0018918
-0.0018918
-0.00186696
-0.00186696
-0.00184196
-0.00184196
-0.00181686
-0.00181686
-0.00179169
-0.00179169
-0.00176648
-0.00176648
-0.00174128
-0.00174128
-0.00171613
-0.00171613
-0.00169105
-0.00169105
-0.00166608
-0.00166608
-0.00164125
-0.00164125
-0.00161658
-0.00161658
-0.0015921
-0.0015921
-0.00156779
-0.00156779
-0.00154364
-0.00154364
-0.00151968
-0.00151968
-0.00149596
-0.00149596
-0.00147254
-0.00147254
-0.00144954
-0.00144954
-0.00142706
-0.00142706
-0.00140525
-0.00140525
-0.00138415
-0.00138415
-0.00136383
-0.00136383
-0.00134425
-0.00134425
-0.00132547
-0.00132547
-0.00130745
-0.00130745
-0.00129039
-0.00129039
-0.00127424
-0.00127424
-0.00125925
-0.00125925
-0.00124533
-0.00124533
-0.00123274
-0.00123274
-0.00122133
-0.00122133
-0.00121144
-0.00121144
-0.00120287
-0.00120287
-0.00119594
-0.00119594
-0.00119044
-0.00119044
-0.00118674
-0.00118674
-0.00118478
-0.00118478
-3.74125e-07
-3.6854e-07
-3.74206e-07
-3.68622e-07
-3.74735e-07
-3.6915e-07
-3.76478e-07
-3.70893e-07
-3.80584e-07
-3.74999e-07
-3.88599e-07
-3.83014e-07
-4.02473e-07
-3.96889e-07
-4.24561e-07
-4.18977e-07
-4.57631e-07
-4.52047e-07
-5.04859e-07
-4.99275e-07
-5.69831e-07
-5.64248e-07
-6.56555e-07
-6.50971e-07
-7.69433e-07
-7.6385e-07
-9.13282e-07
-9.07698e-07
-1.09333e-06
-1.08774e-06
-1.31518e-06
-1.3096e-06
-1.58485e-06
-1.57926e-06
-1.90871e-06
-1.90312e-06
-2.29355e-06
-2.28796e-06
-2.74647e-06
-2.74089e-06
-3.27494e-06
-3.26935e-06
-3.8868e-06
-3.88122e-06
-4.59025e-06
-4.58467e-06
-5.39366e-06
-5.38808e-06
-6.3058e-06
-6.30022e-06
-7.33583e-06
-7.33025e-06
-8.49308e-06
-8.4875e-06
-9.78698e-06
-9.7814e-06
-1.12274e-05
-1.12218e-05
-1.28245e-05
-1.28189e-05
-1.45886e-05
-1.4583e-05
-1.65299e-05
-1.65243e-05
-1.86591e-05
-1.86535e-05
-2.09872e-05
-2.09816e-05
-2.3525e-05
-2.35194e-05
-2.62834e-05
-2.62778e-05
-2.92737e-05
-2.92682e-05
-3.25074e-05
-3.25018e-05
-3.59956e-05
-3.599e-05
-3.97495e-05
-3.97439e-05
-4.37807e-05
-4.37751e-05
-4.81009e-05
-4.80953e-05
-5.27216e-05
-5.2716e-05
-5.76539e-05
-5.76483e-05
-6.29095e-05
-6.29039e-05
-6.85e-05
-6.84944e-05
-7.44366e-05
-7.44311e-05
-8.07306e-05
-8.07251e-05
-8.73938e-05
-8.73882e-05
-9.44377e-05
-9.44321e-05
-0.000101872
-0.000101866
-0.000109707
-0.000109702
-0.000117957
-0.000117952
-0.000126631
-0.000126625
-0.000135738
-0.000135732
-0.000145291
-0.000145285
-0.000155298
-0.000155293
-0.000165772
-0.000165766
-0.00017672
-0.000176714
-0.000188151
-0.000188145
-0.000200075
-0.00020007
-0.000212504
-0.000212498
-0.000225444
-0.000225439
-0.000238902
-0.000238897
-0.000252888
-0.000252883
-0.000267411
-0.000267406
-0.000282476
-0.00028247
-0.000298089
-0.000298083
-0.000314256
-0.000314251
-0.000330987
-0.000330981
-0.000348283
-0.000348277
-0.000366149
-0.000366143
-0.00038459
-0.000384584
-0.000403608
-0.000403603
-0.000423208
-0.000423202
-0.000443392
-0.000443387
-0.000464161
-0.000464155
-0.000485514
-0.000485509
-0.000507452
-0.000507447
-0.000529975
-0.000529969
-0.000553081
-0.000553075
-0.000576766
-0.00057676
-0.000601027
-0.000601021
-0.000625861
-0.000625855
-0.000651259
-0.000651253
-0.000677218
-0.000677212
-0.000703732
-0.000703727
-0.000730794
-0.000730788
-0.000758393
-0.000758388
-0.000786519
-0.000786513
-0.000815159
-0.000815153
-0.000844306
-0.0008443
-0.000873947
-0.000873942
-0.000904068
-0.000904062
-0.000934651
-0.000934645
-0.000965687
-0.000965682
-0.00099716
-0.000997154
-0.00102905
-0.00102904
-0.00106134
-0.00106133
-0.00109401
-0.001094
-0.00112704
-0.00112703
-0.00116042
-0.00116042
-0.00119412
-0.00119412
-0.00122813
-0.00122812
-0.00126241
-0.00126241
-0.00129695
-0.00129695
-0.00133173
-0.00133173
-0.00136673
-0.00136672
-0.00140191
-0.0014019
-0.00143726
-0.00143725
-0.00147275
-0.00147274
-0.00150836
-0.00150835
-0.00154406
-0.00154405
-0.00157983
-0.00157982
-0.00161564
-0.00161563
-0.00165147
-0.00165146
-0.00168729
-0.00168728
-0.00172308
-0.00172308
-0.00175882
-0.00175882
-0.00179448
-0.00179447
-0.00183003
-0.00183002
-0.00186545
-0.00186544
-0.00190072
-0.00190071
-0.00193581
-0.0019358
-0.0019707
-0.00197069
-0.00200537
-0.00200536
-0.00203979
-0.00203979
-0.00207395
-0.00207394
-0.00210782
-0.00210781
-0.00214138
-0.00214137
-0.00217461
-0.0021746
-0.00220748
-0.00220748
-0.00223999
-0.00223998
-0.00227211
-0.0022721
-0.00230381
-0.00230381
-0.00233509
-0.00233509
-0.00236593
-0.00236592
-0.0023963
-0.0023963
-0.0024262
-0.00242619
-0.00245559
-0.00245559
-0.00248448
-0.00248447
-0.00251284
-0.00251284
-0.00254067
-0.00254066
-0.00256794
-0.00256794
-0.00259465
-0.00259465
-0.00262079
-0.00262078
-0.00264634
-0.00264633
-0.0026713
-0.00267129
-0.00269566
-0.00269565
-0.00271941
-0.0027194
-0.00274254
-0.00274254
-0.00276505
-0.00276505
-0.00278694
-0.00278693
-0.00280819
-0.00280818
-0.0028288
-0.0028288
-0.00284878
-0.00284877
-0.00286811
-0.0028681
-0.00288679
-0.00288678
-0.00290482
-0.00290482
-0.00292221
-0.0029222
-0.00293895
-0.00293894
-0.00295503
-0.00295502
-0.00297047
-0.00297046
-0.00298525
-0.00298525
-0.00299939
-0.00299938
-0.00301289
-0.00301288
-0.00302574
-0.00302573
-0.00303795
-0.00303794
-0.00304952
-0.00304951
-0.00306046
-0.00306046
-0.00307078
-0.00307077
-0.00308047
-0.00308046
-0.00308954
-0.00308953
-0.003098
-0.00309799
-0.00310585
-0.00310585
-0.00311311
-0.0031131
-0.00311978
-0.00311978
-0.00312588
-0.00312587
-0.00313141
-0.0031314
-0.00313639
-0.00313638
-0.00314082
-0.00314082
-0.00314472
-0.00314471
-0.00314812
-0.00314812
-0.00315099
-0.00315096
-0.00315338
-0.0031534
-0.00315526
-0.00315521
-0.00315672
-0.0031568
-0.00315765
-0.00315747
-0.00315818
-0.00315849
-0.00315824
-0.00315855
-0.00315784
-0.00315766
-0.00315706
-0.00315715
-0.0031558
-0.00315574
-0.00315418
-0.00315421
-0.00315211
-0.0031521
-0.00314968
-0.00314969
-0.00314685
-0.00314684
-0.00314366
-0.00314366
-0.0031401
-0.0031401
-0.00313619
-0.00313619
-0.00313194
-0.00313194
-0.00312735
-0.00312735
-0.00312244
-0.00312244
-0.0031172
-0.0031172
-0.00311165
-0.00311165
-0.00310579
-0.00310579
-0.00309963
-0.00309962
-0.00309317
-0.00309317
-0.00308642
-0.00308642
-0.0030794
-0.0030794
-0.0030721
-0.00307209
-0.00306453
-0.00306453
-0.00305669
-0.00305669
-0.0030486
-0.0030486
-0.00304027
-0.00304027
-0.00303169
-0.00303168
-0.00302287
-0.00302286
-0.00301381
-0.0030138
-0.00300451
-0.0030045
-0.00299496
-0.00299496
-0.00298517
-0.00298517
-0.00297513
-0.00297513
-0.00296482
-0.00296482
-0.00295426
-0.00295426
-0.00294342
-0.00294342
-0.00293231
-0.00293231
-0.00292094
-0.00292094
-0.00290932
-0.00290932
-0.00289745
-0.00289745
-0.00288534
-0.00288534
-0.002873
-0.002873
-0.0028604
-0.0028604
-0.00284756
-0.00284756
-0.00283446
-0.00283446
-0.00282111
-0.0028211
-0.00280749
-0.00280748
-0.0027936
-0.0027936
-0.00277946
-0.00277946
-0.00276504
-0.00276504
-0.00275034
-0.00275034
-0.00273538
-0.00273538
-0.00272016
-0.00272016
-0.00270469
-0.00270469
-0.00268897
-0.00268897
-0.00267302
-0.00267302
-0.00265682
-0.00265682
-0.00264038
-0.00264038
-0.0026237
-0.0026237
-0.00260677
-0.00260677
-0.00258959
-0.00258959
-0.00257215
-0.00257215
-0.00255444
-0.00255444
-0.00253649
-0.00253649
-0.00251828
-0.00251828
-0.00249982
-0.00249982
-0.00248114
-0.00248114
-0.00246223
-0.00246223
-0.00244314
-0.00244314
-0.00242386
-0.00242386
-0.0024044
-0.0024044
-0.00238473
-0.00238473
-0.00236483
-0.00236483
-0.00234469
-0.00234469
-0.00232427
-0.00232427
-0.00230355
-0.00230355
-0.00228255
-0.00228255
-0.00226128
-0.00226128
-0.00223977
-0.00223977
-0.00221805
-0.00221805
-0.00219615
-0.00219615
-0.00217407
-0.00217407
-0.00215177
-0.00215177
-0.00212926
-0.00212926
-0.00210651
-0.00210651
-0.00208356
-0.00208355
-0.00206039
-0.00206039
-0.00203701
-0.00203701
-0.00201342
-0.00201342
-0.00198962
-0.00198962
-0.00196559
-0.00196559
-0.00194133
-0.00194133
-0.00191685
-0.00191685
-0.00189218
-0.00189218
-0.00186733
-0.00186733
-0.00184234
-0.00184234
-0.00181724
-0.00181724
-0.00179206
-0.00179206
-0.00176686
-0.00176686
-0.00174166
-0.00174166
-0.0017165
-0.0017165
-0.00169143
-0.00169143
-0.00166646
-0.00166646
-0.00164163
-0.00164163
-0.00161695
-0.00161695
-0.00159249
-0.00159249
-0.00156816
-0.00156816
-0.00154404
-0.00154404
-0.00152004
-0.00152004
-0.00149636
-0.00149636
-0.00147289
-0.00147289
-0.00144996
-0.00144996
-0.00142739
-0.00142739
-0.00140569
-0.00140569
-0.00138444
-0.00138444
-0.00136433
-0.00136433
-0.00134449
-0.00134449
-0.00132605
-0.00132605
-0.00130758
-0.00130758
-0.00129111
-0.00129111
-0.00127418
-0.00127418
-0.00126022
-0.00126022
-0.00124495
-0.00124495
-0.00123413
-0.00123413
-0.00122041
-0.00122041
-0.00121354
-0.00121354
-0.00120101
-0.00120101
-0.00119741
-0.00119741
-0.00118715
-0.00118715
-0.00118526
-0.00118526
-0.00117964
-0.00117964
-0.00118478
-0.00118478
-0.00118674
-0.00118674
-0.00119044
-0.00119044
-0.00119594
-0.00119594
-0.00120287
-0.00120287
-0.00121143
-0.00121143
-0.00122133
-0.00122133
-0.00123274
-0.00123274
-0.00124532
-0.00124532
-0.00125925
-0.00125925
-0.00127424
-0.00127424
-0.00129039
-0.00129039
-0.00130746
-0.00130746
-0.00132548
-0.00132548
-0.00134426
-0.00134426
-0.00136383
-0.00136383
-0.00138415
-0.00138415
-0.00140524
-0.00140524
-0.00142705
-0.00142705
-0.00144954
-0.00144954
-0.00147254
-0.00147254
-0.00149596
-0.00149596
-0.00151968
-0.00151968
-0.00154364
-0.00154364
-0.00156779
-0.00156779
-0.00159211
-0.00159211
-0.00161657
-0.00161657
-0.00164125
-0.00164125
-0.00166608
-0.00166608
-0.00169104
-0.00169104
-0.00171613
-0.00171613
-0.00174128
-0.00174128
-0.00176649
-0.00176649
-0.00179169
-0.00179169
-0.00181687
-0.00181687
-0.00184196
-0.00184196
-0.00186695
-0.00186695
-0.0018918
-0.0018918
-0.00191647
-0.00191647
-0.00194096
-0.00194096
-0.00196521
-0.00196521
-0.00198924
-0.00198924
-0.00201305
-0.00201305
-0.00203664
-0.00203664
-0.00206001
-0.00206001
-0.00208318
-0.00208318
-0.00210613
-0.00210613
-0.00212887
-0.00212887
-0.00215139
-0.00215139
-0.00217369
-0.00217369
-0.00219577
-0.00219577
-0.00221768
-0.00221768
-0.00223939
-0.00223939
-0.00226089
-0.00226089
-0.00228217
-0.00228217
-0.00230318
-0.00230318
-0.0023239
-0.0023239
-0.00234431
-0.00234431
-0.00236445
-0.00236445
-0.00238435
-0.00238435
-0.00240403
-0.00240403
-0.00242349
-0.00242349
-0.00244277
-0.00244277
-0.00246187
-0.00246187
-0.00248077
-0.00248077
-0.00249944
-0.00249944
-0.00251789
-0.00251789
-0.00253612
-0.00253612
-0.00255407
-0.00255407
-0.00257179
-0.00257179
-0.00258921
-0.00258921
-0.00260638
-0.00260638
-0.00262332
-0.00262332
-0.00263999
-0.00263999
-0.00265643
-0.00265643
-0.00267264
-0.00267264
-0.0026886
-0.0026886
-0.00270433
-0.00270433
-0.0027198
-0.0027198
-0.00273502
-0.00273502
-0.00274997
-0.00274997
-0.00276467
-0.00276467
-0.00277908
-0.00277908
-0.00279322
-0.00279322
-0.00280712
-0.00280712
-0.00282072
-0.00282072
-0.00283408
-0.00283408
-0.0028472
-0.0028472
-0.00286003
-0.00286003
-0.00287261
-0.00287261
-0.00288497
-0.00288497
-0.00289707
-0.00289707
-0.00290893
-0.00290893
-0.00292056
-0.00292056
-0.00293195
-0.00293195
-0.00294306
-0.00294306
-0.00295388
-0.00295388
-0.00296446
-0.00296446
-0.00297476
-0.00297476
-0.00298479
-0.00298479
-0.00299458
-0.00299458
-0.00300414
-0.00300414
-0.00301344
-0.00301344
-0.0030225
-0.0030225
-0.00303133
-0.00303133
-0.0030399
-0.0030399
-0.00304823
-0.00304823
-0.00305633
-0.00305633
-0.00306415
-0.00306415
-0.00307171
-0.00307171
-0.00307902
-0.00307902
-0.00308604
-0.00308604
-0.00309279
-0.00309279
-0.00309925
-0.00309925
-0.00310542
-0.00310542
-0.00311127
-0.00311127
-0.00311682
-0.00311682
-0.00312207
-0.00312207
-0.00312698
-0.00312698
-0.00313157
-0.00313157
-0.00313582
-0.00313582
-0.00313973
-0.00313973
-0.00314328
-0.00314328
-0.00314648
-0.00314648
-0.00314931
-0.00314931
-0.00315175
-0.00315175
-0.00315379
-0.00315379
-0.00315544
-0.00315544
-0.00315667
-0.00315667
-0.00315748
-0.00315748
-0.00315786
-0.00315786
-0.0031578
-0.0031578
-0.00315729
-0.00315729
-0.00315633
-0.00315633
-0.0031549
-0.0031549
-0.003153
-0.003153
-0.00315062
-0.00315062
-0.00314774
-0.00314774
-0.00314435
-0.00314435
-0.00314045
-0.00314045
-0.00313602
-0.00313602
-0.00313103
-0.00313103
-0.00312552
-0.00312552
-0.00311942
-0.00311942
-0.00311273
-0.00311273
-0.00310546
-0.00310546
-0.00309761
-0.00309761
-0.00308918
-0.00308918
-0.00308012
-0.00308012
-0.00307041
-0.00307041
-0.00306011
-0.00306011
-0.00304916
-0.00304916
-0.00303756
-0.00303756
-0.00302534
-0.00302534
-0.0030125
-0.0030125
-0.00299903
-0.00299903
-0.00298485
-0.00298485
-0.00297007
-0.00297007
-0.00295463
-0.00295463
-0.00293854
-0.00293854
-0.00292188
-0.00292188
-0.00290446
-0.00290446
-0.00288639
-0.00288639
-0.00286778
-0.00286778
-0.0028484
-0.0028484
-0.00282839
-0.00282839
-0.00280787
-0.00280787
-0.00278661
-0.00278661
-0.00276473
-0.00276473
-0.00274221
-0.00274221
-0.002719
-0.002719
-0.00269529
-0.00269529
-0.00267091
-0.00267091
-0.00264594
-0.00264594
-0.00262043
-0.00262043
-0.00259423
-0.00259423
-0.00256745
-0.00256745
-0.0025403
-0.0025403
-0.00251254
-0.00251254
-0.00248404
-0.00248404
-0.00245516
-0.00245516
-0.00242583
-0.00242583
-0.00239596
-0.00239596
-0.00236561
-0.00236561
-0.00233485
-0.00233485
-0.00230356
-0.00230356
-0.00227167
-0.00227167
-0.0022396
-0.0022396
-0.00220722
-0.00220722
-0.00217416
-0.00217416
-0.00214086
-0.00214086
-0.00210748
-0.00210748
-0.00207371
-0.00207371
-0.00203948
-0.00203948
-0.00200496
-0.00200496
-0.00197037
-0.00197037
-0.00193555
-0.00193555
-0.00190037
-0.00190037
-0.00186498
-0.00186498
-0.00182975
-0.00182975
-0.00179421
-0.00179421
-0.00175836
-0.00175836
-0.00172283
-0.00172283
-0.0016871
-0.0016871
-0.00165103
-0.00165103
-0.00161514
-0.00161514
-0.0015794
-0.0015794
-0.00154352
-0.00154352
-0.00150795
-0.00150795
-0.00147246
-0.00147246
-0.00143675
-0.00143675
-0.00140151
-0.00140151
-0.00136643
-0.00136643
-0.00133123
-0.00133123
-0.00129658
-0.00129658
-0.00126224
-0.00126224
-0.00122771
-0.00122771
-0.00119356
-0.00119356
-0.00116006
-0.00116006
-0.00112667
-0.00112667
-0.00109353
-0.00109353
-0.00106086
-0.00106086
-0.0010287
-0.0010287
-0.000996836
-0.000996836
-0.000965291
-0.000965291
-0.000934387
-0.000934387
-0.000903833
-0.000903833
-0.000873721
-0.000873721
-0.000844125
-0.000844125
-0.000814775
-0.000814775
-0.000785929
-0.000785929
-0.000757772
-0.000757772
-0.00073032
-0.00073032
-0.000703412
-0.000703412
-0.000676846
-0.000676846
-0.000650899
-0.000650899
-0.000625577
-0.000625577
-0.000600641
-0.000600641
-0.000576354
-0.000576354
-0.000552718
-0.000552718
-0.000529508
-0.000529508
-0.000506966
-0.000506966
-0.000485091
-0.000485092
-0.000463673
-0.000463673
-0.000442931
-0.000442931
-0.000422867
-0.000422867
-0.000403305
-0.000403305
-0.000384269
-0.000384269
-0.000365747
-0.000365747
-0.000347909
-0.000347909
-0.000330761
-0.000330761
-0.000313972
-0.000313972
-0.000297716
-0.000297716
-0.000282144
-0.000282144
-0.000267091
-0.000267091
-0.00025256
-0.00025256
-0.000238555
-0.000238555
-0.000225065
-0.000225065
-0.000212086
-0.000212086
-0.000199734
-0.000199734
-0.000187885
-0.000187885
-0.000176418
-0.000176418
-0.000165445
-0.000165446
-0.000154963
-0.000154963
-0.000144956
-0.000144956
-0.000135421
-0.000135421
-0.000126346
-0.000126346
-0.000117635
-0.000117635
-0.000109283
-0.000109283
-0.000101449
-0.000101449
-9.41175e-05
-9.41176e-05
-8.71168e-05
-8.71168e-05
-8.03788e-05
-8.03788e-05
-7.40376e-05
-7.40376e-05
-6.81443e-05
-6.81443e-05
-6.25638e-05
-6.25638e-05
-5.72786e-05
-5.72786e-05
-5.23424e-05
-5.23425e-05
-4.77429e-05
-4.7743e-05
-4.34197e-05
-4.34197e-05
-3.93617e-05
-3.93618e-05
-3.56055e-05
-3.56055e-05
-3.21373e-05
-3.21374e-05
-2.89078e-05
-2.89079e-05
-2.59067e-05
-2.59067e-05
-2.31551e-05
-2.31551e-05
-2.06158e-05
-2.06159e-05
-1.82752e-05
-1.82753e-05
-1.61514e-05
-1.61514e-05
-1.42322e-05
-1.42323e-05
-1.24814e-05
-1.24815e-05
-1.08708e-05
-1.08709e-05
-9.41305e-06
-9.41309e-06
-8.11659e-06
-8.11663e-06
-6.95646e-06
-6.95651e-06
-5.9207e-06
-5.92074e-06
-5.01211e-06
-5.01215e-06
-4.21159e-06
-4.21163e-06
-3.50847e-06
-3.50851e-06
-2.90322e-06
-2.90326e-06
-2.38011e-06
-2.38015e-06
-1.92447e-06
-1.92451e-06
-1.53617e-06
-1.53621e-06
-1.21389e-06
-1.21393e-06
-9.45897e-07
-9.45939e-07
-7.21884e-07
-7.21926e-07
-5.39646e-07
-5.39688e-07
-3.96356e-07
-3.96398e-07
-2.84308e-07
-2.8435e-07
-1.9685e-07
-1.96892e-07
-1.31161e-07
-1.31202e-07
-8.42656e-08
-8.43058e-08
-5.16303e-08
-5.167e-08
-2.94526e-08
-2.94922e-08
-1.54398e-08
-1.54793e-08
-7.49122e-09
-7.53175e-09
-3.4557e-09
-3.49647e-09
-1.67246e-09
-1.71634e-09
-1.07654e-09
-1.13096e-09
-9.37829e-10
-1.00806e-09
-0.00117964
-0.00117964
-0.00118525
-0.00118525
-0.00118715
-0.00118715
-0.00119741
-0.00119741
-0.00120101
-0.00120101
-0.00121354
-0.00121354
-0.00122041
-0.00122041
-0.00123413
-0.00123413
-0.00124495
-0.00124495
-0.00126022
-0.00126022
-0.00127419
-0.00127419
-0.00129111
-0.00129111
-0.00130758
-0.00130758
-0.00132606
-0.00132606
-0.00134449
-0.00134449
-0.00136433
-0.00136433
-0.00138444
-0.00138444
-0.00140569
-0.00140569
-0.00142738
-0.00142738
-0.00144996
-0.00144996
-0.0014729
-0.0014729
-0.00149636
-0.00149636
-0.00152004
-0.00152004
-0.00154403
-0.00154403
-0.00156816
-0.00156816
-0.00159249
-0.00159249
-0.00161695
-0.00161695
-0.00164163
-0.00164163
-0.00166646
-0.00166646
-0.00169142
-0.00169142
-0.00171651
-0.00171651
-0.00174166
-0.00174166
-0.00176687
-0.00176687
-0.00179207
-0.00179207
-0.00181725
-0.00181725
-0.00184234
-0.00184234
-0.00186733
-0.00186733
-0.00189218
-0.00189218
-0.00191685
-0.00191685
-0.00194134
-0.00194134
-0.00196559
-0.00196559
-0.00198962
-0.00198962
-0.00201343
-0.00201343
-0.00203701
-0.00203701
-0.00206038
-0.00206038
-0.00208356
-0.00208356
-0.00210651
-0.00210651
-0.00212925
-0.00212925
-0.00215177
-0.00215177
-0.00217406
-0.00217406
-0.00219614
-0.00219614
-0.00221806
-0.00221806
-0.00223977
-0.00223977
-0.00226126
-0.00226126
-0.00228255
-0.00228255
-0.00230355
-0.00230355
-0.00232427
-0.00232427
-0.00234469
-0.00234469
-0.00236482
-0.00236483
-0.00238472
-0.00238472
-0.00240441
-0.00240441
-0.00242386
-0.00242387
-0.00244315
-0.00244315
-0.00246224
-0.00246224
-0.00248115
-0.00248115
-0.00249982
-0.00249982
-0.00251826
-0.00251826
-0.00253649
-0.0025365
-0.00255445
-0.00255445
-0.00257216
-0.00257216
-0.00258958
-0.00258958
-0.00260676
-0.00260676
-0.0026237
-0.0026237
-0.00264037
-0.00264037
-0.00265681
-0.00265681
-0.00267301
-0.00267301
-0.00268898
-0.00268898
-0.0027047
-0.0027047
-0.00272018
-0.00272018
-0.00273539
-0.00273539
-0.00275035
-0.00275035
-0.00276504
-0.00276504
-0.00277945
-0.00277945
-0.0027936
-0.0027936
-0.00280749
-0.00280749
-0.0028211
-0.0028211
-0.00283445
-0.00283445
-0.00284757
-0.00284757
-0.0028604
-0.00286041
-0.00287298
-0.00287298
-0.00288534
-0.00288534
-0.00289745
-0.00289745
-0.00290931
-0.00290931
-0.00292093
-0.00292093
-0.00293233
-0.00293233
-0.00294343
-0.00294343
-0.00295426
-0.00295426
-0.00296483
-0.00296483
-0.00297513
-0.00297513
-0.00298516
-0.00298516
-0.00299496
-0.00299496
-0.00300451
-0.00300451
-0.00301381
-0.00301381
-0.00302287
-0.00302287
-0.0030317
-0.0030317
-0.00304027
-0.00304027
-0.0030486
-0.0030486
-0.0030567
-0.0030567
-0.00306453
-0.00306453
-0.00307208
-0.00307208
-0.00307939
-0.00307939
-0.00308642
-0.00308642
-0.00309316
-0.00309316
-0.00309963
-0.00309963
-0.00310579
-0.00310579
-0.00311164
-0.00311164
-0.0031172
-0.0031172
-0.00312244
-0.00312244
-0.00312735
-0.00312735
-0.00313194
-0.00313194
-0.0031362
-0.0031362
-0.0031401
-0.0031401
-0.00314366
-0.00314366
-0.00314684
-0.00314685
-0.0031497
-0.00314969
-0.0031521
-0.00315212
-0.00315421
-0.00315418
-0.00315574
-0.0031558
-0.00315716
-0.00315706
-0.00315766
-0.00315784
-0.00315855
-0.00315824
-0.00315849
-0.00315818
-0.00315747
-0.00315765
-0.0031568
-0.00315672
-0.00315521
-0.00315526
-0.0031534
-0.00315338
-0.00315097
-0.00315099
-0.00314812
-0.00314812
-0.00314471
-0.00314472
-0.00314082
-0.00314083
-0.00313638
-0.00313639
-0.0031314
-0.00313141
-0.00312588
-0.00312589
-0.00311979
-0.0031198
-0.0031131
-0.0031131
-0.00310583
-0.00310583
-0.00309798
-0.00309798
-0.00308955
-0.00308955
-0.00308048
-0.00308049
-0.00307078
-0.00307079
-0.00306048
-0.00306049
-0.00304953
-0.00304953
-0.00303793
-0.00303793
-0.00302571
-0.00302571
-0.00301287
-0.00301287
-0.0029994
-0.0029994
-0.00298522
-0.00298523
-0.00297044
-0.00297044
-0.002955
-0.00295501
-0.00293891
-0.00293892
-0.00292225
-0.00292226
-0.00290483
-0.00290484
-0.00288676
-0.00288677
-0.00286815
-0.00286815
-0.00284877
-0.00284878
-0.00282876
-0.00282877
-0.00280824
-0.00280825
-0.00278698
-0.00278698
-0.0027651
-0.0027651
-0.00274258
-0.00274258
-0.00271936
-0.00271937
-0.00269566
-0.00269567
-0.00267128
-0.00267128
-0.00264631
-0.00264632
-0.0026208
-0.0026208
-0.00259459
-0.0025946
-0.00256782
-0.00256783
-0.00254066
-0.00254067
-0.0025129
-0.00251291
-0.00248441
-0.00248442
-0.00245553
-0.00245554
-0.00242619
-0.0024262
-0.00239633
-0.00239634
-0.00236598
-0.00236599
-0.00233522
-0.00233522
-0.00230393
-0.00230393
-0.00227204
-0.00227204
-0.00223997
-0.00223997
-0.00220759
-0.0022076
-0.00217453
-0.00217454
-0.00214123
-0.00214123
-0.00210785
-0.00210785
-0.00207408
-0.00207409
-0.00203985
-0.00203986
-0.00200533
-0.00200534
-0.00197074
-0.00197075
-0.00193592
-0.00193593
-0.00190073
-0.00190074
-0.00186535
-0.00186536
-0.00183012
-0.00183013
-0.00179457
-0.00179458
-0.00175873
-0.00175873
-0.0017232
-0.0017232
-0.00168747
-0.00168748
-0.0016514
-0.00165141
-0.00161551
-0.00161552
-0.00157977
-0.00157977
-0.00154389
-0.00154389
-0.00150832
-0.00150832
-0.00147282
-0.00147283
-0.00143712
-0.00143712
-0.00140188
-0.00140188
-0.00136679
-0.0013668
-0.0013316
-0.0013316
-0.00129694
-0.00129695
-0.00126261
-0.00126261
-0.00122807
-0.00122808
-0.00119393
-0.00119394
-0.00116043
-0.00116043
-0.00112704
-0.00112705
-0.00109389
-0.0010939
-0.00106123
-0.00106123
-0.00102907
-0.00102907
-0.000997204
-0.00099721
-0.000965659
-0.000965665
-0.000934755
-0.000934761
-0.000904201
-0.000904207
-0.00087409
-0.000874095
-0.000844493
-0.000844499
-0.000815144
-0.000815149
-0.000786297
-0.000786303
-0.000758141
-0.000758146
-0.000730688
-0.000730694
-0.00070378
-0.000703786
-0.000677214
-0.00067722
-0.000651268
-0.000651273
-0.000625946
-0.000625951
-0.00060101
-0.000601016