/*--------------------------------*- C++ -*----------------------------------*\
| =========                 |                                                 |
| \\      /  F ield         | OpenFOAM: The Open Source CFD Toolbox           |
|  \\    /   O peration     | Version:  2012                                  |
|   \\  /    A nd           | Website:  www.openfoam.com                      |
|    \\/     M anipulation  |                                                 |
\*---------------------------------------------------------------------------*/
FoamFile
{
    version     2.0;
    format      ascii;
    class       volSymmTensorField;
    location    "11000";
    object      turbulenceProperties:R;
}
// * * * * * * * * * * * * * * * * * * * * * * * * * * * * * * * * * * * * * //

dimensions      [0 2 -2 0 0 0 0];


internalField   nonuniform List<symmTensor> 
2560
(
(9.99595e-08 -2.91775e-12 -4.22385e-15 9.99595e-08 -1.3518e-19 9.99595e-08)
(9.99595e-08 -2.91775e-12 -4.22385e-15 9.99595e-08 -1.33354e-19 9.99595e-08)
(1.66646e-08 -2.79543e-12 -1.22e-14 1.66646e-08 -1.19122e-20 1.66646e-08)
(1.66646e-08 -2.79543e-12 -1.22e-14 1.66646e-08 -1.16672e-20 1.66646e-08)
(1.87269e-08 -9.26554e-12 -5.56155e-14 1.87269e-08 -2.22249e-20 1.87269e-08)
(1.87269e-08 -9.26554e-12 -5.56155e-14 1.87269e-08 -2.19008e-20 1.87269e-08)
(5.47657e-08 -5.74503e-11 -3.49848e-13 5.47657e-08 -1.76679e-19 5.47657e-08)
(5.47657e-08 -5.74503e-11 -3.49848e-13 5.47657e-08 -1.77801e-19 5.47657e-08)
(1.39519e-07 -2.58161e-10 -1.59493e-12 1.39519e-07 -1.11248e-18 1.39519e-07)
(1.39519e-07 -2.58161e-10 -1.59493e-12 1.39519e-07 -1.11157e-18 1.39519e-07)
(2.97133e-07 -8.6548e-10 -5.42459e-12 2.97133e-07 -5.43113e-18 2.97133e-07)
(2.97133e-07 -8.6548e-10 -5.42459e-12 2.97133e-07 -5.41224e-18 2.97133e-07)
(5.5677e-07 -2.36539e-09 -1.50408e-11 5.5677e-07 -2.16708e-17 5.5677e-07)
(5.5677e-07 -2.36539e-09 -1.50408e-11 5.5677e-07 -2.16158e-17 5.5677e-07)
(9.52038e-07 -5.58748e-09 -3.60449e-11 9.52038e-07 -7.36828e-17 9.52038e-07)
(9.52038e-07 -5.58748e-09 -3.60449e-11 9.52038e-07 -7.36106e-17 9.52038e-07)
(1.521e-06 -1.18426e-08 -7.75055e-11 1.521e-06 -2.20415e-16 1.521e-06)
(1.521e-06 -1.18426e-08 -7.75055e-11 1.521e-06 -2.20222e-16 1.521e-06)
(2.30636e-06 -2.30896e-08 -1.53306e-10 2.30636e-06 -5.9264e-16 2.30636e-06)
(2.30636e-06 -2.30896e-08 -1.53306e-10 2.30636e-06 -5.92456e-16 2.30636e-06)
(3.35565e-06 -4.21346e-08 -2.83815e-10 3.35565e-06 -1.46002e-15 3.35565e-06)
(3.35565e-06 -4.21346e-08 -2.83815e-10 3.35565e-06 -1.45964e-15 3.35565e-06)
(4.72157e-06 -7.28672e-08 -4.97946e-10 4.72157e-06 -3.34142e-15 4.72157e-06)
(4.72157e-06 -7.28672e-08 -4.97946e-10 4.72157e-06 -3.34031e-15 4.72157e-06)
(6.46219e-06 -1.20536e-07 -8.3564e-10 6.46219e-06 -7.18182e-15 6.46219e-06)
(6.46219e-06 -1.20536e-07 -8.3564e-10 6.46219e-06 -7.18031e-15 6.46219e-06)
(8.64135e-06 -1.9207e-07 -1.35087e-09 8.64135e-06 -6.91994e-15 8.64135e-06)
(8.64135e-06 -1.9207e-07 -1.35087e-09 8.64135e-06 -5.33792e-15 8.64135e-06)
(1.1329e-05 -2.96447e-07 -2.11518e-09 1.1329e-05 -4.02336e-15 1.1329e-05)
(1.1329e-05 -2.96447e-07 -2.11518e-09 1.1329e-05 -3.40028e-15 1.1329e-05)
(1.46013e-05 -4.45111e-07 -3.22192e-09 1.46013e-05 -4.13563e-15 1.46013e-05)
(1.46013e-05 -4.45111e-07 -3.22192e-09 1.46013e-05 -4.07654e-15 1.46013e-05)
(1.85414e-05 -6.52452e-07 -4.79113e-09 1.85414e-05 -9.32346e-15 1.85414e-05)
(1.85414e-05 -6.52452e-07 -4.79113e-09 1.85414e-05 -1.10003e-14 1.85414e-05)
(2.32395e-05 -9.36333e-07 -6.97528e-09 2.32395e-05 -4.23946e-14 2.32395e-05)
(2.32395e-05 -9.36333e-07 -6.97528e-09 2.32395e-05 -4.48947e-14 2.32395e-05)
(2.87932e-05 -1.31868e-06 -9.96576e-09 2.87932e-05 -1.00539e-13 2.87932e-05)
(2.87932e-05 -1.31868e-06 -9.96576e-09 2.87932e-05 -1.00591e-13 2.87932e-05)
(3.53078e-05 -1.82613e-06 -1.40004e-08 3.53078e-05 -1.57762e-13 3.53078e-05)
(3.53078e-05 -1.82613e-06 -1.40004e-08 3.53078e-05 -1.57839e-13 3.53078e-05)
(4.28968e-05 -2.49073e-06 -1.93718e-08 4.28968e-05 -2.42483e-13 4.28968e-05)
(4.28968e-05 -2.49073e-06 -1.93718e-08 4.28968e-05 -2.42663e-13 4.28968e-05)
(5.1682e-05 -3.35068e-06 -2.64367e-08 5.1682e-05 -3.65674e-13 5.1682e-05)
(5.1682e-05 -3.35068e-06 -2.64367e-08 5.1682e-05 -3.65905e-13 5.1682e-05)
(6.17937e-05 -4.45114e-06 -3.56266e-08 6.17937e-05 -5.42036e-13 6.17937e-05)
(6.17937e-05 -4.45114e-06 -3.56266e-08 6.17937e-05 -5.42266e-13 6.17937e-05)
(7.3371e-05 -5.84501e-06 -4.74586e-08 7.3371e-05 -7.91175e-13 7.3371e-05)
(7.3371e-05 -5.84501e-06 -4.74586e-08 7.3371e-05 -7.91546e-13 7.3371e-05)
(8.65618e-05 -7.59379e-06 -6.25478e-08 8.65618e-05 -1.13801e-12 8.65618e-05)
(8.65618e-05 -7.59379e-06 -6.25478e-08 8.65618e-05 -1.13847e-12 8.65618e-05)
(0.000101523 -9.76841e-06 -8.16202e-08 0.000101523 -1.61321e-12 0.000101523)
(0.000101523 -9.76841e-06 -8.16202e-08 0.000101523 -1.61378e-12 0.000101523)
(0.000118418 -1.24499e-05 -1.05526e-07 0.000118418 -2.2578e-12 0.000118418)
(0.000118418 -1.24499e-05 -1.05526e-07 0.000118418 -2.25848e-12 0.000118418)
(0.000137422 -1.57303e-05 -1.35252e-07 0.000137422 -3.1243e-12 0.000137422)
(0.000137422 -1.57303e-05 -1.35252e-07 0.000137422 -3.12511e-12 0.000137422)
(0.000158716 -1.97131e-05 -1.71938e-07 0.000158716 -4.273e-12 0.000158716)
(0.000158716 -1.97131e-05 -1.71938e-07 0.000158716 -4.27397e-12 0.000158716)
(0.000182486 -2.45135e-05 -2.16885e-07 0.000182486 -5.77551e-12 0.000182486)
(0.000182486 -2.45135e-05 -2.16885e-07 0.000182486 -5.77679e-12 0.000182486)
(0.000208926 -3.0259e-05 -2.71572e-07 0.000208926 -7.72541e-12 0.000208926)
(0.000208926 -3.0259e-05 -2.71572e-07 0.000208926 -7.72698e-12 0.000208926)
(0.000238236 -3.70892e-05 -3.3766e-07 0.000238236 -1.02353e-11 0.000238236)
(0.000238236 -3.70892e-05 -3.3766e-07 0.000238236 -1.0237e-11 0.000238236)
(0.000270615 -4.51555e-05 -4.17004e-07 0.000270615 -1.3423e-11 0.000270615)
(0.000270615 -4.51555e-05 -4.17004e-07 0.000270615 -1.34248e-11 0.000270615)
(0.000306267 -5.462e-05 -5.11655e-07 0.000306267 -1.74233e-11 0.000306267)
(0.000306267 -5.462e-05 -5.11655e-07 0.000306267 -1.74259e-11 0.000306267)
(0.000345391 -6.56549e-05 -6.23857e-07 0.000345391 -2.24105e-11 0.000345391)
(0.000345391 -6.56549e-05 -6.23857e-07 0.000345391 -2.24138e-11 0.000345391)
(0.000388185 -7.84405e-05 -7.56044e-07 0.000388185 -2.85726e-11 0.000388185)
(0.000388185 -7.84405e-05 -7.56044e-07 0.000388185 -2.85762e-11 0.000388185)
(0.000434838 -9.31633e-05 -9.1083e-07 0.000434838 -3.608e-11 0.000434838)
(0.000434838 -9.31633e-05 -9.1083e-07 0.000434838 -3.6084e-11 0.000434838)
(0.00048553 -0.000110013 -1.09099e-06 0.00048553 -4.51198e-11 0.00048553)
(0.00048553 -0.000110013 -1.09099e-06 0.00048553 -4.51241e-11 0.00048553)
(0.000540426 -0.000129179 -1.29942e-06 0.000540426 -5.59364e-11 0.000540426)
(0.000540426 -0.000129179 -1.29942e-06 0.000540426 -5.59414e-11 0.000540426)
(0.000599673 -0.000150849 -1.53913e-06 0.000599673 -6.87703e-11 0.000599673)
(0.000599673 -0.000150849 -1.53913e-06 0.000599673 -6.87763e-11 0.000599673)
(0.000663398 -0.000175201 -1.81319e-06 0.000663398 -8.37756e-11 0.000663398)
(0.000663398 -0.000175201 -1.81319e-06 0.000663398 -8.37822e-11 0.000663398)
(0.000731698 -0.000202403 -2.12468e-06 0.000731698 -1.01094e-10 0.000731698)
(0.000731698 -0.000202403 -2.12468e-06 0.000731698 -1.01101e-10 0.000731698)
(0.000804644 -0.000232604 -2.47663e-06 0.000804644 -1.20955e-10 0.000804644)
(0.000804644 -0.000232604 -2.47663e-06 0.000804644 -1.20963e-10 0.000804644)
(0.00088227 -0.000265933 -2.87199e-06 0.00088227 -1.43541e-10 0.00088227)
(0.00088227 -0.000265933 -2.87199e-06 0.00088227 -1.4355e-10 0.00088227)
(0.000964575 -0.000302494 -3.31353e-06 0.000964575 -1.68848e-10 0.000964575)
(0.000964575 -0.000302494 -3.31353e-06 0.000964575 -1.68842e-10 0.000964575)
(0.00105151 -0.000342359 -3.80379e-06 0.00105151 -1.96858e-10 0.00105151)
(0.00105151 -0.000342359 -3.80379e-06 0.00105151 -1.96852e-10 0.00105151)
(0.001143 -0.000385566 -4.34502e-06 0.001143 -2.27866e-10 0.001143)
(0.001143 -0.000385566 -4.34502e-06 0.001143 -2.27858e-10 0.001143)
(0.00123892 -0.000432115 -4.93911e-06 0.00123892 -2.61924e-10 0.00123892)
(0.00123892 -0.000432115 -4.93911e-06 0.00123892 -2.61914e-10 0.00123892)
(0.00133907 -0.000481968 -5.58755e-06 0.00133907 -2.97952e-10 0.00133907)
(0.00133907 -0.000481968 -5.58755e-06 0.00133907 -2.97942e-10 0.00133907)
(0.00144326 -0.000535044 -6.29136e-06 0.00144326 -3.366e-10 0.00144326)
(0.00144326 -0.000535044 -6.29136e-06 0.00144326 -3.3663e-10 0.00144326)
(0.00155121 -0.00059122 -7.05107e-06 0.00155121 -3.79246e-10 0.00155121)
(0.00155121 -0.00059122 -7.05107e-06 0.00155121 -3.79234e-10 0.00155121)
(0.00166262 -0.000650333 -7.86666e-06 0.00166262 -4.23758e-10 0.00166262)
(0.00166262 -0.000650333 -7.86666e-06 0.00166262 -4.23744e-10 0.00166262)
(0.00177716 -0.000712179 -8.73757e-06 0.00177716 -4.69788e-10 0.00177716)
(0.00177716 -0.000712179 -8.73757e-06 0.00177716 -4.69828e-10 0.00177716)
(0.00189444 -0.000776518 -9.66272e-06 0.00189444 -5.18955e-10 0.00189444)
(0.00189444 -0.000776518 -9.66272e-06 0.00189444 -5.18935e-10 0.00189444)
(0.00201407 -0.000843076 -1.06404e-05 0.00201407 -5.70544e-10 0.00201407)
(0.00201407 -0.000843076 -1.06404e-05 0.00201407 -5.70554e-10 0.00201407)
(0.00213561 -0.00091155 -1.16685e-05 0.00213561 -6.24261e-10 0.00213561)
(0.00213561 -0.00091155 -1.16685e-05 0.00213561 -6.24312e-10 0.00213561)
(0.00225862 -0.000981613 -1.27444e-05 0.00225862 -6.79202e-10 0.00225862)
(0.00225862 -0.000981613 -1.27444e-05 0.00225862 -6.79178e-10 0.00225862)
(0.00238265 -0.00105292 -1.38649e-05 0.00238265 -7.36682e-10 0.00238265)
(0.00238265 -0.00105292 -1.38649e-05 0.00238265 -7.36739e-10 0.00238265)
(0.00250723 -0.00112511 -1.50265e-05 0.00250723 -7.9612e-10 0.00250723)
(0.00250723 -0.00112511 -1.50265e-05 0.00250723 -7.96088e-10 0.00250723)
(0.0026319 -0.00119782 -1.62254e-05 0.0026319 -8.62085e-10 0.0026319)
(0.0026319 -0.00119782 -1.62254e-05 0.0026319 -8.62097e-10 0.0026319)
(0.00275619 -0.00127068 -1.74575e-05 0.00275619 -9.26809e-10 0.00275619)
(0.00275619 -0.00127068 -1.74575e-05 0.00275619 -9.26771e-10 0.00275619)
(0.00287967 -0.00134332 -1.87183e-05 0.00287967 -9.92755e-10 0.00287967)
(0.00287967 -0.00134332 -1.87183e-05 0.00287967 -9.92834e-10 0.00287967)
(0.00300189 -0.00141538 -2.00033e-05 0.00300189 -1.06234e-09 0.00300189)
(0.00300189 -0.00141538 -2.00033e-05 0.00300189 -1.06235e-09 0.00300189)
(0.00312245 -0.00148653 -2.1308e-05 0.00312245 -1.14027e-09 0.00312245)
(0.00312245 -0.00148653 -2.1308e-05 0.00312245 -1.14022e-09 0.00312245)
(0.00324096 -0.00155642 -2.26276e-05 0.00324096 -1.21579e-09 0.00324096)
(0.00324096 -0.00155642 -2.26276e-05 0.00324096 -1.21588e-09 0.00324096)
(0.00335705 -0.00162475 -2.39575e-05 0.00335705 -1.29009e-09 0.00335705)
(0.00335705 -0.00162475 -2.39575e-05 0.00335705 -1.2901e-09 0.00335705)
(0.00347039 -0.00169123 -2.52932e-05 0.00347039 -1.37253e-09 0.00347039)
(0.00347039 -0.00169123 -2.52932e-05 0.00347039 -1.37252e-09 0.00347039)
(0.00358067 -0.0017556 -2.66301e-05 0.00358067 -1.46172e-09 0.00358067)
(0.00358067 -0.0017556 -2.66301e-05 0.00358067 -1.46171e-09 0.00358067)
(0.00368763 -0.00181763 -2.7964e-05 0.00368763 -1.54492e-09 0.00368763)
(0.00368763 -0.00181763 -2.7964e-05 0.00368763 -1.54485e-09 0.00368763)
(0.00379103 -0.0018771 -2.92907e-05 0.00379103 -1.63516e-09 0.00379103)
(0.00379103 -0.0018771 -2.92907e-05 0.00379103 -1.63527e-09 0.00379103)
(0.00389067 -0.00193384 -3.06065e-05 0.00389067 -1.72571e-09 0.00389067)
(0.00389067 -0.00193384 -3.06065e-05 0.00389067 -1.72564e-09 0.00389067)
(0.00398637 -0.00198769 -3.19077e-05 0.00398637 -1.82361e-09 0.00398637)
(0.00398637 -0.00198769 -3.19077e-05 0.00398637 -1.82372e-09 0.00398637)
(0.004078 -0.00203854 -3.3191e-05 0.004078 -1.91785e-09 0.004078)
(0.004078 -0.00203854 -3.3191e-05 0.004078 -1.91788e-09 0.004078)
(0.00416546 -0.00208628 -3.44534e-05 0.00416546 -2.02168e-09 0.00416546)
(0.00416546 -0.00208628 -3.44534e-05 0.00416546 -2.0217e-09 0.00416546)
(0.00424868 -0.00213086 -3.56923e-05 0.00424868 -2.11812e-09 0.00424868)
(0.00424868 -0.00213086 -3.56923e-05 0.00424868 -2.1181e-09 0.00424868)
(0.00432761 -0.00217222 -3.69051e-05 0.00432761 -2.21919e-09 0.00432761)
(0.00432761 -0.00217222 -3.69051e-05 0.00432761 -2.21932e-09 0.00432761)
(0.00440224 -0.00221036 -3.809e-05 0.00440224 -2.31701e-09 0.00440224)
(0.00440224 -0.00221036 -3.809e-05 0.00440224 -2.31703e-09 0.00440224)
(0.00447259 -0.00224528 -3.92454e-05 0.00447259 -2.42408e-09 0.00447259)
(0.00447259 -0.00224528 -3.92454e-05 0.00447259 -2.42408e-09 0.00447259)
(0.00453869 -0.00227701 -4.03699e-05 0.00453869 -2.52842e-09 0.00453869)
(0.00453869 -0.00227701 -4.03699e-05 0.00453869 -2.52853e-09 0.00453869)
(0.00460062 -0.00230561 -4.14624e-05 0.00460062 -2.62192e-09 0.00460062)
(0.00460062 -0.00230561 -4.14624e-05 0.00460062 -2.62196e-09 0.00460062)
(0.00465845 -0.00233113 -4.25223e-05 0.00465845 -2.72498e-09 0.00465845)
(0.00465845 -0.00233113 -4.25223e-05 0.00465845 -2.72513e-09 0.00465845)
(0.00471229 -0.00235368 -4.35495e-05 0.00471229 -2.81996e-09 0.00471229)
(0.00471229 -0.00235368 -4.35495e-05 0.00471229 -2.81981e-09 0.00471229)
(0.00476226 -0.00237334 -4.45438e-05 0.00476226 -2.91766e-09 0.00476226)
(0.00476226 -0.00237334 -4.45438e-05 0.00476226 -2.91781e-09 0.00476226)
(0.0048085 -0.00239024 -4.55055e-05 0.0048085 -3.00469e-09 0.0048085)
(0.0048085 -0.00239024 -4.55055e-05 0.0048085 -3.00472e-09 0.0048085)
(0.00485116 -0.00240451 -4.64354e-05 0.00485116 -3.10233e-09 0.00485116)
(0.00485116 -0.00240451 -4.64354e-05 0.00485116 -3.10234e-09 0.00485116)
(0.0048904 -0.00241627 -4.73341e-05 0.0048904 -3.19775e-09 0.0048904)
(0.0048904 -0.00241627 -4.73341e-05 0.0048904 -3.19776e-09 0.0048904)
(0.0049264 -0.00242567 -4.82028e-05 0.0049264 -3.27821e-09 0.0049264)
(0.0049264 -0.00242567 -4.82028e-05 0.0049264 -3.27838e-09 0.0049264)
(0.00495932 -0.00243287 -4.90428e-05 0.00495932 -3.3421e-09 0.00495932)
(0.00495932 -0.00243287 -4.90428e-05 0.00495932 -3.34212e-09 0.00495932)
(0.00498936 -0.00243801 -4.98558e-05 0.00498936 -3.41352e-09 0.00498936)
(0.00498936 -0.00243801 -4.98558e-05 0.00498936 -3.41368e-09 0.00498936)
(0.0050167 -0.00244127 -5.06437e-05 0.0050167 -3.47442e-09 0.0050167)
(0.0050167 -0.00244127 -5.06437e-05 0.0050167 -3.47419e-09 0.0050167)
(0.00504153 -0.00244281 -5.14085e-05 0.00504153 -3.55165e-09 0.00504153)
(0.00504153 -0.00244281 -5.14085e-05 0.00504153 -3.55163e-09 0.00504153)
(0.00506405 -0.00244278 -5.21521e-05 0.00506405 -3.59504e-09 0.00506405)
(0.00506405 -0.00244278 -5.21521e-05 0.00506405 -3.59507e-09 0.00506405)
(0.00508445 -0.00244135 -5.28771e-05 0.00508445 -3.63318e-09 0.00508445)
(0.00508445 -0.00244135 -5.28771e-05 0.00508445 -3.63334e-09 0.00508445)
(0.00510291 -0.00243869 -5.3586e-05 0.00510291 -3.66968e-09 0.00510291)
(0.00510291 -0.00243869 -5.3586e-05 0.00510291 -3.66965e-09 0.00510291)
(0.00511962 -0.00243496 -5.42813e-05 0.00511962 -3.71027e-09 0.00511962)
(0.00511962 -0.00243496 -5.42813e-05 0.00511962 -3.70998e-09 0.00511962)
(0.00513477 -0.0024303 -5.49654e-05 0.00513477 -3.72064e-09 0.00513477)
(0.00513477 -0.0024303 -5.49654e-05 0.00513477 -3.72079e-09 0.00513477)
(0.00514852 -0.00242489 -5.56416e-05 0.00514852 -3.7161e-09 0.00514852)
(0.00514852 -0.00242489 -5.56416e-05 0.00514852 -3.71576e-09 0.00514852)
(0.00516106 -0.00241886 -5.63126e-05 0.00516106 -3.72291e-09 0.00516106)
(0.00516106 -0.00241886 -5.63126e-05 0.00516106 -3.72298e-09 0.00516106)
(0.00517254 -0.00241237 -5.69812e-05 0.00517254 -3.72739e-09 0.00517254)
(0.00517254 -0.00241237 -5.69812e-05 0.00517254 -3.72753e-09 0.00517254)
(0.00518312 -0.00240554 -5.76503e-05 0.00518312 -3.71162e-09 0.00518312)
(0.00518312 -0.00240554 -5.76503e-05 0.00518312 -3.71125e-09 0.00518312)
(0.00519296 -0.00239852 -5.83228e-05 0.00519296 -3.67105e-09 0.00519296)
(0.00519296 -0.00239852 -5.83228e-05 0.00519296 -3.67117e-09 0.00519296)
(0.00520218 -0.00239141 -5.90019e-05 0.00520218 -3.60603e-09 0.00520218)
(0.00520218 -0.00239141 -5.90019e-05 0.00520218 -3.60606e-09 0.00520218)
(0.00521093 -0.00238435 -5.96904e-05 0.00521093 -3.57377e-09 0.00521093)
(0.00521093 -0.00238435 -5.96904e-05 0.00521093 -3.57335e-09 0.00521093)
(0.00521932 -0.00237745 -6.03913e-05 0.00521932 -3.51925e-09 0.00521932)
(0.00521932 -0.00237745 -6.03913e-05 0.00521932 -3.51933e-09 0.00521932)
(0.00522747 -0.0023708 -6.11073e-05 0.00522747 -3.43109e-09 0.00522747)
(0.00522747 -0.0023708 -6.11073e-05 0.00522747 -3.43112e-09 0.00522747)
(0.00523549 -0.0023645 -6.18413e-05 0.00523549 -3.34708e-09 0.00523549)
(0.00523549 -0.0023645 -6.18413e-05 0.00523549 -3.34713e-09 0.00523549)
(0.00524346 -0.00235862 -6.25959e-05 0.00524346 -3.26544e-09 0.00524346)
(0.00524346 -0.00235862 -6.25959e-05 0.00524346 -3.26551e-09 0.00524346)
(0.00525147 -0.00235326 -6.3374e-05 0.00525147 -3.15757e-09 0.00525147)
(0.00525147 -0.00235326 -6.3374e-05 0.00525147 -3.15702e-09 0.00525147)
(0.00525961 -0.00234848 -6.41779e-05 0.00525961 -3.03992e-09 0.00525961)
(0.00525961 -0.00234848 -6.41779e-05 0.00525961 -3.03995e-09 0.00525961)
(0.00526793 -0.00234434 -6.50101e-05 0.00526793 -2.90938e-09 0.00526793)
(0.00526793 -0.00234434 -6.50101e-05 0.00526793 -2.90943e-09 0.00526793)
(0.0052765 -0.00234089 -6.58732e-05 0.0052765 -2.79158e-09 0.0052765)
(0.0052765 -0.00234089 -6.58732e-05 0.0052765 -2.79097e-09 0.0052765)
(0.00528536 -0.00233818 -6.67689e-05 0.00528536 -2.64684e-09 0.00528536)
(0.00528536 -0.00233818 -6.67689e-05 0.00528536 -2.64677e-09 0.00528536)
(0.00529456 -0.00233624 -6.76994e-05 0.00529456 -2.47512e-09 0.00529456)
(0.00529456 -0.00233624 -6.76994e-05 0.00529456 -2.47448e-09 0.00529456)
(0.00530413 -0.0023351 -6.86668e-05 0.00530413 -2.32008e-09 0.00530413)
(0.00530413 -0.0023351 -6.86668e-05 0.00530413 -2.32017e-09 0.00530413)
(0.0053141 -0.00233477 -6.96725e-05 0.0053141 -2.15456e-09 0.0053141)
(0.0053141 -0.00233477 -6.96725e-05 0.0053141 -2.15448e-09 0.0053141)
(0.00532448 -0.00233528 -7.07182e-05 0.00532448 -1.98408e-09 0.00532448)
(0.00532448 -0.00233528 -7.07182e-05 0.00532448 -1.98334e-09 0.00532448)
(0.00533529 -0.00233661 -7.18051e-05 0.00533529 -1.81015e-09 0.00533529)
(0.00533529 -0.00233661 -7.18051e-05 0.00533529 -1.80999e-09 0.00533529)
(0.00534653 -0.00233877 -7.29344e-05 0.00534653 -1.59044e-09 0.00534653)
(0.00534653 -0.00233877 -7.29344e-05 0.00534653 -1.58967e-09 0.00534653)
(0.00535821 -0.00234175 -7.4107e-05 0.00535821 -1.39298e-09 0.00535821)
(0.00535821 -0.00234175 -7.4107e-05 0.00535821 -1.39282e-09 0.00535821)
(0.00537032 -0.00234553 -7.53239e-05 0.00537032 -1.2121e-09 0.00537032)
(0.00537032 -0.00234553 -7.53239e-05 0.00537032 -1.21121e-09 0.00537032)
(0.00538285 -0.00235009 -7.65855e-05 0.00538285 -1.00267e-09 0.00538285)
(0.00538285 -0.00235009 -7.65855e-05 0.00538285 -1.00239e-09 0.00538285)
(0.00539578 -0.0023554 -7.78922e-05 0.00539578 -7.90011e-10 0.00539578)
(0.00539578 -0.0023554 -7.78922e-05 0.00539578 -7.89093e-10 0.00539578)
(0.0054091 -0.00236142 -7.92442e-05 0.0054091 -5.57906e-10 0.0054091)
(0.0054091 -0.00236142 -7.92442e-05 0.0054091 -5.56939e-10 0.0054091)
(0.00542279 -0.00236812 -8.06417e-05 0.00542279 -3.36893e-10 0.00542279)
(0.00542279 -0.00236812 -8.06417e-05 0.00542279 -3.3652e-10 0.00542279)
(0.00543681 -0.00237546 -8.20845e-05 0.00543681 -2.48751e-11 0.00543681)
(0.00543681 -0.00237546 -8.20845e-05 0.00543681 -2.37202e-11 0.00543681)
(0.00545116 -0.0023834 -8.35725e-05 0.00545116 1.01282e-54 0.00545116)
(0.00545116 -0.0023834 -8.35725e-05 0.00545116 5.97204e-13 0.00545116)
(0.00546578 -0.00239189 -8.51055e-05 0.00546578 3.34778e-10 0.00546578)
(0.00546578 -0.00239189 -8.51055e-05 0.00546578 3.35907e-10 0.00546578)
(0.00548067 -0.00240089 -8.66829e-05 0.00548067 5.73819e-10 0.00548067)
(0.00548067 -0.00240089 -8.66829e-05 0.00548067 5.7502e-10 0.00548067)
(0.00549577 -0.00241034 -8.83042e-05 0.00549577 8.45173e-10 0.00549577)
(0.00549577 -0.00241034 -8.83042e-05 0.00549577 8.45765e-10 0.00549577)
(0.00551106 -0.00242021 -8.9969e-05 0.00551106 1.06482e-09 0.00551106)
(0.00551106 -0.00242021 -8.9969e-05 0.00551106 1.06611e-09 0.00551106)
(0.00552651 -0.00243044 -9.16765e-05 0.00552651 1.29362e-09 0.00552651)
(0.00552651 -0.00243044 -9.16765e-05 0.00552651 1.29497e-09 0.00552651)
(0.00554207 -0.00244098 -9.34257e-05 0.00554207 1.57128e-09 0.00554207)
(0.00554207 -0.00244098 -9.34257e-05 0.00554207 1.57263e-09 0.00554207)
(0.00555772 -0.00245179 -9.5216e-05 0.00555772 1.84707e-09 0.00555772)
(0.00555772 -0.00245179 -9.5216e-05 0.00555772 1.84846e-09 0.00555772)
(0.00557343 -0.00246281 -9.70463e-05 0.00557343 2.07824e-09 0.00557343)
(0.00557343 -0.00246281 -9.70463e-05 0.00557343 2.07974e-09 0.00557343)
(0.00558914 -0.00247401 -9.89158e-05 0.00558914 2.32656e-09 0.00558914)
(0.00558914 -0.00247401 -9.89158e-05 0.00558914 2.32814e-09 0.00558914)
(0.00560484 -0.00248533 -0.000100823 0.00560484 2.59973e-09 0.00560484)
(0.00560484 -0.00248533 -0.000100823 0.00560484 2.60133e-09 0.00560484)
(0.00562049 -0.00249672 -0.000102767 0.00562049 2.86846e-09 0.00562049)
(0.00562049 -0.00249672 -0.000102767 0.00562049 2.87017e-09 0.00562049)
(0.00563605 -0.00250814 -0.000104747 0.00563605 3.14389e-09 0.00563605)
(0.00563605 -0.00250814 -0.000104747 0.00563605 3.14563e-09 0.00563605)
(0.0056515 -0.00251956 -0.000106762 0.0056515 3.41924e-09 0.0056515)
(0.0056515 -0.00251956 -0.000106762 0.0056515 3.42101e-09 0.0056515)
(0.0056668 -0.00253093 -0.000108811 0.0056668 3.6721e-09 0.0056668)
(0.0056668 -0.00253093 -0.000108811 0.0056668 3.67403e-09 0.0056668)
(0.00568193 -0.00254222 -0.000110893 0.00568193 3.93325e-09 0.00568193)
(0.00568193 -0.00254222 -0.000110893 0.00568193 3.93523e-09 0.00568193)
(0.00569686 -0.00255341 -0.000113007 0.00569686 4.19136e-09 0.00569686)
(0.00569686 -0.00255341 -0.000113007 0.00569686 4.19342e-09 0.00569686)
(0.00571155 -0.00256447 -0.000115153 0.00571155 4.46869e-09 0.00571155)
(0.00571155 -0.00256447 -0.000115153 0.00571155 4.47081e-09 0.00571155)
(0.005726 -0.00257537 -0.00011733 0.005726 4.74274e-09 0.005726)
(0.005726 -0.00257537 -0.00011733 0.005726 4.74489e-09 0.005726)
(0.00574017 -0.0025861 -0.000119537 0.00574017 4.96996e-09 0.00574017)
(0.00574017 -0.0025861 -0.000119537 0.00574017 4.97233e-09 0.00574017)
(0.00575403 -0.00259664 -0.000121775 0.00575403 5.24918e-09 0.00575403)
(0.00575403 -0.00259664 -0.000121775 0.00575403 5.25161e-09 0.00575403)
(0.00576758 -0.00260697 -0.000124042 0.00576758 5.49309e-09 0.00576758)
(0.00576758 -0.00260697 -0.000124042 0.00576758 5.49553e-09 0.00576758)
(0.00578078 -0.00261708 -0.000126338 0.00578078 5.72569e-09 0.00578078)
(0.00578078 -0.00261708 -0.000126338 0.00578078 5.72833e-09 0.00578078)
(0.00579363 -0.00262695 -0.000128663 0.00579363 5.97897e-09 0.00579363)
(0.00579363 -0.00262695 -0.000128663 0.00579363 5.9817e-09 0.00579363)
(0.0058061 -0.00263658 -0.000131017 0.0058061 6.22812e-09 0.0058061)
(0.0058061 -0.00263658 -0.000131017 0.0058061 6.23091e-09 0.0058061)
(0.00581817 -0.00264596 -0.000133399 0.00581817 6.47863e-09 0.00581817)
(0.00581817 -0.00264596 -0.000133399 0.00581817 6.48157e-09 0.00581817)
(0.00582983 -0.00265507 -0.000135808 0.00582983 6.72786e-09 0.00582983)
(0.00582983 -0.00265507 -0.000135808 0.00582983 6.73089e-09 0.00582983)
(0.00584107 -0.00266391 -0.000138246 0.00584107 6.96406e-09 0.00584107)
(0.00584107 -0.00266391 -0.000138246 0.00584107 6.96726e-09 0.00584107)
(0.00585187 -0.00267248 -0.000140711 0.00585187 7.21592e-09 0.00585187)
(0.00585187 -0.00267248 -0.000140711 0.00585187 7.21921e-09 0.00585187)
(0.00586222 -0.00268076 -0.000143203 0.00586222 7.45364e-09 0.00586222)
(0.00586222 -0.00268076 -0.000143203 0.00586222 7.45704e-09 0.00586222)
(0.0058721 -0.00268874 -0.00014572 0.0058721 7.68647e-09 0.0058721)
(0.0058721 -0.00268874 -0.00014572 0.0058721 7.69008e-09 0.0058721)
(0.00588151 -0.00269641 -0.000148263 0.00588151 7.95778e-09 0.00588151)
(0.00588151 -0.00269641 -0.000148263 0.00588151 7.96146e-09 0.00588151)
(0.00589043 -0.00270374 -0.00015083 0.00589043 8.14983e-09 0.00589043)
(0.00589043 -0.00270374 -0.00015083 0.00589043 8.15376e-09 0.00589043)
(0.00589885 -0.0027107 -0.000153418 0.00589885 8.40559e-09 0.00589885)
(0.00589885 -0.0027107 -0.000153418 0.00589885 8.40959e-09 0.00589885)
(0.00590677 -0.00271727 -0.000156026 0.00590677 8.64731e-09 0.00590677)
(0.00590677 -0.00271727 -0.000156026 0.00590677 8.65141e-09 0.00590677)
(0.00591417 -0.0027234 -0.00015865 0.00591417 8.84063e-09 0.00591417)
(0.00591417 -0.0027234 -0.00015865 0.00591417 8.84508e-09 0.00591417)
(0.00592106 -0.00272905 -0.000161288 0.00592106 9.09694e-09 0.00592106)
(0.00592106 -0.00272905 -0.000161288 0.00592106 9.10153e-09 0.00592106)
(0.00592742 -0.0027342 -0.000163938 0.00592742 9.31049e-09 0.00592742)
(0.00592742 -0.0027342 -0.000163938 0.00592742 9.31512e-09 0.00592742)
(0.00593325 -0.00273881 -0.000166598 0.00593325 9.53809e-09 0.00593325)
(0.00593325 -0.00273881 -0.000166598 0.00593325 9.54292e-09 0.00593325)
(0.00593855 -0.00274287 -0.000169267 0.00593855 9.69366e-09 0.00593855)
(0.00593855 -0.00274287 -0.000169267 0.00593855 9.69891e-09 0.00593855)
(0.00594332 -0.00274639 -0.000171944 0.00594332 1.00363e-08 0.00594332)
(0.00594332 -0.00274639 -0.000171944 0.00594332 1.00415e-08 0.00594332)
(0.00594756 -0.00274938 -0.000174629 0.00594756 1.01867e-08 0.00594756)
(0.00594756 -0.00274938 -0.000174629 0.00594756 1.01923e-08 0.00594756)
(0.00595128 -0.00275187 -0.000177325 0.00595128 1.03841e-08 0.00595128)
(0.00595128 -0.00275187 -0.000177325 0.00595128 1.03898e-08 0.00595128)
(0.00595447 -0.00275392 -0.000180036 0.00595447 1.05714e-08 0.00595447)
(0.00595447 -0.00275392 -0.000180036 0.00595447 1.05774e-08 0.00595447)
(0.00595715 -0.00275559 -0.000182766 0.00595715 1.0829e-08 0.00595715)
(0.00595715 -0.00275559 -0.000182766 0.00595715 1.08352e-08 0.00595715)
(0.00595931 -0.00275696 -0.000185519 0.00595931 1.10009e-08 0.00595931)
(0.00595931 -0.00275696 -0.000185519 0.00595931 1.10075e-08 0.00595931)
(0.00596097 -0.00275811 -0.0001883 0.00596097 1.11365e-08 0.00596097)
(0.00596097 -0.00275811 -0.0001883 0.00596097 1.1143e-08 0.00596097)
(0.00596214 -0.00275908 -0.000191113 0.00596214 1.13956e-08 0.00596214)
(0.00596214 -0.00275908 -0.000191113 0.00596214 1.14031e-08 0.00596214)
(0.0059628 -0.00275992 -0.000193959 0.0059628 1.14588e-08 0.0059628)
(0.0059628 -0.00275992 -0.000193959 0.0059628 1.14652e-08 0.0059628)
(0.00596298 -0.00276063 -0.000196837 0.00596298 1.16278e-08 0.00596298)
(0.00596298 -0.00276063 -0.000196837 0.00596298 1.16374e-08 0.00596298)
(0.00596267 -0.00276122 -0.000199749 0.00596267 1.1664e-08 0.00596267)
(0.00596267 -0.00276122 -0.000199749 0.00596267 1.16682e-08 0.00596267)
(0.00596187 -0.00276164 -0.000202691 0.00596187 1.18498e-08 0.00596187)
(0.00596187 -0.00276164 -0.000202691 0.00596187 1.18654e-08 0.00596187)
(0.0059606 -0.00276188 -0.000205659 0.0059606 1.17843e-08 0.0059606)
(0.0059606 -0.00276188 -0.000205659 0.0059606 1.17788e-08 0.0059606)
(0.00595884 -0.00276189 -0.000208654 0.00595884 1.19586e-08 0.00595884)
(0.00595884 -0.00276189 -0.000208654 0.00595884 1.19949e-08 0.00595884)
(0.0059566 -0.00276166 -0.000211672 0.0059566 1.19321e-08 0.0059566)
(0.0059566 -0.00276166 -0.000211672 0.0059566 1.18889e-08 0.0059566)
(0.00595387 -0.00276112 -0.000214707 0.00595387 1.20536e-08 0.00595387)
(0.00595387 -0.00276112 -0.000214707 0.00595387 1.21523e-08 0.00595387)
(0.00595067 -0.00276023 -0.000217758 0.00595067 1.19228e-08 0.00595067)
(0.00595067 -0.00276023 -0.000217758 0.00595067 1.17403e-08 0.00595067)
(0.00594699 -0.00275897 -0.000220819 0.00594699 1.21914e-08 0.00594699)
(0.00594699 -0.00275897 -0.000220819 0.00594699 1.26882e-08 0.00594699)
(0.00594284 -0.0027573 -0.000223889 0.00594284 1.17787e-08 0.00594284)
(0.00594284 -0.0027573 -0.000223889 0.00594284 1.1084e-08 0.00594284)
(0.00593821 -0.00275524 -0.000226972 0.00593821 1.27585e-08 0.00593821)
(0.00593821 -0.00275524 -0.000226972 0.00593821 1.41111e-08 0.00593821)
(0.00593311 -0.00275281 -0.000230067 0.00593311 1.14739e-08 0.00593311)
(0.00593311 -0.00275281 -0.000230067 0.00593311 8.94486e-09 0.00593311)
(0.00592754 -0.00275005 -0.000233178 0.00592754 1.3573e-08 0.00592754)
(0.00592754 -0.00275005 -0.000233178 0.00592754 1.83832e-08 0.00592754)
(0.00592151 -0.00274701 -0.000236307 0.00592151 6.25894e-09 0.00592151)
(0.00592151 -0.00274701 -0.000236307 0.00592151 -7.10605e-09 0.00592151)
(0.00591502 -0.00274374 -0.000239462 0.00591502 3.49043e-09 0.00591502)
(0.00591502 -0.00274374 -0.000239462 0.00591502 1.78382e-08 0.00591502)
(0.00590808 -0.00274036 -0.000242655 0.00590808 -2.17029e-09 0.00590808)
(0.00590808 -0.00274036 -0.000242655 0.00590808 -1.926e-08 0.00590808)
(0.00590069 -0.00273693 -0.000245885 0.0059007 -4.74007e-09 0.00590069)
(0.00590069 -0.00273693 -0.000245885 0.00590069 9.70505e-09 0.0059007)
(0.00589286 -0.00273344 -0.000249152 0.00589286 -1.47197e-08 0.00589286)
(0.00589286 -0.00273344 -0.000249152 0.00589286 -2.03641e-08 0.00589286)
(0.00588457 -0.0027299 -0.000252457 0.00588457 -1.2226e-08 0.00588457)
(0.00588457 -0.0027299 -0.000252457 0.00588457 -9.01722e-09 0.00588457)
(0.00587584 -0.00272626 -0.000255792 0.00587584 -1.42634e-08 0.00587584)
(0.00587584 -0.00272626 -0.000255792 0.00587584 -1.61112e-08 0.00587584)
(0.00586666 -0.0027225 -0.000259162 0.00586666 -1.31163e-08 0.00586666)
(0.00586666 -0.0027225 -0.000259162 0.00586666 -1.18789e-08 0.00586666)
(0.00585704 -0.00271864 -0.000262565 0.00585704 -1.40231e-08 0.00585704)
(0.00585704 -0.00271864 -0.000262565 0.00585704 -1.46343e-08 0.00585704)
(0.00584696 -0.00271463 -0.000265993 0.00584696 -1.34802e-08 0.00584696)
(0.00584696 -0.00271463 -0.000265993 0.00584696 -1.32332e-08 0.00584696)
(0.00583642 -0.00271043 -0.000269447 0.00583642 -1.38477e-08 0.00583642)
(0.00583642 -0.00271043 -0.000269447 0.00583642 -1.40541e-08 0.00583642)
(0.00582542 -0.00270599 -0.000272916 0.00582542 -1.3569e-08 0.00582542)
(0.00582542 -0.00270599 -0.000272916 0.00582542 -1.34646e-08 0.00582542)
(0.00581396 -0.00270117 -0.00027638 0.00581396 -1.37724e-08 0.00581396)