/*--------------------------------*- C++ -*----------------------------------*\
| =========                 |                                                 |
| \\      /  F ield         | OpenFOAM: The Open Source CFD Toolbox           |
|  \\    /   O peration     | Version:  2012                                  |
|   \\  /    A nd           | Website:  www.openfoam.com                      |
|    \\/     M anipulation  |                                                 |
\*---------------------------------------------------------------------------*/
FoamFile
{
    version     2.0;
    format      ascii;
    class       volScalarField;
    location    "13000";
    object      p;
}
// * * * * * * * * * * * * * * * * * * * * * * * * * * * * * * * * * * * * * //

dimensions      [0 2 -2 0 0 0 0];


internalField   nonuniform List<scalar> 
40
(
-3.98916e-16
-3.56016e-16
-6.5678e-16
-5.05889e-16
-1.59218e-15
-1.53105e-15
-4.23018e-15
-4.19606e-15
-3.39268e-14
-3.38797e-14
-7.93605e-16
-7.67158e-16
-8.3152e-16
-8.03625e-16
-1.36306e-15
-1.3025e-15
-3.90916e-15
-3.93866e-15
-3.36254e-14
-3.3616e-14
-2.29064e-14
-2.28031e-14
-2.24234e-14
-2.24228e-14
-2.23719e-14
-2.23719e-14
-2.23671e-14
-2.23668e-14
-2.23682e-14
-2.2367e-14
-2.26062e-14
-2.25405e-14
-2.24195e-14
-2.24191e-14
-2.23657e-14
-2.23665e-14
-2.23481e-14
-2.23528e-14
-2.23491e-14
-2.2353e-14
)
;

boundaryField
{
    walls
    {
        type            zeroGradient;
    }
    inlet
    {
        type            cyclic;
    }
    outlet
    {
        type            cyclic;
    }
    sides
    {
        type            empty;
    }
}


// ************************************************************************* //
