/*--------------------------------*- C++ -*----------------------------------*\
| =========                 |                                                 |
| \\      /  F ield         | OpenFOAM: The Open Source CFD Toolbox           |
|  \\    /   O peration     | Version:  2012                                  |
|   \\  /    A nd           | Website:  www.openfoam.com                      |
|    \\/     M anipulation  |                                                 |
\*---------------------------------------------------------------------------*/
FoamFile
{
    version     2.0;
    format      ascii;
    class       surfaceScalarField;
    location    "13000";
    object      phi;
}
// * * * * * * * * * * * * * * * * * * * * * * * * * * * * * * * * * * * * * //

dimensions      [0 3 -1 0 0 0 0];
oriented        oriented;


internalField   nonuniform List<scalar> 
76
(
8.28029e-05
7.46255e-18
6.77636e-19
4.55046e-19
3.28991e-19
0.000807704
3.56418e-18
1.86492e-18
1.32716e-18
1.02923e-18
0.00307871
2.25266e-18
5.43826e-19
2.07687e-18
2.49651e-19
0.0104889
2.46705e-18
-5.8493e-19
2.44388e-18
-2.29751e-19
0.0355418
-2.76952e-18
-3.63602e-18
-2.41933e-18
-3.65404e-18
8.28029e-05
6.14259e-19
3.87038e-19
0.000807704
2.14284e-18
1.91526e-18
0.00307871
2.12804e-18
2.15144e-18
0.0104889
2.28264e-18
2.26709e-18
0.0355418
-3.62736e-18
-3.6343e-18
0.0355418
-2.27788e-19
-2.7708e-18
-1.9615e-19
-8.94161e-22
0.0104889
2.89668e-20
-6.143e-21
7.53121e-20
-5.82884e-21
0.00307871
2.11815e-20
3.07236e-20
-4.7935e-20
-5.36454e-20
0.000807704
-1.88287e-20
-1.31606e-20
-1.59467e-20
-1.89753e-20
8.28029e-05
-8.29115e-21
-7.48317e-21
0.0355418
-2.12954e-19
-2.14326e-19
0.0104889
-1.54248e-20
1.56852e-20
0.00307871
-3.56354e-20
-2.10723e-20
0.000807704
-1.66514e-21
9.16038e-22
8.28029e-05
)
;

boundaryField
{
    walls
    {
        type            calculated;
        value           uniform 0;
    }
    inlet
    {
        type            cyclic;
        value           nonuniform List<scalar> 
20
(
-8.28029e-05
-0.000807704
-0.00307871
-0.0104889
-0.0355418
-8.28029e-05
-0.000807704
-0.00307871
-0.0104889
-0.0355418
-0.0355418
-0.0104889
-0.00307871
-0.000807704
-8.28029e-05
-0.0355418
-0.0104889
-0.00307871
-0.000807704
-8.28029e-05
)
;
    }
    outlet
    {
        type            cyclic;
        value           nonuniform List<scalar> 
20
(
8.28029e-05
0.000807704
0.00307871
0.0104889
0.0355418
8.28029e-05
0.000807704
0.00307871
0.0104889
0.0355418
0.0355418
0.0104889
0.00307871
0.000807704
8.28029e-05
0.0355418
0.0104889
0.00307871
0.000807704
8.28029e-05
)
;
    }
    sides
    {
        type            empty;
        value           nonuniform List<scalar> 0();
    }
}


// ************************************************************************* //
