/*--------------------------------*- C++ -*----------------------------------*\
| =========                 |                                                 |
| \\      /  F ield         | OpenFOAM: The Open Source CFD Toolbox           |
|  \\    /   O peration     | Version:  2012                                  |
|   \\  /    A nd           | Website:  www.openfoam.com                      |
|    \\/     M anipulation  |                                                 |
\*---------------------------------------------------------------------------*/
FoamFile
{
    version     2.0;
    format      ascii;
    class       surfaceScalarField;
    location    "17000";
    object      phi;
}
// * * * * * * * * * * * * * * * * * * * * * * * * * * * * * * * * * * * * * //

dimensions      [0 3 -1 0 0 0 0];
oriented        oriented;


internalField   nonuniform List<scalar> 
156
(
1.94427e-05
-2.74498e-19
1.0884e-20
1.79138e-19
-4.48605e-20
0.000117301
2.01278e-19
-3.39518e-19
3.26177e-19
-2.91183e-19
0.000351242
5.79325e-19
-2.51325e-19
4.19958e-19
-2.29292e-19
0.000735933
7.65692e-19
-9.14108e-20
5.6152e-19
-8.97689e-20
0.00136592
3.59435e-19
1.19204e-19
3.64029e-19
1.16564e-19
0.00242291
2.29825e-19
2.90079e-19
2.79547e-19
2.431e-19
0.00421161
4.0969e-19
3.10099e-19
3.93388e-19
1.75594e-19
0.0072477
9.78327e-19
3.04468e-19
9.79198e-19
2.8173e-19
0.0123994
8.60112e-19
8.87836e-19
8.41545e-19
4.86079e-19
0.0211285
1.945e-18
-2.14917e-18
9.66789e-19
-2.13131e-18
1.94427e-05
-3.51802e-21
-3.30087e-20
0.000117301
-2.897e-19
-3.73441e-19
0.000351242
-4.81296e-19
-6.11162e-19
0.000735933
-5.80856e-19
-7.00458e-19
0.00136592
-5.75133e-19
-5.76657e-19
0.00242291
-2.09722e-20
3.25021e-20
0.00421161
4.86181e-19
5.45365e-19
0.0072477
1.10465e-18
1.12688e-18
0.0123994
9.29447e-19
8.85543e-19
0.0211285
-2.11296e-18
-2.10753e-18
0.0211285
-1.60434e-18
-9.72402e-19
-1.5851e-18
-3.96747e-19
0.0123994
-8.3155e-20
-1.10816e-18
-1.79831e-19
-5.29975e-19
0.0072477
8.52452e-20
1.18537e-19
2.46284e-19
6.46919e-19
0.00421161
7.06692e-20
-1.17516e-19
1.16296e-19
1.51189e-19
0.00242291
2.01301e-19
-1.29739e-20
1.29393e-19
-5.33776e-20
0.00136592
2.68746e-20
-2.44112e-20
3.61086e-20
-3.19347e-20
0.000735933
4.8499e-20
1.35858e-20
5.00527e-20
6.93928e-21
0.000351242
1.90049e-20
1.32811e-20
1.89378e-20
1.12028e-20
0.000117301
3.18069e-21
1.06224e-20
3.72219e-21
1.0075e-20
1.94427e-05
3.05096e-21
3.46333e-21
0.0211285
-1.54852e-18
-1.54023e-18
0.0123994
1.42485e-20
-8.14342e-20
0.0072477
-2.53615e-20
8.51741e-20
0.00421161
-1.26153e-19
-2.59883e-19
0.00242291
-9.90962e-20
-1.49639e-19
0.00136592
-1.6983e-20
-4.46086e-20
0.000735933
-3.00163e-20
-9.90138e-21
0.000351242
-2.84561e-20
4.94181e-21
0.000117301
-2.54988e-21
-6.14915e-21
1.94427e-05
)
;

boundaryField
{
    walls
    {
        type            calculated;
        value           uniform 0;
    }
    inlet
    {
        type            cyclic;
        value           nonuniform List<scalar> 
40
(
-1.94427e-05
-0.000117301
-0.000351242
-0.000735933
-0.00136592
-0.00242291
-0.00421161
-0.0072477
-0.0123994
-0.0211285
-1.94427e-05
-0.000117301
-0.000351242
-0.000735933
-0.00136592
-0.00242291
-0.00421161
-0.0072477
-0.0123994
-0.0211285
-0.0211285
-0.0123994
-0.0072477
-0.00421161
-0.00242291
-0.00136592
-0.000735933
-0.000351242
-0.000117301
-1.94427e-05
-0.0211285
-0.0123994
-0.0072477
-0.00421161
-0.00242291
-0.00136592
-0.000735933
-0.000351242
-0.000117301
-1.94427e-05
)
;
    }
    outlet
    {
        type            cyclic;
        value           nonuniform List<scalar> 
40
(
1.94427e-05
0.000117301
0.000351242
0.000735933
0.00136592
0.00242291
0.00421161
0.0072477
0.0123994
0.0211285
1.94427e-05
0.000117301
0.000351242
0.000735933
0.00136592
0.00242291
0.00421161
0.0072477
0.0123994
0.0211285
0.0211285
0.0123994
0.0072477
0.00421161
0.00242291
0.00136592
0.000735933
0.000351242
0.000117301
1.94427e-05
0.0211285
0.0123994
0.0072477
0.00421161
0.00242291
0.00136592
0.000735933
0.000351242
0.000117301
1.94427e-05
)
;
    }
    sides
    {
        type            empty;
        value           nonuniform List<scalar> 0();
    }
}


// ************************************************************************* //
