/*--------------------------------*- C++ -*----------------------------------*\
| =========                 |                                                 |
| \\      /  F ield         | OpenFOAM: The Open Source CFD Toolbox           |
|  \\    /   O peration     | Version:  2106                                  |
|   \\  /    A nd           | Website:  www.openfoam.com                      |
|    \\/     M anipulation  |                                                 |
\*---------------------------------------------------------------------------*/
FoamFile
{
    version     2.0;
    format      ascii;
    arch        "LSB;label=32;scalar=64";
    class       volVectorField;
    location    "13000";
    object      U;
}
// * * * * * * * * * * * * * * * * * * * * * * * * * * * * * * * * * * * * * //

dimensions      [0 1 -1 0 0 0 0];

internalField   nonuniform List<vector> 
2560
(
(0.00672948 -7.80045e-16 -3.47541e-17)
(0.00672948 7.00664e-19 -1.26759e-21)
(0.0202844 -3.11219e-15 -1.24398e-16)
(0.0202844 -2.06541e-18 1.49199e-20)
(0.0340344 -2.94313e-15 -1.2919e-16)
(0.0340344 -2.45612e-18 1.74037e-20)
(0.0479822 -2.7333e-15 -1.33783e-16)
(0.0479822 -3.76863e-18 2.69098e-20)
(0.0621303 -2.74119e-15 -1.38677e-16)
(0.0621303 -5.17084e-18 3.82359e-20)
(0.0764806 -2.7565e-15 -1.43792e-16)
(0.0764806 -6.59519e-18 5.11971e-20)
(0.0910333 -2.75977e-15 -1.49029e-16)
(0.0910333 -8.04916e-18 6.5313e-20)
(0.105786 -2.75752e-15 -1.54342e-16)
(0.105786 -9.51752e-18 8.06363e-20)
(0.120733 -2.7546e-15 -1.59679e-16)
(0.120733 -1.1081e-17 9.69988e-20)
(0.135862 -2.7519e-15 -1.64961e-16)
(0.135862 -1.27659e-17 1.16091e-19)
(0.151151 -2.7492e-15 -1.70075e-16)
(0.151151 -1.44902e-17 1.35728e-19)
(0.16657 -2.74653e-15 -1.74878e-16)
(0.16657 -1.62084e-17 1.56518e-19)
(0.182074 -2.74386e-15 -1.79203e-16)
(0.182074 -1.79939e-17 1.77321e-19)
(0.197606 -2.7411e-15 -1.82875e-16)
(0.197606 -1.98601e-17 1.98069e-19)
(0.2131 -2.73818e-15 -1.85731e-16)
(0.2131 -2.18434e-17 2.18757e-19)
(0.228476 -2.73514e-15 -1.87647e-16)
(0.228476 -2.38601e-17 2.36208e-19)
(0.243656 -2.73199e-15 -1.88555e-16)
(0.243656 -2.59286e-17 2.52351e-19)
(0.258559 -2.72875e-15 -1.88454e-16)
(0.258559 -2.8172e-17 2.70884e-19)
(0.273113 -2.72552e-15 -1.87412e-16)
(0.273113 -3.02989e-17 2.8841e-19)
(0.287258 -2.72231e-15 -1.85546e-16)
(0.287258 -3.24539e-17 3.01952e-19)
(0.300946 -2.71901e-15 -1.83011e-16)
(0.300946 -3.45615e-17 3.12986e-19)
(0.314148 -2.71575e-15 -1.79968e-16)
(0.314148 -3.6607e-17 3.19346e-19)
(0.326843 -2.71283e-15 -1.76581e-16)
(0.326843 -3.85952e-17 3.28331e-19)
(0.339028 -2.7099e-15 -1.72992e-16)
(0.339028 -4.06627e-17 3.36911e-19)
(0.350706 -2.70677e-15 -1.69322e-16)
(0.350706 -4.26193e-17 3.5078e-19)
(0.36189 -2.70388e-15 -1.65667e-16)
(0.36189 -4.45238e-17 3.58205e-19)
(0.372596 -2.70111e-15 -1.62101e-16)
(0.372596 -4.63079e-17 3.54954e-19)
(0.382847 -2.69859e-15 -1.58677e-16)
(0.382847 -4.7724e-17 3.50398e-19)
(0.392665 -2.69622e-15 -1.55433e-16)
(0.392665 -4.94663e-17 3.5147e-19)
(0.402073 -2.69385e-15 -1.52391e-16)
(0.402073 -5.14448e-17 3.65491e-19)
(0.411097 -2.69151e-15 -1.49563e-16)
(0.411097 -5.31354e-17 3.80562e-19)
(0.419759 -2.68916e-15 -1.46956e-16)
(0.419759 -5.47679e-17 3.88293e-19)
(0.428083 -2.68703e-15 -1.44569e-16)
(0.428083 -5.64211e-17 3.84016e-19)
(0.436089 -2.68491e-15 -1.42401e-16)
(0.436089 -5.79857e-17 3.78962e-19)
(0.443799 -2.68276e-15 -1.40445e-16)
(0.443799 -5.95212e-17 3.78478e-19)
(0.451231 -2.68063e-15 -1.38693e-16)
(0.451231 -6.11762e-17 3.88329e-19)
(0.458403 -2.67872e-15 -1.37136e-16)
(0.458403 -6.25137e-17 4.01009e-19)
(0.465332 -2.67687e-15 -1.35768e-16)
(0.465332 -6.37002e-17 4.02875e-19)
(0.472033 -2.67488e-15 -1.34577e-16)
(0.472033 -6.51224e-17 4.1186e-19)
(0.478521 -2.67278e-15 -1.33555e-16)
(0.478521 -6.68287e-17 4.13099e-19)
(0.484808 -2.67073e-15 -1.32691e-16)
(0.484808 -6.83498e-17 4.13167e-19)
(0.490906 -2.66901e-15 -1.31978e-16)
(0.490906 -6.91145e-17 4.10806e-19)
(0.496828 -2.6673e-15 -1.3141e-16)
(0.496828 -7.04552e-17 4.15625e-19)
(0.502583 -2.66534e-15 -1.30977e-16)
(0.502583 -7.19553e-17 4.35448e-19)
(0.508181 -2.6635e-15 -1.30675e-16)
(0.508181 -7.34058e-17 4.4581e-19)
(0.513631 -2.66137e-15 -1.30496e-16)
(0.513631 -7.49402e-17 4.40908e-19)
(0.518942 -2.65945e-15 -1.30435e-16)
(0.518942 -7.57431e-17 4.44386e-19)
(0.52412 -2.65787e-15 -1.3049e-16)
(0.52412 -7.67971e-17 4.58369e-19)
(0.529173 -2.65591e-15 -1.30653e-16)
(0.529173 -7.84311e-17 4.64487e-19)
(0.534108 -2.65389e-15 -1.30921e-16)
(0.534108 -7.95438e-17 4.75496e-19)
(0.538931 -2.6518e-15 -1.31294e-16)
(0.538931 -8.00851e-17 4.8638e-19)
(0.543647 -2.64947e-15 -1.31219e-16)
(0.543647 -8.14547e-17 4.97096e-19)
(0.548263 -2.64737e-15 -1.31066e-16)
(0.548263 -8.24686e-17 5.30133e-19)
(0.552782 -2.6454e-15 -1.31035e-16)
(0.552782 -8.32563e-17 5.35322e-19)
(0.55721 -2.64269e-15 -1.31077e-16)
(0.55721 -8.5127e-17 5.1632e-19)
(0.56155 -2.63992e-15 -1.31176e-16)
(0.56155 -8.6332e-17 5.16878e-19)
(0.565808 -2.63764e-15 -1.31361e-16)
(0.565808 -8.72184e-17 5.19494e-19)
(0.569986 -2.63591e-15 -1.31622e-16)
(0.569986 -8.82852e-17 5.51822e-19)
(0.574089 -2.63424e-15 -1.31939e-16)
(0.574089 -8.89349e-17 5.66542e-19)
(0.57812 -2.63195e-15 -1.32342e-16)
(0.57812 -9.00911e-17 5.61678e-19)
(0.582082 -2.63012e-15 -1.3278e-16)
(0.582082 -9.10731e-17 5.6513e-19)
(0.585978 -2.62836e-15 -1.33307e-16)
(0.585978 -9.15741e-17 5.96312e-19)
(0.58981 -2.62615e-15 -1.33911e-16)
(0.58981 -9.39212e-17 5.95941e-19)
(0.593582 -2.62384e-15 -1.34537e-16)
(0.593582 -9.55132e-17 5.80266e-19)
(0.597295 -2.62179e-15 -1.35251e-16)
(0.597295 -9.68756e-17 5.89726e-19)
(0.600953 -2.62028e-15 -1.36009e-16)
(0.600953 -9.84695e-17 6.05192e-19)
(0.604558 -2.61902e-15 -1.36813e-16)
(0.604558 -9.90639e-17 6.2686e-19)
(0.608111 -2.6174e-15 -1.37674e-16)
(0.608111 -1.00449e-16 6.30228e-19)
(0.611615 -2.61585e-15 -1.38574e-16)
(0.611615 -1.01112e-16 6.50064e-19)
(0.615071 -2.61386e-15 -1.39599e-16)
(0.615071 -1.0187e-16 6.43507e-19)
(0.618481 -2.61102e-15 -1.40623e-16)
(0.618481 -1.03475e-16 6.535e-19)
(0.621847 -2.60881e-15 -1.4172e-16)
(0.621847 -1.05631e-16 6.62124e-19)
(0.625171 -2.60728e-15 -1.42832e-16)
(0.625171 -1.07014e-16 6.84677e-19)
(0.628454 -2.60626e-15 -1.44051e-16)
(0.628454 -1.07118e-16 6.90414e-19)
(0.631698 -2.6054e-15 -1.4532e-16)
(0.631698 -1.07659e-16 7.09425e-19)
(0.634904 -2.60383e-15 -1.46646e-16)
(0.634904 -1.08611e-16 7.39544e-19)
(0.638073 -2.60245e-15 -1.48e-16)
(0.638073 -1.08895e-16 7.839e-19)
(0.641206 -2.60199e-15 -1.49436e-16)
(0.641206 -1.09064e-16 8.154e-19)
(0.644306 -2.60181e-15 -1.50926e-16)
(0.644306 -1.09664e-16 8.21221e-19)
(0.647372 -2.60124e-15 -1.52518e-16)
(0.647372 -1.10133e-16 7.86889e-19)
(0.650406 -2.59996e-15 -1.54135e-16)
(0.650406 -1.10812e-16 8.61694e-19)
(0.65341 -2.59838e-15 -1.55785e-16)
(0.65341 -1.1245e-16 9.55735e-19)
(0.656383 -2.59595e-15 -1.57535e-16)
(0.656383 -1.13715e-16 9.32919e-19)
(0.659328 -2.59353e-15 -1.59314e-16)
(0.659328 -1.15154e-16 8.61382e-19)
(0.662244 -2.59114e-15 -1.61158e-16)
(0.662244 -1.18159e-16 8.1945e-19)
(0.665134 -2.58832e-15 -1.63086e-16)
(0.665134 -1.19872e-16 8.18806e-19)
(0.667997 -2.58593e-15 -1.64996e-16)
(0.667997 -1.22003e-16 8.88418e-19)
(0.670834 -2.58309e-15 -1.66998e-16)
(0.670834 -1.24495e-16 9.12182e-19)
(0.673647 -2.58058e-15 -1.69052e-16)
(0.673647 -1.25842e-16 8.46663e-19)
(0.676436 -2.57888e-15 -1.71158e-16)
(0.676436 -1.28304e-16 8.41316e-19)
(0.679202 -2.57674e-15 -1.73345e-16)
(0.679202 -1.31359e-16 8.92223e-19)
(0.681945 -2.57507e-15 -1.75618e-16)
(0.681945 -1.33695e-16 8.52854e-19)
(0.684666 -2.57375e-15 -1.77882e-16)
(0.684666 -1.35327e-16 8.65197e-19)
(0.687365 -2.57182e-15 -1.80228e-16)
(0.687365 -1.3736e-16 9.36545e-19)
(0.690045 -2.56902e-15 -1.82656e-16)
(0.690045 -1.40558e-16 1.02682e-18)
(0.692704 -2.56572e-15 -1.85144e-16)
(0.692704 -1.42743e-16 9.60042e-19)
(0.695343 -2.56251e-15 -1.87677e-16)
(0.695343 -1.43535e-16 8.18191e-19)
(0.697964 -2.55893e-15 -1.90316e-16)
(0.697964 -1.45749e-16 8.39408e-19)
(0.700566 -2.5571e-15 -1.92873e-16)
(0.700566 -1.47619e-16 1.06583e-18)
(0.70315 -2.55614e-15 -1.95558e-16)
(0.70315 -1.48392e-16 1.17491e-18)
(0.705716 -2.55284e-15 -1.98376e-16)
(0.705716 -1.49331e-16 1.17868e-18)
(0.708266 -2.5485e-15 -2.01366e-16)
(0.708266 -1.52061e-16 1.221e-18)
(0.710799 -2.54359e-15 -2.04269e-16)
(0.710799 -1.56674e-16 1.10038e-18)
(0.713316 -2.53844e-15 -2.07275e-16)
(0.713316 -1.60268e-16 8.73055e-19)
(0.715818 -2.53511e-15 -2.1031e-16)
(0.715818 -1.64569e-16 8.54976e-19)
(0.718304 -2.5338e-15 -2.13443e-16)
(0.718304 -1.66254e-16 8.96531e-19)
(0.720775 -2.53224e-15 -2.16602e-16)
(0.720775 -1.6591e-16 9.39803e-19)
(0.723232 -2.53063e-15 -2.19851e-16)
(0.723232 -1.67072e-16 1.09075e-18)
(0.725674 -2.52961e-15 -2.2319e-16)
(0.725674 -1.67622e-16 1.05123e-18)
(0.728103 -2.52756e-15 -2.26593e-16)
(0.728103 -1.67709e-16 1.03704e-18)
(0.730518 -2.52588e-15 -2.30123e-16)
(0.730518 -1.67618e-16 1.02903e-18)
(0.732921 -2.52428e-15 -2.33652e-16)
(0.732921 -1.68082e-16 1.10196e-18)
(0.73531 -2.52238e-15 -2.3717e-16)
(0.73531 -1.70848e-16 1.26611e-18)
(0.737687 -2.52092e-15 -2.40836e-16)
(0.737687 -1.72118e-16 1.31722e-18)
(0.740052 -2.51963e-15 -2.4464e-16)
(0.740052 -1.72235e-16 1.39703e-18)
(0.742405 -2.51868e-15 -2.48558e-16)
(0.742405 -1.73248e-16 1.41523e-18)
(0.744747 -2.5161e-15 -2.52432e-16)
(0.744747 -1.74058e-16 1.53657e-18)
(0.747077 -2.5123e-15 -2.56628e-16)
(0.747077 -1.76085e-16 1.51009e-18)
(0.749396 -2.50791e-15 -2.60658e-16)
(0.749396 -1.77768e-16 1.00759e-18)
(0.751704 -2.50296e-15 -2.64915e-16)
(0.751704 -1.80919e-16 -4.13282e-19)
(0.754002 -2.49777e-15 -2.69342e-16)
(0.754002 -1.84599e-16 -2.13464e-18)
(0.756289 -2.49386e-15 -2.73695e-16)
(0.756289 -1.87584e-16 -3.84443e-18)
(0.758567 -2.49189e-15 -2.78101e-16)
(0.758567 -1.92446e-16 -5.59987e-18)
(0.760834 -2.48885e-15 -2.82775e-16)
(0.760834 -1.98109e-16 -7.41708e-18)
(0.763093 -2.48551e-15 -2.87547e-16)
(0.763093 -2.02302e-16 -9.34184e-18)
(0.765341 -2.48221e-15 -2.92464e-16)
(0.765341 -2.07998e-16 -1.13315e-17)
(0.767581 -2.47762e-15 -2.97411e-16)
(0.767581 -2.14164e-16 -1.30624e-17)
(0.769811 -2.47245e-15 -3.02387e-16)
(0.769811 -2.18979e-16 -1.48502e-17)
(0.772033 -2.46729e-15 -3.07765e-16)
(0.772033 -2.26432e-16 -1.69294e-17)
(0.774246 -2.46131e-15 -3.13154e-16)
(0.774246 -2.31253e-16 -1.91082e-17)
(0.776451 -2.45578e-15 -3.18689e-16)
(0.776451 -2.33446e-16 -2.13478e-17)
(0.778647 -2.45195e-15 -3.24131e-16)
(0.778647 -2.37324e-16 -2.31826e-17)
(0.780836 -2.44745e-15 -3.29895e-16)
(0.780836 -2.43134e-16 -2.51253e-17)
(0.783016 -2.44074e-15 -3.35886e-16)
(0.783016 -2.47663e-16 -2.75178e-17)
(0.785189 -2.43339e-15 -3.42083e-16)
(0.785189 -2.49006e-16 -2.99563e-17)
(0.787355 -2.43048e-15 -3.47998e-16)
(0.787355 -2.50599e-16 -3.19987e-17)
(0.789513 -2.43019e-15 -3.54436e-16)
(0.789513 -2.51763e-16 -3.44129e-17)
(0.791663 -2.4303e-15 -3.60522e-16)
(0.791663 -2.5101e-16 -3.73797e-17)
(0.793807 -2.43028e-15 -3.67024e-16)
(0.793807 -2.50733e-16 -3.96877e-17)
(0.795944 -2.42416e-15 -3.74118e-16)
(0.795944 -2.54421e-16 -4.21482e-17)
(0.798074 -2.41968e-15 -3.80709e-16)
(0.798074 -2.54844e-16 -4.53016e-17)
(0.800197 -2.41839e-15 -3.87587e-16)
(0.800197 -2.51916e-16 -4.84618e-17)
(0.802314 -2.41301e-15 -3.94764e-16)
(0.802314 -2.55308e-16 -5.08724e-17)
(0.804424 -2.40785e-15 -4.02067e-16)
(0.804424 -2.58097e-16 -5.42629e-17)
(0.806528 -2.40443e-15 -4.09444e-16)
(0.806528 -2.58589e-16 -5.76843e-17)
(0.808626 -2.40061e-15 -4.17006e-16)
(0.808626 -2.63309e-16 -6.08123e-17)
(0.810718 -2.39421e-15 -4.24843e-16)
(0.810718 -2.65284e-16 -6.40397e-17)
(0.812804 -2.38712e-15 -4.33087e-16)
(0.812804 -2.67243e-16 -6.76285e-17)
(0.814884 -2.38252e-15 -4.4118e-16)
(0.814884 -2.71008e-16 -7.12617e-17)
(0.816959 -2.37783e-15 -4.49494e-16)
(0.816959 -2.75521e-16 -7.49598e-17)
(0.819028 -2.37031e-15 -4.57769e-16)
(0.819028 -2.81964e-16 -7.93337e-17)
(0.821091 -2.36282e-15 -4.66621e-16)
(0.821091 -2.84693e-16 -8.33879e-17)
(0.823149 -2.35553e-15 -4.75601e-16)
(0.823149 -2.9121e-16 -8.74769e-17)
(0.825202 -2.34496e-15 -4.85579e-16)
(0.825202 -2.97696e-16 -9.12927e-17)
(0.82725 -2.33467e-15 -4.94909e-16)
(0.82725 -3.01801e-16 -9.53813e-17)
(0.829292 -2.32664e-15 -5.03846e-16)
(0.829292 -3.11327e-16 -9.98697e-17)
(0.83133 -2.31967e-15 -5.13349e-16)
(0.83133 -3.1715e-16 -1.05385e-16)
(0.833363 -2.31256e-15 -5.23243e-16)
(0.833363 -3.21124e-16 -1.10596e-16)
(0.83539 -2.30147e-15 -5.33798e-16)
(0.83539 -3.30976e-16 -1.14463e-16)
(0.837414 -2.2858e-15 -5.44588e-16)
(0.837414 -3.41947e-16 -1.19217e-16)
(0.839432 -2.2693e-15 -5.55013e-16)
(0.839432 -3.48499e-16 -1.25155e-16)
(0.841446 -2.25667e-15 -5.65006e-16)
(0.841446 -3.57375e-16 -1.30202e-16)
(0.843455 -2.25019e-15 -5.75415e-16)
(0.843455 -3.70451e-16 -1.35514e-16)
(0.84546 -2.24543e-15 -5.87698e-16)
(0.84546 -3.82383e-16 -1.41309e-16)
(0.847461 -2.23733e-15 -5.98846e-16)
(0.847461 -3.95748e-16 -1.46934e-16)
(0.849457 -2.22601e-15 -6.10393e-16)
(0.849457 -4.1191e-16 -1.5317e-16)
(0.851449 -2.21635e-15 -6.22516e-16)
(0.851449 -4.25006e-16 -1.59634e-16)
(0.853437 -2.20763e-15 -6.34651e-16)
(0.853437 -4.40192e-16 -1.65917e-16)
(0.855421 -2.19555e-15 -6.4753e-16)
(0.855421 -4.54792e-16 -1.72839e-16)
(0.857401 -2.18415e-15 -6.59573e-16)
(0.857401 -4.65674e-16 -1.79936e-16)
(0.859377 -2.18054e-15 -6.72624e-16)
(0.859377 -4.769e-16 -1.86475e-16)
(0.861349 -2.17963e-15 -6.86901e-16)
(0.861349 -4.84597e-16 -1.92855e-16)
(0.863317 -2.17605e-15 -7.01202e-16)
(0.863317 -4.8871e-16 -2.00387e-16)
(0.865281 -2.17396e-15 -7.02267e-16)
(0.865281 -4.94711e-16 -2.07565e-16)
(0.867242 -2.169e-15 -7.01724e-16)
(0.867242 -5.03593e-16 -2.14953e-16)
(0.869199 -2.16293e-15 -7.01194e-16)
(0.869199 -5.06985e-16 -2.23013e-16)
(0.871153 -2.15806e-15 -6.99904e-16)
(0.871153 -5.13989e-16 -2.30899e-16)
(0.873102 -2.155e-15 -6.98082e-16)
(0.873102 -5.22531e-16 -2.40064e-16)
(0.875049 -2.14863e-15 -6.97114e-16)
(0.875049 -5.27456e-16 -2.48991e-16)
(0.876992 -2.13982e-15 -6.96939e-16)
(0.876992 -5.36886e-16 -2.57468e-16)
(0.878931 -2.13134e-15 -6.9627e-16)
(0.878931 -5.45846e-16 -2.6601e-16)
(0.880867 -2.12123e-15 -6.95454e-16)
(0.880867 -5.54685e-16 -2.7491e-16)
(0.8828 -2.11335e-15 -6.94074e-16)
(0.8828 -5.63836e-16 -2.85041e-16)
(0.884729 -2.10634e-15 -6.92662e-16)
(0.884729 -5.68197e-16 -2.94608e-16)
(0.886655 -2.09508e-15 -6.90836e-16)
(0.886655 -5.72775e-16 -3.03942e-16)
(0.888578 -2.08036e-15 -6.88464e-16)
(0.888578 -5.78392e-16 -3.13473e-16)
(0.890498 -2.06841e-15 -6.85444e-16)
(0.890498 -5.85635e-16 -3.23819e-16)
(0.892415 -2.06046e-15 -6.81627e-16)
(0.892415 -5.94788e-16 -3.35005e-16)
(0.894328 -2.05147e-15 -6.77559e-16)
(0.894328 -6.03034e-16 -3.46028e-16)
(0.896238 -2.03913e-15 -6.7324e-16)
(0.896238 -6.12875e-16 -3.56702e-16)
(0.898146 -2.02633e-15 -6.68812e-16)
(0.898146 -6.25669e-16 -3.68311e-16)
(0.90005 -2.01506e-15 -6.65066e-16)
(0.90005 -6.37763e-16 -3.8089e-16)
(0.901951 -2.00458e-15 -6.61242e-16)
(0.901951 -6.46979e-16 -3.94124e-16)
(0.90385 -1.99285e-15 -6.57101e-16)
(0.90385 -6.56144e-16 -4.06324e-16)
(0.905745 -1.98195e-15 -6.53976e-16)
(0.905745 -6.61427e-16 -4.16941e-16)
(0.907637 -1.97063e-15 -6.48308e-16)
(0.907637 -6.86499e-16 -4.31493e-16)
(0.909527 -1.96017e-15 -6.42959e-16)
(0.909527 -6.92594e-16 -4.47811e-16)
(0.911414 -1.94743e-15 -6.39246e-16)
(0.911414 -6.9957e-16 -4.48439e-16)
(0.913297 -1.9348e-15 -6.33906e-16)
(0.913297 -7.20498e-16 -4.43886e-16)
(0.915178 -1.92373e-15 -6.26802e-16)
(0.915178 -7.27888e-16 -4.4114e-16)
(0.917056 -1.90457e-15 -6.22003e-16)
(0.917056 -7.38512e-16 -4.38857e-16)
(0.918932 -1.88438e-15 -6.17902e-16)
(0.918932 -7.53206e-16 -4.36835e-16)
(0.920804 -1.8702e-15 -6.12269e-16)
(0.920804 -7.6054e-16 -4.34149e-16)
(0.922674 -1.85642e-15 -6.05954e-16)
(0.922674 -7.63534e-16 -4.3052e-16)
(0.924541 -1.84367e-15 -5.98237e-16)
(0.924541 -7.64727e-16 -4.27849e-16)
(0.926405 -1.82653e-15 -5.91011e-16)
(0.926405 -7.73993e-16 -4.25132e-16)
(0.928266 -1.81016e-15 -5.83947e-16)
(0.928266 -7.83309e-16 -4.19841e-16)
(0.930125 -1.79293e-15 -5.74579e-16)
(0.930125 -7.93591e-16 -4.14368e-16)
(0.931981 -1.76998e-15 -5.67088e-16)
(0.931981 -8.07889e-16 -4.08712e-16)
(0.933834 -1.75054e-15 -5.61449e-16)
(0.933834 -8.212e-16 -4.05172e-16)
(0.935684 -1.72897e-15 -5.57389e-16)
(0.935684 -8.31974e-16 -4.0241e-16)
(0.937532 -1.71521e-15 -5.52399e-16)
(0.937532 -8.42872e-16 -4.04367e-16)
(0.939377 -1.69921e-15 -5.40573e-16)
(0.939377 -8.48694e-16 -4.06849e-16)
(0.941219 -1.67859e-15 -5.31218e-16)
(0.941219 -8.5967e-16 -4.06402e-16)
(0.943058 -1.66327e-15 -5.24438e-16)
(0.943058 -8.70305e-16 -4.05675e-16)
(0.944895 -1.64982e-15 -5.19393e-16)
(0.944895 -8.71386e-16 -4.07048e-16)
(0.946729 -1.63489e-15 -5.10932e-16)
(0.946729 -8.80265e-16 -4.09702e-16)
(0.94856 -1.61777e-15 -5.03204e-16)
(0.94856 -8.93216e-16 -4.12237e-16)
(0.950388 -1.6092e-15 -5.04943e-16)
(0.950388 -8.94003e-16 -4.15915e-16)
(0.952213 -1.59505e-15 -5.03368e-16)
(0.952213 -9.02377e-16 -4.19402e-16)
(0.954036 -1.57791e-15 -5.01796e-16)
(0.954036 -9.22504e-16 -4.20114e-16)
(0.955856 -1.5689e-15 -4.97305e-16)
(0.955856 -9.26622e-16 -4.20433e-16)
(0.957673 -1.55919e-15 -4.95769e-16)
(0.957673 -9.18443e-16 -4.20877e-16)
(0.959487 -1.54349e-15 -4.94366e-16)
(0.959487 -9.26559e-16 -4.20265e-16)
(0.961298 -1.51832e-15 -4.95645e-16)
(0.961298 -9.40969e-16 -4.22304e-16)
(0.963106 -1.49636e-15 -4.94731e-16)
(0.963106 -9.39639e-16 -4.26732e-16)
(0.964911 -1.48311e-15 -4.87902e-16)
(0.964911 -9.48008e-16 -4.25082e-16)
(0.966713 -1.46396e-15 -4.86986e-16)
(0.966713 -9.52489e-16 -4.19798e-16)
(0.968513 -1.44523e-15 -4.91339e-16)
(0.968513 -9.48148e-16 -4.20283e-16)
(0.970309 -1.42381e-15 -4.94301e-16)
(0.970309 -9.51567e-16 -4.24086e-16)
(0.972102 -1.40925e-15 -4.96388e-16)
(0.972102 -9.6114e-16 -4.22602e-16)
(0.973892 -1.40678e-15 -4.93088e-16)
(0.973892 -9.52582e-16 -4.19086e-16)
(0.975679 -1.39311e-15 -4.91532e-16)
(0.975679 -9.4776e-16 -4.1896e-16)
(0.977462 -1.37472e-15 -4.91554e-16)
(0.977462 -9.57949e-16 -4.2046e-16)
(0.979242 -1.36154e-15 -4.90588e-16)
(0.979242 -9.44221e-16 -4.19499e-16)
(0.981019 -1.34889e-15 -4.88815e-16)
(0.981019 -9.39957e-16 -4.16138e-16)
(0.982793 -1.33406e-15 -4.87357e-16)
(0.982793 -9.48334e-16 -4.0948e-16)
(0.984563 -1.32253e-15 -4.80683e-16)
(0.984563 -9.53167e-16 -4.07515e-16)
(0.98633 -1.31693e-15 -4.79287e-16)
(0.98633 -9.56622e-16 -4.09351e-16)
(0.988093 -1.30709e-15 -4.71278e-16)
(0.988093 -9.49566e-16 -4.11511e-16)
(0.989852 -1.29671e-15 -4.64549e-16)
(0.989852 -9.58276e-16 -4.07177e-16)
(0.991608 -1.28716e-15 -4.5998e-16)
(0.991608 -9.62635e-16 -4.05656e-16)
(0.99336 -1.27779e-15 -4.57092e-16)
(0.99336 -9.45244e-16 -4.02967e-16)
(0.995108 -1.26985e-15 -4.57193e-16)
(0.995108 -9.30543e-16 -4.0366e-16)
(0.996853 -1.26268e-15 -4.55988e-16)
(0.996853 -9.19119e-16 -4.0781e-16)
(0.998593 -1.25771e-15 -4.52266e-16)
(0.998593 -9.23637e-16 -4.02615e-16)
(1.00033 -1.24527e-15 -4.30818e-16)
(1.00033 -9.39683e-16 -4.05095e-16)
(1.00206 -1.21835e-15 -4.31965e-16)
(1.00206 -9.55705e-16 -4.06645e-16)
(1.00379 -1.19503e-15 -4.38889e-16)
(1.00379 -9.74368e-16 -4.00993e-16)
(1.00551 -1.17852e-15 -4.46733e-16)
(1.00551 -9.91065e-16 -3.94802e-16)
(1.00723 -1.16959e-15 -4.32216e-16)
(1.00723 -9.94179e-16 -3.95669e-16)
(1.00894 -1.16932e-15 -4.21071e-16)
(1.00894 -1.00748e-15 -3.94327e-16)
(1.01065 -1.16463e-15 -4.12573e-16)
(1.01065 -1.01476e-15 -3.92834e-16)
(1.01236 -1.14209e-15 -4.05513e-16)
(1.01236 -1.01804e-15 -3.92892e-16)
(1.01406 -1.11154e-15 -4.1488e-16)
(1.01406 -1.0345e-15 -3.88627e-16)
(1.01575 -1.10202e-15 -4.14814e-16)
(1.01575 -1.04754e-15 -3.82087e-16)
(1.01744 -1.10046e-15 -4.15562e-16)
(1.01744 -1.04708e-15 -3.7961e-16)
(1.01913 -1.09009e-15 -4.12923e-16)
(1.01913 -1.04534e-15 -3.82413e-16)
(1.0208 -1.07864e-15 -3.98101e-16)
(1.0208 -1.03642e-15 -3.80768e-16)
(1.02248 -1.07498e-15 -3.85032e-16)
(1.02248 -1.04042e-15 -3.84431e-16)
(1.02414 -1.07285e-15 -3.91154e-16)
(1.02414 -1.0419e-15 -3.82444e-16)
(1.0258 -1.0719e-15 -3.93272e-16)
(1.0258 -1.04559e-15 -3.70807e-16)
(1.02746 -1.07588e-15 -3.81287e-16)
(1.02746 -1.05463e-15 -3.61096e-16)
(1.0291 -1.08511e-15 -3.80226e-16)
(1.0291 -1.03912e-15 -3.59659e-16)
(1.03074 -1.07551e-15 -3.68511e-16)
(1.03074 -1.03277e-15 -3.67167e-16)
(1.03238 -1.0425e-15 -3.71358e-16)
(1.03238 -1.03654e-15 -3.73448e-16)
(1.03401 -1.00976e-15 -3.77807e-16)
(1.03401 -1.03475e-15 -3.72403e-16)
(1.03562 -9.98911e-16 -3.88225e-16)
(1.03562 -1.03701e-15 -3.63797e-16)
(1.03724 -9.90224e-16 -3.93763e-16)
(1.03724 -1.0199e-15 -3.51379e-16)
(1.03884 -9.78799e-16 -4.05035e-16)
(1.03884 -1.00833e-15 -3.51506e-16)
(1.04044 -9.96765e-16 -4.13059e-16)
(1.04044 -1.00453e-15 -3.5463e-16)
(1.04202 -1.00571e-15 -4.0463e-16)
(1.04202 -9.92494e-16 -3.68454e-16)
(1.0436 -9.94863e-16 -3.96408e-16)
(1.0436 -9.9781e-16 -3.56495e-16)
(1.04517 -9.94027e-16 -3.91138e-16)
(1.04517 -9.91009e-16 -3.37574e-16)
(1.04673 -9.86367e-16 -3.82644e-16)
(1.04673 -9.72322e-16 -3.39884e-16)
(1.04828 -9.70596e-16 -3.9185e-16)
(1.04828 -9.56838e-16 -3.25796e-16)
(1.04982 -9.68414e-16 -3.85242e-16)
(1.04982 -9.54679e-16 -3.51973e-16)
(1.05135 -9.55126e-16 -3.78786e-16)
(1.05135 -9.43324e-16 -3.51086e-16)
(1.05287 -9.4191e-16 -3.79849e-16)
(1.05287 -9.39901e-16 -3.50131e-16)
(1.05437 -9.43032e-16 -3.61726e-16)
(1.05437 -9.3586e-16 -3.39846e-16)
(1.05587 -9.28974e-16 -3.57879e-16)
(1.05587 -9.13111e-16 -3.1494e-16)
(1.05735 -9.15064e-16 -3.4927e-16)
(1.05735 -9.12534e-16 -3.18029e-16)
(1.05882 -9.02988e-16 -3.48572e-16)
(1.05882 -9.26338e-16 -3.51757e-16)
(1.06028 -8.88607e-16 -3.48427e-16)
(1.06028 -9.13715e-16 -3.4726e-16)
(1.06172 -8.88258e-16 -3.52821e-16)
(1.06172 -8.8381e-16 -3.29456e-16)
(1.06315 -9.05461e-16 -3.52579e-16)
(1.06315 -8.78448e-16 -3.27538e-16)
(1.06456 -9.1055e-16 -3.43052e-16)
(1.06456 -9.04943e-16 -3.28331e-16)
(1.06596 -8.80595e-16 -3.37738e-16)
(1.06596 -8.8775e-16 -3.24061e-16)
(1.06734 -8.66097e-16 -3.42277e-16)
(1.06734 -8.61406e-16 -2.93056e-16)
(1.0687 -8.74077e-16 -3.38755e-16)
(1.0687 -8.4932e-16 -2.92318e-16)
(1.07004 -8.57441e-16 -3.31744e-16)
(1.07004 -8.1849e-16 -3.25481e-16)
(1.07137 -8.25948e-16 -3.32383e-16)
(1.07137 -6.77944e-16 -3.32052e-16)
(1.07267 -7.84634e-16 -3.15537e-16)
(1.07267 -7.82315e-16 -3.21389e-16)
(1.07396 -7.4992e-16 -3.37745e-16)
(1.07396 -7.5558e-16 -3.16073e-16)
(1.07522 -7.12128e-16 -3.40042e-16)
(1.07522 -7.17989e-16 -3.13537e-16)
(1.07646 -6.85066e-16 -3.29357e-16)
(1.07646 -6.90072e-16 -3.25501e-16)
(1.07768 -6.24615e-16 -3.64273e-16)
(1.07768 -6.80921e-16 -3.78863e-16)
(1.07887 -4.94014e-16 -4.1239e-16)
(1.07887 -6.25031e-16 -3.84012e-16)
(1.08003 -6.04524e-16 -4.31182e-16)
(1.08003 -5.91974e-16 -3.46396e-16)
(1.08116 -6.31026e-16 -4.50867e-16)
(1.08116 -5.85093e-16 -3.84668e-16)
(1.08227 -5.93386e-16 -4.79346e-16)
(1.08227 -5.63471e-16 -4.32428e-16)
(1.08335 -5.6954e-16 -4.67947e-16)
(1.08335 -6.24791e-16 -4.44675e-16)
(1.08439 -5.94572e-16 -4.21785e-16)
(1.08439 -6.49468e-16 -4.43638e-16)
(1.08539 -6.215e-16 -4.11784e-16)
(1.08539 -6.6176e-16 -4.26305e-16)
(1.08636 -6.98574e-16 -4.2918e-16)
(1.08636 -6.67933e-16 -4.10966e-16)
(1.08729 -6.91855e-16 -3.87176e-16)
(1.08729 -6.91493e-16 -3.718e-16)
(1.08819 -6.67309e-16 -3.67928e-16)
(1.08819 -7.08699e-16 -3.0723e-16)
(1.08903 -6.71227e-16 -3.44098e-16)
(1.08903 -6.77111e-16 -2.68772e-16)
(1.08983 -6.74251e-16 -3.24336e-16)
(1.08983 -6.25248e-16 -2.57379e-16)
(1.09058 -6.32764e-16 -2.73216e-16)
(1.09058 -5.99287e-16 -1.97689e-16)
(1.09129 -6.13017e-16 -2.11194e-16)
(1.09129 -5.78913e-16 -1.72887e-16)
(1.09193 -5.97494e-16 -1.91475e-16)
(1.09193 -5.7746e-16 -1.89764e-16)
(1.09252 -5.68506e-16 -1.28139e-16)
(1.09252 -5.78876e-16 -1.37739e-16)
(1.09305 -5.41205e-16 -1.1794e-16)
(1.09305 -5.28257e-16 -1.67086e-16)
(1.09351 -5.19283e-16 -1.80697e-16)
(1.09351 -5.22434e-16 -1.87217e-16)
(1.09391 -5.12488e-16 -1.97306e-16)
(1.09391 -5.09444e-16 -2.8554e-16)
(1.09423 -5.14829e-16 -1.5626e-16)
(1.09423 -4.87532e-16 -3.50643e-16)
(1.09448 -5.05543e-16 -9.67817e-17)
(1.09448 -5.03336e-16 -4.05527e-16)
(1.09465 -4.75438e-16 -1.02166e-16)
(1.09465 -5.11476e-16 -4.11665e-16)
(1.09474 -4.71239e-16 -8.35255e-17)
(1.09474 -4.66658e-16 -3.94375e-16)
(0.00672948 3.74685e-19 1.15451e-17)
(0.00672948 3.37332e-19 3.8374e-17)
(0.0202844 -8.9634e-19 4.09449e-17)
(0.0202844 -4.36832e-19 8.5876e-17)
(0.0340344 -9.75372e-19 4.21324e-17)
(0.0340344 -2.94062e-19 8.83881e-17)
(0.0479822 -1.55781e-18 4.33502e-17)
(0.0479822 -4.69181e-19 9.09784e-17)
(0.0621303 -2.16681e-18 4.45965e-17)
(0.0621303 -6.26241e-19 9.36468e-17)
(0.0764806 -2.77748e-18 4.58685e-17)
(0.0764806 -8.2868e-19 9.63875e-17)
(0.0910333 -3.38482e-18 4.71605e-17)
(0.0910333 -1.09022e-18 9.91887e-17)
(0.105786 -4.02084e-18 4.84619e-17)
(0.105786 -1.27761e-18 1.02028e-16)
(0.120733 -4.68181e-18 4.97543e-17)
(0.120733 -1.56466e-18 1.04871e-16)
(0.135862 -5.39071e-18 5.10125e-17)
(0.135862 -1.8483e-18 1.07666e-16)
(0.151151 -6.11415e-18 5.22017e-17)
(0.151151 -2.06537e-18 1.10337e-16)
(0.16657 -6.81329e-18 5.32789e-17)
(0.16657 -2.41281e-18 1.12799e-16)
(0.182074 -7.50644e-18 5.41974e-17)
(0.182074 -2.75101e-18 1.14942e-16)
(0.197606 -8.19131e-18 5.49071e-17)
(0.197606 -3.07201e-18 1.16661e-16)
(0.2131 -8.89984e-18 5.53642e-17)
(0.2131 -3.41588e-18 1.17859e-16)
(0.228476 -9.68848e-18 5.55337e-17)
(0.228476 -3.81601e-18 1.18464e-16)
(0.243656 -1.04205e-17 5.54021e-17)
(0.243656 -4.0994e-18 1.18439e-16)
(0.258559 -1.11317e-17 5.49714e-17)
(0.258559 -4.42975e-18 1.17793e-16)
(0.273113 -1.19041e-17 5.42659e-17)
(0.273113 -4.71386e-18 1.16572e-16)
(0.287258 -1.26347e-17 5.33233e-17)
(0.287258 -4.93041e-18 1.14863e-16)
(0.300946 -1.33235e-17 5.2191e-17)
(0.300946 -5.27418e-18 1.12756e-16)
(0.314148 -1.3977e-17 5.0922e-17)
(0.314148 -5.68154e-18 1.10357e-16)
(0.326843 -1.46326e-17 4.95644e-17)
(0.326843 -6.08395e-18 1.07768e-16)
(0.339028 -1.54597e-17 4.81585e-17)
(0.339028 -6.43525e-18 1.05083e-16)
(0.350706 -1.62309e-17 4.67344e-17)
(0.350706 -6.57488e-18 1.02382e-16)
(0.36189 -1.69128e-17 4.53226e-17)
(0.36189 -6.64406e-18 9.97168e-17)
(0.372596 -1.77602e-17 4.39463e-17)
(0.372596 -7.01299e-18 9.71312e-17)
(0.382847 -1.87535e-17 4.26148e-17)
(0.382847 -7.36135e-18 9.46583e-17)
(0.392665 -1.96192e-17 4.13324e-17)
(0.392665 -7.43058e-18 9.23155e-17)
(0.402073 -2.02759e-17 4.01028e-17)
(0.402073 -7.75591e-18 9.01267e-17)
(0.411097 -2.0791e-17 3.89325e-17)
(0.411097 -8.3104e-18 8.80962e-17)
(0.419759 -2.11113e-17 3.78247e-17)
(0.419759 -8.7936e-18 8.62111e-17)
(0.428083 -2.15526e-17 3.67841e-17)
(0.428083 -9.31901e-18 8.44604e-17)
(0.436089 -2.19786e-17 3.57964e-17)
(0.436089 -1.0033e-17 8.28629e-17)
(0.443799 -2.2301e-17 3.4861e-17)
(0.443799 -1.01447e-17 8.14136e-17)
(0.451231 -2.27921e-17 3.39736e-17)
(0.451231 -1.00004e-17 8.00978e-17)
(0.458403 -2.33302e-17 3.31259e-17)
(0.458403 -9.93608e-18 7.89139e-17)
(0.465332 -2.39146e-17 3.23173e-17)
(0.465332 -1.0181e-17 7.78468e-17)
(0.472033 -2.43661e-17 3.15408e-17)
(0.472033 -1.07229e-17 7.69173e-17)
(0.478521 -2.47007e-17 3.13897e-17)
(0.478521 -1.06924e-17 7.60936e-17)
(0.484808 -2.49874e-17 3.1406e-17)
(0.484808 -1.05742e-17 7.53747e-17)
(0.490906 -2.53275e-17 3.14761e-17)
(0.490906 -1.11415e-17 7.47479e-17)
(0.496828 -2.5873e-17 3.1572e-17)
(0.496828 -1.16277e-17 7.42213e-17)
(0.502583 -2.6433e-17 3.16751e-17)
(0.502583 -1.17305e-17 7.3793e-17)
(0.508181 -2.69295e-17 3.18282e-17)
(0.508181 -1.20581e-17 7.34245e-17)
(0.513631 -2.74604e-17 3.20047e-17)
(0.513631 -1.16995e-17 7.31536e-17)
(0.518942 -2.82515e-17 3.21984e-17)
(0.518942 -1.13182e-17 7.29703e-17)
(0.52412 -2.88149e-17 3.24343e-17)
(0.52412 -1.13407e-17 7.28405e-17)
(0.529173 -2.93021e-17 3.26887e-17)
(0.529173 -1.11313e-17 7.27937e-17)
(0.534108 -3.05346e-17 3.29765e-17)
(0.534108 -1.04243e-17 7.28183e-17)
(0.538931 -3.17486e-17 3.32488e-17)
(0.538931 -9.98539e-18 7.29056e-17)
(0.543647 -3.2215e-17 3.35573e-17)
(0.543647 -9.94664e-18 7.30442e-17)
(0.548263 -3.23858e-17 3.38959e-17)
(0.548263 -1.03256e-17 7.3224e-17)
(0.552782 -3.28223e-17 3.42697e-17)
(0.552782 -1.06396e-17 7.34277e-17)
(0.55721 -3.34721e-17 3.46675e-17)
(0.55721 -9.97975e-18 7.36914e-17)
(0.56155 -3.38452e-17 3.50873e-17)
(0.56155 -9.5343e-18 7.40168e-17)
(0.565808 -3.42778e-17 3.55154e-17)
(0.565808 -9.6124e-18 7.44017e-17)
(0.569986 -3.39511e-17 3.59793e-17)
(0.569986 -1.01224e-17 7.48085e-17)
(0.574089 -3.37886e-17 3.65181e-17)
(0.574089 -1.04917e-17 7.52258e-17)
(0.57812 -3.46645e-17 3.70172e-17)
(0.57812 -1.02193e-17 7.57432e-17)
(0.582082 -3.53242e-17 3.75444e-17)
(0.582082 -1.02309e-17 7.63089e-17)
(0.585978 -3.58702e-17 3.80632e-17)
(0.585978 -9.83547e-18 7.69354e-17)
(0.58981 -3.66277e-17 3.86476e-17)
(0.58981 -9.4514e-18 7.75564e-17)
(0.593582 -3.71376e-17 3.92249e-17)
(0.593582 -9.322e-18 7.82863e-17)
(0.597295 -3.77923e-17 3.98229e-17)
(0.597295 -9.64185e-18 7.90764e-17)
(0.600953 -3.87309e-17 4.0455e-17)
(0.600953 -1.03269e-17 7.98776e-17)
(0.604558 -3.95952e-17 4.10812e-17)
(0.604558 -9.72952e-18 8.07707e-17)
(0.608111 -4.06028e-17 4.1736e-17)
(0.608111 -9.10859e-18 8.16732e-17)
(0.611615 -4.12157e-17 4.23798e-17)
(0.611615 -9.1901e-18 8.26702e-17)
(0.615071 -4.13885e-17 4.30062e-17)
(0.615071 -9.20938e-18 8.37374e-17)
(0.618481 -4.1654e-17 4.37074e-17)
(0.618481 -9.61024e-18 8.48242e-17)
(0.621847 -4.21575e-17 4.44175e-17)
(0.621847 -1.02465e-17 8.59492e-17)
(0.625171 -4.30822e-17 4.51399e-17)
(0.625171 -1.03506e-17 8.71152e-17)
(0.628454 -4.34891e-17 4.58644e-17)
(0.628454 -1.01628e-17 8.83192e-17)
(0.631698 -4.33458e-17 4.66651e-17)
(0.631698 -1.02487e-17 8.9549e-17)
(0.634904 -4.35261e-17 4.74549e-17)
(0.634904 -1.08051e-17 9.08444e-17)
(0.638073 -4.36037e-17 4.82679e-17)
(0.638073 -1.07489e-17 9.21738e-17)
(0.641206 -4.39193e-17 4.91215e-17)
(0.641206 -1.09888e-17 9.34846e-17)
(0.644306 -4.46325e-17 4.99505e-17)
(0.644306 -1.13115e-17 9.48754e-17)
(0.647372 -4.57015e-17 5.08287e-17)
(0.647372 -1.10172e-17 9.63051e-17)
(0.650406 -4.65561e-17 5.17117e-17)
(0.650406 -1.13177e-17 9.7771e-17)
(0.65341 -4.68783e-17 5.26197e-17)
(0.65341 -1.26754e-17 9.9213e-17)