/*--------------------------------*- C++ -*----------------------------------*\
| =========                 |                                                 |
| \\      /  F ield         | OpenFOAM: The Open Source CFD Toolbox           |
|  \\    /   O peration     | Version:  2106                                  |
|   \\  /    A nd           | Website:  www.openfoam.com                      |
|    \\/     M anipulation  |                                                 |
\*---------------------------------------------------------------------------*/
FoamFile
{
    version     2.0;
    format      ascii;
    arch        "LSB;label=32;scalar=64";
    class       volVectorField;
    location    "12000";
    object      U;
}
// * * * * * * * * * * * * * * * * * * * * * * * * * * * * * * * * * * * * * //

dimensions      [0 1 -1 0 0 0 0];

internalField   nonuniform List<vector> 
2560
(
(0.015536 -9.11711e-16 -2.37958e-16)
(0.015536 1.3544e-18 -3.35769e-17)
(0.0468294 -4.20474e-15 -7.52363e-16)
(0.0468294 -8.07591e-18 -1.32161e-16)
(0.0785691 -3.88188e-15 -7.75086e-16)
(0.0785691 -1.30518e-17 -1.3584e-16)
(0.11073 -3.65069e-15 -7.96098e-16)
(0.11073 -2.01372e-17 -1.39288e-16)
(0.143199 -3.6256e-15 -8.12454e-16)
(0.143199 -2.77814e-17 -1.41896e-16)
(0.175671 -3.62756e-15 -8.18118e-16)
(0.175671 -3.56293e-17 -1.42629e-16)
(0.207582 -3.61954e-15 -8.06758e-16)
(0.207582 -4.34786e-17 -1.40407e-16)
(0.238184 -3.60576e-15 -7.75909e-16)
(0.238184 -5.11252e-17 -1.34808e-16)
(0.266784 -3.59123e-15 -7.2919e-16)
(0.266784 -5.84283e-17 -1.26464e-16)
(0.292955 -3.57716e-15 -6.74055e-16)
(0.292955 -6.5293e-17 -1.16665e-16)
(0.316593 -3.56425e-15 -6.17698e-16)
(0.316593 -7.16449e-17 -1.06667e-16)
(0.337827 -3.55289e-15 -5.64792e-16)
(0.337827 -7.73773e-17 -9.72644e-17)
(0.356902 -3.54293e-15 -5.17477e-16)
(0.356902 -8.2664e-17 -8.88306e-17)
(0.374094 -3.53396e-15 -4.76247e-16)
(0.374094 -8.75892e-17 -8.145e-17)
(0.389665 -3.52558e-15 -4.40767e-16)
(0.389665 -9.2286e-17 -7.50603e-17)
(0.403847 -3.51785e-15 -4.10381e-16)
(0.403847 -9.65089e-17 -6.95437e-17)
(0.41684 -3.51069e-15 -3.8437e-16)
(0.41684 -1.00505e-16 -6.47745e-17)
(0.428808 -3.50408e-15 -3.62062e-16)
(0.428808 -1.04554e-16 -6.06308e-17)
(0.439892 -3.49816e-15 -3.42875e-16)
(0.439892 -1.07979e-16 -5.70147e-17)
(0.450205 -3.49253e-15 -3.26317e-16)
(0.450205 -1.1129e-16 -5.38433e-17)
(0.459846 -3.48705e-15 -3.1198e-16)
(0.459846 -1.14416e-16 -5.10445e-17)
(0.468894 -3.48154e-15 -2.99528e-16)
(0.468894 -1.17476e-16 -4.85612e-17)
(0.477419 -3.47594e-15 -2.88685e-16)
(0.477419 -1.20711e-16 -4.63413e-17)
(0.485477 -3.47052e-15 -2.79222e-16)
(0.485477 -1.23995e-16 -4.43401e-17)
(0.493118 -3.46493e-15 -2.70953e-16)
(0.493118 -1.27248e-16 -4.25206e-17)
(0.500385 -3.45972e-15 -2.6372e-16)
(0.500385 -1.30378e-16 -4.0862e-17)
(0.507315 -3.45488e-15 -2.57392e-16)
(0.507315 -1.33169e-16 -3.93483e-17)
(0.513938 -3.45012e-15 -2.51862e-16)
(0.513938 -1.35662e-16 -3.79626e-17)
(0.520284 -3.44547e-15 -2.47038e-16)
(0.520284 -1.38103e-16 -3.66782e-17)
(0.526375 -3.44098e-15 -2.42843e-16)
(0.526375 -1.40642e-16 -3.54632e-17)
(0.532233 -3.43658e-15 -2.39207e-16)
(0.532233 -1.42944e-16 -3.43193e-17)
(0.537878 -3.43182e-15 -2.36073e-16)
(0.537878 -1.45598e-16 -3.32676e-17)
(0.543326 -3.42765e-15 -2.33395e-16)
(0.543326 -1.47982e-16 -3.22908e-17)
(0.548592 -3.42366e-15 -2.31132e-16)
(0.548592 -1.4995e-16 -3.13782e-17)
(0.55369 -3.41908e-15 -2.29245e-16)
(0.55369 -1.52396e-16 -3.04989e-17)
(0.558631 -3.41481e-15 -2.27704e-16)
(0.558631 -1.54995e-16 -2.96565e-17)
(0.563426 -3.41068e-15 -2.26482e-16)
(0.563426 -1.5739e-16 -2.8841e-17)
(0.568085 -3.40677e-15 -2.25555e-16)
(0.568085 -1.58936e-16 -2.80609e-17)
(0.572617 -3.40314e-15 -2.24906e-16)
(0.572617 -1.60633e-16 -2.73047e-17)
(0.577031 -3.39909e-15 -2.24514e-16)
(0.577031 -1.62828e-16 -2.65716e-17)
(0.581332 -3.39505e-15 -2.24363e-16)
(0.581332 -1.65076e-16 -2.58676e-17)
(0.585529 -3.39083e-15 -2.24437e-16)
(0.585529 -1.67495e-16 -2.51885e-17)
(0.589627 -3.38618e-15 -2.24722e-16)
(0.589627 -1.70766e-16 -2.45102e-17)
(0.593633 -3.38126e-15 -2.25205e-16)
(0.593633 -1.7411e-16 -2.38102e-17)
(0.59755 -3.37725e-15 -2.25876e-16)
(0.59755 -1.76693e-16 -2.31386e-17)
(0.601384 -3.37422e-15 -2.26731e-16)
(0.601384 -1.78176e-16 -2.24866e-17)
(0.60514 -3.37078e-15 -2.27762e-16)
(0.60514 -1.79199e-16 -2.18553e-17)
(0.608821 -3.36727e-15 -2.28961e-16)
(0.608821 -1.81058e-16 -2.12266e-17)
(0.612431 -3.36395e-15 -2.3032e-16)
(0.612431 -1.83217e-16 -2.0591e-17)
(0.615974 -3.36077e-15 -2.31833e-16)
(0.615974 -1.85266e-16 -1.9952e-17)
(0.619453 -3.35745e-15 -2.33501e-16)
(0.619453 -1.8658e-16 -1.93149e-17)
(0.622871 -3.35363e-15 -2.35316e-16)
(0.622871 -1.88236e-16 -1.87111e-17)
(0.626232 -3.34993e-15 -2.37277e-16)
(0.626232 -1.89996e-16 -1.81317e-17)
(0.629537 -3.34621e-15 -2.39379e-16)
(0.629537 -1.91894e-16 -1.75533e-17)
(0.632789 -3.34217e-15 -2.41617e-16)
(0.632789 -1.94569e-16 -1.69744e-17)
(0.63599 -3.33806e-15 -2.43987e-16)
(0.63599 -1.96619e-16 -1.63912e-17)
(0.639144 -3.33468e-15 -2.46489e-16)
(0.639144 -1.98733e-16 -1.57661e-17)
(0.642251 -3.33137e-15 -2.49126e-16)
(0.642251 -2.01142e-16 -1.51471e-17)
(0.645314 -3.32749e-15 -2.51891e-16)
(0.645314 -2.03124e-16 -1.45446e-17)
(0.648334 -3.3236e-15 -2.54786e-16)
(0.648334 -2.05671e-16 -1.39421e-17)
(0.651313 -3.31963e-15 -2.57813e-16)
(0.651313 -2.07729e-16 -1.33177e-17)
(0.654254 -3.31582e-15 -2.60971e-16)
(0.654254 -2.08623e-16 -1.26946e-17)
(0.657157 -3.3121e-15 -2.64259e-16)
(0.657157 -2.11347e-16 -1.21098e-17)
(0.660023 -3.3079e-15 -2.67678e-16)
(0.660023 -2.12685e-16 -1.15118e-17)
(0.662855 -3.30325e-15 -2.71223e-16)
(0.662855 -2.14568e-16 -1.09689e-17)
(0.665654 -3.29878e-15 -2.74898e-16)
(0.665654 -2.17845e-16 -1.03942e-17)
(0.66842 -3.29435e-15 -2.78706e-16)
(0.66842 -2.20146e-16 -9.79848e-18)
(0.671155 -3.29044e-15 -2.82649e-16)
(0.671155 -2.22909e-16 -9.263e-18)
(0.673861 -3.28693e-15 -2.86726e-16)
(0.673861 -2.25449e-16 -8.68128e-18)
(0.676537 -3.2825e-15 -2.90942e-16)
(0.676537 -2.28296e-16 -8.07095e-18)
(0.679185 -3.27727e-15 -2.95286e-16)
(0.679185 -2.31169e-16 -7.4586e-18)
(0.681807 -3.27295e-15 -2.99767e-16)
(0.681807 -2.3431e-16 -6.84636e-18)
(0.684402 -3.26872e-15 -3.04387e-16)
(0.684402 -2.37131e-16 -6.24383e-18)
(0.686973 -3.2642e-15 -3.09147e-16)
(0.686973 -2.39262e-16 -5.65468e-18)
(0.689519 -3.26e-15 -3.14053e-16)
(0.689519 -2.41857e-16 -5.07125e-18)
(0.692042 -3.25476e-15 -3.19103e-16)
(0.692042 -2.45254e-16 -4.40974e-18)
(0.694541 -3.24981e-15 -3.24287e-16)
(0.694541 -2.48622e-16 -3.76757e-18)
(0.697019 -3.24584e-15 -3.29621e-16)
(0.697019 -2.52495e-16 -3.15358e-18)
(0.699476 -3.24154e-15 -3.35104e-16)
(0.699476 -2.56089e-16 -2.47708e-18)
(0.701911 -3.23718e-15 -3.40733e-16)
(0.701911 -2.58945e-16 -1.8358e-18)
(0.704327 -3.23206e-15 -3.46526e-16)
(0.704327 -2.62733e-16 -1.13561e-18)
(0.706723 -3.22697e-15 -3.52469e-16)
(0.706723 -2.67223e-16 -7.00097e-19)
(0.7091 -3.22269e-15 -3.58572e-16)
(0.7091 -2.70466e-16 -7.76043e-19)
(0.71146 -3.21699e-15 -3.64832e-16)
(0.71146 -2.74309e-16 -8.90873e-19)
(0.713801 -3.21024e-15 -3.71244e-16)
(0.713801 -2.79739e-16 -9.43429e-19)
(0.716125 -3.20428e-15 -3.77815e-16)
(0.716125 -2.83251e-16 -9.44372e-19)
(0.718432 -3.1985e-15 -3.84549e-16)
(0.718432 -2.8785e-16 -9.40738e-19)
(0.720723 -3.19209e-15 -3.91445e-16)
(0.720723 -2.93162e-16 -9.65368e-19)
(0.722998 -3.1861e-15 -3.98509e-16)
(0.722998 -2.96639e-16 -1.10074e-18)
(0.725258 -3.18144e-15 -4.05747e-16)
(0.725258 -2.99463e-16 -1.07287e-18)
(0.727503 -3.17733e-15 -4.13182e-16)
(0.727503 -3.01674e-16 -1.00574e-18)
(0.729733 -3.17363e-15 -4.20787e-16)
(0.729733 -3.0307e-16 -9.89993e-19)
(0.731949 -3.16977e-15 -4.28563e-16)
(0.731949 -3.05086e-16 -1.02868e-18)
(0.734151 -3.16596e-15 -4.36511e-16)
(0.734151 -3.0774e-16 -9.52023e-19)
(0.73634 -3.16237e-15 -4.44636e-16)
(0.73634 -3.1034e-16 -8.44673e-19)
(0.738515 -3.15848e-15 -4.52936e-16)
(0.738515 -3.12531e-16 -8.93457e-19)
(0.740678 -3.15324e-15 -4.61433e-16)
(0.740678 -3.13997e-16 -1.04874e-18)
(0.742829 -3.14679e-15 -4.70107e-16)
(0.742829 -3.17569e-16 -1.03142e-18)
(0.744967 -3.14194e-15 -4.78957e-16)
(0.744967 -3.20907e-16 -8.41593e-19)
(0.747094 -3.13641e-15 -4.88001e-16)
(0.747094 -3.23939e-16 -7.92482e-19)
(0.749209 -3.13029e-15 -4.97231e-16)
(0.749209 -3.26237e-16 -8.07271e-19)
(0.751312 -3.12361e-15 -5.06649e-16)
(0.751312 -3.29826e-16 -7.93965e-19)
(0.753405 -3.1168e-15 -5.1625e-16)
(0.753405 -3.34631e-16 -8.75746e-19)
(0.755487 -3.11102e-15 -5.26052e-16)
(0.755487 -3.37591e-16 -1.02784e-18)
(0.757559 -3.10605e-15 -5.3605e-16)
(0.757559 -3.43265e-16 -1.08515e-18)
(0.759621 -3.10161e-15 -5.46274e-16)
(0.759621 -3.4732e-16 -1.11122e-18)
(0.761672 -3.09528e-15 -5.56703e-16)
(0.761672 -3.50534e-16 -1.15947e-18)
(0.763714 -3.08925e-15 -5.6736e-16)
(0.763714 -3.56402e-16 -1.05386e-18)
(0.765746 -3.08407e-15 -5.78282e-16)
(0.765746 -3.60611e-16 -1.12473e-18)
(0.767769 -3.0784e-15 -5.89454e-16)
(0.767769 -3.62377e-16 -1.20034e-18)
(0.769783 -3.07217e-15 -6.00873e-16)
(0.769783 -3.65371e-16 -1.29422e-18)
(0.771788 -3.06603e-15 -6.12525e-16)
(0.771788 -3.69347e-16 -1.16436e-18)
(0.773785 -3.05995e-15 -6.24426e-16)
(0.773785 -3.7473e-16 -1.13864e-18)
(0.775773 -3.0528e-15 -6.36581e-16)
(0.775773 -3.79118e-16 -1.18013e-18)
(0.777752 -3.04544e-15 -6.4899e-16)
(0.777752 -3.84233e-16 -1.24417e-18)
(0.779724 -3.03925e-15 -6.61671e-16)
(0.779724 -3.90188e-16 -1.27743e-18)
(0.781687 -3.03234e-15 -6.74615e-16)
(0.781687 -3.94379e-16 -1.27933e-18)
(0.783643 -3.02337e-15 -6.87195e-16)
(0.783643 -3.97788e-16 -1.30337e-18)
(0.785591 -3.01393e-15 -6.8931e-16)
(0.785591 -4.01148e-16 -1.39859e-18)
(0.787532 -3.00543e-15 -6.91372e-16)
(0.787532 -4.08344e-16 -1.27029e-18)
(0.789465 -2.9956e-15 -6.93171e-16)
(0.789465 -4.15262e-16 -1.26468e-18)
(0.791392 -2.98539e-15 -6.95328e-16)
(0.791392 -4.20095e-16 -1.24242e-18)
(0.793311 -2.97671e-15 -6.97461e-16)
(0.793311 -4.26174e-16 -1.38652e-18)
(0.795223 -2.96481e-15 -6.99478e-16)
(0.795223 -4.34019e-16 -1.38873e-18)
(0.797129 -2.95353e-15 -7.01704e-16)
(0.797129 -4.40038e-16 -1.49752e-18)
(0.799028 -2.94443e-15 -7.04038e-16)
(0.799028 -4.47714e-16 -1.71738e-18)
(0.800921 -2.93361e-15 -7.06667e-16)
(0.800921 -4.56644e-16 -1.73437e-18)
(0.802807 -2.92559e-15 -7.09162e-16)
(0.802807 -4.59429e-16 -1.26451e-18)
(0.804687 -2.91768e-15 -7.11039e-16)
(0.804687 -4.62271e-16 -1.06369e-18)
(0.806561 -2.90722e-15 -7.12899e-16)
(0.806561 -4.66187e-16 -1.17406e-18)
(0.808429 -2.90022e-15 -7.14898e-16)
(0.808429 -4.67956e-16 -1.62012e-18)
(0.810291 -2.89462e-15 -7.17115e-16)
(0.810291 -4.71066e-16 -1.64662e-18)
(0.812147 -2.88872e-15 -7.18663e-16)
(0.812147 -4.76096e-16 -1.06754e-18)
(0.813998 -2.882e-15 -7.19736e-16)
(0.813998 -4.79262e-16 -7.97563e-19)
(0.815843 -2.87205e-15 -7.21186e-16)
(0.815843 -4.82798e-16 -9.91279e-19)
(0.817683 -2.86107e-15 -7.22943e-16)
(0.817683 -4.87556e-16 -6.88558e-19)
(0.819517 -2.85431e-15 -7.24315e-16)
(0.819517 -4.93422e-16 -5.72496e-19)
(0.821346 -2.84819e-15 -7.25996e-16)
(0.821346 -4.97851e-16 -7.75725e-19)
(0.82317 -2.84099e-15 -7.2758e-16)
(0.82317 -4.99771e-16 -7.48354e-19)
(0.824988 -2.83351e-15 -7.28917e-16)
(0.824988 -5.05736e-16 -2.93651e-19)
(0.826802 -2.82716e-15 -7.30205e-16)
(0.826802 -5.0935e-16 -3.52791e-19)
(0.828611 -2.82075e-15 -7.31547e-16)
(0.828611 -5.12099e-16 -8.51757e-19)
(0.830415 -2.81172e-15 -7.32888e-16)
(0.830415 -5.20551e-16 -8.10772e-19)
(0.832214 -2.803e-15 -7.34364e-16)
(0.832214 -5.27532e-16 -8.99065e-19)
(0.834009 -2.79488e-15 -7.35845e-16)
(0.834009 -5.32552e-16 -1.27305e-18)
(0.835799 -2.78749e-15 -7.37464e-16)
(0.835799 -5.39526e-16 -1.08016e-18)
(0.837585 -2.7791e-15 -7.38548e-16)
(0.837585 -5.43823e-16 -1.07012e-18)
(0.839366 -2.76843e-15 -7.39565e-16)
(0.839366 -5.501e-16 -1.08045e-18)
(0.841142 -2.75807e-15 -7.40946e-16)
(0.841142 -5.56848e-16 -1.11245e-18)
(0.842915 -2.74914e-15 -7.42335e-16)
(0.842915 -5.649e-16 -1.07327e-18)
(0.844683 -2.73962e-15 -7.43477e-16)
(0.844683 -5.74989e-16 -1.4247e-18)
(0.846447 -2.73098e-15 -7.43545e-16)
(0.846447 -5.81433e-16 -1.90684e-18)
(0.848207 -2.72026e-15 -7.4379e-16)
(0.848207 -5.91335e-16 -2.10274e-18)
(0.849963 -2.70601e-15 -7.43955e-16)
(0.849963 -6.01389e-16 -2.02912e-18)
(0.851714 -2.69125e-15 -7.4463e-16)
(0.851714 -6.09788e-16 -1.68962e-18)
(0.853462 -2.68144e-15 -7.44953e-16)
(0.853462 -6.22207e-16 -1.45633e-18)
(0.855206 -2.67305e-15 -7.45004e-16)
(0.855206 -6.29694e-16 -2.09329e-18)
(0.856946 -2.6614e-15 -7.45524e-16)
(0.856946 -6.35151e-16 -3.21551e-18)
(0.858683 -2.64704e-15 -7.46032e-16)
(0.858683 -6.47702e-16 -2.69475e-18)
(0.860416 -2.62931e-15 -7.45772e-16)
(0.860416 -6.62642e-16 -2.4533e-18)
(0.862145 -2.60955e-15 -7.46692e-16)
(0.862145 -6.71986e-16 -3.23051e-18)
(0.86387 -2.59407e-15 -7.47993e-16)
(0.86387 -6.79517e-16 -3.4245e-18)
(0.865592 -2.58489e-15 -7.48345e-16)
(0.865592 -6.87386e-16 -2.87921e-18)
(0.86731 -2.57538e-15 -7.47922e-16)
(0.86731 -6.99388e-16 -3.11128e-18)
(0.869025 -2.55777e-15 -7.48213e-16)
(0.869025 -7.1577e-16 -3.28486e-18)
(0.870737 -2.5433e-15 -7.48688e-16)
(0.870737 -7.31182e-16 -3.50113e-18)
(0.872445 -2.52873e-15 -7.49516e-16)
(0.872445 -7.43317e-16 -3.76105e-18)
(0.874149 -2.5109e-15 -7.50488e-16)
(0.874149 -7.57977e-16 -3.72067e-18)
(0.875851 -2.49089e-15 -7.51744e-16)
(0.875851 -7.75011e-16 -4.18175e-18)
(0.877549 -2.4737e-15 -7.53646e-16)
(0.877549 -7.8682e-16 -4.8471e-18)
(0.879244 -2.46149e-15 -7.5549e-16)
(0.879244 -7.95275e-16 -4.22821e-18)
(0.880935 -2.45352e-15 -7.5623e-16)
(0.880935 -8.00628e-16 -3.37901e-18)
(0.882624 -2.44567e-15 -7.55624e-16)
(0.882624 -8.04849e-16 -2.92424e-18)
(0.884309 -2.43651e-15 -7.54013e-16)
(0.884309 -8.09525e-16 -2.76852e-18)
(0.885992 -2.42894e-15 -7.51493e-16)
(0.885992 -8.18718e-16 -2.76398e-18)
(0.887671 -2.41993e-15 -7.48503e-16)
(0.887671 -8.24493e-16 -2.13586e-18)
(0.889347 -2.40551e-15 -7.446e-16)
(0.889347 -8.30258e-16 -1.25006e-18)
(0.891021 -2.39596e-15 -7.40922e-16)
(0.891021 -8.36291e-16 -1.86815e-18)
(0.892691 -2.3859e-15 -7.3827e-16)
(0.892691 -8.3854e-16 -2.70339e-18)
(0.894358 -2.37192e-15 -7.35955e-16)
(0.894358 -8.46452e-16 -3.18985e-18)
(0.896023 -2.35677e-15 -7.34314e-16)
(0.896023 -8.56109e-16 -3.01837e-18)
(0.897684 -2.34475e-15 -7.32028e-16)
(0.897684 -8.62177e-16 -1.86086e-18)
(0.899343 -2.33175e-15 -7.29136e-16)
(0.899343 -8.66367e-16 -2.00958e-18)
(0.900999 -2.31938e-15 -7.26554e-16)
(0.900999 -8.69069e-16 -2.55788e-18)
(0.902652 -2.30407e-15 -7.23473e-16)
(0.902652 -8.76125e-16 -2.53757e-18)
(0.904303 -2.28897e-15 -7.20705e-16)
(0.904303 -8.79937e-16 -1.78919e-18)
(0.90595 -2.27737e-15 -7.16908e-16)
(0.90595 -8.84709e-16 -1.51443e-18)
(0.907595 -2.26805e-15 -7.12424e-16)
(0.907595 -8.96966e-16 -1.87727e-18)
(0.909237 -2.25929e-15 -7.08281e-16)
(0.909237 -9.03966e-16 -2.00245e-18)
(0.910877 -2.24995e-15 -7.0369e-16)
(0.910877 -9.1295e-16 -1.83138e-18)
(0.912513 -2.24117e-15 -6.98792e-16)
(0.912513 -9.22546e-16 -8.52227e-19)
(0.914148 -2.22913e-15 -6.93029e-16)
(0.914148 -9.30567e-16 -1.20243e-18)
(0.915779 -2.21318e-15 -6.86919e-16)
(0.915779 -9.41135e-16 -2.93854e-18)
(0.917408 -2.19772e-15 -6.81205e-16)
(0.917408 -9.50659e-16 -4.5315e-18)
(0.919034 -2.18627e-15 -6.76214e-16)
(0.919034 -9.60392e-16 -7.77596e-18)
(0.920658 -2.17528e-15 -6.68351e-16)
(0.920658 -9.73911e-16 -1.42832e-17)
(0.922279 -2.16335e-15 -6.59913e-16)
(0.922279 -9.75087e-16 -2.30024e-17)
(0.923897 -2.14969e-15 -6.53217e-16)
(0.923897 -9.82944e-16 -2.73588e-17)
(0.925513 -2.13727e-15 -6.45527e-16)
(0.925513 -1.00419e-15 -3.16578e-17)
(0.927126 -2.12276e-15 -6.35203e-16)
(0.927126 -1.0104e-15 -3.99681e-17)
(0.928737 -2.10215e-15 -6.2816e-16)
(0.928737 -1.02039e-15 -4.69742e-17)
(0.930346 -2.07552e-15 -6.2166e-16)
(0.930346 -1.03065e-15 -5.21582e-17)
(0.931951 -2.05181e-15 -6.14948e-16)
(0.931951 -1.03923e-15 -5.86128e-17)
(0.933554 -2.03471e-15 -6.07565e-16)
(0.933554 -1.04903e-15 -6.6806e-17)
(0.935155 -2.02274e-15 -6.02021e-16)
(0.935155 -1.06102e-15 -7.51979e-17)
(0.936753 -2.00973e-15 -5.96268e-16)
(0.936753 -1.07283e-15 -8.11743e-17)
(0.938349 -1.99098e-15 -5.89241e-16)
(0.938349 -1.07986e-15 -8.93077e-17)
(0.939942 -1.97364e-15 -5.8041e-16)
(0.939942 -1.08703e-15 -1.00547e-16)
(0.941533 -1.95975e-15 -5.7235e-16)
(0.941533 -1.09708e-15 -1.12288e-16)
(0.943121 -1.94688e-15 -5.63678e-16)
(0.943121 -1.10834e-15 -1.2481e-16)
(0.944706 -1.92833e-15 -5.57888e-16)
(0.944706 -1.11534e-15 -1.35126e-16)
(0.94629 -1.90946e-15 -5.47585e-16)
(0.94629 -1.13059e-15 -1.5091e-16)
(0.94787 -1.89111e-15 -5.35192e-16)
(0.94787 -1.13982e-15 -1.66907e-16)
(0.949448 -1.87386e-15 -5.24356e-16)
(0.949448 -1.14185e-15 -1.78886e-16)
(0.951024 -1.86168e-15 -5.25207e-16)
(0.951024 -1.14519e-15 -1.88454e-16)
(0.952597 -1.84697e-15 -5.17803e-16)
(0.952597 -1.15052e-15 -1.99411e-16)
(0.954167 -1.8273e-15 -5.10326e-16)
(0.954167 -1.16497e-15 -2.13597e-16)
(0.955735 -1.80907e-15 -5.0689e-16)
(0.955735 -1.17798e-15 -2.28882e-16)
(0.9573 -1.79754e-15 -5.08744e-16)
(0.9573 -1.17534e-15 -2.45055e-16)
(0.958863 -1.78825e-15 -5.06312e-16)
(0.958863 -1.17655e-15 -2.58975e-16)
(0.960423 -1.76977e-15 -5.0243e-16)
(0.960423 -1.19243e-15 -2.7569e-16)
(0.961981 -1.75253e-15 -4.98212e-16)
(0.961981 -1.19736e-15 -2.98196e-16)
(0.963536 -1.74587e-15 -4.94869e-16)
(0.963536 -1.19734e-15 -3.16797e-16)
(0.965088 -1.73001e-15 -4.93846e-16)
(0.965088 -1.21334e-15 -3.33071e-16)
(0.966638 -1.70774e-15 -4.9658e-16)
(0.966638 -1.22636e-15 -3.51232e-16)
(0.968185 -1.68812e-15 -4.95923e-16)
(0.968185 -1.22476e-15 -3.7305e-16)
(0.969729 -1.67015e-15 -4.88929e-16)
(0.969729 -1.23205e-15 -3.8931e-16)
(0.971271 -1.65972e-15 -4.86939e-16)
(0.971271 -1.2328e-15 -3.87571e-16)
(0.972809 -1.6531e-15 -4.88908e-16)
(0.972809 -1.22535e-15 -3.877e-16)
(0.974345 -1.64061e-15 -4.8946e-16)
(0.974345 -1.22686e-15 -3.9387e-16)
(0.975878 -1.63228e-15 -4.89931e-16)
(0.975878 -1.23953e-15 -3.95077e-16)
(0.977409 -1.63008e-15 -4.85615e-16)
(0.977409 -1.2356e-15 -3.92571e-16)
(0.978936 -1.61957e-15 -4.82586e-16)
(0.978936 -1.22871e-15 -3.94608e-16)
(0.980461 -1.60823e-15 -4.80468e-16)
(0.980461 -1.23804e-15 -4.00306e-16)
(0.981982 -1.59357e-15 -4.74917e-16)
(0.981982 -1.22671e-15 -4.01233e-16)
(0.983501 -1.57637e-15 -4.72056e-16)
(0.983501 -1.21804e-15 -3.98961e-16)
(0.985016 -1.56338e-15 -4.6876e-16)
(0.985016 -1.21717e-15 -3.95674e-16)
(0.986529 -1.5526e-15 -4.60521e-16)
(0.986529 -1.20881e-15 -3.96541e-16)
(0.988038 -1.54092e-15 -4.54467e-16)
(0.988038 -1.2118e-15 -4.05284e-16)
(0.989544 -1.52398e-15 -4.47227e-16)
(0.989544 -1.21162e-15 -4.0939e-16)
(0.991047 -1.51063e-15 -4.41282e-16)
(0.991047 -1.21179e-15 -4.06282e-16)
(0.992547 -1.49786e-15 -4.33453e-16)
(0.992547 -1.21767e-15 -4.08539e-16)
(0.994043 -1.48546e-15 -4.29941e-16)
(0.994043 -1.20426e-15 -4.02776e-16)
(0.995536 -1.4851e-15 -4.32128e-16)
(0.995536 -1.19314e-15 -4.00078e-16)
(0.997025 -1.49073e-15 -4.31629e-16)
(0.997025 -1.19397e-15 -3.96317e-16)
(0.998511 -1.49135e-15 -4.21937e-16)
(0.998511 -1.19934e-15 -3.84927e-16)
(0.999993 -1.47445e-15 -3.98365e-16)
(0.999993 -1.20732e-15 -3.74996e-16)
(1.00147 -1.43891e-15 -3.87264e-16)
(1.00147 -1.20385e-15 -3.72884e-16)
(1.00295 -1.40717e-15 -3.92699e-16)
(1.00295 -1.19901e-15 -3.64716e-16)
(1.00442 -1.38193e-15 -3.99303e-16)
(1.00442 -1.20609e-15 -3.61782e-16)
(1.00588 -1.35766e-15 -3.88752e-16)
(1.00588 -1.21853e-15 -3.62739e-16)
(1.00735 -1.34505e-15 -3.90033e-16)
(1.00735 -1.2281e-15 -3.57073e-16)
(1.00881 -1.3331e-15 -3.9202e-16)
(1.00881 -1.23556e-15 -3.51919e-16)
(1.01026 -1.32261e-15 -3.91177e-16)
(1.01026 -1.24878e-15 -3.48454e-16)
(1.01171 -1.32326e-15 -4.1307e-16)
(1.01171 -1.2444e-15 -3.43702e-16)
(1.01316 -1.31169e-15 -4.09919e-16)
(1.01316 -1.24772e-15 -3.50005e-16)
(1.0146 -1.30475e-15 -4.12775e-16)
(1.0146 -1.24628e-15 -3.60127e-16)
(1.01603 -1.30011e-15 -4.21677e-16)
(1.01603 -1.24796e-15 -3.76846e-16)
(1.01746 -1.28944e-15 -4.15063e-16)
(1.01746 -1.26027e-15 -3.77773e-16)
(1.01889 -1.28375e-15 -4.00127e-16)
(1.01889 -1.26248e-15 -3.85589e-16)
(1.02031 -1.28341e-15 -4.09805e-16)
(1.02031 -1.25401e-15 -3.88968e-16)
(1.02173 -1.27896e-15 -4.12134e-16)
(1.02173 -1.25977e-15 -3.88362e-16)
(1.02314 -1.27029e-15 -4.13767e-16)
(1.02314 -1.26777e-15 -3.84239e-16)
(1.02454 -1.27502e-15 -4.09086e-16)
(1.02454 -1.26134e-15 -3.98259e-16)
(1.02594 -1.26564e-15 -4.05238e-16)
(1.02594 -1.25874e-15 -3.95557e-16)
(1.02734 -1.24391e-15 -3.96515e-16)
(1.02734 -1.25799e-15 -4.04915e-16)
(1.02872 -1.23165e-15 -3.92715e-16)
(1.02872 -1.25156e-15 -4.21855e-16)
(1.03011 -1.21707e-15 -3.87725e-16)
(1.03011 -1.25599e-15 -4.30887e-16)
(1.03148 -1.22433e-15 -4.03064e-16)
(1.03148 -1.23088e-15 -4.13563e-16)
(1.03285 -1.23227e-15 -4.04942e-16)
(1.03285 -1.19948e-15 -4.23686e-16)
(1.03421 -1.21448e-15 -3.99904e-16)
(1.03421 -1.21126e-15 -4.25348e-16)
(1.03556 -1.2067e-15 -4.0444e-16)
(1.03556 -1.21074e-15 -4.24713e-16)
(1.03691 -1.19606e-15 -3.98787e-16)
(1.03691 -1.19907e-15 -4.05126e-16)
(1.03825 -1.1906e-15 -3.99368e-16)
(1.03825 -1.19034e-15 -3.98766e-16)
(1.03958 -1.18799e-15 -3.94019e-16)
(1.03958 -1.19236e-15 -3.98583e-16)
(1.0409 -1.16508e-15 -3.96394e-16)
(1.0409 -1.17158e-15 -3.73011e-16)
(1.04221 -1.15728e-15 -3.95209e-16)
(1.04221 -1.1588e-15 -3.90121e-16)
(1.04352 -1.14293e-15 -3.92149e-16)
(1.04352 -1.14738e-15 -3.93061e-16)
(1.04481 -1.11958e-15 -3.98721e-16)
(1.04481 -1.14334e-15 -3.94078e-16)
(1.0461 -1.12982e-15 -4.06635e-16)
(1.0461 -1.14178e-15 -3.84303e-16)
(1.04737 -1.15568e-15 -4.02201e-16)
(1.04737 -1.12223e-15 -3.58929e-16)
(1.04864 -1.15596e-15 -3.83219e-16)
(1.04864 -1.11517e-15 -3.62832e-16)
(1.04989 -1.13987e-15 -3.77861e-16)
(1.04989 -1.11741e-15 -3.87156e-16)
(1.05114 -1.12957e-15 -3.56684e-16)
(1.05114 -1.10575e-15 -3.87178e-16)
(1.05237 -1.11326e-15 -3.54926e-16)
(1.05237 -1.08936e-15 -3.65272e-16)
(1.05359 -1.10982e-15 -3.59451e-16)
(1.05359 -1.09164e-15 -3.56719e-16)
(1.05479 -1.10776e-15 -3.60109e-16)
(1.05479 -1.09534e-15 -3.65605e-16)
(1.05599 -1.04658e-15 -3.52432e-16)
(1.05599 -1.07485e-15 -3.79242e-16)
(1.05717 -1.06585e-15 -3.54712e-16)
(1.05717 -1.06679e-15 -3.54159e-16)
(1.05833 -1.06563e-15 -3.48242e-16)
(1.05833 -1.04875e-15 -3.42101e-16)
(1.05948 -1.05913e-15 -3.3733e-16)
(1.05948 -1.01591e-15 -3.75773e-16)
(1.06061 -1.03126e-15 -3.40118e-16)
(1.06061 -9.87171e-16 -4.02848e-16)
(1.06173 -9.76152e-16 -3.33912e-16)
(1.06173 -9.95516e-16 -3.77731e-16)
(1.06283 -9.39679e-16 -3.23526e-16)
(1.06283 -9.69301e-16 -3.48475e-16)
(1.06391 -9.13161e-16 -3.17352e-16)
(1.06391 -9.41612e-16 -2.83759e-16)
(1.06497 -8.84905e-16 -2.85975e-16)
(1.06497 -9.10004e-16 -2.73032e-16)
(1.06601 -8.47986e-16 -2.67896e-16)
(1.06601 -8.76714e-16 -2.94949e-16)
(1.06703 -7.97286e-16 -2.67539e-16)
(1.06703 -8.19207e-16 -2.84264e-16)
(1.06802 -7.92026e-16 -2.41688e-16)
(1.06802 -8.10255e-16 -2.4001e-16)
(1.06899 -7.86596e-16 -2.74461e-16)
(1.06899 -7.98444e-16 -2.47298e-16)
(1.06994 -7.53041e-16 -2.97508e-16)
(1.06994 -7.2813e-16 -2.70495e-16)
(1.07086 -7.18723e-16 -2.72495e-16)
(1.07086 -7.39424e-16 -2.81726e-16)
(1.07176 -7.29471e-16 -2.07606e-16)
(1.07176 -7.47259e-16 -2.42065e-16)
(1.07262 -6.84465e-16 -1.92282e-16)
(1.07262 -7.3336e-16 -2.07774e-16)
(1.07345 -6.93834e-16 -2.2422e-16)
(1.07345 -7.09958e-16 -1.72946e-16)
(1.07425 -6.8421e-16 -2.00431e-16)
(1.07425 -6.8649e-16 -1.29936e-16)
(1.07502 -6.68308e-16 -1.7157e-16)
(1.07502 -6.97737e-16 -1.07234e-16)
(1.07574 -6.70773e-16 -1.59597e-16)
(1.07574 -6.68406e-16 -1.19547e-16)
(1.07643 -7.10275e-16 -1.23256e-16)
(1.07643 -5.85652e-16 -1.48311e-16)
(1.07708 -6.38453e-16 -1.4049e-16)
(1.07708 -5.68702e-16 -1.51188e-16)
(1.07768 -6.16998e-16 -8.44522e-17)
(1.07768 -5.60179e-16 -1.22235e-16)
(1.07824 -6.16045e-16 -9.00608e-17)
(1.07824 -5.68136e-16 -1.57793e-16)
(1.07874 -5.75653e-16 -1.01181e-16)
(1.07874 -5.81866e-16 -1.50142e-16)
(1.0792 -5.56013e-16 -8.89398e-17)
(1.0792 -5.67465e-16 -1.69988e-16)
(1.0796 -5.42326e-16 -1.04066e-16)
(1.0796 -5.68898e-16 -1.57378e-16)
(1.07994 -5.22821e-16 -1.01097e-16)
(1.07994 -5.41789e-16 -2.10013e-16)
(1.08022 -5.00074e-16 -1.02651e-16)
(1.08022 -5.33776e-16 -2.07822e-16)
(1.08043 -4.71605e-16 -9.58973e-17)
(1.08043 -5.12262e-16 -2.21138e-16)
(1.08058 -4.74067e-16 -8.71274e-17)
(1.08058 -4.81289e-16 -3.07364e-16)
(1.08065 -4.7206e-16 -1.30199e-16)
(1.08065 -4.64914e-16 -3.46673e-16)
(0.015536 4.70996e-19 7.64257e-17)
(0.015536 5.64312e-19 -3.96697e-17)
(0.0468294 -3.85325e-18 2.89442e-16)
(0.0468294 -2.0768e-18 -4.7051e-16)
(0.0785691 -6.39764e-18 2.97455e-16)
(0.0785691 -2.94204e-18 -4.83453e-16)
(0.11073 -1.00922e-17 3.04962e-16)
(0.11073 -4.71413e-18 -4.95544e-16)
(0.143199 -1.39162e-17 3.10602e-16)
(0.143199 -6.6127e-18 -5.04562e-16)
(0.175671 -1.78294e-17 3.12102e-16)
(0.175671 -8.67803e-18 -5.06814e-16)
(0.207582 -2.17596e-17 3.07094e-16)
(0.207582 -1.07893e-17 -4.98462e-16)
(0.238184 -2.56088e-17 2.9468e-16)
(0.238184 -1.26578e-17 -4.78064e-16)
(0.266784 -2.9261e-17 2.76266e-16)
(0.266784 -1.45373e-17 -4.47929e-16)
(0.292955 -3.26545e-17 2.54705e-16)
(0.292955 -1.62726e-17 -4.12697e-16)
(0.316593 -3.57901e-17 2.32736e-16)
(0.316593 -1.78128e-17 -3.76831e-16)
(0.337827 -3.86294e-17 2.12123e-16)
(0.337827 -1.92722e-17 -3.43193e-16)
(0.356902 -4.12489e-17 1.93667e-16)
(0.356902 -2.06738e-17 -3.13074e-16)
(0.374094 -4.37891e-17 1.77545e-16)
(0.374094 -2.20659e-17 -2.86759e-16)
(0.389665 -4.60808e-17 1.63619e-16)
(0.389665 -2.33101e-17 -2.64024e-16)
(0.403847 -4.81095e-17 1.51634e-16)
(0.403847 -2.44645e-17 -2.44448e-16)
(0.41684 -5.00381e-17 1.41311e-16)
(0.41684 -2.54112e-17 -2.27584e-16)
(0.428808 -5.19182e-17 1.3239e-16)
(0.428808 -2.65265e-17 -2.13004e-16)
(0.439892 -5.35636e-17 1.24643e-16)
(0.439892 -2.7251e-17 -2.0034e-16)
(0.450205 -5.49957e-17 1.17884e-16)
(0.450205 -2.80032e-17 -1.89282e-16)
(0.459846 -5.65282e-17 1.11953e-16)
(0.459846 -2.8931e-17 -1.79577e-16)
(0.468894 -5.8179e-17 1.06724e-16)
(0.468894 -2.96386e-17 -1.71012e-16)
(0.477419 -5.96764e-17 1.02087e-16)
(0.477419 -3.05291e-17 -1.63424e-16)
(0.485477 -6.12518e-17 9.79551e-17)
(0.485477 -3.14542e-17 -1.56673e-16)
(0.493118 -6.28369e-17 9.42494e-17)
(0.493118 -3.19612e-17 -1.5063e-16)
(0.500385 -6.42465e-17 9.09146e-17)
(0.500385 -3.24343e-17 -1.45195e-16)
(0.507315 -6.57636e-17 8.79099e-17)
(0.507315 -3.34194e-17 -1.40284e-16)
(0.513938 -6.74043e-17 8.51915e-17)
(0.513938 -3.41334e-17 -1.35842e-16)
(0.520284 -6.91915e-17 8.27209e-17)
(0.520284 -3.43264e-17 -1.3183e-16)
(0.526375 -7.0792e-17 8.0455e-17)
(0.526375 -3.47722e-17 -1.28178e-16)
(0.532233 -7.17244e-17 7.83807e-17)
(0.532233 -3.57985e-17 -1.24817e-16)
(0.537878 -7.27459e-17 7.64896e-17)
(0.537878 -3.6689e-17 -1.2172e-16)
(0.543326 -7.41435e-17 7.47504e-17)
(0.543326 -3.7674e-17 -1.18865e-16)
(0.548592 -7.52928e-17 7.3153e-17)
(0.548592 -3.9092e-17 -1.16251e-16)
(0.55369 -7.64058e-17 7.16782e-17)
(0.55369 -3.96195e-17 -1.13833e-16)
(0.558631 -7.74867e-17 7.03167e-17)
(0.558631 -3.98163e-17 -1.11604e-16)
(0.563426 -7.85702e-17 6.90529e-17)
(0.563426 -4.00207e-17 -1.09526e-16)
(0.568085 -8.00281e-17 6.78764e-17)
(0.568085 -4.04859e-17 -1.07602e-16)
(0.572617 -8.1434e-17 6.67661e-17)
(0.572617 -4.12063e-17 -1.05803e-16)
(0.577031 -8.25744e-17 6.5727e-17)
(0.577031 -4.14001e-17 -1.04117e-16)
(0.581332 -8.33498e-17 6.47525e-17)
(0.581332 -4.1726e-17 -1.0253e-16)
(0.585529 -8.43002e-17 6.38487e-17)
(0.585529 -4.25704e-17 -1.0105e-16)
(0.589627 -8.53441e-17 6.30031e-17)
(0.589627 -4.32844e-17 -9.96854e-17)
(0.593633 -8.65676e-17 6.22122e-17)
(0.593633 -4.38975e-17 -9.83743e-17)
(0.59755 -8.78062e-17 6.14822e-17)
(0.59755 -4.52641e-17 -9.7139e-17)
(0.601384 -8.90372e-17 6.08049e-17)
(0.601384 -4.54201e-17 -9.59675e-17)
(0.60514 -9.07164e-17 6.01621e-17)
(0.60514 -4.52201e-17 -9.48613e-17)
(0.608821 -9.17409e-17 5.95603e-17)
(0.608821 -4.5818e-17 -9.38259e-17)
(0.612431 -9.25944e-17 5.89976e-17)
(0.612431 -4.60388e-17 -9.28414e-17)
(0.615974 -9.40737e-17 5.84683e-17)
(0.615974 -4.58304e-17 -9.18988e-17)
(0.619453 -9.55109e-17 5.79676e-17)
(0.619453 -4.65777e-17 -9.09764e-17)
(0.622871 -9.70201e-17 5.75031e-17)
(0.622871 -4.78944e-17 -9.00847e-17)
(0.626232 -9.82617e-17 5.70689e-17)
(0.626232 -4.87855e-17 -8.9242e-17)
(0.629537 -9.91183e-17 5.66624e-17)
(0.629537 -4.93815e-17 -8.84273e-17)
(0.632789 -1.00224e-16 5.62881e-17)
(0.632789 -4.91617e-17 -8.76368e-17)
(0.63599 -1.01292e-16 5.59385e-17)
(0.63599 -4.91442e-17 -8.69065e-17)
(0.639144 -1.02334e-16 5.55959e-17)
(0.639144 -4.96698e-17 -8.61758e-17)
(0.642251 -1.03333e-16 5.52753e-17)
(0.642251 -5.01127e-17 -8.54566e-17)
(0.645314 -1.04396e-16 5.4972e-17)
(0.645314 -5.10462e-17 -8.47485e-17)
(0.648334 -1.05968e-16 5.46713e-17)
(0.648334 -5.21021e-17 -8.40713e-17)
(0.651313 -1.07453e-16 5.43707e-17)
(0.651313 -5.29431e-17 -8.34155e-17)
(0.654254 -1.08861e-16 5.40781e-17)
(0.654254 -5.31378e-17 -8.27552e-17)
(0.657157 -1.09999e-16 5.37915e-17)
(0.657157 -5.39571e-17 -8.21252e-17)
(0.660023 -1.1061e-16 5.35146e-17)
(0.660023 -5.57017e-17 -8.14721e-17)
(0.662855 -1.119e-16 5.32779e-17)
(0.662855 -5.66971e-17 -8.08747e-17)
(0.665654 -1.1373e-16 5.30437e-17)
(0.665654 -5.75811e-17 -8.03186e-17)
(0.66842 -1.1557e-16 5.27999e-17)
(0.66842 -5.82343e-17 -7.97074e-17)
(0.671155 -1.16959e-16 5.25841e-17)
(0.671155 -5.8577e-17 -7.9186e-17)
(0.673861 -1.18205e-16 5.23547e-17)
(0.673861 -5.92275e-17 -7.86823e-17)
(0.676537 -1.19575e-16 5.2123e-17)
(0.676537 -5.97925e-17 -7.81884e-17)
(0.679185 -1.20476e-16 5.18976e-17)
(0.679185 -6.02314e-17 -7.77129e-17)
(0.681807 -1.21181e-16 5.16683e-17)
(0.681807 -6.09516e-17 -7.72459e-17)
(0.684402 -1.22316e-16 5.1433e-17)
(0.684402 -6.17516e-17 -7.67677e-17)
(0.686973 -1.23312e-16 5.11906e-17)
(0.686973 -6.24244e-17 -7.63009e-17)
(0.689519 -1.24177e-16 5.09359e-17)
(0.689519 -6.2799e-17 -7.59227e-17)
(0.692042 -1.24464e-16 5.06364e-17)
(0.692042 -6.4308e-17 -7.54981e-17)
(0.694541 -1.24145e-16 5.0365e-17)
(0.694541 -6.60886e-17 -7.5057e-17)
(0.697019 -1.24068e-16 5.0123e-17)
(0.697019 -6.71418e-17 -7.4685e-17)
(0.699476 -1.24039e-16 4.98594e-17)
(0.699476 -6.80938e-17 -7.42665e-17)