/*--------------------------------*- C++ -*----------------------------------*\
| =========                 |                                                 |
| \\      /  F ield         | OpenFOAM: The Open Source CFD Toolbox           |
|  \\    /   O peration     | Version:  2012                                  |
|   \\  /    A nd           | Website:  www.openfoam.com                      |
|    \\/     M anipulation  |                                                 |
\*---------------------------------------------------------------------------*/
FoamFile
{
    version     2.0;
    format      ascii;
    class       volScalarField;
    location    "10100";
    object      nut;
}
// * * * * * * * * * * * * * * * * * * * * * * * * * * * * * * * * * * * * * //

dimensions      [0 2 -1 0 0 0 0];


internalField   nonuniform List<scalar> 
2560
(
4.52339e-11
4.52339e-11
2.53001e-09
2.53001e-09
5.30714e-08
5.30714e-08
4.1487e-07
4.1487e-07
1.91536e-06
1.91536e-06
6.41778e-06
6.41778e-06
1.72385e-05
1.72385e-05
3.89756e-05
3.89756e-05
7.61057e-05
7.61057e-05
0.00013096
0.00013096
0.000203
0.000203
0.000289823
0.000289823
0.000388513
0.000388513
0.000496401
0.000496401
0.000611293
0.000611293
0.000731454
0.000731454
0.000855526
0.000855526
0.000982431
0.000982431
0.00111131
0.00111131
0.00124146
0.00124146
0.0013723
0.0013723
0.00150333
0.00150333
0.00163414
0.00163414
0.00176434
0.00176434
0.0018936
0.0018936
0.00202161
0.00202161
0.0021481
0.0021481
0.00227278
0.00227278
0.0023954
0.0023954
0.00251572
0.00251572
0.00263347
0.00263347
0.00274843
0.00274843
0.00286034
0.00286034
0.00296896
0.00296896
0.00307405
0.00307405
0.00317537
0.00317537
0.00327267
0.00327267
0.00336572
0.00336572
0.00345427
0.00345427
0.00353809
0.00353809
0.00361697
0.00361697
0.00369067
0.00369067
0.00375901
0.00375901
0.00382181
0.00382181
0.00387891
0.00387891
0.00393019
0.00393019
0.00397558
0.00397558
0.00401504
0.00401504
0.0040486
0.0040486
0.00407635
0.00407635
0.00409849
0.00409849
0.00411528
0.00411528
0.00412711
0.00412711
0.00413448
0.00413448
0.00413803
0.00413803
0.00413853
0.00413853
0.00413689
0.00413689
0.00413416
0.00413416
0.00413148
0.00413148
0.00413011
0.00413011
0.00413133
0.00413133
0.00413643
0.00413643
0.00414659
0.00414659
0.00416285
0.00416285
0.00418606
0.00418606
0.00421671
0.00421671
0.00425498
0.00425498
0.00430074
0.00430074
0.00435353
0.00435353
0.00441263
0.00441263
0.00447713
0.00447713
0.00454601
0.00454601
0.00461821
0.00461821
0.0046927
0.0046927
0.00476852
0.00476852
0.00484485
0.00484485
0.00492097
0.00492097
0.0049963
0.0049963
0.00507038
0.00507038
0.00514287
0.00514287
0.00521351
0.00521351
0.00528214
0.00528214
0.00534863
0.00534863
0.00541291
0.00541291
0.00547495
0.00547495
0.00553472
0.00553472
0.00559224
0.00559224
0.0056475
0.0056475
0.00570051
0.00570051
0.0057513
0.0057513
0.00579987
0.00579987
0.00584624
0.00584624
0.00589042
0.00589042
0.00593243
0.00593243
0.00597228
0.00597228
0.00600999
0.00600999
0.00604559
0.00604559
0.00607908
0.00607908
0.00611051
0.00611051
0.0061399
0.0061399
0.00616727
0.00616727
0.00619267
0.00619267
0.00621614
0.00621614
0.00623771
0.00623771
0.00625742
0.00625742
0.00627534
0.00627534
0.0062915
0.0062915
0.00630596
0.00630596
0.00631876
0.00631876
0.00632997
0.00632997
0.00633962
0.00633962
0.00634777
0.00634777
0.00635448
0.00635448
0.00635979
0.00635979
0.00636375
0.00636375
0.00636641
0.00636641
0.00636782
0.00636782
0.00636801
0.00636801
0.00636704
0.00636704
0.00636493
0.00636493
0.00636173
0.00636173
0.00635746
0.00635746
0.00635215
0.00635215
0.00634584
0.00634584
0.00633854
0.00633854
0.00633026
0.00633026
0.00632103
0.00632103
0.00631085
0.00631085
0.00629974
0.00629974
0.00628769
0.00628769
0.00627471
0.00627471
0.00626081
0.00626081
0.00624597
0.00624597
0.00623022
0.00623022
0.00621354
0.00621354
0.00619594
0.00619594
0.00617741
0.00617741
0.00615796
0.00615796
0.00613759
0.00613759
0.00611629
0.00611629
0.00609406
0.00609406
0.00607089
0.00607089
0.00604677
0.00604677
0.00602171
0.00602171
0.00599568
0.00599568
0.00596869
0.00596869
0.00594074
0.00594074
0.00591183
0.00591183
0.00588195
0.00588195
0.00585114
0.00585114
0.0058194
0.0058194
0.00578676
0.00578676
0.00575326
0.00575326
0.00571894
0.00571894
0.00568388
0.00568388
0.00564813
0.00564813
0.00561178
0.00561178
0.00557495
0.00557495
0.00553774
0.00553774
0.00550027
0.00550027
0.00546266
0.00546266
0.00542505
0.00542505
0.00538753
0.00538753
0.00535021
0.00535021
0.00531316
0.00531316
0.00527643
0.00527643
0.00524002
0.00524002
0.00520392
0.00520392
0.00516807
0.00516807
0.00513238
0.00513238
0.00509677
0.00509677
0.0050611
0.0050611
0.00502529
0.00502529
0.00498924
0.00498924
0.0049529
0.0049529
0.00491625
0.00491625
0.00487932
0.00487932
0.00484215
0.00484215
0.00480482
0.00480482
0.00476744
0.00476744
0.00473011
0.00473011
0.00469295
0.00469295
0.00465607
0.00465607
0.00461958
0.00461958
0.00458354
0.00458354
0.00454801
0.00454801
0.00451301
0.00451301
0.00447856
0.00447856
0.00444467
0.00444467
0.00441134
0.00441134
0.00437861
0.00437861
0.00434656
0.00434656
0.00431534
0.00431534
0.00428513
0.00428513
0.00425619
0.00425619
0.00422883
0.00422883
0.00420338
0.00420338
0.00418027
0.00418027
0.00415992
0.00415992
0.00414281
0.00414281
0.00412941
0.00412941
0.00412019
0.00412019
0.00411564
0.00411564
0.0041162
0.0041162
0.0041223
0.0041223
0.0041343
0.0041343
0.00415246
0.00415246
0.00417694
0.00417694
0.00420781
0.00420781
0.00424512
0.00424512
0.0042889
0.00428891
0.00433924
0.00433924
0.00439617
0.00439617
0.00445968
0.00445969
0.00452966
0.00452966
0.00460579
0.0046058
0.00468763
0.00468763
0.00477448
0.00477448
0.00486543
0.00486544
0.00495933
0.00495934
0.00505485
0.00505485
0.00515069
0.00515069
0.00524589
0.00524589
0.00534008
0.00534008
0.00543363
0.00543363
0.00552748
0.00552748
0.00562284
0.00562284
0.00572085
0.00572085
0.00582214
0.00582215
0.00592667
0.00592667
0.00603379
0.00603379
0.00614249
0.00614249
0.00625188
0.00625188
0.00636139
0.00636139
0.00647088
0.00647088
0.00658063
0.00658063
0.00669137
0.00669138
0.00680449
0.00680449
0.00692206
0.00692206
0.00704671
0.00704671
0.00718102
0.00718102
0.0073269
0.0073269
0.00748539
0.0074854
0.00765672
0.00765672
0.00784037
0.00784037
0.008035
0.008035
0.00823795
0.00823795
0.00844457
0.00844457
0.00864802
0.00864802
0.00884076
0.00884076
0.0090177
0.0090177
0.00917879
0.00917879
0.00932914
0.00932914
0.00947729
0.00947729
0.0096324
0.0096324
0.00980093
0.00980093
0.00998536
0.00998536
0.010186
0.010186
0.0104018
0.0104018
0.0106301
0.0106301
0.0108679
0.0108679
0.0111147
0.0111147
0.0113733
0.0113733
0.0116468
0.0116468
0.0119346
0.0119346
0.0122313
0.0122313
0.0125306
0.0125306
0.0128275
0.0128275
0.0131196
0.0131196
0.0134071
0.0134071
0.013692
0.013692
0.0139786
0.0139786
0.0142724
0.0142724
0.0145781
0.0145781
0.0148977
0.0148977
0.0152303
0.0152303
0.0155719
0.0155719
0.0159171
0.0159171
0.016259
0.016259
0.0165921
0.0165921
0.0169141
0.0169141
0.0172238
0.0172238
0.0175167
0.0175167
0.0177813
0.0177813
0.0180008
0.0180008
0.0181604
0.0181604
0.0182536
0.0182536
0.0182817
0.0182817
0.0182504
0.0182504
0.0181752
0.0181752
0.0180854
0.0180854
0.0180082
0.0180082
0.0179428
0.0179428
0.0178725
0.0178725
0.0177997
0.0177997
0.0177425
0.0177426
0.0177024
0.0177024
0.017662
0.017662
0.0176034
0.0176035
0.0175223
0.0175223
0.0174274
0.0174274
0.0173321
0.0173321
0.0172456
0.0172456
0.0171727
0.0171727
0.0171169
0.017117
0.017078
0.017078
0.0170357
0.0170357
0.0169653
0.0169653
0.0168586
0.0168586
0.0167329
0.0167329
0.0166118
0.0166118
0.0165066
0.0165066
0.0164187
0.0164187
0.0163474
0.0163474
0.0162866
0.0162866
0.0162201
0.0162201
0.0161419
0.0161419
0.0160744
0.0160744
0.0160275
0.0160276
0.0160011
0.0160012
4.52339e-11
4.52339e-11
2.53001e-09
2.53001e-09
5.30714e-08
5.30714e-08
4.1487e-07
4.1487e-07
1.91536e-06
1.91536e-06
6.41779e-06
6.41779e-06
1.72385e-05
1.72385e-05
3.89756e-05
3.89756e-05
7.61057e-05
7.61057e-05
0.000130961
0.000130961
0.000203
0.000203
0.000289823
0.000289823
0.000388513
0.000388513
0.000496401
0.000496401
0.000611293
0.000611293
0.000731455
0.000731455
0.000855526
0.000855526
0.000982432
0.000982432
0.00111131
0.00111131
0.00124146
0.00124146
0.0013723
0.0013723
0.00150333
0.00150333
0.00163414
0.00163414
0.00176434
0.00176434
0.0018936
0.0018936
0.00202161
0.00202161
0.0021481
0.0021481
0.00227278
0.00227278
0.0023954
0.0023954
0.00251572
0.00251572
0.00263347
0.00263347
0.00274843
0.00274843
0.00286034
0.00286034
0.00296896
0.00296896
0.00307405
0.00307405
0.00317537
0.00317537
0.00327267
0.00327267
0.00336572
0.00336572
0.00345427
0.00345427
0.0035381
0.0035381
0.00361697
0.00361697
0.00369067
0.00369067
0.00375901
0.00375901
0.00382181
0.00382181
0.00387891
0.00387891
0.0039302
0.0039302
0.00397558
0.00397558
0.00401504
0.00401504
0.0040486
0.0040486
0.00407636
0.00407636
0.00409849
0.00409849
0.00411528
0.00411528
0.00412711
0.00412711
0.00413448
0.00413448
0.00413804
0.00413804
0.00413854
0.00413854
0.0041369
0.0041369
0.00413416
0.00413416
0.00413148
0.00413148
0.00413011
0.00413011
0.00413133
0.00413133
0.00413643
0.00413643
0.00414659
0.00414659
0.00416285
0.00416285
0.00418606
0.00418606
0.00421671
0.00421671
0.00425498
0.00425498
0.00430074
0.00430074
0.00435353
0.00435353
0.00441263
0.00441263
0.00447713
0.00447713
0.00454601
0.00454601
0.00461821
0.00461821
0.00469269
0.00469269
0.00476852
0.00476852
0.00484485
0.00484485
0.00492097
0.00492097
0.0049963
0.0049963
0.00507038
0.00507038
0.00514287
0.00514287
0.00521351
0.00521351
0.00528214
0.00528214
0.00534863
0.00534863
0.00541291
0.00541291
0.00547494
0.00547494
0.00553472
0.00553472
0.00559224
0.00559224
0.0056475
0.0056475
0.00570051
0.00570051
0.0057513
0.0057513
0.00579987
0.00579987
0.00584623
0.00584623
0.00589042
0.00589042
0.00593242
0.00593242
0.00597228
0.00597228
0.00600999
0.00600999
0.00604558
0.00604558
0.00607908
0.00607908
0.00611051
0.00611051
0.00613989
0.00613989
0.00616727
0.00616727
0.00619267
0.00619267
0.00621613
0.00621613
0.0062377
0.0062377
0.00625742
0.00625742
0.00627534
0.00627534
0.0062915
0.0062915
0.00630596
0.00630596
0.00631876
0.00631876
0.00632996
0.00632996
0.00633961
0.00633961
0.00634777
0.00634777
0.00635448
0.00635448
0.00635979
0.00635979
0.00636375
0.00636375
0.00636641
0.00636641
0.00636782
0.00636782
0.00636801
0.00636801
0.00636704
0.00636704
0.00636493
0.00636493
0.00636172
0.00636172
0.00635745
0.00635745
0.00635215
0.00635215
0.00634584
0.00634584
0.00633853
0.00633853
0.00633026
0.00633026
0.00632103
0.00632103
0.00631085
0.00631085
0.00629973
0.00629973
0.00628769
0.00628769
0.00627471
0.00627471
0.0062608
0.0062608
0.00624597
0.00624597
0.00623021
0.00623021
0.00621353
0.00621353
0.00619593
0.00619593
0.00617741
0.00617741
0.00615796
0.00615796
0.00613759
0.00613759
0.00611629
0.00611629
0.00609406
0.00609406
0.00607089
0.00607089
0.00604677
0.00604677
0.0060217
0.0060217
0.00599568
0.00599568
0.00596869
0.00596869
0.00594074
0.00594074
0.00591182
0.00591182
0.00588195
0.00588195
0.00585114
0.00585114
0.00581939
0.00581939
0.00578676
0.00578676
0.00575326
0.00575326
0.00571894
0.00571894
0.00568387
0.00568387
0.00564812
0.00564812
0.00561178
0.00561178
0.00557495
0.00557495
0.00553773
0.00553773
0.00550026
0.00550026
0.00546266
0.00546266
0.00542504
0.00542504
0.00538753
0.00538753
0.00535021
0.00535021
0.00531316
0.00531316
0.00527642
0.00527642
0.00524002
0.00524002
0.00520391
0.00520391
0.00516806
0.00516806
0.00513238
0.00513238
0.00509677
0.00509677
0.0050611
0.0050611
0.00502529
0.00502529
0.00498924
0.00498924
0.0049529
0.0049529
0.00491625
0.00491625
0.00487932
0.00487932
0.00484215
0.00484215
0.00480482
0.00480482
0.00476744
0.00476744
0.00473011
0.00473011
0.00469295
0.00469295
0.00465608
0.00465608
0.00461958
0.00461958
0.00458354
0.00458354
0.00454801
0.00454801
0.00451301
0.00451301
0.00447856
0.00447856
0.00444467
0.00444467
0.00441134
0.00441134
0.00437861
0.00437861
0.00434656
0.00434656
0.00431534
0.00431534
0.00428513
0.00428513
0.0042562
0.0042562
0.00422883
0.00422883
0.00420339
0.00420339
0.00418027
0.00418027
0.00415992
0.00415992
0.00414281
0.00414281
0.00412941
0.00412941
0.00412019
0.00412019
0.00411564
0.00411564
0.0041162
0.0041162
0.0041223
0.0041223
0.00413429
0.00413429
0.00415245
0.00415245
0.00417693
0.00417693
0.0042078
0.0042078
0.0042451
0.00424511
0.00428889
0.00428889
0.00433922
0.00433922
0.00439615
0.00439615
0.00445966
0.00445966
0.00452963
0.00452963
0.00460577
0.00460577
0.0046876
0.0046876
0.00477445
0.00477445
0.00486541
0.00486541
0.00495931
0.00495931
0.00505482
0.00505482
0.00515066
0.00515067
0.00524586
0.00524586
0.00534006
0.00534006
0.00543361
0.00543361
0.00552745
0.00552745
0.00562282
0.00562282
0.00572083
0.00572083
0.00582212
0.00582213
0.00592665
0.00592665
0.00603377
0.00603377
0.00614248
0.00614248
0.00625186
0.00625187
0.00636138
0.00636138
0.00647087
0.00647087
0.00658062
0.00658062
0.00669136
0.00669136
0.00680447
0.00680447
0.00692204
0.00692204
0.00704669
0.00704669
0.00718099
0.00718099
0.00732686
0.00732686
0.00748535
0.00748535
0.00765666
0.00765666
0.00784031
0.00784031
0.00803493
0.00803494
0.00823789
0.00823789
0.00844451
0.00844451
0.00864797
0.00864797
0.00884072
0.00884073
0.00901769
0.00901769
0.00917879
0.00917879
0.00932915
0.00932915
0.0094773
0.0094773
0.00963241
0.00963241
0.00980094
0.00980094
0.00998536
0.00998536
0.0101859
0.010186
0.0104018
0.0104018
0.0106301
0.0106301
0.0108678
0.0108678
0.0111147
0.0111147
0.0113733
0.0113733
0.0116467
0.0116468
0.0119344
0.0119344
0.0122312
0.0122312
0.0125305
0.0125305
0.0128274
0.0128274
0.0131195
0.0131195
0.013407
0.013407
0.0136919
0.0136919
0.0139785
0.0139785
0.0142723
0.0142723
0.0145779
0.0145779
0.0148974
0.0148974
0.01523
0.01523
0.0155715
0.0155715
0.0159166
0.0159166
0.0162585
0.0162585
0.0165916
0.0165916
0.0169135
0.0169136
0.0172233
0.0172233
0.0175163
0.0175163
0.017781
0.017781
0.0180006
0.0180006
0.0181604
0.0181604
0.0182538
0.0182538
0.0182821
0.0182821
0.0182508
0.0182508
0.0181756
0.0181756
0.0180858
0.0180858
0.0180084
0.0180084
0.0179429
0.0179429
0.0178726
0.0178726
0.0177997
0.0177998
0.0177425
0.0177425
0.0177022
0.0177023
0.0176618
0.0176618
0.0176033
0.0176033
0.0175223
0.0175223
0.0174275
0.0174275
0.0173321
0.0173321
0.0172456
0.0172456
0.0171727
0.0171727
0.0171169
0.0171169
0.0170779
0.0170779
0.0170356
0.0170356
0.0169654
0.0169654
0.0168588
0.0168588
0.0167331
0.0167331
0.0166119
0.0166119
0.0165067
0.0165067
0.0164186
0.0164186
0.0163473
0.0163473
0.0162866
0.0162866
0.0162202
0.0162202
0.016142
0.0161419
0.0160744
0.0160743
0.0160275
0.0160273
0.016001
0.0160009
0.0159979
0.015998
0.0160181
0.0160181
0.0160587
0.0160587
0.01612
0.01612
0.016193
0.016193
0.0162563
0.0162563
0.0163152
0.0163153
0.0163845
0.0163845
0.0164721
0.0164721
0.0165771
0.0165771
0.0166979
0.0166979
0.0168242
0.0168242
0.0169325
0.0169325
0.0170062
0.0170062
0.0170556
0.0170556
0.0171039
0.0171039
0.0171685
0.0171685
0.0172499
0.0172499
0.0173445
0.0173446
0.0174475
0.0174476
0.0175483
0.0175483
0.0176332
0.0176332
0.0176942
0.0176942
0.0177374
0.0177374
0.0177814
0.0177814
0.0178423
0.0178423
0.0179187
0.0179187
0.0179929
0.0179929
0.0180624
0.0180625
0.0181431
0.0181431
0.0182362
0.0182362
0.0183143
0.0183143
0.0183464
0.0183464
0.0183165
0.0183165
0.0182191
0.0182191
0.0180534
0.0180534
0.0178291
0.0178291
0.0175618
0.0175618
0.0172678
0.0172678
0.016958
0.016958
0.0166361
0.0166361
0.0163031
0.0163031
0.0159613
0.0159613
0.0156158
0.0156158
0.0152738
0.0152738
0.0149408
0.0149408
0.0146208
0.0146208
0.0143147
0.0143147
0.0140202
0.0140202
0.0137327
0.0137327
0.0134465
0.0134465
0.0131575
0.0131575
0.0128642
0.0128643
0.0125665
0.0125666
0.0122658
0.0122658
0.0119672
0.0119672
0.0116776
0.0116776
0.0114022
0.0114022
0.0111416
0.0111416
0.0108932
0.0108932
0.0106541
0.0106541
0.0104241
0.0104241
0.0102063
0.0102063
0.0100036
0.0100036
0.00981696
0.00981696
0.00964618
0.00964618
0.00948908
0.00948908
0.00933949
0.00933949
0.00918764
0.00918764
0.0090243
0.00902431
0.00884438
0.00884438
0.00864905
0.00864906
0.00844389
0.00844389
0.00823614
0.00823614
0.00803266
0.00803266
0.007838
0.00783801
0.00765454
0.00765454
0.0074834
0.0074834
0.00732492
0.00732492
0.00717878
0.00717878
0.00704398
0.00704398
0.00691869
0.00691869
0.00680044
0.00680044
0.00668677
0.00668677
0.00657553
0.00657554
0.00646524
0.00646524
0.00635545
0.00635545
0.00624595
0.00624595
0.00613649
0.00613649
0.00602775
0.00602775
0.00592093
0.00592093
0.00581691
0.00581691
0.0057163
0.00571631
0.00561927
0.00561927
0.00552498
0.00552498
0.00543192
0.00543192
0.00533884
0.00533885
0.00524502
0.00524502
0.00515003
0.00515003
0.00505432
0.00505432
0.00495906
0.00495906
0.00486553
0.00486553
0.00477488
0.00477488
0.00468823
0.00468823
0.00460642
0.00460642
0.00453009
0.00453009
0.00445986
0.00445986
0.00439609
0.00439609
0.00433887
0.00433887
0.00428829
0.00428829
0.00424438
0.00424438
0.00420704
0.00420704
0.00417619
0.00417619
0.00415177
0.00415177
0.00413367
0.00413367
0.00412173
0.00412173
0.00411571
0.00411571
0.00411523
0.00411523
0.00411985
0.00411985
0.00412912
0.00412912
0.00414256
0.00414257
0.00415969
0.00415969
0.00418003
0.00418003
0.00420317
0.00420317
0.00422865
0.00422865
0.00425603
0.00425604
0.00428496
0.00428496
0.00431517
0.00431517
0.00434641
0.00434641
0.00437849
0.00437849
0.00441127
0.00441127
0.00444462
0.00444462
0.00447849
0.00447849
0.0045129
0.0045129
0.00454786
0.00454786
0.00458336
0.00458336
0.00461936
0.00461936
0.00465584
0.00465584
0.00469272
0.00469272
0.00472987
0.00472987
0.00476721
0.00476721
0.0048046
0.0048046
0.00484193
0.00484193
0.00487912
0.00487912
0.00491609
0.00491609
0.00495276
0.00495276
0.00498908
0.00498908
0.00502511
0.00502511
0.00506091
0.00506091
0.00509658
0.00509658
0.00513223
0.00513223
0.00516795
0.00516795
0.00520384
0.00520384
0.00523997
0.00523997
0.00527639
0.00527639
0.00531313
0.00531313
0.00535019
0.00535019
0.00538751
0.00538751
0.00542501
0.00542501
0.00546261
0.00546261
0.0055002
0.0055002
0.00553766
0.00553766
0.00557486
0.00557486
0.00561169
0.00561169
0.00564802
0.00564802
0.00568376
0.00568376
0.00571882
0.00571882
0.00575313
0.00575313
0.00578662
0.00578662
0.00581925
0.00581925
0.00585097
0.00585097
0.00588178
0.00588178
0.00591164
0.00591164
0.00594055
0.00594055
0.0059685
0.0059685
0.00599549
0.00599549
0.00602153
0.00602153
0.00604662
0.00604662
0.00607076
0.00607076
0.00609396
0.00609396
0.00611623
0.00611623
0.00613758
0.00613758
0.006158
0.006158
0.00617749
0.00617749
0.00619605
0.00619605
0.00621366
0.00621366
0.00623034
0.00623034
0.00624611
0.00624611
0.00626096
0.00626096
0.00627488
0.00627488
0.0062879
0.0062879
0.00630002
0.00630002
0.0063112
0.0063112
0.00632143
0.00632143
0.00633069
0.00633069
0.006339
0.006339
0.00634633
0.00634633
0.00635264
0.00635264
0.00635794
0.00635794
0.00636222
0.00636222
0.0063654
0.0063654
0.00636747
0.00636747
0.0063684
0.0063684
0.00636812
0.00636812
0.00636658
0.00636658
0.00636379
0.00636379
0.00635973
0.00635973
0.00635435
0.00635435
0.00634761
0.00634761
0.00633943
0.00633943
0.00632973
0.00632973
0.0063185
0.00631851
0.00630568
0.00630568
0.00629118
0.00629118
0.00627501
0.00627501
0.00625706
0.00625706
0.00623725
0.00623725
0.00621561
0.00621561
0.00619213
0.00619213
0.00616673
0.00616673
0.00613937
0.00613937
0.00611004
0.00611004
0.00607872
0.00607872
0.00604533
0.00604533
0.00600982
0.00600982
0.00597219
0.00597219
0.00593236
0.00593236
0.00589029
0.00589029
0.00584595
0.00584595
0.00579934
0.00579934
0.00575052
0.00575052
0.0056996
0.0056996
0.00564657
0.00564657
0.00559134
0.00559134
0.00553383
0.00553383
0.00547404
0.00547404
0.00541195
0.00541195
0.00534755
0.00534755
0.00528093
0.00528093
0.00521217
0.00521217
0.00514139
0.00514139
0.00506881
0.00506881
0.0049947
0.0049947
0.00491939
0.00491939
0.00484336
0.00484336
0.00476718
0.00476718
0.00469149
0.00469149
0.00461712
0.00461712
0.00454502
0.00454502
0.00447625
0.00447625
0.00441187
0.00441187
0.00435285
0.00435285
0.00430011
0.00430011
0.0042544
0.0042544
0.00421617
0.00421617
0.00418556
0.00418556
0.00416239
0.00416239
0.00414616
0.00414616
0.00413602
0.00413602
0.00413093
0.00413093
0.00412972
0.00412972
0.00413113
0.00413113
0.00413386
0.00413386
0.00413666
0.00413666
0.00413837
0.00413837
0.00413794
0.00413794
0.00413448
0.00413448
0.00412722
0.00412722
0.00411552
0.00411552
0.0040988
0.0040988
0.00407668
0.00407668
0.00404897
0.00404897
0.0040155
0.0040155
0.00397613
0.00397613
0.00393081
0.00393081
0.00387958
0.00387958
0.00382254
0.00382254
0.00375979
0.00375979
0.00369148
0.00369148
0.00361781
0.00361781
0.00353897
0.00353897
0.00345516
0.00345516
0.00336661
0.00336661
0.00327355
0.00327355
0.00317624
0.00317624
0.0030749
0.0030749
0.00296979
0.00296979
0.00286114
0.00286114
0.0027492
0.0027492
0.0026342
0.0026342
0.00251641
0.00251641
0.00239607
0.00239607
0.00227343
0.00227343
0.00214873
0.00214873
0.00202222
0.00202222
0.00189419
0.00189419
0.0017649
0.0017649
0.00163467
0.00163467
0.00150383
0.00150383
0.00137276
0.00137276
0.00124189
0.00124189
0.0011117
0.0011117
0.000982787
0.000982787
0.000855845
0.000855845
0.000731738
0.000731738
0.00061154
0.00061154
0.000496614
0.000496614
0.000388691
0.000388691
0.000289966
0.000289966
0.00020311
0.00020311
0.000131038
0.000131038
7.61549e-05
7.61549e-05
3.90026e-05
3.90026e-05
1.72509e-05
1.72509e-05
6.42249e-06
6.42249e-06
1.91677e-06
1.91677e-06
4.15175e-07
4.15175e-07
5.31104e-08
5.31105e-08
2.53185e-09
2.53185e-09
4.52462e-11
4.52462e-11
0.0159978
0.0159977
0.016018
0.0160179
0.0160587
0.0160586
0.0161201
0.01612
0.0161931
0.0161931
0.0162563
0.0162562
0.0163152
0.0163152
0.0163845
0.0163845
0.0164722
0.0164722
0.0165772
0.0165772
0.0166981
0.0166981
0.0168244
0.0168244
0.0169325
0.0169325
0.0170061
0.0170061
0.0170554
0.0170554
0.0171038
0.0171038
0.0171685
0.0171685
0.0172499
0.0172499
0.0173446
0.0173446
0.0174476
0.0174476
0.0175483
0.0175483
0.0176331
0.0176331
0.017694
0.017694
0.0177372
0.0177372
0.0177813
0.0177813
0.0178423
0.0178423
0.0179188
0.0179188
0.017993
0.017993
0.0180626
0.0180626
0.0181434
0.0181434
0.0182366
0.0182367
0.0183148
0.0183148
0.0183468
0.0183468
0.0183167
0.0183167
0.0182191
0.0182191
0.0180532
0.0180532
0.0178287
0.0178287
0.0175614
0.0175614
0.0172673
0.0172673
0.0169575
0.0169575
0.0166356
0.0166356
0.0163026
0.0163026
0.0159608
0.0159608
0.0156154
0.0156154
0.0152734
0.0152735
0.0149405
0.0149405
0.0146205
0.0146205
0.0143145
0.0143145
0.0140201
0.0140201
0.0137326
0.0137326
0.0134464
0.0134464
0.0131574
0.0131574
0.0128641
0.0128641
0.0125664
0.0125664
0.0122656
0.0122656
0.0119671
0.0119671
0.0116775
0.0116775
0.0114022
0.0114022
0.0111416
0.0111416
0.0108931
0.0108932
0.0106541
0.0106541
0.0104241
0.0104241
0.0102063
0.0102063
0.0100036
0.0100036
0.00981696
0.00981696
0.00964619
0.00964619
0.00948909
0.00948909
0.0093395
0.0093395
0.00918764
0.00918764
0.00902429
0.00902429
0.00884435
0.00884435
0.008649
0.008649
0.00844383
0.00844383
0.00823607
0.00823607
0.0080326
0.0080326
0.00783795
0.00783795
0.00765449
0.00765449
0.00748335
0.00748335
0.00732488
0.00732488
0.00717875
0.00717875
0.00704395
0.00704396
0.00691867
0.00691867
0.00680042
0.00680043
0.00668676
0.00668676
0.00657552
0.00657552
0.00646522
0.00646523
0.00635544
0.00635544
0.00624594
0.00624594
0.00613648
0.00613648
0.00602774
0.00602774
0.00592091
0.00592091
0.00581689
0.00581689
0.00571628
0.00571629
0.00561925
0.00561925
0.00552496
0.00552496
0.00543189
0.00543189
0.00533882
0.00533882
0.00524499
0.00524499
0.00515
0.00515
0.00505429
0.00505429
0.00495903
0.00495904
0.0048655
0.0048655
0.00477485
0.00477485
0.0046882
0.0046882
0.0046064
0.0046064
0.00453007
0.00453007
0.00445984
0.00445984
0.00439607
0.00439607
0.00433886
0.00433886
0.00428828
0.00428828
0.00424437
0.00424437
0.00420703
0.00420703
0.00417618
0.00417618
0.00415176
0.00415176
0.00413366
0.00413366
0.00412173
0.00412173
0.0041157
0.0041157
0.00411522
0.00411522
0.00411985
0.00411985
0.00412912
0.00412912
0.00414257
0.00414257
0.00415969
0.00415969
0.00418003
0.00418003
0.00420317
0.00420317
0.00422865
0.00422865
0.00425604
0.00425604
0.00428497
0.00428497
0.00431517
0.00431517
0.00434641
0.00434641
0.00437849
0.00437849
0.00441127
0.00441127
0.00444462
0.00444462
0.0044785
0.0044785
0.0045129
0.0045129
0.00454786
0.00454786
0.00458336
0.00458336
0.00461937
0.00461937
0.00465584
0.00465584
0.00469272
0.00469272
0.00472988
0.00472988
0.00476721
0.00476721
0.0048046
0.0048046
0.00484193
0.00484193
0.00487912
0.00487912
0.00491609
0.00491609
0.00495276
0.00495276
0.00498908
0.00498908
0.0050251
0.0050251
0.00506091
0.00506091
0.00509658
0.00509658
0.00513223
0.00513223
0.00516795
0.00516795
0.00520384
0.00520384
0.00523997
0.00523997
0.00527639
0.00527639
0.00531313
0.00531313
0.00535019
0.00535019
0.0053875
0.0053875
0.00542501
0.00542501
0.00546261
0.00546261
0.0055002
0.0055002
0.00553766
0.00553766
0.00557486
0.00557486
0.00561168
0.00561168
0.00564802
0.00564802
0.00568376
0.00568376
0.00571882
0.00571882
0.00575312
0.00575312
0.00578661
0.00578662
0.00581924
0.00581924
0.00585097
0.00585097
0.00588178
0.00588178
0.00591164
0.00591164
0.00594055
0.00594055
0.0059685
0.0059685
0.00599549
0.00599549
0.00602152
0.00602152
0.00604662
0.00604662
0.00607076
0.00607076
0.00609396
0.00609396
0.00611623
0.00611623
0.00613757
0.00613757
0.006158
0.006158
0.00617749
0.00617749
0.00619605
0.00619605
0.00621366
0.00621366
0.00623034
0.00623034
0.00624611
0.00624611
0.00626096
0.00626096
0.00627488
0.00627488
0.00628789
0.00628789
0.00630001
0.00630001
0.0063112
0.0063112
0.00632142
0.00632142
0.00633069
0.00633069
0.006339
0.006339
0.00634633
0.00634633
0.00635264
0.00635264
0.00635794
0.00635794
0.00636222
0.00636222
0.0063654
0.0063654
0.00636747
0.00636747
0.0063684
0.0063684
0.00636812
0.00636812
0.00636657
0.00636657
0.00636378
0.00636378
0.00635973
0.00635973
0.00635435
0.00635435
0.00634761
0.00634761
0.00633943
0.00633943
0.00632973
0.00632973
0.0063185
0.0063185
0.00630568
0.00630568
0.00629118
0.00629118
0.00627501
0.00627501
0.00625706
0.00625706
0.00623725
0.00623725
0.00621561
0.00621561
0.00619213
0.00619213
0.00616673
0.00616673
0.00613937
0.00613937
0.00611004
0.00611004
0.00607872
0.00607872
0.00604533
0.00604533
0.00600982
0.00600982
0.00597219
0.00597219
0.00593236
0.00593236
0.00589029
0.00589029
0.00584595
0.00584595
0.00579934
0.00579934
0.00575052
0.00575052
0.0056996
0.0056996
0.00564657
0.00564657
0.00559134
0.00559134
0.00553383
0.00553383
0.00547404
0.00547404
0.00541195
0.00541195
0.00534755
0.00534755
0.00528093
0.00528093
0.00521217
0.00521217
0.00514139
0.00514139
0.00506881
0.00506881
0.0049947
0.0049947
0.00491939
0.00491939
0.00484336
0.00484336
0.00476718
0.00476718
0.00469149
0.00469149
0.00461712
0.00461712
0.00454502
0.00454502
0.00447626
0.00447626
0.00441187
0.00441187
0.00435285
0.00435285
0.00430011
0.00430011
0.00425441
0.00425441
0.00421618
0.00421618
0.00418557
0.00418557
0.00416239
0.00416239
0.00414616
0.00414616
0.00413603
0.00413603
0.00413094
0.00413094
0.00412973
0.00412973
0.00413114
0.00413114
0.00413387
0.00413387
0.00413667
0.00413667
0.00413837
0.00413837
0.00413795
0.00413795
0.00413448
0.00413448
0.00412723
0.00412723
0.00411552
0.00411552
0.0040988
0.0040988
0.00407669
0.00407669
0.00404897
0.00404897
0.00401551
0.00401551
0.00397614
0.00397614
0.00393081
0.00393081
0.00387958
0.00387958
0.00382254
0.00382254
0.00375979
0.00375979
0.00369148
0.00369148
0.00361781
0.00361781
0.00353897
0.00353897
0.00345516
0.00345516
0.00336661
0.00336661
0.00327356
0.00327356
0.00317624
0.00317624
0.00307491
0.00307491
0.00296979
0.00296979
0.00286114
0.00286114
0.0027492
0.0027492
0.0026342
0.0026342
0.00251641
0.00251641
0.00239607
0.00239607
0.00227343
0.00227343
0.00214873
0.00214873
0.00202222
0.00202222
0.00189419
0.00189419
0.0017649
0.0017649
0.00163467
0.00163467
0.00150383
0.00150383
0.00137277
0.00137277
0.00124189
0.00124189
0.0011117
0.0011117
0.000982788
0.000982788
0.000855845
0.000855845
0.000731738
0.000731738
0.00061154
0.00061154
0.000496614
0.000496614
0.000388691
0.000388691
0.000289966
0.000289966
0.00020311
0.00020311
0.000131038
0.000131038
7.61549e-05
7.61549e-05
3.90026e-05
3.90026e-05
1.72509e-05
1.72509e-05
6.42248e-06
6.42248e-06
1.91677e-06
1.91677e-06
4.15175e-07
4.15175e-07
5.31104e-08
5.31104e-08
2.53184e-09
2.53184e-09
4.52461e-11
4.52461e-11
)
;

boundaryField
{
    walls
    {
        type            nutUWallFunction;
        blending        stepwise;
        Cmu             0.09;
        kappa           0.41;
        E               9.8;
        value           uniform 0;
    }
    inlet
    {
        type            cyclic;
    }
    outlet
    {
        type            cyclic;
    }
    sides
    {
        type            empty;
    }
}


// ************************************************************************* //
