/*--------------------------------*- C++ -*----------------------------------*\
| =========                 |                                                 |
| \\      /  F ield         | OpenFOAM: The Open Source CFD Toolbox           |
|  \\    /   O peration     | Version:  2012                                  |
|   \\  /    A nd           | Website:  www.openfoam.com                      |
|    \\/     M anipulation  |                                                 |
\*---------------------------------------------------------------------------*/
FoamFile
{
    version     2.0;
    format      ascii;
    class       volScalarField;
    location    "10100";
    object      p;
}
// * * * * * * * * * * * * * * * * * * * * * * * * * * * * * * * * * * * * * //

dimensions      [0 2 -2 0 0 0 0];


internalField   nonuniform List<scalar> 
2560
(
2.33132e-09
-2.41095e-06
-4.06545e-08
-2.43875e-06
-2.34787e-07
-2.61781e-06
-8.35372e-07
-3.21015e-06
-2.23388e-06
-4.60712e-06
-4.96112e-06
-7.33422e-06
-9.67393e-06
-1.20473e-05
-1.71564e-05
-1.95303e-05
-2.83422e-05
-3.07161e-05
-4.43173e-05
-4.66913e-05
-6.63057e-05
-6.86797e-05
-9.56639e-05
-9.80379e-05
-0.000133878
-0.000136252
-0.000182575
-0.00018495
-0.000243527
-0.000245902
-0.000318636
-0.00032101
-0.000409928
-0.000412303
-0.000519563
-0.000521938
-0.000649846
-0.000652221
-0.000803185
-0.00080556
-0.000982084
-0.00098446
-0.00118922
-0.00119159
-0.00142737
-0.00142975
-0.00169936
-0.00170174
-0.00200814
-0.00201051
-0.00235684
-0.00235922
-0.00274863
-0.00275101
-0.00318666
-0.00318904
-0.00367427
-0.00367665
-0.00421495
-0.00421733
-0.00481217
-0.00481455
-0.00546938
-0.00547176
-0.00619017
-0.00619255
-0.00697833
-0.00698071
-0.00783749
-0.00783987
-0.00877131
-0.00877369
-0.00978362
-0.009786
-0.0108783
-0.0108807
-0.0120593
-0.0120616
-0.0133301
-0.0133325
-0.0146948
-0.0146972
-0.0161573
-0.0161597
-0.0177216
-0.017724
-0.0193914
-0.0193938
-0.0211706
-0.021173
-0.0230632
-0.0230656
-0.025073
-0.0250754
-0.0272038
-0.0272062
-0.0294593
-0.0294617
-0.0318441
-0.0318465
-0.0343611
-0.0343634
-0.0370132
-0.0370156
-0.0398064
-0.0398088
-0.0427427
-0.0427451
-0.0458256
-0.045828
-0.0490599
-0.0490623
-0.0524476
-0.05245
-0.0559934
-0.0559958
-0.0596997
-0.0597021
-0.0635694
-0.0635718
-0.0676064
-0.0676088
-0.0718138
-0.0718162
-0.0761951
-0.0761975
-0.0807507
-0.0807531
-0.0854854
-0.0854878
-0.0904025
-0.0904049
-0.095502
-0.0955044
-0.100788
-0.10079
-0.106261
-0.106263
-0.111925
-0.111927
-0.11778
-0.117783
-0.123828
-0.123831
-0.130072
-0.130074
-0.13651
-0.136512
-0.143145
-0.143148
-0.149978
-0.149981
-0.15701
-0.157012
-0.164238
-0.164241
-0.171665
-0.171668
-0.17929
-0.179292
-0.187112
-0.187115
-0.19513
-0.195133
-0.203344
-0.203346
-0.211751
-0.211754
-0.220349
-0.220352
-0.229137
-0.22914
-0.238113
-0.238116
-0.247275
-0.247277
-0.256618
-0.256621
-0.26614
-0.266142
-0.275835
-0.275838
-0.285703
-0.285705
-0.295737
-0.29574
-0.305935
-0.305937
-0.316288
-0.31629
-0.326795
-0.326797
-0.33745
-0.337452
-0.348244
-0.348247
-0.359176
-0.359178
-0.370236
-0.370238
-0.381419
-0.381421
-0.39272
-0.392723
-0.404129
-0.404131
-0.41564
-0.415643
-0.427247
-0.42725
-0.438941
-0.438944
-0.450716
-0.450718
-0.462562
-0.462565
-0.474473
-0.474475
-0.48644
-0.486443
-0.498454
-0.498457
-0.510509
-0.510511
-0.522595
-0.522598
-0.534704
-0.534706
-0.546828
-0.546831
-0.558957
-0.55896
-0.571085
-0.571088
-0.583202
-0.583205
-0.595301
-0.595304
-0.607372
-0.607374
-0.619407
-0.619409
-0.631398
-0.631401
-0.643337
-0.64334
-0.655218
-0.655221
-0.66703
-0.667032
-0.678767
-0.678769
-0.690421
-0.690424
-0.701984
-0.701986
-0.71345
-0.713453
-0.724811
-0.724814
-0.73606
-0.736062
-0.74719
-0.747192
-0.758195
-0.758197
-0.769068
-0.76907
-0.779801
-0.779804
-0.790391
-0.790393
-0.80083
-0.800832
-0.811112
-0.811115
-0.821232
-0.821235
-0.831185
-0.831187
-0.840964
-0.840966
-0.850566
-0.850568
-0.859985
-0.859988
-0.869219
-0.869221
-0.878261
-0.878264
-0.887109
-0.887112
-0.89576
-0.895762
-0.904209
-0.904212
-0.912455
-0.912458
-0.920496
-0.920498
-0.928327
-0.92833
-0.935949
-0.935951
-0.943357
-0.94336
-0.950552
-0.950554
-0.957531
-0.957533
-0.964292
-0.964295
-0.970836
-0.970839
-0.977161
-0.977164
-0.983266
-0.983269
-0.989152
-0.989155
-0.994818
-0.99482
-1.00026
-1.00027
-1.00549
-1.00549
-1.01049
-1.0105
-1.01528
-1.01528
-1.01985
-1.01985
-1.0242
-1.0242
-1.02833
-1.02834
-1.03225
-1.03225
-1.03596
-1.03596
-1.03945
-1.03945
-1.04273
-1.04273
-1.0458
-1.0458
-1.04866
-1.04866
-1.05132
-1.05132
-1.05378
-1.05378
-1.05604
-1.05604
-1.0581
-1.0581
-1.05998
-1.05998
-1.06165
-1.06166
-1.06317
-1.06317
-1.06447
-1.06448
-1.06564
-1.06563
-1.06658
-1.0666
-1.06744
-1.06742
-1.068
-1.06805
-1.06861
-1.06855
-1.0688
-1.06886
-1.06919
-1.06904
-1.06921
-1.06906
-1.06889
-1.06892
-1.06873
-1.06866
-1.06818
-1.06823
-1.06771
-1.06769
-1.06696
-1.06698
-1.06617
-1.06617
-1.06519
-1.0652
-1.06413
-1.06413
-1.06291
-1.06292
-1.0616
-1.0616
-1.06015
-1.06015
-1.0586
-1.0586
-1.05694
-1.05694
-1.05516
-1.05517
-1.05328
-1.05329
-1.0513
-1.0513
-1.04921
-1.04922
-1.04703
-1.04703
-1.04474
-1.04475
-1.04237
-1.04237
-1.03989
-1.0399
-1.03733
-1.03733
-1.03468
-1.03468
-1.03194
-1.03194
-1.02912
-1.02912
-1.02621
-1.02622
-1.02323
-1.02323
-1.02016
-1.02016
-1.01701
-1.01701
-1.01378
-1.01378
-1.01047
-1.01047
-1.00707
-1.00707
-1.00358
-1.00358
-1
-1
-0.996333
-0.996334
-0.992573
-0.992574
-0.988723
-0.988724
-0.984788
-0.984789
-0.98077
-0.980771
-0.976671
-0.976672
-0.972492
-0.972493
-0.968229
-0.96823
-0.963881
-0.963882
-0.959447
-0.959448
-0.954925
-0.954926
-0.950314
-0.950315
-0.945614
-0.945615
-0.940825
-0.940826
-0.935944
-0.935944
-0.93097
-0.93097
-0.925904
-0.925905
-0.920751
-0.920752
-0.915513
-0.915514
-0.910194
-0.910194
-0.904792
-0.904793
-0.899308
-0.899309
-0.893743
-0.893743
-0.888096
-0.888096
-0.882365
-0.882366
-0.876549
-0.876549
-0.870643
-0.870644
-0.86465
-0.864651
-0.858571
-0.858572
-0.852407
-0.852407
-0.846159
-0.84616
-0.839833
-0.839833
-0.833434
-0.833434
-0.826969
-0.82697
-0.820443
-0.820443
-0.813853
-0.813853
-0.807196
-0.807196
-0.80046
-0.80046
-0.79364
-0.79364
-0.786726
-0.786727
-0.779713
-0.779714
-0.772603
-0.772603
-0.765401
-0.765402
-0.758119
-0.75812
-0.750768
-0.750768
-0.743354
-0.743355
-0.735877
-0.735878
-0.72833
-0.728331
-0.720707
-0.720708
-0.713008
-0.713009
-0.705236
-0.705237
-0.697393
-0.697394
-0.689479
-0.68948
-0.681494
-0.681495
-0.673435
-0.673436
-0.665301
-0.665302
-0.657089
-0.65709
-0.648801
-0.648802
-0.640448
-0.640449
-0.632036
-0.632037
-0.623575
-0.623577
-0.615077
-0.615078
-0.606554
-0.606556
-0.598021
-0.598023
-0.58949
-0.589492
-0.580974
-0.580976
-0.572486
-0.572488
-0.564033
-0.564034
-0.555625
-0.555627
-0.547274
-0.547276
-0.538987
-0.538989
-0.530758
-0.53076
-0.522583
-0.522585
-0.51447
-0.514472
-0.506441
-0.506443
-0.498512
-0.498515
-0.490724
-0.490727
-0.483114
-0.483117
-0.475729
-0.475733
-0.468588
-0.468591
-0.461709
-0.461713
-0.455082
-0.455085
-0.448721
-0.448725
-0.442625
-0.442629
-0.436842
-0.436846
-0.431383
-0.431387
-0.4263
-0.426304
-0.421597
-0.4216
-0.417325
-0.417328
-0.413476
-0.413478
-0.410111
-0.410113
-0.407228
-0.407226
-0.404868
-0.404866
-0.403025
-0.403015
-0.40176
-0.40175
-0.401108
-0.401088
-2.67552e-05
-2.45582e-05
-2.67829e-05
-2.45859e-05
-2.6962e-05
-2.4765e-05
-2.75544e-05
-2.53574e-05
-2.89514e-05
-2.67543e-05
-3.16783e-05
-2.94813e-05
-3.63914e-05
-3.41944e-05
-4.38744e-05
-4.16774e-05
-5.50604e-05
-5.28632e-05
-7.10358e-05
-6.88383e-05
-9.3024e-05
-9.08268e-05
-0.000122382
-0.000120185
-0.000160596
-0.000158399
-0.000209294
-0.000207097
-0.000270246
-0.000268049
-0.000345355
-0.000343158
-0.000436647
-0.00043445
-0.000546282
-0.000544085
-0.000676565
-0.000674368
-0.000829904
-0.000827707
-0.0010088
-0.00100661
-0.00121594
-0.00121374
-0.00145409
-0.00145189
-0.00172608
-0.00172388
-0.00203486
-0.00203266
-0.00238356
-0.00238136
-0.00277535
-0.00277315
-0.00321338
-0.00321118
-0.00370099
-0.00369879
-0.00424167
-0.00423948
-0.0048389
-0.0048367
-0.0054961
-0.0054939
-0.0062169
-0.0062147
-0.00700505
-0.00700286
-0.00786422
-0.00786202
-0.00879803
-0.00879584
-0.00981035
-0.00980815
-0.0109051
-0.0109029
-0.012086
-0.0120838
-0.0133568
-0.0133546
-0.0147215
-0.0147193
-0.0161841
-0.0161819
-0.0177484
-0.0177462
-0.0194181
-0.0194159
-0.0211973
-0.0211951
-0.0230899
-0.0230877
-0.0250997
-0.0250975
-0.0272305
-0.0272283
-0.0294861
-0.0294839
-0.0318709
-0.0318687
-0.0343878
-0.0343856
-0.0370399
-0.0370377
-0.0398331
-0.0398309
-0.0427695
-0.0427673
-0.0458523
-0.0458501
-0.0490867
-0.0490845
-0.0524743
-0.0524721
-0.0560201
-0.0560179
-0.0597265
-0.0597243
-0.0635961
-0.0635939
-0.0676331
-0.0676309
-0.0718405
-0.0718383
-0.0762219
-0.0762197
-0.0807775
-0.0807753
-0.0855122
-0.08551
-0.0904293
-0.0904271
-0.0955288
-0.0955266
-0.100815
-0.100812
-0.106288
-0.106285
-0.111952
-0.11195
-0.117807
-0.117805
-0.123855
-0.123853
-0.130098
-0.130096
-0.136537
-0.136534
-0.143172
-0.14317
-0.150005
-0.150003
-0.157036
-0.157034
-0.164265
-0.164263
-0.171692
-0.17169
-0.179317
-0.179314
-0.187139
-0.187137
-0.195157
-0.195155
-0.20337
-0.203368
-0.211778
-0.211776
-0.220376
-0.220374
-0.229164
-0.229162
-0.23814
-0.238138
-0.247301
-0.247299
-0.256645
-0.256643
-0.266167
-0.266164
-0.275862
-0.27586
-0.28573
-0.285727
-0.295764
-0.295762
-0.305962
-0.305959
-0.316315
-0.316312
-0.326822
-0.32682
-0.337477
-0.337475
-0.348271
-0.348269
-0.359203
-0.3592
-0.370262
-0.37026
-0.381446
-0.381444
-0.392747
-0.392745
-0.404156
-0.404154
-0.415667
-0.415665
-0.427274
-0.427272
-0.438968
-0.438966
-0.450742
-0.45074
-0.462589
-0.462587
-0.474499
-0.474497
-0.486467
-0.486465
-0.498481
-0.498479
-0.510535
-0.510533
-0.522622
-0.52262
-0.534731
-0.534728
-0.546855
-0.546853
-0.558984
-0.558982
-0.571112
-0.57111
-0.583229
-0.583227
-0.595328
-0.595326
-0.607399
-0.607397
-0.619433
-0.619431
-0.631425
-0.631423
-0.643364
-0.643362
-0.655245
-0.655243
-0.667057
-0.667054
-0.678794
-0.678791
-0.690448
-0.690446
-0.702011
-0.702008
-0.713477
-0.713475
-0.724838
-0.724836
-0.736086
-0.736084
-0.747217
-0.747214
-0.758222
-0.75822
-0.769094
-0.769092
-0.779828
-0.779826
-0.790417
-0.790415
-0.800856
-0.800854
-0.811139
-0.811137
-0.821259
-0.821257
-0.831211
-0.831209
-0.840991
-0.840988
-0.850592
-0.85059
-0.860012
-0.86001
-0.869246
-0.869243
-0.878288
-0.878286
-0.887136
-0.887134
-0.895787
-0.895785
-0.904236
-0.904234
-0.912482
-0.91248
-0.920522
-0.92052
-0.928354
-0.928352
-0.935975
-0.935973
-0.943384
-0.943382
-0.950578
-0.950576
-0.957557
-0.957555
-0.964319
-0.964317
-0.970863
-0.970861
-0.977188
-0.977186
-0.983293
-0.983291
-0.989179
-0.989177
-0.994844
-0.994842
-1.00029
-1.00029
-1.00552
-1.00551
-1.01052
-1.01052
-1.01531
-1.01531
-1.01988
-1.01987
-1.02423
-1.02422
-1.02836
-1.02836
-1.03228
-1.03228
-1.03598
-1.03598
-1.03947
-1.03947
-1.04275
-1.04275
-1.04583
-1.04582
-1.04869
-1.04869
-1.05135
-1.05135
-1.05381
-1.0538
-1.05607
-1.05606
-1.05813
-1.05812
-1.06
-1.06
-1.06168
-1.06168
-1.06319
-1.06319
-1.06451
-1.0645
-1.06566
-1.06567
-1.06662
-1.0666
-1.06744
-1.06747
-1.06807
-1.06803
-1.06857
-1.06864
-1.06888
-1.06882
-1.06907
-1.06922
-1.06908
-1.06924
-1.06895
-1.06891
-1.06869
-1.06875
-1.06825
-1.06821
-1.06771
-1.06774
-1.06701
-1.06699
-1.06619
-1.0662
-1.06523
-1.06522
-1.06415
-1.06415
-1.06294
-1.06294
-1.06162
-1.06162
-1.06018
-1.06018
-1.05863
-1.05863
-1.05696
-1.05696
-1.05519
-1.05519
-1.05331
-1.05331
-1.05133
-1.05133
-1.04924
-1.04924
-1.04705
-1.04705
-1.04477
-1.04477
-1.04239
-1.04239
-1.03992
-1.03992
-1.03736
-1.03736
-1.03471
-1.0347
-1.03197
-1.03197
-1.02914
-1.02914
-1.02624
-1.02624
-1.02325
-1.02325
-1.02019
-1.02019
-1.01704
-1.01704
-1.01381
-1.01381
-1.01049
-1.01049
-1.00709
-1.00709
-1.0036
-1.0036
-1.00003
-1.00003
-0.996358
-0.996357
-0.992598
-0.992597
-0.988748
-0.988748
-0.984813
-0.984812
-0.980796
-0.980795
-0.976697
-0.976696
-0.972517
-0.972517
-0.968254
-0.968254
-0.963907
-0.963906
-0.959473
-0.959472
-0.95495
-0.95495
-0.950339
-0.950339
-0.945639
-0.945639
-0.94085
-0.94085
-0.935969
-0.935968
-0.930994
-0.930994
-0.925929
-0.925929
-0.920776
-0.920776
-0.915538
-0.915538
-0.910219
-0.910219
-0.904817
-0.904817
-0.899333
-0.899333
-0.893768
-0.893768
-0.888121
-0.888121
-0.88239
-0.88239
-0.876573
-0.876573
-0.870668
-0.870668
-0.864675
-0.864675
-0.858596
-0.858596
-0.852431
-0.852432
-0.846184
-0.846184
-0.839857
-0.839858
-0.833458
-0.833459
-0.826994
-0.826994
-0.820467
-0.820468
-0.813877
-0.813878
-0.80722
-0.807221
-0.800484
-0.800485
-0.793664
-0.793665
-0.786751
-0.786752
-0.779738
-0.779738
-0.772627
-0.772628
-0.765426
-0.765427
-0.758144
-0.758145
-0.750792
-0.750793
-0.743379
-0.74338
-0.735902
-0.735903
-0.728355
-0.728356
-0.720732
-0.720733
-0.713032
-0.713034
-0.70526
-0.705262
-0.697417
-0.697419
-0.689504
-0.689505
-0.681518
-0.68152
-0.67346
-0.673462
-0.665325
-0.665327
-0.657113
-0.657115
-0.648824
-0.648827
-0.640472
-0.640474
-0.632059
-0.632062
-0.6236
-0.623603
-0.6151
-0.615103
-0.606579
-0.606582
-0.598044
-0.598047
-0.589515
-0.589519
-0.580996
-0.581001
-0.572511
-0.572516
-0.564053
-0.564059
-0.55565
-0.555656
-0.547293
-0.547299
-0.539014
-0.539021
-0.530774
-0.530782
-0.522611
-0.52262
-0.514483
-0.514493
-0.506471
-0.506482
-0.49852
-0.498532
-0.490758
-0.490771
-0.483115
-0.483129
-0.47577
-0.475786
-0.468578
-0.468597
-0.461758
-0.461779
-0.455057
-0.45508
-0.448783
-0.44881
-0.442578
-0.442608
-0.436924
-0.43696
-0.431302
-0.431342
-0.426409
-0.426459
-0.421468
-0.42152
-0.417471
-0.417545
-0.413281
-0.413343
-0.410303
-0.41043
-0.406954
-0.406996
-0.405089
-0.405364
-0.402708
-0.402575
-0.401862
-0.401895
-0.400879
-0.400237
-0.401108
-0.401089
-0.40176
-0.40175
-0.403025
-0.403014
-0.404868
-0.404867
-0.407228
-0.407226
-0.41011
-0.410112
-0.413477
-0.413479
-0.417323
-0.417327
-0.421595
-0.421599
-0.426301
-0.426304
-0.431384
-0.431388
-0.436842
-0.436846
-0.442626
-0.44263
-0.448723
-0.448726
-0.455083
-0.455087
-0.461709
-0.461712
-0.468587
-0.46859
-0.475729
-0.475732
-0.483112
-0.483115
-0.490725
-0.490728
-0.498512
-0.498515
-0.506441
-0.506443
-0.514469
-0.514471
-0.52258
-0.522582
-0.530755
-0.530757
-0.538989
-0.538991
-0.547271
-0.547273
-0.555626
-0.555628
-0.564032
-0.564034
-0.572482
-0.572484
-0.580976
-0.580977
-0.589491
-0.589492
-0.598025
-0.598026
-0.606554
-0.606556
-0.615082
-0.615083
-0.623573
-0.623574
-0.632034
-0.632035
-0.640447
-0.640448
-0.648798
-0.648799
-0.65709
-0.657091
-0.6653
-0.665301
-0.673435
-0.673436
-0.681494
-0.681495
-0.68948
-0.689481
-0.697391
-0.697392
-0.705237
-0.705238
-0.713006
-0.713007
-0.720706
-0.720706
-0.728328
-0.728329
-0.735877
-0.735877
-0.743351
-0.743351
-0.750771
-0.750771
-0.75812
-0.75812
-0.765397
-0.765398
-0.772603
-0.772603
-0.779713
-0.779713
-0.786728
-0.786728
-0.793639
-0.79364
-0.800457
-0.800457
-0.807193
-0.807193
-0.813858
-0.813858
-0.820444
-0.820444
-0.826972
-0.826972
-0.833436
-0.833436
-0.839836
-0.839836
-0.846157
-0.846157
-0.852402
-0.852402
-0.858574
-0.858574
-0.864651
-0.864651
-0.870648
-0.870648
-0.876546
-0.876546
-0.882361
-0.882361
-0.888095
-0.888095
-0.893739
-0.893738
-0.899304
-0.899304
-0.90479
-0.90479
-0.910196
-0.910195
-0.915518
-0.915518
-0.920758
-0.920757
-0.925909
-0.925909
-0.930971
-0.93097
-0.935946
-0.935945
-0.940824
-0.940824
-0.945614
-0.945613
-0.950317
-0.950317
-0.954923
-0.954923
-0.959443
-0.959443
-0.963885
-0.963884
-0.96823
-0.968229
-0.972487
-0.972487
-0.976671
-0.976671
-0.98077
-0.980769
-0.984785
-0.984784
-0.988721
-0.988721
-0.992579
-0.992578
-0.996338
-0.996337
-1
-1
-1.00358
-1.00358
-1.00707
-1.00707
-1.01047
-1.01046
-1.01378
-1.01378
-1.01702
-1.01702
-1.02016
-1.02016
-1.02323
-1.02323
-1.02622
-1.02622
-1.02912
-1.02912
-1.03194
-1.03194
-1.03468
-1.03468
-1.03733
-1.03733
-1.03989
-1.03989
-1.04237
-1.04236
-1.04474
-1.04474
-1.04703
-1.04703
-1.04922
-1.04921
-1.0513
-1.0513
-1.05328
-1.05328
-1.05516
-1.05516
-1.05694
-1.05694
-1.0586
-1.0586
-1.06016
-1.06015
-1.0616
-1.0616
-1.06292
-1.06291
-1.06412
-1.06413
-1.0652
-1.06519
-1.06617
-1.06618
-1.06698
-1.06696
-1.06769
-1.06771
-1.06823
-1.06818
-1.06866
-1.06873
-1.06892
-1.06889
-1.06906
-1.06921
-1.06904
-1.06919
-1.06886
-1.0688
-1.06855
-1.06861
-1.06805
-1.068
-1.06742
-1.06744
-1.0666
-1.06658
-1.06564
-1.06564
-1.06448
-1.06447
-1.06317
-1.06317
-1.06166
-1.06166
-1.05998
-1.05997
-1.05811
-1.0581
-1.05605
-1.05604
-1.05378
-1.05378
-1.05132
-1.05132
-1.04866
-1.04866
-1.04581
-1.0458
-1.04274
-1.04274
-1.03945
-1.03945
-1.03597
-1.03596
-1.03226
-1.03226
-1.02833
-1.02833
-1.0242
-1.02419
-1.01985
-1.01984
-1.01529
-1.01529
-1.01049
-1.01048
-1.00548
-1.00548
-1.00026
-1.00026
-0.994808
-0.994805
-0.989171
-0.989169
-0.983273
-0.983271
-0.977153
-0.97715
-0.970855
-0.970852
-0.964295
-0.964292
-0.957517
-0.957514
-0.950576
-0.950573
-0.943374
-0.943371
-0.935966
-0.935963
-0.928349
-0.928346
-0.920479
-0.920476
-0.912466
-0.912463
-0.904204
-0.904201
-0.895755
-0.895752
-0.887117
-0.887114
-0.878246
-0.878244
-0.869182
-0.869179
-0.859986
-0.859983
-0.850598
-0.850596
-0.840937
-0.840934
-0.831172
-0.83117
-0.821234
-0.821231
-0.811128
-0.811125
-0.800851
-0.800848
-0.790434
-0.790432
-0.779849
-0.779846
-0.769045
-0.769042
-0.758187
-0.758184
-0.747241
-0.747238
-0.736034
-0.736031
-0.724762
-0.724759
-0.713468
-0.713466
-0.702029
-0.702026
-0.690451
-0.690448
-0.678748
-0.678746
-0.667055
-0.667052
-0.655254
-0.655252
-0.643358
-0.643355
-0.631358
-0.631355
-0.619446
-0.619443
-0.607423
-0.60742
-0.59525
-0.595247
-0.583258
-0.583255
-0.57115
-0.571147
-0.558939
-0.558937
-0.546779
-0.546776
-0.534705
-0.534702
-0.522533
-0.52253
-0.510491
-0.510489
-0.498509
-0.498506
-0.486373
-0.48637
-0.47447
-0.474467
-0.462604
-0.462601
-0.450659
-0.450657
-0.438939
-0.438936
-0.427334
-0.427331
-0.415626
-0.415623
-0.40405
-0.404048
-0.392747
-0.392744
-0.381414
-0.381412
-0.370205
-0.370202
-0.359142
-0.359139
-0.348249
-0.348246
-0.337489
-0.337487
-0.32676
-0.326758
-0.316348
-0.316345
-0.30598
-0.305977
-0.295777
-0.295775
-0.285791
-0.285789
-0.275823
-0.27582
-0.266072
-0.26607
-0.256536
-0.256534
-0.247235
-0.247232
-0.23815
-0.238148
-0.229133
-0.22913
-0.220346
-0.220344
-0.211804
-0.211801
-0.203332
-0.20333
-0.195112
-0.19511
-0.187136
-0.187133
-0.179254
-0.179251
-0.171618
-0.171616
-0.164246
-0.164243
-0.15696
-0.156958
-0.149948
-0.149945
-0.143169
-0.143166
-0.136527
-0.136524
-0.130099
-0.130097
-0.123825
-0.123822
-0.11776
-0.117757
-0.112004
-0.112001
-0.106289
-0.106286
-0.100774
-0.100772
-0.0955389
-0.0955363
-0.090407
-0.0904044
-0.085517
-0.0855144
-0.080747
-0.0807444
-0.0762146
-0.076212
-0.0717847
-0.0717821
-0.0676198
-0.0676172
-0.0636249
-0.0636223
-0.0597088
-0.0597062
-0.0560234
-0.0560208
-0.0524547
-0.0524521
-0.049083
-0.0490804
-0.0458387
-0.0458361
-0.0427777
-0.0427751
-0.0398375
-0.0398349
-0.0369874
-0.0369848
-0.0343439
-0.0343413
-0.0318663
-0.0318637
-0.0295055
-0.0295029
-0.0272129
-0.0272103
-0.0250509
-0.0250483
-0.0230861
-0.0230835
-0.0211796
-0.021177
-0.0193925
-0.0193899
-0.0177181
-0.0177155
-0.0161679
-0.0161653
-0.0147048
-0.0147022
-0.0133231
-0.0133205
-0.0120562
-0.0120536
-0.0108815
-0.0108789
-0.00979447
-0.00979186
-0.00876442
-0.00876181
-0.00784593
-0.00784331
-0.00698219
-0.00697958
-0.00618714
-0.00618453
-0.00546995
-0.00546734
-0.00481978
-0.00481717
-0.00423116
-0.00422855
-0.00368201
-0.0036794
-0.00318681
-0.00318419
-0.00275121
-0.00274859
-0.00235888
-0.00235627
-0.00200435
-0.00200174
-0.00170043
-0.00169781
-0.00142888
-0.00142627
-0.00118882
-0.00118621
-0.000985616
-0.000983002
-0.000809042
-0.000806427
-0.000653849
-0.000651233
-0.000521919
-0.000519303
-0.000413573
-0.000410958
-0.000323142
-0.000320527
-0.000246773
-0.000244156
-0.000184931
-0.000182315
-0.00013675
-0.000134135
-9.88882e-05
-9.62724e-05
-6.90958e-05
-6.64787e-05
-4.68548e-05
-4.4239e-05
-3.1065e-05
-2.84505e-05
-2.00245e-05
-1.74102e-05
-1.2491e-05
-9.87697e-06
-7.7328e-06
-5.11915e-06
-5.03089e-06
-2.4172e-06
-3.65853e-06
-1.04443e-06
-3.05871e-06
-4.38983e-07
-2.86898e-06
-2.36713e-07
-2.83688e-06
-1.89086e-07
-0.400879
-0.400237
-0.401861
-0.401894
-0.402708
-0.402575
-0.405089
-0.405364
-0.406954
-0.406996
-0.410302
-0.410428
-0.413283
-0.413344
-0.417469
-0.417543
-0.421467
-0.421518
-0.426409
-0.426459
-0.431303
-0.431343
-0.436923
-0.436959
-0.442578
-0.442608
-0.448784
-0.448811
-0.455058
-0.455082
-0.461758
-0.461778
-0.468577
-0.468595
-0.475769
-0.475785
-0.483113
-0.483127
-0.490759
-0.490772
-0.49852
-0.498532
-0.506471
-0.506481
-0.514482
-0.514492
-0.522608
-0.522616
-0.530772
-0.530779
-0.539015
-0.539022
-0.54729
-0.547296
-0.555651
-0.555657
-0.564052
-0.564058
-0.572507
-0.572512
-0.580997
-0.581002
-0.589515
-0.58952
-0.598047
-0.598051
-0.606578
-0.606582
-0.615105
-0.615108
-0.623597
-0.6236
-0.632057
-0.63206
-0.640471
-0.640473
-0.648821
-0.648824
-0.657113
-0.657116
-0.665324
-0.665326
-0.673459
-0.673461
-0.681518
-0.68152
-0.689504
-0.689506
-0.697415
-0.697417
-0.705261
-0.705262
-0.71303
-0.713031
-0.720729
-0.720731
-0.728352
-0.728354
-0.7359
-0.735902
-0.743375
-0.743376
-0.750795
-0.750796
-0.758144
-0.758145
-0.765421
-0.765422
-0.772626
-0.772627
-0.779737
-0.779738
-0.786752
-0.786753
-0.793663
-0.793664
-0.800481
-0.800482
-0.807216
-0.807217
-0.813881
-0.813882
-0.820468
-0.820468
-0.826996
-0.826997
-0.833459
-0.83346
-0.83986
-0.839861
-0.846181
-0.846182
-0.852426
-0.852427
-0.858598
-0.858599
-0.864675
-0.864676
-0.870672
-0.870673
-0.87657
-0.876571
-0.882384
-0.882385
-0.888119
-0.88812
-0.893762
-0.893763
-0.899328
-0.899329
-0.904814
-0.904814
-0.910219
-0.91022
-0.915542
-0.915543
-0.920781
-0.920782
-0.925933
-0.925933
-0.930994
-0.930995
-0.935969
-0.93597
-0.940848
-0.940849
-0.945637
-0.945638
-0.950341
-0.950342
-0.954946
-0.954947
-0.959467
-0.959468
-0.963908
-0.963909
-0.968253
-0.968254
-0.972511
-0.972512
-0.976695
-0.976696
-0.980793
-0.980794
-0.984808
-0.984809
-0.988744
-0.988746
-0.992602
-0.992603
-0.996361
-0.996362
-1.00003
-1.00003
-1.00361
-1.00361
-1.00709
-1.00709
-1.01049
-1.01049
-1.0138
-1.01381
-1.01704
-1.01704
-1.02019
-1.02019
-1.02325
-1.02326
-1.02624
-1.02625
-1.02914
-1.02915
-1.03196
-1.03197
-1.03471
-1.03471
-1.03736
-1.03736
-1.03991
-1.03992
-1.04239
-1.04239
-1.04477
-1.04477
-1.04705
-1.04705
-1.04924
-1.04924
-1.05133
-1.05133
-1.05331
-1.05331
-1.05519
-1.05519
-1.05696
-1.05696
-1.05863
-1.05863
-1.06018
-1.06018
-1.06162
-1.06162
-1.06294
-1.06294
-1.06415
-1.06415
-1.06522
-1.06522
-1.0662
-1.06619
-1.06699
-1.06701
-1.06774
-1.06771
-1.06821
-1.06825
-1.06875
-1.06869
-1.06891
-1.06895
-1.06924
-1.06908
-1.06922
-1.06906
-1.06882
-1.06888
-1.06864
-1.06857
-1.06803
-1.06807
-1.06747
-1.06744
-1.06661
-1.06663
-1.06567
-1.06566
-1.06449
-1.0645
-1.06319
-1.06319
-1.06168
-1.06169
-1.06
-1.06
-1.05813
-1.05813
-1.05607
-1.05607
-1.0538
-1.0538
-1.05134
-1.05134
-1.04868
-1.04868
-1.04583
-1.04583
-1.04276
-1.04276
-1.03947
-1.03948
-1.03599
-1.03599
-1.03228
-1.03228
-1.02835
-1.02835
-1.02422
-1.02422
-1.01987
-1.01987
-1.01531
-1.01531
-1.01051
-1.01051
-1.0055
-1.00551
-1.00028
-1.00028
-0.994829
-0.994832
-0.989192
-0.989195
-0.983294
-0.983297
-0.977174
-0.977177
-0.970876
-0.970879
-0.964316
-0.964319
-0.957538
-0.957541
-0.950597
-0.9506
-0.943395
-0.943398
-0.935987
-0.93599
-0.92837
-0.928373
-0.9205
-0.920503
-0.912487
-0.91249
-0.904225
-0.904228
-0.895776
-0.895779
-0.887138
-0.887141
-0.878267
-0.87827
-0.869203
-0.869206
-0.860007
-0.86001
-0.850619
-0.850622
-0.840958
-0.840961
-0.831193
-0.831196
-0.821255
-0.821258
-0.811149
-0.811152
-0.800872
-0.800875
-0.790455
-0.790458
-0.77987
-0.779873
-0.769066
-0.769069
-0.758208
-0.758211
-0.747262
-0.747265
-0.736055
-0.736058
-0.724783
-0.724786
-0.713489
-0.713492
-0.70205
-0.702053
-0.690472
-0.690475
-0.678769
-0.678772
-0.667076
-0.667079
-0.655275
-0.655278
-0.643379
-0.643382
-0.631379
-0.631382
-0.619467
-0.61947
-0.607444
-0.607447
-0.595271
-0.595274
-0.583279
-0.583282
-0.571171
-0.571174
-0.55896
-0.558963
-0.5468
-0.546803
-0.534726
-0.534729
-0.522554
-0.522557
-0.510512
-0.510515
-0.49853
-0.498533
-0.486394
-0.486397
-0.474491
-0.474494
-0.462625
-0.462628
-0.45068
-0.450683
-0.43896
-0.438963
-0.427355
-0.427358
-0.415647
-0.41565
-0.404071
-0.404074
-0.392768
-0.392771
-0.381435
-0.381438
-0.370226
-0.370229
-0.359162
-0.359165
-0.34827
-0.348273
-0.33751
-0.337513
-0.326781
-0.326784
-0.316369
-0.316372
-0.306001
-0.306004
-0.295798
-0.295801
-0.285812
-0.285815
-0.275844
-0.275847
-0.266093
-0.266096
-0.256557
-0.25656
-0.247256
-0.247259
-0.238171
-0.238174
-0.229154
-0.229157
-0.220367
-0.22037
-0.211824
-0.211827
-0.203353
-0.203356
-0.195133
-0.195136
-0.187157
-0.18716
-0.179274
-0.179277
-0.171639
-0.171642
-0.164267
-0.16427
-0.156981
-0.156984
-0.149969
-0.149972
-0.14319
-0.143193
-0.136548
-0.13655
-0.13012
-0.130123
-0.123846
-0.123849
-0.11778
-0.117783
-0.112025
-0.112027
-0.10631
-0.106312
-0.100795
-0.100798
-0.0955596
-0.0955625
-0.0904276
-0.0904305
-0.0855377
-0.0855406
-0.0807677
-0.0807706
-0.0762352
-0.0762381
-0.0718053
-0.0718082
-0.0676405
-0.0676434
-0.0636455
-0.0636484
-0.0597294
-0.0597323
-0.056044
-0.0560469
-0.0524753
-0.0524782
-0.0491035
-0.0491064
-0.0458592
-0.0458621
-0.0427983
-0.0428011
-0.0398581
-0.039861
-0.037008
-0.0370108
-0.0343644
-0.0343673
-0.0318868
-0.0318897
-0.029526
-0.0295289
-0.0272334
-0.0272363
-0.0250714
-0.0250743
-0.0231066
-0.0231095
-0.0212001
-0.021203
-0.0194129
-0.0194158
-0.0177386
-0.0177415
-0.0161884
-0.0161913
-0.0147253
-0.0147282
-0.0133435
-0.0133464
-0.0120766
-0.0120795
-0.0109019
-0.0109047
-0.00981486
-0.00981774
-0.00878481
-0.0087877
-0.00786631
-0.0078692
-0.00700256
-0.00700545
-0.0062075
-0.00621038
-0.0054903
-0.00549318
-0.00484012
-0.004843
-0.00425149
-0.00425437
-0.00370233
-0.00370522
-0.00320713
-0.00321003
-0.00277152
-0.00277441
-0.00237918
-0.00238206
-0.00202465
-0.00202754
-0.00172073
-0.00172362
-0.00144917
-0.00145205
-0.0012091
-0.00121199
-0.0010059
-0.00100879
-0.000829316
-0.000832205
-0.000674117
-0.000677005
-0.000542183
-0.000545074
-0.000433834
-0.000436724
-0.0003434
-0.000346285
-0.000267028
-0.000269915
-0.000205185
-0.000208076
-0.000157001
-0.000159892
-0.000119138
-0.000122025
-8.93446e-05
-9.22327e-05
-6.71024e-05
-6.99915e-05
-5.13117e-05
-5.42e-05
-4.02704e-05
-4.31589e-05
-3.27363e-05
-3.56251e-05
-2.79781e-05
-3.08672e-05
-2.52768e-05
-2.81664e-05
-2.39041e-05
-2.67934e-05
-2.33039e-05
-2.61928e-05
-2.31149e-05
-2.6004e-05
-2.30842e-05
-2.59739e-05
)
;

boundaryField
{
    walls
    {
        type            zeroGradient;
    }
    inlet
    {
        type            cyclic;
    }
    outlet
    {
        type            cyclic;
    }
    sides
    {
        type            empty;
    }
}


// ************************************************************************* //
