/*--------------------------------*- C++ -*----------------------------------*\
| =========                 |                                                 |
| \\      /  F ield         | OpenFOAM: The Open Source CFD Toolbox           |
|  \\    /   O peration     | Version:  2012                                  |
|   \\  /    A nd           | Website:  www.openfoam.com                      |
|    \\/     M anipulation  |                                                 |
\*---------------------------------------------------------------------------*/
FoamFile
{
    version     2.0;
    format      ascii;
    class       surfaceScalarField;
    location    "10100";
    object      phi;
}
// * * * * * * * * * * * * * * * * * * * * * * * * * * * * * * * * * * * * * //

dimensions      [0 3 -1 0 0 0 0];
oriented        oriented;


internalField   nonuniform List<scalar> 
5116
(
2.26688e-07
-6.51511e-12
1.90237e-13
-1.31229e-13
1.57453e-13
6.91853e-07
-6.88255e-12
2.97487e-13
-3.46289e-13
2.46286e-13
1.17582e-06
-7.24994e-12
3.10076e-13
-5.58717e-13
2.56853e-13
1.67914e-06
-7.61607e-12
3.21841e-13
-7.67943e-13
2.6668e-13
2.20234e-06
-8.00397e-12
3.29625e-13
-9.91947e-13
2.73146e-13
2.7459e-06
-8.37433e-12
3.2727e-13
-1.20575e-12
2.71196e-13
3.31026e-06
-8.73989e-12
3.07769e-13
-1.41607e-12
2.55034e-13
3.89586e-06
-9.06845e-12
2.70086e-13
-1.60983e-12
2.23804e-13
4.5031e-06
-9.33402e-12
2.23197e-13
-1.76128e-12
1.84947e-13
5.13243e-06
-9.54864e-12
1.78877e-13
-1.88531e-12
1.4822e-13
5.78439e-06
-9.71604e-12
1.43264e-13
-1.9793e-12
1.18712e-13
6.45964e-06
-9.85269e-12
1.16787e-13
-2.05904e-12
9.67732e-14
7.15901e-06
-9.96536e-12
9.75759e-14
-2.12194e-12
8.08538e-14
7.88347e-06
-1.00626e-11
8.35905e-14
-2.17903e-12
6.92647e-14
8.63419e-06
-1.01471e-11
7.32553e-14
-2.22576e-12
6.07004e-14
9.41251e-06
-1.02235e-11
6.54754e-14
-2.27092e-12
5.42534e-14
1.02199e-05
-1.02922e-11
5.95127e-14
-2.3087e-12
4.93122e-14
1.10582e-05
-1.03562e-11
5.48698e-14
-2.34685e-12
4.54646e-14
1.19291e-05
-1.04154e-11
5.12067e-14
-2.37914e-12
4.24289e-14
1.28347e-05
-1.04717e-11
4.82875e-14
-2.41286e-12
4.00096e-14
1.37773e-05
-1.05249e-11
4.59449e-14
-2.4417e-12
3.80679e-14
1.47592e-05
-1.05762e-11
4.40575e-14
-2.47264e-12
3.65036e-14
1.57829e-05
-1.06255e-11
4.2537e-14
-2.49922e-12
3.52434e-14
1.68509e-05
-1.06736e-11
4.13175e-14
-2.52826e-12
3.42322e-14
1.7966e-05
-1.07204e-11
4.03483e-14
-2.5534e-12
3.34286e-14
1.91309e-05
-1.07663e-11
3.95913e-14
-2.58129e-12
3.28009e-14
2.03483e-05
-1.08117e-11
3.9017e-14
-2.60556e-12
3.23245e-14
2.1621e-05
-1.08565e-11
3.86028e-14
-2.6328e-12
3.19805e-14
2.29517e-05
-1.09012e-11
3.83302e-14
-2.65664e-12
3.17539e-14
2.4343e-05
-1.09455e-11
3.81851e-14
-2.6836e-12
3.16331e-14
2.57974e-05
-1.09901e-11
3.81571e-14
-2.70735e-12
3.16091e-14
2.73171e-05
-1.10344e-11
3.82378e-14
-2.73432e-12
3.1675e-14
2.89042e-05
-1.10795e-11
3.84205e-14
-2.75827e-12
3.18256e-14
3.05605e-05
-1.11243e-11
3.87007e-14
-2.78551e-12
3.20569e-14
3.22875e-05
-1.11705e-11
3.90754e-14
-2.80995e-12
3.23663e-14
3.40862e-05
-1.12162e-11
3.95426e-14
-2.8377e-12
3.27522e-14
3.59575e-05
-1.12637e-11
4.01013e-14
-2.86286e-12
3.3214e-14
3.79016e-05
-1.13108e-11
4.07517e-14
-2.89131e-12
3.37517e-14
3.99181e-05
-1.13603e-11
4.1495e-14
-2.91747e-12
3.43663e-14
4.20063e-05
-1.14091e-11
4.2333e-14
-2.94681e-12
3.50592e-14
4.41647e-05
-1.14611e-11
4.32682e-14
-2.97429e-12
3.58327e-14
4.63913e-05
-1.15122e-11
4.43046e-14
-3.00486e-12
3.66896e-14
4.86832e-05
-1.15672e-11
4.54459e-14
-3.03396e-12
3.76334e-14
5.10369e-05
-1.16212e-11
4.66968e-14
-3.0661e-12
3.8668e-14
5.34479e-05
-1.16797e-11
4.80633e-14
-3.097e-12
3.97981e-14
5.5911e-05
-1.17366e-11
4.95508e-14
-3.13037e-12
4.10285e-14
5.842e-05
-1.17991e-11
5.11668e-14
-3.16337e-12
4.23651e-14
6.09676e-05
-1.18585e-11
5.29183e-14
-3.19742e-12
4.38135e-14
6.3546e-05
-1.19257e-11
5.481e-14
-3.23288e-12
4.53788e-14
6.61459e-05
-1.19917e-11
5.6855e-14
-3.27151e-12
4.70696e-14
6.87573e-05
-1.2065e-11
5.90565e-14
-3.31042e-12
4.88901e-14
7.13696e-05
-1.21419e-11
6.14183e-14
-3.35721e-12
5.08454e-14
7.39708e-05
-1.22219e-11
6.39553e-14
-3.39989e-12
5.29438e-14
7.65487e-05
-1.23056e-11
6.66706e-14
-3.45029e-12
5.51857e-14
7.90901e-05
-1.2392e-11
6.95596e-14
-3.49577e-12
5.75726e-14
8.15818e-05
-1.24778e-11
7.26197e-14
-3.5449e-12
6.01069e-14
8.401e-05
-1.25712e-11
7.58529e-14
-3.59352e-12
6.27829e-14
8.63611e-05
-1.2661e-11
7.92578e-14
-3.64276e-12
6.55966e-14
8.86218e-05
-1.27639e-11
8.28137e-14
-3.69657e-12
6.85353e-14
9.07794e-05
-1.28646e-11
8.64983e-14
-3.75247e-12
7.15809e-14
9.2822e-05
-1.29783e-11
9.02911e-14
-3.81258e-12
7.47178e-14
9.47391e-05
-1.30977e-11
9.4165e-14
-3.88273e-12
7.79215e-14
9.65214e-05
-1.32224e-11
9.80855e-14
-3.94896e-12
8.11669e-14
9.81619e-05
-1.33592e-11
1.02032e-13
-4.03155e-12
8.44262e-14
9.96556e-05
-1.3493e-11
1.05978e-13
-4.102e-12
8.76806e-14
0.000101
-1.36369e-11
1.09882e-13
-4.18736e-12
9.09087e-14
0.000102194
-1.37782e-11
1.13729e-13
-4.26052e-12
9.40943e-14
0.000103241
-1.39223e-11
1.17529e-13
-4.34144e-12
9.72369e-14
0.000104145
-1.40728e-11
1.21283e-13
-4.41886e-12
1.00337e-13
0.000104913
-1.42181e-11
1.25002e-13
-4.49589e-12
1.0341e-13
0.000105554
-1.43806e-11
1.28712e-13
-4.58034e-12
1.06469e-13
0.000106079
-1.45329e-11
1.32433e-13
-4.65955e-12
1.09537e-13
0.000106498
-1.47092e-11
1.36189e-13
-4.75286e-12
1.1264e-13
0.000106824
-1.48717e-11
1.40015e-13
-4.83752e-12
1.15799e-13
0.000107067
-1.5062e-11
1.43941e-13
-4.93981e-12
1.19044e-13
0.00010724
-1.52379e-11
1.48005e-13
-5.03253e-12
1.22396e-13
0.000107351
-1.54421e-11
1.52223e-13
-5.1432e-12
1.25878e-13
0.000107412
-1.56362e-11
1.56609e-13
-5.24868e-12
1.29505e-13
0.00010743
-1.58544e-11
1.61195e-13
-5.36734e-12
1.33298e-13
0.000107413
-1.60694e-11
1.66008e-13
-5.48777e-12
1.37271e-13
0.000107365
-1.6301e-11
1.71057e-13
-5.6132e-12
1.4144e-13
0.000107293
-1.65332e-11
1.76364e-13
-5.74367e-12
1.45815e-13
0.0001072
-1.67777e-11
1.81938e-13
-5.87469e-12
1.50408e-13
0.000107088
-1.70237e-11
1.87781e-13
-6.01137e-12
1.55233e-13
0.00010696
-1.72823e-11
1.93907e-13
-6.14854e-12
1.60292e-13
0.000106819
-1.75465e-11
2.00338e-13
-6.29535e-12
1.65605e-13
0.000106664
-1.78222e-11
2.07094e-13
-6.44098e-12
1.71184e-13
0.000106496
-1.81084e-11
2.14184e-13
-6.60098e-12
1.77034e-13
0.000106318
-1.84036e-11
2.21628e-13
-6.75674e-12
1.83178e-13
0.000106128
-1.87112e-11
2.29445e-13
-6.92825e-12
1.89623e-13
0.000105929
-1.90276e-11
2.37632e-13
-7.09463e-12
1.96377e-13
0.000105719
-1.93522e-11
2.4621e-13
-7.2724e-12
2.03462e-13
0.000105501
-1.96916e-11
2.55211e-13
-7.4505e-12
2.10893e-13
0.000105274
-2.00311e-11
2.64641e-13
-7.63146e-12
2.18685e-13
0.000105039
-2.03974e-11
2.74543e-13
-7.82407e-12
2.26854e-13
0.000104797
-2.07629e-11
2.84956e-13
-8.01836e-12
2.35431e-13
0.000104549
-2.11607e-11
2.95856e-13
-8.22903e-12
2.44421e-13
0.000104296
-2.15652e-11
3.07262e-13
-8.44863e-12
2.53841e-13
0.000104038
-2.19969e-11
3.1922e-13
-8.67861e-12
2.63721e-13
0.000103777
-2.24378e-11
3.31796e-13
-8.91928e-12
2.74083e-13
0.000103512
-2.29031e-11
3.44999e-13
-9.16678e-12
2.84959e-13
0.000103246
-2.3376e-11
3.58797e-13
-9.42279e-12
2.96355e-13
0.000102979
-2.38772e-11
3.73273e-13
-9.68873e-12
3.08302e-13
0.000102711
-2.43896e-11
3.88498e-13
-9.96639e-12
3.20846e-13
0.000102444
-2.49318e-11
4.04424e-13
-1.02544e-11
3.33989e-13
0.000102179
-2.549e-11
4.21119e-13
-1.05584e-11
3.47766e-13
0.000101915
-2.60768e-11
4.3866e-13
-1.08703e-11
3.6223e-13
0.000101654
-2.6676e-11
4.57062e-13
-1.11937e-11
3.77395e-13
0.000101396
-2.73109e-11
4.76324e-13
-1.15308e-11
3.93285e-13
0.000101141
-2.79491e-11
4.96508e-13
-1.18697e-11
4.09949e-13
0.000100891
-2.86379e-11
5.17724e-13
-1.22359e-11
4.27425e-13
0.000100645
-2.93278e-11
5.39997e-13
-1.26007e-11
4.45768e-13
0.000100404
-3.00774e-11
5.63321e-13
-1.30005e-11
4.64991e-13
0.000100169
-3.0835e-11
5.87727e-13
-1.3405e-11
4.85131e-13
9.99389e-05
-3.16512e-11
6.13318e-13
-1.38417e-11
5.06251e-13
9.97147e-05
-3.24878e-11
6.40213e-13
-1.42944e-11
5.28403e-13
9.94965e-05
-3.33744e-11
6.68415e-13
-1.47688e-11
5.51645e-13
9.92845e-05
-3.42972e-11
6.97959e-13
-1.52737e-11
5.75993e-13
9.90788e-05
-3.52577e-11
7.28956e-13
-1.57864e-11
6.0154e-13
9.88795e-05
-3.62652e-11
7.61501e-13
-1.63388e-11
6.28339e-13
9.86868e-05
-3.73052e-11
7.95625e-13
-1.68913e-11
6.56435e-13
9.85008e-05
-3.83899e-11
8.31391e-13
-1.74796e-11
6.85897e-13
9.83214e-05
-3.95168e-11
8.68822e-13
-1.80761e-11
7.16766e-13
9.81487e-05
-4.06808e-11
9.08076e-13
-1.86985e-11
7.49147e-13
9.79828e-05
-4.19072e-11
9.4937e-13
-1.9347e-11
7.83124e-13
9.78237e-05
-4.31723e-11
9.92701e-13
-2.00196e-11
8.1879e-13
9.76716e-05
-4.45138e-11
1.03817e-12
-2.07293e-11
8.56218e-13
9.75266e-05
-4.59005e-11
1.0858e-12
-2.1468e-11
8.95443e-13
9.73889e-05
-4.73681e-11
1.13572e-12
-2.22457e-11
9.36585e-13
9.72587e-05
-4.88872e-11
1.18825e-12
-2.30558e-11
9.79803e-13
9.71365e-05
-5.04913e-11
1.24333e-12
-2.3905e-11
1.02515e-12
9.70227e-05
-5.21534e-11
1.30114e-12
-2.47916e-11
1.07275e-12
9.69178e-05
-5.3905e-11
1.36187e-12
-2.57187e-11
1.12274e-12
9.68221e-05
-5.57218e-11
1.42569e-12
-2.66881e-11
1.17523e-12
9.67364e-05
-5.7635e-11
1.49269e-12
-2.77003e-11
1.23035e-12
9.66611e-05
-5.96214e-11
1.56304e-12
-2.87615e-11
1.28825e-12
9.65967e-05
-6.17113e-11
1.63698e-12
-2.98691e-11
1.34908e-12
9.65438e-05
-6.38852e-11
1.71469e-12
-3.10337e-11
1.413e-12
9.65027e-05
-6.61703e-11
1.79637e-12
-3.22469e-11
1.48018e-12
9.64739e-05
-6.85484e-11
1.88227e-12
-3.35249e-11
1.55079e-12
9.64581e-05
-7.10475e-11
1.97256e-12
-3.48562e-11
1.62503e-12
9.64558e-05
-7.3645e-11
2.06749e-12
-3.62563e-11
1.70309e-12
9.64676e-05
-7.6378e-11
2.16736e-12
-3.77196e-11
1.78519e-12
9.64943e-05
-7.92169e-11
2.27245e-12
-3.92552e-11
1.87157e-12
9.65368e-05
-8.22103e-11
2.38311e-12
-4.08664e-11
1.96245e-12
9.6596e-05
-8.53228e-11
2.4996e-12
-4.25575e-11
2.0581e-12
9.6673e-05
-8.86052e-11
2.62221e-12
-4.43343e-11
2.15879e-12
9.6769e-05
-9.20231e-11
2.75126e-12
-4.61999e-11
2.2648e-12
9.68852e-05
-9.56275e-11
2.88719e-12
-4.81587e-11
2.37643e-12
9.7023e-05
-9.93835e-11
3.03043e-12
-5.02155e-11
2.49401e-12
9.71838e-05
-1.03341e-10
3.18134e-12
-5.23755e-11
2.61786e-12
9.73691e-05
-1.07476e-10
3.34036e-12
-5.46445e-11
2.74834e-12
9.75805e-05
-1.11831e-10
3.50797e-12
-5.70248e-11
2.88583e-12
9.78196e-05
-1.16396e-10
3.68457e-12
-5.95329e-11
3.03067e-12
9.80884e-05
-1.21196e-10
3.87063e-12
-6.21577e-11
3.1833e-12
9.83884e-05
-1.26244e-10
4.06683e-12
-6.493e-11
3.34407e-12
9.87212e-05
-1.31544e-10
4.27352e-12
-6.78208e-11
3.51349e-12
9.90882e-05
-1.37119e-10
4.4915e-12
-7.08713e-11
3.69182e-12
9.94902e-05
-1.42971e-10
4.72061e-12
-7.40556e-11
3.87974e-12
9.99273e-05
-1.4912e-10
4.96206e-12
-7.73982e-11
4.0773e-12
0.000100399
-1.55594e-10
5.2161e-12
-8.0904e-11
4.28558e-12
0.000100904
-1.62375e-10
5.48405e-12
-8.45526e-11
4.504e-12
0.000101439
-1.69563e-10
5.76471e-12
-8.84173e-11
4.73469e-12
0.000102002
-1.77025e-10
6.06145e-12
-9.23859e-11
4.97549e-12
0.000102588
-1.85007e-10
6.37076e-12
-9.66475e-11
5.23122e-12
0.000103193
-1.932e-10
6.70072e-12
-1.00954e-10
5.49552e-12
0.000103813
-2.02078e-10
7.04019e-12
-1.05667e-10
5.78028e-12
0.000104445
-2.11012e-10
7.40822e-12
-1.10319e-10
6.06798e-12
0.000105083
-2.20918e-10
7.77626e-12
-1.15544e-10
6.3885e-12
0.000105728
-2.30534e-10
8.1931e-12
-1.20519e-10
6.69531e-12
0.000106378
-2.41539e-10
8.58282e-12
-1.26339e-10
7.06758e-12
0.000107037
-2.51649e-10
9.07353e-12
-1.31546e-10
7.37824e-12
0.000107707
-2.64009e-10
9.46035e-12
-1.38136e-10
7.83629e-12
0.000108393
-2.74461e-10
1.00792e-11
-1.43357e-10
8.10669e-12
0.000109102
-2.8815e-10
1.03876e-11
-1.50949e-10
8.73435e-12
0.000109837
-2.98325e-10
1.1271e-11
-1.55753e-10
8.83769e-12
0.000110604
-3.15663e-10
1.12937e-11
-1.64934e-10
9.85445e-12
0.000111408
-3.2363e-10
1.27964e-11
-1.68537e-10
9.44718e-12
0.00011225
-3.43405e-10
1.1971e-11
-1.80551e-10
1.14263e-11
0.000113133
-3.4577e-10
1.50314e-11
-1.81325e-10
9.58111e-12
0.000114057
-3.64737e-10
1.18337e-11
-1.99163e-10
1.40577e-11
0.000115022
-3.63342e-10
1.89706e-11
-1.93425e-10
8.26702e-12
0.000116025
-3.74736e-10
9.27763e-12
-2.24877e-10
1.9375e-11
0.000117062
-4.12263e-10
2.72947e-11
-2.02061e-10
2.84664e-12
0.000118129
-3.95127e-10
-9.92575e-14
-2.68253e-10
3.18034e-11
0.000119221
-5.14458e-10
4.73423e-11
-1.93865e-10
-1.39937e-11
0.000120336
-4.07277e-10
-2.84267e-11
-3.51522e-10
6.34988e-11
0.000121472
-5.72317e-10
6.25753e-11
-2.39477e-10
-2.56909e-11
0.000122627
-2.39298e-10
-1.00125e-10
-6.1872e-10
1.38911e-10
0.000123805
8.97522e-11
-1.08298e-10
-1.02935e-09
1.49082e-10
0.000125011
-2.91117e-11
5.38652e-11
-9.54274e-10
-1.09846e-11
0.000126252
9.51971e-11
-4.0155e-11
-1.1707e-09
8.52335e-11
0.000127535
-5.56375e-11
6.92673e-11
-1.05728e-09
-2.18826e-11
0.000128867
-1.64175e-11
-1.45328e-12
-1.16582e-09
5.1248e-11
0.000130251
-8.90873e-11
4.74957e-11
-1.12601e-09
4.82098e-12
0.000131694
-8.76857e-11
1.75632e-11
-1.1857e-09
3.73825e-11
0.000133201
-1.31786e-10
3.94762e-11
-1.17986e-09
1.82072e-11
0.000134775
-1.50573e-10
2.76577e-11
-1.21874e-09
3.28677e-11
0.000136417
-1.88108e-10
3.77921e-11
-1.22948e-09
2.56744e-11
0.000138127
-2.19258e-10
3.38559e-11
-1.26076e-09
3.26464e-11
0.000139896
-2.58553e-10
3.89967e-11
-1.28061e-09
3.06228e-11
0.000141713
-2.98157e-10
3.84208e-11
-1.31045e-09
3.43954e-11
0.000143563
-3.41884e-10
4.1512e-11
-1.33625e-09
3.45723e-11
0.000145428
-3.87872e-10
4.2331e-11
-1.36745e-09
3.70488e-11
0.00014729
-4.36444e-10
4.45944e-11
-1.39782e-09
3.81285e-11
0.00014913
-4.87684e-10
4.59848e-11
-1.43158e-09
4.0107e-11
0.000150936
-5.40947e-10
4.79136e-11
-1.46589e-09
4.15498e-11
0.0001527
-5.96715e-10
4.95031e-11
-1.50272e-09
4.3338e-11
0.000154429
-6.54271e-10
5.12869e-11
-1.54068e-09
4.49201e-11
0.000156133
-7.14087e-10
5.29296e-11
-1.58075e-09
4.66262e-11
0.000157824
-7.75599e-10
5.46303e-11
-1.6222e-09
4.82464e-11
0.000159509
-8.3913e-10
5.62616e-11
-1.66553e-09
4.99017e-11
0.000161189
-9.04299e-10
5.78961e-11
-1.71037e-09
5.15179e-11
0.000162859
-9.71282e-10
5.94865e-11
-1.75696e-09
5.31366e-11
0.000164512
-1.03986e-09
6.10608e-11
-1.80513e-09
5.47283e-11
0.000166136
-1.11009e-09
6.26059e-11
-1.85496e-09
5.63176e-11
0.000167719
-1.18187e-09
6.41374e-11
-1.90641e-09
5.78919e-11
0.000169251
-1.25523e-09
6.5659e-11
-1.9595e-09
5.94716e-11
0.000170717
-1.33012e-09
6.71871e-11
-2.01423e-09
6.10592e-11
0.000172108
-1.40661e-09
6.87353e-11
-2.07065e-09
6.26689e-11
0.000173422
-1.48466e-09
7.03241e-11
-2.12876e-09
6.43273e-11
0.000174675
-1.56438e-09
7.19694e-11
-2.18866e-09
6.60436e-11
0.000175897
-1.64577e-09
7.36862e-11
-2.25035e-09
6.78299e-11
0.000177127
-1.72896e-09
7.54796e-11
-2.31395e-09
6.96946e-11
0.000178406
-1.81398e-09
7.7348e-11
-2.3795e-09
7.16335e-11
0.000179762
-1.9009e-09
7.92804e-11
-2.44704e-09
7.36361e-11
0.000181205
-1.98982e-09
8.12637e-11
-2.51673e-09
7.56999e-11
0.000182721
-2.08068e-09
8.32852e-11
-2.58851e-09
7.78099e-11
0.000184268
-2.17365e-09
8.53378e-11
-2.66251e-09
7.99478e-11
0.0001858
-2.26866e-09
8.74246e-11
-2.7387e-09
8.21222e-11
0.000187286
-2.36581e-09
8.95547e-11
-2.81717e-09
8.43446e-11
0.000188721
-2.46513e-09
9.17436e-11
-2.89796e-09
8.66337e-11
0.000190124
-2.56667e-09
9.40045e-11
-2.98115e-09
8.89983e-11
0.000191518
-2.67056e-09
9.63482e-11
-3.06682e-09
9.14492e-11
0.000192926
-2.77681e-09
9.87782e-11
-3.15502e-09
9.39828e-11
0.000194369
-2.88559e-09
1.01293e-10
-3.24587e-09
9.66065e-11
0.000195878
-2.99691e-09
1.03884e-10
-3.33941e-09
9.93097e-11
0.000197498
-3.11088e-09
1.06531e-10
-3.4357e-09
1.02065e-10
0.000199285
-3.22748e-09
1.09205e-10
-3.53479e-09
1.04864e-10
0.00020129
-3.34674e-09
1.11868e-10
-3.63668e-09
1.07655e-10
0.00020353
-3.46859e-09
1.14483e-10
-3.74132e-09
1.10409e-10
0.000205981
-3.59294e-09
1.17022e-10
-3.84868e-09
1.13096e-10
0.000208576
-3.71972e-09
1.19471e-10
-3.95864e-09
1.15694e-10
0.000211215
-3.84883e-09
1.21831e-10
-4.07115e-09
1.18222e-10
0.000213787
-3.98018e-09
1.24113e-10
-4.18613e-09
1.20677e-10
0.000216192
-4.11375e-09
1.26346e-10
-4.30354e-09
1.23085e-10
0.000218329
-4.2495e-09
1.28578e-10
-4.42335e-09
1.25498e-10
0.000220106
-4.38755e-09
1.30883e-10
-4.54568e-09
1.2799e-10
0.000221499
-4.52806e-09
1.33362e-10
-4.67063e-09
1.30652e-10
0.000222592
-4.67134e-09
1.36109e-10
-4.79848e-09
1.33583e-10
0.000223562
-4.81775e-09
1.39202e-10
-4.92955e-09
1.36864e-10
0.000224624
-4.96763e-09
1.4263e-10
-5.06417e-09
1.40481e-10
0.000225972
-5.12133e-09
1.46339e-10
-5.20257e-09
1.44378e-10
0.000227778
-5.27896e-09
1.50198e-10
-5.3449e-09
1.48432e-10
0.000230167
-5.44064e-09
1.54103e-10
-5.49124e-09
1.52549e-10
0.000233104
-5.60621e-09
1.5793e-10
-5.64146e-09
1.56595e-10
0.000236348
-5.77571e-09
1.6167e-10
-5.79554e-09
1.60565e-10
0.000239548
-5.94891e-09
1.6529e-10
-5.9533e-09
1.64436e-10
0.000242429
-6.12585e-09
1.68832e-10
-6.11473e-09
1.68239e-10
0.000244972
-6.30642e-09
1.72319e-10
-6.27973e-09
1.72001e-10
0.00024739
-6.49069e-09
1.75807e-10
-6.44832e-09
1.75781e-10
0.000249994
-6.67859e-09
1.79258e-10
-6.62044e-09
1.79531e-10
0.000253039
-6.87021e-09
1.82738e-10
-6.79613e-09
1.83339e-10
0.000256685
-7.06537e-09
1.86046e-10
-6.97522e-09
1.87e-10
0.000261031
-7.26416e-09
1.89417e-10
-7.15773e-09
1.90723e-10
0.000266042
-7.46647e-09
1.92638e-10
-7.34353e-09
1.94328e-10
0.000271549
-7.67266e-09
1.96187e-10
-7.53293e-09
1.98287e-10
0.000277367
-7.88264e-09
1.99614e-10
-7.7258e-09
2.02159e-10
0.000283363
-8.09709e-09
2.03652e-10
-7.92275e-09
2.06691e-10
0.000289441
-8.31575e-09
2.07394e-10
-8.12347e-09
2.10961e-10
0.00029548
-8.53958e-09
2.12e-10
-8.32881e-09
2.16157e-10
0.00030131
-8.76784e-09
2.15862e-10
-8.53805e-09
2.2067e-10
0.000306773
-9.00183e-09
2.20919e-10
-8.75236e-09
2.26429e-10
0.000311754
-9.24012e-09
2.24517e-10
-8.97028e-09
2.30797e-10
0.000316199
-9.4847e-09
2.29984e-10
-9.1937e-09
2.37111e-10
0.00032015
-9.73312e-09
2.32999e-10
-9.42017e-09
2.41061e-10
0.000323646
-9.98869e-09
2.39179e-10
-9.65288e-09
2.48268e-10
0.000326647
-1.02476e-08
2.41487e-10
-9.88796e-09
2.51715e-10
0.000329208
-1.05152e-08
2.49093e-10
-1.01307e-08
2.60584e-10
0.000331536
-1.07854e-08
2.50492e-10
-1.0375e-08
2.63406e-10
0.000333793
-1.10671e-08
2.60435e-10
-1.06294e-08
2.74925e-10
0.000335909
-1.135e-08
2.60256e-10
-1.08838e-08
2.76522e-10
0.000337578
-1.16482e-08
2.73775e-10
-1.1152e-08
2.92059e-10
0.000338527
-1.19454e-08
2.71039e-10
-1.14177e-08
2.91623e-10
0.000338777
-1.22644e-08
2.90509e-10
-1.17033e-08
3.13726e-10
0.000338605
-1.25791e-08
2.83859e-10
-1.19828e-08
3.10132e-10
0.000338358
-1.29257e-08
3.1299e-10
-1.22921e-08
3.42812e-10
0.000338219
-1.32616e-08
2.99219e-10
-1.25884e-08
3.33213e-10
0.000338395
-1.36451e-08
3.43105e-10
-1.29297e-08
3.81971e-10
0.000339529
-1.40051e-08
3.1561e-10
-1.3245e-08
3.60185e-10
0.000342513
-1.44353e-08
3.81434e-10
-1.36281e-08
4.32689e-10
0.000347831
-1.48175e-08
3.28186e-10
-1.39604e-08
3.87178e-10
0.000355091
-1.53044e-08
4.276e-10
-1.43952e-08
4.95703e-10
0.000363112
-1.57013e-08
3.31079e-10
-1.47378e-08
4.09862e-10
0.000370439
-1.62592e-08
4.85595e-10
-1.524e-08
5.77149e-10
0.00037599
-1.66574e-08
3.17604e-10
-1.55819e-08
4.2437e-10
0.000379596
-1.73069e-08
5.61275e-10
-1.61754e-08
6.85964e-10
0.000381874
-1.76822e-08
2.76309e-10
-1.64966e-08
4.22354e-10
0.000383679
-1.84564e-08
6.66486e-10
-1.72207e-08
8.38184e-10
0.000385783
-1.87681e-08
1.90206e-10
-1.74893e-08
3.92636e-10
0.000388718
-1.97205e-08
8.21031e-10
-1.84094e-08
1.06077e-09
0.000392624
-1.98981e-08
2.87324e-11
-1.85708e-08
3.13167e-10
0.000397218
-2.11083e-08
1.05112e-09
-1.97885e-08
1.39042e-09
0.000402248
-2.10328e-08
-2.56462e-10
-1.97529e-08
1.48188e-10
0.000408222
-2.26191e-08
1.39659e-09
-2.14267e-08
1.88345e-09
0.000415999
-2.20957e-08
-7.39452e-10
-2.10513e-08
-1.56904e-10
0.000425597
-2.42397e-08
1.92278e-09
-2.34343e-08
2.63429e-09
0.000436312
-2.29513e-08
-1.53994e-09
-2.24962e-08
-6.8656e-10
0.000447017
-2.59445e-08
2.74316e-09
-2.60246e-08
3.81815e-09
0.000456515
-2.33668e-08
-2.85844e-09
-2.41648e-08
-1.58577e-09
0.000464336
-2.76514e-08
4.01584e-09
-2.95608e-08
5.71414e-09
0.000471009
-2.29466e-08
-4.97553e-09
-2.62072e-08
-3.09925e-09
0.00047731
-2.91062e-08
5.90927e-09
-3.46682e-08
8.77308e-09
0.000482959
-2.10493e-08
-8.20973e-09
-2.88555e-08
-5.69062e-09
0.000487225
-2.96546e-08
8.44881e-09
-4.25874e-08
1.39489e-08
0.00049048
-1.68378e-08
-1.26015e-08
-3.22717e-08
-1.05741e-08
0.000494565
-2.73183e-08
1.05906e-08
-5.62638e-08
2.38782e-08
0.000501036
-1.04116e-08
-1.58668e-08
-3.53579e-08
-2.20045e-08
0.000509231
-1.46299e-08
5.27649e-09
-4.40003e-08
7.51463e-09
0.000517473
-1.23853e-08
-1.32255e-10
-4.60216e-08
-1.40869e-10
2.26688e-07
2.14531e-13
1.23034e-13
6.91853e-07
5.38476e-13
3.06641e-13
1.17582e-06
8.91412e-13
5.09035e-13
1.67914e-06
1.26927e-12
7.3195e-13
2.20234e-06
1.64649e-12
9.48055e-13
2.74589e-06
2.03245e-12
1.17534e-12
3.31026e-06
2.3831e-12
1.3744e-12
3.89586e-06
2.67912e-12
1.54097e-12
4.5031e-06
2.93434e-12
1.68554e-12
5.13242e-06
3.13306e-12
1.7985e-12
5.78438e-06
3.30134e-12
1.89465e-12
6.45964e-06
3.43393e-12
1.97192e-12
7.15901e-06
3.55075e-12
2.03891e-12
7.88347e-06
3.64568e-12
2.09451e-12
8.63419e-06
3.73444e-12
2.14511e-12
9.4125e-06
3.80844e-12
2.18838e-12
1.02199e-05
3.88119e-12
2.22959e-12
1.10582e-05
3.94305e-12
2.2657e-12
1.19291e-05
4.00632e-12
2.30133e-12
1.28347e-05
4.06082e-12
2.33311e-12
1.37773e-05
4.11811e-12
2.36522e-12
1.47592e-05
4.16792e-12
2.39419e-12
1.57829e-05
4.22144e-12
2.42407e-12
1.68509e-05
4.2684e-12
2.45133e-12
1.7966e-05
4.31958e-12
2.47982e-12
1.91309e-05
4.36481e-12
2.50601e-12
2.03483e-05
4.41465e-12
2.53369e-12
2.1621e-05
4.45903e-12
2.55929e-12
2.29517e-05
4.5083e-12
2.5866e-12
2.4343e-05
4.55251e-12
2.61201e-12
2.57974e-05
4.60179e-12
2.6393e-12
2.73171e-05
4.64645e-12
2.6649e-12
2.89042e-05
4.69631e-12
2.69248e-12
3.05605e-05
4.74192e-12
2.71855e-12
3.22875e-05
4.79277e-12
2.74668e-12
3.40862e-05
4.83982e-12
2.7735e-12
3.59575e-05
4.89218e-12
2.80245e-12
3.79016e-05
4.9412e-12
2.83037e-12
3.99181e-05
4.99542e-12
2.86036e-12
4.20063e-05
5.04692e-12
2.88967e-12
4.41647e-05
5.10346e-12
2.92093e-12
4.63913e-05
5.15786e-12
2.95185e-12
4.86832e-05
5.21717e-12
2.98464e-12
5.10369e-05
5.27496e-12
3.01744e-12
5.34479e-05
5.33777e-12
3.0522e-12
5.5911e-05
5.40022e-12
3.08787e-12
5.842e-05
5.46711e-12
3.12498e-12
6.09676e-05
5.53568e-12
3.16466e-12
6.3546e-05
5.60738e-12
3.20452e-12
6.61459e-05
5.67935e-12
3.2453e-12
6.87573e-05
5.75604e-12
3.2878e-12
7.13696e-05
5.82918e-12
3.32714e-12
7.39708e-05
5.91187e-12
3.37288e-12
7.65487e-05
5.99197e-12
3.41596e-12
7.90901e-05
6.08287e-12
3.46678e-12
8.15818e-05
6.1761e-12
3.51943e-12
8.401e-05
6.2763e-12
3.57604e-12
8.63611e-05
6.38267e-12
3.63786e-12
8.86218e-05
6.49139e-12
3.69915e-12
9.07794e-05
6.60556e-12
3.76464e-12
9.2822e-05
6.72283e-12
3.83033e-12
9.47391e-05
6.83806e-12
3.89272e-12
9.65214e-05
6.96452e-12
3.96339e-12
9.81619e-05
7.08301e-12
4.02456e-12
9.96556e-05
7.22091e-12
4.10223e-12
0.000101
7.35251e-12
4.17198e-12
0.000102194
7.50308e-12
4.25802e-12
0.000103241
7.65467e-12
4.34324e-12
0.000104145
7.81614e-12
4.43589e-12
0.000104913
7.9866e-12
4.53548e-12
0.000105554
8.15597e-12
4.63184e-12
0.000106079
8.33939e-12
4.74012e-12
0.000106498
8.51527e-12
4.83873e-12
0.000106824
8.70911e-12
4.95297e-12
0.000107067
8.89207e-12
5.05417e-12
0.00010724
9.09454e-12
5.17225e-12
0.000107351
9.28642e-12
5.27745e-12
0.000107412
9.49425e-12
5.39587e-12
0.00010743
9.69696e-12
5.5066e-12
0.000107413
9.90993e-12
5.62451e-12
0.000107366
1.01266e-11
5.74327e-12
0.000107293
1.03513e-11
5.86648e-12
0.0001072
1.05851e-11
5.99579e-12
0.000107088
1.08272e-11
6.12947e-12
0.00010696
1.10799e-11
6.27048e-12
0.000106819
1.13382e-11
6.41289e-12
0.000106664
1.16102e-11
6.56519e-12
0.000106496
1.18844e-11
6.71516e-12
0.000106318
1.21766e-11
6.8789e-12
0.000106128
1.24707e-11
7.03989e-12
0.000105929
1.27854e-11
7.21653e-12
0.000105719
1.31077e-11
7.39583e-12
0.000105501
1.34469e-11
7.58647e-12
0.000105274
1.38037e-11
7.78922e-12
0.000105039
1.41681e-11
7.99355e-12
0.000104798
1.4553e-11
8.21239e-12
0.00010455
1.49428e-11
8.42943e-12
0.000104296
1.53475e-11
8.65545e-12
0.000104038
1.57653e-11
8.8869e-12
0.000103777
1.6198e-11
9.12678e-12
0.000103512
1.665e-11
9.37728e-12
0.000103246
1.71211e-11
9.63991e-12
0.000102979
1.76113e-11
9.91222e-12
0.000102711
1.81196e-11
1.01952e-11
0.000102444
1.86494e-11
1.04894e-11
0.000102179
1.91957e-11
1.07921e-11
0.000101915
1.97693e-11
1.11105e-11
0.000101654
2.03664e-11
1.14439e-11
0.000101396
2.09884e-11
1.17893e-11
0.000101141
2.16468e-11
1.21618e-11
0.000100891
2.23205e-11
1.25357e-11
0.000100645
2.3037e-11
1.29421e-11
0.000100405
2.37654e-11
1.33451e-11
0.000100169
2.45344e-11
1.37775e-11
9.9939e-05
2.53225e-11
1.42124e-11
9.97148e-05
2.6144e-11
1.46684e-11
9.94966e-05
2.70002e-11
1.51406e-11
9.92846e-05
2.78799e-11
1.56229e-11
9.90789e-05
2.88137e-11
1.61392e-11
9.88796e-05
2.97668e-11
1.66598e-11
9.86869e-05
3.07876e-11
1.7226e-11
9.85009e-05
3.18371e-11
1.78045e-11
9.83215e-05
3.2953e-11
1.84255e-11
9.81488e-05
3.41135e-11
1.90724e-11
9.79829e-05
3.53298e-11
1.97492e-11
9.78238e-05
3.65993e-11
2.04576e-11
9.76717e-05
3.79219e-11
2.11901e-11
9.75267e-05
3.93006e-11
2.19551e-11
9.7389e-05
4.07388e-11
2.27485e-11
9.72588e-05
4.22381e-11
2.35769e-11
9.71366e-05
4.38066e-11
2.44395e-11
9.70229e-05
4.54404e-11
2.53402e-11
9.69179e-05
4.71526e-11
2.62814e-11
9.68222e-05
4.8936e-11
2.7264e-11
9.67365e-05
5.08073e-11
2.82928e-11
9.66612e-05
5.27547e-11
2.93666e-11
9.65969e-05
5.47992e-11
3.04925e-11
9.65439e-05
5.69251e-11
3.16662e-11
9.65028e-05
5.91602e-11
3.28991e-11
9.64741e-05
6.14836e-11
3.41854e-11
9.64582e-05
6.39274e-11
3.55377e-11
9.64559e-05
6.64717e-11
3.69541e-11
9.64677e-05
6.91442e-11
3.84405e-11
9.64945e-05
7.1932e-11
4.00018e-11
9.65369e-05
7.48553e-11
4.16347e-11
9.65961e-05
7.79068e-11
4.33504e-11
9.66732e-05
8.11059e-11
4.51443e-11
9.67692e-05
8.44469e-11
4.7028e-11
9.68854e-05
8.79522e-11
4.89988e-11
9.70232e-05
9.1616e-11
5.1069e-11
9.71839e-05
9.54614e-11
5.32392e-11
9.73692e-05
9.94829e-11
5.55127e-11
9.75806e-05
1.03708e-10
5.78987e-11
9.78198e-05
1.08123e-10
6.03873e-11
9.80886e-05
1.12769e-10
6.30086e-11
9.83886e-05
1.1762e-10
6.57309e-11
9.87214e-05
1.22739e-10
6.86066e-11
9.90884e-05
1.2809e-10
7.15963e-11
9.94903e-05
1.33734e-10
7.4757e-11
9.99275e-05
1.39654e-10
7.80519e-11
0.000100399
1.45883e-10
8.15172e-11
0.000100904
1.52449e-10
8.5155e-11
0.000101439
1.59321e-10
8.89309e-11
0.000102002
1.6662e-10
9.29624e-11
0.000102588
1.742e-10
9.70753e-11
0.000103193
1.82324e-10
1.01566e-10
0.000103814
1.90675e-10
1.06031e-10
0.000104445
1.99735e-10
1.11094e-10
0.000105083
2.08919e-10
1.15907e-10
0.000105728
2.19068e-10
1.21732e-10
0.000106379
2.29142e-10
1.26966e-10
0.000107037
2.40623e-10
1.33891e-10
0.000107707
2.51573e-10
1.39449e-10
0.000108394
2.64767e-10
1.47806e-10
0.000109102
2.76535e-10
1.53896e-10
0.000109837
2.92064e-10
1.64492e-10
0.000110604
3.04261e-10
1.68996e-10
0.000111408
3.23117e-10
1.83979e-10
0.00011225
3.34721e-10
1.88333e-10
0.000113133
3.58764e-10
2.11336e-10
0.000114058
3.67025e-10
2.1903e-10
0.000115022
4.00189e-10
2.48474e-10
0.000116025
3.97579e-10
2.66546e-10
0.000117062
4.50706e-10
2.60022e-10
0.000118129
4.16388e-10
3.09733e-10
0.000119221
5.24272e-10
2.24659e-10
0.000120336
4.01833e-10
3.67846e-10
0.000121472
5.5089e-10
2.40646e-10
0.000122628
2.1056e-10
6.13456e-10
0.000123805
-1.59178e-10
9.84291e-10
0.000125011
-4.11372e-11
9.09393e-10
0.000126252
-2.12411e-10
1.07984e-09
0.000127535
-5.15462e-11
9.77579e-10
0.000128867
-1.10251e-10
1.06774e-09
0.000130251
-1.80955e-11
1.04867e-09
0.000131694
-2.28115e-11
1.10627e-09
0.000133201
4.07104e-11
1.12123e-09
0.000134775
6.23696e-11
1.16437e-09
0.000136417
1.15082e-10
1.1918e-09
0.000138127
1.50309e-10
1.22872e-09
0.000139896
2.00061e-10
1.2607e-09
0.000141713
2.43052e-10
1.29567e-09
0.000143563
2.93305e-10
1.32989e-09
0.000145428
3.41526e-10
1.36523e-09
0.00014729
3.9389e-10
1.40141e-09
0.00014913
4.46277e-10
1.43844e-09
0.000150936
5.01461e-10
1.47689e-09
0.0001527
5.57555e-10
1.51637e-09
0.000154429
6.15847e-10
1.5575e-09
0.000156133
6.7544e-10
1.59987e-09
0.000157824
7.3692e-10
1.64394e-09
0.000159509
7.99862e-10
1.68943e-09
0.000161189
8.64478e-10
1.7366e-09
0.00016286
9.30598e-10
1.78531e-09
0.000164512
9.9824e-10
1.83566e-09
0.000166136
1.06737e-09
1.88761e-09
0.000167719
1.13792e-09
1.94119e-09
0.000169251
1.20992e-09
1.9964e-09
0.000170717
1.28331e-09
2.05328e-09
0.000172108
1.35815e-09
2.1118e-09
0.000173423
1.43446e-09
2.17211e-09
0.000174676
1.5123e-09
2.2342e-09
0.000175898
1.59175e-09
2.29821e-09
0.000177128
1.6729e-09
2.36419e-09
0.000178407
1.75578e-09
2.43224e-09
0.000179763
1.84053e-09
2.50244e-09
0.000181206
1.92706e-09
2.57479e-09
0.000182722
2.01553e-09
2.64943e-09
0.000184268
2.10582e-09
2.72629e-09
0.000185801
2.19807e-09
2.80548e-09
0.000187287
2.29223e-09
2.88703e-09
0.000188722
2.38842e-09
2.971e-09
0.000190125
2.48667e-09
3.05753e-09
0.000191519
2.58705e-09
3.14665e-09
0.000192926
2.68969e-09
3.23854e-09
0.000194369
2.79463e-09
3.33321e-09
0.000195879
2.90196e-09
3.43084e-09
0.000197499
3.01173e-09
3.53141e-09
0.000199285
3.12391e-09
3.63503e-09
0.00020129
3.23852e-09
3.74166e-09
0.00020353
3.35545e-09
3.85132e-09
0.000205981
3.47466e-09
3.9639e-09
0.000208576
3.596e-09
4.07937e-09
0.000211215
3.71939e-09
4.19764e-09
0.000213787
3.84471e-09
4.3187e-09
0.000216193
3.97193e-09
4.44245e-09
0.00021833
4.10101e-09
4.56897e-09
0.000220107
4.23203e-09
4.6983e-09
0.000221501
4.36514e-09
4.83069e-09
0.000222594
4.50061e-09
4.96637e-09
0.000223564
4.63872e-09
5.10578e-09
0.000224626
4.77984e-09
5.24922e-09
0.000225973
4.92415e-09
5.39704e-09
0.000227779
5.07187e-09
5.54941e-09
0.000230167
5.22289e-09
5.70642e-09
0.000233104
5.37723e-09
5.86806e-09
0.000236347
5.53463e-09
6.03423e-09
0.000239547
5.69507e-09
6.20493e-09
0.000242429
5.85827e-09
6.38008e-09
0.000244971
6.02431e-09
6.5597e-09
0.000247389
6.19295e-09
6.74386e-09
0.000249992
6.3643e-09
6.93255e-09
0.000253036
6.53815e-09
7.12594e-09
0.000256681
6.71442e-09
7.32393e-09