/*--------------------------------*- C++ -*----------------------------------*\
| =========                 |                                                 |
| \\      /  F ield         | OpenFOAM: The Open Source CFD Toolbox           |
|  \\    /   O peration     | Version:  2106                                  |
|   \\  /    A nd           | Website:  www.openfoam.com                      |
|    \\/     M anipulation  |                                                 |
\*---------------------------------------------------------------------------*/
FoamFile
{
    version     2.0;
    format      ascii;
    arch        "LSB;label=32;scalar=64";
    class       volSymmTensorField;
    location    "3000";
    object      turbulenceProperties:R;
}
// * * * * * * * * * * * * * * * * * * * * * * * * * * * * * * * * * * * * * //

dimensions      [0 2 -2 0 0 0 0];

internalField   nonuniform List<symmTensor> 
2560
(
(8.53628e-06 -2.84958e-08 -4.12503e-11 8.53628e-06 2.68823e-22 8.53628e-06)
(8.53628e-06 -2.84958e-08 -4.12503e-11 8.53628e-06 -4.80323e-27 8.53628e-06)
(4.07066e-06 -7.80362e-08 -3.40596e-10 4.07066e-06 6.86581e-23 4.07066e-06)
(4.07066e-06 -7.80362e-08 -3.40596e-10 4.07066e-06 -1.39811e-26 4.07066e-06)
(2.06573e-05 -1.16113e-06 -6.96273e-09 2.06573e-05 5.15116e-22 2.06573e-05)
(2.06573e-05 -1.16113e-06 -6.96273e-09 2.06573e-05 -2.63844e-25 2.06573e-05)
(7.44806e-05 -8.68229e-06 -5.26484e-08 7.44806e-05 2.76752e-21 7.44806e-05)
(7.44806e-05 -8.68229e-06 -5.26484e-08 7.44806e-05 -1.47049e-24 7.44806e-05)
(0.000191012 -3.72283e-05 -2.27229e-07 0.000191012 8.17792e-23 0.000191012)
(0.000191012 -3.72283e-05 -2.27229e-07 0.000191012 4.43544e-24 0.000191012)
(0.00039084 -0.000108765 -6.64572e-07 0.00039084 -2.60513e-20 0.00039084)
(0.00039084 -0.000108765 -6.64572e-07 0.00039084 4.89068e-23 0.00039084)
(0.000675767 -0.000237536 -1.44876e-06 0.000675767 -1.92671e-19 0.000675767)
(0.000675767 -0.000237536 -1.44876e-06 0.000675767 3.09622e-22 0.000675767)
(0.00102217 -0.00041427 -2.52707e-06 0.00102217 -5.13597e-19 0.00102217)
(0.00102217 -0.00041427 -2.52707e-06 0.00102217 1.09368e-21 0.00102217)
(0.0013919 -0.000611357 -3.74963e-06 0.0013919 -9.41306e-19 0.0013919)
(0.0013919 -0.000611357 -3.74963e-06 0.0013919 2.35424e-21 0.0013919)
(0.00175072 -0.000802168 -4.97376e-06 0.00175072 -1.35467e-18 0.00175072)
(0.00175072 -0.000802168 -4.97376e-06 0.00175072 4.03187e-21 0.00175072)
(0.00207793 -0.000971914 -6.11579e-06 0.00207793 -1.66898e-18 0.00207793)
(0.00207793 -0.000971914 -6.11579e-06 0.00207793 6.04211e-21 0.00207793)
(0.00236544 -0.00111634 -7.14448e-06 0.00236544 -1.86357e-18 0.00236544)
(0.00236544 -0.00111634 -7.14448e-06 0.00236544 8.30943e-21 0.00236544)
(0.00261298 -0.0012368 -8.05833e-06 0.00261298 -1.95538e-18 0.00261298)
(0.00261298 -0.0012368 -8.05833e-06 0.00261298 1.07993e-20 0.00261298)
(0.002824 -0.0013366 -8.86852e-06 0.002824 -1.9717e-18 0.002824)
(0.002824 -0.0013366 -8.86852e-06 0.002824 1.36631e-20 0.002824)
(0.00300319 -0.00141932 -9.58984e-06 0.00300319 -1.93687e-18 0.00300319)
(0.00300319 -0.00141932 -9.58984e-06 0.00300319 1.65567e-20 0.00300319)
(0.00315528 -0.00148814 -1.02367e-05 0.00315528 -1.86943e-18 0.00315528)
(0.00315528 -0.00148814 -1.02367e-05 0.00315528 1.92018e-20 0.00315528)
(0.00328452 -0.00154566 -1.08216e-05 0.00328452 -1.78175e-18 0.00328452)
(0.00328452 -0.00154566 -1.08216e-05 0.00328452 2.22963e-20 0.00328452)
(0.00339454 -0.00159398 -1.13552e-05 0.00339454 -1.68232e-18 0.00339454)
(0.00339454 -0.00159398 -1.13552e-05 0.00339454 2.58154e-20 0.00339454)
(0.00348838 -0.00163473 -1.1846e-05 0.00348838 -1.57716e-18 0.00348838)
(0.00348838 -0.00163473 -1.1846e-05 0.00348838 2.95299e-20 0.00348838)
(0.00356853 -0.00166922 -1.2301e-05 0.00356853 -1.46853e-18 0.00356853)
(0.00356853 -0.00166922 -1.2301e-05 0.00356853 3.3724e-20 0.00356853)
(0.00363704 -0.00169847 -1.27259e-05 0.00363704 -1.35947e-18 0.00363704)
(0.00363704 -0.00169847 -1.27259e-05 0.00363704 3.83494e-20 0.00363704)
(0.0036956 -0.00172331 -1.31251e-05 0.0036956 -1.25217e-18 0.0036956)
(0.0036956 -0.00172331 -1.31251e-05 0.0036956 4.23547e-20 0.0036956)
(0.00374559 -0.00174439 -1.35024e-05 0.00374559 -1.14694e-18 0.00374559)
(0.00374559 -0.00174439 -1.35024e-05 0.00374559 4.62219e-20 0.00374559)
(0.00378815 -0.00176223 -1.38608e-05 0.00378815 -1.04279e-18 0.00378815)
(0.00378815 -0.00176223 -1.38608e-05 0.00378815 5.04019e-20 0.00378815)
(0.00382423 -0.00177727 -1.42028e-05 0.00382423 -9.40272e-19 0.00382423)
(0.00382423 -0.00177727 -1.42028e-05 0.00382423 5.49359e-20 0.00382423)
(0.00385462 -0.00178986 -1.45305e-05 0.00385462 -8.42244e-19 0.00385462)
(0.00385462 -0.00178986 -1.45305e-05 0.00385462 6.15705e-20 0.00385462)
(0.00387998 -0.00180029 -1.48455e-05 0.00387998 -7.46107e-19 0.00387998)
(0.00387998 -0.00180029 -1.48455e-05 0.00387998 6.85825e-20 0.00387998)
(0.00390088 -0.0018088 -1.51492e-05 0.00390088 -6.50973e-19 0.00390088)
(0.00390088 -0.0018088 -1.51492e-05 0.00390088 7.29978e-20 0.00390088)
(0.0039178 -0.00181561 -1.54429e-05 0.0039178 -5.57681e-19 0.0039178)
(0.0039178 -0.00181561 -1.54429e-05 0.0039178 7.51076e-20 0.0039178)
(0.00393113 -0.00182088 -1.57275e-05 0.00393113 -4.66496e-19 0.00393113)
(0.00393113 -0.00182088 -1.57275e-05 0.00393113 7.76183e-20 0.00393113)
(0.00394123 -0.00182476 -1.60039e-05 0.00394123 -3.77352e-19 0.00394123)
(0.00394123 -0.00182476 -1.60039e-05 0.00394123 8.42159e-20 0.00394123)
(0.0039484 -0.00182738 -1.62727e-05 0.0039484 -2.89563e-19 0.0039484)
(0.0039484 -0.00182738 -1.62727e-05 0.0039484 9.51857e-20 0.0039484)
(0.0039529 -0.00182884 -1.65346e-05 0.0039529 -2.0249e-19 0.0039529)
(0.0039529 -0.00182884 -1.65346e-05 0.0039529 1.04093e-19 0.0039529)
(0.00395496 -0.00182924 -1.679e-05 0.00395496 -1.17291e-19 0.00395496)
(0.00395496 -0.00182924 -1.679e-05 0.00395496 1.1055e-19 0.00395496)
(0.00395479 -0.00182866 -1.70395e-05 0.00395479 -3.23559e-20 0.00395479)
(0.00395479 -0.00182866 -1.70395e-05 0.00395479 1.14336e-19 0.00395479)
(0.00395255 -0.00182718 -1.72834e-05 0.00395255 5.13484e-20 0.00395255)
(0.00395255 -0.00182718 -1.72834e-05 0.00395255 1.18375e-19 0.00395255)
(0.0039484 -0.00182485 -1.7522e-05 0.0039484 1.31937e-19 0.0039484)
(0.0039484 -0.00182485 -1.7522e-05 0.0039484 1.26903e-19 0.0039484)
(0.00394248 -0.00182175 -1.77556e-05 0.00394248 2.14045e-19 0.00394248)
(0.00394248 -0.00182175 -1.77556e-05 0.00394248 1.34825e-19 0.00394248)
(0.00393493 -0.00181791 -1.79843e-05 0.00393493 2.93696e-19 0.00393493)
(0.00393493 -0.00181791 -1.79843e-05 0.00393493 1.41949e-19 0.00393493)
(0.00392584 -0.00181338 -1.82085e-05 0.00392584 3.73465e-19 0.00392584)
(0.00392584 -0.00181338 -1.82085e-05 0.00392584 1.50004e-19 0.00392584)
(0.00391531 -0.00180821 -1.84283e-05 0.00391531 4.5468e-19 0.00391531)
(0.00391531 -0.00180821 -1.84283e-05 0.00391531 1.58477e-19 0.00391531)
(0.00390345 -0.00180243 -1.86438e-05 0.00390345 5.32076e-19 0.00390345)
(0.00390345 -0.00180243 -1.86438e-05 0.00390345 1.64559e-19 0.00390345)
(0.00389033 -0.00179607 -1.88551e-05 0.00389033 6.11611e-19 0.00389033)
(0.00389033 -0.00179607 -1.88551e-05 0.00389033 1.68008e-19 0.00389033)
(0.00387603 -0.00178918 -1.90624e-05 0.00387603 6.93195e-19 0.00387603)
(0.00387603 -0.00178918 -1.90624e-05 0.00387603 1.73568e-19 0.00387603)
(0.00386062 -0.00178177 -1.92658e-05 0.00386062 7.70928e-19 0.00386062)
(0.00386062 -0.00178177 -1.92658e-05 0.00386062 1.87816e-19 0.00386062)
(0.00384415 -0.00177387 -1.94652e-05 0.00384415 8.50409e-19 0.00384415)
(0.00384415 -0.00177387 -1.94652e-05 0.00384415 2.02723e-19 0.00384415)
(0.00382669 -0.00176552 -1.96609e-05 0.00382669 9.32409e-19 0.00382669)
(0.00382669 -0.00176552 -1.96609e-05 0.00382669 2.0953e-19 0.00382669)
(0.0038083 -0.00175672 -1.98528e-05 0.0038083 1.01185e-18 0.0038083)
(0.0038083 -0.00175672 -1.98528e-05 0.0038083 2.15148e-19 0.0038083)
(0.00378902 -0.00174751 -2.0041e-05 0.00378902 1.09124e-18 0.00378902)
(0.00378902 -0.00174751 -2.0041e-05 0.00378902 2.25274e-19 0.00378902)
(0.00376889 -0.0017379 -2.02255e-05 0.00376889 1.17082e-18 0.00376889)
(0.00376889 -0.0017379 -2.02255e-05 0.00376889 2.28545e-19 0.00376889)
(0.00374798 -0.00172791 -2.04064e-05 0.00374798 1.24872e-18 0.00374798)
(0.00374798 -0.00172791 -2.04064e-05 0.00374798 2.29061e-19 0.00374798)
(0.0037263 -0.00171757 -2.05836e-05 0.0037263 1.33146e-18 0.0037263)
(0.0037263 -0.00171757 -2.05836e-05 0.0037263 2.398e-19 0.0037263)
(0.00370391 -0.00170688 -2.07572e-05 0.00370391 1.04312e-18 0.00370391)
(0.00370391 -0.00170688 -2.07572e-05 0.00370391 2.66694e-19 0.00370391)
(0.00368084 -0.00169587 -2.09273e-05 0.00368084 6.57263e-19 0.00368084)
(0.00368084 -0.00169587 -2.09273e-05 0.00368084 3.06541e-19 0.00368084)
(0.00365712 -0.00168454 -2.10937e-05 0.00365712 6.35722e-19 0.00365712)
(0.00365712 -0.00168454 -2.10937e-05 0.00365712 3.29743e-19 0.00365712)
(0.00363279 -0.00167293 -2.12565e-05 0.00363279 6.96243e-19 0.00363279)
(0.00363279 -0.00167293 -2.12565e-05 0.00363279 3.35334e-19 0.00363279)
(0.00360787 -0.00166103 -2.14158e-05 0.00360787 7.67247e-19 0.00360787)
(0.00360787 -0.00166103 -2.14158e-05 0.00360787 3.39567e-19 0.00360787)
(0.0035824 -0.00164886 -2.15714e-05 0.0035824 8.30971e-19 0.0035824)
(0.0035824 -0.00164886 -2.15714e-05 0.0035824 3.57645e-19 0.0035824)
(0.00355641 -0.00163645 -2.17235e-05 0.00355641 8.93965e-19 0.00355641)
(0.00355641 -0.00163645 -2.17235e-05 0.00355641 3.75796e-19 0.00355641)
(0.00352991 -0.00162379 -2.18719e-05 0.00352991 9.53126e-19 0.00352991)
(0.00352991 -0.00162379 -2.18719e-05 0.00352991 3.86651e-19 0.00352991)
(0.00350295 -0.0016109 -2.20168e-05 0.00350295 1.01073e-18 0.00350295)
(0.00350295 -0.0016109 -2.20168e-05 0.00350295 3.91858e-19 0.00350295)
(0.00347553 -0.00159779 -2.2158e-05 0.00347553 1.0742e-18 0.00347553)
(0.00347553 -0.00159779 -2.2158e-05 0.00347553 3.96133e-19 0.00347553)
(0.00344769 -0.00158448 -2.22956e-05 0.00344769 1.1344e-18 0.00344769)
(0.00344769 -0.00158448 -2.22956e-05 0.00344769 4.23564e-19 0.00344769)
(0.00341945 -0.00157098 -2.24296e-05 0.00341945 1.19932e-18 0.00341945)
(0.00341945 -0.00157098 -2.24296e-05 0.00341945 4.32141e-19 0.00341945)
(0.00339083 -0.00155729 -2.25599e-05 0.00339083 1.25632e-18 0.00339083)
(0.00339083 -0.00155729 -2.25599e-05 0.00339083 4.30238e-19 0.00339083)
(0.00336185 -0.00154343 -2.26866e-05 0.00336185 1.30801e-18 0.00336185)
(0.00336185 -0.00154343 -2.26866e-05 0.00336185 4.56188e-19 0.00336185)
(0.00333253 -0.00152941 -2.28096e-05 0.00333253 1.37455e-18 0.00333253)
(0.00333253 -0.00152941 -2.28096e-05 0.00333253 4.76328e-19 0.00333253)
(0.0033029 -0.00151523 -2.29289e-05 0.0033029 1.44502e-18 0.0033029)
(0.0033029 -0.00151523 -2.29289e-05 0.0033029 4.9119e-19 0.0033029)
(0.00327296 -0.00150092 -2.30445e-05 0.00327296 1.61554e-18 0.00327296)
(0.00327296 -0.00150092 -2.30445e-05 0.00327296 5.10426e-19 0.00327296)
(0.00324275 -0.00148646 -2.31564e-05 0.00324275 2.14872e-18 0.00324275)
(0.00324275 -0.00148646 -2.31564e-05 0.00324275 5.26757e-19 0.00324275)
(0.00321227 -0.00147189 -2.32646e-05 0.00321227 2.60669e-18 0.00321227)
(0.00321227 -0.00147189 -2.32646e-05 0.00321227 5.4774e-19 0.00321227)
(0.00318155 -0.0014572 -2.33691e-05 0.00318155 2.68837e-18 0.00318155)
(0.00318155 -0.0014572 -2.33691e-05 0.00318155 5.61039e-19 0.00318155)
(0.00315061 -0.0014424 -2.34698e-05 0.00315061 2.7647e-18 0.00315061)
(0.00315061 -0.0014424 -2.34698e-05 0.00315061 5.74438e-19 0.00315061)
(0.00311945 -0.00142751 -2.35668e-05 0.00311945 2.86433e-18 0.00311945)
(0.00311945 -0.00142751 -2.35668e-05 0.00311945 5.86459e-19 0.00311945)
(0.0030881 -0.00141252 -2.366e-05 0.0030881 2.95086e-18 0.0030881)
(0.0030881 -0.00141252 -2.366e-05 0.0030881 5.91914e-19 0.0030881)
(0.00305657 -0.00139746 -2.37494e-05 0.00305657 3.03544e-18 0.00305657)
(0.00305657 -0.00139746 -2.37494e-05 0.00305657 6.14868e-19 0.00305657)
(0.00302488 -0.00138232 -2.38351e-05 0.00302488 3.14017e-18 0.00302488)
(0.00302488 -0.00138232 -2.38351e-05 0.00302488 6.32855e-19 0.00302488)
(0.00299304 -0.00136711 -2.3917e-05 0.00299304 3.24208e-18 0.00299304)
(0.00299304 -0.00136711 -2.3917e-05 0.00299304 6.59084e-19 0.00299304)
(0.00296107 -0.00135185 -2.39951e-05 0.00296107 3.34268e-18 0.00296107)
(0.00296107 -0.00135185 -2.39951e-05 0.00296107 6.90715e-19 0.00296107)
(0.00292898 -0.00133654 -2.40695e-05 0.00292898 3.44496e-18 0.00292898)
(0.00292898 -0.00133654 -2.40695e-05 0.00292898 6.6483e-19 0.00292898)
(0.00289679 -0.00132118 -2.414e-05 0.00289679 3.53953e-18 0.00289679)
(0.00289679 -0.00132118 -2.414e-05 0.00289679 6.65828e-19 0.00289679)
(0.00286451 -0.00130579 -2.42067e-05 0.00286451 3.65649e-18 0.00286451)
(0.00286451 -0.00130579 -2.42067e-05 0.00286451 7.483e-19 0.00286451)
(0.00283214 -0.00129036 -2.42696e-05 0.00283214 3.77508e-18 0.00283214)
(0.00283214 -0.00129036 -2.42696e-05 0.00283214 7.86532e-19 0.00283214)
(0.00279972 -0.00127492 -2.43288e-05 0.00279972 3.86791e-18 0.00279972)
(0.00279972 -0.00127492 -2.43288e-05 0.00279972 7.7112e-19 0.00279972)
(0.00276725 -0.00125946 -2.43841e-05 0.00276725 3.98589e-18 0.00276725)
(0.00276725 -0.00125946 -2.43841e-05 0.00276725 7.82319e-19 0.00276725)
(0.00273473 -0.00124399 -2.44356e-05 0.00273473 4.10864e-18 0.00273473)
(0.00273473 -0.00124399 -2.44356e-05 0.00273473 7.81524e-19 0.00273473)
(0.00270219 -0.00122852 -2.44834e-05 0.00270219 4.195e-18 0.00270219)
(0.00270219 -0.00122852 -2.44834e-05 0.00270219 8.00938e-19 0.00270219)
(0.00266964 -0.00121305 -2.45273e-05 0.00266964 4.3206e-18 0.00266964)
(0.00266964 -0.00121305 -2.45273e-05 0.00266964 8.79349e-19 0.00266964)
(0.00263708 -0.00119758 -2.45675e-05 0.00263708 4.44744e-18 0.00263708)
(0.00263708 -0.00119758 -2.45675e-05 0.00263708 8.76744e-19 0.00263708)
(0.00260453 -0.00118214 -2.46039e-05 0.00260453 4.55411e-18 0.00260453)
(0.00260453 -0.00118214 -2.46039e-05 0.00260453 8.64936e-19 0.00260453)
(0.002572 -0.00116671 -2.46365e-05 0.002572 4.69125e-18 0.002572)
(0.002572 -0.00116671 -2.46365e-05 0.002572 9.173e-19 0.002572)
(0.0025395 -0.00115131 -2.46654e-05 0.0025395 4.79206e-18 0.0025395)
(0.0025395 -0.00115131 -2.46654e-05 0.0025395 9.37345e-19 0.0025395)
(0.00250705 -0.00113594 -2.46905e-05 0.00250705 4.88433e-18 0.00250705)
(0.00250705 -0.00113594 -2.46905e-05 0.00250705 9.34226e-19 0.00250705)
(0.00247464 -0.00112061 -2.47118e-05 0.00247464 5.03002e-18 0.00247464)
(0.00247464 -0.00112061 -2.47118e-05 0.00247464 9.57222e-19 0.00247464)
(0.0024423 -0.00110532 -2.47295e-05 0.0024423 5.15677e-18 0.0024423)
(0.0024423 -0.00110532 -2.47295e-05 0.0024423 1.03372e-18 0.0024423)
(0.00241003 -0.00109007 -2.47435e-05 0.00241003 5.30208e-18 0.00241003)
(0.00241003 -0.00109007 -2.47435e-05 0.00241003 1.08708e-18 0.00241003)
(0.00237783 -0.00107488 -2.47537e-05 0.00237783 5.47172e-18 0.00237783)
(0.00237783 -0.00107488 -2.47537e-05 0.00237783 1.0549e-18 0.00237783)
(0.00234573 -0.00105974 -2.47603e-05 0.00234573 5.55416e-18 0.00234573)
(0.00234573 -0.00105974 -2.47603e-05 0.00234573 1.05302e-18 0.00234573)
(0.00231373 -0.00104466 -2.47632e-05 0.00231373 5.63876e-18 0.00231373)
(0.00231373 -0.00104466 -2.47632e-05 0.00231373 1.12237e-18 0.00231373)
(0.00228184 -0.00102965 -2.47625e-05 0.00228184 5.79124e-18 0.00228184)
(0.00228184 -0.00102965 -2.47625e-05 0.00228184 1.1774e-18 0.00228184)
(0.00225006 -0.0010147 -2.47582e-05 0.00225006 5.95672e-18 0.00225006)
(0.00225006 -0.0010147 -2.47582e-05 0.00225006 1.20946e-18 0.00225006)
(0.00221841 -0.000999831 -2.47503e-05 0.00221841 6.07347e-18 0.00221841)
(0.00221841 -0.000999831 -2.47503e-05 0.00221841 1.25195e-18 0.00221841)
(0.0021869 -0.000985036 -2.47388e-05 0.0021869 6.17303e-18 0.0021869)
(0.0021869 -0.000985036 -2.47388e-05 0.0021869 1.2745e-18 0.0021869)
(0.00215552 -0.000970323 -2.47238e-05 0.00215552 5.40963e-18 0.00215552)
(0.00215552 -0.000970323 -2.47238e-05 0.00215552 1.26024e-18 0.00215552)
(0.00212429 -0.000955694 -2.47053e-05 0.00212429 3.77526e-18 0.00212429)
(0.00212429 -0.000955694 -2.47053e-05 0.00212429 1.30982e-18 0.00212429)
(0.00209322 -0.000941152 -2.46833e-05 0.00209322 3.00875e-18 0.00209322)
(0.00209322 -0.000941152 -2.46833e-05 0.00209322 1.32639e-18 0.00209322)
(0.00206232 -0.000926703 -2.46578e-05 0.00206232 3.04885e-18 0.00206232)
(0.00206232 -0.000926703 -2.46578e-05 0.00206232 1.30601e-18 0.00206232)
(0.00203158 -0.000912348 -2.46289e-05 0.00203158 3.04119e-18 0.00203158)
(0.00203158 -0.000912348 -2.46289e-05 0.00203158 1.39991e-18 0.00203158)
(0.00200102 -0.000898091 -2.45966e-05 0.00200102 3.10536e-18 0.00200102)
(0.00200102 -0.000898091 -2.45966e-05 0.00200102 1.46857e-18 0.00200102)
(0.00197065 -0.000883935 -2.45609e-05 0.00197065 3.20004e-18 0.00197065)
(0.00197065 -0.000883935 -2.45609e-05 0.00197065 1.44553e-18 0.00197065)
(0.00194046 -0.000869883 -2.45219e-05 0.00194046 3.23416e-18 0.00194046)
(0.00194046 -0.000869883 -2.45219e-05 0.00194046 1.46083e-18 0.00194046)
(0.00191047 -0.000855938 -2.44797e-05 0.00191047 3.25489e-18 0.00191047)
(0.00191047 -0.000855938 -2.44797e-05 0.00191047 1.49937e-18 0.00191047)
(0.00188069 -0.000842102 -2.44341e-05 0.00188069 3.24496e-18 0.00188069)
(0.00188069 -0.000842102 -2.44341e-05 0.00188069 1.53756e-18 0.00188069)
(0.00185111 -0.000828378 -2.43854e-05 0.00185111 3.1754e-18 0.00185111)
(0.00185111 -0.000828378 -2.43854e-05 0.00185111 1.62879e-18 0.00185111)
(0.00182175 -0.000814769 -2.43334e-05 0.00182175 3.23152e-18 0.00182175)
(0.00182175 -0.000814769 -2.43334e-05 0.00182175 1.67203e-18 0.00182175)
(0.0017926 -0.000801276 -2.42783e-05 0.0017926 3.34533e-18 0.0017926)
(0.0017926 -0.000801276 -2.42783e-05 0.0017926 1.72519e-18 0.0017926)
(0.00176368 -0.000787903 -2.42201e-05 0.00176368 3.43355e-18 0.00176368)
(0.00176368 -0.000787903 -2.42201e-05 0.00176368 1.80102e-18 0.00176368)
(0.00173498 -0.00077465 -2.41589e-05 0.00173498 3.53031e-18 0.00173498)
(0.00173498 -0.00077465 -2.41589e-05 0.00173498 1.82096e-18 0.00173498)
(0.00170652 -0.00076152 -2.40946e-05 0.00170652 3.59964e-18 0.00170652)
(0.00170652 -0.00076152 -2.40946e-05 0.00170652 1.82802e-18 0.00170652)
(0.0016783 -0.000748516 -2.40273e-05 0.0016783 3.64561e-18 0.0016783)
(0.0016783 -0.000748516 -2.40273e-05 0.0016783 1.87765e-18 0.0016783)
(0.00165031 -0.000735638 -2.39571e-05 0.00165031 3.74058e-18 0.00165031)
(0.00165031 -0.000735638 -2.39571e-05 0.00165031 1.97412e-18 0.00165031)
(0.00162258 -0.000722888 -2.38841e-05 0.00162258 3.86269e-18 0.00162258)
(0.00162258 -0.000722888 -2.38841e-05 0.00162258 2.04619e-18 0.00162258)
(0.00159509 -0.000710268 -2.38081e-05 0.00159509 3.95282e-18 0.00159509)
(0.00159509 -0.000710268 -2.38081e-05 0.00159509 2.04598e-18 0.00159509)
(0.00156785 -0.000697779 -2.37294e-05 0.00156785 3.96424e-18 0.00156785)
(0.00156785 -0.000697779 -2.37294e-05 0.00156785 2.07961e-18 0.00156785)
(0.00154087 -0.000685423 -2.36479e-05 0.00154087 3.93735e-18 0.00154087)
(0.00154087 -0.000685423 -2.36479e-05 0.00154087 2.11854e-18 0.00154087)
(0.00151415 -0.000673201 -2.35637e-05 0.00151415 3.9441e-18 0.00151415)
(0.00151415 -0.000673201 -2.35637e-05 0.00151415 2.09836e-18 0.00151415)
(0.00148769 -0.000661114 -2.34769e-05 0.00148769 3.89703e-18 0.00148769)
(0.00148769 -0.000661114 -2.34769e-05 0.00148769 2.13249e-18 0.00148769)
(0.0014615 -0.000649163 -2.33874e-05 0.0014615 3.89547e-18 0.0014615)
(0.0014615 -0.000649163 -2.33874e-05 0.0014615 2.18971e-18 0.0014615)
(0.00143557 -0.000637349 -2.32954e-05 0.00143557 3.94211e-18 0.00143557)
(0.00143557 -0.000637349 -2.32954e-05 0.00143557 2.32493e-18 0.00143557)
(0.00140992 -0.000625672 -2.32009e-05 0.00140992 3.96863e-18 0.00140992)
(0.00140992 -0.000625672 -2.32009e-05 0.00140992 2.4346e-18 0.00140992)
(0.00138453 -0.000614135 -2.31039e-05 0.00138453 3.9594e-18 0.00138453)
(0.00138453 -0.000614135 -2.31039e-05 0.00138453 2.37026e-18 0.00138453)
(0.00135942 -0.000602736 -2.30045e-05 0.00135942 3.85651e-18 0.00135942)
(0.00135942 -0.000602736 -2.30045e-05 0.00135942 2.29558e-18 0.00135942)
(0.00133459 -0.000591478 -2.29027e-05 0.00133459 3.71938e-18 0.00133459)
(0.00133459 -0.000591478 -2.29027e-05 0.00133459 2.48692e-18 0.00133459)
(0.00131004 -0.000580359 -2.27986e-05 0.00131004 3.71846e-18 0.00131004)
(0.00131004 -0.000580359 -2.27986e-05 0.00131004 2.65584e-18 0.00131004)
(0.00128576 -0.000569382 -2.26923e-05 0.00128576 3.75806e-18 0.00128576)
(0.00128576 -0.000569382 -2.26923e-05 0.00128576 2.53322e-18 0.00128576)
(0.00126177 -0.000558545 -2.25838e-05 0.00126177 3.66191e-18 0.00126177)
(0.00126177 -0.000558545 -2.25838e-05 0.00126177 2.61409e-18 0.00126177)
(0.00123805 -0.00054785 -2.24731e-05 0.00123805 3.53992e-18 0.00123805)
(0.00123805 -0.00054785 -2.24731e-05 0.00123805 2.8768e-18 0.00123805)
(0.00121462 -0.000537297 -2.23603e-05 0.00121462 3.54893e-18 0.00121462)
(0.00121462 -0.000537297 -2.23603e-05 0.00121462 2.86868e-18 0.00121462)
(0.00119148 -0.000526885 -2.22454e-05 0.00119148 3.6665e-18 0.00119148)
(0.00119148 -0.000526885 -2.22454e-05 0.00119148 2.80971e-18 0.00119148)
(0.00116862 -0.000516614 -2.21286e-05 0.00116862 3.70113e-18 0.00116862)
(0.00116862 -0.000516614 -2.21286e-05 0.00116862 3.06533e-18 0.00116862)
(0.00114604 -0.000506485 -2.20098e-05 0.00114604 3.77818e-18 0.00114604)
(0.00114604 -0.000506485 -2.20098e-05 0.00114604 3.21845e-18 0.00114604)
(0.00112375 -0.000496498 -2.18891e-05 0.00112375 3.83839e-18 0.00112375)
(0.00112375 -0.000496498 -2.18891e-05 0.00112375 3.10912e-18 0.00112375)
(0.00110175 -0.000486651 -2.17665e-05 0.00110175 3.7761e-18 0.00110175)
(0.00110175 -0.000486651 -2.17665e-05 0.00110175 3.21831e-18 0.00110175)
(0.00108003 -0.000476946 -2.16422e-05 0.00108003 3.80199e-18 0.00108003)
(0.00108003 -0.000476946 -2.16422e-05 0.00108003 3.32065e-18 0.00108003)
(0.0010586 -0.000467381 -2.15162e-05 0.0010586 3.75423e-18 0.0010586)
(0.0010586 -0.000467381 -2.15162e-05 0.0010586 3.29984e-18 0.0010586)
(0.00103746 -0.000457957 -2.13884e-05 0.00103746 3.57989e-18 0.00103746)
(0.00103746 -0.000457957 -2.13884e-05 0.00103746 3.40738e-18 0.00103746)
(0.0010166 -0.000448672 -2.1259e-05 0.0010166 3.5648e-18 0.0010166)
(0.0010166 -0.000448672 -2.1259e-05 0.0010166 3.5075e-18 0.0010166)
(0.000996024 -0.000439527 -2.11281e-05 0.000996024 3.52375e-18 0.000996024)
(0.000996024 -0.000439527 -2.11281e-05 0.000996024 3.56558e-18 0.000996024)
(0.000975736 -0.00043052 -2.09956e-05 0.000975736 3.39304e-18 0.000975736)
(0.000975736 -0.00043052 -2.09956e-05 0.000975736 3.64343e-18 0.000975736)
(0.000955731 -0.000421652 -2.08616e-05 0.000955731 3.1581e-18 0.000955731)
(0.000955731 -0.000421652 -2.08616e-05 0.000955731 3.77544e-18 0.000955731)
(0.000936011 -0.00041292 -2.07262e-05 0.000936011 3.04207e-18 0.000936011)
(0.000936011 -0.00041292 -2.07262e-05 0.000936011 3.97712e-18 0.000936011)
(0.000916573 -0.000404326 -2.05894e-05 0.000916573 3.02941e-18 0.000916573)
(0.000916573 -0.000404326 -2.05894e-05 0.000916573 3.88693e-18 0.000916573)
(0.000897416 -0.000395867 -2.04512e-05 0.000897416 2.87237e-18 0.000897416)
(0.000897416 -0.000395867 -2.04512e-05 0.000897416 3.83915e-18 0.000897416)
(0.00087854 -0.000387543 -2.03118e-05 0.00087854 2.67461e-18 0.00087854)
(0.00087854 -0.000387543 -2.03118e-05 0.00087854 3.96906e-18 0.00087854)
(0.000859944 -0.000379354 -2.01711e-05 0.000859944 2.39215e-18 0.000859944)
(0.000859944 -0.000379354 -2.01711e-05 0.000859944 4.10658e-18 0.000859944)
(0.000841625 -0.000371298 -2.00293e-05 0.000841625 1.99848e-18 0.000841625)
(0.000841625 -0.000371298 -2.00293e-05 0.000841625 4.47195e-18 0.000841625)
(0.000823584 -0.000363374 -1.98863e-05 0.000823584 1.82381e-18 0.000823584)
(0.000823584 -0.000363374 -1.98863e-05 0.000823584 4.5851e-18 0.000823584)
(0.000805817 -0.000355581 -1.97422e-05 0.000805817 1.81981e-18 0.000805817)
(0.000805817 -0.000355581 -1.97422e-05 0.000805817 4.38074e-18 0.000805817)
(0.000788324 -0.000347919 -1.95971e-05 0.000788324 1.58956e-18 0.000788324)
(0.000788324 -0.000347919 -1.95971e-05 0.000788324 4.43508e-18 0.000788324)
(0.000771104 -0.000340386 -1.9451e-05 0.000771104 1.49635e-18 0.000771104)
(0.000771104 -0.000340386 -1.9451e-05 0.000771104 4.76565e-18 0.000771104)
(0.000754153 -0.000332981 -1.93039e-05 0.000754153 1.7099e-18 0.000754153)
(0.000754153 -0.000332981 -1.93039e-05 0.000754153 4.84487e-18 0.000754153)
(0.000737471 -0.000325703 -1.91558e-05 0.000737471 1.514e-18 0.000737471)
(0.000737471 -0.000325703 -1.91558e-05 0.000737471 4.8622e-18 0.000737471)
(0.000721056 -0.00031855 -1.90069e-05 0.000721056 1.03835e-18 0.000721056)
(0.000721056 -0.00031855 -1.90069e-05 0.000721056 5.0553e-18 0.000721056)
(0.000704905 -0.000311523 -1.88572e-05 0.000704905 8.00269e-19 0.000704905)
(0.000704905 -0.000311523 -1.88572e-05 0.000704905 5.15195e-18 0.000704905)
(0.000689016 -0.000304618 -1.87067e-05 0.000689016 5.34122e-19 0.000689016)
(0.000689016 -0.000304618 -1.87067e-05 0.000689016 5.34632e-18 0.000689016)
(0.000673389 -0.000297836 -1.85554e-05 0.000673389 2.22524e-19 0.000673389)
(0.000673389 -0.000297836 -1.85554e-05 0.000673389 5.45971e-18 0.000673389)
(0.000658019 -0.000291175 -1.84035e-05 0.000658019 2.56918e-19 0.000658019)
(0.000658019 -0.000291175 -1.84035e-05 0.000658019 5.42154e-18 0.000658019)
(0.000642906 -0.000284633 -1.82508e-05 0.000642906 8.62938e-20 0.000642906)
(0.000642906 -0.000284633 -1.82508e-05 0.000642906 5.57817e-18 0.000642906)
(0.000628047 -0.000278209 -1.80975e-05 0.000628047 1.07563e-19 0.000628047)
(0.000628047 -0.000278209 -1.80975e-05 0.000628047 5.7365e-18 0.000628047)
(0.000613439 -0.000271902 -1.79436e-05 0.000613439 -1.45906e-20 0.000613439)
(0.000613439 -0.000271902 -1.79436e-05 0.000613439 5.76418e-18 0.000613439)
(0.000599081 -0.000265711 -1.77892e-05 0.000599081 -2.81085e-19 0.000599081)
(0.000599081 -0.000265711 -1.77892e-05 0.000599081 5.93706e-18 0.000599081)
(0.00058497 -0.000259634 -1.76342e-05 0.00058497 -5.2768e-19 0.00058497)
(0.00058497 -0.000259634 -1.76342e-05 0.00058497 6.23188e-18 0.00058497)
(0.000571103 -0.000253669 -1.74788e-05 0.000571103 -6.23063e-19 0.000571103)
(0.000571103 -0.000253669 -1.74788e-05 0.000571103 6.30426e-18 0.000571103)
(0.000557479 -0.000247816 -1.73228e-05 0.000557479 -6.04776e-19 0.000557479)
(0.000557479 -0.000247816 -1.73228e-05 0.000557479 6.41804e-18 0.000557479)
(0.000544094 -0.000242073 -1.71665e-05 0.000544094 -8.95821e-19 0.000544094)
(0.000544094 -0.000242073 -1.71665e-05 0.000544094 6.66453e-18 0.000544094)
(0.000530947 -0.000236439 -1.70097e-05 0.000530947 -1.17298e-18 0.000530947)
(0.000530947 -0.000236439 -1.70097e-05 0.000530947 6.75841e-18 0.000530947)
(0.000518034 -0.000230911 -1.68526e-05 0.000518034 -1.28856e-18 0.000518034)
(0.000518034 -0.000230911 -1.68526e-05 0.000518034 6.8946e-18 0.000518034)
(0.000505354 -0.000225489 -1.66952e-05 0.000505354 -1.54067e-18 0.000505354)
(0.000505354 -0.000225489 -1.66952e-05 0.000505354 6.90533e-18 0.000505354)
(0.000492903 -0.000220172 -1.65374e-05 0.000492903 -1.63028e-18 0.000492903)
(0.000492903 -0.000220172 -1.65374e-05 0.000492903 6.97634e-18 0.000492903)
(0.00048068 -0.000214957 -1.63794e-05 0.00048068 -1.73994e-18 0.00048068)
(0.00048068 -0.000214957 -1.63794e-05 0.00048068 7.23346e-18 0.00048068)
(0.000468682 -0.000209844 -1.62211e-05 0.000468682 -1.9763e-18 0.000468682)
(0.000468682 -0.000209844 -1.62211e-05 0.000468682 7.46121e-18 0.000468682)
(0.000456907 -0.00020483 -1.60625e-05 0.000456907 -2.21723e-18 0.000456907)
(0.000456907 -0.00020483 -1.60625e-05 0.000456907 7.63847e-18 0.000456907)
(0.000445351 -0.000199915 -1.59038e-05 0.000445351 -2.36185e-18 0.000445351)
(0.000445351 -0.000199915 -1.59038e-05 0.000445351 7.67161e-18 0.000445351)
(0.000434013 -0.000195097 -1.57449e-05 0.000434013 -2.55279e-18 0.000434013)
(0.000434013 -0.000195097 -1.57449e-05 0.000434013 7.78702e-18 0.000434013)
(0.000422891 -0.000190375 -1.55859e-05 0.000422891 -2.52728e-18 0.000422891)
(0.000422891 -0.000190375 -1.55859e-05 0.000422891 7.96944e-18 0.000422891)
(0.000411981 -0.000185747 -1.54267e-05 0.000411981 -2.38624e-18 0.000411981)
(0.000411981 -0.000185747 -1.54267e-05 0.000411981 8.11675e-18 0.000411981)
(0.000401282 -0.000181212 -1.52675e-05 0.000401282 -2.69499e-18 0.000401282)
(0.000401282 -0.000181212 -1.52675e-05 0.000401282 8.46218e-18 0.000401282)
(0.00039079 -0.000176768 -1.51082e-05 0.00039079 -3.01473e-18 0.00039079)
(0.00039079 -0.000176768 -1.51082e-05 0.00039079 8.58423e-18 0.00039079)
(0.000380505 -0.000172414 -1.49488e-05 0.000380505 -3.20619e-18 0.000380505)
(0.000380505 -0.000172414 -1.49488e-05 0.000380505 8.59875e-18 0.000380505)
(0.000370424 -0.000168149 -1.47894e-05 0.000370424 -3.38553e-18 0.000370424)
(0.000370424 -0.000168149 -1.47894e-05 0.000370424 6.0941e-18 0.000370424)
(0.000360544 -0.000163971 -1.46299e-05 0.000360544 -3.60941e-18 0.000360544)
(0.000360544 -0.000163971 -1.46299e-05 0.000360544 2.89653e-18 0.000360544)
(0.000350864 -0.00015988 -1.44705e-05 0.000350864 -3.7027e-18 0.000350864)
(0.000350864 -0.00015988 -1.44705e-05 0.000350864 2.41579e-18 0.000350864)
(0.000341382 -0.000155872 -1.43112e-05 0.000341382 -3.33783e-18 0.000341382)
(0.000341382 -0.000155872 -1.43112e-05 0.000341382 2.34809e-18 0.000341382)
(0.000332095 -0.000151948 -1.41519e-05 0.000332095 -3.29646e-18 0.000332095)
(0.000332095 -0.000151948 -1.41519e-05 0.000332095 2.44444e-18 0.000332095)
(0.000323002 -0.000148106 -1.39927e-05 0.000323002 -3.77034e-18 0.000323002)
(0.000323002 -0.000148106 -1.39927e-05 0.000323002 2.80072e-18 0.000323002)
(0.000314101 -0.000144345 -1.38337e-05 0.000314101 -3.68441e-18 0.000314101)
(0.000314101 -0.000144345 -1.38337e-05 0.000314101 3.1714e-18 0.000314101)
(0.00030539 -0.000140663 -1.36748e-05 0.00030539 -3.26491e-18 0.00030539)
(0.00030539 -0.000140663 -1.36748e-05 0.00030539 3.13061e-18 0.00030539)
(0.000296868 -0.000137059 -1.3516e-05 0.000296868 -3.54241e-18 0.000296868)
(0.000296868 -0.000137059 -1.3516e-05 0.000296868 3.53744e-18 0.000296868)
(0.000288533 -0.000133533 -1.33575e-05 0.000288533 -4.10717e-18 0.000288533)
(0.000288533 -0.000133533 -1.33575e-05 0.000288533 5.39568e-18 0.000288533)