/*--------------------------------*- C++ -*----------------------------------*\
| =========                 |                                                 |
| \\      /  F ield         | OpenFOAM: The Open Source CFD Toolbox           |
|  \\    /   O peration     | Version:  2106                                  |
|   \\  /    A nd           | Website:  www.openfoam.com                      |
|    \\/     M anipulation  |                                                 |
\*---------------------------------------------------------------------------*/
FoamFile
{
    version     2.0;
    format      ascii;
    arch        "LSB;label=32;scalar=64";
    class       surfaceScalarField;
    location    "19000";
    object      phi;
}
// * * * * * * * * * * * * * * * * * * * * * * * * * * * * * * * * * * * * * //

dimensions      [0 3 -1 0 0 0 0];

oriented        oriented;

internalField   nonuniform List<scalar> 
5116
(
4.91116e-08
-9.14034e-18
-1.23922e-21
-2.60124e-21
-3.39216e-25
1.50187e-07
-9.13118e-18
-3.18144e-21
-8.12054e-21
-4.38943e-22
2.55657e-07
-9.12163e-18
-3.29739e-21
-1.39244e-20
-4.58253e-22
3.65669e-07
-9.11172e-18
-3.425e-21
-1.99191e-20
-4.7836e-22
4.80374e-07
-9.1016e-18
-3.55471e-21
-2.59906e-20
-4.99276e-22
5.99922e-07
-9.09106e-18
-3.68744e-21
-3.24104e-20
-5.20994e-22
7.24455e-07
-9.08018e-18
-3.8241e-21
-3.89181e-20
-5.43465e-22
8.54097e-07
-9.06869e-18
-3.96431e-21
-4.56471e-20
-5.6658e-22
9.88942e-07
-9.05665e-18
-4.10678e-21
-5.27335e-20
-5.90145e-22
1.12903e-06
-9.04465e-18
-4.24942e-21
-6.03019e-20
-6.13851e-22
1.27432e-06
-9.03212e-18
-4.38925e-21
-6.75313e-20
-6.37262e-22
1.42469e-06
-9.01911e-18
-4.52247e-21
-7.51998e-20
-6.59815e-22
1.57988e-06
-9.00595e-18
-4.64459e-21
-8.35373e-20
-6.80836e-22
1.73951e-06
-8.99214e-18
-4.7508e-21
-9.14062e-20
-6.99596e-22
1.90305e-06
-8.9783e-18
-4.8366e-21
-9.96831e-20
-7.15405e-22
2.06987e-06
-8.96431e-18
-4.89835e-21
-1.07676e-19
-7.27686e-22
2.23927e-06
-8.95051e-18
-4.93391e-21
-1.16082e-19
-7.36075e-22
2.41054e-06
-8.93556e-18
-4.94288e-21
-1.24545e-19
-7.4047e-22
2.58295e-06
-8.92189e-18
-4.92663e-21
-1.32795e-19
-7.41025e-22
2.75589e-06
-8.90687e-18
-4.88792e-21
-1.41836e-19
-7.38126e-22
2.92883e-06
-8.89305e-18
-4.83048e-21
-1.49548e-19
-7.32297e-22
3.10137e-06
-8.87989e-18
-4.7584e-21
-1.57197e-19
-7.24163e-22
3.27321e-06
-8.86691e-18
-4.67573e-21
-1.64723e-19
-7.14325e-22
3.44418e-06
-8.85424e-18
-4.58614e-21
-1.72457e-19
-7.03328e-22
3.6142e-06
-8.84018e-18
-4.49278e-21
-1.81605e-19
-6.91633e-22
3.78325e-06
-8.82649e-18
-4.39818e-21
-1.90089e-19
-6.7961e-22
3.95139e-06
-8.81449e-18
-4.30431e-21
-1.97839e-19
-6.67565e-22
4.11872e-06
-8.80274e-18
-4.21255e-21
-2.05092e-19
-6.55733e-22
4.28535e-06
-8.79116e-18
-4.12391e-21
-2.11943e-19
-6.44286e-22
4.45144e-06
-8.78026e-18
-4.03905e-21
-2.18495e-19
-6.33347e-22
4.61713e-06
-8.76949e-18
-3.95834e-21
-2.2518e-19
-6.22989e-22
4.78258e-06
-8.75898e-18
-3.88199e-21
-2.30762e-19
-6.13274e-22
4.94797e-06
-8.74895e-18
-3.81002e-21
-2.36865e-19
-6.04248e-22
5.11344e-06
-8.73964e-18
-3.74238e-21
-2.4278e-19
-5.95847e-22
5.27915e-06
-8.72987e-18
-3.67891e-21
-2.48315e-19
-5.88066e-22
5.44526e-06
-8.72074e-18
-3.6195e-21
-2.53951e-19
-5.80897e-22
5.61191e-06
-8.71058e-18
-3.56396e-21
-2.59133e-19
-5.74298e-22
5.77924e-06
-8.69921e-18
-3.51211e-21
-2.66509e-19
-5.68248e-22
5.94739e-06
-8.68857e-18
-3.46383e-21
-2.72822e-19
-5.62611e-22
6.11648e-06
-8.67756e-18
-3.41891e-21
-2.79836e-19
-5.57374e-22
6.28663e-06
-8.66671e-18
-3.37718e-21
-2.86129e-19
-5.52496e-22
6.45797e-06
-8.6552e-18
-3.33843e-21
-2.92607e-19
-5.47934e-22
6.6306e-06
-8.645e-18
-3.30255e-21
-2.99578e-19
-5.43616e-22
6.80463e-06
-8.63647e-18
-3.26938e-21
-3.03923e-19
-5.39508e-22
6.98018e-06
-8.62859e-18
-3.23866e-21
-3.08854e-19
-5.35655e-22
7.15732e-06
-8.62067e-18
-3.21026e-21
-3.13013e-19
-5.31957e-22
7.33617e-06
-8.61358e-18
-3.18403e-21
-3.17798e-19
-5.28461e-22
7.51682e-06
-8.60496e-18
-3.15977e-21
-3.22656e-19
-5.25147e-22
7.69935e-06
-8.59543e-18
-3.13742e-21
-3.29058e-19
-5.21928e-22
7.88385e-06
-8.58728e-18
-3.11696e-21
-3.31552e-19
-5.1877e-22
8.07042e-06
-8.57788e-18
-3.09827e-21
-3.3763e-19
-5.15761e-22
8.25912e-06
-8.56714e-18
-3.08118e-21
-3.43851e-19
-5.12775e-22
8.45005e-06
-8.5571e-18
-3.06569e-21
-3.49557e-19
-5.0983e-22
8.64328e-06
-8.54859e-18
-3.0516e-21
-3.55087e-19
-5.06853e-22
8.8389e-06
-8.53853e-18
-3.03878e-21
-3.6074e-19
-5.03824e-22
9.03697e-06
-8.52986e-18
-3.02728e-21
-3.65958e-19
-5.00668e-22
9.23758e-06
-8.52572e-18
-3.017e-21
-3.71052e-19
-4.97353e-22
9.44079e-06
-8.51869e-18
-3.0076e-21
-3.76757e-19
-4.9403e-22
9.6467e-06
-8.51035e-18
-2.99909e-21
-3.82013e-19
-4.90656e-22
9.85536e-06
-8.50244e-18
-2.99162e-21
-3.88512e-19
-4.87049e-22
1.00668e-05
-8.49327e-18
-2.98496e-21
-3.9619e-19
-4.83326e-22
1.02812e-05
-8.48517e-18
-2.97912e-21
-4.01566e-19
-4.79441e-22
1.04986e-05
-8.47599e-18
-2.97398e-21
-4.07008e-19
-4.75546e-22
1.0719e-05
-8.46702e-18
-2.96964e-21
-4.11106e-19
-4.71497e-22
1.09426e-05
-8.45967e-18
-2.966e-21
-4.14218e-19
-4.67336e-22
1.11693e-05
-8.45061e-18
-2.96317e-21
-4.1994e-19
-4.63026e-22
1.13993e-05
-8.44063e-18
-2.9609e-21
-4.24877e-19
-4.58378e-22
1.16327e-05
-8.42922e-18
-2.95921e-21
-4.32547e-19
-4.53729e-22
1.18695e-05
-8.42235e-18
-2.95829e-21
-4.3529e-19
-4.48673e-22
1.21097e-05
-8.41231e-18
-2.95819e-21
-4.36147e-19
-4.43194e-22
1.23535e-05
-8.4035e-18
-2.95902e-21
-4.39586e-19
-4.37661e-22
1.2601e-05
-8.39658e-18
-2.96086e-21
-4.42485e-19
-4.31849e-22
1.28521e-05
-8.3866e-18
-2.96371e-21
-4.46625e-19
-4.25654e-22
1.3107e-05
-8.37857e-18
-2.96776e-21
-4.49656e-19
-4.18792e-22
1.33658e-05
-8.36936e-18
-2.97275e-21
-4.54559e-19
-4.1139e-22
1.36285e-05
-8.35744e-18
-2.97895e-21
-4.59185e-19
-4.03102e-22
1.38953e-05
-8.35079e-18
-2.98657e-21
-4.62501e-19
-3.94139e-22
1.41661e-05
-8.34267e-18
-2.99505e-21
-4.67952e-19
-3.84937e-22
1.44411e-05
-8.33605e-18
-3.0044e-21
-4.73749e-19
-3.75413e-22
1.47203e-05
-8.3267e-18
-3.01451e-21
-4.79815e-19
-3.65398e-22
1.50038e-05
-8.31728e-18
-3.02576e-21
-4.853e-19
-3.54816e-22
1.52918e-05
-8.31298e-18
-3.03844e-21
-4.91698e-19
-3.4369e-22
1.55842e-05
-8.30488e-18
-3.05226e-21
-4.96888e-19
-3.31577e-22
1.58812e-05
-8.29434e-18
-3.06747e-21
-5.07255e-19
-3.18224e-22
1.61828e-05
-8.28067e-18
-3.08437e-21
-5.13334e-19
-3.03031e-22
1.64892e-05
-8.26462e-18
-3.10322e-21
-5.24195e-19
-2.86621e-22
1.68004e-05
-8.25489e-18
-3.12424e-21
-5.30544e-19
-2.69015e-22
1.71165e-05
-8.2442e-18
-3.147e-21
-5.39378e-19
-2.50131e-22
1.74376e-05
-8.23153e-18
-3.17151e-21
-5.48027e-19
-2.30387e-22
1.77638e-05
-8.22679e-18
-3.19788e-21
-5.52187e-19
-2.09217e-22
1.80952e-05
-8.21838e-18
-3.22544e-21
-5.55302e-19
-1.86943e-22
1.84318e-05
-8.21022e-18
-3.25459e-21
-5.58254e-19
-1.64084e-22
1.87738e-05
-8.19886e-18
-3.28497e-21
-5.63215e-19
-1.40253e-22
1.91212e-05
-8.18861e-18
-3.31685e-21
-5.69533e-19
-1.15434e-22
1.94742e-05
-8.17794e-18
-3.35006e-21
-5.76665e-19
-8.99126e-23
1.98328e-05
-8.17278e-18
-3.38495e-21
-5.82065e-19
-6.39194e-23
2.01971e-05
-8.15778e-18
-3.42029e-21
-5.90039e-19
-3.72589e-23
2.05673e-05
-8.14642e-18
-3.45731e-21
-5.98373e-19
-9.29551e-24
2.09434e-05
-8.14097e-18
-3.4964e-21
-6.02814e-19
2.07241e-23
2.13255e-05
-8.13015e-18
-3.5361e-21
-6.06102e-19
5.14628e-23
2.17138e-05
-8.12092e-18
-3.57766e-21
-6.139e-19
8.25468e-23
2.21083e-05
-8.10763e-18
-3.61995e-21
-6.21735e-19
1.14657e-22
2.25092e-05
-8.09455e-18
-3.66389e-21
-6.33219e-19
1.46938e-22
2.29166e-05
-8.08051e-18
-3.70987e-21
-6.44711e-19
1.81483e-22
2.33305e-05
-8.06657e-18
-3.75725e-21
-6.53128e-19
2.17599e-22
2.3751e-05
-8.05138e-18
-3.80813e-21
-6.66301e-19
2.54802e-22
2.41784e-05
-8.03357e-18
-3.86109e-21
-6.77799e-19
2.94124e-22
2.46127e-05
-8.01768e-18
-3.91693e-21
-6.90432e-19
3.34038e-22
2.5054e-05
-8.0088e-18
-3.97688e-21
-6.9807e-19
3.76552e-22
2.55024e-05
-7.99716e-18
-4.0397e-21
-7.02163e-19
4.20278e-22
2.59581e-05
-7.9834e-18
-4.10466e-21
-7.10785e-19
4.63395e-22
2.64212e-05
-7.96874e-18
-4.17278e-21
-7.16079e-19
5.08273e-22
2.68918e-05
-7.9593e-18
-4.24595e-21
-7.24445e-19
5.54397e-22
2.737e-05
-7.94524e-18
-4.32192e-21
-7.34932e-19
6.00152e-22
2.78559e-05
-7.93523e-18
-4.40091e-21
-7.47818e-19
6.46942e-22
2.83498e-05
-7.91826e-18
-4.48253e-21
-7.5877e-19
6.9406e-22
2.88517e-05
-7.90739e-18
-4.567e-21
-7.66915e-19
7.408e-22
2.93617e-05
-7.89138e-18
-4.65521e-21
-7.76221e-19
7.86547e-22
2.988e-05
-7.87623e-18
-4.74661e-21
-7.88125e-19
8.32672e-22
3.04067e-05
-7.86015e-18
-4.84093e-21
-7.97991e-19
8.79303e-22
3.0942e-05
-7.82912e-18
-4.93723e-21
-8.08049e-19
9.24593e-22
3.14859e-05
-7.80859e-18
-5.04034e-21
-8.16408e-19
9.67698e-22
3.20388e-05
-7.78996e-18
-5.14604e-21
-8.32771e-19
1.01114e-21
3.26006e-05
-7.76692e-18
-5.25373e-21
-8.44173e-19
1.05163e-21
3.31715e-05
-7.74678e-18
-5.36645e-21
-8.62779e-19
1.09241e-21
3.37518e-05
-7.71719e-18
-5.48588e-21
-8.83219e-19
1.13543e-21
3.43415e-05
-7.69501e-18
-5.61217e-21
-9.02692e-19
1.17964e-21
3.49408e-05
-7.66501e-18
-5.74213e-21
-9.13866e-19
1.22388e-21
3.55498e-05
-7.63758e-18
-5.87838e-21
-9.23374e-19
1.26502e-21
3.61688e-05
-7.61099e-18
-6.02264e-21
-9.44079e-19
1.30593e-21
3.67978e-05
-7.57935e-18
-6.17464e-21
-9.61546e-19
1.34933e-21
3.74371e-05
-7.54865e-18
-6.33956e-21
-9.82735e-19
1.3978e-21
3.80868e-05
-7.51431e-18
-6.5129e-21
-1.00128e-18
1.44751e-21
3.87471e-05
-7.49756e-18
-6.69727e-21
-1.01659e-18
1.49818e-21
3.94181e-05
-7.48082e-18
-6.88794e-21
-1.02547e-18
1.54893e-21
4.01001e-05
-7.4704e-18
-7.08467e-21
-1.04189e-18
1.60106e-21
4.07932e-05
-7.45439e-18
-7.28228e-21
-1.0547e-18
1.65196e-21
4.14975e-05
-7.44307e-18
-7.48388e-21
-1.06628e-18
1.7014e-21
4.22134e-05
-7.41693e-18
-7.68103e-21
-1.07532e-18
1.74731e-21
4.29409e-05
-7.3916e-18
-7.87846e-21
-1.08489e-18
1.78674e-21
4.36803e-05
-7.36689e-18
-8.07984e-21
-1.09876e-18
1.8148e-21
4.44317e-05
-7.33937e-18
-8.27231e-21
-1.11769e-18
1.83039e-21
4.51954e-05
-7.32317e-18
-8.46958e-21
-1.12957e-18
1.83433e-21
4.59715e-05
-7.29144e-18
-8.66159e-21
-1.14884e-18
1.82725e-21
4.67603e-05
-7.26096e-18
-8.8538e-21
-1.17049e-18
1.81568e-21
4.75619e-05
-7.22216e-18
-9.0456e-21
-1.19617e-18
1.79646e-21
4.83766e-05
-7.19129e-18
-9.24746e-21
-1.2158e-18
1.77227e-21
4.92046e-05
-7.16223e-18
-9.45883e-21
-1.23486e-18
1.74687e-21
5.00461e-05
-7.13333e-18
-9.67661e-21
-1.26136e-18
1.71475e-21
5.09012e-05
-7.09855e-18
-9.90366e-21
-1.28397e-18
1.68232e-21
5.17703e-05
-7.06719e-18
-1.01379e-20
-1.3039e-18
1.64426e-21
5.26536e-05
-7.02713e-18
-1.03799e-20
-1.33986e-18
1.60306e-21
5.35513e-05
-6.98676e-18
-1.06308e-20
-1.3659e-18
1.56381e-21
5.44636e-05
-6.93812e-18
-1.08945e-20
-1.40217e-18
1.52282e-21
5.53907e-05
-6.8966e-18
-1.11803e-20
-1.43384e-18
1.4905e-21
5.6333e-05
-6.85801e-18
-1.14809e-20
-1.46267e-18
1.46055e-21
5.72906e-05
-6.82073e-18
-1.17929e-20
-1.49529e-18
1.42547e-21
5.82638e-05
-6.78088e-18
-1.21119e-20
-1.52924e-18
1.39583e-21
5.92528e-05
-6.73766e-18
-1.24482e-20
-1.55674e-18
1.37536e-21
6.0258e-05
-6.68049e-18
-1.27905e-20
-1.59536e-18
1.34417e-21
6.12795e-05
-6.64107e-18
-1.3146e-20
-1.61698e-18
1.32839e-21
6.23177e-05
-6.60296e-18
-1.3493e-20
-1.64883e-18
1.31461e-21
6.33727e-05
-6.59129e-18
-1.38386e-20
-1.6615e-18
1.30364e-21
6.4445e-05
-6.55087e-18
-1.4152e-20
-1.68009e-18
1.26875e-21
6.55346e-05
-6.52484e-18
-1.44852e-20
-1.70658e-18
1.21743e-21
6.66421e-05
-6.49465e-18
-1.48075e-20
-1.72472e-18
1.1528e-21
6.77675e-05
-6.45579e-18
-1.51118e-20
-1.74366e-18
1.06876e-21
6.89113e-05
-6.43161e-18
-1.54111e-20
-1.7639e-18
9.54206e-22
7.00737e-05
-6.38981e-18
-1.56824e-20
-1.7849e-18
8.06859e-22
7.12549e-05
-6.35347e-18
-1.59342e-20
-1.82494e-18
6.13637e-22
7.24554e-05
-6.30506e-18
-1.61544e-20
-1.84431e-18
3.92135e-22
7.36755e-05
-6.25928e-18
-1.63658e-20
-1.85799e-18
1.28761e-22
7.49153e-05
-6.20946e-18
-1.6584e-20
-1.8846e-18
-1.59171e-22
7.61753e-05
-6.16994e-18
-1.67998e-20
-1.94411e-18
-4.82436e-22
7.74559e-05
-6.13337e-18
-1.6963e-20
-1.9531e-18
-8.04814e-22
7.87572e-05
-6.08683e-18
-1.70884e-20
-1.99387e-18
-1.18179e-21
8.00796e-05
-6.03421e-18
-1.71925e-20
-2.04217e-18
-1.57517e-21
8.14236e-05
-5.97997e-18
-1.72634e-20
-2.07254e-18
-1.99303e-21
8.27894e-05
-5.93065e-18
-1.73324e-20
-2.10646e-18
-2.42326e-21
8.41774e-05
-5.8824e-18
-1.74047e-20
-2.13431e-18
-2.85434e-21
8.55879e-05
-5.83758e-18
-1.74841e-20
-2.16831e-18
-3.31643e-21
8.70213e-05
-5.7899e-18
-1.75514e-20
-2.20525e-18
-3.80123e-21
8.84781e-05
-5.74195e-18
-1.76219e-20
-2.23309e-18
-4.24728e-21
8.99584e-05
-5.69047e-18
-1.77043e-20
-2.25997e-18
-4.63485e-21
9.14628e-05
-5.63696e-18
-1.7808e-20
-2.29178e-18
-5.00849e-21
9.29916e-05
-5.58423e-18
-1.79324e-20
-2.32634e-18
-5.37312e-21
9.45452e-05
-5.52944e-18
-1.80471e-20
-2.35542e-18
-5.72684e-21
9.6124e-05
-5.49389e-18
-1.81911e-20
-2.38072e-18
-6.09522e-21
9.77284e-05
-5.44882e-18
-1.831e-20
-2.41114e-18
-6.44744e-21
9.93589e-05
-5.39246e-18
-1.84411e-20
-2.44149e-18
-6.80753e-21
0.000101016
-5.34266e-18
-1.85714e-20
-2.44684e-18
-7.16412e-21
0.000102699
-5.30868e-18
-1.86893e-20
-2.46205e-18
-7.54115e-21
0.00010441
-5.25105e-18
-1.87844e-20
-2.49405e-18
-7.88141e-21
0.000106149
-5.1952e-18
-1.89319e-20
-2.52876e-18
-8.12965e-21
0.000107916
-5.1359e-18
-1.90969e-20
-2.53414e-18
-8.30012e-21
0.000109712
-5.0922e-18
-1.92785e-20
-2.55728e-18
-8.50665e-21
0.000111536
-5.04293e-18
-1.94594e-20
-2.57939e-18
-8.71747e-21
0.00011339
-4.98472e-18
-1.95564e-20
-2.61034e-18
-8.90023e-21
0.000115274
-4.93739e-18
-1.96934e-20
-2.62201e-18
-9.02586e-21
0.000117189
-4.88794e-18
-1.98356e-20
-2.64456e-18
-9.16427e-21
0.000119135
-4.82881e-18
-1.99444e-20
-2.6497e-18
-9.26596e-21
0.000121112
-4.78408e-18
-1.99985e-20
-2.68123e-18
-9.35065e-21
0.000123121
-4.74832e-18
-2.00245e-20
-2.7017e-18
-9.35541e-21
0.000125162
-4.70168e-18
-2.00164e-20
-2.71344e-18
-9.23308e-21
0.000127237
-4.6488e-18
-1.99969e-20
-2.69004e-18
-8.94645e-21
0.000129345
-4.59116e-18
-2.00008e-20
-2.69935e-18
-8.67242e-21
0.000131487
-4.55749e-18
-2.00587e-20
-2.70513e-18
-8.38341e-21
0.000133664
-4.49814e-18
-1.99993e-20
-2.71589e-18
-8.07477e-21
0.000135875
-4.43502e-18
-1.99982e-20
-2.72354e-18
-7.71424e-21
0.000138123
-4.41624e-18
-2.00922e-20
-2.70836e-18
-7.3121e-21
0.000140407
-4.37615e-18
-2.01089e-20
-2.6859e-18
-6.93742e-21
0.000142727
-4.31982e-18
-2.01051e-20
-2.69478e-18
-6.7793e-21
0.000145085
-4.26959e-18
-2.02149e-20
-2.7074e-18
-6.65922e-21
0.000147481
-4.24592e-18
-2.03026e-20
-2.66631e-18
-6.43986e-21
0.000149916
-4.21192e-18
-2.03148e-20
-2.67128e-18
-6.39373e-21
0.00015239
-4.15802e-18
-2.00874e-20
-2.6884e-18
-6.38946e-21
0.000154904
-4.13198e-18
-1.99093e-20
-2.68769e-18
-6.31675e-21
0.000157458
-4.07607e-18
-1.96159e-20
-2.69341e-18
-6.43307e-21
0.000160053
-4.02597e-18
-1.94747e-20
-2.69859e-18
-6.52661e-21
0.00016269
-3.97811e-18
-1.9383e-20
-2.70487e-18
-6.48416e-21
0.00016537
-3.94919e-18
-1.92144e-20
-2.72456e-18
-6.3065e-21
0.000168092
-3.89668e-18
-1.88266e-20
-2.7147e-18
-6.12755e-21
0.000170859
-3.88598e-18
-1.85542e-20
-2.72238e-18
-6.0034e-21
0.000173669
-3.84432e-18
-1.82196e-20
-2.71954e-18
-5.85452e-21
0.000176525
-3.80722e-18
-1.78567e-20
-2.69171e-18
-5.7967e-21
0.000179427
-3.78365e-18
-1.73815e-20
-2.71011e-18
-5.88667e-21
0.000182375
-3.71733e-18
-1.66492e-20
-2.73185e-18
-5.57151e-21
0.000185371
-3.67485e-18
-1.62953e-20
-2.71314e-18
-5.167e-21
0.000188415
-3.64385e-18
-1.59911e-20
-2.70313e-18
-4.97285e-21
0.000191507
-3.62273e-18
-1.56867e-20
-2.7058e-18
-4.9575e-21
0.000194649
-3.56865e-18
-1.5149e-20
-2.69873e-18
-5.15876e-21
0.000197841
-3.53269e-18
-1.48611e-20
-2.69787e-18
-5.19652e-21
0.000201084
-3.52693e-18
-1.46731e-20
-2.66413e-18
-5.15276e-21
0.00020438
-3.49692e-18
-1.44576e-20
-2.63462e-18
-5.26844e-21
0.000207727
-3.47189e-18
-1.43223e-20
-2.64102e-18
-5.44743e-21
0.000211129
-3.44065e-18
-1.41481e-20
-2.59303e-18
-5.38063e-21
0.000214584
-3.439e-18
-1.4197e-20
-2.58981e-18
-5.31525e-21
0.000218095
-3.40595e-18
-1.39385e-20
-2.57228e-18
-5.22757e-21
0.000221662
-3.37648e-18
-1.39085e-20
-2.57033e-18
-5.2489e-21
0.000225286
-3.3793e-18
-1.38337e-20
-2.53948e-18
-4.91634e-21
0.000228967
-3.31437e-18
-1.34578e-20
-2.54868e-18
-4.58282e-21
0.000232707
-3.30303e-18
-1.34645e-20
-2.50969e-18
-4.43562e-21
0.000236507
-3.27684e-18
-1.31787e-20
-2.49257e-18
-4.68442e-21
0.000240367
-3.27094e-18
-1.30404e-20
-2.44524e-18
-4.87342e-21
0.000244288
-3.19028e-18
-1.28202e-20
-2.49617e-18
-5.08486e-21
0.000248272
-3.11005e-18
-1.2982e-20
-2.47856e-18
-4.60767e-21
0.000252319
-3.03224e-18
-1.23613e-20
-2.48032e-18
-4.73834e-21
0.00025643
-2.9083e-18
-1.15406e-20
-2.41723e-18
-5.49568e-21
0.000260606
-2.84313e-18
-1.16236e-20
-2.46078e-18
-6.10841e-21
0.000264849
-2.82335e-18
-1.23241e-20
-2.37834e-18
-5.38021e-21
0.000269158
-2.74225e-18
-1.2568e-20
-2.40673e-18
-5.18595e-21
0.000273536
-2.6993e-18
-1.32865e-20
-2.29431e-18
-4.15582e-21
0.000277983
-2.62964e-18
-1.35301e-20
-2.32468e-18
-4.38292e-21
0.0002825
-2.61724e-18
-1.40726e-20
-2.23099e-18
-4.16288e-21
0.000287088
-2.62667e-18
-1.38596e-20
-2.22331e-18
-5.38047e-21
0.000291748
-2.55869e-18
-1.26331e-20
-2.22592e-18
-7.01952e-21
0.000296482
-2.51583e-18
-1.20353e-20
-2.26029e-18
-8.8693e-21
0.000301291
-2.43166e-18
-1.18145e-20
-2.21861e-18
-9.46905e-21
0.000306174
-2.40882e-18
-1.11166e-20
-2.21849e-18
-9.75651e-21
0.000311135
-2.36327e-18
-9.36517e-21
-2.22434e-18
-9.9808e-21
0.000316173
-2.34204e-18
-8.75495e-21
-2.2146e-18
-1.0037e-20
0.00032129
-2.30518e-18
-7.82057e-21
-2.23015e-18
-9.33452e-21
0.000326487
-2.32382e-18
-7.11094e-21
-2.22826e-18
-8.31477e-21
0.000331765
-2.26915e-18
-6.27468e-21
-2.19532e-18
-7.90068e-21
0.000337126
-2.26172e-18
-5.91045e-21
-2.17858e-18
-7.77964e-21
0.00034257
-2.18557e-18
-5.75581e-21
-2.17429e-18
-7.02654e-21
0.000348098
-2.17653e-18
-6.53792e-21
-2.12876e-18
-6.51995e-21
0.000353713
-2.15458e-18
-6.39215e-21
-2.10915e-18
-6.62394e-21
0.000359414
-2.06904e-18
-6.15497e-21
-2.08014e-18
-6.36589e-21
0.000365204
-1.94171e-18
-6.77778e-21
-2.20242e-18
-5.27053e-21
0.000371084
-1.94797e-18
-7.44116e-21
-2.20274e-18
-2.37047e-21
0.000377054
-1.98529e-18
-7.52737e-21
-2.08848e-18
-3.04831e-22
0.000383116
-2.0073e-18
-6.37369e-21
-2.0993e-18
1.49177e-21
0.000389271
-2.05003e-18
-4.68608e-21
-2.0231e-18
4.1837e-21
0.000395521
-1.99405e-18
-2.63495e-21
-1.90101e-18
6.65255e-21
0.000401866
-1.98316e-18
-7.5346e-22
-1.90054e-18
5.80795e-21
0.000408308
-1.90714e-18
1.02885e-21
-1.91657e-18
4.84483e-21
0.000414849
-1.99539e-18
1.02611e-21
-1.85164e-18
5.73782e-21
0.000421489
-1.94763e-18
2.9254e-21
-1.90131e-18
4.85027e-21
0.000428229
-1.99811e-18
4.42599e-21
-1.95504e-18
6.41276e-21
0.000435072
-1.99546e-18
4.08508e-21
-1.91123e-18
9.86124e-21
0.000442018
-1.96726e-18
3.62274e-21
-1.94864e-18
1.0907e-20
0.000449069
-2.02374e-18
1.97483e-21
-1.98068e-18
9.93022e-21
0.000456225
-2.02087e-18
1.31075e-21
-2.00564e-18
8.00814e-21
0.000463488
-2.02298e-18
6.03277e-22
-2.02858e-18
6.68478e-21
0.00047086
-2.05965e-18
-2.20565e-21
-2.06202e-18
5.72963e-21
0.000478341
-2.06131e-18
-5.85816e-21
-2.08051e-18
3.30561e-21
0.000485933
-2.03449e-18
-1.03908e-20
-2.0782e-18
2.81709e-22
0.000493636
-1.97468e-18
-1.0144e-20
-2.00374e-18
-1.44701e-21
0.000501453
-1.93906e-18
-8.90241e-21
-1.95854e-18
-5.07897e-21
0.000509384
-1.89635e-18
-1.36284e-20
-2.00034e-18
-6.67281e-21
0.000517431
-1.93315e-18
-1.61386e-20
-1.82172e-18
-6.72066e-21
0.000525593
-1.78269e-18
-1.44994e-20
-1.81174e-18
-9.48544e-21
0.000533874
-1.68982e-18
-1.51463e-20
-1.76219e-18
-1.01992e-20
0.000542273
-1.77608e-18
-1.87948e-20
-1.72802e-18
-1.1824e-20
0.000550791
-1.67583e-18
-1.29775e-20
-1.67255e-18
-1.39555e-20
0.00055943
-1.60098e-18
-1.10792e-20
-1.6539e-18
-1.4224e-20
0.00056819
-1.47319e-18
-1.0715e-20
-1.66076e-18
-1.16943e-20
0.000577072
-1.39629e-18
-7.72532e-21
-1.69053e-18
-6.66033e-21
0.000586077
-1.52584e-18
-1.15009e-20
-1.4098e-18
-4.8782e-21
0.000595206
-1.55181e-18
-1.35941e-20
-1.50386e-18
-8.59918e-21
0.000604458
-1.60617e-18
-9.53641e-21
-1.51284e-18
-5.87109e-21
0.000613835
-1.70985e-18
-4.31715e-21
-1.52145e-18
-6.52907e-21
0.000623337
-1.59884e-18
-1.25946e-21
-1.53845e-18
-1.21767e-20
0.000632964
-1.65548e-18
-7.58938e-21
-1.5631e-18
-1.30246e-20
0.000642716
-1.58278e-18
-6.66682e-21
-1.49075e-18
-1.599e-20
0.000652593
-1.55591e-18
-9.12804e-21
-1.534e-18
-2.01861e-20
0.000662595
-1.51595e-18
-1.34526e-20
-1.43313e-18
-2.1911e-20
0.000672721
-1.47435e-18
-1.6011e-20
-1.27727e-18
-2.34627e-20
0.000682972
-1.34474e-18
-2.7133e-21
-1.50113e-18
-3.30907e-20
0.000693345
-1.21731e-18
-1.10072e-21
-1.42374e-18
-2.34253e-20
0.000703841
-1.23261e-18
-8.12802e-21
-1.42575e-18
-1.91858e-20
0.000714458
-1.38282e-18
-1.29801e-20
-1.29485e-18
-1.80469e-20
0.000725194
-1.32624e-18
-1.31243e-20
-1.30132e-18
-2.00766e-20
0.000736049
-1.45466e-18
-2.20508e-20
-1.32066e-18
-1.58886e-20
0.00074702
-1.37646e-18
-1.70846e-20
-1.35103e-18
-1.20444e-20
0.000758105
-1.33251e-18
-1.85202e-20
-1.38687e-18
1.85749e-21
0.000769302
-1.20654e-18
-6.41079e-21
-1.14871e-18
1.15949e-20
0.000780608
-1.17089e-18
-3.68603e-21
-1.17834e-18
6.42384e-21
0.000792021
-1.27015e-21
-1.17168e-18
3.67506e-21
-1.15365e-18
4.91116e-08
-1.12263e-21
-1.13983e-22
1.50187e-07
-3.80878e-21
-1.04187e-21
2.55657e-07
-6.57633e-21
-1.9663e-21
3.65669e-07
-9.51406e-21
-2.88093e-21
4.80374e-07
-1.25515e-20
-3.93904e-21
5.99922e-07
-1.56447e-20
-5.08288e-21
7.24455e-07
-1.88743e-20
-6.25751e-21
8.54097e-07
-2.21913e-20
-7.29639e-21
9.88942e-07
-2.55557e-20
-8.56457e-21
1.12903e-06
-2.9182e-20
-9.95091e-21
1.27432e-06
-3.30064e-20
-1.11898e-20
1.42469e-06
-3.65801e-20
-1.27956e-20
1.57988e-06
-4.0379e-20
-1.45896e-20
1.73951e-06
-4.43213e-20
-1.6269e-20
1.90305e-06
-4.8479e-20
-1.79429e-20
2.06987e-06
-5.28444e-20
-1.90932e-20
2.23927e-06
-5.69478e-20
-2.03036e-20
2.41054e-06
-6.18018e-20
-2.13275e-20
2.58295e-06
-6.59382e-20
-2.23153e-20
2.75589e-06
-7.02175e-20
-2.35226e-20
2.92883e-06
-7.39462e-20
-2.49805e-20
3.10137e-06
-7.78471e-20
-2.64963e-20
3.27321e-06
-8.10933e-20
-2.77854e-20
3.44418e-06
-8.56309e-20
-2.86715e-20
3.6142e-06
-8.93052e-20
-2.97221e-20
3.78325e-06
-9.37066e-20
-3.04493e-20
3.95139e-06
-9.7996e-20
-3.13963e-20
4.11872e-06
-1.01855e-19
-3.26516e-20
4.28535e-06
-1.05172e-19
-3.42593e-20
4.45144e-06
-1.08537e-19
-3.57556e-20
4.61713e-06
-1.12123e-19
-3.7718e-20
4.78258e-06
-1.15443e-19
-3.97067e-20
4.94797e-06
-1.1902e-19
-4.05009e-20
5.11344e-06
-1.21141e-19
-4.17237e-20
5.27915e-06
-1.23915e-19
-4.24639e-20
5.44526e-06
-1.26385e-19
-4.32405e-20
5.61191e-06
-1.2808e-19
-4.55326e-20
5.77924e-06
-1.307e-19
-4.7138e-20
5.94739e-06
-1.33592e-19
-4.80482e-20
6.11648e-06
-1.36386e-19
-4.86478e-20
6.28663e-06
-1.38466e-19
-4.96338e-20
6.45797e-06
-1.42502e-19
-5.07312e-20
6.6306e-06
-1.4746e-19
-5.13446e-20
6.80463e-06
-1.4971e-19
-5.21558e-20
6.98018e-06
-1.52001e-19
-5.15913e-20
7.15732e-06
-1.55086e-19
-5.20939e-20
7.33617e-06
-1.57202e-19
-5.34535e-20
7.51682e-06
-1.59569e-19
-5.29227e-20
7.69935e-06
-1.63759e-19
-5.30228e-20
7.88385e-06
-1.69376e-19
-5.25963e-20
8.07042e-06
-1.71251e-19
-5.30348e-20
8.25912e-06
-1.73983e-19
-5.48654e-20
8.45005e-06
-1.75599e-19
-5.49815e-20
8.64328e-06
-1.77816e-19
-5.37209e-20
8.8389e-06
-1.8054e-19
-5.19439e-20
9.03697e-06
-1.83438e-19
-5.14309e-20
9.23758e-06
-1.84895e-19
-5.41973e-20
9.44079e-06
-1.84969e-19
-5.70429e-20
9.6467e-06
-1.88479e-19
-5.59828e-20
9.85536e-06
-1.89507e-19
-5.8182e-20
1.00668e-05
-1.90921e-19
-5.99874e-20
1.02812e-05
-1.92597e-19
-6.13934e-20
1.04986e-05
-1.95998e-19
-6.23114e-20
1.0719e-05
-1.98161e-19
-6.53906e-20
1.09426e-05
-2.05314e-19
-6.60501e-20
1.11693e-05
-2.07652e-19
-6.48804e-20
1.13993e-05
-2.0917e-19
-6.77307e-20
1.16327e-05
-2.11311e-19
-6.7999e-20
1.18695e-05
-2.16953e-19
-6.53794e-20
1.21097e-05
-2.19467e-19
-6.68563e-20
1.23535e-05
-2.21556e-19
-6.78709e-20
1.2601e-05
-2.2357e-19
-6.88157e-20
1.28521e-05
-2.25637e-19
-6.86067e-20
1.3107e-05
-2.26361e-19
-6.97044e-20
1.33658e-05
-2.29473e-19
-6.81383e-20
1.36285e-05
-2.3392e-19
-6.76531e-20
1.38953e-05
-2.36504e-19
-6.93618e-20
1.41661e-05
-2.37253e-19
-7.19469e-20
1.44411e-05
-2.37916e-19
-7.31426e-20
1.47203e-05
-2.39598e-19
-7.43818e-20
1.50038e-05
-2.44773e-19
-7.57999e-20
1.52918e-05
-2.50625e-19
-7.6128e-20
1.55842e-05
-2.52473e-19
-7.72e-20
1.58812e-05
-2.53804e-19
-7.78853e-20
1.61828e-05
-2.54258e-19
-7.77305e-20
1.64892e-05
-2.54315e-19
-7.8845e-20
1.68004e-05
-2.57115e-19
-7.3714e-20
1.71165e-05
-2.60187e-19
-7.61316e-20
1.74376e-05
-2.6168e-19
-7.51579e-20
1.77638e-05
-2.65399e-19
-7.25938e-20
1.80952e-05
-2.70137e-19
-7.28688e-20
1.84318e-05
-2.71371e-19
-7.26801e-20
1.87738e-05
-2.71563e-19
-7.41833e-20
1.91212e-05
-2.72376e-19
-7.44115e-20
1.94742e-05
-2.75763e-19
-7.64358e-20
1.98328e-05
-2.76255e-19
-7.87172e-20
2.01971e-05
-2.77778e-19
-8.08356e-20
2.05673e-05
-2.85996e-19
-7.69986e-20
2.09434e-05
-2.87474e-19
-7.58527e-20
2.13255e-05
-2.9168e-19
-7.67426e-20
2.17138e-05
-2.91323e-19
-7.83485e-20
2.21083e-05
-2.92147e-19
-8.37249e-20
2.25092e-05
-2.95789e-19
-7.98748e-20
2.29166e-05
-2.92348e-19
-7.69181e-20
2.33305e-05
-2.97917e-19
-7.35271e-20
2.3751e-05
-2.94206e-19
-7.2116e-20
2.41784e-05
-2.91298e-19
-7.5475e-20
2.46127e-05
-2.93127e-19
-7.22985e-20
2.5054e-05
-2.93714e-19
-7.4215e-20
2.55024e-05
-2.90106e-19
-7.88921e-20
2.59581e-05
-2.9021e-19
-7.79864e-20
2.64212e-05
-2.9758e-19
-7.47918e-20
2.68918e-05
-2.99805e-19
-7.85087e-20
2.737e-05
-2.99694e-19
-7.81939e-20
2.78559e-05
-3.03454e-19
-8.13515e-20
2.83498e-05
-3.02058e-19
-8.28133e-20
2.88517e-05
-3.09672e-19
-8.3341e-20
2.93617e-05
-3.10479e-19
-8.17699e-20
2.988e-05
-3.13711e-19
-8.20389e-20
3.04067e-05
-3.14408e-19
-8.38732e-20
3.0942e-05
-3.21438e-19
-8.93769e-20
3.14859e-05
-3.26333e-19
-8.00323e-20
3.20388e-05
-3.30014e-19
-8.58784e-20
3.26006e-05
-3.34748e-19
-8.00329e-20
3.31715e-05
-3.42431e-19
-7.84857e-20
3.37518e-05
-3.40421e-19
-8.05382e-20
3.43415e-05
-3.39027e-19
-8.35452e-20
3.49408e-05
-3.38832e-19
-8.92691e-20
3.55498e-05
-3.45575e-19
-9.04062e-20
3.61688e-05
-3.50625e-19
-9.5791e-20
3.67978e-05
-3.63043e-19
-8.73445e-20
3.74371e-05
-3.64227e-19
-8.97832e-20
3.80868e-05
-3.6729e-19
-8.96433e-20
3.87471e-05
-3.73183e-19
-9.30901e-20
3.94181e-05
-3.79727e-19
-8.54622e-20
4.01001e-05
-3.81667e-19
-8.68373e-20
4.07932e-05
-3.86777e-19
-8.7541e-20
4.14975e-05
-3.82075e-19
-9.10081e-20
4.22134e-05
-3.79003e-19
-8.74126e-20
4.29409e-05
-3.87347e-19
-8.9052e-20
4.36803e-05
-3.71703e-19
-9.78041e-20
4.44317e-05
-3.82646e-19
-1.04824e-19
4.51954e-05
-3.87581e-19
-1.05569e-19
4.59715e-05
-3.92621e-19
-1.08076e-19
4.67603e-05
-3.96847e-19
-1.13259e-19
4.75619e-05
-4.08011e-19
-1.16348e-19
4.83766e-05
-4.21211e-19
-1.1038e-19
4.92046e-05
-4.24996e-19
-1.16979e-19
5.00461e-05
-4.33742e-19
-1.23331e-19
5.09012e-05
-4.35898e-19
-1.28825e-19
5.17703e-05
-4.40275e-19
-1.31293e-19
5.26536e-05
-4.37353e-19
-1.41399e-19
5.35513e-05
-4.40917e-19
-1.42317e-19
5.44636e-05
-4.47518e-19
-1.4293e-19
5.53907e-05
-4.50213e-19
-1.41812e-19
5.6333e-05
-4.55215e-19
-1.44352e-19
5.72906e-05
-4.59521e-19
-1.45717e-19
5.82638e-05
-4.73683e-19
-1.45459e-19
5.92528e-05
-4.75164e-19
-1.54176e-19
6.0258e-05
-4.8485e-19
-1.46396e-19
6.12795e-05
-4.89851e-19
-1.52158e-19
6.23177e-05
-4.99802e-19
-1.61852e-19
6.33727e-05
-4.9537e-19
-1.73306e-19
6.4445e-05
-5.12596e-19
-1.83201e-19
6.55346e-05
-5.18889e-19
-1.96977e-19
6.66421e-05
-5.23567e-19
-2.04277e-19
6.77675e-05
-5.3291e-19
-2.1194e-19
6.89113e-05
-5.38074e-19
-2.16978e-19
7.00737e-05
-5.41082e-19
-2.29641e-19
7.12549e-05
-5.51028e-19
-2.39583e-19
7.24554e-05
-5.76332e-19
-2.5007e-19
7.36755e-05
-6.06832e-19
-2.43801e-19
7.49153e-05
-6.18326e-19
-2.56005e-19
7.61753e-05
-6.07913e-19
-2.70374e-19
7.74559e-05
-6.1506e-19
-2.86631e-19
7.87572e-05
-6.25713e-19
-2.98333e-19
8.00796e-05
-6.26248e-19
-3.07363e-19
8.14236e-05
-6.42308e-19
-3.09613e-19
8.27894e-05
-6.57267e-19
-3.19938e-19
8.41774e-05
-6.70324e-19
-3.31886e-19
8.55879e-05
-6.68546e-19
-3.49907e-19
8.70213e-05
-6.68234e-19
-3.51742e-19
8.84781e-05
-6.7506e-19
-3.51979e-19
8.99584e-05
-6.88514e-19
-3.75571e-19
9.14628e-05
-7.04862e-19
-3.92997e-19
9.29916e-05
-7.12376e-19
-4.13952e-19
9.45452e-05
-7.40761e-19
-4.40905e-19
9.6124e-05
-7.56465e-19
-4.39822e-19
9.77284e-05
-7.81606e-19
-4.54313e-19
9.93589e-05
-7.87938e-19
-4.65809e-19
0.000101016
-7.91318e-19
-4.69909e-19
0.000102699
-8.07033e-19
-4.66821e-19
0.00010441
-8.36156e-19
-4.6886e-19
0.000106149
-8.44937e-19
-4.79903e-19
0.000107916
-8.4759e-19
-4.9929e-19
0.000109712
-8.59205e-19
-5.25814e-19
0.000111536
-8.34867e-19
-5.44361e-19
0.00011339
-8.48817e-19
-5.52088e-19
0.000115274
-8.5071e-19
-5.73541e-19
0.000117189
-8.40056e-19
-5.86029e-19
0.000119135
-8.19489e-19
-5.83467e-19
0.000121112
-8.24012e-19
-5.95264e-19
0.000123121
-8.33105e-19
-5.98868e-19
0.000125162
-8.39181e-19
-5.97555e-19
0.000127237
-8.52354e-19
-6.0189e-19
0.000129345
-8.72954e-19
-6.12812e-19
0.000131487
-8.65381e-19
-6.28422e-19
0.000133664
-8.81734e-19
-6.36342e-19
0.000135875
-8.99364e-19
-6.50447e-19
0.000138123
-9.13114e-19
-6.71144e-19
0.000140407
-9.30925e-19
-7.04755e-19
0.000142727
-9.78113e-19
-7.14912e-19
0.000145085
-9.95675e-19
-7.20933e-19
0.000147481
-1.01938e-18
-7.35498e-19
0.000149916
-9.94133e-19
-7.52956e-19
0.00015239
-1.01993e-18
-7.52624e-19
0.000154904
-1.02021e-18
-7.87131e-19
0.000157458
-1.05174e-18
-7.93723e-19
0.000160053
-1.07315e-18
-7.97927e-19
0.00016269
-1.0644e-18
-7.89533e-19
0.00016537
-1.03675e-18
-8.04792e-19
0.000168092
-1.04401e-18
-8.22758e-19
0.000170859
-1.05673e-18
-8.31382e-19
0.000173669
-1.05164e-18
-8.1752e-19
0.000176525
-1.04131e-18
-8.28196e-19
0.000179427
-1.02061e-18
-8.31142e-19
0.000182375
-1.06634e-18
-8.62743e-19
0.000185371
-1.07594e-18
-8.65233e-19
0.000188415
-1.08358e-18
-8.74494e-19
0.000191507
-1.05651e-18
-9.2026e-19
0.000194649
-1.07245e-18
-9.04165e-19
0.000197841
-1.08989e-18
-9.04547e-19
0.000201084
-1.1144e-18
-9.08507e-19
0.00020438
-1.12322e-18
-9.24867e-19
0.000207727
-1.115e-18
-9.63652e-19
0.000211129