/*--------------------------------*- C++ -*----------------------------------*\
| =========                 |                                                 |
| \\      /  F ield         | OpenFOAM: The Open Source CFD Toolbox           |
|  \\    /   O peration     | Version:  2106                                  |
|   \\  /    A nd           | Website:  www.openfoam.com                      |
|    \\/     M anipulation  |                                                 |
\*---------------------------------------------------------------------------*/
FoamFile
{
    version     2.0;
    format      ascii;
    arch        "LSB;label=32;scalar=64";
    class       volSymmTensorField;
    location    "19000";
    object      turbulenceProperties:R;
}
// * * * * * * * * * * * * * * * * * * * * * * * * * * * * * * * * * * * * * //

dimensions      [0 2 -2 0 0 0 0];

internalField   nonuniform List<symmTensor> 
2560
(
(1.00302e-06 -3.98083e-10 -5.76278e-13 1.00302e-06 4.73862e-24 1.00302e-06)
(1.00302e-06 -3.98083e-10 -5.76278e-13 1.00302e-06 -8.65396e-29 1.00302e-06)
(2.33773e-07 -5.33209e-10 -2.32701e-12 2.33773e-07 6.51822e-25 2.33773e-07)
(2.33773e-07 -5.33209e-10 -2.32701e-12 2.33773e-07 1.93913e-28 2.33773e-07)
(6.67735e-07 -4.49204e-09 -2.69638e-11 6.67735e-07 3.18799e-24 6.67735e-07)
(6.67735e-07 -4.49204e-09 -2.69638e-11 6.67735e-07 1.66845e-27 6.67735e-07)
(2.3181e-06 -3.30558e-08 -2.01302e-10 2.3181e-06 2.29625e-23 2.3181e-06)
(2.3181e-06 -3.30558e-08 -2.01302e-10 2.3181e-06 1.3557e-26 2.3181e-06)
(6.03035e-06 -1.51571e-07 -9.36418e-10 6.03035e-06 9.40328e-23 6.03035e-06)
(6.03035e-06 -1.51571e-07 -9.36418e-10 6.03035e-06 9.73937e-26 6.03035e-06)
(1.28848e-05 -5.08947e-07 -3.18975e-09 1.28848e-05 3.17783e-22 1.28848e-05)
(1.28848e-05 -5.08947e-07 -3.18975e-09 1.28848e-05 4.63706e-25 1.28848e-05)
(2.41381e-05 -1.38618e-06 -8.81248e-09 2.41381e-05 8.69267e-22 2.41381e-05)
(2.41381e-05 -1.38618e-06 -8.81248e-09 2.41381e-05 1.62827e-24 2.41381e-05)
(4.12e-05 -3.25056e-06 -2.0959e-08 4.12e-05 2.0344e-21 4.12e-05)
(4.12e-05 -3.25056e-06 -2.0959e-08 4.12e-05 4.79489e-24 4.12e-05)
(6.56041e-05 -6.80736e-06 -4.45084e-08 6.56041e-05 4.19174e-21 6.56041e-05)
(6.56041e-05 -6.80736e-06 -4.45084e-08 6.56041e-05 1.22516e-23 6.56041e-05)
(9.8958e-05 -1.30347e-05 -8.63972e-08 9.8958e-05 7.7458e-21 9.8958e-05)
(9.8958e-05 -1.30347e-05 -8.63972e-08 9.8958e-05 2.63758e-23 9.8958e-05)
(0.000142865 -2.31814e-05 -1.55715e-07 0.000142865 1.2954e-20 0.000142865)
(0.000142865 -2.31814e-05 -1.55715e-07 0.000142865 5.34645e-23 0.000142865)
(0.000198814 -3.87056e-05 -2.63386e-07 0.000198814 1.96253e-20 0.000198814)
(0.000198814 -3.87056e-05 -2.63386e-07 0.000198814 1.07987e-22 0.000198814)
(0.000268035 -6.11383e-05 -4.21297e-07 0.000268035 2.67435e-20 0.000268035)
(0.000268035 -6.11383e-05 -4.21297e-07 0.000268035 1.99035e-22 0.000268035)
(0.000351342 -9.18772e-05 -6.40879e-07 0.000351342 3.21803e-20 0.000351342)
(0.000351342 -9.18772e-05 -6.40879e-07 0.000351342 3.50257e-22 0.000351342)
(0.000448981 -0.000131942 -9.31351e-07 0.000448981 3.26922e-20 0.000448981)
(0.000448981 -0.000131942 -9.31351e-07 0.000448981 5.9705e-22 0.000448981)
(0.000560527 -0.000181754 -1.29806e-06 0.000560527 2.437e-20 0.000560527)
(0.000560527 -0.000181754 -1.29806e-06 0.000560527 9.31403e-22 0.000560527)
(0.000684853 -0.000241005 -1.74137e-06 0.000684853 6.5353e-22 0.000684853)
(0.000684853 -0.000241005 -1.74137e-06 0.000684853 1.37119e-21 0.000684853)
(0.000820198 -0.000308662 -2.25656e-06 0.000820198 -3.00371e-20 0.000820198)
(0.000820198 -0.000308662 -2.25656e-06 0.000820198 1.99279e-21 0.000820198)
(0.000964314 -0.00038311 -2.83453e-06 0.000964314 -8.31794e-20 0.000964314)
(0.000964314 -0.00038311 -2.83453e-06 0.000964314 2.8373e-21 0.000964314)
(0.00111468 -0.000462382 -3.46332e-06 0.00111468 -1.47598e-19 0.00111468)
(0.00111468 -0.000462382 -3.46332e-06 0.00111468 3.88627e-21 0.00111468)
(0.0012687 -0.000544423 -4.12973e-06 0.0012687 -2.21799e-19 0.0012687)
(0.0012687 -0.000544423 -4.12973e-06 0.0012687 5.26312e-21 0.0012687)
(0.00142394 -0.000627302 -4.82086e-06 0.00142394 -3.01255e-19 0.00142394)
(0.00142394 -0.000627302 -4.82086e-06 0.00142394 6.75664e-21 0.00142394)
(0.00157821 -0.000709365 -5.52513e-06 0.00157821 -3.8102e-19 0.00157821)
(0.00157821 -0.000709365 -5.52513e-06 0.00157821 8.42418e-21 0.00157821)
(0.00172969 -0.000789307 -6.23289e-06 0.00172969 -4.56922e-19 0.00172969)
(0.00172969 -0.000789307 -6.23289e-06 0.00172969 1.04773e-20 0.00172969)
(0.00187696 -0.000866174 -6.9366e-06 0.00187696 -5.25577e-19 0.00187696)
(0.00187696 -0.000866174 -6.9366e-06 0.00187696 1.29942e-20 0.00187696)
(0.00201894 -0.000939335 -7.63073e-06 0.00201894 -5.85072e-19 0.00201894)
(0.00201894 -0.000939335 -7.63073e-06 0.00201894 1.59634e-20 0.00201894)
(0.0021549 -0.00100843 -8.3115e-06 0.0021549 -6.34181e-19 0.0021549)
(0.0021549 -0.00100843 -8.3115e-06 0.0021549 1.9456e-20 0.0021549)
(0.00228441 -0.00107329 -8.97656e-06 0.00228441 -6.72365e-19 0.00228441)
(0.00228441 -0.00107329 -8.97656e-06 0.00228441 2.24847e-20 0.00228441)
(0.00240723 -0.00113392 -9.62467e-06 0.00240723 -6.99573e-19 0.00240723)
(0.00240723 -0.00113392 -9.62467e-06 0.00240723 2.46817e-20 0.00240723)
(0.00252333 -0.00119043 -1.02554e-05 0.00252333 -7.16367e-19 0.00252333)
(0.00252333 -0.00119043 -1.02554e-05 0.00252333 2.74933e-20 0.00252333)
(0.0026328 -0.00124299 -1.0869e-05 0.0026328 -7.23571e-19 0.0026328)
(0.0026328 -0.00124299 -1.0869e-05 0.0026328 3.14425e-20 0.0026328)
(0.00273583 -0.00129182 -1.14661e-05 0.00273583 -7.21588e-19 0.00273583)
(0.00273583 -0.00129182 -1.14661e-05 0.00273583 3.66317e-20 0.00273583)
(0.00283267 -0.00133714 -1.20475e-05 0.00283267 -7.11712e-19 0.00283267)
(0.00283267 -0.00133714 -1.20475e-05 0.00283267 4.26274e-20 0.00283267)
(0.00292361 -0.00137921 -1.26143e-05 0.00292361 -6.95095e-19 0.00292361)
(0.00292361 -0.00137921 -1.26143e-05 0.00292361 4.75271e-20 0.00292361)
(0.00300896 -0.00141827 -1.31675e-05 0.00300896 -6.71977e-19 0.00300896)
(0.00300896 -0.00141827 -1.31675e-05 0.00300896 5.1219e-20 0.00300896)
(0.00308905 -0.00145455 -1.37084e-05 0.00308905 -6.43252e-19 0.00308905)
(0.00308905 -0.00145455 -1.37084e-05 0.00308905 5.48457e-20 0.00308905)
(0.00316421 -0.00148828 -1.42381e-05 0.00316421 -6.09333e-19 0.00316421)
(0.00316421 -0.00148828 -1.42381e-05 0.00316421 6.16552e-20 0.00316421)
(0.00323476 -0.00151965 -1.47577e-05 0.00323476 -5.70209e-19 0.00323476)
(0.00323476 -0.00151965 -1.47577e-05 0.00323476 6.8985e-20 0.00323476)
(0.00330099 -0.00154887 -1.52682e-05 0.00330099 -5.28341e-19 0.00330099)
(0.00330099 -0.00154887 -1.52682e-05 0.00330099 7.45464e-20 0.00330099)
(0.0033632 -0.0015761 -1.57707e-05 0.0033632 -4.83237e-19 0.0033632)
(0.0033632 -0.0015761 -1.57707e-05 0.0033632 8.3375e-20 0.0033632)
(0.00342167 -0.00160151 -1.62662e-05 0.00342167 -4.35173e-19 0.00342167)
(0.00342167 -0.00160151 -1.62662e-05 0.00342167 9.18985e-20 0.00342167)
(0.00347666 -0.00162526 -1.67555e-05 0.00347666 -3.84247e-19 0.00347666)
(0.00347666 -0.00162526 -1.67555e-05 0.00347666 9.93724e-20 0.00347666)
(0.0035284 -0.00164746 -1.72395e-05 0.0035284 -3.31426e-19 0.0035284)
(0.0035284 -0.00164746 -1.72395e-05 0.0035284 1.02901e-19 0.0035284)
(0.00357713 -0.00166825 -1.77189e-05 0.00357713 -2.7803e-19 0.00357713)
(0.00357713 -0.00166825 -1.77189e-05 0.00357713 1.06514e-19 0.00357713)
(0.00362305 -0.00168774 -1.81945e-05 0.00362305 -2.22921e-19 0.00362305)
(0.00362305 -0.00168774 -1.81945e-05 0.00362305 1.19439e-19 0.00362305)
(0.00366635 -0.00170604 -1.86669e-05 0.00366635 -1.64521e-19 0.00366635)
(0.00366635 -0.00170604 -1.86669e-05 0.00366635 1.27919e-19 0.00366635)
(0.00370722 -0.00172322 -1.91367e-05 0.00370722 -1.0331e-19 0.00370722)
(0.00370722 -0.00172322 -1.91367e-05 0.00370722 1.3998e-19 0.00370722)
(0.00374582 -0.00173938 -1.96046e-05 0.00374582 -4.09187e-20 0.00374582)
(0.00374582 -0.00173938 -1.96046e-05 0.00374582 1.47626e-19 0.00374582)
(0.0037823 -0.00175459 -2.00711e-05 0.0037823 2.35951e-20 0.0037823)
(0.0037823 -0.00175459 -2.00711e-05 0.0037823 1.52155e-19 0.0037823)
(0.00381681 -0.00176892 -2.05366e-05 0.00381681 9.00845e-20 0.00381681)
(0.00381681 -0.00176892 -2.05366e-05 0.00381681 1.62227e-19 0.00381681)
(0.00384947 -0.00178244 -2.10016e-05 0.00384947 1.56452e-19 0.00384947)
(0.00384947 -0.00178244 -2.10016e-05 0.00384947 1.71929e-19 0.00384947)
(0.00388041 -0.0017952 -2.14666e-05 0.00388041 2.24145e-19 0.00388041)
(0.00388041 -0.0017952 -2.14666e-05 0.00388041 1.81809e-19 0.00388041)
(0.00390973 -0.00180726 -2.1932e-05 0.00390973 2.93591e-19 0.00390973)
(0.00390973 -0.00180726 -2.1932e-05 0.00390973 1.92144e-19 0.00390973)
(0.00393754 -0.00181867 -2.23982e-05 0.00393754 3.62019e-19 0.00393754)
(0.00393754 -0.00181867 -2.23982e-05 0.00393754 2.05622e-19 0.00393754)
(0.00396393 -0.00182946 -2.28654e-05 0.00396393 4.3174e-19 0.00396393)
(0.00396393 -0.00182946 -2.28654e-05 0.00396393 2.22754e-19 0.00396393)
(0.00398899 -0.00183969 -2.33341e-05 0.00398899 5.0502e-19 0.00398899)
(0.00398899 -0.00183969 -2.33341e-05 0.00398899 2.26803e-19 0.00398899)
(0.0040128 -0.00184938 -2.38045e-05 0.0040128 5.75474e-19 0.0040128)
(0.0040128 -0.00184938 -2.38045e-05 0.0040128 2.30901e-19 0.0040128)
(0.00403543 -0.00185857 -2.4277e-05 0.00403543 6.48943e-19 0.00403543)
(0.00403543 -0.00185857 -2.4277e-05 0.00403543 2.54062e-19 0.00403543)
(0.00405696 -0.00186729 -2.47519e-05 0.00405696 7.30508e-19 0.00405696)
(0.00405696 -0.00186729 -2.47519e-05 0.00405696 2.68163e-19 0.00405696)
(0.00407745 -0.00187558 -2.52293e-05 0.00407745 8.10875e-19 0.00407745)
(0.00407745 -0.00187558 -2.52293e-05 0.00407745 2.92983e-19 0.00407745)
(0.00409696 -0.00188345 -2.57096e-05 0.00409696 8.9068e-19 0.00409696)
(0.00409696 -0.00188345 -2.57096e-05 0.00409696 3.00063e-19 0.00409696)
(0.00411554 -0.00189094 -2.6193e-05 0.00411554 9.69595e-19 0.00411554)
(0.00411554 -0.00189094 -2.6193e-05 0.00411554 3.00047e-19 0.00411554)
(0.00413324 -0.00189806 -2.66797e-05 0.00413324 1.05092e-18 0.00413324)
(0.00413324 -0.00189806 -2.66797e-05 0.00413324 3.30235e-19 0.00413324)
(0.00415012 -0.00190483 -2.717e-05 0.00415012 1.13427e-18 0.00415012)
(0.00415012 -0.00190483 -2.717e-05 0.00415012 3.44019e-19 0.00415012)
(0.00416622 -0.00191128 -2.7664e-05 0.00416622 1.21495e-18 0.00416622)
(0.00416622 -0.00191128 -2.7664e-05 0.00416622 3.43884e-19 0.00416622)
(0.00418157 -0.00191743 -2.8162e-05 0.00418157 1.30143e-18 0.00418157)
(0.00418157 -0.00191743 -2.8162e-05 0.00418157 3.59791e-19 0.00418157)
(0.00419622 -0.00192329 -2.86641e-05 0.00419622 1.39306e-18 0.00419622)
(0.00419622 -0.00192329 -2.86641e-05 0.00419622 3.94206e-19 0.00419622)
(0.0042102 -0.00192887 -2.91706e-05 0.0042102 1.4814e-18 0.0042102)
(0.0042102 -0.00192887 -2.91706e-05 0.0042102 4.18903e-19 0.0042102)
(0.00422355 -0.00193419 -2.96816e-05 0.00422355 1.56634e-18 0.00422355)
(0.00422355 -0.00193419 -2.96816e-05 0.00422355 4.22196e-19 0.00422355)
(0.00423629 -0.00193926 -3.01973e-05 0.00423629 1.65566e-18 0.00423629)
(0.00423629 -0.00193926 -3.01973e-05 0.00423629 4.19794e-19 0.00423629)
(0.00424846 -0.0019441 -3.07179e-05 0.00424846 1.75127e-18 0.00424846)
(0.00424846 -0.0019441 -3.07179e-05 0.00424846 4.28867e-19 0.00424846)
(0.00426009 -0.00194872 -3.12436e-05 0.00426009 1.83839e-18 0.00426009)
(0.00426009 -0.00194872 -3.12436e-05 0.00426009 4.75181e-19 0.00426009)
(0.00427119 -0.00195312 -3.17745e-05 0.00427119 1.93198e-18 0.00427119)
(0.00427119 -0.00195312 -3.17745e-05 0.00427119 4.86813e-19 0.00427119)
(0.0042818 -0.00195733 -3.23107e-05 0.0042818 2.0324e-18 0.0042818)
(0.0042818 -0.00195733 -3.23107e-05 0.0042818 4.91391e-19 0.0042818)
(0.00429193 -0.00196134 -3.28524e-05 0.00429193 2.12529e-18 0.00429193)
(0.00429193 -0.00196134 -3.28524e-05 0.00429193 5.10126e-19 0.00429193)
(0.00430161 -0.00196517 -3.33999e-05 0.00430161 2.23043e-18 0.00430161)
(0.00430161 -0.00196517 -3.33999e-05 0.00430161 5.26158e-19 0.00430161)
(0.00431086 -0.00196882 -3.39531e-05 0.00431086 2.33048e-18 0.00431086)
(0.00431086 -0.00196882 -3.39531e-05 0.00431086 5.41589e-19 0.00431086)
(0.00431969 -0.0019723 -3.45123e-05 0.00431969 2.4214e-18 0.00431969)
(0.00431969 -0.0019723 -3.45123e-05 0.00431969 5.73225e-19 0.00431969)
(0.00432812 -0.00197563 -3.50776e-05 0.00432812 2.52086e-18 0.00432812)
(0.00432812 -0.00197563 -3.50776e-05 0.00432812 6.23644e-19 0.00432812)
(0.00433617 -0.0019788 -3.56492e-05 0.00433617 2.62594e-18 0.00433617)
(0.00433617 -0.0019788 -3.56492e-05 0.00433617 6.32123e-19 0.00433617)
(0.00434386 -0.00198182 -3.62272e-05 0.00434386 2.73809e-18 0.00434386)
(0.00434386 -0.00198182 -3.62272e-05 0.00434386 6.16916e-19 0.00434386)
(0.00435119 -0.0019847 -3.68117e-05 0.00435119 2.8397e-18 0.00435119)
(0.00435119 -0.0019847 -3.68117e-05 0.00435119 6.4937e-19 0.00435119)
(0.00435818 -0.00198745 -3.74029e-05 0.00435818 2.94138e-18 0.00435818)
(0.00435818 -0.00198745 -3.74029e-05 0.00435818 7.28887e-19 0.00435818)
(0.00436485 -0.00199007 -3.80009e-05 0.00436485 3.06002e-18 0.00436485)
(0.00436485 -0.00199007 -3.80009e-05 0.00436485 7.69883e-19 0.00436485)
(0.00437121 -0.00199256 -3.86059e-05 0.00437121 3.18092e-18 0.00437121)
(0.00437121 -0.00199256 -3.86059e-05 0.00437121 7.89381e-19 0.00437121)
(0.00437726 -0.00199492 -3.92179e-05 0.00437726 3.29335e-18 0.00437726)
(0.00437726 -0.00199492 -3.92179e-05 0.00437726 7.83652e-19 0.00437726)
(0.00438303 -0.00199718 -3.98371e-05 0.00438303 3.38426e-18 0.00438303)
(0.00438303 -0.00199718 -3.98371e-05 0.00438303 7.95913e-19 0.00438303)
(0.00438851 -0.00199932 -4.04637e-05 0.00438851 3.48666e-18 0.00438851)
(0.00438851 -0.00199932 -4.04637e-05 0.00438851 8.83782e-19 0.00438851)
(0.00439372 -0.00200135 -4.10977e-05 0.00439372 3.60874e-18 0.00439372)
(0.00439372 -0.00200135 -4.10977e-05 0.00439372 9.08547e-19 0.00439372)
(0.00439867 -0.00200328 -4.17394e-05 0.00439867 3.70964e-18 0.00439867)
(0.00439867 -0.00200328 -4.17394e-05 0.00439867 8.96587e-19 0.00439867)
(0.00440337 -0.0020051 -4.23887e-05 0.00440337 3.83111e-18 0.00440337)
(0.00440337 -0.0020051 -4.23887e-05 0.00440337 9.13122e-19 0.00440337)
(0.00440782 -0.00200683 -4.30459e-05 0.00440782 3.96905e-18 0.00440782)
(0.00440782 -0.00200683 -4.30459e-05 0.00440782 9.51136e-19 0.00440782)
(0.00441203 -0.00200846 -4.37111e-05 0.00441203 4.10961e-18 0.00441203)
(0.00441203 -0.00200846 -4.37111e-05 0.00441203 9.71961e-19 0.00441203)
(0.00441601 -0.00201 -4.43845e-05 0.00441601 4.25549e-18 0.00441601)
(0.00441601 -0.00201 -4.43845e-05 0.00441601 9.83101e-19 0.00441601)
(0.00441976 -0.00201145 -4.5066e-05 0.00441976 4.38466e-18 0.00441976)
(0.00441976 -0.00201145 -4.5066e-05 0.00441976 1.10683e-18 0.00441976)
(0.0044233 -0.00201281 -4.5756e-05 0.0044233 4.51914e-18 0.0044233)
(0.0044233 -0.00201281 -4.5756e-05 0.0044233 1.19898e-18 0.0044233)
(0.00442663 -0.00201409 -4.64544e-05 0.00442663 4.68963e-18 0.00442663)
(0.00442663 -0.00201409 -4.64544e-05 0.00442663 1.21351e-18 0.00442663)
(0.00442975 -0.00201529 -4.71614e-05 0.00442975 4.85709e-18 0.00442975)
(0.00442975 -0.00201529 -4.71614e-05 0.00442975 1.11293e-18 0.00442975)
(0.00443267 -0.00201641 -4.78772e-05 0.00443267 4.98575e-18 0.00443267)
(0.00443267 -0.00201641 -4.78772e-05 0.00443267 1.0846e-18 0.00443267)
(0.0044354 -0.00201744 -4.86019e-05 0.0044354 5.14794e-18 0.0044354)
(0.0044354 -0.00201744 -4.86019e-05 0.0044354 1.18996e-18 0.0044354)
(0.00443793 -0.00201841 -4.93356e-05 0.00443793 5.33739e-18 0.00443793)
(0.00443793 -0.00201841 -4.93356e-05 0.00443793 1.27734e-18 0.00443793)
(0.00444028 -0.00201929 -5.00784e-05 0.00444028 5.51362e-18 0.00444028)
(0.00444028 -0.00201929 -5.00784e-05 0.00444028 1.3632e-18 0.00444028)
(0.00444245 -0.00202011 -5.08305e-05 0.00444245 5.69851e-18 0.00444245)
(0.00444245 -0.00202011 -5.08305e-05 0.00444245 1.47477e-18 0.00444245)
(0.00444444 -0.00202085 -5.1592e-05 0.00444444 5.87678e-18 0.00444444)
(0.00444444 -0.00202085 -5.1592e-05 0.00444444 1.47615e-18 0.00444444)
(0.00444626 -0.00202153 -5.2363e-05 0.00444626 6.03704e-18 0.00444626)
(0.00444626 -0.00202153 -5.2363e-05 0.00444626 1.50171e-18 0.00444626)
(0.00444791 -0.00202213 -5.31437e-05 0.00444791 6.20688e-18 0.00444791)
(0.00444791 -0.00202213 -5.31437e-05 0.00444791 1.55514e-18 0.00444791)
(0.00444939 -0.00202267 -5.39341e-05 0.00444939 6.39133e-18 0.00444939)
(0.00444939 -0.00202267 -5.39341e-05 0.00444939 1.54888e-18 0.00444939)
(0.00445071 -0.00202315 -5.47344e-05 0.00445071 6.54733e-18 0.00445071)
(0.00445071 -0.00202315 -5.47344e-05 0.00445071 1.60421e-18 0.00445071)
(0.00445187 -0.00202356 -5.55447e-05 0.00445187 6.68291e-18 0.00445187)
(0.00445187 -0.00202356 -5.55447e-05 0.00445187 1.6962e-18 0.00445187)
(0.00445287 -0.0020239 -5.63652e-05 0.00445287 6.80513e-18 0.00445287)
(0.00445287 -0.0020239 -5.63652e-05 0.00445287 1.75774e-18 0.00445287)
(0.00445372 -0.00202419 -5.7196e-05 0.00445372 7.03109e-18 0.00445372)
(0.00445372 -0.00202419 -5.7196e-05 0.00445372 1.74371e-18 0.00445372)
(0.00445441 -0.00202441 -5.80372e-05 0.00445441 7.20152e-18 0.00445441)
(0.00445441 -0.00202441 -5.80372e-05 0.00445441 1.72322e-18 0.00445441)
(0.00445496 -0.00202457 -5.8889e-05 0.00445496 7.37996e-18 0.00445496)
(0.00445496 -0.00202457 -5.8889e-05 0.00445496 1.84295e-18 0.00445496)
(0.00445536 -0.00202467 -5.97514e-05 0.00445536 7.57129e-18 0.00445536)
(0.00445536 -0.00202467 -5.97514e-05 0.00445536 1.99367e-18 0.00445536)
(0.00445562 -0.00202472 -6.06247e-05 0.00445562 7.78183e-18 0.00445562)
(0.00445562 -0.00202472 -6.06247e-05 0.00445562 2.0709e-18 0.00445562)
(0.00445574 -0.0020247 -6.15088e-05 0.00445574 7.97644e-18 0.00445574)
(0.00445574 -0.0020247 -6.15088e-05 0.00445574 2.08289e-18 0.00445574)
(0.00445571 -0.00202463 -6.24041e-05 0.00445571 8.20648e-18 0.00445571)
(0.00445571 -0.00202463 -6.24041e-05 0.00445571 2.12907e-18 0.00445571)
(0.00445555 -0.00202451 -6.33105e-05 0.00445555 8.42949e-18 0.00445555)
(0.00445555 -0.00202451 -6.33105e-05 0.00445555 2.27705e-18 0.00445555)
(0.00445525 -0.00202432 -6.42283e-05 0.00445525 8.67415e-18 0.00445525)
(0.00445525 -0.00202432 -6.42283e-05 0.00445525 2.04026e-18 0.00445525)
(0.00445481 -0.00202409 -6.51575e-05 0.00445481 8.94024e-18 0.00445481)
(0.00445481 -0.00202409 -6.51575e-05 0.00445481 7.20121e-19 0.00445481)
(0.00445424 -0.00202379 -6.60983e-05 0.00445424 9.24781e-18 0.00445424)
(0.00445424 -0.00202379 -6.60983e-05 0.00445424 -2.47954e-19 0.00445424)
(0.00445354 -0.00202344 -6.70508e-05 0.00445354 9.51536e-18 0.00445354)
(0.00445354 -0.00202344 -6.70508e-05 0.00445354 -1.76292e-19 0.00445354)
(0.00445271 -0.00202304 -6.80152e-05 0.00445271 9.69316e-18 0.00445271)
(0.00445271 -0.00202304 -6.80152e-05 0.00445271 -2.0714e-19 0.00445271)
(0.00445175 -0.00202259 -6.89916e-05 0.00445175 9.96921e-18 0.00445175)
(0.00445175 -0.00202259 -6.89916e-05 0.00445175 -9.23413e-20 0.00445175)
(0.00445066 -0.00202208 -6.998e-05 0.00445066 1.02488e-17 0.00445066)
(0.00445066 -0.00202208 -6.998e-05 0.00445066 1.27626e-19 0.00445066)
(0.00444944 -0.00202152 -7.09807e-05 0.00444944 1.05579e-17 0.00444944)
(0.00444944 -0.00202152 -7.09807e-05 0.00444944 1.44758e-19 0.00444944)
(0.0044481 -0.0020209 -7.19938e-05 0.0044481 1.08661e-17 0.0044481)
(0.0044481 -0.0020209 -7.19938e-05 0.0044481 2.50182e-20 0.0044481)
(0.00444663 -0.00202024 -7.30194e-05 0.00444663 1.11495e-17 0.00444663)
(0.00444663 -0.00202024 -7.30194e-05 0.00444663 -3.92017e-20 0.00444663)
(0.00444503 -0.00201952 -7.40576e-05 0.00444503 1.14673e-17 0.00444503)
(0.00444503 -0.00201952 -7.40576e-05 0.00444503 3.14627e-19 0.00444503)
(0.00444331 -0.00201875 -7.51085e-05 0.00444331 1.17612e-17 0.00444331)
(0.00444331 -0.00201875 -7.51085e-05 0.00444331 5.87521e-19 0.00444331)
(0.00444147 -0.00201793 -7.61724e-05 0.00444147 1.20623e-17 0.00444147)
(0.00444147 -0.00201793 -7.61724e-05 0.00444147 4.59683e-19 0.00444147)
(0.00443951 -0.00201705 -7.72493e-05 0.00443951 1.23918e-17 0.00443951)
(0.00443951 -0.00201705 -7.72493e-05 0.00443951 4.35612e-19 0.00443951)
(0.00443742 -0.00201613 -7.83393e-05 0.00443742 1.27226e-17 0.00443742)
(0.00443742 -0.00201613 -7.83393e-05 0.00443742 6.93389e-19 0.00443742)
(0.00443521 -0.00201515 -7.94426e-05 0.00443521 1.28726e-17 0.00443521)
(0.00443521 -0.00201515 -7.94426e-05 0.00443521 7.55716e-19 0.00443521)
(0.00443288 -0.00201413 -8.05594e-05 0.00443288 1.30997e-17 0.00443288)
(0.00443288 -0.00201413 -8.05594e-05 0.00443288 5.72548e-19 0.00443288)
(0.00443043 -0.00201305 -8.16896e-05 0.00443043 1.34741e-17 0.00443043)
(0.00443043 -0.00201305 -8.16896e-05 0.00443043 5.84402e-19 0.00443043)
(0.00442785 -0.00201192 -8.28336e-05 0.00442785 1.38101e-17 0.00442785)
(0.00442785 -0.00201192 -8.28336e-05 0.00442785 1.40039e-18 0.00442785)
(0.00442516 -0.00201073 -8.39913e-05 0.00442516 1.41711e-17 0.00442516)
(0.00442516 -0.00201073 -8.39913e-05 0.00442516 3.04211e-18 0.00442516)
(0.00442235 -0.0020095 -8.51629e-05 0.00442235 1.46335e-17 0.00442235)
(0.00442235 -0.0020095 -8.51629e-05 0.00442235 4.02012e-18 0.00442235)
(0.00441942 -0.00200822 -8.63486e-05 0.00441942 1.51477e-17 0.00441942)
(0.00441942 -0.00200822 -8.63486e-05 0.00441942 4.66168e-18 0.00441942)
(0.00441636 -0.00200688 -8.75485e-05 0.00441636 1.54631e-17 0.00441636)
(0.00441636 -0.00200688 -8.75485e-05 0.00441636 4.97045e-18 0.00441636)
(0.00441319 -0.00200549 -8.87626e-05 0.00441319 1.58637e-17 0.00441319)
(0.00441319 -0.00200549 -8.87626e-05 0.00441319 5.67758e-18 0.00441319)
(0.0044099 -0.00200405 -8.99912e-05 0.0044099 1.62689e-17 0.0044099)
(0.0044099 -0.00200405 -8.99912e-05 0.0044099 6.24791e-18 0.0044099)
(0.00440648 -0.00200256 -9.12343e-05 0.00440648 1.67392e-17 0.00440648)
(0.00440648 -0.00200256 -9.12343e-05 0.00440648 6.69596e-18 0.00440648)
(0.00440295 -0.00200102 -9.2492e-05 0.00440295 1.72724e-17 0.00440295)
(0.00440295 -0.00200102 -9.2492e-05 0.00440295 7.05106e-18 0.00440295)
(0.00439929 -0.00199942 -9.37645e-05 0.00439929 1.76436e-17 0.00439929)
(0.00439929 -0.00199942 -9.37645e-05 0.00439929 7.4673e-18 0.00439929)
(0.00439552 -0.00199777 -9.5052e-05 0.00439552 1.80875e-17 0.00439552)
(0.00439552 -0.00199777 -9.5052e-05 0.00439552 7.73263e-18 0.00439552)
(0.00439163 -0.00199607 -9.63544e-05 0.00439163 1.42904e-17 0.00439163)
(0.00439163 -0.00199607 -9.63544e-05 0.00439163 7.99555e-18 0.00439163)
(0.00438761 -0.00199431 -9.7672e-05 0.00438761 5.13843e-19 0.00438761)
(0.00438761 -0.00199431 -9.7672e-05 0.00438761 8.33519e-18 0.00438761)
(0.00438347 -0.00199251 -9.90048e-05 0.00438347 -2.17872e-18 0.00438347)
(0.00438347 -0.00199251 -9.90048e-05 0.00438347 8.64515e-18 0.00438347)
(0.00437921 -0.00199064 -0.000100353 0.00437921 -2.25921e-18 0.00437921)
(0.00437921 -0.00199064 -0.000100353 0.00437921 8.97899e-18 0.00437921)
(0.00437483 -0.00198873 -0.000101717 0.00437483 -2.0257e-18 0.00437483)
(0.00437483 -0.00198873 -0.000101717 0.00437483 9.22397e-18 0.00437483)
(0.00437033 -0.00198676 -0.000103096 0.00437033 -1.80605e-18 0.00437033)
(0.00437033 -0.00198676 -0.000103096 0.00437033 9.4773e-18 0.00437033)
(0.0043657 -0.00198473 -0.000104491 0.0043657 -1.52162e-18 0.0043657)
(0.0043657 -0.00198473 -0.000104491 0.0043657 9.63402e-18 0.0043657)
(0.00436095 -0.00198265 -0.000105901 0.00436095 -5.39885e-19 0.00436095)
(0.00436095 -0.00198265 -0.000105901 0.00436095 9.7298e-18 0.00436095)
(0.00435608 -0.00198052 -0.000107328 0.00435608 1.29046e-18 0.00435608)
(0.00435608 -0.00198052 -0.000107328 0.00435608 1.00756e-17 0.00435608)
(0.00435108 -0.00197833 -0.00010877 0.00435108 2.09314e-18 0.00435108)
(0.00435108 -0.00197833 -0.00010877 0.00435108 1.0326e-17 0.00435108)
(0.00434595 -0.00197608 -0.000110229 0.00434595 1.75386e-18 0.00434595)
(0.00434595 -0.00197608 -0.000110229 0.00434595 1.0358e-17 0.00434595)
(0.0043407 -0.00197378 -0.000111703 0.0043407 1.99746e-18 0.0043407)
(0.0043407 -0.00197378 -0.000111703 0.0043407 1.07325e-17 0.0043407)
(0.00433533 -0.00197142 -0.000113194 0.00433533 2.41123e-18 0.00433533)
(0.00433533 -0.00197142 -0.000113194 0.00433533 1.10046e-17 0.00433533)
(0.00432982 -0.001969 -0.000114702 0.00432982 2.32133e-18 0.00432982)
(0.00432982 -0.001969 -0.000114702 0.00432982 1.10344e-17 0.00432982)
(0.00432419 -0.00196652 -0.000116225 0.00432419 1.7743e-18 0.00432419)
(0.00432419 -0.00196652 -0.000116225 0.00432419 1.13302e-17 0.00432419)
(0.00431843 -0.00196399 -0.000117766 0.00431843 6.25551e-19 0.00431843)
(0.00431843 -0.00196399 -0.000117766 0.00431843 1.19376e-17 0.00431843)
(0.00431254 -0.00196139 -0.000119322 0.00431254 1.07162e-20 0.00431254)
(0.00431254 -0.00196139 -0.000119322 0.00431254 1.27573e-17 0.00431254)
(0.00430652 -0.00195874 -0.000120896 0.00430652 1.40273e-19 0.00430652)
(0.00430652 -0.00195874 -0.000120896 0.00430652 1.34733e-17 0.00430652)
(0.00430037 -0.00195603 -0.000122486 0.00430037 -9.98074e-19 0.00430037)
(0.00430037 -0.00195603 -0.000122486 0.00430037 1.42543e-17 0.00430037)
(0.00429409 -0.00195326 -0.000124093 0.00429409 -1.09685e-18 0.00429409)
(0.00429409 -0.00195326 -0.000124093 0.00429409 1.51432e-17 0.00429409)
(0.00428768 -0.00195042 -0.000125717 0.00428768 -1.68328e-18 0.00428768)
(0.00428768 -0.00195042 -0.000125717 0.00428768 1.61639e-17 0.00428768)
(0.00428113 -0.00194752 -0.000127357 0.00428113 -2.59774e-18 0.00428113)
(0.00428113 -0.00194752 -0.000127357 0.00428113 1.74822e-17 0.00428113)
(0.00427444 -0.00194457 -0.000129015 0.00427444 -3.37867e-18 0.00427444)
(0.00427444 -0.00194457 -0.000129015 0.00427444 1.86289e-17 0.00427444)
(0.00426762 -0.00194154 -0.00013069 0.00426762 -3.72228e-18 0.00426762)
(0.00426762 -0.00194154 -0.00013069 0.00426762 1.97694e-17 0.00426762)
(0.00426067 -0.00193846 -0.000132381 0.00426067 -3.41761e-18 0.00426067)
(0.00426067 -0.00193846 -0.000132381 0.00426067 2.0784e-17 0.00426067)
(0.00425357 -0.00193531 -0.00013409 0.00425357 -3.36522e-18 0.00425357)
(0.00425357 -0.00193531 -0.00013409 0.00425357 2.16271e-17 0.00425357)
(0.00424634 -0.00193209 -0.000135816 0.00424634 -4.36149e-18 0.00424634)
(0.00424634 -0.00193209 -0.000135816 0.00424634 2.24089e-17 0.00424634)
(0.00423896 -0.00192881 -0.000137559 0.00423896 -5.29631e-18 0.00423896)
(0.00423896 -0.00192881 -0.000137559 0.00423896 2.33811e-17 0.00423896)
(0.00423145 -0.00192547 -0.000139319 0.00423145 -5.30045e-18 0.00423145)
(0.00423145 -0.00192547 -0.000139319 0.00423145 2.44765e-17 0.00423145)
(0.00422379 -0.00192206 -0.000141096 0.00422379 -5.78299e-18 0.00422379)
(0.00422379 -0.00192206 -0.000141096 0.00422379 2.53141e-17 0.00422379)
(0.00421599 -0.00191857 -0.00014289 0.00421599 -6.17619e-18 0.00421599)
(0.00421599 -0.00191857 -0.00014289 0.00421599 2.60326e-17 0.00421599)
(0.00420804 -0.00191502 -0.000144701 0.00420804 -5.35478e-18 0.00420804)
(0.00420804 -0.00191502 -0.000144701 0.00420804 2.6455e-17 0.00420804)
(0.00419995 -0.00191141 -0.00014653 0.00419995 -5.19047e-18 0.00419995)
(0.00419995 -0.00191141 -0.00014653 0.00419995 2.71655e-17 0.00419995)
(0.00419171 -0.00190772 -0.000148375 0.00419171 -6.39368e-18 0.00419171)
(0.00419171 -0.00190772 -0.000148375 0.00419171 2.80422e-17 0.00419171)
(0.00418332 -0.00190396 -0.000150238 0.00418332 -7.0725e-18 0.00418332)
(0.00418332 -0.00190396 -0.000150238 0.00418332 2.82379e-17 0.00418332)
(0.00417479 -0.00190013 -0.000152117 0.00417479 -7.0108e-18 0.00417479)
(0.00417479 -0.00190013 -0.000152117 0.00417479 2.75848e-17 0.00417479)
(0.0041661 -0.00189622 -0.000154014 0.0041661 -7.31148e-18 0.0041661)
(0.0041661 -0.00189622 -0.000154014 0.0041661 2.72627e-17 0.0041661)
(0.00415725 -0.00189225 -0.000155927 0.00415725 -7.45234e-18 0.00415725)
(0.00415725 -0.00189225 -0.000155927 0.00415725 2.75588e-17 0.00415725)
(0.00414826 -0.0018882 -0.000157857 0.00414826 -7.60282e-18 0.00414826)
(0.00414826 -0.0018882 -0.000157857 0.00414826 2.79024e-17 0.00414826)
(0.00413911 -0.00188407 -0.000159804 0.00413911 -7.61502e-18 0.00413911)
(0.00413911 -0.00188407 -0.000159804 0.00413911 2.85367e-17 0.00413911)
(0.0041298 -0.00187987 -0.000161768 0.0041298 -7.9949e-18 0.0041298)
(0.0041298 -0.00187987 -0.000161768 0.0041298 2.90758e-17 0.0041298)
(0.00412033 -0.00187559 -0.000163748 0.00412033 -8.4019e-18 0.00412033)
(0.00412033 -0.00187559 -0.000163748 0.00412033 2.94056e-17 0.00412033)
(0.0041107 -0.00187124 -0.000165745 0.0041107 -8.1219e-18 0.0041107)
(0.0041107 -0.00187124 -0.000165745 0.0041107 2.99685e-17 0.0041107)
(0.00410091 -0.0018668 -0.000167757 0.00410091 -8.64024e-18 0.00410091)
(0.00410091 -0.0018668 -0.000167757 0.00410091 3.06129e-17 0.00410091)
(0.00409096 -0.00186229 -0.000169787 0.00409096 -1.00316e-17 0.00409096)
(0.00409096 -0.00186229 -0.000169787 0.00409096 3.07462e-17 0.00409096)
(0.00408084 -0.00185769 -0.000171832 0.00408084 -9.7469e-18 0.00408084)
(0.00408084 -0.00185769 -0.000171832 0.00408084 3.00348e-17 0.00408084)
(0.00407056 -0.00185302 -0.000173893 0.00407056 -8.8781e-18 0.00407056)
(0.00407056 -0.00185302 -0.000173893 0.00407056 2.9171e-17 0.00407056)
(0.00406011 -0.00184826 -0.000175969 0.00406011 -8.52014e-18 0.00406011)
(0.00406011 -0.00184826 -0.000175969 0.00406011 2.94976e-17 0.00406011)
(0.00404948 -0.00184342 -0.000178061 0.00404948 -8.12383e-18 0.00404948)
(0.00404948 -0.00184342 -0.000178061 0.00404948 3.06938e-17 0.00404948)
(0.00403869 -0.00183849 -0.000180169 0.00403869 -9.69502e-18 0.00403869)
(0.00403869 -0.00183849 -0.000180169 0.00403869 3.10295e-17 0.00403869)
(0.00402772 -0.00183348 -0.000182291 0.00402772 -1.01448e-17 0.00402772)
(0.00402772 -0.00183348 -0.000182291 0.00402772 3.09195e-17 0.00402772)
(0.00401658 -0.00182838 -0.000184429 0.00401658 -9.22515e-18 0.00401658)
(0.00401658 -0.00182838 -0.000184429 0.00401658 3.16712e-17 0.00401658)
(0.00400527 -0.00182319 -0.000186581 0.00400527 -9.43857e-18 0.00400527)
(0.00400527 -0.00182319 -0.000186581 0.00400527 3.21177e-17 0.00400527)
(0.00399377 -0.00181792 -0.000188747 0.00399377 -9.52412e-18 0.00399377)
(0.00399377 -0.00181792 -0.000188747 0.00399377 3.2151e-17 0.00399377)
(0.00398209 -0.00181255 -0.000190927 0.00398209 -9.7384e-18 0.00398209)
(0.00398209 -0.00181255 -0.000190927 0.00398209 3.21801e-17 0.00398209)