/*--------------------------------*- C++ -*----------------------------------*\
| =========                 |                                                 |
| \\      /  F ield         | OpenFOAM: The Open Source CFD Toolbox           |
|  \\    /   O peration     | Version:  2012                                  |
|   \\  /    A nd           | Website:  www.openfoam.com                      |
|    \\/     M anipulation  |                                                 |
\*---------------------------------------------------------------------------*/
FoamFile
{
    version     2.0;
    format      ascii;
    class       volScalarField;
    location    "16300";
    object      k;
}
// * * * * * * * * * * * * * * * * * * * * * * * * * * * * * * * * * * * * * //

dimensions      [0 2 -2 0 0 0 0];


internalField   nonuniform List<scalar> 
2560
(
0.0109988
0.0109988
0.268866
0.268866
1.83778
1.83778
5.41494
5.41494
9.62532
9.62532
13.4964
13.4964
16.9496
16.9496
20.0782
20.0782
22.9644
22.9644
25.6649
25.6649
28.2183
28.2183
30.6515
30.6515
32.9835
32.9835
35.2278
35.2278
37.3946
37.3946
39.4913
39.4913
41.5233
41.5233
43.4946
43.4946
45.408
45.408
47.2654
47.2654
49.0678
49.0678
50.8158
50.8158
52.5091
52.5091
54.1474
54.1474
55.7296
55.7296
57.2545
57.2544
58.7205
58.7205
60.1258
60.1258
61.4684
61.4684
62.7461
62.7461
63.9565
63.9565
65.0972
65.0972
66.1657
66.1657
67.1595
67.1595
68.076
68.076
68.9129
68.9129
69.6677
69.6677
70.3384
70.3384
70.9229
70.9229
71.4194
71.4194
71.8266
71.8266
72.1433
72.1433
72.3687
72.3687
72.5026
72.5026
72.5451
72.5451
72.497
72.497
72.3595
72.3595
72.1344
72.1344
71.8241
71.8241
71.4319
71.4319
70.9614
70.9614
70.4171
70.4171
69.804
69.804
69.128
69.128
68.3955
68.3955
67.6134
67.6134
66.7894
66.7894
65.9317
65.9317
65.0487
65.0487
64.1496
64.1496
63.2436
63.2436
62.3401
62.3401
61.4487
61.4487
60.579
60.579
59.7401
59.7401
58.9412
58.9412
58.1908
58.1908
57.4968
57.4968
56.8663
56.8663
56.3055
56.3055
55.8198
55.8198
55.4132
55.4132
55.0885
55.0885
54.8475
54.8475
54.6906
54.6906
54.6166
54.6166
54.6233
54.6233
54.7075
54.7075
54.8645
54.8645
55.089
55.089
55.3745
55.3745
55.7141
55.7141
56.1002
56.1002
56.5248
56.5248
56.9797
56.9797
57.4566
57.4566
57.9472
57.9472
58.4433
58.4433
58.9372
58.9372
59.4212
59.4212
59.8884
59.8884
60.3322
60.3322
60.7467
60.7467
61.1265
61.1265
61.4669
61.4669
61.7637
61.7637
62.0135
62.0135
62.2136
62.2136
62.3616
62.3616
62.456
62.456
62.4957
62.4957
62.4802
62.4802
62.4093
62.4093
62.2835
62.2835
62.1035
62.1035
61.8704
61.8704
61.5856
61.5856
61.2508
61.2508
60.8679
60.8679
60.4389
60.4389
59.9661
59.9661
59.4517
59.4517
58.8982
58.8982
58.308
58.308
57.6836
57.6836
57.0274
57.0274
56.3419
56.3419
55.6295
55.6295
54.8926
54.8926
54.1335
54.1335
53.3544
53.3544
52.5575
52.5575
51.7448
51.7448
50.9184
50.9184
50.0801
50.0801
49.2317
49.2317
48.375
48.375
47.5114
47.5114
46.6426
46.6426
45.77
45.77
44.8949
44.8949
44.0186
44.0186
43.1423
43.1423
42.267
42.267
41.3938
41.3938
40.5237
40.5237
39.6576
39.6576
38.7963
38.7963
37.9405
37.9405
37.0911
37.0911
36.2487
36.2487
35.4139
35.4139
34.5872
34.5872
33.7693
33.7693
32.9605
32.9605
32.1614
32.1614
31.3724
31.3724
30.5937
30.5937
29.8259
29.8259
29.0692
29.0692
28.324
28.324
27.5905
27.5905
26.8689
26.8689
26.1596
26.1596
25.4627
25.4627
24.7784
24.7784
24.1069
24.1069
23.4484
23.4484
22.803
22.803
22.1708
22.1708
21.5519
21.5519
20.9463
20.9463
20.3542
20.3542
19.7754
19.7754
19.2099
19.2099
18.6577
18.6577
18.1187
18.1187
17.5927
17.5927
17.0796
17.0796
16.5792
16.5792
16.0914
16.0914
15.6158
15.6158
15.1524
15.1524
14.701
14.701
14.2613
14.2613
13.8333
13.8333
13.4168
13.4168
13.0115
13.0115
12.6175
12.6175
12.2345
12.2345
11.8623
11.8623
11.5009
11.5009
11.15
11.15
10.8096
10.8096
10.4794
10.4794
10.1592
10.1592
9.84893
9.84893
9.54833
9.54833
9.25723
9.25723
8.97544
8.97544
8.70278
8.70278
8.4391
8.4391
8.18423
8.18423
7.93803
7.93803
7.70036
7.70036
7.47108
7.47108
7.25007
7.25007
7.0372
7.0372
6.83236
6.83236
6.63541
6.63541
6.44624
6.44624
6.26471
6.26471
6.09068
6.09067
5.92397
5.92397
5.76442
5.76442
5.61183
5.61183
5.466
5.466
5.32671
5.32671
5.19374
5.19374
5.06687
5.06687
4.94589
4.94589
4.83058
4.83058
4.72074
4.72074
4.61615
4.61615
4.51658
4.51658
4.42178
4.42178
4.33151
4.33151
4.24548
4.24548
4.1634
4.1634
4.08495
4.08495
4.00983
4.00983
3.93771
3.93771
3.8683
3.8683
3.80135
3.80135
3.73666
3.73666
3.67406
3.67406
3.6134
3.6134
3.55456
3.55456
3.49739
3.49739
3.44171
3.44171
3.38729
3.38729
3.33392
3.33392
3.28141
3.28141
3.22957
3.22957
3.17828
3.17828
3.12743
3.12743
3.07694
3.07694
3.0268
3.0268
2.97701
2.97701
2.92766
2.92766
2.87882
2.87882
2.83058
2.83058
2.783
2.783
2.73604
2.73604
2.68961
2.68961
2.64353
2.64353
2.59755
2.59755
2.55137
2.55138
2.50467
2.50467
2.45715
2.45715
2.40864
2.40865
2.35919
2.35919
2.30896
2.30896
2.2583
2.2583
2.20765
2.20765
2.15752
2.15752
2.10828
2.10827
2.06004
2.06003
2.01273
2.01272
1.96629
1.96629
1.92075
1.92075
1.87625
1.87624
1.83303
1.83302
1.79138
1.79138
1.75161
1.7516
1.71394
1.71394
1.67855
1.67855
1.64554
1.64554
1.61494
1.61494
1.58677
1.58677
1.561
1.561
1.53755
1.53755
1.51629
1.51629
1.49703
1.49703
1.4795
1.4795
1.46337
1.46337
1.44828
1.44828
1.43378
1.43378
1.41944
1.41944
1.40483
1.40483
1.38962
1.38962
1.3735
1.3735
1.35616
1.35616
1.33724
1.33723
1.31641
1.31641
1.29356
1.29356
1.26885
1.26885
1.24266
1.24265
1.2155
1.2155
1.18809
1.18809
1.16124
1.16124
1.1357
1.1357
1.11191
1.11191
1.09002
1.09002
1.07004
1.07004
1.05196
1.05196
1.0358
1.0358
1.02155
1.02155
1.00924
1.00924
0.998809
0.998809
0.990155
0.990155
0.983035
0.983035
0.977123
0.977123
0.972068
0.972068
0.96747
0.96747
0.962757
0.962758
0.9572
0.957201
0.950153
0.950153
0.941309
0.941309
0.930838
0.930838
0.919272
0.919272
0.907207
0.907207
0.895105
0.895105
0.883362
0.883361
0.872448
0.872448
0.862836
0.862836
0.854832
0.854832
0.848571
0.848572
0.844161
0.844162
0.841815
0.841817
0.0109988
0.0109988
0.268866
0.268866
1.83778
1.83778
5.41494
5.41494
9.62532
9.62532
13.4964
13.4964
16.9496
16.9496
20.0782
20.0782
22.9644
22.9644
25.6649
25.6649
28.2183
28.2183
30.6515
30.6515
32.9835
32.9835
35.2278
35.2278
37.3946
37.3946
39.4913
39.4913
41.5233
41.5233
43.4946
43.4946
45.4081
45.4081
47.2654
47.2654
49.0678
49.0678
50.8158
50.8158
52.5091
52.5091
54.1474
54.1474
55.7296
55.7296
57.2545
57.2545
58.7205
58.7205
60.1258
60.1258
61.4684
61.4684
62.7461
62.7461
63.9565
63.9565
65.0972
65.0972
66.1657
66.1657
67.1595
67.1595
68.076
68.076
68.9129
68.9129
69.6677
69.6677
70.3384
70.3384
70.9229
70.9229
71.4194
71.4194
71.8266
71.8266
72.1433
72.1433
72.3687
72.3687
72.5026
72.5026
72.5451
72.5451
72.497
72.497
72.3595
72.3595
72.1344
72.1344
71.8241
71.8241
71.4319
71.4319
70.9614
70.9614
70.4171
70.4171
69.804
69.804
69.128
69.128
68.3955
68.3955
67.6134
67.6134
66.7894
66.7894
65.9317
65.9317
65.0488
65.0488
64.1496
64.1496
63.2436
63.2436
62.3401
62.3401
61.4487
61.4487
60.579
60.579
59.7401
59.7401
58.9413
58.9413
58.1908
58.1908
57.4968
57.4968
56.8663
56.8663
56.3055
56.3055
55.8198
55.8198
55.4132
55.4132
55.0885
55.0885
54.8475
54.8475
54.6906
54.6906
54.6166
54.6166
54.6233
54.6233
54.7075
54.7075
54.8645
54.8645
55.089
55.089
55.3745
55.3745
55.7141
55.7141
56.1002
56.1002
56.5248
56.5248
56.9797
56.9797
57.4566
57.4566
57.9472
57.9472
58.4433
58.4433
58.9372
58.9372
59.4212
59.4212
59.8884
59.8884
60.3322
60.3322
60.7467
60.7467
61.1265
61.1265
61.4669
61.4669
61.7637
61.7637
62.0135
62.0135
62.2136
62.2136
62.3616
62.3616
62.456
62.456
62.4957
62.4957
62.4802
62.4802
62.4093
62.4093
62.2835
62.2835
62.1035
62.1035
61.8704
61.8704
61.5856
61.5856
61.2508
61.2508
60.8679
60.8679
60.4389
60.4389
59.9661
59.9661
59.4517
59.4517
58.8982
58.8982
58.308
58.308
57.6836
57.6836
57.0274
57.0274
56.3419
56.3419
55.6295
55.6295
54.8926
54.8926
54.1335
54.1335
53.3544
53.3544
52.5575
52.5575
51.7448
51.7448
50.9184
50.9184
50.0801
50.0801
49.2317
49.2317
48.375
48.375
47.5114
47.5114
46.6426
46.6426
45.77
45.77
44.8949
44.8949
44.0186
44.0186
43.1423
43.1423
42.267
42.267
41.3938
41.3938
40.5237
40.5237
39.6576
39.6576
38.7963
38.7963
37.9405
37.9405
37.0911
37.0911
36.2487
36.2487
35.4139
35.4139
34.5872
34.5872
33.7693
33.7693
32.9605
32.9605
32.1614
32.1614
31.3724
31.3724
30.5937
30.5937
29.8259
29.8259
29.0692
29.0692
28.324
28.324
27.5905
27.5905
26.8689
26.8689
26.1596
26.1596
25.4627
25.4627
24.7784
24.7784
24.1069
24.1069
23.4484
23.4484
22.803
22.803
22.1708
22.1708
21.5519
21.5519
20.9463
20.9463
20.3542
20.3542
19.7754
19.7754
19.2099
19.2099
18.6577
18.6577
18.1187
18.1187
17.5927
17.5927
17.0796
17.0796
16.5792
16.5792
16.0914
16.0914
15.6158
15.6158
15.1524
15.1524
14.701
14.701
14.2613
14.2613
13.8333
13.8333
13.4168
13.4168
13.0115
13.0115
12.6175
12.6175
12.2345
12.2345
11.8623
11.8623
11.5009
11.5009
11.15
11.15
10.8096
10.8096
10.4794
10.4794
10.1592
10.1592
9.84893
9.84893
9.54833
9.54833
9.25723
9.25723
8.97544
8.97544
8.70278
8.70278
8.4391
8.4391
8.18423
8.18423
7.93803
7.93803
7.70036
7.70036
7.47108
7.47108
7.25007
7.25007
7.0372
7.0372
6.83236
6.83236
6.63541
6.63541
6.44624
6.44624
6.26471
6.26471
6.09067
6.09068
5.92397
5.92397
5.76442
5.76442
5.61183
5.61183
5.466
5.46601
5.32672
5.32672
5.19374
5.19374
5.06687
5.06687
4.94589
4.94589
4.83058
4.83058
4.72074
4.72074
4.61615
4.61615
4.51658
4.51658
4.42179
4.42179
4.33151
4.33151
4.24548
4.24548
4.1634
4.1634
4.08496
4.08496
4.00983
4.00983
3.93771
3.93771
3.8683
3.8683
3.80136
3.80136
3.73667
3.73667
3.67406
3.67406
3.6134
3.6134
3.55457
3.55457
3.4974
3.4974
3.44171
3.44171
3.38729
3.38729
3.33393
3.33393
3.28141
3.28141
3.22958
3.22958
3.17828
3.17828
3.12743
3.12743
3.07695
3.07695
3.0268
3.0268
2.97702
2.97702
2.92766
2.92766
2.87882
2.87882
2.83059
2.83059
2.783
2.783
2.73605
2.73604
2.68961
2.68961
2.64353
2.64353
2.59755
2.59755
2.55138
2.55138
2.50467
2.50467
2.45715
2.45715
2.40865
2.40865
2.35919
2.35919
2.30897
2.30896
2.2583
2.2583
2.20765
2.20765
2.15752
2.15752
2.10828
2.10828
2.06004
2.06004
2.01272
2.01273
1.96629
1.96629
1.92075
1.92075
1.87625
1.87625
1.83302
1.83303
1.79138
1.79138
1.75161
1.75161
1.71394
1.71394
1.67855
1.67855
1.64554
1.64554
1.61494
1.61494
1.58677
1.58677
1.561
1.561
1.53755
1.53755
1.51629
1.51629
1.49703
1.49703
1.4795
1.4795
1.46337
1.46337
1.44828
1.44828
1.43378
1.43378
1.41944
1.41944
1.40483
1.40484
1.38962
1.38962
1.3735
1.3735
1.35616
1.35616
1.33723
1.33723
1.31641
1.31641
1.29356
1.29356
1.26885
1.26885
1.24265
1.24265
1.2155
1.2155
1.18809
1.18809
1.16124
1.16124
1.1357
1.1357
1.11191
1.11191
1.09002
1.09002
1.07004
1.07004
1.05196
1.05196
1.0358
1.0358
1.02155
1.02155
1.00924
1.00924
0.998809
0.998809
0.990155
0.990155
0.983035
0.983035
0.977123
0.977123
0.972069
0.972068
0.967471
0.96747
0.962758
0.962757
0.957201
0.9572
0.950153
0.950153
0.941309
0.941309
0.930837
0.930838
0.919272
0.919272
0.907207
0.907207
0.895104
0.895105
0.883361
0.883361
0.872448
0.872448
0.862836
0.862836
0.854832
0.854832
0.848572
0.848571
0.844162
0.844161
0.841817
0.841815
0.841808
0.841809
0.844139
0.844141
0.848531
0.848532
0.854763
0.854763
0.862743
0.862743
0.872323
0.872323
0.883195
0.883195
0.894903
0.894903
0.906931
0.90693
0.918873
0.918873
0.930318
0.930318
0.940697
0.940697
0.949472
0.949472
0.956491
0.956491
0.962084
0.962085
0.966877
0.966878
0.971557
0.971557
0.97668
0.97668
0.982647
0.982647
0.989818
0.989818
0.998531
0.99853
1.00902
1.00902
1.0214
1.0214
1.03571
1.03571
1.05193
1.05193
1.07007
1.07007
1.09011
1.09011
1.11205
1.11205
1.13589
1.13589
1.16149
1.16149
1.1884
1.1884
1.21587
1.21587
1.24305
1.24305
1.26923
1.26923
1.29388
1.29388
1.31662
1.31662
1.33734
1.33734
1.35619
1.35619
1.37347
1.37347
1.38956
1.38956
1.40474
1.40474
1.41932
1.41932
1.43362
1.43362
1.44808
1.44808
1.46313
1.46313
1.47923
1.47922
1.49672
1.49672
1.51595
1.51595
1.53719
1.53719
1.56063
1.56063
1.5864
1.5864
1.61456
1.61456
1.64515
1.64515
1.67816
1.67816
1.71355
1.71355
1.75123
1.75123
1.79101
1.79101
1.83266
1.83265
1.87588
1.87588
1.92041
1.9204
1.96597
1.96597
2.01243
2.01242
2.05974
2.05973
2.10796
2.10796
2.15717
2.15717
2.20726
2.20726
2.25789
2.25789
2.30854
2.30854
2.35875
2.35876
2.40818
2.40818
2.45663
2.45663
2.50412
2.50412
2.55082
2.55082
2.59701
2.59701
2.64304
2.64304
2.6892
2.6892
2.73572
2.73572
2.78276
2.78276
2.8304
2.8304
2.87864
2.87864
2.92746
2.92746
2.97679
2.97679
3.02654
3.02654
3.07666
3.07666
3.12712
3.12712
3.17795
3.17795
3.22923
3.22923
3.28108
3.28108
3.3336
3.3336
3.38697
3.38697
3.44142
3.44142
3.49715
3.49715
3.55437
3.55437
3.61328
3.61328
3.67402
3.67402
3.73668
3.73668
3.80142
3.80142
3.86839
3.86839
3.93782
3.93782
4.00995
4.00995
4.0851
4.0851
4.16356
4.16356
4.24566
4.24566
4.3317
4.3317
4.42197
4.42197
4.51674
4.51674
4.61627
4.61627
4.72083
4.72083
4.83064
4.83064
4.94592
4.94592
5.06689
5.06689
5.19375
5.19375
5.32673
5.32673
5.46602
5.46602
5.61186
5.61186
5.76446
5.76446
5.92402
5.92402
6.09075
6.09075
6.2648
6.2648
6.44635
6.44635
6.63553
6.63553
6.83247
6.83247
7.03732
7.03732
7.25019
7.25019
7.47121
7.47121
7.7005
7.7005
7.93817
7.93817
8.18437
8.18437
8.43925
8.43925
8.70294
8.70294
8.97561
8.97561
9.25741
9.25741
9.54851
9.54851
9.8491
9.8491
10.1594
10.1594
10.4795
10.4795
10.8097
10.8097
11.1502
11.1502
11.501
11.501
11.8625
11.8625
12.2346
12.2346
12.6176
12.6176
13.0117
13.0117
13.4169
13.4169
13.8335
13.8335
14.2615
14.2615
14.7012
14.7012
15.1526
15.1526
15.616
15.616
16.0916
16.0916
16.5795
16.5795
17.0799
17.0799
17.593
17.593
18.119
18.119
18.6581
18.6581
19.2103
19.2103
19.7757
19.7757
20.3545
20.3545
20.9467
20.9467
21.5523
21.5523
22.1712
22.1712
22.8034
22.8034
23.4488
23.4488
24.1074
24.1074
24.7789
24.7789
25.4632
25.4632
26.1601
26.1601
26.8695
26.8695
27.5911
27.5911
28.3246
28.3246
29.0699
29.0699
29.8266
29.8266
30.5944
30.5944
31.3731
31.3731
32.1622
32.1622
32.9614
32.9614
33.7702
33.7702
34.5882
34.5882
35.4149
35.4149
36.2498
36.2498
37.0924
37.0924
37.9419
37.9419
38.7977
38.7977
39.6591
39.6591
40.5253
40.5253
41.3955
41.3955
42.2687
42.2687
43.1441
43.1441
44.0205
44.0205
44.8968
44.8968
45.772
45.772
46.6447
46.6447
47.5136
47.5136
48.3772
48.3772
49.234
49.234
50.0824
50.0824
50.9207
50.9207
51.747
51.747
52.5596
52.5596
53.3565
53.3565
54.1355
54.1355
54.8945
54.8945
55.6313
55.6313
56.3435
56.3435
57.0287
57.0287
57.6846
57.6846
58.3089
58.3089
58.8989
58.8989
59.4524
59.4524
59.9668
59.9668
60.4396
60.4396
60.8686
60.8686
61.2516
61.2516
61.5864
61.5864
61.8713
61.8713
62.1044
62.1044
62.2843
62.2843
62.41
62.41
62.4809
62.4809
62.4965
62.4965
62.4568
62.4568
62.3626
62.3626
62.2148
62.2148
62.0149
62.0149
61.7652
61.7652
61.4684
61.4684
61.128
61.128
60.7478
60.7478
60.3327
60.3327
59.888
59.888
59.4198
59.4198
58.9351
58.9351
58.4409
58.4409
57.9444
57.9444
57.4534
57.4534
56.9761
56.9761
56.5207
56.5207
56.0954
56.0954
55.7087
55.7087
55.3684
55.3684
55.0822
55.0822
54.857
54.857
54.6994
54.6994
54.6146
54.6146
54.6072
54.6072
54.6805
54.6805
54.8369
54.8369
55.0772
55.0772
55.4012
55.4012
55.8072
55.8072
56.2922
56.2922
56.8524
56.8524
57.4824
57.4824
58.1759
58.1759
58.9259
58.9259
59.7244
59.7244
60.5629
60.5629
61.4324
61.4324
62.3235
62.3235
63.2265
63.2265
64.1322
64.1322
65.0312
65.0312
65.9142
65.9142
66.7721
66.7721
67.5964
67.5964
68.3788
68.3788
69.1119
69.1119
69.7888
69.7888
70.4028
70.4028
70.9478
70.9478
71.4187
71.4187
71.8116
71.8116
72.1227
72.1227
72.3488
72.3488
72.4872
72.4872
72.5362
72.5362
72.4945
72.4945
72.3615
72.3615
72.1368
72.1368
71.8208
71.8208
71.4144
71.4144
70.9185
70.9185
70.3345
70.3345
69.6642
69.6642
68.9098
68.9098
68.0732
68.0732
67.157
67.157
66.1635
66.1635
65.0952
65.0952
63.9546
63.9546
62.7444
62.7444
61.467
61.467
60.1247
60.1247
58.7197
58.7197
57.254
57.254
55.7293
55.7293
54.1472
54.1472
52.5091
52.5091
50.8158
50.8158
49.0679
49.0679
47.2655
47.2655
45.4081
45.4081
43.4947
43.4947
41.5234
41.5234
39.4914
39.4914
37.3947
37.3947
35.2279
35.2279
32.9836
32.9836
30.6516
30.6516
28.2184
28.2184
25.6649
25.6649
22.9644
22.9644
20.0783
20.0783
16.9496
16.9496
13.4964
13.4964
9.62531
9.62531
5.41492
5.41492
1.83777
1.83777
0.268863
0.268863
0.0109989
0.0109989
0.841809
0.841808
0.844141
0.844139
0.848532
0.848531
0.854763
0.854763
0.862743
0.862743
0.872323
0.872323
0.883195
0.883195
0.894903
0.894903
0.906931
0.906931
0.918873
0.918873
0.930318
0.930319
0.940697
0.940697
0.949472
0.949472
0.956491
0.956491
0.962085
0.962084
0.966878
0.966877
0.971557
0.971556
0.97668
0.97668
0.982647
0.982647
0.989818
0.989818
0.99853
0.99853
1.00902
1.00902
1.0214
1.0214
1.03571
1.03571
1.05193
1.05193
1.07007
1.07007
1.09011
1.09011
1.11205
1.11205
1.13589
1.13589
1.16149
1.16149
1.1884
1.1884
1.21587
1.21587
1.24305
1.24305
1.26923
1.26923
1.29388
1.29388
1.31662
1.31662
1.33734
1.33734
1.35619
1.35619
1.37347
1.37347
1.38956
1.38956
1.40474
1.40474
1.41932
1.41932
1.43363
1.43363
1.44808
1.44808
1.46314
1.46314
1.47923
1.47923
1.49672
1.49672
1.51595
1.51595
1.53719
1.53719
1.56063
1.56063
1.5864
1.5864
1.61456
1.61456
1.64515
1.64516
1.67816
1.67816
1.71355
1.71355
1.75123
1.75123
1.79101
1.79101
1.83266
1.83266
1.87588
1.87588
1.92041
1.92041
1.96597
1.96598
2.01243
2.01243
2.05974
2.05974
2.10796
2.10796
2.15718
2.15718
2.20727
2.20726
2.25789
2.25789
2.30855
2.30854
2.35876
2.35876
2.40819
2.40818
2.45664
2.45663
2.50412
2.50412
2.55082
2.55082
2.59702
2.59701
2.64304
2.64304
2.6892
2.6892
2.73573
2.73573
2.78277
2.78276
2.8304
2.8304
2.87864
2.87864
2.92746
2.92746
2.97679
2.97679
3.02654
3.02654
3.07666
3.07666
3.12712
3.12712
3.17795
3.17795
3.22923
3.22923
3.28108
3.28108
3.3336
3.3336
3.38697
3.38697
3.44141
3.44141
3.49714
3.49714
3.55437
3.55437
3.61328
3.61328
3.67401
3.67401
3.73668
3.73668
3.80141
3.80141
3.86839
3.86839
3.93781
3.93781
4.00994
4.00995
4.08509
4.08509
4.16356
4.16356
4.24566
4.24566
4.3317
4.3317
4.42196
4.42196
4.51673
4.51673
4.61627
4.61627
4.72082
4.72083
4.83063
4.83063
4.94591
4.94591
5.06688
5.06688
5.19374
5.19375
5.32672
5.32672
5.46602
5.46602
5.61185
5.61186
5.76445
5.76445
5.92401
5.92401
6.09074
6.09074
6.26479
6.26479
6.44634
6.44634
6.63552
6.63552
6.83247
6.83247
7.03731
7.03731
7.25018
7.25019
7.47121
7.47121
7.70049
7.70049
7.93816
7.93816
8.18437
8.18437
8.43924
8.43924
8.70293
8.70293
8.9756
8.9756
9.2574
9.2574
9.5485
9.5485
9.8491
9.8491
10.1594
10.1594
10.4795
10.4795
10.8097
10.8097
11.1502
11.1502
11.501
11.501
11.8624
11.8624
12.2346
12.2346
12.6176
12.6176
13.0117
13.0117
13.4169
13.4169
13.8335
13.8335
14.2615
14.2615
14.7012
14.7012
15.1526
15.1526
15.616
15.616
16.0916
16.0916
16.5795
16.5795
17.0799
17.0799
17.593
17.593
18.119
18.119
18.6581
18.6581
19.2103
19.2103
19.7757
19.7757
20.3545
20.3545
20.9467
20.9467
21.5523
21.5523
22.1712
22.1712
22.8034
22.8034
23.4488
23.4488
24.1074
24.1074
24.7789
24.7789
25.4632
25.4632
26.1601
26.1601
26.8695
26.8695
27.591
27.591
28.3246
28.3246
29.0699
29.0699
29.8266
29.8266
30.5944
30.5944
31.3731
31.3731
32.1622
32.1622
32.9614
32.9614
33.7702
33.7702
34.5882
34.5882
35.4149
35.4149
36.2498
36.2498
37.0924
37.0924
37.9419
37.9419
38.7977
38.7977
39.6591
39.6591
40.5253
40.5253
41.3955
41.3955
42.2687
42.2687
43.144
43.144
44.0205
44.0205
44.8968
44.8968
45.772
45.772
46.6447
46.6447
47.5136
47.5136
48.3772
48.3772
49.2339
49.2339
50.0823
50.0823
50.9206
50.9206
51.747
51.747
52.5596
52.5596
53.3565
53.3565
54.1355
54.1355
54.8945
54.8945
55.6313
55.6313
56.3435
56.3435
57.0287
57.0287
57.6846
57.6846
58.3088
58.3088
58.8989
58.8989
59.4524
59.4524
59.9668
59.9668
60.4396
60.4396
60.8686
60.8686
61.2516
61.2516
61.5864
61.5864
61.8712
61.8712
62.1044
62.1044
62.2843
62.2843
62.41
62.41
62.4809
62.4809
62.4965
62.4965
62.4568
62.4568
62.3625
62.3625
62.2147
62.2147
62.0149
62.0149
61.7652
61.7652
61.4684
61.4684
61.128
61.128
60.7478
60.7478
60.3327
60.3327
59.888
59.888
59.4198
59.4198
58.9351
58.9351
58.4408
58.4408
57.9444
57.9444
57.4534
57.4534
56.9761
56.9761
56.5207
56.5207
56.0954
56.0954
55.7087
55.7087
55.3684
55.3684
55.0821
55.0821
54.857
54.857
54.6994
54.6994
54.6146
54.6146
54.6072
54.6072
54.6805
54.6805
54.8369
54.8369
55.0772
55.0772
55.4012
55.4012
55.8072
55.8072
56.2922
56.2922
56.8524
56.8524
57.4824
57.4824
58.1759
58.1759
58.9259
58.9259
59.7244
59.7244
60.563
60.563
61.4324
61.4324
62.3235
62.3235
63.2265
63.2265
64.1322
64.1322
65.0312
65.0312
65.9142
65.9142
66.7721
66.7721
67.5964
67.5964
68.3789
68.3789
69.112
69.112
69.7888
69.7888
70.4028
70.4028
70.9478
70.9478
71.4187
71.4187
71.8116
71.8116
72.1228
72.1228
72.3489
72.3489
72.4872
72.4872
72.5362
72.5362
72.4945
72.4945
72.3615
72.3615
72.1368
72.1368
71.8208
71.8208
71.4144
71.4144
70.9185
70.9185
70.3345
70.3345
69.6642
69.6642
68.9098
68.9098
68.0732
68.0732
67.157
67.157
66.1635
66.1635
65.0952
65.0952
63.9546
63.9546
62.7444
62.7444
61.467
61.467
60.1247
60.1247
58.7197
58.7197
57.254
57.254
55.7293
55.7293
54.1472
54.1472
52.5091
52.5091
50.8158
50.8158
49.0679
49.0679
47.2655
47.2655
45.4081
45.4081
43.4947
43.4947
41.5234
41.5234
39.4914
39.4914
37.3947
37.3947
35.2279
35.2279
32.9836
32.9836
30.6516
30.6516
28.2184
28.2184
25.6649
25.6649
22.9644
22.9644
20.0783
20.0783
16.9496
16.9496
13.4964
13.4964
9.62531
9.62531
5.41492
5.41492
1.83777
1.83777
0.268863
0.268863
0.0109989
0.0109989
)
;

boundaryField
{
    walls
    {
        type            kqRWallFunction;
        value           nonuniform List<scalar> 8(0.0109988 0.0109988 0.0109988 0.0109988 0.0109989 0.0109989 0.0109989 0.0109989);
    }
    inlet
    {
        type            cyclic;
    }
    outlet
    {
        type            cyclic;
    }
    sides
    {
        type            empty;
    }
}


// ************************************************************************* //
