/*--------------------------------*- C++ -*----------------------------------*\
| =========                 |                                                 |
| \\      /  F ield         | OpenFOAM: The Open Source CFD Toolbox           |
|  \\    /   O peration     | Version:  2012                                  |
|   \\  /    A nd           | Website:  www.openfoam.com                      |
|    \\/     M anipulation  |                                                 |
\*---------------------------------------------------------------------------*/
FoamFile
{
    version     2.0;
    format      ascii;
    class       volTensorField;
    location    "20000";
    object      grad(U);
}
// * * * * * * * * * * * * * * * * * * * * * * * * * * * * * * * * * * * * * //

dimensions      [0 0 -1 0 0 0 0];


internalField   nonuniform List<tensor> 
640
(
(0 4.21126e-30 3.94806e-31 33.4827 -3.17313e-12 -2.08865e-13 0.191462 -9.08085e-15 -3.52925e-16)
(0 -4.21126e-30 -2.63204e-31 33.4827 -6.97036e-15 -2.31981e-16 0.191462 -4.76186e-17 4.52627e-16)
(0 -5.47723e-26 -8.46038e-28 33.4629 -1.70251e-31 -9.35747e-14 0.585653 -6.31089e-30 -1.13408e-15)
(0 -7.94558e-30 -2.48299e-31 33.4629 -7.13796e-15 -3.01726e-16 0.585653 -3.65392e-17 -5.51785e-18)
(-2.6373e-16 2.24869e-29 9.36956e-31 33.4416 6.15299e-13 -4.48355e-14 0.884741 -8.50394e-15 -1.171e-15)
(6.57863e-17 -1.49913e-29 -4.68478e-31 33.4416 -1.36579e-14 -1.51019e-16 0.884741 -1.42938e-16 -1.0017e-17)
(1.78224e-16 -5.99548e-30 -8.27062e-31 33.4172 1.9159e-13 -4.61266e-14 0.937103 -2.35535e-14 -1.34675e-15)
(0 1.06068e-29 8.83899e-31 33.4172 -1.26528e-14 -2.10363e-16 0.937103 -2.30512e-16 -1.72614e-17)
(0 -1.74112e-45 0 33.3848 6.05283e-31 -4.96647e-14 0.992219 6.31089e-30 -1.52623e-15)
(-5.11788e-16 0 0 33.3848 -1.43084e-14 -3.4573e-16 0.992219 -3.35312e-16 -2.86584e-17)
(0 -1.88791e-29 -7.86629e-31 33.3322 4.65533e-14 -5.24315e-14 1.04966 -2.37859e-15 -1.68772e-15)
(7.55296e-16 1.88791e-29 7.86629e-31 33.3322 -1.56267e-14 -5.31504e-16 1.04966 -4.62786e-16 -4.61741e-17)
(-9.24803e-16 3.31431e-29 3.18519e-30 33.2331 2.14723e-14 -5.43004e-14 1.10829 -4.13603e-16 -1.83985e-15)
(4.17757e-16 -2.37467e-29 -2.96834e-30 33.2331 -1.74728e-14 -7.20215e-16 1.10829 -6.04831e-16 -7.11642e-17)
(-7.16559e-16 2.69913e-29 3.64085e-30 33.0388 2.97897e-14 -5.51728e-14 1.1657 -9.9656e-16 -1.95822e-15)
(0 -1.68015e-29 -2.80025e-30 33.0388 -1.70219e-14 -8.02611e-16 1.1657 -7.81371e-16 -1.05239e-16)
(7.43567e-16 -1.05667e-29 -1.98126e-30 32.6719 2.97939e-14 -5.42988e-14 1.21778 -1.05396e-15 -2.00173e-15)
(2.42537e-15 1.58501e-29 1.98126e-30 32.6719 -1.85304e-14 -7.21166e-16 1.21778 -9.31498e-16 -1.4765e-16)
(4.74937e-16 -1.94657e-29 -2.11884e-30 32.0296 3.04681e-14 -5.08808e-14 1.25872 -1.12011e-15 -1.92828e-15)
(0 1.49526e-29 1.86907e-30 32.0296 -2.21702e-14 -6.34794e-16 1.25872 -1.1571e-15 -1.96932e-16)
(-1.77981e-15 8.92681e-30 6.6078e-31 31.0069 3.23969e-14 -4.46042e-14 1.28207 -1.23795e-15 -1.71964e-15)
(0 0 0 31.0069 -2.25222e-14 -5.55809e-16 1.28207 -1.41027e-15 -2.53325e-16)
(1.29573e-15 -4.36141e-30 2.66287e-31 29.5385 3.41617e-14 -3.6036e-14 1.28302 -1.42137e-15 -1.40034e-15)
(3.9344e-15 0 0 29.5385 -2.32276e-14 -4.32752e-16 1.28302 -1.68619e-15 -3.1329e-16)
(-7.40006e-16 1.68928e-29 1.55643e-30 27.6399 3.4928e-14 -2.66017e-14 1.2606 -1.54888e-15 -1.03779e-15)
(1.78219e-15 -4.18451e-30 -1.04613e-30 27.6399 -2.37106e-14 -2.52771e-16 1.2606 -1.98278e-15 -3.73593e-16)
(1.9445e-15 -3.19113e-29 -7.49438e-30 25.4164 3.53138e-14 -1.79644e-14 1.2182 -1.66978e-15 -7.05417e-16)
(5.55575e-15 2.76329e-29 6.90822e-30 25.4164 -2.33108e-14 -9.91386e-17 1.2182 -2.29166e-15 -4.2782e-16)
(-9.25684e-16 -1.06809e-29 -2.15075e-30 23.0282 3.428e-14 -1.12979e-14 1.16204 -1.77918e-15 -4.55891e-16)
(0 1.48961e-29 3.72402e-30 23.0282 -2.25678e-14 -1.43857e-17 1.16204 -2.62029e-15 -4.76653e-16)
(-1.0151e-15 -2.39334e-29 -5.46935e-30 20.6369 3.24262e-14 -6.98362e-15 1.09878 -1.76612e-15 -3.05419e-16)
(4.06038e-15 2.81051e-29 7.02628e-30 20.6369 -2.06066e-14 9.07898e-17 1.09878 -2.95042e-15 -5.17747e-16)
(1.10035e-15 9.13485e-30 1.786e-30 18.3659 3.099e-14 -4.73228e-15 1.03386 -1.78984e-15 -2.42755e-16)
(2.53566e-15 -6.6284e-30 0 18.3659 -1.84044e-14 1.33506e-16 1.03386 -3.25179e-15 -5.49478e-16)
(5.79258e-16 -8.43918e-30 -2.41533e-30 16.2875 2.97547e-14 -3.94608e-15 0.970919 -1.81257e-15 -2.43419e-16)
(2.96321e-15 1.87592e-29 3.90816e-30 16.2875 -1.87853e-14 2.30972e-16 0.970919 -3.57866e-15 -5.73641e-16)
(-2.51274e-15 1.39064e-29 5.85878e-30 14.4313 2.82161e-14 -4.04788e-15 0.912008 -1.85441e-15 -2.86466e-16)
(0 -5.89897e-30 -4.42423e-30 14.4313 -1.92321e-14 4.48912e-16 0.912008 -3.95861e-15 -5.86435e-16)
(1.56639e-15 -2.78246e-29 -8.34739e-30 12.7976 2.63687e-14 -4.67461e-15 0.858038 -1.82973e-15 -3.62883e-16)
(3.74218e-15 2.78246e-29 8.34739e-30 12.7976 -1.77879e-14 5.26055e-16 0.858038 -4.34257e-15 -5.83651e-16)
(0 2.09992e-29 6.56225e-30 11.3714 2.47105e-14 -5.58044e-15 0.809213 -1.8203e-15 -4.58803e-16)
(0 -2.09992e-29 -6.56225e-30 11.3714 -1.69814e-14 6.06262e-16 0.809213 -4.73294e-15 -5.71536e-16)
(-1.39401e-15 9.90505e-30 3.71439e-30 10.1306 2.33727e-14 -6.55082e-15 0.765343 -1.80536e-15 -5.63229e-16)
(-5.82277e-15 0 -1.23813e-30 10.1306 -1.58085e-14 5.431e-16 0.765343 -5.13092e-15 -5.41393e-16)
(-1.51425e-15 8.4673e-30 1.90765e-30 9.05181 2.21838e-14 -7.38938e-15 0.726051 -1.83104e-15 -6.57956e-16)
(0 0 0 9.05181 -1.23249e-14 3.27714e-16 0.726051 -5.53796e-15 -5.12332e-16)
(1.56951e-15 -2.5781e-29 -8.46107e-30 8.11255 2.11594e-14 -8.18353e-15 0.690884 -1.82668e-15 -7.75846e-16)
(1.25561e-14 2.20376e-29 7.71315e-30 8.11255 -1.16869e-14 3.468e-16 0.690884 -5.82503e-15 -4.85859e-16)
(1.62182e-15 1.70969e-29 8.59289e-30 7.29277 1.97002e-14 -8.95912e-15 0.659385 -1.87303e-15 -8.87329e-16)
(0 -2.07897e-29 -9.35534e-30 7.29277 -1.37618e-14 6.37883e-16 0.659385 -6.13324e-15 -4.43587e-16)
(-5.55116e-15 1.51822e-29 4.50217e-30 6.57503 1.72762e-14 -9.6285e-15 0.631122 -1.7741e-15 -1.00719e-15)
(6.686e-15 0 -9.8062e-31 6.57503 -1.28261e-14 7.00946e-16 0.631122 -6.49634e-15 -3.69964e-16)
(-3.43764e-15 1.84068e-29 5.31071e-30 5.94444 1.70248e-14 -1.01843e-14 0.6057 -1.61428e-15 -1.11625e-15)
(-6.87529e-15 -1.11011e-29 -3.70036e-30 5.94444 -1.23285e-14 4.73163e-16 0.6057 -6.80976e-15 -2.85376e-16)
(0 1.39633e-29 3.49082e-30 5.38839 1.78383e-14 -1.0557e-14 0.58277 -1.93957e-15 -1.21645e-15)
(-1.96516e-15 -6.98165e-30 -1.74541e-30 5.38839 -1.26841e-14 6.24518e-16 0.58277 -7.16716e-15 -1.9145e-16)
(-4.65288e-17 3.09506e-30 2.42635e-30 4.89629 1.62449e-14 -1.0908e-14 0.562024 -1.99881e-15 -1.33885e-15)
(0 0 -1.64657e-30 4.89629 -1.17387e-14 7.55024e-16 0.562024 -7.51703e-15 -6.06363e-17)
(3.59786e-15 -2.2104e-29 -1.02252e-29 4.45921 1.44768e-14 -1.12514e-14 0.543195 -1.79547e-15 -1.45458e-15)
(-1.7489e-15 1.864e-29 7.76667e-30 4.45921 -1.04942e-14 7.01202e-16 0.543195 -7.95466e-15 8.65461e-17)
(0 0 -2.93075e-30 4.06966 1.36706e-14 -1.15022e-14 0.526049 -1.79437e-15 -1.5723e-15)
(0 5.8615e-30 4.39612e-30 4.06966 -1.04702e-14 5.04227e-16 0.526049 -8.33709e-15 3.80342e-17)
(-5.78312e-15 3.21678e-29 1.26476e-29 3.72129 1.39672e-14 -1.16738e-14 0.510384 -1.7992e-15 -1.6837e-15)
(-1.08237e-14 -1.65887e-29 -9.67676e-30 3.72129 -1.06199e-14 1.9729e-16 0.510384 -8.73388e-15 3.87821e-16)
(1.96512e-15 -8.46566e-30 -2.33887e-30 3.40879 1.25025e-14 -1.18649e-14 0.496024 -2.10138e-15 -1.82486e-15)
(7.86046e-15 0 1.30411e-30 3.40879 -8.6942e-15 3.69198e-17 0.496024 -9.09641e-15 5.22079e-16)
(-2.00137e-15 3.26337e-30 1.75162e-46 3.1276 9.81244e-15 7.88861e-31 0.482815 -1.57609e-15 0)
(8.00547e-15 4.92107e-30 0 3.1276 -8.67209e-15 9.55832e-17 0.482815 -9.52568e-15 6.30545e-16)
(-2.03656e-15 -6.06264e-30 -2.70477e-30 2.87387 9.62508e-15 2.16817e-14 0.470624 -1.4937e-15 -3.33779e-15)
(0 9.2848e-30 5.803e-30 2.87387 -9.79973e-15 2.5834e-16 0.470624 -1.00212e-14 7.14983e-16)
(-2.07078e-15 3.14961e-30 -2.71728e-30 2.64431 9.85291e-15 2.41311e-14 0.459333 -1.70694e-15 -3.87366e-15)
(0 0 4.37952e-30 2.64431 -8.79146e-15 9.43645e-17 0.459333 -1.03072e-14 7.88023e-16)
(2.32584e-15 -4.13152e-30 -4.13152e-30 2.43609 9.4514e-15 2.58573e-14 0.44884 -1.76096e-15 -4.63811e-15)
(0 4.13152e-30 5.1644e-30 2.43609 -8.63672e-15 -6.00593e-17 0.44884 -1.06686e-14 8.35572e-16)
(5.75178e-17 1.08014e-29 6.90235e-30 2.24679 9.30112e-15 2.65916e-14 0.439053 -1.76378e-15 -5.01571e-15)
(-2.19413e-15 -7.79513e-30 -6.82074e-30 2.24679 -9.00071e-15 1.23181e-16 0.439053 -1.12154e-14 8.4432e-16)
(-2.06989e-15 1.47074e-29 4.59607e-30 2.0743 9.35673e-15 2.70597e-14 0.429893 -1.91752e-15 -4.23816e-15)
(1.07433e-14 -1.47074e-29 -4.59607e-30 2.0743 -7.02957e-15 3.12802e-16 0.429893 -1.15178e-14 8.43292e-16)
(-4.15205e-15 1.67068e-29 2.60149e-30 1.91681 9.28056e-15 2.32131e-14 0.421288 -2.00589e-15 -2.80233e-15)
(4.89215e-15 0 -8.67162e-31 1.91681 -6.50874e-15 3.43672e-15 0.421288 -1.18226e-14 4.62986e-16)
(-1.8421e-15 0 8.18058e-31 1.77273 9.60565e-15 1.14681e-14 0.413174 -2.11978e-15 -1.78207e-15)
(0 0 -9.79794e-30 1.77273 -8.58531e-15 0 0.413174 -1.23542e-14 1.97215e-31)
(-2.25947e-15 -3.5811e-30 -2.60355e-30 1.64068 9.47776e-15 5.87386e-15 0.405496 -2.41159e-15 -8.63684e-16)
(9.03788e-15 6.17387e-30 2.81439e-30 1.64068 -8.14009e-15 -2.03906e-15 0.405496 -1.27478e-14 5.72751e-16)
(0 0 -2.00209e-30 1.51946 7.40062e-15 8.31586e-15 0.398203 -2.31615e-15 -1.07822e-15)
(9.15448e-15 0 2.14791e-30 1.51946 -6.14315e-15 -2.19194e-15 0.398203 -1.3244e-14 4.61715e-16)
(-2.31722e-15 -8.39826e-30 -5.15105e-31 1.40799 5.23691e-15 3.28224e-15 0.391248 -1.57784e-15 -5.41919e-16)
(0 5.49445e-30 5.15105e-31 1.40799 -4.90984e-15 -3.63215e-15 0.391248 -1.37068e-14 6.28202e-16)
(2.34529e-15 -7.75773e-30 -1.30201e-30 1.30535 5.10244e-15 -1.97804e-15 0.38459 -1.35265e-15 -6.35265e-16)
(9.38115e-15 5.18332e-30 1.29583e-30 1.30535 -4.00616e-15 -4.57585e-15 0.38459 -1.40577e-14 3.14985e-16)
(-2.37286e-15 7.35798e-30 9.52751e-31 1.2107 4.85878e-15 -1.99269e-15 0.378191 -1.69061e-15 -6.20054e-16)
(0 -4.88981e-30 -9.16839e-31 1.2107 -2.77373e-15 -4.5498e-15 0.378191 -1.44757e-14 -1.2267e-17)
(2.59684e-15 -4.61291e-30 -5.76614e-31 1.12332 4.41729e-15 -1.37043e-15 0.372019 -1.36175e-15 -2.85666e-16)
(7.00301e-15 4.61291e-30 5.76614e-31 1.12332 -1.40326e-15 -4.6779e-15 0.372019 -1.46002e-14 -2.87108e-16)
(0 4.3517e-30 0 1.04254 6.18296e-15 -1.02197e-15 0.366041 -1.59589e-15 -4.42573e-16)
(-9.70642e-15 1.14193e-30 0 1.04254 -4.53861e-16 -4.95286e-15 0.366041 -1.29171e-14 -8.11371e-16)
(0 0 0 0.96779 6.65072e-15 -1.7234e-15 0.360229 -2.81795e-15 -8.63299e-16)
(9.81124e-15 -2.61761e-30 -1.43331e-31 0.96779 -2.9288e-17 -4.02011e-15 0.360229 -1.01471e-14 -1.13876e-15)
(-4.65879e-15 6.07959e-30 6.55045e-32 0.898548 4.48057e-15 -2.33821e-15 0.354556 -2.15487e-15 -1.00117e-15)
(-9.91437e-15 7.77018e-30 4.02991e-31 0.898548 5.41242e-16 -2.76107e-15 0.354556 -7.91879e-15 -1.05573e-15)
(7.5119e-15 -1.05912e-29 -4.35362e-31 0.834348 4.50318e-15 -2.2656e-15 0.348999 -1.38784e-15 -9.06974e-16)
(1.00159e-14 -7.57921e-31 -4.13385e-31 0.834348 6.33364e-16 -2.81464e-15 0.348999 -7.05234e-15 -1.32612e-15)
(0 3.44662e-30 0 0.77477 4.80753e-15 -1.97902e-15 0.343534 -2.44098e-15 -8.61057e-16)
(0 0 1.42201e-30 0.77477 -1.113e-15 -1.25963e-15 0.343534 -4.6089e-15 -2.81547e-16)
(0 0 -6.91687e-31 0.719436 3.02713e-15 -1.57772e-30 0.338139 -1.83973e-15 0)
(1.02141e-14 -8.08791e-30 -1.1466e-30 0.719436 -9.24819e-17 -4.55537e-18 0.338139 -1.74682e-15 -5.2418e-16)
(0 -6.13465e-30 -7.66832e-31 0.668005 2.86025e-15 1.08855e-15 0.332794 -1.00484e-15 -3.36361e-16)
(1.03109e-14 -2.02798e-30 -1.18488e-30 0.668005 1.69777e-15 1.18364e-15 0.332794 -1.73543e-15 -4.81819e-16)
(-2.60156e-15 2.07999e-30 1.86977e-31 0.620166 2.54236e-15 2.16888e-16 0.327478 -1.89454e-15 -7.69844e-16)
(0 0 0 0.620166 1.45343e-15 1.63227e-15 0.327478 -7.03724e-16 -9.13143e-16)
(-2.62502e-15 2.29262e-30 0 0.575638 1.59263e-15 9.98402e-31 0.322171 -7.80407e-16 1.1423e-46)
(-1.05001e-14 8.96126e-30 0 0.575638 2.4808e-15 -1.5953e-16 0.322171 -8.48277e-16 -1.59252e-15)
(5.29623e-15 -4.55067e-30 -3.71274e-31 0.534162 3.01949e-15 8.16147e-16 0.316853 -1.02454e-15 -5.01541e-16)
(1.05925e-14 -8.29045e-30 6.00968e-31 0.534162 2.35426e-15 -1.07883e-15 0.316853 -1.98529e-15 -4.66873e-16)
(2.73523e-15 0 0 0.495504 3.78749e-15 -7.54643e-17 0.311503 -2.63553e-15 -6.0133e-16)
(0 0 2.73691e-47 0.495504 1.8985e-15 -3.96021e-30 0.311503 -7.97211e-16 1.97215e-31)
(2.58034e-15 0 -1.89848e-31 0.459446 3.21917e-15 5.37803e-30 0.306097 -2.15461e-15 0)
(2.15457e-14 -1.72155e-29 -1.6453e-30 0.459446 3.84463e-15 2.07034e-16 0.306097 -1.63532e-15 -3.97214e-16)
(0 4.32406e-30 0 0.425789 2.7968e-15 1.61902e-15 0.300611 -2.17436e-15 -1.27427e-15)
(1.08608e-14 -7.06111e-30 6.13392e-31 0.425789 3.68166e-15 -1.72671e-16 0.300611 -3.59103e-15 -5.43749e-16)
(4.59277e-15 -4.0792e-30 0 0.394347 3.24941e-15 6.89399e-16 0.295018 -1.80098e-15 -1.46185e-15)
(0 0 0 0.394347 2.90916e-15 -5.41953e-30 0.295018 -1.59829e-15 0)
(-5.51623e-15 3.37148e-30 0 0.364948 2.05575e-15 -7.99234e-16 0.289286 -3.14756e-15 -1.44542e-15)
(1.10325e-14 -6.65519e-30 -1.20393e-30 0.364948 3.3297e-15 7.65524e-16 0.289286 -2.83293e-15 -3.065e-16)
(0 -3.63029e-30 0 0.33743 -1.37692e-16 9.86076e-32 0.28338 -2.98681e-16 -1.97215e-31)
(0 0 0 0.33743 2.03489e-15 8.78769e-16 0.28338 -2.54998e-15 -9.63034e-16)
(6.65541e-15 -3.525e-30 0 0.311641 -2.81772e-29 4.06317e-15 0.277256 3.15544e-30 -1.56489e-15)
(1.11981e-14 -5.79403e-30 -6.21134e-31 0.311641 9.06464e-16 4.75359e-16 0.277256 -3.76778e-15 -5.15777e-16)
(-2.81964e-15 4.51918e-30 8.07698e-31 0.287436 3.68168e-15 2.20595e-15 0.270864 -4.80151e-15 -7.37067e-16)
(1.12786e-14 -1.063e-29 -1.8689e-30 0.287436 9.69719e-17 7.01144e-16 0.270864 -7.05893e-16 -3.34371e-16)
(-2.83937e-15 1.47043e-30 0 0.264679 1.39407e-15 -1.56032e-16 0.264142 -3.02969e-15 -3.88339e-16)
(0 0 0 0.264679 9.86076e-32 2.89457e-15 0.264142 0 -6.12859e-16)
(3.23725e-15 -2.87525e-30 0 0.243236 2.84234e-16 3.643e-16 0.257015 -1.32029e-15 5.80511e-17)
(1.14348e-14 -6.46094e-30 0 0.243236 1.68736e-15 6.67746e-16 0.257015 -2.34009e-15 3.23456e-17)
(0 -1.71597e-31 3.39055e-31 0.222976 6.07454e-17 -2.83443e-16 0.24939 -3.45052e-17 5.74304e-16)
(-1.15103e-14 6.53036e-30 -9.85288e-46 0.222976 -3.38027e-16 -4.45054e-31 0.24939 -2.11058e-15 -2.0933e-47)
(0 0 0 0.203769 1.16868e-15 -8.21934e-16 0.241148 -3.15259e-15 -6.66604e-16)
(-1.44651e-14 4.01617e-30 1.7823e-32 0.203769 6.66999e-30 1.44638e-15 0.241148 -3.15544e-30 -8.70901e-16)
(2.91401e-15 -1.41197e-30 -3.41983e-31 0.185483 -4.9165e-16 1.97215e-31 0.232141 -3.23407e-15 0)
(-5.43571e-15 2.41394e-30 0 0.185483 1.18673e-15 -1.60237e-31 0.232141 -3.91728e-15 -7.62344e-16)
(0 0 7.1164e-31 0.167979 0 2.73953e-15 0.222176 0 -2.11189e-16)
(1.1726e-14 -6.94251e-30 -4.90454e-45 0.167979 9.85132e-16 -1.12301e-30 0.222176 -1.13583e-15 -4.93038e-32)
(5.89695e-15 -2.78737e-30 0 0.151109 1.84649e-15 9.47218e-16 0.210997 -3.61732e-15 4.20009e-16)
(0 1.84105e-30 3.64338e-44 0.151109 1.29475e-15 -8.16712e-30 0.210997 -3.8397e-15 0)
(2.96488e-15 -1.59343e-30 3.63707e-31 0.134704 1.00215e-15 -4.72272e-16 0.198265 -1.6217e-15 3.59042e-16)
(0 0 5.06661e-31 0.134704 7.79184e-16 -3.90153e-15 0.198265 -9.28586e-16 -1.31705e-16)
(3.31239e-15 -2.32063e-30 0 0.118569 1.67491e-15 -1.55556e-15 0.183515 -1.41992e-15 -1.47796e-15)
(1.62279e-14 -5.53446e-30 -6.5861e-44 0.118569 1.70315e-15 1.48995e-29 0.183515 -1.45627e-15 -3.9443e-31)
(5.99167e-15 -3.52942e-30 -5.91812e-31 0.102467 8.15373e-16 2.14672e-15 0.16611 -4.05598e-15 -1.37263e-15)
(1.19833e-14 -1.31163e-30 6.76357e-31 0.102467 4.05514e-16 4.25232e-15 0.16611 -4.1112e-15 5.20656e-16)
(0 0 4.25371e-31 0.086107 -1.00804e-15 6.19564e-16 0.14517 -2.24533e-15 -8.14045e-16)
(-1.58725e-14 -8.22629e-31 -7.81636e-31 0.086107 -2.23874e-29 1.25444e-30 0.14517 -5.92767e-15 4.93038e-32)
(5.90544e-16 1.55271e-30 -6.01926e-31 0.0691332 -5.99551e-16 -1.13178e-15 0.119522 -1.14956e-15 -1.52008e-15)
(1.20956e-14 0 8.02567e-31 0.0691332 -3.33653e-44 -5.0591e-16 0.119522 -3.128e-45 5.78832e-17)
(0 0 5.6784e-31 0.0511463 1.51805e-16 -2.64706e-16 0.0877168 -1.54261e-15 -9.54755e-16)
(-3.40977e-15 0 3.38939e-44 0.0511463 8.40457e-16 -7.63152e-30 0.0877168 -1.34992e-15 -3.30964e-47)
(0 -2.18956e-31 0 0.0317812 5.8116e-16 2.76356e-16 0.0482471 -6.26827e-16 -6.46882e-16)
(1.21927e-14 -5.31014e-30 2.67843e-31 0.0317812 1.67099e-15 -1.26077e-15 0.0482471 -2.15055e-15 -3.24488e-16)
(3.08585e-15 5.86013e-31 8.75812e-47 0 1.11419e-15 0 -1.31786e-18 -5.69917e-15 -1.54417e-16)
(0 0 -7.00649e-46 7.77156e-15 1.56096e-16 2.76912e-44 7.10543e-15 -5.20757e-15 -6.40949e-30)
(0 -2.05628e-33 0 33.4827 -1.99514e-15 6.51228e-14 -0.191462 9.08085e-15 3.52925e-16)
(0 0 0 33.4827 -4.18696e-16 -8.5293e-45 -0.191462 4.76186e-17 2.1835e-42)
(0 0 1.09117e-28 33.4629 -2.70602e-15 2.15413e-14 -0.585653 3.92573e-14 1.31865e-15)
(0 2.02833e-32 -5.18833e-27 33.4629 -1.67633e-30 -1.20434e-15 -0.585653 3.65392e-17 5.51785e-18)
(3.28931e-17 1.46399e-32 -3.51359e-31 33.4416 -4.83494e-15 1.07709e-14 -0.884741 3.71643e-14 1.5369e-15)
(0 -1.46399e-32 3.51359e-31 33.4416 -1.48349e-15 -7.56862e-16 -0.884741 1.42938e-16 1.0017e-17)
(1.78224e-16 -2.76219e-32 3.31462e-31 33.4172 -4.52835e-15 1.13977e-14 -0.937103 3.13049e-14 1.75631e-15)
(0 2.76219e-32 -3.31462e-31 33.4172 -1.43664e-15 -1.14962e-15 -0.937103 2.30512e-16 1.72614e-17)
(-8.55732e-17 7.81732e-32 -5.21154e-31 33.3848 -4.55938e-15 1.20258e-14 -0.992219 3.48922e-14 2.01087e-15)
(-2.77081e-16 -5.21154e-32 6.25385e-31 33.3848 -1.73624e-15 -1.6448e-15 -0.992219 3.35312e-16 2.86584e-17)
(0 0 0 33.3322 -4.78602e-15 1.26074e-14 -1.04966 3.43305e-14 2.30068e-15)
(0 0 0 33.3322 -1.95878e-15 -2.23204e-15 -1.04966 4.62786e-16 4.61741e-17)
(-2.53523e-16 1.39141e-31 -9.27606e-31 33.2331 -5.42583e-15 1.30326e-14 -1.10829 3.42676e-14 2.62115e-15)
(0 -1.39141e-31 9.27606e-31 33.2331 -2.10601e-15 -2.90481e-15 -1.10829 6.04831e-16 7.11642e-17)
(3.22459e-16 0 0 33.0388 -6.01644e-15 1.31586e-14 -1.1657 3.40662e-14 2.97092e-15)
(0 8.75078e-32 0 33.0388 -2.02149e-15 -3.63157e-15 -1.1657 7.81371e-16 1.05239e-16)
(-3.96117e-16 1.65105e-31 -4.95315e-31 32.6719 -6.46775e-15 1.27743e-14 -1.21778 3.38586e-14 3.34424e-15)
(0 -8.25526e-32 1.65105e-31 32.6719 -1.96329e-15 -4.29867e-15 -1.21778 9.31498e-16 1.4765e-16)
(0 7.78779e-32 -4.67267e-31 32.0296 -6.77303e-15 1.17282e-14 -1.25872 3.36407e-14 3.72806e-15)
(-1.89975e-15 0 1.55756e-31 32.0296 -2.56859e-15 -4.8241e-15 -1.25872 1.1571e-15 1.96932e-16)
(1.02703e-16 -7.34679e-32 2.93872e-31 31.0069 -6.84946e-15 9.97291e-15 -1.28207 3.34002e-14 4.10035e-15)
(-2.23615e-15 0 1.90227e-32 31.0069 -3.28009e-15 -5.1206e-15 -1.28207 1.41027e-15 2.19057e-16)
(1.8964e-15 1.38615e-31 -2.77231e-31 29.5385 -7.29824e-15 7.65158e-15 -1.28302 3.31162e-14 4.43626e-15)
(0 -1.38615e-31 1.38615e-31 29.5385 -3.11641e-15 -5.10667e-15 -1.28302 1.68619e-15 2.24556e-16)
(-1.48001e-15 1.30766e-31 -5.23064e-31 27.6399 -8.13066e-15 5.10206e-15 -1.2606 3.28165e-14 4.71489e-15)
(2.96002e-15 0 1.7105e-31 27.6399 -2.58432e-15 -4.73174e-15 -1.2606 1.98278e-15 2.10595e-16)
(1.66672e-15 -1.23361e-31 7.40167e-31 25.4164 -8.13875e-15 2.76807e-15 -1.2182 3.2499e-14 4.92914e-15)
(3.33344e-15 1.23361e-31 -8.71039e-31 25.4164 -2.7996e-15 -4.13213e-15 -1.2182 2.29166e-15 1.92061e-16)
(1.9739e-15 -4.65502e-31 5.27318e-30 23.0282 -8.24306e-15 3.55411e-16 -1.16204 3.21528e-14 5.08386e-15)
(0 4.65502e-31 -1.86201e-30 23.0282 -2.90602e-15 -3.47203e-15 -1.16204 2.62029e-15 1.66312e-16)
(1.0151e-15 -2.19571e-31 0 20.6369 -8.31602e-15 -4.93038e-32 -1.09878 3.18264e-14 5.19553e-15)
(0 2.19571e-31 -6.58714e-31 20.6369 -2.46262e-15 -2.75759e-15 -1.09878 2.95042e-15 1.35126e-16)
(1.10035e-15 2.07138e-31 -1.03569e-30 18.3659 -6.64771e-15 -1.21292e-15 -1.03386 3.14917e-14 5.28426e-15)
(-4.40139e-15 0 8.68736e-31 18.3659 -3.19217e-15 -2.06478e-15 -1.03386 3.25179e-15 1.0394e-16)
(0 5.86224e-31 -1.17245e-30 16.2875 -4.2257e-15 -1.59387e-15 -0.970919 3.11179e-14 5.36813e-15)
(-4.72329e-15 -5.86224e-31 2.23212e-30 16.2875 -4.11336e-15 -1.44165e-15 -0.970919 3.57866e-15 7.27611e-17)
(-1.66041e-15 9.21714e-31 -2.02777e-30 14.4313 -3.37562e-15 -1.64569e-15 -0.912008 3.07042e-14 5.45498e-15)
(0 -7.37371e-31 1.84343e-30 14.4313 -4.16212e-15 -7.69419e-16 -0.912008 3.95861e-15 2.63689e-17)
(-1.56639e-15 1.04342e-30 -2.43466e-30 12.7976 -3.97645e-15 -1.59056e-15 -0.858038 3.03074e-14 5.55439e-15)
(-5.30856e-15 -6.95616e-31 -1.05097e-45 12.7976 -4.58067e-15 -1.2326e-32 -0.858038 4.34257e-15 -1.65852e-30)
(2.87114e-15 -3.28113e-31 1.64056e-31 11.3714 -4.76596e-15 -1.57894e-15 -0.809213 2.99298e-14 5.67234e-15)
(-1.47769e-15 3.28113e-31 -2.59166e-30 11.3714 -4.50188e-15 3.60035e-16 -0.809213 4.73294e-15 1.32082e-17)
(1.39401e-15 -6.19066e-31 7.73832e-31 10.1306 -4.08592e-15 -1.5375e-15 -0.765343 2.95764e-14 5.81783e-15)
(0 6.19066e-31 -7.73832e-31 10.1306 -4.88585e-15 9.8015e-16 -0.765343 5.13092e-15 6.63051e-17)
(1.51425e-15 5.8401e-31 -1.16802e-30 9.05181 -3.35344e-15 -1.03048e-15 -0.726051 2.91785e-14 5.98759e-15)
(-6.05701e-15 -5.8401e-31 1.40426e-30 9.05181 -4.59835e-15 1.02131e-15 -0.726051 5.53796e-15 8.67545e-17)
(4.70854e-15 0 -6.88674e-31 8.11255 -5.17806e-15 -8.03343e-16 -0.690884 2.88008e-14 6.16515e-15)
(-6.27805e-15 0 9.13141e-31 8.11255 -1.92198e-15 1.21589e-15 -0.690884 5.82503e-15 8.14951e-17)
(2.34071e-15 -5.19741e-31 1.29935e-31 7.29277 -6.90416e-15 -1.03092e-15 -0.659385 2.84819e-14 6.38141e-15)
(-6.4873e-15 0 -2.17124e-31 7.29277 -6.9663e-16 1.84446e-15 -0.659385 6.13324e-15 1.32512e-16)
(0 4.9031e-31 -2.45155e-31 6.57503 -6.15507e-15 -1.27813e-15 -0.631122 2.82095e-14 6.62879e-15)
(-8.89416e-15 0 3.33105e-31 6.57503 -9.81882e-16 2.51478e-15 -0.631122 6.49634e-15 2.11528e-16)
(2.08312e-15 -9.25091e-31 9.25091e-31 5.94444 -4.12976e-15 -1.482e-15 -0.6057 2.79358e-14 6.91815e-15)
(-4.79217e-15 4.62545e-31 -6.93331e-31 5.94444 -5.35626e-16 2.95148e-15 -0.6057 6.80976e-15 2.84499e-16)
(1.96516e-15 4.36353e-31 -4.36353e-31 5.38839 -3.68936e-15 -1.51107e-15 -0.58277 2.75346e-14 7.23684e-15)
(-1.96516e-15 0 2.18176e-31 5.38839 -1.39431e-16 3.4295e-15 -0.58277 7.16716e-15 1.9145e-16)
(3.6147e-15 8.23287e-31 -8.23287e-31 4.89629 -2.95052e-15 -1.73402e-15 -0.562024 2.71559e-14 7.58481e-15)
(-7.2294e-15 1.17907e-29 1.02911e-30 4.89629 -3.10735e-16 3.99027e-15 -0.562024 7.51703e-15 6.06363e-17)
(5.44682e-15 -1.55333e-30 7.76667e-31 4.45921 -7.85733e-16 -1.66558e-15 -0.543195 2.67565e-14 7.97749e-15)
(-7.39584e-15 7.76667e-31 -5.825e-31 4.45921 -2.75988e-15 4.16524e-15 -0.543195 7.95466e-15 -8.65461e-17)
(1.64986e-15 7.32687e-31 -3.66344e-31 4.06966 -1.16743e-15 -1.29761e-15 -0.526049 2.63056e-14 8.38604e-15)
(-9.20599e-15 0 1.83172e-31 4.06966 -1.38109e-15 4.084e-15 -0.526049 8.33709e-15 -2.41271e-16)
(-3.85542e-15 1.38239e-30 -8.63997e-31 3.72129 -2.63157e-15 -1.163e-15 -0.510384 2.59373e-14 8.81934e-15)
(-7.71083e-15 -1.38239e-30 8.63997e-31 3.72129 -2.94945e-16 3.83903e-15 -0.510384 8.73388e-15 -3.87821e-16)
(1.96512e-15 0 -3.26029e-31 3.40879 -1.04455e-15 -1.15321e-15 -0.496024 2.55144e-14 9.28108e-15)
(0 1.29899e-29 0 3.40879 -2.7459e-16 3.26038e-15 -0.496024 9.09641e-15 -5.22079e-16)
(2.00137e-15 6.15133e-31 -6.15133e-31 3.1276 4.57504e-16 -4.55619e-16 -0.482815 2.50912e-14 9.78174e-15)
(-8.00547e-15 -6.15133e-31 6.15133e-31 3.1276 -3.11837e-15 2.37787e-15 -0.482815 9.52568e-15 -6.30545e-16)
(-2.03656e-15 0 0 2.87387 -1.29784e-15 2.06325e-16 -0.470624 2.47118e-14 8.93691e-15)
(8.14625e-15 0 -2.9015e-31 2.87387 3.06523e-16 1.64365e-15 -0.470624 1.00212e-14 -7.14983e-16)
(-2.07078e-15 0 0 2.64431 -1.26736e-15 -1.93658e-46 -0.459333 2.44023e-14 7.96187e-15)
(0 5.72167e-30 0 2.64431 -7.02746e-45 1.28516e-15 -0.459333 1.03072e-14 -7.88023e-16)
(-2.21725e-16 -5.1644e-31 0 2.43609 9.97212e-16 -5.93145e-16 -0.44884 2.39526e-14 6.82939e-15)
(2.32584e-15 1.12624e-29 0 2.43609 -1.43363e-16 6.76032e-16 -0.44884 1.06686e-14 -8.35572e-16)
(-4.33075e-15 1.94878e-30 -7.30793e-31 2.24679 1.50196e-15 -4.1307e-16 -0.439053 2.34259e-14 5.60375e-15)
(0 -9.74391e-31 2.43598e-31 2.24679 3.35277e-16 -4.21803e-17 -0.439053 1.12154e-14 -8.4432e-16)
(-2.06989e-15 9.19214e-31 -4.59607e-31 2.0743 3.21389e-16 -3.37805e-16 -0.429893 2.28845e-14 4.23816e-15)
(1.52769e-14 1.27873e-29 0 2.0743 6.09395e-29 -3.8474e-15 -0.429893 1.15178e-14 -8.43292e-16)
(3.65865e-15 -8.67162e-31 2.16791e-31 1.91681 2.60269e-16 -8.5237e-16 -0.421288 2.24141e-14 2.80233e-15)
(-1.07502e-14 2.67139e-30 -2.16791e-31 1.91681 -4.29454e-16 -3.22871e-15 -0.421288 1.18226e-14 -4.62986e-16)
(-1.8421e-15 4.09029e-31 -4.09029e-31 1.77273 1.57158e-15 -7.69103e-16 -0.413174 2.18215e-14 1.78207e-15)
(7.07684e-15 0 2.04514e-31 1.77273 6.90976e-16 7.22643e-16 -0.413174 1.23542e-14 -8.89911e-16)
(0 -7.71734e-31 0 1.64068 4.32125e-16 -6.58786e-18 -0.405496 2.10945e-14 1.56636e-15)
(0 0 -3.85867e-31 1.64068 0 6.98462e-16 -0.405496 1.27478e-14 -7.7689e-16)
(0 0 -5.46025e-31 1.51946 -9.47038e-16 -5.814e-16 -0.398203 2.05914e-14 1.07822e-15)
(-1.24332e-14 0 1.82008e-31 1.51946 -1.11424e-15 1.07744e-15 -0.398203 1.3244e-14 -7.24396e-16)
(2.31722e-15 0 0 1.40799 -3.27669e-16 -3.00507e-16 -0.391248 2.02454e-14 5.41919e-16)
(0 0 0 1.40799 -9.16674e-16 7.57245e-16 -0.391248 1.37068e-14 -6.28202e-16)
(0 0 0 1.30535 6.02712e-17 -5.50078e-17 -0.38459 1.99032e-14 6.79802e-16)
(-1.22991e-14 6.47915e-31 0 1.30535 -1.15385e-15 2.69307e-16 -0.38459 1.40577e-14 -3.14985e-16)
(-2.75272e-15 0 -1.52806e-31 1.2107 1.68475e-16 -3.62403e-16 -0.378191 1.94757e-14 8.78831e-16)
(-2.75272e-15 0 0 1.2107 -7.24292e-16 7.18428e-16 -0.378191 1.44757e-14 1.2267e-17)
(0 -5.76614e-31 2.88307e-31 1.12332 -3.6777e-16 3.23233e-16 -0.372019 1.91131e-14 1.05003e-15)
(0 1.08055e-29 0 1.12332 -4.85149e-29 -6.35336e-17 -0.372019 1.46002e-14 2.87108e-16)
(4.87639e-15 5.43962e-31 5.82139e-31 1.04254 -1.27329e-15 -3.30336e-30 -0.366041 1.88008e-14 1.04869e-15)
(-1.21562e-14 0 0 1.04254 -1.10805e-15 -1.30644e-15 -0.366041 1.49742e-14 8.11371e-16)
(2.45281e-15 0 0 0.96779 -2.62417e-15 -5.17373e-16 -0.360229 1.82366e-14 1.19233e-15)
(9.81124e-15 1.94986e-30 0 0.96779 0 -1.18187e-15 -0.360229 1.48625e-14 1.39697e-15)
(4.36039e-15 -9.68202e-31 1.21025e-31 0.898548 -3.52482e-15 -1.30746e-15 -0.354556 1.80564e-14 1.47318e-15)
(-9.91437e-15 1.37216e-31 0 0.898548 -1.1819e-15 -6.40467e-16 -0.354556 1.49397e-14 1.78169e-15)
(7.5119e-15 0 1.14172e-31 0.834348 -2.13758e-15 -2.10058e-15 -0.348999 1.80516e-14 1.95268e-15)
(1.00159e-14 0 -1.14172e-31 0.834348 -2.40605e-15 -3.13931e-17 -0.348999 1.49993e-14 2.07081e-15)
(0 8.61654e-31 1.07707e-31 0.77477 -4.92581e-16 -1.47969e-15 -0.343534 1.75429e-14 2.39267e-15)
(-2.02315e-14 -8.61654e-31 -1.32253e-30 0.77477 -4.69343e-15 -5.91695e-30 -0.343534 1.53211e-14 2.38246e-15)
(0 -1.62572e-30 0 0.719436 -3.81503e-16 -2.70465e-16 -0.338139 1.70887e-14 2.72254e-15)
(-1.02141e-14 0 1.01608e-31 0.719436 -4.7369e-15 -1.00462e-15 -0.338139 1.63167e-14 2.58972e-15)
(2.57773e-15 3.53022e-31 0 0.668005 -1.38588e-15 1.28402e-15 -0.332794 1.69246e-14 2.58297e-15)
(0 1.53366e-30 -4.7927e-32 0.668005 -2.72932e-15 4.34568e-16 -0.332794 1.64399e-14 2.6163e-15)
(0 -1.44682e-30 1.80852e-31 0.620166 -3.904e-15 2.06077e-15 -0.327478 1.68825e-14 2.11716e-15)
(1.04063e-14 1.44682e-30 -1.80852e-31 0.620166 -3.49453e-15 2.19895e-15 -0.327478 1.65762e-14 2.1695e-15)
(0 0 3.41222e-31 0.575638 -3.52831e-15 3.08541e-16 -0.322171 1.73005e-14 1.98635e-15)
(0 0 0 0.575638 -3.74952e-15 1.8808e-15 -0.322171 1.69915e-14 1.59252e-15)
(5.29623e-15 0 0 0.534162 -2.3442e-15 1.03339e-15 -0.316853 1.742e-14 1.8392e-15)
(1.05925e-14 2.5752e-30 9.45798e-31 0.534162 -1.8283e-15 5.42768e-46 -0.316853 1.692e-14 1.7038e-15)
(0 2.42937e-30 7.91194e-31 0.495504 7.40159e-17 -2.49503e-30 -0.311503 1.70852e-14 1.42529e-15)
(-2.73523e-15 3.97899e-30 0 0.495504 -1.42458e-15 -3.89365e-16 -0.311503 1.68337e-14 1.77242e-15)
(-2.46748e-15 1.1459e-30 -1.43238e-31 0.459446 0 -2.18982e-15 -0.306097 1.61789e-14 2.42205e-15)
(-1.07728e-14 0 -1.43238e-31 0.459446 -2.38898e-15 8.90116e-16 -0.306097 1.71416e-14 1.87917e-15)
(2.71521e-15 0 0 0.425789 -2.17043e-15 1.07207e-15 -0.300611 1.61005e-14 1.96443e-15)
(8.42662e-15 2.16203e-30 6.91872e-31 0.425789 3.47188e-16 0 -0.300611 1.63112e-14 1.38614e-15)
(2.73685e-15 0 1.87017e-31 0.394347 -1.15522e-15 2.13198e-16 -0.295018 1.59537e-14 1.46185e-15)
(-1.09474e-14 0 0 0.394347 1.0114e-15 -2.73408e-15 -0.295018 1.57128e-14 2.08547e-15)
(4.3327e-15 0 -1.20256e-31 0.364948 -1.92013e-16 1.10805e-15 -0.289286 1.52946e-14 1.44542e-15)
(6.69976e-15 0 0 0.364948 1.3348e-15 -1.26062e-15 -0.289286 1.48218e-14 2.47531e-15)
(2.77901e-15 0 3.51559e-31 0.33743 1.63587e-15 -1.77494e-30 -0.28338 1.52247e-14 1.33549e-15)
(-1.1116e-14 2.45634e-30 0 0.33743 -1.81438e-29 1.07371e-15 -0.28338 1.38427e-14 2.25996e-15)
(1.74314e-15 3.45998e-30 1.07023e-31 0.311641 1.80452e-29 -2.8015e-15 -0.277256 1.46439e-14 1.56489e-15)
(-1.11981e-14 5.0064e-31 -4.2809e-31 0.311641 -1.36883e-15 2.89523e-16 -0.277256 1.33035e-14 1.63471e-15)
(2.81964e-15 -3.28789e-31 4.03849e-31 0.287436 -1.53975e-15 2.90436e-16 -0.270864 1.17162e-14 7.37067e-16)
(-1.12786e-14 8.12005e-31 -5.55292e-31 0.287436 -5.28183e-17 1.25528e-16 -0.270864 1.25724e-14 1.51856e-15)
(2.83937e-15 -6.04652e-31 0 0.264679 -1.10413e-16 1.72328e-15 -0.264142 9.26827e-15 3.88339e-16)
(-1.47891e-14 2.99253e-30 -1.9049e-31 0.264679 -7.84911e-16 1.88379e-16 -0.264142 1.18492e-14 6.12859e-16)
(2.85869e-15 -5.39459e-31 0 0.243236 -1.31372e-46 1.42833e-15 -0.257015 8.72962e-15 -5.80511e-17)
(-3.23725e-15 0 -3.59407e-31 0.243236 -5.07571e-16 1.09411e-16 -0.257015 9.23216e-15 -3.23456e-17)
(-2.87758e-15 8.36862e-31 0 0.222976 1.28663e-16 -7.94879e-46 -0.24939 7.6938e-15 -2.66241e-30)
(-2.30207e-14 7.45429e-30 -3.39055e-31 0.222976 -4.89974e-16 -1.54725e-15 -0.24939 7.1604e-15 2.22639e-16)
(-2.881e-15 4.51243e-30 -1.19946e-31 0.203769 -7.49416e-30 -2.38566e-15 -0.241148 8.12887e-15 8.05193e-16)