/*--------------------------------*- C++ -*----------------------------------*\
| =========                 |                                                 |
| \\      /  F ield         | OpenFOAM: The Open Source CFD Toolbox           |
|  \\    /   O peration     | Version:  2012                                  |
|   \\  /    A nd           | Website:  www.openfoam.com                      |
|    \\/     M anipulation  |                                                 |
\*---------------------------------------------------------------------------*/
FoamFile
{
    version     2.0;
    format      ascii;
    class       volScalarField;
    location    "20000";
    object      p;
}
// * * * * * * * * * * * * * * * * * * * * * * * * * * * * * * * * * * * * * //

dimensions      [0 2 -2 0 0 0 0];


internalField   nonuniform List<scalar> 
640
(
7.46335e-16
7.79056e-15
1.63776e-15
7.78904e-15
1.82544e-15
7.78703e-15
1.83522e-15
7.78461e-15
1.90079e-15
7.78161e-15
1.99129e-15
7.77777e-15
2.07629e-15
7.77295e-15
2.15391e-15
7.76694e-15
2.22724e-15
7.75975e-15
2.29838e-15
7.75136e-15
2.36851e-15
7.74161e-15
2.43847e-15
7.7306e-15
2.50903e-15
7.71832e-15
2.58146e-15
7.7052e-15
2.65632e-15
7.69097e-15
2.7339e-15
7.67568e-15
2.81469e-15
7.65951e-15
2.89896e-15
7.64253e-15
2.98664e-15
7.6247e-15
3.07706e-15
7.6067e-15
3.17108e-15
7.58862e-15
3.26736e-15
7.57142e-15
3.36623e-15
7.55179e-15
3.46678e-15
7.52973e-15
3.57104e-15
7.50706e-15
3.67621e-15
7.48643e-15
3.78391e-15
7.46308e-15
3.89191e-15
7.43776e-15
3.99979e-15
7.41028e-15
4.1104e-15
7.38049e-15
4.22349e-15
7.34936e-15
4.33877e-15
7.31441e-15
4.44986e-15
7.27282e-15
4.56491e-15
7.22775e-15
4.68256e-15
7.18506e-15
4.79873e-15
7.14032e-15
4.91999e-15
7.08574e-15
5.03977e-15
7.02921e-15
5.16264e-15
6.97021e-15
5.28813e-15
6.91633e-15
5.41006e-15
6.86011e-15
5.52801e-15
6.80825e-15
5.64216e-15
6.7672e-15
5.74609e-15
6.73384e-15
5.86572e-15
6.70465e-15
5.97585e-15
6.68781e-15
6.0837e-15
6.68527e-15
6.19728e-15
6.69199e-15
6.32595e-15
6.67954e-15
6.42419e-15
6.69527e-15
6.51594e-15
6.7175e-15
6.63291e-15
6.73896e-15
6.71736e-15
6.7956e-15
6.81569e-15
6.86787e-15
6.93008e-15
6.96977e-15
7.01163e-15
7.06829e-15
7.10657e-15
7.13132e-15
7.20044e-15
7.20276e-15
7.29553e-15
7.29422e-15
7.38881e-15
7.40421e-15
7.49991e-15
7.49888e-15
7.59668e-15
7.59061e-15
7.63927e-15
7.65935e-15
7.73721e-15
7.7139e-15
7.86267e-15
7.78336e-15
7.92451e-15
7.88549e-15
7.95293e-15
7.95528e-15
8.06526e-15
8.0645e-15
8.12604e-15
8.17284e-15
8.09007e-15
8.27231e-15
8.2176e-15
8.25449e-15
8.2924e-15
8.33166e-15
8.32174e-15
8.33247e-15
8.33719e-15
8.31306e-15
8.3439e-15
8.31381e-15
8.42899e-15
8.43214e-15
8.37323e-15
8.4315e-15
8.48862e-15
8.479e-15
8.40196e-15
8.41158e-15
8.47412e-15
8.44649e-15
5.5536e-15
6.2007e-15
5.55339e-15
6.20059e-15
5.55333e-15
6.20058e-15
5.55343e-15
6.20067e-15
5.55373e-15
6.20084e-15
5.55414e-15
6.20111e-15
5.55474e-15
6.20138e-15
5.55554e-15
6.20183e-15
5.55659e-15
6.2024e-15
5.55797e-15
6.20299e-15
5.55956e-15
6.20365e-15
5.56157e-15
6.20449e-15
5.56435e-15
6.20545e-15
5.56753e-15
6.20668e-15
5.5715e-15
6.20844e-15
5.57667e-15
6.21094e-15
5.58336e-15
6.21385e-15
5.5918e-15
6.21679e-15
5.60189e-15
6.22069e-15
5.61281e-15
6.22601e-15
5.62353e-15
6.23328e-15
5.63852e-15
6.24155e-15
5.65579e-15
6.25293e-15
5.67296e-15
6.26772e-15
5.69389e-15
6.28313e-15
5.7198e-15
6.30014e-15
5.74809e-15
6.31786e-15
5.77988e-15
6.33939e-15
5.8143e-15
6.36293e-15
5.85254e-15
6.38975e-15
5.89707e-15
6.42244e-15
5.94232e-15
6.45563e-15
5.98946e-15
6.49316e-15
6.04353e-15
6.53313e-15
6.09972e-15
6.58125e-15
6.16068e-15
6.63325e-15
6.22933e-15
6.68462e-15
6.30612e-15
6.73903e-15
6.37441e-15
6.80054e-15
6.44249e-15
6.85933e-15
6.53743e-15
6.9232e-15
6.60551e-15
6.99409e-15
6.68627e-15
7.06278e-15
6.77406e-15
7.12565e-15
6.86368e-15
7.19183e-15
6.9562e-15
7.2511e-15
7.03284e-15
7.30594e-15
7.10839e-15
7.37365e-15
7.18321e-15
7.42317e-15
7.24345e-15
7.46535e-15
7.3354e-15
7.49619e-15
7.43639e-15
7.53048e-15
7.50701e-15
7.5672e-15
7.55188e-15
7.59e-15
7.58964e-15
7.61398e-15
7.63778e-15
7.65386e-15
7.69975e-15
7.70927e-15
7.76091e-15
7.76576e-15
7.84256e-15
7.8261e-15
7.85812e-15
7.8876e-15
7.90719e-15
7.96128e-15
7.96018e-15
7.99704e-15
8.01981e-15
8.02761e-15
8.10457e-15
8.04217e-15
8.11298e-15
8.09911e-15
8.13934e-15
8.1313e-15
8.17838e-15
8.17606e-15
8.23605e-15
8.23557e-15
8.30038e-15
8.30129e-15
8.26942e-15
8.25612e-15
8.26701e-15
8.24733e-15
8.30592e-15
8.33228e-15
8.32574e-15
8.38829e-15
8.39951e-15
8.42841e-15
8.47896e-15
8.45545e-15
8.42905e-15
8.42002e-15
8.53107e-15
8.49671e-15
8.56227e-15
8.42928e-15
8.50654e-15
8.47269e-15
8.49862e-15
8.50994e-15
8.27222e-15
8.3269e-15
8.42514e-15
8.43413e-15
8.51138e-15
8.52759e-15
8.63996e-15
8.62017e-15
8.64132e-15
8.63443e-15
8.66705e-15
8.60927e-15
8.66642e-15
8.60964e-15
8.63813e-15
8.64631e-15
8.63074e-15
8.56715e-15
8.60667e-15
8.51082e-15
8.58246e-15
8.5279e-15
8.51368e-15
8.49472e-15
8.53228e-15
8.52835e-15
8.55601e-15
8.5248e-15
8.56212e-15
8.51185e-15
8.57881e-15
8.55793e-15
8.58608e-15
8.58917e-15
8.61086e-15
8.61605e-15
8.65333e-15
8.60217e-15
8.6285e-15
8.63957e-15
8.65853e-15
8.667e-15
8.66399e-15
8.67404e-15
8.66442e-15
8.68107e-15
8.6744e-15
8.68918e-15
8.66129e-15
8.68018e-15
8.67658e-15
8.67131e-15
8.70543e-15
8.67673e-15
8.70323e-15
8.69256e-15
8.70037e-15
8.68891e-15
8.69685e-15
8.66762e-15
8.69459e-15
8.68142e-15
8.69229e-15
8.69289e-15
8.69628e-15
8.68882e-15
8.69278e-15
8.67688e-15
8.6829e-15
8.66402e-15
8.68065e-15
8.6637e-15
8.68528e-15
8.66213e-15
8.69036e-15
8.65883e-15
8.68985e-15
8.66639e-15
8.6776e-15
8.66621e-15
8.67492e-15
8.66209e-15
8.67841e-15
8.66615e-15
8.68481e-15
8.66673e-15
8.6717e-15
8.66951e-15
8.66983e-15
8.66921e-15
8.66794e-15
8.67135e-15
8.666e-15
8.66807e-15
8.66657e-15
8.66722e-15
8.66464e-15
8.66383e-15
8.66276e-15
8.66279e-15
8.65978e-15
8.66283e-15
8.65907e-15
8.66832e-15
8.65724e-15
8.66829e-15
8.65336e-15
8.66521e-15
8.65445e-15
8.66519e-15
8.65356e-15
8.66518e-15
8.65176e-15
8.66518e-15
8.65253e-15
8.66519e-15
8.65282e-15
8.66443e-15
8.65267e-15
8.66296e-15
8.65286e-15
8.66229e-15
8.65268e-15
8.66235e-15
8.65186e-15
8.66271e-15
8.65136e-15
8.66277e-15
8.65115e-15
8.66283e-15
8.65041e-15
8.66342e-15
8.65019e-15
8.66362e-15
8.6502e-15
8.66369e-15
8.65019e-15
8.66354e-15
8.65005e-15
8.66351e-15
8.64995e-15
8.66355e-15
8.64985e-15
8.66347e-15
8.64992e-15
8.6634e-15
8.64988e-15
8.66346e-15
8.64983e-15
8.66349e-15
8.64981e-15
8.66342e-15
8.64978e-15
8.6634e-15
8.64979e-15
8.66337e-15
8.64979e-15
8.66337e-15
8.64979e-15
8.66338e-15
8.49294e-15
8.50265e-15
8.59058e-15
8.59082e-15
8.57539e-15
8.55761e-15
8.66211e-15
8.66351e-15
8.6248e-15
8.66894e-15
8.63808e-15
8.63938e-15
8.62826e-15
8.6343e-15
8.58671e-15
8.65285e-15
8.56242e-15
8.62949e-15
8.55244e-15
8.53262e-15
8.53625e-15
8.54283e-15
8.6045e-15
8.5639e-15
8.67973e-15
8.47615e-15
8.67788e-15
8.49613e-15
8.61981e-15
8.54969e-15
8.66016e-15
8.57569e-15
8.71004e-15
8.61213e-15
8.73467e-15
8.61295e-15
8.6545e-15
8.69687e-15
8.64558e-15
8.72458e-15
8.67674e-15
8.68626e-15
8.68759e-15
8.69243e-15
8.71842e-15
8.70156e-15
8.70243e-15
8.70913e-15
8.7059e-15
8.71943e-15
8.72791e-15
8.70016e-15
8.72321e-15
8.71315e-15
8.73739e-15
8.72684e-15
8.73828e-15
8.70892e-15
8.72832e-15
8.68953e-15
8.72338e-15
8.70626e-15
8.72103e-15
8.71478e-15
8.72017e-15
8.70161e-15
8.707e-15
8.68799e-15
8.69556e-15
8.68088e-15
8.7058e-15
8.68721e-15
8.70389e-15
8.70639e-15
8.70228e-15
8.70662e-15
8.69442e-15
8.70781e-15
8.6864e-15
8.71003e-15
8.68409e-15
8.70133e-15
8.69336e-15
8.68782e-15
8.68538e-15
8.69207e-15
8.68309e-15
8.69658e-15
8.68073e-15
8.6987e-15
8.67558e-15
8.70393e-15
8.67283e-15
8.70184e-15
8.67237e-15
8.69281e-15
8.66929e-15
8.68685e-15
8.66616e-15
8.68609e-15
8.66527e-15
8.68562e-15
8.66428e-15
8.68872e-15
8.66318e-15
8.68769e-15
8.66097e-15
8.6869e-15
8.65971e-15
8.68634e-15
8.6584e-15
8.68317e-15
8.65616e-15
8.68118e-15
8.65564e-15
8.67942e-15
8.65428e-15
8.67825e-15
8.65482e-15
8.67761e-15
8.65419e-15
8.67817e-15
8.65254e-15
8.67843e-15
8.65284e-15
8.67779e-15
8.65366e-15
8.67666e-15
8.65328e-15
8.67593e-15
8.65303e-15
8.67528e-15
8.65301e-15
8.67495e-15
8.65284e-15
8.67515e-15
8.65278e-15
8.67513e-15
8.65293e-15
8.67503e-15
8.65283e-15
8.67482e-15
8.6527e-15
8.6747e-15
8.65256e-15
8.67458e-15
8.65257e-15
8.67455e-15
8.6525e-15
8.67463e-15
8.65245e-15
8.67474e-15
8.6524e-15
8.67478e-15
8.65241e-15
8.67477e-15
8.65241e-15
8.67479e-15
8.65241e-15
8.67482e-15
)
;

boundaryField
{
    walls
    {
        type            zeroGradient;
    }
    inlet
    {
        type            cyclic;
    }
    outlet
    {
        type            cyclic;
    }
    sides
    {
        type            empty;
    }
}


// ************************************************************************* //
