/*--------------------------------*- C++ -*----------------------------------*\
| =========                 |                                                 |
| \\      /  F ield         | OpenFOAM: The Open Source CFD Toolbox           |
|  \\    /   O peration     | Version:  2106                                  |
|   \\  /    A nd           | Website:  www.openfoam.com                      |
|    \\/     M anipulation  |                                                 |
\*---------------------------------------------------------------------------*/
FoamFile
{
    version     2.0;
    format      ascii;
    arch        "LSB;label=32;scalar=64";
    class       volVectorField;
    location    "20000";
    object      U;
}
// * * * * * * * * * * * * * * * * * * * * * * * * * * * * * * * * * * * * * //

dimensions      [0 1 -1 0 0 0 0];

internalField   nonuniform List<vector> 
2560
(
(0.00678963 -2.07517e-16 -3.58851e-17)
(0.00678963 6.42082e-19 -4.36458e-18)
(0.0204656 -2.90821e-15 -1.74387e-16)
(0.0204656 -1.97688e-18 -5.1832e-17)
(0.0343384 -1.79778e-15 -1.81182e-16)
(0.0343384 -2.55043e-18 -5.33598e-17)
(0.0484106 -1.88087e-15 -1.87894e-16)
(0.0484106 -3.96049e-18 -5.49354e-17)
(0.0626849 -1.85537e-15 -1.94812e-16)
(0.0626849 -5.44178e-18 -5.65582e-17)
(0.0771629 -1.85533e-15 -2.01963e-16)
(0.0771629 -6.96009e-18 -5.82269e-17)
(0.091845 -1.85532e-15 -2.09295e-16)
(0.091845 -8.52506e-18 -5.99328e-17)
(0.106729 -1.85238e-15 -2.16749e-16)
(0.106729 -1.01504e-17 -6.16642e-17)
(0.121808 -1.84933e-15 -2.24246e-16)
(0.121808 -1.18577e-17 -6.33983e-17)
(0.137069 -1.84626e-15 -2.31664e-16)
(0.137069 -1.35979e-17 -6.51023e-17)
(0.152491 -1.84303e-15 -2.38842e-16)
(0.152491 -1.53522e-17 -6.67341e-17)
(0.168041 -1.83963e-15 -2.45573e-16)
(0.168041 -1.72362e-17 -6.82381e-17)
(0.183674 -1.83612e-15 -2.51621e-16)
(0.183674 -1.91738e-17 -6.95502e-17)
(0.199333 -1.83257e-15 -2.56736e-16)
(0.199333 -2.10749e-17 -7.0606e-17)
(0.214946 -1.82885e-15 -2.60693e-16)
(0.214946 -2.30712e-17 -7.13487e-17)
(0.230437 -1.82498e-15 -2.63317e-16)
(0.230437 -2.5054e-17 -7.17323e-17)
(0.245722 -1.82094e-15 -2.64518e-16)
(0.245722 -2.70585e-17 -7.17356e-17)
(0.260722 -1.81686e-15 -2.64303e-16)
(0.260722 -2.91911e-17 -7.13661e-17)
(0.275364 -1.81282e-15 -2.6277e-16)
(0.275364 -3.12258e-17 -7.06523e-17)
(0.289588 -1.80884e-15 -2.60092e-16)
(0.289588 -3.32667e-17 -6.96478e-17)
(0.303347 -1.80489e-15 -2.56486e-16)
(0.303347 -3.53031e-17 -6.84094e-17)
(0.316611 -1.80107e-15 -2.52188e-16)
(0.316611 -3.72355e-17 -6.70007e-17)
(0.329362 -1.79734e-15 -2.47423e-16)
(0.329362 -3.9077e-17 -6.54796e-17)
(0.341596 -1.79368e-15 -2.42391e-16)
(0.341596 -4.09518e-17 -6.39035e-17)
(0.353318 -1.78998e-15 -2.37262e-16)
(0.353318 -4.28256e-17 -6.23146e-17)
(0.364541 -1.78632e-15 -2.32168e-16)
(0.364541 -4.4824e-17 -6.07551e-17)
(0.375284 -1.7828e-15 -2.2721e-16)
(0.375284 -4.66934e-17 -5.92518e-17)
(0.385567 -1.77937e-15 -2.22463e-16)
(0.385567 -4.8367e-17 -5.78109e-17)
(0.395414 -1.77594e-15 -2.17974e-16)
(0.395414 -5.01222e-17 -5.64419e-17)
(0.40485 -1.77262e-15 -2.13775e-16)
(0.40485 -5.19712e-17 -5.51576e-17)
(0.413899 -1.76961e-15 -2.09882e-16)
(0.413899 -5.37116e-17 -5.39594e-17)
(0.422585 -1.76624e-15 -2.06301e-16)
(0.422585 -5.57449e-17 -5.28727e-17)
(0.43093 -1.76291e-15 -2.03029e-16)
(0.43093 -5.76594e-17 -5.18703e-17)
(0.438957 -1.76e-15 -2.00062e-16)
(0.438957 -5.9285e-17 -5.09562e-17)
(0.446686 -1.75696e-15 -1.97391e-16)
(0.446686 -6.08936e-17 -5.01214e-17)
(0.454137 -1.75399e-15 -1.95005e-16)
(0.454137 -6.25523e-17 -4.9365e-17)
(0.461326 -1.75117e-15 -1.9289e-16)
(0.461326 -6.41738e-17 -4.86925e-17)
(0.468271 -1.74819e-15 -1.91034e-16)
(0.468271 -6.54929e-17 -4.8098e-17)
(0.474988 -1.74537e-15 -1.89424e-16)
(0.474988 -6.71091e-17 -4.75689e-17)
(0.48149 -1.74262e-15 -1.88048e-16)
(0.48149 -6.86843e-17 -4.71121e-17)
(0.487791 -1.73989e-15 -1.86893e-16)
(0.487791 -7.00531e-17 -4.67249e-17)
(0.493902 -1.73711e-15 -1.85947e-16)
(0.493902 -7.11554e-17 -4.63933e-17)
(0.499836 -1.73412e-15 -1.852e-16)
(0.499836 -7.28569e-17 -4.61159e-17)
(0.505603 -1.73164e-15 -1.84642e-16)
(0.505603 -7.43984e-17 -4.58859e-17)
(0.511212 -1.7294e-15 -1.84266e-16)
(0.511212 -7.55019e-17 -4.5714e-17)
(0.516673 -1.72665e-15 -1.84061e-16)
(0.516673 -7.65523e-17 -4.56035e-17)
(0.521993 -1.72412e-15 -1.8402e-16)
(0.521993 -7.73966e-17 -4.55403e-17)
(0.52718 -1.72182e-15 -1.84139e-16)
(0.52718 -7.88438e-17 -4.55157e-17)
(0.532242 -1.71954e-15 -1.84408e-16)
(0.532242 -8.03141e-17 -4.55441e-17)
(0.537185 -1.71753e-15 -1.84819e-16)
(0.537185 -8.11356e-17 -4.56104e-17)
(0.542015 -1.71509e-15 -1.85371e-16)
(0.542015 -8.15781e-17 -4.57127e-17)
(0.546738 -1.71235e-15 -1.86056e-16)
(0.546738 -8.26664e-17 -4.58581e-17)
(0.55136 -1.70978e-15 -1.8469e-16)
(0.55136 -8.38827e-17 -4.60622e-17)
(0.555885 -1.70716e-15 -1.82586e-16)
(0.555885 -8.51783e-17 -4.63165e-17)
(0.560317 -1.70456e-15 -1.80608e-16)
(0.560317 -8.67942e-17 -4.6609e-17)
(0.564663 -1.70208e-15 -1.78757e-16)
(0.564663 -8.76903e-17 -4.69214e-17)
(0.568924 -1.69993e-15 -1.77055e-16)
(0.568924 -8.86738e-17 -4.72643e-17)
(0.573106 -1.69817e-15 -1.75498e-16)
(0.573106 -9.02122e-17 -4.76551e-17)
(0.577212 -1.69625e-15 -1.74062e-16)
(0.577212 -9.10407e-17 -4.80937e-17)
(0.581246 -1.69381e-15 -1.72732e-16)
(0.581246 -9.23467e-17 -4.85725e-17)
(0.585209 -1.69199e-15 -1.71523e-16)
(0.585209 -9.31367e-17 -4.90695e-17)
(0.589106 -1.69044e-15 -1.70452e-16)
(0.589106 -9.26989e-17 -4.95836e-17)
(0.59294 -1.68819e-15 -1.69478e-16)
(0.59294 -9.39328e-17 -5.01494e-17)
(0.596712 -1.68556e-15 -1.68614e-16)
(0.596712 -9.48693e-17 -5.07891e-17)
(0.600425 -1.68309e-15 -1.67866e-16)
(0.600425 -9.61523e-17 -5.14308e-17)
(0.604083 -1.68094e-15 -1.67195e-16)
(0.604083 -9.75616e-17 -5.2107e-17)
(0.607686 -1.67843e-15 -1.6664e-16)
(0.607686 -9.85053e-17 -5.28351e-17)
(0.611238 -1.67625e-15 -1.66218e-16)
(0.611238 -1.00025e-16 -5.35948e-17)
(0.614739 -1.67457e-15 -1.65902e-16)
(0.614739 -1.01079e-16 -5.44075e-17)
(0.618193 -1.67264e-15 -1.65735e-16)
(0.618193 -1.01343e-16 -5.5224e-17)
(0.6216 -1.6699e-15 -1.65627e-16)
(0.6216 -1.01724e-16 -5.60719e-17)
(0.624963 -1.66734e-15 -1.6562e-16)
(0.624963 -1.03714e-16 -5.69702e-17)
(0.628283 -1.66588e-15 -1.65713e-16)
(0.628283 -1.04639e-16 -5.79178e-17)
(0.631561 -1.66448e-15 -1.659e-16)
(0.631561 -1.04146e-16 -5.88584e-17)
(0.6348 -1.66329e-15 -1.66224e-16)
(0.6348 -1.04214e-16 -5.98603e-17)
(0.638 -1.66151e-15 -1.66646e-16)
(0.638 -1.0443e-16 -6.08588e-17)
(0.641163 -1.65972e-15 -1.67164e-16)
(0.641163 -1.04258e-16 -6.19216e-17)
(0.644291 -1.65953e-15 -1.67801e-16)
(0.644291 -1.03493e-16 -6.30242e-17)
(0.647383 -1.65982e-15 -1.68544e-16)
(0.647383 -1.03232e-16 -6.41793e-17)
(0.650442 -1.65959e-15 -1.69439e-16)
(0.650442 -1.03065e-16 -6.53677e-17)
(0.653469 -1.65851e-15 -1.70408e-16)
(0.653469 -1.03076e-16 -6.65309e-17)
(0.656464 -1.65662e-15 -1.71465e-16)
(0.656464 -1.05225e-16 -6.77793e-17)
(0.659429 -1.65416e-15 -1.73142e-16)
(0.659429 -1.06349e-16 -6.91495e-17)
(0.662365 -1.65203e-15 -1.7552e-16)
(0.662365 -1.06857e-16 -7.05493e-17)
(0.665272 -1.64972e-15 -1.77959e-16)
(0.665272 -1.09746e-16 -7.1935e-17)
(0.668151 -1.64666e-15 -1.8051e-16)
(0.668151 -1.11378e-16 -7.33411e-17)
(0.671004 -1.64405e-15 -1.83124e-16)
(0.671004 -1.13489e-16 -7.47805e-17)
(0.67383 -1.64156e-15 -1.85768e-16)
(0.67383 -1.16604e-16 -7.63329e-17)
(0.676632 -1.63826e-15 -1.88536e-16)
(0.676632 -1.18318e-16 -7.79544e-17)
(0.679409 -1.6349e-15 -1.91327e-16)
(0.679409 -1.20961e-16 -7.95181e-17)
(0.682163 -1.63215e-15 -1.9423e-16)
(0.682163 -1.245e-16 -8.11761e-17)
(0.684893 -1.6292e-15 -1.97247e-16)
(0.684893 -1.27954e-16 -8.29644e-17)
(0.687602 -1.62504e-15 -2.00239e-16)
(0.687602 -1.30868e-16 -8.47091e-17)
(0.690288 -1.6211e-15 -2.0334e-16)
(0.690288 -1.33435e-16 -8.64228e-17)
(0.692954 -1.61825e-15 -2.06543e-16)
(0.692954 -1.36475e-16 -8.82865e-17)
(0.695599 -1.61527e-15 -2.09785e-16)
(0.695599 -1.38952e-16 -9.02838e-17)
(0.698224 -1.61133e-15 -2.13176e-16)
(0.698224 -1.41212e-16 -9.23399e-17)
(0.70083 -1.60703e-15 -2.16651e-16)
(0.70083 -1.4487e-16 -9.42438e-17)
(0.703417 -1.60389e-15 -2.20084e-16)
(0.703417 -1.47915e-16 -9.61792e-17)
(0.705985 -1.60177e-15 -2.22682e-16)
(0.705985 -1.4975e-16 -9.83088e-17)
(0.708536 -1.59992e-15 -2.23094e-16)
(0.708536 -1.5017e-16 -1.00444e-16)
(0.711069 -1.59653e-15 -2.23591e-16)
(0.711069 -1.53033e-16 -1.02657e-16)
(0.713586 -1.59153e-15 -2.2413e-16)
(0.713586 -1.5766e-16 -1.05025e-16)
(0.716086 -1.58698e-15 -2.24824e-16)
(0.716086 -1.60206e-16 -1.06504e-16)
(0.71857 -1.58338e-15 -2.25661e-16)
(0.71857 -1.64846e-16 -1.07182e-16)
(0.721038 -1.58097e-15 -2.26527e-16)
(0.721038 -1.66771e-16 -1.07876e-16)
(0.723492 -1.57977e-15 -2.2739e-16)
(0.723492 -1.6623e-16 -1.0858e-16)
(0.72593 -1.57863e-15 -2.28104e-16)
(0.72593 -1.68328e-16 -1.09281e-16)
(0.728354 -1.57871e-15 -2.28651e-16)
(0.728354 -1.6825e-16 -1.10041e-16)
(0.730764 -1.5785e-15 -2.29058e-16)
(0.730764 -1.66497e-16 -1.1084e-16)
(0.73316 -1.57696e-15 -2.29449e-16)
(0.73316 -1.66981e-16 -1.11785e-16)
(0.735542 -1.5761e-15 -2.2986e-16)
(0.735542 -1.66394e-16 -1.12522e-16)
(0.737912 -1.57511e-15 -2.29899e-16)
(0.737912 -1.66614e-16 -1.13415e-16)
(0.740269 -1.57383e-15 -2.29893e-16)
(0.740269 -1.67374e-16 -1.14288e-16)
(0.742613 -1.57217e-15 -2.29938e-16)
(0.742613 -1.68591e-16 -1.15132e-16)
(0.744946 -1.57054e-15 -2.30036e-16)
(0.744946 -1.70512e-16 -1.15962e-16)
(0.747266 -1.56857e-15 -2.30092e-16)
(0.747266 -1.71852e-16 -1.16718e-16)
(0.749575 -1.56547e-15 -2.3035e-16)
(0.749575 -1.73209e-16 -1.17297e-16)
(0.751872 -1.56236e-15 -2.30682e-16)
(0.751872 -1.72726e-16 -1.18009e-16)
(0.754159 -1.56029e-15 -2.31003e-16)
(0.754159 -1.74404e-16 -1.18328e-16)
(0.756435 -1.55684e-15 -2.31306e-16)
(0.756435 -1.76723e-16 -1.18626e-16)
(0.7587 -1.55086e-15 -2.31897e-16)
(0.7587 -1.79629e-16 -1.18963e-16)
(0.760955 -1.54582e-15 -2.3253e-16)
(0.760955 -1.82452e-16 -1.19297e-16)
(0.763199 -1.54159e-15 -2.33209e-16)
(0.763199 -1.86103e-16 -1.19547e-16)
(0.765434 -1.53698e-15 -2.33887e-16)
(0.765434 -1.89391e-16 -1.19984e-16)
(0.76766 -1.53261e-15 -2.34844e-16)
(0.76766 -1.93193e-16 -1.20733e-16)
(0.769876 -1.52703e-15 -2.36e-16)
(0.769876 -1.99362e-16 -1.21481e-16)
(0.772083 -1.52088e-15 -2.37213e-16)
(0.772083 -2.0329e-16 -1.22123e-16)
(0.774281 -1.51463e-15 -2.38422e-16)
(0.774281 -2.06531e-16 -1.22657e-16)
(0.77647 -1.50768e-15 -2.39492e-16)
(0.77647 -2.09548e-16 -1.23619e-16)
(0.77865 -1.50268e-15 -2.41018e-16)
(0.77865 -2.14443e-16 -1.24837e-16)
(0.780822 -1.49877e-15 -2.43016e-16)
(0.780822 -2.19855e-16 -1.25918e-16)
(0.782986 -1.49388e-15 -2.44776e-16)
(0.782986 -2.26546e-16 -1.26807e-16)
(0.785142 -1.48735e-15 -2.46459e-16)
(0.785142 -2.32601e-16 -1.27986e-16)
(0.78729 -1.47944e-15 -2.48655e-16)
(0.78729 -2.35953e-16 -1.29219e-16)
(0.78943 -1.47295e-15 -2.50822e-16)
(0.78943 -2.40197e-16 -1.30304e-16)
(0.791563 -1.46663e-15 -2.52984e-16)
(0.791563 -2.47493e-16 -1.31611e-16)
(0.793688 -1.46165e-15 -2.55386e-16)
(0.793688 -2.53089e-16 -1.33552e-16)
(0.795806 -1.45944e-15 -2.58304e-16)
(0.795806 -2.54216e-16 -1.34698e-16)
(0.797918 -1.45642e-15 -2.60725e-16)
(0.797918 -2.56498e-16 -1.35663e-16)
(0.800022 -1.4549e-15 -2.62578e-16)
(0.800022 -2.57159e-16 -1.37359e-16)
(0.802119 -1.45532e-15 -2.64551e-16)
(0.802119 -2.55291e-16 -1.39079e-16)
(0.80421 -1.45418e-15 -2.66416e-16)
(0.80421 -2.56912e-16 -1.40257e-16)
(0.806294 -1.45143e-15 -2.67601e-16)
(0.806294 -2.58512e-16 -1.42054e-16)
(0.808372 -1.4493e-15 -2.68841e-16)
(0.808372 -2.586e-16 -1.44115e-16)
(0.810444 -1.44758e-15 -2.69846e-16)
(0.810444 -2.61956e-16 -1.4599e-16)
(0.81251 -1.44557e-15 -2.70244e-16)
(0.81251 -2.63035e-16 -1.48043e-16)
(0.814569 -1.4434e-15 -2.70414e-16)
(0.814569 -2.64449e-16 -1.49909e-16)
(0.816623 -1.44142e-15 -2.70208e-16)
(0.816623 -2.66477e-16 -1.52164e-16)
(0.818671 -1.43928e-15 -2.69947e-16)
(0.818671 -2.6816e-16 -1.54162e-16)
(0.820713 -1.43562e-15 -2.69309e-16)
(0.820713 -2.7141e-16 -1.56395e-16)
(0.82275 -1.43338e-15 -2.68954e-16)
(0.82275 -2.71256e-16 -1.58373e-16)
(0.824782 -1.43108e-15 -2.68751e-16)
(0.824782 -2.72185e-16 -1.59828e-16)
(0.826808 -1.42633e-15 -2.68747e-16)
(0.826808 -2.73032e-16 -1.61063e-16)
(0.828829 -1.4209e-15 -2.68817e-16)
(0.828829 -2.72639e-16 -1.62008e-16)
(0.830845 -1.41797e-15 -2.6836e-16)
(0.830845 -2.76723e-16 -1.63118e-16)
(0.832856 -1.41532e-15 -2.67814e-16)
(0.832856 -2.78403e-16 -1.64576e-16)
(0.834862 -1.41319e-15 -2.68112e-16)
(0.834862 -2.75728e-16 -1.65516e-16)
(0.836863 -1.40958e-15 -2.68753e-16)
(0.836863 -2.77962e-16 -1.65617e-16)
(0.838859 -1.40196e-15 -2.68959e-16)
(0.838859 -2.8247e-16 -1.65772e-16)
(0.840851 -1.39215e-15 -2.69009e-16)
(0.840851 -2.85662e-16 -1.66943e-16)
(0.842838 -1.38167e-15 -2.70229e-16)
(0.842838 -2.96664e-16 -1.68481e-16)
(0.844821 -1.3738e-15 -2.7194e-16)
(0.844821 -3.08267e-16 -1.69636e-16)
(0.846799 -1.36844e-15 -2.73893e-16)
(0.846799 -3.1682e-16 -1.71394e-16)
(0.848774 -1.36159e-15 -2.75819e-16)
(0.848774 -3.27807e-16 -1.74169e-16)
(0.850743 -1.35024e-15 -2.78492e-16)
(0.850743 -3.41375e-16 -1.77176e-16)
(0.852709 -1.34641e-15 -2.82662e-16)
(0.852709 -3.47488e-16 -1.80141e-16)
(0.854671 -1.3486e-15 -2.86263e-16)
(0.854671 -3.46346e-16 -1.83925e-16)
(0.856629 -1.34725e-15 -2.89236e-16)
(0.856629 -3.48065e-16 -1.88065e-16)
(0.858582 -1.34775e-15 -2.92563e-16)
(0.858582 -3.46751e-16 -1.92717e-16)
(0.860532 -1.35152e-15 -2.96516e-16)
(0.860532 -3.47846e-16 -1.97502e-16)
(0.862478 -1.35314e-15 -3.00316e-16)
(0.862478 -3.49979e-16 -2.01423e-16)
(0.864421 -1.35283e-15 -3.03885e-16)
(0.864421 -3.46785e-16 -2.05349e-16)
(0.866359 -1.35148e-15 -3.0749e-16)
(0.866359 -3.44747e-16 -2.09851e-16)
(0.868294 -1.3489e-15 -3.11449e-16)
(0.868294 -3.44787e-16 -2.13181e-16)
(0.870226 -1.34958e-15 -3.14925e-16)
(0.870226 -3.38568e-16 -2.16739e-16)
(0.872154 -1.34873e-15 -3.17907e-16)
(0.872154 -3.37352e-16 -2.20619e-16)
(0.874079 -1.3449e-15 -3.21151e-16)
(0.874079 -3.39987e-16 -2.25118e-16)
(0.876 -1.3445e-15 -3.25499e-16)
(0.876 -3.36813e-16 -2.29944e-16)
(0.877918 -1.34431e-15 -3.29814e-16)
(0.877918 -3.37959e-16 -2.3404e-16)
(0.879832 -1.34002e-15 -3.33483e-16)
(0.879832 -3.40065e-16 -2.37935e-16)
(0.881744 -1.33788e-15 -3.37094e-16)
(0.881744 -3.38123e-16 -2.41115e-16)
(0.883652 -1.3356e-15 -3.39661e-16)
(0.883652 -3.37318e-16 -2.46076e-16)
(0.885557 -1.33017e-15 -3.43445e-16)
(0.885557 -3.3745e-16 -2.49873e-16)
(0.887459 -1.32596e-15 -3.47358e-16)
(0.887459 -3.37198e-16 -2.52338e-16)
(0.889358 -1.32267e-15 -3.50119e-16)
(0.889358 -3.38476e-16 -2.5464e-16)
(0.891254 -1.3194e-15 -3.52655e-16)
(0.891254 -3.42245e-16 -2.56223e-16)
(0.893147 -1.31407e-15 -3.55026e-16)
(0.893147 -3.45424e-16 -2.57753e-16)
(0.895037 -1.30825e-15 -3.57621e-16)
(0.895037 -3.47072e-16 -2.59607e-16)
(0.896924 -1.30246e-15 -3.60332e-16)
(0.896924 -3.52549e-16 -2.6185e-16)
(0.898808 -1.29442e-15 -3.62747e-16)
(0.898808 -3.58828e-16 -2.63242e-16)
(0.90069 -1.28996e-15 -3.64634e-16)
(0.90069 -3.6175e-16 -2.63748e-16)
(0.902569 -1.28235e-15 -3.64829e-16)
(0.902569 -3.65953e-16 -2.66231e-16)
(0.904445 -1.27273e-15 -3.67292e-16)
(0.904445 -3.74289e-16 -2.69203e-16)
(0.906318 -1.2654e-15 -3.7055e-16)
(0.906318 -3.84267e-16 -2.68986e-16)
(0.908188 -1.2563e-15 -3.71157e-16)
(0.908188 -3.94579e-16 -2.70362e-16)
(0.910056 -1.24873e-15 -3.72522e-16)
(0.910056 -3.94129e-16 -2.75272e-16)
(0.911921 -1.24033e-15 -3.75473e-16)
(0.911921 -4.03912e-16 -2.79651e-16)
(0.913784 -1.23326e-15 -3.78867e-16)
(0.913784 -4.26627e-16 -2.81215e-16)
(0.915644 -1.22258e-15 -3.81218e-16)
(0.915644 -4.32722e-16 -2.86644e-16)
(0.917501 -1.20635e-15 -3.87162e-16)
(0.917501 -4.39858e-16 -2.92572e-16)
(0.919356 -1.19071e-15 -3.94052e-16)
(0.919356 -4.52786e-16 -3.00072e-16)
(0.921208 -1.18794e-15 -4.0222e-16)
(0.921208 -4.57445e-16 -3.04209e-16)
(0.923058 -1.18792e-15 -4.07977e-16)
(0.923058 -4.52875e-16 -3.08062e-16)
(0.924905 -1.18573e-15 -4.13778e-16)
(0.924905 -4.49902e-16 -3.12579e-16)
(0.92675 -1.18314e-15 -4.2067e-16)
(0.92675 -4.48606e-16 -3.16325e-16)
(0.928592 -1.17994e-15 -4.27551e-16)
(0.928592 -4.40366e-16 -3.16942e-16)
(0.930432 -1.17742e-15 -4.30632e-16)
(0.930432 -4.32168e-16 -3.18364e-16)
(0.932269 -1.17048e-15 -4.33564e-16)
(0.932269 -4.37025e-16 -3.20478e-16)
(0.934104 -1.17156e-15 -4.37013e-16)
(0.934104 -4.33727e-16 -3.20332e-16)
(0.935936 -1.16961e-15 -4.38942e-16)
(0.935936 -4.2602e-16 -3.21027e-16)
(0.937766 -1.16601e-15 -4.38871e-16)
(0.937766 -4.3987e-16 -3.19522e-16)
(0.939593 -1.15598e-15 -4.35587e-16)
(0.939593 -4.51892e-16 -3.19649e-16)
(0.941418 -1.13929e-15 -4.35268e-16)
(0.941418 -4.50008e-16 -3.16795e-16)
(0.94324 -1.12918e-15 -4.37066e-16)
(0.94324 -4.46968e-16 -3.17192e-16)
(0.94506 -1.12232e-15 -4.41226e-16)
(0.94506 -4.42955e-16 -3.16746e-16)
(0.946877 -1.11613e-15 -4.39783e-16)
(0.946877 -4.50007e-16 -3.12655e-16)
(0.948692 -1.10889e-15 -4.3643e-16)
(0.948692 -4.58825e-16 -3.0908e-16)
(0.950505 -1.09996e-15 -4.32878e-16)
(0.950505 -4.60798e-16 -3.12179e-16)
(0.952314 -1.08957e-15 -4.35254e-16)
(0.952314 -4.63907e-16 -3.05041e-16)
(0.954122 -1.07904e-15 -4.28773e-16)
(0.954122 -4.75893e-16 -2.99511e-16)
(0.955927 -1.06658e-15 -4.21388e-16)
(0.955927 -4.83547e-16 -2.97144e-16)
(0.957729 -1.05554e-15 -4.19531e-16)
(0.957729 -4.82325e-16 -2.96402e-16)
(0.959528 -1.04659e-15 -4.17733e-16)
(0.959528 -4.8879e-16 -2.90546e-16)
(0.961325 -1.04114e-15 -4.08718e-16)
(0.961325 -4.96812e-16 -2.84303e-16)
(0.96312 -1.03298e-15 -3.98021e-16)
(0.96312 -5.02409e-16 -2.81488e-16)
(0.964911 -1.02211e-15 -3.91301e-16)
(0.964911 -5.21268e-16 -2.79832e-16)
(0.9667 -1.0129e-15 -3.87727e-16)
(0.9667 -5.39118e-16 -2.78754e-16)
(0.968487 -1.00527e-15 -3.88033e-16)
(0.968487 -5.44199e-16 -2.72781e-16)
(0.97027 -1.0005e-15 -3.83279e-16)
(0.97027 -5.54953e-16 -2.66657e-16)
(0.972051 -1.00481e-15 -3.75145e-16)
(0.972051 -5.74436e-16 -2.6137e-16)
(0.973829 -1.00352e-15 -3.67507e-16)
(0.973829 -5.77242e-16 -2.63045e-16)
(0.975603 -9.94991e-16 -3.67586e-16)
(0.975603 -5.80188e-16 -2.56173e-16)
(0.977375 -9.9709e-16 -3.60759e-16)
(0.977375 -5.84847e-16 -2.46468e-16)
(0.979144 -9.96795e-16 -3.47661e-16)
(0.979144 -5.92748e-16 -2.45983e-16)
(0.98091 -9.87825e-16 -3.39031e-16)
(0.98091 -5.95417e-16 -2.40545e-16)
(0.982673 -9.84823e-16 -3.30765e-16)
(0.982673 -6.06391e-16 -2.35174e-16)
(0.984433 -9.86009e-16 -3.21797e-16)
(0.984433 -6.1155e-16 -2.25575e-16)
(0.986189 -9.86645e-16 -3.06844e-16)
(0.986189 -6.13212e-16 -2.18899e-16)
(0.987943 -9.83868e-16 -2.91127e-16)
(0.987943 -6.08992e-16 -2.13885e-16)
(0.989692 -9.8049e-16 -2.77566e-16)
(0.989692 -6.20061e-16 -2.038e-16)
(0.991439 -9.77323e-16 -2.57441e-16)
(0.991439 -6.31603e-16 -1.93444e-16)
(0.993182 -9.72214e-16 -2.37778e-16)
(0.993182 -6.22176e-16 -1.87166e-16)
(0.994921 -9.69723e-16 -2.20729e-16)
(0.994921 -6.21748e-16 -1.98892e-16)
(0.996657 -9.43979e-16 -2.20205e-16)
(0.996657 -6.32583e-16 -2.05447e-16)
(0.998388 -9.11708e-16 -2.26982e-16)
(0.998388 -6.50041e-16 -2.06011e-16)
(1.00012 -8.87377e-16 -2.19624e-16)
(1.00012 -6.79822e-16 -2.08623e-16)
(1.00184 -8.44213e-16 -2.25488e-16)
(1.00184 -6.8826e-16 -2.13593e-16)
(1.00356 -8.20107e-16 -2.38415e-16)
(1.00356 -6.76005e-16 -2.26123e-16)
(1.00528 -8.22444e-16 -2.58107e-16)
(1.00528 -6.76982e-16 -2.27977e-16)
(1.00699 -8.22934e-16 -2.65492e-16)
(1.00699 -6.74084e-16 -2.34106e-16)
(1.0087 -8.29688e-16 -2.71999e-16)
(1.0087 -6.75907e-16 -2.42542e-16)
(1.0104 -8.32118e-16 -2.73853e-16)
(1.0104 -6.79369e-16 -2.52249e-16)
(1.0121 -8.29007e-16 -2.86258e-16)
(1.0121 -6.66459e-16 -2.57015e-16)
(1.01379 -8.15617e-16 -2.93647e-16)
(1.01379 -6.41492e-16 -2.77438e-16)
(1.01548 -8.04465e-16 -3.01543e-16)
(1.01548 -6.3405e-16 -2.92614e-16)
(1.01716 -7.99351e-16 -3.21164e-16)
(1.01716 -6.37782e-16 -3.07441e-16)
(1.01884 -7.82089e-16 -3.31423e-16)
(1.01884 -6.41651e-16 -3.31105e-16)
(1.02051 -7.71506e-16 -3.2057e-16)
(1.02051 -6.50295e-16 -3.42607e-16)
(1.02218 -7.68912e-16 -3.22667e-16)
(1.02218 -6.69515e-16 -3.5743e-16)
(1.02384 -7.60688e-16 -3.37418e-16)
(1.02384 -6.7453e-16 -3.60833e-16)
(1.02549 -7.64111e-16 -3.5931e-16)
(1.02549 -6.77198e-16 -3.45581e-16)
(1.02714 -7.64901e-16 -3.44763e-16)
(1.02714 -6.88635e-16 -3.49268e-16)
(1.02879 -7.51421e-16 -3.43301e-16)
(1.02879 -6.80816e-16 -3.52057e-16)
(1.03042 -7.39295e-16 -3.36507e-16)
(1.03042 -6.77226e-16 -3.70815e-16)
(1.03205 -7.20313e-16 -3.4226e-16)
(1.03205 -6.79472e-16 -3.83826e-16)
(1.03367 -7.08892e-16 -3.5536e-16)
(1.03367 -6.74438e-16 -3.99923e-16)
(1.03529 -6.9106e-16 -3.56009e-16)
(1.03529 -6.89228e-16 -4.10176e-16)
(1.0369 -6.65649e-16 -3.66281e-16)
(1.0369 -6.86273e-16 -3.93019e-16)
(1.0385 -6.62795e-16 -3.76573e-16)
(1.0385 -6.7272e-16 -3.89856e-16)
(1.04009 -6.63564e-16 -3.91061e-16)
(1.04009 -6.82939e-16 -4.04539e-16)
(1.04167 -6.5918e-16 -3.99153e-16)
(1.04167 -6.83613e-16 -4.22699e-16)
(1.04324 -6.49858e-16 -3.94361e-16)
(1.04324 -6.41213e-16 -4.15944e-16)
(1.04481 -6.37095e-16 -3.94581e-16)
(1.04481 -6.53965e-16 -4.06165e-16)
(1.04637 -6.3116e-16 -4.00972e-16)
(1.04637 -6.45847e-16 -4.0451e-16)
(1.04791 -6.15846e-16 -4.00519e-16)
(1.04791 -6.38701e-16 -4.18786e-16)
(1.04945 -6.14417e-16 -4.20042e-16)
(1.04945 -6.35891e-16 -4.22754e-16)
(1.05097 -5.97945e-16 -4.23986e-16)
(1.05097 -6.16722e-16 -4.3092e-16)
(1.05249 -6.05294e-16 -4.26075e-16)
(1.05249 -5.981e-16 -4.37084e-16)
(1.05399 -5.99484e-16 -4.10497e-16)
(1.05399 -5.86856e-16 -4.32986e-16)
(1.05548 -5.90966e-16 -4.08039e-16)
(1.05548 -5.83282e-16 -4.22946e-16)
(1.05696 -5.79534e-16 -4.21115e-16)
(1.05696 -5.78744e-16 -4.24307e-16)
(1.05843 -5.62402e-16 -4.3241e-16)
(1.05843 -5.73957e-16 -4.45477e-16)
(1.05988 -5.47716e-16 -4.43037e-16)
(1.05988 -5.58208e-16 -4.47363e-16)
(1.06132 -5.25503e-16 -4.44165e-16)
(1.06132 -5.29483e-16 -4.41252e-16)
(1.06274 -5.05622e-16 -4.4315e-16)
(1.06274 -5.27227e-16 -4.57084e-16)
(1.06415 -4.95925e-16 -4.41223e-16)
(1.06415 -5.43321e-16 -4.79409e-16)
(1.06554 -4.96815e-16 -4.68024e-16)
(1.06554 -5.1307e-16 -4.54174e-16)
(1.06692 -4.88357e-16 -4.72847e-16)
(1.06692 -5.02587e-16 -4.29873e-16)
(1.06828 -5.0349e-16 -4.39943e-16)
(1.06828 -5.10633e-16 -4.29501e-16)
(1.06962 -4.99338e-16 -4.67371e-16)
(1.06962 -4.88927e-16 -4.31284e-16)
(1.07094 -4.83103e-16 -4.83966e-16)
(1.07094 -4.80901e-16 -4.36091e-16)
(1.07224 -5.1139e-16 -4.84888e-16)
(1.07224 -4.86324e-16 -4.47218e-16)
(1.07352 -4.86777e-16 -4.81607e-16)
(1.07352 -4.90508e-16 -4.51311e-16)
(1.07478 -5.01053e-16 -4.86288e-16)
(1.07478 -5.04444e-16 -4.68208e-16)
(1.07601 -5.19266e-16 -4.96221e-16)
(1.07601 -4.98531e-16 -4.58494e-16)
(1.07722 -4.87948e-16 -5.47412e-16)
(1.07722 -4.94282e-16 -4.94414e-16)
(1.0784 -4.03822e-16 -5.72992e-16)
(1.0784 -4.80116e-16 -5.1849e-16)
(1.07956 -4.92585e-16 -5.3787e-16)
(1.07956 -4.90176e-16 -5.00657e-16)
(1.08069 -4.88228e-16 -5.50197e-16)
(1.08069 -5.28126e-16 -5.06235e-16)
(1.08179 -4.69707e-16 -6.20279e-16)
(1.08179 -4.68862e-16 -4.80569e-16)
(1.08286 -5.02937e-16 -5.99534e-16)
(1.08286 -4.53714e-16 -4.5747e-16)
(1.0839 -5.15756e-16 -5.2838e-16)
(1.0839 -4.69349e-16 -4.6862e-16)
(1.0849 -4.77274e-16 -5.18948e-16)
(1.0849 -4.74471e-16 -4.95687e-16)
(1.08586 -3.79708e-16 -5.12077e-16)
(1.08586 -4.98199e-16 -4.67714e-16)
(1.08679 -4.24641e-16 -4.76228e-16)
(1.08679 -4.9213e-16 -4.42107e-16)
(1.08767 -4.12028e-16 -4.67135e-16)
(1.08767 -4.7064e-16 -4.29375e-16)
(1.08851 -4.7841e-16 -4.4789e-16)
(1.08851 -4.14712e-16 -4.13683e-16)
(1.0893 -4.45857e-16 -4.59368e-16)
(1.0893 -3.59212e-16 -4.30793e-16)
(1.09005 -4.341e-16 -4.22521e-16)
(1.09005 -3.69405e-16 -4.12025e-16)
(1.09074 -4.13206e-16 -4.37435e-16)
(1.09074 -3.8746e-16 -4.02774e-16)
(1.09138 -4.10521e-16 -4.51284e-16)
(1.09138 -4.16245e-16 -3.93711e-16)
(1.09197 -4.26565e-16 -3.70294e-16)
(1.09197 -4.20819e-16 -3.7245e-16)
(1.09249 -4.18346e-16 -4.26888e-16)
(1.09249 -4.11183e-16 -3.69236e-16)
(1.09295 -4.09814e-16 -3.78532e-16)
(1.09295 -4.5627e-16 -3.56508e-16)
(1.09334 -4.30968e-16 -3.72346e-16)
(1.09334 -4.6151e-16 -3.35439e-16)
(1.09366 -4.32387e-16 -3.57262e-16)
(1.09366 -4.13981e-16 -3.14792e-16)
(1.09391 -4.29843e-16 -3.2491e-16)
(1.09391 -4.33841e-16 -3.22487e-16)
(1.09407 -4.50364e-16 -2.88536e-16)
(1.09407 -4.6793e-16 -3.15994e-16)
(1.09416 -4.60847e-16 -2.37283e-16)
(1.09416 -4.28019e-16 -2.59035e-16)
(0.00678963 3.34061e-19 1.58456e-17)
(0.00678963 2.49686e-19 8.10495e-18)
(0.0204656 -9.70499e-19 7.39069e-17)
(0.0204656 -6.15091e-19 3.19533e-17)
(0.0343384 -1.31193e-18 7.60555e-17)
(0.0343384 -7.58692e-19 3.28963e-17)
(0.0484106 -2.09181e-18 7.82611e-17)
(0.0484106 -1.23608e-18 3.3872e-17)
(0.0626849 -2.90151e-18 8.05218e-17)
(0.0626849 -1.74376e-18 3.488e-17)
(0.0771629 -3.71269e-18 8.28329e-17)
(0.0771629 -2.31871e-18 3.59178e-17)
(0.091845 -4.52957e-18 8.51837e-17)
(0.091845 -2.91814e-18 3.69819e-17)
(0.106729 -5.39571e-18 8.75543e-17)
(0.106729 -3.48629e-18 3.80645e-17)
(0.121808 -6.34789e-18 8.99127e-17)
(0.121808 -4.13487e-18 3.91531e-17)
(0.137069 -7.38739e-18 9.22104e-17)
(0.137069 -4.68942e-18 4.02271e-17)
(0.152491 -8.411e-18 9.43846e-17)
(0.152491 -5.21815e-18 4.12594e-17)
(0.168041 -9.43503e-18 9.6355e-17)
(0.168041 -5.89659e-18 4.22159e-17)
(0.183674 -1.05035e-17 9.80332e-17)
(0.183674 -6.59434e-18 4.30575e-17)
(0.199333 -1.16132e-17 9.93292e-17)
(0.199333 -7.35076e-18 4.37421e-17)
(0.214946 -1.2698e-17 1.00161e-16)
(0.214946 -8.11787e-18 4.42336e-17)
(0.230437 -1.38558e-17 1.0047e-16)
(0.230437 -8.77836e-18 4.45056e-17)
(0.245722 -1.50546e-17 1.00228e-16)
(0.245722 -9.28019e-18 4.45474e-17)
(0.260722 -1.62181e-17 9.94433e-17)
(0.260722 -9.98376e-18 4.43607e-17)
(0.275364 -1.73467e-17 9.81643e-17)
(0.275364 -1.07162e-17 4.39628e-17)
(0.289588 -1.82937e-17 9.64628e-17)
(0.289588 -1.136e-17 4.33813e-17)
(0.303347 -1.92122e-17 9.44244e-17)
(0.303347 -1.20596e-17 4.26557e-17)
(0.316611 -2.02269e-17 9.21435e-17)
(0.316611 -1.27618e-17 4.1824e-17)
(0.329362 -2.11457e-17 8.97044e-17)
(0.329362 -1.342e-17 4.09266e-17)
(0.341596 -2.22458e-17 8.71829e-17)
(0.341596 -1.41657e-17 3.99997e-17)
(0.353318 -2.33907e-17 8.46359e-17)
(0.353318 -1.47508e-17 3.90701e-17)
(0.364541 -2.44864e-17 8.21171e-17)
(0.364541 -1.50824e-17 3.81516e-17)
(0.375284 -2.55124e-17 7.96599e-17)
(0.375284 -1.57328e-17 3.72627e-17)
(0.385567 -2.64055e-17 7.72897e-17)
(0.385567 -1.65732e-17 3.64204e-17)
(0.395414 -2.75931e-17 7.50205e-17)
(0.395414 -1.70808e-17 3.56356e-17)
(0.40485 -2.88186e-17 7.28483e-17)
(0.40485 -1.76946e-17 3.49198e-17)
(0.413899 -2.95421e-17 7.07842e-17)
(0.413899 -1.87133e-17 3.42623e-17)
(0.422585 -3.01079e-17 6.88383e-17)
(0.422585 -1.94257e-17 3.36424e-17)
(0.43093 -3.0873e-17 6.70041e-17)
(0.43093 -2.00004e-17 3.30913e-17)
(0.438957 -3.16806e-17 6.52753e-17)
(0.438957 -2.09143e-17 3.26085e-17)
(0.446686 -3.2511e-17 6.36467e-17)
(0.446686 -2.1091e-17 3.21887e-17)
(0.454137 -3.32308e-17 6.21094e-17)
(0.454137 -2.10767e-17 3.18292e-17)
(0.461326 -3.36219e-17 6.06587e-17)
(0.461326 -2.14319e-17 3.15221e-17)
(0.468271 -3.41327e-17 5.92972e-17)
(0.468271 -2.21327e-17 3.12702e-17)
(0.474988 -3.47218e-17 5.80083e-17)
(0.474988 -2.29647e-17 3.1074e-17)
(0.48149 -3.51788e-17 5.67926e-17)
(0.48149 -2.33495e-17 3.09168e-17)
(0.487791 -3.56173e-17 5.56478e-17)
(0.487791 -2.36792e-17 3.07979e-17)
(0.493902 -3.62307e-17 5.45709e-17)
(0.493902 -2.44853e-17 3.073e-17)
(0.499836 -3.70725e-17 5.35496e-17)
(0.499836 -2.52749e-17 3.07164e-17)
(0.505603 -3.78443e-17 5.25736e-17)
(0.505603 -2.53216e-17 3.07372e-17)
(0.511212 -3.84634e-17 5.16457e-17)
(0.511212 -2.58358e-17 3.07934e-17)
(0.516673 -3.89984e-17 5.0758e-17)
(0.516673 -2.56942e-17 3.08898e-17)
(0.521993 -3.96937e-17 4.99078e-17)
(0.521993 -2.55298e-17 3.10254e-17)
(0.52718 -4.055e-17 4.9095e-17)
(0.52718 -2.58113e-17 3.12095e-17)
(0.532242 -4.08758e-17 4.83106e-17)
(0.532242 -2.59031e-17 3.14383e-17)
(0.537185 -4.1476e-17 4.75712e-17)
(0.537185 -2.5977e-17 3.1706e-17)
(0.542015 -4.29306e-17 4.68638e-17)
(0.542015 -2.61665e-17 3.1993e-17)
(0.546738 -4.4303e-17 4.61795e-17)
(0.546738 -2.66725e-17 3.22935e-17)
(0.55136 -4.53161e-17 4.55167e-17)
(0.55136 -2.74508e-17 3.26128e-17)
(0.555885 -4.62472e-17 4.48756e-17)
(0.555885 -2.78746e-17 3.29694e-17)
(0.560317 -4.73376e-17 4.4254e-17)
(0.560317 -2.73526e-17 3.33658e-17)
(0.564663 -4.78322e-17 4.36415e-17)
(0.564663 -2.7203e-17 3.38141e-17)
(0.568924 -4.81498e-17 4.30448e-17)
(0.568924 -2.77605e-17 3.42877e-17)
(0.573106 -4.86509e-17 4.24708e-17)
(0.573106 -2.84684e-17 3.47698e-17)
(0.577212 -4.89689e-17 4.19147e-17)
(0.577212 -2.95018e-17 3.52909e-17)
(0.581246 -4.95329e-17 4.13732e-17)
(0.581246 -3.03832e-17 3.584e-17)
(0.585209 -5.00328e-17 4.08412e-17)
(0.585209 -3.08696e-17 3.64251e-17)
(0.589106 -4.99936e-17 4.03175e-17)
(0.589106 -3.16666e-17 3.70037e-17)
(0.59294 -5.02008e-17 3.98435e-17)
(0.59294 -3.28525e-17 3.75734e-17)
(0.596712 -5.09068e-17 3.93767e-17)
(0.596712 -3.34266e-17 3.8155e-17)
(0.600425 -5.16093e-17 3.8918e-17)
(0.600425 -3.34238e-17 3.87691e-17)
(0.604083 -5.24107e-17 3.84534e-17)
(0.604083 -3.41544e-17 3.94216e-17)
(0.607686 -5.33826e-17 3.79785e-17)
(0.607686 -3.44072e-17 4.00724e-17)
(0.611238 -5.41198e-17 3.75104e-17)
(0.611238 -3.43204e-17 4.07636e-17)
(0.614739 -5.45116e-17 3.70337e-17)
(0.614739 -3.50068e-17 4.14962e-17)
(0.618193 -5.52369e-17 3.65566e-17)
(0.618193 -3.55028e-17 4.2257e-17)
(0.6216 -5.58744e-17 3.60845e-17)
(0.6216 -3.57505e-17 4.30236e-17)
(0.624963 -5.58099e-17 3.56146e-17)
(0.624963 -3.61271e-17 4.37947e-17)
(0.628283 -5.60919e-17 3.51416e-17)
(0.628283 -3.64405e-17 4.45735e-17)
(0.631561 -5.66276e-17 3.46636e-17)
(0.631561 -3.62531e-17 4.53805e-17)
(0.6348 -5.70018e-17 3.41716e-17)
(0.6348 -3.58322e-17 4.62215e-17)
(0.638 -5.7399e-17 3.36367e-17)
(0.638 -3.60128e-17 4.71051e-17)
(0.641163 -5.78197e-17 3.30897e-17)
(0.641163 -3.59771e-17 4.79649e-17)
(0.644291 -5.8094e-17 3.25341e-17)
(0.644291 -3.57006e-17 4.88326e-17)
(0.647383 -5.758e-17 3.19654e-17)
(0.647383 -3.58488e-17 4.97362e-17)
(0.650442 -5.71476e-17 3.14264e-17)
(0.650442 -3.60892e-17 5.06426e-17)
(0.653469 -5.75923e-17 3.08939e-17)
(0.653469 -3.6485e-17 5.15319e-17)