/*--------------------------------*- C++ -*----------------------------------*\
| =========                 |                                                 |
| \\      /  F ield         | OpenFOAM: The Open Source CFD Toolbox           |
|  \\    /   O peration     | Version:  2012                                  |
|   \\  /    A nd           | Website:  www.openfoam.com                      |
|    \\/     M anipulation  |                                                 |
\*---------------------------------------------------------------------------*/
FoamFile
{
    version     2.0;
    format      ascii;
    class       surfaceScalarField;
    location    "9000";
    object      phi;
}
// * * * * * * * * * * * * * * * * * * * * * * * * * * * * * * * * * * * * * //

dimensions      [0 3 -1 0 0 0 0];
oriented        oriented;


internalField   nonuniform List<scalar> 
5116
(
2.53675e-08
-7.42464e-18
-3.10341e-22
-7.4772e-22
2.58502e-23
7.75765e-08
-7.42201e-18
-8.63578e-22
-2.446e-21
-3.74904e-23
1.32056e-07
-7.4193e-18
-8.91099e-22
-4.25336e-21
-3.91702e-23
1.88883e-07
-7.41644e-18
-9.27995e-22
-6.10491e-21
-4.09336e-23
2.48137e-07
-7.41356e-18
-9.66096e-22
-7.94343e-21
-4.27867e-23
3.099e-07
-7.41051e-18
-1.00579e-21
-9.96845e-21
-4.47359e-23
3.74255e-07
-7.40742e-18
-1.04772e-21
-1.20128e-20
-4.67855e-23
4.41289e-07
-7.40411e-18
-1.09179e-21
-1.413e-20
-4.89428e-23
5.11092e-07
-7.40087e-18
-1.13784e-21
-1.62353e-20
-5.12108e-23
5.83753e-07
-7.39708e-18
-1.18581e-21
-1.85515e-20
-5.35946e-23
6.59366e-07
-7.39334e-18
-1.23575e-21
-2.09066e-20
-5.60997e-23
7.38025e-07
-7.38962e-18
-1.28768e-21
-2.34377e-20
-5.87294e-23
8.19826e-07
-7.38557e-18
-1.34163e-21
-2.61129e-20
-6.14912e-23
9.04865e-07
-7.38119e-18
-1.39764e-21
-2.90202e-20
-6.4388e-23
9.93237e-07
-7.37665e-18
-1.4557e-21
-3.19972e-20
-6.74229e-23
1.08503e-06
-7.37224e-18
-1.5158e-21
-3.47749e-20
-7.06027e-23
1.18035e-06
-7.36745e-18
-1.57788e-21
-3.77173e-20
-7.39317e-23
1.27927e-06
-7.36238e-18
-1.64186e-21
-4.09756e-20
-7.74074e-23
1.38187e-06
-7.3573e-18
-1.70762e-21
-4.44554e-20
-8.10167e-23
1.48823e-06
-7.352e-18
-1.77495e-21
-4.83039e-20
-8.47507e-23
1.5984e-06
-7.34639e-18
-1.84363e-21
-5.20158e-20
-8.86008e-23
1.71244e-06
-7.3405e-18
-1.91334e-21
-5.58783e-20
-9.25563e-23
1.83036e-06
-7.33518e-18
-1.98373e-21
-5.94514e-20
-9.66077e-23
1.9522e-06
-7.32883e-18
-2.05435e-21
-6.37112e-20
-1.00741e-22
2.07793e-06
-7.3226e-18
-2.12472e-21
-6.75645e-20
-1.04937e-22
2.20753e-06
-7.31596e-18
-2.19432e-21
-7.23181e-20
-1.09183e-22
2.34094e-06
-7.30903e-18
-2.26258e-21
-7.68285e-20
-1.13443e-22
2.4781e-06
-7.30191e-18
-2.32896e-21
-8.16242e-20
-1.1769e-22
2.61891e-06
-7.29418e-18
-2.39291e-21
-8.69806e-20
-1.21894e-22
2.76325e-06
-7.28626e-18
-2.45394e-21
-9.15288e-20
-1.26017e-22
2.911e-06
-7.27798e-18
-2.5116e-21
-9.70599e-20
-1.30048e-22
3.062e-06
-7.26918e-18
-2.56555e-21
-1.02801e-19
-1.33956e-22
3.21611e-06
-7.26174e-18
-2.61553e-21
-1.06915e-19
-1.37716e-22
3.37316e-06
-7.25404e-18
-2.66135e-21
-1.1174e-19
-1.41332e-22
3.53301e-06
-7.24646e-18
-2.70293e-21
-1.16754e-19
-1.44776e-22
3.69551e-06
-7.23849e-18
-2.74031e-21
-1.21922e-19
-1.48079e-22
3.8605e-06
-7.22918e-18
-2.77362e-21
-1.27821e-19
-1.51234e-22
4.02786e-06
-7.22035e-18
-2.80307e-21
-1.34236e-19
-1.5424e-22
4.19747e-06
-7.21085e-18
-2.82888e-21
-1.40416e-19
-1.57064e-22
4.36924e-06
-7.20068e-18
-2.85137e-21
-1.46687e-19
-1.59749e-22
4.54306e-06
-7.19108e-18
-2.8709e-21
-1.524e-19
-1.62341e-22
4.71888e-06
-7.18105e-18
-2.88778e-21
-1.59097e-19
-1.64836e-22
4.89665e-06
-7.17052e-18
-2.9024e-21
-1.66414e-19
-1.67214e-22
5.07631e-06
-7.16225e-18
-2.91505e-21
-1.71185e-19
-1.69497e-22
5.25786e-06
-7.15388e-18
-2.92601e-21
-1.76192e-19
-1.71806e-22
5.44128e-06
-7.14463e-18
-2.93557e-21
-1.80985e-19
-1.74123e-22
5.62657e-06
-7.13779e-18
-2.94404e-21
-1.8579e-19
-1.76475e-22
5.81375e-06
-7.12866e-18
-2.95155e-21
-1.91335e-19
-1.78861e-22
6.00284e-06
-7.12083e-18
-2.95839e-21
-1.95928e-19
-1.81258e-22
6.19387e-06
-7.11332e-18
-2.96473e-21
-2.01319e-19
-1.83746e-22
6.38688e-06
-7.10398e-18
-2.97074e-21
-2.05761e-19
-1.86272e-22
6.58192e-06
-7.09409e-18
-2.97657e-21
-2.11297e-19
-1.88944e-22
6.77904e-06
-7.08553e-18
-2.98245e-21
-2.15921e-19
-1.91704e-22
6.97828e-06
-7.07627e-18
-2.98837e-21
-2.21085e-19
-1.94588e-22
7.17972e-06
-7.06825e-18
-2.99449e-21
-2.26433e-19
-1.97605e-22
7.38341e-06
-7.05937e-18
-3.00085e-21
-2.32066e-19
-2.00788e-22
7.58942e-06
-7.05047e-18
-3.00752e-21
-2.36793e-19
-2.04033e-22
7.79782e-06
-7.04266e-18
-3.01459e-21
-2.40069e-19
-2.07434e-22
8.00867e-06
-7.03231e-18
-3.02215e-21
-2.47299e-19
-2.11037e-22
8.22204e-06
-7.02274e-18
-3.03035e-21
-2.53118e-19
-2.14529e-22
8.43801e-06
-7.01366e-18
-3.03925e-21
-2.58718e-19
-2.17994e-22
8.65666e-06
-7.00313e-18
-3.0488e-21
-2.64763e-19
-2.21484e-22
8.87805e-06
-6.99467e-18
-3.05911e-21
-2.70952e-19
-2.24978e-22
9.10226e-06
-6.98638e-18
-3.07004e-21
-2.75931e-19
-2.28447e-22
9.32938e-06
-6.97609e-18
-3.08148e-21
-2.82475e-19
-2.32069e-22
9.55946e-06
-6.96645e-18
-3.09378e-21
-2.89407e-19
-2.3573e-22
9.7926e-06
-6.95704e-18
-3.10676e-21
-2.96258e-19
-2.39407e-22
1.00289e-05
-6.94571e-18
-3.12053e-21
-3.02929e-19
-2.43036e-22
1.02684e-05
-6.93946e-18
-3.13509e-21
-3.09431e-19
-2.46566e-22
1.05111e-05
-6.92732e-18
-3.15e-21
-3.16339e-19
-2.50013e-22
1.07573e-05
-6.91731e-18
-3.1657e-21
-3.22802e-19
-2.53384e-22
1.10068e-05
-6.90713e-18
-3.18209e-21
-3.29222e-19
-2.56808e-22
1.126e-05
-6.89736e-18
-3.1991e-21
-3.36199e-19
-2.60213e-22
1.15167e-05
-6.88555e-18
-3.21668e-21
-3.41497e-19
-2.63392e-22
1.17771e-05
-6.87617e-18
-3.23494e-21
-3.47994e-19
-2.66356e-22
1.20413e-05
-6.86425e-18
-3.2537e-21
-3.52431e-19
-2.69265e-22
1.23094e-05
-6.85638e-18
-3.27315e-21
-3.60147e-19
-2.72206e-22
1.25814e-05
-6.84945e-18
-3.2929e-21
-3.61685e-19
-2.75019e-22
1.28574e-05
-6.84697e-18
-3.31288e-21
-3.62272e-19
-2.77871e-22
1.31375e-05
-6.83897e-18
-3.33257e-21
-3.66461e-19
-2.81117e-22
1.34218e-05
-6.83092e-18
-3.35252e-21
-3.71476e-19
-2.84536e-22
1.37104e-05
-6.8229e-18
-3.37267e-21
-3.79811e-19
-2.8825e-22
1.40034e-05
-6.81637e-18
-3.39288e-21
-3.83159e-19
-2.92045e-22
1.43009e-05
-6.81173e-18
-3.41292e-21
-3.84851e-19
-2.95965e-22
1.46029e-05
-6.80331e-18
-3.43281e-21
-3.9037e-19
-3.00186e-22
1.49095e-05
-6.79531e-18
-3.45236e-21
-3.94587e-19
-3.04672e-22
1.52209e-05
-6.78972e-18
-3.47166e-21
-3.95881e-19
-3.09755e-22
1.5537e-05
-6.78126e-18
-3.49065e-21
-4.04508e-19
-3.15751e-22
1.58581e-05
-6.77064e-18
-3.50963e-21
-4.12516e-19
-3.21195e-22
1.61842e-05
-6.75827e-18
-3.52884e-21
-4.18863e-19
-3.26365e-22
1.65155e-05
-6.74915e-18
-3.54886e-21
-4.24696e-19
-3.31002e-22
1.68519e-05
-6.73788e-18
-3.5686e-21
-4.32713e-19
-3.35793e-22
1.71936e-05
-6.72541e-18
-3.58807e-21
-4.40451e-19
-3.40139e-22
1.75407e-05
-6.71346e-18
-3.60782e-21
-4.467e-19
-3.43288e-22
1.78933e-05
-6.70179e-18
-3.6277e-21
-4.52394e-19
-3.46627e-22
1.82514e-05
-6.68703e-18
-3.64803e-21
-4.58576e-19
-3.50033e-22
1.86153e-05
-6.67037e-18
-3.66862e-21
-4.64166e-19
-3.53547e-22
1.8985e-05
-6.65709e-18
-3.68962e-21
-4.70585e-19
-3.56562e-22
1.93606e-05
-6.64903e-18
-3.71099e-21
-4.77491e-19
-3.58551e-22
1.97422e-05
-6.63697e-18
-3.73172e-21
-4.7814e-19
-3.60655e-22
2.01299e-05
-6.62299e-18
-3.75235e-21
-4.84435e-19
-3.63738e-22
2.05239e-05
-6.60595e-18
-3.7728e-21
-4.92456e-19
-3.6667e-22
2.09242e-05
-6.59061e-18
-3.79444e-21
-4.97357e-19
-3.70346e-22
2.13309e-05
-6.57946e-18
-3.81709e-21
-5.03745e-19
-3.73763e-22
2.17442e-05
-6.5682e-18
-3.83962e-21
-5.11888e-19
-3.77007e-22
2.21642e-05
-6.55347e-18
-3.86284e-21
-5.16919e-19
-3.78877e-22
2.2591e-05
-6.53951e-18
-3.88571e-21
-5.26282e-19
-3.80462e-22
2.30247e-05
-6.52491e-18
-3.90795e-21
-5.33938e-19
-3.81665e-22
2.34655e-05
-6.5087e-18
-3.93073e-21
-5.41878e-19
-3.81425e-22
2.39134e-05
-6.4949e-18
-3.95474e-21
-5.45643e-19
-3.79878e-22
2.43686e-05
-6.48053e-18
-3.97909e-21
-5.54069e-19
-3.77723e-22
2.48312e-05
-6.464e-18
-4.00463e-21
-5.61681e-19
-3.74555e-22
2.53013e-05
-6.44884e-18
-4.03154e-21
-5.6848e-19
-3.70429e-22
2.57791e-05
-6.43024e-18
-4.05944e-21
-5.81767e-19
-3.66738e-22
2.62647e-05
-6.41429e-18
-4.0881e-21
-5.91432e-19
-3.61307e-22
2.67582e-05
-6.40333e-18
-4.1176e-21
-5.9553e-19
-3.55002e-22
2.72598e-05
-6.38553e-18
-4.14552e-21
-5.98537e-19
-3.49037e-22
2.77695e-05
-6.36526e-18
-4.17407e-21
-6.08095e-19
-3.42605e-22
2.82877e-05
-6.34657e-18
-4.20298e-21
-6.19038e-19
-3.3481e-22
2.88143e-05
-6.33423e-18
-4.23246e-21
-6.20864e-19
-3.24736e-22
2.93495e-05
-6.31973e-18
-4.2607e-21
-6.24144e-19
-3.15633e-22
2.98935e-05
-6.30841e-18
-4.28844e-21
-6.32717e-19
-3.07204e-22
3.04464e-05
-6.29706e-18
-4.3151e-21
-6.36175e-19
-2.98353e-22
3.10084e-05
-6.2874e-18
-4.34012e-21
-6.31246e-19
-2.90225e-22
3.15796e-05
-6.27313e-18
-4.36503e-21
-6.33879e-19
-2.84302e-22
3.21602e-05
-6.25922e-18
-4.39256e-21
-6.41721e-19
-2.76788e-22
3.27503e-05
-6.24615e-18
-4.41804e-21
-6.45597e-19
-2.64524e-22
3.33501e-05
-6.23334e-18
-4.44287e-21
-6.48491e-19
-2.49092e-22
3.39598e-05
-6.2102e-18
-4.46385e-21
-6.52603e-19
-2.33416e-22
3.45795e-05
-6.19324e-18
-4.48658e-21
-6.49976e-19
-2.14417e-22
3.52093e-05
-6.18072e-18
-4.51031e-21
-6.57233e-19
-1.95683e-22
3.58496e-05
-6.17332e-18
-4.53343e-21
-6.60682e-19
-1.74991e-22
3.65003e-05
-6.15515e-18
-4.55186e-21
-6.6151e-19
-1.53712e-22
3.71618e-05
-6.13436e-18
-4.56869e-21
-6.70984e-19
-1.33376e-22
3.78341e-05
-6.11653e-18
-4.58846e-21
-6.71886e-19
-1.09724e-22
3.85175e-05
-6.1032e-18
-4.60594e-21
-6.77701e-19
-8.69355e-23
3.92122e-05
-6.08463e-18
-4.62156e-21
-6.85186e-19
-6.22113e-23
3.99182e-05
-6.06841e-18
-4.63732e-21
-6.99288e-19
-3.36007e-23
4.06359e-05
-6.04485e-18
-4.64784e-21
-7.12867e-19
1.06253e-24
4.13654e-05
-6.01008e-18
-4.65183e-21
-7.17741e-19
3.22642e-23
4.21069e-05
-5.99324e-18
-4.65849e-21
-7.30294e-19
5.74288e-23
4.28606e-05
-5.98137e-18
-4.65886e-21
-7.40689e-19
8.23486e-23
4.36267e-05
-5.95741e-18
-4.6566e-21
-7.53011e-19
1.05966e-22
4.44055e-05
-5.94195e-18
-4.65509e-21
-7.59214e-19
1.28517e-22
4.5197e-05
-5.92441e-18
-4.65015e-21
-7.69897e-19
1.50626e-22
4.60016e-05
-5.90024e-18
-4.64383e-21
-7.84857e-19
1.72627e-22
4.68194e-05
-5.86785e-18
-4.64225e-21
-7.97764e-19
1.95652e-22
4.76506e-05
-5.84692e-18
-4.64753e-21
-8.21158e-19
2.19007e-22
4.84956e-05
-5.84011e-18
-4.65468e-21
-8.13408e-19
2.53314e-22
4.93544e-05
-5.82954e-18
-4.65644e-21
-8.23161e-19
2.88667e-22
5.02274e-05
-5.83489e-18
-4.65507e-21
-8.28915e-19
3.26462e-22
5.11147e-05
-5.82087e-18
-4.64019e-21
-8.32198e-19
3.70931e-22
5.20166e-05
-5.81674e-18
-4.62722e-21
-8.45304e-19
4.12608e-22
5.29334e-05
-5.79557e-18
-4.61174e-21
-8.50746e-19
4.59253e-22
5.38652e-05
-5.78477e-18
-4.60143e-21
-8.60436e-19
5.04533e-22
5.48124e-05
-5.78049e-18
-4.59241e-21
-8.73081e-19
5.50343e-22
5.57751e-05
-5.77448e-18
-4.58699e-21
-8.8684e-19
5.91622e-22
5.67537e-05
-5.7596e-18
-4.56611e-21
-8.97243e-19
6.36454e-22
5.77484e-05
-5.73531e-18
-4.54646e-21
-9.15814e-19
6.81359e-22
5.87593e-05
-5.71325e-18
-4.52607e-21
-9.25559e-19
7.18537e-22
5.9787e-05
-5.67029e-18
-4.49981e-21
-9.50125e-19
7.50187e-22
6.08314e-05
-5.65939e-18
-4.48802e-21
-9.71755e-19
8.0784e-22
6.18931e-05
-5.63988e-18
-4.4757e-21
-9.80562e-19
8.89601e-22
6.29722e-05
-5.60504e-18
-4.43476e-21
-9.95101e-19
9.56905e-22
6.4069e-05
-5.60262e-18
-4.40159e-21
-1.01415e-18
1.00719e-21
6.51838e-05
-5.58333e-18
-4.32778e-21
-1.03059e-18
1.04298e-21
6.63169e-05
-5.55733e-18
-4.24398e-21
-1.0445e-18
1.07246e-21
6.74686e-05
-5.55827e-18
-4.1775e-21
-1.06525e-18
1.10908e-21
6.86392e-05
-5.54277e-18
-4.10961e-21
-1.08346e-18
1.15923e-21
6.9829e-05
-5.52055e-18
-4.05817e-21
-1.09721e-18
1.22859e-21
7.10383e-05
-5.51591e-18
-4.03557e-21
-1.12618e-18
1.31431e-21
7.22674e-05
-5.46644e-18
-4.00189e-21
-1.14712e-18
1.41803e-21
7.35167e-05
-5.46959e-18
-4.02645e-21
-1.14822e-18
1.53505e-21
7.47865e-05
-5.48008e-18
-4.04785e-21
-1.1536e-18
1.63508e-21
7.60771e-05
-5.48816e-18
-4.05757e-21
-1.15403e-18
1.73592e-21
7.73888e-05
-5.4819e-18
-4.05847e-21
-1.15581e-18
1.86464e-21
7.8722e-05
-5.48068e-18
-4.08131e-21
-1.15066e-18
1.9821e-21
8.0077e-05
-5.47582e-18
-4.11159e-21
-1.15272e-18
2.06517e-21
8.14542e-05
-5.47087e-18
-4.16204e-21
-1.15668e-18
2.1402e-21
8.2854e-05
-5.45757e-18
-4.21501e-21
-1.17711e-18
2.24082e-21
8.42767e-05
-5.45006e-18
-4.27748e-21
-1.18137e-18
2.35759e-21
8.57226e-05
-5.43372e-18
-4.29605e-21
-1.19843e-18
2.46518e-21
8.71922e-05
-5.41572e-18
-4.31729e-21
-1.21773e-18
2.58504e-21
8.86858e-05
-5.39665e-18
-4.30618e-21
-1.227e-18
2.70772e-21
9.02038e-05
-5.37248e-18
-4.26717e-21
-1.24392e-18
2.81326e-21
9.17467e-05
-5.35217e-18
-4.22649e-21
-1.25043e-18
2.89576e-21
9.33147e-05
-5.32644e-18
-4.14512e-21
-1.27678e-18
2.94366e-21
9.49083e-05
-5.31042e-18
-4.03431e-21
-1.29579e-18
2.98398e-21
9.6528e-05
-5.28446e-18
-3.87036e-21
-1.31557e-18
3.01589e-21
9.81741e-05
-5.26526e-18
-3.70637e-21
-1.34147e-18
3.02488e-21
9.98471e-05
-5.2417e-18
-3.51687e-21
-1.34917e-18
3.04122e-21
0.000101547
-5.19727e-18
-3.33527e-21
-1.37775e-18
3.01982e-21
0.000103275
-5.16734e-18
-3.23959e-21
-1.40133e-18
3.01736e-21
0.000105031
-5.13778e-18
-3.20126e-21
-1.41895e-18
3.05317e-21
0.000106816
-5.11314e-18
-3.24396e-21
-1.45439e-18
3.1616e-21
0.00010863
-5.06747e-18
-3.37279e-21
-1.48156e-18
3.33448e-21
0.000110474
-5.0464e-18
-3.65287e-21
-1.49082e-18
3.59591e-21
0.000112347
-5.05328e-18
-3.94372e-21
-1.5021e-18
3.85334e-21
0.000114251
-5.04957e-18
-4.25342e-21
-1.51313e-18
4.10304e-21
0.000116186
-5.04779e-18
-4.64442e-21
-1.51586e-18
4.33376e-21
0.000118152
-5.00792e-18
-5.01164e-21
-1.53242e-18
4.52592e-21
0.000120151
-4.99875e-18
-5.41372e-21
-1.53035e-18
4.69107e-21
0.000122182
-4.96017e-18
-5.75765e-21
-1.57619e-18
4.74529e-21
0.000124245
-4.92492e-18
-6.11756e-21
-1.64317e-18
4.81677e-21
0.000126343
-4.88272e-18
-6.47428e-21
-1.69372e-18
4.99219e-21
0.000128474
-4.83215e-18
-6.80691e-21
-1.74935e-18
5.0907e-21
0.00013064
-4.79667e-18
-7.20448e-21
-1.77827e-18
5.10847e-21
0.000132842
-4.7478e-18
-7.49826e-21
-1.81776e-18
5.04102e-21
0.000135079
-4.70589e-18
-7.77389e-21
-1.86757e-18
4.94645e-21
0.000137352
-4.67968e-18
-8.03236e-21
-1.91529e-18
4.85171e-21
0.000139662
-4.63081e-18
-8.07923e-21
-1.95915e-18
4.68924e-21
0.00014201
-4.59158e-18
-8.09569e-21
-1.99718e-18
4.39093e-21
0.000144395
-4.52819e-18
-7.96321e-21
-2.06187e-18
3.8993e-21
0.00014682
-4.48002e-18
-7.98232e-21
-2.09373e-18
3.64733e-21
0.000149283
-4.45186e-18
-7.92409e-21
-2.13464e-18
3.47849e-21
0.000151786
-4.37535e-18
-7.71159e-21
-2.16388e-18
3.36379e-21
0.00015433
-4.32232e-18
-7.51263e-21
-2.21789e-18
3.14215e-21
0.000156915
-4.29246e-18
-7.31176e-21
-2.24585e-18
3.00201e-21
0.000159542
-4.23823e-18
-7.05533e-21
-2.27917e-18
2.89775e-21
0.000162211
-4.18438e-18
-6.84731e-21
-2.3042e-18
2.95542e-21
0.000164924
-4.13288e-18
-6.80686e-21
-2.3468e-18
2.98032e-21
0.00016768
-4.0996e-18
-6.88207e-21
-2.37279e-18
2.92922e-21
0.000170481
-4.04671e-18
-7.05704e-21
-2.40419e-18
2.94708e-21
0.000173326
-4.01256e-18
-7.40149e-21
-2.40602e-18
2.95716e-21
0.000176218
-3.95703e-18
-7.73298e-21
-2.4479e-18
2.68448e-21
0.000179156
-3.91216e-18
-8.06901e-21
-2.45201e-18
2.29713e-21
0.000182142
-3.85108e-18
-8.31946e-21
-2.50939e-18
1.81157e-21
0.000185176
-3.83738e-18
-8.92328e-21
-2.5303e-18
1.43506e-21
0.000188258
-3.79659e-18
-9.60972e-21
-2.5743e-18
7.9892e-22
0.00019139
-3.81167e-18
-1.02925e-20
-2.59593e-18
1.60981e-22
0.000194573
-3.77511e-18
-1.09095e-20
-2.63858e-18
-2.75811e-22
0.000197806
-3.76724e-18
-1.16609e-20
-2.66389e-18
-6.74201e-22
0.000201092
-3.74513e-18
-1.2388e-20
-2.66332e-18
-1.25163e-21
0.00020443
-3.71e-18
-1.28143e-20
-2.65144e-18
-1.91534e-21
0.000207822
-3.69495e-18
-1.31873e-20
-2.66687e-18
-2.82148e-21
0.000211269
-3.64051e-18
-1.35795e-20
-2.66315e-18
-3.42814e-21
0.00021477
-3.59575e-18
-1.41189e-20
-2.67986e-18
-4.17403e-21
0.000218328
-3.5865e-18
-1.46956e-20
-2.69055e-18
-4.93605e-21
0.000221942
-3.56216e-18
-1.52962e-20
-2.68336e-18
-5.72912e-21
0.000225615
-3.57266e-18
-1.57252e-20
-2.64263e-18
-6.52537e-21
0.000229346
-3.55557e-18
-1.59669e-20
-2.65427e-18
-7.50582e-21
0.000233136
-3.52463e-18
-1.62101e-20
-2.64151e-18
-8.35674e-21
0.000236988
-3.52259e-18
-1.63001e-20
-2.61697e-18
-9.2135e-21
0.0002409
-3.48297e-18
-1.61848e-20
-2.57518e-18
-1.03585e-20
0.000244876
-3.38361e-18
-1.63672e-20
-2.61335e-18
-1.17058e-20
0.000248914
-3.33761e-18
-1.68557e-20
-2.62897e-18
-1.27835e-20
0.000253017
-3.27094e-18
-1.66253e-20
-2.6855e-18
-1.44826e-20
0.000257185
-3.15574e-18
-1.65888e-20
-2.67546e-18
-1.59659e-20
0.000261419
-3.10584e-18
-1.73174e-20
-2.67682e-18
-1.70985e-20
0.000265721
-3.08696e-18
-1.76825e-20
-2.68425e-18
-1.81201e-20
0.000270091
-3.07613e-18
-1.69595e-20
-2.66104e-18
-1.84354e-20
0.00027453
-3.00935e-18
-1.57733e-20
-2.66724e-18
-1.884e-20
0.00027904
-2.96148e-18
-1.57269e-20
-2.65973e-18
-1.82719e-20
0.000283621
-2.93757e-18
-1.59247e-20
-2.62084e-18
-1.7968e-20
0.000288274
-2.83826e-18
-1.66867e-20
-2.64575e-18
-1.82126e-20
0.000293001
-2.77296e-18
-1.75246e-20
-2.64821e-18
-1.87636e-20
0.000297803
-2.75177e-18
-1.89175e-20
-2.63399e-18
-1.99514e-20
0.00030268
-2.70081e-18
-2.01994e-20
-2.61676e-18
-2.11011e-20
0.000307634
-2.63746e-18
-2.02239e-20
-2.59566e-18
-2.24709e-20
0.000312666
-2.73375e-18
-1.99603e-20
-2.4894e-18
-2.39174e-20
0.000317778
-2.6314e-18
-1.79126e-20
-2.53056e-18
-2.52096e-20
0.000322969
-2.57759e-18
-1.78433e-20
-2.52243e-18
-2.46835e-20
0.000328242
-2.62684e-18
-1.82852e-20
-2.51905e-18
-2.45077e-20
0.000333598
-2.56489e-18
-1.77847e-20
-2.43762e-18
-2.45094e-20
0.000339037
-2.53603e-18
-1.8732e-20
-2.42237e-18
-2.52819e-20
0.000344562
-2.48552e-18
-2.02495e-20
-2.3839e-18
-2.56732e-20
0.000350172
-2.44962e-18
-2.11038e-20
-2.37653e-18
-2.66058e-20
0.00035587
-2.44075e-18
-2.22737e-20
-2.33622e-18
-2.62388e-20
0.000361657
-2.35812e-18
-2.26372e-20
-2.29427e-18
-2.57343e-20
0.000367534
-2.32592e-18
-2.34561e-20
-2.27091e-18
-2.53491e-20
0.000373501
-2.30889e-18
-2.34158e-20
-2.25504e-18
-2.58064e-20
0.000379561
-2.27096e-18
-2.4349e-20
-2.2373e-18
-2.66575e-20
0.000385715
-2.26829e-18
-2.55704e-20
-2.30225e-18
-2.78541e-20
0.000391963
-2.23296e-18
-2.6436e-20
-2.26433e-18
-2.77892e-20
0.000398308
-2.20499e-18
-2.61225e-20
-2.27595e-18
-3.07701e-20
0.00040475
-2.16897e-18
-2.56261e-20
-2.17216e-18
-3.02164e-20
0.000411291
-2.14493e-18
-2.62267e-20
-2.1738e-18
-3.28693e-20
0.000417932
-2.1671e-18
-2.56529e-20
-2.13208e-18
-3.23556e-20
0.000424674
-2.1538e-18
-2.37605e-20
-2.06721e-18
-3.21139e-20
0.000431519
-2.11156e-18
-2.16756e-20
-2.16391e-18
-3.23902e-20
0.000438468
-2.05896e-18
-2.22475e-20
-2.13133e-18
-2.79093e-20
0.000445522
-2.05329e-18
-2.40714e-20
-2.1482e-18
-2.66646e-20
0.000452682
-2.10004e-18
-2.67648e-20
-2.05674e-18
-2.7473e-20
0.00045995
-2.07293e-18
-2.92267e-20
-2.00645e-18
-3.03076e-20
0.000467328
-2.08996e-18
-3.13907e-20
-2.01272e-18
-3.29e-20
0.000474815
-2.05506e-18
-3.11108e-20
-1.98394e-18
-3.38737e-20
0.000482414
-2.03307e-18
-3.22698e-20
-2.07282e-18
-3.63782e-20
0.000490126
-1.87822e-18
-3.35463e-20
-1.95006e-18
-3.46599e-20
0.000497951
-1.89285e-18
-3.48697e-20
-1.87155e-18
-3.18983e-20
0.000505892
-1.82516e-18
-3.12547e-20
-1.80718e-18
-2.98168e-20
0.000513949
-1.76901e-18
-2.97477e-20
-1.63743e-18
-3.23973e-20
0.000522124
-1.652e-18
-2.77032e-20
-1.58242e-18
-3.61227e-20
0.000530417
-1.53238e-18
-2.44716e-20
-1.49684e-18
-3.5553e-20
0.00053883
-1.51602e-18
-2.16312e-20
-1.4389e-18
-3.60307e-20
0.000547363
-1.50781e-18
-1.65086e-20
-1.43161e-18
-3.48664e-20
0.000556018
-1.37788e-18
-1.2691e-20
-1.49534e-18
-3.66996e-20
0.000564796
-1.28468e-18
-1.56051e-20
-1.40131e-18
-3.58966e-20
0.000573696
-1.16515e-18
-2.26358e-20
-1.2389e-18
-3.22784e-20
0.000582721
-1.19555e-18
-2.53436e-20
-1.21009e-18
-2.92428e-20
0.000591871
-1.16998e-18
-2.3066e-20
-1.1884e-18
-3.0127e-20
0.000601145
-1.05219e-18
-2.05834e-20
-1.1176e-18
-2.9385e-20
0.000610546
-1.09437e-18
-1.69183e-20
-1.11986e-18
-2.2614e-20
0.000620073
-1.06559e-18
-7.4357e-21
-1.02186e-18
-1.65959e-20
0.000629726
-1.04762e-18
-5.62191e-22
-1.03577e-18
-1.28789e-20
0.000639506
-1.07427e-18
3.72475e-22
-9.83737e-19
-7.50072e-21
0.000649412
-1.11461e-18
9.60907e-21
-9.90941e-19
-8.34528e-21
0.000659444
-9.15578e-19
1.01157e-20
-1.09528e-18
-7.89115e-21
0.000669602
-9.77508e-19
1.08531e-21
-9.94865e-19
-2.08942e-21
0.000679885
-9.50979e-19
-1.40013e-21
-8.52558e-19
-5.19028e-22
0.000690292
-9.33935e-19
-5.02423e-21
-8.75928e-19
-6.31461e-21
0.000700822
-9.80222e-19
-8.67079e-21
-8.5166e-19
-1.1373e-20
0.000711474
-8.06643e-19
-8.28197e-21
-9.69432e-19
-1.86403e-20
0.000722246
-8.48244e-19
-6.07815e-21
-9.14816e-19
-1.09825e-20
0.000733137
-8.36654e-19
-3.11722e-21
-9.18314e-19
-1.04095e-20
0.000744144
-7.60211e-19
6.54492e-22
-8.63392e-19
-6.83548e-21
0.000755264
-7.73609e-19
-5.47427e-21
-7.73896e-19
-1.0845e-20
0.000766496
-7.41903e-19
-3.65688e-21
-7.58718e-19
-2.09453e-20
0.000777836
-7.00512e-19
-4.71311e-21
-7.20665e-19
-2.74174e-20
0.000789281
-8.02848e-19
-4.66454e-21
-7.42527e-19
-4.24478e-20
0.000800828
4.60049e-21
-7.24079e-19
-4.35206e-20
-7.68258e-19
2.53675e-08
-2.62564e-22
-2.12159e-23
7.75765e-08
-1.01868e-21
-1.63404e-22
1.32056e-07
-1.77538e-21
-3.33911e-22
1.88883e-07
-2.61739e-21
-4.80994e-22
2.48137e-07
-3.46263e-21
-6.51573e-22
3.099e-07
-4.2805e-21
-8.51614e-22
3.74255e-07
-5.19841e-21
-1.15742e-21
4.41289e-07
-6.0947e-21
-1.29297e-21
5.11092e-07
-7.1671e-21
-1.38092e-21
5.83753e-07
-8.26067e-21
-1.57913e-21
6.59366e-07
-9.42668e-21
-1.60558e-21
7.38025e-07
-1.04061e-20
-1.94747e-21
8.19826e-07
-1.16158e-20
-2.1351e-21
9.04865e-07
-1.28916e-20
-2.39647e-21
9.93237e-07
-1.38065e-20
-2.90439e-21
1.08503e-06
-1.46808e-20
-3.31482e-21
1.18035e-06
-1.60369e-20
-3.674e-21
1.27927e-06
-1.77214e-20
-3.67574e-21
1.38187e-06
-1.90064e-20
-3.72044e-21
1.48823e-06
-2.0617e-20
-4.04428e-21
1.5984e-06
-2.22669e-20
-4.19995e-21
1.71244e-06
-2.39326e-20
-4.67084e-21
1.83036e-06
-2.57789e-20
-4.88783e-21
1.9522e-06
-2.74412e-20
-5.36504e-21
2.07793e-06
-2.94055e-20
-5.6751e-21
2.20753e-06
-3.09083e-20
-6.25816e-21
2.34094e-06
-3.32771e-20
-6.91142e-21
2.4781e-06
-3.53434e-20
-7.63587e-21
2.61891e-06
-3.74293e-20
-8.33077e-21
2.76325e-06
-3.91911e-20
-9.04391e-21
2.911e-06
-4.0893e-20
-1.0004e-20
3.062e-06
-4.27785e-20
-1.08249e-20
3.21611e-06
-4.487e-20
-1.12932e-20
3.37316e-06
-4.68665e-20
-1.13688e-20
3.53301e-06
-4.88867e-20
-1.22487e-20
3.69551e-06
-5.06116e-20
-1.24752e-20
3.8605e-06
-5.24114e-20
-1.38996e-20
4.02786e-06
-5.37906e-20
-1.47713e-20
4.19747e-06
-5.54878e-20
-1.57673e-20
4.36924e-06
-5.76879e-20
-1.69244e-20
4.54306e-06
-5.92578e-20
-1.75352e-20
4.71888e-06
-6.24004e-20
-1.83923e-20
4.89665e-06
-6.39566e-20
-1.89639e-20
5.07631e-06
-6.62444e-20
-2.02344e-20
5.25786e-06
-6.82581e-20
-2.08e-20
5.44128e-06
-7.05628e-20
-2.13106e-20
5.62657e-06
-7.23473e-20
-2.17778e-20
5.81375e-06
-7.41999e-20
-2.21771e-20
6.00284e-06
-7.66193e-20
-2.32053e-20
6.19387e-06
-8.03726e-20
-2.31181e-20
6.38688e-06
-8.22831e-20
-2.45774e-20
6.58192e-06
-8.64644e-20
-2.5141e-20
6.77904e-06
-8.83462e-20
-2.6155e-20
6.97828e-06
-9.095e-20
-2.66531e-20
7.17972e-06
-9.3644e-20
-2.8056e-20
7.38341e-06
-9.55722e-20
-2.84745e-20
7.58942e-06
-9.81217e-20
-2.97521e-20
7.79782e-06
-1.01057e-19
-3.12714e-20
8.00867e-06
-1.03922e-19
-3.12238e-20
8.22204e-06
-1.07418e-19
-3.20408e-20
8.43801e-06
-1.10507e-19
-3.34991e-20
8.65666e-06
-1.13819e-19
-3.36608e-20
8.87805e-06
-1.16211e-19
-3.41487e-20
9.10226e-06
-1.17282e-19
-3.75359e-20
9.32938e-06
-1.22367e-19
-3.93869e-20
9.55946e-06
-1.25138e-19
-4.10721e-20
9.7926e-06
-1.29936e-19
-4.08297e-20
1.00289e-05
-1.32631e-19
-4.10068e-20
1.02684e-05
-1.33609e-19
-4.26107e-20
1.05111e-05
-1.36461e-19
-4.36455e-20
1.07573e-05
-1.39587e-19
-4.54738e-20
1.10068e-05
-1.4148e-19
-4.68832e-20
1.126e-05
-1.43814e-19
-4.77159e-20
1.15167e-05
-1.46084e-19
-4.76233e-20
1.17771e-05
-1.49006e-19
-4.95852e-20
1.20413e-05
-1.52888e-19
-4.86659e-20
1.23094e-05
-1.54933e-19
-4.87182e-20
1.25814e-05
-1.56947e-19
-4.58321e-20
1.28574e-05
-1.57032e-19
-4.65295e-20
1.31375e-05
-1.59119e-19
-4.77096e-20
1.34218e-05
-1.62373e-19
-5.01261e-20
1.37104e-05
-1.64932e-19
-5.45285e-20
1.40034e-05
-1.66816e-19
-5.68418e-20
1.43009e-05
-1.72791e-19
-5.88223e-20
1.46029e-05
-1.73263e-19
-6.20249e-20
1.49095e-05
-1.74337e-19
-6.48795e-20
1.52209e-05
-1.77706e-19
-6.70623e-20
1.5537e-05
-1.81181e-19
-6.40673e-20
1.58581e-05
-1.83086e-19
-6.55256e-20
1.61842e-05
-1.88532e-19
-6.2524e-20
1.65155e-05
-1.88912e-19
-6.45733e-20
1.68519e-05
-1.8819e-19
-6.66205e-20
1.71936e-05
-1.91429e-19
-6.23914e-20
1.75407e-05
-1.93437e-19
-6.48845e-20
1.78933e-05
-1.97133e-19
-6.67678e-20
1.82514e-05
-1.97962e-19
-7.36207e-20
1.86153e-05
-1.99875e-19
-7.60587e-20
1.8985e-05
-2.05082e-19
-7.1613e-20
1.93606e-05
-2.06826e-19
-7.12966e-20
1.97422e-05
-2.08602e-19
-7.06764e-20
2.01299e-05
-2.08847e-19
-6.88724e-20
2.05239e-05
-2.1308e-19
-7.52707e-20
2.09242e-05
-2.17543e-19
-7.52123e-20
2.13309e-05
-2.19054e-19
-7.53109e-20
2.17442e-05
-2.23091e-19
-7.07756e-20
2.21642e-05
-2.18768e-19
-7.27167e-20
2.2591e-05
-2.15819e-19
-7.61351e-20
2.30247e-05
-2.18305e-19
-7.4658e-20
2.34655e-05
-2.22232e-19
-7.72674e-20
2.39134e-05
-2.24524e-19
-7.86059e-20
2.43686e-05
-2.30199e-19
-8.31751e-20
2.48312e-05
-2.33494e-19
-8.36272e-20
2.53013e-05
-2.37945e-19
-8.59502e-20
2.57791e-05
-2.39021e-19
-8.52689e-20
2.62647e-05
-2.42316e-19
-8.46e-20
2.67582e-05
-2.40225e-19
-8.25416e-20
2.72598e-05
-2.4135e-19
-7.69674e-20
2.77695e-05
-2.40992e-19
-7.8329e-20
2.82877e-05
-2.44654e-19
-7.80358e-20
2.88143e-05
-2.46668e-19
-7.93369e-20
2.93495e-05
-2.48753e-19
-8.30569e-20
2.98935e-05
-2.52006e-19
-8.52108e-20
3.04464e-05
-2.52537e-19
-8.33088e-20
3.10084e-05
-2.57796e-19
-8.34162e-20
3.15796e-05
-2.6529e-19
-8.08437e-20
3.21602e-05
-2.60189e-19
-7.28909e-20
3.27503e-05
-2.68138e-19
-6.74245e-20
3.33501e-05
-2.69672e-19
-7.24481e-20
3.39598e-05
-2.74829e-19
-7.37037e-20
3.45795e-05
-2.79709e-19
-7.7038e-20
3.52093e-05
-2.8087e-19
-8.06123e-20
3.58496e-05
-2.78579e-19
-8.38493e-20
3.65003e-05
-2.77419e-19
-8.88691e-20
3.71618e-05
-2.86269e-19
-9.43045e-20
3.78341e-05
-2.85273e-19
-9.9012e-20
3.85175e-05
-2.85527e-19
-9.75166e-20
3.92122e-05
-2.82142e-19
-9.69121e-20
3.99182e-05
-2.73202e-19
-9.9298e-20
4.06359e-05
-2.60334e-19
-1.12604e-19
4.13654e-05
-2.60081e-19
-1.17613e-19
4.21069e-05
-2.59639e-19
-1.20606e-19
4.28606e-05
-2.68677e-19
-1.18054e-19
4.36267e-05
-2.70213e-19
-1.18183e-19
4.44055e-05
-2.74096e-19
-1.20665e-19
4.5197e-05
-2.81149e-19
-1.21151e-19
4.60016e-05
-2.93296e-19
-1.18714e-19
4.68194e-05
-2.96624e-19
-1.21655e-19
4.76506e-05
-2.96072e-19
-1.2738e-19
4.84956e-05
-2.98732e-19
-1.24186e-19
4.93544e-05
-3.03754e-19
-1.29061e-19
5.02274e-05
-3.0719e-19
-1.23697e-19
5.11147e-05
-3.15532e-19
-1.28237e-19
5.20166e-05
-3.28022e-19
-1.26588e-19
5.29334e-05
-3.31555e-19
-1.30355e-19
5.38652e-05
-3.34446e-19
-1.28966e-19
5.48124e-05
-3.47177e-19
-1.32793e-19
5.57751e-05
-3.3575e-19
-1.34784e-19
5.67537e-05
-3.37004e-19
-1.38428e-19
5.77484e-05
-3.32301e-19
-1.47897e-19
5.87593e-05
-3.33454e-19
-1.51131e-19
5.9787e-05
-3.38505e-19
-1.50201e-19
6.08314e-05
-3.55659e-19
-1.41746e-19
6.18931e-05
-3.29829e-19
-1.47917e-19
6.29722e-05
-3.27797e-19
-1.56036e-19
6.4069e-05
-3.15471e-19
-1.64871e-19
6.51838e-05
-3.14491e-19
-1.69183e-19
6.63169e-05
-3.18216e-19
-1.624e-19
6.74686e-05
-3.21483e-19
-1.66455e-19
6.86392e-05
-3.18783e-19
-1.68214e-19
6.9829e-05
-3.24632e-19
-1.64916e-19
7.10383e-05
-3.22033e-19
-1.78218e-19
7.22674e-05
-3.3102e-19
-1.82518e-19
7.35167e-05
-3.35582e-19
-1.861e-19
7.47865e-05
-3.41089e-19
-1.79766e-19
7.60771e-05
-3.41388e-19
-1.55984e-19
7.73888e-05
-3.48652e-19
-1.6172e-19
7.8722e-05
-3.51774e-19
-1.66547e-19
8.0077e-05
-3.60913e-19
-1.74571e-19
8.14542e-05
-3.61487e-19
-1.63552e-19
8.2854e-05
-3.67106e-19
-1.54916e-19
8.42767e-05
-3.50637e-19
-1.41932e-19
8.57226e-05
-3.57901e-19
-1.34611e-19
8.71922e-05
-3.48321e-19
-1.41961e-19
8.86858e-05
-3.5214e-19
-1.41492e-19
9.02038e-05
-3.74851e-19
-1.41564e-19
9.17467e-05
-3.842e-19
-1.4236e-19
9.33147e-05
-3.95625e-19
-1.46091e-19
9.49083e-05
-4.00722e-19
-1.37579e-19
9.6528e-05
-4.18274e-19
-1.3626e-19
9.81741e-05
-4.19831e-19
-1.29554e-19
9.98471e-05
-4.18899e-19
-1.30225e-19
0.000101547
-4.25839e-19
-1.31808e-19
0.000103275
-4.25905e-19
-1.37878e-19
0.000105031
-4.23941e-19
-1.31471e-19
0.000106816
-4.22509e-19
-1.42641e-19
0.00010863
-4.26706e-19
-1.37527e-19
0.000110474
-3.97994e-19
-1.46047e-19
0.000112347
-3.94708e-19
-1.39188e-19
0.000114251
-3.96806e-19
-1.38726e-19
0.000116186
-3.70936e-19
-1.32378e-19
0.000118152
-3.41272e-19
-1.20979e-19
0.000120151
-3.15888e-19
-1.18243e-19
0.000122182
-3.03441e-19
-1.1861e-19
0.000124245
-3.06229e-19
-1.13995e-19
0.000126343
-3.03022e-19
-1.36276e-19
0.000128474
-3.25287e-19
-1.5163e-19
0.00013064
-3.15404e-19
-1.51636e-19
0.000132842
-3.09295e-19
-1.44253e-19
0.000135079
-3.05441e-19
-1.44543e-19
0.000137352
-2.81461e-19
-1.62993e-19
0.000139662
-3.04485e-19
-1.67464e-19
0.00014201
-3.13486e-19
-1.92864e-19
0.000144395
-3.74155e-19
-1.76824e-19
0.00014682
-3.73897e-19
-1.74239e-19
0.000149283
-3.6941e-19
-1.74061e-19
0.000151786
-3.54225e-19
-1.94128e-19
0.00015433
-3.4952e-19
-1.91743e-19
0.000156915
-3.5949e-19
-1.83819e-19
0.000159542
-3.6486e-19
-1.67098e-19
0.000162211
-3.75256e-19
-1.63544e-19
0.000164924
-3.59732e-19
-1.61007e-19
0.00016768
-3.53468e-19
-1.31501e-19
0.000170481
-3.51953e-19
-1.14251e-19
0.000173326
-3.34841e-19
-8.7984e-20
0.000176218
-3.03934e-19
-1.00133e-19
0.000179156
-2.80125e-19
-1.06853e-19
0.000182142
-3.02787e-19
-1.08884e-19
0.000185176
-3.10336e-19
-1.18986e-19
0.000188258
-2.76078e-19
-1.29799e-19
0.00019139
-2.83839e-19
-1.05709e-19
0.000194573
-2.76731e-19
-1.25408e-19
0.000197806
-2.91191e-19
-1.50395e-19
0.000201092
-2.57654e-19
-1.35385e-19
0.00020443
-2.47259e-19
-1.54476e-19
0.000207822
-2.6423e-19
-1.52207e-19
0.000211269
-2.58764e-19
-1.80642e-19
0.00021477