/*--------------------------------*- C++ -*----------------------------------*\
| =========                 |                                                 |
| \\      /  F ield         | OpenFOAM: The Open Source CFD Toolbox           |
|  \\    /   O peration     | Version:  2012                                  |
|   \\  /    A nd           | Website:  www.openfoam.com                      |
|    \\/     M anipulation  |                                                 |
\*---------------------------------------------------------------------------*/
FoamFile
{
    version     2.0;
    format      ascii;
    class       volScalarField;
    location    "16000";
    object      k;
}
// * * * * * * * * * * * * * * * * * * * * * * * * * * * * * * * * * * * * * //

dimensions      [0 2 -2 0 0 0 0];


internalField   nonuniform List<scalar> 
2560
(
0.00435275
0.00435028
0.122644
0.12258
0.860338
0.859919
2.78849
2.78737
5.47245
5.47078
8.11891
8.11694
10.5023
10.5001
12.6474
12.6451
14.6095
14.6071
16.4335
16.431
18.1516
18.149
19.7871
19.7845
21.3574
21.3547
22.8755
22.8727
24.3515
24.3486
25.7934
25.7905
27.2079
27.2049
28.6005
28.5974
29.9757
29.9725
31.3375
31.3343
32.6894
32.6861
34.0343
34.0309
35.3748
35.3713
36.7132
36.7097
38.0517
38.0481
39.3922
39.3886
40.7367
40.733
42.0869
42.0831
43.4444
43.4405
44.8109
44.8069
46.1879
46.1838
47.5771
47.5729
48.9798
48.9755
50.3974
50.393
51.8311
51.8266
53.2819
53.2773
54.7509
54.7462
56.2389
56.2342
57.747
57.7421
59.276
59.2711
60.8272
60.8221
62.4016
62.3964
64.0003
63.995
65.6243
65.6188
67.2737
67.2681
68.9483
68.9426
70.6465
70.6407
72.3658
72.3598
74.1022
74.0961
75.8506
75.8444
77.6044
77.598
79.3559
79.3495
81.0969
81.0903
82.8193
82.8125
84.5183
84.5114
86.1961
86.189
87.8662
87.8589
89.5553
89.5476
91.298
91.29
93.1256
93.1172
95.0399
95.0312
96.981
96.9719
98.8377
98.8286
100.457
100.448
101.679
101.67
102.377
102.369
102.491
102.484
102.032
102.025
101.074
101.068
99.7269
99.7219
98.1139
98.1095
96.349
96.3452
94.5262
94.5227
92.7146
92.7113
90.9591
90.956
89.2851
89.282
87.6982
87.6951
86.193
86.19
84.7563
84.7534
83.3703
83.3676
82.0159
82.0135
80.6747
80.6726
79.3302
79.3284
77.9686
77.9672
76.5788
76.5778
75.1522
75.1516
73.6825
73.6822
72.1654
72.1654
70.599
70.5993
68.9839
68.9845
67.3233
67.324
65.6236
65.6245
63.8943
63.8953
62.1474
62.1485
60.3971
60.3983
58.658
58.6591
56.9437
56.9449
55.2661
55.2672
53.6334
53.6345
52.0507
52.0517
50.5194
50.5204
49.0386
49.0395
47.6054
47.6063
46.2168
46.2177
44.8701
44.871
43.5639
43.5648
42.298
42.2988
41.0733
41.0741
39.8913
39.8921
38.7538
38.7545
37.6619
37.6626
36.6154
36.616
35.6122
35.6128
34.6486
34.6492
33.7192
33.7198
32.817
32.8176
31.9349
31.9355
31.0662
31.0667
30.2058
30.2064
29.3513
29.3519
28.5032
28.5038
27.665
27.6655
26.8421
26.8426
26.0412
26.0417
25.2683
25.2688
24.5278
24.5282
23.8213
23.8217
23.1484
23.1487
22.5053
22.5057
21.8877
21.8881
21.2909
21.2912
20.7109
20.7112
20.1452
20.1454
19.5925
19.5928
19.0531
19.0533
18.5278
18.5281
18.0182
18.0184
17.5255
17.5257
17.0509
17.0511
16.595
16.5952
16.1582
16.1584
15.7403
15.7404
15.3406
15.3407
14.9582
14.9584
14.592
14.5921
14.2404
14.2406
13.9022
13.9023
13.5759
13.576
13.2606
13.2607
12.9555
12.9556
12.6605
12.6606
12.3758
12.3758
12.1018
12.1019
11.8396
11.8396
11.59
11.59
11.3543
11.3543
11.1333
11.1333
10.9282
10.9281
10.7395
10.7394
10.5679
10.5678
10.4136
10.4135
10.2768
10.2766
10.1572
10.157
10.0545
10.0542
9.9677
9.96742
9.89573
9.8954
9.83687
9.83649
9.78889
9.78846
9.74898
9.7485
9.71377
9.71325
9.67943
9.67885
9.64182
9.64121
9.59687
9.59622
9.54088
9.54021
9.47101
9.47035
9.38571
9.38508
9.28507
9.28451
9.17102
9.17058
9.0474
9.04709
8.91942
8.91923
8.79308
8.79298
8.67447
8.6744
8.56883
8.56878
8.47977
8.47971
8.40862
8.40856
8.35438
8.35433
8.31363
8.31363
8.2814
8.28147
8.25189
8.25208
8.21939
8.21971
8.17881
8.17923
8.12617
8.12665
8.05897
8.05947
7.97628
7.97679
7.87853
7.87901
7.76716
7.76761
7.64441
7.64482
7.51295
7.51333
7.3757
7.37604
7.23555
7.23585
7.0953
7.09556
6.95748
6.95771
6.82439
6.82459
6.69801
6.69818
6.58001
6.58015
6.4718
6.47191
6.37451
6.3746
6.28902
6.2891
6.21598
6.21604
6.15577
6.15581
6.10848
6.10851
6.07388
6.0739
6.05132
6.05133
6.03968
6.03968
6.03729
6.03727
6.04185
6.04181
6.05045
6.05041
6.05964
6.05959
6.06552
6.06546
6.064
6.06393
6.0511
6.05102
6.02331
6.02323
5.97803
5.97795
5.91392
5.91385
5.8312
5.83114
5.73181
5.73176
5.61931
5.61928
5.49852
5.49851
5.37488
5.37489
5.25362
5.25365
5.13894
5.13896
5.03358
5.0336
4.93763
4.93765
4.84946
4.84948
4.76627
4.7663
4.68491
4.68495
4.60273
4.60278
4.51821
4.51826
4.43119
4.43124
4.34275
4.34279
4.2548
4.25484
4.16956
4.16959
4.08905
4.08908
4.01476
4.01479
3.94749
3.94751
3.88746
3.88748
3.83447
3.83449
3.78814
3.78815
3.7481
3.74811
3.71417
3.71417
3.68628
3.68628
3.66448
3.66448
3.64881
3.64881
3.63919
3.63919
3.6354
3.6354
3.63702
3.63702
3.64349
3.64349
3.65424
3.65424
3.66866
3.66866
3.68627
3.68627
3.7067
3.7067
3.72975
3.72975
3.75535
3.75535
3.78362
3.78362
3.81476
3.81476
3.84905
3.84905
3.88679
3.88679
3.92824
3.92824
3.97358
3.97358
4.02291
4.02291
4.07624
4.07624
4.1335
4.1335
4.19457
4.19457
4.25937
4.25937
4.3278
4.3278
4.39982
4.39982
4.4754
4.4754
4.55454
4.55453
4.63723
4.63722
4.72347
4.72347
4.81328
4.81328
4.90664
4.90664
5.00355
5.00354
5.10396
5.10396
5.20787
5.20787
5.31525
5.31525
5.42611
5.42611
5.54052
5.54051
5.65857
5.65857
5.78046
5.78046
5.90641
5.90641
6.03667
6.03667
6.17148
6.17148
6.31106
6.31106
6.45555
6.45555
6.60504
6.60504
6.75957
6.75957
6.91918
6.91918
7.08391
7.08391
7.25387
7.25387
7.42924
7.42924
7.61028
7.61028
7.7973
7.7973
7.99068
7.99068
8.19086
8.19086
8.39827
8.39826
8.61336
8.61336
8.83659
8.83659
9.06841
9.06841
9.30928
9.30928
9.55965
9.55965
9.81996
9.81995
10.0906
10.0906
10.3719
10.3719
10.664
10.664
10.9662
10.9662
11.276
11.276
11.5832
11.5832
11.8511
11.8511
11.835
11.835
0.00435117
0.00435256
0.122603
0.122638
0.860078
0.860303
2.7878
2.7884
5.47142
5.47233
8.11768
8.11878
10.5009
10.5021
12.6459
12.6472
14.608
14.6094
16.4319
16.4334
18.1499
18.1514
19.7854
19.787
21.3556
21.3573
22.8736
22.8754
24.3496
24.3513
25.7915
25.7933
27.2059
27.2078
28.5984
28.6003
29.9736
29.9756
31.3354
31.3374
32.6872
32.6893
34.032
34.0342
35.3725
35.3747
36.7108
36.7131
38.0492
38.0516
39.3898
39.3921
40.7342
40.7366
42.0843
42.0868
43.4417
43.4443
44.8082
44.8108
46.1851
46.1879
47.5742
47.577
48.9769
48.9797
50.3944
50.3973
51.828
51.831
53.2788
53.2818
54.7477
54.7508
56.2357
56.2389
57.7436
57.7469
59.2726
59.276
60.8237
60.8271
62.398
62.4016
63.9966
64.0003
65.6205
65.6242
67.2698
67.2737
68.9443
68.9482
70.6425
70.6465
72.3617
72.3658
74.098
74.1022
75.8463
75.8506
77.6
77.6044
79.3514
79.3559
81.0923
81.0969
82.8146
82.8193
84.5135
84.5183
86.1911
86.1961
87.861
87.8662
89.5498
89.5552
91.2923
91.298
93.1195
93.1255
95.0336
95.0399
96.9744
96.9809
98.8311
98.8376
100.45
100.457
101.672
101.679
102.371
102.377
102.485
102.491
102.027
102.032
101.07
101.074
99.7232
99.7271
98.1107
98.1142
96.3463
96.3493
94.5237
94.5265
92.7123
92.7149
90.9569
90.9594
89.2829
89.2854
87.696
87.6984
86.1909
86.1932
84.7543
84.7565
83.3685
83.3706
82.0143
82.0162
80.6734
80.675
79.3291
79.3305
77.9679
77.9689
76.5784
76.5791
75.1521
75.1526
73.6827
73.6828
72.1658
72.1658
70.5997
70.5994
68.9847
68.9843
67.3243
67.3237
65.6247
65.624
63.8954
63.8947
62.1486
62.1478
60.3983
60.3975
58.6591
58.6583
56.9449
56.9441
55.2672
55.2664
53.6345
53.6338
52.0517
52.051
50.5204
50.5197
49.0395
49.0389
47.6063
47.6057
46.2177
46.2171
44.871
44.8704
43.5648
43.5642
42.2988
42.2983
41.0741
41.0735
39.8921
39.8916
38.7545
38.754
37.6626
37.6621
36.616
36.6156
35.6128
35.6124
34.6493
34.6489
33.7198
33.7194
32.8176
32.8172
31.9355
31.9351
31.0667
31.0664
30.2064
30.206
29.3519
29.3515
28.5038
28.5034
27.6655
27.6652
26.8426
26.8423
26.0417
26.0414
25.2688
25.2685
24.5282
24.5279
23.8217
23.8215
23.1487
23.1485
22.5057
22.5055
21.8881
21.8879
21.2912
21.291
20.7112
20.711
20.1454
20.1453
19.5928
19.5926
19.0533
19.0532
18.5281
18.5279
18.0184
18.0183
17.5257
17.5256
17.0511
17.0509
16.5952
16.5951
16.1584
16.1583
15.7404
15.7403
15.3407
15.3406
14.9583
14.9583
14.5921
14.592
14.2405
14.2405
13.9023
13.9022
13.576
13.5759
13.2607
13.2606
12.9556
12.9556
12.6606
12.6605
12.3758
12.3758
12.1018
12.1018
11.8396
11.8396
11.59
11.59
11.3542
11.3542
11.1333
11.1333
10.9281
10.9282
10.7394
10.7395
10.5678
10.5679
10.4135
10.4136
10.2766
10.2768
10.1571
10.1572
10.0543
10.0544
9.96747
9.96767
9.89546
9.89569
9.83656
9.83682
9.78854
9.78883
9.74859
9.74892
9.71335
9.71371
9.67896
9.67936
9.64132
9.64175
9.59633
9.59679
9.54031
9.54079
9.47044
9.47093
9.38516
9.38563
9.28457
9.285
9.17061
9.17097
9.0471
9.04736
8.91922
8.91939
8.79296
8.79306
8.67438
8.67444
8.56875
8.5688
8.47969
8.47973
8.40853
8.40858
8.3543
8.35434
8.31359
8.31359
8.28143
8.28136
8.25202
8.25186
8.21963
8.21937
8.17913
8.17881
8.12653
8.12617
8.05934
8.05897
7.97665
7.97629
7.87887
7.87853
7.76747
7.76716
7.64469
7.6444
7.5132
7.51294
7.37591
7.37568
7.23573
7.23553
7.09544
7.09527
6.9576
6.95745
6.82448
6.82436
6.69807
6.69796
6.58004
6.57995
6.47181
6.47173
6.37449
6.37443
6.28899
6.28894
6.21592
6.21589
6.15569
6.15566
6.10837
6.10836
6.07375
6.07374
6.05117
6.05117
6.03951
6.03952
6.03709
6.03712
6.04163
6.04166
6.05022
6.05026
6.0594
6.05945
6.06527
6.06533
6.06375
6.06382
6.05086
6.05093
6.02308
6.02316
5.97783
5.97791
5.91374
5.91382
5.83106
5.83113
5.73171
5.73177
5.61925
5.6193
5.4985
5.49852
5.37488
5.37488
5.25362
5.25362
5.13893
5.13891
5.03354
5.03353
4.93758
4.93757
4.84939
4.84938
4.7662
4.76618
4.68485
4.68482
4.6027
4.60266
4.51821
4.51816
4.43121
4.43116
4.34279
4.34274
4.25485
4.2548
4.16961
4.16957
4.0891
4.08907
4.0148
4.01477
3.94752
3.9475
3.88747
3.88745
3.83448
3.83446
3.78813
3.78812
3.74809
3.74808
3.71415
3.71414
3.68626
3.68625
3.66445
3.66445
3.64877
3.64877
3.63915
3.63915
3.63535
3.63535
3.63696
3.63696
3.64343
3.64343
3.65418
3.65418
3.66861
3.66861
3.68623
3.68624
3.70668
3.70668
3.72974
3.72974
3.75536
3.75536
3.78364
3.78364
3.81479
3.81479
3.84908
3.84908
3.88682
3.88682
3.92826
3.92827
3.9736
3.9736
4.02292
4.02293
4.07625
4.07625
4.1335
4.13351
4.19457
4.19458
4.25937
4.25937
4.3278
4.3278
4.39981
4.39982
4.47539
4.4754
4.55453
4.55453
4.63721
4.63722
4.72346
4.72347
4.81327
4.81327
4.90663
4.90664
5.00353
5.00354
5.10395
5.10396
5.20786
5.20787
5.31524
5.31525
5.4261
5.42611
5.54051
5.54052
5.65856
5.65857
5.78045
5.78046
5.9064
5.90641
6.03666
6.03667
6.17146
6.17147
6.31104
6.31105
6.45553
6.45554
6.60502
6.60503
6.75955
6.75956
6.91915
6.91916
7.08388
7.0839
7.25385
7.25386
7.42922
7.42924
7.61026
7.61027
7.79728
7.79729
7.99067
7.99068
8.19084
8.19085
8.39824
8.39826
8.61333
8.61335
8.83656
8.83657
9.06837
9.06839
9.30923
9.30924
9.55958
9.5596
9.81987
9.81988
10.0905
10.0905
10.3718
10.3718
10.6638
10.6638
10.966
10.966
11.2756
11.2756
11.5827
11.5828
11.8506
11.8506
11.8346
11.8346
11.8351
11.8351
11.8513
11.8513
11.5835
11.5835
11.2763
11.2763
10.9666
10.9666
10.6643
10.6643
10.3723
10.3723
10.0909
10.0909
9.82029
9.8203
9.55997
9.55997
9.30959
9.30959
9.06871
9.06871
8.83688
8.83688
8.61364
8.61364
8.39855
8.39856
8.19116
8.19116
7.991
7.991
7.79762
7.79762
7.61059
7.61059
7.42955
7.42955
7.25417
7.25417
7.08421
7.08422
6.9195
6.9195
6.75991
6.75991
6.60538
6.60538
6.45589
6.45589
6.31139
6.31139
6.17181
6.17181
6.037
6.037
5.90675
5.90675
5.78081
5.78081
5.65893
5.65893
5.54088
5.54088
5.42647
5.42647
5.31558
5.31558
5.20817
5.20817
5.10424
5.10424
5.0038
5.0038
4.90689
4.90689
4.81351
4.81352
4.7237
4.7237
4.63744
4.63744
4.55474
4.55474
4.47559
4.47559
4.39999
4.39999
4.32796
4.32796
4.2595
4.25951
4.19469
4.19469
4.13359
4.1336
4.07632
4.07632
4.02297
4.02297
3.97362
3.97362
3.92826
3.92826
3.8868
3.8868
3.84904
3.84904
3.81472
3.81472
3.78355
3.78355
3.75526
3.75526
3.72963
3.72963
3.70654
3.70654
3.68604
3.68605
3.66838
3.66838
3.65392
3.65392
3.64314
3.64314
3.63664
3.63664
3.635
3.635
3.63877
3.63876
3.64835
3.64835
3.66399
3.66398
3.68574
3.68574
3.71359
3.71358
3.74748
3.74747
3.78747
3.78746
3.83378
3.83377
3.88674
3.88673
3.94676
3.94674
4.014
4.01398
4.08828
4.08824
4.16878
4.16874
4.25404
4.254
4.34205
4.342
4.43056
4.43051
4.51766
4.5176
4.60224
4.60219
4.68446
4.68442
4.76588
4.76585
4.84911
4.84909
4.93731
4.93729
5.03329
5.03327
5.13868
5.13866
5.2534
5.25338
5.37469
5.37468
5.49838
5.49838
5.61925
5.61927
5.73184
5.73189
5.83128
5.83134
5.91399
5.91406
5.97808
5.97816
6.02333
6.02341
6.05108
6.05116
6.06398
6.06405
6.06552
6.06559
6.05966
6.05972
6.05049
6.05053
6.04188
6.04192
6.03731
6.03734
6.03969
6.0397
6.05132
6.05131
6.07386
6.07384
6.10844
6.10841
6.15572
6.15567
6.21592
6.21585
6.28894
6.28886
6.37441
6.3743
6.47169
6.47156
6.57989
6.57974
6.69788
6.6977
6.82426
6.82404
6.95734
6.95709
7.09516
7.09487
7.23543
7.23509
7.3756
7.37522
7.51289
7.51247
7.64436
7.64389
7.76711
7.7666
7.87848
7.87793
7.97624
7.97568
8.05891
8.05834
8.12603
8.12549
8.17853
8.17805
8.21888
8.21853
8.25116
8.25094
8.2805
8.28041
8.31264
8.31263
8.35332
8.35335
8.40751
8.40757
8.47863
8.47868
8.56766
8.5677
8.67325
8.6733
8.79179
8.79188
8.918
8.91818
9.04582
9.04614
9.16926
9.16972
9.28317
9.28376
9.38376
9.38443
9.46902
9.46973
9.53882
9.53953
9.59473
9.59543
9.63963
9.6403
9.67719
9.67782
9.71151
9.71209
9.74669
9.74721
9.78657
9.78703
9.83451
9.83492
9.89333
9.89369
9.96524
9.96555
10.0519
10.0522
10.1546
10.1549
10.2741
10.2743
10.4109
10.411
10.565
10.5651
10.7366
10.7366
10.9251
10.9252
11.1302
11.1302
11.351
11.3509
11.5866
11.5865
11.836
11.8359
12.0981
12.098
12.3719
12.3718
12.6564
12.6563
12.9512
12.9511
13.2561
13.256
13.5712
13.571
13.8972
13.8971
14.2352
14.2351
14.5865
14.5864
14.9526
14.9524
15.3347
15.3345
15.7342
15.734
16.1519
16.1517
16.5885
16.5883
17.0441
17.0439
17.5185
17.5183
18.011
18.0107
18.5203
18.52
19.0452
19.0449
19.5842
19.5839
20.1365
20.1361
20.7018
20.7015
21.2814
21.281
21.8778
21.8774
22.495
22.4946
23.1377
23.1373
23.8103
23.8098
24.5163
24.5158
25.2564
25.2559
26.0289
26.0283
26.8294
26.8288
27.6518
27.6512
28.4896
28.4889
29.3372
29.3365
30.1912
30.1906
31.0511
31.0504
31.9193
31.9186
32.8009
32.8003
33.7026
33.7019
34.6315
34.6308
35.5945
35.5937
36.597
36.5962
37.6429
37.642
38.7341
38.7332
39.871
39.8701
41.0523
41.0513
42.2763
42.2753
43.5415
43.5405
44.8469
44.8459
46.1928
46.1917
47.5807
47.5795
49.0131
49.0119
50.4931
50.4919
52.0236
52.0224
53.6056
53.6043
55.2374
55.236
56.9142
56.9128
58.6276
58.6261
60.3658
60.3644
62.1152
62.1138
63.8613
63.86
65.59
65.5888
67.2892
67.2881
68.9491
68.9483
70.5633
70.5627
72.1284
72.1281
73.6441
73.6441
75.1123
75.1127
76.5373
76.5382
77.9255
77.9267
79.2853
79.287
80.6281
80.6302
81.9677
81.97
83.3204
83.323
84.7047
84.7075
86.14
86.1429
87.6437
87.6467
89.2293
89.2324
90.9019
90.905
92.6559
92.6591
94.466
94.4695
96.2874
96.2912
98.0506
98.0549
99.662
99.667
101.008
101.014
101.966
101.973
102.425
102.432
102.311
102.32
101.613
101.622
100.391
100.401
98.772
98.7816
96.916
96.9254
94.9765
94.9857
93.0634
93.0722
91.2371
91.2455
89.4954
89.5035
87.8076
87.8154
86.1389
86.1464
84.4625
84.4697
82.765
82.772
81.0442
81.0512
79.305
79.3118
77.5549
77.5616
75.8023
75.8089
74.0552
74.0616
72.3201
72.3264
70.6021
70.6083
68.9051
68.9111
67.2317
67.2376
65.5834
65.5892
63.9605
63.9662
62.3629
62.3684
60.7895
60.7949
59.2393
59.2446
57.7112
57.7164
56.2041
56.2092
54.7169
54.7219
53.2488
53.2537
51.7988
51.8036
50.366
50.3706
48.9492
48.9538
47.5473
47.5518
46.1589
46.1633
44.7826
44.7869
43.4169
43.4211
42.0602
42.0644
40.7109
40.7149
39.3672
39.3711
38.0274
38.0312
36.6896
36.6934
35.352
35.3557
34.0123
34.0159
32.6681
32.6717
31.317
31.3205
29.9559
29.9593
28.5814
28.5848
27.1896
27.1929
25.7759
25.7791
24.3347
24.3379
22.8596
22.8626
21.3423
21.3453
19.7729
19.7758
18.1382
18.1411
16.4211
16.4238
14.5981
14.6007
12.637
12.6395
10.493
10.4954
8.11101
8.11319
5.46625
5.46811
2.78464
2.78589
0.858982
0.859454
0.122442
0.122515
0.00434558
0.00434843
11.8347
11.8347
11.8508
11.8508
11.5831
11.5831
11.2759
11.2759
10.9663
10.9663
10.6641
10.6641
10.3721
10.3721
10.0908
10.0909
9.82021
9.82023
9.55991
9.55992
9.30954
9.30956
9.06867
9.06869
8.83685
8.83686
8.61362
8.61363
8.39853
8.39855
8.19114
8.19116
7.99098
7.991
7.7976
7.79761
7.61058
7.61059
7.42953
7.42954
7.25415
7.25416
7.08419
7.0842
6.91947
6.91948
6.75988
6.75989
6.60536
6.60537
6.45587
6.45588
6.31137
6.31138
6.1718
6.17181
6.03699
6.037
5.90674
5.90675
5.7808
5.78081
5.65892
5.65893
5.54087
5.54088
5.42646
5.42646
5.31557
5.31558
5.20816
5.20817
5.10422
5.10423
5.00379
5.00379
4.90687
4.90688
4.8135
4.81351
4.72369
4.72369
4.63743
4.63743
4.55473
4.55473
4.47558
4.47559
4.39999
4.39999
4.32795
4.32796
4.2595
4.25951
4.19469
4.19469
4.1336
4.1336
4.07633
4.07634
4.02299
4.02299
3.97365
3.97365
3.92829
3.92829
3.88683
3.88683
3.84907
3.84907
3.81475
3.81475
3.78357
3.78357
3.75527
3.75527
3.72963
3.72963
3.70652
3.70652
3.68602
3.68602
3.66834
3.66835
3.65387
3.65387
3.6431
3.6431
3.6366
3.6366
3.63497
3.63497
3.63874
3.63874
3.64833
3.64833
3.66398
3.66398
3.68575
3.68575
3.7136
3.7136
3.74749
3.7475
3.7875
3.7875
3.83381
3.83381
3.88679
3.88679
3.94681
3.94682
4.01407
4.01408
4.08835
4.08836
4.16886
4.16887
4.25412
4.25414
4.34212
4.34213
4.43062
4.43063
4.51769
4.51771
4.60225
4.60227
4.68447
4.68448
4.76589
4.7659
4.84913
4.84914
4.93736
4.93736
5.03336
5.03337
5.13878
5.13879
5.25352
5.25354
5.37484
5.37484
5.49853
5.49853
5.61941
5.6194
5.73199
5.73197
5.8314
5.83137
5.91407
5.91404
5.97813
5.97809
6.02333
6.02329
6.05105
6.05101
6.06391
6.06387
6.06542
6.06539
6.05954
6.05952
6.05035
6.05033
6.04174
6.04173
6.03717
6.03716
6.03955
6.03955
6.05117
6.05118
6.07372
6.07374
6.1083
6.10833
6.15558
6.15563
6.21578
6.21584
6.2888
6.28888
6.37427
6.37436
6.47153
6.47165
6.57972
6.57986
6.69769
6.69785
6.82404
6.82423
6.9571
6.95732
7.09487
7.09513
7.2351
7.23539
7.37523
7.37555
7.51247
7.51283
7.64388
7.64429
7.76658
7.76703
7.87791
7.87839
7.97565
7.97614
8.05829
8.05879
8.12544
8.12591
8.17799
8.1784
8.21845
8.21876
8.25085
8.25104
8.28032
8.28039
8.31254
8.31254
8.35327
8.35323
8.40749
8.40744
8.47862
8.47857
8.56765
8.56762
8.67326
8.67322
8.79185
8.79176
8.91815
8.91798
9.0461
9.04581
9.16968
9.16925
9.28371
9.28316
9.38437
9.38375
9.46966
9.469
9.53946
9.5388
9.59535
9.5947
9.64021
9.63959
9.67773
9.67716
9.712
9.71147
9.74713
9.74665
9.78695
9.78652
9.83484
9.83446
9.89361
9.89328
9.96548
9.9652
10.0521
10.0519
10.1548
10.1546
10.2742
10.2741
10.4109
10.4108
10.5651
10.565
10.7366
10.7365
10.9251
10.9251
11.1301
11.1301
11.3509
11.3509
11.5865
11.5865
11.8359
11.8359
12.098
12.0981
12.3717
12.3718
12.6563
12.6564
12.9511
12.9512
13.2559
13.256
13.571
13.5711
13.897
13.8972
14.235
14.2352
14.5863
14.5865
14.9523
14.9525
15.3345
15.3347
15.7339
15.7341
16.1517
16.1519
16.5882
16.5885
17.0439
17.0441
17.5182
17.5185
18.0107
18.0109
18.52
18.5203
19.0449
19.0452
19.5839
19.5842
20.1361
20.1365
20.7015
20.7018
21.281
21.2814
21.8774
21.8778
22.4946
22.495
23.1373
23.1377
23.8098
23.8103
24.5158
24.5163
25.2559
25.2564
26.0283
26.0289
26.8288
26.8294
27.6512
27.6518
28.4889
28.4896
29.3365
29.3372
30.1906
30.1912
31.0504
31.0511
31.9186
31.9193
32.8003
32.8009
33.7019
33.7026
34.6308
34.6315
35.5937
35.5945
36.5962
36.597
37.642
37.6429
38.7333
38.7341
39.8701
39.871
41.0513
41.0523
42.2753
42.2763
43.5405
43.5415
44.8459
44.847
46.1917
46.1928
47.5796
47.5807
49.0119
49.0131
50.4919
50.4931
52.0224
52.0237
53.6043
53.6056
55.2361
55.2374
56.9128
56.9142
58.6261
58.6276
60.3644
60.3658
62.1139
62.1153
63.86
63.8613
65.5888
65.59
67.2881
67.2892
68.9483
68.9491
70.5628
70.5633
72.1282
72.1285
73.6442
73.6441
75.1128
75.1123
76.5382
76.5374
77.9268
77.9255
79.287
79.2854
80.6302
80.6282
81.9701
81.9677
83.323
83.3204
84.7076
84.7048
86.1429
86.14
87.6468
87.6438
89.2324
89.2294
90.9051
90.902
92.6592
92.656
94.4695
94.4661
96.2912
96.2874
98.055
98.0507
99.6671
99.662
101.014
101.008
101.973
101.966
102.433
102.425
102.32
102.311
101.622
101.613
100.401
100.391
98.7816
98.7721
96.9255
96.916
94.9857
94.9766
93.0723
93.0635
91.2455
91.2371
89.5035
89.4955
87.8154
87.8077
86.1464
86.1389
84.4698
84.4625
82.7721
82.765
81.0512
81.0443
79.3118
79.305
77.5616
77.5549
75.8089
75.8024
74.0617
74.0553
72.3265
72.3202
70.6083
70.6022
68.9112
68.9051
67.2376
67.2317
65.5892
65.5834
63.9662
63.9606
62.3684
62.3629
60.7949
60.7895
59.2447
59.2394
57.7165
57.7113
56.2092
56.2041
54.7219
54.717
53.2537
53.2489
51.8036
51.7989
50.3707
50.366
48.9538
48.9492
47.5518
47.5473
46.1633
46.1589
44.787
44.7827
43.4212
43.417
42.0644
42.0603
40.7149
40.7109
39.3711
39.3672
38.0313
38.0274
36.6935
36.6897
35.3557
35.352
34.0159
34.0123
32.6717
32.6682
31.3205
31.317
29.9593
29.9559
28.5848
28.5814
27.1929
27.1896
25.7791
25.7759
24.3379
24.3347
22.8627
22.8596
21.3453
21.3424
19.7758
19.7729
18.1411
18.1382
16.4238
16.4211
14.6007
14.5981
12.6395
12.637
10.4954
10.4931
8.11319
8.11101
5.46811
5.46625
2.78589
2.78464
0.859454
0.858983
0.122515
0.122443
0.00434843
0.00434559
)
;

boundaryField
{
    walls
    {
        type            kqRWallFunction;
        value           nonuniform List<scalar> 8(0.00435275 0.00435117 0.00435028 0.00435256 0.00434558 0.00434843 0.00434843 0.00434559);
    }
    inlet
    {
        type            cyclic;
    }
    outlet
    {
        type            cyclic;
    }
    sides
    {
        type            empty;
    }
}


// ************************************************************************* //
