/*--------------------------------*- C++ -*----------------------------------*\
| =========                 |                                                 |
| \\      /  F ield         | OpenFOAM: The Open Source CFD Toolbox           |
|  \\    /   O peration     | Version:  2012                                  |
|   \\  /    A nd           | Website:  www.openfoam.com                      |
|    \\/     M anipulation  |                                                 |
\*---------------------------------------------------------------------------*/
FoamFile
{
    version     2.0;
    format      ascii;
    class       volScalarField;
    location    "16000";
    object      nut;
}
// * * * * * * * * * * * * * * * * * * * * * * * * * * * * * * * * * * * * * //

dimensions      [0 2 -1 0 0 0 0];


internalField   nonuniform List<scalar> 
2560
(
2.85584e-09
2.85422e-09
4.63248e-07
4.63003e-07
9.72089e-06
9.71589e-06
6.83528e-05
6.83226e-05
0.000232412
0.000232334
0.000504429
0.0005043
0.0008572
0.000857023
0.00126946
0.00126924
0.00172836
0.0017281
0.00222598
0.00222568
0.00275709
0.00275675
0.00331802
0.00331763
0.00390602
0.00390559
0.00451896
0.0045185
0.00515516
0.00515465
0.00581318
0.00581263
0.00649183
0.00649124
0.00719007
0.00718945
0.00790699
0.00790632
0.00864175
0.00864105
0.00939361
0.00939287
0.0101618
0.0101611
0.0109458
0.010945
0.0117448
0.011744
0.0125584
0.0125575
0.0133859
0.0133849
0.0142267
0.0142257
0.0150804
0.0150794
0.0159464
0.0159454
0.0168243
0.0168232
0.0177135
0.0177123
0.0186135
0.0186123
0.0195239
0.0195227
0.0204441
0.0204428
0.0213737
0.0213723
0.0223119
0.0223106
0.0232584
0.023257
0.0242126
0.0242111
0.0251737
0.0251723
0.0261414
0.0261399
0.0271151
0.0271136
0.0280943
0.0280927
0.0290783
0.0290767
0.0300667
0.030065
0.0310587
0.031057
0.0320534
0.0320517
0.0330499
0.0330481
0.0340467
0.0340448
0.0350423
0.0350405
0.0360351
0.0360332
0.0370229
0.037021
0.0380038
0.0380018
0.0389754
0.0389734
0.0399358
0.0399337
0.0408837
0.0408816
0.0418196
0.0418175
0.0427463
0.0427442
0.0436697
0.0436675
0.044597
0.0445947
0.0455342
0.0455318
0.0464804
0.0464779
0.0474201
0.0474176
0.0483275
0.0483249
0.0491678
0.0491653
0.0499061
0.0499037
0.0505158
0.0505135
0.0509844
0.0509823
0.051315
0.051313
0.0515236
0.0515219
0.0516347
0.0516332
0.0516757
0.0516743
0.0516729
0.0516717
0.0516489
0.0516477
0.051621
0.0516198
0.0516012
0.0516
0.051597
0.0515959
0.0516107
0.0516096
0.0516417
0.0516405
0.0516868
0.0516856
0.0517413
0.0517402
0.0517999
0.0517989
0.051857
0.0518561
0.0519075
0.0519066
0.0519465
0.0519458
0.05197
0.0519694
0.0519744
0.0519739
0.0519566
0.0519563
0.0519142
0.051914
0.0518452
0.051845
0.0517483
0.0517482
0.0516232
0.0516232
0.0514706
0.0514707
0.0512927
0.0512928
0.0510926
0.0510927
0.0508746
0.0508748
0.0506439
0.0506441
0.0504057
0.0504059
0.0501648
0.050165
0.0499251
0.0499253
0.0496895
0.0496897
0.0494592
0.0494594
0.0492348
0.049235
0.0490155
0.0490157
0.0488007
0.0488009
0.0485897
0.0485898
0.0483824
0.0483825
0.0481793
0.0481794
0.0479816
0.0479818
0.0477912
0.0477913
0.0476097
0.0476099
0.0474391
0.0474392
0.0472803
0.0472805
0.0471333
0.0471334
0.0469968
0.0469969
0.0468681
0.0468682
0.0467435
0.0467436
0.0466185
0.0466186
0.0464886
0.0464887
0.04635
0.0463501
0.0462006
0.0462007
0.0460403
0.0460404
0.0458713
0.0458715
0.045698
0.0456982
0.0455259
0.045526
0.0453607
0.0453608
0.0452072
0.0452073
0.0450683
0.0450684
0.044945
0.044945
0.0448353
0.0448354
0.0447363
0.0447364
0.0446444
0.0446445
0.0445564
0.0445565
0.0444701
0.0444702
0.0443848
0.0443848
0.044301
0.044301
0.0442202
0.0442203
0.0441448
0.0441448
0.0440769
0.0440769
0.044019
0.044019
0.0439729
0.0439729
0.0439402
0.0439401
0.0439218
0.0439218
0.0439183
0.0439183
0.0439296
0.0439295
0.0439552
0.0439551
0.0439943
0.0439942
0.0440457
0.0440456
0.0441085
0.0441084
0.044182
0.0441819
0.0442661
0.0442659
0.0443611
0.0443609
0.0444684
0.0444681
0.0445899
0.0445896
0.0447283
0.0447279
0.0448865
0.0448862
0.0450681
0.0450677
0.0452764
0.0452759
0.0455148
0.0455143
0.0457864
0.0457858
0.0460941
0.0460934
0.0464399
0.0464392
0.0468258
0.046825
0.0472526
0.0472517
0.0477207
0.0477196
0.0482291
0.0482279
0.0487759
0.0487746
0.0493577
0.0493563
0.0499696
0.049968
0.0506048
0.050603
0.0512549
0.0512531
0.0519103
0.0519083
0.0525601
0.052558
0.0531933
0.0531911
0.0537999
0.0537976
0.0543715
0.0543693
0.0549032
0.0549011
0.0553943
0.0553924
0.0558493
0.0558476
0.0562783
0.0562771
0.0566963
0.0566954
0.0571214
0.0571208
0.057573
0.0575725
0.058069
0.0580686
0.0586225
0.0586221
0.0592394
0.0592389
0.0599174
0.0599171
0.0606457
0.0606455
0.0614071
0.0614073
0.0621812
0.0621818
0.0629471
0.0629481
0.0636858
0.0636872
0.0643819
0.0643835
0.065025
0.0650268
0.0656104
0.0656122
0.0661383
0.0661399
0.0666127
0.0666143
0.0670412
0.0670427
0.0674335
0.0674348
0.067801
0.0678021
0.0681556
0.0681566
0.06851
0.0685108
0.0688763
0.068877
0.0692665
0.0692671
0.0696921
0.0696925
0.0701634
0.0701638
0.0706902
0.0706905
0.0712813
0.0712814
0.071944
0.0719441
0.0726847
0.0726847
0.0735079
0.0735078
0.0744164
0.0744162
0.0754105
0.0754102
0.0764874
0.076487
0.0776409
0.0776405
0.0788608
0.0788603
0.0801325
0.080132
0.0814371
0.0814365
0.0827518
0.0827512
0.0840508
0.0840501
0.0853066
0.0853058
0.0864922
0.0864914
0.087583
0.0875822
0.0885599
0.0885591
0.0894112
0.0894104
0.0901354
0.0901347
0.0907429
0.0907423
0.0912566
0.0912562
0.0917104
0.0917101
0.0921459
0.0921457
0.0926065
0.0926064
0.0931305
0.0931305
0.0937467
0.0937466
0.0944614
0.0944613
0.0952653
0.0952653
0.0961369
0.0961369
0.0970492
0.0970494
0.0979788
0.097979
0.0989118
0.0989121
0.0998481
0.0998484
0.100801
0.100801
0.101795
0.101795
0.102859
0.102859
0.104023
0.104023
0.105313
0.105313
0.106746
0.106746
0.108333
0.108333
0.110082
0.110082
0.111994
0.111994
0.114072
0.114072
0.116322
0.116322
0.118749
0.118749
0.121362
0.121362
0.124167
0.124166
0.127169
0.127168
0.130369
0.130369
0.133766
0.133766
0.137354
0.137354
0.141126
0.141125
0.145074
0.145073
0.149192
0.149192
0.153476
0.153475
0.157924
0.157924
0.162538
0.162538
0.167322
0.167321
0.172282
0.172281
0.177425
0.177424
0.182758
0.182758
0.188288
0.188287
0.194017
0.194017
0.199947
0.199946
0.206075
0.206075
0.212398
0.212397
0.218908
0.218908
0.225601
0.225601
0.232471
0.23247
0.23951
0.23951
0.246714
0.246714
0.254077
0.254077
0.261594
0.261593
0.269258
0.269258
0.277064
0.277063
0.285003
0.285003
0.29307
0.29307
0.301257
0.301257
0.309554
0.309554
0.317954
0.317954
0.326451
0.326451
0.335036
0.335036
0.343707
0.343707
0.352458
0.352458
0.361289
0.361289
0.370197
0.370197
0.379179
0.379179
0.388232
0.388231
0.397348
0.397348
0.406519
0.406519
0.415735
0.415735
0.424987
0.424987
0.434264
0.434264
0.443558
0.443558
0.452864
0.452864
0.462175
0.462175
0.471491
0.471491
0.480809
0.480809
0.490127
0.490127
0.499445
0.499445
0.50876
0.50876
0.518071
0.518071
0.527373
0.527373
0.536664
0.536664
0.545937
0.545937
0.555187
0.555187
0.564408
0.564408
0.573588
0.573588
0.582711
0.582711
0.591744
0.591744
0.600603
0.600603
0.609027
0.609027
0.616116
0.616117
0.61588
0.61588
2.8548e-09
2.85571e-09
4.63094e-07
4.63226e-07
9.71782e-06
9.72047e-06
6.83346e-05
6.83505e-05
0.000232366
0.000232407
0.000504352
0.00050442
0.000857094
0.000857189
0.00126933
0.00126944
0.0017282
0.00172834
0.00222579
0.00222596
0.00275688
0.00275707
0.00331778
0.00331799
0.00390575
0.00390599
0.00451868
0.00451894
0.00515484
0.00515513
0.00581284
0.00581315
0.00649146
0.0064918
0.00718968
0.00719004
0.00790657
0.00790695
0.00864131
0.00864172
0.00939314
0.00939357
0.0101613
0.0101618
0.0109453
0.0109458
0.0117443
0.0117448
0.0125578
0.0125584
0.0133852
0.0133858
0.0142261
0.0142267
0.0150797
0.0150804
0.0159457
0.0159464
0.0168236
0.0168242
0.0177127
0.0177134
0.0186127
0.0186135
0.0195231
0.0195238
0.0204433
0.0204441
0.0213728
0.0213736
0.022311
0.0223119
0.0232575
0.0232584
0.0242116
0.0242125
0.0251727
0.0251737
0.0261404
0.0261414
0.0271141
0.0271151
0.0280932
0.0280942
0.0290772
0.0290783
0.0300655
0.0300666
0.0310575
0.0310586
0.0320522
0.0320534
0.0330486
0.0330498
0.0340454
0.0340466
0.035041
0.0350423
0.0360338
0.036035
0.0370216
0.0370229
0.0380024
0.0380037
0.038974
0.0389754
0.0399343
0.0399357
0.0408822
0.0408837
0.0418181
0.0418195
0.0427448
0.0427463
0.0436681
0.0436697
0.0445953
0.044597
0.0455325
0.0455342
0.0464786
0.0464803
0.0474183
0.0474201
0.0483256
0.0483274
0.0491659
0.0491677
0.0499043
0.049906
0.0505141
0.0505158
0.0509829
0.0509844
0.0513136
0.051315
0.0515224
0.0515236
0.0516336
0.0516347
0.0516747
0.0516758
0.051672
0.051673
0.0516481
0.0516489
0.0516202
0.051621
0.0516004
0.0516012
0.0515962
0.051597
0.0516099
0.0516108
0.0516409
0.0516417
0.051686
0.0516868
0.0517406
0.0517414
0.0517992
0.0518
0.0518564
0.0518571
0.051907
0.0519075
0.0519461
0.0519465
0.0519697
0.0519701
0.0519742
0.0519745
0.0519566
0.0519567
0.0519142
0.0519143
0.0518453
0.0518453
0.0517484
0.0517484
0.0516234
0.0516233
0.0514709
0.0514707
0.051293
0.0512928
0.0510929
0.0510927
0.050875
0.0508748
0.0506443
0.0506441
0.050406
0.0504058
0.0501651
0.0501649
0.0499255
0.0499253
0.0496898
0.0496896
0.0494595
0.0494593
0.0492351
0.0492349
0.0490158
0.0490157
0.048801
0.0488008
0.04859
0.0485898
0.0483826
0.0483825
0.0481795
0.0481794
0.0479819
0.0479818
0.0477914
0.0477913
0.04761
0.0476098
0.0474394
0.0474392
0.0472806
0.0472805
0.0471336
0.0471334
0.046997
0.0469969
0.0468683
0.0468682
0.0467437
0.0467436
0.0466187
0.0466186
0.0464888
0.0464887
0.0463503
0.0463501
0.0462008
0.0462007
0.0460405
0.0460404
0.0458716
0.0458715
0.0456983
0.0456982
0.0455261
0.045526
0.0453609
0.0453608
0.0452074
0.0452073
0.0450685
0.0450684
0.0449452
0.0449451
0.0448355
0.0448355
0.0447365
0.0447365
0.0446446
0.0446446
0.0445566
0.0445566
0.0444703
0.0444703
0.044385
0.0443849
0.0443011
0.0443011
0.0442204
0.0442204
0.0441449
0.0441449
0.044077
0.044077
0.0440191
0.0440191
0.043973
0.043973
0.0439403
0.0439403
0.0439219
0.0439219
0.0439184
0.0439184
0.0439297
0.0439297
0.0439553
0.0439553
0.0439943
0.0439943
0.0440457
0.0440458
0.0441085
0.0441086
0.044182
0.0441821
0.044266
0.0442661
0.044361
0.0443611
0.0444683
0.0444684
0.0445898
0.0445899
0.0447281
0.0447283
0.0448863
0.0448865
0.0450678
0.0450681
0.0452761
0.0452764
0.0455145
0.0455148
0.045786
0.0457864
0.0460936
0.046094
0.0464394
0.0464399
0.0468252
0.0468257
0.047252
0.0472526
0.0477199
0.0477206
0.0482282
0.048229
0.048775
0.0487758
0.0493567
0.0493576
0.0499684
0.0499694
0.0506035
0.0506046
0.0512535
0.0512547
0.0519088
0.0519101
0.0525585
0.0525598
0.0531916
0.0531931
0.0537981
0.0537996
0.0543697
0.0543713
0.0549015
0.054903
0.0553927
0.0553941
0.0558479
0.0558491
0.0562773
0.0562782
0.0566955
0.0566961
0.0571209
0.0571213
0.0575726
0.0575729
0.0580686
0.0580689
0.0586221
0.0586224
0.059239
0.0592392
0.0599171
0.0599173
0.0606455
0.0606455
0.0614072
0.061407
0.0621817
0.0621811
0.0629479
0.062947
0.0636869
0.0636858
0.0643832
0.0643819
0.0650264
0.065025
0.0656118
0.0656104
0.0661395
0.0661382
0.0666138
0.0666127
0.0670422
0.0670411
0.0674344
0.0674334
0.0678017
0.0678008
0.0681562
0.0681555
0.0685104
0.0685098
0.0688766
0.0688761
0.0692667
0.0692663
0.0696921
0.0696918
0.0701633
0.070163
0.07069
0.0706898
0.0712809
0.0712808
0.0719435
0.0719435
0.072684
0.0726841
0.0735071
0.0735072
0.0744155
0.0744156
0.0754094
0.0754096
0.0764861
0.0764864
0.0776395
0.0776398
0.0788592
0.0788596
0.0801308
0.0801313
0.0814353
0.0814359
0.08275
0.0827506
0.0840489
0.0840495
0.0853047
0.0853054
0.0864903
0.0864911
0.0875813
0.0875821
0.0885583
0.0885591
0.0894098
0.0894105
0.0901342
0.090135
0.0907421
0.0907427
0.091256
0.0912566
0.09171
0.0917104
0.0921456
0.0921459
0.0926063
0.0926065
0.0931302
0.0931303
0.0937461
0.0937462
0.0944606
0.0944608
0.0952644
0.0952646
0.0961359
0.096136
0.0970485
0.0970484
0.0979783
0.0979781
0.0989115
0.0989113
0.0998481
0.0998478
0.100801
0.100801
0.101795
0.101795
0.102859
0.102859
0.104024
0.104024
0.105313
0.105313
0.106746
0.106746
0.108333
0.108333
0.110081
0.110082
0.111993
0.111993
0.114072
0.114072
0.116321
0.116321
0.118748
0.118749
0.121361
0.121361
0.124165
0.124166
0.127167
0.127168
0.130368
0.130368
0.133765
0.133765
0.137352
0.137353
0.141124
0.141125
0.145072
0.145073
0.149191
0.149191
0.153475
0.153475
0.157923
0.157924
0.162538
0.162538
0.167322
0.167322
0.172282
0.172282
0.177425
0.177425
0.182758
0.182759
0.188287
0.188288
0.194017
0.194017
0.199946
0.199947
0.206075
0.206075
0.212397
0.212398
0.218908
0.218908
0.225601
0.225601
0.23247
0.23247
0.239509
0.23951
0.246713
0.246714
0.254076
0.254077
0.261593
0.261593
0.269257
0.269258
0.277062
0.277063
0.285002
0.285003
0.293069
0.29307
0.301256
0.301256
0.309553
0.309554
0.317954
0.317954
0.32645
0.32645
0.335035
0.335036
0.343706
0.343707
0.352458
0.352458
0.361288
0.361289
0.370196
0.370197
0.379178
0.379179
0.388231
0.388231
0.397347
0.397347
0.406518
0.406518
0.415734
0.415735
0.424986
0.424986
0.434263
0.434264
0.443557
0.443558
0.452863
0.452863
0.462175
0.462175
0.47149
0.471491
0.480808
0.480808
0.490126
0.490127
0.499444
0.499445
0.508759
0.50876
0.51807
0.51807
0.527372
0.527373
0.536662
0.536662
0.545935
0.545935
0.555185
0.555185
0.564404
0.564405
0.573584
0.573584
0.582705
0.582706
0.591737
0.591737
0.600593
0.600593
0.609015
0.609015
0.616103
0.616103
0.615869
0.615869
0.615882
0.615882
0.616123
0.616122
0.609036
0.609036
0.600612
0.600612
0.591754
0.591754
0.582721
0.582721
0.573598
0.573599
0.564419
0.564419
0.555199
0.555199
0.545949
0.545949
0.536676
0.536676
0.527386
0.527386
0.518084
0.518084
0.508773
0.508773
0.499458
0.499458
0.490141
0.490141
0.480824
0.480824
0.471507
0.471507
0.462192
0.462192
0.45288
0.45288
0.443575
0.443575
0.434281
0.434281
0.425005
0.425005
0.415754
0.415755
0.406539
0.406539
0.397368
0.397368
0.388252
0.388252
0.3792
0.3792
0.370219
0.370219
0.361311
0.361312
0.352481
0.352481
0.34373
0.343731
0.335061
0.335061
0.326475
0.326475
0.317979
0.317979
0.309578
0.309578
0.30128
0.30128
0.293094
0.293094
0.285026
0.285027
0.277086
0.277087
0.269281
0.269281
0.261616
0.261616
0.254099
0.254099
0.246736
0.246736
0.239531
0.239532
0.232492
0.232492
0.225622
0.225622
0.218928
0.218929
0.212417
0.212417
0.206094
0.206094
0.199965
0.199965
0.194034
0.194034
0.188304
0.188304
0.182774
0.182774
0.17744
0.17744
0.172296
0.172296
0.167335
0.167335
0.16255
0.162551
0.157936
0.157936
0.153486
0.153486
0.149201
0.149201
0.145081
0.145081
0.141132
0.141132
0.137359
0.137359
0.13377
0.133771
0.130373
0.130373
0.127171
0.127171
0.124168
0.124168
0.121362
0.121362
0.118749
0.118749
0.11632
0.11632
0.11407
0.11407
0.11199
0.11199
0.110078
0.110078
0.108329
0.108329
0.106741
0.106741
0.105307
0.105307
0.104017
0.104017
0.102853
0.102853
0.101789
0.101789
0.100796
0.100796
0.0998436
0.0998433
0.0989081
0.0989078
0.0979757
0.0979755
0.0970467
0.0970465
0.0961349
0.0961348
0.0952638
0.0952638
0.0944602
0.0944603
0.0937458
0.0937459
0.09313
0.0931301
0.0926064
0.0926064
0.0921461
0.0921463
0.0917111
0.0917114
0.091258
0.0912585
0.0907452
0.0907458
0.090138
0.0901387
0.0894138
0.0894146
0.0885624
0.0885633
0.0875854
0.0875863
0.0864943
0.0864952
0.0853088
0.0853096
0.0840531
0.0840539
0.0827543
0.082755
0.0814398
0.0814404
0.0801352
0.0801357
0.0788634
0.0788639
0.0776434
0.0776438
0.0764898
0.0764902
0.0754128
0.0754131
0.0744187
0.0744189
0.0735101
0.0735102
0.0726868
0.0726868
0.0719461
0.071946
0.0712832
0.071283
0.0706922
0.0706919
0.0701653
0.0701649
0.0696939
0.0696933
0.0692683
0.0692676
0.068878
0.0688772
0.0685117
0.0685108
0.0681575
0.0681563
0.0678029
0.0678016
0.0674357
0.0674342
0.0670434
0.0670418
0.0666149
0.0666131
0.0661405
0.0661386
0.0656127
0.0656107
0.0650272
0.0650253
0.0643838
0.064382
0.0636872
0.0636856
0.0629477
0.0629465
0.0621809
0.0621803
0.0614062
0.0614061
0.0606444
0.0606446
0.0599159
0.0599162
0.0592377
0.0592381
0.0586207
0.0586211
0.0580671
0.0580675
0.0575709
0.0575714
0.0571191
0.0571197
0.0566936
0.0566945
0.0562752
0.0562765
0.0558457
0.0558474
0.0553904
0.0553924
0.0548992
0.0549015
0.0543674
0.0543698
0.0537956
0.053798
0.0531889
0.0531912
0.0525555
0.0525577
0.0519056
0.0519078
0.0512502
0.0512522
0.0506
0.0506018
0.0499647
0.0499665
0.0493528
0.0493544
0.0487709
0.0487723
0.048224
0.0482253
0.0477155
0.0477166
0.0472473
0.0472484
0.0468204
0.0468213
0.0464344
0.0464352
0.0460884
0.0460891
0.0457806
0.0457812
0.0455088
0.0455094
0.0452702
0.0452707
0.0450618
0.0450622
0.0448801
0.0448804
0.0447216
0.044722
0.0445831
0.0445834
0.0444614
0.0444616
0.0443539
0.0443541
0.0442586
0.0442588
0.0441743
0.0441745
0.0441006
0.0441007
0.0440375
0.0440377
0.0439859
0.043986
0.0439466
0.0439467
0.0439209
0.0439209
0.0439094
0.0439095
0.0439128
0.0439128
0.043931
0.043931
0.0439636
0.0439636
0.0440095
0.0440095
0.0440674
0.0440673
0.0441351
0.044135
0.0442104
0.0442103
0.0442909
0.0442909
0.0443745
0.0443744
0.0444595
0.0444595
0.0445456
0.0445455
0.0446333
0.0446333
0.044725
0.044725
0.0448239
0.0448238
0.0449334
0.0449333
0.0450565
0.0450564
0.0451953
0.0451951
0.0453486
0.0453485
0.0455137
0.0455135
0.0456857
0.0456856
0.0458589
0.0458588
0.0460277
0.0460276
0.0461879
0.0461877
0.0463372
0.046337
0.0464756
0.0464755
0.0466054
0.0466053
0.0467304
0.0467302
0.0468549
0.0468547
0.0469834
0.0469833
0.0471198
0.0471197
0.0472667
0.0472665
0.0474253
0.0474252
0.0475958
0.0475956
0.0477771
0.0477769
0.0479674
0.0479672
0.0481649
0.0481647
0.0483679
0.0483677
0.0485751
0.0485749
0.048786
0.0487858
0.0490007
0.0490005
0.0492199
0.0492197
0.0494443
0.049444
0.0496744
0.0496742
0.04991
0.0499098
0.0501496
0.0501493
0.0503904
0.0503901
0.0506286
0.0506283
0.0508592
0.0508589
0.051077
0.0510768
0.0512771
0.0512769
0.0514551
0.051455
0.0516077
0.0516076
0.0517328
0.0517328
0.0518296
0.0518298
0.0518985
0.0518987
0.0519406
0.051941
0.0519581
0.0519586
0.0519534
0.051954
0.0519296
0.0519304
0.0518903
0.0518911
0.0518396
0.0518405
0.0517821
0.0517832
0.0517233
0.0517244
0.0516685
0.0516697
0.0516232
0.0516244
0.0515921
0.0515933
0.0515782
0.0515794
0.0515823
0.0515835
0.0516019
0.0516031
0.0516297
0.051631
0.0516537
0.051655
0.0516563
0.0516577
0.0516151
0.0516167
0.051504
0.0515058
0.0512954
0.0512974
0.050965
0.0509672
0.0504966
0.050499
0.049887
0.0498895
0.0491487
0.0491514
0.0483085
0.0483112
0.0474014
0.0474041
0.046462
0.0464646
0.0455162
0.0455187
0.0445793
0.0445817
0.0436523
0.0436547
0.0427293
0.0427316
0.0418029
0.0418051
0.0408674
0.0408696
0.0399199
0.039922
0.03896
0.0389621
0.0379888
0.0379909
0.0370084
0.0370105
0.036021
0.036023
0.0350286
0.0350306
0.0340334
0.0340353
0.033037
0.0330389
0.032041
0.0320429
0.0310466
0.0310485
0.0300551
0.0300569
0.0290671
0.0290688
0.0280834
0.0280851
0.0271047
0.0271063
0.0261314
0.026133
0.0251641
0.0251657
0.0242032
0.0242048
0.0232495
0.023251
0.0223033
0.0223048
0.0213654
0.0213668
0.0204362
0.0204376
0.0195163
0.0195177
0.0186063
0.0186076
0.0177066
0.0177078
0.0168177
0.0168189
0.0159402
0.0159413
0.0150745
0.0150756
0.0142211
0.0142222
0.0133806
0.0133816
0.0125534
0.0125544
0.0117401
0.0117411
0.0109414
0.0109423
0.0101577
0.0101586
0.00938975
0.00939056
0.00863816
0.00863893
0.00790366
0.00790438
0.007187
0.00718768
0.00648901
0.00648965
0.0058106
0.0058112
0.00515282
0.00515337
0.00451686
0.00451737
0.00390414
0.00390461
0.00331636
0.00331678
0.00275565
0.00275603
0.00222474
0.00222508
0.00172733
0.00172762
0.00126862
0.00126887
0.000856558
0.000856754
0.000503979
0.000504122
0.000232152
0.000232238
6.82554e-05
6.82892e-05
9.70517e-06
9.71078e-06
4.62484e-07
4.62761e-07
2.85112e-09
2.85299e-09
0.615872
0.615872
0.616111
0.61611
0.609025
0.609025
0.600603
0.600603
0.591747
0.591747
0.582716
0.582716
0.573594
0.573595
0.564416
0.564416
0.555197
0.555197
0.545947
0.545947
0.536674
0.536675
0.527385
0.527385
0.518083
0.518083
0.508772
0.508773
0.499458
0.499458
0.490141
0.490141
0.480823
0.480824
0.471506
0.471507
0.462191
0.462191
0.452879
0.45288
0.443574
0.443575
0.43428
0.434281
0.425004
0.425005
0.415753
0.415754
0.406537
0.406538
0.397367
0.397367
0.388251
0.388252
0.3792
0.3792
0.370218
0.370219
0.361311
0.361311
0.352481
0.352481
0.34373
0.34373
0.33506
0.33506
0.326474
0.326475
0.317978
0.317979
0.309577
0.309578
0.301279
0.30128
0.293093
0.293093
0.285026
0.285026
0.277086
0.277086
0.26928
0.26928
0.261615
0.261616
0.254098
0.254099
0.246735
0.246735
0.239531
0.239531
0.232491
0.232491
0.225621
0.225622
0.218928
0.218928
0.212416
0.212417
0.206093
0.206094
0.199965
0.199965
0.194034
0.194035
0.188304
0.188305
0.182774
0.182775
0.17744
0.17744
0.172296
0.172296
0.167335
0.167336
0.162551
0.162551
0.157935
0.157936
0.153486
0.153486
0.1492
0.1492
0.14508
0.14508
0.141131
0.141131
0.137358
0.137358
0.133769
0.133769
0.130372
0.130372
0.12717
0.12717
0.124167
0.124167
0.121362
0.121362
0.118748
0.118748
0.11632
0.11632
0.11407
0.11407
0.11199
0.11199
0.110078
0.110078
0.108329
0.108329
0.106741
0.106741
0.105308
0.105308
0.104018
0.104018
0.102854
0.102854
0.10179
0.10179
0.100797
0.100797
0.0998442
0.0998443
0.0989085
0.0989086
0.097976
0.097976
0.0970468
0.0970468
0.0961351
0.096135
0.0952641
0.095264
0.0944607
0.0944606
0.0937465
0.0937465
0.093131
0.093131
0.0926076
0.0926075
0.0921475
0.0921474
0.0917126
0.0917124
0.0912595
0.0912593
0.0907466
0.0907463
0.0901392
0.0901388
0.0894147
0.0894143
0.0885631
0.0885627
0.0875858
0.0875853
0.0864944
0.086494
0.0853086
0.0853082
0.0840528
0.0840523
0.0827538
0.0827534
0.0814392
0.0814388
0.0801345
0.0801342
0.0788627
0.0788624
0.0776427
0.0776425
0.0764892
0.076489
0.0754122
0.075412
0.0744181
0.074418
0.0735095
0.0735095
0.0726862
0.0726863
0.0719455
0.0719456
0.0712827
0.0712829
0.0706916
0.0706918
0.0701646
0.070165
0.0696932
0.0696937
0.0692675
0.0692681
0.0688771
0.0688778
0.0685107
0.0685115
0.0681563
0.0681572
0.0678016
0.0678027
0.0674341
0.0674354
0.0670417
0.0670431
0.066613
0.0666145
0.0661384
0.0661401
0.0656105
0.0656123
0.065025
0.0650267
0.0643817
0.0643833
0.0636853
0.0636867
0.0629461
0.0629471
0.0621799
0.0621804
0.0614057
0.0614058
0.0606442
0.060644
0.0599159
0.0599155
0.0592377
0.0592373
0.0586208
0.0586204
0.0580672
0.0580669
0.0575712
0.0575708
0.0571195
0.0571189
0.0566943
0.0566935
0.0562763
0.0562751
0.0558472
0.0558456
0.0553922
0.0553903
0.0549012
0.0548991
0.0543695
0.0543673
0.0537978
0.0537955
0.053191
0.0531888
0.0525575
0.0525554
0.0519075
0.0519055
0.0512519
0.0512501
0.0506016
0.0505998
0.0499662
0.0499646
0.0493541
0.0493527
0.0487721
0.0487708
0.0482251
0.0482239
0.0477164
0.0477153
0.0472482
0.0472472
0.0468211
0.0468202
0.046435
0.0464343
0.0460889
0.0460883
0.0457811
0.0457805
0.0455092
0.0455087
0.0452706
0.0452701
0.0450621
0.0450617
0.0448803
0.04488
0.0447218
0.0447215
0.0445833
0.044583
0.0444615
0.0444613
0.044354
0.0443538
0.0442587
0.0442585
0.0441744
0.0441742
0.0441007
0.0441005
0.0440376
0.0440375
0.0439859
0.0439858
0.0439467
0.0439466
0.0439209
0.0439208
0.0439094
0.0439093
0.0439128
0.0439127
0.043931
0.0439309
0.0439635
0.0439635
0.0440095
0.0440095
0.0440673
0.0440673
0.044135
0.044135
0.0442103
0.0442103
0.0442908
0.0442909
0.0443744
0.0443744
0.0444595
0.0444595
0.0445455
0.0445456
0.0446333
0.0446333
0.0447249
0.044725
0.0448238
0.0448239
0.0449333
0.0449334
0.0450564
0.0450565
0.0451951
0.0451952
0.0453485
0.0453486
0.0455135
0.0455137
0.0456856
0.0456857
0.0458588
0.0458589
0.0460276
0.0460277
0.0461877
0.0461879
0.046337
0.0463372
0.0464755
0.0464756
0.0466053
0.0466054
0.0467302
0.0467304
0.0468547
0.0468549
0.0469833
0.0469834
0.0471197
0.0471198
0.0472665
0.0472667
0.0474252
0.0474253
0.0475956
0.0475958
0.0477769
0.0477771
0.0479673
0.0479674
0.0481648
0.048165
0.0483677
0.0483679
0.0485749
0.0485751
0.0487858
0.048786
0.0490005
0.0490008
0.0492197
0.0492199
0.049444
0.0494443
0.0496742
0.0496744
0.0499098
0.04991
0.0501493
0.0501496
0.0503902
0.0503904
0.0506283
0.0506286
0.0508589
0.0508592
0.0510768
0.051077
0.0512769
0.0512771
0.051455
0.0514551
0.0516076
0.0516077
0.0517329
0.0517328
0.0518298
0.0518296
0.0518987
0.0518985
0.051941
0.0519407
0.0519586
0.0519581
0.051954
0.0519534
0.0519304
0.0519296
0.0518911
0.0518903
0.0518405
0.0518396
0.0517832
0.0517821
0.0517244
0.0517233
0.0516697
0.0516685
0.0516244
0.0516232
0.0515933
0.0515921
0.0515794
0.0515783
0.0515835
0.0515823
0.0516031
0.0516019
0.051631
0.0516297
0.051655
0.0516537
0.0516577
0.0516563
0.0516167
0.0516151
0.0515058
0.051504
0.0512975
0.0512955
0.0509672
0.050965
0.050499
0.0504966
0.0498895
0.049887
0.0491514
0.0491488
0.0483112
0.0483086
0.0474041
0.0474014
0.0464646
0.046462
0.0455187
0.0455162
0.0445818
0.0445793
0.0436547
0.0436523
0.0427316
0.0427293
0.0418051
0.0418029
0.0408696
0.0408674
0.0399221
0.0399199
0.0389621
0.03896
0.037991
0.0379889
0.0370105
0.0370085
0.036023
0.036021
0.0350306
0.0350286
0.0340354
0.0340334
0.0330389
0.033037
0.0320429
0.032041
0.0310485
0.0310466
0.0300569
0.0300551
0.0290688
0.0290671
0.0280851
0.0280834
0.0271064
0.0271047
0.026133
0.0261314
0.0251657
0.0251641
0.0242048
0.0242032
0.023251
0.0232495
0.0223048
0.0223033
0.0213668
0.0213654
0.0204376
0.0204362
0.0195177
0.0195163
0.0186076
0.0186063
0.0177078
0.0177066
0.0168189
0.0168177
0.0159413
0.0159402
0.0150756
0.0150745
0.0142222
0.0142211
0.0133816
0.0133806
0.0125544
0.0125534
0.0117411
0.0117401
0.0109423
0.0109414
0.0101586
0.0101577
0.00939056
0.00938975
0.00863893
0.00863816
0.00790439
0.00790366
0.00718768
0.007187
0.00648965
0.00648901
0.0058112
0.0058106
0.00515337
0.00515282
0.00451737
0.00451686
0.00390461
0.00390414
0.00331678
0.00331636
0.00275603
0.00275565
0.00222508
0.00222474
0.00172762
0.00172733
0.00126887
0.00126862
0.000856754
0.000856558
0.000504122
0.000503979
0.000232238
0.000232152
6.82892e-05
6.82555e-05
9.71079e-06
9.70518e-06
4.62761e-07
4.62484e-07
2.85299e-09
2.85112e-09
)
;

boundaryField
{
    walls
    {
        type            nutUWallFunction;
        blending        stepwise;
        Cmu             0.09;
        kappa           0.41;
        E               9.8;
        value           uniform 0;
    }
    inlet
    {
        type            cyclic;
    }
    outlet
    {
        type            cyclic;
    }
    sides
    {
        type            empty;
    }
}


// ************************************************************************* //
