/*--------------------------------*- C++ -*----------------------------------*\
| =========                 |                                                 |
| \\      /  F ield         | OpenFOAM: The Open Source CFD Toolbox           |
|  \\    /   O peration     | Version:  2012                                  |
|   \\  /    A nd           | Website:  www.openfoam.com                      |
|    \\/     M anipulation  |                                                 |
\*---------------------------------------------------------------------------*/
FoamFile
{
    version     2.0;
    format      ascii;
    class       volSymmTensorField;
    location    "16000";
    object      turbulenceProperties:R;
}
// * * * * * * * * * * * * * * * * * * * * * * * * * * * * * * * * * * * * * //

dimensions      [0 2 -2 0 0 0 0];


internalField   nonuniform List<symmTensor> 
2560
(
(0.00290184 -8.71537e-07 -1.26483e-09 0.00290184 -2.42521e-09 0.00290184)
(0.00290019 -8.70303e-07 -1.26389e-09 0.00290019 4.33832e-13 0.00290019)
(0.0817624 -0.000140651 -6.16121e-07 0.0817624 9.56169e-13 0.0817624)
(0.0817197 -0.000140459 -6.15684e-07 0.0817196 1.5999e-11 0.0817198)
(0.573558 -0.00293815 -1.75977e-05 0.57356 2.63994e-06 0.573558)
(0.57328 -0.0029343 -1.75751e-05 0.573279 -9.89273e-10 0.57328)
(1.85899 -0.0205659 -0.000124968 1.859 2.31545e-05 1.85899)
(1.85825 -0.0205417 -0.000124825 1.85824 -8.78627e-09 1.85825)
(3.6483 -0.0696086 -0.000429114 3.6483 5.26166e-05 3.6483)
(3.64719 -0.0695393 -0.000428705 3.64718 -2.12429e-08 3.64719)
(5.4126 -0.150317 -0.000939705 5.41261 5.70522e-05 5.4126)
(5.4113 -0.150193 -0.000938966 5.41128 -3.19937e-08 5.4113)
(7.00152 -0.25385 -0.00160881 7.00153 4.84182e-05 7.00152)
(7.00009 -0.253674 -0.00160776 7.00008 -3.87879e-08 7.0001)
(8.43157 -0.373028 -0.00239665 8.43158 3.94222e-05 8.43157)
(8.43006 -0.372813 -0.00239537 8.43004 -4.6578e-08 8.43006)
(9.73969 -0.503528 -0.00328191 9.7397 3.25049e-05 9.73969)
(9.7381 -0.50329 -0.0032805 9.73808 -4.61619e-08 9.7381)
(10.9557 -0.64336 -0.00425731 10.9557 2.73728e-05 10.9557)
(10.954 -0.643117 -0.00425587 10.954 -5.98152e-08 10.954)
(12.101 -0.791253 -0.00531308 12.1011 2.34995e-05 12.101)
(12.0993 -0.791021 -0.00531171 12.0993 -4.77011e-08 12.0993)
(13.1914 -0.945922 -0.00644553 13.1914 2.04992e-05 13.1914)
(13.1897 -0.945717 -0.00644433 13.1896 -7.56792e-08 13.1897)
(14.2383 -1.10709 -0.00765791 14.2383 1.82192e-05 14.2383)
(14.2366 -1.10692 -0.00765697 14.2363 -1.35132e-06 14.2366)
(15.2503 -1.27392 -0.00893865 15.2503 1.61555e-05 15.2503)
(15.2485 -1.27381 -0.00893804 15.2485 -8.07499e-09 15.2485)
(16.2343 -1.44383 -0.0102682 16.2343 1.46498e-05 16.2343)
(16.2328 -1.44377 -0.010268 16.2316 -7.37083e-07 16.2328)
(17.1956 -1.61374 -0.0116271 17.1956 1.09504e-05 17.1956)
(17.1936 -1.61374 -0.0116273 17.1936 -3.77294e-08 17.1936)
(18.1386 -1.78126 -0.0130027 18.1386 1.84255e-05 18.1386)
(18.1366 -1.78132 -0.0130033 18.1366 1.46786e-06 18.1366)
(19.067 -1.94742 -0.0144232 19.067 5.66998e-06 19.067)
(19.0649 -1.94753 -0.0144241 19.0649 -1.58252e-08 19.0649)
(19.9838 -2.11894 -0.0159584 19.9838 1.94684e-05 19.9838)
(19.9817 -2.11909 -0.0159597 19.9817 4.05155e-08 19.9817)
(20.8917 -2.30371 -0.0176569 20.8917 1.84881e-06 20.8917)
(20.8895 -2.30391 -0.0176584 20.8895 -7.60944e-09 20.8895)
(21.793 -2.50347 -0.0195038 21.793 2.10582e-05 21.793)
(21.7908 -2.50369 -0.0195055 21.7908 6.23444e-08 21.7908)
(22.6895 -2.71337 -0.0214524 22.6896 -2.05105e-06 22.6895)
(22.6873 -2.71361 -0.0214542 22.6873 1.73143e-09 22.6873)
(23.5832 -2.92795 -0.0234765 23.5832 2.40872e-05 23.5832)
(23.5809 -2.9282 -0.0234785 23.5809 -2.95603e-06 23.5809)
(24.4754 -3.14533 -0.0255796 24.4755 -9.36518e-06 24.4754)
(24.4731 -3.14558 -0.0255815 24.4731 -6.12925e-08 24.4731)
(25.3678 -3.36589 -0.0277687 25.3678 3.3196e-05 25.3678)
(25.3654 -3.36613 -0.0277705 25.3654 -1.25267e-06 25.3654)
(26.2615 -3.58932 -0.0300353 26.2615 -2.25952e-05 26.2615)
(26.259 -3.58955 -0.030037 26.259 -1.43687e-07 26.259)
(27.1578 -3.81341 -0.0323557 27.1578 4.6174e-05 27.1578)
(27.1553 -3.81362 -0.0323573 27.1553 3.93863e-06 27.1553)
(28.0579 -4.03485 -0.0347014 28.058 -3.52035e-05 28.0579)
(28.0554 -4.03503 -0.0347027 28.0554 -1.01511e-07 28.0554)
(28.9629 -4.25099 -0.0370571 28.9629 5.54269e-05 28.9629)
(28.9603 -4.25114 -0.0370582 28.9603 -3.1231e-08 28.9603)
(29.8739 -4.46277 -0.039454 29.874 -4.48947e-05 29.8739)
(29.8713 -4.46287 -0.0394547 29.8713 -2.92599e-08 29.8713)
(30.792 -4.67795 -0.0419974 30.7919 6.50782e-05 30.792)
(30.7892 -4.67801 -0.0419976 30.7892 2.05164e-07 30.7892)
(31.718 -4.91164 -0.0448554 31.7181 -5.55066e-05 31.718)
(31.7153 -4.91164 -0.0448551 31.7153 3.2774e-08 31.7153)
(32.6532 -5.18171 -0.0481983 32.6531 7.60448e-05 32.6532)
(32.6503 -5.18164 -0.0481973 32.6503 2.78453e-07 32.6503)
(33.5982 -5.50131 -0.0521257 33.5983 -6.70527e-05 33.5982)
(33.5953 -5.50116 -0.0521239 33.5953 2.39075e-08 33.5953)
(34.5541 -5.873 -0.0566269 34.554 8.89197e-05 34.5541)
(34.5511 -5.87278 -0.0566244 34.5511 -6.94788e-06 34.5511)
(35.5212 -6.2877 -0.0615874 35.5214 -8.69916e-05 35.5212)
(35.5182 -6.2874 -0.0615842 35.5182 -1.49246e-07 35.5182)
(36.5006 -6.72795 -0.0668288 36.5005 0.000114766 36.5006)
(36.4975 -6.72758 -0.0668249 36.4975 -2.4163e-05 36.4975)
(37.4925 -7.17343 -0.072164 37.4928 -0.000142001 37.4925)
(37.4894 -7.173 -0.0721595 37.4894 -5.20163e-07 37.4895)
(38.4981 -7.60738 -0.0774627 38.4978 0.000198651 38.4981)
(38.4947 -7.60688 -0.0774574 38.4947 -1.07936e-05 38.4947)
(39.5173 -8.02373 -0.0827334 39.5176 -0.000242019 39.5173)
(39.514 -8.02316 -0.0827272 39.514 -7.142e-07 39.514)
(40.5515 -8.43506 -0.0882178 40.5513 0.000316274 40.5515)
(40.5481 -8.43438 -0.0882102 40.5481 8.8076e-06 40.5481)
(41.6009 -8.87901 -0.0944563 41.6013 -0.000357413 41.6009)
(41.5976 -8.87818 -0.0944468 41.5976 -6.25759e-07 41.5976)
(42.667 -9.41831 -0.102259 42.6667 0.000429405 42.667)
(42.6633 -9.41729 -0.102247 42.6633 2.1065e-05 42.6633)
(43.7494 -10.1296 -0.112537 43.7498 -0.000454807 43.7494)
(43.7459 -10.1283 -0.112522 43.7459 -3.47916e-07 43.7459)
(44.8493 -11.0822 -0.126038 44.8489 0.000510288 44.8493)
(44.8454 -11.0807 -0.126019 44.8454 9.6718e-06 44.8454)
(45.9654 -12.3168 -0.143135 45.9658 -0.000529013 45.9654)
(45.9617 -12.315 -0.143113 45.9617 -2.22528e-07 45.9617)
(47.0978 -13.8352 -0.163777 47.0974 0.000578081 47.0978)
(47.0938 -13.8331 -0.163752 47.0938 -5.14516e-06 47.0938)
(48.2437 -15.6054 -0.187592 48.2442 -0.000604002 48.2437)
(48.2399 -15.6031 -0.187565 48.2399 -3.08946e-07 48.2399)
(49.4016 -17.58 -0.21415 49.4012 0.000661524 49.4016)
(49.3974 -17.5776 -0.214122 49.3974 -0.000112864 49.3974)
(50.5669 -19.7139 -0.243072 50.5674 -0.000804391 50.5669)
(50.5629 -19.7114 -0.243045 50.5629 4.05323e-20 50.5629)
(51.7364 -21.9559 -0.273732 51.7359 0.000987198 51.7364)
(51.732 -21.9537 -0.273708 51.732 3.15499e-05 51.732)
(52.9038 -24.2112 -0.304625 52.9043 -0.00111253 52.9038)
(52.8996 -24.2094 -0.304608 52.8996 -3.73053e-06 52.8996)
(54.0648 -26.284 -0.332534 54.0642 0.00125289 54.0648)
(54.0602 -26.283 -0.332528 54.0602 6.80315e-05 54.0602)
(55.2127 -27.8198 -0.351754 55.2132 -0.00133671 55.2127)
(55.2084 -27.82 -0.351764 55.2084 -8.17584e-06 55.2084)
(56.3457 -28.2708 -0.35371 56.3453 0.00138046 56.3457)
(56.3409 -28.2726 -0.353745 56.3409 -3.72933e-05 56.341)
(57.4639 -26.9251 -0.327712 57.4645 -0.00151405 57.4639)
(57.4593 -26.9291 -0.327778 57.4593 -1.51085e-05 57.4594)
(58.5775 -23.0206 -0.26282 58.5774 0.0015227 58.5775)
(58.5726 -23.0272 -0.262925 58.5726 -4.9669e-05 58.5726)
(59.7033 -15.9345 -0.15082 59.7039 -0.00173925 59.7033)
(59.6984 -15.9441 -0.150967 59.6984 -1.63056e-05 59.6984)
(60.8653 -0.00798482 -5.3402e-05 60.8654 0.00170807 60.8653)
(60.86 6.33729e-16 -6.3373e-16 60.86 -2.80331e-05 60.86)
(62.0836 1.56914 -0.0106469 62.0838 -0.00199977 62.0836)
(62.0781 1.54037 -0.0104517 62.0781 -4.93269e-06 62.0781)
(63.3599 24.1078 -0.219084 63.3601 0.0019545 63.3599)
(63.3541 24.0893 -0.218845 63.3541 2.76887e-05 63.3541)
(64.6541 40.6884 -0.4554 64.6537 -0.00225469 64.6541)
(64.648 40.6679 -0.455125 64.648 1.43004e-05 64.648)
(65.8917 56.1863 -0.69597 65.8919 0.00223939 65.8917)
(65.8857 56.165 -0.69567 65.8857 7.73285e-05 65.8857)
(66.9716 68.8399 -0.913534 66.9708 -0.00245829 66.9716)
(66.9652 68.8189 -0.913226 66.9652 2.68569e-05 66.9653)
(67.7856 77.3016 -1.08303 67.7862 0.00250526 67.7856)
(67.7799 77.2826 -1.08273 67.7799 6.68193e-05 67.7799)
(68.2518 80.9003 -1.18701 68.2509 -0.00258281 68.2518)
(68.2459 80.8848 -1.18675 68.2459 -7.51677e-05 68.246)
(68.3271 79.7158 -1.2187 68.328 0.00263795 68.3271)
(68.3223 79.705 -1.2185 68.3223 -1.93575e-05 68.3224)
(68.0217 74.4616 -1.18221 68.021 -0.00261193 68.0217)
(68.017 74.4567 -1.18209 68.017 -3.99172e-05 68.017)
(67.3822 66.2267 -0.837543 67.3833 0.00267527 67.3822)
(67.3787 66.2283 -0.837661 67.3787 -8.19175e-06 67.3787)
(66.4848 56.1893 -0.360302 66.4842 -0.00259094 66.4848)
(66.4812 56.1977 -0.360426 66.4812 -0.000208433 66.4813)
(65.409 45.3972 0.0411098 65.4099 0.00266405 65.409)
(65.4064 45.4121 0.0409908 65.4064 -9.83286e-06 65.4064)
(64.2329 34.6484 0.360983 64.2322 -0.00257974 64.2329)
(64.2301 34.6674 0.360878 64.2301 0.00023573 64.2301)
(63.0172 24.469 0.32286 63.018 0.00264093 63.0172)
(63.0151 24.4892 0.323195 63.0151 5.04411e-06 63.0151)
(61.81 15.1572 0.1798 61.8093 -0.00258303 61.81)
(61.8075 15.177 0.180124 61.8075 1.61338e-05 61.8075)
(60.6392 5.9633 0.0502449 60.6398 0.00262715 60.6392)
(60.6373 5.99955 0.0505504 60.6373 5.02892e-06 60.6373)
(59.5236 -6.99001e-20 -1.02275e-21 59.5231 -0.00259376 59.5236)
(59.5213 -0.00839107 7.17286e-05 59.5213 1.59888e-05 59.5213)
(58.4653 -6.61809 0.0649357 58.4658 0.00262903 58.4653)
(58.4613 -6.6021 0.0646493 58.4675 6.32073e-05 58.4613)
(57.4621 -11.8203 0.16547 57.4617 -0.00261225 57.4621)
(57.46 -11.8055 0.165202 57.46 1.37146e-05 57.46)
(56.504 -16.0637 0.251376 56.5045 0.00264595 56.504)
(56.5009 -16.0502 0.251125 56.505 4.02159e-05 56.5009)
(55.5803 -19.4183 0.323054 55.58 -0.00264341 55.5803)
(55.5784 -19.4063 0.322823 55.5784 1.14863e-05 55.5784)
(54.6772 -21.9701 0.285158 54.6776 0.00239387 54.6772)
(54.6749 -21.96 0.28522 54.6772 2.47451e-05 54.6749)
(53.7833 -23.8209 0.0719971 53.7829 -0.00210799 53.7833)
(53.7817 -23.8137 0.0720729 53.7817 8.96699e-06 53.7817)
(52.8867 -25.0826 -0.158856 52.887 0.00155225 52.8867)
(52.8852 -25.0789 -0.15877 52.8863 9.89965e-06 52.8852)
(51.9792 -25.8646 -0.402727 51.9789 -0.000955197 51.9792)
(51.9781 -25.8638 -0.402634 51.9781 1.64206e-06 51.9781)
(51.0525 -26.2605 -0.517088 51.0525 0.000399573 51.0525)
(51.0518 -26.2619 -0.517133 51.0521 6.11966e-06 51.0518)
(50.1016 -26.3397 -0.523413 50.1013 -1.65411e-05 50.1016)
(50.1011 -26.3426 -0.523482 50.1011 -6.2499e-07 50.1011)
(49.1216 -26.1425 -0.524502 49.1216 -1.33345e-06 49.1216)
(49.1214 -26.1464 -0.524588 49.1215 7.17408e-06 49.1214)
(48.1103 -25.6805 -0.520075 48.1101 -1.35066e-05 48.1103)
(48.1103 -25.685 -0.520171 48.1103 -5.73006e-07 48.1103)
(47.066 -24.9419 -0.509436 47.066 -6.22308e-07 47.066)
(47.0661 -24.9467 -0.509538 47.0664 3.29833e-06 47.0661)
(45.9893 -23.901 -0.491684 45.9891 -1.40742e-05 45.9893)
(45.9896 -23.906 -0.49179 45.9896 -6.00004e-06 45.9896)
(44.8822 -22.53 -0.46595 44.8822 -5.93525e-06 44.8822)
(44.8826 -22.5351 -0.466058 44.8829 -6.40142e-06 44.8826)
(43.7491 -20.8111 -0.431677 43.749 -1.77323e-05 43.7491)
(43.7497 -20.8161 -0.431785 43.7497 -9.3405e-06 43.7497)
(42.5962 -18.7479 -0.388871 42.5962 -9.87142e-06 42.5962)
(42.5968 -18.7528 -0.388977 42.597 -9.47543e-06 42.5968)
(41.4317 -16.3729 -0.338252 41.4316 -1.58189e-05 41.4317)
(41.4324 -16.3776 -0.338356 41.4324 -9.63213e-06 41.4324)
(40.2648 -13.7486 -0.281257 40.2648 -8.99429e-06 40.2648)
(40.2655 -13.7531 -0.281356 40.2656 -1.00914e-05 40.2655)
(39.1053 -10.9645 -0.219981 39.1052 -1.18019e-05 39.1053)
(39.1061 -10.9687 -0.220075 39.1061 -7.58546e-06 39.1061)
(37.9625 -8.13062 -0.157068 37.9625 -5.95646e-06 37.9625)
(37.9632 -8.1345 -0.157155 37.9633 -8.34556e-06 37.9632)
(36.8441 -5.36707 -0.0953604 36.844 -6.49712e-06 36.8441)
(36.8448 -5.37056 -0.0954384 36.8448 -3.93459e-06 36.8448)
(35.7556 -2.79025 -0.0376596 35.7556 -4.30557e-07 35.7556)
(35.7563 -2.79331 -0.0377281 35.7564 -3.55985e-06 35.7563)
(34.7005 -3.85114e-14 -0 34.7004 -1.41093e-06 34.7005)
(34.7011 -0.00372703 -4.50514e-05 34.7011 -2.14457e-07 34.7011)
(33.6796 1.09662 -0.0134484 33.6796 3.87126e-07 33.6796)
(33.6802 1.09191 -0.0133907 33.6803 -4.67906e-06 33.6802)
(32.6924 2.90259 -0.0558886 32.6923 2.23001e-06 32.6924)
(32.693 2.90096 -0.0558422 32.693 2.26402e-06 32.693)
(31.7369 3.94066 -0.088408 31.7369 2.78243e-06 31.7369)
(31.7375 3.93954 -0.0883735 31.7376 -2.92621e-06 31.7375)
(30.8112 4.52733 -0.110236 30.8111 4.03477e-06 30.8112)
(30.8118 4.5267 -0.110214 30.8118 3.03848e-06 30.8118)
(29.9134 4.68561 -0.121234 29.9134 2.88258e-06 29.9134)
(29.914 4.68546 -0.121224 29.914 -3.66364e-06 29.914)
(29.0426 4.45515 -0.121763 29.0426 4.57641e-06 29.0426)
(29.0432 4.45545 -0.121765 29.0432 2.62435e-06 29.0432)
(28.1987 3.88704 -0.112601 28.1987 2.17399e-06 28.1987)
(28.1992 3.88773 -0.112614 28.1993 -5.03706e-06 28.1992)
(27.3822 3.03832 -0.0948103 27.3822 4.616e-06 27.3822)
(27.3827 3.03935 -0.0948338 27.3827 1.75735e-06 27.3827)
(26.5942 1.96862 -0.0696232 26.5942 1.26239e-06 26.5942)
(26.5947 1.96991 -0.0696552 26.5948 -6.49064e-06 26.5947)
(25.8359 0.18459 -0.0383974 25.8358 4.51708e-06 25.8359)
(25.8363 0.187659 -0.038436 25.8363 8.16217e-07 25.8363)
(25.1079 -0.00130968 -0.0364567 25.1079 2.38879e-07 25.1079)
(25.1084 -8.30281e-16 -0.0364124 25.1084 -8.21681e-06 25.1084)
(24.4102 -1.9643 -0.0768983 24.4102 4.09727e-06 24.4102)
(24.4107 -1.96279 -0.0768554 24.4107 -3.48163e-07 24.4107)
(23.7415 -3.31446 -0.116972 23.7415 -1.10064e-06 23.7415)
(23.7419 -3.31306 -0.116933 23.7419 -9.73273e-06 23.7419)
(23.0991 -4.58111 -0.154755 23.0991 3.11711e-06 23.0991)
(23.0995 -4.5799 -0.154722 23.0995 -1.9863e-06 23.0995)
(22.4795 -5.70141 -0.188233 22.4795 -2.98449e-06 22.4795)
(22.4798 -5.70047 -0.188209 22.4799 -1.19965e-05 22.4798)
(21.878 -6.61492 -0.21541 21.878 1.80847e-06 21.878)
(21.8784 -6.61428 -0.215395 21.8784 -3.95175e-06 21.8784)
(21.2899 -7.26699 -0.234408 21.2899 -5.00102e-06 21.2899)
(21.2903 -7.26668 -0.234403 21.2903 -1.34637e-05 21.2903)
(20.7108 -7.61313 -0.24365 20.7108 -3.6648e-07 20.7108)
(20.7112 -7.61314 -0.243656 20.7112 -6.02445e-06 20.7112)
(20.1372 -7.62424 -0.24205 20.1372 -7.09405e-06 20.1372)
(20.1376 -7.62455 -0.242064 20.1376 -1.43355e-05 20.1376)
(19.5676 -7.2912 -0.229183 19.5675 -3.36237e-06 19.5676)
(19.5679 -7.29177 -0.229205 19.5679 -8.24371e-06 19.5679)
(19.0022 -6.6276 -0.20538 19.0022 -9.59595e-06 19.0022)
(19.0025 -6.62836 -0.205408 19.0025 -1.57278e-05 19.0025)
(18.4433 -5.67054 -0.171808 18.4433 -7.04737e-06 18.4433)
(18.4437 -5.67146 -0.17184 18.4437 -1.12667e-05 18.4437)
(17.8948 -4.47896 -0.130392 17.8948 -1.33935e-05 17.8948)
(17.8951 -4.47996 -0.130427 17.8951 -1.85074e-05 17.8951)
(17.3608 -3.1287 -0.0836803 17.3608 -1.24374e-05 17.3608)
(17.3611 -3.12974 -0.083716 17.3611 -1.60501e-05 17.3611)
(16.8456 -1.70605 -0.0346128 16.8456 -1.92908e-05 16.8456)
(16.8459 -1.70706 -0.0346476 16.8459 -2.35411e-05 16.8459)
(16.3519 -0.00117162 -2.06131e-05 16.3518 -1.99571e-05 16.3519)
(16.3521 -0.00195051 -3.43166e-05 16.3521 -2.29845e-05 16.3521)
(15.8809 0.769579 -0.0137366 15.8809 -2.69991e-05 15.8809)
(15.8812 0.767764 -0.0137042 15.8812 -3.0654e-05 15.8812)
(15.4322 2.14865 -0.0584509 15.4322 -2.84422e-05 15.4322)
(15.4325 2.14791 -0.0584219 15.4325 -3.09765e-05 15.4325)
(15.0036 3.06987 -0.0972326 15.0036 -3.44924e-05 15.0036)
(15.0038 3.06928 -0.0972082 15.0038 -3.78411e-05 15.0038)
(14.5918 3.74406 -0.128313 14.5918 -3.46769e-05 14.5918)
(14.592 3.74362 -0.128293 14.592 -3.70956e-05 14.592)
(14.1939 4.16628 -0.15069 14.1939 -3.82592e-05 14.1939)
(14.1941 4.16598 -0.150676 14.1942 -4.13628e-05 14.1941)
(13.8073 4.35385 -0.164231 13.8073 -3.51928e-05 13.8073)
(13.8075 4.35369 -0.164223 13.8075 -3.7472e-05 13.8075)
(13.4301 4.34195 -0.169604 13.4301 -3.44462e-05 13.4301)
(13.4303 4.34191 -0.1696 13.4303 -3.73027e-05 13.4303)
(13.0617 4.17774 -0.16812 13.0617 -2.71775e-05 13.0617)
(13.0619 4.1778 -0.16812 13.0619 -2.91103e-05 13.0619)
(12.702 3.91426 -0.161529 12.702 -2.16083e-05 12.702)
(12.7022 3.91438 -0.161533 12.7022 -2.40299e-05 12.7022)
(12.3519 3.60426 -0.151808 12.3519 -1.10046e-05 12.3519)
(12.3521 3.60441 -0.151814 12.3521 -1.23578e-05 12.3521)
(12.0121 3.29437 -0.140914 12.0121 -3.42107e-07 12.0121)
(12.0123 3.29451 -0.14092 12.0123 -1.76323e-06 12.0123)
(11.6837 3.02109 -0.130551 11.6837 7.79597e-06 11.6837)
(11.6838 3.02121 -0.130557 11.6838 6.57937e-06 11.6838)
(11.3673 2.80907 -0.122049 11.3673 1.81514e-05 11.3673)
(11.3674 2.80915 -0.122053 11.3674 1.64528e-05 11.3674)
(11.0634 2.67082 -0.116285 11.0633 2.78337e-05 11.0634)
(11.0635 2.67085 -0.116287 11.0635 2.63747e-05 11.0635)
(10.7721 2.60756 -0.113668 10.7721 3.24961e-05 10.7721)
(10.7723 2.60754 -0.113669 10.7722 3.08547e-05 10.7723)
(10.4935 2.61111 -0.114161 10.4935 3.76513e-05 10.4935)
(10.4936 2.61104 -0.114159 10.4936 3.61945e-05 10.4936)
(10.227 2.66648 -0.117354 10.227 3.74706e-05 10.227)
(10.2272 2.66638 -0.11735 10.2271 3.61771e-05 10.2272)
(9.97215 2.75464 -0.122564 9.97213 3.77003e-05 9.97215)
(9.97225 2.75451 -0.122559 9.97225 3.65451e-05 9.97225)
(9.72798 2.85506 -0.128937 9.72798 3.38463e-05 9.72798)
(9.72808 2.85492 -0.128931 9.72807 3.30518e-05 9.72808)
(9.49363 2.94846 -0.135563 9.49362 3.06597e-05 9.49363)
(9.49371 2.94833 -0.135557 9.49371 2.99643e-05 9.49371)
(9.26812 3.01854 -0.141595 9.26812 2.54451e-05 9.26812)
(9.2682 3.01842 -0.141589 9.2682 2.49108e-05 9.2682)
(9.05061 3.05305 -0.146302 9.05061 2.01166e-05 9.05061)
(9.05068 3.05296 -0.146297 9.05068 2.0779e-05 9.05068)
(8.84039 3.04469 -0.14914 8.84039 7.11836e-06 8.84039)
(8.84045 3.04463 -0.149136 8.84046 1.52773e-05 8.84045)
(8.63702 2.99119 -0.149795 8.63703 -9.82994e-07 8.63702)
(8.63708 2.99116 -0.149792 8.63708 6.34157e-06 8.63708)
(8.44036 2.89465 -0.148175 8.44036 -1.5488e-06 8.44036)
(8.4404 2.89466 -0.148174 8.44041 -1.52912e-06 8.4404)
(8.25051 2.76083 -0.144391 8.25052 -1.06688e-06 8.25051)
(8.25056 2.76087 -0.144392 8.25056 -8.51892e-07 8.25056)
(8.06788 2.59833 -0.138734 8.06788 -1.57356e-06 8.06788)
(8.06791 2.59839 -0.138736 8.06792 -1.45015e-06 8.06791)
(7.89304 2.41738 -0.131635 7.89304 -1.17727e-06 7.89304)
(7.89307 2.41746 -0.131639 7.89307 -8.48774e-07 7.89307)
(7.72667 2.22881 -0.123604 7.72667 -1.58393e-06 7.72667)
(7.72668 2.22891 -0.123609 7.72669 -1.32383e-06 7.72668)
(7.5695 2.04337 -0.115196 7.5695 -1.27857e-06 7.5695)
(7.5695 2.04346 -0.115201 7.5695 -8.34638e-07 7.5695)
(7.42222 1.87115 -0.106976 7.42222 -1.58675e-06 7.42222)
(7.42221 1.87124 -0.106981 7.42221 -1.18233e-06 7.42221)
(7.28544 1.72125 -0.0994946 7.28544 -1.61735e-06 7.28544)
(7.28541 1.72132 -0.0994992 7.28541 -8.08814e-07 7.28541)
(7.15967 1.60155 -0.0932684 7.15967 -1.5533e-06 7.15967)
(7.15962 1.60159 -0.0932718 7.15962 -1.04476e-06 7.15962)
(7.04525 1.51856 -0.0887767 7.04525 -1.66064e-06 7.04525)
(7.04519 1.51857 -0.0887783 7.04519 -7.92533e-07 7.04519)
(6.94241 1.47751 -0.0864335 6.94241 -1.34832e-06 6.94241)
(6.94232 1.47747 -0.0864327 6.94232 -9.24502e-07 6.94232)
(6.85119 1.48256 -0.0866138 6.85119 -1.15584e-06 6.85119)
(6.85108 1.48247 -0.0866102 6.85108 -7.28108e-07 6.85108)
(6.77149 1.53647 -0.0896537 6.77149 -1.27963e-06 6.77149)
(6.77135 1.53632 -0.0896467 6.77135 -1.06574e-06 6.77135)
(6.70298 1.64019 -0.0957879 6.70298 -1.09532e-06 6.70298)
(6.70282 1.63997 -0.0957768 6.70282 -6.84102e-07 6.70282)
(6.64514 1.79289 -0.105161 6.64514 -1.26743e-06 6.64514)
(6.64494 1.7926 -0.105145 6.64495 -9.93355e-07 6.64494)
(6.59715 1.99159 -0.117797 6.59715 -1.07563e-06 6.59715)
(6.59693 1.99121 -0.117776 6.59693 -6.48931e-07 6.59693)
(6.55791 2.23073 -0.133568 6.55791 -1.34685e-06 6.55791)
(6.55766 2.23026 -0.133541 6.55766 -9.3551e-07 6.55766)
(6.52592 2.50195 -0.152151 6.52592 -1.07549e-06 6.52592)
(6.52564 2.50137 -0.152118 6.52564 -6.34189e-07 6.52564)
(6.49932 2.79409 -0.173017 6.49932 -1.35396e-06 6.49932)
(6.499 2.79339 -0.172975 6.499 -9.05956e-07 6.499)
(6.47585 3.09305 -0.19541 6.47585 -1.10821e-06 6.47585)
(6.4755 3.0922 -0.195359 6.4755 -6.54418e-07 6.4755)
(6.45295 3.38214 -0.218324 6.45295 -1.3927e-06 6.45295)
(6.45257 3.38111 -0.218261 6.45257 -9.15577e-07 6.45257)
(6.42788 3.64271 -0.240552 6.42788 -1.18198e-06 6.42788)
(6.42747 3.64145 -0.240474 6.42747 -7.69817e-07 6.42747)
(6.39791 3.85496 -0.260688 6.39791 -1.48989e-06 6.39791)
(6.39748 3.8534 -0.260592 6.39748 -9.66548e-07 6.39748)
(6.36059 3.99927 -0.277228 6.36059 -1.29751e-06 6.36058)
(6.36014 3.99735 -0.277107 6.36014 -9.30334e-07 6.36014)
(6.31401 4.05755 -0.288644 6.31401 -1.63283e-06 6.31401)
(6.31356 4.05522 -0.288493 6.31357 -1.05274e-06 6.31356)
(6.25714 4.01457 -0.293494 6.25714 -1.43305e-06 6.25714)
(6.25672 4.01188 -0.29331 6.25673 -1.12068e-06 6.25672)
(6.19005 3.85944 -0.262133 6.19005 -1.78721e-06 6.19004)
(6.18967 3.85671 -0.262223 6.18968 -1.14938e-06 6.18967)
(6.11402 3.58714 -0.124935 6.11402 -1.54317e-06 6.11402)
(6.11372 3.58523 -0.125039 6.11372 -1.31275e-06 6.11372)
(6.0316 3.19883 0.00298313 6.0316 -1.89262e-06 6.0316)
(6.03139 3.19931 0.00287603 6.0314 -1.21082e-06 6.03139)
(5.94628 2.70369 0.116777 5.94628 -1.6291e-06 5.94628)
(5.94615 2.70676 0.116684 5.94616 -1.42499e-06 5.94615)
(5.86206 2.11827 0.140914 5.86206 -1.9546e-06 5.86206)
(5.86198 2.1224 0.141249 5.86199 -1.2102e-06 5.86198)
(5.78298 1.46293 0.0886529 5.78298 -1.63541e-06 5.78298)
(5.78293 1.4671 0.0889727 5.78294 -1.41642e-06 5.78293)
(5.71256 0.762189 0.0323073 5.71256 -1.88541e-06 5.71256)
(5.71252 0.766075 0.0326072 5.71252 -1.17553e-06 5.71252)
(5.65318 0.000721101 2.93081e-05 5.65318 -1.53332e-06 5.65318)
(5.65314 0.0016284 6.61841e-05 5.65314 -1.36604e-06 5.65314)
(5.60575 -0.635823 0.0262179 5.60575 -1.75043e-06 5.60575)
(5.6057 -0.628565 0.0259186 5.60571 -1.12192e-06 5.6057)
(5.56958 -1.33626 0.0848343 5.56959 -1.4155e-06 5.56958)
(5.56955 -1.33237 0.0845184 5.56956 -1.33651e-06 5.56955)
(5.54242 -1.94515 0.140855 5.54242 -1.62402e-06 5.54242)
(5.54241 -1.94126 0.140516 5.54242 -1.09834e-06 5.54242)
(5.52093 -2.47069 0.144053 5.52093 -1.35286e-06 5.52093)
(5.52098 -2.46764 0.14413 5.52099 -1.3809e-06 5.52098)
(5.50126 -2.89756 0.0275669 5.50126 -1.65349e-06 5.50126)
(5.50139 -2.89699 0.0276626 5.50139 -1.15604e-06 5.50139)
(5.47959 -3.21899 -0.108722 5.47959 -1.45936e-06 5.47959)
(5.4798 -3.22094 -0.108626 5.47981 -1.46306e-06 5.4798)
(5.45254 -3.43441 -0.260622 5.45254 -1.90029e-06 5.45254)
(5.45282 -3.43718 -0.260538 5.45283 -1.274e-06 5.45282)
(5.41745 -3.54749 -0.327234 5.41745 -1.73111e-06 5.41744)
(5.41776 -3.55009 -0.32745 5.41777 -1.53841e-06 5.41776)
(5.37264 -3.56765 -0.329974 5.37264 -2.18713e-06 5.37264)
(5.37298 -3.56974 -0.330143 5.37299 -1.42778e-06 5.37298)
(5.31752 -3.50754 -0.325798 5.31752 -2.04463e-06 5.31752)
(5.31786 -3.50913 -0.325927 5.31786 -1.64126e-06 5.31786)
(5.25235 -3.38179 -0.315903 5.25235 -2.50118e-06 5.25235)
(5.25267 -3.383 -0.316003 5.25268 -1.59437e-06 5.25267)
(5.17811 -3.20576 -0.301461 5.17811 -2.34578e-06 5.17811)
(5.17841 -3.20668 -0.301539 5.17841 -1.71973e-06 5.17841)
(5.09627 -2.99325 -0.283539 5.09627 -2.79002e-06 5.09627)
(5.09655 -2.99397 -0.283601 5.09655 -1.74562e-06 5.09655)
(5.00864 -2.75679 -0.263211 5.00864 -2.61708e-06 5.00864)
(5.00888 -2.75736 -0.263261 5.00889 -1.76584e-06 5.00889)
(4.91713 -2.50723 -0.241348 4.91713 -3.01868e-06 4.91713)
(4.91735 -2.50768 -0.24139 4.91736 -1.836e-06 4.91736)
(4.8237 -2.25278 -0.218622 4.8237 -2.78704e-06 4.8237)
(4.8239 -2.25315 -0.218657 4.82391 -1.76736e-06 4.8239)
(4.7302 -1.9998 -0.195615 4.7302 -3.16943e-06 4.7302)
(4.73037 -2.00011 -0.195644 4.73038 -1.9045e-06 4.73037)
(4.63832 -1.75288 -0.172701 4.63832 -2.83643e-06 4.63832)
(4.63847 -1.75313 -0.172726 4.63848 -1.65227e-06 4.63847)
(4.5496 -1.51445 -0.150063 4.5496 -3.23678e-06 4.5496)
(4.54972 -1.51466 -0.150084 4.54973 -1.95935e-06 4.54973)
(4.46534 -1.28538 -0.127764 4.46534 -2.81753e-06 4.46534)
(4.46545 -1.28556 -0.127783 4.46546 -1.4911e-06 4.46545)
(4.38667 -1.06518 -0.105702 4.38667 -3.22371e-06 4.38667)
(4.38676 -1.06534 -0.105718 4.38677 -1.95232e-06 4.38676)
(4.31453 -0.852051 -0.0836432 4.31453 -2.6979e-06 4.31453)
(4.31461 -0.852189 -0.0836579 4.31461 -1.2956e-06 4.31461)
(4.24967 -0.643135 -0.0612223 4.24967 -3.1395e-06 4.24967)
(4.24973 -0.643261 -0.061236 4.24974 -4.61679e-06 4.24973)
(4.19268 -0.43471 -0.0379724 4.19268 -2.52564e-06 4.19268)
(4.19273 -0.434828 -0.0379856 4.19274 -8.38581e-06 4.19273)
(4.14399 -0.222463 -0.0133419 4.14399 -2.99978e-06 4.14399)
(4.14403 -0.222577 -0.0133553 4.14404 -1.11452e-05 4.14403)
(4.10385 -0.000667704 -3.94989e-05 4.10385 -2.38567e-06 4.10385)
(4.10387 -0.000668026 -3.95179e-05 4.10388 -1.00311e-05 4.10388)
(4.07232 0.222384 -0.0133467 4.07232 -2.82951e-06 4.07232)
(4.07233 0.22215 -0.0133327 4.07235 -1.0352e-05 4.07234)
(4.04925 0.47711 -0.0426562 4.04925 -2.22095e-06 4.04925)
(4.04926 0.476982 -0.0426412 4.04927 -8.97679e-06 4.04926)
(4.03422 0.740476 -0.074825 4.03422 -2.66643e-06 4.03421)
(4.03421 0.740337 -0.0748086 4.03422 -8.9554e-06 4.03421)
(4.02646 1.01968 -0.110022 4.02646 -2.02413e-06 4.02646)
(4.02645 1.01953 -0.110004 4.02646 -7.58479e-06 4.02645)
(4.02486 1.31205 -0.148154 4.02486 -2.56258e-06 4.02486)
(4.02484 1.31188 -0.148134 4.02485 -7.63994e-06 4.02484)
(4.0279 1.61248 -0.188815 4.0279 -1.90612e-06 4.0279)
(4.02787 1.6123 -0.188792 4.02788 -6.54066e-06 4.02787)
(4.03364 1.91334 -0.231246 4.03364 -2.57713e-06 4.03363)
(4.0336 1.91313 -0.23122 4.03362 -7.09547e-06 4.0336)
(4.03976 2.2046 -0.274279 4.03976 -1.85591e-06 4.03976)
(4.03972 2.20436 -0.27425 4.03974 -6.40267e-06 4.03972)
(4.04368 2.47412 -0.316406 4.04368 -4.42547e-06 4.04368)
(4.04364 2.47386 -0.316372 4.04365 -7.75641e-06 4.04364)
(4.04267 2.70826 -0.355742 4.04267 -5.49623e-06 4.04267)
(4.04262 2.70797 -0.355705 4.04263 -7.23946e-06 4.04262)
(4.03406 2.89273 -0.390182 4.03406 -7.71174e-06 4.03406)
(4.03401 2.8924 -0.39014 4.03402 -9.45367e-06 4.03401)
(4.01554 3.01322 -0.417471 4.01554 -7.37743e-06 4.01554)
(4.01549 3.01285 -0.417423 4.01549 -8.72864e-06 4.01549)
(3.98535 3.05663 -0.435288 3.98535 -9.47652e-06 3.98535)
(3.9853 3.05623 -0.435233 3.98531 -1.14609e-05 3.9853)
(3.94261 3.01226 -0.441517 3.94261 -8.83404e-06 3.94261)
(3.94256 3.01183 -0.441456 3.94256 -1.02656e-05 3.94256)
(3.88746 2.87309 -0.43432 3.88746 -1.06865e-05 3.88746)
(3.88742 2.87266 -0.434255 3.88743 -1.28075e-05 3.88742)
(3.82121 2.637 -0.412482 3.82121 -9.82366e-06 3.82121)
(3.82118 2.63662 -0.412418 3.82118 -1.09042e-05 3.82118)
(3.74621 2.30757 -0.375462 3.74621 -1.06552e-05 3.74621)
(3.74618 2.30736 -0.375411 3.7462 -1.09056e-05 3.74618)
(3.66568 1.89564 -0.323664 3.66568 -1.11527e-05 3.66568)
(3.66568 1.89577 -0.32365 3.66568 -1.00509e-05 3.66568)
(3.58325 1.41843 -0.258741 3.58325 -9.12756e-06 3.58325)
(3.58326 1.41909 -0.258797 3.58327 -7.08105e-06 3.58326)
(3.50241 0.898885 -0.172634 3.50242 -1.15967e-05 3.50241)
(3.50243 0.90012 -0.172629 3.50243 -7.94938e-06 3.50243)
(3.42596 0.194229 -0.100681 3.42596 -6.63116e-06 3.42596)
(3.42597 0.197695 -0.100922 3.42598 -1.82331e-06 3.42597)
(3.35572 -0.00194402 -0.0664843 3.35572 -1.18933e-05 3.35572)
(3.35573 -2.41034e-05 -0.0662443 3.35573 -5.33309e-06 3.35573)
(3.29176 -0.62877 -0.140916 3.29176 -4.13895e-06 3.29176)
(3.29176 -0.627588 -0.140768 3.29178 3.88771e-06 3.29176)
(3.23297 -1.03139 -0.203434 3.23298 -1.31066e-05 3.23297)
(3.23299 -1.03081 -0.203388 3.23299 -3.25547e-06 3.23299)
(3.17751 -1.34179 -0.250527 3.17751 -2.73838e-06 3.17751)
(3.17752 -1.34173 -0.250555 3.17754 8.98022e-06 3.17752)
(3.12327 -1.54645 -0.279895 3.12328 -1.61465e-05 3.12327)
(3.1233 -1.54672 -0.279961 3.1233 -2.45434e-06 3.1233)
(3.06849 -1.64023 -0.2906 3.06849 -2.5443e-06 3.06849)
(3.06851 -1.64064 -0.290678 3.06853 1.34237e-05 3.06851)
(3.01214 -1.62689 -0.283283 3.01215 -2.08981e-05 3.01214)
(3.01218 -1.62733 -0.283359 3.01218 -2.73716e-06 3.01218)
(2.95413 -1.51849 -0.259971 2.95413 -3.18861e-06 2.95413)
(2.95415 -1.5189 -0.260041 2.95417 1.76497e-05 2.95415)
(2.89516 -1.33309 -0.223682 2.89517 -2.68787e-05 2.89516)
(2.8952 -1.33345 -0.223743 2.8952 -3.47654e-06 2.8952)
(2.83653 -1.09296 -0.178366 2.83653 -3.92026e-06 2.83653)
(2.83655 -1.09327 -0.178419 2.83657 2.26046e-05 2.83655)
(2.7797 -0.822252 -0.128204 2.77971 -3.36814e-05 2.7797)
(2.77973 -0.822514 -0.128249 2.77973 -4.08212e-06 2.77973)
(2.72604 -0.544105 -0.077286 2.72604 -4.21007e-06 2.72604)
(2.72605 -0.544325 -0.077324 2.72607 2.89901e-05 2.72605)
(2.6765 -0.279539 -0.029465 2.67652 -4.10252e-05 2.6765)
(2.67652 -0.279719 -0.0294961 2.67652 -4.13888e-06 2.67652)
(2.63166 -7.27369e-15 -3.60226e-21 2.63166 -4.11431e-06 2.63166)
(2.63167 -5.00104e-05 -4.9034e-06 2.63169 3.70365e-05 2.63167)
(2.59164 0.121451 -0.0120811 2.59165 -4.95468e-05 2.59164)
(2.59165 0.121205 -0.0120567 2.59165 -3.9459e-06 2.59165)
(2.55632 0.274827 -0.0450211 2.55632 -3.85096e-06 2.55632)
(2.55632 0.27476 -0.0450038 2.55634 4.68549e-05 2.55632)
(2.52542 0.350647 -0.0672202 2.52543 -5.97835e-05 2.52542)
(2.52543 0.350618 -0.0672104 2.52543 -3.74781e-06 2.52543)
(2.49874 0.369693 -0.0778724 2.49874 -3.72709e-06 2.49873)
(2.49873 0.369699 -0.07787 2.49876 5.8439e-05 2.49873)
(2.4761 0.336809 -0.077214 2.47612 -7.2317e-05 2.47611)
(2.47611 0.336847 -0.077219 2.47611 -3.80668e-06 2.47612)
(2.45752 0.259373 -0.0660252 2.45752 -3.99737e-06 2.45752)
(2.45751 0.259439 -0.0660369 2.45754 7.18854e-05 2.45751)
(2.44298 0.147609 -0.045733 2.443 -8.76702e-05 2.44298)
(2.44299 0.147694 -0.04575 2.44299 -4.13236e-06 2.44299)
(2.43254 0.000165219 -0.0185331 2.43254 -4.38296e-06 2.43254)
(2.43253 0.000211074 -0.0185533 2.43256 8.80095e-05 2.43253)
(2.42612 -0.118813 -0.0462949 2.42614 -0.000106208 2.42612)