/*--------------------------------*- C++ -*----------------------------------*\
| =========                 |                                                 |
| \\      /  F ield         | OpenFOAM: The Open Source CFD Toolbox           |
|  \\    /   O peration     | Version:  2012                                  |
|   \\  /    A nd           | Website:  www.openfoam.com                      |
|    \\/     M anipulation  |                                                 |
\*---------------------------------------------------------------------------*/
FoamFile
{
    version     2.0;
    format      ascii;
    class       volSymmTensorField;
    location    "18000";
    object      turbulenceProperties:R;
}
// * * * * * * * * * * * * * * * * * * * * * * * * * * * * * * * * * * * * * //

dimensions      [0 2 -2 0 0 0 0];


internalField   nonuniform List<symmTensor> 
2560
(
(0.000243975 -1.32808e-07 -1.92482e-10 0.000243975 -6.70139e-14 0.000243975)
(0.000243975 -1.32808e-07 -1.92482e-10 0.000243975 -8.43861e-14 0.000243975)
(0.00457063 -1.4266e-05 -6.23829e-08 0.00457063 -1.90223e-12 0.00457063)
(0.00457063 -1.4266e-05 -6.23829e-08 0.00457063 -5.17206e-13 0.00457063)
(0.0326644 -0.000300385 -1.80082e-06 0.0326644 -7.75123e-13 0.0326644)
(0.0326644 -0.000300385 -1.80082e-06 0.0326644 -7.03623e-14 0.0326644)
(0.119281 -0.00233417 -1.41957e-05 0.119281 9.27129e-11 0.119281)
(0.119281 -0.00233417 -1.41957e-05 0.119281 7.01976e-11 0.119281)
(0.30152 -0.0105177 -6.48886e-05 0.30152 1.0081e-09 0.30152)
(0.30152 -0.0105177 -6.48886e-05 0.30152 1.31488e-09 0.30152)
(0.590795 -0.0327116 -0.000204725 0.590795 3.98712e-09 0.590795)
(0.590795 -0.0327116 -0.000204725 0.590795 5.15781e-09 0.590795)
(0.951583 -0.0759385 -0.000482133 0.951583 7.61249e-09 0.951583)
(0.951583 -0.0759385 -0.000482133 0.951583 9.88068e-09 0.951583)
(1.33263 -0.141038 -0.000908449 1.33263 8.80787e-09 1.33263)
(1.33263 -0.141038 -0.000908449 1.33263 1.16196e-08 1.33263)
(1.70402 -0.224171 -0.001465 1.70402 7.23722e-09 1.70402)
(1.70402 -0.224171 -0.001465 1.70402 9.98306e-09 1.70402)
(2.05645 -0.320842 -0.00212751 2.05645 3.89231e-09 2.05645)
(2.05645 -0.320842 -0.00212751 2.05645 6.34472e-09 2.05645)
(2.38961 -0.427544 -0.00287685 2.38961 -6.34132e-10 2.38961)
(2.38961 -0.427544 -0.00287685 2.38961 5.36636e-09 2.38961)
(2.70579 -0.541849 -0.00369996 2.70579 -6.15574e-09 2.70579)
(2.70579 -0.541849 -0.00369996 2.70579 1.24031e-08 2.70579)
(3.00759 -0.662129 -0.00458847 3.00759 3.86017e-11 3.00759)
(3.00759 -0.662129 -0.00458847 3.00759 1.76048e-08 3.00759)
(3.29732 -0.787314 -0.00553736 3.29732 4.81083e-10 3.29732)
(3.29732 -0.787314 -0.00553736 3.29732 1.54156e-08 3.29732)
(3.57687 -0.916722 -0.00654395 3.57687 1.9338e-08 3.57687)
(3.57687 -0.916722 -0.00654395 3.57687 1.44785e-09 3.57687)
(3.84774 -1.04994 -0.00760727 3.84774 1.49755e-08 3.84774)
(3.84774 -1.04994 -0.00760727 3.84774 -1.49984e-08 3.84774)
(4.11112 -1.18675 -0.00872761 4.11112 -3.57843e-09 4.11112)
(4.11112 -1.18675 -0.00872761 4.11112 -1.85374e-08 4.11112)
(4.36793 -1.32706 -0.00990616 4.36793 -2.23306e-08 4.36793)
(4.36793 -1.32706 -0.00990616 4.36793 -2.23869e-08 4.36793)
(4.61889 -1.47087 -0.0111447 4.61889 -2.65251e-08 4.61889)
(4.61889 -1.47087 -0.0111447 4.61889 -2.65881e-08 4.61889)
(4.86453 -1.61824 -0.0124456 4.86453 -3.1191e-08 4.86453)
(4.86453 -1.61824 -0.0124456 4.86453 -3.12608e-08 4.86453)
(5.10524 -1.76924 -0.0138113 5.10524 -3.63733e-08 5.10524)
(5.10524 -1.76924 -0.0138113 5.10524 -3.645e-08 5.10524)
(5.3413 -1.92395 -0.0152442 5.3413 -4.19199e-08 5.3413)
(5.3413 -1.92395 -0.0152442 5.3413 -4.20036e-08 5.3413)
(5.57286 -2.08242 -0.0167465 5.57286 -4.78885e-08 5.57286)
(5.57286 -2.08242 -0.0167465 5.57286 -4.79794e-08 5.57286)
(5.79999 -2.24465 -0.0183205 5.79999 -5.45824e-08 5.79999)
(5.79999 -2.24465 -0.0183205 5.79999 -5.46804e-08 5.79999)
(6.02265 -2.41059 -0.0199673 6.02265 -6.17658e-08 6.02265)
(6.02265 -2.41059 -0.0199673 6.02265 -6.18711e-08 6.02265)
(6.24072 -2.5801 -0.0216877 6.24072 -6.93427e-08 6.24072)
(6.24072 -2.5801 -0.0216877 6.24072 -6.94555e-08 6.24072)
(6.45401 -2.75292 -0.0234817 6.45401 -7.74807e-08 6.45401)
(6.45401 -2.75292 -0.0234817 6.45401 -7.76009e-08 6.45401)
(6.66225 -2.92874 -0.025348 6.66225 -8.6566e-08 6.66225)
(6.66225 -2.92874 -0.025348 6.66225 -8.66935e-08 6.66225)
(6.86508 -3.10709 -0.0272843 6.86508 -9.61038e-08 6.86508)
(6.86508 -3.10709 -0.0272843 6.86508 -9.62389e-08 6.86508)
(7.0621 -3.28736 -0.0292866 7.0621 -1.06195e-07 7.0621)
(7.0621 -3.28736 -0.0292866 7.0621 -1.06338e-07 7.0621)
(7.25283 -3.46883 -0.0313498 7.25283 -1.16909e-07 7.25283)
(7.25283 -3.46883 -0.0313498 7.25283 -1.1706e-07 7.25283)
(7.43672 -3.65068 -0.0334674 7.43672 -1.2881e-07 7.43672)
(7.43672 -3.65068 -0.0334674 7.43672 -1.28968e-07 7.43672)
(7.61318 -3.83189 -0.0356305 7.61318 -1.41152e-07 7.61318)
(7.61318 -3.83189 -0.0356305 7.61318 -1.41317e-07 7.61318)
(7.78156 -4.01133 -0.0378288 7.78156 -1.54156e-07 7.78156)
(7.78156 -4.01133 -0.0378288 7.78156 -1.5433e-07 7.78156)
(7.94116 -4.18777 -0.0400505 7.94116 -1.68095e-07 7.94116)
(7.94116 -4.18777 -0.0400505 7.94116 -1.68276e-07 7.94116)
(8.09125 -4.35987 -0.042282 8.09125 -1.83295e-07 8.09125)
(8.09125 -4.35987 -0.042282 8.09125 -1.83483e-07 8.09125)
(8.23108 -4.52614 -0.0445072 8.23108 -1.99039e-07 8.23108)
(8.23108 -4.52614 -0.0445072 8.23108 -1.99235e-07 8.23108)
(8.35988 -4.68502 -0.0467088 8.35988 -2.15545e-07 8.35988)
(8.35988 -4.68502 -0.0467088 8.35988 -2.15749e-07 8.35988)
(8.47685 -4.83489 -0.0488682 8.47685 -2.33206e-07 8.47685)
(8.47685 -4.83489 -0.0488682 8.47685 -2.33418e-07 8.47685)
(8.58124 -4.97411 -0.0509652 8.58124 -2.52336e-07 8.58124)
(8.58124 -4.97411 -0.0509652 8.58124 -2.52555e-07 8.58124)
(8.67229 -5.10097 -0.0529777 8.67229 -2.7233e-07 8.67229)
(8.67229 -5.10097 -0.0529777 8.67229 -2.72556e-07 8.67229)
(8.74928 -5.21373 -0.0548825 8.74928 -2.92984e-07 8.74928)
(8.74928 -5.21374 -0.0548825 8.74928 -2.93218e-07 8.74928)
(8.81156 -5.31072 -0.0566562 8.81156 -3.15108e-07 8.81156)
(8.81156 -5.31072 -0.0566562 8.81156 -3.15349e-07 8.81156)
(8.85853 -5.39031 -0.0582748 8.85853 -3.38937e-07 8.85853)
(8.85853 -5.39031 -0.0582748 8.85853 -3.39185e-07 8.85853)
(8.8897 -5.45095 -0.0597132 8.8897 -3.63425e-07 8.8897)
(8.8897 -5.45095 -0.0597132 8.8897 -3.63602e-07 8.8897)
(8.90467 -5.49116 -0.0609468 8.90467 -3.89527e-07 8.90467)
(8.90467 -5.49116 -0.0609468 8.90467 -3.89789e-07 8.90467)
(8.90316 -5.50961 -0.0619515 8.90316 -4.16428e-07 8.90316)
(8.90316 -5.50961 -0.0619515 8.90316 -4.16445e-07 8.90316)
(8.88504 -5.50515 -0.0627041 8.88504 -4.46518e-07 8.88504)
(8.88504 -5.50515 -0.0627041 8.88504 -4.46794e-07 8.88504)
(8.85034 -5.47676 -0.0631815 8.85034 -4.75902e-07 8.85034)
(8.85034 -5.47676 -0.0631815 8.85034 -4.76185e-07 8.85034)
(8.79925 -5.42366 -0.0633635 8.79925 -5.05099e-07 8.79925)
(8.79925 -5.42366 -0.0633635 8.79925 -5.05001e-07 8.79925)
(8.73214 -5.34546 -0.063235 8.73214 -5.40067e-07 8.73214)
(8.73214 -5.34546 -0.063235 8.73214 -5.40364e-07 8.73214)
(8.64958 -5.24189 -0.0627772 8.64958 -5.77267e-07 8.64958)
(8.64958 -5.24189 -0.0627772 8.64958 -5.76392e-07 8.64958)
(8.55235 -5.11279 -0.0619762 8.55235 -6.07907e-07 8.55235)
(8.55235 -5.11279 -0.0619762 8.55235 -6.06183e-07 8.55235)
(8.44141 -4.95861 -0.0608276 8.44141 -6.4983e-07 8.44141)
(8.44141 -4.95861 -0.0608276 8.44141 -6.47845e-07 8.44141)
(8.31792 -4.78002 -0.0593222 8.31792 -6.83957e-07 8.31792)
(8.31792 -4.78002 -0.0593222 8.31792 -6.82537e-07 8.31792)
(8.18326 -4.57777 -0.0574591 8.18326 -7.22498e-07 8.18326)
(8.18326 -4.57777 -0.0574591 8.18326 -7.22827e-07 8.18326)
(8.03896 -4.35316 -0.0552429 8.03896 -7.63958e-07 8.03896)
(8.03896 -4.35316 -0.0552429 8.03896 -7.63843e-07 8.03896)
(7.88672 -4.10769 -0.0526794 7.88672 -8.00059e-07 7.88672)
(7.88672 -4.10769 -0.0526794 7.88672 -7.98164e-07 7.88672)
(7.72839 -3.84315 -0.0497825 7.72839 -8.42805e-07 7.72839)
(7.72839 -3.84315 -0.0497825 7.72839 -8.41997e-07 7.72839)
(7.56593 -3.56153 -0.0465661 7.56593 -8.81874e-07 7.56593)
(7.56593 -3.56153 -0.0465661 7.56593 -8.8064e-07 7.56593)
(7.40136 -3.26487 -0.0430487 7.40136 -9.23585e-07 7.40136)
(7.40136 -3.26487 -0.0430487 7.40136 -9.23537e-07 7.40136)
(7.23673 -2.95543 -0.0392519 7.23673 -9.56141e-07 7.23673)
(7.23673 -2.95543 -0.0392519 7.23673 -9.56442e-07 7.23673)
(7.07411 -2.63561 -0.0352034 7.07411 -9.92747e-07 7.07411)
(7.07411 -2.63561 -0.0352034 7.0741 -9.91437e-07 7.07411)
(6.91547 -2.30795 -0.0309313 6.91547 -1.0358e-06 6.91547)
(6.91547 -2.30795 -0.0309313 6.91547 -1.0344e-06 6.91547)
(6.76272 -1.9747 -0.0264595 6.76272 -1.06203e-06 6.76272)
(6.76272 -1.9747 -0.0264595 6.76272 -1.05988e-06 6.76272)
(6.61758 -1.63819 -0.0218227 6.61758 -1.08901e-06 6.61758)
(6.61758 -1.63819 -0.0218227 6.61758 -1.08941e-06 6.61758)
(6.48156 -1.30089 -0.017052 6.48156 -1.12002e-06 6.48156)
(6.48156 -1.30089 -0.017052 6.48156 -1.11912e-06 6.48156)
(6.35595 -0.964945 -0.0121767 6.35595 -1.14296e-06 6.35595)
(6.35595 -0.964945 -0.0121767 6.35595 -1.14067e-06 6.35595)
(6.24174 -0.6324 -0.00722867 6.24174 -1.16846e-06 6.24174)
(6.24174 -0.6324 -0.00722867 6.24174 -1.16548e-06 6.24174)
(6.13961 -0.285625 -0.002239 6.13961 -1.17785e-06 6.13961)
(6.13961 -0.285625 -0.002239 6.13961 -1.17545e-06 6.13961)
(6.04994 0.000148345 -1.17978e-06 6.04994 -1.20085e-06 6.04994)
(6.04994 0.000148329 -1.17965e-06 6.04994 -1.19771e-06 6.04994)
(5.97272 0.32491 -0.00278869 5.97272 -1.20817e-06 5.97272)
(5.97272 0.32491 -0.00278869 5.97272 -1.20563e-06 5.97272)
(5.90767 0.624419 -0.00782813 5.90767 -1.2256e-06 5.90767)
(5.90767 0.624419 -0.00782813 5.90767 -1.22229e-06 5.90767)
(5.85421 0.911142 -0.012819 5.85421 -1.23394e-06 5.85421)
(5.85421 0.911142 -0.012819 5.85421 -1.23127e-06 5.85421)
(5.81148 1.18354 -0.017727 5.81148 -1.25169e-06 5.81148)
(5.81148 1.18354 -0.017727 5.81148 -1.24827e-06 5.81148)
(5.77844 1.4402 -0.02252 5.77844 -1.25746e-06 5.77844)
(5.77844 1.4402 -0.02252 5.77844 -1.25462e-06 5.77844)
(5.75386 1.67966 -0.0271642 5.75386 -1.27434e-06 5.75386)
(5.75386 1.67966 -0.0271642 5.75386 -1.27487e-06 5.75386)
(5.73643 1.90061 -0.031622 5.73643 -1.28951e-06 5.73643)
(5.73643 1.90061 -0.031622 5.73643 -1.2886e-06 5.73643)
(5.72477 2.10216 -0.0358621 5.72477 -1.31273e-06 5.72477)
(5.72477 2.10216 -0.0358621 5.72477 -1.30959e-06 5.72477)
(5.71749 2.28371 -0.0398591 5.71749 -1.33803e-06 5.71749)
(5.71749 2.28371 -0.0398591 5.71749 -1.33832e-06 5.71749)
(5.71325 2.44485 -0.0435893 5.71325 -1.36022e-06 5.71325)
(5.71325 2.44485 -0.0435893 5.71325 -1.35686e-06 5.71325)
(5.7108 2.58542 -0.0470336 5.7108 -1.40068e-06 5.7108)
(5.7108 2.58542 -0.0470336 5.7108 -1.39641e-06 5.7108)
(5.70897 2.70577 -0.0501765 5.70897 -1.42371e-06 5.70897)
(5.70897 2.70577 -0.0501765 5.70897 -1.42012e-06 5.70897)
(5.70674 2.80652 -0.0530166 5.70674 -1.46278e-06 5.70674)
(5.70674 2.80652 -0.0530166 5.70674 -1.46121e-06 5.70674)
(5.7032 2.88841 -0.0555499 5.7032 -1.50219e-06 5.7032)
(5.7032 2.88841 -0.0555499 5.7032 -1.49835e-06 5.7032)
(5.69761 2.9526 -0.0577804 5.69761 -1.54463e-06 5.69761)
(5.69761 2.9526 -0.0577804 5.69761 -1.54488e-06 5.69761)
(5.68934 3.00048 -0.0597218 5.68934 -1.5842e-06 5.68934)
(5.68934 3.00048 -0.0597218 5.68934 -1.58011e-06 5.68934)
(5.6779 3.03343 -0.0613886 5.6779 -1.62973e-06 5.6779)
(5.6779 3.03343 -0.0613886 5.6779 -1.62926e-06 5.6779)
(5.66293 3.05285 -0.0627969 5.66293 -1.66657e-06 5.66293)
(5.66293 3.05285 -0.0627969 5.66293 -1.66221e-06 5.66293)
(5.64416 3.06011 -0.0639649 5.64416 -1.7174e-06 5.64416)
(5.64416 3.06011 -0.0639649 5.64416 -1.71757e-06 5.64416)
(5.62143 3.05663 -0.0649095 5.62143 -1.76312e-06 5.62143)
(5.62143 3.05663 -0.0649095 5.62143 -1.75847e-06 5.62143)
(5.59466 3.04387 -0.0656537 5.59466 -1.80458e-06 5.59466)
(5.59466 3.04387 -0.0656537 5.59466 -1.80545e-06 5.59466)
(5.56382 3.02312 -0.0662193 5.56382 -1.84452e-06 5.56382)
(5.56382 3.02312 -0.0662193 5.56382 -1.84036e-06 5.56382)
(5.52896 2.99543 -0.066624 5.52896 -1.89163e-06 5.52896)
(5.52896 2.99543 -0.066624 5.52896 -1.88654e-06 5.52896)
(5.49015 2.96179 -0.0668818 5.49015 -1.94381e-06 5.49015)
(5.49015 2.96179 -0.0668818 5.49015 -1.94476e-06 5.49015)
(5.44753 2.92325 -0.0670106 5.44753 -1.97154e-06 5.44753)
(5.44753 2.92325 -0.0670106 5.44753 -1.96612e-06 5.44753)
(5.40123 2.88058 -0.0670292 5.40123 -2.01396e-06 5.40123)
(5.40123 2.88058 -0.0670292 5.40123 -2.01497e-06 5.40123)
(5.35143 2.83434 -0.0669434 5.35143 -2.04697e-06 5.35143)
(5.35143 2.83434 -0.0669434 5.35143 -2.04802e-06 5.35143)
(5.2983 2.78522 -0.0667656 5.2983 -2.08744e-06 5.2983)
(5.2983 2.78522 -0.0667656 5.2983 -2.08153e-06 5.2983)
(5.24204 2.73373 -0.0665078 5.24204 -2.13128e-06 5.24204)
(5.24204 2.73373 -0.0665078 5.24204 -2.13239e-06 5.24204)
(5.18285 2.68036 -0.0661768 5.18285 -2.15284e-06 5.18285)
(5.18285 2.68036 -0.0661768 5.18285 -2.14656e-06 5.18285)
(5.12093 2.6255 -0.065783 5.12093 -2.17258e-06 5.12093)
(5.12093 2.6255 -0.065783 5.12093 -2.17377e-06 5.12093)
(5.05649 2.56938 -0.06533 5.05649 -2.21001e-06 5.05649)
(5.05649 2.56938 -0.06533 5.05649 -2.21122e-06 5.05649)
(4.98973 2.51234 -0.0648226 4.98973 -2.23511e-06 4.98973)
(4.98973 2.51234 -0.0648226 4.98973 -2.22825e-06 4.98973)
(4.92086 2.45464 -0.0642682 4.92086 -2.25303e-06 4.92086)
(4.92086 2.45464 -0.0642682 4.92086 -2.25159e-06 4.92086)
(4.85006 2.39654 -0.0636705 4.85006 -2.27424e-06 4.85006)
(4.85006 2.39654 -0.0636705 4.85006 -2.27557e-06 4.85006)
(4.77753 2.33825 -0.0630354 4.77753 -2.29202e-06 4.77753)
(4.77753 2.33825 -0.0630354 4.77753 -2.28452e-06 4.77753)
(4.70347 2.27993 -0.0623672 4.70347 -2.30791e-06 4.70347)
(4.70347 2.27993 -0.0623672 4.70347 -2.30932e-06 4.70347)
(4.62805 2.22175 -0.0616668 4.62805 -2.31087e-06 4.62805)
(4.62805 2.22175 -0.0616668 4.62805 -2.30952e-06 4.62805)
(4.55145 2.16389 -0.0609418 4.55145 -2.32147e-06 4.55145)
(4.55145 2.16389 -0.0609418 4.55145 -2.3133e-06 4.55145)
(4.47383 2.10641 -0.0601936 4.47383 -2.33779e-06 4.47383)
(4.47383 2.10641 -0.0601936 4.47383 -2.33933e-06 4.47383)
(4.39537 2.04944 -0.0594224 4.39537 -2.33363e-06 4.39537)
(4.39537 2.04944 -0.0594224 4.39537 -2.32496e-06 4.39537)
(4.31621 1.99316 -0.0586358 4.31621 -2.32768e-06 4.31621)
(4.31621 1.99316 -0.0586358 4.31621 -2.32931e-06 4.31621)
(4.2365 1.93761 -0.0578355 4.2365 -2.32422e-06 4.2365)
(4.2365 1.93761 -0.0578355 4.2365 -2.32592e-06 4.2365)
(4.15638 1.88286 -0.0570224 4.15638 -2.32107e-06 4.15638)
(4.15638 1.88286 -0.0570224 4.15638 -2.31152e-06 4.15638)
(4.07597 1.82898 -0.0561994 4.07598 -2.32295e-06 4.07597)
(4.07597 1.82898 -0.0561994 4.07597 -2.32303e-06 4.07597)
(3.99542 1.77606 -0.0553694 3.99542 -2.30389e-06 3.99542)
(3.99542 1.77606 -0.0553694 3.99542 -2.29371e-06 3.99542)
(3.91482 1.72414 -0.0545349 3.91482 -2.29546e-06 3.91482)
(3.91482 1.72414 -0.0545349 3.91482 -2.29133e-06 3.91482)
(3.83429 1.67327 -0.0536968 3.83429 -2.26036e-06 3.83429)
(3.83429 1.67327 -0.0536968 3.83429 -2.24951e-06 3.83429)
(3.75393 1.62346 -0.0528581 3.75393 -2.26391e-06 3.75393)
(3.75393 1.62346 -0.0528581 3.75393 -2.25523e-06 3.75393)
(3.67384 1.5747 -0.0520175 3.67384 -2.22161e-06 3.67384)
(3.67384 1.5747 -0.0520175 3.67384 -2.21002e-06 3.67384)
(3.59409 1.52707 -0.0511781 3.59409 -2.20421e-06 3.59409)
(3.59409 1.52707 -0.0511781 3.59409 -2.205e-06 3.59409)
(3.51477 1.48057 -0.0503417 3.51477 -2.16605e-06 3.51477)
(3.51477 1.48057 -0.0503417 3.51477 -2.15366e-06 3.51477)
(3.43595 1.43518 -0.0495091 3.43595 -2.12089e-06 3.43595)
(3.43595 1.43518 -0.0495091 3.43595 -2.12321e-06 3.43595)
(3.3577 1.39087 -0.0486792 3.3577 -2.10108e-06 3.3577)
(3.3577 1.39087 -0.0486792 3.3577 -2.10344e-06 3.3577)
(3.28008 1.34765 -0.047853 3.28008 -2.05601e-06 3.28008)
(3.28008 1.34765 -0.047853 3.28008 -2.04308e-06 3.28008)
(3.20314 1.30545 -0.0470311 3.20314 -2.02014e-06 3.20314)
(3.20314 1.30545 -0.0470311 3.20314 -2.02266e-06 3.20314)
(3.12694 1.26425 -0.0462108 3.12694 -1.97278e-06 3.12694)
(3.12694 1.26425 -0.0462108 3.12694 -1.97541e-06 3.12694)
(3.05151 1.22403 -0.0453938 3.05151 -1.92504e-06 3.05151)
(3.05151 1.22403 -0.0453938 3.05151 -1.91534e-06 3.05151)
(2.97689 1.18472 -0.044579 2.97689 -1.87986e-06 2.97689)
(2.97689 1.18472 -0.044579 2.97689 -1.88268e-06 2.97689)
(2.90313 1.14628 -0.0437634 2.90313 -1.83703e-06 2.90313)
(2.90313 1.14628 -0.0437634 2.90313 -1.83009e-06 2.90313)
(2.83026 1.10869 -0.0429481 2.83026 -1.7732e-06 2.83026)
(2.83026 1.10869 -0.0429481 2.83026 -1.77622e-06 2.83026)
(2.75831 1.07192 -0.0421328 2.75831 -1.71469e-06 2.75831)
(2.75831 1.07192 -0.0421328 2.75831 -1.7044e-06 2.75831)
(2.68729 1.03594 -0.0413161 2.68729 -1.65967e-06 2.68729)
(2.68729 1.03594 -0.0413161 2.68729 -1.6629e-06 2.68729)
(2.61725 1.00074 -0.040498 2.61725 -1.60197e-06 2.61725)
(2.61725 1.00074 -0.040498 2.61725 -1.59364e-06 2.61725)
(2.54821 0.966318 -0.0396788 2.54821 -1.53345e-06 2.54821)
(2.54821 0.966318 -0.0396788 2.54821 -1.53692e-06 2.54821)
(2.48017 0.932692 -0.0388599 2.48017 -1.46674e-06 2.48017)
(2.48017 0.932692 -0.0388599 2.48017 -1.45744e-06 2.48017)
(2.41317 0.899849 -0.0380422 2.41317 -1.39552e-06 2.41317)
(2.41317 0.899849 -0.0380422 2.41317 -1.39927e-06 2.41317)
(2.34721 0.867771 -0.037225 2.34721 -1.32136e-06 2.34721)
(2.34721 0.867771 -0.037225 2.34721 -1.30991e-06 2.34721)
(2.28232 0.836447 -0.0364089 2.28232 -1.25456e-06 2.28232)
(2.28232 0.836447 -0.0364089 2.28232 -1.25861e-06 2.28232)
(2.2185 0.805849 -0.0355936 2.2185 -1.17738e-06 2.2185)
(2.2185 0.805849 -0.0355936 2.2185 -1.16529e-06 2.2185)
(2.15577 0.775957 -0.0347783 2.15577 -1.10821e-06 2.15577)
(2.15577 0.775957 -0.0347783 2.15577 -1.11261e-06 2.15577)
(2.09414 0.746749 -0.0339633 2.09414 -1.0215e-06 2.09414)
(2.09414 0.746749 -0.0339633 2.09414 -1.00779e-06 2.09414)
(2.0336 0.718192 -0.0331477 2.0336 -9.462e-07 2.0336)
(2.0336 0.718192 -0.0331477 2.0336 -9.51003e-07 2.0336)
(1.97418 0.690258 -0.0323304 1.97418 -8.6436e-07 1.97418)
(1.97418 0.690258 -0.0323304 1.97418 -8.49615e-07 1.97418)
(1.91588 0.662928 -0.0315112 1.91588 -7.94302e-07 1.91588)
(1.91588 0.662928 -0.0315112 1.91588 -7.99587e-07 1.91588)
(1.8587 0.636183 -0.0306895 1.8587 -6.9809e-07 1.8587)
(1.8587 0.636183 -0.0306895 1.8587 -6.71235e-07 1.8587)
(1.80265 0.61001 -0.0298652 1.80265 -6.3474e-07 1.80265)
(1.80265 0.61001 -0.0298652 1.80265 -6.55017e-07 1.80265)
(1.74773 0.584402 -0.0290383 1.74773 -5.34117e-07 1.74773)
(1.74773 0.584402 -0.0290383 1.74773 -4.9142e-07 1.74773)
(1.69396 0.559355 -0.0282088 1.69396 -4.49053e-07 1.69396)
(1.69396 0.559355 -0.0282088 1.69396 -4.9967e-07 1.69396)
(1.64132 0.534865 -0.0273774 1.64132 -3.58347e-07 1.64132)
(1.64132 0.534865 -0.0273774 1.64132 -2.95996e-07 1.64132)
(1.58984 0.510926 -0.0265442 1.58984 -2.61589e-07 1.58984)
(1.58984 0.510926 -0.0265442 1.58984 -3.43723e-07 1.58984)
(1.53951 0.487539 -0.0257094 1.53951 -1.78503e-07 1.53951)
(1.53951 0.487539 -0.0257094 1.53951 -8.83651e-08 1.53951)
(1.49034 0.46471 -0.024874 1.49034 3.02646e-23 1.49034)
(1.49034 0.46471 -0.024874 1.49035 -1.38289e-07 1.49034)
(1.44234 0.442454 -0.0240387 1.44234 8.71815e-09 1.44234)
(1.44234 0.442454 -0.0240387 1.44234 1.31823e-07 1.44234)
(1.3955 0.420807 -0.0232057 1.3955 -0 1.3955)
(1.3955 0.420807 -0.0232057 1.3955 -1.24032e-07 1.3955)
(1.34983 0.399819 -0.022378 1.34983 2.05435e-07 1.34983)
(1.34983 0.399819 -0.022378 1.34983 3.97775e-07 1.34983)
(1.30534 0.379566 -0.0215596 1.30534 3.16814e-07 1.30534)
(1.30534 0.379566 -0.0215596 1.30534 7.5788e-08 1.30534)
(1.26202 0.36014 -0.0207566 1.26202 3.98196e-07 1.26202)
(1.26202 0.36014 -0.0207566 1.26202 6.65745e-07 1.26202)
(1.21988 0.341653 -0.0199759 1.21988 5.29599e-07 1.21988)
(1.21988 0.341653 -0.0199759 1.21989 1.99918e-07 1.21988)
(1.17892 0.324217 -0.0192259 1.17892 5.9653e-07 1.17892)
(1.17892 0.324217 -0.0192259 1.17892 9.69594e-07 1.17892)
(1.13913 0.307931 -0.0185149 1.13913 7.42061e-07 1.13913)
(1.13913 0.307931 -0.0185149 1.13913 2.7838e-07 1.13913)
(1.10049 0.29287 -0.0178502 1.10049 8.04009e-07 1.10049)
(1.10049 0.29287 -0.0178502 1.10049 1.33963e-06 1.10049)
(1.06301 0.279074 -0.0172383 1.06301 9.63722e-07 1.06301)
(1.06301 0.279074 -0.0172383 1.06301 3.02869e-07 1.06301)
(1.02665 0.266537 -0.0166828 1.02665 9.96285e-07 1.02665)
(1.02666 0.266537 -0.0166828 1.02665 1.76291e-06 1.02666)
(0.99141 0.255187 -0.0161848 0.99141 1.20413e-06 0.99141)
(0.991408 0.255187 -0.0161848 0.991414 2.61594e-07 0.991408)
(0.957251 0.244923 -0.0157402 0.957251 1.21141e-06 0.957251)
(0.957253 0.244923 -0.0157402 0.957246 2.32571e-06 0.957253)
(0.924148 0.235591 -0.0153456 0.924148 1.34769e-06 0.924148)
(0.924145 0.235591 -0.0153456 0.924153 6.08559e-08 0.924145)
(0.89207 0.226964 -0.01499 0.89207 1.39204e-06 0.89207)
(0.892073 0.226964 -0.01499 0.892063 3.00776e-06 0.892073)
(0.860983 0.218787 -0.014659 0.860983 1.208e-06 0.860983)
(0.86098 0.218787 -0.014659 0.860991 -2.8009e-07 0.86098)
(0.830856 0.210822 -0.0143365 0.830856 1.57654e-06 0.830856)
(0.83086 0.210822 -0.0143365 0.830847 3.90598e-06 0.83086)
(0.801655 0.202861 -0.0140088 0.801655 7.96039e-07 0.801655)
(0.80165 0.202861 -0.0140088 0.801664 -8.93669e-07 0.80165)
(0.77335 0.194738 -0.0136616 0.77335 1.73139e-06 0.77335)
(0.773355 0.194738 -0.0136616 0.77334 5.08041e-06 0.773355)
(0.745914 0.18639 -0.0132859 0.745914 2.91068e-08 0.745914)
(0.745909 0.18639 -0.0132859 0.745926 -1.83384e-06 0.745909)
(0.719324 0.177833 -0.0128804 0.719324 1.82993e-06 0.719324)
(0.719331 0.177833 -0.0128804 0.719311 6.61368e-06 0.719331)
(0.693559 0.169123 -0.0124466 0.693559 8.84046e-22 0.693559)
(0.693552 0.169123 -0.0124466 0.693573 -3.28019e-06 0.693552)
(0.668601 0.160355 -0.0119893 0.668601 1.88158e-06 0.668601)
(0.668609 0.160355 -0.0119893 0.668585 8.72162e-06 0.668609)
(0.644435 0.151668 -0.0115157 0.644435 1.31337e-21 0.644435)
(0.644427 0.151668 -0.0115157 0.644453 -5.43421e-06 0.644427)
(0.621049 0.143162 -0.0110384 0.621049 1.84621e-06 0.621049)
(0.621058 0.143162 -0.0110384 0.621029 1.16268e-05 0.621058)
(0.598428 0.134923 -0.0105598 0.598428 -2.91327e-23 0.598428)
(0.598418 0.134923 -0.0105598 0.598449 -8.56958e-06 0.598418)
(0.576562 0.127099 -0.0100909 0.576562 1.71021e-06 0.576562)
(0.576574 0.127099 -0.0100909 0.576539 1.57216e-05 0.576574)
(0.555438 0.119793 -0.00964494 0.555438 -2.57513e-21 0.555438)
(0.555426 0.119793 -0.00964495 0.555462 -1.31768e-05 0.555426)
(0.535043 0.113081 -0.00922674 0.535043 1.43718e-06 0.535043)
(0.535056 0.113081 -0.00922673 0.535018 2.15761e-05 0.535056)
(0.515363 0.107017 -0.00884666 0.515363 -0 0.515363)
(0.515351 0.107017 -0.00884669 0.515389 -1.98747e-05 0.515351)
(0.496383 0.101539 -0.00850636 0.496383 2.59241e-06 0.496383)
(0.496395 0.101539 -0.00850634 0.496359 2.99264e-05 0.496395)
(0.478086 0.0965685 -0.00819795 0.478086 6.72724e-22 0.478086)
(0.478074 0.0965685 -0.00819795 0.478108 -2.84692e-05 0.478075)
(0.460454 0.0920244 -0.00791995 0.460454 4.29407e-06 0.460454)
(0.460463 0.0920245 -0.00791995 0.460435 3.81365e-05 0.460463)
(0.443469 0.087799 -0.00766312 0.443469 1.16994e-22 0.443469)
(0.443462 0.0877991 -0.00766313 0.443484 -3.90543e-05 0.443462)
(0.427115 0.0837611 -0.00742092 0.427115 4.40438e-06 0.427115)
(0.427119 0.0837612 -0.00742093 0.427108 3.97069e-05 0.427119)
(0.411374 0.0796785 -0.00717894 0.411374 -3.71569e-06 0.411374)
(0.411373 0.0796785 -0.00717895 0.411377 -4.13315e-05 0.411373)
(0.39623 0.0754381 -0.00691148 0.39623 -4.10364e-22 0.39623)
(0.396228 0.0754382 -0.00691148 0.396235 4.00828e-05 0.396228)
(0.381671 0.071093 -0.00662339 0.381671 -4.95337e-06 0.381671)
(0.381676 0.071093 -0.00662339 0.381662 -4.04478e-05 0.381676)
(0.367685 0.0666676 -0.00631779 0.367685 -1.41012e-21 0.367685)
(0.367678 0.0666675 -0.00631779 0.367699 3.19616e-05 0.367678)
(0.354262 0.0622671 -0.0059948 0.354262 -3.93839e-06 0.354262)
(0.354271 0.0622672 -0.0059948 0.354245 -3.50344e-05 0.354271)
(0.341394 0.0579562 -0.00567301 0.341394 -4.02856e-22 0.341394)
(0.341384 0.0579562 -0.00567302 0.341414 2.33621e-05 0.341384)
(0.329074 0.0537166 -0.00534571 0.329074 -2.61159e-06 0.329074)
(0.329085 0.0537166 -0.00534568 0.329052 -2.71775e-05 0.329084)
(0.317294 0.0496598 -0.00501637 0.317294 -7.99031e-22 0.317294)
(0.317283 0.0496598 -0.00501638 0.317317 1.62896e-05 0.317283)
(0.30605 0.0458669 -0.00470352 0.30605 -3.06213e-06 0.30605)
(0.306061 0.0458669 -0.0047035 0.306028 -2.12928e-05 0.306061)
(0.295335 0.0424175 -0.00440571 0.295335 -6.96055e-22 0.295335)
(0.295325 0.0424175 -0.00440573 0.295356 1.09657e-05 0.295325)
(0.285144 0.0395607 -0.00414234 0.285144 -3.40545e-06 0.285144)
(0.285154 0.0395607 -0.00414233 0.285124 -1.69246e-05 0.285154)
(0.275469 0.0374628 -0.00394763 0.275469 -7.88322e-22 0.275469)
(0.27546 0.0374628 -0.00394764 0.275488 6.99326e-06 0.27546)
(0.266304 0.0361768 -0.00382662 0.266304 -3.71472e-06 0.266304)
(0.266312 0.0361768 -0.00382661 0.266287 -1.37563e-05 0.266312)
(0.257637 0.0357983 -0.00379209 0.257637 -4.05547e-07 0.257637)
(0.257629 0.0357983 -0.0037921 0.257653 4.01522e-06 0.25763)
(0.24946 0.0363299 -0.00385897 0.24946 -3.97497e-06 0.24946)
(0.249467 0.0363299 -0.00385896 0.249445 -1.14377e-05 0.249467)
(0.241757 0.0376666 -0.00402125 0.241757 -2.99078e-06 0.241757)
(0.24175 0.0376666 -0.00402126 0.24177 1.7507e-06 0.24175)
(0.234513 0.0396444 -0.00427049 0.234513 -4.18111e-06 0.234513)
(0.234518 0.0396444 -0.00427048 0.234501 -9.74157e-06 0.234518)
(0.22771 0.0420002 -0.0045864 0.22771 -4.63492e-06 0.227709)
(0.227704 0.0420002 -0.0045864 0.22772 8.75749e-08 0.227704)
(0.221327 0.0443652 -0.00493606 0.221327 -4.33101e-06 0.221327)
(0.221332 0.0443652 -0.00493605 0.221318 -8.4855e-06 0.221331)
(0.215344 0.046457 -0.00527153 0.215344 -4.64957e-06 0.215344)
(0.215339 0.046457 -0.00527154 0.215352 -1.54386e-06 0.215339)
(0.209739 0.0481868 -0.0055755 0.209739 -4.44776e-06 0.209739)
(0.209743 0.0481868 -0.0055755 0.209732 -7.54501e-06 0.209743)
(0.204494 0.0496206 -0.00584189 0.204494 -4.69596e-06 0.204494)
(0.20449 0.0496206 -0.0058419 0.204501 -2.78422e-06 0.20449)
(0.19959 0.0509563 -0.00608936 0.19959 -4.54759e-06 0.19959)
(0.199592 0.0509563 -0.00608935 0.199584 -6.85725e-06 0.199592)
(0.195008 0.0523688 -0.00634473 0.195008 -4.73268e-06 0.195008)
(0.195006 0.0523688 -0.00634473 0.195014 -3.58637e-06 0.195006)
(0.190732 0.0539767 -0.00662358 0.190732 -4.61646e-06 0.190732)
(0.190734 0.0539767 -0.00662358 0.190727 -6.35017e-06 0.190734)
(0.186739 0.0558495 -0.00694115 0.186739 -4.74013e-06 0.186739)
(0.186737 0.0558495 -0.00694116 0.186743 -4.08173e-06 0.186737)
(0.183008 0.0579862 -0.00730218 0.183008 -4.67966e-06 0.183008)
(0.183009 0.0579862 -0.00730218 0.183005 -5.9773e-06 0.183009)
(0.179512 0.0603443 -0.0077048 0.179512 -4.83461e-06 0.179512)
(0.179511 0.0603443 -0.0077048 0.179516 -4.48531e-06 0.179511)
(0.176225 0.0629209 -0.00814289 0.176225 -4.86131e-06 0.176225)
(0.176226 0.0629209 -0.00814289 0.176222 -5.8456e-06 0.176226)
(0.173113 0.0656606 -0.00862473 0.173113 -5.05393e-06 0.173113)
(0.173112 0.0656606 -0.00862473 0.173115 -4.89899e-06 0.173112)
(0.170143 0.068337 -0.00912956 0.170143 -5.14747e-06 0.170143)
(0.170144 0.068337 -0.00912956 0.170142 -5.91726e-06 0.170144)
(0.167279 0.0706208 -0.00961808 0.167279 -5.35431e-06 0.167279)
(0.167279 0.0706207 -0.00961808 0.16728 -5.32004e-06 0.167279)
(0.164488 0.0721278 -0.0100374 0.164485 -5.68152e-06 0.164488)
(0.164488 0.0721278 -0.0100374 0.164486 -6.13579e-06 0.164488)
(0.161737 0.072585 -0.0103277 0.161738 -5.74829e-06 0.161737)
(0.161738 0.072585 -0.0103277 0.161738 -5.78733e-06 0.161738)
(0.159014 0.0719351 -0.0104621 0.159012 -6.28021e-06 0.159014)
(0.159014 0.0719351 -0.0104621 0.159012 -6.48768e-06 0.159014)
(0.156307 0.0703709 -0.0104386 0.156309 -6.13039e-06 0.156307)
(0.156307 0.0703709 -0.0104386 0.156307 -6.21231e-06 0.156307)
(0.153622 0.0683044 -0.0103029 0.15362 -6.55241e-06 0.153622)
(0.153622 0.0683044 -0.0103029 0.153621 -6.69799e-06 0.153622)
(0.150964 0.0662446 -0.0101211 0.150965 -6.30459e-06 0.150964)
(0.150964 0.0662446 -0.0101211 0.150964 -6.40988e-06 0.150964)
(0.148343 0.0647586 -0.00997505 0.148343 -6.54611e-06 0.148343)
(0.148343 0.0647586 -0.00997505 0.148343 -6.70585e-06 0.148343)
(0.145761 0.0641288 -0.00995714 0.145762 -6.41563e-06 0.145761)
(0.145762 0.0641288 -0.00995714 0.145762 -6.53165e-06 0.145762)
(0.143213 0.0641819 -0.0100692 0.143213 -6.73752e-06 0.143213)
(0.143213 0.0641819 -0.0100692 0.143213 -6.91329e-06 0.143213)
(0.140684 0.0644618 -0.0102652 0.140685 -6.76495e-06 0.140684)
(0.140684 0.0644618 -0.0102652 0.140684 -6.88335e-06 0.140684)
(0.13816 0.0644365 -0.0104534 0.13816 -7.22854e-06 0.13816)
(0.13816 0.0644365 -0.0104534 0.13816 -7.42217e-06 0.13816)
(0.135627 0.063857 -0.0105555 0.135627 -7.31113e-06 0.135627)
(0.135627 0.063857 -0.0105555 0.135627 -7.42619e-06 0.135627)
(0.133078 0.0627285 -0.0105642 0.133077 -7.76877e-06 0.133078)
(0.133078 0.0627285 -0.0105642 0.133077 -7.98207e-06 0.133078)
(0.13051 0.0611188 -0.0104809 0.130511 -7.88331e-06 0.13051)
(0.13051 0.0611188 -0.0104809 0.13051 -7.99098e-06 0.13051)
(0.127928 0.0590184 -0.0103195 0.127928 -8.22557e-06 0.127928)
(0.127928 0.0590183 -0.0103195 0.127928 -8.46048e-06 0.127928)
(0.125339 0.0562925 -0.0100554 0.12534 -8.38893e-06 0.125339)
(0.125339 0.0562925 -0.0100554 0.125339 -8.52434e-06 0.125339)
(0.12276 0.0528163 -0.00965858 0.122759 -8.70414e-06 0.12276)
(0.12276 0.0528163 -0.00965858 0.122759 -8.96277e-06 0.12276)
(0.120211 0.0486341 -0.00910508 0.120212 -8.96849e-06 0.120211)
(0.120211 0.0486341 -0.00910508 0.120211 -9.16505e-06 0.120211)
(0.117723 0.0441626 -0.00842327 0.117723 -9.09949e-06 0.117723)
(0.117723 0.0441626 -0.00842327 0.117723 -9.38389e-06 0.117723)
(0.115325 0.0400679 -0.00772606 0.115325 -9.19389e-06 0.115325)
(0.115325 0.0400679 -0.00772606 0.115325 -9.42184e-06 0.115325)
(0.113042 0.0370106 -0.00714209 0.113043 -9.1228e-06 0.113042)
(0.113042 0.0370106 -0.00714209 0.113043 -9.43707e-06 0.113042)
(0.110892 0.0355091 -0.00679632 0.110893 -9.141e-06 0.110892)
(0.110892 0.0355091 -0.00679632 0.110892 -9.35363e-06 0.110892)
(0.108879 0.0357592 -0.00677759 0.108879 -9.19783e-06 0.108879)