/*--------------------------------*- C++ -*----------------------------------*\
| =========                 |                                                 |
| \\      /  F ield         | OpenFOAM: The Open Source CFD Toolbox           |
|  \\    /   O peration     | Version:  2012                                  |
|   \\  /    A nd           | Website:  www.openfoam.com                      |
|    \\/     M anipulation  |                                                 |
\*---------------------------------------------------------------------------*/
FoamFile
{
    version     2.0;
    format      ascii;
    class       volVectorField;
    location    "11000";
    object      U;
}
// * * * * * * * * * * * * * * * * * * * * * * * * * * * * * * * * * * * * * //

dimensions      [0 1 -1 0 0 0 0];


internalField   nonuniform List<vector> 
80
(
(0.0965062 2.84695e-16 3.52265e-16)
(0.0965062 9.18936e-17 1.55834e-16)
(0.349043 2.83418e-15 1.1048e-15)
(0.349043 2.46087e-16 4.5305e-16)
(0.626558 1.47501e-15 8.44874e-16)
(0.626558 4.35426e-16 4.33173e-16)
(0.786993 1.14362e-15 6.01235e-16)
(0.786993 5.86987e-16 2.00958e-16)
(0.875658 7.99899e-16 -9.91246e-17)
(0.875658 5.95664e-16 -1.63975e-16)
(0.931163 5.33949e-16 -5.07204e-16)
(0.931163 5.00556e-16 -6.67291e-16)
(0.970317 5.607e-16 -6.22961e-17)
(0.970317 6.12213e-16 -8.08698e-17)
(1.00102 1.77773e-16 2.29713e-16)
(1.00102 1.513e-16 2.226e-16)
(1.02665 7.14616e-16 -8.61609e-17)
(1.02665 7.02458e-16 -1.16375e-16)
(1.04874 -4.36202e-16 3.50859e-16)
(1.04874 -4.48466e-16 1.74067e-16)
(0.0965062 4.18699e-17 -9.4204e-17)
(0.0965062 4.89369e-17 2.72301e-18)
(0.349043 6.18373e-17 -2.82987e-16)
(0.349043 1.43059e-17 4.78401e-17)
(0.626558 2.23484e-16 -9.46475e-17)
(0.626558 1.63076e-16 1.3344e-16)
(0.786993 3.33766e-16 1.72584e-16)
(0.786993 2.75154e-16 2.17999e-16)
(0.875658 3.77543e-16 3.79891e-16)
(0.875658 3.4803e-16 3.92899e-16)
(0.931163 4.10882e-16 7.52765e-16)
(0.931163 4.6235e-16 7.53517e-16)
(0.970317 6.07843e-16 6.22961e-17)
(0.970317 5.23873e-16 8.08698e-17)
(1.00102 2.15573e-16 -3.63963e-16)
(1.00102 2.39401e-16 -2.93621e-16)
(1.02665 7.55189e-16 8.61609e-17)
(1.02665 7.33472e-16 1.16375e-16)
(1.04874 -5.15549e-16 8.07713e-31)
(1.04874 -4.89873e-16 -1.35489e-16)
(1.04874 -4.61004e-16 3.95978e-16)
(1.04874 -4.50566e-16 4.17301e-16)
(1.02665 5.56003e-16 2.14729e-17)
(1.02665 5.62685e-16 -6.69124e-19)
(1.00102 -1.0473e-16 1.05497e-17)
(1.00102 -5.58253e-17 -1.96385e-17)
(0.970317 -6.21998e-18 -1.56604e-16)
(0.970317 -1.90829e-17 -3.59772e-16)
(0.931163 -1.83622e-17 -1.34176e-18)
(0.931163 -1.17224e-17 2.88967e-17)
(0.875658 -1.44973e-17 1.72248e-17)
(0.875658 -1.92764e-17 1.19373e-18)
(0.786993 1.92024e-17 -3.23329e-19)
(0.786993 8.3845e-18 4.67332e-17)
(0.626558 1.03597e-17 4.21542e-17)
(0.626558 1.22857e-17 4.40194e-17)
(0.349043 7.10763e-18 6.09969e-17)
(0.349043 6.76849e-19 6.03143e-17)
(0.0965062 -3.84151e-19 1.7905e-17)
(0.0965062 1.80628e-18 2.4955e-17)
(1.04874 -4.12648e-16 -3.95978e-16)
(1.04874 -4.15476e-16 -4.17301e-16)
(1.02665 5.18984e-16 -1.88858e-16)
(1.02665 5.10069e-16 -1.77839e-16)
(1.00102 7.80441e-18 -1.05497e-17)
(1.00102 -7.01692e-18 1.96385e-17)
(0.970317 -4.91065e-17 3.65765e-16)
(0.970317 -5.3434e-17 3.51754e-16)
(0.931163 -8.23767e-17 6.6827e-17)
(0.931163 -8.17065e-17 6.16433e-17)
(0.875658 -2.56673e-17 2.86667e-17)
(0.875658 -4.64812e-17 4.45686e-17)
(0.786993 -1.8114e-17 8.7015e-18)
(0.786993 -1.98243e-17 2.12861e-31)
(0.626558 -1.13434e-17 7.33845e-20)
(0.626558 -1.23567e-17 -6.31407e-18)
(0.349043 6.25812e-19 -4.81245e-31)
(0.349043 -2.25459e-18 -1.48428e-18)
(0.0965062 2.92688e-19 -5.18753e-19)
(0.0965062 -7.65831e-19 -1.08711e-18)
)
;

boundaryField
{
    walls
    {
        type            fixedValue;
        value           uniform (0 0 0);
    }
    inlet
    {
        type            cyclic;
    }
    outlet
    {
        type            cyclic;
    }
    sides
    {
        type            empty;
    }
}


// ************************************************************************* //
