/*--------------------------------*- C++ -*----------------------------------*\
| =========                 |                                                 |
| \\      /  F ield         | OpenFOAM: The Open Source CFD Toolbox           |
|  \\    /   O peration     | Version:  2012                                  |
|   \\  /    A nd           | Website:  www.openfoam.com                      |
|    \\/     M anipulation  |                                                 |
\*---------------------------------------------------------------------------*/
FoamFile
{
    version     2.0;
    format      ascii;
    class       volScalarField;
    location    "15000";
    object      omega;
}
// * * * * * * * * * * * * * * * * * * * * * * * * * * * * * * * * * * * * * //

dimensions      [0 0 -1 0 0 0 0];


internalField   nonuniform List<scalar> 
2560
(
1.52416e+06
1.52416e+06
264607
264607
88289.2
88289.2
41172.8
41172.8
24566
24566
17415.1
17415.1
13685.4
13685.4
11438.7
11438.7
9943.96
9943.96
8877.95
8877.95
8078.5
8078.5
7455.84
7455.84
6956.43
6956.43
6546.35
6546.35
6203.11
6203.11
5911.16
5911.16
5659.43
5659.43
5439.78
5439.78
5246.12
5246.12
5073.78
5073.78
4919.11
4919.11
4779.22
4779.22
4651.78
4651.78
4534.91
4534.91
4427.05
4427.05
4326.89
4326.89
4233.33
4233.33
4145.46
4145.46
4062.47
4062.47
3983.69
3983.69
3908.51
3908.51
3836.42
3836.42
3766.97
3766.97
3699.75
3699.75
3634.41
3634.41
3570.65
3570.65
3508.18
3508.18
3446.77
3446.77
3386.19
3386.19
3326.26
3326.26
3266.82
3266.82
3207.73
3207.73
3148.85
3148.85
3090.1
3090.1
3031.4
3031.4
2972.67
2972.67
2913.88
2913.88
2855
2855
2796.01
2796.01
2736.93
2736.93
2677.77
2677.77
2618.57
2618.57
2559.38
2559.38
2500.27
2500.27
2441.32
2441.32
2382.61
2382.61
2324.25
2324.25
2266.36
2266.36
2209.04
2209.04
2152.44
2152.44
2096.68
2096.68
2041.91
2041.91
1988.25
1988.25
1935.86
1935.86
1884.86
1884.86
1835.37
1835.37
1787.52
1787.52
1741.42
1741.42
1697.15
1697.15
1654.8
1654.8
1614.41
1614.41
1576.02
1576.02
1539.66
1539.66
1505.31
1505.31
1472.96
1472.96
1442.54
1442.54
1414
1414
1387.25
1387.25
1362.2
1362.2
1338.73
1338.73
1316.72
1316.72
1296.06
1296.06
1276.6
1276.6
1258.23
1258.23
1240.82
1240.82
1224.24
1224.24
1208.37
1208.37
1193.1
1193.1
1178.33
1178.33
1163.95
1163.95
1149.89
1149.89
1136.07
1136.07
1122.41
1122.41
1108.85
1108.85
1095.35
1095.35
1081.86
1081.86
1068.34
1068.34
1054.77
1054.77
1041.11
1041.11
1027.37
1027.37
1013.52
1013.52
999.553
999.553
985.477
985.477
971.288
971.288
956.992
956.992
942.594
942.594
928.104
928.104
913.533
913.533
898.893
898.893
884.195
884.195
869.455
869.455
854.685
854.685
839.901
839.901
825.117
825.117
810.346
810.346
795.602
795.602
780.899
780.899
766.25
766.25
751.667
751.667
737.162
737.162
722.745
722.745
708.428
708.428
694.22
694.22
680.13
680.13
666.166
666.166
652.336
652.336
638.648
638.648
625.107
625.107
611.719
611.719
598.49
598.49
585.424
585.424
572.525
572.525
559.797
559.797
547.244
547.244
534.867
534.867
522.67
522.67
510.655
510.655
498.823
498.823
487.175
487.175
475.713
475.713
464.438
464.438
453.351
453.351
442.45
442.45
431.738
431.738
421.213
421.213
410.875
410.875
400.725
400.725
390.761
390.761
380.984
380.984
371.392
371.392
361.984
361.984
352.76
352.76
343.72
343.72
334.861
334.861
326.183
326.183
317.685
317.685
309.366
309.366
301.224
301.224
293.259
293.259
285.469
285.469
277.852
277.852
270.407
270.407
263.132
263.132
256.025
256.025
249.085
249.085
242.308
242.308
235.692
235.692
229.236
229.236
222.935
222.935
216.787
216.787
210.79
210.79
204.939
204.939
199.234
199.234
193.67
193.67
188.246
188.246
182.958
182.958
177.804
177.804
172.782
172.782
167.89
167.89
163.126
163.126
158.486
158.486
153.97
153.97
149.575
149.575
145.298
145.298
141.138
141.138
137.091
137.091
133.157
133.157
129.332
129.332
125.615
125.615
122.002
122.002
118.493
118.493
115.085
115.085
111.775
111.775
108.563
108.563
105.446
105.446
102.424
102.424
99.493
99.493
96.6531
96.6531
93.9024
93.9024
91.2393
91.2393
88.6625
88.6625
86.1703
86.1703
83.7612
83.7612
81.4333
81.4333
79.185
79.185
77.0142
77.0141
74.9188
74.9188
72.8969
72.8969
70.9462
70.9462
69.0646
69.0646
67.2501
67.2501
65.5005
65.5005
63.814
63.814
62.1884
62.1884
60.6215
60.6215
59.1111
59.1111
57.6548
57.6548
56.2502
56.2502
54.8945
54.8945
53.585
53.585
52.3189
52.3189
51.0935
51.0935
49.9061
49.9061
48.7545
48.7545
47.6369
47.6369
46.5516
46.5516
45.4972
45.4972
44.4726
44.4726
43.4764
43.4764
42.5068
42.5067
41.562
41.562
40.6401
40.6401
39.7395
39.7395
38.8585
38.8585
37.996
37.996
37.1508
37.1508
36.3224
36.3223
35.51
35.51
34.7136
34.7136
33.9334
33.9334
33.1697
33.1697
32.4229
32.4229
31.6929
31.6929
30.9793
30.9793
30.2813
30.2813
29.5973
29.5973
28.9255
28.9255
28.2637
28.2637
27.6093
27.6093
26.9602
26.9602
26.315
26.315
25.6734
25.6735
25.0365
25.0365
24.4059
24.4059
23.784
23.784
23.1731
23.1731
22.5751
22.5751
21.9907
21.9907
21.4202
21.4202
20.8635
20.8634
20.3201
20.3201
19.7904
19.7903
19.2755
19.2754
18.777
18.777
18.2965
18.2965
17.8352
17.8352
17.3938
17.3938
16.9728
16.9728
16.5721
16.5721
16.1918
16.1918
15.8316
15.8316
15.491
15.491
15.1694
15.1694
14.8657
14.8657
14.5783
14.5783
14.3054
14.3054
14.0448
14.0448
13.7942
13.7942
13.5509
13.5509
13.3124
13.3124
13.0767
13.0767
12.8419
12.8419
12.6062
12.6062
12.3673
12.3673
12.1232
12.1231
11.8728
11.8728
11.6169
11.6169
11.357
11.357
11.0958
11.0958
10.8367
10.8366
10.5839
10.5838
10.3412
10.3412
10.1109
10.1109
9.8937
9.89369
9.6895
9.68949
9.49832
9.49831
9.32021
9.3202
9.15522
9.15521
9.0034
9.00339
8.8646
8.8646
8.73829
8.73829
8.62335
8.62335
8.51823
8.51823
8.42127
8.42126
8.33058
8.33058
8.24345
8.24345
8.15639
8.15639
8.06631
8.06631
7.9718
7.97179
7.87373
7.87372
7.77472
7.77471
7.67762
7.67762
7.58464
7.58464
7.49764
7.49764
7.41886
7.41886
7.35055
7.35055
7.29422
7.29422
7.25057
7.25058
7.2202
7.22021
7.20426
7.20428
1.52416e+06
1.52416e+06
264607
264607
88289.2
88289.2
41172.8
41172.8
24566
24566
17415.1
17415.1
13685.4
13685.4
11438.7
11438.7
9943.96
9943.96
8877.95
8877.95
8078.5
8078.5
7455.84
7455.84
6956.43
6956.43
6546.35
6546.35
6203.11
6203.11
5911.16
5911.16
5659.43
5659.43
5439.78
5439.78
5246.12
5246.12
5073.78
5073.78
4919.11
4919.11
4779.22
4779.22
4651.78
4651.78
4534.91
4534.91
4427.05
4427.05
4326.89
4326.89
4233.33
4233.33
4145.46
4145.46
4062.47
4062.47
3983.69
3983.69
3908.51
3908.51
3836.42
3836.42
3766.97
3766.97
3699.75
3699.75
3634.41
3634.41
3570.65
3570.65
3508.18
3508.18
3446.77
3446.77
3386.19
3386.19
3326.26
3326.26
3266.82
3266.82
3207.73
3207.73
3148.85
3148.85
3090.1
3090.1
3031.4
3031.4
2972.67
2972.67
2913.88
2913.88
2855
2855
2796.01
2796.01
2736.93
2736.93
2677.77
2677.77
2618.57
2618.57
2559.38
2559.38
2500.27
2500.27
2441.32
2441.32
2382.61
2382.61
2324.25
2324.25
2266.36
2266.36
2209.04
2209.04
2152.44
2152.44
2096.68
2096.68
2041.91
2041.91
1988.25
1988.25
1935.86
1935.86
1884.86
1884.86
1835.37
1835.37
1787.52
1787.52
1741.42
1741.42
1697.15
1697.15
1654.8
1654.8
1614.41
1614.41
1576.02
1576.02
1539.66
1539.66
1505.31
1505.31
1472.96
1472.96
1442.54
1442.54
1414
1414
1387.25
1387.25
1362.2
1362.2
1338.73
1338.73
1316.72
1316.72
1296.06
1296.06
1276.6
1276.6
1258.23
1258.23
1240.82
1240.82
1224.24
1224.24
1208.37
1208.37
1193.1
1193.1
1178.33
1178.33
1163.95
1163.95
1149.89
1149.89
1136.07
1136.07
1122.41
1122.41
1108.85
1108.85
1095.35
1095.35
1081.86
1081.86
1068.34
1068.34
1054.77
1054.77
1041.11
1041.11
1027.37
1027.37
1013.52
1013.52
999.553
999.553
985.477
985.477
971.288
971.288
956.992
956.992
942.594
942.594
928.104
928.104
913.533
913.533
898.892
898.892
884.195
884.195
869.455
869.455
854.685
854.685
839.901
839.901
825.117
825.117
810.346
810.346
795.602
795.602
780.899
780.899
766.25
766.25
751.667
751.667
737.162
737.162
722.745
722.745
708.428
708.428
694.22
694.22
680.13
680.13
666.166
666.166
652.336
652.336
638.648
638.648
625.107
625.107
611.719
611.719
598.49
598.49
585.424
585.424
572.525
572.525
559.797
559.797
547.244
547.244
534.867
534.867
522.67
522.67
510.655
510.655
498.823
498.823
487.175
487.175
475.713
475.713
464.438
464.438
453.351
453.351
442.45
442.45
431.738
431.738
421.213
421.213
410.875
410.875
400.725
400.725
390.761
390.761
380.984
380.984
371.392
371.392
361.984
361.984
352.76
352.76
343.72
343.72
334.861
334.861
326.183
326.183
317.685
317.685
309.366
309.366
301.224
301.224
293.259
293.259
285.469
285.469
277.852
277.852
270.407
270.407
263.132
263.132
256.025
256.025
249.085
249.085
242.308
242.308
235.692
235.692
229.236
229.236
222.935
222.935
216.787
216.787
210.79
210.79
204.939
204.939
199.234
199.234
193.67
193.67
188.246
188.246
182.958
182.958
177.804
177.804
172.782
172.782
167.89
167.89
163.126
163.126
158.486
158.486
153.97
153.97
149.575
149.575
145.298
145.298
141.138
141.138
137.091
137.091
133.157
133.157
129.332
129.332
125.615
125.615
122.002
122.002
118.493
118.493
115.085
115.085
111.775
111.775
108.563
108.563
105.446
105.446
102.424
102.424
99.493
99.493
96.6531
96.6531
93.9023
93.9024
91.2393
91.2393
88.6625
88.6625
86.1703
86.1703
83.7612
83.7612
81.4333
81.4333
79.185
79.185
77.0141
77.0142
74.9188
74.9188
72.8969
72.8969
70.9462
70.9462
69.0646
69.0646
67.2501
67.2501
65.5005
65.5006
63.814
63.814
62.1884
62.1884
60.6215
60.6215
59.1111
59.1111
57.6549
57.6549
56.2502
56.2502
54.8945
54.8945
53.585
53.585
52.3189
52.319
51.0935
51.0935
49.9061
49.9062
48.7546
48.7546
47.6369
47.6369
46.5516
46.5516
45.4973
45.4973
44.4727
44.4727
43.4764
43.4764
42.5068
42.5068
41.562
41.562
40.6402
40.6402
39.7395
39.7395
38.8585
38.8586
37.996
37.996
37.1509
37.1509
36.3224
36.3224
35.51
35.51
34.7137
34.7137
33.9334
33.9335
33.1698
33.1698
32.4229
32.4229
31.6929
31.6929
30.9794
30.9794
30.2813
30.2813
29.5973
29.5973
28.9256
28.9256
28.2637
28.2637
27.6094
27.6094
26.9602
26.9602
26.315
26.315
25.6735
25.6735
25.0365
25.0365
24.4059
24.4059
23.784
23.784
23.1731
23.1731
22.5751
22.5751
21.9907
21.9907
21.4202
21.4202
20.8634
20.8635
20.3201
20.3201
19.7903
19.7904
19.2754
19.2755
18.777
18.777
18.2965
18.2966
17.8352
17.8352
17.3938
17.3939
16.9728
16.9728
16.5721
16.5721
16.1918
16.1918
15.8316
15.8316
15.491
15.4911
15.1694
15.1694
14.8657
14.8657
14.5783
14.5783
14.3054
14.3054
14.0449
14.0449
13.7943
13.7943
13.5509
13.5509
13.3124
13.3124
13.0767
13.0767
12.8419
12.8419
12.6062
12.6062
12.3673
12.3673
12.1231
12.1231
11.8728
11.8728
11.6169
11.6169
11.357
11.357
11.0958
11.0958
10.8366
10.8366
10.5838
10.5838
10.3412
10.3412
10.1109
10.1109
9.89369
9.8937
9.68949
9.6895
9.4983
9.49831
9.3202
9.32021
9.15522
9.15522
9.0034
9.0034
8.8646
8.86461
8.73829
8.7383
8.62336
8.62336
8.51823
8.51824
8.42127
8.42127
8.33058
8.33059
8.24345
8.24346
8.15639
8.15639
8.06631
8.06631
7.97179
7.9718
7.87372
7.87373
7.7747
7.77471
7.67761
7.67762
7.58463
7.58464
7.49763
7.49764
7.41885
7.41885
7.35055
7.35054
7.29422
7.29421
7.25058
7.25057
7.22021
7.22019
7.20427
7.20426
7.20424
7.20425
7.22014
7.22016
7.25045
7.25047
7.29399
7.29399
7.35023
7.35023
7.41841
7.41841
7.49702
7.49701
7.58387
7.58386
7.67651
7.67651
7.77304
7.77303
7.87149
7.87148
7.96913
7.96912
8.06332
8.06331
8.15327
8.15327
8.24052
8.24052
8.32805
8.32805
8.41914
8.41914
8.51645
8.51645
8.62186
8.62185
8.73706
8.73705
8.86367
8.86366
9.00279
9.00278
9.15494
9.15493
9.32023
9.32022
9.49863
9.49862
9.6901
9.69009
9.89457
9.89456
10.1121
10.1121
10.3426
10.3426
10.5855
10.5855
10.8386
10.8386
11.098
11.098
11.3593
11.3593
11.619
11.619
11.8746
11.8746
12.1243
12.1243
12.3678
12.3678
12.6063
12.6063
12.8417
12.8417
13.0762
13.0762
13.3118
13.3118
13.5501
13.5501
13.7932
13.7932
14.0436
14.0436
14.3039
14.3039
14.5766
14.5766
14.8638
14.8638
15.1674
15.1674
15.4889
15.4889
15.8294
15.8294
16.1896
16.1896
16.5699
16.5699
16.9705
16.9705
17.3916
17.3916
17.833
17.8329
18.2943
18.2943
18.7748
18.7748
19.2733
19.2732
19.7882
19.7881
20.318
20.318
20.8616
20.8615
21.4184
21.4184
21.9888
21.9889
22.5731
22.5732
23.171
23.171
23.7816
23.7816
24.4034
24.4034
25.034
25.034
25.6709
25.6709
26.3123
26.3123
26.9572
26.9572
27.6061
27.6061
28.2605
28.2605
28.9225
28.9225
29.5946
29.5946
30.2791
30.2791
30.9778
30.9778
31.6919
31.6919
32.4222
32.4222
33.1691
33.1691
33.9327
33.9327
34.7127
34.7127
35.5088
35.5088
36.321
36.321
37.1493
37.1493
37.9943
37.9943
38.8568
38.8567
39.7378
39.7378
40.6385
40.6385
41.5604
41.5604
42.5054
42.5054
43.4753
43.4753
44.472
44.472
45.4971
45.4971
46.552
46.552
47.6377
47.6377
48.7556
48.7556
49.9074
49.9074
51.0949
51.0949
52.3203
52.3203
53.5865
53.5865
54.8961
54.8961
56.2519
56.2519
57.6565
57.6565
59.1127
59.1127
60.6228
60.6228
62.1894
62.1893
63.8147
63.8147
65.5009
65.5009
67.2501
67.2501
69.0645
69.0645
70.946
70.946
72.8967
72.8967
74.9186
74.9186
77.014
77.014
79.1848
79.1848
81.4332
81.4332
83.7612
83.7611
86.1704
86.1704
88.6626
88.6626
91.2395
91.2395
93.9025
93.9025
96.6531
96.6531
99.493
99.493
102.424
102.424
105.446
105.446
108.563
108.563
111.775
111.775
115.084
115.084
118.493
118.493
122.002
122.002
125.614
125.614
129.332
129.332
133.156
133.156
137.091
137.091
141.137
141.137
145.297
145.297
149.574
149.574
153.969
153.969
158.485
158.485
163.124
163.124
167.889
167.889
172.781
172.781
177.803
177.803
182.956
182.956
188.244
188.244
193.668
193.668
199.232
199.232
204.937
204.937
210.787
210.787
216.785
216.785
222.933
222.933
229.233
229.233
235.69
235.69
242.306
242.306
249.082
249.082
256.023
256.023
263.129
263.129
270.404
270.404
277.849
277.849
285.466
285.466
293.256
293.256
301.221
301.221
309.363
309.363
317.682
317.682
326.179
326.179
334.857
334.857
343.716
343.716
352.756
352.756
361.98
361.98
371.387
371.387
380.979
380.979
390.757
390.757
400.72
400.72
410.87
410.87
421.208
421.208
431.733
431.733
442.445
442.445
453.346
453.346
464.434
464.434
475.709
475.709
487.171
487.171
498.819
498.819
510.651
510.651
522.667
522.667
534.863
534.863
547.24
547.24
559.793
559.793
572.52
572.52
585.419
585.419
598.485
598.485
611.714
611.714
625.102
625.102
638.642
638.642
652.33
652.33
666.159
666.159
680.122
680.122
694.211
694.211
708.418
708.418
722.734
722.734
737.149
737.149
751.652
751.652
766.234
766.234
780.88
780.88
795.58
795.58
810.321
810.321
825.089
825.089
839.872
839.872
854.655
854.655
869.424
869.424
884.163
884.163
898.86
898.86
913.5
913.5
928.07
928.07
942.56
942.56
956.957
956.957
971.251
971.251
985.438
985.438
999.513
999.513
1013.48
1013.48
1027.33
1027.33
1041.07
1041.07
1054.73
1054.73
1068.3
1068.3
1081.82
1081.82
1095.31
1095.31
1108.81
1108.81
1122.36
1122.36
1136.01
1136.01
1149.83
1149.83
1163.87
1163.87
1178.24
1178.24
1193
1193
1208.27
1208.27
1224.13
1224.13
1240.71
1240.71
1258.12
1258.12
1276.48
1276.48
1295.93
1295.93
1316.58
1316.58
1338.58
1338.58
1362.04
1362.04
1387.09
1387.09
1413.83
1413.83
1442.37
1442.37
1472.78
1472.78
1505.13
1505.13
1539.47
1539.47
1575.83
1575.83
1614.2
1614.2
1654.59
1654.59
1696.94
1696.94
1741.21
1741.21
1787.31
1787.31
1835.15
1835.15
1884.64
1884.64
1935.65
1935.65
1988.05
1988.05
2041.7
2041.7
2096.48
2096.48
2152.24
2152.24
2208.85
2208.85
2266.17
2266.17
2324.08
2324.08
2382.45
2382.45
2441.17
2441.17
2500.15
2500.15
2559.28
2559.28
2618.5
2618.5
2677.72
2677.72
2736.89
2736.89
2795.99
2795.99
2855.01
2855.01
2913.92
2913.92
2972.73
2972.73
3031.48
3031.48
3090.21
3090.21
3148.98
3148.98
3207.88
3207.88
3266.99
3266.99
3326.45
3326.45
3386.39
3386.39
3446.98
3446.98
3508.41
3508.41
3570.89
3570.89
3634.66
3634.66
3700
3700
3767.22
3767.22
3836.68
3836.68
3908.77
3908.77
3983.95
3983.95
4062.74
4062.74
4145.74
4145.74
4233.62
4233.62
4327.18
4327.18
4427.35
4427.35
4535.22
4535.22
4652.09
4652.09
4779.52
4779.52
4919.4
4919.4
5074.07
5074.07
5246.41
5246.41
5440.06
5440.06
5659.71
5659.71
5911.44
5911.44
6203.38
6203.38
6546.62
6546.62
6956.69
6956.69
7456.1
7456.1
8078.75
8078.75
8878.19
8878.19
9944.19
9944.19
11439
11439
13685.6
13685.6
17415.3
17415.3
24566.2
24566.2
41172.9
41172.9
88289.5
88289.5
264607
264607
1.52417e+06
1.52417e+06
7.20425
7.20424
7.22016
7.22014
7.25047
7.25046
7.294
7.29399
7.35024
7.35023
7.41841
7.41841
7.49702
7.49702
7.58387
7.58387
7.67651
7.67652
7.77303
7.77304
7.87148
7.87149
7.96912
7.96913
8.06331
8.06332
8.15326
8.15327
8.24051
8.24052
8.32804
8.32805
8.41914
8.41914
8.51644
8.51645
8.62185
8.62185
8.73705
8.73706
8.86366
8.86367
9.00278
9.00279
9.15493
9.15494
9.32022
9.32023
9.49862
9.49863
9.69009
9.6901
9.89457
9.89458
10.1121
10.1121
10.3426
10.3426
10.5855
10.5855
10.8386
10.8386
11.098
11.098
11.3593
11.3593
11.619
11.619
11.8746
11.8746
12.1243
12.1243
12.3678
12.3678
12.6063
12.6063
12.8417
12.8417
13.0762
13.0762
13.3118
13.3118
13.5501
13.5501
13.7932
13.7932
14.0436
14.0436
14.3039
14.3039
14.5766
14.5766
14.8638
14.8638
15.1674
15.1674
15.4889
15.4889
15.8294
15.8294
16.1896
16.1896
16.5699
16.5699
16.9705
16.9705
17.3916
17.3916
17.8329
17.833
18.2943
18.2943
18.7748
18.7748
19.2733
19.2733
19.7882
19.7882
20.318
20.3181
20.8616
20.8616
21.4184
21.4184
21.9889
21.9889
22.5732
22.5732
23.1711
23.171
23.7817
23.7816
24.4034
24.4034
25.034
25.034
25.6709
25.6709
26.3123
26.3123
26.9572
26.9572
27.6061
27.6061
28.2605
28.2605
28.9225
28.9225
29.5946
29.5946
30.2791
30.2791
30.9778
30.9778
31.6919
31.6919
32.4222
32.4222
33.1691
33.1691
33.9326
33.9326
34.7126
34.7126
35.5088
35.5088
36.3209
36.321
37.1493
37.1493
37.9942
37.9942
38.8567
38.8567
39.7377
39.7377
40.6384
40.6384
41.5603
41.5603
42.5053
42.5053
43.4752
43.4753
44.4719
44.4719
45.497
45.497
46.5519
46.5519
47.6376
47.6376
48.7555
48.7556
49.9073
49.9073
51.0948
51.0948
52.3202
52.3203
53.5864
53.5864
54.896
54.896
56.2518
56.2518
57.6564
57.6564
59.1126
59.1126
60.6227
60.6227
62.1893
62.1893
63.8146
63.8146
65.5008
65.5008
67.2501
67.2501
69.0644
69.0644
70.9459
70.9459
72.8966
72.8966
74.9185
74.9186
77.0139
77.0139
79.1847
79.1847
81.4331
81.4331
83.7611
83.7611
86.1703
86.1703
88.6626
88.6626
91.2394
91.2394
93.9024
93.9024
96.653
96.6531
99.4929
99.4929
102.424
102.424
105.446
105.446
108.563
108.563
111.775
111.775
115.084
115.084
118.493
118.493
122.002
122.002
125.614
125.614
129.332
129.332
133.156
133.156
137.091
137.091
141.137
141.137
145.297
145.297
149.574
149.574
153.969
153.969
158.485
158.485
163.124
163.124
167.889
167.889
172.781
172.781
177.802
177.803
182.956
182.956
188.244
188.244
193.668
193.668
199.232
199.232
204.937
204.937
210.787
210.787
216.785
216.785
222.933
222.933
229.233
229.233
235.69
235.69
242.306
242.306
249.082
249.082
256.023
256.023
263.129
263.129
270.404
270.404
277.849
277.849
285.466
285.466
293.256
293.256
301.221
301.221
309.362
309.362
317.682
317.682
326.179
326.179
334.857
334.857
343.716
343.716
352.756
352.756
361.98
361.98
371.387
371.387
380.979
380.979
390.756
390.756
400.72
400.72
410.87
410.87
421.208
421.208
431.733
431.733
442.445
442.445
453.346
453.346
464.434
464.434
475.709
475.709
487.171
487.171
498.819
498.819
510.651
510.651
522.667
522.667
534.863
534.863
547.24
547.24
559.793
559.793
572.52
572.52
585.419
585.419
598.485
598.485
611.714
611.714
625.102
625.102
638.642
638.642
652.33
652.33
666.159
666.159
680.122
680.122
694.211
694.211
708.418
708.418
722.734
722.734
737.149
737.149
751.652
751.652
766.234
766.234
780.88
780.88
795.58
795.58
810.321
810.321
825.089
825.089
839.872
839.872
854.655
854.655
869.424
869.424
884.163
884.163
898.86
898.86
913.5
913.5
928.07
928.07
942.56
942.56
956.957
956.957
971.251
971.251
985.438
985.438
999.513
999.513
1013.47
1013.47
1027.33
1027.33
1041.07
1041.07
1054.73
1054.73
1068.3
1068.3
1081.82
1081.82
1095.31
1095.31
1108.81
1108.81
1122.36
1122.36
1136.01
1136.01
1149.83
1149.83
1163.87
1163.87
1178.24
1178.24
1193
1193
1208.27
1208.27
1224.13
1224.13
1240.71
1240.71
1258.12
1258.12
1276.48
1276.48
1295.93
1295.93
1316.58
1316.58
1338.58
1338.58
1362.04
1362.04
1387.09
1387.09
1413.83
1413.83
1442.37
1442.37
1472.78
1472.78
1505.13
1505.13
1539.47
1539.47
1575.83
1575.83
1614.2
1614.2
1654.59
1654.59
1696.94
1696.94
1741.21
1741.21
1787.31
1787.31
1835.15
1835.15
1884.64
1884.64
1935.65
1935.65
1988.05
1988.05
2041.7
2041.7
2096.48
2096.48
2152.24
2152.24
2208.85
2208.85
2266.17
2266.17
2324.08
2324.08
2382.45
2382.45
2441.18
2441.18
2500.15
2500.15
2559.28
2559.28
2618.5
2618.5
2677.72
2677.72
2736.89
2736.89
2795.99
2795.99
2855.01
2855.01
2913.92
2913.92
2972.73
2972.73
3031.48
3031.48
3090.21
3090.21
3148.98
3148.98
3207.88
3207.88
3266.99
3266.99
3326.45
3326.45
3386.39
3386.39
3446.98
3446.98
3508.41
3508.41
3570.88
3570.89
3634.66
3634.66
3700
3700
3767.22
3767.22
3836.68
3836.68
3908.77
3908.77
3983.95
3983.95
4062.74
4062.74
4145.74
4145.74
4233.62
4233.62
4327.18
4327.18
4427.35
4427.35
4535.22
4535.22
4652.09
4652.09
4779.52
4779.52
4919.4
4919.4
5074.07
5074.07
5246.4
5246.4
5440.06
5440.06
5659.7
5659.7
5911.44
5911.44
6203.38
6203.38
6546.62
6546.62
6956.68
6956.68
7456.09
7456.09
8078.75
8078.75
8878.19
8878.19
9944.19
9944.19
11439
11439
13685.6
13685.6
17415.3
17415.3
24566.2
24566.2
41172.9
41172.9
88289.5
88289.5
264607
264607
1.52417e+06
1.52417e+06
)
;

boundaryField
{
    walls
    {
        blending        binomial2;
        n               2;
        beta1           0.075;
        type            omegaWallFunction;
        value           nonuniform List<scalar> 8(1.52416e+06 1.52416e+06 1.52416e+06 1.52416e+06 1.52417e+06 1.52417e+06 1.52417e+06 1.52417e+06);
    }
    inlet
    {
        type            cyclic;
    }
    outlet
    {
        type            cyclic;
    }
    sides
    {
        type            empty;
    }
}


// ************************************************************************* //
