/*--------------------------------*- C++ -*----------------------------------*\
| =========                 |                                                 |
| \\      /  F ield         | OpenFOAM: The Open Source CFD Toolbox           |
|  \\    /   O peration     | Version:  2012                                  |
|   \\  /    A nd           | Website:  www.openfoam.com                      |
|    \\/     M anipulation  |                                                 |
\*---------------------------------------------------------------------------*/
FoamFile
{
    version     2.0;
    format      ascii;
    class       surfaceScalarField;
    location    "15000";
    object      phi;
}
// * * * * * * * * * * * * * * * * * * * * * * * * * * * * * * * * * * * * * //

dimensions      [0 3 -1 0 0 0 0];
oriented        oriented;


internalField   nonuniform List<scalar> 
5116
(
7.06106e-07
3.05409e-12
-1.26635e-12
-3.6857e-12
1.2513e-12
2.15805e-06
8.32504e-12
-1.90533e-12
-9.36183e-12
1.88269e-12
3.67175e-06
1.29062e-11
-1.57625e-12
-1.4099e-11
1.55752e-12
5.24917e-06
1.58959e-11
-9.55459e-13
-1.69735e-11
9.4411e-13
6.8923e-06
1.75082e-11
-5.29881e-13
-1.85645e-11
5.23588e-13
8.60321e-06
1.85253e-11
-3.24151e-13
-1.95342e-11
3.20302e-13
1.03841e-05
1.91748e-11
-2.23447e-13
-2.02031e-11
2.20795e-13
1.22372e-05
1.97036e-11
-1.68576e-13
-2.07057e-11
1.66576e-13
1.4165e-05
2.00887e-11
-1.3545e-13
-2.11104e-11
1.33845e-13
1.61701e-05
2.04498e-11
-1.13803e-13
-2.14492e-11
1.12456e-13
1.82551e-05
2.07248e-11
-9.87968e-14
-2.17445e-11
9.76286e-14
2.04229e-05
2.10068e-11
-8.79223e-14
-2.20063e-11
8.68843e-14
2.26764e-05
2.12272e-11
-7.97736e-14
-2.2245e-11
7.88333e-14
2.50187e-05
2.14659e-11
-7.35085e-14
-2.24639e-11
7.26438e-14
2.7453e-05
2.16526e-11
-6.85969e-14
-2.26694e-11
6.77915e-14
2.99826e-05
2.18642e-11
-6.46888e-14
-2.28621e-11
6.39312e-14
3.26109e-05
2.20309e-11
-6.15463e-14
-2.30466e-11
6.08272e-14
3.53415e-05
2.22253e-11
-5.90012e-14
-2.32225e-11
5.83138e-14
3.8178e-05
2.23779e-11
-5.69328e-14
-2.33934e-11
5.62713e-14
4.1124e-05
2.25607e-11
-5.52514e-14
-2.35582e-11
5.46116e-14
4.41833e-05
2.27048e-11
-5.38904e-14
-2.37201e-11
5.32683e-14
4.73597e-05
2.28801e-11
-5.27981e-14
-2.38777e-11
5.21908e-14
5.0657e-05
2.30182e-11
-5.19352e-14
-2.40338e-11
5.13398e-14
5.40789e-05
2.31886e-11
-5.12701e-14
-2.41869e-11
5.06848e-14
5.76292e-05
2.33235e-11
-5.07789e-14
-2.43396e-11
5.02014e-14
6.13117e-05
2.34914e-11
-5.04414e-14
-2.44904e-11
4.98703e-14
6.513e-05
2.36245e-11
-5.02426e-14
-2.46416e-11
4.9676e-14
6.90876e-05
2.37914e-11
-5.01692e-14
-2.47916e-11
4.96061e-14
7.31879e-05
2.39246e-11
-5.02117e-14
-2.49427e-11
4.96506e-14
7.7434e-05
2.4092e-11
-5.03612e-14
-2.50934e-11
4.98014e-14
8.1829e-05
2.42263e-11
-5.0612e-14
-2.52457e-11
5.0052e-14
8.63757e-05
2.43953e-11
-5.09582e-14
-2.53983e-11
5.03973e-14
9.10763e-05
2.45321e-11
-5.13963e-14
-2.5553e-11
5.08334e-14
9.59332e-05
2.4704e-11
-5.19226e-14
-2.57084e-11
5.13572e-14
0.000100948
2.4844e-11
-5.25356e-14
-2.58666e-11
5.19664e-14
0.000106122
2.50197e-11
-5.32327e-14
-2.6026e-11
5.26595e-14
0.000111457
2.51642e-11
-5.4014e-14
-2.61886e-11
5.34354e-14
0.000116952
2.53448e-11
-5.48779e-14
-2.63529e-11
5.42937e-14
0.000122607
2.54947e-11
-5.58255e-14
-2.65209e-11
5.52345e-14
0.000128423
2.56811e-11
-5.68563e-14
-2.66912e-11
5.62583e-14
0.000134397
2.58374e-11
-5.7972e-14
-2.68656e-11
5.73657e-14
0.000140528
2.60308e-11
-5.91727e-14
-2.70428e-11
5.8558e-14
0.000146813
2.61945e-11
-6.04609e-14
-2.72247e-11
5.98365e-14
0.000153248
2.63958e-11
-6.18371e-14
-2.74098e-11
6.12029e-14
0.000159831
2.6568e-11
-6.33044e-14
-2.76001e-11
6.2659e-14
0.000166555
2.67783e-11
-6.48636e-14
-2.77943e-11
6.42069e-14
0.000173415
2.69601e-11
-6.6518e-14
-2.79942e-11
6.58488e-14
0.000180405
2.71806e-11
-6.82687e-14
-2.81985e-11
6.75868e-14
0.000187517
2.73731e-11
-7.01192e-14
-2.84091e-11
6.94233e-14
0.000194743
2.7605e-11
-7.20705e-14
-2.86248e-11
7.13604e-14
0.000202074
2.78095e-11
-7.41257e-14
-2.88473e-11
7.34001e-14
0.0002095
2.8054e-11
-7.6286e-14
-2.90754e-11
7.55447e-14
0.00021701
2.82717e-11
-7.85543e-14
-2.93112e-11
7.77959e-14
0.000224592
2.85302e-11
-8.09306e-14
-2.95531e-11
8.01551e-14
0.000232234
2.87624e-11
-8.34169e-14
-2.98033e-11
8.2623e-14
0.000239921
2.90361e-11
-8.60121e-14
-3.00603e-11
8.51996e-14
0.00024764
2.92842e-11
-8.87174e-14
-3.03262e-11
8.7885e-14
0.000255376
2.95745e-11
-9.15307e-14
-3.05996e-11
9.06784e-14
0.000263112
2.98397e-11
-9.4451e-14
-3.08826e-11
9.35774e-14
0.000270833
3.01479e-11
-9.74734e-14
-3.11736e-11
9.65788e-14
0.00027852
3.04315e-11
-1.00595e-13
-3.14747e-11
9.96785e-14
0.000286156
3.07587e-11
-1.0381e-13
-3.17845e-11
1.02871e-13
0.000293724
3.10618e-11
-1.07112e-13
-3.2105e-11
1.0615e-13
0.000301204
3.1409e-11
-1.10491e-13
-3.24346e-11
1.09507e-13
0.000308578
3.17325e-11
-1.13942e-13
-3.27754e-11
1.12933e-13
0.000315827
3.21006e-11
-1.1745e-13
-3.31255e-11
1.16419e-13
0.000322933
3.24451e-11
-1.21008e-13
-3.34873e-11
1.19953e-13
0.000329876
3.28347e-11
-1.24602e-13
-3.38586e-11
1.23525e-13
0.000336639
3.32009e-11
-1.28224e-13
-3.42416e-11
1.27123e-13
0.000343204
3.36123e-11
-1.3186e-13
-3.46344e-11
1.30737e-13
0.000349554
3.40001e-11
-1.35503e-13
-3.5039e-11
1.34357e-13
0.000355672
3.44333e-11
-1.39142e-13
-3.54533e-11
1.37975e-13
0.000361544
3.48429e-11
-1.42772e-13
-3.58793e-11
1.41584e-13
0.000367155
3.52978e-11
-1.46388e-13
-3.63151e-11
1.45181e-13
0.000372493
3.57289e-11
-1.49992e-13
-3.67623e-11
1.48764e-13
0.000377546
3.62054e-11
-1.53581e-13
-3.72194e-11
1.52335e-13
0.000382305
3.66581e-11
-1.57164e-13
-3.76877e-11
1.55899e-13
0.00038676
3.71562e-11
-1.60746e-13
-3.81659e-11
1.59464e-13
0.000390906
3.76302e-11
-1.6434e-13
-3.86554e-11
1.63039e-13
0.000394737
3.81501e-11
-1.67957e-13
-3.91548e-11
1.66639e-13
0.000398251
3.86459e-11
-1.71614e-13
-3.96659e-11
1.70279e-13
0.000401446
3.91881e-11
-1.75326e-13
-4.01868e-11
1.73975e-13
0.000404323
3.97062e-11
-1.79115e-13
-4.07201e-11
1.77746e-13
0.000406883
4.02715e-11
-1.82993e-13
-4.12636e-11
1.81609e-13
0.000409131
4.08133e-11
-1.86988e-13
-4.18201e-11
1.85585e-13
0.000411071
4.14031e-11
-1.91111e-13
-4.23875e-11
1.89692e-13
0.00041271
4.19701e-11
-1.95391e-13
-4.29689e-11
1.93954e-13
0.000414055
4.25862e-11
-1.9984e-13
-4.3562e-11
1.98385e-13
0.000415117
4.31806e-11
-2.04485e-13
-4.41703e-11
2.03009e-13
0.000415904
4.38253e-11
-2.09336e-13
-4.47913e-11
2.07841e-13
0.000416428
4.44495e-11
-2.14422e-13
-4.54292e-11
2.12906e-13
0.0004167
4.51255e-11
-2.19751e-13
-4.60809e-11
2.18213e-13
0.000416733
4.57825e-11
-2.25353e-13
-4.67511e-11
2.23791e-13
0.000416539
4.6493e-11
-2.31231e-13
-4.74368e-11
2.29646e-13
0.000416132
4.71864e-11
-2.3742e-13
-4.81428e-11
2.35808e-13
0.000415524
4.7935e-11
-2.4392e-13
-4.88662e-11
2.42282e-13
0.000414729
4.86685e-11
-2.50769e-13
-4.96117e-11
2.49102e-13
0.00041376
4.94591e-11
-2.57958e-13
-5.03767e-11
2.56262e-13
0.00041263
5.02372e-11
-2.65538e-13
-5.11662e-11
2.63809e-13
0.000411353
5.10743e-11
-2.7349e-13
-5.19773e-11
2.71729e-13
0.00040994
5.19013e-11
-2.81875e-13
-5.28153e-11
2.80079e-13
0.000408404
5.27898e-11
-2.90662e-13
-5.36775e-11
2.88831e-13
0.000406757
5.36712e-11
-2.99929e-13
-5.45693e-11
2.98059e-13
0.000405009
5.46164e-11
-3.09628e-13
-5.5488e-11
3.07718e-13
0.000403172
5.55577e-11
-3.1986e-13
-5.64389e-11
3.17907e-13
0.000401255
5.65655e-11
-3.30552e-13
-5.742e-11
3.28556e-13
0.000399268
5.75728e-11
-3.41839e-13
-5.84365e-11
3.39796e-13
0.000397219
5.86495e-11
-3.53611e-13
-5.94863e-11
3.51521e-13
0.000395118
5.97294e-11
-3.6605e-13
-6.05748e-11
3.63908e-13
0.00039297
6.08818e-11
-3.78994e-13
-6.17004e-11
3.768e-13
0.000390785
6.2042e-11
-3.92689e-13
-6.28683e-11
3.90439e-13
0.000388566
6.32777e-11
-4.06905e-13
-6.40773e-11
4.04598e-13
0.000386322
6.45258e-11
-4.21977e-13
-6.53324e-11
4.19609e-13
0.000384056
6.5853e-11
-4.37571e-13
-6.6633e-11
4.35141e-13
0.000381774
6.7198e-11
-4.54152e-13
-6.7984e-11
4.51655e-13
0.000379479
6.86255e-11
-4.7124e-13
-6.93854e-11
4.68676e-13
0.000377176
7.00764e-11
-4.89477e-13
-7.08417e-11
4.8684e-13
0.000374867
7.1614e-11
-5.08179e-13
-7.23536e-11
5.05468e-13
0.000372555
7.31817e-11
-5.2824e-13
-7.39254e-11
5.2545e-13
0.000370244
7.48401e-11
-5.48685e-13
-7.55586e-11
5.45815e-13
0.000367934
7.65355e-11
-5.7076e-13
-7.7257e-11
5.67804e-13
0.000365628
7.83261e-11
-5.93081e-13
-7.90232e-11
5.90037e-13
0.000363327
8.01621e-11
-6.1739e-13
-8.08605e-11
6.14253e-13
0.000361033
8.20974e-11
-6.41721e-13
-8.27726e-11
6.38489e-13
0.000358746
8.40872e-11
-6.68519e-13
-8.47621e-11
6.65185e-13
0.000356467
8.61808e-11
-6.94995e-13
-8.68341e-11
6.91559e-13
0.000354198
8.834e-11
-7.24582e-13
-8.89903e-11
7.21035e-13
0.000351938
9.0607e-11
-7.5333e-13
-9.12375e-11
7.49671e-13
0.000349688
9.29516e-11
-7.86067e-13
-9.35765e-11
7.82288e-13
0.000347449
9.54081e-11
-8.17194e-13
-9.60157e-11
8.13294e-13
0.000345222
9.79567e-11
-8.53512e-13
-9.85552e-11
8.49482e-13
0.000343007
1.00621e-10
-8.8709e-13
-1.01205e-10
8.82927e-13
0.000340805
1.03393e-10
-9.27523e-13
-1.03964e-10
9.23218e-13
0.000338617
1.06283e-10
-9.6357e-13
-1.06843e-10
9.59121e-13
0.000336443
1.09302e-10
-1.00878e-12
-1.09844e-10
1.00418e-12
0.000334284
1.1244e-10
-1.04722e-12
-1.12976e-10
1.04246e-12
0.000332142
1.15729e-10
-1.09807e-12
-1.16241e-10
1.09314e-12
0.000330016
1.19138e-10
-1.13868e-12
-1.19648e-10
1.13358e-12
0.000327908
1.22725e-10
-1.19625e-12
-1.23205e-10
1.19097e-12
0.000325819
1.26429e-10
-1.23861e-12
-1.26914e-10
1.23315e-12
0.000323749
1.30345e-10
-1.30433e-12
-1.3079e-10
1.29867e-12
0.000321701
1.3437e-10
-1.3477e-12
-1.34829e-10
1.34184e-12
0.000319676
1.38649e-10
-1.42347e-12
-1.39057e-10
1.41739e-12
0.000317674
1.43024e-10
-1.46665e-12
-1.43456e-10
1.46035e-12
0.000315699
1.47705e-10
-1.55504e-12
-1.48073e-10
1.5485e-12
0.000313751
1.5246e-10
-1.59613e-12
-1.52864e-10
1.58936e-12
0.000311833
1.57587e-10
-1.70064e-12
-1.57912e-10
1.69362e-12
0.000309947
1.62754e-10
-1.73676e-12
-1.63128e-10
1.72948e-12
0.000308096
1.68376e-10
-1.86223e-12
-1.68653e-10
1.85467e-12
0.000306283
1.73987e-10
-1.88901e-12
-1.74332e-10
1.88116e-12
0.000304509
1.80162e-10
-2.04217e-12
-1.80387e-10
2.03402e-12
0.000302778
1.86251e-10
-2.0531e-12
-1.86565e-10
2.04464e-12
0.000301093
1.93046e-10
-2.24341e-12
-1.93213e-10
2.23463e-12
0.000299457
1.99644e-10
-2.22886e-12
-1.99926e-10
2.21973e-12
0.000297872
2.07138e-10
-2.46972e-12
-2.07241e-10
2.46023e-12
0.000296342
2.14273e-10
-2.41549e-12
-2.14522e-10
2.40563e-12
0.00029487
2.2256e-10
-2.72592e-12
-2.22592e-10
2.71568e-12
0.000293458
2.30254e-10
-2.61117e-12
-2.30471e-10
2.60053e-12
0.000292108
2.39449e-10
-3.01845e-12
-2.39403e-10
3.00738e-12
0.000290821
2.47715e-10
-2.8126e-12
-2.47898e-10
2.80109e-12
0.000289597
2.57959e-10
-3.35592e-12
-2.57824e-10
3.34395e-12
0.000288435
2.6679e-10
-3.01417e-12
-2.66938e-10
3.00171e-12
0.000287333
2.78262e-10
-3.75017e-12
-2.78027e-10
3.73721e-12
0.000286288
2.87623e-10
-3.20683e-12
-2.87734e-10
3.19335e-12
0.000285296
3.00552e-10
-4.21765e-12
-3.00205e-10
4.20362e-12
0.000284353
3.10364e-10
-3.37644e-12
-3.10437e-10
3.36184e-12
0.000283454
3.25052e-10
-4.78163e-12
-3.24576e-10
4.76643e-12
0.000282595
3.35167e-10
-3.50118e-12
-3.35201e-10
3.48535e-12
0.000281771
3.52016e-10
-5.47528e-12
-3.51397e-10
5.4588e-12
0.000280981
3.62183e-10
-3.54778e-12
-3.6218e-10
3.53062e-12
0.000280224
3.81744e-10
-6.34648e-12
-3.80966e-10
6.32862e-12
0.000279502
3.9156e-10
-3.46584e-12
-3.91522e-10
3.44723e-12
0.000278816
4.14587e-10
-7.46474e-12
-4.1364e-10
7.44536e-12
0.000278172
4.2342e-10
-3.17927e-12
-4.23352e-10
3.15908e-12
0.000277574
4.50985e-10
-8.9318e-12
-4.49853e-10
8.91077e-12
0.000277027
4.57861e-10
-2.57339e-12
-4.57759e-10
2.55146e-12
0.000276537
4.91497e-10
-1.08974e-11
-4.90144e-10
1.08746e-11
0.000276106
4.94904e-10
-1.47546e-12
-4.94762e-10
1.45162e-12
0.000275739
5.36815e-10
-1.35833e-11
-5.352e-10
1.35585e-11
0.000275435
5.34276e-10
3.74777e-13
-5.34263e-10
-4.00713e-13
0.000275197
5.87609e-10
-1.73196e-11
-5.85924e-10
1.72926e-11
0.000275023
5.75403e-10
3.36981e-12
-5.7598e-10
-3.39803e-12
0.00027491
6.43928e-10
-2.25995e-11
-6.43512e-10
2.25702e-11
0.000274854
6.58282e-10
-4.82279e-12
-6.58105e-10
4.79224e-12
0.000274851
7.4733e-10
-2.96897e-11
-7.46946e-10
2.96577e-11
0.000274895
8.02362e-10
-1.83558e-11
-8.02091e-10
1.83225e-11
0.000274982
9.18513e-10
-3.87126e-11
-9.18031e-10
3.86777e-11
0.00027511
1.02216e-09
-3.45224e-11
-1.02163e-09
3.44861e-11
0.000275276
1.17145e-09
-4.97428e-11
-1.17069e-09
4.97047e-11
0.000275481
1.33208e-09
-5.35227e-11
-1.33125e-09
5.3483e-11
0.000275728
1.45183e-09
-3.99716e-11
-1.45103e-09
3.99306e-11
0.000276024
1.603e-09
-5.03922e-11
-1.60216e-09
5.03492e-11
0.00027637
1.68483e-09
-2.73299e-11
-1.68404e-09
2.72854e-11
0.000276771
1.82568e-09
-4.69414e-11
-1.82477e-09
4.68949e-11
0.000277228
1.8658e-09
-1.34238e-11
-1.86498e-09
1.33756e-11
0.000277742
1.99657e-09
-4.36378e-11
-1.99574e-09
4.35874e-11
0.000278314
1.99221e-09
1.36641e-12
-1.99164e-09
-1.41884e-12
0.00027894
2.11632e-09
-4.11335e-11
-2.1148e-09
4.10788e-11
0.000279618
2.12611e-09
-3.89876e-12
-2.12656e-09
3.84103e-12
0.00028034
2.24625e-09
-3.94997e-11
-2.24472e-09
3.94403e-11
0.000281088
2.27245e-09
-9.31771e-12
-2.2728e-09
9.25534e-12
0.000281843
2.38982e-09
-3.86474e-11
-2.38831e-09
3.85827e-11
0.000282583
2.43132e-09
-1.4356e-11
-2.43155e-09
1.42886e-11
0.000283279
2.5481e-09
-3.84945e-11
-2.54654e-09
3.84244e-11
0.000283902
2.60401e-09
-1.91088e-11
-2.60405e-09
1.90358e-11
0.000284423
2.72209e-09
-3.89729e-11
-2.72042e-09
3.88969e-11
0.000284815
2.79178e-09
-2.36589e-11
-2.79159e-09
2.35799e-11
0.000285062
2.91289e-09
-4.00261e-11
-2.91109e-09
3.9944e-11
0.000285155
2.99597e-09
-2.80799e-11
-2.99551e-09
2.79946e-11
0.000285091
3.12168e-09
-4.16076e-11
-3.11972e-09
4.1519e-11
0.000284869
3.21796e-09
-3.24379e-11
-3.21719e-09
3.23459e-11
0.000284482
3.34975e-09
-4.36787e-11
-3.3476e-09
4.35832e-11
0.000283917
3.45919e-09
-3.67929e-11
-3.45811e-09
3.66938e-11
0.000283156
3.59845e-09
-4.62085e-11
-3.59609e-09
4.61057e-11
0.000282178
3.72119e-09
-4.11995e-11
-3.71978e-09
4.10929e-11
0.000280958
3.86924e-09
-4.91744e-11
-3.86666e-09
4.90639e-11
0.000279472
4.0056e-09
-4.57091e-11
-4.00384e-09
4.55945e-11
0.000277698
4.16371e-09
-5.25633e-11
-4.16088e-09
5.24445e-11
0.000275612
4.31412e-09
-5.03718e-11
-4.312e-09
5.02488e-11
0.000273193
4.48357e-09
-5.63717e-11
-4.48046e-09
5.62444e-11
0.000270433
4.64865e-09
-5.52427e-11
-4.64615e-09
5.51109e-11
0.000267342
4.83073e-09
-6.06073e-11
-4.82733e-09
6.04708e-11
0.000263943
5.01124e-09
-6.03699e-11
-5.00834e-09
6.02286e-11
0.000260274
5.20728e-09
-6.52863e-11
-5.20356e-09
6.51402e-11
0.000256373
5.40414e-09
-6.58069e-11
-5.40083e-09
6.56557e-11
0.000252268
5.61555e-09
-7.04304e-11
-5.61148e-09
7.02739e-11
0.00024797
5.82985e-09
-7.16091e-11
-5.8261e-09
7.14472e-11
0.000243467
6.0581e-09
-7.60649e-11
-6.05366e-09
7.58975e-11
0.000238718
6.2911e-09
-7.78286e-11
-6.28689e-09
7.76554e-11
0.000233681
6.53776e-09
-8.22233e-11
-6.53292e-09
8.20441e-11
0.000228327
6.79087e-09
-8.45231e-11
-6.78617e-09
8.43379e-11
0.000222656
7.05766e-09
-8.8951e-11
-7.05239e-09
8.87593e-11
0.000216691
7.3325e-09
-9.17589e-11
-7.32729e-09
9.15608e-11
0.00021046
7.62129e-09
-9.63041e-11
-7.61557e-09
9.60991e-11
0.00020399
7.91969e-09
-9.9607e-11
-7.91394e-09
9.9395e-11
0.000197306
8.23255e-09
-1.04344e-10
-8.22634e-09
1.04125e-10
0.000190444
8.55657e-09
-1.08139e-10
-8.55025e-09
1.07912e-10
0.00018345
8.89574e-09
-1.13133e-10
-8.88901e-09
1.12898e-10
0.000176379
9.24763e-09
-1.17423e-10
-9.24069e-09
1.1718e-10
0.000169282
9.61553e-09
-1.22728e-10
-9.60823e-09
1.22476e-10
0.000162174
9.99772e-09
-1.27519e-10
-9.99013e-09
1.27258e-10
0.000155028
1.03969e-08
-1.33179e-10
-1.0389e-08
1.32909e-10
0.000147771
1.0812e-08
-1.38479e-10
-1.08037e-08
1.382e-10
0.000140301
1.12452e-08
-1.44538e-10
-1.12367e-08
1.44249e-10
0.000132506
1.1696e-08
-1.50368e-10
-1.1687e-08
1.50069e-10
0.00012429
1.21661e-08
-1.56879e-10
-1.21569e-08
1.5657e-10
0.00011556
1.26557e-08
-1.6328e-10
-1.26459e-08
1.62959e-10
0.000106239
1.31661e-08
-1.70313e-10
-1.31561e-08
1.6998e-10
9.63255e-05
1.36978e-08
-1.77345e-10
-1.36871e-08
1.77001e-10
8.59323e-05
1.42521e-08
-1.84984e-10
-1.42414e-08
1.84627e-10
7.52719e-05
1.483e-08
-1.92718e-10
-1.48184e-08
1.92348e-10
6.45956e-05
1.54324e-08
-2.01034e-10
-1.54209e-08
2.00651e-10
5.41347e-05
1.60607e-08
-2.0951e-10
-1.60481e-08
2.09112e-10
4.40997e-05
1.67155e-08
-2.18533e-10
-1.67031e-08
2.1812e-10
3.46476e-05
1.73985e-08
-2.27742e-10
-1.73849e-08
2.27313e-10
2.57785e-05
1.811e-08
-2.37453e-10
-1.80966e-08
2.37007e-10
1.72832e-05
1.88519e-08
-2.47358e-10
-1.88371e-08
2.46895e-10
8.84288e-06
1.9624e-08
-2.57724e-10
-1.96096e-08
2.57243e-10
2.14798e-07
2.04288e-08
-2.68285e-10
-2.04127e-08
2.67787e-10
-8.5921e-06
2.12651e-08
-2.79197e-10
-2.12496e-08
2.78679e-10
-1.73355e-05
2.21375e-08
-2.90778e-10
-2.212e-08
2.9024e-10
-2.5683e-05
2.30445e-08
-3.02816e-10
-2.30278e-08
3.02257e-10
-3.33637e-05
2.39914e-08
-3.15619e-10
-2.39725e-08
3.15041e-10
-4.02144e-05
2.49764e-08
-3.28834e-10
-2.49584e-08
3.28233e-10
-4.61427e-05
2.60052e-08
-3.42882e-10
-2.59847e-08
3.4226e-10
-5.12069e-05
2.70752e-08
-3.5723e-10
-2.70558e-08
3.56583e-10
-5.56224e-05
2.81929e-08
-3.72498e-10
-2.81707e-08
3.71829e-10
-5.96428e-05
2.93547e-08
-3.87917e-10
-2.93339e-08
3.87223e-10
-6.34925e-05
3.05683e-08
-4.04416e-10
-3.05443e-08
4.037e-10
-6.73857e-05
3.18289e-08
-4.20897e-10
-3.18064e-08
4.20153e-10
-7.15791e-05
3.31454e-08
-4.38723e-10
-3.31195e-08
4.37956e-10
-7.63878e-05
3.45121e-08
-4.56338e-10
-3.4488e-08
4.55543e-10
-8.21221e-05
3.59398e-08
-4.75737e-10
-3.59118e-08
4.7492e-10
-8.90433e-05
3.74215e-08
-4.94734e-10
-3.73956e-08
4.93887e-10
-9.73382e-05
3.89708e-08
-5.16249e-10
-3.89407e-08
5.15379e-10
-0.000107077
4.05795e-08
-5.37164e-10
-4.05518e-08
5.36263e-10
-0.000118305
4.22655e-08
-5.6175e-10
-4.22331e-08
5.60826e-10
-0.000131116
4.40188e-08
-5.85452e-10
-4.39891e-08
5.84493e-10
-0.000145473
4.58635e-08
-6.14583e-10
-4.58285e-08
6.13601e-10
-0.00016115
4.77871e-08
-6.42297e-10
-4.77551e-08
6.41278e-10
-0.000177928
4.98224e-08
-6.78047e-10
-4.97844e-08
6.77004e-10
-0.000195777
5.19524e-08
-7.11187e-10
-5.19177e-08
7.10102e-10
-0.000214854
5.42229e-08
-7.5633e-10
-5.41811e-08
7.5522e-10
-0.000235233
5.66092e-08
-7.96586e-10
-5.65705e-08
7.95431e-10
-0.000256648
5.91769e-08
-8.55276e-10
-5.913e-08
8.54095e-10
-0.00027853
6.1887e-08
-9.046e-10
-6.18433e-08
9.03369e-10
-0.000300221
6.48374e-08
-9.82635e-10
-6.4784e-08
9.81376e-10
-0.000321225
6.79598e-08
-1.04203e-09
-6.79094e-08
1.04071e-09
-0.000341042
7.14036e-08
-1.14698e-09
-7.13422e-08
1.14564e-09
-0.00035879
7.50444e-08
-1.21495e-09
-7.49866e-08
1.21354e-09
-0.000373405
7.91189e-08
-1.35716e-09
-7.90491e-08
1.35572e-09
-0.000384299
8.33953e-08
-1.42695e-09
-8.33296e-08
1.42544e-09
-0.000391819
8.82614e-08
-1.6211e-09
-8.81833e-08
1.61955e-09
-0.00039715
9.32898e-08
-1.6778e-09
-9.32167e-08
1.67617e-09
-0.000401791
9.91387e-08
-1.94894e-09
-9.90535e-08
1.94727e-09
-0.000406871
1.05033e-07
-1.96652e-09
-1.04954e-07
1.96476e-09
-0.000412576
1.12116e-07
-2.36057e-09
-1.12025e-07
2.35877e-09
-0.000418254
1.18984e-07
-2.29123e-09
-1.189e-07
2.28932e-09
-0.00042298
1.27655e-07
-2.89042e-09
-1.2756e-07
2.88847e-09
-0.000425893
1.35573e-07
-2.64108e-09
-1.35484e-07
2.63902e-09
-0.000426387
1.4634e-07
-3.58967e-09
-1.46237e-07
3.58758e-09
-0.000424278
1.55292e-07
-2.98491e-09
-1.5519e-07
2.98273e-09
-0.000419849
1.689e-07
-4.53601e-09
-1.68778e-07
4.53381e-09
-0.000413393
1.78682e-07
-3.25967e-09
-1.7856e-07
3.25738e-09
-0.000404514
1.96231e-07
-5.85571e-09
-1.96114e-07
5.85337e-09
-0.000392511
2.06243e-07
-3.35195e-09
-2.06187e-07
3.3494e-09
-0.000377591
2.29466e-07
-7.74868e-09
-2.29406e-07
7.74583e-09
-0.000360724
2.3874e-07
-3.06672e-09
-2.38573e-07
3.06354e-09
-0.000343375
2.70894e-07
-1.05218e-08
-2.70024e-07
1.05182e-08
-0.000327086
2.77433e-07
-2.08829e-09
-2.76184e-07
2.08486e-09
-0.000312714
3.09526e-07
-1.07259e-08
-3.08348e-07
1.07229e-08
-0.000300038
3.09516e-07
-1.23049e-10
-3.08913e-07
1.21013e-10
-0.000288589
3.28947e-07
-7.28447e-09
-3.3111e-07
7.2832e-09
-0.000278857
3.1806e-07
3.008e-09
-3.22325e-07
-3.00981e-09
-0.00027179
3.27459e-07
-2.40524e-09
-3.29408e-07
2.40142e-09
-0.000267204
2.79309e-07
1.6803e-08
-2.78728e-07
-1.67996e-08
-0.000263563
2.38786e-07
1.34985e-08
-2.38022e-07
-1.34955e-08
-0.000259615
1.66183e-07
2.41811e-08
-1.65437e-07
-2.41772e-08
-0.000256424
9.73399e-08
2.28681e-08
-9.68665e-08
-2.28637e-08
-0.000256065
3.36495e-08
-3.71934e-09
-3.36445e-08
4.00337e-09
7.06109e-07
-3.7511e-12
3.75778e-12
2.15805e-06
-9.41723e-12
9.40922e-12
3.67175e-06
-1.41056e-11
1.40825e-11
5.24917e-06
-1.69507e-11
1.69078e-11
6.8923e-06
-1.85254e-11
1.84773e-11
8.60321e-06
-1.949e-11
1.94368e-11
1.03841e-05
-2.01543e-11
2.0099e-11
1.22372e-05
-2.06564e-11
2.05977e-11
1.4165e-05
-2.10587e-11
2.09996e-11
1.61701e-05
-2.1398e-11
2.13361e-11
1.82551e-05
-2.16914e-11
2.16294e-11
2.04229e-05
-2.19539e-11
2.18892e-11
2.26764e-05
-2.21909e-11
2.2126e-11
2.50187e-05
-2.24105e-11
2.23432e-11
2.7453e-05
-2.26144e-11
2.25468e-11
2.99826e-05
-2.28079e-11
2.27378e-11
3.26109e-05
-2.29909e-11
2.29205e-11
3.53415e-05
-2.31676e-11
2.30945e-11
3.8178e-05
-2.3337e-11
2.32635e-11
4.1124e-05
-2.35026e-11
2.34264e-11
4.41833e-05
-2.3663e-11
2.35863e-11
4.73597e-05
-2.38215e-11
2.37419e-11
5.0657e-05
-2.39762e-11
2.3896e-11
5.40789e-05
-2.41302e-11
2.4047e-11
5.76292e-05
-2.42815e-11
2.41976e-11
6.13117e-05
-2.44331e-11
2.43461e-11
6.513e-05
-2.4583e-11
2.4495e-11
6.90876e-05
-2.47338e-11
2.46427e-11
7.31879e-05
-2.48837e-11
2.47914e-11
7.7434e-05
-2.50352e-11
2.49397e-11
8.1829e-05
-2.51863e-11
2.50895e-11
8.63756e-05
-2.53397e-11
2.52395e-11
9.10763e-05
-2.54933e-11
2.53915e-11
9.59332e-05
-2.56496e-11
2.55443e-11
0.000100948
-2.58066e-11
2.56997e-11
0.000106122
-2.59669e-11
2.58563e-11
0.000111457
-2.61284e-11
2.60159e-11
0.000116952
-2.62936e-11
2.61774e-11
0.000122607
-2.64606e-11
2.63423e-11
0.000128423
-2.66317e-11
2.65096e-11
0.000134397
-2.68052e-11
2.66808e-11
0.000140528
-2.69833e-11
2.68549e-11
0.000146813
-2.71643e-11
2.70334e-11
0.000153248
-2.73503e-11
2.72154e-11
0.000159831
-2.75399e-11
2.74022e-11
0.000166555
-2.7735e-11
2.75931e-11
0.000173415
-2.79341e-11
2.77894e-11
0.000180405
-2.81394e-11
2.79904e-11
0.000187517
-2.83494e-11
2.81972e-11
0.000194743
-2.8566e-11
2.84094e-11
0.000202074
-2.8788e-11
2.86281e-11
0.0002095
-2.90172e-11
2.88528e-11
0.00021701
-2.92524e-11
2.90845e-11
0.000224592
-2.94955e-11
2.93229e-11
0.000232234
-2.97453e-11
2.9569e-11
0.000239921
-3.00035e-11
2.98225e-11
0.00024764
-3.02692e-11
3.00842e-11
0.000255376
-3.05438e-11
3.03541e-11
0.000263112
-3.08265e-11
3.06328e-11
0.000270833
-3.11189e-11
3.09203e-11
0.00027852
-3.14199e-11
3.12172e-11
0.000286156
-3.17312e-11
3.15234e-11
0.000293724
-3.20518e-11
3.18397e-11
0.000301204
-3.23829e-11
3.21658e-11
0.000308578
-3.2724e-11
3.25022e-11
0.000315827
-3.30759e-11
3.28491e-11
0.000322933
-3.34381e-11
3.32065e-11
0.000329876
-3.38113e-11
3.35746e-11
0.000336639
-3.41949e-11
3.39534e-11
0.000343204
-3.45898e-11
3.4343e-11
0.000349554
-3.49954e-11
3.47436e-11
0.000355672
-3.54122e-11
3.51548e-11
0.000361544
-3.58395e-11
3.5577e-11
0.000367155
-3.6278e-11
3.60096e-11
0.000372493
-3.67272e-11
3.64534e-11
0.000377546
-3.71871e-11
3.69073e-11
0.000382305
-3.76577e-11
3.73725e-11
0.00038676
-3.81391e-11
3.78477e-11
0.000390906
-3.86317e-11
3.83341e-11
0.000394737
-3.91346e-11
3.88307e-11
0.000398251
-3.96492e-11
3.93387e-11
0.000401447
-4.01739e-11
3.98574e-11
0.000404323
-4.07117e-11
4.03875e-11
0.000406883
-4.12591e-11
4.09291e-11
0.000409131
-4.18205e-11
4.14826e-11
0.000411071
-4.23919e-11
4.20483e-11
0.00041271
-4.29792e-11
4.26267e-11
0.000414056
-4.35766e-11
4.32184e-11
0.000415117
-4.41913e-11
4.38238e-11
0.000415904
-4.48167e-11
4.44439e-11
0.000416428
-4.5462e-11
4.50787e-11
0.0004167
-4.61182e-11
4.57297e-11
0.000416733
-4.67962e-11
4.63971e-11
0.000416539
-4.74863e-11
4.70823e-11
0.000416132
-4.82013e-11
4.77854e-11
0.000415524
-4.89291e-11
4.85083e-11
0.000414729
-4.9684e-11
4.92512e-11
0.00041376
-5.04533e-11
5.00159e-11
0.00041263
-5.12531e-11
5.08026e-11
0.000411353
-5.20686e-11
5.16135e-11
0.00040994
-5.29172e-11
5.24489e-11
0.000408404
-5.37834e-11
5.3311e-11
0.000406757
-5.46867e-11
5.42e-11
0.000405009
-5.56093e-11
5.51184e-11
0.000403172
-5.65722e-11
5.60669e-11
0.000401255
-5.75569e-11
5.70476e-11
0.000399268
-5.85861e-11
5.80615e-11
0.000397219
-5.96393e-11
5.91108e-11
0.000395118
-6.07408e-11
6.01969e-11
0.000392971
-6.18694e-11
6.13218e-11
0.000390785
-6.3051e-11
6.24873e-11
0.000388567
-6.42628e-11
6.36952e-11
0.000386322
-6.55317e-11
6.49482e-11
0.000384056
-6.68349e-11
6.62473e-11
0.000381774
-6.82003e-11
6.75964e-11
0.000379479
-6.96039e-11
6.89956e-11
0.000377176
-7.10746e-11
7.04504e-11
0.000374867
-7.25884e-11
7.19595e-11
0.000372555
-7.41751e-11
7.35301e-11
0.000370244
-7.58099e-11
7.51596e-11
0.000367934
-7.75233e-11
7.68576e-11
0.000365628
-7.92907e-11
7.86191e-11
0.000363327
-8.11434e-11
8.04568e-11
0.000361033
-8.30564e-11
8.23628e-11
0.000358746
-8.50612e-11
8.4354e-11
0.000356467
-8.71338e-11
8.64181e-11
0.000354198
-8.93056e-11
8.85777e-11
0.000351938
-9.15531e-11
9.08149e-11
0.000349688
-9.39078e-11
9.31593e-11
0.00034745
-9.63469e-11
9.55859e-11
0.000345222
-9.89021e-11
9.81333e-11
0.000343008
-1.01551e-10
1.00767e-10
0.000340806
-1.04326e-10
1.03538e-10
0.000338617
-1.07205e-10
1.06397e-10
0.000336443
-1.10222e-10
1.09413e-10
0.000334284
-1.13353e-10
1.12521e-10
0.000332142
-1.16634e-10
1.15806e-10
0.000330016
-1.2004e-10
1.19184e-10
0.000327908
-1.23612e-10
1.22767e-10
0.000325819
-1.2732e-10
1.26439e-10
0.00032375
-1.31212e-10
1.3035e-10
0.000321702
-1.3525e-10
1.34343e-10
0.000319676
-1.39494e-10
1.38616e-10
0.000317674
-1.43891e-10
1.42958e-10
0.000315699
-1.48525e-10
1.47632e-10
0.000313751
-1.53314e-10
1.52354e-10
0.000311833
-1.58377e-10
1.57472e-10
0.000309948
-1.63593e-10
1.62605e-10
0.000308097
-1.69133e-10
1.68217e-10
0.000306283
-1.7481e-10
1.73794e-10
0.000304509
-1.80882e-10
1.79958e-10
0.000302778
-1.87057e-10
1.86011e-10
0.000301093
-1.93722e-10
1.92794e-10
0.000299457
-2.00433e-10
1.99355e-10
0.000297872
-2.07764e-10
2.06836e-10
0.000296343
-2.15044e-10
2.13933e-10
0.000294871
-2.2313e-10
2.22205e-10
0.000293458
-2.31007e-10
2.29862e-10
0.000292108
-2.39955e-10
2.3904e-10
0.000290821
-2.48449e-10
2.47266e-10
0.000289597
-2.58391e-10
2.57492e-10
0.000288435
-2.67504e-10
2.66282e-10
0.000287333
-2.7861e-10
2.77733e-10
0.000286288
-2.88316e-10
2.87052e-10
0.000285296
-3.00803e-10
2.99959e-10
0.000284353
-3.11035e-10
3.09726e-10
0.000283454
-3.2519e-10
3.2439e-10
0.000282595
-3.35815e-10
3.34458e-10
0.000281772
-3.52028e-10
3.51281e-10
0.000280982
-3.62812e-10
3.614e-10
0.000280225
-3.81614e-10
3.80932e-10
0.000279502
-3.92171e-10
3.90699e-10
0.000278816
-4.14306e-10
4.13693e-10
0.000278172
-4.2402e-10
4.22473e-10
0.000277574
-4.50537e-10
4.50004e-10
0.000277028
-4.58447e-10
4.56817e-10
0.000276537
-4.90848e-10
4.90414e-10
0.000276107
-4.9547e-10
4.93745e-10
0.000275739
-5.35926e-10
5.35599e-10
0.000275436
-5.34993e-10
5.32999e-10
0.000275198
-5.86672e-10
5.86271e-10
0.000275023
-5.76732e-10
5.74188e-10
0.000274911
-6.44282e-10
6.4265e-10
0.000274855
-6.58881e-10
6.56929e-10
0.000274851
-7.4774e-10
7.45902e-10
0.000274895
-8.02892e-10
8.00845e-10
0.000274983
-9.18852e-10
9.16903e-10
0.000275111
-1.02246e-09
1.02042e-09
0.000275277
-1.17154e-09
1.16959e-09
0.000275481
-1.33211e-09
1.3301e-09
0.000275729
-1.45191e-09
1.44984e-09
0.000276024
-1.60305e-09
1.60092e-09
0.00027637
-1.68495e-09
1.68273e-09
0.000276772
-1.8257e-09
1.82345e-09
0.000277229
-1.86593e-09
1.86353e-09
0.000277743
-1.9967e-09
1.99416e-09
0.000278314
-1.99263e-09
1.98978e-09
0.000278941
-2.1158e-09
2.11372e-09
0.000279619
-2.12759e-09
2.12339e-09
0.00028034
-2.24576e-09
2.24339e-09
0.000281088
-2.27387e-09
2.26944e-09
0.000281844
-2.38941e-09
2.38673e-09
0.000282584
-2.43268e-09
2.42808e-09
0.00028328
-2.54769e-09
2.54476e-09
0.000283903
-2.60524e-09
2.60053e-09
0.000284423
-2.72164e-09
2.71848e-09
0.000284816
-2.79285e-09
2.78804e-09
0.000285063
-2.91237e-09
2.90899e-09
0.000285156
-2.99683e-09
2.99193e-09
0.000285092
-3.12108e-09
3.11747e-09
0.00028487
-3.2186e-09
3.21359e-09
0.000284483
-3.34904e-09
3.34521e-09
0.000283918
-3.4596e-09
3.45447e-09
0.000283157
-3.59763e-09
3.59355e-09
0.000282179
-3.72137e-09
3.71611e-09
0.000280959
-3.8683e-09
3.86396e-09
0.000279473
-4.00553e-09
4.00011e-09
0.000277699
-4.16263e-09
4.15802e-09
0.000275613
-4.31381e-09
4.30821e-09
0.000273194
-4.48234e-09
4.47744e-09
0.000270434
-4.64809e-09
4.64229e-09
0.000267342
-4.82933e-09
4.82413e-09
0.000263944
-5.01042e-09
5.0044e-09
0.000260274
-5.2057e-09
5.20019e-09
0.000256373
-5.40305e-09
5.39679e-09
0.000252269
-5.61378e-09
5.60793e-09
0.000247971
-5.82849e-09
5.82196e-09
0.000243467
-6.05613e-09
6.04992e-09
0.000238718
-6.28945e-09
6.28263e-09
0.000233681
-6.53557e-09
6.52899e-09
0.000228327
-6.78892e-09
6.78179e-09
0.000222656
-7.05524e-09
7.04825e-09
0.000216691
-7.33024e-09
7.32276e-09
0.000210459
-7.61862e-09
7.61121e-09
0.000203989
-7.91711e-09
7.90927e-09
0.000197306
-8.22962e-09
8.22176e-09
0.000190443
-8.55365e-09
8.54541e-09
0.000183448
-8.89253e-09
8.88418e-09
0.000176377
-9.24435e-09
9.23568e-09
0.000169281
-9.61202e-09
9.60316e-09
0.000162173
-9.99406e-09
9.98493e-09
0.000155026
-1.03931e-08
1.03837e-08
0.000147769
-1.08079e-08
1.07983e-08
0.000140298
-1.1241e-08
1.1231e-08
0.000132503
-1.16915e-08
1.16813e-08
0.000124287
-1.21616e-08
1.2151e-08
0.000115556
-1.26507e-08
1.264e-08
0.000106235
-1.31612e-08
1.31499e-08
9.63215e-05
-1.36924e-08
1.36811e-08
8.59281e-05
-1.42468e-08
1.42348e-08
7.52675e-05
-1.4824e-08
1.48121e-08
6.45911e-05
-1.54267e-08
1.54139e-08
5.413e-05
-1.60541e-08
1.60415e-08
4.40949e-05
-1.67093e-08
1.66956e-08
3.46427e-05
-1.73913e-08
1.7378e-08
2.57736e-05
-1.81032e-08
1.80887e-08
1.72783e-05
-1.8844e-08