/*--------------------------------*- C++ -*----------------------------------*\
| =========                 |                                                 |
| \\      /  F ield         | OpenFOAM: The Open Source CFD Toolbox           |
|  \\    /   O peration     | Version:  2012                                  |
|   \\  /    A nd           | Website:  www.openfoam.com                      |
|    \\/     M anipulation  |                                                 |
\*---------------------------------------------------------------------------*/
FoamFile
{
    version     2.0;
    format      ascii;
    class       volSymmTensorField;
    location    "15000";
    object      turbulenceProperties:R;
}
// * * * * * * * * * * * * * * * * * * * * * * * * * * * * * * * * * * * * * //

dimensions      [0 2 -2 0 0 0 0];


internalField   nonuniform List<symmTensor> 
2560
(
(0.00511924 -6.78764e-06 -9.83037e-09 0.00511924 2.93704e-12 0.00511924)
(0.00511924 -6.78765e-06 -9.83037e-09 0.00511924 2.38387e-15 0.00511924)
(0.122746 -0.000936476 -4.09002e-06 0.122746 -9.77141e-31 0.122746)
(0.122746 -0.000936476 -4.09002e-06 0.122746 9.42968e-13 0.122746)
(0.850956 -0.0194362 -0.000116611 0.850956 -3.24971e-09 0.850956)
(0.850957 -0.0194362 -0.000116611 0.850957 2.86239e-11 0.850957)
(2.63691 -0.129001 -0.000785192 2.63691 -2.2848e-08 2.63691)
(2.63691 -0.129001 -0.000785193 2.63691 1.84486e-10 2.63691)
(4.91812 -0.402758 -0.00248705 4.91812 -4.21002e-08 4.91812)
(4.91812 -0.402758 -0.00248705 4.91812 4.2038e-10 4.91812)
(7.08566 -0.817501 -0.00512145 7.08566 -4.13706e-08 7.08566)
(7.08566 -0.817501 -0.00512145 7.08566 8.86658e-10 7.08566)
(9.03261 -1.32446 -0.00841815 9.03261 -3.50737e-08 9.03261)
(9.03261 -1.32446 -0.00841815 9.03261 1.59761e-09 9.03261)
(10.7967 -1.89174 -0.0121988 10.7967 -3.06847e-08 10.7967)
(10.7967 -1.89174 -0.0121988 10.7967 2.67405e-09 10.7967)
(12.4219 -2.50075 -0.0163611 12.4219 -2.90276e-08 12.4219)
(12.4219 -2.50075 -0.0163611 12.4219 4.1039e-09 12.4219)
(13.9405 -3.14004 -0.0208434 13.9405 -2.98544e-08 13.9405)
(13.9405 -3.14004 -0.0208434 13.9405 -3.60278e-09 13.9405)
(15.3748 -3.80212 -0.0256068 15.3748 -3.28954e-08 15.3748)
(15.3748 -3.80212 -0.0256068 15.3748 -2.38101e-08 15.3748)
(16.7405 -4.48176 -0.030625 16.7405 -3.8138e-08 16.7405)
(16.7405 -4.48176 -0.030625 16.7405 -3.82907e-08 16.7405)
(18.0485 -5.17516 -0.03588 18.0485 -4.55886e-08 18.0485)
(18.0485 -5.17516 -0.03588 18.0485 -4.57674e-08 18.0485)
(19.3069 -5.87945 -0.0413587 19.3069 -5.32488e-08 19.3069)
(19.3069 -5.87945 -0.0413587 19.3069 -5.56398e-08 19.3069)
(20.5216 -6.5924 -0.0470516 20.5216 -4.16118e-08 20.5216)
(20.5216 -6.5924 -0.0470516 20.5216 -6.81353e-08 20.5216)
(21.6969 -7.31219 -0.0529515 21.6969 -2.72589e-08 21.6969)
(21.6969 -7.31219 -0.0529515 21.6969 -8.34617e-08 21.6969)
(22.836 -8.03729 -0.0590524 22.836 -3.23813e-08 22.836)
(22.836 -8.03729 -0.0590524 22.836 -4.32165e-08 22.836)
(23.9414 -8.76634 -0.0653492 23.9414 -3.80523e-08 23.9414)
(23.9414 -8.76634 -0.0653492 23.9414 -1.64367e-10 23.9414)
(25.0146 -9.4981 -0.0718366 25.0146 -4.43152e-08 25.0146)
(25.0146 -9.4981 -0.0718366 25.0146 2.09558e-08 25.0146)
(26.0567 -10.2313 -0.0785097 26.0567 -5.11694e-08 26.0567)
(26.0567 -10.2313 -0.0785097 26.0567 -1.67793e-08 26.0567)
(27.0685 -10.9648 -0.0853623 27.0685 -5.86864e-08 27.0685)
(27.0685 -10.9648 -0.0853623 27.0685 -5.89001e-08 27.0685)
(28.0503 -11.6972 -0.0923875 28.0503 -6.67997e-08 28.0503)
(28.0503 -11.6972 -0.0923875 28.0503 -6.70247e-08 28.0503)
(29.002 -12.4271 -0.099577 29.002 -7.5679e-08 29.002)
(29.002 -12.4271 -0.099577 29.002 -7.57096e-08 29.002)
(29.9233 -13.1531 -0.106921 29.9233 -8.516e-08 29.9233)
(29.9233 -13.1531 -0.106921 29.9233 -8.54511e-08 29.9233)
(30.8138 -13.8735 -0.114408 30.8138 -9.56545e-08 30.8138)
(30.8138 -13.8735 -0.114408 30.8138 -9.58251e-08 30.8138)
(31.6727 -14.5865 -0.122023 31.6727 -1.06518e-07 31.6727)
(31.6727 -14.5865 -0.122023 31.6727 -1.0679e-07 31.6727)
(32.4992 -15.29 -0.12975 32.4992 -1.18422e-07 32.4992)
(32.4992 -15.29 -0.12975 32.4992 -1.18459e-07 32.4992)
(33.2922 -15.9821 -0.137572 33.2922 -1.31133e-07 33.2922)
(33.2922 -15.9821 -0.137572 33.2922 -1.31518e-07 33.2922)
(34.0506 -16.6603 -0.145466 34.0506 -1.45051e-07 34.0506)
(34.0506 -16.6603 -0.145466 34.0506 -1.45092e-07 34.0506)
(34.773 -17.3221 -0.153407 34.773 -1.59164e-07 34.773)
(34.773 -17.3221 -0.153407 34.773 -1.59499e-07 34.773)
(35.4582 -17.9649 -0.16137 35.4582 -1.74581e-07 35.4582)
(35.4582 -17.9649 -0.16137 35.4582 -1.74624e-07 35.4582)
(36.1047 -18.5858 -0.169324 36.1047 -1.91029e-07 36.1047)
(36.1047 -18.5858 -0.169324 36.1047 -1.91479e-07 36.1047)
(36.711 -19.1821 -0.177236 36.711 -2.08706e-07 36.711)
(36.711 -19.1821 -0.177236 36.711 -2.08753e-07 36.711)
(37.2757 -19.7504 -0.185071 37.2757 -2.26673e-07 37.2757)
(37.2757 -19.7504 -0.185071 37.2757 -2.26997e-07 37.2757)
(37.7973 -20.2878 -0.19279 37.7973 -2.46266e-07 37.7973)
(37.7973 -20.2878 -0.19279 37.7973 -2.46315e-07 37.7973)
(38.2743 -20.7911 -0.200353 38.2743 -2.66965e-07 38.2743)
(38.2743 -20.7911 -0.200353 38.2743 -2.67426e-07 38.2743)
(38.7053 -21.2568 -0.207717 38.7053 -2.8895e-07 38.7053)
(38.7053 -21.2568 -0.207717 38.7053 -2.89002e-07 38.7053)
(39.0891 -21.6819 -0.214834 39.0891 -3.11333e-07 39.0891)
(39.0891 -21.6819 -0.214834 39.0891 -3.11638e-07 39.0891)
(39.4243 -22.0629 -0.22166 39.4243 -3.35469e-07 39.4243)
(39.4243 -22.0629 -0.22166 39.4243 -3.35524e-07 39.4243)
(39.71 -22.397 -0.228145 39.71 -3.61001e-07 39.71)
(39.71 -22.397 -0.228145 39.71 -3.61446e-07 39.71)
(39.9453 -22.6809 -0.234239 39.9453 -3.88041e-07 39.9453)
(39.9453 -22.6809 -0.234239 39.9453 -3.88098e-07 39.9453)
(40.1293 -22.9117 -0.23989 40.1293 -4.15354e-07 40.1293)
(40.1293 -22.9117 -0.23989 40.1293 -4.15636e-07 40.1293)
(40.2616 -23.0867 -0.245049 40.2616 -4.44548e-07 40.2616)
(40.2616 -23.0867 -0.245049 40.2616 -4.44607e-07 40.2616)
(40.342 -23.2035 -0.249665 40.342 -4.75362e-07 40.342)
(40.342 -23.2035 -0.249665 40.342 -4.75957e-07 40.342)
(40.3704 -23.2598 -0.253687 40.3704 -5.07223e-07 40.3704)
(40.3704 -23.2598 -0.253687 40.3704 -5.07397e-07 40.3704)
(40.3473 -23.2536 -0.257067 40.3473 -5.40465e-07 40.3473)
(40.3473 -23.2536 -0.257067 40.3473 -5.41127e-07 40.3473)
(40.2732 -23.1832 -0.259756 40.2732 -5.745e-07 40.2732)
(40.2732 -23.1832 -0.259756 40.2732 -5.7498e-07 40.2732)
(40.1491 -23.0474 -0.261712 40.1491 -6.12304e-07 40.1491)
(40.1491 -23.0474 -0.261712 40.1491 -6.13258e-07 40.1491)
(39.9765 -22.8452 -0.262888 39.9765 -6.49284e-07 39.9765)
(39.9765 -22.8452 -0.262888 39.9765 -6.4935e-07 39.9765)
(39.7569 -22.576 -0.263247 39.7569 -6.84628e-07 39.7569)
(39.7569 -22.576 -0.263247 39.7569 -6.85009e-07 39.7569)
(39.4926 -22.24 -0.26276 39.4926 -7.27726e-07 39.4926)
(39.4926 -22.24 -0.26276 39.4926 -7.28007e-07 39.4926)
(39.186 -21.8375 -0.261389 39.186 -7.70783e-07 39.186)
(39.186 -21.8375 -0.261389 39.186 -7.73737e-07 39.186)
(38.84 -21.3687 -0.259103 38.84 -8.04194e-07 38.84)
(38.84 -21.3687 -0.259103 38.84 -8.08907e-07 38.84)
(38.4581 -20.835 -0.255891 38.4581 -8.55339e-07 38.4581)
(38.4581 -20.835 -0.255891 38.4581 -8.59821e-07 38.4581)
(38.0437 -20.2382 -0.251728 38.0437 -8.95975e-07 38.0437)
(38.0437 -20.2382 -0.251728 38.0437 -8.98659e-07 38.0437)
(37.601 -19.5797 -0.246601 37.601 -9.43023e-07 37.601)
(37.601 -19.5797 -0.246601 37.601 -9.4309e-07 37.601)
(37.1344 -18.8619 -0.240508 37.1344 -9.89676e-07 37.1344)
(37.1344 -18.8619 -0.240508 37.1344 -9.91595e-07 37.1344)
(36.6485 -18.0876 -0.233442 36.6485 -1.02763e-06 36.6485)
(36.6485 -18.0876 -0.233442 36.6485 -1.03159e-06 36.6485)
(36.1484 -17.2595 -0.225414 36.1484 -1.07804e-06 36.1484)
(36.1484 -17.2595 -0.225414 36.1484 -1.08131e-06 36.1484)
(35.6393 -16.381 -0.216425 35.6393 -1.12151e-06 35.6393)
(35.6393 -16.381 -0.216425 35.6393 -1.12477e-06 35.6393)
(35.1264 -15.455 -0.206486 35.1264 -1.1707e-06 35.1264)
(35.1264 -15.455 -0.206486 35.1264 -1.17319e-06 35.1264)
(34.6153 -14.4848 -0.195608 34.6153 -1.20634e-06 34.6153)
(34.6153 -14.4848 -0.195608 34.6153 -1.20929e-06 34.6153)
(34.1116 -13.4741 -0.183817 34.1116 -1.24761e-06 34.1116)
(34.1116 -13.4741 -0.183817 34.1116 -1.24768e-06 34.1116)
(33.6206 -12.4265 -0.171132 33.6206 -1.29685e-06 33.6206)
(33.6206 -12.4265 -0.171132 33.6206 -1.29905e-06 33.6206)
(33.1478 -11.3453 -0.157563 33.1478 -1.32686e-06 33.1478)
(33.1478 -11.3453 -0.157563 33.1478 -1.32694e-06 33.1478)
(32.6984 -10.2336 -0.143143 32.6984 -1.35804e-06 32.6984)
(32.6984 -10.2336 -0.143143 32.6984 -1.36231e-06 32.6984)
(32.2771 -9.09525 -0.127896 32.2771 -1.39513e-06 32.2771)
(32.2771 -9.09525 -0.127896 32.2771 -1.40052e-06 32.2771)
(31.8886 -7.93314 -0.11184 31.8886 -1.41437e-06 31.8886)
(31.8886 -7.93314 -0.11184 31.8886 -1.42602e-06 31.8886)
(31.5368 -6.75018 -0.0949993 31.5368 -1.45251e-06 31.5368)
(31.5368 -6.75018 -0.0949993 31.5368 -1.46539e-06 31.5368)
(31.2252 -5.54931 -0.0773972 31.2252 -1.44805e-06 31.2252)
(31.2252 -5.54931 -0.0773972 31.2252 -1.46901e-06 31.2252)
(30.9567 -4.33359 -0.0590665 30.9567 -1.49282e-06 30.9567)
(30.9567 -4.33359 -0.0590665 30.9567 -1.51117e-06 30.9567)
(30.7334 -3.10575 -0.0400226 30.7334 -1.48458e-06 30.7334)
(30.7334 -3.10575 -0.0400226 30.7334 -1.50679e-06 30.7334)
(30.5568 -1.8686 -0.0203048 30.5568 -1.52123e-06 30.5568)
(30.5568 -1.8686 -0.0203048 30.5568 -1.53633e-06 30.5568)
(30.4276 -0.000253937 -2.10893e-06 30.4276 -1.5166e-06 30.4276)
(30.4276 -0.000253727 -2.10719e-06 30.4276 -1.53482e-06 30.4276)
(30.3458 0.00634897 -5.34945e-05 30.3458 -1.54592e-06 30.3458)
(30.3458 0.00634922 -5.34966e-05 30.3458 -1.5564e-06 30.3458)
(30.3106 1.86651 -0.021434 30.3106 -1.537e-06 30.3106)
(30.3106 1.86651 -0.021434 30.3106 -1.55194e-06 30.3106)
(30.3204 3.10801 -0.0434123 30.3204 -1.56231e-06 30.3204)
(30.3204 3.10801 -0.0434124 30.3204 -1.56611e-06 30.3204)
(30.373 4.34063 -0.0659162 30.373 -1.56717e-06 30.373)
(30.373 4.34063 -0.0659162 30.373 -1.57378e-06 30.373)
(30.4654 5.55993 -0.088872 30.4654 -1.58034e-06 30.4654)
(30.4654 5.55993 -0.088872 30.4654 -1.58496e-06 30.4654)
(30.5943 6.76113 -0.112201 30.5943 -1.60027e-06 30.5943)
(30.5943 6.76113 -0.112201 30.5943 -1.60277e-06 30.5943)
(30.7558 7.93887 -0.135807 30.7558 -1.59541e-06 30.7558)
(30.7558 7.93887 -0.135807 30.7558 -1.61222e-06 30.7558)
(30.9458 9.08735 -0.159579 30.9458 -1.63766e-06 30.9458)
(30.9458 9.08735 -0.159579 30.9458 -1.64835e-06 30.9458)
(31.1597 10.2011 -0.183393 31.1597 -1.63412e-06 31.1597)
(31.1597 10.2011 -0.183393 31.1597 -1.65517e-06 31.1597)
(31.3928 11.2744 -0.207136 31.3928 -1.68101e-06 31.3928)
(31.3928 11.2744 -0.207136 31.3928 -1.68936e-06 31.3928)
(31.6403 12.3016 -0.23067 31.6403 -1.70121e-06 31.6403)
(31.6403 12.3016 -0.23067 31.6403 -1.71812e-06 31.6403)
(31.8975 13.2775 -0.253858 31.8975 -1.75216e-06 31.8975)
(31.8975 13.2775 -0.253858 31.8975 -1.75902e-06 31.8975)
(32.1597 14.1975 -0.276578 32.1597 -1.76947e-06 32.1597)
(32.1597 14.1975 -0.276578 32.1597 -1.78929e-06 32.1597)
(32.4222 15.0572 -0.298701 32.4222 -1.82949e-06 32.4222)
(32.4222 15.0572 -0.298701 32.4222 -1.83827e-06 32.4222)
(32.6807 15.8526 -0.320101 32.6807 -1.84493e-06 32.6807)
(32.6807 15.8526 -0.320101 32.6807 -1.86775e-06 32.6807)
(32.9311 16.5804 -0.340657 32.9311 -1.92024e-06 32.9311)
(32.9311 16.5804 -0.340657 32.9311 -1.92878e-06 32.9311)
(33.1695 17.2381 -0.360255 33.1695 -1.95757e-06 33.1695)
(33.1695 17.2381 -0.360255 33.1695 -1.97502e-06 33.1695)
(33.3924 17.8243 -0.378807 33.3924 -2.02581e-06 33.3924)
(33.3924 17.8243 -0.378807 33.3924 -2.02761e-06 33.3924)
(33.5967 18.3383 -0.396236 33.5967 -2.05743e-06 33.5967)
(33.5967 18.3383 -0.396236 33.5967 -2.07174e-06 33.5967)
(33.7797 18.7797 -0.41247 33.7797 -2.12508e-06 33.7797)
(33.7797 18.7797 -0.41247 33.7797 -2.1252e-06 33.7797)
(33.9388 19.1488 -0.427446 33.9388 -2.19675e-06 33.9388)
(33.9388 19.1488 -0.427446 33.9388 -2.19686e-06 33.9388)
(34.0721 19.4475 -0.44113 34.0721 -2.22137e-06 34.0721)
(34.0721 19.4475 -0.44113 34.0721 -2.23804e-06 34.0721)
(34.178 19.6775 -0.453511 34.178 -2.29398e-06 34.178)
(34.178 19.6775 -0.453511 34.178 -2.2941e-06 34.178)
(34.2552 19.8409 -0.464557 34.2552 -2.35337e-06 34.2552)
(34.2552 19.8409 -0.464557 34.2552 -2.3535e-06 34.2552)
(34.3026 19.9407 -0.474274 34.3026 -2.3878e-06 34.3026)
(34.3026 19.9407 -0.474274 34.3026 -2.40794e-06 34.3026)
(34.3198 19.9805 -0.482686 34.3198 -2.47362e-06 34.3198)
(34.3198 19.9805 -0.482686 34.3198 -2.48305e-06 34.3198)
(34.3064 19.9639 -0.489812 34.3064 -2.48598e-06 34.3064)
(34.3064 19.9639 -0.489812 34.3064 -2.51199e-06 34.3064)
(34.2623 19.8948 -0.495697 34.2623 -2.55544e-06 34.2623)
(34.2623 19.8948 -0.495697 34.2623 -2.55714e-06 34.2623)
(34.1878 19.7769 -0.500376 34.1878 -2.60002e-06 34.1878)
(34.1878 19.7769 -0.500376 34.1878 -2.61467e-06 34.1878)
(34.0834 19.6145 -0.503898 34.0834 -2.65143e-06 34.0834)
(34.0834 19.6145 -0.503898 34.0834 -2.65157e-06 34.0834)
(33.9496 19.4119 -0.506326 33.9496 -2.67368e-06 33.9496)
(33.9496 19.4119 -0.506326 33.9496 -2.69492e-06 33.9496)
(33.7873 19.1731 -0.50772 33.7873 -2.73525e-06 33.7873)
(33.7873 19.1731 -0.50772 33.7873 -2.74328e-06 33.7873)
(33.5974 18.9023 -0.508148 33.5974 -2.73358e-06 33.5974)
(33.5974 18.9023 -0.508148 33.5974 -2.76439e-06 33.5974)
(33.3811 18.6033 -0.507678 33.3811 -2.80221e-06 33.3811)
(33.3811 18.6033 -0.507678 33.3811 -2.81573e-06 33.3811)
(33.1394 18.2799 -0.50637 33.1394 -2.79129e-06 33.1394)
(33.1394 18.2799 -0.50637 33.1394 -2.82188e-06 33.1394)
(32.8738 17.9359 -0.504304 32.8738 -2.83821e-06 32.8738)
(32.8738 17.9359 -0.504304 32.8738 -2.84377e-06 32.8738)
(32.5854 17.5742 -0.501543 32.5854 -2.85038e-06 32.5854)
(32.5854 17.5742 -0.501543 32.5854 -2.87252e-06 32.5854)
(32.2757 17.1983 -0.498142 32.2757 -2.87704e-06 32.2757)
(32.2757 17.1983 -0.498142 32.2757 -2.88478e-06 32.2757)
(31.9461 16.8111 -0.49418 31.9461 -2.85093e-06 31.9461)
(31.9461 16.8111 -0.49418 31.9461 -2.88862e-06 31.9461)
(31.5978 16.4152 -0.489715 31.5978 -2.89198e-06 31.5978)
(31.5978 16.4152 -0.489715 31.5978 -2.92153e-06 31.5978)
(31.2324 16.0131 -0.4848 31.2324 -2.82913e-06 31.2324)
(31.2324 16.0131 -0.4848 31.2324 -2.89119e-06 31.2324)
(30.8511 15.6069 -0.479492 30.8511 -2.89471e-06 30.8511)
(30.8511 15.6069 -0.479492 30.8511 -2.94954e-06 30.8511)
(30.4554 15.1988 -0.473845 30.4554 -2.80279e-06 30.4554)
(30.4554 15.1988 -0.473845 30.4554 -2.88623e-06 30.4554)
(30.0465 14.7904 -0.467908 30.0465 -2.86801e-06 30.0465)
(30.0465 14.7904 -0.467908 30.0465 -2.94101e-06 30.0465)
(29.6258 14.3834 -0.461724 29.6258 -2.7385e-06 29.6258)
(29.6258 14.3834 -0.461724 29.6258 -2.84278e-06 29.6258)
(29.1944 13.9791 -0.455336 29.1944 -2.83333e-06 29.1944)
(29.1944 13.9791 -0.455336 29.1944 -2.92697e-06 29.1944)
(28.7535 13.5785 -0.448775 28.7535 -2.68995e-06 28.7535)
(28.7535 13.5785 -0.448775 28.7535 -2.80454e-06 28.7535)
(28.3044 13.1828 -0.442078 28.3044 -2.77676e-06 28.3044)
(28.3044 13.1828 -0.442078 28.3044 -2.87374e-06 28.3044)
(27.848 12.7929 -0.435278 27.848 -2.62652e-06 27.848)
(27.848 12.7929 -0.435278 27.848 -2.74103e-06 27.848)
(27.3855 12.4094 -0.428402 27.3855 -2.69325e-06 27.3855)
(27.3855 12.4094 -0.428402 27.3855 -2.78902e-06 27.3855)
(26.9178 12.0328 -0.421468 26.9178 -2.5483e-06 26.9178)
(26.9178 12.0328 -0.421468 26.9178 -2.66442e-06 26.9178)
(26.4457 11.6635 -0.414496 26.4457 -2.60119e-06 26.4457)
(26.4457 11.6635 -0.414496 26.4457 -2.71124e-06 26.4457)
(25.9703 11.3018 -0.407506 25.9703 -2.4426e-06 25.9703)
(25.9703 11.3018 -0.407506 25.9703 -2.56169e-06 25.9703)
(25.4923 10.9479 -0.400502 25.4923 -2.50411e-06 25.4923)
(25.4923 10.9479 -0.400502 25.4923 -2.65893e-06 25.4923)
(25.0125 10.6019 -0.393503 25.0125 -2.32303e-06 25.0125)
(25.0125 10.6019 -0.393503 25.0125 -2.43422e-06 25.0125)
(24.5315 10.2638 -0.386513 24.5315 -2.37258e-06 24.5315)
(24.5315 10.2638 -0.386513 24.5316 -2.57731e-06 24.5315)
(24.0502 9.93351 -0.379533 24.0502 -2.21951e-06 24.0502)
(24.0502 9.93351 -0.379533 24.0502 -2.31754e-06 24.0502)
(23.5691 9.61108 -0.372573 23.5691 -2.23034e-06 23.5691)
(23.5691 9.61108 -0.372573 23.5691 -2.48554e-06 23.5691)
(23.0887 9.2964 -0.365636 23.0887 -2.07324e-06 23.0887)
(23.0887 9.2964 -0.365636 23.0887 -2.15092e-06 23.0887)
(22.6098 8.98936 -0.358723 22.6098 -2.06803e-06 22.6098)
(22.6098 8.98936 -0.358723 22.6098 -2.39631e-06 22.6098)
(22.1326 8.68987 -0.351837 22.1326 -1.94899e-06 22.1326)
(22.1326 8.68987 -0.351837 22.1326 -1.99648e-06 22.1326)
(21.6579 8.3979 -0.344981 21.6579 -1.89395e-06 21.6579)
(21.6579 8.3979 -0.344981 21.6579 -2.30514e-06 21.6579)
(21.1859 8.1134 -0.338161 21.1859 -1.80525e-06 21.1859)
(21.1859 8.1134 -0.338161 21.1859 -1.80915e-06 21.1859)
(20.7171 7.83623 -0.331383 20.7171 -1.69631e-06 20.7171)
(20.7171 7.83623 -0.331383 20.7171 -2.19023e-06 20.7171)
(20.2519 7.56623 -0.324642 20.2519 -1.60968e-06 20.2519)
(20.2519 7.56623 -0.324642 20.2519 -1.55139e-06 20.2519)
(19.7906 7.30325 -0.317942 19.7906 -1.49108e-06 19.7906)
(19.7906 7.30325 -0.317942 19.7906 -2.08744e-06 19.7906)
(19.3336 7.04708 -0.311282 19.3336 -1.40948e-06 19.3336)
(19.3336 7.04708 -0.311282 19.3336 -1.26471e-06 19.3336)
(18.8812 6.79752 -0.304657 18.8812 -1.27919e-06 18.8812)
(18.8812 6.79752 -0.304657 18.8812 -2.00898e-06 18.8812)
(18.4335 6.55438 -0.298067 18.4335 -1.19245e-06 18.4335)
(18.4336 6.55438 -0.298067 18.4335 -9.27856e-07 18.4336)
(17.991 6.31743 -0.291509 17.991 -1.04466e-06 17.991)
(17.991 6.31743 -0.291509 17.991 -1.94922e-06 17.991)
(17.5538 6.08645 -0.284978 17.5538 -9.73944e-07 17.5538)
(17.5538 6.08645 -0.284978 17.5538 -5.44453e-07 17.5538)
(17.1221 5.86127 -0.278471 17.1221 -8.08669e-07 17.1221)
(17.1221 5.86127 -0.278471 17.1221 -1.94881e-06 17.1221)
(16.6962 5.6417 -0.271986 16.6962 -7.43329e-07 16.6962)
(16.6962 5.6417 -0.271986 16.6962 -8.80171e-08 16.6962)
(16.2762 5.4276 -0.265521 16.2762 -1.49261e-07 16.2762)
(16.2762 5.4276 -0.265521 16.2762 -1.91569e-06 16.2762)
(15.8623 5.21885 -0.259076 15.8623 -5.17446e-07 15.8623)
(15.8623 5.21885 -0.259076 15.8623 4.46053e-07 15.8623)
(15.4546 5.01535 -0.25265 15.4546 -0 15.4546)
(15.4546 5.01535 -0.25265 15.4546 -2.03655e-06 15.4546)
(15.0534 4.81699 -0.246244 15.0534 -2.77252e-07 15.0534)
(15.0534 4.81699 -0.246244 15.0534 1.10582e-06 15.0534)
(14.6587 4.62369 -0.239859 14.6587 -1.31992e-23 14.6587)
(14.6587 4.62369 -0.239859 14.6587 -2.44188e-06 14.6587)
(14.2706 4.43538 -0.233496 14.2706 -3.45061e-08 14.2706)
(14.2706 4.43538 -0.233496 14.2706 1.91888e-06 14.2706)
(13.8894 4.25202 -0.227159 13.8894 1.47017e-23 13.8894)
(13.8894 4.25202 -0.227159 13.8894 -2.88554e-06 13.8894)
(13.515 4.07362 -0.220851 13.515 2.14415e-07 13.515)
(13.515 4.07362 -0.220851 13.515 2.9423e-06 13.515)
(13.1476 3.90027 -0.214582 13.1476 -0 13.1476)
(13.1475 3.90027 -0.214582 13.1476 -3.56219e-06 13.1475)
(12.7872 3.73211 -0.208364 12.7872 4.7123e-07 12.7872)
(12.7872 3.73211 -0.208364 12.7872 4.25051e-06 12.7872)
(12.434 3.56937 -0.202213 12.434 -2.0937e-37 12.434)
(12.434 3.56937 -0.202213 12.434 -4.58208e-06 12.434)
(12.088 3.41237 -0.196154 12.088 7.15705e-07 12.088)
(12.088 3.41237 -0.196154 12.0879 5.92237e-06 12.088)
(11.7492 3.26148 -0.190214 11.7492 6.19666e-23 11.7492)
(11.7492 3.26148 -0.190214 11.7492 -5.89871e-06 11.7492)
(11.4178 3.11711 -0.184426 11.4178 9.60304e-07 11.4178)
(11.4178 3.11711 -0.184426 11.4177 8.10577e-06 11.4178)
(11.0936 2.97959 -0.178824 11.0936 5.27612e-24 11.0936)
(11.0936 2.97959 -0.178824 11.0936 -7.3513e-06 11.0936)
(10.7768 2.84921 -0.173439 10.7768 1.20922e-06 10.7768)
(10.7768 2.84921 -0.173439 10.7768 1.09903e-05 10.7768)
(10.4673 2.72608 -0.168298 10.4673 -1.2393e-21 10.4673)
(10.4673 2.72608 -0.168298 10.4673 -9.29638e-06 10.4673)
(10.1651 2.6102 -0.163418 10.1651 1.4274e-06 10.1651)
(10.1651 2.6102 -0.163418 10.165 1.3822e-05 10.1651)
(9.87008 2.50129 -0.158808 9.87008 1.65613e-21 9.87008)
(9.87006 2.50129 -0.158808 9.87012 -1.18468e-05 9.87006)
(9.58226 2.39898 -0.154458 9.58226 1.66783e-06 9.58226)
(9.58229 2.39898 -0.154458 9.58222 1.73628e-05 9.58229)
(9.30154 2.30268 -0.150357 9.30154 -1.12447e-22 9.30154)
(9.30152 2.30268 -0.150357 9.30158 -1.52179e-05 9.30152)
(9.02781 2.21153 -0.146471 9.02781 1.84848e-06 9.02781)
(9.02783 2.21153 -0.146471 9.02776 2.17308e-05 9.02783)
(8.76097 2.12457 -0.142748 8.76097 -3.28617e-21 8.76097)
(8.76094 2.12457 -0.142748 8.76102 -1.95133e-05 8.76094)
(8.50091 2.04086 -0.139133 8.50091 2.0218e-06 8.50091)
(8.50094 2.04086 -0.139133 8.50086 2.72061e-05 8.50094)
(8.24753 1.95957 -0.135574 8.24753 3.80286e-22 8.24753)
(8.2475 1.95957 -0.135574 8.24759 -2.50751e-05 8.2475)
(8.00071 1.88002 -0.132021 8.00071 2.13826e-06 8.00071)
(8.00074 1.88002 -0.132021 8.00064 3.40408e-05 8.00074)
(7.76034 1.80187 -0.128439 7.76034 -0 7.76034)
(7.76031 1.80187 -0.128439 7.76041 -3.21608e-05 7.76031)
(7.52634 1.72508 -0.12482 7.52634 2.15824e-06 7.52634)
(7.52637 1.72508 -0.12482 7.52627 4.25448e-05 7.52637)
(7.2986 1.64975 -0.121167 7.2986 -0 7.2986)
(7.29856 1.64975 -0.121167 7.29867 -4.12314e-05 7.29856)
(7.07703 1.57615 -0.117497 7.07703 2.09475e-06 7.07703)
(7.07707 1.57615 -0.117497 7.07695 5.32412e-05 7.07707)
(6.86156 1.50467 -0.113832 6.86156 -5.91073e-21 6.86156)
(6.86152 1.50467 -0.113832 6.86164 -5.28021e-05 6.86152)
(6.65209 1.43562 -0.110216 6.65209 1.89427e-06 6.65209)
(6.65213 1.43562 -0.110216 6.65201 6.66823e-05 6.65213)
(6.44856 1.36924 -0.106658 6.44856 -1.1617e-22 6.44856)
(6.44851 1.36924 -0.106658 6.44864 -6.7504e-05 6.44851)
(6.25086 1.30599 -0.103195 6.25086 1.54792e-06 6.25087)
(6.25091 1.30599 -0.103195 6.25078 8.36672e-05 6.25091)
(6.05894 1.24621 -0.0998765 6.05894 3.99983e-22 6.05894)
(6.0589 1.24621 -0.0998765 6.05902 -8.62691e-05 6.0589)
(5.87269 1.19014 -0.0967194 5.87269 4.79744e-06 5.87269)
(5.87273 1.19014 -0.0967194 5.87261 0.000105204 5.87273)
(5.69203 1.13792 -0.0937633 5.69203 -1.2742e-20 5.69203)
(5.69199 1.13792 -0.0937633 5.6921 -0.000106423 5.69199)
(5.51686 1.0893 -0.0910141 5.51686 5.96431e-06 5.51686)
(5.51689 1.0893 -0.0910141 5.51679 0.000124878 5.51689)
(5.34708 1.04395 -0.0884438 5.34708 5.61348e-22 5.34708)
(5.34705 1.04395 -0.0884438 5.34714 -0.000129589 5.34705)
(5.1826 1.00152 -0.0860474 5.1826 6.28464e-06 5.1826)
(5.18262 1.00152 -0.0860474 5.18255 0.000135858 5.18262)
(5.02331 0.961573 -0.0837908 5.02331 2.17046e-06 5.02331)
(5.02329 0.961574 -0.0837908 5.02335 -0.000142939 5.02329)
(4.8691 0.923585 -0.0816501 4.8691 6.30461e-06 4.8691)
(4.86912 0.923586 -0.0816501 4.86908 0.000143696 4.86912)
(4.71989 0.886633 -0.079571 4.71989 -5.28789e-06 4.71989)
(4.71988 0.886633 -0.079571 4.7199 -0.000148819 4.71988)
(4.57556 0.850243 -0.0774555 4.57556 -2.42936e-06 4.57556)
(4.57556 0.850243 -0.0774555 4.57557 0.000148306 4.57556)
(4.43604 0.814576 -0.0753218 4.43604 -7.1297e-06 4.43604)
(4.43605 0.814576 -0.0753218 4.43603 -0.000146993 4.43605)
(4.30124 0.779689 -0.0731818 4.30124 -2.23676e-21 4.30124)
(4.30122 0.77969 -0.0731818 4.30126 0.000143805 4.30122)
(4.17107 0.745956 -0.0710361 4.17107 -7.28796e-06 4.17107)
(4.17109 0.745956 -0.0710361 4.17104 -0.000145175 4.17109)
(4.04548 0.713596 -0.068957 4.04548 -7.79919e-22 4.04548)
(4.04545 0.713596 -0.068957 4.04552 0.000129229 4.04545)
(3.92437 0.682519 -0.0669196 3.92437 -7.38728e-06 3.92438)
(3.9244 0.682519 -0.0669196 3.92432 -0.000132484 3.9244)
(3.8077 0.653141 -0.0649394 3.8077 -1.16701e-21 3.8077)
(3.80767 0.653141 -0.0649394 3.80776 0.000112362 3.80767)
(3.69539 0.625768 -0.06309 3.69539 -3.70488e-06 3.69539)
(3.69543 0.625768 -0.06309 3.69533 -0.000114313 3.69543)
(3.58739 0.600708 -0.0613694 3.58739 3.94132e-22 3.58739)
(3.58735 0.600708 -0.0613694 3.58746 9.51428e-05 3.58735)
(3.48362 0.578939 -0.0598564 3.48362 -4.05055e-06 3.48362)
(3.48365 0.578939 -0.0598564 3.48355 -9.85981e-05 3.48365)
(3.38402 0.561129 -0.0586906 3.38402 -1.55179e-21 3.38402)
(3.38398 0.561129 -0.0586906 3.38409 8.03688e-05 3.38398)
(3.28852 0.547504 -0.0578968 3.28852 -4.51385e-06 3.28852)
(3.28856 0.547504 -0.0578968 3.28845 -8.53194e-05 3.28856)
(3.19705 0.538458 -0.0575316 3.19705 -1.02308e-21 3.19705)
(3.19701 0.538458 -0.0575316 3.19712 6.77647e-05 3.19701)
(3.10951 0.534018 -0.0576597 3.10951 -4.9362e-06 3.10951)
(3.10955 0.534018 -0.0576597 3.10944 -7.40527e-05 3.10954)
(3.02582 0.533779 -0.0582634 3.02582 -0 3.02582)
(3.02578 0.533779 -0.0582634 3.02589 5.69705e-05 3.02578)
(2.94586 0.537091 -0.0593138 2.94586 -5.30163e-06 2.94586)
(2.94589 0.537091 -0.0593139 2.94579 -6.44916e-05 2.94589)
(2.86953 0.542899 -0.0607348 2.86953 -0 2.86953)
(2.8695 0.542899 -0.0607349 2.86959 4.74339e-05 2.8695)
(2.7967 0.549715 -0.0623981 2.7967 -5.59995e-06 2.7967)
(2.79673 0.549716 -0.0623982 2.79664 -5.6355e-05 2.79673)
(2.72727 0.556385 -0.0641148 2.72727 1.26231e-20 2.72727)
(2.72724 0.556386 -0.0641148 2.72732 3.2543e-05 2.72724)
(2.66109 0.562519 -0.0658165 2.66109 -5.85789e-06 2.66109)
(2.66112 0.562519 -0.0658165 2.66104 -4.94202e-05 2.66112)
(2.59807 0.568339 -0.0674793 2.59807 -0 2.59807)
(2.59804 0.56834 -0.0674794 2.59812 2.20494e-05 2.59804)
(2.53808 0.574592 -0.0691774 2.53808 -6.09486e-06 2.53808)
(2.5381 0.574593 -0.0691774 2.53803 -4.16763e-05 2.5381)
(2.48101 0.581929 -0.071017 2.48101 7.17755e-22 2.48101)
(2.48098 0.581929 -0.071017 2.48105 1.4365e-05 2.48098)
(2.42674 0.590766 -0.0730582 2.42674 -6.28744e-06 2.42674)
(2.42676 0.590767 -0.0730583 2.42669 -3.51447e-05 2.42676)
(2.37514 0.601321 -0.075359 2.37514 6.37183e-21 2.37514)
(2.37512 0.601321 -0.0753591 2.37518 6.64191e-06 2.37512)
(2.32608 0.613519 -0.077934 2.32608 -6.46409e-06 2.32608)
(2.3261 0.61352 -0.0779341 2.32605 -3.0433e-05 2.3261)
(2.27942 0.627117 -0.0807703 2.27942 -2.27751e-06 2.27942)
(2.27941 0.627117 -0.0807704 2.27946 8.10983e-08 2.27941)
(2.23501 0.64202 -0.0838367 2.23501 -6.78947e-06 2.23501)
(2.23502 0.642021 -0.0838368 2.23497 -2.72793e-05 2.23502)
(2.19267 0.657923 -0.0871584 2.19267 -4.95971e-06 2.19267)
(2.19265 0.657924 -0.0871585 2.1927 -4.55428e-06 2.19265)
(2.15223 0.67384 -0.090644 2.15223 -7.22993e-06 2.15223)
(2.15224 0.67384 -0.0906441 2.1522 -2.53259e-05 2.15224)
(2.11351 0.688374 -0.0941278 2.11352 -6.83612e-06 2.11351)
(2.11351 0.688374 -0.0941279 2.11351 -7.76549e-06 2.11351)
(2.07634 0.699916 -0.0973897 2.07634 -7.76869e-06 2.07634)
(2.07636 0.699917 -0.0973898 2.07632 -2.43111e-05 2.07636)
(2.04054 0.707298 -0.100182 2.04059 -5.04477e-06 2.04054)
(2.04056 0.707299 -0.100182 2.04056 -8.33427e-06 2.04056)
(2.00602 0.710206 -0.102385 2.00602 -8.40491e-06 2.00602)
(2.00603 0.710207 -0.102385 2.006 -2.40489e-05 2.00603)
(1.97259 0.709313 -0.103978 1.97263 -3.17502e-06 1.97259)
(1.9726 0.709314 -0.103978 1.9726 -8.86453e-06 1.9726)
(1.94024 0.706162 -0.105128 1.94024 -8.80172e-06 1.94024)
(1.94025 0.706163 -0.105128 1.94022 -2.28535e-05 1.94025)
(1.90884 0.702691 -0.106084 1.90887 -1.27581e-06 1.90884)
(1.90885 0.702692 -0.106084 1.90885 -9.08377e-06 1.90885)
(1.87836 0.701082 -0.107156 1.87836 -8.89823e-06 1.87836)
(1.87837 0.701083 -0.107156 1.87835 -2.1303e-05 1.87837)
(1.8487 0.702406 -0.108701 1.84872 5.3552e-07 1.8487)
(1.84871 0.702407 -0.108701 1.84871 -9.21056e-06 1.84871)
(1.81979 0.705943 -0.110718 1.81979 -9.20542e-06 1.81979)
(1.81979 0.705945 -0.110718 1.81978 -2.02853e-05 1.81979)
(1.79148 0.70986 -0.113017 1.79149 8.30803e-07 1.79148)
(1.79148 0.709861 -0.113017 1.79148 -9.65538e-06 1.79148)
(1.76367 0.712026 -0.115227 1.76367 -9.86994e-06 1.76367)
(1.76368 0.712028 -0.115228 1.76366 -1.98988e-05 1.76368)
(1.73624 0.711439 -0.117032 1.73626 -8.13089e-07 1.73624)
(1.73625 0.711441 -0.117033 1.73625 -1.03524e-05 1.73625)
(1.70912 0.708108 -0.118397 1.70912 -1.06165e-05 1.70912)
(1.70912 0.70811 -0.118398 1.70911 -1.97731e-05 1.70912)
(1.68221 0.702294 -0.119322 1.68222 -2.34106e-06 1.68221)
(1.68222 0.702296 -0.119322 1.68222 -1.10805e-05 1.68222)
(1.65548 0.693952 -0.119857 1.65548 -1.12782e-05 1.65548)
(1.65549 0.693954 -0.119857 1.65548 -1.97381e-05 1.65549)
(1.62889 0.682536 -0.119899 1.6289 -3.58956e-06 1.62889)
(1.62889 0.682538 -0.119899 1.62889 -1.17443e-05 1.62889)
(1.60243 0.667536 -0.119322 1.60243 -1.20547e-05 1.60243)
(1.60244 0.667538 -0.119322 1.60243 -1.99858e-05 1.60244)
(1.57613 0.649116 -0.118023 1.57613 -4.87507e-06 1.57613)
(1.57613 0.649118 -0.118023 1.57613 -1.25989e-05 1.57613)
(1.55002 0.628936 -0.11611 1.55002 -1.27631e-05 1.55002)
(1.55002 0.628938 -0.116111 1.55002 -2.04354e-05 1.55002)
(1.52418 0.609665 -0.114031 1.52418 -5.55065e-06 1.52418)
(1.52418 0.609667 -0.114032 1.52418 -1.30925e-05 1.52418)
(1.49866 0.593953 -0.112299 1.49866 -1.30786e-05 1.49866)
(1.49866 0.593956 -0.112299 1.49866 -2.0726e-05 1.49866)
(1.47349 0.583869 -0.111408 1.47349 -5.67795e-06 1.47349)
(1.47349 0.583873 -0.111408 1.47349 -1.33289e-05 1.47349)
(1.44867 0.580157 -0.111704 1.44867 -1.34727e-05 1.44867)
(1.44866 0.580162 -0.111705 1.44867 -2.12813e-05 1.44866)
(1.42413 0.582098 -0.113217 1.42413 -5.97862e-06 1.42413)
(1.42413 0.582104 -0.113218 1.42413 -1.39567e-05 1.42413)
(1.39979 0.588694 -0.115736 1.39979 -1.41607e-05 1.39979)
(1.39978 0.588702 -0.115737 1.39979 -2.2452e-05 1.39978)
(1.37549 0.598925 -0.119169 1.37548 -6.07572e-06 1.37549)
(1.37549 0.598934 -0.11917 1.37549 -1.46997e-05 1.37549)
(1.35106 0.609922 -0.123272 1.35106 -1.50844e-05 1.35106)
(1.35106 0.609934 -0.123274 1.35107 -2.41298e-05 1.35106)
(1.32631 0.61655 -0.12717 1.3263 -6.29871e-06 1.32631)
(1.32631 0.616564 -0.127173 1.32631 -1.58688e-05 1.32631)
(1.30106 0.613532 -0.129613 1.30106 -1.64208e-05 1.30106)
(1.30106 0.613548 -0.129617 1.30107 -2.65679e-05 1.30106)
(1.27522 0.598067 -0.129552 1.27521 -6.42488e-06 1.27522)
(1.27522 0.598085 -0.129556 1.27522 -1.72296e-05 1.27522)
(1.2488 0.570754 -0.126676 1.2488 -1.74965e-05 1.2488)
(1.2488 0.570776 -0.12668 1.24882 -2.91757e-05 1.2488)
(1.22193 0.533677 -0.121337 1.22191 -5.60274e-06 1.22193)
(1.22193 0.533704 -0.121342 1.22193 -1.81853e-05 1.22193)
(1.19479 0.489544 -0.11388 1.19479 -1.83802e-05 1.19479)
(1.19478 0.489583 -0.113887 1.19481 -3.21041e-05 1.19478)
(1.16765 0.443909 -0.104983 1.16762 -4.0405e-06 1.16765)