/*--------------------------------*- C++ -*----------------------------------*\
| =========                 |                                                 |
| \\      /  F ield         | OpenFOAM: The Open Source CFD Toolbox           |
|  \\    /   O peration     | Version:  2012                                  |
|   \\  /    A nd           | Website:  www.openfoam.com                      |
|    \\/     M anipulation  |                                                 |
\*---------------------------------------------------------------------------*/
FoamFile
{
    version     2.0;
    format      ascii;
    class       volScalarField;
    location    "6000";
    object      p;
}
// * * * * * * * * * * * * * * * * * * * * * * * * * * * * * * * * * * * * * //

dimensions      [0 2 -2 0 0 0 0];


internalField   nonuniform List<scalar> 
2560
(
1.31267e-15
4.1004e-15
2.78901e-15
4.10026e-15
2.88257e-15
4.09993e-15
2.58513e-15
4.09938e-15
2.33945e-15
4.09861e-15
2.14427e-15
4.09761e-15
1.96039e-15
4.09638e-15
1.77846e-15
4.09495e-15
1.59885e-15
4.09328e-15
1.42191e-15
4.0914e-15
1.24759e-15
4.08927e-15
1.07594e-15
4.08693e-15
9.07089e-16
4.08438e-15
7.41112e-16
4.08158e-15
5.77935e-16
4.07857e-15
4.17499e-16
4.07539e-15
2.59824e-16
4.072e-15
1.04812e-16
4.06836e-15
-4.7576e-17
4.06449e-15
-1.97183e-16
4.06033e-15
-3.44148e-16
4.0559e-15
-4.8857e-16
4.05118e-15
-6.3048e-16
4.04621e-15
-7.69776e-16
4.04099e-15
-9.067e-16
4.03552e-15
-1.04119e-15
4.0297e-15
-1.17332e-15
4.02363e-15
-1.30311e-15
4.01744e-15
-1.43055e-15
4.01106e-15
-1.55582e-15
4.00428e-15
-1.67894e-15
3.99713e-15
-1.79995e-15
3.98948e-15
-1.91895e-15
3.98149e-15
-2.03581e-15
3.97311e-15
-2.15081e-15
3.96449e-15
-2.26406e-15
3.95547e-15
-2.37562e-15
3.94602e-15
-2.48544e-15
3.93621e-15
-2.59347e-15
3.92596e-15
-2.70007e-15
3.91528e-15
-2.80536e-15
3.9042e-15
-2.90938e-15
3.89283e-15
-3.01213e-15
3.88102e-15
-3.11376e-15
3.86869e-15
-3.21428e-15
3.85572e-15
-3.31406e-15
3.84229e-15
-3.41311e-15
3.82848e-15
-3.51112e-15
3.81417e-15
-3.60867e-15
3.79926e-15
-3.70587e-15
3.78374e-15
-3.80217e-15
3.76764e-15
-3.89803e-15
3.75048e-15
-3.99366e-15
3.73238e-15
-4.08906e-15
3.71344e-15
-4.1842e-15
3.69355e-15
-4.27954e-15
3.67317e-15
-4.3748e-15
3.65217e-15
-4.4697e-15
3.62984e-15
-4.56493e-15
3.60652e-15
-4.66067e-15
3.58282e-15
-4.75687e-15
3.55848e-15
-4.85297e-15
3.53327e-15
-4.9494e-15
3.50692e-15
-5.04634e-15
3.47981e-15
-5.14357e-15
3.45232e-15
-5.2414e-15
3.42383e-15
-5.33934e-15
3.39458e-15
-5.43797e-15
3.36458e-15
-5.53648e-15
3.33413e-15
-5.6349e-15
3.30295e-15
-5.73465e-15
3.27107e-15
-5.83493e-15
3.23878e-15
-5.93606e-15
3.20553e-15
-6.03658e-15
3.17162e-15
-6.13739e-15
3.13618e-15
-6.2382e-15
3.09952e-15
-6.33933e-15
3.06133e-15
-6.44017e-15
3.02162e-15
-6.54105e-15
2.98072e-15
-6.64164e-15
2.93864e-15
-6.74326e-15
2.89639e-15
-6.84529e-15
2.85138e-15
-6.94541e-15
2.80326e-15
-7.04596e-15
2.75505e-15
-7.14662e-15
2.70682e-15
-7.24707e-15
2.65689e-15
-7.34698e-15
2.60529e-15
-7.44707e-15
2.55028e-15
-7.54557e-15
2.49399e-15
-7.64502e-15
2.43864e-15
-7.74364e-15
2.38141e-15
-7.84219e-15
2.32231e-15
-7.93996e-15
2.26214e-15
-8.03659e-15
2.20058e-15
-8.13058e-15
2.13462e-15
-8.22424e-15
2.06581e-15
-8.31527e-15
1.99729e-15
-8.40605e-15
1.92914e-15
-8.49821e-15
1.8583e-15
-8.58863e-15
1.78401e-15
-8.67574e-15
1.70791e-15
-8.76199e-15
1.63088e-15
-8.84908e-15
1.55136e-15
-8.9338e-15
1.47188e-15
-9.01368e-15
1.39089e-15
-9.09377e-15
1.30846e-15
-9.17331e-15
1.22551e-15
-9.24983e-15
1.1396e-15
-9.32425e-15
1.05078e-15
-9.39834e-15
9.62568e-16
-9.47049e-15
8.74223e-16
-9.54075e-15
7.84976e-16
-9.6101e-15
6.91414e-16
-9.67688e-15
5.96251e-16
-9.74205e-15
5.0225e-16
-9.80482e-15
4.05967e-16
-9.86528e-15
3.07495e-16
-9.92445e-15
2.08736e-16
-9.98515e-15
1.08901e-16
-1.00439e-14
1.08394e-17
-1.0098e-14
-9.17211e-17
-1.01532e-14
-1.95014e-16
-1.02059e-14
-2.99841e-16
-1.02552e-14
-4.05159e-16
-1.03023e-14
-5.12708e-16
-1.03482e-14
-6.19569e-16
-1.0393e-14
-7.25607e-16
-1.04332e-14
-8.36336e-16
-1.04688e-14
-9.47876e-16
-1.05057e-14
-1.0601e-15
-1.05421e-14
-1.16909e-15
-1.05782e-14
-1.27467e-15
-1.06104e-14
-1.38243e-15
-1.06388e-14
-1.49607e-15
-1.06694e-14
-1.6078e-15
-1.06984e-14
-1.72325e-15
-1.07241e-14
-1.84037e-15
-1.07526e-14
-1.95515e-15
-1.07761e-14
-2.06745e-15
-1.08008e-14
-2.18101e-15
-1.08307e-14
-2.29956e-15
-1.08583e-14
-2.41325e-15
-1.08857e-14
-2.52189e-15
-1.09169e-14
-2.63509e-15
-1.09465e-14
-2.74293e-15
-1.09746e-14
-2.84913e-15
-1.10014e-14
-2.95744e-15
-1.10292e-14
-3.06574e-15
-1.10582e-14
-3.17582e-15
-1.10827e-14
-3.28947e-15
-1.1107e-14
-3.40458e-15
-1.11233e-14
-3.51902e-15
-1.11358e-14
-3.63262e-15
-1.11449e-14
-3.74918e-15
-1.11604e-14
-3.87248e-15
-1.11748e-14
-4.0024e-15
-1.11825e-14
-4.13486e-15
-1.11815e-14
-4.25994e-15
-1.11781e-14
-4.38146e-15
-1.11783e-14
-4.51505e-15
-1.11802e-14
-4.65276e-15
-1.11861e-14
-4.78275e-15
-1.11863e-14
-4.91474e-15
-1.1179e-14
-5.04472e-15
-1.11762e-14
-5.17851e-15
-1.11662e-14
-5.31214e-15
-1.1157e-14
-5.44557e-15
-1.11566e-14
-5.57487e-15
-1.11572e-14
-5.70391e-15
-1.11589e-14
-5.82872e-15
-1.11621e-14
-5.94925e-15
-1.11589e-14
-6.06545e-15
-1.11612e-14
-6.18889e-15
-1.11653e-14
-6.31176e-15
-1.11674e-14
-6.43013e-15
-1.11754e-14
-6.55554e-15
-1.11855e-14
-6.67637e-15
-1.11864e-14
-6.80028e-15
-1.11934e-14
-6.91193e-15
-1.1203e-14
-7.01514e-15
-1.12115e-14
-7.12128e-15
-1.12228e-14
-7.23026e-15
-1.12332e-14
-7.33441e-15
-1.12391e-14
-7.43367e-15
-1.12482e-14
-7.53178e-15
-1.12532e-14
-7.62863e-15
-1.12617e-14
-7.73171e-15
-1.127e-14
-7.82969e-15
-1.12746e-14
-7.93003e-15
-1.12831e-14
-8.02521e-15
-1.12881e-14
-8.11892e-15
-1.12934e-14
-8.21482e-15
-1.12992e-14
-8.30546e-15
-1.13018e-14
-8.38341e-15
-1.13014e-14
-8.45973e-15
-1.13053e-14
-8.54904e-15
-1.131e-14
-8.62926e-15
-1.13155e-14
-8.68572e-15
-1.13111e-14
-8.75842e-15
-1.13114e-14
-8.83627e-15
-1.13055e-14
-8.90469e-15
-1.13186e-14
-8.96002e-15
-1.13293e-14
-9.01644e-15
-1.13449e-14
-9.07014e-15
-1.13584e-14
-9.12436e-15
-1.13699e-14
-9.193e-15
-1.13795e-14
-9.25447e-15
-1.13944e-14
-9.32273e-15
-1.14074e-14
-9.39044e-15
-1.14256e-14
-9.4574e-15
-1.14421e-14
-9.51639e-15
-1.14638e-14
-9.58809e-15
-1.14908e-14
-9.68614e-15
-1.15089e-14
-9.77581e-15
-1.15252e-14
-9.8503e-15
-1.15464e-14
-9.91653e-15
-1.15725e-14
-9.9881e-15
-1.15965e-14
-1.00717e-14
-1.16254e-14
-1.01469e-14
-1.16521e-14
-1.0207e-14
-1.16837e-14
-1.02721e-14
-1.17001e-14
-1.03487e-14
-1.17213e-14
-1.04101e-14
-1.17338e-14
-1.0463e-14
-1.17511e-14
-1.05274e-14
-1.17729e-14
-1.05898e-14
-1.17861e-14
-1.06439e-14
-1.1797e-14
-1.06897e-14
-1.1799e-14
-1.0727e-14
-1.18115e-14
-1.07755e-14
-1.18215e-14
-1.08285e-14
-1.18352e-14
-1.08733e-14
-1.18333e-14
-1.08969e-14
-1.1835e-14
-1.09315e-14
-1.18465e-14
-1.09895e-14
-1.18483e-14
-1.10269e-14
-1.18531e-14
-1.1069e-14
-1.18542e-14
-1.1116e-14
-1.18638e-14
-1.1168e-14
-1.1869e-14
-1.1213e-14
-1.18696e-14
-1.12575e-14
-1.18773e-14
-1.13207e-14
-1.18792e-14
-1.13846e-14
-1.18867e-14
-1.14259e-14
-1.18932e-14
-1.14817e-14
-1.18983e-14
-1.15287e-14
-1.19135e-14
-1.15796e-14
-1.19139e-14
-1.16591e-14
-1.19458e-14
-1.17212e-14
-1.19733e-14
-1.17783e-14
-1.2008e-14
-1.18078e-14
-1.20149e-14
-1.18331e-14
-1.20406e-14
-1.18547e-14
-1.20504e-14
-1.18722e-14
-1.20787e-14
-1.19091e-14
-1.20913e-14
-1.19655e-14
-1.21099e-14
-1.2008e-14
-1.21456e-14
-1.20144e-14
-1.21539e-14
-1.2041e-14
-1.21795e-14
-1.20768e-14
-1.22105e-14
-1.20997e-14
-1.22479e-14
-1.21319e-14
-1.22922e-14
-1.21729e-14
-1.2299e-14
-1.22003e-14
-1.2312e-14
-1.22153e-14
-1.22979e-14
-1.22404e-14
-1.2321e-14
-1.22771e-14
-1.23371e-14
-1.22939e-14
-1.23356e-14
-1.23024e-14
-1.23704e-14
-1.22927e-14
-1.239e-14
-1.23169e-14
-1.24168e-14
-1.24069e-14
-1.24489e-14
-1.24811e-14
-1.2465e-14
-1.24793e-14
-1.24876e-14
-1.24434e-14
-1.25095e-14
-1.24445e-14
-1.25327e-14
-1.25124e-14
-1.25556e-14
-1.25781e-14
-1.25667e-14
-1.2584e-14
-1.25872e-14
-1.2572e-14
-1.2599e-14
-1.25201e-14
-1.25971e-14
-1.25344e-14
-1.26011e-14
-1.25651e-14
-1.25997e-14
-1.25758e-14
-1.25827e-14
-1.25588e-14
-1.25508e-14
-1.25535e-14
-1.25705e-14
-1.25713e-14
-1.25836e-14
-1.25838e-14
-1.25539e-14
-1.25732e-14
-1.25569e-14
-1.25598e-14
-1.25553e-14
-1.25435e-14
-1.25512e-14
-1.25624e-14
-1.2525e-14
-1.25635e-14
-1.25304e-14
-1.25688e-14
-1.25311e-14
-1.25792e-14
-1.25088e-14
-1.25769e-14
-1.24975e-14
-1.25647e-14
-1.2515e-14
-1.25617e-14
-1.25114e-14
-1.25123e-14
-1.25082e-14
-1.25348e-14
-1.25033e-14
-1.25273e-14
-1.25146e-14
-1.24916e-14
-1.24949e-14
-1.24741e-14
-1.24946e-14
-1.24558e-14
-1.25157e-14
-1.24847e-14
-1.2492e-14
-1.24771e-14
-1.24873e-14
-1.2485e-14
-1.25002e-14
-1.24755e-14
-1.25013e-14
-1.24775e-14
-1.24902e-14
-1.24907e-14
-1.24945e-14
-1.25185e-14
-1.25266e-14
-1.25498e-14
-1.25403e-14
-1.2554e-14
-1.25671e-14
-1.25452e-14
-1.25957e-14
-1.25821e-14
-1.26096e-14
-1.26191e-14
-1.26345e-14
-1.26333e-14
-1.26528e-14
-1.26255e-14
-1.26505e-14
-1.26539e-14
-1.26688e-14
-1.2662e-14
-1.16784e-15
-1.90892e-15
-1.1679e-15
-1.90891e-15
-1.16807e-15
-1.90894e-15
-1.16833e-15
-1.90899e-15
-1.16871e-15
-1.90909e-15
-1.16922e-15
-1.90921e-15
-1.16985e-15
-1.90934e-15
-1.1706e-15
-1.90949e-15
-1.17147e-15
-1.90968e-15
-1.17245e-15
-1.90991e-15
-1.17359e-15
-1.91014e-15
-1.17484e-15
-1.91043e-15
-1.17623e-15
-1.91075e-15
-1.17776e-15
-1.91104e-15
-1.17943e-15
-1.91133e-15
-1.18118e-15
-1.91163e-15
-1.18313e-15
-1.91196e-15
-1.18516e-15
-1.91232e-15
-1.18731e-15
-1.91271e-15
-1.18965e-15
-1.91315e-15
-1.19209e-15
-1.91354e-15
-1.19473e-15
-1.91393e-15
-1.19742e-15
-1.9143e-15
-1.20035e-15
-1.91473e-15
-1.20328e-15
-1.91532e-15
-1.20635e-15
-1.91602e-15
-1.20963e-15
-1.91671e-15
-1.21293e-15
-1.91738e-15
-1.21636e-15
-1.91805e-15
-1.2199e-15
-1.91892e-15
-1.22355e-15
-1.92007e-15
-1.22737e-15
-1.9211e-15
-1.23129e-15
-1.92203e-15
-1.23524e-15
-1.92298e-15
-1.23941e-15
-1.92402e-15
-1.24365e-15
-1.92514e-15
-1.24798e-15
-1.92637e-15
-1.25251e-15
-1.92758e-15
-1.25716e-15
-1.92907e-15
-1.26194e-15
-1.93068e-15
-1.26686e-15
-1.93223e-15
-1.27217e-15
-1.93374e-15
-1.27761e-15
-1.93532e-15
-1.28312e-15
-1.93727e-15
-1.28891e-15
-1.9392e-15
-1.29494e-15
-1.94122e-15
-1.30109e-15
-1.94324e-15
-1.30748e-15
-1.94515e-15
-1.31411e-15
-1.9474e-15
-1.32108e-15
-1.94978e-15
-1.32831e-15
-1.95242e-15
-1.33589e-15
-1.95509e-15
-1.34361e-15
-1.9578e-15
-1.3517e-15
-1.96068e-15
-1.36006e-15
-1.96374e-15
-1.3688e-15
-1.96698e-15
-1.37781e-15
-1.97077e-15
-1.38709e-15
-1.97464e-15
-1.3969e-15
-1.9785e-15
-1.40699e-15
-1.98295e-15
-1.4175e-15
-1.98764e-15
-1.42842e-15
-1.99233e-15
-1.43978e-15
-1.9969e-15
-1.45169e-15
-2.00225e-15
-1.46405e-15
-2.00749e-15
-1.47684e-15
-2.01263e-15
-1.49036e-15
-2.01846e-15
-1.50406e-15
-2.02421e-15
-1.51849e-15
-2.03068e-15
-1.5331e-15
-2.03763e-15
-1.54874e-15
-2.0445e-15
-1.56455e-15
-2.05188e-15
-1.58083e-15
-2.05947e-15
-1.59788e-15
-2.0673e-15
-1.61598e-15
-2.07537e-15
-1.63425e-15
-2.08429e-15
-1.65268e-15
-2.09408e-15
-1.67156e-15
-2.10385e-15
-1.69121e-15
-2.11421e-15
-1.71163e-15
-2.12551e-15
-1.73216e-15
-2.13712e-15
-1.75312e-15
-2.14937e-15
-1.77483e-15
-2.16162e-15
-1.79696e-15
-2.17454e-15
-1.81983e-15
-2.1878e-15
-1.84378e-15
-2.2021e-15
-1.86986e-15
-2.21537e-15
-1.89634e-15
-2.23112e-15
-1.92318e-15
-2.2469e-15
-1.95074e-15
-2.26235e-15
-1.97791e-15
-2.28002e-15
-2.00686e-15
-2.29736e-15
-2.03612e-15
-2.31587e-15
-2.06491e-15
-2.33744e-15
-2.09546e-15
-2.35758e-15
-2.12703e-15
-2.377e-15
-2.15958e-15
-2.3957e-15
-2.19312e-15
-2.41602e-15
-2.22525e-15
-2.44036e-15
-2.25911e-15
-2.46558e-15
-2.29307e-15
-2.48929e-15
-2.33118e-15
-2.51227e-15
-2.36772e-15
-2.53531e-15
-2.40347e-15
-2.56008e-15
-2.44253e-15
-2.58492e-15
-2.48072e-15
-2.61151e-15
-2.52137e-15
-2.63902e-15
-2.56448e-15
-2.66321e-15
-2.60748e-15
-2.68917e-15
-2.64773e-15
-2.71691e-15
-2.69037e-15
-2.7421e-15
-2.73539e-15
-2.76995e-15
-2.78102e-15
-2.7996e-15
-2.82634e-15
-2.83018e-15
-2.87308e-15
-2.86169e-15
-2.91943e-15
-2.89145e-15
-2.96984e-15
-2.92302e-15
-3.02068e-15
-2.9546e-15
-3.07284e-15
-2.98528e-15
-3.12537e-15
-3.01957e-15
-3.17823e-15
-3.05569e-15
-3.23137e-15
-3.09361e-15
-3.28568e-15
-3.1315e-15
-3.34019e-15
-3.16655e-15
-3.3958e-15
-3.20338e-15
-3.45059e-15
-3.24105e-15
-3.50921e-15
-3.28141e-15
-3.56786e-15
-3.32071e-15
-3.62841e-15
-3.36268e-15
-3.68701e-15
-3.41111e-15
-3.74742e-15
-3.45461e-15
-3.80769e-15
-3.49884e-15
-3.86777e-15
-3.54953e-15
-3.9257e-15
-3.60285e-15
-3.98524e-15
-3.65111e-15
-4.04443e-15
-3.70388e-15
-4.10129e-15
-3.75538e-15
-4.16154e-15
-3.8075e-15
-4.22516e-15
-3.86022e-15
-4.28626e-15
-3.9174e-15
-4.34479e-15
-3.98099e-15
-4.41235e-15
-4.03927e-15
-4.4772e-15
-4.09027e-15
-4.53929e-15
-4.14563e-15
-4.60049e-15
-4.20732e-15
-4.66466e-15
-4.26943e-15
-4.72976e-15
-4.3241e-15
-4.79575e-15
-4.37717e-15
-4.86255e-15
-4.43252e-15
-4.93011e-15
-4.49403e-15
-5.00033e-15
-4.55381e-15
-5.07119e-15
-4.61771e-15
-5.1446e-15
-4.67585e-15
-5.21854e-15
-4.73407e-15
-5.29298e-15
-4.80412e-15
-5.36785e-15
-4.87609e-15
-5.44113e-15
-4.9401e-15
-5.5226e-15
-5.00394e-15
-5.60241e-15
-5.06754e-15
-5.67856e-15
-5.13277e-15
-5.7589e-15
-5.20149e-15
-5.84141e-15
-5.27362e-15
-5.91233e-15
-5.35886e-15
-5.99121e-15
-5.44148e-15
-6.06622e-15
-5.51945e-15
-6.14907e-15
-5.60054e-15
-6.23189e-15
-5.68076e-15
-6.31856e-15
-5.76391e-15
-6.40515e-15
-5.85769e-15
-6.49549e-15
-5.95034e-15
-6.58955e-15
-6.03403e-15
-6.67955e-15
-6.12419e-15
-6.75773e-15
-6.22461e-15
-6.83564e-15
-6.32364e-15
-6.92866e-15
-6.41351e-15
-7.01357e-15
-6.50962e-15
-7.09804e-15
-6.60416e-15
-7.18971e-15
-6.68941e-15
-7.27704e-15
-6.78062e-15
-7.36001e-15
-6.88535e-15
-7.43856e-15
-6.98445e-15
-7.53166e-15
-7.07795e-15
-7.62022e-15
-7.16958e-15
-7.70803e-15
-7.26689e-15
-7.79126e-15
-7.36602e-15
-7.86608e-15
-7.45186e-15
-7.94379e-15
-7.53949e-15
-8.01302e-15
-7.63262e-15
-8.0887e-15
-7.73122e-15
-8.16321e-15
-7.82783e-15
-8.24017e-15
-7.92993e-15
-8.31574e-15
-8.03382e-15
-8.3972e-15
-8.12476e-15
-8.48077e-15
-8.20649e-15
-8.55911e-15
-8.29377e-15
-8.6322e-15
-8.3939e-15
-8.70728e-15
-8.49226e-15
-8.79518e-15
-8.57799e-15
-8.88129e-15
-8.67305e-15
-8.95476e-15
-8.77743e-15
-9.03361e-15
-8.87677e-15
-9.11774e-15
-8.96765e-15
-9.21791e-15
-9.04664e-15
-9.30911e-15
-9.14239e-15
-9.395e-15
-9.24419e-15
-9.48269e-15
-9.3451e-15
-9.57217e-15
-9.43819e-15
-9.66347e-15
-9.54482e-15
-9.75656e-15
-9.64398e-15
-9.8445e-15
-9.73586e-15
-9.94134e-15
-9.82064e-15
-1.00333e-14
-9.90533e-15
-1.01136e-14
-9.99689e-15
-1.01686e-14
-1.00953e-14
-1.02324e-14
-1.01803e-14
-1.03187e-14
-1.02521e-14
-1.04e-14
-1.03176e-14
-1.047e-14
-1.03904e-14
-1.05286e-14
-1.04637e-14
-1.05962e-14
-1.05307e-14
-1.06525e-14
-1.05984e-14
-1.07242e-14
-1.06601e-14
-1.07848e-14
-1.07091e-14
-1.08344e-14
-1.0772e-14
-1.08799e-14
-1.0829e-14
-1.09408e-14
-1.08736e-14
-1.10239e-14
-1.09255e-14
-1.10772e-14
-1.09841e-14
-1.11207e-14
-1.10236e-14
-1.11675e-14
-1.10506e-14
-1.12116e-14
-1.11036e-14
-1.1253e-14
-1.11503e-14
-1.12917e-14
-1.11716e-14
-1.13283e-14
-1.11994e-14
-1.13692e-14
-1.12336e-14
-1.13959e-14
-1.12737e-14
-1.14209e-14
-1.132e-14
-1.14566e-14
-1.13602e-14
-1.14781e-14
-1.13881e-14
-1.1504e-14
-1.14162e-14
-1.15282e-14
-1.14506e-14
-1.15569e-14
-1.1479e-14
-1.15841e-14
-1.15135e-14
-1.15913e-14
-1.15354e-14
-1.16029e-14
-1.15512e-14
-1.16127e-14
-1.15908e-14
-1.16683e-14
-1.16183e-14
-1.16981e-14
-1.16451e-14
-1.16908e-14
-1.16944e-14
-1.16926e-14
-1.17313e-14
-1.17378e-14
-1.17566e-14
-1.17675e-14
-1.17816e-14
-1.17938e-14
-1.18063e-14
-1.184e-14
-1.18188e-14
-1.18374e-14
-1.18418e-14
-1.18779e-14
-1.18754e-14
-1.18925e-14
-1.19191e-14
-1.19148e-14
-1.19277e-14
-1.19561e-14
-1.19583e-14
-1.20057e-14
-1.19762e-14
-1.20083e-14
-1.19918e-14
-1.20306e-14
-1.20387e-14
-1.20828e-14
-1.2073e-14
-1.21204e-14
-1.20831e-14
-1.21562e-14
-1.20677e-14
-1.21702e-14
-1.20799e-14
-1.2185e-14
-1.20751e-14
-1.22012e-14
-1.20627e-14
-1.21984e-14
-1.20626e-14
-1.21981e-14
-1.20527e-14
-1.21787e-14
-1.20751e-14
-1.217e-14
-1.2099e-14
-1.21486e-14
-1.21452e-14
-1.21315e-14
-1.21522e-14
-1.21481e-14
-1.21108e-14
-1.21378e-14
-1.21229e-14
-1.21506e-14
-1.21163e-14
-1.21557e-14
-1.21295e-14
-1.21625e-14
-1.21199e-14
-1.21712e-14
-1.21371e-14
-1.21504e-14
-1.21612e-14
-1.21473e-14
-1.2176e-14
-1.217e-14
-1.21423e-14
-1.21719e-14
-1.21249e-14
-1.2154e-14
-1.21311e-14
-1.21541e-14
-1.21326e-14
-1.21626e-14
-1.21294e-14
-1.2131e-14
-1.21195e-14
-1.21239e-14
-1.21321e-14
-1.21399e-14
-1.2111e-14
-1.21241e-14
-1.20722e-14
-1.21155e-14
-1.20507e-14
-1.21143e-14
-1.2043e-14
-1.21029e-14
-1.20472e-14
-1.20975e-14
-1.20819e-14
-1.21127e-14
-1.20766e-14
-1.21141e-14
-1.20656e-14
-1.20852e-14
-1.20834e-14
-1.21094e-14
-1.21156e-14
-1.21146e-14
-1.20944e-14
-1.21209e-14
-1.20686e-14
-1.21313e-14
-1.20859e-14
-1.21618e-14
-1.21132e-14
-1.21629e-14
-1.21341e-14
-1.21494e-14
-1.21521e-14
-1.21839e-14
-1.21691e-14
-1.21857e-14
-1.22009e-14
-1.21852e-14
-1.22345e-14
-1.221e-14
-1.22429e-14
-1.22458e-14
-1.22574e-14
-1.22645e-14
-1.22586e-14
-1.2269e-14
-1.22747e-14
-1.23198e-14
-1.23052e-14
-1.23573e-14
-1.23007e-14
-1.23877e-14
-1.23344e-14
-1.24422e-14
-1.23107e-14
-1.25191e-14
-1.23073e-14
-1.25725e-14
-1.23088e-14
-1.25834e-14
-1.23369e-14
-1.26134e-14
-1.23766e-14
-1.26927e-14
-1.2662e-14
-1.27412e-14
-1.2693e-14
-1.27567e-14
-1.2689e-14
-1.2792e-14
-1.27165e-14
-1.28484e-14
-1.27882e-14
-1.28756e-14
-1.28274e-14
-1.29016e-14
-1.28824e-14
-1.29514e-14
-1.29425e-14
-1.29761e-14
-1.29762e-14
-1.30039e-14
-1.2983e-14
-1.30376e-14
-1.30383e-14
-1.30419e-14
-1.30655e-14
-1.30629e-14
-1.3069e-14
-1.3085e-14
-1.30959e-14
-1.3091e-14
-1.30978e-14
-1.30982e-14
-1.30902e-14
-1.31068e-14
-1.31027e-14
-1.31339e-14
-1.31005e-14
-1.3149e-14
-1.31138e-14
-1.31689e-14
-1.31775e-14
-1.31905e-14
-1.31931e-14
-1.31969e-14
-1.31944e-14
-1.32053e-14
-1.31804e-14
-1.32175e-14
-1.32016e-14
-1.32512e-14
-1.32233e-14
-1.3271e-14
-1.32264e-14
-1.32951e-14
-1.32655e-14
-1.33041e-14
-1.33061e-14
-1.3332e-14
-1.32935e-14
-1.3345e-14
-1.3299e-14
-1.33432e-14
-1.33801e-14
-1.33203e-14
-1.3392e-14
-1.33311e-14
-1.33356e-14
-1.33412e-14
-1.33402e-14
-1.33406e-14
-1.3318e-14
-1.33404e-14
-1.33056e-14
-1.33225e-14
-1.33419e-14
-1.33419e-14
-1.33421e-14
-1.33403e-14
-1.3344e-14
-1.33475e-14
-1.33282e-14
-1.33351e-14
-1.33432e-14
-1.33214e-14
-1.33405e-14
-1.32959e-14
-1.33293e-14
-1.33092e-14
-1.3341e-14
-1.32902e-14
-1.33248e-14
-1.32798e-14
-1.33117e-14
-1.3268e-14
-1.3343e-14
-1.32845e-14
-1.33374e-14
-1.32673e-14
-1.33035e-14
-1.32165e-14
-1.32721e-14
-1.32062e-14
-1.32649e-14
-1.32258e-14
-1.32712e-14
-1.32119e-14
-1.32581e-14
-1.31861e-14
-1.32257e-14
-1.31921e-14
-1.32173e-14
-1.32097e-14
-1.31995e-14
-1.31742e-14
-1.31597e-14
-1.31405e-14
-1.31307e-14
-1.31413e-14
-1.31352e-14
-1.31545e-14
-1.31176e-14
-1.31363e-14
-1.30993e-14
-1.31314e-14
-1.30803e-14
-1.31631e-14
-1.30832e-14
-1.31419e-14
-1.30617e-14
-1.31362e-14
-1.30267e-14
-1.31468e-14
-1.3012e-14
-1.31512e-14
-1.30169e-14
-1.3149e-14
-1.30067e-14
-1.31169e-14
-1.2981e-14
-1.3125e-14
-1.29752e-14
-1.31031e-14
-1.29659e-14
-1.30861e-14
-1.29652e-14
-1.30853e-14
-1.29617e-14
-1.3113e-14
-1.2955e-14
-1.31219e-14
-1.29568e-14
-1.30997e-14
-1.29551e-14
-1.30939e-14
-1.29626e-14
-1.31225e-14
-1.2986e-14
-1.31307e-14
-1.30073e-14
-1.31116e-14
-1.30022e-14
-1.31014e-14
-1.30014e-14
-1.30935e-14
-1.30052e-14
-1.31001e-14
-1.30015e-14
-1.31028e-14
-1.30026e-14
-1.3095e-14
-1.30086e-14
-1.31014e-14
-1.30133e-14
-1.31095e-14
-1.30168e-14
-1.31192e-14
-1.30193e-14
-1.31115e-14
-1.3027e-14
-1.31115e-14
-1.30338e-14
-1.31127e-14
-1.30397e-14
-1.3115e-14
-1.30318e-14
-1.3112e-14
-1.30295e-14
-1.31168e-14
-1.30394e-14
-1.31228e-14
-1.30485e-14
-1.31234e-14
-1.30372e-14
-1.31253e-14
-1.30317e-14
-1.3122e-14
-1.30386e-14
-1.31265e-14
-1.30448e-14
-1.31389e-14
-1.30503e-14
-1.31392e-14
-1.30552e-14
-1.31339e-14
-1.30527e-14
-1.31297e-14
-1.30632e-14
-1.31332e-14
-1.30733e-14
-1.31375e-14
-1.30693e-14
-1.31357e-14
-1.3065e-14
-1.3121e-14
-1.3074e-14
-1.31205e-14
-1.30831e-14
-1.31204e-14
-1.30851e-14
-1.31068e-14
-1.30872e-14
-1.31002e-14
-1.30823e-14
-1.30938e-14
-1.30706e-14
-1.30945e-14
-1.30729e-14
-1.30882e-14
-1.30755e-14
-1.30891e-14
-1.3057e-14
-1.309e-14
-1.30385e-14
-1.30984e-14
-1.30413e-14
-1.31e-14
-1.30369e-14
-1.31021e-14
-1.30287e-14
-1.30975e-14
-1.30165e-14
-1.30898e-14
-1.30077e-14
-1.3079e-14
-1.30021e-14
-1.30797e-14
-1.29926e-14
-1.30665e-14
-1.29937e-14
-1.30646e-14
-1.29945e-14
-1.30632e-14
-1.29877e-14
-1.30475e-14
-1.29954e-14
-1.30321e-14
-1.3003e-14
-1.30318e-14
-1.30033e-14
-1.30317e-14
-1.29924e-14
-1.30207e-14
-1.29851e-14
-1.30211e-14
-1.29777e-14
-1.30218e-14
-1.29777e-14
-1.30229e-14
-1.297e-14
-1.30168e-14
-1.29584e-14
-1.30072e-14
-1.29692e-14
-1.30016e-14
-1.29799e-14
-1.3e-14
-1.29754e-14
-1.29948e-14
-1.29594e-14
-1.29897e-14
-1.29432e-14
-1.29887e-14
-1.29384e-14
-1.29918e-14
-1.29333e-14
-1.29914e-14
-1.29281e-14
-1.29835e-14
-1.29304e-14
-1.29798e-14
-1.29249e-14
-1.29763e-14
-1.29191e-14
-1.29691e-14
-1.29209e-14
-1.29622e-14
-1.29225e-14
-1.29632e-14
-1.2924e-14
-1.29566e-14
-1.29215e-14
-1.29541e-14
-1.29266e-14
-1.29595e-14
-1.29317e-14
-1.29572e-14
-1.29366e-14
-1.2955e-14
-1.29337e-14
-1.29529e-14
-1.29306e-14
-1.29431e-14
-1.29314e-14
-1.29412e-14
-1.29243e-14
-1.29394e-14
-1.29171e-14
-1.29337e-14
-1.29195e-14
-1.29359e-14
-1.29161e-14
-1.29343e-14
-1.29125e-14
-1.29347e-14
-1.29088e-14
-1.29312e-14
-1.2909e-14
-1.29396e-14
-1.29052e-14
-1.29421e-14
-1.29032e-14
-1.29447e-14
-1.28972e-14
-1.29455e-14
-1.28951e-14
-1.29405e-14
-1.28869e-14
-1.29414e-14
-1.28905e-14
-1.29483e-14
-1.28998e-14
-1.29514e-14
-1.29052e-14
-1.29526e-14
-1.29065e-14
-1.295e-14
-1.29058e-14
-1.29533e-14
-1.29011e-14
-1.29587e-14
-1.29003e-14
-1.29603e-14
-1.28994e-14
-1.29599e-14
-1.28984e-14
-1.29617e-14
-1.29032e-14
-1.29596e-14
-1.2908e-14
-1.29576e-14
-1.2903e-14
-1.29537e-14
-1.28979e-14
-1.29538e-14
-1.28987e-14
-1.29539e-14
-1.28994e-14
-1.29522e-14
-1.28981e-14
-1.29506e-14
-1.28986e-14
-1.2949e-14
-1.29031e-14
-1.29475e-14
-1.29036e-14
-1.29423e-14
-1.29021e-14
-1.2939e-14
-1.29007e-14
-1.29377e-14
-1.29011e-14
-1.29383e-14
-1.28996e-14
-1.29371e-14
-1.29019e-14
-1.29359e-14
-1.29022e-14
-1.29366e-14
-1.29045e-14
-1.29374e-14
-1.29048e-14
-1.29382e-14
-1.29051e-14
-1.29381e-14
-1.29091e-14
-1.29371e-14
-1.29149e-14
-1.29361e-14
-1.2917e-14
-1.29352e-14
-1.29173e-14
-1.29343e-14
-1.29203e-14
-1.29343e-14
-1.29251e-14
-1.29325e-14
-1.2929e-14
-1.29326e-14
-1.29283e-14
-1.29335e-14
-1.29268e-14
-1.29327e-14
-1.2927e-14
-1.29337e-14
-1.29291e-14
-1.29355e-14
-1.29311e-14
-1.29356e-14
-1.2934e-14
-1.29375e-14
-1.2936e-14
-1.29393e-14
-1.29362e-14
-1.29403e-14
-1.29382e-14
-1.29413e-14
-1.29411e-14
-1.29431e-14
-1.29439e-14
-1.29424e-14
-1.2945e-14
-1.29426e-14
-1.29469e-14
-1.29435e-14
-1.29514e-14
-1.29445e-14
-1.2955e-14
-1.2943e-14
-1.29585e-14
-1.29431e-14
-1.29605e-14
-1.29449e-14
-1.29616e-14
-1.29458e-14
-1.29643e-14
-1.29467e-14
-1.2967e-14
-1.29476e-14
-1.29689e-14
-1.29485e-14
-1.29708e-14
-1.29486e-14
-1.29743e-14
-1.29487e-14
-1.29769e-14
-1.2948e-14
-1.29803e-14
-1.29481e-14
-1.29807e-14
-1.29493e-14
-1.29808e-14
-1.2949e-14
-1.2983e-14
-1.29502e-14
-1.29867e-14
-1.29499e-14
-1.29893e-14
-1.29499e-14
-1.29904e-14
-1.29496e-14
-1.29916e-14
-1.295e-14
-1.29917e-14
-1.29497e-14
-1.29929e-14
-1.29504e-14
-1.29947e-14
-1.29514e-14
-1.29959e-14
-1.29517e-14
-1.29957e-14
-1.29521e-14
-1.29955e-14
-1.29524e-14
-1.29957e-14
-1.29539e-14
-1.2995e-14
-1.29555e-14
-1.29946e-14
-1.29561e-14
-1.29951e-14
-1.2957e-14
-1.29953e-14
-1.29579e-14
-1.29949e-14
-1.29587e-14
-1.29949e-14
-1.29601e-14
-1.29951e-14
-1.29615e-14
-1.29954e-14
-1.29623e-14
-1.29956e-14
-1.29629e-14
-1.29961e-14
-1.29634e-14
-1.29975e-14
-1.29641e-14
-1.29983e-14
-1.29649e-14
-1.29981e-14
-1.29659e-14
-1.29978e-14
-1.29664e-14
-1.29981e-14
-1.29669e-14
-1.29985e-14
-1.29674e-14
-1.2999e-14
-1.29675e-14
-1.29993e-14
-1.29677e-14
-1.29998e-14
-1.29679e-14
-1.30002e-14
-1.29681e-14
-1.29998e-14
-1.29683e-14
-1.29997e-14
-1.29686e-14
-1.29999e-14
-1.29686e-14
-1.30001e-14
-1.29686e-14
-1.3e-14
-1.29689e-14
-1.3e-14
-1.29693e-14
-1.29999e-14
-1.29695e-14
-1.29996e-14
-1.29697e-14
-1.29995e-14
-1.297e-14
-1.29995e-14
-1.29702e-14
-1.29998e-14
-1.29704e-14
-1.29999e-14
-1.29707e-14
-1.29998e-14
-1.2971e-14
-1.29998e-14
-1.29712e-14
-1.29998e-14
-1.29713e-14
-1.29997e-14
-1.29715e-14
-1.29996e-14
-1.29717e-14
-1.29996e-14
-1.29721e-14
-1.29995e-14
-1.29725e-14
-1.29994e-14
-1.29727e-14
-1.29992e-14
-1.2973e-14
-1.29991e-14
-1.29733e-14
-1.29991e-14
-1.29737e-14
-1.2999e-14
-1.2974e-14
-1.29988e-14
-1.29742e-14
-1.29987e-14
-1.29746e-14
-1.29985e-14
-1.29749e-14
-1.29983e-14
-1.29752e-14
-1.29982e-14
-1.29755e-14
-1.29981e-14
-1.29757e-14
-1.29981e-14
-1.2976e-14
-1.29981e-14
-1.29762e-14
-1.29981e-14
-1.29764e-14
-1.2998e-14
-1.29765e-14
-1.29978e-14
-1.29767e-14
-1.29977e-14
-1.29769e-14
-1.29977e-14
-1.2977e-14
-1.29976e-14
-1.29771e-14
-1.29976e-14
-1.29772e-14
-1.29975e-14
-1.29773e-14
-1.29975e-14
-1.29774e-14
-1.29975e-14
-1.29775e-14
-1.29974e-14
-1.29775e-14
-1.29974e-14
-1.29775e-14
-1.29974e-14
-1.29776e-14
-1.29974e-14
-1.29776e-14
-1.29974e-14
-1.29776e-14
-1.29974e-14
-1.29777e-14
-1.29973e-14
-1.29777e-14
-1.29974e-14
-1.29778e-14
-1.29973e-14
-1.29778e-14
-1.29974e-14
-1.29778e-14
-1.29974e-14
-1.29778e-14
-1.29974e-14
-1.29778e-14
-1.29974e-14
-1.29778e-14
-1.29974e-14
-1.29778e-14
-1.29974e-14
-1.29778e-14
-1.29974e-14
-1.26474e-14
-1.24147e-14
-1.26701e-14
-1.24551e-14
-1.26443e-14
-1.25498e-14
-1.26714e-14
-1.26033e-14
-1.27311e-14
-1.26849e-14
-1.27735e-14
-1.27364e-14
-1.283e-14
-1.27762e-14
-1.28735e-14
-1.2849e-14
-1.29314e-14
-1.28964e-14
-1.2959e-14
-1.29503e-14
-1.2985e-14
-1.29688e-14
-1.29936e-14
-1.29647e-14
-1.30359e-14
-1.29673e-14
-1.30518e-14
-1.29724e-14
-1.30582e-14
-1.2978e-14
-1.30888e-14
-1.30189e-14
-1.30926e-14
-1.30486e-14
-1.31003e-14
-1.3071e-14
-1.31267e-14
-1.30891e-14
-1.31209e-14
-1.31023e-14
-1.31323e-14
-1.31278e-14
-1.31592e-14
-1.31322e-14
-1.3169e-14
-1.31493e-14
-1.31792e-14
-1.31634e-14
-1.32073e-14
-1.31745e-14
-1.32549e-14
-1.31626e-14
-1.32728e-14
-1.31774e-14
-1.32974e-14
-1.32371e-14
-1.33079e-14
-1.32337e-14
-1.33231e-14
-1.32224e-14
-1.33259e-14
-1.3258e-14
-1.33138e-14
-1.32848e-14
-1.33419e-14
-1.32482e-14
-1.33768e-14
-1.32603e-14
-1.33718e-14
-1.32722e-14
-1.33446e-14
-1.32568e-14
-1.33623e-14
-1.32641e-14
-1.33771e-14
-1.32832e-14
-1.33785e-14
-1.32653e-14
-1.33671e-14
-1.32689e-14
-1.33616e-14
-1.32655e-14
-1.33414e-14
-1.33059e-14
-1.33235e-14
-1.33029e-14
-1.32969e-14
-1.32775e-14
-1.32914e-14
-1.32599e-14
-1.32771e-14
-1.326e-14
-1.32634e-14
-1.32686e-14
-1.32704e-14
-1.32758e-14
-1.32663e-14
-1.32502e-14
-1.32095e-14
-1.3244e-14
-1.32044e-14
-1.32385e-14
-1.31979e-14
-1.32446e-14
-1.31674e-14
-1.32196e-14
-1.31558e-14
-1.31739e-14
-1.311e-14
-1.31824e-14
-1.31039e-14
-1.31599e-14
-1.30941e-14
-1.31385e-14
-1.30815e-14
-1.3107e-14
-1.30781e-14
-1.30981e-14
-1.30731e-14
-1.30893e-14
-1.30777e-14
-1.30578e-14
-1.30593e-14
-1.30364e-14
-1.3029e-14
-1.30363e-14
-1.29965e-14
-1.30358e-14
-1.29953e-14
-1.3013e-14
-1.30033e-14
-1.30135e-14
-1.30093e-14
-1.30259e-14
-1.30014e-14
-1.30272e-14
-1.29676e-14
-1.3006e-14
-1.29428e-14
-1.29858e-14
-1.29266e-14
-1.29785e-14
-1.2931e-14
-1.29843e-14
-1.29088e-14
-1.30154e-14
-1.29183e-14
-1.29895e-14
-1.29244e-14
-1.29773e-14
-1.29396e-14
-1.29784e-14
-1.29405e-14
-1.29561e-14
-1.29579e-14
-1.29524e-14
-1.29802e-14
-1.29788e-14
-1.30075e-14
-1.29928e-14
-1.30218e-14
-1.29942e-14
-1.30049e-14
-1.29888e-14
-1.30124e-14
-1.29892e-14
-1.30322e-14
-1.29955e-14
-1.30459e-14
-1.30011e-14
-1.30535e-14
-1.30061e-14
-1.30615e-14
-1.29912e-14
-1.30702e-14
-1.2988e-14
-1.30733e-14
-1.30026e-14
-1.30836e-14
-1.30161e-14
-1.30881e-14
-1.30223e-14
-1.30738e-14
-1.30211e-14
-1.30664e-14
-1.30192e-14
-1.30658e-14
-1.30231e-14
-1.30654e-14
-1.302e-14
-1.30453e-14
-1.30096e-14
-1.30517e-14
-1.30118e-14
-1.30514e-14
-1.30135e-14
-1.30512e-14
-1.30214e-14
-1.30576e-14
-1.30155e-14
-1.30506e-14
-1.30158e-14
-1.30502e-14
-1.30223e-14
-1.30633e-14
-1.30284e-14
-1.30696e-14
-1.30409e-14
-1.30759e-14
-1.30326e-14
-1.30824e-14
-1.301e-14
-1.30892e-14
-1.30002e-14
-1.30898e-14
-1.30171e-14
-1.30977e-14
-1.30264e-14
-1.30991e-14
-1.30209e-14
-1.3101e-14
-1.30077e-14
-1.31037e-14
-1.29935e-14
-1.31071e-14
-1.29852e-14
-1.31113e-14
-1.29759e-14
-1.31095e-14
-1.29724e-14
-1.30943e-14
-1.29607e-14
-1.3087e-14
-1.29621e-14
-1.30804e-14
-1.29698e-14
-1.30636e-14
-1.29695e-14
-1.30436e-14
-1.29684e-14
-1.30237e-14
-1.29669e-14
-1.30184e-14
-1.29613e-14
-1.30023e-14
-1.29625e-14
-1.30118e-14
-1.29562e-14
-1.3014e-14
-1.29569e-14
-1.30018e-14
-1.29498e-14
-1.29932e-14
-1.29351e-14
-1.29848e-14
-1.29272e-14
-1.29728e-14
-1.29412e-14
-1.29645e-14
-1.29587e-14
-1.29561e-14
-1.29576e-14
-1.29512e-14
-1.29526e-14
-1.29387e-14
-1.29588e-14
-1.29447e-14
-1.29651e-14
-1.29392e-14
-1.29601e-14
-1.29373e-14
-1.2959e-14
-1.29352e-14
-1.29693e-14
-1.29366e-14
-1.29683e-14
-1.29303e-14
-1.29598e-14
-1.29199e-14
-1.294e-14
-1.29169e-14
-1.29354e-14
-1.29138e-14
-1.29386e-14
-1.29106e-14
-1.29418e-14
-1.29032e-14
-1.2949e-14
-1.28918e-14
-1.29486e-14
-1.28916e-14
-1.29485e-14
-1.28874e-14
-1.29446e-14
-1.28945e-14
-1.29409e-14
-1.28898e-14
-1.2949e-14
-1.28848e-14
-1.29689e-14
-1.28912e-14
-1.29774e-14
-1.28935e-14
-1.29745e-14
-1.28917e-14
-1.29757e-14
-1.28896e-14
-1.2981e-14
-1.28912e-14
-1.29826e-14
-1.28886e-14
-1.29806e-14
-1.28936e-14
-1.29788e-14
-1.28984e-14
-1.29811e-14
-1.2903e-14
-1.29856e-14
-1.29036e-14
-1.29785e-14
-1.2904e-14
-1.29696e-14
-1.29042e-14
-1.29668e-14
-1.29043e-14
-1.29661e-14
-1.29083e-14
-1.29635e-14
-1.29062e-14
-1.29513e-14
-1.2908e-14
-1.29431e-14
-1.29077e-14
-1.29408e-14
-1.29133e-14
-1.29367e-14
-1.29109e-14
-1.29346e-14
-1.29007e-14
-1.29306e-14
-1.29021e-14
-1.29267e-14
-1.29055e-14
-1.29228e-14
-1.29068e-14
-1.2919e-14
-1.29062e-14
-1.29132e-14
-1.29074e-14
-1.29054e-14
-1.29087e-14
-1.29016e-14
-1.29099e-14