/*--------------------------------*- C++ -*----------------------------------*\
| =========                 |                                                 |
| \\      /  F ield         | OpenFOAM: The Open Source CFD Toolbox           |
|  \\    /   O peration     | Version:  2012                                  |
|   \\  /    A nd           | Website:  www.openfoam.com                      |
|    \\/     M anipulation  |                                                 |
\*---------------------------------------------------------------------------*/
FoamFile
{
    version     2.0;
    format      ascii;
    class       volVectorField;
    location    "6000";
    object      U;
}
// * * * * * * * * * * * * * * * * * * * * * * * * * * * * * * * * * * * * * //

dimensions      [0 1 -1 0 0 0 0];


internalField   nonuniform List<vector> 
2560
(
(0.00364743 -5.33363e-16 -9.2121e-18)
(0.00364743 4.2116e-19 -1.41567e-21)
(0.0109946 -2.108e-15 -4.14216e-17)
(0.0109946 -8.86993e-19 1.79514e-21)
(0.0184478 -1.97608e-15 -4.33072e-17)
(0.0184478 -8.01705e-19 8.13462e-22)
(0.0260083 -1.92579e-15 -4.51453e-17)
(0.0260083 -1.26046e-18 3.47398e-21)
(0.0336774 -1.81193e-15 -4.72216e-17)
(0.0336774 -1.73399e-18 6.5147e-21)
(0.0414567 -1.86417e-15 -4.94591e-17)
(0.0414567 -2.19839e-18 1.00094e-20)
(0.0493473 -1.86807e-15 -5.17922e-17)
(0.0493473 -2.68605e-18 1.37175e-20)
(0.0573507 -1.86774e-15 -5.42057e-17)
(0.0573507 -3.18822e-18 1.78455e-20)
(0.0654682 -1.86689e-15 -5.66994e-17)
(0.0654682 -3.66239e-18 2.27865e-20)
(0.0737011 -1.86626e-15 -5.92738e-17)
(0.0737011 -4.14119e-18 2.80401e-20)
(0.0820505 -1.8656e-15 -6.19283e-17)
(0.0820505 -4.62394e-18 3.38455e-20)
(0.0905175 -1.86484e-15 -6.46632e-17)
(0.0905175 -5.16051e-18 3.99587e-20)
(0.0991029 -1.86402e-15 -6.74782e-17)
(0.0991029 -5.76173e-18 4.65392e-20)
(0.107807 -1.86314e-15 -7.03725e-17)
(0.107807 -6.37178e-18 5.27887e-20)
(0.116631 -1.86221e-15 -7.33439e-17)
(0.116631 -7.04682e-18 5.86682e-20)
(0.125573 -1.86124e-15 -7.63894e-17)
(0.125573 -7.71544e-18 6.54345e-20)
(0.134633 -1.86031e-15 -7.95038e-17)
(0.134633 -8.31029e-18 7.39719e-20)
(0.143809 -1.85951e-15 -8.26807e-17)
(0.143809 -8.88405e-18 8.40716e-20)
(0.153099 -1.85869e-15 -8.59112e-17)
(0.153099 -9.40778e-18 9.50383e-20)
(0.162498 -1.85778e-15 -8.91836e-17)
(0.162498 -1.00133e-17 1.05704e-19)
(0.172002 -1.85669e-15 -9.24835e-17)
(0.172002 -1.0777e-17 1.14534e-19)
(0.181605 -1.85563e-15 -9.57931e-17)
(0.181605 -1.15683e-17 1.24919e-19)
(0.191297 -1.85473e-15 -9.90933e-17)
(0.191297 -1.22773e-17 1.37656e-19)
(0.201071 -1.85378e-15 -1.02362e-16)
(0.201071 -1.30935e-17 1.50707e-19)
(0.210913 -1.85268e-15 -1.05576e-16)
(0.210913 -1.38739e-17 1.65248e-19)
(0.220811 -1.85157e-15 -1.0871e-16)
(0.220811 -1.47423e-17 1.76629e-19)
(0.23075 -1.85052e-15 -1.0966e-16)
(0.23075 -1.55787e-17 1.86125e-19)
(0.240714 -1.8495e-15 -1.09421e-16)
(0.240714 -1.61601e-17 1.96983e-19)
(0.250685 -1.84854e-15 -1.08999e-16)
(0.250685 -1.68135e-17 2.13403e-19)
(0.260645 -1.84753e-15 -1.08387e-16)
(0.260645 -1.7533e-17 2.35054e-19)
(0.270575 -1.84657e-15 -1.07583e-16)
(0.270575 -1.82424e-17 2.58705e-19)
(0.280457 -1.84556e-15 -1.06585e-16)
(0.280457 -1.90382e-17 2.76162e-19)
(0.290272 -1.8444e-15 -1.05397e-16)
(0.290272 -1.97709e-17 2.8799e-19)
(0.300002 -1.84331e-15 -1.04032e-16)
(0.300002 -2.04609e-17 2.99017e-19)
(0.309631 -1.84223e-15 -1.02507e-16)
(0.309631 -2.12936e-17 2.41537e-19)
(0.319143 -1.84121e-15 -1.00837e-16)
(0.319143 -2.2067e-17 2.06183e-20)
(0.328526 -1.84e-15 -9.95924e-17)
(0.328526 -2.28714e-17 -2.1992e-19)
(0.337768 -1.83885e-15 -9.98515e-17)
(0.337768 -2.35608e-17 -4.72634e-19)
(0.346859 -1.83778e-15 -1.00007e-16)
(0.346859 -2.43242e-17 -7.3833e-19)
(0.355791 -1.83639e-15 -1.00054e-16)
(0.355791 -2.52602e-17 -1.01615e-18)
(0.364558 -1.83506e-15 -1.00014e-16)
(0.364558 -2.60252e-17 -1.30468e-18)
(0.373156 -1.83404e-15 -9.9896e-17)
(0.373156 -2.64342e-17 -1.60256e-18)
(0.381582 -1.83293e-15 -9.9724e-17)
(0.381582 -2.72433e-17 -1.90798e-18)
(0.389835 -1.83155e-15 -9.95071e-17)
(0.389835 -2.83489e-17 -2.22578e-18)
(0.397914 -1.83032e-15 -9.92578e-17)
(0.397914 -2.94987e-17 -2.55799e-18)
(0.405821 -1.8291e-15 -9.89852e-17)
(0.405821 -3.05819e-17 -2.90563e-18)
(0.413557 -1.82784e-15 -9.86908e-17)
(0.413557 -3.15264e-17 -3.26589e-18)
(0.421125 -1.82659e-15 -9.84029e-17)
(0.421125 -3.26819e-17 -3.62429e-18)
(0.428527 -1.82549e-15 -9.81105e-17)
(0.428527 -3.37432e-17 -3.99531e-18)
(0.435768 -1.82437e-15 -9.78142e-17)
(0.435768 -3.47667e-17 -4.37735e-18)
(0.442851 -1.823e-15 -9.75523e-17)
(0.442851 -3.57024e-17 -4.76822e-18)
(0.449781 -1.8211e-15 -9.73105e-17)
(0.449781 -3.7283e-17 -5.17515e-18)
(0.456562 -1.81925e-15 -9.70811e-17)
(0.456562 -3.83912e-17 -5.58062e-18)
(0.463199 -1.81785e-15 -9.68858e-17)
(0.463199 -3.92376e-17 -6.00739e-18)
(0.469695 -1.81662e-15 -9.67192e-17)
(0.469695 -4.06796e-17 -6.45416e-18)
(0.476056 -1.81559e-15 -9.65794e-17)
(0.476056 -4.14731e-17 -6.89696e-18)
(0.482287 -1.81506e-15 -9.64803e-17)
(0.482287 -4.14862e-17 -7.3173e-18)
(0.488391 -1.8147e-15 -9.64192e-17)
(0.488391 -4.15013e-17 -7.76833e-18)
(0.494373 -1.81404e-15 -9.64012e-17)
(0.494373 -4.15573e-17 -8.24382e-18)
(0.500238 -1.81327e-15 -9.64121e-17)
(0.500238 -4.18669e-17 -8.73394e-18)
(0.505989 -1.81232e-15 -9.64678e-17)
(0.505989 -4.21823e-17 -9.23766e-18)
(0.511631 -1.81123e-15 -9.65619e-17)
(0.511631 -4.21782e-17 -9.73648e-18)
(0.517168 -1.80985e-15 -9.66988e-17)
(0.517168 -4.38764e-17 -1.02882e-17)
(0.522604 -1.80831e-15 -9.68604e-17)
(0.522604 -4.45947e-17 -1.08396e-17)
(0.527941 -1.8072e-15 -9.70837e-17)
(0.527941 -4.49864e-17 -1.14052e-17)
(0.533184 -1.80629e-15 -9.73202e-17)
(0.533184 -4.59093e-17 -1.19654e-17)
(0.538337 -1.80545e-15 -9.76116e-17)
(0.538337 -4.5824e-17 -1.2551e-17)
(0.543402 -1.80491e-15 -9.7934e-17)
(0.543402 -4.60533e-17 -1.31692e-17)
(0.548382 -1.80414e-15 -9.82745e-17)
(0.548382 -4.63855e-17 -1.37988e-17)
(0.553281 -1.80287e-15 -9.87353e-17)
(0.553281 -4.66754e-17 -1.44652e-17)
(0.558101 -1.80153e-15 -9.91759e-17)
(0.558101 -4.71227e-17 -1.5115e-17)
(0.562845 -1.80059e-15 -9.96671e-17)
(0.562845 -4.83279e-17 -1.58119e-17)
(0.567517 -1.79948e-15 -1.00195e-16)
(0.567517 -4.9288e-17 -1.65388e-17)
(0.572117 -1.79806e-15 -1.00766e-16)
(0.572117 -4.94825e-17 -1.72759e-17)
(0.57665 -1.79672e-15 -1.01375e-16)
(0.57665 -5.01865e-17 -1.80349e-17)
(0.581116 -1.79514e-15 -1.02029e-16)
(0.581116 -5.14081e-17 -1.8817e-17)
(0.585519 -1.79359e-15 -1.02686e-16)
(0.585519 -5.2108e-17 -1.96282e-17)
(0.58986 -1.79261e-15 -1.0339e-16)
(0.58986 -5.28681e-17 -2.04613e-17)
(0.594141 -1.79166e-15 -1.0414e-16)
(0.594141 -5.39612e-17 -2.13436e-17)
(0.598365 -1.79064e-15 -1.04966e-16)
(0.598365 -5.46631e-17 -2.22764e-17)
(0.602534 -1.78934e-15 -1.05789e-16)
(0.602534 -5.50649e-17 -2.31026e-17)
(0.606648 -1.7879e-15 -1.06609e-16)
(0.606648 -5.63049e-17 -2.40168e-17)
(0.61071 -1.78673e-15 -1.07542e-16)
(0.61071 -5.71591e-17 -2.5065e-17)
(0.614721 -1.78492e-15 -1.08504e-16)
(0.614721 -5.77497e-17 -2.61344e-17)
(0.618684 -1.78283e-15 -1.09476e-16)
(0.618684 -5.97796e-17 -2.71857e-17)
(0.622598 -1.78175e-15 -1.10443e-16)
(0.622598 -6.04677e-17 -2.82136e-17)
(0.626467 -1.78152e-15 -1.11514e-16)
(0.626467 -6.09102e-17 -2.92508e-17)
(0.630291 -1.78082e-15 -1.12569e-16)
(0.630291 -6.17786e-17 -3.0427e-17)
(0.634071 -1.78037e-15 -1.13709e-16)
(0.634071 -6.20679e-17 -3.16621e-17)
(0.63781 -1.7803e-15 -1.14897e-16)
(0.63781 -6.32422e-17 -3.28627e-17)
(0.641507 -1.77892e-15 -1.16196e-16)
(0.641507 -6.44931e-17 -3.40858e-17)
(0.645165 -1.77794e-15 -1.17516e-16)
(0.645165 -6.49473e-17 -3.54042e-17)
(0.648784 -1.77703e-15 -1.18808e-16)
(0.648784 -6.64022e-17 -3.67566e-17)
(0.652366 -1.77653e-15 -1.20193e-16)
(0.652366 -6.74954e-17 -3.80495e-17)
(0.655911 -1.77695e-15 -1.21677e-16)
(0.655911 -6.82351e-17 -3.94668e-17)
(0.65942 -1.77597e-15 -1.2314e-16)
(0.65942 -6.92423e-17 -4.09351e-17)
(0.662895 -1.77431e-15 -1.24749e-16)
(0.662895 -6.96863e-17 -4.24927e-17)
(0.666336 -1.77339e-15 -1.26426e-16)
(0.666336 -7.13888e-17 -4.39192e-17)
(0.669745 -1.77195e-15 -1.28065e-16)
(0.669745 -7.30549e-17 -4.53448e-17)
(0.673122 -1.77036e-15 -1.29749e-16)
(0.673122 -7.31943e-17 -4.68613e-17)
(0.676467 -1.76898e-15 -1.31509e-16)
(0.676467 -7.11399e-17 -4.84309e-17)
(0.679783 -1.76615e-15 -1.33415e-16)
(0.679783 -7.1126e-17 -5.00551e-17)
(0.683068 -1.76402e-15 -1.35218e-16)
(0.683068 -7.28803e-17 -5.17996e-17)
(0.686325 -1.76276e-15 -1.37109e-16)
(0.686325 -7.1352e-17 -5.34823e-17)
(0.689554 -1.76121e-15 -1.39158e-16)
(0.689554 -7.17181e-17 -5.52116e-17)
(0.692756 -1.75996e-15 -1.41181e-16)
(0.692756 -7.28614e-17 -5.71082e-17)
(0.695931 -1.75799e-15 -1.43216e-16)
(0.695931 -7.32932e-17 -5.8935e-17)
(0.69908 -1.75556e-15 -1.45367e-16)
(0.69908 -7.5274e-17 -6.07373e-17)
(0.702203 -1.75203e-15 -1.47602e-16)
(0.702203 -7.71196e-17 -6.28379e-17)
(0.705301 -1.74787e-15 -1.49884e-16)
(0.705301 -7.90093e-17 -6.49435e-17)
(0.708375 -1.74476e-15 -1.52208e-16)
(0.708375 -8.0191e-17 -6.69759e-17)
(0.711426 -1.74153e-15 -1.54625e-16)
(0.711426 -8.14691e-17 -6.90749e-17)
(0.714453 -1.73882e-15 -1.56978e-16)
(0.714453 -8.40359e-17 -7.12231e-17)
(0.717457 -1.73699e-15 -1.5938e-16)
(0.717457 -8.5041e-17 -7.35537e-17)
(0.720439 -1.73363e-15 -1.61889e-16)
(0.720439 -8.68716e-17 -7.58285e-17)
(0.7234 -1.73089e-15 -1.64584e-16)
(0.7234 -8.91938e-17 -7.82304e-17)
(0.726339 -1.72899e-15 -1.67309e-16)
(0.726339 -8.98104e-17 -8.07194e-17)
(0.729257 -1.72542e-15 -1.70196e-16)
(0.729257 -9.10826e-17 -8.32902e-17)
(0.732155 -1.72181e-15 -1.72864e-16)
(0.732155 -9.25827e-17 -8.58229e-17)
(0.735033 -1.71791e-15 -1.75725e-16)
(0.735033 -9.62956e-17 -8.83881e-17)
(0.737891 -1.71409e-15 -1.78813e-16)
(0.737891 -9.89414e-17 -9.10819e-17)
(0.74073 -1.7107e-15 -1.81722e-16)
(0.74073 -1.00946e-16 -9.39082e-17)
(0.743551 -1.70888e-15 -1.84766e-16)
(0.743551 -1.03278e-16 -9.68091e-17)
(0.746353 -1.70705e-15 -1.87951e-16)
(0.746353 -1.05088e-16 -9.96442e-17)
(0.749136 -1.70436e-15 -1.91301e-16)
(0.749136 -1.0681e-16 -1.02756e-16)
(0.751903 -1.7025e-15 -1.94661e-16)
(0.751903 -1.08368e-16 -1.0587e-16)
(0.754651 -1.70041e-15 -1.97956e-16)
(0.754651 -1.10586e-16 -1.09061e-16)
(0.757383 -1.698e-15 -2.01304e-16)
(0.757383 -1.12542e-16 -1.12136e-16)
(0.760098 -1.6946e-15 -2.05098e-16)
(0.760098 -1.1605e-16 -1.15454e-16)
(0.762797 -1.69071e-15 -2.08761e-16)
(0.762797 -1.16916e-16 -1.19125e-16)
(0.765479 -1.68759e-15 -2.12578e-16)
(0.765479 -1.15618e-16 -1.2285e-16)
(0.768146 -1.68413e-15 -2.16301e-16)
(0.768146 -1.16136e-16 -1.26174e-16)
(0.770797 -1.6808e-15 -2.20299e-16)
(0.770797 -1.18488e-16 -1.29543e-16)
(0.773432 -1.67725e-15 -2.24451e-16)
(0.773432 -1.19803e-16 -1.33472e-16)
(0.776053 -1.67101e-15 -2.28634e-16)
(0.776053 -1.20192e-16 -1.37382e-16)
(0.778659 -1.66623e-15 -2.32666e-16)
(0.778659 -1.22526e-16 -1.41067e-16)
(0.78125 -1.66494e-15 -2.37272e-16)
(0.78125 -1.25306e-16 -1.45133e-16)
(0.783827 -1.66466e-15 -2.41351e-16)
(0.783827 -1.25299e-16 -1.49533e-16)
(0.78639 -1.66e-15 -2.46073e-16)
(0.78639 -1.25878e-16 -1.53548e-16)
(0.78894 -1.64988e-15 -2.50843e-16)
(0.78894 -1.30191e-16 -1.57589e-16)
(0.791475 -1.64585e-15 -2.55356e-16)
(0.791475 -1.32724e-16 -1.62384e-16)
(0.793997 -1.6441e-15 -2.59971e-16)
(0.793997 -1.33349e-16 -1.67139e-16)
(0.796506 -1.64125e-15 -2.65033e-16)
(0.796506 -1.36644e-16 -1.7158e-16)
(0.799002 -1.6382e-15 -2.69946e-16)
(0.799002 -1.39887e-16 -1.7652e-16)
(0.801485 -1.63389e-15 -2.7505e-16)
(0.801485 -1.42213e-16 -1.816e-16)
(0.803956 -1.63107e-15 -2.80113e-16)
(0.803956 -1.47791e-16 -1.86545e-16)
(0.806414 -1.62593e-15 -2.85281e-16)
(0.806414 -1.51014e-16 -1.91777e-16)
(0.80886 -1.62205e-15 -2.90915e-16)
(0.80886 -1.53222e-16 -1.96973e-16)
(0.811294 -1.62001e-15 -2.96252e-16)
(0.811294 -1.57018e-16 -2.02643e-16)
(0.813716 -1.61672e-15 -3.01778e-16)
(0.813716 -1.60498e-16 -2.08128e-16)
(0.816126 -1.6163e-15 -3.07112e-16)
(0.816126 -1.62566e-16 -2.14101e-16)
(0.818525 -1.61762e-15 -3.12897e-16)
(0.818525 -1.61469e-16 -2.20177e-16)
(0.820912 -1.6155e-15 -3.18914e-16)
(0.820912 -1.63538e-16 -2.25983e-16)
(0.823288 -1.61289e-15 -3.25803e-16)
(0.823288 -1.65383e-16 -2.31979e-16)
(0.825653 -1.61123e-15 -3.32088e-16)
(0.825653 -1.61123e-16 -2.37812e-16)
(0.828007 -1.60966e-15 -3.38367e-16)
(0.828007 -1.6977e-16 -2.44474e-16)
(0.83035 -1.60951e-15 -3.44922e-16)
(0.83035 -1.67945e-16 -2.51708e-16)
(0.832683 -1.60862e-15 -3.51917e-16)
(0.832683 -1.67515e-16 -2.58902e-16)
(0.835004 -1.60287e-15 -3.59518e-16)
(0.835004 -1.69402e-16 -2.65266e-16)
(0.837316 -1.59371e-15 -3.67151e-16)
(0.837316 -1.78001e-16 -2.72821e-16)
(0.839617 -1.58489e-15 -3.74951e-16)
(0.839617 -1.79166e-16 -2.8098e-16)
(0.841908 -1.57969e-15 -3.8199e-16)
(0.841908 -1.85811e-16 -2.87989e-16)
(0.844189 -1.57361e-15 -3.8977e-16)
(0.844189 -1.91654e-16 -2.96622e-16)
(0.84646 -1.56923e-15 -3.98511e-16)
(0.84646 -1.98257e-16 -3.05003e-16)
(0.848721 -1.57019e-15 -4.06224e-16)
(0.848721 -2.05552e-16 -3.13116e-16)
(0.850973 -1.56922e-15 -4.14449e-16)
(0.850973 -2.16003e-16 -3.22197e-16)
(0.853215 -1.56701e-15 -4.23769e-16)
(0.853215 -2.22308e-16 -3.30782e-16)
(0.855447 -1.56689e-15 -4.32319e-16)
(0.855447 -2.3131e-16 -3.3983e-16)
(0.85767 -1.56476e-15 -4.41738e-16)
(0.85767 -2.41209e-16 -3.49186e-16)
(0.859884 -1.56263e-15 -4.50689e-16)
(0.859884 -2.45618e-16 -3.58666e-16)
(0.862088 -1.55877e-15 -4.60109e-16)
(0.862088 -2.55598e-16 -3.65557e-16)
(0.864284 -1.548e-15 -4.6973e-16)
(0.864284 -2.68318e-16 -3.66263e-16)
(0.86647 -1.542e-15 -4.80696e-16)
(0.86647 -2.77917e-16 -3.66287e-16)
(0.868647 -1.53899e-15 -4.90012e-16)
(0.868647 -2.87615e-16 -3.67347e-16)
(0.870816 -1.53186e-15 -5.00414e-16)
(0.870816 -3.01267e-16 -3.67746e-16)
(0.872976 -1.52617e-15 -5.10645e-16)
(0.872976 -3.1041e-16 -3.67805e-16)
(0.875127 -1.51963e-15 -5.12432e-16)
(0.875127 -3.23721e-16 -3.6766e-16)
(0.87727 -1.50876e-15 -5.11381e-16)
(0.87727 -3.36722e-16 -3.66609e-16)
(0.879404 -1.49578e-15 -5.1154e-16)
(0.879404 -3.43537e-16 -3.65297e-16)
(0.881529 -1.48363e-15 -5.12354e-16)
(0.881529 -3.5966e-16 -3.64824e-16)
(0.883647 -1.47289e-15 -5.13492e-16)
(0.883647 -3.74564e-16 -3.64378e-16)
(0.885756 -1.46455e-15 -5.13745e-16)
(0.885756 -3.82096e-16 -3.64421e-16)
(0.887857 -1.45325e-15 -5.13261e-16)
(0.887857 -3.94751e-16 -3.64016e-16)
(0.889949 -1.44299e-15 -5.13558e-16)
(0.889949 -4.08336e-16 -3.62428e-16)
(0.892034 -1.42954e-15 -5.13839e-16)
(0.892034 -4.22711e-16 -3.61295e-16)
(0.89411 -1.41144e-15 -5.14437e-16)
(0.89411 -4.35484e-16 -3.60671e-16)
(0.896179 -1.39987e-15 -5.14837e-16)
(0.896179 -4.49339e-16 -3.59834e-16)
(0.898239 -1.38832e-15 -5.1491e-16)
(0.898239 -4.65839e-16 -3.58674e-16)
(0.900292 -1.37785e-15 -5.14945e-16)
(0.900292 -4.77634e-16 -3.57167e-16)
(0.902337 -1.36834e-15 -5.14775e-16)
(0.902337 -4.91179e-16 -3.56055e-16)
(0.904375 -1.35467e-15 -5.14698e-16)
(0.904375 -5.04766e-16 -3.55012e-16)
(0.906404 -1.33886e-15 -5.15236e-16)
(0.906404 -5.18272e-16 -3.55122e-16)
(0.908427 -1.32727e-15 -5.16054e-16)
(0.908427 -5.27799e-16 -3.5503e-16)
(0.910441 -1.32162e-15 -5.16237e-16)
(0.910441 -5.31202e-16 -3.54991e-16)
(0.912448 -1.31841e-15 -5.16708e-16)
(0.912448 -5.36811e-16 -3.55075e-16)
(0.914448 -1.31541e-15 -5.14784e-16)
(0.914448 -5.46042e-16 -3.56445e-16)
(0.91644 -1.31247e-15 -5.13026e-16)
(0.91644 -5.43358e-16 -3.55285e-16)
(0.918424 -1.30566e-15 -5.12872e-16)
(0.918424 -5.53245e-16 -3.53857e-16)
(0.920402 -1.29754e-15 -5.11295e-16)
(0.920402 -5.63557e-16 -3.54055e-16)
(0.922372 -1.28959e-15 -5.08963e-16)
(0.922372 -5.66225e-16 -3.53091e-16)
(0.924335 -1.27708e-15 -5.09576e-16)
(0.924335 -5.69682e-16 -3.50238e-16)
(0.926291 -1.26023e-15 -5.09946e-16)
(0.926291 -5.79819e-16 -3.50848e-16)
(0.928239 -1.25121e-15 -5.10094e-16)
(0.928239 -5.90431e-16 -3.50335e-16)
(0.930181 -1.24923e-15 -5.1028e-16)
(0.930181 -5.9888e-16 -3.48588e-16)
(0.932115 -1.24677e-15 -5.10243e-16)
(0.932115 -6.04567e-16 -3.48654e-16)
(0.934042 -1.24324e-15 -5.11185e-16)
(0.934042 -6.09682e-16 -3.47293e-16)
(0.935963 -1.23874e-15 -5.09714e-16)
(0.935963 -6.19164e-16 -3.45359e-16)
(0.937876 -1.23073e-15 -5.05805e-16)
(0.937876 -6.13499e-16 -3.45409e-16)
(0.939782 -1.22471e-15 -5.02302e-16)
(0.939782 -6.2538e-16 -3.42769e-16)
(0.941682 -1.22169e-15 -4.99289e-16)
(0.941682 -6.35258e-16 -3.39983e-16)
(0.943574 -1.21387e-15 -4.96348e-16)
(0.943574 -6.45752e-16 -3.38405e-16)
(0.94546 -1.2079e-15 -4.90638e-16)
(0.94546 -6.44683e-16 -3.38415e-16)
(0.947338 -1.19926e-15 -4.80957e-16)
(0.947338 -6.51376e-16 -3.37069e-16)
(0.94921 -1.18917e-15 -4.71313e-16)
(0.94921 -6.5272e-16 -3.31197e-16)
(0.951076 -1.18195e-15 -4.64469e-16)
(0.951076 -6.56939e-16 -3.26276e-16)
(0.952934 -1.16727e-15 -4.60008e-16)
(0.952934 -6.69718e-16 -3.24066e-16)
(0.954785 -1.14822e-15 -4.54783e-16)
(0.954785 -6.80209e-16 -3.2324e-16)
(0.95663 -1.1371e-15 -4.49331e-16)
(0.95663 -6.90092e-16 -3.21826e-16)
(0.958468 -1.13526e-15 -4.42365e-16)
(0.958468 -6.86618e-16 -3.18808e-16)
(0.9603 -1.13361e-15 -4.37263e-16)
(0.9603 -6.89202e-16 -3.1401e-16)
(0.962125 -1.12639e-15 -4.29321e-16)
(0.962125 -7.07662e-16 -3.13451e-16)
(0.963943 -1.1161e-15 -4.18037e-16)
(0.963943 -7.114e-16 -3.10052e-16)
(0.965754 -1.10378e-15 -4.10128e-16)
(0.965754 -7.10111e-16 -3.03071e-16)
(0.967559 -1.09323e-15 -4.05563e-16)
(0.967559 -7.29062e-16 -2.96706e-16)
(0.969357 -1.07895e-15 -3.98925e-16)
(0.969357 -7.34973e-16 -2.94793e-16)
(0.971148 -1.07095e-15 -3.93813e-16)
(0.971148 -7.33303e-16 -2.88947e-16)
(0.972933 -1.06855e-15 -3.86022e-16)
(0.972933 -7.34577e-16 -2.89187e-16)
(0.974711 -1.06013e-15 -3.77006e-16)
(0.974711 -7.4044e-16 -2.8502e-16)
(0.976482 -1.05468e-15 -3.73582e-16)
(0.976482 -7.44784e-16 -2.84408e-16)
(0.978247 -1.04942e-15 -3.70009e-16)
(0.978247 -7.54788e-16 -2.87549e-16)
(0.980005 -1.04899e-15 -3.6228e-16)
(0.980005 -7.62922e-16 -2.8358e-16)
(0.981756 -1.05182e-15 -3.51912e-16)
(0.981756 -7.53402e-16 -2.78635e-16)
(0.983501 -1.04308e-15 -3.45454e-16)
(0.983501 -7.51672e-16 -2.75689e-16)
(0.985239 -1.03545e-15 -3.37294e-16)
(0.985239 -7.71145e-16 -2.74164e-16)
(0.986971 -1.02657e-15 -3.27706e-16)
(0.986971 -7.7209e-16 -2.67526e-16)
(0.988695 -1.0175e-15 -3.22835e-16)
(0.988695 -7.66268e-16 -2.54315e-16)
(0.990413 -1.01142e-15 -3.16624e-16)
(0.990413 -7.64235e-16 -2.45299e-16)
(0.992125 -1.00116e-15 -3.11601e-16)
(0.992125 -7.61848e-16 -2.403e-16)
(0.993829 -1.00234e-15 -3.09184e-16)
(0.993829 -7.59701e-16 -2.41604e-16)
(0.995527 -1.00708e-15 -3.01082e-16)
(0.995527 -7.41731e-16 -2.43419e-16)
(0.997218 -1.00804e-15 -2.94177e-16)
(0.997218 -7.39247e-16 -2.42102e-16)
(0.998902 -1.00858e-15 -2.83722e-16)
(0.998902 -7.39986e-16 -2.39455e-16)
(1.00058 -1.00914e-15 -2.71019e-16)
(1.00058 -7.24554e-16 -2.3396e-16)
(1.00225 -1.0148e-15 -2.70822e-16)
(1.00225 -7.19864e-16 -2.28602e-16)
(1.00391 -1.00588e-15 -2.63418e-16)
(1.00391 -7.18823e-16 -2.1981e-16)
(1.00557 -9.82105e-16 -2.53668e-16)
(1.00557 -7.27518e-16 -2.04801e-16)
(1.00722 -9.53591e-16 -2.26195e-16)
(1.00722 -7.38401e-16 -1.95997e-16)
(1.00886 -9.01664e-16 -2.25788e-16)
(1.00886 -7.32398e-16 -1.82946e-16)
(1.0105 -8.60933e-16 -2.40538e-16)
(1.0105 -7.16742e-16 -1.71692e-16)
(1.01213 -8.34086e-16 -2.40336e-16)
(1.01213 -7.02481e-16 -1.70674e-16)
(1.01375 -8.11186e-16 -2.24372e-16)
(1.01375 -6.94401e-16 -1.75712e-16)
(1.01536 -8.0152e-16 -2.16599e-16)
(1.01536 -6.84468e-16 -1.74854e-16)
(1.01697 -7.79156e-16 -2.08442e-16)
(1.01697 -6.72336e-16 -1.87181e-16)
(1.01857 -7.58204e-16 -2.0319e-16)
(1.01857 -6.71354e-16 -1.99606e-16)
(1.02016 -7.38319e-16 -2.1641e-16)
(1.02016 -6.60829e-16 -2.01705e-16)
(1.02174 -7.21007e-16 -2.16492e-16)
(1.02174 -6.64441e-16 -2.02093e-16)
(1.02332 -7.12594e-16 -2.12967e-16)
(1.02332 -6.61852e-16 -2.03269e-16)
(1.02489 -7.01223e-16 -2.12405e-16)
(1.02489 -6.44913e-16 -2.09046e-16)
(1.02645 -6.89736e-16 -1.959e-16)
(1.02645 -6.32336e-16 -2.10647e-16)
(1.028 -6.63881e-16 -1.88016e-16)
(1.028 -6.38043e-16 -2.21059e-16)
(1.02955 -6.41719e-16 -2.16799e-16)
(1.02955 -6.53961e-16 -2.30751e-16)
(1.03109 -6.47561e-16 -2.37787e-16)
(1.03109 -6.73692e-16 -2.27902e-16)
(1.03262 -6.76666e-16 -2.42382e-16)
(1.03262 -6.7583e-16 -2.29545e-16)
(1.03414 -6.62047e-16 -2.51607e-16)
(1.03414 -6.62274e-16 -2.4715e-16)
(1.03565 -6.83627e-16 -2.57891e-16)
(1.03565 -6.70463e-16 -2.55683e-16)
(1.03715 -6.67657e-16 -2.63442e-16)
(1.03715 -6.7584e-16 -2.78797e-16)
(1.03865 -6.571e-16 -2.78878e-16)
(1.03865 -6.5542e-16 -3.01231e-16)
(1.04013 -6.50777e-16 -2.95104e-16)
(1.04013 -6.54978e-16 -3.12353e-16)
(1.04161 -6.62476e-16 -3.16173e-16)
(1.04161 -6.48855e-16 -3.05437e-16)
(1.04308 -6.57505e-16 -3.24622e-16)
(1.04308 -6.31048e-16 -3.09675e-16)
(1.04454 -6.4785e-16 -3.31607e-16)
(1.04454 -6.48758e-16 -3.33646e-16)
(1.04599 -6.39879e-16 -3.47494e-16)
(1.04599 -6.64148e-16 -3.40101e-16)
(1.04743 -6.57323e-16 -3.50999e-16)
(1.04743 -6.5927e-16 -3.27575e-16)
(1.04886 -6.73493e-16 -3.54007e-16)
(1.04886 -5.95227e-16 -3.22641e-16)
(1.05028 -6.55559e-16 -3.51042e-16)
(1.05028 -6.70055e-16 -3.30991e-16)
(1.05169 -6.43266e-16 -3.60628e-16)
(1.05169 -6.58106e-16 -3.38841e-16)
(1.05309 -6.35214e-16 -3.76281e-16)
(1.05309 -6.56198e-16 -3.63362e-16)
(1.05448 -6.27723e-16 -3.84971e-16)
(1.05448 -6.48785e-16 -3.59716e-16)
(1.05585 -6.22141e-16 -3.7645e-16)
(1.05585 -6.36591e-16 -3.69946e-16)
(1.05722 -6.07538e-16 -3.93449e-16)
(1.05722 -6.2985e-16 -3.64798e-16)
(1.05857 -6.0184e-16 -4.09807e-16)
(1.05857 -6.15008e-16 -3.52748e-16)
(1.05991 -6.14094e-16 -4.09689e-16)
(1.05991 -6.08225e-16 -3.69187e-16)
(1.06124 -6.37306e-16 -4.10881e-16)
(1.06124 -5.85756e-16 -3.98091e-16)
(1.06256 -6.22633e-16 -4.01255e-16)
(1.06256 -5.4847e-16 -4.13984e-16)
(1.06386 -5.99212e-16 -4.05394e-16)
(1.06386 -5.37784e-16 -4.05947e-16)
(1.06515 -5.65109e-16 -4.17367e-16)
(1.06515 -5.61952e-16 -4.28856e-16)
(1.06643 -5.73506e-16 -4.34368e-16)
(1.06643 -5.84743e-16 -4.43493e-16)
(1.06769 -5.63998e-16 -4.33324e-16)
(1.06769 -5.44961e-16 -4.59617e-16)
(1.06894 -5.48566e-16 -4.47269e-16)
(1.06894 -5.39333e-16 -4.5083e-16)
(1.07017 -5.16466e-16 -4.34058e-16)
(1.07017 -5.13169e-16 -4.67392e-16)
(1.07138 -5.06725e-16 -4.51397e-16)
(1.07138 -5.5759e-16 -5.21187e-16)
(1.07258 -4.72863e-16 -4.54703e-16)
(1.07258 -5.37898e-16 -5.25619e-16)
(1.07376 -5.15438e-16 -4.47455e-16)
(1.07376 -5.06823e-16 -5.23991e-16)
(1.07492 -4.96593e-16 -4.59543e-16)
(1.07492 -5.16931e-16 -5.07789e-16)
(1.07607 -5.09154e-16 -4.42781e-16)
(1.07607 -5.23618e-16 -4.47714e-16)
(1.07719 -5.42447e-16 -4.31736e-16)
(1.07719 -5.21248e-16 -4.2033e-16)
(1.07829 -5.37132e-16 -4.5759e-16)
(1.07829 -5.25849e-16 -4.3432e-16)
(1.07937 -4.62887e-16 -4.70921e-16)
(1.07937 -5.18019e-16 -4.50539e-16)
(1.08043 -5.21367e-16 -4.53798e-16)
(1.08043 -5.39207e-16 -3.80737e-16)
(1.08146 -5.22581e-16 -4.98457e-16)
(1.08146 -5.39527e-16 -3.73035e-16)
(1.08247 -5.26681e-16 -5.14062e-16)
(1.08247 -4.78127e-16 -4.00287e-16)
(1.08345 -5.33995e-16 -4.86796e-16)
(1.08345 -5.3e-16 -4.21145e-16)
(1.08441 -5.62744e-16 -4.45261e-16)
(1.08441 -5.46095e-16 -4.34045e-16)
(1.08533 -5.5816e-16 -4.69452e-16)
(1.08533 -5.21175e-16 -4.4613e-16)
(1.08622 -5.31188e-16 -4.9726e-16)
(1.08622 -5.54212e-16 -4.789e-16)
(1.08708 -6.09897e-16 -4.6692e-16)
(1.08708 -5.83322e-16 -4.25872e-16)
(1.08791 -5.84247e-16 -4.40284e-16)
(1.08791 -5.69815e-16 -3.81881e-16)
(1.08869 -5.59777e-16 -4.46965e-16)
(1.08869 -5.9516e-16 -3.83938e-16)
(1.08944 -5.35454e-16 -4.66954e-16)
(1.08944 -5.48637e-16 -4.33154e-16)
(1.09014 -5.26847e-16 -4.41137e-16)
(1.09014 -5.40902e-16 -4.12323e-16)
(1.0908 -5.6946e-16 -4.09511e-16)
(1.0908 -5.23643e-16 -4.12196e-16)
(1.09141 -5.59836e-16 -3.75566e-16)
(1.09141 -5.35864e-16 -4.47809e-16)
(1.09196 -5.27791e-16 -3.39409e-16)
(1.09196 -5.86468e-16 -3.9065e-16)
(1.09246 -5.09841e-16 -2.92976e-16)
(1.09246 -5.22516e-16 -3.67675e-16)
(1.0929 -5.04245e-16 -3.07948e-16)
(1.0929 -5.10455e-16 -3.36538e-16)
(1.09328 -5.18069e-16 -3.06809e-16)
(1.09328 -4.95961e-16 -3.80403e-16)
(1.09359 -4.77815e-16 -2.01488e-16)
(1.09359 -4.89211e-16 -4.38089e-16)
(1.09383 -4.33619e-16 -1.20641e-16)
(1.09383 -5.07379e-16 -4.25203e-16)
(1.09399 -4.74288e-16 -8.3713e-17)
(1.09399 -4.63545e-16 -4.20667e-16)
(1.09408 -4.61552e-16 -4.39665e-17)
(1.09408 -4.25223e-16 -3.94919e-16)
(0.00364743 2.42482e-19 2.83916e-18)
(0.00364743 1.44789e-19 1.88033e-17)
(0.0109946 -4.00896e-19 1.20664e-17)
(0.0109946 -1.56853e-19 7.29436e-17)
(0.0184478 -2.95045e-19 1.23771e-17)
(0.0184478 -5.81026e-20 7.50868e-17)
(0.0260083 -4.63352e-19 1.35449e-17)
(0.0260083 -1.02701e-19 7.72983e-17)
(0.0336774 -6.25329e-19 1.46476e-17)
(0.0336774 -1.5192e-19 7.95806e-17)
(0.0414567 -7.96861e-19 1.52585e-17)
(0.0414567 -1.99403e-19 8.1936e-17)
(0.0493473 -9.8864e-19 1.56857e-17)
(0.0493473 -2.32707e-19 8.43666e-17)
(0.0573507 -1.18379e-18 1.61215e-17)
(0.0573507 -2.40739e-19 8.68745e-17)
(0.0654682 -1.39736e-18 1.65655e-17)
(0.0654682 -2.78641e-19 8.94622e-17)
(0.0737011 -1.6095e-18 1.70173e-17)
(0.0737011 -2.9547e-19 9.21308e-17)
(0.0820505 -1.83624e-18 1.74773e-17)
(0.0820505 -3.06557e-19 9.48808e-17)
(0.0905175 -2.06822e-18 1.79443e-17)
(0.0905175 -3.44686e-19 9.77139e-17)
(0.0991029 -2.26262e-18 1.84185e-17)
(0.0991029 -3.94066e-19 1.00629e-16)
(0.107807 -2.45837e-18 1.88996e-17)
(0.107807 -5.00494e-19 1.03623e-16)
(0.116631 -2.65082e-18 1.93875e-17)
(0.116631 -5.45815e-19 1.06694e-16)
(0.125573 -2.81876e-18 1.98805e-17)
(0.125573 -5.78444e-19 1.09838e-16)
(0.134633 -2.96667e-18 2.03791e-17)
(0.134633 -5.71934e-19 1.13048e-16)
(0.143809 -3.19186e-18 2.088e-17)
(0.143809 -5.60132e-19 1.16313e-16)
(0.153099 -3.43063e-18 2.13809e-17)
(0.153099 -5.24932e-19 1.1962e-16)
(0.162498 -3.63606e-18 2.18785e-17)
(0.162498 -4.71578e-19 1.22956e-16)
(0.172002 -3.87538e-18 2.23694e-17)
(0.172002 -5.20808e-19 1.26298e-16)
(0.181605 -4.09102e-18 2.28511e-17)
(0.181605 -5.94319e-19 1.29628e-16)
(0.191297 -4.25056e-18 2.33175e-17)
(0.191297 -6.91598e-19 1.32919e-16)
(0.201071 -4.57491e-18 2.37637e-17)
(0.201071 -8.4785e-19 1.36145e-16)
(0.210913 -5.00953e-18 2.41791e-17)
(0.210913 -9.14693e-19 1.39279e-16)
(0.220811 -5.31914e-18 2.45608e-17)
(0.220811 -8.87365e-19 1.42286e-16)
(0.23075 -5.69956e-18 2.49056e-17)
(0.23075 -9.84614e-19 1.45136e-16)
(0.240714 -6.13129e-18 2.52074e-17)
(0.240714 -1.0656e-18 1.47802e-16)
(0.250685 -6.45227e-18 2.54641e-17)
(0.250685 -1.07812e-18 1.50255e-16)
(0.260645 -6.69478e-18 2.56738e-17)
(0.260645 -1.29075e-18 1.52478e-16)
(0.270575 -6.79402e-18 2.58372e-17)
(0.270575 -1.61297e-18 1.54451e-16)
(0.280457 -6.81711e-18 2.5958e-17)
(0.280457 -1.69699e-18 1.56154e-16)
(0.290272 -7.01392e-18 2.60327e-17)
(0.290272 -1.87858e-18 1.57587e-16)
(0.300002 -7.21653e-18 2.6063e-17)
(0.300002 -2.25536e-18 1.58755e-16)
(0.309631 -7.33487e-18 2.60479e-17)
(0.309631 -2.24581e-18 1.59675e-16)
(0.319143 -7.52249e-18 2.59903e-17)
(0.319143 -2.23811e-18 1.60353e-16)
(0.328526 -7.77798e-18 2.5888e-17)
(0.328526 -2.22299e-18 1.60804e-16)
(0.337768 -8.14161e-18 2.57434e-17)
(0.337768 -2.11069e-18 1.61054e-16)
(0.346859 -8.45444e-18 2.55521e-17)
(0.346859 -2.0185e-18 1.61032e-16)
(0.355791 -8.73086e-18 2.53245e-17)
(0.355791 -1.836e-18 1.60723e-16)
(0.364558 -8.70296e-18 2.59654e-17)
(0.364558 -1.78996e-18 1.60267e-16)
(0.373156 -8.90022e-18 2.78466e-17)
(0.373156 -1.93274e-18 1.59698e-16)
(0.381582 -9.61768e-18 2.96609e-17)
(0.381582 -2.19585e-18 1.59045e-16)
(0.389835 -1.0061e-17 3.1413e-17)
(0.389835 -2.21464e-18 1.58317e-16)
(0.397914 -1.02605e-17 3.31172e-17)
(0.397914 -2.50614e-18 1.57537e-16)
(0.405821 -1.06347e-17 3.47728e-17)
(0.405821 -2.37124e-18 1.56722e-16)
(0.413557 -1.11043e-17 3.63819e-17)
(0.413557 -2.11777e-18 1.55896e-16)
(0.421125 -1.13271e-17 3.79462e-17)
(0.421125 -2.2436e-18 1.55083e-16)
(0.428527 -1.16019e-17 3.94613e-17)
(0.428527 -1.97722e-18 1.54282e-16)
(0.435768 -1.19185e-17 4.0933e-17)
(0.435768 -1.59951e-18 1.5351e-16)
(0.442851 -1.19838e-17 4.23534e-17)
(0.442851 -1.66807e-18 1.52765e-16)
(0.449781 -1.24575e-17 4.37456e-17)
(0.449781 -1.61695e-18 1.52049e-16)
(0.456562 -1.31074e-17 4.51052e-17)
(0.456562 -1.63327e-18 1.51384e-16)
(0.463199 -1.353e-17 4.64219e-17)
(0.463199 -1.62067e-18 1.50757e-16)
(0.469695 -1.41928e-17 4.77122e-17)
(0.469695 -9.38995e-19 1.50171e-16)
(0.476056 -1.4539e-17 4.89759e-17)
(0.476056 -7.54136e-19 1.49651e-16)
(0.482287 -1.45325e-17 5.0202e-17)
(0.482287 -8.33961e-19 1.49178e-16)
(0.488391 -1.46116e-17 5.14131e-17)
(0.488391 -5.71165e-19 1.48728e-16)
(0.494373 -1.46641e-17 5.26009e-17)
(0.494373 -5.18546e-19 1.48318e-16)
(0.500238 -1.53426e-17 5.3763e-17)
(0.500238 -7.40951e-19 1.47959e-16)
(0.505989 -1.59559e-17 5.48969e-17)
(0.505989 -1.15938e-18 1.47641e-16)
(0.511631 -1.5848e-17 5.60175e-17)
(0.511631 -1.25436e-18 1.4735e-16)
(0.517168 -1.55627e-17 5.71469e-17)
(0.517168 -1.61381e-18 1.47089e-16)
(0.522604 -1.60879e-17 5.82606e-17)
(0.522604 -1.86473e-18 1.46886e-16)
(0.527941 -1.70227e-17 5.93517e-17)
(0.527941 -1.25725e-18 1.46723e-16)
(0.533184 -1.78945e-17 6.04387e-17)
(0.533184 -9.34381e-19 1.46639e-16)
(0.538337 -1.85772e-17 6.14581e-17)
(0.538337 -8.97368e-19 1.46571e-16)
(0.543402 -1.85731e-17 6.25217e-17)
(0.543402 -8.80845e-19 1.46525e-16)
(0.548382 -1.90393e-17 6.35477e-17)
(0.548382 -8.17326e-19 1.46548e-16)
(0.553281 -1.95883e-17 6.44916e-17)
(0.553281 -7.1246e-19 1.46601e-16)
(0.558101 -1.97661e-17 6.54783e-17)
(0.558101 -8.26589e-19 1.46688e-16)
(0.562845 -1.98531e-17 6.64394e-17)
(0.562845 -1.05567e-18 1.46765e-16)
(0.567517 -2.01388e-17 6.73905e-17)
(0.567517 -1.44772e-18 1.46871e-16)
(0.572117 -2.00127e-17 6.83322e-17)
(0.572117 -1.5965e-18 1.47002e-16)
(0.57665 -1.96157e-17 6.92821e-17)
(0.57665 -1.18675e-18 1.47187e-16)
(0.581116 -1.97511e-17 7.01919e-17)
(0.581116 -1.23302e-18 1.47591e-16)
(0.585519 -1.96957e-17 7.11114e-17)
(0.585519 -1.12103e-18 1.47972e-16)
(0.58986 -1.93211e-17 7.20502e-17)
(0.58986 -1.42245e-18 1.48345e-16)
(0.594141 -1.92339e-17 7.29568e-17)
(0.594141 -1.80964e-18 1.48715e-16)
(0.598365 -1.92607e-17 7.38618e-17)
(0.598365 -1.92662e-18 1.49122e-16)
(0.602534 -2.00306e-17 7.48267e-17)
(0.602534 -2.51076e-18 1.49538e-16)