/*--------------------------------*- C++ -*----------------------------------*\
| =========                 |                                                 |
| \\      /  F ield         | OpenFOAM: The Open Source CFD Toolbox           |
|  \\    /   O peration     | Version:  2012                                  |
|   \\  /    A nd           | Website:  www.openfoam.com                      |
|    \\/     M anipulation  |                                                 |
\*---------------------------------------------------------------------------*/
FoamFile
{
    version     2.0;
    format      ascii;
    class       volVectorField;
    location    "13000";
    object      C;
}
// * * * * * * * * * * * * * * * * * * * * * * * * * * * * * * * * * * * * * //

dimensions      [0 1 0 0 0 0 0];


internalField   nonuniform List<vector> 
1280
(
(0.025 0.00014414 0.025)
(0.075 0.00014414 0.025)
(0.025 0.000436655 0.025)
(0.075 0.000436655 0.025)
(0.025 0.000737767 0.025)
(0.075 0.000737767 0.025)
(0.025 0.00104773 0.025)
(0.075 0.00104773 0.025)
(0.025 0.0013668 0.025)
(0.075 0.0013668 0.025)
(0.025 0.00169524 0.025)
(0.075 0.00169524 0.025)
(0.025 0.00203334 0.025)
(0.075 0.00203334 0.025)
(0.025 0.00238137 0.025)
(0.075 0.00238137 0.025)
(0.025 0.00273963 0.025)
(0.075 0.00273963 0.025)
(0.025 0.00310842 0.025)
(0.075 0.00310842 0.025)
(0.025 0.00348805 0.025)
(0.075 0.00348805 0.025)
(0.025 0.00387883 0.025)
(0.075 0.00387883 0.025)
(0.025 0.0042811 0.025)
(0.075 0.0042811 0.025)
(0.025 0.00469518 0.025)
(0.075 0.00469518 0.025)
(0.025 0.00512144 0.025)
(0.075 0.00512144 0.025)
(0.025 0.00556022 0.025)
(0.075 0.00556022 0.025)
(0.025 0.0060119 0.025)
(0.075 0.0060119 0.025)
(0.025 0.00647685 0.025)
(0.075 0.00647685 0.025)
(0.025 0.00695547 0.025)
(0.075 0.00695547 0.025)
(0.025 0.00744814 0.025)
(0.075 0.00744814 0.025)
(0.025 0.0079553 0.025)
(0.075 0.0079553 0.025)
(0.025 0.00847736 0.025)
(0.075 0.00847736 0.025)
(0.025 0.00901477 0.025)
(0.075 0.00901477 0.025)
(0.025 0.00956796 0.025)
(0.075 0.00956796 0.025)
(0.025 0.0101374 0.025)
(0.075 0.0101374 0.025)
(0.025 0.0107236 0.025)
(0.075 0.0107236 0.025)
(0.025 0.011327 0.025)
(0.075 0.011327 0.025)
(0.025 0.0119482 0.025)
(0.075 0.0119482 0.025)
(0.025 0.0125876 0.025)
(0.075 0.0125876 0.025)
(0.025 0.0132457 0.025)
(0.075 0.0132457 0.025)
(0.025 0.0139233 0.025)
(0.075 0.0139233 0.025)
(0.025 0.0146207 0.025)
(0.075 0.0146207 0.025)
(0.025 0.0153386 0.025)
(0.075 0.0153386 0.025)
(0.025 0.0160777 0.025)
(0.075 0.0160777 0.025)
(0.025 0.0168384 0.025)
(0.075 0.0168384 0.025)
(0.025 0.0176215 0.025)
(0.075 0.0176215 0.025)
(0.025 0.0184277 0.025)
(0.075 0.0184277 0.025)
(0.025 0.0192575 0.025)
(0.075 0.0192575 0.025)
(0.025 0.0201117 0.025)
(0.075 0.0201117 0.025)
(0.025 0.020991 0.025)
(0.075 0.020991 0.025)
(0.025 0.0218961 0.025)
(0.075 0.0218961 0.025)
(0.025 0.0228278 0.025)
(0.075 0.0228278 0.025)
(0.025 0.023787 0.025)
(0.075 0.023787 0.025)
(0.025 0.0247743 0.025)
(0.075 0.0247743 0.025)
(0.025 0.0257906 0.025)
(0.075 0.0257906 0.025)
(0.025 0.0268368 0.025)
(0.075 0.0268368 0.025)
(0.025 0.0279137 0.025)
(0.075 0.0279137 0.025)
(0.025 0.0290223 0.025)
(0.075 0.0290223 0.025)
(0.025 0.0301634 0.025)
(0.075 0.0301634 0.025)
(0.025 0.0313381 0.025)
(0.075 0.0313381 0.025)
(0.025 0.0325473 0.025)
(0.075 0.0325473 0.025)
(0.025 0.0337921 0.025)
(0.075 0.0337921 0.025)
(0.025 0.0350734 0.025)
(0.075 0.0350734 0.025)
(0.025 0.0363924 0.025)
(0.075 0.0363924 0.025)
(0.025 0.0377501 0.025)
(0.075 0.0377501 0.025)
(0.025 0.0391477 0.025)
(0.075 0.0391477 0.025)
(0.025 0.0405864 0.025)
(0.075 0.0405864 0.025)
(0.025 0.0420674 0.025)
(0.075 0.0420674 0.025)
(0.025 0.0435919 0.025)
(0.075 0.0435919 0.025)
(0.025 0.0451613 0.025)
(0.075 0.0451613 0.025)
(0.025 0.0467767 0.025)
(0.075 0.0467767 0.025)
(0.025 0.0484396 0.025)
(0.075 0.0484396 0.025)
(0.025 0.0501513 0.025)
(0.075 0.0501513 0.025)
(0.025 0.0519134 0.025)
(0.075 0.0519134 0.025)
(0.025 0.0537273 0.025)
(0.075 0.0537273 0.025)
(0.025 0.0555944 0.025)
(0.075 0.0555944 0.025)
(0.025 0.0575164 0.025)
(0.075 0.0575164 0.025)
(0.025 0.0594949 0.025)
(0.075 0.0594949 0.025)
(0.025 0.0615316 0.025)
(0.075 0.0615316 0.025)
(0.025 0.0636281 0.025)
(0.075 0.0636281 0.025)
(0.025 0.0657862 0.025)
(0.075 0.0657862 0.025)
(0.025 0.0680077 0.025)
(0.075 0.0680077 0.025)
(0.025 0.0702945 0.025)
(0.075 0.0702945 0.025)
(0.025 0.0726486 0.025)
(0.075 0.0726486 0.025)
(0.025 0.0750718 0.025)
(0.075 0.0750718 0.025)
(0.025 0.0775662 0.025)
(0.075 0.0775662 0.025)
(0.025 0.0801339 0.025)
(0.075 0.0801339 0.025)
(0.025 0.082777 0.025)
(0.075 0.082777 0.025)
(0.025 0.0854979 0.025)
(0.075 0.0854979 0.025)
(0.025 0.0882987 0.025)
(0.075 0.0882987 0.025)
(0.025 0.0911818 0.025)
(0.075 0.0911818 0.025)
(0.025 0.0941496 0.025)
(0.075 0.0941496 0.025)
(0.025 0.0972046 0.025)
(0.075 0.0972046 0.025)
(0.025 0.100349 0.025)
(0.075 0.100349 0.025)
(0.025 0.103587 0.025)
(0.075 0.103587 0.025)
(0.025 0.106919 0.025)
(0.075 0.106919 0.025)
(0.025 0.110349 0.025)
(0.075 0.110349 0.025)
(0.025 0.11388 0.025)
(0.075 0.11388 0.025)
(0.025 0.117515 0.025)
(0.075 0.117515 0.025)
(0.025 0.121257 0.025)
(0.075 0.121257 0.025)
(0.025 0.125109 0.025)
(0.075 0.125109 0.025)
(0.025 0.129073 0.025)
(0.075 0.129073 0.025)
(0.025 0.133155 0.025)
(0.075 0.133155 0.025)
(0.025 0.137356 0.025)
(0.075 0.137356 0.025)
(0.025 0.141681 0.025)
(0.075 0.141681 0.025)
(0.025 0.146133 0.025)
(0.075 0.146133 0.025)
(0.025 0.150715 0.025)
(0.075 0.150715 0.025)
(0.025 0.155433 0.025)
(0.075 0.155433 0.025)
(0.025 0.160289 0.025)
(0.075 0.160289 0.025)
(0.025 0.165287 0.025)
(0.075 0.165287 0.025)
(0.025 0.170433 0.025)
(0.075 0.170433 0.025)
(0.025 0.17573 0.025)
(0.075 0.17573 0.025)
(0.025 0.181182 0.025)
(0.075 0.181182 0.025)
(0.025 0.186795 0.025)
(0.075 0.186795 0.025)
(0.025 0.192572 0.025)
(0.075 0.192572 0.025)
(0.025 0.19852 0.025)
(0.075 0.19852 0.025)
(0.025 0.204642 0.025)
(0.075 0.204642 0.025)
(0.025 0.210944 0.025)
(0.075 0.210944 0.025)
(0.025 0.217431 0.025)
(0.075 0.217431 0.025)
(0.025 0.224109 0.025)
(0.075 0.224109 0.025)
(0.025 0.230983 0.025)
(0.075 0.230983 0.025)
(0.025 0.238059 0.025)
(0.075 0.238059 0.025)
(0.025 0.245343 0.025)
(0.075 0.245343 0.025)
(0.025 0.252841 0.025)
(0.075 0.252841 0.025)
(0.025 0.26056 0.025)
(0.075 0.26056 0.025)
(0.025 0.268505 0.025)
(0.075 0.268505 0.025)
(0.025 0.276684 0.025)
(0.075 0.276684 0.025)
(0.025 0.285103 0.025)
(0.075 0.285103 0.025)
(0.025 0.29377 0.025)
(0.075 0.29377 0.025)
(0.025 0.302691 0.025)
(0.075 0.302691 0.025)
(0.025 0.311874 0.025)
(0.075 0.311874 0.025)
(0.025 0.321328 0.025)
(0.075 0.321328 0.025)
(0.025 0.331059 0.025)
(0.075 0.331059 0.025)
(0.025 0.341076 0.025)
(0.075 0.341076 0.025)
(0.025 0.351387 0.025)
(0.075 0.351387 0.025)
(0.025 0.362002 0.025)
(0.075 0.362002 0.025)
(0.025 0.372928 0.025)
(0.075 0.372928 0.025)
(0.025 0.384176 0.025)
(0.075 0.384176 0.025)
(0.025 0.395754 0.025)
(0.075 0.395754 0.025)
(0.025 0.407672 0.025)
(0.075 0.407672 0.025)
(0.025 0.41994 0.025)
(0.075 0.41994 0.025)
(0.025 0.432569 0.025)
(0.075 0.432569 0.025)
(0.025 0.445569 0.025)
(0.075 0.445569 0.025)
(0.025 0.458952 0.025)
(0.075 0.458952 0.025)
(0.025 0.472727 0.025)
(0.075 0.472727 0.025)
(0.025 0.486907 0.025)
(0.075 0.486907 0.025)
(0.025 0.501504 0.025)
(0.075 0.501504 0.025)
(0.025 0.51653 0.025)
(0.075 0.51653 0.025)
(0.025 0.531998 0.025)
(0.075 0.531998 0.025)
(0.025 0.54792 0.025)
(0.075 0.54792 0.025)
(0.025 0.564309 0.025)
(0.075 0.564309 0.025)
(0.025 0.581181 0.025)
(0.075 0.581181 0.025)
(0.025 0.598548 0.025)
(0.075 0.598548 0.025)
(0.025 0.616426 0.025)
(0.075 0.616426 0.025)
(0.025 0.634829 0.025)
(0.075 0.634829 0.025)
(0.025 0.653773 0.025)
(0.075 0.653773 0.025)
(0.025 0.673274 0.025)
(0.075 0.673274 0.025)
(0.025 0.693347 0.025)
(0.075 0.693347 0.025)
(0.025 0.714011 0.025)
(0.075 0.714011 0.025)
(0.025 0.735282 0.025)
(0.075 0.735282 0.025)
(0.025 0.757178 0.025)
(0.075 0.757178 0.025)
(0.025 0.779717 0.025)
(0.075 0.779717 0.025)
(0.025 0.802919 0.025)
(0.075 0.802919 0.025)
(0.025 0.826802 0.025)
(0.075 0.826802 0.025)
(0.025 0.851388 0.025)
(0.075 0.851388 0.025)
(0.025 0.876696 0.025)
(0.075 0.876696 0.025)
(0.025 0.902747 0.025)
(0.075 0.902747 0.025)
(0.025 0.929564 0.025)
(0.075 0.929564 0.025)
(0.025 0.95717 0.025)
(0.075 0.95717 0.025)
(0.025 0.985586 0.025)
(0.075 0.985586 0.025)
(0.025 0.00014414 0.075)
(0.075 0.00014414 0.075)
(0.025 0.000436655 0.075)
(0.075 0.000436655 0.075)
(0.025 0.000737767 0.075)
(0.075 0.000737767 0.075)
(0.025 0.00104773 0.075)
(0.075 0.00104773 0.075)
(0.025 0.0013668 0.075)
(0.075 0.0013668 0.075)
(0.025 0.00169524 0.075)
(0.075 0.00169524 0.075)
(0.025 0.00203334 0.075)
(0.075 0.00203334 0.075)
(0.025 0.00238137 0.075)
(0.075 0.00238137 0.075)
(0.025 0.00273963 0.075)
(0.075 0.00273963 0.075)
(0.025 0.00310842 0.075)
(0.075 0.00310842 0.075)
(0.025 0.00348805 0.075)
(0.075 0.00348805 0.075)
(0.025 0.00387883 0.075)
(0.075 0.00387883 0.075)
(0.025 0.0042811 0.075)
(0.075 0.0042811 0.075)
(0.025 0.00469518 0.075)
(0.075 0.00469518 0.075)
(0.025 0.00512144 0.075)
(0.075 0.00512144 0.075)
(0.025 0.00556022 0.075)
(0.075 0.00556022 0.075)
(0.025 0.0060119 0.075)
(0.075 0.0060119 0.075)
(0.025 0.00647685 0.075)
(0.075 0.00647685 0.075)
(0.025 0.00695547 0.075)
(0.075 0.00695547 0.075)
(0.025 0.00744814 0.075)
(0.075 0.00744814 0.075)
(0.025 0.0079553 0.075)
(0.075 0.0079553 0.075)
(0.025 0.00847736 0.075)
(0.075 0.00847736 0.075)
(0.025 0.00901477 0.075)
(0.075 0.00901477 0.075)
(0.025 0.00956796 0.075)
(0.075 0.00956796 0.075)
(0.025 0.0101374 0.075)
(0.075 0.0101374 0.075)
(0.025 0.0107236 0.075)
(0.075 0.0107236 0.075)
(0.025 0.011327 0.075)
(0.075 0.011327 0.075)
(0.025 0.0119482 0.075)
(0.075 0.0119482 0.075)
(0.025 0.0125876 0.075)
(0.075 0.0125876 0.075)
(0.025 0.0132457 0.075)
(0.075 0.0132457 0.075)
(0.025 0.0139233 0.075)
(0.075 0.0139233 0.075)
(0.025 0.0146207 0.075)
(0.075 0.0146207 0.075)
(0.025 0.0153386 0.075)
(0.075 0.0153386 0.075)
(0.025 0.0160777 0.075)
(0.075 0.0160777 0.075)
(0.025 0.0168384 0.075)
(0.075 0.0168384 0.075)
(0.025 0.0176215 0.075)
(0.075 0.0176215 0.075)
(0.025 0.0184277 0.075)
(0.075 0.0184277 0.075)
(0.025 0.0192575 0.075)
(0.075 0.0192575 0.075)
(0.025 0.0201117 0.075)
(0.075 0.0201117 0.075)
(0.025 0.020991 0.075)
(0.075 0.020991 0.075)
(0.025 0.0218961 0.075)
(0.075 0.0218961 0.075)
(0.025 0.0228278 0.075)
(0.075 0.0228278 0.075)
(0.025 0.023787 0.075)
(0.075 0.023787 0.075)
(0.025 0.0247743 0.075)
(0.075 0.0247743 0.075)
(0.025 0.0257906 0.075)
(0.075 0.0257906 0.075)
(0.025 0.0268368 0.075)
(0.075 0.0268368 0.075)
(0.025 0.0279137 0.075)
(0.075 0.0279137 0.075)
(0.025 0.0290223 0.075)
(0.075 0.0290223 0.075)
(0.025 0.0301634 0.075)
(0.075 0.0301634 0.075)
(0.025 0.0313381 0.075)
(0.075 0.0313381 0.075)
(0.025 0.0325473 0.075)
(0.075 0.0325473 0.075)
(0.025 0.0337921 0.075)
(0.075 0.0337921 0.075)
(0.025 0.0350734 0.075)
(0.075 0.0350734 0.075)
(0.025 0.0363924 0.075)
(0.075 0.0363924 0.075)
(0.025 0.0377501 0.075)
(0.075 0.0377501 0.075)
(0.025 0.0391477 0.075)
(0.075 0.0391477 0.075)
(0.025 0.0405864 0.075)
(0.075 0.0405864 0.075)
(0.025 0.0420674 0.075)
(0.075 0.0420674 0.075)
(0.025 0.0435919 0.075)
(0.075 0.0435919 0.075)
(0.025 0.0451613 0.075)
(0.075 0.0451613 0.075)
(0.025 0.0467767 0.075)
(0.075 0.0467767 0.075)
(0.025 0.0484396 0.075)
(0.075 0.0484396 0.075)
(0.025 0.0501513 0.075)
(0.075 0.0501513 0.075)
(0.025 0.0519134 0.075)
(0.075 0.0519134 0.075)
(0.025 0.0537273 0.075)
(0.075 0.0537273 0.075)
(0.025 0.0555944 0.075)
(0.075 0.0555944 0.075)
(0.025 0.0575164 0.075)
(0.075 0.0575164 0.075)
(0.025 0.0594949 0.075)
(0.075 0.0594949 0.075)
(0.025 0.0615316 0.075)
(0.075 0.0615316 0.075)
(0.025 0.0636281 0.075)
(0.075 0.0636281 0.075)
(0.025 0.0657862 0.075)
(0.075 0.0657862 0.075)
(0.025 0.0680077 0.075)
(0.075 0.0680077 0.075)
(0.025 0.0702945 0.075)
(0.075 0.0702945 0.075)
(0.025 0.0726486 0.075)
(0.075 0.0726486 0.075)
(0.025 0.0750718 0.075)
(0.075 0.0750718 0.075)
(0.025 0.0775662 0.075)
(0.075 0.0775662 0.075)
(0.025 0.0801339 0.075)
(0.075 0.0801339 0.075)
(0.025 0.082777 0.075)
(0.075 0.082777 0.075)
(0.025 0.0854979 0.075)
(0.075 0.0854979 0.075)
(0.025 0.0882987 0.075)
(0.075 0.0882987 0.075)
(0.025 0.0911818 0.075)
(0.075 0.0911818 0.075)
(0.025 0.0941496 0.075)
(0.075 0.0941496 0.075)
(0.025 0.0972046 0.075)
(0.075 0.0972046 0.075)
(0.025 0.100349 0.075)
(0.075 0.100349 0.075)
(0.025 0.103587 0.075)
(0.075 0.103587 0.075)
(0.025 0.106919 0.075)
(0.075 0.106919 0.075)
(0.025 0.110349 0.075)
(0.075 0.110349 0.075)
(0.025 0.11388 0.075)
(0.075 0.11388 0.075)
(0.025 0.117515 0.075)
(0.075 0.117515 0.075)
(0.025 0.121257 0.075)
(0.075 0.121257 0.075)
(0.025 0.125109 0.075)
(0.075 0.125109 0.075)
(0.025 0.129073 0.075)
(0.075 0.129073 0.075)
(0.025 0.133155 0.075)
(0.075 0.133155 0.075)
(0.025 0.137356 0.075)
(0.075 0.137356 0.075)
(0.025 0.141681 0.075)
(0.075 0.141681 0.075)
(0.025 0.146133 0.075)
(0.075 0.146133 0.075)
(0.025 0.150715 0.075)
(0.075 0.150715 0.075)
(0.025 0.155433 0.075)
(0.075 0.155433 0.075)
(0.025 0.160289 0.075)
(0.075 0.160289 0.075)
(0.025 0.165287 0.075)
(0.075 0.165287 0.075)
(0.025 0.170433 0.075)
(0.075 0.170433 0.075)
(0.025 0.17573 0.075)
(0.075 0.17573 0.075)
(0.025 0.181182 0.075)
(0.075 0.181182 0.075)
(0.025 0.186795 0.075)
(0.075 0.186795 0.075)
(0.025 0.192572 0.075)
(0.075 0.192572 0.075)
(0.025 0.19852 0.075)
(0.075 0.19852 0.075)
(0.025 0.204642 0.075)
(0.075 0.204642 0.075)
(0.025 0.210944 0.075)
(0.075 0.210944 0.075)
(0.025 0.217431 0.075)
(0.075 0.217431 0.075)
(0.025 0.224109 0.075)
(0.075 0.224109 0.075)
(0.025 0.230983 0.075)
(0.075 0.230983 0.075)
(0.025 0.238059 0.075)
(0.075 0.238059 0.075)
(0.025 0.245343 0.075)
(0.075 0.245343 0.075)
(0.025 0.252841 0.075)
(0.075 0.252841 0.075)
(0.025 0.26056 0.075)
(0.075 0.26056 0.075)
(0.025 0.268505 0.075)
(0.075 0.268505 0.075)
(0.025 0.276684 0.075)
(0.075 0.276684 0.075)
(0.025 0.285103 0.075)
(0.075 0.285103 0.075)
(0.025 0.29377 0.075)
(0.075 0.29377 0.075)
(0.025 0.302691 0.075)
(0.075 0.302691 0.075)
(0.025 0.311874 0.075)
(0.075 0.311874 0.075)
(0.025 0.321328 0.075)
(0.075 0.321328 0.075)
(0.025 0.331059 0.075)
(0.075 0.331059 0.075)
(0.025 0.341076 0.075)
(0.075 0.341076 0.075)
(0.025 0.351387 0.075)
(0.075 0.351387 0.075)
(0.025 0.362002 0.075)
(0.075 0.362002 0.075)
(0.025 0.372928 0.075)
(0.075 0.372928 0.075)
(0.025 0.384176 0.075)
(0.075 0.384176 0.075)
(0.025 0.395754 0.075)
(0.075 0.395754 0.075)
(0.025 0.407672 0.075)
(0.075 0.407672 0.075)
(0.025 0.41994 0.075)
(0.075 0.41994 0.075)
(0.025 0.432569 0.075)
(0.075 0.432569 0.075)
(0.025 0.445569 0.075)
(0.075 0.445569 0.075)
(0.025 0.458952 0.075)
(0.075 0.458952 0.075)
(0.025 0.472727 0.075)
(0.075 0.472727 0.075)
(0.025 0.486907 0.075)
(0.075 0.486907 0.075)
(0.025 0.501504 0.075)
(0.075 0.501504 0.075)
(0.025 0.51653 0.075)
(0.075 0.51653 0.075)
(0.025 0.531998 0.075)
(0.075 0.531998 0.075)
(0.025 0.54792 0.075)
(0.075 0.54792 0.075)
(0.025 0.564309 0.075)
(0.075 0.564309 0.075)
(0.025 0.581181 0.075)
(0.075 0.581181 0.075)
(0.025 0.598548 0.075)
(0.075 0.598548 0.075)
(0.025 0.616426 0.075)
(0.075 0.616426 0.075)
(0.025 0.634829 0.075)
(0.075 0.634829 0.075)
(0.025 0.653773 0.075)
(0.075 0.653773 0.075)
(0.025 0.673274 0.075)
(0.075 0.673274 0.075)
(0.025 0.693347 0.075)
(0.075 0.693347 0.075)
(0.025 0.714011 0.075)
(0.075 0.714011 0.075)
(0.025 0.735282 0.075)
(0.075 0.735282 0.075)
(0.025 0.757178 0.075)
(0.075 0.757178 0.075)
(0.025 0.779717 0.075)
(0.075 0.779717 0.075)
(0.025 0.802919 0.075)
(0.075 0.802919 0.075)
(0.025 0.826802 0.075)
(0.075 0.826802 0.075)
(0.025 0.851388 0.075)
(0.075 0.851388 0.075)
(0.025 0.876696 0.075)
(0.075 0.876696 0.075)
(0.025 0.902747 0.075)
(0.075 0.902747 0.075)
(0.025 0.929564 0.075)
(0.075 0.929564 0.075)
(0.025 0.95717 0.075)
(0.075 0.95717 0.075)
(0.025 0.985586 0.075)
(0.075 0.985586 0.075)
(0.025 1.01441 0.025)
(0.075 1.01441 0.025)
(0.025 1.04283 0.025)
(0.075 1.04283 0.025)
(0.025 1.07044 0.025)
(0.075 1.07044 0.025)
(0.025 1.09725 0.025)
(0.075 1.09725 0.025)
(0.025 1.1233 0.025)
(0.075 1.1233 0.025)
(0.025 1.14861 0.025)
(0.075 1.14861 0.025)
(0.025 1.1732 0.025)
(0.075 1.1732 0.025)
(0.025 1.19708 0.025)
(0.075 1.19708 0.025)
(0.025 1.22028 0.025)
(0.075 1.22028 0.025)
(0.025 1.24282 0.025)
(0.075 1.24282 0.025)
(0.025 1.26472 0.025)
(0.075 1.26472 0.025)
(0.025 1.28599 0.025)
(0.075 1.28599 0.025)
(0.025 1.30665 0.025)
(0.075 1.30665 0.025)
(0.025 1.32673 0.025)
(0.075 1.32673 0.025)
(0.025 1.34623 0.025)
(0.075 1.34623 0.025)
(0.025 1.36517 0.025)
(0.075 1.36517 0.025)
(0.025 1.38357 0.025)
(0.075 1.38357 0.025)
(0.025 1.40145 0.025)
(0.075 1.40145 0.025)
(0.025 1.41882 0.025)
(0.075 1.41882 0.025)
(0.025 1.43569 0.025)
(0.075 1.43569 0.025)
(0.025 1.45208 0.025)
(0.075 1.45208 0.025)
(0.025 1.468 0.025)
(0.075 1.468 0.025)
(0.025 1.48347 0.025)
(0.075 1.48347 0.025)
(0.025 1.4985 0.025)
(0.075 1.4985 0.025)
(0.025 1.51309 0.025)
(0.075 1.51309 0.025)
(0.025 1.52727 0.025)
(0.075 1.52727 0.025)
(0.025 1.54105 0.025)
(0.075 1.54105 0.025)
(0.025 1.55443 0.025)
(0.075 1.55443 0.025)
(0.025 1.56743 0.025)
(0.075 1.56743 0.025)
(0.025 1.58006 0.025)
(0.075 1.58006 0.025)
(0.025 1.59233 0.025)
(0.075 1.59233 0.025)
(0.025 1.60425 0.025)
(0.075 1.60425 0.025)
(0.025 1.61582 0.025)
(0.075 1.61582 0.025)
(0.025 1.62707 0.025)
(0.075 1.62707 0.025)
(0.025 1.638 0.025)
(0.075 1.638 0.025)
(0.025 1.64861 0.025)
(0.075 1.64861 0.025)
(0.025 1.65892 0.025)
(0.075 1.65892 0.025)
(0.025 1.66894 0.025)
(0.075 1.66894 0.025)
(0.025 1.67867 0.025)
(0.075 1.67867 0.025)
(0.025 1.68813 0.025)
(0.075 1.68813 0.025)
(0.025 1.69731 0.025)
(0.075 1.69731 0.025)
(0.025 1.70623 0.025)
(0.075 1.70623 0.025)
(0.025 1.7149 0.025)
(0.075 1.7149 0.025)
(0.025 1.72332 0.025)
(0.075 1.72332 0.025)
(0.025 1.73149 0.025)
(0.075 1.73149 0.025)
(0.025 1.73944 0.025)
(0.075 1.73944 0.025)
(0.025 1.74716 0.025)
(0.075 1.74716 0.025)
(0.025 1.75466 0.025)
(0.075 1.75466 0.025)
(0.025 1.76194 0.025)
(0.075 1.76194 0.025)
(0.025 1.76902 0.025)
(0.075 1.76902 0.025)
(0.025 1.77589 0.025)
(0.075 1.77589 0.025)
(0.025 1.78257 0.025)
(0.075 1.78257 0.025)
(0.025 1.78906 0.025)
(0.075 1.78906 0.025)
(0.025 1.79536 0.025)
(0.075 1.79536 0.025)
(0.025 1.80148 0.025)
(0.075 1.80148 0.025)
(0.025 1.80743 0.025)
(0.075 1.80743 0.025)
(0.025 1.81321 0.025)
(0.075 1.81321 0.025)
(0.025 1.81882 0.025)
(0.075 1.81882 0.025)
(0.025 1.82427 0.025)
(0.075 1.82427 0.025)
(0.025 1.82957 0.025)
(0.075 1.82957 0.025)
(0.025 1.83471 0.025)
(0.075 1.83471 0.025)
(0.025 1.83971 0.025)
(0.075 1.83971 0.025)
(0.025 1.84457 0.025)
(0.075 1.84457 0.025)
(0.025 1.84928 0.025)
(0.075 1.84928 0.025)
(0.025 1.85387 0.025)
(0.075 1.85387 0.025)
(0.025 1.85832 0.025)
(0.075 1.85832 0.025)
(0.025 1.86264 0.025)
(0.075 1.86264 0.025)
(0.025 1.86685 0.025)
(0.075 1.86685 0.025)
(0.025 1.87093 0.025)
(0.075 1.87093 0.025)
(0.025 1.87489 0.025)
(0.075 1.87489 0.025)
(0.025 1.87874 0.025)
(0.075 1.87874 0.025)
(0.025 1.88248 0.025)
(0.075 1.88248 0.025)
(0.025 1.88612 0.025)
(0.075 1.88612 0.025)
(0.025 1.88965 0.025)
(0.075 1.88965 0.025)
(0.025 1.89308 0.025)
(0.075 1.89308 0.025)
(0.025 1.89641 0.025)
(0.075 1.89641 0.025)
(0.025 1.89965 0.025)
(0.075 1.89965 0.025)
(0.025 1.9028 0.025)
(0.075 1.9028 0.025)
(0.025 1.90585 0.025)
(0.075 1.90585 0.025)
(0.025 1.90882 0.025)
(0.075 1.90882 0.025)
(0.025 1.9117 0.025)
(0.075 1.9117 0.025)
(0.025 1.9145 0.025)
(0.075 1.9145 0.025)
(0.025 1.91722 0.025)
(0.075 1.91722 0.025)
(0.025 1.91987 0.025)
(0.075 1.91987 0.025)
(0.025 1.92243 0.025)
(0.075 1.92243 0.025)
(0.025 1.92493 0.025)
(0.075 1.92493 0.025)
(0.025 1.92735 0.025)
(0.075 1.92735 0.025)
(0.025 1.92971 0.025)
(0.075 1.92971 0.025)
(0.025 1.93199 0.025)
(0.075 1.93199 0.025)
(0.025 1.93421 0.025)
(0.075 1.93421 0.025)
(0.025 1.93637 0.025)
(0.075 1.93637 0.025)
(0.025 1.93847 0.025)
(0.075 1.93847 0.025)
(0.025 1.94051 0.025)
(0.075 1.94051 0.025)
(0.025 1.94248 0.025)
(0.075 1.94248 0.025)
(0.025 1.94441 0.025)
(0.075 1.94441 0.025)
(0.025 1.94627 0.025)
(0.075 1.94627 0.025)
(0.025 1.94809 0.025)
(0.075 1.94809 0.025)
(0.025 1.94985 0.025)
(0.075 1.94985 0.025)
(0.025 1.95156 0.025)
(0.075 1.95156 0.025)
(0.025 1.95322 0.025)
(0.075 1.95322 0.025)
(0.025 1.95484 0.025)
(0.075 1.95484 0.025)
(0.025 1.95641 0.025)
(0.075 1.95641 0.025)
(0.025 1.95793 0.025)
(0.075 1.95793 0.025)
(0.025 1.95941 0.025)
(0.075 1.95941 0.025)
(0.025 1.96085 0.025)
(0.075 1.96085 0.025)
(0.025 1.96225 0.025)
(0.075 1.96225 0.025)
(0.025 1.96361 0.025)
(0.075 1.96361 0.025)
(0.025 1.96493 0.025)
(0.075 1.96493 0.025)
(0.025 1.96621 0.025)
(0.075 1.96621 0.025)
(0.025 1.96745 0.025)
(0.075 1.96745 0.025)
(0.025 1.96866 0.025)
(0.075 1.96866 0.025)
(0.025 1.96984 0.025)
(0.075 1.96984 0.025)
(0.025 1.97098 0.025)
(0.075 1.97098 0.025)
(0.025 1.97209 0.025)
(0.075 1.97209 0.025)
(0.025 1.97316 0.025)
(0.075 1.97316 0.025)
(0.025 1.97421 0.025)
(0.075 1.97421 0.025)
(0.025 1.97523 0.025)
(0.075 1.97523 0.025)
(0.025 1.97621 0.025)
(0.075 1.97621 0.025)
(0.025 1.97717 0.025)
(0.075 1.97717 0.025)
(0.025 1.9781 0.025)
(0.075 1.9781 0.025)
(0.025 1.97901 0.025)
(0.075 1.97901 0.025)
(0.025 1.97989 0.025)
(0.075 1.97989 0.025)
(0.025 1.98074 0.025)
(0.075 1.98074 0.025)
(0.025 1.98157 0.025)
(0.075 1.98157 0.025)
(0.025 1.98238 0.025)
(0.075 1.98238 0.025)
(0.025 1.98316 0.025)
(0.075 1.98316 0.025)
(0.025 1.98392 0.025)
(0.075 1.98392 0.025)
(0.025 1.98466 0.025)
(0.075 1.98466 0.025)
(0.025 1.98538 0.025)
(0.075 1.98538 0.025)
(0.025 1.98608 0.025)
(0.075 1.98608 0.025)
(0.025 1.98675 0.025)
(0.075 1.98675 0.025)
(0.025 1.98741 0.025)
(0.075 1.98741 0.025)
(0.025 1.98805 0.025)
(0.075 1.98805 0.025)
(0.025 1.98867 0.025)
(0.075 1.98867 0.025)
(0.025 1.98928 0.025)
(0.075 1.98928 0.025)
(0.025 1.98986 0.025)
(0.075 1.98986 0.025)
(0.025 1.99043 0.025)
(0.075 1.99043 0.025)
(0.025 1.99099 0.025)
(0.075 1.99099 0.025)
(0.025 1.99152 0.025)
(0.075 1.99152 0.025)
(0.025 1.99204 0.025)
(0.075 1.99204 0.025)
(0.025 1.99255 0.025)
(0.075 1.99255 0.025)
(0.025 1.99304 0.025)
(0.075 1.99304 0.025)
(0.025 1.99352 0.025)
(0.075 1.99352 0.025)
(0.025 1.99399 0.025)
(0.075 1.99399 0.025)
(0.025 1.99444 0.025)
(0.075 1.99444 0.025)
(0.025 1.99488 0.025)
(0.075 1.99488 0.025)
(0.025 1.9953 0.025)
(0.075 1.9953 0.025)
(0.025 1.99572 0.025)
(0.075 1.99572 0.025)
(0.025 1.99612 0.025)
(0.075 1.99612 0.025)
(0.025 1.99651 0.025)
(0.075 1.99651 0.025)
(0.025 1.99689 0.025)
(0.075 1.99689 0.025)
(0.025 1.99726 0.025)
(0.075 1.99726 0.025)
(0.025 1.99762 0.025)
(0.075 1.99762 0.025)
(0.025 1.99797 0.025)
(0.075 1.99797 0.025)
(0.025 1.9983 0.025)
(0.075 1.9983 0.025)
(0.025 1.99863 0.025)
(0.075 1.99863 0.025)
(0.025 1.99895 0.025)
(0.075 1.99895 0.025)
(0.025 1.99926 0.025)
(0.075 1.99926 0.025)
(0.025 1.99956 0.025)
(0.075 1.99956 0.025)
(0.025 1.99986 0.025)
(0.075 1.99986 0.025)
(0.025 1.01441 0.075)
(0.075 1.01441 0.075)
(0.025 1.04283 0.075)
(0.075 1.04283 0.075)
(0.025 1.07044 0.075)
(0.075 1.07044 0.075)
(0.025 1.09725 0.075)
(0.075 1.09725 0.075)
(0.025 1.1233 0.075)
(0.075 1.1233 0.075)
(0.025 1.14861 0.075)
(0.075 1.14861 0.075)
(0.025 1.1732 0.075)
(0.075 1.1732 0.075)
(0.025 1.19708 0.075)
(0.075 1.19708 0.075)
(0.025 1.22028 0.075)
(0.075 1.22028 0.075)
(0.025 1.24282 0.075)
(0.075 1.24282 0.075)
(0.025 1.26472 0.075)
(0.075 1.26472 0.075)
(0.025 1.28599 0.075)
(0.075 1.28599 0.075)
(0.025 1.30665 0.075)
(0.075 1.30665 0.075)
(0.025 1.32673 0.075)
(0.075 1.32673 0.075)
(0.025 1.34623 0.075)
(0.075 1.34623 0.075)
(0.025 1.36517 0.075)
(0.075 1.36517 0.075)
(0.025 1.38357 0.075)
(0.075 1.38357 0.075)
(0.025 1.40145 0.075)
(0.075 1.40145 0.075)
(0.025 1.41882 0.075)
(0.075 1.41882 0.075)
(0.025 1.43569 0.075)
(0.075 1.43569 0.075)
(0.025 1.45208 0.075)
(0.075 1.45208 0.075)
(0.025 1.468 0.075)
(0.075 1.468 0.075)
(0.025 1.48347 0.075)
(0.075 1.48347 0.075)
(0.025 1.4985 0.075)
(0.075 1.4985 0.075)
(0.025 1.51309 0.075)
(0.075 1.51309 0.075)
(0.025 1.52727 0.075)
(0.075 1.52727 0.075)
(0.025 1.54105 0.075)
(0.075 1.54105 0.075)
(0.025 1.55443 0.075)
(0.075 1.55443 0.075)
(0.025 1.56743 0.075)
(0.075 1.56743 0.075)
(0.025 1.58006 0.075)
(0.075 1.58006 0.075)
(0.025 1.59233 0.075)
(0.075 1.59233 0.075)
(0.025 1.60425 0.075)
(0.075 1.60425 0.075)
(0.025 1.61582 0.075)
(0.075 1.61582 0.075)
(0.025 1.62707 0.075)
(0.075 1.62707 0.075)
(0.025 1.638 0.075)
(0.075 1.638 0.075)
(0.025 1.64861 0.075)
(0.075 1.64861 0.075)
(0.025 1.65892 0.075)
(0.075 1.65892 0.075)
(0.025 1.66894 0.075)
(0.075 1.66894 0.075)
(0.025 1.67867 0.075)
(0.075 1.67867 0.075)
(0.025 1.68813 0.075)
(0.075 1.68813 0.075)
(0.025 1.69731 0.075)
(0.075 1.69731 0.075)
(0.025 1.70623 0.075)
(0.075 1.70623 0.075)
(0.025 1.7149 0.075)
(0.075 1.7149 0.075)
(0.025 1.72332 0.075)
(0.075 1.72332 0.075)
(0.025 1.73149 0.075)
(0.075 1.73149 0.075)
(0.025 1.73944 0.075)
(0.075 1.73944 0.075)
(0.025 1.74716 0.075)
(0.075 1.74716 0.075)
(0.025 1.75466 0.075)
(0.075 1.75466 0.075)
(0.025 1.76194 0.075)
(0.075 1.76194 0.075)
(0.025 1.76902 0.075)
(0.075 1.76902 0.075)
(0.025 1.77589 0.075)
(0.075 1.77589 0.075)
(0.025 1.78257 0.075)
(0.075 1.78257 0.075)
(0.025 1.78906 0.075)
(0.075 1.78906 0.075)
(0.025 1.79536 0.075)
(0.075 1.79536 0.075)
(0.025 1.80148 0.075)
(0.075 1.80148 0.075)
(0.025 1.80743 0.075)
(0.075 1.80743 0.075)
(0.025 1.81321 0.075)
(0.075 1.81321 0.075)
(0.025 1.81882 0.075)
(0.075 1.81882 0.075)
(0.025 1.82427 0.075)
(0.075 1.82427 0.075)
(0.025 1.82957 0.075)
(0.075 1.82957 0.075)
(0.025 1.83471 0.075)
(0.075 1.83471 0.075)
(0.025 1.83971 0.075)
(0.075 1.83971 0.075)
(0.025 1.84457 0.075)
(0.075 1.84457 0.075)
(0.025 1.84928 0.075)
(0.075 1.84928 0.075)
(0.025 1.85387 0.075)
(0.075 1.85387 0.075)
(0.025 1.85832 0.075)
(0.075 1.85832 0.075)
(0.025 1.86264 0.075)
(0.075 1.86264 0.075)
(0.025 1.86685 0.075)
(0.075 1.86685 0.075)
(0.025 1.87093 0.075)
(0.075 1.87093 0.075)
(0.025 1.87489 0.075)
(0.075 1.87489 0.075)
(0.025 1.87874 0.075)
(0.075 1.87874 0.075)
(0.025 1.88248 0.075)
(0.075 1.88248 0.075)
(0.025 1.88612 0.075)
(0.075 1.88612 0.075)
(0.025 1.88965 0.075)
(0.075 1.88965 0.075)
(0.025 1.89308 0.075)
(0.075 1.89308 0.075)
(0.025 1.89641 0.075)
(0.075 1.89641 0.075)
(0.025 1.89965 0.075)
(0.075 1.89965 0.075)
(0.025 1.9028 0.075)
(0.075 1.9028 0.075)
(0.025 1.90585 0.075)
(0.075 1.90585 0.075)
(0.025 1.90882 0.075)
(0.075 1.90882 0.075)
(0.025 1.9117 0.075)
(0.075 1.9117 0.075)
(0.025 1.9145 0.075)
(0.075 1.9145 0.075)
(0.025 1.91722 0.075)
(0.075 1.91722 0.075)
(0.025 1.91987 0.075)
(0.075 1.91987 0.075)
(0.025 1.92243 0.075)
(0.075 1.92243 0.075)
(0.025 1.92493 0.075)
(0.075 1.92493 0.075)
(0.025 1.92735 0.075)
(0.075 1.92735 0.075)
(0.025 1.92971 0.075)
(0.075 1.92971 0.075)
(0.025 1.93199 0.075)
(0.075 1.93199 0.075)
(0.025 1.93421 0.075)
(0.075 1.93421 0.075)
(0.025 1.93637 0.075)
(0.075 1.93637 0.075)
(0.025 1.93847 0.075)
(0.075 1.93847 0.075)
(0.025 1.94051 0.075)
(0.075 1.94051 0.075)
(0.025 1.94248 0.075)
(0.075 1.94248 0.075)
(0.025 1.94441 0.075)
(0.075 1.94441 0.075)
(0.025 1.94627 0.075)
(0.075 1.94627 0.075)
(0.025 1.94809 0.075)
(0.075 1.94809 0.075)
(0.025 1.94985 0.075)
(0.075 1.94985 0.075)
(0.025 1.95156 0.075)
(0.075 1.95156 0.075)
(0.025 1.95322 0.075)
(0.075 1.95322 0.075)
(0.025 1.95484 0.075)
(0.075 1.95484 0.075)
(0.025 1.95641 0.075)
(0.075 1.95641 0.075)
(0.025 1.95793 0.075)
(0.075 1.95793 0.075)
(0.025 1.95941 0.075)
(0.075 1.95941 0.075)
(0.025 1.96085 0.075)
(0.075 1.96085 0.075)
(0.025 1.96225 0.075)
(0.075 1.96225 0.075)
(0.025 1.96361 0.075)
(0.075 1.96361 0.075)
(0.025 1.96493 0.075)
(0.075 1.96493 0.075)
(0.025 1.96621 0.075)
(0.075 1.96621 0.075)
(0.025 1.96745 0.075)
(0.075 1.96745 0.075)
(0.025 1.96866 0.075)
(0.075 1.96866 0.075)
(0.025 1.96984 0.075)
(0.075 1.96984 0.075)
(0.025 1.97098 0.075)
(0.075 1.97098 0.075)
(0.025 1.97209 0.075)
(0.075 1.97209 0.075)
(0.025 1.97316 0.075)
(0.075 1.97316 0.075)
(0.025 1.97421 0.075)
(0.075 1.97421 0.075)
(0.025 1.97523 0.075)
(0.075 1.97523 0.075)
(0.025 1.97621 0.075)
(0.075 1.97621 0.075)
(0.025 1.97717 0.075)
(0.075 1.97717 0.075)
(0.025 1.9781 0.075)
(0.075 1.9781 0.075)
(0.025 1.97901 0.075)
(0.075 1.97901 0.075)
(0.025 1.97989 0.075)
(0.075 1.97989 0.075)
(0.025 1.98074 0.075)
(0.075 1.98074 0.075)
(0.025 1.98157 0.075)
(0.075 1.98157 0.075)
(0.025 1.98238 0.075)
(0.075 1.98238 0.075)
(0.025 1.98316 0.075)
(0.075 1.98316 0.075)
(0.025 1.98392 0.075)
(0.075 1.98392 0.075)
(0.025 1.98466 0.075)
(0.075 1.98466 0.075)
(0.025 1.98538 0.075)
(0.075 1.98538 0.075)
(0.025 1.98608 0.075)
(0.075 1.98608 0.075)
(0.025 1.98675 0.075)
(0.075 1.98675 0.075)
(0.025 1.98741 0.075)
(0.075 1.98741 0.075)
(0.025 1.98805 0.075)
(0.075 1.98805 0.075)
(0.025 1.98867 0.075)
(0.075 1.98867 0.075)
(0.025 1.98928 0.075)
(0.075 1.98928 0.075)
(0.025 1.98986 0.075)
(0.075 1.98986 0.075)
(0.025 1.99043 0.075)
(0.075 1.99043 0.075)
(0.025 1.99099 0.075)
(0.075 1.99099 0.075)
(0.025 1.99152 0.075)
(0.075 1.99152 0.075)
(0.025 1.99204 0.075)
(0.075 1.99204 0.075)
(0.025 1.99255 0.075)
(0.075 1.99255 0.075)
(0.025 1.99304 0.075)
(0.075 1.99304 0.075)
(0.025 1.99352 0.075)
(0.075 1.99352 0.075)
(0.025 1.99399 0.075)
(0.075 1.99399 0.075)
(0.025 1.99444 0.075)
(0.075 1.99444 0.075)
(0.025 1.99488 0.075)
(0.075 1.99488 0.075)
(0.025 1.9953 0.075)
(0.075 1.9953 0.075)
(0.025 1.99572 0.075)
(0.075 1.99572 0.075)
(0.025 1.99612 0.075)
(0.075 1.99612 0.075)
(0.025 1.99651 0.075)
(0.075 1.99651 0.075)
(0.025 1.99689 0.075)
(0.075 1.99689 0.075)
(0.025 1.99726 0.075)
(0.075 1.99726 0.075)
(0.025 1.99762 0.075)
(0.075 1.99762 0.075)
(0.025 1.99797 0.075)
(0.075 1.99797 0.075)
(0.025 1.9983 0.075)
(0.075 1.9983 0.075)
(0.025 1.99863 0.075)
(0.075 1.99863 0.075)
(0.025 1.99895 0.075)
(0.075 1.99895 0.075)
(0.025 1.99926 0.075)
(0.075 1.99926 0.075)
(0.025 1.99956 0.075)
(0.075 1.99956 0.075)
(0.025 1.99986 0.075)
(0.075 1.99986 0.075)
)
;

boundaryField
{
    walls