/*--------------------------------*- C++ -*----------------------------------*\
| =========                 |                                                 |
| \\      /  F ield         | OpenFOAM: The Open Source CFD Toolbox           |
|  \\    /   O peration     | Version:  2106                                  |
|   \\  /    A nd           | Website:  www.openfoam.com                      |
|    \\/     M anipulation  |                                                 |
\*---------------------------------------------------------------------------*/
FoamFile
{
    version     2.0;
    format      ascii;
    arch        "LSB;label=32;scalar=64";
    class       volTensorField;
    location    "7000";
    object      grad(U);
}
// * * * * * * * * * * * * * * * * * * * * * * * * * * * * * * * * * * * * * //

dimensions      [0 0 -1 0 0 0 0];

internalField   nonuniform List<tensor> 
2560
(
(0 3.11836e-30 0 29.9136 -8.93768e-12 2.78849e-14 0.0433034 -7.47953e-15 -2.98637e-18)
(-9.14312e-18 -1.03945e-30 5.90302e-27 29.9136 -3.39513e-17 1.40105e-14 0.0433034 -7.74724e-18 1.11429e-16)
(0 -3.50487e-25 1.29716e-26 29.9097 2.00287e-32 3.45481e-14 0.130529 0 1.01473e-16)
(0 0 1.28069e-31 29.9097 7.88851e-31 3.89461e-14 0.130529 1.54074e-33 5.19505e-16)
(-5.48156e-18 -4.91644e-27 9.32092e-32 29.9056 2.51063e-13 1.8678e-14 0.179512 -7.48132e-16 1.21301e-16)
(0 1.21184e-29 -2.52467e-31 29.9056 9.94018e-16 2.29498e-15 0.179512 8.10717e-18 5.34485e-16)
(1.75791e-17 -9.88973e-30 1.605e-31 29.9013 4.10077e-13 2.03947e-14 0.182095 -3.52126e-15 1.25356e-16)
(0 7.96317e-30 -1.24424e-31 29.9013 2.57666e-15 2.27562e-15 0.182095 1.31961e-17 5.49744e-16)
(6.90408e-17 -1.56981e-29 4.90565e-31 29.8968 8.6947e-14 2.06319e-14 0.184715 -1.42254e-15 1.27785e-16)
(0 1.37358e-29 -3.67923e-31 29.8968 2.54899e-15 2.26702e-15 0.184715 1.5593e-17 5.65313e-16)
(4.22996e-17 -8.15781e-30 2.84478e-31 29.8921 -4.27942e-14 2.08734e-14 0.187371 -1.62411e-16 1.32056e-16)
(3.38397e-16 7.74564e-30 -2.41767e-31 29.8921 2.48575e-15 2.25855e-15 0.187371 1.53453e-17 5.81195e-16)
(1.21486e-17 -1.69698e-28 7.31436e-32 29.8872 -1.20815e-14 2.12904e-14 0.190063 -3.81413e-17 1.36833e-16)
(1.52634e-16 5.72662e-30 -2.38302e-31 29.8872 2.43684e-15 2.24984e-15 0.190063 1.54276e-17 5.97392e-16)
(-6.77368e-17 9.89675e-30 -2.84333e-31 29.8821 -5.10612e-15 2.17383e-14 0.192793 -2.71973e-17 1.41705e-16)
(2.70947e-16 -3.74805e-30 0 29.8821 2.44354e-15 2.23849e-15 0.192793 1.58813e-17 6.13914e-16)
(2.11064e-16 -6.08456e-30 4.00314e-31 29.8767 -4.57617e-15 2.21827e-14 0.195561 -3.23203e-17 1.46659e-16)
(-1.30334e-16 7.40863e-30 -2.3152e-31 29.8767 2.50289e-15 2.22378e-15 0.195561 1.66565e-17 6.30757e-16)
(0 7.30244e-30 -2.28201e-31 29.8712 -4.83153e-15 2.26242e-14 0.198367 -3.13859e-17 1.5172e-16)
(-1.28466e-16 -3.65122e-30 1.14101e-31 29.8712 2.47285e-15 2.20962e-15 0.198367 1.59475e-17 6.47914e-16)
(-1.07281e-16 -8.41487e-30 2.76736e-31 29.8653 -4.69028e-15 2.30647e-14 0.201211 -3.13635e-17 1.56891e-16)
(0 1.07967e-29 -4.49861e-31 29.8653 2.31771e-15 2.19645e-15 0.201211 1.50538e-17 6.65398e-16)
(2.45652e-16 -2.01188e-29 7.29824e-31 29.8592 -4.79295e-15 2.35042e-14 0.204094 -3.3709e-17 1.62174e-16)
(-1.2481e-16 1.77365e-29 -5.54267e-31 29.8592 2.20768e-15 2.18074e-15 0.204094 1.49104e-17 6.83216e-16)
(0 -6.99293e-30 2.18529e-31 29.8528 -4.87728e-15 2.39442e-14 0.207016 -3.3452e-17 1.6759e-16)
(0 6.99293e-30 -4.37058e-31 29.8528 2.14602e-15 2.16341e-15 0.207016 1.46395e-17 7.01363e-16)
(-1.48552e-16 5.83055e-30 -5.04055e-31 29.8459 -4.64188e-15 2.43866e-14 0.209976 -3.13837e-17 1.73151e-16)
(3.51694e-16 3.07692e-32 2.15397e-31 29.8459 1.98234e-15 2.14614e-15 0.209976 1.30439e-17 7.19843e-16)
(0 1.35878e-29 -6.3693e-31 29.8386 -4.56442e-15 2.48316e-14 0.212976 -3.33261e-17 1.78852e-16)
(0 -1.35878e-29 6.3693e-31 29.8386 1.87422e-15 2.12836e-15 0.212976 1.35247e-17 7.3866e-16)
(-1.77063e-16 2.38522e-30 -2.91742e-31 29.8308 -4.74192e-15 2.52782e-14 0.216014 -3.4874e-17 1.84691e-16)
(7.08251e-16 3.62161e-32 2.09267e-31 29.8308 1.93711e-15 2.10729e-15 0.216014 1.43369e-17 7.57826e-16)
(0 1.65014e-29 -6.18803e-31 29.8223 -4.68239e-15 2.57262e-14 0.21909 -3.34276e-17 1.90675e-16)
(-7.665e-16 -1.65423e-29 6.18803e-31 29.8223 1.82062e-15 2.08324e-15 0.21909 1.22091e-17 7.7733e-16)
(0 1.62649e-29 -8.13245e-31 29.813 -4.61263e-15 2.61756e-14 0.222203 -3.48555e-17 1.96801e-16)
(-8.25581e-16 -1.63079e-29 8.13245e-31 29.813 1.75397e-15 2.05975e-15 0.222203 1.37631e-17 7.9717e-16)
(4.51255e-16 -6.41271e-30 4.00795e-31 29.8027 -4.66155e-15 2.66247e-14 0.225352 -3.51466e-17 2.03054e-16)
(0 6.41271e-30 -4.00795e-31 29.8027 1.78375e-15 2.03678e-15 0.225352 1.30172e-17 8.17348e-16)
(2.36572e-16 7.09271e-30 -4.89542e-31 29.7912 -4.55642e-15 2.70721e-14 0.228535 -3.42633e-17 2.09432e-16)
(-9.46287e-16 -1.26908e-29 5.92575e-31 29.7912 1.79294e-15 2.01257e-15 0.228535 1.43072e-17 8.37861e-16)
(0 1.55755e-29 -7.78776e-31 29.7782 -4.53188e-15 2.75161e-14 0.231751 -3.57942e-17 2.15913e-16)
(0 -1.55755e-29 7.78776e-31 29.7782 1.99848e-15 1.98466e-15 0.231751 1.65986e-17 8.58695e-16)
(-2.67614e-16 2.39009e-30 2.69328e-31 29.7635 -4.54465e-15 2.79538e-14 0.234997 -3.54687e-17 2.22482e-16)
(0 6.14092e-30 -5.75711e-31 29.7635 1.97813e-15 1.95364e-15 0.234997 1.44049e-17 8.7984e-16)
(1.42469e-16 -2.18203e-29 1.58187e-30 29.7467 -4.3152e-15 2.83841e-14 0.23827 -3.31658e-17 2.29134e-16)
(0 2.42116e-29 -1.70238e-30 29.7467 1.53708e-15 1.9183e-15 0.23827 1.0017e-17 9.01296e-16)
(0 1.19323e-29 -7.45768e-31 29.7273 -4.09082e-15 2.88049e-14 0.241566 -3.28598e-17 2.3584e-16)
(-1.19817e-15 -1.49819e-29 1.30509e-30 29.7273 1.25363e-15 1.87717e-15 0.241566 1.02186e-17 9.23039e-16)
(3.15844e-16 1.52494e-29 -1.33692e-30 29.7048 -4.22213e-15 2.92125e-14 0.24488 -3.63032e-17 2.42569e-16)
(0 -1.76419e-29 1.47016e-30 29.7048 1.20432e-15 1.8281e-15 0.24488 9.49711e-18 9.45062e-16)
(-6.64748e-16 2.50741e-29 -1.72897e-30 29.6787 -4.39007e-15 2.96036e-14 0.248206 -3.66328e-17 2.49294e-16)
(0 -2.02872e-29 1.44909e-30 29.6787 1.05339e-15 1.7833e-15 0.248206 7.99237e-18 9.67291e-16)
(1.44944e-15 -2.71809e-29 2.22605e-30 29.6484 -4.19251e-15 2.99733e-14 0.251537 -3.40124e-17 2.5595e-16)
(2.79308e-15 2.01527e-29 -1.7854e-30 29.6484 9.51704e-16 1.74488e-15 0.251537 8.04888e-18 9.89755e-16)
(0 -1.12628e-29 1.40785e-30 29.613 -3.62465e-15 3.03174e-14 0.254867 -2.79249e-17 2.62524e-16)
(1.46451e-15 1.41602e-29 -1.75981e-30 29.613 9.01221e-16 1.69982e-15 0.254867 7.35695e-18 1.01243e-15)
(-7.24321e-18 8.70432e-30 -5.32334e-31 29.5717 -3.29138e-15 3.0633e-14 0.258184 -2.9185e-17 2.68962e-16)
(0 -5.55068e-30 6.93835e-31 29.5717 8.39826e-16 1.63491e-15 0.258184 7.21181e-18 1.03532e-15)
(-8.01618e-16 4.79448e-30 -3.38381e-31 29.5236 -3.50671e-15 3.09118e-14 0.26148 -3.25605e-17 2.75158e-16)
(-3.20647e-15 -1.76416e-31 0 29.5236 7.60473e-16 1.55508e-15 0.26148 6.16562e-18 1.05828e-15)
(-4.185e-16 1.04871e-29 -8.51227e-31 29.4676 -3.66677e-15 3.11469e-14 0.264741 -3.29189e-17 2.81068e-16)
(-2.05348e-15 -5.48394e-30 0 29.4676 6.75511e-16 1.48642e-15 0.264741 5.89488e-18 1.08126e-15)
(-7.48078e-16 2.12617e-29 -1.99328e-30 29.4027 -3.69669e-15 3.13321e-14 0.267954 -3.40603e-17 2.86599e-16)
(-9.97618e-16 -2.1353e-29 1.99328e-30 29.4027 9.3087e-16 1.42514e-15 0.267954 1.10061e-17 1.10421e-15)
(0 -1.57177e-29 1.63726e-30 29.3275 -3.49004e-15 3.1462e-14 0.271105 -3.00573e-17 2.91706e-16)
(1.81832e-15 1.58132e-29 -1.63726e-30 29.3275 1.0031e-15 1.34697e-15 0.271105 7.40471e-18 1.1271e-15)
(-4.72965e-16 2.40058e-30 -2.02575e-31 29.2409 -3.12279e-15 3.15311e-14 0.274177 -2.81602e-17 2.96292e-16)
(0 5.16414e-30 -3.22759e-31 29.2409 5.39423e-16 1.25496e-15 0.274177 2.61945e-18 1.14976e-15)
(-4.91577e-16 1.76721e-29 -1.80225e-30 29.1414 -2.6752e-15 3.15316e-14 0.277151 -2.24085e-17 3.00262e-16)
(0 -1.52704e-29 1.59066e-30 29.1414 3.12463e-16 1.15962e-15 0.277151 3.2967e-18 1.17217e-15)
(-5.10412e-16 1.24369e-29 -1.78873e-30 29.0277 -2.14536e-15 3.14554e-14 0.28001 -1.87417e-17 3.03497e-16)
(-2.04165e-15 -6.73583e-30 9.40719e-31 29.0277 -2.01237e-32 1.05078e-15 0.28001 2.46519e-32 1.19423e-15)
(5.29464e-16 -1.22927e-29 1.15762e-30 28.8983 -2.30682e-15 3.12946e-14 0.282732 -2.62319e-17 3.05904e-16)
(0 9.89052e-30 -9.27237e-31 28.8983 1.94503e-16 9.46417e-16 0.282732 6.08344e-18 1.2158e-15)
(5.48726e-16 -1.70252e-29 1.76338e-30 28.7519 -3.04387e-15 3.10425e-14 0.285298 -3.39574e-17 3.07371e-16)
(0 1.46231e-29 -1.52324e-30 28.7519 9.63273e-16 8.29914e-16 0.285298 1.29965e-17 1.23692e-15)
(-5.68191e-16 9.61078e-30 -1.15094e-30 28.587 -3.16254e-15 3.06971e-14 0.287685 -2.93961e-17 3.07891e-16)
(-6.76176e-16 -2.40226e-30 6.00565e-31 28.587 8.07236e-16 6.96373e-16 0.287685 6.50278e-18 1.25731e-15)
(0 9.47132e-30 -1.18391e-30 28.4023 -2.71366e-15 3.02597e-14 0.289873 -2.5758e-17 3.07417e-16)
(0 -1.4207e-29 1.77587e-30 28.4023 2.58061e-16 5.8369e-16 0.289873 3.57656e-17 1.27685e-15)
(-6.07691e-16 7.07367e-30 -2.70523e-31 28.1967 -2.55543e-15 2.97286e-14 0.29184 -2.69693e-17 3.05873e-16)
(2.43076e-15 9.32784e-32 -5.83473e-31 28.1967 5.15999e-16 4.66015e-16 0.29184 6.85903e-17 1.29555e-15)
(0 -1.61031e-29 1.72533e-30 27.9691 -2.38076e-15 2.91022e-14 0.293567 -2.283e-17 3.03217e-16)
(2.51081e-15 1.61908e-29 -1.72533e-30 27.9691 1.55018e-16 3.31264e-16 0.293567 8.76537e-17 1.31324e-15)
(6.47868e-16 6.66202e-30 -8.4225e-31 27.7188 -2.28462e-15 2.83838e-14 0.295035 -2.57031e-17 2.99468e-16)
(-2.59147e-15 -1.36782e-29 1.7006e-30 27.7188 -2.13358e-16 1.78688e-16 0.295035 1.18458e-16 1.3299e-15)
(6.68175e-16 -9.11324e-30 8.60816e-31 27.4452 -2.57793e-15 2.75785e-14 0.296228 -2.98636e-17 2.94624e-16)
(0 6.70492e-30 -5.58743e-31 27.4452 3.80977e-16 2.57739e-17 0.296228 1.52433e-16 1.34518e-15)
(-6.88604e-16 2.07152e-31 -3.12681e-31 27.1478 -2.51771e-15 2.66935e-14 0.297131 -2.51302e-17 2.88758e-16)
(0 6.60882e-30 -5.50735e-31 27.1478 4.35593e-16 -9.20081e-17 0.297131 1.66978e-16 1.35903e-15)
(7.09138e-16 4.10322e-30 -2.19566e-31 26.8267 -2.28141e-15 2.5737e-14 0.297734 -2.54606e-17 2.81888e-16)
(1.61418e-15 -2.12632e-30 0 26.8267 6.43767e-16 -2.25938e-16 0.297734 1.93475e-16 1.37155e-15)
(1.20485e-15 -8.56098e-30 1.60518e-30 26.4822 -2.58832e-15 2.4716e-14 0.298028 -3.2821e-17 2.74081e-16)
(2.91903e-15 1.07436e-29 -1.60518e-30 26.4822 7.20049e-16 -3.80551e-16 0.298028 2.07974e-16 1.38241e-15)
(-7.50439e-16 4.52189e-30 -3.4426e-31 26.1148 -2.60486e-15 2.36448e-14 0.298009 -2.65868e-17 2.65519e-16)
(0 2.10957e-30 -5.27392e-31 26.1148 2.41039e-17 -5.39062e-16 0.298009 2.12486e-16 1.39163e-15)
(-7.71164e-16 3.3374e-31 -3.54559e-31 25.7254 -2.12624e-15 2.25409e-14 0.297676 -2.26191e-17 2.56363e-16)
(0 6.238e-30 -5.19833e-31 25.7254 -3.65326e-16 -7.04652e-16 0.297676 2.3478e-16 1.39902e-15)
(1.15378e-15 -4.09906e-30 1.02477e-30 25.3151 -2.25583e-15 2.14068e-14 0.297031 -3.04321e-17 2.4646e-16)
(0 6.14859e-30 -1.02477e-30 25.3151 -3.06134e-16 -8.50918e-16 0.297031 2.68032e-16 1.40454e-15)
(-8.12651e-16 2.41556e-30 -3.74649e-31 24.8855 -1.99664e-15 2.02577e-14 0.296081 -1.70592e-17 2.36288e-16)
(0 6.06047e-30 -1.01008e-30 24.8855 -4.43677e-16 -1.00439e-15 0.296081 2.87147e-16 1.40828e-15)
(-1.12095e-15 1.79208e-29 -2.9868e-30 24.4381 -1.04885e-15 1.91142e-14 0.294836 -8.23889e-18 2.25827e-16)
(-3.33348e-15 -1.59296e-29 2.489e-30 24.4381 -8.70842e-16 -1.15595e-15 0.294836 3.01775e-16 1.40997e-15)
(-1.95892e-15 -1.32842e-29 2.55024e-30 23.9749 -8.26558e-16 1.79852e-14 0.293308 -1.20659e-17 2.15312e-16)
(3.41616e-15 1.7664e-29 -2.94399e-30 23.9749 -1.33535e-15 -1.27411e-15 0.293308 3.00752e-16 1.40972e-15)
(0 1.93453e-29 -2.41817e-30 23.4978 -9.81634e-16 1.68851e-14 0.291512 -1.2368e-17 2.04864e-16)
(0 -1.93453e-29 2.41817e-30 23.4978 -1.68112e-15 -1.39923e-15 0.291512 2.99573e-16 1.40777e-15)
(-8.95153e-16 1.38584e-29 -1.84177e-30 23.009 -8.9088e-16 1.58231e-14 0.289467 -1.01111e-17 1.94608e-16)
(3.58061e-15 -1.14408e-29 1.4301e-30 23.009 -1.2324e-15 -1.52947e-15 0.289467 3.00623e-16 1.40396e-15)
(1.83111e-15 -1.23542e-29 2.71975e-30 22.5106 -6.65343e-16 1.48078e-14 0.28719 -6.91048e-18 1.84666e-16)
(3.66222e-15 7.51791e-30 -1.87948e-30 22.5106 -1.26407e-15 -1.65163e-15 0.28719 3.0012e-16 1.39846e-15)
(1.04289e-15 -7.41016e-30 1.3894e-30 22.0047 -7.93503e-16 1.38488e-14 0.284704 -1.37625e-17 1.75202e-16)
(0 1.11152e-29 -1.85254e-30 22.0047 -1.83965e-15 -1.75455e-15 0.284704 2.95561e-16 1.3912e-15)
(7.19859e-17 -4.39522e-30 9.33436e-31 21.4936 -4.99508e-16 1.29542e-14 0.282028 -3.2928e-18 1.66315e-16)
(-1.02794e-15 7.30395e-30 -1.82599e-30 21.4936 -1.43062e-15 -1.82943e-15 0.282028 2.89243e-16 1.38235e-15)
(-1.95184e-15 2.8026e-44 -3.13686e-30 20.9794 3.62726e-28 1.21247e-14 0.279186 3.15544e-30 1.57981e-16)
(3.90367e-15 -1.79982e-29 2.69972e-30 20.9794 -1.791e-15 -1.89264e-15 0.279186 2.85086e-16 1.37193e-15)
(-9.95705e-16 2.41511e-30 -4.50709e-31 20.4639 6.58854e-16 1.13589e-14 0.276198 -1.26028e-17 1.50252e-16)
(0 3.54804e-30 -8.8701e-31 20.4639 -2.48024e-15 -1.95025e-15 0.276198 2.76986e-16 1.3603e-15)
(-1.0153e-15 -4.57892e-30 4.17377e-31 19.949 5.71949e-16 1.06552e-14 0.273085 -5.22574e-18 1.4309e-16)
(4.06121e-15 1.04916e-29 -1.74859e-30 19.949 -2.04092e-15 -2.01193e-15 0.273085 2.71545e-16 1.34738e-15)
(-1.0347e-15 6.78582e-30 -2.18546e-30 19.4366 1.51227e-15 1.00172e-14 0.269869 -1.05616e-17 1.36703e-16)
(0 -3.44706e-30 0 19.4366 -3.65452e-15 -2.04862e-15 0.269869 2.74435e-16 1.33322e-15)
(-3.06412e-15 1.84098e-29 -2.63204e-30 18.9281 2.55092e-15 9.45195e-15 0.266568 -3.36245e-17 1.31144e-16)
(-3.25917e-15 -1.35906e-29 1.69883e-30 18.9281 -4.57662e-15 -2.07513e-15 0.266568 2.59243e-16 1.3182e-15)
(-2.14569e-15 -1.19303e-29 2.4069e-30 18.425 2.31195e-15 8.95168e-15 0.263202 -3.87103e-17 1.26218e-16)
(8.58276e-15 1.33958e-29 -2.51172e-30 18.425 -3.18545e-15 -2.11195e-15 0.263202 2.48363e-16 1.30229e-15)
(-3.27475e-15 2.37291e-29 -5.55181e-30 17.9284 1.80689e-15 8.50875e-15 0.259787 -2.76883e-17 1.21971e-16)
(-4.36633e-15 -1.65048e-29 4.1262e-30 17.9284 -2.81122e-15 -2.15878e-15 0.259787 2.4149e-16 1.28562e-15)
(-1.11009e-15 -1.38606e-29 3.83375e-29 17.4396 1.70535e-15 2.99823e-15 0.256339 -2.50034e-17 2.21842e-17)
(4.44035e-15 1.62683e-29 -4.06706e-30 17.4396 -1.85753e-15 -2.20656e-15 0.256339 2.3443e-16 1.268e-15)
(2.93375e-15 -1.20275e-29 9.91232e-31 16.9594 1.4347e-15 -6.66587e-29 0.252872 -2.54724e-17 0)
(-1.80539e-15 9.62106e-30 -8.01755e-31 16.9594 -2.09081e-15 -2.20581e-15 0.252872 2.41092e-16 1.24957e-15)
(0 -1.58053e-29 3.95132e-30 16.4886 1.47776e-15 -6.41407e-15 0.249401 -1.75498e-17 9.69625e-17)
(4.58554e-15 1.58053e-29 -3.95132e-30 16.4886 -3.64417e-15 -2.1648e-15 0.249401 2.38636e-16 1.23068e-15)
(0 -6.2315e-30 1.55787e-30 16.0278 2.24001e-15 -6.43485e-15 0.245935 -2.75401e-17 9.84428e-17)
(4.65668e-15 9.34724e-30 -2.33681e-30 16.0278 -3.78897e-15 -2.17282e-15 0.245935 2.2889e-16 1.21199e-15)
(-1.72887e-15 9.21327e-30 -3.07109e-30 15.5776 3.40411e-15 -6.37566e-15 0.242487 -4.17934e-17 1.0045e-16)
(4.72686e-15 0 7.67773e-31 15.5776 -3.62961e-15 -2.20072e-15 0.242487 2.18492e-16 1.19274e-15)
(0 1.51354e-29 -3.02707e-30 15.1383 3.88291e-15 -6.24855e-15 0.239064 -6.51136e-17 9.94569e-17)
(0 -1.51354e-29 3.02707e-30 15.1383 -4.13141e-15 -2.20878e-15 0.239064 2.06438e-16 1.17316e-15)
(-2.43215e-15 4.78825e-30 -1.76363e-31 14.7103 3.30141e-15 -6.1514e-15 0.235676 -5.83597e-17 9.93194e-17)
(0 0 -7.45922e-31 14.7103 -4.23485e-15 -2.20145e-15 0.235676 1.9078e-16 1.15301e-15)
(0 -1.76455e-29 2.20569e-30 14.2937 3.31846e-15 -6.01225e-15 0.232328 -4.81172e-17 9.92119e-17)
(4.93157e-15 1.76455e-29 -2.20569e-30 14.2937 -3.78002e-15 -2.15349e-15 0.232328 1.79909e-16 1.13253e-15)
(0 8.69632e-30 -2.17408e-30 13.8887 3.54312e-15 -5.8095e-15 0.229027 -6.06316e-17 9.76396e-17)
(4.99788e-15 -2.89877e-30 7.24693e-31 13.8887 -4.21467e-15 -2.11206e-15 0.229027 1.7356e-16 1.11214e-15)
(-1.26581e-15 5.2452e-30 -1.16386e-30 13.4952 3.5977e-15 -5.60729e-15 0.225777 -5.70441e-17 9.53338e-17)
(0 0 -7.14307e-31 13.4952 -4.39153e-15 -2.16095e-15 0.225777 1.58662e-16 1.09224e-15)
(-3.03499e-16 6.0642e-30 -1.66632e-30 13.1133 3.64902e-15 -5.41579e-15 0.222583 -6.42604e-17 9.36351e-17)
(0 -2.81628e-30 1.40814e-30 13.1133 -3.99261e-15 -2.20938e-15 0.222583 1.38876e-16 1.07143e-15)
(0 -5.55182e-30 6.93978e-31 12.7429 3.08956e-15 -5.36042e-15 0.219447 -6.04829e-17 9.1531e-17)
(0 8.32773e-30 -1.38796e-30 12.7429 -4.26534e-15 -2.159e-15 0.219447 1.28371e-16 1.05029e-15)
(1.5403e-15 -8.20838e-30 1.36806e-30 12.3838 2.63491e-15 -6.09923e-15 0.216373 -4.65939e-17 9.44434e-17)
(-1.5403e-15 8.20838e-30 -2.05209e-30 12.3838 -4.56608e-15 -2.12809e-15 0.216373 1.142e-16 1.02953e-15)
(-1.13955e-15 2.06649e-30 4.8935e-31 12.0359 3.40289e-15 -6.60507e-15 0.213363 -4.61372e-17 1.20403e-16)
(0 5.39382e-30 -2.02268e-30 12.0359 -4.76584e-15 -2.14398e-15 0.213363 9.32121e-17 1.00885e-15)
(-1.3441e-15 1.03497e-29 -2.41926e-30 11.699 4.78722e-15 -6.28516e-15 0.210418 -7.55797e-17 1.15403e-16)
(0 -7.97477e-30 1.99369e-30 11.699 -4.57229e-15 -2.09738e-15 0.210418 6.94346e-17 9.87897e-16)
(1.3591e-15 -2.36935e-30 4.21399e-31 11.3729 5.15517e-15 -6.15476e-15 0.207539 -9.80015e-17 1.12257e-16)
(-5.43641e-15 0 0 11.3729 -4.54086e-15 -2.11103e-15 0.207539 4.87603e-17 9.67835e-16)
(0 -5.16521e-30 1.2913e-30 11.0572 4.5065e-15 -6.06108e-15 0.204726 -9.14149e-17 1.13956e-16)
(-5.49558e-15 7.74781e-30 -1.93695e-30 11.0572 -4.88931e-15 -2.0567e-15 0.204726 2.92711e-17 9.46333e-16)
(-1.38848e-15 1.25503e-29 -2.32138e-30 10.7518 4.2979e-15 -5.84079e-15 0.201981 -7.65095e-17 1.12027e-16)
(1.11078e-14 -5.09117e-30 6.36397e-31 10.7518 -4.41336e-15 -1.49514e-15 0.201981 1.76208e-17 9.25941e-16)
(1.40287e-15 7.6723e-30 -1.4737e-30 10.4564 5.03544e-15 -5.59777e-15 0.199303 -8.61445e-17 1.089e-16)
(5.61147e-15 -1.25455e-29 2.52724e-31 10.4564 -5.24976e-15 1.31148e-29 0.199303 1.09217e-17 9.10533e-16)
(0 0 -6.18285e-31 10.1706 4.84472e-15 -5.40789e-15 0.196691 -1.07262e-16 1.05914e-16)
(0 4.94628e-30 -6.18285e-31 10.1706 -5.02084e-15 8.00631e-17 0.196691 -2.46298e-17 9.01982e-16)
(-1.43106e-15 -1.22679e-29 2.03776e-30 9.89426 2.82349e-15 -5.24699e-15 0.194145 -8.11881e-17 1.04643e-16)
(5.72424e-15 1.70639e-29 -3.04712e-30 9.89426 -2.41621e-15 -5.62056e-17 0.194145 -3.88936e-17 8.92945e-16)
(-1.44488e-15 9.57248e-30 -2.79856e-30 9.62703 1.46078e-15 -5.11633e-15 0.191665 -2.99789e-17 1.02614e-16)
(-5.77951e-15 -4.80551e-30 1.20138e-30 9.62703 -1.38123e-15 -1.15245e-16 0.191665 -4.1624e-17 8.83374e-16)
(4.125e-15 -9.46849e-30 2.75978e-30 9.36863 2.11762e-15 -4.94414e-15 0.189249 -2.85552e-17 1.02434e-16)
(3.16756e-15 7.10495e-30 0 9.36863 -1.18288e-15 -6.16298e-33 0.189249 -4.31678e-17 8.73452e-16)
(-1.47197e-15 1.40303e-29 -2.72215e-30 9.11875 2.6398e-15 -4.70599e-15 0.186897 -5.77584e-17 9.85685e-17)
(5.88788e-15 -1.16719e-29 2.33437e-30 9.11875 -1.89982e-15 2.30079e-17 0.186897 -2.6984e-17 8.58169e-16)
(-1.48526e-15 2.35975e-30 -9.5923e-31 8.87713 2.62917e-15 -4.48512e-15 0.184607 -5.10891e-17 9.55388e-17)
(0 0 5.75229e-31 8.87713 -3.24102e-15 -1.94786e-17 0.184607 -3.41193e-17 8.41696e-16)
(-1.49837e-15 2.3582e-30 -3.80493e-31 8.64347 2.37765e-15 -4.32536e-15 0.182378 -5.90024e-17 9.2145e-17)
(0 4.53588e-30 -1.14431e-31 8.64347 -2.48306e-15 -1.07852e-29 0.182378 -4.53458e-17 8.24563e-16)
(-1.51133e-15 -8.81815e-30 1.30009e-30 8.4175 1.94068e-15 -4.14175e-15 0.18021 -4.18283e-17 9.15049e-17)
(6.04532e-15 1.34126e-29 -2.23543e-30 8.4175 -1.01989e-15 -1.01252e-17 0.18021 -4.32049e-17 8.08137e-16)
(4.00493e-15 -1.11719e-29 1.47484e-30 8.19894 2.71037e-15 -3.93231e-15 0.1781 -4.17707e-17 8.68771e-17)
(-2.4808e-15 8.81357e-30 -1.1017e-30 8.19894 -2.03037e-15 -8.66728e-17 0.1781 -4.38072e-17 7.91441e-16)
(0 -6.51544e-30 5.42953e-31 7.98754 3.37633e-15 -3.78932e-15 0.176047 -7.69364e-17 8.49658e-17)
(0 8.68725e-30 -5.42953e-31 7.98754 -4.17099e-15 -1.08905e-16 0.176047 -6.03057e-17 7.74603e-16)
(-1.54926e-15 2.118e-31 1.69018e-31 7.78302 3.15161e-15 -3.72772e-15 0.17405 -7.27372e-17 8.30356e-17)
(0 6.42206e-30 -1.05194e-31 7.78302 -4.79501e-15 -9.35232e-30 0.17405 -9.27324e-17 7.58003e-16)
(2.37565e-15 -2.321e-29 3.69251e-30 7.58515 4.04694e-15 -3.5496e-15 0.172108 -6.90079e-17 8.46639e-17)
(1.24929e-14 2.532e-29 -9.62734e-30 7.58515 -3.89722e-15 6.92559e-17 0.172108 -1.28374e-16 7.41893e-16)
(0 0 -5.19941e-31 7.39368 5.62723e-15 -3.17691e-15 0.170218 -1.16026e-16 7.72798e-17)
(6.29526e-15 6.23929e-30 -5.19941e-31 7.39368 -4.26455e-15 1.33552e-16 0.170218 -1.46489e-16 7.27149e-16)
(-3.89392e-15 1.87309e-29 -3.43185e-30 7.20836 6.33651e-15 -3.02728e-15 0.168381 -1.44732e-16 6.97623e-17)
(-6.34353e-15 -1.43497e-29 3.07493e-30 7.20836 -6.37305e-15 -6.43253e-17 0.168381 -1.76685e-16 7.11785e-16)
(6.77149e-16 1.04085e-29 -1.36337e-30 7.02898 6.39703e-15 -3.0689e-15 0.166593 -1.52985e-16 7.24633e-17)
(-6.39125e-15 -6.06172e-30 1.27351e-30 7.02898 -6.62098e-15 -1.05639e-16 0.166593 -2.13346e-16 6.95658e-16)
(-2.24236e-15 5.97484e-30 -4.97903e-31 6.85531 6.73834e-15 -2.95841e-15 0.164855 -1.51877e-16 7.38042e-17)
(0 -1.99161e-30 9.44607e-32 6.85531 -5.35096e-15 7.81465e-30 0.164855 -2.33155e-16 6.80661e-16)
(-2.21022e-15 7.85227e-30 -4.90767e-31 6.68714 8.46079e-15 -2.69722e-15 0.163164 -1.74089e-16 6.92049e-17)
(6.48515e-15 -3.92614e-30 0 6.68714 -6.29486e-15 4.42031e-17 0.163164 -2.58373e-16 6.66009e-16)
(-5.45702e-16 2.09216e-29 -3.52594e-30 6.52426 9.30473e-15 -2.52226e-15 0.161519 -2.41433e-16 6.30603e-17)
(0 -1.93493e-29 3.38613e-30 6.52426 -7.77259e-15 9.651e-17 0.161519 -2.96426e-16 6.52196e-16)
(0 -2.67008e-29 4.768e-30 6.36648 7.33389e-15 -2.53867e-15 0.159919 -2.21495e-16 6.24616e-17)
(1.31541e-14 2.67008e-29 -4.768e-30 6.36648 -5.30792e-15 1.19374e-16 0.159919 -3.4505e-16 6.39462e-16)
(2.11654e-15 -3.75973e-30 4.69966e-31 6.21361 5.75105e-15 -2.42669e-15 0.158363 -1.48272e-16 6.57421e-17)
(1.11281e-14 7.51946e-30 -4.69966e-31 6.21361 -4.16774e-15 2.60514e-17 0.158363 -3.49449e-16 6.27435e-16)
(-3.33356e-15 4.59273e-30 -6.68382e-31 6.06547 6.03884e-15 -2.24771e-15 0.156849 -1.46312e-16 5.85134e-17)
(0 0 1.70521e-31 6.06547 -5.93533e-15 1.31245e-29 0.156849 -3.69672e-16 6.14366e-16)
(-1.67787e-15 2.28728e-30 -7.87462e-31 5.92187 6.8489e-15 -2.17155e-15 0.155376 -1.67681e-16 5.82987e-17)
(1.34229e-14 3.65273e-30 0 5.92187 -5.93111e-15 8.47869e-17 0.155376 -4.12589e-16 6.02456e-16)
(1.68885e-15 -9.4773e-30 1.22786e-30 5.78265 6.51443e-15 -2.16298e-15 0.153942 -1.9362e-16 5.61828e-17)
(0 7.20075e-30 -9.00094e-31 5.78265 -5.63257e-15 7.41232e-18 0.153942 -4.40781e-16 5.90965e-16)
(-1.69972e-15 2.27809e-30 -3.23567e-31 5.64764 4.45056e-15 -2.17565e-15 0.152547 -1.54571e-16 5.95449e-17)
(0 3.54877e-30 -4.43597e-31 5.64764 -3.78303e-15 -9.18097e-17 0.152547 -4.73686e-16 5.78564e-16)
(-1.7105e-15 9.28426e-30 -7.57378e-31 5.5167 3.20795e-15 -2.01878e-15 0.15119 -8.64709e-17 5.8521e-17)
(6.84199e-15 -6.99582e-30 2.79321e-33 5.5167 -1.59313e-15 5.70537e-30 0.15119 -4.72282e-16 5.65865e-16)
(-3.6621e-15 9.18281e-30 -2.04155e-30 5.38967 3.48119e-15 -1.77276e-15 0.149868 -9.01841e-17 5.2589e-17)
(6.88468e-15 -3.44778e-30 1.29292e-30 5.38967 -2.28616e-15 6.66776e-17 0.149868 -4.60191e-16 5.55419e-16)
(-3.4635e-15 1.16557e-30 -6.30399e-31 5.26641 4.00348e-15 -1.58079e-15 0.148582 -1.04378e-16 4.6393e-17)
(0 3.39836e-30 0 5.26641 -2.88238e-15 -2.96277e-17 0.148582 -4.8482e-16 5.44156e-16)
(-3.62792e-15 1.23239e-29 -1.56841e-30 5.14678 4.54653e-15 -1.5084e-15 0.14733 -1.2264e-16 4.31707e-17)
(0 -3.34965e-30 4.18707e-31 5.14678 -3.29669e-15 -1.51248e-16 0.14733 -5.06222e-16 5.31898e-16)
(1.85866e-15 -9.90493e-30 1.65082e-30 5.03064 4.49544e-15 -1.51828e-15 0.146111 -1.38886e-16 4.35597e-17)
(-7.0105e-15 9.90493e-30 7.19185e-32 5.03064 -3.17106e-15 1.2326e-32 0.146111 -5.31074e-16 5.18228e-16)
(1.76293e-15 -8.77383e-30 1.11938e-30 4.91788 4.46895e-15 -1.43362e-15 0.144924 -1.23231e-16 4.50158e-17)
(7.05171e-15 6.50865e-30 -8.13581e-31 4.91788 -2.47296e-15 9.31373e-18 0.144924 -5.56184e-16 5.05859e-16)
(1.77314e-15 -1.18807e-29 1.50617e-30 4.80836 4.33645e-15 -1.29957e-15 0.143768 -1.41376e-16 3.97892e-17)
(-7.09258e-15 9.62304e-30 -1.20288e-30 4.80836 -3.30014e-15 -4.10618e-17 0.143768 -5.87312e-16 4.9222e-16)
(-1.78328e-15 8.58082e-30 -1.09072e-30 4.70198 4.07951e-15 -1.20823e-15 0.142642 -1.18827e-16 3.82271e-17)
(5.35322e-15 -3.16171e-30 3.95213e-31 4.70198 -2.70911e-15 -6.17805e-17 0.142642 -6.0869e-16 4.77685e-16)
(0 9.34917e-30 -1.16865e-30 4.59862 5.93175e-15 -9.76505e-16 0.141545 -1.29752e-16 3.53503e-17)
(0 -6.23278e-30 1.15429e-45 4.59862 -1.83923e-15 -4.16001e-30 0.141545 -6.00603e-16 4.63236e-16)
(-5.18768e-15 9.21517e-30 -1.53586e-30 4.49816 6.78915e-15 -9.36618e-16 0.140476 -2.37609e-16 2.49224e-17)
(7.21319e-15 -3.07172e-30 7.67931e-31 4.49816 -2.00459e-15 1.04727e-17 0.140476 -6.19501e-16 4.48591e-16)
(3.51763e-15 -8.28117e-30 1.04821e-30 4.40052 4.99112e-15 -1.02489e-15 0.139435 -1.87701e-16 3.38668e-17)
(-1.70444e-15 6.0554e-30 -7.56925e-31 4.40052 -2.56034e-15 -5.1703e-17 0.139435 -6.44012e-16 4.33152e-16)
(0 5.96861e-30 -1.49215e-30 4.30559 5.07562e-15 -8.34234e-16 0.13842 -1.29365e-16 3.13081e-17)
(-1.0652e-14 0 7.46076e-31 4.30559 -3.15583e-15 -1.42681e-16 0.13842 -6.82009e-16 4.15593e-16)
(-1.65593e-15 2.94153e-30 -3.67691e-31 4.21328 6.40325e-15 -6.29798e-16 0.137431 -1.98692e-16 2.24656e-17)
(0 2.94153e-30 -3.67691e-31 4.21328 -2.99918e-15 -1.30638e-17 0.137431 -7.0851e-16 3.96814e-16)
(-3.2644e-15 5.79874e-30 -1.08726e-30 4.12348 6.29741e-15 -5.42937e-16 0.136467 -2.20711e-16 1.87427e-17)
(0 -2.89937e-30 8.51295e-32 4.12348 -3.63996e-15 3.85186e-34 0.136467 -7.28645e-16 3.79056e-16)
(1.85202e-15 1.20827e-29 -2.93366e-30 4.03613 5.76801e-15 -4.48226e-16 0.135527 -1.97431e-16 1.7312e-17)
(0 -1.42891e-29 3.21504e-30 4.03613 -4.50579e-15 -1.38853e-17 0.135527 -7.42544e-16 3.61378e-16)
(1.86155e-15 3.42958e-30 -1.48143e-30 3.95113 5.29797e-15 -2.95711e-16 0.134611 -1.9124e-16 1.28626e-17)
(-1.58575e-15 -2.81686e-30 4.76262e-32 3.95113 -3.95018e-15 2.78567e-30 0.134611 -7.70462e-16 3.43183e-16)
(-3.74202e-15 1.6256e-30 -9.01363e-31 3.8684 5.0885e-15 -1.42161e-16 0.133717 -1.70844e-16 7.31562e-18)
(7.48405e-15 2.77648e-30 3.4706e-31 3.8684 -3.35229e-15 6.73612e-17 0.133717 -8.01491e-16 3.24514e-16)
(-1.88041e-15 2.19145e-30 4.08894e-31 3.78786 5.91984e-15 7.53656e-18 0.132845 -1.82206e-16 3.08155e-18)
(0 2.73669e-30 -1.02626e-30 3.78786 -4.24223e-15 1.59691e-17 0.132845 -8.24505e-16 3.05776e-16)
(0 5.39493e-30 4.37906e-47 3.70945 6.76124e-15 -1.53027e-29 0.131995 -2.34779e-16 0)
(0 -5.39493e-30 1.01155e-30 3.70945 -4.81304e-15 -1.53029e-16 0.131995 -8.66478e-16 2.85432e-16)
(0 5.31761e-30 -6.64701e-31 3.63308 6.31752e-15 -1.63764e-16 0.131165 -2.48054e-16 5.41746e-18)
(0 -2.6588e-30 0 3.63308 -5.19129e-15 -2.01519e-16 0.131165 -9.10352e-16 2.63561e-16)
(-2.95064e-15 1.04828e-29 -9.82761e-31 3.5587 5.73939e-15 -2.36392e-16 0.130355 -2.09281e-16 6.45238e-18)
(0 -2.6207e-30 -1.01813e-45 3.5587 -4.33398e-15 1.8304e-30 0.130355 -9.78392e-16 2.42095e-16)
(0 7.74941e-30 -9.68676e-31 3.48623 4.8972e-15 -2.22297e-16 0.129565 -2.12525e-16 1.09524e-17)
(1.24308e-14 -2.58314e-30 1.07488e-31 3.48623 -2.74603e-15 1.48091e-16 0.129565 -9.98572e-16 2.22773e-16)
(-3.85298e-15 4.35109e-30 1.15052e-31 3.41562 1.45892e-15 -2.8365e-16 0.128794 -1.52164e-16 5.58287e-18)
(7.70595e-15 0 -6.36528e-31 3.41562 -3.64661e-15 1.32769e-16 0.128794 -9.92534e-16 1.95385e-16)
(1.93553e-15 -2.1962e-30 8.83446e-31 3.34679 0 -3.8797e-16 0.12804 -3.15544e-30 1.59478e-17)
(0 7.52886e-30 -6.27405e-31 3.34679 -4.63808e-15 -1.73401e-16 0.12804 -1.04754e-15 1.63219e-16)
(0 2.47365e-30 0 3.2797 5.71065e-15 -5.55459e-16 0.127305 -2.87525e-16 1.38104e-17)
(-7.77806e-15 2.47365e-30 -6.18413e-31 3.2797 -3.51325e-15 -3.25257e-16 0.127305 -1.11459e-15 1.27121e-16)
(-1.95345e-15 -1.00332e-29 2.19105e-30 3.21429 4.11107e-15 -6.76137e-16 0.126586 -1.56146e-16 2.955e-17)
(7.8138e-15 1.2191e-29 0 3.21429 -3.36673e-15 -1.31701e-45 0.126586 -1.14702e-15 9.27882e-17)
(0 7.20975e-30 -6.00813e-31 3.1505 5.94114e-15 -6.86479e-16 0.125885 -1.68678e-16 2.38166e-17)
(0 -4.8065e-30 0 3.1505 -4.86454e-15 2.76646e-17 0.125885 -1.17113e-15 6.17767e-17)
(0 -4.73761e-30 1.7766e-30 3.08828 4.10217e-15 -7.5703e-16 0.125199 -3.08445e-16 3.12505e-17)
(0 7.10642e-30 -1.7766e-30 3.08828 -5.49051e-15 -1.43722e-16 0.125199 -1.21297e-15 2.99924e-17)
(-1.97994e-15 4.49773e-30 -8.19351e-31 3.02758 1.11616e-15 -8.38743e-16 0.124529 -2.30168e-17 3.02921e-17)
(0 -2.33486e-30 6.44825e-33 3.02758 -4.67893e-15 2.23729e-32 0.124529 -1.27927e-15 3.85186e-34)
(-1.38621e-15 -1.64218e-29 3.56731e-30 2.96836 4.89238e-15 -8.77575e-16 0.123874 -1.32714e-16 3.89551e-17)
(1.59094e-14 1.84111e-29 -4.04402e-30 2.96836 -3.4027e-15 1.63705e-16 0.123874 -1.32612e-15 -1.71872e-17)
(-2.554e-15 4.53681e-30 -5.67102e-31 2.91056 6.74741e-15 -1.05872e-15 0.123234 -2.77755e-16 3.44527e-17)
(0 -2.26841e-30 0 2.91056 -4.10636e-15 -1.26852e-16 0.123234 -1.37712e-15 -6.23509e-17)
(0 6.70768e-30 -1.11795e-30 2.85415 5.8034e-15 -1.39525e-15 0.122609 -2.95243e-16 5.55877e-17)
(0 0 5.58974e-31 2.85415 -4.26698e-15 -2.95195e-16 0.122609 -1.47376e-15 -9.85035e-17)
(-6.04376e-15 -9.11596e-30 2.1202e-30 2.79907 3.85524e-15 -1.22481e-15 0.121997 -2.03985e-16 6.46601e-17)
(1.61167e-14 1.76308e-29 -3.30577e-30 2.79907 -2.45961e-15 4.07405e-17 0.121997 -1.5416e-15 -1.31906e-16)
(0 -1.73781e-29 3.80146e-30 2.7453 3.76208e-15 -1.06872e-15 0.121398 -1.32405e-16 4.22132e-17)
(1.61851e-14 1.73781e-29 -3.80146e-30 2.7453 -3.38891e-15 7.51577e-17 0.121398 -1.54988e-15 -1.61395e-16)
(-2.03164e-15 1.06604e-29 -1.80822e-30 2.69279 5.92318e-15 -1.43425e-15 0.120812 -2.01641e-16 5.26145e-17)
(0 -4.28225e-30 1.07056e-30 2.69279 -5.02548e-15 -1.51197e-16 0.120812 -1.58827e-15 -1.94037e-16)
(2.0401e-15 -1.8951e-29 4.94111e-30 2.6415 6.38599e-15 -1.65332e-15 0.120239 -3.32087e-16 7.65686e-17)
(1.63208e-14 1.68835e-29 -4.74849e-30 2.6415 -3.35978e-15 2.25859e-17 0.120239 -1.66456e-15 -2.27258e-16)
(0 -1.0401e-29 2.08019e-30 2.59139 4.3862e-15 -1.53882e-15 0.119679 -2.5009e-16 7.42921e-17)