/*--------------------------------*- C++ -*----------------------------------*\
| =========                 |                                                 |
| \\      /  F ield         | OpenFOAM: The Open Source CFD Toolbox           |
|  \\    /   O peration     | Version:  2106                                  |
|   \\  /    A nd           | Website:  www.openfoam.com                      |
|    \\/     M anipulation  |                                                 |
\*---------------------------------------------------------------------------*/
FoamFile
{
    version     2.0;
    format      ascii;
    arch        "LSB;label=32;scalar=64";
    class       volSymmTensorField;
    location    "7000";
    object      turbulenceProperties:R;
}
// * * * * * * * * * * * * * * * * * * * * * * * * * * * * * * * * * * * * * //

dimensions      [0 2 -2 0 0 0 0];

internalField   nonuniform List<symmTensor> 
2560
(
(1.01638e-07 -2.99219e-12 -4.33154e-15 1.01638e-07 -2.0411e-27 1.01638e-07)
(1.01638e-07 -2.99219e-12 -4.33154e-15 1.01638e-07 -1.40067e-27 1.01638e-07)
(1.64763e-08 -2.78765e-12 -1.21656e-14 1.64763e-08 -3.21996e-27 1.64763e-08)
(1.64763e-08 -2.78765e-12 -1.21656e-14 1.64763e-08 -3.62987e-27 1.64763e-08)
(1.56665e-08 -7.81859e-12 -4.6932e-14 1.56665e-08 -4.68763e-27 1.56665e-08)
(1.56665e-08 -7.81859e-12 -4.6932e-14 1.56665e-08 -6.02125e-28 1.56665e-08)
(4.324e-08 -4.57569e-11 -2.78654e-13 4.324e-08 -2.58209e-26 4.324e-08)
(4.324e-08 -4.57569e-11 -2.78654e-13 4.324e-08 -3.50249e-27 4.324e-08)
(1.09252e-07 -2.0395e-10 -1.26009e-12 1.09252e-07 -1.31042e-25 1.09252e-07)
(1.09252e-07 -2.0395e-10 -1.26009e-12 1.09252e-07 -1.55715e-26 1.09252e-07)
(2.32287e-07 -6.82703e-10 -4.27934e-12 2.32287e-07 -4.73017e-25 2.32287e-07)
(2.32287e-07 -6.82703e-10 -4.27934e-12 2.32287e-07 -5.19333e-26 2.32287e-07)
(4.35029e-07 -1.86518e-09 -1.18614e-11 4.35029e-07 -1.3263e-24 4.35029e-07)
(4.35029e-07 -1.86518e-09 -1.18614e-11 4.35029e-07 -1.4137e-25 4.35029e-07)
(7.43653e-07 -4.4056e-09 -2.84241e-11 7.43653e-07 -3.20093e-24 7.43653e-07)
(7.43653e-07 -4.4056e-09 -2.84241e-11 7.43653e-07 -3.32369e-25 7.43653e-07)
(1.1878e-06 -9.33791e-09 -6.11222e-11 1.1878e-06 -6.92306e-24 1.1878e-06)
(1.1878e-06 -9.33791e-09 -6.11222e-11 1.1878e-06 -7.00242e-25 1.1878e-06)
(1.8007e-06 -1.82078e-08 -1.20913e-10 1.8007e-06 -1.37713e-23 1.8007e-06)
(1.8007e-06 -1.82078e-08 -1.20913e-10 1.8007e-06 -1.35658e-24 1.8007e-06)
(2.61932e-06 -3.32305e-08 -2.23883e-10 2.61932e-06 -2.56287e-23 2.61932e-06)
(2.61932e-06 -3.32305e-08 -2.23883e-10 2.61932e-06 -2.4607e-24 2.61932e-06)
(3.68457e-06 -5.74787e-08 -3.92879e-10 3.68457e-06 -4.51805e-23 3.68457e-06)
(3.68457e-06 -5.74787e-08 -3.92879e-10 3.68457e-06 -4.22659e-24 3.68457e-06)
(5.04152e-06 -9.51017e-08 -6.59489e-10 5.04152e-06 -7.61722e-23 5.04152e-06)
(5.04152e-06 -9.51017e-08 -6.59489e-10 5.04152e-06 -6.9386e-24 5.04152e-06)
(6.73963e-06 -1.51583e-07 -1.06644e-09 6.73963e-06 -1.23696e-22 6.73963e-06)
(6.73963e-06 -1.51583e-07 -1.06644e-09 6.73963e-06 -1.09661e-23 6.73963e-06)
(8.83299e-06 -2.34033e-07 -1.67043e-09 8.83299e-06 -1.945e-22 8.83299e-06)
(8.83299e-06 -2.34033e-07 -1.67043e-09 8.83299e-06 -1.67994e-23 8.83299e-06)
(1.13806e-05 -3.51534e-07 -2.54556e-09 1.13806e-05 -2.97474e-22 1.13806e-05)
(1.13806e-05 -3.51534e-07 -2.54556e-09 1.13806e-05 -2.50018e-23 1.13806e-05)
(1.44465e-05 -5.15516e-07 -3.78724e-09 1.44465e-05 -4.44133e-22 1.44465e-05)
(1.44465e-05 -5.15516e-07 -3.78724e-09 1.44465e-05 -3.62225e-23 1.44465e-05)
(1.81002e-05 -7.40199e-07 -5.51686e-09 1.81002e-05 -6.49025e-22 1.81002e-05)
(1.81002e-05 -7.40199e-07 -5.51686e-09 1.81002e-05 -5.14814e-23 1.81002e-05)
(2.24169e-05 -1.04307e-06 -7.8871e-09 2.24169e-05 -9.3061e-22 2.24169e-05)
(2.24169e-05 -1.04307e-06 -7.8871e-09 2.24169e-05 -7.17411e-23 2.24169e-05)
(2.74775e-05 -1.4454e-06 -1.1088e-08 2.74775e-05 -1.31182e-21 2.74775e-05)
(2.74775e-05 -1.4454e-06 -1.1088e-08 2.74775e-05 -9.83397e-23 2.74775e-05)
(3.33691e-05 -1.97288e-06 -1.53541e-08 3.33691e-05 -1.82063e-21 3.33691e-05)
(3.33691e-05 -1.97288e-06 -1.53541e-08 3.33691e-05 -1.32588e-22 3.33691e-05)
(4.01849e-05 -2.65615e-06 -2.09716e-08 4.01849e-05 -2.49149e-21 4.01849e-05)
(4.01849e-05 -2.65615e-06 -2.09716e-08 4.01849e-05 -1.75632e-22 4.01849e-05)
(4.80246e-05 -3.53155e-06 -2.82877e-08 4.80246e-05 -3.36585e-21 4.80246e-05)
(4.80246e-05 -3.53155e-06 -2.82877e-08 4.80246e-05 -2.28931e-22 4.80246e-05)
(5.69944e-05 -4.64175e-06 -3.77192e-08 5.69944e-05 -4.49259e-21 5.69944e-05)
(5.69944e-05 -4.64175e-06 -3.77192e-08 5.69944e-05 -2.94705e-22 5.69944e-05)
(6.72067e-05 -6.03644e-06 -4.97631e-08 6.72067e-05 -5.92901e-21 6.72067e-05)
(6.72067e-05 -6.03644e-06 -4.97631e-08 6.72067e-05 -3.73425e-22 6.72067e-05)
(7.87807e-05 -7.77305e-06 -6.50067e-08 7.87807e-05 -7.74378e-21 7.87807e-05)
(7.87807e-05 -7.77305e-06 -6.50067e-08 7.87807e-05 -4.69152e-22 7.87807e-05)
(9.18414e-05 -9.91731e-06 -8.41387e-08 9.18414e-05 -1.00146e-20 9.18414e-05)
(9.18414e-05 -9.91731e-06 -8.41387e-08 9.18414e-05 -5.8635e-22 9.18414e-05)
(0.00010652 -1.25439e-05 -1.0796e-07 0.00010652 -1.28305e-20 0.00010652)
(0.00010652 -1.25439e-05 -1.0796e-07 0.00010652 -7.23152e-22 0.00010652)
(0.000122952 -1.57367e-05 -1.37394e-07 0.000122952 -1.6286e-20 0.000122952)
(0.000122952 -1.57367e-05 -1.37394e-07 0.000122952 -8.73868e-22 0.000122952)
(0.00014128 -1.95895e-05 -1.73497e-07 0.00014128 -2.0489e-20 0.00014128)
(0.00014128 -1.95895e-05 -1.73497e-07 0.00014128 -1.03592e-21 0.00014128)
(0.000161647 -2.42053e-05 -2.17464e-07 0.000161647 -2.55577e-20 0.000161647)
(0.000161647 -2.42053e-05 -2.17464e-07 0.000161647 -1.22582e-21 0.000161647)
(0.000184202 -2.96969e-05 -2.70636e-07 0.000184202 -3.16113e-20 0.000184202)
(0.000184202 -2.96969e-05 -2.70636e-07 0.000184202 -1.45052e-21 0.000184202)
(0.000209094 -3.61858e-05 -3.34503e-07 0.000209094 -3.87823e-20 0.000209094)
(0.000209094 -3.61858e-05 -3.34503e-07 0.000209094 -1.67109e-21 0.000209094)
(0.00023647 -4.38013e-05 -4.10702e-07 0.00023647 -4.71897e-20 0.00023647)
(0.00023647 -4.38013e-05 -4.10702e-07 0.00023647 -1.88379e-21 0.00023647)
(0.000266478 -5.26792e-05 -5.01008e-07 0.000266478 -5.69595e-20 0.000266478)
(0.000266478 -5.26792e-05 -5.01008e-07 0.000266478 -2.10221e-21 0.000266478)
(0.000299259 -6.29598e-05 -6.07328e-07 0.000299259 -6.81847e-20 0.000299259)
(0.000299259 -6.29598e-05 -6.07328e-07 0.000299259 -2.27908e-21 0.000299259)
(0.00033495 -7.47857e-05 -7.3168e-07 0.00033495 -8.09192e-20 0.00033495)
(0.00033495 -7.47857e-05 -7.3168e-07 0.00033495 -2.46497e-21 0.00033495)
(0.000373675 -8.82986e-05 -8.76165e-07 0.000373675 -9.52291e-20 0.000373675)
(0.000373675 -8.82986e-05 -8.76165e-07 0.000373675 -2.58863e-21 0.000373675)
(0.000415549 -0.000103636 -1.04294e-06 0.000415549 -1.1118e-19 0.000415549)
(0.000415549 -0.000103636 -1.04294e-06 0.000415549 -2.54813e-21 0.000415549)
(0.000460671 -0.000120929 -1.23419e-06 0.000460671 -1.28727e-19 0.000460671)
(0.000460671 -0.000120929 -1.23419e-06 0.000460671 -2.63746e-21 0.000460671)
(0.00050912 -0.000140294 -1.45206e-06 0.00050912 -1.47781e-19 0.00050912)
(0.00050912 -0.000140294 -1.45206e-06 0.00050912 -2.65995e-21 0.00050912)
(0.000560957 -0.000161834 -1.69863e-06 0.000560957 -1.68258e-19 0.000560957)
(0.000560957 -0.000161834 -1.69863e-06 0.000560957 -2.42393e-21 0.000560957)
(0.000616218 -0.000185633 -1.97584e-06 0.000616218 -1.89914e-19 0.000616218)
(0.000616218 -0.000185633 -1.97584e-06 0.000616218 -1.98998e-21 0.000616218)
(0.000674912 -0.000211749 -2.2855e-06 0.000674912 -2.12547e-19 0.000674912)
(0.000674912 -0.000211749 -2.2855e-06 0.000674912 -1.37492e-21 0.000674912)
(0.000737021 -0.000240216 -2.62915e-06 0.000737021 -2.35974e-19 0.000737021)
(0.000737021 -0.000240216 -2.62915e-06 0.000737021 -6.63367e-22 0.000737021)
(0.0008025 -0.000271037 -3.00808e-06 0.0008025 -2.5977e-19 0.0008025)
(0.0008025 -0.000271037 -3.00808e-06 0.0008025 3.27979e-22 0.0008025)
(0.000871268 -0.000304187 -3.42329e-06 0.000871268 -2.83523e-19 0.000871268)
(0.000871268 -0.000304187 -3.42329e-06 0.000871268 1.98229e-21 0.000871268)
(0.000943221 -0.000339608 -3.87544e-06 0.000943221 -3.07141e-19 0.000943221)
(0.000943221 -0.000339608 -3.87544e-06 0.000943221 4.24693e-21 0.000943221)
(0.00101822 -0.000377212 -4.36482e-06 0.00101822 -3.30186e-19 0.00101822)
(0.00101822 -0.000377212 -4.36482e-06 0.00101822 6.88974e-21 0.00101822)
(0.0010961 -0.000416881 -4.89141e-06 0.0010961 -3.52019e-19 0.0010961)
(0.0010961 -0.000416881 -4.89141e-06 0.0010961 9.59878e-21 0.0010961)
(0.00117666 -0.000458473 -5.45479e-06 0.00117666 -3.729e-19 0.00117666)
(0.00117666 -0.000458473 -5.45479e-06 0.00117666 1.3214e-20 0.00117666)
(0.0012597 -0.000501819 -6.05424e-06 0.0012597 -3.92326e-19 0.0012597)
(0.0012597 -0.000501819 -6.05424e-06 0.0012597 1.75399e-20 0.0012597)
(0.00134498 -0.000546734 -6.68871e-06 0.00134498 -4.09867e-19 0.00134498)
(0.00134498 -0.000546734 -6.68871e-06 0.00134498 2.21968e-20 0.00134498)
(0.00143225 -0.000593015 -7.3569e-06 0.00143225 -4.25818e-19 0.00143225)
(0.00143225 -0.000593015 -7.3569e-06 0.00143225 2.77521e-20 0.00143225)
(0.00152124 -0.000640452 -8.05727e-06 0.00152124 -4.40153e-19 0.00152124)
(0.00152124 -0.000640452 -8.05727e-06 0.00152124 3.42047e-20 0.00152124)
(0.00161168 -0.000688828 -8.78808e-06 0.00161168 -4.52911e-19 0.00161168)
(0.00161168 -0.000688828 -8.78808e-06 0.00161168 4.13564e-20 0.00161168)
(0.00170329 -0.000737923 -9.54746e-06 0.00170329 -4.63955e-19 0.00170329)
(0.00170329 -0.000737923 -9.54746e-06 0.00170329 4.89269e-20 0.00170329)
(0.0017958 -0.000787523 -1.03335e-05 0.0017958 -4.7452e-19 0.0017958)
(0.0017958 -0.000787523 -1.03335e-05 0.0017958 5.6432e-20 0.0017958)
(0.00188893 -0.000837419 -1.11441e-05 0.00188893 -4.83972e-19 0.00188893)
(0.00188893 -0.000837419 -1.11441e-05 0.00188893 6.41678e-20 0.00188893)
(0.00198242 -0.000887412 -1.19773e-05 0.00198242 -4.92029e-19 0.00198242)
(0.00198242 -0.000887412 -1.19773e-05 0.00198242 7.25606e-20 0.00198242)
(0.002076 -0.000937316 -1.2831e-05 0.002076 -5.00392e-19 0.002076)
(0.002076 -0.000937316 -1.2831e-05 0.002076 8.17728e-20 0.002076)
(0.00216944 -0.000986957 -1.37035e-05 0.00216944 -5.08121e-19 0.00216944)
(0.00216944 -0.000986957 -1.37035e-05 0.00216944 9.00899e-20 0.00216944)
(0.00226249 -0.00103618 -1.45927e-05 0.00226249 -5.15586e-19 0.00226249)
(0.00226249 -0.00103618 -1.45927e-05 0.00226249 9.9407e-20 0.00226249)
(0.00235495 -0.00108484 -1.5497e-05 0.00235495 -5.24785e-19 0.00235495)
(0.00235495 -0.00108484 -1.5497e-05 0.00235495 1.09726e-19 0.00235495)
(0.00244661 -0.00113282 -1.64147e-05 0.00244661 -5.3588e-19 0.00244661)
(0.00244661 -0.00113282 -1.64147e-05 0.00244661 1.21144e-19 0.00244661)
(0.00253728 -0.00118 -1.73444e-05 0.00253728 -2.01174e-19 0.00253728)
(0.00253728 -0.00118 -1.73444e-05 0.00253728 1.33438e-19 0.00253728)
(0.00262682 -0.00122629 -1.82845e-05 0.00262682 1.84184e-21 0.00262682)
(0.00262682 -0.00122629 -1.82845e-05 0.00262682 1.42064e-19 0.00262682)
(0.00271506 -0.00127162 -1.9234e-05 0.00271506 4.96014e-19 0.00271506)
(0.00271506 -0.00127162 -1.9234e-05 0.00271506 1.48548e-19 0.00271506)
(0.00280188 -0.00131591 -2.01917e-05 0.00280188 5.30574e-19 0.00280188)
(0.00280188 -0.00131591 -2.01917e-05 0.00280188 1.596e-19 0.00280188)
(0.00288716 -0.00135912 -2.11566e-05 0.00288716 5.59913e-19 0.00288716)
(0.00288716 -0.00135912 -2.11566e-05 0.00288716 1.72947e-19 0.00288716)
(0.0029708 -0.00140121 -2.21279e-05 0.0029708 5.84396e-19 0.0029708)
(0.0029708 -0.00140121 -2.21279e-05 0.0029708 1.85338e-19 0.0029708)
(0.00305273 -0.00144215 -2.31049e-05 0.00305273 6.08784e-19 0.00305273)
(0.00305273 -0.00144215 -2.31049e-05 0.00305273 1.97119e-19 0.00305273)
(0.00313288 -0.00148191 -2.40868e-05 0.00313288 6.28314e-19 0.00313288)
(0.00313288 -0.00148191 -2.40868e-05 0.00313288 2.04612e-19 0.00313288)
(0.00321118 -0.0015205 -2.50732e-05 0.00321118 6.42647e-19 0.00321118)
(0.00321118 -0.0015205 -2.50732e-05 0.00321118 2.12222e-19 0.00321118)
(0.00328759 -0.00155789 -2.60637e-05 0.00328759 6.53892e-19 0.00328759)
(0.00328759 -0.00155789 -2.60637e-05 0.00328759 2.31144e-19 0.00328759)
(0.0033621 -0.0015941 -2.70579e-05 0.0033621 6.66174e-19 0.0033621)
(0.0033621 -0.0015941 -2.70579e-05 0.0033621 2.51699e-19 0.0033621)
(0.00343466 -0.00162914 -2.80556e-05 0.00343466 6.93045e-19 0.00343466)
(0.00343466 -0.00162914 -2.80556e-05 0.00343466 2.59609e-19 0.00343466)
(0.00350527 -0.00166301 -2.90565e-05 0.00350527 8.25315e-19 0.00350527)
(0.00350527 -0.00166301 -2.90565e-05 0.00350527 2.70443e-19 0.00350527)
(0.00357392 -0.00169573 -3.00606e-05 0.00357392 9.37083e-19 0.00357392)
(0.00357392 -0.00169573 -3.00606e-05 0.00357392 2.88931e-19 0.00357392)
(0.00364062 -0.00172733 -3.10676e-05 0.00364062 9.39147e-19 0.00364062)
(0.00364062 -0.00172733 -3.10676e-05 0.00364062 2.99421e-19 0.00364062)
(0.00370538 -0.00175782 -3.20777e-05 0.00370538 9.66443e-19 0.00370538)
(0.00370538 -0.00175782 -3.20777e-05 0.00370538 3.1875e-19 0.00370538)
(0.0037682 -0.00178723 -3.30909e-05 0.0037682 9.94455e-19 0.0037682)
(0.0037682 -0.00178723 -3.30909e-05 0.0037682 3.27703e-19 0.0037682)
(0.00382911 -0.00181558 -3.4107e-05 0.00382911 9.9921e-19 0.00382911)
(0.00382911 -0.00181558 -3.4107e-05 0.00382911 2.49498e-19 0.00382911)
(0.00388812 -0.0018429 -3.51264e-05 0.00388812 1.00177e-18 0.00388812)
(0.00388812 -0.0018429 -3.51264e-05 0.00388812 -1.92491e-21 0.00388812)
(0.00394528 -0.00186921 -3.6149e-05 0.00394528 1.01361e-18 0.00394528)
(0.00394528 -0.00186921 -3.6149e-05 0.00394528 -1.01879e-20 0.00394528)
(0.00400059 -0.00189456 -3.7175e-05 0.00400059 1.02024e-18 0.00400059)
(0.00400059 -0.00189456 -3.7175e-05 0.00400059 1.82096e-20 0.00400059)
(0.00405411 -0.00191896 -3.82045e-05 0.00405411 1.02581e-18 0.00405411)
(0.00405411 -0.00191896 -3.82045e-05 0.00405411 3.12687e-20 0.00405411)
(0.00410585 -0.00194244 -3.92378e-05 0.00410585 1.03101e-18 0.00410585)
(0.00410585 -0.00194244 -3.92378e-05 0.00410585 8.95016e-21 0.00410585)
(0.00415586 -0.00196503 -4.0275e-05 0.00415586 1.02655e-18 0.00415586)
(0.00415586 -0.00196503 -4.0275e-05 0.00415586 8.56814e-22 0.00415586)
(0.00420417 -0.00198676 -4.13162e-05 0.00420417 1.01523e-18 0.00420417)
(0.00420417 -0.00198676 -4.13162e-05 0.00420417 1.19956e-20 0.00420417)
(0.00425082 -0.00200766 -4.23618e-05 0.00425082 1.01838e-18 0.00425082)
(0.00425082 -0.00200766 -4.23618e-05 0.00425082 1.05327e-20 0.00425082)
(0.00429584 -0.00202775 -4.34119e-05 0.00429584 1.00781e-18 0.00429584)
(0.00429584 -0.00202775 -4.34119e-05 0.00429584 1.28471e-20 0.00429584)
(0.00433928 -0.00204706 -4.44668e-05 0.00433928 9.92225e-19 0.00433928)
(0.00433928 -0.00204706 -4.44668e-05 0.00433928 3.25774e-20 0.00433928)
(0.00438117 -0.00206562 -4.55266e-05 0.00438117 9.99833e-19 0.00438117)
(0.00438117 -0.00206562 -4.55266e-05 0.00438117 4.37587e-20 0.00438117)
(0.00442154 -0.00208345 -4.65916e-05 0.00442154 1.01735e-18 0.00442154)
(0.00442154 -0.00208345 -4.65916e-05 0.00442154 2.48237e-20 0.00442154)
(0.00446045 -0.00210057 -4.76621e-05 0.00446045 1.00211e-18 0.00446045)
(0.00446045 -0.00210057 -4.76621e-05 0.00446045 1.63716e-20 0.00446045)
(0.00449792 -0.00211701 -4.87382e-05 0.00449792 9.42859e-19 0.00449792)
(0.00449792 -0.00211701 -4.87382e-05 0.00449792 3.70405e-21 0.00449792)
(0.00453399 -0.0021328 -4.98202e-05 0.00453399 9.38527e-19 0.00453399)
(0.00453399 -0.0021328 -4.98202e-05 0.00453399 7.13097e-20 0.00453399)
(0.00456869 -0.00214794 -5.09083e-05 0.00456869 9.84558e-19 0.00456869)
(0.00456869 -0.00214794 -5.09083e-05 0.00456869 9.74768e-20 0.00456869)
(0.00460208 -0.00216248 -5.20028e-05 0.00460208 9.81127e-19 0.00460208)
(0.00460208 -0.00216248 -5.20028e-05 0.00460208 7.35476e-20 0.00460208)
(0.00463417 -0.00217641 -5.31038e-05 0.00463417 9.34502e-19 0.00463417)
(0.00463417 -0.00217641 -5.31038e-05 0.00463417 6.97041e-20 0.00463417)
(0.004665 -0.00218977 -5.42117e-05 0.004665 9.27594e-19 0.004665)
(0.004665 -0.00218977 -5.42117e-05 0.004665 6.70989e-20 0.004665)
(0.00469461 -0.00220258 -5.53265e-05 0.00469461 9.5492e-19 0.00469461)
(0.00469461 -0.00220258 -5.53265e-05 0.00469461 7.80757e-20 0.00469461)
(0.00472302 -0.00221485 -5.64487e-05 0.00472302 9.17848e-19 0.00472302)
(0.00472302 -0.00221485 -5.64487e-05 0.00472302 1.15275e-19 0.00472302)
(0.00475028 -0.00222659 -5.75782e-05 0.00475028 8.78831e-19 0.00475028)
(0.00475028 -0.00222659 -5.75782e-05 0.00475028 1.35704e-19 0.00475028)
(0.00477641 -0.00223784 -5.87155e-05 0.00477641 8.83982e-19 0.00477641)
(0.00477641 -0.00223784 -5.87155e-05 0.00477641 1.23874e-19 0.00477641)
(0.00480143 -0.00224859 -5.98607e-05 0.00480143 9.16369e-19 0.00480143)
(0.00480143 -0.00224859 -5.98607e-05 0.00480143 1.68516e-19 0.00480143)
(0.00482539 -0.00225887 -6.10139e-05 0.00482539 9.32013e-19 0.00482539)
(0.00482539 -0.00225887 -6.10139e-05 0.00482539 2.2618e-19 0.00482539)
(0.00484831 -0.0022687 -6.21755e-05 0.00484831 8.65766e-19 0.00484831)
(0.00484831 -0.0022687 -6.21755e-05 0.00484831 1.94222e-19 0.00484831)
(0.00487021 -0.00227808 -6.33455e-05 0.00487021 7.8742e-19 0.00487021)
(0.00487021 -0.00227808 -6.33455e-05 0.00487021 1.66328e-19 0.00487021)
(0.00489112 -0.00228703 -6.45243e-05 0.00489112 7.31811e-19 0.00489112)
(0.00489112 -0.00228703 -6.45243e-05 0.00489112 2.23407e-19 0.00489112)
(0.00491107 -0.00229556 -6.57119e-05 0.00491107 7.27474e-19 0.00491107)
(0.00491107 -0.00229556 -6.57119e-05 0.00491107 2.93244e-19 0.00491107)
(0.00493008 -0.00230368 -6.69086e-05 0.00493008 7.58866e-19 0.00493008)
(0.00493008 -0.00230368 -6.69086e-05 0.00493008 2.43195e-19 0.00493008)
(0.00494818 -0.00231141 -6.81145e-05 0.00494818 7.31724e-19 0.00494818)
(0.00494818 -0.00231141 -6.81145e-05 0.00494818 2.5703e-19 0.00494818)
(0.00496538 -0.00231876 -6.93299e-05 0.00496538 6.94874e-19 0.00496538)
(0.00496538 -0.00231876 -6.93299e-05 0.00496538 3.03024e-19 0.00496538)
(0.00498172 -0.00232574 -7.0555e-05 0.00498172 6.56401e-19 0.00498172)
(0.00498172 -0.00232574 -7.0555e-05 0.00498172 3.31635e-19 0.00498172)
(0.00499721 -0.00233236 -7.17898e-05 0.00499721 5.61079e-19 0.00499721)
(0.00499721 -0.00233236 -7.17898e-05 0.00499721 3.04618e-19 0.00499721)
(0.00501187 -0.00233862 -7.30345e-05 0.00501187 6.10488e-19 0.00501187)
(0.00501187 -0.00233862 -7.30345e-05 0.00501187 3.16638e-19 0.00501187)
(0.00502573 -0.00234455 -7.42894e-05 0.00502573 6.46053e-19 0.00502573)
(0.00502573 -0.00234455 -7.42894e-05 0.00502573 3.70669e-19 0.00502573)
(0.0050388 -0.00235014 -7.55545e-05 0.0050388 5.25965e-19 0.0050388)
(0.0050388 -0.00235014 -7.55545e-05 0.0050388 4.50144e-19 0.0050388)
(0.0050511 -0.0023554 -7.68301e-05 0.0050511 4.63162e-19 0.0050511)
(0.0050511 -0.0023554 -7.68301e-05 0.0050511 4.03391e-19 0.0050511)
(0.00506265 -0.00236035 -7.81162e-05 0.00506265 4.37125e-19 0.00506265)
(0.00506265 -0.00236035 -7.81162e-05 0.00506265 4.17089e-19 0.00506265)
(0.00507347 -0.00236499 -7.94131e-05 0.00507347 3.78327e-19 0.00507347)
(0.00507347 -0.00236499 -7.94131e-05 0.00507347 4.43234e-19 0.00507347)
(0.00508357 -0.00236933 -8.07208e-05 0.00508357 2.92005e-19 0.00508357)
(0.00508357 -0.00236933 -8.07208e-05 0.00508357 4.62016e-19 0.00508357)
(0.00509297 -0.00237338 -8.20396e-05 0.00509297 1.92038e-19 0.00509297)
(0.00509297 -0.00237338 -8.20396e-05 0.00509297 4.50411e-19 0.00509297)
(0.00510169 -0.00237714 -8.33695e-05 0.00510169 1.09617e-19 0.00510169)
(0.00510169 -0.00237714 -8.33695e-05 0.00510169 5.07411e-19 0.00510169)
(0.00510974 -0.00238062 -8.47106e-05 0.00510974 1.50675e-19 0.00510974)
(0.00510974 -0.00238062 -8.47106e-05 0.00510974 6.54291e-19 0.00510974)
(0.00511713 -0.00238383 -8.60632e-05 0.00511713 2.70212e-19 0.00511713)
(0.00511713 -0.00238383 -8.60632e-05 0.00511713 7.29548e-19 0.00511713)
(0.00512388 -0.00238677 -8.74273e-05 0.00512388 2.98906e-19 0.00512388)
(0.00512388 -0.00238677 -8.74273e-05 0.00512388 6.56193e-19 0.00512388)
(0.00513001 -0.00238944 -8.88031e-05 0.00513001 2.98025e-19 0.00513001)
(0.00513001 -0.00238944 -8.88031e-05 0.00513001 5.82915e-19 0.00513001)
(0.00513552 -0.00239187 -9.01906e-05 0.00513552 3.05189e-19 0.00513552)
(0.00513552 -0.00239187 -9.01906e-05 0.00513552 6.0207e-19 0.00513552)
(0.00514043 -0.00239404 -9.15901e-05 0.00514043 2.77524e-19 0.00514043)
(0.00514043 -0.00239404 -9.15901e-05 0.00514043 8.73369e-19 0.00514043)
(0.00514476 -0.00239596 -9.30015e-05 0.00514476 6.15835e-19 0.00514476)
(0.00514476 -0.00239596 -9.30015e-05 0.00514476 1.05187e-18 0.00514476)
(0.0051485 -0.00239764 -9.4425e-05 0.0051485 6.20828e-19 0.0051485)
(0.0051485 -0.00239764 -9.4425e-05 0.0051485 8.55602e-19 0.0051485)
(0.00515168 -0.00239909 -9.58607e-05 0.00515168 6.51199e-19 0.00515168)
(0.00515168 -0.00239909 -9.58607e-05 0.00515168 8.70745e-19 0.00515168)
(0.00515431 -0.00240031 -9.73087e-05 0.00515431 8.28122e-19 0.00515431)
(0.00515431 -0.00240031 -9.73087e-05 0.00515431 1.05446e-18 0.00515431)
(0.00515639 -0.0024013 -9.87691e-05 0.00515639 6.83497e-19 0.00515639)
(0.00515639 -0.0024013 -9.87691e-05 0.00515639 1.01464e-18 0.00515639)
(0.00515794 -0.00240206 -0.000100242 0.00515794 8.17549e-19 0.00515794)
(0.00515794 -0.00240206 -0.000100242 0.00515794 9.40652e-19 0.00515794)
(0.00515896 -0.00240261 -0.000101728 0.00515896 1.10323e-18 0.00515896)
(0.00515896 -0.00240261 -0.000101728 0.00515896 1.2415e-18 0.00515896)
(0.00515948 -0.00240294 -0.000103226 0.00515948 1.42325e-18 0.00515948)
(0.00515948 -0.00240294 -0.000103226 0.00515948 1.4893e-18 0.00515948)
(0.00515949 -0.00240306 -0.000104737 0.00515949 1.22665e-18 0.00515949)
(0.00515949 -0.00240306 -0.000104737 0.00515949 1.28852e-18 0.00515949)
(0.005159 -0.00240298 -0.00010626 0.005159 1.05135e-18 0.005159)
(0.005159 -0.00240298 -0.00010626 0.005159 1.29083e-18 0.005159)
(0.00515803 -0.00240269 -0.000107797 0.00515803 1.45965e-18 0.00515803)
(0.00515803 -0.00240269 -0.000107797 0.00515803 1.55207e-18 0.00515803)
(0.00515658 -0.00240219 -0.000109346 0.00515658 1.80554e-18 0.00515658)
(0.00515658 -0.00240219 -0.000109346 0.00515658 1.49322e-18 0.00515658)
(0.00515466 -0.0024015 -0.000110909 0.00515466 1.65782e-18 0.00515466)
(0.00515466 -0.0024015 -0.000110909 0.00515466 1.50039e-18 0.00515466)
(0.00515229 -0.00240062 -0.000112485 0.00515229 1.59438e-18 0.00515229)
(0.00515229 -0.00240062 -0.000112485 0.00515229 1.74793e-18 0.00515229)
(0.00514946 -0.00239954 -0.000114074 0.00514946 1.92395e-18 0.00514946)
(0.00514946 -0.00239954 -0.000114074 0.00514946 1.85035e-18 0.00514946)
(0.00514618 -0.00239828 -0.000115676 0.00514618 2.21367e-18 0.00514618)
(0.00514618 -0.00239828 -0.000115676 0.00514618 1.79664e-18 0.00514618)
(0.00514247 -0.00239683 -0.000117291 0.00514247 2.23323e-18 0.00514247)
(0.00514247 -0.00239683 -0.000117291 0.00514247 1.80926e-18 0.00514247)
(0.00513832 -0.0023952 -0.00011892 0.00513832 2.19266e-18 0.00513832)
(0.00513832 -0.0023952 -0.00011892 0.00513832 1.98416e-18 0.00513832)
(0.00513376 -0.00239338 -0.000120562 0.00513376 2.19986e-18 0.00513376)
(0.00513376 -0.00239338 -0.000120562 0.00513376 6.98285e-19 0.00513376)
(0.00512878 -0.00239139 -0.000122217 0.00512878 1.99186e-18 0.00512878)
(0.00512878 -0.00239139 -0.000122217 0.00512878 -6.05336e-19 0.00512878)
(0.00512339 -0.00238922 -0.000123886 0.00512339 1.96467e-18 0.00512339)
(0.00512339 -0.00238922 -0.000123886 0.00512339 -4.75485e-19 0.00512339)
(0.00511759 -0.00238688 -0.000125568 0.00511759 2.24406e-18 0.00511759)
(0.00511759 -0.00238688 -0.000125568 0.00511759 -4.76365e-19 0.00511759)
(0.0051114 -0.00238437 -0.000127264 0.0051114 1.98731e-18 0.0051114)
(0.0051114 -0.00238437 -0.000127264 0.0051114 -5.14098e-19 0.0051114)
(0.00510482 -0.00238169 -0.000128973 0.00510482 1.51737e-18 0.00510482)
(0.00510482 -0.00238169 -0.000128973 0.00510482 -6.91968e-19 0.00510482)
(0.00509786 -0.00237885 -0.000130696 0.00509786 1.3377e-18 0.00509786)
(0.00509786 -0.00237885 -0.000130696 0.00509786 -6.95212e-19 0.00509786)
(0.00509051 -0.00237584 -0.000132433 0.00509051 1.25724e-18 0.00509051)
(0.00509051 -0.00237584 -0.000132433 0.00509051 -6.31457e-20 0.00509051)
(0.0050828 -0.00237267 -0.000134183 0.0050828 1.46513e-18 0.0050828)
(0.0050828 -0.00237267 -0.000134183 0.0050828 1.92893e-19 0.0050828)
(0.00507472 -0.00236934 -0.000135947 0.00507472 1.69901e-18 0.00507472)
(0.00507472 -0.00236934 -0.000135947 0.00507472 -1.13855e-19 0.00507472)
(0.00506627 -0.00236585 -0.000137724 0.00506627 1.50389e-18 0.00506627)
(0.00506627 -0.00236585 -0.000137724 0.00506627 1.46681e-19 0.00506627)
(0.00505748 -0.0023622 -0.000139515 0.00505748 9.71043e-19 0.00505748)
(0.00505748 -0.0023622 -0.000139515 0.00505748 3.63133e-19 0.00505748)
(0.00504833 -0.0023584 -0.00014132 0.00504833 6.04117e-33 0.00504833)
(0.00504833 -0.0023584 -0.00014132 0.00504833 2.49072e-19 0.00504833)
(0.00503883 -0.00235445 -0.000143138 0.00503883 9.08656e-19 0.00503883)
(0.00503883 -0.00235445 -0.000143138 0.00503883 4.88933e-19 0.00503883)
(0.005029 -0.00235035 -0.00014497 0.005029 3.96103e-19 0.005029)
(0.005029 -0.00235035 -0.00014497 0.005029 4.33867e-19 0.005029)
(0.00501883 -0.0023461 -0.000146815 0.00501883 5.46391e-20 0.00501883)
(0.00501883 -0.0023461 -0.000146815 0.00501883 -3.4554e-20 0.00501883)
(0.00500833 -0.0023417 -0.000148674 0.00500833 9.42087e-19 0.00500833)
(0.00500833 -0.0023417 -0.000148674 0.00500833 -1.29337e-19 0.00500833)
(0.00499751 -0.00233716 -0.000150546 0.00499751 5.23462e-19 0.00499751)
(0.00499751 -0.00233716 -0.000150546 0.00499751 -3.9129e-19 0.00499751)
(0.00498637 -0.00233247 -0.000152432 0.00498637 2.56055e-19 0.00498637)
(0.00498637 -0.00233247 -0.000152432 0.00498637 -6.05062e-19 0.00498637)
(0.00497491 -0.00232765 -0.000154332 0.00497491 3.41434e-19 0.00497491)
(0.00497491 -0.00232765 -0.000154332 0.00497491 -2.78355e-19 0.00497491)
(0.00496314 -0.00232268 -0.000156245 0.00496314 -6.5272e-20 0.00496314)
(0.00496314 -0.00232268 -0.000156245 0.00496314 3.31398e-20 0.00496314)
(0.00495106 -0.00231757 -0.000158171 0.00495106 -2.30493e-19 0.00495106)
(0.00495106 -0.00231757 -0.000158171 0.00495106 3.14529e-19 0.00495106)
(0.00493868 -0.00231233 -0.000160111 0.00493868 3.22746e-19 0.00493868)
(0.00493868 -0.00231233 -0.000160111 0.00493868 2.26735e-19 0.00493868)
(0.004926 -0.00230694 -0.000162064 0.004926 -1.57664e-19 0.004926)
(0.004926 -0.00230694 -0.000162064 0.004926 1.46289e-19 0.004926)
(0.00491302 -0.00230143 -0.00016403 0.00491302 -8.30668e-19 0.00491302)
(0.00491302 -0.00230143 -0.00016403 0.00491302 4.55398e-19 0.00491302)
(0.00489976 -0.00229578 -0.00016601 0.00489976 -6.11285e-19 0.00489976)
(0.00489976 -0.00229578 -0.00016601 0.00489976 5.76516e-19 0.00489976)
(0.00488621 -0.00229 -0.000168002 0.00488621 -7.34965e-20 0.00488621)
(0.00488621 -0.00229 -0.000168002 0.00488621 5.12791e-19 0.00488621)
(0.00487238 -0.00228409 -0.000170008 0.00487238 -8.44007e-19 0.00487238)
(0.00487238 -0.00228409 -0.000170008 0.00487238 7.37586e-19 0.00487238)
(0.00485827 -0.00227805 -0.000172026 0.00485827 -7.60896e-19 0.00485827)
(0.00485827 -0.00227805 -0.000172026 0.00485827 9.72221e-19 0.00485827)
(0.00484389 -0.00227188 -0.000174058 0.00484389 -6.72471e-19 0.00484389)
(0.00484389 -0.00227188 -0.000174058 0.00484389 1.17047e-18 0.00484389)
(0.00482923 -0.00226559 -0.000176102 0.00482923 -9.55025e-19 0.00482923)
(0.00482923 -0.00226559 -0.000176102 0.00482923 1.46083e-18 0.00482923)
(0.00481431 -0.00225917 -0.000178159 0.00481431 -4.17632e-19 0.00481431)
(0.00481431 -0.00225917 -0.000178159 0.00481431 1.26117e-18 0.00481431)
(0.00479912 -0.00225262 -0.000180228 0.00479912 -1.8467e-20 0.00479912)
(0.00479912 -0.00225262 -0.000180228 0.00479912 7.98174e-19 0.00479912)
(0.00478368 -0.00224596 -0.00018231 0.00478368 -4.33955e-19 0.00478368)
(0.00478368 -0.00224596 -0.00018231 0.00478368 8.56885e-19 0.00478368)
(0.00476797 -0.00223917 -0.000184404 0.00476797 -5.29841e-19 0.00476797)
(0.00476797 -0.00223917 -0.000184404 0.00476797 8.00512e-19 0.00476797)
(0.00475202 -0.00223226 -0.00018651 0.00475202 -2.59643e-19 0.00475202)
(0.00475202 -0.00223226 -0.00018651 0.00475202 7.09094e-19 0.00475202)
(0.00473581 -0.00222523 -0.000188628 0.00473581 4.52949e-19 0.00473581)
(0.00473581 -0.00222523 -0.000188628 0.00473581 7.88873e-19 0.00473581)
(0.00471936 -0.00221808 -0.000190758 0.00471936 2.70241e-19 0.00471936)
(0.00471936 -0.00221808 -0.000190758 0.00471936 1.44229e-19 0.00471936)
(0.00470267 -0.00221082 -0.0001929 0.00470267 1.98197e-19 0.00470267)
(0.00470267 -0.00221082 -0.0001929 0.00470267 2.51631e-19 0.00470267)
(0.00468573 -0.00220344 -0.000195054 0.00468573 -3.25382e-20 0.00468573)
(0.00468573 -0.00220344 -0.000195054 0.00468573 4.79212e-19 0.00468573)
(0.00466856 -0.00219594 -0.000197218 0.00466856 -2.88734e-19 0.00466856)
(0.00466856 -0.00219594 -0.000197218 0.00466856 2.16986e-21 0.00466856)
(0.00465115 -0.00218833 -0.000199394 0.00465115 5.8687e-19 0.00465115)
(0.00465115 -0.00218833 -0.000199394 0.00465115 -6.6146e-19 0.00465115)
(0.00463351 -0.0021806 -0.000201581 0.00463351 3.82489e-19 0.00463351)
(0.00463351 -0.0021806 -0.000201581 0.00463351 -5.60626e-19 0.00463351)
(0.00461564 -0.00217276 -0.000203778 0.00461564 -3.06416e-19 0.00461564)
(0.00461564 -0.00217276 -0.000203778 0.00461564 6.72312e-19 0.00461564)
(0.00459754 -0.00216481 -0.000205986 0.00459754 -2.89753e-19 0.00459754)
(0.00459754 -0.00216481 -0.000205986 0.00459754 2.32779e-19 0.00459754)
(0.00457922 -0.00215675 -0.000208204 0.00457922 5.04598e-19 0.00457922)
(0.00457922 -0.00215675 -0.000208204 0.00457922 -1.57831e-18 0.00457922)
(0.00456068 -0.00214858 -0.000210433 0.00456068 -7.98207e-19 0.00456068)
(0.00456068 -0.00214858 -0.000210433 0.00456068 -5.44368e-19 0.00456068)
(0.00454192 -0.00214029 -0.000212671 0.00454192 -9.40237e-19 0.00454192)
(0.00454192 -0.00214029 -0.000212671 0.00454192 1.3504e-18 0.00454192)
(0.00452295 -0.0021319 -0.000214918 0.00452295 2.97301e-19 0.00452295)
(0.00452295 -0.0021319 -0.000214918 0.00452295 1.47717e-19 0.00452295)
(0.00450376 -0.0021234 -0.000217175 0.00450376 -9.5052e-19 0.00450376)
(0.00450376 -0.0021234 -0.000217175 0.00450376 -8.24772e-19 0.00450376)