/*--------------------------------*- C++ -*----------------------------------*\
| =========                 |                                                 |
| \\      /  F ield         | OpenFOAM: The Open Source CFD Toolbox           |
|  \\    /   O peration     | Version:  2106                                  |
|   \\  /    A nd           | Website:  www.openfoam.com                      |
|    \\/     M anipulation  |                                                 |
\*---------------------------------------------------------------------------*/
FoamFile
{
    version     2.0;
    format      ascii;
    arch        "LSB;label=32;scalar=64";
    class       surfaceScalarField;
    location    "12000";
    object      phi;
}
// * * * * * * * * * * * * * * * * * * * * * * * * * * * * * * * * * * * * * //

dimensions      [0 3 -1 0 0 0 0];

oriented        oriented;

internalField   nonuniform List<scalar> 
5116
(
1.12444e-07
-9.2139e-18
-3.39239e-21
-6.52569e-21
-2.65081e-22
3.43862e-07
-9.18365e-18
-1.08011e-20
-2.3582e-20
-2.21298e-21
5.85311e-07
-9.1523e-18
-1.12344e-20
-4.13656e-20
-2.30727e-21
8.36897e-07
-9.11975e-18
-1.16652e-20
-5.96653e-20
-2.3998e-21
1.09803e-06
-9.08625e-18
-1.20311e-20
-7.88817e-20
-2.47956e-21
1.36661e-06
-9.05235e-18
-1.22413e-20
-9.80951e-20
-2.52755e-21
1.63833e-06
-9.01819e-18
-1.21963e-20
-1.17422e-19
-2.5229e-21
1.9072e-06
-8.98528e-18
-1.18501e-20
-1.35976e-19
-2.45579e-21
2.16727e-06
-8.95427e-18
-1.12483e-20
-1.5421e-19
-2.33544e-21
2.41447e-06
-8.92424e-18
-1.04989e-20
-1.70683e-19
-2.18407e-21
2.64724e-06
-8.89685e-18
-9.71081e-21
-1.86588e-19
-2.02424e-21
2.86587e-06
-8.87198e-18
-8.95773e-21
-2.00097e-19
-1.87126e-21
3.07171e-06
-8.84979e-18
-8.27575e-21
-2.13225e-19
-1.73273e-21
3.26649e-06
-8.82807e-18
-7.67566e-21
-2.25237e-19
-1.61097e-21
3.45192e-06
-8.808e-18
-7.15501e-21
-2.36588e-19
-1.50552e-21
3.62958e-06
-8.78926e-18
-6.7058e-21
-2.46717e-19
-1.41479e-21
3.80083e-06
-8.77174e-18
-6.31853e-21
-2.56853e-19
-1.33684e-21
3.96682e-06
-8.75536e-18
-5.98405e-21
-2.66317e-19
-1.26981e-21
4.12852e-06
-8.74161e-18
-5.69424e-21
-2.74371e-19
-1.21201e-21
4.28676e-06
-8.72694e-18
-5.44211e-21
-2.82658e-19
-1.16203e-21
4.44222e-06
-8.71352e-18
-5.22193e-21
-2.89826e-19
-1.11868e-21
4.5955e-06
-8.69859e-18
-5.02886e-21
-2.98269e-19
-1.08097e-21
4.74708e-06
-8.6851e-18
-4.85897e-21
-3.06287e-19
-1.04805e-21
4.89739e-06
-8.67124e-18
-4.70894e-21
-3.14277e-19
-1.01925e-21
5.04681e-06
-8.65711e-18
-4.57605e-21
-3.2255e-19
-9.93991e-22
5.19566e-06
-8.64423e-18
-4.45801e-21
-3.29436e-19
-9.71791e-22
5.3442e-06
-8.63296e-18
-4.35288e-21
-3.36316e-19
-9.52298e-22
5.4927e-06
-8.62077e-18
-4.25905e-21
-3.42604e-19
-9.35172e-22
5.64137e-06
-8.6091e-18
-4.17517e-21
-3.48809e-19
-9.20113e-22
5.79041e-06
-8.5983e-18
-4.10013e-21
-3.54899e-19
-9.06849e-22
5.93999e-06
-8.58649e-18
-4.0329e-21
-3.60096e-19
-8.95193e-22
6.09028e-06
-8.57437e-18
-3.97262e-21
-3.67789e-19
-8.85049e-22
6.24142e-06
-8.56567e-18
-3.91865e-21
-3.72265e-19
-8.76178e-22
6.39355e-06
-8.55421e-18
-3.87026e-21
-3.77943e-19
-8.68526e-22
6.54679e-06
-8.54266e-18
-3.82697e-21
-3.84615e-19
-8.619e-22
6.70126e-06
-8.53252e-18
-3.78831e-21
-3.90626e-19
-8.56214e-22
6.85706e-06
-8.52178e-18
-3.75381e-21
-3.96179e-19
-8.51346e-22
7.0143e-06
-8.51332e-18
-3.72313e-21
-3.99298e-19
-8.47229e-22
7.17307e-06
-8.50332e-18
-3.69593e-21
-4.04569e-19
-8.43798e-22
7.33346e-06
-8.49307e-18
-3.67192e-21
-4.09784e-19
-8.41006e-22
7.49556e-06
-8.48327e-18
-3.65085e-21
-4.15223e-19
-8.38809e-22
7.65945e-06
-8.47192e-18
-3.63246e-21
-4.23053e-19
-8.37162e-22
7.82522e-06
-8.45976e-18
-3.61662e-21
-4.31477e-19
-8.35925e-22
7.99293e-06
-8.44746e-18
-3.60312e-21
-4.38893e-19
-8.3502e-22
8.16267e-06
-8.44011e-18
-3.59188e-21
-4.44182e-19
-8.34554e-22
8.3345e-06
-8.43146e-18
-3.58258e-21
-4.46348e-19
-8.34444e-22
8.50849e-06
-8.42308e-18
-3.57525e-21
-4.5044e-19
-8.34712e-22
8.68473e-06
-8.41401e-18
-3.56971e-21
-4.55296e-19
-8.35286e-22
8.86326e-06
-8.40537e-18
-3.56585e-21
-4.60967e-19
-8.36083e-22
9.04416e-06
-8.39863e-18
-3.56352e-21
-4.65599e-19
-8.37031e-22
9.2275e-06
-8.3888e-18
-3.56257e-21
-4.68488e-19
-8.38147e-22
9.41334e-06
-8.37943e-18
-3.563e-21
-4.72848e-19
-8.39567e-22
9.60174e-06
-8.37078e-18
-3.56473e-21
-4.77028e-19
-8.41255e-22
9.79277e-06
-8.3612e-18
-3.56759e-21
-4.82579e-19
-8.43109e-22
9.98649e-06
-8.35026e-18
-3.57159e-21
-4.89328e-19
-8.45104e-22
1.0183e-05
-8.33991e-18
-3.57679e-21
-4.94368e-19
-8.47102e-22
1.03823e-05
-8.3337e-18
-3.58317e-21
-5.00592e-19
-8.49028e-22
1.05844e-05
-8.32336e-18
-3.59045e-21
-5.04905e-19
-8.50958e-22
1.07895e-05
-8.31377e-18
-3.59876e-21
-5.11312e-19
-8.52964e-22
1.09977e-05
-8.3039e-18
-3.60808e-21
-5.17329e-19
-8.54893e-22
1.12089e-05
-8.29457e-18
-3.61841e-21
-5.21047e-19
-8.5681e-22
1.14232e-05
-8.28457e-18
-3.62959e-21
-5.24125e-19
-8.58801e-22
1.16407e-05
-8.27539e-18
-3.64169e-21
-5.30979e-19
-8.61008e-22
1.18615e-05
-8.26403e-18
-3.65452e-21
-5.32937e-19
-8.63212e-22
1.20856e-05
-8.25236e-18
-3.66802e-21
-5.41227e-19
-8.65778e-22
1.23131e-05
-8.24111e-18
-3.68234e-21
-5.47367e-19
-8.68293e-22
1.25441e-05
-8.23109e-18
-3.69744e-21
-5.54016e-19
-8.70792e-22
1.27786e-05
-8.22128e-18
-3.71317e-21
-5.60152e-19
-8.7357e-22
1.30166e-05
-8.21346e-18
-3.72949e-21
-5.67208e-19
-8.76232e-22
1.32583e-05
-8.19885e-18
-3.74634e-21
-5.74873e-19
-8.7888e-22
1.35038e-05
-8.18744e-18
-3.76398e-21
-5.81984e-19
-8.81485e-22
1.3753e-05
-8.17748e-18
-3.78227e-21
-5.88738e-19
-8.84145e-22
1.40061e-05
-8.16561e-18
-3.80109e-21
-5.95976e-19
-8.86883e-22
1.42632e-05
-8.1556e-18
-3.82057e-21
-6.01338e-19
-8.8958e-22
1.45242e-05
-8.14436e-18
-3.84055e-21
-6.08719e-19
-8.92316e-22
1.47893e-05
-8.12881e-18
-3.86109e-21
-6.17069e-19
-8.94716e-22
1.50585e-05
-8.12031e-18
-3.88217e-21
-6.25936e-19
-8.97224e-22
1.5332e-05
-8.1096e-18
-3.90328e-21
-6.36639e-19
-8.99856e-22
1.56098e-05
-8.09839e-18
-3.9247e-21
-6.43203e-19
-9.0198e-22
1.58919e-05
-8.08694e-18
-3.94636e-21
-6.52744e-19
-9.04213e-22
1.61785e-05
-8.07277e-18
-3.96905e-21
-6.6259e-19
-9.06071e-22
1.64696e-05
-8.06262e-18
-3.99218e-21
-6.70648e-19
-9.07756e-22
1.67653e-05
-8.05026e-18
-4.01546e-21
-6.80474e-19
-9.09608e-22
1.70656e-05
-8.03383e-18
-4.03895e-21
-6.94132e-19
-9.11109e-22
1.73708e-05
-8.01787e-18
-4.06276e-21
-7.04307e-19
-9.12258e-22
1.76807e-05
-8.00409e-18
-4.08694e-21
-7.12893e-19
-9.1332e-22
1.79956e-05
-7.98778e-18
-4.11135e-21
-7.26069e-19
-9.14725e-22
1.83155e-05
-7.97327e-18
-4.13623e-21
-7.36385e-19
-9.15454e-22
1.86405e-05
-7.95896e-18
-4.16151e-21
-7.47236e-19
-9.15591e-22
1.89706e-05
-7.94907e-18
-4.18771e-21
-7.50284e-19
-9.14458e-22
1.93061e-05
-7.93839e-18
-4.21554e-21
-7.55681e-19
-9.12674e-22
1.96468e-05
-7.92958e-18
-4.24409e-21
-7.5934e-19
-9.10305e-22
1.99931e-05
-7.91943e-18
-4.27299e-21
-7.67637e-19
-9.07061e-22
2.03448e-05
-7.91123e-18
-4.30242e-21
-7.7172e-19
-9.02252e-22
2.07022e-05
-7.89938e-18
-4.33241e-21
-7.77916e-19
-8.96907e-22
2.10653e-05
-7.89127e-18
-4.36364e-21
-7.83411e-19
-8.90813e-22
2.14342e-05
-7.87507e-18
-4.39542e-21
-7.90703e-19
-8.83416e-22
2.1809e-05
-7.85931e-18
-4.42822e-21
-7.99125e-19
-8.74337e-22
2.21898e-05
-7.85025e-18
-4.46194e-21
-8.04152e-19
-8.63783e-22
2.25767e-05
-7.83167e-18
-4.49576e-21
-8.13526e-19
-8.53468e-22
2.29698e-05
-7.8195e-18
-4.53174e-21
-8.19697e-19
-8.42617e-22
2.33693e-05
-7.79839e-18
-4.56786e-21
-8.295e-19
-8.30934e-22
2.37751e-05
-7.78507e-18
-4.60644e-21
-8.41104e-19
-8.19012e-22
2.41875e-05
-7.77016e-18
-4.64594e-21
-8.51749e-19
-8.0529e-22
2.46065e-05
-7.7602e-18
-4.68616e-21
-8.63502e-19
-7.90546e-22
2.50322e-05
-7.74588e-18
-4.72738e-21
-8.71902e-19
-7.74882e-22
2.54648e-05
-7.72988e-18
-4.76886e-21
-8.84925e-19
-7.59088e-22
2.59044e-05
-7.71635e-18
-4.81163e-21
-8.95229e-19
-7.43416e-22
2.6351e-05
-7.70316e-18
-4.85684e-21
-9.05518e-19
-7.26294e-22
2.68048e-05
-7.68943e-18
-4.90265e-21
-9.07047e-19
-7.084e-22
2.72659e-05
-7.6722e-18
-4.94881e-21
-9.20428e-19
-6.9193e-22
2.77344e-05
-7.65759e-18
-4.99584e-21
-9.27864e-19
-6.73941e-22
2.82105e-05
-7.64126e-18
-5.04375e-21
-9.43332e-19
-6.55401e-22
2.86942e-05
-7.62166e-18
-5.09295e-21
-9.53239e-19
-6.35824e-22
2.91857e-05
-7.60568e-18
-5.14356e-21
-9.68775e-19
-6.16134e-22
2.96852e-05
-7.58988e-18
-5.19463e-21
-9.80854e-19
-5.96558e-22
3.01927e-05
-7.57124e-18
-5.24477e-21
-9.9045e-19
-5.76965e-22
3.07084e-05
-7.54349e-18
-5.29601e-21
-9.97386e-19
-5.58353e-22
3.12323e-05
-7.52434e-18
-5.34949e-21
-1.01393e-18
-5.41679e-22
3.17648e-05
-7.50459e-18
-5.4028e-21
-1.02716e-18
-5.22523e-22
3.23058e-05
-7.47362e-18
-5.45578e-21
-1.04695e-18
-5.04855e-22
3.28555e-05
-7.45171e-18
-5.51086e-21
-1.05481e-18
-4.83192e-22
3.34141e-05
-7.43025e-18
-5.5677e-21
-1.0768e-18
-4.62964e-22
3.39817e-05
-7.39581e-18
-5.62272e-21
-1.09075e-18
-4.43489e-22
3.45584e-05
-7.37374e-18
-5.68233e-21
-1.10908e-18
-4.24234e-22
3.51445e-05
-7.34712e-18
-5.74279e-21
-1.13183e-18
-4.01843e-22
3.574e-05
-7.31958e-18
-5.80467e-21
-1.15118e-18
-3.7734e-22
3.6345e-05
-7.30861e-18
-5.86723e-21
-1.14852e-18
-3.52513e-22
3.69599e-05
-7.28024e-18
-5.92513e-21
-1.1589e-18
-3.32823e-22
3.75846e-05
-7.25938e-18
-5.98555e-21
-1.16706e-18
-3.14224e-22
3.82195e-05
-7.24447e-18
-6.04441e-21
-1.17384e-18
-2.98262e-22
3.88645e-05
-7.22905e-18
-6.10139e-21
-1.18198e-18
-2.84632e-22
3.952e-05
-7.21732e-18
-6.15949e-21
-1.1928e-18
-2.72251e-22
4.0186e-05
-7.19204e-18
-6.21702e-21
-1.20137e-18
-2.61707e-22
4.08628e-05
-7.16552e-18
-6.28463e-21
-1.21727e-18
-2.47987e-22
4.15504e-05
-7.14535e-18
-6.3588e-21
-1.22223e-18
-2.32705e-22
4.22492e-05
-7.12512e-18
-6.4382e-21
-1.2404e-18
-2.21167e-22
4.29592e-05
-7.11017e-18
-6.52336e-21
-1.25065e-18
-2.02065e-22
4.36806e-05
-7.09428e-18
-6.60728e-21
-1.2572e-18
-1.8201e-22
4.44137e-05
-7.07392e-18
-6.68709e-21
-1.26618e-18
-1.65853e-22
4.51586e-05
-7.06005e-18
-6.76677e-21
-1.27555e-18
-1.49379e-22
4.59155e-05
-7.04391e-18
-6.83707e-21
-1.29387e-18
-1.33796e-22
4.66846e-05
-7.01532e-18
-6.90483e-21
-1.30842e-18
-1.13324e-22
4.7466e-05
-7.00034e-18
-6.971e-21
-1.32381e-18
-9.90728e-23
4.82601e-05
-6.97638e-18
-7.03123e-21
-1.3455e-18
-8.24897e-23
4.90669e-05
-6.96001e-18
-7.09147e-21
-1.35061e-18
-6.29023e-23
4.98867e-05
-6.93719e-18
-7.15537e-21
-1.36725e-18
-5.38491e-23
5.07198e-05
-6.90662e-18
-7.22375e-21
-1.38236e-18
-4.54873e-23
5.15662e-05
-6.88241e-18
-7.29803e-21
-1.40322e-18
-4.10865e-23
5.24263e-05
-6.86267e-18
-7.37552e-21
-1.4225e-18
-3.92031e-23
5.33002e-05
-6.83866e-18
-7.45797e-21
-1.4466e-18
-3.87013e-23
5.41881e-05
-6.81465e-18
-7.54465e-21
-1.4673e-18
-3.06803e-23
5.50904e-05
-6.78665e-18
-7.63433e-21
-1.49069e-18
-2.35224e-23
5.60071e-05
-6.74358e-18
-7.72696e-21
-1.51478e-18
-1.99705e-23
5.69386e-05
-6.71191e-18
-7.83275e-21
-1.53756e-18
-1.10428e-23
5.78851e-05
-6.69347e-18
-7.95208e-21
-1.56456e-18
4.43726e-24
5.88468e-05
-6.6673e-18
-8.069e-21
-1.58075e-18
2.25968e-23
5.9824e-05
-6.63723e-18
-8.17296e-21
-1.60788e-18
4.81339e-23
6.08169e-05
-6.59446e-18
-8.27945e-21
-1.63475e-18
8.02358e-23
6.18257e-05
-6.55112e-18
-8.394e-21
-1.66809e-18
1.04617e-22
6.28508e-05
-6.49932e-18
-8.50848e-21
-1.69119e-18
1.1846e-22
6.38923e-05
-6.47259e-18
-8.62674e-21
-1.7094e-18
1.36485e-22
6.49506e-05
-6.46776e-18
-8.74584e-21
-1.7255e-18
1.48281e-22
6.60258e-05
-6.40907e-18
-8.83098e-21
-1.77217e-18
1.42245e-22
6.71184e-05
-6.3752e-18
-8.94927e-21
-1.80848e-18
1.4664e-22
6.82284e-05
-6.3446e-18
-9.06277e-21
-1.84295e-18
1.44047e-22
6.93563e-05
-6.2967e-18
-9.17419e-21
-1.87741e-18
1.47732e-22
7.05023e-05
-6.25549e-18
-9.31193e-21
-1.91398e-18
1.40202e-22
7.16667e-05
-6.19957e-18
-9.46575e-21
-1.95312e-18
1.25046e-22
7.28498e-05
-6.16692e-18
-9.63608e-21
-1.98515e-18
1.01919e-22
7.40518e-05
-6.14172e-18
-9.80031e-21
-1.99455e-18
8.11769e-23
7.52732e-05
-6.13095e-18
-9.93622e-21
-2.00558e-18
3.64897e-23
7.65141e-05
-6.0965e-18
-1.00515e-20
-2.0154e-18
-4.55359e-23
7.77749e-05
-6.09173e-18
-1.01578e-20
-2.02947e-18
-1.64826e-22
7.9056e-05
-6.06042e-18
-1.02272e-20
-2.05502e-18
-2.92023e-22
8.03575e-05
-6.03519e-18
-1.03076e-20
-2.07076e-18
-3.92429e-22
8.168e-05
-6.00594e-18
-1.04078e-20
-2.07774e-18
-4.92983e-22
8.30236e-05
-5.972e-18
-1.05241e-20
-2.09695e-18
-5.9935e-22
8.43887e-05
-5.95519e-18
-1.06506e-20
-2.10714e-18
-6.69451e-22
8.57757e-05
-5.9032e-18
-1.07885e-20
-2.12672e-18
-7.07803e-22
8.7185e-05
-5.88048e-18
-1.09725e-20
-2.15109e-18
-7.35913e-22
8.86168e-05
-5.84241e-18
-1.11336e-20
-2.15985e-18
-7.29108e-22
9.00715e-05
-5.81415e-18
-1.13207e-20
-2.17115e-18
-7.20688e-22
9.15494e-05
-5.78286e-18
-1.14991e-20
-2.17896e-18
-7.00882e-22
9.30511e-05
-5.73912e-18
-1.16621e-20
-2.1983e-18
-7.02583e-22
9.45767e-05
-5.7094e-18
-1.18758e-20
-2.19996e-18
-7.41432e-22
9.61268e-05
-5.67757e-18
-1.20678e-20
-2.22497e-18
-8.20278e-22
9.77016e-05
-5.66474e-18
-1.23025e-20
-2.2555e-18
-8.69535e-22
9.93017e-05
-5.62797e-18
-1.24969e-20
-2.26863e-18
-8.67766e-22
0.000100927
-5.61819e-18
-1.27047e-20
-2.29997e-18
-8.7878e-22
0.000102579
-5.58941e-18
-1.28326e-20
-2.31183e-18
-8.67362e-22
0.000104257
-5.55103e-18
-1.29532e-20
-2.33755e-18
-8.98592e-22
0.000105962
-5.51385e-18
-1.3032e-20
-2.36771e-18
-9.73193e-22
0.000107694
-5.48178e-18
-1.30656e-20
-2.39506e-18
-1.01752e-21
0.000109453
-5.45031e-18
-1.30594e-20
-2.41024e-18
-1.05975e-21
0.000111241
-5.42668e-18
-1.2994e-20
-2.43466e-18
-1.17288e-21
0.000113057
-5.3903e-18
-1.29024e-20
-2.4499e-18
-1.28957e-21
0.000114902
-5.3617e-18
-1.27879e-20
-2.48945e-18
-1.35776e-21
0.000116777
-5.32432e-18
-1.2689e-20
-2.50737e-18
-1.42597e-21
0.000118682
-5.28484e-18
-1.26455e-20
-2.54291e-18
-1.48814e-21
0.000120617
-5.2228e-18
-1.25997e-20
-2.56671e-18
-1.49329e-21
0.000122582
-5.1545e-18
-1.26193e-20
-2.5852e-18
-1.5608e-21
0.00012458
-5.10629e-18
-1.27335e-20
-2.60819e-18
-1.69309e-21
0.000126608
-5.06929e-18
-1.2888e-20
-2.63282e-18
-1.80088e-21
0.00012867
-5.04352e-18
-1.31203e-20
-2.676e-18
-1.88205e-21
0.000130764
-5.00308e-18
-1.33213e-20
-2.69536e-18
-1.8405e-21
0.000132891
-4.95385e-18
-1.35256e-20
-2.70167e-18
-1.83734e-21
0.000135053
-4.91413e-18
-1.35837e-20
-2.73008e-18
-1.97336e-21
0.000137248
-4.88808e-18
-1.36389e-20
-2.7527e-18
-2.06888e-21
0.000139479
-4.84405e-18
-1.36533e-20
-2.78968e-18
-2.18734e-21
0.000141745
-4.80195e-18
-1.36618e-20
-2.80313e-18
-2.27359e-21
0.000144047
-4.74195e-18
-1.36637e-20
-2.83389e-18
-2.47657e-21
0.000146386
-4.71242e-18
-1.37917e-20
-2.85478e-18
-2.613e-21
0.000148761
-4.66072e-18
-1.4016e-20
-2.85408e-18
-2.58157e-21
0.000151175
-4.64068e-18
-1.42832e-20
-2.87308e-18
-2.58398e-21
0.000153627
-4.59689e-18
-1.424e-20
-2.89229e-18
-2.72286e-21
0.000156118
-4.54347e-18
-1.41584e-20
-2.9293e-18
-2.76927e-21
0.000158648
-4.50164e-18
-1.4213e-20
-2.93771e-18
-2.81178e-21
0.000161219
-4.48713e-18
-1.44172e-20
-2.95002e-18
-2.88724e-21
0.00016383
-4.45227e-18
-1.4471e-20
-2.95637e-18
-3.01072e-21
0.000166483
-4.40215e-18
-1.453e-20
-2.97994e-18
-3.26662e-21
0.000169177
-4.36033e-18
-1.45131e-20
-3.0016e-18
-3.65769e-21
0.000171915
-4.36656e-18
-1.47134e-20
-3.01319e-18
-3.99636e-21
0.000174696
-4.28643e-18
-1.47815e-20
-3.05406e-18
-4.08274e-21
0.00017752
-4.24498e-18
-1.51307e-20
-3.05508e-18
-4.12868e-21
0.00018039
-4.196e-18
-1.53114e-20
-3.07296e-18
-4.48928e-21
0.000183305
-4.16057e-18
-1.54786e-20
-3.08766e-18
-4.59409e-21
0.000186266
-4.14449e-18
-1.58572e-20
-3.07065e-18
-4.6751e-21
0.000189274
-4.11585e-18
-1.61129e-20
-3.0666e-18
-5.03976e-21
0.000192329
-4.08441e-18
-1.6388e-20
-3.06826e-18
-5.56729e-21
0.000195433
-4.07609e-18
-1.67018e-20
-3.09705e-18
-6.10751e-21
0.000198586
-4.07024e-18
-1.69509e-20
-3.09092e-18
-6.43734e-21
0.000201788
-4.03729e-18
-1.70022e-20
-3.08093e-18
-7.0218e-21
0.000205041
-4.00003e-18
-1.70587e-20
-3.07201e-18
-7.766e-21
0.000208346
-3.96436e-18
-1.7073e-20
-3.0665e-18
-8.31273e-21
0.000211702
-3.92448e-18
-1.70136e-20
-3.0422e-18
-8.69843e-21
0.000215111
-3.89665e-18
-1.69493e-20
-3.03952e-18
-9.02348e-21
0.000218574
-3.86911e-18
-1.65321e-20
-3.01072e-18
-9.56998e-21
0.000222092
-3.83081e-18
-1.62567e-20
-3.03451e-18
-1.06014e-20
0.000225665
-3.79697e-18
-1.60659e-20
-3.04218e-18
-1.13188e-20
0.000229294
-3.75409e-18
-1.57871e-20
-3.01942e-18
-1.17419e-20
0.00023298
-3.7283e-18
-1.53719e-20
-3.03717e-18
-1.25324e-20
0.000236724
-3.70823e-18
-1.50506e-20
-2.98556e-18
-1.27984e-20
0.000240527
-3.7089e-18
-1.47908e-20
-2.98682e-18
-1.30133e-20
0.00024439
-3.73679e-18
-1.42459e-20
-3.00383e-18
-1.2846e-20
0.000248313
-3.71443e-18
-1.3319e-20
-3.00853e-18
-1.20234e-20
0.000252297
-3.65798e-18
-1.14578e-20
-3.00259e-18
-1.16888e-20
0.000256344
-3.54868e-18
-9.70416e-21
-3.01745e-18
-1.19143e-20
0.000260455
-3.48575e-18
-9.34054e-21
-2.98919e-18
-1.17453e-20
0.00026463
-3.42412e-18
-9.58219e-21
-3.0271e-18
-1.18698e-20
0.00026887
-3.37318e-18
-9.74901e-21
-3.07428e-18
-1.16947e-20
0.000273176
-3.34917e-18
-1.08045e-20
-3.05784e-18
-1.10524e-20
0.00027755
-3.3188e-18
-1.1713e-20
-3.12258e-18
-1.04359e-20
0.000281991
-3.29085e-18
-1.24512e-20
-3.13325e-18
-9.9995e-21
0.000286502
-3.31656e-18
-1.47235e-20
-3.08971e-18
-9.78982e-21
0.000291084
-3.26105e-18
-1.51364e-20
-3.12732e-18
-1.0619e-20
0.000295736
-3.26156e-18
-1.5654e-20
-3.10349e-18
-1.1953e-20
0.000300461
-3.2321e-18
-1.67331e-20
-3.14855e-18
-1.36686e-20
0.00030526
-3.21685e-18
-1.78894e-20
-3.16247e-18
-1.39879e-20
0.000310133
-3.20383e-18
-1.82205e-20
-3.14134e-18
-1.46143e-20
0.000315082
-3.21352e-18
-1.94722e-20
-3.14105e-18
-1.4858e-20
0.000320107
-3.16737e-18
-2.00939e-20
-3.1399e-18
-1.53405e-20
0.00032521
-3.19075e-18
-2.04881e-20
-3.15209e-18
-1.67978e-20
0.000330392
-3.17998e-18
-2.02484e-20
-3.18273e-18
-1.84991e-20
0.000335654
-3.15376e-18
-1.98922e-20
-3.13555e-18
-1.84483e-20
0.000340997
-3.07285e-18
-1.84284e-20
-3.13042e-18
-2.00317e-20
0.000346423
-3.07121e-18
-1.81552e-20
-3.12501e-18
-2.17955e-20
0.000351932
-3.0279e-18
-1.95073e-20
-3.14795e-18
-2.23725e-20
0.000357526
-3.10804e-18
-2.13611e-20
-3.00644e-18
-2.13268e-20
0.000363206
-3.05424e-18
-2.12604e-20
-3.03365e-18
-2.2221e-20
0.000368973
-3.01141e-18
-2.17409e-20
-3.01285e-18
-2.2328e-20
0.000374828
-3.01759e-18
-2.20959e-20
-2.99719e-18
-2.29286e-20
0.000380772
-2.96495e-18
-2.10278e-20
-2.98181e-18
-2.36366e-20
0.000386808
-2.98368e-18
-2.12941e-20
-3.00205e-18
-2.40886e-20
0.000392935
-2.95033e-18
-2.04177e-20
-2.98819e-18
-2.34188e-20
0.000399156
-2.8945e-18
-2.00309e-20
-2.86992e-18
-2.06044e-20
0.000405471
-2.88874e-18
-2.06765e-20
-2.89019e-18
-2.1512e-20
0.000411882
-2.81977e-18
-2.11172e-20
-2.84051e-18
-2.27628e-20
0.00041839
-2.78345e-18
-2.36847e-20
-2.87621e-18
-2.36562e-20
0.000424996
-2.8585e-18
-2.5788e-20
-2.8659e-18
-2.23912e-20
0.000431702
-2.93184e-18
-2.53102e-20
-2.77258e-18
-1.98403e-20
0.000438508
-2.85444e-18
-2.2701e-20
-2.77265e-18
-2.12565e-20
0.000445417
-2.83627e-18
-2.19195e-20
-2.77506e-18
-2.48303e-20
0.000452429
-2.8057e-18
-2.12287e-20
-2.76145e-18
-2.63973e-20
0.000459545
-2.78956e-18
-2.1621e-20
-2.75672e-18
-2.58266e-20
0.000466767
-2.77319e-18
-2.12369e-20
-2.70024e-18
-2.6061e-20
0.000474097
-2.71945e-18
-2.23991e-20
-2.69227e-18
-3.00474e-20
0.000481534
-2.72633e-18
-2.46018e-20
-2.69279e-18
-3.51578e-20
0.000489082
-2.61529e-18
-2.41667e-20
-2.65876e-18
-3.51472e-20
0.00049674
-2.7015e-18
-2.72963e-20
-2.59796e-18
-3.33797e-20
0.00050451
-2.61166e-18
-2.82057e-20
-2.49617e-18
-3.43354e-20
0.000512393
-2.516e-18
-3.12092e-20
-2.56107e-18
-4.07927e-20
0.000520391
-2.37209e-18
-3.3542e-20
-2.44587e-18
-3.98178e-20
0.000528504
-2.31666e-18
-3.64419e-20
-2.37772e-18
-3.8524e-20
0.000536734
-2.24731e-18
-3.65483e-20
-2.3215e-18
-3.33341e-20
0.000545082
-2.18117e-18
-3.26728e-20
-2.2422e-18
-3.4858e-20
0.000553548
-2.04109e-18
-2.83269e-20
-2.06937e-18
-3.77802e-20
0.000562134
-1.9871e-18
-2.82422e-20
-2.10046e-18
-3.73393e-20
0.00057084
-1.99936e-18
-2.73919e-20
-1.97207e-18
-2.81575e-20
0.000579668
-1.92403e-18
-3.20436e-20
-1.91086e-18
-2.72039e-20
0.000588618
-1.88165e-18
-3.37106e-20
-1.84907e-18
-3.04398e-20
0.000597691
-1.86156e-18
-3.59004e-20
-1.8467e-18
-2.62734e-20
0.000606888
-1.74895e-18
-3.0604e-20
-1.87685e-18
-1.6252e-20
0.000616209
-1.68215e-18
-2.73836e-20
-1.77806e-18
-8.03476e-21
0.000625654
-1.70206e-18
-2.84239e-20
-1.7741e-18
-3.93379e-21
0.000635225
-1.7227e-18
-2.44844e-20
-1.6807e-18
3.22755e-22
0.00064492
-1.61209e-18
-1.71751e-20
-1.76606e-18
-2.88245e-21
0.000654741
-1.7503e-18
-1.30963e-20
-1.56376e-18
-3.00754e-21
0.000664686
-1.62732e-18
5.6964e-21
-1.41527e-18
-1.09015e-20
0.000674757
-1.55527e-18
1.14742e-20
-1.42221e-18
-1.79962e-20
0.000684952
-1.48843e-18
6.7611e-21
-1.37275e-18
-1.55263e-20
0.00069527
-1.47501e-18
1.25935e-21
-1.44069e-18
-2.00911e-20
0.000705712
-1.3915e-18
2.22179e-21
-1.4666e-18
-2.09434e-20
0.000716275
-1.366e-18
-3.13097e-21
-1.4227e-18
-2.03945e-20
0.000726959
-1.36335e-18
-3.62006e-21
-1.35058e-18
-2.28937e-20
0.000737763
-1.2478e-18
-2.60284e-21
-1.34911e-18
-3.10267e-20
0.000748685
-1.22953e-18
-5.89064e-21
-1.36085e-18
-2.79169e-20
0.000759722
-1.14783e-18
-1.02609e-20
-1.19817e-18
-2.38874e-20
0.000770874
-1.17767e-18
-1.16914e-20
-1.19578e-18
-3.36476e-20
0.000782137
-1.32647e-20
-1.19989e-18
-4.41201e-20
-1.21164e-18
1.12444e-07
-2.79181e-21
-7.87335e-22
3.43862e-07
-1.14058e-20
-5.07649e-21
5.85311e-07
-2.0422e-20
-9.41837e-21
8.36897e-07
-2.98032e-20
-1.38713e-20
1.09803e-06
-3.9299e-20
-1.87835e-20
1.36661e-06
-4.89608e-20
-2.38364e-20
1.63833e-06
-5.86042e-20
-2.89819e-20
1.9072e-06
-6.79549e-20
-3.357e-20
2.16727e-06
-7.70427e-20
-3.80526e-20
2.41447e-06
-8.53839e-20
-4.2712e-20
2.64724e-06
-9.31162e-20
-4.62827e-20
2.86587e-06
-9.9947e-20
-4.99466e-20
3.07171e-06
-1.06599e-19
-5.36568e-20
3.26649e-06
-1.12605e-19
-5.7004e-20
3.45192e-06
-1.18222e-19
-5.99786e-20
3.62958e-06
-1.22765e-19
-6.26666e-20
3.80083e-06
-1.27776e-19
-6.53444e-20
3.96682e-06
-1.32448e-19
-6.77277e-20
4.12852e-06
-1.35589e-19
-6.9035e-20
4.28676e-06
-1.39889e-19
-7.15655e-20
4.44222e-06
-1.43329e-19
-7.33709e-20
4.5955e-06
-1.47777e-19
-7.5568e-20
4.74708e-06
-1.51081e-19
-7.79604e-20
4.89739e-06
-1.55694e-19
-7.94479e-20
5.04681e-06
-1.59355e-19
-8.0258e-20
5.19566e-06
-1.62425e-19
-8.23136e-20
5.3442e-06
-1.66661e-19
-8.48169e-20
5.4927e-06
-1.70525e-19
-8.62886e-20
5.64137e-06
-1.75926e-19
-8.63836e-20
5.79041e-06
-1.78431e-19
-8.75044e-20
5.93999e-06
-1.80149e-19
-9.09771e-20
6.09028e-06
-1.83852e-19
-9.27406e-20
6.24142e-06
-1.87146e-19
-9.66084e-20
6.39355e-06
-1.896e-19
-9.813e-20
6.54679e-06
-1.92684e-19
-9.99066e-20
6.70126e-06
-1.94995e-19
-9.97433e-20
6.85706e-06
-1.98044e-19
-1.01213e-19
7.0143e-06
-2.02247e-19
-1.0171e-19
7.17307e-06
-2.05076e-19
-1.03304e-19
7.33346e-06
-2.07948e-19
-1.03691e-19
7.49556e-06
-2.0943e-19
-1.0566e-19
7.65945e-06
-2.12586e-19
-1.07748e-19
7.82522e-06
-2.14534e-19
-1.08015e-19
7.99293e-06
-2.18447e-19
-1.12171e-19
8.16267e-06
-2.20312e-19
-1.1345e-19
8.3345e-06
-2.25165e-19
-1.13223e-19
8.50849e-06
-2.28594e-19
-1.14265e-19
8.68473e-06
-2.30464e-19
-1.15029e-19
8.86326e-06
-2.33168e-19
-1.14795e-19
9.04416e-06
-2.37102e-19
-1.15119e-19
9.2275e-06
-2.40536e-19
-1.18164e-19
9.41334e-06
-2.44643e-19
-1.21427e-19
9.60174e-06
-2.46678e-19
-1.22358e-19
9.79277e-06
-2.49079e-19
-1.23383e-19
9.98649e-06
-2.51677e-19
-1.23463e-19
1.0183e-05
-2.54857e-19
-1.2303e-19
1.03823e-05
-2.57113e-19
-1.24923e-19
1.05844e-05
-2.59305e-19
-1.26717e-19
1.07895e-05
-2.62731e-19
-1.28737e-19
1.09977e-05
-2.67223e-19
-1.31322e-19
1.12089e-05
-2.70165e-19
-1.32412e-19
1.14232e-05
-2.74021e-19
-1.34096e-19
1.16407e-05
-2.76249e-19
-1.36197e-19
1.18615e-05
-2.77347e-19
-1.41323e-19
1.20856e-05
-2.82056e-19
-1.43322e-19
1.23131e-05
-2.86767e-19
-1.43308e-19
1.25441e-05
-2.9089e-19
-1.47937e-19
1.27786e-05
-2.93674e-19
-1.46457e-19
1.30166e-05
-2.97705e-19
-1.4887e-19
1.32583e-05
-2.99825e-19
-1.5017e-19
1.35038e-05
-3.0209e-19
-1.51525e-19
1.3753e-05
-3.0426e-19
-1.5326e-19
1.40061e-05
-3.07052e-19
-1.55393e-19
1.42632e-05
-3.09464e-19
-1.57755e-19
1.45242e-05
-3.11785e-19
-1.57133e-19
1.47893e-05
-3.10517e-19
-1.62711e-19
1.50585e-05
-3.10021e-19
-1.68101e-19
1.5332e-05
-3.10652e-19
-1.67945e-19
1.56098e-05
-3.09277e-19
-1.71732e-19
1.58919e-05
-3.17373e-19
-1.71785e-19
1.61785e-05
-3.18144e-19
-1.72679e-19
1.64696e-05
-3.21486e-19
-1.75757e-19
1.67653e-05
-3.24045e-19
-1.7709e-19
1.70656e-05
-3.2583e-19
-1.82779e-19
1.73708e-05
-3.29251e-19
-1.85393e-19
1.76807e-05
-3.33004e-19
-1.88204e-19
1.79956e-05
-3.36014e-19
-1.86156e-19
1.83155e-05
-3.39207e-19
-1.84927e-19
1.86405e-05
-3.43612e-19
-1.82351e-19
1.89706e-05
-3.55634e-19
-1.80393e-19
1.93061e-05
-3.58442e-19
-1.82176e-19
1.96468e-05
-3.5988e-19
-1.83496e-19
1.99931e-05
-3.61624e-19
-1.84314e-19
2.03448e-05
-3.64971e-19
-1.86514e-19
2.07022e-05
-3.69216e-19
-1.9032e-19
2.10653e-05
-3.73434e-19
-1.93364e-19
2.14342e-05
-3.758e-19
-1.95199e-19
2.1809e-05
-3.78098e-19
-1.94901e-19
2.21898e-05
-3.78051e-19
-1.97962e-19
2.25767e-05
-3.81169e-19
-1.99866e-19
2.29698e-05
-3.77659e-19
-1.97873e-19
2.33693e-05
-3.79458e-19
-2.03195e-19
2.37751e-05
-3.80607e-19
-2.02332e-19
2.41875e-05
-3.8011e-19
-2.01184e-19
2.46065e-05
-3.84992e-19
-2.00136e-19
2.50322e-05
-3.82501e-19
-2.02131e-19
2.54648e-05
-3.85195e-19
-2.06484e-19
2.59044e-05
-3.96024e-19
-2.01895e-19
2.6351e-05
-3.97782e-19
-2.04366e-19
2.68048e-05
-3.99574e-19
-2.09043e-19
2.72659e-05
-4.00951e-19
-2.12975e-19
2.77344e-05
-4.03535e-19
-2.13848e-19
2.82105e-05
-4.06223e-19
-2.18113e-19
2.86942e-05
-4.07332e-19
-2.22075e-19
2.91857e-05
-4.10115e-19
-2.29563e-19
2.96852e-05
-4.09059e-19
-2.29584e-19
3.01927e-05
-4.1336e-19
-2.32067e-19
3.07084e-05
-4.16078e-19
-2.38454e-19
3.12323e-05
-4.21594e-19
-2.33744e-19
3.17648e-05
-4.2522e-19
-2.36409e-19
3.23058e-05
-4.2611e-19
-2.26846e-19
3.28555e-05
-4.37005e-19
-2.22416e-19
3.34141e-05
-4.37926e-19
-2.24537e-19
3.39817e-05
-4.46229e-19
-2.22395e-19
3.45584e-05
-4.49459e-19
-2.18271e-19
3.51445e-05
-4.50526e-19
-2.21023e-19
3.574e-05
-4.53676e-19
-2.25306e-19
3.6345e-05
-4.60691e-19
-2.22479e-19
3.69599e-05
-4.72806e-19
-2.20519e-19
3.75846e-05
-4.7778e-19
-2.20696e-19
3.82195e-05
-4.81803e-19
-2.17939e-19
3.88645e-05
-4.89084e-19
-2.16016e-19
3.952e-05
-4.91706e-19
-2.23319e-19
4.0186e-05
-5.04643e-19
-2.20798e-19
4.08628e-05
-5.06138e-19
-2.26933e-19
4.15504e-05
-5.10423e-19
-2.30053e-19
4.22492e-05
-5.16704e-19
-2.23338e-19
4.29592e-05
-5.16179e-19
-2.26581e-19
4.36806e-05
-5.11675e-19
-2.31021e-19
4.44137e-05
-5.13547e-19
-2.29245e-19
4.51586e-05
-5.06885e-19
-2.35243e-19
4.59155e-05
-5.13275e-19
-2.32917e-19
4.66846e-05
-5.08294e-19
-2.4879e-19
4.7466e-05
-5.10098e-19
-2.55143e-19
4.82601e-05
-5.12877e-19
-2.58594e-19
4.90669e-05
-5.27882e-19
-2.62171e-19
4.98867e-05
-5.34825e-19
-2.60103e-19
5.07198e-05
-5.31613e-19
-2.68526e-19
5.15662e-05
-5.31688e-19
-2.83951e-19
5.24263e-05
-5.41166e-19
-2.87596e-19
5.33002e-05
-5.43678e-19
-2.83613e-19
5.41881e-05
-5.46709e-19
-2.88241e-19
5.50904e-05
-5.49552e-19
-2.9463e-19
5.60071e-05
-5.5152e-19
-2.94358e-19
5.69386e-05
-5.6284e-19
-2.89675e-19
5.78851e-05
-5.67509e-19
-2.93948e-19
5.88468e-05
-5.53484e-19
-2.8879e-19
5.9824e-05
-5.56761e-19
-2.92929e-19
6.08169e-05
-5.62381e-19
-2.97124e-19
6.18257e-05
-5.68833e-19
-3.10231e-19
6.28508e-05
-5.71327e-19
-3.11569e-19
6.38923e-05
-5.86885e-19
-3.15171e-19
6.49506e-05
-5.76458e-19
-3.17651e-19
6.60258e-05
-5.7752e-19
-3.2008e-19
6.71184e-05
-5.65993e-19
-3.32703e-19
6.82284e-05
-5.64661e-19
-3.3027e-19
6.93563e-05
-5.73391e-19
-3.39276e-19
7.05023e-05
-5.83449e-19
-3.46665e-19
7.16667e-05
-5.84635e-19
-3.58399e-19
7.28498e-05
-5.97625e-19
-3.49857e-19
7.40518e-05
-6.03424e-19
-3.48557e-19
7.52732e-05
-6.21942e-19
-3.61097e-19
7.65141e-05
-6.21652e-19
-3.68048e-19
7.77749e-05
-6.25233e-19
-3.60109e-19
7.9056e-05
-6.26445e-19
-3.56457e-19
8.03575e-05
-6.33082e-19
-3.6997e-19
8.168e-05
-6.36438e-19
-3.69197e-19
8.30236e-05
-6.31282e-19
-3.69576e-19
8.43887e-05
-6.45953e-19
-3.70855e-19
8.57757e-05
-6.52401e-19
-3.75127e-19
8.7185e-05
-6.41595e-19
-3.67848e-19
8.86168e-05
-6.44165e-19
-3.77524e-19
9.00715e-05
-6.43551e-19
-3.84134e-19
9.15494e-05
-6.49766e-19
-3.93946e-19
9.30511e-05
-6.87053e-19
-4.14537e-19
9.45767e-05
-6.95443e-19
-4.27336e-19
9.61268e-05
-7.31345e-19
-4.29449e-19
9.77016e-05
-7.36388e-19
-4.23576e-19
9.93017e-05
-7.49031e-19
-4.31195e-19
0.000100927
-7.44224e-19
-4.3559e-19
0.000102579
-7.56195e-19
-4.46128e-19
0.000104257
-7.49374e-19
-4.6707e-19
0.000105962
-7.51526e-19
-4.66778e-19
0.000107694
-7.54496e-19
-4.7928e-19
0.000109453
-7.40146e-19
-5.04213e-19
0.000111241
-7.44292e-19
-5.15438e-19
0.000113057
-7.3634e-19
-4.97126e-19
0.000114902
-7.42797e-19
-5.09313e-19
0.000116777
-7.442e-19
-5.03062e-19
0.000118682
-7.22281e-19
-4.95277e-19
0.000120617
-7.0768e-19
-5.09193e-19
0.000122582
-6.97699e-19
-5.20578e-19
0.00012458
-6.9038e-19
-5.16875e-19
0.000126608
-7.13624e-19
-5.27975e-19
0.00012867
-7.15164e-19
-5.16936e-19
0.000130764
-7.19638e-19
-5.24402e-19
0.000132891
-6.75883e-19
-5.54716e-19
0.000135053
-6.83419e-19
-5.46604e-19
0.000137248
-6.91023e-19
-5.58924e-19
0.000139479
-6.97293e-19
-5.79051e-19
0.000141745
-7.10482e-19
-5.92081e-19
0.000144047
-7.43224e-19
-5.78904e-19
0.000146386
-7.92097e-19
-5.61191e-19
0.000148761
-7.93186e-19
-5.71656e-19
0.000151175
-7.46094e-19
-6.19507e-19
0.000153627
-7.5315e-19
-6.08893e-19
0.000156118
-7.8397e-19
-6.35111e-19
0.000158648
-8.29151e-19
-6.43149e-19
0.000161219
-8.34994e-19
-6.63707e-19
0.00016383
-8.43651e-19
-6.7224e-19
0.000166483
-8.10332e-19
-6.81178e-19
0.000169177
-8.37226e-19
-6.89326e-19
0.000171915
-8.48067e-19
-6.51983e-19
0.000174696
-8.49373e-19
-6.49895e-19
0.00017752
-8.01341e-19
-6.961e-19
0.00018039
-7.85225e-19
-6.87083e-19
0.000183305
-8.18251e-19
-6.94411e-19
0.000186266
-8.12275e-19
-7.03431e-19
0.000189274
-8.27887e-19
-7.22561e-19
0.000192329
-8.4507e-19
-7.42202e-19
0.000195433
-8.68258e-19
-7.54575e-19
0.000198586
-8.79264e-19
-7.8832e-19
0.000201788
-8.9382e-19
-7.96423e-19
0.000205041
-8.91355e-19
-7.79765e-19
0.000208346