/*--------------------------------*- C++ -*----------------------------------*\
| =========                 |                                                 |
| \\      /  F ield         | OpenFOAM: The Open Source CFD Toolbox           |
|  \\    /   O peration     | Version:  2012                                  |
|   \\  /    A nd           | Website:  www.openfoam.com                      |
|    \\/     M anipulation  |                                                 |
\*---------------------------------------------------------------------------*/
FoamFile
{
    version     2.0;
    format      ascii;
    class       volSymmTensorField;
    location    "8000";
    object      turbulenceProperties:R;
}
// * * * * * * * * * * * * * * * * * * * * * * * * * * * * * * * * * * * * * //

dimensions      [0 2 -2 0 0 0 0];


internalField   nonuniform List<symmTensor> 
2560
(
(2.68801e-07 -2.39482e-11 -3.46678e-14 2.68801e-07 2.53393e-25 2.68801e-07)
(2.68801e-07 -2.39482e-11 -3.46678e-14 2.68801e-07 3.27953e-30 2.68801e-07)
(4.79995e-08 -2.45771e-11 -1.07256e-13 4.79995e-08 3.37564e-26 4.79995e-08)
(4.79995e-08 -2.45771e-11 -1.07256e-13 4.79995e-08 1.23301e-29 4.79995e-08)
(7.33349e-08 -1.10759e-10 -6.64845e-13 7.33349e-08 1.00941e-25 7.33349e-08)
(7.33349e-08 -1.10759e-10 -6.64845e-13 7.33349e-08 7.49952e-29 7.33349e-08)
(2.31956e-07 -7.4282e-10 -4.52368e-12 2.31956e-07 7.2457e-25 2.31956e-07)
(2.31956e-07 -7.4282e-10 -4.52368e-12 2.31956e-07 4.48961e-28 2.31956e-07)
(5.96929e-07 -3.37216e-09 -2.08346e-11 5.96929e-07 2.52667e-24 5.96929e-07)
(5.96929e-07 -3.37216e-09 -2.08346e-11 5.96929e-07 2.76806e-27 5.96929e-07)
(1.27352e-06 -1.13257e-08 -7.09919e-11 1.27352e-06 8.61126e-24 1.27352e-06)
(1.27352e-06 -1.13257e-08 -7.09919e-11 1.27352e-06 1.22267e-26 1.27352e-06)
(2.38706e-06 -3.09636e-08 -1.96907e-10 2.38706e-06 2.383e-23 2.38706e-06)
(2.38706e-06 -3.09636e-08 -1.96907e-10 2.38706e-06 4.14158e-26 2.38706e-06)
(4.08138e-06 -7.31321e-08 -4.71827e-10 4.08138e-06 5.72999e-23 4.08138e-06)
(4.08138e-06 -7.31321e-08 -4.71827e-10 4.08138e-06 1.13579e-25 4.08138e-06)
(6.51891e-06 -1.54939e-07 -1.01414e-09 6.51891e-06 1.23591e-22 6.51891e-06)
(6.51891e-06 -1.54939e-07 -1.01414e-09 6.51891e-06 2.82046e-25 6.51891e-06)
(9.8812e-06 -3.01873e-07 -2.00458e-09 9.8812e-06 2.44672e-22 9.8812e-06)
(9.8812e-06 -3.01873e-07 -2.00458e-09 9.8812e-06 6.44134e-25 9.8812e-06)
(1.43695e-05 -5.50282e-07 -3.70717e-09 1.43695e-05 4.53069e-22 1.43695e-05)
(1.43695e-05 -5.50282e-07 -3.70717e-09 1.43695e-05 1.31528e-24 1.43695e-05)
(2.02052e-05 -9.502e-07 -6.49418e-09 2.02052e-05 7.94329e-22 2.02052e-05)
(2.02052e-05 -9.502e-07 -6.49418e-09 2.02052e-05 2.53114e-24 2.02052e-05)
(2.76304e-05 -1.56849e-06 -1.08752e-08 2.76304e-05 1.33021e-21 2.76304e-05)
(2.76304e-05 -1.56849e-06 -1.08752e-08 2.76304e-05 4.73101e-24 2.76304e-05)
(3.69076e-05 -2.49224e-06 -1.75301e-08 3.69076e-05 2.14169e-21 3.69076e-05)
(3.69076e-05 -2.49224e-06 -1.75301e-08 3.69076e-05 8.35716e-24 3.69076e-05)
(4.83196e-05 -3.83223e-06 -2.73446e-08 4.83196e-05 3.33238e-21 4.83196e-05)
(4.83196e-05 -3.83223e-06 -2.73446e-08 4.83196e-05 1.42997e-23 4.83196e-05)
(6.21683e-05 -5.72631e-06 -4.14486e-08 6.21683e-05 5.02993e-21 6.21683e-05)
(6.21683e-05 -5.72631e-06 -4.14486e-08 6.21683e-05 2.32487e-23 6.21683e-05)
(7.87731e-05 -8.34245e-06 -6.1253e-08 7.87731e-05 7.38638e-21 7.87731e-05)
(7.87731e-05 -8.34245e-06 -6.1253e-08 7.87731e-05 3.59126e-23 7.87731e-05)
(9.84679e-05 -1.18809e-05 -8.8484e-08 9.84679e-05 1.05763e-20 9.84679e-05)
(9.84679e-05 -1.18809e-05 -8.8484e-08 9.84679e-05 5.44142e-23 9.84679e-05)
(0.000121597 -1.65754e-05 -1.2521e-07 0.000121597 1.47889e-20 0.000121597)
(0.000121597 -1.65754e-05 -1.2521e-07 0.000121597 8.09301e-23 0.000121597)
(0.000148511 -2.26923e-05 -1.73854e-07 0.000148511 1.8969e-20 0.000148511)
(0.000148511 -2.26923e-05 -1.73854e-07 0.000148511 1.22882e-22 0.000148511)
(0.000179557 -3.05275e-05 -2.37194e-07 0.000179557 2.36033e-20 0.000179557)
(0.000179557 -3.05275e-05 -2.37194e-07 0.000179557 1.84001e-22 0.000179557)
(0.000215074 -4.0401e-05 -3.18333e-07 0.000215074 3.07147e-20 0.000215074)
(0.000215074 -4.0401e-05 -3.18333e-07 0.000215074 2.57111e-22 0.000215074)
(0.00025538 -5.26478e-05 -4.20644e-07 0.00025538 3.92054e-20 0.00025538)
(0.00025538 -5.26478e-05 -4.20644e-07 0.00025538 3.47218e-22 0.00025538)
(0.000300761 -6.76061e-05 -5.47687e-07 0.000300761 4.89934e-20 0.000300761)
(0.000300761 -6.76061e-05 -5.47687e-07 0.000300761 4.81915e-22 0.000300761)
(0.000351462 -8.56022e-05 -7.0309e-07 0.000351462 5.9863e-20 0.000351462)
(0.000351462 -8.56022e-05 -7.0309e-07 0.000351462 6.66817e-22 0.000351462)
(0.00040767 -0.000106933 -8.90403e-07 0.00040767 7.14867e-20 0.00040767)
(0.00040767 -0.000106933 -8.90403e-07 0.00040767 9.07379e-22 0.00040767)
(0.000469505 -0.00013185 -1.11294e-06 0.000469505 8.34597e-20 0.000469505)
(0.000469505 -0.00013185 -1.11294e-06 0.000469505 1.22436e-21 0.000469505)
(0.000537006 -0.000160536 -1.3736e-06 0.000537006 9.51867e-20 0.000537006)
(0.000537006 -0.000160536 -1.3736e-06 0.000537006 1.60093e-21 0.000537006)
(0.000610128 -0.000193098 -1.6747e-06 0.000610128 1.0593e-19 0.000610128)
(0.000610128 -0.000193098 -1.6747e-06 0.000610128 2.0064e-21 0.000610128)
(0.000688732 -0.000229549 -2.01787e-06 0.000688732 1.14932e-19 0.000688732)
(0.000688732 -0.000229549 -2.01787e-06 0.000688732 2.4494e-21 0.000688732)
(0.000772585 -0.000269803 -2.4039e-06 0.000772585 1.21385e-19 0.000772585)
(0.000772585 -0.000269803 -2.4039e-06 0.000772585 3.08174e-21 0.000772585)
(0.000861364 -0.000313678 -2.83273e-06 0.000861364 1.24646e-19 0.000861364)
(0.000861364 -0.000313678 -2.83273e-06 0.000861364 4.03109e-21 0.000861364)
(0.000954662 -0.000360901 -3.30343e-06 0.000954662 1.2425e-19 0.000954662)
(0.000954662 -0.000360901 -3.30343e-06 0.000954662 5.22244e-21 0.000954662)
(0.001052 -0.000411118 -3.81429e-06 0.001052 1.19788e-19 0.001052)
(0.001052 -0.000411118 -3.81429e-06 0.001052 6.41792e-21 0.001052)
(0.00115284 -0.000463913 -4.36288e-06 0.00115284 1.10989e-19 0.00115284)
(0.00115284 -0.000463913 -4.36288e-06 0.00115284 7.46917e-21 0.00115284)
(0.00125661 -0.000518829 -4.94622e-06 0.00125661 9.76188e-20 0.00125661)
(0.00125661 -0.000518829 -4.94622e-06 0.00125661 8.81583e-21 0.00125661)
(0.0013627 -0.000575382 -5.56092e-06 0.0013627 8.07522e-20 0.0013627)
(0.0013627 -0.000575382 -5.56092e-06 0.0013627 1.07189e-20 0.0013627)
(0.00147049 -0.000633089 -6.20334e-06 0.00147049 6.10898e-20 0.00147049)
(0.00147049 -0.000633089 -6.20334e-06 0.00147049 1.28983e-20 0.00147049)
(0.00157939 -0.000691476 -6.86975e-06 0.00157939 3.86628e-20 0.00157939)
(0.00157939 -0.000691476 -6.86975e-06 0.00157939 1.49562e-20 0.00157939)
(0.00168882 -0.000750098 -7.55645e-06 0.00168882 3.48995e-21 0.00168882)
(0.00168882 -0.000750098 -7.55645e-06 0.00168882 1.711e-20 0.00168882)
(0.00179822 -0.00080855 -8.25989e-06 0.00179822 -1.85352e-21 0.00179822)
(0.00179822 -0.00080855 -8.25989e-06 0.00179822 1.99607e-20 0.00179822)
(0.00190708 -0.000866468 -8.97676e-06 0.00190708 -3.64446e-20 0.00190708)
(0.00190708 -0.000866468 -8.97676e-06 0.00190708 2.27985e-20 0.00190708)
(0.00201496 -0.000923539 -9.70402e-06 0.00201496 -6.0734e-20 0.00201496)
(0.00201496 -0.000923539 -9.70402e-06 0.00201496 2.5207e-20 0.00201496)
(0.00212143 -0.000979498 -1.0439e-05 0.00212143 -8.30912e-20 0.00212143)
(0.00212143 -0.000979498 -1.0439e-05 0.00212143 2.81076e-20 0.00212143)
(0.00222615 -0.00103413 -1.11792e-05 0.00222615 -1.03123e-19 0.00222615)
(0.00222615 -0.00103413 -1.11792e-05 0.00222615 3.31523e-20 0.00222615)
(0.0023288 -0.00108726 -1.19228e-05 0.0023288 -1.21177e-19 0.0023288)
(0.0023288 -0.00108726 -1.19228e-05 0.0023288 3.82801e-20 0.0023288)
(0.00242915 -0.00113876 -1.26679e-05 0.00242915 -1.34648e-19 0.00242915)
(0.00242915 -0.00113876 -1.26679e-05 0.00242915 4.19098e-20 0.00242915)
(0.00252698 -0.00118853 -1.34131e-05 0.00252698 -1.45046e-19 0.00252698)
(0.00252698 -0.00118853 -1.34131e-05 0.00252698 4.61984e-20 0.00252698)
(0.00262213 -0.00123651 -1.41573e-05 0.00262213 -1.53239e-19 0.00262213)
(0.00262213 -0.00123651 -1.41573e-05 0.00262213 5.18534e-20 0.00262213)
(0.00271448 -0.00128268 -1.48997e-05 0.00271448 -1.56158e-19 0.00271448)
(0.00271448 -0.00128268 -1.48997e-05 0.00271448 5.67034e-20 0.00271448)
(0.00280394 -0.001327 -1.56395e-05 0.00280394 -1.53759e-19 0.00280394)
(0.00280394 -0.001327 -1.56395e-05 0.00280394 6.09716e-20 0.00280394)
(0.00289046 -0.00136949 -1.63762e-05 0.00289046 -1.48777e-19 0.00289046)
(0.00289046 -0.00136949 -1.63762e-05 0.00289046 6.76652e-20 0.00289046)
(0.002974 -0.00141018 -1.71095e-05 0.002974 -1.40305e-19 0.002974)
(0.002974 -0.00141018 -1.71095e-05 0.002974 7.49681e-20 0.002974)
(0.00305457 -0.00144909 -1.78393e-05 0.00305457 -1.26668e-19 0.00305457)
(0.00305457 -0.00144909 -1.78393e-05 0.00305457 8.22044e-20 0.00305457)
(0.00313216 -0.00148626 -1.85653e-05 0.00313216 -1.10497e-19 0.00313216)
(0.00313216 -0.00148626 -1.85653e-05 0.00313216 8.97862e-20 0.00313216)
(0.00320682 -0.00152175 -1.92877e-05 0.00320682 -9.13951e-20 0.00320682)
(0.00320682 -0.00152175 -1.92877e-05 0.00320682 9.44643e-20 0.00320682)
(0.00327859 -0.0015556 -2.00066e-05 0.00327859 -6.62309e-20 0.00327859)
(0.00327859 -0.0015556 -2.00066e-05 0.00327859 9.84295e-20 0.00327859)
(0.00334752 -0.00158788 -2.07219e-05 0.00334752 -3.59917e-20 0.00334752)
(0.00334752 -0.00158788 -2.07219e-05 0.00334752 1.09226e-19 0.00334752)
(0.00341366 -0.00161865 -2.14341e-05 0.00341366 -5.52301e-21 0.00341366)
(0.00341366 -0.00161865 -2.14341e-05 0.00341366 1.19565e-19 0.00341366)
(0.0034771 -0.00164795 -2.21433e-05 0.0034771 2.9081e-20 0.0034771)
(0.0034771 -0.00164795 -2.21433e-05 0.0034771 1.26712e-19 0.0034771)
(0.00353791 -0.00167586 -2.28497e-05 0.00353791 6.93123e-20 0.00353791)
(0.00353791 -0.00167586 -2.28497e-05 0.00353791 1.32934e-19 0.00353791)
(0.00359615 -0.00170244 -2.35536e-05 0.00359615 1.12634e-19 0.00359615)
(0.00359615 -0.00170244 -2.35536e-05 0.00359615 1.38673e-19 0.00359615)
(0.00365191 -0.00172773 -2.42555e-05 0.00365191 1.58139e-19 0.00365191)
(0.00365191 -0.00172773 -2.42555e-05 0.00365191 1.53489e-19 0.00365191)
(0.00370528 -0.0017518 -2.49554e-05 0.00370528 2.06869e-19 0.00370528)
(0.00370528 -0.0017518 -2.49554e-05 0.00370528 1.64784e-19 0.00370528)
(0.00375633 -0.00177471 -2.56539e-05 0.00375633 2.6067e-19 0.00375633)
(0.00375633 -0.00177471 -2.56539e-05 0.00375633 1.72035e-19 0.00375633)
(0.00380514 -0.0017965 -2.63512e-05 0.00380514 3.13051e-19 0.00380514)
(0.00380514 -0.0017965 -2.63512e-05 0.00380514 1.84301e-19 0.00380514)
(0.00385179 -0.00181723 -2.70475e-05 0.00385179 3.65399e-19 0.00385179)
(0.00385179 -0.00181723 -2.70475e-05 0.00385179 1.97751e-19 0.00385179)
(0.00389636 -0.00183695 -2.77433e-05 0.00389636 4.16366e-19 0.00389636)
(0.00389636 -0.00183695 -2.77433e-05 0.00389636 2.15773e-19 0.00389636)
(0.00393894 -0.00185569 -2.84388e-05 0.00393894 4.84878e-19 0.00393894)
(0.00393894 -0.00185569 -2.84388e-05 0.00393894 2.31029e-19 0.00393894)
(0.00397958 -0.00187352 -2.91344e-05 0.00397958 5.5445e-19 0.00397958)
(0.00397958 -0.00187352 -2.91344e-05 0.00397958 2.38287e-19 0.00397958)
(0.00401837 -0.00189046 -2.98303e-05 0.00401837 6.09696e-19 0.00401837)
(0.00401837 -0.00189046 -2.98303e-05 0.00401837 2.45758e-19 0.00401837)
(0.00405538 -0.00190657 -3.05269e-05 0.00405538 6.72499e-19 0.00405538)
(0.00405538 -0.00190657 -3.05269e-05 0.00405538 2.65892e-19 0.00405538)
(0.00409067 -0.00192187 -3.12244e-05 0.00409067 7.43438e-19 0.00409067)
(0.00409067 -0.00192187 -3.12244e-05 0.00409067 2.88715e-19 0.00409067)
(0.00412431 -0.00193641 -3.19231e-05 0.00412431 8.14739e-19 0.00412431)
(0.00412431 -0.00193641 -3.19231e-05 0.00412431 3.04742e-19 0.00412431)
(0.00415637 -0.00195022 -3.26232e-05 0.00415637 8.84867e-19 0.00415637)
(0.00415637 -0.00195022 -3.26232e-05 0.00415637 3.2026e-19 0.00415637)
(0.0041869 -0.00196333 -3.33251e-05 0.0041869 9.58067e-19 0.0041869)
(0.0041869 -0.00196333 -3.33251e-05 0.0041869 3.315e-19 0.0041869)
(0.00421597 -0.00197577 -3.40289e-05 0.00421597 1.02504e-18 0.00421597)
(0.00421597 -0.00197577 -3.40289e-05 0.00421597 3.42456e-19 0.00421597)
(0.00424363 -0.00198757 -3.4735e-05 0.00424363 1.09336e-18 0.00424363)
(0.00424363 -0.00198757 -3.4735e-05 0.00424363 3.68561e-19 0.00424363)
(0.00426993 -0.00199877 -3.54436e-05 0.00426993 1.1825e-18 0.00426993)
(0.00426993 -0.00199877 -3.54436e-05 0.00426993 4.03518e-19 0.00426993)
(0.00429493 -0.00200938 -3.61549e-05 0.00429493 1.26984e-18 0.00429493)
(0.00429493 -0.00200938 -3.61549e-05 0.00429493 4.10538e-19 0.00429493)
(0.00431868 -0.00201943 -3.68691e-05 0.00431868 1.33442e-18 0.00431868)
(0.00431868 -0.00201943 -3.68691e-05 0.00431868 3.96754e-19 0.00431868)
(0.00434122 -0.00202895 -3.75864e-05 0.00434122 1.41972e-18 0.00434122)
(0.00434122 -0.00202895 -3.75864e-05 0.00434122 4.31421e-19 0.00434122)
(0.00436259 -0.00203795 -3.83071e-05 0.00436259 1.51985e-18 0.00436259)
(0.00436259 -0.00203795 -3.83071e-05 0.00436259 4.9881e-19 0.00436259)
(0.00438285 -0.00204646 -3.90313e-05 0.00438285 1.6175e-18 0.00438285)
(0.00438285 -0.00204646 -3.90313e-05 0.00438285 5.23689e-19 0.00438285)
(0.00440204 -0.0020545 -3.97593e-05 0.00440204 1.70354e-18 0.00440204)
(0.00440204 -0.0020545 -3.97593e-05 0.00440204 5.19995e-19 0.00440204)
(0.00442018 -0.00206209 -4.04912e-05 0.00442018 1.78568e-18 0.00442018)
(0.00442018 -0.00206209 -4.04912e-05 0.00442018 5.07425e-19 0.00442018)
(0.00443733 -0.00206924 -4.12272e-05 0.00443733 1.86633e-18 0.00443733)
(0.00443733 -0.00206924 -4.12272e-05 0.00443733 5.23794e-19 0.00443733)
(0.00445351 -0.00207597 -4.19675e-05 0.00445351 1.96897e-18 0.00445351)
(0.00445351 -0.00207597 -4.19675e-05 0.00445351 5.91438e-19 0.00445351)
(0.00446877 -0.0020823 -4.27124e-05 0.00446877 2.0913e-18 0.00446877)
(0.00446877 -0.0020823 -4.27124e-05 0.00446877 6.36629e-19 0.00446877)
(0.00448313 -0.00208824 -4.34618e-05 0.00448313 2.19695e-18 0.00448313)
(0.00448313 -0.00208824 -4.34618e-05 0.00448313 6.38828e-19 0.00448313)
(0.00449663 -0.00209381 -4.42161e-05 0.00449663 2.30964e-18 0.00449663)
(0.00449663 -0.00209381 -4.42161e-05 0.00449663 6.4685e-19 0.00449663)
(0.00450929 -0.00209903 -4.49754e-05 0.00450929 2.38319e-18 0.00450929)
(0.00450929 -0.00209903 -4.49754e-05 0.00450929 6.66362e-19 0.00450929)
(0.00452115 -0.0021039 -4.57398e-05 0.00452115 2.46063e-18 0.00452115)
(0.00452115 -0.0021039 -4.57398e-05 0.00452115 6.70019e-19 0.00452115)
(0.00453224 -0.00210843 -4.65095e-05 0.00453224 2.59104e-18 0.00453224)
(0.00453224 -0.00210843 -4.65095e-05 0.00453224 6.76044e-19 0.00453224)
(0.00454257 -0.00211265 -4.72846e-05 0.00454257 2.72126e-18 0.00454257)
(0.00454257 -0.00211265 -4.72846e-05 0.00454257 1.03136e-18 0.00454257)
(0.00455218 -0.00211655 -4.80653e-05 0.00455218 2.85258e-18 0.00455218)
(0.00455218 -0.00211655 -4.80653e-05 0.00455218 1.58176e-18 0.00455218)
(0.00456108 -0.00212016 -4.88518e-05 0.00456108 2.98825e-18 0.00456108)
(0.00456108 -0.00212016 -4.88518e-05 0.00456108 1.773e-18 0.00456108)
(0.00456931 -0.00212348 -4.96441e-05 0.00456931 3.07748e-18 0.00456931)
(0.00456931 -0.00212348 -4.96441e-05 0.00456931 1.79946e-18 0.00456931)
(0.00457689 -0.00212652 -5.04424e-05 0.00457689 3.19533e-18 0.00457689)
(0.00457689 -0.00212652 -5.04424e-05 0.00457689 1.92634e-18 0.00457689)
(0.00458383 -0.00212929 -5.12469e-05 0.00458383 3.35314e-18 0.00458383)
(0.00458383 -0.00212929 -5.12469e-05 0.00458383 2.01344e-18 0.00458383)
(0.00459015 -0.0021318 -5.20576e-05 0.00459015 3.51736e-18 0.00459015)
(0.00459015 -0.0021318 -5.20576e-05 0.00459015 2.05198e-18 0.00459015)
(0.00459588 -0.00213406 -5.28748e-05 0.00459588 3.65625e-18 0.00459588)
(0.00459588 -0.00213406 -5.28748e-05 0.00459588 2.16092e-18 0.00459588)
(0.00460104 -0.00213607 -5.36985e-05 0.00460104 3.73272e-18 0.00460104)
(0.00460104 -0.00213607 -5.36985e-05 0.00460104 2.24092e-18 0.00460104)
(0.00460563 -0.00213785 -5.45288e-05 0.00460563 3.88844e-18 0.00460563)
(0.00460563 -0.00213785 -5.45288e-05 0.00460563 2.26083e-18 0.00460563)
(0.00460969 -0.0021394 -5.5366e-05 0.00460969 4.05458e-18 0.00460969)
(0.00460969 -0.0021394 -5.5366e-05 0.00460969 2.35582e-18 0.00460969)
(0.00461322 -0.00214073 -5.621e-05 0.00461322 4.16481e-18 0.00461322)
(0.00461322 -0.00214073 -5.621e-05 0.00461322 2.44194e-18 0.00461322)
(0.00461625 -0.00214185 -5.70611e-05 0.00461625 4.325e-18 0.00461625)
(0.00461625 -0.00214185 -5.70611e-05 0.00461625 2.46891e-18 0.00461625)
(0.00461878 -0.00214275 -5.79193e-05 0.00461878 4.51424e-18 0.00461878)
(0.00461878 -0.00214275 -5.79193e-05 0.00461878 2.64897e-18 0.00461878)
(0.00462083 -0.00214346 -5.87848e-05 0.00462083 4.70288e-18 0.00462083)
(0.00462083 -0.00214346 -5.87848e-05 0.00462083 2.80134e-18 0.00462083)
(0.00462242 -0.00214397 -5.96577e-05 0.00462242 4.86711e-18 0.00462242)
(0.00462242 -0.00214397 -5.96577e-05 0.00462242 2.83638e-18 0.00462242)
(0.00462356 -0.00214429 -6.05381e-05 0.00462356 5.01697e-18 0.00462356)
(0.00462356 -0.00214429 -6.05381e-05 0.00462356 2.90455e-18 0.00462356)
(0.00462426 -0.00214442 -6.14261e-05 0.00462426 5.10033e-18 0.00462426)
(0.00462426 -0.00214442 -6.14261e-05 0.00462426 2.99455e-18 0.00462426)
(0.00462453 -0.00214437 -6.23218e-05 0.00462453 5.18694e-18 0.00462453)
(0.00462453 -0.00214437 -6.23218e-05 0.00462453 3.14869e-18 0.00462453)
(0.0046244 -0.00214416 -6.32253e-05 0.0046244 5.36993e-18 0.0046244)
(0.0046244 -0.00214416 -6.32253e-05 0.0046244 3.24592e-18 0.0046244)
(0.00462386 -0.00214377 -6.41368e-05 0.00462386 5.54405e-18 0.00462386)
(0.00462386 -0.00214377 -6.41368e-05 0.00462386 3.30383e-18 0.00462386)
(0.00462292 -0.00214321 -6.50563e-05 0.00462292 5.70639e-18 0.00462292)
(0.00462292 -0.00214321 -6.50563e-05 0.00462292 3.45149e-18 0.00462292)
(0.00462161 -0.0021425 -6.5984e-05 0.00462161 5.92815e-18 0.00462161)
(0.00462161 -0.0021425 -6.5984e-05 0.00462161 3.59955e-18 0.00462161)
(0.00461993 -0.00214163 -6.692e-05 0.00461993 6.03926e-18 0.00461993)
(0.00461993 -0.00214163 -6.692e-05 0.00461993 3.65004e-18 0.00461993)
(0.0046179 -0.00214061 -6.78643e-05 0.0046179 6.14662e-18 0.0046179)
(0.0046179 -0.00214061 -6.78643e-05 0.0046179 3.69126e-18 0.0046179)
(0.00461551 -0.00213944 -6.88171e-05 0.00461551 6.40668e-18 0.00461551)
(0.00461551 -0.00213944 -6.88171e-05 0.00461551 3.88567e-18 0.00461551)
(0.00461278 -0.00213813 -6.97785e-05 0.00461278 6.60823e-18 0.00461278)
(0.00461278 -0.00213813 -6.97785e-05 0.00461278 4.04872e-18 0.00461278)
(0.00460972 -0.00213668 -7.07486e-05 0.00460972 6.74408e-18 0.00460972)
(0.00460972 -0.00213668 -7.07486e-05 0.00460972 4.11022e-18 0.00460972)
(0.00460633 -0.00213509 -7.17274e-05 0.00460633 6.82224e-18 0.00460633)
(0.00460633 -0.00213509 -7.17274e-05 0.00460633 4.15497e-18 0.00460633)
(0.00460263 -0.00213337 -7.27152e-05 0.00460263 7.0593e-18 0.00460263)
(0.00460263 -0.00213337 -7.27152e-05 0.00460263 4.33746e-18 0.00460263)
(0.00459863 -0.00213152 -7.37119e-05 0.00459863 7.3216e-18 0.00459863)
(0.00459863 -0.00213152 -7.37119e-05 0.00459863 4.49307e-18 0.00459863)
(0.00459432 -0.00212954 -7.47178e-05 0.00459432 7.53167e-18 0.00459432)
(0.00459432 -0.00212954 -7.47178e-05 0.00459432 4.45141e-18 0.00459432)
(0.00458973 -0.00212744 -7.57328e-05 0.00458973 7.75216e-18 0.00458973)
(0.00458973 -0.00212744 -7.57328e-05 0.00458973 4.55278e-18 0.00458973)
(0.00458485 -0.00212522 -7.67572e-05 0.00458485 7.98199e-18 0.00458485)
(0.00458485 -0.00212522 -7.67572e-05 0.00458485 4.71451e-18 0.00458485)
(0.00457969 -0.00212288 -7.77909e-05 0.00457969 8.31834e-18 0.00457969)
(0.00457969 -0.00212288 -7.77909e-05 0.00457969 5.01726e-18 0.00457969)
(0.00457427 -0.00212043 -7.88341e-05 0.00457427 8.54981e-18 0.00457427)
(0.00457427 -0.00212043 -7.88341e-05 0.00457427 5.27235e-18 0.00457427)
(0.00456858 -0.00211787 -7.98869e-05 0.00456858 8.53524e-18 0.00456858)
(0.00456858 -0.00211787 -7.98869e-05 0.00456858 5.16441e-18 0.00456858)
(0.00456263 -0.00211519 -8.09494e-05 0.00456263 8.75959e-18 0.00456263)
(0.00456263 -0.00211519 -8.09494e-05 0.00456263 5.14825e-18 0.00456263)
(0.00455643 -0.00211241 -8.20217e-05 0.00455643 9.22553e-18 0.00455643)
(0.00455643 -0.00211241 -8.20217e-05 0.00455643 5.52832e-18 0.00455643)
(0.00454999 -0.00210953 -8.31039e-05 0.00454999 9.49447e-18 0.00454999)
(0.00454999 -0.00210953 -8.31039e-05 0.00454999 5.80034e-18 0.00454999)
(0.00454331 -0.00210654 -8.4196e-05 0.00454331 9.73534e-18 0.00454331)
(0.00454331 -0.00210654 -8.4196e-05 0.00454331 5.78345e-18 0.00454331)
(0.00453639 -0.00210345 -8.52982e-05 0.00453639 1.00709e-17 0.00453639)
(0.00453639 -0.00210345 -8.52982e-05 0.00453639 5.98226e-18 0.00453639)
(0.00452925 -0.00210027 -8.64106e-05 0.00452925 1.01798e-17 0.00452925)
(0.00452925 -0.00210027 -8.64106e-05 0.00452925 6.37867e-18 0.00452925)
(0.00452188 -0.00209699 -8.75332e-05 0.00452188 1.02393e-17 0.00452188)
(0.00452188 -0.00209699 -8.75332e-05 0.00452188 6.45244e-18 0.00452188)
(0.0045143 -0.00209362 -8.86662e-05 0.0045143 1.08351e-17 0.0045143)
(0.0045143 -0.00209362 -8.86662e-05 0.0045143 6.44489e-18 0.0045143)
(0.0045065 -0.00209015 -8.98096e-05 0.0045065 1.10507e-17 0.0045065)
(0.0045065 -0.00209015 -8.98096e-05 0.0045065 6.91542e-18 0.0045065)
(0.00449849 -0.0020866 -9.09636e-05 0.00449849 1.08578e-17 0.00449849)
(0.00449849 -0.0020866 -9.09636e-05 0.00449849 7.28627e-18 0.00449849)
(0.00449028 -0.00208296 -9.21281e-05 0.00449028 1.13208e-17 0.00449028)
(0.00449028 -0.00208296 -9.21281e-05 0.00449028 7.24189e-18 0.00449028)
(0.00448187 -0.00207923 -9.33034e-05 0.00448187 1.1667e-17 0.00448187)
(0.00448187 -0.00207923 -9.33034e-05 0.00448187 7.57451e-18 0.00448187)
(0.00447326 -0.00207542 -9.44895e-05 0.00447326 1.17304e-17 0.00447326)
(0.00447326 -0.00207542 -9.44895e-05 0.00447326 7.91898e-18 0.00447326)
(0.00446447 -0.00207153 -9.56864e-05 0.00446447 1.15457e-17 0.00446447)
(0.00446447 -0.00207153 -9.56864e-05 0.00446447 7.90205e-18 0.00446447)
(0.00445548 -0.00206755 -9.68943e-05 0.00445548 8.39701e-18 0.00445548)
(0.00445548 -0.00206755 -9.68943e-05 0.00445548 8.16207e-18 0.00445548)
(0.00444631 -0.0020635 -9.81133e-05 0.00444631 5.58737e-18 0.00444631)
(0.00444631 -0.0020635 -9.81133e-05 0.00444631 8.38735e-18 0.00444631)
(0.00443697 -0.00205937 -9.93434e-05 0.00443697 5.56199e-18 0.00443697)
(0.00443697 -0.00205937 -9.93434e-05 0.00443697 8.55989e-18 0.00443697)
(0.00442745 -0.00205516 -0.000100585 0.00442745 5.4526e-18 0.00442745)
(0.00442745 -0.00205516 -0.000100585 0.00442745 8.93505e-18 0.00442745)
(0.00441775 -0.00205087 -0.000101837 0.00441775 5.26667e-18 0.00441775)
(0.00441775 -0.00205087 -0.000101837 0.00441775 9.30296e-18 0.00441775)
(0.00440789 -0.00204652 -0.000103101 0.00440789 5.20102e-18 0.00440789)
(0.00440789 -0.00204652 -0.000103101 0.00440789 9.63653e-18 0.00440789)
(0.00439786 -0.00204209 -0.000104377 0.00439786 5.33092e-18 0.00439786)
(0.00439786 -0.00204209 -0.000104377 0.00439786 9.68349e-18 0.00439786)
(0.00438767 -0.00203759 -0.000105664 0.00438767 5.57896e-18 0.00438767)
(0.00438767 -0.00203759 -0.000105664 0.00438767 9.87e-18 0.00438767)
(0.00437732 -0.00203302 -0.000106962 0.00437732 6.12071e-18 0.00437732)
(0.00437732 -0.00203302 -0.000106962 0.00437732 1.0184e-17 0.00437732)
(0.00436681 -0.00202838 -0.000108273 0.00436681 5.98857e-18 0.00436681)
(0.00436681 -0.00202838 -0.000108273 0.00436681 1.04448e-17 0.00436681)
(0.00435615 -0.00202367 -0.000109595 0.00435615 5.15479e-18 0.00435615)
(0.00435615 -0.00202367 -0.000109595 0.00435615 1.13817e-17 0.00435615)
(0.00434534 -0.00201889 -0.000110928 0.00434534 5.25935e-18 0.00434534)
(0.00434534 -0.00201889 -0.000110928 0.00434534 1.2066e-17 0.00434534)
(0.00433438 -0.00201405 -0.000112274 0.00433438 6.4456e-18 0.00433438)
(0.00433438 -0.00201405 -0.000112274 0.00433438 1.15161e-17 0.00433438)
(0.00432328 -0.00200915 -0.000113632 0.00432328 6.86054e-18 0.00432328)
(0.00432328 -0.00200915 -0.000113632 0.00432328 1.15386e-17 0.00432328)
(0.00431203 -0.00200418 -0.000115001 0.00431203 6.64148e-18 0.00431203)
(0.00431203 -0.00200418 -0.000115001 0.00431203 1.2554e-17 0.00431203)
(0.00430064 -0.00199915 -0.000116383 0.00430064 6.63899e-18 0.00430064)
(0.00430064 -0.00199915 -0.000116383 0.00430064 1.26868e-17 0.00430064)
(0.00428912 -0.00199406 -0.000117777 0.00428912 5.82101e-18 0.00428912)
(0.00428912 -0.00199406 -0.000117777 0.00428912 1.26509e-17 0.00428912)
(0.00427745 -0.0019889 -0.000119183 0.00427745 5.24905e-18 0.00427745)
(0.00427745 -0.0019889 -0.000119183 0.00427745 1.33155e-17 0.00427745)
(0.00426566 -0.00198369 -0.000120601 0.00426566 5.46626e-18 0.00426566)
(0.00426566 -0.00198369 -0.000120601 0.00426566 1.34621e-17 0.00426566)
(0.00425373 -0.00197841 -0.000122032 0.00425373 4.72335e-18 0.00425373)
(0.00425373 -0.00197841 -0.000122032 0.00425373 1.34956e-17 0.00425373)
(0.00424167 -0.00197308 -0.000123475 0.00424167 4.23157e-18 0.00424167)
(0.00424167 -0.00197308 -0.000123475 0.00424167 1.42001e-17 0.00424167)
(0.00422949 -0.00196768 -0.00012493 0.00422949 4.5858e-18 0.00422949)
(0.00422949 -0.00196768 -0.00012493 0.00422949 1.44277e-17 0.00422949)
(0.00421718 -0.00196223 -0.000126398 0.00421718 4.1437e-18 0.00421718)
(0.00421718 -0.00196223 -0.000126398 0.00421718 1.48804e-17 0.00421718)
(0.00420474 -0.00195673 -0.000127878 0.00420474 3.49715e-18 0.00420474)
(0.00420474 -0.00195673 -0.000127878 0.00420474 1.57509e-17 0.00420474)
(0.00419218 -0.00195116 -0.000129371 0.00419218 2.80975e-18 0.00419218)
(0.00419218 -0.00195116 -0.000129371 0.00419218 1.61386e-17 0.00419218)
(0.0041795 -0.00194554 -0.000130876 0.0041795 2.33572e-18 0.0041795)
(0.0041795 -0.00194554 -0.000130876 0.0041795 1.64205e-17 0.0041795)
(0.0041667 -0.00193986 -0.000132394 0.0041667 2.38749e-18 0.0041667)
(0.0041667 -0.00193986 -0.000132394 0.0041667 1.7668e-17 0.0041667)
(0.00415379 -0.00193413 -0.000133924 0.00415379 2.46904e-18 0.00415379)
(0.00415379 -0.00193413 -0.000133924 0.00415379 1.84091e-17 0.00415379)
(0.00414075 -0.00192834 -0.000135467 0.00414075 2.44215e-18 0.00414075)
(0.00414075 -0.00192834 -0.000135467 0.00414075 1.86549e-17 0.00414075)
(0.0041276 -0.0019225 -0.000137023 0.0041276 2.81682e-18 0.0041276)
(0.0041276 -0.0019225 -0.000137023 0.0041276 1.97372e-17 0.0041276)
(0.00411434 -0.00191661 -0.000138591 0.00411434 3.19692e-18 0.00411434)
(0.00411434 -0.00191661 -0.000138591 0.00411434 1.99415e-17 0.00411434)
(0.00410096 -0.00191066 -0.000140172 0.00410096 2.0273e-18 0.00410096)
(0.00410096 -0.00191066 -0.000140172 0.00410096 2.05914e-17 0.00410096)
(0.00408747 -0.00190465 -0.000141765 0.00408747 1.40989e-18 0.00408747)
(0.00408747 -0.00190465 -0.000141765 0.00408747 2.15001e-17 0.00408747)
(0.00407387 -0.0018986 -0.000143371 0.00407387 1.83469e-18 0.00407387)
(0.00407387 -0.0018986 -0.000143371 0.00407387 2.16561e-17 0.00407387)
(0.00406016 -0.00189248 -0.00014499 0.00406016 1.40913e-18 0.00406016)
(0.00406016 -0.00189248 -0.00014499 0.00406016 2.18021e-17 0.00406016)
(0.00404634 -0.00188632 -0.000146621 0.00404634 5.3609e-19 0.00404634)
(0.00404634 -0.00188632 -0.000146621 0.00404634 2.22292e-17 0.00404634)
(0.00403241 -0.00188011 -0.000148264 0.00403241 -3.3372e-19 0.00403241)
(0.00403241 -0.00188011 -0.000148264 0.00403241 2.33948e-17 0.00403241)
(0.00401837 -0.00187384 -0.000149921 0.00401837 -7.43853e-19 0.00401837)
(0.00401837 -0.00187384 -0.000149921 0.00401837 2.42463e-17 0.00401837)
(0.00400422 -0.00186751 -0.000151589 0.00400422 -7.79073e-19 0.00400422)
(0.00400422 -0.00186751 -0.000151589 0.00400422 2.44758e-17 0.00400422)
(0.00398997 -0.00186114 -0.00015327 0.00398997 -8.46551e-19 0.00398997)
(0.00398997 -0.00186114 -0.00015327 0.00398997 2.48045e-17 0.00398997)
(0.00397562 -0.00185471 -0.000154964 0.00397562 -1.23767e-18 0.00397562)
(0.00397562 -0.00185471 -0.000154964 0.00397562 2.55962e-17 0.00397562)
(0.00396115 -0.00184823 -0.000156669 0.00396115 -1.95835e-18 0.00396115)
(0.00396115 -0.00184823 -0.000156669 0.00396115 2.64877e-17 0.00396115)
(0.00394658 -0.0018417 -0.000158387 0.00394658 -2.12369e-18 0.00394658)
(0.00394658 -0.0018417 -0.000158387 0.00394658 2.75865e-17 0.00394658)
(0.00393191 -0.00183511 -0.000160118 0.00393191 -2.47037e-18 0.00393191)
(0.00393191 -0.00183511 -0.000160118 0.00393191 2.80337e-17 0.00393191)
(0.00391713 -0.00182847 -0.00016186 0.00391713 -3.12137e-18 0.00391713)
(0.00391713 -0.00182847 -0.00016186 0.00391713 2.82013e-17 0.00391713)
(0.00390225 -0.00182178 -0.000163614 0.00390225 -3.74083e-18 0.00390225)
(0.00390225 -0.00182178 -0.000163614 0.00390225 2.94202e-17 0.00390225)
(0.00388726 -0.00181504 -0.00016538 0.00388726 -4.78551e-18 0.00388726)
(0.00388726 -0.00181504 -0.00016538 0.00388726 3.09536e-17 0.00388726)
(0.00387217 -0.00180824 -0.000167158 0.00387217 -5.1853e-18 0.00387217)
(0.00387217 -0.00180824 -0.000167158 0.00387217 3.11494e-17 0.00387217)
(0.00385698 -0.00180139 -0.000168947 0.00385698 -5.18299e-18 0.00385698)
(0.00385698 -0.00180139 -0.000168947 0.00385698 2.33247e-17 0.00385698)
(0.00384168 -0.00179448 -0.000170748 0.00384168 -6.29415e-18 0.00384168)
(0.00384168 -0.00179448 -0.000170748 0.00384168 1.24015e-17 0.00384168)
(0.00382627 -0.00178752 -0.00017256 0.00382627 -7.0491e-18 0.00382627)
(0.00382627 -0.00178752 -0.00017256 0.00382627 9.95673e-18 0.00382627)
(0.00381076 -0.0017805 -0.000174384 0.00381076 -6.42131e-18 0.00381076)
(0.00381076 -0.0017805 -0.000174384 0.00381076 9.40791e-18 0.00381076)
(0.00379515 -0.00177343 -0.000176218 0.00379515 -6.97578e-18 0.00379515)
(0.00379515 -0.00177343 -0.000176218 0.00379515 7.11443e-18 0.00379515)
(0.00377943 -0.00176631 -0.000178064 0.00377943 -9.40902e-18 0.00377943)
(0.00377943 -0.00176631 -0.000178064 0.00377943 9.92508e-18 0.00377943)
(0.00376361 -0.00175913 -0.000179919 0.00376361 -9.03345e-18 0.00376361)
(0.00376361 -0.00175913 -0.000179919 0.00376361 1.59088e-17 0.00376361)
(0.00374768 -0.00175189 -0.000181786 0.00374768 -7.66731e-18 0.00374768)
(0.00374768 -0.00175189 -0.000181786 0.00374768 1.9558e-17 0.00374768)
(0.00373164 -0.00174459 -0.000183662 0.00373164 -9.25627e-18 0.00373164)