/*--------------------------------*- C++ -*----------------------------------*\
| =========                 |                                                 |
| \\      /  F ield         | OpenFOAM: The Open Source CFD Toolbox           |
|  \\    /   O peration     | Version:  2012                                  |
|   \\  /    A nd           | Website:  www.openfoam.com                      |
|    \\/     M anipulation  |                                                 |
\*---------------------------------------------------------------------------*/
FoamFile
{
    version     2.0;
    format      ascii;
    class       volVectorField;
    location    "11900";
    object      U;
}
// * * * * * * * * * * * * * * * * * * * * * * * * * * * * * * * * * * * * * //

dimensions      [0 1 -1 0 0 0 0];


internalField   nonuniform List<vector> 
2560
(
(0.0667397 1.21932e-08 -6.04139e-08)
(0.0667397 -2.51322e-09 3.99139e-22)
(0.200987 3.27861e-08 -9.25387e-08)
(0.200987 7.91635e-09 -1.45775e-10)
(0.336974 3.92858e-08 -8.91091e-08)
(0.336974 2.59463e-08 -6.01778e-10)
(0.474715 2.57567e-08 -7.17452e-08)
(0.474715 1.10455e-08 -1.44585e-09)
(0.614215 6.42052e-09 -4.61724e-08)
(0.614216 -1.19083e-08 -2.1441e-09)
(0.755483 3.0254e-10 -2.71486e-08)
(0.755483 -1.98121e-08 -2.5767e-09)
(0.898527 4.51108e-09 -1.62253e-08)
(0.898527 -1.65373e-08 -2.9237e-09)
(1.04337 8.27763e-09 -9.84286e-09)
(1.04337 -1.34085e-08 -3.32293e-09)
(1.19003 9.85436e-09 -5.60646e-09)
(1.19003 -1.23763e-08 -6.49737e-10)
(1.33856 1.17828e-08 -2.34688e-09)
(1.33856 -1.08481e-08 1.62796e-09)
(1.48899 1.2424e-08 5.08237e-10)
(1.48899 -1.05571e-08 3.82471e-09)
(1.64139 1.3116e-08 3.26786e-09)
(1.64139 -1.01587e-08 6.11926e-09)
(1.79581 1.37372e-08 6.11772e-09)
(1.79581 -9.8037e-09 8.62683e-09)
(1.95233 1.39918e-08 9.18634e-09)
(1.95233 -9.78442e-09 1.14352e-08)
(2.11102 1.44007e-08 1.03915e-08)
(2.11102 -9.5953e-09 1.46189e-08)
(2.27196 1.44468e-08 1.16314e-08)
(2.27196 -9.75239e-09 1.8247e-08)
(2.43523 1.48548e-08 1.29953e-08)
(2.43523 -9.53496e-09 2.23867e-08)
(2.60092 1.50185e-08 1.44925e-08)
(2.60092 -9.55311e-09 2.23471e-08)
(2.76911 1.4946e-08 1.61268e-08)
(2.76911 -9.79903e-09 2.11283e-08)
(2.93989 1.51749e-08 1.79038e-08)
(2.93989 -9.73777e-09 2.01052e-08)
(3.11335 1.55039e-08 1.9837e-08)
(3.11335 -9.56965e-09 1.98368e-08)
(3.28956 1.5437e-08 2.19358e-08)
(3.28956 -9.7964e-09 2.19357e-08)
(3.46859 1.51381e-08 2.42011e-08)
(3.46859 -1.02472e-08 2.42009e-08)
(3.65053 1.5879e-08 2.66467e-08)
(3.65053 -9.65968e-09 2.66465e-08)
(3.83541 1.57223e-08 2.92906e-08)
(3.83541 -9.96577e-09 2.92904e-08)
(4.0233 1.56722e-08 3.21382e-08)
(4.0233 -1.01635e-08 3.2138e-08)
(4.21423 1.53303e-08 3.51926e-08)
(4.21423 -1.06529e-08 3.51924e-08)
(4.40821 1.63473e-08 3.84753e-08)
(4.40821 -9.78082e-09 3.84751e-08)
(4.60526 1.57483e-08 4.20053e-08)
(4.60526 -1.05274e-08 4.20051e-08)
(4.80537 1.60099e-08 4.57888e-08)
(4.80537 -1.04111e-08 4.57886e-08)
(5.0085 1.54298e-08 4.98334e-08)
(5.0085 -1.11374e-08 4.98331e-08)
(5.21459 1.66239e-08 5.41633e-08)
(5.21459 -1.00904e-08 5.41631e-08)
(5.42359 1.58795e-08 5.88026e-08)
(5.42359 -1.09829e-08 5.88023e-08)
(5.63539 1.60013e-08 6.37554e-08)
(5.63539 -1.10112e-08 6.37552e-08)
(5.84986 1.58249e-08 6.90379e-08)
(5.84986 -1.13371e-08 6.90376e-08)
(6.06686 1.6686e-08 7.46805e-08)
(6.06686 -1.06297e-08 7.46803e-08)
(6.28621 1.60642e-08 8.07082e-08)
(6.28621 -1.14054e-08 8.07079e-08)
(6.50771 1.60452e-08 8.71286e-08)
(6.50771 -1.15825e-08 8.71283e-08)
(6.73113 1.60233e-08 9.39626e-08)
(6.73113 -1.17627e-08 9.39623e-08)
(6.95619 1.6698e-08 1.01246e-07)
(6.95619 -1.12512e-08 1.01246e-07)
(7.18261 1.64496e-08 1.09013e-07)
(7.18261 -1.16648e-08 1.09012e-07)
(7.41006 1.60985e-08 1.17276e-07)
(7.41006 -1.21847e-08 1.17276e-07)
(7.63819 1.59907e-08 1.26054e-07)
(7.63819 -1.24654e-08 1.26053e-07)
(7.86661 1.73464e-08 1.354e-07)
(7.86661 -1.12852e-08 1.35399e-07)
(8.09492 1.55019e-08 1.45336e-07)
(8.09492 -1.33105e-08 1.45335e-07)
(8.32266 1.76209e-08 1.55897e-07)
(8.32266 -1.13773e-08 1.55897e-07)
(8.54937 1.47219e-08 1.67102e-07)
(8.54937 -1.44645e-08 1.67101e-07)
(8.77455 1.87057e-08 1.79005e-07)
(8.77455 -1.06758e-08 1.79005e-07)
(8.99767 1.62338e-08 1.9168e-07)
(8.99767 -1.33493e-08 1.91679e-07)
(9.21819 1.44624e-08 2.05063e-07)
(9.21819 -1.53221e-08 2.05063e-07)
(9.43553 1.59354e-08 2.1918e-07)
(9.43553 -1.40679e-08 2.19179e-07)
(9.64912 2.54161e-08 2.34328e-07)
(9.64912 -4.80063e-09 2.34328e-07)
(9.85834 1.94406e-09 2.50216e-07)
(9.85834 -2.84954e-08 2.50216e-07)
(10.0626 3.05019e-08 2.66988e-07)
(10.0626 -1.72948e-10 2.66988e-07)
(10.2612 8.55804e-09 2.84854e-07)
(10.2612 -2.23506e-08 2.84853e-07)
(10.4535 1.73932e-08 3.03508e-07)
(10.4535 -1.37748e-08 3.03508e-07)
(10.639 2.2247e-08 3.23327e-07)
(10.639 -9.16106e-09 3.23326e-07)
(10.8169 6.24933e-09 3.44052e-07)
(10.8169 -2.54308e-08 3.44051e-07)
(10.9866 2.56908e-08 3.65777e-07)
(10.9866 -6.25443e-09 3.65776e-07)
(11.1475 9.53865e-09 3.88607e-07)
(11.1475 -2.26976e-08 3.88607e-07)
(11.299 2.2874e-08 4.12467e-07)
(11.299 -9.64172e-09 4.12466e-07)
(11.4405 1.14943e-08 4.37406e-07)
(11.4405 -2.13264e-08 4.37406e-07)
(11.5714 1.10124e-08 4.63071e-07)
(11.5714 -2.213e-08 4.6307e-07)
(11.6912 2.72553e-08 4.89868e-07)
(11.6912 -6.18134e-09 4.89867e-07)
(11.7994 7.87557e-09 5.17686e-07)
(11.7994 -2.5914e-08 5.17686e-07)
(11.8955 1.0678e-08 5.45984e-07)
(11.8955 -2.34521e-08 5.45983e-07)
(11.9792 2.83039e-08 5.75294e-07)
(11.9792 -6.16701e-09 5.75293e-07)
(12.0502 -7.36399e-09 6.05025e-07)
(12.0502 -4.22114e-08 6.05024e-07)
(12.1081 4.69868e-08 6.35651e-07)
(12.1081 1.17729e-08 6.3565e-07)
(12.1528 -2.96916e-08 6.66446e-07)
(12.1528 -6.52967e-08 6.66444e-07)
(12.1841 5.98506e-08 6.97692e-07)
(12.1841 2.3852e-08 6.9769e-07)
(12.2019 -3.0596e-08 7.29343e-07)
(12.2019 -6.70084e-08 7.29342e-07)
(12.2064 5.07787e-08 7.61012e-07)
(12.2064 1.39501e-08 7.61011e-07)
(12.1977 -1.91928e-08 7.93066e-07)
(12.1977 -5.64575e-08 7.93065e-07)
(12.1758 3.98903e-08 8.25093e-07)
(12.1758 2.18672e-09 8.25092e-07)
(12.1411 -1.09787e-08 8.57389e-07)
(12.1411 -4.91389e-08 8.57388e-07)
(12.094 2.57134e-08 8.89457e-07)
(12.094 -1.29088e-08 8.89455e-07)
(12.0348 7.80266e-09 9.21988e-07)
(12.0348 -3.13015e-08 9.21986e-07)
(11.9641 6.47342e-09 9.54349e-07)
(11.9641 -3.31206e-08 9.54348e-07)
(11.8824 2.64079e-08 9.87256e-07)
(11.8824 -1.36773e-08 9.87254e-07)
(11.7902 -1.36361e-08 1.02007e-06)
(11.7902 -5.42423e-08 1.02006e-06)
(11.6883 4.19546e-08 1.05339e-06)
(11.6883 8.31316e-10 1.05339e-06)
(11.5774 -1.86045e-08 1.08716e-06)
(11.5774 -6.02684e-08 1.08716e-06)
(11.458 3.53123e-08 1.12118e-06)
(11.458 -6.89937e-09 1.12118e-06)
(11.331 -6.88149e-09 1.15599e-06)
(11.331 -4.96572e-08 1.15599e-06)
(11.1971 3.13013e-08 1.1915e-06)
(11.1971 -1.20501e-08 1.19149e-06)
(11.057 -9.7512e-09 1.22769e-06)
(11.057 -5.36899e-08 1.22768e-06)
(10.9114 3.4258e-08 1.26471e-06)
(10.9114 -1.02928e-08 1.26471e-06)
(10.7611 -1.27866e-08 1.30254e-06)
(10.7611 -5.79493e-08 1.30254e-06)
(10.6067 3.34138e-08 1.34114e-06)
(10.6067 -1.23956e-08 1.34114e-06)
(10.4489 -9.45849e-10 1.38109e-06)
(10.4489 -4.74e-08 1.38109e-06)
(10.2884 2.15405e-08 1.4219e-06)
(10.2884 -2.55996e-08 1.4219e-06)
(10.1256 6.1773e-09 1.46392e-06)
(10.1256 -4.16315e-08 1.46392e-06)
(9.96119 9.43829e-09 1.50662e-06)
(9.96119 -3.91168e-08 1.50662e-06)
(9.79567 2.9791e-08 1.55105e-06)
(9.79567 -1.94517e-08 1.55105e-06)
(9.62951 -8.2469e-09 1.59646e-06)
(9.62951 -5.82886e-08 1.59645e-06)
(9.46315 2.59903e-08 1.64261e-06)
(9.46315 -2.47762e-08 1.64261e-06)
(9.29698 1.34324e-08 1.69052e-06)
(9.29698 -3.82016e-08 1.69052e-06)
(9.13137 3.56934e-09 1.73913e-06)
(9.13137 -4.88109e-08 1.73912e-06)
(8.96663 3.22269e-08 1.78926e-06)
(8.96663 -2.10936e-08 1.78926e-06)
(8.80304 -2.06051e-09 1.84066e-06)
(8.80304 -5.61571e-08 1.84065e-06)
(8.64085 1.87355e-08 1.89258e-06)
(8.64085 -3.63935e-08 1.89258e-06)
(8.48029 1.9122e-08 1.94602e-06)
(8.48029 -3.68085e-08 1.94601e-06)
(8.32152 1.21505e-08 2.0006e-06)
(8.32152 -4.4903e-08 2.0006e-06)
(8.16472 1.35124e-08 2.05597e-06)
(8.16472 -4.43744e-08 2.05597e-06)
(8.01002 2.39407e-08 2.11265e-06)
(8.01002 -3.51888e-08 2.11265e-06)
(7.85752 4.75175e-09 2.17012e-06)
(7.85752 -5.52107e-08 2.17012e-06)
(7.70731 2.85292e-08 2.2285e-06)
(7.70731 -3.28417e-08 2.2285e-06)
(7.55947 1.14808e-08 2.28808e-06)
(7.55947 -5.06917e-08 2.28808e-06)
(7.41404 1.26973e-08 2.34788e-06)
(7.41404 -5.11064e-08 2.34788e-06)
(7.27107 3.11674e-08 2.40884e-06)
(7.27107 -3.33525e-08 2.40884e-06)
(7.13057 1.01127e-08 2.47074e-06)
(7.13057 -5.63182e-08 2.47074e-06)
(6.99257 1.86e-08 2.5327e-06)
(6.99257 -4.84362e-08 2.5327e-06)
(6.85707 3.30235e-08 2.5959e-06)
(6.85707 -3.62657e-08 2.59589e-06)
(6.72405 -3.62835e-09 2.6589e-06)
(6.72405 -7.33284e-08 2.65889e-06)
(6.59351 5.80899e-08 2.72297e-06)
(6.59351 -1.43244e-08 2.72296e-06)
(6.46543 -1.8868e-08 2.7871e-06)
(6.46543 -9.13927e-08 2.7871e-06)
(6.33978 7.07139e-08 2.85181e-06)
(6.33978 -5.13406e-09 2.8518e-06)
(6.21654 -3.0568e-08 2.91624e-06)
(6.21654 -1.06069e-07 2.91624e-06)
(6.09566 8.39484e-08 2.98091e-06)
(6.09566 4.31029e-09 2.98091e-06)
(5.97713 -2.47409e-08 3.04611e-06)
(5.97713 -1.03358e-07 3.0461e-06)
(5.86089 7.04441e-08 3.11061e-06)
(5.86089 -1.34131e-08 3.1106e-06)
(5.74691 -1.04332e-09 3.17583e-06)
(5.74691 -8.28881e-08 3.17583e-06)
(5.63515 4.65951e-08 3.23986e-06)
(5.63515 -4.19935e-08 3.23985e-06)
(5.52557 2.55583e-08 3.30426e-06)
(5.52557 -5.95842e-08 3.30426e-06)
(5.41812 3.76242e-08 3.36812e-06)
(5.41812 -5.63212e-08 3.36811e-06)
(5.31276 2.29444e-08 3.43098e-06)
(5.31276 -6.54934e-08 3.43098e-06)
(5.20947 6.13031e-08 3.49418e-06)
(5.20947 -3.87744e-08 3.49415e-06)
(5.10819 -7.92109e-10 3.55575e-06)
(5.10819 -9.2414e-08 3.55576e-06)
(5.0089 8.18741e-08 3.61675e-06)
(5.0089 -2.53123e-08 3.61672e-06)
(4.91156 -1.96611e-09 3.67684e-06)
(4.91156 -9.65027e-08 3.67686e-06)
(4.81615 9.11878e-08 3.73626e-06)
(4.81615 -2.43592e-08 3.73622e-06)
(4.72263 -1.73333e-08 3.79356e-06)
(4.72263 -1.14268e-07 3.79359e-06)
(4.63098 1.15522e-07 3.85003e-06)
(4.63098 -1.00067e-08 3.84998e-06)
(4.54118 -2.66711e-08 3.90469e-06)
(4.54118 -1.25144e-07 3.90473e-06)
(4.4532 1.34445e-07 3.95842e-06)
(4.4532 -3.2035e-09 3.95834e-06)
(4.36702 -4.65925e-08 4.00933e-06)
(4.36702 -1.45227e-07 4.0094e-06)
(4.28261 1.67241e-07 4.05937e-06)
(4.28261 1.46223e-08 4.05926e-06)
(4.19996 -7.56707e-08 4.10587e-06)
(4.19996 -1.72359e-07 4.10598e-06)
(4.11905 2.11097e-07 4.15165e-06)
(4.11905 3.96676e-08 4.15149e-06)
(4.03985 -1.11318e-07 4.19347e-06)
(4.03985 -2.02894e-07 4.19362e-06)
(3.96235 2.63402e-07 4.23483e-06)
(3.96235 6.79303e-08 4.23461e-06)
(3.88653 -1.61393e-07 4.27123e-06)
(3.88653 -2.43167e-07 4.27146e-06)
(3.81239 3.30151e-07 4.30737e-06)
(3.81239 1.03452e-07 4.30706e-06)
(3.73991 -2.27469e-07 4.33727e-06)
(3.73991 -2.92577e-07 4.33761e-06)
(3.66909 4.29303e-07 4.36853e-06)
(3.66909 1.61437e-07 4.36809e-06)
(3.59992 -3.37054e-07 4.39118e-06)
(3.59992 -3.75501e-07 4.39167e-06)
(3.53239 5.72914e-07 4.41682e-06)
(3.53239 2.50026e-07 4.41618e-06)
(3.4665 -4.84433e-07 4.43196e-06)
(3.4665 -4.81704e-07 4.4327e-06)
(3.40225 7.53898e-07 4.45169e-06)
(3.40225 3.5652e-07 4.45076e-06)
(3.33965 -6.8019e-07 4.45777e-06)
(3.33965 -6.15282e-07 4.45885e-06)
(3.27867 9.96881e-07 4.47127e-06)
(3.27867 4.97614e-07 4.46991e-06)
(3.21934 -9.46459e-07 4.4669e-06)
(3.21934 -7.89135e-07 4.46849e-06)
(3.16163 1.32559e-06 4.4743e-06)
(3.16163 6.85758e-07 4.47232e-06)
(3.10556 -1.31388e-06 4.45779e-06)
(3.10556 -1.02061e-06 4.46013e-06)
(3.05111 1.77282e-06 4.45916e-06)
(3.05111 9.37538e-07 4.45626e-06)
(2.99828 -1.81474e-06 4.42869e-06)
(2.99828 -1.3228e-06 4.43213e-06)
(2.94705 2.36937e-06 4.42391e-06)
(2.94705 1.26043e-06 4.41966e-06)
(2.8974 -2.47842e-06 4.37752e-06)
(2.8974 -1.69739e-06 4.3826e-06)
(2.8493 3.15832e-06 4.36798e-06)
(2.8493 1.66395e-06 4.36173e-06)
(2.80269 -3.38025e-06 4.30143e-06)
(2.80269 -2.17966e-06 4.30894e-06)
(2.75752 4.24473e-06 4.28978e-06)
(2.75752 2.20456e-06 4.28056e-06)
(2.71372 -4.63444e-06 4.19878e-06)
(2.71372 -2.82567e-06 4.2099e-06)
(2.67121 5.73662e-06 4.18722e-06)
(2.67121 2.91996e-06 4.17359e-06)
(2.62989 -6.34878e-06 4.06665e-06)
(2.62989 -3.65887e-06 4.08314e-06)
(2.58967 7.77486e-06 4.06099e-06)
(2.58967 3.84882e-06 4.04077e-06)
(2.55047 -8.73159e-06 3.90058e-06)
(2.55047 -4.76463e-06 3.92509e-06)
(2.5122 1.06116e-05 3.90731e-06)
(2.5122 5.09442e-06 3.87727e-06)
(2.47479 -1.2012e-05 3.69969e-06)
(2.47479 -6.19262e-06 3.7362e-06)
(2.4382 1.4476e-05 3.72935e-06)
(2.4382 6.66828e-06 3.68458e-06)
(2.40239 -1.6517e-05 3.45744e-06)
(2.40239 -8.00718e-06 3.51197e-06)
(2.36736 1.98033e-05 3.52584e-06)
(2.36736 8.68709e-06 3.45896e-06)
(2.33314 -2.27204e-05 3.17143e-06)
(2.33314 -1.02963e-05 3.25306e-06)
(2.29974 2.7104e-05 3.30014e-06)
(2.29974 1.11929e-05 3.19993e-06)
(2.2672 -3.12356e-05 2.83454e-06)
(2.2672 -1.31054e-05 2.9571e-06)
(2.23557 3.7157e-05 3.05999e-06)
(2.23557 1.42737e-05 2.90942e-06)
(2.20486 -4.30169e-05 2.44195e-06)
(2.20486 -1.65497e-05 2.62646e-06)
(2.1751 5.10664e-05 2.81283e-06)
(2.1751 1.80118e-05 2.58592e-06)
(2.14628 -5.93411e-05 1.98385e-06)
(2.14628 -2.06621e-05 2.26244e-06)
(2.11841 7.03544e-05 2.57298e-06)
(2.11841 2.24125e-05 2.22993e-06)
(2.09146 -8.20619e-05 1.44292e-06)
(2.09146 -2.54464e-05 1.86488e-06)
(2.06539 9.72663e-05 2.35807e-06)
(2.06539 2.74613e-05 1.83777e-06)
(2.04016 -0.000113844 8.10741e-07)
(2.04016 -3.08062e-05 1.43932e-06)
(2.0157 0.000134612 2.17871e-06)
(2.0157 3.29121e-05 1.40062e-06)
(1.99195 -0.000157713 5.73744e-07)
(1.99195 -3.6321e-05 9.91184e-07)
(1.96886 0.000173254 1.51396e-06)
(1.96886 3.81736e-05 9.09682e-07)
(1.94636 -0.000191566 3.17718e-07)
(1.94636 -4.13579e-05 1.01689e-06)
(1.92442 0.000201605 7.77221e-07)
(1.92442 4.25254e-05 8.43055e-07)
(1.90301 -0.000214471 4.14446e-08)
(1.90301 -4.52405e-05 1.29843e-06)
(1.88213 0.000218702 0)
(1.88213 4.53039e-05 1.36846e-06)
(1.86182 -0.000210381 7.13888e-07)
(1.86182 -4.73883e-05 9.53068e-07)
(1.8421 0.000209102 3.06511e-07)
(1.8421 4.61619e-05 1.22492e-06)
(1.823 -0.000194102 1.65094e-06)
(1.823 -4.75139e-05 9.37703e-07)
(1.80455 0.000186007 6.41921e-07)
(1.80455 4.512e-05 1.16321e-06)
(1.78674 -0.000164469 2.64293e-06)
(1.78674 -4.57916e-05 1.66598e-06)
(1.76958 0.00014924 1.0056e-06)
(1.76958 4.24978e-05 1.83523e-06)
(1.75307 -0.000129819 3.27123e-06)
(1.75307 -4.26753e-05 2.43012e-06)
(1.73717 0.000116277 1.83613e-06)
(1.73717 3.87719e-05 2.56642e-06)
(1.72185 -0.000100693 3.85514e-06)
(1.72185 -3.87556e-05 3.22499e-06)
(1.70705 9.07652e-05 2.81138e-06)
(1.70705 3.45229e-05 3.35782e-06)
(1.69264 -7.81516e-05 4.52242e-06)
(1.69264 -3.45857e-05 4.05277e-06)
(1.67849 7.10619e-05 3.79937e-06)
(1.67849 3.01889e-05 4.20635e-06)
(1.66443 -6.06836e-05 5.27399e-06)
(1.66443 -3.04575e-05 4.92591e-06)
(1.65027 5.58081e-05 4.81019e-06)
(1.65027 2.59681e-05 5.11189e-06)
(1.63584 -4.71059e-05 6.10564e-06)
(1.63584 -2.65351e-05 5.8492e-06)
(1.62096 4.40137e-05 5.85545e-06)
(1.62096 2.20306e-05 6.07812e-06)
(1.60551 -3.65589e-05 7.01006e-06)
(1.60551 -2.29617e-05 6.82234e-06)
(1.5894 3.4884e-05 6.93118e-06)
(1.5894 1.84429e-05 7.0949e-06)
(1.57265 -2.83276e-05 7.97768e-06)
(1.57265 -1.97653e-05 7.8412e-06)
(1.5553 2.77782e-05 8.03568e-06)
(1.5553 1.52001e-05 8.15575e-06)
(1.53738 -2.18611e-05 9.00269e-06)
(1.53738 -1.69428e-05 8.90421e-06)
(1.51892 2.22655e-05 9.17678e-06)
(1.51892 1.23382e-05 9.26474e-06)
(1.49989 -1.67904e-05 1.00821e-05)
(1.49989 -1.45266e-05 1.00116e-05)
(1.48024 1.80138e-05 1.03524e-05)
(1.48024 9.86459e-06 1.0417e-05)
(1.45988 -1.28119e-05 1.12085e-05)
(1.45988 -1.25046e-05 1.11587e-05)
(1.43874 1.47085e-05 1.1555e-05)
(1.43874 7.70926e-06 1.16025e-05)
(1.41673 -9.68136e-06 1.23795e-05)
(1.41673 -1.08425e-05 1.23449e-05)
(1.3938 1.21805e-05 1.2805e-05)
(1.3938 5.8781e-06 1.28402e-05)
(1.36986 -7.2083e-06 1.36233e-05)
(1.36986 -9.50233e-06 1.35998e-05)
(1.34489 1.02722e-05 1.41322e-05)
(1.34489 4.34064e-06 1.41587e-05)
(1.31892 -5.24013e-06 1.49637e-05)
(1.31892 -8.4421e-06 1.49483e-05)
(1.29206 8.79654e-06 1.55543e-05)
(1.29206 2.99832e-06 1.55748e-05)
(1.26453 -3.61492e-06 1.64232e-05)
(1.26453 -7.57782e-06 1.64137e-05)
(1.2366 7.67299e-06 1.71052e-05)
(1.2366 1.83208e-06 1.71214e-05)
(1.20852 -2.20696e-06 1.80251e-05)
(1.20852 -6.83967e-06 1.802e-05)
(1.18047 6.81516e-06 1.87819e-05)
(1.18047 7.97561e-07 1.87954e-05)
(1.15255 -1.02032e-06 1.97272e-05)
(1.15255 -6.27176e-06 1.97255e-05)
(1.1247 6.17668e-06 2.05274e-05)
(1.1247 -1.23423e-07 2.05391e-05)
(1.09674 -1.27138e-07 2.14731e-05)
(1.09674 -5.97521e-06 2.1474e-05)
(1.06848 5.78618e-06 2.23255e-05)
(1.06848 -8.83856e-07 2.2336e-05)
(1.03982 5.8258e-07 2.33067e-05)
(1.03982 -5.86149e-06 2.33096e-05)
(1.01079 5.58287e-06 2.42425e-05)
(1.01079 -1.53315e-06 2.42525e-05)
(0.981534 1.26111e-06 2.53045e-05)
(0.981533 -5.79471e-06 2.53091e-05)
(0.952209 5.44911e-06 2.63348e-05)
(0.952208 -2.18263e-06 2.63446e-05)
(0.922967 1.95129e-06 2.74901e-05)
(0.922966 -5.7451e-06 2.74961e-05)
(0.893936 5.37941e-06 2.86151e-05)
(0.893934 -2.83527e-06 2.8625e-05)
(0.865276 2.57929e-06 2.98524e-05)
(0.865275 -5.79746e-06 2.98597e-05)
(0.837192 5.35739e-06 3.10755e-05)
(0.83719 -3.50766e-06 3.10858e-05)
(0.809919 3.23677e-06 3.24207e-05)
(0.809918 -5.86985e-06 3.24292e-05)
(0.783651 5.49063e-06 3.37602e-05)
(0.783649 -4.09455e-06 3.37709e-05)
(0.758413 3.83381e-06 3.5183e-05)
(0.758412 -6.06112e-06 3.51926e-05)
(0.734048 5.71327e-06 3.65918e-05)
(0.734046 -4.6657e-06 3.66032e-05)
(0.71022 4.35359e-06 3.80533e-05)
(0.710218 -6.39654e-06 3.80641e-05)
(0.686477 5.94262e-06 3.95118e-05)
(0.686475 -5.30889e-06 3.95241e-05)
(0.662362 4.92008e-06 4.10485e-05)
(0.66236 -6.7606e-06 4.10606e-05)
(0.637499 6.30143e-06 4.26083e-05)
(0.637496 -5.90748e-06 4.26217e-05)
(0.611545 5.46299e-06 4.42405e-05)
(0.611543 -7.23237e-06 4.42538e-05)
(0.584247 6.68935e-06 4.59184e-05)
(0.584244 -6.56931e-06 4.59328e-05)
(0.555654 6.05893e-06 4.77015e-05)
(0.555651 -7.74501e-06 4.77158e-05)
(0.526242 7.14221e-06 4.95633e-05)
(0.526239 -7.26766e-06 4.95785e-05)
(0.496841 6.78747e-06 5.15569e-05)
(0.496838 -8.23028e-06 5.15721e-05)
(0.468379 7.68649e-06 5.36172e-05)
(0.468376 -7.98713e-06 5.36332e-05)
(0.441657 7.45204e-06 5.57721e-05)
(0.441653 -8.89763e-06 5.57882e-05)
(0.417357 8.32575e-06 5.80004e-05)
(0.417354 -8.73695e-06 5.80173e-05)
(0.395935 8.2377e-06 6.03085e-05)
(0.395932 -9.57618e-06 6.03255e-05)
(0.377274 9.05653e-06 6.26431e-05)
(0.377271 -9.53402e-06 6.26612e-05)
(0.360544 9.01852e-06 6.49948e-05)
(0.360541 -1.04063e-05 6.50131e-05)
(0.344592 9.80334e-06 6.73448e-05)
(0.344588 -1.04676e-05 6.73644e-05)
(0.328586 9.7119e-06 6.97148e-05)
(0.328583 -1.14856e-05 6.97346e-05)
(0.312572 1.06697e-05 7.21719e-05)
(0.312569 -1.14487e-05 7.21931e-05)
(0.297354 1.04076e-05 7.47255e-05)
(0.297351 -1.27402e-05 7.47467e-05)
(0.283981 1.18484e-05 7.74872e-05)
(0.283978 -1.22991e-05 7.75102e-05)
(0.273254 1.12716e-05 8.03542e-05)
(0.273252 -1.40206e-05 8.03771e-05)
(0.265594 1.30321e-05 8.33939e-05)
(0.265592 -1.33412e-05 8.34193e-05)
(0.261181 1.25269e-05 8.65462e-05)
(0.26118 -1.51207e-05 8.65714e-05)
(0.259732 1.43922e-05 8.97245e-05)
(0.259731 -1.4418e-05 8.97536e-05)
(0.260508 1.37072e-05 9.28193e-05)
(0.260509 -1.65242e-05 9.28483e-05)
(0.262704 1.58227e-05 9.58339e-05)
(0.262704 -1.56512e-05 9.58682e-05)
(0.26564 1.48125e-05 9.86749e-05)
(0.265641 -1.82509e-05 9.87089e-05)
(0.268705 1.71634e-05 0.000101451)
(0.268706 -1.72178e-05 0.000101492)
(0.271204 1.59758e-05 0.000104192)
(0.271205 -2.01911e-05 0.000104232)
(0.272318 1.88971e-05 0.000107065)
(0.272318 -1.86532e-05 0.000107114)
(0.271286 1.75122e-05 0.00010996)
(0.271284 -2.20564e-05 0.000110006)
(0.267519 2.09084e-05 0.000112914)
(0.267517 -2.00926e-05 0.000112971)
(0.260658 1.89502e-05 0.000115734)
(0.260654 -2.43469e-05 0.000115785)
(0.250661 2.2987e-05 0.000118612)
(0.250656 -2.17656e-05 0.000118676)
(0.237544 2.05192e-05 0.000121416)
(0.237536 -2.68627e-05 0.000121469)
(0.221194 2.53133e-05 0.00012438)
(0.221183 -2.35113e-05 0.00012445)
(0.201816 2.22213e-05 0.000127335)
(0.201803 -2.96319e-05 0.000127386)
(0.18006 2.79098e-05 0.000130558)
(0.180044 -2.53301e-05 0.00013063)
(0.156505 2.41559e-05 0.000133819)
(0.156486 -3.25839e-05 0.000133864)
(0.131241 3.09889e-05 0.000137375)
(0.131217 -2.70382e-05 0.000137445)
(0.103886 2.59658e-05 0.000140792)
(0.103856 -3.60973e-05 0.000140827)
(0.0742708 3.43022e-05 0.000144565)
(0.0742314 -2.89277e-05 0.000144625)
(0.0430053 2.79314e-05 0.000148229)
(0.0429553 -3.99007e-05 0.000148247)
(0.0113447 3.80648e-05 0.000152316)
(0.011284 -3.08503e-05 0.000152355)
(-0.0193301 2.9833e-05 0.000156054)
(-0.019393 -4.42396e-05 0.000156053)
(-0.048069 4.2304e-05 0.000160208)
(-0.0481209 -3.27945e-05 0.00016025)
(-0.0739705 3.15173e-05 0.000163903)
(-0.0740089 -4.91665e-05 0.000163948)
(-0.0953655 4.74693e-05 0.00016822)
(-0.0953917 -3.46481e-05 0.000168279)
(-0.110299 3.25799e-05 0.000171667)
(-0.110314 -5.50778e-05 0.000171778)
(-0.117916 5.42092e-05 0.000176058)
(-0.117923 -3.61515e-05 0.000176105)
(-0.119324 3.27356e-05 0.000178943)
(-0.119325 -6.20533e-05 0.000179147)
(-0.117255 6.31387e-05 0.000183254)
(-0.117253 -3.73569e-05 0.000183222)
(-0.114903 3.03583e-05 0.000185144)
(-0.114902 -7.11151e-05 0.000185507)
(-0.114547 7.62516e-05 0.00019003)
(-0.114549 -3.7378e-05 0.000189808)
(-0.116498 2.46424e-05 0.000191073)
(-0.116502 -8.18163e-05 0.00019175)
(-0.119441 9.61521e-05 0.000196913)
(-0.119445 -3.55483e-05 0.00019631)
(-0.121593 1.13171e-05 0.000195471)
(-0.121594 -9.6121e-05 0.000196748)
(-0.121378 0.000127088 0.000202266)
(-0.121374 -3.10233e-05 0.00020092)
(-0.117754 -1.44559e-05 0.000196348)
(-0.117742 -0.000114774 0.000198715)
(-0.110485 0.000175374 0.000204473)
(-0.110465 -2.31901e-05 0.000201729)
(-0.100154 -6.20139e-05 0.000191278)
(-0.100124 -0.000140228 0.000195542)
(-0.0873341 0.00025174 0.000203301)
(-0.087291 -1.02879e-05 0.000198086)
(-0.0713519 -0.000143227 0.000181115)
(-0.0712864 -0.000173606 0.000188554)
(-0.0510692 0.000372459 0.000202245)
(-0.0509705 1.07856e-05 0.000192937)
(-0.0268965 -0.000275691 0.000167872)
(-0.0267546 -0.00021728 0.000180314)
(-0.000498797 0.000558496 0.000203324)
(-0.000338926 4.37183e-05 0.000187733)
(0.0257888 -0.000484515 0.000149414)
(0.0259232 -0.000277558 0.000169049)
(0.0495565 0.000837057 0.000204358)
(0.0496585 9.37047e-05 0.000179851)
(0.0697138 -0.000805142 0.000121191)
(0.0697927 -0.000358169 0.00015285)
(0.0868466 0.00125474 0.000207109)
(0.086908 0.000160626 0.000167439)
(0.10199 -0.00129318 8.00428e-05)
(0.102039 -0.000455656 0.0001317)
(0.114596 0.00187923 0.000213896)
(0.114632 0.00024384 0.000148967)
(0.123561 -0.00188105 6.07914e-05)
(0.123585 -0.00055649 0.00010618)
(0.129431 0.00246813 0.000185107)
(0.129449 0.000348378 0.000121367)
(0.1348 -0.00242785 4.47692e-05)
(0.134816 -0.000637957 7.60708e-05)
(0.141596 0.00301423 0.000160538)
(0.141609 0.000467626 8.43863e-05)
(0.148442 -0.00298664 7.1306e-05)
(0.148449 -0.000658742 4.16523e-05)
(0.152567 0.00331116 0.000116942)
(0.15257 0.000593009 3.23022e-05)
(0.0667396 -2.55999e-09 -1.55615e-21)
(0.0667396 1.01748e-08 3.13198e-08)
(0.200987 7.72813e-09 1.45869e-10)
(0.200987 2.89144e-08 4.81931e-08)
(0.336974 2.55549e-08 6.0176e-10)
(0.336974 3.6544e-08 4.62675e-08)
(0.474715 1.04754e-08 1.44576e-09)
(0.474715 2.41356e-08 3.69055e-08)
(0.614215 -1.26014e-08 2.14403e-09)
(0.614215 5.36337e-09 2.32299e-08)
(0.755482 -2.05832e-08 2.57667e-09)
(0.755482 -3.90629e-10 1.30184e-08)
(0.898527 -1.73571e-08 2.9237e-09)
(0.898526 4.0442e-09 7.01953e-09)
(1.04337 -1.42607e-08 3.29725e-09)
(1.04337 7.97023e-09 3.32293e-09)
(1.19003 -1.32549e-08 3.75295e-09)
(1.19003 9.66607e-09 6.49737e-10)
(1.33856 -1.17468e-08 2.34688e-09)
(1.33856 1.16892e-08 -1.62796e-09)
(1.48899 -1.14732e-08 -5.08237e-10)
(1.48899 1.24087e-08 -3.82471e-09)
(1.64139 -1.10895e-08 -3.26786e-09)
(1.64139 1.31679e-08 -6.11926e-09)
(1.79581 -1.07479e-08 -6.11772e-09)
(1.79581 1.3848e-08 -8.26319e-09)
(1.95233 -1.07408e-08 -9.18634e-09)
(1.95233 1.41558e-08 -9.2698e-09)
(2.11102 -1.05625e-08 -1.25732e-08)
(2.11102 1.46128e-08 -1.03914e-08)
(2.27196 -1.07303e-08 -1.63632e-08)
(2.27196 1.47034e-08 -1.16313e-08)
(2.43523 -1.05226e-08 -2.06341e-08)
(2.43523 1.51534e-08 -1.29952e-08)
(2.60092 -1.05502e-08 -2.13324e-08)
(2.60092 1.53561e-08 -1.44924e-08)
(2.76911 -1.08053e-08 -2.01689e-08)
(2.76911 1.53217e-08 -1.61267e-08)
(2.93989 -1.07529e-08 -1.91923e-08)
(2.93989 1.55858e-08 -1.79037e-08)
(3.11335 -1.05934e-08 -1.98368e-08)
(3.11335 1.59501e-08 -1.98369e-08)
(3.28956 -1.08287e-08 -2.19357e-08)
(3.28956 1.59168e-08 -2.19358e-08)
(3.46859 -1.12878e-08 -2.42009e-08)
(3.46859 1.56507e-08 -2.4201e-08)
(3.65053 -1.07086e-08 -2.66465e-08)
(3.65053 1.6424e-08 -2.66466e-08)
(3.83541 -1.10229e-08 -2.92904e-08)
(3.83541 1.62989e-08 -2.92905e-08)
(4.0233 -1.1229e-08 -3.2138e-08)
(4.0233 1.62803e-08 -3.21381e-08)
(4.21423 -1.17265e-08 -3.51924e-08)
(4.21423 1.59692e-08 -3.51925e-08)
(4.40821 -1.08628e-08 -3.84751e-08)
(4.40821 1.70174e-08 -3.84752e-08)
(4.60526 -1.16176e-08 -4.20051e-08)
(4.60526 1.64488e-08 -4.20052e-08)
(4.80537 -1.15099e-08 -4.57886e-08)
(4.80537 1.67413e-08 -4.57888e-08)
(5.00849 -1.22444e-08 -4.98331e-08)
(5.00849 1.61918e-08 -4.98332e-08)
(5.21459 -1.12063e-08 -5.41631e-08)
(5.21459 1.74167e-08 -5.41633e-08)
(5.42359 -1.21072e-08 -5.88023e-08)
(5.42359 1.67033e-08 -5.88025e-08)
(5.63539 -1.21447e-08 -6.37552e-08)
(5.63539 1.6856e-08 -6.37554e-08)
(5.84986 -1.24793e-08 -6.90376e-08)
(5.84986 1.67112e-08 -6.90377e-08)
(6.06686 -1.17814e-08 -7.46803e-08)
(6.06686 1.76037e-08 -7.46805e-08)
(6.28621 -1.25662e-08 -8.07079e-08)
(6.28621 1.70143e-08 -8.0708e-08)
(6.50771 -1.27531e-08 -8.71284e-08)
(6.50771 1.70274e-08 -8.71285e-08)
(6.73112 -1.29429e-08 -9.39623e-08)
(6.73112 1.70388e-08 -9.39625e-08)
(6.95619 -1.24417e-08 -1.01246e-07)
(6.95619 1.77465e-08 -1.01246e-07)
(7.1826 -1.28654e-08 -1.09012e-07)
(7.1826 1.75326e-08 -1.09012e-07)
(7.41006 -1.33961e-08 -1.17276e-07)
(7.41006 1.72156e-08 -1.17276e-07)
(7.63819 -1.36873e-08 -1.26053e-07)
(7.63819 1.71435e-08 -1.26053e-07)
(7.86661 -1.25187e-08 -1.35399e-07)
(7.86661 1.85347e-08 -1.354e-07)
(8.09491 -1.45551e-08 -1.45335e-07)
(8.09491 1.67276e-08 -1.45335e-07)
(8.32266 -1.26343e-08 -1.55897e-07)
(8.32266 1.88834e-08 -1.55897e-07)
(8.54937 -1.57332e-08 -1.67101e-07)
(8.54937 1.60236e-08 -1.67102e-07)
(8.77454 -1.19578e-08 -1.79005e-07)
(8.77454 2.00459e-08 -1.79005e-07)
(8.99767 -1.46438e-08 -1.91679e-07)
(8.99767 1.76154e-08 -1.9168e-07)
(9.21819 -1.66307e-08 -2.05063e-07)
(9.21819 1.58843e-08 -2.05063e-07)
(9.43553 -1.53901e-08 -2.19179e-07)
(9.43553 1.7401e-08 -2.1918e-07)
(9.64912 -6.1379e-09 -2.34328e-07)
(9.64912 2.69242e-08 -2.34328e-07)
(9.85834 -2.98473e-08 -2.50216e-07)
(9.85834 3.49845e-09 -2.50216e-07)
(10.0626 -1.54121e-09 -2.66988e-07)
(10.0626 3.2101e-08 -2.66988e-07)
(10.2612 -2.37345e-08 -2.84853e-07)
(10.2612 1.02065e-08 -2.84853e-07)
(10.4535 -1.51765e-08 -3.03508e-07)
(10.4535 1.90889e-08 -3.03508e-07)
(10.639 -1.05797e-08 -3.23326e-07)
(10.639 2.39951e-08 -3.23327e-07)
(10.8169 -2.68688e-08 -3.44051e-07)
(10.8169 8.04784e-09 -3.44052e-07)
(10.9866 -7.71071e-09 -3.65776e-07)
(10.9866 2.75448e-08 -3.65777e-07)
(11.1475 -2.41749e-08 -3.88607e-07)
(11.1475 1.14465e-08 -3.88607e-07)
(11.299 -1.11389e-08 -4.12466e-07)
(11.299 2.48407e-08 -4.12466e-07)
(11.4405 -2.28465e-08 -4.37406e-07)
(11.4405 1.35185e-08 -4.37406e-07)
(11.5714 -2.36715e-08 -4.6307e-07)
(11.5714 1.30991e-08 -4.63071e-07)
(11.6912 -7.74792e-09 -4.89867e-07)
(11.6912 2.94028e-08 -4.89868e-07)
(11.7994 -2.75035e-08 -5.17686e-07)
(11.7994 1.00899e-08 -5.17686e-07)
(11.8955 -2.50692e-08 -5.45983e-07)
(11.8955 1.29566e-08 -5.45984e-07)
(11.9792 -7.80869e-09 -5.75293e-07)
(11.9792 3.06534e-08 -5.75294e-07)
(12.0502 -4.38831e-08 -6.05024e-07)
(12.0502 -4.94633e-09 -6.05024e-07)
(12.1081 1.00744e-08 -6.3565e-07)
(12.1081 4.94791e-08 -6.35651e-07)
(12.1528 -6.70275e-08 -6.66444e-07)
(12.1528 -2.71272e-08 -6.66446e-07)
(12.1841 2.20919e-08 -6.9769e-07)
(12.1841 6.24931e-08 -6.97691e-07)
(12.2019 -6.88031e-08 -7.29342e-07)
(12.2019 -2.78774e-08 -7.29343e-07)
(12.2064 1.21234e-08 -7.61011e-07)
(12.2064 5.35789e-08 -7.61012e-07)
(12.1977 -5.83211e-08 -7.93065e-07)
(12.1977 -1.63127e-08 -7.93066e-07)
(12.1758 2.88212e-10 -8.25092e-07)
(12.1758 4.2855e-08 -8.25093e-07)
(12.1411 -5.10765e-08 -8.57388e-07)
(12.1411 -7.93036e-09 -8.57389e-07)
(12.094 -1.48846e-08 -8.89456e-07)
(12.094 2.88493e-08 -8.89457e-07)
(12.0348 -3.33189e-08 -9.21987e-07)
(12.0348 1.10259e-08 -9.21988e-07)
(11.9641 -3.51794e-08 -9.54348e-07)
(11.9641 9.78701e-09 -9.54349e-07)
(11.8824 -1.57803e-08 -9.87255e-07)
(11.8824 2.98121e-08 -9.87256e-07)
(11.7902 -5.639e-08 -1.02006e-06)
(11.7902 -1.01382e-08 -1.02007e-06)
(11.6883 -1.36343e-09 -1.05339e-06)
(11.6883 4.55461e-08 -1.05339e-06)
(11.5774 -6.25114e-08 -1.08716e-06)
(11.5774 -1.4916e-08 -1.08716e-06)
(11.458 -9.19221e-09 -1.12118e-06)
(11.458 3.90975e-08 -1.12118e-06)
(11.331 -5.2002e-08 -1.15599e-06)
(11.331 -2.99563e-09 -1.15599e-06)
(11.1971 -1.4448e-08 -1.19149e-06)
(11.1971 3.52875e-08 -1.1915e-06)
(11.057 -5.61436e-08 -1.22768e-06)
(11.057 -5.66061e-09 -1.22769e-06)
(10.9115 -1.28028e-08 -1.26471e-06)
(10.9115 3.84527e-08 -1.26471e-06)
(10.7611 -6.05191e-08 -1.30254e-06)
(10.7611 -8.48322e-09 -1.30254e-06)
(10.6067 -1.50256e-08 -1.34114e-06)
(10.6067 3.78258e-08 -1.34114e-06)
(10.4489 -5.00937e-08 -1.38109e-06)
(10.4489 3.57962e-09 -1.38109e-06)
(10.2884 -2.83574e-08 -1.4219e-06)
(10.2884 2.61795e-08 -1.4219e-06)
(10.1256 -4.44574e-08 -1.46392e-06)
(10.1256 1.09352e-08 -1.46392e-06)
(9.96119 -4.20111e-08 -1.50662e-06)
(9.96119 1.43157e-08 -1.50662e-06)
(9.79567 -2.24183e-08 -1.55105e-06)
(9.79567 3.47931e-08 -1.55105e-06)
(9.62952 -6.13282e-08 -1.59645e-06)
(9.62952 -3.11822e-09 -1.59646e-06)
(9.46316 -2.78929e-08 -1.64261e-06)
(9.46316 3.125e-08 -1.64261e-06)
(9.29699 -4.13958e-08 -1.69052e-06)
(9.29699 1.8827e-08 -1.69052e-06)
(9.13138 -5.20871e-08 -1.73912e-06)