/*--------------------------------*- C++ -*----------------------------------*\
| =========                 |                                                 |
| \\      /  F ield         | OpenFOAM: The Open Source CFD Toolbox           |
|  \\    /   O peration     | Version:  2012                                  |
|   \\  /    A nd           | Website:  www.openfoam.com                      |
|    \\/     M anipulation  |                                                 |
\*---------------------------------------------------------------------------*/
FoamFile
{
    version     2.0;
    format      ascii;
    class       volTensorField;
    location    "14000";
    object      grad(U);
}
// * * * * * * * * * * * * * * * * * * * * * * * * * * * * * * * * * * * * * //

dimensions      [0 0 -1 0 0 0 0];


internalField   nonuniform List<tensor> 
5120
(
(0 -2.50842e-24 -6.54708e-27 29.2005 -2.04836e-11 -1.71166e-13 0.0211791 -7.42498e-15 -4.2494e-17)
(-4.5619e-18 -3.65449e-28 -8.10357e-33 29.2005 -1.97215e-31 -1.44729e-13 0.0211791 7.70372e-34 7.36334e-17)
(0 0 1.35122e-31 29.2 6.46238e-27 -3.72176e-14 0.0636898 1.61393e-44 -5.43779e-17)
(0 -3.29539e-29 -6.4363e-32 29.2 -3.14868e-15 -1.23779e-13 0.0636898 -4.06922e-18 1.56765e-16)
(-2.81083e-18 -2.45379e-29 -1.00177e-31 29.1995 1.46805e-11 -1.56774e-14 0.0862531 -3.7971e-14 -3.78489e-17)
(1.79865e-17 1.63586e-29 6.39008e-32 29.1995 -8.63498e-17 -3.88479e-15 0.0862531 -2.66311e-18 1.59032e-16)
(1.78573e-17 -3.12573e-26 6.3442e-32 29.1992 -3.63507e-27 -1.25848e-14 0.0868759 0 -3.67644e-17)
(-1.78573e-17 -1.62411e-29 0 29.1992 -1.66962e-15 -3.92073e-15 0.0868759 -4.02314e-18 1.61329e-16)
(5.01087e-17 -6.14777e-29 -2.18866e-31 29.1989 3.68924e-13 -1.25167e-14 0.0875035 -2.13134e-15 -3.79905e-17)
(5.86021e-17 4.83736e-29 1.25973e-31 29.1989 -1.66437e-15 -3.95722e-15 0.0875035 -5.4007e-18 1.63658e-16)
(1.4569e-17 2.93173e-29 9.35727e-32 29.1986 -2.661e-14 -1.26822e-14 0.0881359 -2.25556e-16 -3.82969e-17)
(4.73346e-17 -1.60087e-29 0 29.1986 -1.6567e-15 -3.99363e-15 0.0881359 -6.78837e-18 1.66019e-16)
(-2.66618e-17 1.12104e-44 3.22044e-32 29.1985 3.52795e-27 -1.26637e-14 0.088773 6.31089e-30 -3.843e-17)
(0 -1.58938e-29 0 29.1985 -1.65674e-15 -4.03025e-15 0.088773 -8.21212e-18 1.68413e-16)
(-3.27326e-17 2.90105e-29 1.56629e-31 29.1984 8.10696e-15 -1.26445e-14 0.089415 -1.37873e-17 -3.87351e-17)
(-1.3093e-16 -2.36695e-29 -1.23278e-31 29.1984 -1.63867e-15 -4.06735e-15 0.089415 -9.62072e-18 1.70841e-16)
(-3.88472e-17 -2.49634e-30 3.4489e-32 29.1984 8.57208e-15 -1.26738e-14 0.0900619 -3.57653e-17 -3.9169e-17)
(0 1.56663e-29 0 29.1984 -1.62863e-15 -4.10481e-15 0.0900619 -1.10252e-17 1.73302e-16)
(-2.16056e-17 5.73394e-29 1.92777e-31 29.1985 4.82794e-15 -1.27354e-14 0.0907137 -1.68567e-17 -3.96801e-17)
(-2.48431e-16 -4.66615e-29 -1.21514e-31 29.1985 -1.61623e-15 -4.14302e-15 0.0907137 -1.25015e-17 1.75798e-16)
(0 -7.72107e-30 -1.20642e-31 29.1987 4.18355e-15 -1.28173e-14 0.0913705 -1.30201e-17 -4.02499e-17)
(4.09675e-16 1.54421e-29 1.20642e-31 29.1987 -1.62396e-15 -4.18134e-15 0.0913705 -1.3903e-17 1.78329e-16)
(5.74577e-17 2.32694e-30 -3.79484e-32 29.199 3.99164e-15 -1.29138e-14 0.0920323 -1.30685e-17 -4.0865e-17)
(-2.29831e-16 0 0 29.199 -1.68825e-15 -4.21988e-15 0.0920323 -1.53475e-17 1.80895e-16)
(1.27502e-16 1.21548e-29 4.06552e-32 29.1993 3.5558e-15 -1.30207e-14 0.0926992 -1.19993e-17 -4.15124e-17)
(2.55005e-16 -2.28317e-29 -1.18915e-31 29.1993 -1.64873e-15 -4.25944e-15 0.0926992 -1.68921e-17 1.83496e-16)
(0 0 0 29.1997 3.11246e-15 -1.31339e-14 0.0933712 -1.04909e-17 -4.21827e-17)
(2.80361e-16 7.55593e-30 1.18061e-31 29.1997 -1.53322e-15 -4.29776e-15 0.0933712 -1.83039e-17 1.86134e-16)
(-5.54956e-17 9.66503e-30 1.92875e-31 29.2002 2.82944e-15 -1.32511e-14 0.0940483 -9.33829e-18 -4.28698e-17)
(-1.31971e-16 0 0 29.2002 -1.44035e-15 -4.33685e-15 0.0940483 -1.9647e-17 1.88811e-16)
(-2.13929e-16 3.51294e-29 3.91911e-31 29.2009 2.68539e-15 -1.33706e-14 0.0947307 -8.82012e-18 -4.35704e-17)
(3.31625e-16 -1.48956e-29 0 29.2009 -1.36526e-15 -4.37859e-15 0.0947307 -2.094e-17 1.91524e-16)
(8.93842e-17 2.05634e-30 -4.40616e-32 29.2016 2.58287e-15 -1.34916e-14 0.0954183 -8.53928e-18 -4.42831e-17)
(7.15074e-16 -7.39432e-30 0 29.2016 -1.43143e-15 -4.42009e-15 0.0954183 -2.20637e-17 1.94273e-16)
(0 -7.34122e-30 -1.14707e-31 29.2024 2.53997e-15 -1.36138e-14 0.0961113 -8.2782e-18 -4.50074e-17)
(0 7.34122e-30 1.14707e-31 29.2024 -1.5512e-15 -4.45965e-15 0.0961113 -2.33146e-17 1.9706e-16)
(-1.28221e-16 1.4577e-29 3.41649e-31 29.2033 2.57442e-15 -1.37368e-14 0.0968096 -8.38088e-18 -4.57415e-17)
(-1.28221e-16 0 0 29.2033 -1.54638e-15 -4.50056e-15 0.0968096 -2.4707e-17 1.99889e-16)
(-2.18202e-16 5.40916e-29 2.09067e-31 29.2043 2.5245e-15 -1.38602e-14 0.0975133 -8.6268e-18 -4.6485e-17)
(0 -4.3417e-29 -1.13065e-31 29.2043 -1.58254e-15 -4.54356e-15 0.0975133 -2.61602e-17 2.02755e-16)
(-1.15769e-16 1.25213e-29 1.61615e-31 29.2054 2.43392e-15 -1.39842e-14 0.0982224 -8.16914e-18 -4.72394e-17)
(0 0 0 29.2054 -1.63315e-15 -4.58683e-15 0.0982224 -2.78918e-17 2.05659e-16)
(2.44971e-16 -3.20716e-29 -2.12944e-31 29.2066 2.45206e-15 -1.41087e-14 0.0989371 -8.14278e-18 -4.80033e-17)
(4.89941e-16 2.13978e-29 1.11447e-31 29.2066 -1.58234e-15 -4.62964e-15 0.0989371 -2.96218e-17 2.08605e-16)
(0 7.08139e-30 0 29.2079 2.43136e-15 -1.42336e-14 0.0996573 -8.41066e-18 -4.87774e-17)
(0 0 0 29.2079 -1.56682e-15 -4.67105e-15 0.0996573 -3.12487e-17 2.11593e-16)
(3.71048e-16 7.03054e-30 -1.09852e-31 29.2093 2.39039e-15 -1.43589e-14 0.100383 -8.11973e-18 -4.95617e-17)
(-6.67942e-16 -7.03054e-30 0 29.2093 -1.5626e-15 -4.71414e-15 0.100383 -3.29854e-17 2.14623e-16)
(0 1.39601e-29 1.09063e-31 29.2108 2.41977e-15 -1.44847e-14 0.101115 -8.25121e-18 -5.03562e-17)
(0 -6.98006e-30 0 29.2108 -1.69033e-15 -4.7599e-15 0.101115 -3.46278e-17 2.17694e-16)
(-4.49528e-16 4.37276e-29 2.77916e-31 29.2124 2.45787e-15 -1.46108e-14 0.101852 -8.44102e-18 -5.11608e-17)
(0 -2.77197e-29 -1.0828e-31 29.2124 -1.86105e-15 -4.80698e-15 0.101852 -3.62776e-17 2.20806e-16)
(0 -2.06405e-29 -2.15005e-31 29.2141 2.52025e-15 -1.47374e-14 0.102595 -8.63666e-18 -5.19763e-17)
(1.25446e-15 2.06405e-29 2.15005e-31 29.2141 -1.80897e-15 -4.85237e-15 0.102595 -3.8056e-17 2.23957e-16)
(7.65141e-17 -8.3261e-30 -1.5386e-31 29.2159 2.5652e-15 -1.48645e-14 0.103343 -9.00169e-18 -5.28026e-17)
(6.55288e-16 1.36615e-29 2.13461e-31 29.2159 -1.6612e-15 -4.89512e-15 0.103343 -3.95874e-17 2.27152e-16)
(0 0 0 29.2178 2.40541e-15 -1.49919e-14 0.104098 -9.08001e-18 -5.36387e-17)
(6.83553e-16 6.78171e-30 1.05964e-31 29.2178 -1.52666e-15 -4.93862e-15 0.104098 -4.0992e-17 2.30396e-16)
(2.36897e-16 2.0199e-29 1.05203e-31 29.2198 2.09666e-15 -1.51199e-14 0.104858 -7.99379e-18 -5.44878e-17)
(-9.48921e-16 -2.69321e-29 -2.10407e-31 29.2198 -1.34382e-15 -4.98328e-15 0.104858 -4.24748e-17 2.33683e-16)
(-3.70351e-16 3.07242e-29 2.33229e-31 29.2219 1.95283e-15 -1.52483e-14 0.105624 -6.99595e-18 -5.5346e-17)
(0 -2.0054e-29 -1.04448e-31 29.2219 -1.0533e-15 -5.02981e-15 0.105624 -4.36241e-17 2.37017e-16)
(2.33507e-16 1.991e-29 2.07396e-31 29.2241 2.02532e-15 -1.53771e-14 0.106396 -7.07013e-18 -5.62164e-17)
(5.36084e-16 -6.63666e-30 0 29.2241 -9.98424e-16 -5.07945e-15 0.106396 -4.44418e-17 2.40393e-16)
(1.99672e-16 -6.46358e-29 -4.79539e-31 29.2263 2.10311e-15 -1.55065e-14 0.107174 -7.62533e-18 -5.70981e-17)
(1.03052e-15 5.2712e-29 4.11813e-31 29.2263 -1.16523e-15 -5.12835e-15 0.107174 -4.54062e-17 2.43807e-16)
(-6.44166e-16 -1.54977e-29 -6.55512e-32 29.2286 2.17886e-15 -1.56356e-14 0.107958 -7.74329e-18 -5.79868e-17)
(1.88617e-15 1.96251e-29 2.04428e-31 29.2286 -1.33715e-15 -5.17423e-15 0.107958 -4.64325e-17 2.47268e-16)
(-2.14382e-16 1.83236e-29 2.7414e-31 29.2309 2.28562e-15 -1.57645e-14 0.108747 -8.29555e-18 -5.88861e-17)
(8.57527e-16 -1.29894e-29 -2.0296e-31 29.2309 -1.51253e-15 -5.22337e-15 0.108747 -4.77788e-17 2.50777e-16)
(-8.97378e-16 -1.51244e-29 -5.55964e-32 29.2333 2.19639e-15 -1.58936e-14 0.109543 -8.65006e-18 -5.97955e-17)
(2.22828e-15 1.93442e-29 0 29.2333 -1.47286e-15 -5.27143e-15 0.109543 -4.9247e-17 2.54329e-16)
(2.25242e-16 -1.28035e-29 -2.00055e-31 29.2357 2.0066e-15 -1.60227e-14 0.110344 -7.74729e-18 -6.07157e-17)
(0 1.28035e-29 2.00055e-31 29.2357 -1.32138e-15 -5.31567e-15 0.110344 -5.07823e-17 2.57929e-16)
(-1.32268e-17 1.80454e-29 7.65907e-32 29.2381 1.94387e-15 -1.61517e-14 0.111152 -7.34302e-18 -6.16449e-17)
(-2.23625e-16 0 0 29.2381 -1.28261e-15 -5.36587e-15 0.111152 -5.22954e-17 2.6158e-16)
(-2.44452e-16 5.33359e-30 7.8457e-32 29.2405 1.98118e-15 -1.62801e-14 0.111965 -7.38289e-18 -6.25802e-17)
(0 6.31016e-30 0 29.2405 -1.35707e-15 -5.41649e-15 0.111965 -5.36498e-17 2.65272e-16)
(2.20425e-16 0 0 29.2429 1.95451e-15 -1.64078e-14 0.112783 -7.73528e-18 -6.35245e-17)
(0 0 0 29.2429 -1.40518e-15 -5.46215e-15 0.112783 -5.51091e-17 2.69015e-16)
(2.59819e-16 1.95462e-29 1.12086e-31 29.2452 1.86289e-15 -1.65351e-14 0.113608 -7.28441e-18 -6.44783e-17)
(-1.03927e-15 -2.48794e-29 -1.94371e-31 29.2452 -1.3258e-15 -5.51135e-15 0.113608 -5.6623e-17 2.7281e-16)
(2.67587e-16 -1.15082e-29 -4.70198e-31 29.2474 1.85577e-15 -1.66613e-14 0.114438 -7.13575e-18 -6.54342e-17)
(0 6.1752e-30 3.8595e-31 29.2474 -1.23941e-15 -5.56246e-15 0.114438 -5.82945e-17 2.76643e-16)
(0 6.13085e-30 0 29.2495 1.93412e-15 -1.67864e-14 0.115274 -7.33445e-18 -6.64001e-17)
(0 0 1.91589e-31 29.2495 -1.3663e-15 -5.61108e-15 0.115274 -5.98729e-17 2.80526e-16)
(0 -1.82605e-29 -1.90213e-31 29.2514 2.00367e-15 -1.69108e-14 0.116115 -7.85695e-18 -6.73722e-17)
(0 1.82605e-29 1.90213e-31 29.2514 -1.46516e-15 -5.66004e-15 0.116115 -6.14889e-17 2.8446e-16)
(-2.91233e-16 -1.88401e-29 9.03298e-32 29.2532 1.99889e-15 -1.70341e-14 0.116961 -7.99305e-18 -6.83499e-17)
(0 1.81294e-29 3.77695e-31 29.2532 -1.36249e-15 -5.70726e-15 0.116961 -6.32454e-17 2.88441e-16)
(-2.99231e-16 5.33212e-30 9.24237e-32 29.2546 2.07981e-15 -1.7156e-14 0.117813 -7.93277e-18 -6.93316e-17)
(0 5.99972e-30 1.87491e-31 29.2546 -1.34649e-15 -5.75492e-15 0.117813 -6.4552e-17 2.9247e-16)
(-3.07287e-16 1.12884e-29 9.45514e-32 29.2559 2.06408e-15 -1.72761e-14 0.118669 -8.76087e-18 -7.03166e-17)
(0 0 3.7229e-31 29.2559 -1.5313e-15 -5.80662e-15 0.118669 -6.58457e-17 2.96547e-16)
(4.16151e-16 -1.18277e-29 -1.84808e-31 29.2567 1.93605e-15 -1.73946e-14 0.11953 -7.92033e-18 -7.13068e-17)
(0 1.18277e-29 1.84808e-31 29.2567 -1.55339e-15 -5.8521e-15 0.11953 -6.76013e-17 3.00661e-16)
(0 -2.34856e-29 -3.66962e-31 29.2572 1.7966e-15 -1.75112e-14 0.120396 -7.84186e-18 -7.22967e-17)
(0 2.34856e-29 3.66962e-31 29.2572 -1.41532e-15 -5.89266e-15 0.120396 -6.8881e-17 3.04833e-16)
(-6.63618e-16 4.56384e-29 5.66609e-31 29.2573 1.45045e-15 -1.76256e-14 0.121266 -6.88767e-18 -7.32905e-17)
(-1.32724e-15 -3.49754e-29 -3.64327e-31 29.2573 -1.12382e-15 -5.94352e-15 0.121266 -7.0261e-17 3.0906e-16)
(-7.47353e-16 -1.78179e-29 -2.58304e-31 29.2568 1.29792e-15 -1.77376e-14 0.12214 -5.08622e-18 -7.42813e-17)
(3.12807e-15 2.31495e-29 3.61711e-31 29.2568 -5.95346e-16 -5.99326e-15 0.12214 -7.11499e-17 3.13315e-16)
(1.15711e-15 -3.40605e-29 -6.50114e-31 29.2557 1.31237e-15 -1.29334e-14 0.123017 -5.71411e-18 -3.3951e-17)
(1.39382e-15 2.29833e-29 1.79557e-31 29.2557 -7.48116e-16 -6.03553e-15 0.123017 -7.11122e-17 3.17622e-16)
(-3.56869e-16 5.33138e-30 -1.52112e-28 29.254 1.03258e-15 -5.5644e-29 0.123898 -5.28163e-18 0)
(0 1.14091e-29 1.78267e-31 29.254 -9.69479e-16 -6.07798e-15 0.123898 -7.21737e-17 3.21972e-16)
(0 0 0 29.2515 9.37324e-16 3.48937e-15 0.124782 -3.427e-18 -1.459e-17)
(1.46137e-15 0 0 29.2515 -9.50079e-16 -6.11836e-15 0.124782 -7.29371e-17 3.26369e-16)
(-7.47758e-16 5.00233e-29 7.54758e-31 29.2482 1.23728e-15 3.5797e-15 0.125669 -4.54555e-18 -1.50761e-17)
(-1.49552e-15 -3.93605e-29 -5.27149e-31 29.2482 -1.15342e-15 -6.16221e-15 0.125669 -7.37393e-17 3.30811e-16)
(-7.64952e-16 1.06622e-29 2.26121e-31 29.244 1.45139e-15 3.67543e-15 0.126557 -6.05448e-18 -1.55781e-17)
(1.5299e-15 5.58255e-30 0 29.244 -9.04384e-16 -6.20484e-15 0.126557 -7.47849e-17 3.35285e-16)
(0 0 0 29.2387 1.57248e-15 3.77534e-15 0.127448 -6.46491e-18 -1.61236e-17)
(0 1.10849e-29 0 29.2387 -8.62778e-16 -6.23514e-15 0.127448 -7.51034e-17 3.39813e-16)
(-3.99854e-16 1.08332e-29 4.55423e-31 29.2324 1.59882e-15 3.87418e-15 0.128339 -7.19813e-18 -1.66754e-17)
(-1.98663e-15 0 0 29.2324 -1.12611e-15 -6.27517e-15 0.128339 -7.55364e-17 3.44391e-16)
(0 -3.8242e-29 -5.1217e-31 29.2247 1.6459e-15 3.97369e-15 0.12923 -6.79005e-18 -1.72257e-17)
(1.63454e-15 3.8242e-29 5.1217e-31 29.2247 -1.16593e-15 -6.32635e-15 0.12923 -7.62923e-17 3.48966e-16)
(-7.63348e-16 -4.88152e-29 -5.08492e-31 29.2157 1.79804e-15 4.07609e-15 0.130122 -7.71911e-18 -1.77976e-17)
(4.10318e-15 4.88152e-29 5.08492e-31 29.2157 -1.36206e-15 -6.35253e-15 0.130122 -7.73913e-17 3.53572e-16)
(0 2.15399e-29 1.6828e-31 29.2053 1.79299e-15 4.17902e-15 0.131012 -8.244e-18 -1.83882e-17)
(0 -1.61549e-29 -1.6828e-31 29.2053 -1.79681e-15 -6.37483e-15 0.131012 -7.92605e-17 3.58252e-16)
(-4.35352e-16 -2.14018e-29 -3.93044e-31 29.1932 1.53379e-15 4.28242e-15 0.131902 -7.78587e-18 -1.89796e-17)
(-1.36519e-15 1.60389e-29 1.67072e-31 29.1932 -1.56554e-15 -6.40914e-15 0.131902 -8.15517e-17 3.62946e-16)
(0 2.12316e-29 0 29.1793 1.00207e-15 4.38792e-15 0.132788 -6.02094e-18 -1.95897e-17)
(1.40401e-15 -1.59237e-29 0 29.1793 -6.75291e-16 -6.43491e-15 0.132788 -8.24581e-17 3.67672e-16)
(0 1.58094e-29 1.64681e-31 29.1636 8.13228e-16 4.49401e-15 0.133672 -3.05817e-18 -2.02155e-17)
(1.81389e-15 -1.05396e-29 0 29.1636 -6.79085e-16 -6.46134e-15 0.133672 -8.27713e-17 3.72429e-16)
(-1.19896e-15 -2.60619e-29 -2.21541e-31 29.1458 1.14403e-15 4.60323e-15 0.134552 -4.37677e-18 -2.0847e-17)
(0 3.13917e-29 3.26997e-31 29.1458 -1.14105e-15 -6.48789e-15 0.134552 -8.39725e-17 3.7719e-16)
(-7.31044e-16 -4.1555e-29 -1.62324e-31 29.1258 1.05837e-15 4.7141e-15 0.135427 -6.15788e-18 -2.15177e-17)
(2.61841e-15 4.1555e-29 1.62324e-31 29.1258 -1.15746e-15 -6.50336e-15 0.135427 -8.47918e-17 3.81979e-16)
(-4.81117e-16 2.08006e-29 2.64698e-31 29.1034 8.39432e-16 4.82006e-15 0.136296 -3.64339e-18 -2.21811e-17)
(0 -5.15708e-30 0 29.1034 -8.26248e-16 -6.50991e-15 0.136296 -8.58054e-17 3.86795e-16)
(4.90455e-16 1.00309e-29 3.77447e-31 29.0785 1.15953e-15 4.9277e-15 0.137158 -4.19582e-18 -2.28229e-17)
(-7.20582e-16 0 0 29.0785 -5.65474e-16 -6.52428e-15 0.137158 -8.61158e-17 3.91636e-16)
(-4.99854e-16 4.09117e-29 5.78107e-31 29.0509 1.25889e-15 5.04713e-15 0.138012 -6.71729e-18 -2.3519e-17)
(-1.99941e-15 -3.04997e-29 -1.58852e-31 29.0509 -8.17872e-16 -6.53361e-15 0.138012 -8.65809e-17 3.96474e-16)
(-1.01863e-15 4.59852e-29 5.16444e-31 29.0205 8.9889e-16 5.16683e-15 0.138858 -5.20127e-18 -2.42897e-17)
(-2.03725e-15 -3.53274e-29 -3.15423e-31 29.0205 -1.23584e-15 -6.53665e-15 0.138858 -8.76065e-17 4.01335e-16)
(-1.03766e-15 5.07423e-29 5.12077e-31 28.987 9.06727e-16 5.28428e-15 0.139693 -3.3679e-18 -2.50065e-17)
(-2.07533e-15 -4.00843e-29 -3.13158e-31 28.987 -1.403e-15 -6.54507e-15 0.139693 -8.83682e-17 4.06189e-16)
(0 -1.98982e-29 -3.1091e-31 28.9503 9.48256e-16 5.4076e-15 0.140517 -5.35237e-18 -2.5775e-17)
(2.11364e-15 1.98982e-29 3.1091e-31 28.9503 -1.04789e-15 -6.54575e-15 0.140517 -8.94399e-17 4.11039e-16)
(-5.38049e-16 5.32877e-30 9.72694e-32 28.9102 7.50371e-16 5.53472e-15 0.141329 -3.82019e-18 -2.65674e-17)
(2.15219e-15 9.87766e-30 3.08677e-31 28.9102 -8.38048e-16 -6.53682e-15 0.141329 -8.97405e-17 4.15884e-16)
(0 0 0 28.8665 1.04462e-15 5.6632e-15 0.142127 -3.49393e-18 -2.7393e-17)
(2.19098e-15 9.80673e-30 0 28.8665 -9.55605e-16 -6.52349e-15 0.142127 -9.13119e-17 4.20729e-16)
(-1.115e-15 5.78808e-30 1.89928e-31 28.8191 1.19733e-15 5.79601e-15 0.14291 -6.77545e-18 -2.82194e-17)
(2.22999e-15 4.86816e-30 0 28.8191 -8.93643e-16 -6.50904e-15 0.14291 -9.27696e-17 4.25558e-16)
(-5.67308e-16 5.32819e-30 9.37604e-32 28.7678 1.11364e-15 5.93254e-15 0.143677 -5.06045e-18 -2.9109e-17)
(2.26923e-15 4.8332e-30 3.02075e-31 28.7678 -8.28375e-16 -6.4929e-15 0.143677 -9.31744e-17 4.30387e-16)
(6.75328e-16 -9.59698e-30 0 28.7123 1.33911e-15 6.0678e-15 0.144426 -6.0371e-18 -2.9994e-17)
(2.30869e-15 9.59698e-30 0 28.7123 -9.08224e-16 -6.47192e-15 0.144426 -9.47578e-17 4.35184e-16)
(0 0 0 28.6526 1.24213e-15 6.19953e-15 0.145157 -7.40448e-18 -3.08938e-17)
(1.6779e-15 0 0 28.6526 -7.51684e-16 -6.44426e-15 0.145157 -9.54233e-17 4.39944e-16)
(0 4.72982e-30 0 28.5885 1.04084e-15 6.33122e-15 0.145868 -5.14105e-18 -3.17656e-17)
(2.38827e-15 0 0 28.5885 -6.74351e-16 -6.41496e-15 0.145868 -9.44557e-17 4.44674e-16)
(-6.07093e-16 1.94151e-29 3.82152e-31 28.5198 1.26514e-15 6.46902e-15 0.146557 -5.45549e-18 -3.26877e-17)
(-6.60883e-16 -9.39172e-30 0 28.5198 -8.05239e-16 -6.38181e-15 0.146557 -9.5578e-17 4.4937e-16)
(6.1717e-16 8.65944e-30 2.04077e-31 28.4463 9.17288e-16 6.60287e-15 0.147224 -7.5239e-18 -3.36449e-17)
(1.81254e-15 -4.66214e-30 0 28.4463 -4.33331e-16 -6.33796e-15 0.147224 -9.63696e-17 4.53999e-16)
(6.51426e-16 3.24006e-29 0 28.368 5.42826e-18 6.72742e-15 0.147867 -1.92924e-18 -3.45495e-17)
(-3.16061e-15 -3.70293e-29 0 28.368 1.06914e-16 -6.278e-15 0.147867 -9.61411e-17 4.586e-16)
(0 0 2.87214e-31 28.2846 2.66402e-30 1.89444e-15 0.148485 0 -3.54337e-17)
(-2.54989e-15 -4.13588e-29 -2.87214e-31 28.2846 -6.01504e-17 -6.21966e-15 0.148485 -9.52722e-17 4.63181e-16)
(6.47692e-16 2.66091e-29 1.99758e-31 28.1961 3.08227e-16 -4.60398e-15 0.149077 -1.50697e-18 -3.28793e-17)
(-5.18154e-15 -3.1937e-29 -2.85151e-31 28.1961 -4.34862e-16 -6.18456e-15 0.149077 -9.49056e-17 4.67689e-16)
(0 0 0 28.1024 3.30249e-16 -6.15216e-15 0.149641 -1.74668e-18 -3.25141e-17)
(5.26367e-15 0 0 28.1024 2.1611e-16 -6.14448e-15 0.149641 -9.49822e-17 4.72083e-16)
(-3.53524e-17 -1.26606e-29 8.76949e-32 28.0034 5.99408e-16 -6.03869e-15 0.150177 -1.76378e-18 -3.21374e-17)
(5.34614e-15 1.79885e-29 0 28.0034 3.41532e-17 -6.0735e-15 0.150177 -9.36431e-17 4.76408e-16)
(-1.93536e-15 -8.06703e-30 8.8847e-32 27.8989 5.84748e-16 -5.91646e-15 0.150683 -4.6642e-18 -3.16633e-17)
(1.25674e-15 2.23242e-29 0 27.8989 -7.94685e-16 -5.98673e-15 0.150683 -9.45965e-17 4.80669e-16)
(-6.89008e-16 4.5223e-29 3.67032e-31 27.789 3.44478e-17 -5.78833e-15 0.151159 -1.63072e-18 -3.12072e-17)
(0 -3.9895e-29 -2.77049e-31 27.789 -2.80303e-16 -5.91613e-15 0.151159 -9.55189e-17 4.84899e-16)
(-6.99435e-16 0 9.11171e-32 27.6736 2.46519e-32 -5.65775e-15 0.151604 0 -3.06892e-17)
(0 -3.08066e-29 0 27.6736 -2.36448e-17 -5.8546e-15 0.151604 -9.55621e-17 4.89001e-16)
(7.09897e-16 1.21494e-29 -9.22313e-32 27.5526 2.23192e-16 -5.52649e-15 0.152016 -2.39692e-18 -3.02086e-17)
(2.83959e-15 -1.74774e-29 0 27.5526 -2.63479e-17 -5.77994e-15 0.152016 -9.54037e-17 4.92991e-16)
(1.44079e-15 1.04457e-29 -1.84332e-31 27.4261 1.9502e-17 -5.39552e-15 0.152395 -5.41143e-20 -2.96758e-17)
(0 -3.03658e-29 0 27.4261 6.87813e-17 -5.6873e-15 0.152395 -9.41307e-17 4.96906e-16)
(0 6.51577e-30 2.69176e-31 27.294 7.38285e-17 -5.26151e-15 0.152741 -2.06342e-19 -2.91436e-17)
(-2.92368e-15 -1.72273e-29 0 27.294 -4.31964e-16 -5.59722e-15 0.152741 -9.31896e-17 5.00768e-16)
(1.94503e-15 1.60513e-29 1.77969e-31 27.1564 5.70251e-16 -5.11676e-15 0.153052 -4.01409e-18 -2.84709e-17)
(-4.16945e-15 -2.13794e-29 -2.67243e-31 27.1564 -5.44096e-16 -5.51536e-15 0.153052 -9.1253e-17 5.04491e-16)
(1.94697e-15 2.01426e-29 1.77549e-31 27.0132 5.39568e-16 -4.97549e-15 0.153329 -2.40136e-18 -2.79585e-17)
(-1.19491e-15 -1.69807e-29 0 27.0132 -3.40794e-16 -5.44245e-15 0.153329 -9.0248e-17 5.08091e-16)
(0 -1.68588e-29 -2.63419e-31 26.8647 6.20084e-16 -4.84033e-15 0.153571 -3.72311e-18 -2.73346e-17)
(3.05065e-15 1.68588e-29 2.63419e-31 26.8647 -2.79175e-16 -5.36011e-15 0.153571 -8.98614e-17 5.1152e-16)
(-1.54658e-15 -1.44505e-29 4.31018e-31 26.7108 5.85342e-16 -4.6924e-15 0.153778 -3.35935e-18 -2.66561e-17)
(3.09316e-15 2.51066e-29 0 26.7108 -4.53926e-16 -5.24383e-15 0.153778 -8.94042e-17 5.14878e-16)
(-1.56787e-15 4.38909e-29 4.26021e-31 26.5516 1.03817e-15 -4.54579e-15 0.153949 -3.37595e-18 -2.60262e-17)
(-3.13574e-15 -3.32351e-29 -2.59649e-31 26.5516 -1.58736e-15 -5.13881e-15 0.153949 -9.14528e-17 5.18188e-16)
(3.66359e-16 3.00741e-29 8.16215e-32 26.3873 1.08749e-15 -4.39626e-15 0.154085 -8.67524e-18 -2.52912e-17)
(-4.33936e-15 -2.47473e-29 0 26.3873 -1.67432e-15 -5.06241e-15 0.154085 -9.41851e-17 5.2133e-16)
(3.47345e-16 -1.10524e-29 8.00132e-32 26.218 7.86389e-16 -4.24907e-15 0.154186 -4.0028e-18 -2.46671e-17)
(3.22111e-15 1.63797e-29 0 26.218 -1.04083e-15 -4.98698e-15 0.154186 -9.47349e-17 5.24313e-16)
(-1.14435e-15 -3.25242e-29 2.54096e-31 26.0437 1.39335e-15 -4.10858e-15 0.154251 -5.24805e-18 -2.39886e-17)
(4.40821e-15 3.25242e-29 0 26.0437 -1.84994e-15 -4.88765e-15 0.154251 -9.58249e-17 5.27194e-16)
(0 -1.61453e-29 -2.52271e-31 25.8648 1.48983e-15 -3.95589e-15 0.154282 -1.12752e-17 -2.31972e-17)
(1.13613e-15 1.61453e-29 2.52271e-31 25.8648 -2.43651e-15 -4.7766e-15 0.154282 -9.80647e-17 5.29951e-16)
(-8.37372e-16 2.1356e-29 7.51132e-32 25.6813 8.72783e-16 -3.80832e-15 0.154278 -6.47932e-18 -2.25574e-17)
(0 -8.0147e-30 0 25.6813 -1.90221e-15 -4.6881e-15 0.154278 -9.88448e-17 5.32607e-16)
(-1.69617e-15 1.06538e-29 1.4692e-31 25.4934 1.1674e-15 -3.66456e-15 0.15424 -3.99822e-18 -2.17879e-17)
(3.39233e-15 0 0 25.4934 -8.98835e-16 -4.60843e-15 0.15424 -1.00361e-16 5.35102e-16)
(0 1.58e-29 2.46875e-31 25.3014 2.23633e-15 -3.53043e-15 0.154169 -1.01517e-17 -2.12441e-17)
(2.32335e-15 -7.90001e-30 2.46875e-31 25.3014 -3.3359e-16 -4.51397e-15 0.154169 -9.99346e-17 5.37462e-16)
(-2.34336e-16 1.82053e-29 1.75004e-31 25.1054 2.59325e-15 -3.38644e-15 0.154064 -1.71331e-17 -2.03299e-17)
(2.37419e-15 -7.84328e-30 0 25.1054 -7.26313e-16 -4.42727e-15 0.154064 -9.78384e-17 5.39752e-16)
(0 -7.78696e-30 -2.43342e-31 24.9056 1.78555e-15 -3.23709e-15 0.153927 -1.4697e-17 -1.96989e-17)
(1.09592e-15 7.78696e-30 2.43342e-31 24.9056 -1.55419e-15 -4.34187e-15 0.153927 -9.95375e-17 5.41883e-16)
(0 2.31931e-29 0 24.7023 6.80415e-16 -3.10475e-15 0.153759 -7.3573e-18 -1.89707e-17)
(0 -2.31931e-29 0 24.7023 -1.54589e-15 -4.25431e-15 0.153759 -1.01352e-16 5.43843e-16)
(9.01618e-16 -1.30011e-29 -3.04794e-31 24.4957 -1.24784e-16 -2.97549e-15 0.153561 -2.67437e-18 -1.83573e-17)
(0 7.67553e-30 2.3986e-31 24.4957 -4.49115e-16 -4.16894e-15 0.153561 -1.0081e-16 5.45759e-16)
(-1.82461e-15 1.82713e-29 1.26396e-31 24.286 -6.57327e-16 -2.85227e-15 0.153332 -5.64275e-18 -1.76834e-17)
(1.50426e-15 0 0 24.286 3.54454e-16 -4.09477e-15 0.153332 -1.00265e-16 5.47571e-16)
(0 1.51314e-29 0 24.0734 -8.51481e-16 -2.73345e-15 0.153075 -5.19333e-18 -1.7106e-17)
(3.69192e-15 -7.56569e-30 0 24.0734 8.17235e-16 -4.0175e-15 0.153075 -9.84807e-17 5.49179e-16)
(3.0479e-15 -1.3925e-29 -5.97142e-32 23.8583 2.66316e-30 -2.61419e-15 0.15279 0 -1.64057e-17)
(1.62031e-15 -1.50227e-29 0 23.8583 6.27423e-16 -3.93556e-15 0.15279 -9.65115e-17 5.50702e-16)
(0 2.98297e-29 2.33044e-31 23.6408 -8.41475e-17 -2.49625e-15 0.152479 -1.70028e-18 -1.58259e-17)
(0 -2.98297e-29 -2.33044e-31 23.6408 -1.37991e-16 -3.87357e-15 0.152479 -9.4967e-17 5.52092e-16)
(-8.70883e-17 -2.75372e-29 -2.87557e-31 23.4211 -3.13707e-16 -2.38745e-15 0.152141 -2.38233e-18 -1.52238e-17)
(4.86166e-15 2.22116e-29 2.31371e-31 23.4211 -2.18852e-16 -3.807e-15 0.152141 -9.37643e-17 5.53409e-16)
(2.82756e-15 2.2802e-29 4.71451e-31 23.1996 -4.22022e-16 -2.28128e-15 0.151779 -3.14905e-18 -1.46597e-17)
(0 -3.67535e-29 -2.29709e-31 23.1996 1.80908e-16 -3.72505e-15 0.151779 -9.35985e-17 5.54601e-16)
(1.02709e-15 1.45958e-29 0 22.9764 -9.28464e-16 -2.18501e-15 0.151394 -9.12362e-18 -1.41699e-17)
(2.87733e-15 -7.29792e-30 0 22.9764 5.65489e-16 -3.67587e-15 0.151394 -8.9091e-17 5.55698e-16)
(-1.01971e-15 -3.62276e-29 -2.26422e-31 22.7517 -1.45426e-15 -2.09479e-15 0.150986 -1.02081e-17 -1.3669e-17)
(4.96638e-15 3.62276e-29 2.26422e-31 22.7517 5.67896e-16 -3.63186e-15 0.150986 -8.70643e-17 5.56634e-16)
(-9.97204e-16 -1.86776e-30 4.91004e-32 22.5259 -1.1341e-15 -2.00945e-15 0.150558 -4.95473e-18 -1.32291e-17)
(3.98882e-15 1.4387e-29 0 22.5259 5.0651e-16 -3.54881e-15 0.150558 -8.76109e-17 5.57489e-16)
(1.00771e-15 2.07121e-29 6.22203e-31 22.299 -3.34717e-16 -1.92381e-15 0.150109 -1.12829e-18 -1.27086e-17)
(-1.00512e-15 -2.14255e-29 -2.23182e-31 22.299 -1.51256e-16 -3.49361e-15 0.150109 -8.62412e-17 5.58279e-16)
(0 -7.09054e-30 0 22.0714 -5.67346e-16 -1.83641e-15 0.149641 -6.59653e-18 -1.22299e-17)
(0 1.41811e-29 0 22.0714 -4.04828e-16 -3.47368e-15 0.149641 -8.69566e-17 5.5891e-16)
(0 -3.51981e-29 -2.19988e-31 21.8432 -1.37374e-15 -1.75331e-15 0.149156 -1.22154e-17 -1.17523e-17)
(8.22916e-15 3.51981e-29 2.19988e-31 21.8432 5.52949e-16 -3.41891e-15 0.149156 -8.63723e-17 5.5947e-16)
(9.83625e-16 2.09672e-29 0 21.6147 -1.67267e-15 -1.68901e-15 0.148653 -1.08259e-17 -1.15183e-17)
(-9.83625e-16 -1.39781e-29 0 21.6147 4.42091e-16 -3.34642e-15 0.148653 -8.42023e-17 5.60026e-16)
(0 1.38778e-29 0 21.386 -1.17516e-15 -1.62576e-15 0.148136 -5.46332e-18 -1.1042e-17)
(-5.17436e-15 -6.93888e-30 2.1684e-31 21.386 -4.79651e-17 -3.31475e-15 0.148136 -8.36348e-17 5.60422e-16)
(-1.0598e-15 1.91044e-29 3.85337e-32 21.1573 -7.68105e-16 -1.55274e-15 0.147603 -5.2727e-18 -1.06611e-17)
(3.26967e-15 0 0 21.1573 -1.76883e-16 -3.30469e-15 0.147603 -8.28293e-17 5.60728e-16)
(2.99529e-15 2.20319e-29 -3.67729e-32 20.9288 -6.49466e-16 -1.49034e-15 0.147058 -3.86625e-18 -1.03205e-17)
(-1.92517e-15 -3.41979e-29 0 20.9288 -7.25309e-16 -3.29159e-15 0.147058 -8.11235e-17 5.60944e-16)
(1.0804e-15 -3.92784e-29 -3.50019e-32 20.7007 -8.03953e-16 -1.44266e-15 0.146499 -7.54797e-18 -1.01373e-17)
(4.32161e-15 2.71619e-29 0 20.7007 -5.31973e-16 -3.25141e-15 0.146499 -8.16781e-17 5.61088e-16)
(0 -2.02251e-29 -4.21357e-31 20.4731 -1.21615e-15 -1.38919e-15 0.14593 -9.83138e-18 -9.70387e-18)
(0 2.02251e-29 0 20.4731 -4.80684e-16 -3.19464e-15 0.14593 -8.04827e-17 5.61179e-16)
(9.41998e-16 3.34665e-29 0 20.2462 -1.22657e-15 -1.32844e-15 0.14535 -7.80806e-18 -9.40728e-18)
(-5.34541e-15 -4.01598e-29 0 20.2462 -8.70097e-16 -3.1866e-15 0.14535 -8.0734e-17 5.61284e-16)
(-1.4626e-15 9.33664e-30 -3.26005e-31 20.0201 -7.35295e-16 -1.30536e-15 0.14476 -2.8292e-18 -9.50909e-18)
(4.44409e-15 0 0 20.0201 -5.14728e-16 -3.20455e-15 0.14476 -7.89706e-17 5.61172e-16)
(-3.17082e-15 -2.2333e-29 5.62348e-32 19.795 -1.30965e-16 -1.26086e-15 0.144162 -4.77887e-19 -8.89202e-18)
(4.4846e-15 2.63901e-29 0 19.795 -6.7906e-16 -3.19498e-15 0.144162 -7.89114e-17 5.60986e-16)
(9.2185e-16 -2.62006e-29 0 19.5709 -1.85426e-16 -1.19385e-15 0.143556 -2.25455e-18 -8.65843e-18)
(4.52495e-15 2.62006e-29 0 19.5709 -1.16998e-15 -3.16063e-15 0.143556 -8.08482e-17 5.60759e-16)
(0 -5.32731e-30 0 19.3481 1.43906e-27 -1.15902e-15 0.142944 0 -8.50356e-18)
(0 6.5031e-30 0 19.3481 -1.10674e-15 -3.12925e-15 0.142944 -8.05999e-17 5.60554e-16)
(0 3.2282e-29 0 19.1266 2.41853e-16 -1.14391e-15 0.142325 -2.45851e-18 -8.55794e-18)
(0 -3.2282e-29 0 19.1266 -8.03146e-16 -3.13041e-15 0.142325 -8.18709e-17 5.6033e-16)
(-2.3225e-15 4.24476e-30 4.25401e-32 18.9065 3.04596e-16 -1.12542e-15 0.141701 -1.14397e-18 -8.34829e-18)
(0 6.41004e-30 0 18.9065 -6.26827e-16 -3.15599e-15 0.141701 -7.98036e-17 5.60012e-16)
(2.34234e-15 -2.33803e-29 -4.36995e-31 18.6879 1.74678e-15 -1.0908e-15 0.141072 -9.36695e-18 -8.15636e-18)
(4.68468e-15 1.2728e-29 3.97751e-31 18.6879 -8.43045e-16 -3.17403e-15 0.141072 -7.73002e-17 5.59557e-16)
(0 -2.52732e-29 -3.94894e-31 18.471 1.20246e-15 -1.06195e-15 0.140439 -1.70921e-17 -8.02817e-18)
(4.72419e-15 2.52732e-29 3.94894e-31 18.471 -1.30567e-15 -3.15033e-15 0.140439 -7.84826e-17 5.59015e-16)
(0 -2.50918e-29 0 18.2557 -4.53021e-16 -1.03568e-15 0.139803 -8.1651e-18 -7.87006e-18)
(0 2.50918e-29 0 18.2557 -1.18081e-15 -3.15056e-15 0.139803 -8.1717e-17 5.5853e-16)
(0 -1.24558e-29 -3.89243e-31 18.0422 -7.38469e-16 -1.03769e-15 0.139165 -3.23543e-18 -8.17592e-18)
(4.80268e-15 1.24558e-29 0 18.0422 -5.69857e-16 -3.178e-15 0.139165 -8.04955e-17 5.57885e-16)
(-2.95082e-15 -2.55894e-29 1.30889e-32 17.8305 -3.36207e-16 -1.03092e-15 0.138524 -1.99618e-18 -7.87854e-18)
(4.84166e-15 3.09159e-29 0 17.8305 -9.64297e-16 -3.17378e-15 0.138524 -7.89922e-17 5.57299e-16)
(1.72791e-15 -7.51003e-30 0 17.6206 1.35294e-27 -9.99161e-16 0.137882 0 -7.79461e-18)
(0 6.13877e-30 0 17.6206 -9.81976e-16 -3.18797e-15 0.137882 -8.36031e-17 5.56753e-16)
(4.17505e-15 -2.284e-29 -4.00619e-31 17.4128 -2.46522e-16 -1.00782e-15 0.137239 -6.24155e-18 -8.13016e-18)
(4.91909e-15 1.21894e-29 3.80918e-31 17.4128 -3.10541e-16 -3.21664e-15 0.137239 -8.51705e-17 5.56031e-16)
(0 -1.21018e-29 0 17.2069 -1.09148e-15 -1.01545e-15 0.136595 -1.11464e-17 -8.02975e-18)
(0 1.21018e-29 0 17.2069 -1.4398e-15 -3.2266e-15 0.136595 -8.4186e-17 5.55248e-16)
(-1.24895e-15 0 6.71919e-33 17.003 -4.93038e-32 -1.0172e-15 0.135951 1.90501e-45 -8.27623e-18)
(0 -3.60448e-29 0 17.003 -1.64233e-15 -3.27133e-15 0.135951 -8.52559e-17 5.54444e-16)
(0 -4.17503e-29 0 16.8012 5.68515e-16 -1.00571e-15 0.135308 -4.80602e-18 -7.96022e-18)
(1.00678e-14 4.17503e-29 0 16.8012 -1.0037e-15 -3.28277e-15 0.135308 -7.96026e-17 5.5354e-16)
(0 5.9215e-30 0 16.6015 4.8579e-17 -1.00223e-15 0.134665 -4.37131e-18 -8.33966e-18)
(-5.07181e-15 0 0 16.6015 -2.02918e-15 -3.27214e-15 0.134665 -8.19972e-17 5.52761e-16)
(-2.55477e-15 -1.82169e-43 4.37822e-33 16.4039 -1.29502e-27 -1.01491e-15 0.134024 -3.1097e-45 -8.28411e-18)
(0 -1.1758e-29 0 16.4039 -2.03682e-15 -3.32546e-15 0.134024 -8.66939e-17 5.5184e-16)
(-9.30646e-16 3.3995e-29 0 16.2084 2.16568e-16 -1.01609e-15 0.133384 -2.89288e-18 -1.33136e-17)
(-1.6429e-15 -2.33471e-29 0 16.2084 -1.03422e-15 -3.35975e-15 0.133384 -8.78427e-17 5.50832e-16)
(-1.29612e-15 5.32256e-30 0 16.0151 -5.38191e-16 -1.0155e-15 0.132746 -9.65277e-18 -2.64955e-18)
(0 1.15897e-29 0 16.0151 -5.21134e-16 -3.33068e-15 0.132746 -9.04383e-17 5.49848e-16)
(0 7.86364e-30 0 15.824 -5.82138e-16 -1.01302e-15 0.13211 -2.43592e-18 8.02435e-18)
(-6.84106e-15 -5.75324e-30 3.59577e-31 15.824 -1.16512e-15 -3.35542e-15 0.13211 -8.92422e-17 5.49118e-16)
(0 -1.06483e-29 0 15.635 2.52643e-27 -1.0357e-15 0.131476 0 1.8494e-17)