/*--------------------------------*- C++ -*----------------------------------*\
| =========                 |                                                 |
| \\      /  F ield         | OpenFOAM: The Open Source CFD Toolbox           |
|  \\    /   O peration     | Version:  2012                                  |
|   \\  /    A nd           | Website:  www.openfoam.com                      |
|    \\/     M anipulation  |                                                 |
\*---------------------------------------------------------------------------*/
FoamFile
{
    version     2.0;
    format      ascii;
    class       volScalarField;
    location    "14000";
    object      k;
}
// * * * * * * * * * * * * * * * * * * * * * * * * * * * * * * * * * * * * * //

dimensions      [0 2 -2 0 0 0 0];


internalField   nonuniform List<scalar> 
5120
(
3.6436e-08
3.6436e-08
5.54784e-09
5.54784e-09
2.861e-09
2.861e-09
5.23065e-09
5.23065e-09
1.20914e-08
1.20914e-08
2.49958e-08
2.49958e-08
4.60409e-08
4.60409e-08
7.76276e-08
7.76276e-08
1.22406e-07
1.22406e-07
1.8326e-07
1.8326e-07
2.63303e-07
2.63303e-07
3.65879e-07
3.65879e-07
4.94569e-07
4.94569e-07
6.53192e-07
6.53192e-07
8.45812e-07
8.45812e-07
1.07675e-06
1.07675e-06
1.35058e-06
1.35058e-06
1.67215e-06
1.67215e-06
2.04659e-06
2.04659e-06
2.4793e-06
2.4793e-06
2.97599e-06
2.97599e-06
3.54268e-06
3.54268e-06
4.18568e-06
4.18568e-06
4.91166e-06
4.91166e-06
5.72761e-06
5.72761e-06
6.64087e-06
6.64087e-06
7.65913e-06
7.65913e-06
8.79049e-06
8.79049e-06
1.00434e-05
1.00434e-05
1.14267e-05
1.14267e-05
1.29497e-05
1.29497e-05
1.46221e-05
1.46221e-05
1.64539e-05
1.64539e-05
1.84559e-05
1.84559e-05
2.0639e-05
2.0639e-05
2.30146e-05
2.30146e-05
2.5595e-05
2.5595e-05
2.83924e-05
2.83924e-05
3.142e-05
3.142e-05
3.46913e-05
3.46913e-05
3.82203e-05
3.82203e-05
4.20216e-05
4.20216e-05
4.61105e-05
4.61105e-05
5.05027e-05
5.05027e-05
5.52144e-05
5.52144e-05
6.02625e-05
6.02625e-05
6.56646e-05
6.56646e-05
7.14386e-05
7.14386e-05
7.76032e-05
7.76032e-05
8.41776e-05
8.41776e-05
9.11817e-05
9.11817e-05
9.86358e-05
9.86358e-05
0.000106561
0.000106561
0.000114978
0.000114978
0.000123911
0.000123911
0.00013338
0.00013338
0.00014341
0.00014341
0.000154023
0.000154023
0.000165245
0.000165245
0.000177099
0.000177099
0.00018961
0.00018961
0.000202803
0.000202803
0.000216705
0.000216705
0.00023134
0.00023134
0.000246734
0.000246734
0.000262913
0.000262913
0.000279904
0.000279904
0.000297731
0.000297731
0.000316422
0.000316422
0.000336
0.000336
0.000356492
0.000356492
0.000377921
0.000377921
0.000400313
0.000400313
0.00042369
0.00042369
0.000448075
0.000448075
0.000473489
0.000473489
0.000499954
0.000499954
0.000527488
0.000527488
0.00055611
0.00055611
0.000585836
0.000585836
0.000616682
0.000616682
0.00064866
0.00064866
0.000681783
0.000681783
0.000716059
0.000716059
0.000751497
0.000751497
0.000788101
0.000788101
0.000825875
0.000825875
0.000864819
0.000864819
0.000904932
0.000904932
0.000946209
0.000946209
0.000988644
0.000988644
0.00103223
0.00103223
0.00107694
0.00107694
0.00112278
0.00112278
0.00116973
0.00116973
0.00121776
0.00121776
0.00126684
0.00126684
0.00131697
0.00131697
0.0013681
0.0013681
0.00142022
0.00142022
0.00147328
0.00147328
0.00152725
0.00152725
0.0015821
0.0015821
0.00163779
0.00163779
0.00169428
0.00169428
0.00175153
0.00175153
0.00180949
0.00180949
0.00186811
0.00186811
0.00192737
0.00192737
0.0019872
0.0019872
0.00204756
0.00204756
0.00210841
0.00210841
0.00216969
0.00216969
0.00223135
0.00223135
0.00229336
0.00229336
0.00235565
0.00235565
0.00241819
0.00241819
0.00248092
0.00248092
0.00254379
0.00254379
0.00260676
0.00260676
0.00266978
0.00266978
0.0027328
0.0027328
0.00279579
0.00279579
0.00285869
0.00285869
0.00292146
0.00292146
0.00298407
0.00298407
0.00304646
0.00304646
0.00310861
0.00310861
0.00317047
0.00317047
0.00323201
0.00323201
0.00329318
0.00329318
0.00335396
0.00335396
0.00341432
0.00341432
0.00347421
0.00347421
0.00353362
0.00353362
0.00359251
0.00359251
0.00365086
0.00365086
0.00370863
0.00370863
0.00376581
0.00376581
0.00382237
0.00382237
0.00387828
0.00387828
0.00393354
0.00393354
0.00398811
0.00398811
0.00404198
0.00404198
0.00409513
0.00409513
0.00414755
0.00414755
0.00419922
0.00419922
0.00425013
0.00425013
0.00430026
0.00430026
0.0043496
0.0043496
0.00439814
0.00439814
0.00444587
0.00444587
0.00449279
0.00449279
0.00453888
0.00453888
0.00458413
0.00458413
0.00462855
0.00462855
0.00467211
0.00467211
0.00471483
0.00471483
0.00475669
0.00475669
0.00479769
0.00479769
0.00483783
0.00483783
0.00487711
0.00487711
0.00491551
0.00491551
0.00495305
0.00495305
0.00498972
0.00498972
0.00502552
0.00502552
0.00506045
0.00506045
0.00509452
0.00509452
0.00512771
0.00512771
0.00516004
0.00516004
0.0051915
0.0051915
0.0052221
0.0052221
0.00525184
0.00525184
0.00528073
0.00528073
0.00530876
0.00530876
0.00533594
0.00533594
0.00536227
0.00536227
0.00538776
0.00538776
0.00541241
0.00541241
0.00543623
0.00543623
0.00545922
0.00545922
0.00548138
0.00548138
0.00550273
0.00550273
0.00552326
0.00552326
0.00554298
0.00554298
0.0055619
0.0055619
0.00558002
0.00558002
0.00559735
0.00559735
0.0056139
0.0056139
0.00562966
0.00562966
0.00564466
0.00564466
0.00565888
0.00565888
0.00567235
0.00567235
0.00568506
0.00568506
0.00569703
0.00569703
0.00570825
0.00570825
0.00571875
0.00571875
0.00572851
0.00572851
0.00573756
0.00573756
0.00574589
0.00574589
0.00575352
0.00575352
0.00576045
0.00576045
0.00576669
0.00576669
0.00577224
0.00577224
0.00577712
0.00577712
0.00578133
0.00578133
0.00578488
0.00578488
0.00578777
0.00578777
0.00579002
0.00579002
0.00579162
0.00579162
0.00579259
0.00579259
0.00579294
0.00579294
0.00579267
0.00579267
0.00579179
0.00579179
0.00579031
0.00579031
0.00578823
0.00578823
0.00578557
0.00578557
0.00578233
0.00578233
0.00577851
0.00577851
0.00577413
0.00577413
0.00576919
0.00576919
0.0057637
0.0057637
0.00575766
0.00575766
0.0057511
0.0057511
0.005744
0.005744
0.00573639
0.00573639
0.00572826
0.00572826
0.00571963
0.00571963
0.0057105
0.0057105
0.00570088
0.00570088
0.00569077
0.00569077
0.00568019
0.00568019
0.00566915
0.00566915
0.00565764
0.00565764
0.00564568
0.00564568
0.00563327
0.00563327
0.00562042
0.00562042
0.00560715
0.00560715
0.00559344
0.00559344
0.00557932
0.00557932
0.00556479
0.00556479
0.00554986
0.00554986
0.00553453
0.00553453
0.00551882
0.00551882
0.00550272
0.00550272
0.00548625
0.00548625
0.0054694
0.0054694
0.0054522
0.0054522
0.00543465
0.00543465
0.00541675
0.00541675
0.0053985
0.0053985
0.00537993
0.00537993
0.00536103
0.00536103
0.00534181
0.00534181
0.00532227
0.00532227
0.00530243
0.00530243
0.00528229
0.00528229
0.00526186
0.00526186
0.00524113
0.00524113
0.00522013
0.00522013
0.00519886
0.00519886
0.00517732
0.00517732
0.00515552
0.00515552
0.00513346
0.00513346
0.00511115
0.00511115
0.00508861
0.00508861
0.00506582
0.00506582
0.00504281
0.00504281
0.00501957
0.00501957
0.00499612
0.00499612
0.00497245
0.00497245
0.00494858
0.00494858
0.0049245
0.0049245
0.00490024
0.00490024
0.00487578
0.00487578
0.00485115
0.00485115
0.00482633
0.00482633
0.00480135
0.00480135
0.00477619
0.00477619
0.00475088
0.00475088
0.00472542
0.00472542
0.0046998
0.0046998
0.00467404
0.00467404
0.00464815
0.00464815
0.00462212
0.00462212
0.00459596
0.00459596
0.00456968
0.00456968
0.00454328
0.00454328
0.00451676
0.00451676
0.00449014
0.00449014
0.00446342
0.00446342
0.0044366
0.0044366
0.00440969
0.00440969
0.00438269
0.00438269
0.0043556
0.0043556
0.00432844
0.00432844
0.0043012
0.0043012
0.00427389
0.00427389
0.00424652
0.00424652
0.00421909
0.00421909
0.0041916
0.0041916
0.00416405
0.00416405
0.00413646
0.00413646
0.00410883
0.00410883
0.00408116
0.00408116
0.00405345
0.00405345
0.00402571
0.00402571
0.00399795
0.00399795
0.00397016
0.00397016
0.00394235
0.00394235
0.00391453
0.00391453
0.00388669
0.00388669
0.00385885
0.00385885
0.003831
0.003831
0.00380316
0.00380316
0.00377531
0.00377531
0.00374747
0.00374747
0.00371964
0.00371964
0.00369183
0.00369183
0.00366403
0.00366403
0.00363625
0.00363625
0.0036085
0.0036085
0.00358077
0.00358077
0.00355307
0.00355307
0.00352541
0.00352541
0.00349777
0.00349777
0.00347018
0.00347018
0.00344263
0.00344263
0.00341513
0.00341513
0.00338767
0.00338767
0.00336026
0.00336026
0.0033329
0.0033329
0.0033056
0.0033056
0.00327836
0.00327836
0.00325118
0.00325118
0.00322406
0.00322406
0.00319701
0.00319701
0.00317002
0.00317002
0.00314311
0.00314311
0.00311627
0.00311627
0.0030895
0.0030895
0.00306281
0.00306281
0.0030362
0.0030362
0.00300967
0.00300967
0.00298323
0.00298323
0.00295687
0.00295687
0.00293059
0.00293059
0.00290441
0.00290441
0.00287832
0.00287832
0.00285232
0.00285232
0.00282642
0.00282642
0.00280061
0.00280061
0.00277491
0.00277491
0.0027493
0.0027493
0.00272379
0.00272379
0.00269839
0.00269839
0.00267309
0.00267309
0.0026479
0.0026479
0.00262282
0.00262282
0.00259785
0.00259785
0.00257298
0.00257298
0.00254823
0.00254823
0.0025236
0.0025236
0.00249907
0.00249907
0.00247467
0.00247467
0.00245038
0.00245038
0.00242621
0.00242621
0.00240215
0.00240215
0.00237822
0.00237822
0.00235441
0.00235441
0.00233072
0.00233072
0.00230716
0.00230716
0.00228372
0.00228372
0.0022604
0.0022604
0.00223722
0.00223722
0.00221415
0.00221415
0.00219122
0.00219122
0.00216841
0.00216841
0.00214574
0.00214574
0.00212319
0.00212319
0.00210078
0.00210078
0.00207849
0.00207849
0.00205634
0.00205634
0.00203432
0.00203432
0.00201243
0.00201243
0.00199068
0.00199068
0.00196906
0.00196906
0.00194758
0.00194758
0.00192623
0.00192623
0.00190501
0.00190501
0.00188393
0.00188393
0.00186299
0.00186299
0.00184219
0.00184219
0.00182152
0.00182152
0.00180099
0.00180099
0.00178059
0.00178059
0.00176034
0.00176034
0.00174022
0.00174022
0.00172024
0.00172024
0.0017004
0.0017004
0.00168069
0.00168069
0.00166113
0.00166113
0.0016417
0.0016417
0.00162242
0.00162242
0.00160327
0.00160327
0.00158426
0.00158426
0.00156539
0.00156539
0.00154667
0.00154667
0.00152808
0.00152808
0.00150963
0.00150963
0.00149131
0.00149131
0.00147314
0.00147314
0.00145511
0.00145511
0.00143722
0.00143722
0.00141947
0.00141947
0.00140185
0.00140185
0.00138438
0.00138438
0.00136704
0.00136704
0.00134985
0.00134985
0.00133279
0.00133279
0.00131588
0.00131588
0.0012991
0.0012991
0.00128246
0.00128246
0.00126596
0.00126596
0.0012496
0.0012496
0.00123337
0.00123337
0.00121729
0.00121729
0.00120134
0.00120134
0.00118553
0.00118553
0.00116986
0.00116986
0.00115433
0.00115433
0.00113893
0.00113893
0.00112368
0.00112368
0.00110856
0.00110856
0.00109358
0.00109358
0.00107873
0.00107873
0.00106402
0.00106402
0.00104945
0.00104945
0.00103502
0.00103502
0.00102073
0.00102073
0.00100657
0.00100657
0.000992543
0.000992543
0.000978657
0.000978657
0.000964907
0.000964907
0.000951294
0.000951294
0.000937817
0.000937817
0.000924476
0.000924476
0.000911272
0.000911272
0.000898204
0.000898204
0.000885272
0.000885272
0.000872476
0.000872476
0.000859816
0.000859816
0.000847292
0.000847292
0.000834905
0.000834905
0.000822653
0.000822653
0.000810538
0.000810538
0.000798558
0.000798558
0.000786715
0.000786715
0.000775008
0.000775008
0.000763438
0.000763438
0.000752004
0.000752004
0.000740706
0.000740706
0.000729545
0.000729545
0.00071852
0.00071852
0.000707633
0.000707633
0.000696882
0.000696882
0.000686268
0.000686268
0.000675792
0.000675792
0.000665452
0.000665452
0.000655251
0.000655251
0.000645187
0.000645187
0.000635261
0.000635261
0.000625473
0.000625473
0.000615823
0.000615823
0.000606311
0.000606311
0.000596938
0.000596938
0.000587704
0.000587704
0.000578609
0.000578609
0.000569653
0.000569653
0.000560836
0.000560836
0.000552159
0.000552159
0.000543621
0.000543621
0.000535224
0.000535224
0.000526966
0.000526966
0.000518848
0.000518848
0.00051087
0.00051087
0.000503033
0.000503033
0.000495336
0.000495336
0.000487779
0.000487779
0.000480363
0.000480363
0.000473086
0.000473086
0.000465951
0.000465951
0.000458955
0.000458955
0.000452099
0.000452099
0.000445384
0.000445384
0.000438808
0.000438808
0.000432371
0.000432371
0.000426074
0.000426074
0.000419915
0.000419915
0.000413895
0.000413895
0.000408012
0.000408012
0.000402267
0.000402267
0.000396658
0.000396658
0.000391185
0.000391185
0.000385848
0.000385848
0.000380645
0.000380645
0.000375576
0.000375576
0.000370639
0.000370639
0.000365834
0.000365834
0.00036116
0.00036116
0.000356614
0.000356614
0.000352197
0.000352197
0.000347907
0.000347907
0.000343742
0.000343742
0.0003397
0.0003397
0.000335781
0.000335781
0.000331983
0.000331983
0.000328304
0.000328304
0.000324742
0.000324742
0.000321295
0.000321295
0.000317962
0.000317962
0.000314741
0.000314741
0.000311629
0.000311629
0.000308624
0.000308624
0.000305725
0.000305725
0.000302929
0.000302929
0.000300235
0.000300235
0.000297639
0.000297639
0.000295139
0.000295139
0.000292734
0.000292734
0.000290421
0.000290421
0.000288197
0.000288197
0.000286061
0.000286061
0.00028401
0.00028401
0.000282041
0.000282041
0.000280152
0.000280152
0.000278341
0.000278341
0.000276606
0.000276606
0.000274944
0.000274944
0.000273353
0.000273353
0.00027183
0.00027183
0.000270373
0.000270373
0.00026898
0.00026898
0.00026765
0.00026765
0.000266378
0.000266378
0.000265164
0.000265164
0.000264005
0.000264005
0.0002629
0.0002629
0.000261846
0.000261846
0.00026084
0.00026084
0.000259882
0.000259882
0.000258969
0.000258969
0.0002581
0.0002581
0.000257272
0.000257272
0.000256484
0.000256484
0.000255734
0.000255734
0.00025502
0.00025502
0.000254341
0.000254341
0.000253696
0.000253696
0.000253082
0.000253082
0.000252498
0.000252498
0.000251942
0.000251942
0.000251415
0.000251415
0.000250913
0.000250913
0.000250436
0.000250436
0.000249982
0.000249982
0.00024955
0.00024955
0.00024914
0.00024914
0.000248749
0.000248749
0.000248377
0.000248377
0.000248023
0.000248023
0.000247686
0.000247686
0.000247365
0.000247365
0.000247058
0.000247058
0.000246766
0.000246766
0.000246487
0.000246487
0.00024622
0.00024622
0.000245964
0.000245964
0.00024572
0.00024572
0.000245485
0.000245485
0.00024526
0.00024526
0.000245044
0.000245044
0.000244836
0.000244836
0.000244636
0.000244636
0.000244442
0.000244442
0.000244255
0.000244255
0.000244074
0.000244074
0.000243898
0.000243898
0.000243728
0.000243728
0.000243562
0.000243562
0.0002434
0.0002434
0.000243242
0.000243242
0.000243087
0.000243087
0.000242936
0.000242936
0.000242787
0.000242787
0.000242641
0.000242641
0.000242498
0.000242498
0.000242356
0.000242356
0.000242216
0.000242216
0.000242078
0.000242078
0.000241941
0.000241941
0.000241806
0.000241806
0.000241671
0.000241671
0.000241538
0.000241538
0.000241406
0.000241406
0.000241274
0.000241274
0.000241143
0.000241143
0.000241014
0.000241014
0.000240885
0.000240885
0.000240756
0.000240756
0.000240629
0.000240629
0.000240502
0.000240502
0.000240377
0.000240377
0.000240252
0.000240252
0.000240129
0.000240129
0.000240007
0.000240007
0.000239886
0.000239886
0.000239767
0.000239767
0.000239649
0.000239649
0.000239534
0.000239534
0.00023942
0.00023942
0.000239309
0.000239309
0.000239201
0.000239201
0.000239096
0.000239096
0.000238994
0.000238994
0.000238895
0.000238895
0.0002388
0.0002388
0.00023871
0.00023871
0.000238624
0.000238624
0.000238543
0.000238543
0.000238467
0.000238467
0.000238397
0.000238397
0.000238333
0.000238333
0.000238275
0.000238275
0.000238225
0.000238225
0.000238182
0.000238182
0.000238146
0.000238146
0.000238119
0.000238119
0.000238101
0.000238101
0.000238091
0.000238091
3.6436e-08
3.6436e-08
5.54784e-09
5.54784e-09
2.861e-09
2.861e-09
5.23065e-09
5.23065e-09
1.20914e-08
1.20914e-08
2.49958e-08
2.49958e-08
4.60409e-08
4.60409e-08
7.76276e-08
7.76276e-08
1.22406e-07
1.22406e-07
1.8326e-07
1.8326e-07
2.63303e-07
2.63303e-07
3.65879e-07
3.65879e-07
4.94569e-07
4.94569e-07
6.53192e-07
6.53192e-07
8.45812e-07
8.45812e-07
1.07675e-06
1.07675e-06
1.35058e-06
1.35058e-06
1.67215e-06
1.67215e-06
2.04659e-06
2.04659e-06
2.4793e-06
2.4793e-06
2.97599e-06
2.97599e-06
3.54268e-06
3.54268e-06
4.18568e-06
4.18568e-06
4.91166e-06
4.91166e-06
5.72761e-06
5.72761e-06
6.64087e-06
6.64087e-06
7.65913e-06
7.65913e-06
8.79049e-06
8.79049e-06
1.00434e-05
1.00434e-05
1.14267e-05
1.14267e-05
1.29497e-05
1.29497e-05
1.46221e-05
1.46221e-05
1.64539e-05
1.64539e-05
1.84559e-05
1.84559e-05
2.0639e-05
2.0639e-05
2.30146e-05
2.30146e-05
2.5595e-05
2.5595e-05
2.83924e-05
2.83924e-05
3.142e-05
3.142e-05
3.46913e-05
3.46913e-05
3.82203e-05
3.82203e-05
4.20216e-05
4.20216e-05
4.61105e-05
4.61105e-05
5.05027e-05
5.05027e-05
5.52144e-05
5.52144e-05
6.02625e-05
6.02625e-05
6.56646e-05
6.56646e-05
7.14386e-05
7.14386e-05
7.76032e-05
7.76032e-05
8.41776e-05
8.41776e-05
9.11817e-05
9.11817e-05
9.86358e-05
9.86358e-05
0.000106561
0.000106561
0.000114978
0.000114978
0.000123911
0.000123911
0.00013338
0.00013338
0.00014341
0.00014341
0.000154023
0.000154023
0.000165245
0.000165245
0.000177099
0.000177099
0.00018961
0.00018961
0.000202803
0.000202803
0.000216705
0.000216705
0.00023134
0.00023134
0.000246734
0.000246734
0.000262913
0.000262913
0.000279904
0.000279904
0.000297731
0.000297731
0.000316422
0.000316422
0.000336
0.000336
0.000356492
0.000356492
0.000377921
0.000377921
0.000400313
0.000400313
0.00042369
0.00042369
0.000448075
0.000448075
0.000473489
0.000473489
0.000499954
0.000499954
0.000527488
0.000527488
0.00055611
0.00055611
0.000585836
0.000585836
0.000616682
0.000616682
0.00064866
0.00064866
0.000681783
0.000681783
0.000716059
0.000716059
0.000751497
0.000751497
0.000788101
0.000788101
0.000825875
0.000825875
0.000864819
0.000864819
0.000904932
0.000904932
0.000946209
0.000946209
0.000988644
0.000988644
0.00103223
0.00103223
0.00107694
0.00107694
0.00112278
0.00112278
0.00116973
0.00116973
0.00121776
0.00121776
0.00126684
0.00126684
0.00131697
0.00131697
0.0013681
0.0013681
0.00142022
0.00142022
0.00147328
0.00147328
0.00152725
0.00152725
0.0015821
0.0015821
0.00163779
0.00163779
0.00169428
0.00169428
0.00175153
0.00175153
0.00180949
0.00180949
0.00186811
0.00186811
0.00192737
0.00192737
0.0019872
0.0019872
0.00204756
0.00204756
0.00210841
0.00210841
0.00216969
0.00216969
0.00223135
0.00223135
0.00229336
0.00229336
0.00235565
0.00235565
0.00241819
0.00241819
0.00248092
0.00248092
0.00254379
0.00254379
0.00260676
0.00260676
0.00266978
0.00266978
0.0027328
0.0027328
0.00279579
0.00279579
0.00285869
0.00285869
0.00292146
0.00292146
0.00298407
0.00298407
0.00304646
0.00304646
0.00310861
0.00310861
0.00317047
0.00317047
0.00323201
0.00323201
0.00329318
0.00329318
0.00335396
0.00335396
0.00341432
0.00341432
0.00347421
0.00347421
0.00353362
0.00353362
0.00359251
0.00359251
0.00365086
0.00365086
0.00370863
0.00370863
0.00376581
0.00376581
0.00382237
0.00382237
0.00387828
0.00387828
0.00393354
0.00393354
0.00398811
0.00398811
0.00404198
0.00404198
0.00409513
0.00409513
0.00414755
0.00414755
0.00419922
0.00419922
0.00425013
0.00425013
0.00430026
0.00430026
0.0043496
0.0043496
0.00439814
0.00439814
0.00444587
0.00444587
0.00449279
0.00449279
0.00453888
0.00453888
0.00458413
0.00458413
0.00462855
0.00462855
0.00467211
0.00467211
0.00471483
0.00471483
0.00475669
0.00475669
0.00479769
0.00479769
0.00483783
0.00483783
0.00487711
0.00487711
0.00491551
0.00491551
0.00495305
0.00495305
0.00498972
0.00498972
0.00502552
0.00502552
0.00506045
0.00506045
0.00509452
0.00509452
0.00512771
0.00512771
0.00516004
0.00516004
0.0051915
0.0051915
0.0052221
0.0052221
0.00525184
0.00525184
0.00528073
0.00528073
0.00530876
0.00530876
0.00533594
0.00533594
0.00536227
0.00536227
0.00538776
0.00538776
0.00541241
0.00541241
0.00543623
0.00543623
0.00545922
0.00545922
0.00548138
0.00548138
0.00550273
0.00550273
0.00552326
0.00552326
0.00554298
0.00554298
0.0055619
0.0055619
0.00558002
0.00558002
0.00559735
0.00559735
0.0056139
0.0056139
0.00562966
0.00562966
0.00564466
0.00564466
0.00565888
0.00565888
0.00567235
0.00567235
0.00568506
0.00568506
0.00569703
0.00569703
0.00570825
0.00570825
0.00571875
0.00571875
0.00572851
0.00572851
0.00573756
0.00573756
0.00574589
0.00574589
0.00575352
0.00575352
0.00576045
0.00576045
0.00576669
0.00576669
0.00577224
0.00577224
0.00577712
0.00577712
0.00578133
0.00578133
0.00578488
0.00578488
0.00578777
0.00578777
0.00579002
0.00579002
0.00579162
0.00579162
0.00579259
0.00579259
0.00579294
0.00579294
0.00579267
0.00579267
0.00579179
0.00579179
0.00579031
0.00579031
0.00578823
0.00578823
0.00578557
0.00578557
0.00578233
0.00578233
0.00577851
0.00577851
0.00577413
0.00577413
0.00576919
0.00576919
0.0057637
0.0057637
0.00575766
0.00575766
0.0057511
0.0057511
0.005744
0.005744
0.00573639
0.00573639
0.00572826
0.00572826
0.00571963
0.00571963
0.0057105
0.0057105
0.00570088
0.00570088
0.00569077
0.00569077
0.00568019
0.00568019
0.00566915
0.00566915
0.00565764
0.00565764
0.00564568
0.00564568
0.00563327
0.00563327
0.00562042
0.00562042
0.00560715
0.00560715
0.00559344
0.00559344
0.00557932
0.00557932
0.00556479
0.00556479
0.00554986
0.00554986
0.00553453
0.00553453
0.00551882
0.00551882
0.00550272
0.00550272
0.00548625
0.00548625
0.0054694
0.0054694
0.0054522
0.0054522
0.00543465
0.00543465
0.00541675
0.00541675
0.0053985
0.0053985
0.00537993
0.00537993
0.00536103
0.00536103
0.00534181
0.00534181
0.00532227
0.00532227
0.00530243
0.00530243
0.00528229
0.00528229
0.00526186
0.00526186
0.00524113
0.00524113
0.00522013
0.00522013
0.00519886
0.00519886
0.00517732
0.00517732
0.00515552
0.00515552
0.00513346
0.00513346
0.00511115
0.00511115
0.00508861
0.00508861
0.00506582
0.00506582
0.00504281
0.00504281
0.00501957
0.00501957
0.00499612
0.00499612
0.00497245
0.00497245
0.00494858
0.00494858
0.0049245
0.0049245
0.00490024
0.00490024
0.00487578
0.00487578
0.00485115
0.00485115
0.00482633
0.00482633
0.00480135
0.00480135
0.00477619
0.00477619
0.00475088
0.00475088
0.00472542
0.00472542
0.0046998
0.0046998
0.00467404
0.00467404
0.00464815
0.00464815
0.00462212
0.00462212
0.00459596
0.00459596
0.00456968
0.00456968
0.00454328
0.00454328
0.00451676
0.00451676
0.00449014
0.00449014
0.00446342
0.00446342
0.0044366
0.0044366
0.00440969
0.00440969
0.00438269
0.00438269
0.0043556
0.0043556
0.00432844
0.00432844
0.0043012
0.0043012
0.00427389
0.00427389
0.00424652
0.00424652
0.00421909
0.00421909
0.0041916
0.0041916
0.00416405
0.00416405
0.00413646
0.00413646
0.00410883
0.00410883
0.00408116
0.00408116
0.00405345
0.00405345
0.00402571
0.00402571
0.00399795
0.00399795
0.00397016
0.00397016
0.00394235
0.00394235
0.00391453
0.00391453
0.00388669
0.00388669
0.00385885
0.00385885
0.003831
0.003831
0.00380316
0.00380316
0.00377531
0.00377531
0.00374747
0.00374747
0.00371964
0.00371964
0.00369183
0.00369183
0.00366403
0.00366403
0.00363625
0.00363625
0.0036085
0.0036085
0.00358077
0.00358077
0.00355307
0.00355307
0.00352541
0.00352541
0.00349777
0.00349777
0.00347018
0.00347018
0.00344263
0.00344263
0.00341513
0.00341513
0.00338767
0.00338767
0.00336026
0.00336026
0.0033329
0.0033329
0.0033056
0.0033056
0.00327836
0.00327836
0.00325118
0.00325118
0.00322406
0.00322406
0.00319701
0.00319701
0.00317002
0.00317002
0.00314311
0.00314311
0.00311627
0.00311627
0.0030895
0.0030895
0.00306281
0.00306281
0.0030362
0.0030362
0.00300967
0.00300967
0.00298323
0.00298323
0.00295687
0.00295687
0.00293059
0.00293059
0.00290441
0.00290441
0.00287832
0.00287832
0.00285232
0.00285232
0.00282642
0.00282642
0.00280061
0.00280061
0.00277491
0.00277491
0.0027493
0.0027493
0.00272379
0.00272379
0.00269839
0.00269839
0.00267309
0.00267309
0.0026479
0.0026479
0.00262282
0.00262282
0.00259785
0.00259785
0.00257298
0.00257298
0.00254823
0.00254823
0.0025236
0.0025236
0.00249907
0.00249907
0.00247467
0.00247467
0.00245038
0.00245038
0.00242621
0.00242621
0.00240215
0.00240215
0.00237822
0.00237822
0.00235441
0.00235441
0.00233072
0.00233072
0.00230716
0.00230716
0.00228372
0.00228372
0.0022604
0.0022604
0.00223722
0.00223722
0.00221415
0.00221415
0.00219122
0.00219122
0.00216841
0.00216841
0.00214574
0.00214574
0.00212319
0.00212319
0.00210078
0.00210078
0.00207849
0.00207849
0.00205634
0.00205634
0.00203432
0.00203432
0.00201243
0.00201243
0.00199068
0.00199068
0.00196906
0.00196906
0.00194758
0.00194758
0.00192623
0.00192623
0.00190501
0.00190501
0.00188393
0.00188393
0.00186299
0.00186299
0.00184219
0.00184219
0.00182152
0.00182152
0.00180099
0.00180099
0.00178059
0.00178059
0.00176034
0.00176034
0.00174022
0.00174022
0.00172024
0.00172024
0.0017004
0.0017004
0.00168069
0.00168069
0.00166113
0.00166113
0.0016417
0.0016417
0.00162242
0.00162242
0.00160327
0.00160327
0.00158426
0.00158426
0.00156539
0.00156539
0.00154667
0.00154667
0.00152808
0.00152808
0.00150963
0.00150963
0.00149131
0.00149131
0.00147314
0.00147314
0.00145511
0.00145511
0.00143722
0.00143722
0.00141947
0.00141947
0.00140185
0.00140185
0.00138438
0.00138438
0.00136704
0.00136704
0.00134985
0.00134985
0.00133279
0.00133279
0.00131588
0.00131588
0.0012991
0.0012991
0.00128246
0.00128246
0.00126596
0.00126596
0.0012496
0.0012496
0.00123337
0.00123337
0.00121729
0.00121729
0.00120134
0.00120134
0.00118553
0.00118553
0.00116986
0.00116986
0.00115433
0.00115433
0.00113893
0.00113893
0.00112368
0.00112368
0.00110856
0.00110856
0.00109358
0.00109358
0.00107873
0.00107873
0.00106402
0.00106402
0.00104945
0.00104945
0.00103502
0.00103502
0.00102073
0.00102073
0.00100657
0.00100657
0.000992543
0.000992543
0.000978657
0.000978657
0.000964907
0.000964907
0.000951294
0.000951294
0.000937817
0.000937817
0.000924476
0.000924476
0.000911272
0.000911272
0.000898204
0.000898204
0.000885272
0.000885272
0.000872476
0.000872476
0.000859816
0.000859816
0.000847292
0.000847292
0.000834905
0.000834905
0.000822653
0.000822653
0.000810538
0.000810538
0.000798558
0.000798558
0.000786715
0.000786715
0.000775008
0.000775008
0.000763438
0.000763438
0.000752004
0.000752004
0.000740706
0.000740706
0.000729545
0.000729545
0.00071852
0.00071852
0.000707633
0.000707633
0.000696882
0.000696882
0.000686268
0.000686268
0.000675792
0.000675792
0.000665452
0.000665452
0.000655251
0.000655251
0.000645187
0.000645187
0.000635261
0.000635261
0.000625473
0.000625473
0.000615823
0.000615823
0.000606311
0.000606311
0.000596938
0.000596938
0.000587704
0.000587704
0.000578609
0.000578609
0.000569653
0.000569653
0.000560836
0.000560836
0.000552159
0.000552159
0.000543621
0.000543621
0.000535224
0.000535224
0.000526966
0.000526966
0.000518848
0.000518848
0.00051087
0.00051087
0.000503033
0.000503033
0.000495336
0.000495336
0.000487779
0.000487779
0.000480363
0.000480363
0.000473086
0.000473086
0.000465951
0.000465951
0.000458955
0.000458955
0.000452099
0.0004521
0.000445384
0.000445384
0.000438808
0.000438808
0.000432371
0.000432371
0.000426074
0.000426074
0.000419915
0.000419915
0.000413895
0.000413895
0.000408012
0.000408012
0.000402267
0.000402267
0.000396658
0.000396658
0.000391185
0.000391185
0.000385848
0.000385848
0.000380645
0.000380645
0.000375576
0.000375576
0.000370639
0.000370639
0.000365834
0.000365834
0.00036116
0.00036116
0.000356614
0.000356614
0.000352197
0.000352197
0.000347907
0.000347907
0.000343742
0.000343742
0.0003397
0.0003397
0.000335781
0.000335781
0.000331983
0.000331983
0.000328304
0.000328304
0.000324742
0.000324742
0.000321295
0.000321295
0.000317962
0.000317962
0.000314741
0.000314741
0.000311629
0.000311629
0.000308624
0.000308624
0.000305725
0.000305725
0.000302929
0.000302929
0.000300235
0.000300235
0.000297639
0.000297639
0.000295139
0.000295139
0.000292734
0.000292734
0.000290421
0.000290421
0.000288197
0.000288197
0.000286061
0.000286061
0.00028401
0.00028401
0.000282041
0.000282041
0.000280152
0.000280152
0.000278342
0.000278342
0.000276606
0.000276606
0.000274944
0.000274944
0.000273353
0.000273353
0.00027183
0.00027183
0.000270373
0.000270373
0.00026898
0.00026898
0.00026765
0.00026765
0.000266378
0.000266378
0.000265164
0.000265164
0.000264005
0.000264005
0.0002629
0.0002629
0.000261846
0.000261846
0.00026084
0.00026084
0.000259882
0.000259882
0.000258969
0.000258969
0.0002581
0.0002581
0.000257272
0.000257272
0.000256484
0.000256484
0.000255734
0.000255734
0.00025502
0.00025502
0.000254341
0.000254341
0.000253696
0.000253696
0.000253082
0.000253082
0.000252498
0.000252498
0.000251942
0.000251942
0.000251415
0.000251415
0.000250913
0.000250913
0.000250436
0.000250436
0.000249982
0.000249982
0.00024955
0.00024955
0.00024914
0.00024914
0.000248749
0.000248749
0.000248377
0.000248377
0.000248023
0.000248023
0.000247686
0.000247686
0.000247365
0.000247365
0.000247058
0.000247058
0.000246766
0.000246766
0.000246487
0.000246487
0.00024622
0.00024622
0.000245964
0.000245964
0.00024572
0.00024572
0.000245485
0.000245485
0.00024526
0.00024526
0.000245044
0.000245044
0.000244836
0.000244836
0.000244636
0.000244636
0.000244442
0.000244442
0.000244255
0.000244255
0.000244074
0.000244074
0.000243898
0.000243898
0.000243728
0.000243728
0.000243562
0.000243562
0.0002434
0.0002434
0.000243242
0.000243242
0.000243087
0.000243087
0.000242936
0.000242936
0.000242787
0.000242787
0.000242641
0.000242641
0.000242498
0.000242498
0.000242356
0.000242356
0.000242216
0.000242216
0.000242078
0.000242078
0.000241941
0.000241941
0.000241806
0.000241806
0.000241671
0.000241671
0.000241538
0.000241538
0.000241406
0.000241406
0.000241274
0.000241274
0.000241143
0.000241143
0.000241014
0.000241014
0.000240885
0.000240885
0.000240756
0.000240756
0.000240629
0.000240629
0.000240502
0.000240502
0.000240377
0.000240377
0.000240252
0.000240252
0.000240129
0.000240129
0.000240007
0.000240007
0.000239886
0.000239886
0.000239767
0.000239767
0.000239649
0.000239649
0.000239534
0.000239534
0.00023942
0.00023942
0.000239309
0.000239309
0.000239201
0.000239201
0.000239096
0.000239096
0.000238994
0.000238994
0.000238895
0.000238895
0.0002388
0.0002388
0.00023871
0.00023871
0.000238624
0.000238624
0.000238543
0.000238543
0.000238467
0.000238467
0.000238397
0.000238397
0.000238333
0.000238333
0.000238275
0.000238275
0.000238225
0.000238225
0.000238182
0.000238182
0.000238146
0.000238146
0.000238119
0.000238119
0.000238101
0.000238101
0.000238091
0.000238091
0.000238091
0.000238091
0.000238101
0.000238101
0.000238119
0.000238119
0.000238146
0.000238146
0.000238182
0.000238182
0.000238225
0.000238225
0.000238275