/*--------------------------------*- C++ -*----------------------------------*\
| =========                 |                                                 |
| \\      /  F ield         | OpenFOAM: The Open Source CFD Toolbox           |
|  \\    /   O peration     | Version:  2012                                  |
|   \\  /    A nd           | Website:  www.openfoam.com                      |
|    \\/     M anipulation  |                                                 |
\*---------------------------------------------------------------------------*/
FoamFile
{
    version     2.0;
    format      ascii;
    class       volScalarField;
    location    "14000";
    object      nut;
}
// * * * * * * * * * * * * * * * * * * * * * * * * * * * * * * * * * * * * * //

dimensions      [0 2 -1 0 0 0 0];


internalField   nonuniform List<scalar> 
5120
(
6.34615e-15
6.34615e-15
5.53038e-15
5.53038e-15
8.35669e-15
8.35669e-15
3.2159e-14
3.2159e-14
1.30165e-13
1.30165e-13
4.20466e-13
4.20466e-13
1.12137e-12
1.12137e-12
2.59305e-12
2.59305e-12
5.38569e-12
5.38569e-12
1.02944e-11
1.02944e-11
1.84216e-11
1.84216e-11
3.12468e-11
3.12468e-11
5.07047e-11
5.07047e-11
7.92726e-11
7.92726e-11
1.20066e-10
1.20066e-10
1.76948e-10
1.76948e-10
2.5464e-10
2.5464e-10
3.58859e-10
3.58859e-10
4.96453e-10
4.96453e-10
6.75557e-10
6.75557e-10
9.05761e-10
9.05761e-10
1.19829e-09
1.19829e-09
1.56622e-09
1.56622e-09
2.02466e-09
2.02466e-09
2.59101e-09
2.59101e-09
3.28521e-09
3.28521e-09
4.13001e-09
4.13001e-09
5.15124e-09
5.15124e-09
6.37817e-09
6.37817e-09
7.8438e-09
7.8438e-09
9.58521e-09
9.58521e-09
1.1644e-08
1.1644e-08
1.40667e-08
1.40667e-08
1.6905e-08
1.6905e-08
2.02166e-08
2.02166e-08
2.40653e-08
2.40653e-08
2.85217e-08
2.85217e-08
3.36638e-08
3.36638e-08
3.95775e-08
3.95775e-08
4.63569e-08
4.63569e-08
5.41056e-08
5.41056e-08
6.29366e-08
6.29366e-08
7.29736e-08
7.29736e-08
8.43511e-08
8.43511e-08
9.72155e-08
9.72155e-08
1.11726e-07
1.11726e-07
1.28055e-07
1.28055e-07
1.46388e-07
1.46388e-07
1.66927e-07
1.66927e-07
1.89888e-07
1.89888e-07
2.15505e-07
2.15505e-07
2.44027e-07
2.44027e-07
2.75723e-07
2.75723e-07
3.1088e-07
3.1088e-07
3.49803e-07
3.49803e-07
3.92819e-07
3.92819e-07
4.40274e-07
4.40274e-07
4.92536e-07
4.92536e-07
5.49995e-07
5.49995e-07
6.13063e-07
6.13063e-07
6.82175e-07
6.82175e-07
7.57787e-07
7.57787e-07
8.40381e-07
8.40381e-07
9.3046e-07
9.3046e-07
1.02855e-06
1.02855e-06
1.1352e-06
1.1352e-06
1.25099e-06
1.25099e-06
1.37651e-06
1.37651e-06
1.51237e-06
1.51237e-06
1.65921e-06
1.65921e-06
1.8177e-06
1.8177e-06
1.9885e-06
1.9885e-06
2.17231e-06
2.17231e-06
2.36985e-06
2.36985e-06
2.58183e-06
2.58183e-06
2.80899e-06
2.80899e-06
3.05208e-06
3.05208e-06
3.31187e-06
3.31187e-06
3.58911e-06
3.58911e-06
3.88457e-06
3.88457e-06
4.19904e-06
4.19904e-06
4.53327e-06
4.53327e-06
4.88803e-06
4.88803e-06
5.2641e-06
5.2641e-06
5.66222e-06
5.66222e-06
6.08315e-06
6.08315e-06
6.5276e-06
6.5276e-06
6.99631e-06
6.99631e-06
7.48996e-06
7.48996e-06
8.00924e-06
8.00924e-06
8.5548e-06
8.5548e-06
9.12726e-06
9.12726e-06
9.72723e-06
9.72723e-06
1.03553e-05
1.03553e-05
1.1012e-05
1.1012e-05
1.16978e-05
1.16978e-05
1.24132e-05
1.24132e-05
1.31587e-05
1.31587e-05
1.39346e-05
1.39346e-05
1.47414e-05
1.47414e-05
1.55793e-05
1.55793e-05
1.64487e-05
1.64487e-05
1.73498e-05
1.73498e-05
1.82828e-05
1.82828e-05
1.9248e-05
1.9248e-05
2.02454e-05
2.02454e-05
2.12752e-05
2.12752e-05
2.23375e-05
2.23375e-05
2.34322e-05
2.34322e-05
2.45595e-05
2.45595e-05
2.57192e-05
2.57192e-05
2.69114e-05
2.69114e-05
2.81359e-05
2.81359e-05
2.93927e-05
2.93927e-05
3.06815e-05
3.06815e-05
3.20023e-05
3.20023e-05
3.33549e-05
3.33549e-05
3.47389e-05
3.47389e-05
3.61543e-05
3.61543e-05
3.76007e-05
3.76007e-05
3.90779e-05
3.90779e-05
4.05856e-05
4.05856e-05
4.21235e-05
4.21235e-05
4.36913e-05
4.36913e-05
4.52886e-05
4.52886e-05
4.69151e-05
4.69151e-05
4.85705e-05
4.85705e-05
5.02544e-05
5.02544e-05
5.19664e-05
5.19664e-05
5.37062e-05
5.37062e-05
5.54734e-05
5.54734e-05
5.72676e-05
5.72676e-05
5.90884e-05
5.90884e-05
6.09354e-05
6.09354e-05
6.28082e-05
6.28082e-05
6.47065e-05
6.47065e-05
6.66298e-05
6.66298e-05
6.85777e-05
6.85777e-05
7.05498e-05
7.05498e-05
7.25458e-05
7.25458e-05
7.45652e-05
7.45652e-05
7.66077e-05
7.66077e-05
7.86727e-05
7.86727e-05
8.07601e-05
8.07601e-05
8.28693e-05
8.28693e-05
8.49999e-05
8.49999e-05
8.71517e-05
8.71517e-05
8.93241e-05
8.93241e-05
9.15169e-05
9.15169e-05
9.37296e-05
9.37296e-05
9.59619e-05
9.59619e-05
9.82134e-05
9.82134e-05
0.000100484
0.000100484
0.000102773
0.000102773
0.000105079
0.000105079
0.000107404
0.000107404
0.000109746
0.000109746
0.000112106
0.000112106
0.000114482
0.000114482
0.000116874
0.000116874
0.000119282
0.000119282
0.000121706
0.000121706
0.000124146
0.000124146
0.000126601
0.000126601
0.00012907
0.00012907
0.000131554
0.000131554
0.000134052
0.000134052
0.000136564
0.000136564
0.00013909
0.00013909
0.000141628
0.000141628
0.00014418
0.00014418
0.000146745
0.000146745
0.000149321
0.000149321
0.00015191
0.00015191
0.000154511
0.000154511
0.000157123
0.000157123
0.000159747
0.000159747
0.000162381
0.000162381
0.000165027
0.000165027
0.000167683
0.000167683
0.000170349
0.000170349
0.000173025
0.000173025
0.00017571
0.00017571
0.000178406
0.000178406
0.00018111
0.00018111
0.000183824
0.000183824
0.000186546
0.000186546
0.000189277
0.000189277
0.000192016
0.000192016
0.000194763
0.000194763
0.000197518
0.000197518
0.00020028
0.00020028
0.00020305
0.00020305
0.000205827
0.000205827
0.000208611
0.000208611
0.000211402
0.000211402
0.000214199
0.000214199
0.000217002
0.000217002
0.000219812
0.000219812
0.000222627
0.000222627
0.000225448
0.000225448
0.000228274
0.000228274
0.000231106
0.000231106
0.000233943
0.000233943
0.000236785
0.000236785
0.000239631
0.000239631
0.000242482
0.000242482
0.000245337
0.000245337
0.000248196
0.000248196
0.000251059
0.000251059
0.000253926
0.000253926
0.000256797
0.000256797
0.00025967
0.00025967
0.000262547
0.000262547
0.000265427
0.000265427
0.00026831
0.00026831
0.000271196
0.000271196
0.000274083
0.000274083
0.000276974
0.000276974
0.000279866
0.000279866
0.00028276
0.00028276
0.000285656
0.000285656
0.000288554
0.000288554
0.000291453
0.000291453
0.000294354
0.000294354
0.000297255
0.000297255
0.000300158
0.000300158
0.000303061
0.000303061
0.000305965
0.000305965
0.00030887
0.00030887
0.000311775
0.000311775
0.00031468
0.00031468
0.000317585
0.000317585
0.00032049
0.00032049
0.000323395
0.000323395
0.000326299
0.000326299
0.000329203
0.000329203
0.000332106
0.000332106
0.000335008
0.000335008
0.00033791
0.00033791
0.00034081
0.00034081
0.000343709
0.000343709
0.000346606
0.000346606
0.000349502
0.000349502
0.000352396
0.000352396
0.000355288
0.000355288
0.000358178
0.000358178
0.000361066
0.000361066
0.000363952
0.000363952
0.000366836
0.000366836
0.000369717
0.000369717
0.000372595
0.000372595
0.00037547
0.00037547
0.000378343
0.000378343
0.000381212
0.000381212
0.000384079
0.000384079
0.000386942
0.000386942
0.000389801
0.000389801
0.000392657
0.000392657
0.00039551
0.00039551
0.000398358
0.000398358
0.000401203
0.000401203
0.000404043
0.000404043
0.00040688
0.00040688
0.000409712
0.000409712
0.000412539
0.000412539
0.000415362
0.000415362
0.000418181
0.000418181
0.000420994
0.000420994
0.000423803
0.000423803
0.000426606
0.000426606
0.000429405
0.000429405
0.000432198
0.000432198
0.000434986
0.000434986
0.000437769
0.000437769
0.000440546
0.000440546
0.000443317
0.000443317
0.000446082
0.000446082
0.000448842
0.000448842
0.000451595
0.000451595
0.000454343
0.000454343
0.000457084
0.000457084
0.000459819
0.000459819
0.000462547
0.000462547
0.000465269
0.000465269
0.000467984
0.000467984
0.000470692
0.000470692
0.000473394
0.000473394
0.000476089
0.000476089
0.000478776
0.000478776
0.000481457
0.000481457
0.00048413
0.00048413
0.000486796
0.000486796
0.000489454
0.000489454
0.000492105
0.000492105
0.000494748
0.000494748
0.000497384
0.000497384
0.000500011
0.000500011
0.000502631
0.000502631
0.000505243
0.000505243
0.000507847
0.000507847
0.000510442
0.000510442
0.00051303
0.00051303
0.000515609
0.000515609
0.000518179
0.000518179
0.000520741
0.000520741
0.000523295
0.000523295
0.00052584
0.00052584
0.000528376
0.000528376
0.000530903
0.000530903
0.000533421
0.000533421
0.000535931
0.000535931
0.000538431
0.000538431
0.000540922
0.000540922
0.000543404
0.000543404
0.000545877
0.000545877
0.00054834
0.00054834
0.000550794
0.000550794
0.000553238
0.000553238
0.000555673
0.000555673
0.000558099
0.000558099
0.000560514
0.000560514
0.00056292
0.00056292
0.000565316
0.000565316
0.000567702
0.000567702
0.000570078
0.000570078
0.000572445
0.000572445
0.000574801
0.000574801
0.000577147
0.000577147
0.000579483
0.000579483
0.000581809
0.000581809
0.000584125
0.000584125
0.00058643
0.00058643
0.000588725
0.000588725
0.00059101
0.00059101
0.000593284
0.000593284
0.000595548
0.000595548
0.000597801
0.000597801
0.000600044
0.000600044
0.000602276
0.000602276
0.000604498
0.000604498
0.000606709
0.000606709
0.000608909
0.000608909
0.000611099
0.000611099
0.000613278
0.000613278
0.000615446
0.000615446
0.000617604
0.000617604
0.000619751
0.000619751
0.000621887
0.000621887
0.000624012
0.000624012
0.000626127
0.000626127
0.000628231
0.000628231
0.000630324
0.000630324
0.000632406
0.000632406
0.000634477
0.000634477
0.000636538
0.000636538
0.000638588
0.000638588
0.000640628
0.000640628
0.000642656
0.000642656
0.000644674
0.000644674
0.000646681
0.000646681
0.000648678
0.000648678
0.000650664
0.000650664
0.000652639
0.000652639
0.000654604
0.000654604
0.000656558
0.000656558
0.000658502
0.000658502
0.000660436
0.000660436
0.000662359
0.000662359
0.000664272
0.000664272
0.000666174
0.000666174
0.000668067
0.000668067
0.000669949
0.000669949
0.000671821
0.000671821
0.000673684
0.000673684
0.000675536
0.000675536
0.000677379
0.000677379
0.000679212
0.000679212
0.000681036
0.000681036
0.00068285
0.00068285
0.000684655
0.000684655
0.000686451
0.000686451
0.000688237
0.000688237
0.000690015
0.000690015
0.000691784
0.000691784
0.000693544
0.000693544
0.000695296
0.000695296
0.00069704
0.00069704
0.000698775
0.000698775
0.000700502
0.000700502
0.000702222
0.000702222
0.000703934
0.000703934
0.000705638
0.000705638
0.000707336
0.000707336
0.000709026
0.000709026
0.00071071
0.00071071
0.000712387
0.000712387
0.000714058
0.000714058
0.000715723
0.000715723
0.000717382
0.000717382
0.000719036
0.000719036
0.000720685
0.000720685
0.000722329
0.000722329
0.000723968
0.000723968
0.000725603
0.000725603
0.000727235
0.000727235
0.000728863
0.000728863
0.000730487
0.000730487
0.000732109
0.000732109
0.000733729
0.000733729
0.000735347
0.000735347
0.000736963
0.000736963
0.000738579
0.000738579
0.000740193
0.000740193
0.000741808
0.000741808
0.000743423
0.000743423
0.000745039
0.000745039
0.000746656
0.000746656
0.000748276
0.000748276
0.000749898
0.000749898
0.000751523
0.000751523
0.000753152
0.000753152
0.000754785
0.000754785
0.000756424
0.000756424
0.000758068
0.000758068
0.000759719
0.000759719
0.000761378
0.000761378
0.000763044
0.000763044
0.000764719
0.000764719
0.000766404
0.000766404
0.0007681
0.0007681
0.000769807
0.000769807
0.000771526
0.000771526
0.000773259
0.000773259
0.000775007
0.000775007
0.000776769
0.000776769
0.000778549
0.000778549
0.000780346
0.000780346
0.000782162
0.000782162
0.000783997
0.000783997
0.000785855
0.000785855
0.000787734
0.000787734
0.000789638
0.000789638
0.000791567
0.000791567
0.000793523
0.000793523
0.000795508
0.000795508
0.000797522
0.000797522
0.000799568
0.000799568
0.000801647
0.000801647
0.000803761
0.000803761
0.000805912
0.000805912
0.000808102
0.000808102
0.000810333
0.000810333
0.000812607
0.000812607
0.000814926
0.000814926
0.000817291
0.000817291
0.000819707
0.000819707
0.000822174
0.000822174
0.000824696
0.000824696
0.000827275
0.000827275
0.000829913
0.000829913
0.000832614
0.000832614
0.000835381
0.000835381
0.000838216
0.000838216
0.000841122
0.000841122
0.000844104
0.000844104
0.000847163
0.000847163
0.000850304
0.000850304
0.000853531
0.000853531
0.000856846
0.000856846
0.000860255
0.000860255
0.000863761
0.000863761
0.000867368
0.000867368
0.000871081
0.000871081
0.000874904
0.000874904
0.000878842
0.000878842
0.000882899
0.000882899
0.000887082
0.000887082
0.000891394
0.000891394
0.000895842
0.000895842
0.000900431
0.000900431
0.000905167
0.000905167
0.000910055
0.000910055
0.000915102
0.000915102
0.000920314
0.000920314
0.000925698
0.000925698
0.00093126
0.00093126
0.000937008
0.000937008
0.000942948
0.000942948
0.000949088
0.000949088
0.000955436
0.000955436
0.000961998
0.000961998
0.000968784
0.000968784
0.0009758
0.0009758
0.000983056
0.000983056
0.000990559
0.000990559
0.00099832
0.00099832
0.00100634
0.00100634
0.00101464
0.00101464
0.00102323
0.00102323
0.0010321
0.0010321
0.00104128
0.00104128
0.00105077
0.00105077
0.00106058
0.00106058
0.00107072
0.00107072
0.00108119
0.00108119
0.00109202
0.00109202
0.00110321
0.00110321
0.00111477
0.00111477
0.0011267
0.0011267
0.00113902
0.00113902
0.00115174
0.00115174
0.00116487
0.00116487
0.00117841
0.00117841
0.00119238
0.00119238
0.00120678
0.00120678
0.00122162
0.00122162
0.00123691
0.00123691
0.00125266
0.00125266
0.00126887
0.00126887
0.00128556
0.00128556
0.00130272
0.00130272
0.00132037
0.00132037
0.00133851
0.00133851
0.00135715
0.00135715
0.00137628
0.00137628
0.00139593
0.00139593
0.00141608
0.00141608
0.00143674
0.00143674
0.00145792
0.00145792
0.00147961
0.00147961
0.00150182
0.00150182
0.00152455
0.00152455
0.0015478
0.0015478
0.00157156
0.00157156
0.00159584
0.00159584
0.00162063
0.00162063
0.00164592
0.00164592
0.00167173
0.00167173
0.00169804
0.00169804
0.00172484
0.00172484
0.00175213
0.00175213
0.00177991
0.00177991
0.00180816
0.00180816
0.00183689
0.00183689
0.00186607
0.00186607
0.00189571
0.00189571
0.00192579
0.00192579
0.0019563
0.0019563
0.00198723
0.00198723
0.00201857
0.00201857
0.0020503
0.0020503
0.00208243
0.00208243
0.00211492
0.00211492
0.00214777
0.00214777
0.00218097
0.00218097
0.0022145
0.0022145
0.00224834
0.00224834
0.00228248
0.00228248
0.00231691
0.00231691
0.0023516
0.0023516
0.00238655
0.00238655
0.00242174
0.00242174
0.00245714
0.00245714
0.00249275
0.00249275
0.00252854
0.00252854
0.0025645
0.0025645
0.00260061
0.00260061
0.00263685
0.00263685
0.00267321
0.00267321
0.00270966
0.00270966
0.00274619
0.00274619
0.00278278
0.00278278
0.00281941
0.00281941
0.00285606
0.00285606
0.00289272
0.00289272
0.00292936
0.00292936
0.00296597
0.00296597
0.00300252
0.00300252
0.003039
0.003039
0.00307539
0.00307539
0.00311168
0.00311168
0.00314783
0.00314783
0.00318384
0.00318384
0.00321968
0.00321968
0.00325534
0.00325534
0.00329079
0.00329079
0.00332602
0.00332602
0.00336101
0.00336101
0.00339575
0.00339575
0.0034302
0.0034302
0.00346436
0.00346436
0.00349821
0.00349821
0.00353172
0.00353172
0.00356488
0.00356488
0.00359768
0.00359768
0.00363008
0.00363008
0.00366209
0.00366209
0.00369367
0.00369367
0.00372481
0.00372481
0.00375549
0.00375549
0.0037857
0.0037857
0.00381542
0.00381542
0.00384463
0.00384463
0.00387331
0.00387331
0.00390145
0.00390145
0.00392903
0.00392903
0.00395603
0.00395603
0.00398244
0.00398244
0.00400825
0.00400825
0.00403343
0.00403343
0.00405797
0.00405797
0.00408185
0.00408185
0.00410506
0.00410506
0.00412758
0.00412758
0.00414941
0.00414941
0.00417051
0.00417051
0.00419088
0.00419088
0.00421051
0.00421051
0.00422938
0.00422938
0.00424747
0.00424747
0.00426477
0.00426477
0.00428127
0.00428127
0.00429696
0.00429696
0.00431181
0.00431181
0.00432583
0.00432583
0.00433899
0.00433899
0.00435128
0.00435128
0.0043627
0.00436269
0.00437322
0.00437322
0.00438284
0.00438284
0.00439154
0.00439154
0.00439932
0.00439932
0.00440617
0.00440617
0.00441206
0.00441206
0.004417
0.004417
0.00442097
0.00442097
0.00442397
0.00442397
0.00442597
0.00442597
0.00442698
0.00442698
6.34615e-15
6.34615e-15
5.53038e-15
5.53038e-15
8.35669e-15
8.35669e-15
3.2159e-14
3.2159e-14
1.30165e-13
1.30165e-13
4.20466e-13
4.20466e-13
1.12137e-12
1.12137e-12
2.59305e-12
2.59305e-12
5.38569e-12
5.38569e-12
1.02944e-11
1.02944e-11
1.84216e-11
1.84216e-11
3.12468e-11
3.12468e-11
5.07047e-11
5.07047e-11
7.92726e-11
7.92726e-11
1.20066e-10
1.20066e-10
1.76948e-10
1.76948e-10
2.5464e-10
2.5464e-10
3.58859e-10
3.58859e-10
4.96453e-10
4.96453e-10
6.75557e-10
6.75557e-10
9.05761e-10
9.05761e-10
1.19829e-09
1.19829e-09
1.56622e-09
1.56622e-09
2.02466e-09
2.02466e-09
2.59101e-09
2.59101e-09
3.28521e-09
3.28521e-09
4.13001e-09
4.13001e-09
5.15124e-09
5.15124e-09
6.37817e-09
6.37817e-09
7.8438e-09
7.8438e-09
9.58521e-09
9.58521e-09
1.1644e-08
1.1644e-08
1.40667e-08
1.40667e-08
1.6905e-08
1.6905e-08
2.02166e-08
2.02166e-08
2.40653e-08
2.40653e-08
2.85217e-08
2.85217e-08
3.36638e-08
3.36638e-08
3.95775e-08
3.95775e-08
4.63569e-08
4.63569e-08
5.41056e-08
5.41056e-08
6.29366e-08
6.29366e-08
7.29736e-08
7.29736e-08
8.43511e-08
8.43511e-08
9.72155e-08
9.72155e-08
1.11726e-07
1.11726e-07
1.28055e-07
1.28055e-07
1.46388e-07
1.46388e-07
1.66927e-07
1.66927e-07
1.89888e-07
1.89888e-07
2.15505e-07
2.15505e-07
2.44027e-07
2.44027e-07
2.75723e-07
2.75723e-07
3.1088e-07
3.1088e-07
3.49803e-07
3.49803e-07
3.92819e-07
3.92819e-07
4.40274e-07
4.40274e-07
4.92536e-07
4.92536e-07
5.49995e-07
5.49995e-07
6.13063e-07
6.13063e-07
6.82175e-07
6.82175e-07
7.57787e-07
7.57787e-07
8.40381e-07
8.40381e-07
9.3046e-07
9.3046e-07
1.02855e-06
1.02855e-06
1.1352e-06
1.1352e-06
1.25099e-06
1.25099e-06
1.37651e-06
1.37651e-06
1.51237e-06
1.51237e-06
1.65921e-06
1.65921e-06
1.8177e-06
1.8177e-06
1.9885e-06
1.9885e-06
2.17231e-06
2.17231e-06
2.36985e-06
2.36985e-06
2.58183e-06
2.58183e-06
2.80899e-06
2.80899e-06
3.05208e-06
3.05208e-06
3.31187e-06
3.31187e-06
3.58911e-06
3.58911e-06
3.88457e-06
3.88457e-06
4.19904e-06
4.19904e-06
4.53327e-06
4.53327e-06
4.88803e-06
4.88803e-06
5.2641e-06
5.2641e-06
5.66222e-06
5.66222e-06
6.08315e-06
6.08315e-06
6.5276e-06
6.5276e-06
6.99631e-06
6.99631e-06
7.48996e-06
7.48996e-06
8.00924e-06
8.00924e-06
8.5548e-06
8.5548e-06
9.12726e-06
9.12726e-06
9.72723e-06
9.72723e-06
1.03553e-05
1.03553e-05
1.1012e-05
1.1012e-05
1.16978e-05
1.16978e-05
1.24132e-05
1.24132e-05
1.31587e-05
1.31587e-05
1.39346e-05
1.39346e-05
1.47414e-05
1.47414e-05
1.55793e-05
1.55793e-05
1.64487e-05
1.64487e-05
1.73498e-05
1.73498e-05
1.82828e-05
1.82828e-05
1.9248e-05
1.9248e-05
2.02454e-05
2.02454e-05
2.12752e-05
2.12752e-05
2.23375e-05
2.23375e-05
2.34322e-05
2.34322e-05
2.45595e-05
2.45595e-05
2.57192e-05
2.57192e-05
2.69114e-05
2.69114e-05
2.81359e-05
2.81359e-05
2.93927e-05
2.93927e-05
3.06815e-05
3.06815e-05
3.20023e-05
3.20023e-05
3.33549e-05
3.33549e-05
3.47389e-05
3.47389e-05
3.61543e-05
3.61543e-05
3.76007e-05
3.76007e-05
3.90779e-05
3.90779e-05
4.05856e-05
4.05856e-05
4.21235e-05
4.21235e-05
4.36913e-05
4.36913e-05
4.52886e-05
4.52886e-05
4.69151e-05
4.69151e-05
4.85705e-05
4.85705e-05
5.02544e-05
5.02544e-05
5.19664e-05
5.19664e-05
5.37062e-05
5.37062e-05
5.54734e-05
5.54734e-05
5.72676e-05
5.72676e-05
5.90884e-05
5.90884e-05
6.09354e-05
6.09354e-05
6.28082e-05
6.28082e-05
6.47065e-05
6.47065e-05
6.66298e-05
6.66298e-05
6.85777e-05
6.85777e-05
7.05498e-05
7.05498e-05
7.25458e-05
7.25458e-05
7.45652e-05
7.45652e-05
7.66077e-05
7.66077e-05
7.86727e-05
7.86727e-05
8.07601e-05
8.07601e-05
8.28693e-05
8.28693e-05
8.49999e-05
8.49999e-05
8.71517e-05
8.71517e-05
8.93241e-05
8.93241e-05
9.15169e-05
9.15169e-05
9.37296e-05
9.37296e-05
9.59619e-05
9.59619e-05
9.82134e-05
9.82134e-05
0.000100484
0.000100484
0.000102773
0.000102773
0.000105079
0.000105079
0.000107404
0.000107404
0.000109746
0.000109746
0.000112106
0.000112106
0.000114482
0.000114482
0.000116874
0.000116874
0.000119282
0.000119282
0.000121706
0.000121706
0.000124146
0.000124146
0.000126601
0.000126601
0.00012907
0.00012907
0.000131554
0.000131554
0.000134052
0.000134052
0.000136564
0.000136564
0.00013909
0.00013909
0.000141628
0.000141628
0.00014418
0.00014418
0.000146745
0.000146745
0.000149321
0.000149321
0.00015191
0.00015191
0.000154511
0.000154511
0.000157123
0.000157123
0.000159747
0.000159747
0.000162381
0.000162381
0.000165027
0.000165027
0.000167683
0.000167683
0.000170349
0.000170349
0.000173025
0.000173025
0.00017571
0.00017571
0.000178406
0.000178406
0.00018111
0.00018111
0.000183824
0.000183824
0.000186546
0.000186546
0.000189277
0.000189277
0.000192016
0.000192016
0.000194763
0.000194763
0.000197518
0.000197518
0.00020028
0.00020028
0.00020305
0.00020305
0.000205827
0.000205827
0.000208611
0.000208611
0.000211402
0.000211402
0.000214199
0.000214199
0.000217002
0.000217002
0.000219812
0.000219812
0.000222627
0.000222627
0.000225448
0.000225448
0.000228274
0.000228274
0.000231106
0.000231106
0.000233943
0.000233943
0.000236785
0.000236785
0.000239631
0.000239631
0.000242482
0.000242482
0.000245337
0.000245337
0.000248196
0.000248196
0.000251059
0.000251059
0.000253926
0.000253926
0.000256797
0.000256797
0.00025967
0.00025967
0.000262547
0.000262547
0.000265427
0.000265427
0.00026831
0.00026831
0.000271196
0.000271196
0.000274083
0.000274083
0.000276974
0.000276974
0.000279866
0.000279866
0.00028276
0.00028276
0.000285656
0.000285656
0.000288554
0.000288554
0.000291453
0.000291453
0.000294354
0.000294354
0.000297255
0.000297255
0.000300158
0.000300158
0.000303061
0.000303061
0.000305965
0.000305965
0.00030887
0.00030887
0.000311775
0.000311775
0.00031468
0.00031468
0.000317585
0.000317585
0.00032049
0.00032049
0.000323395
0.000323395
0.000326299
0.000326299
0.000329203
0.000329203
0.000332106
0.000332106
0.000335008
0.000335008
0.00033791
0.00033791
0.00034081
0.00034081
0.000343709
0.000343709
0.000346606
0.000346606
0.000349502
0.000349502
0.000352396
0.000352396
0.000355288
0.000355288
0.000358178
0.000358178
0.000361066
0.000361066
0.000363952
0.000363952
0.000366836
0.000366836
0.000369717
0.000369717
0.000372595
0.000372595
0.00037547
0.00037547
0.000378343
0.000378343
0.000381212
0.000381212
0.000384079
0.000384079
0.000386942
0.000386942
0.000389801
0.000389801
0.000392657
0.000392657
0.00039551
0.00039551
0.000398358
0.000398358
0.000401203
0.000401203
0.000404043
0.000404043
0.00040688
0.00040688
0.000409712
0.000409712
0.000412539
0.000412539
0.000415362
0.000415362
0.000418181
0.000418181
0.000420994
0.000420994
0.000423803
0.000423803
0.000426607
0.000426607
0.000429405
0.000429405
0.000432198
0.000432198
0.000434986
0.000434986
0.000437769
0.000437769
0.000440546
0.000440546
0.000443317
0.000443317
0.000446082
0.000446082
0.000448842
0.000448842
0.000451595
0.000451595
0.000454343
0.000454343
0.000457084
0.000457084
0.000459819
0.000459819
0.000462547
0.000462547
0.000465269
0.000465269
0.000467984
0.000467984
0.000470692
0.000470692
0.000473394
0.000473394
0.000476089
0.000476089
0.000478776
0.000478776
0.000481457
0.000481457
0.00048413
0.00048413
0.000486796
0.000486796
0.000489454
0.000489454
0.000492105
0.000492105
0.000494748
0.000494748
0.000497384
0.000497384
0.000500011
0.000500011
0.000502631
0.000502631
0.000505243
0.000505243
0.000507847
0.000507847
0.000510442
0.000510442
0.00051303
0.00051303
0.000515609
0.000515609
0.000518179
0.000518179
0.000520741
0.000520741
0.000523295
0.000523295
0.00052584
0.00052584
0.000528376
0.000528376
0.000530903
0.000530903
0.000533421
0.000533421
0.000535931
0.000535931
0.000538431
0.000538431
0.000540922
0.000540922
0.000543404
0.000543404
0.000545877
0.000545877
0.00054834
0.00054834
0.000550794
0.000550794
0.000553238
0.000553238
0.000555673
0.000555673
0.000558099
0.000558099
0.000560514
0.000560514
0.00056292
0.00056292
0.000565316
0.000565316
0.000567702
0.000567702
0.000570078
0.000570078
0.000572445
0.000572445
0.000574801
0.000574801
0.000577147
0.000577147
0.000579483
0.000579483
0.000581809
0.000581809
0.000584125
0.000584125
0.00058643
0.00058643
0.000588725
0.000588725
0.00059101
0.00059101
0.000593284
0.000593284
0.000595548
0.000595548
0.000597801
0.000597801
0.000600044
0.000600044
0.000602276
0.000602276
0.000604498
0.000604498
0.000606709
0.000606709
0.000608909
0.000608909
0.000611099
0.000611099
0.000613278
0.000613278
0.000615446
0.000615446
0.000617604
0.000617604
0.000619751
0.000619751
0.000621887
0.000621887
0.000624012
0.000624012
0.000626127
0.000626127
0.000628231
0.000628231
0.000630324
0.000630324
0.000632406
0.000632406
0.000634477
0.000634477
0.000636538
0.000636538
0.000638588
0.000638588
0.000640628
0.000640628
0.000642656
0.000642656
0.000644674
0.000644674
0.000646681
0.000646681
0.000648678
0.000648678
0.000650664
0.000650664
0.000652639
0.000652639
0.000654604
0.000654604
0.000656558
0.000656558
0.000658502
0.000658502
0.000660436
0.000660436
0.000662359
0.000662359
0.000664272
0.000664272
0.000666174
0.000666174
0.000668067
0.000668067
0.000669949
0.000669949
0.000671821
0.000671821
0.000673684
0.000673684
0.000675536
0.000675536
0.000677379
0.000677379
0.000679212
0.000679212
0.000681036
0.000681036
0.00068285
0.00068285
0.000684655
0.000684655
0.000686451
0.000686451
0.000688237
0.000688237
0.000690015
0.000690015
0.000691784
0.000691784
0.000693544
0.000693544
0.000695296
0.000695296
0.00069704
0.00069704
0.000698775
0.000698775
0.000700502
0.000700502
0.000702222
0.000702222
0.000703934
0.000703934
0.000705638
0.000705638
0.000707336
0.000707336
0.000709026
0.000709026
0.00071071
0.00071071
0.000712387
0.000712387
0.000714058
0.000714058
0.000715723
0.000715723
0.000717382
0.000717382
0.000719036
0.000719036
0.000720685
0.000720685
0.000722329
0.000722329
0.000723968
0.000723968
0.000725603
0.000725603
0.000727235
0.000727235
0.000728863
0.000728863
0.000730487
0.000730487
0.000732109
0.000732109
0.000733729
0.000733729
0.000735347
0.000735347
0.000736963
0.000736963
0.000738579
0.000738579
0.000740193
0.000740193
0.000741808
0.000741808
0.000743423
0.000743423
0.000745039
0.000745039
0.000746656
0.000746656
0.000748276
0.000748276
0.000749898
0.000749898
0.000751523
0.000751523
0.000753152
0.000753152
0.000754785
0.000754785
0.000756424
0.000756424
0.000758068
0.000758068
0.000759719
0.000759719
0.000761378
0.000761378
0.000763044
0.000763044
0.000764719
0.000764719
0.000766404
0.000766404
0.0007681
0.0007681
0.000769807
0.000769807
0.000771526
0.000771526
0.000773259
0.000773259
0.000775007
0.000775007
0.000776769
0.000776769
0.000778549
0.000778549
0.000780346
0.000780346
0.000782162
0.000782162
0.000783997
0.000783997
0.000785855
0.000785855
0.000787734
0.000787734
0.000789638
0.000789638
0.000791567
0.000791567
0.000793523
0.000793523
0.000795508
0.000795508
0.000797522
0.000797522
0.000799568
0.000799568
0.000801647
0.000801647
0.000803761
0.000803761
0.000805912
0.000805912
0.000808102
0.000808102
0.000810333
0.000810333
0.000812607
0.000812607
0.000814926
0.000814926
0.000817291
0.000817291
0.000819707
0.000819707
0.000822174
0.000822174
0.000824696
0.000824696
0.000827275
0.000827275
0.000829913
0.000829913
0.000832614
0.000832614
0.000835381
0.000835381
0.000838216
0.000838216
0.000841122
0.000841122
0.000844104
0.000844104
0.000847163
0.000847163
0.000850304
0.000850304
0.000853531
0.000853531
0.000856846
0.000856846
0.000860255
0.000860255
0.000863761
0.000863761
0.000867368
0.000867368
0.000871081
0.000871081
0.000874904
0.000874904
0.000878842
0.000878842
0.000882899
0.000882899
0.000887082
0.000887082
0.000891394
0.000891394
0.000895842
0.000895842
0.000900431
0.000900431
0.000905167
0.000905167
0.000910055
0.000910055
0.000915102
0.000915102
0.000920314
0.000920314
0.000925698
0.000925698
0.00093126
0.00093126
0.000937008
0.000937008
0.000942948
0.000942948
0.000949088
0.000949088
0.000955436
0.000955436
0.000961998
0.000961998
0.000968784
0.000968784
0.0009758
0.0009758
0.000983056
0.000983056
0.000990559
0.000990559
0.00099832
0.00099832
0.00100634
0.00100634
0.00101464
0.00101464
0.00102323
0.00102323
0.0010321
0.0010321
0.00104128
0.00104128
0.00105077
0.00105077
0.00106058
0.00106058
0.00107072
0.00107072
0.00108119
0.00108119
0.00109202
0.00109202
0.00110321
0.00110321
0.00111477
0.00111477
0.0011267
0.0011267
0.00113902
0.00113902
0.00115174
0.00115174
0.00116487
0.00116487
0.00117841
0.00117841
0.00119238
0.00119238
0.00120678
0.00120678
0.00122162
0.00122162
0.00123691
0.00123691
0.00125266
0.00125266
0.00126887
0.00126887
0.00128556
0.00128556
0.00130272
0.00130272
0.00132037
0.00132037
0.00133851
0.00133851
0.00135715
0.00135715
0.00137628
0.00137628
0.00139593
0.00139593
0.00141608
0.00141608
0.00143674
0.00143674
0.00145792
0.00145792
0.00147961
0.00147961
0.00150182
0.00150182
0.00152455
0.00152455
0.0015478
0.0015478
0.00157156
0.00157156
0.00159584
0.00159584
0.00162063
0.00162063
0.00164592
0.00164592
0.00167173
0.00167173
0.00169804
0.00169804
0.00172484
0.00172484
0.00175213
0.00175213
0.00177991
0.00177991
0.00180816
0.00180816
0.00183689
0.00183689
0.00186607
0.00186607
0.00189571
0.00189571
0.00192579
0.00192579
0.0019563
0.0019563
0.00198723
0.00198723
0.00201857
0.00201857
0.0020503
0.0020503
0.00208243
0.00208243
0.00211492
0.00211492
0.00214777
0.00214777
0.00218097
0.00218097
0.0022145
0.0022145
0.00224834
0.00224834
0.00228248
0.00228248
0.00231691
0.00231691
0.0023516
0.0023516
0.00238655
0.00238655
0.00242174
0.00242174
0.00245714
0.00245714
0.00249275
0.00249275
0.00252854
0.00252854
0.0025645
0.0025645
0.00260061
0.00260061
0.00263685
0.00263685
0.00267321
0.00267321
0.00270966
0.00270966
0.00274619
0.00274619
0.00278278
0.00278278
0.00281941
0.00281941
0.00285606
0.00285606
0.00289272
0.00289272
0.00292936
0.00292936
0.00296597
0.00296597
0.00300252
0.00300252
0.003039
0.003039
0.00307539
0.00307539
0.00311168
0.00311168
0.00314783
0.00314783
0.00318384
0.00318384
0.00321968
0.00321968
0.00325534
0.00325534
0.00329079
0.00329079
0.00332602
0.00332602
0.00336101
0.00336101
0.00339575
0.00339575
0.0034302
0.0034302
0.00346436
0.00346436
0.00349821
0.00349821
0.00353172
0.00353172
0.00356488
0.00356488
0.00359768
0.00359768
0.00363008
0.00363008
0.00366209
0.00366209
0.00369367
0.00369367
0.00372481
0.00372481
0.00375549
0.00375549
0.0037857
0.0037857
0.00381542
0.00381542
0.00384463
0.00384463
0.00387331
0.00387331
0.00390145