/*--------------------------------*- C++ -*----------------------------------*\
| =========                 |                                                 |
| \\      /  F ield         | OpenFOAM: The Open Source CFD Toolbox           |
|  \\    /   O peration     | Version:  2106                                  |
|   \\  /    A nd           | Website:  www.openfoam.com                      |
|    \\/     M anipulation  |                                                 |
\*---------------------------------------------------------------------------*/
FoamFile
{
    version     2.0;
    format      ascii;
    arch        "LSB;label=32;scalar=64";
    class       volSymmTensorField;
    location    "16000";
    object      turbulenceProperties:R;
}
// * * * * * * * * * * * * * * * * * * * * * * * * * * * * * * * * * * * * * //

dimensions      [0 2 -2 0 0 0 0];

internalField   nonuniform List<symmTensor> 
2560
(
(6.41461e-08 -1.03274e-12 -1.49502e-15 6.41461e-08 4.14637e-28 6.41461e-08)
(6.41461e-08 -1.03274e-12 -1.49502e-15 6.41461e-08 3.05161e-31 6.41461e-08)
(1.00898e-08 -9.3356e-13 -4.07421e-15 1.00898e-08 -4.78582e-28 1.00898e-08)
(1.00898e-08 -9.3356e-13 -4.07421e-15 1.00898e-08 1.07383e-31 1.00898e-08)
(7.66191e-09 -2.09107e-12 -1.25518e-14 7.66191e-09 1.84492e-28 7.66191e-09)
(7.66191e-09 -2.09107e-12 -1.25518e-14 7.66191e-09 2.2716e-32 7.66191e-09)
(1.90859e-08 -1.10447e-11 -6.72609e-14 1.90859e-08 2.80351e-27 1.90859e-08)
(1.90859e-08 -1.10447e-11 -6.72609e-14 1.90859e-08 2.83045e-30 1.90859e-08)
(4.74657e-08 -4.8456e-11 -2.99381e-13 4.74657e-08 -3.01388e-27 4.74657e-08)
(4.74657e-08 -4.8456e-11 -2.99381e-13 4.74657e-08 1.59601e-29 4.74657e-08)
(1.00617e-07 -1.61716e-10 -1.01367e-12 1.00617e-07 1.05078e-27 1.00617e-07)
(1.00617e-07 -1.61716e-10 -1.01367e-12 1.00617e-07 5.41059e-29 1.00617e-07)
(1.88293e-07 -4.4149e-10 -2.8076e-12 1.88293e-07 -3.0842e-26 1.88293e-07)
(1.88293e-07 -4.4149e-10 -2.8076e-12 1.88293e-07 1.64686e-28 1.88293e-07)
(3.21802e-07 -1.0426e-09 -6.72671e-12 3.21802e-07 -7.66227e-26 3.21802e-07)
(3.21802e-07 -1.0426e-09 -6.72671e-12 3.21802e-07 4.42846e-28 3.21802e-07)
(5.13965e-07 -2.20981e-09 -1.44647e-11 5.13965e-07 -1.70695e-25 5.13965e-07)
(5.13965e-07 -2.20981e-09 -1.44647e-11 5.13965e-07 8.94867e-28 5.13965e-07)
(7.79161e-07 -4.30913e-09 -2.86162e-11 7.79161e-07 -3.4897e-25 7.79161e-07)
(7.79161e-07 -4.30913e-09 -2.86162e-11 7.79161e-07 1.73821e-27 7.79161e-07)
(1.1334e-06 -7.86546e-09 -5.29925e-11 1.1334e-06 -6.58549e-25 1.1334e-06)
(1.1334e-06 -7.86546e-09 -5.29925e-11 1.1334e-06 3.78815e-27 1.1334e-06)
(1.59441e-06 -1.36073e-08 -9.30102e-11 1.59441e-06 -1.17122e-24 1.59441e-06)
(1.59441e-06 -1.36073e-08 -9.30102e-11 1.59441e-06 6.9823e-27 1.59441e-06)
(2.18173e-06 -2.25195e-08 -1.56166e-10 2.18173e-06 -1.99141e-24 2.18173e-06)
(2.18173e-06 -2.25195e-08 -1.56166e-10 2.18173e-06 1.15434e-26 2.18173e-06)
(2.91683e-06 -3.59052e-08 -2.52612e-10 2.91683e-06 -3.26158e-24 2.91683e-06)
(2.91683e-06 -3.59052e-08 -2.52612e-10 2.91683e-06 1.91708e-26 2.91683e-06)
(3.82322e-06 -5.54579e-08 -3.95848e-10 3.82322e-06 -5.16816e-24 3.82322e-06)
(3.82322e-06 -5.54579e-08 -3.95848e-10 3.82322e-06 3.05572e-26 3.82322e-06)
(4.92656e-06 -8.33444e-08 -6.03546e-10 4.92656e-06 -7.96869e-24 4.92656e-06)
(4.92656e-06 -8.33444e-08 -6.03546e-10 4.92656e-06 5.39961e-26 4.92656e-06)
(6.25482e-06 -1.22301e-07 -8.98532e-10 6.25482e-06 -1.19894e-23 6.25482e-06)
(6.25482e-06 -1.22301e-07 -8.98532e-10 6.25482e-06 8.6959e-26 6.25482e-06)
(7.8384e-06 -1.75745e-07 -1.30994e-09 7.8384e-06 -1.76683e-23 7.8384e-06)
(7.8384e-06 -1.75745e-07 -1.30994e-09 7.8384e-06 1.4381e-25 7.8384e-06)
(9.71025e-06 -2.47895e-07 -1.87459e-09 9.71025e-06 -2.55363e-23 9.71025e-06)
(9.71025e-06 -2.47895e-07 -1.87459e-09 9.71025e-06 2.55846e-25 9.71025e-06)
(1.19061e-05 -3.4392e-07 -2.63853e-09 1.19061e-05 -3.63369e-23 1.19061e-05)
(1.19061e-05 -3.4392e-07 -2.63853e-09 1.19061e-05 3.69236e-25 1.19061e-05)
(1.44644e-05 -4.70093e-07 -3.65894e-09 1.44644e-05 -5.06878e-23 1.44644e-05)
(1.44644e-05 -4.70093e-07 -3.65894e-09 1.44644e-05 4.49238e-25 1.44644e-05)
(1.74268e-05 -6.33975e-07 -5.00623e-09 1.74268e-05 -7.0178e-23 1.74268e-05)
(1.74268e-05 -6.33975e-07 -5.00623e-09 1.74268e-05 7.04288e-25 1.74268e-05)
(2.08381e-05 -8.44614e-07 -6.76647e-09 2.08381e-05 -9.56002e-23 2.08381e-05)
(2.08381e-05 -8.44614e-07 -6.76647e-09 2.08381e-05 1.13338e-24 2.08381e-05)
(2.47464e-05 -1.11277e-06 -9.04425e-09 2.47464e-05 -1.28658e-22 2.47464e-05)
(2.47464e-05 -1.11277e-06 -9.04425e-09 2.47464e-05 1.704e-24 2.47464e-05)
(2.92033e-05 -1.45114e-06 -1.19658e-08 2.92033e-05 -1.71263e-22 2.92033e-05)
(2.92033e-05 -1.45114e-06 -1.19658e-08 2.92033e-05 2.53378e-24 2.92033e-05)
(3.42641e-05 -1.87467e-06 -1.56827e-08 3.42641e-05 -2.26484e-22 3.42641e-05)
(3.42641e-05 -1.87467e-06 -1.56827e-08 3.42641e-05 3.15632e-24 3.42641e-05)
(3.99879e-05 -2.40081e-06 -2.03758e-08 3.99879e-05 -2.96816e-22 3.99879e-05)
(3.99879e-05 -2.40081e-06 -2.03758e-08 3.99879e-05 3.62346e-24 3.99879e-05)
(4.64378e-05 -3.04981e-06 -2.62598e-08 4.64378e-05 -3.8454e-22 4.64378e-05)
(4.64378e-05 -3.04981e-06 -2.62598e-08 4.64378e-05 4.468e-24 4.64378e-05)
(5.36809e-05 -3.84513e-06 -3.35882e-08 5.36809e-05 -4.945e-22 5.36809e-05)
(5.36809e-05 -3.84513e-06 -3.35882e-08 5.36809e-05 7.15727e-24 5.36809e-05)
(6.17884e-05 -4.8137e-06 -4.26591e-08 6.17884e-05 -6.31638e-22 6.17884e-05)
(6.17884e-05 -4.8137e-06 -4.26591e-08 6.17884e-05 1.21743e-23 6.17884e-05)
(7.08361e-05 -5.98633e-06 -5.38206e-08 7.08361e-05 -8.02255e-22 7.08361e-05)
(7.08361e-05 -5.98633e-06 -5.38206e-08 7.08361e-05 1.67844e-23 7.08361e-05)
(8.09038e-05 -7.39812e-06 -6.74779e-08 8.09038e-05 -1.01198e-21 8.09038e-05)
(8.09038e-05 -7.39812e-06 -6.74779e-08 8.09038e-05 1.95877e-23 8.09038e-05)
(9.20759e-05 -9.08875e-06 -8.40995e-08 9.20759e-05 -1.26712e-21 9.20759e-05)
(9.20759e-05 -9.08875e-06 -8.40995e-08 9.20759e-05 2.30464e-23 9.20759e-05)
(0.000104441 -1.11029e-05 -1.04225e-07 0.000104441 -1.57695e-21 0.000104441)
(0.000104441 -1.11029e-05 -1.04225e-07 0.000104441 2.89792e-23 0.000104441)
(0.000118092 -1.34906e-05 -1.28473e-07 0.000118092 -1.95252e-21 0.000118092)
(0.000118092 -1.34906e-05 -1.28473e-07 0.000118092 3.97241e-23 0.000118092)
(0.000133126 -1.63076e-05 -1.57547e-07 0.000133126 -2.40354e-21 0.000133126)
(0.000133126 -1.63076e-05 -1.57547e-07 0.000133126 6.0517e-23 0.000133126)
(0.000149643 -1.96155e-05 -1.92243e-07 0.000149643 -2.93821e-21 0.000149643)
(0.000149643 -1.96155e-05 -1.92243e-07 0.000149643 8.00131e-23 0.000149643)
(0.000167749 -2.34818e-05 -2.33461e-07 0.000167749 -3.57488e-21 0.000167749)
(0.000167749 -2.34818e-05 -2.33461e-07 0.000167749 9.12762e-23 0.000167749)
(0.000187551 -2.79806e-05 -2.82206e-07 0.000187551 -4.33353e-21 0.000187551)
(0.000187551 -2.79806e-05 -2.82206e-07 0.000187551 1.15545e-22 0.000187551)
(0.00020916 -3.31919e-05 -3.39594e-07 0.00020916 -5.22474e-21 0.00020916)
(0.00020916 -3.31919e-05 -3.39594e-07 0.00020916 1.48215e-22 0.00020916)
(0.000232688 -3.92018e-05 -4.06862e-07 0.000232688 -6.2568e-21 0.000232688)
(0.000232688 -3.92018e-05 -4.06862e-07 0.000232688 1.82482e-22 0.000232688)
(0.000258249 -4.61021e-05 -4.85366e-07 0.000258249 -7.45476e-21 0.000258249)
(0.000258249 -4.61021e-05 -4.85366e-07 0.000258249 2.3079e-22 0.000258249)
(0.000285958 -5.39898e-05 -5.76581e-07 0.000285958 -8.83596e-21 0.000285958)
(0.000285958 -5.39898e-05 -5.76581e-07 0.000285958 3.27702e-22 0.000285958)
(0.000315928 -6.29663e-05 -6.82103e-07 0.000315928 -1.0411e-20 0.000315928)
(0.000315928 -6.29663e-05 -6.82103e-07 0.000315928 4.26457e-22 0.000315928)
(0.000348271 -7.31367e-05 -8.03641e-07 0.000348271 -1.22527e-20 0.000348271)
(0.000348271 -7.31367e-05 -8.03641e-07 0.000348271 4.83295e-22 0.000348271)
(0.000383098 -8.4608e-05 -9.43009e-07 0.000383098 -1.43058e-20 0.000383098)
(0.000383098 -8.4608e-05 -9.43009e-07 0.000383098 5.33202e-22 0.000383098)
(0.000420512 -9.74886e-05 -1.10211e-06 0.000420512 -1.66466e-20 0.000420512)
(0.000420512 -9.74886e-05 -1.10211e-06 0.000420512 6.25039e-22 0.000420512)
(0.000460612 -0.000111885 -1.28294e-06 0.000460612 -1.92147e-20 0.000460612)
(0.000460612 -0.000111885 -1.28294e-06 0.000460612 7.95125e-22 0.000460612)
(0.00050349 -0.000127903 -1.48754e-06 0.00050349 -2.20595e-20 0.00050349)
(0.00050349 -0.000127903 -1.48754e-06 0.00050349 9.83228e-22 0.00050349)
(0.000549228 -0.000145642 -1.71797e-06 0.000549228 -2.52476e-20 0.000549228)
(0.000549228 -0.000145642 -1.71797e-06 0.000549228 1.24171e-21 0.000549228)
(0.000597895 -0.000165193 -1.97632e-06 0.000597895 -2.87418e-20 0.000597895)
(0.000597895 -0.000165193 -1.97632e-06 0.000597895 1.44044e-21 0.000597895)
(0.000649551 -0.000186641 -2.26465e-06 0.000649551 -3.24977e-20 0.000649551)
(0.000649551 -0.000186641 -2.26465e-06 0.000649551 1.63216e-21 0.000649551)
(0.000704237 -0.000210057 -2.58494e-06 0.000704237 -3.66839e-20 0.000704237)
(0.000704237 -0.000210057 -2.58494e-06 0.000704237 2.14911e-21 0.000704237)
(0.000761982 -0.000235499 -2.9391e-06 0.000761982 -4.11939e-20 0.000761982)
(0.000761982 -0.000235499 -2.9391e-06 0.000761982 2.46511e-21 0.000761982)
(0.000822794 -0.000263007 -3.32889e-06 0.000822794 -4.58611e-20 0.000822794)
(0.000822794 -0.000263007 -3.32889e-06 0.000822794 2.63241e-21 0.000822794)
(0.000886666 -0.000292607 -3.75593e-06 0.000886666 -5.08821e-20 0.000886666)
(0.000886666 -0.000292607 -3.75593e-06 0.000886666 3.32021e-21 0.000886666)
(0.000953567 -0.000324302 -4.22162e-06 0.000953567 -5.62103e-20 0.000953567)
(0.000953567 -0.000324302 -4.22162e-06 0.000953567 4.22125e-21 0.000953567)
(0.00102345 -0.000358077 -4.72714e-06 0.00102345 -6.1662e-20 0.00102345)
(0.00102345 -0.000358077 -4.72714e-06 0.00102345 4.82425e-21 0.00102345)
(0.00109624 -0.000393895 -5.27343e-06 0.00109624 -6.71797e-20 0.00109624)
(0.00109624 -0.000393895 -5.27343e-06 0.00109624 4.9254e-21 0.00109624)
(0.00117185 -0.000431699 -5.86114e-06 0.00117185 -7.27853e-20 0.00117185)
(0.00117185 -0.000431699 -5.86114e-06 0.00117185 5.43131e-21 0.00117185)
(0.00125017 -0.000471412 -6.49067e-06 0.00125017 -7.85375e-20 0.00125017)
(0.00125017 -0.000471412 -6.49067e-06 0.00125017 6.96611e-21 0.00125017)
(0.00133107 -0.000512936 -7.16211e-06 0.00133107 -8.46986e-20 0.00133107)
(0.00133107 -0.000512936 -7.16211e-06 0.00133107 8.87822e-21 0.00133107)
(0.0014144 -0.000556157 -7.87527e-06 0.0014144 -9.08715e-20 0.0014144)
(0.0014144 -0.000556157 -7.87527e-06 0.0014144 9.90015e-21 0.0014144)
(0.0015 -0.000600945 -8.62971e-06 0.0015 -9.67116e-20 0.0015)
(0.0015 -0.000600945 -8.62971e-06 0.0015 1.02065e-20 0.0015)
(0.00158768 -0.000647156 -9.4247e-06 0.00158768 -1.02559e-19 0.00158768)
(0.00158768 -0.000647156 -9.4247e-06 0.00158768 1.18531e-20 0.00158768)
(0.00167726 -0.000694635 -1.02593e-05 0.00167726 -1.0844e-19 0.00167726)
(0.00167726 -0.000694635 -1.02593e-05 0.00167726 1.44623e-20 0.00167726)
(0.00176853 -0.000743219 -1.11323e-05 0.00176853 -1.14544e-19 0.00176853)
(0.00176853 -0.000743219 -1.11323e-05 0.00176853 1.67672e-20 0.00176853)
(0.00186129 -0.000792741 -1.20424e-05 0.00186129 -1.20401e-19 0.00186129)
(0.00186129 -0.000792741 -1.20424e-05 0.00186129 1.73468e-20 0.00186129)
(0.00195531 -0.000843029 -1.29882e-05 0.00195531 -1.25704e-19 0.00195531)
(0.00195531 -0.000843029 -1.29882e-05 0.00195531 1.65699e-20 0.00195531)
(0.00205038 -0.000893913 -1.39678e-05 0.00205038 -1.30636e-19 0.00205038)
(0.00205038 -0.000893913 -1.39678e-05 0.00205038 1.9708e-20 0.00205038)
(0.00214629 -0.000945223 -1.49798e-05 0.00214629 -1.3579e-19 0.00214629)
(0.00214629 -0.000945223 -1.49798e-05 0.00214629 2.47844e-20 0.00214629)
(0.00224281 -0.000996797 -1.60222e-05 0.00224281 -1.42339e-19 0.00224281)
(0.00224281 -0.000996797 -1.60222e-05 0.00224281 2.94582e-20 0.00224281)
(0.00233973 -0.00104848 -1.70934e-05 0.00233973 -1.47455e-19 0.00233973)
(0.00233973 -0.00104848 -1.70934e-05 0.00233973 3.05553e-20 0.00233973)
(0.00243684 -0.00110011 -1.81916e-05 0.00243684 -1.52515e-19 0.00243684)
(0.00243684 -0.00110011 -1.81916e-05 0.00243684 3.31124e-20 0.00243684)
(0.00253395 -0.00115156 -1.93149e-05 0.00253395 -1.5744e-19 0.00253395)
(0.00253395 -0.00115156 -1.93149e-05 0.00253395 3.7907e-20 0.00253395)
(0.00263086 -0.0012027 -2.04617e-05 0.00263086 -1.59193e-19 0.00263086)
(0.00263086 -0.0012027 -2.04617e-05 0.00263086 4.44714e-20 0.00263086)
(0.00272739 -0.00125341 -2.16303e-05 0.00272739 -1.63544e-19 0.00272739)
(0.00272739 -0.00125341 -2.16303e-05 0.00272739 5.02064e-20 0.00272739)
(0.00282337 -0.00130357 -2.28192e-05 0.00282337 -1.70292e-19 0.00282337)
(0.00282337 -0.00130357 -2.28192e-05 0.00282337 4.88252e-20 0.00282337)
(0.00291864 -0.00135309 -2.40269e-05 0.00291864 -1.74578e-19 0.00291864)
(0.00291864 -0.00135309 -2.40269e-05 0.00291864 5.27563e-20 0.00291864)
(0.00301305 -0.00140189 -2.5252e-05 0.00301305 -1.7609e-19 0.00301305)
(0.00301305 -0.00140189 -2.5252e-05 0.00301305 6.20837e-20 0.00301305)
(0.00310647 -0.00144988 -2.64932e-05 0.00310647 -1.79953e-19 0.00310647)
(0.00310647 -0.00144988 -2.64932e-05 0.00310647 7.89256e-20 0.00310647)
(0.00319877 -0.00149701 -2.77493e-05 0.00319877 -1.85934e-19 0.00319877)
(0.00319877 -0.00149701 -2.77493e-05 0.00319877 8.68865e-20 0.00319877)
(0.00328984 -0.00154323 -2.90194e-05 0.00328984 -1.92072e-19 0.00328984)
(0.00328984 -0.00154323 -2.90194e-05 0.00328984 7.82833e-20 0.00328984)
(0.00337959 -0.00158847 -3.03023e-05 0.00337959 -1.94156e-19 0.00337959)
(0.00337959 -0.00158847 -3.03023e-05 0.00337959 7.70238e-20 0.00337959)
(0.00346792 -0.00163271 -3.15974e-05 0.00346792 -1.97066e-19 0.00346792)
(0.00346792 -0.00163271 -3.15974e-05 0.00346792 9.94508e-20 0.00346792)
(0.00355477 -0.00167593 -3.29037e-05 0.00355477 -2.05912e-19 0.00355477)
(0.00355477 -0.00167593 -3.29037e-05 0.00355477 1.20628e-19 0.00355477)
(0.00364005 -0.00171808 -3.42206e-05 0.00364005 -2.1629e-19 0.00364005)
(0.00364005 -0.00171808 -3.42206e-05 0.00364005 1.33008e-19 0.00364005)
(0.00372372 -0.00175917 -3.55477e-05 0.00372372 -2.24982e-19 0.00372372)
(0.00372372 -0.00175917 -3.55477e-05 0.00372372 1.25502e-19 0.00372372)
(0.00380574 -0.00179919 -3.68843e-05 0.00380574 -2.30613e-19 0.00380574)
(0.00380574 -0.00179919 -3.68843e-05 0.00380574 1.28253e-19 0.00380574)
(0.00388605 -0.00183812 -3.82301e-05 0.00388605 -2.3816e-19 0.00388605)
(0.00388605 -0.00183812 -3.82301e-05 0.00388605 1.5313e-19 0.00388605)
(0.00396464 -0.00187597 -3.95848e-05 0.00396464 -2.51752e-19 0.00396464)
(0.00396464 -0.00187597 -3.95848e-05 0.00396464 1.73364e-19 0.00396464)
(0.00404149 -0.00191274 -4.0948e-05 0.00404149 -2.67442e-19 0.00404149)
(0.00404149 -0.00191274 -4.0948e-05 0.00404149 1.77881e-19 0.00404149)
(0.00411657 -0.00194845 -4.23196e-05 0.00411657 -2.78645e-19 0.00411657)
(0.00411657 -0.00194845 -4.23196e-05 0.00411657 1.9718e-19 0.00411657)
(0.00418987 -0.0019831 -4.36995e-05 0.00418987 -2.91943e-19 0.00418987)
(0.00418987 -0.0019831 -4.36995e-05 0.00418987 2.252e-19 0.00418987)
(0.00426141 -0.00201671 -4.50875e-05 0.00426141 -3.04862e-19 0.00426141)
(0.00426141 -0.00201671 -4.50875e-05 0.00426141 2.16663e-19 0.00426141)
(0.00433117 -0.00204929 -4.64837e-05 0.00433117 -3.08182e-19 0.00433117)
(0.00433117 -0.00204929 -4.64837e-05 0.00433117 2.34903e-19 0.00433117)
(0.00439916 -0.00208086 -4.7888e-05 0.00439916 -3.0393e-19 0.00439916)
(0.00439916 -0.00208086 -4.7888e-05 0.00439916 2.16126e-19 0.00439916)
(0.0044654 -0.00211145 -4.93005e-05 0.0044654 -3.03798e-19 0.0044654)
(0.0044654 -0.00211145 -4.93005e-05 0.0044654 2.81566e-19 0.0044654)
(0.00452989 -0.00214106 -5.07212e-05 0.00452989 -3.19409e-19 0.00452989)
(0.00452989 -0.00214106 -5.07212e-05 0.00452989 3.31399e-19 0.00452989)
(0.00459266 -0.00216973 -5.21503e-05 0.00459266 -3.48535e-19 0.00459266)
(0.00459266 -0.00216973 -5.21503e-05 0.00459266 3.31498e-19 0.00459266)
(0.00465373 -0.00219747 -5.35879e-05 0.00465373 -3.59739e-19 0.00465373)
(0.00465373 -0.00219747 -5.35879e-05 0.00465373 3.32172e-19 0.00465373)
(0.00471312 -0.00222431 -5.50341e-05 0.00471312 -3.54913e-19 0.00471312)
(0.00471312 -0.00222431 -5.50341e-05 0.00471312 3.27514e-19 0.00471312)
(0.00477084 -0.00225027 -5.64892e-05 0.00477084 -3.75146e-19 0.00477084)
(0.00477084 -0.00225027 -5.64892e-05 0.00477084 3.3976e-19 0.00477084)
(0.00482694 -0.00227537 -5.79534e-05 0.00482694 -4.06598e-19 0.00482694)
(0.00482694 -0.00227537 -5.79534e-05 0.00482694 3.75404e-19 0.00482694)
(0.00488144 -0.00229965 -5.94268e-05 0.00488144 -4.22435e-19 0.00488144)
(0.00488144 -0.00229965 -5.94268e-05 0.00488144 4.10798e-19 0.00488144)
(0.00493436 -0.00232311 -6.09098e-05 0.00493436 -4.44964e-19 0.00493436)
(0.00493436 -0.00232311 -6.09098e-05 0.00493436 4.34858e-19 0.00493436)
(0.00498573 -0.00234578 -6.24025e-05 0.00498573 -4.68562e-19 0.00498573)
(0.00498573 -0.00234578 -6.24025e-05 0.00498573 4.84452e-19 0.00498573)
(0.00503559 -0.00236769 -6.39052e-05 0.00503559 -4.87742e-19 0.00503559)
(0.00503559 -0.00236769 -6.39052e-05 0.00503559 5.32932e-19 0.00503559)
(0.00508397 -0.00238885 -6.54183e-05 0.00508397 -5.11795e-19 0.00508397)
(0.00508397 -0.00238885 -6.54183e-05 0.00508397 5.60008e-19 0.00508397)
(0.0051309 -0.0024093 -6.69419e-05 0.0051309 -5.27421e-19 0.0051309)
(0.0051309 -0.0024093 -6.69419e-05 0.0051309 5.25803e-19 0.0051309)
(0.0051764 -0.00242904 -6.84764e-05 0.0051764 7.91772e-20 0.0051764)
(0.0051764 -0.00242904 -6.84764e-05 0.0051764 5.93025e-19 0.0051764)
(0.00522052 -0.00244811 -7.0022e-05 0.00522052 1.17526e-18 0.00522052)
(0.00522052 -0.00244811 -7.0022e-05 0.00522052 7.0511e-19 0.00522052)
(0.00526328 -0.00246651 -7.15791e-05 0.00526328 1.7073e-18 0.00526328)
(0.00526328 -0.00246651 -7.15791e-05 0.00526328 7.11139e-19 0.00526328)
(0.00530471 -0.00248428 -7.31479e-05 0.00530471 1.79016e-18 0.00530471)
(0.00530471 -0.00248428 -7.31479e-05 0.00530471 7.18597e-19 0.00530471)
(0.00534484 -0.00250143 -7.47288e-05 0.00534484 1.8176e-18 0.00534484)
(0.00534484 -0.00250143 -7.47288e-05 0.00534484 7.73436e-19 0.00534484)
(0.00538371 -0.00251798 -7.63221e-05 0.00538371 1.848e-18 0.00538371)
(0.00538371 -0.00251798 -7.63221e-05 0.00538371 8.29016e-19 0.00538371)
(0.00542135 -0.00253395 -7.79281e-05 0.00542135 1.88518e-18 0.00542135)
(0.00542135 -0.00253395 -7.79281e-05 0.00542135 8.53464e-19 0.00542135)
(0.00545778 -0.00254935 -7.95471e-05 0.00545778 1.89153e-18 0.00545778)
(0.00545778 -0.00254935 -7.95471e-05 0.00545778 8.59668e-19 0.00545778)
(0.00549304 -0.0025642 -8.11793e-05 0.00549304 1.85248e-18 0.00549304)
(0.00549304 -0.0025642 -8.11793e-05 0.00549304 9.1537e-19 0.00549304)
(0.00552715 -0.00257853 -8.28252e-05 0.00552715 1.90144e-18 0.00552715)
(0.00552715 -0.00257853 -8.28252e-05 0.00552715 1.05085e-18 0.00552715)
(0.00556014 -0.00259234 -8.4485e-05 0.00556014 1.91177e-18 0.00556014)
(0.00556014 -0.00259234 -8.4485e-05 0.00556014 1.12581e-18 0.00556014)
(0.00559204 -0.00260564 -8.61591e-05 0.00559204 1.85319e-18 0.00559204)
(0.00559204 -0.00260564 -8.61591e-05 0.00559204 1.09988e-18 0.00559204)
(0.00562287 -0.00261847 -8.78478e-05 0.00562287 1.82325e-18 0.00562287)
(0.00562287 -0.00261847 -8.78478e-05 0.00562287 1.14702e-18 0.00562287)
(0.00565267 -0.00263082 -8.95513e-05 0.00565267 1.87931e-18 0.00565267)
(0.00565267 -0.00263082 -8.95513e-05 0.00565267 1.22257e-18 0.00565267)
(0.00568145 -0.00264272 -9.127e-05 0.00568145 1.88045e-18 0.00568145)
(0.00568145 -0.00264272 -9.127e-05 0.00568145 1.22493e-18 0.00568145)
(0.00570925 -0.00265417 -9.30042e-05 0.00570925 1.79093e-18 0.00570925)
(0.00570925 -0.00265417 -9.30042e-05 0.00570925 1.21691e-18 0.00570925)
(0.00573609 -0.00266519 -9.47542e-05 0.00573609 1.83816e-18 0.00573609)
(0.00573609 -0.00266519 -9.47542e-05 0.00573609 1.38725e-18 0.00573609)
(0.00576198 -0.00267579 -9.65203e-05 0.00576198 1.95146e-18 0.00576198)
(0.00576198 -0.00267579 -9.65203e-05 0.00576198 1.47908e-18 0.00576198)
(0.00578696 -0.00268599 -9.83028e-05 0.00578696 1.99467e-18 0.00578696)
(0.00578696 -0.00268599 -9.83028e-05 0.00578696 1.43148e-18 0.00578696)
(0.00581104 -0.00269579 -0.000100102 0.00581104 1.89185e-18 0.00581104)
(0.00581104 -0.00269579 -0.000100102 0.00581104 1.19923e-18 0.00581104)
(0.00583426 -0.0027052 -0.000101918 0.00583426 1.65186e-18 0.00583426)
(0.00583426 -0.0027052 -0.000101918 0.00583426 1.22651e-18 0.00583426)
(0.00585662 -0.00271424 -0.000103752 0.00585662 1.48984e-18 0.00585662)
(0.00585662 -0.00271424 -0.000103752 0.00585662 1.5837e-18 0.00585662)
(0.00587814 -0.00272292 -0.000105603 0.00587814 1.52965e-18 0.00587814)
(0.00587814 -0.00272292 -0.000105603 0.00587814 1.87248e-18 0.00587814)
(0.00589886 -0.00273124 -0.000107472 0.00589886 1.62125e-18 0.00589886)
(0.00589886 -0.00273124 -0.000107472 0.00589886 1.87582e-18 0.00589886)
(0.00591878 -0.00273922 -0.00010936 0.00591878 1.71559e-18 0.00591878)
(0.00591878 -0.00273922 -0.00010936 0.00591878 1.9464e-18 0.00591878)
(0.00593793 -0.00274686 -0.000111266 0.00593793 1.83316e-18 0.00593793)
(0.00593793 -0.00274686 -0.000111266 0.00593793 2.11623e-18 0.00593793)
(0.00595632 -0.00275418 -0.00011319 0.00595632 1.91556e-18 0.00595632)
(0.00595632 -0.00275418 -0.00011319 0.00595632 2.06752e-18 0.00595632)
(0.00597397 -0.00276118 -0.000115134 0.00597397 1.97065e-18 0.00597397)
(0.00597397 -0.00276118 -0.000115134 0.00597397 2.00742e-18 0.00597397)
(0.0059909 -0.00276786 -0.000117097 0.0059909 2.09488e-18 0.0059909)
(0.0059909 -0.00276786 -0.000117097 0.0059909 2.3219e-18 0.0059909)
(0.00600712 -0.00277424 -0.00011908 0.00600712 2.23686e-18 0.00600712)
(0.00600712 -0.00277424 -0.00011908 0.00600712 2.57713e-18 0.00600712)
(0.00602264 -0.00278032 -0.000121083 0.00602264 2.29603e-18 0.00602264)
(0.00602264 -0.00278032 -0.000121083 0.00602264 2.34434e-18 0.00602264)
(0.00603749 -0.00278612 -0.000123106 0.00603749 2.39097e-18 0.00603749)
(0.00603749 -0.00278612 -0.000123106 0.00603749 2.38562e-18 0.00603749)
(0.00605168 -0.00279163 -0.000125149 0.00605168 2.35853e-18 0.00605168)
(0.00605168 -0.00279163 -0.000125149 0.00605168 2.77908e-18 0.00605168)
(0.00606522 -0.00279687 -0.000127213 0.00606522 2.43496e-18 0.00606522)
(0.00606522 -0.00279687 -0.000127213 0.00606522 2.84462e-18 0.00606522)
(0.00607812 -0.00280183 -0.000129299 0.00607812 2.60072e-18 0.00607812)
(0.00607812 -0.00280183 -0.000129299 0.00607812 2.93951e-18 0.00607812)
(0.0060904 -0.00280653 -0.000131405 0.0060904 2.77853e-18 0.0060904)
(0.0060904 -0.00280653 -0.000131405 0.0060904 3.24843e-18 0.0060904)
(0.00610207 -0.00281097 -0.000133533 0.00610207 3.09192e-18 0.00610207)
(0.00610207 -0.00281097 -0.000133533 0.00610207 3.21023e-18 0.00610207)
(0.00611314 -0.00281515 -0.000135683 0.00611314 3.15149e-18 0.00611314)
(0.00611314 -0.00281515 -0.000135683 0.00611314 3.3045e-18 0.00611314)
(0.00612362 -0.00281909 -0.000137855 0.00612362 3.09697e-18 0.00612362)
(0.00612362 -0.00281909 -0.000137855 0.00612362 3.54517e-18 0.00612362)
(0.00613352 -0.00282278 -0.000140049 0.00613352 3.27051e-18 0.00613352)
(0.00613352 -0.00282278 -0.000140049 0.00613352 3.55847e-18 0.00613352)
(0.00614286 -0.00282624 -0.000142265 0.00614286 3.50577e-18 0.00614286)
(0.00614286 -0.00282624 -0.000142265 0.00614286 3.44911e-18 0.00614286)
(0.00615164 -0.00282946 -0.000144505 0.00615164 3.45756e-18 0.00615164)
(0.00615164 -0.00282946 -0.000144505 0.00615164 3.62782e-18 0.00615164)
(0.00615988 -0.00283244 -0.000146767 0.00615988 3.64442e-18 0.00615988)
(0.00615988 -0.00283244 -0.000146767 0.00615988 4.19791e-18 0.00615988)
(0.00616758 -0.0028352 -0.000149052 0.00616758 3.73796e-18 0.00616758)
(0.00616758 -0.0028352 -0.000149052 0.00616758 4.64249e-18 0.00616758)
(0.00617475 -0.00283774 -0.000151361 0.00617475 3.82459e-18 0.00617475)
(0.00617475 -0.00283774 -0.000151361 0.00617475 4.8282e-18 0.00617475)
(0.0061814 -0.00284006 -0.000153694 0.0061814 4.01442e-18 0.0061814)
(0.0061814 -0.00284006 -0.000153694 0.0061814 4.51244e-18 0.0061814)
(0.00618754 -0.00284216 -0.000156051 0.00618754 3.87103e-18 0.00618754)
(0.00618754 -0.00284216 -0.000156051 0.00618754 4.00954e-18 0.00618754)
(0.00619318 -0.00284405 -0.000158431 0.00619318 4.06993e-18 0.00619318)
(0.00619318 -0.00284405 -0.000158431 0.00619318 4.54695e-18 0.00619318)
(0.00619832 -0.00284573 -0.000160836 0.00619832 4.52286e-18 0.00619832)
(0.00619832 -0.00284573 -0.000160836 0.00619832 5.65277e-18 0.00619832)
(0.00620297 -0.0028472 -0.000163266 0.00620297 4.80245e-18 0.00620297)
(0.00620297 -0.0028472 -0.000163266 0.00620297 5.91942e-18 0.00620297)
(0.00620714 -0.00284847 -0.00016572 0.00620714 4.98533e-18 0.00620714)
(0.00620714 -0.00284847 -0.00016572 0.00620714 5.51455e-18 0.00620714)
(0.00621083 -0.00284954 -0.000168199 0.00621083 5.01938e-18 0.00621083)
(0.00621083 -0.00284954 -0.000168199 0.00621083 5.57301e-18 0.00621083)
(0.00621406 -0.00285041 -0.000170703 0.00621406 5.48501e-18 0.00621406)
(0.00621406 -0.00285041 -0.000170703 0.00621406 6.1133e-18 0.00621406)
(0.00621682 -0.00285108 -0.000173232 0.00621682 6.38372e-18 0.00621682)
(0.00621682 -0.00285108 -0.000173232 0.00621682 6.40932e-18 0.00621682)
(0.00621912 -0.00285156 -0.000175787 0.00621912 6.99017e-18 0.00621912)
(0.00621912 -0.00285156 -0.000175787 0.00621912 6.20274e-18 0.00621912)
(0.00622097 -0.00285184 -0.000178367 0.00622097 7.18537e-18 0.00622097)
(0.00622097 -0.00285184 -0.000178367 0.00622097 6.31353e-18 0.00622097)
(0.00622237 -0.00285194 -0.000180973 0.00622237 7.09258e-18 0.00622237)
(0.00622237 -0.00285194 -0.000180973 0.00622237 6.79408e-18 0.00622237)
(0.00622334 -0.00285185 -0.000183604 0.00622334 7.19768e-18 0.00622334)
(0.00622334 -0.00285185 -0.000183604 0.00622334 6.80701e-18 0.00622334)
(0.00622386 -0.00285157 -0.000186262 0.00622386 7.18391e-18 0.00622386)
(0.00622386 -0.00285157 -0.000186262 0.00622386 7.12768e-18 0.00622386)
(0.00622395 -0.0028511 -0.000188946 0.00622395 6.50583e-18 0.00622395)
(0.00622395 -0.0028511 -0.000188946 0.00622395 7.58548e-18 0.00622395)
(0.00622361 -0.00285045 -0.000191655 0.00622361 6.19165e-18 0.00622361)
(0.00622361 -0.00285045 -0.000191655 0.00622361 8.39596e-18 0.00622361)
(0.00622284 -0.00284962 -0.000194392 0.00622284 7.24073e-18 0.00622284)
(0.00622284 -0.00284962 -0.000194392 0.00622284 9.67375e-18 0.00622284)
(0.00622165 -0.00284861 -0.000197154 0.00622165 8.17346e-18 0.00622165)
(0.00622165 -0.00284861 -0.000197154 0.00622165 9.69007e-18 0.00622165)
(0.00622005 -0.00284742 -0.000199943 0.00622005 8.88413e-18 0.00622005)
(0.00622005 -0.00284742 -0.000199943 0.00622005 9.13898e-18 0.00622005)
(0.00621803 -0.00284605 -0.000202759 0.00621803 1.00839e-17 0.00621803)
(0.00621803 -0.00284605 -0.000202759 0.00621803 9.02164e-18 0.00621803)
(0.00621559 -0.0028445 -0.000205601 0.00621559 1.13197e-17 0.00621559)
(0.00621559 -0.0028445 -0.000205601 0.00621559 9.23945e-18 0.00621559)
(0.00621275 -0.00284277 -0.00020847 0.00621275 1.24542e-17 0.00621275)
(0.00621275 -0.00284277 -0.00020847 0.00621275 9.83934e-18 0.00621275)
(0.0062095 -0.00284087 -0.000211366 0.0062095 1.30789e-17 0.0062095)
(0.0062095 -0.00284087 -0.000211366 0.0062095 1.00654e-17 0.0062095)
(0.00620585 -0.00283879 -0.000214288 0.00620585 1.2832e-17 0.00620585)
(0.00620585 -0.00283879 -0.000214288 0.00620585 1.02922e-17 0.00620585)
(0.00620179 -0.00283654 -0.000217237 0.00620179 1.30083e-17 0.00620179)
(0.00620179 -0.00283654 -0.000217237 0.00620179 1.11257e-17 0.00620179)
(0.00619734 -0.00283411 -0.000220213 0.00619734 5.10544e-18 0.00619734)
(0.00619734 -0.00283411 -0.000220213 0.00619734 1.1464e-17 0.00619734)
(0.00619248 -0.0028315 -0.000223216 0.00619248 7.6245e-19 0.00619248)
(0.00619248 -0.0028315 -0.000223216 0.00619248 1.16637e-17 0.00619248)
(0.00618724 -0.00282873 -0.000226245 0.00618724 -2.00882e-18 0.00618724)
(0.00618724 -0.00282873 -0.000226245 0.00618724 1.21027e-17 0.00618724)
(0.00618159 -0.00282578 -0.000229301 0.00618159 -2.05501e-18 0.00618159)
(0.00618159 -0.00282578 -0.000229301 0.00618159 1.2231e-17 0.00618159)
(0.00617555 -0.00282265 -0.000232383 0.00617555 -2.0772e-18 0.00617555)
(0.00617555 -0.00282265 -0.000232383 0.00617555 1.27545e-17 0.00617555)
(0.00616912 -0.00281935 -0.000235492 0.00616912 -2.43501e-18 0.00616912)
(0.00616912 -0.00281935 -0.000235492 0.00616912 1.34145e-17 0.00616912)
(0.0061623 -0.00281588 -0.000238628 0.0061623 -1.74561e-18 0.0061623)
(0.0061623 -0.00281588 -0.000238628 0.0061623 1.36827e-17 0.0061623)
(0.00615509 -0.00281224 -0.00024179 0.00615509 -5.82204e-19 0.00615509)
(0.00615509 -0.00281224 -0.00024179 0.00615509 1.42145e-17 0.00615509)
(0.00614749 -0.00280842 -0.000244978 0.00614749 -4.69583e-19 0.00614749)
(0.00614749 -0.00280842 -0.000244978 0.00614749 1.44429e-17 0.00614749)
(0.0061395 -0.00280442 -0.000248192 0.0061395 -2.09194e-19 0.0061395)
(0.0061395 -0.00280442 -0.000248192 0.0061395 1.48919e-17 0.0061395)
(0.00613112 -0.00280026 -0.000251432 0.00613112 4.31653e-19 0.00613112)
(0.00613112 -0.00280026 -0.000251432 0.00613112 1.59116e-17 0.00613112)
(0.00612236 -0.00279591 -0.000254697 0.00612236 -8.87476e-20 0.00612236)
(0.00612236 -0.00279591 -0.000254697 0.00612236 1.65844e-17 0.00612236)
(0.0061132 -0.0027914 -0.000257988 0.0061132 -2.48812e-19 0.0061132)
(0.0061132 -0.0027914 -0.000257988 0.0061132 1.59604e-17 0.0061132)
(0.00610366 -0.0027867 -0.000261304 0.00610366 1.84908e-19 0.00610366)
(0.00610366 -0.0027867 -0.000261304 0.00610366 1.62089e-17 0.00610366)
(0.00609373 -0.00278183 -0.000264646 0.00609373 -4.27973e-19 0.00609373)
(0.00609373 -0.00278183 -0.000264646 0.00609373 1.85051e-17 0.00609373)
(0.00608342 -0.00277679 -0.000268012 0.00608342 -5.32429e-19 0.00608342)
(0.00608342 -0.00277679 -0.000268012 0.00608342 1.83064e-17 0.00608342)
(0.00607271 -0.00277156 -0.000271402 0.00607271 7.13896e-19 0.00607271)
(0.00607271 -0.00277156 -0.000271402 0.00607271 1.64083e-17 0.00607271)
(0.00606162 -0.00276616 -0.000274816 0.00606162 1.35472e-18 0.00606162)
(0.00606162 -0.00276616 -0.000274816 0.00606162 1.86178e-17 0.00606162)
(0.00605014 -0.00276058 -0.000278254 0.00605014 9.11584e-19 0.00605014)
(0.00605014 -0.00276058 -0.000278254 0.00605014 2.12901e-17 0.00605014)