/*--------------------------------*- C++ -*----------------------------------*\
| =========                 |                                                 |
| \\      /  F ield         | OpenFOAM: The Open Source CFD Toolbox           |
|  \\    /   O peration     | Version:  2012                                  |
|   \\  /    A nd           | Website:  www.openfoam.com                      |
|    \\/     M anipulation  |                                                 |
\*---------------------------------------------------------------------------*/
FoamFile
{
    version     2.0;
    format      ascii;
    class       volScalarField;
    location    "20000";
    object      k;
}
// * * * * * * * * * * * * * * * * * * * * * * * * * * * * * * * * * * * * * //

dimensions      [0 2 -2 0 0 0 0];


internalField   nonuniform List<scalar> 
2560
(
0.00665654
0.00665247
0.189228
0.189121
1.31197
1.31129
4.04849
4.0468
7.50109
7.49872
10.7408
10.738
13.6203
13.6173
16.2077
16.2044
18.5771
18.5736
20.7827
20.7791
22.8628
22.8591
24.8447
24.8408
26.7484
26.7443
28.589
28.5848
30.3783
30.374
32.1257
32.1212
33.8387
33.8341
35.5237
35.519
37.1861
37.1813
38.8304
38.8254
40.4604
40.4553
42.0797
42.0745
43.6911
43.6857
45.2973
45.2918
46.9008
46.8952
48.5039
48.4982
50.1085
50.1027
51.7167
51.7107
53.3304
53.3242
54.9512
54.9449
56.581
56.5745
58.2214
58.2148
59.874
59.8672
61.5402
61.5333
63.2213
63.2143
64.9185
64.9112
66.6326
66.6252
68.3647
68.3571
70.1155
70.1078
71.8862
71.8783
73.6778
73.6697
75.4913
75.483
77.3278
77.3193
79.188
79.1793
81.0721
81.0632
82.9795
82.9704
84.9085
84.8992
86.856
86.8465
88.8179
88.8081
90.7884
90.7784
92.7608
92.7506
94.7272
94.7167
96.6791
96.6684
98.6089
98.5979
100.512
100.501
102.393
102.381
104.265
104.253
106.157
106.145
108.107
108.094
110.144
110.131
112.272
112.258
114.424
114.41
116.483
116.468
118.284
118.269
119.656
119.641
120.462
120.448
120.634
120.621
120.18
120.168
119.177
119.166
117.74
117.731
116.003
115.995
114.089
114.081
112.102
112.095
110.118
110.111
108.189
108.183
106.344
106.337
104.59
104.584
102.923
102.918
101.331
101.325
99.792
99.7869
98.287
98.2823
96.7951
96.7909
95.2978
95.2942
93.7797
93.7768
92.2281
92.2258
90.6332
90.6315
88.9877
88.9865
87.2869
87.2862
85.5287
85.5285
83.7139
83.714
81.8463
81.8467
79.9333
79.9339
77.9854
77.9862
76.0163
76.0171
74.0412
74.0422
72.0765
72.0774
70.1371
70.1381
68.2358
68.2368
66.3822
66.3832
64.5817
64.5827
62.8366
62.8375
61.1463
61.1472
59.5079
59.5087
57.9184
57.9193
56.3754
56.3762
54.8774
54.8781
53.424
53.4248
52.0163
52.0171
50.6559
50.6566
49.3441
49.3448
48.0823
48.0829
46.8699
46.8705
45.7046
45.7052
44.5821
44.5827
43.4965
43.497
42.4403
42.4408
41.4058
41.4063
40.3859
40.3864
39.3753
39.3759
38.3715
38.3721
37.3753
37.3758
36.3904
36.3909
35.4229
35.4234
34.48
34.4805
33.5682
33.5687
32.6924
32.6929
31.8549
31.8553
31.0552
31.0556
30.2896
30.29
29.5537
29.554
28.8423
28.8426
28.1512
28.1515
27.4773
27.4776
26.8193
26.8196
26.1769
26.1772
25.551
25.5513
24.9429
24.9431
24.3539
24.3541
23.7852
23.7854
23.2377
23.2379
22.7115
22.7117
22.2066
22.2068
21.7224
21.7225
21.2578
21.2579
20.8116
20.8118
20.3824
20.3825
19.9686
19.9687
19.5689
19.569
19.1822
19.1823
18.8079
18.8079
18.4456
18.4457
18.0958
18.0958
17.759
17.759
17.4361
17.4361
17.1285
17.1284
16.8372
16.8371
16.5635
16.5634
16.3083
16.3082
16.0726
16.0724
15.8569
15.8567
15.6616
15.6614
15.4867
15.4864
15.332
15.3317
15.197
15.1965
15.0805
15.08
14.9811
14.9806
14.8968
14.8962
14.8248
14.8241
14.7616
14.7609
14.7033
14.7024
14.645
14.6441
14.5818
14.5809
14.5088
14.5079
14.4217
14.4207
14.3172
14.3162
14.1934
14.1925
14.0508
14.05
13.8919
13.8914
13.7215
13.7211
13.5457
13.5455
13.3719
13.3718
13.2072
13.2071
13.058
13.0579
12.9285
12.9284
12.8206
12.8205
12.7332
12.7332
12.6626
12.6625
12.6028
12.6028
12.547
12.5472
12.4883
12.4887
12.4205
12.421
12.3384
12.3391
12.2388
12.2396
12.1201
12.1208
11.9825
11.9832
11.8275
11.8282
11.6579
11.6585
11.4768
11.4773
11.2879
11.2884
11.0949
11.0954
10.9013
10.9017
10.7104
10.7108
10.5251
10.5254
10.3479
10.3482
10.181
10.1812
10.0261
10.0263
9.88462
9.88476
9.75769
9.75781
9.64609
9.64618
9.5503
9.55037
9.47044
9.47048
9.40626
9.40629
9.357
9.357
9.3213
9.32128
9.29712
9.29709
9.28166
9.28161
9.2713
9.27123
9.2617
9.26161
9.24795
9.24785
9.22488
9.22476
9.18746
9.18732
9.13126
9.13111
9.05305
9.05289
8.95122
8.95106
8.82617
8.82602
8.68044
8.6803
8.51856
8.51844
8.34653
8.34646
8.1713
8.17127
7.99927
7.99927
7.83537
7.83538
7.68285
7.68287
7.54186
7.54188
7.41064
7.41067
7.28608
7.28613
7.16454
7.16461
7.0427
7.04278
6.91863
6.91873
6.79203
6.79212
6.66404
6.66412
6.53681
6.53689
6.41294
6.413
6.29479
6.29485
6.18419
6.18423
6.08217
6.0822
5.98911
5.98914
5.90486
5.90488
5.82902
5.82904
5.76122
5.76123
5.70123
5.70124
5.64897
5.64898
5.60449
5.6045
5.56781
5.56781
5.53883
5.53883
5.5173
5.5173
5.50276
5.50276
5.49461
5.49461
5.49218
5.49218
5.49481
5.49481
5.50193
5.50193
5.5131
5.5131
5.52808
5.52808
5.54677
5.54677
5.56928
5.56928
5.59582
5.59582
5.62669
5.62669
5.66224
5.66224
5.70274
5.70274
5.74841
5.74841
5.79935
5.79935
5.85556
5.85556
5.91695
5.91695
5.9834
5.9834
6.05476
6.05476
6.13094
6.13094
6.21184
6.21184
6.29742
6.29742
6.38766
6.38766
6.48254
6.48254
6.58204
6.58204
6.68616
6.68616
6.79487
6.79487
6.90813
6.90813
7.02591
7.02591
7.14816
7.14816
7.27485
7.27484
7.40598
7.40597
7.54161
7.54161
7.68187
7.68186
7.82696
7.82695
7.97714
7.97714
8.1327
8.1327
8.29393
8.29392
8.46107
8.46106
8.6343
8.63429
8.81371
8.81371
8.99936
8.99936
9.19129
9.19128
9.38956
9.38956
9.59431
9.59431
9.80574
9.80574
10.0242
10.0241
10.2499
10.2499
10.4835
10.4835
10.7255
10.7255
10.9763
10.9763
11.2366
11.2366
11.5068
11.5068
11.7877
11.7877
12.0796
12.0796
12.3832
12.3832
12.699
12.699
13.0276
13.0276
13.3692
13.3692
13.724
13.724
14.0909
14.0909
14.4659
14.4659
14.8349
14.8349
15.1494
15.1494
15.1298
15.1298
0.0066541
0.00665628
0.189165
0.18922
1.31158
1.31193
4.04753
4.04839
7.49975
7.50096
10.7392
10.7407
13.6186
13.6202
16.2058
16.2076
18.5751
18.5769
20.7807
20.7826
22.8607
22.8627
24.8425
24.8446
26.7461
26.7483
28.5866
28.5889
30.3759
30.3782
32.1232
32.1256
33.8361
33.8386
35.5211
35.5237
37.1833
37.186
38.8275
38.8303
40.4575
40.4604
42.0767
42.0796
43.688
43.691
45.2942
45.2973
46.8977
46.9008
48.5006
48.5039
50.1052
50.1085
51.7133
51.7167
53.3269
53.3303
54.9476
54.9512
56.5773
56.581
58.2177
58.2214
59.8702
59.874
61.5363
61.5402
63.2173
63.2213
64.9144
64.9185
66.6284
66.6326
68.3604
68.3647
70.1112
70.1156
71.8818
71.8863
73.6732
73.6778
75.4866
75.4913
77.323
77.3278
79.1831
79.188
81.0671
81.0722
82.9743
82.9796
84.9032
84.9085
86.8506
86.8561
88.8123
88.8179
90.7827
90.7884
92.755
92.7608
94.7212
94.7272
96.673
96.6791
98.6026
98.6089
100.506
100.512
102.386
102.392
104.258
104.265
106.15
106.157
108.099
108.106
110.136
110.144
112.264
112.272
114.416
114.424
116.474
116.483
118.275
118.284
119.647
119.656
120.454
120.462
120.626
120.634
120.173
120.18
119.17
119.177
117.735
117.74
115.998
116.003
114.085
114.089
112.098
112.102
110.114
110.118
108.186
108.19
106.34
106.344
104.587
104.59
102.921
102.924
101.328
101.331
99.7895
99.7925
98.2849
98.2876
96.7933
96.7957
95.2965
95.2985
93.7789
93.7804
92.2278
92.2289
90.6333
90.634
88.9881
88.9885
87.2877
87.2878
85.5298
85.5296
83.7152
83.7148
81.8478
81.8473
79.9349
79.9342
77.9871
77.9863
76.0179
76.0171
74.0429
74.0421
72.0781
72.0773
70.1387
70.1379
68.2374
68.2366
66.3837
66.383
64.5832
64.5825
62.8381
62.8374
61.1477
61.147
59.5092
59.5086
57.9198
57.9191
56.3767
56.3761
54.8786
54.878
53.4252
53.4247
52.0175
52.017
50.657
50.6565
49.3453
49.3448
48.0834
48.0829
46.871
46.8705
45.7056
45.7052
44.5831
44.5827
43.4975
43.4971
42.4413
42.4409
41.4067
41.4064
40.3868
40.3865
39.3762
39.3759
38.3724
38.3721
37.3762
37.3758
36.3912
36.3909
35.4237
35.4234
34.4807
34.4804
33.569
33.5687
32.6932
32.6929
31.8556
31.8554
31.0559
31.0556
30.2903
30.2901
29.5543
29.5541
28.8429
28.8427
28.1517
28.1516
27.4779
27.4777
26.8198
26.8197
26.1774
26.1773
25.5515
25.5513
24.9433
24.9432
24.3543
24.3542
23.7856
23.7855
23.2381
23.2379
22.7119
22.7118
22.207
22.2069
21.7227
21.7226
21.2581
21.258
20.8119
20.8119
20.3827
20.3826
19.9689
19.9688
19.5691
19.5691
19.1824
19.1824
18.8081
18.808
18.4458
18.4458
18.0959
18.0959
17.7591
17.7591
17.4362
17.4363
17.1286
17.1286
16.8373
16.8373
16.5635
16.5636
16.3083
16.3084
16.0726
16.0727
15.8569
15.857
15.6615
15.6617
15.4866
15.4868
15.3319
15.3321
15.1968
15.197
15.0803
15.0805
14.9809
14.9812
14.8965
14.8968
14.8244
14.8248
14.7612
14.7616
14.7028
14.7032
14.6444
14.6449
14.5812
14.5817
14.5082
14.5088
14.4211
14.4216
14.3165
14.3171
14.1928
14.1933
14.0503
14.0507
13.8915
13.8919
13.7212
13.7215
13.5456
13.5457
13.3718
13.3719
13.2072
13.2072
13.058
13.058
12.9285
12.9285
12.8206
12.8206
12.7332
12.7333
12.6626
12.6626
12.6029
12.6029
12.5472
12.5471
12.4887
12.4884
12.4209
12.4206
12.339
12.3386
12.2394
12.239
12.1207
12.1202
11.983
11.9826
11.828
11.8276
11.6583
11.6579
11.4772
11.4768
11.2882
11.2879
11.0952
11.0949
10.9015
10.9013
10.7106
10.7104
10.5252
10.5251
10.348
10.3479
10.1811
10.1809
10.0261
10.026
9.88463
9.88455
9.75767
9.75761
9.64605
9.646
9.55023
9.5502
9.47034
9.47033
9.40614
9.40614
9.35685
9.35686
9.32113
9.32115
9.29693
9.29696
9.28144
9.28149
9.27106
9.27112
9.26144
9.26152
9.24768
9.24777
9.2246
9.22471
9.18717
9.18729
9.13098
9.13111
9.05279
9.05292
8.95098
8.95112
8.82596
8.82609
8.68027
8.68039
8.51842
8.51853
8.34644
8.34652
8.17126
8.1713
7.99925
7.99926
7.83535
7.83535
7.68281
7.68281
7.5418
7.54179
7.41058
7.41056
7.28604
7.28599
7.16452
7.16445
7.0427
7.04263
6.91867
6.91858
6.79208
6.792
6.6641
6.66403
6.53689
6.53682
6.41301
6.41295
6.29486
6.29481
6.18425
6.18421
6.08221
6.08218
5.98913
5.98911
5.90487
5.90485
5.82902
5.82901
5.76122
5.7612
5.70122
5.70121
5.64896
5.64895
5.60447
5.60446
5.56777
5.56776
5.53878
5.53878
5.51724
5.51724
5.50269
5.50269
5.49454
5.49454
5.49211
5.49211
5.49475
5.49475
5.50188
5.50188
5.51307
5.51307
5.52806
5.52806
5.54677
5.54677
5.56929
5.56929
5.59584
5.59584
5.62672
5.62673
5.66227
5.66227
5.70277
5.70277
5.74843
5.74844
5.79936
5.79937
5.85557
5.85558
5.91696
5.91696
5.9834
5.9834
6.05476
6.05477
6.13093
6.13094
6.21183
6.21184
6.29742
6.29742
6.38765
6.38766
6.48253
6.48254
6.58203
6.58204
6.68615
6.68615
6.79485
6.79486
6.90811
6.90812
7.02589
7.0259
7.14814
7.14815
7.27483
7.27484
7.40597
7.40597
7.5416
7.54161
7.68186
7.68187
7.82695
7.82696
7.97713
7.97714
8.13269
8.1327
8.29391
8.29392
8.46105
8.46106
8.63427
8.63428
8.81368
8.81369
8.99933
8.99934
9.19126
9.19127
9.38954
9.38955
9.59429
9.5943
9.80572
9.80573
10.0241
10.0241
10.2499
10.2499
10.4835
10.4835
10.7255
10.7255
10.9763
10.9763
11.2366
11.2366
11.5068
11.5068
11.7876
11.7876
12.0795
12.0795
12.3831
12.3831
12.6989
12.6989
13.0274
13.0274
13.369
13.369
13.7237
13.7237
14.0906
14.0906
14.4655
14.4655
14.8344
14.8344
15.1488
15.1488
15.1293
15.1293
15.1299
15.1299
15.1497
15.1497
14.8353
14.8353
14.4663
14.4663
14.0913
14.0913
13.7244
13.7244
13.3697
13.3697
13.028
13.028
12.6995
12.6995
12.3836
12.3836
12.08
12.08
11.7881
11.7881
11.5073
11.5073
11.237
11.237
10.9767
10.9767
10.7259
10.7259
10.484
10.484
10.2504
10.2504
10.0246
10.0246
9.80616
9.80616
9.59473
9.59473
9.38999
9.38999
9.19173
9.19173
8.99981
8.99981
8.81416
8.81416
8.63475
8.63475
8.46152
8.46152
8.29438
8.29438
8.13315
8.13315
7.97759
7.97759
7.82742
7.82742
7.68234
7.68234
7.54208
7.54208
7.40644
7.40644
7.27528
7.27528
7.14856
7.14856
7.02628
7.02628
6.90848
6.90848
6.7952
6.7952
6.68648
6.68648
6.58235
6.58235
6.48283
6.48283
6.38793
6.38794
6.29768
6.29768
6.21207
6.21208
6.13115
6.13115
6.05495
6.05495
5.98356
5.98357
5.9171
5.9171
5.85568
5.85568
5.79945
5.79945
5.74848
5.74848
5.70279
5.70279
5.66227
5.66227
5.62669
5.62669
5.59578
5.59578
5.56921
5.56921
5.54668
5.54668
5.52795
5.52795
5.51293
5.51293
5.50168
5.50168
5.49451
5.49451
5.49183
5.49183
5.49422
5.49422
5.50235
5.50235
5.51687
5.51686
5.53836
5.53836
5.5673
5.5673
5.60395
5.60394
5.64839
5.64838
5.7006
5.70058
5.76054
5.76053
5.82831
5.82829
5.90411
5.90409
5.98833
5.9883
6.08137
6.08133
6.18336
6.18332
6.29394
6.29389
6.41208
6.41201
6.53599
6.53591
6.66328
6.66319
6.79136
6.79126
6.91804
6.91794
7.04217
7.04208
7.16407
7.16398
7.28566
7.2856
7.41025
7.41021
7.54148
7.54146
7.6825
7.68248
7.83505
7.83503
7.99897
7.99896
8.17102
8.17104
8.34627
8.34633
8.51837
8.51847
8.68035
8.68049
8.82614
8.82629
8.95119
8.95135
9.05301
9.05317
9.13119
9.13135
9.18736
9.1875
9.22479
9.22492
9.24788
9.24799
9.26165
9.26174
9.27126
9.27134
9.28162
9.28168
9.29706
9.2971
9.32121
9.32122
9.35688
9.35687
9.40611
9.40608
9.47026
9.47021
9.55009
9.55002
9.64586
9.64576
9.75743
9.7573
9.88433
9.88417
10.0258
10.0256
10.1807
10.1804
10.3476
10.3473
10.5247
10.5244
10.71
10.7097
10.9009
10.9005
11.0945
11.094
11.2876
11.287
11.4765
11.4759
11.6576
11.6569
11.8273
11.8265
11.9822
11.9814
12.1199
12.119
12.2385
12.2377
12.338
12.3373
12.4198
12.4192
12.4873
12.4869
12.5457
12.5455
12.6013
12.6013
12.661
12.661
12.7315
12.7316
12.8188
12.8189
12.9267
12.9268
13.0561
13.0562
13.2053
13.2053
13.3699
13.37
13.5436
13.5438
13.7191
13.7195
13.8893
13.8899
14.0479
14.0488
14.1904
14.1914
14.3141
14.3152
14.4186
14.4197
14.5056
14.5067
14.5785
14.5795
14.6416
14.6426
14.6999
14.7008
14.7583
14.7591
14.8214
14.8221
14.8934
14.894
14.9777
14.9783
15.077
15.0775
15.1934
15.1938
15.3284
15.3288
15.483
15.4833
15.6578
15.6581
15.853
15.8532
16.0686
16.0688
16.3042
16.3043
16.5592
16.5593
16.8328
16.8328
17.1239
17.1239
17.4314
17.4314
17.754
17.754
18.0907
18.0906
18.4403
18.4403
18.8023
18.8022
19.1764
19.1763
19.5628
19.5627
19.9623
19.9622
20.3758
20.3757
20.8048
20.8046
21.2507
21.2505
21.715
21.7149
22.199
22.1988
22.7037
22.7035
23.2296
23.2293
23.7769
23.7766
24.3453
24.345
24.934
24.9337
25.5418
25.5415
26.1673
26.167
26.8092
26.8089
27.4668
27.4665
28.1402
28.1398
28.8308
28.8304
29.5418
29.5413
30.2773
30.2769
31.0425
31.042
31.8417
31.8412
32.6788
32.6783
33.5541
33.5535
34.4654
34.4648
35.4079
35.4072
36.3749
36.3742
37.3593
37.3586
38.355
38.3543
39.3583
39.3576
40.3683
40.3676
41.3877
41.387
42.4217
42.421
43.4774
43.4766
44.5625
44.5617
45.6843
45.6835
46.8489
46.8481
48.0606
48.0597
49.3218
49.3209
50.6328
50.6318
51.9926
51.9916
53.3995
53.3985
54.8521
54.851
56.3494
56.3483
57.8916
57.8905
59.4803
59.4791
61.1179
61.1166
62.8075
62.8062
64.5517
64.5504
66.3514
66.35
68.2041
68.2027
70.1044
70.103
72.0429
72.0414
74.0067
74.0053
75.9808
75.9794
77.9492
77.9479
79.8964
79.8953
81.8088
81.808
83.6757
83.6751
85.4894
85.4893
87.2462
87.2465
88.9454
88.9462
90.5891
90.5906
92.1822
92.1843
93.7319
93.7347
95.248
95.2514
96.7432
96.7473
98.2332
98.2379
99.7363
99.7414
101.273
101.278
102.864
102.87
104.529
104.535
106.281
106.287
108.125
108.132
110.052
110.059
112.034
112.041
114.02
114.028
115.932
115.941
117.667
117.677
119.102
119.113
120.105
120.118
120.559
120.572
120.387
120.402
119.581
119.596
118.209
118.225
116.408
116.424
114.351
114.366
112.2
112.215
110.074
110.088
108.038
108.051
106.089
106.103
104.198
104.211
102.328
102.34
100.449
100.461
98.5473
98.559
96.6193
96.6308
94.6693
94.6805
92.7045
92.7155
90.7335
90.7442
88.7643
88.7748
86.804
86.8142
84.8578
84.8678
82.9302
82.94
81.0241
81.0337
79.1412
79.1506
77.2822
77.2914
75.4469
75.4559
73.6345
73.6433
71.8441
71.8527
70.0745
70.0828
68.3246
68.3328
66.5936
66.6015
64.8804
64.8882
63.1842
63.1918
61.504
61.5115
59.8387
59.846
58.187
58.1941
56.5474
56.5544
54.9185
54.9253
53.2986
53.3053
51.6859
51.6924
50.0786
50.0849
48.4748
48.481
46.8727
46.8787
45.27
45.2759
43.6646
43.6704
42.054
42.0597
40.4356
40.4411
38.8064
38.8118
37.163
37.1683
35.5015
35.5066
33.8174
33.8223
32.1052
32.1101
30.3588
30.3635
28.5704
28.575
26.7307
26.7352
24.828
24.8323
22.8472
22.8513
20.7681
20.7721
18.5636
18.5673
16.1954
16.199
13.6093
13.6127
10.7313
10.7344
7.49346
7.49609
4.04344
4.04531
1.31004
1.3108
0.188933
0.189054
0.00664606
0.00665073
15.1295
15.1295
15.1493
15.1492
14.8349
14.8349
14.466
14.466
14.091
14.091
13.7242
13.7242
13.3695
13.3695
13.0279
13.0279
12.6994
12.6994
12.3836
12.3836
12.08
12.08
11.788
11.7881
11.5072
11.5072
11.237
11.237
10.9767
10.9767
10.7259
10.7259
10.484
10.484
10.2504
10.2504
10.0246
10.0246
9.80615
9.80616
9.59471
9.59472
9.38997
9.38997
9.1917
9.19171
8.99979
8.99979
8.81414
8.81415
8.63473
8.63474
8.4615
8.46151
8.29437
8.29437
8.13314
8.13315
7.97759
7.97759
7.82741
7.82742
7.68233
7.68234
7.54207
7.54208
7.40643
7.40643
7.27527
7.27528
7.14855
7.14855
7.02626
7.02627
6.90846
6.90847
6.79518
6.79519
6.68647
6.68647
6.58234
6.58234
6.48282
6.48282
6.38793
6.38793
6.29767
6.29768
6.21207
6.21207
6.13115
6.13115
6.05495
6.05496
5.98357
5.98357
5.91711
5.91711
5.8557
5.8557
5.79947
5.79947
5.74851
5.74852
5.70283
5.70283
5.66231
5.66231
5.62674
5.62674
5.59582
5.59582
5.56924
5.56924
5.5467
5.5467
5.52796
5.52796
5.51291
5.51292
5.50166
5.50166
5.49447
5.49447
5.49178
5.49178
5.49418
5.49418
5.5023
5.5023
5.51683
5.51683
5.53834
5.53834
5.56729
5.56729
5.60395
5.60395
5.6484
5.6484
5.70062
5.70062
5.76057
5.76058
5.82834
5.82835
5.90416
5.90417
5.98839
5.9884
6.08144
6.08146
6.18345
6.18347
6.29404
6.29406
6.41218
6.41221
6.53608
6.53612
6.66336
6.6634
6.79141
6.79146
6.91807
6.91812
7.04219
7.04223
7.16408
7.16411
7.28568
7.28571
7.4103
7.41031
7.54157
7.54157
7.68262
7.68263
7.83521
7.83521
7.99917
7.99916
8.17126
8.17124
8.34655
8.3465
8.51866
8.51859
8.68064
8.68055
8.82639
8.82629
8.95139
8.95128
9.05315
9.05304
9.13127
9.13117
9.18738
9.18728
9.22475
9.22466
9.2478
9.24772
9.26153
9.26147
9.27112
9.27107
9.28146
9.28142
9.29689
9.29687
9.32103
9.32103
9.3567
9.35671
9.40593
9.40597
9.47008
9.47013
9.54991
9.54998
9.64567
9.64577
9.75724
9.75736
9.88413
9.88428
10.0255
10.0257
10.1804
10.1806
10.3473
10.3475
10.5244
10.5247
10.7097
10.71
10.9005
10.9009
11.0941
11.0945
11.287
11.2875
11.4759
11.4764
11.6569
11.6575
11.8265
11.8272
11.9814
11.9821
12.119
12.1197
12.2376
12.2384
12.3372
12.3379
12.4191
12.4196
12.4868
12.4872
12.5454
12.5456
12.6011
12.6012
12.6609
12.6608
12.7315
12.7314
12.8188
12.8187
12.9267
12.9266
13.0561
13.0561
13.2053
13.2053
13.3699
13.3699
13.5438
13.5436
13.7195
13.7191
13.8899
13.8893
14.0487
14.0479
14.1914
14.1904
14.3151
14.3141
14.4196
14.4185
14.5066
14.5056
14.5794
14.5785
14.6425
14.6416
14.7007
14.6999
14.759
14.7582
14.822
14.8213
14.8939
14.8933
14.9781
14.9776
15.0774
15.0769
15.1937
15.1933
15.3287
15.3283
15.4832
15.4829
15.658
15.6577
15.8531
15.8529
16.0687
16.0685
16.3042
16.3041
16.5592
16.5591
16.8328
16.8327
17.1239
17.1238
17.4313
17.4313
17.754
17.754
18.0906
18.0906
18.4402
18.4403
18.8022
18.8022
19.1763
19.1764
19.5627
19.5628
19.9621
19.9622
20.3756
20.3758
20.8046
20.8047
21.2505
21.2507
21.7148
21.715
22.1988
22.199
22.7034
22.7036
23.2293
23.2295
23.7766
23.7769
24.345
24.3452
24.9336
24.9339
25.5414
25.5417
26.1669
26.1673
26.8089
26.8092
27.4664
27.4668
28.1398
28.1402
28.8304
28.8308
29.5413
29.5417
30.2769
30.2773
31.042
31.0425
31.8412
31.8417
32.6782
32.6788
33.5535
33.5541
34.4648
34.4654
35.4072
35.4079
36.3742
36.3749
37.3586
37.3593
38.3543
38.355
39.3576
39.3583
40.3676
40.3683
41.387
41.3877
42.421
42.4217
43.4767
43.4774
44.5617
44.5625
45.6835
45.6843
46.8481
46.849
48.0598
48.0606
49.3209
49.3218
50.6319
50.6328
51.9916
51.9926
53.3985
53.3995
54.8511
54.8521
56.3483
56.3494
57.8905
57.8917
59.4791
59.4803
61.1167
61.1179
62.8062
62.8075
64.5504
64.5518
66.35
66.3514
68.2027
68.2042
70.103
70.1045
72.0415
72.0429
74.0053
74.0068
75.9795
75.9809
77.948
77.9492
79.8953
79.8964
81.808
81.8089
83.6752
83.6757
85.4893
85.4895
87.2465
87.2462
88.9462
88.9454
90.5906
90.5892
92.1844
92.1823
93.7347
93.7319
95.2515
95.248
96.7474
96.7432
98.2379
98.2332
99.7414
99.7363
101.279
101.273
102.87
102.864
104.535
104.529
106.287
106.281
108.132
108.125
110.059
110.052
112.041
112.034
114.028
114.02
115.941
115.932
117.677
117.667
119.113
119.102
120.118
120.105
120.573
120.559
120.402
120.387
119.596
119.581
118.225
118.209
116.424
116.408
114.366
114.351
112.215
112.2
110.088
110.074
108.052
108.038
106.103
106.09
104.211
104.198
102.34
102.328
100.461
100.449
98.559
98.5473
96.6308
96.6194
94.6805
94.6693
92.7155
92.7046
90.7442
90.7335
88.7748
88.7644
86.8142
86.804
84.8679
84.8579
82.94
82.9302
81.0337
81.0241
79.1506
79.1413
77.2914
77.2823
75.4559
75.447
73.6433
73.6346
71.8527
71.8442
70.0829
70.0745
68.3328
68.3247
66.6016
66.5936
64.8882
64.8804
63.1919
63.1842
61.5115
61.5041
59.846
59.8387
58.1941
58.187
56.5544
56.5475
54.9254
54.9186
53.3053
53.2986
51.6924
51.6859
50.0849
50.0786
48.481
48.4748
46.8787
46.8727
45.2759
45.27
43.6704
43.6646
42.0597
42.0541
40.4412
40.4357
38.8118
38.8064
37.1683
37.163
35.5066
35.5015
33.8224
33.8174
32.1101
32.1052
30.3635
30.3588
28.575
28.5704
26.7352
26.7307
24.8323
24.828
22.8513
22.8472
20.7721
20.7681
18.5673
18.5636
16.199
16.1954
13.6127
13.6093
10.7344
10.7313
7.49609
7.49347
4.04531
4.04344
1.3108
1.31004
0.189054
0.188934
0.00665072
0.00664607
)
;

boundaryField
{
    walls
    {
        type            kqRWallFunction;
        value           nonuniform List<scalar> 8(0.00665654 0.0066541 0.00665247 0.00665628 0.00664606 0.00665072 0.00665073 0.00664607);
    }
    inlet
    {
        type            cyclic;
    }
    outlet
    {
        type            cyclic;
    }
    sides
    {
        type            empty;
    }
}


// ************************************************************************* //
