/*--------------------------------*- C++ -*----------------------------------*\
| =========                 |                                                 |
| \\      /  F ield         | OpenFOAM: The Open Source CFD Toolbox           |
|  \\    /   O peration     | Version:  2012                                  |
|   \\  /    A nd           | Website:  www.openfoam.com                      |
|    \\/     M anipulation  |                                                 |
\*---------------------------------------------------------------------------*/
FoamFile
{
    version     2.0;
    format      ascii;
    class       surfaceScalarField;
    location    "20000";
    object      phi;
}
// * * * * * * * * * * * * * * * * * * * * * * * * * * * * * * * * * * * * * //

dimensions      [0 3 -1 0 0 0 0];
oriented        oriented;


internalField   nonuniform List<scalar> 
5116
(
1.74973e-07
-1.53413e-08
2.09746e-09
2.00255e-08
-6.6702e-09
5.2288e-07
-3.85547e-08
3.16426e-09
5.01296e-08
-1.00273e-08
8.79182e-07
-5.76498e-08
2.60175e-09
7.48789e-08
-8.2449e-09
1.24789e-06
-6.9074e-08
1.55782e-09
8.96993e-08
-4.93679e-09
1.63203e-06
-7.53393e-08
8.53187e-10
9.78139e-08
-2.70378e-09
2.03211e-06
-7.91161e-08
5.15583e-10
1.0272e-07
-1.63389e-09
2.44766e-06
-8.16953e-08
3.50859e-10
1.06056e-07
-1.11186e-09
2.87826e-06
-8.36073e-08
2.61145e-10
1.08541e-07
-8.27551e-10
3.32364e-06
-8.51283e-08
2.06937e-10
1.10507e-07
-6.55761e-10
3.78411e-06
-8.6385e-08
1.71443e-10
1.1214e-07
-5.43276e-10
4.26065e-06
-8.74636e-08
1.46758e-10
1.13536e-07
-4.65044e-10
4.75385e-06
-8.84052e-08
1.28787e-10
1.14762e-07
-4.08089e-10
5.26441e-06
-8.92528e-08
1.15234e-10
1.15858e-07
-3.65134e-10
5.79333e-06
-9.00144e-08
1.04547e-10
1.16853e-07
-3.31648e-10
6.34104e-06
-9.07246e-08
9.64134e-11
1.17768e-07
-3.05448e-10
6.90721e-06
-9.13753e-08
8.9231e-11
1.18621e-07
-2.83689e-10
7.49109e-06
-9.19961e-08
8.42558e-11
1.1942e-07
-2.66785e-10
8.09184e-06
-9.25747e-08
7.96617e-11
1.20181e-07
-2.52317e-10
8.70989e-06
-9.31347e-08
7.59714e-11
1.20902e-07
-2.40377e-10
9.34782e-06
-9.36622e-08
7.27289e-11
1.21595e-07
-2.30194e-10
1.00092e-05
-9.41789e-08
7.01318e-11
1.22261e-07
-2.21726e-10
1.06965e-05
-9.46698e-08
6.77929e-11
1.22904e-07
-2.14402e-10
1.1411e-05
-9.51558e-08
6.59506e-11
1.23529e-07
-2.08318e-10
1.21531e-05
-9.56187e-08
6.37336e-11
1.24137e-07
-2.02489e-10
1.29234e-05
-9.60823e-08
6.29771e-11
1.24733e-07
-1.98664e-10
1.37228e-05
-9.65255e-08
6.09802e-11
1.25318e-07
-1.9407e-10
1.45518e-05
-9.69736e-08
6.09152e-11
1.25892e-07
-1.91823e-10
1.54109e-05
-9.74055e-08
5.99931e-11
1.26462e-07
-1.89084e-10
1.63e-05
-9.78429e-08
5.9538e-11
1.27022e-07
-1.87137e-10
1.72188e-05
-9.8266e-08
5.88957e-11
1.27582e-07
-1.85295e-10
1.8168e-05
-9.86968e-08
5.87091e-11
1.28134e-07
-1.84173e-10
1.91499e-05
-9.91146e-08
5.83095e-11
1.28686e-07
-1.83078e-10
2.01695e-05
-9.95421e-08
5.83341e-11
1.29234e-07
-1.82633e-10
2.1234e-05
-9.99577e-08
5.81477e-11
1.29783e-07
-1.8218e-10
2.23517e-05
-1.00385e-07
5.83598e-11
1.30329e-07
-1.82313e-10
2.35304e-05
-1.00798e-07
5.74436e-11
1.30878e-07
-1.81495e-10
2.47759e-05
-1.01227e-07
5.87744e-11
1.31427e-07
-1.83096e-10
2.60915e-05
-1.01634e-07
5.50168e-11
1.31971e-07
-1.79772e-10
2.74781e-05
-1.02068e-07
5.96296e-11
1.32525e-07
-1.84975e-10
2.89351e-05
-1.02477e-07
5.47092e-11
1.33071e-07
-1.80796e-10
3.04622e-05
-1.02918e-07
6.09442e-11
1.33634e-07
-1.87919e-10
3.20619e-05
-1.03338e-07
5.7224e-11
1.34194e-07
-1.85232e-10
3.37432e-05
-1.03789e-07
6.26757e-11
1.34768e-07
-1.91856e-10
3.5524e-05
-1.04226e-07
6.159e-11
1.35349e-07
-1.92083e-10
3.74319e-05
-1.0469e-07
6.47544e-11
1.35937e-07
-1.96697e-10
3.95015e-05
-1.05143e-07
6.49631e-11
1.36541e-07
-1.98497e-10
4.17704e-05
-1.0562e-07
6.71611e-11
1.37145e-07
-2.02424e-10
4.42743e-05
-1.06086e-07
6.68361e-11
1.37769e-07
-2.03975e-10
4.7044e-05
-1.0658e-07
6.99341e-11
1.38395e-07
-2.09094e-10
5.0105e-05
-1.07024e-07
5.6919e-11
1.38997e-07
-1.98256e-10
5.34786e-05
-1.07537e-07
7.34267e-11
1.39645e-07
-2.17097e-10
5.71792e-05
-1.08005e-07
6.146e-11
1.40269e-07
-2.07641e-10
6.12062e-05
-1.08541e-07
7.76134e-11
1.40944e-07
-2.2647e-10
6.55274e-05
-1.09069e-07
7.79967e-11
1.41635e-07
-2.29723e-10
7.00545e-05
-1.09631e-07
8.22614e-11
1.42342e-07
-2.37031e-10
7.46168e-05
-1.10182e-07
8.15491e-11
1.43063e-07
-2.39559e-10
7.89408e-05
-1.10774e-07
8.75006e-11
1.43807e-07
-2.48912e-10
8.26485e-05
-1.11349e-07
8.4959e-11
1.44562e-07
-2.4995e-10
8.52839e-05
-1.11973e-07
9.33529e-11
1.45345e-07
-2.62048e-10
8.63712e-05
-1.12576e-07
8.93695e-11
1.46138e-07
-2.61923e-10
8.54946e-05
-1.13235e-07
9.98181e-11
1.46968e-07
-2.76353e-10
8.23841e-05
-1.13875e-07
9.64479e-11
1.4781e-07
-2.77193e-10
7.6981e-05
-1.14574e-07
1.07066e-10
1.4869e-07
-2.9228e-10
6.94656e-05
-1.15264e-07
1.06819e-10
1.49589e-07
-2.96961e-10
6.02357e-05
-1.16008e-07
1.15549e-10
1.50528e-07
-3.1111e-10
4.98428e-05
-1.16759e-07
1.19108e-10
1.51494e-07
-3.20808e-10
3.89081e-05
-1.17535e-07
1.17644e-10
1.52465e-07
-3.26178e-10
2.80361e-05
-1.18332e-07
1.25045e-10
1.5349e-07
-3.4124e-10
1.77477e-05
-1.19157e-07
1.22824e-10
1.54523e-07
-3.47536e-10
8.44297e-06
-1.20011e-07
1.3252e-10
1.55626e-07
-3.66278e-10
3.92035e-07
-1.20147e-07
1.30769e-10
1.55625e-07
1.17313e-12
-6.25048e-06
-1.20282e-07
1.41238e-10
1.55638e-07
-2.38911e-12
-1.14227e-05
-1.20427e-07
1.40389e-10
1.55633e-07
1.19563e-12
-1.51277e-05
-1.2057e-07
1.50796e-10
1.55642e-07
-1.81544e-12
-1.74123e-05
-1.20726e-07
1.5084e-10
1.55634e-07
1.23793e-12
-1.8351e-05
-1.20878e-07
1.60939e-10
1.5564e-07
-1.03006e-12
-1.80371e-05
-1.21045e-07
1.61757e-10
1.55631e-07
1.29632e-12
-1.65773e-05
-1.21205e-07
1.71557e-10
1.55635e-07
-2.75664e-13
-1.40875e-05
-1.21384e-07
1.73113e-10
1.55626e-07
1.37326e-12
-1.06879e-05
-1.21553e-07
1.82688e-10
1.55628e-07
4.38533e-13
-6.49842e-06
-1.21685e-07
1.264e-10
1.55619e-07
1.47067e-12
-1.63367e-06
-1.21866e-07
1.9578e-10
1.55621e-07
1.07487e-12
3.80214e-06
-1.21944e-07
7.1698e-11
1.55611e-07
1.59442e-12
9.71835e-06
-1.2214e-07
2.12056e-10
1.55613e-07
1.58669e-12
1.60379e-05
-1.22147e-07
1.09539e-12
1.55601e-07
1.72327e-12
2.26949e-05
-1.22131e-07
1.59936e-12
1.55603e-07
2.02672e-12
2.96295e-05
-1.22139e-07
1.27338e-12
1.5559e-07
1.88467e-12
3.6782e-05
-1.22122e-07
1.49047e-12
1.55593e-07
1.99989e-12
4.4086e-05
-1.2213e-07
1.37533e-12
1.55579e-07
2.04697e-12
5.14626e-05
-1.22112e-07
1.57092e-12
1.5558e-07
2.16691e-12
5.8817e-05
-1.22121e-07
1.45806e-12
1.55566e-07
2.22612e-12
6.60377e-05
-1.22102e-07
1.666e-12
1.55566e-07
2.35297e-12
7.2999e-05
-1.22111e-07
1.57573e-12
1.55551e-07
2.42387e-12
7.95673e-05
-1.2209e-07
1.78707e-12
1.55551e-07
2.55877e-12
8.56107e-05
-1.221e-07
1.71793e-12
1.55535e-07
2.64181e-12
9.10085e-05
-1.22078e-07
1.93244e-12
1.55534e-07
2.78553e-12
9.56624e-05
-1.22088e-07
1.88543e-12
1.55517e-07
2.88074e-12
9.95068e-05
-1.22064e-07
2.10435e-12
1.55516e-07
3.03372e-12
0.000102515
-1.22075e-07
2.07989e-12
1.55498e-07
3.14124e-12
0.000104701
-1.22049e-07
2.30508e-12
1.55496e-07
3.3039e-12
0.000106123
-1.22061e-07
2.30406e-12
1.55477e-07
3.4241e-12
0.000106876
-1.22034e-07
2.53774e-12
1.55474e-07
3.59728e-12
0.000107086
-1.22046e-07
2.56144e-12
1.55454e-07
3.73109e-12
0.000106903
-1.22017e-07
2.80639e-12
1.55451e-07
3.91601e-12
0.000106491
-1.22029e-07
2.85671e-12
1.5543e-07
4.06464e-12
0.000106021
-1.21999e-07
3.11569e-12
1.55425e-07
4.26267e-12
0.000105664
-1.22012e-07
3.19434e-12
1.55403e-07
4.42732e-12
0.000105583
-1.2198e-07
3.47043e-12
1.55398e-07
4.63949e-12
0.00010593
-1.21993e-07
3.5795e-12
1.55375e-07
4.8209e-12
0.000106845
-1.2196e-07
3.87524e-12
1.55369e-07
5.04786e-12
0.000108446
-1.21974e-07
4.01626e-12
1.55344e-07
5.24643e-12
0.000110829
-1.2194e-07
4.33483e-12
1.55337e-07
5.48854e-12
0.00011406
-1.21954e-07
4.51035e-12
1.55311e-07
5.70463e-12
0.000118173
-1.21919e-07
4.85494e-12
1.55303e-07
5.96273e-12
0.000123162
-1.21934e-07
5.06772e-12
1.55276e-07
6.19745e-12
0.000128976
-1.21897e-07
5.44335e-12
1.55266e-07
6.47336e-12
0.000135518
-1.21912e-07
5.69823e-12
1.55237e-07
6.72891e-12
0.00014264
-1.21875e-07
6.11054e-12
1.55227e-07
7.02561e-12
0.000150155
-1.21891e-07
6.4125e-12
1.55196e-07
7.30502e-12
0.000157834
-1.21853e-07
6.86857e-12
1.55185e-07
7.6258e-12
0.000165428
-1.21869e-07
7.22337e-12
1.55152e-07
7.93168e-12
0.000172677
-1.21832e-07
7.72855e-12
1.55139e-07
8.27872e-12
0.00017933
-1.21848e-07
8.13911e-12
1.55104e-07
8.61192e-12
0.000185164
-1.2181e-07
8.69726e-12
1.5509e-07
8.9854e-12
0.000190004
-1.21826e-07
9.16505e-12
1.55053e-07
9.34497e-12
0.000193734
-1.21788e-07
9.77723e-12
1.55037e-07
9.74387e-12
0.000196308
-1.21805e-07
1.03014e-11
1.54998e-07
1.01287e-11
0.000197752
-1.21768e-07
1.09696e-11
1.5498e-07
1.05531e-11
0.000198158
-1.21784e-07
1.15516e-11
1.54938e-07
1.09643e-11
0.000197675
-1.21748e-07
1.22797e-11
1.54918e-07
1.14172e-11
0.000196488
-1.21764e-07
1.29222e-11
1.54874e-07
1.18587e-11
0.000194804
-1.21728e-07
1.37173e-11
1.54852e-07
1.2345e-11
0.000192827
-1.21745e-07
1.44254e-11
1.54805e-07
1.28217e-11
0.000190738
-1.2171e-07
1.52946e-11
1.5478e-07
1.33461e-11
0.000188686
-1.21727e-07
1.60713e-11
1.5473e-07
1.38614e-11
0.000186771
-1.21693e-07
1.70216e-11
1.54703e-07
1.44267e-11
0.000185046
-1.21709e-07
1.78685e-11
1.5465e-07
1.4982e-11
0.000183516
-1.21677e-07
1.8905e-11
1.5462e-07
1.55889e-11
0.000182143
-1.21693e-07
1.98208e-11
1.54563e-07
1.6184e-11
0.000180861
-1.21662e-07
2.09488e-11
1.54531e-07
1.68325e-11
0.000179584
-1.21677e-07
2.19317e-11
1.5447e-07
1.74669e-11
0.000178222
-1.21648e-07
2.31569e-11
1.54434e-07
1.81573e-11
0.000176687
-1.21663e-07
2.42035e-11
1.5437e-07
1.88312e-11
0.000174912
-1.21635e-07
2.55341e-11
1.5433e-07
1.9565e-11
0.000172848
-1.2165e-07
2.66409e-11
1.54261e-07
2.02802e-11
0.000170478
-1.21624e-07
2.80876e-11
1.54218e-07
2.10602e-11
0.00016781
-1.21638e-07
2.92503e-11
1.54145e-07
2.18201e-11
0.000164877
-1.21614e-07
3.08273e-11
1.54097e-07
2.26502e-11
0.000161736
-1.21627e-07
3.20396e-11
1.5402e-07
2.34589e-11
0.000158459
-1.21606e-07
3.37639e-11
1.53967e-07
2.43425e-11
0.000155123
-1.21617e-07
3.50152e-11
1.53885e-07
2.52032e-11
0.000151808
-1.21598e-07
3.69049e-11
1.53828e-07
2.61418e-11
0.000148589
-1.21609e-07
3.81778e-11
1.53741e-07
2.70557e-11
0.000145528
-1.21592e-07
4.02514e-11
1.53678e-07
2.8047e-11
0.00014267
-1.21601e-07
4.15204e-11
1.53586e-07
2.90122e-11
0.000140043
-1.21586e-07
4.37998e-11
1.53518e-07
3.00505e-11
0.000137652
-1.21595e-07
4.50256e-11
1.5342e-07
3.10635e-11
0.000135478
-1.21582e-07
4.75328e-11
1.53346e-07
3.21395e-11
0.000133482
-1.2159e-07
4.90706e-11
1.53243e-07
3.31963e-11
0.000131601
-1.21578e-07
5.14308e-11
1.53163e-07
3.42998e-11
0.000129752
-1.21586e-07
5.34095e-11
1.53054e-07
3.53969e-11
0.000127832
-1.21576e-07
5.51097e-11
1.52967e-07
3.65195e-11
0.00012572
-1.21583e-07
5.73357e-11
1.52853e-07
3.76542e-11
0.00012328
-1.21574e-07
5.89059e-11
1.5276e-07
3.87931e-11
0.000120368
-1.2158e-07
6.1384e-11
1.5264e-07
3.99665e-11
0.000116833
-1.21573e-07
6.28894e-11
1.52539e-07
4.11263e-11
0.000112529
-1.21577e-07
6.56135e-11
1.52413e-07
4.23463e-11
0.000107322
-1.21572e-07
6.72321e-11
1.52306e-07
4.35419e-11
0.000101097
-1.21576e-07
7.00122e-11
1.52174e-07
4.48271e-11
9.37743e-05
-1.21572e-07
7.17764e-11
1.5206e-07
4.60869e-11
8.53132e-05
-1.21574e-07
7.46296e-11
1.51921e-07
4.74687e-11
7.57262e-05
-1.21571e-07
7.65967e-11
1.51799e-07
4.88344e-11
6.50861e-05
-1.21573e-07
7.95673e-11
1.51653e-07
5.03557e-11
5.35318e-05
-1.21571e-07
8.17928e-11
1.51522e-07
5.18775e-11
4.12702e-05
-1.21571e-07
8.49388e-11
1.51368e-07
5.35842e-11
2.85749e-05
-1.2157e-07
8.74681e-11
1.51227e-07
5.53091e-11
1.57814e-05
-1.21569e-07
9.08283e-11
1.51064e-07
5.7235e-11
3.27522e-06
-1.21568e-07
9.3679e-11
1.50911e-07
5.91901e-11
-8.524e-06
-1.21565e-07
9.7243e-11
1.50738e-07
6.13343e-11
-1.91796e-05
-1.21564e-07
1.00429e-10
1.50573e-07
6.34477e-11
-2.82644e-05
-1.2156e-07
1.04214e-10
1.50389e-07
6.57108e-11
-3.53859e-05
-1.21559e-07
1.07692e-10
1.50212e-07
6.79221e-11
-4.02061e-05
-1.21554e-07
1.11611e-10
1.50016e-07
7.02576e-11
-4.24686e-05
-1.21553e-07
1.15273e-10
1.49825e-07
7.25163e-11
-4.20128e-05
-1.21547e-07
1.19262e-10
1.49618e-07
7.48939e-11
-3.87818e-05
-1.21546e-07
1.22993e-10
1.49414e-07
7.71906e-11
-3.28298e-05
-1.21539e-07
1.271e-10
1.49195e-07
7.96365e-11
-2.4313e-05
-1.21538e-07
1.30799e-10
1.48978e-07
8.20297e-11
-1.34784e-05
-1.2153e-07
1.35234e-10
1.48746e-07
8.46328e-11
-6.41195e-07
-1.21528e-07
1.38772e-10
1.48514e-07
8.72355e-11
1.38426e-05
-1.21519e-07
1.43879e-10
1.48268e-07
9.01033e-11
2.95909e-05
-1.21516e-07
1.47848e-10
1.48021e-07
9.28916e-11
4.62217e-05
-1.21507e-07
1.53537e-10
1.47759e-07
9.59956e-11
6.33741e-05
-1.21503e-07
1.58144e-10
1.47495e-07
9.90221e-11
8.07167e-05
-1.21494e-07
1.6452e-10
1.47218e-07
1.02408e-10
9.79624e-05
-1.21491e-07
1.69872e-10
1.46936e-07
1.05683e-10
0.00011487
-1.21483e-07
1.76999e-10
1.4664e-07
1.0936e-10
0.00013124
-1.21482e-07
1.83123e-10
1.46339e-07
1.12858e-10
0.00014692
-1.21475e-07
1.9102e-10
1.46025e-07
1.16806e-10
0.000161795
-1.21476e-07
1.97896e-10
1.45704e-07
1.20474e-10
0.000175783
-1.21473e-07
2.06541e-10
1.4537e-07
1.24652e-10
0.00018883
-1.21477e-07
2.14114e-10
1.45028e-07
1.28419e-10
0.000200901
-1.21478e-07
2.23458e-10
1.44674e-07
1.32772e-10
0.000211977
-1.21488e-07
2.31646e-10
1.44311e-07
1.36557e-10
0.00022204
-1.21494e-07
2.41622e-10
1.43937e-07
1.41028e-10
0.000231071
-1.2151e-07
2.50327e-10
1.43553e-07
1.44747e-10
0.000239042
-1.21524e-07
2.60862e-10
1.43159e-07
1.49283e-10
0.000245905
-1.21547e-07
2.69978e-10
1.42755e-07
1.52858e-10
0.000251586
-1.21569e-07
2.81001e-10
1.42341e-07
1.57421e-10
0.000255981
-1.21601e-07
2.90425e-10
1.41917e-07
1.60786e-10
0.000258957
-1.21633e-07
3.01885e-10
1.41485e-07
1.65365e-10
0.000260349
-1.21675e-07
3.11537e-10
1.41043e-07
1.68485e-10
0.00025997
-1.21719e-07
3.23426e-10
1.40592e-07
1.73112e-10
0.000257621
-1.21772e-07
3.33279e-10
1.40133e-07
1.76001e-10
0.000253108
-1.21828e-07
3.45677e-10
1.39665e-07
1.80781e-10
0.000246256
-1.21893e-07
3.55797e-10
1.39187e-07
1.83524e-10
0.000236933
-1.21962e-07
3.68909e-10
1.38701e-07
1.88652e-10
0.00022507
-1.22039e-07
3.7949e-10
1.38205e-07
1.91416e-10
0.000210678
-1.22122e-07
3.93669e-10
1.37699e-07
1.97185e-10
0.00019387
-1.22212e-07
4.05025e-10
1.37182e-07
2.00208e-10
0.000174875
-1.22309e-07
4.20752e-10
1.36653e-07
2.06988e-10
0.000154041
-1.22413e-07
4.33258e-10
1.36112e-07
2.10535e-10
0.00013185
-1.22524e-07
4.51049e-10
1.35554e-07
2.18721e-10
0.000108906
-1.2264e-07
4.65011e-10
1.34982e-07
2.23006e-10
8.59292e-05
-1.22765e-07
4.8528e-10
1.3439e-07
2.32939e-10
6.37287e-05
-1.22894e-07
5.00768e-10
1.33779e-07
2.38028e-10
4.31728e-05
-1.23032e-07
5.23652e-10
1.33145e-07
2.49895e-10
2.51402e-05
-1.23173e-07
5.40343e-10
1.3249e-07
2.55605e-10
1.04519e-05
-1.23324e-07
5.6561e-10
1.31807e-07
2.69363e-10
-1.82601e-07
-1.23476e-07
5.82798e-10
1.31102e-07
2.7523e-10
-6.24196e-06
-1.23639e-07
6.09975e-10
1.30365e-07
2.90622e-10
-7.44688e-06
-1.23804e-07
6.27166e-10
1.29607e-07
2.95793e-10
-3.79961e-06
-1.2398e-07
6.56281e-10
1.28815e-07
3.12628e-10
4.39016e-06
-1.24156e-07
6.72909e-10
1.28002e-07
3.17003e-10
1.65384e-05
-1.24347e-07
7.04169e-10
1.27153e-07
3.35511e-10
3.18259e-05
-1.24536e-07
7.20627e-10
1.26284e-07
3.38617e-10
4.92659e-05
-1.24743e-07
7.5524e-10
1.25377e-07
3.58966e-10
6.7781e-05
-1.2495e-07
7.72012e-10
1.24452e-07
3.60569e-10
8.6295e-05
-1.25178e-07
8.10914e-10
1.23486e-07
3.83119e-10
0.000103816
-1.25405e-07
8.27925e-10
1.22503e-07
3.82775e-10
0.000119504
-1.25659e-07
8.71483e-10
1.21478e-07
4.07778e-10
0.000132731
-1.25912e-07
8.8792e-10
1.20439e-07
4.048e-10
0.000143116
-1.26197e-07
9.35991e-10
1.19356e-07
4.32449e-10
0.000150527
-1.2648e-07
9.50591e-10
1.18263e-07
4.26057e-10
0.00015508
-1.268e-07
1.00293e-09
1.17123e-07
4.56663e-10
0.000157113
-1.27116e-07
1.01443e-09
1.15978e-07
4.46149e-10
0.000157137
-1.27473e-07
1.07105e-09
1.14784e-07
4.80237e-10
0.000155779
-1.27823e-07
1.07836e-09
1.13591e-07
4.64959e-10
0.000153728
-1.2822e-07
1.13959e-09
1.12345e-07
5.03201e-10
0.000151659
-1.28604e-07
1.14172e-09
1.11106e-07
4.82445e-10
0.000150202
-1.29042e-07
1.20805e-09
1.09809e-07
5.25528e-10
0.0001499
-1.29463e-07
1.204e-09
1.08528e-07
4.98399e-10
0.000151158
-1.29943e-07
1.27608e-09
1.07185e-07
5.46978e-10
0.000154245
-1.304e-07
1.26489e-09
1.05864e-07
5.12416e-10
0.000159295
-1.30924e-07
1.34366e-09
1.04478e-07
5.6719e-10
0.000166321
-1.31419e-07
1.32454e-09
1.03124e-07
5.24052e-10
0.000175219
-1.31992e-07
1.41133e-09
1.01699e-07
5.85843e-10
0.000185794
-1.32528e-07
1.38368e-09
1.00319e-07
5.3293e-10
0.00019778
-1.33152e-07
1.48013e-09
9.88601e-08
6.02725e-10
0.000210879
-1.33733e-07
1.4433e-09
9.74589e-08
5.38744e-10
0.000224751
-1.34416e-07
1.55123e-09
9.59728e-08
6.17683e-10
0.000239044
-1.35047e-07
1.50434e-09
9.45584e-08
5.41197e-10
0.000253397
-1.35796e-07
1.62557e-09
9.30506e-08
6.30564e-10
0.000267436
-1.36483e-07
1.56741e-09
9.16307e-08
5.39979e-10
0.000280818
-1.37305e-07
1.7037e-09
9.01076e-08
6.41218e-10
0.000293226
-1.38055e-07
1.6327e-09
8.86903e-08
5.34825e-10
0.000304372
-1.38959e-07
1.78582e-09
8.71584e-08
6.49579e-10
0.000314052
-1.39778e-07
1.70014e-09
8.57517e-08
5.25598e-10
0.000322172
-1.40771e-07
1.87198e-09
8.42168e-08
6.55766e-10
0.000328735
-1.41664e-07
1.76963e-09
8.28284e-08
5.12367e-10
0.000333846
-1.42754e-07
1.96236e-09
8.12957e-08
6.60114e-10
0.000337706
-1.43727e-07
1.84126e-09
7.99322e-08
4.95346e-10
0.0003406
-1.44921e-07
2.05744e-09
7.84056e-08
6.63077e-10
0.000342844
-1.45979e-07
1.91538e-09
7.70729e-08
4.74746e-10
0.000344732
-1.47284e-07
2.15793e-09
7.55553e-08
6.65052e-10
0.000346512
-1.48431e-07
1.99253e-09
7.42589e-08
4.50607e-10
0.000348345
-1.49856e-07
2.26478e-09
7.27529e-08
6.66255e-10
0.000350265
-1.51097e-07
2.07337e-09
7.1498e-08
4.22747e-10
0.000352227
-1.52651e-07
2.37911e-09
7.0006e-08
6.66734e-10
0.000354092
-1.53993e-07
2.15868e-09
6.87986e-08
3.90839e-10
0.000355648
-1.55686e-07
2.50208e-09
6.73231e-08
6.66494e-10
0.000356694
-1.57136e-07
2.24917e-09
6.61692e-08
3.5454e-10
0.000357059
-1.58979e-07
2.63489e-09
6.47123e-08
6.65635e-10
0.000356634
-1.60544e-07
2.34549e-09
6.36183e-08
3.1359e-10
0.000355417
-1.62551e-07
2.77867e-09
6.21818e-08
6.64397e-10
0.000353514
-1.64239e-07
2.44814e-09
6.11539e-08
2.67789e-10
0.000351146
-1.66422e-07
2.93455e-09
5.97391e-08
6.63077e-10
0.000348621
-1.6824e-07
2.55758e-09
5.87834e-08
2.16856e-10
0.000346346
-1.70614e-07
3.10372e-09
5.73914e-08
6.6183e-10
0.000344775
-1.72572e-07
2.67437e-09
5.65152e-08
1.60206e-10
0.000344328
-1.75153e-07
3.28768e-09
5.51475e-08
6.60412e-10
0.000345416
-1.77261e-07
2.79936e-09
5.43597e-08
9.67278e-11
0.000348406
-1.80068e-07
3.48849e-09
5.302e-08
6.57985e-10
0.000353542
-1.82339e-07
2.93405e-09
5.23326e-08
2.46391e-11
0.00036093
-1.85396e-07
3.70909e-09
5.10276e-08
6.53026e-10
0.000370559
-1.87848e-07
3.08069e-09
5.04571e-08
-5.85593e-11
0.000382296
-1.91186e-07
3.95351e-09
4.91978e-08
6.43373e-10
0.00039589
-1.93841e-07
3.24228e-09
4.87666e-08
-1.55978e-10
0.000411007
-1.97497e-07
4.22668e-09
4.75691e-08
6.26355e-10
0.000427264
-2.00384e-07
3.42219e-09
4.73054e-08
-2.71147e-10
0.000444232
-2.04403e-07
4.53402e-09
4.61917e-08
5.98961e-10
0.0004615
-2.07558e-07
3.62376e-09
4.61303e-08
-4.07778e-10
0.000478716
-2.11995e-07
4.88115e-09
4.5128e-08
5.57988e-10
0.000495557
-2.15458e-07
3.85001e-09
4.53104e-08
-5.69573e-10
0.000511794
-2.20375e-07
5.27383e-09
4.4453e-08
5.00095e-10
0.00052735
-2.24192e-07
4.10369e-09
4.4927e-08
-7.60189e-10
0.000542257
-2.2966e-07
5.71822e-09
4.42543e-08
4.21666e-10
0.000556681
-2.33885e-07
4.38753e-09
4.50747e-08
-9.83427e-10
0.00057093
-2.39984e-07
6.2213e-09
4.46338e-08
3.18307e-10
0.000585435
-2.24086e-07
-1.58842e-08
4.58639e-08
-1.24375e-09
0.00060076
-2.09567e-07
-1.45526e-08
4.58087e-08
8.80216e-11
0.000617613
-1.93005e-07
-1.67029e-08
4.73566e-08
-1.40626e-09
0.000636968
-1.77717e-07
-1.5483e-08
4.77155e-08
-1.64164e-10
0.000660109
-1.60405e-07
-1.76149e-08
4.95647e-08
-1.5464e-09
0.000689085
-1.44137e-07
-1.66321e-08
5.03708e-08
-4.42891e-10
0.000727881
-1.2597e-07
-1.86375e-08
5.24938e-08
-1.6522e-09
0.000784725
-1.08452e-07
-1.80586e-08
5.3793e-08
-7.58669e-10
0.00087544
-8.92844e-08
-1.9818e-08
5.61476e-08
-1.70448e-09
0.00103057
-7.01425e-08
-1.98816e-08
5.80358e-08
-1.14879e-09
0.00137838
-2.1408e-08
-4.95999e-08
-1.65918e-09
6.05602e-08
1.66226e-07
6.19511e-09
-1.08077e-08
5.09752e-07
1.55172e-08
-2.70683e-08
8.68443e-07
2.32739e-08
-4.04753e-08
1.24155e-06
2.78446e-08
-4.84791e-08
1.62866e-06
3.04059e-08
-5.28869e-08
2.0302e-06
3.18908e-08
-5.55289e-08
2.44647e-06
3.29641e-08
-5.73477e-08
2.87748e-06
3.3696e-08
-5.86832e-08
3.32312e-06
3.43523e-08
-5.97559e-08
3.78376e-06
3.4802e-08
-6.06334e-08
4.26042e-06
3.52955e-08
-6.1395e-08
4.75372e-06
3.56073e-08
-6.20481e-08
5.26434e-06
3.59951e-08
-6.26481e-08
5.79332e-06
3.62717e-08
-6.31721e-08
6.34106e-06
3.65922e-08
-6.36771e-08
6.90727e-06
3.68553e-08
-6.41236e-08
7.49116e-06
3.71333e-08
-6.45661e-08
8.09193e-06
3.73698e-08
-6.49626e-08
8.70998e-06
3.7641e-08
-6.5363e-08
9.34792e-06
3.78133e-08
-6.57237e-08
1.00093e-05
3.80913e-08
-6.6094e-08
1.06966e-05
3.82152e-08
-6.64291e-08
1.14111e-05
3.84639e-08
-6.67783e-08
1.21532e-05
3.86238e-08
-6.70934e-08
1.29235e-05
3.88453e-08
-6.74272e-08
1.37228e-05
3.90312e-08
-6.77282e-08
1.45519e-05
3.92444e-08
-6.80517e-08
1.5411e-05
3.94247e-08
-6.83456e-08
1.63e-05
3.96172e-08
-6.86618e-08
1.72189e-05
3.98035e-08
-6.89496e-08
1.81681e-05
4.00185e-08
-6.92618e-08
1.915e-05
4.01665e-08
-6.95461e-08
2.01696e-05
4.04063e-08
-6.98562e-08
2.12341e-05
4.05176e-08
-7.0139e-08
2.23518e-05
4.07557e-08
-7.04494e-08
2.35305e-05
4.08846e-08
-7.073e-08
2.4776e-05
4.1137e-08
-7.10422e-08
2.60916e-05
4.12802e-08
-7.13161e-08
2.74782e-05
4.15326e-08
-7.16323e-08
2.89353e-05
4.16926e-08
-7.19065e-08
3.04623e-05
4.19465e-08
-7.22285e-08
3.2062e-05
4.21321e-08
-7.25121e-08
3.37433e-05
4.23779e-08
-7.28418e-08
3.55242e-05
4.25927e-08
-7.3141e-08
3.74321e-05
4.28334e-08
-7.348e-08
3.95018e-05
4.30692e-08
-7.37923e-08
4.17707e-05
4.33041e-08
-7.41421e-08
4.42746e-05
4.35403e-08
-7.44638e-08
4.70444e-05
4.37709e-08
-7.48259e-08
5.01055e-05
4.39813e-08
-7.51221e-08
5.3479e-05
4.42203e-08
-7.54993e-08
5.71797e-05
4.44553e-08
-7.58143e-08
6.12068e-05
4.4711e-08
-7.62093e-08
6.5528e-05
4.49938e-08
-7.65797e-08
7.00551e-05
4.52529e-08
-7.69945e-08
7.46174e-05
4.55468e-08
-7.73822e-08
7.89412e-05
4.58181e-08
-7.78193e-08
8.26487e-05
4.61328e-08
-7.82245e-08
8.52838e-05
4.64323e-08
-7.86863e-08
8.63707e-05
4.67795e-08
-7.91126e-08
8.54936e-05
4.70965e-08
-7.96015e-08
8.23826e-05
4.74931e-08
-8.00578e-08
7.69789e-05
4.78304e-08
-8.05766e-08
6.94629e-05
4.82613e-08
-8.10738e-08
6.02325e-05
4.86359e-08
-8.16281e-08
4.98393e-05
4.91023e-08
-8.21743e-08
3.89043e-05
4.94927e-08
-8.27473e-08
2.80322e-05
4.99923e-08
-8.33263e-08
1.77439e-05
5.03975e-08
-8.39307e-08
8.43929e-06
5.09221e-08
-8.455e-08
3.89021e-07
5.13464e-08
-8.4821e-08
-6.25312e-06
5.18882e-08
-8.50943e-08
-1.14248e-05
5.2347e-08
-8.53842e-08
-1.51295e-05
5.28912e-08
-8.56763e-08
-1.74136e-05
5.33229e-08
-8.59866e-08
-1.83518e-05
5.38547e-08
-8.62984e-08
-1.80374e-05
5.42891e-08
-8.66302e-08
-1.65772e-05
5.48025e-08
-8.69628e-08
-1.4087e-05
5.52283e-08
-8.73169e-08
-1.0687e-05
5.59457e-08
-8.76711e-08
-6.49713e-06
5.58371e-08
-8.79314e-08
-1.63217e-06
5.73821e-08
-8.83115e-08
3.80401e-06
5.71616e-08
-8.8462e-08
9.7203e-06
5.85222e-08
-8.88742e-08
1.60402e-05
5.83582e-08
-8.88837e-08
2.26974e-05
5.83017e-08
-8.88746e-08
2.96321e-05
5.8066e-08
-8.88848e-08
3.67847e-05
5.80742e-08
-8.88755e-08
4.40888e-05
5.79118e-08
-8.88859e-08
5.14654e-05
5.79393e-08
-8.88764e-08
5.88199e-05
5.78023e-08
-8.8887e-08
6.60405e-05
5.78417e-08
-8.88773e-08
7.30017e-05
5.77121e-08
-8.88882e-08
7.95699e-05
5.77552e-08
-8.88781e-08
8.5613e-05
5.76283e-08
-8.88895e-08
9.10106e-05
5.76722e-08
-8.88791e-08
9.56642e-05
5.75445e-08
-8.8891e-08
9.95082e-05
5.75873e-08
-8.88801e-08
0.000102516
5.74621e-08
-8.88927e-08
0.000104702
5.75032e-08
-8.88815e-08
0.000106124
5.73787e-08
-8.88947e-08
0.000106876
5.74171e-08
-8.88833e-08
0.000107086
5.72986e-08
-8.88973e-08
0.000106903
5.73341e-08
-8.88856e-08
0.00010649
5.72192e-08
-8.89004e-08
0.00010602
5.7251e-08
-8.88887e-08
0.000105663
5.71444e-08
-8.89044e-08
0.000105582
5.71726e-08
-8.88926e-08
0.00010593
5.70713e-08
-8.89094e-08
0.000106845
5.70953e-08
-8.88977e-08
0.000108446
5.70043e-08
-8.89154e-08
0.000110829
5.70247e-08
-8.89039e-08
0.000114061
5.69408e-08
-8.89227e-08
0.000118175
5.69572e-08
-8.89116e-08
0.000123164
5.68843e-08
-8.89315e-08
0.000128979
5.68975e-08
-8.8921e-08
0.00013552
5.68326e-08
-8.89421e-08
0.000142643
5.68425e-08
-8.89322e-08
0.000150158
5.67892e-08
-8.89544e-08
0.000157838
5.67969e-08
-8.89454e-08
0.000165432
5.67523e-08
-8.8969e-08
0.00017268
5.67579e-08
-8.8961e-08
0.000179333
5.67249e-08
-8.89858e-08
0.000185167
5.67295e-08
-8.89791e-08
0.000190006
5.67056e-08
-8.90055e-08
0.000193735
5.67098e-08
-8.90002e-08
0.000196309
5.66974e-08
-8.90279e-08
0.000197752
5.67021e-08
-8.90242e-08
0.000198157
5.66992e-08
-8.90535e-08
0.000197673
5.67052e-08
-8.90517e-08
0.000196485
5.67135e-08
-8.90824e-08
0.000194801
5.67217e-08
-8.90826e-08
0.000192823
5.67397e-08
-8.91152e-08
0.000190734
5.67508e-08
-8.91176e-08
0.000188682
5.67796e-08
-8.91518e-08
0.000186767
5.67948e-08
-8.91565e-08
0.000185042
5.68334e-08
-8.91927e-08
0.000183512
5.68534e-08
-8.92001e-08
0.000182139
5.69024e-08
-8.92382e-08
0.000180857
5.69283e-08
-8.92483e-08
0.000179581
5.69873e-08
-8.92887e-08
0.000178218
5.70197e-08
-8.93019e-08
0.000176683
5.70888e-08
-8.93443e-08
0.000174908
5.71287e-08
-8.93607e-08
0.000172844
5.7208e-08
-8.94056e-08
0.000170474
5.72563e-08
-8.94255e-08
0.000167805
5.73452e-08
-8.94728e-08
0.000164872
5.74028e-08
-8.94963e-08
0.000161731
5.75026e-08
-8.95465e-08
0.000158453
5.75705e-08
-8.9574e-08
0.000155117
5.76802e-08
-8.96268e-08
0.000151803
5.77587e-08
-8.96584e-08
0.000148584
5.78791e-08
-8.97144e-08
0.000145523
5.79702e-08
-8.97505e-08
0.000142665
5.80984e-08
-8.98096e-08
0.000140038
5.82029e-08
-8.98503e-08
0.000137647
5.83407e-08
-8.9913e-08
0.000135474
5.84536e-08
-8.99586e-08
0.000133478
5.86019e-08
-9.00255e-08
0.000131597
5.87317e-08
-9.00763e-08
0.000129749
5.88906e-08
-9.01481e-08
0.000127829
5.90346e-08
-9.02035e-08
0.000125716
5.92047e-08
-9.02791e-08
0.000123276
5.93521e-08
-9.03392e-08
0.000120363
5.95334e-08
-9.04192e-08
0.000116828
5.96916e-08
-9.04843e-08
0.000112524
5.9885e-08
-9.05685e-08
0.000107316
6.00583e-08
-9.06391e-08
0.000101091
6.02649e-08
-9.0728e-08
9.37671e-05
6.04533e-08
-9.08044e-08
8.53051e-05
6.06722e-08
-9.08982e-08
7.57173e-05
6.08758e-08
-9.09807e-08
6.50765e-05
6.11081e-08
-9.10798e-08
5.35216e-05
6.13279e-08
-9.11688e-08
4.12594e-05
6.1574e-08
-9.12736e-08
2.85639e-05
6.18112e-08
-9.13695e-08
1.57703e-05
6.20729e-08
-9.14808e-08
3.26428e-06
6.23295e-08
-9.15842e-08
-8.53446e-06
6.26079e-08
-9.17024e-08
-1.91893e-05
6.28851e-08
-9.18139e-08
-2.8273e-05
6.3182e-08
-9.19399e-08
-3.53931e-05
6.34801e-08
-9.20602e-08
-4.02118e-05
6.37964e-08
-9.21944e-08
-4.24725e-05
6.41155e-08
-9.2324e-08
-4.20149e-05
6.44525e-08
-9.24671e-08
-3.87821e-05
6.47934e-08
-9.2606e-08
-3.28283e-05
6.51513e-08
-9.27581e-08
-2.431e-05
6.55146e-08
-9.29065e-08
-1.3474e-05
6.58946e-08
-9.30681e-08
-6.35716e-07
6.62814e-08
-9.32258e-08
1.38489e-05
6.6685e-08
-9.33972e-08
2.95977e-05
6.70983e-08
-9.35659e-08
4.62288e-05
6.75285e-08
-9.37486e-08
6.33812e-05
6.79712e-08
-9.393e-08
8.07235e-05
6.84313e-08
-9.41258e-08
9.79688e-05
6.89072e-08
-9.43218e-08
0.000114876
6.94014e-08
-9.4533e-08
0.000131245
6.99147e-08
-9.47458e-08
0.000146924
7.04475e-08
-9.49744e-08
0.000161799
7.10023e-08
-9.52062e-08
0.000175786
7.15778e-08
-9.54547e-08
0.000188832
7.21782e-08
-9.57077e-08
0.000200903
7.28004e-08
-9.5978e-08
0.000211978
7.34497e-08
-9.62544e-08
0.000222041
7.41222e-08
-9.65487e-08
0.000231072
7.48237e-08
-9.68504e-08
0.000239043
7.55494e-08
-9.71705e-08
0.000245906
7.63056e-08
-9.74993e-08
0.000251588
7.70872e-08
-9.78469e-08
0.000255984
7.79002e-08
-9.82044e-08
0.000258961
7.87397e-08
-9.85808e-08
0.000260355
7.96115e-08
-9.89685e-08
0.000259977
8.05106e-08
-9.93753e-08
0.00025763
8.14427e-08
-9.97944e-08
0.000253119
8.24037e-08
-1.00233e-07
0.000246269
8.33983e-08
-1.00685e-07
0.000236949
8.44236e-08
-1.01156e-07
0.000225088
8.54841e-08
-1.01643e-07
0.000210698
8.65782e-08
-1.02149e-07
0.000193894
8.77096e-08
-1.02673e-07
0.0001749
8.88788e-08
-1.03218e-07
0.000154069
9.00889e-08
-1.03783e-07
0.00013188
9.13423e-08
-1.04369e-07
0.000108938
9.2641e-08
-1.04978e-07
8.59618e-05
9.39894e-08
-1.05611e-07
6.37608e-05
9.5388e-08
-1.0627e-07
4.32029e-05
9.68429e-08
-1.06953e-07
2.51667e-05
9.83521e-08
-1.07666e-07
1.04728e-05
9.99234e-08
-1.08405e-07
-1.69042e-07
1.01552e-07
-1.09174e-07
-6.23755e-06
1.03246e-07
-1.0997e-07
-7.45303e-06
1.04998e-07
-1.10799e-07
-3.81724e-06
1.06821e-07
-1.11654e-07
4.36082e-06
1.08701e-07
-1.12545e-07
1.64978e-05
1.10656e-07
-1.13461e-07
3.17756e-05
1.12671e-07
-1.14417e-07
4.92079e-05
1.14767e-07
-1.15399e-07
6.7718e-05
1.16927e-07
-1.16427e-07
8.62303e-05
1.19176e-07
-1.17483e-07
0.000103753
1.21494e-07
-1.18591e-07
0.000119446
1.2391e-07
-1.19728e-07
0.000132681
1.26398e-07
-1.20924e-07
0.000143077
1.28992e-07
-1.22149e-07
0.000150501
1.31658e-07
-1.2344e-07
0.000155068
1.34437e-07
-1.24759e-07
0.000157114
1.37286e-07
-1.26148e-07
0.000157148
1.40253e-07
-1.27563e-07
0.000155799
1.43286e-07
-1.29054e-07
0.000153752
1.46442e-07
-1.30566e-07
0.000151683
1.49658e-07
-1.32159e-07
0.000150222
1.53002e-07
-1.33769e-07
0.000149909
1.56401e-07
-1.35465e-07
0.000151153
1.59931e-07
-1.37172e-07
0.000154223
1.63509e-07
-1.38973e-07
0.000159253
1.67225e-07
-1.40777e-07
0.000166258
1.7098e-07
-1.42684e-07
0.000175134
1.74881e-07
-1.44588e-07
0.00018569
1.78814e-07
-1.46605e-07
0.000197659
1.82905e-07
-1.48612e-07
0.000210744
1.8702e-07
-1.50745e-07
0.000224608
1.91307e-07
-1.52863e-07
0.000238895
1.9561e-07
-1.55121e-07
0.000253249