/*--------------------------------*- C++ -*----------------------------------*\
| =========                 |                                                 |
| \\      /  F ield         | OpenFOAM: The Open Source CFD Toolbox           |
|  \\    /   O peration     | Version:  2012                                  |
|   \\  /    A nd           | Website:  www.openfoam.com                      |
|    \\/     M anipulation  |                                                 |
\*---------------------------------------------------------------------------*/
FoamFile
{
    version     2.0;
    format      ascii;
    class       volSymmTensorField;
    location    "20000";
    object      turbulenceProperties:R;
}
// * * * * * * * * * * * * * * * * * * * * * * * * * * * * * * * * * * * * * //

dimensions      [0 2 -2 0 0 0 0];


internalField   nonuniform List<symmTensor> 
2560
(
(0.00443769 -1.40003e-06 -2.03149e-09 0.00443769 -4.26075e-09 0.00443769)
(0.00443498 -1.39781e-06 -2.02979e-09 0.00443498 6.53967e-13 0.00443498)
(0.126152 -0.000228176 -9.99306e-07 0.126152 5.91487e-12 0.126152)
(0.126081 -0.000227827 -9.98506e-07 0.126081 1.22319e-11 0.126081)
(0.874648 -0.00472963 -2.83308e-05 0.87465 5.60879e-06 0.874648)
(0.874194 -0.00472272 -2.82902e-05 0.874193 -1.63291e-09 0.874195)
(2.69899 -0.0313673 -0.000190625 2.699 3.91132e-05 2.69899)
(2.69787 -0.0313267 -0.000190385 2.69786 -1.36488e-08 2.69787)
(5.00072 -0.0981947 -0.00060542 5.00073 7.12993e-05 5.00072)
(4.99915 -0.098087 -0.000604783 4.99914 -2.65038e-08 4.99915)
(7.16052 -0.2006 -0.00125427 7.16053 6.89226e-05 7.16052)
(7.15869 -0.200413 -0.00125317 7.15867 -3.91315e-08 7.15869)
(9.08019 -0.327518 -0.00207621 9.0802 5.61988e-05 9.08019)
(9.07818 -0.32726 -0.00207467 9.07816 -4.52674e-08 9.07818)
(10.8051 -0.471274 -0.00302883 10.8051 4.52675e-05 10.8051)
(10.803 -0.470958 -0.00302694 10.8029 -5.49323e-08 10.803)
(12.3847 -0.627423 -0.00409092 12.3847 3.72572e-05 12.3847)
(12.3824 -0.627072 -0.0040888 12.3824 -5.27763e-08 12.3824)
(13.8551 -0.794042 -0.0052563 13.8552 3.14046e-05 13.8551)
(13.8527 -0.793675 -0.00525409 13.8527 -7.1217e-08 13.8527)
(15.2419 -0.969878 -0.006515 15.2419 2.69947e-05 15.2419)
(15.2394 -0.969517 -0.00651282 15.2394 -5.13161e-08 15.2394)
(16.5631 -1.15359 -0.00786375 16.5632 2.35877e-05 16.5631)
(16.5605 -1.15326 -0.00786174 16.5605 -9.2304e-08 16.5605)
(17.8323 -1.34496 -0.00930702 17.8323 2.09847e-05 17.8323)
(17.8297 -1.34467 -0.0093053 17.8293 -1.57449e-06 17.8297)
(19.0593 -1.5431 -0.010832 19.0594 1.86509e-05 19.0593)
(19.0565 -1.54287 -0.0108307 19.0565 -9.61808e-09 19.0565)
(20.2522 -1.74508 -0.0124167 20.2522 1.69405e-05 20.2522)
(20.2498 -1.74491 -0.0124159 20.2484 -1.01345e-06 20.2498)
(21.4171 -1.94743 -0.0140395 21.4171 1.26862e-05 21.4171)
(21.4142 -1.94734 -0.0140392 21.4142 -4.06057e-08 21.4142)
(22.5591 -2.14746 -0.0156862 22.5591 2.1433e-05 22.5591)
(22.5561 -2.14744 -0.0156864 22.5561 1.83811e-06 22.5561)
(23.6825 -2.34631 -0.0173888 23.6825 6.58019e-06 23.6825)
(23.6793 -2.34638 -0.0173895 23.6793 -1.73504e-08 23.6793)
(24.7907 -2.55158 -0.0192262 24.7907 2.25685e-05 24.7907)
(24.7875 -2.55171 -0.0192274 24.7875 4.48126e-08 24.7875)
(25.8869 -2.77208 -0.0212525 25.8869 2.31031e-06 25.8869)
(25.8836 -2.77227 -0.021254 25.8836 -8.43576e-09 25.8836)
(26.9736 -3.00965 -0.0234498 26.9736 2.42239e-05 26.9736)
(26.9702 -3.00988 -0.0234517 26.9702 6.16801e-08 26.9702)
(28.0531 -3.25868 -0.0257649 28.0531 -2.01719e-06 28.0531)
(28.0496 -3.25895 -0.0257671 28.0496 4.62908e-10 28.0496)
(29.1274 -3.51297 -0.0281681 29.1274 2.75237e-05 29.1274)
(29.1238 -3.51327 -0.0281705 29.1238 -3.32123e-06 29.1238)
(30.1982 -3.77037 -0.0306634 30.1983 -1.01445e-05 30.1982)
(30.1946 -3.77069 -0.0306659 30.1946 -6.69516e-08 30.1946)
(31.2672 -4.0314 -0.0332595 31.2672 3.7731e-05 31.2672)
(31.2635 -4.03172 -0.0332621 31.2635 -1.90841e-06 31.2635)
(32.3359 -4.29583 -0.0359486 32.336 -2.5406e-05 32.3359)
(32.3321 -4.29614 -0.035951 32.3321 -1.56041e-07 32.3321)
(33.4057 -4.5614 -0.0387063 33.4057 5.29904e-05 33.4057)
(33.4018 -4.56169 -0.0387087 33.4018 5.09318e-06 33.4018)
(34.4778 -4.82471 -0.0415041 34.4779 -3.99905e-05 34.4778)
(34.4738 -4.82498 -0.0415062 34.4738 -1.03231e-07 34.4738)
(35.5536 -5.08321 -0.0443292 35.5535 6.33473e-05 35.5536)
(35.5495 -5.08344 -0.044331 35.5495 -2.6601e-08 35.5495)
(36.6341 -5.33847 -0.0472219 36.6342 -5.0643e-05 36.6341)
(36.6299 -5.33864 -0.0472231 36.6299 -3.23286e-08 36.6299)
(37.7207 -5.59973 -0.050306 37.7206 7.38787e-05 37.7207)
(37.7163 -5.59984 -0.0503066 37.7163 2.12923e-07 37.7164)
(38.8142 -5.88447 -0.0537761 38.8144 -6.22571e-05 38.8142)
(38.8099 -5.88449 -0.0537759 38.8099 3.24975e-08 38.8099)
(39.916 -6.21327 -0.0578288 39.9159 8.57784e-05 39.916)
(39.9115 -6.21319 -0.0578276 39.9115 2.73945e-07 39.9115)
(41.0267 -6.6013 -0.0625813 41.0269 -7.49005e-05 41.0267)
(41.0222 -6.60111 -0.062579 41.0222 2.27948e-08 41.0222)
(42.1476 -7.05185 -0.068027 42.1475 0.000100229 42.1476)
(42.1428 -7.05154 -0.0680236 42.1428 -7.95755e-06 42.1428)
(43.2789 -7.55505 -0.074042 43.2791 -9.70837e-05 43.2789)
(43.2742 -7.55463 -0.0740375 43.2742 -1.64485e-07 43.2742)
(44.4218 -8.09155 -0.08043 44.4216 0.000128658 44.4218)
(44.4168 -8.09102 -0.0804244 44.4168 -2.68601e-05 44.4168)
(45.5763 -8.63864 -0.0869834 45.5766 -0.000158497 45.5763)
(45.5714 -8.63802 -0.0869768 45.5714 -5.76455e-07 45.5714)
(46.7438 -9.17739 -0.0935556 46.7435 0.000222233 46.7438)
(46.7385 -9.17667 -0.0935478 46.7385 -1.19126e-05 46.7385)
(47.924 -9.70055 -0.100152 47.9244 -0.000270007 47.924)
(47.9189 -9.69971 -0.100143 47.9189 -7.90342e-07 47.9189)
(49.1186 -10.2214 -0.107036 49.1183 0.000353341 49.1186)
(49.1131 -10.2204 -0.107025 49.1131 9.96213e-06 49.1131)
(50.3274 -10.7807 -0.114797 50.3278 -0.000398548 50.3274)
(50.322 -10.7796 -0.114784 50.322 -6.88861e-07 50.322)
(51.552 -11.4471 -0.124324 51.5516 0.00047929 51.552)
(51.5462 -11.4457 -0.124307 51.5462 2.35281e-05 51.5462)
(52.7918 -12.304 -0.136607 52.7923 -0.000506953 52.7918)
(52.7862 -12.3023 -0.136587 52.7862 -3.77709e-07 52.7862)
(54.0482 -13.4265 -0.152454 54.0478 0.000569278 54.0482)
(54.0421 -13.4244 -0.152429 54.0421 1.09402e-05 54.0421)
(55.3195 -14.8569 -0.172246 55.32 -0.000589338 55.3195)
(55.3136 -14.8545 -0.172217 55.3136 -2.34933e-07 55.3136)
(56.6058 -16.5943 -0.195885 56.6053 0.000644299 56.6058)
(56.5994 -16.5916 -0.195853 56.5994 -6.5109e-06 56.5994)
(57.9038 -18.5997 -0.222913 57.9044 -0.000673185 57.9038)
(57.8977 -18.5967 -0.222879 57.8977 -3.41983e-07 57.8977)
(59.2121 -20.8167 -0.252802 59.2115 0.000738405 59.2121)
(59.2054 -20.8137 -0.252767 59.2054 -0.000120641 59.2054)
(60.5254 -23.1914 -0.28508 60.526 -0.000892552 60.5254)
(60.5189 -23.1885 -0.285047 60.5189 -2.13444e-06 60.5189)
(61.8407 -25.6634 -0.318995 61.8401 0.001092 61.8407)
(61.8337 -25.6608 -0.318967 61.8337 7.6259e-06 61.8337)
(63.1512 -28.1234 -0.352813 63.1519 -0.00125418 63.1512)
(63.1445 -28.1214 -0.352794 63.1445 -4.17306e-06 63.1445)
(64.4529 -30.3497 -0.382891 64.4523 0.00143822 64.4529)
(64.4456 -30.3487 -0.382887 64.4456 0.000103302 64.4456)
(65.7391 -31.9437 -0.402811 65.7397 -0.00152758 65.7391)
(65.732 -31.9443 -0.402829 65.732 -8.18376e-06 65.732)
(67.0083 -32.2917 -0.402952 67.0079 0.00158106 67.0083)
(67.0007 -32.2943 -0.403 67.0007 -3.72713e-05 67.0007)
(68.2615 -30.5961 -0.371326 68.2621 -0.00172053 68.2615)
(68.2539 -30.6014 -0.371414 68.2539 -1.51298e-05 68.2539)
(69.5098 -26.0032 -0.295653 69.5097 0.00173922 69.5098)
(69.5018 -26.0119 -0.29579 69.5018 -4.95986e-05 69.5018)
(70.7713 -17.8139 -0.166687 70.7718 -0.00196202 70.7713)
(70.7632 -17.8265 -0.16688 70.7632 -1.63263e-05 70.7632)
(72.071 -0.0133699 -8.94169e-05 72.0712 0.00194119 72.071)
(72.0624 -2.16209e-31 -7.05732e-16 72.0624 -2.7921e-05 72.0624)
(73.4294 2.71302 -0.0184083 73.4296 -0.00223949 73.4294)
(73.4205 2.67506 -0.0181508 73.4205 -4.94645e-06 73.4205)
(74.8479 28.0111 -0.256713 74.8481 0.00220477 74.8479)
(74.8386 27.9861 -0.256394 74.8386 2.78155e-05 74.8386)
(76.2831 46.9779 -0.526894 76.2826 -0.00251186 76.2831)
(76.2732 46.9497 -0.526518 76.2732 1.4296e-05 76.2732)
(77.6552 64.757 -0.802446 77.6555 0.00250736 77.6552)
(77.6454 64.7267 -0.802026 77.6454 7.74353e-05 77.6454)
(78.8564 79.3597 -1.05271 78.8555 -0.00273329 78.8564)
(78.8462 79.3289 -1.05227 78.8462 2.68402e-05 78.8462)
(79.7705 89.2527 -1.24935 79.7711 0.00279099 79.7705)
(79.761 89.2234 -1.2489 79.761 6.68755e-05 79.761)
(80.3085 93.6507 -1.37236 80.3076 -0.00287536 80.3085)
(80.2989 93.6249 -1.37195 80.2989 -7.51728e-05 80.2989)
(80.4224 92.6044 -1.41354 80.4234 0.00294212 80.4224)
(80.414 92.5845 -1.41319 80.414 -1.9348e-05 80.414)
(80.1205 86.8784 -1.37681 80.1197 -0.00292271 80.1205)
(80.1123 86.8665 -1.37657 80.1123 -3.97899e-05 80.1123)
(79.4508 77.6707 -1.0579 79.452 0.00299681 79.4508)
(79.444 77.6685 -1.05816 79.444 -8.13628e-06 79.444)
(78.4938 66.2973 -0.497552 78.4931 -0.00291897 78.4938)
(78.4873 66.3061 -0.497827 78.4873 -0.000207273 78.4873)
(77.335 53.946 -0.0226119 77.3361 0.0030022 77.335)
(77.3298 53.9661 -0.0228781 77.3298 -9.74854e-06 77.3298)
(76.0596 41.5377 0.359372 76.0588 -0.00292478 76.0596)
(76.0543 41.5659 0.359136 76.0543 0.000235547 76.0543)
(74.7341 29.6949 0.395202 74.7349 0.00299528 74.7341)
(74.7297 29.726 0.395723 74.7297 5.12284e-06 74.7297)
(73.4122 18.7836 0.227303 73.4115 -0.00294493 73.4122)
(73.4076 18.8147 0.227813 73.4076 1.63334e-05 73.4076)
(72.1259 8.81672 0.074287 72.1266 0.00299786 72.1259)
(72.122 8.87435 0.0747726 72.122 5.08151e-06 72.122)
(70.8959 -4.50165e-20 2.06593e-16 70.8953 -0.00297067 70.8959)
(70.8917 0.0236318 0.000202009 70.8917 1.61495e-05 70.8917)
(69.7264 -7.04296 0.0626195 69.727 0.00301664 69.7264)
(69.7205 -7.01737 0.0621617 69.7268 6.57363e-05 69.7205)
(68.6158 -13.293 0.182875 68.6153 -0.00300647 68.6158)
(68.6118 -13.2693 0.182445 68.6118 1.38274e-05 68.6118)
(67.5535 -18.4276 0.286259 67.554 0.00305119 67.5535)
(67.5487 -18.4059 0.285856 67.5527 4.26121e-05 67.5487)
(66.5282 -22.5227 0.373127 66.5277 -0.00305568 66.5282)
(66.5246 -22.5033 0.372755 66.5246 1.15611e-05 66.5246)
(65.5245 -25.6736 0.33198 65.525 0.0027714 65.5245)
(65.5207 -25.6576 0.33212 65.5231 2.68256e-05 65.5207)
(64.5302 -27.995 0.0823368 64.5298 -0.0024445 64.5302)
(64.5272 -27.984 0.0825064 64.5272 9.00944e-06 64.5272)
(63.5318 -29.6138 -0.189699 63.5321 0.00179955 63.5318)
(63.5291 -29.6087 -0.189509 63.5302 1.18916e-05 63.5291)
(62.5199 -30.6543 -0.47858 62.5196 -0.00110509 62.5199)
(62.5178 -30.6543 -0.478379 62.5178 1.65443e-06 62.5179)
(61.4854 -31.223 -0.61536 61.4854 0.000444193 61.4854)
(61.4838 -31.2266 -0.615459 61.4841 8.10608e-06 61.4838)
(60.4222 -31.3991 -0.624336 60.4219 -2.01317e-05 60.4222)
(60.421 -31.4051 -0.624473 60.421 -6.42221e-21 60.421)
(59.3251 -31.2291 -0.626775 59.3251 7.4337e-07 59.3251)
(59.3243 -31.2365 -0.626933 59.3244 8.99886e-06 59.3243)
(58.1913 -30.7272 -0.622358 58.1911 -1.47826e-05 58.1913)
(58.1908 -30.7353 -0.622526 58.1908 -3.25671e-07 58.1908)
(57.0192 -29.8818 -0.610308 57.0192 -3.29781e-06 57.0192)
(57.0189 -29.89 -0.610479 57.0192 4.82076e-06 57.0189)
(55.8093 -28.6657 -0.58963 55.8091 -1.68448e-05 55.8093)
(55.8093 -28.6739 -0.589798 55.8093 -6.09881e-06 55.8093)
(54.5642 -27.0502 -0.559372 54.5642 -8.5403e-06 54.5642)
(54.5644 -27.0581 -0.559535 54.5646 -5.28662e-06 54.5644)
(53.2889 -25.018 -0.518951 53.2887 -1.59368e-05 53.2889)
(53.2893 -25.0254 -0.519107 53.2893 -9.28676e-06 53.2893)
(51.9903 -22.5763 -0.468427 51.9903 -9.81012e-06 51.9903)
(51.9907 -22.5833 -0.468575 51.991 -8.63738e-06 51.9907)
(50.6776 -19.7655 -0.408682 50.6774 -1.34817e-05 50.6776)
(50.6781 -19.772 -0.408822 50.6781 -9.54797e-06 50.6781)
(49.3608 -16.6603 -0.341413 49.3608 -8.90209e-06 49.3608)
(49.3614 -16.6663 -0.341544 49.3616 -9.524e-06 49.3614)
(48.051 -13.3656 -0.26907 48.0509 -8.98682e-06 48.051)
(48.0516 -13.3711 -0.269191 48.0516 -7.47252e-06 48.0516)
(46.758 -10.0104 -0.194734 46.758 -5.83946e-06 46.758)
(46.7586 -10.0154 -0.194844 46.7588 -8.04695e-06 46.7586)
(45.4906 -6.73461 -0.121717 45.4905 -3.2821e-06 45.4906)
(45.4912 -6.73905 -0.121816 45.4912 -3.80271e-06 45.4912)
(44.2548 -3.67446 -0.0532916 44.2548 -4.78496e-07 44.2548)
(44.2554 -3.67833 -0.0533774 44.2555 -3.66349e-06 44.2554)
(43.0545 -0.000658739 -7.96268e-06 43.0544 2.12375e-06 43.0545)
(43.0551 -0.00738567 -8.92762e-05 43.0551 -7.71535e-08 43.0551)
(41.8911 0.616355 -0.00755869 41.8911 4.59378e-07 41.8911)
(41.8917 0.610483 -0.00748667 41.8918 -5.05279e-06 41.8917)
(40.7642 3.13208 -0.0583553 40.7641 6.01584e-06 40.7642)
(40.7648 3.13006 -0.0582975 40.7648 2.39622e-06 40.7648)
(39.6719 4.39287 -0.0975355 39.6719 2.90317e-06 39.6719)
(39.6725 4.39146 -0.0974925 39.6725 -3.43444e-06 39.6725)
(38.6123 5.11994 -0.124128 38.6122 8.01167e-06 38.6123)
(38.6128 5.11915 -0.1241 38.6128 3.16052e-06 38.6128)
(37.5836 5.3372 -0.137888 37.5836 2.99234e-06 37.5836)
(37.5841 5.337 -0.137875 37.5842 -4.42578e-06 37.5841)
(36.5849 5.08814 -0.139151 36.5849 8.69659e-06 36.5849)
(36.5854 5.08848 -0.139153 36.5854 2.73565e-06 36.5854)
(35.616 4.43013 -0.128743 35.616 2.27369e-06 35.616)
(35.6165 4.43097 -0.128759 35.6166 -6.03896e-06 35.6165)
(34.6776 3.42841 -0.107841 34.6775 8.83692e-06 34.6776)
(34.678 3.42966 -0.107869 34.678 1.85919e-06 34.678)
(33.7706 2.15227 -0.0778392 33.7706 1.35328e-06 33.7706)
(33.771 2.15383 -0.0778783 33.7711 -7.71789e-06 33.771)
(32.8961 0.000744102 -0.0403144 32.8961 8.80523e-06 32.8961)
(32.8966 0.00292137 -0.0403616 32.8966 9.10396e-07 32.8966)
(32.0548 -0.214037 -0.0504301 32.0548 3.23336e-07 32.0548)
(32.0553 -0.210345 -0.0503759 32.0553 -9.7406e-06 32.0553)
(31.2466 -2.60449 -0.0997511 31.2466 8.42402e-06 31.2466)
(31.247 -2.60263 -0.0996985 31.247 -2.59139e-07 31.247)
(30.4697 -4.25277 -0.148807 30.4697 -1.01945e-06 30.4697)
(30.4701 -4.25106 -0.148759 30.4702 -1.13665e-05 30.4701)
(29.7214 -5.80454 -0.195207 29.7214 7.46342e-06 29.7214)
(29.7218 -5.80307 -0.195168 29.7218 -1.89761e-06 29.7218)
(28.9977 -7.18133 -0.236449 28.9977 -2.90006e-06 28.9977)
(28.998 -7.18018 -0.23642 28.9981 -1.38079e-05 28.998)
(28.2935 -8.30763 -0.270048 28.2935 6.16095e-06 28.2935)
(28.2939 -8.30686 -0.27003 28.2939 -3.85557e-06 28.2939)
(27.6039 -9.11521 -0.293672 27.6039 -4.90408e-06 27.6039)
(27.6042 -9.11484 -0.293666 27.6042 -1.62766e-05 27.6042)
(26.9239 -9.5485 -0.305362 26.9239 4.32733e-06 26.9239)
(26.9243 -9.54852 -0.305369 26.9243 -5.90989e-06 26.9243)
(26.2502 -9.57087 -0.303757 26.2502 -6.97245e-06 26.2502)
(26.2506 -9.57126 -0.303775 26.2506 -1.84417e-05 26.2506)
(25.581 -9.17011 -0.288303 25.581 9.24857e-07 25.581)
(25.5814 -9.17081 -0.28833 25.5814 -8.09812e-06 25.5814)
(24.9169 -8.36152 -0.259354 24.9169 -9.43692e-06 24.9169)
(24.9172 -8.36246 -0.259389 24.9172 -1.94387e-05 24.9172)
(24.2603 -7.18888 -0.218275 24.2602 -3.11901e-06 24.2603)
(24.2606 -7.19001 -0.218315 24.2606 -1.10769e-05 24.2606)
(23.6153 -5.7224 -0.167346 23.6153 -1.31838e-05 23.6153)
(23.6156 -5.72364 -0.167389 23.6156 -2.18313e-05 23.6156)
(22.9867 -4.05302 -0.109606 22.9866 -8.82029e-06 22.9867)
(22.987 -4.0543 -0.10965 22.987 -1.58028e-05 22.987)
(22.3788 -2.28472 -0.0485864 22.3788 -1.90158e-05 22.3788)
(22.3791 -2.28599 -0.0486298 22.3791 -2.64862e-05 22.3791)
(21.795 -0.00270311 -4.75575e-05 21.7949 -1.66009e-05 21.795)
(21.7952 -0.00399454 -7.02784e-05 21.7952 -2.2662e-05 21.7952)
(21.2366 0.674033 -0.0120311 21.2366 -2.6637e-05 21.2366)
(21.2369 0.671753 -0.0119904 21.2369 -3.32217e-05 21.2369)
(20.7035 2.58024 -0.0687162 20.7034 -2.53309e-05 20.7035)
(20.7037 2.5793 -0.0686795 20.7037 -3.05517e-05 20.7037)
(20.1931 3.77499 -0.118523 20.1931 -3.40098e-05 20.1931)
(20.1933 3.77422 -0.118491 20.1933 -4.00212e-05 20.1933)
(19.7024 4.67211 -0.1592 19.7024 -3.17902e-05 19.7024)
(19.7027 4.67152 -0.159175 19.7027 -3.65299e-05 19.7027)
(19.2282 5.26187 -0.189405 19.2282 -3.76163e-05 19.2282)
(19.2284 5.26146 -0.189386 19.2284 -4.31352e-05 19.2284)
(18.7674 5.56155 -0.208829 18.7675 -3.23682e-05 18.7674)
(18.7676 5.56131 -0.208817 18.7676 -3.67312e-05 18.7676)
(18.3182 5.61056 -0.21814 18.3182 -3.36229e-05 18.3182)
(18.3184 5.61047 -0.218134 18.3184 -3.86646e-05 18.3184)
(17.8795 5.46372 -0.218805 17.8795 -2.43976e-05 17.8795)
(17.8797 5.46375 -0.218804 17.8797 -2.81973e-05 17.8797)
(17.4513 5.18412 -0.212859 17.4513 -2.0637e-05 17.4513)
(17.4514 5.18423 -0.212862 17.4515 -2.50298e-05 17.4514)
(17.034 4.8358 -0.202658 17.034 -8.31048e-06 17.034)
(17.0342 4.83595 -0.202664 17.0342 -1.13363e-05 17.0342)
(16.6286 4.47655 -0.190585 16.6286 -3.76229e-07 16.6286)
(16.6287 4.47671 -0.190592 16.6287 -3.54382e-06 16.6287)
(16.2359 4.15276 -0.178766 16.2359 1.15355e-05 16.2359)
(16.2361 4.1529 -0.178773 16.2361 8.73523e-06 16.2361)
(15.8568 3.89698 -0.1689 15.8568 1.9118e-05 15.8568)
(15.857 3.89707 -0.168905 15.857 1.58804e-05 15.857)
(15.4918 3.72713 -0.162159 15.4918 3.01889e-05 15.4918)
(15.4919 3.72716 -0.162161 15.4919 2.72778e-05 15.4919)
(15.141 3.64719 -0.159148 15.141 3.33024e-05 15.141)
(15.1411 3.64716 -0.159148 15.1411 3.02803e-05 15.1411)
(14.8044 3.64919 -0.159917 14.8044 3.96583e-05 14.8044)
(14.8045 3.6491 -0.159915 14.8045 3.69061e-05 14.8045)
(14.4816 3.7162 -0.164042 14.4816 3.8069e-05 14.4816)
(14.4817 3.71607 -0.164036 14.4817 3.55385e-05 14.4817)
(14.1719 3.82561 -0.170736 14.1719 3.93564e-05 14.1719)
(14.172 3.82544 -0.170729 14.172 3.70464e-05 14.172)
(13.8744 3.95232 -0.178972 13.8744 3.42443e-05 13.8744)
(13.8745 3.95214 -0.178964 13.8745 3.23403e-05 13.8745)
(13.5883 4.07216 -0.187624 13.5883 3.20065e-05 13.5883)
(13.5883 4.07197 -0.187616 13.5883 3.02827e-05 13.5883)
(13.3124 4.16417 -0.19562 13.3124 2.56831e-05 13.3124)
(13.3125 4.164 -0.195612 13.3125 2.40772e-05 13.3125)
(13.0459 4.21214 -0.202014 13.0459 2.23949e-05 13.0459)
(13.046 4.212 -0.202006 13.046 2.09622e-05 13.046)
(12.7882 4.20589 -0.206074 12.7882 9.41788e-06 12.7882)
(12.7882 4.20579 -0.206068 12.7882 1.48369e-05 12.7882)
(12.5386 4.14152 -0.207353 12.5386 8.14961e-07 12.5386)
(12.5386 4.14147 -0.20735 12.5386 6.83865e-06 12.5386)
(12.2971 4.02081 -0.205687 12.2971 -1.52919e-06 12.2971)
(12.2971 4.0208 -0.205686 12.2971 -2.32707e-06 12.2971)
(12.0639 3.85039 -0.201169 12.0639 -3.26848e-07 12.0639)
(12.0639 3.85042 -0.20117 12.0639 -7.74651e-07 12.0639)
(11.8393 3.64083 -0.194137 11.8393 -1.53371e-06 11.8393)
(11.8393 3.6409 -0.19414 11.8393 -2.16195e-06 11.8393)
(11.6241 3.40518 -0.185127 11.6241 -4.9834e-07 11.6241)
(11.6241 3.40528 -0.185132 11.6241 -7.71861e-07 11.6241)
(11.419 3.15765 -0.174795 11.419 -1.53006e-06 11.419)
(11.419 3.15777 -0.1748 11.419 -1.96166e-06 11.419)
(11.2248 2.9127 -0.163874 11.2248 -6.51426e-07 11.2248)
(11.2248 2.91282 -0.16388 11.2248 -7.60933e-07 11.2248)
(11.0423 2.6843 -0.153132 11.0423 -1.51139e-06 11.0423)
(11.0422 2.68441 -0.153138 11.0423 -1.75971e-06 11.0422)
(10.8722 2.48533 -0.143339 10.8722 -1.00951e-06 10.8722)
(10.8721 2.48542 -0.143345 10.8721 -7.41113e-07 10.8721)
(10.7151 2.32727 -0.135233 10.7151 -1.48294e-06 10.7151)
(10.715 2.32732 -0.135237 10.715 -1.57439e-06 10.715)
(10.5713 2.21989 -0.129512 10.5713 -1.16498e-06 10.5713)
(10.5711 2.21988 -0.129514 10.5711 -7.13837e-07 10.5711)
(10.4411 2.17119 -0.126797 10.4411 -1.2386e-06 10.4411)
(10.4409 2.17112 -0.126795 10.4409 -1.41921e-06 10.4409)
(10.3245 2.18771 -0.127653 10.3245 -6.55007e-07 10.3245)
(10.3243 2.18757 -0.127646 10.3243 -6.81852e-07 10.3243)
(10.2214 2.27386 -0.132589 10.2214 -1.19886e-06 10.2214)
(10.2211 2.27363 -0.132578 10.2211 -1.53708e-06 10.2211)
(10.1313 2.43139 -0.141967 10.1313 -6.33875e-07 10.1313)
(10.131 2.43106 -0.14195 10.131 -6.50988e-07 10.131)
(10.0537 2.65928 -0.156011 10.0537 -1.19811e-06 10.0537)
(10.0533 2.65883 -0.155987 10.0533 -1.45094e-06 10.0533)
(9.98742 2.95322 -0.17476 9.98742 -6.95223e-07 9.98742)
(9.98706 2.95264 -0.174728 9.98706 -6.28452e-07 9.98706)
(9.9312 3.30498 -0.198022 9.9312 -1.2826e-06 9.9312)
(9.93079 3.30425 -0.19798 9.9308 -1.38641e-06 9.93079)
(9.88319 3.70215 -0.225311 9.88319 -7.46293e-07 9.88319)
(9.88274 3.70125 -0.225259 9.88274 -6.23557e-07 9.88274)
(9.84109 4.12814 -0.255834 9.84109 -1.27783e-06 9.84109)
(9.84059 4.12703 -0.255769 9.8406 -1.35654e-06 9.84059)
(9.80217 4.56205 -0.288465 9.80217 -8.16391e-07 9.80217)
(9.80162 4.56068 -0.288384 9.80162 -6.46449e-07 9.80162)
(9.76331 4.97935 -0.321715 9.76331 -1.30489e-06 9.76331)
(9.76272 4.97763 -0.321612 9.76272 -1.37028e-06 9.76272)
(9.7212 5.35281 -0.353808 9.7212 -9.27876e-07 9.7212)
(9.72057 5.35062 -0.353677 9.72057 -7.04563e-07 9.72057)
(9.67256 5.65383 -0.3827 9.67256 -1.37008e-06 9.67256)
(9.6719 5.65099 -0.382529 9.6719 -1.43091e-06 9.6719)
(9.61449 5.85444 -0.406218 9.61448 -1.07937e-06 9.61449)
(9.61381 5.85074 -0.405992 9.61381 -7.97429e-07 9.61381)
(9.54477 5.92919 -0.422185 9.54477 -1.46779e-06 9.54477)
(9.54411 5.92451 -0.421888 9.54412 -1.53406e-06 9.54411)
(9.46228 5.85704 -0.428571 9.46228 -1.24959e-06 9.46228)
(9.46167 5.85163 -0.428197 9.46167 -9.12051e-07 9.46167)
(9.3672 5.62324 -0.252747 9.3672 -1.57105e-06 9.3672)
(9.36668 5.61836 -0.252954 9.36669 -1.66173e-06 9.36668)
(9.26129 5.22135 -0.0519869 9.26129 -1.40492e-06 9.26129)
(9.2609 5.21997 -0.0522283 9.2609 -1.0204e-06 9.2609)
(9.14765 4.65532 0.135201 9.14765 -1.65514e-06 9.14765)
(9.14741 4.65904 0.134968 9.14741 -1.73999e-06 9.14741)
(9.03049 3.93985 0.272914 9.03049 -1.51876e-06 9.03049)
(9.03035 3.94643 0.27346 9.03035 -1.04273e-06 9.03036)
(8.91458 3.09756 0.206614 8.91458 -1.71255e-06 8.91458)
(8.91451 3.10432 0.207114 8.91451 -1.72873e-06 8.91451)
(8.80479 2.1566 0.131721 8.80479 -1.56729e-06 8.80479)
(8.80475 2.1625 0.132146 8.80475 -1.01706e-06 8.80475)
(8.7053 1.15098 0.0509429 8.7053 -1.68448e-06 8.7053)
(8.70526 1.15598 0.0513149 8.70526 -1.70008e-06 8.70526)
(8.619 0.00192683 7.83131e-05 8.619 -1.54444e-06 8.619)
(8.61894 0.00399746 0.000162471 8.61894 -9.61739e-07 8.61894)
(8.54704 -0.802067 0.0330728 8.54704 -1.59163e-06 8.54704)
(8.54697 -0.793254 0.0327094 8.54698 -1.67887e-06 8.54697)
(8.48883 -1.87264 0.117538 8.48883 -1.51005e-06 8.48883)
(8.48877 -1.86748 0.117141 8.48877 -9.16737e-07 8.48877)
(8.44172 -2.75942 0.198696 8.44172 -1.48794e-06 8.44172)
(8.44168 -2.75342 0.198225 8.44169 -1.70196e-06 8.44168)
(8.40188 -3.53248 0.273545 8.40188 -1.52436e-06 8.40188)
(8.40189 -3.52613 0.272993 8.40189 -9.2574e-07 8.40189)
(8.3647 -4.16923 0.204132 8.3647 -1.38005e-06 8.3647)
(8.36479 -4.16455 0.204335 8.3648 -1.81696e-06 8.3648)
(8.32555 -4.65679 0.00953268 8.32555 -1.57102e-06 8.32555)
(8.32578 -4.65719 0.00976586 8.32578 -1.00488e-06 8.32578)
(8.28031 -4.99306 -0.208755 8.28031 -1.62073e-06 8.28031)
(8.28066 -4.99788 -0.208549 8.28066 -1.94656e-06 8.28066)
(8.22563 -5.18297 -0.444417 8.22563 -1.7537e-06 8.22563)
(8.22607 -5.18839 -0.444257 8.22607 -1.05454e-06 8.22607)
(8.15922 -5.23696 -0.485445 8.15922 -1.90176e-06 8.15922)
(8.1597 -5.24142 -0.485799 8.15971 -2.00615e-06 8.1597)
(8.08007 -5.17083 -0.481212 8.08007 -1.95702e-06 8.08007)
(8.08056 -5.1741 -0.481467 8.08056 -1.1232e-06 8.08056)
(7.98831 -5.00417 -0.468175 7.98831 -2.17231e-06 7.98831)
(7.98879 -5.00649 -0.46836 7.9888 -2.08448e-06 7.98879)
(7.88501 -4.75845 -0.447981 7.88501 -2.16033e-06 7.88501)
(7.88546 -4.76012 -0.448119 7.88546 -1.18252e-06 7.88546)
(7.77191 -4.45376 -0.422193 7.77191 -2.42607e-06 7.77191)
(7.77232 -4.45499 -0.422299 7.77233 -2.15895e-06 7.77232)
(7.65119 -4.10884 -0.392419 7.65119 -2.35006e-06 7.65119)
(7.65157 -4.10979 -0.392502 7.65157 -1.21445e-06 7.65157)
(7.52527 -3.74034 -0.360008 7.52527 -2.63676e-06 7.52527)
(7.5256 -3.74108 -0.360076 7.52561 -2.18855e-06 7.52561)
(7.3966 -3.36136 -0.326043 7.3966 -2.45931e-06 7.3966)
(7.3969 -3.36196 -0.326098 7.3969 -1.20972e-06 7.3969)
(7.26754 -2.98231 -0.291472 7.26754 -2.78933e-06 7.26754)
(7.2678 -2.9828 -0.291518 7.26781 -2.21516e-06 7.2678)
(7.14027 -2.61096 -0.256943 7.14027 -2.47069e-06 7.14027)
(7.1405 -2.61135 -0.256981 7.1405 -1.16716e-06 7.1405)
(7.01673 -2.25183 -0.222817 7.01673 -2.87988e-06 7.01673)
(7.01693 -2.25216 -0.222849 7.01694 -2.24899e-06 7.01693)
(6.89861 -1.90701 -0.189259 6.89861 -2.43655e-06 6.89861)
(6.89878 -1.90729 -0.189288 6.89878 -1.09026e-06 6.89878)
(6.78732 -1.57635 -0.156176 6.78732 -2.91141e-06 6.78732)
(6.78746 -1.57659 -0.156201 6.78747 -2.24173e-06 6.78747)
(6.68405 -1.25758 -0.123256 6.68405 -2.3144e-06 6.68405)
(6.68417 -1.25779 -0.123279 6.68417 -9.86167e-07 6.68418)
(6.58974 -0.946652 -0.0899749 6.58974 -2.89156e-06 6.58974)
(6.58984 -0.946841 -0.0899955 6.58985 -6.46372e-06 6.58984)
(6.50513 -0.638028 -0.055632 6.50513 -2.15963e-06 6.50513)
(6.50521 -0.638204 -0.0556518 6.50521 -9.71323e-06 6.50521)
(6.43073 -0.325133 -0.0193867 6.43073 -2.8312e-06 6.43073)
(6.43079 -0.325303 -0.0194064 6.4308 -1.16438e-05 6.43079)
(6.36686 -0.00128965 -8.65511e-05 6.36686 -2.08021e-06 6.36686)
(6.36691 -0.00146068 -8.64399e-05 6.36691 -9.9396e-06 6.36691)
(6.31363 0.32982 -0.0197946 6.31363 -2.74626e-06 6.31363)
(6.31365 0.329474 -0.0197738 6.31366 -1.09204e-05 6.31365)
(6.27084 0.702134 -0.0627744 6.27084 -1.95695e-06 6.27084)
(6.27086 0.701943 -0.0627522 6.27086 -8.79199e-06 6.27086)
(6.238 1.08915 -0.109972 6.238 -2.66087e-06 6.238)
(6.238 1.08894 -0.109948 6.23801 -9.60724e-06 6.238)
(6.2142 1.50008 -0.161682 6.2142 -1.78169e-06 6.2142)
(6.21419 1.49985 -0.161654 6.21419 -7.34739e-06 6.21419)
(6.19808 1.93099 -0.217789 6.19808 -3.7036e-06 6.19808)
(6.19805 1.93073 -0.217758 6.19807 -8.37378e-06 6.19805)
(6.18777 2.37414 -0.277691 6.18778 -4.19447e-06 6.18777)
(6.18774 2.37385 -0.277656 6.18774 -6.28927e-06 6.18774)
(6.18087 2.81783 -0.340229 6.18087 -6.07953e-06 6.18087)
(6.18081 2.8175 -0.340189 6.18083 -7.89575e-06 6.18081)
(6.17447 3.24666 -0.403623 6.17447 -4.97011e-06 6.17447)
(6.17441 3.24629 -0.403576 6.17441 -6.17685e-06 6.17441)
(6.1653 3.64212 -0.465558 6.1653 -6.53522e-06 6.1653)
(6.16523 3.6417 -0.465505 6.16524 -8.60024e-06 6.16523)
(6.14992 3.98352 -0.523175 6.14993 -5.66621e-06 6.14992)
(6.14984 3.98304 -0.523113 6.14984 -7.16979e-06 6.14984)
(6.12497 4.24948 -0.573292 6.12497 -7.90762e-06 6.12497)
(6.12487 4.24893 -0.57322 6.12489 -1.03159e-05 6.12487)
(6.08751 4.419 -0.612549 6.08751 -7.07418e-06 6.08751)
(6.08741 4.41835 -0.612465 6.08741 -8.83193e-06 6.08741)
(6.03537 4.47341 -0.637557 6.03537 -9.59758e-06 6.03537)
(6.03526 4.47264 -0.637457 6.03527 -1.232e-05 6.03526)
(5.96748 4.39814 -0.645308 5.96748 -8.40974e-06 5.96748)
(5.96737 4.39722 -0.645186 5.96737 -1.03518e-05 5.96737)
(5.88411 4.18458 -0.633297 5.88411 -1.07159e-05 5.88411)
(5.88401 4.18349 -0.63315 5.88402 -1.37029e-05 5.88401)
(5.78696 3.83158 -0.600004 5.78696 -8.81443e-06 5.78696)
(5.78687 3.83038 -0.59983 5.78687 -1.09014e-05 5.78687)
(5.67904 3.34631 -0.544944 5.67904 -1.06078e-05 5.67904)
(5.67896 3.34523 -0.54476 5.67897 -1.38487e-05 5.67896)
(5.56435 2.74595 -0.316027 5.56436 -7.5003e-06 5.56435)
(5.5643 2.7455 -0.316082 5.5643 -9.99388e-06 5.5643)
(5.44754 2.05619 -0.130208 5.44754 -9.06091e-06 5.44754)
(5.44751 2.05707 -0.130258 5.44752 -1.04533e-05 5.44751)
(5.33285 1.31007 0.00218213 5.33285 -8.25766e-06 5.33285)
(5.33285 1.31276 0.00214572 5.33285 -7.90212e-06 5.33285)
(5.22358 0.330951 0.026511 5.22358 -6.6385e-06 5.22358)
(5.22358 0.339526 0.0271979 5.2236 -4.55503e-06 5.22358)
(5.1219 -0.00356996 0.000290132 5.12191 -9.40118e-06 5.1219)
(5.12191 -1.3681e-16 2.50845e-21 5.12191 -5.39095e-06 5.12191)
(5.02791 -0.867012 0.0458571 5.02791 -4.24728e-06 5.02791)
(5.02791 -0.864025 0.0458676 5.02793 1.74102e-06 5.02791)
(4.94042 -1.44039 -0.0523711 4.94043 -1.15036e-05 4.94042)
(4.94045 -1.43913 -0.0523544 4.94045 -3.42286e-06 4.94045)
(4.85739 -1.8848 -0.196502 4.85739 -2.91058e-06 4.85739)
(4.85742 -1.88502 -0.196484 4.85743 7.62619e-06 4.85741)
(4.77636 -2.18167 -0.376165 4.77636 -1.54815e-05 4.77636)
(4.77641 -2.18265 -0.37615 4.77641 -2.63215e-06 4.77641)
(4.69513 -2.32344 -0.412633 4.69513 -2.72427e-06 4.69513)
(4.69518 -2.32459 -0.412831 4.6952 1.299e-05 4.69518)
(4.61242 -2.3146 -0.404119 4.61243 -2.12313e-05 4.61242)
(4.61248 -2.31564 -0.404288 4.61248 -2.90905e-06 4.61248)
(4.52802 -2.17126 -0.372938 4.52802 -3.36833e-06 4.52802)
(4.52807 -2.17212 -0.373076 4.52809 1.82492e-05 4.52807)
(4.44269 -1.91817 -0.32325 4.4427 -2.83418e-05 4.44269)
(4.44275 -1.91886 -0.323363 4.44275 -3.66699e-06 4.44275)
(4.35788 -1.58639 -0.260574 4.35788 -4.14893e-06 4.35788)
(4.35792 -1.58695 -0.260667 4.35794 2.42928e-05 4.35792)
(4.27529 -1.20993 -0.190813 4.2753 -3.64441e-05 4.27529)
(4.27533 -1.21038 -0.190889 4.27533 -4.35831e-06 4.27533)
(4.19653 -0.821652 -0.119778 4.19653 -4.55702e-06 4.19653)
(4.19656 -0.822019 -0.11984 4.19658 3.17925e-05 4.19656)
(4.12279 -0.451487 -0.0529364 4.1228 -4.524e-05 4.12279)
(4.12282 -0.451783 -0.0529872 4.12282 -4.56306e-06 4.12282)
(4.05478 -8.85328e-15 -0 4.05478 -4.62434e-06 4.05478)
(4.0548 -0.000193809 -1.90025e-05 4.05482 4.09885e-05 4.05479)
(3.99274 0.0507217 -0.00504545 3.99275 -5.53158e-05 3.99274)
(3.99276 0.0503209 -0.00500558 3.99276 -4.54374e-06 3.99276)
(3.93658 0.327393 -0.0511629 3.93658 -4.53307e-06 3.93657)
(3.93658 0.327282 -0.0511344 3.93661 5.20131e-05 3.93658)
(3.88601 0.436123 -0.0824277 3.88602 -6.71673e-05 3.88601)
(3.88603 0.436069 -0.0824109 3.88603 -4.51735e-06 3.88603)
(3.84081 0.466794 -0.097814 3.84081 -4.57561e-06 3.84081)
(3.84081 0.466796 -0.0978089 3.84084 6.48576e-05 3.84081)
(3.80081 0.426561 -0.0977443 3.80083 -8.13547e-05 3.80081)
(3.80082 0.426614 -0.0977506 3.80082 -4.74249e-06 3.80083)
(3.76598 0.326035 -0.0834105 3.76598 -5.01159e-06 3.76598)
(3.76598 0.326131 -0.0834271 3.76601 7.95888e-05 3.76598)
(3.73632 0.179501 -0.0568698 3.73634 -9.83787e-05 3.73632)
(3.73633 0.179626 -0.0568947 3.73633 -5.23506e-06 3.73633)
(3.71187 0.00079153 -0.0211602 3.71187 -5.56351e-06 3.71187)
(3.71187 0.000801341 -0.0211902 3.71189 9.69834e-05 3.71186)
(3.69255 -0.184248 -0.0639999 3.69256 -0.000118558 3.69255)
(3.69256 -0.183963 -0.0639704 3.69256 -5.87347e-06 3.69256)