/*--------------------------------*- C++ -*----------------------------------*\
| =========                 |                                                 |
| \\      /  F ield         | OpenFOAM: The Open Source CFD Toolbox           |
|  \\    /   O peration     | Version:  2106                                  |
|   \\  /    A nd           | Website:  www.openfoam.com                      |
|    \\/     M anipulation  |                                                 |
\*---------------------------------------------------------------------------*/
FoamFile
{
    version     2.0;
    format      ascii;
    arch        "LSB;label=32;scalar=64";
    class       volTensorField;
    location    "8000";
    object      grad(U);
}
// * * * * * * * * * * * * * * * * * * * * * * * * * * * * * * * * * * * * * //

dimensions      [0 0 -1 0 0 0 0];

internalField   nonuniform List<tensor> 
2560
(
(0 4.15781e-30 1.29932e-31 48.6199 -1.31913e-11 -5.04901e-13 0.0703829 -9.5393e-15 -2.19707e-16)
(0 -7.30978e-28 -6.49658e-32 48.6199 0 -6.65814e-18 0.0703829 -1.82745e-28 1.7322e-16)
(0 -9.04138e-25 -2.36461e-26 48.6137 4.37069e-32 -6.67705e-14 0.212155 0 -1.96115e-16)
(0 -8.19643e-30 -2.56139e-31 48.6137 -8.5811e-15 -5.26026e-18 0.212155 -1.91289e-17 4.82121e-16)
(-8.9093e-18 -4.49861e-30 -1.40566e-31 48.6072 2.14106e-12 -3.26868e-14 0.291771 -1.16117e-14 -1.93474e-16)
(0 1.61579e-29 5.04935e-31 48.6072 -5.16452e-15 -1.01702e-17 0.291771 -2.27418e-17 4.96325e-16)
(2.85722e-17 -1.47217e-29 -6.11117e-31 48.6002 7.5389e-13 -3.3481e-14 0.29597 -1.39252e-14 -2.11533e-16)
(0 1.19448e-29 4.97698e-31 48.6002 -7.75997e-15 6.54271e-18 0.29597 -3.59167e-17 5.11087e-16)
(2.76163e-16 -8.48103e-27 -7.35847e-31 48.5928 -2.91464e-13 -3.55153e-14 0.300226 -8.93961e-16 -2.24282e-16)
(0 2.35471e-29 4.90565e-31 48.5928 -7.80232e-15 9.65437e-18 0.300226 -4.95421e-17 5.26389e-16)
(2.04855e-16 -1.03118e-27 -3.62676e-31 48.5849 -8.10326e-14 -3.66883e-14 0.30454 -2.52153e-16 -2.32436e-16)
(4.13915e-16 7.73654e-30 2.41767e-31 48.5849 -7.8489e-15 1.10283e-17 0.30454 -6.34783e-17 5.42247e-16)
(4.48747e-17 -7.07342e-28 1.25693e-31 48.5763 -1.5591e-27 -3.73851e-14 0.308912 0 -2.39715e-16)
(2.22957e-16 1.52513e-29 2.38302e-31 48.5763 -7.95287e-15 1.2965e-17 0.308912 -7.79391e-17 5.58677e-16)
(-1.10098e-16 1.24314e-29 3.65502e-31 48.567 1.21901e-14 -3.80017e-14 0.31334 -5.11858e-17 -2.47201e-16)
(3.08162e-16 0 0 48.567 -7.98094e-15 1.68608e-17 0.31334 -9.22885e-17 5.75704e-16)
(3.91886e-16 -1.23133e-29 -5.98727e-31 48.5564 1.52268e-14 -3.86268e-14 0.317823 -1.0538e-16 -2.54922e-16)
(0 1.48173e-29 4.63039e-31 48.5564 -8.05106e-15 1.89795e-17 0.317823 -1.0737e-16 5.9335e-16)
(0 2.19073e-29 6.84604e-31 48.5442 1.36963e-14 -3.92533e-14 0.322357 -9.24429e-17 -2.62763e-16)
(0 -7.30244e-30 -4.56403e-31 48.5442 -8.1844e-15 1.924e-17 0.322357 -1.22823e-16 6.11624e-16)
(-1.74375e-16 -1.66908e-29 -9.78279e-31 48.5297 1.33852e-14 -3.98683e-14 0.326937 -8.81375e-17 -2.70677e-16)
(0 2.87911e-29 1.34958e-30 48.5297 -8.24876e-15 2.24412e-17 0.326937 -1.38436e-16 6.3053e-16)
(1.96419e-16 -4.0373e-29 -2.14737e-30 48.5119 1.37968e-14 -4.0463e-14 0.331556 -9.0958e-17 -2.78591e-16)
(0 3.54731e-29 1.77365e-30 48.5119 -8.42097e-15 2.55762e-17 0.331556 -1.54802e-16 6.50104e-16)
(2.46042e-16 -6.99293e-30 -6.55588e-31 48.4895 1.40925e-14 -4.10267e-14 0.336204 -9.63474e-17 -2.86426e-16)
(0 1.39859e-29 1.09265e-30 48.4895 -8.58813e-15 2.56345e-17 0.336204 -1.71892e-16 6.70319e-16)
(-2.41462e-16 1.86795e-29 5.94714e-31 48.461 1.41849e-14 -4.1547e-14 0.340868 -9.77232e-17 -2.94073e-16)
(9.65849e-16 0 0 48.461 -8.56423e-15 2.70386e-17 0.340868 -1.89542e-16 6.91177e-16)
(0 4.07635e-29 2.1231e-30 48.4243 1.44203e-14 -4.20077e-14 0.345528 -1.00471e-16 -3.01394e-16)
(0 -4.07635e-29 -2.1231e-30 48.4243 -8.54414e-15 2.68861e-17 0.345528 -2.07578e-16 7.12675e-16)
(-2.878e-16 1.15845e-29 1.76772e-31 48.3767 1.45775e-14 -4.23897e-14 0.350164 -1.03947e-16 -3.0822e-16)
(1.1512e-15 -6.69654e-30 0 48.3767 -8.76335e-15 2.92715e-17 0.350164 -2.2568e-16 7.34766e-16)
(0 3.96034e-29 1.65014e-30 48.3152 1.46467e-14 -4.26724e-14 0.354746 -1.0569e-16 -3.14379e-16)
(-1.24585e-15 -3.96034e-29 -1.65014e-30 48.3152 -9.26769e-15 3.56545e-17 0.354746 -2.43642e-16 7.57433e-16)
(-4.57816e-16 3.25298e-29 2.43974e-30 48.236 1.45461e-14 -4.28312e-14 0.35924 -1.08009e-16 -3.19616e-16)
(-8.83999e-16 -3.25298e-29 -2.43974e-30 48.236 -9.21585e-15 4.23759e-17 0.35924 -2.63294e-16 7.80639e-16)
(4.51255e-16 -1.92381e-29 -1.20238e-30 48.1347 1.46382e-14 -4.28393e-14 0.363606 -1.07287e-16 -3.23711e-16)
(0 1.92381e-29 1.20238e-30 48.1347 -8.99027e-15 4.77535e-17 0.363606 -2.82772e-16 8.04315e-16)
(-5.0515e-16 1.40866e-29 5.78735e-31 48.0064 1.52877e-14 -4.0017e-14 0.367794 -1.12566e-16 -2.85668e-16)
(-6.48122e-16 -3.1604e-29 -1.5802e-30 48.0064 -9.32629e-15 4.40014e-17 0.367794 -3.03963e-16 8.28328e-16)
(0 2.49208e-29 1.55755e-30 47.8455 1.55803e-14 -3.68729e-14 0.371753 -1.20396e-16 -2.84243e-16)
(0 -2.49208e-29 -1.55755e-30 47.8455 -9.50495e-15 3.78666e-17 0.371753 -3.26251e-16 8.5252e-16)
(-4.34682e-16 -7.41322e-30 2.25189e-31 47.6463 1.54203e-14 -3.61025e-14 0.375421 -1.2042e-16 -2.81867e-16)
(0 1.84227e-29 3.83807e-31 47.6463 -9.45596e-15 4.47542e-17 0.375421 -3.47974e-16 8.76786e-16)
(-3.43375e-17 -4.35579e-29 -3.17247e-30 47.4023 1.54724e-14 -3.51779e-14 0.378734 -1.21395e-16 -2.77753e-16)
(0 4.84232e-29 2.64814e-30 47.4023 -9.51337e-15 5.76104e-17 0.378734 -3.70234e-16 9.00995e-16)
(0 1.78984e-29 1.49154e-30 47.1075 1.59933e-14 -3.40135e-14 0.381624 -1.24782e-16 -2.71194e-16)
(-1.94461e-15 -2.38646e-29 -2.23731e-30 47.1075 -9.75998e-15 5.79476e-17 0.381624 -3.93742e-16 9.24956e-16)
(5.12299e-16 3.04265e-29 1.95815e-30 46.7556 1.66101e-14 -3.25635e-14 0.384025 -1.3342e-16 -2.61973e-16)
(0 -3.52838e-29 -2.20524e-30 46.7556 -1.01478e-14 5.34415e-17 0.384025 -4.17655e-16 9.48471e-16)
(-1.07738e-15 5.0281e-29 4.13206e-30 46.3414 1.7034e-14 -3.08414e-14 0.385871 -1.3861e-16 -2.50319e-16)
(0 -4.05745e-29 -3.62272e-30 46.3414 -1.03451e-14 4.78511e-17 0.385871 -4.41079e-16 9.71344e-16)
(1.69588e-15 -5.45403e-29 -4.71458e-30 45.8601 1.70977e-14 -2.88847e-14 0.387104 -1.44423e-16 -2.36428e-16)
(4.52235e-15 4.57062e-29 4.64204e-30 45.8601 -1.00874e-14 3.98624e-17 0.387104 -4.65721e-16 9.93306e-16)
(0 -2.81569e-29 -2.11177e-30 45.3084 1.65245e-14 -2.6721e-14 0.387672 -1.43752e-16 -2.20383e-16)
(2.3683e-15 3.37883e-29 2.46373e-30 45.3084 -9.76552e-15 3.83643e-17 0.387672 -4.90198e-16 1.0142e-15)
(6.18994e-16 1.18091e-29 7.63674e-31 44.6844 1.61164e-14 -2.43741e-14 0.387539 -1.38781e-16 -2.02343e-16)
(0 -5.55068e-30 -3.46917e-31 44.6844 -9.8565e-15 5.11049e-17 0.387539 -5.15401e-16 1.03384e-15)
(-1.29201e-15 9.67843e-30 9.10305e-31 43.9878 1.62372e-14 -2.18832e-14 0.386679 -1.4083e-16 -1.82679e-16)
(-5.16804e-15 0 -3.41945e-31 43.9878 -1.01013e-14 7.39004e-17 0.386679 -5.43273e-16 1.05213e-15)
(-6.73057e-16 1.56205e-29 9.65031e-31 43.2203 1.63985e-14 -1.92999e-14 0.385086 -1.44989e-16 -1.61805e-16)
(-2.69223e-15 -5.39271e-30 0 43.2203 -1.02655e-14 7.71473e-17 0.385086 -5.70818e-16 1.06896e-15)
(0 3.18925e-29 2.65771e-30 42.3852 1.65083e-14 -1.66947e-14 0.382767 -1.47856e-16 -1.4049e-16)
(-2.8004e-15 -3.18925e-29 -2.65771e-30 42.3852 -1.00951e-14 5.24888e-17 0.382767 -5.97182e-16 1.08408e-15)
(0 -3.14354e-29 -2.61962e-30 41.4876 1.67858e-14 -1.4132e-14 0.379749 -1.51241e-16 -1.19099e-16)
(2.90831e-15 3.14354e-29 2.61962e-30 41.4876 -9.89386e-15 2.48939e-17 0.379749 -6.25243e-16 1.09738e-15)
(-7.53939e-16 9.98598e-30 3.08118e-31 40.534 1.67279e-14 -1.16531e-14 0.376069 -1.57325e-16 -9.80456e-17)
(0 5.16414e-30 0 40.534 -9.86931e-15 2.30219e-17 0.376069 -6.55795e-16 1.10892e-15)
(-2.21337e-15 3.5359e-29 2.85768e-30 39.5322 1.5975e-14 -9.30331e-15 0.371782 -1.54583e-16 -7.78112e-17)
(1.43274e-15 -3.05408e-29 -2.54506e-30 39.5322 -9.54651e-15 4.48593e-17 0.371782 -6.81342e-16 1.11892e-15)
(-8.07097e-16 2.48842e-29 2.19796e-30 38.4906 1.56482e-14 -7.0945e-15 0.366948 -1.47587e-16 -5.82148e-17)
(-3.22839e-15 -1.00343e-29 -1.25429e-30 38.4906 -9.54939e-15 5.18738e-17 0.366948 -7.05897e-16 1.12738e-15)
(8.33297e-16 -2.45919e-29 -1.55593e-30 37.418 1.59224e-14 -5.09865e-15 0.361635 -1.52792e-16 -4.09438e-17)
(0 1.9781e-29 1.23632e-30 37.418 -1.00695e-14 3.5082e-17 0.361635 -7.32146e-16 1.13432e-15)
(8.59184e-16 -2.43036e-29 -2.14997e-30 36.3235 1.62757e-14 -3.34774e-15 0.355917 -1.57288e-16 -2.50784e-17)
(0 1.94975e-29 1.82789e-30 36.3235 -1.064e-14 2.26704e-17 0.355917 -7.62713e-16 1.13986e-15)
(-8.8472e-16 2.40186e-29 1.52504e-30 35.2158 1.61159e-14 -1.80474e-15 0.349866 -1.64298e-16 -1.09921e-17)
(0 -9.60904e-30 -6.00565e-31 35.2158 -1.01855e-14 3.56242e-17 0.349866 -7.9732e-16 1.14435e-15)
(0 2.36783e-29 -3.7742e-29 34.1032 1.47753e-14 -6.39963e-29 0.343553 -1.5867e-16 0)
(0 -3.31496e-29 -2.95979e-30 34.1032 -8.43439e-15 4.69567e-17 0.343553 -8.24861e-16 1.14792e-15)
(-9.34615e-16 1.87989e-29 -2.0723e-29 32.993 1.38472e-14 2.17286e-16 0.337046 -1.41653e-16 -1.12065e-18)
(2.42459e-15 -4.66779e-30 5.83473e-31 32.993 -7.01369e-15 3.33528e-17 0.337046 -8.47851e-16 1.15053e-15)
(0 -3.22062e-29 -2.87555e-30 31.8921 1.34421e-14 1.48545e-15 0.330408 -1.44032e-16 -1.15052e-17)
(3.83569e-15 3.22062e-29 2.87555e-30 31.8921 -7.3944e-15 3.35604e-17 0.330408 -8.72707e-16 1.1523e-15)
(9.82782e-16 1.33512e-29 1.38144e-30 30.8063 1.29378e-14 2.16315e-15 0.323695 -1.37261e-16 -1.96441e-17)
(-3.93113e-15 -2.72097e-29 -2.26747e-30 30.8063 -8.18058e-15 6.19524e-17 0.323695 -9.02777e-16 1.15358e-15)
(1.00618e-15 -2.26651e-29 -1.43434e-30 29.7404 1.26418e-14 2.66036e-15 0.316957 -1.37466e-16 -2.63374e-17)
(0 1.78798e-29 1.11749e-30 29.7404 -7.48475e-15 7.71036e-17 0.316957 -9.30532e-16 1.15464e-15)
(-1.0291e-15 3.76422e-31 -2.36039e-31 28.6985 1.2485e-14 2.99668e-15 0.310239 -1.34859e-16 -3.10087e-17)
(0 1.32176e-29 5.50735e-31 28.6985 -7.23786e-15 3.70025e-17 0.310239 -9.57023e-16 1.15527e-15)
(1.05156e-15 1.25924e-29 2.3022e-31 27.6837 1.29194e-14 3.22345e-15 0.303576 -1.38041e-16 -3.45131e-17)
(2.98385e-15 -8.68546e-30 -5.42841e-31 27.6837 -7.46893e-15 5.06458e-18 0.303576 -9.79751e-16 1.15557e-15)
(0 -1.28415e-29 -1.07012e-30 26.6985 1.28035e-14 3.30536e-15 0.297001 -1.48512e-16 -3.69821e-17)
(4.29413e-15 1.7122e-29 1.07012e-30 26.6985 -7.33357e-15 1.92083e-17 0.297001 -1.0018e-15 1.15602e-15)
(-1.09504e-15 8.99045e-30 8.3635e-31 25.7445 1.23706e-14 3.28128e-15 0.290539 -1.39458e-16 -3.73802e-17)
(0 4.21914e-30 0 25.7445 -7.6581e-15 2.70555e-17 0.290539 -1.02775e-15 1.15657e-15)
(-1.11608e-15 4.76732e-30 -2.12509e-31 24.8231 1.25402e-14 3.2192e-15 0.284209 -1.42911e-16 -3.75118e-17)
(0 8.31733e-30 1.03967e-30 24.8231 -7.80649e-15 1.39173e-17 0.284209 -1.05488e-15 1.15748e-15)
(0 -1.63963e-29 -1.02477e-30 23.9347 1.2746e-14 3.06142e-15 0.278029 -1.47499e-16 -3.70272e-17)
(0 1.63963e-29 1.02477e-30 23.9347 -7.35133e-15 2.12437e-17 0.278029 -1.07933e-15 1.15865e-15)
(-1.95359e-17 7.17783e-31 3.04559e-31 23.0797 1.28087e-14 2.82621e-15 0.272008 -1.51966e-16 -3.4877e-17)
(-1.13725e-15 1.61613e-29 5.05039e-31 23.0797 -7.48218e-15 4.27991e-17 0.272008 -1.10324e-15 1.16036e-15)
(-1.12095e-15 3.58416e-29 3.4846e-30 22.2579 1.25384e-14 2.57134e-15 0.266157 -1.53326e-16 -3.24651e-17)
(-4.70588e-15 -3.18592e-29 -3.4846e-30 22.2579 -7.81718e-15 3.22727e-17 0.266157 -1.13201e-15 1.16247e-15)
(-1.19573e-15 -1.88006e-29 -2.15089e-30 21.469 1.25219e-14 2.28587e-15 0.26048 -1.49835e-16 -2.96911e-17)
(4.7829e-15 2.74773e-29 2.94399e-30 21.469 -7.42071e-15 2.11167e-17 0.26048 -1.16245e-15 1.16499e-15)
(-1.08905e-15 3.09525e-29 2.9018e-30 20.7122 1.22586e-14 1.9679e-15 0.254982 -1.57408e-16 -2.63621e-17)
(1.08905e-15 -3.09525e-29 -2.9018e-30 20.7122 -7.2429e-15 1.44256e-17 0.254982 -1.18939e-15 1.1681e-15)
(-1.23299e-15 1.99984e-29 1.25436e-30 19.9868 1.1767e-14 1.63356e-15 0.249662 -1.47622e-16 -2.25895e-17)
(4.93198e-15 -1.52545e-29 -9.53403e-31 19.9868 -6.76062e-15 2.79407e-18 0.249662 -1.21021e-15 1.17173e-15)
(3.56011e-15 -2.45155e-29 -1.54058e-30 19.2919 1.14151e-14 1.30818e-15 0.24452 -1.49518e-16 -1.86305e-17)
(3.94607e-15 1.50358e-29 9.39738e-31 19.2919 -6.63596e-15 3.69622e-17 0.24452 -1.23453e-15 1.17587e-15)
(1.04289e-15 -7.41016e-30 -1.3894e-30 18.6265 9.90885e-15 9.35905e-16 0.239555 -1.42866e-16 -1.4855e-17)
(0 1.48203e-29 1.3894e-30 18.6265 -6.89876e-15 8.60841e-17 0.239555 -1.26466e-15 1.18095e-15)
(7.69905e-16 -9.87026e-30 2.99886e-31 17.9896 8.46824e-15 5.22224e-16 0.234765 -1.14464e-16 -9.43036e-18)
(-2.05588e-15 2.19119e-29 4.56497e-31 17.9896 -6.01801e-15 5.44255e-17 0.234765 -1.29187e-15 1.18649e-15)
(-2.60581e-15 3.10699e-29 1.49964e-30 17.3799 8.17574e-15 1.68091e-16 0.230144 -1.08788e-16 -4.3028e-18)
(5.21162e-15 -2.87971e-29 -1.79982e-30 17.3799 -5.36617e-15 2.82303e-17 0.230144 -1.31203e-15 1.19213e-15)
(-1.31949e-15 4.73406e-30 2.99156e-31 16.7964 7.88173e-15 -1.86466e-16 0.22569 -1.09935e-16 -5.26404e-18)
(0 7.09608e-30 4.43505e-31 16.7964 -4.87167e-15 3.93547e-17 0.22569 -1.33084e-15 1.19879e-15)
(-1.33575e-15 -9.25638e-30 2.98021e-31 16.2379 7.54493e-15 -5.6765e-16 0.221397 -1.03937e-16 -1.04035e-17)
(5.343e-15 2.09831e-29 4.37149e-31 16.2379 -4.0392e-15 6.4253e-17 0.221397 -1.35229e-15 1.20585e-15)
(-1.35169e-15 1.85178e-29 1.15872e-30 15.7034 7.73618e-15 -9.35135e-16 0.217261 -1.03814e-16 -1.57589e-17)
(0 -6.89413e-30 -4.30883e-31 15.7034 -5.48813e-15 9.02402e-17 0.217261 -1.36937e-15 1.21345e-15)
(-2.73463e-15 3.66314e-29 1.86627e-30 15.1918 8.12252e-15 -1.27814e-15 0.213276 -1.12364e-16 -2.05003e-17)
(-5.46926e-15 -2.71813e-29 -1.27412e-30 15.1918 -5.97403e-15 4.67253e-17 0.213276 -1.39634e-15 1.22115e-15)
(-2.76529e-15 -1.73501e-29 -1.92132e-30 14.7019 9.24174e-15 -1.61825e-15 0.209437 -1.17885e-16 -2.60713e-17)
(1.10612e-14 2.00938e-29 1.67448e-30 14.7019 -4.56668e-15 3.34012e-17 0.209437 -1.41634e-15 1.22937e-15)
(-4.19308e-15 4.71489e-29 3.77203e-30 14.2328 1.01578e-14 -1.94245e-15 0.205739 -1.48071e-16 -3.06272e-17)
(-5.59077e-15 -3.30096e-29 -2.88834e-30 14.2328 -5.07859e-15 5.32995e-17 0.205739 -1.43298e-15 1.23825e-15)
(-1.41246e-15 -2.1319e-29 -2.1463e-30 13.7834 9.10929e-15 -2.25359e-15 0.202176 -1.48256e-16 -3.61106e-17)
(5.64985e-15 3.25365e-29 2.84695e-30 13.7834 -5.4888e-15 4.57911e-17 0.202176 -1.45982e-15 1.24737e-15)
(1.42697e-15 -2.39536e-29 -1.8971e-30 13.3528 8.18405e-15 -2.56376e-15 0.198743 -1.21151e-16 -4.09056e-17)
(0 1.92421e-29 1.60351e-30 13.3528 -5.68547e-15 2.85484e-17 0.198743 -1.4816e-15 1.25735e-15)
(0 -3.79326e-29 -2.37079e-30 12.9401 8.22923e-15 -2.80843e-15 0.195434 -1.24615e-16 -4.46758e-17)
(5.76487e-15 3.79326e-29 2.37079e-30 12.9401 -5.70589e-15 -1.66131e-17 0.195434 -1.50337e-15 1.26737e-15)
(0 -1.2463e-29 -1.55787e-30 12.5444 8.65646e-15 -3.15167e-15 0.192246 -1.26086e-16 -5.27896e-17)
(5.82088e-15 1.86945e-29 1.55787e-30 12.5444 -5.08925e-15 -3.07968e-17 0.192246 -1.53096e-15 1.27801e-15)
(-1.72887e-15 1.84265e-29 1.53555e-30 12.1649 9.50912e-15 -3.45852e-15 0.189172 -1.41565e-16 -5.56759e-17)
(4.14708e-15 -6.14218e-30 -3.83886e-31 12.1649 -5.02888e-15 1.06082e-17 0.189172 -1.55782e-15 1.28973e-15)
(0 3.02707e-29 3.40546e-30 11.8007 8.87648e-15 -3.64916e-15 0.186208 -1.5671e-16 -6.04445e-17)
(0 -3.02707e-29 -3.40546e-30 11.8007 -5.4294e-15 4.81553e-17 0.186208 -1.58224e-15 1.3021e-15)
(-2.99169e-15 9.38688e-30 2.13476e-31 11.4512 7.87128e-15 -3.91369e-15 0.183349 -1.25441e-16 -6.59067e-17)
(0 0 3.72961e-31 11.4512 -5.51427e-15 1.21261e-17 0.183349 -1.60912e-15 1.31514e-15)
(0 -2.94092e-29 -3.30854e-30 11.1155 8.45842e-15 -4.17118e-15 0.180592 -1.28622e-16 -7.07075e-17)
(6.03579e-15 2.94092e-29 3.30854e-30 11.1155 -4.87865e-15 -3.50598e-17 0.180592 -1.63478e-15 1.32844e-15)
(0 1.15951e-29 3.62347e-31 10.793 8.36031e-15 -4.39265e-15 0.177931 -1.4848e-16 -7.5248e-17)
(4.45553e-15 -5.79755e-30 0 10.793 -4.86675e-15 -4.08812e-17 0.177931 -1.65767e-15 1.3425e-15)
(-1.53455e-15 4.68113e-30 1.00861e-30 10.4831 8.33441e-15 -4.62738e-15 0.175362 -1.29107e-16 -8.07473e-17)
(0 5.71445e-30 0 10.4831 -6.22055e-15 -3.75111e-17 0.175362 -1.68401e-15 1.35717e-15)
(-3.83587e-17 1.22238e-29 -2.9511e-31 10.1852 9.24374e-15 -4.81824e-15 0.172882 -1.51951e-16 -8.40258e-17)
(0 -1.12651e-29 0 10.1852 -6.41361e-15 6.9475e-18 0.172882 -1.72668e-15 1.37313e-15)
(0 -1.11036e-29 -6.93978e-31 9.89865 8.28735e-15 -4.97127e-15 0.170486 -1.64208e-16 -8.84597e-17)
(0 1.66555e-29 6.93978e-31 9.89865 -4.90449e-15 4.3334e-17 0.170486 -1.75905e-15 1.39025e-15)
(3.0806e-15 -1.64168e-29 -1.36806e-30 9.62293 6.8287e-15 -5.17057e-15 0.168171 -1.22983e-16 -9.35527e-17)
(-3.0806e-15 1.64168e-29 2.05209e-30 9.62293 -4.86459e-15 8.90068e-19 0.168171 -1.7853e-15 1.4078e-15)
(-1.64882e-15 -6.84725e-30 -7.54145e-31 9.35753 7.14509e-15 -5.41872e-15 0.165934 -1.17308e-16 -9.9976e-17)
(0 1.61815e-29 2.02268e-30 9.35753 -5.66024e-15 -6.98303e-17 0.165934 -1.8193e-15 1.42586e-15)
(-1.59534e-15 2.06093e-29 1.62745e-30 9.10195 8.167e-15 -5.61409e-15 0.163772 -1.37965e-16 -1.03422e-16)
(0 -1.59495e-29 -1.32913e-30 9.10195 -5.70092e-15 -5.50939e-18 0.163772 -1.85412e-15 1.44478e-15)
(1.60699e-15 -4.65201e-30 -2.9968e-31 8.85573 7.57003e-15 -5.69374e-15 0.16168 -1.58033e-16 -1.05853e-16)
(-7.90298e-15 0 0 8.85573 -6.3578e-15 1.54489e-16 0.16168 -1.89436e-15 1.46547e-15)
(2.90775e-15 -5.16521e-30 -1.93695e-30 8.61844 5.64667e-15 -5.9107e-15 0.159657 -1.19907e-16 -1.146e-16)
(-9.38171e-15 1.03304e-29 2.5826e-30 8.61844 -5.23015e-15 1.06453e-16 0.159657 -1.93902e-15 1.48682e-15)
(-3.06288e-15 2.50212e-29 2.21066e-30 8.38965 6.3421e-15 -6.16636e-15 0.157699 -9.04252e-17 -1.18696e-16)
(1.30387e-14 -1.01823e-29 -6.36397e-31 8.38965 -3.17148e-15 -9.97368e-17 0.157699 -1.95372e-15 1.50736e-15)
(1.64105e-15 1.54273e-29 1.57897e-30 8.16899 7.98513e-15 -6.30677e-15 0.155804 -1.49918e-16 -1.23384e-16)
(6.56419e-15 -3.01092e-29 -1.88183e-30 8.16899 -4.78218e-15 -1.29691e-16 0.155804 -1.96076e-15 1.52829e-15)
(0 -4.94628e-30 0 7.95608 7.07932e-15 -6.4404e-15 0.153968 -1.5659e-16 -1.27414e-16)
(0 9.89256e-30 1.23657e-30 7.95608 -5.21894e-15 -9.37573e-18 0.153968 -2.00431e-15 1.55112e-15)
(-1.66304e-15 -2.46093e-29 -2.13174e-30 7.75057 5.80742e-15 -6.59289e-15 0.15219 -1.18784e-16 -1.33066e-16)
(6.65217e-15 2.92523e-29 3.04712e-30 7.75057 -3.52898e-15 1.17736e-16 0.15219 -2.02495e-15 1.57517e-15)
(-1.67384e-15 1.90574e-29 1.50927e-30 7.55212 6.63281e-15 -6.70102e-15 0.150468 -1.10567e-16 -1.35512e-16)
(-6.69537e-15 -9.61102e-30 -6.00689e-31 7.55212 -4.22993e-15 1.35647e-16 0.150468 -2.04735e-15 1.59986e-15)
(1.68451e-15 -1.41039e-29 -2.08557e-30 7.36043 8.37676e-15 -6.82548e-15 0.148798 -1.55584e-16 -1.42062e-16)
(6.73806e-15 9.47327e-30 1.77624e-30 7.36043 -5.38518e-15 -2.58067e-17 0.148798 -2.07116e-15 1.6247e-15)
(-4.32334e-15 3.26347e-29 2.06189e-30 7.17519 8.85259e-15 -7.02099e-15 0.147178 -1.85232e-16 -1.47605e-16)
(9.40853e-15 -2.80125e-29 -1.75078e-30 7.17519 -6.57071e-15 -1.10834e-16 0.147178 -2.08287e-15 1.64949e-15)
(-1.70549e-15 4.61967e-30 3.13e-31 6.99613 9.18769e-15 -7.18043e-15 0.145608 -1.79913e-16 -1.52944e-16)
(0 0 0 6.99613 -7.52151e-15 -1.15692e-17 0.145608 -2.12866e-15 1.67571e-15)
(-1.71581e-15 4.61215e-30 8.82192e-31 6.82298 8.22055e-15 -7.32148e-15 0.144084 -2.04784e-16 -1.57961e-16)
(0 9.07175e-30 0 6.82298 -4.88353e-15 6.36041e-17 0.144084 -2.17145e-15 1.70386e-15)
(-1.72601e-15 -1.32666e-29 -1.91783e-30 6.65548 4.78625e-15 -7.41265e-15 0.142605 -1.4382e-16 -1.6138e-16)
(4.38718e-15 2.23543e-29 2.23543e-30 6.65548 -9.78119e-16 7.19046e-17 0.142605 -2.18477e-15 1.7323e-15)
(1.73611e-15 -2.2253e-29 -1.97218e-30 6.49339 3.40105e-15 -7.53264e-15 0.14117 -6.17668e-17 -1.67871e-16)
(0 1.76271e-29 1.65255e-30 6.49339 -8.13964e-16 1.18087e-16 0.14117 -2.18601e-15 1.76172e-15)
(0 -8.68725e-30 -1.08591e-30 6.33649 4.13572e-15 -7.69983e-15 0.139775 -8.70542e-17 -1.73575e-16)
(0 1.30309e-29 1.62886e-30 6.33649 -2.86947e-15 1.66938e-16 0.139775 -2.19866e-15 1.79301e-15)
(-4.16618e-15 -8.22664e-30 3.24234e-31 6.18456 3.96084e-15 -7.86983e-15 0.138421 -9.63879e-17 -1.80491e-16)
(2.4102e-15 2.14069e-29 1.07034e-30 6.18456 -2.69249e-15 -7.93242e-16 0.138421 -2.22596e-15 1.82355e-15)
(0 -3.37601e-29 -5.27501e-30 6.0374 4.62809e-15 -8.05522e-15 0.137105 -8.16801e-17 -1.87182e-16)
(1.41262e-14 3.37601e-29 5.80251e-30 6.0374 -1.05421e-15 -2.27464e-15 0.137105 -2.23729e-15 1.84317e-15)
(-2.3416e-15 4.15952e-30 1.03988e-30 5.89481 5.84465e-15 -8.17853e-15 0.135826 -1.29885e-16 -1.9153e-16)
(7.10185e-15 8.31905e-30 5.19941e-31 5.89481 -1.74497e-15 -2.69182e-15 0.135826 -2.23777e-15 1.85738e-15)
(-1.78506e-15 3.33018e-29 4.43244e-30 5.75661 5.50448e-15 -8.20204e-15 0.134582 -1.40811e-16 -1.93777e-16)
(-7.14024e-15 -2.45994e-29 -3.58742e-30 5.75661 -3.13727e-15 -2.61602e-15 0.134582 -2.26221e-15 1.87352e-15)
(-1.79457e-15 1.67268e-29 2.86055e-30 5.62262 5.03294e-15 -8.33102e-15 0.133372 -1.17594e-16 -2.03332e-16)
(-7.17826e-15 -8.08229e-30 -2.02057e-30 5.62262 -3.29528e-15 -2.81379e-15 0.133372 -2.27956e-15 1.8907e-15)
(0 1.19497e-29 1.49371e-30 5.49267 5.34061e-15 -8.5274e-15 0.132195 -1.22299e-16 -2.09017e-16)
(0 -7.96645e-30 -4.97903e-31 5.49267 -2.41034e-15 -2.90646e-15 0.132195 -2.28737e-15 1.90573e-15)
(-2.21022e-15 1.17784e-29 1.96307e-30 5.36661 6.71408e-15 -8.7186e-15 0.13105 -1.36024e-16 -2.18736e-16)
(7.25326e-15 -3.92614e-30 -9.81534e-31 5.36661 -2.72655e-15 -2.87136e-15 0.13105 -2.29431e-15 1.92119e-15)
(-3.55976e-16 3.4121e-29 4.49262e-30 5.24428 7.71321e-15 -8.79119e-15 0.129936 -1.93746e-16 -2.18779e-16)
(0 -3.09589e-29 -3.86986e-30 5.24428 -4.57645e-15 -2.98667e-15 0.129936 -2.32363e-15 1.93613e-15)
(0 -4.57728e-29 -7.6288e-30 5.12554 6.77536e-15 -8.76663e-15 0.12885 -1.90094e-16 -2.23894e-16)
(1.46538e-14 4.57728e-29 7.6288e-30 5.12554 -3.26489e-15 -3.01145e-15 0.12885 -2.36568e-15 1.94987e-15)
(2.11654e-15 -1.50389e-29 -9.39932e-31 5.01025 5.62714e-15 -8.96119e-15 0.127793 -1.51724e-16 -2.35227e-16)
(1.261e-14 2.25584e-29 1.87986e-30 5.01025 -2.76813e-15 -2.93123e-15 0.127793 -2.36723e-15 1.96586e-15)
(-3.69966e-15 9.13965e-30 7.08597e-31 4.89829 5.49331e-15 -9.1468e-15 0.126764 -1.36417e-16 -2.40169e-16)
(0 0 0 4.89829 -4.12977e-15 -3.00519e-15 0.126764 -2.38861e-15 1.98246e-15)
(-1.85876e-15 4.56354e-30 3.58573e-31 4.78952 6.38586e-15 -9.16889e-15 0.12576 -1.49163e-16 -2.43291e-16)
(1.48701e-14 1.46109e-29 9.13182e-31 4.78952 -4.01715e-15 -3.04253e-15 0.12576 -2.42089e-15 1.99831e-15)
(1.86763e-15 -1.89542e-29 -1.26182e-30 4.68384 6.96018e-15 -9.2702e-15 0.124782 -1.87816e-16 -2.52663e-16)
(0 1.44015e-29 9.00094e-31 4.68384 -5.24314e-15 -2.95096e-15 0.124782 -2.44811e-15 2.00392e-15)
(-1.87642e-15 4.54831e-30 3.65032e-31 4.58111 7.61857e-15 -9.46678e-15 0.123829 -1.84478e-16 -2.61164e-16)
(0 7.09755e-30 8.87193e-31 4.58111 -6.59111e-15 -3.17393e-15 0.123829 -2.48945e-15 2.00316e-15)
(-3.85429e-15 1.85266e-29 1.24363e-30 4.48125 9.51923e-15 -9.60284e-15 0.122899 -2.29308e-16 -2.6761e-16)
(9.5097e-15 -1.39916e-29 -8.74477e-31 4.48125 -6.52903e-15 -3.31698e-15 0.122899 -2.53969e-15 1.99783e-15)
(-1.89379e-15 1.14114e-29 2.09767e-30 4.38414 9.89197e-15 -9.65733e-15 0.121992 -2.95292e-16 -2.7188e-16)
(7.57517e-15 0 -8.61944e-31 4.38414 -6.12302e-15 -3.22179e-15 0.121992 -2.57825e-15 1.99466e-15)
(-3.80476e-15 9.03255e-30 1.60408e-30 4.28969 8.97574e-15 -9.77954e-15 0.121108 -2.56998e-16 -2.82426e-16)
(0 0 -8.4959e-31 4.28969 -5.96387e-15 -3.20296e-15 0.121108 -2.60765e-15 1.99147e-15)
(-1.9109e-15 1.79106e-29 2.89569e-30 4.1978 8.49249e-15 -9.73247e-15 0.120244 -2.51639e-16 -2.77118e-16)
(0 -6.69931e-30 -1.67483e-30 4.1978 -6.13038e-15 -3.21622e-15 0.120244 -2.64575e-15 1.98955e-15)
(3.71732e-15 -1.32066e-29 -8.25411e-31 4.10838 7.25341e-15 -9.70104e-15 0.119401 -2.36539e-16 -2.88853e-16)
(-7.67745e-15 1.32066e-29 8.25411e-31 4.10838 -5.22025e-15 -3.3331e-15 0.119401 -2.69943e-15 1.98651e-15)
(1.92776e-15 -2.40346e-29 -2.83229e-30 4.02134 6.26139e-15 -9.88505e-15 0.118578 -1.86206e-16 -2.96204e-16)
(7.71105e-15 1.95259e-29 2.44074e-30 4.02134 -4.32818e-15 -3.35394e-15 0.118578 -2.73375e-15 1.98085e-15)
(1.9361e-15 -1.73349e-29 -2.00007e-30 3.93661 6.36321e-15 -9.99625e-15 0.117775 -1.84333e-16 -3.04039e-16)
(-7.74441e-15 1.28307e-29 1.60384e-30 3.93661 -3.93064e-15 -3.29169e-15 0.117775 -2.77514e-15 1.97635e-15)
(-3.72427e-15 1.08201e-29 2.77281e-30 3.85411 7.01665e-15 -1.00639e-14 0.11699 -1.97819e-16 -3.09032e-16)
(7.77753e-15 0 -1.58085e-30 3.85411 -2.79747e-15 -3.40094e-15 0.11699 -2.80582e-15 1.97064e-15)
(0 1.24656e-29 1.5582e-30 3.77375 6.99994e-15 -1.02119e-14 0.116223 -2.29826e-16 -3.22158e-16)
(-1.75437e-15 -6.23278e-30 -7.79098e-31 3.77375 -2.62646e-15 -3.52342e-15 0.116223 -2.81675e-15 1.96381e-15)
(-1.72923e-15 2.45738e-29 3.07172e-30 3.69548 6.35875e-15 -1.02184e-14 0.115473 -2.02574e-16 -3.18498e-16)
(7.8431e-15 -6.14345e-30 -2.30379e-30 3.69548 -2.77693e-15 -3.45355e-15 0.115473 -2.84476e-15 1.95615e-15)
(1.96889e-15 -1.65885e-29 -1.9304e-30 3.61921 5.73292e-15 -1.01962e-14 0.114741 -1.96064e-16 -3.30173e-16)
(0 1.21108e-29 1.51385e-30 3.61921 -3.77239e-15 -3.38257e-15 0.114741 -2.85838e-15 1.95079e-15)
(-3.36003e-15 1.79058e-29 2.23823e-30 3.54488 5.77513e-15 -1.04469e-14 0.114024 -1.68409e-16 -3.44124e-16)
(-7.90781e-15 -5.96861e-30 -1.49215e-30 3.54488 -5.24059e-15 -3.54334e-15 0.114024 -2.8949e-15 1.9458e-15)
(-1.65593e-15 0 1.47077e-30 3.47244 6.90915e-15 -1.05276e-14 0.113324 -2.04552e-16 -3.45162e-16)
(0 1.17661e-29 0 3.47244 -4.67199e-15 -3.65004e-15 0.113324 -2.9253e-15 1.93743e-15)
(0 1.73962e-29 1.44969e-30 3.40181 5.21505e-15 -1.04891e-14 0.112639 -2.48131e-16 -3.51632e-16)
(-3.2644e-15 -5.79874e-30 -7.24843e-31 3.40181 -2.51164e-15 -3.60553e-15 0.112639 -2.93834e-15 1.93099e-15)
(2.00083e-15 2.41074e-29 4.56127e-30 3.33294 2.49791e-15 -1.05525e-14 0.111969 -9.71936e-17 -3.59576e-16)
(0 -2.85782e-29 -5.00118e-30 3.33294 -4.65657e-16 -3.55724e-15 0.111969 -2.92878e-15 1.9247e-15)
(2.00869e-15 1.24273e-29 2.37185e-30 3.26577 2.34582e-15 -1.07355e-14 0.111313 -7.09552e-17 -3.74532e-16)
(0 -5.63371e-30 -1.40843e-30 3.26577 -2.85223e-16 -3.72163e-15 0.111313 -2.91817e-15 1.91628e-15)
(-4.033e-15 1.44946e-29 9.03411e-31 3.20025 2.96709e-15 -1.09031e-14 0.110671 -8.95668e-17 -3.8182e-16)
(8.06601e-15 -5.55297e-30 0 3.20025 -8.26998e-16 -3.84138e-15 0.110671 -2.9045e-15 1.90255e-15)
(-2.02427e-15 4.46269e-30 4.58579e-31 3.13633 3.85781e-15 -1.0976e-14 0.110042 -1.16442e-16 -3.90675e-16)
(0 5.47338e-30 0 3.13633 -5.54122e-16 -3.66843e-15 0.110042 -2.88749e-15 1.89153e-15)
(0 1.07899e-29 0 3.07396 4.46182e-15 -1.10458e-14 0.109427 -1.5533e-16 -3.98027e-16)
(-3.03708e-15 -1.07899e-29 0 3.07396 8.25455e-17 -3.68365e-15 0.109427 -2.89472e-15 1.88307e-15)
(0 2.12704e-29 1.3294e-30 3.01309 6.06949e-15 -1.11534e-14 0.108825 -1.63291e-16 -4.09967e-16)
(0 -1.06352e-29 -1.3294e-30 3.01309 -1.50001e-15 -3.8062e-15 0.108825 -2.87794e-15 1.8708e-15)
(-2.95064e-15 2.09656e-29 3.93104e-30 2.95368 7.89894e-15 -1.12966e-14 0.108235 -2.77181e-16 -4.20283e-16)
(0 -5.24139e-30 -1.31035e-30 2.95368 -2.80073e-15 -4.06635e-15 0.108235 -2.91442e-15 1.85701e-15)
(0 1.54988e-29 2.58314e-30 2.89567 6.09492e-15 -1.13722e-14 0.107656 -3.03496e-16 -4.27655e-16)
(1.35308e-14 -1.03325e-29 -1.29157e-30 2.89567 -1.21824e-15 -4.22575e-15 0.107656 -2.97421e-15 1.83563e-15)
(-4.12488e-15 1.3948e-29 9.88884e-31 2.83904 3.64318e-15 -1.12918e-14 0.10709 -1.49818e-16 -4.26473e-16)
(8.24975e-15 -5.09222e-30 0 2.83904 -1.45047e-15 -3.94541e-15 0.10709 -2.97757e-15 1.81606e-15)
(2.06995e-15 -1.44679e-29 -1.75419e-30 2.78373 4.66795e-15 -1.14026e-14 0.106535 -1.25584e-16 -4.48744e-16)
(0 1.50577e-29 1.25481e-30 2.78373 -3.97653e-15 -3.78978e-15 0.106535 -2.98565e-15 1.8008e-15)
(0 9.8946e-30 2.47365e-30 2.72971 5.64705e-15 -1.1688e-14 0.10599 -2.33421e-16 -4.61351e-16)
(-1.10947e-14 0 0 2.72971 -4.69297e-15 -4.11436e-15 0.10599 -3.02946e-15 1.78312e-15)
(-2.08484e-15 -1.99772e-29 -3.14306e-30 2.67694 6.4634e-15 -1.18422e-14 0.105457 -2.06048e-16 -4.74157e-16)
(8.33937e-15 2.4382e-29 4.87639e-30 2.67694 -3.57792e-15 -4.28405e-15 0.105457 -3.07644e-15 1.75754e-15)
(-2.70582e-15 1.44195e-29 1.20163e-30 2.62538 8.64493e-15 -1.18279e-14 0.104934 -3.05212e-16 -4.73714e-16)
(0 -9.61301e-30 0 2.62538 -3.81296e-15 -4.09724e-15 0.104934 -3.11067e-15 1.73521e-15)
(0 -9.47523e-30 -1.1844e-30 2.575 8.42038e-15 -1.19404e-14 0.10442 -3.88179e-16 -4.97257e-16)
(0 1.42128e-29 2.36881e-30 2.575 -5.40046e-15 -4.16199e-15 0.10442 -3.16137e-15 1.71244e-15)
(-2.1069e-15 4.35591e-30 5.40611e-31 2.52577 6.03688e-15 -1.19464e-14 0.103917 -2.95763e-16 -4.88092e-16)
(0 0 0 2.52577 -4.84339e-15 -4.43404e-15 0.103917 -3.23692e-15 1.68137e-15)
(9.53912e-16 -2.35043e-29 -6.96135e-30 2.47765 6.15237e-15 -1.18965e-14 0.103423 -2.01515e-16 -5.07612e-16)
(1.69134e-14 3.22195e-29 8.05487e-30 2.47765 -3.62472e-15 -4.34116e-15 0.103423 -3.28257e-15 1.648e-15)
(0 9.07362e-30 2.26841e-30 2.43061 8.52596e-15 -1.22649e-14 0.102938 -3.14162e-16 -5.33899e-16)
(-2.554e-15 0 0 2.43061 -5.97713e-15 -4.16342e-15 0.102938 -3.31885e-15 1.62005e-15)
(-2.51739e-15 1.78872e-29 4.47179e-30 2.38462 7.58441e-15 -1.21972e-14 0.102462 -4.10407e-16 -5.16607e-16)
(-2.51739e-15 -4.47179e-30 -1.11795e-30 2.38462 -6.50332e-15 -4.48444e-15 0.102462 -3.40525e-15 1.5891e-15)
(-6.40742e-15 -2.23144e-29 -7.09833e-30 2.33965 6.50817e-15 -1.1933e-14 0.101995 -2.41673e-16 -5.26277e-16)
(1.70865e-14 3.96693e-29 8.81539e-30 2.33965 -3.96838e-15 -4.70481e-15 0.101995 -3.46511e-15 1.54875e-15)
(2.44575e-15 -3.91007e-29 -8.68904e-30 2.29568 7.67666e-15 -1.21492e-14 0.101537 -3.27694e-16 -5.51052e-16)
(1.46978e-14 3.91007e-29 8.68904e-30 2.29568 -5.61599e-15 -4.49504e-15 0.101537 -3.48642e-15 1.51299e-15)
(-2.15006e-15 1.28416e-29 4.8689e-30 2.25267 7.19596e-15 -1.22871e-14 0.101086 -3.53103e-16 -5.54186e-16)
(-2.41069e-15 -4.28225e-30 -2.14113e-30 2.25267 -7.35427e-15 -4.62887e-15 0.101086 -3.57748e-15 1.47961e-15)
(2.15713e-15 -3.80388e-29 -9.03702e-30 2.2106 5.67934e-15 -1.22007e-14 0.100644 -2.9374e-16 -5.59256e-16)