/*--------------------------------*- C++ -*----------------------------------*\
| =========                 |                                                 |
| \\      /  F ield         | OpenFOAM: The Open Source CFD Toolbox           |
|  \\    /   O peration     | Version:  2106                                  |
|   \\  /    A nd           | Website:  www.openfoam.com                      |
|    \\/     M anipulation  |                                                 |
\*---------------------------------------------------------------------------*/
FoamFile
{
    version     2.0;
    format      ascii;
    arch        "LSB;label=32;scalar=64";
    class       volScalarField;
    location    "8000";
    object      p;
}
// * * * * * * * * * * * * * * * * * * * * * * * * * * * * * * * * * * * * * //

dimensions      [0 2 -2 0 0 0 0];

internalField   nonuniform List<scalar> 
2560
(
1.76929e-15
2.92575e-14
3.66032e-15
2.92579e-14
4.01138e-15
2.92585e-14
4.00401e-15
2.92596e-14
4.09637e-15
2.92612e-14
4.25856e-15
2.92631e-14
4.4283e-15
2.92656e-14
4.59223e-15
2.92684e-14
4.75166e-15
2.92717e-14
4.90787e-15
2.92754e-14
5.06094e-15
2.92796e-14
5.21086e-15
2.92841e-14
5.35765e-15
2.9289e-14
5.50138e-15
2.92944e-14
5.64209e-15
2.93001e-14
5.77986e-15
2.93062e-14
5.91477e-15
2.93127e-14
6.04692e-15
2.93195e-14
6.17631e-15
2.93267e-14
6.30324e-15
2.93342e-14
6.42765e-15
2.9342e-14
6.54963e-15
2.93502e-14
6.66931e-15
2.93588e-14
6.78703e-15
2.93677e-14
6.90276e-15
2.93768e-14
7.01659e-15
2.93863e-14
7.12874e-15
2.93962e-14
7.23942e-15
2.94066e-14
7.34885e-15
2.94175e-14
7.4572e-15
2.94288e-14
7.5646e-15
2.94405e-14
7.67123e-15
2.94525e-14
7.77733e-15
2.94651e-14
7.88307e-15
2.94783e-14
7.98856e-15
2.94923e-14
8.09396e-15
2.95068e-14
8.19936e-15
2.95219e-14
8.30513e-15
2.95378e-14
8.41122e-15
2.95545e-14
8.51756e-15
2.95722e-14
8.62449e-15
2.95907e-14
8.73209e-15
2.961e-14
8.8405e-15
2.96303e-14
8.94979e-15
2.96514e-14
9.06008e-15
2.96733e-14
9.1713e-15
2.9696e-14
9.28338e-15
2.97201e-14
9.39661e-15
2.97452e-14
9.51069e-15
2.97714e-14
9.6256e-15
2.97987e-14
9.74174e-15
2.98274e-14
9.85866e-15
2.9857e-14
9.97641e-15
2.98879e-14
1.00951e-14
2.992e-14
1.02146e-14
2.99533e-14
1.03349e-14
2.9988e-14
1.04561e-14
3.00241e-14
1.05787e-14
3.00608e-14
1.07024e-14
3.00984e-14
1.08269e-14
3.01372e-14
1.0953e-14
3.01766e-14
1.10806e-14
3.02168e-14
1.12095e-14
3.02572e-14
1.13396e-14
3.02986e-14
1.1471e-14
3.03409e-14
1.16025e-14
3.03836e-14
1.17352e-14
3.0427e-14
1.1869e-14
3.04712e-14
1.20036e-14
3.05163e-14
1.214e-14
3.05632e-14
1.22754e-14
3.06112e-14
1.24114e-14
3.06603e-14
1.2548e-14
3.07102e-14
1.2685e-14
3.07624e-14
1.28221e-14
3.08158e-14
1.29594e-14
3.08715e-14
1.30956e-14
3.09285e-14
1.32321e-14
3.0987e-14
1.33693e-14
3.10465e-14
1.35066e-14
3.11082e-14
1.36425e-14
3.11726e-14
1.37777e-14
3.12364e-14
1.39155e-14
3.13001e-14
1.40522e-14
3.13662e-14
1.41884e-14
3.14348e-14
1.43247e-14
3.15044e-14
1.44613e-14
3.15745e-14
1.45971e-14
3.16439e-14
1.47334e-14
3.17141e-14
1.48685e-14
3.17884e-14
1.50024e-14
3.18637e-14
1.51348e-14
3.194e-14
1.52673e-14
3.20168e-14
1.54021e-14
3.20931e-14
1.55375e-14
3.21682e-14
1.56742e-14
3.22431e-14
1.58122e-14
3.23211e-14
1.59496e-14
3.24006e-14
1.60871e-14
3.24783e-14
1.62271e-14
3.25535e-14
1.63679e-14
3.26306e-14
1.65101e-14
3.27069e-14
1.66492e-14
3.27835e-14
1.67904e-14
3.28622e-14
1.69344e-14
3.29413e-14
1.70775e-14
3.30193e-14
1.72204e-14
3.30989e-14
1.73657e-14
3.31775e-14
1.75114e-14
3.32543e-14
1.76555e-14
3.33357e-14
1.77978e-14
3.34183e-14
1.794e-14
3.35023e-14
1.80773e-14
3.35859e-14
1.82169e-14
3.36693e-14
1.83556e-14
3.37545e-14
1.84944e-14
3.38388e-14
1.86311e-14
3.39215e-14
1.87673e-14
3.40056e-14
1.88999e-14
3.40911e-14
1.90355e-14
3.41756e-14
1.91727e-14
3.42581e-14
1.93057e-14
3.43427e-14
1.94389e-14
3.44268e-14
1.9575e-14
3.45095e-14
1.97138e-14
3.45891e-14
1.9853e-14
3.46717e-14
1.99923e-14
3.47535e-14
2.01336e-14
3.48309e-14
2.02764e-14
3.49061e-14
2.04166e-14
3.49793e-14
2.05558e-14
3.50566e-14
2.06957e-14
3.51363e-14
2.0842e-14
3.52107e-14
2.09884e-14
3.52801e-14
2.11345e-14
3.53527e-14
2.1276e-14
3.54248e-14
2.14206e-14
3.54926e-14
2.1562e-14
3.55605e-14
2.17097e-14
3.56327e-14
2.18555e-14
3.57014e-14
2.19928e-14
3.57671e-14
2.21334e-14
3.5838e-14
2.22729e-14
3.59125e-14
2.24088e-14
3.59849e-14
2.25426e-14
3.60636e-14
2.26801e-14
3.61408e-14
2.28209e-14
3.6215e-14
2.29665e-14
3.62884e-14
2.31103e-14
3.63594e-14
2.3256e-14
3.64284e-14
2.34051e-14
3.64978e-14
2.35593e-14
3.6568e-14
2.37159e-14
3.66416e-14
2.38725e-14
3.67105e-14
2.40182e-14
3.67795e-14
2.41606e-14
3.68426e-14
2.43118e-14
3.69024e-14
2.4467e-14
3.6974e-14
2.46173e-14
3.70555e-14
2.47642e-14
3.71227e-14
2.49072e-14
3.71864e-14
2.50455e-14
3.72554e-14
2.51932e-14
3.73155e-14
2.53496e-14
3.73675e-14
2.5489e-14
3.74199e-14
2.56401e-14
3.74608e-14
2.57896e-14
3.74949e-14
2.59287e-14
3.75268e-14
2.60732e-14
3.75485e-14
2.62142e-14
3.75689e-14
2.63636e-14
3.75884e-14
2.6525e-14
3.76075e-14
2.66809e-14
3.76181e-14
2.68308e-14
3.76416e-14
2.69906e-14
3.76617e-14
2.71388e-14
3.76871e-14
2.72871e-14
3.77182e-14
2.74475e-14
3.77387e-14
2.76066e-14
3.77659e-14
2.77721e-14
3.77958e-14
2.7939e-14
3.78248e-14
2.81109e-14
3.78448e-14
2.82869e-14
3.78604e-14
2.84666e-14
3.78801e-14
2.86492e-14
3.79003e-14
2.88299e-14
3.79168e-14
2.90081e-14
3.79301e-14
2.91832e-14
3.79444e-14
2.9367e-14
3.7956e-14
2.95422e-14
3.79732e-14
2.97289e-14
3.79839e-14
2.99099e-14
3.79882e-14
3.00929e-14
3.79945e-14
3.02857e-14
3.80112e-14
3.04836e-14
3.80217e-14
3.06736e-14
3.80179e-14
3.08637e-14
3.80202e-14
3.10575e-14
3.80452e-14
3.12627e-14
3.80556e-14
3.14666e-14
3.80554e-14
3.16732e-14
3.8065e-14
3.18698e-14
3.808e-14
3.20766e-14
3.80877e-14
3.22893e-14
3.81042e-14
3.24997e-14
3.81291e-14
3.26993e-14
3.81537e-14
3.29124e-14
3.81616e-14
3.31308e-14
3.81683e-14
3.33384e-14
3.81649e-14
3.35435e-14
3.81668e-14
3.37381e-14
3.81813e-14
3.39304e-14
3.81832e-14
3.41204e-14
3.81797e-14
3.43246e-14
3.81778e-14
3.4511e-14
3.82085e-14
3.46957e-14
3.82388e-14
3.48788e-14
3.8268e-14
3.50603e-14
3.8287e-14
3.52327e-14
3.8319e-14
3.54119e-14
3.83787e-14
3.55898e-14
3.84258e-14
3.57745e-14
3.84595e-14
3.59586e-14
3.85182e-14
3.61422e-14
3.85853e-14
3.63178e-14
3.86362e-14
3.64857e-14
3.86936e-14
3.66539e-14
3.87643e-14
3.68228e-14
3.88476e-14
3.69922e-14
3.89351e-14
3.71544e-14
3.90185e-14
3.73093e-14
3.90893e-14
3.74725e-14
3.917e-14
3.76517e-14
3.92679e-14
3.78241e-14
3.93512e-14
3.79824e-14
3.94192e-14
3.81577e-14
3.95012e-14
3.83277e-14
3.95884e-14
3.85003e-14
3.96723e-14
3.86614e-14
3.9744e-14
3.88266e-14
3.98322e-14
3.89966e-14
3.9928e-14
3.91648e-14
4.00004e-14
3.93397e-14
4.00776e-14
3.95077e-14
4.01654e-14
3.96625e-14
4.02623e-14
3.98269e-14
4.03671e-14
3.99869e-14
4.04639e-14
4.01589e-14
4.0522e-14
4.03008e-14
4.05829e-14
4.04289e-14
4.06734e-14
4.05579e-14
4.07778e-14
4.07029e-14
4.09097e-14
4.08352e-14
4.10256e-14
4.0984e-14
4.11539e-14
4.11072e-14
4.12656e-14
4.12329e-14
4.13463e-14
4.13482e-14
4.14662e-14
4.14673e-14
4.16113e-14
4.15751e-14
4.17541e-14
4.16853e-14
4.18539e-14
4.17842e-14
4.19526e-14
4.18577e-14
4.2064e-14
4.19457e-14
4.21209e-14
4.20486e-14
4.22194e-14
4.21802e-14
4.23043e-14
4.22876e-14
4.24012e-14
4.23717e-14
4.24554e-14
4.24472e-14
4.25465e-14
4.25534e-14
4.26346e-14
4.2637e-14
4.2746e-14
4.27231e-14
4.28289e-14
4.28119e-14
4.28706e-14
4.28922e-14
4.29357e-14
4.29903e-14
4.30503e-14
4.30788e-14
4.32285e-14
4.31929e-14
4.33714e-14
4.32925e-14
4.34568e-14
4.33921e-14
4.34971e-14
4.35076e-14
4.3604e-14
4.36147e-14
4.37384e-14
4.37122e-14
4.39032e-14
4.38087e-14
4.40045e-14
4.39032e-14
4.40703e-14
4.40226e-14
4.41355e-14
4.41456e-14
4.42461e-14
4.42733e-14
4.43415e-14
4.43243e-14
4.44092e-14
4.43942e-14
4.44741e-14
4.45184e-14
4.45351e-14
4.46068e-14
4.46123e-14
4.46863e-14
4.47052e-14
4.47797e-14
4.47437e-14
4.48911e-14
4.48376e-14
4.49309e-14
4.49153e-14
4.4988e-14
4.49803e-14
4.5061e-14
4.50581e-14
4.5128e-14
4.51491e-14
4.51433e-14
4.51886e-14
4.52123e-14
4.52906e-14
4.52878e-14
4.52844e-14
4.53552e-14
4.52917e-14
4.53766e-14
4.53885e-14
4.54287e-14
4.54555e-14
4.54688e-14
4.55392e-14
4.54917e-14
4.55613e-14
4.55781e-14
4.56266e-14
4.56696e-14
4.56707e-14
4.57112e-14
4.57301e-14
4.57604e-14
4.58284e-14
4.58306e-14
4.58705e-14
4.58679e-14
4.59129e-14
4.58914e-14
4.59362e-14
4.59403e-14
4.59784e-14
4.59582e-14
4.60414e-14
4.59975e-14
4.60339e-14
4.60657e-14
4.60067e-14
4.60863e-14
4.60348e-14
4.60806e-14
4.6096e-14
4.60945e-14
4.60865e-14
4.61122e-14
4.613e-14
2.34077e-14
2.50896e-14
2.34081e-14
2.50898e-14
2.34085e-14
2.509e-14
2.34093e-14
2.50904e-14
2.34103e-14
2.50909e-14
2.34117e-14
2.50915e-14
2.34133e-14
2.50923e-14
2.34152e-14
2.50933e-14
2.34175e-14
2.50943e-14
2.34201e-14
2.50956e-14
2.34229e-14
2.5097e-14
2.34261e-14
2.50985e-14
2.34296e-14
2.51002e-14
2.34334e-14
2.51021e-14
2.34374e-14
2.51042e-14
2.34418e-14
2.51065e-14
2.34464e-14
2.5109e-14
2.34513e-14
2.51116e-14
2.34566e-14
2.51144e-14
2.3462e-14
2.51174e-14
2.34678e-14
2.51206e-14
2.34739e-14
2.51241e-14
2.34803e-14
2.51279e-14
2.34869e-14
2.5132e-14
2.34939e-14
2.51361e-14
2.35013e-14
2.51405e-14
2.35089e-14
2.51453e-14
2.35169e-14
2.51503e-14
2.35254e-14
2.51557e-14
2.35342e-14
2.51614e-14
2.35433e-14
2.51672e-14
2.35529e-14
2.51733e-14
2.3563e-14
2.518e-14
2.35736e-14
2.51872e-14
2.35847e-14
2.51946e-14
2.35963e-14
2.52025e-14
2.36086e-14
2.52107e-14
2.36214e-14
2.52194e-14
2.36348e-14
2.52284e-14
2.3649e-14
2.52379e-14
2.36638e-14
2.52482e-14
2.36792e-14
2.52592e-14
2.36952e-14
2.52708e-14
2.37123e-14
2.52829e-14
2.37301e-14
2.52959e-14
2.37487e-14
2.53095e-14
2.37683e-14
2.53238e-14
2.37889e-14
2.5339e-14
2.38103e-14
2.53545e-14
2.38326e-14
2.53707e-14
2.3856e-14
2.53877e-14
2.38802e-14
2.54054e-14
2.39059e-14
2.54239e-14
2.39326e-14
2.54433e-14
2.39603e-14
2.54634e-14
2.39894e-14
2.54846e-14
2.40197e-14
2.55065e-14
2.40511e-14
2.55295e-14
2.40833e-14
2.55537e-14
2.41172e-14
2.5578e-14
2.41524e-14
2.56033e-14
2.41888e-14
2.563e-14
2.42261e-14
2.56582e-14
2.42643e-14
2.56868e-14
2.43031e-14
2.57166e-14
2.4344e-14
2.57478e-14
2.43861e-14
2.5779e-14
2.44292e-14
2.58122e-14
2.44732e-14
2.58458e-14
2.45185e-14
2.58801e-14
2.45647e-14
2.5916e-14
2.46126e-14
2.59533e-14
2.46622e-14
2.59916e-14
2.47127e-14
2.60317e-14
2.47636e-14
2.60731e-14
2.48159e-14
2.61153e-14
2.48699e-14
2.61586e-14
2.49249e-14
2.6204e-14
2.49814e-14
2.62501e-14
2.50378e-14
2.62973e-14
2.50961e-14
2.63464e-14
2.51554e-14
2.63972e-14
2.52154e-14
2.64495e-14
2.52777e-14
2.65025e-14
2.53421e-14
2.65563e-14
2.54074e-14
2.66115e-14
2.54734e-14
2.66693e-14
2.55409e-14
2.67275e-14
2.56092e-14
2.6786e-14
2.56791e-14
2.68471e-14
2.57522e-14
2.69084e-14
2.58252e-14
2.69725e-14
2.58991e-14
2.70368e-14
2.59731e-14
2.70997e-14
2.60486e-14
2.7166e-14
2.61259e-14
2.72342e-14
2.6204e-14
2.73051e-14
2.6283e-14
2.7377e-14
2.63637e-14
2.74465e-14
2.64462e-14
2.75162e-14
2.65313e-14
2.75901e-14
2.66139e-14
2.76651e-14
2.67001e-14
2.77427e-14
2.67881e-14
2.78194e-14
2.68754e-14
2.78979e-14
2.69663e-14
2.79756e-14
2.70556e-14
2.80558e-14
2.71459e-14
2.81405e-14
2.72391e-14
2.82224e-14
2.73343e-14
2.83051e-14
2.74288e-14
2.83922e-14
2.75254e-14
2.84764e-14
2.76222e-14
2.85604e-14
2.77212e-14
2.8646e-14
2.78223e-14
2.87332e-14
2.79257e-14
2.8822e-14
2.80266e-14
2.89113e-14
2.81308e-14
2.90022e-14
2.82354e-14
2.90965e-14
2.83414e-14
2.91884e-14
2.84489e-14
2.92799e-14
2.85569e-14
2.9368e-14
2.86646e-14
2.94564e-14
2.87749e-14
2.95501e-14
2.88859e-14
2.9643e-14
2.89996e-14
2.97353e-14
2.91082e-14
2.98288e-14
2.92178e-14
2.99234e-14
2.93262e-14
3.00192e-14
2.94396e-14
3.01121e-14
2.955e-14
3.0212e-14
2.96616e-14
3.03129e-14
2.97742e-14
3.04108e-14
2.98862e-14
3.05077e-14
2.99974e-14
3.06074e-14
3.01099e-14
3.07079e-14
3.02259e-14
3.08113e-14
3.03373e-14
3.09155e-14
3.04463e-14
3.10224e-14
3.05549e-14
3.1128e-14
3.06673e-14
3.12301e-14
3.07733e-14
3.1337e-14
3.08852e-14
3.14485e-14
3.09971e-14
3.15606e-14
3.11049e-14
3.16712e-14
3.12107e-14
3.17843e-14
3.13207e-14
3.18958e-14
3.14289e-14
3.2014e-14
3.15395e-14
3.21284e-14
3.16485e-14
3.22391e-14
3.17558e-14
3.23501e-14
3.18638e-14
3.24615e-14
3.19744e-14
3.25752e-14
3.20858e-14
3.26892e-14
3.21939e-14
3.27993e-14
3.23051e-14
3.29075e-14
3.24235e-14
3.30159e-14
3.25265e-14
3.31307e-14
3.26328e-14
3.32497e-14
3.27405e-14
3.3373e-14
3.28454e-14
3.34923e-14
3.2954e-14
3.36033e-14
3.30727e-14
3.37081e-14
3.31764e-14
3.38235e-14
3.32905e-14
3.39451e-14
3.33982e-14
3.40564e-14
3.35165e-14
3.41657e-14
3.3633e-14
3.42813e-14
3.37478e-14
3.43949e-14
3.38569e-14
3.45107e-14
3.3973e-14
3.4633e-14
3.40921e-14
3.47534e-14
3.42185e-14
3.4872e-14
3.4344e-14
3.49973e-14
3.44604e-14
3.51292e-14
3.45804e-14
3.52597e-14
3.47084e-14
3.53887e-14
3.4832e-14
3.55247e-14
3.49556e-14
3.56595e-14
3.50834e-14
3.57849e-14
3.52156e-14
3.59178e-14
3.53317e-14
3.60498e-14
3.54526e-14
3.61812e-14
3.557e-14
3.63038e-14
3.56841e-14
3.64262e-14
3.58118e-14
3.65485e-14
3.59408e-14
3.66709e-14
3.60836e-14
3.67853e-14
3.62116e-14
3.69e-14
3.63457e-14
3.70194e-14
3.64739e-14
3.71312e-14
3.66005e-14
3.72355e-14
3.67216e-14
3.73491e-14
3.68417e-14
3.7468e-14
3.69651e-14
3.75842e-14
3.70921e-14
3.76897e-14
3.72228e-14
3.77889e-14
3.73329e-14
3.79066e-14
3.74474e-14
3.80143e-14
3.75705e-14
3.81123e-14
3.76902e-14
3.82173e-14
3.78067e-14
3.83295e-14
3.7912e-14
3.84492e-14
3.80308e-14
3.85565e-14
3.8155e-14
3.866e-14
3.82768e-14
3.87679e-14
3.83965e-14
3.88806e-14
3.85141e-14
3.89904e-14
3.86381e-14
3.90978e-14
3.87606e-14
3.92113e-14
3.88737e-14
3.93233e-14
3.89776e-14
3.94425e-14
3.90966e-14
3.95454e-14
3.92309e-14
3.96326e-14
3.9357e-14
3.97204e-14
3.94674e-14
3.98251e-14
3.95544e-14
3.99232e-14
3.96502e-14
4.00074e-14
3.97628e-14
4.00942e-14
3.98609e-14
4.01919e-14
3.99606e-14
4.02691e-14
4.00465e-14
4.03501e-14
4.01266e-14
4.04353e-14
4.02167e-14
4.05096e-14
4.0317e-14
4.05891e-14
4.03964e-14
4.06817e-14
4.04551e-14
4.07571e-14
4.05475e-14
4.08237e-14
4.06505e-14
4.0905e-14
4.07413e-14
4.09933e-14
4.08355e-14
4.10581e-14
4.0926e-14
4.1115e-14
4.10135e-14
4.12024e-14
4.1098e-14
4.129e-14
4.11794e-14
4.13706e-14
4.12732e-14
4.14448e-14
4.13644e-14
4.15205e-14
4.14381e-14
4.1613e-14
4.15243e-14
4.17081e-14
4.16077e-14
4.17916e-14
4.16809e-14
4.18715e-14
4.1766e-14
4.1941e-14
4.18482e-14
4.20006e-14
4.19426e-14
4.20727e-14
4.20347e-14
4.215e-14
4.21175e-14
4.22176e-14
4.21468e-14
4.22906e-14
4.22392e-14
4.23701e-14
4.23356e-14
4.2442e-14
4.24367e-14
4.25069e-14
4.24854e-14
4.25788e-14
4.25538e-14
4.26442e-14
4.26127e-14
4.27173e-14
4.26615e-14
4.27988e-14
4.27849e-14
4.28465e-14
4.28279e-14
4.28874e-14
4.28901e-14
4.29357e-14
4.29576e-14
4.30333e-14
4.2973e-14
4.31102e-14
4.30186e-14
4.31822e-14
4.30928e-14
4.32503e-14
4.3154e-14
4.32732e-14
4.32038e-14
4.3291e-14
4.32571e-14
4.33579e-14
4.33131e-14
4.34194e-14
4.33572e-14
4.34895e-14
4.34017e-14
4.3556e-14
4.34726e-14
4.3607e-14
4.35438e-14
4.36557e-14
4.36159e-14
4.37012e-14
4.36636e-14
4.3742e-14
4.37138e-14
4.37513e-14
4.3781e-14
4.37542e-14
4.38681e-14
4.37998e-14
4.39119e-14
4.38978e-14
4.39752e-14
4.3945e-14
4.40063e-14
4.40427e-14
4.40527e-14
4.40916e-14
4.41133e-14
4.41825e-14
4.41855e-14
4.42404e-14
4.42695e-14
4.42763e-14
4.43551e-14
4.431e-14
4.44082e-14
4.44117e-14
4.44752e-14
4.44732e-14
4.45676e-14
4.45197e-14
4.46263e-14
4.45713e-14
4.46748e-14
4.46505e-14
4.4748e-14
4.47354e-14
4.48093e-14
4.47797e-14
4.48346e-14
4.483e-14
4.48917e-14
4.49345e-14
4.4976e-14
4.50495e-14
4.50383e-14
4.51341e-14
4.50985e-14
4.51907e-14
4.51576e-14
4.51963e-14
4.51972e-14
4.52592e-14
4.5237e-14
4.53352e-14
4.53398e-14
4.536e-14
4.53822e-14
4.5394e-14
4.54528e-14
4.54555e-14
4.55304e-14
4.55465e-14
4.55926e-14
4.55642e-14
4.56035e-14
4.55876e-14
4.56462e-14
4.56372e-14
4.57198e-14
4.56695e-14
4.57479e-14
4.57228e-14
4.58088e-14
4.57576e-14
4.5883e-14
4.57912e-14
4.59369e-14
4.58783e-14
4.59476e-14
4.59404e-14
4.59865e-14
4.59854e-14
4.60129e-14
4.60347e-14
4.60246e-14
4.60338e-14
4.60408e-14
4.60967e-14
4.60547e-14
4.61126e-14
4.6045e-14
4.6181e-14
4.60328e-14
4.62439e-14
4.60415e-14
4.62976e-14
4.60636e-14
4.63503e-14
4.60745e-14
4.63572e-14
4.61111e-14
4.61765e-14
4.61023e-14
4.62016e-14
4.61329e-14
4.62671e-14
4.61357e-14
4.62728e-14
4.61467e-14
4.62376e-14
4.61934e-14
4.62506e-14
4.62259e-14
4.62481e-14
4.62309e-14
4.62612e-14
4.62657e-14
4.62734e-14
4.62969e-14
4.63224e-14
4.63018e-14
4.63137e-14
4.63214e-14
4.63233e-14
4.63367e-14
4.63478e-14
4.63485e-14
4.63673e-14
4.63556e-14
4.64025e-14
4.63757e-14
4.64363e-14
4.641e-14
4.64291e-14
4.64206e-14
4.64606e-14
4.64252e-14
4.64706e-14
4.64221e-14
4.64377e-14
4.64133e-14
4.64422e-14
4.64421e-14
4.64639e-14
4.64464e-14
4.65034e-14
4.64676e-14
4.65007e-14
4.64636e-14
4.65e-14
4.64787e-14
4.65016e-14
4.64921e-14
4.65041e-14
4.65052e-14
4.6461e-14
4.64996e-14
4.65296e-14
4.64919e-14
4.65538e-14
4.65261e-14
4.64872e-14
4.65634e-14
4.65098e-14
4.65819e-14
4.65746e-14
4.65544e-14
4.66135e-14
4.65478e-14
4.66683e-14
4.65824e-14
4.66711e-14
4.66238e-14
4.66428e-14
4.66284e-14
4.66512e-14
4.66334e-14
4.66724e-14
4.6638e-14
4.66945e-14
4.66537e-14
4.66932e-14
4.66694e-14
4.67046e-14
4.6685e-14
4.67295e-14
4.66741e-14
4.67173e-14
4.67125e-14
4.67572e-14
4.67362e-14
4.67855e-14
4.67582e-14
4.67765e-14
4.67793e-14
4.67934e-14
4.68261e-14
4.68497e-14
4.68593e-14
4.69199e-14
4.68768e-14
4.69521e-14
4.68918e-14
4.69329e-14
4.69053e-14
4.69544e-14
4.69306e-14
4.70034e-14
4.694e-14
4.69994e-14
4.69332e-14
4.70233e-14
4.69631e-14
4.709e-14
4.69743e-14
4.71193e-14
4.69937e-14
4.71113e-14
4.69945e-14
4.71338e-14
4.70175e-14
4.71739e-14
4.70205e-14
4.7218e-14
4.70158e-14
4.7225e-14
4.70452e-14
4.72512e-14
4.70808e-14
4.72681e-14
4.70955e-14
4.72748e-14
4.70755e-14
4.72853e-14
4.70775e-14
4.73011e-14
4.71014e-14
4.72936e-14
4.7105e-14
4.72903e-14
4.71317e-14
4.72903e-14
4.71534e-14
4.72929e-14
4.7171e-14
4.72977e-14
4.71703e-14
4.73046e-14
4.71656e-14
4.73138e-14
4.7201e-14
4.73255e-14
4.72185e-14
4.73393e-14
4.72181e-14
4.73252e-14
4.72223e-14
4.73198e-14
4.72539e-14
4.73457e-14
4.72758e-14
4.73729e-14
4.72882e-14
4.74017e-14
4.72903e-14
4.74247e-14
4.73048e-14
4.74422e-14
4.73239e-14
4.74543e-14
4.73329e-14
4.74685e-14
4.73315e-14
4.74848e-14
4.73272e-14
4.75032e-14
4.73657e-14
4.75008e-14
4.73785e-14
4.75003e-14
4.74045e-14
4.75167e-14
4.74285e-14
4.75423e-14
4.74504e-14
4.75539e-14
4.74783e-14
4.7551e-14
4.74971e-14
4.75566e-14
4.75226e-14
4.75862e-14
4.75392e-14
4.76084e-14
4.75547e-14
4.76234e-14
4.75691e-14
4.76311e-14
4.75826e-14
4.76313e-14
4.75953e-14
4.76556e-14
4.76073e-14
4.76802e-14
4.76185e-14
4.76894e-14
4.76289e-14
4.76992e-14
4.76388e-14
4.77257e-14
4.7648e-14
4.77449e-14
4.76647e-14
4.7757e-14
4.76727e-14
4.77698e-14
4.76721e-14
4.77755e-14
4.76869e-14
4.77902e-14
4.7693e-14
4.78059e-14
4.76983e-14
4.78226e-14
4.77028e-14
4.78242e-14
4.77147e-14
4.78269e-14
4.7726e-14
4.78468e-14
4.77284e-14
4.78678e-14
4.77299e-14
4.78655e-14
4.77306e-14
4.78641e-14
4.77387e-14
4.78557e-14
4.77378e-14
4.78522e-14
4.77444e-14
4.78455e-14
4.77504e-14
4.78436e-14
4.77393e-14
4.78506e-14
4.77441e-14
4.78461e-14
4.774e-14
4.78463e-14
4.77353e-14
4.78514e-14
4.77342e-14
4.78448e-14
4.7745e-14
4.78264e-14
4.77429e-14
4.78127e-14
4.77404e-14
4.78117e-14
4.77418e-14
4.78153e-14
4.77387e-14
4.78111e-14
4.7727e-14
4.78114e-14
4.7719e-14
4.78121e-14
4.77189e-14
4.78133e-14
4.77185e-14
4.77982e-14
4.77093e-14
4.77836e-14
4.77082e-14
4.77776e-14
4.77027e-14
4.77844e-14
4.7701e-14
4.77915e-14
4.7699e-14
4.77865e-14
4.76882e-14
4.77901e-14
4.76771e-14
4.7794e-14
4.76697e-14
4.779e-14
4.7662e-14
4.77905e-14
4.76537e-14
4.77955e-14
4.76449e-14
4.7801e-14
4.76356e-14
4.78027e-14
4.76216e-14
4.7809e-14
4.76237e-14
4.78116e-14
4.76169e-14
4.78063e-14
4.76011e-14
4.78015e-14
4.75931e-14
4.78013e-14
4.75886e-14
4.78016e-14
4.75878e-14
4.78066e-14
4.75863e-14
4.78121e-14
4.75801e-14
4.7818e-14
4.75815e-14
4.78161e-14
4.75824e-14
4.78105e-14
4.75828e-14
4.78054e-14
4.75826e-14
4.78049e-14
4.75923e-14
4.78006e-14
4.75994e-14
4.77968e-14
4.75957e-14
4.77974e-14
4.75916e-14
4.77963e-14
4.75974e-14
4.77936e-14
4.76008e-14
4.77952e-14
4.76141e-14
4.77973e-14
4.76126e-14
4.77934e-14
4.76066e-14
4.77815e-14
4.76065e-14
4.7774e-14
4.76081e-14
4.77689e-14
4.76095e-14
4.77702e-14
4.76106e-14
4.77676e-14
4.76094e-14
4.77611e-14
4.76079e-14
4.77569e-14
4.76083e-14
4.7755e-14
4.76044e-14
4.7745e-14
4.76043e-14
4.77394e-14
4.76082e-14
4.774e-14
4.76138e-14
4.77427e-14
4.76132e-14
4.77396e-14
4.76125e-14
4.77386e-14
4.76156e-14
4.77377e-14
4.76186e-14
4.7737e-14
4.76154e-14
4.77324e-14
4.76121e-14
4.77319e-14
4.76146e-14
4.77336e-14
4.7615e-14
4.77333e-14
4.76153e-14
4.77331e-14
4.76115e-14
4.77351e-14
4.76096e-14
4.77312e-14
4.76075e-14
4.77294e-14
4.76053e-14
4.77296e-14
4.76011e-14
4.77319e-14
4.75987e-14
4.77343e-14
4.75962e-14
4.77348e-14
4.75936e-14
4.77335e-14
4.75909e-14
4.77361e-14
4.75881e-14
4.77407e-14
4.75871e-14
4.77415e-14
4.7586e-14
4.77415e-14
4.75847e-14
4.77416e-14
4.75825e-14
4.77455e-14
4.75792e-14
4.77514e-14
4.75786e-14
4.77555e-14
4.7577e-14
4.77587e-14
4.75743e-14
4.7761e-14
4.75743e-14
4.77625e-14
4.75742e-14
4.77641e-14
4.75731e-14
4.77676e-14
4.75738e-14
4.77702e-14
4.75725e-14
4.77711e-14
4.7572e-14
4.7773e-14
4.75741e-14
4.7775e-14
4.75735e-14
4.7777e-14
4.75719e-14
4.77764e-14
4.75711e-14
4.77759e-14
4.75728e-14
4.77754e-14
4.75727e-14
4.77785e-14
4.75708e-14
4.77816e-14
4.75689e-14
4.77831e-14
4.75694e-14
4.77829e-14
4.7569e-14
4.77845e-14
4.75686e-14
4.77861e-14
4.75681e-14
4.77861e-14
4.75675e-14
4.77854e-14
4.75685e-14
4.77855e-14
4.75678e-14
4.77889e-14
4.75655e-14
4.77931e-14
4.75647e-14
4.77949e-14
4.75623e-14
4.77944e-14
4.75621e-14
4.77955e-14
4.7562e-14
4.77975e-14
4.75618e-14
4.77987e-14
4.75611e-14
4.78003e-14
4.75619e-14
4.78008e-14
4.75612e-14
4.77999e-14
4.75612e-14
4.7799e-14
4.75614e-14
4.77993e-14
4.7562e-14
4.77996e-14
4.75629e-14
4.77996e-14
4.7563e-14
4.77989e-14
4.75624e-14
4.77987e-14
4.75625e-14
4.77977e-14
4.75629e-14
4.77969e-14
4.75632e-14
4.77967e-14
4.75634e-14
4.77959e-14
4.7563e-14
4.77952e-14
4.75626e-14
4.77941e-14
4.75631e-14
4.77935e-14
4.75635e-14
4.77925e-14
4.75648e-14
4.77898e-14
4.75652e-14
4.77884e-14
4.75647e-14
4.77884e-14
4.75644e-14
4.77885e-14
4.75644e-14
4.77878e-14
4.75646e-14
4.77862e-14
4.75643e-14
4.7785e-14
4.75642e-14
4.77841e-14
4.75644e-14
4.77829e-14
4.75642e-14
4.77818e-14
4.75643e-14
4.77818e-14
4.75642e-14
4.77812e-14
4.75639e-14
4.77802e-14
4.75638e-14
4.77794e-14
4.7564e-14
4.77788e-14
4.75635e-14
4.77782e-14
4.75629e-14
4.77777e-14
4.75627e-14
4.77772e-14
4.75624e-14
4.77767e-14
4.75621e-14
4.77761e-14
4.75618e-14
4.77754e-14
4.75615e-14
4.77748e-14
4.75611e-14
4.77744e-14
4.75607e-14
4.77739e-14
4.75606e-14
4.77736e-14
4.75605e-14
4.77733e-14
4.75604e-14
4.77728e-14
4.75604e-14
4.77724e-14
4.75601e-14
4.77721e-14
4.75598e-14
4.77719e-14
4.75597e-14
4.77716e-14
4.75595e-14
4.77714e-14
4.75594e-14
4.7771e-14
4.75592e-14
4.77707e-14
4.75591e-14
4.77706e-14
4.75589e-14
4.77705e-14
4.75588e-14
4.77703e-14
4.75587e-14
4.77702e-14
4.75585e-14
4.77701e-14
4.75583e-14
4.77699e-14
4.75582e-14
4.77697e-14
4.75581e-14
4.77695e-14
4.75579e-14
4.77694e-14
4.75579e-14
4.77693e-14
4.75578e-14
4.77692e-14
4.75577e-14
4.77691e-14
4.75577e-14
4.7769e-14
4.75576e-14
4.77689e-14
4.75575e-14
4.77688e-14
4.75574e-14
4.77687e-14
4.75574e-14
4.77686e-14
4.75573e-14
4.77685e-14
4.75572e-14
4.77684e-14
4.75572e-14
4.77683e-14
4.75571e-14
4.77683e-14
4.75571e-14
4.77682e-14
4.7557e-14
4.77682e-14
4.7557e-14
4.77681e-14
4.75569e-14
4.77681e-14
4.75569e-14
4.77681e-14
4.75569e-14
4.77681e-14
4.75569e-14
4.77681e-14
4.75569e-14
4.7768e-14
4.75569e-14
4.7768e-14
4.75569e-14
4.7768e-14
4.75569e-14
4.7768e-14
4.75569e-14
4.7768e-14
4.75569e-14
4.7768e-14
4.60727e-14
4.63358e-14
4.61183e-14
4.63719e-14
4.6219e-14
4.63302e-14
4.62521e-14
4.63302e-14
4.6263e-14
4.6289e-14
4.62789e-14
4.63132e-14
4.62961e-14
4.63471e-14
4.63112e-14
4.63367e-14
4.63087e-14
4.6335e-14
4.63453e-14
4.63408e-14
4.63659e-14
4.63674e-14
4.63905e-14
4.64179e-14
4.63755e-14
4.64577e-14
4.63939e-14
4.64935e-14
4.64036e-14
4.65278e-14
4.63812e-14
4.65416e-14
4.64257e-14
4.65367e-14
4.64596e-14
4.65492e-14
4.64865e-14
4.65542e-14
4.651e-14
4.65918e-14
4.64865e-14
4.66015e-14
4.64553e-14
4.66078e-14
4.64548e-14
4.65683e-14
4.64669e-14
4.65192e-14
4.64745e-14
4.652e-14
4.64787e-14
4.65256e-14
4.64792e-14
4.65131e-14
4.64765e-14
4.64805e-14
4.64956e-14
4.65415e-14
4.65112e-14
4.65836e-14
4.65223e-14
4.65616e-14
4.65307e-14
4.65686e-14
4.65353e-14
4.66281e-14
4.65323e-14
4.66238e-14
4.65467e-14
4.66378e-14
4.65922e-14
4.66568e-14
4.65851e-14
4.66916e-14
4.65705e-14
4.6685e-14
4.65724e-14
4.67233e-14
4.65767e-14
4.67467e-14
4.65826e-14
4.67683e-14
4.66022e-14
4.67512e-14
4.66379e-14
4.67684e-14
4.66791e-14
4.67803e-14
4.67027e-14
4.67988e-14
4.67218e-14
4.68099e-14
4.67626e-14
4.68257e-14
4.67878e-14
4.68324e-14
4.68115e-14
4.68814e-14
4.68585e-14
4.69608e-14
4.68616e-14
4.70056e-14
4.68855e-14
4.69906e-14
4.69054e-14
4.70344e-14
4.69205e-14
4.70847e-14
4.69703e-14
4.70884e-14
4.7003e-14
4.71116e-14
4.70197e-14
4.71263e-14
4.70338e-14
4.71591e-14
4.70587e-14
4.7169e-14
4.70952e-14
4.71834e-14
4.71168e-14
4.72292e-14
4.71506e-14
4.72653e-14
4.71972e-14
4.72915e-14
4.72297e-14
4.73072e-14
4.72202e-14
4.73401e-14
4.72092e-14
4.73345e-14
4.71965e-14
4.72898e-14
4.71973e-14
4.72905e-14
4.72262e-14
4.73222e-14
4.72543e-14
4.73711e-14
4.72671e-14
4.73801e-14
4.72643e-14
4.73635e-14
4.72752e-14
4.73498e-14
4.72857e-14
4.73528e-14
4.7296e-14
4.73577e-14
4.72916e-14
4.73642e-14
4.73016e-14
4.73874e-14
4.73182e-14
4.73904e-14
4.7327e-14
4.73728e-14
4.73284e-14
4.7379e-14
4.73371e-14
4.73939e-14
4.73831e-14
4.74175e-14
4.73992e-14
4.74343e-14
4.74081e-14
4.74366e-14
4.74174e-14
4.74393e-14
4.74346e-14
4.74575e-14
4.74524e-14
4.74913e-14
4.74705e-14
4.75104e-14
4.7489e-14
4.7507e-14
4.75005e-14
4.7504e-14
4.75128e-14
4.75242e-14
4.75489e-14
4.75369e-14
4.75626e-14
4.75572e-14
4.75692e-14
4.75854e-14
4.75841e-14
4.75983e-14
4.7615e-14
4.76274e-14
4.76149e-14
4.76411e-14
4.76306e-14
4.76475e-14
4.76388e-14
4.76621e-14
4.76391e-14
4.76929e-14
4.76471e-14
4.77087e-14
4.76548e-14
4.77095e-14
4.76384e-14
4.7703e-14
4.76294e-14
4.7697e-14
4.76198e-14
4.77157e-14
4.76173e-14
4.77431e-14
4.76298e-14
4.77475e-14
4.76412e-14
4.77367e-14
4.76518e-14
4.77265e-14
4.76698e-14
4.77328e-14
4.76793e-14
4.77394e-14
4.76883e-14
4.77462e-14
4.76969e-14
4.77531e-14
4.7697e-14
4.7752e-14
4.7713e-14
4.77592e-14
4.77368e-14
4.77745e-14
4.77441e-14
4.77817e-14
4.77513e-14
4.77643e-14
4.77666e-14
4.77631e-14
4.7778e-14
4.77656e-14
4.77936e-14
4.77638e-14
4.7789e-14
4.77657e-14
4.77928e-14
4.77632e-14
4.77764e-14
4.77645e-14
4.77641e-14
4.77613e-14
4.77685e-14
4.77621e-14
4.77688e-14
4.77709e-14
4.77733e-14
4.77713e-14
4.77696e-14
4.77591e-14
4.77618e-14
4.77468e-14
4.77584e-14
4.77509e-14
4.77591e-14
4.77506e-14
4.77723e-14
4.77419e-14
4.77567e-14
4.77413e-14
4.77578e-14
4.77446e-14
4.77548e-14
4.77437e-14
4.77478e-14
4.77342e-14
4.77409e-14
4.77288e-14
4.77424e-14
4.77358e-14
4.77524e-14
4.77469e-14
4.77499e-14
4.77579e-14
4.77475e-14
4.77605e-14
4.77451e-14
4.77589e-14
4.7747e-14
4.77615e-14
4.77615e-14
4.77599e-14
4.77635e-14
4.77667e-14
4.77657e-14
4.77776e-14
4.77597e-14
4.77843e-14
4.77621e-14
4.77743e-14
4.77646e-14
4.77602e-14
4.77548e-14
4.77543e-14
4.77577e-14
4.77609e-14
4.77607e-14
4.77591e-14
4.77681e-14
4.77489e-14
4.77631e-14
4.77512e-14
4.77667e-14
4.77575e-14
4.77705e-14
4.77513e-14
4.77704e-14
4.77449e-14
4.77662e-14
4.77385e-14
4.77665e-14
4.77361e-14
4.77649e-14
4.77378e-14
4.77614e-14
4.77373e-14
4.77602e-14
4.77283e-14
4.7757e-14
4.77256e-14
4.77644e-14
4.77289e-14
4.77616e-14
4.77301e-14
4.77652e-14
4.77208e-14
4.77607e-14
4.77155e-14
4.77605e-14
4.77102e-14
4.77666e-14
4.77026e-14
4.77647e-14
4.76991e-14
4.77547e-14
4.76954e-14
4.77469e-14
4.76937e-14
4.77414e-14
4.7694e-14
4.7738e-14
4.76941e-14
4.77327e-14
4.76921e-14
4.77275e-14
4.76901e-14
4.77245e-14
4.76859e-14
4.77277e-14
4.76857e-14
4.77229e-14
4.76896e-14
4.77202e-14
4.76872e-14
4.77196e-14
4.76808e-14
4.77211e-14
4.76784e-14
4.77247e-14
4.768e-14
4.77283e-14
4.76814e-14
4.77281e-14
4.76809e-14
4.77239e-14
4.76822e-14
4.77238e-14
4.76855e-14
4.77217e-14
4.76868e-14
4.77198e-14
4.7684e-14
4.77199e-14
4.76812e-14
4.7724e-14
4.76823e-14
4.77242e-14
4.76893e-14
4.77245e-14
4.76942e-14
4.7719e-14
4.76991e-14
4.77213e-14
4.7704e-14
4.77217e-14
4.7701e-14
4.77222e-14
4.77039e-14
4.77189e-14
4.77086e-14
4.77166e-14
4.77114e-14
4.77134e-14
4.77123e-14
4.77111e-14
4.7715e-14
4.77089e-14
4.77159e-14
4.77077e-14
4.77177e-14
4.77056e-14
4.77185e-14
4.77035e-14
4.77193e-14
4.77015e-14
4.7722e-14
4.77013e-14
4.77228e-14
4.76984e-14
4.77245e-14
4.76965e-14
4.77281e-14
4.76927e-14
4.77335e-14
4.76899e-14
4.7737e-14
4.76879e-14
4.77396e-14
4.7686e-14
4.77422e-14
4.76842e-14
4.77475e-14
4.76814e-14
4.77519e-14
4.76786e-14
4.77563e-14
4.7675e-14
4.77607e-14
4.76714e-14
4.77633e-14
4.76678e-14
4.7766e-14
4.76634e-14
4.77703e-14
4.76607e-14
4.77747e-14
4.76563e-14
4.77765e-14
4.76552e-14
4.77784e-14
4.765e-14
4.77811e-14
4.76456e-14
4.77838e-14
4.76413e-14
4.77873e-14
4.76377e-14
4.77909e-14
4.7635e-14
4.77936e-14
4.76339e-14
4.77972e-14
4.76303e-14
4.78007e-14
4.7626e-14
4.7802e-14
4.76233e-14
4.78017e-14
4.76205e-14
4.78029e-14
4.76177e-14
4.7805e-14
4.76157e-14
4.78059e-14
4.76141e-14
4.78065e-14
4.76128e-14
4.7805e-14
4.76129e-14
4.78045e-14
4.7612e-14
4.78063e-14
4.76114e-14
4.78077e-14
4.76111e-14
4.78074e-14
4.76104e-14
4.78082e-14
4.76094e-14
4.78093e-14
4.76087e-14
4.78104e-14
4.76076e-14
4.78099e-14
4.76079e-14
4.78097e-14
4.76068e-14
4.78109e-14
4.76057e-14
4.78121e-14
4.76053e-14
4.7812e-14
4.76051e-14
4.78123e-14
4.76055e-14
4.7812e-14
4.76065e-14
4.78111e-14
4.76072e-14
4.78109e-14
4.7607e-14
4.78118e-14
4.7607e-14
4.78119e-14
4.7607e-14
4.78117e-14
4.76076e-14
4.78107e-14
4.76086e-14
4.78103e-14
4.76089e-14
4.78105e-14
4.76086e-14
4.78107e-14
4.7609e-14
4.78101e-14
4.76089e-14
4.78096e-14
4.76091e-14
4.78096e-14