/*--------------------------------*- C++ -*----------------------------------*\
| =========                 |                                                 |
| \\      /  F ield         | OpenFOAM: The Open Source CFD Toolbox           |
|  \\    /   O peration     | Version:  2012                                  |
|   \\  /    A nd           | Website:  www.openfoam.com                      |
|    \\/     M anipulation  |                                                 |
\*---------------------------------------------------------------------------*/
FoamFile
{
    version     2.0;
    format      ascii;
    class       volVectorField;
    location    "8000";
    object      U;
}
// * * * * * * * * * * * * * * * * * * * * * * * * * * * * * * * * * * * * * //

dimensions      [0 1 -1 0 0 0 0];


internalField   nonuniform List<vector> 
160
(
(0.0433138 -3.07323e-16 -2.00371e-16)
(0.0433138 -1.63032e-17 -5.24259e-17)
(0.141574 -3.69401e-15 -9.59422e-16)
(0.141574 -5.13464e-17 -3.00518e-16)
(0.265387 -2.80321e-15 -1.3114e-15)
(0.265387 -2.00528e-16 -4.19271e-16)
(0.408837 -2.37483e-15 -1.44098e-15)
(0.408837 -3.50009e-16 -4.9774e-16)
(0.539481 -2.01178e-15 -1.38703e-15)
(0.539481 -4.99365e-16 -5.24381e-16)
(0.639145 -1.73658e-15 -1.33877e-15)
(0.639145 -6.13075e-16 -5.47563e-16)
(0.715015 -1.49057e-15 -1.18137e-15)
(0.715015 -7.12824e-16 -5.47985e-16)
(0.77501 -1.2979e-15 -8.09685e-16)
(0.77501 -7.83664e-16 -4.90118e-16)
(0.823817 -1.13851e-15 -5.70575e-16)
(0.823817 -8.32712e-16 -4.24067e-16)
(0.864291 -9.96568e-16 -4.06338e-16)
(0.864291 -8.37414e-16 -3.39465e-16)
(0.89837 -9.33854e-16 -4.95105e-16)
(0.89837 -8.54253e-16 -4.40863e-16)
(0.927487 -9.11963e-16 -7.43612e-16)
(0.927487 -9.01305e-16 -6.88465e-16)
(0.952749 -8.57001e-16 -1.07478e-15)
(0.952749 -8.58095e-16 -9.85835e-16)
(0.975009 -8.30149e-16 -1.19923e-15)
(0.975009 -8.65318e-16 -1.13804e-15)
(0.994906 -7.65668e-16 -1.29141e-15)
(0.994906 -7.48768e-16 -1.2695e-15)
(1.01288 -6.26294e-16 -1.84866e-15)
(1.01288 -6.39183e-16 -1.94268e-15)
(1.02919 -6.66839e-16 -2.91314e-15)
(1.02919 -6.78232e-16 -2.89856e-15)
(1.04382 1.03548e-16 1.08521e-17)
(1.04382 1.79572e-16 -1.8018e-16)
(1.05641 -7.08553e-16 -4.84267e-15)
(1.05641 -5.47293e-16 -4.43189e-15)
(1.06535 -5.39437e-16 -5.75595e-18)
(1.06535 -5.04755e-16 -6.79306e-17)
(0.0433138 -6.15678e-18 7.048e-17)
(0.0433138 -5.46429e-18 -1.07638e-17)
(0.141574 -3.11819e-17 2.42929e-16)
(0.141574 -1.33239e-17 -1.78207e-16)
(0.265387 -9.30225e-17 3.11248e-16)
(0.265387 -4.86972e-17 -1.97498e-16)
(0.408837 -1.7209e-16 3.1698e-16)
(0.408837 -1.01789e-16 -1.47331e-16)
(0.539481 -2.41519e-16 2.74273e-16)
(0.539481 -1.73543e-16 -4.80926e-17)
(0.639145 -3.08649e-16 2.31782e-16)
(0.639145 -2.27987e-16 3.58694e-17)
(0.715015 -3.82506e-16 1.86905e-16)
(0.715015 -3.1082e-16 8.01801e-17)
(0.77501 -4.3921e-16 1.54815e-16)
(0.77501 -3.98409e-16 1.37822e-16)
(0.823817 -5.14238e-16 1.34684e-16)
(0.823817 -4.43758e-16 2.11696e-16)
(0.864291 -5.95424e-16 3.03447e-16)
(0.864291 -5.24571e-16 3.34929e-16)
(0.89837 -6.43465e-16 4.93596e-16)
(0.89837 -6.25656e-16 5.0119e-16)
(0.927487 -6.75374e-16 7.37427e-16)
(0.927487 -6.64559e-16 6.92205e-16)
(0.952749 -7.11785e-16 1.09957e-15)
(0.952749 -6.88467e-16 1.03875e-15)
(0.975009 -7.10037e-16 1.08304e-15)
(0.975009 -7.04791e-16 1.16348e-15)
(0.994906 -6.35765e-16 1.19153e-15)
(0.994906 -6.64754e-16 1.41734e-15)
(1.01288 -6.5133e-16 2.17958e-15)
(1.01288 -5.99019e-16 1.95298e-15)
(1.02919 -6.77131e-16 2.60029e-15)
(1.02919 -6.25325e-16 2.64579e-15)
(1.04382 1.65993e-16 6.46781e-17)
(1.04382 1.0013e-16 6.79216e-17)
(1.05641 -4.33397e-16 5.81639e-15)
(1.05641 -7.14335e-16 4.58255e-15)
(1.06535 -4.46743e-16 3.00306e-30)
(1.06535 -6.10363e-16 1.29456e-16)
(1.06535 1.65736e-16 -2.83502e-15)
(1.06535 4.59704e-17 -2.67973e-15)
(1.05641 -3.02192e-16 -8.76375e-16)
(1.05641 -3.02415e-16 -1.19438e-15)
(1.04382 7.78517e-18 -6.65162e-16)
(1.04382 -6.15212e-17 -1.10037e-15)
(1.02919 -1.00487e-16 -6.23208e-16)
(1.02919 -1.00204e-16 -3.7594e-16)
(1.01288 -9.80867e-17 -4.39473e-16)
(1.01288 -2.99855e-17 -2.88422e-16)
(0.994906 -6.06767e-17 -3.6546e-19)
(0.994906 -8.2675e-17 -5.42741e-17)
(0.975009 -6.3584e-17 -2.95223e-16)
(0.975009 -9.61283e-17 -3.12276e-16)
(0.952749 -3.40628e-17 -2.44155e-16)
(0.952749 -4.32255e-17 -2.76169e-16)
(0.927487 -1.36758e-17 -9.95009e-17)
(0.927487 1.98962e-18 -7.93011e-17)
(0.89837 -3.49677e-17 -5.20799e-17)
(0.89837 -1.72279e-17 -4.85589e-17)
(0.864291 -6.80596e-18 -4.99406e-17)
(0.864291 -1.54712e-18 -5.97608e-17)
(0.823817 -8.80657e-18 -3.65594e-17)
(0.823817 6.30314e-18 -7.85857e-17)
(0.77501 -1.49467e-17 -1.84954e-17)
(0.77501 -7.05764e-18 -6.99645e-17)
(0.715015 -9.86107e-18 -2.93648e-17)
(0.715015 -4.16779e-18 -4.55779e-17)
(0.639145 -1.38415e-17 -1.61479e-17)
(0.639145 1.04317e-17 -4.74327e-17)
(0.539481 -6.63869e-18 -1.6532e-17)
(0.539481 -5.49409e-18 -4.89751e-17)
(0.408837 3.03039e-19 -1.67183e-17)
(0.408837 -2.00471e-18 -4.90848e-17)
(0.265387 -1.63902e-18 -1.5338e-17)
(0.265387 -4.95665e-18 -4.48067e-17)
(0.141574 2.08174e-19 -1.12594e-17)
(0.141574 -9.30048e-19 -3.36828e-17)
(0.0433138 4.89687e-20 -1.5389e-18)
(0.0433138 3.48318e-19 -3.56617e-18)
(1.06535 6.32297e-17 3.26201e-15)
(1.06535 1.05986e-16 2.50786e-15)
(1.05641 -2.57999e-16 6.18787e-16)
(1.05641 -2.95187e-16 1.37425e-15)
(1.04382 -5.44978e-18 1.10662e-15)
(1.04382 -2.02591e-17 9.50398e-16)
(1.02919 -9.01052e-17 4.83647e-16)
(1.02919 1.03652e-17 2.42463e-16)
(1.01288 -3.79841e-17 3.25455e-16)
(1.01288 -2.88441e-17 3.12972e-16)
(0.994906 -1.46502e-16 1.80128e-16)
(0.994906 -1.26004e-16 2.77127e-16)
(0.975009 -5.25172e-17 2.07139e-16)
(0.975009 -1.29882e-16 1.79609e-16)
(0.952749 5.97892e-17 3.3981e-16)
(0.952749 3.52881e-17 2.97758e-16)
(0.927487 -1.13824e-17 1.27005e-16)
(0.927487 2.07164e-17 1.47703e-16)
(0.89837 -3.86076e-17 9.60565e-17)
(0.89837 -1.91053e-17 5.37836e-17)
(0.864291 -3.36927e-17 9.56592e-17)
(0.864291 -3.71031e-17 4.12622e-17)
(0.823817 -2.43048e-17 8.33923e-17)
(0.823817 -3.19641e-17 2.42816e-17)
(0.77501 4.61674e-18 6.22332e-17)
(0.77501 1.1227e-17 3.74722e-17)
(0.715015 -2.20375e-18 4.66664e-17)
(0.715015 1.82471e-17 3.49753e-17)
(0.639145 -2.17368e-17 4.21113e-17)
(0.639145 -8.19938e-18 8.70614e-18)
(0.539481 -1.09102e-17 2.44336e-17)
(0.539481 7.96751e-18 1.56873e-17)
(0.408837 -1.63007e-18 2.50288e-17)
(0.408837 1.13168e-17 5.79604e-18)
(0.265387 4.14683e-19 2.31774e-17)
(0.265387 3.59929e-18 1.5533e-18)
(0.141574 5.85824e-19 1.7735e-17)
(0.141574 1.63033e-18 6.25515e-19)
(0.0433138 -2.89232e-19 2.11358e-18)
(0.0433138 -9.32867e-20 6.02398e-20)
)
;

boundaryField
{
    walls
    {
        type            fixedValue;
        value           uniform (0 0 0);
    }
    inlet
    {
        type            cyclic;
    }
    outlet
    {
        type            cyclic;
    }
    sides
    {
        type            empty;
    }
}


// ************************************************************************* //
