/*--------------------------------*- C++ -*----------------------------------*\
| =========                 |                                                 |
| \\      /  F ield         | OpenFOAM: The Open Source CFD Toolbox           |
|  \\    /   O peration     | Version:  2012                                  |
|   \\  /    A nd           | Website:  www.openfoam.com                      |
|    \\/     M anipulation  |                                                 |
\*---------------------------------------------------------------------------*/
FoamFile
{
    version     2.0;
    format      ascii;
    class       volVectorField;
    location    "10000";
    object      U;
}
// * * * * * * * * * * * * * * * * * * * * * * * * * * * * * * * * * * * * * //

dimensions      [0 1 -1 0 0 0 0];


internalField   nonuniform List<vector> 
2560
(
(0.002186 -6.77316e-16 -1.07986e-17)
(0.002186 6.2019e-20 -6.22927e-22)
(0.00658913 -2.40148e-15 -2.32083e-17)
(0.00658913 -3.9592e-19 -2.24892e-21)
(0.0110556 -2.32507e-15 -2.43958e-17)
(0.0110556 -4.83316e-19 -2.86986e-21)
(0.0155864 -2.16518e-15 -2.52755e-17)
(0.0155864 -7.24892e-19 -2.92917e-21)
(0.0201825 -2.19164e-15 -2.63066e-17)
(0.0201825 -9.69577e-19 -2.96165e-21)
(0.0248448 -2.16129e-15 -2.74515e-17)
(0.0248448 -1.22457e-18 -3.06827e-21)
(0.0295743 -2.16557e-15 -2.86566e-17)
(0.0295743 -1.48545e-18 -3.3009e-21)
(0.034372 -2.16592e-15 -2.99048e-17)
(0.034372 -1.75773e-18 -3.80022e-21)
(0.039239 -2.16555e-15 -3.11946e-17)
(0.039239 -2.04097e-18 -3.78715e-21)
(0.0441761 -2.16523e-15 -3.25267e-17)
(0.0441761 -2.33512e-18 -3.82899e-21)
(0.0491845 -2.1649e-15 -3.3902e-17)
(0.0491845 -2.62592e-18 -3.70412e-21)
(0.0542651 -2.16453e-15 -3.53217e-17)
(0.0542651 -2.93508e-18 -3.23999e-21)
(0.0594191 -2.16411e-15 -3.67869e-17)
(0.0594191 -3.25741e-18 -2.94059e-21)
(0.0646475 -2.16371e-15 -3.82988e-17)
(0.0646475 -3.55339e-18 -2.02934e-21)
(0.0699513 -2.16329e-15 -3.98587e-17)
(0.0699513 -3.85567e-18 -1.13047e-21)
(0.0753316 -2.16283e-15 -4.14677e-17)
(0.0753316 -4.18315e-18 -1.16119e-21)
(0.0807894 -2.16238e-15 -4.3127e-17)
(0.0807894 -4.53104e-18 4.29889e-22)
(0.0863258 -2.16193e-15 -4.48377e-17)
(0.0863258 -4.90795e-18 2.26859e-21)
(0.0919418 -2.16152e-15 -4.6601e-17)
(0.0919418 -5.23821e-18 4.87995e-21)
(0.0976383 -2.16109e-15 -4.84179e-17)
(0.0976383 -5.62359e-18 6.98408e-21)
(0.103416 -2.1606e-15 -5.02893e-17)
(0.103416 -6.08679e-18 8.29808e-21)
(0.109277 -2.16011e-15 -5.22157e-17)
(0.109277 -6.47323e-18 1.09219e-20)
(0.11522 -2.15967e-15 -5.41976e-17)
(0.11522 -6.85266e-18 1.32941e-20)
(0.121248 -2.15926e-15 -5.62361e-17)
(0.121248 -7.27422e-18 1.85733e-20)
(0.12736 -2.15871e-15 -5.8331e-17)
(0.12736 -7.6707e-18 2.45723e-20)
(0.133557 -2.15817e-15 -6.04817e-17)
(0.133557 -8.12019e-18 2.89012e-20)
(0.139839 -2.1576e-15 -6.26875e-17)
(0.139839 -8.56425e-18 3.08379e-20)
(0.146207 -2.15705e-15 -6.49477e-17)
(0.146207 -8.97904e-18 3.40268e-20)
(0.15266 -2.15648e-15 -6.72609e-17)
(0.15266 -9.41411e-18 3.88914e-20)
(0.159198 -2.15584e-15 -6.96249e-17)
(0.159198 -9.94248e-18 4.72626e-20)
(0.165821 -2.15523e-15 -7.20369e-17)
(0.165821 -1.04523e-17 6.02991e-20)
(0.172528 -2.15458e-15 -7.44937e-17)
(0.172528 -1.10462e-17 6.71718e-20)
(0.179316 -2.15393e-15 -7.69912e-17)
(0.179316 -1.16224e-17 7.36661e-20)
(0.186186 -2.15324e-15 -7.95246e-17)
(0.186186 -1.22235e-17 7.91099e-20)
(0.193133 -2.15261e-15 -8.2087e-17)
(0.193133 -1.29678e-17 8.63802e-20)
(0.200156 -2.15202e-15 -8.46728e-17)
(0.200156 -1.35034e-17 1.01525e-19)
(0.207252 -2.15136e-15 -8.72744e-17)
(0.207252 -1.40289e-17 1.15178e-19)
(0.214417 -2.15066e-15 -8.98832e-17)
(0.214417 -1.46107e-17 1.2919e-19)
(0.221646 -2.14995e-15 -9.24899e-17)
(0.221646 -1.51689e-17 1.44709e-19)
(0.228935 -2.1492e-15 -9.5085e-17)
(0.228935 -1.59249e-17 1.57135e-19)
(0.236278 -2.14837e-15 -9.76585e-17)
(0.236278 -1.67298e-17 1.72211e-19)
(0.24367 -2.14762e-15 -1.00199e-16)
(0.24367 -1.7134e-17 1.87552e-19)
(0.251104 -2.14681e-15 -1.02698e-16)
(0.251104 -1.77957e-17 2.00597e-19)
(0.258572 -2.14596e-15 -1.05144e-16)
(0.258572 -1.85574e-17 2.26763e-19)
(0.266068 -2.14519e-15 -1.07527e-16)
(0.266068 -1.9136e-17 2.53848e-19)
(0.273585 -2.14432e-15 -1.09837e-16)
(0.273585 -1.98973e-17 2.68155e-19)
(0.281113 -2.14352e-15 -1.12064e-16)
(0.281113 -2.04967e-17 2.86811e-19)
(0.288645 -2.14286e-15 -1.14204e-16)
(0.288645 -2.11598e-17 3.09283e-19)
(0.296173 -2.142e-15 -1.16248e-16)
(0.296173 -2.20659e-17 3.26298e-19)
(0.303688 -2.14107e-15 -1.1819e-16)
(0.303688 -2.30327e-17 3.49606e-19)
(0.311182 -2.14002e-15 -1.20026e-16)
(0.311182 -2.40735e-17 3.82686e-19)
(0.318648 -2.1389e-15 -1.2175e-16)
(0.318648 -2.52093e-17 4.17413e-19)
(0.326077 -2.13779e-15 -1.23363e-16)
(0.326077 -2.64298e-17 4.45146e-19)
(0.333464 -2.13671e-15 -1.24867e-16)
(0.333464 -2.74205e-17 4.81639e-19)
(0.3408 -2.13584e-15 -1.26264e-16)
(0.3408 -2.83872e-17 4.96488e-19)
(0.34808 -2.13495e-15 -1.27557e-16)
(0.34808 -2.93527e-17 5.25732e-19)
(0.355298 -2.13415e-15 -1.28752e-16)
(0.355298 -3.02073e-17 5.68666e-19)
(0.362448 -2.13345e-15 -1.29855e-16)
(0.362448 -3.11635e-17 6.18347e-19)
(0.369527 -2.13238e-15 -1.3087e-16)
(0.369527 -3.20581e-17 6.40007e-19)
(0.37653 -2.13118e-15 -1.31802e-16)
(0.37653 -3.32554e-17 6.59484e-19)
(0.383453 -2.13023e-15 -1.32657e-16)
(0.383453 -3.44592e-17 6.84258e-19)
(0.390294 -2.12904e-15 -1.33442e-16)
(0.390294 -3.55976e-17 7.21947e-19)
(0.39705 -2.12761e-15 -1.34161e-16)
(0.39705 -3.73539e-17 7.71973e-19)
(0.40372 -2.12614e-15 -1.3482e-16)
(0.40372 -3.83719e-17 8.08158e-19)
(0.410301 -2.12507e-15 -1.35425e-16)
(0.410301 -3.95487e-17 8.56283e-19)
(0.416794 -2.12454e-15 -1.35991e-16)
(0.416794 -4.07648e-17 9.0717e-19)
(0.423197 -2.12371e-15 -1.36522e-16)
(0.423197 -4.14727e-17 9.57002e-19)
(0.42951 -2.1228e-15 -1.37026e-16)
(0.42951 -4.28217e-17 1.00289e-18)
(0.435734 -2.12225e-15 -1.3751e-16)
(0.435734 -4.39932e-17 1.02679e-18)
(0.441868 -2.12196e-15 -1.37975e-16)
(0.441868 -4.48859e-17 1.05911e-18)
(0.447914 -2.12104e-15 -1.38427e-16)
(0.447914 -4.58382e-17 1.1275e-18)
(0.453871 -2.11989e-15 -1.38867e-16)
(0.453871 -4.71284e-17 1.19557e-18)
(0.459742 -2.11919e-15 -1.39295e-16)
(0.459742 -4.83593e-17 1.24858e-18)
(0.465527 -2.11813e-15 -1.39719e-16)
(0.465527 -4.93237e-17 1.28506e-18)
(0.471228 -2.11686e-15 -1.40139e-16)
(0.471228 -5.09578e-17 1.3201e-18)
(0.476846 -2.11527e-15 -1.40561e-16)
(0.476846 -5.25616e-17 1.37694e-18)
(0.482383 -2.11362e-15 -1.40986e-16)
(0.482383 -5.45762e-17 1.43729e-18)
(0.48784 -2.11182e-15 -1.41417e-16)
(0.48784 -5.64912e-17 1.49567e-18)
(0.493218 -2.11023e-15 -1.41852e-16)
(0.493218 -5.84335e-17 1.51388e-18)
(0.498521 -2.10885e-15 -1.423e-16)
(0.498521 -6.02993e-17 1.53252e-18)
(0.503748 -2.10686e-15 -1.42759e-16)
(0.503748 -6.16088e-17 1.60869e-18)
(0.508903 -2.10542e-15 -1.43232e-16)
(0.508903 -6.54141e-17 1.69888e-18)
(0.513987 -2.10472e-15 -1.43728e-16)
(0.513987 -6.4639e-17 1.7067e-18)
(0.519001 -2.10304e-15 -1.44243e-16)
(0.519001 -6.51317e-17 1.71766e-18)
(0.523947 -2.10075e-15 -1.44782e-16)
(0.523947 -6.73426e-17 1.76728e-18)
(0.528827 -2.09915e-15 -1.45339e-16)
(0.528827 -6.8344e-17 1.77622e-18)
(0.533644 -2.0979e-15 -1.4592e-16)
(0.533644 -6.93034e-17 1.79124e-18)
(0.538397 -2.09676e-15 -1.46526e-16)
(0.538397 -7.03159e-17 1.77159e-18)
(0.54309 -2.09571e-15 -1.47169e-16)
(0.54309 -7.05016e-17 1.76298e-18)
(0.547723 -2.09555e-15 -1.4785e-16)
(0.547723 -7.21324e-17 1.78284e-18)
(0.552299 -2.09373e-15 -1.48568e-16)
(0.552299 -7.44448e-17 1.80529e-18)
(0.556818 -2.09271e-15 -1.49309e-16)
(0.556818 -7.52211e-17 1.81454e-18)
(0.561283 -2.09143e-15 -1.5008e-16)
(0.561283 -7.62444e-17 1.82032e-18)
(0.565694 -2.09004e-15 -1.50882e-16)
(0.565694 -7.78181e-17 1.83594e-18)
(0.570054 -2.0887e-15 -1.51711e-16)
(0.570054 -8.00783e-17 1.83463e-18)
(0.574364 -2.08703e-15 -1.52576e-16)
(0.574364 -8.24316e-17 1.86484e-18)
(0.578625 -2.08503e-15 -1.53482e-16)
(0.578625 -8.41359e-17 1.93427e-18)
(0.582838 -2.08188e-15 -1.54428e-16)
(0.582838 -8.6897e-17 1.99719e-18)
(0.587005 -2.07844e-15 -1.55412e-16)
(0.587005 -8.97444e-17 2.02444e-18)
(0.591127 -2.07587e-15 -1.5643e-16)
(0.591127 -9.12886e-17 2.28486e-18)
(0.595205 -2.0729e-15 -1.57492e-16)
(0.595205 -9.19395e-17 3.50628e-18)
(0.599241 -2.0683e-15 -1.58592e-16)
(0.599241 -9.54663e-17 4.80548e-18)
(0.603235 -2.06444e-15 -1.59726e-16)
(0.603235 -9.95455e-17 6.17066e-18)
(0.607189 -2.06121e-15 -1.60904e-16)
(0.607189 -1.01257e-16 7.50685e-18)
(0.611104 -2.05789e-15 -1.62119e-16)
(0.611104 -1.05356e-16 8.84056e-18)
(0.61498 -2.05444e-15 -1.63373e-16)
(0.61498 -1.08868e-16 1.01455e-17)
(0.61882 -2.04998e-15 -1.64674e-16)
(0.61882 -1.11658e-16 1.14917e-17)
(0.622623 -2.04572e-15 -1.66025e-16)
(0.622623 -1.16854e-16 1.29238e-17)
(0.626391 -2.04228e-15 -1.67423e-16)
(0.626391 -1.19737e-16 1.43618e-17)
(0.630125 -2.03809e-15 -1.68883e-16)
(0.630125 -1.22339e-16 1.58426e-17)
(0.633826 -2.03293e-15 -1.70372e-16)
(0.633826 -1.273e-16 1.74591e-17)
(0.637494 -2.02722e-15 -1.719e-16)
(0.637494 -1.30579e-16 1.89794e-17)
(0.64113 -2.02123e-15 -1.73464e-16)
(0.64113 -1.35078e-16 2.03358e-17)
(0.644736 -2.01694e-15 -1.7508e-16)
(0.644736 -1.38751e-16 2.19193e-17)
(0.648312 -2.01379e-15 -1.76773e-16)
(0.648312 -1.40581e-16 2.33948e-17)
(0.651859 -2.01041e-15 -1.78538e-16)
(0.651859 -1.42753e-16 2.47657e-17)
(0.655377 -2.00796e-15 -1.80358e-16)
(0.655377 -1.43367e-16 2.61763e-17)
(0.658868 -2.0064e-15 -1.82292e-16)
(0.658868 -1.43616e-16 2.75135e-17)
(0.662331 -2.00282e-15 -1.84317e-16)
(0.662331 -1.45242e-16 2.89623e-17)
(0.665769 -1.99859e-15 -1.8642e-16)
(0.665769 -1.50032e-16 3.04178e-17)
(0.66918 -1.99484e-15 -1.88624e-16)
(0.66918 -1.53804e-16 3.16862e-17)
(0.672567 -1.9906e-15 -1.90895e-16)
(0.672567 -1.56014e-16 3.30578e-17)
(0.675929 -1.98629e-15 -1.93262e-16)
(0.675929 -1.58693e-16 3.43515e-17)
(0.679268 -1.98159e-15 -1.95731e-16)
(0.679268 -1.62151e-16 3.56824e-17)
(0.682583 -1.97719e-15 -1.98305e-16)
(0.682583 -1.65035e-16 3.693e-17)
(0.685876 -1.97294e-15 -2.00974e-16)
(0.685876 -1.68628e-16 3.82509e-17)
(0.689147 -1.96593e-15 -2.03725e-16)
(0.689147 -1.74307e-16 3.93793e-17)
(0.692396 -1.95672e-15 -2.06563e-16)
(0.692396 -1.77959e-16 4.03801e-17)
(0.695624 -1.94541e-15 -2.09472e-16)
(0.695624 -1.8388e-16 4.10581e-17)
(0.698832 -1.93474e-15 -2.12442e-16)
(0.698832 -1.89671e-16 4.19732e-17)
(0.702019 -1.92661e-15 -2.15484e-16)
(0.702019 -1.95544e-16 4.30027e-17)
(0.705188 -1.91674e-15 -2.18623e-16)
(0.705188 -2.03496e-16 4.4109e-17)
(0.708337 -1.90508e-15 -2.2185e-16)
(0.708337 -2.12795e-16 4.45906e-17)
(0.711467 -1.8918e-15 -2.25137e-16)
(0.711467 -2.20814e-16 4.4964e-17)
(0.71458 -1.88222e-15 -2.28444e-16)
(0.71458 -2.26687e-16 4.57324e-17)
(0.717674 -1.87739e-15 -2.31891e-16)
(0.717674 -2.32149e-16 4.62856e-17)
(0.720752 -1.87323e-15 -2.35471e-16)
(0.720752 -2.36664e-16 4.66574e-17)
(0.723812 -1.87036e-15 -2.39169e-16)
(0.723812 -2.3967e-16 4.70862e-17)
(0.726856 -1.8685e-15 -2.43054e-16)
(0.726856 -2.42106e-16 4.77235e-17)
(0.729884 -1.86329e-15 -2.47155e-16)
(0.729884 -2.4604e-16 4.7623e-17)
(0.732896 -1.85777e-15 -2.51371e-16)
(0.732896 -2.47728e-16 4.72579e-17)
(0.735892 -1.85436e-15 -2.55745e-16)
(0.735892 -2.50385e-16 4.76453e-17)
(0.738874 -1.84869e-15 -2.60299e-16)
(0.738874 -2.56411e-16 4.80149e-17)
(0.74184 -1.84156e-15 -2.65023e-16)
(0.74184 -2.59708e-16 4.74625e-17)
(0.744793 -1.83522e-15 -2.69924e-16)
(0.744793 -2.61292e-16 4.71713e-17)
(0.747731 -1.82966e-15 -2.75059e-16)
(0.747731 -2.68621e-16 4.57329e-17)
(0.750655 -1.82239e-15 -2.80431e-16)
(0.750655 -2.72067e-16 4.26799e-17)
(0.753566 -1.8153e-15 -2.8598e-16)
(0.753566 -2.73472e-16 3.93748e-17)
(0.756464 -1.80847e-15 -2.91744e-16)
(0.756464 -2.7747e-16 3.58866e-17)
(0.759349 -1.7996e-15 -2.97741e-16)
(0.759349 -2.83577e-16 3.24082e-17)
(0.762221 -1.79264e-15 -3.03934e-16)
(0.762221 -2.9006e-16 2.86787e-17)
(0.765081 -1.78623e-15 -3.10448e-16)
(0.765081 -2.93756e-16 2.47543e-17)
(0.767929 -1.77684e-15 -3.17202e-16)
(0.767929 -3.01339e-16 2.05103e-17)
(0.770765 -1.76542e-15 -3.24204e-16)
(0.770765 -3.0691e-16 1.5885e-17)
(0.773589 -1.75405e-15 -3.31359e-16)
(0.773589 -3.11672e-16 1.12608e-17)
(0.776402 -1.74611e-15 -3.38724e-16)
(0.776402 -3.21717e-16 6.5267e-18)
(0.779204 -1.73772e-15 -3.46277e-16)
(0.779204 -3.27132e-16 1.81845e-18)
(0.781995 -1.72828e-15 -3.53888e-16)
(0.781995 -3.30146e-16 -2.66126e-18)
(0.784776 -1.71814e-15 -3.61679e-16)
(0.784776 -3.37753e-16 -6.85192e-18)
(0.787546 -1.70541e-15 -3.69632e-16)
(0.787546 -3.45076e-16 -1.0923e-17)
(0.790306 -1.69049e-15 -3.77731e-16)
(0.790306 -3.48741e-16 -1.47214e-17)
(0.793055 -1.67999e-15 -3.85914e-16)
(0.793055 -3.53788e-16 -1.82777e-17)
(0.795796 -1.67414e-15 -3.94461e-16)
(0.795796 -3.623e-16 -2.12821e-17)
(0.798526 -1.66676e-15 -4.03209e-16)
(0.798526 -3.69588e-16 -2.39998e-17)
(0.801247 -1.65646e-15 -4.12146e-16)
(0.801247 -3.75758e-16 -2.66609e-17)
(0.803959 -1.64676e-15 -4.21135e-16)
(0.803959 -3.83296e-16 -2.89138e-17)
(0.806661 -1.64094e-15 -4.30339e-16)
(0.806661 -3.89313e-16 -3.10226e-17)
(0.809355 -1.63279e-15 -4.39721e-16)
(0.809355 -3.95899e-16 -3.30919e-17)
(0.81204 -1.62085e-15 -4.40598e-16)
(0.81204 -4.03474e-16 -3.51256e-17)
(0.814717 -1.6096e-15 -4.36186e-16)
(0.814717 -4.07368e-16 -3.7272e-17)
(0.817385 -1.60046e-15 -4.31742e-16)
(0.817385 -4.12802e-16 -3.96149e-17)
(0.820045 -1.59011e-15 -4.26773e-16)
(0.820045 -4.18782e-16 -4.18375e-17)
(0.822697 -1.5805e-15 -4.22198e-16)
(0.822697 -4.22404e-16 -4.38318e-17)
(0.825341 -1.57135e-15 -4.18692e-16)
(0.825341 -4.28048e-16 -4.56749e-17)
(0.827977 -1.56079e-15 -4.13561e-16)
(0.827977 -4.36759e-16 -4.74854e-17)
(0.830606 -1.54625e-15 -4.09146e-16)
(0.830606 -4.43351e-16 -4.85282e-17)
(0.833227 -1.53073e-15 -4.05348e-16)
(0.833227 -4.54214e-16 -4.92961e-17)
(0.835841 -1.51705e-15 -4.00876e-16)
(0.835841 -4.66958e-16 -5.055e-17)
(0.838448 -1.5021e-15 -3.97201e-16)
(0.838448 -4.7492e-16 -5.1337e-17)
(0.841047 -1.48858e-15 -3.94519e-16)
(0.841047 -4.83865e-16 -5.11024e-17)
(0.843639 -1.47395e-15 -3.92256e-16)
(0.843639 -4.90016e-16 -5.16581e-17)
(0.846225 -1.46243e-15 -3.88967e-16)
(0.846225 -4.94398e-16 -5.26132e-17)
(0.848804 -1.45032e-15 -3.86284e-16)
(0.848804 -4.99315e-16 -5.34269e-17)
(0.851376 -1.43646e-15 -3.83654e-16)
(0.851376 -5.04175e-16 -5.37463e-17)
(0.853942 -1.42651e-15 -3.81183e-16)
(0.853942 -5.09077e-16 -5.34634e-17)
(0.856501 -1.4135e-15 -3.79728e-16)
(0.856501 -5.13554e-16 -5.40454e-17)
(0.859054 -1.4e-15 -3.78818e-16)
(0.859054 -5.20063e-16 -5.36909e-17)
(0.8616 -1.3883e-15 -3.79055e-16)
(0.8616 -5.26967e-16 -5.36572e-17)
(0.864141 -1.37645e-15 -3.78801e-16)
(0.864141 -5.32948e-16 -5.28625e-17)
(0.866675 -1.36218e-15 -3.79914e-16)
(0.866675 -5.38509e-16 -5.19819e-17)
(0.869204 -1.34715e-15 -3.80954e-16)
(0.869204 -5.47943e-16 -5.0753e-17)
(0.871727 -1.33667e-15 -3.81074e-16)
(0.871727 -5.56509e-16 -4.8896e-17)
(0.874243 -1.32176e-15 -3.81782e-16)
(0.874243 -5.61745e-16 -4.7517e-17)
(0.876755 -1.30752e-15 -3.82377e-16)
(0.876755 -5.67588e-16 -4.58559e-17)
(0.87926 -1.29495e-15 -3.8266e-16)
(0.87926 -5.73945e-16 -4.38799e-17)
(0.88176 -1.27944e-15 -3.83444e-16)
(0.88176 -5.8505e-16 -4.30193e-17)
(0.884255 -1.26459e-15 -3.85075e-16)
(0.884255 -5.86837e-16 -4.14494e-17)
(0.886744 -1.2462e-15 -3.8568e-16)
(0.886744 -5.92056e-16 -3.93335e-17)
(0.889228 -1.23021e-15 -3.8679e-16)
(0.889228 -6.10177e-16 -3.78265e-17)
(0.891706 -1.21378e-15 -3.89695e-16)
(0.891706 -6.16606e-16 -3.60438e-17)
(0.894179 -1.18949e-15 -3.9213e-16)
(0.894179 -6.26336e-16 -3.35484e-17)
(0.896647 -1.1654e-15 -3.96573e-16)
(0.896647 -6.37187e-16 -3.17544e-17)
(0.89911 -1.15042e-15 -3.99193e-16)
(0.89911 -6.42973e-16 -3.10642e-17)
(0.901568 -1.15286e-15 -4.04405e-16)
(0.901568 -6.41578e-16 -3.0449e-17)
(0.904021 -1.16059e-15 -4.06055e-16)
(0.904021 -6.31213e-16 -2.72526e-17)
(0.906469 -1.15866e-15 -4.06567e-16)
(0.906469 -6.2863e-16 -2.6051e-17)
(0.908912 -1.15774e-15 -4.10901e-16)
(0.908912 -6.33657e-16 -2.5126e-17)
(0.91135 -1.15809e-15 -4.12424e-16)
(0.91135 -6.28894e-16 -2.20885e-17)
(0.913783 -1.16405e-15 -4.12121e-16)
(0.913783 -6.1984e-16 -2.0855e-17)
(0.916212 -1.16537e-15 -4.13189e-16)
(0.916212 -6.1716e-16 -2.18701e-17)
(0.918635 -1.15969e-15 -4.13532e-16)
(0.918635 -6.14965e-16 -2.0821e-17)
(0.921054 -1.15641e-15 -4.12998e-16)
(0.921054 -6.2287e-16 -2.10307e-17)
(0.923468 -1.14787e-15 -4.10142e-16)
(0.923468 -6.26666e-16 -2.098e-17)
(0.925878 -1.14198e-15 -4.08916e-16)
(0.925878 -6.26555e-16 -2.35134e-17)
(0.928282 -1.13373e-15 -4.06632e-16)
(0.928282 -6.29097e-16 -2.53066e-17)
(0.930682 -1.12306e-15 -4.06656e-16)
(0.930682 -6.27802e-16 -2.54966e-17)
(0.933078 -1.11531e-15 -4.05108e-16)
(0.933078 -6.30964e-16 -2.18868e-17)
(0.935469 -1.10905e-15 -4.00803e-16)
(0.935469 -6.38439e-16 -2.01923e-17)
(0.937855 -1.10307e-15 -3.98039e-16)
(0.937855 -6.40415e-16 -2.27e-17)
(0.940236 -1.09621e-15 -4.0098e-16)
(0.940236 -6.39436e-16 -2.01363e-17)
(0.942613 -1.08901e-15 -3.9651e-16)
(0.942613 -6.43069e-16 -1.3245e-17)
(0.944986 -1.08256e-15 -3.89946e-16)
(0.944986 -6.47483e-16 -1.0276e-17)
(0.947353 -1.07958e-15 -3.89405e-16)
(0.947353 -6.47443e-16 -1.10707e-17)
(0.949716 -1.08051e-15 -3.90572e-16)
(0.949716 -6.52317e-16 -7.61926e-18)
(0.952075 -1.08394e-15 -3.84575e-16)
(0.952075 -6.48149e-16 -8.71172e-18)
(0.954428 -1.0827e-15 -3.71706e-16)
(0.954428 -6.39637e-16 -2.41314e-17)
(0.956777 -1.07668e-15 -3.61785e-16)
(0.956777 -6.48448e-16 -3.03198e-17)
(0.959122 -1.07011e-15 -3.54854e-16)
(0.959122 -6.54992e-16 -3.49163e-17)
(0.961461 -1.0611e-15 -3.49873e-16)
(0.961461 -6.53232e-16 -4.47188e-17)
(0.963796 -1.05615e-15 -3.40037e-16)
(0.963796 -6.56358e-16 -5.95861e-17)
(0.966127 -1.0587e-15 -3.28065e-16)
(0.966127 -6.64549e-16 -7.64249e-17)
(0.968452 -1.05713e-15 -3.24758e-16)
(0.968452 -6.62316e-16 -8.90429e-17)
(0.970772 -1.04701e-15 -3.1897e-16)
(0.970772 -6.70755e-16 -9.95385e-17)
(0.973088 -1.04553e-15 -3.17949e-16)
(0.973088 -6.82329e-16 -1.12998e-16)
(0.975399 -1.04133e-15 -3.14899e-16)
(0.975399 -6.67962e-16 -1.30561e-16)
(0.977704 -1.02956e-15 -3.10463e-16)
(0.977704 -6.69197e-16 -1.41883e-16)
(0.980005 -1.02784e-15 -3.11558e-16)
(0.980005 -6.71766e-16 -1.50396e-16)
(0.982301 -1.02642e-15 -3.06262e-16)
(0.982301 -6.65752e-16 -1.65408e-16)
(0.984591 -1.02097e-15 -3.02697e-16)
(0.984591 -6.7008e-16 -1.8808e-16)
(0.986876 -1.01272e-15 -2.98803e-16)
(0.986876 -6.58701e-16 -2.04631e-16)
(0.989156 -1.01133e-15 -2.93703e-16)
(0.989156 -6.57002e-16 -2.17381e-16)
(0.991431 -1.00824e-15 -2.86559e-16)
(0.991431 -6.62218e-16 -2.1748e-16)
(0.9937 -9.99355e-16 -2.79951e-16)
(0.9937 -6.52026e-16 -2.10164e-16)
(0.995963 -1.00205e-15 -2.71876e-16)
(0.995963 -6.43447e-16 -2.10741e-16)
(0.998221 -1.00187e-15 -2.65505e-16)
(0.998221 -6.45265e-16 -2.02646e-16)
(1.00047 -9.81782e-16 -2.59458e-16)
(1.00047 -6.58412e-16 -1.91371e-16)
(1.00272 -9.49293e-16 -2.3606e-16)
(1.00272 -6.70758e-16 -1.81835e-16)
(1.00496 -9.18415e-16 -2.28317e-16)
(1.00496 -6.58739e-16 -1.81289e-16)
(1.00719 -8.89136e-16 -2.32806e-16)
(1.00719 -6.42642e-16 -1.84879e-16)
(1.00942 -8.5721e-16 -2.28606e-16)
(1.00942 -6.56192e-16 -1.85657e-16)
(1.01164 -8.38767e-16 -2.06228e-16)
(1.01164 -6.56681e-16 -1.84537e-16)
(1.01386 -8.24396e-16 -1.92179e-16)
(1.01386 -6.52254e-16 -1.83615e-16)
(1.01607 -8.10106e-16 -1.89168e-16)
(1.01607 -6.47951e-16 -1.78417e-16)
(1.01827 -7.91082e-16 -1.7698e-16)
(1.01827 -6.49518e-16 -1.78336e-16)
(1.02047 -7.6729e-16 -1.84273e-16)
(1.02047 -6.40345e-16 -1.6863e-16)
(1.02265 -7.56083e-16 -1.75863e-16)
(1.02265 -6.25597e-16 -1.632e-16)
(1.02483 -7.4346e-16 -1.68871e-16)
(1.02483 -6.39107e-16 -1.66227e-16)
(1.02701 -7.24239e-16 -1.63206e-16)
(1.02701 -6.29325e-16 -1.71785e-16)
(1.02917 -6.99569e-16 -1.38231e-16)
(1.02917 -6.17636e-16 -1.70976e-16)
(1.03133 -6.63797e-16 -1.20959e-16)
(1.03133 -6.32273e-16 -1.7105e-16)
(1.03348 -6.48862e-16 -1.3781e-16)
(1.03348 -6.27192e-16 -1.64439e-16)
(1.03562 -6.49592e-16 -1.36874e-16)
(1.03562 -6.33162e-16 -1.51327e-16)
(1.03776 -6.05045e-16 -1.21956e-16)
(1.03776 -6.33166e-16 -1.33081e-16)
(1.03988 -6.37264e-16 -1.15323e-16)
(1.03988 -5.99769e-16 -1.16659e-16)
(1.04199 -6.22586e-16 -1.03963e-16)
(1.04199 -5.90059e-16 -1.27634e-16)
(1.0441 -6.09664e-16 -1.14781e-16)
(1.0441 -5.92669e-16 -1.25612e-16)
(1.0462 -5.87959e-16 -1.23834e-16)
(1.0462 -5.78193e-16 -1.25428e-16)
(1.04828 -5.7641e-16 -1.21734e-16)
(1.04828 -5.77426e-16 -1.25284e-16)
(1.05036 -5.47177e-16 -1.3013e-16)
(1.05036 -5.61642e-16 -1.11445e-16)
(1.05242 -5.23821e-16 -1.47624e-16)
(1.05242 -5.48122e-16 -1.08986e-16)
(1.05448 -5.121e-16 -1.66216e-16)
(1.05448 -5.63187e-16 -1.1011e-16)
(1.05652 -5.24017e-16 -1.78769e-16)
(1.05652 -5.43943e-16 -1.08304e-16)
(1.05855 -5.25478e-16 -1.58896e-16)
(1.05855 -5.12884e-16 -1.19715e-16)
(1.06057 -5.53082e-16 -1.25616e-16)
(1.06057 -5.09387e-16 -1.21364e-16)
(1.06258 -5.44843e-16 -1.13532e-16)
(1.06258 -5.04672e-16 -1.06825e-16)
(1.06458 -5.2965e-16 -9.82737e-17)
(1.06458 -4.95048e-16 -8.74439e-17)
(1.06656 -5.11489e-16 -9.62518e-17)
(1.06656 -5.03919e-16 -9.01965e-17)
(1.06852 -4.92469e-16 -9.11671e-17)
(1.06852 -5.09738e-16 -8.80886e-17)
(1.07048 -4.86649e-16 -9.81902e-17)
(1.07048 -4.55357e-16 -7.00786e-17)
(1.07242 -4.92945e-16 -7.0857e-17)
(1.07242 -4.87114e-16 -6.98031e-17)
(1.07434 -4.9966e-16 -4.93275e-17)
(1.07434 -4.85291e-16 -4.92484e-17)
(1.07624 -5.00101e-16 -4.21545e-17)
(1.07624 -4.82243e-16 -5.50029e-17)
(1.07813 -4.76819e-16 -4.99686e-17)
(1.07813 -4.98764e-16 -7.60367e-17)
(1.08 -4.45789e-16 -5.41873e-17)
(1.08 -5.26978e-16 -7.95689e-17)
(1.08186 -4.29404e-16 -4.98905e-17)
(1.08186 -4.9469e-16 -9.21236e-17)
(1.08369 -4.41117e-16 -7.34135e-17)
(1.08369 -4.99273e-16 -8.65703e-17)
(1.08551 -4.84634e-16 -8.53255e-17)
(1.08551 -4.8637e-16 -1.03394e-16)
(1.0873 -4.74168e-16 -1.29825e-16)
(1.0873 -4.39493e-16 -1.08878e-16)
(1.08907 -4.72178e-16 -1.45157e-16)
(1.08907 -4.54354e-16 -1.06829e-16)
(1.09082 -4.70771e-16 -1.35002e-16)
(1.09082 -4.60633e-16 -1.22626e-16)
(1.09255 -4.52615e-16 -1.71522e-16)
(1.09255 -4.50921e-16 -1.01347e-16)
(1.09425 -4.16622e-16 -1.52011e-16)
(1.09425 -4.41339e-16 -1.29635e-16)
(1.09593 -4.12955e-16 -1.33226e-16)
(1.09593 -4.31884e-16 -1.08797e-16)
(1.09758 -3.75546e-16 -1.51868e-16)
(1.09758 -4.4559e-16 -1.31056e-16)
(1.0992 -3.63188e-16 -1.43669e-16)
(1.0992 -4.11226e-16 -1.41067e-16)
(1.10079 -3.97032e-16 -1.34841e-16)
(1.10079 -3.80583e-16 -1.49362e-16)
(1.10235 -3.61533e-16 -1.94386e-16)
(1.10235 -4.04077e-16 -1.37817e-16)
(1.10388 -2.93087e-16 -2.11468e-16)
(1.10388 -3.56715e-16 -1.65874e-16)
(1.10537 -3.2265e-16 -1.96581e-16)
(1.10537 -3.11246e-16 -1.63949e-16)
(1.10683 -3.33323e-16 -2.50045e-16)
(1.10683 -3.09573e-16 -2.4961e-16)
(1.10825 -3.36076e-16 -3.16482e-16)
(1.10825 -2.84145e-16 -2.81901e-16)
(1.10963 -3.57977e-16 -3.22496e-16)
(1.10963 -3.29592e-16 -2.84745e-16)
(1.11097 -3.96335e-16 -2.91471e-16)
(1.11097 -3.56455e-16 -2.84288e-16)
(1.11226 -4.09061e-16 -3.24369e-16)
(1.11226 -3.72155e-16 -3.09368e-16)
(1.1135 -3.99001e-16 -3.46713e-16)
(1.1135 -4.19612e-16 -3.4825e-16)
(1.1147 -4.83908e-16 -3.18433e-16)
(1.1147 -4.40407e-16 -3.2715e-16)
(1.11584 -5.05772e-16 -3.01223e-16)
(1.11584 -4.50966e-16 -3.22001e-16)
(1.11693 -5.07016e-16 -3.07566e-16)
(1.11693 -4.53779e-16 -3.3298e-16)
(1.11796 -4.75868e-16 -3.28972e-16)
(1.11796 -4.27708e-16 -3.11202e-16)
(1.11892 -4.37721e-16 -3.11157e-16)
(1.11892 -4.72507e-16 -2.92518e-16)
(1.11982 -4.35348e-16 -3.29869e-16)
(1.11982 -5.40861e-16 -2.83484e-16)
(1.12065 -3.94554e-16 -3.51643e-16)
(1.12065 -5.37681e-16 -2.66569e-16)
(1.12141 -4.87962e-16 -2.87592e-16)
(1.12141 -5.08291e-16 -2.38427e-16)
(1.12208 -5.10094e-16 -3.05179e-16)
(1.12208 -5.11827e-16 -2.41892e-16)
(1.12268 -4.48894e-16 -3.05112e-16)
(1.12268 -5.38633e-16 -2.82662e-16)
(1.12319 -5.45749e-16 -2.8935e-16)
(1.12319 -5.24024e-16 -3.56507e-16)
(1.1236 -5.36412e-16 -3.00839e-16)
(1.1236 -5.2575e-16 -3.15991e-16)
(1.12392 -4.97348e-16 -3.09797e-16)
(1.12392 -4.82013e-16 -2.4657e-16)
(1.12414 -4.84415e-16 -2.69554e-16)
(1.12414 -4.47156e-16 -2.63645e-16)
(1.12425 -4.56578e-16 -2.44419e-16)
(1.12425 -4.18883e-16 -2.35107e-16)
(0.002186 3.77843e-20 6.90526e-19)
(0.002186 2.43963e-20 5.154e-18)
(0.00658913 -1.82453e-19 -1.33502e-18)
(0.00658913 -1.96933e-20 1.17402e-17)
(0.0110556 -2.03363e-19 -1.37589e-18)
(0.0110556 3.79253e-20 1.20879e-17)
(0.0155864 -3.09852e-19 -1.41941e-18)
(0.0155864 6.10854e-20 1.2449e-17)
(0.0201825 -4.18942e-19 -1.46593e-18)
(0.0201825 8.56538e-20 1.28243e-17)
(0.0248448 -5.24724e-19 -1.51559e-18)
(0.0248448 1.0081e-19 1.32145e-17)
(0.0295743 -6.22729e-19 -1.56842e-18)
(0.0295743 1.2269e-19 1.36201e-17)
(0.034372 -7.43337e-19 -1.62457e-18)
(0.034372 1.88836e-19 1.40419e-17)
(0.039239 -8.9092e-19 -1.6847e-18)
(0.039239 2.39111e-19 1.44806e-17)
(0.0441761 -1.04208e-18 -1.74914e-18)
(0.0441761 2.9864e-19 1.49368e-17)
(0.0491845 -1.1998e-18 -1.8177e-18)
(0.0491845 3.75003e-19 1.54113e-17)
(0.0542651 -1.34353e-18 -1.89103e-18)
(0.0542651 4.22347e-19 1.59049e-17)
(0.0594191 -1.47827e-18 -1.969e-18)
(0.0594191 4.58559e-19 1.64183e-17)
(0.0646475 -1.59655e-18 -2.05158e-18)
(0.0646475 4.71801e-19 1.6952e-17)
(0.0699513 -1.68652e-18 -2.13843e-18)
(0.0699513 4.73079e-19 1.75066e-17)
(0.0753316 -1.76421e-18 -2.22984e-18)
(0.0753316 4.91538e-19 1.80828e-17)
(0.0807894 -1.83972e-18 -2.32593e-18)
(0.0807894 5.44659e-19 1.86821e-17)
(0.0863258 -1.94858e-18 -2.42728e-18)
(0.0863258 5.51107e-19 1.93046e-17)
(0.0919418 -2.02698e-18 -2.53382e-18)
(0.0919418 5.89516e-19 1.9951e-17)
(0.0976383 -2.07707e-18 -2.64542e-18)
(0.0976383 6.21269e-19 2.06218e-17)
(0.103416 -2.15855e-18 -2.76306e-18)
(0.103416 6.28092e-19 2.1318e-17)
(0.109277 -2.24518e-18 -2.88594e-18)
(0.109277 6.7038e-19 2.20406e-17)
(0.11522 -2.34012e-18 -3.01419e-18)
(0.11522 7.11739e-19 2.27886e-17)
(0.121248 -2.52425e-18 -3.14847e-18)
(0.121248 7.28632e-19 2.35643e-17)
(0.12736 -2.67699e-18 -3.28976e-18)
(0.12736 8.2269e-19 2.43665e-17)
(0.133557 -2.79613e-18 -3.43632e-18)
(0.133557 9.64605e-19 2.51964e-17)
(0.139839 -2.9759e-18 -3.58662e-18)
(0.139839 9.41827e-19 2.60525e-17)
(0.146207 -3.11694e-18 -3.74119e-18)
(0.146207 9.3588e-19 2.6936e-17)
(0.15266 -3.21958e-18 -3.90078e-18)
(0.15266 9.83884e-19 2.78472e-17)
(0.159198 -3.36738e-18 -4.06737e-18)
(0.159198 9.30585e-19 2.87864e-17)
(0.165821 -3.49978e-18 -4.24137e-18)
(0.165821 9.34349e-19 2.9753e-17)
(0.172528 -3.57064e-18 -4.42134e-18)
(0.172528 1.09899e-18 3.07437e-17)
(0.179316 -3.70679e-18 -4.60614e-18)
(0.179316 1.2127e-18 3.17592e-17)
(0.186186 -3.73177e-18 -4.79581e-18)
(0.186186 1.07973e-18 3.27968e-17)
(0.193133 -3.72038e-18 -4.98647e-18)
(0.193133 1.18624e-18 3.38567e-17)
(0.200156 -3.93906e-18 -5.18096e-18)
(0.200156 1.37856e-18 3.49362e-17)
(0.207252 -4.15537e-18 -5.38048e-18)
(0.207252 1.46244e-18 3.60286e-17)
(0.214417 -4.25131e-18 -5.58055e-18)
(0.214417 1.46445e-18 3.71346e-17)
(0.221646 -4.3002e-18 -5.78253e-18)
(0.221646 1.36634e-18 3.82521e-17)
(0.228935 -4.37258e-18 -5.98454e-18)
(0.228935 1.53922e-18 3.93742e-17)
(0.236278 -4.46239e-18 -6.18653e-18)
(0.236278 1.79569e-18 4.05014e-17)
(0.24367 -4.57751e-18 -6.38597e-18)
(0.24367 1.75117e-18 4.16276e-17)
(0.251104 -4.79109e-18 -6.58289e-18)
(0.251104 1.6737e-18 4.27445e-17)
(0.258572 -4.9927e-18 -6.77831e-18)
(0.258572 1.74967e-18 4.38519e-17)
(0.266068 -5.12531e-18 -6.96463e-18)
(0.266068 1.55922e-18 4.49371e-17)
(0.273585 -5.16062e-18 -7.14422e-18)
(0.273585 1.83481e-18 4.60009e-17)
(0.281113 -5.26962e-18 -7.31989e-18)
(0.281113 2.18057e-18 4.70458e-17)
(0.288645 -5.50469e-18 -7.48137e-18)
(0.288645 2.28079e-18 4.8056e-17)
(0.296173 -5.88869e-18 -7.63537e-18)
(0.296173 2.67721e-18 4.90334e-17)
(0.303688 -6.50651e-18 -7.77918e-18)
(0.303688 3.29855e-18 4.99778e-17)
(0.311182 -6.86213e-18 -7.91609e-18)
(0.311182 3.543e-18 5.08923e-17)
(0.318648 -6.98772e-18 -8.03048e-18)
(0.318648 3.35952e-18 5.17728e-17)
(0.326077 -7.23996e-18 -8.1243e-18)
(0.326077 3.25583e-18 5.2612e-17)
(0.333464 -7.51712e-18 -8.20559e-18)
(0.333464 3.45822e-18 5.3423e-17)
(0.3408 -7.73914e-18 -8.26846e-18)
(0.3408 3.96027e-18 5.41879e-17)
(0.34808 -7.81118e-18 -8.31027e-18)
(0.34808 4.09114e-18 5.49168e-17)
(0.355298 -7.98145e-18 -8.33664e-18)
(0.355298 3.98923e-18 5.56074e-17)
(0.362448 -8.04621e-18 -8.34246e-18)
(0.362448 3.83631e-18 5.62507e-17)
(0.369527 -7.99012e-18 -8.32465e-18)
(0.369527 3.63809e-18 5.68439e-17)
(0.37653 -8.03014e-18 -8.29467e-18)
(0.37653 3.80763e-18 5.74062e-17)
(0.383453 -7.96847e-18 -8.24411e-18)
(0.383453 4.03009e-18 5.7934e-17)
(0.390294 -8.04564e-18 -8.16842e-18)
(0.390294 4.44966e-18 5.84364e-17)
(0.39705 -8.156e-18 -8.06474e-18)
(0.39705 4.52523e-18 5.89114e-17)
(0.40372 -8.20492e-18 -7.93345e-18)
(0.40372 4.49742e-18 5.9364e-17)
(0.410301 -8.7979e-18 -7.77888e-18)
(0.410301 4.7688e-18 5.98011e-17)
(0.416794 -9.43676e-18 -7.62292e-18)
(0.416794 4.85529e-18 6.0214e-17)
(0.423197 -9.609e-18 -7.4763e-18)
(0.423197 5.6294e-18 6.06135e-17)
(0.42951 -9.77446e-18 -7.33371e-18)
(0.42951 6.08826e-18 6.09902e-17)
(0.435734 -9.57935e-18 -7.19373e-18)
(0.435734 5.69935e-18 6.13516e-17)
(0.441868 -9.52477e-18 -7.04003e-18)
(0.441868 5.45567e-18 6.1696e-17)
(0.447914 -1.0033e-17 -6.88014e-18)
(0.447914 5.73715e-18 6.20245e-17)
(0.453871 -9.94101e-18 -6.73165e-18)
(0.453871 6.05515e-18 6.23532e-17)
(0.459742 -9.81155e-18 -6.5732e-18)
(0.459742 6.25477e-18 6.26843e-17)
(0.465527 -9.57634e-18 -6.41713e-18)
(0.465527 6.49967e-18 6.30313e-17)
(0.471228 -9.37689e-18 -6.26041e-18)
(0.471228 6.88703e-18 6.33964e-17)
(0.476846 -9.42757e-18 -6.13665e-18)
(0.476846 7.23924e-18 6.38005e-17)
(0.482383 -9.2774e-18 -6.02373e-18)
(0.482383 7.52642e-18 6.42276e-17)
(0.48784 -9.22478e-18 -5.90684e-18)
(0.48784 7.7017e-18 6.46728e-17)
(0.493218 -9.37437e-18 -5.80174e-18)
(0.493218 7.96393e-18 6.51405e-17)
(0.498521 -9.79673e-18 -5.71025e-18)
(0.498521 8.36488e-18 6.56449e-17)
(0.503748 -9.82857e-18 -5.63674e-18)
(0.503748 8.46849e-18 6.6181e-17)
(0.508903 -9.84732e-18 -5.577e-18)
(0.508903 7.66993e-18 6.67533e-17)
(0.513987 -9.79877e-18 -5.49863e-18)
(0.513987 7.0038e-18 6.72904e-17)